18
gdb 81498	3.66884	1.25453	1.05999	3.5063	77.27	-0.2872	0.0188	0.3059	1151.3879	0.147315	-401.907132	-401.898771	-401.897827	-401.939616	32.486	
C	-0.2040713248	 1.5773577637	-0.021727103	-0.449991
C	 0.0259880127	 0.0750112812	 0.0009352588	 0.031777
C	 1.2290509708	-0.5842338922	-0.7587538497	-0.122724
C	 2.1676429444	-0.0600572657	 0.3649005594	-0.266902
C	 0.911750892	-0.6045699848	 1.1068620343	-0.093447
C	 0.9880384253	-1.8397430898	 0.161468438	 0.332602
O	-0.2018163355	-2.5784084864	 0.0474008553	-0.475089
C	 2.1185765236	-2.7651599623	 0.3251300891	 0.214266
N	 2.9691976336	-3.5433661418	 0.4144650659	-0.347511
H	 0.6964918791	 2.1731392629	 0.1430485284	 0.12054
H	-0.626134095	 1.8771355377	-0.9871562928	 0.123633
H	-0.9302939929	 1.8562508944	 0.7494112587	 0.125478
H	-0.9178353232	-0.4442049996	-0.1644050235	 0.09954
H	 1.4195799341	-0.6047721266	-1.8329159473	 0.082714
H	 3.1071383973	-0.5932445142	 0.5203833885	 0.12975
H	 2.3239739377	 1.0151069768	 0.4038098654	 0.109345
H	 0.7328889207	-0.6462022767	 2.1816096287	 0.089559
H	-0.09246741	-3.2348800767	-0.649418464	 0.29646
129.6813	157.1064	175.8001	265.2895	275.3402	300.725	350.9046	403.8145	480.8278	522.7102	554.8686	612.7006	690.0976	759.0043	793.8449	814.0296	897.491	917.2459	1008.0029	1019.5254	1026.1243	1053.1921	1066.4853	1087.2747	1127.8594	1161.1057	1163.6116	1183.7709	1206.7101	1231.3724	1243.6503	1264.9387	1354.9225	1412.0436	1425.9831	1495.8298	1497.9338	1531.2326	2345.7689	3038.244	3089.2992	3094.4908	3103.3926	3107.7471	3117.6421	3127.4377	3166.5464	3810.0022
CC1C2CC1C2(O)C#N	C[C@H]1[C@H]2C[C@@H]1[C@]2(O)C#N	
InChI=1S/C7H9NO/c1-4-5-2-6(4)7(5,9)3-8/h4-6,9H,2H2,1H3	InChI=1S/C7H9NO/c1-4-5-2-6(4)7(5,9)3-8/h4-6,9H,2H2,1H3/t4-,5+,6-,7-
