23
gdb 62492	1.98466	1.4017	1.15482	0.9469	93.71	-0.2328	0.0531	0.2858	1260.3678	0.201381	-351.126773	-351.115572	-351.114628	-351.162026	41.923	
C	-0.1096549579	 1.5380947926	 0.0154764364	-0.454876
C	-0.014026567	 0.0213102878	 0.0342749012	 0.271155
C	-1.2090842639	-0.6259047104	-0.6479275537	-0.451691
C	 1.3568626995	-0.6365512137	-0.1893782044	-0.323529
C	 2.5390769307	 0.1322850186	-0.4349496642	 0.340407
C	 3.5371023882	 0.771932832	-0.6477565174	-0.452853
C	 0.6807769193	-0.6777534247	 1.1902224054	 0.271134
C	 1.2767948265	 0.1431278935	 2.3220212615	-0.454788
C	 0.1880803154	-2.0316794117	 1.6766544563	-0.451684
H	 0.8081593072	 2.0279221647	 0.3405598867	 0.130785
H	-0.3193166939	 1.887494364	-1.0016986074	 0.116024
H	-0.9293555019	 1.8818474211	 0.657137822	 0.111923
H	-1.31977474	-0.2320397511	-1.6645408423	 0.118977
H	-1.1241903192	-1.711246412	-0.7261270703	 0.115058
H	-2.1362465134	-0.4011925987	-0.1069695473	 0.11592
H	 1.3237860894	-1.5756244165	-0.7374064816	 0.099996
H	 4.4187478771	 1.3314208246	-0.8387456383	 0.18939
H	 1.7878499409	 1.0411596028	 1.9751364201	 0.130712
H	 0.4985558442	 0.4429581336	 3.033542704	 0.111902
H	 2.0122100424	-0.4551151518	 2.8715263655	 0.116066
H	 0.9965195109	-2.5623322013	 2.1921323495	 0.118962
H	-0.634575892	-1.9136712132	 2.3922423837	 0.115924
H	-0.1629464026	-2.6771728902	 0.8695498147	 0.115086
114.6916	132.2575	134.4909	155.4135	166.2988	176.6564	187.7526	280.6749	310.6551	350.6837	377.5165	389.5649	414.1824	448.433	540.5548	560.5777	582.5629	644.3511	665.5973	699.8364	833.9184	942.0308	960.0814	972.1823	972.2182	998.2317	1026.4677	1048.997	1093.223	1141.6875	1153.8591	1186.5597	1216.7826	1296.9855	1329.0982	1403.2229	1412.0626	1414.3612	1416.1782	1437.4843	1474.262	1480.6303	1486.9842	1491.4526	1496.725	1501.0698	1513.8503	1522.7839	2226.1599	3024.5587	3027.8326	3029.9708	3035.053	3080.4413	3082.0015	3085.1521	3086.7011	3115.3397	3124.137	3133.0537	3135.5392	3149.7063	3504.4499
CC1(C)C(C#C)C1(C)C	CC1(C)C(C#C)C1(C)C	
InChI=1S/C9H14/c1-6-7-8(2,3)9(7,4)5/h1,7H,2-5H3	InChI=1S/C9H14/c1-6-7-8(2,3)9(7,4)5/h1,7H,2-5H3
