17
gdb 117482	6.08747	0.60715	0.56653	5.0325	67.15	-0.2684	-0.0376	0.2308	1855.534	0.132222	-496.124517	-496.11435	-496.113406	-496.161393	33.949	
O	-0.0234570872	 1.229288857	 0.1022777712	-0.422148
C	-0.0636447775	-0.1838418169	 0.2122727078	-0.072847
C	-1.4550168133	-0.6204939536	-0.2255279097	-0.292032
C	-1.658315472	-2.1185052802	-0.1732523026	 0.358127
O	-0.76786661	-2.9063276784	 0.0394137903	-0.28419
C	-3.0985394175	-2.6050116244	-0.3757295312	-0.198386
O	-3.1632421117	-3.9759898427	-0.7116669348	-0.164332
C	-2.8923125028	-4.8652600747	 0.2750977023	 0.190968
O	-2.8450671492	-6.0386535981	 0.0743655085	-0.270635
H	 0.8575514632	 1.5245378745	 0.3498616147	 0.291821
H	 0.6887876252	-0.668745742	-0.4243124931	 0.112925
H	 0.1212588632	-0.5195167313	 1.2432504391	 0.103188
H	-2.219194966	-0.1237283798	 0.3872127993	 0.133854
H	-1.6432648321	-0.2815887442	-1.2536956678	 0.145537
H	-3.6631662985	-2.3835972135	 0.5433781189	 0.137602
H	-3.581620663	-2.0587114205	-1.1898579208	 0.148955
H	-2.760890981	-4.386936941	 1.2627020679	 0.081593
41.1148	65.1282	71.6903	102.1531	159.1915	186.1308	269.7444	288.377	304.7865	365.6271	409.649	460.903	634.8774	725.7398	765.3783	872.1995	921.2103	999.3867	1030.3495	1053.3166	1062.3008	1105.7905	1109.0898	1177.1375	1213.6691	1256.452	1290.189	1308.5667	1348.3952	1387.7096	1429.4547	1446.7811	1468.1472	1472.7995	1524.1908	1816.8273	1877.4716	2971.7745	2995.0034	2999.4285	3025.2524	3028.066	3060.3363	3104.545	3832.556
OCCC(=O)COC=O	OCCC(=O)COC=O	
InChI=1S/C5H8O4/c6-2-1-5(8)3-9-4-7/h4,6H,1-3H2	InChI=1S/C5H8O4/c6-2-1-5(8)3-9-4-7/h4,6H,1-3H2
