23
gdb 58890	3.02926	1.23415	1.04369	1.6603	84.8	-0.2466	0.081	0.3277	1262.3408	0.206287	-388.291296	-388.282159	-388.281214	-388.325055	35.534	
C	 0.297458512	 1.574415477	-0.1063328066	-0.385351
C	 0.0341883611	 0.0655906899	 0.0466739794	-0.071055
C	 0.3686053891	-0.6685401302	-1.2586525731	-0.404052
C	 0.751779494	-0.4839400638	 1.2723587751	 0.354354
C	 2.2012517913	-0.9118019793	 1.2677097419	-0.330328
C	 1.1173598603	-1.9338117921	 1.5125247278	-0.124148
C	 0.7932137571	-2.2170769429	 2.9659117954	-0.094762
O	 0.7384857486	-0.9409044991	 3.5960210095	-0.256891
C	 0.2734954085	 0.003934768	 2.6390168573	-0.144388
H	 1.3641765819	 1.7664963478	-0.2674749223	 0.11738
H	-0.2508689258	 1.9815444405	-0.9621466082	 0.108828
H	-0.011351047	 2.1337568619	 0.7821336842	 0.116145
H	-1.0433803941	-0.0659498381	 0.2275940194	 0.071941
H	 1.4240194702	-0.5528167986	-1.5284111924	 0.117672
H	 0.1492301596	-1.7382434227	-1.1945245685	 0.114629
H	-0.223512589	-0.258421516	-2.0828741057	 0.113812
H	 2.7146864886	-0.9565007961	 0.3140705577	 0.108015
H	 2.8274325857	-0.6189375281	 2.105276278	 0.117855
H	 0.9293602042	-2.7049383853	 0.7751535943	 0.085717
H	-0.171590244	-2.745412613	 3.0460005993	 0.087764
H	 1.5518740005	-2.8056241615	 3.4933440392	 0.106373
H	 0.6713238744	 0.9802347673	 2.9353764858	 0.106331
H	-0.8289213272	 0.0653857543	 2.6417147221	 0.084158
48.9574	164.0287	204.6696	222.993	245.0294	258.5379	307.8294	332.1587	402.2799	433.2038	457.844	605.6427	678.5244	730.3262	821.7919	881.6413	909.8499	918.7006	933.696	938.4102	946.1742	965.2902	1028.2326	1043.0927	1067.5963	1083.7467	1106.979	1116.8543	1133.113	1144.7502	1176.6705	1219.5097	1245.372	1255.7562	1284.8025	1346.1638	1353.2195	1366.4325	1381.1986	1400.0543	1413.8249	1424.466	1483.429	1488.0538	1494.3592	1506.7579	1510.3857	1512.7374	1523.334	2950.8251	2965.7255	2986.9813	3029.9135	3035.6022	3061.2777	3064.4686	3095.8694	3101.5664	3103.5664	3109.0717	3126.3737	3184.7113	3215.1959
CC(C)C12CC1COC2	CC(C)[C@]12C[C@H]1COC2	
InChI=1S/C8H14O/c1-6(2)8-3-7(8)4-9-5-8/h6-7H,3-5H2,1-2H3	InChI=1S/C8H14O/c1-6(2)8-3-7(8)4-9-5-8/h6-7H,3-5H2,1-2H3/t7-,8+/m0/s1
