16
gdb 5926	3.76021	1.21569	1.1488	2.9973	67.41	-0.2477	-0.0268	0.2208	1078.5293	0.125656	-383.71106	-383.701719	-383.700775	-383.745032	33.39	
C	 0.1594382719	 1.5980269304	-0.009023117	-0.393927
C	 0.0245821563	 0.0691606359	-0.0305797339	 0.126983
O	 0.646972978	-0.3942923173	 1.1739132783	-0.4456
C	-1.4678422073	-0.3642735959	-0.0545904035	-0.289562
C	-2.2462255935	 0.1248231908	 1.1511340595	 0.145984
O	-3.3421765796	 0.6213761511	 1.0890054342	-0.244275
C	 0.7057149339	-0.494461882	-1.2038431975	 0.309724
C	 1.2552380666	-0.992130803	-2.1501693162	-0.457425
H	 1.2148379372	 1.8762600658	-0.009128919	 0.138496
H	-0.3273508382	 2.0397385268	-0.8814666249	 0.13274
H	-0.3066133469	 1.9974488082	 0.8962510877	 0.134698
H	 0.825543033	-1.3356686773	 1.0715446562	 0.287242
H	-1.9653503513	-0.0230920146	-0.9659270066	 0.131496
H	-1.5002777125	-1.4626971865	-0.0465314098	 0.121391
H	-1.7314342259	-0.0254398757	 2.1231378555	 0.097509
H	 1.7481875282	-1.4200515667	-2.9884103431	 0.204525
67.5649	95.3238	142.3909	182.7582	229.3904	250.3691	303.611	341.6222	390.9687	443.5423	454.4888	561.2124	584.795	637.2993	673.4583	719.033	830.4131	915.4733	942.7194	983.0848	1051.9669	1114.2581	1163.5965	1173.8983	1228.9006	1299.9263	1374.735	1410.666	1417.5622	1450.6857	1479.7018	1494.9835	1828.2526	2231.4847	2917.8722	3023.1414	3052.9295	3110.0284	3129.9412	3145.1798	3498.8499	3808.7349
CC(O)(CC=O)C#C	C[C@@](O)(CC=O)C#C	
InChI=1S/C6H8O2/c1-3-6(2,8)4-5-7/h1,5,8H,4H2,2H3	InChI=1S/C6H8O2/c1-3-6(2,8)4-5-7/h1,5,8H,4H2,2H3/t6-/m0/s1
