17
gdb 54002	3.43536	0.95217	0.82209	1.5163	77.76	-0.2447	-0.0543	0.1903	1399.4406	0.132933	-417.998981	-417.988948	-417.988004	-418.034542	35.789	
C	 0.2089933743	 1.3258827625	-0.3992746621	-0.472708
C	-0.0286670311	-0.0346477612	 0.2017844849	 0.371895
O	 0.8626730907	-0.7456355223	 0.6163896662	-0.314624
C	-1.4669498599	-0.5266110964	 0.2898638729	 0.261698
N	-1.5668826054	-1.804573149	 0.7571951582	-0.547916
N	-2.3945702835	 0.2670868714	-0.1042136186	-0.288349
C	-3.7729217095	-0.2231353437	-0.0765327514	-0.31293
C	-4.278225858	-0.5837060716	 1.2525512479	 0.300405
C	-4.6630825949	-0.8932491016	 2.3496925197	-0.462968
H	 1.2775400932	 1.5423955802	-0.3901830054	 0.133934
H	-0.1814580886	 1.3582481045	-1.4203420745	 0.154735
H	-0.3442408115	 2.0850460213	 0.1601302715	 0.158804
H	-0.7042750932	-2.1735751507	 1.1334350013	 0.269245
H	-2.4243674094	-2.0874811636	 1.2064240588	 0.266247
H	-4.4154313115	 0.5575585115	-0.4971721034	 0.141665
H	-3.8729328216	-1.1008791728	-0.7365925902	 0.13675
H	-5.0224359403	-1.1425605684	 3.3177056341	 0.204116
57.2624	74.5763	96.6459	121.9066	188.5515	229.5581	302.8597	334.1812	388.3943	451.3345	453.3707	532.4705	571.2565	615.6211	627.4589	641.5458	657.8762	723.6853	784.949	918.584	974.5738	989.5397	1006.0629	1041.9635	1151.0521	1203.1032	1260.7974	1342.1238	1374.4132	1398.8745	1452.612	1458.464	1472.3933	1608.9193	1722.4476	1793.2679	2224.2164	2971.8961	3057.792	3060.8304	3123.06	3161.8981	3501.2089	3553.6402	3673.732
CC(=O)C(N)=NCC#C	CC(=O)C(=NCC#C)N	
InChI=1S/C6H8N2O/c1-3-4-8-6(7)5(2)9/h1H,4H2,2H3,(H2,7,8)	InChI=1S/C6H8N2O/c1-3-4-8-6(7)5(2)9/h1H,4H2,2H3,(H2,7,8)
