23
gdb 47917	1.89418	1.67086	1.15149	2.7149	84.67	-0.2332	-0.009	0.2242	1196.4904	0.208228	-388.330206	-388.321496	-388.320552	-388.363283	34.432	
O	 0.0248518924	-0.0528065302	 0.1577594528	-0.3254
C	-0.0003812492	 1.1561170754	 0.0840362025	 0.387037
C	-1.3167164285	 1.9235397523	 0.0588845924	-0.285862
C	-1.3958550281	 3.0898539767	-0.9393957897	-0.205742
C	-1.3441341652	 2.6887427091	-2.4216736243	-0.18365
C	-0.1091106343	 1.8917617436	-2.8854910345	-0.197388
C	 1.2673439765	 2.5053930432	-2.5299039615	-0.188858
C	 1.9935650274	 1.8449066444	-1.3451367309	-0.189644
C	 1.3023398701	 1.9534179857	 0.0323703143	-0.280059
H	-2.1176022401	 1.1960057111	-0.1064290706	 0.117248
H	-1.4540355539	 2.3250173305	 1.0740399426	 0.118318
H	-2.3329932745	 3.6293954447	-0.7603157981	 0.100391
H	-0.5990576712	 3.8106492457	-0.7242488524	 0.101379
H	-2.2409789145	 2.1035861547	-2.6633759197	 0.09763
H	-1.4136468326	 3.6077985394	-3.0181651025	 0.094913
H	-0.1593227426	 0.8672855792	-2.499473157	 0.121852
H	-0.1853295883	 1.7911525292	-3.9739112646	 0.093207
H	 1.9294373152	 2.4190887367	-3.3987376264	 0.098328
H	 1.1633985234	 3.583568182	-2.348076258	 0.092257
H	 2.1378330975	 0.7793407352	-1.5607965785	 0.119314
H	 2.9937598992	 2.2842371845	-1.2555757297	 0.095912
H	 1.1426844071	 3.0040580948	 0.2954815572	 0.097247
H	 1.965311444	 1.514587912	 0.7847718665	 0.12157
94.972	136.4458	196.1801	232.7331	240.8745	320.7517	353.1951	399.3423	451.5015	502.1668	516.3844	606.5404	722.2257	746.4679	792.5823	824.5994	853.7585	872.6341	925.1567	940.3372	973.3351	1011.7666	1045.6815	1072.5765	1104.552	1109.4715	1122.8907	1163.722	1210.6229	1221.4157	1250.9856	1268.501	1285.8138	1311.5758	1349.4439	1357.0395	1365.6246	1379.3852	1383.8678	1394.4997	1401.24	1456.5599	1473.3869	1484.868	1488.0854	1489.8451	1502.1783	1503.9493	1797.8648	3007.2403	3013.1936	3017.0843	3028.1899	3032.4977	3039.283	3044.6781	3047.5055	3060.543	3069.3776	3071.1543	3075.4349	3088.7076	3096.9011
O=C1CCCCCCC1	O=C1CCCCCCC1	
InChI=1S/C8H14O/c9-8-6-4-2-1-3-5-7-8/h1-7H2	InChI=1S/C8H14O/c9-8-6-4-2-1-3-5-7-8/h1-7H2
