21
gdb 94853	3.84744	1.13057	1.05856	1.0598	78.66	-0.246	0.0824	0.3284	1243.3874	0.182595	-424.228693	-424.219981	-424.219037	-424.26283	32.926	
C	-0.0295491709	 1.4783994626	-0.147040239	-0.402061
C	 0.1012508875	-0.0078636109	 0.1107678978	 0.21942
O	 0.40343385	-0.7161858185	-1.0900009563	-0.278445
C	 1.5219905072	-1.5560691478	-0.8384477303	-0.140884
C	 1.6674394723	-1.5408198914	 0.6879071647	 0.412916
C	 1.0742872599	-2.7662859407	 1.447415235	-0.284247
C	 2.5238774018	-3.2983715381	 1.6179304933	-0.217096
C	 3.0509197277	-1.8756109427	 1.2770554742	-0.297448
O	 1.1613805317	-0.2575662686	 1.0080372108	-0.295641
H	 0.910034377	 1.8688873393	-0.5459708301	 0.125564
H	-0.8291587817	 1.6602001572	-0.8696733609	 0.126604
H	-0.2700061333	 2.0013908534	 0.7827577296	 0.123832
H	-0.8393983797	-0.418750616	 0.5191893025	 0.066047
H	 1.3301286276	-2.553833507	-1.2474974858	 0.106287
H	 2.4212703235	-1.1448588473	-1.3194390737	 0.094866
H	 0.6444357594	-2.4422920281	 2.3989213923	 0.110312
H	 0.3513674154	-3.3952593884	 0.9220211923	 0.100988
H	 2.7922218113	-3.7067702335	 2.5935720449	 0.105159
H	 2.7894169384	-4.0311484565	 0.851409461	 0.106024
H	 3.9134078576	-1.785244724	 0.6115456823	 0.099425
H	 3.2304405971	-1.2784967932	 2.1744784155	 0.118376
37.8194	100.1411	117.7642	220.3409	270.6524	292.9402	376.1775	411.7856	454.0672	536.5616	685.1667	714.8376	787.4157	789.9517	843.7205	868.101	901.3173	924.7136	930.7591	956.7698	979.5919	1036.7005	1050.879	1109.4253	1133.0133	1152.2633	1159.6867	1168.516	1195.0791	1207.5996	1233.8367	1249.0768	1275.6887	1284.8653	1304.8788	1355.5123	1393.7161	1395.3706	1431.6603	1470.0416	1484.0935	1484.9891	1486.6729	1505.7096	1525.5911	2938.1165	2995.4346	3050.1125	3057.7753	3061.3222	3063.4417	3069.4151	3107.9766	3116.2834	3129.1509	3129.9134	3135.5938
CC1OCC2(CCC2)O1	C[C@H]1OCC2(CCC2)O1	
InChI=1S/C7H12O2/c1-6-8-5-7(9-6)3-2-4-7/h6H,2-5H2,1H3	InChI=1S/C7H12O2/c1-6-8-5-7(9-6)3-2-4-7/h6H,2-5H2,1H3/t6-/m0/s1
