21
gdb 103882	3.43171	0.84201	0.76455	2.0292	85.6	-0.2562	0.0529	0.3092	1579.5956	0.178674	-387.048375	-387.037789	-387.036845	-387.084618	38.481	
C	-0.6830971932	 1.2271736534	 0.321923158	-0.381939
C	 0.3486502202	 0.1835091853	-0.1280470438	-0.249988
C	 1.0609526	-0.4824603895	 1.0395964204	 0.401565
C	 2.0443583815	 0.3931681155	 1.7921548417	-0.462751
O	 0.2192271761	-1.2880021339	 1.8919817024	-0.292299
C	 1.2318822063	-1.9462940593	 1.1316138316	 0.004824
C	 0.7792959312	-2.9514992299	 0.0818102892	-0.394335
C	 0.5882935649	-4.2852955178	 0.6425822738	 0.298426
C	 0.4474223947	-5.3785593572	 1.1205697879	-0.435306
H	-0.217090952	 2.060905584	 0.8556583102	 0.118188
H	-1.2125558383	 1.6424418592	-0.540434581	 0.113539
H	-1.4192903601	 0.7685754116	 0.9882150562	 0.137482
H	-0.1565502679	-0.5698578739	-0.7379133548	 0.101081
H	 1.1018974476	 0.6531376471	-0.7733427695	 0.099459
H	 1.5538403388	 1.289949087	 2.1831664604	 0.129366
H	 2.4734735339	-0.1501458432	 2.6372780932	 0.12879
H	 2.8584595477	 0.7159129118	 1.1339935346	 0.119086
H	 2.0705109537	-2.3069469718	 1.7308561148	 0.092857
H	-0.1534347863	-2.6112484219	-0.3774942181	 0.141674
H	 1.5326813268	-2.9951973713	-0.716704998	 0.133737
H	 0.3107208544	-6.3447962851	 1.5387319307	 0.196544
39.0816	62.0845	110.2587	166.0429	197.8196	212.1116	247.1412	281.103	334.6728	360.2775	402.1889	454.0769	507.3025	587.8747	619.2924	644.0164	690.1391	777.1023	805.025	883.4729	937.891	960.1016	993.3447	1004.3202	1033.572	1068.2244	1113.6121	1131.4362	1143.2759	1228.6741	1256.905	1307.2986	1316.4259	1337.9914	1380.9482	1406.2209	1412.2319	1452.7316	1468.9762	1476.7814	1489.9707	1504.1781	1505.3151	1510.6278	2241.811	3019.6654	3032.6426	3039.1665	3043.949	3076.9528	3087.1867	3094.8826	3103.3592	3113.5772	3121.2214	3125.3186	3506.9489
CCC1(C)OC1CC#C	CC[C@@]1(C)O[C@H]1CC#C	
InChI=1S/C8H12O/c1-4-6-7-8(3,5-2)9-7/h1,7H,5-6H2,2-3H3	InChI=1S/C8H12O/c1-4-6-7-8(3,5-2)9-7/h1,7H,5-6H2,2-3H3/t7-,8+/m0/s1
