18
gdb 14994	4.25729	1.48567	1.18341	2.5882	69.88	-0.2468	0.0147	0.2615	1021.5249	0.155178	-384.942162	-384.934571	-384.933627	-384.974136	28.889	
O	 0.0570876356	 1.3865745893	-0.103186147	-0.426543
C	 0.0458559206	-0.0204975364	 0.0013396475	-0.059868
C	-1.384764268	-0.5607377104	 0.0839379976	 0.063386
O	-2.0302385496	-0.074869806	-1.0895294643	-0.281154
C	-3.2747039061	-0.7024230306	-1.3535745274	-0.075852
C	-3.0804053815	-2.1891240669	-1.6596439915	-0.254884
C	-2.1797657508	-2.8073379687	-0.6226379706	-0.073531
C	-1.4330192944	-2.0599613554	 0.1870403425	-0.070141
H	-0.566691188	 1.5998791716	-0.8075735874	 0.291396
H	 0.5506965693	-0.4999108959	-0.8524384589	 0.091475
H	 0.5936356679	-0.2834310374	 0.9123409085	 0.103342
H	-1.8627977493	-0.1071518249	 0.9720762835	 0.080327
H	-3.9488954109	-0.584145342	-0.4902389062	 0.095199
H	-3.713587478	-0.1691545327	-2.2013340969	 0.107069
H	-4.0542586032	-2.6949481438	-1.6737191762	 0.105592
H	-2.6524254484	-2.3171223726	-2.6631865229	 0.11757
H	-2.1665929292	-3.8907694494	-0.5390633262	 0.092994
H	-0.8175068859	-2.5108855177	 0.961515596	 0.093624
85.7576	137.286	201.4018	278.3752	336.5426	405.2261	444.5975	476.5882	516.4609	583.5377	681.0958	781.8579	822.8935	886.648	935.8627	977.1796	1001.2095	1013.762	1075.2658	1078.9825	1086.8608	1113.3053	1117.9507	1206.977	1224.2931	1242.1636	1289.1153	1300.8466	1355.7894	1365.6662	1386.6741	1400.6258	1424.7357	1442.2885	1469.9026	1498.1257	1501.701	1723.0841	2931.2824	2980.8466	2983.0402	3015.8422	3050.483	3077.3309	3089.0139	3150.4355	3172.9006	3793.5855
OCC1OCCC=C1	OC[C@H]1OCCC=C1	
InChI=1S/C6H10O2/c7-5-6-3-1-2-4-8-6/h1,3,6-7H,2,4-5H2	InChI=1S/C6H10O2/c7-5-6-3-1-2-4-8-6/h1,3,6-7H,2,4-5H2/t6-/m0/s1
