12
gdb 42352	7.77805	0.59363	0.5534	6.5845	85.87	-0.284	-0.1005	0.1835	1817.9565	0.074261	-398.314558	-398.305448	-398.304504	-398.349805	30.885	
O	-0.0409806856	-0.1487354605	 0.0019835417	-0.242216
C	-0.0549993366	 1.0581761065	 0.0059151837	 0.137904
C	 1.2210212277	 1.9160966442	-0.0004805624	-0.440772
C	 2.4469824454	 1.1280394208	-0.0137189728	 0.270428
N	 3.4332859727	 0.5286574943	-0.0242908887	-0.288211
C	-1.2758824852	 1.8290530394	 0.0168822634	 0.346988
C	-2.3041263048	 2.4728120184	 0.0259589407	-0.128721
C	-3.4545697058	 3.1920081629	 0.0363530709	 0.289096
C	-4.4781083335	 3.832626313	 0.0448274073	-0.530627
H	 1.1922419832	 2.5802831894	-0.8728922034	 0.186076
H	 1.206036481	 2.5721315137	 0.8784582241	 0.186133
H	-5.3801901285	 4.3947229379	 0.0529503855	 0.213922
36.7643	59.0465	112.5264	155.3971	216.547	290.4895	355.0917	372.196	447.0126	491.2928	541.1477	551.6871	602.8248	610.2617	650.942	793.3923	916.6769	940.3744	1000.2723	1193.4384	1213.4998	1333.8653	1431.6224	1775.3735	2175.0677	2334.2033	2377.7513	3043.3992	3078.869	3495.9525
O=C(CC#N)C#CC#C	O=C(CC#N)C#CC#C	
InChI=1S/C7H3NO/c1-2-3-4-7(9)5-6-8/h1H,5H2	InChI=1S/C7H3NO/c1-2-3-4-7(9)5-6-8/h1H,5H2
