12
gdb 6642	8.43227	0.7904	0.73155	7.8561	68.71	-0.272	-0.0401	0.2319	1411.083	0.082563	-377.540993	-377.532409	-377.531465	-377.576051	28.477	
N	-0.1111855587	 1.3579724539	 0.1502596816	-0.528049
C	 0.0936724799	 0.0425613284	-0.1393629618	 0.436534
O	 1.1714479333	-0.4228488334	-0.424449353	-0.32595
C	-1.2081560781	-0.7950986925	-0.1187939365	-0.516437
C	-0.9639044299	-2.2209438707	-0.043939901	 0.134993
C	-0.782314354	-3.411817232	 0.0232511594	 0.051245
C	-0.5794700333	-4.7596023983	 0.1021225436	 0.21301
N	-0.4144525793	-5.9073528887	 0.1709367663	-0.336812
H	 0.6881194666	 1.9704597246	 0.1567128564	 0.272794
H	-0.9962066994	 1.7180896412	 0.4607817321	 0.265324
H	-1.8486097249	-0.483175643	 0.7158301898	 0.155363
H	-1.7644982521	-0.5633878794	-1.0372861166	 0.177983
15.6037	72.1334	143.445	148.4745	200.433	345.9952	354.9391	409.6359	493.4458	571.7283	579.9557	599.8901	641.6461	778.807	819.8195	942.2514	1090.2239	1179.3482	1213.8125	1274.8318	1366.4134	1443.9982	1621.3547	1826.3804	2273.6279	2409.6313	3021.7359	3057.8429	3604.5316	3738.8862
NC(=O)CC#CC#N	NC(=O)CC#CC#N	
InChI=1S/C5H4N2O/c6-4-2-1-3-5(7)8/h3H2,(H2,7,8)	InChI=1S/C5H4N2O/c6-4-2-1-3-5(7)8/h3H2,(H2,7,8)
