12
gdb 130104	5.71708	1.39199	1.12031	3.3193	63.9	-0.2296	-0.0329	0.1967	969.7368	0.08146	-461.136159	-461.1298	-461.128856	-461.166692	24.6	
N	-0.0427127977	 1.2846663921	 0.1732115894	-0.577222
C	 0.0090463689	-0.0762309279	 0.0681969732	 0.429597
N	-1.1076818809	-0.8246622686	 0.0505931148	-0.349152
N	-0.5473891887	-2.0626815958	 0.0037108737	 0.121707
N	-0.9842563331	-3.3330957988	-0.0383995836	-0.122221
N	 0.0637519579	-4.0797562118	-0.0804515088	-0.080444
N	 1.179953965	-3.2762764062	-0.0664986077	-0.381151
C	 0.8044106817	-1.9815566958	-0.0116403946	 0.558025
N	 1.2233845478	-0.7321105685	 0.0264974803	-0.440592
H	 0.7798583519	 1.7645306153	-0.1560590942	 0.268369
H	-0.9195942868	 1.7055922651	-0.0912176738	 0.269686
H	 2.0931800738	-3.695610429	-0.0875517988	 0.303398
165.1315	315.6334	326.727	356.1486	383.019	451.931	516.892	560.2114	619.4009	675.7367	738.0006	769.2178	816.9125	896.399	994.7071	1007.2514	1035.5294	1091.0027	1238.0021	1307.4761	1331.3894	1404.5627	1424.3776	1452.6306	1556.8084	1649.8519	1673.8203	3593.9113	3696.0052	3708.1972
NC1=NN2N=NNC2=N1	Nc1nn2nn[nH]c2n1	
InChI=1S/C2H3N7/c3-1-4-2-5-7-8-9(2)6-1/h(H3,3,4,5,6,8)	InChI=1S/C2H3N7/c3-1-4-2-5-7-8-9(2)6-1/h(H3,3,4,5,6,8)
