18
gdb 54602	2.67383	1.44921	1.37402	4.817	70.57	-0.2444	0.0159	0.2603	1034.9787	0.148813	-439.079809	-439.071847	-439.070902	-439.113344	29.804	
O	-0.2859957246	-0.1018767335	 0.2429697785	-0.370892
C	-0.0726924525	 1.2204180886	 0.1389829382	 0.360854
O	 1.0162876764	 1.7244044685	 0.2073186049	-0.349079
C	-1.3531971696	 2.0054056326	-0.0734260449	 0.218827
C	-1.6102022033	 2.5700170267	-1.4935252957	-0.302397
C	-2.9263619096	 1.7440832433	-1.4872375664	-0.169253
N	-2.6225195735	 1.1747461568	-0.1293854907	-0.188595
H	-1.2560340316	-0.2216482174	 0.1506213216	 0.303205
C	-3.1925652533	 1.9831342469	 1.0027670449	-0.169255
C	-1.8907681	 2.8221326206	 1.1288527648	-0.302418
H	-1.7222341489	 3.6548384143	-1.5419191662	 0.118648
H	-0.8746857174	 2.2624051915	-2.2385088927	 0.132232
H	-3.8527254844	 2.3259560119	-1.5138509159	 0.11269
H	-2.9873443662	 0.9623879646	-2.2485185633	 0.120927
H	-4.0922683613	 2.5405938249	 0.7249102428	 0.112695
H	-3.4270432488	 1.3575670456	 1.8676418108	 0.120931
H	-1.3339410685	 2.6755999428	 2.0557165859	 0.13224
H	-1.9888943029	 3.8941050414	 0.9472422934	 0.118641
36.7307	85.8406	189.5756	204.5207	299.1655	347.2266	461.6945	538.4145	686.483	704.5651	750.6846	752.4817	771.4711	812.9436	826.2759	900.1362	929.2552	945.5474	945.7646	961.608	1051.4161	1063.2674	1148.3222	1156.57	1186.7952	1203.8513	1220.5782	1224.3748	1250.9578	1261.9649	1293.7356	1303.5524	1315.3826	1424.4708	1479.5986	1491.4805	1495.3342	1515.8084	1867.4898	3048.8046	3052.1874	3077.3578	3078.5831	3097.6044	3099.9063	3132.6486	3135.9802	3493.1046
[O-]C(=O)C12CC[NH+]1CC2	OC(=O)[C@@]12CCN1CC2	
InChI=1S/C6H9NO2/c8-5(9)6-1-3-7(6)4-2-6/h1-4H2,(H,8,9)	InChI=1S/C6H9NO2/c8-5(9)6-1-3-7(6)4-2-6/h1-4H2,(H,8,9)
