22
gdb 120788	2.31268	0.97967	0.78843	1.0333	88.17	-0.2261	0.0394	0.2655	1558.7194	0.191897	-367.146625	-367.136196	-367.135252	-367.182744	37.958	
C	 1.0255396125	-0.1959402723	 4.9905316532	-0.381637
C	 1.2676870605	-1.3016605197	 3.9600271752	-0.159715
C	 0.3087381103	-1.225339524	 2.7631040296	-0.212589
C	 0.608750245	-2.2940054754	 1.7317688015	 0.02109
C	-0.0632079476	-3.6267845492	 1.7524546572	-0.25534
N	-0.3130459596	-2.6882522922	 0.6635495361	-0.109099
C	-1.6282785676	-2.053998554	 0.5003521324	-0.28411
C	-2.607822047	-2.1726999917	 1.5855332388	 0.306913
C	-3.4301087151	-2.304640846	 2.4539766873	-0.466107
H	 0.0071014879	-0.2446443221	 5.3916179358	 0.115532
H	 1.7196183361	-0.2763578815	 5.8329398231	 0.111318
H	 1.1564789984	 0.7963858544	 4.5445941025	 0.113798
H	 2.3032431239	-1.2464997284	 3.599168842	 0.095457
H	 1.1650845956	-2.2838561709	 4.4382876766	 0.100379
H	-0.7243458905	-1.3099632172	 3.1126356114	 0.117157
H	 0.4009138746	-0.2350084952	 2.293934404	 0.09337
H	 1.6407103119	-2.266857024	 1.378139635	 0.085516
H	 0.4717367983	-4.5330716848	 1.4790025575	 0.109663
H	-0.850867759	-3.7654004039	 2.4907235218	 0.120431
H	-1.4634053079	-0.9941715852	 0.2714145776	 0.137094
H	-2.0767560404	-2.4922959608	-0.4004614061	 0.14077
H	-4.1572048905	-2.4071725061	 3.2213973176	 0.200111
61.0331	70.7629	98.3819	107.8095	166.4879	241.359	247.7839	299.8212	328.1884	365.5272	437.5211	487.1395	582.2996	612.2797	660.7793	737.1164	754.62	857.4011	869.0822	892.4304	916.1639	943.5548	983.585	1010.5641	1048.8654	1080.2721	1099.2068	1127.0431	1151.7189	1173.2769	1193.651	1261.2756	1283.1269	1305.5227	1321.4886	1336.0544	1366.1761	1386.0393	1412.2611	1429.9086	1468.0798	1485.3845	1494.8431	1499.3383	1509.8178	1513.1504	2222.3695	3004.8016	3018.6429	3021.4021	3029.1948	3049.503	3054.2217	3080.1839	3093.5499	3095.9579	3100.7661	3102.1845	3179.7127	3502.1982
CCCC1CN1CC#C	CCC[C@H]1CN1CC#C	
InChI=1S/C8H13N/c1-3-5-8-7-9(8)6-4-2/h2,8H,3,5-7H2,1H3	InChI=1S/C8H13N/c1-3-5-8-7-9(8)6-4-2/h2,8H,3,5-7H2,1H3/t8-,9?/m0/s1
