21
gdb 86818	4.99295	0.7132	0.69461	3.8724	82.87	-0.2197	0.032	0.2516	1715.1542	0.181326	-420.417844	-420.407647	-420.406702	-420.45558	35.867	
C	-0.0991131656	 1.5249573845	-0.1070286489	-0.314845
N	-0.0576319575	 0.0954076423	 0.0933483003	-0.058926
C	-1.2394135162	-0.5758493388	 0.6622112991	-0.190606
C	-0.2765799325	-1.5329121245	 1.4126828033	 0.043034
C	 0.8015120727	-0.4467847886	 1.1604798299	-0.190683
N	-0.5813441748	-1.9131306624	 2.7628983884	-0.325505
C	-0.6116547366	-3.2169203291	 3.1854636494	 0.407569
C	-0.9757354979	-3.4099291774	 4.6499297908	-0.48552
O	-0.375338379	-4.156746297	 2.4496909154	-0.368447
H	 0.8761806562	 1.8804504673	-0.4560387561	 0.12287
H	-0.8398710161	 1.7719395255	-0.8749206645	 0.122856
H	-0.3589886339	 2.0860628463	 0.8122574802	 0.083921
H	-1.8017294009	 0.0596129967	 1.3714729072	 0.070184
H	-1.9391539998	-0.9988117698	-0.0658924232	 0.110798
H	-0.0839469818	-2.4511197784	 0.8606078156	 0.136702
H	 1.802158721	-0.7621296182	 0.8475612555	 0.110847
H	 0.8953395222	 0.2302224664	 2.02991651	 0.07022
H	-0.789182644	-1.1850443835	 3.4268868866	 0.238902
H	-1.9359538336	-3.9305934144	 4.7079624839	 0.153395
H	-0.2264962677	-4.0555985003	 5.1138060971	 0.154131
H	-1.0459093443	-2.4770078967	 5.2156327	 0.109102
12.8205	41.7022	80.4838	93.9392	202.9655	228.1265	302.1384	325.7356	346.0459	416.4798	457.6126	472.7687	568.9062	633.2692	678.431	809.0222	890.1455	940.0969	979.9452	987.4791	1008.0744	1016.4282	1051.0799	1103.5999	1120.2766	1135.059	1176.1826	1207.3367	1222.7414	1240.6819	1267.9628	1277.2513	1299.2538	1335.3795	1375.7799	1396.9249	1452.4471	1469.8525	1486.0643	1486.8143	1498.402	1499.4289	1527.5978	1538.7672	1784.1824	2912.2105	2925.6264	2939.0086	3048.2925	3055.4793	3063.3332	3064.627	3098.4379	3122.1449	3133.7901	3145.8729	3638.3045
CN1CC(C1)NC(C)=O	CN1CC(C1)NC(=O)C	
InChI=1S/C6H12N2O/c1-5(9)7-6-3-8(2)4-6/h6H,3-4H2,1-2H3,(H,7,9)	InChI=1S/C6H12N2O/c1-5(9)7-6-3-8(2)4-6/h6H,3-4H2,1-2H3,(H,7,9)
