19
gdb 34248	4.01509	1.29298	1.16847	1.0547	86.67	-0.2298	0.044	0.2737	1103.7343	0.160863	-348.710185	-348.702736	-348.701792	-348.741727	30.675	
C	 0.0698884246	-1.1775826294	-0.0415950949	-0.38005
C	 0.027982805	 0.0256614093	-0.0100449347	 0.102442
C	-0.0414366607	 1.4461443166	 0.0403204591	 0.241854
C	-1.2274146544	 2.2645681234	 0.573733276	-0.300508
C	-0.7924393198	 3.4443497192	-0.3537275259	-0.04677
C	 0.104462196	 4.4337320619	 0.4036573444	-0.206343
C	 1.2873778259	 3.5531228766	 0.894833392	-0.239866
C	 1.2220379379	 2.3193962394	-0.0056179247	-0.081469
C	 0.1873426992	 2.4770158435	-1.0754240703	-0.131125
H	 0.1101307631	-2.2377934183	-0.0704935768	 0.177222
H	-2.1730231173	 1.8205844934	 0.2553569214	 0.11063
H	-1.2681837759	 2.4583697928	 1.651663289	 0.092253
H	-1.5873809671	 3.9017908943	-0.9416751584	 0.07064
H	 0.4643592207	 5.2130730889	-0.2776023824	 0.097975
H	-0.4239302982	 4.9295444552	 1.2242173643	 0.097082
H	 2.2483664484	 4.0640996177	 0.7834806823	 0.101275
H	 1.1892784808	 3.2881692915	 1.9527127407	 0.105949
H	 2.1276153292	 1.7700212521	-0.2348623259	 0.094559
H	 0.3267460325	 2.3154872619	-2.1356857552	 0.094249
130.4621	147.6606	221.6948	355.8817	368.3066	474.0789	511.5091	545.306	568.2183	642.9753	665.1086	684.8652	726.058	822.1261	851.8885	863.6127	878.0239	903.343	929.0308	961.5305	989.4846	1005.375	1023.8383	1052.7561	1083.6139	1135.2046	1163.9107	1178.9738	1214.5653	1221.64	1237.0938	1264.0307	1281.1812	1302.6778	1321.6499	1341.5812	1411.4317	1486.0814	1492.2405	1508.8429	2228.436	3035.4913	3036.7256	3048.7002	3076.1017	3092.8553	3105.235	3119.8053	3186.2924	3208.3111	3504.8184
C#CC12CC3CCC1C23	C#C[C@@]12C[C@H]3CC[C@@H]1[C@@H]23	
InChI=1S/C9H10/c1-2-9-5-6-3-4-7(9)8(6)9/h1,6-8H,3-5H2	InChI=1S/C9H10/c1-2-9-5-6-3-4-7(9)8(6)9/h1,6-8H,3-5H2/t6-,7-,8+,9-/m1/s1
