18
gdb 10918	3.1949	1.95495	1.51166	2.1689	67.16	-0.2457	0.0776	0.3234	899.7832	0.152206	-384.911816	-384.903568	-384.902624	-384.944012	31.13	
C	-0.2082673043	 1.5281765256	 0.0039343956	-0.411256
C	-0.0386553836	 0.0177722723	-0.0523186228	-0.101208
C	 1.0995981438	-0.5779468345	-0.9886585217	 0.121203
O	 1.9488665021	 0.3157252889	-1.6538204267	-0.430725
C	 1.6837517972	-1.2697426348	 0.2503697867	-0.097037
O	 2.013992994	-0.1906130233	 1.1481544146	-0.30648
C	 0.6555469334	-0.6846942995	 1.1303360412	 0.42175
C	 0.0658415623	-1.1525732648	 2.4206184134	-0.504893
H	 0.7095182367	 2.0125309719	 0.3483356286	 0.120978
H	-0.4493503746	 1.9282591641	-0.985388699	 0.127018
H	-1.0147709225	 1.8104978928	 0.6889485691	 0.112382
H	-0.99035088	-0.4740940408	-0.2823392233	 0.073064
H	 0.7025240284	-1.2666188503	-1.7380834869	 0.088873
H	 2.4301786635	 0.788253238	-0.9624403142	 0.290769
H	 2.2715802539	-2.1774154966	 0.3379424806	 0.100554
H	-0.2381187134	-0.3024182325	 3.0414032839	 0.133355
H	-0.8213765242	-1.7672293533	 2.2371168714	 0.126326
H	 0.7929962171	-1.7425582933	 2.9847210293	 0.135326
110.5464	174.1514	194.0605	208.55	238.8448	258.154	344.767	460.9214	495.4998	562.9434	609.3168	678.1265	719.0199	781.5641	842.9062	861.6907	933.1828	989.7047	1010.9127	1034.43	1057.7427	1095.2464	1132.2387	1139.6304	1199.1688	1208.9126	1252.3739	1269.1097	1311.1288	1356.0031	1402.4013	1406.2944	1433.9798	1465.2121	1482.5303	1490.5176	1494.9118	1504.9299	3035.0872	3038.0431	3047.0383	3090.369	3097.6188	3103.8562	3117.9477	3120.9664	3174.6556	3773.7181
CC1C(O)C2OC12C	C[C@H]1[C@@H](O)[C@H]2O[C@@]12C	
InChI=1S/C6H10O2/c1-3-4(7)5-6(3,2)8-5/h3-5,7H,1-2H3	InChI=1S/C6H10O2/c1-3-4(7)5-6(3,2)8-5/h3-5,7H,1-2H3/t3-,4+,5+,6-/m0/s1
