21
gdb 86556	4.97388	0.84477	0.77534	2.6483	78.85	-0.2414	0.0808	0.3222	1517.3552	0.182345	-424.189348	-424.180276	-424.179332	-424.224578	32.797	
C	-0.5643550639	 1.3704833319	 0.1565131042	-0.396726
C	 0.1545856817	 0.0453657061	-0.0002750261	 0.171804
C	 0.9107528797	-0.2176957628	-1.3227150345	-0.332447
C	 2.1699526173	-0.2935616642	-0.430690149	 0.146314
O	 1.3928444341	-0.0040887891	 0.7561742803	-0.316756
C	 2.8814799622	-1.626332521	-0.3300071742	-0.041032
C	 3.9494248104	-1.8875504569	-1.4170140408	-0.090232
O	 5.0205241839	-1.7372934973	-0.4654526204	-0.272494
C	 4.0879750734	-1.6476050778	 0.634244446	-0.085056
H	 0.0746048387	 2.2004616586	-0.1613469248	 0.11933
H	-1.4794795215	 1.3831864017	-0.4461362421	 0.11513
H	-0.8416152535	 1.5323777552	 1.2028528689	 0.128112
H	-0.5069349961	-0.7782352423	 0.3014956991	 0.075746
H	 0.6497143989	-1.1402795316	-1.8454575796	 0.106112
H	 0.8916504755	 0.6137980483	-2.0297430179	 0.108696
H	 2.9082735408	 0.5004916608	-0.6131785368	 0.079807
H	 2.1552591241	-2.429103936	-0.1805234225	 0.07522
H	 3.9268864776	-2.8927892457	-1.8577744253	 0.097384
H	 4.0099744388	-1.1487090679	-2.2270870317	 0.099466
H	 4.2399345713	-0.7438177801	 1.2358418746	 0.112923
H	 4.1429571667	-2.5259330898	 1.2896034227	 0.098697
43.1908	65.8079	76.0954	155.2998	238.1643	289.2867	315.3074	328.2921	444.9332	493.4772	741.9376	780.7575	837.2372	881.1006	893.5108	896.7333	916.0231	950.1929	983.1985	1010.4972	1029.4076	1039.795	1062.4852	1081.5256	1096.3962	1132.5429	1156.4306	1163.2643	1195.0005	1230.9598	1248.2903	1256.7508	1282.2085	1309.4496	1311.897	1333.9675	1379.1231	1383.785	1406.4293	1422.9124	1482.6606	1491.2616	1496.1759	1513.6102	1539.4073	2996.3893	3002.527	3004.8356	3017.8061	3031.995	3042.4707	3060.8617	3072.019	3081.6301	3104.2892	3111.9651	3126.7485
CC1CC(O1)C1COC1	C[C@H]1C[C@@H](O1)C1COC1	
InChI=1S/C7H12O2/c1-5-2-7(9-5)6-3-8-4-6/h5-7H,2-4H2,1H3	InChI=1S/C7H12O2/c1-5-2-7(9-5)6-3-8-4-6/h5-7H,2-4H2,1H3/t5-,7+/m0/s1
