18
gdb 88067	3.12041	1.11774	0.95615	4.5481	75.47	-0.2275	0.025	0.2524	1252.5812	0.146546	-439.068423	-439.059508	-439.058564	-439.102765	32.453	
O	 0.0795188312	 1.2958561192	 0.0063076822	-0.41618
C	 0.0226481787	-0.0947189444	 0.0982811512	 0.030829
C	-0.6101364628	-0.7525414906	 1.3144890913	-0.391895
C	-1.3396606009	-0.6991602574	-0.0012019815	 0.373738
C	-2.643312467	 0.0314359649	-0.349180256	-0.329934
C	-3.0004834581	-1.1898806427	-1.2523752183	-0.169302
N	-1.7396738876	-1.8124742376	-0.838071396	-0.093881
C	-1.2174262111	-3.0165302111	-1.149571698	 0.123358
O	-1.7434212428	-3.8242509463	-1.8900604763	-0.337239
H	 0.7459342422	 1.6129570176	 0.6254470193	 0.292722
H	 0.8413402489	-0.6327804343	-0.382062029	 0.097105
H	-0.2025142979	-1.700397993	 1.6512320381	 0.124896
H	-0.9794084913	-0.1014523846	 2.1011360151	 0.124718
H	-3.3192056926	 0.1848127245	 0.4931462745	 0.118067
H	-2.4960766812	 0.9745268465	-0.8751961513	 0.136027
H	-3.8834040577	-1.7627323612	-0.9557097241	 0.127994
H	-3.0509317508	-0.9869970062	-2.3258717541	 0.129179
H	-0.2428186793	-3.1928426333	-0.648880177	 0.059796
43.0093	101.1188	144.4373	197.5923	235.7326	286.5368	314.0128	346.8523	447.6971	458.187	567.1371	607.5655	789.425	807.4474	843.135	882.2659	904.0975	943.9812	997.1603	1022.1858	1027.0479	1059.5799	1107.9808	1123.1102	1160.811	1181.7833	1205.1114	1209.2679	1246.2208	1289.9542	1324.435	1344.9264	1398.8256	1419.3052	1449.4417	1491.652	1495.2063	1525.4732	1785.7862	2914.5843	3054.8346	3090.6789	3092.6535	3100.309	3123.0904	3148.8178	3216.4201	3799.3436
OC1CC11CCN1C=O	O[C@H]1C[C@]21CCN2C=O	
InChI=1S/C6H9NO2/c8-4-7-2-1-6(7)3-5(6)9/h4-5,9H,1-3H2	InChI=1S/C6H9NO2/c8-4-7-2-1-6(7)3-5(6)9/h4-5,9H,1-3H2/t5-,6-/m0/s1
