18
gdb 31340	3.79527	1.24015	0.95166	1.3051	81.92	-0.1781	0.0541	0.2321	1232.2945	0.148776	-401.932441	-401.924129	-401.923185	-401.967677	30.343	
C	 0.0160427671	 1.3875089484	 0.1024133273	-0.242892
O	-0.0359852935	-0.0195812163	 0.0044310657	-0.266161
C	 0.5754719782	-0.5599207792	-1.0861033444	 0.155889
C	 0.6418986436	-1.9077612217	-1.3738129247	 0.255179
C	 0.4241210168	-3.4003335808	-1.2113222472	-0.385993
C	 1.2265178465	-3.5226289658	-2.566578608	-0.165845
N	 1.3316431104	-2.0556254676	-2.543380745	 0.020049
C	 1.7309202957	-0.8620982658	-3.0531381855	-0.150242
C	 1.2685371179	 0.0975062572	-2.155404384	-0.282682
H	 1.051124981	 1.7514992675	 0.1633619078	 0.115783
H	-0.475854497	 1.8717485843	-0.7526575686	 0.115785
H	-0.5126558535	 1.6565817509	 1.0190757931	 0.125847
H	 0.911930652	-3.8743969278	-0.3549237349	 0.121463
H	-0.6101032772	-3.7515452069	-1.2673235841	 0.121496
H	 2.1894694512	-4.0370759801	-2.4993479126	 0.124603
H	 0.6589328498	-3.9128354692	-3.4163102162	 0.12465
H	 2.2885616725	-0.7582171145	-3.9692264107	 0.117427
H	 1.4160269385	 1.1608395174	-2.2605173481	 0.095642
8.1713	74.636	197.8537	208.3769	236.7278	351.5641	358.7501	546.3063	602.6268	632.797	650.5879	677.0404	741.1233	756.1114	810.2223	836.9764	903.2779	1037.3545	1054.3733	1056.2147	1108.9499	1139.5389	1147.3713	1177.4958	1181.1543	1211.6285	1224.6504	1254.8406	1284.8882	1350.6099	1422.8537	1451.6416	1467.8571	1486.8867	1488.752	1499.0995	1510.7464	1522.9067	1644.1524	2992.7965	3045.6307	3049.4576	3055.5911	3090.8413	3107.1146	3124.5752	3249.6868	3272.116
COC1=C2CCN2C=C1	COc1c2CCn2cc1	
InChI=1S/C7H9NO/c1-9-7-3-5-8-4-2-6(7)8/h3,5H,2,4H2,1H3	InChI=1S/C7H9NO/c1-9-7-3-5-8-4-2-6(7)8/h3,5H,2,4H2,1H3
