19
gdb 73640	2.35211	1.62579	1.42016	1.6296	74.6	-0.2364	-0.0259	0.2106	1027.3706	0.159031	-423.046062	-423.03777	-423.036826	-423.079016	31.68	
C	-0.1547516355	 1.51589241	-0.0593621711	-0.477063
C	-0.0229056277	-0.0007488122	-0.0072035813	 0.182256
C	-1.3550857945	-0.7748549006	-0.0508456983	-0.274266
C	-1.0428377033	-2.0548083788	 0.73868213	-0.102928
O	-0.0943403152	-1.674823928	 1.7337228659	-0.255312
C	 0.7440419101	-0.6770501854	 1.1888921701	 0.062259
C	 1.8592773727	-1.1853099758	 0.2203996331	-0.381918
C	 1.0622747082	-0.5814632597	-0.9452697483	 0.36645
O	 1.2125636122	-0.545737184	-2.1328423786	-0.306112
H	 0.8153175131	 2.010008301	 0.0588006991	 0.120031
H	-0.5695033682	 1.831489455	-1.0219164768	 0.137977
H	-0.8171123702	 1.8751585379	 0.7353875773	 0.123007
H	-2.1285610471	-0.1895152774	 0.4575065258	 0.110127
H	-1.6921807484	-0.9766167521	-1.0708238042	 0.122236
H	-1.9091505294	-2.4795127367	 1.2516054665	 0.115821
H	-0.6262051581	-2.8313452054	 0.0778856506	 0.100582
H	 1.0874646323	-0.0387231141	 2.004653413	 0.085515
H	 2.8360603341	-0.7107783373	 0.3582523856	 0.133742
H	 2.0017864948	-2.2692951563	 0.1893356617	 0.137596
60.5383	167.6836	195.6177	208.7315	269.6367	273.3257	389.0484	470.5304	497.3838	566.7089	629.991	671.3476	719.583	790.2317	868.6979	888.7284	923.6666	949.6345	980.1389	987.3517	1025.4549	1048.2382	1077.2772	1136.8397	1149.6745	1170.6193	1201.6246	1208.6264	1244.7843	1249.6056	1266.0428	1333.2373	1354.3347	1393.2693	1407.7156	1420.7014	1481.4824	1490.6975	1495.7304	1522.5477	1884.7984	2980.0005	3029.533	3048.2587	3056.3629	3095.4838	3097.5047	3099.522	3105.5537	3109.0254	3113.5886
CC12CCOC1CC2=O	C[C@]12CCO[C@H]1CC2=O	
InChI=1S/C7H10O2/c1-7-2-3-9-6(7)4-5(7)8/h6H,2-4H2,1H3	InChI=1S/C7H10O2/c1-7-2-3-9-6(7)4-5(7)8/h6H,2-4H2,1H3/t6-,7+/m0/s1
