19
gdb 56294	6.56653	0.52538	0.49237	1.4681	79.34	-0.2651	0.0154	0.2805	2157.0801	0.155543	-423.035678	-423.024904	-423.02396	-423.073695	36.502	
C	-0.180501025	 1.4536726636	 0.011986572	-0.478593
C	 0.0681163275	-0.0354098112	 0.0014686561	 0.42492
O	 1.147468629	-0.5701391535	-0.0109044478	-0.347935
O	-1.1008178218	-0.7134071161	 0.0078822156	-0.242057
C	-0.9911352734	-2.1467824183	-0.0009049021	-0.063354
C	-2.401721725	-2.7135576968	 0.0101121863	-0.198293
C	-2.3896393646	-4.2551229087	 0.0016488933	-0.357367
C	-3.7297105546	-4.8282206705	 0.0118306845	 0.2901
C	-4.844201088	-5.2776372976	 0.0204617804	-0.42893
H	 0.7728177408	 1.9804323706	 0.0062476188	 0.148595
H	-0.7722131452	 1.7413707961	-0.8616298301	 0.150073
H	-0.7561534959	 1.7315770653	 0.8993991826	 0.150082
H	-0.4328469792	-2.4597420213	-0.8902504627	 0.121026
H	-0.4151741247	-2.4692276419	 0.8736381934	 0.121089
H	-2.9342588594	-2.3553578156	 0.8968099704	 0.122504
H	-2.9518358292	-2.3458549307	-0.8618414391	 0.122509
H	-1.8463847289	-4.6144387359	-0.8824574327	 0.134853
H	-1.8289947546	-4.6239320518	 0.8708618738	 0.13486
H	-5.8239170977	-5.6865827355	 0.0279910774	 0.195919
32.1393	51.7433	78.8468	79.5693	101.5786	170.5967	191.6752	283.6859	327.7885	346.4597	461.8297	526.629	606.4455	619.1019	640.1695	648.6862	753.5461	858.5625	903.3853	955.1593	991.3269	1040.0151	1064.5559	1073.0654	1093.7643	1116.0026	1220.2729	1265.2288	1278.2005	1297.959	1312.562	1372.1732	1390.7534	1422.9067	1469.5792	1475.6597	1476.004	1497.2114	1518.7144	1826.322	2241.7705	3015.5708	3038.311	3044.064	3056.851	3057.5691	3074.8865	3106.8458	3122.1904	3169.9396	3507.7591
CC(=O)OCCCC#C	CC(=O)OCCCC#C	
InChI=1S/C7H10O2/c1-3-4-5-6-9-7(2)8/h1H,4-6H2,2H3	InChI=1S/C7H10O2/c1-3-4-5-6-9-7(2)8/h1H,4-6H2,2H3
