19
gdb 103036	2.41009	1.63289	1.14928	1.4861	82.04	-0.2577	0.0371	0.2949	1104.8592	0.159079	-385.792876	-385.784542	-385.783598	-385.825581	33.021	
O	 0.0413734539	 1.4405575227	-0.0077929983	-0.419852
C	 0.0300349837	 0.0355525358	 0.1595090794	-0.150453
C	-1.3896937969	-0.5473429281	 0.0358811	 0.173909
C	-2.19910547	 0.0717704074	 1.0817991239	 0.225833
C	-2.7769416673	 0.649043273	 1.9673039081	-0.441006
C	-2.0610689592	-0.6930966203	-1.3865581991	-0.062689
C	-1.0955433152	-1.8786504675	-1.6746547627	-0.25056
C	-1.595291555	-2.0923171202	-0.2156036197	-0.085734
C	-3.0163850195	-1.7478624165	-0.753194829	-0.237617
H	-0.5683348694	 1.8053463169	 0.6453295681	 0.284804
H	 0.6959484258	-0.359676748	-0.6078559311	 0.110634
H	 0.4414536715	-0.2577839895	 1.1383883945	 0.092583
H	-3.3175897601	 1.1310745091	 2.7443224506	 0.194105
H	-2.3238628118	 0.1305466132	-2.0501997997	 0.085608
H	-1.4591364078	-2.6085493274	-2.4014242462	 0.096417
H	-0.0408795986	-1.6660225176	-1.8432827589	 0.09983
H	-1.3235525701	-2.8927609778	 0.4741594148	 0.078481
H	-3.7481050202	-1.3871269437	-0.0301629561	 0.113658
H	-3.4509853238	-2.4738387716	-1.4439602886	 0.092048
93.2585	142.8947	159.8701	208.2147	328.6761	398.6051	428.9529	483.5953	511.9196	527.4337	604.9707	620.4929	654.9712	680.5187	798.266	806.2399	877.9723	899.0501	902.241	957.0728	1000.8882	1013.5815	1043.5073	1069.2093	1083.302	1099.1641	1110.3703	1148.1838	1174.4108	1181.5953	1197.0331	1233.0296	1240.9128	1250.0917	1283.525	1377.9063	1432.0208	1497.3435	1511.4834	1548.7081	2212.1512	2979.3486	3070.2629	3076.2609	3103.5551	3117.8	3118.913	3143.9082	3147.6062	3498.3126	3778.1942
OCC1(C#C)C2CC1C2	OC[C@@]1(C#C)[C@H]2C[C@@H]1C2	
InChI=1S/C8H10O/c1-2-8(5-9)6-3-7(8)4-6/h1,6-7,9H,3-5H2	InChI=1S/C8H10O/c1-2-8(5-9)6-3-7(8)4-6/h1,6-7,9H,3-5H2/t6-,7+,8-
