21
gdb 70328	2.15037	2.03975	1.35446	1.8469	81.09	-0.2458	0.0869	0.3327	1045.17	0.18246	-387.08295	-387.074609	-387.073665	-387.115059	33.759	
C	 0.0679205179	 1.5686699149	 0.0975362393	-0.495856
C	 0.0891707324	 0.0600254665	 0.0068008812	 0.29103
C	-0.6514941123	-0.7807953696	 1.0231466515	-0.324777
C	 0.857096994	-0.8061690481	 0.9941596965	-0.087015
C	 1.5902111026	-1.91536416	 0.2353379917	-0.263208
C	 1.1533202549	-1.7720869724	-1.2140589074	-0.018476
O	-0.2557446698	-1.9413878523	-1.4294129896	-0.298067
C	 0.2698563899	-0.5994011877	-1.3645791603	 0.352113
C	 0.128105079	 0.2044584928	-2.6292260376	-0.497194
H	 0.9635132051	 2.0201897251	-0.3448242219	 0.114763
H	-0.805021065	 1.9961259264	-0.4092155916	 0.119233
H	 0.0257851162	 1.8859215481	 1.1439607161	 0.116187
H	-1.1137177331	-0.2519779158	 1.8510426293	 0.099305
H	-1.1963043195	-1.6453111061	 0.666502889	 0.131323
H	 1.3773610573	-0.3419391199	 1.8259307728	 0.080058
H	 2.674154587	-1.7628400494	 0.299357283	 0.101816
H	 1.3800209716	-2.9183987096	 0.6234112412	 0.11317
H	 1.7862574651	-2.1506373402	-2.0155691662	 0.085971
H	-0.888808513	 0.5992431471	-2.7300303014	 0.128576
H	 0.8195132503	 1.0525501426	-2.6437826119	 0.122606
H	 0.3327617096	-0.4266500626	-3.4973116436	 0.128442
143.4126	199.7579	220.8124	246.3268	282.6499	312.4169	355.7112	403.8131	452.9786	493.4643	593.7084	603.9012	700.6865	785.4032	801.971	825.2739	857.7225	877.3764	924.6739	968.9551	981.5048	989.0727	1036.4576	1074.0533	1083.3198	1103.2165	1107.2566	1120.4035	1129.7692	1178.0719	1216.2354	1270.527	1290.3546	1316.6029	1328.1677	1394.5871	1410.0658	1421.1181	1440.7172	1472.4437	1481.405	1482.9539	1493.5795	1497.7459	1504.3587	3022.4879	3035.5054	3038.5804	3073.4111	3079.8633	3098.9933	3101.5116	3120.2908	3125.3616	3132.0883	3154.9377	3232.6038
CC12CC1CC1OC21C	C[C@]12C[C@H]1C[C@H]1O[C@@]21C	
InChI=1S/C8H12O/c1-7-4-5(7)3-6-8(7,2)9-6/h5-6H,3-4H2,1-2H3	InChI=1S/C8H12O/c1-7-4-5(7)3-6-8(7,2)9-6/h5-6H,3-4H2,1-2H3/t5-,6-,7+,8-/m1/s1
