23
gdb 114993	2.45687	1.26067	0.89548	0.9313	88.22	-0.2417	0.0238	0.2655	1391.1831	0.20557	-388.314233	-388.304702	-388.303758	-388.348451	36.363	
C	-0.0268860435	 1.5609857409	 0.0276998292	-0.386687
C	-0.0213759936	 0.0305026615	 0.0464269427	-0.187888
C	-1.419596905	-0.5792399591	 0.0230293428	 0.145234
C	-1.4146951855	-2.1092121949	-0.077851779	-0.265374
C	-2.7853090523	-2.6560094466	 0.2211002635	-0.0862
C	-3.7233713886	-1.9102231482	 0.7989812731	-0.059814
C	-3.4622265242	-0.4954543931	 1.2525234835	 0.100962
C	-3.9388278964	-0.2498831051	 2.6828016856	-0.397357
O	-2.0791658539	-0.1754962381	 1.2185770637	-0.278702
H	 0.9903425489	 1.9609337901	 0.0779921481	 0.107825
H	-0.490344942	 1.9433910762	-0.8889103269	 0.108205
H	-0.5924186308	 1.9513129395	 0.8773852661	 0.132772
H	 0.5376817082	-0.3581905933	-0.8138083275	 0.092011
H	 0.4913668348	-0.3313187458	 0.9463957474	 0.102696
H	-1.9749631861	-0.1775007851	-0.8438759117	 0.059584
H	-1.096529097	-2.4119328832	-1.083904729	 0.101023
H	-0.6726798779	-2.527521755	 0.6174695609	 0.108854
H	-2.9964959401	-3.6833453172	-0.0647281964	 0.087843
H	-4.7232925672	-2.298654537	 0.9753261835	 0.08666
H	-4.0082198568	 0.1962404004	 0.5816977785	 0.069508
H	-3.4352573313	-0.9333520629	 3.3723372663	 0.125088
H	-3.7123474709	 0.7770583836	 2.9817622223	 0.12225
H	-5.0190430289	-0.4061304276	 2.7600490132	 0.111508
83.3443	122.6293	133.4147	173.845	231.5164	243.6246	288.816	347.4242	399.9826	454.7446	475.0212	497.0667	574.2424	686.4296	764.7294	787.5744	843.0445	881.2479	932.9983	935.9172	978.4904	995.6969	1005.6122	1035.6566	1070.7648	1085.8987	1117.1086	1129.7395	1145.8929	1181.4504	1213.246	1227.2016	1299.3808	1308.0151	1337.9202	1341.4411	1365.2571	1394.5354	1402.1505	1404.7906	1409.5911	1422.7607	1467.2254	1477.6778	1484.49	1496.0531	1498.3123	1509.8804	1724.277	2907.145	2937.6408	3005.5426	3026.4405	3035.4205	3042.7244	3042.8505	3063.8569	3099.5791	3118.4554	3123.9261	3125.1392	3147.1372	3170.6636
CCC1CC=CC(C)O1	CC[C@H]1CC=C[C@@H](C)O1	
InChI=1S/C8H14O/c1-3-8-6-4-5-7(2)9-8/h4-5,7-8H,3,6H2,1-2H3	InChI=1S/C8H14O/c1-3-8-6-4-5-7(2)9-8/h4-5,7-8H,3,6H2,1-2H3/t7-,8+/m1/s1
