16
gdb 126416	4.8309	1.03842	0.86375	4.7621	74.94	-0.2519	-0.0818	0.1701	1297.2815	0.125609	-434.105412	-434.097371	-434.096427	-434.13875	29.358	
C	 0.107837901	 1.5733204034	 0.008107044	-0.374396
C	-0.0121115273	 0.0495910633	 0.0022483971	-0.280955
C	-1.4275498192	-0.4694306735	 0.0128945573	 0.309533
N	-2.427596779	 0.3663463782	 0.0240181018	-0.220784
N	-3.6455669864	-0.1767261391	 0.0327112036	-0.258705
C	-3.9821419978	-1.5401947072	 0.0311754247	 0.461232
O	-5.1396130529	-1.8866154784	 0.0400876754	-0.367751
N	-2.8845437005	-2.408853476	 0.0194162684	-0.295134
C	-1.7014080227	-1.8844231077	 0.0109953734	-0.013356
H	 1.1605953604	 1.8676480649	-0.0001464363	 0.115536
H	-0.3808487887	 2.0106710746	-0.8662782883	 0.1327
H	-0.3647823412	 2.0026346661	 0.8952290838	 0.132643
H	 0.5007625048	-0.3647861083	-0.8768178455	 0.124901
H	 0.516828206	-0.3728578541	 0.8678276914	 0.124851
H	-4.4157329442	 0.479047384	 0.0413833412	 0.282182
H	-0.8545403924	-2.5741902002	 0.001791048	 0.127501
56.2327	83.4096	187.013	220.5944	311.8581	377.9383	396.5487	475.6561	515.3552	572.6552	641.1415	726.7152	765.1827	777.0649	819.6203	841.332	991.7974	998.7661	1014.8524	1074.941	1109.0458	1134.6738	1236.6968	1273.2073	1287.9917	1380.37	1417.7284	1427.9865	1435.3008	1475.3777	1493.8528	1501.4724	1569.5235	1668.0101	1823.6104	3012.6076	3035.3623	3052.2626	3106.6924	3125.1577	3126.9603	3593.4656
CCC1=NNC(=O)N=C1	CCc1n[nH]c(=O)nc1	
InChI=1S/C5H7N3O/c1-2-4-3-6-5(9)8-7-4/h3H,2H2,1H3,(H,6,8,9)	InChI=1S/C5H7N3O/c1-2-4-3-6-5(9)8-7-4/h3H,2H2,1H3,(H,6,8,9)
