15
gdb 42967	3.30962	1.3915	1.06416	3.5777	82.11	-0.2378	-0.0622	0.1756	1096.0836	0.112483	-383.478906	-383.471387	-383.470443	-383.510855	29.191	
O	-0.0177597284	 0.0066940979	-0.1350620799	-0.315664
C	-0.030107477	 1.2081285682	-0.054057445	 0.326471
C	-1.2472525354	 2.1019041491	 0.011854073	-0.149234
C	-1.3714204388	 2.9726945694	 1.2510853417	-0.276338
C	-0.7375728768	 3.5187066438	-0.0141132943	-0.081768
C	 0.7466144211	 3.4102815561	-0.0500855001	-0.174572
C	 1.1717049351	 2.1285751065	-0.0301681882	 0.023698
C	 2.4991220565	 1.6503167273	 0.0198841578	 0.243562
C	 3.6181762725	 1.2076085336	 0.0616207183	-0.407735
H	-2.1487024772	 1.7821552283	-0.4937449014	 0.117998
H	-2.3720423793	 3.3087933542	 1.5025813164	 0.12974
H	-0.7253371173	 2.7737043832	 2.0991355486	 0.135263
H	-1.2398522187	 4.3083101131	-0.5594181262	 0.108636
H	 1.3977636429	 4.2762665965	-0.0409092876	 0.123796
H	 4.6048631908	 0.8168148629	 0.0969437268	 0.196148
112.1801	136.6237	192.6583	302.6758	384.1936	412.9788	514.2785	523.0276	581.3226	605.7658	637.6475	670.0586	742.8366	797.7048	829.7475	835.4526	903.8444	926.9509	950.4179	976.7341	1048.5534	1070.9668	1095.5632	1120.7455	1183.1144	1213.3969	1295.4277	1322.3519	1346.729	1479.8659	1638.7955	1826.937	2229.5945	3131.4186	3187.686	3207.7669	3209.4641	3225.8496	3502.8457
O=C1C2CC2C=C1C#C	O=C1[C@H]2C[C@H]2C=C1C#C	
InChI=1S/C8H6O/c1-2-5-3-6-4-7(6)8(5)9/h1,3,6-7H,4H2	InChI=1S/C8H6O/c1-2-5-3-6-4-7(6)8(5)9/h1,3,6-7H,4H2/t6-,7+/m1/s1
