22
gdb 59169	2.45218	1.39504	1.14533	2.3027	82.62	-0.2268	0.0656	0.2924	1199.5082	0.1929	-404.302272	-404.292774	-404.291829	-404.336292	36.478	
C	-0.0977285169	 1.4894423516	-0.4745058297	-0.382468
C	 0.1338275685	 0.0862154899	 0.08842558	 0.081529
C	 0.6001885231	 0.11319315	 1.5440386462	-0.386333
N	-1.1426402259	-0.6384516361	 0.0240419242	-0.069797
C	-1.6378790013	-1.3211781488	-1.1410934464	-0.046989
C	-0.5375241919	-2.0671187536	-1.9201221694	-0.308114
C	-0.2412798565	-2.88884026	-0.6170315319	 0.107638
O	 1.0466254356	-2.8668234104	-0.0382793522	-0.423301
C	-1.2945455272	-2.0686886905	 0.136639349	-0.075075
H	 0.8274146645	 2.0736896713	-0.4474713362	 0.106741
H	-0.4396667209	 1.445093383	-1.5140040302	 0.108414
H	-0.8604403239	 2.0156370147	 0.1085244737	 0.118728
H	 0.9170526907	-0.4068647615	-0.5014799393	 0.075051
H	-0.1624971649	 0.5667197221	 2.1855025564	 0.113484
H	 0.7989256678	-0.9018151573	 1.8982854006	 0.129571
H	 1.5237617829	 0.692877863	 1.6392100512	 0.104089
H	-2.615689632	-1.0597445427	-1.5308255546	 0.092437
H	-0.9276224167	-2.6910756289	-2.7274708632	 0.100461
H	 0.281206982	-1.454799584	-2.3070053991	 0.104536
H	-0.5949628074	-3.9218372603	-0.7408723676	 0.075829
H	 1.6275922146	-3.4225825837	-0.5676761901	 0.284955
H	-1.9414202943	-2.4612092477	 0.9142720485	 0.088613
61.9537	133.6011	168.6709	224.6945	225.556	254.4458	279.7183	328.6569	357.558	434.3417	453.261	506.1255	620.4116	713.6086	747.391	834.2756	855.0683	876.9623	905.6333	932.8766	950.9395	958.7226	998.395	1013.6116	1037.9713	1065.8624	1106.7033	1140.3982	1158.0907	1175.0254	1193.4535	1197.4711	1227.1196	1256.9557	1288.319	1315.6213	1357.3793	1372.0246	1393.9918	1395.8899	1416.1482	1422.3081	1480.7049	1483.6275	1488.3954	1496.1519	1512.4112	3002.3766	3019.1059	3031.6554	3038.1716	3061.7691	3100.4293	3105.9588	3112.4621	3114.6172	3120.7678	3160.799	3172.885	3813.8185
CC(C)N1C2CC(O)C12	CC(C)N1[C@H]2C[C@@H](O)[C@@H]12	
InChI=1S/C7H13NO/c1-4(2)8-5-3-6(9)7(5)8/h4-7,9H,3H2,1-2H3	InChI=1S/C7H13NO/c1-4(2)8-5-3-6(9)7(5)8/h4-7,9H,3H2,1-2H3/t5-,6+,7-,8?/m0/s1
