12
gdb 127778	3.69746	1.3492	0.99474	0.8331	72.87	-0.2456	-0.0988	0.1467	1079.1853	0.077127	-464.959541	-464.951718	-464.950774	-464.992603	26.752	
C	-0.0296882259	 1.5074679221	-0.1841737558	-0.334178
N	-0.0811991113	 0.0864271305	 0.0827185676	-0.052237
N	-0.4579038259	-0.8081254301	-0.8754589278	-0.095615
N	-0.4288033362	-1.9970906919	-0.4159592372	-0.241297
C	-0.0150631474	-1.9130290649	 0.9117092787	 0.290625
C	 0.2340320496	-0.52248831	 1.3004801491	 0.352954
O	 0.5973883397	 0.0121458491	 2.3252758807	-0.389216
N	 0.2509148798	-3.8396158945	 2.3720893612	-0.176116
N	 0.1207634019	-2.9609524265	 1.6771123995	 0.162263
H	 0.2976920764	 1.9881139815	 0.739133573	 0.174141
H	 0.68199674	 1.7227282874	-0.9850944808	 0.154339
H	-1.0170836707	 1.8819139773	-0.4655075581	 0.154337
80.3854	103.4996	141.4459	209.8495	276.2591	279.1785	438.562	530.6388	542.2629	602.0438	651.5814	735.7514	768.651	805.6664	978.4312	1036.5705	1154.7399	1200.1961	1252.8148	1377.2145	1393.4863	1446.5502	1471.2421	1485.618	1510.9029	1810.3829	2238.1482	3053.2096	3124.1369	3155.4482	80.3839	103.4993	141.446	209.8493	276.2589	279.1785	438.5621	530.6388	542.263	602.0438	651.5813	735.7512	768.6511	805.6664	978.4311	1036.5705	1154.7402	1200.1963	1252.8148	1377.2144	1393.4864	1446.5506	1471.2424	1485.6185	1510.9033	1810.3828	2238.1485	3053.2095	3124.1369	3155.4482
CN1N=NC2=C1ON=N2	Cn1nnc(c1=O)[N][N]	
InChI=1S/C3H3N5O/c1-8-3-2(4-6-8)5-7-9-3/h1H3	InChI=1S/C3H6N5O/c1-8-3(9)2(5-4)6-7-8/h2,6-7H,1H3
