15
gdb 19347	5.49959	1.64368	1.5078	2.8161	67.09	-0.2209	-0.0347	0.1862	840.5454	0.118937	-362.586347	-362.579824	-362.57888	-362.616821	25.537	
O	-0.1017917336	 0.2401326413	-0.7630759525	-0.296743
C	 0.0923294993	 1.048976671	 0.1232123047	 0.048937
C	 1.2508449285	 1.9360406446	 0.1595313696	 0.240543
N	 2.1112350727	 2.070392855	-1.0455466986	-0.360903
C	 2.6831180645	 1.4388718397	 0.1267140614	-0.073003
C	 3.0902942989	 2.5022807933	 1.1780864478	-0.059209
C	 2.746955474	 3.902564589	 0.7373919369	-0.291122
C	 1.6498652953	 2.9967369157	 1.2201618965	-0.1266
H	-0.6060422751	 1.1450116103	 0.9815012111	 0.079016
H	 1.792175087	 1.3314247025	-1.6762068026	 0.255317
H	 2.9990246131	 0.4031203081	 0.1241203545	 0.120285
H	 3.7493294284	 2.2841970794	 2.0071238595	 0.099606
H	 3.035761419	 4.6706525969	 1.447852797	 0.116261
H	 2.8118337824	 4.185026054	-0.3052836991	 0.14896
H	 1.0389277057	 3.2029017092	 2.089414634	 0.098654
139.7106	203.2828	232.949	371.8834	424.2029	473.7856	604.0515	709.23	735.2286	742.0507	794.0882	844.6634	880.9517	916.9851	937.9125	965.0852	994.8089	1031.0788	1053.1864	1059.0714	1083.9797	1103.9423	1161.8374	1189.0877	1224.3114	1271.4518	1302.9251	1358.1428	1388.5103	1435.4232	1465.446	1764.0136	2905.2234	3142.7553	3195.0805	3198.4	3211.146	3237.8533	3453.4321
O=CC12NC1C1CC21	O=C[C@]12N[C@H]1[C@H]1C[C@@H]21	
InChI=1S/C6H7NO/c8-2-6-4-1-3(4)5(6)7-6/h2-5,7H,1H2	InChI=1S/C6H7NO/c8-2-6-4-1-3(4)5(6)7-6/h2-5,7H,1H2/t3-,4+,5-,6+/m0/s1
