19
gdb 81140	2.44106	1.66106	1.22718	4.5273	79.73	-0.2412	0.0216	0.2628	1069.2073	0.161729	-382.062368	-382.054459	-382.053515	-382.094509	31.243	
C	-0.1823506006	 1.5386879539	 0.0254177889	-0.442514
C	 0.0036966213	 0.0303195613	-0.0062110576	 0.026815
C	 0.8090672632	-0.5991489831	-1.1949902276	-0.068562
C	 2.1083566998	-0.2295173132	-0.4192754809	-0.279029
C	 1.1979490481	-0.5943654895	 0.7960877206	 0.223497
N	 0.9087878874	-2.0407608039	 0.6299670027	-0.337277
C	 0.6766826905	-2.0924828725	-0.8544189278	-0.180121
C	 1.5131287195	-0.194586533	 2.1510283554	 0.179217
N	 1.7753212261	 0.1604985377	 3.2195170811	-0.34662
H	 0.7227702792	 2.0950361083	-0.230617237	 0.124241
H	-0.9610717599	 1.8309700379	-0.6866303948	 0.124629
H	-0.5025165771	 1.8652520491	 1.0200551247	 0.140142
H	-0.9425952855	-0.4691529579	 0.2213688975	 0.093014
H	 0.6437351145	-0.2955838845	-2.2279132781	 0.07794
H	 2.9947856247	-0.8524443367	-0.5662575474	 0.100412
H	 2.3745290554	 0.8244200511	-0.4761628029	 0.121441
H	 1.7328236525	-2.5808039842	 0.8769249586	 0.227034
H	-0.3188299013	-2.4910724509	-1.07375705	 0.112402
H	 1.4191533125	-2.7116585598	-1.3682331153	 0.103337
123.5369	157.5539	189.8248	275.8478	288.5565	339.8534	472.0889	484.4491	536.4084	547.1185	591.3002	658.9793	785.9609	809.2949	864.7406	895.0392	904.0702	947.6165	973.515	994.5758	1008.3571	1060.065	1071.1102	1092.7455	1109.9928	1159.6455	1166.9627	1203.9371	1233.359	1259.6587	1259.8321	1275.5711	1340.8933	1388.0741	1404.2281	1420.5359	1490.6274	1495.773	1511.1009	1525.1866	2356.752	3040.2619	3040.9188	3064.3922	3072.5336	3081.4314	3103.0427	3118.8078	3127.9139	3156.6638	3510.0243
CC1C2CC1(NC2)C#N	C[C@H]1[C@H]2C[C@@]1(NC2)C#N	
InChI=1S/C7H10N2/c1-5-6-2-7(5,4-8)9-3-6/h5-6,9H,2-3H2,1H3	InChI=1S/C7H10N2/c1-5-6-2-7(5,4-8)9-3-6/h5-6,9H,2-3H2,1H3/t5-,6-,7+/m0/s1
