19
gdb 45276	2.69735	1.70252	1.25139	3.0216	79.98	-0.2304	-0.0179	0.2126	1040.2251	0.160184	-385.87004	-385.86253	-385.861586	-385.902141	29.832	
O	-0.0393619505	 0.0054660795	-0.0154142951	-0.310435
C	-0.0190498654	 1.2047664497	-0.0011782528	 0.319476
C	-1.1214909642	 2.2930088441	 0.0460442132	-0.360012
C	-0.0321807884	 3.3763357924	-0.2207266671	-0.088367
C	 0.513255364	 4.0978889892	 1.0379328678	-0.244676
C	 1.5752663611	 2.9842109882	 1.2048280158	-0.058772
C	 2.9332994054	 3.1995664068	 0.4685140894	-0.223839
C	 2.4797178306	 2.2583844903	-0.6887507702	-0.345688
C	 1.0657925673	 2.2429868963	-0.1076517	 0.259569
H	-1.8492710993	 2.1747502933	-0.7624112369	 0.132914
H	-1.6661979686	 2.3712777691	 0.9916957359	 0.123851
H	-0.171200204	 3.9522718518	-1.136451758	 0.073421
H	 0.9406779552	 5.0881512125	 0.8545372499	 0.101275
H	-0.209091492	 4.1875208706	 1.854795328	 0.101067
H	 1.6360048116	 2.4622711471	 2.1605663003	 0.079871
H	 3.0944106759	 4.2376333164	 0.1644316153	 0.103569
H	 3.8136241489	 2.8649722555	 1.0209287524	 0.109568
H	 2.5855867099	 2.627315161	-1.7124704751	 0.103598
H	 2.9423340025	 1.2690298363	-0.6281181628	 0.12361
87.7962	117.4116	228.1516	269.7321	396.0077	407.6727	497.6976	545.2175	619.9001	672.8957	749.5398	776.7022	791.4172	829.9826	856.2069	896.3011	927.7489	955.2774	988.9211	1003.243	1033.0169	1037.8521	1066.3162	1112.1639	1142.6702	1144.9917	1183.0083	1204.4433	1226.4302	1230.4548	1255.9228	1263.5343	1274.5713	1292.9548	1313.8699	1322.9928	1435.6934	1472.7736	1481.3074	1492.9986	1870.9674	3045.5766	3053.9537	3054.719	3060.4888	3088.2108	3096.8043	3099.4366	3103.5758	3111.9556	3120.9902
O=C1CC2CC3CCC123	O=C1C[C@H]2C[C@@H]3CC[C@]123	
InChI=1S/C8H10O/c9-7-4-6-3-5-1-2-8(5,6)7/h5-6H,1-4H2	InChI=1S/C8H10O/c9-7-4-6-3-5-1-2-8(5,6)7/h5-6H,1-4H2/t5-,6+,8+/m0/s1
