17
gdb 18487	5.64657	1.2136	1.12296	4.2336	71.86	-0.2702	0.0386	0.3088	1062.3804	0.143408	-326.713747	-326.70644	-326.705496	-326.745705	27.547	
N	-0.0204169684	-1.1319582545	-0.2415330908	-0.309575
C	-0.037494237	 0.0055472494	-0.0372346391	 0.25847
C	-0.0251765783	 1.4456359964	 0.2128267421	-0.357957
C	 1.3729389677	 2.0587591024	 0.0271344931	 0.021939
C	 2.0095743727	 2.1032322126	-1.4042723561	-0.250424
C	 2.1806763133	 3.6207071029	-1.2557620782	-0.031759
C	 0.8423388765	 4.2668127299	-1.0555883015	-0.278029
C	 1.4981766617	 3.5849529609	 0.116078156	-0.075632
H	-0.7469378862	 1.9202661614	-0.4608985106	 0.148117
H	-0.3807311426	 1.6265270624	 1.2342085618	 0.150058
H	 2.0620441967	 1.574416857	 0.7233430089	 0.097505
H	 2.9481473609	 1.5494482052	-1.4562151336	 0.1162
H	 1.3697098078	 1.7790331501	-2.231944775	 0.105585
H	 3.0526110165	 4.1858382736	-1.5596802737	 0.092687
H	 0.8463428841	 5.3508412383	-1.006187643	 0.117548
H	-0.0443228763	 3.8536510591	-1.5318977873	 0.105604
H	 1.7474823609	 4.1307954328	 1.0182930971	 0.089663
68.0382	120.0314	193.5724	294.2509	383.6532	396.142	485.7734	518.085	679.0317	779.9771	802.7018	826.8776	863.9511	933.4589	940.4821	959.5302	982.0185	1023.1558	1037.747	1063.438	1081.3433	1086.8407	1117.0969	1141.4262	1202.943	1240.9994	1243.2368	1268.1045	1294.6171	1319.2729	1369.5323	1378.9233	1462.5634	1483.4529	1499.6764	2359.4014	3042.3264	3048.7044	3070.2362	3088.3166	3107.2625	3119.9732	3177.3329	3189.9853	3203.2562
N#CCC1CC2CC12	N#CC[C@H]1C[C@H]2C[C@@H]12	
InChI=1S/C7H9N/c8-2-1-5-3-6-4-7(5)6/h5-7H,1,3-4H2	InChI=1S/C7H9N/c8-2-1-5-3-6-4-7(5)6/h5-7H,1,3-4H2/t5-,6-,7-/m0/s1
