20
gdb 19195	3.16432	1.97705	1.63518	1.6676	74.29	-0.2323	0.0969	0.3292	904.7566	0.178324	-348.986509	-348.978962	-348.978018	-349.017812	29.86	
C	 0.1263368913	 1.5968271181	 0.9288636276	-0.437377
C	 0.1040820029	 0.1244298812	 0.5517547519	 0.030804
C	 0.7479848137	-0.4054408713	-0.7810345275	-0.094859
C	 2.1835682333	 0.1043153336	-0.6220916518	-0.092871
O	 2.4156955205	-0.2229044866	 0.7713071772	-0.280915
C	 1.1671365194	-0.8426977222	 1.1375007471	 0.079626
C	 0.897491815	-1.7941563955	-0.0615259214	 0.044623
C	-0.299845755	-2.73491101	-0.0323177736	-0.439806
H	 1.1474455299	 1.9772091932	 1.0073588943	 0.13515
H	-0.4143627173	 2.2035680578	 0.193714735	 0.111754
H	-0.3574818913	 1.7509247435	 1.8995885976	 0.113762
H	-0.9024329452	-0.2802120362	 0.6644661549	 0.07319
H	 0.2693716649	-0.2898659512	-1.7541420071	 0.063241
H	 2.90328368	-0.4245049045	-1.2579330133	 0.097792
H	 2.29821437	 1.1824671287	-0.7803049904	 0.09677
H	 1.2101450728	-1.1577575389	 2.1801725646	 0.070222
H	 1.7919203812	-2.3542111568	-0.3551105681	 0.071254
H	-1.2356500617	-2.2448359217	 0.248129777	 0.119948
H	-0.4505390919	-3.1881665447	-1.0183373486	 0.118389
H	-0.1295234826	-3.5507004367	 0.6789394246	 0.119302
164.6458	175.9566	235.855	245.6815	290.0271	308.6759	403.5934	507.3887	591.476	689.6237	745.5719	774.798	819.8877	879.9701	915.4478	942.2955	959.8113	994.1674	1026.6497	1040.9257	1046.0248	1081.8464	1086.6197	1122.4201	1131.9066	1169.5312	1193.3216	1201.9214	1244.8678	1259.2295	1273.1619	1287.3801	1358.2723	1387.0216	1401.1853	1408.6034	1423.8098	1489.3053	1497.1792	1502.7045	1504.5915	1534.5309	3024.8851	3033.166	3033.5227	3046.374	3063.2254	3089.2348	3089.5584	3096.3269	3111.8971	3118.0705	3122.8874	3128.0573
CC1C2COC1C2C	C[C@H]1[C@H]2CO[C@@H]1[C@H]2C	
InChI=1S/C7H12O/c1-4-6-3-8-7(4)5(6)2/h4-7H,3H2,1-2H3	InChI=1S/C7H12O/c1-4-6-3-8-7(4)5(6)2/h4-7H,3H2,1-2H3/t4-,5-,6-,7+/m0/s1
