15
gdb 128112	2.7944	1.2822	0.88425	5.2141	74.15	-0.2298	-0.0344	0.1955	1241.5436	0.112077	-453.952235	-453.943582	-453.942637	-453.986238	29.977	
C	-0.0262451436	 1.4812853418	 0.0928947012	-0.333807
N	 0.0863841335	 0.0330359013	 0.0023432761	-0.390306
C	 0.6276028388	-0.7203750541	 0.975787542	 0.4967
C	 0.7295909933	-2.098213213	 1.1556280057	-0.05509
C	 0.2357547375	-3.1655502799	 0.3219066693	 0.054721
O	 0.3673304321	-4.3513623325	 0.5497817262	-0.294894
C	 1.4529605626	-2.1924274307	 2.3803822366	-0.010317
N	 1.760774294	-1.0406060307	 2.8995549567	-0.152959
O	 1.2171166342	-0.0773274421	 1.9824789713	-0.231268
H	 0.941594633	 1.9142688653	 0.354488103	 0.1657
H	-0.3296205828	 1.8657908073	-0.8818833013	 0.141228
H	-0.7602082823	 1.7946837315	 0.8449721147	 0.145911
H	-0.4710424891	-0.4484436713	-0.6827675657	 0.269774
H	-0.3047822202	-2.8264124006	-0.5959480988	 0.033899
H	 1.752231439	-3.0995093224	 2.886790663	 0.160707
76.1869	103.3752	142.2417	165.8487	218.6313	232.8965	315.7159	366.4455	415.1547	580.144	626.8751	678.6442	739.6912	804.1288	860.7608	937.0516	941.3196	1023.3148	1064.2756	1139.443	1155.6174	1194.2965	1213.9368	1334.3827	1418.8189	1447.4829	1462.2398	1484.1364	1490.0362	1516.0068	1596.7795	1664.7369	1775.4879	2812.1761	3032.1223	3108.853	3148.5687	3250.1185	3658.262
CNC1=C(C=O)C=NO1	CNc1c(C=O)cno1	
InChI=1S/C5H6N2O2/c1-6-5-4(3-8)2-7-9-5/h2-3,6H,1H3	InChI=1S/C5H6N2O2/c1-6-5-4(3-8)2-7-9-5/h2-3,6H,1H3
