16
gdb 52930	3.40741	0.98171	0.86397	3.5538	82.02	-0.2379	-0.0034	0.2344	1375.9955	0.123009	-400.665167	-400.65653	-400.655586	-400.700469	30.793	
C	-0.051307197	 1.4583733949	 0.0257983449	-0.518758
C	-0.0047623323	 0.005498561	 0.0206579135	 0.410125
C	 0.0320270526	-1.1990710534	 0.0085182412	-0.437672
C	 0.1020804047	-2.620598582	-0.0232938139	 0.119777
C	 0.6278698202	-3.6173146139	 1.0733268489	-0.272505
C	 0.0340839609	-4.5274069878	-0.0424559675	-0.173504
N	-1.1214353363	-3.5453282128	-0.2210581414	-0.347159
C	 0.7821507031	-3.6099212999	-1.0271411546	 0.489717
O	 1.5015485172	-3.6269120978	-1.9665370189	-0.30372
H	 0.6575226877	 1.8783658942	-0.6960699402	 0.158444
H	-1.0508086239	 1.8186055982	-0.2410463112	 0.15761
H	 0.1966893854	 1.8619416416	 1.0135359843	 0.152809
H	 1.7004796654	-3.649177815	 1.2870713829	 0.120824
H	 0.0261999595	-3.5983165286	 1.986280916	 0.115253
H	-0.1130961666	-5.6040300075	-0.0472021169	 0.110494
H	-1.6443087405	-3.527956171	 0.6619948229	 0.218264
15.7869	82.4393	104.5742	187.6242	247.9728	317.442	386.1309	462.7582	509.9916	543.9797	581.0131	730.1137	751.9212	778.8129	802.2565	897.0233	917.1079	961.9157	1023.4122	1049.5289	1051.6951	1054.3925	1056.8528	1111.4066	1172.8528	1196.9704	1251.2031	1286.5953	1368.4799	1413.8482	1473.7611	1475.5395	1495.7541	1949.5349	2364.4439	3028.986	3044.0887	3091.7851	3093.0694	3120.2327	3164.8675	3376.7199
CC#CC12CC(N1)C2=O	CC#C[C@@]12C[C@@H](N1)C2=O	
InChI=1S/C7H7NO/c1-2-3-7-4-5(8-7)6(7)9/h5,8H,4H2,1H3	InChI=1S/C7H7NO/c1-2-3-7-4-5(8-7)6(7)9/h5,8H,4H2,1H3/t5-,7+/m1/s1
