17
gdb 92425	2.28406	1.55163	1.22917	2.4792	68.83	-0.2563	-0.04	0.2163	1060.6063	0.134603	-458.926529	-458.918167	-458.917223	-458.960152	30.705	
O	 0.4316326432	 1.1030435481	-0.595131599	-0.421251
C	 0.1130576245	-0.1141338488	 0.0170791604	 0.059631
C	 0.1456078757	-0.2395506014	 1.5708714984	-0.286023
C	-1.2795582769	-0.8339135609	 1.5428704482	 0.068869
O	-2.2977741597	 0.1472271751	 1.7700456448	-0.281195
C	-2.4452018212	 0.4042987298	 0.3507326598	-0.1498
C	-1.3673365112	-0.6209976945	-0.0214079969	 0.174964
C	-1.7267706753	-1.6993441655	-0.9882672368	 0.06285
O	-2.8167323617	-1.8425471523	-1.4856082971	-0.253327
H	-0.0073420846	 1.8140357067	-0.1162285687	 0.289328
H	 0.763631891	-0.8591383721	-0.4534464947	 0.101466
H	 0.9316605441	-0.8923780794	 1.9571918012	 0.114986
H	 0.1778967224	 0.7125303066	 2.1075812341	 0.115676
H	-1.4754034084	-1.7804311401	 2.0515666061	 0.093847
H	-3.4389872862	 0.1265477664	-0.0121238663	 0.139767
H	-2.2413516673	 1.4500506587	 0.0879803911	 0.09461
H	-0.8952602284	-2.4035344965	-1.2237546847	 0.0756
59.1715	74.5588	203.0984	223.986	263.6958	297.9202	352.6778	414.4824	478.5821	565.0655	625.0385	726.6459	768.5656	849.3001	857.7031	921.4331	967.904	994.7211	1021.5326	1026.3157	1079.7007	1122.4213	1131.5874	1150.0356	1177.3809	1196.7126	1218.2139	1258.1115	1283.6117	1307.8732	1329.7613	1368.096	1425.0318	1434.8506	1461.6741	1526.0837	1810.2917	2861.7238	3018.8202	3053.316	3063.2506	3087.539	3090.8205	3123.1836	3811.2322
OC1CC2OCC12C=O	O[C@H]1C[C@H]2OC[C@@]12C=O	
InChI=1S/C6H8O3/c7-2-6-3-9-5(6)1-4(6)8/h2,4-5,8H,1,3H2	InChI=1S/C6H8O3/c7-2-6-3-9-5(6)1-4(6)8/h2,4-5,8H,1,3H2/t4-,5+,6-/m0/s1
