16
gdb 6264	4.6808	1.11121	0.93736	3.4616	68.88	-0.2599	-0.0696	0.1903	1207.6035	0.127224	-383.723559	-383.714625	-383.71368	-383.757457	32.01	
C	-0.0899138664	 1.5987554061	 0.0154202815	-0.389861
C	 0.003918374	 0.0801961019	-0.0608861936	 0.134192
O	 0.8760919057	-0.3440348597	 0.9707676354	-0.441339
C	-1.3785092214	-0.5797924642	 0.0785658144	-0.312806
C	-1.331316109	-2.0942323496	-0.0018520108	 0.226651
O	-0.2978676719	-2.7347827416	 0.0582297188	-0.310626
C	-2.6133913508	-2.7582614762	-0.1497879187	 0.249737
C	-3.6896795842	-3.2833553928	-0.2716071421	-0.373327
H	 0.9075398969	 2.0353982652	-0.0792035179	 0.128772
H	-0.7236805655	 1.9967465284	-0.7828490042	 0.109302
H	-0.5053012955	 1.9071545901	 0.9802921925	 0.121763
H	 0.4125045655	-0.2025929263	-1.0453910151	 0.07306
H	 0.9583537886	-1.3014314066	 0.8683599571	 0.294847
H	-1.8185229237	-0.3187959628	 1.0519485689	 0.144118
H	-2.0795392248	-0.2120009424	-0.6809113561	 0.126431
H	-4.6314961375	-3.7650393095	-0.3793862801	 0.219087
47.712	114.4979	124.9534	223.5968	236.43	245.2397	331.4423	367.0712	455.1332	492.5455	569.9367	601.1547	622.2669	648.1601	713.5612	835.866	855.5011	914.237	952.4098	1057.6844	1093.8567	1106.3033	1170.7891	1222.2845	1307.3809	1340.6349	1386.9361	1403.3016	1425.362	1453.6823	1483.866	1501.5291	1746.7438	2212.5759	2962.0053	3020.271	3041.129	3065.5801	3113.178	3124.5912	3492.7054	3760.9367
CC(O)CC(=O)C#C	C[C@@H](O)CC(=O)C#C	
InChI=1S/C6H8O2/c1-3-6(8)4-5(2)7/h1,5,7H,4H2,2H3	InChI=1S/C6H8O2/c1-3-6(8)4-5(2)7/h1,5,7H,4H2,2H3/t5-/m1/s1
