14
gdb 14321	5.55166	1.7355	1.43837	5.1423	65.02	-0.266	-0.0448	0.2212	833.7315	0.108878	-382.55754	-382.55152	-382.550576	-382.587642	23.484	
O	-0.0194400895	 0.0273180502	 0.1998981147	-0.336082
C	 0.0149449504	 1.2029662845	-0.012469363	 0.435624
O	-1.1409860112	 1.9250266217	-0.3306966631	-0.246616
C	-0.7701271191	 3.2621041501	-0.5690241103	 0.082772
C	-0.9096431213	 4.4499062423	 0.4588134541	-0.260394
C	 0.6037386093	 4.8009202542	 0.1725955414	-0.309012
C	 0.6870593422	 3.3631510711	-0.279470311	 0.240081
C	 1.1492039835	 2.1684017073	 0.0894638166	-0.370567
H	-1.105734703	 3.5646160303	-1.5654850159	 0.112113
H	-1.6549182659	 5.211659012	 0.2243053952	 0.120888
H	-1.0437347967	 4.0770810854	 1.474908787	 0.137323
H	 0.7028126033	 5.5287368089	-0.6370165348	 0.131687
H	 1.2324446459	 5.0991855575	 1.0116081346	 0.132737
H	 2.0846763022	 1.8867632844	 0.5497348945	 0.129448
141.4714	230.549	324.8923	376.9206	506.7464	614.4767	697.5948	725.8587	733.2175	801.2527	825.6077	850.6746	871.2571	911.6226	947.2126	997.0206	1068.8141	1085.1729	1111.2428	1154.2689	1173.5098	1210.4964	1230.9004	1244.5447	1295.2642	1365.0714	1469.8798	1483.8236	1697.5199	1877.8142	3068.01	3074.1988	3081.506	3137.6978	3156.2388	3249.5511
O=C1OC2CCC2=C1	O=C1O[C@H]2CC[C]2[CH]1	
InChI=1S/C6H6O2/c7-6-3-4-1-2-5(4)8-6/h3,5H,1-2H2	InChI=1S/C6H6O2/c7-6-3-4-1-2-5(4)8-6/h3,5H,1-2H2/t5-/m0/s1
