20
gdb 97686	2.65191	0.80039	0.67676	2.078	85.5	-0.2427	0.0269	0.2696	1719.8925	0.169207	-403.087249	-403.076806	-403.075862	-403.124355	36.883	
C	 0.2654110468	 1.3670125251	 0.1229060453	-0.378636
C	-0.0712833695	-0.0804372462	-0.2506346859	-0.257597
C	-1.5229748094	-0.4536881533	 0.0311637127	 0.092193
C	-1.8314130779	-1.8561536222	 0.4476801026	-0.272464
N	-1.9169245085	-0.7706435972	 1.4309223855	-0.331481
C	-2.5072995635	 0.278282566	-0.7304815103	 0.06329
C	-3.2915313997	 0.8996709566	-1.403299036	 0.098481
C	-4.2959792323	 1.6018117344	-2.2007782955	-0.198613
O	-4.9267932316	 0.7812769982	-3.1756719326	-0.402136
H	 1.3121273636	 1.5927433234	-0.100779912	 0.114889
H	-0.3613526642	 2.0675854077	-0.4362096791	 0.134624
H	 0.1010061253	 1.5514584307	 1.1897524501	 0.117948
H	 0.1333405402	-0.2453786478	-1.314983013	 0.113659
H	 0.575121118	-0.7725102871	 0.3041167903	 0.090817
H	-2.784158986	-2.2978661743	 0.1726474312	 0.123791
H	-0.9991685332	-2.5542902926	 0.4968186851	 0.1143
H	-1.0804325758	-0.7661412084	 2.0117883526	 0.231018
H	-5.035558251	 2.0620002467	-1.5259540314	 0.120476
H	-3.828968123	 2.4200453177	-2.760224208	 0.138604
H	-5.2510908082	-0.0035358776	-2.7217561016	 0.286836
21.8035	71.4343	103.3108	106.7751	186.2864	219.8809	251.164	280.9441	332.0639	343.1554	421.5809	489.3341	549.8902	592.5255	637.8492	773.2522	833.782	846.0629	920.1673	967.4612	983.4879	991.2116	1022.2953	1047.4064	1093.868	1101.2532	1120.7719	1149.5857	1215.7681	1250.9701	1277.3833	1301.1236	1358.0366	1365.5301	1391.7086	1412.475	1418.7019	1476.6089	1490.746	1496.3037	1504.1113	1506.7516	2354.3051	2976.3534	3022.0812	3039.4321	3061.9251	3063.1535	3106.9576	3107.9469	3118.3304	3198.6625	3482.6518	3816.8622
CCC1(CN1)C#CCO	CC[C@]1(CN1)C#CCO	
InChI=1S/C7H11NO/c1-2-7(6-8-7)4-3-5-9/h8-9H,2,5-6H2,1H3	InChI=1S/C7H11NO/c1-2-7(6-8-7)4-3-5-9/h8-9H,2,5-6H2,1H3/t7-/m1/s1
