19
gdb 82877	2.80155	1.7439	1.39342	2.3167	74.49	-0.2377	0.0698	0.3075	990.1606	0.159975	-422.984513	-422.977029	-422.976085	-423.0159	30.785	
C	-0.1113750705	 1.6056874703	-0.0667897495	-0.434282
C	 0.0336376204	 0.0970530304	 0.0257978903	 0.030094
C	 1.179178232	-0.6223104659	-0.7390366291	 0.025363
O	 2.355172453	 0.053651998	-0.2727178692	-0.266381
C	 2.2593014859	-0.3629570496	 1.1007855096	 0.070362
C	 2.4745659284	-1.8915331077	 0.9910010779	-0.311602
C	 1.1015260532	-1.8080211055	 0.3104618919	 0.387226
O	 0.2957353221	-2.8685929251	-0.0645227454	-0.481592
C	 0.6933413093	-0.5898638465	 1.2353092263	-0.165573
H	 0.8573410063	 2.0961826047	 0.0552714413	 0.12999
H	-0.5217907944	 1.9035491894	-1.0382713363	 0.112829
H	-0.7890728334	 1.9824815133	 0.7071011003	 0.109964
H	-0.9103643891	-0.4176690396	-0.1816380388	 0.08434
H	 1.2007567182	-0.7725479797	-1.8173463563	 0.079451
H	 2.8411492537	 0.2793464735	 1.757345984	 0.083828
H	 3.3497312331	-2.2341470517	 0.4333994977	 0.104924
H	 2.4019701708	-2.3923516602	 1.9620507344	 0.090798
H	 0.1356042205	-3.4216025934	 0.7075356724	 0.28456
H	 0.2582466403	-0.6793278748	 2.2301948486	 0.065699
183.3923	193.4892	243.7182	286.9801	315.9384	354.8978	467.1161	522.3321	573.476	612.372	671.9109	723.5652	789.4928	806.7562	888.4493	910.9568	920.3154	928.0887	947.6702	1009.6222	1022.6055	1030.5746	1055.3813	1065.0759	1094.481	1120.5343	1156.0215	1162.7242	1203.2072	1213.4413	1224.6587	1256.6221	1276.551	1299.2902	1345.0307	1377.3511	1390.4184	1408.7335	1482.0038	1491.9086	1503.4992	3032.0487	3048.1325	3062.299	3090.2344	3115.0018	3122.8968	3124.454	3136.2132	3152.2132	3806.6739
CC1C2OC3CC2(O)C13	C[C@H]1[C@H]2O[C@@H]3C[C@@]2(O)[C@H]13	
InChI=1S/C7H10O2/c1-3-5-4-2-7(5,8)6(3)9-4/h3-6,8H,2H2,1H3	InChI=1S/C7H10O2/c1-3-5-4-2-7(5,8)6(3)9-4/h3-6,8H,2H2,1H3/t3-,4-,5-,6-,7-/m1/s1
