16
gdb 128236	2.76035	1.49389	0.97592	5.0792	79.56	-0.1932	-0.0294	0.1638	1156.0023	0.126423	-434.093878	-434.085668	-434.084724	-434.12706	30.216	
C	-0.0115309367	 1.4244739685	 0.1526317245	-0.324715
N	-0.0331914472	 0.006332845	-0.0862859922	-0.353495
C	 0.601542159	-0.6052716595	-1.1161977178	 0.231295
C	 1.2185375492	 0.007723751	-2.1755422403	-0.114789
N	 1.7987584126	-0.7532813063	-3.1557877647	-0.201066
N	 1.8366409722	-2.0756470952	-3.1847407955	-0.192806
C	 1.26714926	-2.7011201502	-2.1798555189	-0.091947
C	 0.6069329603	-2.073341062	-1.057553259	 0.29874
O	 0.0861662174	-2.6707560158	-0.1103153506	-0.426477
H	 1.0107047318	 1.8155123416	 0.2746069451	 0.12016
H	-0.4845278593	 1.9751933418	-0.6722455304	 0.126039
H	-0.5715642234	 1.6450745795	 1.0630236516	 0.138419
H	-0.3177157775	-0.6450691991	 0.6328881894	 0.260895
H	 1.2851890557	 1.0790572341	-2.3129984963	 0.123022
H	 2.2491080354	-0.3083282132	-3.939091461	 0.278989
H	 1.3084869605	-3.7844712102	-2.2124020239	 0.127736
64.6625	128.1173	172.0103	185.9571	308.9305	342.3902	439.4136	479.3492	519.9983	529.8701	557.6837	619.9479	646.0582	780.6465	787.8493	805.7595	910.9732	922.5509	1038.1219	1084.2903	1158.6717	1168.8487	1234.8312	1257.2544	1316.4766	1389.6304	1405.2049	1467.9412	1480.3011	1487.9656	1519.3196	1555.1927	1584.2408	1671.8442	1697.1723	2979.9187	3026.7474	3129.0002	3196.1023	3212.5887	3584.5999	3644.7892
CNC1=CNN=CC1=O	CNc1c[nH]ncc1=O	
InChI=1S/C5H7N3O/c1-6-4-2-7-8-3-5(4)9/h2-3H,1H3,(H,6,8)(H,7,9)	InChI=1S/C5H7N3O/c1-6-4-2-7-8-3-5(4)9/h2-3H,1H3,(H,6,8)(H,7,9)
