19
gdb 38146	2.79344	1.89587	1.39521	1.6971	79.26	-0.2349	0.0108	0.2458	966.2184	0.162319	-385.891282	-385.884386	-385.883441	-385.922331	28.512	
C	-0.0280615263	 1.4784671944	 0.0991001643	-0.368432
C	 1.3091858968	 0.7637789771	-0.0665645132	-0.118375
C	 2.0463423051	 0.3775659303	 1.1706110744	-0.076137
C	 1.3711554184	-0.5187776022	 1.8973021539	-0.119005
C	 0.0425646827	-0.8648328109	 1.2564664717	 0.051551
O	-0.0921733721	-2.2247531407	 0.8177301189	-0.278907
C	-0.0013876465	-2.2709548116	-0.6054850479	-0.072056
C	-0.5170553797	-0.912863941	-1.1117728934	-0.334513
C	 0.0055546003	-0.0106634014	-0.0173618571	 0.320661
H	-0.2557054323	 1.9223467122	 1.0640023724	 0.112783
H	-0.3916306825	 2.0432220842	-0.7545055588	 0.112532
H	 1.8499761477	 0.9155221389	-0.9954367154	 0.087354
H	 3.0097986086	 0.8007250475	 1.4349643786	 0.09874
H	 1.6771533533	-0.9227908772	 2.8552039393	 0.098321
H	-0.7925069228	-0.67087848	 1.9433341808	 0.080259
H	 1.041365294	-2.4246073601	-0.9237077761	 0.093026
H	-0.5948773616	-3.1233785309	-0.9483254348	 0.104493
H	-0.139134428	-0.661559656	-2.1063589999	 0.101617
H	-1.6128703753	-0.9037620025	-1.1478100977	 0.106088
143.0975	171.1541	298.131	343.0987	379.3327	484.5136	565.5623	600.3241	656.9631	747.9793	773.5872	807.8805	840.5628	883.0614	904.0696	926.455	948.9192	964.4133	975.9575	992.129	1014.5074	1050.6446	1069.7656	1074.6917	1084.8036	1110.5684	1140.1568	1181.1867	1228.3591	1252.5102	1277.8151	1301.0285	1326.1246	1341.0738	1369.6951	1380.438	1413.0172	1485.7973	1487.1514	1520.172	1656.513	2983.4317	3010.0627	3035.84	3083.1692	3097.2512	3113.937	3157.5374	3182.3906	3201.6383	3211.5001
C1C2C=CC3OCCC123	C1[C@H]2C=C[C@@H]3OCC[C@]123	
InChI=1S/C8H10O/c1-2-7-8(3-4-9-7)5-6(1)8/h1-2,6-7H,3-5H2	InChI=1S/C8H10O/c1-2-7-8(3-4-9-7)5-6(1)8/h1-2,6-7H,3-5H2/t6-,7+,8+/m1/s1
