16
gdb 75341	2.74097	1.79491	1.17516	1.7838	71.72	-0.2345	-0.0427	0.1917	1012.3583	0.126843	-434.077396	-434.069865	-434.068921	-434.109327	29.161	
N	 0.0444611151	 1.295322806	 0.6073202382	-0.546714
C	-0.0752104429	-0.0014998963	 0.1939239646	 0.296398
N	-1.1881198593	-0.6319049114	 0.1737400384	-0.301585
C	-1.1631569368	-2.0159278468	-0.3086449183	-0.18946
C	 0.1247773095	-2.7588035738	 0.0269409215	-0.035615
C	 1.191657635	-3.0244616486	-0.9993661075	-0.254397
N	 1.3373986859	-1.9557188399	-0.0222371861	-0.090306
C	 1.2328268175	-0.6059162793	-0.2954574852	 0.324458
O	 2.07860971	 0.0602680177	-0.8528105696	-0.348454
H	 0.8529022029	 1.7809235454	 0.2476397225	 0.271494
H	-0.812420124	 1.8241213882	 0.6659375407	 0.258224
H	-2.0114949459	-2.5445447909	 0.1360253077	 0.118879
H	-1.3406086667	-2.0166605512	-1.393389209	 0.113094
H	 0.0832567874	-3.425920851	 0.8854714154	 0.110426
H	 1.8690579387	-3.8637439225	-0.8750538087	 0.135382
H	 0.9963695535	-2.7347664257	-2.0284828145	 0.138176
84.9488	202.376	226.3297	316.431	343.6999	379.8286	474.0613	497.4062	512.5994	547.229	600.8297	679.3156	749.7932	820.7672	835.5586	916.9946	935.1062	973.51	983.964	1092.8382	1102.6919	1128.663	1163.9511	1177.3577	1203.7452	1255.9527	1354.6758	1362.7324	1409.3435	1424.1312	1493.5043	1510.9936	1611.0544	1720.5463	1790.8998	3003.8537	3071.6188	3116.07	3129.353	3208.0058	3572.0654	3692.747
NC1=NCC2CN2C1=O	NC1=NC[C@H]2CN2C1=O	
InChI=1S/C5H7N3O/c6-4-5(9)8-2-3(8)1-7-4/h3H,1-2H2,(H2,6,7)	InChI=1S/C5H7N3O/c6-4-5(9)8-2-3(8)1-7-4/h3H,1-2H2,(H2,6,7)/t3-,8?/m0/s1
