19
gdb 97664	2.81743	0.80508	0.71514	1.9305	82.73	-0.2276	0.0371	0.2647	1672.3957	0.155769	-422.978161	-422.967592	-422.966648	-423.015238	37.589	
C	-0.4525583826	 1.3854112085	 0.1737516079	-0.363545
C	 0.3745109032	 0.1215023483	-0.1255461012	-0.317823
C	 0.9851749824	-0.465120818	 1.0625282488	 0.033769
C	 1.4744852805	-0.9309694657	 2.0619443654	 0.066659
C	 2.0995178934	-1.4689462015	 3.2400419683	 0.150323
O	 3.4354773406	-1.0936452464	 3.4597639902	-0.444393
C	 1.2520573092	-1.771491993	 4.4752142121	-0.353733
C	 1.8017135629	-2.8972119596	 3.6504037669	 0.079125
O	 0.8843187513	-3.6524708654	 2.9299842081	-0.415918
H	 0.1729811202	 2.1616404603	 0.6228195292	 0.12645
H	-0.8880302248	 1.7836099514	-0.7476079608	 0.115164
H	-1.2645574498	 1.1616864485	 0.8708029829	 0.129615
H	-0.2646221489	-0.6283743176	-0.609488295	 0.131672
H	 1.1596700183	 0.3596560174	-0.8547629155	 0.131323
H	 3.4460306641	-0.1445911768	 3.6287583675	 0.284897
H	 1.7134837184	-1.5701675249	 5.4352104266	 0.119889
H	 0.1859795516	-1.5924455456	 4.4029150336	 0.131501
H	 2.6614331215	-3.4357929943	 4.0482782244	 0.103117
H	 1.2026597385	-3.7252365957	 2.0231995903	 0.291909
18.4085	74.3345	94.2418	143.2717	208.5715	222.0272	257.9926	292.8265	309.5463	356.2858	388.8564	465.4398	492.4455	562.4225	587.5636	627.9356	783.6245	824.4121	864.2013	908.4213	935.3229	985.1831	1037.1027	1064.8628	1088.7846	1102.4066	1104.7867	1174.7135	1222.1029	1287.3954	1302.4316	1323.3666	1348.9906	1365.1782	1408.3693	1408.5441	1468.7795	1471.6969	1494.8799	1505.0265	2352.3695	3019.6773	3044.2951	3047.0694	3110.3549	3117.5979	3124.249	3142.0894	3243.602	3792.3325	3798.28
CCC#CC1(O)CC1O	CCC#C[C@@]1(O)C[C@H]1O	
InChI=1S/C7H10O2/c1-2-3-4-7(9)5-6(7)8/h6,8-9H,2,5H2,1H3	InChI=1S/C7H10O2/c1-2-3-4-7(9)5-6(7)8/h6,8-9H,2,5H2,1H3/t6-,7-/m1/s1
