18
gdb 14646	8.45363	0.5709	0.54872	2.8171	78.95	-0.2462	-0.0225	0.2236	1966.2725	0.150509	-347.796269	-347.786155	-347.785211	-347.834599	32.961	
C	 0.0454260709	 1.5203226013	 0.1023849982	-0.497232
C	 0.0370345214	 0.0677859988	 0.0000501234	 0.116937
C	 0.0412913069	-1.1331835504	-0.0869594587	 0.019314
C	 0.0086310607	-2.5877165822	-0.1887403287	-0.3528
C	-1.4188588271	-3.163143572	-0.0920065335	-0.181611
C	-1.4378584513	-4.6963895344	-0.2072245985	-0.273737
C	-2.8264064759	-5.2560705822	 0.0010826525	 0.157089
O	-3.4163554705	-5.9552136553	-0.7810916475	-0.23596
H	 0.2765692546	 1.8481344593	 1.1219935499	 0.14686
H	 0.7939812154	 1.9621469256	-0.5646476596	 0.148116
H	-0.9281563276	 1.94408175	-0.1679509127	 0.147699
H	 0.4614326613	-2.9044427487	-1.137760667	 0.129697
H	 0.6291943097	-3.0304600873	 0.6024018115	 0.12542
H	-1.8640499255	-2.8535656096	 0.8607739396	 0.11452
H	-2.0370548235	-2.723849414	-0.8823484798	 0.124027
H	-1.0665156507	-5.0347517121	-1.1792280783	 0.122913
H	-0.7899780217	-5.1233705817	 0.5730691758	 0.117951
H	-3.295032947	-4.9601900252	 0.9700076134	 0.070799
8.9271	47.5863	73.7445	87.3243	107.0574	213.0097	222.5011	294.3568	342.8549	386.2573	482.6381	532.8127	741.0286	765.1627	813.7808	904.809	981.2377	1032.0019	1052.8789	1053.5557	1092.5015	1115.2486	1169.7572	1184.2894	1249.5836	1286.5894	1323.8402	1337.1639	1384.2844	1415.8162	1430.2941	1463.7945	1475.7957	1478.8348	1479.415	1501.3443	1837.3011	2374.3567	2848.563	3006.1708	3010.0038	3026.4704	3036.4349	3041.8251	3079.4886	3086.5601	3086.9704	3099.6784
CC#CCCCC=O	CC#CCCCC=O	
InChI=1S/C7H10O/c1-2-3-4-5-6-7-8/h7H,4-6H2,1H3	InChI=1S/C7H10O/c1-2-3-4-5-6-7-8/h7H,4-6H2,1H3
