15
gdb 26436	4.2993	1.06517	0.91937	2.2426	70.22	-0.239	-0.0166	0.2223	1219.1069	0.113292	-453.992961	-453.984826	-453.983881	-454.026786	28.324	
C	-0.3200987401	 1.4066748571	-0.0393860002	-0.364969
N	 0.0519089633	-0.0086837635	-0.0118263553	-0.18811
C	 0.4389188543	-0.6000290839	 1.1769564237	 0.143355
O	 0.4523052785	-0.0417550119	 2.2473516943	-0.316206
C	-0.0194031985	-0.7608356239	-1.1702008247	 0.378913
C	-0.5409918343	-1.9722483499	-1.4912253518	-0.169083
N	-0.2458661957	-2.2566328611	-2.8192757127	-0.249561
C	 0.4030594823	-1.2197238183	-3.2305098917	 0.083739
O	 0.5975638565	-0.2612297202	-2.2909827411	-0.17124
H	 0.3300406074	 1.9601710195	-0.7215648193	 0.14795
H	-1.3593076571	 1.5210865762	-0.3619360003	 0.139588
H	-0.2046377466	 1.7878347017	 0.9746166721	 0.174743
H	 0.7353894464	-1.6526293862	 1.0237581443	 0.097054
H	-1.1106711528	-2.645254364	-0.8716446758	 0.136087
H	 0.7902921265	-1.0145735015	-4.2159835915	 0.157739
50.7833	101.6193	124.946	145.1172	301.1435	327.4461	392.3045	449.8135	473.989	665.2118	705.1646	808.2578	831.3494	850.5727	926.9645	954.9316	1016.7602	1034.1068	1122.0424	1127.8017	1145.3436	1159.8826	1242.1763	1300.9502	1330.9577	1380.7966	1430.3973	1438.6463	1496.7163	1511.3511	1554.8011	1655.0827	1806.9084	2983.4794	3048.0481	3114.3825	3168.259	3271.8717	3278.8901
CN(C=O)C1=CN=CO1	CN(C=O)c1cnco1	
InChI=1S/C5H6N2O2/c1-7(4-8)5-2-6-3-9-5/h2-4H,1H3	InChI=1S/C5H6N2O2/c1-7(4-8)5-2-6-3-9-5/h2-4H,1H3
