21
gdb 63670	4.68278	0.68174	0.64425	1.88	86.13	-0.2577	0.057	0.3147	1788.3099	0.178524	-387.052398	-387.041778	-387.040834	-387.088595	38.519	
C	 0.0596968755	 1.4958032011	-0.2031940846	-0.456345
C	-0.0728214629	 0.0177526183	 0.0942363155	 0.393425
C	-1.14695859	-0.6935796018	-0.703093727	-0.451783
O	 1.1668142116	-0.7090045379	 0.1919111227	-0.30116
C	 0.3641654847	-0.5746978261	 1.3746345772	 0.005914
C	 0.9735452572	 0.1665048876	 2.5397695652	-0.228182
C	 2.1478182708	-0.6334184351	 3.1483096261	-0.341809
C	 2.751609084	 0.0313791638	 4.2954371322	 0.291375
C	 3.2299886131	 0.6026468769	 5.2387621862	-0.4389
H	 0.8979538819	 1.9464584248	 0.3292280227	 0.130927
H	 0.2253146863	 1.6452969989	-1.2757391013	 0.125686
H	-0.857496042	 2.0296589994	 0.0684314161	 0.121103
H	-0.9550485799	-0.59171892	-1.7768475155	 0.124816
H	-1.1713281499	-1.758696514	-0.4606517116	 0.126068
H	-2.1341479535	-0.2652167894	-0.4979629963	 0.119637
H	-0.1289633951	-1.507995047	 1.6632288614	 0.07995
H	 1.3361162032	 1.1505369046	 2.2354396824	 0.115409
H	 0.2060016761	 0.3261683773	 3.3060411459	 0.112607
H	 1.7974303957	-1.6308750025	 3.4448591271	 0.128179
H	 2.9015686127	-0.7933598826	 2.3682217782	 0.150154
H	 3.6636626005	 1.0951894339	 6.0732122674	 0.192929
52.7913	68.9832	86.9435	149.159	187.4893	208.3744	241.629	290.3272	350.4517	367.3006	414.9803	444.9778	516.4879	554.5117	615.9579	637.5135	702.8248	764.5733	811.0577	902.352	942.0999	959.9104	979.7012	1003.7288	1024.96	1077.417	1113.9231	1134.9916	1155.2056	1203.9564	1263.8004	1284.0698	1312.7125	1354.3933	1373.5522	1408.228	1418.1379	1465.7059	1469.9525	1474.3868	1483.7343	1488.4803	1500.3915	1520.8715	2239.1667	3021.9851	3032.6282	3039.2734	3046.2371	3057.7373	3063.0369	3093.7213	3099.0033	3114.0229	3123.26	3142.7466	3507.3345
CC1(C)OC1CCC#C	CC1(C)O[C@H]1CCC#C	
InChI=1S/C8H12O/c1-4-5-6-7-8(2,3)9-7/h1,7H,5-6H2,2-3H3	InChI=1S/C8H12O/c1-4-5-6-7-8(2,3)9-7/h1,7H,5-6H2,2-3H3/t7-/m0/s1
