21
gdb 95310	2.6472	1.67886	1.4322	2.0597	77.32	-0.2376	0.0793	0.3169	1022.2024	0.185449	-424.241949	-424.234367	-424.233423	-424.273564	30.873	
C	-0.0580587595	 1.5319685341	-0.0675507662	-0.406973
C	 0.0085407552	 0.0136625896	 0.0095716801	 0.138286
O	 0.6146352146	-0.4354531498	-1.2003943638	-0.262172
C	 0.8738938772	-1.8298049156	-1.258426532	-0.083077
C	 1.5571265789	-2.3343999157	 0.0221595074	 0.097547
C	 0.651391832	-2.0624000064	 1.2267106682	-0.249865
C	 0.7897041401	-0.5293803185	 1.22899719	-0.054614
C	 2.3117632778	-0.3902202739	 1.0276124144	-0.070097
O	 2.7213926664	-1.5543230678	 0.292262291	-0.27113
H	 0.9429027645	 1.9725660366	-0.0840350464	 0.124773
H	-0.575652204	 1.836851969	-0.980874837	 0.127044
H	-0.6021402471	 1.934391406	 0.7924684	 0.112159
H	-1.0215699302	-0.3813407046	 0.0698297336	 0.060994
H	-0.0556108679	-2.4009706262	-1.4281102862	 0.079552
H	 1.5289365244	-1.9734077022	-2.1222849456	 0.113385
H	 1.864192904	-3.3778774476	-0.0952706908	 0.07558
H	-0.3781870842	-2.4041192599	 1.0911047073	 0.097229
H	 1.0600217333	-2.5174142014	 2.1337095357	 0.101935
H	 0.4405510228	-0.0521400871	 2.1481750314	 0.069117
H	 2.5866397185	 0.5076516155	 0.4646208785	 0.107525
H	 2.8422719933	-0.373543134	 1.9884859805	 0.092801
149.8663	206.1248	225.4968	269.9088	329.6714	367.9594	407.0164	466.2732	549.4229	589.7807	761.3911	775.2555	823.9368	849.0647	886.2467	901.165	936.839	954.8095	967.8339	1007.8707	1021.6567	1043.085	1081.5946	1091.0198	1116.0692	1135.1171	1163.9014	1186.3341	1215.8132	1229.7063	1268.4935	1303.1263	1316.5314	1333.5143	1349.3988	1371.1153	1383.3406	1394.4289	1407.3062	1411.8715	1482.1381	1487.9955	1496.7553	1500.0717	1521.4166	2935.7821	2958.0731	3016.0888	3044.1272	3053.0804	3067.5757	3072.4636	3081.8618	3089.6747	3105.6615	3117.6847	3122.8524
CC1OCC2CC1CO2	C[C@H]1OC[C@@H]2C[C@H]1CO2	
InChI=1S/C7H12O2/c1-5-6-2-7(4-8-5)9-3-6/h5-7H,2-4H2,1H3	InChI=1S/C7H12O2/c1-5-6-2-7(4-8-5)9-3-6/h5-7H,2-4H2,1H3/t5-,6+,7+/m1/s1
