22
gdb 93953	3.9987	0.93518	0.81825	1.8497	82.81	-0.2394	0.0786	0.318	1472.4772	0.195441	-404.330093	-404.321039	-404.320095	-404.36479	33.891	
C	-0.2782210206	 1.4205929024	 0.0884773438	-0.414097
C	 0.0722195617	-0.064682916	 0.0852566707	 0.027227
C	 0.8071408156	-0.5506978791	-1.1678771647	-0.071553
O	 1.4144392455	-1.7831952468	-0.8068534393	-0.270106
C	 1.7004811237	-1.7909321387	 0.5979294557	 0.100359
C	 1.0643997469	-0.5046438474	 1.1774100371	-0.270126
C	 1.1595480967	-3.0677730209	 1.1980444216	 0.026422
C	 1.9752511261	-4.3025870492	 1.1763947704	-0.243115
N	 1.7366760338	-3.5913944097	 2.4472985056	-0.327886
H	 0.6227978783	 2.0368563855	-0.0107723757	 0.115924
H	-0.9497288438	 1.6735940333	-0.7389762129	 0.117354
H	-0.7778950151	 1.7086010509	 1.0187749588	 0.120132
H	-0.8483832471	-0.6536619894	 0.1855576701	 0.082066
H	 0.1490176586	-0.7360014609	-2.0225589494	 0.10622
H	 1.5682315184	 0.18716326	-1.4760762374	 0.081776
H	 2.7936024522	-1.7820157139	 0.7404269794	 0.057444
H	 1.8276385836	 0.2693287471	 1.3160138824	 0.098488
H	 0.5909028947	-0.6802993559	 2.1466933028	 0.115618
H	 0.0760450005	-3.1617652615	 1.1450967454	 0.08823
H	 1.4944882558	-5.2731665377	 1.0984219951	 0.119318
H	 2.9625711918	-4.2479429802	 0.7244138076	 0.113977
H	 2.5648248024	-3.0519366819	 2.6936713129	 0.22633
37.1071	78.0281	145.4496	210.8808	226.4769	285.8532	310.4983	343.1442	424.6151	480.4723	578.5201	726.372	789.5111	853.7544	868.7108	885.9426	918.4715	938.4121	943.5494	964.8105	979.1643	1019.1335	1043.2723	1078.6315	1099.9779	1123.2644	1136.7799	1157.7263	1165.6053	1195.8686	1239.0605	1255.2665	1268.0324	1290.6695	1293.8136	1313.6305	1336.2358	1345.4835	1357.1145	1406.353	1415.5506	1442.9864	1493.9853	1496.5595	1501.2529	1512.6154	1522.6486	2953.2808	2961.2759	3022.9167	3028.3861	3045.2461	3075.223	3094.1991	3100.7062	3102.7771	3109.4447	3121.6288	3195.447	3476.8652
CC1COC(C1)C1CN1	C[C@H]1CO[C@@H](C1)[C@H]1CN1	
InChI=1S/C7H13NO/c1-5-2-7(9-4-5)6-3-8-6/h5-8H,2-4H2,1H3	InChI=1S/C7H13NO/c1-5-2-7(9-4-5)6-3-8-6/h5-8H,2-4H2,1H3/t5-,6-,7+/m1/s1
