16
gdb 16711	3.01418	2.23761	1.79959	4.0521	64.14	-0.2329	-0.0011	0.2317	789.9109	0.131822	-383.739097	-383.732387	-383.731442	-383.769808	26.386	
O	-0.0841650751	 1.3999927026	 0.0040423737	-0.433188
C	-0.0312798383	-0.0132281314	 0.0184331368	 0.130502
C	 0.4752522105	-0.6222651054	 1.3810286891	-0.260596
C	-0.8059119345	-1.3476217714	 1.8399059384	-0.136558
C	-1.253604795	-2.0274799037	 0.500700843	-0.256478
C	-1.4675719087	-0.5601039641	-0.0033086647	-0.146448
C	-1.8860731457	-0.3121740763	 1.4627409047	 0.446079
O	-2.7747151441	 0.2501903426	 2.0255978429	-0.320409
H	 0.8164275875	 1.7384797666	 0.0271368168	 0.285683
H	 0.54894841	-0.3903903557	-0.8346852424	 0.071892
H	 1.3106247578	-1.3159048206	 1.2490297904	 0.102877
H	 0.7833800772	 0.1741213922	 2.0639682944	 0.111927
H	-0.8045042087	-1.8644180064	 2.7971136154	 0.084881
H	-0.4910423096	-2.6126544266	-0.0194548828	 0.107012
H	-2.1838158725	-2.591174015	 0.5821358995	 0.122536
H	-2.0946627407	-0.3004140774	-0.8524531253	 0.090287
127.8298	178.3133	281.3463	359.3199	424.3245	447.0337	484.2437	634.4011	643.0242	777.7925	822.273	830.3322	857.6175	909.4729	960.077	966.5291	1001.427	1018.4222	1040.9744	1067.5797	1096.9749	1138.0654	1166.2568	1181.7556	1213.6388	1243.2847	1246.952	1273.3549	1316.1663	1342.7524	1420.9832	1484.2546	1504.2958	1908.7367	3001.248	3054.2939	3068.5663	3105.724	3138.1524	3146.4068	3158.5205	3820.4373
OC1CC2CC1C2=O	O[C@H]1C[C@@H]2C[C@H]1C2=O	
InChI=1S/C6H8O2/c7-5-2-3-1-4(5)6(3)8/h3-5,7H,1-2H2	InChI=1S/C6H8O2/c7-5-2-3-1-4(5)6(3)8/h3-5,7H,1-2H2/t3-,4+,5-/m0/s1
