19
gdb 70552	2.66112	1.52969	1.16556	4.0084	76.46	-0.2168	0.0354	0.2522	1100.5047	0.160956	-419.227931	-419.219733	-419.218789	-419.260398	32.404	
C	-0.0433775907	 1.4729249905	-0.0295138204	-0.445542
C	-0.0336204968	-0.0410824918	 0.0373831665	 0.33446
C	-0.8526804101	-0.7400887883	 1.1076886651	-0.327848
C	 0.6633890139	-0.7381041645	 1.1721965504	-0.039904
N	 1.3560079725	-1.943434838	 0.8041034179	-0.306879
C	 2.1424041325	-1.7908405191	-0.4176023239	-0.289121
C	 1.2196635329	-1.448400808	-1.5874187199	 0.416835
O	 1.4176439365	-1.8273298109	-2.7245245111	-0.376411
N	 0.1367231305	-0.6886344519	-1.2339242091	-0.351778
H	 0.8776756657	 1.8508248627	-0.4855929984	 0.125497
H	-0.8889915974	 1.8311501812	-0.6288239951	 0.119619
H	-0.1397187401	 1.9088789748	 0.968874386	 0.12085
H	-1.40878499	-0.1228671848	 1.8051635063	 0.108947
H	-1.3068875488	-1.687044054	 0.8429052612	 0.123765
H	 1.1362938079	-0.087773293	 1.9095052031	 0.08225
H	 1.9087755996	-2.3098093161	 1.5677999689	 0.228659
H	 2.9242762708	-1.0106914993	-0.3584323166	 0.10163
H	 2.6339924132	-2.7328953101	-0.6671725929	 0.133077
H	-0.5014991421	-0.4698261095	-1.986640158	 0.241894
90.0247	161.5711	217.5722	254.0459	313.0366	405.8982	421.5078	445.2573	480.0237	499.485	542.8227	572.3813	666.9503	688.0647	793.65	835.8092	893.2332	912.9089	943.465	996.4685	1024.5475	1041.8507	1058.0194	1062.8196	1113.4598	1132.6801	1179.5821	1239.4545	1250.7625	1307.6591	1334.5885	1355.5726	1414.4739	1421.8427	1440.4485	1471.1068	1485.4855	1487.3321	1494.8838	1510.1243	1804.0445	2929.7461	3026.7104	3082.429	3089.9983	3112.6917	3114.9754	3137.2027	3238.1186	3563.0327	3591.9135
CC12CC1NCC(=O)N2	C[C@]12C[C@H]1NCC(=O)N2	
InChI=1S/C6H10N2O/c1-6-2-4(6)7-3-5(9)8-6/h4,7H,2-3H2,1H3,(H,8,9)	InChI=1S/C6H10N2O/c1-6-2-4(6)7-3-5(9)8-6/h4,7H,2-3H2,1H3,(H,8,9)/t4-,6+/m1/s1
