20
gdb 116080	2.51547	1.27534	0.89431	3.8495	75.81	-0.2267	0.0134	0.2401	1323.3114	0.171933	-440.322251	-440.31325	-440.312305	-440.356487	33.274	
C	 0.0247708158	 1.5668612805	 0.0147137063	-0.38968
C	-0.0575329278	 0.0405226258	-0.0706899581	-0.180667
C	 0.790817624	-0.554898131	-1.1904560274	 0.133409
C	 0.7808133189	-2.0800310312	-1.2313388841	-0.200384
N	 1.454574629	-2.6071215304	-2.4131436307	-0.290452
C	 0.8231177154	-2.0954638987	-3.6237995911	-0.308137
C	 0.3821370582	-0.6306789324	-3.6226525923	 0.391645
O	 0.0488377277	-0.0604508814	-4.6258463849	-0.323363
O	 0.3077101715	 0.0136673502	-2.4348526096	-0.240132
H	 1.0493887085	 1.8962951452	 0.2198374288	 0.113501
H	-0.2939179572	 2.0240003918	-0.9249059905	 0.146689
H	-0.6145862746	 1.9466959877	 0.8166687285	 0.115466
H	 0.2726823153	-0.4090779765	 0.8743413319	 0.100316
H	-1.0973749814	-0.2731892653	-0.2239557282	 0.109276
H	 1.8318073624	-0.2136419794	-1.0791018253	 0.081471
H	 1.2635171682	-2.46921828	-0.3290790631	 0.114143
H	-0.254634609	-2.4461850636	-1.2322338072	 0.115292
H	 2.4311154937	-2.3284049307	-2.3946062847	 0.222889
H	 1.4779303532	-2.237766528	-4.4862205832	 0.143288
H	-0.0861830019	-2.6776189328	-3.8303922551	 0.145429
81.6051	89.3739	107.6605	179.928	219.8147	288.4597	359.0451	426.4045	444.5394	486.3432	534.4393	542.4817	647.3013	756.0061	805.1448	833.7349	912.2328	934.8723	958.3947	1005.3227	1034.3189	1045.6512	1115.6574	1147.7552	1152.533	1166.0207	1212.5563	1250.2618	1294.9362	1308.2496	1335.4114	1348.3758	1382.3857	1395.2817	1408.3958	1412.6063	1453.7343	1471.7582	1481.1394	1489.9258	1497.3177	1509.1255	1841.0917	2984.8884	3018.4103	3022.7999	3029.6069	3039.8087	3064.8165	3084.8949	3105.9417	3112.8909	3130.7701	3507.3053
CCC1CNCC(=O)O1	CC[C@H]1CNCC(=O)O1	
InChI=1S/C6H11NO2/c1-2-5-3-7-4-6(8)9-5/h5,7H,2-4H2,1H3	InChI=1S/C6H11NO2/c1-2-5-3-7-4-6(8)9-5/h5,7H,2-4H2,1H3/t5-/m0/s1
