17
gdb 9933	3.04041	1.51514	1.42484	4.7865	69.57	-0.2718	0.0326	0.3044	975.4018	0.140298	-363.866392	-363.857327	-363.856383	-363.899613	32.482	
C	-0.068655382	 1.5452825305	-0.0292925853	-0.429046
C	 0.0610473136	 0.0393176781	 0.0136321452	-0.085408
C	 1.3886848585	-0.64895016	-0.1717796863	 0.058117
O	 2.559838762	 0.1015957638	-0.2551966947	-0.415155
C	 0.7311911234	-0.6725469314	 1.2033010834	 0.109367
C	 1.3434955491	 0.1117009135	 2.3549972366	-0.461664
C	 0.1335491005	-1.9269366298	 1.5885754924	 0.242333
N	-0.3511591363	-2.9313160301	 1.8982332008	-0.349308
H	 0.8673982158	 2.04225657	 0.2321284931	 0.133214
H	-0.3477974433	 1.8683118596	-1.0380655635	 0.124768
H	-0.8466710906	 1.8964408884	 0.65542744	 0.133435
H	-0.7896351716	-0.4983123199	-0.3950150098	 0.110471
H	 1.4051959099	-1.5894464043	-0.7201993142	 0.112276
H	 2.610172481	 0.4834844571	-1.1381780879	 0.297685
H	 1.9377215811	 0.9444276964	 1.9810552064	 0.145282
H	 0.5654646959	 0.4956080578	 3.0210649467	 0.132404
H	 2.003264603	-0.5342720097	 2.9405016771	 0.141228
126.3574	139.5201	153.7632	165.8712	210.1611	227.1485	267.5126	290.8973	406.8662	448.2283	565.1786	570.176	589.0653	676.4074	792.2145	849.6578	958.3843	983.2231	1036.0743	1061.0921	1099.0334	1119.6309	1159.1131	1180.6011	1249.8056	1273.8608	1312.0719	1381.9127	1406.6211	1417.2726	1450.6414	1486.5264	1491.0128	1502.4292	1511.437	2346.0291	3040.8328	3053.7985	3098.6536	3115.9498	3116.3311	3130.0982	3155.7608	3161.4837	3804.9515
CC1C(O)C1(C)C#N	C[C@H]1[C@@H](O)[C@]1(C)C#N	
InChI=1S/C6H9NO/c1-4-5(8)6(4,2)3-7/h4-5,8H,1-2H3	InChI=1S/C6H9NO/c1-4-5(8)6(4,2)3-7/h4-5,8H,1-2H3/t4-,5+,6+/m0/s1
