20
gdb 109125	4.20893	0.96239	0.83693	3.5927	83.74	-0.2464	0.0081	0.2545	1419.5903	0.171459	-403.174835	-403.165762	-403.164818	-403.209414	33.381	
C	-0.2991050262	 1.5160833554	 0.0586173459	-0.377336
C	 0.0520743068	 0.0172564107	 0.0515100281	-0.283226
C	 0.8207616285	-0.4151705853	-1.1684696856	 0.300459
C	 2.0596775942	-0.9015910002	-1.1483558925	-0.178949
C	 2.7594603219	-1.2639259695	-2.429246328	-0.341118
C	 1.8008994481	-1.7544205795	-3.4912685238	 0.392871
N	 2.1645473776	-2.6057501838	-4.3560449361	-0.517331
O	 0.534618068	-1.2570298334	-3.4738643876	-0.245902
C	 0.148020827	-0.2678875893	-2.5105943566	-0.159963
H	 0.6066674582	 2.1294467617	 0.0220365105	 0.123369
H	-0.923641441	 1.7901920062	-0.7981511735	 0.120887
H	-0.8517944497	 1.7791017466	 0.9653793263	 0.120096
H	 0.6374852607	-0.2246578256	 0.9449747664	 0.106971
H	-0.8787953008	-0.5635105265	 0.1192399751	 0.108004
H	 2.596158012	-1.0323294698	-0.2128135641	 0.093699
H	 3.2926058579	-0.3857915688	-2.8263968845	 0.135779
H	 3.5169093585	-2.0368122782	-2.2897370507	 0.143677
H	 1.3910052568	-2.8075433378	-4.9932132358	 0.215241
H	-0.9379638969	-0.3730653863	-2.419081767	 0.122578
H	 0.3388100583	 0.7292330033	-2.9362874965	 0.120194
52.0697	73.1187	123.1337	164.9735	213.6407	293.2955	351.5615	419.4583	441.1255	508.6281	526.5788	603.7547	717.2474	780.9734	786.603	841.4514	893.3804	918.5929	957.2896	974.1203	986.0662	1018.8261	1063.1581	1075.8303	1114.6763	1150.2719	1188.8806	1210.8108	1264.5954	1280.9458	1302.6785	1328.6545	1351.651	1379.8027	1409.1595	1430.037	1463.806	1480.5555	1498.0927	1503.9784	1507.5806	1743.364	1749.6218	2986.011	2990.3136	3008.659	3035.7138	3066.182	3069.7461	3105.0715	3111.6574	3116.2497	3167.4226	3460.6508
CCC1=CCC(=N)OC1	CCC1=CC[C]([NH])OC1	
InChI=1S/C7H11NO/c1-2-6-3-4-7(8)9-5-6/h3,8H,2,4-5H2,1H3	InChI=1S/C7H11NO/c1-2-6-3-4-7(8)9-5-6/h3,8H,2,4-5H2,1H3
