16
gdb 125243	4.04783	0.95851	0.81481	2.8263	77.19	-0.2529	-0.0076	0.2453	1386.099	0.122667	-400.721993	-400.713235	-400.712291	-400.7564	31.478	
C	-0.069761981	 1.4155587349	-0.3612542048	-0.491128
C	-0.0264379007	-0.0502763117	-0.1128651481	 0.443385
C	-0.8354986975	-1.0861120243	-0.4614046829	-0.413565
C	-0.194979605	-2.2246117396	 0.103007612	 0.399514
C	-0.636048005	-3.6653471422	 0.0824059145	-0.456299
C	-1.0524138973	-4.1232819441	-1.2396852671	 0.303658
C	-1.4065366869	-4.4922342446	-2.3265807518	-0.452726
N	 0.9068222563	-1.8982798196	 0.7337723164	-0.206457
O	 1.0165307687	-0.5150966378	 0.6015469811	-0.211087
H	-0.0940963698	 1.9721086603	 0.5812871094	 0.151669
H	 0.8155641099	 1.7448195941	-0.9149387348	 0.15277
H	-0.9580800373	 1.6730588926	-0.9407418655	 0.14262
H	-1.7423733824	-1.0555037486	-1.0414651017	 0.124265
H	 0.1878582345	-4.279697667	 0.4607684809	 0.161616
H	-1.4687279153	-3.7956013466	 0.7869942278	 0.150925
H	-1.7105632612	-4.8267193558	-3.2873838955	 0.20084
42.8806	91.5534	103.0367	190.3117	257.4907	332.4314	341.5411	382.2903	454.7492	617.2111	624.2374	644.7035	650.6669	691.9602	778.2064	815.3574	924.8114	943.5136	964.6411	1010.8138	1024.0851	1035.6798	1065.9076	1152.3499	1216.9902	1291.2702	1328.7294	1413.0101	1446.0098	1460.1939	1474.3441	1490.2147	1525.2357	1647.6085	2244.4764	3019.5923	3043.7472	3076.1182	3100.5164	3140.0584	3279.9281	3506.1694
CC1=CC(CC#C)=NO1	Cc1cc(CC#C)no1	
InChI=1S/C7H7NO/c1-3-4-7-5-6(2)9-8-7/h1,5H,4H2,2H3	InChI=1S/C7H7NO/c1-3-4-7-5-6(2)9-8-7/h1,5H,4H2,2H3
