15
gdb 56101	4.14837	0.7932	0.67147	4.8274	69.73	-0.2653	-0.0595	0.2058	1580.7127	0.109486	-453.967081	-453.957344	-453.956399	-454.004651	32.264	
C	-0.0172262748	 1.4456408116	-0.002591842	-0.485383
C	 0.0661291314	-0.0689075753	 0.0084357956	 0.35533
O	 1.1054227932	-0.6757857946	 0.0065402694	-0.260506
C	-1.2894029726	-0.7717323354	 0.0210005279	-0.16971
O	-1.0796820544	-2.1793068605	-0.0118774581	-0.2069
C	-2.1828667717	-2.9331314529	 0.0086291297	 0.33307
N	-3.3607734131	-2.4653667594	 0.0540851795	-0.51888
C	-1.852119061	-4.3471340494	-0.0280760043	 0.261727
N	-1.6687626725	-5.4876521937	-0.0553943422	-0.311807
H	 0.9879392928	 1.8638575415	 0.0534039323	 0.155103
H	-0.5060378208	 1.792860633	-0.9201540607	 0.148079
H	-0.6179079045	 1.8105604244	 0.8379019745	 0.144477
H	-1.8551840791	-0.4918385531	 0.9183653651	 0.150561
H	-1.8950818903	-0.4561517043	-0.8374984758	 0.148826
H	-4.0582240425	-3.2059108419	 0.0627812691	 0.256014
11.9888	52.4854	81.7629	99.9668	157.3254	207.662	278.7454	344.6988	363.3299	474.0098	535.6217	569.6096	631.2877	733.2324	815.6214	845.847	866.896	906.1891	970.1047	1053.8877	1091.8169	1128.9381	1189.5063	1255.9767	1355.0445	1384.2535	1404.8678	1460.3103	1475.254	1480.2328	1701.6703	1841.0985	2359.4815	3030.8862	3039.8941	3068.6378	3098.4989	3157.6972	3534.4037
CC(=O)COC(=N)C#N	CC(=O)CO[C]([NH])C#N	
InChI=1S/C5H6N2O2/c1-4(8)3-9-5(7)2-6/h7H,3H2,1H3	InChI=1S/C5H6N2O2/c1-4(8)3-9-5(7)2-6/h7H,3H2,1H3
