16
gdb 60742	4.12126	0.96092	0.82612	3.8284	68.7	-0.2633	-0.0462	0.2171	1340.0095	0.122697	-475.039999	-475.030954	-475.03001	-475.07556	31.147	
C	-0.4659740616	 1.516368913	 0.2655346826	-0.362591
N	-0.0275466175	 0.1294842295	 0.1011047521	-0.167984
C	 0.0099191494	-0.6831081608	 1.2408527536	 0.174904
O	-0.2987253986	-0.2985791258	 2.3419588468	-0.31372
C	 0.3671815585	-0.4236150408	-1.1252808533	 0.438765
O	 0.7645945827	-1.5620872159	-1.2274495623	-0.343519
C	 0.2961429843	 0.4860250987	-2.3299968733	-0.067685
C	 1.3959806417	 0.3960025481	-3.314723325	-0.15691
O	 0.1352498346	-0.1950710189	-3.5687337151	-0.199705
H	 0.2943127625	 2.216123938	-0.0901105178	 0.142488
H	-1.4073030263	 1.7030301582	-0.2588603432	 0.14698
H	-0.6207859341	 1.6683811033	 1.3333663708	 0.179872
H	 0.3498350846	-1.6982632271	 1.0042198361	 0.146562
H	-0.2586403891	 1.4156844195	-2.2515288989	 0.111939
H	 1.6417976665	 1.2741719883	-3.9096595578	 0.126694
H	 2.2030296724	-0.3058295175	-3.1166904554	 0.14391
20.6842	54.6212	178.425	191.8954	202.0855	283.9693	321.1672	329.6267	340.5	395.1957	539.9042	731.567	754.4597	817.5594	879.4987	904.0735	970.783	1022.769	1058.9049	1094.4304	1111.5528	1153.2167	1162.5381	1172.3126	1277.6884	1287.6045	1324.1544	1413.778	1428.7549	1450.3914	1505.008	1506.543	1511.8467	1788.6226	1813.3495	3048.2262	3083.5841	3092.0853	3115.6745	3159.7207	3165.1457	3193.7282
CN(C=O)C(=O)C1CO1	CN(C=O)C(=O)[C@H]1CO1	
InChI=1S/C5H7NO3/c1-6(3-7)5(8)4-2-9-4/h3-4H,2H2,1H3	InChI=1S/C5H7NO3/c1-6(3-7)5(8)4-2-9-4/h3-4H,2H2,1H3/t4-/m1/s1
