20
gdb 67728	3.00576	1.86419	1.34924	1.5355	83.18	-0.2091	-0.0027	0.2064	1003.6135	0.170768	-365.939796	-365.931901	-365.930957	-365.971405	32.501	
C	-0.0184436488	 1.5143525045	-0.0152119916	-0.516314
C	 0.0804154265	 0.008161068	 0.0315599208	 0.341281
C	 0.4710163854	-0.7096904581	-1.2493056509	-0.153222
C	 0.360940611	-1.9951807056	-0.9333079575	-0.153171
C	-0.0889307543	-1.969523155	 0.5177215059	 0.341215
C	-0.4298043305	-3.2902823073	 1.1657926069	-0.516313
C	 0.6765399504	-0.8024882673	 1.2366335807	-0.138661
C	-0.626630015	-0.5071391842	 1.9830746218	-0.210062
N	-1.1543058667	-0.8080673021	 0.5762469983	-0.207999
H	 0.9382840224	 1.9418144071	-0.3345447422	 0.121663
H	-0.7804180583	 1.8184805846	-0.740455537	 0.132703
H	-0.2761747804	 1.9602417012	 0.9477846453	 0.122555
H	 0.7386499359	-0.2348366335	-2.1830649946	 0.106964
H	 0.5119244154	-2.8826274496	-1.5321930312	 0.106965
H	 0.4326128278	-3.9639865816	 1.116968621	 0.121662
H	-0.7174158036	-3.1949728694	 2.2149782408	 0.122551
H	-1.258755166	-3.7674637623	 0.6326749247	 0.132702
H	 1.7136972138	-0.8016769582	 1.6011959589	 0.053294
H	-0.9660256619	-1.2123526187	 2.7432849754	 0.096078
H	-0.818141833	 0.5132225475	 2.3187003047	 0.096109
168.2686	170.6224	198.6435	298.7744	317.4083	384.2216	423.3685	491.017	506.2068	573.4402	663.6065	683.1615	710.2381	721.0841	776.212	792.3259	848.7357	899.2591	905.235	912.9372	935.1498	1028.0955	1056.6368	1076.6727	1087.2811	1103.7863	1115.4494	1145.0554	1187.9441	1205.3666	1226.9515	1241.4673	1255.5782	1327.7029	1343.0955	1412.7582	1415.8119	1483.8737	1489.	1491.1899	1492.1962	1546.3152	1656.1817	3000.9999	3038.3517	3038.4007	3080.8169	3099.0017	3099.1539	3118.7908	3123.2092	3131.3555	3216.0234	3244.223
CC12C=CC3(C)C1CN23	C[C@@]12C=C[C@@]3(C)[C@@H]1CN23	
InChI=1S/C8H11N/c1-7-3-4-8(2)6(7)5-9(7)8/h3-4,6H,5H2,1-2H3	InChI=1S/C8H11N/c1-7-3-4-8(2)6(7)5-9(7)8/h3-4,6H,5H2,1-2H3/t6-,7-,8+
