23
gdb 122514	4.3127	0.55635	0.53852	2.8058	83.75	-0.2574	0.0785	0.3359	2142.2455	0.203488	-425.408071	-425.397072	-425.396128	-425.445707	38.589	
C	 0.7090584365	 1.3460325915	 0.2600320924	-0.373891
C	-0.2352462409	 0.2093279603	-0.1515681694	-0.213941
C	 0.2465157701	-0.491960438	-1.3993330761	 0.074814
O	 1.3866582838	-1.3539033589	-1.273121866	-0.267937
C	 0.1380188868	-1.9350384331	-1.6728587334	 0.05926
C	-0.4757666104	-2.9611386127	-0.7502833223	-0.235707
C	 0.2609489304	-4.3048411885	-0.8264742986	-0.157865
C	-0.3335307997	-5.3568991172	 0.099607735	-0.076209
O	 0.4069772247	-6.5559255911	-0.0679521551	-0.420563
H	 1.7121023483	 0.9568058189	 0.4579779486	 0.135063
H	 0.792356166	 2.0989972741	-0.5313575154	 0.115071
H	 0.3519654763	 1.8485810291	 1.1637025912	 0.112255
H	-0.3281293808	-0.5069113069	 0.6697217619	 0.10435
H	-1.24023119	 0.6076748484	-0.3438723794	 0.09922
H	 0.3010515401	 0.1619910105	-2.274713461	 0.081531
H	 0.1202622747	-2.228239101	-2.7264372637	 0.083898
H	-0.463745481	-2.5919091794	 0.2799296108	 0.103498
H	-1.5298366912	-3.0957629864	-1.0305165531	 0.098056
H	 0.2371047317	-4.6920271641	-1.8525505102	 0.104797
H	 1.3155888878	-4.1593264431	-0.5686368956	 0.124412
H	-0.2880522257	-5.0018811299	 1.142673555	 0.08419
H	-1.3987379625	-5.5088343686	-0.1439448948	 0.08068
H	 0.0470432349	-7.218236104	 0.5288995693	 0.285019
39.0728	66.2583	80.9574	101.3596	131.5805	180.8287	219.0669	260.2987	266.8689	284.6992	424.3474	448.8181	484.8829	577.1645	738.7342	763.9015	811.01	821.4715	878.5917	946.3622	973.7674	1016.9391	1033.503	1048.0946	1071.3641	1084.065	1117.7875	1136.2513	1179.0566	1187.2118	1219.2834	1234.9626	1286.8405	1297.9325	1303.156	1309.8274	1318.6234	1342.4143	1377.3751	1408.3901	1420.6237	1464.1923	1467.4244	1477.9609	1497.0065	1499.0412	1500.7966	1510.0844	1528.622	2953.4148	2978.3217	3016.2464	3027.0601	3036.3477	3036.9519	3055.578	3068.3867	3074.0703	3085.2375	3094.9659	3108.0793	3117.0365	3830.4807
CCC1OC1CCCO	CC[C@H]1O[C@H]1CCCO	
InChI=1S/C7H14O2/c1-2-6-7(9-6)4-3-5-8/h6-8H,2-5H2,1H3	InChI=1S/C7H14O2/c1-2-6-7(9-6)4-3-5-8/h6-8H,2-5H2,1H3/t6-,7+/m1/s1
