16
gdb 88311	4.26796	0.87691	0.80637	5.7627	71.72	-0.2608	-0.0446	0.2162	1391.7286	0.122597	-437.899467	-437.890657	-437.889713	-437.933965	31.864	
O	 0.101169636	 1.3207223702	-0.1608902743	-0.409608
C	 0.0045245258	-0.041951172	-0.0159971026	 0.162332
C	-0.3782121425	-0.696825296	 1.2532861562	-0.324396
C	-1.3885922025	-0.7410439461	 0.0957083233	-0.208434
C	-2.544412771	 0.1629807235	 0.1643086138	 0.423822
O	-2.5006951182	 1.2544767573	 0.7028788141	-0.344506
C	-3.8203658823	-0.3355448644	-0.5328986354	-0.468449
C	-4.9338424804	 0.602221742	-0.4671753886	 0.289794
N	-5.8317740143	 1.3263878203	-0.4272639933	-0.292783
H	-0.6417759145	 1.723121933	 0.3195727333	 0.310165
H	 0.708684932	-0.55057569	-0.6661803982	 0.126015
H	 0.0794094304	-1.6407538284	 1.5271101485	 0.131274
H	-0.6545415692	-0.0520090108	 2.0812864391	 0.14596
H	-1.5245225073	-1.6825402309	-0.4240906506	 0.100294
H	-3.5824759407	-0.5540653467	-1.5815710448	 0.180579
H	-4.1163713113	-1.2926365611	-0.0857079704	 0.17794
38.8682	85.1609	119.588	209.7995	253.131	312.5992	372.2021	418.5743	451.1688	471.0478	540.8843	608.4283	707.0273	719.5192	805.0676	847.6172	902.3832	942.5195	958.9289	1017.8861	1054.4887	1076.8838	1106.6143	1124.9391	1139.2933	1215.4851	1238.7116	1314.6457	1360.1439	1405.4429	1436.5637	1449.9234	1482.7294	1759.1114	2377.1798	3038.5905	3073.4038	3134.5706	3171.3335	3178.5039	3230.7263	3662.0009
OC1CC1C(=O)CC#N	O[C@H]1C[C@H]1C(=O)CC#N	
InChI=1S/C6H7NO2/c7-2-1-5(8)4-3-6(4)9/h4,6,9H,1,3H2	InChI=1S/C6H7NO2/c7-2-1-5(8)4-3-6(4)9/h4,6,9H,1,3H2/t4-,6-/m0/s1
