18
gdb 39362	2.75775	1.95542	1.34321	1.5703	77.7	-0.2249	0.019	0.2439	964.4741	0.151212	-398.090239	-398.083299	-398.082355	-398.121139	28.543	
C	-0.0527499008	 1.6007295726	 0.3392383943	-0.319008
N	 1.1448811995	 0.8429266689	-0.0379012959	-0.141962
C	 2.0643492569	 0.4661833663	 1.059626596	-0.164119
C	 1.4173293715	-0.111885374	 2.3507709702	-0.18573
N	 0.4860883256	-1.221789086	 2.0842659955	-0.33269
C	-0.2223403842	-0.9540500422	 1.0702605865	 0.372585
N	-1.1364681295	-1.6653081046	 0.2870157442	-0.382172
C	-0.899818438	-0.7727905207	-0.8927197781	-0.267069
C	-0.1314460913	 0.1467490369	 0.0756592416	 0.247116
H	-0.1742967399	 1.9510027913	 1.3611769646	 0.124024
H	-0.4015902789	 2.2906484617	-0.4243820713	 0.125492
H	 2.7399774452	-0.289159783	 0.6439350687	 0.116295
H	 2.6660964297	 1.3455990325	 1.3105810096	 0.110369
H	 2.2227420216	-0.4799175495	 2.9945196241	 0.107628
H	 0.9172798398	 0.6841961259	 2.919424881	 0.104664
H	-1.1006830306	-2.6746111745	 0.2192509889	 0.24319
H	-0.2637187232	-1.2154274683	-1.6661877342	 0.123355
H	-1.8174639738	-0.3784616234	-1.3363100356	 0.118033
191.015	215.9306	284.5581	325.1253	396.904	419.8872	494.4452	530.951	608.9593	641.4738	746.4169	752.5018	776.2749	864.5267	888.9563	909.055	931.8349	960.0695	1030.4534	1054.0428	1074.2229	1099.7491	1114.9214	1138.3617	1156.6099	1176.6462	1218.2209	1249.4214	1277.1531	1318.4347	1340.6512	1355.7876	1370.6706	1432.8574	1481.2942	1494.9976	1508.5965	1518.0603	1790.8888	3008.8422	3042.7106	3045.8226	3068.23	3090.5207	3104.2971	3106.995	3192.1682	3573.6823
C1N2CCN=C3NCC123	C1N2CC[N][C]3NC[C@]123	
InChI=1S/C6H9N3/c1-2-9-4-6(9)3-8-5(6)7-1/h1-4H2,(H,7,8)	InChI=1S/C6H9N3/c1-2-9-4-6(9)3-8-5(6)7-1/h1-4H2,(H,7,8)/t6-,9?/m1/s1
