16
gdb 31412	3.06649	1.26078	0.89849	6.8022	77.37	-0.213	-0.0267	0.1862	1238.8047	0.124759	-437.94934	-437.940777	-437.939833	-437.984044	30.776	
C	-0.0672263028	 1.4569275598	 0.1023214182	-0.324697
N	 0.0117748486	 0.0182570257	-0.0176993569	-0.367189
C	 0.60590692	-0.62644284	-1.0553755519	 0.420419
C	 1.2004567105	 0.0260306442	-2.1117052897	-0.406195
C	 1.8214715351	-0.6708427317	-3.1961908868	 0.428175
O	 2.3685473712	-0.2172418415	-4.1661658641	-0.360223
O	 1.7822050429	-2.0994034018	-3.107397369	-0.228051
C	 1.2006455217	-2.7101127427	-2.0744811561	 0.10312
C	 0.6133759021	-2.0687903013	-1.0487115498	-0.277449
H	 0.930139091	 1.9128397965	 0.138316698	 0.142798
H	-0.6142691612	 1.9011073439	-0.7387004903	 0.142829
H	-0.5931506565	 1.7069792009	 1.0250809249	 0.132948
H	-0.3960633266	-0.5417594056	 0.7094487029	 0.251025
H	 1.2306980442	 1.1041522416	-2.1797337326	 0.105695
H	 1.2544397558	-3.7907476034	-2.1543990652	 0.136969
H	 0.1601728239	-2.6319195646	-0.2426140618	 0.099826
16.6151	132.8067	152.9589	204.0679	221.642	277.3852	405.9284	426.552	505.0236	532.0181	588.7086	699.1533	712.0432	730.6192	771.4778	826.9702	838.6473	944.3866	980.0167	1068.4095	1109.3438	1159.0581	1171.9297	1193.0442	1288.8285	1324.7889	1339.1468	1457.5208	1465.1145	1480.4598	1521.9835	1567.8916	1588.6557	1694.9396	1843.7375	3014.7663	3062.7864	3134.7065	3190.1165	3214.0464	3232.2956	3672.4318
CNC1=CC(=O)OC=C1	CNc1cc(=O)occ1	
InChI=1S/C6H7NO2/c1-7-5-2-3-9-6(8)4-5/h2-4,7H,1H3	InChI=1S/C6H7NO2/c1-7-5-2-3-9-6(8)4-5/h2-4,7H,1H3
