17
gdb 93548	3.46513	1.27296	0.97449	2.5657	72.07	-0.2567	-0.0128	0.2439	1181.6728	0.137837	-455.19499	-455.186909	-455.185965	-455.227972	30.155	
C	-0.0920541256	 1.520691111	 0.0167876754	-0.390062
C	 0.0039726888	-0.0101567351	 0.0062384942	 0.024445
C	 0.7522322598	-0.4867598239	-1.2383137	-0.09667
O	 0.5455503126	-1.8754897418	-1.5358638746	-0.231808
C	 1.1330967909	-2.841558582	-0.8174334115	 0.466402
O	 1.2649306983	-3.9555398946	-1.2508295582	-0.368078
N	 1.5976513634	-2.5144999262	 0.4619942763	-0.381837
C	 1.2707326496	-1.5062351252	 1.3739947006	 0.094222
N	 0.6028166174	-0.4394258543	 1.261406492	-0.243475
H	 0.9061014343	 1.9713009381	 0.0066008421	 0.121222
H	-0.6505542493	 1.8910196376	-0.8482685965	 0.11347
H	-0.5947976829	 1.8479265139	 0.9290348534	 0.135655
H	-1.0138269487	-0.4227134149	-0.0460128504	 0.106949
H	 0.3780940651	 0.0284935484	-2.1250440578	 0.131702
H	 1.8251012311	-0.2801416753	-1.1454729478	 0.126582
H	 2.0754674306	-3.3088079701	 0.8636277379	 0.268856
H	 1.7013732647	-1.7356906657	 2.350576075	 0.122426
67.5271	117.3334	217.2999	243.4245	291.4974	341.1592	364.0091	414.9955	523.8116	573.4915	643.6329	665.4183	775.0045	784.01	846.6868	904.2235	920.8253	941.0655	957.8441	1071.8092	1103.1323	1130.074	1155.5888	1177.9527	1256.4193	1282.1964	1320.0445	1368.9039	1406.2817	1421.0861	1457.8206	1484.584	1487.3231	1496.2745	1503.3809	1767.723	1845.3113	3007.282	3038.9535	3044.9782	3108.0312	3111.421	3119.0475	3134.5482	3609.874
CC1COC(=O)NC=N1	C[C@H]1COC(=O)NC=N1	
InChI=1S/C5H8N2O2/c1-4-2-9-5(8)7-3-6-4/h3-4H,2H2,1H3,(H,6,7,8)	InChI=1S/C5H8N2O2/c1-4-2-9-5(8)7-3-6-4/h3-4H,2H2,1H3,(H,6,7,8)/t4-/m0/s1
