21
gdb 57593	2.20687	1.42911	1.24227	2.1341	78.41	-0.2453	-0.0289	0.2164	1150.8473	0.178253	-424.224211	-424.21377	-424.212825	-424.259337	38.8	
C	 0.2520570152	 1.5015946284	 0.2730052076	-0.413977
C	 0.0396691675	 0.0029429797	 0.0725465706	 0.185768
O	 0.5836759845	-0.6368491625	 1.2243369837	-0.460779
C	-1.4556942473	-0.3345125003	 0.0151014442	 0.138257
O	-2.3222961836	 0.3822040932	-0.4090736211	-0.246306
C	 0.6845634167	-0.5083795558	-1.2379483392	 0.348025
C	 0.217602923	 0.1813784327	-2.5094612667	-0.476741
C	 2.1280989013	-0.9416849335	-1.172780413	-0.306343
C	 1.0434196193	-1.9773083819	-1.3433207921	-0.334371
H	 1.3095774304	 1.7526808509	 0.1598651846	 0.123406
H	-0.3381895921	 2.0701315929	-0.4466773215	 0.141297
H	-0.0685929865	 1.7820123114	 1.2791784973	 0.128452
H	 0.3586284413	-1.5736537682	 1.1962529914	 0.281775
H	-1.6904882008	-1.3573700602	 0.4013173658	 0.064529
H	 0.5095402293	 1.2362153917	-2.5227677665	 0.124545
H	 0.6677778938	-0.295222625	-3.3851475894	 0.113871
H	-0.8696464547	 0.1368485095	-2.6235153939	 0.137151
H	 2.7603759152	-0.7100900886	-2.0231305019	 0.112554
H	 2.6204254031	-0.8991957144	-0.2088181493	 0.128315
H	 0.8577361425	-2.647111076	-0.5094972832	 0.093886
H	 0.9203969119	-2.4534729639	-2.3099525174	 0.116686
55.1007	74.6639	180.7941	206.6859	226.7402	245.8968	258.9815	269.6432	309.7948	350.8507	379.6215	396.9314	441.1919	493.1951	588.2833	678.2641	786.6561	820.4239	869.1283	905.476	924.0664	954.5813	959.202	991.8785	1040.7102	1068.116	1084.6924	1106.6313	1131.007	1166.4237	1176.426	1189.824	1292.0473	1323.9627	1357.6942	1394.8646	1423.9703	1428.9676	1462.3229	1479.769	1492.0196	1494.0742	1502.9627	1509.499	1835.002	2825.1122	3038.2276	3057.9066	3102.5877	3112.0844	3123.515	3131.1187	3139.0934	3152.3955	3202.6219	3231.7651	3798.4404
CC(O)(C=O)C1(C)CC1	C[C@@](O)(C=O)C1(C)CC1	
InChI=1S/C7H12O2/c1-6(3-4-6)7(2,9)5-8/h5,9H,3-4H2,1-2H3	InChI=1S/C7H12O2/c1-6(3-4-6)7(2,9)5-8/h5,9H,3-4H2,1-2H3/t7-/m1/s1
