16
gdb 42852	3.28941	1.10884	0.99121	4.052	73.37	-0.2592	-0.0075	0.2517	1198.6316	0.124783	-400.729039	-400.721324	-400.72038	-400.762021	28.791	
O	-0.1540193302	-0.0055217973	 0.0149492683	-0.321057
C	-0.0891420577	 1.1829087375	 0.0205472583	 0.441533
C	-0.9946538819	 2.4285962176	-0.0114461054	-0.170066
C	-0.0265228031	 2.9678409026	 1.0973538743	-0.242502
C	 0.9530567292	 2.3183839697	 0.0602043511	-0.193524
C	 0.0542208115	 2.9941297579	-1.033677173	 0.026909
C	 0.0913739355	 2.4642933706	-2.4711745221	-0.394796
C	-1.0006442565	 3.0077268479	-3.2777824001	 0.264728
N	-1.8696205659	 3.4533544411	-3.8952660566	-0.303
H	-2.0777022602	 2.5105959708	-0.0566735107	 0.113188
H	 0.0324902437	 4.0567180953	 1.1551208597	 0.118501
H	-0.0876550059	 2.508770778	 2.0845434403	 0.12453
H	 2.0393090932	 2.274777385	 0.0981113021	 0.101036
H	 0.1108159282	 4.0854975574	-1.0134926788	 0.104135
H	 1.0420483764	 2.7363517629	-2.9445946943	 0.158594
H	 0.0303139937	 1.3699331929	-2.4875680832	 0.171792
57.265	114.1865	150.1272	302.3893	321.6786	392.1757	448.2974	460.6345	583.6937	688.1327	754.3135	764.3934	815.5226	858.6749	885.9057	940.0633	956.6441	997.5433	1025.428	1038.1015	1043.6806	1095.0139	1102.3392	1137.9601	1186.785	1202.745	1220.2427	1236.2713	1258.4774	1324.4547	1406.9755	1464.9607	1516.1493	1920.593	2364.0857	3041.315	3073.6984	3075.2133	3089.7115	3148.2473	3149.3576	3160.1511
O=C1C2CC1C2CC#N	O=C1[C@H]2C[C@@H]1[C@H]2CC#N	
InChI=1S/C7H7NO/c8-2-1-4-5-3-6(4)7(5)9/h4-6H,1,3H2	InChI=1S/C7H7NO/c8-2-1-4-5-3-6(4)7(5)9/h4-6H,1,3H2/t4-,5-,6+
