18
gdb 47649	2.31653	1.76927	1.15805	3.3284	74.49	-0.2576	-0.025	0.2326	1065.5405	0.149208	-439.061662	-439.05363	-439.052686	-439.094526	30.498	
N	 0.0041225899	 1.3653692724	 0.1787856842	-0.452504
C	 0.0264635331	 0.1114452229	 0.0129416451	 0.314655
C	-1.283284712	-0.6731759905	-0.0483426512	-0.105559
O	-1.8923409221	-0.7690056795	-1.3256251873	-0.249167
C	-1.0640648847	-1.258946639	-2.3782451059	-0.113704
C	-0.3823978191	-2.5508699498	-2.0147091318	-0.067024
C	 0.7949400393	-2.5987492891	-1.3893429578	-0.066614
C	 1.6346509377	-1.3817510418	-1.0754325057	-0.134775
O	 1.2086624332	-0.5956328074	 0.0568932787	-0.257896
H	 0.9619280876	 1.7230977819	 0.2285726782	 0.220954
H	-1.111997475	-1.6647564798	 0.3877834831	 0.103812
H	-2.0070568008	-0.131530441	 0.562099951	 0.137786
H	-1.7374075409	-1.3897751444	-3.2290498516	 0.116214
H	-0.3235475484	-0.4937706808	-2.6555132064	 0.099626
H	-0.9382985529	-3.4692849275	-2.1860157112	 0.10457
H	 1.1946214562	-3.557232064	-1.0685696394	 0.104266
H	 2.6482576676	-1.6866426889	-0.8091025012	 0.124712
H	 1.7080886612	-0.7222066938	-1.9487270707	 0.120647
59.0844	146.5402	210.1839	241.8567	298.9706	307.7728	425.1866	479.7779	505.5431	538.8932	624.2624	684.7178	781.7233	843.9765	913.1876	921.4872	957.1367	978.9302	999.1134	1006.191	1015.4131	1027.6041	1100.9698	1133.0028	1139.0009	1246.5665	1272.394	1291.5035	1298.8913	1325.4747	1380.1949	1397.0063	1416.7285	1425.0988	1484.8997	1494.1441	1515.5098	1711.7219	1733.3433	2989.807	3031.3397	3034.2291	3093.8544	3111.5641	3127.1433	3152.1694	3174.6416	3446.0594
N=C1COCC=CCO1	[NH][C]1COCC=CCO1	
InChI=1S/C6H9NO2/c7-6-5-8-3-1-2-4-9-6/h1-2,7H,3-5H2/b2-1-,7-6?	InChI=1S/C6H9NO2/c7-6-5-8-3-1-2-4-9-6/h1-2,7H,3-5H2/b2-1-,7-6?
