13
gdb 129009	4.17221	1.68453	1.20002	4.0783	71.99	-0.2607	-0.057	0.2036	922.8984	0.094271	-411.831676	-411.825908	-411.824963	-411.861726	22.979	
N	 0.0210946482	 1.3393325878	 0.0094381109	-0.343999
N	 1.3159447919	 1.7819676572	-0.0007210931	-0.084157
N	 2.1022890142	 0.7660022164	-0.0138916783	-0.266723
C	 1.3342343695	-0.3813349006	-0.0127252056	 0.234393
C	-0.0231711206	-0.0169443991	 0.002444585	 0.394302
C	-1.0205498777	-0.9957575924	 0.0067695988	-0.272163
C	-0.5587372779	-2.3016003398	-0.0048588794	 0.02745
N	 0.7417468428	-2.6773836105	-0.0195388835	-0.280766
C	 1.6759285134	-1.7386246054	-0.02347101	-0.056281
H	-0.7234691499	 2.0167221107	 0.0203733408	 0.284075
H	-2.0796071468	-0.7693187374	 0.018287034	 0.111416
H	-1.2755539249	-3.1183802591	-0.0023698685	 0.118593
H	 2.7154461477	-2.0552367978	-0.035290621	 0.13386
223.9387	259.7107	410.4331	427.9626	494.4002	555.1951	620.8885	644.4539	707.6278	814.2973	814.6776	834.4842	914.9066	963.56	990.0031	997.0872	1011.0389	1053.1782	1211.0486	1231.6248	1290.0636	1299.9802	1339.2772	1391.0756	1414.6973	1486.6509	1496.2667	1613.8729	1654.1535	3166.1412	3171.3206	3206.6027	3669.6156
N1N=NC2=C1C=CN=C2	[nH]1nnc2c1ccnc2	
InChI=1S/C5H4N4/c1-2-6-3-5-4(1)7-9-8-5/h1-3H,(H,7,8,9)	InChI=1S/C5H4N4/c1-2-6-3-5-4(1)7-9-8-5/h1-3H,(H,7,8,9)
