19
gdb 80338	2.14367	1.50397	1.3135	1.9087	81.57	-0.2332	0.0197	0.2529	1114.3763	0.15656	-385.81521	-385.805968	-385.805024	-385.848723	34.902	
C	-0.0996997181	 1.5149091523	-0.1698575405	-0.422436
C	 0.0375303604	 0.0191364667	 0.0101341356	-0.078572
C	 1.3168348138	-0.7368625802	-0.1803307698	 0.032399
O	 2.4419402166	 0.0371554165	 0.2596252785	-0.295267
C	 1.9591222867	-0.0261352298	 1.6344808293	-0.103645
C	 1.9288827927	 1.2392739228	 2.3491043541	 0.321512
C	 1.9164568227	 2.2587106296	 2.9865109363	-0.432927
C	 0.6609173096	-0.7211522519	 1.187789185	 0.231254
C	-0.0427328563	-1.7659886488	 2.0022459242	-0.498143
H	 0.8451904571	 2.0237118848	 0.0254593651	 0.145681
H	-0.399593749	 1.7418377188	-1.1987872601	 0.112143
H	-0.8577127311	 1.9311849946	 0.501206808	 0.116375
H	-0.8143145029	-0.5542252373	-0.3561931638	 0.086121
H	 1.5077163215	-1.5261274297	-0.8991196876	 0.101798
H	 2.5877151807	-0.7365540062	 2.1896900415	 0.108507
H	 1.8984196306	 3.1666949623	 3.5373661825	 0.200977
H	-0.6123312454	-1.3126286054	 2.8222395831	 0.130214
H	-0.748356481	-2.3332870907	 1.3873778361	 0.123904
H	 0.6658754713	-2.4779197585	 2.4411353026	 0.120104
116.515	121.2173	177.4842	186.3942	206.5128	258.2763	281.0731	303.4724	407.6547	500.0575	553.2922	581.7532	616.9563	665.8153	677.9169	753.9868	766.6339	905.5115	907.9015	948.8465	969.6338	1005.1799	1025.0357	1069.2535	1083.429	1112.1076	1129.7155	1159.5732	1220.8448	1251.2713	1284.5649	1333.7292	1359.3842	1412.9504	1418.2719	1470.1894	1486.5184	1493.7608	1497.9253	1502.6413	2231.9084	3002.3141	3022.4831	3037.635	3080.8958	3094.8679	3099.6461	3111.0524	3142.9606	3173.7241	3501.0067
CC1C2OC(C#C)C12C	C[C@H]1[C@H]2O[C@@H](C#C)[C@@]12C	
InChI=1S/C8H10O/c1-4-6-8(3)5(2)7(8)9-6/h1,5-7H,2-3H3	InChI=1S/C8H10O/c1-4-6-8(3)5(2)7(8)9-6/h1,5-7H,2-3H3/t5-,6-,7+,8+/m0/s1
