17
gdb 49288	3.16325	1.3586	1.02893	5.7271	80.26	-0.205	-0.0197	0.1853	1136.0068	0.138703	-418.011219	-418.003515	-418.002571	-418.043565	29.326	
O	-0.1163100112	-0.0523148392	 0.1488411354	-0.322046
C	-0.02037793	 1.1619996892	 0.1561838168	 0.075373
C	 1.2078359247	 1.9040116396	-0.009973984	 0.198372
C	 1.1927375364	 3.2634912561	-0.0018965687	-0.034423
N	 2.288156941	 4.0375610614	-0.1684916526	-0.302217
C	 3.5770025538	 3.5318789707	-0.6360616369	-0.162612
C	 3.7029923938	 2.027471535	-0.4843678611	-0.039174
N	 3.5337106915	 1.4897273824	 0.8684778821	-0.335614
C	 2.5029614323	 1.209569306	-0.1757660572	-0.162256
H	-0.9254580925	 1.8038338299	 0.2831549648	 0.039344
H	 0.2649171896	 3.8041828235	 0.1662802541	 0.121939
H	 2.1621559271	 5.0350407296	-0.1916673492	 0.254847
H	 3.7095852861	 3.7782650954	-1.699967636	 0.113699
H	 4.3759098806	 4.0367072308	-0.0786528048	 0.121127
H	 4.4696453794	 1.5957654269	-1.1240744176	 0.092482
H	 4.1230258611	 0.6695375221	 0.991725475	 0.234143
H	 2.4441783063	 0.1964686007	-0.5595897203	 0.107017
90.3478	159.1782	191.6236	250.8254	326.2196	360.8467	440.5351	466.6183	554.4521	600.4005	658.425	759.0867	767.4546	879.6105	901.8998	923.3634	930.7584	932.8202	1018.8281	1030.4249	1057.7679	1111.8547	1156.6417	1197.1035	1243.6338	1261.2009	1279.5458	1296.8196	1333.0207	1372.4038	1417.6414	1442.0108	1474.0006	1500.4195	1558.6766	1686.9645	1762.6915	2832.3546	2993.7814	3038.9733	3130.244	3168.8311	3173.041	3495.0498	3655.3605
O=CC1=CNCC2NC12	O=CC1=CNC[C@H]2N[C@@H]12	
InChI=1S/C6H8N2O/c9-3-4-1-7-2-5-6(4)8-5/h1,3,5-8H,2H2	InChI=1S/C6H8N2O/c9-3-4-1-7-2-5-6(4)8-5/h1,3,5-8H,2H2/t5-,6+/m1/s1
