19
gdb 70678	2.85162	1.58847	1.20822	1.9892	75.83	-0.2432	0.0148	0.258	1064.7636	0.160871	-419.185869	-419.177639	-419.176694	-419.218541	31.402	
C	-0.0512623819	 1.5175282654	 0.0075925204	-0.438835
C	 0.0404478499	 0.0043975825	 0.0044696322	 0.287979
C	-1.0689584533	-0.6479582217	-0.8199672313	-0.228651
N	-1.0275888924	-2.0571598425	-1.1601023757	-0.256391
C	-0.4880239212	-3.006305687	-0.5363269265	 0.107171
O	 0.2065927828	-3.0876953437	 0.6315444028	-0.221317
C	 0.0989740858	-2.0565926309	 1.6165021954	-0.122354
C	 0.5998767358	-0.6933226511	 1.1860906953	-0.056143
N	 1.4208673282	-0.5191010007	-0.0238243981	-0.376883
H	 0.7582575825	 1.9473715872	 0.6018272771	 0.129019
H	 0.031468572	 1.9143593637	-1.0103469215	 0.122633
H	-1.007330192	 1.8545132285	 0.4244682771	 0.113408
H	-2.0318744195	-0.4406738643	-0.3298998758	 0.119609
H	-1.1207465099	-0.1114408855	-1.7765744348	 0.118644
H	-0.5192464888	-4.0066569967	-0.9700875169	 0.12552
H	-0.942821538	-1.9917789108	 1.9595950487	 0.117454
H	 0.7015321636	-2.4271752969	 2.4498900477	 0.128076
H	 0.9269357379	-0.0886147969	 2.0318560729	 0.090518
H	 1.4637204084	-1.3976511185	-0.5365777591	 0.240546
91.1636	147.3892	184.9282	238.1853	269.842	316.8425	354.7719	422.4354	462.3578	549.5356	645.4304	691.8827	758.2867	819.6367	865.6817	913.6686	946.7681	953.9928	975.8602	1001.7584	1024.5274	1060.2442	1100.8874	1110.5853	1154.3634	1169.2079	1198.9607	1259.6465	1297.7492	1308.6341	1352.3029	1382.2562	1404.4635	1415.1538	1435.6179	1467.8971	1476.6931	1492.3115	1495.8544	1506.5034	1776.2006	2998.8061	3013.9055	3027.1238	3030.6728	3090.4253	3091.1993	3107.3615	3124.5359	3132.2065	3497.5452
CC12CN=COCC1N2	C[C@]12CN=COC[C@H]1N2	
InChI=1S/C6H10N2O/c1-6-3-7-4-9-2-5(6)8-6/h4-5,8H,2-3H2,1H3	InChI=1S/C6H10N2O/c1-6-3-7-4-9-2-5(6)8-6/h4-5,8H,2-3H2,1H3/t5-,6+/m1/s1
