15
gdb 130705	5.32437	1.05379	0.92424	3.7823	68.42	-0.2134	0.0264	0.2399	1210.6325	0.11472	-450.137841	-450.130122	-450.129178	-450.170648	28.415	
O	-0.06840245	 0.0544657234	-0.0776210275	-0.421389
C	 0.014582674	 1.2611137773	-0.026246819	 0.462892
N	-0.9286743996	 2.2304860509	-0.284869259	-0.301862
N	-0.4827157415	 3.5279348983	-0.0896014581	-0.285788
C	 0.7553326955	 3.3758608612	 0.2710650824	 0.468143
N	 1.1237343842	 2.0530361991	 0.3131755274	-0.414711
N	 1.64027651	 4.3776176703	 0.6455931014	-0.174693
C	 2.490483322	 4.9841556527	-0.4001010812	-0.236034
C	 1.347696664	 5.7327619439	 0.1862858418	-0.213201
H	-1.894909262	 2.0579531978	-0.4972825736	 0.279729
H	 2.0019917201	 1.6817276607	 0.6308850754	 0.279392
H	 3.5080940544	 5.1976830095	-0.0899914083	 0.132055
H	 2.376464581	 4.6095802093	-1.4136188328	 0.137538
H	 0.4620844249	 5.8625213214	-0.4269167277	 0.156275
H	 1.5281302531	 6.5066982343	 0.9249397788	 0.131655
58.4346	124.1877	192.3113	207.9496	332.8954	397.4749	471.5928	491.4809	544.4662	603.6302	721.7359	758.2213	766.2262	822.5113	884.196	907.6045	1000.6048	1024.8416	1042.2832	1102.4398	1116.7254	1140.1991	1177.3292	1183.6934	1215.6719	1266.8463	1325.7151	1387.2818	1487.7279	1498.2591	1513.4661	1645.6321	1860.5674	3119.6372	3132.2032	3211.0927	3228.0428	3690.5329	3700.5656
O=C1NN=C(N1)N1CC1	O=c1[nH]nc([nH]1)N1CC1	
InChI=1S/C4H6N4O/c9-4-5-3(6-7-4)8-1-2-8/h1-2H2,(H2,5,6,7,9)	InChI=1S/C4H6N4O/c9-4-5-3(6-7-4)8-1-2-8/h1-2H2,(H2,5,6,7,9)
