15
gdb 43316	2.66885	1.69383	1.21303	3.7536	78.27	-0.241	-0.0593	0.1817	1010.3494	0.112263	-383.472836	-383.465302	-383.464358	-383.504685	29.404	
O	 0.0027962873	-0.0120083563	-0.0579549542	-0.313049
C	-0.0295210957	 1.1912830576	-0.0107608857	 0.325255
C	-1.2297986546	 2.0655985494	 0.0976098299	-0.197429
C	-0.8756676429	 3.3563146591	 0.0407379385	-0.063812
C	 0.603860218	 3.536627001	-0.0399430186	-0.132858
C	 1.3591038418	 3.0229961385	 1.1613465813	-0.296604
C	 1.1837999303	 2.1318332536	-0.0749274201	 0.033577
C	 2.32550933	 1.7647226349	-0.8489839497	 0.19786
C	 3.2806618607	 1.4458362201	-1.5057344604	-0.390661
H	-2.2260853627	 1.6614772804	 0.216122467	 0.125645
H	-1.5533477964	 4.2005867774	 0.1000424975	 0.126258
H	 1.0328898801	 4.3330574133	-0.6350318482	 0.120119
H	 2.3658488385	 3.3892092967	 1.3286909147	 0.140732
H	 0.7933365394	 2.7782237921	 2.0536648952	 0.133237
H	 4.1212562962	 1.1560299923	-2.0858188273	 0.191731
116.4584	136.6289	205.0158	309.0089	381.9088	413.6751	476.8901	532.4567	589.0259	606.8016	653.2281	655.0817	726.7716	749.8612	831.6023	850.2394	877.1856	893.961	980.9099	988.4754	1035.5765	1049.3089	1080.1496	1101.7328	1129.8567	1235.1363	1259.1639	1356.7777	1373.8773	1476.8162	1635.1093	1823.4521	2243.116	3135.2672	3192.5627	3200.9518	3233.3367	3235.8699	3504.4273
O=C1C=CC2CC12C#C	O=C1C=C[C@H]2C[C@@]12C#C	
InChI=1S/C8H6O/c1-2-8-5-6(8)3-4-7(8)9/h1,3-4,6H,5H2	InChI=1S/C8H6O/c1-2-8-5-6(8)3-4-7(8)9/h1,3-4,6H,5H2/t6-,8+/m0/s1
