20
gdb 8270	5.67101	0.97946	0.90111	0.7913	81.26	-0.2557	0.0567	0.3124	1325.9314	0.175833	-311.833902	-311.825093	-311.824148	-311.867421	33.072	
C	 0.0139109887	 1.5970552641	 0.144744378	-0.406461
C	 0.0695874196	 0.0810205513	 0.0423200804	 0.058574
C	 1.104810984	-0.574900383	-0.9160982692	-0.260147
C	 1.333300133	-1.6812617487	 0.149126067	 0.053905
C	 2.7601852888	-2.1961680887	 0.3681185466	-0.375667
C	 2.8633998297	-3.1287615612	 1.4851134128	 0.304178
C	 2.9162116859	-3.894552554	 2.4104640215	-0.451728
C	 0.7035172106	-0.7342911306	 1.2055396291	-0.233868
H	 1.0045226006	 2.01263146	 0.3629316396	 0.109119
H	-0.3377514367	 2.0482180895	-0.7901154449	 0.112917
H	-0.6642669112	 1.9176896365	 0.9436977955	 0.114104
H	-0.9297412181	-0.3121912775	-0.1773256729	 0.071086
H	 0.7698239696	-0.8794948969	-1.9110883422	 0.094544
H	 1.9936941113	 0.0578520979	-1.0269843308	 0.092385
H	 0.6701180347	-2.5322183528	-0.0362674591	 0.081148
H	 3.119124613	-2.682302705	-0.5493159161	 0.126947
H	 3.4292531799	-1.3423108078	 0.5417074653	 0.121905
H	 2.9759539921	-4.5715704967	 3.225959787	 0.192647
H	 1.4747618695	-0.1504426229	 1.7216986314	 0.094725
H	 0.0399669849	-1.1701933835	 1.955634731	 0.099689
61.4832	87.7587	139.1887	222.4372	276.1322	343.014	350.6763	374.0673	407.0806	473.4418	615.8563	617.9476	634.9296	776.8047	812.8997	871.1694	895.1404	928.7441	944.7613	961.2885	978.4825	1053.2116	1075.8772	1132.005	1140.9746	1150.4751	1219.8815	1232.625	1258.0281	1266.7829	1277.3677	1298.9053	1330.4017	1366.7489	1390.6069	1411.9391	1468.9093	1477.3732	1494.4999	1496.2997	1504.4058	2236.3372	3008.6374	3021.1747	3032.118	3034.3061	3036.17	3042.5996	3059.5086	3088.7248	3089.1719	3096.9474	3107.8279	3507.7245
CC1CC(CC#C)C1	C[C@H]1C[C@@H](CC#C)C1	
InChI=1S/C8H12/c1-3-4-8-5-7(2)6-8/h1,7-8H,4-6H2,2H3	InChI=1S/C8H12/c1-3-4-8-5-7(2)6-8/h1,7-8H,4-6H2,2H3/t7-,8+
