17
gdb 79678	2.69222	1.51192	1.21635	2.8392	73.99	-0.242	-0.0259	0.2161	1057.0643	0.133776	-421.755017	-421.746685	-421.745741	-421.789141	30.643	
C	-0.0496708115	 1.6077167754	-0.0158449761	-0.405107
C	 0.1408505105	 0.094043715	 0.0589729649	-0.071344
C	 1.3707214714	-0.7080788365	-0.1967714284	-0.157623
C	 2.6633183085	-0.1554014639	 0.4657544237	 0.023007
O	 2.3778641699	 1.0853513346	 1.1216493175	-0.241309
C	 2.0482468441	-0.1395481709	 1.7873819982	-0.044586
C	 0.7095033891	-0.6975613208	 1.2324839592	 0.194462
C	 0.0200920566	-1.8283242686	 1.8442889122	 0.064316
O	 0.3121360387	-2.305385813	 2.919133109	-0.283336
H	 0.7286275959	 2.0834450691	-0.6134273116	 0.136299
H	-1.0177168457	 1.8288023811	-0.4759190102	 0.108891
H	-0.0305416262	 2.0686272734	 0.9723822417	 0.138046
H	-0.7202635372	-0.4522694963	-0.3271427891	 0.106366
H	 1.3841657327	-1.5631690674	-0.8613375756	 0.113644
H	 3.6801333678	-0.3444828805	 0.146565986	 0.121281
H	 2.4454081728	-0.3244390461	 2.7759388132	 0.132567
H	-0.8141238473	-2.2441773949	 1.2323317154	 0.064425
22.633	101.9415	182.7146	223.5011	246.4796	272.9726	422.9966	440.0528	544.8283	629.091	679.7857	733.0799	758.4452	828.0726	859.8475	881.0073	918.7677	947.8344	980.9467	1014.1368	1041.9819	1058.943	1069.5534	1096.4734	1118.3625	1188.9725	1220.2932	1249.9478	1316.0918	1317.067	1377.9981	1419.1223	1426.4655	1456.0214	1490.5138	1493.8342	1782.2997	2856.4762	3052.2208	3104.0184	3127.8285	3147.2569	3192.8812	3203.0949	3224.1202
CC1C2C3OC3C12C=O	C[C@H]1[C@H]2[C@H]3O[C@H]3[C@@]12C=O	
InChI=1S/C7H8O2/c1-3-4-5-6(9-5)7(3,4)2-8/h2-6H,1H3	InChI=1S/C7H8O2/c1-3-4-5-6(9-5)7(3,4)2-8/h2-6H,1H3/t3-,4-,5+,6+,7-/m0/s1
