19
gdb 75750	2.28362	1.5427	0.96901	2.752	79.3	-0.2402	-0.0243	0.2159	1224.0814	0.157013	-423.068439	-423.058921	-423.057977	-423.102639	35.005	
C	 0.0997765106	 1.5120744357	 0.0292580535	-0.493035
C	 0.0131409175	 0.0181958055	 0.0233552909	 0.20041
C	-1.0892215529	-0.7513161366	 0.0115099224	 0.196407
C	-2.5278885249	-0.3475587572	-0.0236449767	-0.501015
C	-0.7341669158	-2.2220229269	 0.0910599003	-0.024015
O	-1.4648413744	-3.0565145317	-0.7778311034	-0.442857
C	 0.7566562069	-2.2009781392	-0.2571976683	 0.358713
O	 1.3218988584	-3.1186102347	-0.7966786794	-0.318733
C	 1.2878474382	-0.806413803	 0.0386419991	-0.411503
H	 0.610792688	 1.8723160677	 0.9316548973	 0.128589
H	 0.6890841443	 1.8714465926	-0.824141082	 0.130262
H	-0.8817235447	 1.9887546155	-0.012745496	 0.129029
H	-3.0393457908	-0.8724948003	-0.8375187936	 0.151433
H	-3.0392037492	-0.6371367651	 0.9037799951	 0.128389
H	-2.661832007	 0.727139648	-0.1633569545	 0.121363
H	-0.8461549441	-2.5788635053	 1.1343485098	 0.089681
H	-0.8197694384	-3.6773164187	-1.1465040428	 0.293021
H	 2.0339275623	-0.5001667598	-0.7039609644	 0.131381
H	 1.7932968259	-0.7889709066	 1.0158772127	 0.13248
70.8936	136.344	147.623	169.6062	226.1782	265.2816	288.2715	311.109	356.6137	404.4224	465.9095	531.3403	576.5561	601.6195	656.2743	787.0769	801.6183	911.0201	932.6015	990.8787	1037.4897	1058.9877	1079.958	1098.732	1142.927	1187.5058	1206.8736	1229.4809	1253.7786	1321.7273	1340.6633	1401.1347	1416.1265	1420.8096	1454.8081	1474.2505	1480.5383	1485.4481	1492.7919	1727.1131	1847.0436	2900.6664	3003.637	3018.0857	3024.3969	3060.3673	3060.9705	3080.9839	3121.731	3129.1066	3731.439
CC1=C(C)C(O)C(=O)C1	CC1=C(C)[C@@H](O)C(=O)C1	
InChI=1S/C7H10O2/c1-4-3-6(8)7(9)5(4)2/h7,9H,3H2,1-2H3	InChI=1S/C7H10O2/c1-4-3-6(8)7(9)5(4)2/h7,9H,3H2,1-2H3/t7-/m1/s1
