19
gdb 47109	2.54948	1.76218	1.25887	4.3043	73.44	-0.2607	0.0141	0.2749	1030.8816	0.162845	-423.095122	-423.087711	-423.086766	-423.127895	28.593	
O	-0.0806560998	 0.0950186134	 0.5726286012	-0.347818
C	-0.0391546025	 1.2721185474	 0.3548950102	 0.433136
O	-1.1351740786	 2.0659441693	 0.4590066603	-0.215761
C	-0.8430936073	 3.4302883388	 0.1242256064	-0.096573
C	 0.6920247344	 3.5694978043	 0.0028108379	-0.039839
C	 1.4009365342	 4.2091590192	 1.2270080082	-0.216986
C	 1.8958002983	 3.0258037787	 2.0801595141	-0.211658
C	 2.2932715181	 1.9749583865	 1.0314429692	-0.210549
C	 1.184536985	 2.1011483066	-0.034191441	-0.166184
H	-1.3537899035	 3.6630961516	-0.8161900877	 0.116402
H	-1.2660824147	 4.0617736747	 0.9110101078	 0.119473
H	 0.9331700173	 4.1175306567	-0.9096194577	 0.08436
H	 2.260045771	 4.7937133807	 0.8797378472	 0.10367
H	 0.7495460502	 4.8960259719	 1.7760723362	 0.099419
H	 2.7158651655	 3.2979462976	 2.7495015453	 0.10145
H	 1.0816738079	 2.638419772	 2.7049015361	 0.115616
H	 3.261845764	 2.2296477159	 0.5875454834	 0.098849
H	 2.3572002145	 0.9568261687	 1.4222437678	 0.12761
H	 1.5157086061	 1.7620143359	-1.018963175	 0.105384
38.7138	128.9674	174.9482	290.929	374.7472	487.414	543.683	562.9694	667.9288	714.649	745.4961	787.7024	851.3809	875.5614	895.7318	911.8511	942.6249	978.4862	997.7472	1033.1214	1054.6979	1087.1939	1116.9337	1154.5985	1178.4219	1196.2122	1198.9993	1244.7756	1268.9832	1283.3758	1305.0338	1328.0395	1332.9427	1352.5028	1361.5473	1409.1215	1485.4409	1491.233	1505.1809	1525.7206	1870.3575	3035.98	3040.8705	3041.9108	3047.4503	3077.4396	3083.3088	3087.0642	3095.691	3101.9673	3113.1131
O=C1OCC2CCCC12	O=C1OC[C@H]2CCC[C@@H]12	
InChI=1S/C7H10O2/c8-7-6-3-1-2-5(6)4-9-7/h5-6H,1-4H2	InChI=1S/C7H10O2/c8-7-6-3-1-2-5(6)4-9-7/h5-6H,1-4H2/t5-,6-/m1/s1
