23
gdb 106771	1.99528	1.56074	1.11362	0.9938	86.11	-0.2376	0.0806	0.3182	1239.591	0.20444	-388.270557	-388.260702	-388.259758	-388.304754	38.032	
C	 0.3634296397	-1.4954232189	 1.096507406	-0.39736
C	-0.0376166429	-0.4998728885	 0.0004083164	-0.28928
C	 0.6729747045	-0.6762948624	-1.319163526	 0.305221
C	 2.1187243818	-1.1214482779	-1.4580939913	-0.405074
C	 1.0329559512	-1.9109954997	-2.1385361989	 0.358345
O	 0.7727622936	-3.2394089058	-1.8312601021	-0.46442
C	 0.6185520338	-1.2313821811	-3.4426703062	-0.306653
C	 0.2916726919	 0.0665508713	-2.6242082909	-0.020038
C	-1.1566015269	 0.5268150616	-2.7381111678	-0.415034
H	 0.2557059942	-2.5264823826	 0.7486898241	 0.139075
H	 1.4020146178	-1.3518580742	 1.4110582991	 0.113649
H	-0.2672327459	-1.3630359286	 1.9808853424	 0.107539
H	-1.1186177681	-0.5790906337	-0.1700481438	 0.101102
H	 0.1323906197	 0.5248245032	 0.3612295055	 0.095424
H	 2.8323879363	-0.5301677006	-2.0307131506	 0.094056
H	 2.5353700156	-1.6056228799	-0.5809721992	 0.108993
H	 1.5391682794	-3.7660820191	-2.0839164812	 0.283003
H	 1.379138795	-1.15843817	-4.2284792778	 0.083759
H	-0.2883893466	-1.6738972592	-3.8636632588	 0.102696
H	 0.9623478512	 0.9059685701	-2.8466811048	 0.060275
H	-1.8532231501	-0.2929975408	-2.5301111919	 0.118374
H	-1.3791010423	 1.3406641161	-2.039542237	 0.114021
H	-1.3645666431	 0.889654161	-3.7506222653	 0.112326
76.6898	122.933	150.4309	205.9199	245.6826	253.4006	275.645	315.0962	369.804	401.9322	442.551	447.5608	518.3327	597.4465	689.0067	717.2859	799.8919	821.7934	852.1104	903.2613	930.241	966.1114	988.1388	1019.408	1047.3234	1068.8647	1073.4724	1094.5529	1136.7256	1173.7713	1192.5026	1216.7427	1234.4341	1250.0978	1292.4346	1304.4518	1319.1952	1365.5114	1382.7813	1406.5526	1409.3671	1415.2815	1479.1251	1487.3058	1496.9272	1500.1105	1502.6588	1511.9822	1517.4535	3002.1165	3018.1576	3025.0963	3034.169	3038.9285	3040.8629	3088.9557	3092.2288	3093.9099	3099.8224	3103.7829	3121.5278	3199.1498	3789.7262
CCC12CC1(O)CC2C	CC[C@@]12C[C@]1(O)C[C@H]2C	
InChI=1S/C8H14O/c1-3-7-5-8(7,9)4-6(7)2/h6,9H,3-5H2,1-2H3	InChI=1S/C8H14O/c1-3-7-5-8(7,9)4-6(7)2/h6,9H,3-5H2,1-2H3/t6-,7+,8-/m1/s1
