19
gdb 106672	2.62592	1.25537	1.00815	2.2732	72.24	-0.2277	0.0548	0.2825	1235.0171	0.156793	-460.112887	-460.10343	-460.102486	-460.147177	35.278	
C	-0.0831717985	 1.4747354525	-0.1128423359	-0.412103
C	 0.1507172692	-0.0131579898	 0.0330112863	 0.089741
O	 1.2419516167	-0.5312994126	-0.7902698418	-0.353331
C	 1.8214771642	-1.2146147052	 0.3372104614	 0.360243
C	 2.4165946091	-2.5588485874	 0.0795813422	-0.175019
O	 3.6165723884	-2.4859220448	-0.678050511	-0.410983
C	 2.2516040125	-0.1945302231	 1.3629212095	-0.368419
C	 0.8063069002	-0.5995734394	 1.2870618447	 0.233861
O	 0.1445248282	-1.0458400683	 2.4107736695	-0.446253
H	 0.8082169142	 2.0469448345	 0.1562757408	 0.126584
H	-0.3507347414	 1.7201963005	-1.145358806	 0.129014
H	-0.9080336971	 1.7871585478	 0.5363090226	 0.12476
H	-0.7674334764	-0.569736284	-0.2113100251	 0.071395
H	 2.6779035756	-3.0322936579	 1.0311967005	 0.117397
H	 1.6725106233	-3.1961085537	-0.423662388	 0.090792
H	 3.4029832249	-2.0255386322	-1.4970897669	 0.29314
H	 2.7591471675	-0.6161189386	 2.2254278325	 0.126585
H	 2.5970728381	 0.7879603143	 1.0540276236	 0.114499
H	-0.5328562487	-1.675659093	 2.1379946911	 0.288097
59.6372	108.4171	171.3432	194.0669	220.1065	292.446	310.9793	350.3519	363.9146	389.3417	458.5688	483.9009	579.9661	654.9863	733.9739	781.7874	868.6854	874.6162	919.8962	937.5539	979.622	1042.1141	1051.6304	1067.5473	1086.273	1118.2008	1129.1444	1177.0907	1240.5423	1266.1859	1332.2739	1340.058	1376.3188	1385.8243	1402.1861	1419.5604	1434.0948	1483.4166	1488.4209	1493.293	1511.8736	2980.8075	2983.87	3040.4073	3082.8737	3108.6552	3116.5222	3124.5239	3210.7859	3786.471	3809.0278
CC1OC2(CO)CC12O	C[C@H]1O[C@@]2(CO)C[C@@]12O	
InChI=1S/C6H10O3/c1-4-6(8)2-5(6,3-7)9-4/h4,7-8H,2-3H2,1H3	InChI=1S/C6H10O3/c1-4-6(8)2-5(6,3-7)9-4/h4,7-8H,2-3H2,1H3/t4-,5-,6-/m1/s1
