16
gdb 9057	5.05243	0.90273	0.79919	1.2488	73.12	-0.2581	0.0268	0.2849	1369.455	0.126788	-346.530817	-346.521513	-346.520569	-346.565041	33.382	
O	-0.0822718662	 1.4273042516	-0.0030480924	-0.417026
C	 0.0194290796	 0.004273606	 0.0164197602	-0.059562
C	 0.6910221888	-0.5412988326	-1.2580657812	-0.187617
C	-0.0531049086	-0.092439931	-2.5300554683	-0.35852
C	 0.5909163638	-0.558818089	-3.7507308969	 0.284557
C	 1.1428242721	-0.9546994183	-4.7424941094	-0.43292
C	 0.7078094351	-0.4720188056	 1.218732868	 0.28279
C	 1.3133765419	-0.8394756589	 2.1900350944	-0.425583
H	 0.792725369	 1.7823306688	 0.1909018762	 0.287514
H	-1.0213518505	-0.3441924951	 0.0404740713	 0.119778
H	 1.7295178656	-0.1931734219	-1.2922515401	 0.112981
H	 0.7251649372	-1.6341670958	-1.2054897866	 0.123051
H	-1.0872489765	-0.4610363171	-2.4968884517	 0.128949
H	-0.1208722741	 1.0009083865	-2.5320820472	 0.146834
H	 1.6194924153	-1.2984800226	-5.6266092731	 0.193119
H	 1.8306398376	-1.169168315	 3.057282557	 0.201655
65.7241	92.4631	106.8996	188.2485	218.7526	272.3405	303.1009	347.7181	433.788	454.3572	569.4417	579.6788	615.255	633.333	636.2833	674.5514	771.6794	871.5605	952.8725	992.3916	1035.4755	1078.1041	1084.4068	1174.0188	1255.4316	1272.9991	1319.6104	1343.945	1379.4647	1418.5396	1473.6109	1488.5236	2233.5177	2239.6716	3020.4224	3027.7332	3048.9692	3068.3332	3097.8583	3502.3694	3507.7126	3802.3829
OC(CCC#C)C#C	O[C@@H](CCC#C)C#C	
InChI=1S/C7H8O/c1-3-5-6-7(8)4-2/h1-2,7-8H,5-6H2	InChI=1S/C7H8O/c1-3-5-6-7(8)4-2/h1-2,7-8H,5-6H2/t7-/m1/s1
