17
gdb 41710	3.95885	1.51203	1.27197	1.1785	72.36	-0.2129	0.0097	0.2225	989.6634	0.137744	-421.806075	-421.799321	-421.798377	-421.837005	27.277	
C	 0.1856427172	 1.3176904705	-0.2827435642	 0.00222
O	 1.2973141209	 1.9002247543	 0.3888081888	-0.270992
C	 1.9304968155	 0.8750566824	 1.115502388	 0.031189
C	 2.3994453131	-0.3287915548	 0.3187008968	-0.195515
C	 3.1929749455	-1.4158533971	 1.0480226863	-0.295589
C	 2.2234455758	-1.969621422	 2.0786371388	-0.076383
C	 1.0275903536	-1.378059761	 2.0268921055	-0.18327
C	 1.0223713169	-0.3081752589	 1.0088029715	 0.419963
O	-0.1505651914	 0.1093135782	 0.3738878022	-0.30321
H	-0.6670769034	 2.0027577085	-0.2402487303	 0.121772
H	 0.4521391328	 1.1125645283	-1.3319573867	 0.09806
H	 2.4061612039	 1.2258694926	 2.0252567804	 0.108469
H	 2.5174714984	-0.2104756922	-0.7521647634	 0.099969
H	 3.5335560294	-2.1961166825	 0.3554290304	 0.116133
H	 4.0975954218	-1.0168820354	 1.5263538411	 0.116798
H	 2.5125936419	-2.7295673246	 2.7948036721	 0.101711
H	 0.172870928	-1.5832215864	 2.6588941726	 0.108674
167.047	206.936	249.0609	319.9879	377.3093	477.9089	509.3887	696.0638	716.9208	733.5116	758.2489	808.5521	889.3096	910.1043	925.5968	943.1515	955.6619	979.5121	1017.7227	1033.7009	1044.9185	1070.5806	1119.0985	1128.7911	1155.9168	1182.9873	1217.2664	1230.5503	1264.7803	1268.8667	1308.8767	1394.2241	1395.9505	1439.4875	1475.7014	1547.6285	1667.482	2969.459	3016.7518	3042.8343	3073.9163	3167.1909	3178.8575	3199.4615	3225.1508
C1OC2C3CC=CC23O1	C1O[C@@H]2[C@H]3CC=C[C@@]23O1	
InChI=1S/C7H8O2/c1-2-5-6-7(5,3-1)9-4-8-6/h1,3,5-6H,2,4H2	InChI=1S/C7H8O2/c1-2-5-6-7(5,3-1)9-4-8-6/h1,3,5-6H,2,4H2/t5-,6-,7+/m1/s1
