17
gdb 119815	5.79575	0.83023	0.73619	3.4867	71.58	-0.244	0.0033	0.2473	1509.6638	0.136214	-455.206455	-455.197739	-455.196795	-455.240653	31.278	
C	-0.1261353289	 1.5081074749	 0.0124111917	-0.393357
C	 0.004828767	-0.001350199	 0.0036028202	-0.043183
O	-1.3312063436	-0.5530183523	 0.0104024491	-0.271796
C	-1.4011905779	-1.8781448861	 0.0048643478	 0.515063
N	-0.4360101239	-2.7145776911	-0.0057209801	-0.364977
C	-1.068563267	-4.034996554	-0.0071562749	-0.301397
C	-2.5893313312	-3.801383537	 0.004387696	 0.407809
O	-3.5008283651	-4.5883743615	 0.007528783	-0.355972
N	-2.6852390095	-2.413210894	 0.0115176218	-0.407121
H	 0.8689938935	 1.9622743924	 0.0073619802	 0.128145
H	-0.6696544526	 1.8593055108	-0.8690737723	 0.132048
H	-0.6564694454	 1.8501185082	 0.9054621833	 0.132046
H	 0.5281370342	-0.3677579356	-0.8848255371	 0.129847
H	 0.5409448814	-0.3770037664	 0.8804457147	 0.129892
H	-0.7864525987	-4.6165621946	-0.892338593	 0.145162
H	-0.7742277331	-4.6243458995	 0.8688516887	 0.145185
H	-3.5436868092	-1.8871247452	 0.020059671	 0.272605
51.5141	86.6922	144.8147	172.3503	249.6346	291.5205	345.9162	383.2094	472.4467	526.6745	561.4135	676.0211	738.8406	742.7094	809.1677	882.5639	896.0533	985.4176	990.2318	1053.0305	1094.0411	1140.3681	1182.5171	1185.5719	1205.2738	1281.7016	1290.3817	1292.3008	1385.351	1416.3555	1453.0924	1483.2314	1485.2241	1497.6384	1523.3089	1717.7332	1862.0198	3044.6294	3048.0823	3056.0139	3077.027	3095.1225	3123.5474	3128.9292	3661.131
CCOC1=NCC(=O)N1	CCOC1=NCC(=O)N1	
InChI=1S/C5H8N2O2/c1-2-9-5-6-3-4(8)7-5/h2-3H2,1H3,(H,6,7,8)	InChI=1S/C5H8N2O2/c1-2-9-5-6-3-4(8)7-5/h2-3H2,1H3,(H,6,7,8)
