15
gdb 27071	3.2427	1.41178	1.00063	1.5042	72.43	-0.1777	0.0158	0.1934	1111.5489	0.115241	-450.159038	-450.151246	-450.150302	-450.191627	29.421	
N	-0.6231180777	 0.6684120441	-1.125085949	-0.604472
C	-0.2663934334	-0.3832899715	-0.3145540501	 0.31083
C	-0.9309699653	-1.2631292191	 0.4967360732	 0.246955
N	-2.2911107933	-1.4644763317	 0.7653750216	-0.380011
C	-3.3623035055	-1.1143714726	 0.0094272023	 0.084422
N	-3.2807067009	-0.475833446	-1.1011057557	-0.48456
N	-0.0104175368	-2.0492665109	 1.1739860985	-0.312226
C	 1.137966642	-1.6440890662	 0.7519729958	 0.058731
O	 1.0683985586	-0.636852475	-0.1600305326	-0.173611
H	 0.0007754611	 0.7768823865	-1.915707875	 0.246665
H	-1.6019548581	 0.5498488796	-1.4080850782	 0.273021
H	-2.4584938909	-2.0300079051	 1.5817299743	 0.263533
H	-4.302429851	-1.4379197886	 0.4681203888	 0.098316
H	-4.206430914	-0.3098400358	-1.4834992094	 0.224906
H	 2.1211786951	-1.9926448377	 1.0199054154	 0.1475
54.2041	202.4028	227.9965	275.008	309.8656	376.1098	388.6788	458.5473	478.2916	595.1248	647.6921	704.8157	735.4266	756.6391	775.4261	829.2381	867.4182	955.3914	1019.5304	1049.279	1129.4553	1147.4568	1187.5662	1273.3155	1290.5341	1344.5529	1408.1728	1444.5351	1548.5717	1587.927	1622.4002	1705.7745	1723.6702	3068.4241	3290.9077	3337.9039	3536.822	3579.5134	3650.1597
NC1=C(NC=N)N=CO1	Nc1c(NC=N)nco1	
InChI=1S/C4H6N4O/c5-1-7-4-3(6)9-2-8-4/h1-2H,6H2,(H2,5,7)	InChI=1S/C4H6N4O/c5-1-7-4-3(6)9-2-8-4/h1-2H,6H2,(H2,5,7)
