19
gdb 91240	3.51232	1.17389	1.02282	4.4071	74.55	-0.2671	0.0121	0.2792	1209.657	0.160844	-423.0754	-423.067496	-423.066552	-423.108135	30.395	
C	-0.386636964	 1.5051268707	 0.0716794264	-0.406044
C	 0.1018827993	 0.0603464612	 0.002773205	 0.049673
C	 1.1259905609	-0.2185886961	-1.1226748198	-0.250764
C	 1.8143210679	-1.5211879377	-0.7047208563	 0.117095
O	 3.2699517935	-1.4006552283	-0.5015875492	-0.258984
C	 3.1409808972	-1.5584269894	 0.8576371844	 0.447781
O	 4.0084112699	-1.5688845949	 1.670524621	-0.327374
C	 1.6149028032	-1.6731829816	 0.8210488596	-0.225091
C	 0.8139619107	-0.4361383671	 1.2847540045	-0.247907
H	 0.4503531148	 2.1919303621	 0.2424485766	 0.120313
H	-0.8796210145	 1.8033374622	-0.8593182011	 0.117946
H	-1.1045769133	 1.6431328143	 0.8867133871	 0.118341
H	-0.7654443366	-0.5932025613	-0.1682579646	 0.078637
H	 0.6604290723	-0.2791039208	-2.109827434	 0.106912
H	 1.8776543386	 0.5782108631	-1.1604054637	 0.121561
H	 1.6091512279	-2.3831822979	-1.340390607	 0.098399
H	 1.2284568421	-2.6230779362	 1.191048039	 0.108902
H	 1.4883388063	 0.3403463144	 1.6640782129	 0.11903
H	 0.1123888538	-0.6693546767	 2.0890694892	 0.111573
81.2694	110.9605	207.4739	243.4337	296.1788	386.9831	403.5176	457.8344	532.3604	662.8795	712.746	755.7866	823.0272	845.3742	854.6032	896.4946	917.4348	939.0371	967.2551	1030.1926	1054.0014	1079.5491	1120.4381	1122.9763	1142.4396	1164.6839	1200.8113	1246.8076	1271.2116	1280.022	1306.9156	1319.6561	1350.0256	1361.0369	1381.6749	1412.6322	1484.1052	1496.5062	1497.3368	1504.6451	1933.8462	3000.7414	3028.5375	3043.7135	3049.145	3094.1977	3095.3334	3100.6097	3101.6356	3110.6783	3121.4781
CC1CC2OC(=O)C2C1	C[C@H]1C[C@H]2OC(=O)[C@H]2C1	
InChI=1S/C7H10O2/c1-4-2-5-6(3-4)9-7(5)8/h4-6H,2-3H2,1H3	InChI=1S/C7H10O2/c1-4-2-5-6(3-4)9-7(5)8/h4-6H,2-3H2,1H3/t4-,5+,6-/m1/s1
