22
gdb 115627	2.7176	1.10942	0.97126	1.2227	83.02	-0.2245	0.0785	0.303	1338.3809	0.193059	-404.299637	-404.28985	-404.288906	-404.334566	36.282	
C	-0.1395883839	 1.2773293151	-0.266455964	-0.31521
N	 0.2432492353	-0.1186549678	-0.1111447065	-0.128663
C	 1.6738266146	-0.396204914	 0.0279411412	-0.319855
C	 0.7534374963	-0.539001354	 1.1842163426	 0.369582
C	 0.8054928576	 0.2456796973	 2.506587961	-0.310618
C	 0.6558201625	-1.1129622957	 3.2559579677	-0.222976
C	 0.3258682803	-1.8245817526	 1.9084100748	-0.078131
C	-1.140255851	-2.1727028409	 1.7173274542	-0.076369
O	-1.4536532216	-3.2361092993	 2.6072573923	-0.42544
H	 0.493711681	 1.979564945	 0.2997139747	 0.101724
H	-0.0848607106	 1.5477664111	-1.3257628187	 0.122449
H	-1.1754058843	 1.4104804424	 0.0631689725	 0.119488
H	 2.0424683714	-1.2701629152	-0.5044318644	 0.111597
H	 2.3580351153	 0.452665447	 0.0404308641	 0.10166
H	 1.7120331315	 0.8214404313	 2.708187742	 0.101336
H	-0.0563773675	 0.906535223	 2.6442014692	 0.10391
H	 1.592017401	-1.4570575961	 3.6999865466	 0.102873
H	-0.1284599351	-1.1680547352	 4.0130103713	 0.109067
H	 0.9307038596	-2.7103938478	 1.6924715829	 0.07437
H	-1.7633943167	-1.286011249	 1.9230033845	 0.075594
H	-1.3145990106	-2.4535369883	 0.6685832172	 0.098889
H	-2.3781392054	-3.4686160563	 2.4817532646	 0.284726
59.4465	98.1276	111.0315	188.9133	214.5201	225.0905	259.633	293.3748	366.9688	423.5339	466.3993	515.8931	569.4648	741.131	783.9744	829.5947	868.7636	908.8034	918.4443	927.8632	962.8144	1040.4293	1066.5916	1069.2015	1101.2696	1110.8766	1136.0695	1156.0417	1163.4598	1185.6227	1202.4169	1223.5042	1233.1105	1246.6004	1265.0551	1274.9535	1283.6089	1351.2542	1409.9458	1447.8741	1456.8114	1477.3322	1491.2581	1494.6395	1497.3335	1512.2778	1520.2992	2959.9327	2970.543	3011.2574	3049.1038	3061.9805	3064.4214	3076.5155	3078.2812	3096.5728	3098.9607	3129.5954	3165.258	3829.0276
CN1CC11CCC1CO	CN1C[C@]21CC[C@H]2CO	
InChI=1S/C7H13NO/c1-8-5-7(8)3-2-6(7)4-9/h6,9H,2-5H2,1H3	InChI=1S/C7H13NO/c1-8-5-7(8)3-2-6(7)4-9/h6,9H,2-5H2,1H3/t6-,7+,8?/m0/s1
