21
gdb 72471	2.58335	1.79561	1.44189	1.4272	82.52	-0.2342	0.0225	0.2566	1012.4887	0.185104	-387.116319	-387.108725	-387.10778	-387.147715	31.537	
C	-0.0577837509	 1.5046070794	-0.0053334643	-0.483905
C	 0.0028829715	-0.0197998178	-0.0052065188	 0.238878
C	 0.8414440966	-0.6047934215	-1.1664340641	-0.076712
O	 1.2388499769	-1.9091098136	-0.7396374034	-0.280776
C	 0.9027566577	-2.0741428671	 0.6477332048	 0.091532
C	 0.7774701499	-0.6431230325	 1.1766191815	-0.259468
C	-0.4406918086	-2.8130651536	 0.7651535463	-0.256985
C	-1.5766175191	-1.920933362	 0.328624888	-0.068134
C	-1.3811719196	-0.6518068625	-0.0301839011	-0.081329
H	 0.9457751266	 1.9404087971	 0.0372134992	 0.113742
H	-0.5501487634	 1.8812218803	-0.9093625127	 0.116052
H	-0.6234932843	 1.8749382076	 0.8559040755	 0.120038
H	 0.273168284	-0.6891974466	-2.0993336918	 0.098879
H	 1.731439559	 0.0155245344	-1.3556966044	 0.083229
H	 1.705897022	-2.6516812302	 1.115245432	 0.071318
H	 1.7631671638	-0.1794136337	 1.2909860851	 0.094751
H	 0.2385884016	-0.5742406972	 2.124587704	 0.100503
H	-0.3992938419	-3.7113588161	 0.1364327591	 0.115194
H	-0.5986892056	-3.1666354433	 1.7950289394	 0.097822
H	-2.5750694857	-2.35088348	 0.3067345472	 0.086305
H	-2.2108213704	-0.034305891	-0.3660564516	 0.079065
162.2044	229.7106	261.1322	279.1336	321.8207	372.8075	425.4646	478.3013	505.3084	581.0131	667.4192	724.0179	783.3803	823.1745	876.413	896.8123	898.6866	923.6316	960.1095	980.6055	991.9541	1010.4699	1017.8748	1041.1957	1076.1598	1125.3631	1166.6343	1186.4043	1195.1839	1218.774	1226.8482	1291.9556	1297.6417	1327.1261	1336.9152	1368.7235	1389.1329	1408.8961	1422.224	1461.1615	1487.6209	1494.3683	1499.0146	1522.6388	1707.6448	2977.9256	2999.7723	3026.6978	3043.7769	3046.0579	3058.0257	3065.4839	3091.6351	3101.154	3108.4323	3142.7208	3166.7112
CC12COC(C1)CC=C2	C[C@@]12CO[C@@H](C1)CC=C2	
InChI=1S/C8H12O/c1-8-4-2-3-7(5-8)9-6-8/h2,4,7H,3,5-6H2,1H3	InChI=1S/C8H12O/c1-8-4-2-3-7(5-8)9-6-8/h2,4,7H,3,5-6H2,1H3/t7-,8+/m1/s1
