16
gdb 29081	3.09987	1.41828	0.97901	5.3788	78.64	-0.1952	-0.0255	0.1697	1157.8485	0.126589	-434.134834	-434.126761	-434.125817	-434.167373	30.711	
C	-0.2711685915	 1.520109207	 0.0746783316	-0.492747
C	-0.0022899012	 0.0553972312	-0.055518331	 0.338273
C	 0.065827479	-0.623005668	-1.2113242844	-0.10885
N	 0.3208206867	-1.9843936869	-1.2241889955	-0.363593
C	 0.5232582929	-2.7523008122	-0.0946248023	 0.276148
N	 0.7544336294	-4.0031678248	-0.1742115453	-0.526339
C	 0.4511464971	-2.008846031	 1.2235171847	 0.369546
O	 0.6131326405	-2.5811570021	 2.2838940038	-0.371021
N	 0.1938339465	-0.6640642698	 1.1329858222	-0.424191
H	 0.5558885344	 2.0405056527	 0.574518631	 0.135754
H	-0.404366296	 1.9718525455	-0.910367757	 0.140805
H	-1.1792391283	 1.7145782155	 0.6597281008	 0.135824
H	-0.0726924289	-0.1478249067	-2.1708942118	 0.130693
H	 0.3698793815	-2.4829101936	-2.099783618	 0.262447
H	 0.8703580397	-4.3605557466	 0.7753626678	 0.23979
H	 0.1484508783	-0.1802340902	 2.0192630734	 0.257461
95.7547	151.0955	182.4279	288.2025	292.9476	347.827	410.464	463.3356	528.1346	542.3745	591.0984	602.1588	653.2121	682.4411	784.3633	799.2197	803.1525	885.7614	996.9886	1024.6792	1069.5854	1090.9469	1210.6324	1227.8137	1286.1463	1369.3562	1423.4305	1440.1992	1457.5979	1473.4466	1479.2312	1502.316	1716.0725	1744.8678	1791.1961	3015.2689	3059.9803	3128.5967	3245.0776	3480.8638	3602.0167	3625.9523
CC1=CNC(=N)C(=O)N1	CC1=CN[C]([NH])C(=O)N1	
InChI=1S/C5H7N3O/c1-3-2-7-4(6)5(9)8-3/h2H,1H3,(H2,6,7)(H,8,9)	InChI=1S/C5H7N3O/c1-3-2-7-4(6)5(9)8-3/h2H,1H3,(H2,6,7)(H,8,9)
