19
gdb 56290	7.19217	0.52781	0.49793	3.3241	79.89	-0.248	-0.0135	0.2345	2146.8027	0.154123	-422.999158	-422.988207	-422.987262	-423.037406	36.913	
C	 0.0797147076	 1.4669008975	-0.0213830461	-0.483402
C	 0.0184125629	-0.0475704793	 0.0860401646	 0.35886
O	-0.0117816293	-0.6284352088	 1.1405768502	-0.268254
C	 0.0034911323	-0.7841848735	-1.2524169687	-0.157118
O	 0.0486049863	-2.163466996	-1.049800647	-0.222072
C	 0.0175357479	-2.9069450079	-2.2483289121	-0.048309
C	 0.080015053	-4.3898411807	-1.8678058108	-0.349524
C	 0.0539908504	-5.2575072116	-3.0371331941	 0.285781
C	 0.030986423	-5.9479502875	-4.0204736048	-0.448218
H	 1.0682189573	 1.7737669673	-0.3830638849	 0.145333
H	-0.6566612866	 1.8474706398	-0.7372162056	 0.135035
H	-0.0925317354	 1.908944351	 0.9604302241	 0.148817
H	-0.9081157261	-0.4788442878	-1.7998025151	 0.108098
H	 0.8553994846	-0.4283142873	-1.8609801509	 0.105257
H	-0.903336259	-2.7002206364	-2.8165907759	 0.101351
H	 0.8695218203	-2.6463949002	-2.8964315371	 0.100843
H	 0.9911016103	-4.5619227425	-1.2830611888	 0.144861
H	-0.7625645821	-4.6158628279	-1.203969577	 0.145768
H	 0.0113287823	-6.5721107882	-4.87912119	 0.196892
35.0118	39.9892	75.9129	82.0479	125.7953	139.448	160.9081	289.2546	320.8761	354.4706	456.7608	479.2134	512.2106	614.7308	623.2205	650.3138	797.8226	833.8797	866.1878	938.6996	971.5871	1049.9214	1083.9999	1088.3394	1100.5807	1173.8533	1205.3037	1226.5153	1262.2771	1300.6566	1305.4736	1378.7597	1387.7127	1433.0417	1463.359	1475.9799	1476.5903	1488.0423	1528.8471	1837.1808	2242.3995	2933.7496	2954.0745	2971.9552	3002.9072	3036.9485	3038.9974	3076.6229	3097.9799	3154.2881	3507.5348
CC(=O)COCCC#C	CC(=O)COCCC#C	
InChI=1S/C7H10O2/c1-3-4-5-9-6-7(2)8/h1H,4-6H2,2H3	InChI=1S/C7H10O2/c1-3-4-5-9-6-7(2)8/h1H,4-6H2,2H3
