20
gdb 69779	3.25186	1.43392	1.1794	2.688	77.65	-0.2333	0.0676	0.3009	1113.7655	0.171076	-403.129867	-403.121625	-403.120681	-403.162025	32.875	
C	 0.0088187287	 1.5326292942	 0.0216416499	-0.459288
C	-0.0161504572	 0.0256733452	 0.0931923232	 0.326779
C	-1.3334926253	-0.6971245958	-0.2286538482	-0.365494
C	-1.3384348916	-1.9936300526	 0.5836417038	 0.406284
C	-2.637426662	-2.6649111056	 0.9374900434	-0.478437
O	-0.2529198925	-2.8830927423	 0.2445272458	-0.299463
C	-0.1066278408	-2.0282690075	 1.3936186785	-0.039514
C	 0.718163004	-0.7858629355	 1.1166603274	-0.101362
N	 1.2428408789	-0.6503132191	-0.2495597439	-0.371195
H	 0.997299466	 1.9063764797	 0.2993034601	 0.13
H	-0.2042707867	 1.8792109021	-0.9964533732	 0.119331
H	-0.7373954853	 1.9761656218	 0.6903382973	 0.10973
H	-2.1800841854	-0.0744053058	 0.0836448813	 0.105532
H	-1.4552731659	-0.8904569197	-1.3010452747	 0.114877
H	-3.1761677929	-2.9705686686	 0.0337253435	 0.129611
H	-2.4525765813	-3.557749815	 1.5399412285	 0.131668
H	-3.2861751898	-1.9867297462	 1.501508361	 0.123104
H	-0.0282736088	-2.5414747109	 2.3479922931	 0.093767
H	 1.3186245114	-0.3622819497	 1.9155367215	 0.083764
H	 1.0587576663	-1.5242135985	-0.7414157984	 0.240306
165.2463	180.1073	197.1532	233.3851	264.1085	337.0598	386.1393	394.5393	425.3705	558.1576	572.598	692.8391	730.6	743.5812	818.0884	838.5911	884.6584	912.6153	937.0779	945.002	1017.6556	1021.4567	1049.3353	1067.5906	1088.6333	1118.0739	1145.5987	1190.1967	1211.5462	1232.6804	1269.4811	1293.0603	1323.6498	1338.6368	1397.2167	1411.0321	1430.1075	1449.1651	1472.2238	1485.5843	1486.3616	1494.7825	1497.8149	3026.576	3033.006	3037.7424	3073.0249	3086.2348	3097.8907	3122.513	3123.7581	3150.0625	3164.2826	3469.797
CC12CC3(C)OC3C1N2	C[C@]12C[C@@]3(C)O[C@H]3[C@H]1N2	
InChI=1S/C7H11NO/c1-6-3-7(2)5(9-7)4(6)8-6/h4-5,8H,3H2,1-2H3	InChI=1S/C7H11NO/c1-6-3-7(2)5(9-7)4(6)8-6/h4-5,8H,3H2,1-2H3/t4-,5+,6+,7-/m1/s1
