20
gdb 83161	3.02943	1.26776	1.10881	4.0015	78.47	-0.2282	0.0386	0.2669	1171.4735	0.173336	-403.182792	-403.174362	-403.173418	-403.216966	32.27	
C	-0.1509973939	 1.5824728198	-0.0303527176	-0.416077
C	-0.0052615337	 0.0779680975	 0.0041836685	-0.019763
C	 1.2763281954	-0.6445288844	-0.3565590277	-0.051116
C	 2.5806277313	 0.097104214	-0.6115002918	-0.196948
N	 3.4872161622	-0.0157646099	 0.5277168563	-0.297717
C	 3.1271508253	 0.0404445419	 1.844086008	 0.391839
O	 3.9504508834	 0.0780014873	 2.7408291416	-0.379996
C	 1.6231123186	 0.0635080979	 2.1143686627	-0.349571
C	 0.7754487569	-0.655784454	 1.0724377917	-0.050651
H	 0.7504424445	 2.1086923393	 0.294426132	 0.12196
H	-0.3816225003	 1.9282042029	-1.044106328	 0.120386
H	-0.9679523672	 1.9061877564	 0.623930417	 0.123245
H	-0.904589333	-0.4397383444	-0.3199577516	 0.08731
H	 1.1704451006	-1.5675750151	-0.9163585499	 0.090666
H	 3.0852963312	-0.3382380331	-1.4788122514	 0.116358
H	 2.3962377865	 1.1511407352	-0.8617104417	 0.11131
H	 4.4805483053	 0.0602279187	 0.3665694782	 0.244572
H	 1.4852307007	-0.3749164129	 3.104298104	 0.133763
H	 1.3350322791	 1.1176110189	 2.21145813	 0.127721
H	 0.3458672671	-1.590410076	 1.4176546298	 0.092711
19.0993	122.6216	159.038	246.4955	277.2478	414.0374	433.925	446.6247	492.985	534.1467	546.4216	635.111	729.6238	764.1351	780.9658	849.3018	878.3918	929.7283	960.8559	979.8624	1006.2391	1059.9166	1095.7306	1113.868	1130.0099	1149.8895	1163.6256	1221.6032	1260.2547	1275.1789	1307.6406	1313.9308	1373.6326	1379.5293	1385.1635	1420.7432	1441.4001	1464.232	1478.3655	1499.2654	1504.1229	1526.281	1789.4171	3002.1313	3032.9791	3040.4729	3071.6715	3090.1898	3106.9819	3114.1815	3135.0925	3150.9672	3163.7852	3616.7096
CC1C2CNC(=O)CC12	C[C@H]1[C@H]2CNC(=O)C[C@@H]12	
InChI=1S/C7H11NO/c1-4-5-2-7(9)8-3-6(4)5/h4-6H,2-3H2,1H3,(H,8,9)	InChI=1S/C7H11NO/c1-4-5-2-7(9)8-3-6(4)5/h4-6H,2-3H2,1H3,(H,8,9)/t4-,5+,6-/m1/s1
