22
gdb 59614	3.38257	1.03011	0.82628	2.8628	83.41	-0.2218	-0.0158	0.206	1427.685	0.193479	-404.374208	-404.364767	-404.363823	-404.408548	35.705	
C	 0.9073396998	-0.5403129494	-1.1517031528	-0.401627
C	 0.0311775055	 0.0164670503	-0.0236916499	 0.096691
C	 0.0214444095	 1.5490500719	-0.078761748	-0.39498
N	-1.3338020214	-0.5092239008	-0.1088076682	-0.080407
C	-1.4427067927	-1.9765650729	-0.118936282	-0.163159
C	-2.9375105438	-2.2333534846	 0.0813593439	-0.331925
C	-3.3758898063	-1.0627133988	 0.9569925211	 0.397535
O	-4.4079309464	-0.9558355128	 1.5643670336	-0.308687
C	-2.2368773069	-0.0435326484	 0.9387687083	-0.273705
H	 1.8982535437	-0.0788945417	-1.1138210095	 0.11496
H	 1.0471193231	-1.621531602	-1.0766184788	 0.116994
H	 0.4610561183	-0.3173379341	-2.126640491	 0.12219
H	 0.4850447613	-0.2873714577	 0.9435112797	 0.050348
H	-0.4504919559	 1.893142686	-1.005099392	 0.122203
H	-0.5168578146	 1.9904501281	 0.7638154737	 0.118517
H	 1.0458247596	 1.9315786716	-0.0504011438	 0.113467
H	-1.0660924979	-2.3870915788	-1.0574539424	 0.113135
H	-0.8639762086	-2.4396730146	 0.704563271	 0.081705
H	-3.4801594073	-2.1634131205	-0.868865885	 0.139309
H	-3.1842099528	-3.1923988264	 0.5406271611	 0.12981
H	-1.7756633819	-0.0439838823	 1.9483878291	 0.103437
H	-2.6215605446	 0.9634617379	 0.757785522	 0.134191
62.3358	102.891	153.6395	186.5961	243.3	252.9802	310.7451	355.5503	405.3622	457.927	478.1506	511.6062	568.5634	606.4834	755.9843	819.0365	851.6401	888.9013	929.125	940.0995	959.1721	997.619	1055.6244	1071.8099	1113.8172	1145.6389	1184.8712	1187.3376	1198.5494	1212.8691	1215.0107	1262.2529	1296.0644	1322.1687	1354.6535	1367.0217	1395.8107	1402.5557	1418.8889	1445.6453	1477.3899	1487.2224	1494.1313	1501.4837	1518.973	1524.0414	1858.4795	2870.7761	2892.8205	2910.1083	3038.6826	3043.309	3049.9597	3085.9701	3100.5964	3109.3372	3115.6206	3117.3943	3120.7598	3122.2357
CC(C)N1CCC(=O)C1	CC(C)N1CCC(=O)C1	
InChI=1S/C7H13NO/c1-6(2)8-4-3-7(9)5-8/h6H,3-5H2,1-2H3	InChI=1S/C7H13NO/c1-6(2)8-4-3-7(9)5-8/h6H,3-5H2,1-2H3
