17
gdb 110959	2.90183	1.28264	1.09759	1.9747	69.55	-0.2412	-0.0021	0.2391	1145.8366	0.133826	-458.910237	-458.90137	-458.900426	-458.94405	32.16	
C	 0.0047226111	 1.3142728183	-0.2424259284	-0.244603
O	-0.0342664808	 0.0444945942	 0.379205533	-0.249412
C	-1.268260635	-0.5878965466	 0.2685584184	 0.116867
C	-1.5953078253	-1.3766295696	-1.0675325191	-0.247393
C	-0.4831054029	-2.3902405223	-0.6254663785	-0.295312
C	-1.2723795992	-2.0841178982	 0.7179981398	 0.236292
O	-1.038559872	-2.5608277742	 1.9783744479	-0.464682
C	-2.5094379266	-2.2131684446	-0.1727979027	 0.382481
O	-3.5768808763	-2.7493425044	-0.160219889	-0.335767
H	 0.9888675248	 1.7404262793	-0.0371078544	 0.135734
H	-0.1351312858	 1.2419467109	-1.3304486407	 0.112562
H	-0.7669010261	 1.9844573636	 0.1645961122	 0.113764
H	-2.075851492	 0.0468984168	 0.6571963775	 0.083845
H	-1.776685861	-0.9763649013	-2.0585677582	 0.102556
H	-0.545743033	-3.4034827982	-1.0232055402	 0.112761
H	 0.5258075357	-1.985954745	-0.6401191631	 0.137029
H	-1.7371391755	-3.1892274986	 2.1966283355	 0.303277
86.3474	106.5922	147.7307	171.9128	210.1409	237.9064	317.9617	357.9235	449.0282	534.5888	587.8887	642.9069	745.0779	780.5795	798.9781	809.923	921.8801	950.2985	1001.1756	1032.6367	1065.1361	1080.085	1114.8277	1128.7541	1155.6879	1183.691	1200.9144	1222.6801	1234.7135	1316.5183	1380.6742	1434.2648	1481.1132	1488.7605	1502.7285	1513.486	1912.8646	2986.2607	3018.3181	3039.0524	3095.4305	3125.4892	3186.0885	3191.9771	3791.8325
COC1C2CC1(O)C2=O	CO[C@H]1[C@H]2C[C@]1(O)C2=O	
InChI=1S/C6H8O3/c1-9-5-3-2-6(5,8)4(3)7/h3,5,8H,2H2,1H3	InChI=1S/C6H8O3/c1-9-5-3-2-6(5,8)4(3)7/h3,5,8H,2H2,1H3/t3-,5-,6-/m0/s1
