15
gdb 126276	2.48598	1.34115	0.92192	4.261	71.45	-0.2828	-0.0964	0.1864	1226.3838	0.11112	-453.935415	-453.927032	-453.926088	-453.969455	29.211	
C	-0.251714822	 1.6206726965	 0.0656581319	-0.376934
C	 0.0923263604	 0.123870029	-0.0281196487	-0.302803
C	 0.8651905794	-0.3622729141	 1.1528629158	 0.206365
C	 2.1445984414	-0.8282617853	 1.2928497882	 0.227033
O	 2.3472513433	-1.1235861706	 2.5856668912	-0.193279
N	 1.150022739	-0.8268510431	 3.2569652858	 0.013995
N	 0.3135498399	-0.3910162465	 2.4185216932	-0.169067
C	 3.2247785463	-1.0317648244	 0.3180217291	 0.079543
O	 4.3212055248	-1.4532220214	 0.5897643893	-0.245396
H	 0.6551982466	 2.2322015451	 0.0858568307	 0.127324
H	-0.8523467042	 1.9264611209	-0.7951204361	 0.126769
H	-0.8212313436	 1.8281881355	 0.9751833079	 0.149145
H	-0.8336239902	-0.4587725892	-0.0962237447	 0.140255
H	 0.6585225147	-0.0780054309	-0.9424244084	 0.119059
H	 2.937788714	-0.7564488017	-0.7173799051	 0.097989
44.4628	125.1116	157.5016	169.9484	224.4412	257.1866	323.7987	405.2521	534.8162	632.9443	679.1315	717.1999	755.1692	792.1162	823.8328	972.8725	1015.8559	1023.2966	1056.8788	1084.6689	1169.0351	1232.4838	1298.2135	1351.3384	1385.7349	1408.3947	1426.5831	1446.5662	1478.8387	1496.5846	1507.0127	1625.7323	1800.3478	2922.6808	3043.8083	3047.7939	3086.5655	3121.1006	3130.8079
CCC1=C(ON=N1)C=O	CCc1c(onn1)C=O	
InChI=1S/C5H6N2O2/c1-2-4-5(3-8)9-7-6-4/h3H,2H2,1H3	InChI=1S/C5H6N2O2/c1-2-4-5(3-8)9-7-6-4/h3H,2H2,1H3
