13
gdb 27608	3.85186	1.22036	0.92674	1.3533	77.04	-0.2642	-0.0586	0.2056	1156.784	0.090686	-415.64136	-415.634208	-415.633263	-415.673042	27.233	
O	 0.0811195756	 1.3422480463	-0.0596379679	-0.40664
C	 0.0667007254	 0.0028801654	-0.0436959933	 0.454627
C	 0.0423721342	-0.6964355469	-1.2515991977	-0.276785
C	 0.028541991	-2.0842746325	-1.1547552666	 0.185736
N	 0.0380015619	-2.724199571	 0.0366296162	-0.315806
C	 0.0613208845	-1.9420547056	 1.1061693267	 0.064251
N	 0.0763818242	-0.605597825	 1.1387137436	-0.34537
C	 0.0034379683	-2.8888516726	-2.3357437422	 0.228094
C	-0.0176630356	-3.543551848	-3.3445084006	-0.351787
H	 0.0970078033	 1.6260895637	 0.8661511901	 0.305338
H	 0.034848339	-0.1824718508	-2.2028924157	 0.128799
H	 0.0691948637	-2.4420895059	 2.0718143985	 0.125573
H	-0.0363616256	-4.134368897	-4.2272879512	 0.20397
128.5715	147.5479	217.2761	346.0096	402.1319	482.7852	491.419	556.1144	568.8989	580.6214	647.9619	655.5829	715.9014	803.4702	808.1523	898.2407	973.1692	998.1592	1001.944	1160.2124	1194.3509	1266.4797	1332.2014	1368.5948	1449.4397	1494.1789	1584.7428	1645.2133	2236.5893	3165.9532	3229.803	3499.8564	3754.801
OC1=CC(=NC=N1)C#C	Oc1cc(ncn1)C#C	
InChI=1S/C6H4N2O/c1-2-5-3-6(9)8-4-7-5/h1,3-4H,(H,7,8,9)	InChI=1S/C6H4N2O/c1-2-5-3-6(9)8-4-7-5/h1,3-4H,(H,7,8,9)
