18
gdb 66087	2.49248	1.22682	1.05494	3.3236	74.97	-0.2482	-0.045	0.2032	1204.6548	0.145356	-439.10689	-439.097418	-439.096474	-439.142278	33.054	
C	-0.0961641236	 1.6312196795	 0.2965901344	-0.442089
C	 0.0079234059	 0.124724471	 0.1079601409	 0.196325
C	 0.7687963647	-0.3669429612	-1.1814572376	-0.303567
C	 1.8329994889	-1.0229826323	-0.2590258631	-0.164645
N	 1.0588477531	-0.554516476	 0.8884724444	-0.065159
C	 1.2081356948	-0.8281768539	 2.2063878309	 0.122618
O	 2.1193129552	-1.4829428455	 2.6672160853	-0.324176
C	-1.3412665445	-0.5713306364	 0.255849122	 0.136165
O	-2.4014998792	-0.006746268	 0.2996008611	-0.240582
H	 0.8798488148	 2.1022191284	 0.1554330476	 0.122321
H	-0.8046088099	 2.0477238842	-0.4240015576	 0.143074
H	-0.462997182	 1.8767083162	 1.2970119913	 0.136842
H	 0.208392911	-1.0697042164	-1.8003701449	 0.126144
H	 1.124711514	 0.4533642318	-1.8047383598	 0.130277
H	 1.907955316	-2.1127239506	-0.3197916308	 0.132674
H	 2.8404390367	-0.5991300996	-0.3121838739	 0.130457
H	 0.4002168935	-0.3796788969	 2.8208715743	 0.075791
H	-1.2628839196	-1.6816774944	 0.3108650854	 0.087531
40.3513	75.1264	91.9067	167.629	214.1613	260.2512	287.7112	320.737	336.5422	409.9409	468.4913	577.194	726.6819	780.9249	837.9916	864.4454	925.2458	955.8431	981.8871	1021.7126	1033.614	1100.9073	1155.8908	1162.8631	1202.0433	1213.1572	1265.6544	1281.9317	1316.537	1391.8026	1401.3824	1418.8879	1437.1557	1480.5949	1483.7453	1490.1914	1522.2749	1790.901	1832.9077	2872.8545	2921.9452	3049.4364	3050.2552	3086.2189	3092.7103	3124.822	3132.5473	3145.7405
CC1(CCN1C=O)C=O	C[C@]1(CCN1C=O)C=O	
InChI=1S/C6H9NO2/c1-6(4-8)2-3-7(6)5-9/h4-5H,2-3H2,1H3	InChI=1S/C6H9NO2/c1-6(4-8)2-3-7(6)5-9/h4-5H,2-3H2,1H3/t6-/m0/s1
