19
gdb 83699	2.74198	1.53575	1.14677	1.009	76.47	-0.2445	0.0045	0.249	1103.0165	0.159915	-423.017432	-423.009154	-423.00821	-423.05034	31.682	
C	-0.2781605336	 1.5233493587	 0.0581562553	-0.48404
C	-0.0911086323	 0.0411054645	-0.0130795	 0.268108
C	-0.0541874571	-0.7316511788	-1.1029894544	-0.194461
C	 0.1496830416	-2.1821997986	-0.773744241	 0.090089
O	 1.5064241678	-2.655352908	-1.012853591	-0.294435
C	 1.8004655364	-2.6087983564	 0.3979182394	-0.085946
C	 0.3528491866	-2.2051376098	 0.758274777	-0.109275
C	 0.0889977998	-0.7681457614	 1.2668058406	 0.028326
O	 1.0791623537	-0.2315850531	 2.1371007938	-0.427446
H	 0.5174843283	 1.9848605888	 0.6526796282	 0.134531
H	-0.2902840641	 1.9815260199	-0.9337696292	 0.124311
H	-1.2204992517	 1.7719774894	 0.5634342155	 0.130961
H	-0.146087403	-0.3743272108	-2.1234865858	 0.097025
H	-0.5813231213	-2.8570131703	-1.2322218441	 0.078911
H	 2.1235400893	-3.584614691	 0.7772311832	 0.108463
H	 2.5830613847	-1.8745738844	 0.6353683243	 0.080947
H	-0.1901925418	-2.9630997191	 1.321248552	 0.081824
H	-0.8261266644	-0.7404314287	 1.871574532	 0.092125
H	 1.8995023609	-0.154133311	 1.6374759642	 0.279982
74.5707	145.5039	172.9352	244.1993	265.0841	319.2948	360.6086	423.7211	486.8878	572.6027	637.2471	678.7779	798.7018	818.0159	872.906	893.4476	904.4535	966.1141	986.8311	1010.7133	1022.8903	1056.8722	1064.4752	1076.7766	1112.8052	1157.489	1172.1787	1231.519	1256.6528	1268.7712	1284.8996	1313.953	1334.0028	1340.5024	1370.9563	1409.845	1427.5625	1474.3617	1487.1576	1526.9245	1711.456	2999.2824	3024.2208	3028.6071	3046.8814	3054.425	3079.3743	3117.2915	3121.1559	3186.5294	3802.3258
CC1=CC2OCC2C1O	CC1=C[C@H]2OC[C@H]2[C@H]1O	
InChI=1S/C7H10O2/c1-4-2-6-5(3-9-6)7(4)8/h2,5-8H,3H2,1H3	InChI=1S/C7H10O2/c1-4-2-6-5(3-9-6)7(4)8/h2,5-8H,3H2,1H3/t5-,6-,7+/m1/s1
