19
gdb 39953	3.93142	1.23266	1.10519	1.1629	85.44	-0.196	0.0157	0.2117	1164.9427	0.158588	-385.86431	-385.85646	-385.855516	-385.896672	31.741	
C	-0.21428786	 1.4242740075	 0.1849957941	-0.325504
C	 1.2178209762	 1.0131895933	-0.1009182087	-0.325504
C	 0.125795363	-0.0241426754	-0.0541014129	 0.4126
O	 0.0973588165	-0.8983428339	 1.0606564785	-0.339755
C	-0.3537586157	-2.1703186716	 0.6290448971	 0.4126
C	 0.2351248429	-3.3848582197	 1.299025472	-0.325501
C	-1.1970336945	-2.9739644765	 1.5849645216	-0.325508
C	-0.6105380671	-2.0545285624	-0.823751841	-0.17733
C	-0.3332305135	-0.8131809011	-1.2188651886	-0.177331
H	-0.4603860201	 1.6946221048	 1.2057803586	 0.125328
H	-0.7689110414	 1.9614152691	-0.5772583564	 0.112468
H	 1.6551734854	 1.2655933292	-1.0612172919	 0.112468
H	 1.9117877627	 1.0136916701	 0.7321859869	 0.125328
H	 0.417957913	-4.2717206802	 0.701358249	 0.112466
H	 0.9716245991	-3.1938997996	 2.0715252145	 0.125326
H	-1.40063207	-2.5132895473	 2.5451622387	 0.125329
H	-2.0062099693	-3.5762243175	 1.1853695103	 0.112469
H	-0.9673618365	-2.8764580585	-1.4297204217	 0.110026
H	-0.4149749006	-0.4037791002	-2.2167615201	 0.110026
58.8759	177.6868	226.4362	295.7687	331.4119	354.4271	464.9825	479.7708	594.5055	600.059	746.5266	760.2577	764.1882	824.313	878.2044	879.9924	881.0888	895.4247	911.9828	919.2029	924.8407	932.3831	988.9538	1011.8826	1054.9658	1059.7406	1062.7319	1063.9168	1091.6593	1191.5486	1191.9802	1225.8121	1274.3734	1295.8466	1373.9909	1411.0673	1449.1775	1449.4547	1485.4801	1492.4064	1669.1461	3129.4806	3129.6429	3131.8862	3132.1513	3214.0336	3215.1493	3215.339	3230.0919	3230.2303	3237.4739
C1CC11OC2(CC2)C=C1	C1CC21OC1(CC1)C=C2	
InChI=1S/C8H10O/c1-2-7(1)5-6-8(9-7)3-4-8/h5-6H,1-4H2	InChI=1S/C8H10O/c1-2-7(1)5-6-8(9-7)3-4-8/h5-6H,1-4H2
