23
gdb 123225	10.15068	0.38718	0.38168	3.103	85.82	-0.251	-0.0209	0.2301	2833.2462	0.2023	-425.435372	-425.423858	-425.422914	-425.474324	38.6	
C	 0.0474417177	 1.5155382507	-0.0991579993	-0.382607
C	-0.0278126047	-0.0129577977	-0.1199891248	-0.182705
C	-1.4530331249	-0.5272164029	 0.0269834651	-0.032651
O	-1.4349967475	-1.9395343368	-0.0046356351	-0.247806
C	-2.7117125655	-2.5195600206	 0.1203632586	-0.046694
C	-2.5622258168	-4.0341825733	 0.0485006811	-0.210673
C	-3.9109060249	-4.759630616	 0.1779799338	-0.275693
C	-3.738463083	-6.2607361715	 0.2289733686	 0.161214
O	-4.2928111134	-7.0467003176	-0.4942393787	-0.235841
H	 1.0803392283	 1.8590299153	-0.2052494991	 0.118504
H	-0.5338721474	 1.9558070848	-0.9168652531	 0.116823
H	-0.3423501156	 1.922558691	 0.8404562222	 0.116351
H	 0.3869458172	-0.4018564247	-1.0569827206	 0.107602
H	 0.579367785	-0.4350727479	 0.6889819149	 0.106749
H	-1.8935998996	-0.1714961327	 0.9752613662	 0.082252
H	-2.0887610622	-0.135131214	-0.7864638625	 0.083321
H	-3.1790669922	-2.2282714881	 1.0780876521	 0.083488
H	-3.3804266917	-2.1625371338	-0.6823632019	 0.087856
H	-2.0831208467	-4.2966225002	-0.9011830827	 0.12243
H	-1.8814997291	-4.3564836031	 0.8455738449	 0.113654
H	-4.3957312432	-4.4561542818	 1.1183119869	 0.119664
H	-4.5887406008	-4.5149266265	-0.6451081936	 0.12357
H	-3.028326639	-6.6096779325	 1.016346917	 0.071194
35.2627	51.0373	69.187	80.9902	106.2537	140.6477	160.1935	198.5006	239.8654	264.8196	325.3982	465.5762	469.2472	544.6217	757.4752	764.6959	817.1029	900.0846	909.7819	927.4089	1001.551	1008.2345	1048.4613	1061.8098	1108.5746	1154.1014	1159.3496	1163.1737	1190.1785	1222.0408	1261.852	1269.7211	1292.2028	1314.0857	1316.0501	1332.0892	1358.0337	1404.9042	1414.6932	1431.0977	1455.886	1465.6034	1491.3572	1498.2425	1501.6624	1506.844	1517.9785	1537.8214	1838.8549	2849.7363	2936.0411	2948.881	2966.4622	2968.3349	3005.9004	3032.2558	3038.5246	3039.1748	3071.8297	3078.4608	3099.6222	3100.3453	3109.2636
CCCOCCCC=O	CCCOCCCC=O	
InChI=1S/C7H14O2/c1-2-6-9-7-4-3-5-8/h5H,2-4,6-7H2,1H3	InChI=1S/C7H14O2/c1-2-6-9-7-4-3-5-8/h5H,2-4,6-7H2,1H3
