17
gdb 8600	4.95679	1.77166	1.67382	2.4842	70.65	-0.2068	0.0638	0.2705	838.4504	0.141264	-363.702624	-363.695919	-363.694974	-363.733052	26.888	
C	-0.0614042643	 1.5620488918	 0.0069530996	-0.321548
N	 0.0395745656	 0.1210422582	 0.0647602434	-0.078308
C	-1.1962445896	-0.6562252073	 0.4469794571	-0.265948
C	-0.2428553689	-1.5926754935	 1.2084986094	 0.320435
C	 0.5171359112	-2.3315218796	 2.3406596633	-0.307829
C	 1.5275951361	-1.8459782272	 1.2116809842	 0.009176
O	 0.5944415976	-2.3505247445	 0.2190878686	-0.316918
C	 0.7745386717	-0.467547291	 1.2120683652	 0.014276
H	 0.9259905608	 1.9886381297	-0.19768816	 0.126006
H	-0.7274425156	 1.853892559	-0.8119102841	 0.123766
H	-0.4479558593	 2.0202888493	 0.9384690682	 0.086009
H	-1.8687111834	-0.0925460282	 1.1110530737	 0.099411
H	-1.7506806484	-1.086230924	-0.391173887	 0.125807
H	 0.5445790105	-1.8537850716	 3.3235916949	 0.103321
H	 0.3993439983	-3.4144928248	 2.3864513542	 0.118217
H	 2.5817244494	-2.116625428	 1.103309121	 0.093333
H	 0.8756460583	 0.1803419218	 2.0901698983	 0.070793
159.5238	214.8467	282.424	318.0858	373.9446	465.6882	504.9479	630.2408	679.083	732.5886	778.9198	841.418	867.0606	911.7323	937.043	955.5376	990.0503	1009.6877	1037.1154	1090.0648	1123.2588	1137.3667	1156.5942	1173.6078	1184.2171	1203.0239	1212.4079	1245.61	1257.7002	1299.2039	1344.0123	1450.392	1476.2605	1479.9382	1492.2707	1500.9861	2912.2664	2992.9853	3039.1346	3056.5433	3061.0648	3075.5353	3098.4479	3100.8829	3153.9429
CN1CC23CC(O2)C13	CN1C[C@@]23C[C@@H](O2)[C@@H]13	
InChI=1S/C6H9NO/c1-7-3-6-2-4(8-6)5(6)7/h4-5H,2-3H2,1H3	InChI=1S/C6H9NO/c1-7-3-6-2-4(8-6)5(6)7/h4-5H,2-3H2,1H3/t4-,5-,6-/m1/s1
