13
gdb 16275	3.76216	1.86527	1.39485	2.7217	60.97	-0.2555	-0.0551	0.2004	843.459	0.094596	-398.575898	-398.568983	-398.568039	-398.607218	25.074	
O	-0.9630345959	 1.3165771723	-0.1687001372	-0.27845
C	 0.1431986639	 0.8813328706	 0.0674459308	 0.054296
C	 1.3550760832	 1.7122068649	-0.0099093911	 0.107062
N	 1.217666305	 3.2099842086	-0.0325968631	-0.342343
C	 1.78435345	 2.5932162537	-1.2008468755	-0.081348
C	 3.2739852062	 2.3576010499	-0.9095132432	-0.341587
C	 2.8156722103	 1.4001925526	 0.2269294332	 0.378026
O	 3.3737210988	 0.56683351	 0.8771974525	-0.295508
H	 0.3112617159	-0.1783690141	 0.340371453	 0.111347
H	 0.2160058396	 3.3545907559	-0.1929581658	 0.263021
H	 1.2913343231	 2.596793381	-2.1648492011	 0.137271
H	 3.8130465483	 1.8051737124	-1.6831563426	 0.141664
H	 3.8339184616	 3.2475724622	-0.6162923299	 0.146549
120.5443	140.2506	187.1034	273.7157	357.6757	443.483	542.6477	602.4067	654.1552	723.7448	777.8811	853.7863	905.5966	950.0326	994.7607	1020.5809	1035.6413	1085.7724	1118.7755	1175.1139	1211.6047	1286.9932	1339.4777	1380.3362	1429.1665	1443.1085	1777.2015	1890.5709	2950.7448	3076.9515	3139.6079	3206.66	3426.651
O=CC12NC1CC2=O	O=C[C@]12N[C@H]1CC2=O	
InChI=1S/C5H5NO2/c7-2-5-3(6-5)1-4(5)8/h2-3,6H,1H2	InChI=1S/C5H5NO2/c7-2-5-3(6-5)1-4(5)8/h2-3,6H,1H2/t3-,5-/m0/s1
