18
gdb 39832	2.85316	1.79428	1.3983	1.0326	74.33	-0.2329	0.0583	0.2912	961.0169	0.149063	-401.877937	-401.871	-401.870056	-401.909092	28.559	
C	-0.1581331192	 1.3602147897	 0.1140450502	-0.309034
C	 1.2676096527	 0.8964275646	-0.0389875642	 0.004624
C	 0.1580943553	-0.1189537498	 0.0895545302	-0.133666
C	 0.0843267227	-0.8126652359	-1.2525408965	 0.446638
C	-0.4410685543	-2.1718648383	-1.4187134629	-0.259204
O	-1.1944210516	-1.0413403727	-1.861127681	-0.278009
C	 1.2106786165	-0.2651060545	-2.1072004693	-0.117041
C	 1.1585104864	 1.1576733938	-2.5357122727	-0.253689
N	 1.9289742873	 0.7730763488	-1.3469600989	-0.107166
H	-0.4209674246	 1.782738182	 1.0781387175	 0.116654
H	-0.702902676	 1.796401871	-0.7136002584	 0.129125
H	 1.9627808683	 1.0907754911	 0.7694651011	 0.10038
H	 0.0038521172	-0.7101342426	 0.9847912878	 0.092556
H	-0.0468524184	-2.8122099078	-2.2077683731	 0.115125
H	-0.8482583347	-2.7003605214	-0.5569057933	 0.114758
H	 1.8163208393	-0.977151873	-2.6623990246	 0.09412
H	 1.765887078	 1.4812990891	-3.3765412569	 0.119016
H	 0.226653555	 1.7010063357	-2.4264356149	 0.124814
115.404	191.3249	301.7337	371.154	380.5279	483.9135	512.1443	572.3221	657.8486	702.7994	778.3291	808.313	825.476	849.8892	878.9001	929.8526	959.8926	975.7336	993.9988	1008.2673	1047.8642	1077.6262	1087.0547	1106.7237	1111.5882	1124.1931	1129.6188	1158.5102	1168.4517	1202.0006	1240.3093	1279.4768	1315.1489	1336.1964	1358.4703	1444.7114	1476.8096	1522.1126	1531.779	3073.352	3120.4807	3133.9939	3143.591	3158.1678	3169.8409	3177.756	3208.0903	3229.3924
C1C2C1C1(CO1)C1CN21	C1[C@H]2[C@@H]1[C@]1(CO1)[C@H]1CN21	
InChI=1S/C7H9NO/c1-4-5(1)8-2-6(8)7(4)3-9-7/h4-6H,1-3H2	InChI=1S/C7H9NO/c1-4-5(1)8-2-6(8)7(4)3-9-7/h4-6H,1-3H2/t4-,5+,6-,7-,8?/m1/s1
