20
gdb 98474	2.41712	1.29537	0.93991	4.6342	76.86	-0.2482	0.0196	0.2678	1298.0233	0.170294	-440.303371	-440.293394	-440.29245	-440.339033	35.997	
C	-2.8887874459	 0.8231558803	-1.5407080173	-0.336627
N	-2.6128816878	-0.4343041686	-0.8715599757	-0.331221
C	-1.3792352081	-1.0097453739	-0.8693182853	 0.395734
O	-0.4275739873	-0.5008811858	-1.4571036583	-0.408942
C	-1.2011207183	-2.2930251904	-0.098097749	 0.200964
C	 0.1454870325	-2.9552854337	-0.3662866884	-0.12333
O	 1.238737845	-2.1569796944	 0.0232059953	-0.425817
C	-1.7612638225	-2.3765375521	 1.3117772481	-0.283871
C	-2.3751513398	-3.1985627979	 0.218657083	-0.32732
H	-3.6015701204	 0.6907617369	-2.3624700804	 0.128015
H	-3.2939754134	 1.5616366216	-0.8405856492	 0.127333
H	-1.9461235038	 1.191162397	-1.9455656863	 0.175026
H	-3.3713556038	-0.8973609725	-0.4017039028	 0.246753
H	 0.2054542682	-3.8844194462	 0.2118980536	 0.090728
H	 0.2015330598	-3.2255080402	-1.4325506469	 0.091711
H	 1.14674453	-1.3517523775	-0.5072991772	 0.295203
H	-1.143182641	-2.8719705142	 2.0523063059	 0.134915
H	-2.3102648365	-1.521314607	 1.6905446239	 0.115798
H	-3.3612477238	-2.9434681208	-0.1557656678	 0.108647
H	-2.1783882931	-4.2656571204	 0.2055030949	 0.1263
43.0244	71.5624	116.787	134.1134	182.0331	254.5703	284.7127	309.1006	346.1811	418.5276	462.8386	512.4316	561.4244	619.8654	754.2446	777.4667	801.6904	870.5403	926.5225	951.0861	961.9813	1030.8629	1045.1482	1060.7017	1078.0662	1097.6436	1154.3285	1167.9138	1188.1016	1194.2298	1248.5601	1318.9378	1355.8791	1389.9204	1438.8626	1456.9455	1474.9168	1493.2984	1496.9142	1501.7203	1510.164	1570.377	1727.511	2980.6578	3029.605	3058.9979	3081.9997	3127.8856	3136.2889	3161.0194	3202.5646	3223.6146	3663.1361	3723.005
CNC(=O)C1(CO)CC1	CNC(=O)C1(CO)CC1	
InChI=1S/C6H11NO2/c1-7-5(9)6(4-8)2-3-6/h8H,2-4H2,1H3,(H,7,9)	InChI=1S/C6H11NO2/c1-7-5(9)6(4-8)2-3-6/h8H,2-4H2,1H3,(H,7,9)
