19
gdb 59210	3.44483	1.21014	1.09408	1.6367	74.95	-0.2339	0.0015	0.2353	1170.8247	0.15857	-422.970566	-422.96227	-422.961326	-423.003468	32.364	
C	 0.0345791377	 1.5255039917	-0.081945268	-0.411653
C	 0.0232202579	 0.0038390236	 0.0763357574	 0.094608
O	 0.5619838713	-0.387227167	 1.3419383852	-0.446811
C	-1.387240295	-0.5654426121	 0.0489316878	 0.049089
C	-2.0535824502	-0.7518753078	-1.357157133	-0.007073
O	-1.2140908283	-1.93979234	-1.5374310323	-0.290304
C	-1.4903326063	-2.1206320402	-0.1054036086	 0.005895
C	-3.0150858321	-2.3244685949	-0.1092437815	-0.082547
C	-3.4045872892	-1.3806533499	-0.9689988801	-0.084955
H	 1.0597680276	 1.9113529538	-0.0418096575	 0.106005
H	-0.3919394636	 1.8289752706	-1.0437454946	 0.117378
H	-0.5391256034	 1.9992416379	 0.7211654679	 0.12281
H	 0.5974447844	-0.4558380232	-0.7394697005	 0.083783
H	 1.4634528767	-0.0545747319	 1.3948326022	 0.280834
H	-2.0033651023	-0.113469718	 0.8308386863	 0.075666
H	-1.9961327183	-0.0260175633	-2.1679628394	 0.077102
H	-0.8299227708	-2.8187523109	 0.404517673	 0.088061
H	-3.5808847002	-3.0456244679	 0.4614164603	 0.11171
H	-4.3849713459	-1.0945135007	-1.3194165246	 0.110402
70.1539	147.5852	191.0661	237.7809	265.2907	306.4356	412.6425	475.5152	494.7519	549.0046	618.9733	711.3822	756.4339	854.0452	864.7434	872.1996	877.2683	901.6436	908.799	920.5633	958.4911	984.0539	1027.9802	1082.9551	1108.6744	1116.2973	1148.8539	1152.388	1190.7299	1215.3479	1238.5963	1263.2861	1297.7774	1300.0899	1339.8552	1385.4694	1404.1541	1432.5572	1491.6291	1498.8812	1614.6804	3015.2985	3027.254	3078.7586	3092.8914	3110.6326	3126.5138	3151.9074	3233.3331	3260.6086	3817.7768
CC(O)C1C2OC1C=C2	C[C@@H](O)[C@H]1[C@H]2O[C@@H]1C=C2	
InChI=1S/C7H10O2/c1-4(8)7-5-2-3-6(7)9-5/h2-8H,1H3	InChI=1S/C7H10O2/c1-4(8)7-5-2-3-6(7)9-5/h2-8H,1H3/t4-,5-,6+,7-/m1/s1
