18
gdb 84545	3.7342	1.30107	1.09259	2.5504	78.16	-0.2309	-0.0264	0.2045	1123.8453	0.147869	-401.951414	-401.943626	-401.942682	-401.983788	30.168	
C	-0.3076433009	 1.4608666047	-0.0663555213	-0.383677
C	 0.0590705145	-0.0282629358	-0.0627989145	-0.010419
C	 0.9757405596	-0.4122138624	-1.2063062258	-0.068787
C	 2.1699832181	-0.8117077228	-0.770954728	-0.096797
C	 2.2115701516	-0.7878260283	 0.731717116	-0.159033
N	 0.8182049713	-0.4109791914	 1.15094685	-0.109604
C	 0.5410209215	-1.773397571	 1.6822814651	-0.303229
C	 2.0085160357	-2.1509632552	 1.433476614	 0.392778
O	 2.705004888	-3.0837669091	 1.6909887153	-0.2821
H	 0.5942513525	 2.0771816699	-0.0063647542	 0.121536
H	-0.8460495243	 1.7283317178	-0.9821202298	 0.109344
H	-0.9424665598	 1.6971378589	 0.7921418962	 0.121232
H	-0.874043442	-0.6107094711	-0.0891128925	 0.081183
H	 0.6838638432	-0.3186493766	-2.2462205229	 0.104759
H	 3.0169837751	-1.1042876441	-1.3786501445	 0.11507
H	 3.0242829175	-0.1764410518	 1.1438321579	 0.107521
H	 0.2212485375	-1.7973443013	 2.7297662939	 0.134155
H	-0.1650580291	-2.3688862805	 1.0857100349	 0.126066
80.378	133.1276	230.5783	265.4027	297.4984	337.6121	443.5838	505.3208	566.9375	634.8741	696.1467	728.4312	776.2861	816.0031	862.45	880.91	961.4986	965.0071	998.974	1016.0311	1044.9528	1077.7963	1086.404	1098.6584	1132.5677	1138.1992	1177.2696	1214.2719	1251.003	1266.3241	1303.0006	1345.7133	1367.5081	1404.4532	1465.643	1487.7472	1494.6417	1665.0685	1912.2131	2991.3889	3006.6865	3028.6951	3035.5404	3068.4354	3107.725	3119.7278	3194.664	3223.7489
CC1C=CC2N1CC2=O	C[C@H]1C=C[C@H]2N1CC2=O	
InChI=1S/C7H9NO/c1-5-2-3-6-7(9)4-8(5)6/h2-3,5-6H,4H2,1H3	InChI=1S/C7H9NO/c1-5-2-3-6-7(9)4-8(5)6/h2-3,5-6H,4H2,1H3/t5-,6+/m0/s1
