19
gdb 128816	3.14195	1.10071	0.85828	1.4967	79.16	-0.2298	0.027	0.2568	1366.5413	0.15955	-419.221966	-419.212537	-419.211592	-419.256964	33.318	
C	-0.1857677292	 1.3373393883	-0.0873587865	-0.219499
O	-0.2479685122	-0.0664766138	-0.1587104632	-0.232913
C	 0.8313847105	-0.6194170179	-0.8958703739	-0.182091
C	 0.6707183924	-2.1028483086	-0.9667217491	 0.274297
N	 1.6334751178	-2.9032549226	-0.5128249675	-0.292081
N	 1.1698858353	-4.1440334637	-0.7383235156	-0.19173
C	-0.0604355141	-4.1535069354	-1.3124386317	-0.112448
C	-0.4296949505	-2.8367957871	-1.4867028099	 0.159676
C	-1.6935340656	-2.2966626845	-2.0818966125	-0.517347
H	 0.7320732034	 1.6809959017	 0.4157270091	 0.104872
H	-0.2202362383	 1.8015533411	-1.0865336577	 0.100421
H	-1.0509146725	 1.6746578978	 0.488744634	 0.125387
H	 0.8465508718	-0.1797465134	-1.9091942405	 0.08807
H	 1.7955825442	-0.3850208094	-0.4207019992	 0.108136
H	 1.7324084029	-4.9320041803	-0.4676829148	 0.272198
H	-0.5714678775	-5.0748276293	-1.5462517394	 0.128157
H	-2.1195189775	-1.5194708591	-1.442039989	 0.14775
H	-1.5174188383	-1.843305185	-3.0654946499	 0.122952
H	-2.4396555527	-3.0851366189	-2.2148498826	 0.116196
61.5005	93.3501	95.9959	128.0739	227.0357	249.7235	260.4749	337.2378	386.3945	419.7988	487.5739	651.326	667.7693	718.2848	786.0465	795.5984	948.5666	981.5666	1010.3728	1016.7183	1070.4355	1086.5249	1145.2788	1163.9488	1184.9042	1223.2237	1235.7855	1254.2181	1321.1394	1401.5964	1407.5785	1419.6362	1473.8618	1481.3847	1482.9174	1484.9828	1498.4034	1502.9113	1519.5832	1526.2637	1615.6193	2942.2688	2966.6647	3008.5048	3012.9491	3026.3403	3086.4043	3112.6015	3121.2113	3253.5909	3680.0226
COCC1=NNC=C1C	COCc1n[nH]cc1C	
InChI=1S/C6H10N2O/c1-5-3-7-8-6(5)4-9-2/h3H,4H2,1-2H3,(H,7,8)	InChI=1S/C6H10N2O/c1-5-3-7-8-6(5)4-9-2/h3H,4H2,1-2H3,(H,7,8)
