13
gdb 24953	5.27642	1.33192	1.06499	3.0342	65.89	-0.1889	0.0132	0.2021	1018.2881	0.091985	-452.797605	-452.790833	-452.789889	-452.828739	26.082	
O	-0.0439224045	-0.0304034794	-0.0559989228	-0.40425
C	-0.0208722733	 1.178979202	-0.0590735284	 0.422517
N	-1.1399851922	 2.0476262472	-0.0555708167	-0.466513
C	-0.6659375139	 3.3307203973	 0.1110685978	 0.392808
C	 0.6902424407	 3.3487852229	 0.0914395056	 0.243841
N	 1.0975512729	 2.0189353809	-0.0502277551	-0.467512
C	 1.0627479988	 4.7247927981	 0.0040763354	-0.31265
C	-0.1209505916	 5.4098210333	-0.0031281585	-0.02177
O	-1.2108606501	 4.5529222559	 0.0347657433	-0.19784
H	-2.0599866494	 1.69231751	 0.1419558099	 0.278059
H	 2.01617209	 1.6351585658	 0.0869828445	 0.269969
H	 2.0461261395	 5.1658209823	-0.0213701659	 0.121453
H	-0.3666398467	 6.4566502637	 0.0294872308	 0.141887
116.8078	185.9148	325.0334	345.4648	386.5452	456.4202	566.8424	584.4212	592.0522	651.2592	710.7908	746.6897	765.2433	805.6784	856.7439	922.2718	958.5907	1024.6474	1105.24	1146.5652	1239.4336	1280.7583	1302.0408	1323.3996	1485.0254	1508.9372	1560.5981	1644.4159	1850.2472	3263.37	3301.8695	3676.9084	3686.4477
O=C1NC2=C(N1)C=CO2	O=c1[nH]c2c([nH]1)cco2	
InChI=1S/C5H4N2O2/c8-5-6-3-1-2-9-4(3)7-5/h1-2H,(H2,6,7,8)	InChI=1S/C5H4N2O2/c8-5-6-3-1-2-9-4(3)7-5/h1-2H,(H2,6,7,8)
