17
gdb 63123	2.29425	1.6618	1.18698	1.0418	76.45	-0.2281	0.0314	0.2595	1074.0788	0.132798	-421.740412	-421.731525	-421.730581	-421.773335	34.079	
C	-0.016036129	 1.5761489794	 0.0387032476	-0.464946
C	 0.0371024202	 0.0677602526	 0.0536375899	 0.298181
O	-1.1210994596	-0.5747888919	-0.4018600333	-0.44902
C	 1.2932641317	-0.7134992032	-0.2063713888	-0.022349
O	 2.4501835847	-0.0339075108	 0.2648634479	-0.281333
C	 1.9658500704	-0.1036053755	 1.6330991016	-0.144676
C	 0.650854737	-0.7539202082	 1.1936389316	 0.042026
C	-0.0414829852	-1.7632434537	 1.9105760397	 0.222373
C	-0.6011687799	-2.6059414017	 2.5622772199	-0.415983
H	 0.9523650106	 2.011943102	 0.290400887	 0.142141
H	-0.2805199593	 1.9258034113	-0.9668078097	 0.11189
H	-0.774516267	 1.9453685338	 0.7351332693	 0.132176
H	-1.2198683712	-0.3708984652	-1.3389419207	 0.287751
H	 1.4030932802	-1.4799598362	-0.9660710795	 0.118738
H	 2.5866628824	-0.7822007907	 2.2259036151	 0.126421
H	 1.915721688	 0.8793245385	 2.1137877547	 0.11157
H	-1.1067257241	-3.3518973406	 3.1233630777	 0.185041
124.9612	141.3896	187.1976	232.8127	265.5371	282.3092	338.6973	369.7249	417.0713	469.8954	510.6309	575.1516	578.8613	624.0149	655.7238	689.6147	753.3214	909.3877	960.009	967.4394	997.335	1028.3182	1034.2256	1077.1385	1117.9744	1160.6786	1202.9279	1219.1397	1292.421	1308.75	1332.1469	1408.9647	1444.9354	1489.1422	1495.635	1518.8484	2235.6674	3031.5527	3037.8031	3093.0469	3096.7759	3140.2836	3176.8656	3504.1044	3793.2879
CC1(O)C2OCC12C#C	C[C@@]1(O)[C@H]2OC[C@@]12C#C	
InChI=1S/C7H8O2/c1-3-7-4-9-5(7)6(7,2)8/h1,5,8H,4H2,2H3	InChI=1S/C7H8O2/c1-3-7-4-9-5(7)6(7,2)8/h1,5,8H,4H2,2H3/t5-,6-,7-/m1/s1
