17
gdb 19410	3.19401	2.14218	1.65302	2.5706	68.2	-0.2343	0.0742	0.3085	832.2874	0.143018	-363.794895	-363.787893	-363.786949	-363.825828	27.886	
O	 0.14433598	 1.3783767806	-0.0455573437	-0.435889
C	 0.0268172131	-0.0152662636	-0.0324949956	 0.054672
C	 0.3142016332	-0.7280534219	 1.3040982832	-0.072102
N	-0.6792828894	-0.1567695881	 2.2501011965	-0.360345
C	-1.0685037561	-1.2789544547	 1.3476405951	-0.165499
C	-1.4048839412	-0.6338786973	 0.0236191453	 0.384772
C	-2.6790426341	 0.00791998	-0.4219057878	-0.316252
C	-2.1566847406	-1.2249359453	-1.1286548695	-0.350279
H	-0.2800047186	 1.6751559166	 0.7717257917	 0.290933
H	 0.6187615253	-0.4027018282	-0.8659789027	 0.088901
H	 1.24973027	-1.1411272256	 1.6601199587	 0.093856
H	-0.4803098337	-0.5513593697	 3.1687106819	 0.231544
H	-1.4225255031	-2.220390728	 1.7493721589	 0.095798
H	-3.5580163239	-0.0910736591	 0.2064834684	 0.11203
H	-2.591395171	 0.962311521	-0.9312325236	 0.123096
H	-1.7370125363	-1.1109835876	-2.1235740129	 0.114835
H	-2.6819869234	-2.1623975592	-0.9733401641	 0.109928
123.9499	199.9539	235.6386	258.7636	407.3932	482.6548	511.3547	596.9647	642.0881	750.7387	777.0046	827.0327	835.6612	877.4786	898.4304	935.1314	960.6287	967.2349	987.0059	1035.4801	1050.6545	1076.0111	1091.3156	1107.3624	1129.8407	1186.0065	1188.4729	1226.9038	1264.7629	1297.5681	1314.8755	1349.506	1415.0676	1442.4845	1464.2028	1506.4058	3081.9819	3119.5906	3128.1725	3185.438	3198.4293	3198.7263	3216.7242	3477.3634	3749.2406
OC1C2NC2C11CC1	O[C@H]1[C@H]2N[C@H]2C21CC2	
InChI=1S/C6H9NO/c8-5-3-4(7-3)6(5)1-2-6/h3-5,7-8H,1-2H2	InChI=1S/C6H9NO/c8-5-3-4(7-3)6(5)1-2-6/h3-5,7-8H,1-2H2/t3-,4+,5-/m0/s1
