18
gdb 54038	2.16837	1.62671	0.97299	2.9365	75.63	-0.2461	-0.0058	0.2403	1192.9361	0.148357	-435.285051	-435.276039	-435.275095	-435.31927	33.407	
N	-0.1296668227	 1.2898532588	 0.659760335	-0.564681
C	 0.0082613313	-0.0271890425	 0.2368430958	 0.452823
O	 1.093997291	-0.5548202935	 0.1360393663	-0.37129
N	-1.1915143154	-0.6799772927	-0.1060959384	-0.128258
C	-2.4092714576	-0.0066606523	-0.1571854322	 0.057003
N	-3.5249414823	-0.6177775117	-0.1535788525	-0.44555
C	-1.1795071788	-2.1200612613	-0.2499540088	 0.05269
C	-1.7412526238	-2.7322896511	-1.5032336429	-0.253891
C	-0.2600802557	-2.765194676	-1.2496476885	-0.258224
H	 0.752964483	 1.6529218695	 0.9896688047	 0.26483
H	-0.9107757476	 1.5242032612	 1.2530318271	 0.257854
H	-2.2875937261	 1.0760429356	-0.2389943206	 0.116035
H	-4.2845781948	 0.0548088624	-0.2445663664	 0.226182
H	-1.362452915	-2.6485503365	 0.6808238196	 0.104863
H	-2.3263006007	-3.6373917811	-1.3907738184	 0.117565
H	-2.1112870297	-2.0540892218	-2.2620915862	 0.121551
H	 0.3749532261	-2.1100826951	-1.8301433141	 0.134018
H	 0.2096203087	-3.6967742716	-0.9552259296	 0.11648
61.4159	77.9438	145.1668	194.8226	217.4814	279.7305	386.3823	409.9633	437.5537	499.0139	535.9507	595.6343	672.5716	712.2021	776.6547	787.8831	826.4719	832.5774	917.0715	966.104	1046.7225	1069.9423	1075.1097	1081.6979	1115.8655	1119.025	1186.7207	1190.8866	1197.9871	1242.199	1329.9796	1390.3786	1415.0137	1431.0406	1467.9869	1504.9616	1625.1043	1707.9268	1809.3219	3091.9035	3144.3997	3149.8187	3156.3854	3232.4821	3250.5259	3498.6071	3573.503	3683.0868
NC(=O)N(C=N)C1CC1	NC(=O)N(C=N)C1CC1	
InChI=1S/C5H9N3O/c6-3-8(5(7)9)4-1-2-4/h3-4,6H,1-2H2,(H2,7,9)	InChI=1S/C5H9N3O/c6-3-8(5(7)9)4-1-2-4/h3-4,6H,1-2H2,(H2,7,9)
