21
gdb 119388	3.11839	0.95233	0.84541	2.6721	79.06	-0.2497	0.0729	0.3226	1426.6776	0.182023	-424.168052	-424.158793	-424.157849	-424.202514	34.999	
O	-0.1483907002	 1.4317525248	 0.0814630214	-0.417701
C	 0.0069495402	 0.0207029113	 0.0658007312	-0.073773
C	-1.3843845761	-0.5988781199	-0.0026747226	-0.321406
C	-1.3810781462	-2.1056345607	-0.015035999	 0.297725
C	-0.8099587486	-3.0746831841	-1.098773082	-0.25738
C	-1.4182780484	-4.0104516902	-0.0183858244	-0.101199
C	-0.7543853774	-3.0827581016	 1.0401467577	-0.291315
C	-2.6385077532	-3.0409725677	-0.0180866585	 0.152267
O	-3.5705175238	-3.0140921643	 1.02518007	-0.451238
H	 0.7257268702	 1.8305606326	 0.1187010807	 0.284705
H	 0.6035481103	-0.3053314897	-0.801370131	 0.086973
H	 0.5276562695	-0.3328175021	 0.9705531373	 0.08589
H	-1.9689020523	-0.2425823593	 0.8547478184	 0.109864
H	-1.8904824877	-0.2242384219	-0.9010504574	 0.108919
H	-1.2987317316	-3.0619466167	-2.0778371989	 0.091374
H	 0.2777926079	-3.1044516848	-1.1952474982	 0.093331
H	-1.430887813	-5.1007538159	-0.024638055	 0.07335
H	 0.3377378067	-3.111627224	 1.0910227868	 0.093922
H	-1.1667269323	-3.0756106714	 2.0550807922	 0.074462
H	-3.2265109498	-3.023924206	-0.9403894233	 0.079351
H	-3.1078682543	-3.0664578783	 1.8675690646	 0.281877
64.5937	86.4972	120.008	219.4877	263.6079	269.1478	301.4199	345.3622	354.7917	477.9884	533.9178	615.5364	696.9777	753.0461	794.2539	832.9227	870.3592	919.7775	925.5005	951.9494	1004.0327	1019.0067	1025.5337	1060.0832	1076.2718	1096.1107	1136.4886	1145.5398	1161.4932	1173.0002	1209.1929	1228.2198	1237.9906	1245.5115	1260.9469	1283.6298	1306.2957	1314.845	1366.9096	1451.5061	1461.8115	1483.7802	1506.2739	1527.3866	1547.148	2963.2335	2988.9156	3027.631	3034.4959	3048.7682	3068.5363	3073.7071	3091.9582	3110.8425	3116.7283	3817.3846	3830.2954
OCCC12CC(C1)C2O	OCC[C@@]12C[C@@H](C1)[C@H]2O	
InChI=1S/C7H12O2/c8-2-1-7-3-5(4-7)6(7)9/h5-6,8-9H,1-4H2	InChI=1S/C7H12O2/c8-2-1-7-3-5(4-7)6(7)9/h5-6,8-9H,1-4H2/t5-,6-,7+/m1/s1
