20
gdb 57052	2.36764	1.31962	0.92826	2.9203	78.63	-0.2556	0.0294	0.2851	1282.1691	0.169997	-403.151367	-403.141679	-403.140735	-403.186688	34.753	
C	-0.0369190797	 1.5790211166	-0.0525503568	-0.399926
C	 0.0285306932	 0.0386329317	 0.0008453618	-0.166995
C	 0.8296381091	-0.3906262592	 1.1534706436	 0.280156
N	 1.4457087332	-0.7224207613	 2.0736692223	-0.330227
C	-1.3756177025	-0.5859633101	 0.0577871488	-0.044467
C	-2.2244466457	-0.4631378971	-1.2259362287	-0.097083
O	-2.3089295573	-1.8899279559	-1.370142006	-0.287398
C	-1.5535747249	-2.1202705098	-0.1535114675	 0.141121
C	-0.3573170091	-3.0222468237	-0.3842730604	-0.415868
H	 0.9648893379	 2.0107551332	-0.1118606314	 0.14109
H	-0.6022114231	 1.8982065396	-0.9323396555	 0.131383
H	-0.5291175464	 1.9770420322	 0.8391956137	 0.139799
H	 0.5421997951	-0.3183368226	-0.9002217701	 0.130039
H	-1.8817361042	-0.2229756471	 0.9554850559	 0.095546
H	-3.2091565997	 0.0025922224	-1.0973393647	 0.106184
H	-1.7244207022	 0.0063270276	-2.0844691181	 0.099331
H	-2.2011838327	-2.5624345333	 0.6155508837	 0.084148
H	 0.3082072725	-2.6246485241	-1.1559291632	 0.117511
H	 0.2132591658	-3.1590484497	 0.538957022	 0.14446
H	-0.7078606792	-4.0026675396	-0.7211755495	 0.131199
35.2599	89.9839	122.8608	202.592	215.2941	228.729	234.5671	292.2161	362.2381	398.5158	459.9876	544.5772	598.1492	755.0841	785.5885	861.3483	882.4985	916.3752	968.7896	1024.1541	1025.1899	1053.6069	1083.1352	1094.7021	1112.8036	1162.7686	1164.8879	1194.5525	1259.9334	1274.6918	1300.2412	1331.4675	1362.2794	1388.0788	1392.3758	1410.0334	1414.3667	1482.8972	1492.8783	1497.6922	1499.7162	1526.5546	2354.25	2999.8849	3009.3213	3038.5977	3044.0895	3044.5151	3049.0886	3083.0741	3113.963	3124.2103	3125.323	3130.1127
CC(C#N)C1COC1C	C[C@@H](C#N)[C@H]1CO[C@H]1C	
InChI=1S/C7H11NO/c1-5(3-8)7-4-9-6(7)2/h5-7H,4H2,1-2H3	InChI=1S/C7H11NO/c1-5(3-8)7-4-9-6(7)2/h5-7H,4H2,1-2H3/t5-,6-,7+/m0/s1
