19
gdb 32750	2.62288	1.32486	1.00973	3.709	78.4	-0.2041	0.0389	0.243	1233.5285	0.159236	-419.243449	-419.234129	-419.233185	-419.278227	33.653	
C	-0.8004871208	 0.9261978898	 0.6347395462	-0.382516
C	 0.0391641948	 0.06867894	-0.2997423247	-0.068852
O	-0.7545615989	-0.8427417362	-1.0856421143	-0.280239
C	-1.2520779018	-1.9148617933	-0.4278872645	 0.28062
C	-2.5116735651	-2.2214451593	 0.0208846012	 0.190002
C	-3.7468785175	-1.3853390328	-0.0471231147	-0.493045
N	-2.508577243	-3.4955823691	 0.5600184439	-0.30981
C	-1.2824538761	-3.9420763343	 0.4386000864	 0.002036
N	-0.4655422707	-3.0235321467	-0.1531681894	-0.305366
H	-0.1542775971	 1.6105265623	 1.1942299381	 0.11816
H	-1.5246983045	 1.5190034357	 0.0689915747	 0.130674
H	-1.3433835391	 0.304808146	 1.352202071	 0.138691
H	 0.5607400529	 0.6855103439	-1.0366455568	 0.114451
H	 0.7939358929	-0.4960362919	 0.2642653237	 0.095157
H	-3.5528823129	-0.4578910412	-0.5919105842	 0.121445
H	-4.5528206178	-1.9226085713	-0.5580423446	 0.132181
H	-4.1151813198	-1.1280231454	 0.9524164227	 0.126228
H	-0.9247066294	-4.9097056754	 0.7583770372	 0.125468
H	 0.4965011137	-3.1408866009	-0.4235984119	 0.264716
49.563	77.9777	130.841	158.704	237.1118	246.5819	271.1718	340.6766	457.3586	475.7821	501.355	625.4665	685.0597	703.7923	737.3296	793.8424	816.3356	889.1897	950.0287	980.564	1040.3449	1066.8902	1100.9057	1109.3908	1156.0599	1190.8749	1256.8592	1289.2819	1323.4918	1368.4471	1399.4401	1410.5154	1416.6131	1458.4417	1479.3263	1484.2829	1491.6184	1494.3088	1511.7347	1524.7229	1654.5526	3015.1554	3032.2865	3042.8667	3084.7226	3090.9785	3114.3138	3121.1549	3128.701	3245.0638	3664.2725
CCOC1=C(C)N=CN1	CCOc1c(C)nc[nH]1	
InChI=1S/C6H10N2O/c1-3-9-6-5(2)7-4-8-6/h4H,3H2,1-2H3,(H,7,8)	InChI=1S/C6H10N2O/c1-3-9-6-5(2)7-4-8-6/h4H,3H2,1-2H3,(H,7,8)
