14
gdb 5402	5.35277	1.61724	1.25191	3.2164	66.33	-0.2463	-0.0389	0.2074	917.314	0.109487	-378.760347	-378.753715	-378.752771	-378.791322	24.281	
C	-0.0599623465	 1.401601362	-0.0598428326	-0.251704
O	 0.0087763944	-0.0147071649	 0.0081166134	-0.260492
C	 0.6413599551	-0.5665634582	 1.0679420743	 0.307152
C	 1.2456905691	 0.1196667312	 2.1214243622	-0.098487
N	 1.8478362048	-0.5259646734	 3.1260903281	-0.242863
C	 1.843645466	-1.8534868922	 3.0740114532	 0.063395
N	 1.2969497998	-2.6115533618	 2.1163254335	-0.24165
C	 0.7014024335	-1.9647782847	 1.1229519872	-0.040589
H	 0.940157265	 1.8501263979	-0.1067372338	 0.133026
H	-0.6027703218	 1.6336283836	-0.9767247123	 0.144937
H	-0.6017116098	 1.8186960544	 0.7981489766	 0.133028
H	 1.2523881486	 1.2041976224	 2.1695773151	 0.112889
H	 2.3327050721	-2.3783398857	 3.8899081094	 0.117679
H	 0.2461654199	-2.5501760607	 0.3270574757	 0.123678
96.954	202.1873	248.4538	269.1148	436.779	446.9501	521.4762	587.4024	626.5781	751.8696	830.4706	918.6268	968.9654	992.9108	1040.5113	1063.8343	1151.1342	1176.6704	1201.5208	1222.8657	1254.179	1315.2676	1368.3087	1453.5258	1470.3393	1492.4011	1492.6285	1505.4213	1592.8025	1621.9375	3011.431	3074.2839	3144.2655	3157.886	3172.4181	3176.8644
COC1=CN=CN=C1	COc1cncnc1	
InChI=1S/C5H6N2O/c1-8-5-2-6-4-7-3-5/h2-4H,1H3	InChI=1S/C5H6N2O/c1-8-5-2-6-4-7-3-5/h2-4H,1H3
