20
gdb 122581	5.10147	0.66477	0.62286	2.3176	75.82	-0.2465	0.0253	0.2718	1775.8418	0.171297	-440.29602	-440.286584	-440.28564	-440.331811	33.205	
O	-0.0638575264	 1.4296121202	 0.0801894107	-0.419989
C	-0.0001636498	 0.0133966621	 0.1408064433	-0.075042
C	-1.4162793832	-0.525176841	-0.013679994	-0.171022
C	-1.4742802556	-2.0543886559	 0.0190358132	-0.206856
C	-2.8841409574	-2.6164658961	-0.1156904424	 0.091898
C	-2.9814372843	-4.1638173099	-0.0113511038	-0.201812
N	-3.7905240476	-4.4251641663	 1.1923490449	-0.262893
C	-4.1115997136	-3.2847121419	 1.6391432004	 0.12131
O	-3.7026186891	-2.1618089939	 1.0042020891	-0.230116
H	 0.8259572215	 1.7765515384	 0.1912493359	 0.285849
H	 0.64277379	-0.3916102969	-0.6588793474	 0.081645
H	 0.4240773831	-0.3271731452	 1.0999492594	 0.085308
H	-2.0408113385	-0.1137163012	 0.7855782849	 0.125447
H	-1.8280406535	-0.1525475017	-0.9598888093	 0.104809
H	-0.8707804999	-2.4737070463	-0.7977622665	 0.102075
H	-1.0401210271	-2.4338654046	 0.9538017647	 0.106713
H	-3.3604190517	-2.2302528775	-1.023096037	 0.092495
H	-3.4616216353	-4.6156804968	-0.885253972	 0.117364
H	-1.9944536654	-4.6286616901	 0.0954880312	 0.1132
H	-4.7132395163	-3.1033247655	 2.5232707649	 0.139617
46.5725	71.8111	88.3173	120.7618	156.5077	262.7112	283.0864	301.4241	435.3648	486.2631	538.6503	729.9812	760.8444	822.1032	873.5279	890.8508	955.6043	965.6893	979.0429	997.8563	1036.8842	1066.6025	1078.0754	1095.5396	1129.5976	1151.2102	1201.9334	1224.1391	1243.9034	1293.2686	1302.9726	1311.8762	1318.7514	1322.5058	1349.6194	1378.1006	1407.8412	1464.5963	1475.638	1500.3019	1501.4225	1529.2746	1710.6053	2954.0112	2978.9633	3011.4923	3035.4501	3037.04	3040.7345	3057.2714	3075.5538	3094.315	3213.3094	3830.9093
OCCCC1CN=CO1	OCCC[C@H]1CN=CO1	
InChI=1S/C6H11NO2/c8-3-1-2-6-4-7-5-9-6/h5-6,8H,1-4H2	InChI=1S/C6H11NO2/c8-3-1-2-6-4-7-5-9-6/h5-6,8H,1-4H2/t6-/m0/s1
