17
gdb 73339	2.45626	1.927	1.53259	3.25	71.38	-0.2391	-0.0019	0.2372	928.2236	0.136224	-421.82028	-421.812863	-421.811919	-421.851931	29.04	
C	-0.0475843142	 1.5133092227	-0.0048598087	-0.491719
C	-0.0219146962	 0.0016162134	 0.0545810728	 0.127175
C	-1.3844090845	-0.7095994224	 0.0253984494	-0.1192
O	-1.1135762626	-2.0701351005	 0.3795204609	-0.262739
C	 0.1622374697	-2.0960025535	 0.9618601748	 0.115653
C	 1.3863791712	-1.7034963974	 0.1170447165	-0.244967
C	 0.729189537	-0.7638001038	 1.1935528732	-0.175537
C	 0.9588389256	-0.7190918927	-0.9133858474	 0.429181
O	 1.3653900001	-0.4254666288	-2.0043194363	-0.345844
H	 0.9598522223	 1.929447768	 0.0835203193	 0.132733
H	-0.4563009912	 1.8466772864	-0.9634509265	 0.141908
H	-0.6659729523	 1.9326448276	 0.7958854088	 0.12048
H	-2.0764188251	-0.2587460659	 0.7526178645	 0.09978
H	-1.8499285099	-0.6932681649	-0.9648991665	 0.125862
H	 0.3058502885	-2.923031437	 1.6467245502	 0.122842
H	 2.3114038564	-2.2664612243	 0.1549227841	 0.110183
H	 1.1779516852	-0.3483118971	 2.084658561	 0.11421
129.5444	173.8824	210.2811	251.7054	290.3698	417.1086	469.1152	558.7793	657.9798	688.9508	717.3162	745.1316	796.8987	840.1709	860.7469	916.4455	941.1686	953.1973	961.3139	1015.1358	1024.8269	1057.9883	1112.6411	1127.8573	1171.806	1190.464	1204.1567	1237.4611	1280.0937	1298.2388	1365.0985	1405.5646	1415.7095	1490.6302	1492.8308	1514.6011	1868.4897	2991.0836	3038.1443	3082.6305	3106.6467	3115.8189	3189.6266	3197.4202	3220.3875
CC12COC3C(C13)C2=O	C[C@]12CO[C@H]3[C@H]([C@@H]13)C2=O	
InChI=1S/C7H8O2/c1-7-2-9-5-3(4(5)7)6(7)8/h3-5H,2H2,1H3	InChI=1S/C7H8O2/c1-7-2-9-5-3(4(5)7)6(7)8/h3-5H,2H2,1H3/t3-,4+,5-,7-/m0/s1
