18
gdb 127593	3.0328	1.30158	0.95282	2.4974	76.	-0.1983	0.0369	0.2353	1221.8486	0.149134	-435.28036	-435.271169	-435.270225	-435.314479	33.391	
C	 0.1984780803	 1.3279225172	 0.0686922524	-0.339178
N	-0.0816983216	-0.0863620574	 0.0040194998	-0.005968
N	-0.5202382386	-0.6503132854	-1.1613197669	-0.292833
C	-0.6560537218	-1.9365095546	-0.8687930361	-0.088278
C	-0.3113352034	-2.2342131751	 0.4680380261	 0.085942
C	-0.3319164089	-3.5257165756	 1.2175125177	-0.201893
O	 0.8417462173	-3.705255579	 2.0274748289	-0.416839
C	 0.063065999	-1.0010337824	 0.9927804205	 0.319424
N	 0.4519179822	-0.6707111354	 2.2868346272	-0.612953
H	 1.2768200407	 1.5305842646	 0.0983664748	 0.127887
H	-0.2185423465	 1.7831932036	-0.8289377841	 0.164995
H	-0.2703867055	 1.7706683186	 0.9532982359	 0.143199
H	-1.0048025876	-2.621460849	-1.6296459668	 0.104385
H	-1.1596876131	-3.5728059408	 1.9353157926	 0.119458
H	-0.4631758249	-4.3669015795	 0.5216969072	 0.102258
H	 1.597792635	-3.642894239	 1.4328320676	 0.280534
H	 0.7588756433	-1.5037959153	 2.7779424705	 0.264273
H	 1.1591785542	 0.0516123847	 2.3375021127	 0.245585
77.4503	100.2843	126.2038	186.9059	233.5323	275.9516	290.1814	341.8414	394.1478	445.442	493.2825	629.6026	644.8246	700.2423	734.0464	800.4864	809.8958	877.9194	971.4141	985.5647	1016.1451	1050.1946	1150.3537	1183.1646	1225.1684	1231.1297	1266.286	1314.1372	1348.2042	1398.2745	1429.5917	1436.7977	1467.8491	1488.5084	1506.6406	1508.3287	1579.307	1611.385	1663.8567	3001.0653	3018.5545	3047.5929	3083.5423	3162.2316	3228.6497	3516.4872	3611.8954	3797.6899
CN1N=CC(CO)=C1N	Cn1ncc(CO)c1N	
InChI=1S/C5H9N3O/c1-8-5(6)4(3-9)2-7-8/h2,9H,3,6H2,1H3	InChI=1S/C5H9N3O/c1-8-5(6)4(3-9)2-7-8/h2,9H,3,6H2,1H3
