23
gdb 100958	2.15346	1.17184	0.96439	0.2361	81.91	-0.249	0.0739	0.3229	1371.1332	0.202818	-425.410716	-425.399753	-425.398809	-425.446294	40.757	
C	 2.2952934683	 1.6908054719	 0.0684492335	-0.415204
C	 0.9058948484	 1.3392212211	 0.6223206258	-0.023339
C	-0.0571046247	 0.9444404351	-0.5010544402	-0.08072
O	-0.1643064231	 2.0405994104	-1.4014138864	-0.428193
C	 0.9802491432	 0.2375066512	 1.6704193992	 0.401462
O	 1.4333923804	-1.0024601867	 1.1691069637	-0.479753
C	 1.3631512588	 0.5626089627	 3.095958854	-0.367318
C	-0.0385674971	 0.0776537124	 2.7664522668	-0.031377
C	-1.2456085804	 0.9699220117	 2.9519182077	-0.418561
H	 2.7532160101	 0.8278280207	-0.4306194964	 0.101166
H	 2.216193995	 2.4886040405	-0.672142674	 0.137089
H	 2.9670882493	 2.0189123141	 0.8680314481	 0.109401
H	 0.4984026073	 2.2390261754	 1.0976976022	 0.079782
H	 0.3251531979	 0.0444656709	-1.0036498183	 0.095947
H	-1.0378604216	 0.6902943179	-0.0710171545	 0.086997
H	-0.6926932454	 1.7590929061	-2.1533276832	 0.285515
H	 2.3775687747	-0.9211790766	 0.9953710784	 0.281309
H	 2.0327703869	-0.1225509521	 3.6044424432	 0.10747
H	 1.486366547	 1.6072888777	 3.3666479671	 0.106109
H	-0.2118016303	-0.9663498908	 3.012620895	 0.09512
H	-1.0313452593	 2.0119255491	 2.6975167334	 0.119973
H	-2.0884392437	 0.6421959566	 2.3335134119	 0.119358
H	-1.5758061118	 0.9521656004	 3.996502253	 0.117766
72.2403	91.2444	145.9451	201.3611	206.9661	231.8175	234.7144	243.9223	275.7934	317.9875	335.1347	359.7692	448.9424	465.6353	502.4599	553.2595	746.6194	803.809	853.6601	895.2046	922.2499	931.4975	935.1564	1003.7605	1032.0018	1041.1962	1065.6499	1098.1992	1112.3528	1133.2716	1164.6661	1185.917	1213.5928	1255.1615	1265.9423	1290.5328	1317.1097	1351.7463	1370.6787	1394.2827	1411.1197	1427.0847	1453.6395	1485.4048	1493.2951	1494.7846	1507.1971	1511.8566	1524.134	2983.3119	3018.6939	3027.3508	3030.0419	3048.6473	3087.751	3092.5382	3104.1954	3121.8742	3134.8557	3150.074	3212.5657	3799.2174	3835.5706
CC(CO)C1(O)CC1C	C[C@@H](CO)[C@@]1(O)C[C@H]1C	
InChI=1S/C7H14O2/c1-5-3-7(5,9)6(2)4-8/h5-6,8-9H,3-4H2,1-2H3	InChI=1S/C7H14O2/c1-5-3-7(5,9)6(2)4-8/h5-6,8-9H,3-4H2,1-2H3/t5-,6+,7-/m1/s1
