19
gdb 89373	2.91806	1.53979	1.38395	2.3055	74.5	-0.2318	0.0217	0.2536	1001.9854	0.160511	-423.027329	-423.019623	-423.018679	-423.058832	31.95	
O	-0.026220208	 1.4256190291	-0.0556648436	-0.439373
C	 0.0125755679	 0.0135383432	 0.0330424508	 0.147774
C	 0.6165389291	-0.5525057414	 1.3554680111	-0.3089
C	-0.5683100285	-1.3994464346	 1.9420650714	 0.39522
O	-0.2408852355	-2.2871537445	 2.9774671146	-0.507916
C	-1.1852266885	-1.9552648339	 0.6308258602	-0.278532
C	-1.4455077068	-0.5462256001	 0.051138042	-0.091716
C	-2.1555893539	 0.1100295862	 1.2266205019	-0.065834
C	-1.638331511	-0.4033772747	 2.3446365933	-0.101494
H	 0.8790641681	 1.7510738606	-0.0553027152	 0.281294
H	 0.5428815761	-0.4054402331	-0.8347430118	 0.064287
H	 1.4845897232	-1.1939032748	 1.1600957917	 0.079055
H	 0.9225378608	 0.2465812474	 2.034581443	 0.103937
H	 0.4867054467	-2.842147147	 2.6779744946	 0.273483
H	-0.4824328103	-2.5545936113	 0.0389506681	 0.077663
H	-2.1005625336	-2.522364824	 0.8106933691	 0.105043
H	-1.9452270407	-0.4770351342	-0.9148928554	 0.065549
H	-2.8624590985	 0.9239740222	 1.1402775378	 0.100832
H	-1.8202031465	-0.1170975349	 3.3724543463	 0.099629
150.5772	244.5246	260.5235	289.3782	335.9485	379.0395	421.7105	474.872	486.6134	515.1898	629.9712	673.4543	747.3996	762.0109	805.4433	841.478	897.177	931.0603	939.6508	947.506	975.5994	1001.471	1035.5687	1076.5181	1086.6895	1135.512	1148.6138	1176.0932	1191.7861	1208.4533	1235.1423	1247.8829	1288.9041	1312.8954	1322.4662	1360.5261	1410.7901	1418.7812	1476.414	1498.0409	1652.0429	2981.9067	3028.2591	3036.6838	3104.9427	3114.2059	3119.5879	3208.9383	3234.3636	3810.93	3822.5409
OC1CC2(O)CC1C=C2	O[C@H]1C[C@]2(O)C[C@H]1C=C2	
InChI=1S/C7H10O2/c8-6-4-7(9)2-1-5(6)3-7/h1-2,5-6,8-9H,3-4H2	InChI=1S/C7H10O2/c8-6-4-7(9)2-1-5(6)3-7/h1-2,5-6,8-9H,3-4H2/t5-,6+,7-/m1/s1
