23
gdb 59427	3.17297	1.01743	0.89573	1.353	86.55	-0.2524	0.0741	0.3266	1423.6199	0.204679	-388.268055	-388.258184	-388.257239	-388.303102	37.294	
C	 0.0090806164	 1.5150386777	-0.3978069364	-0.395732
C	 0.0039753701	 0.0778375291	 0.1264269642	 0.124521
O	 0.6331294239	-0.0034559966	 1.4087572583	-0.43321
C	-1.3855750377	-0.5245551335	 0.150647599	-0.092127
C	-1.9182796184	-1.2847594161	-1.0472124053	-0.3628
C	-1.5603990378	-2.0110631799	 0.2185170454	 0.376747
C	-0.4716142914	-3.0866996709	 0.3691912611	-0.293035
C	-1.5466627902	-4.0244091905	 0.9949005774	-0.208009
C	-2.5254702975	-2.8167508371	 1.1007685148	-0.298635
H	 1.0247922921	 1.9197775923	-0.392052905	 0.120222
H	-0.3853833937	 1.5627766314	-1.4176684388	 0.118551
H	-0.6187019467	 2.1575370547	 0.2324967221	 0.102974
H	 0.6399945976	-0.5394045075	-0.5194751247	 0.083977
H	 0.0887836288	 0.492985732	 2.029862436	 0.272976
H	-2.1169177673	 0.0703350652	 0.6997603025	 0.066434
H	-2.9671515964	-1.1712493725	-1.3038761486	 0.106298
H	-1.2607087082	-1.4014819896	-1.9049109742	 0.106549
H	 0.0059957776	-3.4389218825	-0.5494442675	 0.092867
H	 0.3064912249	-2.7892270831	 1.0774162483	 0.120425
H	-1.8976962515	-4.7855520989	 0.2938393827	 0.101696
H	-1.2780342006	-4.5164784605	 1.9320036687	 0.097664
H	-2.6021936455	-2.420251684	 2.1185519878	 0.09649
H	-3.5366041584	-2.9696378592	 0.7124512222	 0.095157
54.3547	83.7424	121.0465	147.227	245.0135	260.4015	284.1973	325.5144	361.7723	388.7703	457.9601	493.5436	624.4035	715.9206	783.6505	803.0099	860.9436	873.9695	893.6477	910.1317	941.0756	950.4577	976.3727	1018.7819	1036.8666	1063.1774	1078.5743	1093.6982	1109.0634	1143.4287	1185.8464	1193.7564	1219.5171	1231.3809	1255.5097	1264.1312	1277.4932	1289.917	1325.8067	1353.6137	1399.9373	1415.3753	1436.4739	1478.6458	1481.3845	1490.7162	1491.0718	1496.2095	1508.4764	3024.5822	3039.6668	3041.2098	3052.4694	3066.223	3087.0424	3091.3483	3097.3762	3100.4013	3111.2734	3118.9591	3122.204	3195.6354	3799.4735
CC(O)C1CC11CCC1	C[C@@H](O)[C@H]1CC21CCC2	
InChI=1S/C8H14O/c1-6(9)7-5-8(7)3-2-4-8/h6-7,9H,2-5H2,1H3	InChI=1S/C8H14O/c1-6(9)7-5-8(7)3-2-4-8/h6-7,9H,2-5H2,1H3/t6-,7-/m1/s1
