18
gdb 66959	2.58591	1.68369	1.26574	1.2397	80.82	-0.246	0.0372	0.2832	1041.6283	0.147357	-364.727605	-364.719627	-364.718683	-364.759811	31.34	
C	-0.1041323968	 1.4734276233	-0.0846146044	-0.505904
C	 0.0675123225	-0.0083518735	 0.0297509931	 0.329052
C	 0.838010864	-0.8364510138	-0.9490214155	-0.079141
C	 1.0908768005	-2.2133035157	-0.362903333	-0.246377
C	-0.3026106651	-2.0220157543	 0.2577082547	-0.023543
C	-0.1758444714	-0.8603303224	 1.2798087581	-0.219171
C	 0.7982788745	-0.9170284676	 2.3535729829	 0.296968
C	 1.6171498823	-0.9676385151	 3.2333044397	-0.446911
N	-0.6630345155	-0.9858212477	-0.8510839019	-0.207915
H	 0.6991567637	 1.9976190452	 0.4445893044	 0.131581
H	-0.0825043077	 1.7845972469	-1.1333429834	 0.131347
H	-1.0605736835	 1.7920804346	 0.3427358672	 0.126227
H	 1.2967116312	-0.3881284523	-1.8236508	 0.094177
H	 1.070771149	-2.9778225431	-1.1435665056	 0.112907
H	 1.9419414378	-2.3729536625	 0.3050067942	 0.113199
H	-0.9706792776	-2.8575204755	 0.4544710475	 0.088126
H	-1.1707255717	-0.620939839	 1.6722491999	 0.109078
H	 2.3366001138	-1.0095701076	 4.0132989424	 0.196301
122.4904	131.31	185.3505	256.7578	292.9632	364.9223	409.9886	524.0903	556.3043	619.6004	628.6078	641.3008	739.9822	762.2346	803.6539	855.862	866.7384	934.0622	981.677	984.8433	1000.3307	1030.7162	1041.8674	1071.856	1095.3734	1131.8747	1180.7545	1194.0906	1242.8386	1261.3308	1269.2579	1323.7482	1348.3865	1406.5701	1438.6216	1482.7908	1490.8084	1495.2779	2230.7958	3032.8595	3047.145	3057.4412	3098.9865	3110.674	3113.9294	3144.0968	3175.0093	3501.9537
CC12C3CC(C1C#C)N23	C[C@@]12[C@H]3C[C@@H]([C@H]1C#C)N23	
InChI=1S/C8H9N/c1-3-5-6-4-7-8(5,2)9(6)7/h1,5-7H,4H2,2H3	InChI=1S/C8H9N/c1-3-5-6-4-7-8(5,2)9(6)7/h1,5-7H,4H2,2H3/t5-,6+,7-,8+,9?/m1/s1
