21
gdb 87395	1.9833	1.58511	1.13431	1.8192	79.28	-0.2509	0.0628	0.3137	1183.3973	0.181123	-424.197187	-424.187619	-424.186675	-424.231233	36.635	
C	-0.136357586	 1.4763202419	-0.0745355199	-0.394863
C	 0.0548946946	-0.0211006606	 0.0364470907	-0.052285
C	 1.408883313	-0.651019626	-0.1859828599	-0.365954
C	 0.7817902081	-0.6933931118	 1.1765008631	 0.283697
C	 1.2655163399	-0.0967972334	 2.5021675672	 0.040057
O	 0.9816916472	 1.2738808326	 2.6909577535	-0.428915
C	 0.3773997214	-1.1342086774	 3.2503828115	-0.30307
C	 0.2301742033	-1.925130121	 1.9198130924	 0.083943
O	-1.0300435069	-2.4355806314	 1.5593709679	-0.428948
H	 0.7333128396	 2.0151507446	 0.3050919619	 0.12973
H	-0.2950200893	 1.7592243203	-1.1214289363	 0.106284
H	-1.0027384437	 1.8152613368	 0.5026084937	 0.112369
H	-0.7795359198	-0.6101609076	-0.3412310441	 0.084799
H	 1.4737893236	-1.5778309795	-0.7483773359	 0.110174
H	 2.2507248456	 0.0217092262	-0.3275283841	 0.108493
H	 2.336589969	-0.2934409169	 2.6569925003	 0.068091
H	 1.3543353409	 1.541498103	 3.5370346736	 0.283971
H	 0.7959689793	-1.6538579147	 4.1154351785	 0.09607
H	-0.5730092659	-0.6672525988	 3.5288559431	 0.099525
H	 0.9113517686	-2.7803179149	 1.8677394568	 0.088366
H	-1.6584930723	-1.7056988612	 1.5885621662	 0.278464
65.0242	132.7277	174.0898	210.5213	240.4367	264.913	297.8145	334.5701	361.7284	390.0824	464.2173	509.45	543.0327	582.9361	693.2989	788.998	813.9895	877.7429	894.8201	910.5583	998.2607	1019.2941	1042.6246	1057.2704	1064.0181	1102.9358	1126.2988	1132.3369	1166.6613	1185.7515	1193.9164	1212.9358	1245.8922	1268.6903	1298.5488	1309.4734	1343.0797	1411.9605	1423.356	1432.3074	1444.657	1475.7001	1485.138	1489.7744	1504.276	2986.5769	3033.4972	3051.1763	3060.5246	3091.4961	3111.3629	3112.6745	3115.6814	3139.1434	3196.3732	3802.6978	3816.7053
CC1CC11C(O)CC1O	C[C@H]1C[C@]21[C@@H](O)C[C@H]2O	
InChI=1S/C7H12O2/c1-4-3-7(4)5(8)2-6(7)9/h4-6,8-9H,2-3H2,1H3	InChI=1S/C7H12O2/c1-4-3-7(4)5(8)2-6(7)9/h4-6,8-9H,2-3H2,1H3/t4-,5-,6+,7-/m0/s1
