18
gdb 35357	2.74882	1.4642	1.22217	3.6793	82.26	-0.2412	0.0044	0.2457	1075.8859	0.149718	-364.81445	-364.806858	-364.805914	-364.846727	29.456	
N	-0.1828286287	-1.1870170139	-0.0245203883	-0.334279
C	-0.1430183222	-0.0315116976	 0.0133626944	 0.298428
C	-0.0681471386	 1.4173869004	 0.0571545235	-0.208078
C	-0.0855162839	 2.0134797719	 1.5301327796	-0.336589
C	 1.4161015111	 2.1078308068	 1.3983738174	 0.317062
C	 2.5738282288	 1.7566034324	 1.9441434115	-0.221542
C	 3.5872175832	 1.4823389455	 0.8348468795	-0.239709
C	 2.690714762	 1.2213749114	-0.4238330581	-0.256466
C	 1.4064341012	 2.0031084146	-0.1005427196	-0.039014
H	-0.8121083731	 1.8393603742	-0.6224694137	 0.121242
H	-0.6005289017	 2.9790277	 1.5349521326	 0.122852
H	-0.4942937923	 1.3822015952	 2.3205902946	 0.13621
H	 2.7844532107	 1.5933357925	 2.9944079895	 0.100958
H	 4.265573526	 2.3322438968	 0.6764535443	 0.108481
H	 4.2214853328	 0.6212744415	 1.0693773821	 0.112383
H	 3.1682388771	 1.5276494457	-1.35812723	 0.099283
H	 2.4721517882	 0.1507851444	-0.4950312002	 0.132644
H	 1.3362115593	 2.9620110283	-0.6266869593	 0.086132
77.7103	139.6405	198.4251	269.1704	326.6481	372.3332	501.6044	576.02	584.7371	658.5118	760.8516	765.3018	795.5101	835.2366	864.2235	897.9315	928.9078	952.4518	965.6504	993.2769	1050.7235	1071.8089	1096.5804	1123.0649	1157.9578	1182.9699	1213.2669	1223.7568	1247.3085	1270.3074	1307.4929	1322.625	1334.6958	1351.8192	1474.9076	1483.0905	1497.0506	1742.4226	2350.1528	3011.816	3035.9078	3052.6956	3057.3958	3071.8472	3086.3799	3106.0632	3126.6321	3203.6351
N#CC1CC2=CCCC12	N#C[C@H]1C[C]2[CH]CC[C@@H]12	
InChI=1S/C8H9N/c9-5-7-4-6-2-1-3-8(6)7/h2,7-8H,1,3-4H2	InChI=1S/C8H9N/c9-5-7-4-6-2-1-3-8(6)7/h2,7-8H,1,3-4H2/t7-,8-/m1/s1
