23
gdb 89076	5.17298	0.55253	0.52548	0.9355	93.1	-0.2544	0.0589	0.3134	2136.3263	0.203687	-351.116985	-351.106351	-351.105406	-351.153532	38.911	
C	 0.1747958508	 1.553284172	-0.3155705362	-0.403961
C	 0.0835923494	 0.0635252486	-0.0631949119	-0.005372
C	 1.3232596891	-0.7968393201	 0.0060835464	-0.29082
C	 0.4845024172	-0.5805353921	 1.2460271616	 0.006282
C	 1.0217533696	 0.1980580266	 2.4297158007	-0.210811
C	 1.8379877233	-0.6812163561	 3.385497381	-0.163569
C	 2.3702924311	 0.1045754123	 4.6009885877	-0.357946
C	 3.1390761316	-0.7210573261	 5.5242863092	 0.292395
C	 3.7677558921	-1.4251527877	 6.2687691149	-0.437514
H	 1.074723487	 1.990865258	 0.1258684233	 0.11497
H	 0.2075728647	 1.7611078574	-1.3908659015	 0.116226
H	-0.6898879803	 2.084752141	 0.0981493095	 0.115043
H	-0.7730469613	-0.4019002117	-0.545088695	 0.080771
H	 1.3218174639	-1.7703161613	-0.4722346579	 0.107239
H	 2.2812023548	-0.2856378764	-0.038069569	 0.104753
H	-0.1318727231	-1.4279885881	 1.5398261718	 0.078652
H	 1.6483150998	 1.0290627532	 2.0838014835	 0.093296
H	 0.1880210126	 0.6547144061	 2.9819917752	 0.094246
H	 1.2221608783	-1.5146254547	 3.7435877775	 0.107209
H	 2.6813013602	-1.1294936065	 2.8486222451	 0.112748
H	 2.9937114617	 0.9386267502	 4.2518238267	 0.127108
H	 1.5277496283	 0.5625262478	 5.1362209489	 0.127554
H	 4.3247533992	-2.0375968523	 6.9332872186	 0.191499
42.5816	80.8524	91.3319	120.5607	151.5151	198.652	254.4027	300.1621	346.3385	349.8459	432.2501	473.1792	556.2393	614.1326	631.9033	739.5813	762.9302	819.4876	840.2996	863.588	912.477	943.8884	965.9396	1012.8858	1031.2515	1052.4371	1068.6062	1092.4856	1113.0211	1141.7333	1151.9799	1199.3295	1214.2373	1248.2348	1261.3181	1299.8965	1323.2164	1343.393	1381.9259	1397.5064	1419.271	1431.2224	1473.3952	1480.8071	1493.6231	1495.3273	1505.3562	1507.4101	2238.194	3005.9608	3012.8822	3028.581	3037.3735	3041.2614	3050.3497	3085.1826	3085.7513	3103.0024	3119.146	3121.0155	3134.6256	3205.1261	3507.8118
CC1CC1CCCC#C	C[C@H]1C[C@H]1CCCC#C	
InChI=1S/C9H14/c1-3-4-5-6-9-7-8(9)2/h1,8-9H,4-7H2,2H3	InChI=1S/C9H14/c1-3-4-5-6-9-7-8(9)2/h1,8-9H,4-7H2,2H3/t8-,9+/m0/s1
