20
gdb 126551	5.3048	0.77977	0.72093	2.7209	82.86	-0.2475	0.0154	0.263	1646.7268	0.172018	-399.371085	-399.361614	-399.36067	-399.406651	33.237	
C	-0.0943602818	 1.551676496	-0.0382797677	-0.380938
C	-0.1287445167	 0.0225558559	-0.0769543339	-0.159094
C	 0.8808396499	-0.5672485179	-1.0780772413	-0.28524
C	 0.8144917455	-2.0580398795	-1.1573253847	 0.34611
N	 1.8115415721	-2.8433476159	-0.7678033242	-0.312658
N	 1.3229953016	-4.0881296871	-0.9974266996	 0.06084
C	 2.1155920116	-5.2614133214	-0.7061014276	-0.319827
C	 0.0781229268	-3.9942859611	-1.5040171126	-0.001492
N	-0.2819444811	-2.7313874723	-1.621159744	-0.315451
H	 0.8961708343	 1.9207122054	 0.2509215928	 0.112905
H	-0.3315362736	 1.9780143018	-1.0195380334	 0.114285
H	-0.8193397016	 1.9469814361	 0.6800357309	 0.11094
H	 0.0822601911	-0.380603668	 0.9211670652	 0.098751
H	-1.1320339065	-0.3257877242	-0.3457317764	 0.117935
H	 0.6805774419	-0.1506006736	-2.073187577	 0.112652
H	 1.9005785857	-0.2799529051	-0.8032742616	 0.113222
H	 2.3706625217	-5.2913131894	 0.356332802	 0.154061
H	 1.5362106335	-6.1500078777	-0.9636148065	 0.142029
H	 3.0387212151	-5.2493325121	-1.2912621282	 0.154276
H	-0.5120930695	-4.8596505599	-1.7684446123	 0.136695
38.3954	84.4767	98.0678	109.6101	201.1579	244.1156	275.9557	314.8179	367.6654	432.9988	649.4599	667.829	741.6649	749.1727	805.3267	853.6161	878.8176	902.6421	1020.4123	1041.0108	1049.713	1071.8625	1110.7281	1114.011	1153.9249	1228.7757	1252.2561	1302.7006	1317.2644	1324.3611	1361.616	1382.2412	1411.9473	1450.2093	1453.8935	1472.9226	1473.1304	1492.073	1498.5	1499.3076	1509.8978	1526.6185	1563.4366	3025.5351	3027.3415	3037.23	3051.4904	3064.5966	3087.3595	3100.6624	3101.6598	3120.6646	3144.1522	3248.094
CCCC1=NN(C)C=N1	CCCc1nn(C)cn1	
InChI=1S/C6H11N3/c1-3-4-6-7-5-9(2)8-6/h5H,3-4H2,1-2H3	InChI=1S/C6H11N3/c1-3-4-6-7-5-9(2)8-6/h5H,3-4H2,1-2H3
