13
gdb 129068	3.33559	1.44815	1.04435	0.5797	72.66	-0.2616	-0.0987	0.1629	1051.6573	0.091292	-448.923863	-448.916661	-448.915717	-448.956431	26.394	
N	-0.0957190604	 1.2492391754	 0.6657608833	-0.458389
C	-0.0031266807	 0.1221734957	 0.074869099	 0.298076
C	-1.2787572157	-0.586801679	-0.1932900735	 0.026178
N	-1.61685841	-1.3996802267	-1.1203361708	-0.174726
N	-0.7690172292	-1.8265535806	-2.0901008739	-0.289081
C	 0.6071290913	-1.8490465211	-2.2215937274	 0.406642
O	 1.1197351537	-2.3938551064	-3.1783898174	-0.334623
C	 1.4886684341	-1.2588437428	-1.1556001834	-0.051103
N	 1.2560976664	-0.435861484	-0.2171795555	-0.250993
H	 0.8432412388	 1.6236939104	 0.8272618733	 0.238617
H	-2.0825459555	-0.3064292356	 0.4816853491	 0.152956
H	-1.2402326026	-2.3589920956	-2.8099357376	 0.27948
H	 2.5148755697	-1.6066347797	-1.2850176352	 0.156966
42.07	116.9047	282.6007	337.4569	390.8132	416.3239	441.1588	527.7968	628.4509	677.414	694.2269	748.7107	770.237	871.8495	889.772	916.5351	949.6745	990.2608	1082.6995	1151.2594	1322.6197	1349.4591	1376.9355	1407.1927	1472.2382	1670.4764	1705.7686	1724.1426	1767.9381	3129.1113	3179.0234	3450.1126	3591.3333
N=C1C=NNC(=O)C=N1	[NH][C]1C=NNC(=O)C=N1	
InChI=1S/C4H4N4O/c5-3-1-7-8-4(9)2-6-3/h1-2,5H,(H,8,9)	InChI=1S/C4H4N4O/c5-3-1-7-8-4(9)2-6-3/h1-2,5H,(H,8,9)
