16
gdb 74343	3.22596	1.12758	0.9056	3.1433	76.96	-0.259	-0.0627	0.1963	1257.0544	0.124046	-400.808171	-400.799607	-400.798663	-400.842131	30.627	
C	 0.0178696306	 1.5388094427	-0.0349971861	-0.492387
C	-0.0178743972	 0.047280951	 0.0024853524	 0.207294
C	-1.0697949871	-0.7781412073	-0.0269542894	-0.159253
C	-0.6863060146	-2.251934475	-0.0078707643	-0.192957
C	 0.8555266521	-2.2335305144	 0.1543713747	-0.353376
C	 1.2392146877	-0.7506243313	 0.065804332	 0.334585
O	 2.3626883846	-0.3093673137	 0.0489446264	-0.312498
C	-1.3846717703	-2.9912251192	 1.0467711577	 0.266557
N	-1.9406087708	-3.5686891758	 1.8792779431	-0.317479
H	 0.6253576418	 1.8826028367	-0.8787257824	 0.150879
H	-0.982209646	 1.9697803727	-0.1175813371	 0.128885
H	 0.4978081872	 1.9306055143	 0.8682141839	 0.15204
H	-2.1109873064	-0.4794869697	-0.0731948104	 0.133396
H	-0.9695102399	-2.7168288896	-0.9614055099	 0.144709
H	 1.1687837437	-2.6289735023	 1.1240553364	 0.162148
H	 1.3711320047	-2.8120718494	-0.6149932767	 0.147458
56.8881	98.5822	120.8296	190.4244	255.0816	290.0843	339.7204	450.7295	485.2388	578.345	599.4391	605.5193	713.4375	753.4372	842.3892	883.484	963.5087	995.1322	1030.9822	1055.3173	1069.0303	1083.6652	1171.6978	1213.7495	1250.2149	1279.3287	1326.2479	1344.1269	1414.4882	1454.6438	1472.1445	1481.07	1703.3277	1819.7917	2358.8315	3023.6267	3041.2776	3079.134	3096.9058	3126.105	3130.2419	3201.8187
CC1=CC(CC1=O)C#N	CC1=C[C@@H](CC1=O)C#N	
InChI=1S/C7H7NO/c1-5-2-6(4-8)3-7(5)9/h2,6H,3H2,1H3	InChI=1S/C7H7NO/c1-5-2-6(4-8)3-7(5)9/h2,6H,3H2,1H3/t6-/m0/s1
