19
gdb 83380	2.73109	1.73827	1.52062	1.6455	74.46	-0.2425	0.0597	0.3022	961.2363	0.160736	-422.942092	-422.93493	-422.933986	-422.973232	29.418	
C	-0.0592294834	 1.6235096767	 0.0292585712	-0.445063
C	 0.0317181687	 0.1094111741	 0.0856919593	 0.010636
C	 1.1052676648	-0.6269152029	-0.7168227538	 0.024513
O	 2.3482818868	-0.0505377564	-0.193320366	-0.295644
C	 2.1397478961	 0.0229302933	 1.261619772	-0.182333
C	 0.7849118687	-0.6411261555	 1.2741194227	 0.20008
C	-0.1196035589	-1.6214478445	 2.015903626	-0.192078
O	-0.2165595821	-2.4217831544	 0.7927061679	-0.303078
C	 0.9987822219	-1.804309882	 0.2779412064	 0.112342
H	 0.9275438015	 2.0911426496	-0.0043893488	 0.134938
H	-0.6007920981	 1.9359703182	-0.8700924572	 0.120241
H	-0.603745243	 2.0215737665	 0.8927461073	 0.115036
H	-0.9441489856	-0.35714041	-0.0504191624	 0.099157
H	 1.1926550776	-0.6708343142	-1.8026126979	 0.07588
H	 2.9229428321	-0.5451118296	 1.7723632946	 0.111131
H	 2.1767639277	 1.0685750981	 1.582778924	 0.104659
H	 0.368307647	-2.191494611	 2.8170069389	 0.109961
H	-1.0986999298	-1.2643835551	 2.3496492951	 0.113127
H	 1.8557207679	-2.4811998609	 0.3296146205	 0.086495
173.5725	218.0406	267.7318	315.1154	324.0702	385.6492	449.0928	532.2262	612.3797	717.4769	733.0957	769.091	842.3156	858.5021	886.3955	916.5238	933.5438	961.8811	997.5456	1020.7953	1044.2498	1061.8337	1100.693	1106.9235	1136.2883	1153.4384	1177.1899	1210.7243	1223.2059	1240.973	1256.2721	1281.3871	1304.1121	1344.4339	1361.4436	1398.8238	1411.9967	1489.8821	1503.3208	1511.5474	1530.8662	3017.4188	3034.8964	3041.9828	3076.1646	3084.7683	3087.4221	3092.1963	3107.0839	3119.9011	3128.3292
CC1C2OCC11COC21	C[C@H]1[C@H]2OC[C@]31CO[C@@H]23	
InChI=1S/C7H10O2/c1-4-5-6-7(4,2-8-5)3-9-6/h4-6H,2-3H2,1H3	InChI=1S/C7H10O2/c1-4-5-6-7(4,2-8-5)3-9-6/h4-6H,2-3H2,1H3/t4-,5+,6-,7+/m0/s1
