20
gdb 58151	3.29926	0.74024	0.62653	5.4423	94.39	-0.2803	-0.0348	0.2455	1772.6029	0.168847	-366.017363	-366.006812	-366.005868	-366.05342	37.688	
C	-0.036767742	 1.5546088884	 0.0501165318	-0.404231
C	-0.0386388554	 0.0205232703	 0.0080792162	 0.044256
C	-1.4771719861	-0.5127885472	 0.0324028651	-0.398975
C	 0.7421262299	-0.5175856158	-1.2308867942	-0.170666
C	 2.1947321976	 0.0021171904	-1.3252633263	-0.404469
C	 0.7521384515	-1.9761760731	-1.2514407062	 0.095355
C	 0.7945460003	-3.1849284898	-1.2608986336	 0.049296
C	 0.8376852399	-4.5491227634	-1.273937603	 0.19847
N	 0.8743570778	-5.7105692101	-1.2846343572	-0.340188
H	 0.9665589166	 1.9709212961	 0.1680380234	 0.121498
H	-0.4737498817	 1.9740607743	-0.8641646749	 0.116471
H	-0.6388383428	 1.9067025933	 0.8932572545	 0.120386
H	 0.4835478773	-0.3515554876	 0.8997144656	 0.089453
H	-2.0397750899	-0.1596711775	-0.8402444045	 0.115677
H	-1.5061690814	-1.6053994105	 0.0313620789	 0.132757
H	-2.0007541576	-0.1619439018	 0.9267665874	 0.118629
H	 0.2005071328	-0.1835216787	-2.1289619222	 0.118065
H	 2.7491174488	-0.2330054306	-0.41174664	 0.133299
H	 2.7150576679	-0.4623158408	-2.1663381629	 0.134929
H	 2.2087382564	 1.0837383142	-1.4730795281	 0.12999
50.8619	69.6886	114.0715	196.6115	203.9754	222.3129	229.4896	268.9915	300.7002	354.642	378.7838	422.578	488.3863	533.8831	577.769	594.6548	712.7825	796.5273	911.5174	931.4566	964.5305	981.1017	1017.5859	1077.3277	1134.4273	1159.7916	1187.0414	1202.494	1284.5809	1324.3335	1350.4471	1364.8273	1401.4569	1409.5259	1424.7116	1485.3964	1488.7504	1495.6345	1500.2499	1505.116	1516.2478	2259.138	2395.593	2993.724	3020.699	3029.6783	3035.6696	3050.2362	3095.3594	3102.2267	3117.1662	3120.3963	3123.6091	3136.3839
CC(C)C(C)C#CC#N	CC(C)[C@@H](C)C#CC#N	
InChI=1S/C8H11N/c1-7(2)8(3)5-4-6-9/h7-8H,1-3H3	InChI=1S/C8H11N/c1-7(2)8(3)5-4-6-9/h7-8H,1-3H3/t8-/m0/s1
