15
gdb 19654	4.63255	2.11344	1.95852	3.4311	64.14	-0.2453	-0.0224	0.2229	719.3217	0.12154	-362.615641	-362.610102	-362.609158	-362.645105	22.731	
O	-0.0298907064	-0.0253642241	-0.0051290609	-0.318751
C	-0.0241389664	 1.1660056604	 0.0450223583	 0.475248
C	-1.049828903	 2.3053288784	 0.0059186586	-0.128645
C	-0.8117497812	 2.8861852863	 1.428734982	-0.241574
C	 0.6355411342	 3.3413689257	 1.1228597246	-0.05385
C	 0.3680183637	 4.2927340065	-0.0560171358	-0.159905
N	-0.0161331303	 3.0729771273	-0.853987285	-0.160439
C	 1.0067994495	 2.2852895827	 0.0052137943	-0.140788
H	-2.0587845249	 2.2051216016	-0.3854204318	 0.099528
H	-1.4670629314	 3.722586175	 1.6847944783	 0.109822
H	-0.895195021	 2.1243159932	 2.2090668548	 0.118952
H	 1.2923235213	 3.5824987392	 1.9590205938	 0.077059
H	-0.4013156059	 5.0646194052	 0.0492415177	 0.104967
H	 1.2680897243	 4.7245219397	-0.5005530387	 0.117131
H	 2.0330840275	 2.1948823428	-0.34582274	 0.101246
160.3965	321.9096	450.8058	504.164	568.2047	657.8592	722.6163	779.3621	804.3849	826.3377	847.725	905.879	924.0941	948.2299	970.2345	993.6448	1010.1989	1056.3213	1078.4059	1105.0491	1133.2572	1157.9355	1180.5714	1215.3644	1229.6672	1252.4735	1269.3503	1289.6449	1305.9882	1499.6844	1520.8793	1917.1603	3047.6306	3058.9119	3105.4541	3109.9356	3114.8152	3144.4652	3161.0907
O=C1C2CC3CN2C13	O=C1[C@H]2C[C@@H]3CN2[C@H]13	
InChI=1S/C6H7NO/c8-6-4-1-3-2-7(4)5(3)6/h3-5H,1-2H2	InChI=1S/C6H7NO/c8-6-4-1-3-2-7(4)5(3)6/h3-5H,1-2H2/t3-,4-,5+/m1/s1
