18
gdb 117282	4.73824	0.67104	0.59429	4.3968	71.2	-0.2437	-0.0204	0.2233	1817.5004	0.144474	-476.27709	-476.266383	-476.265439	-476.314825	35.821	
C	-0.003980361	 1.5250349082	-0.252089792	-0.501889
C	-0.0126124516	 0.0590045173	 0.1581411341	 0.412933
O	-0.0374316149	-0.3131319478	 1.3015445009	-0.292648
N	 0.011431974	-0.8075413809	-0.947615782	-0.388238
C	 0.0110661987	-2.2098737192	-0.9488597873	 0.430083
O	-0.0102741685	-2.8847766767	 0.0489744508	-0.306443
C	 0.0401880197	-2.7936283616	-2.3563641092	-0.322759
C	 0.0454181675	-4.3156636785	-2.3448097591	-0.073211
O	 0.0720772827	-4.7367972591	-3.7004384031	-0.425843
H	 0.892536235	 1.762967937	-0.8348002804	 0.142026
H	-0.8767512193	 1.7632895127	-0.8696968003	 0.142161
H	-0.0217225748	 2.1373103982	 0.6484635888	 0.158939
H	 0.0309837114	-0.3676617762	-1.8556204126	 0.252276
H	-0.8283180141	-2.4339091591	-2.9228782669	 0.132408
H	 0.9265016983	-2.4273020679	-2.8900482354	 0.132071
H	 0.920004955	-4.6756882414	-1.7858315502	 0.109087
H	-0.8465858649	-4.6818337767	-1.8184365323	 0.109331
H	 0.0722536766	-5.6981701984	-3.7131415738	 0.289716
45.8784	49.3662	79.0869	92.8731	109.6907	121.9038	230.8079	272.2591	298.2958	371.9733	420.6288	553.0991	554.1581	570.4111	643.7821	741.38	814.9853	901.8741	914.6658	1030.5574	1045.1122	1050.3227	1071.0126	1080.4275	1155.9257	1207.8132	1218.3345	1257.7224	1306.4733	1349.1032	1382.9921	1456.4841	1465.6568	1473.0942	1482.1469	1506.5729	1523.5764	1807.7577	1863.3216	3004.4597	3029.4365	3033.7166	3039.8105	3069.8021	3102.4085	3167.2721	3614.7518	3833.7537
CC(=O)NC(=O)CCO	CC(=O)NC(=O)CCO	
InChI=1S/C5H9NO3/c1-4(8)6-5(9)2-3-7/h7H,2-3H2,1H3,(H,6,8,9)	InChI=1S/C5H9NO3/c1-4(8)6-5(9)2-3-7/h7H,2-3H2,1H3,(H,6,8,9)
