18
gdb 74151	2.78513	1.41743	1.02024	4.5674	81.62	-0.2325	-0.0452	0.1873	1164.7982	0.14776	-401.967506	-401.959171	-401.958226	-402.000757	31.566	
C	-0.0200010608	 1.4866857226	 0.0616737779	-0.514571
C	 0.0097398048	-0.0079570886	 0.0039820409	 0.282265
C	-0.0258127952	-0.7595178738	-1.1120369336	-0.302863
C	 0.0127818689	-2.2000271604	-0.7927220537	 0.377013
O	 0.0196855174	-3.1234648429	-1.5744392248	-0.333635
C	 0.0511966663	-2.3133065999	 0.7390672789	-0.412168
C	 0.0785459629	-0.8712315955	 1.2252960407	 0.248194
C	 0.7908253851	-0.4261224695	 2.4585901781	-0.284386
N	-0.6719840082	-0.5307150686	 2.4541492416	-0.350028
H	 0.8892821464	 1.8848218464	 0.5272019084	 0.144516
H	-0.1042294685	 1.916728025	-0.9382582125	 0.144217
H	-0.8668165896	 1.8530732567	 0.6549617104	 0.137657
H	-0.0730050098	-0.3909774637	-2.1293426712	 0.111486
H	-0.8368040974	-2.838368424	 1.1017816987	 0.146914
H	 0.9254078321	-2.8945350672	 1.0463643546	 0.13229
H	 1.3017394803	-1.1713972475	 3.0623912137	 0.128045
H	 1.2500687326	 0.5588547292	 2.47379098	 0.113495
H	-1.0879799875	 0.3945064319	 2.3746335119	 0.23156
61.3415	106.7518	179.6393	264.3029	270.9228	320.1811	361.8347	491.9256	523.4007	533.0618	578.1101	627.3763	710.0797	804.0938	847.0263	875.548	907.9395	938.5844	972.6543	996.2755	1002.2729	1056.0384	1072.1841	1107.1626	1154.9194	1171.9381	1188.0628	1236.1528	1261.1916	1281.8031	1357.2761	1382.3314	1410.8438	1450.0816	1478.5464	1480.0071	1509.4475	1661.5779	1812.0573	3026.5972	3066.4893	3075.341	3106.3618	3110.6042	3128.6242	3191.4496	3214.2428	3494.4877
CC1=CC(=O)CC11CN1	CC1=CC(=O)C[C@]21CN2	
InChI=1S/C7H9NO/c1-5-2-6(9)3-7(5)4-8-7/h2,8H,3-4H2,1H3	InChI=1S/C7H9NO/c1-5-2-6(9)3-7(5)4-8-7/h2,8H,3-4H2,1H3/t7-/m1/s1
