16
gdb 9250	5.78987	0.78395	0.7134	3.8917	73.95	-0.2666	-0.0613	0.2052	1538.7771	0.126662	-383.703261	-383.693583	-383.692639	-383.739203	31.687	
C	 0.0288035201	 1.4024298616	 0.0626526256	-0.234872
O	-0.087029406	-0.001157456	-0.0393426211	-0.241318
C	 0.6268514351	-0.5641804814	-1.1305438109	-0.047467
C	 2.1306755508	-0.7126644222	-0.8364170766	-0.39656
C	 0.0307574857	-1.862150206	-1.4398223182	 0.106975
C	-0.4221937167	-2.9443412077	-1.7259165687	 0.051014
C	-0.9992900176	-4.2282807618	-2.0275680053	 0.019431
O	-0.6626462357	-4.931440233	-2.952725534	-0.23047
H	 1.0512446558	 1.7282170561	 0.3010285342	 0.111749
H	-0.2886439178	 1.9032457512	-0.8649886258	 0.110619
H	-0.6319022703	 1.7135338052	 0.8747003532	 0.137056
H	 0.5026906587	 0.0787333133	-2.0195334751	 0.1063
H	 2.5794034614	 0.2661164659	-0.6488701121	 0.125269
H	 2.2765291443	-1.3439570569	 0.0431526267	 0.141361
H	 2.641655581	-1.167986391	-1.6885898565	 0.138
H	-1.8018577687	-4.5362619974	-1.3269876955	 0.102913
42.7072	62.7045	77.2926	126.2611	186.2965	208.1268	229.3463	274.6295	362.9799	385.342	503.275	545.6101	642.4754	800.0482	866.7555	998.2701	1021.7385	1059.1486	1094.9534	1134.8042	1177.2202	1180.0896	1217.4939	1331.3726	1368.1213	1396.8692	1420.8878	1475.2252	1481.1865	1490.649	1496.9983	1509.8322	1767.7294	2330.4569	2921.1792	2952.3537	2981.5075	3032.9347	3052.8933	3122.3282	3129.0929	3138.8192
COC(C)C#CC=O	CO[C@@H](C)C#CC=O	
InChI=1S/C6H8O2/c1-6(8-2)4-3-5-7/h5-6H,1-2H3	InChI=1S/C6H8O2/c1-6(8-2)4-3-5-7/h5-6H,1-2H3/t6-/m0/s1
