20
gdb 59134	4.11748	1.13394	1.03148	1.5397	78.83	-0.223	0.0606	0.2836	1223.9158	0.1691	-403.027216	-403.018916	-403.017972	-403.06009	32.456	
C	 0.9335051445	-0.325629843	-1.3396692764	-0.387781
C	 0.1139000989	 0.0446337082	-0.1009370054	 0.079661
C	-0.0074796144	 1.5631614015	 0.0495506891	-0.387779
N	-1.2324807349	-0.5344521973	-0.2255676922	-0.129741
C	-2.0335997673	-0.6145005447	 1.0336051046	-0.074147
C	-2.7998259418	-1.8667538319	 0.52414121	 0.08353
O	-2.589362796	-2.6502258981	 1.7318047944	-0.329453
C	-1.3408901125	-1.9186194954	 1.5827654219	 0.074637
C	-1.3401450931	-2.0064419964	 0.0097319703	-0.074147
H	 1.9336094327	 0.1153069579	-1.2867232376	 0.111944
H	 1.0527427581	-1.4093593048	-1.4351044495	 0.11069
H	 0.4380499625	 0.0412932853	-2.2441144051	 0.124289
H	 0.636771443	-0.3506651775	 0.7906816395	 0.054714
H	-0.5315376159	 1.9876336236	-0.8126068335	 0.124288
H	-0.5640077565	 1.8357270728	 0.9516483963	 0.11069
H	 0.9823940927	 2.0246231386	 0.1176729063	 0.111943
H	-2.4173670885	 0.2486183518	 1.5775005469	 0.094487
H	-3.7441741112	-1.9434837113	-0.0111398387	 0.105937
H	-0.5636478018	-2.0802436893	 2.3289094086	 0.101751
H	-0.9140172986	-2.7690057303	-0.6421768495	 0.094487
74.211	157.8094	189.1123	203.9877	236.5014	324.6888	413.0461	444.3195	522.4558	571.6125	749.4803	758.4387	772.4795	809.0702	811.1689	866.9433	889.6853	924.6694	929.5311	935.2583	968.7891	988.6026	1043.3738	1057.629	1099.9091	1145.7602	1151.0295	1158.6103	1162.3669	1180.125	1184.3095	1185.5476	1202.2881	1289.921	1342.0882	1366.4763	1376.7031	1399.1948	1417.8862	1483.3123	1487.424	1497.3327	1511.4135	2916.0989	3035.1243	3039.3214	3103.8612	3106.7117	3109.9325	3115.1082	3115.7251	3120.3404	3129.9345	3149.6325
CC(C)N1C2C3OC2C13	CC(C)N1[C@H]2[C@@H]3O[C@H]2[C@H]13	
InChI=1S/C7H11NO/c1-3(2)8-4-6-5(8)7(4)9-6/h3-7H,1-2H3	InChI=1S/C7H11NO/c1-3(2)8-4-6-5(8)7(4)9-6/h3-7H,1-2H3/t4-,5+,6-,7+
