20
gdb 46794	2.60632	1.66259	1.31335	2.4245	77.9	-0.211	-0.0154	0.1957	1033.162	0.174026	-403.150555	-403.142964	-403.14202	-403.18256	30.643	
O	-0.0583108454	-0.034048455	 0.4291853327	-0.308343
C	-0.0308170383	 1.1445315832	 0.1544426558	 0.376267
C	-1.3264691101	 1.9532119179	-0.0080600562	-0.258116
N	-1.6573108415	 2.3382002967	-1.3852396645	-0.291799
C	-0.624608537	 2.9837737135	-2.192688898	 0.026509
C	 0.6416662493	 2.1292179233	-2.5413180669	-0.245386
C	 1.3570170634	 2.7641086057	-1.3120747257	-0.00851
C	 0.3116473437	 3.9157395	-1.3775782493	-0.230724
C	 1.2907334046	 1.886045517	-0.052717151	-0.310968
H	-2.1446090153	 1.3395805788	 0.3758429323	 0.121227
H	-1.2668064827	 2.8563161108	 0.6114302206	 0.112714
H	-2.0020080957	 1.5219207712	-1.8802713379	 0.224612
H	-1.1239047746	 3.4410918711	-3.0521110464	 0.075654
H	 0.5245611122	 1.0409824921	-2.5549471434	 0.103137
H	 1.091709391	 2.446194751	-3.4864129556	 0.09768
H	 2.3952222332	 3.068170874	-1.4667237433	 0.0744
H	 0.6723856617	 4.7349567514	-2.0041976934	 0.10423
H	-0.0636444591	 4.3423658496	-0.4444891736	 0.100779
H	 1.4595268462	 2.5111749554	 0.836876237	 0.115835
H	 2.0783188644	 1.1273473121	-0.0710060832	 0.120802
75.0425	176.2102	286.6248	297.5539	342.2432	399.9045	462.6259	481.5655	490.6006	644.8766	721.2842	779.0639	795.8821	820.5161	848.0673	871.023	878.9105	916.3348	941.6156	1001.9116	1022.9507	1061.5187	1070.8351	1110.0952	1133.5735	1160.9378	1170.9703	1224.9512	1240.9322	1262.2887	1269.2518	1277.7422	1303.1628	1313.5048	1352.5204	1376.2593	1384.8598	1460.2025	1464.2827	1481.4443	1491.7872	1506.6723	1803.7206	3006.8046	3031.9892	3044.7094	3053.2208	3064.6385	3073.7557	3092.5487	3102.7565	3108.8989	3115.431	3517.4186
O=C1CNC2CC(C2)C1	O=C1CN[C@@H]2C[C@@H](C2)C1	
InChI=1S/C7H11NO/c9-7-3-5-1-6(2-5)8-4-7/h5-6,8H,1-4H2	InChI=1S/C7H11NO/c9-7-3-5-1-6(2-5)8-4-7/h5-6,8H,1-4H2/t5-,6+
