19
gdb 57516	2.66908	1.10459	0.94714	2.2277	73.34	-0.2589	-0.08	0.1789	1321.6489	0.154504	-460.208449	-460.198064	-460.19712	-460.243932	37.023	
C	 0.0793020651	 1.6003065515	 0.1198257133	-0.420342
C	 0.0484537463	 0.0726483105	 0.0294286821	 0.35926
C	 0.5084401584	-0.5974896161	 1.3264386021	-0.420319
C	-1.3350407677	-0.4259965406	-0.38686943	-0.400122
O	 0.9034881409	-0.375484149	-1.0907648379	-0.26692
C	 2.2043941834	-0.1332206226	-1.1128851753	 0.338118
O	 2.8767856983	 0.4480549643	-0.2933219901	-0.355718
C	 2.8703057509	-0.6980626947	-2.3789885361	 0.102792
O	 2.3008104194	-1.2884807561	-3.252045145	-0.214691
H	 1.0664549919	 1.961266912	 0.4089533054	 0.151522
H	-0.1962685188	 2.0454622126	-0.840790721	 0.122887
H	-0.6473948027	 1.9318184489	 0.8677259255	 0.120262
H	-0.2001153987	-0.3601828603	 2.1257936239	 0.120258
H	 0.5325218881	-1.6846951676	 1.2068994502	 0.122895
H	 1.4982060044	-0.2503782971	 1.6235017902	 0.151504
H	-1.6350819825	 0.01782591	-1.3398057409	 0.128569
H	-1.336285571	-1.5134534698	-0.4988002184	 0.128561
H	-2.0733062301	-0.1530578232	 0.3724066931	 0.119759
H	 3.9590450042	-0.4865737726	-2.3814279211	 0.111723
53.1973	114.5626	128.6451	144.7603	197.0913	232.3298	251.0583	259.2553	315.6495	343.5853	406.5298	425.5114	450.523	530.6629	610.5933	649.3269	790.0685	850.5028	926.6234	927.1448	960.034	967.6769	1029.1901	1051.7455	1059.9406	1198.67	1268.1595	1280.5391	1323.3746	1375.824	1397.1731	1400.9443	1427.0118	1467.171	1487.6768	1489.0106	1495.057	1502.0708	1524.7055	1792.0121	1844.3543	2938.8718	3045.1021	3046.3951	3052.9498	3112.5643	3114.405	3125.4237	3126.6477	3151.7756	3155.2704
CC(C)(C)OC(=O)C=O	CC(C)(C)OC(=O)C=O	
InChI=1S/C6H10O3/c1-6(2,3)9-5(8)4-7/h4H,1-3H3	InChI=1S/C6H10O3/c1-6(2,3)9-5(8)4-7/h4H,1-3H3
