18
gdb 22601	3.01706	1.2538	1.07284	0.8442	76.86	-0.235	0.0057	0.2407	1174.5886	0.145792	-439.014196	-439.005144	-439.0042	-439.047622	34.243	
C	-0.037921779	 1.5151644515	 0.0199085204	-0.503489
C	 0.0473928686	 0.0173867323	-0.0074060919	 0.347346
C	-0.8223210732	-0.8856370851	 0.8033141736	-0.321908
C	 0.6820709704	-0.959516811	 1.0284235556	-0.214516
C	 1.2667790122	-1.7341563238	-0.0887023048	 0.429339
N	 2.0228283983	-2.7499561208	-0.1323326499	-0.277215
O	 2.2826125174	-3.0779920392	-1.493577774	-0.415441
C	 0.6919727511	-0.7928498087	-1.1469203395	-0.030336
O	-0.1863376061	-1.3160902677	-2.1122228996	-0.439082
H	 0.9173145429	 1.9763020995	-0.253979871	 0.121743
H	-0.79675391	 1.8749404282	-0.6845059694	 0.134833
H	-0.3140187346	 1.8764542797	 1.0156587373	 0.120862
H	-1.3690314272	-0.4019683081	 1.6072936301	 0.11678
H	-1.3431865155	-1.7161467426	 0.3385395741	 0.131556
H	 1.1350014843	-0.7536538341	 1.9896584785	 0.106188
H	 2.8454699671	-3.8543133999	-1.4105887041	 0.307751
H	 1.5131236888	-0.2216048533	-1.6088628198	 0.087855
H	 0.2882068046	-2.0336394067	-2.5484862356	 0.297734
82.2786	152.5196	193.8968	200.0362	243.7473	272.8915	334.1157	358.5323	382.7392	408.0477	512.9417	534.8435	633.3173	655.7907	726.0916	789.5202	862.982	908.3299	935.6082	962.2307	990.5049	1000.592	1076.2447	1079.2987	1109.6633	1129.5683	1170.2224	1189.3215	1248.7638	1277.5384	1323.5105	1366.8008	1400.9575	1416.0176	1432.6827	1485.3944	1497.3578	1499.8784	1785.3617	2978.3978	3026.9543	3088.3551	3100.9673	3126.2382	3200.7052	3213.241	3800.0022	3830.1542
CC12CC1C(=NO)C2O	C[C@]12C[C@H]1[C]([N]O)[C@H]2O	
InChI=1S/C6H9NO2/c1-6-2-3(6)4(7-9)5(6)8/h3,5,8-9H,2H2,1H3	InChI=1S/C6H9NO2/c1-6-2-3(6)4(7-9)5(6)8/h3,5,8-9H,2H2,1H3/t3-,5+,6-/m0/s1
