17
gdb 96411	2.14632	1.71066	1.22819	2.9773	67.36	-0.2519	0.0096	0.2615	1046.8225	0.137969	-455.142888	-455.134705	-455.133761	-455.175543	30.781	
N	-0.0785532898	 1.4372947652	-0.1592541346	-0.52271
C	-0.0308770989	-0.0112629135	-0.0417860453	-0.011277
C	 0.7909962997	-0.5683663978	 1.1319109581	-0.117575
O	 0.6934193447	-1.9870072159	 1.1790861678	-0.226288
C	-0.6365243743	-2.3939322925	 1.3136512107	 0.001678
O	-1.4422110993	-1.9874514404	 0.2208114222	-0.238778
C	-1.4677977149	-0.5816359509	 0.0528518098	-0.023204
C	-2.2282397496	 0.0788926138	 1.1413465349	 0.269493
N	-2.7992658485	 0.6000539524	 2.000653602	-0.333215
H	-0.346169354	 1.8642988526	 0.7236292889	 0.245663
H	 0.8335481569	 1.8055801075	-0.4074490135	 0.239817
H	 0.3830811766	-0.4212438479	-0.9687981143	 0.110492
H	 1.8505889844	-0.3250666218	 1.0155947156	 0.115062
H	 0.4363347451	-0.126319269	 2.0786962498	 0.107134
H	-0.649820726	-3.4842811939	 1.308542855	 0.131157
H	-1.0657974658	-2.0042985335	 2.2530987272	 0.105983
H	-1.9959944463	-0.3840527144	-0.8834899344	 0.146567
108.2223	139.9747	185.9484	269.6145	278.7618	320.9648	375.409	405.7044	447.7339	473.8259	615.0995	632.4952	666.3025	839.1479	852.7807	921.9656	955.1802	970.2351	1023.8825	1056.6421	1099.9522	1139.1647	1151.6172	1195.3796	1213.164	1249.051	1309.4206	1318.0431	1345.1756	1357.5838	1387.959	1412.2037	1441.1728	1491.8162	1509.88	1661.1679	2348.7397	2960.2372	2972.0115	3063.9547	3089.4253	3095.0165	3132.9908	3495.2955	3580.8815
NC1COCOC1C#N	N[C@H]1COCO[C@H]1C#N	
InChI=1S/C5H8N2O2/c6-1-5-4(7)2-8-3-9-5/h4-5H,2-3,7H2	InChI=1S/C5H8N2O2/c6-1-5-4(7)2-8-3-9-5/h4-5H,2-3,7H2/t4-,5-/m0/s1
