18
gdb 23454	2.95551	1.25603	1.13263	0.8654	75.74	-0.2345	0.0031	0.2376	1145.9541	0.146927	-439.030298	-439.021713	-439.020769	-439.063698	32.097	
C	 0.0596161047	 1.556960105	-0.2723288128	-0.416406
C	 0.0515737975	 0.0719393752	 0.0057873665	-0.050735
C	 1.2798602294	-0.7869024007	-0.0666034236	 0.08611
O	 2.526948342	-0.1362119399	-0.1095841338	-0.268069
C	 2.8401509471	 0.4312650624	 1.1619743623	-0.162769
C	 1.6387142058	 0.1891323772	 2.0488899479	 0.383646
N	 1.5089027738	 0.4916931054	 3.278804155	-0.234604
O	 2.6749597753	 1.1322268147	 3.7470079582	-0.398849
C	 0.6276344571	-0.5685640748	 1.2799944008	-0.20162
H	 1.0361588287	 2.0055177607	-0.0801421951	 0.132982
H	-0.1818121791	 1.7448536312	-1.3237773193	 0.123244
H	-0.6814293791	 2.0785186764	 0.3416744448	 0.12546
H	-0.8543015806	-0.4372123792	-0.3162643627	 0.094721
H	 1.2818718216	-1.7394340718	-0.5859057739	 0.103107
H	 3.7356856632	-0.0471883393	 1.5816501955	 0.132887
H	 3.0586104777	 1.5009199067	 1.0584551624	 0.1334
H	 2.4626914532	 1.2930542077	 4.6722867164	 0.30839
H	 0.0429993518	-1.3186761467	 1.7967823515	 0.109105
83.2684	115.2855	147.0737	214.8528	221.3551	280.16	360.7382	444.3117	479.424	547.46	588.5659	682.8928	711.1341	753.2138	799.3958	875.8947	905.5346	955.9554	976.7722	1002.4814	1031.8085	1048.9194	1073.2664	1090.2778	1129.0193	1154.1446	1197.3842	1216.1567	1244.9804	1312.8634	1327.9853	1367.3893	1413.016	1418.9808	1424.7106	1486.8654	1495.9904	1503.5478	1754.7244	3014.6361	3041.5993	3051.6184	3099.0871	3124.4749	3139.7438	3165.251	3196.2509	3822.9229
CC1C2OCC(=NO)C12	C[C@H]1[C@H]2OCC(=NO)[C@@H]12	
InChI=1S/C6H9NO2/c1-3-5-4(7-8)2-9-6(3)5/h3,5-6,8H,2H2,1H3	InChI=1S/C6H9NO2/c1-3-5-4(7-8)2-9-6(3)5/h3,5-6,8H,2H2,1H3/t3-,5-,6-/m1/s1
