16
gdb 55161	3.8241	1.23774	1.1124	4.1819	64.46	-0.2438	0.0163	0.2601	1095.663	0.124201	-475.02346	-475.015501	-475.014557	-475.056674	29.865	
N	-0.0076627561	 1.0198383299	-0.7180061656	-0.515038
C	 0.0198823708	-0.0309300353	 0.13736798	 0.365995
O	 0.9580531405	-0.3451215249	 0.8383149441	-0.355531
C	-1.2683398602	-0.8723737596	 0.1394448059	 0.139726
O	-2.3648906806	-0.1655378568	-0.4311697439	-0.285385
C	-3.1711952796	-1.1362970103	-1.0682065113	 0.057394
C	-2.7191583118	-1.5723544321	-2.4437498113	-0.327373
C	-2.3203063609	-2.3529689615	-1.2110881561	 0.067312
O	-1.0624782237	-2.0230098404	-0.6668897728	-0.264969
H	 0.7814635136	 1.6438882206	-0.7439521269	 0.264516
H	-0.8742177237	 1.274457528	-1.1610653983	 0.272046
H	-1.4963194723	-1.1656125222	 1.1753679977	 0.09965
H	-4.2122779647	-1.1316313798	-0.7674892878	 0.114774
H	-3.4644158881	-2.0095143503	-3.100635108	 0.121767
H	-1.9448433256	-0.9872433137	-2.9262474943	 0.13037
H	-2.6495329876	-3.3695914016	-1.0288287217	 0.114746
54.1778	73.4274	211.9697	294.8807	308.8362	345.0213	407.1897	485.322	541.1008	628.6428	700.6363	738.487	751.2924	788.8278	806.7154	919.5356	933.1325	996.7659	1007.4441	1018.3119	1066.5279	1068.1563	1098.3902	1104.1567	1109.0127	1147.1749	1201.6872	1299.1505	1347.8769	1354.1444	1371.1735	1403.5712	1457.1168	1595.7526	1823.2018	2999.0556	3133.3454	3173.4339	3183.1659	3233.2014	3598.8637	3737.9497
NC(=O)C1OC2CC2O1	NC(=O)[C@H]1O[C@H]2C[C@H]2O1	
InChI=1S/C5H7NO3/c6-4(7)5-8-2-1-3(2)9-5/h2-3,5H,1H2,(H2,6,7)	InChI=1S/C5H7NO3/c6-4(7)5-8-2-1-3(2)9-5/h2-3,5H,1H2,(H2,6,7)/t2-,3+,5-
