17
gdb 77517	2.46225	1.78885	1.31511	3.6842	68.76	-0.2378	0.0047	0.2425	981.7777	0.133789	-458.914097	-458.905588	-458.904643	-458.946418	33.609	
O	 0.2316345357	 1.3183856841	-0.202933773	-0.433768
C	 0.0503871317	-0.0462282451	-0.0308561085	 0.128826
C	 0.0450612409	-0.6476775225	 1.4418746786	 0.327872
O	 1.0263672619	-0.2309989049	 2.3297474461	-0.481234
C	-1.4530142324	-0.1910806965	 1.5329133644	-0.388232
C	-1.4281481843	-0.6303927579	 0.0271184402	 0.327868
O	-2.3497887445	-0.1913850838	-0.9124300065	-0.481233
C	-1.0868258645	-2.1129139658	 0.1614361164	-0.169369
C	-0.121105689	-2.1242578776	 1.0890138111	-0.169373
H	-0.3401329119	 1.8065516131	 0.398407066	 0.287646
H	 0.7200127265	-0.5442862423	-0.7342409972	 0.093588
H	 0.8506351274	-0.6292111004	 3.1891091564	 0.281608
H	-2.1100766529	-0.742678665	 2.2103895981	 0.090641
H	-1.5766098577	 0.8882595119	 1.6748191872	 0.088255
H	-3.2061608248	-0.5815617038	-0.7066473677	 0.281609
H	-1.4866225242	-2.9119200026	-0.4485172837	 0.10765
H	 0.4946309621	-2.935191271	 1.454454132	 0.107646
136.2332	209.6682	222.64	237.6471	258.9778	280.4348	378.8447	400.7323	463.1774	468.8901	573.5095	578.3084	623.9762	662.8983	678.2916	705.3058	855.6999	865.7876	900.2442	924.3116	985.1054	1023.3162	1051.4554	1080.7003	1119.8974	1154.1616	1166.1105	1186.8513	1224.7716	1265.4833	1309.4774	1313.1715	1361.0701	1375.2432	1434.4655	1506.0071	1616.512	3040.911	3105.794	3111.1278	3206.8306	3233.4874	3804.9893	3805.0983	3818.7596
OC1C2(O)CC1(O)C=C2	O[C@H]1[C@@]2(O)C[C@]1(O)C=C2	
InChI=1S/C6H8O3/c7-4-5(8)1-2-6(4,9)3-5/h1-2,4,7-9H,3H2	InChI=1S/C6H8O3/c7-4-5(8)1-2-6(4,9)3-5/h1-2,4,7-9H,3H2/t4-,5-,6+
