19
gdb 40445	3.88238	1.22685	1.09693	1.2319	74.85	-0.2309	0.0872	0.3181	1150.1917	0.160054	-422.989951	-422.982153	-422.981208	-423.022483	30.256	
C	 0.5242092807	 1.4296392939	 0.1194708548	-0.173243
O	 1.198800236	 0.226106594	-0.2631926426	-0.236338
C	-0.2010963305	 0.1584442753	 0.0010671236	-0.014404
C	-0.6033278859	-0.6414692792	 1.1946038768	 0.4514
C	 0.3446963803	-0.9372713164	 2.3260767614	-0.370888
C	-0.1861333828	-2.0642871806	 1.45109136	-0.11478
C	-1.4467797284	-2.7797290942	 1.9047027556	-0.242387
C	-2.4022629544	-1.6143897008	 2.2495892726	-0.097973
O	-1.9711521879	-0.4850695841	 1.4866625933	-0.307552
H	 0.7741099547	 1.8060214233	 1.1095190971	 0.117876
H	 0.4325926928	 2.1794904199	-0.6642380966	 0.117986
H	-0.8281247697	 0.0016287248	-0.8775657695	 0.096635
H	 1.3811935952	-0.6626580378	 2.1664468535	 0.131281
H	-0.0063251232	-0.8393425976	 3.3481523475	 0.111349
H	 0.5064199206	-2.5739223776	 0.7919041365	 0.102276
H	-1.8414574866	-3.3812654282	 1.0791334752	 0.109617
H	-1.2994319671	-3.4440126003	 2.7617932213	 0.106704
H	-3.4466854824	-1.8129972048	 1.9942321043	 0.111367
H	-2.3567649216	-1.3791110096	 3.3215952052	 0.101074
73.7351	149.9578	186.3614	226.2033	301.8542	377.7536	422.2461	493.1487	647.6566	667.7688	708.1755	821.0156	861.8538	869.2142	878.3785	908.574	927.5741	950.5174	976.6552	1017.903	1024.4156	1063.7142	1081.6696	1097.1446	1103.8021	1136.6463	1151.8864	1171.2421	1213.1182	1220.754	1236.4109	1269.3807	1288.6396	1325.0818	1387.1798	1391.5696	1448.298	1480.316	1495.9372	1522.8247	1529.4922	3009.546	3046.1379	3081.935	3090.0098	3094.6033	3104.7544	3132.3934	3181.9313	3183.1979	3224.8227
C1OC1C12CC1CCO2	C1O[C@H]1[C@]12C[C@H]1CCO2	
InChI=1S/C7H10O2/c1-2-9-7(3-5(1)7)6-4-8-6/h5-6H,1-4H2	InChI=1S/C7H10O2/c1-2-9-7(3-5(1)7)6-4-8-6/h5-6H,1-4H2/t5-,6-,7+/m1/s1
