24
gdb 9909	4.42444	0.86601	0.82125	0.121	85.98	-0.261	0.0853	0.3464	1545.8305	0.22244	-314.273441	-314.263527	-314.262583	-314.308312	36.824	
C	 0.1300617566	 1.5050625746	-0.2551888148	-0.380641
C	 0.0188738816	 0.0147997919	 0.0779134379	-0.160505
C	-1.4091095868	-0.5272212588	-0.0491640144	-0.158658
C	-1.5196183702	-2.0209963815	 0.286935348	-0.264852
C	-2.9111768598	-2.6119421991	 0.1055057994	 0.393067
C	-3.9871094849	-2.0591503608	 1.0227341667	-0.460651
C	-3.3219647992	-3.0170696276	-1.2914800273	-0.293184
C	-3.0015262268	-4.0746736118	-0.2599998648	-0.314799
H	 1.1602662616	 1.8621338394	-0.1581924505	 0.109566
H	-0.1969908596	 1.7065882558	-1.281465237	 0.112616
H	-0.495157002	 2.1077679409	 0.4131601958	 0.112443
H	 0.6838413998	-0.5588713071	-0.5816399512	 0.092127
H	 0.3834575258	-0.1605098302	 1.0990005879	 0.09297
H	-2.0702778741	 0.0535094225	 0.6070696574	 0.09347
H	-1.7736093897	-0.3599852225	-1.0719281543	 0.093304
H	-0.8142373563	-2.5773431521	-0.3444320508	 0.086677
H	-1.1907796488	-2.1840285534	 1.3237016299	 0.089184
H	-4.1531725293	-0.9889517696	 0.8583291816	 0.11671
H	-4.9425364379	-2.567477246	 0.8585455773	 0.109784
H	-3.7154653821	-2.195310753	 2.0766778457	 0.111112
H	-4.3588050182	-2.8845394002	-1.5827688687	 0.105094
H	-2.6145433398	-2.8648539424	-2.1005126574	 0.105158
H	-2.0791170679	-4.6350004577	-0.3741437941	 0.105174
H	-3.8227685317	-4.6552830111	 0.1475836878	 0.104833
64.6131	82.3133	124.2234	139.3756	225.4296	246.3623	272.6268	303.9083	346.6075	367.6733	419.7489	487.8064	721.3875	737.3999	785.252	796.5842	866.0009	897.5238	918.4817	935.2862	953.8995	964.7421	1026.4305	1035.1398	1055.5598	1066.6511	1079.0762	1104.4654	1122.2622	1149.5872	1188.0802	1239.104	1279.8635	1304.1992	1321.8575	1331.5128	1360.9654	1380.2774	1400.6036	1413.6091	1420.9952	1469.6889	1478.0509	1486.2241	1495.2714	1499.9466	1500.132	1501.8577	1512.0895	1514.2476	2998.0845	3008.5915	3017.8148	3022.5374	3028.3786	3029.0668	3037.8797	3062.5321	3083.2441	3094.6286	3098.0154	3099.5983	3122.9925	3127.8622	3199.5493	3214.1818
CCCCC1(C)CC1	CCCCC1(C)CC1	
InChI=1S/C8H16/c1-3-4-5-8(2)6-7-8/h3-7H2,1-2H3	InChI=1S/C8H16/c1-3-4-5-8(2)6-7-8/h3-7H2,1-2H3
