16
gdb 85471	2.47703	1.45943	1.09153	4.4618	69.32	-0.2656	0.0054	0.271	1109.093	0.126147	-434.131028	-434.122779	-434.121834	-434.163978	30.627	
C	-0.3344368808	 1.5621913184	-0.0195957305	-0.414502
C	 0.0813949503	 0.0988624059	-0.0511772149	 0.038881
N	 1.1277741722	-0.1937621226	-1.0207361818	-0.344027
C	 1.9122009775	-1.2652847205	-0.6224171295	 0.443439
O	 2.7250680158	-1.86734728	-1.2786333985	-0.391953
N	 1.5665470344	-1.5272522966	 0.7110516023	-0.334578
C	 0.7527628189	-0.4495168915	 1.2496604426	-0.147968
C	 1.5514241714	 0.5658424251	 1.9658505456	 0.289115
N	 2.181016089	 1.336013635	 2.5539365132	-0.31999
H	 0.5258156824	 2.2114492973	 0.1580070437	 0.157268
H	-0.7916241767	 1.842990267	-0.9731817812	 0.126536
H	-1.0753945476	 1.7348888465	 0.767157349	 0.13184
H	-0.8052397969	-0.5297202979	-0.2262038245	 0.100643
H	 0.9606185987	-0.0887682258	-2.0091585834	 0.259318
H	 2.2771474106	-1.9587854079	 1.2830768753	 0.266883
H	-0.0082941893	-0.8225605123	 1.9416021725	 0.139095
89.4546	141.8829	152.2102	237.6686	274.8077	297.7048	419.0634	472.963	494.0486	523.3353	558.2454	607.615	696.6348	732.8296	770.0646	855.6988	924.1025	971.6215	983.2143	1067.0651	1096.6858	1142.0981	1173.5929	1233.4097	1269.5307	1349.842	1366.6968	1393.9192	1405.9937	1418.7402	1422.7955	1491.746	1499.7692	1867.2896	2353.6884	2981.9385	3045.8315	3066.4444	3112.7137	3137.1874	3629.3246	3642.8132
CC1NC(=O)NC1C#N	C[C@H]1NC(=O)N[C@H]1C#N	
InChI=1S/C5H7N3O/c1-3-4(2-6)8-5(9)7-3/h3-4H,1H3,(H2,7,8,9)	InChI=1S/C5H7N3O/c1-3-4(2-6)8-5(9)7-3/h3-4H,1H3,(H2,7,8,9)/t3-,4+/m1/s1
