21
gdb 85681	2.52104	1.29712	1.11601	4.5557	83.76	-0.2233	0.0303	0.2535	1211.9638	0.180891	-383.271399	-383.261512	-383.260568	-383.305594	36.829	
C	-0.0310878421	 1.5979676399	-0.029366062	-0.336792
N	-0.0093065386	 0.1579593767	 0.0840365882	-0.075683
C	-1.2505350234	-0.5646734306	 0.3602321106	-0.177268
C	-0.4361524726	-1.6067152071	 1.1826663114	-0.225668
C	-0.1669811915	-2.8562206817	 0.4940521666	 0.296799
N	 0.0454801085	-3.8558179706	-0.0473851509	-0.339345
C	 0.7294149728	-0.5383514132	 1.174495926	 0.299333
C	 2.1171581429	-1.0028894998	 0.7531613915	-0.428681
C	 0.7747137174	 0.2090461278	 2.51410079	-0.442699
H	 0.98787925	 1.9780024121	-0.1552345737	 0.125961
H	-0.5985675777	 1.8795178469	-0.9230587068	 0.127856
H	-0.4879036857	 2.1127425982	 0.8348920022	 0.095257
H	-1.9655644712	-0.0217736158	 1.0001084026	 0.091821
H	-1.7786014054	-0.9350354847	-0.5236903631	 0.122511
H	-0.833592334	-1.8258687168	 2.1753842056	 0.120726
H	 2.0740414667	-1.5568744852	-0.1864457262	 0.143149
H	 2.7728984525	-0.1368142169	 0.6108969196	 0.114808
H	 2.5694339551	-1.6427351806	 1.5182697506	 0.119902
H	 1.1753125127	-0.4420833016	 3.2976337252	 0.125497
H	 1.4248144907	 1.087097405	 2.4478057065	 0.123948
H	-0.2174281372	 0.5462826881	 2.8309024361	 0.118566
78.6297	144.6002	181.8332	195.4963	210.2366	239.8884	257.4683	289.6676	323.3172	353.2643	412.8916	446.0327	507.7067	584.7234	651.3809	720.9142	818.378	862.6552	934.1303	957.3565	977.1526	998.4262	1027.3694	1083.4931	1127.253	1149.3831	1177.9947	1181.7612	1200.883	1232.6406	1272.1535	1281.9329	1334.7525	1342.9031	1396.5601	1417.1775	1449.8693	1476.0546	1480.3808	1485.4076	1496.9163	1500.3659	1508.4261	1526.7178	2353.4765	2944.5135	2965.641	3032.9579	3037.8497	3057.7337	3070.5356	3096.416	3098.3452	3099.1479	3105.3293	3108.3539	3134.9223
CN1CC(C#N)C1(C)C	CN1C[C@@H](C#N)C1(C)C	
InChI=1S/C7H12N2/c1-7(2)6(4-8)5-9(7)3/h6H,5H2,1-3H3	InChI=1S/C7H12N2/c1-7(2)6(4-8)5-9(7)3/h6H,5H2,1-3H3/t6-/m1/s1
