22
gdb 123121	6.59185	0.43233	0.41372	4.583	80.34	-0.2433	0.0355	0.2788	2556.1518	0.192006	-441.522188	-441.51056	-441.509616	-441.56139	39.548	
N	-0.0136978394	 1.3183810876	-0.2527215967	-0.522593
C	 0.0592900754	 0.0297657648	 0.1981712704	 0.407552
O	 1.0864388795	-0.4410497994	 0.6464143469	-0.357409
C	-1.2468435245	-0.7581912101	 0.1030653895	-0.316825
C	-1.0131119721	-2.2660362203	-0.0125380028	-0.162553
C	-2.3081768334	-3.0805645681	 0.0568599011	-0.193282
C	-2.0702227068	-4.588142839	-0.0690304012	-0.165204
C	-3.354145329	-5.4029499093	 0.0101908005	-0.073514
O	-3.0141352338	-6.7748395302	-0.1260888989	-0.42092
H	 0.787362566	 1.9135472634	-0.1182624563	 0.258547
H	-0.8795601524	 1.7347555375	-0.5461510823	 0.255237
H	-1.821286004	-0.5401384714	 1.0147932419	 0.124305
H	-1.8521609268	-0.388923125	-0.7342194816	 0.098086
H	-0.492541355	-2.4797200037	-0.9544082498	 0.102503
H	-0.3270179496	-2.5693725655	 0.7844018844	 0.126382
H	-2.820178479	-2.8674340819	 1.0061584419	 0.09148
H	-2.9942114137	-2.750747925	-0.7365229852	 0.08869
H	-1.5747808979	-4.8136301534	-1.0213887473	 0.105231
H	-1.3917798881	-4.9296053468	 0.7221712345	 0.108167
H	-3.8574831654	-5.211014982	 0.972508098	 0.08163
H	-4.0471485791	-5.0835921831	-0.7862748841	 0.080362
H	-3.8224137208	-7.2922747988	-0.0685377329	 0.284128
24.9945	47.6071	74.8637	86.1664	123.6644	151.6787	156.7719	197.636	255.3942	262.6886	358.0064	457.8975	484.1963	524.1838	615.8057	667.4171	736.593	772.2694	844.1438	863.3972	965.8141	996.6869	1035.29	1056.1177	1073.2744	1079.5446	1100.5288	1130.7888	1198.8674	1216.9913	1259.2944	1261.1266	1302.0866	1308.829	1322.5104	1326.2325	1354.9724	1398.0165	1408.1574	1463.4937	1464.5756	1485.6544	1493.4628	1508.8039	1529.1326	1616.443	1798.0856	2953.1932	2977.617	2997.9827	3011.4465	3024.2319	3030.1741	3038.2666	3050.5519	3073.9806	3093.7651	3600.928	3738.2648	3830.3511
NC(=O)CCCCCO	NC(=O)CCCCCO	
InChI=1S/C6H13NO2/c7-6(9)4-2-1-3-5-8/h8H,1-5H2,(H2,7,9)	InChI=1S/C6H13NO2/c7-6(9)4-2-1-3-5-8/h8H,1-5H2,(H2,7,9)
