20
gdb 120712	2.63173	1.17601	0.88681	3.1628	77.19	-0.2448	0.0075	0.2522	1348.5808	0.168164	-440.272484	-440.262119	-440.261174	-440.308987	35.728	
C	-0.7847278434	 0.4907129517	 0.3170092666	-0.235053
O	 0.6143043018	 0.301813827	 0.4525669464	-0.236081
C	 0.9971682696	-0.6263493354	 1.436468646	-0.08627
C	 0.8741860632	-2.075492205	 0.9796951754	-0.025347
C	 1.2608240476	-3.1931458509	 1.9126399574	-0.268212
N	-0.1078925869	-3.0042372739	 1.4947417384	-0.072995
C	-1.2205402286	-2.7678329781	 2.2886238888	 0.37347
C	-1.4118168473	-3.7781761612	 3.4054666077	-0.471481
O	-2.0070520326	-1.8725506751	 2.0622055352	-0.34397
H	-1.2317713876	 0.8524919155	 1.2532968167	 0.11378
H	-0.9185885721	 1.2445671239	-0.4626793069	 0.116022
H	-1.306660939	-0.4304494494	 0.0366789502	 0.131216
H	 2.0584387683	-0.4259820191	 1.6271115869	 0.111484
H	 0.4475510802	-0.4737103273	 2.3780474667	 0.100052
H	 1.0981848183	-2.2048663104	-0.0781775033	 0.113679
H	 1.7749406146	-4.0730939788	 1.5336925501	 0.127041
H	 1.5222616024	-2.9170059302	 2.9335448984	 0.123579
H	-0.7595547535	-3.5283031858	 4.2501880312	 0.139273
H	-2.4470790703	-3.7401224276	 3.7443270215	 0.148996
H	-1.1557670747	-4.7888758	 3.0779280967	 0.140817
46.1971	79.5896	96.9225	105.6804	129.5822	172.5525	207.0932	278.9659	356.0855	369.3385	439.7279	483.4981	591.3211	632.3801	681.2782	825.6797	910.7402	945.8057	1004.447	1022.2739	1038.1718	1051.8014	1090.075	1126.5374	1133.8002	1147.3031	1176.7343	1185.4697	1205.461	1227.9023	1306.6834	1364.6948	1381.8752	1399.1155	1442.8677	1469.0025	1472.8679	1480.6842	1484.8437	1487.2805	1502.8303	1516.0278	1783.1267	2990.6091	3006.9746	3044.8899	3055.5355	3076.3597	3089.1736	3112.6076	3121.0192	3126.3797	3161.134	3176.4821
COCC1CN1C(C)=O	COC[C@H]1CN1C(=O)C	
InChI=1S/C6H11NO2/c1-5(8)7-3-6(7)4-9-2/h6H,3-4H2,1-2H3	InChI=1S/C6H11NO2/c1-5(8)7-3-6(7)4-9-2/h6H,3-4H2,1-2H3/t6-,7?/m1/s1
