17
gdb 78131	2.42661	1.50987	1.25195	5.4109	76.34	-0.2418	-0.0188	0.223	1074.4492	0.135626	-417.999698	-417.991265	-417.990321	-418.033066	30.924	
C	 0.1823831634	 1.6231499066	-0.2966847401	-0.430322
C	 0.1295698071	 0.1149859193	-0.1984404334	-0.019424
C	 0.7239331511	-0.8394710754	-1.1914051902	-0.043798
C	 1.3143942754	-0.7710350632	 0.2092880994	-0.247544
C	 2.5911765937	-0.2646273528	-0.4461588618	 0.432618
O	 3.6820791763	 0.0523974776	-0.0862360582	-0.32031
N	 1.9859142327	-0.3322451267	-1.7370362117	-0.099371
C	 2.1878036261	 0.3411283035	-2.9300879026	 0.064448
N	 3.2584148818	 0.9676836634	-3.1973298517	-0.4207
H	 1.1182685504	 1.974922407	-0.7368356488	 0.154307
H	-0.6444666301	 1.9971824221	-0.9098752965	 0.123009
H	 0.092900858	 2.0721979157	 0.6972045124	 0.133482
H	-0.7958147797	-0.268200569	 0.2310281241	 0.105425
H	 0.216632043	-1.671304027	-1.6626152758	 0.122494
H	 1.2606939524	-1.4902970249	 1.013598569	 0.123117
H	 1.3193017442	 0.2324819204	-3.5942256045	 0.093811
H	 3.2010867341	 1.3724268034	-4.1301656096	 0.228759
72.2372	134.4402	158.9135	174.4493	197.6862	281.512	370.9803	451.6959	492.7702	608.1356	690.2081	734.0443	775.3453	811.6719	817.6471	848.2005	879.6492	949.3978	1001.1688	1034.4181	1058.1904	1067.2168	1082.9504	1103.7868	1129.4408	1197.8003	1224.9507	1272.5403	1296.1829	1378.7477	1414.455	1422.0239	1430.8955	1492.1194	1501.2288	1717.2865	1908.5505	3022.7421	3041.1554	3103.2668	3115.6472	3134.0302	3201.0509	3228.8193	3503.079
CC1C2C1C(=O)N2C=N	C[C@H]1[C@@H]2[C@H]1C(=O)N2[CH][NH]	
InChI=1S/C6H8N2O/c1-3-4-5(3)8(2-7)6(4)9/h2-5,7H,1H3	InChI=1S/C6H8N2O/c1-3-4-5(3)8(2-7)6(4)9/h2-5,7H,1H3/t3-,4+,5-/m1/s1
