13
gdb 50797	5.70967	0.61558	0.55567	2.4002	77.05	-0.2655	-0.1058	0.1597	1813.9637	0.087191	-452.735515	-452.726153	-452.725208	-452.772534	30.269	
N	 0.0852293203	 1.4761038125	 0.0077038917	-0.455428
C	 0.0821153266	 0.2007597612	 0.0009001313	 0.241991
N	-1.0934469282	-0.5581445108	 0.007247014	-0.328843
C	-2.412990578	-0.1192107713	 0.024019384	 0.15901
O	-2.7931744581	 1.0177620512	 0.035992836	-0.247784
C	 1.2692009142	-0.6169756054	-0.014358348	 0.059258
C	 2.2696247308	-1.2954113804	-0.0271854228	 0.045837
C	 3.4832205033	-2.0812789128	-0.0425067556	 0.022543
O	 3.4985515772	-3.2891512611	-0.0486470949	-0.214565
H	 1.0452394285	 1.8179482998	 0.0010058849	 0.240792
H	-0.9630034518	-1.5585888239	-0.0004730982	 0.271124
H	-3.0928276858	-0.9951621928	 0.0248993509	 0.088936
H	 4.4144659609	-1.4823790762	-0.0483292434	 0.117129
21.9641	39.7997	63.264	146.3183	185.9641	237.7335	239.3957	344.9508	366.4261	561.2789	574.9067	576.946	724.4469	741.4773	877.8671	927.8793	954.1529	1018.5065	1023.9671	1129.9831	1175.7548	1322.7914	1418.7961	1446.5725	1534.6385	1676.6223	1768.3425	1848.9151	2318.9124	2930.4716	2942.9462	3504.1176	3626.2705
N=C(NC=O)C#CC=O	N=C(NC=O)C#CC=O	
InChI=1S/C5H4N2O2/c6-5(7-4-9)2-1-3-8/h3-4H,(H2,6,7,9)	InChI=1S/C5H4N2O2/c6-5(7-4-9)2-1-3-8/h3-4H,(H2,6,7,9)
