15
gdb 125013	3.4187	1.28544	0.94111	3.8502	78.68	-0.2157	-0.0302	0.1855	1188.755	0.111187	-416.772408	-416.763457	-416.762513	-416.806177	32.246	
C	 0.0599309643	 1.5147834845	 0.0124217176	-0.511083
C	-0.0404348235	 0.0337041772	-0.0427604293	 0.378431
C	-1.0876835643	-0.8349679929	 0.0527012202	-0.032481
N	-2.4406501591	-0.5767409909	 0.2929756817	-0.622293
C	-0.4694547337	-2.1207919866	-0.0747450261	 0.233909
N	 0.8405515685	-2.0197904599	-0.2338578354	-0.222445
O	 1.1044819751	-0.6710152419	-0.2252969501	-0.206326
C	-1.1391163945	-3.3677745009	-0.039360626	 0.232494
C	-1.7801558578	-4.3860850114	-0.0060278113	-0.396322
H	 0.9310098591	 1.8198603135	 0.5997109976	 0.154242
H	 0.1596821045	 1.9608155409	-0.9844297921	 0.144772
H	-0.8353455014	 1.9288328571	 0.4841499696	 0.14209
H	-2.8234550947	 0.1554808658	-0.2907966259	 0.250521
H	-3.0025668591	-1.413590044	 0.1963419102	 0.252989
H	-2.3185163036	-5.3012088106	 0.0247849792	 0.201502
88.4182	109.5498	129.0824	157.4533	241.4096	258.7676	323.483	382.0257	490.439	524.6507	570.4555	600.087	623.5976	680.8297	705.1874	738.4506	753.3916	780.7463	965.2476	1002.6752	1034.4089	1062.7422	1226.0161	1248.0955	1285.8579	1409.6182	1468.7878	1478.357	1484.3954	1495.4247	1653.8662	1691.5272	2236.5187	3030.5876	3091.9576	3123.7596	3500.4391	3534.8122	3622.3829
CC1=C(N)C(=NO1)C#C	Cc1c(N)c(no1)C#C	
InChI=1S/C6H6N2O/c1-3-5-6(7)4(2)9-8-5/h1H,7H2,2H3	InChI=1S/C6H6N2O/c1-3-5-6(7)4(2)9-8-5/h1H,7H2,2H3
