19
gdb 117856	4.1375	0.74667	0.68635	2.3011	81.02	-0.2317	0.0276	0.2593	1676.8001	0.156881	-419.161354	-419.150927	-419.149983	-419.197415	37.05	
C	 0.5426527968	 1.5762493262	-0.6766372559	-0.227179
O	 0.8522363492	 0.2438834076	-0.3376727086	-0.244949
C	-0.1295546474	-0.6786274115	-0.7664614799	-0.117216
C	 0.3405027022	-2.0926465602	-0.4806835604	 0.33399
N	 1.6996596107	-2.2646512675	-0.5625678557	-0.543329
N	-0.5613021957	-2.9797895626	-0.2875502265	-0.294382
C	-0.1359845719	-4.3737388605	-0.1626837989	-0.313741
C	 0.7241218812	-4.6653460806	 0.9909683887	 0.305799
C	 1.446607027	-4.8770619556	 1.9299765809	-0.471232
H	 0.4457011907	 1.7056380073	-1.765804961	 0.109689
H	-0.3952939419	 1.9062198689	-0.2055027873	 0.113881
H	 1.3602597015	 2.2039075749	-0.3147442644	 0.130255
H	-1.0890158021	-0.5231679053	-0.2579411619	 0.12387
H	-0.3024280663	-0.5712410776	-1.8511171045	 0.108836
H	 2.2289782364	-1.4086581049	-0.4778298387	 0.262579
H	 2.0889508405	-3.0579726048	-0.0735175066	 0.261464
H	-1.0376130712	-4.9915045475	-0.0861749585	 0.136367
H	 0.3881415812	-4.7045218093	-1.0749718227	 0.127062
H	 2.0607145591	-5.0776897871	 2.7728611219	 0.198236
56.6538	76.2363	97.9304	110.8844	186.2682	229.3433	249.711	301.8441	333.7679	360.2859	409.5486	494.1384	535.2978	614.6542	620.9435	644.8377	672.9944	696.7533	874.3684	921.8336	985.8293	1010.0468	1028.0951	1033.3143	1157.3216	1164.3235	1187.0088	1228.8769	1246.2711	1269.0149	1343.9278	1366.6138	1413.7903	1476.67	1477.5244	1486.1044	1496.945	1518.3691	1642.8315	1738.9047	2221.1176	2961.9149	2967.6078	2979.7405	3027.5698	3050.5576	3052.713	3118.768	3503.4005	3554.9631	3664.2321
COCC(N)=NCC#C	COCC(=NCC#C)N	
InChI=1S/C6H10N2O/c1-3-4-8-6(7)5-9-2/h1H,4-5H2,2H3,(H2,7,8)	InChI=1S/C6H10N2O/c1-3-4-8-6(7)5-9-2/h1H,4-5H2,2H3,(H2,7,8)
