23
gdb 57372	2.32915	1.32768	1.13407	2.8338	85.51	-0.2458	-0.0203	0.2255	1234.7596	0.202815	-388.2984	-388.288041	-388.287097	-388.333472	39.477	
C	 0.2425068411	 1.5264773701	 0.3117061578	-0.426343
C	-0.0129045031	 0.0326761044	 0.0317717	 0.144262
C	 0.5775088478	-0.7756583081	 1.2081427172	-0.407786
C	-1.5410973983	-0.1793082819	-0.0420971543	-0.407718
C	 0.6323265664	-0.4438428183	-1.2889114847	 0.260919
C	 0.7219695689	 0.4566664174	-2.5214677982	-0.300426
C	 1.9689310834	 0.1072321589	-1.7865247591	-0.300514
C	 0.4396548894	-1.8833405884	-1.6470798546	 0.097429
O	 0.8837403626	-2.4036464641	-2.6450647161	-0.281742
H	 1.3074724777	 1.7536623749	 0.4126424322	 0.116484
H	-0.1768710993	 2.1720133553	-0.465059581	 0.116459
H	-0.2373037569	 1.8044723441	 1.2556544503	 0.116177
H	 0.1378290134	-0.4489342044	 2.1565053406	 0.112115
H	 0.3861812939	-1.848689676	 1.1134691635	 0.114227
H	 1.661363674	-0.6341249001	 1.2724239221	 0.117288
H	-1.9733027149	 0.3898299904	-0.8716647614	 0.117261
H	-1.8091544305	-1.2305876834	-0.1833061459	 0.114224
H	-2.019897138	 0.1573525514	 0.8835758422	 0.112109
H	 0.5470305328	-0.0329447377	-3.472453871	 0.136627
H	 0.3337081098	 1.463907164	-2.4365447184	 0.117338
H	 2.451011432	 0.8706768515	-1.1888454279	 0.117322
H	 2.6329815848	-0.6175698812	-2.2430315841	 0.136656
H	-0.154602967	-2.4851408989	-0.9286933893	 0.077632
32.9409	118.9001	187.6034	220.4037	251.3593	256.7612	273.341	303.7133	319.0058	348.9922	368.9942	380.7889	440.1297	493.2807	565.0577	711.8602	795.6986	808.728	828.3643	911.3368	927.0865	934.1866	949.8066	963.8727	992.2759	1050.977	1057.1595	1058.25	1067.9773	1102.7104	1192.7709	1204.6509	1218.9085	1236.3624	1301.6456	1315.5997	1401.2675	1401.3087	1433.429	1445.8408	1446.8167	1476.573	1484.1023	1486.6034	1489.4516	1509.5947	1514.8133	1519.6243	1798.3324	2910.1132	3031.3157	3034.0379	3042.9116	3097.8783	3098.2804	3106.135	3106.557	3110.0182	3115.8273	3147.1378	3147.6824	3232.4343	3246.0184
CC(C)(C)C1(CC1)C=O	CC(C)(C)C1(CC1)C=O	
InChI=1S/C8H14O/c1-7(2,3)8(6-9)4-5-8/h6H,4-5H2,1-3H3	InChI=1S/C8H14O/c1-7(2,3)8(6-9)4-5-8/h6H,4-5H2,1-3H3
