19
gdb 82522	3.15915	1.39709	1.29608	1.8344	73.96	-0.2343	0.0688	0.303	1045.913	0.159793	-422.989976	-422.981989	-422.981045	-423.021905	32.431	
O	-0.0323707126	 1.4718478127	-0.1013457986	-0.409816
C	-0.0582066741	 0.0746098935	-0.0120272252	 0.080726
C	-0.4614805583	-0.6541891899	 1.2431964631	-0.107881
C	-1.2425595559	 0.0874035681	 2.3323146062	-0.312028
C	-2.6591484129	 0.3585947524	 1.7871751385	 0.390836
O	-3.7281984058	 0.0616596946	 2.6404150662	-0.466059
C	-2.8608412587	 1.3751418734	 0.6987561178	-0.362218
C	-2.6937806131	-0.1020578109	 0.3526910462	-0.089032
C	-1.3519097165	-0.697429304	-0.0072531914	-0.078869
H	 0.7119845875	 1.7819122702	 0.4259900289	 0.287364
H	 0.7387722694	-0.4047122787	-0.5833990703	 0.085026
H	 0.136948767	-1.5065493925	 1.548000586	 0.082914
H	-1.3478353215	-0.5569729039	 3.2093034462	 0.112888
H	-0.738390019	 1.0051759458	 2.6591658317	 0.088526
H	-3.9422500154	 0.8591612154	 3.135901438	 0.27947
H	-3.8765823706	 1.7474499851	 0.603675572	 0.100249
H	-2.0773587409	 2.0733625193	 0.4461338568	 0.140954
H	-3.5703657548	-0.6167753959	-0.0226704316	 0.091682
H	-1.379090434	-1.5765664147	-0.6416950405	 0.085268
139.4581	174.3671	246.3789	279.8847	288.2813	359.8544	381.8092	427.0929	513.1276	579.9618	640.9427	691.6114	700.3783	743.9833	787.4222	849.1751	892.1884	912.1152	950.8617	974.6472	977.3477	1008.7388	1048.3551	1068.7445	1077.7155	1098.0536	1111.569	1119.7594	1177.1076	1245.4123	1250.849	1273.1894	1284.6358	1299.368	1333.7959	1348.9431	1372.6683	1396.3858	1454.5474	1470.518	1487.7258	3029.7271	3077.593	3092.5845	3138.0991	3154.708	3165.2514	3183.7842	3262.9471	3797.7955	3799.5574
OC1C2CC3(O)CC3C12	O[C@H]1[C@H]2C[C@@]3(O)C[C@H]3[C@@H]12	
InChI=1S/C7H10O2/c8-6-3-1-7(9)2-4(7)5(3)6/h3-6,8-9H,1-2H2	InChI=1S/C7H10O2/c8-6-3-1-7(9)2-4(7)5(3)6/h3-6,8-9H,1-2H2/t3-,4-,5-,6-,7+/m0/s1
