20
gdb 103818	2.71771	1.17518	0.95817	4.6512	76.8	-0.2318	0.0313	0.2631	1294.4037	0.169238	-440.301061	-440.291114	-440.29017	-440.335918	36.771	
C	 0.5557755057	 1.038112014	-0.471753461	-0.25436
O	 0.9089847514	-0.3069545314	-0.1865144581	-0.287885
C	 0.8412565289	-0.6531734988	 1.1781096297	 0.403425
C	 1.9484766396	-0.0595633098	 2.0228012371	-0.449052
C	-0.52387218	-0.8813858425	 1.7582118786	-0.350458
C	 0.3980194657	-2.0697645483	 1.4846751434	-0.17006
C	 0.0303468074	-3.1448465055	 0.4937657105	 0.394567
N	-0.374270674	-2.7298104108	-0.7459889129	-0.544811
O	 0.0533516946	-4.3156949014	 0.8260283955	-0.372394
H	 1.281341755	 1.7478237573	-0.0554238218	 0.121948
H	 0.5539677716	 1.1390021192	-1.5592664931	 0.131614
H	-0.4415118192	 1.2830635774	-0.0831487638	 0.117617
H	 1.8877561394	 1.0330192541	 2.0607986139	 0.121029
H	 1.8866880949	-0.4274782859	 3.050050625	 0.128017
H	 2.9258862882	-0.3359018586	 1.615291544	 0.133254
H	-0.7224428316	-0.6123205106	 2.7899213417	 0.121745
H	-1.3688064519	-0.7780094505	 1.0859653192	 0.130195
H	 0.8636449289	-2.5179701422	 2.3545317377	 0.111514
H	-0.0575116279	-1.8242046985	-1.0626214303	 0.263666
H	-0.4905270967	-3.4648273972	-1.4263860852	 0.25043
60.8827	101.3683	146.906	170.73	196.6591	222.3791	293.9331	311.4259	370.2171	384.1627	440.3601	518.7007	542.9558	618.9431	628.924	688.1878	761.5838	793.795	870.6654	922.2511	931.7983	1000.3007	1055.1762	1062.1266	1085.4348	1112.5874	1125.8917	1160.4895	1181.8141	1219.6512	1247.5875	1294.3458	1359.5034	1399.5462	1420.9644	1472.2127	1476.0621	1480.7226	1493.8915	1506.4362	1510.7162	1613.024	1789.6412	3007.539	3039.8074	3067.3815	3104.6392	3121.9486	3123.6468	3133.516	3183.6461	3224.7493	3547.1274	3687.8496
COC1(C)CC1C(N)=O	CO[C@@]1(C)C[C@H]1C(=O)N	
InChI=1S/C6H11NO2/c1-6(9-2)3-4(6)5(7)8/h4H,3H2,1-2H3,(H2,7,8)	InChI=1S/C6H11NO2/c1-6(9-2)3-4(6)5(7)8/h4H,3H2,1-2H3,(H2,7,8)/t4-,6-/m0/s1
