21
gdb 76694	2.73374	1.09806	0.90714	2.9362	82.72	-0.2253	0.0246	0.2499	1356.4951	0.181825	-383.259127	-383.248884	-383.247939	-383.294785	36.929	
C	-0.2134333963	 0.6251160466	-2.0064772614	-0.40704
C	 0.2533944682	-0.3147361738	-0.9130672628	-0.061142
C	 1.456890562	-0.0212970245	-0.0253605915	-0.029521
C	 2.286062801	 1.2358710313	-0.1782284025	-0.41528
C	 0.0462647944	-0.0202444364	 0.5503128974	 0.018631
N	-0.6803184532	 1.1533008357	 0.9746007412	-0.278768
C	-0.582802516	 1.4627456419	 2.3915745991	-0.298147
C	 0.7634959665	 1.8164202211	 2.8962010794	 0.265512
N	 1.8214906683	 2.1054291925	 3.2621213744	-0.316615
H	-0.0492121665	 1.6797419166	-1.769477274	 0.108155
H	 0.3205320966	 0.4234906623	-2.9411965384	 0.12307
H	-1.2837715227	 0.4966324976	-2.1992920391	 0.125094
H	 0.124218509	-1.3605267974	-1.1815196182	 0.086433
H	 2.0512585993	-0.8930287647	 0.2382844715	 0.084378
H	 1.6766327401	 2.1313269207	-0.3326799924	 0.098606
H	 2.8878878218	 1.4128214979	 0.717299327	 0.149998
H	 2.9625808736	 1.1560284188	-1.0364294202	 0.115544
H	-0.2181240047	-0.8702744147	 1.1752857397	 0.09102
H	-0.4511744323	 1.9660807269	 0.4169216676	 0.230507
H	-1.2567699189	 2.2944964204	 2.6225190848	 0.152925
H	-0.9403595302	 0.6004363412	 2.9662493583	 0.15664
45.7661	84.7537	138.9436	161.9821	173.1877	180.3473	237.2638	286.4688	303.6929	379.9802	459.5747	523.2755	547.7347	616.2085	697.9843	744.4652	775.4455	852.6265	888.8601	950.0463	955.5719	985.7364	1036.9588	1049.4916	1107.6878	1118.888	1146.5116	1158.6286	1182.444	1186.6869	1261.9301	1299.7381	1358.2788	1372.4761	1384.7904	1419.3839	1422.4294	1439.5846	1453.973	1487.1421	1494.7525	1496.2004	1500.7506	1530.4985	2345.7808	3033.5544	3038.3078	3043.7493	3084.6748	3091.3577	3095.1883	3104.97	3113.8385	3123.9632	3125.7394	3141.4788	3570.145
CC1C(C)C1NCC#N	C[C@H]1[C@@H](C)[C@H]1NCC#N	
InChI=1S/C7H12N2/c1-5-6(2)7(5)9-4-3-8/h5-7,9H,4H2,1-2H3	InChI=1S/C7H12N2/c1-5-6(2)7(5)9-4-3-8/h5-7,9H,4H2,1-2H3/t5-,6+,7-
