17
gdb 79430	3.6693	1.25454	1.06085	2.8207	74.18	-0.2468	-0.0285	0.2182	1118.9059	0.13514	-421.75231	-421.744552	-421.743608	-421.784678	29.658	
O	-0.0010042177	 1.4735510707	-0.0581458528	-0.439996
C	 0.0680239273	 0.0687464371	-0.0146652947	 0.10797
C	 0.0290661774	-0.6204667185	 1.3643266593	-0.136481
C	-1.5025284243	-0.31847226	 1.5431603864	-0.041243
C	-1.8398585247	-1.7878959567	 1.8642561411	-0.314959
C	-0.7474532345	-1.8766000194	 0.7872113238	 0.26624
C	-0.1363447257	-3.0817193263	 0.1775263751	 0.021793
O	-0.4317966553	-4.2129280647	 0.478830071	-0.250467
C	-1.3022147195	-0.6101505936	 0.0120160396	-0.105263
H	 0.889125058	 1.8263636776	 0.0371348707	 0.286176
H	 0.7976631953	-0.3215978274	-0.7376242808	 0.068494
H	 0.7816677421	-0.6613753206	 2.1538028271	 0.081813
H	-1.923750837	 0.5926910326	 1.9625823365	 0.091257
H	-1.5723082536	-2.1525769425	 2.8598008603	 0.104502
H	-2.8343138821	-2.1418555678	 1.578592705	 0.105416
H	 0.6370067337	-2.8789731201	-0.5995268411	 0.067351
H	-2.0774958294	-0.6323620505	-0.7546018764	 0.087397
91.5691	140.4207	235.5023	259.5367	264.112	320.1285	401.7334	455.7991	594.4689	697.1604	705.1676	817.0687	848.8543	871.8429	897.3306	906.3508	946.894	998.5614	1020.4278	1025.7177	1055.5176	1063.0021	1108.0583	1130.83	1140.9472	1157.4151	1187.4681	1194.5458	1222.6295	1236.2719	1287.2228	1316.635	1319.5729	1426.7944	1442.3107	1514.0419	1809.8969	2856.1365	3007.3913	3053.9328	3101.2289	3112.5122	3113.7746	3140.9188	3821.8336
OC1C2C3CC2(C=O)C13	O[C@H]1[C@H]2[C@@H]3C[C@@]2(C=O)[C@H]13	
InChI=1S/C7H8O2/c8-2-7-1-3-4(7)6(9)5(3)7/h2-6,9H,1H2	InChI=1S/C7H8O2/c8-2-7-1-3-4(7)6(9)5(3)7/h2-6,9H,1H2/t3-,4+,5-,6-,7-
