15
gdb 47353	2.49604	1.51724	1.1883	4.2453	67.22	-0.2792	-0.0098	0.2694	1048.3531	0.113643	-453.950232	-453.942461	-453.941517	-453.983143	28.395	
N	-0.1408337191	 1.2942269064	-0.3725164557	-0.489065
C	-0.0513711959	 0.0908736034	-0.0132860557	 0.375309
C	-1.2840389346	-0.7840521735	 0.0884284536	-0.156914
O	-1.1590796507	-1.8416522903	 1.023541908	-0.233366
C	 0.0062426353	-2.5886423292	 0.7817582921	-0.107198
C	 1.2332552288	-1.6984887659	 0.9925930321	-0.042314
O	 1.1687861603	-0.5191259083	 0.1810132453	-0.25226
C	 1.389183917	-1.3223718898	 2.4102193535	 0.285796
N	 1.529612241	-1.0430143517	 3.5218155035	-0.304992
H	 0.7837428803	 1.7231257723	-0.4486009708	 0.233313
H	-2.1283250459	-0.1676596999	 0.3946810897	 0.161312
H	-1.4948770515	-1.1900598707	-0.9152907589	 0.125132
H	 0.0177348963	-3.426454794	 1.4825776007	 0.145007
H	 0.0295357196	-2.9791424201	-0.2483454278	 0.113094
H	 2.1406588592	-2.2225140987	 0.6756396703	 0.147144
68.5875	95.9776	179.3802	256.2785	350.7707	400.5212	416.797	465.2166	501.114	588.0066	623.2613	774.259	788.9598	885.9554	915.0976	935.303	972.7011	1022.0889	1045.6496	1095.1277	1135.9181	1163.7246	1248.1563	1283.4905	1311.5019	1334.025	1369.1925	1384.5282	1410.1868	1474.6926	1489.0185	1773.4759	2364.0127	2972.2947	2985.775	3070.9337	3112.9189	3147.9552	3470.6669
N=C1COCC(O1)C#N	[NH][C]1COC[C@@H](O1)C#N	
InChI=1S/C5H6N2O2/c6-1-4-2-8-3-5(7)9-4/h4,7H,2-3H2	InChI=1S/C5H6N2O2/c6-1-4-2-8-3-5(7)9-4/h4,7H,2-3H2/t4-/m0/s1
