25
gdb 111001	2.37371	1.3791	1.08589	0.1435	92.42	-0.2732	0.0854	0.3585	1285.8559	0.230461	-352.361982	-352.352866	-352.351922	-352.395321	36.578	
C	-0.044907037	 1.6091109318	 0.064920662	-0.379969
C	-0.0110225821	 0.0800698711	 0.1818025346	-0.224486
C	-1.3966990325	-0.5486162236	 0.0569858039	 0.03023
C	-2.0315638109	-0.655097453	-1.3680546898	-0.02238
C	-1.2267689088	-1.9725174565	-1.5450077962	-0.27228
C	-1.4962701819	-2.1167138295	-0.0139594079	 0.343648
C	-0.6812577111	-3.0277967881	 0.8750023489	-0.503617
C	-3.0310642458	-2.3031319707	-0.0083015664	-0.248557
C	-3.4365296251	-1.1938176782	-1.0359587139	-0.221627
H	 0.9543841211	 2.0390190389	 0.1861181963	 0.109107
H	-0.4276459264	 1.926550663	-0.9108449381	 0.116814
H	-0.6922808599	 2.0495884854	 0.8314733882	 0.112743
H	 0.6772603186	-0.3225831467	-0.5696861841	 0.095095
H	 0.4140426973	-0.1946947453	 1.1565121468	 0.093939
H	-2.0522998662	-0.0914545326	 0.8115940825	 0.047174
H	-1.9660293628	 0.1600379946	-2.0903092444	 0.052322
H	-1.642431382	-2.7382588283	-2.2086123529	 0.080688
H	-0.1742950421	-1.8172707406	-1.7854817409	 0.093597
H	 0.3899003	-2.810289486	 0.8076146243	 0.11253
H	-0.9768218001	-2.9243707258	 1.9260705594	 0.111435
H	-0.8240609128	-4.0784870559	 0.5960178109	 0.112302
H	-3.3214696993	-3.307753756	-0.3326970378	 0.08916
H	-3.459650656	-2.1376331951	 0.9855444667	 0.089206
H	-4.0832908304	-0.4280801701	-0.597391806	 0.091647
H	-3.9458685639	-1.6003772426	-1.9147473762	 0.091278
85.0544	150.1074	204.2002	220.5772	252.9517	261.0147	311.0773	340.2702	419.8242	466.9684	515.918	599.5491	665.8378	756.2708	821.2649	825.3748	850.1942	873.3552	902.0035	916.4142	936.4767	950.1617	983.2455	999.362	1007.0869	1060.784	1068.9971	1080.074	1111.5253	1141.349	1157.9775	1184.5998	1201.1351	1232.6916	1246.7016	1252.845	1272.9256	1274.8785	1299.3005	1310.3463	1340.883	1350.9736	1408.0345	1411.8386	1415.5584	1481.8205	1490.545	1495.4634	1496.3809	1498.9286	1500.5594	1508.306	1522.6486	2997.4185	3016.8871	3020.5132	3030.7536	3038.5977	3046.1478	3052.0913	3059.1904	3074.8647	3080.8273	3091.5742	3096.3173	3097.6379	3099.8141	3103.0303	3122.5002
CCC1C2CC1(C)CC2	CC[C@H]1[C@H]2C[C@]1(C)CC2	
InChI=1S/C9H16/c1-3-8-7-4-5-9(8,2)6-7/h7-8H,3-6H2,1-2H3	InChI=1S/C9H16/c1-3-8-7-4-5-9(8,2)6-7/h7-8H,3-6H2,1-2H3/t7-,8+,9+/m1/s1
