22
gdb 105809	2.38953	1.45654	1.22238	0.7844	86.25	-0.2056	0.0692	0.2748	1177.247	0.19301	-367.1194	-367.110242	-367.109298	-367.153031	35.509	
C	-0.2118125632	 1.405382135	-0.4981232533	-0.378556
C	-0.3197374649	-0.1253015581	-0.4474390028	-0.271851
C	 0.4922846465	-0.7933322803	-1.522367255	 0.326938
C	-0.019397386	-0.8473562475	-3.0144836094	-0.105919
C	 1.013154744	-1.1885320613	-4.0537139808	-0.31586
C	 0.5120364776	-2.2672496786	-3.1348027054	-0.064535
C	 1.0344194165	-2.1910570079	-1.6589096542	-0.145819
N	 1.8824615628	-1.084264766	-1.3181526608	-0.109757
C	 3.0957376639	-0.5685966612	-1.9440387599	-0.328776
H	 0.8230520242	 1.7272456294	-0.3428993189	 0.120783
H	-0.5405186804	 1.7946295869	-1.46788417	 0.116776
H	-0.8296269433	 1.8714844756	 0.2755173136	 0.110507
H	 0.025409068	-0.4934327495	 0.5244225021	 0.104764
H	-1.3709364436	-0.4243658118	-0.5527953795	 0.094198
H	-1.0065672988	-0.4923577325	-3.2831457231	 0.084876
H	 0.6064426612	-1.2535219291	-5.0599593235	 0.110989
H	 2.0250127955	-0.814246216	-4.0299655217	 0.111937
H	-0.0165633048	-3.1375724435	-3.5020757379	 0.086988
H	 0.9645230087	-3.0354463142	-0.9787376803	 0.087967
H	 2.9095839026	 0.3572500395	-2.4986638653	 0.12491
H	 3.829864861	-0.3432853123	-1.1607627493	 0.113237
H	 3.5490392723	-1.3001592866	-2.6208249347	 0.126203
76.3268	128.0448	149.5507	200.6655	257.4506	258.5061	306.0655	350.0079	379.8451	496.1893	606.2997	630.8651	695.7837	733.8914	762.0611	788.6708	829.0426	882.7853	914.0793	941.5776	953.4443	979.7319	1004.4899	1018.6909	1044.69	1057.7524	1087.1077	1101.6076	1134.2159	1150.9364	1175.8058	1187.1889	1201.5391	1268.4924	1271.8615	1303.0123	1321.6209	1351.4222	1405.1832	1430.8023	1468.0108	1474.0776	1494.315	1498.2471	1505.81	1509.6543	1518.7624	3010.2104	3021.5521	3033.0695	3062.2569	3071.8344	3096.0735	3102.9762	3106.8067	3135.0922	3142.6292	3183.3712	3196.1821	3253.3357
CCC12C3CC3C1N2C	CC[C@]12[C@H]3C[C@H]3[C@H]1N2C	
InChI=1S/C8H13N/c1-3-8-6-4-5(6)7(8)9(8)2/h5-7H,3-4H2,1-2H3	InChI=1S/C8H13N/c1-3-8-6-4-5(6)7(8)9(8)2/h5-7H,3-4H2,1-2H3/t5-,6+,7-,8+,9?/m1/s1
