14
gdb 28649	5.77252	1.01811	0.86593	7.7586	82.94	-0.2328	-0.0462	0.1866	1239.9167	0.103749	-395.80471	-395.79731	-395.796366	-395.836491	28.257	
N	-0.020260057	 1.4004229382	 0.1468976243	-0.589567
C	 0.0193765243	 0.0256177803	 0.0566766062	 0.309992
C	-1.1704752766	-0.7325437227	 0.041934172	-0.06288
N	-1.2103159349	-2.0530084012	 0.0073951038	-0.301433
C	-0.044871798	-2.7194685604	-0.0153526711	 0.189378
C	 1.1933253586	-2.0691466504	-0.0056918531	-0.136841
C	 1.2256977629	-0.6858604622	 0.0297188078	-0.158881
C	-0.1042534063	-4.1533634726	-0.0545364186	 0.225234
N	-0.1127706348	-5.3104417323	-0.0868917544	-0.337225
H	 0.800977375	 1.9039513401	-0.1498811794	 0.260196
H	-0.8832072645	 1.8488333893	-0.1193620031	 0.262068
H	-2.1307569981	-0.2189194458	 0.0605110792	 0.106506
H	 2.1095193311	-2.6470910665	-0.0283497569	 0.127166
H	 2.1733629084	-0.1565769739	 0.0392477234	 0.106288
101.6103	158.2203	266.5959	350.9786	376.7668	420.7442	435.2086	468.8767	512.4211	566.3754	578.9856	665.3054	724.8929	785.1231	859.1247	865.1696	932.0326	979.3097	1027.6866	1078.7039	1161.217	1243.2122	1300.5034	1334.3556	1356.65	1449.6566	1515.0142	1596.8365	1630.7964	1661.5283	2344.4142	3134.5946	3177.133	3208.4633	3583.5363	3688.3317
NC1=CN=C(C=C1)C#N	Nc1cnc(cc1)C#N	
InChI=1S/C6H5N3/c7-3-6-2-1-5(8)4-9-6/h1-2,4H,8H2	InChI=1S/C6H5N3/c7-3-6-2-1-5(8)4-9-6/h1-2,4H,8H2
