21
gdb 36519	3.75771	0.92673	0.7876	0.898	84.4	-0.2473	0.0518	0.2992	1458.5587	0.183237	-387.070899	-387.06207	-387.061126	-387.104494	34.166	
C	-0.0914121461	-1.2377263016	-0.0069336526	-0.441973
C	-0.073368335	-0.0355593696	 0.0050786081	 0.300211
C	-0.0212600838	 1.4216585256	 0.0273634566	-0.377697
C	 1.4138613182	 1.9898106746	-0.0235015117	 0.029548
C	 2.1510290338	 1.6169978444	-1.3195338781	-0.200012
C	 3.5254249044	 2.2863089835	-1.3650008913	-0.081649
O	 3.4322637767	 3.6948357273	-1.2306424489	-0.241158
C	 2.8367151398	 4.0720210623	-0.0029000116	-0.084179
C	 1.4153527307	 3.518229936	 0.1373174371	-0.212075
H	-0.1212401935	-2.2989384442	-0.0177775757	 0.193845
H	-0.5967251449	 1.8218770249	-0.8186439772	 0.127914
H	-0.5206734677	 1.7873062736	 0.9344084131	 0.125834
H	 1.9704766831	 1.5568327679	 0.8200358171	 0.081192
H	 2.2576750062	 0.5302642715	-1.402056269	 0.108809
H	 1.5642169173	 1.9555135166	-2.1838807355	 0.099213
H	 4.1687024164	 1.8738413073	-0.5674471382	 0.08346
H	 4.0219461422	 2.1035753923	-2.3223985366	 0.105873
H	 3.4563925718	 3.7205039776	 0.8413935439	 0.082749
H	 2.8369960865	 5.1658704505	 0.0154010627	 0.105846
H	 0.7807946391	 3.9706148212	-0.6361737987	 0.101819
H	 1.0003258147	 3.8087227982	 1.1104462263	 0.092429
73.4313	104.9997	169.2243	238.8073	286.6011	347.7085	349.7467	367.9026	442.0791	477.7712	530.7922	609.4412	615.9504	638.9795	801.4492	823.7954	863.9757	902.065	933.6891	959.4422	998.7979	1004.7829	1021.8297	1088.0166	1108.8199	1139.5198	1158.9579	1194.4202	1226.5475	1259.1362	1290.6605	1298.0836	1326.5742	1339.6696	1362.0931	1379.1848	1390.9266	1394.8819	1425.9858	1468.0724	1473.9802	1486.7743	1492.7877	1505.0706	2236.0638	2946.7601	2953.239	3002.1089	3011.5736	3018.6585	3025.8948	3044.5488	3064.4358	3081.4011	3082.6482	3084.6329	3506.1523
C#CCC1CCOCC1	C#CCC1CCOCC1	
InChI=1S/C8H12O/c1-2-3-8-4-6-9-7-5-8/h1,8H,3-7H2	InChI=1S/C8H12O/c1-2-3-8-4-6-9-7-5-8/h1,8H,3-7H2
