18
gdb 44601	2.85685	1.83614	1.47144	1.3116	73.71	-0.239	-0.0194	0.2196	929.1987	0.150722	-401.961418	-401.954707	-401.953763	-401.99264	27.38	
O	-0.0218885384	 0.0492801619	-0.3005735676	-0.314548
C	-0.0563570134	 1.2208243212	-0.0339694364	 0.411026
C	-1.321740234	 2.0316587383	 0.2990662035	-0.36044
C	-0.8091495218	 3.3329031425	 0.8840069402	-0.028398
C	 0.6866431567	 3.3210750349	 0.9286387566	-0.073075
C	 1.1537800479	 2.1645257342	 0.0422116297	-0.155012
C	 1.3247601913	 2.8415734225	-1.3449607864	-0.218382
C	 0.233910166	 3.9372757515	-1.3413050696	-0.172925
N	-0.0195287934	 4.2840425487	 0.0745070587	-0.100847
H	-1.9388069428	 2.1492076486	-0.6000349654	 0.134819
H	-1.9290796065	 1.4795633721	 1.023284161	 0.134011
H	-1.403599874	 3.8130992533	 1.6551667726	 0.098592
H	 1.2869248625	 3.6929373842	 1.7520732427	 0.094347
H	 2.0464655073	 1.6324378695	 0.3713993311	 0.094638
H	 2.3190236002	 3.2956874903	-1.3996053906	 0.113929
H	 1.2325341014	 2.1373442329	-2.1768070925	 0.119268
H	 0.5644944495	 4.840837402	-1.8603279667	 0.114971
H	-0.6871600785	 3.6043365014	-1.8328883112	 0.108025
76.3433	224.9979	273.3952	427.829	431.5366	496.8563	611.2652	652.4567	695.1568	735.8133	759.9021	780.2348	829.1145	867.7935	903.7743	921.3413	940.3204	960.9283	1001.3932	1037.0013	1040.4425	1071.0879	1101.5377	1156.0507	1178.9796	1192.7323	1196.2068	1247.8059	1262.9175	1269.2441	1284.6305	1308.4095	1336.5068	1346.1812	1384.5605	1447.6064	1491.723	1519.9784	1847.1583	3037.8054	3043.64	3051.9677	3084.9443	3086.7646	3104.9766	3118.6433	3152.4701	3166.7306
O=C1CC2C3C1CCN23	O=C1C[C@H]2[C@H]3[C@@H]1CCN23	
InChI=1S/C7H9NO/c9-6-3-5-7-4(6)1-2-8(5)7/h4-5,7H,1-3H2	InChI=1S/C7H9NO/c9-6-3-5-7-4(6)1-2-8(5)7/h4-5,7H,1-3H2/t4-,5+,7-,8?/m1/s1
