17
gdb 46121	4.20237	0.94202	0.8783	1.564	73.95	-0.2484	-0.0299	0.2185	1320.5329	0.134057	-421.812077	-421.803398	-421.802454	-421.846188	31.967	
O	 0.0071174318	 0.2071566897	 0.6495976409	-0.29436
C	 0.0279517678	 1.3405411743	 0.2529758688	 0.369446
C	-1.1541509609	 2.3126892871	 0.2136467317	-0.18394
O	-0.687210723	 3.4820636811	-0.4274928892	-0.253099
C	 0.7373360253	 3.5666360588	-0.2894770794	 0.101327
C	 1.1429666502	 4.3107516173	 1.0029214684	-0.375336
C	 0.6219547409	 5.6684757606	 1.0696778276	 0.306535
C	 0.1995887315	 6.7923692323	 1.1103913542	-0.4313
C	 1.2270625137	 2.112843901	-0.3019209518	-0.356115
H	-1.9934579708	 1.8957231538	-0.3521576355	 0.14155
H	-1.5016944614	 2.5023862094	 1.2416078569	 0.128057
H	 1.089004238	 4.1404596168	-1.1499547406	 0.103987
H	 0.805341561	 3.7364360661	 1.8764079275	 0.131245
H	 2.2393788797	 4.3296243646	 1.0571137272	 0.134842
H	-0.179569128	 7.7832545812	 1.1510969605	 0.198106
H	 2.1276560496	 1.9178366238	 0.2839008011	 0.136396
H	 1.4095096046	 1.7675304722	-1.3256850184	 0.142658
52.5996	76.4538	143.9506	157.2494	313.0111	343.3142	369.7261	448.8547	466.4611	529.171	622.1116	625.0393	642.5198	719.5477	758.8528	818.6944	840.8288	927.345	979.5435	987.4832	1022.1713	1073.9052	1091.6354	1160.3948	1177.7061	1219.7063	1237.0949	1262.2514	1297.686	1319.7931	1368.9855	1391.9258	1447.6735	1461.2684	1484.8196	1862.4609	2243.5111	2986.6712	3014.8585	3046.9041	3055.4278	3078.048	3089.4095	3120.1453	3507.1103
O=C1COC(CC#C)C1	O=C1CO[C@@H](CC#C)C1	
InChI=1S/C7H8O2/c1-2-3-7-4-6(8)5-9-7/h1,7H,3-5H2	InChI=1S/C7H8O2/c1-2-3-7-4-6(8)5-9-7/h1,7H,3-5H2/t7-/m0/s1
