18
gdb 66768	2.43639	2.25484	1.77571	1.8497	73.1	-0.2302	0.0793	0.3095	867.8574	0.149585	-401.8901	-401.883367	-401.882423	-401.920839	27.668	
C	 0.0166393732	 1.5563603013	 0.0139653677	-0.535473
C	 0.0179365813	 0.0549354816	-0.039392325	 0.286826
C	 0.535902673	-0.9162382585	-1.1547186071	-0.128406
C	 0.8533147934	-1.8932948122	-0.085505441	-0.088323
C	 0.7532161694	-0.8330216202	 1.0157613178	 0.077973
O	-0.1282567904	-1.1240358704	 2.0795644245	-0.281099
C	-1.4379902456	-1.2398908637	 1.4921409905	-0.090633
C	-1.242127295	-0.8418728272	 0.03358023	-0.046995
N	-0.5008830347	-1.9051531761	-0.7488509316	-0.152336
H	 1.0295756333	 1.9606301596	-0.0895605212	 0.123033
H	-0.5980026323	 1.9872541842	-0.7840170402	 0.122493
H	-0.3838568514	 1.9065513498	 0.9721161547	 0.131546
H	 0.8968162529	-0.7945999596	-2.1663902536	 0.101459
H	 1.4221923336	-2.8133634757	-0.1184091406	 0.098827
H	 1.7005465461	-0.4649864165	 1.4109435764	 0.08604
H	-1.8022892828	-2.2721648848	 1.5721232822	 0.112742
H	-2.1296356951	-0.5794855014	 2.0295857682	 0.103135
H	-2.136944139	-0.5245219803	-0.5033119219	 0.079189
198.1436	210.9685	228.6909	276.185	411.7207	503.6427	611.4651	675.4832	694.1032	761.3391	778.874	831.7941	858.1497	876.1185	909.8315	919.6508	956.0374	962.6061	990.1677	1002.8143	1014.674	1073.3112	1094.1962	1133.3235	1147.0773	1169.2514	1183.5966	1198.2051	1220.8904	1241.2185	1294.6964	1316.6174	1326.4045	1361.2383	1396.0001	1413.1751	1487.3371	1494.8838	1511.6679	3015.8745	3025.0553	3055.2215	3090.7516	3093.097	3109.875	3119.9847	3197.4351	3217.1888
CC12C3C4C1OCC2N34	C[C@@]12[C@H]3[C@H]4[C@@H]1OC[C@@H]2N34	
InChI=1S/C7H9NO/c1-7-3-2-9-6(7)4-5(7)8(3)4/h3-6H,2H2,1H3	InChI=1S/C7H9NO/c1-7-3-2-9-6(7)4-5(7)8(3)4/h3-6H,2H2,1H3/t3-,4-,5+,6-,7+,8?/m0/s1
