17
gdb 40878	3.56161	1.58352	1.39018	1.3235	71.79	-0.24	-0.0007	0.2394	957.9953	0.136748	-421.75562	-421.748748	-421.747804	-421.786926	27.555	
C	-0.039964021	 1.3930244775	-0.3198110859	-0.083991
C	 1.4271752868	 1.5295281649	 0.1290338275	-0.361086
C	 1.2171366564	 0.1258106699	 0.7148092078	 0.490856
O	-0.1304888866	 0.0721069776	 0.2688611726	-0.316327
C	 2.2367462186	-1.0402519648	 0.4845142092	-0.068242
O	 2.9791801155	-0.4639286866	 1.6078292601	-0.289656
C	 1.6460109388	-0.2467930908	 2.1741225172	-0.068253
C	 1.1038897518	-1.6744059109	 2.2947466472	-0.071853
C	 1.5069413921	-2.2158520495	 1.1416830426	-0.071869
H	-0.7513673321	 2.0879833526	 0.1396890499	 0.108027
H	-0.2126071462	 1.3643222943	-1.4012792089	 0.108027
H	 2.1651974737	 1.5907884263	-0.6718560397	 0.119997
H	 1.6287457206	 2.3113481782	 0.8625054836	 0.119997
H	 2.8174254631	-1.17612943	-0.4270051468	 0.07901
H	 1.6130571297	 0.4415469279	 3.0176980809	 0.079006
H	 0.5203538045	-2.0858552579	 3.1042135193	 0.113179
H	 1.3504927843	-3.2010224986	 0.7293667434	 0.113179
100.6773	182.467	220.0061	346.6135	415.0791	547.7928	566.4662	615.2987	724.5585	774.2008	799.3552	841.725	854.4029	867.7582	889.4017	911.2096	918.8022	941.8567	968.0382	998.4221	1014.3896	1095.3768	1127.9223	1136.5923	1151.8538	1167.4583	1168.8254	1214.2208	1230.7389	1244.5791	1290.4861	1307.2752	1308.5185	1353.0294	1483.9015	1532.2086	1611.4068	3030.4333	3073.7194	3086.6318	3131.9223	3136.0348	3140.4131	3238.4218	3264.7574
C1CC2(O1)C1OC2C=C1	C1C[C@@]2(O1)[C@H]1O[C@@H]2C=C1	
InChI=1S/C7H8O2/c1-2-6-7(3-4-8-7)5(1)9-6/h1-2,5-6H,3-4H2	InChI=1S/C7H8O2/c1-2-6-7(3-4-8-7)5(1)9-6/h1-2,5-6H,3-4H2/t5-,6+,7+
