21
gdb 87005	6.20142	0.58554	0.56769	2.2959	81.98	-0.2189	-0.0267	0.1922	1955.5941	0.180935	-420.371592	-420.361664	-420.36072	-420.407742	35.114	
C	 0.2393456374	 1.5026933637	 0.0663381862	-0.314661
N	 0.0148716451	 0.0771019808	 0.1279053878	-0.061127
C	-1.2938394918	-0.4158904857	 0.5917541398	-0.200216
C	-0.5683693747	-1.5978775369	 1.2714024488	 0.056261
C	 0.7126987121	-0.7092618826	 1.1594618871	-0.190235
N	-1.0906546655	-2.0454811166	 2.5393962114	-0.309853
C	-0.3406586338	-3.1166520022	 3.1764689979	-0.226667
C	-1.1476344552	-3.7401672757	 4.303703918	 0.148929
O	-0.6720638978	-4.2091432314	 5.3039346282	-0.236006
H	 1.277995976	 1.7037471101	-0.2167665642	 0.121856
H	-0.4081929943	 1.9490616416	-0.6959975992	 0.121686
H	 0.04112013	 2.016469623	 1.0273782458	 0.085918
H	-1.7646255622	 0.2418237587	 1.3458003504	 0.076172
H	-2.0258553883	-0.6279339986	-0.1941558048	 0.10698
H	-0.5001111346	-2.460395876	 0.6018527537	 0.095381
H	 1.6579676749	-1.1620201555	 0.8410568389	 0.100785
H	 0.8814695488	-0.148231655	 2.0975657041	 0.071549
H	-1.1810387896	-1.2571970582	 3.1731713743	 0.218887
H	-0.1875869551	-3.9124206243	 2.4313820141	 0.133729
H	 0.6551957362	-2.8459986849	 3.561695253	 0.114653
H	-2.2449484874	-3.7333931743	 4.1142178488	 0.085979
43.5941	72.0722	87.8946	103.8694	197.0331	226.6003	284.6188	305.9384	340.402	391.5871	459.0826	540.7617	637.7908	728.7348	788.4302	824.8957	885.5852	969.4447	990.1051	1011.6032	1037.8556	1069.9769	1080.9811	1119.074	1121.7657	1161.1891	1182.8113	1207.0238	1219.9749	1233.8929	1263.6554	1277.4054	1297.1656	1320.5682	1339.5992	1386.9789	1406.3091	1451.2125	1471.7331	1485.2074	1497.8024	1498.466	1508.7048	1527.7975	1840.2523	2884.9522	2915.3489	2926.3571	2940.5686	2979.0157	3023.738	3053.2106	3055.9005	3061.4813	3075.5307	3098.0296	3509.5314
CN1CC(C1)NCC=O	CN1CC(C1)NCC=O	
InChI=1S/C6H12N2O/c1-8-4-6(5-8)7-2-3-9/h3,6-7H,2,4-5H2,1H3	InChI=1S/C6H12N2O/c1-8-4-6(5-8)7-2-3-9/h3,6-7H,2,4-5H2,1H3
