18
gdb 46730	2.8549	1.77031	1.41303	3.2003	75.31	-0.2478	0.0262	0.274	959.4911	0.150636	-401.933099	-401.926163	-401.925219	-401.964486	27.956	
N	-0.0454911925	 1.2266013504	 0.3513742415	-0.546512
C	-0.0055934734	 0.0143414598	 0.0003695577	 0.406064
O	 1.1349037563	-0.6336933172	-0.403426935	-0.249635
C	 0.8621743153	-1.9419043025	-0.9511533727	-0.113253
C	-0.5941876274	-2.2701055675	-0.5998871174	-0.052405
C	-0.9129735094	-2.9880678152	 0.7275013511	-0.066477
C	-0.2476251244	-2.3141542776	 1.8970063632	-0.297883
C	-1.4808075294	-1.6913089916	 1.3095286174	-0.040989
C	-1.1633287137	-0.9489388101	-0.0110752673	-0.110597
H	 0.8805111631	 1.6517248302	 0.2745610814	 0.218474
H	 1.0275364154	-1.8967451883	-2.0335386816	 0.112918
H	 1.5816100179	-2.6411157548	-0.515288682	 0.119922
H	-1.1498985934	-2.6724111731	-1.4469137913	 0.085474
H	-1.306062897	-3.9948720463	 0.797691949	 0.090179
H	-0.4058570169	-2.8104140376	 2.8491487913	 0.116261
H	 0.725063739	-1.8391329721	 1.8078437565	 0.130071
H	-2.3788347551	-1.5310224472	 1.8916541236	 0.095969
H	-2.0407011945	-0.5312062294	-0.5021299652	 0.102419
107.4793	155.0769	228.987	332.5428	437.9602	487.884	600.4213	669.2685	703.591	740.8602	773.4132	801.4211	835.7315	896.3324	914.3914	926.3009	937.065	967.6658	1004.1249	1014.267	1024.4408	1063.8856	1077.9007	1093.805	1094.8133	1114.7775	1172.4069	1183.0394	1228.259	1246.6938	1272.3334	1278.4654	1315.6453	1329.425	1362.7828	1405.5403	1495.8876	1517.0284	1772.7963	3035.4849	3087.7183	3109.4711	3123.1281	3129.8946	3181.9406	3195.62	3208.0837	3465.5598
N=C1OCC2C3CC3C12	[NH][C]1OC[C@H]2[C@H]3C[C@H]3[C@@H]12	
InChI=1S/C7H9NO/c8-7-6-4-1-3(4)5(6)2-9-7/h3-6,8H,1-2H2	InChI=1S/C7H9NO/c8-7-6-4-1-3(4)5(6)2-9-7/h3-6,8H,1-2H2/t3-,4+,5-,6+/m0/s1
