14
gdb 5485	3.46115	2.0303	1.28997	1.4972	65.88	-0.2409	-0.0505	0.1904	886.469	0.108269	-378.785008	-378.77794	-378.776995	-378.816398	25.483	
C	-0.0292242584	 1.4899301736	 0.0195031274	-0.502637
C	-0.0119432576	-0.0018931264	-0.0290378421	 0.364127
N	-0.0335776532	-0.7186839498	-1.1172189959	-0.300413
C	-0.0054251266	-2.0474319927	-0.7070433416	-0.093951
C	 0.0337843615	-2.1377946334	 0.6454427052	-0.105583
N	 0.0300187241	-0.819907544	 1.102703459	-0.093534
C	 0.0626322276	-0.425292896	 2.4384234363	 0.172209
O	 0.0980765105	-1.1938974155	 3.3620706654	-0.281385
H	 0.864742898	 1.8994127635	 0.5025780557	 0.14216
H	-0.0628901059	 1.8538308069	-1.0079631708	 0.164523
H	-0.9043435191	 1.877293343	 0.5527234735	 0.142154
H	-0.0156400177	-2.8503878257	-1.4277012795	 0.123171
H	 0.0636436608	-2.9577609949	 1.3410869275	 0.160152
H	 0.0519515661	 0.6715230614	 2.5507241001	 0.109008
135.5926	156.8923	210.1907	211.8039	307.5251	345.1246	545.9488	631.6082	657.1138	681.4445	777.0072	839.7634	880.9036	925.1924	997.1063	1034.3909	1063.5904	1086.4763	1142.9887	1175.5615	1294.1985	1363.0093	1406.2799	1422.1892	1447.1435	1483.1699	1483.6917	1546.851	1604.4737	1824.1183	3004.8276	3036.4814	3088.6724	3151.1347	3257.7956	3304.4433
CC1=NC=CN1C=O	Cc1nccn1C=O	
InChI=1S/C5H6N2O/c1-5-6-2-3-7(5)4-8/h2-4H,1H3	InChI=1S/C5H6N2O/c1-5-6-2-3-7(5)4-8/h2-4H,1H3
