18
gdb 112170	2.45341	1.24936	1.0349	3.553	68.	-0.2611	0.0036	0.2646	1212.9112	0.146264	-476.23582	-476.226178	-476.225234	-476.270388	34.813	
C	-0.214076101	 1.5624276255	 0.1116017739	-0.45994
C	-0.1279800999	 0.0465689492	-0.071655276	 0.036952
N	-1.3494217432	-0.6787106906	 0.2681455216	-0.553348
C	 0.5532432578	-0.5046340905	-1.3589347296	 0.123348
C	 1.1380540912	 0.4094525131	-2.4155389095	-0.083761
O	 1.9221382224	-0.3218533701	-3.337521805	-0.41593
O	 1.6440942211	-1.0733210752	-0.5337944048	-0.278117
C	 1.0757643619	-0.617931888	 0.6212617211	 0.473458
O	 1.4593325598	-0.7570726559	 1.738233381	-0.336481
H	 0.7226648811	 2.07574	-0.1231751898	 0.13122
H	-1.0009182761	 1.9802286167	-0.5263946417	 0.122282
H	-0.4647776524	 1.7859125222	 1.1528710662	 0.1368
H	-1.4614864185	-0.6861798766	 1.2786728238	 0.246132
H	-2.1603882834	-0.195804547	-0.1100468557	 0.231822
H	-0.0088744486	-1.3224908431	-1.8134850399	 0.113514
H	 0.3283131369	 0.8734396476	-2.9896345727	 0.118658
H	 1.7199590806	 1.2142012075	-1.9427512418	 0.09616
H	 2.6141556003	-0.7633423147	-2.8315037611	 0.297232
75.716	103.3508	158.4349	168.392	194.4947	233.3918	278.4833	310.6194	346.0839	400.2974	422.6558	491.9758	620.5949	672.7862	743.8414	765.2086	853.4765	877.9625	890.9488	982.4325	1009.2689	1052.7496	1082.584	1120.5521	1143.3604	1176.1828	1221.3657	1242.1803	1297.9685	1326.396	1355.9304	1403.0869	1410.7405	1432.3518	1486.3917	1491.7871	1498.8153	1650.0619	1934.8766	2998.0866	3034.0218	3072.6455	3104.6403	3108.5146	3117.2854	3479.5412	3559.1748	3800.7331
CC1(N)C(CO)OC1=O	C[C@@]1(N)[C@@H](CO)OC1=O	
InChI=1S/C5H9NO3/c1-5(6)3(2-7)9-4(5)8/h3,7H,2,6H2,1H3	InChI=1S/C5H9NO3/c1-5(6)3(2-7)9-4(5)8/h3,7H,2,6H2,1H3/t3-,5-/m1/s1
