15
gdb 102007	2.48735	1.37699	0.95389	5.9772	69.49	-0.2927	-0.0871	0.2056	1195.0501	0.110968	-453.994739	-453.985468	-453.984524	-454.029583	31.625	
C	-0.0730861907	 1.5526868717	-0.0022447416	-0.383182
C	 0.0550862381	 0.0298641484	-0.0026086912	-0.173217
N	 0.750042558	-0.4876986835	-1.1956402258	-0.15162
C	 2.1123032315	-0.8001389491	-1.1119322993	 0.168703
O	 2.8005942665	-1.1871564804	-2.0157665778	-0.265058
C	-0.0086149086	-0.6150739596	-2.3523280951	 0.376996
O	-1.181000391	-0.3145348941	-2.3922092377	-0.322859
C	 0.6365671953	-1.1428922872	-3.5571315609	 0.260767
N	 0.9600106503	-1.5398175063	-4.5930733319	-0.319608
H	 0.9094613148	 2.0334273838	-0.0299027748	 0.128523
H	-0.6544471453	 1.8897595996	-0.8628643526	 0.157004
H	-0.5869269376	 1.878020529	 0.9068717864	 0.13416
H	 0.6198334944	-0.3146455242	 0.8677813407	 0.12563
H	-0.9303787555	-0.4375991053	 0.0283854505	 0.154388
H	 2.4869910599	-0.644615453	-0.0841503188	 0.109371
49.2184	83.0729	141.0142	176.651	222.619	227.3831	255.2142	315.9802	369.6655	432.1896	461.9074	586.0338	639.9605	773.4054	779.6576	811.3134	947.1563	1032.3765	1056.6519	1110.7562	1120.9357	1259.7286	1291.4181	1388.9706	1396.5962	1416.1776	1447.3441	1487.1713	1494.0508	1506.577	1758.5821	1834.6181	2349.9373	2973.0904	3049.1365	3073.2467	3114.7205	3130.0557	3144.6282
CCN(C=O)C(=O)C#N	CCN(C=O)C(=O)C#N	
InChI=1S/C5H6N2O2/c1-2-7(4-8)5(9)3-6/h4H,2H2,1H3	InChI=1S/C5H6N2O2/c1-2-7(4-8)5(9)3-6/h4H,2H2,1H3
