18
gdb 107737	3.48743	1.35781	1.27437	3.8241	77.18	-0.214	-0.0507	0.1634	1068.623	0.145939	-401.818093	-401.810152	-401.809208	-401.850484	30.885	
C	 0.0410390354	 1.5267116902	 0.0009343378	-0.375065
C	-0.0976227254	 0.0041927599	-0.1157422014	-0.302694
C	 0.6794127285	-0.5646377697	-1.2598948634	 0.459359
O	 0.1814821298	-0.1523311429	-2.6340275207	-0.302415
C	 1.1390399661	-1.093877952	-3.0171164216	 0.263258
N	 2.2317061307	-0.7608469768	-3.5650390299	-0.234004
C	 3.1865666189	-0.9598917476	-2.4157779131	-0.173683
C	 2.2353342412	-1.0651889264	-1.1946644159	-0.134408
C	 1.095078766	-1.8977011056	-1.6790410872	-0.271065
H	 1.0836453074	 1.8131177541	 0.1688729587	 0.122655
H	-0.2976433561	 2.0149359297	-0.9166661726	 0.145381
H	-0.5571928964	 1.9067042263	 0.8337792281	 0.115508
H	 0.2496972235	-0.4864184989	 0.8011274742	 0.113671
H	-1.1505688418	-0.2722776085	-0.2477060068	 0.122499
H	 3.8411251623	-1.842026069	-2.4879886364	 0.110312
H	 3.8158861174	-0.0649055963	-2.4105591471	 0.132431
H	 2.6287321463	-1.1660709694	-0.1851253323	 0.093771
H	 0.7492531261	-2.901687997	-1.4697420205	 0.114488
86.9268	129.6266	199.4044	260.9751	304.0178	342.3333	434.9458	482.3899	572.2955	620.6805	644.4607	714.2258	758.9846	803.3675	825.1978	888.5673	904.5752	926.8415	948.4102	974.7991	1013.8808	1046.8564	1065.3509	1076.1379	1112.7194	1160.9104	1164.4938	1199.5229	1246.5181	1292.115	1300.1856	1338.4168	1412.9794	1434.4637	1467.0548	1483.3925	1495.8849	1507.843	1622.9352	2986.1251	3033.0813	3045.5278	3072.0171	3080.4702	3116.3647	3126.5868	3141.1211	3193.6177
CCC12OC3=NCC1C23	CC[C@@]12O[C]3[N]C[C@@H]1[C@@H]23	
InChI=1S/C7H9NO/c1-2-7-4-3-8-6(9-7)5(4)7/h4-5H,2-3H2,1H3	InChI=1S/C7H9NO/c1-2-7-4-3-8-6(9-7)5(4)7/h4-5H,2-3H2,1H3/t4-,5-,7-/m1/s1
