21
gdb 80622	2.3992	1.80834	1.37933	1.5858	81.73	-0.2516	0.0765	0.3281	1029.9471	0.18468	-387.064153	-387.056482	-387.055538	-387.095774	31.985	
O	 0.1417840571	 1.3647029107	-0.1217183659	-0.439314
C	 0.0390746683	-0.0397302434	 0.012032691	 0.075333
C	 0.5302867883	-0.6152902416	 1.3593750766	-0.054188
C	-0.6801636318	-0.3439198287	 2.3050925213	-0.243663
C	-1.3826748358	-1.3678233825	 1.3668812124	-0.085297
C	 0.0021980965	-2.078416235	 1.2827796281	-0.23404
C	-1.405204545	-0.6086801757	 0.0445162616	 0.373313
C	-2.5830304845	 0.1827681747	-0.4467857887	-0.343686
C	-2.1440693717	-1.0695713875	-1.1756876511	-0.34553
H	-0.4002479941	 1.768099135	 0.564779157	 0.277712
H	 0.6194318039	-0.4397638891	-0.8253446312	 0.085644
H	 1.5556570128	-0.3765780664	 1.6415247091	 0.065021
H	-0.5138664847	-0.7319613167	 3.3125121918	 0.099262
H	-1.0942680294	 0.6684919221	 2.3665108878	 0.077223
H	-2.2936200934	-1.8935037165	 1.6568576476	 0.05653
H	 0.2232219221	-2.6615357444	 0.383785786	 0.093839
H	 0.240918748	-2.6566898958	 2.1783616682	 0.096611
H	-3.5056900618	 0.144894362	 0.1240320722	 0.107106
H	-2.3808368374	 1.1379726602	-0.9200836317	 0.118627
H	-1.663924708	-0.9511619926	-2.1421945528	 0.112666
H	-2.7717729595	-1.9520815487	-1.0956900994	 0.106832
129.3487	242.2982	253.5671	258.1169	277.4914	384.9434	461.6632	487.2209	552.6874	579.8088	740.2574	788.063	813.4698	844.1198	848.9536	878.2483	895.3412	928.8074	954.1966	964.2955	983.3916	1021.6356	1028.7952	1051.3671	1065.2718	1070.5867	1078.9096	1084.3398	1107.8806	1130.4306	1191.7008	1221.8413	1232.5834	1243.7825	1248.8416	1257.1945	1279.951	1295.7675	1319.2806	1392.7205	1437.1308	1463.676	1489.6279	1504.1653	1521.713	3039.814	3052.556	3060.8416	3101.9607	3108.1263	3114.2301	3117.7879	3119.7639	3124.5195	3197.1497	3214.2928	3808.4099
OC1C2CC(C2)C11CC1	O[C@H]1[C@H]2C[C@H](C2)C21CC2	
InChI=1S/C8H12O/c9-7-5-3-6(4-5)8(7)1-2-8/h5-7,9H,1-4H2	InChI=1S/C8H12O/c9-7-5-3-6(4-5)8(7)1-2-8/h5-7,9H,1-4H2/t5-,6+,7-/m0/s1
