17
gdb 49764	2.60712	1.40424	1.19781	2.7655	83.33	-0.214	-0.058	0.156	1092.3042	0.137003	-384.711834	-384.703931	-384.702986	-384.744815	29.699	
O	 0.3290684258	-0.2831862193	-0.0025095512	-0.246451
C	 0.149258669	 0.9065405527	 0.005163065	 0.159978
C	 1.2850039793	 1.9338713041	-0.0000345505	-0.162123
C	 1.2339805693	 2.804454498	-1.2388650154	-0.121145
C	 0.2901128001	 3.7235121886	-1.5143556113	-0.05435
C	-0.7630205527	 4.2039582961	-0.6460812904	-0.100462
C	-0.750367609	 4.1967372571	 0.7083319195	-0.100461
C	 0.3187556403	 3.7071681268	 1.5516101778	-0.05435
C	 1.2572196062	 2.7911918041	 1.2487583031	-0.121142
H	-0.870550248	 1.3408433045	 0.0167647799	 0.094826
H	 2.2051222917	 1.3450420537	-0.0117564952	 0.097737
H	 2.0153624757	 2.6290212436	-1.9729192114	 0.108151
H	 0.332658689	 4.1936370605	-2.4950774524	 0.098968
H	-1.5945039436	 4.7017987235	-1.138577573	 0.096849
H	-1.5724563522	 4.689215518	 1.2215545342	 0.09685
H	 0.3796607933	 4.1668169077	 2.536321475	 0.098969
H	 2.0521541158	 2.6080074304	 1.9661782162	 0.108155
54.0482	103.05	207.3926	252.8875	326.9915	360.1933	434.2923	452.5074	508.4537	624.712	706.9232	783.6169	789.6345	832.1558	886.8618	922.8721	934.917	936.8854	988.8879	995.3705	1009.6439	1026.8785	1060.7583	1097.4285	1242.6659	1249.0591	1251.976	1290.0447	1342.6631	1388.3527	1418.3751	1430.2302	1472.3419	1608.3284	1673.8648	1682.8706	1825.0849	2935.5642	3083.5083	3137.0865	3140.0501	3152.7257	3168.5364	3170.8367	3175.9146
O=CC1C=CC=CC=C1	O=C[C@H]1C=CC=CC=C1	
InChI=1S/C8H8O/c9-7-8-5-3-1-2-4-6-8/h1-8H	InChI=1S/C8H8O/c9-7-8-5-3-1-2-4-6-8/h1-8H
