13
gdb 12188	3.10943	1.69275	1.40082	3.9148	59.72	-0.283	-0.0616	0.2214	902.2357	0.093616	-398.602493	-398.594817	-398.593873	-398.635117	26.617	
C	 0.416630069	 1.4961940611	-0.0801916004	-0.404518
C	 0.0263139273	 0.0389208468	 0.0824978848	 0.029801
O	 0.76455308	-0.8665090718	-0.7894453904	-0.288501
C	 1.3173854184	-1.6471061634	 0.2822731045	-0.128816
C	 2.7750783641	-1.6437528817	 0.3268846692	 0.292565
N	 3.9292642948	-1.6242099982	 0.3831601777	-0.307185
C	 0.5833815669	-0.7095239871	 1.2986635401	 0.33299
O	 0.5102815646	-0.6292848028	 2.4790142169	-0.242915
H	 1.4914925457	 1.6338362823	 0.0628055783	 0.14528
H	 0.1503720816	 1.8417741925	-1.0827670147	 0.14707
H	-0.1201353751	 2.1057519176	 0.6528441517	 0.144737
H	-1.0563241218	-0.1004918807	-0.0395767557	 0.123535
H	 0.9419705845	-2.6785572045	 0.2927148578	 0.155957
55.7958	128.8837	195.0695	203.0665	239.4436	364.4746	407.4782	514.5297	547.849	596.314	708.3792	847.036	860.2498	929.4812	1008.3609	1037.57	1067.2891	1088.2716	1124.973	1187.4887	1276.9934	1305.6793	1359.1411	1402.4419	1480.5397	1492.9505	1943.2936	2355.6388	3023.9593	3034.7506	3047.5434	3126.3709	3131.3933
CC1OC(C#N)C1=O	C[C@H]1O[C@@H](C#N)C1=O	
InChI=1S/C5H5NO2/c1-3-5(7)4(2-6)8-3/h3-4H,1H3	InChI=1S/C5H5NO2/c1-3-5(7)4(2-6)8-3/h3-4H,1H3/t3-,4+/m1/s1
