21
gdb 97919	5.08094	0.50606	0.49085	3.0142	85.13	-0.2458	0.0345	0.2803	2285.6005	0.179297	-424.193308	-424.181831	-424.180887	-424.232328	39.549	
C	-0.2114940303	 1.4868852317	 0.0474294183	-0.386143
C	 0.0369761322	-0.0227172549	 0.0212845017	-0.182715
C	 0.7165073144	-0.4943103099	-1.2710151745	 0.148208
O	 1.9510862783	 0.1709134673	-1.4941233939	-0.420027
C	 0.8909778272	-2.030451048	-1.2845209841	-0.394431
C	 1.470837915	-2.5426397107	-2.5192127668	 0.011586
C	 1.9434525344	-2.9437035268	-3.5522486461	 0.120102
C	 2.4987197902	-3.4786888258	-4.7941195113	-0.193043
O	 1.5940009773	-4.3094085303	-5.5116101373	-0.403788
H	 0.7232427908	 2.0324025924	-0.1046269177	 0.129623
H	-0.9017240571	 1.7844368409	-0.7494949703	 0.117065
H	-0.6460739799	 1.8003982559	 1.0011397892	 0.110271
H	 0.6674102284	-0.3142907382	 0.8746382708	 0.085034
H	-0.9097848073	-0.5640464303	 0.1430753063	 0.096834
H	 0.0955999377	-0.2117995795	-2.1295437402	 0.09993
H	 2.5551720582	-0.0785871655	-0.7852648084	 0.277157
H	 1.5152438554	-2.3205245052	-0.4259124387	 0.114867
H	-0.0872636409	-2.499237683	-1.1151347055	 0.129757
H	 2.75358983	-2.6597938004	-5.4761223863	 0.140851
H	 3.4386882486	-4.0106884027	-4.5746182678	 0.113671
H	 1.2529514174	-4.9618268568	-4.8911551776	 0.285191
13.0775	49.9552	70.1033	115.748	137.9802	207.259	221.2024	249.3221	281.5962	314.5691	325.4173	360.7577	413.3462	458.6524	543.9321	570.916	780.791	784.1879	853.7945	909.6659	988.063	992.0276	1010.3438	1043.8226	1072.4653	1108.8251	1139.7147	1160.6028	1195.7411	1214.2361	1267.2742	1288.3524	1352.2719	1356.2062	1362.6828	1383.7298	1407.8407	1417.7096	1425.3096	1461.4004	1483.3155	1493.2287	1496.243	1509.6236	2363.8714	2971.3006	2994.5526	3000.8343	3037.3369	3040.0001	3042.663	3060.6695	3061.216	3104.2894	3124.6867	3790.6197	3816.8744
CCC(O)CC#CCO	CC[C@@H](O)CC#CCO	
InChI=1S/C7H12O2/c1-2-7(9)5-3-4-6-8/h7-9H,2,5-6H2,1H3	InChI=1S/C7H12O2/c1-2-7(9)5-3-4-6-8/h7-9H,2,5-6H2,1H3/t7-/m1/s1
