18
gdb 96229	2.33478	1.73331	1.23567	1.7871	74.94	-0.237	-0.0587	0.1783	1040.416	0.149519	-439.089581	-439.08136	-439.080416	-439.122466	31.412	
O	 0.0729526893	 1.3384871883	 0.2668314757	-0.42887
C	-0.0424792163	-0.0640662565	-0.0007833913	 0.020209
C	-1.5290664282	-0.4418407088	-0.0200769586	-0.237604
C	-2.3958909405	 0.45783234	-0.9317556481	-0.168579
N	-1.6401708709	 0.9723372865	-2.0884444973	-0.301955
C	-1.0413150368	-0.0362781524	-2.8802990511	-0.037606
C	 0.1408888433	-0.5934322453	-2.577823983	-0.159306
C	 0.7973666094	-0.4022720053	-1.2680877887	 0.328928
O	 1.9964392495	-0.553273031	-1.1155585069	-0.341574
H	 1.0159632371	 1.534544984	 0.3232138098	 0.297278
H	 0.4530196838	-0.6329488307	 0.7979728385	 0.096164
H	-1.5958986398	-1.4898690112	-0.3309865285	 0.112302
H	-1.9118220462	-0.3942189699	 1.0051290059	 0.1138
H	-3.2768149705	-0.0893727495	-1.2831967173	 0.112407
H	-2.7526260158	 1.3286714211	-0.3765849582	 0.124341
H	-0.9100009333	 1.5594938359	-1.6945753721	 0.245106
H	-1.586358547	-0.319551333	-3.7800191932	 0.11494
H	 0.6639115827	-1.2345454523	-3.2813425256	 0.110019
55.8216	184.4775	221.1215	243.0375	259.7904	319.8819	373.6465	441.6617	460.3503	495.6029	654.9338	685.3988	724.4798	773.2124	840.7996	851.021	904.2584	919.8857	965.0961	971.4156	1008.4342	1073.4723	1117.089	1137.8093	1191.3367	1210.5333	1252.1986	1270.846	1309.0111	1350.2965	1370.9907	1373.7338	1410.7836	1416.8182	1470.7969	1489.436	1508.6396	1663.292	1749.5046	3009.9246	3044.7931	3055.9371	3081.1106	3108.9848	3133.5116	3180.6116	3502.2394	3793.1885
OC1CCNC=CC1=O	O[C@H]1CCNC=CC1=O	
InChI=1S/C6H9NO2/c8-5-1-3-7-4-2-6(5)9/h1,3,6-7,9H,2,4H2	InChI=1S/C6H9NO2/c8-5-1-3-7-4-2-6(5)9/h1,3,6-7,9H,2,4H2/t6-/m0/s1
