15
gdb 25800	3.9891	1.12895	0.88524	4.8777	73.83	-0.2234	-0.0439	0.1794	1240.7841	0.112576	-454.0086	-454.000166	-453.999222	-454.042018	30.486	
C	-0.1578878381	 1.5059966253	 0.0162681572	-0.488263
C	 0.0265739513	-0.0003672439	-0.0067081427	 0.286413
O	 1.1250282766	-0.5260335893	-0.0439957898	-0.322096
C	-1.1770707924	-0.8214556191	 0.0183102374	 0.214007
C	-1.3966131727	-2.1660657672	 0.0085427782	-0.154712
N	-2.7453006659	-2.4399692253	 0.037624823	-0.331572
C	-3.2960979463	-1.2532516082	 0.0696529141	 0.469287
N	-4.6215610948	-0.96436943	 0.1673850087	-0.587569
O	-2.4391960451	-0.2201105244	 0.0597982477	-0.212882
H	 0.8227014039	 1.9820313234	-0.0061424475	 0.141096
H	-0.7514153365	 1.8361889122	-0.8429624771	 0.138343
H	-0.7015717522	 1.8150699008	 0.9153381031	 0.14139
H	-0.6533751054	-2.9468681747	-0.0217794234	 0.152085
H	-5.234531438	-1.7283792919	-0.0699119963	 0.281031
H	-4.9114455144	-0.0567247678	-0.1608284926	 0.273443
82.595	114.0847	144.6389	152.0021	320.2045	343.4675	370.7338	388.0152	501.9688	521.7623	553.5784	627.948	659.2804	749.3054	770.9191	917.4634	935.7955	982.2786	1008.4864	1041.4363	1071.8364	1106.5734	1204.5293	1251.9657	1333.4478	1383.3788	1438.165	1462.7214	1473.8363	1574.541	1616.1597	1671.6436	1759.3334	3041.6439	3103.2629	3156.7463	3273.4682	3595.5422	3710.4801
CC(=O)C1=CN=C(N)O1	CC(=O)c1cnc(N)o1	
InChI=1S/C5H6N2O2/c1-3(8)4-2-7-5(6)9-4/h2H,1H3,(H2,6,7)	InChI=1S/C5H6N2O2/c1-3(8)4-2-7-5(6)9-4/h2H,1H3,(H2,6,7)
