19
gdb 119603	4.39437	0.92214	0.84035	1.969	76.26	-0.2452	0.0016	0.2467	1394.1463	0.158912	-423.010285	-423.001696	-423.000751	-423.04395	32.44	
O	 0.0976728533	 1.453636648	-0.1840804034	-0.417877
C	 0.0224501125	 0.037436989	-0.1894983383	-0.060647
C	-1.344573722	-0.4785355776	 0.2802389783	-0.32348
C	-1.4175902082	-1.9819294846	 0.3074697241	 0.395963
O	-1.4593326856	-2.6306326946	-0.99687206	-0.306052
C	-2.5704619852	-2.8029013965	-0.1141272757	-0.032597
C	-2.5513288001	-4.1092574049	 0.6696990051	-0.296292
C	-1.2892796502	-3.9849181036	 1.5003351439	-0.074265
C	-0.6806234936	-2.8110307015	 1.3189626825	-0.131309
H	-0.508230479	 1.7819750518	-0.8559912926	 0.28186
H	 0.2485015132	-0.379793867	-1.1813710994	 0.109839
H	 0.8103103148	-0.3010040586	 0.4919485283	 0.112713
H	-1.553247366	-0.0760449374	 1.2785119018	 0.111719
H	-2.120506098	-0.0985114732	-0.3955806226	 0.09535
H	-3.508982998	-2.3731381047	-0.4562674998	 0.091013
H	-3.4466191892	-4.2117529577	 1.2964588902	 0.11292
H	-2.525945054	-4.980538043	 0.0040660444	 0.126872
H	-0.9297586348	-4.787914805	 2.1338812413	 0.102411
H	 0.2313382002	-2.4865884688	 1.805043062	 0.101858
72.887	93.8342	121.581	272.6689	282.1688	303.921	345.2165	370.527	467.7677	514.7473	704.57	711.7567	741.9523	779.1699	796.7618	869.5831	910.9	933.9869	952.0995	965.2208	993.5941	1029.0735	1058.0944	1068.3418	1080.7933	1132.5611	1144.8598	1185.7736	1249.3657	1269.156	1305.2758	1314.3856	1329.4934	1372.1312	1399.7168	1421.504	1441.9984	1458.7999	1473.6106	1512.381	1665.0922	3004.7548	3027.6102	3028.0518	3063.4423	3063.9154	3085.6577	3140.3545	3190.3236	3216.6499	3816.4408
OCCC12OC1CC=C2	OCC[C@]12O[C@H]1CC=C2	
InChI=1S/C7H10O2/c8-5-4-7-3-1-2-6(7)9-7/h1,3,6,8H,2,4-5H2	InChI=1S/C7H10O2/c8-5-4-7-3-1-2-6(7)9-7/h1,3,6,8H,2,4-5H2/t6-,7-/m0/s1
