22
gdb 10220	3.1938	1.05181	0.84093	1.1768	75.	-0.2443	0.0774	0.3217	1415.1435	0.197508	-387.32957	-387.31884	-387.317896	-387.365983	37.074	
C	 0.5775976373	 1.1212680661	 0.3207875347	-0.392339
C	 0.1215396282	-0.3310209998	 0.1675971197	-0.166263
C	-1.4016092086	-0.4954895656	 0.1091212179	 0.115516
C	-1.8088439864	-1.9610531584	-0.0778426801	-0.197857
C	-3.315176308	-2.1704982766	-0.2354453238	-0.0705
O	-3.6588570944	-3.5323753282	-0.4474402232	-0.420236
O	-1.9735507994	-0.0046855069	 1.3265419476	-0.253669
C	-2.8698452232	 1.0737322357	 1.1812229061	-0.237515
H	 1.6684661935	 1.1872695062	 0.3750281181	 0.111785
H	 0.2507858766	 1.7348770261	-0.5266503704	 0.108519
H	 0.168542139	 1.5596985007	 1.2351898937	 0.129085
H	 0.55281458	-0.7674268845	-0.741774656	 0.093253
H	 0.4954285966	-0.9265167735	 1.009887393	 0.102343
H	-1.7901156567	 0.0957914756	-0.7355498038	 0.065241
H	-1.3015953959	-2.374249014	-0.9575066485	 0.101057
H	-1.4545518301	-2.5277479709	 0.7945309998	 0.092265
H	-3.840936662	-1.7564284863	 0.6368225209	 0.09916
H	-3.6787469577	-1.6367801308	-1.1213646776	 0.104155
H	-3.4160673824	-4.020397742	 0.3458279136	 0.279843
H	-2.3903616113	 1.9558505856	 0.7321024616	 0.106548
H	-3.7451165476	 0.808361509	 0.5689648469	 0.105008
H	-3.2170010174	 1.3397912126	 2.1836648199	 0.124602
52.5742	78.3206	99.9144	117.7757	135.5425	175.3231	238.2067	260.8782	294.8937	332.0878	336.3158	375.5568	484.19	569.5643	761.6625	773.8288	873.6048	924.4074	993.1832	1006.0478	1043.758	1078.3625	1109.1401	1117.4475	1129.141	1145.3021	1181.4855	1189.1529	1234.6483	1272.4458	1296.619	1322.7374	1343.4503	1382.5861	1394.2296	1402.8017	1405.8959	1420.7764	1468.8562	1479.6788	1483.0071	1488.6559	1497.4518	1506.2943	1514.0717	1518.5848	2969.819	2983.0392	3001.3954	3014.3784	3026.4623	3026.9283	3033.3131	3053.7822	3062.5526	3078.6517	3098.7453	3104.012	3117.2348	3815.3618
CCC(CCO)OC	CC[C@@H](CCO)OC	
InChI=1S/C6H14O2/c1-3-6(8-2)4-5-7/h6-7H,3-5H2,1-2H3	InChI=1S/C6H14O2/c1-3-6(8-2)4-5-7/h6-7H,3-5H2,1-2H3/t6-/m0/s1
