18
gdb 45236	3.26815	1.70192	1.5066	3.6552	74.64	-0.2359	-0.0299	0.2059	922.7712	0.15146	-401.93553	-401.92926	-401.928316	-401.966022	26.553	
O	-0.0131695163	-0.0285472041	-0.1837046443	-0.318344
C	-0.0425380507	 1.1627887717	-0.0189189632	 0.409609
C	-1.2824971649	 2.0658923537	 0.0857562187	-0.335854
C	-0.6531800059	 3.3764294473	 0.5812545581	-0.047769
C	 0.081509621	 3.0432779766	 1.9212910199	-0.18181
N	 1.4625495708	 2.7358407072	 1.4413252962	-0.134817
C	 1.7217484302	 4.0139210746	 0.6597615063	-0.186473
C	 0.6297139942	 3.5294067331	-0.299283095	-0.050529
C	 1.1494920021	 2.1089454434	 0.0555300972	-0.087698
H	-1.7245113515	 2.1712928324	-0.9139105738	 0.126432
H	-2.0426550861	 1.6370435748	 0.7436791864	 0.127856
H	-1.3219424178	 4.2369719379	 0.6050129936	 0.073694
H	 0.123979722	 3.8775041305	 2.6249306875	 0.108819
H	-0.3462013428	 2.1791810937	 2.4375506482	 0.113031
H	 1.5802173179	 4.9374886368	 1.2292769216	 0.101245
H	 2.7247855716	 3.9899469542	 0.2276246532	 0.114004
H	 0.5008661945	 3.8842257417	-1.3235953328	 0.072755
H	 2.0639938216	 1.7410725845	-0.4060649877	 0.095849
125.269	299.6861	367.1521	428.3913	519.5525	558.6033	570.9429	604.4425	730.5231	794.5686	827.9671	845.607	852.1941	874.8807	890.8927	927.8136	951.6206	970.1879	984.5119	1024.5078	1057.0278	1078.7955	1113.1673	1130.2569	1157.9743	1183.7465	1207.6202	1238.1005	1244.5715	1261.076	1269.0968	1280.2167	1298.4963	1316.7045	1338.4828	1452.1532	1505.8141	1527.4446	1849.213	3032.5776	3051.7961	3060.708	3095.9425	3102.4145	3107.9961	3114.593	3117.0564	3140.9984
O=C1CC2CN3CC2C13	O=C1C[C@H]2CN3C[C@H]2[C@H]13	
InChI=1S/C7H9NO/c9-6-1-4-2-8-3-5(4)7(6)8/h4-5,7H,1-3H2	InChI=1S/C7H9NO/c9-6-1-4-2-8-3-5(4)7(6)8/h4-5,7H,1-3H2/t4-,5+,7+/m0/s1
