20
gdb 110474	4.06601	1.28658	1.27027	1.8442	80.47	-0.2195	0.0731	0.2927	1092.7495	0.17259	-365.924327	-365.917001	-365.916057	-365.956324	29.465	
C	 0.0418083168	 1.5530664351	 0.1338045453	-0.376928
C	-0.1368085849	 0.0382906252	-0.0217318491	-0.213188
C	 0.6380455694	-0.5355879753	-1.1966909976	 0.032199
C	 2.1793269086	-0.6398788436	-1.1743335426	-0.029078
C	 2.6010531804	-1.6068365915	-0.0571770763	-0.093666
C	 1.5116677642	-2.6862557298	-0.2444662318	-0.09343
C	 2.7751305441	-2.7163548598	-1.0486966531	-0.03078
N	 2.1103707466	-1.8602050704	-2.1195264754	-0.190556
C	 0.7469580241	-2.0575890197	-1.4199350007	-0.045765
H	 1.0936763215	 1.8151638314	 0.2917570386	 0.116992
H	-0.2998438772	 2.0866314452	-0.7599448941	 0.116164
H	-0.5267255508	 1.9350187067	 0.9873241567	 0.112271
H	 0.1799244534	-0.4669614634	 0.8994898644	 0.099841
H	-1.2025929623	-0.1939078487	-0.1468681999	 0.09593
H	 0.3382212223	-0.0663579122	-2.1421551304	 0.083087
H	 2.8364255348	 0.1858028276	-1.4477804917	 0.072482
H	 3.0981479026	-1.4315732083	 0.8875325313	 0.088984
H	 1.179633153	-3.3314892809	 0.5578477917	 0.089053
H	 3.5424876487	-3.4616623636	-1.2137564772	 0.095241
H	-0.0202240653	-2.6367918041	-1.934665988	 0.071146
72.5305	155.2043	181.3669	258.8957	353.575	522.1015	596.0428	719.2165	754.5391	786.4521	790.3934	806.3073	811.7108	829.5009	867.7885	912.6416	919.3809	928.2558	966.8805	971.1076	999.4245	1017.4426	1029.1252	1055.5445	1063.6922	1086.554	1094.6669	1155.0867	1163.0801	1188.6733	1191.0306	1224.6436	1230.2355	1282.5254	1298.6219	1310.0301	1342.7093	1365.1957	1397.1914	1410.7856	1486.4447	1499.0688	1506.331	3018.1447	3030.4807	3035.3788	3053.8552	3097.5699	3102.898	3108.684	3113.2192	3187.8147	3197.1909	3210.9171
CCC1C2C3C4C3N2C14	CC[C@H]1[C@H]2[C@H]3[C@@H]4[C@H]3N2[C@H]14	
InChI=1S/C8H11N/c1-2-3-6-4-5-7(3)9(6)8(4)5/h3-8H,2H2,1H3	InChI=1S/C8H11N/c1-2-3-6-4-5-7(3)9(6)8(4)5/h3-8H,2H2,1H3/t3-,4+,5-,6-,7+,8-
