15
gdb 127756	3.58769	1.66014	1.14318	3.7721	74.65	-0.2143	-0.0068	0.2075	1005.1359	0.11596	-412.996276	-412.98914	-412.988195	-413.027839	27.082	
C	-0.014001629	 1.43766302	-0.0692001769	-0.342775
N	-0.0074798545	-0.0008214013	 0.0557630783	-0.118745
N	-0.0403703077	-0.7785126251	-1.0710916882	-0.163877
N	-0.0267361566	-2.0427909954	-0.7283552611	-0.311091
C	 0.0159907123	-2.0716233737	 0.6201311599	 0.360778
C	 0.029611409	-0.7925398626	 1.1592809223	 0.360894
C	 0.0743765964	-0.8983090685	 2.5786268478	-0.326324
C	 0.0857643373	-2.2569251365	 2.8288828766	-0.03978
N	 0.0505843663	-2.9788078277	 1.6489575645	-0.378421
H	 0.8938286157	 1.8702719109	 0.3632923225	 0.141695
H	-0.0552898098	 1.6707645077	-1.1335310564	 0.16662
H	-0.8871025372	 1.8675367617	 0.4319349268	 0.141676
H	 0.095805829	-0.1206757361	 3.3240370945	 0.107139
H	 0.1168379517	-2.772660084	 3.7762581226	 0.12861
H	 0.0506457371	-3.9798458494	 1.5716438369	 0.273601
113.9757	160.7861	251.5636	262.61	353.6249	394.4856	534.7103	606.0222	628.0804	650.9582	709.6122	715.3355	774.2578	813.3285	839.2063	933.2305	992.347	1067.286	1107.8152	1153.1157	1170.6101	1218.8797	1283.4805	1290.32	1332.1661	1407.6317	1445.0817	1482.8727	1495.656	1506.968	1521.8817	1548.4281	1618.1243	3038.4133	3098.1703	3156.8052	3253.3527	3272.7782	3696.4003
CN1N=NC2=C1C=CN2	Cn1nnc2c1cc[nH]2	
InChI=1S/C5H6N4/c1-9-4-2-3-6-5(4)7-8-9/h2-3,6H,1H3	InChI=1S/C5H6N4/c1-9-4-2-3-6-5(4)7-8-9/h2-3,6H,1H3
