17
gdb 37947	3.24391	1.75531	1.34282	2.0621	72.75	-0.2413	-0.0052	0.2362	945.5839	0.137829	-421.743854	-421.73727	-421.736326	-421.774655	26.939	
C	 0.0389253654	 1.4794675782	 0.2391604979	-0.137575
O	 1.3328728192	 2.0163382047	 0.0092423917	-0.260091
C	 1.8401435537	 2.0025796659	-1.2881657873	 0.136975
C	 1.073040372	 1.5208040341	-2.5592088976	-0.043898
O	 2.3908341654	 1.443205839	-3.2187423344	-0.301019
C	 2.5885714816	 0.7820670822	-1.9131356117	-0.005309
C	 1.2432421394	 0.023018382	-2.140974015	-0.024125
C	 0.4713677198	-0.6269749661	-1.0380540193	-0.071881
C	-0.0744435747	-0.0052718565	 0.0051246522	-0.092673
H	-0.1820643369	 1.7138576177	 1.284171474	 0.118887
H	-0.7037568115	 2.0178827089	-0.3732125945	 0.108057
H	 2.3819335754	 2.9361137399	-1.4560122829	 0.100015
H	 0.2649678099	 1.9901432426	-3.1219334984	 0.096622
H	 3.5765269086	 0.3776071494	-1.6919064814	 0.095592
H	 1.3111494149	-0.6190785303	-3.0222130631	 0.086905
H	 0.3542283522	-1.7042445129	-1.1255800826	 0.095083
H	-0.6381362447	-0.5752290687	 0.7389828525	 0.098434
166.1963	174.3509	341.4928	373.6927	400.3211	502.2075	557.1709	632.061	686.3716	740.2248	765.2595	868.0141	885.9042	894.9649	902.1197	919.4941	966.2927	995.6597	1006.5657	1035.6542	1055.2378	1069.4646	1136.3242	1147.8948	1181.0179	1202.3333	1219.1973	1245.5527	1251.609	1284.4777	1294.8798	1358.8445	1400.1737	1413.3423	1425.8764	1488.6718	1726.7593	2965.1472	3085.2301	3087.0106	3093.2363	3109.5178	3122.1444	3149.4081	3172.6357
C1OC2C3OC2C3C=C1	C1O[C@@H]2[C@H]3O[C@@H]2[C@H]3C=C1	
InChI=1S/C7H8O2/c1-2-4-5-7(8-3-1)6(4)9-5/h1-2,4-7H,3H2	InChI=1S/C7H8O2/c1-2-4-5-7(8-3-1)6(4)9-5/h1-2,4-7H,3H2/t4-,5-,6+,7+
