19
gdb 122570	2.93592	1.28746	1.12355	2.9678	71.56	-0.2462	0.0751	0.3213	1148.7286	0.15883	-460.100529	-460.092112	-460.091168	-460.13422	31.7	
O	-0.9510760798	 1.4042918082	-0.901053554	-0.426199
C	-0.4280523103	 0.3065414453	-0.1821101352	-0.052763
C	-1.5125245843	-0.7004628834	 0.1963303961	-0.087539
O	-2.1062319253	-1.1759095886	-1.0059698927	-0.274708
C	-3.4617687984	-0.9075708655	-1.2361096326	 0.104509
C	-4.0790446707	 0.5195503087	-0.9265400193	-0.31256
C	-4.3474543344	 0.6511562555	-2.4269651003	 0.028724
O	-3.0709393309	 0.5510424865	-3.0771529481	-0.23738
C	-3.7504198937	-0.6617051659	-2.7216880215	 0.011009
H	-1.3797982068	 1.0529032696	-1.6960651966	 0.296256
H	 0.3517740403	-0.2161829127	-0.7578959208	 0.094639
H	 0.0396336757	 0.7065999739	 0.724888465	 0.100478
H	-1.0757427643	-1.5508534663	 0.7377695544	 0.097966
H	-2.2593306044	-0.2302149743	 0.8467169081	 0.106322
H	-4.1021307042	-1.698353137	-0.8191625381	 0.079307
H	-4.9802837734	 0.4507883887	-0.3136111211	 0.108267
H	-3.3982069498	 1.2704188217	-0.5252385414	 0.141564
H	-5.1237865121	 1.1989678787	-2.9469971381	 0.112408
H	-3.9303089033	-1.3765661931	-3.5153382839	 0.109699
47.2363	115.5865	156.3648	197.4253	232.7346	322.8329	391.7806	491.997	507.207	596.4254	636.0373	723.0782	804.1617	846.2553	860.4201	881.4468	887.7955	924.5874	945.1586	1004.9623	1025.6736	1029.4709	1069.4867	1089.3567	1133.269	1147.5861	1202.5539	1229.7954	1236.4205	1244.3628	1246.7795	1285.5235	1295.063	1360.867	1386.5136	1397.6641	1405.1676	1429.1993	1472.9663	1493.7611	1499.3043	2984.3765	2996.0718	3011.3444	3061.4968	3071.342	3080.5477	3148.3574	3190.3053	3205.2124	3714.9384
OCCOC1CC2OC12	OCCO[C@H]1C[C@H]2O[C@@H]12	
InChI=1S/C6H10O3/c7-1-2-8-4-3-5-6(4)9-5/h4-7H,1-3H2	InChI=1S/C6H10O3/c7-1-2-8-4-3-5-6(4)9-5/h4-7H,1-3H2/t4-,5+,6-/m0/s1
