20
gdb 117634	2.73345	1.06483	0.9888	2.9683	71.21	-0.2341	0.0378	0.2719	1296.5823	0.169072	-477.460549	-477.45014	-477.449196	-477.496118	38.653	
C	 0.1822651958	 1.6046797541	 0.1754372704	-0.418049
C	-0.0775490838	 0.1041897673	-0.0342025001	 0.270187
O	 0.4156282235	-0.6446588734	 1.0768717943	-0.499465
C	-1.5694817803	-0.2164557495	-0.2908383627	-0.233566
C	-2.5097271038	 0.1331085776	 0.8618425345	-0.107001
O	-2.174843688	-0.5472743518	 2.0826007856	-0.415631
C	 0.6943254529	-0.3338146386	-1.2986836811	 0.37908
N	 1.5831215944	-1.3346635527	-1.098017374	-0.524458
O	 0.4833127152	 0.1933677408	-2.3773559102	-0.396934
H	 1.2464326313	 1.7638940434	 0.3696497799	 0.125701
H	-0.097808589	 2.1685545387	-0.7169684368	 0.138429
H	-0.3728611576	 1.9861007777	 1.037058825	 0.110141
H	-0.2797436812	-0.6292789566	 1.7522716648	 0.28418
H	-1.8866985282	 0.312767209	-1.1947430654	 0.131685
H	-1.6557981006	-1.2901987656	-0.5066228358	 0.096236
H	-2.4601653548	 1.1975955668	 1.1058888096	 0.128572
H	-3.5476905676	-0.0859588171	 0.5784933657	 0.105546
H	-2.3895548647	-1.4794780149	 1.9667983209	 0.292832
H	 1.714585994	-1.6975295095	-0.1691247472	 0.275046
H	 2.1437983526	-1.6516751158	-1.8704597175	 0.257469
42.7048	61.9719	175.7525	194.5915	228.8683	275.982	285.843	300.6175	310.0749	356.2497	389.0628	413.4373	486.0072	514.8774	594.1503	646.8643	651.026	700.0561	774.5608	851.4687	899.83	924.8102	966.2513	1003.3519	1067.6152	1092.0719	1101.3787	1132.4326	1198.6053	1224.7228	1277.9174	1339.3452	1369.9439	1385.4527	1397.8419	1409.6777	1450.9619	1469.4112	1486.4312	1502.1759	1514.4289	1585.1864	1789.2408	3016.062	3024.2472	3048.0334	3091.2722	3101.9351	3118.1175	3138.8864	3600.2144	3681.2584	3743.8416	3807.1143
CC(O)(CCO)C(N)=O	C[C@@](O)(CCO)C(=O)N	
InChI=1S/C5H11NO3/c1-5(9,2-3-7)4(6)8/h7,9H,2-3H2,1H3,(H2,6,8)	InChI=1S/C5H11NO3/c1-5(9,2-3-7)4(6)8/h7,9H,2-3H2,1H3,(H2,6,8)/t5-/m1/s1
