18
gdb 68330	3.13311	1.11306	1.02391	2.3881	75.	-0.2489	0.0263	0.2752	1228.9368	0.146836	-439.051452	-439.042982	-439.042038	-439.08503	31.73	
C	-0.2648856733	 1.4122126562	 0.0139582342	-0.513914
C	-0.0648914754	-0.0654077346	-0.0805578723	 0.379319
C	 0.7356087492	-0.9167826664	-1.0966827362	-0.257931
C	 0.3099198855	-1.8292994368	 0.0689788552	 0.013877
O	 0.692813154	-0.7530680319	 1.0192948715	-0.369378
C	-1.114097562	-1.2223389138	 0.0102214947	 0.040392
N	-1.9017273903	-1.2895763669	 1.2019067487	-0.29503
C	-3.2456060823	-1.5016470553	 1.2085926197	 0.151012
O	-3.9354807849	-1.6674886401	 0.224725491	-0.326797
H	 0.6967982287	 1.9264374069	 0.0992762421	 0.13864
H	-0.779099386	 1.7788768861	-0.8797369179	 0.136653
H	-0.8744082798	 1.662006413	 0.8878546247	 0.133365
H	 0.2971240853	-1.0916289527	-2.0824066405	 0.103807
H	 1.802237865	-0.6962228523	-1.1304949789	 0.114087
H	 0.6211824966	-2.8445151822	 0.3134187862	 0.100303
H	-1.740999989	-1.4262918156	-0.8567171672	 0.119817
H	-1.4067554713	-1.1471331014	 2.0696232479	 0.256062
H	-3.6514817701	-1.5083630724	 2.2395036571	 0.075715
49.1284	155.6931	173.7897	190.2611	255.5426	287.0577	319.0108	449.8406	499.4331	637.1322	641.4669	660.5675	743.2312	752.0923	760.2736	876.2531	912.4297	935.8946	988.2733	1020.2443	1029.5913	1031.878	1100.7265	1116.2354	1141.985	1172.8181	1206.937	1215.7606	1229.6709	1250.1471	1327.786	1360.7955	1412.5035	1432.709	1476.4839	1485.1474	1486.0493	1533.5206	1802.5517	2938.5395	3040.9894	3068.707	3114.5552	3119.0496	3126.5326	3142.5725	3157.5358	3624.2786
CC12CC(O1)C2NC=O	C[C@@]12C[C@@H](O1)[C@H]2NC=O	
InChI=1S/C6H9NO2/c1-6-2-4(9-6)5(6)7-3-8/h3-5H,2H2,1H3,(H,7,8)	InChI=1S/C6H9NO2/c1-6-2-4(9-6)5(6)7-3-8/h3-5H,2H2,1H3,(H,7,8)/t4-,5-,6+/m1/s1
