22
gdb 89892	4.39868	1.01272	0.97233	1.4976	86.68	-0.2226	0.0844	0.307	1327.8129	0.194956	-367.158913	-367.150498	-367.149553	-367.191916	33.529	
C	 0.0345489367	 1.5905802953	 0.008160034	-0.407708
C	 0.0852424217	 0.0710369397	-0.012367153	 0.061111
C	 1.1465226476	-0.6396567861	-0.900936158	-0.295556
C	 1.3620310313	-1.6683830415	 0.2345386542	 0.420489
C	 0.7438978527	-3.113338841	 0.1365126354	-0.302071
C	 2.1240227762	-3.679145559	 0.4838288426	-0.03187
N	 3.0415322101	-3.2007409565	-0.5803833903	-0.339047
C	 2.7059994568	-2.3132257497	 0.5654919174	-0.157637
C	 0.6820201554	-0.6783815257	 1.2136563462	-0.318917
H	 1.0214956106	 2.0134666438	 0.2298541859	 0.108219
H	-0.2884385731	 1.9915647491	-0.9593148621	 0.113185
H	-0.6632011736	 1.9578196309	 0.7696006422	 0.110932
H	-0.9105409214	-0.3282631961	-0.2368362161	 0.070198
H	 0.8316541775	-1.0231516732	-1.8739772699	 0.09967
H	 2.0341309629	-0.0134492852	-1.0453233992	 0.092671
H	-0.0061716007	-3.2944260865	 0.9108467384	 0.098622
H	 0.351043937	-3.4153578212	-0.8383036525	 0.102218
H	 2.3549922809	-4.572278704	 1.0514337805	 0.088951
H	 3.9588565463	-3.6007689441	-0.3803361885	 0.223979
H	 3.4863553906	-1.9153046906	 1.2050411616	 0.080673
H	 1.4231527139	-0.0579185639	 1.7320159352	 0.09034
H	-0.0080452394	-1.0874430746	 1.9576018358	 0.091546
69.3657	113.963	216.9413	244.9398	300.5704	312.9688	382.5879	424.9836	447.0279	551.6164	683.2126	761.4723	810.2459	823.5107	837.289	843.3112	891.0935	895.8622	928.6455	938.7507	951.3928	970.8672	1005.3826	1050.7641	1071.5643	1081.2535	1106.7487	1126.4054	1147.6445	1175.8795	1196.3936	1201.0887	1231.2443	1237.7774	1256.1315	1278.3771	1286.501	1310.2545	1336.7611	1372.2441	1387.1633	1410.6217	1470.6028	1472.6046	1492.4215	1495.7477	1498.626	3019.4765	3028.2636	3033.3878	3045.1803	3053.3388	3083.3268	3087.2804	3089.8482	3105.7871	3111.1991	3168.6293	3189.2823	3460.156
CC1CC2(CC3NC23)C1	C[C@H]1C[C@]2(C[C@H]3N[C@@H]23)C1	
InChI=1S/C8H13N/c1-5-2-8(3-5)4-6-7(8)9-6/h5-7,9H,2-4H2,1H3	InChI=1S/C8H13N/c1-5-2-8(3-5)4-6-7(8)9-6/h5-7,9H,2-4H2,1H3/t5-,6-,7-,8+/m1/s1
