21
gdb 116216	2.30242	1.545	1.08523	2.0824	79.3	-0.2263	0.0777	0.304	1193.5435	0.182138	-424.204404	-424.195455	-424.194511	-424.238854	33.722	
C	 0.1898686708	 1.228867018	 0.3155688797	-0.235551
O	 0.0325585108	-0.1337624241	-0.0044764711	-0.243438
C	 0.5521928399	-0.4901337625	-1.2770187317	 0.015156
C	 2.079182085	-0.7184680242	-1.2531836619	-0.24045
C	 2.1643259651	-2.2140603585	-0.9387675122	-0.087541
O	 1.1030336985	-2.7880573929	-1.6916207431	-0.294127
C	 0.023636971	-1.8759290162	-1.6619601283	 0.447361
C	-1.3142331655	-2.3662858812	-1.1916870991	-0.311859
C	-1.0631445834	-2.1026443624	-2.6655658287	-0.3424
H	 1.2460532881	 1.5251296905	 0.4030626311	 0.104621
H	-0.2844407193	 1.8794081479	-0.4364454117	 0.104203
H	-0.2965478809	 1.3912862947	 1.2805298053	 0.128856
H	 0.2620443405	 0.2749034424	-2.0112584603	 0.067373
H	 2.5029581268	-0.5200062569	-2.242668452	 0.108322
H	 2.5857970598	-0.0825734378	-0.5238666723	 0.103748
H	 3.0962158092	-2.687895489	-1.2567206642	 0.105978
H	 2.0247789746	-2.3925059593	 0.1384602893	 0.099939
H	-1.3629040015	-3.4018342076	-0.8747549146	 0.118362
H	-1.9365739817	-1.6782905697	-0.6322629444	 0.121562
H	-1.5297571551	-1.2390593088	-3.1284581425	 0.109604
H	-0.9482655727	-2.9627660524	-3.3159677774	 0.120281
28.228	112.4528	177.1595	191.1797	231.1394	275.4493	316.9617	393.6608	445.2832	509.3635	542.6183	641.9967	765.61	814.2782	841.1651	875.9858	911.2808	929.0748	952.5618	979.5522	993.7616	1026.0019	1045.7825	1070.	1083.9338	1104.8257	1146.0783	1183.2819	1191.206	1194.0623	1224.3661	1227.7468	1255.1086	1289.0262	1331.9172	1360.0998	1390.0424	1394.7403	1450.9316	1473.9245	1477.4896	1489.5159	1494.0454	1510.7707	1516.2243	2972.3757	2989.6764	2996.5763	3019.3692	3059.5205	3098.2118	3113.1024	3117.3673	3127.7037	3142.4593	3215.468	3237.5726
COC1CCOC11CC1	CO[C@H]1CCOC21CC2	
InChI=1S/C7H12O2/c1-8-6-2-5-9-7(6)3-4-7/h6H,2-5H2,1H3	InChI=1S/C7H12O2/c1-8-6-2-5-9-7(6)3-4-7/h6H,2-5H2,1H3/t6-/m0/s1
