17
gdb 123735	4.95868	1.02686	0.9829	2.1073	74.36	-0.2793	-0.0245	0.2547	1232.4813	0.13824	-418.003754	-417.996318	-417.995374	-418.036911	27.381	
C	-0.0457283298	 1.506917455	-0.0976567854	-0.215267
C	 1.5048226433	 1.4967241984	-0.0585601361	-0.230527
C	 1.4410906666	 0.0775334946	 0.5932399635	-0.085716
C	-0.0233528473	-0.0360692493	 0.0589679789	-0.230539
C	 2.4338559857	-0.9431663543	 0.1893274863	 0.424881
N	 3.2158222762	-1.6640476095	 0.9432817435	-0.322836
C	 3.8943779724	-2.4123434388	 0.014610599	 0.033268
N	 3.5735176187	-2.1885860065	-1.2294242232	-0.114451
O	 2.5884429593	-1.1983522277	-1.1203058378	-0.204183
H	-0.4697416907	 1.9971985134	 0.7829323073	 0.109707
H	-0.5245772678	 1.9159840156	-0.9889894897	 0.107843
H	 1.9358924711	 1.4451491383	-1.06122385	 0.125367
H	 2.0163569181	 2.275730665	 0.509994089	 0.111355
H	 1.4620695763	 0.1401565006	 1.6822402979	 0.108489
H	-0.7535724793	-0.5025602094	 0.7230008082	 0.111349
H	-0.0459871902	-0.5427340613	-0.9088075367	 0.125378
H	 4.6472912275	-3.142690674	 0.2737440153	 0.145883
38.3961	110.7153	136.9601	231.5632	377.2564	399.8288	565.1341	657.5378	720.8963	749.7903	806.009	859.299	914.8495	923.4032	932.1434	938.5183	945.9926	980.1841	999.084	1031.7903	1034.1564	1117.0617	1185.0784	1208.6658	1241.4021	1257.7005	1259.9798	1260.2525	1277.5602	1285.1498	1323.517	1354.4251	1476.535	1488.5498	1508.6825	1516.5651	1617.008	3066.0684	3068.7753	3072.8143	3101.7915	3115.7162	3126.4064	3137.6755	3259.263
C1CC(C1)C1=NC=NO1	C1CC(C1)c1ncno1	
InChI=1S/C6H8N2O/c1-2-5(3-1)6-7-4-8-9-6/h4-5H,1-3H2	InChI=1S/C6H8N2O/c1-2-5(3-1)6-7-4-8-9-6/h4-5H,1-3H2
