23
gdb 83349	2.09306	1.93542	1.53231	0.1765	88.71	-0.2311	0.0262	0.2574	1043.9687	0.207836	-351.176918	-351.168677	-351.167733	-351.20873	34.425	
C	-0.1438714254	 1.5427404978	-0.0197016441	-0.435783
C	 0.0485386297	 0.0281816653	 0.0027190487	 0.019036
C	 1.0702886204	-0.5764297438	-0.9988703795	-0.07379
C	 2.4212831831	 0.0043935713	-0.4586115782	-0.212368
C	 2.209040906	-0.0169536575	 1.0825311476	-0.232976
C	 0.7582585369	-0.5988264785	 1.2466526271	 0.295712
C	 0.1314591254	-0.3857387067	 2.6140773307	-0.497673
C	 0.8638032152	-2.0420878896	 0.7653193834	-0.107803
C	 1.0417076359	-2.0297230313	-0.5589704086	-0.097417
H	 0.7857090773	 2.0976664825	 0.1319408943	 0.116741
H	-0.5628896598	 1.8589566742	-0.9814266449	 0.112876
H	-0.8466648458	 1.8573395293	 0.7593606454	 0.115088
H	-0.9259056363	-0.4536916496	-0.1340976866	 0.063812
H	 0.8928384875	-0.388901427	-2.0594627765	 0.051521
H	 3.2733587357	-0.5993636523	-0.7794627207	 0.094322
H	 2.585041681	 1.0211276965	-0.8279221628	 0.093693
H	 2.9433705354	-0.6351218686	 1.6052375625	 0.092715
H	 2.2698540625	 0.9889487575	 1.5109504585	 0.091032
H	 0.0769213797	 0.6783065487	 2.8681403056	 0.112507
H	-0.8843860732	-0.7941530109	 2.6550567883	 0.112993
H	 0.7180248012	-0.8784712929	 3.3980055822	 0.11167
H	 0.8874800765	-2.8991176131	 1.4290009013	 0.085414
H	 1.2446071511	-2.8754904813	-1.2048278136	 0.088679
184.436	212.5605	234.5528	240.0453	289.0623	317.214	358.0819	390.6423	499.6127	542.9852	604.6876	682.7884	709.3892	753.0708	773.633	822.1817	846.6372	882.6231	904.8498	924.2628	948.0643	956.8333	964.9675	1028.1219	1038.8025	1076.2498	1079.1977	1120.2392	1126.8705	1160.7019	1178.6988	1206.6699	1233.2121	1250.7513	1272.6685	1287.4429	1305.606	1329.811	1364.0495	1379.0132	1409.672	1414.8275	1483.215	1492.1925	1495.4472	1502.3876	1508.3373	1515.9351	1645.1846	3024.693	3034.1257	3043.3536	3046.376	3060.2621	3086.5226	3087.7328	3090.4103	3095.261	3095.5493	3105.5463	3116.8965	3182.9393	3211.0922
CC1C2CCC1(C)C=C2	C[C@H]1[C@H]2CC[C@]1(C)C=C2	
InChI=1S/C9H14/c1-7-8-3-5-9(7,2)6-4-8/h3,5,7-8H,4,6H2,1-2H3	InChI=1S/C9H14/c1-7-8-3-5-9(7,2)6-4-8/h3,5,7-8H,4,6H2,1-2H3/t7-,8+,9-/m0/s1
