16
gdb 64072	2.5717	1.56	1.2309	2.9612	67.2	-0.2646	-0.0806	0.184	1036.7684	0.123054	-475.047493	-475.038933	-475.037989	-475.08062	31.77	
C	 0.2384693843	 1.5383400293	 0.0993368306	-0.432091
C	-0.0830141878	 0.0409112756	-0.0431971893	 0.285229
O	-1.4685378568	-0.1860993067	-0.1181619098	-0.477167
C	 0.6658556623	-0.5983800709	-1.2235836738	-0.138991
O	 1.9561152526	-1.0039143015	-0.6982629995	-0.246738
C	 1.8915945897	-1.2122968333	 0.6457513621	 0.343217
N	 2.7936179386	-1.6999978484	 1.3797855163	-0.505471
C	 0.5411465952	-0.7272236723	 1.1226500172	 0.268743
O	 0.0016796183	-0.9348081176	 2.1759169244	-0.302978
H	 1.3171167679	 1.7248025324	 0.0856150611	 0.134125
H	-0.2232439923	 2.0790619521	-0.7314332228	 0.138334
H	-0.1698872438	 1.9217331689	 1.0385748722	 0.136936
H	-1.7687854791	-0.3480466087	 0.7880144208	 0.294872
H	 0.1212516515	-1.4771044847	-1.5825967946	 0.135776
H	 0.8573284727	 0.0828397988	-2.0538337802	 0.129475
H	 3.6170089166	-1.9542376033	 0.8285778056	 0.236731
69.6381	148.3835	193.9716	242.4003	285.1112	320.6898	329.0517	357.3679	388.5812	461.7567	568.5393	594.834	640.9934	721.4385	802.6312	885.7438	916.0495	961.4438	974.3897	994.0173	1015.0636	1092.0905	1135.7482	1169.9605	1228.7032	1236.7917	1313.3521	1383.4231	1391.7836	1403.9648	1486.4672	1490.3551	1518.0996	1760.8423	1861.6577	3039.0467	3060.8184	3117.3485	3124.7408	3129.785	3461.3408	3735.8589
CC1(O)COC(=N)C1=O	C[C@@]1(O)CO[C]([NH])C1=O	
InChI=1S/C5H7NO3/c1-5(8)2-9-4(6)3(5)7/h6,8H,2H2,1H3	InChI=1S/C5H7NO3/c1-5(8)2-9-4(6)3(5)7/h6,8H,2H2,1H3/t5-/m1/s1
