14
gdb 28561	2.48494	1.79673	1.04276	3.7666	66.89	-0.1857	-0.0375	0.1482	1046.037	0.100856	-473.871972	-473.86404	-473.863096	-473.904389	29.568	
O	-0.0000780964	 1.3412801209	 0.0007660805	-0.433629
C	 0.0295314128	 0.0057265734	-0.0920292033	 0.404247
C	 0.0273999659	-0.8179674338	-1.1669778359	-0.27101
C	 0.069469426	-2.1882980863	-0.6790467504	-0.299427
C	 0.0954818632	-2.1432884726	 0.6718622185	 0.381784
O	 0.1373386067	-3.0690988028	 1.6637244474	-0.43911
N	 0.0718935036	-0.7979816454	 1.0783176566	-0.175566
C	 0.0864953846	-0.3278358307	 2.365623865	 0.187465
O	 0.064954474	 0.8578532222	 2.6453425946	-0.351002
H	 0.0134522321	 1.5685094668	 0.9514715872	 0.319428
H	-0.0006488658	-0.5038090632	-2.1969933189	 0.115249
H	 0.0783852261	-3.0799922662	-1.2863212743	 0.105314
H	 0.1478955872	-3.9441617485	 1.2637159133	 0.314326
H	 0.1208933799	-1.1261348437	 3.1190441899	 0.141931
97.5687	178.4714	211.3874	253.2343	269.2955	329.1358	344.6549	478.983	560.6106	594.6508	618.4905	650.3355	677.7637	729.6794	753.0499	777.4918	830.4221	1015.1291	1040.5098	1062.7093	1177.7232	1207.8199	1270.8509	1305.8304	1368.3561	1417.0324	1449.7743	1488.9028	1667.4264	1691.5571	1777.0658	3060.2646	3249.8354	3274.0714	3545.3107	3845.3387
OC1=CC=C(O)N1C=O	Oc1ccc(O)n1C=O	
InChI=1S/C5H5NO3/c7-3-6-4(8)1-2-5(6)9/h1-3,8-9H	InChI=1S/C5H5NO3/c7-3-6-4(8)1-2-5(6)9/h1-3,8-9H
