18
gdb 39762	4.82375	1.33519	1.21521	3.1925	76.16	-0.2353	0.0886	0.3239	1044.8525	0.149446	-401.85674	-401.850096	-401.849152	-401.887523	27.484	
C	 0.0354437256	 1.5276438323	 0.0235299799	-0.312449
O	 1.2056281927	 0.6703874522	 0.0143637629	-0.287395
C	-0.0575339635	 0.077935678	-0.0002657916	 0.586008
C	-0.6200201396	-1.0057159414	 0.9080378633	-0.166474
C	-1.8744588834	-1.0867851581	-0.0263605083	-0.004016
C	-2.3218647078	-2.5432922003	-0.0516888823	-0.265386
C	-0.9119953333	-3.1940483851	-0.0565567476	-0.160585
N	 0.018644099	-2.0383768847	-0.0341562084	-0.127082
C	-0.6125893431	-0.9757321628	-0.9475793085	-0.166474
H	-0.1272110128	 2.0740416742	 0.9513624234	 0.119641
H	-0.1198505377	 2.1037565797	-0.8874352494	 0.119641
H	-0.5678576167	-1.111307777	 1.9926119299	 0.086154
H	-2.6303382312	-0.2983050347	-0.0166467081	 0.069886
H	-2.9180686262	-2.8101777709	 0.8261524059	 0.103159
H	-2.9109819908	-2.7815968769	-0.942443992	 0.103159
H	-0.7239377541	-3.8220011465	 0.8188654318	 0.10803
H	-0.7168520757	-3.7934168576	-0.9502741739	 0.10803
H	-0.5517317315	-1.0462384504	-2.034546037	 0.086154
164.4878	233.7397	245.3895	317.8844	455.4311	479.3456	571.8809	728.2635	736.9373	753.7557	779.0161	835.3621	849.455	886.7273	895.197	933.2517	966.4106	975.2868	1016.3214	1042.9238	1048.2256	1087.2844	1113.0488	1123.104	1125.088	1132.8176	1151.5158	1174.0057	1200.0225	1226.3609	1247.101	1255.1386	1264.4245	1316.9147	1342.5168	1473.7595	1492.8986	1511.3552	1573.7251	3049.3895	3060.4491	3084.6401	3086.4174	3092.177	3107.1224	3108.6659	3113.783	3170.2159
C1OC11C2C3CCN2C13	C1O[C@]21[C@H]1[C@@H]3CCN1[C@H]23	
InChI=1S/C7H9NO/c1-2-8-5-4(1)6(8)7(5)3-9-7/h4-6H,1-3H2	InChI=1S/C7H9NO/c1-2-8-5-4(1)6(8)7(5)3-9-7/h4-6H,1-3H2/t4-,5+,6-,7+
