15
gdb 68696	2.0117	1.83619	1.14949	5.5801	72.71	-0.2685	-0.0469	0.2216	1063.1985	0.111783	-416.800413	-416.792217	-416.791273	-416.833292	30.168	
C	-0.0005451281	 1.5322551768	 0.0460328411	-0.476832
C	-0.0521191736	 0.0367006943	 0.0522872719	 0.258183
C	-1.3100816543	-0.8441272572	-0.0792104184	-0.42074
C	-0.6849473479	-1.7787185319	 0.9905680902	 0.369091
O	-1.0977808205	-2.6988708433	 1.626211655	-0.276633
C	 0.5809283694	-0.9340071212	 1.0710885988	 0.046414
N	 1.1179619576	-0.731439573	-0.2930759751	-0.360293
C	 1.4213077116	-0.7091748262	 2.2028379337	 0.227278
N	 2.065925264	-0.5247244303	 3.1450763262	-0.339635
H	 0.9906868129	 1.8797887912	 0.3452342206	 0.157483
H	-0.2066500705	 1.9122027589	-0.9606320742	 0.140899
H	-0.7474933088	 1.9510499202	 0.7263834147	 0.139018
H	-2.2285977331	-0.3996109144	 0.3160691201	 0.150201
H	-1.5078904118	-1.2497440078	-1.0755941279	 0.134146
H	 0.9295234031	-1.5301653159	-0.8973785567	 0.251419
104.2349	120.0418	152.8277	198.4976	288.256	358.5161	398.5622	432.7627	525.5124	548.0324	606.4598	618.0312	647.9162	731.185	780.832	886.7159	950.5022	988.5437	1044.5676	1074.6071	1108.9002	1126.2962	1161.7868	1204.4161	1216.8275	1332.4367	1405.4584	1439.9301	1465.6748	1480.9758	1491.0156	1898.1198	2356.3685	3042.185	3057.9437	3107.8606	3112.1034	3137.168	3464.8834
CC12CC(=O)C1(N2)C#N	C[C@]12CC(=O)[C@]1(N2)C#N	
InChI=1S/C6H6N2O/c1-5-2-4(9)6(5,3-7)8-5/h8H,2H2,1H3	InChI=1S/C6H6N2O/c1-5-2-4(9)6(5,3-7)8-5/h8H,2H2,1H3/t5-,6+/m0/s1
