20
gdb 67737	3.1903	1.57852	1.3975	1.4675	83.19	-0.21	0.0081	0.2181	1031.8472	0.17108	-365.987762	-365.979816	-365.978872	-366.0194	32.479	
C	-0.0200513779	 1.4769040311	 0.0453834782	-0.491521
C	 0.0311439629	-0.0295565089	-0.0123859508	 0.3087
C	-0.00793621	-0.7339896284	-1.3282652643	-0.149659
C	-0.5002045616	-1.9584061561	-1.1477763993	-0.129844
C	-0.707576186	-2.1762329937	 0.3347878335	 0.285295
C	-1.7778636591	-3.1499750679	 0.7661760034	-0.483551
C	 0.7163655769	-2.2740446581	 0.9908499951	-0.281906
C	 0.6307156415	-0.7700871705	 1.1611499221	-0.08246
N	-0.8591172136	-0.7570262791	 0.9236052684	-0.19845
H	 0.8824948885	 1.9160352653	-0.3936681663	 0.116465
H	-0.8876377472	 1.8543481704	-0.5056151299	 0.12569
H	-0.1012432927	 1.8227487712	 1.0793129959	 0.127728
H	 0.338328145	-0.2904485525	-2.2534178287	 0.101249
H	-0.6009125668	-2.743440059	-1.8875763568	 0.100215
H	-1.5505258862	-4.1608240207	 0.4094851845	 0.113648
H	-1.8579563812	-3.1805759247	 1.8567140998	 0.121939
H	-2.751855554	-2.8542568314	 0.3630775204	 0.125966
H	 0.6592939844	-2.7664187361	 1.9653643787	 0.108743
H	 1.531636062	-2.7078390428	 0.4042087151	 0.095817
H	 1.0794820154	-0.2135294181	 1.9802729912	 0.085935
179.2095	197.1604	216.2199	267.3971	290.177	337.9139	388.3086	419.3149	558.077	566.833	634.2009	720.182	736.7953	761.543	798.7301	830.4863	867.395	883.1694	903.1175	938.6624	965.7003	1000.5907	1018.2638	1038.0241	1074.2276	1093.0449	1120.3712	1156.9756	1208.4604	1214.2423	1247.8634	1260.9901	1329.4947	1356.5129	1382.3017	1410.4503	1416.2363	1480.3562	1484.6058	1486.3283	1495.4187	1495.5125	1662.7948	3031.8017	3033.8515	3047.1227	3098.451	3100.9694	3103.9161	3111.5541	3117.0299	3138.9387	3196.2205	3222.0862
CC12C=CC3(C)CC1N23	C[C@@]12C=C[C@@]3(C)C[C@@H]1N23	
InChI=1S/C8H11N/c1-7-3-4-8(2)6(5-7)9(7)8/h3-4,6H,5H2,1-2H3	InChI=1S/C8H11N/c1-7-3-4-8(2)6(5-7)9(7)8/h3-4,6H,5H2,1-2H3/t6-,7-,8+,9?/m0/s1
