20
gdb 35231	3.39231	1.11679	0.96191	1.8909	85.83	-0.2386	0.0367	0.2753	1281.9941	0.171609	-365.970115	-365.961552	-365.960608	-366.003737	33.317	
C	-0.2118280179	-1.1944688575	 0.1300097263	-0.43919
C	-0.1031518643	 0.0034207069	 0.1242516225	 0.386388
C	 0.0245383185	 1.4328444752	 0.0699402727	-0.32891
N	 0.6954039692	 2.1149348823	 1.2067696196	-0.36675
C	 1.3465465562	 2.1197329671	-0.1065734732	 0.357712
C	 2.6760885587	 1.3651059231	-0.2242298775	-0.268589
C	 3.4615801583	 2.1171381278	-1.3175002527	-0.205003
C	 2.9586086338	 3.5671114768	-1.1993086621	-0.205465
C	 1.448310301	 3.3936748513	-0.9574557813	-0.283579
H	-0.3089499529	-2.2515717687	 0.151040966	 0.195579
H	-0.830815795	 1.941466895	-0.372914683	 0.102078
H	 0.2279578466	 3.0036702252	 1.3761066629	 0.22809
H	 3.1940294951	 1.4255030452	 0.7384805814	 0.113966
H	 2.5305590673	 0.3052390374	-0.4472136806	 0.114367
H	 4.5445966197	 2.0259281788	-1.1999642658	 0.097581
H	 3.207392042	 1.7198874563	-2.3077974989	 0.100065
H	 3.4236861218	 4.0527902879	-0.3328674384	 0.102526
H	 3.1821099616	 4.1787279138	-2.0776640421	 0.096055
H	 0.9346292229	 3.2457061735	-1.915254879	 0.109101
H	 0.9812895974	 4.2566702726	-0.4710907967	 0.093977
43.3496	121.7587	139.3426	247.954	297.1785	368.8337	374.304	451.2256	542.8772	558.7963	591.494	613.5246	656.8707	715.5177	794.2573	842.0533	868.502	896.9157	911.7724	921.0005	959.733	972.8175	1021.4083	1043.1033	1051.4175	1080.206	1168.7097	1185.7115	1202.0869	1235.9946	1242.8657	1274.9474	1300.2946	1320.2088	1337.9822	1344.7522	1369.5684	1436.7716	1481.2467	1488.005	1493.1562	1510.8335	2236.5145	3027.6871	3031.8192	3037.664	3054.3621	3072.4601	3091.3476	3096.0397	3106.2024	3110.5977	3479.6382	3504.1552
C#CC1NC11CCCC1	C#C[C@H]1NC21CCCC2	
InChI=1S/C8H11N/c1-2-7-8(9-7)5-3-4-6-8/h1,7,9H,3-6H2	InChI=1S/C8H11N/c1-2-7-8(9-7)5-3-4-6-8/h1,7,9H,3-6H2/t7-/m1/s1
