15
gdb 29174	2.27322	1.85035	1.02658	5.6491	71.46	-0.2176	-0.0245	0.1931	1091.7768	0.112382	-453.987358	-453.979305	-453.978361	-454.020081	29.601	
C	-0.0250071753	 1.4893538775	 0.0699516565	-0.501724
C	-0.0106450731	 0.0035723915	-0.0097722033	 0.291429
C	-0.0315067047	-0.7975005027	-1.0759202873	-0.127317
O	-0.0060447358	-2.1261736258	-0.708466633	-0.224552
C	 0.0337023271	-2.1903933056	 0.6712755559	 0.4813
N	 0.0657603413	-3.2344451028	 1.3716841607	-0.541743
N	 0.0310552193	-0.8520751251	 1.1239154883	-0.203333
C	 0.0610388281	-0.4282024906	 2.4513991476	 0.158569
O	 0.0949668042	-1.1398778001	 3.416887055	-0.262559
H	 0.8686623639	 1.8833265574	 0.567179656	 0.148734
H	-0.0568869506	 1.9022342988	-0.9408017205	 0.145252
H	-0.899000149	 1.8638580112	 0.6149252684	 0.148727
H	-0.0634231671	-0.5877164259	-2.1310774769	 0.158517
H	 0.0582001993	-4.0578485552	 0.7720494356	 0.235522
H	 0.0494577825	 0.6748348175	 2.506715507	 0.093176
85.4999	162.4365	218.7284	233.31	246.8142	292.3506	318.0753	463.0284	531.8524	586.0759	611.8246	728.072	758.4376	772.3843	789.9544	805.8707	984.756	1012.9399	1017.2408	1068.7329	1081.4932	1120.4479	1203.9239	1281.6955	1325.1778	1398.2369	1423.1889	1458.8965	1474.9318	1495.4919	1728.7876	1774.9933	1846.3428	2977.2012	3030.4683	3081.6973	3127.2537	3292.974	3518.3295
CC1=COC(=N)N1C=O	CC1=CO[C@@H]([NH])N1C=O	
InChI=1S/C5H6N2O2/c1-4-2-9-5(6)7(4)3-8/h2-3,6H,1H3	InChI=1S/C5H7N2O2/c1-4-2-9-5(6)7(4)3-8/h2-3,5-6H,1H3/t5-/m0/s1
