16
gdb 44416	3.63688	1.53815	1.5145	3.7343	71.36	-0.2499	0.0081	0.2581	921.5317	0.125211	-437.77061	-437.764077	-437.763133	-437.801302	26.899	
N	 0.0681075009	 1.1939734845	-0.4191130939	-0.555828
C	 0.05032756	 0.0025674515	-0.0571476491	 0.381599
O	 1.1202492804	-0.8947700121	 0.2399040465	-0.294972
C	 0.1645391381	-1.6740879659	 1.0568025346	 0.111583
C	-0.7097993037	-2.9855028488	 0.9557718047	-0.14535
C	-1.9243129509	-1.9294556399	 1.1801372654	-0.331988
C	-0.9703663028	-1.0878191773	 0.2819005711	 0.276159
O	-1.0060077326	-1.8422307704	-0.9602418431	-0.288933
C	-0.805765434	-3.2035760692	-0.5400809934	-0.078738
H	 1.022412553	 1.5365453999	-0.542822756	 0.240957
H	 0.2525341911	-1.3414340857	 2.0911521026	 0.109447
H	-0.5579888568	-3.8388983975	 1.6151342291	 0.092841
H	-2.8946320536	-2.2087710828	 0.7669135539	 0.127602
H	-2.0053232669	-1.5909144805	 2.2120163825	 0.127664
H	 0.1129482944	-3.6069060144	-0.9803680497	 0.118574
H	-1.6550638565	-3.8260830814	-0.8433952352	 0.109382
144.4859	230.1916	316.4845	383.8634	464.5104	471.6028	587.2467	651.5106	677.0063	742.7709	780.0767	815.4571	830.5503	865.1451	874.2672	919.7485	956.1026	969.5459	996.2743	1003.9239	1034.2173	1060.5781	1118.3074	1120.7422	1164.3931	1178.6887	1208.6321	1213.8898	1240.4463	1279.2205	1351.8743	1385.8824	1478.6394	1527.8774	1830.7162	3031.5322	3073.1201	3088.9033	3107.2639	3135.5491	3168.6529	3481.4563
N=C1OC2C3CC12OC3	[NH][C]1O[C@@H]2[C@H]3C[C@@]12OC3	
InChI=1S/C6H7NO2/c7-5-6-1-3(2-8-6)4(6)9-5/h3-4,7H,1-2H2	InChI=1S/C6H7NO2/c7-5-6-1-3(2-8-6)4(6)9-5/h3-4,7H,1-2H2/t3-,4+,6-/m0/s1
