16
gdb 61333	6.09551	0.55688	0.52373	2.2724	81.62	-0.2775	-0.0735	0.2041	1965.9941	0.121613	-400.745065	-400.735008	-400.734064	-400.782104	33.448	
C	 0.0412811224	 1.5895648353	-0.0311113071	-0.39127
C	 0.0184652317	 0.0507301289	-0.0464701877	-0.138465
C	-1.4254836935	-0.525408537	 0.0341207766	-0.363375
C	-2.0998911006	-0.1871380104	 1.2765821311	 0.063666
C	-2.6587694127	 0.0860484835	 2.3120979773	 0.072654
C	-3.3085694949	 0.419211997	 3.5558775083	 0.018664
O	-4.4610210336	 0.1609197751	 3.8131120272	-0.221135
C	 0.6801388769	-0.4701980776	-1.2466643527	 0.267607
N	 1.189478393	-0.8796993374	-2.1996783851	-0.312357
H	 1.0676963552	 1.9620298475	-0.0528746868	 0.144949
H	-0.4886579557	 1.9935679284	-0.8983403579	 0.141575
H	-0.4457141238	 1.9536161144	 0.8765913438	 0.140806
H	 0.5763246715	-0.3224243902	 0.8203873146	 0.143209
H	-2.0109361289	-0.1549573925	-0.8164092718	 0.163372
H	-1.3906132152	-1.6161123149	-0.0701777887	 0.167283
H	-2.6559681217	 0.9451327801	 4.281818069	 0.102817
26.7541	54.0652	67.7181	165.0207	173.8981	189.5918	222.7362	265.6218	335.4234	404.9738	465.3137	528.9558	560.5436	615.9884	815.9244	837.6203	883.2938	923.6029	1020.7744	1063.0339	1092.1021	1129.2446	1157.6626	1241.1409	1294.0843	1333.8297	1365.8133	1412.3158	1422.6886	1457.0251	1495.0329	1498.1034	1770.3173	2330.2409	2359.7937	2921.8196	3035.0604	3047.7353	3053.5822	3074.7417	3130.0304	3138.5231
CC(CC#CC=O)C#N	C[C@@H](CC#CC=O)C#N	
InChI=1S/C7H7NO/c1-7(6-8)4-2-3-5-9/h5,7H,4H2,1H3	InChI=1S/C7H7NO/c1-7(6-8)4-2-3-5-9/h5,7H,4H2,1H3/t7-/m0/s1
