21
gdb 100656	2.08268	1.19121	1.1623	1.3674	80.81	-0.2502	0.0368	0.2871	1275.1293	0.176993	-424.18212	-424.170698	-424.169754	-424.218369	41.239	
C	 0.041689629	 1.4033275471	 0.0771905539	-0.23376
O	-0.0597328706	 0.004170848	-0.0499088483	-0.247605
C	 0.648966373	-0.5515176797	-1.1445021806	 0.134039
C	 2.1524253587	-0.6341683198	-0.8787822972	-0.433703
C	 0.0048678634	-1.9391545647	-1.4405842028	 0.162953
C	-1.4730353148	-1.7726273101	-1.8127917543	-0.406865
O	 0.6461893518	-2.5013013497	-2.5933737983	-0.461289
C	 0.1510766729	-2.840150115	-0.2897021654	 0.341803
C	 0.3013455709	-3.6106272848	 0.6209954206	-0.507984
H	 1.0593919759	 1.7336834001	 0.3305491743	 0.108573
H	-0.2682242516	 1.918467686	-0.8456359808	 0.104609
H	-0.628363043	 1.7000362206	 0.8879771904	 0.12867
H	 0.4736171233	 0.054764291	-2.0484103139	 0.070005
H	 2.5710554412	 0.3591981617	-0.6971269916	 0.117792
H	 2.3525650753	-1.2594737953	-0.0040834271	 0.133873
H	 2.6695990506	-1.0511452767	-1.7470910533	 0.117554
H	-1.5443168435	-1.1796430776	-2.7295463881	 0.118243
H	-1.9230859607	-2.750538228	-1.9944122288	 0.126095
H	-2.0089980288	-1.2643534221	-1.0111836143	 0.140218
H	 1.4259363621	-2.9794504902	-2.2938622138	 0.286685
H	 0.421519935	-4.2834316105	 1.4341014392	 0.200093
62.8177	70.0244	139.6204	174.0015	183.2897	197.7125	227.1798	238.3458	256.2901	297.2158	341.9154	375.7052	414.4798	422.6039	486.4836	583.8325	630.7284	637.9001	661.0775	710.6418	862.403	915.2893	942.8916	1028.6659	1047.2728	1088.8562	1138.4104	1148.1842	1165.2922	1182.2489	1213.6653	1236.2299	1329.33	1365.6955	1381.8372	1398.4485	1405.0452	1476.3645	1485.4947	1487.2267	1487.9847	1492.7795	1506.7952	1511.7023	2229.0793	2970.0765	2978.6418	3027.0199	3048.5591	3053.6398	3111.6163	3118.4747	3127.902	3129.2931	3160.9751	3500.2191	3825.64
COC(C)C(C)(O)C#C	CO[C@@H](C)[C@@](C)(O)C#C	
InChI=1S/C7H12O2/c1-5-7(3,8)6(2)9-4/h1,6,8H,2-4H3	InChI=1S/C7H12O2/c1-5-7(3,8)6(2)9-4/h1,6,8H,2-4H3/t6-,7-/m0/s1
