17
gdb 64938	4.53003	0.68763	0.65064	0.5253	81.33	-0.2415	0.0186	0.2602	1724.3623	0.13369	-421.748304	-421.739167	-421.738223	-421.783938	33.005	
O	 0.4585158568	 1.1914320391	 0.4678532253	-0.442114
C	 0.0808385287	-0.1186646516	 0.1311425794	 0.220865
C	-0.8832199495	-0.8307261035	 1.0699742095	-0.310744
C	-1.3754311165	-0.2578961453	-0.2334778176	-0.28804
C	 1.0722439362	-0.8942252982	-0.5658925242	 0.131464
C	 1.9398272891	-1.525286241	-1.1179562599	 0.023907
C	 2.937218137	-2.2891967827	-1.8128637757	-0.122226
C	 4.3725195656	-1.9516675852	-1.7315925766	-0.15942
O	 3.856455524	-3.0715663595	-1.0268766597	-0.215589
H	 1.2135345797	 1.1318996002	 1.0643264984	 0.285839
H	-0.7986694611	-1.9062628349	 1.1697660556	 0.128797
H	-1.1294039015	-0.2920465545	 1.9779004666	 0.124062
H	-1.9465575351	 0.662348723	-0.1954022301	 0.133541
H	-1.6341100814	-0.9353359667	-1.0378121648	 0.129085
H	 2.593269206	-2.7992923559	-2.7121351664	 0.117637
H	 5.0181405199	-2.1786343123	-2.5792331962	 0.120128
H	 4.6797883722	-1.1079468209	-1.1165465234	 0.122808
20.9105	81.8112	92.3035	193.6534	218.5059	301.0209	348.8502	377.6853	465.8221	498.3081	560.558	576.3013	639.786	774.9422	811.1058	833.8149	882.5362	905.6627	927.9486	974.8747	999.3697	1055.5702	1073.4079	1082.8267	1112.3266	1155.8302	1166.3699	1194.5155	1241.2206	1274.3022	1315.9327	1373.0697	1412.2535	1449.4544	1486.1045	1520.0072	2348.3211	3084.0316	3113.2806	3140.87	3147.8373	3176.7088	3231.6629	3246.4271	3795.0041
OC1(CC1)C#CC1CO1	OC1(CC1)C#C[C@H]1CO1	
InChI=1S/C7H8O2/c8-7(3-4-7)2-1-6-5-9-6/h6,8H,3-5H2	InChI=1S/C7H8O2/c8-7(3-4-7)2-1-6-5-9-6/h6,8H,3-5H2/t6-/m0/s1
