23
gdb 115664	2.34196	0.94216	0.72569	0.1779	95.59	-0.2362	0.0558	0.292	1673.7756	0.204385	-351.131928	-351.121212	-351.120268	-351.170628	38.037	
C	-0.0252162368	 1.59737759	-0.2011037624	-0.385925
C	-0.0533290134	 0.0816809459	-0.4208945799	-0.173528
C	-1.3245074604	-0.5710477853	 0.1183907704	 0.017942
C	-2.5909554191	-0.3635881314	-0.7656143598	-0.232244
C	-2.3994015034	-1.7857822452	-1.3514499398	-0.221177
C	-1.4536104678	-2.1191313239	-0.1533977043	-0.179268
C	-0.2662388841	-2.9160342743	-0.3881394358	 0.062022
C	 0.7245883608	-3.5704569484	-0.5970961364	 0.077161
C	 1.9164425362	-4.3692474242	-0.8463524968	-0.499036
H	 0.8916261287	 2.0391117898	-0.6038843704	 0.11062
H	-0.8723201888	 2.0917985964	-0.6889814902	 0.115015
H	-0.071902203	 1.8421130845	 0.8661124802	 0.112397
H	 0.0509638758	-0.139241656	-1.491079876	 0.0951
H	 0.814736406	-0.3797586565	 0.0644370089	 0.103466
H	-1.4461010161	-0.3012704172	 1.1728338704	 0.063875
H	-3.5046997786	-0.2788978469	-0.17100385	 0.098297
H	-2.5635671487	 0.4699486878	-1.4721541321	 0.096859
H	-3.2840627862	-2.4158169885	-1.4667120122	 0.09906
H	-1.8521452846	-1.7770816173	-2.2966124222	 0.110051
H	-2.0419496856	-2.5683453382	 0.6549138652	 0.093748
H	 2.5271018632	-4.4693140604	 0.0581441316	 0.145176
H	 1.6558242128	-5.3800378613	-1.1802431673	 0.145776
H	 2.546587843	-3.9186319496	-1.6214428611	 0.144614
5.2494	71.5273	83.5346	113.5887	151.3843	197.7773	229.2961	278.5045	310.2845	364.2902	398.9083	479.1659	528.641	654.436	734.9314	764.8616	815.3607	869.0903	910.9492	935.1343	963.8399	981.3894	995.2118	1044.5569	1052.6128	1053.9018	1075.102	1124.8082	1161.0674	1192.394	1219.1531	1240.8912	1250.4905	1265.8864	1274.0554	1300.2599	1340.2688	1354.6157	1392.8258	1411.4264	1415.1097	1478.7902	1479.5818	1481.0625	1484.0359	1498.375	1500.8657	1507.7135	2361.3674	3022.1099	3022.9561	3028.1215	3029.8119	3042.2485	3055.6474	3061.6246	3068.4877	3082.0888	3082.3757	3095.0092	3099.7695	3101.2384	3124.6539
CCC1CCC1C#CC	CC[C@H]1CC[C@H]1C#CC	
InChI=1S/C9H14/c1-3-5-9-7-6-8(9)4-2/h8-9H,4,6-7H2,1-2H3	InChI=1S/C9H14/c1-3-5-9-7-6-8(9)4-2/h8-9H,4,6-7H2,1-2H3/t8-,9+/m0/s1
