17
gdb 14361	4.34504	2.22735	1.92679	2.1537	73.18	-0.2167	0.004	0.2207	747.8848	0.145117	-326.623791	-326.618098	-326.617154	-326.653107	24.416	
C	-0.0323490128	 1.4749838472	 0.0462640936	-0.186036
N	 1.4885467221	 1.3159826421	 0.108133889	-0.181762
C	 1.1728558077	 0.1060089018	 1.0291653575	-0.258196
C	 0.1206383533	-0.0603566584	-0.1052874692	 0.290725
C	-0.8829835314	-0.915714304	-0.867341792	-0.410629
C	-0.5590194993	-0.4036984256	-2.2831493776	-0.029231
C	 0.5732252246	 0.3159673771	-2.3736825923	-0.164415
C	 1.2782503573	 0.2564758836	-1.0434111447	 0.037336
H	-0.463496765	 1.8510887496	 0.9785834544	 0.091359
H	-0.38228101	 2.0507111457	-0.8118041824	 0.106363
H	 1.9827420695	-0.6256868911	 1.0901907454	 0.102653
H	 0.8329372545	 0.4149287206	 2.0209224675	 0.101677
H	-0.7000792813	-1.9959803081	-0.79119549	 0.114359
H	-1.9277688136	-0.740934863	-0.5881724674	 0.110061
H	-1.2046443494	-0.634257643	-3.1249476129	 0.098775
H	 0.9728166119	 0.7249976437	-3.2944447302	 0.098682
H	 2.1421718819	-0.418716578	-1.0708858287	 0.078277
280.5006	288.7498	411.8898	443.2307	540.4409	605.686	690.1099	713.1084	771.4909	806.1038	836.216	888.1297	895.9635	908.9236	929.4154	966.3006	994.9553	1002.6532	1031.8853	1065.9379	1084.2711	1110.5476	1136.7775	1164.6033	1183.7978	1193.4178	1213.8403	1231.1696	1281.298	1304.6673	1351.6218	1364.8701	1470.9255	1509.4668	1546.8868	1617.8966	3020.5572	3027.3065	3051.7551	3058.9639	3068.2896	3122.5161	3129.9645	3177.2984	3204.5333
C1N2CC11CC=CC21	C1N2C[C@]31CC=C[C@@H]23	
InChI=1S/C7H9N/c1-2-6-7(3-1)4-8(6)5-7/h1-2,6H,3-5H2	InChI=1S/C7H9N/c1-2-6-7(3-1)4-8(6)5-7/h1-2,6H,3-5H2/t6-/m1/s1
