15
gdb 67354	3.00187	1.95084	1.36066	1.4968	66.	-0.2414	0.0052	0.2465	899.295	0.113624	-453.877968	-453.871131	-453.870187	-453.908916	27.648	
N	 0.1619828965	 1.4544673125	-0.0234529367	-0.622079
C	 0.0571003525	 0.0492881945	-0.0482419697	 0.24455
C	 0.0252628542	-0.8027920349	 1.2703417006	 0.010366
O	-1.4089067916	-0.5484177821	 1.4645742976	-0.327637
C	-1.2930875947	-0.8131021404	 0.0291173105	-0.027816
C	-0.299877097	-1.9653716087	 0.2984068092	 0.053122
O	 0.6751149086	-2.0357806381	-0.7422365032	-0.25232
C	 0.9224652624	-0.706311683	-1.0138820364	 0.409233
N	 1.6759778645	-0.2337965936	-1.9029272533	-0.551599
H	 0.2700772255	 1.8330941575	-0.9571966456	 0.252703
H	-0.6281069035	 1.8798698111	 0.4469642834	 0.244531
H	 0.6827226211	-0.7559896306	 2.1379396395	 0.110542
H	-2.1945589021	-0.7742398345	-0.5826461511	 0.105688
H	-0.6148647622	-2.9440547042	 0.6455984047	 0.119188
H	 2.1254566358	-0.9743866555	-2.4439182895	 0.231528
156.5614	191.6904	314.467	362.0385	382.0178	415.1244	537.4328	624.1524	634.2856	703.4201	711.9957	764.2979	818.7412	850.4081	886.8326	894.763	904.3559	922.1398	953.2845	1012.5159	1045.8868	1056.4572	1117.8752	1146.8172	1161.4178	1198.6864	1224.311	1270.8252	1326.1753	1361.8405	1425.1589	1625.0575	1809.365	3122.845	3132.6952	3191.7295	3477.7787	3522.3464	3617.2871
NC12C3OC1C3OC2=N	N[C@@]12[C@H]3O[C@@H]1[C@H]3O[C]2[NH]	
InChI=1S/C5H6N2O2/c6-4-5(7)2-1(8-4)3(5)9-2/h1-3,6H,7H2	InChI=1S/C5H6N2O2/c6-4-5(7)2-1(8-4)3(5)9-2/h1-3,6H,7H2/t1-,2-,3+,5-
