18
gdb 22940	2.55811	1.51559	1.06615	1.7805	75.52	-0.2439	0.0014	0.2454	1137.9733	0.146924	-439.050032	-439.041556	-439.040612	-439.082888	32.436	
C	-0.3537961117	 1.4355283798	-0.0238235035	-0.494726
C	 0.0746537423	-0.0017611457	-0.0268132987	 0.328098
O	-0.5985888632	-0.8951253564	 0.9008260709	-0.299147
C	 0.809684299	-0.701166337	 1.0464924119	-0.009437
C	 1.6323451374	-1.8421186421	 0.4757737377	-0.253616
C	 1.0866750842	-2.0365413878	-0.963384291	-0.321433
C	 0.3860545568	-0.733851185	-1.2893102443	 0.385997
N	 0.1085598054	-0.227273747	-2.4235091441	-0.244017
O	 0.5106536497	-1.0658633092	-3.4748069559	-0.388376
H	 0.4109814755	 2.0665417131	-0.4857222175	 0.13035
H	-1.2764254695	 1.5587969263	-0.5979972534	 0.141639
H	-0.5293968051	 1.7744463735	 0.99975025	 0.125548
H	 1.1211587769	-0.1887988827	 1.9543288781	 0.093785
H	 2.6885872755	-1.5507034423	 0.4589789834	 0.110305
H	 1.5507983303	-2.7482190825	 1.0830001618	 0.115619
H	 1.8663545125	-2.2542075107	-1.6959322524	 0.132392
H	 0.3663756376	-2.8590776891	-1.0106882584	 0.139423
H	 0.2712260965	-0.5487139952	-4.2513445547	 0.307598
100.4473	173.4292	187.5335	215.2655	232.6191	306.0309	372.9739	430.8106	454.6266	485.3811	563.3511	612.5301	685.8027	725.6714	806.0647	827.1349	866.1931	913.8183	981.064	988.7702	1013.0172	1038.3819	1086.4413	1106.1295	1130.7924	1179.7352	1234.9837	1275.4628	1308.257	1320.3815	1332.9401	1408.1442	1412.8952	1454.57	1467.0636	1479.868	1487.8545	1495.1223	1754.7829	3046.6375	3049.1484	3065.548	3092.3412	3117.2694	3117.6658	3131.9149	3138.1908	3816.9251
CC12OC1CCC2=NO	C[C@]12O[C@H]1CCC2=NO	
InChI=1S/C6H9NO2/c1-6-4(7-8)2-3-5(6)9-6/h5,8H,2-3H2,1H3	InChI=1S/C6H9NO2/c1-6-4(7-8)2-3-5(6)9-6/h5,8H,2-3H2,1H3/t5-,6+/m0/s1
