18
gdb 126636	3.2345	1.07793	0.86523	4.6125	74.37	-0.2314	0.0159	0.2473	1352.879	0.147941	-435.26801	-435.258966	-435.258021	-435.302964	32.299	
C	-0.0191306294	 1.5494515954	-0.0242661559	-0.382531
C	 0.003130083	 0.0216770201	 0.0597439796	-0.179646
C	-1.408233042	-0.57298975	 0.0008345532	-0.145532
N	-1.4127290286	-2.0252778055	 0.0481454541	 0.005812
N	-1.4715020133	-2.7698304434	-1.0921295052	-0.163845
N	-1.4218384286	-4.0201775687	-0.7448516384	-0.18285
C	-1.3252042336	-4.1166055867	 0.610748668	-0.189747
C	-1.316891833	-2.8380646912	 1.1214699967	 0.36349
O	-1.2417567928	-2.298323636	 2.3563712923	-0.43002
H	 0.9939801437	 1.9584037191	 0.0224302873	 0.122396
H	-0.4726368996	 1.8901039962	-0.9614115444	 0.122845
H	-0.5925115241	 1.9863284768	 0.800877964	 0.118977
H	 0.5914159203	-0.3975734371	-0.763830915	 0.123713
H	 0.484817255	-0.2972434391	 0.991091835	 0.114457
H	-2.0166964318	-0.2049779462	 0.8331950574	 0.128867
H	-1.9063435448	-0.3008563688	-0.9330219706	 0.141213
H	-1.2742065405	-5.0642307341	 1.1217011214	 0.114448
H	-1.2198898198	-3.0079495409	 3.0062442904	 0.317953
33.8561	85.511	100.8441	239.4962	255.758	267.9843	281.1882	310.6152	391.7939	470.169	685.37	705.7314	714.719	752.3942	781.045	786.0774	876.6689	904.7613	987.5242	1044.4383	1056.8412	1116.9615	1127.7245	1169.1175	1223.3503	1284.1068	1290.0101	1317.7108	1332.1163	1355.7912	1371.5091	1404.6978	1416.8481	1473.1199	1493.2091	1501.5012	1509.5808	1550.549	1622.1426	3033.3497	3040.2531	3059.2196	3074.8725	3100.6658	3112.1747	3120.897	3265.0363	3839.457
CCCN1N=NC=C1O	CCCn1nncc1O	
InChI=1S/C5H9N3O/c1-2-3-8-5(9)4-6-7-8/h4,9H,2-3H2,1H3	InChI=1S/C5H9N3O/c1-2-3-8-5(9)4-6-7-8/h4,9H,2-3H2,1H3
