20
gdb 97382	2.78972	1.00608	0.84897	2.1589	80.16	-0.2382	0.0232	0.2614	1448.2361	0.167262	-440.258906	-440.248611	-440.247667	-440.294313	37.266	
C	 2.3743529042	-3.3062793102	-2.4345017532	-0.315725
N	 1.4867668843	-2.704314225	-1.4609631817	-0.20858
C	 1.6718502146	-2.9961294083	-0.2533074953	 0.111674
O	 0.8581709707	-2.4742040978	 0.7035828975	-0.256126
C	 1.1907889629	-2.8062352923	 2.0418736732	 0.363121
C	 2.3981790438	-2.0886537658	 2.5914241203	-0.455623
C	-0.036253474	-3.0324236424	 2.8958961741	-0.39243
C	 0.7996947636	-4.2094599321	 2.4517144716	 0.08871
O	 0.336837804	-5.1228320067	 1.5066471214	-0.425849
H	 3.1410101468	-3.9659792764	-1.9964563169	 0.098328
H	 1.7889878121	-3.8909201026	-3.1533023644	 0.128534
H	 2.8813032261	-2.5191835014	-3.0041509945	 0.128402
H	 2.4494841877	-3.6710890202	 0.1291005113	 0.093886
H	 2.2415781135	-1.0049446067	 2.5707441406	 0.135856
H	 2.5789731056	-2.3882110753	 3.6277234272	 0.124557
H	 3.3014067142	-2.3146445339	 2.0149745164	 0.123147
H	-0.0087159093	-2.720483619	 3.9344350358	 0.119217
H	-0.9927465532	-2.8914528388	 2.4029518924	 0.129045
H	 1.4127086693	-4.7171152918	 3.1894001381	 0.111888
H	-0.1839551565	-4.6416080132	 0.8535026262	 0.297967
52.8426	105.394	127.2751	199.318	203.0431	211.4836	247.6254	286.3061	312.7653	354.2673	369.0374	451.3587	460.4417	526.1562	608.9468	771.0348	804.8849	874.3445	928.3365	971.3987	980.6933	1032.7273	1044.0631	1060.0897	1104.6563	1132.358	1141.7627	1145.6392	1165.493	1214.0997	1254.7076	1298.0137	1341.0403	1396.0024	1418.0169	1434.5173	1450.0923	1479.9313	1481.2067	1483.1329	1501.7195	1504.5059	1776.5097	2970.4447	3027.5613	3034.3251	3059.9045	3078.7275	3099.39	3114.3795	3130.5504	3167.6537	3221.7388	3807.4846
CN=COC1(C)CC1O	CN=CO[C@@]1(C)C[C@H]1O	
InChI=1S/C6H11NO2/c1-6(3-5(6)8)9-4-7-2/h4-5,8H,3H2,1-2H3	InChI=1S/C6H11NO2/c1-6(3-5(6)8)9-4-7-2/h4-5,8H,3H2,1-2H3/t5-,6+/m1/s1
