20
gdb 63929	3.12963	1.42472	1.24106	2.2684	79.92	-0.2076	0.0181	0.2257	1085.4323	0.171055	-403.131428	-403.123127	-403.122183	-403.164049	32.84	
C	-0.8841712028	 1.4325279526	-0.0067622001	-0.459334
C	-0.1850141447	 0.0823759857	-0.0176800298	 0.392437
O	-1.1165223248	-0.9766988174	-0.1657816142	-0.479888
C	 1.0739446689	-0.0580361574	-0.9250500754	-0.221139
N	 1.8558304992	-0.6285911235	 0.1998153735	-0.094028
C	 3.0714330312	 0.1022301946	 0.588086358	-0.223309
C	 2.6205427573	 1.0337023955	 1.692888305	-0.079939
C	 1.3432148386	 0.8214983666	 2.0086903679	-0.091019
C	 0.7655816798	-0.2799259381	 1.1650352513	-0.046062
H	-0.1821247059	 2.2434649995	 0.2034788221	 0.123784
H	-1.3450051767	 1.6329945443	-0.9827099386	 0.105261
H	-1.6750586599	 1.446884635	 0.7498426223	 0.123677
H	-1.6306374286	-0.8120571837	-0.9637831027	 0.274675
H	 0.955466145	-0.7435106598	-1.7716268195	 0.095124
H	 1.4612844229	 0.9028517468	-1.2929834831	 0.084912
H	 3.8579717745	-0.5814624677	 0.9413964779	 0.10711
H	 3.4918041752	 0.6357970591	-0.2763770039	 0.101946
H	 3.2833248963	 1.7438696592	 2.1746385922	 0.097993
H	 0.7887861245	 1.3276543939	 2.7902306759	 0.100472
H	 0.3833954104	-1.1214780253	 1.7563565314	 0.087326
67.7245	176.0395	241.5378	257.8719	301.871	324.1839	368.9691	385.0012	437.5222	520.4312	599.933	699.3986	734.8036	790.8731	819.6705	889.1695	911.4032	934.7867	945.5149	962.4606	963.5922	992.2577	1032.0438	1068.4818	1096.7157	1113.0946	1126.2249	1171.2761	1206.0829	1211.2905	1234.1631	1256.7386	1299.6947	1307.1635	1338.1527	1356.2995	1375.0326	1405.4455	1485.6405	1490.202	1497.1146	1504.7098	1670.3385	2985.8123	2994.2339	3016.4514	3021.5581	3025.9818	3057.0221	3089.5195	3120.5848	3188.5672	3213.7914	3800.096
CC1(O)CN2CC=CC12	C[C@@]1(O)CN2CC=C[C@@H]12	
InChI=1S/C7H11NO/c1-7(9)5-8-4-2-3-6(7)8/h2-3,6,9H,4-5H2,1H3	InChI=1S/C7H11NO/c1-7(9)5-8-4-2-3-6(7)8/h2-3,6,9H,4-5H2,1H3/t6-,7+/m0/s1
