19
gdb 69404	3.10342	1.19181	1.14621	0.7791	86.79	-0.2343	0.0126	0.2469	1184.6802	0.158574	-348.721029	-348.712556	-348.711612	-348.753776	33.422	
C	-0.071675848	 1.5631673064	 0.0141411385	-0.486185
C	 0.0227096976	 0.0558232913	-0.0014230922	 0.333516
C	-0.81753268	-0.789559517	 0.9413690935	-0.336858
C	 0.6818706272	-0.7702741111	 1.0923006378	-0.082898
C	 1.4857437298	-1.9023471506	 0.4264274343	-0.222861
C	 1.1486459813	-1.7274003647	-1.0534621239	-0.096404
C	 0.3833474309	-0.6571426775	-1.2660422052	-0.13696
C	 2.9222927209	-1.818118464	 0.6850057941	 0.318853
C	 4.1034495844	-1.7424178122	 0.8963319895	-0.466235
H	 0.8586800648	 2.0242378472	-0.3351922707	 0.123607
H	-0.8834495055	 1.9161418958	-0.6328604138	 0.117346
H	-0.2714904538	 1.9340389975	 1.0241863817	 0.116617
H	-1.3878235386	-0.2699240763	 1.7057372788	 0.10662
H	-1.2976498238	-1.6790795094	 0.5456138731	 0.109757
H	 1.1072108062	-0.2954537754	 1.9679902064	 0.096186
H	 1.1335972592	-2.8815421323	 0.7824434667	 0.112151
H	 1.5021712609	-2.4250514461	-1.8026812385	 0.10479
H	 0.0213649165	-0.3317641376	-2.2358093332	 0.096018
H	 5.1469456103	-1.6793909441	 1.0817346329	 0.192939
88.1283	141.6502	191.6413	241.1183	279.0615	328.6222	405.027	417.626	494.8059	570.0705	599.539	612.8783	637.5642	742.0739	767.878	783.2544	819.9655	851.5151	940.4719	949.8872	962.6889	975.8508	1008.5475	1041.5037	1061.8377	1083.9663	1110.8794	1116.0118	1138.7571	1233.5353	1262.5693	1275.0858	1306.3123	1347.2027	1401.8664	1419.3368	1482.8024	1488.124	1500.1853	1671.7294	2233.3584	2997.3802	3024.9232	3084.7999	3101.8343	3117.1241	3182.0798	3186.0511	3205.8881	3216.1435	3504.6827
CC12CC1C(C=C2)C#C	C[C@]12C[C@H]1[C@@H](C=C2)C#C	
InChI=1S/C9H10/c1-3-7-4-5-9(2)6-8(7)9/h1,4-5,7-8H,6H2,2H3	InChI=1S/C9H10/c1-3-7-4-5-9(2)6-8(7)9/h1,4-5,7-8H,6H2,2H3/t7-,8+,9+/m1/s1
