16
gdb 131538	3.88909	1.37846	1.1671	5.5958	70.16	-0.2459	0.0091	0.255	1034.7891	0.127497	-434.068169	-434.061122	-434.060177	-434.099925	26.994	
O	-0.0695503062	 1.4079706598	-0.0343520218	-0.424562
C	 0.0010063254	-0.005348274	 0.0185871199	 0.106942
C	 0.5773956485	-0.5039992838	 1.3775249069	-0.194341
N	-0.6340407573	-0.7001650963	 2.1515230538	 0.068703
N	-0.8396841823	-0.9001045812	 3.4599455478	-0.17843
N	-2.133983142	-1.0479130944	 3.6032462167	-0.191037
C	-2.7466718596	-0.946922438	 2.3858592941	-0.22182
C	-1.7791625163	-0.7191837252	 1.4353412428	 0.360567
C	-1.4692007815	-0.5169143991	-0.0146226738	-0.363133
H	 0.8255794129	 1.7620947209	-0.0246190079	 0.289728
H	 0.5879564752	-0.4010992242	-0.8200247869	 0.082914
H	 1.1268073672	-1.4463429701	 1.2750397114	 0.131502
H	 1.2299688514	 0.2376426683	 1.8443652253	 0.135391
H	-3.8158106285	-1.0360526876	 2.2868104438	 0.122008
H	-2.0997386727	 0.2264065465	-0.5063949784	 0.147611
H	-1.5477746741	-1.4531030216	-0.5782675736	 0.127957
75.327	194.4247	235.2344	306.3618	377.1562	389.5265	478.0387	653.6851	660.667	708.9498	742.4058	811.9234	836.8768	875.1651	897.6045	952.4364	1006.	1020.1124	1099.9519	1125.4966	1131.3952	1183.756	1203.0442	1231.1784	1262.5895	1268.35	1295.295	1330.9892	1347.9548	1357.8998	1417.6599	1471.2273	1482.1667	1513.1064	1585.4585	3018.1105	3047.3993	3052.9031	3108.3365	3115.8755	3274.6845	3817.8745
OC1CN2N=NC=C2C1	O[C@H]1Cn2nncc2C1	
InChI=1S/C5H7N3O/c9-5-1-4-2-6-7-8(4)3-5/h2,5,9H,1,3H2	InChI=1S/C5H7N3O/c9-5-1-4-2-6-7-8(4)3-5/h2,5,9H,1,3H2/t5-/m1/s1
