18
gdb 87664	3.2737	1.28758	1.06988	4.0641	84.32	-0.2254	-0.0313	0.194	1169.4236	0.147909	-401.962037	-401.953962	-401.953018	-401.994588	31.327	
C	-0.0397961657	 1.5289962334	 0.0862985023	-0.404721
C	 0.038561315	 0.0204756335	 0.023691329	-0.071598
C	 1.3582457847	-0.6804696598	-0.1965774331	-0.353578
C	 0.6870560801	-0.7542344052	 1.1557533492	 0.406183
O	 1.2711337362	-0.0170895008	 2.2089640488	-0.251351
C	 1.0950227962	-0.695300283	 3.3905735154	 0.3658
N	 1.5412573581	-0.1970064599	 4.4679037539	-0.530952
C	 0.3693253832	-1.9389896799	 3.077678295	-0.211386
C	 0.1324610049	-1.9730959705	 1.7622425884	-0.15422
H	 0.8256790891	 1.945368394	 0.6063895789	 0.144214
H	-0.0766110231	 1.9546343971	-0.9219994857	 0.119568
H	-0.9367757809	 1.8533193373	 0.6234595364	 0.125954
H	-0.8301635931	-0.4672359967	-0.4120638439	 0.093393
H	 1.3954439801	-1.5784002631	-0.8036875863	 0.119927
H	 2.2490689402	-0.0625073948	-0.2348703765	 0.137754
H	 1.3332917354	-0.8188251869	 5.2468724798	 0.219081
H	 0.0958278702	-2.669565014	 3.8253699489	 0.119296
H	-0.3785110006	-2.7395637508	 1.1948074996	 0.126635
100.7224	152.3097	183.4907	193.9264	296.9641	351.1808	429.5122	475.0376	522.7485	566.6651	696.3735	721.8724	778.3184	803.0411	843.1852	858.9897	890.258	903.9163	925.1388	947.7888	969.3127	1016.1523	1055.5596	1056.682	1083.4724	1114.4557	1133.5862	1190.2194	1240.5407	1283.7348	1336.3833	1372.7265	1411.5889	1430.877	1476.0095	1493.1	1502.408	1636.2812	1740.2402	3039.3368	3099.9419	3124.0226	3131.7284	3141.2298	3220.9906	3224.4562	3247.6512	3510.359
CC1CC11OC(=N)C=C1	C[C@H]1C[C@]21OC(=C[CH]2)[NH]	
InChI=1S/C7H9NO/c1-5-4-7(5)3-2-6(8)9-7/h2-3,5,8H,4H2,1H3	InChI=1S/C7H9NO/c1-5-4-7(5)3-2-6(8)9-7/h2-3,5,8H,4H2,1H3/t5-,7+/m0/s1
