19
gdb 27758	2.20778	1.77778	1.00851	1.367	86.27	-0.1643	0.0522	0.2165	1188.8869	0.160626	-382.07194	-382.06301	-382.062066	-382.105806	32.871	
C	-0.0987101481	 1.54977483	-0.0390493133	-0.494898
C	 0.0696645761	 0.0672887349	-0.0665808945	 0.247745
C	 0.0285090655	-0.8316987878	-1.1274444113	-0.272496
C	 0.2427366735	-2.1693289598	-0.6505502616	 0.075493
N	 0.3854390558	-3.3210140414	-1.4541239659	-0.609713
C	 0.3584053698	-2.0405584199	 0.7151725013	 0.24924
C	 0.866506732	-2.4193644042	 2.0968614988	-0.374167
C	 0.7998354221	-0.8735132594	 2.3946173561	-0.17062
N	 0.2274783704	-0.7093050756	 1.0452876765	-0.044987
H	 0.7406520263	 2.0504914596	 0.4603381848	 0.120272
H	-0.1530585665	 1.9381397851	-1.0589883118	 0.131211
H	-1.013590439	 1.8572734195	 0.4831059668	 0.125157
H	-0.1755982296	-0.5614087195	-2.1548814506	 0.076476
H	-0.1473104446	-3.2469614577	-2.3120703968	 0.236531
H	 0.0899670354	-4.1604666621	-0.9717446466	 0.235581
H	 0.2056515187	-3.0316349547	 2.7186885092	 0.110791
H	 1.8765220541	-2.8368955085	 2.1418615371	 0.119452
H	 0.1369836275	-0.5563599253	 3.2050232359	 0.116205
H	 1.7792654506	-0.4006677029	 2.5157044658	 0.122727
76.6537	105.7071	141.2706	172.2991	222.8066	244.5621	272.0977	368.3286	571.7805	590.1527	617.0872	643.0382	667.2606	720.8889	748.104	796.8713	807.1736	907.2225	941.6268	1004.2721	1041.9062	1058.9117	1061.1547	1135.096	1163.6159	1184.6826	1206.3075	1222.617	1234.0338	1282.6076	1354.4973	1414.2704	1421.5276	1444.4107	1479.0065	1490.5105	1506.4774	1514.9613	1540.1577	1649.2534	1662.3434	3013.4438	3042.2532	3047.4044	3055.2872	3082.7332	3100.3347	3117.5958	3219.3996	3527.1354	3613.3901
CC1=CC(N)=C2CCN12	Cc1cc(N)c2CCn12	
InChI=1S/C7H10N2/c1-5-4-6(8)7-2-3-9(5)7/h4H,2-3,8H2,1H3	InChI=1S/C7H10N2/c1-5-4-6(8)7-2-3-9(5)7/h4H,2-3,8H2,1H3
