22
gdb 10227	2.27516	1.15617	0.81931	2.0082	74.97	-0.2533	0.0722	0.3254	1447.8911	0.198345	-387.33615	-387.325576	-387.324632	-387.372143	37.225	
C	 2.1597168966	 1.6012104316	 0.7818358964	-0.378428
C	 2.1570157874	 0.0699489405	 0.8078636016	-0.174534
C	 0.7911020343	-0.5130311897	 1.191286165	-0.178871
C	 0.7148072272	-2.0491931813	 1.2069477138	 0.006691
C	 1.4259980045	-2.6556192346	 2.4168271464	-0.090023
O	 1.4784572311	-4.0670484063	 2.2449750798	-0.424586
C	-0.7448131486	-2.5300822216	 1.15566209	-0.078771
O	-1.4277949902	-2.1137791875	-0.020047038	-0.421278
H	 1.912238464	 2.0143324542	 1.7661788994	 0.112504
H	 3.1389527673	 1.9954465589	 0.4923766926	 0.109249
H	 1.4208041661	 1.9849667608	 0.0696828731	 0.115995
H	 2.4450777638	-0.3129897655	-0.180201421	 0.094328
H	 2.9304833476	-0.2790832271	 1.5034737716	 0.093834
H	 0.4906399311	-0.1263462528	 2.1766396004	 0.084583
H	 0.0373229796	-0.1539246701	 0.48172713	 0.112691
H	 1.2232525826	-2.4394275717	 0.3115979812	 0.068065
H	 2.4386106751	-2.236475647	 2.509279126	 0.088448
H	 0.876362586	-2.3875808409	 3.3352719373	 0.084669
H	 1.8867828116	-4.4514657544	 3.0257871081	 0.286978
H	-0.7760368499	-3.620371801	 1.2724327845	 0.107247
H	-1.3050495099	-2.0904726316	 1.9903760434	 0.100783
H	-1.033878997	-2.5801854329	-0.7641816116	 0.280424
65.1959	88.4546	95.2702	121.0271	183.7125	218.3177	246.0449	260.4528	272.814	311.4356	331.7515	427.1265	498.0337	537.0691	742.2554	834.3611	869.5032	890.6017	938.1117	990.8504	1036.619	1058.6567	1067.2338	1080.1358	1114.1886	1135.4268	1143.9315	1204.3215	1237.5136	1265.0472	1291.4477	1312.4645	1323.6644	1346.2174	1366.2571	1397.3636	1401.9314	1412.628	1414.8247	1455.1579	1486.5602	1495.74	1499.7808	1509.8691	1511.6436	1519.9685	2957.6889	2987.7244	3001.4462	3006.5069	3019.9593	3022.2334	3028.947	3044.3018	3066.4996	3072.1326	3096.1798	3100.7892	3815.3846	3832.8188
CCCC(CO)CO	CCCC(CO)CO	
InChI=1S/C6H14O2/c1-2-3-6(4-7)5-8/h6-8H,2-5H2,1H3	InChI=1S/C6H14O2/c1-2-3-6(4-7)5-8/h6-8H,2-5H2,1H3
