17
gdb 10508	2.55616	1.81368	1.35104	2.8727	64.88	-0.2513	0.0215	0.2727	964.3067	0.141196	-401.002402	-400.993688	-400.992744	-401.036084	31.143	
O	-0.1318632345	 1.4033511829	-0.8882927527	-0.42011
C	-0.028011526	 0.1666483411	-0.1987680414	-0.133953
C	-1.376261598	-0.4939413948	 0.0233570752	 0.348598
C	-1.985439618	-1.3273507318	-1.0720565474	-0.319725
C	-1.4356661035	-1.9924710446	 0.1662500617	-0.276778
N	-2.2976723758	 0.2916869991	 0.8083980546	-0.346317
C	-2.1935580015	 0.4492647061	 2.1587025668	 0.139387
O	-1.3308346339	-0.0405307979	 2.8537544711	-0.316013
H	-0.5333387958	 2.0333808441	-0.2816920925	 0.281127
H	 0.5939594183	-0.4824184861	-0.8231881138	 0.106432
H	 0.4741815228	 0.2865828172	 0.770515174	 0.121903
H	-3.0634028521	-1.2992150831	-1.1916883399	 0.11242
H	-1.4331778862	-1.4084495016	-2.0014812339	 0.127111
H	-0.5031528402	-2.5410090267	 0.0924372299	 0.122421
H	-2.1382866558	-2.3940795424	 0.8856413452	 0.12799
H	-3.0418094591	 0.7766965851	 0.3312054131	 0.250727
H	-3.0056160108	 1.0909769935	 2.55880137	 0.074781
50.5078	98.7431	166.4284	191.7233	220.8075	279.5754	334.2978	350.9613	418.6651	505.4822	565.4034	712.346	770.9017	825.7252	900.2931	920.1509	950.4031	1001.3078	1033.4338	1040.3639	1054.0827	1073.8866	1084.7672	1167.1087	1185.4364	1211.2354	1314.4152	1342.8666	1386.2702	1417.7348	1431.1211	1462.1303	1493.2979	1499.427	1504.5678	1808.5209	2921.144	3020.1082	3084.6903	3134.2602	3146.5375	3218.0122	3237.5119	3620.1295	3821.1305
OCC1(CC1)NC=O	OCC1(CC1)NC=O	
InChI=1S/C5H9NO2/c7-3-5(1-2-5)6-4-8/h4,7H,1-3H2,(H,6,8)	InChI=1S/C5H9NO2/c7-3-5(1-2-5)6-4-8/h4,7H,1-3H2,(H,6,8)
