20
gdb 60036	2.09654	1.11717	0.76868	2.1352	77.97	-0.2378	-0.0547	0.1831	1488.1734	0.166898	-440.296053	-440.285559	-440.284615	-440.332439	36.884	
C	-0.3500243237	 1.5418804377	 0.2530818277	-0.376683
C	 0.1177207767	 0.0919582366	 0.0909344951	 0.07996
C	 0.8835318019	-0.3830530108	 1.3260811924	-0.405469
N	-1.0259086028	-0.8023499813	-0.1233045851	-0.316659
C	-1.6946907526	-0.7001665527	-1.3912309567	-0.148914
C	-2.0267366431	-2.0783168162	-1.9686755396	 0.149246
O	-1.6354755801	-3.1054573026	-1.4807291889	-0.242575
C	-3.0056190192	 0.09911879	-1.3287251673	 0.143833
O	-3.6317147133	 0.421565394	-2.3032519553	-0.246782
H	 0.5070320494	 2.2058774275	 0.4018751566	 0.116836
H	-0.8880405505	 1.8991781229	-0.6314320005	 0.115143
H	-1.0167627557	 1.6329928175	 1.1166167146	 0.122704
H	 0.8062128582	 0.0552660092	-0.7754074039	 0.061071
H	 0.23629368	-0.361372497	 2.2088155085	 0.127228
H	 1.2484004187	-1.40773915	 1.195935992	 0.117171
H	 1.7483275414	 0.2590758073	 1.5148998216	 0.118736
H	-0.7555099377	-1.7721300861	 0.0147206796	 0.235845
H	-1.0924847977	-0.2174422047	-2.1852800967	 0.120082
H	-2.6594586404	-2.048289274	-2.8765268333	 0.123463
H	-3.3297008395	 0.3241719626	-0.2904967109	 0.105764
48.7829	64.4888	109.5218	145.412	171.2488	224.2337	245.0198	256.3054	281.0035	339.5701	410.8843	441.2162	483.3248	586.6333	690.3019	752.1598	840.9586	860.522	885.8693	930.0681	960.5065	1001.9321	1041.6746	1085.1246	1127.9751	1176.21	1195.7311	1208.2012	1223.9388	1298.5221	1360.5485	1369.2164	1381.3076	1399.4066	1402.0977	1417.4124	1478.6173	1487.2693	1496.9236	1508.8116	1516.6362	1803.8509	1840.5556	2905.9818	2916.2503	2925.2845	2958.7822	3031.6988	3035.921	3099.134	3102.2163	3110.8833	3118.6306	3504.9595
CC(C)NC(C=O)C=O	CC(C)NC(C=O)C=O	
InChI=1S/C6H11NO2/c1-5(2)7-6(3-8)4-9/h3-7H,1-2H3	InChI=1S/C6H11NO2/c1-5(2)7-6(3-8)4-9/h3-7H,1-2H3
