18
gdb 94280	3.10183	1.50389	1.23018	1.2822	71.6	-0.2281	0.0686	0.2968	1037.7867	0.147877	-438.977052	-438.969378	-438.968434	-439.009271	30.293	
O	 0.2294935199	 1.3938448377	-0.1242684178	-0.434886
C	 0.1371985812	-0.0028844004	 0.0323853546	 0.036432
C	 0.1947118678	-0.5396930622	 1.4916289495	-0.214732
N	-1.2798331435	-0.6672279641	 1.4602230581	-0.38115
C	-1.2964287501	-0.5909278633	 0.0090149367	 0.419039
C	-2.539529383	-0.1210995712	-0.7851095666	-0.02745
C	-1.9461972941	-0.7424189788	-2.0673875528	-0.229818
C	-1.7832050467	-1.7517982539	-0.9094480886	-0.053427
O	-3.1669015489	-1.4378600437	-0.473456982	-0.32968
H	-0.392809123	 1.7980609499	 0.4913134414	 0.290325
H	 0.8509130452	-0.4354464144	-0.6705352181	 0.093678
H	 0.7453565469	-1.486780451	 1.5733092614	 0.095876
H	 0.5767032412	 0.1616569526	 2.2413238557	 0.10144
H	-1.7158064435	-1.4747801171	 1.8881248177	 0.228004
H	-3.1559557674	 0.7686421299	-0.6569303732	 0.09318
H	-2.6877183783	-1.0313895758	-2.81191042	 0.110523
H	-1.0533177144	-0.2849210153	-2.4992227135	 0.110263
H	-1.4914992892	-2.8030805189	-0.9335165627	 0.092383
82.2156	146.8598	200.2189	300.5055	342.8544	382.4509	464.8165	479.4244	562.4609	654.8694	688.4945	758.9368	809.2799	843.0733	877.3161	889.3917	909.5755	970.6442	986.5997	1013.1801	1039.4874	1047.4523	1087.1784	1123.3726	1130.7481	1158.0398	1168.8863	1174.9127	1190.1041	1208.7696	1223.1879	1267.4315	1292.6919	1302.4714	1318.0439	1384.0896	1439.1443	1484.2221	1516.1839	3004.2651	3065.128	3073.4942	3103.1927	3106.3163	3122.7811	3157.9627	3558.9893	3798.9479
OC1CNC11C2CC1O2	O[C@H]1CN[C@]21[C@H]1C[C@@H]2O1	
InChI=1S/C6H9NO2/c8-3-2-7-6(3)4-1-5(6)9-4/h3-5,7-8H,1-2H2	InChI=1S/C6H9NO2/c8-3-2-7-6(3)4-1-5(6)9-4/h3-5,7-8H,1-2H2/t3-,4-,5+,6-/m0/s1
