21
gdb 122659	5.06624	0.69626	0.64524	1.1047	82.27	-0.2333	0.0162	0.2496	1774.5739	0.181549	-424.216204	-424.206562	-424.205618	-424.251999	34.049	
C	-0.1469949577	 1.3543027242	 0.0780747964	-0.226641
O	-0.0471184525	-0.0473949286	 0.0365044984	-0.232895
C	 0.6737308562	-0.5767072661	 1.1295845419	-0.051383
C	 0.6873608706	-2.0945614022	 1.0072431855	-0.208621
C	 1.4912921195	-2.7635553881	 2.1266444033	 0.0836
O	 0.9365373054	-2.4304364544	 3.4068426365	-0.278346
C	 0.6313476105	-3.6107242285	 4.1445217933	-0.114128
C	 0.9771350804	-4.747359838	 3.2243565482	-0.096426
C	 1.4707169999	-4.2689701274	 2.0891449845	-0.093536
H	 0.8431139801	 1.8377656447	 0.0469840404	 0.100077
H	-0.7197397326	 1.6698086495	-0.7977822123	 0.123257
H	-0.6656601844	 1.7021478624	 0.9859693108	 0.102458
H	 1.7065010644	-0.1835109782	 1.1340012121	 0.077882
H	 0.2106218612	-0.2805746261	 2.0832969389	 0.10517
H	-0.3411130336	-2.4708738871	 1.0243493741	 0.107467
H	 1.1224241337	-2.3697223777	 0.0386646727	 0.100244
H	 2.52832672	-2.3843956035	 2.08676901	 0.078475
H	 1.2187353169	-3.6355573752	 5.0768933146	 0.103936
H	-0.430982195	-3.606667029	 4.4339563577	 0.106658
H	 0.8369135315	-5.787828416	 3.4885559257	 0.106645
H	 1.8166686456	-4.8377730547	 1.2354405772	 0.106106
54.4776	71.8731	95.2713	116.7583	144.7093	233.1356	263.2959	296.9769	386.9315	453.9717	547.3715	711.3422	753.335	792.7192	819.0928	879.5901	933.0699	959.231	973.5923	1018.4042	1028.4055	1046.5406	1078.3654	1110.2191	1128.92	1133.3936	1164.8811	1182.8685	1199.4113	1222.8857	1237.1267	1277.1781	1309.1082	1323.0077	1359.4317	1383.14	1388.057	1424.9844	1480.2116	1481.3758	1484.654	1505.5362	1522.4258	1534.0361	1692.6676	2934.8603	2943.2827	2965.737	2970.3347	2991.0843	3003.2879	3007.1157	3036.8674	3087.0422	3109.5025	3206.5893	3231.2047
COCCC1OCC=C1	COCC[C@H]1OCC=C1	
InChI=1S/C7H12O2/c1-8-6-4-7-3-2-5-9-7/h2-3,7H,4-6H2,1H3	InChI=1S/C7H12O2/c1-8-6-4-7-3-2-5-9-7/h2-3,7H,4-6H2,1H3/t7-/m0/s1
