20
gdb 23040	3.55327	0.95472	0.81478	1.2622	78.17	-0.2414	0.01	0.2514	1424.3605	0.17024	-440.251682	-440.241988	-440.241043	-440.287958	34.309	
C	 0.0310263442	 1.5117136628	 0.0010316573	-0.472877
C	 0.0191055993	 0.0059042866	 0.0617551337	 0.337479
N	 0.0761195527	-0.6549516972	 1.1545444048	-0.167762
O	 0.1270578354	 0.1939919258	 2.2725003123	-0.400594
C	-0.0744248399	-0.7678682271	-1.2268844382	-0.069922
C	 0.0347082849	-2.301176535	-1.1383099608	-0.258584
C	-0.7847894522	-2.7915880891	-2.3554241583	-0.079188
O	-1.4297846141	-1.6470472772	-2.9219628373	-0.25117
C	-1.4285828398	-0.6161613736	-1.9561134032	-0.082745
H	 0.8472640166	 1.9096713375	 0.6105653231	 0.150268
H	 0.1385466248	 1.8679467297	-1.0253949104	 0.119393
H	-0.8960101627	 1.9205503559	 0.4181492747	 0.147468
H	 0.2001629075	-0.4340011623	 2.9987385157	 0.305555
H	 0.697458918	-0.3830827669	-1.907316683	 0.088014
H	 1.0717466269	-2.6422779112	-1.1637584668	 0.107904
H	-0.4004633459	-2.646912724	-0.1991866603	 0.126907
H	-0.1627534225	-3.2374608157	-3.1385446	 0.105091
H	-1.534501256	-3.536957502	-2.0555071406	 0.096111
H	-2.2568353647	-0.7311727972	-1.2357843254	 0.090239
H	-1.5524523225	 0.3363662504	-2.4787006073	 0.108411
37.9408	49.7737	65.3084	145.8586	162.352	257.0555	301.1583	369.4693	394.5083	428.143	507.2339	570.3455	693.4356	702.1974	820.8292	848.686	921.2085	934.5195	963.6643	985.1	1013.713	1025.3036	1036.2953	1089.7851	1109.4124	1142.6228	1215.0198	1227.6141	1243.7612	1263.6912	1291.4667	1301.5072	1353.0491	1373.976	1400.335	1400.7547	1410.8654	1474.43	1484.4436	1499.8208	1514.5387	1533.7123	1725.1589	2957.4892	3004.3476	3014.0932	3042.462	3062.1868	3081.7734	3087.7546	3102.1022	3129.1301	3134.1943	3821.3214
CC(=NO)C1CCOC1	CC(=NO)[C@H]1CCOC1	
InChI=1S/C6H11NO2/c1-5(7-8)6-2-3-9-4-6/h6,8H,2-4H2,1H3	InChI=1S/C6H11NO2/c1-5(7-8)6-2-3-9-4-6/h6,8H,2-4H2,1H3/t6-/m0/s1
