19
gdb 81229	2.57134	1.85032	1.44147	2.0399	74.8	-0.2461	0.0617	0.3078	963.5994	0.161251	-422.951372	-422.944254	-422.943309	-422.982401	29.694	
O	-0.0525587133	 1.4159259636	-0.0577059411	-0.455748
C	 0.0112756815	 0.0074944624	 0.0089218219	 0.147024
C	 0.0520885502	-0.631938704	 1.4261068149	-0.080145
C	-1.4847558306	-0.2289595628	 1.5188822335	-0.34489
C	-1.4125072475	-0.5954803609	 0.0121976775	 0.27088
C	-2.0480627578	-0.9197586613	-1.3491056329	-0.224135
O	-1.2191396845	-2.132399018	-1.4005264653	-0.317236
C	-1.1274798938	-2.0792844248	 0.0573730429	 0.150094
C	 0.1125981843	-2.1290195759	 0.9892335845	-0.295169
H	 0.827084024	 1.7609895498	 0.1234894496	 0.284067
H	 0.7175454401	-0.3926537965	-0.7293849102	 0.071678
H	 0.7580959603	-0.2938793967	 2.1867072832	 0.062726
H	-2.1456997997	-0.8319465543	 2.1464720805	 0.094493
H	-1.5921070191	 0.8311305174	 1.7386096615	 0.122745
H	-3.1146701607	-1.1770997919	-1.3240301017	 0.103065
H	-1.8377754485	-0.2418049788	-2.1803360724	 0.118635
H	-1.9539875317	-2.6737794056	 0.4703643138	 0.073069
H	 1.0529178402	-2.3565796625	 0.4789650334	 0.116538
H	-0.0173955833	-2.8442679392	 1.8048826065	 0.102309
188.6431	247.21	283.6172	298.7136	357.759	408.2089	426.8185	539.5656	577.7534	635.547	747.6121	793.8025	814.7726	868.6375	894.0539	913.8155	924.472	954.0787	994.2107	1013.1651	1043.738	1060.5719	1073.597	1094.2076	1143.4769	1156.3495	1162.2423	1189.8659	1206.3751	1217.9673	1254.0766	1258.9733	1277.3535	1295.0931	1325.5971	1343.7452	1393.5837	1428.2768	1484.9376	1499.0903	1511.3193	2999.1829	3022.0421	3023.458	3061.6368	3074.2591	3100.0143	3103.1104	3110.1245	3163.4364	3820.6748
OC1C2CC11COC1C2	O[C@H]1[C@H]2C[C@]31CO[C@H]3C2	
InChI=1S/C7H10O2/c8-6-4-1-5-7(6,2-4)3-9-5/h4-6,8H,1-3H2	InChI=1S/C7H10O2/c8-6-4-1-5-7(6,2-4)3-9-5/h4-6,8H,1-3H2/t4-,5+,6+,7+/m1/s1
