14
gdb 71544	2.63484	1.5691	1.46419	4.4561	67.15	-0.2571	-0.012	0.2451	942.538	0.099938	-436.59634	-436.589064	-436.58812	-436.627997	28.028	
O	 0.1641323612	 1.3355239477	 0.0925142401	-0.445735
C	 0.1148324138	-0.0170831018	-0.0485784778	 0.333367
C	 0.6659008336	-0.9335964433	-1.1645215641	-0.348237
C	 0.0872911436	-1.9288236273	-0.1380906196	-0.132129
C	 0.4666988418	-1.0296276513	 1.0816433932	 0.013859
O	-0.868208493	-1.060637137	 1.6696740238	-0.340828
C	-1.1160933588	-1.0068294761	 0.2417828703	 0.329907
C	-2.4502855436	-0.9797935421	-0.2825308922	 0.153475
N	-3.5048553788	-0.9296746137	-0.7553556293	-0.340844
H	-0.1876621146	 1.7550358678	-0.7013707282	 0.302835
H	 0.1632592668	-0.8880944957	-2.1340250379	 0.120623
H	 1.7515621459	-0.9416484385	-1.2864991122	 0.118695
H	 0.0592463723	-3.014216686	-0.1561793777	 0.116438
H	 1.3313887697	-1.0704143528	 1.7396491315	 0.118572
119.7102	146.5311	251.7188	330.3966	334.2008	389.6488	510.4083	535.7291	547.5752	597.0052	706.7281	737.0499	794.2865	840.3271	879.9254	935.7123	941.3058	1001.9042	1013.152	1048.7969	1091.696	1095.4536	1152.8189	1191.8135	1208.4204	1256.7758	1289.8923	1325.2982	1404.8425	1514.984	2347.247	3063.3004	3125.2657	3158.7235	3178.272	3800.7257
OC12CC3C1OC23C#N	O[C@@]12C[C@H]3[C@@H]1O[C@@]23C#N	
InChI=1S/C6H5NO2/c7-2-6-3-1-5(6,8)4(3)9-6/h3-4,8H,1H2	InChI=1S/C6H5NO2/c7-2-6-3-1-5(6,8)4(3)9-6/h3-4,8H,1H2/t3-,4-,5-,6+/m0/s1
