19
gdb 96384	2.4259	1.62554	1.2945	1.097	70.56	-0.2504	0.0774	0.3278	1043.6837	0.160284	-460.144503	-460.136513	-460.135569	-460.176784	31.476	
O	 0.0308011149	 1.4795806753	 0.0641713948	-0.441406
C	-0.0184609496	 0.0630133298	-0.0237278029	 0.054231
C	 0.6931200554	-0.5702103814	 1.1741096743	-0.127179
O	 0.0274010983	-0.1808297943	 2.3718387876	-0.265376
C	-1.2884711915	-0.7245864183	 2.4389931404	-0.07984
C	-2.1687348709	-0.2083486934	 1.2920971263	-0.298988
C	-1.460491926	-0.4356220526	-0.0289277675	 0.423324
C	-2.1882650535	-0.6075412507	-1.2857396122	-0.252571
O	-1.6223679723	-1.7404753736	-0.6101922451	-0.289514
H	-0.0132047873	 1.6930706928	 1.004929599	 0.288382
H	 0.4701417067	-0.229833838	-0.9587958993	 0.08704
H	 0.7105058007	-1.6658128453	 1.0738984802	 0.111604
H	 1.7186889944	-0.1993847537	 1.2533870305	 0.115698
H	-1.235474382	-1.823849117	 2.4011632571	 0.107596
H	-1.6911871178	-0.4333127877	 3.4125783385	 0.112017
H	-3.1377208558	-0.7166934882	 1.2947973427	 0.109878
H	-2.3478697446	 0.8650395247	 1.4234541086	 0.113889
H	-3.2768480956	-0.5662807716	-1.2889270247	 0.11291
H	-1.7108161734	-0.3378539866	-2.2268286184	 0.118307
105.2267	159.6026	220.508	280.9868	312.3258	391.5807	408.0882	435.6551	442.2425	494.3976	583.8637	672.7682	743.3528	834.3935	865.7744	867.8349	916.665	956.0075	969.8593	1006.4285	1040.2284	1078.9665	1114.2439	1121.2902	1132.9399	1160.6307	1218.9058	1235.2051	1265.108	1289.0973	1299.6842	1334.9446	1353.9534	1377.4196	1407.8503	1414.6139	1448.4088	1466.9859	1484.9513	1501.7529	1531.6332	2990.1081	3000.7551	3042.5171	3064.3252	3081.1722	3093.4594	3096.9653	3098.5184	3168.0289	3774.1452
OC1COCCC11CO1	O[C@H]1COCC[C@]21CO2	
InChI=1S/C6H10O3/c7-5-3-8-2-1-6(5)4-9-6/h5,7H,1-4H2	InChI=1S/C6H10O3/c7-5-3-8-2-1-6(5)4-9-6/h5,7H,1-4H2/t5-,6+/m0/s1
