16
gdb 75926	2.81359	1.57821	1.12969	2.293	65.76	-0.2676	0.0081	0.2757	1045.3872	0.124326	-475.009161	-475.001291	-475.000347	-475.041697	29.785	
O	 0.3458155146	 1.0530110811	-0.6147934727	-0.434115
C	 0.0152099337	-0.2124026061	-0.1211172917	-0.033725
C	 0.5003943805	-0.4384291677	 1.2978096941	 0.399956
N	 1.5368617435	 0.1143447489	 1.7544597254	-0.562643
O	-0.3521275846	-1.2542707611	 1.9702069085	-0.238054
C	-1.5310249457	-1.5091639438	 1.1744040417	-0.17197
C	-1.4710225114	-0.4912190821	 0.0423522782	 0.383989
C	-2.5172157181	 0.4845205723	-0.2616904754	-0.238743
O	-2.303906533	-0.6821787819	-1.0812817413	-0.282557
H	 1.0841829046	 1.3604144593	-0.0673012295	 0.300836
H	 0.4362439011	-1.0071732172	-0.762799941	 0.109786
H	 1.6981776797	-0.1067159022	 2.7367431734	 0.234247
H	-1.4906696566	-2.5322285707	 0.783320465	 0.134093
H	-2.4064421447	-1.4072095336	 1.8188366747	 0.133599
H	-3.4423238152	 0.4836648012	 0.3124814352	 0.118682
H	-2.2317531282	 1.4276482338	-0.7193567547	 0.146619
72.524	157.3131	234.9437	261.4982	302.2779	349.2568	370.0208	481.9844	490.8778	537.3598	625.105	690.0358	789.3025	877.1506	886.6021	913.3449	935.4013	949.6019	989.7166	1072.3684	1094.6254	1128.7644	1154.8791	1166.1624	1207.3699	1225.0046	1231.6021	1296.4287	1356.6278	1402.5602	1408.2957	1457.3255	1514.0689	1531.4094	1788.2021	2949.153	3045.6212	3096.9186	3114.0175	3199.8246	3498.4531	3718.8925
OC1C(=N)OCC11CO1	O[C@H]1[C]([NH])OC[C@]21CO2	
InChI=1S/C5H7NO3/c6-4-3(7)5(1-8-4)2-9-5/h3,6-7H,1-2H2	InChI=1S/C5H7NO3/c6-4-3(7)5(1-8-4)2-9-5/h3,6-7H,1-2H2/t3-,5+/m0/s1
