18
gdb 87075	4.03434	0.71166	0.67753	5.9822	94.6	-0.259	-0.0341	0.2249	1689.4449	0.146204	-364.800937	-364.791254	-364.79031	-364.835724	34.957	
C	-0.1086237669	 1.5096710856	-0.0456510926	-0.417386
C	 0.039359426	 0.0063839834	 0.0162006458	-0.015596
C	 1.3492787829	-0.6813541892	-0.2201576017	-0.31202
C	 0.7447993077	-0.6999747112	 1.1857959733	 0.09315
C	 1.4179814272	 0.0921710125	 2.2999730825	-0.461372
C	 0.1540746878	-1.9311025826	 1.6138141334	 0.076162
C	-0.3460405498	-2.9653115354	 1.9974415112	 0.040124
C	-0.9113256541	-4.131875427	 2.4196145138	 0.190995
N	-1.3944955225	-5.1265772334	 2.7787182727	-0.344155
H	 0.7988218039	 2.0313998569	 0.2685715046	 0.122625
H	-0.3229606437	 1.8198098962	-1.0739675278	 0.131307
H	-0.9339187044	 1.8560221949	 0.5850434448	 0.13078
H	-0.8302728484	-0.5343550062	-0.3458750864	 0.10917
H	 1.3662769241	-1.6084882368	-0.7805726487	 0.133034
H	 2.2344803198	-0.0642072936	-0.3375471585	 0.123813
H	 1.8938115208	 0.9942810904	 1.9103273188	 0.124839
H	 0.694043155	 0.3894206607	 3.0644937085	 0.136284
H	 2.1909973946	-0.5125170351	 2.7830388064	 0.138247
75.6348	81.6032	169.2542	177.7918	193.908	220.9792	274.4462	299.6759	350.8185	434.205	515.0584	527.5298	576.8589	582.8179	600.5609	758.7851	804.1267	891.3435	918.773	964.9332	1018.6286	1060.7906	1085.7805	1106.1294	1124.1101	1135.2584	1196.0778	1290.7294	1317.9548	1403.3152	1419.458	1427.2566	1483.2931	1483.7916	1492.7346	1498.3878	1511.8694	2256.3462	2385.8819	3038.0418	3047.4084	3098.6538	3112.4108	3114.3528	3131.9875	3135.4097	3154.1153	3226.966
CC1CC1(C)C#CC#N	C[C@H]1C[C@]1(C)C#CC#N	
InChI=1S/C8H9N/c1-7-6-8(7,2)4-3-5-9/h7H,6H2,1-2H3	InChI=1S/C8H9N/c1-7-6-8(7,2)4-3-5-9/h7H,6H2,1-2H3/t7-,8-/m0/s1
