19
gdb 95432	2.57872	1.40084	0.94978	3.7754	79.66	-0.2486	-0.0583	0.1904	1242.4293	0.158842	-423.067699	-423.058714	-423.05777	-423.101791	33.244	
C	 0.0259771365	-0.7716586246	 1.3084518187	-0.490266
C	 0.0751426206	-0.0123597531	-0.003467944	 0.311751
O	 0.0786600722	 1.2104062656	-0.0204162262	-0.334043
C	 0.1146017068	-0.7639484819	-1.2719179014	 0.217229
C	 0.0994054016	-2.0917344672	-1.4489175997	-0.173247
C	 0.1818312905	-2.4722523356	-2.9038797394	-0.26508
C	-0.0725349791	-1.1317533372	-3.6361292948	-0.23182
C	 0.2293826213	-0.0276450058	-2.6025471241	 0.046527
O	-0.6829028761	 1.0408356414	-2.7510021967	-0.443841
H	-0.8542549126	-1.4220201987	 1.3434688064	 0.143275
H	 0.9077979242	-1.4113171911	 1.4190982427	 0.141174
H	-0.0142163007	-0.0595513637	 2.1332070354	 0.144457
H	 0.0596902774	-2.8310684579	-0.6552215413	 0.104166
H	 1.1773646867	-2.8815358376	-3.1277532985	 0.120451
H	-0.5333206989	-3.2572054386	-3.1740209157	 0.116162
H	 0.5080654076	-1.0271084743	-4.554645024	 0.10466
H	-1.1314839103	-1.0394574307	-3.8946049859	 0.123875
H	 1.2642458195	 0.3413587422	-2.7132201838	 0.071061
H	-0.5375629271	 1.6102181288	-1.9820909376	 0.29351
72.4704	98.8442	120.8234	178.2544	198.5432	291.7262	347.6873	418.0264	461.3308	539.7824	545.6451	603.2042	636.733	685.3499	805.648	833.2793	887.8809	913.1156	933.7601	980.1447	1011.8526	1046.4049	1054.6249	1087.8143	1118.2026	1164.979	1220.4495	1260.2641	1289.7231	1303.008	1311.7615	1347.9652	1370.6006	1391.9626	1431.0395	1466.5747	1475.112	1476.3848	1494.1371	1681.9936	1737.6857	2939.8943	3011.3343	3043.0526	3056.579	3070.3242	3106.1584	3120.4914	3154.7122	3186.245	3740.0002
CC(=O)C1=CCCC1O	CC(=O)C1=CCC[C@H]1O	
InChI=1S/C7H10O2/c1-5(8)6-3-2-4-7(6)9/h3,7,9H,2,4H2,1H3	InChI=1S/C7H10O2/c1-5(8)6-3-2-4-7(6)9/h3,7,9H,2,4H2,1H3/t7-/m1/s1
