17
gdb 31285	1.92496	1.62934	0.93881	2.5284	71.12	-0.2204	0.0168	0.2372	1213.952	0.137494	-455.171093	-455.162269	-455.161325	-455.205384	31.88	
O	 0.0916529135	 1.2578430103	 0.4981850553	-0.42027
C	 0.0060578665	 0.0156475821	-0.2035139734	-0.202075
C	-1.3580035378	-0.5880588626	-0.1060482303	 0.206139
C	-1.8289032333	-1.8764577181	 0.0286010145	 0.137655
C	-1.0436207722	-3.1490470364	 0.1509278282	-0.175888
O	 0.0622359262	-3.043495117	 1.048244453	-0.411479
N	-3.2088651259	-1.8828469203	 0.0407764792	-0.309641
C	-3.5691578653	-0.6261909152	-0.0851894349	-0.002385
N	-2.4892709555	 0.1962830086	-0.1834711946	-0.275362
H	-0.0039821652	 1.0641396064	 1.4369130456	 0.284139
H	 0.2531258609	 0.2680738795	-1.2420377395	 0.123083
H	 0.7419543817	-0.7172593887	 0.1456571357	 0.133837
H	-1.7356866515	-3.9496647622	 0.4444862653	 0.113776
H	-0.5988073601	-3.4395310827	-0.8074925746	 0.118016
H	-0.2972524578	-2.7989510057	 1.9076295748	 0.278851
H	-4.5832068827	-0.2552301169	-0.0981676815	 0.130597
H	-2.4780679415	 1.2028561189	-0.2226660729	 0.271006
63.1384	68.8365	153.2233	189.1231	225.7922	322.0445	353.0224	367.2895	406.5886	505.0394	582.0413	645.4265	690.028	748.9354	773.2248	811.5047	958.8925	966.835	978.3298	1031.5881	1049.5529	1100.3049	1143.4647	1189.4477	1216.5792	1263.31	1279.3959	1365.6532	1380.9867	1392.1695	1408.1719	1419.6525	1456.9847	1501.2436	1505.6174	1519.0918	1615.3025	3018.5564	3028.4848	3063.8408	3074.0785	3250.6413	3654.1556	3807.1341	3807.9789
OCC1=C(CO)N=CN1	OCc1c(CO)nc[nH]1	
InChI=1S/C5H8N2O2/c8-1-4-5(2-9)7-3-6-4/h3,8-9H,1-2H2,(H,6,7)	InChI=1S/C5H8N2O2/c8-1-4-5(2-9)7-3-6-4/h3,8-9H,1-2H2,(H,6,7)
