19
gdb 42016	3.20524	1.4924	1.12988	1.3671	77.28	-0.2273	0.0108	0.2381	1089.5346	0.161649	-423.028374	-423.020787	-423.019842	-423.06104	29.112	
C	 0.0703367464	 1.4233567426	-0.3443745761	-0.113323
O	 1.3081574867	 1.8981865005	 0.1834447203	-0.281091
C	 1.9852789382	 0.8385063723	 0.8568707261	 0.076995
C	 3.4652869804	 0.7115874624	 0.4194151415	-0.237603
C	 3.8122315944	-0.7636838885	 0.1458377276	-0.081292
O	 3.1963719046	-1.6224139899	 1.0991231752	-0.252602
C	 1.7910646842	-1.7290667125	 0.9010131103	-0.177037
C	 1.2071744626	-0.4060879967	 0.505830763	 0.280724
C	 0.1287315365	-0.0733732669	-0.1939231568	-0.25675
H	-0.7775251564	 1.8654969552	 0.206188454	 0.101749
H	-0.0235133378	 1.7447290634	-1.3919208563	 0.107801
H	 1.9498812474	 1.0188073421	 1.9442102841	 0.083269
H	 3.611711662	 1.3100734542	-0.4847640026	 0.113439
H	 4.1233105323	 1.1126721859	 1.1955482689	 0.105206
H	 3.5044856252	-1.0496358616	-0.8724091575	 0.093879
H	 4.8879637226	-0.9389802425	 0.2284858961	 0.109883
H	 1.5608331242	-2.494360619	 0.1419254933	 0.102759
H	 1.382658967	-2.0798780281	 1.8569397529	 0.122401
H	-0.6149465106	-0.7417203828	-0.610712824	 0.101593
59.0175	95.4134	237.0543	289.5688	337.6531	381.8529	454.462	502.7299	620.326	685.0388	764.5028	791.6982	818.9358	864.728	914.3349	941.0338	965.9483	1002.3901	1024.0963	1043.2968	1075.7125	1089.1792	1111.7847	1131.2421	1194.6288	1202.6419	1222.8132	1232.3742	1278.662	1290.7125	1333.5075	1354.1634	1361.5267	1377.0624	1393.1431	1410.9918	1481.0604	1489.8507	1504.8054	1522.1028	1736.6412	2951.0755	2957.7048	2971.1989	2981.3266	3005.1282	3041.3782	3053.5275	3091.0497	3106.2766	3208.2377
C1OC2CCOCC2=C1	C1O[C@@H]2CCOCC2=C1	
InChI=1S/C7H10O2/c1-4-9-7-2-3-8-5-6(1)7/h1,7H,2-5H2	InChI=1S/C7H10O2/c1-4-9-7-2-3-8-5-6(1)7/h1,7H,2-5H2/t7-/m1/s1
