18
gdb 12389	2.90824	2.12738	1.32714	2.701	68.18	-0.2296	-0.0198	0.2098	938.9512	0.15408	-384.971381	-384.963589	-384.962645	-385.003555	29.22	
C	 0.0084533853	 1.5372940465	-0.0592974153	-0.398693
C	 0.1001530523	 0.0247102511	 0.0242887221	 0.032107
O	 0.7456263626	-0.4492078786	-1.1560829147	-0.256691
C	 0.8521710555	-1.8607140557	-1.2173188518	-0.06802
C	 1.7569677155	-2.388037018	-0.1060870331	-0.210137
C	 1.2194882018	-1.9400943642	 1.2645491969	-0.306299
C	 0.8485469106	-0.4637173241	 1.2779282013	 0.381962
O	 1.0908923492	 0.2649171028	 2.2106375508	-0.303836
H	 1.0086029515	 1.973790226	-0.1178133884	 0.132628
H	-0.5559739505	 1.8270902768	-0.9486617796	 0.119433
H	-0.4845489451	 1.9347225365	 0.8296452406	 0.133615
H	-0.9168814047	-0.4121006784	 0.077097916	 0.078849
H	-0.1487976843	-2.3223209837	-1.148663313	 0.085692
H	 1.2610796143	-2.0916851697	-2.2050950446	 0.112004
H	 1.8271701983	-3.4804707722	-0.154539126	 0.102778
H	 2.7659126556	-1.9879293447	-0.2568678019	 0.118499
H	 0.2955231625	-2.4949558004	 1.4863005082	 0.122119
H	 1.9195508896	-2.1334588001	 2.0807939022	 0.12399
72.8746	153.1851	184.9352	273.1572	324.7672	343.5147	413.677	428.6458	507.6775	568.1465	654.0913	757.7834	843.5295	855.1272	890.6617	935.7375	1003.9358	1022.284	1065.6273	1107.7355	1132.2264	1157.2007	1174.7329	1215.0305	1257.7951	1293.7786	1332.2808	1349.4804	1363.9024	1375.4932	1407.0651	1407.9574	1461.8717	1479.5492	1484.6321	1491.8861	1499.2382	1819.9846	2908.7665	2953.4429	3008.6791	3037.7277	3058.8855	3081.3918	3088.2094	3105.2078	3133.8061	3146.0483
CC1OCCCC1=O	C[C@H]1OCCCC1=O	
InChI=1S/C6H10O2/c1-5-6(7)3-2-4-8-5/h5H,2-4H2,1H3	InChI=1S/C6H10O2/c1-5-6(7)3-2-4-8-5/h5H,2-4H2,1H3/t5-/m1/s1
