16
gdb 26877	2.98842	1.44593	0.98041	1.7571	81.4	-0.1834	-0.0544	0.129	1150.2724	0.125335	-434.109593	-434.101287	-434.100343	-434.142561	31.255	
C	-0.0040805012	 1.5185237585	 0.0850750037	-0.501648
C	 0.0062956451	 0.0279509312	-0.0327374121	 0.288167
C	-0.0171748056	-0.6662196898	-1.2066929412	 0.32107
O	-0.0534090562	-0.0179344238	-2.4067055412	-0.440733
N	-0.0059203598	-2.0269149925	-1.2464555753	-0.301817
C	 0.028595309	-2.700384018	-0.1386698572	-0.085182
C	 0.0573968294	-2.1012427438	 1.1932521735	 0.338138
N	 0.0922650895	-2.6743939759	 2.3452550619	-0.573189
N	 0.0427500682	-0.7119833047	 1.1251818034	-0.381869
H	 0.8949776163	 1.8812084956	 0.5981948864	 0.140601
H	-0.0424058552	 1.9706729214	-0.9055053613	 0.166874
H	-0.8726161318	 1.8637943465	 0.659073893	 0.140196
H	-0.0655053275	-0.7115661416	-3.0775505391	 0.296619
H	 0.0367044335	-3.7867753959	-0.200366823	 0.120738
H	 0.0986575193	-3.6861648117	 2.232526219	 0.210053
H	 0.0610229369	-0.2383602655	 2.0177904695	 0.261981
84.6426	106.4	173.7195	275.5434	338.0006	342.9652	368.3227	444.4262	486.0989	501.5202	559.8221	593.7931	672.6305	712.4583	754.7009	765.0776	814.1648	921.1689	935.4682	1025.8869	1058.7955	1104.6563	1142.4361	1251.8497	1286.5305	1347.2924	1379.0518	1409.1129	1425.1274	1471.6257	1484.5534	1500.9654	1569.8037	1680.8855	1710.2186	3024.3205	3072.6687	3150.8063	3159.6457	3503.4226	3604.3831	3800.8411
CC1=C(O)N=CC(=N)N1	C[C@H]1C(=NC=C([NH])N1)O	
InChI=1S/C5H7N3O/c1-3-5(9)7-2-4(6)8-3/h2H,1H3,(H2,6,8)(H,7,9)	InChI=1S/C5H8N3O/c1-3-5(9)7-2-4(6)8-3/h2-3,6,8H,1H3,(H,7,9)/t3-/m0/s1
