21
gdb 85820	1.97379	1.42816	1.34124	2.8378	82.36	-0.2634	0.0282	0.2916	1158.4911	0.182225	-383.27904	-383.269162	-383.268218	-383.313173	37.158	
C	-0.4083355984	 1.463690438	-0.1128153542	-0.408037
C	-0.0637976853	-0.020563204	-0.0096423461	 0.000708
C	 1.1338982324	-0.4653809853	-0.897731476	-0.260743
C	 2.0565536164	-0.5083992615	 0.3611859262	 0.117514
N	 2.8468264249	-1.7296847758	 0.5032794835	-0.547161
C	 2.878705609	 0.7051097361	 0.4883645431	 0.250902
N	 3.5583045797	 1.6358292865	 0.5984886122	-0.364611
C	 0.7586459968	-0.4631472223	 1.2461396731	 0.013084
C	 0.7294061113	 0.3501348111	 2.5302792168	-0.429833
H	 0.4742683664	 2.1021155254	-0.0055267329	 0.138934
H	-0.8542655988	 1.680395585	-1.0895481727	 0.116777
H	-1.1308930783	 1.7589958734	 0.6549400037	 0.117383
H	-0.9723389998	-0.6100087609	-0.1598259137	 0.075129
H	 1.0233364122	-1.4776080366	-1.2917472419	 0.117424
H	 1.4345021414	 0.2106889796	-1.7007888832	 0.113388
H	 3.585042994	-1.7469729899	-0.1970607479	 0.239579
H	 3.3178979527	-1.7334887251	 1.4053779674	 0.239132
H	 0.5314516877	-1.5111735995	 1.4638722578	 0.093594
H	 1.0058909866	 1.3945974058	 2.3638912525	 0.139575
H	-0.2726664634	 0.331357527	 2.9717969985	 0.119841
H	 1.4224188324	-0.0617136569	 3.2721680838	 0.117418
81.9537	137.7602	181.8821	197.0587	220.4946	232.214	262.7803	287.9177	320.9703	348.1651	422.583	489.7381	547.203	608.9666	655.1574	723.3649	791.3694	829.2936	889.9815	904.1223	942.0218	957.7941	993.4553	1037.8296	1058.583	1113.1809	1141.5305	1192.7607	1203.4166	1206.5092	1249.7088	1278.3046	1300.8689	1305.369	1367.2928	1376.09	1414.9374	1419.9383	1477.698	1490.6972	1493.1015	1504.3387	1507.4122	1653.8134	2331.0332	3032.258	3035.5156	3054.7537	3065.3754	3073.4389	3094.7975	3098.2234	3108.9417	3119.7164	3132.477	3472.0401	3549.1222
CC1CC(N)(C#N)C1C	C[C@H]1C[C@@](N)(C#N)[C@H]1C	
InChI=1S/C7H12N2/c1-5-3-7(9,4-8)6(5)2/h5-6H,3,9H2,1-2H3	InChI=1S/C7H12N2/c1-5-3-7(9,4-8)6(5)2/h5-6H,3,9H2,1-2H3/t5-,6-,7+/m0/s1
