21
gdb 68826	2.70308	1.4202	1.2189	1.0515	83.89	-0.2292	0.0734	0.3026	1144.2091	0.181152	-387.049718	-387.040654	-387.03971	-387.082821	35.595	
C	-0.0564049698	 1.585144628	 0.0179291637	-0.494659
C	-0.0565833235	 0.0850975922	 0.0394015984	 0.300615
C	 1.1485303199	-0.7459525198	-0.3642545241	-0.403202
C	 0.5835437366	-0.8943781912	 1.022961899	 0.284943
O	 1.3109541903	-0.613167759	 2.1678549582	-0.460212
C	-0.6621428547	-1.7568024869	 0.9974223281	 0.338186
C	-0.7677361975	-3.2473956385	 1.141576495	-0.340309
C	-1.3177257741	-2.3277721835	 2.2136663968	-0.329205
C	-1.3141931798	-0.8036186557	-0.0287583978	-0.37913
H	 0.9099616454	 1.9809563941	 0.3462008221	 0.122805
H	-0.2516706941	 1.9734402379	-0.9890953509	 0.11661
H	-0.8256997071	 1.9903864461	 0.6850789085	 0.118045
H	 1.0661704316	-1.5468091956	-1.0968309179	 0.10187
H	 2.0768168546	-0.1826434101	-0.4098681255	 0.105142
H	 2.1162108824	-1.1408281989	 2.1548421392	 0.286812
H	-1.4771830583	-3.7750280355	 0.5118842835	 0.108931
H	 0.1338425904	-3.8110116805	 1.3630545788	 0.102586
H	-0.7734664259	-2.2532254541	 3.1495597559	 0.118942
H	-2.3954168035	-2.239349004	 2.3102048808	 0.107522
H	-2.2069461788	-0.3076374009	 0.3644552054	 0.101529
H	-1.5448986741	-1.2262435341	-1.0130092071	 0.092178
105.3252	167.4267	184.3609	209.0225	221.9197	260.8169	331.6562	359.8189	429.1606	467.0014	490.3655	563.4687	632.0035	733.6497	769.8342	793.7998	840.3725	861.8191	907.3682	937.0909	963.8481	972.3515	995.9722	1026.924	1047.8223	1055.7781	1072.2698	1107.8903	1117.952	1164.3802	1187.6076	1218.1343	1223.7607	1240.425	1292.1016	1339.7214	1390.64	1411.3655	1423.666	1461.1873	1478.5338	1485.9018	1496.6238	1502.8386	1517.7172	3020.515	3033.1975	3078.0365	3085.6072	3093.9062	3099.1004	3118.4642	3123.9068	3187.6278	3197.0765	3213.6051	3803.7372
CC12CC1(O)C1(CC1)C2	C[C@@]12C[C@]1(O)C1(CC1)C2	
InChI=1S/C8H12O/c1-6-4-7(2-3-7)8(6,9)5-6/h9H,2-5H2,1H3	InChI=1S/C8H12O/c1-6-4-7(2-3-7)8(6,9)5-6/h9H,2-5H2,1H3/t6-,8-/m1/s1
