23
gdb 109682	2.6473	1.00107	0.93378	1.0235	82.99	-0.2376	0.0598	0.2974	1446.976	0.202131	-425.402122	-425.390903	-425.389959	-425.43832	40.505	
C	-0.1423281287	 1.5389281595	-0.3040193347	-0.372163
C	 0.0267388798	 0.0723723351	 0.1143825315	-0.216849
C	-1.295670559	-0.6648114511	 0.1654442125	-0.0995
C	-1.8197049004	-1.4502282136	-1.0318717326	 0.010099
O	-1.0105193987	-1.630133852	-2.1604150955	-0.421221
C	-1.4115098012	-2.1698360618	 0.2302112926	 0.365043
C	-0.1888614786	-3.0592543767	 0.2563643464	-0.459033
O	-2.4703156543	-2.5809320341	 1.059944049	-0.279994
C	-3.1361787918	-3.7549869189	 0.6366817504	-0.249856
H	 0.8204066678	 2.0589073322	-0.3266426114	 0.112159
H	-0.5891203057	 1.6198987756	-1.301617543	 0.102954
H	-0.7973100406	 2.0760764288	 0.3904032697	 0.118126
H	 0.7035683218	-0.4270942691	-0.5855120542	 0.105913
H	 0.5101457392	 0.0288232693	 1.0983802944	 0.102228
H	-2.0739683263	-0.1608038031	 0.7340360659	 0.089427
H	-2.888946576	-1.3924803159	-1.2345556471	 0.087834
H	-0.9791068582	-0.7963452504	-2.6416716312	 0.290286
H	 0.569644734	-2.7063785521	-0.4427311897	 0.136958
H	 0.2383931212	-3.0881419929	 1.2639032878	 0.118996
H	-0.4426497966	-4.0833373393	-0.0350755997	 0.117635
H	-4.0102003643	-3.8715620505	 1.2823557915	 0.123723
H	-3.470913345	-3.6794930488	-0.4077464761	 0.108141
H	-2.5095759382	-4.6521636201	 0.7349162936	 0.109097
66.5179	94.204	129.6212	146.3791	161.2262	186.4814	225.0487	251.9157	268.8536	305.7068	309.5772	355.2959	403.5053	488.3546	563.8018	598.2899	700.794	779.2084	832.3473	892.4681	928.4967	972.3874	983.3625	1047.2469	1065.0562	1087.6902	1114.2078	1127.7849	1168.7534	1173.6321	1181.0858	1212.7598	1240.0266	1270.8645	1298.1609	1316.5315	1337.7855	1394.6225	1412.2864	1412.8157	1452.7585	1473.9616	1478.6915	1486.68	1494.0971	1497.0511	1504.6344	1509.0011	1512.2625	2992.1336	3026.9798	3030.2668	3040.6224	3046.6996	3073.2467	3095.8844	3100.641	3101.6264	3104.6744	3112.3308	3138.0226	3148.4926	3799.1844
CCC1C(O)C1(C)OC	CC[C@H]1[C@@H](O)[C@]1(C)OC	
InChI=1S/C7H14O2/c1-4-5-6(8)7(5,2)9-3/h5-6,8H,4H2,1-3H3	InChI=1S/C7H14O2/c1-4-5-6(8)7(5,2)9-3/h5-6,8H,4H2,1-3H3/t5-,6+,7+/m0/s1
