17
gdb 85635	3.26086	1.16278	0.94085	5.2772	75.92	-0.2716	-0.0537	0.2179	1248.1108	0.135889	-418.039296	-418.030579	-418.029635	-418.073259	31.632	
C	-0.4497063847	 1.5321105276	-0.0138711789	-0.408894
C	 0.0778467714	 0.1108987276	-0.0709736784	 0.089679
O	 1.1646469366	 0.047583046	-1.0490126431	-0.263681
C	 2.1201285904	-0.7057190929	-0.4627989071	 0.31849
N	 1.990657756	-1.09505109	 0.7386369298	-0.306309
C	 0.7213644617	-0.504607727	 1.2168293854	-0.009259
C	 1.0107930274	 0.4554451269	 2.3731644726	-0.390127
C	 3.2583078076	-1.0070468471	-1.2886956156	 0.280232
N	 4.1709090439	-1.2461827588	-1.9548916301	-0.313322
H	 0.318215817	 2.2325475708	 0.3224078433	 0.135467
H	-0.7912633622	 1.8445817128	-1.003995519	 0.139347
H	-1.2997707502	 1.590674619	 0.6723631616	 0.130272
H	-0.7022933426	-0.5587459249	-0.450079869	 0.104774
H	 0.0899121987	-1.3167497531	 1.5908579852	 0.102207
H	 1.6667439266	 1.2729657234	 2.0608843698	 0.128948
H	 0.0857141673	 0.8825937382	 2.7710442087	 0.120905
H	 1.5133533052	-0.0890426986	 3.1759812448	 0.141271
44.5208	112.1855	156.8964	233.2679	251.9761	275.4605	323.3662	371.2695	473.034	498.6807	563.6842	573.3424	714.2375	731.8568	759.3777	880.4947	911.3305	969.0205	1013.0299	1042.7403	1072.2473	1106.857	1158.8526	1173.6459	1249.277	1308.8793	1345.0262	1375.9137	1391.4428	1409.6506	1417.2995	1477.7346	1490.2461	1495.6555	1507.7657	1698.1272	2373.5889	3035.0458	3045.4526	3051.7353	3057.4575	3118.4498	3123.665	3129.4176	3135.086
CC1OC(=NC1C)C#N	C[C@H]1O[C]([N][C@H]1C)C#N	
InChI=1S/C6H8N2O/c1-4-5(2)9-6(3-7)8-4/h4-5H,1-2H3	InChI=1S/C6H8N2O/c1-4-5(2)9-6(3-7)8-4/h4-5H,1-2H3/t4-,5+/m0/s1
