21
gdb 100731	2.69625	1.01366	0.80633	2.5767	76.28	-0.256	-0.0245	0.2315	1476.8686	0.178789	-461.387218	-461.376351	-461.375407	-461.423582	39.103	
C	-0.0091564826	 1.5781340289	 0.0678693238	-0.386747
C	-0.0649629084	 0.052918441	-0.0485947855	-0.189713
C	 0.8018634535	-0.4896311296	-1.1873314699	 0.096183
O	 2.1750072365	-0.1478130845	-1.0131505035	-0.425352
C	 0.6140508492	-2.0276932358	-1.3546152956	 0.008157
O	-0.750651005	-2.3446507729	-1.4093338582	-0.429858
C	 1.2951835737	-2.5548283143	-2.6301883337	 0.370438
C	 2.7968299186	-2.5881546798	-2.7164338578	-0.48822
O	 0.5785445782	-2.9450099293	-3.5308289257	-0.323834
H	 1.0190305134	 1.9286683252	 0.194515578	 0.120425
H	-0.4120191699	 2.0547834898	-0.8324102048	 0.118959
H	-0.5979603606	 1.926991856	 0.9212673602	 0.113993
H	 0.2707830558	-0.4114394895	 0.8919920814	 0.081227
H	-1.0902047345	-0.2892318221	-0.2081723874	 0.13357
H	 0.5046165324	-0.0087972327	-2.1280541609	 0.098523
H	 2.4249412132	-0.3895553401	-0.1137409773	 0.281612
H	 1.0804128	-2.5165469221	-0.4815463821	 0.072474
H	-0.8865627305	-2.6818264468	-2.3124162921	 0.293612
H	 3.2021492165	-1.5944565236	-2.5093308184	 0.175241
H	 3.1922356312	-3.2558166995	-1.9415633357	 0.139283
H	 3.1046896493	-2.9478192486	-3.6989432349	 0.140027
55.6766	65.247	110.6387	129.0829	171.7775	220.1494	269.1616	284.1828	305.8319	330.6021	387.3201	413.1912	457.0974	510.3668	528.3896	613.6596	639.3385	782.6822	832.2918	875.9377	973.4109	990.8799	1013.3169	1039.5013	1082.6102	1107.2236	1121.5837	1143.7898	1200.0405	1239.4721	1263.9537	1291.7352	1326.0286	1365.2369	1379.7309	1387.693	1404.8456	1414.0575	1442.9728	1465.3078	1471.9465	1488.0239	1496.7124	1508.8424	1786.7669	2956.5263	2991.7396	3037.2228	3040.3196	3041.4845	3098.6858	3107.0969	3112.1836	3121.2173	3159.4487	3632.6285	3792.3777
CCC(O)C(O)C(C)=O	CC[C@@H](O)[C@@H](O)C(=O)C	
InChI=1S/C6H12O3/c1-3-5(8)6(9)4(2)7/h5-6,8-9H,3H2,1-2H3	InChI=1S/C6H12O3/c1-3-5(8)6(9)4(2)7/h5-6,8-9H,3H2,1-2H3/t5-,6+/m1/s1
