12
gdb 133215	3.30664	1.42221	1.00058	2.3063	59.21	-0.279	-0.0834	0.1956	1059.6353	0.07572	-513.915587	-513.908134	-513.907189	-513.948056	26.652	
C	-0.0349575179	 1.4832205671	 0.0224062402	-0.461637
C	-0.0104412666	-0.0106756582	-0.0171538269	 0.264052
N	-0.051562719	-0.570401444	-1.17035113	-0.127394
O	-0.0262166102	-1.996406313	-1.1662840731	-0.22679
C	 0.0364443926	-2.6166815861	 0.0020435042	 0.447317
F	 0.0498613153	-3.9053126755	-0.2034217695	-0.023381
N	 0.0801892989	-2.1477143217	 1.1813059767	-0.402868
C	 0.0602318498	-0.7575515244	 1.2848659787	 0.357225
O	 0.0962082294	-0.166002139	 2.336270669	-0.310752
H	 0.8597938895	 1.848902005	 0.5350789695	 0.165932
H	-0.0876695411	 1.8974193829	-0.9846326592	 0.152348
H	-0.8921096908	 1.8180490369	 0.6142509204	 0.165948
73.0699	152.9081	184.7277	282.8197	335.4044	388.6729	408.6627	482.7073	542.453	591.5817	711.1302	749.3682	782.281	803.998	910.1532	1001.2408	1049.8581	1052.8662	1198.7777	1334.9013	1374.8475	1407.9081	1458.212	1463.1728	1659.6771	1691.3376	1813.8549	3054.0484	3115.9664	3160.5281
CC1=NOC(F)=NC1=O	Cc1noc(F)nc1=O	
InChI=1S/C4H3FN2O2/c1-2-3(8)6-4(5)9-7-2/h1H3	InChI=1S/C4H3FN2O2/c1-2-3(8)6-4(5)9-7-2/h1H3
