16
gdb 52289	3.89637	0.83004	0.71914	4.8636	67.15	-0.2466	-0.0296	0.2171	1496.4413	0.121936	-475.028299	-475.019116	-475.018172	-475.064099	31.021	
O	-0.2508014446	 0.3889748788	 0.7031920355	-0.23514
C	 0.1260161444	 1.0964666144	-0.1917831622	 0.141846
C	 1.2845407484	 2.067931056	-0.0623388734	-0.163521
O	 1.5454235239	 2.6032044064	-1.3479493613	-0.261654
C	 2.5746788578	 3.5498891284	-1.3560163156	-0.010063
C	 2.7357448641	 4.2772558721	-2.7174074462	-0.191638
N	 2.4938724902	 5.53336889	-1.9968183819	-0.327261
C	 2.2201507899	 4.9608886712	-0.7806983424	 0.413334
O	 1.8325477567	 5.392421976	 0.2724502594	-0.358305
H	-0.3519578475	 1.1022268064	-1.1964052206	 0.095298
H	 1.0181718107	 2.8570266814	 0.6551560312	 0.163692
H	 2.1600996548	 1.5343761765	 0.3406693782	 0.125983
H	 3.5095185102	 3.1395513933	-0.9480771559	 0.098566
H	 3.719403813	 4.205976105	-3.1890666981	 0.120733
H	 1.9503197007	 4.0061728114	-3.428360236	 0.130759
H	 2.3756215373	 6.4801340628	-2.3264218705	 0.257372
47.3843	55.9846	94.8121	112.3215	164.775	223.8715	315.2384	358.8735	456.7894	512.5063	568.9641	730.5227	742.9231	760.2152	865.3966	926.6404	989.6934	1040.3271	1053.0586	1112.8489	1115.7113	1157.2559	1181.5419	1193.5733	1221.0369	1242.828	1299.1834	1337.24	1374.577	1400.1403	1421.2619	1483.3356	1520.4484	1847.0442	1889.0646	2896.929	2987.1875	3008.4107	3038.706	3055.0452	3109.5403	3610.3786
O=CCOC1CNC1=O	O=CCO[C@H]1CNC1=O	
InChI=1S/C5H7NO3/c7-1-2-9-4-3-6-5(4)8/h1,4H,2-3H2,(H,6,8)	InChI=1S/C5H7NO3/c7-1-2-9-4-3-6-5(4)8/h1,4H,2-3H2,(H,6,8)/t4-/m0/s1
