17
gdb 45280	2.83214	1.74073	1.26441	4.2313	73.32	-0.2118	-0.0254	0.1864	991.2391	0.137451	-417.94929	-417.942098	-417.941154	-417.980924	28.569	
O	-0.0738259294	 0.0022654401	-0.0844698381	-0.300181
C	-0.0204960034	 1.1947848175	 0.0012912967	 0.322289
C	-1.099501314	 2.3146402382	 0.0474528772	-0.335607
C	 0.0053693119	 3.3764518707	-0.1941329958	-0.093386
N	 0.4706197111	 4.0294252936	 1.0535845292	-0.319192
C	 1.5535373252	 3.0445548005	 1.2052691195	-0.048423
C	 2.8775171719	 3.2342129668	 0.3991882279	-0.182658
N	 2.4456497479	 2.1719877297	-0.5456532663	-0.400433
C	 1.0953084053	 2.2213792524	-0.0564709146	 0.264101
H	-1.8206736056	 2.2123293418	-0.7688789881	 0.130785
H	-1.6321167986	 2.4139943019	 0.9956808986	 0.135675
H	-0.1000566696	 3.9992512829	-1.0838925705	 0.07638
H	 0.7868428964	 4.9874130387	 0.9460396682	 0.219886
H	 1.6629514371	 2.6101630645	 2.2004147857	 0.099267
H	 2.9599130358	 4.2423817219	-0.0296591344	 0.092752
H	 3.8080990627	 2.9952750014	 0.9244490653	 0.114685
H	 2.5928983753	 2.3268934873	-1.5371829405	 0.224061
102.0742	150.5071	268.5478	292.9438	414.1028	437.9455	493.6946	554.2188	637.8556	655.4647	708.8613	780.8801	826.9558	851.5787	899.9498	907.4907	960.7916	985.3873	997.1404	1031.5056	1055.3724	1069.0111	1106.1614	1118.9483	1135.9246	1168.8384	1179.0456	1216.3212	1283.2027	1301.5627	1315.7412	1326.5573	1385.923	1387.6418	1425.2371	1512.3902	1879.8173	3003.1241	3063.8184	3064.3731	3096.7446	3099.1426	3128.7468	3524.7124	3527.8972
O=C1CC2NC3CNC123	O=C1C[C@H]2N[C@@H]3CN[C@]123	
InChI=1S/C6H8N2O/c9-5-1-3-6(5)4(8-3)2-7-6/h3-4,7-8H,1-2H2	InChI=1S/C6H8N2O/c9-5-1-3-6(5)4(8-3)2-7-6/h3-4,7-8H,1-2H2/t3-,4-,6-/m1/s1
