19
gdb 120352	4.00127	0.91777	0.82221	2.9244	76.14	-0.2462	-0.0021	0.2442	1407.1734	0.159253	-423.001192	-422.992633	-422.991689	-423.035067	31.923	
O	-0.0964167337	 1.493912736	-0.1255106654	-0.418906
C	 0.0263088284	 0.0915547147	 0.0561748609	-0.080484
C	-1.3753822246	-0.5030210278	-0.0059462745	-0.170851
C	-1.4059875217	-2.0414323848	 0.0459501109	-0.084496
C	-0.8877427242	-2.6599053094	 1.337495086	-0.080141
C	-1.7724258775	-3.4814605775	 1.9078864334	-0.091245
C	-3.0389682633	-3.5004538339	 1.1160785298	-0.004474
O	-3.680722812	-2.2030298564	 1.0424047925	-0.256711
C	-2.8274646141	-2.604638161	-0.0315173827	 0.023328
H	 0.7777557929	 1.8859234756	-0.0438252934	 0.28533
H	 0.6578790383	-0.3575800782	-0.729378188	 0.080512
H	 0.4973351141	-0.1406974606	 1.024254245	 0.08629
H	-1.9793487133	-0.1040553079	 0.814336954	 0.126533
H	-1.8405933224	-0.1654523598	-0.9396869968	 0.106957
H	-0.8265226435	-2.4294682097	-0.8057552215	 0.08243
H	 0.0884852031	-2.4201507895	 1.7438084485	 0.102474
H	-1.629610819	-4.0381883987	 2.8257449625	 0.102468
H	-3.7169797811	-4.3482358719	 1.1112706641	 0.096949
H	-3.3174545363	-2.730890429	-0.9937371753	 0.094039
76.8438	80.4751	128.228	194.3847	259.6575	295.6568	346.0356	433.5125	483.8075	605.0677	714.3811	748.6092	777.7897	830.1546	835.8475	867.2449	888.9926	943.5419	968.5315	979.9667	1017.3753	1047.8516	1069.2115	1096.8774	1105.1623	1114.3038	1144.2506	1220.4178	1232.5173	1253.5829	1291.1242	1299.3509	1304.6848	1328.3851	1355.6498	1379.8597	1415.0773	1463.47	1496.2379	1527.8659	1661.0737	2952.8652	2987.4746	2991.3204	3042.8084	3099.9484	3141.9294	3166.068	3190.0806	3218.5234	3829.9303
OCCC1C=CC2OC12	OCC[C@H]1C=C[C@H]2O[C@@H]12	
InChI=1S/C7H10O2/c8-4-3-5-1-2-6-7(5)9-6/h1-2,5-8H,3-4H2	InChI=1S/C7H10O2/c8-4-3-5-1-2-6-7(5)9-6/h1-2,5-8H,3-4H2/t5-,6-,7+/m1/s1
