14
gdb 12606	3.27393	2.2844	1.36875	2.8948	60.44	-0.2605	-0.0065	0.254	845.2376	0.108668	-415.924668	-415.917375	-415.916431	-415.95655	25.739	
C	-0.0638525376	 1.4591138513	 0.0094400646	-0.337559
N	-0.0316510173	 0.0098339644	 0.0006615498	-0.153503
C	-1.1505999177	-0.795860434	 0.0034205107	 0.335414
N	-2.3382974669	-0.3494579982	 0.0139134117	-0.533059
C	-0.5919533174	-2.2098298369	-0.0086191696	-0.188143
O	 0.8283970372	-2.051807359	-0.0168296813	-0.240432
C	 1.1470246329	-0.7254790818	-0.0110341591	 0.507287
O	 2.2669147282	-0.3049684162	-0.016055435	-0.382064
H	 0.9681240843	 1.8098208197	 0.0021431671	 0.166022
H	-0.5969832345	 1.8293823292	-0.8701058899	 0.150665
H	-0.5807773876	 1.8193181943	 0.90276749	 0.150556
H	-3.0162188365	-1.1105807395	 0.013875663	 0.225623
H	-0.8917153563	-2.7725409815	 0.8812035848	 0.149593
H	-0.9031996308	-2.7618682017	-0.9011851368	 0.149601
98.7687	124.6721	191.8941	198.721	275.1832	374.8932	560.9254	587.6978	615.7654	699.7471	761.6858	766.5808	839.031	968.6035	1034.5477	1050.8655	1090.286	1116.0156	1162.7714	1211.5897	1233.4856	1321.092	1367.6368	1432.0063	1484.154	1484.6562	1499.165	1514.7087	1754.2962	1898.5338	3050.8502	3054.7909	3095.066	3118.9721	3166.3743	3493.6416
CN1C(=N)COC1=O	CN1[C]([NH])COC1=O	
InChI=1S/C4H6N2O2/c1-6-3(5)2-8-4(6)7/h5H,2H2,1H3	InChI=1S/C4H6N2O2/c1-6-3(5)2-8-4(6)7/h5H,2H2,1H3
