15
gdb 27131	3.22067	1.45219	1.00889	4.1036	72.45	-0.1771	-0.0039	0.1732	1101.7938	0.113661	-453.969622	-453.961747	-453.960802	-454.002646	29.651	
O	 0.5004344301	 1.0325743973	-0.8647443454	-0.456328
C	 0.2247469536	-0.2078723364	-0.4160915123	 0.221761
C	-0.144185779	-1.3545669026	-1.1014661741	 0.240466
N	-0.3379305424	-2.3697710139	-0.1893863463	-0.298698
C	-0.0962764484	-1.8949265606	 1.0701060809	-0.084168
C	 0.2549113187	-0.5706905814	 0.9631363033	-0.219818
O	-0.4056308651	-1.7207235647	-2.4115978741	-0.218902
C	-0.0305067565	-1.0063151566	-3.4683272506	 0.130093
N	 0.5623054543	 0.1155396567	-3.4186209099	-0.476131
H	 0.6038304042	 0.9553941925	-1.8399773432	 0.30743
H	-0.5976886231	-3.3059087105	-0.4427298119	 0.264267
H	-0.1915894943	-2.533924104	 1.9322561645	 0.120046
H	 0.5086508133	 0.1002040307	 1.7682082989	 0.101983
H	-0.3204329884	-1.5406606208	-4.3747640764	 0.124254
H	 0.7492711331	 0.4760060545	-4.3494402333	 0.243745
33.21	191.6391	253.7807	271.5067	304.7366	330.3265	356.2507	456.19	598.072	604.8921	656.3803	703.3895	717.4363	750.1142	789.8922	796.4296	812.0868	902.181	1013.2088	1072.953	1084.6461	1114.231	1165.3678	1249.7347	1309.151	1337.6303	1404.7994	1422.026	1487.1616	1498.3624	1564.3893	1639.4294	1706.7149	3122.9701	3257.2312	3277.858	3393.8102	3544.6033	3696.6354
OC1=C(NC=C1)OC=N	Oc1c([nH]cc1)O[CH][NH]	
InChI=1S/C5H6N2O2/c6-3-9-5-4(8)1-2-7-5/h1-3,6-8H	InChI=1S/C5H6N2O2/c6-3-9-5-4(8)1-2-7-5/h1-3,6-8H
