19
gdb 92236	2.75231	1.75128	1.36562	1.6904	73.37	-0.2245	0.0658	0.2903	983.5788	0.160697	-422.992278	-422.984862	-422.983918	-423.023904	30.215	
O	 0.1175643356	 1.4400821461	-0.0532625189	-0.422066
C	 0.05467297	 0.0332055111	-0.0006131255	 0.113424
C	 0.36031347	-0.6835314901	 1.3509461406	-0.302395
C	-0.9835163502	-1.4579533102	 1.2177548654	 0.115523
O	-1.9380814059	-1.3052166181	 2.2568673089	-0.265959
C	-2.8524930853	-0.2908660873	 1.9235825642	 0.100649
C	-2.360480511	 1.1226426354	 1.8059552873	-0.317929
C	-2.5454124188	 0.2744850662	 0.5580283703	-0.068834
C	-1.3889309697	-0.547557774	 0.0146616188	-0.08038
H	 1.0452467534	 1.6970870364	-0.0567463915	 0.283419
H	 0.6352161295	-0.4102917355	-0.8219820994	 0.066736
H	 1.268232868	-1.2913038128	 1.3844525249	 0.094575
H	 0.3556158062	-0.0021386066	 2.20409917	 0.114239
H	-0.862177704	-2.5263574992	 1.0187116941	 0.078658
H	-3.8548166054	-0.5090132168	 2.2754665358	 0.095025
H	-3.0891603186	 1.9129756958	 1.9563396068	 0.109828
H	-1.3600591826	 1.3741993665	 2.1301536123	 0.125244
H	-3.3362440773	 0.5461779189	-0.1301944655	 0.089848
H	-1.687059014	-1.046648946	-0.9095569086	 0.070395
110.6359	180.8347	258.837	266.4297	376.5842	413.4508	436.6877	554.4829	629.0153	680.457	718.2312	747.9373	796.2197	819.4311	854.1764	911.1974	917.9545	954.8765	977.3995	1009.2693	1031.3381	1044.32	1077.5894	1083.3002	1096.0853	1126.3916	1151.6271	1173.0807	1194.9368	1212.6686	1215.0844	1247.6897	1260.9489	1312.9079	1332.8969	1338.0435	1365.7982	1389.7686	1427.5766	1467.9191	1492.5762	2989.6065	3060.2896	3067.3702	3085.3578	3129.2448	3141.3121	3168.8512	3183.2134	3241.3533	3814.3662
OC1CC2OC3CC3C12	O[C@H]1C[C@H]2O[C@H]3C[C@H]3[C@@H]12	
InChI=1S/C7H10O2/c8-4-2-6-7(4)3-1-5(3)9-6/h3-8H,1-2H2	InChI=1S/C7H10O2/c8-4-2-6-7(4)3-1-5(3)9-6/h3-8H,1-2H2/t3-,4+,5+,6-,7+/m1/s1
