23
gdb 112699	2.9182	1.08853	0.88431	1.5756	89.44	-0.2246	0.0245	0.2491	1440.179	0.204187	-388.317732	-388.307579	-388.306635	-388.352835	37.655	
C	-0.0322858837	 1.5215656937	-0.238315614	-0.379577
C	-0.0211918338	-0.0030404768	-0.105790853	-0.172658
C	-1.4170617599	-0.5870651802	 0.143534889	 0.095633
O	-2.2926612573	-0.2536772215	-0.9406623515	-0.291729
C	-2.935031363	-1.4217751615	-1.4543757494	 0.050895
C	-2.7548045186	-1.4824324435	-2.9716934809	-0.394157
C	-2.3213970037	-2.5742794126	-0.6874826339	 0.308676
C	-2.6949326433	-3.9980918525	-0.9475102224	-0.496725
C	-1.4722696063	-2.0876903813	 0.2133244674	-0.228673
H	 0.9714220388	 1.9098523055	-0.4360923695	 0.106255
H	-0.6879697189	 1.8273501107	-1.0577565621	 0.134067
H	-0.3996041991	 1.9950787696	 0.6793118604	 0.109676
H	 0.3854574775	-0.461098665	-1.0152919884	 0.094343
H	 0.6309175411	-0.3062154118	 0.7239479021	 0.087998
H	-1.8165494432	-0.1357073829	 1.0704511767	 0.070704
H	-4.017125072	-1.3598888061	-1.2369693031	 0.072125
H	-1.6975358673	-1.5995923786	-3.2284871355	 0.116692
H	-3.3177564512	-2.318238731	-3.40021431	 0.109805
H	-3.1208812734	-0.5574061186	-3.4256448308	 0.125823
H	-2.4410217845	-4.2999385409	-1.970861162	 0.131797
H	-2.1854726262	-4.676975039	-0.2589392729	 0.126638
H	-3.776351403	-4.1496964353	-0.8366471183	 0.127787
H	-0.8897031989	-2.6641718903	 0.9224082921	 0.094602
62.4928	101.8959	122.9677	172.9015	213.4342	226.0895	245.8447	274.3882	320.4381	367.1006	429.3766	463.3412	564.3299	622.6145	717.2215	789.0335	799.3973	844.2722	875.7634	908.9858	975.9665	991.4411	1033.039	1034.8747	1056.4301	1085.5816	1106.9557	1117.6019	1125.5699	1144.7958	1215.6268	1281.2562	1287.9181	1315.827	1347.5844	1366.8391	1369.1459	1393.0582	1398.5512	1407.2731	1415.7276	1475.8894	1479.3163	1485.8199	1492.9813	1495.9859	1496.9247	1509.314	1733.1147	2925.3062	2930.3479	3020.2934	3021.1913	3035.0023	3036.2679	3062.7815	3067.5404	3099.9508	3109.5456	3114.4645	3119.4627	3122.255	3201.2116
CCC1OC(C)C(C)=C1	CC[C@H]1O[C@@H](C)C(=C1)C	
InChI=1S/C8H14O/c1-4-8-5-6(2)7(3)9-8/h5,7-8H,4H2,1-3H3	InChI=1S/C8H14O/c1-4-8-5-6(2)7(3)9-8/h5,7-8H,4H2,1-3H3/t7-,8+/m0/s1
