21
gdb 117791	2.56221	1.0065	0.86756	3.9591	79.81	-0.2406	0.0302	0.2708	1449.8457	0.18293	-416.574352	-416.563533	-416.562588	-416.610094	38.99	
C	 0.027860796	 1.477586992	 0.0864995547	-0.314072
N	-0.0034598551	 0.0262681989	-0.0541533467	-0.298082
C	-1.3467658473	-0.5316510432	-0.0658943803	-0.154576
C	-1.2996138757	-2.0793114975	 0.0227929993	 0.043211
N	-0.5659002059	-2.57337305	 1.1949984785	-0.522997
C	-2.7400476293	-2.6721348851	 0.0562616943	-0.171602
N	-2.8365980716	-4.1203947019	 0.0561161733	-0.506705
C	-0.617828031	-2.5849438401	-1.1876702007	 0.30829
N	-0.1070380527	-2.9442950448	-2.1605898157	-0.354971
H	 1.0631545453	 1.8255535905	 0.0329060447	 0.126858
H	-0.5571821063	 2.017364404	-0.6778519512	 0.102736
H	-0.3690491894	 1.7591016652	 1.0683121185	 0.123827
H	 0.4740307757	-0.2401529198	-0.9102247899	 0.23622
H	-1.8757192991	-0.1699641545	 0.8254445996	 0.10177
H	-1.9465932663	-0.2258848397	-0.9424152926	 0.094629
H	 0.318063604	-2.0705623749	 1.2433307737	 0.24641
H	-1.0863061016	-2.2980382852	 2.0257363508	 0.229225
H	-3.2139425079	-2.2829421276	 0.9680167538	 0.1059
H	-3.3080089162	-2.2752889128	-0.7910959193	 0.120131
H	-2.5309789133	-4.4864468819	-0.841213837	 0.241857
H	-2.1934794724	-4.4958298015	 0.7482101123	 0.241942
76.4636	107.5054	118.5791	135.6648	177.328	207.1507	251.7012	261.2953	306.5144	334.3718	340.5126	382.5734	412.6403	469.0021	592.8514	666.7489	724.8084	800.0833	861.6673	897.2655	923.2378	949.7431	971.3625	1020.1374	1082.3237	1112.3286	1141.0633	1142.9141	1173.2489	1196.8583	1232.8816	1295.5558	1346.7436	1363.0344	1390.7272	1407.0879	1459.7969	1480.2852	1489.6303	1492.1009	1505.6916	1520.1331	1663.6843	1676.7092	2349.5973	2937.6347	2959.0969	3015.6548	3040.1039	3059.9151	3084.0886	3109.1296	3467.7208	3490.7432	3510.9069	3544.491	3566.0515
CNCC(N)(CN)C#N	CNC[C@@](N)(CN)C#N	
InChI=1S/C5H12N4/c1-9-4-5(8,2-6)3-7/h9H,2,4,6,8H2,1H3	InChI=1S/C5H12N4/c1-9-4-5(8,2-6)3-7/h9H,2,4,6,8H2,1H3/t5-/m1/s1
