21
gdb 77462	2.3539	1.41316	1.16881	0.7929	79.21	-0.2344	0.0628	0.2972	1167.866	0.179977	-424.197847	-424.187861	-424.186917	-424.23189	37.77	
C	 0.0424255129	 1.6069475601	-0.1039616062	-0.500774
C	 0.0968120994	 0.1085082075	-0.0263893094	 0.270311
C	 0.5916819229	-0.8195212275	-1.1457115863	-0.335495
C	 1.1897334095	-1.7914305142	-0.0780441245	 0.100268
O	 2.5888854399	-1.9712115785	-0.1383840051	-0.434948
C	 0.6858060324	-0.8581648758	 1.0349435402	 0.204817
C	 1.3777641325	-0.6304138044	 2.3472712057	-0.507918
C	-0.8120221061	-0.6978052341	 0.8562748087	 0.003754
O	-1.4907929065	 0.0520923188	 1.8243210048	-0.432338
H	 1.0229486878	 2.0310100425	-0.3490884389	 0.106236
H	-0.6593825802	 1.9289666316	-0.8833987646	 0.120247
H	-0.294907182	 2.0364506714	 0.8419469365	 0.138514
H	-0.1687598544	-1.2191646995	-1.8267136822	 0.094325
H	 1.394512421	-0.3758600833	-1.7434157113	 0.097167
H	 0.7733611637	-2.8052377548	-0.0648024243	 0.079266
H	 2.9985232487	-1.1000527492	-0.1823757925	 0.276916
H	 2.4347015949	-0.3815860073	 2.2081111483	 0.114112
H	 0.9077807648	 0.1866729195	 2.9012605151	 0.126074
H	 1.3426823294	-1.5315068774	 2.9733312975	 0.118451
H	-1.4040889574	-1.5132644388	 0.4270163283	 0.071023
H	-1.5624744829	-0.4829135964	 2.6217704404	 0.289993
112.2257	149.8052	163.6717	182.1435	225.5588	239.007	258.1301	289.2599	324.7053	340.5366	421.3229	458.6244	485.5259	554.8889	646.7919	668.1151	739.8598	838.9481	870.2154	917.8772	969.2999	982.5448	1050.142	1060.6226	1084.317	1091.9336	1123.5084	1160.6001	1196.6716	1233.1819	1242.5834	1249.5337	1272.8215	1293.9785	1331.685	1366.7729	1405.1383	1419.6894	1430.5258	1453.0457	1483.9935	1488.0779	1493.5755	1494.7372	1504.1384	3020.8523	3022.5335	3028.7829	3030.4522	3044.0905	3074.9672	3080.3181	3086.1015	3113.8893	3125.7161	3798.124	3804.5368
CC12CC(O)C1(C)C2O	C[C@@]12C[C@@H](O)[C@]1(C)[C@H]2O	
InChI=1S/C7H12O2/c1-6-3-4(8)7(6,2)5(6)9/h4-5,8-9H,3H2,1-2H3	InChI=1S/C7H12O2/c1-6-3-4(8)7(6,2)5(6)9/h4-5,8-9H,3H2,1-2H3/t4-,5+,6+,7-/m1/s1
