17
gdb 125237	3.01496	1.38427	0.95994	4.0315	79.6	-0.2295	-0.0525	0.177	1195.0328	0.136839	-418.066012	-418.057718	-418.056774	-418.098713	31.287	
C	-0.0346302629	 1.520593	-0.0010231705	-0.498144
C	-0.0060606135	 0.0163221083	-0.0155387137	 0.280017
C	-0.0215800962	-0.6845940922	-1.1793163335	-0.308156
C	 0.0057874907	-2.1358955672	-1.1993675705	 0.427382
O	-0.0045415984	-2.8632100184	-2.1778756602	-0.396102
N	 0.0482743267	-2.6700828334	 0.0923078873	-0.273043
N	 0.0649946922	-2.0224052377	 1.26301102	-0.248645
C	 0.0391479329	-0.7181999774	 1.2323058071	 0.27406
C	 0.0588599355	-0.0174204023	 2.5627658838	-0.479797
H	 0.8493197947	 1.92963444	 0.5011227626	 0.141828
H	-0.0671494989	 1.921233048	-1.0162354568	 0.135885
H	-0.908112238	 1.8958134887	 0.5440346118	 0.141844
H	-0.0550825359	-0.191956904	-2.1449244562	 0.120366
H	 0.0693825687	-3.6792119321	 0.1600103096	 0.271906
H	 0.0925716764	-0.7587843897	 3.3620990186	 0.146429
H	 0.9298694342	 0.6410425156	 2.6585630474	 0.132093
H	-0.8304264583	 0.6079971638	 2.7020823632	 0.132077
111.0768	151.4545	193.1482	212.6599	292.0509	327.9053	338.6458	431.9432	469.5991	514.6199	547.6692	615.5069	722.8657	738.3196	755.6625	774.514	914.8227	936.3254	1017.0292	1028.895	1050.8497	1074.3278	1147.613	1239.1894	1247.2156	1283.9444	1408.0537	1412.0048	1424.7619	1430.1737	1474.1624	1475.0792	1489.7106	1490.6942	1574.1574	1663.6655	1787.98	3031.01	3034.6211	3080.8994	3087.0321	3128.4782	3145.4938	3196.5782	3593.1751
CC1=CC(=O)NN=C1C	Cc1cc(=O)[nH]nc1C	
InChI=1S/C6H8N2O/c1-4-3-6(9)8-7-5(4)2/h3H,1-2H3,(H,8,9)	InChI=1S/C6H8N2O/c1-4-3-6(9)8-7-5(4)2/h3H,1-2H3,(H,8,9)
