18
gdb 51410	4.78	0.98049	0.96407	3.099	80.12	-0.2389	0.0045	0.2434	1269.8413	0.148707	-401.907745	-401.900072	-401.899128	-401.941026	29.432	
N	-0.0246551197	 1.2750561733	 0.1171013529	-0.442162
C	-0.0027214783	 0.0139943457	 0.0806859894	 0.114386
O	-1.1478114528	-0.6763646405	-0.0857254503	-0.205904
C	-1.0814883886	-2.0873182642	-0.0073556642	 0.183586
C	-1.742262977	-2.7280200416	 1.2777780693	-0.113495
C	-3.1120822792	-2.4067637562	 0.5878567164	-0.218169
C	-2.3021671595	-2.7918797952	-0.6971850132	-0.106063
C	-1.9266427128	-4.2403609152	-0.3840083344	-0.091115
C	-1.5622969619	-4.1974485236	 0.9040761427	-0.089288
H	 0.9218900123	 1.633589536	 0.2249672258	 0.229094
H	 0.8858253997	-0.6277797732	 0.1607816813	 0.086263
H	-0.0828320443	-2.4472865069	-0.2777089329	 0.079712
H	-1.4917123655	-2.393318028	 2.2834994819	 0.070357
H	-3.9585468465	-3.0446142214	 0.8495101635	 0.095645
H	-3.376399496	-1.3485349007	 0.6277444939	 0.124696
H	-2.6210369783	-2.5229354564	-1.7028345996	 0.073462
H	-1.9278704117	-5.0670259546	-1.079837592	 0.104937
H	-1.1818341097	-4.9803509772	 1.5445848793	 0.104058
33.3424	104.564	152.2302	317.7616	367.0169	393.7846	493.1062	541.6589	672.7912	711.6928	725.3456	822.0416	837.2377	848.2962	909.2482	916.5703	922.9052	942.3757	958.3271	1001.728	1031.0101	1044.5749	1054.5643	1084.2536	1116.2737	1131.5599	1149.4379	1206.6526	1224.8899	1235.4505	1250.3126	1255.4342	1298.1028	1331.388	1370.8005	1426.0766	1492.1852	1616.8123	1744.2699	3018.5073	3051.434	3073.751	3129.3538	3135.3364	3144.5242	3221.1099	3247.1929	3517.6001
N=COC1C2CC1C=C2	[NH][CH]O[C@H]1[C@H]2C[C@@H]1C=C2	
InChI=1S/C7H9NO/c8-4-9-7-5-1-2-6(7)3-5/h1-2,4-8H,3H2	InChI=1S/C7H9NO/c8-4-9-7-5-1-2-6(7)3-5/h1-2,4-8H,3H2/t5-,6+,7+
