22
gdb 122898	4.90737	0.50796	0.47549	3.576	84.37	-0.2993	0.013	0.3123	2304.6567	0.192312	-404.369516	-404.358463	-404.357519	-404.406848	38.715	
C	-0.0461091375	 1.5951407176	-0.0392662313	-0.380834
C	 0.0082457616	 0.0652500318	-0.0196973792	-0.164897
C	 0.7188146823	-0.4954283847	 1.2170997775	-0.167542
C	 0.7728281524	-2.026461955	 1.242432769	-0.185894
C	 1.4816799111	-2.5771420526	 2.4833349904	-0.207895
C	 1.561832801	-4.1140026938	 2.4813163962	-0.025153
O	 2.2474073757	-4.6403275531	 1.3586876361	-0.405915
C	 2.1611596833	-4.6045267037	 3.7412217482	 0.256738
N	 2.6601324733	-4.9685757169	 4.7179743506	-0.316135
H	 0.9606510742	 2.0275206585	-0.0301585695	 0.114459
H	-0.5587136234	 1.9651822293	-0.9325078975	 0.113721
H	-0.579314678	 1.9835259441	 0.8355564735	 0.114895
H	-1.011656362	-0.3390173192	-0.0644847282	 0.096467
H	 0.5166002433	-0.29664217	-0.9230572137	 0.096919
H	 1.7408940263	-0.0936963294	 1.2614076276	 0.093904
H	 0.2131342294	-0.1319904769	 2.1225636754	 0.095041
H	-0.2488702391	-2.429044317	 1.2031432448	 0.098004
H	 1.2807069272	-2.3982265754	 0.345438482	 0.112392
H	 2.5014767406	-2.1749172851	 2.5527659643	 0.106547
H	 0.9630008054	-2.2586545334	 3.3956674748	 0.120806
H	 0.5484678582	-4.5267090315	 2.4131511814	 0.139798
H	 3.1662044444	-4.3505481938	 1.4044517477	 0.294575
52.2698	61.5689	79.8574	134.491	143.9654	170.5934	218.7097	248.7921	268.5766	329.7328	356.7113	391.0721	482.4114	577.5786	593.0407	734.5898	761.7719	833.6155	879.8466	910.9836	951.7968	998.5523	1022.8841	1051.1705	1069.2812	1096.1913	1125.0333	1140.0724	1223.9017	1251.7349	1276.342	1303.1487	1320.323	1333.189	1342.5677	1356.5269	1392.766	1402.7081	1413.9452	1420.2821	1478.4692	1484.2312	1490.4371	1500.354	1504.2603	1514.3318	2353.8299	3003.4484	3012.2465	3017.8076	3024.1371	3030.1416	3030.6212	3050.4832	3053.1947	3064.0726	3082.9495	3096.8903	3103.1797	3797.5405
CCCCCC(O)C#N	CCCCC[C@@H](O)C#N	
InChI=1S/C7H13NO/c1-2-3-4-5-7(9)6-8/h7,9H,2-5H2,1H3	InChI=1S/C7H13NO/c1-2-3-4-5-7(9)6-8/h7,9H,2-5H2,1H3/t7-/m1/s1
