15
gdb 74138	2.07766	1.78	0.9802	5.9425	73.09	-0.239	-0.0347	0.2043	1131.7389	0.113729	-454.010409	-454.00244	-454.001495	-454.043149	30.053	
N	 0.065102934	 1.373284851	 0.1594661499	-0.563143
C	-0.0327565672	 0.0239463881	 0.0059445904	 0.373682
C	-1.1961608054	-0.6653657994	 0.0448850778	-0.344356
C	-1.2472704353	-2.1098649254	-0.0158651823	 0.423949
O	-2.2202840999	-2.7931679928	 0.1474990491	-0.333631
O	-0.04757909	-2.7799455192	-0.3164448139	-0.246023
C	 1.1040637191	-2.1176227263	-0.6434647346	 0.3863
N	 2.0246952706	-2.6671886294	-1.3095819954	-0.498237
C	 1.2690513327	-0.7174345051	-0.1091919496	-0.383995
H	 0.9068928943	 1.8398947991	-0.1337136912	 0.266866
H	-0.774461207	 1.9293213553	 0.1349596321	 0.268842
H	-2.1525533786	-0.1756749996	 0.1818221391	 0.105118
H	 1.7567195643	-3.6218609429	-1.5576102959	 0.232987
H	 1.9818274506	-0.195341651	-0.7530009469	 0.147461
H	 1.7282631179	-0.7711883124	 0.8880567914	 0.164181
83.8387	127.57	167.6777	320.4171	347.3497	378.2449	437.7428	455.718	476.9107	553.9499	571.6315	597.8016	628.0305	734.788	851.2246	876.9463	919.5154	937.581	953.185	973.4845	1079.6324	1123.5123	1193.1697	1208.7622	1281.0043	1332.2111	1366.2176	1437.2953	1450.6992	1648.339	1696.8165	1757.4052	1845.0765	3020.6597	3098.1032	3205.502	3470.8407	3598.7261	3713.8781
NC1=CC(=O)OC(=N)C1	NC1=CC(=O)O[C]([NH])C1	
InChI=1S/C5H6N2O2/c6-3-1-4(7)9-5(8)2-3/h2,7H,1,6H2	InChI=1S/C5H6N2O2/c6-3-1-4(7)9-5(8)2-3/h2,7H,1,6H2
