18
gdb 113029	3.51333	1.02389	0.86046	4.5567	78.55	-0.2655	-0.0127	0.2528	1358.0486	0.14722	-401.966687	-401.957867	-401.956922	-402.000918	32.015	
C	-0.1707097492	 1.530298062	-0.0176573448	-0.383518
C	-0.1095402752	 0.0011309539	-0.0021763013	-0.181058
C	 0.8510607788	-0.5435834427	 1.0582123109	 0.084327
O	 0.4171658458	-0.1217494079	 2.3674416489	-0.270402
C	 0.3572287615	-1.2287103682	 3.251162639	-0.060889
C	 0.6129705829	-2.4444965047	 2.3855036022	-0.102534
C	 0.9024639781	-2.0435563404	 1.1555619758	-0.092184
C	 1.3636672379	-1.0995487565	 4.3320195995	 0.266392
N	 2.1413683578	-1.0153599428	 5.1822521449	-0.319798
H	 0.8118334003	 1.9624158761	-0.2374184882	 0.11706
H	-0.8708893646	 1.8861187038	-0.7788485207	 0.114687
H	-0.4954608295	 1.9129319457	 0.9532526845	 0.139336
H	-1.1042857601	-0.4205386445	 0.1839728804	 0.103673
H	 0.2191873999	-0.3741774455	-0.979800944	 0.098426
H	 1.8562918832	-0.1296208288	 0.8721360079	 0.097183
H	-0.6313334996	-1.2541671944	 3.7324345952	 0.13497
H	 0.5770072796	-3.453788654	 2.7714479421	 0.132127
H	 1.1472652324	-2.6762494312	 0.3119974976	 0.122202
55.7984	103.6116	112.1767	193.8523	221.4518	247.4154	343.9014	414.3436	467.336	518.6255	577.1727	721.3275	751.8001	788.0973	827.9089	876.4909	912.4391	938.5981	961.8755	983.9884	1023.1621	1044.7713	1085.0354	1121.1378	1136.7348	1146.1642	1270.4734	1286.092	1306.9387	1338.0147	1348.3015	1372.2463	1393.9381	1411.0534	1475.9095	1496.4567	1508.4815	1692.3149	2355.1985	2964.3604	3001.3699	3026.5013	3039.0173	3067.6669	3106.073	3125.9846	3216.3126	3244.1892
CCC1OC(C=C1)C#N	CC[C@H]1O[C@@H](C=C1)C#N	
InChI=1S/C7H9NO/c1-2-6-3-4-7(5-8)9-6/h3-4,6-7H,2H2,1H3	InChI=1S/C7H9NO/c1-2-6-3-4-7(5-8)9-6/h3-4,6-7H,2H2,1H3/t6-,7+/m1/s1
