21
gdb 88468	2.5111	1.34641	1.26577	1.7666	78.42	-0.2449	0.0769	0.3217	1157.8006	0.180686	-424.19613	-424.186708	-424.185764	-424.230368	35.103	
C	 1.830618717	 0.6466165867	-0.8629740015	-0.436702
C	 1.0096466538	-0.4608605694	-0.2539849158	 0.080407
O	 1.7025704618	-1.5873405161	 0.3128602446	-0.270939
C	 0.9067015938	-0.7827180842	 1.1804846032	 0.010713
C	 1.6041076083	-0.0882997677	 2.3367447644	 0.385661
C	 0.6968622695	 0.9567862539	 2.9689928632	-0.445011
C	 2.2965904317	-1.1001094666	 3.2949399098	-0.322352
C	 3.6052577411	-0.5370970899	 2.7143691834	-0.066047
O	 2.8912461372	 0.4775266593	 1.9763728925	-0.310114
H	 2.6651032207	 0.9154223042	-0.2182988384	 0.162516
H	 2.2105895056	 0.3296849714	-1.8404073862	 0.119891
H	 1.2018819563	 1.5296294901	-1.025350554	 0.113286
H	 0.1515338852	-0.7643212467	-0.8598522611	 0.084313
H	-0.0179145122	-1.2697384526	 1.508040571	 0.081583
H	-0.2406924905	 0.5057144756	 3.3119246025	 0.118559
H	 1.1926202356	 1.4197057434	 3.8261987426	 0.122178
H	 0.4548409231	 1.7422315205	 2.2458887519	 0.128851
H	 2.1363015673	-0.8871339863	 4.353550055	 0.106271
H	 2.096758116	-2.1537135462	 3.0962103494	 0.120325
H	 4.3115081251	-0.0961650175	 3.4262865172	 0.100875
H	 4.1378819935	-1.2203515822	 2.0441083264	 0.115735
64.3632	98.5447	168.8688	203.7912	216.5065	219.6473	274.8389	337.8942	360.0234	403.6254	514.3289	558.3585	696.5987	765.46	786.3917	826.7548	881.8445	898.3168	927.8554	978.7611	986.3958	1004.9738	1028.3956	1036.0247	1093.7769	1146.8307	1163.5742	1178.6532	1182.3653	1209.3044	1218.9808	1262.4564	1267.7177	1310.5624	1354.4996	1392.9663	1404.8569	1418.4185	1465.6653	1481.9098	1483.7465	1492.8673	1503.7631	1509.4425	1524.5539	3030.4518	3034.8416	3035.8008	3048.7579	3071.6374	3074.4057	3079.8209	3090.6637	3106.2049	3119.3425	3138.039	3176.3965
CC1OC1C1(C)CCO1	C[C@H]1O[C@H]1[C@@]1(C)CCO1	
InChI=1S/C7H12O2/c1-5-6(9-5)7(2)3-4-8-7/h5-6H,3-4H2,1-2H3	InChI=1S/C7H12O2/c1-5-6(9-5)7(2)3-4-8-7/h5-6H,3-4H2,1-2H3/t5-,6-,7-/m1/s1
