14
gdb 16740	5.99288	1.53272	1.3293	2.7948	65.49	-0.2293	-0.0666	0.1627	888.0381	0.108082	-378.72441	-378.717687	-378.716743	-378.75529	25.238	
O	-0.8187738651	 1.2526397329	 0.1704627625	-0.273207
C	 0.2771081529	 0.8647569106	-0.1625081104	 0.11124
C	 1.4730765062	 1.7322569352	-0.1453906149	 0.258778
N	 2.6574686519	 1.3025892202	-0.4439384513	-0.280737
C	 3.5508354969	 2.4072939853	-0.2770257528	-0.010626
C	 3.335005515	 3.6448573238	-1.1290998982	-0.295336
C	 2.6945682031	 3.6093558124	 0.2253931517	-0.022861
N	 1.378619512	 3.0419903134	 0.2478521865	-0.323898
H	 0.483174476	-0.1744965017	-0.4812360043	 0.108864
H	 4.5553993788	 2.1745429441	 0.0568636988	 0.103237
H	 4.2014016192	 4.2871243785	-1.2397272416	 0.122686
H	 2.6997525237	 3.5677534372	-2.0051904487	 0.126211
H	 2.961409461	 4.3027494737	 1.0138438875	 0.109253
H	 0.6167811584	 3.3713819843	 0.8166112453	 0.266397
107.6434	191.3576	240.404	299.131	410.669	440.3339	525.17	605.5393	696.2971	745.1566	766.3267	833.3299	901.4482	960.6104	992.5222	1031.1259	1045.7401	1049.765	1077.6774	1101.2261	1150.7985	1181.6377	1283.3355	1333.0751	1363.1194	1387.5542	1459.346	1496.2482	1624.215	1796.267	2966.2919	3131.9712	3173.9403	3183.3535	3226.5858	3663.204
O=CC1=NC2CC2N1	O=CC1=N[C@H]2C[C@H]2N1	
InChI=1S/C5H6N2O/c8-2-5-6-3-1-4(3)7-5/h2-4H,1H2,(H,6,7)	InChI=1S/C5H6N2O/c8-2-5-6-3-1-4(3)7-5/h2-4H,1H2,(H,6,7)/t3-,4+
