17
gdb 127659	2.54855	1.80579	1.07093	1.9157	80.62	-0.219	-0.0595	0.1596	1097.0056	0.137027	-414.202784	-414.194481	-414.193537	-414.235646	30.924	
C	-0.4516755668	 1.3300762192	-0.0500528986	-0.342448
N	 0.0182274949	-0.0428282628	-0.0088694531	-0.056709
N	 0.2108736004	-0.6312715594	-1.2100459131	-0.208802
C	 0.6300745599	-1.8566037506	-1.1913237321	 0.060666
N	 0.8981482036	-2.6173912286	-0.0783550166	-0.312672
C	 0.7156451848	-2.0591975089	 1.077021364	 0.315195
C	 0.9861650816	-2.8237994487	 2.3316236892	-0.457591
C	 0.2412889858	-0.6685756597	 1.2180228953	 0.331741
N	 0.0744906416	-0.1552146516	 2.3845684959	-0.563586
H	 0.2636014609	 1.999618818	 0.4415922608	 0.144708
H	-0.5546367277	 1.6074611364	-1.0971295975	 0.16155
H	-1.4202796447	 1.4235926756	 0.4546028735	 0.144714
H	 0.783214415	-2.3245475207	-2.1565105511	 0.132012
H	 1.3261195286	-3.8299375499	 2.0862758888	 0.134069
H	 1.7353584579	-2.3018974353	 2.9359033602	 0.152648
H	 0.0837020133	-2.8629494071	 2.950277725	 0.152711
H	-0.254730999	 0.8071780442	 2.3478374592	 0.211794
79.16	153.2548	191.2381	219.093	255.7572	301.9163	356.2722	447.9375	506.7502	530.5733	554.5524	602.5273	708.532	768.3286	796.5854	900.9452	916.0851	916.3452	988.4104	1049.6096	1050.4621	1147.095	1194.8382	1208.3811	1285.7221	1295.7185	1375.1657	1401.7303	1414.8756	1438.2331	1455.2842	1460.2234	1481.3475	1508.9216	1565.0647	1637.0226	1676.785	3024.8739	3047.5195	3079.4319	3101.4581	3159.4855	3175.5681	3208.8883	3510.1223
CN1N=CN=C(C)C1=N	Cn1ncnc(C)c1[NH]	
InChI=1S/C5H8N4/c1-4-5(6)9(2)8-3-7-4/h3,6H,1-2H3	InChI=1S/C5H13N4/c1-4-5(6)9(2)8-3-7-4/h4-8H,3H2,1-2H3
