14
gdb 5651	5.11034	2.13446	1.51967	1.0087	70.55	-0.1924	-0.0131	0.1794	781.2602	0.109825	-345.434932	-345.429249	-345.428305	-345.464462	22.957	
C	-0.0548355239	 1.533258097	 0.0109241569	-0.415857
C	 1.4337920705	 1.8694471932	-0.0017528254	-0.079664
C	 2.1902284089	 0.7495389363	-0.0150485885	-0.211096
C	 1.2675542191	-0.3664356846	-0.011959768	 0.332115
C	-0.0370566944	 0.0319990587	 0.002830194	 0.236801
C	-0.810452146	-1.1668013698	 0.0039244736	-0.362801
C	 0.1005621643	-2.1860953039	-0.0102609541	-0.018057
O	 1.3903577865	-1.7098081924	-0.0203005617	-0.203004
H	-0.5475105944	 1.9572241945	 0.8957103313	 0.132077
H	-0.5645457875	 1.9664653661	-0.8596221581	 0.132081
H	 1.8039694639	 2.8859294192	 0.0000427938	 0.102351
H	 3.2697849715	 0.6905729507	-0.0258569368	 0.11104
H	-1.8832372477	-1.2859289631	 0.0136944136	 0.111495
H	 0.0077876892	-3.259403302	-0.0150194307	 0.132518
196.1577	271.5556	422.8287	433.7508	599.2699	643.3702	673.1693	698.7409	714.1551	744.3827	823.9695	855.253	921.5646	924.8818	932.2631	934.3313	1041.7469	1058.1055	1131.8029	1135.7097	1165.0486	1219.9635	1272.6095	1315.282	1408.1297	1434.391	1486.9386	1489.9424	1558.9151	1620.4306	3030.26	3057.5974	3218.0435	3240.312	3247.8272	3284.9105
C1C=CC2=C1C=CO2	C1C=Cc2c1cco2	
InChI=1S/C7H6O/c1-2-6-4-5-8-7(6)3-1/h1,3-5H,2H2	InChI=1S/C7H6O/c1-2-6-4-5-8-7(6)3-1/h1,3-5H,2H2
