14
gdb 130422	2.95862	1.34683	0.93527	1.8999	66.55	-0.2603	-0.0809	0.1794	1167.5458	0.101144	-469.993239	-469.985183	-469.984239	-470.026862	28.45	
N	-0.1303201265	 1.414863593	-0.2415964868	-0.483322
C	-0.0132551618	-0.0091319081	-0.0165132051	-0.252745
C	 0.8252784629	-0.4282130937	 1.1793267455	 0.424695
N	 1.398880973	 0.4210638619	 1.9493300309	-0.363184
C	 2.1463666515	-0.0787315582	 3.0203993639	 0.374902
O	 2.7306125544	 0.622448043	 3.8128634084	-0.323686
C	 2.1737284745	-1.5587645972	 3.1222278951	-0.046664
N	 1.5849899569	-2.3732708938	 2.3294353937	-0.042471
O	 0.8615169571	-1.7738061757	 1.2871971285	-0.245787
H	-0.5176489894	 1.8596942747	 0.5857145437	 0.244515
H	 0.7952848699	 1.8198632345	-0.3491656755	 0.244501
H	-1.0089510709	-0.4523658363	 0.1098232742	 0.151314
H	 0.4133581141	-0.4954890931	-0.9026721963	 0.151314
H	 2.7346465943	-2.019951191	 3.9303927498	 0.166618
55.5798	91.18	154.3167	183.0463	251.0005	403.4805	408.5883	471.7629	545.5336	590.4542	624.4904	720.2099	789.293	872.8238	911.9926	914.5676	955.9649	959.2803	1001.8254	1150.621	1173.4768	1189.7028	1277.132	1308.2613	1383.3364	1390.3707	1453.4345	1633.2748	1677.9852	1681.8974	1806.5601	3036.0788	3070.0666	3187.9291	3501.7285	3569.7977
NCC1=NC(=O)C=NO1	NCc1nc(=O)cno1	
InChI=1S/C4H5N3O2/c5-1-4-7-3(8)2-6-9-4/h2H,1,5H2	InChI=1S/C4H5N3O2/c5-1-4-7-3(8)2-6-9-4/h2H,1,5H2
