19
gdb 41093	2.96772	1.91524	1.75904	1.7105	77.53	-0.2281	0.0595	0.2876	882.2301	0.161492	-385.794781	-385.788287	-385.787343	-385.8251	27.896	
C	-0.0101806658	 1.4943446134	-0.028197383	-0.210548
C	 1.5461521499	 1.5352972237	 0.007209412	-0.104494
C	 2.1040151874	 1.2987182605	 1.449149346	-0.302788
C	 1.6878437715	-0.1815353886	 1.280281133	 0.409418
C	 0.2103001616	-0.5896845836	 1.487994581	-0.302788
C	-0.0544324473	-0.0608033976	 0.040040437	-0.104494
C	 1.4939776536	-0.018071007	-0.2242527013	 0.193432
C	 2.573844595	-1.1029363354	-0.3200022951	-0.202167
O	 2.6982888167	-1.1977170057	 1.1394772159	-0.340475
H	-0.5425110053	 2.04429225	 0.7555652045	 0.09236
H	-0.3680067271	 1.8330947618	-1.0042750196	 0.106217
H	 2.0311690906	 2.2748558215	-0.6319685835	 0.06564
H	 3.1934822021	 1.3794468672	 1.4886294002	 0.11278
H	 1.6695661477	 1.8816173543	 2.2673763699	 0.093875
H	 0.1275702159	-1.6778640387	 1.5515181128	 0.112779
H	-0.354519059	-0.1367889874	 2.3088952973	 0.093875
H	-0.8082353395	-0.5565946185	-0.573725888	 0.06564
H	 2.2547366972	-2.055890814	-0.7586521842	 0.11087
H	 3.5184016749	-0.795757416	-0.7845657749	 0.11087
216.7031	269.5178	309.6877	393.8646	399.4093	479.4303	539.7681	652.5461	689.4297	783.333	801.622	822.3668	841.3385	886.9458	910.7095	924.8813	934.2314	943.8396	972.852	990.699	1039.0428	1081.6651	1118.6853	1123.8177	1144.0947	1163.7454	1171.0712	1180.982	1218.958	1224.1743	1242.9233	1256.2566	1274.8187	1289.1281	1303.9319	1311.9326	1333.512	1470.244	1471.1013	1488.0134	1507.6373	3016.775	3039.308	3045.2808	3048.1802	3062.5967	3086.8485	3086.8661	3101.7556	3109.0062	3111.4359
C1C2CC34CC1C23CO4	C1[C@H]2C[C@@]34C[C@@H]1[C@@]23CO4	
InChI=1S/C8H10O/c1-5-2-7-3-6(1)8(5,7)4-9-7/h5-6H,1-4H2	InChI=1S/C8H10O/c1-5-2-7-3-6(1)8(5,7)4-9-7/h5-6H,1-4H2/t5-,6+,7+,8+
