21
gdb 81365	2.47912	1.612	1.27261	1.1235	83.01	-0.2293	0.0186	0.2479	1089.0501	0.184216	-387.085986	-387.077931	-387.076987	-387.117896	32.999	
C	-0.1581971559	 1.5530223484	 0.0183466818	-0.401573
C	 0.0406339972	 0.0282397345	 0.0097012125	-0.026028
C	 0.7692798441	-0.4496575904	-1.2316176463	-0.064007
C	 1.8659128273	-1.2008392313	-1.1140490933	-0.084083
C	 2.3478431041	-1.5511632104	 0.2753642719	-0.105375
C	 1.1168955481	-1.9965359332	 1.1251904424	-0.237332
C	 0.7971269252	-0.477342826	 1.2563188171	-0.029087
C	 2.3236521125	-0.23010895	 1.1161486216	 0.156558
O	 2.9201059109	-0.3329230346	 2.3937730996	-0.452462
H	 0.8004713607	 2.0807218334	 0.044564456	 0.119524
H	-0.6945017224	 1.8839370956	-0.8772689859	 0.110787
H	-0.7404514566	 1.8638775091	 0.8922438154	 0.113181
H	-0.9624471204	-0.426988269	 0.0172322488	 0.078586
H	 0.3683625263	-0.1671067285	-2.2017564836	 0.083702
H	 2.4131977507	-1.5578732824	-1.981174963	 0.085299
H	 3.2566075423	-2.1570934945	 0.2875966506	 0.050011
H	 0.3797337347	-2.6360836812	 0.6340086644	 0.089452
H	 1.4152484979	-2.4215000486	 2.0839533306	 0.108058
H	 0.3396586918	-0.1224968603	 2.1832795985	 0.065656
H	 2.6525006458	 0.6769397988	 0.5924625068	 0.059545
H	 3.8727531758	-0.3966709294	 2.270816094	 0.279588
157.2948	190.0571	236.5736	285.1231	309.6273	342.0362	377.1111	393.8841	474.5008	491.7284	595.6077	694.935	739.4953	787.8396	856.9614	894.7722	911.2659	924.5921	935.6485	964.6665	981.4748	1001.9791	1035.4666	1060.4264	1093.2294	1112.2013	1120.3171	1123.8354	1158.0518	1173.0439	1201.0551	1252.8955	1261.9774	1296.3241	1303.8142	1318.1825	1338.1704	1344.9461	1393.6483	1412.2391	1416.82	1484.5674	1495.7482	1500.3448	1693.8571	2973.7068	3010.94	3030.4032	3067.097	3077.7879	3081.9873	3098.2154	3104.3242	3136.6187	3151.8036	3178.6776	3811.6131
CC1C=CC2CC1C2O	C[C@H]1C=C[C@@H]2C[C@H]1[C@H]2O	
InChI=1S/C8H12O/c1-5-2-3-6-4-7(5)8(6)9/h2-3,5-9H,4H2,1H3	InChI=1S/C8H12O/c1-5-2-3-6-4-7(5)8(6)9/h2-3,5-9H,4H2,1H3/t5-,6+,7+,8-/m0/s1
