19
gdb 42335	4.21402	0.95994	0.89418	3.7764	76.98	-0.2347	-0.016	0.2187	1361.2317	0.158847	-423.007137	-422.998301	-422.997357	-423.04247	31.506	
O	 0.1699010241	-0.1061457752	-0.0462577889	-0.324562
C	 0.0895954516	 1.1020591323	-0.0315596954	 0.353531
C	 1.2891426996	 1.9874793808	 0.0277659316	-0.11192
C	 2.4642902971	 1.5005062657	 0.8673459231	-0.245781
C	 2.5681432713	 1.4766900038	-0.6178518282	-0.250567
C	-1.2486032667	 1.8289784667	-0.1050537337	 0.036072
C	-1.652002656	 2.2794928472	-1.5390102175	-0.292127
C	-2.800242388	 1.2651860241	-1.354900938	-0.059538
O	-2.3841155953	 0.9673001107	-0.0059312586	-0.265268
H	 1.1056166976	 3.0565440852	 0.0043732436	 0.086679
H	 3.0173903879	 2.2488986456	 1.4228624668	 0.11936
H	 2.3134937966	 0.5539984733	 1.3735340416	 0.141743
H	 2.4878989791	 0.5125550177	-1.1068404669	 0.139844
H	 3.1982885178	 2.2065767279	-1.1127827222	 0.117976
H	-1.2693802596	 2.6256095693	 0.6524313528	 0.091944
H	-1.9585446519	 3.3226983412	-1.6204118587	 0.118056
H	-0.9321006902	 2.0491752615	-2.3258125721	 0.122335
H	-3.8142713218	 1.6796897954	-1.3869042874	 0.106385
H	-2.7518539034	 0.379674387	-1.9988879421	 0.115839
35.6499	54.0151	76.5423	166.5761	224.5931	271.4027	309.1436	360.5623	641.7532	720.1494	764.2318	798.7313	809.4003	830.8037	833.2861	890.6296	897.6695	951.3921	960.7684	1028.1773	1043.8499	1069.4613	1081.4417	1098.2731	1109.4536	1128.3367	1135.8263	1163.2128	1210.2004	1212.0498	1222.8257	1250.9868	1257.5024	1340.9952	1365.9925	1408.7024	1453.893	1485.3628	1490.6215	1528.8211	1799.7865	3001.2838	3026.6386	3069.0386	3084.4318	3140.7435	3141.6593	3142.4643	3164.661	3228.7321	3243.1613
O=C(C1CC1)C1CCO1	O=C(C1CC1)[C@H]1CCO1	
InChI=1S/C7H10O2/c8-7(5-1-2-5)6-3-4-9-6/h5-6H,1-4H2	InChI=1S/C7H10O2/c8-7(5-1-2-5)6-3-4-9-6/h5-6H,1-4H2/t6-/m1/s1
