16
gdb 10755	3.0078	1.70715	1.45827	3.8882	60.83	-0.2522	-0.0299	0.2223	917.6512	0.126521	-420.853956	-420.84509	-420.844146	-420.887693	31.218	
C	 0.3351939427	 1.3191141099	 0.2064534426	-0.451325
C	-0.1763666001	-0.1086972824	-0.0015766109	 0.213849
O	 0.2213980458	-0.989678659	 1.0387482306	-0.455825
C	-1.711323263	-0.1353708778	 0.0293829704	 0.162514
O	-2.4011411194	 0.6922463595	-0.5040343669	-0.259039
C	 0.24863175	-0.6228318592	-1.381169511	 0.072143
C	 1.3018986885	-1.6303435906	-1.5532230513	-0.183702
O	-0.0764050529	-1.9752359832	-1.6906087342	-0.236182
H	 1.4189039579	 1.37032403	 0.0530390283	 0.114954
H	-0.1513366439	 1.9982721337	-0.4971285912	 0.152128
H	 0.1054621377	 1.6534681058	 1.2218530547	 0.13366
H	 1.1276357904	-0.7789491187	 1.2837216597	 0.288379
H	-2.1276600176	-1.0035011075	 0.5808482893	 0.107468
H	 0.0554384295	 0.0818693028	-2.1908721964	 0.109433
H	 1.88496188	-1.6436751468	-2.4729914823	 0.118945
H	 1.7906060744	-2.0497583565	-0.6768546814	 0.1126
61.5457	69.7142	192.6837	230.4935	232.3056	257.8494	267.0583	331.3445	367.1858	460.7532	526.3757	649.8388	726.0062	856.7633	872.3877	941.0927	950.6363	982.9297	1020.1912	1091.0327	1113.6182	1156.9489	1166.0502	1169.4791	1219.2931	1296.3744	1358.942	1386.413	1403.9545	1414.7459	1489.0592	1496.7025	1514.6861	1836.685	2929.643	3037.5014	3089.4239	3108.7124	3111.8217	3137.6282	3180.6649	3829.6485
CC(O)(C=O)C1CO1	C[C@@](O)(C=O)[C@H]1CO1	
InChI=1S/C5H8O3/c1-5(7,3-6)4-2-8-4/h3-4,7H,2H2,1H3	InChI=1S/C5H8O3/c1-5(7,3-6)4-2-8-4/h3-4,7H,2H2,1H3/t4-,5-/m1/s1
