16
gdb 129777	3.33441	1.52871	1.06942	4.4099	72.62	-0.2055	0.0298	0.2353	1072.7668	0.127712	-434.059702	-434.052332	-434.051388	-434.091291	28.841	
N	 0.0843397485	 1.3961319085	 0.0260730927	-0.598609
C	-0.0782110209	 0.0292948854	 0.0113628964	 0.299646
C	-1.1512936098	-0.8019070968	 0.0798208624	 0.097716
C	-2.6403837579	-0.949019909	 0.1793052647	-0.374177
C	-2.8040982174	-2.4760720875	-0.128138057	-0.160609
N	-1.4980270878	-3.0840413685	 0.2201710984	-0.395833
C	-0.5513066465	-2.0836078828	 0.0972536291	 0.445966
N	 0.7542729889	-2.0968876169	 0.0299906676	-0.305407
O	 1.0638709137	-0.6891169953	-0.0267118923	-0.232108
H	 0.965586649	 1.7020556971	-0.3631946507	 0.264823
H	-0.6997852511	 1.9148731965	-0.34049456	 0.260263
H	-3.0129372765	-0.717707643	 1.1851330843	 0.121943
H	-3.218177752	-0.3458279677	-0.527588969	 0.109318
H	-3.6076805772	-2.9339122414	 0.4547006941	 0.113652
H	-3.0339175318	-2.6151387645	-1.1941998101	 0.105952
H	-1.2882149011	-3.9817912141	-0.1916040409	 0.247463
148.1131	201.4548	231.2641	269.4405	300.1162	384.117	522.9709	544.2857	583.1299	609.101	668.0758	683.2509	728.1435	773.2432	818.234	873.0827	886.3194	934.6541	1039.4853	1044.9481	1078.0987	1116.2215	1195.7371	1235.2395	1248.9229	1309.4769	1314.9805	1385.3263	1404.6387	1482.8121	1503.8069	1522.6884	1615.9558	1646.0324	1736.4186	2998.0256	3022.5221	3071.686	3087.7704	3564.571	3605.5553	3669.1827
NC1=C2CCNC2=NO1	Nc1c2CCNc2no1	
InChI=1S/C5H7N3O/c6-4-3-1-2-7-5(3)8-9-4/h1-2,6H2,(H,7,8)	InChI=1S/C5H7N3O/c6-4-3-1-2-7-5(3)8-9-4/h1-2,6H2,(H,7,8)
