18
gdb 57152	3.20514	0.77223	0.64614	4.1425	85.1	-0.2495	-0.0601	0.1894	1699.8403	0.144851	-401.890787	-401.880921	-401.879977	-401.927323	33.992	
C	-0.0806739767	 1.4193214505	 0.0134111614	-0.387815
C	 0.0247050833	-0.1117516978	 0.1032391719	-0.16539
C	 0.7405166531	-0.5272275922	 1.3089276135	 0.173104
C	 1.3377024399	-0.877292096	 2.2989524173	 0.010096
C	 2.0818859632	-1.2654939644	 3.4685702474	 0.020383
O	 1.7349515284	-2.1179152027	 4.2537057401	-0.228536
N	-1.3204214487	-0.6975108508	 0.0895633603	-0.054292
C	-1.8683912314	-0.9872120216	-1.2344211049	-0.225357
C	-1.414609837	-2.0881494991	-0.3410825077	-0.212985
H	 0.9119515067	 1.8758117942	 0.0210098817	 0.127349
H	-0.5893245807	 1.6975424235	-0.91365342	 0.124947
H	-0.6576641445	 1.8040290557	 0.8570938313	 0.143886
H	 0.6208841241	-0.4691785601	-0.7597189522	 0.095423
H	 3.031585092	-0.7080915921	 3.6038891331	 0.097598
H	-2.9250757397	-0.7733635321	-1.3626779919	 0.124262
H	-1.2493843093	-0.7660882038	-2.103072031	 0.112113
H	-0.4945258582	-2.6026036122	-0.6128077165	 0.117804
H	-2.1321888546	-2.6975649891	 0.199205886	 0.127409
30.3913	59.9073	88.4772	138.8144	190.1998	232.1826	242.7811	271.0899	356.232	428.1192	448.3002	560.8667	647.1444	739.0753	808.2081	833.6639	911.4706	954.4935	1008.604	1021.4805	1039.8994	1075.1776	1101.7461	1113.1806	1119.7038	1164.6195	1177.6859	1202.1387	1311.7356	1324.9234	1349.9509	1403.1572	1423.0843	1486.8178	1491.8393	1495.5406	1518.5572	1768.0311	2327.5869	2899.3992	2913.8303	3052.0559	3094.7178	3103.6701	3128.5169	3140.8677	3183.6157	3198.5899
CC(C#CC=O)N1CC1	C[C@@H](C#CC=O)N1CC1	
InChI=1S/C7H9NO/c1-7(3-2-6-9)8-4-5-8/h6-7H,4-5H2,1H3	InChI=1S/C7H9NO/c1-7(3-2-6-9)8-4-5-8/h6-7H,4-5H2,1H3/t7-/m0/s1
