20
gdb 90634	3.46025	1.11327	1.03534	1.89	86.95	-0.2299	0.0444	0.2743	1261.6765	0.16891	-365.937324	-365.92812	-365.927175	-365.970612	35.656	
C	-0.333082514	 1.6026323089	 0.6160336055	-0.403775
C	-0.2589969471	 0.1088633931	 0.3606891967	 0.085042
C	 0.7192744366	-0.336591012	-0.7611611481	-0.291484
C	 1.4990854173	-1.0586695114	 0.3307828648	-0.055858
N	 0.5831270066	-0.5581503878	 1.4301307806	-0.17619
C	 0.6658159444	-2.0198444413	 1.1112492631	 0.116378
C	-0.4889882457	-2.8228400163	 0.5332486904	-0.482083
C	 1.3750333927	-2.7332246362	 2.1510406457	 0.270383
C	 1.9533765942	-3.3673460595	 2.9926593494	-0.401681
H	 0.6696553427	 2.0296322637	 0.717844901	 0.12245
H	-0.8441233117	 2.1091043401	-0.209998714	 0.111824
H	-0.8804208673	 1.8063335095	 1.5413227902	 0.126553
H	-1.2695274785	-0.3065991191	 0.2989388812	 0.076818
H	 0.3332521392	-0.9431669627	-1.5855104031	 0.104606
H	 1.2726869645	 0.5069383406	-1.1800976887	 0.111772
H	 2.5786540973	-1.0490991644	 0.4449058199	 0.100039
H	-0.9266504135	-2.3659222538	-0.354677519	 0.124503
H	-0.131517682	-3.8184728987	 0.2566766006	 0.135155
H	-1.2761246661	-2.9473954921	 1.2835362972	 0.135866
H	 2.4651417904	-3.9131257703	 3.7460639467	 0.189682
124.889	140.5144	149.1599	208.049	240.8589	266.4778	323.0034	333.8442	441.6947	448.4134	521.3524	559.8082	610.1747	646.3992	654.9573	712.8028	813.6423	838.9826	876.6453	894.9093	935.1968	986.4858	1005.3396	1017.3422	1084.5809	1090.8556	1099.2308	1137.7223	1199.5702	1235.7269	1258.9528	1268.3814	1293.4019	1374.4109	1382.0792	1407.0963	1417.795	1482.2683	1485.3915	1493.7041	1497.8887	1501.8782	2239.36	3033.0902	3049.5594	3052.3005	3058.5273	3105.5964	3107.8264	3113.0314	3114.3335	3144.3054	3159.4111	3503.8616
CC1CC2N1C2(C)C#C	C[C@H]1C[C@H]2N1[C@]2(C)C#C	
InChI=1S/C8H11N/c1-4-8(3)7-5-6(2)9(7)8/h1,6-7H,5H2,2-3H3	InChI=1S/C8H11N/c1-4-8(3)7-5-6(2)9(7)8/h1,6-7H,5H2,2-3H3/t6-,7+,8+,9?/m0/s1
