20
gdb 107885	2.19751	1.89215	1.17878	1.5052	80.26	-0.2076	0.065	0.2725	1087.7849	0.170528	-403.036918	-403.028599	-403.027655	-403.069589	32.69	
C	-0.8381535	 1.4286091366	-0.2783600693	-0.358815
N	-0.502073424	 0.0351151746	-0.0096265412	-0.099355
C	-1.1790670066	-0.678025817	 1.1090440577	-0.081673
C	 0.0129055599	-1.6772044803	 1.2193236343	-0.044306
C	 0.115925923	-1.5417193005	 2.7416428165	-0.310818
C	-0.2669470529	-0.1109956474	 2.2928282114	 0.293012
C	-0.4619412528	 1.0024662131	 3.2983244959	-0.210992
O	-1.02310622	 2.2176071893	 2.8243437653	-0.390875
C	 0.5937621738	-0.2577190895	 0.9554835205	-0.062744
H	-0.128051901	 1.8235704647	-1.0134552314	 0.115589
H	-1.8333520626	 1.469891662	-0.7361378616	 0.107918
H	-0.8209604849	 2.0816145714	 0.6050654687	 0.125804
H	-2.2478361287	-0.9065260477	 1.118864238	 0.072983
H	 0.1609569685	-2.5409858523	 0.5732198267	 0.081617
H	-0.6296377458	-2.0785117041	 3.3374433579	 0.092433
H	 1.1117131814	-1.6644570685	 3.1796926615	 0.095347
H	-1.0626438691	 0.5996367342	 4.1300703749	 0.09452
H	 0.513645599	 1.27335304	 3.7190615948	 0.118247
H	-1.9250971341	 2.033537294	 2.542181809	 0.284013
H	 1.6355534869	 0.0239898472	 0.7886101404	 0.078096
80.4994	177.8355	223.9346	226.3675	246.3038	337.3494	362.7705	428.0169	430.6595	540.4055	638.1337	701.2512	731.4601	825.0003	828.451	879.5303	894.5414	921.7797	955.6571	1008.1445	1040.8667	1054.906	1062.1631	1082.8605	1110.3634	1127.2029	1137.4211	1157.586	1170.0788	1177.1298	1210.741	1226.8438	1242.4235	1279.7654	1290.2899	1328.5626	1386.1281	1412.3981	1450.2653	1487.6292	1495.3485	1514.5122	1522.6903	2971.5399	3004.8323	3036.918	3058.066	3073.3815	3081.9751	3085.0604	3090.9313	3095.3115	3134.0443	3814.7501
CN1C2C3CC2(CO)C13	CN1[C@H]2[C@@H]3C[C@@]2(CO)[C@H]13	
InChI=1S/C7H11NO/c1-8-5-4-2-7(5,3-9)6(4)8/h4-6,9H,2-3H2,1H3	InChI=1S/C7H11NO/c1-8-5-4-2-7(5,3-9)6(4)8/h4-6,9H,2-3H2,1H3/t4-,5-,6+,7-
