17
gdb 50385	4.73027	0.84998	0.7442	2.3739	85.7	-0.2367	-0.029	0.2077	1459.5579	0.134584	-384.685221	-384.676536	-384.675592	-384.719351	31.836	
O	 0.8670158048	-0.3168115255	-0.1061422354	-0.24914
C	 0.400857991	 0.7913303682	-0.0655011369	 0.155126
C	 1.1904131122	 2.0714276798	 0.0720838887	-0.065414
C	 0.9677284866	 3.031890169	-1.1356930395	-0.284512
C	 0.9104400447	 4.3945929962	-0.5005174146	-0.171211
C	 0.8009553759	 4.3353910683	 0.8340914494	 0.202338
C	 0.7651826127	 2.8935504312	 1.3215110446	-0.35084
C	 0.6841020794	 5.424662221	 1.7293578916	 0.197277
C	 0.5860109609	 6.3154035743	 2.5351133647	-0.404476
H	-0.7029172259	 0.95414266	-0.1324559857	 0.071148
H	 2.2474415205	 1.8054523279	 0.1426596132	 0.103018
H	 1.7630042669	 2.9331734745	-1.881725725	 0.125722
H	 0.0264232882	 2.8128452364	-1.6634274251	 0.117885
H	 0.9197023335	 5.3121977846	-1.0763428617	 0.107535
H	-0.2494039942	 2.6375394467	 1.6581876122	 0.120276
H	 1.4285653874	 2.7178603527	 2.1727702539	 0.129933
H	 0.4992717753	 7.1124747548	 3.2313115355	 0.195336
60.0455	65.028	151.2934	163.5673	310.3192	341.1878	357.5022	394.971	531.9767	537.6342	567.1774	603.2879	641.3062	686.3526	841.3345	869.0868	878.7882	925.1339	945.5441	1002.1991	1009.6507	1089.4665	1098.4814	1152.023	1183.5597	1209.4113	1269.8046	1286.8114	1309.8806	1327.9093	1339.7214	1426.9696	1479.9801	1488.9954	1678.4631	1836.6737	2222.9584	2833.2841	2989.7985	3012.2862	3064.7864	3081.815	3096.6933	3209.7006	3502.759
O=CC1CC=C(C1)C#C	O=C[C@H]1CC=C(C1)C#C	
InChI=1S/C8H8O/c1-2-7-3-4-8(5-7)6-9/h1,3,6,8H,4-5H2	InChI=1S/C8H8O/c1-2-7-3-4-8(5-7)6-9/h1,3,6,8H,4-5H2/t8-/m0/s1
