17
gdb 46840	2.76333	1.81519	1.47291	3.3653	71.75	-0.224	-0.0291	0.195	928.0648	0.138278	-421.851306	-421.844453	-421.843508	-421.882536	27.59	
O	 0.0407904491	-0.0479408537	 0.2009779981	-0.315169
C	-0.0036289667	 1.1428834671	 0.0205265375	 0.414918
C	-1.3230198284	 1.9095349654	-0.1539037662	-0.318114
C	-1.2255017204	 3.2262185292	-0.9675986977	-0.214662
C	 0.1759449203	 3.8484836146	-0.8393053981	 0.03394
O	 1.1137635008	 2.8275463947	-1.2137246576	-0.253739
C	 1.2494027904	 2.0384075331	-0.02953762	-0.074566
C	 1.1799883534	 3.0649916913	 1.0892252726	-0.097035
C	 0.5486893544	 4.1325506403	 0.6087201114	-0.083647
H	-2.0555247844	 1.2213495963	-0.5829118438	 0.129553
H	-1.6683140668	 2.1246888393	 0.8648941121	 0.135826
H	-1.3917958183	 3.0153701921	-2.0287207348	 0.119452
H	-2.0030095633	 3.9313521716	-0.6513109787	 0.100374
H	 0.3025792518	 4.6974315556	-1.5172777622	 0.088214
H	 2.1567508372	 1.4342783838	-0.0840532614	 0.100007
H	 1.5270916384	 2.8868939241	 2.0978860808	 0.121332
H	 0.2730839525	 5.033547235	 1.1407697581	 0.113314
93.1906	209.3403	303.1436	374.126	415.0928	429.7245	544.3289	559.6238	665.0405	730.1168	759.3602	777.2013	836.7869	870.2649	897.4817	915.3841	929.147	956.2268	990.8192	1025.9209	1049.138	1079.4682	1129.0129	1158.146	1189.9024	1239.7883	1252.9117	1287.6242	1292.5957	1328.2838	1338.4832	1357.0389	1376.106	1458.07	1484.7784	1660.4924	1828.276	3036.2339	3043.4523	3072.2451	3083.5817	3105.1284	3107.1607	3215.4925	3241.3082
O=C1CCC2OC1C=C2	O=C1CC[C@@H]2O[C@H]1C=C2	
InChI=1S/C7H8O2/c8-6-3-1-5-2-4-7(6)9-5/h2,4-5,7H,1,3H2	InChI=1S/C7H8O2/c8-6-3-1-5-2-4-7(6)9-5/h2,4-5,7H,1,3H2/t5-,7-/m0/s1
