17
gdb 35763	3.41516	1.39907	1.21	3.8032	71.75	-0.2375	0.013	0.2505	1032.8343	0.138595	-417.970328	-417.963184	-417.96224	-418.001952	28.05	
N	-0.4824618564	-0.9738929977	-0.8014178431	-0.316836
C	-0.2522315325	 0.0910031605	-0.4171972236	 0.290363
C	 0.0095947675	 1.4340962507	 0.1153630796	-0.153491
C	-0.588396948	 1.5516562928	 1.5594058498	-0.09399
O	 0.1085964812	 2.5086766378	 2.3444363256	-0.27314
C	 1.4892391912	 2.6232982828	 2.0139507047	 0.119085
C	 1.6132416081	 3.1567893114	 0.5742787097	-0.187089
N	 1.4608842856	 1.7306802339	 0.085468659	-0.125952
C	 2.0463158203	 1.3102023177	 1.4186869232	-0.21781
H	-0.4745044233	 2.1536075762	-0.553903529	 0.135789
H	-1.6350978108	 1.8633368312	 1.5201729725	 0.130579
H	-0.5530993938	 0.56809588	 2.0441640887	 0.122671
H	 1.9761217169	 3.1245649183	 2.8530404673	 0.088339
H	 0.8470712482	 3.858128805	 0.2340020835	 0.112502
H	 2.6084563347	 3.5246270975	 0.3109520997	 0.11693
H	 3.1360705731	 1.30879068	 1.3471950107	 0.124275
H	 1.7087970281	 0.349491562	 1.8120571118	 0.127774
105.505	158.6619	242.9437	334.4681	430.2477	444.4191	454.4167	524.632	549.3925	621.4423	793.2242	823.9772	827.2243	887.3375	923.6189	934.6213	978.9446	1000.2004	1007.9019	1046.8663	1064.3667	1114.4822	1128.9063	1169.412	1242.1684	1247.0884	1253.5435	1263.0477	1298.6507	1306.5208	1352.6415	1363.1686	1411.1679	1483.5392	1504.8432	1527.08	2361.4805	3023.0502	3053.906	3056.9329	3074.9406	3094.068	3098.4996	3119.7119	3132.7253
N#CC1COC2CN1C2	N#C[C@H]1CO[C@@H]2CN1C2	
InChI=1S/C6H8N2O/c7-1-5-4-9-6-2-8(5)3-6/h5-6H,2-4H2	InChI=1S/C6H8N2O/c7-1-5-4-9-6-2-8(5)3-6/h5-6H,2-4H2/t5-/m0/s1
