20
gdb 31760	4.99338	0.97507	0.87838	1.9505	89.42	-0.1923	0.0554	0.2477	1391.9914	0.172432	-366.022389	-366.013783	-366.012839	-366.05662	31.972	
C	 0.3117869228	 1.436927473	-0.162982453	-0.358476
C	 0.0284829726	-0.0621660339	 0.0362863787	-0.286937
C	-1.4373679609	-0.3954634879	 0.0798243939	 0.299798
C	-2.1589717893	-0.7143161259	 1.2244813546	-0.261508
N	-3.4555597763	-0.869234694	 0.8169181598	 0.023029
C	-4.8410149549	-1.3206793488	 1.0147184009	-0.169413
C	-5.0397328758	-1.0881954426	-0.5337439196	-0.37503
C	-3.5705042681	-0.6961178445	-0.5274032327	 0.364632
C	-2.3332984282	-0.3949921066	-1.0463762539	-0.453017
H	 1.3885020062	 1.6350530596	-0.1992483693	 0.102419
H	-0.1306749337	 1.7988099172	-1.0965261123	 0.115877
H	-0.1173257479	 2.0251795353	 0.6543907754	 0.11391
H	 0.5115640615	-0.6256447846	-0.7725825378	 0.098046
H	 0.5032699765	-0.3984339	 0.9656732351	 0.092968
H	-1.8414941625	-0.804675422	 2.2508886959	 0.113516
H	-4.9261673277	-2.3621226284	 1.339248543	 0.124882
H	-5.4300784793	-0.6799425224	 1.6775863567	 0.122176
H	-5.296437344	-1.9914563664	-1.0938092206	 0.122404
H	-5.754068218	-0.3000142278	-0.7874217367	 0.120855
H	-2.0646339228	-0.1986153294	-2.0730482181	 0.089869
44.4502	61.7429	135.6908	201.5195	234.7063	302.7648	366.2386	484.5205	562.0273	635.9432	670.9486	705.2119	775.5007	785.3473	801.381	812.8205	819.4758	905.2553	966.0498	1002.3416	1054.5868	1059.4448	1081.9035	1082.8437	1138.2676	1140.5863	1177.8511	1202.4476	1231.924	1271.8508	1284.7904	1343.4668	1365.0279	1404.993	1426.2442	1432.4552	1482.3073	1489.8975	1494.0242	1495.5653	1507.5169	1539.2713	1589.3801	3017.1598	3030.4729	3046.9853	3053.6548	3058.4084	3091.9847	3099.9419	3107.4513	3107.5342	3245.6547	3259.1548
CCC1=CN2CCC2=C1	CCc1cn2CCc2c1	
InChI=1S/C8H11N/c1-2-7-5-8-3-4-9(8)6-7/h5-6H,2-4H2,1H3	InChI=1S/C8H11N/c1-2-7-5-8-3-4-9(8)6-7/h5-6H,2-4H2,1H3
