19
gdb 95236	2.38289	1.70653	1.4493	1.3725	76.65	-0.2178	0.0003	0.2181	1000.8683	0.160938	-422.993191	-422.985359	-422.984415	-423.025118	31.435	
O	 0.0248008551	 1.4707210858	-0.0069113046	-0.424864
C	 0.0228885877	 0.0268906557	 0.030567582	 0.045376
C	-1.4530461258	-0.4143617257	 0.2093824713	-0.091656
O	-2.0026321071	-1.2131968378	-0.8222242157	-0.23713
C	-2.214797697	-0.6453422278	-2.0736747043	 0.116392
C	-1.8846386313	 0.764406424	-2.4338539593	-0.363654
C	-1.0125549735	-0.3718629344	-2.9759562411	-0.103998
C	 0.3251814684	-0.6562289628	-2.4244513535	-0.014096
C	 0.7547254823	-0.5578592645	-1.158389417	-0.1416
H	 0.8677963305	 1.7449965595	-0.3839062461	 0.278571
H	 0.5632269675	-0.2805825953	 0.9373031922	 0.07614
H	-1.5330304587	-1.0473898242	 1.0968084408	 0.111247
H	-2.0551313638	 0.487263431	 0.3805262063	 0.113975
H	-3.0820769892	-1.1020264118	-2.5404955281	 0.102622
H	-2.5392140831	 1.2616617704	-3.1416509267	 0.112084
H	-1.429064055	 1.4118969725	-1.6944458996	 0.157483
H	-1.1316056012	-0.609528835	-4.0272957794	 0.082583
H	 1.0354777795	-1.0480508453	-3.1498689913	 0.093672
H	 1.7813019145	-0.8550469543	-0.9578503462	 0.086854
112.749	193.0068	240.1932	280.3409	305.193	345.1044	403.0381	442.1697	546.9707	605.7135	643.2866	742.6921	755.0927	762.5937	791.258	852.9515	877.0202	928.3708	961.6263	976.5319	1000.6951	1061.8443	1076.4618	1094.9925	1099.3962	1120.7799	1122.841	1194.49	1253.1793	1267.6706	1271.4389	1316.0253	1355.5698	1375.9575	1402.7625	1410.8461	1423.7661	1443.9543	1490.1239	1493.3946	1699.5434	2986.8782	3025.9027	3096.5022	3134.0345	3135.3082	3152.9651	3157.255	3170.0694	3234.0733	3809.0687
OC1COC2CC2C=C1	O[C@H]1CO[C@H]2C[C@H]2C=C1	
InChI=1S/C7H10O2/c8-6-2-1-5-3-7(5)9-4-6/h1-2,5-8H,3-4H2	InChI=1S/C7H10O2/c8-6-2-1-5-3-7(5)9-4-6/h1-2,5-8H,3-4H2/t5-,6-,7+/m1/s1
