18
gdb 82700	2.87295	1.53291	1.20635	1.8174	76.69	-0.2323	-0.0305	0.2018	1059.7584	0.147174	-401.882352	-401.874373	-401.873429	-401.914904	30.347	
C	-0.1381416946	 1.5836085185	-0.2892225321	-0.429143
C	 0.0672206987	 0.1086322915	 0.010189655	-0.009832
N	 1.092353314	-0.6722243907	-0.8130595113	-0.188134
C	 2.4009104996	 0.0301195771	-0.4773688398	-0.190169
C	 2.2767540248	-0.4851955917	 0.9452705095	-0.120878
C	 1.3443534479	-1.5217965125	 0.4442794862	-0.041443
C	 0.7589038153	-0.3858169138	 1.2784013297	 0.209723
C	 0.2773032458	-0.5155886942	 2.6596212147	 0.036855
O	 0.9142281796	-1.004065771	 3.5666439632	-0.275357
H	 0.7218662916	 2.1984786817	-0.0143748538	 0.12389
H	-0.3419605552	 1.7255385142	-1.3559575104	 0.13388
H	-1.0020280339	 1.9584123356	 0.269662764	 0.123953
H	-0.880135175	-0.4247556719	-0.1240733241	 0.088889
H	 3.2064523037	-0.4684901847	-1.0216491543	 0.120636
H	 2.4298734416	 1.102906174	-0.68234965	 0.106708
H	 2.9904221763	-0.5573722118	 1.7549825202	 0.121275
H	 1.2447652143	-2.5932587435	 0.5399446392	 0.118803
H	-0.7589190743	-0.1418891367	 2.825982874	 0.070344
96.4384	158.0094	177.1779	196.1513	236.1569	311.1422	438.5632	523.8529	558.5844	669.0692	686.6125	770.1973	794.3323	839.9741	879.5108	904.3706	915.7502	936.9041	971.2994	999.2559	1048.2635	1086.6512	1094.8123	1119.0939	1132.7696	1150.2305	1167.7281	1216.4066	1225.2142	1273.5585	1301.2722	1370.3087	1397.9208	1413.3951	1438.1333	1487.0049	1494.7848	1523.3024	1790.5112	2867.558	3038.4036	3045.7931	3065.9013	3103.6711	3115.3928	3126.943	3212.7798	3230.6115
CC1N2CC3C2C13C=O	C[C@H]1N2C[C@@H]3[C@H]2[C@]13C=O	
InChI=1S/C7H9NO/c1-4-7(3-9)5-2-8(4)6(5)7/h3-6H,2H2,1H3	InChI=1S/C7H9NO/c1-4-7(3-9)5-2-8(4)6(5)7/h3-6H,2H2,1H3/t4-,5-,6+,7-/m1/s1
