23
gdb 63077	2.25461	1.65547	1.30061	0.1424	91.14	-0.2195	0.0242	0.2437	1134.9354	0.205025	-351.165657	-351.156265	-351.155321	-351.198768	37.085	
C	-0.1179581504	 1.5295902822	 0.0451702733	-0.461042
C	 0.0149154797	 0.0172927165	 0.0365562528	 0.291437
C	-1.1796621141	-0.6438106369	-0.6361707959	-0.455776
C	 1.3505330473	-0.6662956063	-0.1955629266	-0.137068
C	 2.6573467827	 0.1186745976	-0.0623541403	-0.292021
C	 2.6746956985	 0.5327523472	 1.3935376863	-0.075555
C	 1.6114052863	 0.0686282877	 2.0527748074	-0.133776
C	 0.6979512036	-0.742373502	 1.1863695713	 0.269487
C	 0.1090448488	-1.9891426667	 1.814180776	-0.488903
H	 0.6918733513	 2.0244852048	 0.582160391	 0.122393
H	-0.1330925923	 1.9171695906	-0.9808188087	 0.107841
H	-1.0619257043	 1.8272105694	 0.517612036	 0.108248
H	-1.3290744358	-0.2171908442	-1.6352820061	 0.112801
H	-1.0534965264	-1.7216932656	-0.7617269748	 0.113272
H	-2.1025235887	-0.4768071071	-0.0678123553	 0.11221
H	 1.3439001523	-1.532261904	-0.8502243976	 0.072844
H	 3.5271436037	-0.5012828715	-0.3180322438	 0.103813
H	 2.6972321321	 0.9877245981	-0.7338329263	 0.106846
H	 3.4510993492	 1.1621278229	 1.8149465533	 0.09013
H	 1.4033108346	 0.2379356595	 3.1045740344	 0.085198
H	-0.5488268061	-1.7319402192	 2.6535115728	 0.113964
H	-0.4781070148	-2.5807765612	 1.1092438422	 0.116237
H	 0.9032276728	-2.6340905219	 2.2073274985	 0.117419
154.2363	171.9682	179.2329	197.9631	221.4182	237.2143	300.674	335.3173	369.3778	383.5641	477.5756	524.6405	606.9733	658.9582	710.6417	762.8594	807.945	856.928	924.1592	934.7094	947.1547	964.0323	967.1853	975.662	1020.9394	1031.8458	1058.7494	1104.3105	1119.7889	1148.856	1164.4225	1196.6269	1210.2132	1262.8955	1301.1508	1315.3204	1364.3534	1403.5931	1411.7143	1418.5708	1430.3132	1474.5305	1483.814	1486.7424	1492.4864	1498.4244	1509.4171	1513.9249	1671.5294	3008.7665	3020.2257	3023.2471	3026.9587	3031.4071	3072.4352	3076.4832	3077.7019	3108.5632	3125.6389	3133.9389	3152.5053	3172.5309	3200.085
CC1(C)C2CC=CC12C	CC1(C)[C@H]2CC=C[C@@]12C	
InChI=1S/C9H14/c1-8(2)7-5-4-6-9(7,8)3/h4,6-7H,5H2,1-3H3	InChI=1S/C9H14/c1-8(2)7-5-4-6-9(7,8)3/h4,6-7H,5H2,1-3H3/t7-,9-/m1/s1
