17
gdb 49238	3.55316	1.21204	0.98302	3.6534	76.26	-0.252	-0.0537	0.1983	1177.6644	0.136601	-421.842445	-421.834834	-421.833889	-421.874876	28.88	
O	-0.2010145889	-0.0123189531	-0.1283541575	-0.274373
C	-0.0831370302	 1.1910519508	-0.18522873	 0.091754
C	 1.170391074	 1.9172132024	 0.085753887	 0.22832
C	 1.1703024566	 3.2532057671	-0.0182638559	-0.130739
C	 2.3626033409	 4.1290942774	 0.2165630476	-0.298215
C	 3.5308626188	 3.4019468437	 0.8439714234	 0.046706
O	 3.2692945453	 2.7681351305	 2.0983847328	-0.256831
C	 3.5340983511	 1.9363534768	 0.9627934988	 0.046729
C	 2.381804493	 1.1031184153	 0.4547967434	-0.339596
H	-0.9439015669	 1.8436634373	-0.4558987458	 0.067673
H	 0.2449388193	 3.7532934002	-0.2999271012	 0.103418
H	 2.6845591139	 4.5704901581	-0.7387905621	 0.127056
H	 2.0788550321	 4.9824713765	 0.8480517003	 0.132379
H	 4.4856287073	 3.9266500435	 0.7988546317	 0.093106
H	 4.4953438425	 1.4236352092	 1.0068018372	 0.09398
H	 2.1012452538	 0.3500900573	 1.2008878819	 0.141356
H	 2.7160390473	 0.527623917	-0.4191240017	 0.127276
78.2886	136.0799	209.145	304.3046	330.0723	341.0548	438.8711	450.4922	576.6724	627.7106	752.7237	782.2409	817.1178	824.3481	907.0787	939.7877	962.691	970.7752	1036.5494	1043.8808	1065.1216	1090.2444	1148.7835	1186.6088	1231.2317	1239.0766	1293.1116	1321.4538	1372.4291	1381.8752	1410.4014	1433.88	1453.0938	1461.7554	1483.2618	1715.5827	1790.1657	2874.4129	3003.0523	3026.3485	3031.3439	3060.7897	3100.8477	3113.2543	3142.9251
O=CC1=CCC2OC2C1	O=CC1=CC[C@H]2O[C@H]2C1	
InChI=1S/C7H8O2/c8-4-5-1-2-6-7(3-5)9-6/h1,4,6-7H,2-3H2	InChI=1S/C7H8O2/c8-4-5-1-2-6-7(3-5)9-6/h1,4,6-7H,2-3H2/t6-,7+/m1/s1
