19
gdb 95812	2.31533	1.56829	1.08954	2.9155	66.62	-0.2414	0.0483	0.2896	1119.5402	0.159846	-497.294947	-497.286204	-497.28526	-497.32776	34.016	
O	-0.1719586017	 1.4204465913	 0.107853794	-0.448119
C	-0.000012294	 0.0076836838	 0.0278931951	 0.068705
C	 0.746386403	-0.5525081294	 1.2461855432	-0.104402
O	 0.7805198359	-1.964567439	 1.205994586	-0.247832
C	-0.5236457236	-2.5243962112	 1.2871787109	-0.10271
C	-1.3867463407	-2.1072718406	 0.0858905395	 0.110274
O	-2.6966593314	-2.6273335199	 0.1918174216	-0.441544
C	-1.4131333219	-0.5792856222	-0.04452349	 0.081097
O	-2.2061354514	-0.1001650709	 1.0366038849	-0.462044
H	 0.6882301358	 1.8330902678	 0.2337923227	 0.293262
H	 0.5455837379	-0.272439453	-0.8854547014	 0.081186
H	 1.7882464937	-0.2132516978	 1.2519824683	 0.09631
H	 0.2558794935	-0.1897187621	 2.1623568919	 0.100807
H	-0.4011766532	-3.6095317852	 1.3021445489	 0.114038
H	-1.0224716206	-2.2144237451	 2.2177856121	 0.098512
H	-0.9470341369	-2.5297284578	-0.824719819	 0.090778
H	-3.1728444429	-2.0303888757	 0.7833183428	 0.29556
H	-1.8765632558	-0.2975436165	-1.0016418928	 0.07727
H	-2.0706169158	 0.8542762235	 1.0730973311	 0.298851
130.3171	162.7911	232.7265	246.3058	288.7533	306.9898	342.8989	385.2771	402.2029	426.9703	446.2708	456.8017	576.4095	628.644	685.4486	870.0816	881.0768	967.0134	1001.094	1006.0926	1060.2572	1092.3282	1104.6805	1127.7835	1131.2882	1152.9484	1209.3785	1228.6293	1258.8821	1289.113	1306.3652	1336.3774	1344.6635	1371.947	1388.6657	1409.6609	1426.3827	1434.1955	1444.8129	1487.217	1501.3862	2987.5218	2993.8554	2999.9178	3003.6821	3054.3429	3068.5211	3110.6323	3776.096	3795.7382	3823.009
OC1COCC(O)C1O	O[C@H]1COC[C@@H](O)[C@H]1O	
InChI=1S/C5H10O4/c6-3-1-9-2-4(7)5(3)8/h3-8H,1-2H2	InChI=1S/C5H10O4/c6-3-1-9-2-4(7)5(3)8/h3-8H,1-2H2/t3-,4+,5-
