15
gdb 46759	2.96749	1.82379	1.43756	5.2859	63.16	-0.2572	0.0084	0.2657	895.9281	0.114095	-457.756166	-457.749566	-457.748622	-457.787439	25.499	
O	-0.0153094482	 0.0334292903	 0.3337697336	-0.345001
C	 0.0060803128	 1.1895870964	 0.0266241859	 0.455936
O	-1.115686463	 1.8691396864	-0.3317407122	-0.220277
C	-0.8722053509	 3.2456630951	-0.6759944315	-0.092622
C	 0.6331296113	 3.5000303169	-0.4905102244	-0.093313
C	 1.0922880666	 4.0855296408	 0.8672133856	 0.010677
O	 0.4325738738	 3.3334324622	 1.8903914597	-0.228321
C	 1.6141601755	 2.7821397608	 1.3039565694	 0.027993
C	 1.2004999663	 2.126289055	-0.0387763808	-0.21981
H	-1.1957434452	 3.3900202931	-1.7108050387	 0.119852
H	-1.4867785072	 3.8670478962	-0.019589863	 0.13213
H	 1.1179147734	 3.950269695	-1.3563798223	 0.097254
H	 1.3983422734	 5.096577771	 1.1081238725	 0.117123
H	 2.4235486724	 2.5068904518	 1.9681356864	 0.122484
H	 2.0263209791	 1.7057096689	-0.6112275202	 0.115895
109.6179	147.5312	224.3949	350.3476	484.0745	553.1093	632.3005	683.9292	728.6206	757.4328	819.1659	854.5055	869.3245	907.7742	931.8183	951.6144	995.8372	1017.716	1048.0958	1066.3065	1091.0567	1155.7926	1173.5814	1216.553	1224.7672	1238.274	1255.1433	1282.8392	1316.9344	1383.6234	1409.5387	1512.7609	1878.105	3056.1695	3103.1531	3119.5014	3132.2117	3189.5118	3208.8117
O=C1OCC2C3OC3C12	O=C1OC[C@H]2[C@H]3O[C@H]3[C@@H]12	
InChI=1S/C6H6O3/c7-6-3-2(1-8-6)4-5(3)9-4/h2-5H,1H2	InChI=1S/C6H6O3/c7-6-3-2(1-8-6)4-5(3)9-4/h2-5H,1H2/t2-,3+,4-,5+/m1/s1
