20
gdb 55443	3.34193	1.20038	0.92169	2.8112	85.29	-0.2098	0.0033	0.2131	1287.4643	0.172629	-403.206148	-403.197518	-403.196574	-403.239615	32.795	
C	-0.0577640265	 1.525450029	 0.0562601649	-0.50671
C	-0.0404333499	 0.0047586169	 0.0583919747	 0.409813
O	-0.0995632468	-0.6264136296	 1.0986651651	-0.366592
N	 0.0469139086	-0.6350124097	-1.1658829246	-0.121344
C	 0.0673895983	-2.1034073232	-1.1867185321	-0.160637
C	 0.9964567357	-2.6171825072	-2.288202652	-0.220711
C	 0.5727214958	-2.0761129952	-3.6609798025	-0.255947
C	 0.2688660103	-0.6061244411	-3.5678667836	-0.132627
C	 0.0671883742	 0.0186567463	-2.4028478555	 0.031726
H	 0.8198908594	 1.9468093874	-0.4426887468	 0.141512
H	-0.9484348926	 1.9173396696	-0.4458235797	 0.142797
H	-0.0705770541	 1.8476418097	 1.0966739187	 0.147657
H	 0.3771258875	-2.4348231269	-0.1966154397	 0.146492
H	-0.9545100687	-2.4700339879	-1.3552056644	 0.111083
H	 2.0207393167	-2.2954402017	-2.0674486006	 0.11169
H	 0.9921794132	-3.7113875607	-2.2785747712	 0.103123
H	 1.3657811701	-2.251765762	-4.3979588505	 0.106092
H	-0.3040083454	-2.6259189231	-4.0335803985	 0.109446
H	 0.2270548468	-0.0184100841	-4.4780835232	 0.089935
H	-0.1150869527	 1.0836082834	-2.3654667284	 0.1132
70.4439	102.54	186.4788	223.7504	235.1252	294.4069	371.449	451.6326	485.0173	513.0604	580.077	598.7295	688.4229	738.4107	763.9827	866.4566	883.6533	925.802	956.0388	986.971	1003.6326	1049.9487	1055.7525	1086.3983	1104.3775	1156.7086	1202.5412	1260.9934	1278.2882	1327.8435	1350.0673	1367.6095	1373.8857	1385.4368	1407.1469	1449.1307	1476.7446	1477.716	1487.5352	1490.0479	1508.7299	1715.2988	1764.6551	2998.7079	3014.459	3037.2575	3045.0922	3050.8976	3089.7854	3109.0598	3143.7352	3162.8528	3187.6677	3232.9036
CC(=O)N1CCCC=C1	CC(=O)N1CCCC=C1	
InChI=1S/C7H11NO/c1-7(9)8-5-3-2-4-6-8/h3,5H,2,4,6H2,1H3	InChI=1S/C7H11NO/c1-7(9)8-5-3-2-4-6-8/h3,5H,2,4,6H2,1H3
