18
gdb 15395	3.64056	1.08004	0.89894	2.0897	74.82	-0.2413	0.0499	0.2912	1280.826	0.151951	-347.752005	-347.742987	-347.742043	-347.786062	32.707	
O	-0.0006051199	 1.4020172982	 0.0113962623	-0.420438
C	-0.0053167004	-0.0031900804	 0.2099813653	-0.066016
C	-1.3411141708	-0.539088551	-0.2943175286	-0.201719
C	-1.4450518386	-2.0409104001	-0.1570721299	-0.005413
C	-1.8698184247	-2.6728777205	 1.1387240981	-0.288935
C	-2.7999615526	-2.7361675708	-0.0653126439	-0.205415
C	-4.0228299028	-1.988524639	-0.0791076727	 0.338173
C	-5.0556030139	-1.3712271238	-0.1005556252	-0.47278
H	 0.8338666169	 1.7497668338	 0.3386921907	 0.285205
H	 0.8212752535	-0.4862035394	-0.337702698	 0.080713
H	 0.118261219	-0.259453233	 1.274472413	 0.087179
H	-2.1511107339	-0.0526785364	 0.2584115135	 0.119186
H	-1.4609287046	-0.24552446	-1.3440330802	 0.110995
H	-0.708339103	-2.5985970937	-0.7306959543	 0.089526
H	-1.4025270668	-3.5974731434	 1.4585931304	 0.116434
H	-2.1688492233	-2.0125904925	 1.9454572914	 0.126872
H	-2.8605110764	-3.7007117481	-0.5612792625	 0.111839
H	-5.9656600377	-0.8250878997	-0.1174707896	 0.194595
77.9407	86.7916	102.0349	188.2274	217.452	263.0954	326.0579	363.8823	446.7511	526.4803	576.3287	611.4644	648.3825	768.4579	794.947	824.6567	877.4251	938.4026	960.9286	1029.2942	1057.7554	1069.8338	1086.3011	1124.5606	1140.5973	1183.4033	1225.4253	1239.2236	1249.2779	1308.7537	1328.4444	1377.9948	1421.8592	1462.0551	1483.5986	1494.562	1527.7147	2234.6474	2958.0195	2986.4766	3041.9188	3090.0229	3132.4889	3135.709	3146.2149	3225.3956	3506.2668	3831.3989
OCCC1CC1C#C	OCC[C@H]1C[C@H]1C#C	
InChI=1S/C7H10O/c1-2-6-5-7(6)3-4-8/h1,6-8H,3-5H2	InChI=1S/C7H10O/c1-2-6-5-7(6)3-4-8/h1,6-8H,3-5H2/t6-,7+/m1/s1
