21
gdb 77720	2.57995	1.59658	1.4495	1.497	81.53	-0.2285	0.0803	0.3088	1044.6732	0.184546	-387.057158	-387.049299	-387.048355	-387.088943	31.749	
C	-0.0971675425	 1.4509054767	-0.0092412618	-0.430502
C	 0.1210918101	-0.0433444366	 0.0727709248	-0.072052
C	 1.431679428	-0.7351434736	-0.1966032639	 0.199464
C	 2.6541350457	 0.0369824531	 0.3407499021	-0.288818
C	 2.0222000583	 0.0230568031	 1.7686302172	-0.288819
C	 0.8080344373	-0.7488908337	 1.2125512941	 0.199465
C	 0.4290466005	-2.1884344694	 1.4702852178	-0.157503
O	 0.4128467828	-2.8107064849	 0.174893553	-0.260219
C	 1.3779680229	-2.1675162288	-0.6738540187	-0.157503
H	 0.7522702286	 2.0231485387	 0.372246598	 0.119904
H	-0.2629603166	 1.7603657073	-1.0467883906	 0.119724
H	-0.9787512357	 1.7445895909	 0.5706871016	 0.119725
H	-0.7179494976	-0.6244282652	-0.3042283398	 0.101759
H	 3.5716526723	-0.5535058817	 0.2825185754	 0.104079
H	 2.8492713817	 1.0136050172	-0.1119534214	 0.100467
H	 2.6003536022	-0.5749084398	 2.4772075393	 0.104079
H	 1.8113199765	 0.990732093	 2.2333283566	 0.100467
H	 1.1739180199	-2.6610075249	 2.1318353519	 0.086362
H	-0.565005658	-2.3548827595	 1.898488689	 0.10678
H	 1.0276250614	-2.3197736316	-1.7001485717	 0.10678
H	 2.371887322	-2.6346010502	-0.5750435427	 0.086362
177.7935	206.6628	217.5999	247.3376	253.5621	322.398	354.3176	472.0461	546.6936	656.9353	671.4144	718.7443	756.8977	776.2465	820.8931	905.3454	944.2394	951.7839	981.7196	997.0463	1003.6251	1022.3452	1045.4175	1094.7877	1123.1656	1134.1925	1173.3728	1206.2915	1231.4948	1232.1954	1243.8143	1256.0722	1271.5559	1299.5041	1309.8066	1352.5328	1387.3943	1415.8538	1454.7293	1475.9083	1499.1896	1500.8728	1504.9489	1510.6526	1520.7187	2964.5283	2970.1081	3036.0607	3049.1465	3055.0262	3063.203	3065.3472	3092.6441	3093.7983	3111.5107	3115.2659	3139.5178
CC1C23CCC12COC3	C[C@H]1[C@@]23CC[C@@]12COC3	
InChI=1S/C8H12O/c1-6-7-2-3-8(6,7)5-9-4-7/h6H,2-5H2,1H3	InChI=1S/C8H12O/c1-6-7-2-3-8(6,7)5-9-4-7/h6H,2-5H2,1H3/t6-,7-,8+
