23
gdb 114624	3.15494	1.02807	0.89252	1.6981	85.72	-0.2426	0.0899	0.3325	1445.9034	0.204324	-388.269894	-388.260025	-388.259081	-388.304774	36.858	
C	 0.0167029176	 1.5775964165	-0.1448391952	-0.381397
C	-0.0433994702	 0.0810006482	 0.1769724241	-0.190675
C	-1.4425898715	-0.5083992822	 0.0372143836	-0.045906
C	-2.0720048085	-0.6383288061	-1.4020801173	-0.267228
C	-2.178192754	-2.1478266048	-1.1656242909	-0.046407
O	-0.8471062149	-2.6238884193	-0.9054579509	-0.29163
C	-1.5888612323	-2.042711901	 0.18252633	 0.416859
C	-1.7476391964	-2.837063786	 1.4446731666	-0.306819
C	-2.1125831203	-4.3057337631	 1.2090705758	-0.380118
H	 1.0354107576	 1.9644647296	-0.0427890342	 0.111999
H	-0.3128994168	 1.777950937	-1.1701059936	 0.117381
H	-0.6277350277	 2.1557720097	 0.5272111072	 0.109995
H	 0.6324526252	-0.473926092	-0.4830445021	 0.112178
H	 0.3157427403	-0.0850146507	 1.2016045693	 0.090754
H	-2.1437847286	 0.0044218126	 0.706377312	 0.067257
H	-3.0379306996	-0.136107814	-1.4938444324	 0.101781
H	-1.4320279476	-0.3539594496	-2.2419754588	 0.106537
H	-2.8785565088	-2.8616602018	-1.5848986926	 0.098473
H	-0.8100737027	-2.7750442246	 2.0143755374	 0.109855
H	-2.5102615208	-2.3482873403	 2.0644475323	 0.102952
H	-1.3658006991	-4.7897221875	 0.5753456252	 0.138588
H	-2.1695898795	-4.848002419	 2.1570142543	 0.111125
H	-3.0843085815	-4.3957244116	 0.7124833704	 0.114447
70.0851	92.0131	139.8719	160.9641	199.316	214.4689	244.8561	300.4175	325.3597	441.5895	460.464	600.4575	626.8067	716.7217	775.7625	788.056	816.5842	886.0834	899.3577	933.0069	951.2524	959.6408	994.1296	1028.0011	1059.7273	1074.7376	1104.6351	1119.3303	1134.7932	1159.0867	1193.9129	1221.8976	1252.4763	1265.5272	1287.8072	1301.6627	1337.1132	1377.4047	1382.7369	1406.1738	1413.2385	1454.1099	1478.359	1486.1962	1491.7534	1493.8565	1500.1056	1507.7177	1511.9267	3013.4643	3018.0618	3028.7326	3034.8749	3042.491	3048.1291	3060.0252	3068.6257	3096.766	3101.6265	3108.1881	3116.8738	3129.8079	3178.676
CCC1CC2OC12CC	CC[C@H]1C[C@H]2O[C@@]12CC	
InChI=1S/C8H14O/c1-3-6-5-7-8(6,4-2)9-7/h6-7H,3-5H2,1-2H3	InChI=1S/C8H14O/c1-3-6-5-7-8(6,4-2)9-7/h6-7H,3-5H2,1-2H3/t6-,7+,8-/m0/s1
