23
gdb 86062	2.24729	1.40144	0.96606	1.7427	88.98	-0.2293	0.0238	0.2532	1327.1702	0.204389	-388.323066	-388.312706	-388.311762	-388.357891	38.765	
C	-0.0047707378	 1.5643271488	 0.0113717827	-0.392671
C	 0.1272769426	 0.0433991904	 0.0090184395	-0.000837
C	 0.9356620029	-0.5499372064	-1.1682298565	-0.317124
C	 1.5899273457	-1.7831585015	-0.5789329843	 0.220235
C	 2.2654859797	-2.7742573135	-1.4752903308	-0.495867
C	 1.4791510645	-1.8112360649	 0.7583628775	 0.18532
C	 2.0082944487	-2.818993342	 1.7319710723	-0.504121
C	 0.7967357059	-0.5595720155	 1.2749744613	 0.039244
O	 1.7361146519	 0.3044953688	 1.9284721213	-0.43196
H	 0.9735606662	 2.0480858501	 0.0875878032	 0.109504
H	-0.4855909644	 1.9139766041	-0.9083721526	 0.105689
H	-0.6048916938	 1.9102238439	 0.8588849983	 0.115896
H	-0.8775398189	-0.3949161742	-0.0379906678	 0.075159
H	 0.2993251294	-0.7882075785	-2.029852116	 0.098454
H	 1.6952420486	 0.1523584957	-1.545356526	 0.094737
H	 3.04275507	-2.2889096605	-2.0799125641	 0.124024
H	 2.7307585027	-3.5946417368	-0.9240845873	 0.123305
H	 1.5505970078	-3.2087633322	-2.1860112816	 0.126393
H	 2.6221740103	-3.5885694969	 1.2576769397	 0.117739
H	 2.6128248064	-2.3214773186	 2.4991570463	 0.134683
H	 1.1885142676	-3.3232375925	 2.2603168928	 0.124697
H	 0.0542093952	-0.7662592488	 2.0543424576	 0.074652
H	 2.5097394186	 0.3656984613	 1.3567810046	 0.272851
74.3817	134.4185	147.7779	168.8955	204.3385	223.9306	257.9285	281.7589	284.8249	352.4907	387.8493	430.3323	490.8063	565.9917	600.4354	646.5275	772.0706	823.33	894.007	915.8564	952.6747	986.8146	990.4054	1022.3875	1060.6378	1077.4554	1094.7988	1126.1402	1169.9909	1189.0189	1202.1619	1230.9907	1251.6371	1311.1882	1327.7389	1349.5494	1368.711	1406.2911	1409.7683	1415.7793	1430.2283	1477.2375	1480.7619	1485.5633	1490.8886	1491.9582	1495.2405	1496.8892	1735.0331	2988.1932	3015.9835	3017.6734	3020.421	3034.5045	3039.1675	3048.0121	3058.9867	3070.1861	3100.4596	3107.913	3112.7413	3119.8621	3796.2787
CC1CC(C)=C(C)C1O	C[C@H]1CC(=C(C)[C@H]1O)C	
InChI=1S/C8H14O/c1-5-4-6(2)8(9)7(5)3/h6,8-9H,4H2,1-3H3	InChI=1S/C8H14O/c1-5-4-6(2)8(9)7(5)3/h6,8-9H,4H2,1-3H3/t6-,8-/m0/s1
