12
gdb 129345	5.76233	1.0528	0.89016	0.5072	66.7	-0.2686	-0.1028	0.1657	1187.2067	0.077875	-464.956466	-464.949194	-464.94825	-464.989411	24.947	
N	-0.1841981513	 1.2941384433	 0.0113055651	-0.402217
C	-0.0100581786	 0.0525446331	 0.0022971697	 0.115294
O	-1.1515711524	-0.7325467771	 0.007139592	-0.204481
C	-1.065674316	-2.0663059724	-0.0002043313	 0.551802
N	-2.2347193653	-2.6983466299	 0.0041934425	-0.273883
C	-2.0971689284	-4.0133801484	-0.003422166	 0.120075
N	-0.9358733703	-4.6864435921	-0.01453831	-0.174328
N	 0.1738240448	-3.9781005628	-0.0182635675	-0.04159
N	 0.1351624242	-2.6589249087	-0.0111625445	-0.268572
H	 0.7154305861	 1.7722327739	 0.0065825545	 0.249819
H	 0.912374548	-0.5243549799	-0.0088448067	 0.16725
H	-2.9995778209	-4.6185656189	-0.0004702378	 0.160831
56.5772	83.2145	182.0878	193.404	338.3913	436.4056	497.0115	578.6147	692.4301	722.3212	848.1415	859.5929	900.8407	1004.8876	1013.3952	1023.8603	1056.3991	1066.6553	1155.2396	1237.4722	1298.8285	1378.1184	1384.5995	1449.4376	1541.1537	1566.79	1751.3986	3163.5357	3185.2281	3517.353
N=COC1=NC=NN=N1	[NH][CH]Oc1ncnnn1	
InChI=1S/C3H3N5O/c4-1-9-3-5-2-6-8-7-3/h1-2,4H	InChI=1S/C3H3N5O/c4-1-9-3-5-2-6-8-7-3/h1-2,4H
