17
gdb 35619	2.11791	1.70464	1.07801	0.9168	84.37	-0.251	0.0094	0.2603	1128.4687	0.134558	-347.49279	-347.484174	-347.48323	-347.526084	32.927	
C	-0.618118317	-1.0267356453	-0.7837733083	-0.45014
C	-0.3439036621	 0.0569777858	-0.3424007037	 0.324556
C	-0.0382266526	 1.369193221	 0.1988602615	-0.189299
C	-0.1516420577	 1.4866325123	 1.7465956803	-0.26036
C	 0.8107919031	 2.6036902532	 2.0617545745	-0.063743
C	 1.6364325956	 2.8620467743	 1.0516214103	-0.071446
C	 1.3932207411	 1.9431650204	-0.1388843798	-0.229832
C	 2.4499734416	 0.9412459262	-0.2537719828	 0.363813
C	 3.3398849504	 0.1375878605	-0.3369307319	-0.491082
H	-0.849207693	-1.9855810533	-1.1766247631	 0.192968
H	-0.7437752867	 2.0934515083	-0.225911481	 0.114521
H	-1.1812156823	 1.6903210368	 2.0569855912	 0.114402
H	 0.1508212149	 0.5537122482	 2.2387182021	 0.128944
H	 0.8328829239	 3.0997844201	 3.025606155	 0.100874
H	 2.4457561101	 3.5819521469	 1.0526388637	 0.107253
H	 1.345100808	 2.4988508816	-1.0830948274	 0.112617
H	 4.1172402728	-0.5814998272	-0.4137073507	 0.195954
70.0181	111.9814	167.3149	177.1259	270.8762	374.6167	417.8484	472.4778	509.0351	565.5126	616.6541	621.9414	637.6946	639.5961	674.8231	739.1869	773.4784	807.8183	915.0039	968.3622	970.408	993.1286	1031.6311	1056.3777	1080.0265	1133.1076	1164.6322	1244.8951	1279.1071	1295.2137	1339.7354	1350.9029	1355.3886	1485.6975	1687.9676	2233.391	2239.8206	3022.4304	3032.8972	3037.6411	3079.3767	3190.1336	3217.9114	3505.2361	3505.8752
C#CC1CC=CC1C#C	C#C[C@H]1CC=C[C@H]1C#C	
InChI=1S/C9H8/c1-3-8-6-5-7-9(8)4-2/h1-2,5-6,8-9H,7H2	InChI=1S/C9H8/c1-3-8-6-5-7-9(8)4-2/h1-2,5-6,8-9H,7H2/t8-,9+/m1/s1
