13
gdb 20999	7.04793	1.30121	1.10608	5.3067	68.17	-0.259	-0.019	0.24	1001.9556	0.097678	-357.683842	-357.676739	-357.675795	-357.716136	24.646	
C	-0.0033414673	 1.4245093305	 0.0662591862	-0.320805
N	 0.0326532288	-0.0223037679	-0.0198407496	 0.06134
C	-0.1032965019	-0.7895477792	-1.117860011	-0.119067
C	 0.0030469338	-2.1092633305	-0.6972187185	 0.074681
C	 0.206066834	-2.0117387439	 0.7032276208	-0.072743
N	 0.2226063842	-0.749972899	 1.1035380214	-0.253191
C	-0.0751066673	-3.2747934075	-1.4938506938	 0.198764
N	-0.137951267	-4.2344966746	-2.1395645146	-0.342887
H	 0.9424568471	 1.7970514539	 0.4663408052	 0.161851
H	-0.1639880023	 1.8342252577	-0.9316227337	 0.148017
H	-0.8163433933	 1.7379030182	 0.7251993576	 0.161847
H	-0.2618523205	-0.3721487917	-2.0989211559	 0.161098
H	 0.3373785417	-2.8156993762	 1.411078656	 0.141096
38.6094	141.6629	152.9463	241.8129	365.401	521.3224	536.1276	570.4688	644.2962	680.0435	731.8341	815.0241	895.2827	999.9401	1027.0878	1080.2405	1153.2032	1182.1409	1224.4569	1320.6787	1375.7575	1416.9153	1454.79	1473.2566	1484.2245	1531.1285	1587.4336	2349.0953	3059.1551	3131.1806	3156.3187	3262.0489	3271.9475
CN1C=C(C=N1)C#N	Cn1cc(cn1)C#N	
InChI=1S/C5H5N3/c1-8-4-5(2-6)3-7-8/h3-4H,1H3	InChI=1S/C5H5N3/c1-8-4-5(2-6)3-7-8/h3-4H,1H3
