15
gdb 21993	3.86722	1.11724	0.86681	3.4489	76.5	-0.1682	0.0009	0.1691	1239.6811	0.113433	-453.939232	-453.931061	-453.930117	-453.971641	31.284	
O	-0.0837389332	 1.3171503433	 0.1541231541	-0.416755
N	 0.0432627016	-0.0988698297	 0.1353117556	-0.287324
C	-1.1146700884	-0.656695444	-0.0332705371	 0.380055
C	-2.3910835828	 0.0356549744	-0.1860914336	-0.219823
C	-3.5307110671	-0.6607523439	-0.3557452503	 0.009726
N	-3.5397477513	-2.0390836389	-0.391792783	-0.381898
C	-2.3646592628	-2.7368472572	-0.2525874035	 0.502608
O	-2.5737917872	-4.0750233635	-0.3142604583	-0.430795
C	-1.1827440987	-2.107316723	-0.0789755435	-0.37919
H	 0.8295094178	 1.5885237732	 0.2828301942	 0.296615
H	-2.4095275091	 1.1142945414	-0.1613059205	 0.12482
H	-4.4997963766	-0.1921126527	-0.4732130586	 0.129739
H	-4.3910552565	-2.5591879125	-0.518420064	 0.267424
H	-1.7276104076	-4.5232007043	-0.2127526456	 0.312537
H	-0.2668293781	-2.6761963324	 0.0288824341	 0.092261
123.653	166.3601	233.1876	274.6882	299.9592	361.6408	370.74	386.3029	440.0594	459.0645	533.5356	638.0055	650.3248	701.0685	778.6459	805.5015	824.3905	916.6212	942.4021	965.08	1009.383	1100.9415	1197.7347	1225.7384	1245.4842	1291.6354	1379.4266	1415.7511	1447.4622	1548.0034	1646.1165	1660.646	1736.4612	3198.0702	3211.4912	3258.3895	3672.2404	3835.4852	3839.5173
ON=C1C=CNC(O)=C1	ON=c1cc[nH]c(O)c1	
InChI=1S/C5H6N2O2/c8-5-3-4(7-9)1-2-6-5/h1-3,9H,(H2,6,7,8)	InChI=1S/C5H6N2O2/c8-5-3-4(7-9)1-2-6-5/h1-3,9H,(H2,6,7,8)
