17
gdb 42891	2.92914	1.57965	1.28871	3.297	73.68	-0.2413	-0.0076	0.2337	1016.4167	0.136524	-417.93858	-417.93094	-417.929996	-417.97112	28.931	
N	-0.2258662223	 1.1701323106	-0.0879709741	-0.525838
C	-0.0445464282	-0.06621742	 0.0135719714	 0.299134
N	 1.1599243495	-0.8852182151	-0.0780745877	-0.178677
C	 1.1707304797	-1.6996468652	 1.1711887443	-0.254952
C	 0.2552276616	-2.1151437149	 0.0993708047	-0.11271
C	-1.008829618	-1.2525561801	 0.1114754883	 0.424605
C	-2.1737235844	-1.3541673322	 1.1141886212	-0.36031
C	-3.0563970701	-1.4439928852	-0.1451856502	-0.072944
O	-1.8911074299	-1.421134581	-1.0045381618	-0.315016
H	 0.6641701492	 1.6560917696	-0.2305100896	 0.230837
H	 2.097495271	-2.250091756	 1.297346484	 0.138547
H	 0.777880601	-1.257929882	 2.084212414	 0.129063
H	 0.3909535876	-2.9957013464	-0.5161643179	 0.121747
H	-2.1548705456	-2.2494607643	 1.7381399149	 0.116808
H	-2.3194815469	-0.470855944	 1.7364035158	 0.13197
H	-3.6340136574	-2.3656019806	-0.2747536558	 0.108032
H	-3.7047845166	-0.5799136632	-0.3241435516	 0.119703
71.0774	116.2788	188.0885	230.7179	287.6402	415.3532	471.273	551.9957	676.6017	703.4483	756.7316	783.9197	822.0148	863.0413	881.4146	927.1247	963.2029	971.0418	983.6354	1021.4204	1040.4209	1096.0572	1120.8298	1133.6429	1150.3939	1172.7083	1194.2072	1216.3092	1239.5233	1264.7984	1287.8548	1351.073	1354.37	1479.404	1503.7221	1528.0781	1810.5208	3034.5699	3079.6079	3084.1673	3110.0473	3144.6193	3197.9519	3207.5112	3438.8644
N=C1N2CC2C11CCO1	[NH][C]1N2C[C@H]2[C@]21CCO2	
InChI=1S/C6H8N2O/c7-5-6(1-2-9-6)4-3-8(4)5/h4,7H,1-3H2	InChI=1S/C6H8N2O/c7-5-6(1-2-9-6)4-3-8(4)5/h4,7H,1-3H2/t4-,6-,8?/m0/s1
