22
gdb 107458	2.54232	1.36056	1.18626	2.5897	81.2	-0.2351	0.0707	0.3058	1179.9517	0.193738	-404.306046	-404.296775	-404.295831	-404.339354	36.393	
C	-0.0303718937	 1.5725860185	-0.1863285255	-0.451903
C	 0.0137406241	 0.0615664033	 0.0395315131	 0.245491
C	-1.3662594739	-0.5518958815	-0.2126812923	-0.446944
C	 1.1351296725	-0.7500886049	-0.6808547738	-0.207115
N	 1.6617064711	-1.3185845635	 0.6108050528	-0.186077
C	 2.1166163722	-0.1442418169	 1.3860617186	-0.283426
C	 0.6684774382	-0.4314138654	 1.3536900807	 0.267284
C	-0.0276550155	-1.0026992183	 2.5706241873	-0.162317
O	 0.8089944657	-1.9334326789	 3.2307794542	-0.419029
H	 0.9392110308	 2.0461224289	-0.0114934128	 0.114595
H	-0.3295444899	 1.799318771	-1.2161408806	 0.115377
H	-0.7595285814	 2.0472742321	 0.480276923	 0.116963
H	-1.6815231743	-0.3514547126	-1.2426579533	 0.115036
H	-1.3604339991	-1.637001599	-0.0716109694	 0.123432
H	-2.1253510033	-0.1273219096	 0.4537424211	 0.116707
H	 0.7583038363	-1.5484409707	-1.3241432654	 0.10771
H	 1.8853451975	-0.1723746847	-1.2321399959	 0.100534
H	 2.6432593357	-0.4200758423	 2.2932706884	 0.132987
H	 2.5365804422	 0.7014562073	 0.8473079082	 0.108857
H	-0.2589435092	-0.2111176905	 3.293711265	 0.109371
H	-0.9819915033	-1.4653989496	 2.2763136347	 0.088273
H	 1.2007597071	-2.4735817428	 2.5293654718	 0.294195
104.9228	143.1582	199.4543	219.8795	246.5197	283.2755	311.4789	346.2165	371.6398	449.0526	484.1601	517.6481	546.2167	618.2573	668.8475	778.8242	844.9235	859.8455	901.2273	931.3072	962.407	990.6906	1002.7733	1031.374	1052.34	1074.5489	1106.3614	1138.0346	1161.5727	1194.5166	1225.2074	1234.9912	1257.0597	1268.1845	1317.4844	1353.4919	1386.9337	1406.0816	1423.6386	1445.7396	1481.4646	1485.4314	1491.884	1501.9605	1505.379	1511.7341	1517.5658	2988.8863	3024.4922	3028.885	3038.799	3049.2673	3086.8982	3093.2139	3100.7368	3106.1149	3106.9607	3115.0974	3210.8501	3735.2547
CC1(C)CN2CC12CO	CC1(C)CN2C[C@@]12CO	
InChI=1S/C7H13NO/c1-6(2)3-8-4-7(6,8)5-9/h9H,3-5H2,1-2H3	InChI=1S/C7H13NO/c1-6(2)3-8-4-7(6,8)5-9/h9H,3-5H2,1-2H3/t7-,8?/m1/s1
