16
gdb 31937	4.4429	0.95645	0.79102	5.6832	80.73	-0.2046	-0.0322	0.1724	1374.7669	0.124217	-437.924818	-437.916322	-437.915378	-437.95841	30.599	
C	 0.0115336844	 1.4293531639	-0.0292308118	-0.268415
O	 0.0003490924	 0.0110915076	-0.0070143825	-0.254093
C	 0.5870220197	-0.6337240618	-1.0281732401	 0.445867
C	 0.6891330823	-2.0108500793	-1.184872035	-0.268925
C	 1.3757858734	-2.2291750487	-2.3914772068	-0.187338
C	 1.6833671537	-0.998224012	-2.9548567453	 0.208787
N	 1.1818597606	-0.0242097806	-2.0870706021	-0.405164
C	 2.3697527928	-0.6470735273	-4.170119768	 0.067144
O	 2.8328745174	-1.4333449557	-4.973744944	-0.297462
H	 1.0367865481	 1.8223445892	-0.019143867	 0.130514
H	-0.5245677414	 1.8209438398	-0.9039199992	 0.130302
H	-0.5020246029	 1.7536269887	 0.8759349195	 0.155261
H	 0.3034255987	-2.7410363505	-0.4923330831	 0.113409
H	 1.6358082401	-3.1783386145	-2.8333126703	 0.129794
H	 1.2579438265	 0.9666442684	-2.238548492	 0.26743
H	 2.453863714	 0.4563998029	-4.3365892622	 0.032888
65.6	124.6452	149.9944	214.0073	257.8459	264.6677	325.811	422.8284	465.8555	495.7628	635.8873	675.8411	686.9047	768.2654	784.7559	884.2343	985.9387	1003.0791	1016.7951	1054.8279	1084.5577	1173.995	1201.7486	1231.4119	1257.4784	1331.8694	1395.9264	1451.176	1456.6784	1472.5149	1492.7437	1508.1019	1552.6058	1628.2412	1770.2714	2807.2839	3001.2624	3061.858	3149.0842	3259.8973	3273.5738	3679.0705
COC1=CC=C(N1)C=O	COc1ccc([nH]1)C=O	
InChI=1S/C6H7NO2/c1-9-6-3-2-5(4-8)7-6/h2-4,7H,1H3	InChI=1S/C6H7NO2/c1-9-6-3-2-5(4-8)7-6/h2-4,7H,1H3
