14
gdb 6312	4.55161	1.07846	1.0371	5.3863	59.03	-0.267	0.0084	0.2754	1121.2604	0.105707	-415.897898	-415.888972	-415.888028	-415.932165	30.558	
N	 0.085279674	 1.2136800603	 0.418421323	-0.525614
C	 0.0904035047	-0.0364204787	-0.1165845101	 0.426668
O	 1.069147266	-0.5312472778	-0.6384637661	-0.353727
C	-1.2495542465	-0.7773010544	-0.0633307571	-0.329976
C	-1.0008469396	-2.2704198843	 0.2032583856	-0.002649
O	-0.5367757972	-2.5178181475	 1.5165123062	-0.409474
C	-2.2081164887	-3.0648270426	-0.0946121929	 0.251703
N	-3.1714099151	-3.6717895274	-0.2926095221	-0.316592
H	 0.9389623438	 1.747535026	 0.3928060031	 0.268759
H	-0.7151202431	 1.6014874523	 0.8848506122	 0.262886
H	-1.9296308573	-0.3668103067	 0.6910651458	 0.10604
H	-1.7340629548	-0.655371262	-1.0389677612	 0.156529
H	-0.1898391363	-2.585672813	-0.4607748629	 0.171638
H	-1.2651491199	-2.3709167243	 2.1309622962	 0.29381
55.8288	70.6009	133.8288	168.9426	193.9312	270.0188	337.8231	373.8662	413.9158	507.8687	573.3117	594.9741	604.4814	682.8329	854.254	896.6505	925.808	1049.4787	1090.8912	1103.2371	1185.3874	1250.1419	1309.5065	1326.7974	1401.9887	1426.5833	1455.5065	1621.4558	1802.3314	2355.3875	3042.4919	3080.0634	3093.3786	3604.2549	3741.7556	3800.6391
NC(=O)CC(O)C#N	NC(=O)C[C@@H](O)C#N	
InChI=1S/C4H6N2O2/c5-2-3(7)1-4(6)8/h3,7H,1H2,(H2,6,8)	InChI=1S/C4H6N2O2/c5-2-3(7)1-4(6)8/h3,7H,1H2,(H2,6,8)/t3-/m1/s1
