23
gdb 95832	2.8758	1.21431	0.92343	2.0017	82.5	-0.2474	0.0825	0.3299	1350.2118	0.206072	-425.439327	-425.429938	-425.428994	-425.473139	36.056	
C	 0.1271417657	 1.6157072336	 0.0411327175	-0.41399
C	 0.0013174555	 0.0873315287	-0.0201496214	 0.008041
C	 0.6119206778	-0.4958794578	-1.306275093	-0.198984
C	 0.0777486155	-1.8881311967	-1.6637799153	-0.081476
O	 0.5122146473	-2.9424491436	-0.8244647534	-0.239332
C	 0.2159293713	-2.8026900663	 0.5439494838	 0.213021
C	 0.4650648289	-4.1511639237	 1.1946357427	-0.3982
O	 1.0671654588	-1.8631182314	 1.1586896154	-0.251004
C	 0.6163382086	-0.521730978	 1.2574556367	-0.070171
H	 1.1766437061	 1.9246283131	-0.0268697624	 0.119251
H	-0.4171042812	 2.089688858	-0.7815465983	 0.114902
H	-0.2757917557	 2.0125191925	 0.9794858658	 0.114547
H	-1.0708649632	-0.1528530573	-0.0352567644	 0.073195
H	 0.3648094551	 0.1676628281	-2.1454040231	 0.091953
H	 1.705397568	-0.5296154726	-1.2354751701	 0.111783
H	-1.0259165966	-1.8536495997	-1.682478559	 0.082535
H	 0.4126644818	-2.1690547241	-2.6670424166	 0.105768
H	-0.8376798105	-2.4926016081	 0.6683788817	 0.051133
H	 1.5178708248	-4.4184711687	 1.0732249616	 0.135296
H	 0.2339837932	-4.1017922369	 2.2612066102	 0.117267
H	-0.1525078414	-4.9195123215	 0.7240645293	 0.119756
H	 1.5121456582	 0.0457682881	 1.5348934468	 0.105265
H	-0.100439808	-0.4195564658	 2.0881988057	 0.089442
80.9562	145.1863	184.3394	215.1161	243.8358	268.7812	297.9626	320.5257	346.2548	386.4347	448.0821	521.2249	581.8713	625.1332	780.8323	838.1981	854.6148	891.3351	936.4184	949.1216	986.7892	1012.7019	1063.469	1071.1649	1112.2572	1124.2934	1148.5829	1169.112	1176.6031	1191.9296	1241.5554	1295.9897	1309.4066	1341.0543	1359.4994	1381.9323	1387.3079	1395.2326	1407.4739	1420.9537	1423.3289	1428.6697	1469.869	1481.8845	1487.9823	1498.146	1498.4196	1500.8276	1506.6916	2934.6501	2952.4408	2972.2957	3003.841	3021.0411	3027.5049	3055.4049	3057.8602	3072.1974	3078.3169	3092.8964	3103.0325	3136.7566	3137.7161
CC1CCOC(C)OC1	C[C@H]1CCO[C@@H](C)OC1	
InChI=1S/C7H14O2/c1-6-3-4-8-7(2)9-5-6/h6-7H,3-5H2,1-2H3	InChI=1S/C7H14O2/c1-6-3-4-8-7(2)9-5-6/h6-7H,3-5H2,1-2H3/t6-,7+/m0/s1
