21
gdb 69360	2.40073	1.48612	1.11227	2.3184	83.4	-0.2477	-0.0204	0.2273	1183.2389	0.180373	-387.082124	-387.072771	-387.071827	-387.115929	35.595	
C	 0.2206034545	 1.5132938904	-0.099412813	-0.500544
C	 0.1132135077	 0.0161703295	-0.0576677184	 0.387172
C	-0.9227184119	-0.7224471768	 0.7428001935	-0.347273
C	 0.5359309197	-0.9699954369	 1.0337900979	-0.134479
C	 1.1627312391	-1.9109952143	-0.0293494775	 0.228726
C	 0.6941482241	-3.3663074808	-0.0542956352	-0.470622
C	 0.6708739602	-0.9270749901	-1.1380842422	-0.35376
C	 2.6697439791	-1.8689904245	 0.1449886636	 0.119519
O	 3.4411000355	-1.1919342047	-0.484705968	-0.253056
H	 1.2435999244	 1.8309015376	-0.3289376351	 0.128239
H	-0.4394395254	 1.9367014972	-0.8663689688	 0.11972
H	-0.0633915958	 1.957005535	 0.8606861002	 0.115126
H	-1.4358662835	-0.1343729758	 1.4982704325	 0.111546
H	-1.5446299888	-1.4889937687	 0.2862097145	 0.104318
H	 0.961656533	-0.7721104242	 2.0122293655	 0.084198
H	-0.3971126899	-3.4277685874	-0.0434194996	 0.124882
H	 1.0500968629	-3.8802785658	-0.9541465351	 0.125356
H	 1.0665983431	-3.9174581554	 0.8172338736	 0.118844
H	-0.0630584214	-1.3304191198	-1.8430447035	 0.089396
H	 1.5162033818	-0.5078783946	-1.686911054	 0.129833
H	 3.0367771516	-2.5335945001	 0.963209829	 0.072861
71.6163	124.6029	195.8379	206.2994	217.2189	275.2042	308.7362	316.9582	370.3506	402.1164	442.5303	555.5599	625.3862	703.2323	793.487	814.7638	848.1283	901.5315	933.6817	948.3154	968.1608	978.6787	1015.5109	1025.5187	1058.5031	1073.3309	1092.1316	1144.227	1170.5003	1185.709	1244.8781	1255.5123	1275.4324	1299.842	1388.1885	1405.7999	1423.5764	1427.8568	1474.719	1485.462	1488.1357	1495.8226	1499.4424	1507.5123	1826.6282	2848.2868	3021.5332	3027.6537	3048.3488	3081.665	3090.0028	3097.0633	3104.7775	3114.5816	3122.5388	3159.5915	3191.7069
CC12CC1C(C)(C2)C=O	C[C@]12C[C@H]1[C@@](C)(C2)C=O	
InChI=1S/C8H12O/c1-7-3-6(7)8(2,4-7)5-9/h5-6H,3-4H2,1-2H3	InChI=1S/C8H12O/c1-7-3-6(7)8(2,4-7)5-9/h5-6H,3-4H2,1-2H3/t6-,7-,8+/m1/s1
