15
gdb 5650	5.04105	2.10001	1.49606	1.4583	75.08	-0.1762	0.0035	0.1797	803.2093	0.122356	-325.56848	-325.562523	-325.561579	-325.598141	24.412	
C	-0.0539019013	 1.5228109859	 0.0107196851	-0.415117
C	 1.4266544296	 1.8827156701	-0.0015341617	-0.085665
C	 2.196932465	 0.77301435	-0.0148069776	-0.197202
C	 1.3084287303	-0.3736034716	-0.0123973251	 0.303203
C	-0.0163781144	 0.0196667394	 0.0023712983	 0.289982
C	-0.8118600654	-1.1515468501	 0.003748121	-0.326944
C	 0.0648257104	-2.2221547979	-0.0103477658	-0.078524
N	 1.3598559262	-1.7389178662	-0.0201498139	-0.383813
H	-0.5540939748	 1.940652754	 0.8949791785	 0.123715
H	-0.5708791755	 1.9499733222	-0.8593180903	 0.123715
H	 1.7841781181	 2.9039032478	 0.0004779725	 0.09323
H	 3.2792304001	 0.743760489	-0.025317585	 0.091756
H	-1.8886202262	-1.2320131293	 0.0136268751	 0.090166
H	-0.1241625919	-3.2838054605	-0.0141980993	 0.113673
H	 2.1868268899	-2.3094644628	-0.0310930118	 0.257826
196.0738	266.221	423.1959	432.2737	453.0438	613.9296	650.1832	665.918	685.8031	711.433	737.1418	819.1313	855.1149	923.2876	925.5878	934.4009	940.4783	1046.4895	1081.6619	1116.191	1131.7172	1169.4108	1216.343	1276.9682	1320.8644	1378.8888	1424.7697	1448.7239	1472.3948	1529.0529	1566.0391	1607.5046	3021.6587	3046.2126	3204.1087	3229.406	3238.9808	3265.9213	3681.7283
C1C=CC2=C1C=CN2	C1C=Cc2c1cc[nH]2	
InChI=1S/C7H7N/c1-2-6-4-5-8-7(6)3-1/h1,3-5,8H,2H2	InChI=1S/C7H7N/c1-2-6-4-5-8-7(6)3-1/h1,3-5,8H,2H2
