18
gdb 91439	2.4408	1.54941	1.09381	3.3856	72.61	-0.2233	-0.0277	0.1956	1124.9603	0.145997	-439.032728	-439.024241	-439.023297	-439.066447	30.909	
C	 0.172297709	 1.5569509786	 0.1360874726	-0.331413
N	 0.1346066621	 0.1114224898	 0.1399075869	-0.074331
C	-1.1719086914	-0.5604125528	 0.3541771386	-0.1921
C	-0.5036530906	-1.51990194	 1.3559297322	 0.109069
O	 0.2192170609	-2.6142771929	 0.7518897554	-0.316751
C	 1.4744515406	-1.8932646718	 0.8018087033	 0.041661
C	 2.1647791638	-1.7894760949	-0.544795832	 0.148934
O	 3.2983606253	-1.404621736	-0.6687605803	-0.251212
C	 0.7463026061	-0.6142765837	 1.2765988003	-0.070736
H	 1.2090474271	 1.8998344233	 0.0629738573	 0.134078
H	-0.3660713611	 1.9338287041	-0.7395948272	 0.128468
H	-0.2819883545	 2.0136597667	 1.0358754383	 0.092123
H	-1.9129583874	 0.0860023817	 0.8508617302	 0.093783
H	-1.617693002	-1.0054753368	-0.5409634462	 0.116319
H	-1.0449561952	-1.8192851668	 2.2541949039	 0.092216
H	 2.1602932448	-2.3241036954	 1.5422827727	 0.102982
H	 1.5328542073	-2.0933822728	-1.4053694145	 0.093344
H	 1.1721828251	-0.0148068404	 2.0830041788	 0.083564
60.0347	97.1992	150.136	210.3482	241.992	294.0316	336.7742	388.0754	464.1528	532.7371	671.4781	766.8998	814.1991	845.8278	913.5519	940.3662	985.7739	1001.8358	1027.0117	1034.9735	1058.456	1092.5053	1137.5188	1168.1236	1188.4041	1194.0471	1209.6575	1239.3983	1272.3468	1293.3545	1306.8397	1335.4368	1345.7345	1397.3087	1453.292	1483.4587	1499.68	1501.0903	1829.8496	2917.9621	2926.3995	2979.2136	3032.3817	3062.3736	3075.5831	3093.8593	3105.7188	3107.7717
CN1CC2OC(C=O)C12	CN1C[C@H]2O[C@@H](C=O)[C@@H]12	
InChI=1S/C6H9NO2/c1-7-2-4-6(7)5(3-8)9-4/h3-6H,2H2,1H3	InChI=1S/C6H9NO2/c1-7-2-4-6(7)5(3-8)9-4/h3-6H,2H2,1H3/t4-,5+,6+/m1/s1
