21
gdb 95960	2.61588	1.44467	1.14935	0.9088	77.41	-0.2483	0.0655	0.3138	1143.5576	0.183153	-424.210505	-424.201852	-424.200908	-424.244569	32.473	
C	 0.1828669782	 1.7882839949	-0.1501680427	-0.398198
C	 0.1256352542	 0.2667606482	-0.0445476019	 0.071366
O	 0.841067049	-0.2896388024	-1.1589869381	-0.274768
C	 1.8238123438	-1.2089176797	-0.6994416788	-0.075759
C	 2.1594194867	-0.7517178986	 0.7176372177	-0.289815
C	 0.7770433449	-0.3262957412	 1.2260218996	 0.265419
C	 0.7232756994	 0.4164940371	 2.57951451	-0.14605
O	 0.1714133619	-0.7362131167	 3.2451601947	-0.273441
C	 0.0018858194	-1.4279133334	 1.9939660373	-0.122612
H	 1.200301995	 2.157851956	 0.0148036755	 0.114468
H	-0.1286640956	 2.0939380535	-1.1525600244	 0.129731
H	-0.4847938347	 2.2641026999	 0.574703612	 0.115022
H	-0.9232476719	-0.0570053801	-0.1124107419	 0.073972
H	 1.4262386476	-2.2374880566	-0.6942720265	 0.089577
H	 2.6711255432	-1.1781274031	-1.3908386102	 0.108433
H	 2.622522498	-1.5258978964	 1.3348686466	 0.108857
H	 2.8347982036	 0.1112681872	 0.6875966026	 0.106967
H	 1.6901673696	 0.7153493733	 3.0027068135	 0.102447
H	 0.0386249952	 1.2738011298	 2.6185392375	 0.097981
H	-1.0580994969	-1.5176076282	 1.7172362537	 0.096387
H	 0.4520011393	-2.4287549435	 2.0083513739	 0.100015
38.9251	86.9145	182.5385	203.5697	246.9763	307.1555	338.4404	398.0377	475.3933	493.5578	637.363	728.8244	829.7765	849.7907	876.7751	923.4623	947.9555	962.3206	985.4701	993.2925	1020.7903	1040.0185	1070.928	1102.871	1123.8083	1159.199	1162.6913	1174.794	1179.2973	1222.9812	1238.5276	1271.8287	1310.9075	1314.8497	1347.8273	1378.1555	1384.5112	1392.8916	1404.9968	1484.9216	1487.849	1494.3571	1510.9775	1528.1184	1535.6569	2965.1117	2988.0795	2995.122	3010.4706	3036.9418	3041.0487	3043.547	3052.213	3080.0736	3102.5447	3109.8202	3119.565
CC1OCCC11COC1	C[C@H]1OCCC21COC2	
InChI=1S/C7H12O2/c1-6-7(2-3-9-6)4-8-5-7/h6H,2-5H2,1H3	InChI=1S/C7H12O2/c1-6-7(2-3-9-6)4-8-5-7/h6H,2-5H2,1H3/t6-/m1/s1
