20
gdb 90122	3.0582	1.56139	1.43178	0.889	79.31	-0.2198	0.0338	0.2537	1011.7803	0.172174	-403.001606	-402.994118	-402.993174	-403.033069	30.948	
C	-0.2271961082	 1.6013137532	-0.2179088586	-0.411764
C	-0.0473660514	 0.1090153166	-0.0354563633	 0.060277
O	 0.9089096225	-0.5304865987	-0.9971832112	-0.375486
C	 1.8363890019	-0.7180051156	 0.1177366984	 0.392781
C	 2.4905171139	-1.7377746067	 1.1388848376	-0.266104
N	 1.9292461146	-0.7270683879	 2.1909692916	-0.176725
C	 2.7832104418	 0.4594297627	 1.8820788516	-0.154477
C	 2.812883001	 0.4691508258	 0.3327784465	-0.27286
C	 0.7728578141	-0.6181860324	 1.1177694581	-0.038245
H	 0.6693275202	 2.1844735687	-0.0100673734	 0.12826
H	-0.5399076131	 1.8077545147	-1.2465331036	 0.136427
H	-1.0214556057	 1.9478131537	 0.452153869	 0.125504
H	-1.0190397892	-0.3838188078	-0.1430006207	 0.098877
H	 1.9902324558	-2.6998737572	 1.2311091387	 0.123655
H	 3.5794365294	-1.8417063878	 1.1801980032	 0.105672
H	 2.3241550759	 1.3536705667	 2.3107978396	 0.108439
H	 3.7641038247	 0.3234240301	 2.3450437716	 0.10733
H	 3.7982820518	 0.2420469813	-0.0845117173	 0.102435
H	 2.4731745509	 1.3997088565	-0.1168550511	 0.105283
H	 0.2434386591	-1.5608044359	 1.2594908932	 0.10072
138.287	189.8411	232.9697	319.6487	362.4996	422.0872	442.3629	491.4224	561.5736	633.6075	715.1479	722.53	776.9857	808.3713	831.6941	866.2217	884.2632	949.6996	952.7827	961.6765	982.6231	1047.4276	1053.1071	1067.3699	1094.5081	1135.0751	1148.8712	1185.7992	1201.8888	1213.0876	1240.3014	1251.2658	1253.9478	1325.9581	1330.363	1380.323	1403.5799	1451.09	1480.5741	1491.3727	1499.4173	1506.2342	1529.0426	3042.6525	3051.2088	3054.715	3059.968	3066.705	3089.1909	3106.0096	3107.255	3140.7828	3159.7486	3160.4212
CC1OC23CN(CC2)C13	C[C@H]1O[C@@]23CN(CC2)[C@@H]13	
InChI=1S/C7H11NO/c1-5-6-7(9-5)2-3-8(6)4-7/h5-6H,2-4H2,1H3	InChI=1S/C7H11NO/c1-5-6-7(9-5)2-3-8(6)4-7/h5-6H,2-4H2,1H3/t5-,6+,7-/m1/s1
