15
gdb 36752	2.75992	0.85376	0.71853	1.7997	74.29	-0.2751	-0.0029	0.2723	1534.8113	0.109895	-416.767775	-416.758224	-416.75728	-416.803936	32.499	
C	 1.1580614365	-0.4090232555	 0.7620068725	-0.440068
C	 0.5076113982	 0.53266434	 0.3981421888	 0.312894
C	-0.2710527934	 1.6858668459	-0.0378177515	-0.241149
O	 0.4835276759	 2.5990944742	-0.8474166288	-0.195955
C	 1.3926332056	 3.3442018019	-0.1927579983	 0.149143
N	 2.1236342633	 4.1369575957	-0.845393603	-0.238416
C	 3.0906412758	 4.9637965036	-0.1523558118	-0.239947
C	 3.1410285087	 4.8411766993	 1.3167763911	 0.231541
N	 3.1414820065	 4.7123169745	 2.4655022346	-0.312868
H	 1.7312445396	-1.2436219495	 1.0841670715	 0.215243
H	-1.1033199769	 1.3726513251	-0.6732474046	 0.160283
H	-0.6935561235	 2.211845857	 0.8285390877	 0.147756
H	 1.4176388652	 3.2000267916	 0.8944546146	 0.121658
H	 4.0904322081	 4.7444046358	-0.5470199388	 0.165299
H	 2.8961137605	 6.0150515204	-0.398076734	 0.164586
26.5741	59.285	110.5717	158.4611	203.8625	233.3377	284.1811	322.7493	375.064	415.1357	451.6635	603.8518	632.7799	680.3535	698.3361	901.5168	940.165	961.1479	1007.5825	1013.3531	1022.9113	1078.5418	1213.6721	1267.7732	1306.4252	1351.0952	1393.9157	1432.5757	1465.5118	1485.305	1773.7955	2243.1144	2350.7008	3024.23	3034.3639	3051.7985	3059.3822	3100.2492	3502.7934
C#CCOC=NCC#N	C#CCOC=NCC#N	
InChI=1S/C6H6N2O/c1-2-5-9-6-8-4-3-7/h1,6H,4-5H2	InChI=1S/C6H6N2O/c1-2-5-9-6-8-4-3-7/h1,6H,4-5H2
