20
gdb 66688	2.45946	1.97984	1.57874	2.0318	81.71	-0.2108	0.0796	0.2903	966.4394	0.171475	-365.934535	-365.926791	-365.925847	-365.966185	31.193	
C	-0.0509017181	 1.4567215623	-0.0201246795	-0.522102
C	 0.0339488153	-0.0368270336	 0.0529230232	 0.285024
C	-0.5498184943	-1.1128986713	-0.8233971104	-0.141478
N	 0.5016156554	-2.0925166357	-0.3241451597	-0.181601
C	 1.2503970867	-0.9295399683	 0.3609397297	-0.055394
C	 1.0470143782	-1.5969934861	 1.7319801934	-0.25538
C	-0.2119542753	-2.1513576239	 1.0432915171	-0.055394
C	-1.0871972957	-0.9735645769	 0.5760538061	 0.285025
C	-2.4217743824	-0.5241922894	 1.0861430704	-0.522102
H	 0.6601110786	 1.8593685613	-0.7505954527	 0.123448
H	-1.0501431582	 1.7874815618	-0.3216716962	 0.121737
H	 0.1703605523	 1.9196805283	 0.949225821	 0.119948
H	-1.0065603225	-1.1152493099	-1.806476427	 0.088268
H	 2.2319526799	-0.646264268	-0.023348427	 0.069545
H	 1.7863297132	-2.3828645685	 1.9092264366	 0.110852
H	 0.9343592289	-0.9671224101	 2.6183925923	 0.094929
H	-0.6893599457	-3.0870688598	 1.3397744416	 0.069544
H	-2.3631218185	-0.197125956	 2.1313778783	 0.119949
H	-2.8132478288	 0.3143833283	 0.5010312505	 0.121737
H	-3.1600455092	-1.3324401847	 1.0318963821	 0.123448
173.9978	182.7697	210.0668	219.605	250.9327	345.1299	432.9902	531.5177	612.358	628.7428	722.9646	778.658	782.7572	823.5109	858.0739	900.1879	921.0545	921.5313	954.7515	970.5	974.9437	1003.6175	1036.8757	1056.5346	1116.4628	1120.4843	1161.8971	1163.6447	1176.2928	1208.5614	1211.8061	1235.2695	1250.8564	1296.6155	1371.614	1416.1447	1419.4288	1444.6351	1474.7302	1480.6459	1491.9125	1493.3096	1508.5139	3019.7884	3022.4533	3056.1906	3077.0944	3078.278	3093.0029	3096.0099	3098.1369	3098.8496	3118.1367	3173.9255
CC12C3N4C1CC4C23C	C[C@@]12[C@H]3N4[C@@H]1C[C@H]4[C@@]23C	
InChI=1S/C8H11N/c1-7-4-3-5-8(7,2)6(7)9(4)5/h4-6H,3H2,1-2H3	InChI=1S/C8H11N/c1-7-4-3-5-8(7,2)6(7)9(4)5/h4-6H,3H2,1-2H3/t4-,5+,6-,7+,8-
