19
gdb 101044	2.87613	1.07644	0.86325	1.4091	66.94	-0.2617	0.0574	0.3191	1333.8659	0.158063	-497.26256	-497.253152	-497.252208	-497.296779	35.312	
O	 0.0760962216	 1.4098455188	-0.2881457623	-0.424639
C	 0.1114122131	 0.02215165	-0.0493098451	-0.071207
C	-1.3141573647	-0.5159543958	 0.156243656	 0.015669
O	-2.1264869605	-0.0614506626	-0.9215410334	-0.443426
C	-1.3904793321	-2.0374132515	 0.2686326047	 0.326459
C	-0.4055153815	-2.7418777342	 1.193326209	-0.146292
O	-0.5216538172	-4.1452216099	 1.1198312945	-0.413885
C	-2.6425517658	-2.7145164861	-0.080129976	-0.22412
O	-1.5314259619	-2.6948123459	-1.0104636822	-0.302511
H	-0.6640912451	 1.5438308291	-0.8950699898	 0.288081
H	 0.5858791391	-0.525507783	-0.8832330948	 0.086913
H	 0.7240229193	-0.1369792816	 0.8442976866	 0.109065
H	-1.7314964057	-0.0622828618	 1.0633996204	 0.105903
H	-1.9785901813	-0.6960053387	-1.639115381	 0.295135
H	 0.6178218169	-2.4172982405	 0.9521227381	 0.107625
H	-0.604806234	-2.4538605667	 2.231661311	 0.125142
H	-0.4657686163	-4.3686950081	 0.1818866307	 0.294404
H	-2.8465713568	-3.6898919452	 0.3506380147	 0.137805
H	-3.4982042272	-2.1215606764	-0.3889128512	 0.133877
81.0047	107.9737	153.7992	167.6675	258.2421	295.5909	332.1495	355.5942	389.794	424.9494	476.4534	479.6097	536.8543	594.605	656.2239	739.757	851.9571	867.1626	912.7276	961.1739	1037.3981	1069.5068	1084.4377	1099.7109	1120.206	1136.5072	1181.369	1195.6167	1213.7043	1247.6652	1289.601	1313.1219	1371.4372	1384.984	1411.4068	1433.054	1439.7825	1450.475	1500.2861	1507.5294	1510.4247	2948.1686	2994.0274	3045.6172	3070.357	3074.1945	3122.228	3221.874	3723.1686	3762.1011	3778.5155
OCC(O)C1(CO)CO1	OC[C@@H](O)[C@@]1(CO)CO1	
InChI=1S/C5H10O4/c6-1-4(8)5(2-7)3-9-5/h4,6-8H,1-3H2	InChI=1S/C5H10O4/c6-1-4(8)5(2-7)3-9-5/h4,6-8H,1-3H2/t4-,5-/m1/s1
