23
gdb 116300	2.45108	1.17224	0.86756	1.202	82.18	-0.2496	0.0876	0.3372	1435.6177	0.205357	-425.439823	-425.42982	-425.428875	-425.475237	36.344	
C	-0.1051426166	 1.6585190968	-0.2221132331	-0.388816
C	-0.0103227885	 0.1332178027	-0.3160343033	-0.179856
C	-1.2900113591	-0.558642766	 0.1549845154	 0.112557
O	-2.4016147798	-0.1031796199	-0.6326969906	-0.277954
C	-2.9183135502	-1.2101419875	-1.3482623319	 0.022654
O	-1.9448494073	-2.2159343224	-1.3243153579	-0.250244
C	-1.3457050635	-2.095295965	-0.0331406029	 0.093395
C	-0.0436543322	-2.8794228873	 0.0080996012	-0.203378
C	-0.2604504673	-4.3854454909	-0.1700809174	-0.388786
H	 0.810251751	 2.133190511	-0.5878521095	 0.108565
H	-0.9457724969	 2.0267814473	-0.8153592464	 0.135383
H	-0.2585784145	 1.9822878359	 0.81371814	 0.110173
H	 0.1901450499	-0.1661194572	-1.3513674802	 0.105245
H	 0.8300006508	-0.2247970789	 0.2916975022	 0.092897
H	-1.4838486125	-0.2960673792	 1.2040255511	 0.073986
H	-3.8533899274	-1.5555680553	-0.8699601245	 0.081221
H	-3.1138742562	-0.9276320406	-2.388243969	 0.112238
H	-2.0401269953	-2.508252283	 0.7201938896	 0.065682
H	 0.624979991	-2.5040784769	-0.7730195563	 0.111522
H	 0.4456539855	-2.6821828209	 0.9699850396	 0.100849
H	-0.895552517	-4.790781892	 0.6254016427	 0.113144
H	-0.7474274449	-4.5940440102	-1.1261720431	 0.137775
H	 0.6914322608	-4.9239318404	-0.1450006657	 0.111747
57.6179	93.4631	129.2169	146.9878	189.7573	214.732	232.7943	256.6083	314.375	390.102	468.5541	494.7284	724.8555	742.4529	769.5255	793.9121	843.8808	906.8365	942.8199	963.7229	1006.8943	1024.1999	1051.803	1071.2002	1096.8717	1127.5322	1133.9994	1150.1855	1168.333	1189.4662	1230.1106	1287.5269	1296.8729	1308.7757	1328.0595	1349.2141	1364.2384	1403.1727	1408.3742	1410.1433	1421.6038	1437.0783	1474.045	1482.51	1497.3546	1497.6323	1508.4492	1510.1314	1546.0983	2929.5796	2940.6206	3009.913	3025.7959	3034.7502	3035.339	3037.4397	3064.5708	3069.0031	3080.8915	3100.2657	3105.3946	3123.8878	3125.1476
CCC1OCOC1CC	CC[C@H]1OCO[C@H]1CC	
InChI=1S/C7H14O2/c1-3-6-7(4-2)9-5-8-6/h6-7H,3-5H2,1-2H3	InChI=1S/C7H14O2/c1-3-6-7(4-2)9-5-8-6/h6-7H,3-5H2,1-2H3/t6-,7+
