17
gdb 81134	3.35156	1.13433	1.01154	5.9334	73.3	-0.2527	0.0356	0.2883	1187.1353	0.1363	-417.948052	-417.93983	-417.938886	-417.981317	30.868	
O	-0.076532219	 1.4751011132	-0.0968140197	-0.435217
C	 0.0049441387	 0.0800339459	 0.0034951559	 0.077657
C	-0.0683865152	-0.6583787807	 1.3811758811	-0.081978
C	-1.5305021838	-0.1711696809	 1.5205490088	-0.238332
C	-1.3438867593	-0.6789584092	 0.0637411701	 0.318982
C	-2.3709418973	-0.7978645074	-1.0429777748	-0.483543
C	-3.5688767278	-1.5306670703	-0.6368835039	 0.274013
N	-4.5201858734	-2.1005914861	-0.3137655171	-0.309069
N	-0.6220712306	-1.8733301853	 0.6593535016	-0.336609
H	 0.8030020012	 1.8476556344	 0.0219919338	 0.29263
H	 0.7362471003	-0.3469389527	-0.699793845	 0.065484
H	 0.694655131	-0.7532124152	 2.1536226431	 0.087911
H	-2.1718093424	-0.7918926822	 2.1454305601	 0.124465
H	-1.6848643102	 0.8983970236	 1.6480705216	 0.117777
H	-2.6624533058	 0.2094187589	-1.362853346	 0.170208
H	-1.928426796	-1.2934181101	-1.9155562202	 0.151972
H	 0.0738535797	-2.2227406257	-0.0114815892	 0.20365
55.9085	107.0049	201.7732	253.1416	284.4589	335.1584	387.4506	392.3357	496.7259	574.6034	601.6178	694.3158	760.3539	842.5646	876.7533	912.5589	934.9998	959.3085	983.5613	1003.6413	1050.845	1096.6402	1130.0622	1142.9455	1161.3095	1203.5076	1207.7292	1232.1931	1259.9806	1277.7717	1309.9141	1321.7438	1351.9723	1425.3463	1453.2541	1495.4481	2367.3844	2991.3765	3038.6998	3079.0706	3100.6484	3120.1885	3184.6035	3348.3307	3819.4675
OC1C2CC1(CC#N)N2	O[C@H]1[C@H]2C[C@]1(CC#N)N2	
InChI=1S/C6H8N2O/c7-2-1-6-3-4(8-6)5(6)9/h4-5,8-9H,1,3H2	InChI=1S/C6H8N2O/c7-2-1-6-3-4(8-6)5(6)9/h4-5,8-9H,1,3H2/t4-,5+,6+/m1/s1
