16
gdb 64852	2.7611	1.25622	1.00027	4.1334	75.47	-0.2775	-0.0095	0.268	1195.918	0.121793	-400.708167	-400.699192	-400.698248	-400.74242	32.778	
C	-0.4314200559	 1.5977118852	 0.0285917778	-0.440034
C	 0.0906190322	 0.1699806015	-0.0714042322	 0.26809
C	 0.9040928641	-0.2029079436	-1.3418998425	-0.345783
C	 2.0858193393	-0.4222684968	-0.3607771496	-0.052441
O	 1.2503422805	-0.0395896335	 0.7710106285	-0.30333
C	 2.6181003503	-1.7682577302	-0.2595544394	 0.340878
C	 3.0635148736	-2.8820280032	-0.1901222682	-0.438699
C	-0.9742895865	-0.7950630969	 0.25505394	 0.275045
N	-1.8217501637	-1.5432459674	 0.4943610405	-0.331759
H	 0.3669777867	 2.2969563855	-0.2327329444	 0.130091
H	-1.2769002546	 1.747736936	-0.649481549	 0.140748
H	-0.761940394	 1.8068108694	 1.0492821146	 0.151971
H	 0.5710690674	-1.0949352227	-1.8685067386	 0.149432
H	 1.0354336202	 0.6224421686	-2.0417563422	 0.127725
H	 2.9051024681	 0.2960956441	-0.479065531	 0.116778
H	 3.4526600824	-3.8682192958	-0.1212444543	 0.211286
32.6108	139.815	181.2442	197.5744	216.8391	238.2467	327.493	373.1141	478.4195	518.0297	562.2799	583.3391	631.5775	648.2479	683.7252	783.3648	858.8859	906.3947	929.8001	972.7781	979.1914	1051.0469	1104.7881	1138.058	1200.6233	1254.8772	1262.6336	1272.2487	1370.3215	1405.7936	1477.2759	1483.7359	1489.7153	2239.1698	2354.4876	3038.5216	3045.9924	3099.854	3125.4768	3132.1628	3170.5262	3500.5327
CC1(CC(O1)C#C)C#N	C[C@]1(C[C@@H](O1)C#C)C#N	
InChI=1S/C7H7NO/c1-3-6-4-7(2,5-8)9-6/h1,6H,4H2,2H3	InChI=1S/C7H7NO/c1-3-6-4-7(2,5-8)9-6/h1,6H,4H2,2H3/t6-,7-/m0/s1
