27
gdb 123013	4.77092	0.49472	0.47295	0.0933	97.97	-0.2605	0.0911	0.3516	2479.2008	0.250805	-353.560442	-353.548952	-353.548008	-353.598449	41.514	
C	-0.1784667378	 1.5569551946	 0.0684947997	-0.378799
C	-0.2068229285	 0.0356756649	-0.1018555072	-0.163247
C	 0.7896324112	-0.4751329987	-1.1482272829	-0.160222
C	 0.7676230601	-1.9968788615	-1.3225018961	-0.166473
C	 1.7658721312	-2.5074137718	-2.3710295332	-0.213522
C	 1.739413814	-4.0154892741	-2.5184517588	 0.013738
C	 0.7416597691	-4.6954341991	-3.4293618363	-0.29077
C	 2.2160279219	-4.7435199988	-3.7563763443	-0.005227
C	 2.7739198608	-4.0345845321	-4.9717022137	-0.403042
H	 0.8129241936	 1.9018851146	 0.38317658	 0.112176
H	-0.4200620209	 2.0654719105	-0.8717061738	 0.112099
H	-0.9003471687	 1.8898438367	 0.8210486568	 0.109362
H	 0.0041831711	-0.4450734483	 0.8627744446	 0.092771
H	-1.2197651579	-0.282920127	-0.381894061	 0.093001
H	 0.5779882039	 0.0054748426	-2.114113905	 0.088788
H	 1.8035717605	-0.1545592755	-0.8696035347	 0.089255
H	 0.9808716685	-2.4762648064	-0.3567257715	 0.089011
H	-0.2437989488	-2.3206847301	-1.6024905412	 0.09523
H	 1.5471477802	-2.0291300653	-3.3335149719	 0.090595
H	 2.7784404189	-2.1813150919	-2.0938669301	 0.091163
H	 1.9394318185	-4.537235497	-1.5842483824	 0.075194
H	 0.2427387287	-5.5979634262	-3.0929056674	 0.104326
H	 0.1202921496	-4.0530571606	-4.0476079641	 0.10316
H	 2.6999343275	-5.6967777255	-3.5561974374	 0.078219
H	 2.2409846085	-3.1037787633	-5.1852357453	 0.115211
H	 3.8337473392	-3.7869576199	-4.8414815718	 0.113897
H	 2.6895794859	-4.6684574307	-5.8616194109	 0.114106
42.5025	53.041	77.8729	117.1864	134.2526	163.1593	202.9406	232.8047	248.9309	321.6426	347.3709	413.0505	449.5375	529.5534	730.0336	749.3493	766.11	822.1611	841.0946	864.1716	902.9961	908.2382	941.8362	977.1156	1013.5248	1028.3585	1052.2901	1062.6356	1069.3141	1094.9431	1112.6982	1136.6492	1153.2331	1199.3018	1199.9976	1235.847	1249.1307	1261.174	1296.7633	1326.2157	1328.6948	1333.0682	1376.9484	1396.2516	1399.8883	1413.2273	1418.6053	1430.6419	1477.579	1481.9061	1488.6615	1493.3901	1495.9141	1500.1344	1503.489	1505.7261	1512.9702	2998.2808	3003.0234	3008.5451	3016.0131	3021.4974	3027.6755	3027.9967	3036.2233	3049.4728	3063.4855	3083.6007	3094.1018	3099.3951	3103.2332	3115.8244	3119.8835	3132.9089	3203.5092
CCCCCC1CC1C	CCCCC[C@H]1C[C@H]1C	
InChI=1S/C9H18/c1-3-4-5-6-9-7-8(9)2/h8-9H,3-7H2,1-2H3	InChI=1S/C9H18/c1-3-4-5-6-9-7-8(9)2/h8-9H,3-7H2,1-2H3/t8-,9+/m1/s1
