16
gdb 56449	2.46143	1.30205	0.98526	6.1717	71.52	-0.2711	-0.0169	0.2541	1201.902	0.123699	-434.042066	-434.033225	-434.032281	-434.076576	31.606	
O	 1.1110847872	 1.3889685638	-0.5049803379	-0.408951
C	 0.272794686	 0.4786927534	 0.1345475667	-0.025711
C	-0.0970703902	-0.6439272143	-0.7605221163	 0.271361
N	-0.4044832292	-1.5021724567	-1.469662355	-0.323481
C	 0.929339506	-0.0704710978	 1.4138917783	 0.318911
N	 2.1254669189	 0.3005960791	 1.6274000775	-0.526292
N	 0.1748334813	-0.9788569864	 2.1308785711	-0.070868
C	-1.1040052286	-0.69153369	 2.760669651	-0.232033
C	 0.1096045238	-1.0206323089	 3.5765022432	-0.236428
H	 1.9652571059	 1.3032429458	-0.0400912052	 0.304974
H	-0.6672479371	 0.977484764	 0.4170298601	 0.130355
H	 2.5232679005	-0.0930406953	 2.478827685	 0.233327
H	-1.4449429651	 0.3409884618	 2.7765587786	 0.13851
H	-1.8800857718	-1.4347646129	 2.6075709248	 0.148848
H	 0.2128211786	-2.0031965586	 4.0262719893	 0.143625
H	 0.5777455137	-0.205182257	 4.1240931687	 0.133855
36.8438	102.8967	127.0633	194.0929	222.5613	266.9754	343.1528	426.2829	460.5922	478.9525	555.1121	607.3356	678.9357	820.6461	837.705	868.7817	900.172	956.4788	976.0007	1045.6682	1064.9426	1128.9164	1134.6602	1142.5815	1170.2189	1173.4911	1234.2296	1305.2378	1348.343	1411.8514	1467.4758	1493.605	1522.0757	1721.1415	2359.408	2992.3874	3108.2111	3113.6567	3197.754	3211.2638	3500.2129	3589.8107
OC(C#N)C(=N)N1CC1	O[C@@H](C#N)[C]([NH])N1CC1	
InChI=1S/C5H7N3O/c6-3-4(9)5(7)8-1-2-8/h4,7,9H,1-2H2	InChI=1S/C5H7N3O/c6-3-4(9)5(7)8-1-2-8/h4,7,9H,1-2H2/t4-/m0/s1
