16
gdb 130947	6.28189	0.69059	0.64898	2.1393	71.8	-0.2572	-0.0299	0.2274	1627.5865	0.123604	-437.889917	-437.881522	-437.880578	-437.924945	29.07	
O	-0.302219915	 0.0131394614	-0.4281669376	-0.231219
C	 0.0090152851	 1.1128138626	-0.0520758801	 0.156958
C	 1.3570888487	 1.7581037441	-0.2874720304	-0.270536
C	 1.2151913977	 3.122554023	-0.9986261695	-0.328863
C	 2.5283639306	 3.8283699808	-1.1480315956	 0.390319
N	 2.7754175969	 4.9069995143	-0.440895698	-0.196985
O	 4.0625693412	 5.3060643435	-0.7886090693	-0.160545
C	 4.5485547519	 4.4509731722	-1.6982443809	 0.086837
C	 3.6381948901	 3.4864274565	-1.9783022474	-0.33121
H	-0.7101088328	 1.7505729998	 0.5143005126	 0.07733
H	 1.8273663892	 1.9209833898	 0.6918472107	 0.136396
H	 1.9821529388	 1.0656164774	-0.8574879542	 0.125804
H	 0.7672582186	 2.9711243172	-1.987413433	 0.129911
H	 0.5411474779	 3.7709995557	-0.4303326195	 0.136263
H	 5.546418754	 4.6583187898	-2.0529191786	 0.154531
H	 3.7311210172	 2.6631484618	-2.6668251293	 0.125007
43.6877	62.0903	74.1489	119.578	283.9397	328.4106	349.8112	517.4564	616.6384	674.3823	752.3025	767.3983	801.8007	859.6105	875.2455	910.731	944.5025	983.7813	1013.2908	1070.9707	1079.7215	1095.7929	1159.2892	1194.5333	1266.7395	1288.9086	1310.7903	1367.4572	1429.7464	1452.4089	1463.6985	1480.955	1492.1656	1610.056	1838.3705	2856.987	3026.2752	3044.6364	3089.6016	3111.3569	3261.3024	3285.2932
O=CCCC1=NOC=C1	O=CCCc1nocc1	
InChI=1S/C6H7NO2/c8-4-1-2-6-3-5-9-7-6/h3-5H,1-2H2	InChI=1S/C6H7NO2/c8-4-1-2-6-3-5-9-7-6/h3-5H,1-2H2
