20
gdb 79825	2.22886	1.96006	1.71865	0.9998	77.53	-0.1932	0.0882	0.2814	953.0433	0.171356	-403.100679	-403.092815	-403.091871	-403.132343	31.781	
C	-0.1810853262	 1.5118349146	-0.0392918855	-0.342369
N	 0.0810961362	 0.0789388458	 0.0243342385	-0.113053
C	 1.0780638694	-0.4885190942	-0.8720792078	-0.057637
C	 2.4851299169	-0.3129164106	-0.312031835	 0.092557
O	 2.7008533903	 0.7057480729	 0.64302114	-0.26954
C	 1.8511746555	 0.4154931765	 1.7587758828	-0.113032
C	 0.7866541227	-0.5389204078	 1.2062236133	 0.293308
C	-0.1284109914	-1.1877317681	 2.2209373879	-0.48082
C	 1.6139074658	-1.4044635857	 0.2131444358	-0.211996
H	 0.7151539156	 2.1453707932	 0.025550203	 0.121758
H	-0.680568004	 1.7259918218	-0.9906948959	 0.117821
H	-0.8751616515	 1.7921369105	 0.7603337098	 0.114018
H	 0.8600494853	-0.685711014	-1.9179658319	 0.087783
H	 3.3477681932	-0.5124354069	-0.9373017521	 0.102511
H	 2.4254513504	-0.0566599196	 2.5714000322	 0.091408
H	 1.4340173579	 1.3575444405	 2.1300853126	 0.106165
H	-0.7228536805	-0.433481775	 2.7482925172	 0.119974
H	-0.8195166902	-1.872901216	 1.7243968579	 0.131112
H	 0.4463530522	-1.7462264115	 2.9678232001	 0.116254
H	 1.7961717025	-2.4694487563	 0.2469532871	 0.093776
183.1529	198.6609	220.4055	245.9133	288.1431	302.177	359.9589	464.3849	562.9176	620.2793	656.1469	721.7896	758.7288	779.3957	804.0881	856.5538	920.3776	946.4377	972.4246	982.1306	997.8497	1038.3478	1056.798	1084.8078	1116.3644	1144.9194	1161.9988	1173.1272	1196.4598	1213.4339	1233.1549	1249.2843	1279.3549	1312.2581	1370.0659	1402.3946	1409.1807	1442.7631	1482.3997	1485.4094	1493.9455	1506.1282	1523.8121	2980.1846	2996.5246	3033.5606	3066.0403	3069.8694	3091.9305	3096.9925	3123.123	3144.9823	3184.3181	3210.6367
CN1C2C3OCC1(C)C23	CN1[C@H]2[C@H]3OC[C@]1(C)[C@@H]23	
InChI=1S/C7H11NO/c1-7-3-9-6-4(7)5(6)8(7)2/h4-6H,3H2,1-2H3	InChI=1S/C7H11NO/c1-7-3-9-6-4(7)5(6)8(7)2/h4-6H,3H2,1-2H3/t4-,5+,6-,7+/m0/s1
