21
gdb 96246	2.4591	1.55014	1.08808	1.0387	88.23	-0.2185	-0.0138	0.2047	1181.7095	0.183694	-387.093341	-387.084857	-387.083913	-387.126169	33.416	
C	 0.0260097408	 1.5331723937	-0.0492424028	-0.387022
C	 0.0205996824	 0.0000532559	 0.0311790938	 0.068093
O	 0.5951653292	-0.4614785379	-1.1779037347	-0.239342
C	 0.1366695367	-1.7060306572	-1.6579396456	-0.064373
C	 0.5196020194	-2.8937539425	-0.7538087453	-0.285221
C	 1.9788042766	-2.8794835461	-0.4046987938	-0.049517
C	 2.5070500191	-2.1142066677	 0.5572490527	-0.065155
C	 1.7726376307	-1.2551685389	 1.4906545176	-0.105641
C	 0.72090857	-0.4480962323	 1.2968927223	-0.051411
H	 1.0537403843	 1.8947963749	-0.144396235	 0.131518
H	-0.5409549872	 1.860884387	-0.9242575443	 0.118729
H	-0.4182638271	 1.9773003897	 0.8461056746	 0.110968
H	-1.0327725758	-0.3305725466	 0.0879080325	 0.072476
H	-0.9561091995	-1.6885770084	-1.8021788177	 0.085284
H	 0.6012507778	-1.8205604854	-2.6429226758	 0.105354
H	-0.078541018	-2.8438998791	 0.1641216415	 0.113443
H	 0.2443406008	-3.8204322146	-1.2701953342	 0.095673
H	 2.6417846954	-3.5077074438	-0.9946565692	 0.08646
H	 3.5752907978	-2.195852419	 0.7515609626	 0.085743
H	 2.1478716999	-1.3022192234	 2.5136166705	 0.089244
H	 0.3126645768	 0.0423017517	 2.1806102904	 0.084698
73.6292	206.9097	220.8302	239.7504	259.939	286.844	342.7716	381.4143	455.8756	546.7456	566.549	642.0904	708.4379	790.4941	797.0561	831.057	859.1513	872.5922	939.3026	966.2213	998.9338	1011.2506	1023.5607	1037.8337	1091.9098	1114.7623	1147.9709	1153.2496	1235.4354	1264.1322	1280.1484	1287.9794	1319.7706	1348.1001	1382.3331	1396.5169	1406.0799	1425.6171	1450.1931	1481.5953	1485.2688	1493.6332	1500.5677	1698.0577	1710.8339	2928.2386	2970.3148	3028.7906	3044.721	3063.1537	3080.3254	3106.047	3121.4156	3126.5327	3130.5145	3137.0326	3161.7773
CC1OCCC=CC=C1	C[C@H]1OCCC=CC=C1	
InChI=1S/C8H12O/c1-8-6-4-2-3-5-7-9-8/h2-4,6,8H,5,7H2,1H3/b3-2-,6-4-	InChI=1S/C8H12O/c1-8-6-4-2-3-5-7-9-8/h2-4,6,8H,5,7H2,1H3/b3-2-,6-4-/t8-/m1/s1
