17
gdb 97031	2.57802	1.52987	0.9716	4.8571	81.58	-0.2145	-0.0557	0.1588	1185.4684	0.135871	-418.035404	-418.026715	-418.025771	-418.070136	31.595	
C	-0.0063753533	 1.4316475822	-0.3059547008	-0.344899
N	 0.0415314653	-0.0041264436	-0.1242047437	-0.245313
C	-1.0310865149	-0.6057591627	 0.215908394	 0.287314
N	-2.2610411937	-0.003906544	 0.4320024578	-0.390966
C	-3.4232340469	-0.677212976	 0.8035316803	 0.014168
C	-3.4718150348	-1.994935983	 0.9933875698	-0.125932
C	-2.2579698901	-2.8542018965	 0.8168133927	-0.375196
C	-0.9790293696	-2.1217597702	 0.407326493	 0.330258
O	 0.050163594	-2.7230230761	 0.2382441535	-0.282135
H	 0.9819907484	 1.7960692512	-0.5941875927	 0.135754
H	-0.7144251619	 1.7311302165	-1.0968554494	 0.113366
H	-0.2999955572	 1.9616867476	 0.6156698085	 0.113383
H	-2.3136740039	 0.9935206504	 0.3106926558	 0.254365
H	-4.2877554751	-0.0352471181	 0.925367004	 0.115566
H	-4.4066758026	-2.4592346547	 1.2817419743	 0.100797
H	-2.0186602637	-3.4070671606	 1.7363733613	 0.14975
H	-2.42390635	-3.6358681024	 0.0619120716	 0.149722
17.8353	96.7673	168.2617	204.1766	221.4134	357.5181	374.3107	462.4635	493.7283	506.0163	524.5373	554.4275	678.7498	721.3568	736.5677	876.2001	936.2938	954.1142	974.9066	1020.8111	1088.789	1092.1362	1134.3317	1184.7092	1194.6328	1199.417	1327.3108	1340.5591	1426.5396	1428.8399	1431.1635	1468.1555	1505.9065	1511.3124	1702.7608	1741.4316	1821.1361	2952.6787	2997.3948	3011.0714	3031.1771	3107.6189	3194.1257	3214.2643	3652.551
CN=C1NC=CCC1=O	CN=C1NC=CCC1=O	
InChI=1S/C6H8N2O/c1-7-6-5(9)3-2-4-8-6/h2,4H,3H2,1H3,(H,7,8)	InChI=1S/C6H8N2O/c1-7-6-5(9)3-2-4-8-6/h2,4H,3H2,1H3,(H,7,8)
