22
gdb 84018	2.1694	1.62268	1.41278	1.1438	82.09	-0.2156	0.085	0.3005	1095.5024	0.195044	-404.327291	-404.318431	-404.317487	-404.360106	34.621	
C	-0.3671262211	 1.45276978	-0.0206291448	-0.33744
N	-0.0071152196	 0.0414429332	 0.0358485213	-0.127346
C	 1.3329891714	-0.4269317071	-0.3328650245	-0.068638
C	 2.4694585059	 0.527980125	-0.6886260185	-0.240916
C	 3.2023464199	 1.021179082	 0.5610584184	-0.075467
O	 2.2870329456	 1.4745929315	 1.5434722905	-0.237513
C	 1.5299874475	 0.4140542741	 2.1003172785	-0.147776
C	 0.8474680757	-0.500221933	 1.0867040583	 0.27818
C	 0.3776676344	-1.8123068217	 1.6836242313	-0.453273
H	 0.4031279565	 2.1495485876	 0.3300857217	 0.129362
H	-0.6281912914	 1.7047348124	-1.0541908883	 0.116385
H	-1.2657896409	 1.6011773789	 0.5874603766	 0.118418
H	 1.3069202012	-1.3401060509	-0.9263278445	 0.08164
H	 3.1791839756	 0.0140015954	-1.3454519997	 0.100266
H	 2.085768362	 1.3853091203	-1.2537636229	 0.111822
H	 3.8287253425	 0.2135748782	 0.9759488282	 0.087489
H	 3.8536081949	 1.8703243198	 0.3341675169	 0.106183
H	 2.1787785568	-0.2106624177	 2.7382066677	 0.091349
H	 0.7864593936	 0.8859507349	 2.7531071766	 0.111235
H	-0.3223603146	-1.6405550688	 2.5105735523	 0.115447
H	-0.1411646717	-2.4030620835	 0.9256842274	 0.129072
H	 1.2181103358	-2.3979049006	 2.0729161473	 0.11152
143.0868	168.407	186.6901	215.6615	241.2807	269.8585	321.637	346.2495	432.7193	453.8021	491.4924	563.5299	604.1677	738.2699	747.811	791.4309	893.86	929.8201	930.7548	1005.9676	1013.2478	1052.9425	1070.7612	1117.4958	1126.87	1137.4624	1159.7983	1167.3968	1175.7065	1254.7809	1254.8839	1282.4527	1322.5826	1353.258	1365.0347	1378.7486	1410.6052	1419.198	1430.1684	1463.1014	1479.378	1485.3348	1490.281	1492.9489	1499.296	1504.9135	1520.1668	2957.2156	2966.4404	3018.08	3025.2034	3037.1466	3056.97	3074.7961	3083.7936	3084.3517	3085.1346	3090.6969	3103.448	3126.047
CN1C2CCOCC12C	CN1[C@H]2CCOC[C@@]12C	
InChI=1S/C7H13NO/c1-7-5-9-4-3-6(7)8(7)2/h6H,3-5H2,1-2H3	InChI=1S/C7H13NO/c1-7-5-9-4-3-6(7)8(7)2/h6H,3-5H2,1-2H3/t6-,7+,8?/m0/s1
