21
gdb 98071	3.20081	0.99772	0.81056	2.7996	82.88	-0.2272	-0.0418	0.1854	1492.1476	0.180074	-420.424755	-420.413768	-420.412824	-420.461746	38.177	
C	 1.1970878785	 1.4102628003	 0.621150089	-0.38233
C	 0.6693882872	 0.0670615994	 0.1256565998	-0.266797
C	 1.532901713	-0.5470921562	-0.9571415071	 0.337359
O	 2.5094723816	 0.010834018	-1.4074245773	-0.319483
C	 1.1246595697	-1.9487044507	-1.4270811768	 0.280607
N	 0.521040632	-2.6534810747	-0.5365483138	-0.531319
N	 1.5359339163	-2.363699414	-2.6731903931	-0.076494
C	 1.3213155962	-3.7534077537	-3.0298655009	-0.350918
C	 1.7168276767	-1.4643706505	-3.807684343	-0.348309
H	 2.1940889713	 1.3035910544	 1.0571024153	 0.128288
H	 1.2777476735	 2.1311731334	-0.1969147639	 0.123865
H	 0.5314345894	 1.8245162068	 1.3834527302	 0.109284
H	 0.5696188157	-0.6697431282	 0.9283263395	 0.157317
H	-0.3468834171	 0.1587912012	-0.2827753373	 0.122283
H	 0.2946336899	-3.5904317106	-0.8671635587	 0.21273
H	 0.2630318935	-3.988428647	-3.2250819117	 0.122289
H	 1.8897538387	-3.9754533814	-3.9359927771	 0.132101
H	 1.68079366	-4.4126091166	-2.2338303024	 0.140722
H	 1.8741184278	-0.4460207166	-3.4680871549	 0.16823
H	 2.5979037827	-1.768512899	-4.3832644246	 0.128206
H	 0.8454951836	-1.4954754244	-4.4784830411	 0.112369
44.7242	64.0344	84.9813	104.5614	191.901	195.4238	206.7826	219.9874	299.6563	333.6396	367.6246	398.9883	448.7716	537.8779	651.2492	661.4632	747.2551	818.0856	854.2375	871.0434	994.3291	1036.7709	1081.862	1086.4757	1103.2831	1127.8921	1139.7716	1170.5289	1250.105	1262.1866	1311.389	1364.8745	1414.955	1428.0406	1440.9927	1447.8242	1473.7047	1488.4925	1494.1694	1494.7771	1498.7142	1511.2632	1525.4501	1656.4718	1792.9832	2982.298	2995.6932	3027.2889	3049.0554	3066.0962	3072.8531	3090.8019	3120.2975	3120.5904	3122.8785	3206.226	3489.8738
CCC(=O)C(=N)N(C)C	CCC(=O)C(=N)N(C)C	
InChI=1S/C6H12N2O/c1-4-5(9)6(7)8(2)3/h7H,4H2,1-3H3	InChI=1S/C6H12N2O/c1-4-5(9)6(7)8(2)3/h7H,4H2,1-3H3
