21
gdb 113388	2.99823	0.96374	0.81546	2.8254	75.13	-0.2586	0.0646	0.3232	1477.7807	0.180808	-461.338352	-461.328167	-461.327222	-461.373875	37.221	
C	-0.2406180618	 1.4064941617	-0.5399151785	-0.376977
C	-0.0117064012	 0.1009660288	 0.2318272601	-0.22254
C	-1.3054257744	-0.6426096006	 0.469396876	 0.03057
O	-1.8954829274	-1.3156062101	-0.6548706562	-0.309083
C	-1.4418180184	-2.1080413608	 0.4726499248	 0.277922
C	-0.2550483021	-3.0331817761	 0.2054960286	-0.109475
O	-0.5918573328	-4.4050705424	 0.2400455681	-0.430204
C	-2.6206824135	-2.7500448488	 1.1805357113	-0.142358
O	-3.2914412377	-3.6278353804	 0.2741751563	-0.420683
H	 0.7010288462	 1.9396802776	-0.6979161786	 0.117763
H	-0.6855247693	 1.200777134	-1.5179107463	 0.135384
H	-0.9176162356	 2.0746046103	 0.0034627524	 0.116945
H	 0.6913556153	-0.5349480263	-0.3135153892	 0.111801
H	 0.4428995628	 0.3162911063	 1.2075671813	 0.106266
H	-2.0337974218	-0.0807793521	 1.061046269	 0.084203
H	 0.1880658954	-2.7452962752	-0.7591204378	 0.101201
H	 0.509411698	-2.8830751736	 0.9789118408	 0.10735
H	-1.4912107908	-4.4976389795	-0.1048185532	 0.291075
H	-2.2901127907	-3.3671598303	 2.01920475	 0.131464
H	-3.307475741	-1.9794153764	 1.5541062318	 0.099443
H	-3.5280633692	-3.082576136	-0.4873241908	 0.299932
58.1667	80.3523	120.3652	164.5964	180.6641	230.8856	254.8457	324.8333	330.1801	389.6326	445.1643	478.997	494.537	593.9643	630.5586	729.2144	781.5229	843.7564	910.7765	922.3595	961.3193	1027.5839	1038.7428	1045.5961	1072.1275	1102.8808	1140.6636	1161.4706	1193.2732	1258.4101	1269.3078	1298.6307	1329.2305	1348.2748	1355.3506	1397.6793	1411.2215	1428.0908	1462.5036	1475.8532	1489.9291	1490.8845	1499.4494	1505.2749	1509.7328	2992.8636	3020.1305	3031.4734	3038.1455	3039.7659	3064.4165	3089.5568	3111.1168	3112.6212	3118.867	3729.5662	3778.2954
CCC1OC1(CO)CO	CC[C@H]1OC1(CO)CO	
InChI=1S/C6H12O3/c1-2-5-6(3-7,4-8)9-5/h5,7-8H,2-4H2,1H3	InChI=1S/C6H12O3/c1-2-5-6(3-7,4-8)9-5/h5,7-8H,2-4H2,1H3/t5-/m1/s1
