18
gdb 93432	2.84934	1.3989	0.98364	3.291	74.46	-0.2722	-0.0163	0.2559	1188.0829	0.148247	-439.149645	-439.141224	-439.140279	-439.183268	31.444	
C	-0.080007541	 1.5661994973	-0.0158224005	-0.398759
C	 0.0711886146	 0.0423010589	-0.0159949134	-0.128375
C	 0.7621325524	-0.5100703297	-1.2674867262	-0.229021
C	 0.8978836287	-2.0274820588	-1.1477016505	-0.290048
C	 1.6516156757	-2.4077760119	 0.0951268963	 0.402757
N	 2.4317349553	-3.3955377642	 0.1518987994	-0.486529
O	 1.4483161763	-1.6228305737	 1.2245013639	-0.242566
C	 0.7599276039	-0.4260901501	 1.2602773871	 0.425213
O	 0.7313226089	 0.1613053485	 2.3016801233	-0.300836
H	 0.8972571856	 2.0551008543	-0.0787758162	 0.128109
H	-0.6766562583	 1.8843302795	-0.8755673851	 0.115722
H	-0.5658296677	 1.9073194768	 0.8993292664	 0.146682
H	-0.9335999172	-0.406302123	 0.0326022787	 0.118191
H	 0.1824186488	-0.246996938	-2.156980246	 0.114437
H	 1.750567847	-0.0481225783	-1.3831267411	 0.118557
H	-0.1021605739	-2.4796369935	-1.0970949487	 0.130644
H	 1.4122424757	-2.4790585106	-1.9969071461	 0.142555
H	 2.8260813851	-3.4876702236	 1.0903218287	 0.233266
44.508	105.9047	203.6843	213.7985	284.3283	342.9988	365.8554	410.6736	472.855	542.3728	568.9612	663.1644	693.077	741.5994	850.9383	896.048	929.3952	952.6711	962.0321	1029.5237	1056.5289	1105.4821	1119.6401	1139.397	1146.6443	1202.6543	1247.6663	1311.5534	1326.2708	1352.7615	1364.0005	1376.8045	1410.6283	1473.6924	1490.6348	1498.6364	1502.6415	1765.9173	1860.7512	2991.1055	3022.8781	3038.247	3047.7617	3089.0449	3113.7218	3127.3847	3145.1778	3470.9399
CC1CCC(=N)OC1=O	C[C@H]1CC[C]([NH])OC1=O	
InChI=1S/C6H9NO2/c1-4-2-3-5(7)9-6(4)8/h4,7H,2-3H2,1H3	InChI=1S/C6H9NO2/c1-4-2-3-5(7)9-6(4)8/h4,7H,2-3H2,1H3/t4-/m0/s1
