19
gdb 73504	2.80765	1.77904	1.4155	1.4936	73.18	-0.2417	0.0756	0.3173	964.1727	0.161733	-423.024548	-423.017329	-423.016385	-423.055902	29.588	
O	-0.0376412499	 1.3474346855	 0.0177269184	-0.480134
C	 0.0653640828	-0.044325314	-0.0375528988	 0.407862
C	 1.0903245421	-0.6642383204	-0.9945060389	-0.306864
C	 0.3307526845	-1.828492933	-1.6769770851	-0.205821
C	-0.8160306699	-2.1820254772	-0.7077810688	 0.077576
O	-0.3451003076	-3.0302330947	 0.3469380061	-0.269787
C	 0.1597113843	-2.2346125049	 1.4168658172	-0.100794
C	-0.3611239531	-0.8247260514	 1.1956074326	-0.142268
C	-1.2047193872	-0.8476742117	-0.0579918342	-0.135628
H	 0.7016738729	 1.6822023643	 0.5367575354	 0.281498
H	 1.4061199902	 0.0969827142	-1.7123900365	 0.106691
H	 1.9884753862	-1.0131399445	-0.4719267999	 0.099916
H	-0.0993126671	-1.4817871118	-2.6233802265	 0.100307
H	 0.9538967609	-2.7011163577	-1.887859506	 0.104219
H	-1.6406273894	-2.7059865189	-1.1964118249	 0.080956
H	-0.2098630953	-2.6482989976	 2.3630404746	 0.103315
H	 1.2592838572	-2.2811368064	 1.4393684392	 0.090634
H	-0.6837854849	-0.2361294045	 2.0469872793	 0.09187
H	-2.1942812667	-0.4154703954	-0.1242337631	 0.096454
116.1793	224.9306	260.2572	310.5007	378.3561	387.3436	459.1202	552.596	613.5849	706.7402	742.3249	782.1966	809.012	855.2824	886.1955	901.1611	934.9114	949.3942	982.1619	994.3449	1022.0818	1048.0642	1056.5788	1078.5719	1098.87	1151.594	1191.6677	1217.6711	1226.5613	1262.1599	1274.9897	1289.2414	1298.2953	1316.4174	1344.2499	1348.5498	1388.1124	1439.3034	1477.7487	1502.6738	1532.6092	2985.5158	3039.3569	3041.4405	3043.3614	3088.4929	3093.7855	3108.4597	3177.6353	3204.3582	3797.6701
OC12CCC3OCC1C23	O[C@@]12CC[C@H]3OC[C@@H]1[C@@H]23	
InChI=1S/C7H10O2/c8-7-2-1-5-6(7)4(7)3-9-5/h4-6,8H,1-3H2	InChI=1S/C7H10O2/c8-7-2-1-5-6(7)4(7)3-9-5/h4-6,8H,1-3H2/t4-,5-,6-,7+/m1/s1
