18
gdb 74462	2.99538	1.40125	1.03817	3.4286	80.84	-0.2025	0.0029	0.2054	1170.9852	0.147959	-401.998074	-401.989666	-401.988722	-402.030814	32.257	
C	 0.0435607188	 1.52669941	-0.0052989238	-0.495904
C	-0.0610637397	 0.0404137732	 0.0051264244	 0.361834
C	-1.1364310195	-0.7600764	-0.0798856722	-0.363084
C	-0.6772846863	-2.1654159203	-0.0207957215	 0.226895
C	-1.3931971884	-3.3129675344	 0.6799285629	-0.291385
C	-1.2619235455	-3.3335497038	-0.8037861458	-0.29159
C	 0.8225113364	-2.0954388922	 0.1122077427	 0.377733
O	 1.6191357048	-3.0071765985	 0.1953623634	-0.397431
N	 1.1070901594	-0.7421916847	 0.1202433844	-0.412687
H	 0.6606604603	 1.8791401483	-0.8410523262	 0.134683
H	-0.9467991317	 1.976596736	-0.0998924424	 0.140021
H	 0.5031779745	 1.9024179826	 0.9172985162	 0.13468
H	-2.1613503372	-0.4345987692	-0.1767908411	 0.103165
H	-0.7570901819	-3.9777900411	 1.2542521947	 0.139953
H	-2.3595244878	-3.0906366921	 1.1182204022	 0.119156
H	-2.1358205576	-3.1261019886	-1.4109297401	 0.119159
H	-0.5365881195	-4.0125914857	-1.2388598246	 0.139934
H	 2.0443749009	-0.3840991496	 0.1996904369	 0.254867
110.644	155.5129	184.9046	226.5023	227.582	290.1341	356.979	460.5051	472.1091	565.1978	617.1967	617.4923	722.2227	756.9644	762.5076	792.7368	880.6187	913.5724	967.0447	990.5606	1004.0872	1012.7351	1062.474	1066.4149	1088.5814	1164.7033	1178.3876	1205.1741	1279.1986	1312.8091	1383.7538	1409.1496	1420.385	1454.4145	1476.3871	1486.3399	1493.5987	1700.8842	1822.1812	3021.9771	3069.237	3129.8067	3134.7985	3136.1402	3222.0478	3237.1293	3241.0382	3661.5384
CC1=CC2(CC2)C(=O)N1	CC1=CC2(CC2)C(=O)N1	
InChI=1S/C7H9NO/c1-5-4-7(2-3-7)6(9)8-5/h4H,2-3H2,1H3,(H,8,9)	InChI=1S/C7H9NO/c1-5-4-7(2-3-7)6(9)8-5/h4H,2-3H2,1H3,(H,8,9)
