15
gdb 44013	4.76019	1.61142	1.40759	1.9079	70.25	-0.2532	0.0038	0.2571	888.7724	0.114496	-416.684828	-416.678937	-416.677992	-416.714871	24.755	
N	-0.0357196475	 1.2686691108	 0.0334926996	-0.536584
C	-0.0564694438	 0.0143014	-0.0231449959	 0.399263
O	 1.0690394068	-0.8209042446	-0.1705686737	-0.327927
C	 0.3878263529	-2.077119375	-0.1636789485	 0.365512
C	 0.3971065719	-3.60310317	-0.2359060343	-0.252657
N	-1.1121930286	-3.2622902167	-0.0746154583	-0.185636
C	-0.7344731286	-2.1020647051	 0.8744915679	-0.032636
C	-1.2833339118	-0.9145135966	 0.0516024543	-0.188513
C	-0.9118129612	-2.0159997158	-0.9669121315	-0.032635
H	 0.9180695981	 1.6263905898	-0.0416420903	 0.232951
H	 0.6359611535	-4.0763787567	-1.1912050139	 0.125546
H	 0.809291448	-4.1605107567	 0.6085095238	 0.125546
H	-0.6615432463	-2.2423230193	 1.9516741998	 0.102066
H	-2.2520205912	-0.4353915504	 0.1672872131	 0.103637
H	-1.0465875622	-2.0554439638	-2.0465390021	 0.102065
156.9276	336.6739	408.4281	459.2958	491.0832	600.2401	680.0704	726.6732	783.1744	807.7715	813.6279	845.3297	856.0433	877.9598	903.0714	916.8869	940.2575	956.2083	1031.6958	1034.9807	1086.6027	1112.1753	1122.2298	1146.6247	1174.7335	1196.8989	1225.0218	1250.2066	1271.178	1299.7966	1316.9405	1513.7243	1802.3827	3065.8412	3133.8866	3134.9091	3137.578	3163.3326	3477.2706
N=C1OC23CN4C2C1C34	[NH][C]1O[C@@]23CN4[C@@H]2[C@@H]1[C@@H]34	
InChI=1S/C6H6N2O/c7-5-2-3-6(9-5)1-8(3)4(2)6/h2-4,7H,1H2	InChI=1S/C6H6N2O/c7-5-2-3-6(9-5)1-8(3)4(2)6/h2-4,7H,1H2/t2-,3-,4+,6+
