21
gdb 114130	4.33808	0.92212	0.85789	1.3141	80.09	-0.238	0.0863	0.3243	1434.1483	0.180721	-424.172538	-424.162997	-424.162053	-424.20714	35.01	
C	 0.0566289187	 1.2751511315	 0.1363491068	-0.235185
O	-0.3016760027	-0.0461117938	-0.1979066937	-0.240709
C	 0.4863893417	-0.5918578352	-1.2245701411	 0.147684
C	 1.9472003594	-1.0644355256	-0.8684554792	-0.350733
C	 1.5172522224	-2.4830043197	-1.267014432	 0.449302
C	 0.3634415434	-2.9434783867	-0.4229855714	-0.334844
C	 0.1085268098	-2.0184395057	-1.5978712706	-0.179623
O	 2.2875608189	-3.3489991982	-2.0107101887	-0.280478
C	 3.2605246861	-4.0352215956	-1.2409782472	-0.256196
H	 1.0907071318	 1.3424475211	 0.507193467	 0.106329
H	-0.0424646485	 1.9538704532	-0.7257708574	 0.103434
H	-0.6217687198	 1.6073841093	 0.9258658417	 0.12658
H	 0.4930912095	 0.0797245923	-2.0953893978	 0.069531
H	 2.6964943598	-0.6443313316	-1.5433199695	 0.106477
H	 2.2619829242	-0.9195072801	 0.1697295479	 0.095753
H	 0.0629822464	-3.9701490834	-0.6055388308	 0.113672
H	 0.2153341803	-2.5902324908	 0.593185427	 0.115847
H	-0.540365338	-2.3039666667	-2.4159045879	 0.093002
H	 3.980916664	-3.3416216048	-0.7844021039	 0.111494
H	 2.7941641133	-4.6295597128	-0.4429419541	 0.112066
H	 3.7944140092	-4.7015913369	-1.922057225	 0.126597
77.8184	88.7543	131.0578	162.6404	195.5453	210.6966	288.5016	342.4083	394.5105	416.6395	464.9126	555.8571	647.7227	699.5376	834.5831	885.4782	911.4901	952.1955	965.6801	978.8378	1028.2391	1045.8691	1063.9251	1089.1419	1097.9675	1138.2651	1162.9403	1181.4888	1184.1683	1202.662	1220.2503	1233.5615	1239.3685	1279.4878	1312.3259	1377.4762	1390.224	1469.8149	1478.1979	1482.1863	1486.2619	1488.1112	1505.2473	1508.0039	1510.395	2971.6258	2991.573	2993.1169	3018.8061	3044.6643	3049.8031	3113.1216	3113.9511	3121.1117	3121.5098	3194.0863	3213.3369
COC1CC2(CC12)OC	CO[C@H]1C[C@]2(C[C@@H]12)OC	
InChI=1S/C7H12O2/c1-8-6-4-7(9-2)3-5(6)7/h5-6H,3-4H2,1-2H3	InChI=1S/C7H12O2/c1-8-6-4-7(9-2)3-5(6)7/h5-6H,3-4H2,1-2H3/t5-,6-,7-/m0/s1
