14
gdb 131176	3.24171	1.31491	0.99451	2.8679	65.16	-0.2289	-0.0116	0.2173	1119.2883	0.102123	-469.974044	-469.966559	-469.965615	-470.006641	27.39	
O	-0.2320691296	 1.3982819123	 0.2295260597	-0.430041
C	-0.0387977693	 0.0766796617	 0.0597861044	 0.272772
C	 0.1425488016	-0.5971803097	-1.1298671167	 0.276505
N	 0.2943449428	-1.8845874684	-0.7127550702	-0.231206
N	 0.2048177651	-2.0043368536	 0.6132754415	-0.120309
N	 0.0093595074	-0.7980426037	 1.0904842495	-0.277366
C	 0.192345519	-0.1953640422	-2.5427688518	-0.052764
C	 1.3431550307	-0.5070903132	-3.4125755294	-0.173075
O	 0.141062709	-1.2788534122	-3.4812267729	-0.243335
H	-0.3441646236	 1.5444265008	 1.1775338758	 0.309703
H	 0.3821305146	-2.6999598557	-1.300055997	 0.290284
H	-0.4179504509	 0.6691050773	-2.7987667554	 0.124221
H	 1.5438700147	 0.1192595171	-4.2800067107	 0.13065
H	 2.2056612684	-1.0182069604	-2.9889852169	 0.123961
69.7164	143.2182	158.4095	300.6938	322.728	370.7443	453.6993	528.9146	606.6767	633.7517	722.5584	748.3997	762.3455	849.3902	905.1378	996.8588	1021.7508	1093.6977	1116.8482	1145.9373	1160.2107	1168.66	1235.7873	1265.7646	1270.0787	1360.7963	1389.5135	1435.6634	1520.7478	1538.6995	1683.0728	3090.0165	3129.6402	3184.1335	3648.7134	3793.7661
OC1=C(NN=N1)C1CO1	Oc1c([nH]nn1)[C@H]1CO1	
InChI=1S/C4H5N3O2/c8-4-3(2-1-9-2)5-7-6-4/h2H,1H2,(H2,5,6,7,8)	InChI=1S/C4H5N3O2/c8-4-3(2-1-9-2)5-7-6-4/h2H,1H2,(H2,5,6,7,8)/t2-/m1/s1
