15
gdb 18208	4.28699	1.76233	1.44859	4.8877	64.71	-0.2803	0.0164	0.2967	855.6035	0.120626	-362.662364	-362.65573	-362.654786	-362.69328	25.112	
N	 0.0609425966	-1.1678319645	-0.1243821776	-0.319383
C	 0.0376329365	-0.0151294042	-0.0590688851	 0.284447
C	 0.0323913404	 1.4552668396	-0.0272170934	-0.03017
O	-0.5900317542	 1.8776823962	 1.1821490236	-0.261793
C	-0.0778932773	 3.1706810507	 1.5213201696	-0.095064
C	 1.3403307577	 3.2042353442	 0.9858112948	-0.057816
C	 2.1822410806	 1.9870765864	 1.2650934344	-0.28679
C	 1.4203288698	 2.0883037413	-0.0292704645	-0.055135
H	-0.5322659291	 1.8075546396	-0.9054903491	 0.11891
H	-0.6821051062	 3.9644201705	 1.0564880822	 0.103892
H	-0.1569360315	 3.2630939126	 2.6086878472	 0.12337
H	 1.8092328961	 4.1640044326	 0.806297789	 0.102159
H	 3.258638931	 2.0992116763	 1.2109274936	 0.123576
H	 1.8347265843	 1.2779312302	 2.0098457736	 0.139901
H	 1.9365635351	 2.1892218687	-0.9751787583	 0.109897
105.6464	161.5714	260.1332	327.2667	378.5455	516.4928	542.3196	654.4361	724.7947	783.4637	833.7341	889.628	914.9294	956.0597	974.1512	1026.3727	1041.6761	1075.5795	1084.62	1092.7362	1116.6584	1128.9767	1195.3185	1236.2977	1303.205	1327.0185	1356.8584	1366.476	1401.383	1482.7287	1516.4316	2367.1532	2976.9654	2993.5147	3082.8389	3136.4353	3188.511	3200.1736	3227.6203
N#CC1OCC2CC12	N#C[C@H]1OC[C@H]2C[C@@H]12	
InChI=1S/C6H7NO/c7-2-6-5-1-4(5)3-8-6/h4-6H,1,3H2	InChI=1S/C6H7NO/c7-2-6-5-1-4(5)3-8-6/h4-6H,1,3H2/t4-,5-,6-/m1/s1
