17
gdb 36330	4.92701	0.80142	0.7298	2.1067	81.17	-0.2538	0.0197	0.2735	1519.2956	0.132978	-384.599002	-384.589778	-384.588834	-384.63396	33.654	
C	-0.3328077653	-1.1868803124	 0.2237449311	-0.435335
C	-0.2323096173	 0.0099633969	 0.1949858293	 0.301207
C	-0.0914044972	 1.4592557071	 0.1410409126	-0.368078
C	 1.3067193933	 1.909077768	-0.2888290305	 0.164931
C	 1.6094062739	 3.419193451	-0.2133091347	-0.326714
C	 2.7252775898	 3.0041742967	 0.7841883599	-0.031941
O	 2.3157157395	 1.6140563455	 0.7046066427	-0.290578
C	 4.0978423098	 3.2292117597	 0.3596835034	 0.337164
C	 5.2294970841	 3.4286330459	 0.0070021588	-0.460175
H	-0.4218647375	-2.2442422047	 0.2587195976	 0.19733
H	-0.8178815854	 1.8781672084	-0.5692033102	 0.131027
H	-0.3172548865	 1.8969615163	 1.1215291098	 0.131578
H	 1.5625923327	 1.4447100597	-1.2489537804	 0.095777
H	 1.9571001159	 3.8861996882	-1.1337904874	 0.125822
H	 0.8171695995	 4.0241289648	 0.232046098	 0.114476
H	 2.5882101038	 3.386310569	 1.803244711	 0.109642
H	 6.2321953667	 3.5987219699	-0.299235071	 0.203867
37.6105	70.4516	115.1702	172.8537	217.1751	313.8745	343.1049	367.9489	490.135	525.6854	550.8406	620.6014	622.4081	641.9543	670.4317	765.1566	789.7623	876.8691	912.4488	959.7882	978.4612	1016.9325	1030.7367	1081.7233	1116.3711	1151.5654	1231.7904	1254.0716	1258.091	1294.4263	1339.4783	1361.7653	1398.477	1455.814	1488.1049	2235.0359	2242.6352	3013.7325	3024.9248	3030.0564	3057.7835	3083.7594	3150.6001	3502.5809	3507.4924
C#CCC1CC(O1)C#C	C#CC[C@H]1C[C@@H](O1)C#C	
InChI=1S/C8H8O/c1-3-5-8-6-7(4-2)9-8/h1-2,7-8H,5-6H2	InChI=1S/C8H8O/c1-3-5-8-6-7(4-2)9-8/h1-2,7-8H,5-6H2/t7-,8-/m0/s1
