14
gdb 48747	2.73874	1.71397	1.20277	3.4495	68.94	-0.2509	-0.0692	0.1817	981.098	0.100609	-436.689873	-436.682535	-436.681591	-436.721902	27.179	
O	 0.004072675	-0.041410129	 0.1310146399	-0.249615
C	 0.0142400677	 1.1590852618	 0.0469640478	 0.092941
C	 1.2712770041	 1.9803143212	 0.0400333362	 0.083214
C	 2.5500647701	 1.3145038117	-0.4065094854	-0.254067
N	 2.3474329687	 1.64044825	 1.0036665487	-0.111666
C	 2.9162094419	 2.9010613944	 1.3512251307	-0.028352
C	 2.2655864154	 3.9695202713	 0.8635233383	-0.224224
C	 1.165887177	 3.4921555502	-0.0009323836	 0.33194
O	 0.3028987884	 4.1208842837	-0.5725839618	-0.339429
H	-0.9116528161	 1.7589179189	-0.0560524577	 0.114926
H	 2.4686675532	 0.2595528418	-0.651405784	 0.162824
H	 3.2664692443	 1.9080054183	-0.9673773311	 0.142659
H	 3.81231833	 2.8791196422	 1.9594427526	 0.143065
H	 2.4996800002	 5.0110500736	 1.0292458393	 0.135786
96.4473	158.1287	187.5495	265.771	309.6325	361.4921	478.7738	575.2202	628.8373	715.001	762.3167	777.6982	808.4909	841.8675	902.5224	933.4674	960.0774	1022.8513	1049.4944	1082.1231	1120.6583	1133.6751	1173.8309	1279.1459	1314.1859	1354.2425	1414.2242	1470.3122	1611.9336	1800.4368	1823.113	2944.9023	3115.3522	3213.786	3223.8308	3250.9881
O=CC12CN1C=CC2=O	O=C[C@]12CN1C=CC2=O	
InChI=1S/C6H5NO2/c8-4-6-3-7(6)2-1-5(6)9/h1-2,4H,3H2	InChI=1S/C6H5NO2/c8-4-6-3-7(6)2-1-5(6)9/h1-2,4H,3H2/t6-,7?/m0/s1
