17
gdb 95099	2.53454	1.59375	1.17721	4.3821	73.26	-0.2398	0.0008	0.2406	1067.1432	0.136459	-418.000423	-417.992311	-417.991366	-418.032964	30.723	
C	 0.1072365731	 1.5692066399	-0.0319532867	-0.399527
C	 0.0550840345	 0.0447086803	 0.0160592772	-0.037369
N	 0.7662371003	-0.5570799783	-1.1220264038	-0.323791
C	 1.2750118888	-1.8801162073	-0.7525012988	-0.197121
C	 1.5416444082	-1.7459829678	 0.731374459	-0.020143
O	 2.2110054126	-0.5420909044	 1.1085390651	-0.271738
C	 0.7815841116	-0.5768454045	 1.2078775974	 0.311045
C	 0.2157502189	-0.4668816437	 2.5288698158	 0.223312
N	-0.26945335	-0.3606678568	 3.5725643499	-0.334049
H	 1.1467191784	 1.9052597254	-0.031180016	 0.143154
H	-0.3738147842	 1.9373687242	-0.9430757319	 0.118084
H	-0.4155291683	 2.0045557844	 0.8254067141	 0.130271
H	-0.9966539322	-0.2855469288	 0.0958926248	 0.079406
H	 0.2036753763	-0.570564689	-1.962359706	 0.230327
H	 0.5574865092	-2.7084543966	-0.8867963559	 0.099812
H	 2.1784884801	-2.1216697151	-1.3242861482	 0.124916
H	 1.7397644527	-2.615184012	 1.351059344	 0.123412
112.0259	146.5536	175.7764	236.0309	259.51	332.6352	396.3851	487.586	493.6801	556.7343	585.3836	615.2768	667.8724	805.2562	856.6018	911.6988	947.2485	961.1178	995.4568	1044.5023	1079.1279	1099.8819	1128.5538	1143.0891	1192.0687	1225.6381	1266.8868	1302.8234	1367.4664	1377.0413	1407.6907	1432.8852	1446.8903	1494.2283	1498.1137	1507.4954	2360.82	2934.9832	2954.4933	3043.4186	3053.4704	3111.7643	3134.9763	3172.3594	3575.2144
CC1NCC2OC12C#N	C[C@H]1NC[C@H]2O[C@@]12C#N	
InChI=1S/C6H8N2O/c1-4-6(3-7)5(9-6)2-8-4/h4-5,8H,2H2,1H3	InChI=1S/C6H8N2O/c1-4-6(3-7)5(9-6)2-8-4/h4-5,8H,2H2,1H3/t4-,5-,6+/m1/s1
