14
gdb 25862	2.98149	1.1371	0.82669	7.2821	76.38	-0.2031	-0.0337	0.1695	1282.6184	0.100657	-470.066525	-470.057576	-470.056632	-470.100369	32.306	
N	 0.065538113	 1.3053369065	 0.200089929	-0.561733
C	-0.1109355265	-0.0492293282	 0.0136257762	 0.298472
N	 1.050486957	-0.7491032201	-0.1684321236	-0.543187
H	 0.9324159368	-1.7523769285	-0.1590728948	 0.27998
H	 1.8597799701	-0.4115553131	 0.3314848381	 0.260921
C	-1.332734546	-0.6895694288	 0.0220495589	 0.178248
C	-2.6088803017	-0.0319322634	-0.0294285692	 0.059954
O	-3.6731009606	-0.6304316193	-0.015882278	-0.315211
C	-2.2536691824	-2.8831431148	 0.0267734708	 0.541671
O	-2.9864034997	-3.7935799259	 0.0199227037	-0.297899
N	-1.3253741273	-2.0926109184	 0.0377916088	-0.483371
H	 0.767038085	 1.7271148941	-0.3935290087	 0.262333
H	-0.7739210707	 1.8581023494	 0.2706392726	 0.266633
H	-2.5919939969	 1.0766761706	-0.1017808739	 0.05319
87.9867	113.2041	122.6694	201.8831	240.7542	338.6026	373.1665	408.4685	428.2709	451.3547	489.0298	580.5318	590.1423	607.0111	623.4599	635.2457	707.1422	844.4036	980.1483	1035.8418	1123.4687	1204.4949	1255.1719	1419.9039	1470.2075	1479.908	1614.9901	1637.1247	1690.2852	1737.1013	2333.2629	2880.8292	3560.264	3563.8654	3674.0828	3678.9272
NC(=[NH2+])C1=COC(=O)[N-]1	NC(=[NH2])[C](C=O)N=C=O	
InChI=1S/C4H5N3O2/c5-3(6)2-1-9-4(8)7-2/h1H,(H4,5,6,7,8)	InChI=1S/C4H5N3O2/c5-4(6)3(1-8)7-2-9/h1H,5-6H2
