17
gdb 69123	2.72915	1.66427	1.27547	2.5507	69.32	-0.2348	-0.0362	0.1985	1001.1623	0.135188	-458.959549	-458.951693	-458.950749	-458.991524	30.743	
O	-0.0829515652	 1.2813940165	-0.3415462097	-0.472539
C	-0.0518924262	-0.0580572769	-0.0233217765	 0.379584
C	-0.3556613666	-1.1161258345	-1.0324837514	-0.400053
C	-1.3363162385	-0.9096043757	 0.1286796936	 0.260135
O	-1.244433322	-1.7517923191	 1.2366147695	-0.307404
C	 0.1186265154	-1.7433690201	 1.6905270673	-0.107362
C	 0.7640219858	-0.4294851323	 1.1989057908	-0.287529
C	-2.6122873827	-0.2355724114	-0.0951742807	 0.085167
O	-2.7661420776	 0.5982345571	-0.9716798044	-0.3099
H	-0.8898289202	 1.4367834026	-0.8611423091	 0.30443
H	-0.7108403944	-0.7721996294	-1.9983542368	 0.140379
H	 0.1969674947	-2.0498181425	-1.0405535127	 0.128181
H	 0.1098245113	-1.8378515156	 2.7789824135	 0.123234
H	 0.6441766112	-2.6149593882	 1.2790943215	 0.10951
H	 1.8298820109	-0.5564357828	 0.9901579854	 0.120779
H	 0.650117583	 0.3781467839	 1.9275832423	 0.129496
H	-3.4187808691	-0.4883059115	 0.6211163875	 0.103892
143.3641	192.4325	203.8546	218.2272	315.073	381.2186	419.6257	445.0343	515.6684	551.805	602.907	667.214	706.1231	748.719	811.1031	882.955	925.7814	928.6204	970.3568	1037.5463	1040.5894	1055.5151	1086.3119	1138.373	1203.7719	1207.2754	1240.7952	1270.2858	1319.3201	1369.1545	1385.046	1415.3529	1450.5162	1459.7825	1493.9232	1527.6695	1755.8038	2944.3549	3018.5836	3062.1389	3096.2747	3112.7401	3129.5132	3227.1023	3662.8209
OC12CC1(OCC2)C=O	O[C@]12C[C@]1(OCC2)C=O	
InChI=1S/C6H8O3/c7-4-6-3-5(6,8)1-2-9-6/h4,8H,1-3H2	InChI=1S/C6H8O3/c7-4-6-3-5(6,8)1-2-9-6/h4,8H,1-3H2/t5-,6+/m1/s1
