20
gdb 63992	3.51691	0.99728	0.94215	4.6159	87.54	-0.259	-0.0385	0.2205	1334.9493	0.171022	-366.058645	-366.049682	-366.048738	-366.09208	34.378	
C	-0.5208281659	 1.5785601829	-0.1253054739	-0.443189
C	 0.0768650995	 0.1728409627	-0.0029045373	 0.306825
C	-1.0477156493	-0.8750419368	 0.0615137397	-0.422501
C	 1.032091104	-0.1699175243	-1.1906203393	-0.29062
C	 2.1504782331	-0.9469963118	-0.5581028867	-0.150547
C	 2.130134207	-0.8442637015	 0.7777878045	 0.206891
C	 0.9865290377	 0.0292597615	 1.2579355361	-0.348501
C	 3.0721045849	-1.4315561938	 1.6655958367	 0.194491
N	 3.821338248	-1.8969650796	 2.4170981937	-0.338049
H	 0.2630608729	 2.3419525542	-0.1726798891	 0.114095
H	-1.1320968481	 1.6689694492	-1.0300317	 0.116115
H	-1.1629796569	 1.8102273766	 0.731438682	 0.11782
H	-1.6663663036	-0.8419230385	-0.8417801922	 0.114207
H	-0.6400349701	-1.8872355222	 0.1541944951	 0.120794
H	-1.7009651388	-0.695534613	 0.9220177997	 0.11645
H	 0.5239620501	-0.7318348721	-1.9831360006	 0.112705
H	 1.4291255602	 0.7382259232	-1.6669376144	 0.116157
H	 2.8956990703	-1.4954973709	-1.1221713091	 0.119648
H	 1.3720248415	 0.9998772385	 1.5957082346	 0.118162
H	 0.4526166236	-0.4088974644	 2.1074926505	 0.119047
70.7496	148.4225	165.1644	248.8785	279.5183	313.6449	324.1474	369.1242	405.9286	414.1659	498.6295	570.5905	574.9349	628.5017	779.315	855.1521	864.9926	909.3118	927.4434	955.1786	955.7347	988.0895	1001.8906	1046.4892	1124.6023	1148.7522	1190.6616	1216.6435	1233.8619	1287.8668	1294.018	1324.2835	1342.2347	1402.6453	1423.6196	1474.1422	1484.0565	1486.486	1497.9411	1506.0535	1509.4518	1677.5893	2336.0542	3007.3104	3023.6852	3025.3802	3030.7547	3053.7525	3072.9529	3093.4516	3096.9484	3099.2458	3101.0435	3208.5341
CC1(C)CC=C(C1)C#N	CC1(C)CC=C(C1)C#N	
InChI=1S/C8H11N/c1-8(2)4-3-7(5-8)6-9/h3H,4-5H2,1-2H3	InChI=1S/C8H11N/c1-8(2)4-3-7(5-8)6-9/h3H,4-5H2,1-2H3
