16
gdb 15917	3.5973	1.89891	1.52994	1.3358	71.13	-0.225	0.0273	0.2523	859.9504	0.131141	-342.689102	-342.681834	-342.68089	-342.720553	28.038	
C	-0.0885664243	-1.2159289636	-0.2260022292	-0.424651
C	-0.0313347874	-0.0247795645	-0.0667143746	 0.273568
C	 0.0469603875	 1.4084047327	 0.0861960418	 0.138596
C	-0.4180794382	 2.2745103913	-1.126386362	-0.216437
N	 0.7857667981	 3.1450694713	-1.0097037507	-0.319072
C	 1.3542549229	 2.2909271865	 0.0594228207	-0.073762
C	 0.953502497	 2.8029019437	 1.457487565	-0.150088
N	-0.2537614211	 1.9281401779	 1.4423191958	-0.367236
H	-0.1401816845	-2.2693399159	-0.3493814447	 0.191443
H	-0.4700913139	 1.6964450996	-2.0551502346	 0.110256
H	-1.3681222674	 2.8044675687	-0.9869022708	 0.101099
H	 1.3460257383	 3.1396686556	-1.8532443151	 0.22464
H	 2.35883586	 1.8985141642	-0.1007154932	 0.082165
H	 1.6330120766	 2.5381518532	 2.2756366317	 0.104169
H	 0.7665260292	 3.8810992118	 1.4715756312	 0.106086
H	-1.1458107527	 2.4048703875	 1.5224649986	 0.219223
89.6028	150.5951	179.6754	330.1724	388.8307	483.1897	525.2303	579.6798	613.4982	619.5355	640.7682	708.1444	781.5106	846.6383	898.8422	938.0809	977.2947	1004.1987	1013.1165	1047.4941	1065.074	1104.1155	1140.1093	1156.1915	1192.5001	1250.9893	1288.0359	1319.0808	1349.9417	1367.0652	1393.9509	1502.3335	1502.8505	2229.8424	3019.8282	3026.9084	3071.6229	3082.3705	3110.0206	3501.5098	3525.0944	3548.7939
C#CC12CNC1CN2	C#C[C@]12CN[C@H]1CN2	
InChI=1S/C6H8N2/c1-2-6-4-7-5(6)3-8-6/h1,5,7-8H,3-4H2	InChI=1S/C6H8N2/c1-2-6-4-7-5(6)3-8-6/h1,5,7-8H,3-4H2/t5-,6-/m0/s1
