18
gdb 45134	2.73062	1.54828	1.0712	3.4642	78.23	-0.2398	-0.0506	0.1892	1105.5036	0.150224	-401.951604	-401.944161	-401.943217	-401.983542	29.507	
O	 0.0159730772	-0.0126082489	-0.5316878845	-0.32307
C	-0.0075018175	 1.1244223084	-0.1013035109	 0.359011
C	-1.3302457749	 1.8484104374	 0.1397177486	-0.323316
C	-1.4221889167	 3.1482575736	-0.6367872973	-0.023819
N	-1.9751276772	 4.3233473843	 0.0661364993	-0.342412
C	-0.5434726831	 4.2845344785	-0.2808214875	-0.012739
C	 0.4427835224	 4.1458558748	 0.8714326361	-0.283629
C	 1.4748955129	 3.0665219211	 0.6480430608	-0.05347
C	 1.2714806261	 1.8093076713	 0.2266246991	-0.125386
H	-2.1368962595	 1.1616601399	-0.1278617779	 0.119432
H	-1.4228602232	 2.0748963496	 1.2077647275	 0.127705
H	-1.6684574832	 3.0315631748	-1.6899449082	 0.095317
H	-2.4823949067	 4.9168245449	-0.5852123458	 0.233988
H	-0.2039290488	 4.9161231449	-1.0988827842	 0.090133
H	 0.946026453	 5.101444192	 1.0487053723	 0.108874
H	-0.1292694658	 3.9349947024	 1.7828842423	 0.140097
H	 2.5044599481	 3.3506598359	 0.8573656731	 0.107676
H	 2.127746417	 1.1520689651	 0.098890287	 0.105608
87.3208	178.169	290.3434	312.2089	325.9722	370.9452	446.4097	503.8039	580.8392	616.2639	682.2426	764.7725	810.0254	835.3332	862.1292	919.7401	945.3309	965.1817	978.7334	1017.4864	1018.4732	1039.8083	1113.1276	1144.5347	1171.4326	1207.4467	1241.8892	1251.8923	1268.0646	1287.3732	1307.0765	1350.3401	1396.1781	1414.8299	1466.0749	1469.1961	1494.6968	1683.6018	1764.1852	3038.9682	3051.3202	3077.0915	3108.3775	3125.8009	3136.4327	3142.2785	3173.1509	3503.6213
O=C1CC2NC2CC=C1	O=C1C[C@H]2N[C@H]2CC=C1	
InChI=1S/C7H9NO/c9-5-2-1-3-6-7(4-5)8-6/h1-2,6-8H,3-4H2	InChI=1S/C7H9NO/c9-5-2-1-3-6-7(4-5)8-6/h1-2,6-8H,3-4H2/t6-,7+/m0/s1
