18
gdb 74318	2.89917	1.34196	1.04851	2.4435	77.94	-0.2249	-0.0266	0.1983	1168.6913	0.146631	-401.937926	-401.929481	-401.928537	-401.971654	31.173	
C	-0.0499739225	 1.4654485555	-0.0386210388	-0.498638
C	-0.0108999373	-0.0288306255	-0.0248736061	 0.329013
C	 0.0098358343	-0.8723085652	-1.0597718168	-0.203336
C	 0.019872389	-2.3064422213	-0.5807425708	-0.110038
C	 1.1278076425	-3.1817420996	-1.1515517353	 0.150144
O	 1.5827096665	-3.0607393674	-2.2586883359	-0.245968
N	 0.071683576	-2.2515775112	 0.900588635	-0.117829
C	 1.286633549	-1.6164763082	 1.4416264129	-0.251192
C	 0.0449500273	-0.8142769487	 1.2493784403	-0.116638
H	 0.8307021329	 1.8898477438	 0.4590446603	 0.133541
H	-0.0899890298	 1.8563862907	-1.0580337612	 0.132392
H	-0.9266003408	 1.8396287679	 0.5047460221	 0.131582
H	 0.0509785666	-0.6081552415	-2.1084792033	 0.114783
H	-0.9153770898	-2.8227461931	-0.8613672454	 0.118595
H	 1.4758137884	-3.9789245694	-0.4572371826	 0.094353
H	 1.5664594056	-1.9737154371	 2.4286110183	 0.120677
H	 2.1170065474	-1.4037288829	 0.7712436385	 0.122576
H	-0.5589133252	-0.5155394468	 2.1030470888	 0.095985
44.2557	123.272	166.4903	186.8136	211.069	318.7546	349.2963	460.7686	540.2104	594.0951	631.9486	706.3858	771.9988	815.8528	845.8098	869.2336	890.2795	1008.2283	1015.1837	1027.3272	1046.5149	1073.666	1088.2697	1101.646	1109.3812	1156.8632	1196.2939	1249.0289	1270.8097	1294.4226	1308.586	1373.1339	1406.9659	1416.2774	1479.6674	1487.7168	1491.9673	1710.7416	1831.1916	2887.2041	2946.3476	3022.5533	3069.4953	3098.1795	3120.4658	3136.0742	3190.8697	3221.8458
CC1=CC(C=O)N2CC12	CC1=C[C@@H](C=O)N2C[C@@H]12	
InChI=1S/C7H9NO/c1-5-2-6(4-9)8-3-7(5)8/h2,4,6-7H,3H2,1H3	InChI=1S/C7H9NO/c1-5-2-6(4-9)8-3-7(5)8/h2,4,6-7H,3H2,1H3/t6-,7-,8?/m0/s1
