16
gdb 49417	3.36169	1.65767	1.42206	3.8458	73.78	-0.2279	-0.0117	0.2162	924.0332	0.125901	-400.726356	-400.719705	-400.718761	-400.757471	26.611	
O	 0.1868245196	 0.0780816177	 0.5255305897	-0.327294
C	 0.1790231831	 1.2614084277	 0.2655591325	 0.142507
N	 1.2230537641	 1.9445824001	-0.285540131	-0.039259
C	 1.5399158622	 3.3494799846	-0.2665763076	-0.040712
C	 2.701685072	 3.6599175902	 0.7607984068	-0.108368
C	 3.0069045606	 2.6174850543	 1.7748470929	-0.074513
C	 3.0711565555	 1.4140189918	 1.1898185171	-0.090508
C	 2.682889976	 1.5731849345	-0.2674619197	-0.070281
C	 2.9735130065	 3.0793395315	-0.6004884779	-0.112147
H	-0.716184103	 1.9082010438	 0.381283738	 0.069335
H	 0.8453656076	 4.1083482766	-0.6036488565	 0.120102
H	 2.878562139	 4.7135658175	 0.9415033265	 0.095208
H	 3.0858461171	 2.8199116625	 2.8356131958	 0.108118
H	 3.1817315967	 0.4551885558	 1.6765247042	 0.122954
H	 2.946987059	 0.7871333723	-0.9714439625	 0.099269
H	 3.6159790741	 3.480640889	-1.3723713684	 0.10559
96.7374	176.991	272.0376	407.2497	436.501	540.7839	610.7358	684.2685	711.7905	761.9175	778.023	802.4879	827.527	840.0109	893.7619	934.0151	949.9581	979.8066	995.1436	1030.4818	1048.7913	1069.9947	1090.2156	1125.1636	1141.2919	1212.6871	1234.5554	1264.45	1292.0996	1345.6307	1368.6274	1381.003	1431.4494	1632.9077	1793.2596	2912.0857	3143.7436	3187.8734	3196.1694	3208.4376	3211.6111	3241.7907
O=CN1C2C3C=CC1C23	O=CN1[C@H]2[C@H]3C=C[C@@H]1[C@@H]23	
InChI=1S/C7H7NO/c9-3-8-5-2-1-4-6(5)7(4)8/h1-7H	InChI=1S/C7H7NO/c9-3-8-5-2-1-4-6(5)7(4)8/h1-7H/t4-,5+,6-,7-/m0/s1
