14
gdb 33610	5.28263	1.28476	1.28039	2.854	69.81	-0.2721	0.0105	0.2827	960.457	0.102649	-399.476817	-399.470759	-399.469814	-399.507317	24.432	
N	 0.1368894894	-1.1613085248	 0.1123197373	-0.357074
C	 0.0593005936	-0.0068287635	 0.0588736276	 0.123535
C	-0.0476974781	 1.4009393159	-0.0176952102	 0.284547
C	-0.0343928875	 2.474010617	 1.0645615137	-0.15073
C	 1.0142696573	 2.4940866532	-0.0313650019	-0.150729
C	 0.2348348174	 3.3560453859	-1.069056958	 0.07836
O	-0.4409504607	 4.399307051	-0.339161369	-0.282131
C	-1.1210709485	 3.3301721515	 0.3480287347	 0.078352
C	-0.9497267948	 2.3584995807	-0.8632254392	-0.178056
H	 0.1918924761	 2.3588707757	 2.1145818556	 0.122302
H	 2.0752005505	 2.3949329894	 0.1463981293	 0.122301
H	 0.6917024299	 3.6697836819	-2.0045132536	 0.101567
H	-2.0409524522	 3.6176441052	 0.8514342114	 0.101566
H	-1.7088861623	 2.0993857208	-1.5943386375	 0.106191
143.2976	156.651	482.2519	493.2434	505.8295	578.7	611.0047	754.5266	769.8424	809.3494	820.6549	845.6166	862.6139	886.6637	900.7855	927.8129	951.3965	1003.8698	1021.4981	1033.7333	1105.5263	1109.8726	1165.6877	1170.8929	1199.0677	1208.9986	1256.5436	1265.6299	1310.345	1410.3517	2344.4098	3155.51	3156.2072	3179.0535	3225.7152	3234.5633
N#CC12C3C1C1OC3C21	N#C[C@@]12[C@H]3[C@@H]1[C@@H]1O[C@H]3[C@H]21	
InChI=1S/C7H5NO/c8-1-7-2-3(7)6-4(7)5(2)9-6/h2-6H	InChI=1S/C7H5NO/c8-1-7-2-3(7)6-4(7)5(2)9-6/h2-6H/t2-,3+,4-,5+,6-,7+
