20
gdb 41592	2.79438	1.7519	1.6269	1.0103	76.31	-0.2088	0.0765	0.2853	943.8586	0.174612	-403.101585	-403.094677	-403.093733	-403.132736	28.422	
C	 0.2226782902	 1.634463497	-0.3526879644	-0.2592
C	 1.557703089	 1.5282348626	 0.4404078448	-0.171617
N	 1.3291391512	 0.0723621744	 0.7229671977	-0.14957
C	 0.0531080697	 0.1249981693	-0.092015849	 0.015652
C	 0.6382980553	-0.8757776178	-1.1306497689	 0.084838
O	 1.0020211979	-0.3777305998	-2.403559135	-0.262748
C	 2.3475799878	 0.105894241	-2.3912318693	-0.083676
C	 3.0537837609	-0.5524915407	-1.1896909999	-0.254499
C	 1.9118142169	-0.9281449742	-0.244023567	-0.008125
H	-0.5359722579	 2.2617234099	 0.1190569236	 0.104386
H	 0.2998871123	 1.9071527741	-1.4065563324	 0.120194
H	 2.4707142432	 1.7616315249	-0.1148392534	 0.098788
H	 1.5821611614	 2.1044756046	 1.3703431251	 0.105991
H	-0.8645818124	-0.2040101402	 0.4047977984	 0.067618
H	 0.0557328318	-1.7893858244	-1.2785358027	 0.077516
H	 2.80444185	-0.1608085494	-3.3495383091	 0.10803
H	 2.3568542093	 1.2006998898	-2.3107305975	 0.096531
H	 3.5649858366	-1.4680682024	-1.5017113642	 0.111538
H	 3.8019378712	 0.1000632683	-0.7310313448	 0.115147
H	 2.1095186056	-1.8666892169	 0.278985488	 0.083207
126.9063	202.8668	228.0936	282.7781	430.7139	499.2837	610.4612	665.7626	699.6284	753.9498	783.0406	821.0188	848.4949	861.6967	896.9795	915.6273	943.0681	956.4221	993.9555	1009.1601	1021.169	1052.1013	1084.079	1131.4414	1142.3712	1181.5503	1201.0882	1218.1014	1226.1736	1230.2862	1243.8458	1262.1208	1272.231	1305.94	1311.8769	1326.6395	1347.0549	1356.1114	1400.2787	1480.0643	1486.6754	1512.2341	1537.7271	3014.7939	3046.35	3051.4177	3054.2322	3065.782	3070.6375	3077.2805	3082.0752	3086.2696	3104.7502	3131.3052
C1CN2C1C1OCCC21	C1CN2[C@@H]1[C@H]1OCC[C@@H]21	
InChI=1S/C7H11NO/c1-3-8-5(1)7-6(8)2-4-9-7/h5-7H,1-4H2	InChI=1S/C7H11NO/c1-3-8-5(1)7-6(8)2-4-9-7/h5-7H,1-4H2/t5-,6+,7+/m0/s1
