16
gdb 35671	3.73943	1.01235	0.91356	3.8361	74.98	-0.2784	0.0131	0.2914	1264.9221	0.124129	-400.727777	-400.719262	-400.718318	-400.761793	30.784	
C	-0.2917205752	-1.0459806343	-0.6119532659	-0.425524
C	-0.1263204618	 0.0845152878	-0.2397769919	 0.293616
C	 0.0742098702	 1.4449775196	 0.226867249	-0.205945
C	-0.4598259462	 1.7060840847	 1.6549851288	-0.072718
O	 0.3354503568	 2.7656755118	 2.1997658663	-0.256991
C	 1.4219068856	 3.0664224433	 1.3361568893	-0.033694
C	 1.5522956169	 1.8703117245	 0.3776339875	-0.247034
C	 1.1630171252	 4.3276032315	 0.6056406237	 0.27862
N	 0.9614167317	 5.307034737	 0.0266257106	-0.324001
H	-0.4415571478	-2.0423488382	-0.9478833979	 0.202954
H	-0.4155961695	 2.1420391309	-0.4641152156	 0.134265
H	-1.5100785961	 2.0098930879	 1.6581756871	 0.129382
H	-0.3471695239	 0.8126264841	 2.2802309407	 0.119364
H	 2.3204992216	 3.2090350352	 1.9454282924	 0.134176
H	 2.1256466146	 1.0768072185	 0.8634749649	 0.131166
H	 2.0284454879	 2.1236763958	-0.569906999	 0.142364
51.5197	79.2808	140.6741	196.0389	228.2058	293.4784	450.6172	495.9779	514.139	546.5342	591.693	640.9645	646.8806	752.8394	820.9073	880.9975	926.0377	937.4939	994.9793	1049.1319	1073.6708	1086.1317	1114.0078	1181.3926	1240.1318	1258.6833	1299.2935	1319.5144	1345.4555	1366.649	1397.9694	1485.7192	1526.573	2242.9393	2355.1017	3031.7003	3039.2562	3059.9433	3080.7996	3096.0285	3143.7528	3503.1714
C#CC1COC(C1)C#N	C#C[C@H]1CO[C@@H](C1)C#N	
InChI=1S/C7H7NO/c1-2-6-3-7(4-8)9-5-6/h1,6-7H,3,5H2	InChI=1S/C7H7NO/c1-2-6-3-7(4-8)9-5-6/h1,6-7H,3,5H2/t6-,7+/m1/s1
