24
gdb 100723	2.01289	1.14754	1.07527	3.386	86.42	-0.2309	0.037	0.2678	1381.8698	0.214821	-405.591052	-405.57949	-405.578546	-405.628165	41.141	
C	-0.3571845597	 0.9709482235	 0.2344730012	-0.385164
C	-0.2769715741	-0.5050551147	-0.1631709429	-0.1737
C	 0.5226733877	-0.7603625014	-1.4526418566	 0.031453
C	 0.6953595179	-2.2579347405	-1.7369118297	-0.403448
N	-0.0514269743	-0.0527576951	-2.6116733735	-0.078946
C	-1.440618622	-0.3044722572	-2.9575592415	-0.346092
C	 0.7210453357	 0.881604653	-3.2615747557	 0.405302
C	 0.0700136137	 1.6362233048	-4.4141973789	-0.503687
O	 1.8796978584	 1.1072125187	-2.9478931956	-0.379616
H	 0.6422143994	 1.3977872632	 0.3665713519	 0.129832
H	-0.8668968125	 1.5659628834	-0.5299847267	 0.115777
H	-0.9051415611	 1.0958312789	 1.1734007252	 0.11053
H	 0.2058982749	-1.0752697055	 0.6395393136	 0.099618
H	-1.2874332354	-0.9246884697	-0.258401598	 0.08837
H	 1.5140733693	-0.317817499	-1.3375389962	 0.127629
H	 1.2813856317	-2.4126954288	-2.6470071503	 0.125274
H	 1.2220288318	-2.7386285382	-0.9065696862	 0.118643
H	-0.2640360405	-2.7743717929	-1.8543149658	 0.109691
H	-2.1369952601	 0.3797358625	-2.4528930494	 0.123633
H	-1.601002101	-0.2205312695	-4.0332248321	 0.134184
H	-1.7099803738	-1.3234236122	-2.6706769469	 0.133809
H	-0.8685959403	 2.1155368434	-4.1201655681	 0.131739
H	 0.7773260471	 2.3962843907	-4.7437555856	 0.146591
H	-0.148104393	 0.9706446325	-5.2562285623	 0.138578
41.7267	86.7367	104.4428	112.7667	166.7955	198.1872	200.1103	226.5886	235.4065	271.0452	343.1811	372.4315	438.8301	487.5899	522.643	594.2362	606.2315	704.264	803.4005	835.2626	929.6066	976.8803	1003.3513	1016.8522	1038.0026	1048.4827	1096.9544	1125.1908	1145.6675	1156.2239	1198.7182	1254.0715	1304.0917	1339.9253	1358.0397	1393.2161	1393.5524	1409.5602	1412.793	1429.1821	1462.4755	1476.014	1484.1211	1490.7522	1492.4492	1496.3589	1500.729	1503.1665	1506.5947	1521.9561	1752.6292	3004.2135	3019.3999	3033.3078	3038.0969	3043.2017	3053.734	3089.3804	3096.9832	3105.7188	3105.9267	3107.4472	3112.8182	3117.5867	3136.5777	3161.8058
CCC(C)N(C)C(C)=O	CC[C@@H](C)N(C)C(=O)C	
InChI=1S/C7H15NO/c1-5-6(2)8(4)7(3)9/h6H,5H2,1-4H3	InChI=1S/C7H15NO/c1-5-6(2)8(4)7(3)9/h6H,5H2,1-4H3/t6-/m1/s1
