27
gdb 118571	1.55423	0.85688	0.588	1.3531	93.36	-0.2608	0.081	0.3418	2015.196	0.249825	-390.699244	-390.686936	-390.685992	-390.738154	43.478	
C	-0.9258455892	 1.1887706938	 0.1869842345	-0.378865
C	-0.5895158681	-0.3051488572	 0.2169115465	-0.171896
C	 0.4095036075	-0.6695824847	 1.3223176618	-0.177114
C	 0.795642125	-2.1632621041	 1.3852055422	 0.035841
C	 1.7592704038	-2.5386512419	 0.239225347	-0.181639
C	 1.8675977957	-4.0417891285	-0.0374177721	-0.388799
C	 1.4021948108	-2.5244708091	 2.7554616387	-0.184369
C	 0.3795654348	-2.6672248094	 3.8771588301	-0.080388
O	 1.0852797747	-2.9854872922	 5.0688233415	-0.420913
H	-0.029078473	 1.7925103051	 0.0081954883	 0.113711
H	-1.6463905595	 1.4214101959	-0.6034888054	 0.109755
H	-1.3583058229	 1.517141217	 1.1388846529	 0.112143
H	-1.5111543994	-0.8845197169	 0.3622993044	 0.092469
H	-0.1969612263	-0.6045583031	-0.7624608034	 0.098769
H	 1.325920062	-0.0740180579	 1.1997445384	 0.090251
H	-0.0182683841	-0.3594836103	 2.2841292537	 0.088697
H	-0.1242995693	-2.7548056284	 1.252970658	 0.059407
H	 1.4376910922	-2.0401770794	-0.6823392949	 0.09256
H	 2.7534904628	-2.1315587473	 0.4700623648	 0.093491
H	 2.223397349	-4.5982911164	 0.8353215416	 0.120092
H	 0.8949486114	-4.4595085319	-0.3210534355	 0.112311
H	 2.565181886	-4.2403457769	-0.8572933825	 0.111051
H	 1.9493720316	-3.4713381319	 2.6954440192	 0.102186
H	 2.137079281	-1.7626677288	 3.0463690128	 0.100584
H	-0.1973368422	-1.7370812332	 3.9997873698	 0.084841
H	-0.3398918193	-3.4617886072	 3.6174385643	 0.082092
H	 0.4466831052	-3.065491905	 5.7831255432	 0.283734
60.4457	64.8446	74.3155	78.2098	90.1535	166.7213	204.188	238.421	251.1646	257.9834	266.2736	320.8892	346.7868	423.2409	490.6529	517.2015	735.6297	774.075	788.0369	831.9628	894.348	911.5816	958.5717	983.8725	1028.9085	1035.9144	1049.2135	1052.9767	1071.6057	1086.0834	1142.7071	1166.1342	1182.3448	1227.1367	1245.1053	1261.5926	1292.9895	1301.0785	1319.422	1323.2719	1334.0398	1349.7891	1377.1351	1387.8514	1399.2063	1412.0553	1413.799	1462.2054	1480.8804	1486.7541	1491.5996	1493.5826	1499.1298	1503.2329	1507.1279	1510.6386	1526.8235	2958.0566	2975.7852	2987.034	3003.6404	3015.426	3018.807	3028.1385	3031.2509	3032.928	3036.7978	3054.7251	3061.3835	3077.3429	3095.0992	3097.5554	3100.05	3104.6471	3830.1286
CCCC(CC)CCO	CCC[C@@H](CC)CCO	
InChI=1S/C8H18O/c1-3-5-8(4-2)6-7-9/h8-9H,3-7H2,1-2H3	InChI=1S/C8H18O/c1-3-5-8(4-2)6-7-9/h8-9H,3-7H2,1-2H3/t8-/m1/s1
