15
gdb 127625	3.53475	1.68498	1.14938	5.1205	73.54	-0.2141	0.0128	0.2269	998.3932	0.11619	-413.00892	-413.001608	-413.000664	-413.04133	26.919	
C	 0.0466590526	 1.4382661667	-0.0349643836	-0.345739
N	 0.0252457789	-0.0020261019	 0.0392258639	-0.117199
N	-0.0263343434	-0.7558438765	-1.1122528161	-0.269508
C	-0.0348744945	-2.0336096565	-0.7420304681	-0.12018
C	 0.0112989029	-2.1429081621	 0.6690985767	 0.188646
C	 0.0478368673	-0.8278498934	 1.1045943267	 0.47298
N	 0.0938979471	-0.8595063081	 2.4728789465	-0.422177
C	 0.082232551	-2.2201842553	 2.7908319922	-0.006918
N	 0.0337962984	-3.0087864606	 1.750172729	-0.338109
H	 0.9613605858	 1.8467757796	 0.4098158399	 0.133515
H	 0.0151941489	 1.7041814449	-1.0911680598	 0.169912
H	-0.8216855175	 1.8764184763	 0.4703947996	 0.133516
H	-0.0733206287	-2.8018805976	-1.4992675657	 0.119313
H	 0.1286251092	-0.095220694	 3.1241567747	 0.270066
H	 0.1120883421	-2.5388569314	 3.8229138541	 0.131882
44.7399	145.221	238.4458	265.3443	328.2029	372.8275	537.0125	614.7629	629.9628	646.5374	708.3543	759.763	807.6045	843.1087	870.39	957.5255	978.991	1052.5224	1127.3388	1152.1185	1203.5407	1245.9062	1277.7047	1340.4846	1363.3389	1417.4922	1442.6536	1475.8276	1485.7456	1503.6999	1526.2171	1535.0987	1657.8574	3024.1273	3077.5409	3161.6793	3245.7277	3253.2361	3682.67
CN1N=CC2=C1NC=N2	Cn1ncc2c1[nH]cn2	
InChI=1S/C5H6N4/c1-9-5-4(2-8-9)6-3-7-5/h2-3H,1H3,(H,6,7)	InChI=1S/C5H6N4/c1-9-5-4(2-8-9)6-3-7-5/h2-3H,1H3,(H,6,7)
