20
gdb 64244	2.70601	1.10368	0.96788	3.1309	77.92	-0.2516	0.0259	0.2776	1311.602	0.168767	-440.275984	-440.266153	-440.265209	-440.311398	35.904	
C	-0.0542611814	 1.4775361212	 0.2730169367	-0.445908
C	 0.081702526	-0.0361816704	 0.170605746	 0.362531
O	-1.1786553075	-0.6774149046	 0.206422494	-0.480531
C	 1.0910293658	-0.5024492623	-0.9299977672	-0.283011
C	 2.1791276691	-0.6309022393	 0.1732007668	-0.276024
C	 1.0472144298	-0.6570494973	 1.2144622058	 0.12283
O	 1.3019825484	 0.0515552147	 2.4129360086	-0.190376
C	 0.5526917157	-0.2646801887	 3.4897413753	 0.119142
N	 0.6472093572	 0.4193144926	 4.5462024995	-0.447098
H	 0.9202751187	 1.9716718671	 0.3043607979	 0.132535
H	-0.5958659888	 1.8634914325	-0.5996254922	 0.105932
H	-0.6025959891	 1.7542702135	 1.1773847548	 0.138088
H	-1.7802271325	-0.2026559184	-0.3770498168	 0.277603
H	 0.7926432306	-1.4723692833	-1.3340123448	 0.110959
H	 1.2881117363	 0.1889837675	-1.7519386824	 0.100557
H	 2.8469979274	-1.4925329006	 0.1406676951	 0.10933
H	 2.7760501568	 0.2782186205	 0.2744300958	 0.124604
H	 0.7192196832	-1.6802007685	 1.4334154092	 0.094085
H	-0.0922452827	-1.1394107477	 3.3306686217	 0.096675
H	 0.036185407	 0.0318540415	 5.2623060961	 0.228076
38.1089	89.9744	93.6717	216.5478	227.9013	242.1091	256.9096	303.3387	361.3797	396.3841	435.0023	517.8228	591.835	668.7484	745.6116	819.7807	831.8358	889.8365	900.8	943.3995	971.3441	999.7189	1040.7659	1042.4519	1098.6296	1138.0813	1159.6458	1176.5775	1193.8714	1219.5133	1237.7887	1264.7902	1293.1005	1302.5138	1373.8357	1394.8719	1412.6218	1431.6295	1476.5209	1486.8188	1491.9315	1500.3337	1743.2588	3027.4118	3028.2523	3042.2332	3069.1966	3079.5327	3101.3101	3122.6263	3126.6527	3139.1577	3516.0645	3806.1418
CC1(O)CCC1OC=N	C[C@@]1(O)CC[C@H]1O[CH][NH]	
InChI=1S/C6H11NO2/c1-6(8)3-2-5(6)9-4-7/h4-5,7-8H,2-3H2,1H3	InChI=1S/C6H11NO2/c1-6(8)3-2-5(6)9-4-7/h4-5,7-8H,2-3H2,1H3/t5-,6-/m1/s1
