17
gdb 94423	2.53909	1.43482	1.28068	1.7817	69.45	-0.2503	-0.039	0.2113	1060.4326	0.134669	-458.945453	-458.937238	-458.936294	-458.978543	30.852	
O	 0.4932511618	 0.7842737988	-0.654076988	-0.42874
C	 0.1978112894	-0.2811531888	 0.1902284151	 0.102382
C	-0.0406332129	-0.0457898881	 1.7123652441	-0.266315
C	-1.2631872522	-1.0025857694	 1.6287028073	-0.292795
C	-1.2655115305	-0.8337139814	 0.0979350179	 0.273047
O	-2.1727666522	 0.172080943	-0.4368590834	-0.339918
C	-2.6074604963	-0.6717821133	-1.5318745533	-0.19465
C	-1.7494003081	-1.8098134572	-0.9620333251	 0.276927
O	-1.5529952517	-2.958578011	-1.2184564222	-0.283845
H	-0.3308657313	 1.2839588948	-0.7469248139	 0.289696
H	 0.9293251076	-1.0753471615	 0.0123769152	 0.108567
H	 0.7709606299	-0.3068028765	 2.3940817573	 0.10878
H	-0.3456185956	 0.9872782265	 1.898289474	 0.115235
H	-1.024584961	-2.0334803459	 1.9035340298	 0.129105
H	-2.1851603074	-0.6987728425	 2.1267078864	 0.122779
H	-3.6905184392	-0.8372606908	-1.5293029812	 0.139761
H	-2.2886755403	-0.2958397467	-2.5112826401	 0.139983
88.5082	110.1151	128.0771	224.4044	271.1502	383.0052	413.459	466.124	512.693	581.6074	601.6312	679.2413	741.277	758.3784	857.6408	885.3367	923.3371	950.6092	995.2842	1018.48	1070.66	1090.7465	1128.9833	1141.8857	1157.2534	1204.5425	1217.5191	1227.428	1259.8759	1281.5844	1295.8519	1341.8568	1436.1257	1462.58	1476.6055	1488.3258	1917.6451	3030.5584	3067.6322	3070.8922	3073.6456	3085.6619	3123.3984	3137.5833	3733.6303
OC1CCC11OCC1=O	O[C@H]1CC[C@]21OCC2=O	
InChI=1S/C6H8O3/c7-4-1-2-6(4)5(8)3-9-6/h4,7H,1-3H2	InChI=1S/C6H8O3/c7-4-1-2-6(4)5(8)3-9-6/h4,7H,1-3H2/t4-,6+/m0/s1
