21
gdb 89431	2.75945	1.6288	1.39266	1.3608	81.13	-0.2483	0.0775	0.3258	1034.5584	0.183983	-387.074703	-387.066812	-387.065868	-387.106408	32.658	
C	-0.0039291866	 1.5240429513	 0.006325617	-0.490052
C	 0.0300586898	 0.0089351818	 0.0092021268	 0.325769
C	-1.3078498845	-0.7283647318	 0.3768741127	-0.267847
C	-0.5115694277	-1.6170887743	 1.3283938573	-0.056231
C	 0.7612731005	-2.1278300688	 0.6713002803	-0.033176
C	 0.7113358305	-0.7270418934	 1.2104555407	-0.128528
C	 0.8435680038	-2.1382671192	-0.8476075482	 0.082326
O	-0.1665410129	-3.0034501476	-1.3652977162	-0.432306
C	 0.655909538	-0.6442412411	-1.233570613	-0.27233
H	 1.0001403306	 1.9445086656	-0.1262290313	 0.10978
H	-0.6327520157	 1.9026540945	-0.8079716374	 0.113618
H	-0.4086116029	 1.9136453659	 0.9466060277	 0.113692
H	-1.9833438882	-0.0640583852	 0.9242638071	 0.088589
H	-1.8491834256	-1.2165590304	-0.4380225021	 0.100211
H	-0.9010948275	-2.1172635325	 2.2074590367	 0.079035
H	 1.2933301	-2.8894554772	 1.2300593255	 0.081062
H	 1.3675956559	-0.307948366	 1.9628179494	 0.076795
H	 1.8317850886	-2.497206681	-1.1701619551	 0.058591
H	-0.0573175766	-3.0429446021	-2.3207206812	 0.278423
H	 0.0342670776	-0.5372965932	-2.1301745378	 0.084808
H	 1.630489713	-0.1858286052	-1.4437751089	 0.087772
141.0492	223.7491	232.6767	278.285	312.9247	335.7494	398.0283	432.1589	513.0547	599.7951	637.9798	702.7609	766.7448	797.5186	841.8422	866.2297	870.2539	924.9803	941.9347	968.8718	981.0147	1008.5542	1017.5101	1033.2738	1060.1613	1068.7982	1097.32	1141.6869	1157.0941	1197.7949	1218.7998	1231.1402	1241.3212	1255.6968	1275.0139	1319.6623	1337.677	1360.4337	1403.1686	1412.7411	1426.4402	1471.6851	1491.8363	1493.7603	1496.9238	2983.5522	3018.033	3023.6762	3047.355	3068.592	3082.7429	3090.6176	3102.9858	3170.1704	3176.6707	3193.5149	3815.2931
CC12CC3C(C13)C(O)C2	C[C@]12C[C@H]3[C@H]([C@@H]13)[C@@H](O)C2	
InChI=1S/C8H12O/c1-8-2-4-6(7(4)8)5(9)3-8/h4-7,9H,2-3H2,1H3	InChI=1S/C8H12O/c1-8-2-4-6(7(4)8)5(9)3-8/h4-7,9H,2-3H2,1H3/t4-,5-,6-,7-,8+/m0/s1
