15
gdb 46957	3.00194	1.87683	1.42832	4.8801	64.25	-0.2517	0.0066	0.2584	890.4943	0.114365	-457.75423	-457.747769	-457.746825	-457.785214	25.425	
O	 0.0248970518	 0.0105206771	 0.2666860707	-0.336359
C	-0.0111476766	 1.1787675331	-0.0100549418	 0.445141
O	-1.2051714332	 1.7422169775	-0.3297666909	-0.238799
C	-1.34632292	 3.1048121088	-0.7498967857	-0.07261
C	-0.1781136584	 3.9816888216	-0.3671440718	 0.064937
O	 0.0855949224	 3.9021625826	 1.0665303848	-0.292013
C	 1.3484519174	 3.3105250426	 0.7924188938	 0.099171
C	 1.2053398055	 3.4073174484	-0.6913796086	-0.18334
C	 1.2089001307	 2.0405019545	-0.0346061263	-0.216808
H	-1.4861575292	 3.1249270759	-1.8390740784	 0.119978
H	-2.2644450504	 3.4689453836	-0.2787475263	 0.135434
H	-0.3380035454	 5.0175997973	-0.6793919033	 0.104576
H	 2.1668325846	 3.4898921315	 1.4779675763	 0.127024
H	 1.8795760264	 3.7145039619	-1.4779498125	 0.115986
H	 2.1247706543	 1.4673105336	-0.11937715	 0.127684
116.8407	164.8517	331.9214	381.649	437.797	504.7655	597.2545	698.1124	720.3178	797.0186	802.5536	850.8699	856.4667	903.941	912.068	989.6052	1005.6212	1027.373	1045.9099	1059.3796	1078.4081	1102.0734	1148.7087	1225.8378	1238.9776	1256.2463	1295.4213	1323.7944	1353.7419	1411.2893	1429.9433	1495.9397	1839.7768	3023.3969	3075.2947	3086.631	3191.3567	3200.8919	3218.4189
O=C1OCC2OC3C2C13	O=C1OC[C@H]2O[C@@H]3[C@H]2[C@H]13	
InChI=1S/C6H6O3/c7-6-4-3-2(1-8-6)9-5(3)4/h2-5H,1H2	InChI=1S/C6H6O3/c7-6-4-3-2(1-8-6)9-5(3)4/h2-5H,1H2/t2-,3-,4+,5-/m1/s1
