18
gdb 18350	3.44585	2.12199	1.55992	2.0204	71.68	-0.2393	0.0109	0.2502	858.622	0.155509	-347.795621	-347.788622	-347.787678	-347.826767	27.19	
C	 0.0019257505	 1.6089430821	-0.0674030877	-0.402862
C	 0.0141606429	 0.0748364248	-0.011754727	-0.034872
C	 0.7170633716	-0.5854678619	-1.1838756994	-0.064466
C	 1.5495597306	-1.5633366098	-0.8265767952	-0.098624
C	 1.5950384955	-1.7343398144	 0.668514382	 0.089071
O	 2.7976782287	-1.200396575	 1.282009854	-0.29526
C	 2.0994597262	 0.003072574	 1.6690388384	-0.084013
C	 0.7345320752	-0.5601371024	 1.201337465	-0.091943
H	 1.0126927342	 2.0227282683	-0.1298536898	 0.122853
H	-0.5507213807	 1.9569655183	-0.9463504379	 0.11577
H	-0.484182731	 2.0317886234	 0.8180197607	 0.115565
H	-1.0365226504	-0.2519343891	-0.000119611	 0.082897
H	 0.5270335713	-0.2728402368	-2.2066574603	 0.09425
H	 2.1448391874	-2.1671120749	-1.5022470197	 0.099118
H	 1.4062365795	-2.7578606782	 1.0121068952	 0.075769
H	 2.1938059643	 0.1933542312	 2.7442547579	 0.101472
H	 2.4642144079	 0.8809707916	 1.1221019728	 0.099159
H	 0.0597362261	-0.7899095112	 2.0263879718	 0.076115
93.4621	202.4029	231.4249	257.5574	336.2497	448.7402	536.4482	638.9888	724.8576	769.0878	778.4232	861.978	890.9127	902.7897	959.7755	979.4266	988.7314	1010.7915	1014.7014	1030.152	1072.4649	1118.2553	1130.2577	1160.7038	1168.4127	1220.3199	1263.6973	1296.4776	1314.2374	1338.0739	1339.4912	1364.0713	1383.3117	1412.3409	1494.418	1502.3741	1521.1075	1675.2685	2983.7596	3019.8752	3034.9845	3040.0004	3060.6895	3099.0639	3104.5008	3110.4071	3170.6309	3204.6037
CC1C=CC2OCC12	C[C@H]1C=C[C@H]2OC[C@@H]12	
InChI=1S/C7H10O/c1-5-2-3-7-6(5)4-8-7/h2-3,5-7H,4H2,1H3	InChI=1S/C7H10O/c1-5-2-3-7-6(5)4-8-7/h2-3,5-7H,4H2,1H3/t5-,6-,7+/m0/s1
