18
gdb 109489	2.18947	1.56419	0.98834	2.4697	72.86	-0.2138	-0.0453	0.1684	1201.0006	0.146378	-439.116668	-439.107472	-439.106528	-439.151689	32.806	
C	 0.0538839903	 1.6686214964	-0.2436235132	-0.324428
N	-0.241091493	 0.238096471	-0.1753407831	-0.275643
C	 0.6425717848	-0.6075264032	-0.9208143417	-0.173462
C	 2.1069925136	-0.7902689158	-0.4733297672	 0.361104
O	 2.6921054934	-0.0949322884	 0.3156060493	-0.301154
C	 2.6521629193	-2.060200943	-1.1350254101	-0.325421
C	 1.4060355281	-2.9014208725	-1.5030749053	-0.32632
C	 0.1907304441	-2.0704607723	-1.0718078683	 0.360562
O	-0.9053351127	-2.4974335996	-0.8342613389	-0.287139
H	 1.0516072671	 1.9451218657	 0.1211271594	 0.129929
H	-0.0382882378	 2.0022276363	-1.2842317187	 0.11699
H	-0.6965447593	 2.2099740674	 0.3394430444	 0.122554
H	-0.294429262	-0.0732474852	 0.7873455736	 0.228883
H	 0.7096136487	-0.2339960988	-1.9600082188	 0.128781
H	 3.2333246254	-1.7728214442	-2.0182868065	 0.138989
H	 3.3406423538	-2.5621560444	-0.4515734094	 0.142218
H	 1.3352431597	-3.0946204383	-2.5788648184	 0.139928
H	 1.3704330864	-3.8728457212	-1.0045519672	 0.143629
57.1206	70.783	75.2828	167.0784	196.6977	260.9331	325.0498	417.4543	451.362	529.9368	573.7317	615.9707	640.5451	652.2208	738.4775	861.5106	873.8641	935.3557	985.0516	1001.9949	1076.6516	1091.1479	1139.4506	1149.7032	1164.7676	1188.4345	1242.5543	1251.8066	1273.3823	1296.7452	1340.9063	1447.496	1457.1124	1465.6927	1485.0387	1496.6143	1528.7323	1831.7605	1874.1738	2950.2452	3011.1463	3051.6159	3061.8096	3068.1084	3104.0567	3104.4434	3120.064	3548.2841
CNC1C(=O)CCC1=O	CNC1C(=O)CCC1=O	
InChI=1S/C6H9NO2/c1-7-6-4(8)2-3-5(6)9/h6-7H,2-3H2,1H3	InChI=1S/C6H9NO2/c1-7-6-4(8)2-3-5(6)9/h6-7H,2-3H2,1H3
