21
gdb 108136	3.43606	1.27161	1.19573	1.5733	81.62	-0.2212	0.0879	0.3091	1156.1482	0.183955	-387.067366	-387.059387	-387.058443	-387.099897	31.638	
C	-0.2651519607	 1.5032869479	 0.0390280485	-0.373111
C	 0.1187694206	 0.0187137933	-0.0335088351	-0.304198
C	 0.8268197857	-0.4611852845	 1.2037444162	 0.330535
C	 2.2348389984	-0.0480084905	 1.6487035655	-0.285938
C	 2.3421323405	-1.384357041	 2.4513919639	-0.073226
C	 1.8442597699	-1.1695106204	 3.8795347282	-0.077609
O	 0.5174856114	-0.6479941692	 3.7160610367	-0.270128
C	 0.0967007866	-1.0134058104	 2.4177900965	 0.069352
C	 1.0709207319	-1.8934636332	 1.7152829987	-0.196032
H	 0.6205704946	 2.1341777346	 0.1682115812	 0.119411
H	-0.7729614746	 1.8251222197	-0.8753511704	 0.10993
H	-0.9334175123	 1.6948601578	 0.8847312961	 0.122472
H	-0.7821708838	-0.5878988493	-0.1932854948	 0.094512
H	 0.758780059	-0.15264624	-0.9101039419	 0.094366
H	 2.9257423082	-0.0307641317	 0.8006909108	 0.096859
H	 2.3396733952	 0.8814712378	 2.2198130414	 0.095598
H	 3.2692857095	-1.9492408539	 2.3643132854	 0.073149
H	 1.8172958112	-2.1118480815	 4.4484815716	 0.089238
H	 2.4343200989	-0.4356763153	 4.4388298763	 0.104709
H	-0.972610846	-1.1759880775	 2.3429549115	 0.09573
H	 0.8812692158	-2.8643561429	 1.2755231838	 0.084379
79.4047	134.9453	201.9429	240.0598	306.0396	357.1288	394.7547	471.3734	590.1995	698.2963	724.1033	766.5831	788.9465	839.3638	862.2291	881.7171	893.5919	942.8571	961.7215	979.6186	1008.1993	1022.6802	1032.3635	1053.0804	1075.3627	1091.4824	1122.8235	1153.3124	1189.9775	1199.1366	1233.1288	1236.1119	1259.4803	1287.6697	1300.2601	1335.5137	1356.0313	1374.1299	1409.7742	1431.0215	1481.4898	1495.4116	1498.7424	1507.0687	1513.2679	2983.1402	3007.7303	3032.3187	3035.3048	3040.9756	3069.6087	3089.1058	3103.3978	3107.1692	3124.138	3178.954	3192.5027
CCC12CC3COC1C23	CC[C@@]12C[C@H]3CO[C@@H]1[C@@H]23	
InChI=1S/C8H12O/c1-2-8-3-5-4-9-7(8)6(5)8/h5-7H,2-4H2,1H3	InChI=1S/C8H12O/c1-2-8-3-5-4-9-7(8)6(5)8/h5-7H,2-4H2,1H3/t5-,6-,7+,8-/m0/s1
