16
gdb 80259	2.28038	2.03398	1.56518	4.9118	68.31	-0.2298	-0.0135	0.2163	901.5145	0.126476	-437.907869	-437.900837	-437.899893	-437.93896	28.489	
O	-0.0194588445	 1.4098073629	-0.1213546008	-0.42682
C	 0.0102245052	 0.0172163329	 0.0003787851	 0.151993
C	 0.3053344256	-0.5663256431	 1.4273603797	-0.112003
N	-0.8221466358	 0.0451750937	 2.1514000335	-0.290108
C	-1.9503467762	-0.0394489151	 1.3559243905	 0.431598
O	-3.0904229297	 0.2053273617	 1.6652565476	-0.380978
C	-1.416513362	-0.590698458	 0.0033738191	-0.205496
C	-1.0458250874	-2.0431613496	 0.2998754474	-0.087939
C	-0.0053048969	-2.0383187699	 1.1403164234	-0.089344
H	 0.8841224132	 1.7399972155	-0.1397641729	 0.288013
H	 0.6489278563	-0.4544461708	-0.755045173	 0.08001
H	 1.2666054196	-0.3258778032	 1.8807777017	 0.073764
H	-0.9182183677	-0.0338190165	 3.1516694479	 0.250745
H	-2.0681054282	-0.3951098161	-0.8439886759	 0.092558
H	-1.5847590666	-2.8945861243	-0.0926366902	 0.116461
H	 0.506508065	-2.8862330702	 1.5756179869	 0.107546
146.8385	219.0668	277.6865	325.8934	390.9064	458.6974	475.0223	520.544	590.1563	669.2697	684.426	762.8169	763.9526	857.8845	879.9964	896.6978	925.105	948.2642	964.8105	977.9141	1025.6372	1103.1266	1137.7065	1149.1263	1162.0065	1224.244	1240.2772	1256.5979	1283.5924	1317.8606	1351.994	1382.2985	1426.7686	1630.9335	1850.7167	3043.2569	3121.6074	3162.5174	3211.8617	3237.3111	3637.1828	3824.1262
OC1C2NC(=O)C1C=C2	O[C@H]1[C@H]2NC(=O)[C@@H]1C=C2	
InChI=1S/C6H7NO2/c8-5-3-1-2-4(5)7-6(3)9/h1-5,8H,(H,7,9)	InChI=1S/C6H7NO2/c8-5-3-1-2-4(5)7-6(3)9/h1-5,8H,(H,7,9)/t3-,4+,5-/m1/s1
