17
gdb 15616	3.06805	1.89971	1.23808	2.2601	67.26	-0.2551	0.023	0.2781	978.8642	0.14261	-401.015406	-401.007301	-401.006357	-401.048432	29.056	
C	-0.2555631877	 1.339182631	 0.0601444643	-0.33413
N	 0.0116727158	-0.089882747	 0.0527848303	-0.353192
C	 0.599308115	-0.6338860633	 1.0239457127	 0.420017
O	 1.0440359648	-0.0327531748	 2.1597066089	-0.247918
C	 1.4820511574	-1.0439155927	 3.0983298398	-0.093788
C	 0.871477078	-2.3613218644	 2.6037838314	-0.255193
C	 0.8504985836	-2.1293586368	 1.0883657407	 0.05636
O	-0.1169771839	-2.8590046475	 0.3881188459	-0.44031
H	 0.4206555025	 1.8425969675	-0.6411323336	 0.129046
H	-1.2751377534	 1.5137678942	-0.2977783622	 0.125371
H	-0.1374713407	 1.8031677381	 1.0459174571	 0.125501
H	 2.578176227	-1.0689949924	 3.0933213376	 0.118351
H	 1.1437951458	-0.7409522657	 4.0911808116	 0.126971
H	 1.4474630007	-3.2355998782	 2.9112658721	 0.116721
H	-0.1583627201	-2.4739875179	 2.9560246413	 0.125797
H	 1.858151834	-2.3242222629	 0.6791623947	 0.089652
H	-0.4971896688	-2.2268204472	-0.2422163324	 0.290743
56.2871	113.4423	181.3132	192.4094	219.4449	314.4412	420.8095	449.7149	556.4402	561.3919	655.7927	722.3903	803.4074	871.2265	949.2412	983.9944	1029.3885	1073.5182	1108.9092	1132.7502	1147.9677	1165.3441	1193.3677	1220.2928	1233.8405	1280.3755	1305.2689	1376.8167	1405.4925	1430.4412	1449.0467	1492.8065	1493.4313	1497.5703	1523.1397	1810.1654	2941.3646	3018.4705	3039.1808	3067.7442	3078.6527	3095.0243	3110.5768	3130.5324	3695.3941
CN=C1OCCC1O	CN=C1OCC[C@H]1O	
InChI=1S/C5H9NO2/c1-6-5-4(7)2-3-8-5/h4,7H,2-3H2,1H3	InChI=1S/C5H9NO2/c1-6-5-4(7)2-3-8-5/h4,7H,2-3H2,1H3/t4-/m1/s1
