16
gdb 29483	3.20131	1.67716	1.10812	2.1814	78.38	-0.1831	0.0201	0.2032	1049.3575	0.126638	-400.79211	-400.78465	-400.783706	-400.823874	28.825	
C	-0.0159815558	 1.5269761258	 0.0445340351	-0.509273
C	-0.0060262104	 0.0304817407	 0.0287279777	 0.08958
C	-0.0296799776	-0.7945957453	-1.0831125839	-0.146638
N	-0.0102113258	-2.1298917669	-0.7076605747	-0.415428
C	 0.0267146879	-2.183236651	 0.6624763685	 0.275982
C	 0.0295387332	-0.879909524	 1.1160872148	 0.287908
O	 0.0655251506	-0.8469770635	 2.476998747	-0.216343
C	 0.085214953	-2.1634436126	 2.8683338505	-0.018264
C	 0.0632077179	-3.0295842104	 1.8121695276	-0.338674
H	 0.8780062879	 1.9338498984	 0.5312670474	 0.128666
H	-0.0519308345	 1.9268072291	-0.9727657011	 0.11944
H	-0.8820680551	 1.921257513	 0.5885998738	 0.128686
H	-0.0595637796	-0.5224856903	-2.1267599579	 0.116587
H	-0.0216868258	-2.9067088278	-1.3425928314	 0.259969
H	 0.1146652213	-2.3242173206	 3.9333456703	 0.129139
H	 0.0725344927	-4.1058849044	 1.8778732463	 0.108663
118.2803	169.4917	230.0785	246.5612	304.7458	402.3436	517.2793	583.9778	600.5578	613.5306	685.683	693.1597	721.0811	746.4502	791.5106	801.8493	909.2599	1001.5527	1044.1003	1065.2677	1083.887	1116.2521	1160.3904	1203.3251	1271.9299	1328.0401	1371.1644	1421.1027	1460.4901	1480.3027	1480.852	1505.5961	1552.8291	1585.0828	1620.0846	3025.6333	3073.2961	3107.5823	3254.3784	3255.4161	3283.8963	3699.3161
CC1=CNC2=C1OC=C2	Cc1c[nH]c2c1occ2	
InChI=1S/C7H7NO/c1-5-4-8-6-2-3-9-7(5)6/h2-4,8H,1H3	InChI=1S/C7H7NO/c1-5-4-8-6-2-3-9-7(5)6/h2-4,8H,1H3
