19
gdb 90910	3.41173	1.52308	1.42334	1.2013	80.66	-0.2154	0.0107	0.2261	984.0353	0.160117	-385.774032	-385.766906	-385.765962	-385.804971	30.348	
O	 0.2104213177	 1.3538526013	-0.2091744032	-0.433843
C	 0.102395932	-0.0325242929	 0.0200000582	 0.017
C	 0.19535346	-0.4399555028	 1.5685449022	-0.332935
C	-1.3452210084	-0.1701723004	 1.6073430538	 0.042378
C	-2.7650374775	-0.8736141907	 1.5833333104	-0.136317
C	-2.9151249265	-0.0995815659	 0.1739143728	-0.305581
C	-1.3791702098	-0.4949231542	 0.1229351907	 0.25989
C	-1.5147219296	-2.0315653484	 0.1304027188	-0.1303
C	-2.419609594	-2.2730659038	 1.0796425375	-0.076884
H	 1.1213503659	 1.6128166811	-0.0371679863	 0.285484
H	 0.7461923169	-0.6017187445	-0.6673412576	 0.06144
H	 0.4783968425	-1.4883687179	 1.6795519546	 0.114551
H	 0.8295936138	 0.1898609276	 2.1993847705	 0.087994
H	-1.4832341644	 0.9028262395	 1.7622187496	 0.090122
H	-3.5071622215	-0.7587044096	 2.3749596352	 0.06176
H	-3.5904968158	-0.5537287991	-0.5561974419	 0.095395
H	-3.1000380183	 0.9729999011	 0.2760600272	 0.108864
H	-0.9925876895	-2.7084984606	-0.5325414701	 0.09139
H	-2.8543234934	-3.2039703797	 1.4146122677	 0.099591
166.9794	227.5727	286.1129	354.593	389.5641	442.3777	481.7399	541.4151	609.2881	666.5521	710.5421	739.2113	777.9491	808.2877	828.7019	860.6886	907.4744	913.157	945.4292	974.4145	1004.5665	1024.5373	1029.8476	1060.0437	1089.9827	1110.213	1128.3455	1158.7866	1166.4469	1197.1213	1202.7706	1205.3287	1225.0902	1255.1958	1301.2169	1321.2552	1393.3898	1412.5084	1456.9401	1489.3972	1628.5643	2981.3329	3051.0474	3055.1901	3073.6496	3103.582	3125.3619	3129.9374	3211.2571	3242.1883	3815.9893
OC1CC2C3CC12C=C3	O[C@H]1C[C@@H]2[C@H]3C[C@@]12C=C3	
InChI=1S/C8H10O/c9-7-3-6-5-1-2-8(6,7)4-5/h1-2,5-7,9H,3-4H2	InChI=1S/C8H10O/c9-7-3-6-5-1-2-8(6,7)4-5/h1-2,5-7,9H,3-4H2/t5-,6-,7+,8-/m1/s1
