20
gdb 59136	4.15061	1.10734	1.01531	2.6448	79.75	-0.2261	0.0732	0.2994	1239.8148	0.170394	-403.042506	-403.034197	-403.033253	-403.075521	32.289	
C	 0.6870802548	-0.1338676404	-1.2984755344	-0.404847
C	 0.0502975881	 0.1545688478	 0.0644505694	 0.093603
O	-0.06636399	 1.5542904866	 0.2965269196	-0.432149
C	-1.3594137916	-0.4031308472	 0.1422873107	 0.068566
C	-1.6194715771	-1.9080279949	 0.1639023165	-0.092054
C	-1.2755947591	-1.9553142122	 1.6848960573	-0.007985
C	-2.596481181	-2.6194004238	 2.0807844744	-0.260574
C	-2.9326305979	-1.6368198847	 0.9576210451	-0.000019
N	-1.9682060672	-0.5658163582	 1.5382195262	-0.166631
H	 1.6887710659	 0.3068982301	-1.3575758492	 0.10538
H	 0.7877484379	-1.2102635828	-1.4719359505	 0.117518
H	 0.0801876225	 0.2957502593	-2.1019960054	 0.12462
H	 0.6664318373	-0.3094000674	 0.851347908	 0.063427
H	 0.8178820978	 1.9334473845	 0.2789821036	 0.280221
H	-2.0118578336	 0.1914354465	-0.510220727	 0.075115
H	-1.4388909253	-2.6791450416	-0.5942214848	 0.061957
H	-0.2945920082	-2.0439163801	 2.1528574716	 0.083192
H	-2.702414439	-3.6840799537	 1.8577988126	 0.097806
H	-2.9835620185	-2.3689957341	 3.0719351544	 0.110159
H	-3.8989005859	-1.3353453536	 0.5488918518	 0.082693
62.5489	154.8232	172.5254	237.8227	257.6697	315.5493	371.4533	467.363	497.7812	508.7225	708.0415	791.1848	820.9452	847.3962	868.5851	892.9223	896.9175	912.0415	942.3814	997.2496	1020.4531	1025.4646	1043.0858	1083.3661	1108.5259	1118.1351	1133.3095	1143.726	1154.5625	1179.8643	1187.0739	1231.911	1249.6973	1264.7135	1273.1503	1318.6261	1356.8137	1369.7309	1402.8557	1445.9855	1490.2183	1492.0949	1502.3888	2972.5596	3026.791	3027.5678	3035.6229	3056.6877	3094.5583	3098.912	3108.8892	3111.0819	3122.8308	3819.1597
CC(O)C1C2C3CC2N13	C[C@@H](O)[C@H]1[C@H]2[C@@H]3C[C@H]2N13	
InChI=1S/C7H11NO/c1-3(9)7-6-4-2-5(6)8(4)7/h3-7,9H,2H2,1H3	InChI=1S/C7H11NO/c1-3(9)7-6-4-2-5(6)8(4)7/h3-7,9H,2H2,1H3/t3-,4-,5+,6-,7+/m1/s1
