16
gdb 45545	2.88966	1.18412	0.94474	8.6171	78.58	-0.1686	-0.0128	0.1558	1225.2828	0.124717	-437.858166	-437.849685	-437.848741	-437.892685	30.245	
O	 0.4673930052	 0.0586786294	 0.7156053352	-0.230444
C	 0.7852038501	 0.9774067684	 0.076755121	 0.482288
O	-1.9732717177	 2.7495504476	-0.7115182119	-0.425377
C	-1.0582817385	 3.4656271187	-0.3174974325	 0.345809
C	-1.3173728563	 4.8397192732	 0.3744078025	-0.314465
C	 0.0461712853	 5.5093188453	 0.4239004071	-0.207283
N	 1.0191014042	 4.3416596911	 0.4136689066	-0.265923
H	 1.9036541255	 4.6132494095	-0.0180970588	 0.288964
H	 1.2583242639	 4.0678078004	 1.3783722273	 0.273479
C	 0.3341002629	 3.2590079549	-0.3633422557	-0.029663
C	 1.108120069	 2.0489002362	-0.6275226284	-0.556712
H	-2.0465396544	 5.4247693575	-0.1881641286	 0.131044
H	-1.7286400197	 4.6686599335	 1.3759332016	 0.118244
H	 0.250219564	 6.0805451953	-0.4828211252	 0.14983
H	 0.2524475536	 6.1298827087	 1.2991772291	 0.125214
H	 1.8198686129	 1.9231949003	-1.4425318892	 0.114994
35.0995	67.9593	150.4683	172.207	239.4793	281.3789	432.4795	538.639	553.0449	588.6936	600.1242	624.7278	688.2849	746.2149	844.1805	900.5767	929.1576	948.1065	1015.856	1049.5408	1079.1279	1121.8546	1146.6724	1207.4021	1237.2009	1276.7967	1320.1981	1368.3645	1380.3642	1448.6841	1477.7175	1493.6974	1663.0179	1744.8358	2201.5189	3047.5559	3075.0678	3102.672	3119.3689	3139.2642	3254.9096	3431.8717
O=C1O[C-]2CC[NH2+]C2=C1	[O][C][CH][C]1C(=O)CC[NH2]1	
InChI=1S/C6H6NO2/c8-6-3-4-5(9-6)1-2-7-4/h3,7H,1-2H2/q-1/p+1	InChI=1S/C6H7NO2/c8-4-2-5-6(9)1-3-7-5/h2H,1,3,7H2
