25
gdb 115346	3.05313	1.06777	0.90699	1.0566	88.78	-0.2442	0.0747	0.3188	1431.0326	0.228791	-389.5042	-389.493853	-389.492909	-389.539309	38.717	
C	-0.6113248205	 1.6540274492	 0.1219306017	-0.237244
O	-0.2681649304	 0.3455206147	 0.5108834287	-0.249721
C	-1.1556289945	-0.6460753691	 0.0377753325	 0.154938
C	-1.0695693088	-0.925273838	-1.487227853	-0.24179
C	-1.3643768758	-2.4406442164	-1.6425471987	-0.218552
C	-1.6660910344	-2.9622586909	-0.2140809934	 0.050982
C	-1.4115819829	-4.4566068167	-0.0270568527	-0.419123
C	-0.8720151708	-2.0052060295	 0.7078459154	-0.041187
C	 0.6286136205	-2.3110118957	 0.7998530158	-0.393736
H	 0.0969807413	 2.3332328085	 0.6033706487	 0.123573
H	-0.5493159903	 1.7974253158	-0.9670171726	 0.105987
H	-1.6312561416	 1.9192529343	 0.4446923671	 0.100372
H	-2.1876769949	-0.345153833	 0.2886550914	 0.056699
H	-1.7657012949	-0.304827338	-2.0578327245	 0.093573
H	-0.0607535269	-0.6774481957	-1.8322439771	 0.106802
H	-2.1952441867	-2.6408057421	-2.3252700042	 0.093177
H	-0.4934079256	-2.9614558364	-2.0550277347	 0.098306
H	-2.7308682411	-2.7781697189	-0.0120238504	 0.066927
H	-0.3722360949	-4.7191104139	-0.2492319325	 0.116693
H	-1.6270294253	-4.7767634805	 0.9983345241	 0.109861
H	-2.0483804444	-5.044334954	-0.6972841968	 0.109933
H	-1.2868158211	-2.0146824261	 1.7224116054	 0.064173
H	 1.0979972976	-2.3800023586	-0.1873967735	 0.10997
H	 1.1399608264	-1.519284063	 1.351262837	 0.131383
H	 0.8031105101	-3.2586816261	 1.3175616065	 0.108003
82.8541	91.0325	119.9384	182.4299	209.4516	212.6044	237.5619	282.3438	305.4175	333.155	399.0016	473.1487	519.1294	587.67	648.2871	780.6108	810.4297	841.2714	885.8955	959.585	972.019	995.7376	1009.0313	1030.888	1046.5508	1072.0784	1094.7602	1152.1101	1162.6891	1179.2025	1184.5444	1210.3179	1238.5916	1250.5213	1274.2824	1289.36	1314.1648	1335.7121	1346.6238	1378.8315	1385.1852	1394.4819	1411.8918	1416.5038	1480.4848	1484.9682	1489.554	1492.2253	1496.8101	1504.4544	1507.2063	1511.8275	1512.319	2941.3688	2970.8618	2994.3882	3020.2514	3028.402	3037.4063	3039.781	3041.5734	3055.5019	3075.9168	3091.4199	3097.752	3102.5347	3104.4401	3108.8152	3129.3127
COC1CCC(C)C1C	CO[C@H]1CC[C@@H](C)[C@H]1C	
InChI=1S/C8H16O/c1-6-4-5-8(9-3)7(6)2/h6-8H,4-5H2,1-3H3	InChI=1S/C8H16O/c1-6-4-5-8(9-3)7(6)2/h6-8H,4-5H2,1-3H3/t6-,7-,8+/m1/s1
