21
gdb 59878	4.06042	0.76331	0.72126	3.1435	80.14	-0.2492	-0.029	0.2203	1659.3104	0.179415	-424.226108	-424.215874	-424.21493	-424.262375	36.534	
C	-0.0975629476	 1.6327609364	 0.5772381701	-0.389811
C	 0.0094438976	 0.1802768215	 0.0919413717	 0.048056
C	 0.9453851307	-0.6359494233	 0.9922435404	-0.39753
C	-1.3709169097	-0.4837163509	 0.0019204193	-0.313666
C	-2.2608703477	 0.0343059956	-1.114821226	 0.368428
O	-1.8806813758	 0.7870637302	-1.9814190497	-0.310391
C	-3.6922822389	-0.4557739192	-1.0891572267	-0.017747
C	-4.7654940935	 0.4724891844	-1.5038234767	-0.160105
O	-4.3371124767	-0.5727517866	-2.3561422521	-0.207955
H	 0.8902198613	 2.1031595365	 0.61332922	 0.112901
H	-0.7279874705	 2.2273302602	-0.0880778958	 0.132697
H	-0.5212889194	 1.6772738466	 1.588421802	 0.103753
H	 0.4240543489	 0.1955025094	-0.9229122757	 0.097465
H	 0.5611118737	-0.6905374882	 2.0181517249	 0.110039
H	 1.0639371933	-1.6614860148	 0.6261528267	 0.109839
H	 1.9394024048	-0.1794980214	 1.0370533084	 0.114979
H	-1.2710693405	-1.5680803233	-0.1623951514	 0.126002
H	-1.9171579535	-0.3946334605	 0.9533265981	 0.115594
H	-3.9290757024	-1.2477953543	-0.3792689406	 0.099226
H	-5.758078708	 0.3598395073	-1.0699133809	 0.121196
H	-4.4796825461	 1.4733830446	-1.8207755961	 0.137029
39.5535	55.9826	104.8757	134.1425	232.7903	252.5686	261.8427	270.6933	294.6308	345.2227	408.6847	429.2847	580.4043	686.4971	809.7506	839.2066	860.4353	894.4125	915.1734	929.5638	967.8546	971.1676	1017.343	1053.1535	1093.5831	1119.7431	1160.3869	1163.4009	1174.324	1196.822	1246.7672	1280.7378	1311.2429	1361.3341	1386.1185	1397.3289	1415.237	1420.5574	1442.1854	1489.0678	1495.0723	1504.8738	1506.421	1514.2479	1808.8226	2994.8699	3021.3419	3022.5913	3026.8415	3044.8935	3087.1457	3087.6817	3094.1645	3100.8662	3118.6582	3124.2036	3187.5112
CC(C)CC(=O)C1CO1	CC(C)CC(=O)[C@H]1CO1	
InChI=1S/C7H12O2/c1-5(2)3-6(8)7-4-9-7/h5,7H,3-4H2,1-2H3	InChI=1S/C7H12O2/c1-5(2)3-6(8)7-4-9-7/h5,7H,3-4H2,1-2H3/t7-/m1/s1
