19
gdb 98245	3.28113	1.11397	0.84589	4.1931	75.11	-0.2434	-0.0018	0.2416	1366.8984	0.157723	-456.381562	-456.371284	-456.37034	-456.418256	35.724	
C	 0.0214399298	 0.8525477472	 0.1560725662	-0.224946
O	 0.1192437271	-0.5583564756	 0.3510499466	-0.259391
C	 0.7129393084	-0.9407745134	 1.5050245608	 0.499767
N	 1.1527604314	-0.1028583917	 2.3398220569	-0.579077
N	 0.7318120438	-2.3656811224	 1.5521907292	-0.206024
C	 0.0783209108	-3.0881264809	 0.453335678	-0.334264
C	 1.396567725	-3.0330471441	 2.576927214	 0.425172
C	 1.4612305462	-4.5517153933	 2.5026152399	-0.504725
O	 1.9213532998	-2.4545133817	 3.5116864061	-0.352824
H	 1.0136357009	 1.3104668334	 0.1417601997	 0.141868
H	-0.4775296884	 0.9792703374	-0.8057895492	 0.122862
H	-0.5590865198	 1.314713145	 0.9584487943	 0.14128
H	 1.5656902403	-0.5830364549	 3.1350991286	 0.257226
H	 0.6544557096	-3.0111590047	-0.4737135352	 0.139742
H	-0.0333563396	-4.1363088154	 0.7143408305	 0.133571
H	-0.9111130455	-2.6694515203	 0.2724971795	 0.152525
H	 1.8878629107	-4.9067116278	 1.5603358527	 0.143954
H	 2.092118209	-4.8756246909	 3.3293512132	 0.154257
H	 0.4722616606	-5.0066183459	 2.617871848	 0.149028
18.5325	85.6642	98.0201	132.702	182.7662	217.3993	231.9807	268.9172	354.0584	382.6931	417.9642	462.7882	585.9528	596.8047	621.7821	736.6416	786.3966	903.2861	910.3336	1007.0639	1035.546	1050.3616	1121.5491	1150.4751	1164.5784	1184.7072	1209.3865	1228.5164	1338.2733	1381.4196	1398.0635	1460.5454	1472.9082	1474.5643	1479.92	1491.9453	1501.0851	1502.9162	1517.8023	1706.1021	1789.0147	3048.1271	3050.1478	3059.1225	3113.9741	3125.7849	3136.6228	3149.9972	3163.6821	3192.98	3530.6312
COC(=N)N(C)C(C)=O	COC(=N)N(C)C(=O)C	
InChI=1S/C5H10N2O2/c1-4(8)7(2)5(6)9-3/h6H,1-3H3	InChI=1S/C5H10N2O2/c1-4(8)7(2)5(6)9-3/h6H,1-3H3
