16
gdb 50923	1.8173	1.52088	0.92023	3.0708	70.62	-0.2648	-0.0057	0.2591	1236.8507	0.124394	-434.065403	-434.05639	-434.055446	-434.100304	31.36	
O	 0.0241253039	 0.6032839743	 1.1616862246	-0.317372
C	-0.0145304087	 1.3873224494	 0.2381489954	 0.166068
N	 1.068474618	 1.7619597523	-0.5007628454	-0.284777
C	 2.3884296873	 1.2055877138	-0.2279291475	-0.155243
C	 3.0595426176	 0.8824051189	-1.4970078916	 0.281357
N	 3.5910013901	 0.6552916574	-2.4970667753	-0.306793
C	 3.2524800309	 2.1134213791	 0.6407212954	 0.020541
C	 3.0956139546	 2.0285323995	 2.112987465	-0.249654
N	 4.3234255755	 1.5417286803	 1.4602199134	-0.309017
H	-0.9418549196	 1.8814386719	-0.1049486711	 0.101317
H	 0.9560192783	 2.4178839463	-1.2576320729	 0.26847
H	 2.2063403975	 0.2734732328	 0.3206799237	 0.159303
H	 3.5047986736	 3.0648635168	 0.1777386356	 0.108475
H	 3.225407429	 2.9203673771	 2.718350455	 0.129353
H	 2.375946853	 1.3106332312	 2.4957690611	 0.147336
H	 4.319967659	 0.5254368788	 1.4045394546	 0.240635
51.399	69.8627	143.505	148.2286	174.0597	275.8945	310.4208	361.9581	453.5646	510.7079	529.6104	574.2857	752.1683	822.6923	889.3393	926.2962	954.6522	1010.5899	1033.0535	1036.91	1072.3337	1129.8221	1152.078	1192.9306	1209.6147	1243.9648	1283.477	1303.3119	1335.0065	1420.4028	1422.6333	1508.5376	1517.5834	1796.0449	2363.6532	2971.673	3052.4447	3119.2689	3135.5762	3209.956	3493.4783	3639.8097
O=CNC(C#N)C1CN1	O=CN[C@@H](C#N)[C@H]1CN1	
InChI=1S/C5H7N3O/c6-1-4(8-3-9)5-2-7-5/h3-5,7H,2H2,(H,8,9)	InChI=1S/C5H7N3O/c6-1-4(8-3-9)5-2-7-5/h3-5,7H,2H2,(H,8,9)/t4-,5+/m0/s1
