18
gdb 48588	3.28222	1.46153	1.29733	1.3066	75.77	-0.2391	-0.0303	0.2088	1014.2935	0.14913	-401.895831	-401.888745	-401.887801	-401.927516	28.505	
O	-0.0804258984	-0.0827107004	-0.019997031	-0.248982
C	 0.0355920886	 1.1119169248	-0.1388280452	 0.040628
C	 1.334134828	 1.8451810335	-0.0942824537	 0.24424
C	 1.7507996726	 2.6912299679	 1.1869112735	-0.249271
C	 3.138480098	 2.5797202984	 0.4874458241	-0.001531
C	 2.7017878672	 1.144754785	 0.0830955111	-0.291807
N	 2.9022928858	 3.4961782748	-0.6778599883	-0.108654
C	 2.8169771702	 2.8531735829	-2.0027318996	-0.255493
C	 1.6052742333	 2.936632057	-1.1501699498	-0.081241
H	-0.8602687587	 1.7628734815	-0.2737724984	 0.071037
H	 1.3301897747	 3.6937679877	 1.2859841315	 0.113716
H	 1.6690620902	 2.1249925873	 2.1163788973	 0.113308
H	 4.0740668726	 2.7901555932	 1.0032001191	 0.081967
H	 2.6878637521	 0.4719615218	 0.9404331126	 0.119461
H	 3.1622662704	 0.6340377066	-0.761197248	 0.106919
H	 2.9104277587	 3.5640946081	-2.8191586488	 0.122571
H	 3.3031656969	 1.9038672682	-2.1923070511	 0.12319
H	 0.8077995177	 3.6391165116	-1.3798364153	 0.099941
72.2796	183.0708	242.6457	369.3052	406.2988	457.1306	549.6588	560.8544	643.0374	714.6094	745.122	789.7838	837.9919	843.0292	869.6276	948.8807	962.2484	971.6423	990.7008	1026.0541	1038.8074	1072.807	1084.6586	1108.0452	1122.6031	1143.4998	1177.0114	1200.2817	1216.9294	1232.7735	1244.3882	1271.3395	1283.3844	1375.5695	1428.6194	1476.7621	1500.2318	1543.653	1820.3465	2854.0374	3073.4322	3099.6276	3127.2904	3132.2292	3137.5566	3145.3489	3151.7181	3213.5864
O=CC12CC(C1)N1CC21	O=C[C@@]12C[C@@H](C1)N1C[C@@H]21	
InChI=1S/C7H9NO/c9-4-7-1-5(2-7)8-3-6(7)8/h4-6H,1-3H2	InChI=1S/C7H9NO/c9-4-7-1-5(2-7)8-3-6(7)8/h4-6H,1-3H2/t5-,6-,7+,8?/m0/s1
