15
gdb 7716	3.47311	1.97166	1.30194	1.7732	66.55	-0.2481	-0.0091	0.2391	894.4699	0.121497	-395.995503	-395.9886	-395.987656	-396.026811	26.154	
N	-0.1372091242	 1.2747612471	-0.3671117693	-0.515514
C	-0.0305149553	 0.0687784537	 0.022600909	 0.369658
C	-1.2570965409	-0.8237657022	 0.0550219026	-0.139397
O	-1.1685608719	-1.8197674956	 1.0506172054	-0.235738
C	-0.0500438161	-2.6541715384	 0.8414601828	-0.139391
C	 1.2560431522	-1.8821806169	 0.8607164775	 0.369649
N	 2.3251948632	-2.4592773449	 1.2369197621	-0.515516
N	 1.1426580406	-0.5651903846	 0.4232085716	-0.380415
H	 0.7650845749	 1.7557305092	-0.3861950207	 0.206263
H	-2.1282971982	-0.2056744521	 0.2709062522	 0.150927
H	-1.3912752754	-1.2779268526	-0.9419671613	 0.116187
H	-0.0254895393	-3.3943062263	 1.6409806989	 0.150929
H	-0.1332130783	-3.1858130607	-0.1222267349	 0.11619
H	 3.1412945799	-1.847609134	 1.1616083252	 0.206263
H	 1.9816221787	 0.0000452183	 0.4511063188	 0.239905
103.3465	117.3089	296.1914	362.2514	451.4552	462.3516	504.4173	519.5134	594.419	597.263	673.2408	851.7272	872.4543	893.8089	922.3939	983.9869	1015.834	1069.9805	1119.5437	1147.3969	1173.3854	1234.1027	1311.8248	1345.2553	1364.0713	1394.6061	1419.3253	1425.8019	1473.9243	1483.5943	1740.0088	1742.2426	2962.3203	2965.6034	3139.889	3141.8751	3440.0725	3440.7758	3573.3858
N=C1COCC(=N)N1	[NH][C]1COC[C]([NH])N1	
InChI=1S/C4H7N3O/c5-3-1-8-2-4(6)7-3/h1-2H2,(H3,5,6,7)	InChI=1S/C4H7N3O/c5-3-1-8-2-4(6)7-3/h1-2H2,(H3,5,6,7)
