18
gdb 35278	3.4461	0.93812	0.84437	1.5835	78.94	-0.2362	0.0177	0.2539	1399.076	0.145602	-401.851101	-401.84218	-401.841236	-401.885548	32.839	
C	-0.1862402395	-1.139935117	 0.1769170076	-0.432746
C	-0.0146452492	 0.0499068781	 0.1875884949	 0.337758
C	 0.1358772915	 1.4812982296	 0.1816561013	-0.155765
O	 0.9575610759	 2.0736239693	 1.2022614594	-0.242758
C	 1.4107727703	 2.1539851837	-0.1497792167	 0.085401
C	 2.6657765853	 1.3950746095	-0.4991153935	-0.19963
N	 3.8360948305	 2.191300634	-0.1479881752	-0.072409
C	 4.2954493001	 2.0647332726	 1.2343971574	-0.211558
C	 5.0615193178	 1.4444370987	 0.1190954499	-0.223355
H	-0.331070885	-2.1921842654	 0.1737131449	 0.204338
H	-0.7840816289	 2.0317370038	-0.0147388927	 0.118665
H	 1.3467186653	 3.1542578391	-0.5798431694	 0.106502
H	 2.6444912553	 0.4140626273	 0.0024796395	 0.102341
H	 2.6859667796	 1.215996589	-1.5818084639	 0.111217
H	 4.6440574774	 2.9826881712	 1.6980420244	 0.117862
H	 3.7377640521	 1.4032799476	 1.8932978706	 0.126286
H	 5.0265347234	 0.3594578908	 0.0331537402	 0.110285
H	 5.978462788	 1.899562798	-0.2439716287	 0.117566
57.3444	83.2015	100.8281	187.8489	221.6684	328.5306	351.3035	377.3654	487.9041	556.4006	592.2772	627.2113	669.8924	767.2785	815.0948	819.0873	838.2459	903.9873	941.8733	1006.0547	1026.1379	1044.78	1066.8077	1111.3556	1117.6555	1133.086	1149.5523	1173.3399	1196.0745	1276.5427	1284.9043	1321.2588	1348.3121	1392.5633	1464.162	1478.4744	1494.532	1523.9872	2239.0278	2976.8753	3047.3967	3096.8292	3105.3156	3110.3641	3116.397	3181.4867	3199.272	3502.0964
C#CC1OC1CN1CC1	C#C[C@H]1O[C@H]1CN1CC1	
InChI=1S/C7H9NO/c1-2-6-7(9-6)5-8-3-4-8/h1,6-7H,3-5H2	InChI=1S/C7H9NO/c1-2-6-7(9-6)5-8-3-4-8/h1,6-7H,3-5H2/t6-,7+/m1/s1
