18
gdb 82664	2.92847	1.70208	1.34683	3.5827	75.21	-0.2424	-0.0187	0.2237	986.2444	0.149273	-401.904162	-401.897064	-401.89612	-401.935494	28.594	
C	-0.1153139088	 1.49527318	 0.0293645649	-0.438461
C	 0.0933540524	-0.0165366207	 0.0581283122	 0.029478
C	 1.055363095	-0.6315460148	-0.992814633	-0.075213
C	 2.4099963818	-0.0430309693	-0.5651909302	-0.16772
N	 2.2946592323	-0.8786721557	 0.6825712743	-0.159528
C	 1.5213385191	-1.9102581674	-0.1846745936	-0.145745
C	 0.6038722435	-2.0891669478	 1.0174534505	 0.474294
O	 0.0427774105	-2.9872361806	 1.5664108733	-0.322939
C	 0.8883986171	-0.6070908399	 1.2705809828	-0.153687
H	 0.8046822729	 2.0574866346	 0.2077253489	 0.126246
H	-0.5217140728	 1.8112256476	-0.9380248578	 0.121703
H	-0.8325300878	 1.7924044288	 0.8010185519	 0.126353
H	-0.891309798	-0.4957006323	-0.0067428113	 0.092445
H	 0.7179804427	-0.6742791268	-2.0297901539	 0.073232
H	 3.2525923846	-0.4225987319	-1.1489436148	 0.116586
H	 2.5244668316	 1.0339679446	-0.4236805551	 0.106837
H	 2.0792907098	-2.7016681059	-0.6828007597	 0.100977
H	 0.8314784241	-0.1247584826	 2.2436776508	 0.095141
143.4467	174.5014	240.5787	258.5022	377.8879	501.2186	525.7694	570.1651	638.5229	723.7199	783.9561	804.7364	811.7694	822.9567	851.5853	923.2227	944.8464	1001.4593	1006.6897	1023.4726	1051.4678	1076.891	1091.2359	1107.2848	1123.7915	1160.8858	1182.8832	1205.1132	1212.4457	1234.1272	1259.6034	1297.6911	1301.6999	1395.1774	1412.7232	1491.607	1496.8668	1525.5331	1915.3861	3025.9675	3036.4591	3063.2547	3098.7694	3101.7433	3111.5181	3123.0465	3138.3854	3152.8061
CC1C2CN3C2C(=O)C13	C[C@H]1[C@H]2CN3[C@H]2C(=O)[C@H]13	
InChI=1S/C7H9NO/c1-3-4-2-8-5(3)7(9)6(4)8/h3-6H,2H2,1H3	InChI=1S/C7H9NO/c1-3-4-2-8-5(3)7(9)6(4)8/h3-6H,2H2,1H3/t3-,4+,5-,6+/m0/s1
