16
gdb 61115	2.55067	1.21225	1.05806	5.0449	75.74	-0.269	-0.0484	0.2206	1180.9301	0.120342	-400.737593	-400.727756	-400.726811	-400.772459	34.745	
C	-0.0001297767	 1.5957922703	 0.0616323031	-0.435821
C	 0.0156510222	 0.0567029197	-0.0831855621	-0.047741
C	 0.6187927966	-0.6540393511	 1.1610656381	-0.356413
C	 0.0152760527	-0.2238053484	 2.420206987	 0.27553
N	-0.4409036509	 0.1410355035	 3.4170078297	-0.3163
C	-1.4293789771	-0.4334503715	-0.3198347932	 0.161443
O	-1.9653273258	-1.2894572642	 0.3264987008	-0.234149
C	 0.7667680327	-0.3341858166	-1.2764145127	 0.307791
C	 1.3510985733	-0.6715316799	-2.2713007594	-0.445917
H	 1.0209887178	 1.9762101667	 0.1449606631	 0.142193
H	-0.4606324672	 2.0550998769	-0.8169613164	 0.137766
H	-0.5603855174	 1.8908554884	 0.9525921275	 0.159695
H	 0.4837222903	-1.7335473944	 1.0560539665	 0.175276
H	 1.6932674425	-0.452301738	 1.2004867589	 0.160228
H	-1.9354390463	 0.0767453249	-1.1666938407	 0.104431
H	 1.8780732433	-0.9629152563	-3.1468905102	 0.211987
72.8322	84.6033	119.1296	170.5357	186.9834	232.8262	265.9253	322.316	359.0085	386.5836	482.7267	496.0313	538.5077	584.8101	640.1535	668.5962	788.5578	871.0343	921.6205	945.6108	971.4263	1011.3119	1111.9148	1179.0572	1200.479	1276.9917	1335.9509	1400.5086	1418.1406	1450.6469	1492.8911	1495.2141	1839.5146	2230.4886	2364.2876	2912.4792	3049.2463	3068.9499	3117.0309	3127.5915	3134.1369	3497.2335
CC(CC#N)(C=O)C#C	C[C@@](CC#N)(C=O)C#C	
InChI=1S/C7H7NO/c1-3-7(2,6-9)4-5-8/h1,6H,4H2,2H3	InChI=1S/C7H7NO/c1-3-7(2,6-9)4-5-8/h1,6H,4H2,2H3/t7-/m1/s1
