17
gdb 92970	2.70362	1.50777	1.11434	2.134	68.37	-0.2386	0.0082	0.2468	1082.8355	0.136888	-455.199739	-455.191179	-455.190235	-455.233656	31.455	
C	 0.4919640167	 1.7990276509	-0.2433795912	-0.405899
C	 0.1826881617	 0.3117679115	-0.2282049393	 0.09952
O	 1.2116225335	-0.3892492866	-1.0046810545	-0.224932
C	 1.8688418279	-1.1697034126	-0.1321861797	 0.118173
N	 1.4658386497	-1.2652702302	 1.0680090998	-0.295746
C	 0.2583920139	-0.4220838515	 1.1516584719	-0.099572
C	 0.2363426139	 0.5013659255	 2.3774005715	 0.384128
N	 1.2868011217	 0.3419331764	 3.2174880469	-0.518382
O	-0.6742820441	 1.2907333925	 2.5532174067	-0.376943
H	 1.4479343669	 2.0028361177	 0.2493797888	 0.125537
H	 0.5501105237	 2.1554954228	-1.2750591641	 0.122612
H	-0.2896222314	 2.3446682528	 0.2876080442	 0.160018
H	-0.7658655559	 0.1133146833	-0.7305892748	 0.106872
H	 2.7323401995	-1.6825410764	-0.5426262454	 0.145601
H	-0.6153065781	-1.0735212526	 1.2749913007	 0.122962
H	 1.9532742314	-0.3930093729	 3.0415786813	 0.275826
H	 1.2945314489	 0.8507787792	 4.0857414871	 0.260226
54.6655	57.8999	192.5675	242.9585	256.4904	339.0745	359.4958	390.8896	468.953	513.0573	572.5565	639.1768	699.4609	745.448	822.079	864.9045	890.819	965.2091	976.2582	1026.7488	1064.7705	1088.3538	1108.5957	1150.2396	1161.2968	1278.1858	1308.7558	1311.1691	1350.9961	1367.8805	1384.9643	1408.7297	1486.0971	1493.8897	1590.1526	1699.3561	1793.4907	3032.5998	3048.1358	3089.9444	3121.4084	3150.1774	3209.7476	3582.7864	3726.3
CC1OC=NC1C(N)=O	C[C@H]1OC=N[C@H]1C(=O)N	
InChI=1S/C5H8N2O2/c1-3-4(5(6)8)7-2-9-3/h2-4H,1H3,(H2,6,8)	InChI=1S/C5H8N2O2/c1-3-4(5(6)8)7-2-9-3/h2-4H,1H3,(H2,6,8)/t3-,4-/m1/s1
