25
gdb 58115	2.82378	0.99018	0.89483	0.6956	94.58	-0.2576	0.0516	0.3093	1467.8044	0.225175	-352.335431	-352.323917	-352.322973	-352.371474	43.678	
C	-0.0943440664	 1.5694177821	 0.0684242422	-0.410511
C	-0.017641456	 0.0356827387	-0.0352691385	 0.044452
C	-1.4213005619	-0.54753015	 0.2050337016	-0.416071
C	 0.6648505127	-0.4931098324	-1.3423036824	 0.267486
C	 0.6640568976	-2.034776671	-1.3466900605	-0.425011
C	-0.0329601841	 0.0180007484	-2.6156237337	-0.420617
C	 2.150953263	-0.0085492408	-1.3415300466	-0.390746
C	 2.949257684	-0.4737828033	-2.470107645	 0.310879
C	 3.6084468961	-0.8518033415	-3.4025079734	-0.447696
H	 0.878808704	 2.0562741576	-0.0346716524	 0.11317
H	-0.7627849939	 1.9917955484	-0.6890129351	 0.118543
H	-0.4940604428	 1.8547374747	 1.0468937786	 0.111945
H	 0.6177140372	-0.3138613408	 0.7923169144	 0.066903
H	-2.1159331092	-0.2751314844	-0.5969708018	 0.115853
H	-1.4133357131	-1.6364129999	 0.2883220027	 0.116159
H	-1.8343456163	-0.1512683175	 1.1384287078	 0.110256
H	-0.3420860783	-2.4376267527	-1.4875478988	 0.112913
H	 1.2891686179	-2.414169399	-2.1595432039	 0.127686
H	 1.0587806966	-2.4351422267	-0.4053187361	 0.10457
H	 0.0025196346	 1.1091170165	-2.6911030634	 0.110612
H	 0.458718521	-0.3880548478	-3.504065745	 0.127248
H	-1.0825574223	-0.2887276644	-2.6464989079	 0.110929
H	 2.1820374857	 1.086272172	-1.3320064933	 0.127629
H	 2.6284813989	-0.3372493153	-0.408565925	 0.122258
H	 4.1962125947	-1.182710741	-4.2223926444	 0.191161
47.506	82.8715	135.3376	193.0078	221.6591	241.1536	259.5109	272.2785	299.7634	342.0898	351.4965	365.3103	373.2173	407.5329	437.7286	482.8571	577.9422	609.0741	634.1152	720.4664	820.34	893.2064	921.1693	928.6589	950.2851	959.5774	969.8109	980.1623	1023.2395	1086.3116	1118.1268	1165.7167	1190.0466	1218.1805	1241.4053	1286.6897	1334.3904	1352.1548	1368.7418	1401.8005	1402.2851	1417.1953	1430.3059	1467.432	1484.3967	1486.4769	1488.9562	1502.177	1509.8411	1510.9687	1516.3232	1519.6536	2231.5955	2987.995	3017.2659	3031.8155	3035.3372	3039.1926	3045.1169	3068.0884	3092.7635	3100.5246	3102.5561	3110.7326	3112.7916	3114.1351	3118.5786	3125.5754	3505.5435
CC(C)C(C)(C)CC#C	CC(C)C(C)(C)CC#C	
InChI=1S/C9H16/c1-6-7-9(4,5)8(2)3/h1,8H,7H2,2-5H3	InChI=1S/C9H16/c1-6-7-9(4,5)8(2)3/h1,8H,7H2,2-5H3
