14
gdb 117025	4.36034	0.86479	0.72824	4.7232	65.47	-0.2953	-0.1258	0.1695	1476.2228	0.09801	-473.861088	-473.851607	-473.850663	-473.897012	31.305	
C	-0.1524504117	 1.5000868117	 0.0127669238	-0.393941
C	-0.0157141836	-0.0078419002	 0.0025182005	-0.055006
O	-1.3553617212	-0.5692510548	 0.012734968	-0.224578
C	-1.4277095838	-1.8895840323	 0.0053126411	 0.393393
O	-0.5137878587	-2.6732179739	-0.0087126243	-0.334663
C	-2.8908715529	-2.3629078724	 0.0173685753	 0.178597
O	-3.8451598875	-1.637051253	 0.0313744712	-0.228802
C	-3.0252790689	-3.8293891658	 0.0102370462	 0.269523
N	-3.2026409295	-4.971629	 0.0054724279	-0.294974
H	 0.8418041266	 1.9559664254	 0.0053810411	 0.133415
H	-0.6995534522	 1.8489850709	-0.8668726664	 0.141046
H	-0.6815956211	 1.838566803	 0.9073359355	 0.141048
H	 0.501629332	-0.3753547893	-0.8886674272	 0.137473
H	 0.5194506826	-0.3857377992	 0.8787155573	 0.137467
33.5827	66.2182	107.0553	122.0497	183.4773	246.1413	279.5475	288.4186	363.8228	428.1085	499.4255	524.4003	677.1526	806.7683	838.4172	848.984	875.8798	1027.7486	1101.1971	1135.4039	1179.6551	1294.4687	1323.0625	1401.6573	1426.8642	1485.1639	1494.5174	1515.1081	1811.7615	1816.0646	2344.5133	3051.8281	3059.2844	3101.3601	3126.9373	3135.4124
CCOC(=O)C(=O)C#N	CCOC(=O)C(=O)C#N	
InChI=1S/C5H5NO3/c1-2-9-5(8)4(7)3-6/h2H2,1H3	InChI=1S/C5H5NO3/c1-2-9-5(8)4(7)3-6/h2H2,1H3
