18
gdb 110818	2.32088	1.38222	1.05754	2.8561	75.84	-0.2684	0.0259	0.2943	1170.3004	0.148304	-401.922381	-401.913839	-401.912895	-401.956087	31.703	
O	-0.1672624385	 1.3598574196	-0.5382350812	-0.423209
C	 0.0072387661	 0.0928844555	 0.0852199956	-0.12413
C	-1.3339089553	-0.5976850614	 0.0604687391	 0.015431
C	-1.9362799782	-1.298218561	-1.1232451323	-0.056796
C	-0.8858233562	-2.0835733965	-1.9165351189	-0.262174
C	-0.5862777259	-2.9375616505	-0.6297708564	-0.147166
C	 0.7852542243	-3.0525259995	-0.1471431461	 0.281299
N	 1.87413198	-3.1436461064	 0.2324712439	-0.343292
C	-1.5934765793	-2.0762220431	 0.1578589401	-0.110054
H	 0.6664908765	 1.8359102498	-0.4785975338	 0.288737
H	 0.7778077435	-0.4971989032	-0.4265345336	 0.104202
H	 0.3348837092	 0.2023436354	 1.1307109738	 0.097476
H	-2.084387704	-0.0336378893	 0.611296575	 0.103187
H	-2.9131852445	-1.0302459409	-1.5045506154	 0.098379
H	-1.3058580129	-2.7012635407	-2.7111841604	 0.119889
H	-0.0518996804	-1.5069392807	-2.3229503599	 0.126857
H	-0.9806849025	-3.9484772856	-0.7611535068	 0.130855
H	-2.2492049423	-2.4884833416	 0.9147929773	 0.10051
59.7574	103.6006	147.5644	215.8422	256.928	284.2542	325.154	469.6383	492.1971	533.4524	598.0819	706.3131	758.504	807.7418	825.5723	903.5594	968.1103	977.3092	981.8966	1028.5757	1053.2632	1065.4519	1070.3459	1082.9501	1101.6172	1154.5325	1192.7464	1216.1863	1254.5083	1263.2761	1281.8207	1294.7137	1339.2608	1344.1136	1429.8783	1486.7569	1493.5978	1526.5777	2347.5404	2985.2531	3039.4944	3076.2287	3078.3557	3132.2379	3133.4148	3184.5856	3198.8107	3826.2531
OCC1C2CC(C#N)C12	OC[C@H]1[C@H]2C[C@@H](C#N)[C@@H]12	
InChI=1S/C7H9NO/c8-2-4-1-5-6(3-9)7(4)5/h4-7,9H,1,3H2	InChI=1S/C7H9NO/c8-2-4-1-5-6(3-9)7(4)5/h4-7,9H,1,3H2/t4-,5+,6-,7+/m0/s1
