21
gdb 33081	6.0442	0.74431	0.67231	1.3758	88.98	-0.1655	0.0568	0.2223	1729.5062	0.182794	-383.307884	-383.297882	-383.296938	-383.343169	36.552	
C	-0.0353352566	 1.5310354215	 0.0328019675	-0.400725
C	-0.0523557818	 0.0107300913	-0.0874660064	-0.098545
N	 0.8519331645	-0.438602023	-1.1329474062	-0.396578
C	 0.892397787	-1.8133983289	-1.4044775432	 0.32421
C	 0.3962759855	-2.8410717362	-0.628970379	-0.180656
N	 0.7239057552	-4.029171347	-1.2619383572	-0.314488
C	 1.4020366956	-3.7787610233	-2.424265989	 0.346756
C	 1.8757664002	-4.8754843028	-3.3204235857	-0.501723
C	 1.5243845485	-2.4108203123	-2.5382612792	-0.353009
H	 0.976961663	 1.8924879317	 0.2361193098	 0.127273
H	-0.3842297141	 2.0039836674	-0.8930052972	 0.111729
H	-0.6931100821	 1.8634861103	 0.8409381453	 0.116087
H	 0.2804442379	-0.436237167	 0.8585095823	 0.105977
H	-1.0864074889	-0.3448332511	-0.2504492602	 0.081976
H	 0.7506713698	 0.1084508692	-1.9784906846	 0.220535
H	-0.1441081179	-2.8358589852	 0.3018358638	 0.102445
H	 0.4889097536	-4.9432151924	-0.9190789051	 0.249836
H	 1.0484500534	-5.4877439972	-3.7018221954	 0.122609
H	 2.3960876667	-4.4523479925	-4.1826667756	 0.134962
H	 2.5745310534	-5.5530030287	-2.8133153339	 0.123675
H	 2.0215175671	-1.8881342939	-3.3422989807	 0.077653
62.4152	85.0465	92.5448	131.1238	208.9333	253.8937	290.729	307.7469	339.0388	394.9443	444.4074	584.3998	621.9663	639.2251	668.6647	690.4906	766.3016	782.8682	824.0922	923.882	977.1012	1001.6179	1015.5067	1059.856	1078.1164	1132.4076	1148.4539	1161.6709	1203.7499	1272.9295	1292.117	1313.8681	1372.3558	1406.1993	1417.635	1426.2998	1458.5662	1480.4341	1488.0019	1499.4132	1508.4113	1513.0396	1528.2559	1566.001	1647.7376	2930.9174	3013.6026	3025.8371	3033.3816	3056.0647	3098.2101	3118.8143	3121.6803	3235.7024	3278.7064	3552.2717	3689.5215
CCNC1=CNC(C)=C1	CCNc1c[nH]c(C)c1	
InChI=1S/C7H12N2/c1-3-8-7-4-6(2)9-5-7/h4-5,8-9H,3H2,1-2H3	InChI=1S/C7H12N2/c1-3-8-7-4-6(2)9-5-7/h4-5,8-9H,3H2,1-2H3
