17
gdb 81117	2.61432	1.68754	1.26177	1.8923	79.93	-0.2321	0.0097	0.2418	1018.0323	0.13516	-384.617554	-384.609629	-384.608685	-384.649525	31.782	
O	 0.0128435788	 1.3925694045	-0.0888849613	-0.43361
C	 0.0331737541	-0.0020178144	 0.0122089934	 0.125858
C	 0.022602083	-0.6179068014	 1.4749053578	-0.153166
C	-1.4788444616	-0.1923324791	 1.5229429419	-0.253767
C	-1.4269982742	-0.6251183197	 0.0076488933	 0.226865
C	-1.0329497359	-2.1035965682	 0.1509985878	-0.142316
C	-0.0957666918	-2.0909575094	 1.1048579556	-0.102423
C	-2.42624772	-0.2415181741	-0.9531368949	 0.035674
C	-3.2629461646	 0.0856302462	-1.7526607562	-0.342553
H	 0.9198676327	 1.7069639239	-0.147773547	 0.28959
H	 0.7359525643	-0.4626171808	-0.6928024696	 0.072169
H	 0.7416400997	-0.3107851849	 2.2331389106	 0.0645
H	-2.144463204	-0.7674050603	 2.1692001991	 0.097547
H	-1.6210992439	 0.8823505171	 1.6412162226	 0.122275
H	-1.4298366628	-2.9118812673	-0.4452264752	 0.112559
H	 0.4931738714	-2.9063948819	 1.5001649114	 0.105122
H	-4.0016239452	 0.3775714697	-2.4570352291	 0.175675
128.203	154.3793	188.9353	288.057	314.8276	446.9712	474.7907	499.2185	534.5683	567.4845	602.9152	624.8945	630.7367	700.0054	710.9976	849.8522	864.9869	908.6874	919.4162	933.16	959.0932	1001.8058	1057.3367	1070.291	1106.7837	1138.8762	1167.7074	1189.6917	1213.916	1247.7641	1256.	1283.9325	1335.5945	1411.6258	1487.3768	1618.2654	2237.8078	3033.4047	3077.86	3127.8207	3152.8504	3223.2483	3252.1296	3503.9366	3830.29
OC1C2CC1(C=C2)C#C	O[C@H]1[C@H]2C[C@@]1(C=C2)C#C	
InChI=1S/C8H8O/c1-2-8-4-3-6(5-8)7(8)9/h1,3-4,6-7,9H,5H2	InChI=1S/C8H8O/c1-2-8-4-3-6(5-8)7(8)9/h1,3-4,6-7,9H,5H2/t6-,7+,8+/m1/s1
