23
gdb 120028	2.31909	1.0217	0.80393	2.2506	82.1	-0.2391	0.0744	0.3135	1511.6308	0.203852	-425.411699	-425.401072	-425.400128	-425.448282	38.341	
C	-0.7118219863	 1.1056432698	-1.3047409749	-0.407779
C	 0.0985682704	-0.0958588509	-0.8586671488	 0.16128
O	 1.4701085658	-0.0138929505	-1.3078757946	-0.311655
C	 1.9776041715	-0.3880440503	-0.0072054536	 0.147765
C	 3.1028691843	 0.5166089261	 0.4545838965	-0.403668
C	 0.5574805886	-0.2837149631	 0.620818794	-0.098684
C	 0.3073625404	 0.8282914629	 1.6359051679	-0.188582
C	-1.0974661816	 0.7930985233	 2.228063159	-0.08186
O	-1.1890631292	 1.8386862458	 3.1835599724	-0.420933
H	-0.3100374825	 2.0400997444	-0.9046013644	 0.122742
H	-0.6839784119	 1.1698555644	-2.3973643629	 0.127616
H	-1.7592447098	 1.0104156253	-0.9999828026	 0.11329
H	-0.3727205913	-1.0112869983	-1.248401711	 0.066268
H	 2.3341601469	-1.4292313482	-0.0261302041	 0.066463
H	 2.7848424262	 1.5607354047	 0.5099697927	 0.121428
H	 3.471531278	 0.2078799849	 1.4387060572	 0.115041
H	 3.9355364218	 0.4523450898	-0.2531944034	 0.125153
H	 0.2185939953	-1.2338335914	 1.0460235897	 0.06695
H	 1.0194147365	 0.7296754464	 2.4643314479	 0.108108
H	 0.4782522944	 1.8187083574	 1.202112007	 0.112398
H	-1.8499281463	 0.9146179957	 1.4331966379	 0.089011
H	-1.2746823196	-0.1905908222	 2.6943618986	 0.083978
H	-2.0779326917	 1.8354444439	 3.5501866594	 0.285671
32.2106	80.0227	103.7924	135.0827	208.8233	212.4732	254.3873	263.0767	279.0752	351.6614	390.8403	399.8081	502.0839	532.8937	735.4786	764.1529	820.5634	859.7946	884.9084	937.3338	988.8003	1007.171	1037.3873	1058.8318	1077.1999	1081.3124	1121.0896	1142.5253	1170.9488	1190.9535	1220.2621	1234.2041	1263.9294	1284.586	1310.6829	1327.0994	1338.5659	1371.4731	1396.7806	1399.979	1403.6352	1425.7422	1460.0574	1479.3459	1483.7386	1486.0386	1497.3139	1504.9534	1526.7087	2960.1779	2973.7744	2979.1006	2992.1882	3035.5933	3037.9084	3040.9442	3050.2621	3086.218	3105.1735	3105.35	3120.576	3122.8068	3830.9396
CC1OC(C)C1CCO	C[C@H]1O[C@@H](C)[C@H]1CCO	
InChI=1S/C7H14O2/c1-5-7(3-4-8)6(2)9-5/h5-8H,3-4H2,1-2H3	InChI=1S/C7H14O2/c1-5-7(3-4-8)6(2)9-5/h5-8H,3-4H2,1-2H3/t5-,6+,7+
