16
gdb 49611	2.26624	1.87353	1.16691	3.6141	68.66	-0.2468	-0.0276	0.2192	1022.9391	0.124969	-437.921362	-437.91371	-437.912766	-437.953903	28.84	
O	-0.6148799982	 0.7173490561	-0.6338325699	-0.240315
C	 0.1547340329	 0.9842484467	 0.2509488154	 0.154719
C	 1.3149870758	 1.9589986958	 0.1126724206	-0.247442
C	 1.3592297266	 2.8057400011	-1.1412120172	-0.035725
C	 0.2371509678	 3.7895203482	-1.3903767909	-0.291562
C	 1.4967783031	 4.2433777712	-0.6945373793	-0.018655
N	 1.4912023686	 4.2152550336	 0.741143074	-0.306436
C	 1.2991489749	 2.9723770824	 1.2859050876	 0.384858
O	 1.1156048672	 2.7103876979	 2.4529576496	-0.370191
H	 0.077474281	 0.5309720215	 1.2607782906	 0.110723
H	 2.2280674014	 1.357643624	 0.2311533988	 0.13177
H	 1.9173823772	 2.4438076944	-1.9943531624	 0.106978
H	 0.0870413055	 4.0985106514	-2.4188956966	 0.124405
H	-0.6706983635	 3.7134776555	-0.8022553928	 0.129651
H	 2.1886674756	 4.9348108501	-1.1606139598	 0.109479
H	 1.3151506141	 5.0324274802	 1.3059084623	 0.257742
80.1197	123.3069	166.9439	232.8136	346.1939	431.8828	471.0705	501.6717	607.483	655.1666	713.8065	733.6748	759.0709	815.8217	835.9526	940.0874	963.0764	979.4526	1039.4656	1056.3289	1066.1954	1089.9707	1096.1682	1135.517	1204.1067	1211.5513	1257.375	1313.6221	1363.8252	1383.2439	1411.7525	1417.3876	1481.469	1818.3514	1835.8835	2927.9606	3017.4939	3137.9006	3178.5415	3198.113	3228.7607	3626.3435
O=CC1C2CC2NC1=O	O=C[C@H]1[C@H]2C[C@H]2NC1=O	
InChI=1S/C6H7NO2/c8-2-4-3-1-5(3)7-6(4)9/h2-5H,1H2,(H,7,9)	InChI=1S/C6H7NO2/c8-2-4-3-1-5(3)7-6(4)9/h2-5H,1H2,(H,7,9)/t3-,4+,5-/m1/s1
