19
gdb 107462	2.13352	1.72224	1.31247	3.1165	70.8	-0.2506	0.0553	0.3059	1055.1329	0.156967	-460.119658	-460.11052	-460.109576	-460.153125	35.003	
C	-0.0348866644	 1.5625366326	 0.1171283665	-0.461175
C	 0.0170440529	 0.0470750703	 0.0515837442	 0.325189
O	-1.2830510854	-0.5304385557	-0.0562330124	-0.491497
C	 1.0656244687	-0.6097964653	-0.9293771073	-0.303953
C	 1.7210415062	-1.2610278808	 0.2940629486	-0.066789
O	 2.082501294	-0.2029875881	 1.2035886675	-0.295827
C	 0.7339352412	-0.6813071319	 1.2163203193	 0.41124
C	 0.0522390805	-1.149719542	 2.4769376544	-0.206176
O	-0.9969396319	-0.2716888705	 2.8507694855	-0.420461
H	 0.9671612796	 1.9634319137	 0.2839093189	 0.144643
H	-0.416139064	 1.9798441551	-0.8236767015	 0.102866
H	-0.6827902366	 1.8855364164	 0.936584924	 0.132801
H	-1.7494967685	-0.0933737598	-0.7768692397	 0.284252
H	 0.57306971	-1.3335566395	-1.5829610255	 0.109439
H	 1.7029098854	 0.0602089564	-1.5123565787	 0.104915
H	 2.2925239733	-2.1797464171	 0.3602422534	 0.106141
H	-0.3209045167	-2.1747121512	 2.3352423908	 0.102931
H	 0.7745138461	-1.1659487408	 3.2980611264	 0.129453
H	-1.6264083804	-0.2909813418	 2.1183938556	 0.292008
76.8986	132.0207	191.8639	212.4557	243.9844	302.6427	329.264	354.3774	438.8167	453.1758	465.9136	514.7122	532.0275	649.5216	703.5286	792.6419	847.0162	876.6682	942.8415	949.1327	959.4218	1008.8161	1028.6376	1066.8103	1095.489	1116.0804	1154.1499	1189.2489	1224.8456	1236.2755	1246.9227	1264.3601	1359.0586	1391.1544	1399.3172	1431.5219	1454.8955	1479.0758	1483.8892	1492.7334	1505.7056	2993.7129	3026.3116	3060.9358	3092.5692	3102.4485	3125.3408	3137.2539	3184.9289	3771.2662	3807.6934
CC1(O)CC2OC12CO	C[C@@]1(O)C[C@H]2O[C@@]12CO	
InChI=1S/C6H10O3/c1-5(8)2-4-6(5,3-7)9-4/h4,7-8H,2-3H2,1H3	InChI=1S/C6H10O3/c1-5(8)2-4-6(5,3-7)9-4/h4,7-8H,2-3H2,1H3/t4-,5-,6-/m1/s1
