19
gdb 81700	2.08458	1.88216	1.74842	1.1995	75.42	-0.243	0.016	0.259	948.0129	0.161503	-423.021129	-423.013713	-423.012769	-423.052546	30.17	
O	-0.2179058151	 1.5915282276	 0.2722684437	-0.431368
C	-0.0776568653	 0.2122275483	 0.1018004312	 0.078557
C	 0.2548607173	-0.726643762	 1.2927792608	 0.060555
C	-0.1483762855	-0.2138089173	 2.6672508231	-0.270706
C	-1.5509533063	 0.3225733999	 2.8079190502	-0.068627
C	-2.5589431442	 0.3288103101	 1.9281336131	-0.068622
C	-2.6129288235	-0.198536911	 0.5161479662	-0.270708
C	-1.309221668	-0.7169608086	-0.0723726689	 0.060556
O	-0.6805490166	-1.7058873962	 0.7789405019	-0.300343
H	-0.8446424248	 1.7428381578	 0.9914242944	 0.288589
H	 0.6343752189	 0.0748392363	-0.7149627331	 0.101087
H	 1.272622724	-1.1315844285	 1.3266181726	 0.076089
H	-0.0163339799	-1.0282564602	 3.3940633113	 0.124704
H	 0.5681328402	 0.5638497783	 2.9696912192	 0.117315
H	-1.7569813936	 0.7458157378	 3.790043054	 0.092407
H	-3.5012048918	 0.7566081991	 2.2676643993	 0.092407
H	-3.3566512589	-1.0075364147	 0.4785757139	 0.124702
H	-3.0039371882	 0.5860043294	-0.1480942528	 0.117317
H	-1.4831716188	-1.1145250561	-1.07867545	 0.076089
154.8932	205.5247	208.2467	327.0545	356.1237	397.5837	468.7164	481.8577	515.0577	603.245	686.9678	764.1331	804.1545	838.7094	873.8426	875.768	903.6126	966.4931	977.3802	993.8939	1006.424	1023.0865	1097.4526	1099.2613	1177.5633	1179.2831	1204.7562	1231.9604	1249.2341	1279.7281	1305.6614	1338.3583	1344.9559	1376.9493	1379.1963	1406.6007	1436.7296	1445.7603	1448.8582	1459.1319	1720.5506	3003.7451	3004.1789	3030.8012	3032.0249	3041.3931	3044.0613	3092.9471	3124.0359	3147.8542	3755.8356
OC1C2CC=CCC1O2	O[C@H]1[C@H]2CC=CC[C@@H]1O2	
InChI=1S/C7H10O2/c8-7-5-3-1-2-4-6(7)9-5/h1-2,5-8H,3-4H2	InChI=1S/C7H10O2/c8-7-5-3-1-2-4-6(7)9-5/h1-2,5-8H,3-4H2/t5-,6+,7+
