19
gdb 73298	2.81524	1.84399	1.31165	1.6987	74.56	-0.252	0.076	0.3281	982.7812	0.160051	-422.98982	-422.982217	-422.981273	-423.021098	31.698	
O	-0.0606652618	 1.3704762649	 0.0628183141	-0.487571
C	-0.0038032499	-0.0224113349	 0.0285231093	 0.455543
C	 0.921205556	-0.7264382414	 1.0284541462	-0.307688
C	 0.6019738367	-2.200293477	 0.6787703309	-0.307683
C	-0.4277350972	-1.9792520413	-0.4356801686	 0.455519
O	-0.9380738299	-3.1037183542	-1.0835020187	-0.487571
C	-1.3613933587	-0.770848393	-0.0481090363	-0.170336
C	-1.4629316516	-0.4104915939	-1.5526124931	-0.257786
C	 0.0223401777	-0.8013337691	-1.3406897319	-0.170336
H	 0.8257475695	 1.7114453289	-0.0975807329	 0.279675
H	 1.9736174496	-0.4691350571	 0.8619987251	 0.090147
H	 0.6720753863	-0.4581590583	 2.0594022402	 0.105163
H	 1.4685417536	-2.7607664431	 0.3156923005	 0.105166
H	 0.1766282817	-2.7543481421	 1.5235125784	 0.09015
H	-1.3636771669	-3.6627618947	-0.4246790371	 0.279673
H	-2.1466508997	-0.7600949637	 0.711372491	 0.061375
H	-2.0516377027	-1.087422737	-2.1722203087	 0.102584
H	-1.6582098899	 0.6375695935	-1.7810272888	 0.102602
H	 0.8336359072	-0.8244164365	-2.0720061294	 0.061374
217.2634	229.8712	275.361	291.3809	336.9069	346.5527	384.6863	460.3218	482.0179	589.9231	669.9651	688.4404	708.1211	710.7146	823.889	858.8872	915.9501	946.4012	983.548	999.0021	1009.7721	1028.6803	1091.5394	1093.837	1109.7322	1139.3136	1147.3755	1161.7893	1185.6924	1221.7521	1226.6347	1238.8384	1252.9535	1268.2408	1298.8284	1323.7156	1378.6493	1398.1757	1485.322	1497.3936	1510.3509	3034.2422	3041.6822	3077.9192	3078.7751	3082.6734	3094.3771	3095.3991	3151.4408	3804.6558	3805.1042
OC12CCC3(O)C1CC23	O[C@@]12CC[C@@]3(O)[C@@H]1C[C@@H]23	
InChI=1S/C7H10O2/c8-6-1-2-7(9)4(6)3-5(6)7/h4-5,8-9H,1-3H2	InChI=1S/C7H10O2/c8-6-1-2-7(9)4(6)3-5(6)7/h4-5,8-9H,1-3H2/t4-,5+,6+,7-
