22
gdb 101404	2.84094	1.02565	0.80724	2.4488	83.59	-0.2414	-0.0243	0.2172	1480.6483	0.192738	-404.3513	-404.341244	-404.3403	-404.386641	36.874	
C	 0.0457320175	 1.5457768193	 0.1726363221	-0.391476
C	-0.0607058762	 0.0203393725	 0.0801288621	-0.176145
C	-1.4957946984	-0.5073214884	-0.0930760181	 0.051107
C	-2.1482789513	-0.0809112764	-1.4157980068	-0.412302
C	-1.5098748482	-2.0362634979	 0.0206811047	-0.105244
N	-1.0637169908	-2.6027642095	 1.3299340412	-0.328109
C	-2.2692210129	-3.4635412429	 1.464235146	-0.2816
C	-2.8643486731	-2.7324111179	 0.2518090544	 0.384205
O	-3.9402583212	-2.6868329677	-0.266839824	-0.290374
H	 1.080637491	 1.8535467257	 0.3519901887	 0.111888
H	-0.28787437	 2.0368361137	-0.7464933988	 0.118224
H	-0.5628268797	 1.9337214148	 0.9972071019	 0.116327
H	 0.5553488429	-0.3412583416	-0.7560238617	 0.084586
H	 0.3558091946	-0.423914325	 0.9915889398	 0.106621
H	-2.0985566927	-0.1186084577	 0.7398106425	 0.074194
H	-3.1427972697	-0.5228852438	-1.5202930731	 0.143914
H	-2.2521040212	 1.0056879924	-1.4759649936	 0.116254
H	-1.543562622	-0.4057396114	-2.2716150164	 0.107789
H	-0.9966380287	-2.4752578979	-0.8510172745	 0.087765
H	-0.197520777	-3.1246102738	 1.2758033323	 0.224878
H	-2.1197471605	-4.5339423736	 1.2653771959	 0.123003
H	-2.8072426526	-3.3559452228	 2.4123929454	 0.134494
67.894	82.8507	120.4021	129.2233	218.6418	235.082	242.5817	290.5103	357.5578	367.7351	443.4753	507.234	557.4317	662.4207	760.1318	779.1567	815.6168	864.034	919.6254	972.3966	985.2465	991.6323	1012.9582	1034.5045	1051.4878	1090.8518	1095.9221	1149.3688	1174.5992	1183.8641	1223.7942	1255.3279	1298.5138	1305.56	1348.2829	1365.0674	1370.432	1386.8157	1410.1123	1415.7669	1474.5564	1487.3174	1496.784	1501.1984	1507.8931	1514.94	1903.9079	2968.6933	3000.7276	3011.7083	3013.5644	3030.9816	3034.3398	3059.5575	3069.5535	3099.1623	3099.8292	3108.5012	3123.8202	3551.2484
CCC(C)C1NCC1=O	CC[C@@H](C)[C@H]1NCC1=O	
InChI=1S/C7H13NO/c1-3-5(2)7-6(9)4-8-7/h5,7-8H,3-4H2,1-2H3	InChI=1S/C7H13NO/c1-3-5(2)7-6(9)4-8-7/h5,7-8H,3-4H2,1-2H3/t5-,7-/m1/s1
