27
gdb 60247	2.88813	0.88013	0.74276	0.1661	96.19	-0.2747	0.0792	0.3538	1693.4257	0.25128	-353.560697	-353.549856	-353.548912	-353.596817	41.029	
C	 0.0373491198	 1.5769673396	-0.1121475297	-0.388978
C	 0.06853579	 0.0503381908	 0.0476691243	 0.039651
C	 0.8711510995	-0.3378427278	 1.2978861223	-0.377749
C	-1.3643036035	-0.5194360573	 0.0524702762	-0.199735
C	-1.47795049	-2.0387833244	-0.0545681794	 0.041145
C	-1.2440937733	-2.9636595041	 1.176669286	-0.220352
C	-2.4038756147	-3.8652739242	 0.6803980698	-0.232627
C	-2.8924359547	-2.6973410158	-0.2263740886	 0.000898
C	-4.0695797546	-1.9220285689	 0.362212597	-0.390708
H	 1.0498128424	 1.9928265101	-0.1515957093	 0.106505
H	-0.4842366368	 1.8736776026	-1.0282622295	 0.107001
H	-0.4805489711	 2.0483399385	 0.7321102193	 0.109906
H	 0.5866011587	-0.3671629194	-0.8285334906	 0.067794
H	 1.8765125118	 0.0957795718	 1.2654095324	 0.105331
H	 0.3811927406	 0.0343614858	 2.2060262914	 0.107658
H	 0.9797135114	-1.4204531534	 1.3982727535	 0.117995
H	-1.88505069	-0.1660334993	 0.9535678079	 0.085916
H	-1.9042297275	-0.0792424837	-0.797878119	 0.087274
H	-0.8408559892	-2.3800354064	-0.8806949149	 0.063694
H	-0.2603102188	-3.4269556838	 1.2857968473	 0.09339
H	-1.4872479106	-2.458576631	 2.1167538377	 0.097493
H	-2.0423144519	-4.718199838	 0.0991814928	 0.095266
H	-3.110705336	-4.2333712706	 1.4297095242	 0.089921
H	-3.1328121311	-2.9787378132	-1.257076598	 0.05938
H	-3.8954469391	-1.6460825708	 1.4081381947	 0.112175
H	-4.2705892812	-1.0009907218	-0.1950061163	 0.112482
H	-4.97861185	-2.5329259451	 0.3325391588	 0.109274
39.2102	94.5505	122.9736	143.9377	224.0627	235.2928	251.3446	258.1117	297.4514	344.5591	356.4873	417.5365	431.2218	501.3311	679.6759	768.3734	808.1047	821.0607	859.4062	886.1745	914.2781	925.3514	941.5283	958.7389	966.7126	976.5262	1014.8349	1054.453	1072.2234	1124.8564	1141.5328	1168.9229	1191.7909	1193.9102	1216.9307	1245.811	1264.1186	1273.9414	1279.2774	1285.4939	1323.438	1365.5322	1368.2599	1372.0357	1392.934	1398.9918	1411.5621	1420.8316	1475.6521	1481.4414	1487.8853	1494.2879	1497.267	1500.4104	1502.3824	1505.0214	1511.3488	2990.6188	2998.6738	3013.002	3021.4359	3026.2114	3028.4128	3037.0639	3041.1104	3048.222	3055.5409	3084.2941	3090.1149	3090.5538	3092.1277	3094.945	3096.48	3109.3754	3119.4841
CC(C)CC1CCC1C	CC(C)C[C@H]1CC[C@H]1C	
InChI=1S/C9H18/c1-7(2)6-9-5-4-8(9)3/h7-9H,4-6H2,1-3H3	InChI=1S/C9H18/c1-7(2)6-9-5-4-8(9)3/h7-9H,4-6H2,1-3H3/t8-,9-/m1/s1
