21
gdb 77377	2.3887	1.63965	1.32927	1.1427	82.02	-0.2327	0.0728	0.3055	1084.4715	0.181117	-387.049306	-387.040302	-387.039358	-387.08219	35.345	
C	-0.0050687488	 1.6386240711	 0.0537204055	-0.435518
C	 0.092191096	 0.117801793	 0.0044048418	-0.085561
C	 0.7900545991	-0.602006861	-1.1569872076	 0.350294
C	 0.3185540204	-0.6916266828	-2.5784406222	-0.508753
C	 2.2818451687	-0.7250963582	-0.7817079074	-0.109597
C	 2.4911630264	-0.1077555358	 0.600212251	-0.310923
C	 1.0786396166	-0.6753010638	 0.9228299266	 0.369798
O	 0.7207296221	-1.0648715349	 2.2060031433	-0.482503
C	 1.2651451277	-1.7122502282	-0.2511992474	-0.186427
H	 0.9562967269	 2.1209480166	-0.1453165443	 0.118741
H	-0.7166494296	 2.0067259895	-0.6935755305	 0.117257
H	-0.3603902687	 1.9829033849	 1.0327377467	 0.105078
H	-0.9008792113	-0.3286248466	 0.140218854	 0.069991
H	 0.3681557882	 0.2819099563	-3.0805791203	 0.118523
H	 0.9345678622	-1.3902366719	-3.1553672425	 0.117732
H	-0.7186727995	-1.0419972267	-2.6325119032	 0.117232
H	 3.0267228366	-0.9016985188	-1.547588657	 0.081539
H	 3.2512304602	-0.6574106205	 1.1628769085	 0.101739
H	 2.6638435096	 0.9702708872	 0.6963525466	 0.081369
H	 0.6883540385	-0.2796505535	 2.7639741189	 0.27954
H	 1.1903028886	-2.7883972861	-0.3057862905	 0.090452
155.9872	168.4775	183.4406	199.1922	209.5353	263.6042	282.8386	355.1541	392.0881	501.873	559.4918	581.1988	635.087	696.2293	765.4461	813.5618	838.9039	873.1653	891.4454	932.4316	955.6131	981.8544	1018.2728	1046.7407	1074.896	1083.891	1108.4079	1128.8224	1141.8678	1165.0201	1180.5468	1223.0976	1247.5966	1272.6388	1299.7596	1368.9535	1381.9375	1406.445	1413.6061	1438.3262	1487.9631	1491.613	1492.9171	1499.4824	1512.2127	3019.439	3024.4896	3031.0802	3034.6126	3078.6683	3083.6486	3089.4781	3095.3933	3108.5997	3190.1718	3225.5845	3798.4728
CC1C2(C)C3CC1(O)C23	C[C@H]1[C@@]2(C)[C@H]3C[C@]1(O)[C@@H]23	
InChI=1S/C8H12O/c1-4-7(2)5-3-8(4,9)6(5)7/h4-6,9H,3H2,1-2H3	InChI=1S/C8H12O/c1-4-7(2)5-3-8(4,9)6(5)7/h4-6,9H,3H2,1-2H3/t4-,5-,6+,7-,8+/m0/s1
