20
gdb 5938	4.26383	1.13292	1.12426	1.7133	76.51	-0.2587	0.0501	0.3088	1153.0022	0.173352	-348.974099	-348.964042	-348.963098	-349.008208	37.04	
C	-0.0572622583	 1.569654511	 0.0813236429	-0.40746
C	-0.0007315188	 0.0333248891	 0.0657242867	 0.248579
C	 0.7112263251	-0.488417346	 1.3245446187	-0.407452
C	-1.427060869	-0.5371135506	 0.0030268134	-0.085953
O	-2.1459322067	-0.112357758	 1.1506758158	-0.426735
C	 0.732572838	-0.4653960981	-1.2131383229	-0.38328
C	 2.1154179635	-0.0188682124	-1.328604604	 0.310783
C	 3.2558147724	 0.3509736744	-1.4210125565	-0.44712
H	 0.9498813611	 1.9936876964	 0.115301776	 0.123207
H	-0.5545306695	 1.9545258804	-0.8167354605	 0.10143
H	-0.6168818645	 1.9197341187	 0.9513824588	 0.130517
H	 0.1683626428	-0.1826221144	 2.2214947794	 0.1305
H	 0.7662879669	-1.5833454565	 1.3205134875	 0.101416
H	 1.7320742386	-0.1010552149	 1.3804157717	 0.123211
H	-1.9189925372	-0.1878527021	-0.9200420465	 0.080221
H	-1.3776320333	-1.6377171511	-0.0443501626	 0.08022
H	-3.0345947373	-0.4751656205	 1.1018758362	 0.288426
H	 0.7111653473	-1.5635737496	-1.2338108885	 0.123389
H	 0.1762128035	-0.1307233192	-2.0993282505	 0.123392
H	 4.2633587256	 0.6739422235	-1.5087829152	 0.192709
80.0761	120.3689	133.6158	223.7437	227.4402	241.471	255.0102	320.5756	334.4802	354.8825	390.7209	407.2398	425.289	605.3236	611.1186	635.5489	752.8713	883.6224	896.7318	940.8828	966.2252	977.7053	997.2668	1061.7005	1087.1739	1179.2355	1193.4177	1221.8662	1246.2726	1283.3833	1333.1201	1347.3261	1398.2483	1412.3558	1461.1526	1468.4383	1485.1522	1491.7043	1499.1437	1514.3095	1520.8159	2234.9774	2952.5915	2983.5807	3006.5206	3032.5043	3037.4798	3039.8628	3102.4766	3105.6025	3130.9444	3134.8403	3506.8612	3837.5215
CC(C)(CO)CC#C	CC(C)(CO)CC#C	
InChI=1S/C7H12O/c1-4-5-7(2,3)6-8/h1,8H,5-6H2,2-3H3	InChI=1S/C7H12O/c1-4-5-7(2,3)6-8/h1,8H,5-6H2,2-3H3
