13
gdb 130843	2.78507	1.32465	0.89769	1.4259	71.01	-0.269	-0.098	0.1709	1172.0843	0.090276	-452.787445	-452.779908	-452.778964	-452.820061	26.451	
O	 0.0939170931	-0.0752509345	-0.0024303698	-0.2807
C	 0.0083244319	 1.1338110549	 0.0093927365	 0.093343
C	 1.1864392197	 2.0023620162	 0.0036894901	 0.219
C	 1.3726486226	 3.3901117985	 0.0139554562	 0.003609
C	 0.3621936894	 4.448468912	 0.0349715616	 0.073392
O	 0.6270671772	 5.6292664492	 0.0415312629	-0.265918
C	 2.7776847884	 3.5520053402	-0.000660165	-0.051726
N	 3.4078804992	 2.3805741415	-0.01828318	-0.193406
N	 2.4284952305	 1.4667415268	-0.0152570414	-0.230907
H	-0.9697401253	 1.6511054801	 0.0251131053	 0.10332
H	-0.6934614125	 4.1009017622	 0.0430334074	 0.074395
H	 3.3340808261	 4.4762433311	 0.0012361154	 0.157217
H	 2.6401522498	 0.4799015318	-0.0264638192	 0.29838
111.7068	143.3714	170.0637	223.9597	224.751	309.6271	418.4608	563.7382	635.9819	681.3968	716.5969	752.0555	820.8948	917.4026	966.2096	1020.6799	1035.1973	1130.6287	1163.7856	1225.8445	1315.0717	1387.4435	1392.0998	1427.9063	1465.0125	1491.3838	1590.5563	1775.3776	1789.7511	2891.4298	2954.2657	3271.7137	3642.2566
O=CC1=C(C=O)C=NN1	O=Cc1c(C=O)cn[nH]1	
InChI=1S/C5H4N2O2/c8-2-4-1-6-7-5(4)3-9/h1-3H,(H,6,7)	InChI=1S/C5H4N2O2/c8-2-4-1-6-7-5(4)3-9/h1-3H,(H,6,7)
