19
gdb 15250	2.76456	1.57368	1.21722	3.7416	73.51	-0.2442	0.0112	0.2555	1075.9429	0.163894	-365.066362	-365.05723	-365.056286	-365.100184	32.347	
C	-0.338627702	 1.4985591552	-0.3145023349	-0.382584
C	 0.0051192995	 0.0268188916	-0.0501182774	-0.202203
C	 0.9203438628	-0.5621052979	-1.1039638247	-0.016266
C	 1.0278662905	-2.0469550123	-1.3880064546	-0.018966
C	 0.2227099392	-3.1015772987	-0.6640203029	-0.407257
N	 0.4105198441	-1.1439087092	-2.3334437759	-0.067046
C	-0.8621479089	-1.1818152678	-2.8469542414	 0.138497
O	-1.4341290988	-2.1824563588	-3.2158333058	-0.310545
H	 0.5676327298	 2.1096988384	-0.3833641034	 0.121408
H	-0.8911555472	 1.6188174547	-1.2517538436	 0.126524
H	-0.9554791847	 1.9054196832	 0.4920378636	 0.120972
H	 0.5097942641	-0.0581703166	 0.9209911749	 0.110532
H	-0.9150933816	-0.5611414596	 0.023367469	 0.111026
H	 1.8340127367	 0.0164428818	-1.2513031795	 0.096416
H	 2.0109096762	-2.3922513093	-1.7088935779	 0.100648
H	-0.7328346236	-2.7219048875	-0.2985029367	 0.129319
H	 0.0053752689	-3.9344656713	-1.3375729826	 0.150699
H	 0.7937461226	-3.4840857347	 0.1882516438	 0.119381
H	-1.2884047177	-0.1661779912	-2.9669716202	 0.079444
93.3442	110.2456	144.956	156.0165	185.5786	224.0577	263.4552	292.0233	399.1005	487.1085	523.8268	621.1498	761.9541	815.7259	820.6725	884.5505	991.5181	1001.7338	1031.8809	1059.4066	1076.8672	1109.6116	1137.4808	1167.5042	1187.7167	1200.4096	1292.5462	1341.5524	1384.5844	1401.7945	1413.4855	1420.0666	1426.4992	1464.5955	1474.5829	1487.95	1497.0469	1499.9458	1505.9687	1785.3666	2935.4692	3028.049	3037.4792	3048.5615	3074.8992	3090.4796	3102.5241	3108.9688	3112.4711	3118.1471	3140.0681
CCC1C(C)N1C=O	CC[C@H]1[C@@H](C)N1C=O	
InChI=1S/C6H11NO/c1-3-6-5(2)7(6)4-8/h4-6H,3H2,1-2H3	InChI=1S/C6H11NO/c1-3-6-5(2)7(6)4-8/h4-6H,3H2,1-2H3/t5-,6+,7?/m1/s1
