21
gdb 115900	3.2375	1.31926	1.18069	1.1831	77.69	-0.2337	0.0855	0.3192	1151.371	0.183875	-424.212724	-424.204551	-424.203607	-424.245449	31.965	
C	-0.0736232481	 1.5735961491	 0.021637266	-0.384539
C	-0.1482236281	 0.0480957993	-0.0711369303	-0.184799
C	 0.7291960154	-0.5246926356	-1.1882983809	 0.138606
O	 2.1039111858	-0.1258275313	-1.0466542917	-0.291035
C	 2.9528577561	-1.0459312786	-0.3625218837	-0.075257
C	 2.4948944573	-2.4764302755	-0.6057672585	 0.076351
C	 1.8826085905	-2.6101799548	-2.0150462694	-0.254509
C	 0.6516918891	-2.0495046672	-1.2752231973	 0.058153
O	 1.1627925174	-2.5964217173	-0.021811886	-0.300424
H	 0.9584109411	 1.8987757316	 0.1758644288	 0.130695
H	-0.4368411338	 2.04615656	-0.8982058223	 0.108621
H	-0.6808917487	 1.9481316769	 0.8511235347	 0.108389
H	 0.1519781185	-0.4127694319	 0.875378473	 0.1144
H	-1.1839792981	-0.2676872375	-0.2556169587	 0.089071
H	 0.4147966219	-0.0997101308	-2.1525973156	 0.077974
H	 3.9642847115	-0.875851624	-0.7503656058	 0.104772
H	 2.9583178914	-0.8557326775	 0.7210704136	 0.102306
H	 3.1935642134	-3.226723066	-0.2261417373	 0.079831
H	 2.3130159392	-2.0220880362	-2.8269526793	 0.112633
H	 1.7476824936	-3.6520146476	-2.3067568589	 0.11012
H	-0.3515751153	-2.412472245	-1.5141186506	 0.078641
91.8697	130.3986	170.1726	228.3132	298.8639	360.133	380.7865	443.2806	472.7575	599.7522	683.0592	755.6078	834.5672	846.3627	867.3338	895.9895	907.8505	927.1158	953.3381	982.875	1005.2651	1042.9224	1062.5937	1075.7644	1103.9261	1108.3067	1146.1167	1175.3168	1210.5879	1250.5532	1252.2421	1283.7456	1297.1831	1328.6645	1333.372	1353.1081	1363.3473	1392.8144	1402.3881	1411.5633	1480.844	1484.0167	1495.7006	1498.6225	1510.0194	2995.1711	3005.3469	3022.3187	3035.3884	3058.1148	3074.9148	3078.0932	3079.8897	3088.8063	3102.4437	3122.8967	3149.0701
CCC1OCC2CC1O2	CC[C@H]1OC[C@@H]2C[C@H]1O2	
InChI=1S/C7H12O2/c1-2-6-7-3-5(9-7)4-8-6/h5-7H,2-4H2,1H3	InChI=1S/C7H12O2/c1-2-6-7-3-5(9-7)4-8-6/h5-7H,2-4H2,1H3/t5-,6+,7+/m0/s1
