20
gdb 22219	3.32213	0.84089	0.72576	0.8545	84.68	-0.2452	0.0118	0.257	1577.3303	0.166681	-403.085232	-403.074375	-403.07343	-403.12151	39.149	
C	-0.8998889594	 0.9465069103	 0.2153405608	-0.396822
C	 0.0588288517	-0.2292674938	-0.0562143671	-0.06639
C	 1.0134185303	 0.0804654609	-1.2329221272	-0.373093
C	 0.3068732711	 0.2739628368	-2.4934481866	 0.293945
C	-0.2897907792	 0.4226417951	-3.5269259015	-0.4309
C	 0.8009672306	-0.6121153883	 1.2076310421	 0.34945
C	 0.0278492511	-1.2010433142	 2.3588553487	-0.470662
N	 2.0614163903	-0.4057443012	 1.2387593856	-0.151781
O	 2.6218914924	-0.7769030999	 2.4721751983	-0.415468
H	-0.3366646605	 1.8386736537	 0.5093402627	 0.123024
H	-1.4711437596	 1.1814724449	-0.6862192848	 0.137139
H	-1.6065907091	 0.7137424834	 1.0169223779	 0.116745
H	-0.5521746056	-1.096460495	-0.3435019185	 0.09561
H	 1.6062890157	 0.9704065994	-0.993279774	 0.139639
H	 1.7361503607	-0.7359069167	-1.3347542578	 0.137681
H	-0.8029340432	 0.5571935139	-4.4464902554	 0.19006
H	 0.0104351512	-0.5094377686	 3.2080693768	 0.147455
H	-1.0004544232	-1.4315492382	 2.0741895912	 0.120193
H	 0.5188817022	-2.1126827102	 2.711277598	 0.149725
H	 3.5564524224	-0.5912634021	 2.3331300209	 0.304449
55.5982	70.8437	98.5261	125.9684	194.7113	214.0386	253.0409	305.196	327.9291	355.4431	376.2576	412.414	442.2146	513.781	571.0933	612.823	639.6831	661.7842	801.1426	868.9164	896.2041	968.7524	978.8086	1017.3826	1025.6339	1076.8769	1096.0672	1124.389	1209.1228	1257.0264	1296.2001	1336.2201	1375.4521	1396.352	1399.1546	1408.3577	1462.0938	1473.3876	1481.423	1500.1015	1502.7847	1726.8049	2235.4119	3009.9234	3039.0195	3044.0245	3046.0967	3079.446	3103.1676	3108.9146	3124.6647	3135.0523	3507.1002	3821.516
CC(CC#C)C(C)=NO	C[C@@H](CC#C)C(=NO)C	
InChI=1S/C7H11NO/c1-4-5-6(2)7(3)8-9/h1,6,9H,5H2,2-3H3	InChI=1S/C7H11NO/c1-4-5-6(2)7(3)8-9/h1,6,9H,5H2,2-3H3/t6-/m0/s1
