19
gdb 6973	2.58328	2.24185	1.67692	1.8291	70.76	-0.2433	0.0282	0.2714	886.9761	0.164953	-365.094861	-365.086515	-365.08557	-365.1277	31.548	
C	 0.1591821228	 1.5915502935	-0.259772641	-0.393541
C	-0.0045998636	 0.1055122306	 0.0640365392	-0.009653
N	 0.4510228147	-0.7119825748	-1.0788357028	-0.274924
C	 1.3742384983	-1.4555992456	-0.6322352491	 0.105168
O	 1.7245492611	-1.4031977546	 0.6691206588	-0.251635
C	 0.7925790999	-0.4577071071	 1.2999325914	 0.350848
C	 1.6375422542	 0.5425716369	 2.0806483076	-0.427633
C	-0.1148491306	-1.2695027665	 2.2226741494	-0.419647
H	 1.2038496204	 1.8470191309	-0.45858382	 0.120852
H	-0.4166007949	 1.8262419186	-1.1586418162	 0.131045
H	-0.2053933199	 2.2229823997	 0.5564945666	 0.110452
H	-1.0732894983	-0.0893739968	 0.216757897	 0.083348
H	 1.9453812039	-2.1654507971	-1.2219570028	 0.133806
H	 2.3275595455	 1.0793058139	 1.4260886554	 0.126208
H	 1.0025778208	 1.2743886199	 2.5884728385	 0.120727
H	 2.2262439466	 0.0194042894	 2.8396960995	 0.124807
H	 0.4678450958	-1.7816158549	 2.9938483807	 0.122715
H	-0.8380126672	-0.6107107559	 2.7149811402	 0.118897
H	-0.6702173295	-2.0197540203	 1.6520545176	 0.128159
33.2808	209.6999	250.5529	259.7838	271.9341	304.0837	324.9739	345.1023	415.5591	513.1621	571.9156	625.9521	741.2378	804.8787	859.2841	927.8445	936.1726	966.96	970.4461	1009.8134	1048.9066	1089.4422	1114.3151	1147.4021	1201.5521	1224.2218	1266.8164	1308.4117	1338.4765	1374.743	1402.6416	1406.8218	1421.999	1473.5124	1481.5764	1485.5565	1496.5388	1501.0826	1511.3906	1705.958	3021.7702	3036.0786	3041.01	3049.1954	3108.3276	3112.4572	3115.3477	3119.1012	3122.7875	3131.7935	3204.0921
CC1N=COC1(C)C	C[C@H]1N=COC1(C)C	
InChI=1S/C6H11NO/c1-5-6(2,3)8-4-7-5/h4-5H,1-3H3	InChI=1S/C6H11NO/c1-5-6(2,3)8-4-7-5/h4-5H,1-3H3/t5-/m1/s1
