21
gdb 106966	3.49041	1.05176	0.98676	3.0256	78.93	-0.242	0.0718	0.3139	1324.932	0.17954	-424.197713	-424.187993	-424.187049	-424.231948	36.913	
C	 0.0449331106	 1.5086963989	-0.3240559072	-0.378472
C	 0.03105727	 0.0368091793	 0.1120229541	-0.302441
C	-1.3578054663	-0.4977743874	 0.2749143317	 0.447963
C	-2.4017058631	-0.1681935794	 1.3588956784	-0.376099
C	-2.9570991856	-1.6408042856	 1.1858782296	 0.40341
C	-2.6690876912	-2.5331835641	 2.3898827518	-0.453749
O	-4.284820946	-1.7857016005	 0.7365211304	-0.472531
C	-1.9363436272	-1.8375674251	 0.0558609489	-0.088523
O	-2.1186684406	-0.7963816333	-0.9063258751	-0.289374
H	 1.0700795536	 1.8715076076	-0.4420289689	 0.113313
H	-0.4740391335	 1.6315367743	-1.2790709187	 0.136572
H	-0.4535484109	 2.1457964682	 0.4140106425	 0.119065
H	 0.5541120379	-0.5779702639	-0.6288862368	 0.11081
H	 0.5688835457	-0.0765180618	 1.0618879941	 0.09973
H	-1.9874113248	 0.0231527109	 2.3525378196	 0.096872
H	-3.1016162984	 0.6215078005	 1.0790690947	 0.107673
H	-3.2768558388	-2.2274230012	 3.2502031705	 0.110728
H	-2.9094743717	-3.5744859002	 2.1532456176	 0.126733
H	-1.618329451	-2.4784191763	 2.691195174	 0.119963
H	-4.8728037301	-1.6412522228	 1.4857018084	 0.276225
H	-1.4924145587	-2.7658787181	-0.2903783699	 0.092132
73.4973	100.3001	173.1877	217.5714	246.0421	255.2281	263.4295	327.4954	341.3406	402.6832	440.8755	452.6751	574.5722	620.8723	692.8375	769.5902	804.3219	861.9278	906.708	928.6378	946.6306	953.5471	973.5802	1017.673	1048.8204	1073.5732	1114.9257	1143.101	1154.1813	1198.3724	1220.9057	1244.9197	1260.7437	1316.6956	1348.6516	1384.3064	1404.5379	1408.6642	1448.3132	1470.3498	1478.7382	1489.5848	1496.9223	1498.5606	1510.441	3024.6753	3026.9095	3039.2808	3061.3729	3069.8704	3091.8771	3108.4029	3110.9845	3118.6122	3127.0574	3166.0554	3803.3913
CCC12CC(C)(O)C1O2	CC[C@]12C[C@@](C)(O)[C@H]1O2	
InChI=1S/C7H12O2/c1-3-7-4-6(2,8)5(7)9-7/h5,8H,3-4H2,1-2H3	InChI=1S/C7H12O2/c1-3-7-4-6(2,8)5(7)9-7/h5,8H,3-4H2,1-2H3/t5-,6-,7+/m1/s1
