15
gdb 19279	3.36482	1.75686	1.2992	2.6311	61.63	-0.2505	-0.0314	0.2191	917.0134	0.118514	-399.756113	-399.748759	-399.747815	-399.788077	27.03	
O	 0.9624746105	-0.9871161177	 0.5916059113	-0.412456
C	 0.17874539	-0.012411243	-0.0723804607	-0.086531
C	-1.297144749	-0.3653710634	-0.0278706544	-0.102378
N	-1.9851010363	-0.3193136732	 1.325688926	-0.139035
C	-2.0705216402	 1.0910908555	 1.6987018072	-0.247105
C	-3.0797669495	 0.5657533203	 0.7346251004	-0.152521
C	-2.4369878207	 0.4977268869	-0.6229882073	 0.387687
O	-2.7694477444	 0.7994379223	-1.7309491068	-0.303921
H	 0.6124612431	-1.0813596115	 1.4845122477	 0.29524
H	 0.3627433958	 0.9939358828	 0.3327278318	 0.093307
H	 0.506016752	-0.0023741222	-1.1169001744	 0.134139
H	-1.4195743385	-1.3829349999	-0.4180717275	 0.131359
H	-2.4142445923	 1.2515002939	 2.7158551096	 0.14163
H	-1.3173922011	 1.7977257926	 1.3605616419	 0.131768
H	-4.1309630695	 0.4626904767	 0.9767967651	 0.128816
78.875	149.1068	170.3943	295.2747	302.8605	361.1727	499.161	543.0484	627.2875	673.972	747.2693	787.2892	868.0727	896.2077	976.3551	1033.0245	1046.4315	1059.881	1100.2969	1101.2764	1124.2194	1146.9774	1204.2282	1219.9669	1229.9415	1300.8429	1321.4267	1388.1435	1419.7711	1493.3403	1509.8815	1895.4717	2992.2728	3052.9245	3084.0501	3116.9961	3191.9333	3206.2223	3805.9797
OCC1N2CC2C1=O	OC[C@H]1N2C[C@H]2C1=O	
InChI=1S/C5H7NO2/c7-2-4-5(8)3-1-6(3)4/h3-4,7H,1-2H2	InChI=1S/C5H7NO2/c7-2-4-5(8)3-1-6(3)4/h3-4,7H,1-2H2/t3-,4+,6?/m0/s1
