19
gdb 70087	2.2026	1.86353	1.46298	1.2929	75.9	-0.2237	0.0084	0.2321	995.3692	0.158127	-423.019593	-423.010999	-423.010054	-423.05197	34.416	
C	-0.1215852958	 1.5690024639	-0.0754993145	-0.465845
C	 0.0377560648	 0.0490730981	-0.0807819027	 0.263333
O	-1.2639695178	-0.5728975078	-0.1499586895	-0.479076
C	 0.8822153821	-0.4879246852	-1.217150086	-0.112634
C	 1.854684706	-1.2967618071	-0.7878317347	-0.081487
C	 1.8743210608	-1.4162989659	 0.6960936442	-0.174018
C	 2.1682221888	-0.1166228143	 1.4527074798	-0.333654
C	 0.7564536901	-0.505743475	 1.1744785412	 0.406542
O	-0.0575016862	-0.7866384221	 2.2624706806	-0.479924
H	 0.8475002581	 2.072439124	-0.065274541	 0.131061
H	-0.6701523218	 1.901404208	-0.9631172358	 0.119863
H	-0.6713185572	 1.8850488475	 0.8197892832	 0.122744
H	-1.913406305	 0.069373643	 0.1547850227	 0.283592
H	 0.6802862978	-0.2202815804	-2.2476686812	 0.095088
H	 2.5788615638	-1.7898069817	-1.4275306696	 0.099927
H	 2.1047565755	-2.356867784	 1.1827016973	 0.093856
H	 2.4772131582	-0.2208921056	 2.4880382575	 0.121299
H	 2.6355097787	 0.7003042864	 0.9121512378	 0.110024
H	-0.8203247911	-1.2462069117	 1.8841061007	 0.279311
123.3214	175.5358	223.7175	242.9979	298.5641	305.6108	364.7422	383.9944	447.1356	487.5256	546.5375	578.9586	609.6084	649.8425	755.9927	775.7227	827.158	872.186	925.311	935.8648	950.7507	962.5777	985.1548	1043.9437	1065.189	1072.8153	1089.1643	1129.1895	1138.6099	1178.5281	1237.8626	1269.4709	1334.5427	1354.1147	1395.5227	1403.0869	1426.2069	1483.6834	1492.7193	1493.9811	1662.6004	3025.2901	3092.9986	3121.0822	3125.2952	3177.6745	3185.8613	3209.6461	3213.9131	3745.4265	3812.2988
CC1(O)C=CC2CC12O	C[C@@]1(O)C=C[C@H]2C[C@@]12O	
InChI=1S/C7H10O2/c1-6(8)3-2-5-4-7(5,6)9/h2-3,5,8-9H,4H2,1H3	InChI=1S/C7H10O2/c1-6(8)3-2-5-4-7(5,6)9/h2-3,5,8-9H,4H2,1H3/t5-,6+,7-/m0/s1
