22
gdb 64441	2.17022	1.62111	1.21106	3.1398	81.72	-0.2207	-0.0114	0.2093	1146.5885	0.194748	-404.376812	-404.367548	-404.366604	-404.41034	35.87	
C	 0.062849811	 1.5397218791	-0.0295397142	-0.418309
C	 0.0114540937	 0.0067543002	-0.003497023	 0.156685
C	-1.4671043099	-0.4495706452	 0.0820297196	-0.421864
C	 0.6897803045	-0.5750028754	-1.2699649828	-0.20021
C	 0.9965098469	-2.0698410871	-1.1709513969	-0.179953
N	 1.8457395923	-2.2960355296	-0.0054507282	-0.294974
C	 1.1589276776	-1.980927456	 1.2445943954	-0.268008
C	 0.7105027993	-0.5185759215	 1.263525711	 0.404029
O	 0.8518103443	 0.1618302842	 2.2526387383	-0.319549
H	 1.0960127324	 1.8982901887	-0.0620830262	 0.118237
H	-0.4595481805	 1.9201414691	-0.9138212634	 0.103283
H	-0.404529688	 1.9614955709	 0.862617003	 0.130277
H	-2.0192620569	-0.0653999744	-0.7824497419	 0.11882
H	-1.5742660601	-1.5375680941	 0.0889995366	 0.117506
H	-1.9395530675	-0.0581578427	 0.9879651998	 0.130442
H	 0.0520579886	-0.3764428675	-2.1398132974	 0.091817
H	 1.6371384831	-0.0493354194	-1.434936457	 0.107832
H	 0.0571220606	-2.6543033862	-1.1374673385	 0.079499
H	 1.5399069312	-2.3930832133	-2.0647977703	 0.101973
H	 2.1744113448	-3.2547329932	 0.0171458186	 0.2233
H	 0.2562982064	-2.60316916	 1.4175731213	 0.095332
H	 1.8295728761	-2.1307800266	 2.0936817762	 0.123836
72.1813	150.9999	196.3591	225.1972	238.4434	295.4613	317.4664	346.7913	379.7002	432.3657	443.5984	511.7539	556.1703	646.8968	695.6056	790.3983	822.0555	886.3376	935.4038	949.523	965.5667	995.1637	1015.9	1033.6844	1054.8519	1138.266	1162.6175	1175.9534	1193.2881	1226.3833	1236.6811	1288.5737	1300.9785	1333.0331	1374.3826	1393.9616	1415.2439	1419.4365	1472.1514	1476.0714	1483.94	1485.0458	1487.9467	1497.5098	1505.5142	1514.8874	1811.7016	2887.347	2918.887	3027.4758	3033.5418	3039.9326	3066.5869	3073.7991	3101.7561	3102.8793	3106.2119	3114.9658	3130.2428	3529.2343
CC1(C)CCNCC1=O	CC1(C)CCNCC1=O	
InChI=1S/C7H13NO/c1-7(2)3-4-8-5-6(7)9/h8H,3-5H2,1-2H3	InChI=1S/C7H13NO/c1-7(2)3-4-8-5-6(7)9/h8H,3-5H2,1-2H3
