16
gdb 16448	4.28138	1.99853	1.76137	2.7617	63.79	-0.2399	0.0574	0.2972	792.6232	0.130173	-383.669578	-383.662917	-383.661973	-383.700083	26.027	
C	-0.1139878054	 1.5171858103	 0.0365421122	-0.512479
C	 0.149081383	 0.0479244479	 0.0034176344	 0.410455
O	-0.7361638197	-0.8192073126	 0.7196761102	-0.267592
C	 0.6628483321	-0.9249100634	 0.9976162373	-0.066299
C	 1.2948625299	-1.8137234336	-0.1011641512	-0.125642
C	 0.3463110028	-2.8043105302	-0.8170870384	-0.08236
O	-0.0788885356	-1.783165594	-1.7593360766	-0.285363
C	 0.7768005788	-0.8072197629	-1.1515075589	 0.043173
H	 0.7612017682	 2.0778311563	-0.3074370623	 0.124929
H	-0.9561287288	 1.7722254442	-0.6166105224	 0.139579
H	-0.3601988047	 1.8392375562	 1.0520598945	 0.135306
H	 0.9729680835	-0.796300523	 2.0291124141	 0.10383
H	 2.3481287391	-2.0641459596	 0.0072324746	 0.086512
H	 0.8564440232	-3.6246236682	-1.3346615475	 0.09956
H	-0.4887697238	-3.1889361882	-0.2254533911	 0.117771
H	 1.4101085975	-0.2649274992	-1.859316619	 0.07862
173.4883	193.2437	250.6875	276.5551	345.4123	493.9106	570.7698	651.931	731.3894	807.7852	823.0316	843.6164	876.2147	898.9295	965.9281	973.3898	998.1293	1025.719	1046.1348	1075.0035	1098.8346	1157.8154	1167.6568	1186.7691	1225.0641	1256.2532	1279.6042	1291.9808	1354.6149	1403.2501	1454.612	1481.5381	1491.2132	1503.6653	3032.0729	3034.0104	3072.4231	3096.0311	3097.8818	3119.1804	3137.7984	3175.9802
CC12OC1C1COC21	C[C@]12O[C@H]1[C@H]1CO[C@@H]21	
InChI=1S/C6H8O2/c1-6-4-3(2-7-4)5(6)8-6/h3-5H,2H2,1H3	InChI=1S/C6H8O2/c1-6-4-3(2-7-4)5(6)8-6/h3-5H,2H2,1H3/t3-,4+,5-,6+/m0/s1
