21
gdb 99849	2.03937	1.2615	1.19203	4.4439	78.61	-0.2343	0.0267	0.261	1234.555	0.182575	-416.581659	-416.570831	-416.569887	-416.616774	40.22	
C	 0.0870132621	 1.5464724359	-0.0606766406	-0.415978
C	 0.0249004362	 0.0181907152	 0.0836800371	 0.00218
N	 0.631022987	-0.4869915061	 1.3197702646	-0.513788
C	-1.4299256502	-0.5498148042	-0.0415321315	 0.080325
N	-2.1656955104	-0.1007825665	-1.2330814298	-0.538675
C	-1.4025939515	-2.113613142	-0.0850832714	-0.159572
N	-2.6963651545	-2.7686382133	-0.093278641	-0.508805
C	-2.1980095147	-0.125775861	 1.1440866812	 0.305336
N	-2.7596365052	 0.2083072327	 2.0979513745	-0.358224
H	 1.1234216902	 1.884727456	 0.0354615408	 0.116461
H	-0.2817604945	 1.891807912	-1.0316202683	 0.107204
H	-0.5001545316	 2.0361538315	 0.724627637	 0.135106
H	 0.5796564398	-0.4353208745	-0.7493134832	 0.081971
H	 1.6196572174	-0.2569091439	 1.337490065	 0.23204
H	 0.2127277319	-0.0212881796	 2.121975595	 0.241152
H	-2.3413774863	 0.8979633319	-1.2054380224	 0.244159
H	-1.6017236082	-0.2855017361	-2.0587244921	 0.235019
H	-0.8638925544	-2.3767662052	-1.0062041057	 0.09651
H	-0.8028403639	-2.4728525375	 0.7515787205	 0.142718
H	-3.1431004073	-2.6683382748	 0.8134981001	 0.2379
H	-3.2993516618	-2.3018354307	-0.7658363997	 0.236961
83.8884	117.4479	143.0267	155.4608	210.7436	244.7489	261.918	275.7786	302.7404	330.0614	353.4806	390.6383	428.3337	449.5946	474.105	604.9962	645.4954	685.5118	824.4913	864.6451	878.0851	907.5093	922.979	958.1863	999.0747	1039.1337	1081.4215	1120.5836	1138.5483	1168.1494	1209.037	1231.8956	1321.4894	1344.3959	1375.6068	1396.4311	1405.8636	1406.7154	1489.494	1492.7266	1502.2853	1649.0614	1657.6401	1671.8858	2348.4511	3009.0412	3017.6863	3030.355	3103.27	3103.9645	3135.137	3483.1415	3488.675	3490.786	3565.575	3567.3422	3582.2324
CC(N)C(N)(CN)C#N	C[C@@H](N)[C@@](N)(CN)C#N	
InChI=1S/C5H12N4/c1-4(8)5(9,2-6)3-7/h4H,2,6,8-9H2,1H3	InChI=1S/C5H12N4/c1-4(8)5(9,2-6)3-7/h4H,2,6,8-9H2,1H3/t4-,5-/m1/s1
