17
gdb 27214	3.32021	1.55484	1.07299	1.0335	82.99	-0.1984	-0.0035	0.1949	1093.771	0.137675	-384.734829	-384.72743	-384.726486	-384.766652	28.815	
C	 0.0866326103	 1.4884006982	 0.0304770129	-0.488852
C	-0.0679175512	 0.0101729031	 0.0476831344	 0.206329
C	-1.1194817559	-0.8416317047	-0.0102633728	 0.141188
C	-2.6193354326	-0.9102296642	-0.1145561177	-0.425161
C	-2.8518209532	-2.4168327894	-0.1023184917	-0.082251
C	-1.702640716	-3.1124731286	-0.0082281722	-0.206673
C	-0.5878461286	-2.1777534507	 0.052504101	 0.259814
C	 0.7599659719	-2.0546060705	 0.1451162502	-0.193629
O	 1.0914650058	-0.7247034911	 0.1432466438	-0.197491
H	 0.6964674961	 1.8204572216	-0.8176528768	 0.137741
H	-0.8941726697	 1.962910475	-0.048470208	 0.130729
H	 0.5710375435	 1.8541163244	 0.9432148713	 0.137729
H	-3.1366737274	-0.4176430482	 0.7198927336	 0.124681
H	-3.013403287	-0.4509007304	-1.0312395746	 0.124678
H	-3.8433029692	-2.8488223591	-0.1639101961	 0.098042
H	-1.6188792479	-4.1913345084	 0.0181435751	 0.101078
H	 1.5884469112	-2.7389221969	 0.2165395377	 0.132047
104.6844	160.1702	245.3824	245.6056	302.4073	453.4606	505.1543	591.3907	608.3043	660.5658	686.1725	708.3667	760.7098	779.185	850.8554	930.0884	944.6156	954.4062	959.1855	1056.7679	1061.3177	1115.3684	1134.4363	1148.3324	1151.5497	1239.1787	1275.7514	1283.8327	1349.0202	1389.4218	1417.7898	1456.8558	1473.0225	1490.8708	1607.4928	1636.0258	1708.3	3014.9081	3028.0413	3037.2199	3077.7032	3125.2957	3201.1394	3224.9474	3277.013
CC1=C2CC=CC2=CO1	Cc1c2CC=Cc2co1	
InChI=1S/C8H8O/c1-6-8-4-2-3-7(8)5-9-6/h2-3,5H,4H2,1H3	InChI=1S/C8H8O/c1-6-8-4-2-3-7(8)5-9-6/h2-3,5H,4H2,1H3
