19
gdb 100403	2.35984	1.12327	0.84837	1.8748	76.34	-0.2396	-0.0396	0.1999	1386.9355	0.156843	-456.360319	-456.350139	-456.349195	-456.395533	36.718	
C	-0.1267888758	 1.997667253	-0.5625511379	-0.408119
C	 0.3627335395	 0.6225542794	-0.1176874164	-0.041704
C	-0.7815700149	-0.2522149227	 0.378105473	 0.164657
O	-0.6621340655	-1.08915494	 1.244541689	-0.266469
N	 0.9733698128	-0.0737849672	-1.2517656135	-0.329719
C	 1.7126505739	-1.1039118087	-1.0397538453	 0.351492
N	 1.990357599	-1.6911958051	 0.1589224675	-0.543577
C	 2.3901159526	-1.705736935	-2.2636950298	-0.110109
O	 2.1542702392	-0.9474970373	-3.4106708689	-0.421211
H	 0.7113399909	 2.5813064471	-0.9509827818	 0.1331
H	-0.8668231309	 1.8993793488	-1.3631965906	 0.12802
H	-0.5795806732	 2.54690225	 0.2693111821	 0.11669
H	 1.077220611	 0.7189559974	 0.7142507188	 0.09366
H	-1.7480216994	-0.1207648416	-0.1550371518	 0.09695
H	 1.3232315994	-1.5842603022	 0.9136443107	 0.281025
H	 2.5001014834	-2.5603825816	 0.1476484283	 0.258784
H	 3.4707578432	-1.7820198409	-2.0583065016	 0.106678
H	 2.0194256132	-2.7383371908	-2.3859460702	 0.103668
H	 1.5468459516	-0.2469757027	-3.1095006515	 0.286182
70.6493	117.73	138.3934	144.5799	164.7222	211.3358	245.4552	330.3917	340.8849	399.4859	452.3332	467.6479	489.7673	546.3283	578.459	638.0046	653.4208	859.9984	887.4755	941.0485	983.6452	1036.0565	1094.2196	1132.9639	1139.9352	1148.9132	1169.549	1252.2772	1295.456	1316.0179	1352.6614	1379.192	1406.6201	1415.3129	1486.6244	1487.4028	1495.6754	1514.2248	1656.3893	1712.4983	1797.5251	2903.8214	2956.7966	2979.703	2988.7404	3039.6623	3111.1892	3125.6692	3522.3152	3600.3099	3666.8486
CC(C=O)N=C(N)CO	C[C@@H](C=O)N=C(N)CO	
InChI=1S/C5H10N2O2/c1-4(2-8)7-5(6)3-9/h2,4,9H,3H2,1H3,(H2,6,7)	InChI=1S/C5H10N2O2/c1-4(2-8)7-5(6)3-9/h2,4,9H,3H2,1H3,(H2,6,7)/t4-/m0/s1
