22
gdb 64422	2.37313	1.63185	1.28158	2.6371	81.25	-0.2157	0.0649	0.2807	1102.2662	0.19518	-404.333427	-404.324805	-404.323861	-404.365906	34.985	
C	-0.0739262918	 1.5595884742	-0.0063042553	-0.427554
C	 0.0314736643	 0.0309105788	-0.0138151067	 0.334861
O	-1.2834498197	-0.5385310537	 0.1014794263	-0.468683
C	 0.702475828	-0.4969322358	-1.2962234468	-0.237903
C	 0.9500028988	-2.0018134064	-1.1758833742	-0.203215
C	 1.9534989246	-2.3000163958	-0.0571406017	-0.146439
N	 1.6607911356	-1.6232873766	 1.2215486623	-0.10392
C	 2.2148469925	-0.286839427	 1.4190804655	-0.262896
C	 0.7532563872	-0.4678399528	 1.2325245407	 0.013923
H	 0.912667187	 2.0292897959	-0.0533357232	 0.116812
H	-0.6530269342	 1.9077909323	-0.871013439	 0.09998
H	-0.5801542823	 1.9010186399	 0.9013425631	 0.12395
H	-1.811208331	-0.2015313776	-0.6307277443	 0.274062
H	 0.048338708	-0.2690486432	-2.1474462762	 0.082271
H	 1.6441952382	 0.0355929138	-1.4804851568	 0.093596
H	-0.0045436605	-2.4910904816	-0.9569129629	 0.118031
H	 1.3242085948	-2.4185070637	-2.1170655704	 0.089567
H	 1.9742870085	-3.3778602736	 0.1400522281	 0.104534
H	 2.9642318024	-2.0219640752	-0.3843270544	 0.093817
H	 2.625305663	-0.0805080238	 2.4051020264	 0.109271
H	 2.781460144	 0.1569220748	 0.6006186743	 0.099855
H	 0.1081931026	-0.4318781727	 2.1084864153	 0.096079
104.6228	205.3253	248.564	251.9543	307.783	317.6027	334.3778	394.7638	425.3488	469.7166	495.0971	505.7613	625.2646	702.2787	741.5406	846.1772	874.3695	895.4417	911.7671	940.3356	964.3527	1000.9438	1042.769	1052.8585	1066.1695	1099.2037	1123.485	1126.1371	1152.2639	1175.2892	1208.594	1220.8565	1246.5803	1286.3058	1328.5611	1351.5773	1370.614	1384.8789	1392.4119	1403.9651	1422.6097	1482.3504	1487.8911	1490.917	1499.0226	1502.2008	1520.514	3011.3379	3017.0144	3024.6149	3041.1945	3051.2161	3056.5297	3080.4482	3092.1171	3093.7555	3118.3611	3121.9362	3160.7646	3803.5879
CC1(O)CCCN2CC12	C[C@@]1(O)CCCN2C[C@@H]12	
InChI=1S/C7H13NO/c1-7(9)3-2-4-8-5-6(7)8/h6,9H,2-5H2,1H3	InChI=1S/C7H13NO/c1-7(9)3-2-4-8-5-6(7)8/h6,9H,2-5H2,1H3/t6-,7+,8?/m0/s1
