18
gdb 97293	2.1911	1.30987	1.02715	4.2162	81.55	-0.2448	0.0016	0.2464	1255.2377	0.145871	-398.112924	-398.103304	-398.10236	-398.147563	33.986	
C	 0.4265938669	 1.0086425523	 0.2387228169	-0.312912
N	 0.1249044954	-0.3992228055	 0.0929316526	-0.174019
C	 0.3792763403	-0.9485098577	-1.0145295453	 0.05998
N	 0.0276857529	-2.2692142589	-1.2996071196	-0.092415
C	 0.9641573897	-3.3181757706	-1.6572809863	-0.009793
C	 2.4573672041	-3.0948390676	-1.6598222067	-0.423061
C	 0.1744230435	-3.3699589857	-0.3624306756	-0.175912
C	 0.8740112937	-3.2144470628	 0.8924574824	 0.324789
N	 1.4366949949	-3.1684731072	 1.9014076465	-0.342554
H	 1.1095109244	 1.1476637033	 1.0840324602	 0.137261
H	 0.8788723698	 1.4637439434	-0.6573711194	 0.096524
H	-0.4917749167	 1.5565470974	 0.4789950352	 0.131193
H	 0.8162079031	-0.4343494186	-1.8826485097	 0.092799
H	 0.5967366336	-3.9665935604	-2.4514091383	 0.114408
H	 2.7772405592	-2.4830970433	-0.8129844182	 0.155962
H	 2.979051741	-4.0550454049	-1.60381419	 0.14177
H	 2.7675380467	-2.5997623871	-2.5855622412	 0.132958
H	-0.6878311726	-4.0282532859	-0.2948100337	 0.143022
90.8301	97.8558	140.1057	151.1849	192.9538	213.7286	232.0849	298.7395	358.2041	385.8821	494.6416	519.2809	608.4197	641.8865	764.3548	849.3314	907.7137	976.9471	990.1583	1033.6198	1058.5337	1079.128	1136.203	1139.6199	1156.9005	1164.4681	1186.8929	1345.021	1373.6389	1397.451	1415.1953	1427.7487	1445.8614	1479.0359	1484.9373	1498.5217	1502.3829	1749.8176	2356.9967	2970.9727	3015.6663	3044.4959	3062.5878	3082.7638	3109.2389	3115.1286	3136.5497	3146.1951
CN=CN1C(C)C1C#N	CN=CN1[C@@H](C)[C@H]1C#N	
InChI=1S/C6H9N3/c1-5-6(3-7)9(5)4-8-2/h4-6H,1-2H3	InChI=1S/C6H9N3/c1-5-6(3-7)9(5)4-8-2/h4-6H,1-2H3/t5-,6+,9?/m0/s1
