22
gdb 13503	3.01137	1.55719	1.17374	1.4101	77.81	-0.2543	0.07	0.3243	1112.4107	0.199509	-350.200489	-350.191227	-350.190282	-350.23397	34.998	
C	-0.0294685283	 1.5875712516	-0.0003122086	-0.403685
C	 0.0242465343	 0.0611681183	 0.0848534948	 0.118694
O	 0.7259475199	-0.3676883718	 1.2543684453	-0.434814
C	-1.3601184778	-0.5720174456	 0.0137533471	 0.033206
C	-2.1726651307	-0.4852273597	-1.3086139745	-0.241382
C	-2.666739835	-1.9352573954	-1.0593277477	-0.224265
C	-1.5129441047	-2.1306608274	-0.0289787194	 0.006107
C	-0.3138070819	-2.9028468101	-0.5736584352	-0.400179
H	 0.9781991156	 2.0072359532	 0.0634405855	 0.121442
H	-0.4860302516	 1.9178426387	-0.9390421608	 0.119282
H	-0.6252371176	 2.001308524	 0.8233411599	 0.102739
H	 0.6351731942	-0.3150913203	-0.7443168726	 0.084521
H	 0.2180780128	-0.0759657521	 2.01981883	 0.273597
H	-1.9630190233	-0.1733278246	 0.842247066	 0.052644
H	-2.9257842198	 0.3021622918	-1.3897143828	 0.094448
H	-1.515214955	-0.4198637645	-2.1818313278	 0.099278
H	-3.6536106449	-1.957383211	-0.5885897649	 0.09604
H	-2.6786032499	-2.6138822807	-1.9168311841	 0.09246
H	-1.8180692924	-2.5740211081	 0.9235178991	 0.061891
H	-0.0069117897	-2.5386588646	-1.5609956536	 0.107559
H	 0.5440744355	-2.8164186298	 0.0989658564	 0.135079
H	-0.5634184195	-3.9638350618	-0.6834279321	 0.105341
85.505	113.6011	155.0369	229.0054	252.1827	269.3704	282.873	323.9799	362.7722	384.8873	473.7457	529.1997	671.9736	770.2803	792.7912	885.4659	889.762	912.9641	953.2602	973.4088	980.6658	1022.413	1050.828	1082.011	1105.689	1118.9136	1173.4372	1190.067	1219.9911	1242.1728	1260.9551	1278.3436	1283.3971	1288.7846	1338.7293	1366.9533	1399.3121	1400.7638	1409.7839	1419.2004	1481.9134	1490.6257	1494.3772	1498.5032	1500.3538	1507.3133	2996.206	3022.438	3027.6987	3045.1504	3046.7529	3049.0224	3057.4629	3089.0935	3092.8076	3093.6149	3109.7062	3114.7926	3116.7362	3795.351
CC(O)C1CCC1C	C[C@@H](O)[C@H]1CC[C@H]1C	
InChI=1S/C7H14O/c1-5-3-4-7(5)6(2)8/h5-8H,3-4H2,1-2H3	InChI=1S/C7H14O/c1-5-3-4-7(5)6(2)8/h5-8H,3-4H2,1-2H3/t5-,6-,7+/m1/s1
