21
gdb 120192	3.75852	0.84304	0.77326	1.7536	79.55	-0.2379	0.0633	0.3012	1562.3222	0.18125	-424.155342	-424.146111	-424.145166	-424.189759	34.714	
C	-0.001631549	 1.5983654579	 0.0400086191	-0.378744
C	-0.023405962	 0.0700971639	 0.126326025	-0.161596
C	-1.4085399242	-0.5259679362	-0.1596286043	-0.218873
C	-1.4223249192	-2.0436580657	-0.1026319449	 0.023214
C	-1.4777856464	-2.7562257328	 1.2801101125	-0.012653
O	-2.8811876932	-2.3203841097	 1.44347103	-0.312808
C	-2.7815015719	-2.7872864377	 0.040007607	-0.005806
C	-2.0515948843	-4.0335978313	 0.584444991	 0.121194
O	-1.2961476974	-4.7817017565	-0.3246918582	-0.426442
H	 0.99545934	 1.9975224698	 0.2511508513	 0.109235
H	-0.2934294745	 1.9420018711	-0.9587808318	 0.11305
H	-0.6988736609	 2.0441907157	 0.7579164546	 0.116057
H	 0.7068203264	-0.3479267684	-0.5794930737	 0.092819
H	 0.3070502178	-0.2440548631	 1.125112825	 0.09447
H	-2.1394699643	-0.1343095128	 0.5553283861	 0.112456
H	-1.7374221349	-0.2056360545	-1.1580608013	 0.089921
H	-0.7320734368	-2.5022501533	-0.8155943762	 0.088544
H	-0.8220224514	-2.6631787226	 2.1473596514	 0.086357
H	-3.6800181647	-2.7254127524	-0.5753154031	 0.091444
H	-2.6711984398	-4.6423009311	 1.2512952778	 0.08636
H	-0.8323103393	-5.4705887403	 0.1609530128	 0.291802
77.4234	84.7819	113.4581	227.0807	247.385	255.7093	285.8361	341.8438	378.1571	426.6095	598.3682	662.306	736.8216	765.7559	799.5332	851.5548	881.4168	894.4464	901.795	911.3843	936.9575	1045.8961	1068.9814	1086.689	1097.1594	1116.6131	1141.4741	1151.9667	1161.9328	1196.6208	1200.7755	1243.0891	1263.5208	1268.7114	1293.2454	1314.6349	1329.7578	1385.4448	1410.2022	1414.2429	1429.9639	1485.8303	1495.6107	1499.8282	1511.044	3009.599	3016.7864	3029.4147	3042.0673	3061.3016	3075.3758	3089.5182	3097.2838	3101.1396	3104.2509	3114.8928	3825.9986
CCCC1C2OC1C2O	CCC[C@H]1[C@H]2O[C@@H]1[C@H]2O	
InChI=1S/C7H12O2/c1-2-3-4-6-5(8)7(4)9-6/h4-8H,2-3H2,1H3	InChI=1S/C7H12O2/c1-2-3-4-6-5(8)7(4)9-6/h4-8H,2-3H2,1H3/t4-,5-,6+,7-
