22
gdb 96464	2.16262	1.80755	1.27236	2.1574	81.91	-0.2147	0.0615	0.2761	1091.4536	0.196767	-404.328915	-404.320659	-404.319715	-404.361057	33.512	
O	 0.0375453473	 1.4286587034	-0.1318996426	-0.427908
C	 0.0343444982	 0.0056910261	-0.0471875346	 0.089157
C	 0.8615912323	-0.5088800896	 1.1489716731	-0.230839
C	 0.5737410327	 0.180851382	 2.4930267045	-0.177028
C	-0.8584879951	 0.0554350116	 3.0359970551	-0.187437
C	-1.9304421505	 0.70191148	 2.1496696462	-0.142972
N	-2.3378111445	-0.203568904	 1.0723957404	-0.090417
C	-2.5794718406	 0.3570228012	-0.2555102417	-0.262857
C	-1.3955735801	-0.5073196452	-0.0015403116	 0.008327
H	 0.9528758105	 1.7254314391	-0.1008752672	 0.283334
H	 0.4767847941	-0.4145765479	-0.9661253356	 0.066818
H	 0.6969157864	-1.5908844113	 1.2343772153	 0.102755
H	 1.9283695014	-0.3836551087	 0.9154318268	 0.083267
H	 1.2709837519	-0.2257966702	 3.2355555474	 0.090781
H	 0.8171316668	 1.2465440081	 2.3996965238	 0.091025
H	-1.1209781779	-0.9993273608	 3.1872288523	 0.101728
H	-0.8886246044	 0.5293842349	 4.0243756859	 0.090946
H	-2.8296335072	 0.9035489886	 2.7439949315	 0.092556
H	-1.5607378365	 1.6669235721	 1.7739857877	 0.101661
H	-3.44350797	-0.0315363282	-0.7894310127	 0.104824
H	-2.3809900832	 1.4157758155	-0.4018656932	 0.127435
H	-1.4448555816	-1.5497052068	-0.3176932109	 0.084846
152.8358	192.9207	223.4396	267.115	294.4662	313.3799	343.6688	402.3562	449.8708	482.5474	553.1974	691.6686	727.8018	752.8856	804.6481	889.0829	895.4002	902.6946	937.7139	986.5418	992.4039	1037.6724	1060.0638	1074.7272	1112.3245	1117.3856	1133.0777	1138.5766	1177.4943	1210.4385	1236.5897	1239.9729	1280.8433	1295.8456	1341.5583	1346.033	1373.8781	1389.8714	1397.7944	1398.8508	1416.138	1450.4166	1475.5684	1479.944	1488.3047	1499.1923	1518.2883	2950.3932	2999.3335	3005.6664	3021.1878	3025.3467	3045.6229	3048.6804	3059.3431	3069.9481	3095.8486	3100.5527	3187.6235	3813.713
OC1CCCCN2CC12	O[C@H]1CCCCN2C[C@@H]12	
InChI=1S/C7H13NO/c9-7-3-1-2-4-8-5-6(7)8/h6-7,9H,1-5H2	InChI=1S/C7H13NO/c9-7-3-1-2-4-8-5-6(7)8/h6-7,9H,1-5H2/t6-,7-,8?/m0/s1
