14
gdb 48811	2.24911	1.56361	1.14543	5.3425	67.91	-0.2805	-0.0612	0.2193	1060.4247	0.09959	-436.664073	-436.656223	-436.655279	-436.696981	28.213	
O	-0.1287296854	 0.0186442903	 0.1386790704	-0.249987
C	-0.0150509831	 1.215759525	 0.0548812784	 0.070383
C	 1.2937879448	 1.8915214336	-0.0495309652	 0.313223
O	 1.4064830327	 3.2728903096	 0.2836174293	-0.256579
C	 1.7572191043	 2.9077164249	-1.0397253695	-0.030352
C	 3.1841017563	 2.3473610366	-1.0226874512	-0.261901
C	 2.698370957	 1.2540577362	 0.0076595488	-0.233057
C	 3.349591769	 1.2095628687	 1.3067236213	 0.288839
N	 3.8794136647	 1.1831491376	 2.3331978218	-0.318436
H	-0.882739435	 1.9076133799	 0.0284792419	 0.103335
H	 1.2121975661	 3.3754488805	-1.8511709344	 0.135173
H	 3.4958660686	 1.9042960387	-1.9692550767	 0.135373
H	 3.9431894175	 3.0424796136	-0.6622352731	 0.148095
H	 2.6840722625	 0.2576391749	-0.4383375717	 0.155889
83.5132	129.5428	145.6794	204.3828	257.7328	357.1362	459.0348	488.8481	530.0733	583.4273	701.6481	765.8865	808.12	865.0822	914.7943	949.7216	1005.7392	1020.1514	1048.1074	1071.3152	1129.9901	1180.3131	1201.7523	1259.6547	1280.7202	1336.4939	1374.5728	1438.9632	1473.5821	1811.3867	2363.3789	2923.1945	3090.8477	3106.8861	3155.4187	3197.7705
O=CC12OC1CC2C#N	O=C[C@]12O[C@H]1C[C@H]2C#N	
InChI=1S/C6H5NO2/c7-2-4-1-5-6(4,3-8)9-5/h3-5H,1H2	InChI=1S/C6H5NO2/c7-2-4-1-5-6(4,3-8)9-5/h3-5H,1H2/t4-,5-,6+/m0/s1
