17
gdb 90846	3.13406	1.92522	1.46949	2.4391	71.29	-0.2151	0.0524	0.2676	894.3882	0.137701	-417.85778	-417.851183	-417.850239	-417.888459	27.389	
O	 0.0213913768	 1.3777818088	-0.1207040223	-0.429012
C	-0.060693057	-0.0297956344	-0.0162408272	-0.061525
C	 0.350969861	-0.5971578804	 1.4239926164	-0.193703
N	-0.9011502836	-1.1692590906	 2.0414164204	-0.174311
C	-1.5261371778	-1.8489382111	 0.8439436176	-0.050355
C	-2.9435448417	-1.2322625624	 0.9560475972	-0.082897
N	-2.8991951784	-0.5406339052	-0.4117651307	-0.426562
C	-1.4884491563	-0.485385061	 0.1117476593	 0.365697
C	-1.9609349314	-0.2068143807	 1.5576939878	-0.000291
H	 0.9511912342	 1.6243975623	-0.1402417333	 0.287423
H	 0.4962252087	-0.5225593024	-0.8243914186	 0.07362
H	 1.1102740288	-1.3822389315	 1.3612317497	 0.104767
H	 0.7315755881	 0.2222783965	 2.0404560624	 0.109489
H	-1.2144742169	-2.8296322431	 0.477124347	 0.078177
H	-3.8698281898	-1.6425580135	 1.3568136456	 0.091502
H	-2.971757502	-1.2414614315	-1.1553942853	 0.209606
H	-2.1601058126	 0.7614673803	 2.012865094	 0.098377
152.7117	250.6164	261.528	371.5729	468.3566	482.0092	515.2161	663.3645	748.4701	783.9774	801.0278	825.8661	840.5558	852.9351	886.4187	910.7514	928.96	970.3388	988.4809	1024.9294	1048.6525	1092.4443	1110.4267	1121.15	1149.9481	1153.9449	1184.428	1203.5864	1232.1738	1241.3531	1262.1139	1286.1928	1290.1465	1325.285	1348.0376	1436.9246	1477.7897	3011.6968	3054.0233	3090.0698	3111.2368	3123.0692	3144.2096	3394.5633	3822.3661
OC1CN2C3C4NC13C24	O[C@H]1CN2[C@H]3[C@@H]4N[C@]13[C@H]24	
InChI=1S/C6H8N2O/c9-2-1-8-4-3-5(8)6(2,4)7-3/h2-5,7,9H,1H2	InChI=1S/C6H8N2O/c9-2-1-8-4-3-5(8)6(2,4)7-3/h2-5,7,9H,1H2/t2-,3-,4-,5+,6+/m0/s1
