18
gdb 127149	4.37444	0.8956	0.86194	3.8576	74.37	-0.2294	-0.0374	0.1919	1390.8619	0.146753	-435.226603	-435.217807	-435.216863	-435.260962	31.668	
C	 0.3820237966	 1.2992460189	-0.1347200356	-0.322492
N	-0.0292218314	-0.0894392785	 0.0310544782	-0.061856
C	 0.5508355313	-0.6703980924	 1.2333177799	-0.315069
C	-1.4810238468	-0.2407156081	 0.000729556	-0.266463
C	-2.0263041348	-0.0809568955	-1.384942453	 0.247168
C	-1.4918936138	-0.391030328	-2.59594774	-0.02599
O	-2.370078125	-0.0945611215	-3.5505158979	-0.16116
N	-3.5209347309	 0.4294448822	-2.883270998	-0.009177
N	-3.282856388	 0.4232886513	-1.6485511576	-0.17747
H	 1.4724933369	 1.3531295558	-0.2055530219	 0.121345
H	-0.0402473717	 1.709349436	-1.0555996285	 0.125835
H	 0.0601114924	 1.943462731	 0.7050952918	 0.099202
H	 0.2171803246	-0.1732876378	 2.1637735384	 0.097889
H	 0.2880340434	-1.730572957	 1.3011643092	 0.120591
H	 1.6412009072	-0.5922733601	 1.185765185	 0.12194
H	-1.7211439978	-1.24617791	 0.3673894786	 0.122952
H	-2.006108353	 0.4654448471	 0.6699726613	 0.107782
H	-0.5414299793	-0.7982762133	-2.896043386	 0.174973
44.4059	83.9002	125.6164	249.6716	251.9916	292.5217	340.7445	347.4065	378.6542	476.175	626.6992	637.5213	707.441	757.0173	854.8026	866.9232	985.7058	1000.8373	1043.7049	1061.4504	1066.9572	1123.5994	1140.7097	1174.3593	1205.2824	1238.2678	1292.1629	1305.4197	1344.8202	1399.3083	1444.4512	1458.317	1476.6094	1483.0631	1489.1619	1500.5117	1503.3347	1513.8777	1616.2414	2929.3221	2934.241	2943.3778	3041.3449	3063.2568	3072.288	3107.887	3118.5325	3297.0901
CN(C)CC1=CON=N1	CN(C)Cc1conn1	
InChI=1S/C5H9N3O/c1-8(2)3-5-4-9-7-6-5/h4H,3H2,1-2H3	InChI=1S/C5H9N3O/c1-8(2)3-5-4-9-7-6-5/h4H,3H2,1-2H3
