19
gdb 91595	2.13331	2.02244	1.41886	2.6062	73.33	-0.232	-0.0193	0.2127	991.7901	0.160884	-423.061773	-423.05416	-423.053216	-423.093817	30.214	
C	-0.2424190412	 1.5590889888	 0.0025197064	-0.416912
C	 0.0208897304	 0.0539212854	-0.0053514924	 0.026029
C	 0.912981262	-0.4763574203	-1.1745592552	-0.250134
C	 1.9826443469	-1.2929764597	-0.4121539687	 0.073192
C	 3.0038279429	-0.3470049051	 0.2469473175	-0.340831
C	 2.1195080146	 0.2628807752	 1.3500607408	 0.43149
O	 2.3905740871	 1.1484461391	 2.115454296	-0.325254
C	 0.8007754762	-0.5130447388	 1.2179991238	-0.057138
O	 1.2586613362	-1.781283949	 0.7367571814	-0.264759
H	 0.6869392283	 2.1371556092	 0.016533796	 0.129172
H	-0.80757267	 1.8553664814	-0.8865605784	 0.119147
H	-0.8248146581	 1.853840106	 0.8815328937	 0.125357
H	-0.9363495709	-0.4758262729	-0.0245930208	 0.090685
H	 0.3439405954	-1.1130676226	-1.8550090699	 0.110503
H	 1.3556271853	 0.3332962139	-1.7623214154	 0.103205
H	 2.4089296564	-2.1369375623	-0.9530157367	 0.08674
H	 3.8240058736	-0.9109767726	 0.7022505591	 0.137177
H	 3.4292136219	 0.4264747735	-0.3970649105	 0.12601
H	 0.2348392929	-0.6188151094	 2.1418611831	 0.096321
95.4545	133.2092	220.2998	302.2893	370.0154	408.5486	435.6969	512.3444	559.4945	605.2194	659.799	779.2013	805.8234	822.297	868.0838	899.4968	919.085	950.7557	965.493	996.0311	1030.0392	1053.3351	1093.2323	1114.3398	1136.9064	1149.1758	1197.5262	1226.3575	1250.2559	1254.8635	1295.3917	1321.8832	1337.0995	1341.9757	1364.2527	1418.7386	1445.5601	1494.0237	1498.6082	1499.7357	1861.6835	3036.6703	3052.7124	3061.1766	3063.3941	3103.9955	3107.6131	3111.3734	3116.9252	3127.9813	3144.2909
CC1CC2CC(=O)C1O2	C[C@H]1C[C@H]2CC(=O)[C@@H]1O2	
InChI=1S/C7H10O2/c1-4-2-5-3-6(8)7(4)9-5/h4-5,7H,2-3H2,1H3	InChI=1S/C7H10O2/c1-4-2-5-3-6(8)7(4)9-5/h4-5,7H,2-3H2,1H3/t4-,5-,7+/m0/s1
