21
gdb 65509	3.4263	1.22485	1.19157	0.9212	82.8	-0.2238	0.087	0.3108	1157.0237	0.182713	-383.186796	-383.178345	-383.177401	-383.219939	33.495	
C	 0.1852511212	 1.6490321234	-0.0744847716	-0.485468
C	 0.0870894182	 0.1259635572	-0.07409751	 0.354114
C	 1.1899569083	-0.6335440648	-0.9146071258	-0.264631
C	 1.6477490719	-1.3211210886	 0.3729306297	-0.03094
N	 2.0707304159	-0.2350142918	 1.2949067977	-0.344684
C	 0.6377712443	-0.5945173233	 1.1793926708	-0.080156
N	-1.2109038987	-0.4801727516	-0.3828612951	-0.109809
C	-2.4438638293	 0.0856989664	 0.1461837671	-0.235932
C	-2.1351010081	 0.1537324771	-1.3117027543	-0.229121
H	 1.1776987479	 1.931148838	 0.2831084054	 0.146997
H	 0.0595346232	 2.0631716327	-1.0800890635	 0.113425
H	-0.5538273951	 2.1159321488	 0.5852814851	 0.109641
H	 0.7262754094	-1.3125583275	-1.6308787939	 0.110537
H	 1.9441912503	-0.012550571	-1.4046768157	 0.096157
H	 2.0375666481	-2.3247046171	 0.4886116828	 0.088136
H	 2.417778999	-0.6794282686	 2.1445591283	 0.226736
H	 0.0613403151	-0.9107970008	 2.0405629063	 0.085488
H	-3.1619598907	-0.6356705534	 0.5276294122	 0.113014
H	-2.4077121932	 1.0211644016	 0.699985892	 0.11146
H	-1.8939497968	 1.1343591723	-1.7147245529	 0.112081
H	-2.6263880408	-0.5149349491	-2.0137606244	 0.112957
44.5129	163.6697	207.1886	237.9161	293.6873	323.362	364.0069	412.3487	484.8495	498.8446	627.0182	743.7329	801.0027	814.7363	826.9034	841.4265	880.1435	917.819	928.9966	951.3646	975.9548	987.2623	1014.6192	1038.4536	1084.9218	1101.2375	1109.204	1119.941	1140.9229	1152.2305	1167.7737	1180.4481	1199.3977	1216.8949	1249.01	1301.9229	1328.017	1334.0642	1380.779	1400.9707	1460.9042	1484.1576	1487.5977	1514.8351	1522.054	3034.9778	3065.7663	3094.3127	3102.5763	3105.6307	3130.0537	3137.6702	3175.5496	3180.5348	3190.6342	3194.9973	3472.1377
CC1(CC2NC12)N1CC1	C[C@]1(C[C@H]2N[C@@H]12)N1CC1	
InChI=1S/C7H12N2/c1-7(9-2-3-9)4-5-6(7)8-5/h5-6,8H,2-4H2,1H3	InChI=1S/C7H12N2/c1-7(9-2-3-9)4-5-6(7)8-5/h5-6,8H,2-4H2,1H3/t5-,6-,7-/m1/s1
