21
gdb 81461	2.90917	1.52862	1.38805	1.3513	80.59	-0.2472	0.08	0.3271	1035.9987	0.185635	-387.06931	-387.061934	-387.06099	-387.100481	31.29	
O	-0.1252042828	 1.4397870864	 0.0436224296	-0.454836
C	 0.0541314462	 0.0330129079	 0.0260639327	 0.14176
C	 0.2069623502	-0.5976538953	 1.4376379553	-0.048269
C	-1.3470690166	-0.5182297546	 1.543153499	-0.22509
C	-1.3438787796	-0.6339692684	-0.0157688016	-0.035569
C	-1.2797553614	-2.1146666194	-0.3622822757	-0.021408
C	-0.1369442001	-2.7258376087	-1.1320192079	-0.312338
C	-0.1996099924	-2.8797069989	 0.3734050171	-0.016206
C	 0.6804000471	-2.0600433523	 1.3232058053	-0.243022
H	 0.7030267438	 1.83716978	 0.3316886467	 0.278195
H	 0.7938614221	-0.2438311712	-0.7355164993	 0.05232
H	 0.8061940839	-0.0435415287	 2.1673031857	 0.048358
H	-1.8615927072	-1.3045992898	 2.1018356478	 0.084774
H	-1.6747447197	 0.4645080935	 1.8813945789	 0.107849
H	-2.1026105998	-0.0970241867	-0.5891386914	 0.068808
H	-2.2520558242	-2.5882160886	-0.4661395178	 0.081536
H	-0.3521648379	-3.607802892	-1.7263168521	 0.104667
H	 0.6209942047	-2.0860203327	-1.5685008945	 0.114216
H	-0.4466207723	-3.8757932494	 0.7260450471	 0.081214
H	 1.7338557087	-2.0891772487	 1.0136273683	 0.093584
H	 0.6405410871	-2.5153421623	 2.3196801167	 0.099457
203.4661	231.8276	281.498	303.746	321.3878	386.0832	431.6245	470.2158	519.0688	651.3643	744.3852	802.1068	823.0582	842.2777	855.7492	890.384	912.3167	931.0509	956.1254	978.8481	1000.0584	1033.3894	1063.2097	1075.3107	1094.5754	1114.6891	1119.4702	1134.7747	1141.0943	1148.457	1187.8762	1223.3016	1239.9907	1252.9918	1285.5735	1298.6204	1307.7447	1323.6856	1363.3292	1372.3073	1401.1872	1424.4996	1480.7741	1487.8008	1496.7997	3009.826	3013.6528	3050.34	3054.7493	3066.5532	3084.8008	3134.5721	3139.5521	3140.5573	3154.2412	3217.1281	3810.0732
OC1C2CC1C1CC1C2	O[C@H]1[C@H]2C[C@@H]1[C@H]1C[C@H]1C2	
InChI=1S/C8H12O/c9-8-5-1-4-2-6(4)7(8)3-5/h4-9H,1-3H2	InChI=1S/C8H12O/c9-8-5-1-4-2-6(4)7(8)3-5/h4-9H,1-3H2/t4-,5-,6+,7-,8+/m1/s1
