21
gdb 68878	2.29837	1.7854	1.38926	1.6476	82.26	-0.2392	0.0819	0.3211	1052.8425	0.18239	-387.052966	-387.044453	-387.043509	-387.085517	33.376	
C	 0.0650441387	 1.56929253	-0.0030876664	-0.505224
C	-0.0201490799	 0.0700366678	 0.0524939536	 0.314739
C	 1.1245321676	-0.8314961494	-0.3400566595	-0.398025
C	 0.5826623604	-0.9376194503	 1.0619603232	 0.30015
C	 1.3841399607	-0.7176470602	 2.3112688254	-0.504172
C	-0.6949479363	-1.761569412	 0.998677966	 0.057702
O	-1.6528580284	-1.3790076894	 2.00740301	-0.294278
C	-2.316920232	-0.4710778423	 1.1016560941	-0.091353
C	-1.3073242964	-0.7496212619	-0.027783908	-0.15153
H	 1.0594078598	 1.9201418804	 0.2921925794	 0.119473
H	-0.1242242219	 1.9403579135	-1.0179589545	 0.120149
H	-0.663597866	 2.0434719449	 0.6638034462	 0.119174
H	 0.9811674877	-1.6345964445	-1.0614371138	 0.100222
H	 2.090874682	-0.3419313307	-0.4194931304	 0.109486
H	 2.0693830425	 0.129765049	 2.2037968662	 0.113603
H	 0.7187251246	-0.5162573473	 3.1566222116	 0.134409
H	 1.9878225632	-1.5990492251	 2.5596472668	 0.118639
H	-0.6333675411	-2.8485940296	 0.8823597526	 0.069236
H	-3.3381507854	-0.8089514103	 0.8841185154	 0.09916
H	-2.3592824155	 0.5541970384	 1.4900275611	 0.098816
H	-1.7057669845	-1.009825921	-1.0106026089	 0.069625
140.4757	179.3277	190.221	203.9807	211.2641	248.2116	395.3621	408.7089	466.065	508.3005	554.3064	670.977	734.3745	810.9285	830.5807	865.339	901.4357	953.9019	973.8197	986.1824	997.6622	1014.6927	1021.9475	1066.0375	1077.9804	1095.5619	1119.9523	1161.2711	1185.5593	1199.4278	1202.7438	1266.7359	1286.3787	1312.2817	1345.2396	1360.6915	1389.953	1412.4601	1426.3556	1482.3833	1488.5197	1496.8363	1500.6071	1507.3918	1523.8408	3009.3592	3020.7005	3024.2376	3049.9608	3052.7254	3078.2407	3083.643	3085.5476	3093.4414	3095.0309	3104.8576	3185.9388
CC12CC1(C)C1OCC21	C[C@@]12C[C@]1(C)[C@H]1OC[C@@H]21	
InChI=1S/C8H12O/c1-7-4-8(7,2)6-5(7)3-9-6/h5-6H,3-4H2,1-2H3	InChI=1S/C8H12O/c1-7-4-8(7,2)6-5(7)3-9-6/h5-6H,3-4H2,1-2H3/t5-,6+,7+,8-/m1/s1
