18
gdb 15790	2.58502	1.83069	1.2069	4.1649	68.82	-0.2361	0.0215	0.2577	1023.5989	0.154066	-381.122666	-381.114051	-381.113107	-381.155977	30.992	
C	 0.3416667231	 1.7644843975	-0.161543888	-0.416063
C	-0.0137379623	 0.2855609227	 0.00046285	 0.012057
N	-1.4625056785	 0.1467163774	 0.1851052919	-0.271545
C	-2.0163739252	-0.8643581815	 0.8966412523	 0.166583
O	-1.3959198449	-1.766523466	 1.4280526748	-0.334963
C	 0.4941558732	-0.5488707058	-1.1625263344	 0.028421
C	 1.778016366	-1.2837906053	-1.0281537096	-0.242096
N	 0.5031685655	-2.0123060699	-1.0701703741	-0.322416
H	 1.4234780871	 1.8836586697	-0.2600218647	 0.135977
H	-0.1207741612	 2.1831375203	-1.0635678925	 0.119101
H	 0.0042350023	 2.3472845324	 0.7001588267	 0.12579
H	 0.4374960551	-0.1056443034	 0.9188147298	 0.107225
H	-2.0748907187	 0.8232675997	-0.2430865954	 0.247226
H	-3.1183311427	-0.7785741239	 0.9601118671	 0.084483
H	 0.2085728338	-0.1713672156	-2.1449168933	 0.080019
H	 2.4207667268	-1.4226851303	-1.8931012201	 0.115122
H	 2.3083471491	-1.2075062085	-0.0810951792	 0.110118
H	 0.2139738616	-2.2896487896	-0.1332203014	 0.25496
82.0525	97.0473	170.2614	204.671	233.2327	241.9002	309.2939	365.8307	464.1684	495.2372	537.1219	758.9517	820.5612	861.299	892.0044	928.5858	973.5115	981.012	1030.4418	1083.9462	1095.3687	1128.2702	1141.5182	1164.6474	1212.2841	1242.4627	1269.7321	1299.3212	1335.9169	1359.8845	1408.1838	1426.1397	1438.2182	1493.8586	1497.2566	1510.5238	1521.0727	1784.3386	2948.4081	3032.66	3056.1726	3097.9662	3100.8708	3105.0016	3126.8716	3184.1065	3485.3959	3629.4474
CC(NC=O)C1CN1	C[C@@H](NC=O)[C@H]1CN1	
InChI=1S/C5H10N2O/c1-4(7-3-8)5-2-6-5/h3-6H,2H2,1H3,(H,7,8)	InChI=1S/C5H10N2O/c1-4(7-3-8)5-2-6-5/h3-6H,2H2,1H3,(H,7,8)/t4-,5-/m1/s1
