23
gdb 122166	2.77847	0.8563	0.7479	2.5431	83.03	-0.2327	0.0841	0.3167	1655.5563	0.202631	-425.407787	-425.396943	-425.395998	-425.44425	39.62	
C	 0.2149753183	 1.2530647655	-0.3203366536	-0.38282
C	-0.0399595187	-0.1841177122	 0.1408279764	-0.185472
C	-1.4842857452	-0.6137038609	-0.0756957821	-0.051948
O	-1.6351794634	-1.942859585	 0.408894715	-0.308025
C	-2.8759121658	-2.554566231	 0.1607131798	 0.372752
C	-4.0131139328	-2.0847550863	 1.0356805807	-0.457133
C	-3.1267343767	-3.0256571594	-1.2635047964	-0.382239
C	-2.699866388	-4.0071724547	-0.1869498955	 0.095259
O	-1.4154061906	-4.5403115007	-0.2008517414	-0.434695
H	 1.2582106088	 1.5376313721	-0.1571941862	 0.12
H	 0.000758688	 1.3745821724	-1.3878280008	 0.118202
H	-0.412717345	 1.9652135231	 0.2265709263	 0.118045
H	 0.6166926412	-0.8774142823	-0.3980065713	 0.104323
H	 0.1995244277	-0.2899253159	 1.2051271809	 0.109281
H	-2.1657751627	 0.0645591048	 0.4594258375	 0.094133
H	-1.748408929	-0.56947648	-1.1429369598	 0.093774
H	-4.3002889381	-1.0514867405	 0.8103543268	 0.118308
H	-4.8968351784	-2.7109254643	 0.882398349	 0.121134
H	-3.7310813115	-2.141242528	 2.0921323142	 0.126599
H	-4.1466407573	-3.0485816014	-1.6336500562	 0.109084
H	-2.373075359	-2.7831106656	-2.0050992391	 0.11573
H	-3.4355904972	-4.7165065793	 0.1824244706	 0.095633
H	-0.8292396846	-3.8123531105	 0.0495164254	 0.290074
50.3494	61.2157	108.3598	158.4885	200.7807	218.6106	231.1834	244.8522	284.8111	381.0741	392.9166	413.3519	442.763	480.7175	615.126	717.316	764.8812	817.5235	866.1491	899.1698	908.4516	939.2365	958.6786	1017.9232	1042.0803	1051.2096	1092.6408	1103.3059	1124.5243	1153.6494	1168.1622	1191.5921	1261.2697	1268.8527	1298.3033	1316.3492	1334.0342	1361.5973	1411.6184	1415.0695	1428.0032	1435.2008	1476.9305	1485.4203	1492.2016	1500.5753	1503.6216	1507.8131	1527.3682	2983.8107	3015.5307	3030.5423	3032.6701	3036.8834	3071.2733	3093.1977	3100.8276	3110.4294	3112.4925	3127.2236	3144.3914	3220.5691	3739.4478
CCCOC1(C)CC1O	CCCO[C@@]1(C)C[C@H]1O	
InChI=1S/C7H14O2/c1-3-4-9-7(2)5-6(7)8/h6,8H,3-5H2,1-2H3	InChI=1S/C7H14O2/c1-3-4-9-7(2)5-6(7)8/h6,8H,3-5H2,1-2H3/t6-,7+/m1/s1
