22
gdb 85860	2.09827	1.53372	1.2266	2.9666	81.6	-0.2361	0.066	0.3021	1163.9183	0.192921	-404.314431	-404.304812	-404.303868	-404.348129	37.443	
C	-0.6658519218	 1.4728091408	 0.1111447955	-0.448344
C	-0.083945279	 0.067076248	-0.0111436703	 0.235866
C	-1.1568509897	-0.9301770469	-0.4649303584	-0.435579
C	 1.234263929	-0.0609767355	-0.8463051085	-0.31903
C	 1.8606707764	-0.9359740122	 0.280011211	 0.101959
O	 3.1945461382	-0.7182991759	 0.6640782849	-0.43245
C	 0.7255914413	-0.4685253116	 1.1972105372	 0.282344
C	 0.8826311443	 0.1549285968	 2.5310946502	-0.319461
N	 0.2615157206	-1.1792323789	 2.3817674811	-0.371189
H	 0.0936267816	 2.196382913	 0.4231365462	 0.109593
H	-1.0759911051	 1.807967393	-0.8484150119	 0.116533
H	-1.4825374766	 1.50598686	 0.842802016	 0.109315
H	-1.5710873934	-0.6350471679	-1.4353449686	 0.115284
H	-0.7554060732	-1.9432970057	-0.563809488	 0.124285
H	-1.9880438588	-0.9712051683	 0.2489981218	 0.107834
H	 1.1526205824	-0.5075833261	-1.8400532309	 0.101026
H	 1.7547698003	 0.8986224102	-0.9329613036	 0.089595
H	 1.7880115513	-2.0058614856	 0.0651317961	 0.098838
H	 3.287594777	 0.2147055556	 0.8855293224	 0.275816
H	 1.8542715732	 0.1436009691	 3.0188467351	 0.119905
H	 0.2519823802	 1.0021306893	 2.7879024101	 0.111103
H	-0.7507087282	-1.0985413213	 2.4634143424	 0.226756
73.647	191.8176	212.1447	223.8415	238.0493	252.4303	279.0389	323.3493	336.9988	345.3488	431.5468	496.8336	544.9959	566.552	645.6452	779.9414	852.5334	865.2701	917.3286	939.1958	953.9714	957.0067	979.2296	991.2644	1013.5044	1046.8792	1087.8875	1120.8231	1131.9376	1177.7605	1217.7888	1228.3437	1243.3892	1257.1313	1279.8266	1310.7808	1321.6753	1396.1781	1404.2814	1422.3824	1440.6833	1478.726	1481.998	1488.7601	1502.8965	1506.1401	1510.2878	3018.9055	3025.1872	3046.9396	3074.528	3080.3381	3087.3522	3098.0442	3103.1127	3103.8903	3110.6494	3188.1559	3474.806	3802.6109
CC1(C)CC(O)C11CN1	CC1(C)C[C@@H](O)[C@]21CN2	
InChI=1S/C7H13NO/c1-6(2)3-5(9)7(6)4-8-7/h5,8-9H,3-4H2,1-2H3	InChI=1S/C7H13NO/c1-6(2)3-5(9)7(6)4-8-7/h5,8-9H,3-4H2,1-2H3/t5-,7+/m1/s1
