20
gdb 107788	2.58408	1.58325	1.28041	2.7087	77.87	-0.2292	0.0594	0.2887	1067.0214	0.170854	-403.076794	-403.068288	-403.067344	-403.109744	32.848	
C	-0.0560106895	 1.5763970559	 0.032331855	-0.421559
C	 0.0933920083	 0.0674417136	 0.083783829	 0.066168
N	 1.1072942619	-0.5688906855	-0.8298046889	-0.161474
C	 2.3806241858	-0.6288942035	-0.0186304185	-0.041591
C	 2.1540131707	-0.0353249779	 1.3701962424	-0.284628
C	 0.7376530169	-0.6703757957	 1.2833499481	 0.313478
C	-0.0415802525	-1.0298055442	 2.5153934913	-0.222017
O	-0.3722325835	 0.1855169784	 3.1787088901	-0.420689
C	 1.3183855266	-1.64185713	 0.1776567592	-0.126231
H	 0.8986786399	 2.0930735568	 0.157187397	 0.119037
H	-0.4733583247	 1.8798893282	-0.9332544636	 0.119149
H	-0.7315036927	 1.909655797	 0.8262049002	 0.130294
H	-0.865825554	-0.4078617791	-0.1554032716	 0.072739
H	 3.2975287943	-0.7026021347	-0.5882868935	 0.095508
H	 2.7687744595	-0.5573543567	 2.109281695	 0.100425
H	 2.2328443801	 1.0433943297	 1.5256965275	 0.103625
H	-0.9490123004	-1.5877232612	 2.2300302403	 0.087036
H	 0.5579564098	-1.6894079385	 3.164096898	 0.087073
H	-0.8852211456	-0.02873315	 3.9634764351	 0.290573
H	 1.2407778792	-2.7019480225	-0.0266216319	 0.093084
84.304	141.3538	172.241	241.8279	248.8709	296.3723	322.9909	373.9715	490.8571	564.838	666.3052	700.8014	733.9324	799.6876	844.2912	853.0366	913.7842	933.4617	960.6053	972.054	1010.9548	1016.3144	1061.2565	1076.22	1103.5626	1119.8736	1144.4822	1163.2849	1186.1546	1195.4579	1212.4639	1251.2768	1262.172	1284.7859	1317.8248	1351.9318	1395.7058	1411.7555	1466.7496	1484.2296	1491.8715	1511.8275	1519.1303	2956.7861	2983.7718	3029.515	3041.9778	3057.282	3106.219	3111.2351	3125.0948	3192.3941	3208.7669	3828.1367
CC1N2C3CC1(CO)C23	C[C@H]1N2[C@H]3C[C@]1(CO)[C@@H]23	
InChI=1S/C7H11NO/c1-4-7(3-9)2-5-6(7)8(4)5/h4-6,9H,2-3H2,1H3	InChI=1S/C7H11NO/c1-4-7(3-9)2-5-6(7)8(4)5/h4-6,9H,2-3H2,1H3/t4-,5+,6+,7-,8?/m1/s1
