16
gdb 10776	2.82423	2.06346	1.46008	1.6674	60.86	-0.2531	-0.0323	0.2208	882.6342	0.128678	-420.877629	-420.869297	-420.868353	-420.910231	30.317	
C	 0.1076459428	 1.6530994773	 0.0423835956	-0.407445
C	 0.1150931643	 0.1342578896	 0.0000424569	-0.112864
C	 0.7710025491	-0.6235502173	-1.2107904945	 0.072238
O	 1.8229577419	 0.1184075288	-1.7696615698	-0.433085
C	 1.3404853111	-1.6948501651	-0.2128587106	 0.015498
O	 2.6630687648	-2.1070017017	-0.4351491645	-0.439571
C	 1.1276835123	-0.6241744463	 0.8644659539	 0.329394
O	 1.7852376552	-0.358387674	 1.8320148168	-0.30879
H	 1.0860905606	 2.04169124	-0.2463979901	 0.144871
H	-0.6410831689	 2.0616429332	-0.6425577165	 0.121847
H	-0.122810731	 2.0048347443	 1.0520217773	 0.130658
H	-0.8860662893	-0.2813110141	 0.1725481954	 0.104084
H	 0.0796666855	-0.9912577367	-1.9767232271	 0.075837
H	 2.5922413307	-0.4704434038	-1.7698372215	 0.292402
H	 0.6651963661	-2.5525777438	-0.1070428799	 0.10857
H	 3.1826001146	-1.7936624504	 0.3177111786	 0.306353
91.3796	157.0169	166.1517	214.2123	228.6215	258.6761	317.6614	459.2119	519.3633	529.2138	574.9428	604.9503	766.7769	799.7802	840.8663	915.6615	953.6792	1004.8398	1052.5867	1093.6785	1146.9218	1158.5395	1163.919	1234.8481	1249.7222	1312.906	1353.7608	1369.0027	1374.6748	1401.5951	1407.4595	1488.0617	1500.3957	1873.6676	3032.0738	3035.0389	3048.616	3052.5792	3115.3738	3139.9372	3717.2275	3757.3349
CC1C(O)C(O)C1=O	C[C@H]1[C@@H](O)[C@@H](O)C1=O	
InChI=1S/C5H8O3/c1-2-3(6)5(8)4(2)7/h2-3,5-6,8H,1H3	InChI=1S/C5H8O3/c1-2-3(6)5(8)4(2)7/h2-3,5-6,8H,1H3/t2-,3+,5+/m0/s1
