16
gdb 74200	3.17781	1.36127	0.95926	7.0708	82.87	-0.1745	-0.0584	0.1161	1173.3022	0.123611	-437.909555	-437.901128	-437.900184	-437.942348	31.879	
C	 0.0454215553	 1.4715938429	 0.1591932641	-0.470218
C	-0.0000788412	-0.0108948873	 0.0118594505	 0.183095
C	-1.1786305433	-0.7233900939	-0.0295543129	-0.287584
C	-1.1529865269	-2.1102915305	-0.165357974	 0.431047
N	-2.2541384855	-2.9274583069	-0.2863214287	-0.569577
H	-3.0982208231	-2.5823937227	 0.1444990572	 0.270468
H	-2.0780794067	-3.9047321837	-0.1017070806	 0.269375
O	-0.0045394896	-2.7370703683	-0.2525815391	-0.15119
C	 1.1886762391	-2.087381217	-0.2274130804	-0.113846
H	 2.0193233146	-2.770881481	-0.3186206418	 0.137358
C	 1.3066811099	-0.6845773401	-0.0918522144	 0.228814
O	 2.380226477	-0.0590228944	-0.0590625121	-0.453526
H	 0.6400365337	 1.7314470359	 1.0424574948	 0.157537
H	 0.5947472709	 1.9036572288	-0.6850451977	 0.1588
H	-0.9472570078	 1.9219929874	 0.2299834933	 0.106029
H	-2.1414033664	-0.2265555291	 0.0365151119	 0.10342
110.2868	123.4445	193.542	267.5287	280.352	340.8594	348.6661	410.7218	441.4946	511.8061	556.2678	573.9112	623.1781	718.2418	723.1429	766.5857	794.7802	872.0685	940.0704	1001.489	1046.5014	1089.0901	1160.9151	1215.6593	1257.1192	1345.8366	1366.4626	1402.9852	1440.2064	1451.6137	1483.8952	1542.7747	1603.4353	1645.1234	1679.7734	3033.6604	3085.4507	3127.8435	3173.8552	3251.4193	3573.2237	3683.7919
CC1=CC(=[NH2+])O[CH-]C1=O	C[C]1C=C(N)O[CH]C1=O	
InChI=1S/C6H6NO2/c1-4-2-6(7)9-3-5(4)8/h2-3,7H,1H3/q-1/p+1	InChI=1S/C6H7NO2/c1-4-2-6(7)9-3-5(4)8/h2-3H,7H2,1H3
