17
gdb 7049	5.78316	0.83985	0.75866	4.3385	78.11	-0.2601	0.0257	0.2858	1471.7325	0.140056	-326.728243	-326.718536	-326.717592	-326.764583	32.674	
C	 0.0120796775	 1.4805295543	-0.0175622354	-0.498454
C	 0.0201673159	 0.0244700828	-0.0189495438	 0.092269
C	 0.0283530646	-1.179688875	-0.0062390691	 0.047609
C	 0.0263725246	-2.641056132	-0.0185801459	-0.164752
C	-1.3897535507	-3.2131541742	 0.1788625932	-0.390978
C	 0.6712509887	-3.1444587662	-1.3436358129	-0.329647
C	 0.8236895248	-4.5971145456	-1.3801029065	 0.260194
N	 0.9400841721	-5.7469952486	-1.3892800132	-0.311928
H	 0.6443735626	 1.8804619645	 0.7825894586	 0.151989
H	 0.3855915724	 1.8806519845	-0.9664787173	 0.150538
H	-1.0000603461	 1.8720323807	 0.1316194274	 0.151777
H	 0.658537763	-3.0008238456	 0.8036367056	 0.123609
H	-1.3647268493	-4.3064277928	 0.1840873771	 0.142265
H	-1.8083667434	-2.8692771782	 1.1274634628	 0.131853
H	-2.0546781151	-2.8819935743	-0.6247547437	 0.126205
H	 0.0556449293	-2.8287314747	-2.1929464509	 0.157553
H	 1.6551898491	-2.6834546496	-1.472953616	 0.159899
16.1821	65.1637	83.3324	145.6294	176.0297	248.6179	292.6967	307.5089	354.2054	398.8976	477.4259	525.6271	535.0397	749.9845	856.7904	893.0323	958.7066	1021.2751	1052.3008	1053.329	1095.6083	1104.9481	1183.9473	1241.4573	1289.1848	1339.2606	1363.5172	1411.1477	1415.0736	1463.8402	1477.6361	1478.2713	1494.4387	1499.7851	2359.9269	2371.5606	3020.9413	3028.6865	3044.5878	3054.6788	3090.2519	3090.6964	3097.4286	3119.3265	3129.549
CC#CC(C)CC#N	CC#C[C@@H](C)CC#N	
InChI=1S/C7H9N/c1-3-4-7(2)5-6-8/h7H,5H2,1-2H3	InChI=1S/C7H9N/c1-3-4-7(2)5-6-8/h7H,5H2,1-2H3/t7-/m1/s1
