15
gdb 16800	3.6529	1.98957	1.40362	5.9141	69.95	-0.2155	-0.0175	0.198	858.617	0.12074	-362.692043	-362.68528	-362.684335	-362.722621	26.825	
N	 0.0764632476	 1.3386597349	 0.1026233748	-0.589833
C	-0.0241415255	-0.0156805462	 0.0352022567	 0.406605
C	-1.1456125488	-0.7831005052	-0.030259695	-0.355285
C	-0.7933135396	-2.2028632559	 0.0068910301	 0.412836
O	-1.5331034875	-3.1649066986	 0.032035976	-0.368828
C	 0.7331454611	-2.2759140227	 0.0143223317	-0.149887
C	 1.4293858763	-1.6937912061	-1.1956187021	-0.280727
C	 1.2176974807	-0.8524922648	 0.0490609748	-0.141825
H	 0.9591975702	 1.7686826457	-0.1185549968	 0.2614
H	-0.7391718695	 1.8991928427	-0.0839985857	 0.264125
H	-2.1635571812	-0.4287162289	-0.1205040723	 0.089379
H	 1.2135880773	-3.0725886551	 0.5672150677	 0.106593
H	 2.438919869	-2.0383923942	-1.3974497557	 0.119505
H	 0.838534501	-1.4619911104	-2.075432672	 0.126983
H	 2.0697335187	-0.5343102951	 0.6391076178	 0.098961
161.4792	214.0069	301.6015	345.9818	360.1283	469.5116	482.5621	590.096	607.4644	683.4553	742.7502	791.1871	818.795	827.1021	858.3033	930.3114	957.5764	1005.9121	1068.8189	1073.6291	1081.5333	1096.8849	1183.8781	1190.1495	1267.9502	1306.8469	1331.7952	1427.2653	1478.743	1626.5589	1673.7741	1795.5507	3124.7985	3175.1889	3203.4013	3217.6708	3222.4689	3594.8474	3708.8932
NC1=CC(=O)C2CC12	NC1=CC(=O)[C@H]2C[C@@H]12	
InChI=1S/C6H7NO/c7-5-2-6(8)4-1-3(4)5/h2-4H,1,7H2	InChI=1S/C6H7NO/c7-5-2-6(8)4-1-3(4)5/h2-4H,1,7H2/t3-,4+/m1/s1
