16
gdb 53139	2.95681	1.09738	0.93325	2.3234	79.72	-0.2404	0.0088	0.2492	1299.7311	0.122947	-400.690631	-400.68199	-400.681045	-400.7259	30.81	
C	-0.0256388129	 1.489141506	 0.0195998401	-0.500455
C	-0.0252937747	 0.0346999181	 0.0508902024	 0.116956
C	-0.0313221427	-1.1689644945	 0.0803957412	 0.077533
C	-0.0301766834	-2.602678547	 0.1044201985	-0.256232
C	-0.5363610037	-3.4258048876	 1.2519346464	 0.072075
O	-1.6226135345	-2.7477403219	 1.9202417422	-0.265413
C	-2.3983026146	-2.84897	 0.7589501078	 0.457915
N	-3.5986862485	-2.5613415115	 0.557889306	-0.551981
C	-1.3037099953	-3.473778594	-0.0441822647	-0.222981
H	 0.8696730167	 1.8738939329	-0.4809558769	 0.150031
H	-0.8988023416	 1.8738920438	-0.5186292101	 0.15402
H	-0.0466073237	 1.9079220983	 1.0316909223	 0.152237
H	 0.8097915033	-3.0765143597	-0.402027265	 0.126132
H	 0.0088070592	-4.1728178517	 1.8126840213	 0.12887
H	-4.0317024804	-2.1718876551	 1.3968507281	 0.233524
H	-1.4038374731	-4.229263106	-0.8089076197	 0.12777
18.987	67.093	105.5591	178.5553	256.8399	315.9796	400.6962	429.0273	481.7194	577.297	686.017	706.4266	788.2864	817.7017	854.7816	870.7475	910.3276	934.4382	973.2945	1030.907	1038.8744	1050.9889	1052.5272	1057.7143	1099.6279	1191.7429	1210.3688	1280.5313	1325.1622	1411.6335	1419.1277	1475.6913	1477.8643	1837.0438	2373.9127	3027.7556	3089.6843	3090.0773	3121.6493	3211.9573	3235.899	3483.1875
CC#CC1C2OC(=N)C12	CC#C[C@H]1[C@H]2O[C]([NH])[C@@H]12	
InChI=1S/C7H7NO/c1-2-3-4-5-6(4)9-7(5)8/h4-6,8H,1H3	InChI=1S/C7H7NO/c1-2-3-4-5-6(4)9-7(5)8/h4-6,8H,1H3/t4-,5+,6-/m1/s1
