18
gdb 70072	2.82237	1.52035	1.15247	3.6261	80.39	-0.2296	-0.0466	0.183	1086.5605	0.14822	-401.960548	-401.952615	-401.951671	-401.993071	30.887	
C	 0.0120774905	 1.4410437604	-0.1346501055	-0.455299
C	-0.0418550291	-0.0584585432	 0.0750878033	 0.316648
C	 0.4174608033	-0.6123681353	 1.3933145953	-0.289317
N	 1.2740932707	-0.6883357797	 0.2000971616	-0.110472
C	 1.5069397849	-1.9017874651	-0.436974035	-0.004696
C	 0.7673891001	-2.3637835061	-1.4633156172	-0.196936
C	-0.5253101265	-1.761313935	-1.7967663556	 0.371785
O	-1.1702406616	-2.0592216717	-2.7829300046	-0.338393
C	-1.1013803781	-0.796238203	-0.7466021059	-0.418136
H	 0.8393719582	 1.8833118939	 0.4259781864	 0.127203
H	 0.1537594555	 1.6767940298	-1.1947183512	 0.132254
H	-0.9236942775	 1.9071330758	 0.1922374829	 0.124149
H	 0.7608663091	 0.0591961626	 2.1754034702	 0.125172
H	-0.0315121795	-1.5402589696	 1.7394505205	 0.124651
H	 2.3971015966	-2.421716814	-0.0885793261	 0.119869
H	 1.0775256129	-3.2296076754	-2.0360514477	 0.10713
H	-1.7602953247	-1.3957625982	-0.1077093685	 0.132205
H	-1.7438906446	-0.0847556663	-1.2700849325	 0.132183
61.6999	158.0176	225.7652	300.3208	333.0758	375.7696	434.3043	452.8022	475.4889	502.4135	613.4609	685.8978	747.8396	784.8351	827.1387	913.1596	924.3349	933.2656	952.4118	987.1395	995.9265	1078.4743	1105.489	1119.1796	1135.0034	1162.1842	1233.3473	1264.0227	1276.878	1327.3452	1388.8669	1415.1254	1431.9162	1464.8196	1485.6271	1495.4375	1505.4512	1644.0795	1771.2863	3034.6016	3044.2125	3100.6702	3103.6374	3108.198	3123.2096	3150.0889	3197.3845	3209.2719
CC12CN1C=CC(=O)C2	C[C@]12CN1C=CC(=O)C2	
InChI=1S/C7H9NO/c1-7-4-6(9)2-3-8(7)5-7/h2-3H,4-5H2,1H3	InChI=1S/C7H9NO/c1-7-4-6(9)2-3-8(7)5-7/h2-3H,4-5H2,1H3/t7-,8?/m0/s1
