20
gdb 40182	3.05461	1.52877	1.31464	1.3706	78.04	-0.219	0.085	0.304	1043.6206	0.172734	-403.100065	-403.092461	-403.091517	-403.131877	30.86	
C	-0.0075253015	 1.5281296146	-0.0868458903	-0.324362
C	 1.3087614164	 0.7746209037	-0.0459757813	-0.332923
C	 0.0251627646	 0.0183464918	 0.0242193379	 0.412164
C	-0.3744545349	-0.717440379	 1.2869958245	-0.206162
N	-1.7393341189	-1.2553345491	 1.2794763185	-0.094341
C	-2.8502566679	-0.3521667609	 1.0009691687	-0.247906
C	-2.4130041776	-1.3458028161	-0.0228336189	-0.024164
C	-1.6999274665	-0.8590905897	-1.2870320834	-0.116867
O	-0.2930907271	-0.7240200978	-1.1226765274	-0.281224
H	-0.2956310755	 2.113400229	 0.7801340562	 0.112624
H	-0.3036300683	 1.950324687	-1.040751448	 0.120035
H	 1.8637826437	 0.6956605585	-0.9737083636	 0.126044
H	 1.9191614919	 0.8381033572	 0.8488709164	 0.114323
H	 0.2985069415	-1.5755408729	 1.4067471039	 0.113332
H	-0.2565708171	-0.0782439106	 2.1684990323	 0.102003
H	-3.7443720545	-0.5233905386	 1.5950647411	 0.111959
H	-2.6376745474	 0.6931659044	 0.7862558894	 0.115029
H	-2.9972339923	-2.2549433291	-0.1474744965	 0.093941
H	-1.8331651343	-1.5859907818	-2.0920976089	 0.112792
H	-2.1260730242	 0.0984572195	-1.6236996804	 0.093704
102.0505	172.1735	258.6785	294.2649	346.3228	388.9886	419.7787	497.0917	512.4754	655.5282	730.5304	777.2076	790.1692	811.0407	883.3338	907.6838	927.7499	931.4553	970.6385	991.5523	1024.0604	1042.8697	1068.623	1077.5463	1090.7397	1114.0125	1119.4128	1153.0592	1169.1666	1189.1559	1252.405	1281.6291	1294.4485	1318.6616	1348.7106	1375.9279	1401.873	1411.7533	1452.8455	1478.79	1493.8312	1499.1129	1509.1919	2982.3491	3026.2015	3075.1679	3091.0379	3095.9865	3124.2468	3130.2759	3134.6028	3181.1553	3214.7751	3229.0143
C1CC11CN2CC2CO1	C1CC21CN1C[C@H]1CO2	
InChI=1S/C7H11NO/c1-2-7(1)5-8-3-6(8)4-9-7/h6H,1-5H2	InChI=1S/C7H11NO/c1-2-7(1)5-8-3-6(8)4-9-7/h6H,1-5H2/t6-,8?/m0/s1
