18
gdb 78653	3.00199	1.52002	1.16014	2.9932	76.57	-0.2431	-0.0092	0.2338	1095.0019	0.146935	-401.919936	-401.911686	-401.910742	-401.952491	31.283	
C	-0.0935099319	 1.4574287632	 0.0087200445	-0.412913
C	 0.0354980734	-0.0614283016	 0.0685166148	-0.017123
C	 0.8705451768	-0.6405322164	-1.0718754041	-0.069551
N	 2.1503207343	-0.5532733271	-0.3160801256	-0.18642
C	 1.2085614016	-0.5691276841	 0.9430812997	-0.154236
C	 1.1959095029	-2.0881313211	 0.7920449111	 0.424404
O	 1.1858956664	-3.0188368068	 1.5474428789	-0.338395
C	 1.5316335435	-1.9249652229	-0.6570577582	 0.171582
C	 2.1517376952	-2.912962761	-1.5910467139	-0.509334
H	 0.8778810264	 1.9294610775	-0.1666876432	 0.136641
H	-0.7687119255	 1.7568922888	-0.8001775342	 0.120307
H	-0.5005584535	 1.8488341329	 0.9463434192	 0.123097
H	-0.9387152402	-0.523763707	 0.2646802334	 0.086566
H	 0.8269508788	-0.3751551407	-2.1248520464	 0.102082
H	 1.5147253698	-0.081594122	 1.8658529451	 0.103758
H	 1.3985226048	-3.6176639115	-1.9580560543	 0.137612
H	 2.5960244718	-2.4069858032	-2.4527757935	 0.135729
H	 2.9331314155	-3.4847264769	-1.0827095834	 0.146192
132.2785	152.8947	184.3098	211.008	244.0472	256.5408	322.4335	455.8513	478.1074	622.7243	663.1551	730.4009	760.2842	789.754	822.7569	862.727	914.7849	934.075	1008.8744	1018.5119	1060.6282	1062.4054	1079.902	1102.5819	1119.0651	1167.0034	1194.8514	1251.5428	1270.2578	1282.8105	1373.3835	1402.9607	1411.1534	1432.176	1479.6755	1489.8896	1496.2715	1499.7143	1884.767	3033.8623	3037.9734	3042.2215	3100.8116	3110.534	3115.0038	3121.6811	3152.7806	3155.7086
CC1C2N3C1C(=O)C23C	C[C@H]1[C@H]2N3[C@@H]1C(=O)[C@@]23C	
InChI=1S/C7H9NO/c1-3-4-6(9)7(2)5(3)8(4)7/h3-5H,1-2H3	InChI=1S/C7H9NO/c1-3-4-6(9)7(2)5(3)8(4)7/h3-5H,1-2H3/t3-,4+,5-,7-,8?/m1/s1
