19
gdb 98430	2.70501	1.23024	0.98811	1.5714	73.99	-0.246	0.0069	0.2529	1268.3769	0.156261	-460.182971	-460.172819	-460.171875	-460.218187	36.286	
C	-0.1427055619	 1.3360019966	 0.104561336	-0.242811
O	 0.0564245801	-0.081324036	 0.0242230333	-0.254414
C	 0.552098757	-0.5286583406	-1.1525397412	 0.397644
O	 0.8109599395	 0.2007676424	-2.0801986085	-0.375584
C	 0.6684857036	-2.0179885561	-1.1471735275	 0.264347
O	 0.330420521	-2.6702860985	 0.0401082998	-0.466332
C	 0.3515004382	-2.7166797057	-2.4688432124	-0.335555
C	 1.7585899642	-2.7130671542	-1.9383802251	-0.020519
C	 2.8930748376	-1.9995734435	-2.6368940002	-0.42732
H	 0.8065336721	 1.8627164424	-0.0185926353	 0.145446
H	-0.8342028963	 1.672173045	-0.6718900403	 0.143498
H	-0.5568592073	 1.5215874224	 1.0954919867	 0.134919
H	-0.4099068717	-2.1949266514	 0.4325525569	 0.288097
H	-0.2326399753	-3.6257408988	-2.3843935942	 0.121821
H	 0.1273979612	-2.0770808196	-3.3155972094	 0.131466
H	 2.0412992092	-3.6347556661	-1.4355927129	 0.108299
H	 2.5600821431	-1.0587900537	-3.0767153923	 0.154033
H	 3.7080953706	-1.7808864528	-1.9385955196	 0.11727
H	 3.2978508051	-2.6336251019	-3.4332837137	 0.115695
56.057	101.5842	146.1644	174.0072	190.8128	213.9899	225.4436	261.8345	335.4394	359.5987	416.0971	455.3655	476.3785	566.7813	736.2701	800.7505	830.3933	874.7725	902.5441	929.9515	1000.3345	1031.8873	1055.159	1096.5181	1132.0818	1178.7956	1179.461	1195.9012	1213.6792	1239.9417	1315.156	1386.4866	1407.0311	1422.8822	1470.6926	1472.8962	1480.0375	1497.2687	1500.7125	1506.4078	1803.1187	3036.5946	3054.4604	3092.2348	3130.7371	3135.531	3137.1676	3153.8748	3161.2463	3235.6488	3812.2898
COC(=O)C1(O)CC1C	COC(=O)[C@@]1(O)C[C@H]1C	
InChI=1S/C6H10O3/c1-4-3-6(4,8)5(7)9-2/h4,8H,3H2,1-2H3	InChI=1S/C6H10O3/c1-4-3-6(4,8)5(7)9-2/h4,8H,3H2,1-2H3/t4-,6-/m1/s1
