18
gdb 83717	2.65434	1.68788	1.23189	3.8939	71.	-0.2478	0.0095	0.2573	1033.547	0.149956	-439.114184	-439.106485	-439.10554	-439.146539	29.844	
N	 0.176538384	 1.446683077	 0.3058287312	-0.519331
C	-0.0418332103	 0.0282189139	 0.0689278893	-0.14121
C	-1.494412889	-0.4450006886	 0.0652396447	-0.032561
C	-2.5408389034	 0.4482872892	-0.6640451284	-0.235489
C	-2.8094629719	-0.7091984981	-1.6708249876	-0.233199
C	-1.5752721776	-1.4525979834	-1.1192479567	 0.091136
O	-0.4024205323	-1.2193253179	-1.9221230726	-0.227458
C	 0.4344820121	-0.3252589953	-1.3468553881	 0.440403
O	 1.4097672475	 0.1057767407	-1.8938226085	-0.347538
H	 0.2823840227	 1.6346483298	 1.2963850249	 0.231987
H	 1.0459949461	 1.7119938206	-0.1505566762	 0.247541
H	 0.5422302608	-0.6259937476	 0.7411325646	 0.093779
H	-1.8313942695	-0.8361540713	 1.0255857185	 0.076828
H	-3.3927227317	 0.7675646602	-0.0618193675	 0.104775
H	-2.0830329367	 1.3344398744	-1.10696865	 0.131799
H	-3.7346799465	-1.2527041392	-1.4622767545	 0.108264
H	-2.7697252548	-0.4736476515	-2.7361329149	 0.120236
H	-1.6455413694	-2.526257963	-0.9357080181	 0.090039
87.1546	120.3448	223.4486	263.9296	293.4888	373.3233	496.0594	507.153	600.0205	630.5684	709.466	754.6554	775.8521	818.3968	874.8487	892.0424	899.9682	944.1082	957.2824	1034.2507	1053.2346	1088.3332	1121.7109	1141.3029	1170.5953	1198.9509	1211.538	1225.1255	1252.3642	1277.2493	1286.8498	1324.7273	1358.6338	1372.2071	1387.5724	1468.9369	1497.4533	1647.1361	1871.4518	2934.6094	3066.4696	3082.8074	3090.7039	3104.8544	3120.8869	3139.7715	3491.3877	3579.8718
NC1C2CCC2OC1=O	N[C@H]1[C@H]2CC[C@H]2OC1=O	
InChI=1S/C6H9NO2/c7-5-3-1-2-4(3)9-6(5)8/h3-5H,1-2,7H2	InChI=1S/C6H9NO2/c7-5-3-1-2-4(3)9-6(5)8/h3-5H,1-2,7H2/t3-,4+,5-/m0/s1
