19
gdb 117472	3.01353	0.67375	0.56463	4.3302	75.21	-0.2498	-0.0246	0.2252	1913.8326	0.154386	-460.17558	-460.164757	-460.163813	-460.214237	35.585	
C	-0.9235558377	 1.1220139358	 0.8655846955	-0.230366
O	-1.1517319459	-0.2440258723	 0.5961770546	-0.233367
C	-0.4304269755	-0.7132620068	-0.5129659244	-0.149588
C	-0.7356223783	-2.1850299808	-0.7872721434	 0.342826
O	-0.1069142859	-2.776671769	-1.6325019045	-0.298313
C	-1.8358861652	-2.8333985426	 0.0351335376	-0.308132
C	-2.1675545615	-4.2526245267	-0.435059332	-0.275189
C	-2.9776554166	-5.005749021	 0.5922648254	 0.157212
O	-4.0308523563	-5.5499225728	 0.3849440728	-0.238342
H	-1.527737522	 1.386927881	 1.7358305007	 0.135628
H	 0.1355633822	 1.3190259961	 1.0909874985	 0.11317
H	-1.2196711131	 1.7564683634	 0.0162241255	 0.112875
H	-0.6799617292	-0.1477448435	-1.4278032108	 0.12318
H	 0.6577704868	-0.6150163362	-0.368438775	 0.124663
H	-1.5016201342	-2.8212399033	 1.0826812616	 0.140042
H	-2.7141246224	-2.1783879609	 0.0238154943	 0.145576
H	-2.707001	-4.2488627727	-1.3850851041	 0.129909
H	-1.2253140778	-4.79451977	-0.5930214338	 0.14073
H	-2.5124521573	-5.0295721375	 1.6077167915	 0.067484
38.3311	48.9534	57.1514	73.6734	99.4296	138.0692	218.3068	226.7047	299.7151	347.568	462.4431	475.9087	516.2236	620.5032	744.8358	815.657	829.7083	945.7539	1011.596	1022.3064	1079.5831	1104.5047	1127.3408	1176.1923	1180.4054	1191.106	1231.2361	1244.7036	1267.6303	1301.105	1373.448	1381.8814	1430.3267	1437.8043	1464.4433	1466.7226	1485.888	1489.0823	1513.2919	1814.6465	1838.7438	2838.8171	2958.5464	2980.068	2996.0466	3024.6376	3027.8572	3035.0074	3074.9537	3114.9323	3124.0201
COCC(=O)CCC=O	COCC(=O)CCC=O	
InChI=1S/C6H10O3/c1-9-5-6(8)3-2-4-7/h4H,2-3,5H2,1H3	InChI=1S/C6H10O3/c1-9-5-6(8)3-2-4-7/h4H,2-3,5H2,1H3
