14
gdb 28859	3.59925	1.29482	0.95225	3.3678	77.13	-0.2446	-0.0847	0.1598	1132.6672	0.103062	-436.736713	-436.729569	-436.728625	-436.768843	27.023	
O	-0.0610696385	 1.3551493895	 0.0103275537	-0.381252
C	 0.0478111745	 0.0129469128	 0.0024149272	 0.415142
N	 1.2446054647	-0.473720873	-0.0072915743	-0.383828
C	 1.5676885287	-1.8005341674	-0.0163395987	 0.001832
C	 0.8188741436	-2.9341012547	-0.0187316595	-0.162611
C	-0.6289969717	-3.1148584137	-0.0123882295	 0.33065
O	-1.1284636218	-4.2342742089	-0.0154405746	-0.362554
C	-1.5309735549	-1.9407625062	 0.0007998282	-0.14741
C	-1.2530296653	-0.6243488526	 0.0068924715	-0.115752
H	 0.8470362131	 1.694751688	 0.0067575516	 0.305613
H	 2.6466017061	-1.9476041919	-0.0229296433	 0.119666
H	 1.3596070411	-3.8761115864	-0.0268767231	 0.115618
H	-2.5767043164	-2.2378150426	 0.0056458038	 0.133311
H	-2.0802500032	 0.0788766972	 0.0162483669	 0.131575
53.7517	187.5015	291.2581	362.4513	380.4266	400.075	402.9161	542.7546	599.141	655.0513	713.6679	757.061	760.4642	841.7478	868.2851	906.7838	922.1176	1026.6111	1056.5003	1060.7787	1199.1877	1234.8416	1306.709	1333.6476	1393.1875	1456.4229	1471.9936	1590.0061	1643.2865	1682.4299	1720.4643	3139.1039	3168.5686	3181.5312	3187.3185	3740.8878
OC1=NC=CC(=O)C=C1	Oc1nccc(=O)cc1	
InChI=1S/C6H5NO2/c8-5-1-2-6(9)7-4-3-5/h1-4H,(H,7,9)	InChI=1S/C6H5NO2/c8-5-1-2-6(9)7-4-3-5/h1-4H,(H,7,9)
