21
gdb 104216	2.62673	1.25707	1.19005	1.7063	78.2	-0.2494	0.0758	0.3252	1197.4124	0.180001	-424.194373	-424.184743	-424.183799	-424.228771	35.787	
C	 0.3268968008	 1.5532033142	 0.1760569529	-0.391702
C	 0.018788774	 0.0652026456	-0.0229708749	-0.21041
C	 0.5754405262	-0.5112118164	-1.326696897	 0.32367
C	-0.0353234696	 0.0837523662	-2.5873048252	-0.428922
O	 2.0386818651	-0.4049468838	-1.3483962603	-0.33471
C	 2.2230713731	-1.8335676183	-1.4091670793	-0.153063
C	 0.717746236	-2.0429740089	-1.356238001	 0.328988
C	-0.1095034826	-3.1099452962	-0.8014601435	-0.262762
O	 0.0002426793	-2.8967449395	-2.2204381042	-0.262744
H	 1.4024131607	 1.7313959095	 0.0898771616	 0.138686
H	-0.1822465907	 2.1791002764	-0.5627241784	 0.11769
H	 0.0039240425	 1.8844556038	 1.1674008515	 0.111462
H	 0.4466388012	-0.5062585565	 0.8091797543	 0.094782
H	-1.06528706	-0.1066115867	 0.0017881177	 0.095173
H	 0.1847384334	 1.1525869146	-2.651034607	 0.126823
H	 0.3691836136	-0.4044250197	-3.4770560426	 0.127548
H	-1.1216541655	-0.0504026988	-2.5903510374	 0.119871
H	 2.6912155694	-2.1598056815	-2.346449938	 0.114002
H	 2.8036453341	-2.2167460351	-0.5608334268	 0.106539
H	 0.3575503584	-4.0214982984	-0.430602423	 0.118843
H	-1.0827367394	-2.8784942605	-0.3710241895	 0.120236
74.3059	92.1275	155.0418	177.6485	210.2567	256.6793	279.4694	311.1807	354.5351	386.7749	474.2456	517.713	591.2879	677.9539	785.3051	848.1399	873.4077	893.111	907.0402	947.6687	998.829	1014.7319	1024.0186	1055.4422	1084.1415	1124.4063	1135.112	1151.0951	1169.7443	1182.9141	1231.4425	1251.4428	1308.1358	1328.3247	1372.7315	1406.3782	1409.5563	1452.3066	1472.1187	1486.1441	1490.6558	1503.5569	1509.768	1515.9119	1544.5906	3012.9214	3022.1008	3043.1295	3047.1858	3056.7493	3059.9766	3082.8822	3109.2237	3119.0218	3122.1368	3129.3696	3169.2388
CCC1(C)OCC11CO1	CC[C@@]1(C)OC[C@]21CO2	
InChI=1S/C7H12O2/c1-3-6(2)7(4-8-6)5-9-7/h3-5H2,1-2H3	InChI=1S/C7H12O2/c1-3-6(2)7(4-8-6)5-9-7/h3-5H2,1-2H3/t6-,7-/m1/s1
