15
gdb 107870	3.08627	1.41114	1.15583	2.1199	64.88	-0.2387	-0.0098	0.2289	1040.7435	0.111124	-457.674883	-457.667371	-457.666427	-457.70723	28.547	
O	-0.0041871329	 1.405520035	-0.0059802188	-0.406407
C	-0.0105282292	-0.0062314886	-0.0480423231	-0.207256
C	-1.4079926523	-0.539946309	 0.0455281386	 0.477319
O	-2.3526192549	-0.1431563564	-1.0025526313	-0.366468
C	-3.1149144153	-0.972180837	-0.0850654067	 0.093155
C	-1.9593684235	-2.0105962289	 0.1651674819	-0.319757
C	-2.1286251641	-1.8120174403	 1.6677848964	 0.452476
O	-2.0474405399	-2.4451388563	 2.6757239477	-0.32422
C	-2.4582643835	-0.3954174572	 1.2164965602	-0.295427
H	-0.6049230044	 1.7111813716	-0.6958064478	 0.29915
H	 0.4559487423	-0.3939369165	-0.9672095187	 0.110446
H	 0.5761282539	-0.3618342608	 0.8053155442	 0.133329
H	-4.1656002303	-1.1664906401	-0.2874069869	 0.124757
H	-1.6961945897	-2.8644886768	-0.4531303802	 0.111543
H	-2.726824056	 0.5152944613	 1.7434106545	 0.117358
78.9159	138.8311	169.1139	298.8624	370.7826	394.7206	421.8631	594.1375	631.8232	640.6291	701.7712	753.5594	786.4721	823.7758	844.2008	897.6923	948.8076	954.4068	1045.0567	1062.2383	1080.8221	1090.0488	1097.1616	1134.5774	1184.9308	1195.7005	1221.4324	1274.9394	1351.0624	1378.3589	1434.6854	1486.2452	1922.3619	2988.5568	3083.9926	3148.4693	3168.942	3178.617	3799.2216
OCC12OC3C1C(=O)C23	OC[C@@]12O[C@H]3[C@@H]1C(=O)[C@@H]23	
InChI=1S/C6H6O3/c7-1-6-2-4(8)3(6)5(2)9-6/h2-3,5,7H,1H2	InChI=1S/C6H6O3/c7-1-6-2-4(8)3(6)5(2)9-6/h2-3,5,7H,1H2/t2-,3+,5-,6+
