14
gdb 25344	3.83446	1.15336	0.88666	2.5755	75.	-0.2325	-0.0864	0.1461	1199.1913	0.102749	-436.768754	-436.761517	-436.760573	-436.80075	27.101	
O	-0.0740450793	-0.0210758067	-0.0009723023	-0.254899
C	-0.0049825397	 1.1835743706	 0.0083759928	 0.10933
C	 1.2756435631	 1.9424516854	 0.0007209744	 0.244801
C	 1.2389864106	 3.3078898412	 0.0130541858	-0.352376
C	 2.4516243155	 4.1105256309	 0.006446639	 0.452877
O	 2.5248896854	 5.3266685938	 0.0167126236	-0.388796
N	 3.6195563963	 3.3219524775	-0.0131691605	-0.367779
C	 3.6595732581	 1.9588738186	-0.025488157	 0.046301
C	 2.5138798683	 1.2318027138	-0.0192141849	-0.250591
H	-0.9164867938	 1.8190901899	 0.0240595361	 0.086658
H	 0.301075767	 3.8523854261	 0.0282822088	 0.126609
H	 4.4777010972	 3.8564050048	-0.01790411	 0.267725
H	 4.6474845881	 1.5142429237	-0.0402407514	 0.145268
H	 2.5188910532	 0.1516274804	-0.0286615544	 0.134872
102.7782	175.5018	201.1069	245.7726	394.5269	417.0826	463.3316	553.6354	593.2631	673.23	707.7282	762.7812	796.6067	804.6667	898.3917	899.3023	949.8263	1007.8652	1039.4273	1107.5335	1156.488	1205.5613	1240.7875	1336.1683	1414.7972	1448.7122	1499.1007	1587.8737	1665.6355	1784.7254	1805.9734	2904.2914	3198.4577	3206.6236	3246.9899	3605.0661
O=CC1=CC(=O)NC=C1	O=Cc1cc(=O)[nH]cc1	
InChI=1S/C6H5NO2/c8-4-5-1-2-7-6(9)3-5/h1-4H,(H,7,9)	InChI=1S/C6H5NO2/c8-4-5-1-2-7-6(9)3-5/h1-4H,(H,7,9)
