17
gdb 55237	3.1205	1.27357	1.04257	1.4008	69.27	-0.2489	0.0141	0.263	1147.1327	0.137346	-455.206378	-455.197974	-455.19703	-455.240197	31.266	
N	 0.7228188153	-0.3903264503	 0.3175151831	-0.517943
C	-0.2361112514	 0.1760520382	-0.4545800232	 0.37048
O	-0.0426668068	 1.0798315227	-1.244629405	-0.365341
C	-1.6522850954	-0.3917957252	-0.2527745591	-0.000089
C	-2.3203735388	-0.7848281435	-1.5800789357	-0.241035
C	-1.9706700715	-2.2755472056	-1.6836845665	-0.302123
C	-1.8371502676	-2.7047640979	-0.2400557126	 0.413714
N	-1.8852540057	-3.8835519067	 0.2024002861	-0.531823
O	-1.6468993272	-1.5895230476	 0.5489349286	-0.260878
H	 1.6619694954	-0.0323061087	 0.267127368	 0.266676
H	 0.4904813601	-1.1180525739	 0.9709508625	 0.274955
H	-2.2222786689	 0.3641362155	 0.2948991224	 0.125549
H	-3.4022601513	-0.6458257596	-1.5072138795	 0.116589
H	-1.9436099615	-0.1724411408	-2.3986623832	 0.146106
H	-2.7099016757	-2.8834445098	-2.2046714795	 0.141556
H	-1.0068904912	-2.4234226942	-2.1843489248	 0.142387
H	-1.7585234379	-3.8974416528	 1.2159135284	 0.221218
49.9922	79.4338	125.4178	261.6236	305.358	335.7718	409.4772	486.9274	500.547	524.8157	601.7652	663.7731	703.0246	741.64	814.0893	856.2457	890.1682	898.3164	963.761	976.1525	1055.3183	1069.5168	1082.5512	1100.4591	1157.7784	1209.0268	1259.8018	1297.8267	1313.057	1334.6607	1365.2959	1381.7355	1473.9448	1501.8245	1598.3619	1785.1496	1801.3628	3053.3246	3069.616	3081.5212	3138.1108	3148.0526	3471.7247	3605.2619	3744.4208
NC(=O)C1CCC(=N)O1	NC(=O)[C@H]1CC[C]([NH])O1	
InChI=1S/C5H8N2O2/c6-4-2-1-3(9-4)5(7)8/h3,6H,1-2H2,(H2,7,8)	InChI=1S/C5H8N2O2/c6-4-2-1-3(9-4)5(7)8/h3,6H,1-2H2,(H2,7,8)/t3-/m1/s1
