21
gdb 109740	2.82483	0.93783	0.83545	3.5769	80.97	-0.2292	0.0292	0.2584	1489.7672	0.181435	-420.420704	-420.410434	-420.409489	-420.456105	37.486	
C	-0.2152622405	 1.2440954332	-0.4173905243	-0.380219
C	-0.284060231	-0.2684747867	-0.1705023638	-0.20951
C	 0.3062653018	-0.6713135897	 1.1653667747	 0.023295
C	 0.8302946221	-2.058075081	 1.4041103464	-0.145999
N	 1.731127924	-0.9062380225	 1.401419983	-0.115047
C	 2.7007319325	-0.800781472	 0.3190871575	-0.322084
C	 0.6030713279	-2.7903595988	 2.7025328771	 0.392455
N	 1.0848383868	-2.1323368538	 3.7938666912	-0.533497
O	 0.0074177238	-3.8506588697	 2.743092599	-0.37491
H	 0.8202646461	 1.5970138394	-0.4538565921	 0.121522
H	-0.6937810908	 1.5090267874	-1.3648807398	 0.118183
H	-0.7246019783	 1.7957880826	 0.380036612	 0.121331
H	-1.3315295443	-0.5943321686	-0.1800265442	 0.115811
H	 0.2045145356	-0.8075222494	-0.9884148422	 0.103221
H	-0.1709014983	-0.1823414622	 2.0151872889	 0.096481
H	 0.8324024681	-2.7209686207	 0.5405067942	 0.098028
H	 2.3381419424	-1.1593390777	-0.6545578107	 0.111804
H	 3.0104494422	 0.2433123854	 0.2101878177	 0.127339
H	 3.5831165156	-1.3906903234	 0.5855161583	 0.130336
H	 1.7278913972	-1.370401871	 3.641578055	 0.264418
H	 1.0527505371	-2.6001172605	 4.6840827019	 0.257044
71.5477	78.0541	140.8433	156.8937	186.8848	216.5414	256.7776	283.2266	345.8574	357.9602	395.2893	478.2475	531.6462	569.6025	639.9624	719.7387	744.4638	813.7584	860.3869	916.7534	940.0798	1035.154	1040.7411	1080.3258	1092.0571	1109.3842	1139.3278	1157.6435	1180.4736	1198.5403	1259.369	1294.1269	1337.7058	1350.4751	1390.3964	1411.0119	1438.7599	1463.6345	1481.2701	1492.9091	1499.7135	1503.8721	1512.3201	1588.0925	1800.8642	3000.1515	3035.3741	3037.354	3070.4537	3077.7361	3100.3691	3105.6688	3109.3403	3110.7103	3132.7911	3576.2	3721.7564
CCC1C(N1C)C(N)=O	CC[C@H]1[C@@H](N1C)C(=O)N	
InChI=1S/C6H12N2O/c1-3-4-5(6(7)9)8(4)2/h4-5H,3H2,1-2H3,(H2,7,9)	InChI=1S/C6H12N2O/c1-3-4-5(6(7)9)8(4)2/h4-5H,3H2,1-2H3,(H2,7,9)/t4-,5+,8?/m0/s1
