16
gdb 12600	2.86918	2.13946	1.29526	2.1527	64.72	-0.2403	-0.0417	0.1987	917.6474	0.129001	-383.798124	-383.790043	-383.789098	-383.83231	28.528	
C	-0.4419321728	 1.5088994638	 0.0242844824	-0.397458
C	 0.1473456475	 0.1053363845	 0.0033797921	-0.206543
C	 1.0361528415	-0.2421533576	-1.1901200887	 0.381508
O	 0.9807057727	 0.2691731637	-2.2775081245	-0.302658
C	 2.0365502649	-1.3282475222	-0.7673617932	-0.329415
C	 2.0091098726	-1.3635942936	 0.773570585	-0.329421
C	 0.9956980559	-0.2950315667	 1.2096517984	 0.381413
O	 0.904219391	 0.1688314627	 2.3157283462	-0.302609
H	 0.3522589371	 2.2599785618	 0.0548099632	 0.131706
H	-1.0372129727	 1.6843855331	-0.8742511225	 0.13576
H	-1.0682991415	 1.6448754967	 0.9084175709	 0.135728
H	-0.6637583927	-0.6452034555	-0.0268660546	 0.135274
H	 1.7267844181	-2.2780606634	-1.216464275	 0.140057
H	 3.0175346005	-1.0906626206	-1.1862832919	 0.143366
H	 1.6814571483	-2.331995941	 1.1668949443	 0.140018
H	 2.9748087196	-1.1490673159	 1.2379041378	 0.143275
19.0765	66.2622	134.116	227.2566	246.2845	390.8874	472.6172	519.4201	558.5848	615.3011	637.6191	683.9911	807.7618	819.5626	903.9454	982.1493	1000.9812	1025.8345	1068.5567	1125.6862	1165.5787	1200.5445	1204.7965	1249.2584	1261.2545	1297.2283	1325.1368	1407.0697	1445.3823	1464.8247	1489.4975	1494.4344	1827.8895	1867.4516	2960.1813	3053.6598	3056.4784	3063.0047	3100.3286	3116.383	3127.2755	3141.4418
CC1C(=O)CCC1=O	CC1C(=O)CCC1=O	
InChI=1S/C6H8O2/c1-4-5(7)2-3-6(4)8/h4H,2-3H2,1H3	InChI=1S/C6H8O2/c1-4-5(7)2-3-6(4)8/h4H,2-3H2,1H3
