22
gdb 58120	2.86991	1.01511	0.91655	4.3513	82.08	-0.2795	0.0354	0.3149	1376.0376	0.191313	-404.375911	-404.365032	-404.364088	-404.411258	40.405	
C	 0.1555448271	 1.5306756147	 0.016275874	-0.438051
C	-0.0333059064	 0.013944506	 0.0548284522	 0.124766
O	 0.6785252722	-0.5502478392	 1.1562829365	-0.439539
C	-1.5149096431	-0.4728744556	 0.0297812639	 0.244562
C	-2.2799252373	-0.0165067196	 1.2837052479	-0.441768
C	-2.2228459411	 0.0305704683	-1.2391893271	-0.434527
C	-1.4460602969	-2.029815196	 0.0005095826	-0.358921
C	-2.7541149646	-2.6774519187	 0.0135881507	 0.266752
N	-3.7980771048	-3.1744647236	 0.0218415825	-0.327905
H	 1.2246030567	 1.7582349355	 0.0421945705	 0.131549
H	-0.2650458592	 1.9740120723	-0.8894472842	 0.12889
H	-0.3149819745	 2.0173264453	 0.8782552416	 0.116528
H	 0.4569951664	-0.4133866048	-0.8301907937	 0.086649
H	 0.4876393924	-0.0208524898	 1.9376595909	 0.284019
H	-2.3709955004	 1.0727518321	 1.3220107512	 0.118264
H	-3.2919418073	-0.4307054889	 1.2904316101	 0.146828
H	-1.7828427493	-0.3540741111	 2.1991860099	 0.109861
H	-1.642970639	-0.2042039693	-2.1394220937	 0.113916
H	-3.2057173788	-0.4386611408	-1.3436607494	 0.142331
H	-2.3768348998	 1.1123694302	-1.2092837267	 0.120412
H	-0.9120383229	-2.3586606269	-0.8992525971	 0.141604
H	-0.8628953094	-2.3780694598	 0.8576420576	 0.163778
77.1785	83.4766	132.4484	212.6163	234.5892	250.0474	261.428	288.1033	299.2242	337.395	347.3875	368.281	402.807	416.5045	475.2265	514.0461	613.8815	736.8355	831.127	897.8139	923.6175	950.1911	954.5243	967.5787	1017.2124	1057.2377	1078.3543	1119.0396	1149.2544	1211.3437	1243.091	1276.5441	1302.7684	1328.9797	1372.6463	1403.6912	1404.0198	1419.1497	1428.519	1467.752	1484.0664	1491.8136	1495.1271	1506.7236	1511.9519	1514.0911	2355.2314	3017.7251	3032.1826	3036.5835	3041.2987	3044.2974	3099.8474	3101.2557	3105.3524	3109.012	3114.9481	3118.3797	3129.0391	3811.8603
CC(O)C(C)(C)CC#N	C[C@@H](O)C(C)(C)CC#N	
InChI=1S/C7H13NO/c1-6(9)7(2,3)4-5-8/h6,9H,4H2,1-3H3	InChI=1S/C7H13NO/c1-6(9)7(2,3)4-5-8/h6,9H,4H2,1-3H3/t6-/m1/s1
