20
gdb 86711	2.89923	1.28288	1.06152	2.2583	78.14	-0.241	-0.0254	0.2156	1194.4766	0.171184	-403.143619	-403.135099	-403.134155	-403.17709	32.304	
C	 0.0497887513	 1.5238978561	-0.1819459585	-0.40262
C	 0.065283672	 0.0056395389	 0.0059643467	 0.017276
C	 0.7178093563	-0.7805212077	-1.1537879856	-0.263688
C	 1.2584984352	-2.0542701459	-0.4770634671	-0.060938
C	 2.504665628	-2.6491669106	-1.1046312765	 0.154531
O	 2.9614644265	-2.3143496005	-2.167721154	-0.243816
N	 1.5090823847	-1.7616135736	 0.9575492457	-0.121965
C	 2.3162628051	-0.538676088	 1.1548804235	-0.260542
C	 0.8356379497	-0.4762222498	 1.2317216374	-0.015388
H	 1.0663421485	 1.9153318172	-0.2950895696	 0.118602
H	-0.5198888947	 1.8041754691	-1.0737529213	 0.118998
H	-0.4093799919	 2.0255727676	 0.6762980931	 0.116212
H	-0.9706670238	-0.3393987573	 0.1241958455	 0.079202
H	 0.0122789051	-1.0074667553	-1.9556890554	 0.110867
H	 1.5375327124	-0.2179274758	-1.6104695697	 0.121704
H	 0.4976972634	-2.8497465595	-0.4892804714	 0.102999
H	 2.9847373073	-3.439772951	-0.4872237246	 0.093644
H	 2.9045437458	-0.5387058467	 2.0671685661	 0.120416
H	 2.8176132048	-0.0953200253	 0.2984185922	 0.123171
H	 0.3569496042	-0.3878281018	 2.2035884834	 0.091336
61.9512	111.2704	190.0109	194.9156	240.0235	297.3486	363.2054	436.5563	490.7177	587.9221	600.7384	667.6055	750.9419	812.7856	854.3101	870.8394	904.4632	937.2255	983.2692	1010.721	1015.1495	1061.8252	1085.289	1109.4323	1114.3029	1136.7525	1157.1554	1171.8942	1207.4842	1254.9726	1271.976	1303.1585	1332.4279	1357.4882	1368.6495	1390.0143	1411.1047	1414.5056	1493.4257	1496.5672	1499.2709	1519.8215	1829.3774	2897.6445	2993.0744	3012.7689	3031.9955	3067.3531	3100.2184	3103.1091	3111.72	3115.6531	3140.0613	3198.7246
CC1CC(C=O)N2CC12	C[C@H]1C[C@@H](C=O)N2C[C@@H]12	
InChI=1S/C7H11NO/c1-5-2-6(4-9)8-3-7(5)8/h4-7H,2-3H2,1H3	InChI=1S/C7H11NO/c1-5-2-6(4-9)8-3-7(5)8/h4-7H,2-3H2,1H3/t5-,6-,7-,8?/m0/s1
