21
gdb 113779	2.58312	1.16363	1.07587	2.5775	78.11	-0.2504	0.0655	0.3159	1250.0717	0.180973	-424.183363	-424.173738	-424.172794	-424.218754	36.024	
C	-0.6878571128	-0.6414236885	 3.4164124529	-0.488
C	-0.3581960126	-0.8056497688	 1.9508739384	 0.403357
C	 0.8901290952	-0.2271976154	 1.4193888411	-0.218075
O	 0.8049514814	-1.623183319	 1.7030765403	-0.283017
C	-1.4679890793	-1.0831118229	 0.9627160658	-0.060079
C	-2.9190345178	-1.2531452363	 1.3404083002	-0.329088
C	-2.4971142525	-0.0659439601	 0.5065146932	-0.038374
C	-2.5820236966	 1.3680664872	 1.0216087635	-0.10363
O	-2.9197843911	 1.5047163976	 2.3945051491	-0.398211
H	 0.2287415698	-0.4722133531	 3.9867724253	 0.117576
H	-1.3685163641	 0.1991387851	 3.5703577119	 0.15206
H	-1.1641760429	-1.5496807878	 3.8011023077	 0.120505
H	 0.9572501825	 0.0313810374	 0.3625014704	 0.102866
H	 1.5437615362	 0.3472710762	 2.0756829267	 0.10715
H	-1.1081669985	-1.7357796173	 0.1728224901	 0.098846
H	-3.4923228951	-2.0489663567	 0.8778673212	 0.113925
H	-3.1812061472	-1.0586133481	 2.3746607452	 0.113543
H	-2.7356386738	-0.1303126265	-0.5522674767	 0.088739
H	-1.6157180539	 1.8723172125	 0.9108497068	 0.118659
H	-3.3024933375	 1.9171393449	 0.3968786354	 0.095392
H	-3.8043637893	 1.1436722597	 2.5122813716	 0.285854
24.2552	68.1278	149.268	210.8351	248.563	277.3802	317.041	349.4922	370.4976	384.412	444.5053	518.4459	601.5966	692.5682	755.7497	804.6096	839.8383	885.9876	911.9477	927.6639	984.3364	1012.3826	1029.4398	1056.7697	1078.0883	1096.6671	1113.4493	1139.0547	1141.7919	1162.9846	1166.0397	1218.0786	1232.8012	1298.4018	1345.9784	1382.5041	1399.0514	1409.9754	1419.4292	1427.6838	1481.576	1493.2459	1503.2466	1511.9555	1529.4027	2987.6281	3041.3592	3063.2252	3071.0796	3110.87	3131.4581	3134.654	3137.5561	3152.4075	3155.2173	3218.172	3817.328
CC1(CO1)C1CC1CO	C[C@]1(CO1)[C@H]1C[C@H]1CO	
InChI=1S/C7H12O2/c1-7(4-9-7)6-2-5(6)3-8/h5-6,8H,2-4H2,1H3	InChI=1S/C7H12O2/c1-7(4-9-7)6-2-5(6)3-8/h5-6,8H,2-4H2,1H3/t5-,6-,7-/m0/s1
