19
gdb 110702	2.38708	1.60982	1.38052	2.8998	75.77	-0.2259	0.0084	0.2344	1042.2514	0.159897	-423.00172	-422.993491	-422.992547	-423.034404	31.853	
C	 0.1436279039	 1.0361388258	-0.4088636885	-0.237323
O	-0.1076450705	-0.0066033188	 0.5159423561	-0.239566
C	-1.3266044785	-0.6508677269	 0.3109343118	 0.112315
C	-1.5191809497	-1.7029844652	-0.7772364614	-0.155337
C	-0.2746174276	-2.2514302686	-1.3965638201	-0.071976
C	 0.4966064573	-2.8638807081	-0.4992996534	-0.118082
C	-0.1225632367	-2.8693563049	 0.891536967	 0.098626
O	 0.7291657422	-2.3452589321	 1.8968825083	-0.443323
C	-1.4393799734	-2.0915722152	 0.6966599037	-0.153715
H	 1.0957097687	 1.4922584995	-0.1294707206	 0.131621
H	 0.2108722302	 0.6508082313	-1.4346098779	 0.117505
H	-0.6455107912	 1.8006060491	-0.3690288652	 0.111685
H	-2.1909151626	-0.0146210153	 0.5083738523	 0.092413
H	-2.4527695104	-1.7000423247	-1.3291470723	 0.088189
H	-0.038838973	-2.1108284407	-2.4456908718	 0.096382
H	 1.4798940057	-3.2839394463	-0.6760329327	 0.098818
H	-0.3406653789	-3.8947641723	 1.2151079707	 0.087914
H	 0.8657053061	-1.4173011555	 1.6631684906	 0.292099
H	-2.311236582	-2.4031627311	 1.2586872634	 0.091753
98.786	146.7909	166.3692	205.3677	261.688	327.4653	385.6762	486.1536	543.4289	595.6388	631.1472	733.5683	756.7006	765.7872	795.6841	835.6148	895.7449	950.5417	964.8796	1006.0147	1020.6112	1054.2844	1058.2519	1081.6178	1109.3248	1109.9096	1137.3731	1179.688	1204.8842	1250.6111	1283.7021	1295.8187	1303.1626	1353.1405	1368.6173	1414.2537	1456.4727	1485.11	1486.5492	1504.7327	1674.8351	2996.2204	3027.8057	3054.8521	3087.233	3126.1635	3166.7916	3183.2976	3185.7932	3212.879	3759.7358
COC1C2C=CC(O)C12	CO[C@H]1[C@H]2C=C[C@@H](O)[C@@H]12	
InChI=1S/C7H10O2/c1-9-7-4-2-3-5(8)6(4)7/h2-8H,1H3	InChI=1S/C7H10O2/c1-9-7-4-2-3-5(8)6(4)7/h2-8H,1H3/t4-,5+,6-,7-/m0/s1
