17
gdb 48419	2.24013	1.55923	1.21449	2.1779	79.73	-0.2497	-0.0299	0.2198	1084.5611	0.134309	-384.674875	-384.666319	-384.665375	-384.708358	32.025	
O	-0.1114515092	 0.0109254337	-0.0669119267	-0.241185
C	 0.0167460481	 1.1990838608	 0.034625593	 0.136746
C	 1.3605637584	 1.9574452159	-0.0116634184	 0.035201
C	 2.5412830374	 0.9683639283	-0.2426982299	-0.306253
C	 2.7951562824	 1.0694379547	-1.7250321648	-0.055578
C	 2.1427475816	 2.0817121045	-2.2901565352	-0.061033
C	 1.3254066098	 2.8663196312	-1.2962781418	-0.31293
C	 1.4421390881	 2.7291024309	 1.2208660264	 0.250059
C	 1.4643867145	 3.3549427882	 2.2478321906	-0.437382
H	-0.8568335718	 1.8743059778	 0.1658741574	 0.095846
H	 3.4214926864	 1.2634473039	 0.3395808764	 0.118154
H	 2.2555557325	-0.0387674908	 0.074082542	 0.138343
H	 3.4610377469	 0.3874928234	-2.2414578406	 0.100447
H	 2.191765125	 2.3581252251	-3.3371550507	 0.099373
H	 0.2959895084	 3.0557633324	-1.627897936	 0.113348
H	 1.7651806433	 3.848121369	-1.084978184	 0.127126
H	 1.5045978784	 3.909352051	 3.1528162123	 0.199719
76.9886	79.7919	159.0713	178.2029	283.5587	349.3513	391.6874	488.8058	493.8421	523.3362	607.2097	624.4326	644.8992	705.7832	770.931	799.5206	886.0018	949.9907	961.8891	976.8352	982.9942	985.1659	1063.0884	1106.2047	1127.8351	1153.0805	1184.1089	1256.8643	1298.5791	1332.2467	1361.8242	1414.6318	1474.7387	1491.115	1695.1485	1838.416	2228.6958	2896.802	3020.5772	3043.2689	3053.5235	3092.841	3188.0141	3212.6502	3500.3118
O=CC1(CC=CC1)C#C	O=C[C@]1(CC=CC1)C#C	
InChI=1S/C8H8O/c1-2-8(7-9)5-3-4-6-8/h1,3-4,7H,5-6H2	InChI=1S/C8H8O/c1-2-8(7-9)5-3-4-6-8/h1,3-4,7H,5-6H2
