20
gdb 117387	5.31466	0.65989	0.618	3.3459	76.91	-0.2594	0.0288	0.2881	1815.3379	0.169263	-440.267273	-440.25729	-440.256346	-440.303657	35.555	
O	-0.0695109459	 1.4048443715	 0.0359318751	-0.419298
C	-0.0309587765	 0.0076193643	-0.2167555096	-0.058339
C	-1.2820090549	-0.6966851962	 0.3111055098	-0.294988
C	-1.2571858472	-2.1920391413	 0.1393785202	 0.409068
N	-0.2573504292	-2.8052284366	-0.3386987807	-0.52848
O	-2.4404825688	-2.7259591132	 0.5765322016	-0.245991
C	-2.5619783566	-4.1251032279	 0.5655602647	 0.115397
C	-3.9536437823	-4.6495582942	 0.4323471006	-0.291469
C	-2.9728854443	-4.8130778143	-0.7097646894	-0.283427
H	-0.768362092	 1.7845482695	-0.5057033091	 0.279359
H	 0.1042966414	-0.2126000822	-1.2840571301	 0.102977
H	 0.8538491645	-0.3731820991	 0.2981055497	 0.130193
H	-1.4135627021	-0.4645439064	 1.374626962	 0.133204
H	-2.1809771866	-0.3109354197	-0.1890516982	 0.109535
H	-0.4120151202	-3.8107892714	-0.3976108681	 0.222881
H	-1.8692639859	-4.6276409864	 1.2364245205	 0.109192
H	-4.230192662	-5.5201324076	 1.015492534	 0.123232
H	-4.7379757287	-3.9113890359	 0.3122062017	 0.13233
H	-3.1154325774	-4.1830040319	-1.5799819694	 0.13192
H	-2.5697494354	-5.7975103408	-0.9202018055	 0.122704
36.0984	69.0576	88.6956	121.8115	127.444	233.8461	298.9625	313.8249	391.0134	412.5244	456.665	555.8055	673.7061	756.9642	790.6488	824.1505	827.911	889.9304	916.5943	977.4523	995.3837	1034.5831	1059.3248	1068.0396	1075.0874	1077.666	1095.149	1132.0856	1165.1296	1188.2023	1194.4171	1236.3435	1255.9324	1300.9413	1351.1579	1390.9962	1404.9272	1425.5893	1454.9181	1466.8053	1496.4009	1504.635	1736.5456	3020.0688	3023.8623	3066.1293	3112.5074	3133.3958	3140.7117	3146.5267	3225.4946	3239.5404	3499.5882	3816.5378
OCCC(=N)OC1CC1	OCC[C]([NH])OC1CC1	
InChI=1S/C6H11NO2/c7-6(3-4-8)9-5-1-2-5/h5,7-8H,1-4H2	InChI=1S/C6H11NO2/c7-6(3-4-8)9-5-1-2-5/h5,7-8H,1-4H2
