21
gdb 86276	1.87069	1.5346	1.15614	1.1031	84.95	-0.2461	0.0451	0.2911	1216.5006	0.179237	-387.053236	-387.04307	-387.042125	-387.087726	38.256	
C	-1.0557391279	 1.0285113804	-1.0613045143	-0.419282
C	-0.0277343701	-0.0463470415	-0.7862635498	 0.144801
O	 1.2944871108	 0.2993387027	-1.2500102762	-0.317099
C	 1.9030633896	-0.3004193	-0.0869286157	 0.144804
C	 3.0849886046	 0.48364115	 0.4384793076	-0.419281
C	 0.5219058555	-0.3113264874	 0.6611715481	 0.030509
C	 0.3150222402	 0.8415544251	 1.6513073562	-0.455798
C	 0.1396135051	-1.5803197683	 1.2556106229	 0.275078
C	-0.1755812158	-2.6342462324	 1.7426518005	-0.46338
H	-0.7714074707	 1.9878727876	-0.623115224	 0.121897
H	-1.156156401	 1.1663857995	-2.1426298308	 0.131191
H	-2.0331136856	 0.7326965771	-0.665958697	 0.123298
H	-0.3522233181	-0.9953020364	-1.2375174983	 0.075423
H	 2.2108151893	-1.3325707516	-0.309175198	 0.075422
H	 2.817632948	 1.5155834157	 0.676908501	 0.121896
H	 3.49250318	 0.0055646919	 1.3353858465	 0.123296
H	 3.8730328022	 0.5046501296	-0.3210600544	 0.13119
H	 0.6002009472	 1.8001717218	 1.2122518283	 0.127417
H	-0.7339797242	 0.9005387969	 1.954481204	 0.127475
H	 0.915075003	 0.6835168215	 2.5517307567	 0.127476
H	-0.4533627123	-3.5651188222	 2.1714662563	 0.193667
80.5021	121.0689	161.5209	190.7522	197.0649	234.4282	257.8373	310.1275	320.4343	353.159	470.6508	490.4271	536.0065	536.9891	592.4059	624.8846	630.1302	737.5734	841.5207	874.0208	904.1553	945.0299	991.3304	1050.9735	1076.9541	1092.711	1133.5044	1156.8485	1161.6098	1217.1247	1227.982	1275.2118	1341.8915	1370.8407	1393.4753	1403.8109	1413.4918	1435.039	1477.1149	1479.1409	1483.8898	1498.7068	1501.4995	1510.6029	2229.9432	2991.2567	2998.0137	3041.014	3041.4075	3048.9171	3107.9379	3108.3047	3117.9645	3124.0053	3128.3346	3133.4666	3501.1379
CC1OC(C)C1(C)C#C	C[C@H]1O[C@@H](C)[C@]1(C)C#C	
InChI=1S/C8H12O/c1-5-8(4)6(2)9-7(8)3/h1,6-7H,2-4H3	InChI=1S/C8H12O/c1-5-8(4)6(2)9-7(8)3/h1,6-7H,2-4H3/t6-,7+,8-
