16
gdb 24307	3.11668	2.2631	1.50273	3.0247	73.98	-0.1949	-0.0212	0.1737	847.4756	0.128031	-396.85913	-396.852779	-396.851835	-396.889637	25.654	
C	-0.1240892953	 1.5222343939	-0.0395405193	-0.191737
C	 1.4256470728	 1.7231711123	 0.0505171574	-0.081845
C	 2.1795454811	 2.1904732958	 1.3371537125	-0.185503
N	 2.1417703891	 1.0215725007	 2.27048396	-0.342032
C	 1.5603175863	-0.0421678704	 1.5706695538	 0.209947
C	 1.3886705808	 0.2406364512	 0.2541408372	 0.026868
N	 0.0170738556	-0.0452271311	-0.0617403197	-0.141428
C	-0.367108892	-0.7932330615	 1.0704881208	 0.000033
N	 0.5232845953	-0.8648633659	 2.0275397252	-0.247605
H	-0.6793117812	 1.8351215813	 0.8450549249	 0.144056
H	-0.5993149375	 1.8775134804	-0.9532022434	 0.133897
H	 1.8545999758	 2.1484691489	-0.8588064371	 0.086236
H	 3.2075998178	 2.4436445692	 1.0488556202	 0.112797
H	 1.748423196	 3.07748276	 1.8199554893	 0.110788
H	 2.9624163337	 0.8814473283	 2.8435202798	 0.240176
H	-1.3121615684	-1.3242005031	 1.0974242384	 0.125352
131.7798	263.461	301.8563	353.2204	470.1324	516.9189	648.0155	685.8775	709.9398	742.2165	750.7388	837.4161	861.6858	878.7615	909.9642	960.1833	978.5119	1027.6443	1067.4149	1090.3757	1113.2503	1134.7437	1172.6094	1205.7865	1228.6355	1271.2221	1285.3548	1310.3993	1319.7465	1351.4688	1419.4787	1467.178	1482.6257	1511.5518	1582.2689	3008.4913	3041.2845	3080.1016	3086.1126	3162.8008	3205.2527	3572.6987
C1C2CNC3=C2N1C=N3	C1[C@H]2CN[C]3[C]2N1[CH][N]3	
InChI=1S/C6H7N3/c1-4-2-9-3-8-6(7-1)5(4)9/h3-4,7H,1-2H2	InChI=1S/C6H7N3/c1-4-2-9-3-8-6(7-1)5(4)9/h3-4,7H,1-2H2/t4-/m1/s1
