18
gdb 30049	2.68558	1.54717	0.99373	2.0022	83.43	-0.2209	-0.0323	0.1887	1174.0937	0.147977	-402.016532	-402.007711	-402.006766	-402.050272	32.238	
C	 0.0577214843	 1.4516158533	 0.0156303645	-0.319119
N	-0.0095272916	-0.0030222628	 0.0238751396	-0.056967
C	-0.1091745696	-0.7676491898	-1.0947833139	-0.0815
C	-0.1515265363	-2.1042783527	-0.7355715593	-0.167785
C	-0.0738208065	-2.1469616412	 0.6665609342	-0.224405
C	 0.0143258435	-0.8369425401	 1.1342544492	 0.213419
C	 0.1154706786	-0.3419463402	 2.5023491065	 0.296385
C	 0.128893004	-1.389091309	 3.6074250141	-0.485815
O	 0.1868750941	 0.8489946848	 2.7700546928	-0.357936
H	 0.9826945419	 1.7999961489	 0.4770589366	 0.156162
H	 0.0151449524	 1.784538115	-1.0234905167	 0.122396
H	-0.7740875468	 1.8818115222	 0.5750812093	 0.15604
H	-0.1428016137	-0.303703603	-2.0688364152	 0.125564
H	-0.2292554489	-2.9392539814	-1.4141015924	 0.104034
H	-0.0799736332	-3.0301426701	 1.2866749586	 0.105437
H	 0.9748854065	-2.0734828403	 3.4874573307	 0.138179
H	 0.206882353	-0.8791354651	 4.5680088012	 0.137758
H	-0.7850471118	-1.9913845486	 3.5866992002	 0.138156
76.054	116.9821	145.2444	173.0849	210.1335	226.4163	330.7979	416.2554	496.8498	559.6457	619.4538	638.4312	690.024	710.2298	753.763	809.752	865.5211	896.5089	944.1831	1037.2207	1041.6663	1077.5644	1112.6137	1117.6473	1153.811	1252.5534	1269.4259	1357.9262	1376.9054	1403.5712	1442.0541	1459.4595	1470.9868	1474.5856	1477.4018	1496.8546	1525.2325	1569.7861	1738.4456	3043.4006	3062.8572	3107.4788	3143.1171	3145.3546	3154.2221	3243.0714	3252.1617	3267.7456
CN1C=CC=C1C(C)=O	Cn1cccc1C(=O)C	
InChI=1S/C7H9NO/c1-6(9)7-4-3-5-8(7)2/h3-5H,1-2H3	InChI=1S/C7H9NO/c1-6(9)7-4-3-5-8(7)2/h3-5H,1-2H3
