21
gdb 42078	3.5235	1.24383	1.19599	1.5568	82.06	-0.2392	0.0257	0.2649	1138.4579	0.185054	-387.107269	-387.099338	-387.098393	-387.140221	30.941	
C	-0.0007794638	 1.0912720047	 0.3411085039	-0.070813
C	 1.1404873092	 1.9627627822	-0.231265599	-0.314073
C	 2.2013541463	 0.9322041726	-0.6654081198	 0.339394
C	 1.2732055385	-0.2319735048	-1.0560675278	-0.113306
O	 0.266512714	-0.256666335	-0.0585052253	-0.259669
C	 3.1483096324	 1.3635258214	-1.8150838971	-0.34127
C	 4.4583628303	 0.697760733	-1.4696770403	-0.060752
C	 4.4605762917	 0.2182024196	-0.2273512421	-0.061467
C	 3.1540957006	 0.4772865989	 0.4814818864	-0.304235
H	-0.039193532	 1.1131721836	 1.4360723143	 0.10406
H	-0.9820422892	 1.4101233504	-0.0358258457	 0.094622
H	 0.7906919	 2.5262935751	-1.1028294187	 0.101738
H	 1.5237900639	 2.6853277348	 0.4939127262	 0.101758
H	 0.8396988016	-0.0558531791	-2.0559129786	 0.077147
H	 1.7692175311	-1.2070729311	-1.0626613647	 0.109312
H	 2.7587676248	 1.0661775425	-2.7972803238	 0.099755
H	 3.2664960834	 2.4561390221	-1.8552517839	 0.104063
H	 5.2943734902	 0.6622483359	-2.1595000869	 0.090706
H	 5.2992159376	-0.2733125161	 0.2536646765	 0.090287
H	 3.2771995381	 1.2625362809	 1.2415833772	 0.09808
H	 2.7599329313	-0.3982222214	 1.0101573192	 0.114664
59.0635	93.6311	176.1783	252.5277	368.9743	386.595	398.2337	461.3745	660.7829	708.722	710.0768	777.4958	802.1809	844.0204	902.8764	938.2155	941.969	955.7606	977.0774	978.8155	986.827	989.9332	1028.0987	1084.7902	1112.7891	1125.6413	1144.1275	1165.468	1186.6815	1218.3367	1231.7738	1260.824	1289.5175	1295.255	1310.8311	1346.3352	1355.8588	1373.0531	1400.699	1485.2539	1491.9696	1495.8104	1518.85	1533.8297	1688.8401	2949.9749	2998.8648	3000.2081	3007.0172	3034.5731	3045.1423	3053.4911	3055.5575	3083.4412	3098.6336	3180.396	3205.9648
C1CC2(CO1)CC=CC2	C1C[C@@]2(CO1)CC=CC2	
InChI=1S/C8H12O/c1-2-4-8(3-1)5-6-9-7-8/h1-2H,3-7H2	InChI=1S/C8H12O/c1-2-4-8(3-1)5-6-9-7-8/h1-2H,3-7H2
