23
gdb 120532	5.7862	0.59981	0.5775	3.1498	87.86	-0.2438	-0.0175	0.2263	1977.358	0.204218	-388.299324	-388.289079	-388.288135	-388.33577	36.771	
C	-0.0917898894	 1.6647392746	-0.1201096409	-0.379694
C	-0.0588888083	 0.1344647519	-0.0843444719	-0.16453
C	 0.8000120772	-0.4759913376	-1.1984792304	-0.194403
C	 0.8267867274	-1.9987638359	-1.1822606237	 0.055092
C	-0.4678074327	-2.7716928191	-1.5661468708	-0.25199
C	 0.3818487906	-3.7527437919	-2.4411962395	-0.086466
C	 1.5682741244	-2.7375514938	-2.33036052	-0.272675
C	 0.6657865114	-5.053524859	-1.7446090426	 0.172793
O	 0.5015294612	-6.1476219667	-2.2213236981	-0.259189
H	 0.914642537	 2.0845906174	-0.0133615533	 0.114616
H	-0.5018577712	 2.0299704402	-1.068275642	 0.114362
H	-0.7091962367	 2.0704614066	 0.6872855504	 0.112873
H	 0.3215329556	-0.2022450889	 0.8892309383	 0.095507
H	-1.0824259304	-0.2553495072	-0.1602710929	 0.099843
H	 0.4275955654	-0.134675946	-2.1753527586	 0.088511
H	 1.8280837033	-0.0958014933	-1.1160668511	 0.094499
H	 1.1963233106	-2.3450260587	-0.2096122825	 0.073134
H	-1.0551806005	-3.2137856063	-0.7568321568	 0.107274
H	-1.1378437694	-2.1735235696	-2.1904815434	 0.109391
H	 0.0089619608	-3.9683285337	-3.4436608774	 0.089314
H	 1.6459238514	-2.1277291439	-3.2348660106	 0.109917
H	 2.5558910865	-3.1517063254	-2.108821882	 0.106593
H	 1.0587005257	-4.9399394336	-0.7044060603	 0.065228
45.7223	60.3003	97.6077	102.4306	151.565	243.2489	256.2794	291.6617	337.3172	381.6765	423.9927	475.8188	705.1728	744.7821	806.6918	847.9566	880.4831	886.0663	894.4891	906.283	970.2903	982.8416	1015.6974	1040.7183	1057.0558	1098.4854	1113.0291	1144.6617	1187.0365	1214.1626	1223.4508	1259.9837	1266.9123	1269.6405	1285.9798	1311.7699	1321.0347	1331.9689	1375.0821	1397.4623	1412.7707	1436.4447	1472.3694	1481.3372	1491.9231	1496.658	1499.5488	1510.6597	1829.7535	2831.3985	2996.8818	3015.7439	3022.1746	3029.6998	3034.4913	3051.4082	3054.1453	3055.4287	3095.9969	3097.7872	3102.6527	3104.6267	3110.6038
CCCC1CC(C1)C=O	CCC[C@H]1C[C@@H](C1)C=O	
InChI=1S/C8H14O/c1-2-3-7-4-8(5-7)6-9/h6-8H,2-5H2,1H3	InChI=1S/C8H14O/c1-2-3-7-4-8(5-7)6-9/h6-8H,2-5H2,1H3/t7-,8-
