13
gdb 26058	3.39511	1.1489	1.05474	2.3676	64.22	-0.2702	-0.0345	0.2357	1120.5469	0.090037	-452.770344	-452.762591	-452.761647	-452.80359	27.248	
O	-0.233572223	 1.3538237197	 0.0727024684	-0.394542
C	 0.0063124226	-0.0391169554	-0.0076390769	-0.144224
C	 0.7916826855	-0.3724589747	-1.2199590831	 0.26412
N	 1.4115010834	-0.6126436066	-2.1645813544	-0.313413
C	 0.6483265115	-0.6028986132	 1.2171590313	 0.353799
C	 0.2713589393	-1.4702985007	 2.1865730296	-0.190181
N	 1.2917609573	-1.5851540573	 3.1214777144	-0.250747
C	 2.2132576679	-0.7945790306	 2.6810150541	 0.085464
O	 1.9077519358	-0.157059519	 1.5266006724	-0.185077
H	 0.6155266983	 1.7961949289	 0.192843456	 0.304248
H	-0.9783763575	-0.5067402855	-0.1082887775	 0.162822
H	-0.6520802021	-2.0194454161	 2.2800433208	 0.142819
H	 3.1796415709	-0.5817881496	 3.110144405	 0.164913
54.2812	100.35	163.8986	212.0134	295.5417	367.9679	413.2442	473.4622	596.6659	664.0285	714.4826	775.6651	852.3763	877.3736	921.2841	940.2956	986.0096	1051.2318	1117.687	1139.0689	1233.8412	1249.3221	1271.9855	1307.8664	1363.523	1412.8225	1543.6189	1635.2742	2359.3533	3079.13	3267.8475	3281.568	3798.5382
OC(C#N)C1=CN=CO1	O[C@@H](C#N)c1cnco1	
InChI=1S/C5H4N2O2/c6-1-4(8)5-2-7-3-9-5/h2-4,8H	InChI=1S/C5H4N2O2/c6-1-4(8)5-2-7-3-9-5/h2-4,8H/t4-/m0/s1
