22
gdb 113438	4.63588	0.77572	0.73587	2.0353	83.54	-0.2373	0.0738	0.3111	1627.34	0.193336	-404.313953	-404.304294	-404.30335	-404.34879	36.496	
C	 0.7980097602	 1.5648199153	 0.386720464	-0.373451
C	-0.0825478009	 0.4087255141	-0.0995380011	-0.181605
C	 0.490535145	-0.2806304995	-1.3171110999	-0.086114
N	 1.5884129934	-1.2461286945	-1.0703594912	-0.379452
C	 0.3028633257	-1.7185351706	-1.5956014566	 0.345801
C	-0.5111754776	-2.7955608146	-0.8663461187	-0.32804
C	-0.3295524812	-3.6956344239	-2.1254540973	 0.168748
O	-1.4002522946	-4.4769524671	-2.5862660817	-0.432755
C	 0.1145935538	-2.4402081418	-2.9367269645	-0.355951
H	 1.798767601	 1.2012522044	 0.6390291987	 0.130482
H	 0.9046227795	 2.3352307061	-0.3854803091	 0.108454
H	 0.3738122325	 2.0416208305	 1.2756017609	 0.109929
H	-0.1969223273	-0.3308710331	 0.7003816279	 0.104483
H	-1.0891569846	 0.7774512715	-0.3381099019	 0.091241
H	 0.5979732359	 0.3618131735	-2.1928437109	 0.074399
H	 2.2752499199	-1.1965026338	-1.8197715888	 0.22439
H	-0.1166269866	-3.1619565191	 0.0830771046	 0.114294
H	-1.5602908344	-2.5041509027	-0.7328026848	 0.091112
H	 0.5047526272	-4.3892854319	-1.9926357407	 0.10051
H	-2.1678097567	-3.9033654672	-2.6850495134	 0.276003
H	-0.7176900822	-2.0270485491	-3.5194990275	 0.095604
H	 0.9845017419	-2.5405432467	-3.592683428	 0.101916
56.0077	79.6968	126.2679	182.5321	254.0593	280.0435	294.2764	340.3801	358.4024	447.4416	457.0213	471.631	594.2113	716.5638	765.3564	809.672	822.6352	888.7485	908.2888	941.1782	959.1508	982.6722	1031.3386	1038.2668	1058.7529	1079.4181	1096.3517	1115.8446	1135.474	1175.3292	1208.0204	1228.6862	1241.1539	1258.9611	1287.2402	1304.5529	1332.2796	1337.1135	1372.0008	1406.824	1435.0766	1460.2662	1475.5163	1476.7797	1496.891	1500.9006	1510.0597	3020.999	3028.6756	3032.1757	3036.8755	3066.3741	3076.3227	3090.565	3093.9239	3101.1381	3112.9209	3118.0135	3484.5054	3802.9633
CCC1NC11CC(O)C1	CC[C@H]1N[C@]21C[C@@H](O)C2	
InChI=1S/C7H13NO/c1-2-6-7(8-6)3-5(9)4-7/h5-6,8-9H,2-4H2,1H3	InChI=1S/C7H13NO/c1-2-6-7(8-6)3-5(9)4-7/h5-6,8-9H,2-4H2,1H3/t5-,6-,7-/m1/s1
