20
gdb 14175	3.63535	1.70653	1.65954	1.4843	74.58	-0.2425	0.0851	0.3276	914.0268	0.177809	-349.003558	-348.99569	-348.994746	-349.035074	30.664	
C	-0.0341621658	 1.5578711153	 0.0476461413	-0.473691
C	 0.0441770938	 0.040726709	 0.0302701526	 0.334308
C	-1.2448099168	-0.6182844464	-0.4344794615	-0.451239
C	 1.3150231785	-0.6914848918	-0.3545833267	-0.105485
C	 2.6400408259	 0.0455049661	-0.3047501823	-0.103735
O	 2.7061322948	 0.6854287029	 0.9690820621	-0.2546
C	 1.8798525813	-0.0190421154	 1.8950952709	-0.103741
C	 0.8198953126	-0.733503798	 1.0781816409	-0.105477
H	 0.8954854071	 2.0188840879	 0.3826151524	 0.14502
H	-0.2642911178	 1.9387113104	-0.9545254307	 0.109558
H	-0.8406624309	 1.8898738293	 0.7122315781	 0.109554
H	-1.5042066963	-0.2987917913	-1.4506657885	 0.114416
H	-1.1633362213	-1.7099732996	-0.4385494403	 0.109891
H	-2.0815130062	-0.3481037682	 0.2204458339	 0.114416
H	 1.243640504	-1.5581741585	-1.0032179195	 0.081907
H	 3.4670819097	-0.6720246185	-0.4296997379	 0.092488
H	 2.7546716495	 0.8291716746	-1.0624508726	 0.106008
H	 2.4664765654	-0.7569958448	 2.4658457507	 0.092489
H	 1.4884284945	 0.7216547638	 2.6018761622	 0.106007
H	 0.3792349179	-1.6315244466	 1.4981201048	 0.081907
175.8508	216.2853	217.5565	219.869	242.4452	283.2264	352.8431	439.225	448.4301	674.5086	681.1144	748.7002	814.8874	860.0057	917.9553	961.2645	971.9632	989.4628	996.0928	1007.6405	1049.3385	1057.4017	1113.8179	1117.8554	1126.0959	1159.093	1218.7951	1225.5171	1245.2275	1313.7531	1316.6092	1356.9427	1383.0331	1406.1094	1418.861	1446.1314	1488.0862	1490.5117	1509.0893	1510.9153	1520.5886	1526.8906	2970.7595	2976.8505	3019.554	3026.5518	3051.7106	3054.7677	3075.5421	3081.9551	3095.8405	3144.4634	3161.0057	3170.2067
CC1(C)C2COCC12	CC1(C)[C@H]2COC[C@@H]12	
InChI=1S/C7H12O/c1-7(2)5-3-8-4-6(5)7/h5-6H,3-4H2,1-2H3	InChI=1S/C7H12O/c1-7(2)5-3-8-4-6(5)7/h5-6H,3-4H2,1-2H3/t5-,6+
