16
gdb 127595	2.05151	1.93769	1.00398	1.9651	83.74	-0.1951	-0.0094	0.1857	1134.0332	0.124365	-396.917619	-396.908517	-396.907573	-396.952528	32.821	
C	-0.0141056225	 1.403508681	 0.0018496037	-0.329683
N	-0.0153594192	-0.0425171093	 0.0229511071	-0.056735
N	-0.0321529786	-0.740052962	-1.1121807769	-0.246625
C	-0.0333311951	-2.025298525	-0.7479985338	-0.066275
C	-0.0118548048	-2.1675563762	 0.6531071174	 0.073931
N	-0.073277184	-3.336143668	 1.4089290166	-0.622308
C	 0.0029670864	-0.8567470848	 1.1346918797	 0.22565
C	 0.0348300658	-0.3834969524	 2.4561590091	 0.22907
C	 0.0722303553	-0.0013838671	 3.6003661222	-0.451948
H	 0.8795867793	 1.7994537542	 0.4939013306	 0.143036
H	-0.0231866514	 1.7084635411	-1.0437807525	 0.159828
H	-0.898274942	 1.8010346916	 0.5096165414	 0.144107
H	-0.0507665435	-2.800406011	-1.4997844856	 0.107033
H	 0.4016771076	-4.1202280598	 0.9832170014	 0.248649
H	 0.2413877939	-3.2081742018	 2.3619218178	 0.250632
H	 0.0920813126	 0.3387652196	 4.6058658518	 0.191637
18.5981	122.0015	135.0691	179.6736	241.9857	279.8068	329.8721	388.9659	457.1948	501.1671	551.1623	577.4576	646.8863	665.9095	691.1154	693.0895	740.0387	805.7382	836.2175	1026.9679	1072.8192	1121.9921	1150.7649	1223.3377	1262.8417	1378.8712	1397.7326	1418.2519	1454.0154	1479.5741	1502.4079	1525.1386	1602.5093	1654.888	2215.4478	3042.355	3100.9432	3168.017	3245.6636	3501.6647	3543.5167	3638.2981
CN1N=CC(N)=C1C#C	Cn1ncc(N)c1C#C	
InChI=1S/C6H7N3/c1-3-6-5(7)4-8-9(6)2/h1,4H,7H2,2H3	InChI=1S/C6H7N3/c1-3-6-5(7)4-8-9(6)2/h1,4H,7H2,2H3
