18
gdb 54372	3.21248	1.37445	1.27364	2.384	76.99	-0.2397	-0.0215	0.2182	1068.1938	0.147581	-401.904413	-401.896398	-401.895454	-401.937639	30.038	
C	 0.3149776426	 0.8476857349	-1.0307484625	-0.49892
C	-0.0767951259	 0.2042747989	 0.2860596501	 0.204857
O	 0.5503769205	 0.3616808245	 1.3130633657	-0.311882
C	-1.2773446855	-0.6520097214	 0.2616459642	 0.319865
C	-1.797132081	-1.6788301149	-0.7029883112	-0.082587
C	-2.1404194622	-2.6354913141	 0.4392531829	-0.243798
C	-2.168697979	-1.3706775261	 1.3397714646	-0.139523
C	-3.325751975	-0.5682593917	 0.7238696863	-0.150204
N	-2.5285234829	-0.393746285	-0.5417070664	-0.185541
H	 1.0766304184	 1.6066039408	-0.8482230325	 0.141317
H	 0.7248331281	 0.0885209075	-1.7072732596	 0.140303
H	-0.5591672141	 1.2824276587	-1.5231756327	 0.156677
H	-1.4398358012	-1.9028405633	-1.6998721336	 0.109447
H	-3.0569058786	-3.2308209125	 0.3692691633	 0.101542
H	-1.2897515844	-3.2819260558	 0.6658520218	 0.118854
H	-1.9862806762	-1.4280680924	 2.4089765277	 0.097123
H	-4.2918762073	-1.0685838811	 0.591816188	 0.102299
H	-3.4690381263	 0.4163047431	 1.1736111439	 0.120169
57.9206	98.822	143.5068	161.829	326.0934	453.8498	457.3915	478.9686	586.7552	606.6958	732.5018	746.6387	826.7237	843.5562	887.2654	921.7347	961.5842	973.2349	988.593	1002.188	1034.7684	1046.6991	1070.8009	1099.9336	1131.8876	1153.1093	1186.9924	1196.6637	1232.5286	1260.7279	1283.8608	1321.3006	1373.3729	1411.122	1468.5373	1470.8468	1491.1553	1513.8696	1780.2902	3039.7033	3041.2225	3048.923	3109.1966	3115.5233	3117.9995	3156.4669	3163.9417	3203.2363
CC(=O)C12C3CC1CN23	CC(=O)[C@@]12[C@H]3C[C@@H]1CN23	
InChI=1S/C7H9NO/c1-4(9)7-5-2-6(7)8(7)3-5/h5-6H,2-3H2,1H3	InChI=1S/C7H9NO/c1-4(9)7-5-2-6(7)8(7)3-5/h5-6H,2-3H2,1H3/t5-,6-,7+,8?/m1/s1
