16
gdb 32145	2.86028	1.43298	0.96106	3.1617	77.76	-0.2091	-0.0241	0.185	1176.0068	0.126073	-434.122446	-434.114396	-434.113452	-434.154994	30.276	
C	-0.0208240281	 1.4103618545	 0.0052869548	-0.231754
O	-0.0351464168	-0.0152939304	 0.0281095154	-0.261339
C	-1.2352968601	-0.6204662653	 0.0124751137	 0.41416
C	-1.2539206467	-2.0242939265	 0.0300470006	-0.112284
N	-2.408784398	-2.6783069834	 0.0209889372	-0.219959
C	-3.532053443	-1.9651777215	-0.0107951643	-0.084193
C	-3.5046047808	-0.5621646346	-0.0303659843	 0.356244
N	-4.6538251765	 0.1932154749	-0.1152768845	-0.567428
N	-2.3420736437	 0.1066232961	-0.0125477802	-0.409322
H	 1.0328967597	 1.6919931625	 0.014704329	 0.13042
H	-0.5080932772	 1.795883472	-0.8951163735	 0.134012
H	-0.5307485029	 1.8246999742	 0.8801408076	 0.130578
H	-0.3293518245	-2.5904189873	 0.0548165833	 0.113261
H	-4.4740356633	-2.5068637386	-0.0229440111	 0.095429
H	-5.5065361699	-0.2330801161	 0.2106721389	 0.256507
H	-4.5406668381	 1.1616562495	 0.1430973576	 0.255669
107.907	166.8522	204.0609	210.2756	254.7794	372.2186	408.0574	474.5471	481.5228	520.1605	570.908	630.4314	700.8459	734.7133	780.2537	860.3009	901.5072	994.7526	1014.2309	1061.2619	1123.9712	1178.3345	1200.2097	1217.4577	1273.3682	1314.2789	1382.564	1446.5428	1480.5628	1482.6599	1501.6165	1518.0883	1593.3036	1613.5766	1643.6859	3039.2913	3108.3029	3146.7048	3156.629	3187.54	3583.0944	3698.4047
COC1=CN=CC(N)=N1	COc1cncc(N)n1	
InChI=1S/C5H7N3O/c1-9-5-3-7-2-4(6)8-5/h2-3H,1H3,(H2,6,8)	InChI=1S/C5H7N3O/c1-9-5-3-7-2-4(6)8-5/h2-3H,1H3,(H2,6,8)
