16
gdb 19979	3.326	1.99411	1.5604	1.4123	59.93	-0.2559	0.0625	0.3184	841.1191	0.130594	-420.824975	-420.817702	-420.816758	-420.856822	26.95	
O	 0.0401434382	 1.4343199725	-0.1204389227	-0.431133
C	 0.0196352164	 0.0537520012	 0.0772202232	 0.08377
C	-0.2315651366	-0.4999342761	 1.4987926859	-0.108297
O	-1.3409749819	-1.3020752513	 1.033039435	-0.290637
C	-1.2719213097	-0.7491435051	-0.2956313467	 0.054129
C	-2.4721529322	 0.0913023436	-0.6505803069	 0.051783
C	-3.6855591417	 0.0692007098	 0.1747157153	-0.169069
O	-2.764534053	 1.164852114	 0.2591254227	-0.25861
H	-0.7763608975	 1.7947409967	 0.2496618526	 0.305518
H	 0.9218611685	-0.3418997627	-0.3935406005	 0.102055
H	 0.5598024169	-1.1150048886	 1.9413404743	 0.106054
H	-0.5493364157	 0.264788	 2.2183277412	 0.107485
H	-1.142013398	-1.5346408135	-1.0521757964	 0.079953
H	-2.5543638579	 0.3651232117	-1.702569471	 0.105775
H	-4.6459441215	 0.3123891116	-0.275419847	 0.119728
H	-3.7044356743	-0.5796798938	 1.0453972409	 0.141496
83.4961	118.8996	196.0939	247.3655	338.622	418.9751	516.5097	554.242	623.4332	762.8603	782.9986	849.3342	886.6084	921.5617	971.5756	982.1413	1023.	1054.0472	1096.1903	1107.7653	1152.9789	1156.7799	1172.1171	1175.3928	1230.2798	1263.2122	1283.9283	1327.4163	1341.0824	1374.3552	1421.711	1460.9379	1508.4782	1516.7472	3015.6294	3022.6337	3071.0127	3098.5546	3102.9321	3117.4917	3206.8688	3768.0923
OC1COC1C1CO1	O[C@H]1CO[C@H]1[C@H]1CO1	
InChI=1S/C5H8O3/c6-3-1-8-5(3)4-2-7-4/h3-6H,1-2H2	InChI=1S/C5H8O3/c6-3-1-8-5(3)4-2-7-4/h3-6H,1-2H2/t3-,4+,5+/m0/s1
