17
gdb 47233	2.45326	1.79337	1.27885	3.2048	73.85	-0.2347	-0.0083	0.2264	1003.6884	0.139341	-418.012544	-418.005152	-418.004208	-418.044297	29.19	
O	 0.05458286	-0.0011605371	-0.4875663035	-0.379255
C	-0.0023808433	 1.1376695815	-0.0517311462	 0.413266
N	-1.1981178098	 1.761222094	 0.1563694694	-0.322099
C	-1.4691493302	 3.1559311667	 0.5197016286	-0.217609
C	-0.8255648389	 4.1571221625	-0.4160527367	-0.097111
C	 0.4827795068	 4.2084059136	-0.6675031627	-0.00263
C	 1.5147993909	 3.3261672806	-0.0673926268	-0.077673
N	 1.3297249251	 2.8703359456	 1.3202117934	-0.339191
C	 1.2787434498	 1.8695150495	 0.2503472048	-0.129728
H	-1.9775491819	 1.1983084577	-0.150023434	 0.246482
H	-2.5548117139	 3.2720604478	 0.4900886282	 0.109222
H	-1.1479186396	 3.3401881561	 1.547805245	 0.153858
H	-1.484622771	 4.8576233375	-0.9205690346	 0.099277
H	 0.8559124459	 4.9374916181	-1.3818144884	 0.093696
H	 2.5326949906	 3.5502613358	-0.3767272543	 0.095883
H	 2.2215827473	 2.820332699	 1.8037149139	 0.243616
H	 2.1256906223	 1.202980591	 0.116936624	 0.109996
91.2092	216.8184	251.7506	295.3148	337.7035	391.2387	449.0605	521.8746	582.8378	639.2612	688.091	726.3615	789.304	805.9529	836.0745	875.9133	921.6056	940.9181	986.3614	989.7288	1041.8068	1075.278	1129.6483	1165.2912	1198.4977	1219.3191	1259.898	1303.1219	1342.2479	1387.5491	1414.6014	1430.6593	1460.042	1467.4765	1498.9617	1720.9467	1769.1398	3068.4769	3108.6574	3134.2204	3156.5551	3162.0273	3178.5861	3515.2337	3618.0864
O=C1NCC=CC2NC12	O=C1NCC=C[C@H]2N[C@@H]12	
InChI=1S/C6H8N2O/c9-6-5-4(8-5)2-1-3-7-6/h1-2,4-5,8H,3H2,(H,7,9)	InChI=1S/C6H8N2O/c9-6-5-4(8-5)2-1-3-7-6/h1-2,4-5,8H,3H2,(H,7,9)/t4-,5-/m1/s1
