20
gdb 100399	2.40381	1.03639	0.87984	0.7942	84.25	-0.245	0.0233	0.2683	1436.2288	0.166809	-403.121938	-403.111027	-403.110082	-403.158297	38.614	
C	-0.2955721235	 1.3327299781	-0.092272982	-0.226598
O	 0.1221746121	-0.0294680067	-0.0011578236	-0.237593
C	 0.7258543548	-0.5471076348	-1.0909471218	 0.416247
C	 1.1229941562	-1.9825746179	-0.8558889035	-0.49771
N	 0.893962943	 0.1631452893	-2.1301640876	-0.304685
C	 1.5494838817	-0.4263464331	-3.3018031891	-0.13236
C	 1.1901684234	 0.4119259234	-4.5390278993	-0.378479
C	 3.0056956247	-0.4969469786	-3.12332766	 0.373957
C	 4.1983691729	-0.5490650945	-2.9781544891	-0.503805
H	 0.5568477912	 1.9879163309	-0.2911718251	 0.13661
H	-1.0235034406	 1.4635287062	-0.8978844773	 0.131982
H	-0.7452598053	 1.5672234985	 0.8736117888	 0.123549
H	 0.8728274989	-2.2841637988	 0.1609200878	 0.140543
H	 0.603206963	-2.6426571347	-1.5583875858	 0.143786
H	 2.1963535153	-2.1062745509	-1.0234421614	 0.159785
H	 1.1892158109	-1.4533406911	-3.4756216115	 0.095148
H	 1.6503435366	-0.0051265584	-5.4388124836	 0.116278
H	 0.104243015	 0.4272006854	-4.6650003851	 0.115464
H	 1.5373147843	 1.4392302007	-4.4055805045	 0.131579
H	 5.2515366054	-0.593235223	-2.8496927865	 0.1963
47.7392	87.0666	111.6521	158.3347	173.7494	181.7186	208.107	232.5406	290.0443	305.0826	364.5621	467.8655	534.5402	555.5205	586.1061	623.4209	640.4853	653.0847	797.6295	849.6156	951.9117	1012.0762	1057.2234	1071.0377	1079.183	1114.7656	1137.5372	1180.0776	1220.1328	1302.9781	1327.8349	1345.7799	1398.8289	1403.1568	1468.3848	1474.6643	1483.557	1484.9369	1489.1985	1493.9694	1498.9715	1726.5819	2228.2529	2962.7591	3044.7107	3047.5289	3049.282	3112.2086	3116.582	3125.5838	3133.6286	3147.8035	3157.2145	3503.4515
COC(C)=NC(C)C#C	COC(=N[C@@H](C)C#C)C	
InChI=1S/C7H11NO/c1-5-6(2)8-7(3)9-4/h1,6H,2-4H3	InChI=1S/C7H11NO/c1-5-6(2)8-7(3)9-4/h1,6H,2-4H3/t6-/m0/s1
