20
gdb 93592	4.4648	0.93148	0.79921	4.762	88.12	-0.2586	-0.0335	0.2251	1435.0058	0.172479	-366.063371	-366.054678	-366.053733	-366.096652	33.107	
C	 0.000580583	 1.5749998339	 0.0028471714	-0.406224
C	 0.0182569795	 0.0447909989	-0.0058759956	 0.029853
C	 0.6966520012	-0.5211394556	-1.26218073	-0.205843
C	 0.5989835655	-2.050577685	-1.3202548056	-0.310657
C	 0.9430088606	-2.6836358085	 0.0146870854	 0.163767
C	 1.0002936512	-1.9867522194	 1.1596208128	-0.125067
C	 0.7061170632	-0.5177869836	 1.2498916197	-0.25001
C	 1.211252538	-4.0881365929	 0.0154709806	 0.21406
N	 1.421004688	-5.2270542342	-0.0228488229	-0.339039
H	 1.0191645442	 1.9790814237	-0.0341623975	 0.116064
H	-0.5458240223	 1.9693095259	-0.8599782238	 0.115928
H	-0.4781087054	 1.9632510577	 0.9082037483	 0.114675
H	-1.0216153738	-0.3124211123	-0.0005656353	 0.080196
H	 0.2482519923	-0.0900261408	-2.1638099799	 0.100196
H	 1.7535717792	-0.2220409046	-1.2629581885	 0.103021
H	-0.4140957037	-2.3598850008	-1.6113307226	 0.125891
H	 1.2645757456	-2.4502297731	-2.0931045293	 0.125172
H	 1.2737584791	-2.500028409	 2.0773184946	 0.113224
H	 1.6496048943	 0.0208231736	 1.4336372783	 0.11888
H	 0.0913582201	-0.3266360741	 2.1390709097	 0.115912
74.3022	149.6873	197.2886	205.7615	236.7359	305.0381	358.4515	384.6607	417.0096	496.6908	567.3946	583.3034	631.3484	755.2907	801.7612	843.2251	915.1289	926.4116	959.1665	967.6399	1024.2108	1038.9836	1094.1042	1115.1986	1156.1332	1159.7522	1175.5106	1253.8707	1276.8216	1325.4901	1334.6681	1340.2606	1378.6503	1384.2926	1400.8336	1414.0679	1464.5144	1478.5336	1492.7047	1497.6042	1499.6126	1697.8929	2333.4006	2985.8682	3001.4807	3017.5623	3021.8598	3027.1545	3039.2922	3065.4176	3072.247	3092.6654	3101.0406	3171.6482
CC1CCC(=CC1)C#N	C[C@H]1CCC(=CC1)C#N	
InChI=1S/C8H11N/c1-7-2-4-8(6-9)5-3-7/h4,7H,2-3,5H2,1H3	InChI=1S/C8H11N/c1-7-2-4-8(6-9)5-3-7/h4,7H,2-3,5H2,1H3/t7-/m1/s1
