17
gdb 105023	2.37885	1.36961	0.98931	0.3399	69.23	-0.2656	0.0233	0.2889	1190.545	0.133192	-458.891324	-458.881987	-458.881043	-458.925436	34.779	
O	 0.7690306139	-1.513444988	-0.2169532069	-0.414442
C	-0.131814802	-0.5947561554	-0.7967169154	-0.148455
C	-1.5041589909	-0.6612404519	-0.1412597902	 0.331324
C	-1.9657170176	-1.9197496766	 0.4482131839	-0.224862
O	-1.4542212521	-0.8507178305	 1.2821260481	-0.295012
C	-2.5576239161	 0.3722201759	-0.5743594339	-0.129273
O	-3.7165144723	 0.2740877259	 0.2323248756	-0.411138
C	-2.0122284989	 1.7379522662	-0.5686660154	 0.312876
C	-1.580076691	 2.8591865648	-0.5445872339	-0.44881
H	 0.7251706855	-1.3610217498	 0.7357378502	 0.293862
H	 0.2426273552	 0.4366391592	-0.7333091203	 0.115494
H	-0.2180106202	-0.8516260527	-1.8586877903	 0.118853
H	-3.0312632863	-2.0991134229	 0.5518165439	 0.134259
H	-1.3173613331	-2.7888418174	 0.3877478621	 0.13525
H	-2.8792599796	 0.1242437984	-1.5938770903	 0.129211
H	-3.4014659052	 0.3088255396	 1.1465051897	 0.295728
H	-1.2048810994	 3.8530205453	-0.529168977	 0.205135
65.0867	113.6805	142.5937	215.4621	237.7137	286.7096	338.6548	364.2658	394.0624	455.7253	473.3757	485.0639	580.4211	636.6517	664.7995	672.7124	746.0843	858.2145	874.225	931.7938	994.6936	1050.6771	1061.2149	1106.6223	1134.3845	1180.6518	1187.2594	1235.9199	1277.9784	1315.4217	1368.3681	1410.2415	1429.9295	1436.3778	1501.7335	1508.4863	2232.4153	3010.7511	3036.2741	3070.1407	3121.3607	3222.0417	3500.4296	3756.0023	3777.9369
OCC1(CO1)C(O)C#C	OC[C@]1(CO1)[C@@H](O)C#C	
InChI=1S/C6H8O3/c1-2-5(8)6(3-7)4-9-6/h1,5,7-8H,3-4H2	InChI=1S/C6H8O3/c1-2-5(8)6(3-7)4-9-6/h1,5,7-8H,3-4H2/t5-,6-/m0/s1
