18
gdb 18829	4.19949	2.07094	1.72367	0.3296	76.16	-0.2088	0.0262	0.235	821.0745	0.155758	-310.64687	-310.640396	-310.639452	-310.677052	26.666	
C	-0.0171542425	 1.5061349698	 0.0682771701	-0.499347
C	-0.0741484126	 0.0145869122	-0.002638444	 0.323975
C	 0.0032995284	-0.7771267581	-1.0806399786	-0.188236
C	-0.0070380426	-2.2084263025	-0.6638454793	-0.0686
C	 0.9350505038	-2.6585133579	 0.4858133257	-0.065354
C	 1.4316974435	-1.4758230291	 1.3078846849	-0.227319
C	-0.0278404002	-0.8690970823	 1.2323858546	-0.144103
C	-0.5035746625	-2.2803588585	 0.7538557349	-0.074333
H	 0.8719767337	 1.8504303627	 0.6132087125	 0.124072
H	 0.0064645903	 1.9554288327	-0.9285347538	 0.121851
H	-0.8843472491	 1.9130070081	 0.6046488395	 0.121377
H	 0.1095490835	-0.4479944448	-2.107654644	 0.085364
H	-0.2747648076	-2.9947005756	-1.3605582443	 0.078526
H	 1.3872426974	-3.6428047988	 0.450054211	 0.081558
H	 1.6634015913	-1.7961387125	 2.327003933	 0.100228
H	 2.2501219352	-0.8593229823	 0.9196431223	 0.088142
H	-0.4257137438	-0.4443219248	 2.1539312567	 0.061268
H	-1.3433899663	-2.8647461282	 1.1101967689	 0.080929
171.0589	187.5124	289.9492	367.3556	458.7323	562.0848	579.1175	720.6454	746.6603	777.7863	789.5028	825.5077	849.7559	878.3318	911.4626	960.0699	973.1925	990.8942	1008.8272	1019.7496	1050.8846	1060.5499	1082.0955	1091.1254	1133.3791	1178.226	1197.879	1227.9656	1263.2217	1271.1573	1317.3291	1341.9015	1375.6346	1413.4931	1478.5833	1488.2506	1490.3476	1693.6099	3010.7283	3035.1774	3053.215	3097.2677	3105.7595	3110.9253	3171.9445	3172.9245	3187.5887	3200.4561
CC1=CC2C3CC1C23	CC1=C[C@H]2[C@H]3C[C@@H]1[C@@H]23	
InChI=1S/C8H10/c1-4-2-6-7-3-5(4)8(6)7/h2,5-8H,3H2,1H3	InChI=1S/C8H10/c1-4-2-6-7-3-5(4)8(6)7/h2,5-8H,3H2,1H3/t5-,6-,7+,8-/m0/s1
