13
gdb 10462	3.03189	1.58065	1.17199	4.5511	59.13	-0.27	-0.0477	0.2223	978.9494	0.092859	-398.58729	-398.579341	-398.578397	-398.620763	26.99	
O	-0.4126468374	 0.282472036	 0.4930529852	-0.226252
C	 0.2475967089	 0.8574313757	-0.3289987318	 0.164344
C	 1.1649687274	 2.0297795763	 0.0024863702	-0.358461
C	 1.2448195195	 3.0512914914	-1.1154983594	 0.217559
C	 2.5189878573	 3.7069250456	-1.4771535759	-0.203541
O	 1.9884128347	 2.6522232299	-2.2735283273	-0.242195
C	 0.0084402544	 3.7605423881	-1.4081152787	 0.274803
N	-0.9843009555	 4.3157172937	-1.6116341116	-0.315798
H	 0.2544097377	 0.5475591594	-1.3964183098	 0.107981
H	 0.8353792068	 2.4840757959	 0.9408469365	 0.149473
H	 2.1718617406	 1.6210273958	 0.1548089306	 0.147131
H	 2.5009999783	 4.6934543192	-1.934160943	 0.149071
H	 3.4067313775	 3.463037743	-0.896352325	 0.135884
53.1008	69.2664	144.1272	204.0802	249.365	330.9468	418.6734	460.0575	574.5727	595.9524	689.9962	777.2359	850.1734	928.7979	951.3666	1032.7861	1059.4595	1133.6621	1169.4052	1187.2948	1269.4607	1298.583	1376.1123	1424.8181	1437.3688	1520.8767	1841.2518	2360.8096	2905.0848	3041.2668	3097.0298	3111.8412	3195.4236
O=CCC1(CO1)C#N	O=CC[C@]1(CO1)C#N	
InChI=1S/C5H5NO2/c6-3-5(1-2-7)4-8-5/h2H,1,4H2	InChI=1S/C5H5NO2/c6-3-5(1-2-7)4-8-5/h2H,1,4H2/t5-/m1/s1
