16
gdb 10982	2.98423	2.50412	1.81192	1.7762	64.28	-0.2293	0.0106	0.2399	766.2272	0.130376	-383.699002	-383.691934	-383.69099	-383.729703	28.245	
O	 0.0976660898	 1.3925144759	 0.103255392	-0.454477
C	 0.0509415738	-0.0095216148	 0.0920732767	 0.149502
C	-0.0024462168	-0.6589969061	 1.5244858522	-0.104329
C	-1.5100376337	-0.2369229754	 1.5539819047	-0.282958
C	-1.3905366073	-0.6269443291	 0.0385249166	 0.32086
O	-2.2420997505	-0.1556277755	-0.9586430191	-0.498392
C	-1.0279012151	-2.1135548598	 0.1389560383	-0.165834
C	-0.113009957	-2.1297759198	 1.1143238901	-0.084953
H	-0.4271072424	 1.6983644393	-0.6460802347	 0.292112
H	 0.7812554153	-0.442916712	-0.6038028629	 0.065548
H	 0.696924052	-0.369448433	 2.305285227	 0.074394
H	-2.1833689589	-0.8319831649	 2.1750060597	 0.085946
H	-1.6472722978	 0.8348511675	 1.7026750042	 0.111242
H	-3.1480507412	-0.3890016867	-0.7311393238	 0.284443
H	-1.4052479278	-2.9047601656	-0.4937986665	 0.102759
H	 0.4628042574	-2.95294038	 1.5133172054	 0.104138
152.0746	210.0787	273.972	302.8688	385.7058	412.5701	459.8166	539.078	592.1232	650.4303	692.9513	703.8099	850.8686	858.172	908.3404	926.8876	946.7554	964.9232	1009.2688	1053.117	1077.583	1097.8534	1129.1579	1160.4893	1199.1035	1215.1772	1247.5484	1261.8649	1301.2911	1335.2856	1366.458	1385.4125	1483.3994	1621.2688	3021.8683	3070.3436	3146.5768	3148.8375	3216.2505	3242.9391	3791.6895	3814.3517
OC1C2CC1(O)C=C2	O[C@H]1[C@H]2C[C@]1(O)C=C2	
InChI=1S/C6H8O2/c7-5-4-1-2-6(5,8)3-4/h1-2,4-5,7-8H,3H2	InChI=1S/C6H8O2/c7-5-4-1-2-6(5,8)3-4/h1-2,4-5,7-8H,3H2/t4-,5+,6-/m1/s1
