18
gdb 112529	2.10769	1.39447	1.25502	4.967	72.42	-0.2669	0.0294	0.2963	1131.887	0.146789	-439.074855	-439.065688	-439.064744	-439.10908	33.18	
C	 0.3622635187	 0.6006608746	-0.6792317662	-0.240047
O	-0.085290232	-0.5710090487	-0.0282455099	-0.255339
C	-1.4542700309	-0.5762500646	 0.300235948	 0.079098
C	-2.3706844144	-0.9783450443	-0.8877861708	-0.267104
C	-2.2427237676	-2.4794565443	-0.4629580622	-0.230472
C	-1.2367324525	-3.2237344002	-1.1989481126	 0.288724
N	-0.4327849948	-3.8191648315	-1.7790855687	-0.332423
C	-1.7399205885	-1.9586859887	 0.9490635187	 0.144493
O	-0.7052754	-2.5969808098	 1.606480508	-0.415001
H	 1.4342546031	 0.4829670321	-0.8486700508	 0.141838
H	-0.134578376	 0.7487481968	-1.6477219768	 0.117267
H	 0.1895483978	 1.4905467835	-0.056379325	 0.114298
H	-1.722409836	 0.3260334184	 0.8662878231	 0.072229
H	-3.3942991309	-0.6177977036	-0.7657808098	 0.118818
H	-2.0147968892	-0.7243852781	-1.8864292458	 0.132004
H	-3.1702860454	-3.0556784912	-0.4433799439	 0.12206
H	-2.5974774573	-1.9113575913	 1.6252616282	 0.103335
H	 0.107681136	-2.363606529	 1.1370823264	 0.306224
65.0984	116.3897	133.7345	175.346	197.6041	230.2986	318.82	376.4287	422.2743	440.8215	509.0264	589.8112	637.1665	732.8891	782.474	834.3523	895.3482	933.3511	1002.7019	1031.3898	1076.4686	1109.5498	1138.5125	1166.9554	1180.4269	1183.5831	1222.4988	1253.353	1260.3599	1277.2156	1317.5385	1357.0801	1377.2973	1445.9987	1470.5982	1481.3377	1489.7676	1507.6055	2352.7192	2990.7283	3012.6219	3045.9315	3079.0906	3081.4447	3094.4995	3129.7955	3144.57	3760.0947
COC1CC(C#N)C1O	CO[C@H]1C[C@@H](C#N)[C@H]1O	
InChI=1S/C6H9NO2/c1-9-5-2-4(3-7)6(5)8/h4-6,8H,2H2,1H3	InChI=1S/C6H9NO2/c1-9-5-2-4(3-7)6(5)8/h4-6,8H,2H2,1H3/t4-,5-,6+/m0/s1
