17
gdb 41502	3.1884	1.61422	1.13281	1.469	84.03	-0.2152	-0.0419	0.1733	1049.5574	0.137987	-384.681521	-384.674539	-384.673595	-384.712771	27.931	
C	-0.0369901494	 1.5095401401	 0.0306160378	-0.169491
O	 1.4097449697	 1.5561899166	 0.123991061	-0.30726
C	 1.5130868847	 0.1188142031	-0.0880434136	 0.014793
C	 2.1392687909	-0.6351285046	 1.0422985294	-0.124661
C	 1.880984441	-1.9340283332	 1.2803595809	-0.059724
C	 0.8915591495	-2.7825496823	 0.6411482994	-0.110484
C	-0.2877088817	-2.4119573241	 0.0787212533	-0.092154
C	-0.7883467021	-1.0580973141	-0.033711581	-0.233137
C	 0.0136038179	 0.0081354445	-0.0686591501	 0.260697
H	-0.5309160853	 1.937559729	 0.9125019688	 0.122159
H	-0.4006952254	 2.0320506331	-0.8660817784	 0.11531
H	 2.001019047	-0.0931072225	-1.0523890699	 0.09589
H	 2.8436982265	-0.086213681	 1.661595923	 0.109615
H	 2.467632998	-2.4238928654	 2.0553704755	 0.096179
H	 1.0745838486	-3.8509181868	 0.7303923681	 0.092123
H	-0.9652262094	-3.2047743186	-0.2286564376	 0.094608
H	-1.8677342506	-0.9231976237	-0.0517056865	 0.095537
126.9724	191.7974	309.4977	334.6964	374.5816	388.1675	466.3936	585.0204	604.421	727.6089	760.8183	812.2128	839.4091	891.7076	909.7367	935.1561	978.8469	992.9162	997.6542	1001.1908	1019.097	1046.3807	1096.401	1134.2167	1139.6321	1200.1316	1256.6631	1261.0451	1304.7417	1332.174	1371.9668	1408.9446	1464.3487	1504.1629	1602.636	1673.6286	1752.2352	2967.2205	2995.311	3037.626	3135.3797	3143.9081	3151.5938	3166.9359	3173.9507
C1OC2C=CC=CC=C12	C1O[C@H]2C=CC=CC=C12	
InChI=1S/C8H8O/c1-2-4-7-6-9-8(7)5-3-1/h1-5,8H,6H2	InChI=1S/C8H8O/c1-2-4-7-6-9-8(7)5-3-1/h1-5,8H,6H2/t8-/m0/s1
