18
gdb 8545	3.97598	2.24937	1.86254	1.6221	70.79	-0.2334	0.0804	0.3137	783.576	0.154763	-347.764905	-347.758374	-347.75743	-347.795036	26.855	
C	 0.0716309589	 1.528646494	 0.086495765	-0.485282
C	-0.0621202697	 0.0369563393	-0.0435144505	 0.454217
C	 0.4718904204	-0.7070228816	-1.2971800012	-0.266801
C	-0.6460322822	-1.7709225066	-1.1313839124	-0.051922
C	-0.3676955669	-2.7465085226	 0.0439586416	-0.237207
C	-0.7243167903	-1.617218217	 1.0380700041	 0.111785
O	 0.349147722	-0.6594235984	 1.1659584838	-0.341966
C	-1.3750189578	-0.8063563059	-0.1161511659	-0.148617
H	 1.1249272784	 1.8035885732	 0.215241287	 0.127957
H	-0.3058906996	 2.0335153573	-0.8083131979	 0.114763
H	-0.4820014046	 1.893128593	 0.9569246052	 0.123449
H	 0.3091793339	-0.1076954225	-2.1994691251	 0.095713
H	 1.5134823563	-1.0393216428	-1.2646371483	 0.097725
H	-1.1035483072	-2.1736129827	-2.0344569514	 0.066906
H	-1.1244000022	-3.5378347959	 0.0786560414	 0.098132
H	 0.6281489127	-3.190428541	 0.1306572391	 0.099268
H	-1.1695131272	-1.8634895612	 2.0043316869	 0.073131
H	-2.3935007948	-0.4302260985	-0.1710088212	 0.068748
198.2588	230.5783	260.9884	365.9002	383.4498	453.4887	571.4741	682.0824	748.5235	792.0111	827.0834	847.2536	860.1501	890.2109	910.7689	944.0523	967.2169	979.4433	1000.6545	1027.3052	1097.904	1112.8707	1137.907	1149.0721	1170.4807	1178.4358	1216.9265	1225.1545	1266.8995	1272.7774	1308.4348	1326.9965	1345.9883	1410.3477	1462.6633	1474.2966	1479.0157	1489.7932	3030.8326	3040.9113	3041.5927	3083.9616	3097.651	3100.1023	3100.9301	3110.3121	3113.1658	3146.6008
CC12CC3CC(O1)C23	C[C@@]12C[C@H]3C[C@@H](O1)[C@@H]23	
InChI=1S/C7H10O/c1-7-3-4-2-5(8-7)6(4)7/h4-6H,2-3H2,1H3	InChI=1S/C7H10O/c1-7-3-4-2-5(8-7)6(4)7/h4-6H,2-3H2,1H3/t4-,5-,6+,7+/m1/s1
