18
gdb 78844	2.70849	1.81128	1.46594	2.0327	73.17	-0.2263	0.0677	0.294	955.34	0.148575	-401.8883	-401.880953	-401.880009	-401.919707	29.71	
C	-0.0467845138	 1.5376997061	 0.0645339857	-0.517321
C	-0.041163772	 0.0429446452	-0.0255753488	 0.312928
C	 1.0865834601	-0.8321210857	-0.5788059167	-0.176134
C	 0.5985119382	-1.016506966	 0.8295979925	-0.078185
N	-0.6273462811	-1.9192658116	 0.7646245806	-0.160248
C	-0.7693168425	-2.1733809344	-0.6933769685	-0.097652
C	-1.2668014034	-0.8927423098	-0.1207289253	-0.121615
C	 0.5299471381	-1.9454595166	-1.446636475	 0.130441
O	 0.3523266718	-1.6238342662	-2.813345043	-0.434379
H	 0.95446992	 1.9183522517	 0.2895418401	 0.125795
H	-0.3710052155	 1.9985046305	-0.8765005065	 0.119054
H	-0.7205829428	 1.88724807	 0.854904927	 0.127275
H	 2.0580210942	-0.3918456891	-0.765401898	 0.095062
H	 1.19003108	-0.9738773785	 1.7346108673	 0.098774
H	-1.4437770016	-2.977860128	-0.9639717376	 0.099524
H	-2.3070167158	-0.6101763737	-0.002055969	 0.095878
H	 1.1699033719	-2.8333326114	-1.4349035877	 0.099924
H	-0.2138408856	-0.8442622924	-2.8521958672	 0.280878
141.9808	196.3994	239.8303	279.8442	298.3648	372.5191	537.5112	577.5238	588.422	693.0274	754.0591	762.7651	804.3333	837.304	860.6675	891.6754	913.0424	950.9643	965.6107	1016.0525	1018.6603	1037.1115	1055.9841	1063.1155	1093.589	1117.2246	1164.7791	1203.8844	1211.1795	1243.2264	1269.4024	1290.9561	1302.32	1357.1449	1416.636	1428.8651	1450.1055	1485.276	1500.1338	3021.7332	3072.532	3078.7049	3100.6024	3169.2734	3187.0741	3195.1533	3205.6397	3794.6351
CC12C3C1N1C(C21)C3O	C[C@@]12[C@H]3[C@@H]1N1[C@@H]([C@H]21)[C@H]3O	
InChI=1S/C7H9NO/c1-7-2-4(9)3-6(7)8(3)5(2)7/h2-6,9H,1H3	InChI=1S/C7H9NO/c1-7-2-4(9)3-6(7)8(3)5(2)7/h2-6,9H,1H3/t2-,3-,4+,5+,6-,7-,8?/m1/s1
