19
gdb 94888	2.7723	1.66974	1.35519	1.4361	74.03	-0.2175	0.0574	0.275	1006.0056	0.160112	-422.974255	-422.966555	-422.96561	-423.006075	30.994	
O	-0.0316255071	 1.4654156704	 0.0816874288	-0.428636
C	 0.0093776802	 0.0505798064	-0.0300530861	-0.00809
C	 0.6553581203	-0.6210398428	 1.2442707019	-0.137191
O	-0.0254182533	-1.852468616	 1.5023445597	-0.290456
C	-1.2799732747	-1.7437493855	 0.8974575947	 0.37593
C	-2.1797163373	-0.5917381322	 1.2069349713	-0.391877
C	-1.3520904154	-0.5841556321	-0.0687443257	 0.23354
C	-1.967383131	-1.5177369232	-1.1334671885	-0.294845
C	-1.8411316153	-2.7259424535	-0.1345023445	-0.29097
H	 0.8714213993	 1.797370864	 0.0413916023	 0.28302
H	 0.5660423449	-0.245009664	-0.9319685311	 0.072083
H	 1.7203854859	-0.8454650107	 1.1266585617	 0.105325
H	 0.5388104329	 0.0799160979	 2.0827044763	 0.106177
H	-3.258369962	-0.696327475	 1.1306638862	 0.111889
H	-1.8495105919	 0.0832243566	 1.9872607059	 0.130846
H	-2.9777222741	-1.2577128101	-1.4632240548	 0.102529
H	-1.3347310672	-1.6353792127	-2.0161771906	 0.106243
H	-1.0876825977	-3.4479239041	-0.4544098165	 0.114113
H	-2.7544070665	-3.2610114032	 0.141115609	 0.100369
112.3518	191.8094	254.2575	278.4258	293.6423	347.3753	440.6492	476.9118	596.7348	614.2714	641.7637	710.4703	765.2278	780.0067	862.0836	897.2082	923.8798	943.1059	958.1058	967.3573	1023.6276	1038.0306	1061.2207	1089.2855	1101.8502	1147.0376	1200.9355	1222.5846	1236.2023	1240.0323	1256.4146	1280.8192	1294.5536	1327.4615	1352.4234	1379.1429	1440.2284	1474.0287	1474.3748	1499.1538	1520.005	2986.2889	3008.4112	3049.7879	3059.2956	3077.0614	3103.43	3123.9154	3126.0873	3224.2744	3807.6426
OC1COC23CC12CC3	O[C@H]1CO[C@@]23C[C@@]12CC3	
InChI=1S/C7H10O2/c8-5-3-9-7-2-1-6(5,7)4-7/h5,8H,1-4H2	InChI=1S/C7H10O2/c8-5-3-9-7-2-1-6(5,7)4-7/h5,8H,1-4H2/t5-,6-,7-/m0/s1
