19
gdb 78095	3.07803	1.35925	1.12968	3.2875	76.33	-0.2396	-0.038	0.2016	1128.5649	0.158154	-423.00887	-423.000146	-422.999202	-423.041988	33.117	
C	 0.034724742	 1.5248399437	-0.0429071139	-0.500403
C	 0.0142100869	 0.0254374604	 0.0277489292	 0.312414
C	-1.2547284012	-0.8243284676	-0.1533734792	-0.3126
C	-0.7871169625	-1.737799711	 1.0497942529	-0.085449
C	-0.7663034993	-3.2246424868	 0.8268032113	 0.147254
O	 0.188446194	-3.8717614973	 0.4585030885	-0.263568
C	 0.5196689376	-0.946423269	 1.132240636	-0.190261
C	 1.2109389476	-0.8461651557	-0.1984164861	 0.076476
O	 1.2238840511	-1.854919322	-1.15647136	-0.439147
H	 1.0121204004	 1.9198410523	 0.2523481441	 0.122027
H	-0.1671368589	 1.8716258615	-1.0637739376	 0.127374
H	-0.7196786076	 1.9727436699	 0.614406782	 0.114684
H	-2.1811074857	-0.2931884239	 0.069905461	 0.108311
H	-1.3358511755	-1.3198126783	-1.1235657099	 0.124297
H	-1.4351545946	-1.5402120628	 1.9099383269	 0.093054
H	-1.7370063621	-3.735837346	 1.0135970847	 0.090604
H	 1.0358477683	-0.7319884153	 2.0617069069	 0.087182
H	 2.1520884931	-0.2969613047	-0.1322653766	 0.086795
H	 1.2257322663	-2.7024078774	-0.6859377304	 0.300958
88.8773	163.8847	185.6199	206.9608	248.2753	254.2327	287.0961	350.0641	470.4176	541.6727	577.0214	617.595	687.1033	753.3156	810.9546	852.5098	872.1664	914.4834	961.2845	970.9943	1006.6864	1025.7412	1062.7987	1080.5769	1116.658	1138.8488	1188.384	1229.6335	1238.0714	1262.1745	1302.0764	1336.8912	1355.7381	1398.8986	1416.247	1425.4247	1459.363	1483.2064	1490.3775	1500.7582	1801.5282	2886.5069	3019.6961	3054.3028	3071.9322	3077.3243	3088.0517	3097.9592	3131.4042	3167.8832	3692.0435
CC12CC(C=O)C1C2O	C[C@]12C[C@@H](C=O)[C@H]1[C@H]2O	
InChI=1S/C7H10O2/c1-7-2-4(3-8)5(7)6(7)9/h3-6,9H,2H2,1H3	InChI=1S/C7H10O2/c1-7-2-4(3-8)5(7)6(7)9/h3-6,9H,2H2,1H3/t4-,5-,6+,7-/m0/s1
