19
gdb 53208	2.82586	0.93449	0.84855	2.7243	85.14	-0.2373	-0.019	0.2183	1466.6336	0.156288	-385.882313	-385.872136	-385.871192	-385.919426	35.396	
C	 0.1936809642	 1.5824518925	-0.179915612	-0.497291
C	 0.1256800861	 0.1312002937	-0.0809394646	 0.030466
C	 0.0788299503	-1.0705344608	-0.0036670402	 0.12972
C	 0.0154076434	-2.5155729842	 0.1050035678	-0.231698
C	 0.1749408042	-3.0602788109	 1.5722561178	-0.348182
C	-1.3280364701	-3.3739585391	 1.5625818978	 0.404154
O	-2.1308934384	-3.615133315	 2.4164441147	-0.295286
C	-1.4419819556	-3.1403001398	 0.0480115189	-0.092457
C	-2.6274998834	-2.3493370546	-0.4800076523	-0.410585
H	 1.2234331506	 1.9221209004	-0.3370312393	 0.149231
H	-0.4084578593	 1.9537982491	-1.0165169306	 0.149071
H	-0.176968056	 2.061609822	 0.7329410664	 0.149981
H	 0.7029807397	-2.9779883094	-0.6076147981	 0.101412
H	 0.7860949204	-3.9662927927	 1.630312467	 0.130562
H	 0.5138511536	-2.3508439213	 2.3291928039	 0.138708
H	-1.3805790309	-4.1165869949	-0.4505852853	 0.105706
H	-2.6565217048	-1.3488949466	-0.0411170659	 0.133378
H	-2.5797809954	-2.2410353864	-1.5677350893	 0.120256
H	-3.5590730488	-2.8634148722	-0.2255865867	 0.132855
23.5095	38.0193	90.8989	141.3294	170.9949	197.4561	248.7974	299.7631	360.0307	427.0144	456.0821	532.8021	557.7089	687.304	698.1634	734.9163	862.4326	889.3729	930.766	1010.6322	1035.1834	1052.2649	1053.2838	1071.8725	1115.3226	1151.1734	1166.2406	1209.6819	1226.8952	1248.6002	1322.7051	1356.6549	1405.3624	1415.1844	1435.228	1478.3065	1478.7048	1488.7199	1495.9831	1891.264	2365.8534	3027.0644	3027.2883	3044.2909	3061.8409	3072.6055	3087.669	3088.3497	3113.5289	3125.387	3132.1713
CC#CC1CC(=O)C1C	CC#C[C@H]1CC(=O)[C@H]1C	
InChI=1S/C8H10O/c1-3-4-7-5-8(9)6(7)2/h6-7H,5H2,1-2H3	InChI=1S/C8H10O/c1-3-4-7-5-8(9)6(7)2/h6-7H,5H2,1-2H3/t6-,7-/m0/s1
