19
gdb 80407	2.50053	1.74299	1.28562	2.2265	75.03	-0.2334	-0.0151	0.2183	1034.9653	0.159507	-423.037858	-423.029585	-423.028641	-423.070354	32.291	
C	-0.0417305629	 1.5376214092	 0.0096090675	-0.500714
C	 0.0327903674	 0.0332147758	 0.0233866952	 0.205093
C	 0.9736783838	-0.824862582	-0.8972693437	-0.281187
C	 0.7019667869	-1.9448789426	 0.1454374241	-0.04926
C	 0.6493103045	-0.8131755524	 1.2077022884	-0.266204
C	-0.784171529	-2.2260936539	-0.1111039028	 0.058843
O	-1.4090233075	-2.9476098605	 0.9287860413	-0.449797
C	-1.2551969159	-0.7500183597	-0.1341064776	 0.373895
O	-2.396837165	-0.3654945916	-0.1592783939	-0.358678
H	 0.9399248239	 1.9880605923	 0.1851668001	 0.114351
H	-0.4170069063	 1.9004156552	-0.9530284413	 0.128752
H	-0.7292224288	 1.8960969473	 0.7822549563	 0.134123
H	 0.6730754382	-0.9888369567	-1.9370527604	 0.101954
H	 2.0027970504	-0.4607594197	-0.8577034804	 0.110585
H	 1.3584034071	-2.8067207028	 0.2505667753	 0.079454
H	 1.63923175	-0.4376225916	 1.4770357913	 0.105536
H	 0.0424655409	-0.9781188182	 2.1002448073	 0.117676
H	-0.9457562713	-2.7106970403	-1.0871300537	 0.081975
H	-2.3408943165	-2.6948871178	 0.920558507	 0.293605
98.3043	162.1443	215.9569	237.0733	262.7376	314.0945	364.2852	455.6032	488.7197	510.733	592.2383	647.3324	719.1401	791.8483	851.6607	865.2126	884.3026	914.2337	963.6836	990.8659	1015.0033	1031.1418	1061.2076	1075.7146	1095.5013	1150.6067	1173.6282	1202.3307	1227.5933	1239.5453	1249.2706	1308.1909	1338.8838	1362.9927	1403.6141	1418.3024	1484.2511	1487.3082	1489.1214	1517.8376	1854.2899	2977.1336	3036.1876	3049.4642	3067.1221	3103.5135	3109.117	3115.1469	3131.0736	3133.5591	3776.606
CC12CC(C1)C(O)C2=O	C[C@@]12C[C@@H](C1)[C@@H](O)C2=O	
InChI=1S/C7H10O2/c1-7-2-4(3-7)5(8)6(7)9/h4-5,8H,2-3H2,1H3	InChI=1S/C7H10O2/c1-7-2-4(3-7)5(8)6(7)9/h4-5,8H,2-3H2,1H3/t4-,5-,7+/m1/s1
