19
gdb 115576	2.42074	1.10096	1.05941	2.7973	72.3	-0.2445	-0.034	0.2105	1259.0897	0.156216	-460.148491	-460.138512	-460.137568	-460.18399	35.603	
O	-0.1980700761	 1.437583697	-0.145307479	-0.4256
C	-0.010585094	 0.0449571585	 0.0730217952	-0.09808
C	-1.3828837704	-0.5945503422	 0.0071732322	 0.017445
C	-2.140280639	-0.6202119072	-1.3454271414	-0.227212
C	-2.5875582443	-2.0695073055	-1.0254344478	-0.280253
C	-1.4733712843	-2.1614760711	 0.0564588001	 0.268687
O	-0.2562782212	-2.7284004646	-0.3979840073	-0.483134
C	-1.8607356048	-2.7460829154	 1.4009842117	 0.093093
O	-2.9496306566	-2.6282803105	 1.9031902405	-0.25289
H	 0.6685129444	 1.8486289022	-0.2127460299	 0.287887
H	 0.6410487203	-0.4009204413	-0.6900497793	 0.102251
H	 0.4498023893	-0.1489956305	 1.0556307206	 0.086822
H	-2.0211437459	-0.1783533035	 0.7919845284	 0.101025
H	-2.9232069464	 0.1253334045	-1.4889833452	 0.109914
H	-1.4508615799	-0.5761975042	-2.1921975857	 0.108287
H	-3.5722375096	-2.1162726971	-0.5550396078	 0.130181
H	-2.528140181	-2.8134875353	-1.8248004389	 0.094884
H	-0.4404145058	-3.6120232826	-0.7340539719	 0.284582
H	-1.0328528148	-3.2968023112	 1.9052434055	 0.08211
49.89	88.9956	95.418	170.901	217.2914	249.3797	252.57	262.6389	303.1703	377.3347	445.3	492.3669	563.7752	678.3296	741.8083	797.977	876.855	908.1442	931.51	956.2323	1003.3781	1061.778	1069.0585	1103.7343	1143.1987	1164.2957	1180.5743	1213.6864	1247.1737	1257.0804	1268.1181	1278.6344	1300.8842	1332.4188	1364.9137	1395.2585	1458.0464	1466.759	1490.4553	1524.1347	1822.9888	2868.6065	2969.2362	3029.8984	3057.0922	3071.5928	3076.8961	3118.5163	3134.8733	3806.2989	3831.6196
OCC1CCC1(O)C=O	OC[C@H]1CC[C@]1(O)C=O	
InChI=1S/C6H10O3/c7-3-5-1-2-6(5,9)4-8/h4-5,7,9H,1-3H2	InChI=1S/C6H10O3/c7-3-5-1-2-6(5,9)4-8/h4-5,7,9H,1-3H2/t5-,6+/m1/s1
