15
gdb 55617	2.24941	1.14381	0.89271	1.5834	74.94	-0.2711	-0.0017	0.2694	1331.3749	0.107355	-420.580889	-420.570885	-420.569941	-420.617893	34.491	
C	-0.0161846896	 1.4618643433	-0.1140353395	-0.482832
C	 0.1237698004	-0.0292110858	 0.0571264716	 0.45239
O	 0.5327916587	-0.5911207274	 1.0390732831	-0.344309
O	-0.2841483265	-0.6651094702	-1.0740507677	-0.24329
C	-0.2067713008	-2.1160632649	-1.0590523491	-0.23786
C	-1.550184059	-2.6666843381	-1.227514998	 0.33768
C	-2.6492922708	-3.13385083	-1.3452812765	-0.43931
C	 0.713522418	-2.555057258	-2.106268626	 0.337692
C	 1.481391184	-2.9301500922	-2.9487860419	-0.439328
H	 0.5824829408	 1.796038554	-0.9658385074	 0.157357
H	-1.0579343734	 1.7151838215	-0.3290359571	 0.157354
H	 0.3121613393	 1.9630826757	 0.7954031192	 0.151859
H	 0.1886531144	-2.4027684074	-0.0768412964	 0.17496
H	-3.6213157231	-3.5483492326	-1.4541147713	 0.208818
H	 2.1574459076	-3.2633805377	-3.6973785929	 0.208819
17.3481	54.7534	90.0903	121.6974	144.3637	250.4598	282.981	329.9897	372.5102	499.1226	558.5659	579.0451	606.2739	627.1804	633.3866	640.9806	678.934	680.2641	899.2855	925.7678	1004.2043	1025.1237	1053.8844	1064.781	1242.6914	1326.7112	1341.1271	1395.5591	1468.0929	1474.4051	1830.2888	2247.7877	2249.9694	3042.6536	3059.987	3126.357	3172.2679	3501.8055	3502.5037
CC(=O)OC(C#C)C#C	CC(=O)OC(C#C)C#C	
InChI=1S/C7H6O2/c1-4-7(5-2)9-6(3)8/h1-2,7H,3H3	InChI=1S/C7H6O2/c1-4-7(5-2)9-6(3)8/h1-2,7H,3H3
