21
gdb 80976	2.7779	1.43157	1.15248	1.7402	84.15	-0.2215	0.0139	0.2354	1179.2462	0.180784	-387.064393	-387.055329	-387.054384	-387.097397	35.354	
C	-0.1162685136	 1.5137191997	-0.057731404	-0.428521
C	-0.0224124718	-0.0029379195	-0.0197913833	-0.002836
C	 1.2712952766	-0.6345121469	-0.6310166395	-0.054602
O	 1.9795680339	-0.2586824848	 0.5909705248	-0.321308
C	 0.7031087696	-0.6390162566	 1.2307820076	 0.37578
C	 0.5337858351	-0.179515236	 2.6510773103	-0.515036
C	 0.6316782665	-2.1358837037	 0.8711296851	-0.26435
C	 1.0213618146	-2.1420368928	-0.4072204167	 0.367052
C	 1.1833061791	-3.2248121213	-1.4145232668	-0.516989
H	 0.8404260526	 1.9686817538	 0.2092375167	 0.133676
H	-0.3975812592	 1.8597284948	-1.0585473947	 0.111515
H	-0.8809421217	 1.8770666722	 0.6382079107	 0.113123
H	-0.9652476414	-0.477801526	-0.3065757074	 0.063921
H	 1.7400010102	-0.2873165443	-1.5529535994	 0.068949
H	 0.5964598948	 0.9093518971	 2.7248298192	 0.128398
H	-0.4381359215	-0.4989542314	 3.041359362	 0.120825
H	 1.3148781611	-0.6111567906	 3.2849538287	 0.133178
H	 0.3251802609	-2.94564859	 1.5187039776	 0.099427
H	 0.9228245086	-4.2018608585	-0.9979407839	 0.12777
H	 0.5486858581	-3.052523856	-2.2935271075	 0.127315
H	 2.2161838973	-3.2759685893	-1.7820708696	 0.132713
152.9829	167.5253	181.8824	207.7637	227.7948	235.3174	261.8716	354.3387	392.5642	496.3559	545.4283	577.0278	633.0889	684.9496	751.677	800.6231	814.188	822.7411	876.5651	888.6796	962.4249	1014.6679	1046.2466	1057.6154	1072.8185	1101.5274	1109.7417	1122.465	1161.89	1213.7959	1220.8922	1251.0575	1292.1808	1332.8107	1372.4734	1398.6212	1412.5608	1416.7493	1478.3733	1478.4604	1485.8802	1487.8614	1495.9574	1505.7461	1690.7529	3014.7753	3030.6704	3039.7967	3059.8524	3064.1929	3087.4035	3106.8717	3108.1639	3113.1065	3119.2699	3127.2032	3226.6681
CC1C2OC1(C)C=C2C	C[C@H]1[C@H]2O[C@]1(C)C=C2C	
InChI=1S/C8H12O/c1-5-4-8(3)6(2)7(5)9-8/h4,6-7H,1-3H3	InChI=1S/C8H12O/c1-5-4-8(3)6(2)7(5)9-8/h4,6-7H,1-3H3/t6-,7-,8+/m0/s1
