18
gdb 66567	2.387	2.24036	1.59163	2.5332	73.88	-0.2211	0.066	0.2871	905.6816	0.147826	-401.868238	-401.860866	-401.859922	-401.899463	30.054	
C	-0.0782804989	 1.4293320046	 0.0110204518	-0.521026
C	 0.0546456707	-0.0554680417	 0.0905357172	 0.317644
C	 0.9905458254	-0.930732032	-0.6677789135	-0.089435
C	 1.0297695109	-2.1875553564	 0.2250679953	-0.079839
C	 1.0421144741	-1.6924813226	 1.6945799036	-0.3168
C	-0.272703315	-0.9761615005	 1.2911826954	 0.346129
O	-1.1934345034	-0.4530675437	 2.1826352447	-0.482891
C	-0.5256770238	-2.0396883243	 0.1613683981	-0.06948
N	-0.4885770667	-0.9921136959	-0.957026071	-0.215288
H	 0.6698698652	 1.9282577444	 0.6370764161	 0.120475
H	 0.0580463379	 1.764771656	-1.0215528317	 0.129319
H	-1.0697297671	 1.7469027163	 0.347578612	 0.138969
H	 1.7039540432	-0.5855553685	-1.4074524339	 0.091926
H	 1.5766153651	-3.0674083216	-0.1038395352	 0.078792
H	 0.8569160994	-2.5150555672	 2.3962070372	 0.089763
H	 1.8844281674	-1.085566758	 2.0403320136	 0.099777
H	-1.3973718307	-1.1215488106	 2.8447418897	 0.284429
H	-1.2614979137	-2.8414876585	 0.1549000706	 0.077536
174.4587	205.7608	218.6425	274.3116	361.6836	368.0717	439.3254	554.7146	604.747	637.9403	741.5703	753.8268	811.4544	831.9206	849.8896	881.0371	894.5018	950.9221	971.5471	974.3496	1003.7668	1025.6051	1053.6472	1093.4131	1103.5281	1114.0477	1185.5917	1192.8627	1205.0107	1224.9435	1264.3221	1282.1466	1297.1869	1382.3996	1406.6187	1443.8773	1477.6231	1485.3252	1495.2751	3030.902	3033.4959	3094.756	3099.7397	3114.115	3133.9129	3150.5055	3177.4312	3815.5085
CC12C3C4CC1(O)C4N23	C[C@@]12[C@H]3[C@H]4C[C@]1(O)[C@H]4N23	
InChI=1S/C7H9NO/c1-6-4-3-2-7(6,9)5(3)8(4)6/h3-5,9H,2H2,1H3	InChI=1S/C7H9NO/c1-6-4-3-2-7(6,9)5(3)8(4)6/h3-5,9H,2H2,1H3/t3-,4-,5+,6-,7+,8?/m1/s1
