19
gdb 60952	3.05611	0.96289	0.77389	3.3147	77.02	-0.248	-0.0318	0.2162	1442.1036	0.155916	-423.046949	-423.03734	-423.036396	-423.082804	34.237	
C	 0.0581256278	 1.5219056207	-0.1645693596	-0.417114
C	 0.017117703	-0.0060894768	-0.0128827352	-0.082705
C	 0.8010802685	-0.4332616062	 1.2142635923	 0.16964
O	 1.6610856842	-1.2752003158	 1.2289467442	-0.251464
C	-1.4215499748	-0.5282812824	 0.1187129239	 0.016688
C	-2.3306785377	-0.4140230309	-1.1489307405	-0.370624
C	-2.6738681088	-1.9037510356	-0.9715282003	 0.40713
O	-3.4941480321	-2.6239781032	-1.4584799346	-0.28471
C	-1.6179886976	-2.0796722087	 0.1298583353	-0.374768
H	 1.0808434027	 1.8796198178	-0.3159405883	 0.131793
H	-0.5414988995	 1.8404853366	-1.0221726891	 0.13177
H	-0.3451362428	 2.0170772753	 0.7261358756	 0.123971
H	 0.4923974075	-0.4870137232	-0.8761391084	 0.093633
H	 0.5010182812	 0.0970740266	 2.1506879865	 0.07156
H	-1.9037264315	-0.0647581999	 0.9856396102	 0.085227
H	-3.1759554436	 0.2778393966	-1.1169295187	 0.133328
H	-1.7703314002	-0.2348668417	-2.0738096817	 0.133684
H	-0.7386296269	-2.6315002452	-0.2204439215	 0.147733
H	-1.9681498794	-2.5459467939	 1.05414082	 0.135228
39.6649	55.5189	80.414	168.0213	211.3013	267.7428	281.085	359.7274	389.697	429.6879	488.8517	525.7802	660.5664	676.0394	762.489	886.6538	908.572	926.5316	960.8023	988.4351	995.7533	1031.1677	1085.8135	1122.1982	1134.0217	1158.699	1194.6172	1208.5204	1239.8436	1265.0759	1281.3077	1323.0606	1377.906	1406.5949	1425.8177	1427.5777	1446.4209	1495.6108	1499.5881	1832.973	1898.0636	2838.9532	3034.1196	3041.5067	3048.2433	3055.1359	3058.1036	3103.3851	3112.9193	3114.2177	3114.5737
CC(C=O)C1CC(=O)C1	C[C@@H](C=O)C1CC(=O)C1	
InChI=1S/C7H10O2/c1-5(4-8)6-2-7(9)3-6/h4-6H,2-3H2,1H3	InChI=1S/C7H10O2/c1-5(4-8)6-2-7(9)3-6/h4-6H,2-3H2,1H3/t5-/m0/s1
