19
gdb 114985	3.26657	1.05192	0.83196	3.8178	78.77	-0.2355	-0.0458	0.1897	1354.2251	0.159747	-423.061219	-423.052524	-423.051579	-423.09479	32.6	
O	-0.0077228517	 1.4375565453	-0.0976491445	-0.425234
C	 0.0333312916	 0.0243704695	 0.035195841	-0.093185
C	-1.4000532269	-0.496040339	 0.0171057933	 0.000778
C	-2.1398276808	-0.1029540049	-1.2707580619	-0.247579
C	-3.4824375059	-0.7675019291	-1.3785022065	-0.060941
C	-3.8217720275	-1.8685788603	-0.6950365987	-0.136912
C	-2.8725417419	-2.5650608675	 0.1985117755	 0.36435
O	-3.1955059334	-3.5390761929	 0.8486759339	-0.331956
C	-1.4481505785	-2.0169097757	 0.2179275006	-0.327566
H	 0.8945876136	 1.7692811262	-0.1003812756	 0.289946
H	 0.6034382787	-0.4371535355	-0.7890431797	 0.083893
H	 0.5192522798	-0.2741692386	 0.9776013838	 0.091778
H	-1.9273526069	-0.0223996788	 0.8564600961	 0.094891
H	-2.2485206413	 0.9841990093	-1.3230558019	 0.132846
H	-1.5341679463	-0.3785079518	-2.1499159115	 0.113839
H	-4.2040601022	-0.3138957628	-2.0551109129	 0.107297
H	-4.8074673194	-2.3161273448	-0.7756307464	 0.105058
H	-0.9007091726	-2.5151354428	-0.5970527093	 0.118479
H	-0.9773605985	-2.3283956958	 1.1546882245	 0.12022
83.659	121.3506	146.7906	199.3617	259.6172	312.547	349.1185	393.1699	452.4492	469.565	534.7757	608.7789	708.4911	756.416	821.8769	882.5175	903.3748	957.807	972.467	1026.2936	1060.7245	1081.1744	1082.5153	1113.8312	1153.5218	1184.0474	1219.3953	1245.1099	1259.7387	1283.4705	1303.2719	1330.9351	1368.9541	1396.412	1407.8393	1458.0073	1458.8514	1472.1628	1518.8739	1681.0648	1778.7217	2955.0391	2981.3955	2989.5	3000.6971	3026.523	3085.0202	3092.1067	3148.0787	3188.2847	3835.1699
OCC1CC=CC(=O)C1	OC[C@H]1CC=CC(=O)C1	
InChI=1S/C7H10O2/c8-5-6-2-1-3-7(9)4-6/h1,3,6,8H,2,4-5H2	InChI=1S/C7H10O2/c8-5-6-2-1-3-7(9)4-6/h1,3,6,8H,2,4-5H2/t6-/m0/s1
