17
gdb 81504	3.68212	1.27322	1.06766	2.8519	74.21	-0.2586	0.0081	0.2667	1128.5633	0.135655	-417.943753	-417.935464	-417.93452	-417.976197	31.822	
C	-0.1458068281	 1.5761714662	-0.0241079858	-0.440179
C	-0.004396236	 0.0662775238	-0.0080457002	 0.031854
C	 1.2678848392	-0.5979084495	-0.6187035074	-0.102835
N	 2.043653926	-0.0429947608	 0.5535225885	-0.334862
C	 0.780328374	-0.6240331267	 1.1534297624	-0.072981
C	 0.9312684131	-1.8786516268	 0.2405893868	 0.310179
O	-0.2277874796	-2.6322295559	 0.0139248124	-0.467038
C	 2.0740711772	-2.7605127007	 0.5236976574	 0.204726
N	 2.9434902019	-3.5014717579	 0.7054090738	-0.338895
H	 0.7898215704	 2.0678561558	 0.2450716747	 0.146409
H	-0.4488493011	 1.9186072144	-1.0194785229	 0.117693
H	-0.9240454101	 1.8917229085	 0.6790470988	 0.119355
H	-0.9321890308	-0.4411281799	-0.269637211	 0.101169
H	 1.6501299113	-0.5617378091	-1.639950953	 0.094508
H	 2.8527222499	-0.6336122635	 0.7684106677	 0.23122
H	 0.5835490696	-0.6146412493	 2.2257884944	 0.100255
H	-0.0434530369	-3.3000864088	-0.6564408766	 0.299422
131.5664	150.3469	208.7701	253.8099	265.3485	294.7983	355.5389	372.0431	481.4228	523.304	558.7729	656.7907	700.2167	778.2141	804.5742	807.2268	884.4965	944.3964	1010.1799	1045.8471	1052.8832	1085.5699	1104.9438	1139.0763	1161.9301	1179.8264	1193.1615	1221.1128	1237.7248	1292.4906	1294.2359	1351.8602	1400.4024	1421.3542	1492.5953	1506.5043	2342.637	3039.107	3094.4611	3108.6281	3118.2036	3125.7708	3148.4228	3401.454	3803.7574
CC1C2NC1C2(O)C#N	C[C@H]1[C@H]2N[C@@H]1[C@]2(O)C#N	
InChI=1S/C6H8N2O/c1-3-4-6(9,2-7)5(3)8-4/h3-5,8-9H,1H3	InChI=1S/C6H8N2O/c1-3-4-6(9,2-7)5(3)8-4/h3-5,8-9H,1H3/t3-,4+,5-,6-
