15
gdb 131490	3.96701	1.22814	1.06104	2.9066	67.66	-0.2418	-0.0353	0.2065	1099.9242	0.114795	-450.093541	-450.086329	-450.085385	-450.125652	27.288	
O	 0.1171514435	 1.4142457735	 0.1756695216	-0.423626
C	 0.0196839314	 0.0385056958	 0.0724451986	 0.147824
C	-0.48595097	-0.8261375676	 1.180736029	-0.338217
C	-1.3278373157	-0.6737592254	-0.0915942082	-0.18873
C	-2.5518829245	 0.1241113945	-0.0436973877	 0.456461
N	-3.6771153881	-0.1627752722	-0.6954578978	-0.285751
N	-4.444485986	 0.864259848	-0.3450289312	-0.066453
N	-3.8766881459	 1.7417002309	 0.4586509622	-0.093233
N	-2.6676904669	 1.2863966339	 0.6643350851	-0.301566
H	-0.6941040449	 1.7538085967	 0.5863408722	 0.304051
H	 0.8274242628	-0.349482685	-0.5398340353	 0.114606
H	-0.0260629734	-1.7917807791	 1.3605159462	 0.121956
H	-0.8643729808	-0.3254081764	 2.065801477	 0.136139
H	-1.3807881667	-1.517339042	-0.7691017277	 0.110661
H	-5.3968751649	 0.9671070643	-0.6626006839	 0.305879
75.2826	152.1887	186.2975	318.5335	384.2479	463.5152	493.4838	546.0776	585.9326	697.3044	731.9265	763.267	798.9103	833.4861	935.5564	1013.9329	1030.1538	1042.4539	1059.956	1085.5007	1121.1732	1144.8695	1154.681	1187.2803	1232.3885	1260.205	1326.0502	1355.897	1375.2722	1458.5087	1487.3626	1490.3449	1562.7753	3132.1607	3166.6434	3187.4234	3226.0193	3649.7006	3672.5928
OC1CC1C1=NNN=N1	O[C@H]1C[C@H]1c1n[nH]nn1	
InChI=1S/C4H6N4O/c9-3-1-2(3)4-5-7-8-6-4/h2-3,9H,1H2,(H,5,6,7,8)	InChI=1S/C4H6N4O/c9-3-1-2(3)4-5-7-8-6-4/h2-3,9H,1H2,(H,5,6,7,8)/t2-,3+/m1/s1
