19
gdb 120309	3.30086	1.04284	0.93765	1.73	72.3	-0.225	0.0664	0.2915	1326.7672	0.156745	-460.096262	-460.086921	-460.085977	-460.130941	33.963	
C	 0.1157203901	 1.47189801	 0.2372900329	-0.386803
C	 0.5282387835	 0.0124153918	 0.1718100298	-0.034416
O	 0.0566075782	-0.6354427752	 1.3507462287	-0.251489
C	 0.3904933481	-1.977794337	 1.4183313025	 0.013942
C	 1.8111081271	-2.4711293072	 1.6018042043	-0.014295
O	 2.5885983018	-1.5180264524	 2.3194883685	-0.283761
C	 1.7113951185	-1.6294167736	 3.4746791685	-0.134529
C	 0.789885164	-2.5949012807	 2.7262441186	 0.256002
O	 0.1941583019	-3.701391807	 3.2938744111	-0.454819
H	 0.5474274389	 1.9514656692	 1.1203358809	 0.129325
H	 0.4641199309	 2.0053144841	-0.6521533435	 0.116019
H	-0.9727487915	 1.564525858	 0.2933542867	 0.123761
H	 0.0988270689	-0.4726602529	-0.7193540453	 0.084868
H	 1.6205161722	-0.0862322676	 0.1133573219	 0.112478
H	-0.2064559664	-2.6495134211	 0.7940929435	 0.089495
H	 2.32279633	-3.1809746389	 0.9619796377	 0.111413
H	 2.231485982	-2.1145146289	 4.3071988573	 0.114483
H	 1.2977128606	-0.6632997969	 3.7774928784	 0.115484
H	-0.7414364788	-3.5102636135	 3.4237096176	 0.292843
57.6201	80.4983	124.7416	210.0248	230.1364	261.969	279.326	309.6762	356.0711	409.1828	505.2499	640.8842	690.6678	790.6287	821.5466	851.0827	892.1379	934.6251	942.3643	987.1119	1022.3436	1049.4163	1065.1268	1091.9678	1144.6659	1151.4545	1166.507	1186.193	1223.9437	1258.9001	1284.0804	1298.1405	1332.3075	1346.8852	1399.2759	1425.2032	1482.2972	1483.4392	1499.4084	1504.0399	1524.3852	2976.8566	3033.6579	3043.2427	3044.6093	3067.2442	3104.7726	3118.9789	3121.6527	3182.6974	3793.9707
CCOC1C2OCC12O	CCO[C@H]1[C@H]2OC[C@@]12O	
InChI=1S/C6H10O3/c1-2-8-4-5-6(4,7)3-9-5/h4-5,7H,2-3H2,1H3	InChI=1S/C6H10O3/c1-2-8-4-5-6(4,7)3-9-5/h4-5,7H,2-3H2,1H3/t4-,5+,6+/m0/s1
