13
gdb 20340	5.24912	2.12615	1.52744	3.825	66.01	-0.2255	-0.0376	0.1879	762.686	0.098136	-361.459305	-361.453808	-361.452864	-361.488745	21.761	
C	-0.0607219131	 1.5327114559	 0.0109273838	-0.422603
C	 1.4240838242	 1.8772186251	-0.0015789423	-0.066432
C	 2.1969338226	 0.7691389352	-0.0148674136	-0.212012
C	 1.2854248622	-0.3600700422	-0.0120009607	 0.403297
C	-0.0216106457	 0.0339606362	 0.0026852786	 0.157005
C	-0.7197786162	-1.1914815393	 0.0030039992	-0.128562
N	 0.1017993891	-2.2251480565	-0.0103581188	-0.150049
O	 1.409231661	-1.6839723604	-0.0201633547	-0.233738
H	-0.5547698826	 1.953521853	 0.8961493978	 0.141218
H	-0.5717098772	 1.9627451464	-0.8601329833	 0.141219
H	 1.7843355476	 2.8978455603	 0.0003061565	 0.114786
H	 3.276292123	 0.7218843959	-0.025539912	 0.124742
H	-1.7818389749	-1.3942308296	 0.0121982894	 0.131129
208.4357	276.0157	422.3856	434.771	625.2001	639.898	688.7441	725.4821	754.0426	856.505	863.3455	901.0237	925.6367	936.234	948.3137	979.2204	1085.3492	1138.463	1163.0104	1195.0511	1240.6755	1313.0972	1407.305	1415.262	1435.7325	1506.5301	1561.6922	1628.9104	3033.6358	3061.7321	3218.7074	3239.3209	3247.0654
C1C=CC2=C1C=NO2	C1C=Cc2c1cno2	
InChI=1S/C6H5NO/c1-2-5-4-7-8-6(5)3-1/h1,3-4H,2H2	InChI=1S/C6H5NO/c1-2-5-4-7-8-6(5)3-1/h1,3-4H,2H2
