14
gdb 125092	3.3196	1.29114	0.93496	2.8151	72.57	-0.2421	-0.0407	0.2013	1154.8582	0.101853	-432.911676	-432.903265	-432.90232	-432.944977	30.034	
C	-0.0175584942	 1.5961079724	 0.0290465788	-0.51711
C	 0.0290486912	 0.1043758196	-0.002293588	-0.002614
C	-0.0300280068	-0.7504578104	-1.0964063109	 0.242736
N	 0.0498831571	-2.0264623979	-0.6216284366	-0.303612
N	 0.1579027058	-2.0655203742	 0.7187456448	-0.308385
C	 0.1452271742	-0.7901004436	 1.0858499432	 0.390857
O	 0.2354950217	-0.4123424036	 2.3747480613	-0.425459
C	-0.1494488934	-0.4627344751	-2.4755843659	 0.232711
N	-0.2470631875	-0.2295804012	-3.6062082173	-0.343532
H	 0.8884990881	 2.0106094244	 0.4836078447	 0.14549
H	-0.1111655005	 2.0063300356	-0.9792224892	 0.143766
H	-0.8657789754	 1.9528596744	 0.6228820927	 0.145493
H	 0.0354759133	-2.8821828928	-1.1494063169	 0.29045
H	 0.3051077164	-1.2126289576	 2.9105357592	 0.309209
78.9776	120.6971	135.122	241.5275	249.3669	321.1161	389.3469	421.6727	427.5069	521.1441	532.6027	605.2535	687.3305	696.1793	738.2269	787.986	962.5228	1064.7473	1128.3586	1159.3803	1234.8961	1269.8273	1311.9923	1423.0722	1446.8282	1479.8816	1490.0673	1505.0352	1577.9942	1622.2341	2343.6429	3038.1834	3091.2311	3125.376	3682.9112	3795.8885
CC1=C(NN=C1O)C#N	Cc1c([nH]nc1O)C#N	
InChI=1S/C5H5N3O/c1-3-4(2-6)7-8-5(3)9/h1H3,(H2,7,8,9)	InChI=1S/C5H5N3O/c1-3-4(2-6)7-8-5(3)9/h1H3,(H2,7,8,9)
