19
gdb 90100	2.92389	1.46836	1.29727	2.7771	76.51	-0.2394	0.0612	0.3007	1060.1963	0.158562	-422.88097	-422.873016	-422.872072	-422.912873	32.051	
C	-0.1198502278	 1.6256800138	-0.1637387511	-0.404755
C	 0.0345327604	 0.1361515827	 0.0654835241	 0.075743
O	 0.9576359217	-0.5185300845	-0.9131037763	-0.367307
C	 1.811179346	-0.8169421894	 0.192840249	 0.395505
C	 2.5307178753	-1.869993621	 1.0963900777	-0.313351
C	 2.1980764568	-0.5698474856	 1.985593361	-0.157
C	 2.7274338841	 0.2777481466	 0.8152114845	 0.116081
O	 4.0857280507	 0.2114037896	 0.461778168	-0.446019
C	 0.7847108373	-0.5905222644	 1.2661878081	-0.12381
H	 0.8281221409	 2.1641539433	-0.1562440801	 0.131125
H	-0.5921987701	 1.7960619484	-1.1368417113	 0.131634
H	-0.7708014124	 2.0497902834	 0.6082354536	 0.122842
H	-0.9461919008	-0.3407102522	-0.0276784663	 0.096173
H	 1.9550940212	-2.765578431	 1.3354691686	 0.103633
H	 3.5883914026	-2.0727678252	 0.9329187917	 0.123118
H	 2.4260431348	-0.4607281816	 3.047339507	 0.081832
H	 2.3544700169	 1.3031092637	 0.7775757575	 0.064815
H	 4.5720238631	 0.8280342968	 1.0174402097	 0.285079
H	 0.2079241691	-1.4747359933	 1.5403546647	 0.084662
158.1418	204.9161	220.9086	247.7245	263.6691	341.8459	401.4581	452.2013	494.2787	569.3585	611.0546	695.5263	744.5308	791.3822	799.3467	869.1248	888.6695	930.3638	954.3314	1009.9623	1036.9716	1048.8176	1068.3252	1075.4642	1110.4743	1130.6554	1150.4956	1160.639	1171.5779	1199.6531	1208.7989	1221.269	1289.3864	1300.6514	1362.041	1390.119	1415.4792	1434.3859	1480.0218	1498.4176	1506.8663	3041.0407	3051.3186	3081.2499	3087.4807	3089.4858	3102.2696	3104.4363	3147.2295	3164.991	3821.705
CC1OC23CC(C2O)C13	C[C@H]1O[C@@]23C[C@@H]([C@H]2O)[C@@H]13	
InChI=1S/C7H10O2/c1-3-5-4-2-7(5,9-3)6(4)8/h3-6,8H,2H2,1H3	InChI=1S/C7H10O2/c1-3-5-4-2-7(5,9-3)6(4)8/h3-6,8H,2H2,1H3/t3-,4-,5-,6-,7-/m1/s1
