16
gdb 106662	2.79992	1.26742	1.03092	2.199	66.18	-0.2435	-0.0006	0.2429	1153.6971	0.122873	-474.997478	-474.988655	-474.98771	-475.031296	32.402	
O	 0.148487645	 1.3359954365	-0.3540160069	-0.409824
C	 0.0398053949	-0.0112921979	 0.0862991042	-0.167095
C	-1.3751494112	-0.504507533	 0.0980012691	 0.289975
C	-2.1383120296	-1.0831619851	-1.0598912563	-0.384114
C	-1.9101654328	-1.9211224603	 0.2120731287	 0.181081
O	-1.1968162975	-3.0925009308	 0.2199914649	-0.447761
C	-2.8588598534	-1.3852729243	 1.2836544309	 0.363964
O	-3.7346498654	-1.8187150112	 1.9730783988	-0.339379
N	-2.3098126651	-0.0829273956	 1.1592991621	-0.402625
H	-0.1717628809	 1.9001778763	 0.3570764933	 0.286966
H	 0.6230957731	-0.6146190286	-0.6156740396	 0.124209
H	 0.4760002863	-0.1416423646	 1.0862633454	 0.109372
H	-3.1247746026	-0.7085384198	-1.3168577343	 0.121629
H	-1.5385507646	-1.4228646637	-1.900351175	 0.131027
H	-1.7374996831	-3.7861295541	-0.1742270775	 0.302504
H	-2.9182334231	 0.7228417863	 1.0499205422	 0.240074
57.5115	115.9166	162.0362	226.73	253.2156	298.5231	312.7087	371.62	396.5776	478.7125	535.8962	647.6907	678.8765	717.9172	772.1425	810.2079	876.7473	917.5254	943.7319	987.7355	1046.0217	1057.454	1063.365	1137.5426	1161.4332	1256.275	1289.152	1314.6662	1348.6394	1393.6907	1411.0233	1432.6575	1485.4033	1504.2497	1902.8313	3013.0593	3092.1899	3113.7772	3206.5727	3525.4526	3799.0044	3818.6396
OCC12CC1(O)C(=O)N2	OC[C@@]12C[C@]1(O)C(=O)N2	
InChI=1S/C5H7NO3/c7-2-4-1-5(4,9)3(8)6-4/h7,9H,1-2H2,(H,6,8)	InChI=1S/C5H7NO3/c7-2-4-1-5(4,9)3(8)6-4/h7,9H,1-2H2,(H,6,8)/t4-,5-/m0/s1
