23
gdb 115000	2.19435	1.35959	1.05446	1.3545	86.59	-0.2349	0.0296	0.2645	1269.0746	0.205072	-388.302992	-388.293173	-388.292229	-388.337073	37.865	
C	 0.3444752284	 1.437391212	-0.3955167776	-0.420676
C	 0.0232607414	-0.0321463982	-0.0403016556	 0.231773
C	-1.4663493932	-0.1507946029	 0.3201291388	-0.43078
C	 0.4070744581	-0.9221379528	-1.2114246629	-0.079651
C	 1.5298751055	-1.6041093254	-0.9996302602	-0.094591
C	 2.1087915129	-1.3245673353	 0.3655200537	-0.265849
C	 0.9387187773	-0.6156403986	 1.0926116856	 0.016239
C	 1.3751828194	 0.3606726169	 2.1739290857	-0.112954
O	 2.0599017279	-0.3898359468	 3.1706216274	-0.424215
H	 1.4054823787	 1.5742523992	-0.6249165886	 0.115389
H	-0.2251000891	 1.746298564	-1.2788445349	 0.10825
H	 0.0770471416	 2.1178273293	 0.4207087726	 0.108783
H	-2.1002597611	 0.225838151	-0.4907343822	 0.106887
H	-1.7445035518	-1.1924653123	 0.5084324412	 0.115067
H	-1.7032288294	 0.4305255856	 1.2188647329	 0.109601
H	-0.1738616108	-0.9306183166	-2.1289667177	 0.084082
H	 2.0074964212	-2.2619347803	-1.7181225343	 0.088442
H	 2.4367052665	-2.224470292	 0.8947690416	 0.111909
H	 2.9958061347	-0.6773064335	 0.2917789308	 0.098716
H	 0.3554600925	-1.3953843309	 1.5977671386	 0.081352
H	 2.031462565	 1.1358015171	 1.7490825197	 0.084601
H	 0.496835796	 0.8712151222	 2.6019830619	 0.083115
H	 2.3844817583	 0.2225540187	 3.8370471333	 0.284512
88.1862	114.4947	189.0417	235.4988	248.6164	256.0403	277.0799	293.2125	314.0353	338.6946	445.7395	477.8839	518.4335	574.141	713.5463	759.601	789.5079	860.5898	916.9748	939.126	955.0305	962.6771	975.8923	1009.2206	1021.8101	1061.3549	1085.2716	1100.134	1125.3009	1148.6616	1191.1418	1232.9982	1240.468	1260.7531	1267.4935	1309.7022	1331.9406	1361.2601	1381.6127	1397.7384	1421.1877	1460.3737	1483.061	1487.6001	1490.0742	1502.2783	1507.6551	1522.3064	1688.2658	2961.1584	2993.7677	2996.7651	3021.6928	3027.7123	3032.6973	3073.8066	3085.3035	3091.6227	3100.405	3104.3469	3167.7531	3196.1933	3829.2289
CC1(C)C=CCC1CO	CC1(C)C=CC[C@H]1CO	
InChI=1S/C8H14O/c1-8(2)5-3-4-7(8)6-9/h3,5,7,9H,4,6H2,1-2H3	InChI=1S/C8H14O/c1-8(2)5-3-4-7(8)6-9/h3,5,7,9H,4,6H2,1-2H3/t7-/m0/s1
