15
gdb 11980	2.77098	2.29522	1.79792	3.3562	60.83	-0.2403	-0.0187	0.2216	794.7386	0.117277	-399.772219	-399.764568	-399.763624	-399.803763	28.528	
C	-0.0550667799	 1.6364080314	-0.0664336371	-0.45332
C	 0.0276024814	 0.1202464615	-0.0475865965	 0.283192
O	-1.2450096796	-0.4726717095	 0.1575126014	-0.467217
C	 0.7326251026	-0.6342411263	-1.1799659485	-0.04962
C	 2.1741256807	-0.3785869694	-1.1946927592	-0.259782
N	 1.6676511395	-1.3800388784	-0.204321495	-0.178066
C	 1.0688102306	-0.5979653362	 0.8609075565	 0.339739
O	 1.2316536909	-0.6717313281	 2.0390220528	-0.307492
H	 0.9017928198	 2.1000836867	-0.3212372603	 0.122571
H	-0.8074524166	 1.9557786309	-0.7935568648	 0.135373
H	-0.3506615311	 2.005180951	 0.9217538299	 0.131477
H	-1.4980990786	-0.3129551971	 1.0742914415	 0.295799
H	 0.204985447	-1.1917453168	-1.9429769319	 0.127126
H	 2.7715401757	-0.8455872592	-1.970427447	 0.146171
H	 2.5769447076	 0.5608395396	-0.8255363417	 0.134051
128.6047	193.7546	205.1046	231.818	271.9114	317.1113	372.3946	477.2397	524.8042	659.2665	677.9866	753.729	759.0265	825.8647	912.8148	967.7	985.7746	1020.1953	1045.0613	1108.6908	1123.3678	1149.3886	1183.0188	1198.418	1251.386	1339.2624	1382.7796	1406.8239	1486.5051	1487.7595	1510.6989	1909.8348	3038.2781	3108.1088	3119.6516	3123.5035	3206.0801	3215.2411	3799.7884
CC1(O)C2CN2C1=O	C[C@@]1(O)[C@H]2CN2C1=O	
InChI=1S/C5H7NO2/c1-5(8)3-2-6(3)4(5)7/h3,8H,2H2,1H3	InChI=1S/C5H7NO2/c1-5(8)3-2-6(3)4(5)7/h3,8H,2H2,1H3/t3-,5-,6?/m1/s1
