16
gdb 53642	5.83095	0.57557	0.52729	2.9847	77.92	-0.2601	-0.077	0.1831	2009.331	0.120983	-437.867438	-437.857277	-437.856332	-437.905352	33.411	
C	-0.1306106526	 1.4421960487	 0.01200283	-0.499267
C	-0.0725353156	-0.0115717513	 0.0030747828	 0.147016
C	-0.0248958664	-1.2136368715	-0.0042971729	 0.013615
C	 0.0724154117	-2.6609841974	-0.0136330079	-0.242861
O	-1.2586709306	-3.2236498102	-0.0035432886	-0.236832
C	-1.3173268962	-4.5623779187	-0.009870944	 0.323107
N	-0.3058881754	-5.3258701791	-0.0238383917	-0.505639
C	-2.7581164043	-5.0290498739	 0.0020157952	 0.10769
O	-3.0461551639	-6.1967074375	-0.0011276255	-0.234545
H	 0.8765203252	 1.872950715	 0.0050596058	 0.155185
H	-0.6616270175	 1.8246576943	-0.8662202379	 0.153876
H	-0.6450393117	 1.8144299793	 0.9043794072	 0.15388
H	 0.6005568694	-3.0302773275	-0.9003818505	 0.152887
H	 0.6181859443	-3.0404678292	 0.8580002281	 0.152918
H	-0.6340302718	-6.2942501703	-0.0255398211	 0.24759
H	-3.5142285648	-4.2197884208	 0.0136351908	 0.111382
17.0709	40.8932	69.8278	109.9472	193.4773	195.9306	212.2467	293.2268	317.3822	378.4302	424.3154	529.9978	570.8306	708.4209	810.3067	898.2783	955.2478	978.0778	1010.3942	1040.157	1051.9526	1053.9043	1121.1865	1182.7144	1248.3179	1335.8051	1385.941	1414.1299	1443.3814	1474.8529	1478.2561	1486.8213	1716.0183	1831.1607	2382.3294	2951.8261	3031.0928	3036.6418	3068.422	3094.1968	3094.33	3467.686
CC#CCOC(=N)C=O	CC#CCO[C]([NH])C=O	
InChI=1S/C6H7NO2/c1-2-3-4-9-6(7)5-8/h5,7H,4H2,1H3	InChI=1S/C6H7NO2/c1-2-3-4-9-6(7)5-8/h5,7H,4H2,1H3
