17
gdb 79916	2.57288	1.49889	1.27164	3.364	75.01	-0.238	0.0068	0.2448	1061.2259	0.135037	-421.817604	-421.809474	-421.80853	-421.850025	31.262	
C	-0.0175596278	 1.4089904866	 0.0790591457	-0.516077
C	-0.0593076923	-0.0801042258	 0.0477820851	 0.316197
C	-0.0609103808	-0.9387789784	-0.9951090803	-0.197125
C	 0.0223579961	-2.3139460283	-0.368453284	-0.237031
C	-0.9609203702	-2.1226667158	 0.8431089185	 0.155908
O	-0.9687257747	-3.1527931669	 1.7946494257	-0.438012
C	 0.0197662698	-0.9892860634	 1.2646566781	-0.25054
C	 1.137557708	-1.9633580425	 0.6996504237	 0.433445
O	 2.2546930478	-2.2648169476	 0.9473802292	-0.302913
H	 0.8943755374	 1.7686635084	 0.5720065382	 0.138539
H	-0.0403881124	 1.8234707077	-0.9328898934	 0.129027
H	-0.8629586704	 1.8260684857	 0.6395106137	 0.131264
H	-0.0262152337	-0.7153876489	-2.0525450138	 0.106675
H	 0.0343267915	-3.2061244245	-0.9916199092	 0.078401
H	-1.9641805509	-1.7797987754	 0.5580654672	 0.074601
H	-1.4236267159	-3.9142881168	 1.4202811663	 0.290267
H	 0.0290364584	-0.5695056642	 2.2680115495	 0.087374
120.0783	160.3415	171.1224	254.6222	284.408	320.7838	366.5602	428.6931	500.3067	569.9787	585.6362	650.1243	743.0291	822.8613	849.102	873.5005	899.3459	943.209	958.3771	1005.7283	1021.1811	1058.593	1081.4434	1112.9002	1140.275	1172.2659	1192.2158	1227.8559	1244.3152	1280.1353	1314.6357	1399.9837	1414.5245	1476.0681	1486.2698	1651.4378	1927.2781	3020.2379	3029.3595	3068.9526	3109.0931	3143.6657	3153.9482	3224.7356	3815.0327
CC1=CC2C(O)C1C2=O	CC1=C[C@@H]2[C@@H](O)[C@H]1C2=O	
InChI=1S/C7H8O2/c1-3-2-4-6(8)5(3)7(4)9/h2,4-6,8H,1H3	InChI=1S/C7H8O2/c1-3-2-4-6(8)5(3)7(4)9/h2,4-6,8H,1H3/t4-,5+,6-/m1/s1
