19
gdb 72616	2.11157	1.92148	1.57808	2.2373	74.6	-0.2231	0.0591	0.2822	971.7644	0.15865	-422.984411	-422.976105	-422.975161	-423.016709	33.032	
O	-0.1778198411	 1.4438162603	-0.1513702891	-0.482803
C	-0.0235871755	 0.0633923149	-0.0073653282	 0.33506
C	 1.129463134	-0.6469713616	-0.7613337617	-0.293614
C	 1.5399010808	-1.4219422593	 0.5264948003	-0.293861
C	 0.404927621	-0.7452297094	 1.3366176997	 0.335132
O	 0.6971045589	-0.2062847223	 2.591367418	-0.482851
C	-0.9112275859	-1.4803889244	 1.2620751772	-0.070179
C	-2.0560767746	-0.5085510682	 1.2797905795	-0.307904
C	-1.3170329974	-0.7146524133	-0.0111934762	-0.070049
H	 0.6918106226	 1.8564136134	-0.1296723083	 0.272385
H	 0.8318359751	-1.251964796	-1.6218948435	 0.103945
H	 1.8997156975	 0.0560996053	-1.0958651043	 0.087637
H	 1.4996721	-2.5131757899	 0.4740826663	 0.104007
H	 2.5333693534	-1.140153736	 0.8914915127	 0.087518
H	 1.5501399992	 0.2378501366	 2.5466382294	 0.272393
H	-1.0424453231	-2.5374228825	 1.4640936491	 0.081647
H	-3.0417713491	-0.959773412	 1.3226902285	 0.109158
H	-1.9637533652	 0.430375645	 1.8148423666	 0.130683
H	-1.7947273305	-1.1175972306	-0.8970561358	 0.081699
121.3103	173.5684	181.8489	249.7756	277.9168	324.2219	371.5481	405.0271	529.1911	534.4107	581.7031	656.2123	704.4331	755.486	803.9235	837.4791	905.9666	939.3451	943.646	951.7321	971.5243	1037.4304	1063.3653	1064.5535	1084.0552	1085.3551	1099.7976	1114.4358	1175.6424	1200.5726	1219.6372	1228.942	1273.2224	1280.1558	1293.5602	1340.5944	1392.6422	1408.7781	1475.6241	1490.339	1492.3544	3037.4978	3047.7521	3087.2824	3105.0917	3134.403	3169.9456	3179.2141	3220.27	3807.5302	3809.1893
OC12CCC1(O)C1CC21	O[C@@]12CC[C@]1(O)[C@H]1C[C@@H]21	
InChI=1S/C7H10O2/c8-6-1-2-7(6,9)5-3-4(5)6/h4-5,8-9H,1-3H2	InChI=1S/C7H10O2/c8-6-1-2-7(6,9)5-3-4(5)6/h4-5,8-9H,1-3H2/t4-,5+,6-,7+
