15
gdb 132854	3.01197	1.35903	0.94186	1.3182	74.39	-0.2122	-0.0507	0.1615	1154.2389	0.111998	-461.942855	-461.935088	-461.934144	-461.975172	29.485	
C	-0.0252078163	 1.520808532	-0.021454396	-0.468898
C	-0.0427271215	 0.0230068299	-0.0188178371	 0.21813
C	-1.1707585867	-0.7167730872	-0.121434132	-0.278592
C	-1.0947175654	-2.1462478852	-0.110302964	 0.186507
F	-2.2253978158	-2.8520554136	-0.2129519851	-0.074158
C	 0.092569503	-2.7579920543	 0.0013428809	-0.0648
O	 1.2407151898	-2.0434657679	 0.1055969461	-0.234016
C	 1.250755065	-0.6521136291	 0.1034217258	 0.340439
N	 2.3486903199	-0.0187433178	 0.2042923047	-0.535345
H	 0.5944849119	 1.8950684106	-0.8426519005	 0.150773
H	-1.0350550668	 1.9266615505	-0.1167314532	 0.11608
H	 0.4325265893	 1.9001528643	 0.8977684234	 0.150798
H	-2.1465524528	-0.2515732391	-0.2133418462	 0.122634
H	 0.2481700343	-3.8275071598	 0.0186459884	 0.147393
H	 3.134964492	-0.6640845932	 0.279233365	 0.223055
101.6538	165.5057	209.2563	285.1549	353.3338	358.9223	390.4069	463.278	486.3566	556.8742	566.7891	673.3611	747.8263	803.4268	845.7723	847.9278	907.0078	977.0825	986.7234	1035.172	1069.9944	1153.7831	1212.067	1249.4884	1290.7837	1369.0716	1414.5877	1432.2355	1464.4547	1484.361	1634.7086	1694.6279	1734.5894	3041.7156	3099.0054	3128.6844	3192.4534	3238.6923	3494.5149
CC1=CC(F)=COC1=N	CC1=C(OC=C(C1)F)[NH]	
InChI=1S/C6H6FNO/c1-4-2-5(7)3-9-6(4)8/h2-3,8H,1H3	InChI=1S/C6H7FNO/c1-4-2-5(7)3-9-6(4)8/h3,8H,2H2,1H3
