14
gdb 133231	3.1978	1.41325	0.98611	1.467	68.25	-0.2356	-0.0695	0.1661	1091.783	0.100889	-478.009628	-478.002027	-478.001083	-478.042129	27.887	
C	-0.0284667723	 1.4070676186	-0.0481430831	-0.31489
N	-0.0008756731	-0.0516165476	-0.0234586574	-0.062949
N	-0.0260127418	-0.667000228	-1.2190554111	-0.263244
C	-0.0021224672	-1.9547164407	-1.2156188566	 0.343463
F	-0.0272142163	-2.553183209	-2.4020281445	-0.06654
C	 0.048615648	-2.7656540808	-0.0488594703	-0.22602
C	 0.0735058398	-2.1334299581	 1.1478652495	-0.177913
C	 0.0489377491	-0.680051774	 1.2307042498	 0.425273
O	 0.0684725361	-0.0167863727	 2.2559015367	-0.399521
H	 0.8630618493	 1.8043444586	 0.443545274	 0.155286
H	-0.066242765	 1.7177431126	-1.0901718859	 0.151082
H	-0.9020881106	 1.7718313015	 0.4978713945	 0.155288
H	 0.0656353502	-3.8450043851	-0.1480373932	 0.137771
H	 0.1122855737	-2.6654447553	 2.0903412175	 0.142915
80.661	128.0801	194.2078	311.8822	335.2348	368.5612	418.5715	487.997	534.7204	586.3541	602.2152	714.297	753.7561	817.9325	863.7163	956.0012	1005.2737	1047.9607	1134.778	1148.5841	1178.3786	1276.7579	1318.1	1355.5666	1438.2232	1467.1567	1470.6557	1501.7711	1576.6249	1660.8801	1764.2389	3059.2347	3121.9339	3183.0746	3199.3776	3222.3714
CN1N=C(F)C=CC1=O	Cn1nc(F)ccc1=O	
InChI=1S/C5H5FN2O/c1-8-5(9)3-2-4(6)7-8/h2-3H,1H3	InChI=1S/C5H5FN2O/c1-8-5(9)3-2-4(6)7-8/h2-3H,1H3
