17
gdb 119678	3.99792	1.01407	0.92722	1.3567	67.95	-0.2454	0.0508	0.2962	1265.2668	0.133634	-458.835476	-458.827334	-458.826389	-458.868913	30.341	
O	-0.0685156847	 1.407704306	 0.1037482257	-0.418687
C	 0.0442942631	-0.00506867	 0.0572339652	-0.074732
C	-1.3734710628	-0.5718483443	 0.0377820297	-0.349129
C	-1.3965117389	-2.0631465145	-0.0083674462	 0.440383
O	-0.7766336129	-2.8404712722	 1.0678008113	-0.35456
C	-1.2824150799	-3.8781602808	 0.1859739144	 0.036069
C	-2.5637701273	-3.0887280657	-0.2213320332	-0.013837
O	-2.337481687	-3.2245461715	-1.652278353	-0.325274
C	-0.9877668955	-3.0924070594	-1.1262762998	-0.001922
H	 0.8156037937	 1.7779341919	 0.1797946463	 0.288085
H	 0.5867438159	-0.3352934415	-0.8433849189	 0.088179
H	 0.5836658993	-0.4001277548	 0.9300134197	 0.111225
H	-1.9095557665	-0.2243782121	 0.9280994497	 0.125825
H	-1.9107055318	-0.1899229747	-0.8379074983	 0.131175
H	-1.1311368994	-4.9231027763	 0.4526078359	 0.106427
H	-3.5834201074	-3.1116088258	 0.162472081	 0.106014
H	-0.142958328	-3.1228417242	-1.8140265794	 0.104761
75.5843	86.1222	127.2397	252.1346	258.2725	340.4677	352.9607	531.7775	576.1349	711.4776	740.6635	772.4603	778.9059	820.9152	837.7793	860.6374	901.4272	939.6849	978.8843	1009.3955	1042.0849	1088.8865	1107.6749	1114.1494	1138.8783	1163.9099	1175.8667	1217.5424	1249.0491	1256.5139	1284.4622	1310.8723	1329.9546	1412.9928	1462.1793	1472.6687	1529.151	2971.3551	3016.9061	3043.6461	3089.8518	3123.7008	3126.1641	3144.6814	3832.407
OCCC12OC3C1OC23	OCC[C@@]12O[C@H]3[C@@H]1O[C@@H]23	
InChI=1S/C6H8O3/c7-2-1-6-4-3(9-6)5(6)8-4/h3-5,7H,1-2H2	InChI=1S/C6H8O3/c7-2-1-6-4-3(9-6)5(6)8-4/h3-5,7H,1-2H2/t3-,4-,5+,6+
