13
gdb 5099	3.37808	2.02317	1.27068	1.8107	55.83	-0.1741	0.0445	0.2185	868.4932	0.094885	-435.748028	-435.740073	-435.739129	-435.77971	29.418	
O	 0.0713731673	 1.3668069454	-0.0251473021	-0.455652
C	 0.0574408192	 0.0037514912	-0.0414251711	 0.254864
C	-0.0174950988	-0.8046393045	-1.1451891709	-0.196707
N	 0.0165244865	-2.1228629672	-0.6828494363	-0.3083
C	 0.0965445251	-2.1344771346	 0.6728739341	 0.332054
O	 0.11642139	-3.3117105746	 1.3447498799	-0.440612
C	 0.1424045482	-0.8323979827	 1.1136503841	-0.010609
O	 0.1750713119	-0.4096674533	 2.4321521428	-0.462907
H	-0.0638986192	 1.6344858993	 0.8913302371	 0.294306
H	-0.0781616225	-0.5754769095	-2.1937741819	 0.119969
H	-0.0780832131	-2.9462945935	-1.2489936773	 0.267276
H	 0.0220968381	-3.1003811711	 2.2808781417	 0.308332
H	 1.0913495074	-0.237651915	 2.67939	 0.297987
176.7685	203.3256	218.2797	241.3152	282.8086	286.2112	335.2564	412.3786	430.428	565.5346	578.5438	586.8612	647.9745	686.276	757.2883	777.73	1056.4246	1082.5833	1178.8124	1190.1047	1231.9817	1274.0972	1338.6943	1393.6579	1457.2208	1575.1952	1628.1541	1688.8556	3293.5645	3700.9301	3761.3073	3798.7056	3812.343
OC1=CNC(O)=C1O	Oc1c[nH]c(O)c1O	
InChI=1S/C4H5NO3/c6-2-1-5-4(8)3(2)7/h1,5-8H	InChI=1S/C4H5NO3/c6-2-1-5-4(8)3(2)7/h1,5-8H
