15
gdb 20604	3.29885	2.03436	1.27187	2.7097	64.04	-0.1994	0.043	0.2424	909.7159	0.119779	-396.005475	-395.997194	-395.99625	-396.037906	29.97	
C	-0.0216693791	 1.5767782838	-0.0063801637	-0.523291
C	-0.0207523391	 0.0814550678	-0.0187504919	 0.068891
C	 0.0054675117	-0.7821444584	-1.1009548493	 0.307396
N	-0.0571074813	-0.5439545083	-2.4766457561	-0.607905
N	 0.0558530426	-2.0464002429	-0.6124557682	-0.266042
N	 0.0277157102	-2.0797490445	 0.7593341779	-0.351799
C	-0.0106563408	-0.8031091641	 1.08925328	 0.363123
O	-0.0118680857	-0.3995310503	 2.3794642611	-0.432141
H	 0.4514990411	 1.986412793	-0.9071596619	 0.104416
H	-1.031248747	 2.0026617747	 0.0528468309	 0.128545
H	 0.5362705342	 1.9556947535	 0.8551822909	 0.140247
H	-0.0665546731	 0.446421807	-2.6827134594	 0.253186
H	 0.6972631427	-0.9828202011	-2.9925787046	 0.250188
H	-0.1036946367	-2.8966088954	-1.1230689867	 0.265507
H	 0.0354705203	-1.1973122748	 2.9212056509	 0.299682
89.2302	166.4334	176.6677	230.7703	265.2525	287.9078	306.4933	406.6037	445.1522	535.0061	586.9151	649.4443	718.3171	730.3436	774.7117	802.1194	957.193	1064.5647	1095.8965	1110.0442	1193.3753	1225.5802	1286.8124	1346.7447	1421.0975	1468.3632	1482.5751	1500.3003	1562.6745	1577.5019	1635.8413	1677.331	3014.791	3061.3028	3099.2084	3523.2627	3620.5733	3687.5197	3792.9741
CC1=C(N)NN=C1O	Cc1c(N)[nH]nc1O	
InChI=1S/C4H7N3O/c1-2-3(5)6-7-4(2)8/h1H3,(H4,5,6,7,8)	InChI=1S/C4H7N3O/c1-2-3(5)6-7-4(2)8/h1H3,(H4,5,6,7,8)
