15
gdb 50952	3.05785	0.85206	0.71293	4.1475	70.68	-0.279	-0.0543	0.2247	1495.6868	0.110562	-416.837799	-416.828302	-416.827357	-416.873777	31.67	
O	-0.5572163709	 0.750993931	 0.8763967833	-0.224283
C	 0.0772246415	 0.9526775058	-0.1244493115	 0.146046
C	 1.3317929996	 1.8118013392	-0.1583744182	-0.295268
C	 1.2994847243	 2.903629527	-1.255566534	-0.163201
C	 2.5738784858	 3.7881679844	-1.1745040959	-0.348682
C	 2.5297766891	 4.9358735851	-2.0767383176	 0.271033
N	 2.4791868111	 5.8494327614	-2.7813215028	-0.282241
C	 1.1685683953	 2.3052425292	-2.5885584079	 0.292237
N	 1.0791206097	 1.8058486533	-3.626520614	-0.305184
H	-0.2148574935	 0.5062940071	-1.0990482641	 0.115552
H	 1.4541668638	 2.2740963226	 0.8244512689	 0.13977
H	 2.1893949066	 1.150115363	-0.3406044035	 0.146893
H	 0.4277707931	 3.5478664717	-1.092321041	 0.163484
H	 2.6806756476	 4.1525764648	-0.1476173513	 0.168934
H	 3.4595010067	 3.1850952343	-1.3999759805	 0.17491
47.5504	65.4455	84.1042	121.9912	159.294	236.1275	262.6225	333.5535	389.4277	464.9779	504.9045	555.6488	622.9095	791.4993	822.6048	926.8047	939.9687	1012.879	1050.6901	1086.919	1101.1346	1203.2351	1230.1944	1274.4297	1331.0807	1352.7611	1367.9936	1429.5499	1457.0768	1468.2341	1838.0663	2361.8718	2370.4281	2912.9126	3028.8586	3051.3117	3059.2038	3100.5873	3112.3
O=CCC(CC#N)C#N	O=CC[C@@H](CC#N)C#N	
InChI=1S/C6H6N2O/c7-3-1-6(5-8)2-4-9/h4,6H,1-2H2	InChI=1S/C6H6N2O/c7-3-1-6(5-8)2-4-9/h4,6H,1-2H2/t6-/m1/s1
