13
gdb 23969	6.24879	0.89926	0.78613	5.8021	84.92	-0.2298	-0.0263	0.2035	1332.0759	0.090567	-378.49942	-378.491782	-378.490838	-378.531652	28.581	
C	 0.1159272197	-1.1990922954	-0.0057265261	-0.424781
C	 0.0095338299	 0.0007865701	 0.0025326249	 0.257964
C	-0.0940480203	 1.4051051783	 0.0119896269	 0.210378
C	-1.1966788873	 2.236737456	 0.031493167	-0.369229
C	-0.718584908	 3.5782017019	 0.0328176477	 0.17941
C	 0.6684290793	 3.5246277675	 0.0140070222	-0.157449
N	 1.0286051406	 2.218536484	 0.0016971418	-0.315366
C	-1.4993978048	 4.7601215739	 0.0500222118	 0.19105
N	-2.1421065954	 5.7236911456	 0.0641312544	-0.344378
H	 0.1968935053	-2.2579952284	-0.0128209255	 0.200805
H	-2.2268405668	 1.9217908781	 0.0434272063	 0.134503
H	 1.3951579684	 4.3198859561	 0.0088752519	 0.156404
H	 1.9730200293	 1.8714779522	-0.0128568634	 0.280689
109.4339	117.1339	199.8503	210.7039	444.9968	476.3826	506.6111	520.4213	543.7391	569.9183	587.8882	662.2657	662.4805	683.0929	691.0782	779.9998	850.0091	989.5122	991.8567	1149.0177	1166.1671	1242.5255	1343.7714	1381.5373	1440.9978	1518.4382	1600.8912	2232.4436	2347.7597	3279.1588	3280.1767	3500.564	3673.2951
C#CC1=CC(=CN1)C#N	C#Cc1cc(c[nH]1)C#N	
InChI=1S/C7H4N2/c1-2-7-3-6(4-8)5-9-7/h1,3,5,9H	InChI=1S/C7H4N2/c1-2-7-3-6(4-8)5-9-7/h1,3,5,9H
