15
gdb 15552	3.26131	2.0308	1.41483	1.848	66.47	-0.2568	0.0128	0.2696	870.4887	0.118492	-362.641533	-362.633939	-362.632995	-362.674016	27.776	
C	-0.3431163058	 1.5341507305	-0.0634179382	-0.403136
C	 0.0713508668	 0.0763360556	-0.0817350364	 0.100434
O	 1.1416913396	-0.1109572448	-1.0513402913	-0.226648
C	 2.1007209658	-0.8156775805	-0.4175648193	 0.124559
N	 1.9768323188	-1.1235883507	 0.8055195178	-0.258514
C	 0.6848836071	-0.5281851373	 1.2371068512	-0.199845
C	 0.8856518385	 0.4272365213	 2.3235324285	 0.377913
C	 1.0381353318	 1.2092575053	 3.2228926485	-0.479728
H	 0.4837419017	 2.1697781503	 0.2612732069	 0.140345
H	-0.661773141	 1.8449862746	-1.0619736533	 0.127178
H	-1.1770675496	 1.6796667385	 0.6288038119	 0.13049
H	-0.7604401352	-0.5520254806	-0.4167572811	 0.099923
H	 2.9510590394	-1.0758849436	-1.0388785044	 0.145005
H	 0.0416387074	-1.3345071684	 1.6068776377	 0.119879
H	 1.1814556046	 1.89532165	 4.0208986712	 0.202145
36.089	155.3354	201.1872	230.9752	323.7924	394.3852	468.7768	509.5471	594.8858	627.7354	657.2758	726.3818	809.0904	850.9354	893.8711	954.6547	975.3266	1014.9264	1069.5678	1115.1201	1146.0164	1158.6352	1259.8313	1316.6362	1325.663	1362.2043	1385.1292	1416.2301	1482.3672	1490.7419	1704.1841	2237.8583	3034.0711	3050.9124	3055.4648	3124.8111	3136.9956	3212.0276	3502.4789
CC1OC=NC1C#C	C[C@H]1OC=N[C@H]1C#C	
InChI=1S/C6H7NO/c1-3-6-5(2)8-4-7-6/h1,4-6H,2H3	InChI=1S/C6H7NO/c1-3-6-5(2)8-4-7-6/h1,4-6H,2H3/t5-,6+/m1/s1
