17
gdb 85764	3.0178	1.21068	0.91033	1.7474	71.75	-0.2402	-0.033	0.2072	1256.5526	0.135269	-455.194631	-455.185179	-455.184235	-455.229888	32.837	
C	-0.037728413	 1.5234311196	-0.0544421297	-0.481965
C	 0.0727740988	 0.0180500959	 0.0058711035	 0.382432
O	 1.1127902466	-0.6010991805	 0.030774999	-0.327582
N	-1.1415804713	-0.6654662572	 0.0216338451	-0.142106
C	-1.3825096822	-2.1177084442	 0.0759347362	-0.175248
C	-2.911268449	-1.8151136555	 0.0230753924	-0.119298
N	-3.7244651351	-2.377803013	 1.0767697849	-0.506659
C	-2.4997483449	-0.3138228708	 0.0548583845	 0.391677
O	-3.0526204698	 0.7484723099	 0.1241745156	-0.353241
H	 0.9602609232	 1.949996161	 0.0422382078	 0.143773
H	-0.4806539818	 1.8289839093	-1.0077559945	 0.154849
H	-0.7001039317	 1.8996309344	 0.7290494997	 0.159764
H	-0.9605438453	-2.6643690054	-0.7689186462	 0.136478
H	-1.0512066168	-2.5715959184	 1.0131366692	 0.133062
H	-3.3513989876	-2.0749126464	-0.9441412494	 0.119894
H	-3.4262574518	-2.0319177324	 1.984779187	 0.236982
H	-4.6914604483	-2.0905845462	 0.9617173349	 0.247188
50.483	70.9851	108.711	157.4261	178.8834	233.0285	254.3777	340.178	391.1999	423.2632	584.5523	606.8182	625.0875	763.3758	769.8315	863.5286	867.9578	960.3462	988.991	1007.1183	1059.8455	1135.1639	1145.948	1152.6328	1184.0296	1224.4219	1245.053	1317.2461	1360.7694	1401.8667	1424.996	1454.8162	1474.4859	1517.0391	1664.454	1796.6266	1875.6465	3056.0285	3073.6275	3076.5686	3122.0545	3131.7138	3168.182	3492.7652	3573.998
CC(=O)N1CC(N)C1=O	CC(=O)N1C[C@@H](N)C1=O	
InChI=1S/C5H8N2O2/c1-3(8)7-2-4(6)5(7)9/h4H,2,6H2,1H3	InChI=1S/C5H8N2O2/c1-3(8)7-2-4(6)5(7)9/h4H,2,6H2,1H3/t4-/m1/s1
