16
gdb 56109	4.28649	0.70777	0.62893	2.173	73.4	-0.2526	-0.0566	0.196	1684.6742	0.120819	-437.90206	-437.891919	-437.890974	-437.939093	34.836	
N	 0.0399130264	 1.2960894714	-0.1901818434	-0.523606
C	 0.046271505	-0.0154282653	 0.187771016	 0.409241
O	 1.0321554097	-0.5536430354	 0.6546208618	-0.35826
C	-1.2820578941	-0.7425056167	-0.013183954	-0.328314
C	-1.0909447883	-2.2536478049	-0.0820248233	-0.299118
C	-2.3616603606	-3.0299371153	 0.2006361638	 0.222115
O	-3.3996842528	-2.5124961477	 0.5560570216	-0.294119
C	-2.2547958245	-4.4703862296	 0.0284825958	 0.247808
C	-2.1479100563	-5.6598707291	-0.1211922889	-0.383975
H	 0.8481312244	 1.8548503049	 0.0307321518	 0.261877
H	-0.8039310298	 1.7638819849	-0.4717065948	 0.260149
H	-1.9351173546	-0.5025508483	 0.8343448838	 0.153083
H	-1.7968126157	-0.3658533052	-0.9032781658	 0.115629
H	-0.694933122	-2.5740334574	-1.053180016	 0.134679
H	-0.3272266597	-2.5559884172	 0.646172374	 0.168197
H	-2.0692542071	-6.7124672889	-0.2475526225	 0.214614
30.9708	45.1972	71.8654	112.8589	195.6198	225.6601	242.6724	260.9299	382.7077	491.9636	523.1914	566.1939	591.5663	623.2406	645.4347	658.9833	705.5757	799.1768	815.2878	901.5485	1022.2752	1055.0925	1092.1504	1121.2061	1163.4058	1252.353	1290.6627	1360.8365	1406.068	1448.9407	1468.5718	1619.2667	1764.6009	1795.6458	2212.5046	3038.7745	3047.273	3066.5708	3087.3121	3494.8734	3599.6143	3734.6524
NC(=O)CCC(=O)C#C	NC(=O)CCC(=O)C#C	
InChI=1S/C6H7NO2/c1-2-5(8)3-4-6(7)9/h1H,3-4H2,(H2,7,9)	InChI=1S/C6H7NO2/c1-2-5(8)3-4-6(7)9/h1H,3-4H2,(H2,7,9)
