14
gdb 128968	4.09993	1.66003	1.18161	3.7429	77.16	-0.223	-0.0464	0.1766	950.4767	0.10675	-395.789525	-395.783712	-395.782767	-395.819592	23.634	
N	 0.013310248	 1.3321729395	 0.0095945048	-0.159258
C	 1.2442209085	 1.876918594	 0.0005374521	-0.174684
C	 2.1250652523	 0.7943894682	-0.0141295807	 0.1684
C	 3.5267876349	 0.6038404614	-0.0289587865	-0.087177
N	 4.065106015	-0.5920193136	-0.0408998365	-0.288464
C	 3.2359922745	-1.6829884619	-0.0388209556	 0.003931
C	 1.8656911348	-1.6397532615	-0.0251157771	-0.225842
C	 1.2711614691	-0.3573985917	-0.0121442027	 0.338179
N	-0.0289239451	-0.0140917074	 0.0025466484	-0.337251
H	-0.8619914924	 1.8322755296	 0.0209610224	 0.285197
H	 1.3966441928	 2.9440920495	 0.0049728926	 0.151991
H	 4.2062069265	 1.4548566022	-0.030905796	 0.107892
H	 3.7485941253	-2.6406205668	-0.0491791308	 0.10786
H	 1.2655891458	-2.5417616416	-0.0242305345	 0.109227
218.8695	254.2141	411.274	440.095	559.8681	604.4395	627.694	631.7301	693.7813	752.2947	797.1012	817.2356	847.12	907.966	951.3423	954.6428	988.0649	1037.6581	1075.3098	1188.702	1214.0905	1248.4448	1318.4438	1351.938	1388.9284	1396.5104	1477.1616	1504.7992	1541.9384	1566.9543	1658.1096	3135.9258	3168.6819	3208.4042	3268.2995	3649.6552
N1C=C2C=NC=CC2=N1	[nH]1cc2cnccc2n1	
InChI=1S/C6H5N3/c1-2-7-3-5-4-8-9-6(1)5/h1-4H,(H,8,9)	InChI=1S/C6H5N3/c1-2-7-3-5-4-8-9-6(1)5/h1-4H,(H,8,9)
