17
gdb 66837	2.72445	1.92146	1.44971	1.8452	70.66	-0.2376	0.0694	0.3069	928.0746	0.135509	-421.737372	-421.730104	-421.72916	-421.768642	29.371	
C	-0.0860237648	 1.4092261185	-0.0115588716	-0.52424
C	-0.0138536953	-0.0846223024	 0.0606713949	 0.288094
C	 0.2023434964	-1.0000247072	-1.1781761992	-0.248217
C	 0.9627721943	-2.1473174028	-0.4676470286	 0.0853
O	 1.8806223696	-1.5482069411	 0.4781255996	-0.294941
C	 0.700192436	-0.9963408236	 1.103340302	 0.025609
C	-0.208239686	-2.1530128212	 0.5729416844	-0.193924
C	-1.0237390125	-1.1349001311	-0.2965996882	 0.313409
O	-2.3633637247	-0.9739129347	-0.5365054288	-0.453192
H	 0.9122055703	 1.8496762228	-0.1118668064	 0.127519
H	-0.6847689023	 1.7303283435	-0.8697317611	 0.128099
H	-0.5515920432	 1.8284225696	 0.8873387413	 0.123499
H	 0.3196221208	-0.5834660557	-2.1698910282	 0.092855
H	 1.3754324179	-2.9920855796	-1.0173737899	 0.079692
H	 0.8437232139	-0.6749787515	 2.1344007689	 0.07883
H	-0.5508460311	-3.009799163	 1.1475592301	 0.081412
H	-2.6467584494	-1.6471233804	-1.1656615792	 0.290195
171.9327	183.6341	250.4298	279.6303	317.4296	356.0637	549.0626	577.8241	634.8242	660.6441	738.3346	773.0754	802.8313	827.3232	852.4673	857.3879	918.0297	920.2512	927.5847	984.6513	1021.4016	1041.8239	1078.2822	1111.5794	1148.7908	1161.5076	1185.1933	1197.6568	1219.2015	1251.4932	1287.9317	1311.0055	1354.1334	1417.4418	1485.4345	1491.5131	1514.5078	3027.2042	3087.5486	3101.9132	3127.048	3128.7377	3154.3245	3205.3951	3787.2418
CC12C3C4OC1C4C23O	C[C@@]12[C@H]3[C@H]4O[C@@H]1[C@H]4[C@@]23O	
InChI=1S/C7H8O2/c1-6-4-3-2(5(6)9-3)7(4,6)8/h2-5,8H,1H3	InChI=1S/C7H8O2/c1-6-4-3-2(5(6)9-3)7(4,6)8/h2-5,8H,1H3/t2-,3-,4+,5+,6+,7-/m0/s1
