17
gdb 79174	2.64879	1.87866	1.46622	2.3999	70.67	-0.2347	-0.0214	0.2133	925.5703	0.137525	-421.815164	-421.808044	-421.8071	-421.846798	28.387	
O	 0.1345687193	 1.3847996541	 0.2610407261	-0.439032
C	-0.010980468	-0.0088566138	 0.0512009692	 0.022926
C	-1.4443906547	-0.4600997467	-0.0924795653	-0.061029
C	-2.2593634995	-0.1197957657	-1.327641778	-0.054779
C	-1.3682113663	 0.2818520163	-2.4998777205	-0.241065
C	-0.4504624655	-0.9662255376	-2.1761750272	-0.166745
C	-1.5655429726	-1.4656507754	-1.2154974341	-0.096794
C	 0.6464951754	-0.4258993348	-1.2872992271	 0.387278
O	 1.8059944505	-0.2291819947	-1.5526329069	-0.340614
H	 1.0647115962	 1.5887317844	 0.0982834441	 0.291311
H	 0.469374653	-0.5810042527	 0.8632130567	 0.086101
H	-2.0268494773	-0.634547453	 0.8043428215	 0.096676
H	-3.3133935915	 0.1098315108	-1.2290014622	 0.091788
H	-1.8683736554	 0.1323284834	-3.4589441589	 0.115571
H	-0.9034223451	 1.2719072189	-2.4785839544	 0.120101
H	-0.1192854276	-1.5673710673	-3.0191943685	 0.092316
H	-1.9551202009	-2.4699724462	-1.1233762045	 0.095989
72.6406	196.9246	242.4622	334.0356	389.7704	465.1931	498.3938	574.7589	648.2747	708.1493	745.8639	791.6613	801.8303	839.8642	889.1401	936.5557	953.4457	975.3664	990.0499	1010.4341	1047.7837	1067.9184	1095.0835	1116.691	1133.8224	1178.3315	1198.4298	1230.8523	1240.1326	1256.2766	1294.3909	1313.313	1335.4453	1408.7855	1420.6646	1489.8341	1840.3966	2957.8857	3056.721	3116.0585	3150.5905	3180.5818	3188.7292	3211.9807	3771.0132
OC1C2C3CC(C23)C1=O	O[C@H]1[C@H]2[C@H]3C[C@H]([C@@H]23)C1=O	
InChI=1S/C7H8O2/c8-6-3-1-2-4(3)5(2)7(6)9/h2-5,7,9H,1H2	InChI=1S/C7H8O2/c8-6-3-1-2-4(3)5(2)7(6)9/h2-5,7,9H,1H2/t2-,3+,4-,5-,7-/m0/s1
