17
gdb 108400	2.33252	1.38758	1.0808	1.3817	74.89	-0.2367	0.0394	0.2761	1155.886	0.134065	-421.734448	-421.72569	-421.724746	-421.768125	32.603	
O	 0.0809623187	 1.399515019	-0.1720976533	-0.409607
C	 0.0584011379	 0.0044533393	 0.0933233941	-0.179114
C	-1.3322334344	-0.5516118479	 0.1085199142	 0.219636
C	-2.3825611294	-0.3422729358	 1.1991799038	-0.138165
O	-2.8888759198	-1.6978154502	 1.0194617263	-0.280837
C	-1.8986394212	-1.9457499387	 0.0371884567	 0.042812
C	-2.0526700012	-1.0321600144	-1.1646839664	-0.327583
C	-3.3125432739	-0.5133678864	-1.6067228676	 0.340883
C	-4.3643227786	-0.0611947427	-1.975941818	-0.436758
H	-0.378441081	 1.5438732445	-1.0065552641	 0.288322
H	 0.6737723307	-0.5574205195	-0.6280546836	 0.091349
H	 0.5250981596	-0.1134770242	 1.0777976492	 0.117172
H	-1.9456044291	-0.2274990897	 2.1967684645	 0.115839
H	-3.1529397673	 0.4146994331	 1.0267603988	 0.125833
H	-1.45048028	-2.9323214176	-0.0099963984	 0.116121
H	-1.344363329	-1.2744972801	-1.9557291209	 0.116067
H	-5.2989202922	 0.3233417713	-2.3015550352	 0.198029
74.5796	101.0872	140.4767	197.0186	285.6427	316.0841	357.7414	363.621	420.0757	527.7241	584.5478	626.7616	661.2538	712.2484	781.7906	835.891	911.1079	937.1207	938.7444	987.7281	1029.3424	1043.8078	1057.7736	1072.9408	1098.2121	1155.0583	1184.1149	1248.5701	1267.5758	1298.5893	1348.648	1372.2109	1418.9527	1458.6041	1498.7047	1508.6761	2235.2093	2973.2109	3042.1819	3063.7834	3102.0176	3122.6847	3175.6382	3503.219	3806.6578
OCC12COC1C2C#C	OC[C@]12CO[C@H]1[C@H]2C#C	
InChI=1S/C7H8O2/c1-2-5-6-7(5,3-8)4-9-6/h1,5-6,8H,3-4H2	InChI=1S/C7H8O2/c1-2-5-6-7(5,3-8)4-9-6/h1,5-6,8H,3-4H2/t5-,6+,7-/m1/s1
