19
gdb 127115	2.67895	1.51908	1.0706	3.333	78.4	-0.2162	0.0237	0.2399	1158.7733	0.160641	-415.404696	-415.395532	-415.394588	-415.438685	32.777	
C	 0.6418686877	 0.1407116075	-0.9925389079	-0.343975
N	-0.1142223262	 0.1049156855	 0.2605670418	-0.176905
C	-0.0021426205	 1.3500885225	 1.0171237379	-0.318014
C	-1.4089410064	-0.3923150695	 0.1821793103	 0.45141
N	-2.5294004209	 0.2676443008	 0.4414751001	-0.346152
C	-3.4836070758	-0.685673277	 0.2654019777	 0.024209
N	-3.0415374383	-1.876999788	-0.0886444131	-0.264415
N	-1.690451547	-1.68465059	-0.1261718338	-0.025329
C	-0.7954000686	-2.794623781	-0.3604042302	-0.332645
H	 1.6987236634	 0.3106709827	-0.7669331112	 0.128468
H	 0.5578673182	-0.8084816057	-1.5237132291	 0.129569
H	 0.2961488496	 0.9438297077	-1.6629121943	 0.12144
H	-0.4214961314	 2.2112145265	 0.4769881914	 0.123912
H	-0.5347283574	 1.2525503778	 1.963474646	 0.144611
H	 1.0565673678	 1.5399585964	 1.2178495899	 0.115875
H	-4.5380141161	-0.492085898	 0.3979434181	 0.119815
H	-0.5878019179	-2.9349695386	-1.427137314	 0.138822
H	 0.1418450157	-2.6097052176	 0.1691782173	 0.150677
H	-1.2657748756	-3.6988954321	 0.0271591931	 0.158626
66.141	156.372	172.6992	176.9954	204.0841	212.477	242.1995	313.5338	373.9926	404.8331	529.579	621.0999	676.2166	743.3837	769.3981	902.3642	960.5608	995.5719	1025.9292	1073.6265	1122.1796	1151.8001	1172.1973	1180.3512	1215.4114	1236.6617	1301.7607	1308.2355	1323.4479	1426.0324	1446.6102	1451.0656	1463.7362	1477.1086	1488.9528	1492.746	1498.5796	1509.5242	1512.5148	1539.8157	1587.119	2980.963	3002.707	3036.1461	3081.5689	3082.365	3111.4455	3137.3548	3146.1366	3154.5947	3253.2597
CN(C)C1=NC=NN1C	CN(C)c1ncnn1C	
InChI=1S/C5H10N4/c1-8(2)5-6-4-7-9(5)3/h4H,1-3H3	InChI=1S/C5H10N4/c1-8(2)5-6-4-7-9(5)3/h4H,1-3H3
