17
gdb 5756	5.69187	1.42289	1.21718	1.8349	75.12	-0.1941	0.0446	0.2388	999.6328	0.144735	-326.750663	-326.743599	-326.742655	-326.782585	27.217	
C	 0.4340786684	 1.573263153	 0.1522424532	-0.25167
C	 1.1519215796	 0.3795249682	-0.4175905062	-0.259149
C	-0.2615187056	 0.2360766856	 0.1229457623	-0.136482
C	-0.5170442763	-0.4935933165	 1.3825191514	 0.304639
C	-0.8351988166	-0.0563984924	 2.6516300287	-0.22242
C	-1.0036224921	-1.1999096695	 3.4816115904	-0.139048
C	-0.7871218049	-2.3086351692	 2.6981732387	-0.099265
N	-0.4956163704	-1.8707517276	 1.430829214	-0.288378
H	 0.7631011674	 1.9425844312	 1.1164141752	 0.120727
H	 0.0862375754	 2.3415186582	-0.5287860674	 0.110821
H	 1.2951098553	 0.3258993681	-1.4912964504	 0.108425
H	 1.9565202345	-0.0499643175	 0.1686222826	 0.116806
H	-1.0317269762	 0.1320075446	-0.6397098422	 0.091658
H	-0.946078496	 0.9769495436	 2.9431494116	 0.087683
H	-1.2555895685	-1.2067067738	 4.5309638428	 0.089121
H	-0.8119391549	-3.36105313	 2.931441373	 0.111009
H	-0.2658021593	-2.4606417258	 0.6500162023	 0.255521
40.8848	147.4089	185.6087	359.4414	444.1084	491.7213	598.9592	630.8695	687.6899	714.9814	792.7542	801.7219	829.9596	851.0204	887.416	899.8082	933.8127	975.8172	1052.8906	1058.6667	1082.6114	1085.4729	1126.6506	1131.5145	1143.1027	1199.7166	1209.6072	1251.9524	1277.3513	1390.5109	1442.9734	1447.1886	1466.4866	1500.9303	1501.8153	1618.3266	3106.4124	3133.5485	3143.0306	3216.7751	3232.2155	3239.4037	3251.8099	3268.768	3677.6498
C1CC1C1=CC=CN1	C1CC1c1ccc[nH]1	
InChI=1S/C7H9N/c1-2-7(8-5-1)6-3-4-6/h1-2,5-6,8H,3-4H2	InChI=1S/C7H9N/c1-2-7(8-5-1)6-3-4-6/h1-2,5-6,8H,3-4H2
