16
gdb 30573	6.8085	0.66635	0.61154	2.4608	87.26	-0.2232	-0.024	0.1992	1784.423	0.124834	-400.762398	-400.753877	-400.752933	-400.79746	29.835	
C	-0.0593411289	 1.5046198186	 0.0990704431	-0.367815
C	 0.0115180681	-0.0296012701	-0.0164092168	-0.332492
C	 0.6975518416	-0.4760196504	-1.2215496399	 0.272996
C	 1.2685201847	-0.8310307982	-2.2246476745	-0.126224
C	 1.9338362232	-1.2266857707	-3.3936237972	 0.189306
C	 2.5203198759	-0.5601261133	-4.4304398492	-0.217472
N	 3.0383096918	-1.467658143	-5.3367879502	-0.246685
C	 2.751222897	-2.6209942623	-4.8240987007	 0.059896
O	 2.0857599681	-2.5750133039	-3.6526609557	-0.172907
H	 0.9431880519	 1.9397009687	 0.1227875641	 0.132837
H	-0.5954122061	 1.9344184744	-0.7511199566	 0.132837
H	-0.5815447082	 1.7893799375	 1.0167394071	 0.120529
H	 0.5211527612	-0.4422849012	 0.8639834064	 0.137285
H	-1.0034997669	-0.4475217942	-0.0019890344	 0.137284
H	 2.5990022358	 0.5049870606	-4.575645846	 0.130131
H	 2.9764792108	-3.6011579226	-5.2145671795	 0.150494
23.8221	73.6858	102.4032	187.4295	215.9718	307.2705	423.4597	464.5624	499.5701	573.9503	658.4247	692.4798	787.4621	839.1006	865.2977	881.7921	940.6588	973.5388	1032.6557	1087.1825	1103.0316	1134.12	1147.618	1236.8822	1282.5289	1283.4661	1337.0469	1350.5147	1411.3387	1474.0639	1495.5583	1505.3313	1527.5502	1612.7499	2350.7963	3019.1173	3046.5559	3048.209	3123.1036	3127.2522	3271.9631	3276.3673
CCC#CC1=CN=CO1	CCC#Cc1cnco1	
InChI=1S/C7H7NO/c1-2-3-4-7-5-8-6-9-7/h5-6H,2H2,1H3	InChI=1S/C7H7NO/c1-2-3-4-7-5-8-6-9-7/h5-6H,2H2,1H3
