16
gdb 100627	2.28648	1.13834	0.88161	14.3284	79.57	-0.1725	-0.0246	0.1479	1312.4397	0.124236	-434.023921	-434.01451	-434.013566	-434.058834	33.472	
N	-0.0146304233	 0.9555439822	 0.1521905366	-0.420856
H	-0.2177748983	 0.0579755023	 0.7010357228	 0.337393
H	 0.9308742413	 1.3046644496	 0.3000227287	 0.317611
H	-0.154326879	 0.7813708185	-0.8425925094	 0.314556
C	-1.0916949904	 1.8407236661	 0.7589928514	-0.246235
C	-2.2261840393	 0.9176940882	 1.2544883953	 0.037636
O	-1.5519103548	-0.4133938294	 1.4805243256	-0.48234
C	-2.9061638103	 1.4813997123	 2.4272607649	-0.16152
C	-4.2932253009	 1.3022674626	 2.5758538768	 0.165283
N	-5.4438641654	 1.1424571525	 2.6585616716	-0.390693
C	-2.128988934	 2.1378119092	 3.3968767303	 0.185552
N	-1.3950525441	 2.6693482543	 4.1337778408	-0.421679
H	-0.6300574437	 2.3519476032	 1.6055695578	 0.189224
H	-1.4309868419	 2.5683608603	 0.0231988146	 0.164226
H	-2.9370709304	 0.7170478334	 0.4498248334	 0.114392
H	-1.6180527655	-0.5670079552	 2.4319950087	 0.297451
62.056	80.3589	122.6786	142.7568	182.0192	314.2192	325.4679	390.1825	409.5884	469.1352	499.0005	529.7189	587.9008	593.2228	616.0785	716.7573	801.1839	885.7104	907.6703	943.8595	1086.2136	1123.2551	1165.4257	1222.7121	1293.6852	1299.7666	1328.8391	1364.4301	1397.7364	1426.1189	1489.1494	1622.8307	1678.4399	2256.2496	2296.6285	2744.7232	3087.7886	3097.0717	3171.005	3474.0529	3549.8265	3777.6193
[NH3+]CC(O)[C-](C#N)C#N	[NH3]C[C@@H](O)[C](C#N)C#N	
InChI=1S/C5H6N3O/c6-1-4(2-7)5(9)3-8/h5,9H,3,8H2/q-1/p+1	InChI=1S/C5H7N3O/c6-1-4(2-7)5(9)3-8/h5,9H,3H2,8H3/t5-/m1/s1
