21
gdb 107676	2.97956	1.29859	1.07447	2.7023	77.75	-0.2326	0.0769	0.3095	1195.2517	0.184009	-424.213109	-424.204612	-424.203668	-424.246124	33.368	
O	 0.040134273	 1.3931900022	 0.3236354066	-0.422947
C	-0.0096889916	 0.0592349934	-0.147346471	-0.108955
C	-1.3864267448	-0.5408100985	 0.0021903111	 0.404373
C	-1.804322785	-1.1650848103	 1.3028849112	-0.350583
C	-1.5765466171	-2.0350023179	 0.0704104932	-0.097442
C	-2.7743795306	-2.6628959808	-0.6431456434	-0.232355
C	-3.4334234369	-1.6843097112	-1.6305805845	-0.203139
C	-3.5544137152	-0.2906755648	-1.0216971469	-0.081269
O	-2.2775077481	 0.2640920845	-0.7354280528	-0.315237
H	-0.7064010221	 1.8444044025	-0.0871445885	 0.290545
H	 0.2888680395	-0.000202796	-1.2068473077	 0.085688
H	 0.713227803	-0.5155156483	 0.4398218191	 0.100409
H	-1.0797718371	-1.1944623713	 2.1095192921	 0.116401
H	-2.8307646677	-1.0410617656	 1.6328097867	 0.111556
H	-0.6688806956	-2.6316656847	 0.0696929637	 0.087147
H	-2.4526233457	-3.5609783913	-1.1789812383	 0.104295
H	-3.5148792991	-2.9961378902	 0.0942266545	 0.10388
H	-2.8281183751	-1.604677479	-2.5413191821	 0.107634
H	-4.4241595157	-2.0453132177	-1.9268764597	 0.09771
H	-4.0228854343	 0.4092156939	-1.7192091629	 0.109461
H	-4.1777361037	-0.317589559	-0.1131326303	 0.092829
87.8658	122.4682	159.9499	263.4186	314.9569	355.2904	391.0353	412.9925	416.4729	504.5445	508.7237	664.4	706.4193	782.5754	847.1132	883.3215	884.7039	913.9416	948.4714	959.3853	983.4688	1031.946	1046.9615	1071.649	1099.5402	1106.6192	1125.6784	1152.0901	1200.1845	1225.2086	1238.7408	1269.0566	1299.7243	1309.9513	1365.8454	1375.453	1377.4271	1404.8009	1413.6883	1446.7804	1476.822	1487.017	1494.86	1498.3042	1515.1364	2971.6504	2977.6844	3027.9995	3034.6741	3073.33	3079.4296	3084.5489	3086.982	3130.7654	3141.7819	3215.1508	3801.7304
OCC12CC1CCCO2	OC[C@]12C[C@H]1CCCO2	
InChI=1S/C7H12O2/c8-5-7-4-6(7)2-1-3-9-7/h6,8H,1-5H2	InChI=1S/C7H12O2/c8-5-7-4-6(7)2-1-3-9-7/h6,8H,1-5H2/t6-,7-/m1/s1
