16
gdb 64833	2.97006	1.2701	1.20887	4.103	79.86	-0.2526	-0.0392	0.2134	1105.7256	0.12289	-400.733936	-400.725583	-400.724639	-400.766706	31.955	
C	-0.0079751464	 1.5442948344	-0.0317010591	-0.414087
C	 0.0028470641	 0.0082112634	 0.0167103938	 0.129868
O	 0.762901922	-0.4789514428	-1.1103528371	-0.231783
C	 1.8272141887	-1.2260202338	-0.6828608369	 0.372288
N	 2.6163071956	-1.7372754211	-1.5307254392	-0.52284
C	 1.7982096143	-1.2456482245	 0.7931032547	-0.187056
C	 0.7520179057	-0.5428281614	 1.2154779825	-0.106435
C	-1.3610579266	-0.5291061893	-0.043025197	 0.346212
C	-2.485509763	-0.9506380633	-0.0627414717	-0.484861
H	 1.0174774356	 1.9191738381	 0.0122511024	 0.132383
H	-0.473536488	 1.877910832	-0.9614608753	 0.148151
H	-0.5770139101	 1.9463170685	 0.8106815687	 0.129745
H	 3.3535508315	-2.2523577292	-1.0531290294	 0.222292
H	 2.5362325056	-1.7639698524	 1.389443024	 0.12585
H	 0.4262561271	-0.3580761956	 2.2300053402	 0.132959
H	-3.4764569861	-1.3322260529	-0.0938116207	 0.207313
85.4774	145.432	186.4976	240.0186	241.4359	339.3237	432.6636	442.4113	506.686	542.1975	611.0127	631.7211	673.7166	699.6736	715.7013	794.1883	831.2554	854.1828	914.9769	945.395	963.6446	973.3065	1053.9118	1076.1518	1134.5839	1174.9418	1212.9436	1326.5629	1366.0118	1400.4465	1481.325	1487.5226	1663.3738	1747.6801	2238.6868	3051.3316	3133.1603	3141.7882	3224.0458	3247.4233	3499.9035	3509.704
CC1(OC(=N)C=C1)C#C	C[C@]1(OC(=C[CH]1)[NH])C#C	
InChI=1S/C7H7NO/c1-3-7(2)5-4-6(8)9-7/h1,4-5,8H,2H3	InChI=1S/C7H7NO/c1-3-7(2)5-4-6(8)9-7/h1,4-5,8H,2H3/t7-/m0/s1
