15
gdb 48507	5.09073	1.28397	1.27422	1.9832	69.06	-0.2506	-0.0322	0.2184	977.4996	0.112711	-420.547767	-420.541214	-420.54027	-420.579081	25.483	
O	-0.2266217935	 0.3767402119	-0.8423767233	-0.272209
C	 0.078053428	 1.0220659745	 0.1359119841	 0.005369
C	 1.2612362311	 1.8769742438	 0.2129120077	 0.264759
C	 2.6634957935	 1.6243163112	-0.3561914511	-0.129401
C	 1.8599744106	 2.7830750768	-0.8707902582	-0.129465
C	 2.308465258	 3.8531223343	 0.1716002605	 0.077003
O	 3.7203940895	 3.6642692859	 0.3978667493	-0.284929
C	 3.3567369872	 2.3413697033	 0.8429526855	 0.076982
C	 1.9241694704	 2.8049664759	 1.2675803804	-0.199494
H	-0.5458996336	 0.9980320138	 1.0576929943	 0.07138
H	 2.9746800618	 0.7836208613	-0.959018606	 0.11996
H	 1.519339809	 2.8825054596	-1.891126992	 0.11996
H	 1.9897958257	 4.890176666	 0.0940793925	 0.094379
H	 4.1062304683	 1.8379956575	 1.4495126563	 0.094378
H	 1.606091774	 3.0343964642	 2.28083801	 0.091328
89.5024	157.5563	181.4927	426.4873	553.0379	561.5676	708.8288	748.582	770.5197	775.9672	823.5904	844.8633	856.6401	875.2706	907.2482	934.2598	935.6466	1001.2123	1002.2253	1040.5016	1051.6906	1103.2264	1105.5541	1161.7774	1177.6808	1206.0243	1206.7792	1266.017	1266.5904	1309.7072	1395.9967	1442.843	1787.75	2873.6091	3148.6596	3149.3975	3163.9524	3226.6714	3235.5955
O=CC12C3C1C1OC3C21	O=C[C@@]12[C@H]3[C@@H]1[C@@H]1O[C@H]3[C@H]21	
InChI=1S/C7H6O2/c8-1-7-2-3(7)6-4(7)5(2)9-6/h1-6H	InChI=1S/C7H6O2/c8-1-7-2-3(7)6-4(7)5(2)9-6/h1-6H/t2-,3+,4-,5+,6-,7+
