16
gdb 85163	2.14186	1.73822	1.06342	0.9162	64.93	-0.2613	-0.0056	0.2557	1097.0302	0.123758	-475.091044	-475.08233	-475.081386	-475.124887	31.652	
C	-0.3300734311	 1.6607899256	-0.0991341209	-0.394929
C	-0.1268281204	 0.1657992282	-0.0556641129	 0.13053
O	 1.0830650043	-0.2455427089	-0.8169546969	-0.249857
C	 1.6709681471	-0.7617345035	 0.2926397443	 0.460646
O	 2.7713938147	-1.2111940585	 0.4140268185	-0.348509
C	 0.4829084975	-0.4877452461	 1.2075920731	-0.332415
C	 0.7166514746	 0.3391054358	 2.4720643794	 0.398811
N	 1.9311216517	 0.1255160129	 3.037732336	-0.527096
O	-0.1369477769	 1.076108379	 2.9234112071	-0.36605
H	 0.5670054196	 2.1902406977	 0.2325009794	 0.133978
H	-0.5659291564	 1.9769748085	-1.1189936396	 0.129229
H	-1.1505156827	 1.937676543	 0.5665236037	 0.157171
H	-0.9868542051	-0.3745930645	-0.4568357818	 0.108097
H	-0.0231323568	-1.412324146	 1.5003307732	 0.148637
H	 2.6317893409	-0.4349028595	 2.5753017004	 0.284945
H	 2.1624702089	 0.6223552963	 3.882566047	 0.266812
55.857	107.4193	164.4848	193.4148	217.9585	336.9464	372.6381	379.0516	443.0897	478.9386	566.1928	635.2075	669.7483	708.2773	748.2745	838.4009	864.0022	924.7427	1026.1262	1045.8145	1076.7974	1119.0699	1157.0904	1168.0529	1192.5391	1275.1057	1325.3085	1357.4021	1385.9268	1416.9844	1475.1751	1492.0515	1627.1976	1802.2402	1905.1837	3052.2547	3080.0515	3093.1281	3128.3394	3142.0712	3565.3584	3709.6412
CC1OC(=O)C1C(N)=O	C[C@H]1OC(=O)[C@H]1C(=O)N	
InChI=1S/C5H7NO3/c1-2-3(4(6)7)5(8)9-2/h2-3H,1H3,(H2,6,7)	InChI=1S/C5H7NO3/c1-2-3(4(6)7)5(8)9-2/h2-3H,1H3,(H2,6,7)/t2-,3-/m1/s1
