19
gdb 37355	2.64822	1.95184	1.83547	1.8148	72.73	-0.2487	0.0814	0.3301	877.2485	0.163225	-423.007601	-423.00124	-423.000296	-423.037915	27.522	
C	-0.0102823956	 1.5140369585	 0.077365252	-0.284856
C	 1.3049748934	 0.7904200418	-0.0019394434	-0.03972
C	-0.0011054397	 0.0124836881	 0.0061985119	-0.039721
C	-0.0737471137	-0.6628153973	-1.3811448743	 0.098588
C	 1.418462337	-0.9030970635	-1.6826338723	-0.27374
C	 1.9205838506	 0.525061295	-1.3935702643	 0.098588
O	 1.3994173629	 1.4260063621	-2.3858360489	-0.2743
C	 0.3469972478	 0.8804596209	-3.1481467893	 0.014048
O	-0.6268626391	 0.2191008047	-2.3732111091	-0.2743
H	-0.2671121962	 1.9552478984	 1.034893878	 0.106869
H	-0.3482308511	 2.0723870658	-0.7860042315	 0.13434
H	 1.976257945	 0.7981300547	 0.8492554901	 0.081662
H	-0.319735547	-0.5694273089	 0.8635594058	 0.081662
H	-0.6923754385	-1.5632558861	-1.3741981051	 0.077423
H	 1.8371179071	-1.5983243663	-0.9508122912	 0.106461
H	 1.6378785783	-1.2819532792	-2.6843593572	 0.10544
H	 3.0069888931	 0.6401833389	-1.3972456498	 0.077423
H	-0.1548581712	 1.7178858348	-3.6396928374	 0.117271
H	 0.747533157	 0.1999578978	-3.916805264	 0.086861
190.1609	273.9852	372.2666	406.6202	489.9832	500.9153	554.4305	611.6225	706.6807	751.6756	785.4735	806.8902	872.5195	872.739	893.4168	928.8697	959.7944	967.0298	999.1618	1020.2027	1037.7316	1059.4487	1066.2934	1078.7497	1100.9955	1173.3943	1174.0929	1186.6193	1193.8106	1224.9372	1282.4712	1296.0453	1296.1001	1336.2713	1357.1942	1359.817	1379.6197	1437.9526	1486.2809	1491.4375	1543.0029	2960.2513	3064.5164	3079.4981	3085.2918	3092.7874	3114.428	3141.939	3167.8657	3177.4195	3236.8849
C1C2C1C1CC2OCO1	C1[C@H]2[C@@H]1[C@@H]1C[C@H]2OCO1	
InChI=1S/C7H10O2/c1-4-5(1)7-2-6(4)8-3-9-7/h4-7H,1-3H2	InChI=1S/C7H10O2/c1-4-5(1)7-2-6(4)8-3-9-7/h4-7H,1-3H2/t4-,5+,6+,7-
