16
gdb 34575	4.60746	1.13461	1.02269	4.9908	76.14	-0.242	-0.0481	0.1939	1151.5403	0.1268	-396.939453	-396.932046	-396.931102	-396.971711	28.089	
N	-0.0708873978	-1.1414954407	-0.3158056288	-0.316573
C	-0.1191006494	 0.0060373909	-0.1887162982	 0.262795
C	-0.1217071895	 1.436719962	-0.0335299883	 0.275545
N	-1.1389116108	 2.166072678	-0.3084200636	-0.285959
C	-0.7256899741	 3.5401344493	-0.0213433844	 0.001868
C	-1.0633247359	 4.0579486259	 1.4112686696	-0.225295
C	 0.4601289947	 4.2023587882	 1.7147044943	-0.222229
C	 0.7969427493	 3.4992637539	 0.375612451	-0.02139
N	 1.0170716768	 2.0519053536	 0.4704831239	-0.352023
H	-1.0288760154	 4.2074500275	-0.830385779	 0.08869
H	-1.6467975908	 4.97982788	 1.4508573304	 0.110848
H	-1.5701314548	 3.2992348296	 2.0105724145	 0.12145
H	 0.7979375106	 5.2418803786	 1.732086822	 0.108734
H	 0.829051009	 3.697010565	 2.6095362191	 0.111444
H	 1.5433278611	 3.9769867209	-0.2649147508	 0.084489
H	 1.9206260969	 1.6578720574	 0.2543713284	 0.257605
86.0834	112.7319	162.1828	317.5853	378.3378	455.9308	494.1609	562.5974	570.7317	675.222	712.1896	744.4563	769.5059	835.0316	911.3817	915.505	953.0849	965.7895	1030.649	1078.4373	1092.9655	1122.9348	1195.5928	1220.1335	1243.9977	1254.4954	1267.5128	1291.5926	1313.4505	1333.356	1449.8846	1471.1506	1488.5977	1655.1026	2365.2055	3060.3347	3068.8189	3076.027	3089.7725	3116.3761	3136.472	3613.4717
N#CC1=NC2CCC2N1	N#CC1=N[C@H]2CC[C@H]2N1	
InChI=1S/C6H7N3/c7-3-6-8-4-1-2-5(4)9-6/h4-5H,1-2H2,(H,8,9)	InChI=1S/C6H7N3/c7-3-6-8-4-1-2-5(4)9-6/h4-5H,1-2H2,(H,8,9)/t4-,5+
