14
gdb 45849	2.42545	1.76322	1.07048	2.8854	65.57	-0.2613	-0.0318	0.2295	1037.5488	0.103973	-470.0826	-470.075296	-470.074352	-470.114792	27.039	
O	-0.111695669	 0.0429534055	-0.6569469082	-0.321329
C	-0.1056546244	 1.1889123538	-0.2801197937	 0.400163
C	-1.3437415072	 1.9217677365	 0.2111931871	-0.281334
N	-1.6192199443	 3.1897407576	-0.4463851791	-0.213198
C	-0.7962969526	 4.139823715	-0.3072881211	 0.084615
N	 0.4477331123	 4.1188327201	 0.3316801592	-0.351167
C	 1.4468380775	 3.1502451036	 0.2595694535	 0.453244
O	 2.5883839318	 3.4105018235	 0.5661844923	-0.366903
N	 1.0982471416	 1.8981076617	-0.2352502931	-0.370148
H	-2.1830886389	 1.2442529766	 0.0558684248	 0.148167
H	-1.2214173763	 2.0795163261	 1.2949995996	 0.135224
H	-1.0558764717	 5.123393587	-0.700362179	 0.135054
H	 0.8566511971	 5.0168543075	 0.5528210984	 0.271206
H	 1.910786874	 1.3178611754	-0.4053337807	 0.276407
104.3171	130.3143	157.0572	326.4304	365.4656	422.2363	502.9547	555.3026	575.3589	639.9415	664.9168	710.7119	774.7722	853.8793	883.3347	954.5153	968.7679	990.5678	1032.4187	1139.716	1225.7162	1295.7918	1343.3238	1376.4699	1423.4857	1440.7024	1474.0516	1479.2495	1754.11	1814.5012	1823.006	2986.308	3127.3255	3132.7152	3589.1447	3600.0622
O=C1CN=CNC(=O)N1	O=C1CN=CNC(=O)N1	
InChI=1S/C4H5N3O2/c8-3-1-5-2-6-4(9)7-3/h2H,1H2,(H2,5,6,7,8,9)	InChI=1S/C4H5N3O2/c8-3-1-5-2-6-4(9)7-3/h2H,1H2,(H2,5,6,7,8,9)
