20
gdb 56274	5.60593	0.59455	0.56147	2.4003	76.57	-0.2638	0.0596	0.3234	1964.6409	0.170424	-440.319928	-440.31	-440.309056	-440.356526	35.409	
N	-0.1796608321	 1.2753216727	 0.0821190237	-0.563312
C	 0.0302630819	-0.0763072765	 0.1302924707	 0.489822
O	 1.0939761947	-0.6103505055	 0.3403193103	-0.397226
O	-1.1413796534	-0.7304603751	-0.0576789249	-0.262002
C	-1.0622860968	-2.162520686	 0.0306619241	-0.044165
C	-2.4549436774	-2.7170097447	-0.2349734013	-0.232853
C	-2.4801075913	-4.2294816895	-0.1795777074	 0.032309
C	-2.6241029247	-4.9434119871	 1.1429779415	-0.253997
C	-3.7564363578	-4.9611596537	 0.1458510208	-0.277994
H	 0.643448708	 1.8449298861	-0.0121133031	 0.267016
H	-1.0353410565	 1.6154619578	-0.3227110706	 0.262276
H	-0.3348340429	-2.5300458125	-0.7009647054	 0.117337
H	-0.6994114001	-2.4464245074	 1.0235499029	 0.122543
H	-3.1509189509	-2.3059776412	 0.5064677086	 0.101753
H	-2.7979134877	-2.365535792	-1.2161204477	 0.104597
H	-1.8329474639	-4.7144674865	-0.9067804232	 0.08472
H	-2.062707574	-5.8568211809	 1.3043885924	 0.113423
H	-2.746253888	-4.3359272034	 2.0341399805	 0.112099
H	-4.6368251832	-4.3670761576	 0.3686713328	 0.111272
H	-3.9681127839	-5.886693877	-0.3778979147	 0.112383
29.4597	55.8984	92.9192	114.4066	171.0377	235.3218	276.8725	356.8604	390.1419	413.111	489.055	534.5357	671.2888	772.9344	777.4351	788.812	826.2631	837.2869	908.6235	943.883	967.5715	1038.216	1064.7174	1076.4902	1084.1083	1105.7197	1122.7206	1141.288	1194.3845	1199.0167	1229.1079	1253.7121	1299.3339	1309.7791	1351.6303	1412.3878	1433.0974	1469.7589	1489.8821	1508.6632	1520.5116	1612.0258	1833.5345	3024.5862	3046.4312	3059.3648	3094.7619	3128.5969	3130.9563	3134.7599	3206.7845	3221.8493	3613.2077	3742.4112
NC(=O)OCCC1CC1	NC(=O)OCCC1CC1	
InChI=1S/C6H11NO2/c7-6(8)9-4-3-5-1-2-5/h5H,1-4H2,(H2,7,8)	InChI=1S/C6H11NO2/c7-6(8)9-4-3-5-1-2-5/h5H,1-4H2,(H2,7,8)
