15
gdb 127564	3.26819	1.4076	0.98998	5.4078	73.37	-0.2222	-0.0338	0.1884	1120.3147	0.113341	-453.973948	-453.965972	-453.965028	-454.006586	29.573	
C	-0.0301532587	 1.4805790023	 0.0382205333	-0.321427
N	-0.006375849	 0.0214996205	 0.051502581	-0.05102
N	-0.0396208723	-0.5860591934	-1.1563020564	-0.202678
C	-0.020136484	-1.8794448801	-1.1909927664	-0.084258
C	 0.035900497	-2.7852501132	-0.024373829	 0.356846
O	 0.0511953863	-4.0051094376	-0.1441615475	-0.399123
C	 0.0684879915	-2.0539706857	 1.2218883168	-0.423612
C	 0.0462970862	-0.690826764	 1.2117658651	 0.521097
O	 0.0724724056	 0.1016130445	 2.3052121546	-0.416426
H	 0.8689171529	 1.8884180756	 0.507401122	 0.149197
H	-0.0721949035	 1.77721986	-1.0078608021	 0.162503
H	-0.9060762011	 1.860066428	 0.5706999705	 0.149203
H	-0.0481069191	-2.3272113156	-2.1799723371	 0.137409
H	 0.1105012814	-2.5964090843	 2.1597944884	 0.104972
H	 0.1096420268	-0.457284107	 3.0897400466	 0.31732
96.5238	116.9495	200.2487	238.6227	331.1463	366.0934	393.2146	458.5204	481.004	510.0406	592.1468	686.4122	723.4962	743.3183	788.4386	837.1254	941.3084	957.7206	1028.6123	1151.9235	1173.8574	1230.9689	1266.6411	1284.7393	1286.0609	1361.8697	1441.1833	1483.8569	1502.8956	1534.2244	1592.0893	1659.5288	1739.6014	3055.0231	3118.7257	3180.6095	3184.4669	3192.108	3819.4952
CN1N=CC(=O)C=C1O	Cn1ncc(=O)cc1O	
InChI=1S/C5H6N2O2/c1-7-5(9)2-4(8)3-6-7/h2-3,9H,1H3	InChI=1S/C5H6N2O2/c1-7-5(9)2-4(8)3-6-7/h2-3,9H,1H3
