21
gdb 68922	2.20627	1.86027	1.28335	0.4405	78.61	-0.2241	0.0791	0.3032	1078.9832	0.181523	-424.21185	-424.202965	-424.202021	-424.244724	34.834	
C	-0.1268181253	 1.5050529409	-0.0857023413	-0.45053
C	 0.0516517462	 0.0071739293	-0.0197663837	 0.339427
C	 1.4078636543	-0.650829802	-0.2395616135	-0.395143
C	 0.7428768989	-0.7068575805	 1.1228856954	 0.361136
C	 1.3495154616	 0.043946167	 2.2836180873	-0.441906
O	 0.2148568204	-1.915217957	 1.6194903003	-0.299614
C	-0.7705258549	-2.5512996156	 0.8227198609	-0.086543
C	-1.7316848858	-1.5311589678	 0.2402148417	-0.091522
O	-1.0370507974	-0.654393508	-0.6309346993	-0.295508
H	 0.7544347357	 2.0398815257	 0.2756111339	 0.114686
H	-0.3022205966	 1.8018506093	-1.1250644342	 0.128279
H	-0.9914417668	 1.8252792535	 0.5058802568	 0.118449
H	 1.400355664	-1.5438405712	-0.8542413176	 0.11663
H	 2.2884356633	-0.0261928033	-0.3507034473	 0.105331
H	 1.857071144	 0.9540840285	 1.9586549941	 0.116105
H	 0.5826084498	 0.311864304	 3.0172900142	 0.120607
H	 2.0844176549	-0.5962895866	 2.7822036203	 0.129174
H	-0.3074494642	-3.1243643607	 0.0042749423	 0.098237
H	-1.2890092639	-3.2543179955	 1.482416327	 0.108408
H	-2.5034173103	-2.0201293608	-0.3616304926	 0.108642
H	-2.2206118878	-0.9749301991	 1.0554309851	 0.095656
120.441	158.0702	183.4221	197.3496	271.2074	309.6847	369.3124	391.3076	411.5277	424.9775	495.8551	512.5848	606.5868	664.7706	736.929	853.6934	876.667	908.4296	912.866	934.4319	973.0185	990.1441	1027.2043	1109.8463	1113.9275	1125.7022	1135.7695	1139.5129	1179.4585	1213.2557	1265.5918	1288.4245	1303.8878	1375.891	1393.8916	1410.7707	1414.6678	1423.1517	1470.5918	1474.8953	1487.557	1489.4952	1492.7903	1502.6043	1510.6314	2981.2448	2992.5118	3034.2585	3041.9304	3079.3404	3088.7746	3096.7056	3104.1716	3121.7162	3127.9514	3136.1151	3221.9505
CC12CC1(C)OCCO2	C[C@@]12C[C@]1(C)OCCO2	
InChI=1S/C7H12O2/c1-6-5-7(6,2)9-4-3-8-6/h3-5H2,1-2H3	InChI=1S/C7H12O2/c1-6-5-7(6,2)9-4-3-8-6/h3-5H2,1-2H3/t6-,7+
