15
gdb 7625	5.65754	1.15502	1.13627	4.9504	62.9	-0.2444	-0.0171	0.2273	1047.3395	0.117748	-399.843849	-399.835718	-399.834774	-399.877584	28.854	
N	-0.230187657	 1.3454256148	 0.6404314624	-0.532453
C	 0.0094558626	 0.2593140358	-0.1453624399	 0.413862
O	 1.0948858659	 0.0438796719	-0.6539432379	-0.371602
C	-1.1656881701	-0.6796458468	-0.3536303256	-0.108909
C	-1.4581510468	-1.0357315946	-1.8493643255	-0.339326
C	-1.4932658312	-2.5111555108	-1.4288173098	 0.396883
O	-1.9421307838	-3.5041856372	-1.9195089525	-0.287989
C	-0.8534487825	-2.1871891085	-0.0721943833	-0.339237
H	 0.5215028814	 1.9960986987	 0.8010978531	 0.26463
H	-1.1265411463	 1.5265891793	 1.0553087655	 0.261353
H	-2.0664270642	-0.3479435221	 0.1679435004	 0.072445
H	-2.3506535757	-0.6237237384	-2.3244627263	 0.126937
H	-0.5778749389	-0.8307200324	-2.4678572125	 0.158194
H	 0.2270580566	-2.3635165264	-0.1022382247	 0.158224
H	-1.28244644	-2.6576242432	 0.8147543065	 0.126986
29.2121	74.4914	165.8061	202.8476	257.8051	365.8363	434.1081	469.2045	584.3493	608.822	662.4967	664.9217	740.2645	777.5492	902.2582	923.9782	1007.8909	1012.4743	1047.2246	1102.3441	1102.7183	1198.8814	1203.3568	1232.8769	1243.6521	1282.5979	1414.902	1419.4075	1440.902	1618.1657	1788.8855	1901.3024	3057.8149	3062.6893	3078.049	3129.0981	3129.9929	3603.7977	3742.4781
NC(=O)C1CC(=O)C1	NC(=O)C1CC(=O)C1	
InChI=1S/C5H7NO2/c6-5(8)3-1-4(7)2-3/h3H,1-2H2,(H2,6,8)	InChI=1S/C5H7NO2/c6-5(8)3-1-4(7)2-3/h3H,1-2H2,(H2,6,8)
