14
gdb 48017	4.00448	0.73183	0.65468	4.4635	77.38	-0.2623	-0.0666	0.1957	1624.7664	0.098613	-436.64233	-436.633534	-436.63259	-436.677653	29.772	
O	-0.4049737769	 0.1749477849	-0.4499840601	-0.226562
C	 0.0174862662	 0.9848914174	 0.3427365632	 0.018763
C	 1.1852800693	 1.8006721072	 0.1323440844	 0.060147
C	 2.1611324564	 2.498732763	-0.0127574822	 0.157245
C	 3.3070770475	 3.3607518804	-0.1783620741	-0.324866
N	 3.8691355323	 3.4960238705	-1.5511554715	-0.300196
C	 3.9253471512	 4.9777505233	-1.4853817765	-0.283637
C	 3.0829882123	 4.917102946	-0.206828458	 0.39532
O	 2.4944028339	 5.6876833602	 0.4768723851	-0.254459
H	-0.4818429619	 1.1593248088	 1.3174287806	 0.10372
H	 4.053799315	 3.1377661969	 0.6011342693	 0.133419
H	 4.7649146166	 3.0399363518	-1.6739777881	 0.236738
H	 4.913890869	 5.4199229571	-1.2962085923	 0.133554
H	 3.4673721792	 5.4894591326	-2.3382163298	 0.150816
42.9415	69.5053	88.3747	135.161	194.0326	263.3479	396.4841	414.5107	444.3309	569.7311	609.3024	656.2256	738.1149	797.993	903.9649	979.0688	1000.1685	1016.3303	1019.1978	1055.2436	1090.8278	1177.1626	1188.8469	1267.0889	1334.064	1372.8745	1420.8461	1474.7607	1766.8451	1934.7337	2318.8947	2921.2224	2976.1304	3011.1865	3077.3436	3559.1859
O=CC#CC1NCC1=O	O=CC#C[C@H]1NCC1=O	
InChI=1S/C6H5NO2/c8-3-1-2-5-6(9)4-7-5/h3,5,7H,4H2	InChI=1S/C6H5NO2/c8-3-1-2-5-6(9)4-7-5/h3,5,7H,4H2/t5-/m1/s1
