18
gdb 70393	2.45521	1.51763	1.33319	2.2635	78.08	-0.2268	0.0304	0.2573	1056.7941	0.14509	-401.865435	-401.856335	-401.85539	-401.898564	35.005	
C	-0.1582035119	 1.5281439946	 0.0634034077	-0.519178
C	 0.085165216	 0.0516967011	 0.0365614609	 0.313941
N	-0.772192878	-0.9005415848	 0.783251154	-0.368523
C	 0.6922958191	-0.8972315549	 1.0146515312	-0.089665
C	 1.2653300043	-1.7853695107	-0.0879469849	-0.291959
C	 0.6747178478	-0.7547459151	-1.1465904444	 0.206669
O	-0.305331492	-1.2138414314	-2.050272611	-0.46351
C	 1.7385217472	-0.0310407688	-1.8391443839	 0.283909
C	 2.6100530558	 0.5326921546	-2.4473903638	-0.485556
H	 0.6961987387	 2.072578054	-0.349109497	 0.136954
H	-1.0431353742	 1.7888488988	-0.5280769987	 0.137477
H	-0.3228911555	 1.8758352476	 1.089043073	 0.114756
H	-1.2016435562	-0.3588513582	 1.5339579527	 0.223791
H	 1.1091372129	-0.6983088588	 1.9939201513	 0.091908
H	 2.3538777553	-1.8421424294	-0.1188782879	 0.111587
H	 0.8181153029	-2.779600019	-0.1488765664	 0.114498
H	 0.1458564613	-1.5444012419	-2.8344615285	 0.283321
H	 3.3778708167	 1.0377271725	-2.980013764	 0.199581
117.7162	134.6471	192.5815	201.6399	235.0292	252.4634	314.2746	368.0728	454.8546	471.549	524.3562	536.3646	624.0698	663.4356	667.2295	674.3806	768.0371	860.6874	886.1915	914.0265	950.2283	968.8535	1023.7869	1040.019	1092.7508	1100.3624	1118.5983	1152.331	1217.6568	1230.3741	1291.9522	1328.7312	1371.7137	1405.4716	1435.9604	1469.1538	1480.9999	1501.006	2225.917	3029.6247	3075.2041	3092.7417	3109.3197	3144.6337	3195.2566	3461.9139	3499.0867	3811.7291
CC12NC1CC2(O)C#C	C[C@]12N[C@H]1C[C@]2(O)C#C	
InChI=1S/C7H9NO/c1-3-7(9)4-5-6(7,2)8-5/h1,5,8-9H,4H2,2H3	InChI=1S/C7H9NO/c1-3-7(9)4-5-6(7,2)8-5/h1,5,8-9H,4H2,2H3/t5-,6-,7+/m0/s1
