22
gdb 19286	2.95407	1.68817	1.30515	0.2469	81.26	-0.2487	0.0866	0.3352	1060.6312	0.200534	-313.048533	-313.039947	-313.039003	-313.081336	33.021	
C	-1.4115691914	 0.8699672872	 0.6555433427	-0.380452
C	 0.0140545562	 0.5612887072	 0.1849058514	-0.188606
C	 0.8104691848	-0.2300382761	 1.2203592979	 0.013673
C	 0.4078313758	-1.6855807628	 1.5130088988	-0.052963
C	 0.6727773483	-2.5748548589	 0.3294903506	-0.281925
C	 1.8262072346	-2.1666038358	 1.2021705777	-0.055181
C	 2.2786826034	-0.7289230055	 0.9009999766	-0.01081
C	 2.9234082885	-0.4312667801	-0.4490082384	-0.404242
H	-1.404743356	 1.4565366345	 1.5813871381	 0.110578
H	-1.9667496224	 1.4400968462	-0.09587119	 0.108755
H	-1.9688463694	-0.0521681842	 0.8525801617	 0.120088
H	-0.0305070247	 0.0129716235	-0.7634451617	 0.092217
H	 0.5404395573	 1.4999925363	-0.0324753345	 0.091181
H	 0.8280856296	 0.3446343823	 2.1533294489	 0.065198
H	-0.2461354532	-2.0006748272	 2.3176156812	 0.078774
H	 0.3503126991	-3.6044562217	 0.449020786	 0.107362
H	 0.5762341614	-2.2052162697	-0.6876451671	 0.103811
H	 2.4193826397	-2.9035877922	 1.7313091966	 0.07801
H	 2.9474105784	-0.3764891436	 1.6928277239	 0.069399
H	 2.3177782141	-0.7898310141	-1.286554404	 0.113048
H	 3.0783221185	 0.6444027457	-0.5877954643	 0.11122
H	 3.9027041773	-0.9177781011	-0.5206519921	 0.110864
84.0383	156.5524	161.3427	200.4914	228.4215	275.4262	298.8384	425.6092	513.805	527.9393	658.9081	743.559	774.7444	802.9824	812.4728	904.2167	916.5055	937.8579	974.1237	994.8339	1017.8705	1046.1248	1055.799	1070.1225	1083.6381	1088.4232	1118.4332	1140.986	1175.6387	1187.8308	1235.9454	1271.1362	1282.9975	1310.7214	1343.0635	1366.6622	1370.6923	1393.9062	1410.1493	1412.3404	1483.1614	1488.1207	1496.9927	1499.8265	1501.9693	1509.061	3019.7884	3026.8429	3029.2249	3029.8746	3049.2821	3057.8215	3090.1989	3095.9577	3101.4943	3104.6407	3119.2638	3167.702	3177.3507	3200.5203
CCC1C2CC2C1C	CC[C@H]1[C@H]2C[C@H]2[C@H]1C	
InChI=1S/C8H14/c1-3-6-5(2)7-4-8(6)7/h5-8H,3-4H2,1-2H3	InChI=1S/C8H14/c1-3-6-5(2)7-4-8(6)7/h5-8H,3-4H2,1-2H3/t5-,6+,7-,8+/m0/s1
