19
gdb 71364	2.94543	1.91593	1.54677	1.324	78.03	-0.243	0.0791	0.3221	918.7555	0.161462	-385.831666	-385.824918	-385.823974	-385.862198	29.15	
O	-0.000332793	 1.3874046756	 0.1446237865	-0.476155
C	 0.0533818353	 0.0023624103	 0.0580347428	 0.380017
C	 0.6964555954	-0.9729041405	 1.0712850026	-0.310855
C	 0.0403023655	-1.8563309275	-0.0082203062	-0.0633
C	-1.2118601993	-0.8982693084	-0.0351495261	-0.05492
C	-1.7600899993	-0.8826150159	-1.4563805779	-0.063412
C	-1.4228452337	 0.300767521	-2.3354445162	-0.304413
C	-0.4743497059	-0.8760849398	-2.2569830265	-0.063502
C	 0.5567870815	-0.8902855635	-1.1374535116	-0.092536
H	 0.9023878395	 1.724495241	 0.1420150684	 0.281298
H	 1.7898262136	-0.9848039204	 1.1197806864	 0.082854
H	 0.2531905891	-0.9982103897	 2.0703817802	 0.093125
H	 0.0196729938	-2.9431712465	-0.0559858728	 0.077434
H	-1.9036978216	-0.9099029109	 0.8087882317	 0.064678
H	-2.5977068694	-1.5220777634	-1.710105076	 0.080885
H	-1.9944752411	 0.3913081222	-3.2542493213	 0.098906
H	-1.1486687313	 1.2422016244	-1.8772289457	 0.134479
H	-0.3297810575	-1.5089395076	-3.1252761051	 0.080401
H	 1.6209204183	-0.8896829005	-1.3840367834	 0.055015
226.2227	250.382	265.8812	379.0435	420.7158	435.9968	509.1515	656.477	694.6021	698.0465	754.655	813.5038	814.6756	828.9017	905.7002	911.3296	929.7245	961.8916	985.1738	991.6669	1019.6793	1022.5356	1057.7034	1075.0034	1079.233	1095.1217	1099.5768	1110.0588	1131.8619	1187.0234	1191.0561	1207.4417	1214.8103	1274.6688	1276.0319	1310.4257	1332.1317	1356.4003	1398.4722	1488.4509	1513.8088	3043.2628	3090.6318	3103.2887	3107.2278	3133.716	3138.4667	3167.4314	3177.5474	3232.8693	3804.1565
OC12CC3C1C1CC1C23	O[C@@]12C[C@H]3[C@@H]1[C@H]1C[C@H]1[C@@H]23	
InChI=1S/C8H10O/c9-8-2-5-6(8)3-1-4(3)7(5)8/h3-7,9H,1-2H2	InChI=1S/C8H10O/c9-8-2-5-6(8)3-1-4(3)7(5)8/h3-7,9H,1-2H2/t3-,4+,5-,6-,7+,8-
