22
gdb 111413	1.92825	1.60825	1.01936	2.1972	82.98	-0.2222	0.0757	0.2979	1266.1319	0.193398	-404.28879	-404.2791	-404.278156	-404.323832	35.569	
C	 0.1821970754	 1.5020289889	-0.1395054855	-0.393999
C	 0.0517866635	-0.0230922959	-0.1890650859	-0.171311
C	-1.3755572401	-0.5274888949	-0.000227911	-0.040758
C	-1.6010700322	-2.0422788361	-0.1016763156	-0.071399
N	-0.765400453	-2.6550706845	 0.9561116404	-0.323645
C	-2.1097095329	-2.1276547577	 1.2967089992	-0.097514
C	-1.9854946761	-0.6191339556	 1.4732946281	 0.154087
O	-1.2199085484	-0.1939619879	 2.5681196275	-0.239096
C	-1.6560461312	 1.0085058864	 3.1626448429	-0.239857
H	 1.2152734651	 1.8137469068	-0.3239002447	 0.110293
H	-0.4488058186	 1.9839204354	-0.895755309	 0.10413
H	-0.1086749537	 1.8969604112	 0.8382185065	 0.12564
H	 0.4134716905	-0.3835706541	-1.1617079636	 0.085994
H	 0.6897057169	-0.4831502376	 0.5695700855	 0.129336
H	-2.0661778226	 0.0185012765	-0.6525020762	 0.061933
H	-1.9046487216	-2.6077242602	-0.9740661355	 0.089065
H	-0.8674341359	-3.666191209	 0.87242946	 0.227065
H	-2.8608320516	-2.7769793915	 1.7303900074	 0.087932
H	-2.9814158258	-0.1574197461	 1.4944380361	 0.065963
H	-0.985011461	 1.2156708119	 4.0000507977	 0.127534
H	-1.620545968	 1.8596785182	 2.4668165407	 0.105626
H	-2.6839119089	 0.9227745558	 3.5478085249	 0.102982
57.6591	88.2675	125.3976	147.1941	192.9066	206.8869	260.0749	307.0531	366.4984	441.8452	544.1259	598.8445	683.919	763.9568	808.2339	838.6609	842.508	897.2016	941.8935	983.705	991.5381	1023.1219	1029.6143	1068.5559	1095.6811	1107.9816	1122.2643	1156.2719	1166.5899	1182.6719	1185.0218	1225.4241	1259.7571	1268.1233	1310.2201	1328.8323	1331.129	1382.2835	1394.6885	1408.3875	1410.6015	1481.7193	1485.4332	1489.6216	1498.953	1506.0386	1511.3303	2976.2439	3013.1976	3017.925	3025.3404	3030.1974	3045.6938	3086.1535	3106.1142	3112.6137	3114.9535	3179.0698	3193.9181	3471.635
CCC1C2NC2C1OC	CC[C@H]1[C@H]2N[C@H]2[C@H]1OC	
InChI=1S/C7H13NO/c1-3-4-5-6(8-5)7(4)9-2/h4-8H,3H2,1-2H3	InChI=1S/C7H13NO/c1-3-4-5-6(8-5)7(4)9-2/h4-8H,3H2,1-2H3/t4-,5+,6+,7-/m0/s1
