25
gdb 117713	3.11732	0.67531	0.64029	2.5975	85.61	-0.2602	0.0702	0.3304	1863.6808	0.225858	-426.618127	-426.60602	-426.605076	-426.656774	43.174	
C	 0.0395888754	 1.6361957989	 0.1362171676	-0.410669
C	 0.0712206069	 0.0943995424	 0.1220352842	 0.228397
C	 0.8271246088	-0.4174938084	 1.3649802979	-0.41067
C	-1.3708490851	-0.4738187442	 0.0966138555	-0.167561
C	-2.2862490203	-0.1238260302	 1.2665472604	-0.103937
O	-3.5356233235	-0.7558960142	 1.0120751287	-0.419969
C	 0.752939844	-0.4185714737	-1.1722642795	-0.167564
C	 2.2029574013	-0.0086124925	-1.4143000988	-0.103937
O	 2.5938696631	-0.5967709472	-2.649800572	-0.419969
H	 1.0490227617	 2.0585392027	 0.1297381859	 0.110305
H	-0.492957449	 2.0289658118	-0.7371002431	 0.111811
H	-0.4590760433	 2.0192909929	 1.0317342596	 0.110315
H	 0.347536964	-0.0864001232	 2.2911270066	 0.110305
H	 0.865913373	-1.5123862869	 1.3812691299	 0.111807
H	 1.8562006812	-0.0463458353	 1.3901102417	 0.110314
H	-1.8707294231	-0.1391928698	-0.8209054423	 0.100941
H	-1.3227731638	-1.5681772705	 0.0353238206	 0.10094
H	-1.8574898153	-0.4783239328	 2.2161581076	 0.084952
H	-2.4119728729	 0.9663469316	 1.3500864769	 0.084965
H	-4.1287606633	-0.5480303088	 1.739723811	 0.283713
H	 0.7169062761	-1.5150388555	-1.1847497161	 0.100935
H	 0.1698792513	-0.0849220935	-2.039678956	 0.100947
H	 2.2956806855	 1.0871466748	-1.4588018454	 0.084952
H	 2.8487968855	-0.3594826554	-0.5951296502	 0.084965
H	 3.5071727816	-0.3502144631	-2.8217892807	 0.283713
19.7144	67.0255	91.4228	109.4389	121.2083	242.4956	249.7065	265.0698	273.0662	274.203	310.7786	329.9017	343.0818	343.1127	414.1627	458.6699	593.1717	765.9122	788.1791	802.3529	905.1208	938.5601	993.129	994.9794	996.8392	1006.033	1050.053	1066.6139	1075.2315	1110.4844	1195.1577	1208.163	1221.0056	1238.585	1256.6852	1273.5996	1284.8918	1319.1476	1353.5146	1356.3361	1358.7363	1404.7516	1427.4558	1461.4095	1462.6124	1479.1954	1482.9797	1493.6208	1499.3022	1509.4579	1516.8125	1530.8461	1531.2812	2976.4555	2977.4756	3002.0038	3002.8951	3021.4917	3027.7735	3030.8324	3037.0502	3062.9838	3071.5473	3098.4837	3100.0499	3100.9209	3104.8639	3829.9832	3830.0128
CC(C)(CCO)CCO	CC(C)(CCO)CCO	
InChI=1S/C7H16O2/c1-7(2,3-5-8)4-6-9/h8-9H,3-6H2,1-2H3	InChI=1S/C7H16O2/c1-7(2,3-5-8)4-6-9/h8-9H,3-6H2,1-2H3
