16
gdb 26926	2.38611	1.63387	0.97691	2.3777	76.28	-0.1987	-0.0416	0.157	1151.8947	0.12408	-437.935413	-437.92681	-437.925865	-437.968684	31.723	
C	 0.0674732628	 1.4782724594	 0.0572131077	-0.493661
C	-0.050624425	-0.003400918	 0.0411060193	 0.301832
C	-1.1209499716	-0.8641879333	-0.0850858265	 0.026703
C	-2.5217063078	-0.5241193432	-0.1954760186	 0.065678
O	-3.4286822433	-1.3397925774	-0.2342045632	-0.311138
C	-0.5756204397	-2.2091579943	-0.025770492	 0.156088
N	-1.3297661386	-3.3561915767	-0.1878157867	-0.613465
C	 0.7656443802	-2.0510275042	 0.1389269979	-0.114452
O	 1.0817205596	-0.7021383617	 0.1791967147	-0.180228
H	 0.7062919213	 1.8274031556	-0.7615776201	 0.151553
H	-0.9123127253	 1.9466111903	-0.0482913922	 0.144012
H	 0.5175290383	 1.8246896996	 0.9939991448	 0.15043
H	-2.7511943895	 0.5622497542	-0.2343659419	 0.07195
H	-2.3192944093	-3.1943513701	-0.0522942119	 0.270885
H	-0.9808387344	-4.1827495477	 0.2725033357	 0.245142
H	 1.5970987124	-2.7266245025	 0.234000573	 0.128672
77.3115	135.2954	184.1387	210.2093	279.882	282.1048	339.7662	398.9312	417.9365	517.4863	600.188	612.6449	637.1333	651.1726	724.605	753.3241	799.1334	958.5149	1024.0692	1055.2526	1066.2657	1121.9561	1137.9306	1240.5531	1304.2943	1361.3046	1413.9693	1430.9709	1467.1761	1469.711	1481.0735	1583.6989	1634.6113	1670.5131	1755.3796	2897.6785	3036.8638	3089.3718	3141.0306	3293.8931	3544.041	3663.3154
CC1=C(C=O)C(N)=CO1	Cc1c(C=O)c(N)co1	
InChI=1S/C6H7NO2/c1-4-5(2-8)6(7)3-9-4/h2-3H,7H2,1H3	InChI=1S/C6H7NO2/c1-4-5(2-8)6(7)3-9-4/h2-3H,7H2,1H3
