21
gdb 70420	2.75742	1.43777	1.24495	1.9998	81.75	-0.2416	0.0743	0.3159	1112.9989	0.182498	-387.041814	-387.033316	-387.032372	-387.07506	32.811	
C	-0.0569054345	 1.5655294347	 0.1555612405	-0.504729
C	 0.0556317386	 0.070321835	 0.0613973359	 0.299548
C	-0.8544303117	-0.8650868326	 0.8184833397	-0.32731
C	 0.6293342614	-0.9513070867	 1.0492426359	-0.0931
C	 1.2764166831	-1.7289176774	-0.099630857	-0.315558
C	 0.6742749563	-0.7092258989	-1.1129141594	 0.24948
C	-0.150364392	-1.1115294297	-2.3532345148	-0.133962
O	 0.7367332044	-0.395696874	-3.2371324328	-0.276059
C	 1.590385553	-0.0137968085	-2.1418237352	-0.143115
H	 0.9016399996	 2.0605691752	-0.0354844638	 0.11895
H	-0.7828874111	 1.9602448812	-0.5658957733	 0.124195
H	-0.3898210396	 1.8667249254	 1.1541614779	 0.118728
H	-1.4278131966	-0.3992839752	 1.6141436564	 0.108771
H	-1.3792456179	-1.6736737865	 0.3126573082	 0.103465
H	 1.0690565347	-0.7830252719	 2.0251922452	 0.084837
H	 2.3692852821	-1.6865244179	-0.0925110927	 0.103427
H	 0.9681389399	-2.774905663	-0.2122857878	 0.09523
H	-0.1717729791	-2.1865897618	-2.5777706355	 0.095819
H	-1.1755999637	-0.7197168759	-2.3892194283	 0.097959
H	 1.6816217576	 1.076567561	-2.0558599981	 0.09927
H	 2.5964452955	-0.4466098824	-2.232122221	 0.094154
58.9613	125.8356	192.0685	197.6843	262.3328	316.6463	388.7421	414.4812	448.3622	518.4935	626.4897	769.0076	818.177	853.9566	857.2412	880.7532	908.326	955.832	972.3641	990.1851	996.9997	1022.2313	1040.0257	1044.9527	1087.8926	1107.2438	1137.0862	1150.2095	1160.1649	1177.6086	1197.493	1221.1698	1247.0206	1273.1947	1308.9063	1323.6563	1381.2655	1385.0127	1420.0889	1480.6078	1485.0924	1495.9986	1503.0307	1506.9291	1531.7761	2992.1971	3004.3451	3020.727	3031.2185	3040.56	3042.2757	3079.3896	3090.6449	3095.6003	3098.814	3177.7219	3192.2635
CC12CC1CC21COC1	C[C@]12C[C@H]1CC12COC1	
InChI=1S/C8H12O/c1-7-2-6(7)3-8(7)4-9-5-8/h6H,2-5H2,1H3	InChI=1S/C8H12O/c1-7-2-6(7)3-8(7)4-9-5-8/h6H,2-5H2,1H3/t6-,7-/m0/s1
