15
gdb 17029	4.21815	1.6204	1.3619	3.3444	65.98	-0.2785	0.0236	0.3021	893.9395	0.120043	-362.620836	-362.614028	-362.613084	-362.651712	26.213	
O	-0.044983116	 1.4926407715	-0.0180209586	-0.438976
C	 0.0202377268	 0.0952205443	 0.015403349	 0.148861
C	-0.0279075589	-0.6436318716	 1.3985240904	-0.098437
C	-1.4984474264	-0.1454950756	 1.5227134611	-0.243242
C	-1.3532029843	-0.6211692132	 0.0442819236	-0.06862
C	-0.6055861283	-1.8716425464	 0.6201819258	-0.146221
C	 0.267728855	-2.6526117185	-0.2433587177	 0.265682
N	 0.9548790602	-3.2933583603	-0.9179454533	-0.338289
H	 0.8519361514	 1.8394357512	 0.0006501446	 0.292096
H	 0.7479533615	-0.2953956641	-0.7044395008	 0.095964
H	 0.7389199745	-0.6841382128	 2.1722975925	 0.089068
H	-2.1610593947	-0.7335722308	 2.1621876943	 0.097676
H	-1.6289672317	 0.9244803767	 1.6662362355	 0.128216
H	-2.1110337116	-0.6331041324	-0.7383562169	 0.094894
H	-1.2311934176	-2.5362853179	 1.2193639006	 0.121328
143.8441	172.1118	259.433	324.5682	352.7194	448.209	511.6211	537.8694	646.2726	779.7337	830.0573	851.2357	890.3163	903.0215	921.3446	1010.879	1020.8854	1068.0896	1088.091	1091.0382	1108.3266	1165.5212	1194.5348	1197.1228	1222.3771	1233.2038	1256.5231	1311.2604	1368.2358	1450.495	1516.2686	2349.15	3050.3451	3075.5305	3094.9942	3117.3153	3127.0893	3172.2284	3831.1
OC1C2CC1C2C#N	O[C@H]1[C@H]2C[C@@H]1[C@H]2C#N	
InChI=1S/C6H7NO/c7-2-5-3-1-4(5)6(3)8/h3-6,8H,1H2	InChI=1S/C6H7NO/c7-2-5-3-1-4(5)6(3)8/h3-6,8H,1H2/t3-,4+,5-,6-
