16
gdb 96816	2.77021	1.41465	0.94724	2.7662	78.69	-0.2579	-0.0455	0.2124	1196.5678	0.123881	-437.940237	-437.931793	-437.930849	-437.974656	29.922	
C	 0.011679557	 1.4349910211	 0.0886185722	-0.339281
N	 0.2733736211	 0.0089977944	 0.1079746825	-0.289484
C	 0.5301807444	-0.6294300031	-0.9511691263	 0.411698
O	 0.571636523	 0.0186289602	-2.1863506862	-0.248144
C	 0.8408654372	-0.5900958161	-3.3826154632	 0.415424
O	 0.8467276288	 0.0782684574	-4.3742832488	-0.306059
C	 1.1176135202	-2.0829129895	-3.3839556887	-0.418854
C	 1.0655807022	-2.7460627792	-2.0460832003	-0.079523
C	 0.7937803253	-2.0631521182	-0.9352216331	-0.124488
H	 0.7342763249	 1.9295160126	 0.7478810092	 0.134619
H	 0.0552674534	 1.8974111012	-0.9016063462	 0.137955
H	-0.9782996225	 1.6121920625	 0.5243432714	 0.134614
H	 0.4019777052	-2.5363929722	-4.082193549	 0.162591
H	 2.0966947935	-2.2224198444	-3.8606626055	 0.16259
H	 1.2585124469	-3.8136457188	-2.0085868922	 0.118612
H	 0.7507411293	-2.5219565779	 0.0441660844	 0.127731
47.2666	59.2915	107.6117	204.3162	208.2162	392.3974	429.3716	483.3233	514.286	550.4093	575.4104	664.3392	685.1473	806.8873	891.5405	950.4816	969.0699	987.2592	1018.7575	1045.3032	1120.3073	1129.5668	1159.6832	1209.295	1212.4937	1295.8105	1352.8485	1412.7682	1436.5102	1438.6841	1490.9494	1494.1199	1714.9618	1753.0822	1864.7973	3024.7373	3030.8344	3052.6351	3079.0466	3107.8953	3179.8916	3225.7246
CN=C1OC(=O)CC=C1	CN=C1OC(=O)CC=C1	
InChI=1S/C6H7NO2/c1-7-5-3-2-4-6(8)9-5/h2-3H,4H2,1H3	InChI=1S/C6H7NO2/c1-7-5-3-2-4-6(8)9-5/h2-3H,4H2,1H3
