19
gdb 70581	2.60218	1.7205	1.37147	3.2087	73.88	-0.261	0.0711	0.3321	1015.1134	0.159881	-423.007295	-422.999591	-422.998647	-423.039071	30.75	
C	-0.0487368196	 1.5153771474	 0.0141476805	-0.488128
C	 0.0612861648	 0.0096230618	-0.0130600273	 0.412935
O	-0.3169509852	-0.665273198	 1.187933107	-0.279679
C	 1.0630520233	-0.7124935173	 0.7930735621	-0.032696
C	 1.603272425	-2.0524527806	 0.3137321972	-0.241286
C	 1.736846595	-2.1242788408	-1.2206892448	-0.254067
C	 0.4727204657	-1.6795133984	-1.9230172785	 0.055922
O	-0.7585211374	-2.0109997853	-1.2767410818	-0.243757
C	-0.3735088469	-0.638280852	-1.3108725273	-0.028843
H	 0.5170640755	 1.9651660936	-0.8094797352	 0.122359
H	-1.0944242698	 1.8265997113	-0.0880443771	 0.130895
H	 0.3349666915	 1.9099458799	 0.9576322951	 0.131094
H	 1.7171065967	-0.123961079	 1.4368175005	 0.086486
H	 2.5773324827	-2.2476947239	 0.7717638745	 0.09859
H	 0.9168852653	-2.8322709028	 0.6531460259	 0.137722
H	 2.5625354759	-1.4886926562	-1.5687509814	 0.104869
H	 1.9859664993	-3.1484910814	-1.5207925662	 0.111517
H	 0.4584698112	-1.7879669415	-3.0080826544	 0.089588
H	-0.9958202729	-0.0160895168	-1.9547444089	 0.086481
139.7611	185.8692	222.5812	265.0697	322.5453	338.9466	450.7357	490.2624	509.1338	552.6139	637.9312	735.6734	794.507	817.5836	856.8318	887.3949	917.1099	950.8067	956.9075	1031.8383	1050.0975	1062.8362	1074.181	1117.9237	1122.0146	1138.7729	1210.3041	1237.5617	1255.1412	1279.9207	1337.2629	1355.7578	1379.9543	1389.8243	1411.6635	1452.9534	1464.7819	1478.3978	1484.4701	1490.6426	1501.1246	3020.5837	3032.1902	3057.1714	3066.1154	3093.6858	3098.2048	3099.8634	3110.3605	3114.3695	3127.5085
CC12OC1CCC1OC21	C[C@]12O[C@H]1CC[C@H]1O[C@@H]21	
InChI=1S/C7H10O2/c1-7-5(9-7)3-2-4-6(7)8-4/h4-6H,2-3H2,1H3	InChI=1S/C7H10O2/c1-7-5(9-7)3-2-4-6(7)8-4/h4-6H,2-3H2,1H3/t4-,5+,6-,7+/m1/s1
