25
gdb 101755	4.66788	0.49574	0.46581	0.1924	99.51	-0.2385	0.0654	0.3039	2467.1551	0.226073	-352.349067	-352.336896	-352.335952	-352.388771	42.203	
C	-0.143078645	 1.4981425103	 0.1600809483	-0.391951
C	 0.1014042867	-0.0103065048	 0.0498640223	-0.172433
C	 0.795192371	-0.466034098	-1.2491412589	 0.048309
C	 2.214811452	 0.1080511936	-1.371565019	-0.392864
C	 0.7846666883	-2.0034150724	-1.3312875155	-0.168911
C	 1.2529004326	-2.5788237515	-2.6849724355	-0.374063
C	 1.131143075	-4.0315286106	-2.7532505609	 0.027349
C	 1.0190754938	-5.2303134424	-2.7808224169	 0.108528
C	 0.8878656383	-6.6800357371	-2.8266584048	-0.496943
H	 0.7910427077	 2.0665174134	 0.1987521013	 0.117854
H	-0.7218288036	 1.8682225009	-0.6940335545	 0.112334
H	-0.7061180991	 1.7355061606	 1.0682767686	 0.111792
H	 0.6963874579	-0.3495050904	 0.909427013	 0.092099
H	-0.8621831096	-0.529956246	 0.1272929642	 0.091704
H	 0.1996916098	-0.0826448752	-2.0925979258	 0.066013
H	 2.6924978042	-0.1805249398	-2.312411724	 0.114523
H	 2.2126885264	 1.2010516393	-1.3364214174	 0.114421
H	 2.8498090236	-0.2506861552	-0.5519986026	 0.111616
H	 1.4114579829	-2.4201150615	-0.5322935246	 0.100742
H	-0.2324773033	-2.3656019935	-1.1424276221	 0.100766
H	 0.6642923772	-2.1218426986	-3.4927545685	 0.120646
H	 2.2950534349	-2.2946871478	-2.8750281344	 0.125739
H	 1.8607708667	-7.1738841982	-2.7242038293	 0.144022
H	 0.2451192906	-7.0487510728	-2.0192604097	 0.144266
H	 0.4484049609	-7.0117564524	-3.7741810833	 0.14444
20.3561	43.4754	67.5024	83.6007	98.4332	184.7407	212.1119	217.6454	260.843	272.7564	298.9769	364.3018	386.4054	424.9822	443.8039	535.553	751.39	763.7484	785.6302	839.2671	914.0955	947.208	979.216	1013.6512	1023.6298	1053.5725	1054.1269	1057.7049	1136.9394	1146.2365	1170.1808	1180.8922	1225.4074	1273.9113	1301.0449	1318.3413	1333.7549	1379.4053	1383.1634	1387.3443	1412.8696	1415.216	1415.8544	1471.9855	1479.9054	1480.0684	1483.2416	1493.4796	1498.4743	1499.7249	1508.4277	1515.2038	2373.1034	2981.2471	3008.5981	3009.8483	3023.8185	3026.239	3030.9306	3032.9664	3042.644	3045.7084	3073.0005	3082.8946	3083.0092	3096.6099	3097.1917	3105.0079	3112.1508
CCC(C)CCC#CC	CC[C@@H](C)CCC#CC	
InChI=1S/C9H16/c1-4-6-7-8-9(3)5-2/h9H,5,7-8H2,1-3H3	InChI=1S/C9H16/c1-4-6-7-8-9(3)5-2/h9H,5,7-8H2,1-3H3/t9-/m1/s1
