20
gdb 97993	5.72149	0.47967	0.46233	3.6377	86.91	-0.2422	0.0272	0.2694	2377.7193	0.169428	-403.156645	-403.145724	-403.14478	-403.195681	36.795	
C	 0.3823674599	 1.3945525044	-0.1687471666	-0.36382
C	-0.338503235	 0.1039157978	 0.2611674286	-0.312693
C	 0.2782209763	-0.5414633568	 1.4159427421	 0.115535
C	 0.7907457214	-1.0517451919	 2.3795627898	 0.014315
C	 1.4360185051	-1.7034529174	 3.5122925545	-0.344133
C	 2.5160957007	-2.7141552259	 3.0630481586	-0.155057
N	 3.1981147631	-3.3440406814	 4.1810808416	-0.267684
C	 2.7130816202	-4.4540253613	 4.7992652673	 0.149207
O	 1.7028862796	-5.0419488196	 4.4756724054	-0.321287
H	 1.4219669616	 1.1878166728	-0.4374632228	 0.125016
H	-0.1155308223	 1.8401632909	-1.035161858	 0.113922
H	 0.3836971502	 2.1273616939	 0.642765383	 0.126919
H	-1.3882583375	 0.32966333	 0.4890403531	 0.129438
H	-0.3603463607	-0.6004737316	-0.5803854058	 0.128638
H	 1.8950339519	-0.9537853114	 4.1702034047	 0.117187
H	 0.6971635094	-2.2419007292	 4.1172003581	 0.152246
H	 2.0457723009	-3.5032497874	 2.4729033849	 0.152685
H	 3.2577031863	-2.213537629	 2.4348156774	 0.116381
H	 4.0161828158	-2.9025783965	 4.5689254743	 0.248709
H	 3.3601861231	-4.7755583006	 5.6399819299	 0.074475
18.4145	41.9256	44.4105	85.1851	136.8442	188.6822	217.9091	275.8085	310.4052	326.719	395.7011	475.5564	514.2344	528.2507	720.9379	750.9944	784.9958	822.6461	963.4136	977.3473	1018.3413	1036.5207	1078.3596	1086.861	1105.0226	1165.8561	1203.3713	1244.7439	1286.8358	1309.2463	1334.4278	1352.3625	1400.0311	1408.4684	1429.6965	1468.4514	1475.132	1481.4489	1494.7025	1505.4373	1528.1516	1805.5378	2367.1711	2932.4815	3019.5085	3020.3763	3043.4484	3046.1737	3061.2267	3072.3337	3116.5517	3122.3319	3130.3461	3639.1329
CCC#CCCNC=O	CCC#CCCNC=O	
InChI=1S/C7H11NO/c1-2-3-4-5-6-8-7-9/h7H,2,5-6H2,1H3,(H,8,9)	InChI=1S/C7H11NO/c1-2-3-4-5-6-8-7-9/h7H,2,5-6H2,1H3,(H,8,9)
