18
gdb 85790	2.38054	1.21547	1.20611	5.1481	77.41	-0.2589	-0.0442	0.2146	1185.7375	0.145645	-401.979722	-401.970198	-401.969254	-402.014365	34.178	
C	-0.8925865755	 1.1211383781	 0.1799051291	-0.410324
C	 0.0423542687	-0.063300851	-0.037391522	-0.0962
C	 0.989767157	-0.0819113772	-1.2784398387	-0.291729
C	 2.2233973916	-0.44010469	-0.3718713346	 0.019502
C	 2.6380507603	-1.9222039922	-0.4114994694	-0.439402
C	 3.3741465349	 0.4390942495	-0.4977394467	 0.253947
N	 4.2776824591	 1.1540285483	-0.5984923496	-0.336182
C	 1.2898210543	-0.134715323	 0.8535908076	 0.379961
O	 1.5044732026	 0.0402415721	 2.0122799895	-0.28139
H	-0.3523841876	 2.0692268937	 0.0952615692	 0.132517
H	-1.6993094658	 1.1214863158	-0.5592000795	 0.127886
H	-1.3403196435	 1.0769414247	 1.1766312148	 0.142832
H	-0.5161073653	-1.0037786137	 0.0488494979	 0.114405
H	 0.7672250493	-0.8209029263	-2.0489932494	 0.120253
H	 1.089535464	 0.9015557781	-1.7408349862	 0.13469
H	 3.1185854631	-2.1566537058	-1.3651714563	 0.144869
H	 3.3368809573	-2.1463359046	 0.3978708462	 0.156044
H	 1.7600131055	-2.5650683764	-0.2992941418	 0.128323
43.3726	123.853	181.6865	193.2287	202.3661	217.7342	230.6622	273.8379	355.9947	417.9891	519.7091	571.5193	596.076	696.546	719.1656	814.5547	883.5836	901.5821	924.4588	971.3365	986.5855	1064.5377	1117.5174	1121.7732	1162.3047	1187.5521	1226.0602	1255.585	1278.3038	1329.2256	1408.1275	1411.099	1483.8562	1490.1337	1494.4035	1494.7909	1495.7475	1901.0938	2348.48	3035.7628	3040.7963	3045.3474	3084.5436	3111.7352	3119.6565	3119.8058	3132.9576	3143.6549
CC1CC(C)(C#N)C1=O	C[C@H]1C[C@@](C)(C#N)C1=O	
InChI=1S/C7H9NO/c1-5-3-7(2,4-8)6(5)9/h5H,3H2,1-2H3	InChI=1S/C7H9NO/c1-5-3-7(2,4-8)6(5)9/h5H,3H2,1-2H3/t5-,7-/m0/s1
