12
gdb 20697	7.50661	1.30737	1.12122	4.4832	58.11	-0.275	-0.0828	0.1922	984.4437	0.082992	-414.672357	-414.665181	-414.664237	-414.704543	24.13	
C	-0.0210638539	 1.4781504509	-0.0296247345	-0.497272
C	-0.0658671852	-0.0038550579	 0.0440156514	 0.415606
N	-1.0510288174	-0.8084859294	-0.2163061723	-0.331696
C	-0.4924352935	-2.0427910705	 0.0306214774	 0.250167
C	-1.274145276	-3.2982654803	-0.1396747278	 0.097435
O	-0.8418455426	-4.4023010474	 0.0600888902	-0.226865
N	 0.7588792505	-2.0110625537	 0.4195004409	-0.139162
O	 1.0489136575	-0.6543484449	 0.4303613799	-0.177889
H	 0.747963525	 1.8045841736	-0.735940094	 0.165778
H	-0.9923524405	 1.8500409028	-0.3544419519	 0.169567
H	 0.2231842638	 1.9042654402	 0.9479049843	 0.165761
H	-2.3134007776	-3.1073760635	-0.4752846635	 0.108569
69.7127	95.7385	183.8323	210.6225	323.665	344.7453	477.891	672.2784	710.6291	721.9154	785.3113	949.5932	986.2069	1039.4607	1040.144	1070.4688	1078.9008	1280.38	1339.4953	1410.7968	1434.0896	1474.6265	1474.742	1525.7515	1623.7842	1827.3358	2938.7951	3055.7409	3116.3008	3166.4319
CC1=NC(C=O)=NO1	Cc1nc(C=O)no1	
InChI=1S/C4H4N2O2/c1-3-5-4(2-7)6-8-3/h2H,1H3	InChI=1S/C4H4N2O2/c1-3-5-4(2-7)6-8-3/h2H,1H3
