17
gdb 127673	3.1501	1.45395	1.08078	2.5961	75.49	-0.2396	0.0163	0.256	1111.9292	0.138267	-414.185034	-414.176973	-414.176029	-414.21917	28.889	
C	 0.3597419751	 1.3711786732	 0.0569934809	-0.330573
N	 0.0645696119	-0.0440883147	 0.0072734453	-0.024717
N	 0.191926276	-0.753232411	-1.1457841238	-0.260795
C	-0.1694036326	-1.9677689587	-0.7690178287	 0.025279
N	-0.5152418056	-2.0943821889	 0.5394143834	-0.335241
C	-0.353451984	-0.8623320324	 0.9981806283	 0.445093
N	-0.5685940929	-0.3725591432	 2.2904688478	-0.211958
C	-1.2555739545	-1.2822478817	 3.2179279562	-0.216261
C	 0.1956787918	-1.0340203796	 3.3762041727	-0.225897
H	 1.4335522722	 1.5449797528	-0.0578578363	 0.144968
H	-0.1703820417	 1.8821254026	-0.7495059747	 0.151988
H	 0.0269570903	 1.7488939797	 1.0238690804	 0.162023
H	-0.1877386087	-2.7930495265	-1.4655576113	 0.12281
H	-1.9657648402	-0.792176719	 3.8765164375	 0.124751
H	-1.5559740588	-2.244349709	 2.8168437876	 0.159452
H	 0.8708964	-1.8307382174	 3.0790450652	 0.142021
H	 0.5627313017	-0.361365976	 4.1447988394	 0.127057
19.6535	123.6042	170.0995	195.9673	210.5622	308.3363	425.2014	512.2293	609.2155	682.2893	738.1986	767.8023	828.9646	849.5642	903.0458	927.1581	996.1274	1032.9229	1045.593	1113.8856	1142.9665	1157.1931	1173.862	1185.0729	1191.2887	1225.0536	1298.6963	1306.2952	1315.5653	1434.5025	1449.6993	1480.2217	1485.5641	1497.9536	1507.0433	1541.4337	1559.1022	3053.0785	3120.459	3121.8277	3126.2349	3163.8686	3212.4371	3228.4179	3253.787
CN1N=CN=C1N1CC1	Cn1ncnc1N1CC1	
InChI=1S/C5H8N4/c1-8-5(6-4-7-8)9-2-3-9/h4H,2-3H2,1H3	InChI=1S/C5H8N4/c1-8-5(6-4-7-8)9-2-3-9/h4H,2-3H2,1H3
