16
gdb 97430	5.39268	0.69304	0.64926	4.4968	78.24	-0.2498	-0.0733	0.1765	1697.4959	0.119981	-437.846935	-437.836983	-437.836038	-437.883006	33.887	
C	-0.5458909854	 0.6738016523	-0.2117801817	-0.314738
N	 0.7286603885	 0.1560092906	 0.2385499756	-0.207841
C	 0.7123984092	-0.8095186157	 1.0378441922	 0.148676
O	 1.8790206549	-1.3216544781	 1.5091725025	-0.186714
C	 1.778607096	-2.4301098363	 2.362802348	-0.204832
C	 1.3864819867	-3.719212695	 1.6344283969	 0.223826
O	 0.9992725154	-3.7325474525	 0.4903351937	-0.26411
C	 1.4934578232	-4.915170052	 2.4495777073	 0.244366
C	 1.5985327513	-5.884325089	 3.1556424898	-0.389673
H	-0.6171910282	 1.7389757895	 0.0357242469	 0.127432
H	-0.6069533237	 0.5952258366	-1.3029751998	 0.132415
H	-1.4189446201	 0.1579688089	 0.2204411671	 0.096843
H	-0.1911963346	-1.2966622843	 1.4328887869	 0.077861
H	 2.7593336208	-2.5654279849	 2.8286590731	 0.155694
H	 1.0549422851	-2.2695377497	 3.1782147382	 0.137176
H	 1.6831496911	-6.7538527903	 3.7621075433	 0.223621
41.9891	61.2009	99.5982	141.7999	198.9024	214.9258	247.9836	263.9103	327.7513	403.9157	465.5504	560.1577	594.0092	627.4505	662.5701	715.014	841.8116	969.7325	995.5383	1042.6174	1083.5002	1100.7633	1141.6817	1164.4133	1223.7007	1304.3749	1380.8535	1409.7252	1450.6659	1462.3944	1480.2619	1504.8787	1781.7411	1793.9961	2212.0417	2969.153	2988.1858	3009.8385	3060.6608	3080.8822	3093.7839	3491.6805
CN=COCC(=O)C#C	CN=COCC(=O)C#C	
InChI=1S/C6H7NO2/c1-3-6(8)4-9-5-7-2/h1,5H,4H2,2H3	InChI=1S/C6H7NO2/c1-3-6(8)4-9-5-7-2/h1,5H,4H2,2H3
