14
gdb 5213	8.87961	0.97763	0.88554	0.8142	76.07	-0.2137	0.0006	0.2142	1256.756	0.10729	-345.412567	-345.404944	-345.404	-345.446802	26.551	
C	-0.0271688867	 1.4726858342	 0.0107326618	-0.508488
C	-0.0035798772	 0.0183280593	 0.0029824953	 0.192536
C	 0.0216998824	-1.187783322	-0.0034932354	-0.110491
C	 0.0251729454	-2.6020780985	-0.0111892833	 0.14013
C	 1.1149640473	-3.4296917683	-0.0220331086	-0.122178
O	 0.7336452653	-4.7287590573	-0.026918229	-0.137112
C	-0.6277577276	-4.7454158933	-0.0189747196	 0.008649
C	-1.1198319497	-3.4837963287	-0.0089557258	-0.309579
H	 0.9880203167	 1.8845393662	 0.0030895948	 0.150218
H	-0.5514708258	 1.868697417	-0.8664817618	 0.149484
H	-0.5344565764	 1.8595711139	 0.901916124	 0.149478
H	 2.175258585	-3.2416358666	-0.0272649471	 0.141277
H	-1.0825604882	-5.7219043384	-0.0216405405	 0.139185
H	-2.1559564106	-3.1866284776	-0.0010465547	 0.116893
9.7101	98.5649	110.0133	284.605	306.1523	465.8993	471.7786	521.0989	616.0038	657.9794	734.1303	788.7492	838.3394	889.5537	920.5428	1026.16	1051.0443	1052.6624	1069.8095	1112.0178	1203.6535	1254.043	1322.0594	1372.6232	1413.6668	1475.6393	1477.7406	1541.9777	1612.8955	2362.5568	3024.09	3081.995	3087.5804	3264.2053	3284.3904	3290.9197
CC#CC1=COC=C1	CC#Cc1cocc1	
InChI=1S/C7H6O/c1-2-3-7-4-5-8-6-7/h4-6H,1H3	InChI=1S/C7H6O/c1-2-3-7-4-5-8-6-7/h4-6H,1H3
