22
gdb 8700	2.61861	1.52512	1.26439	2.471	78.1	-0.2444	-0.0215	0.2229	1120.2177	0.197078	-350.226869	-350.216509	-350.215565	-350.262009	37.154	
C	-0.0032861067	 1.5948163758	 0.2712089934	-0.409903
C	 0.0091910542	 0.0875385666	-0.0063698279	-0.183267
C	 0.7689342375	-0.3667731096	-1.2739703794	 0.163119
C	 2.2264103319	 0.1266791192	-1.2945367349	-0.436981
C	 0.7182103613	-1.9273211433	-1.3193448014	-0.190296
C	 1.3230410443	-2.619709573	-2.5473426276	-0.410474
C	 0.0595519948	 0.1407728589	-2.526501841	 0.160117
O	-1.0978643076	 0.4720943418	-2.5833794308	-0.266624
H	 0.9984841607	 1.9895607417	 0.4665536884	 0.112151
H	-0.4342132663	 2.1496408188	-0.5666505419	 0.13271
H	-0.6126384605	 1.8081772104	 1.1549188338	 0.114545
H	 0.4432735612	-0.4379014947	 0.8536311923	 0.087496
H	-1.0245395025	-0.2605449853	-0.0990546343	 0.113318
H	 2.7774188683	-0.2742390578	-0.4373962038	 0.119516
H	 2.7461232683	-0.1904797358	-2.2036425718	 0.119519
H	 2.2856712194	 1.2176599184	-1.2501014985	 0.125248
H	 1.2269926045	-2.2890255347	-0.4167439028	 0.100037
H	-0.3315547723	-2.2281367054	-1.222330246	 0.111064
H	 0.8059740727	-2.3475195972	-3.4727655515	 0.124336
H	 2.3841848337	-2.3863249376	-2.6749476171	 0.120944
H	 1.2406366416	-3.7055092304	-2.4385852529	 0.120988
H	 0.6979475315	 0.1721664334	-3.4406153343	 0.072439
64.0481	78.9699	99.3434	180.6804	200.5331	228.6702	257.7097	289.1972	318.1342	323.2532	356.3775	397.3375	474.2095	585.1316	730.9143	771.2829	789.3406	856.6473	916.1894	975.5606	995.7639	1007.044	1032.6827	1055.2332	1092.1841	1108.7365	1184.9278	1218.0231	1245.3276	1297.0636	1347.8331	1360.2328	1375.9081	1409.4235	1410.5416	1414.827	1435.1172	1468.9251	1482.4031	1493.435	1497.5814	1504.0155	1505.6183	1507.4508	1518.4564	1822.5229	2851.5287	3019.4695	3028.4483	3037.9175	3041.4324	3043.4552	3061.1379	3076.4571	3103.4447	3104.0559	3106.3445	3111.9325	3115.2845	3121.449
CCC(C)(CC)C=O	CCC(C)(CC)C=O	
InChI=1S/C7H14O/c1-4-7(3,5-2)6-8/h6H,4-5H2,1-3H3	InChI=1S/C7H14O/c1-4-7(3,5-2)6-8/h6H,4-5H2,1-3H3
