15
gdb 129751	3.13292	1.42281	1.04274	3.1372	69.01	-0.2115	-0.012	0.1995	1092.1384	0.113473	-453.904035	-453.896354	-453.89541	-453.936725	28.563	
N	-0.4168079065	 0.9351439806	 0.9988668011	-0.617072
C	-0.1168002908	-0.1596185643	 0.1873561965	 0.050721
C	-0.8950990018	-0.7993082087	-0.7368923328	 0.374127
O	-0.1642006927	-1.7372280468	-1.3889608265	-0.2267
N	 1.1210012241	-1.7458483464	-0.8785216821	-0.137723
C	 1.1428602215	-0.8129706493	 0.0412328158	-0.007567
C	-2.3062622255	-0.6472078934	-1.1298310176	-0.055103
C	-3.4107973038	-0.9948645066	-0.2130341941	-0.167927
O	-3.0265329518	 0.3671324763	-0.4188409481	-0.230142
H	-0.0461522622	 0.86096183	 1.9366022237	 0.246691
H	-1.4090533218	 1.1347487979	 1.0109330651	 0.261352
H	 2.0606080736	-0.6219059635	 0.5802647572	 0.128423
H	-2.5073182071	-0.6881388912	-2.2003643239	 0.12447
H	-4.3816048126	-1.2673224347	-0.6230434574	 0.130404
H	-3.1746883726	-1.4049872101	 0.7663898129	 0.126044
58.3753	147.4637	185.6187	301.4999	304.4617	367.0873	392.0169	452.799	642.1707	670.298	698.8897	704.2962	767.2689	862.3606	892.6555	896.6907	948.8282	966.9394	1007.0416	1084.4177	1092.6411	1152.1763	1166.5555	1207.6474	1235.3914	1258.6772	1284.2511	1402.4297	1464.7552	1514.3513	1530.5691	1640.2565	1698.9595	3093.4313	3113.1253	3189.7112	3239.393	3537.707	3635.5616
NC1=C(ON=C1)C1CO1	Nc1c(onc1)[C@H]1CO1	
InChI=1S/C5H6N2O2/c6-3-1-7-9-5(3)4-2-8-4/h1,4H,2,6H2	InChI=1S/C5H6N2O2/c6-3-1-7-9-5(3)4-2-8-4/h1,4H,2,6H2/t4-/m1/s1
