19
gdb 40903	3.575	1.27437	1.24888	1.9853	74.41	-0.2118	0.0655	0.2773	1090.6667	0.160501	-422.985296	-422.977569	-422.976625	-423.01789	29.508	
C	 0.1528874066	 1.4393279253	-0.2183814948	-0.083417
C	 1.5832640963	 1.54033924	 0.3557710051	-0.358441
C	 1.3257893385	 0.1069809466	 0.8047374908	 0.4199
O	 0.027542881	 0.0612268765	 0.2097986975	-0.315733
C	 2.1805683103	-1.1345627792	 0.8326267651	-0.178034
C	 3.6854020942	-0.971889606	 0.979267045	-0.248294
C	 3.8243110753	 0.0112472774	 2.165239768	-0.081184
O	 2.6184132634	-0.0660104303	 2.930485432	-0.25602
C	 1.5936943749	-0.5722015064	 2.1129366274	 0.006104
H	-0.5934760568	 2.0812375626	 0.2628607008	 0.109498
H	 0.0632061712	 1.5322958736	-1.3060638395	 0.107966
H	 2.373997139	 1.6660908428	-0.3871552815	 0.112572
H	 1.7217092547	 2.2608735629	 1.1635805084	 0.12565
H	 1.7762080137	-2.0299049138	 0.3736484761	 0.101103
H	 4.1303505947	-1.9434843309	 1.216418162	 0.113849
H	 4.1824936498	-0.5878297734	 0.0830765707	 0.105926
H	 4.6591208662	-0.228986243	 2.8300795073	 0.110204
H	 3.968490048	 1.0367098653	 1.7994057539	 0.099954
H	 0.7892268989	-1.0379707801	 2.6712028957	 0.108397
82.0711	144.9101	152.5504	179.3008	286.8917	405.1821	458.3465	582.1394	686.3363	704.4743	798.5699	834.2246	856.8329	874.1549	882.4255	930.5477	959.2228	968.3475	982.086	1017.9555	1031.8044	1055.2171	1101.6014	1117.0636	1138.1934	1161.1558	1171.2642	1214.3512	1216.1264	1230.664	1242.4163	1271.8723	1289.134	1312.8385	1355.9325	1391.8569	1442.6051	1490.3374	1494.0914	1526.3554	1530.462	3009.2019	3028.8933	3047.0449	3069.7452	3074.0965	3076.1131	3092.6805	3127.0859	3173.3532	3181.6597
C1CC2(O1)C1CCOC21	C1C[C@@]2(O1)[C@H]1CCO[C@@H]21	
InChI=1S/C7H10O2/c1-3-8-6-5(1)7(6)2-4-9-7/h5-6H,1-4H2	InChI=1S/C7H10O2/c1-3-8-6-5(1)7(6)2-4-9-7/h5-6H,1-4H2/t5-,6+,7+/m0/s1
