13
gdb 8649	2.52856	1.83331	1.4126	5.4729	59.14	-0.2704	-0.0342	0.2362	905.376	0.093928	-394.772821	-394.764116	-394.763172	-394.805798	30.245	
N	-0.0102578371	 1.4788014701	 0.0187511864	-0.499279
C	 0.0202791623	 0.0336549207	-0.0300340322	-0.172169
C	 0.8350899647	-0.4882479023	 1.1845091375	 0.070193
O	 2.1590926066	 0.0261059339	 1.1631435964	-0.43215
C	 0.2212131753	-0.0345810545	 2.4497703495	 0.344471
N	-0.2862460021	 0.2803338958	 3.4365995297	-0.314493
C	 0.8540344703	-1.9698048478	 1.1584112153	 0.266804
N	 0.9005211917	-3.119688932	 1.0628081529	-0.312025
H	 0.910039249	 1.8649389872	-0.156509539	 0.244893
H	-0.6524864443	 1.8538498206	-0.6681830975	 0.246866
H	-0.9991169703	-0.3583468246	 0.0375348522	 0.146066
H	 0.4853510171	-0.412330499	-0.9271568482	 0.103769
H	 2.6547041168	-0.455627408	 0.4891935969	 0.307054
125.6493	134.9224	149.2453	186.6219	224.3175	257.6035	268.4638	331.2432	406.2129	511.3674	535.3343	571.8207	611.9313	705.3019	814.8905	908.1552	1038.5696	1055.4261	1083.4979	1124.4721	1207.9826	1307.0221	1391.224	1416.9126	1493.9424	1648.562	2361.6402	2379.6371	2946.1245	3088.417	3530.7542	3617.4452	3795.1025
NCC(O)(C#N)C#N	NCC(O)(C#N)C#N	
InChI=1S/C4H5N3O/c5-1-4(8,2-6)3-7/h8H,1,5H2	InChI=1S/C4H5N3O/c5-1-4(8,2-6)3-7/h8H,1,5H2
