20
gdb 31244	2.21855	1.38418	0.91001	1.2157	84.19	-0.1758	0.0481	0.2238	1333.9225	0.170923	-403.178153	-403.168517	-403.167573	-403.213616	34.97	
C	 0.0839350887	 1.545315716	 0.3377440128	-0.363131
C	-0.0213972666	 0.0736418435	-0.1051486905	-0.302168
C	-1.4126217732	-0.468847187	-0.1047297556	 0.188751
C	-2.2695985524	-0.736307743	-1.1550261772	 0.281714
O	-1.9075333925	-0.5311029043	-2.4552388672	-0.272383
C	-2.8651811721	-0.8945219872	-3.4254529745	-0.241922
C	-3.5008750959	-1.2234742644	-0.6299444668	-0.286525
C	-3.3630114753	-1.2382148923	 0.741690994	-0.086212
N	-2.111317964	-0.7817282269	 1.0453855698	-0.296103
H	 1.1235561642	 1.8885533931	 0.3143902287	 0.10819
H	-0.5059833669	 2.1898516949	-0.3204426564	 0.126386
H	-0.2905877198	 1.6836149726	 1.3579170998	 0.103992
H	 0.3681328861	-0.0276557133	-1.1227488528	 0.12536
H	 0.6269849052	-0.5424016538	 0.5342414562	 0.09469
H	-2.4208523191	-0.6806607114	-4.3997422596	 0.125622
H	-3.1141107884	-1.9635013599	-3.3700878866	 0.115422
H	-3.7917310062	-0.3132923293	-3.3183606492	 0.115364
H	-4.376170405	-1.5276164835	-1.1801137601	 0.093333
H	-4.0518390178	-1.5405155438	 1.5135308478	 0.113814
H	-1.735827569	-0.7027876899	 1.9738305573	 0.255807
35.7228	58.0869	140.9058	175.4645	208.6112	239.8226	300.7298	313.4557	389.6085	430.405	525.0651	598.3378	643.0894	669.3798	701.6139	726.1526	779.367	790.7136	911.3956	961.853	1024.5621	1071.4914	1082.0599	1109.303	1138.9516	1180.6249	1190.292	1214.0896	1256.7619	1297.0965	1341.7691	1356.0486	1405.4283	1441.7269	1469.064	1479.123	1485.8957	1496.11	1498.5437	1506.1211	1509.7127	1526.0692	1644.999	2991.698	3002.8456	3030.9482	3044.3531	3078.6513	3100.1399	3113.4355	3123.2494	3255.9345	3274.4711	3684.9978
CCC1=C(OC)C=CN1	CCc1c(OC)cc[nH]1	
InChI=1S/C7H11NO/c1-3-6-7(9-2)4-5-8-6/h4-5,8H,3H2,1-2H3	InChI=1S/C7H11NO/c1-3-6-7(9-2)4-5-8-6/h4-5,8H,3H2,1-2H3
