22
gdb 121495	4.2855	0.56241	0.55105	4.7574	85.58	-0.2438	0.0161	0.2599	2121.504	0.191431	-441.487172	-441.47623	-441.475286	-441.524582	38.657	
C	-0.1911658685	 1.5156324616	 0.1269396602	-0.387694
C	-0.0655152789	 0.0009945684	 0.0400354326	 0.126082
C	 0.7459484613	-0.6011654703	 1.184127137	-0.382201
O	-1.4080648366	-0.5243303707	 0.0643977327	-0.211903
C	-1.6218486176	-1.6889005555	-0.5666757596	 0.129899
N	-2.7295918365	-2.2814241172	-0.4785876279	-0.242074
C	-2.9057683924	-3.5280115929	-1.2019964917	-0.157921
C	-3.4589905152	-4.5757757517	-0.2303773748	-0.034575
O	-4.6473240843	-4.1242884559	 0.3812716765	-0.422857
H	 0.7979547725	 1.9809825215	 0.089789483	 0.120149
H	-0.7904653107	 1.9008720139	-0.7017586662	 0.129771
H	-0.6748535179	 1.8041813165	 1.064889246	 0.133852
H	 0.3937294399	-0.2724555086	-0.9209465772	 0.085209
H	 1.7652023823	-0.202662251	 1.181558119	 0.121665
H	 0.2807494369	-0.362111243	 2.1452088364	 0.134855
H	 0.8054385667	-1.6900190149	 1.0942505613	 0.121831
H	-0.7711461524	-2.049328628	-1.1670313059	 0.077153
H	-3.6483463167	-3.3675659557	-1.994208552	 0.113203
H	-1.9776880685	-3.8946346939	-1.673179488	 0.07723
H	-3.6964304651	-5.5000714978	-0.7687161371	 0.099163
H	-2.6836008796	-4.8134902234	 0.5180054067	 0.077482
H	-4.4711720388	-3.2063788014	 0.628456179	 0.29168
37.8698	48.3399	89.158	123.7142	174.1606	216.5304	235.2822	253.8041	302.1637	350.3149	361.5092	443.4273	466.7965	499.9683	557.2266	587.1344	836.7949	893.6424	901.4637	931.8765	946.9653	966.1065	994.7882	1079.5892	1094.3883	1123.0471	1148.4601	1161.2401	1199.8394	1226.4473	1247.8901	1272.5473	1360.7099	1365.4437	1380.4053	1383.2537	1403.8828	1419.5411	1427.0388	1444.9828	1480.1149	1482.1613	1485.4896	1494.4743	1508.5515	1510.7309	1771.066	2953.0874	2962.4283	2985.9142	3003.251	3039.7685	3041.5286	3047.6698	3066.644	3113.3842	3117.3176	3124.1348	3127.8323	3755.2284
CC(C)OC=NCCO	CC(C)OC=NCCO	
InChI=1S/C6H13NO2/c1-6(2)9-5-7-3-4-8/h5-6,8H,3-4H2,1-2H3	InChI=1S/C6H13NO2/c1-6(2)9-5-7-3-4-8/h5-6,8H,3-4H2,1-2H3
