15
gdb 7940	3.87087	1.80328	1.2497	0.9727	65.09	-0.2271	-0.0009	0.2262	923.1758	0.12009	-396.039198	-396.031361	-396.030417	-396.07255	27.532	
C	-0.0247108819	 1.3964539389	-0.0834856684	-0.337795
N	 0.013167398	-0.0425009564	 0.0013152978	-0.082312
C	-1.164183364	-0.8764757115	-0.0104955754	-0.305744
C	-0.5913298518	-2.2961475882	 0.0095783609	 0.42415
O	-1.1929727567	-3.3402313554	 0.0302276425	-0.356183
N	 0.7752670858	-2.1235383036	-0.0037841642	-0.39061
C	 1.1773911901	-0.7732661858	-0.0239681988	 0.455089
N	 2.3501656545	-0.2787682282	-0.056653184	-0.587683
H	 1.0027998637	 1.7602602377	-0.0595475188	 0.177623
H	-0.5012620832	 1.7314961249	-1.0146295526	 0.120773
H	-0.578256542	 1.8259170452	 0.7607191297	 0.122878
H	-1.8119869258	-0.7204823581	 0.862723587	 0.140566
H	-1.7815216288	-0.7382443581	-0.9098627104	 0.138676
H	 1.4232485012	-2.8942084329	 0.0048330528	 0.26736
H	 3.0656186109	-0.9996755183	-0.064135318	 0.213212
28.0604	114.7284	144.83	180.0207	297.379	375.0933	492.7695	555.0484	586.3824	599.99	686.5628	712.8556	734.7103	820.4222	894.0524	1019.7208	1051.6008	1072.9154	1155.7453	1194.6549	1198.5501	1262.8594	1319.3247	1343.4508	1356.1899	1442.3235	1465.2082	1493.4254	1498.4685	1534.1993	1767.1256	1862.2674	3002.1709	3009.0024	3033.3228	3055.2874	3154.2772	3537.261	3661.3627
CN1CC(=O)NC1=N	CN1CC(=O)N[C]1[NH]	
InChI=1S/C4H7N3O/c1-7-2-3(8)6-4(7)5/h2H2,1H3,(H2,5,6,8)	InChI=1S/C4H7N3O/c1-7-2-3(8)6-4(7)5/h2H2,1H3,(H2,5,6,8)
