17
gdb 26960	3.0538	1.39892	1.03996	2.5135	76.88	-0.1885	0.0394	0.2279	1141.5273	0.138598	-414.187885	-414.179818	-414.178873	-414.220811	30.504	
N	 0.1173607622	 1.4296219775	 0.1436765232	-0.615083
C	 0.0260592062	 0.034123914	 0.0379770273	 0.202716
C	-1.0315061307	-0.8082363382	-0.1974077483	 0.281706
N	-0.5968217994	-2.1120058376	-0.3144869935	-0.313555
C	 0.7020234559	-2.0650559984	-0.1466188989	-0.005416
N	 1.1360030069	-0.7846266666	 0.0662096763	-0.281298
N	-2.3696088819	-0.3778260162	-0.3200941851	-0.206638
C	-3.2182600004	-1.110857928	-1.2728092822	-0.220649
C	-3.409421817	-1.2868127781	 0.1878844938	-0.221685
H	 0.3518488802	 1.7308528607	 1.086261561	 0.242111
H	-0.792396877	 1.8204006136	-0.0814630537	 0.257756
H	 1.3769910038	-2.9075387265	-0.1523927	 0.125675
H	 2.0882171608	-0.471799915	 0.1540662463	 0.264177
H	-3.9041820895	-0.4944666571	-1.8471524587	 0.109743
H	-2.7521033271	-1.9311416293	-1.8102421393	 0.136232
H	-3.0698866468	-2.2237842196	 0.6191217645	 0.135015
H	-4.2370818563	-0.8010260651	 0.6971552774	 0.109193
58.0203	165.6705	181.8196	232.3308	269.3447	294.5417	453.9525	487.7124	530.0768	592.2259	662.2782	728.0752	744.5041	772.0821	826.8831	848.6403	873.8427	915.3505	965.2227	1041.5964	1083.2123	1112.989	1113.4354	1131.9345	1164.636	1184.3387	1209.9292	1242.9371	1284.2618	1356.3282	1398.0277	1476.021	1481.5074	1503.0232	1532.3137	1640.052	1677.1137	3110.2512	3113.3008	3199.7869	3214.1896	3250.2195	3477.5166	3569.8079	3666.1236
NC1=C(N=CN1)N1CC1	Nc1c(nc[nH]1)N1CC1	
InChI=1S/C5H8N4/c6-4-5(8-3-7-4)9-1-2-9/h3H,1-2,6H2,(H,7,8)	InChI=1S/C5H8N4/c6-4-5(8-3-7-4)9-1-2-9/h3H,1-2,6H2,(H,7,8)
