19
gdb 6281	3.01076	1.42509	1.02324	3.5945	72.77	-0.2788	0.0218	0.3006	1175.6675	0.162485	-365.079893	-365.070091	-365.069147	-365.117626	34.426	
C	-0.767356506	 1.4351786758	 0.4334636894	-0.396263
C	-0.062824297	 0.1348660193	 0.0443434269	 0.137995
C	 0.8785345622	-0.360925928	 1.1362182851	-0.385884
O	-0.9896445807	-0.9382923334	-0.1882649746	-0.250906
C	-1.6084166098	-0.9915206912	-1.4498942869	-0.010101
C	-1.9943686913	-2.4471797702	-1.7267319427	-0.392199
C	-2.8129041902	-0.1266569999	-1.5276379403	 0.274003
N	-3.7596073054	 0.532396874	-1.6004424215	-0.331771
H	-0.0255444845	 2.2132839899	 0.6402870718	 0.115185
H	-1.4257239092	 1.7987699142	-0.3583871017	 0.139891
H	-1.3695767747	 1.2830067554	 1.3344440428	 0.129273
H	 0.5124577548	 0.2967570561	-0.8818952874	 0.07165
H	 0.3204719009	-0.5552921863	 2.0573706807	 0.129533
H	 1.3700694282	-1.2879849888	 0.8302986142	 0.120368
H	 1.6453249755	 0.3893125489	 1.3496256027	 0.117954
H	-0.9149892102	-0.6418951916	-2.2314075562	 0.113624
H	-1.0904791556	-3.0601269855	-1.7276167876	 0.132153
H	-2.6662175683	-2.8090082884	-0.9452271368	 0.148995
H	-2.4952098387	-2.5372702304	-2.6938105381	 0.1365
1.5733	92.7476	177.4297	196.7273	207.7151	221.3819	247.4225	287.9084	323.9352	368.6707	451.784	477.0681	573.4486	611.8834	806.7241	820.3699	899.7893	928.8347	943.203	989.7635	1081.3256	1115.1979	1141.5954	1147.6566	1172.8469	1206.495	1325.0602	1349.9718	1363.7989	1400.0908	1403.4928	1407.7357	1419.3786	1479.795	1481.3815	1484.3831	1494.8261	1495.9596	1509.0024	2349.7306	2968.2499	2980.7126	3041.5103	3046.2507	3056.5819	3111.2697	3119.7331	3124.8887	3132.9311	3138.9752	3143.3295
CC(C)OC(C)C#N	CC(C)O[C@@H](C)C#N	
InChI=1S/C6H11NO/c1-5(2)8-6(3)4-7/h5-6H,1-3H3	InChI=1S/C6H11NO/c1-5(2)8-6(3)4-7/h5-6H,1-3H3/t6-/m0/s1
