22
gdb 109764	2.4571	1.06706	0.86696	1.2121	78.88	-0.2253	0.0639	0.2892	1419.1038	0.191395	-441.437984	-441.427033	-441.426089	-441.474224	39.487	
C	 0.4283548508	 0.7277284407	-1.0308756372	-0.404432
C	-0.0458498688	 0.2701561922	 0.3498636797	 0.118734
O	-0.1690601737	 1.3729696881	 1.2499036388	-0.435069
C	-1.3617077385	-0.4841646447	 0.2585203717	-0.041305
C	-1.4725627458	-1.9725008601	 0.1225164165	-0.050769
C	-0.2790035351	-2.9008023481	 0.0514585782	-0.082492
O	-0.6250212811	-4.2294193548	 0.4176444075	-0.421179
N	-1.9032131013	-1.2876591581	 1.3492109541	-0.109698
C	-1.1614562433	-1.4207593106	 2.5968912909	-0.324897
H	 1.3364276821	 1.3286550217	-0.9351894391	 0.126864
H	 0.638223705	-0.1265643323	-1.6824382187	 0.122265
H	-0.3378967845	 1.3409870662	-1.5208897523	 0.110128
H	 0.7296043089	-0.3535300631	 0.8012315818	 0.086736
H	-0.8806163951	 1.9371226893	 0.9256342071	 0.277848
H	-2.1278478094	 0.110633705	-0.2482810562	 0.077916
H	-2.3102574685	-2.3603395693	-0.4577119531	 0.096244
H	 0.0641171247	-2.964002505	-0.9872435684	 0.116137
H	 0.5676556118	-2.5340150845	 0.6465192107	 0.091198
H	-0.9742212269	-4.2040156459	 1.3144569857	 0.286586
H	-0.0856506595	-1.6230224321	 2.5003980791	 0.104256
H	-1.2672744546	-0.4914753991	 3.1618762362	 0.141934
H	-1.6078108771	-2.2320546254	 3.1829397768	 0.112994
56.7825	76.6619	112.1896	139.5841	192.698	227.3825	243.6347	275.9715	284.9809	308.4162	339.1059	366.4077	435.4993	513.007	552.7087	591.4906	744.8042	806.0169	839.6216	907.6845	994.6227	1002.0022	1064.9919	1066.266	1088.3467	1097.7318	1116.6307	1144.4346	1158.8473	1175.6465	1198.6311	1228.5979	1261.8236	1324.9055	1343.7726	1350.4291	1394.9494	1403.3665	1417.5318	1420.1153	1447.7379	1461.1979	1482.7281	1488.9052	1495.3097	1506.1745	1512.6982	2996.4175	3015.6154	3027.5732	3048.2812	3061.7375	3064.6612	3082.092	3101.7883	3105.0716	3116.5537	3121.498	3792.4649	3815.7929
CC(O)C1C(CO)N1C	C[C@@H](O)[C@H]1[C@@H](CO)N1C	
InChI=1S/C6H13NO2/c1-4(9)6-5(3-8)7(6)2/h4-6,8-9H,3H2,1-2H3	InChI=1S/C6H13NO2/c1-4(9)6-5(3-8)7(6)2/h4-6,8-9H,3H2,1-2H3/t4-,5-,6+,7?/m1/s1
