22
gdb 118649	1.81007	0.97713	0.66734	3.5026	84.54	-0.2817	0.0217	0.3034	1753.1837	0.191666	-404.366743	-404.355608	-404.354664	-404.404168	38.536	
C	-0.0556338722	 1.6419491874	 0.0451261338	-0.386521
C	 0.0015229555	 0.1135122808	-0.0155827256	-0.176519
C	-1.3895648408	-0.5260033543	 0.0329014437	-0.186512
C	-1.3335959129	-2.0590051848	-0.0028773774	-0.025251
O	-0.6672365951	-2.5094617437	 1.1520396745	-0.241956
C	-0.3316060539	-3.8937498735	 1.1448272416	-0.051119
C	 0.410332938	-4.2060907445	 2.4316253493	-0.386562
C	-2.6987856492	-2.6327154055	-0.0912007742	 0.270211
N	-3.7610760309	-3.0833276683	-0.1553384	-0.327711
H	 0.9480628409	 2.0758132008	 0.0083666017	 0.1167
H	-0.6279347109	 2.0539531274	-0.7934520982	 0.11669
H	-0.5324898472	 1.9836258968	 0.9702464577	 0.12021
H	 0.5110452907	-0.1995095137	-0.9368138206	 0.0947
H	 0.5980308474	-0.2742519903	 0.8159305271	 0.120048
H	-1.9156511639	-0.2280590575	 0.9468489396	 0.124328
H	-1.9977283737	-0.184413679	-0.8124811395	 0.116156
H	-0.791383535	-2.3838233817	-0.9077302345	 0.108279
H	-1.2447383748	-4.5012361816	 1.0636886494	 0.11695
H	 0.2943821765	-4.1168330304	 0.2657954603	 0.09322
H	 1.3207444463	-3.6051011188	 2.5090544441	 0.1277
H	-0.2196257739	-3.9912340229	 3.2990405843	 0.134644
H	 0.688327189	-5.2636556327	 2.4580041527	 0.122314
64.0687	69.5319	85.2932	92.9648	120.4946	181.4754	228.8772	248.0323	258.3628	297.6513	323.9836	403.0915	454.4745	573.4924	617.1871	746.0391	823.4509	831.7436	898.739	914.2772	928.0475	996.3938	1044.9181	1068.9754	1112.1772	1124.6775	1151.0712	1181.5702	1188.9082	1260.5112	1289.7994	1301.6981	1328.9813	1349.3882	1358.5617	1398.1522	1404.1195	1414.0139	1437.1197	1474.6245	1483.7326	1493.4545	1499.7318	1500.2857	1510.0378	1527.3699	2351.2288	2959.2857	2975.9029	3019.7125	3020.4606	3031.3718	3042.6416	3047.7463	3073.051	3088.1468	3104.8756	3107.0406	3122.7686	3125.8769
CCCC(OCC)C#N	CCC[C@@H](OCC)C#N	
InChI=1S/C7H13NO/c1-3-5-7(6-8)9-4-2/h7H,3-5H2,1-2H3	InChI=1S/C7H13NO/c1-3-5-7(6-8)9-4-2/h7H,3-5H2,1-2H3/t7-/m1/s1
