14
gdb 8792	3.59741	1.35038	1.10117	1.9917	59.47	-0.2469	-0.1131	0.1337	1073.1595	0.102728	-419.701754	-419.692719	-419.691774	-419.736714	29.508	
C	-0.4666059635	 1.3994510179	-0.2420723567	-0.386392
C	-0.2325761735	-0.1067370023	-0.3159781983	-0.295262
C	 0.840772178	-0.4992706912	-1.3003305405	 0.312277
O	 1.4395053447	 0.2584279282	-2.0252985384	-0.27775
C	 1.2683153338	-1.977840874	-1.3116264772	 0.22185
O	 1.4304762571	-2.6110096227	-0.2960277943	-0.261597
C	 1.5270424759	-2.6484574459	-2.6680121738	 0.090727
O	 1.0164384411	-2.2781520205	-3.6890269633	-0.201541
H	 0.4381709266	 1.9192333697	 0.0834363803	 0.136074
H	-0.7401759172	 1.8008602148	-1.2210807305	 0.139312
H	-1.2690932625	 1.6279658187	 0.4637381803	 0.120365
H	 0.0441321509	-0.5374339427	 0.6547606046	 0.150851
H	-1.1476757168	-0.6434794502	-0.6084459524	 0.13696
H	 2.1547947254	-3.5609117098	-2.5845918597	 0.114127
41.3171	73.387	105.0786	144.8123	179.9224	197.5009	278.3103	320.5388	467.0076	515.0084	576.2182	646.685	732.4701	813.6462	940.8252	994.0397	1031.243	1084.0457	1108.896	1240.7703	1269.7315	1368.7172	1378.5293	1416.2157	1444.1735	1493.7587	1497.9326	1794.4985	1800.3438	1832.304	2920.6268	3014.0531	3054.2809	3058.4734	3127.7285	3129.3762
CCC(=O)C(=O)C=O	CCC(=O)C(=O)C=O	
InChI=1S/C5H6O3/c1-2-4(7)5(8)3-6/h3H,2H2,1H3	InChI=1S/C5H6O3/c1-2-4(7)5(8)3-6/h3H,2H2,1H3
