24
gdb 101853	5.98876	0.52586	0.50319	2.7902	92.17	-0.2451	0.028	0.2731	2295.6144	0.214376	-405.55478	-405.543142	-405.542197	-405.593007	40.446	
C	-0.0066398074	 1.5172079952	 0.1255642083	-0.391606
C	 0.0417825765	-0.0076003415	-0.0139568012	-0.172662
C	 0.7197712961	-0.5060775158	-1.3033716003	 0.024934
C	 2.2020126336	-0.1203075293	-1.3913011157	-0.395963
C	 0.5439947557	-2.0196243168	-1.4161679959	-0.080592
O	 1.0406280466	-2.4472164369	-2.6868888662	-0.208867
C	 1.22451605	-3.7717590259	-2.8453803652	 0.133765
N	 1.5690636241	-4.2461624694	-3.9580580636	-0.207244
C	 1.7712773065	-5.6770440842	-4.0361751024	-0.313806
H	 0.9946140339	 1.9527026225	 0.1910092003	 0.122022
H	-0.5144862703	 1.9758149176	-0.7301768615	 0.117139
H	-0.5508679552	 1.8074731543	 1.0294536984	 0.114255
H	 0.5608264588	-0.436986981	 0.8544434362	 0.094349
H	-0.9835298189	-0.3986942507	 0.0208504738	 0.093677
H	 0.1947270296	-0.0628269908	-2.160939418	 0.088466
H	 2.7542314933	-0.4950861911	-0.5202565149	 0.106585
H	 2.6562229446	-0.5454996214	-2.2891205014	 0.139826
H	 2.3324823919	 0.9642756486	-1.4278477539	 0.116534
H	 1.091316352	-2.5295914627	-0.6093297663	 0.10036
H	-0.5173265412	-2.2904132243	-1.3297401208	 0.103056
H	 1.0580845827	-4.3679602802	-1.9332743214	 0.069466
H	 1.5862795445	-6.2102492746	-3.0885672846	 0.093383
H	 1.1122420973	-6.1013463279	-4.8024638327	 0.126401
H	 2.7997882154	-5.8878089737	-4.3516098212	 0.12652
28.3252	63.0894	80.6808	96.2369	150.7967	208.0835	216.2064	227.7319	261.7627	273.5475	308.9464	331.2816	404.1996	423.0625	523.9439	617.8836	778.5551	832.2585	919.0135	932.1163	978.7526	983.2874	1019.6949	1022.7223	1056.8171	1079.6959	1141.5051	1154.3322	1162.1195	1174.8635	1191.6043	1252.4586	1274.7476	1297.7341	1315.0395	1378.4304	1382.1323	1392.9051	1408.6991	1415.2578	1432.8103	1451.2733	1481.0315	1484.7795	1493.9742	1500.5759	1505.2848	1507.0835	1512.6326	1515.1932	1779.4423	2962.2304	2977.1028	2992.6124	3005.9151	3014.1397	3030.2357	3032.6114	3036.6411	3047.5916	3055.214	3074.5847	3101.6578	3102.367	3112.5751	3129.9123
CCC(C)COC=NC	CC[C@@H](C)COC=NC	
InChI=1S/C7H15NO/c1-4-7(2)5-9-6-8-3/h6-7H,4-5H2,1-3H3	InChI=1S/C7H15NO/c1-4-7(2)5-9-6-8-3/h6-7H,4-5H2,1-3H3/t7-/m1/s1
