19
gdb 117303	4.29728	0.72884	0.64973	4.3218	74.52	-0.2492	0.0179	0.2671	1730.8922	0.157801	-456.39391	-456.383456	-456.382511	-456.430886	36.287	
C	 0.7821877714	 1.4522234417	 0.5910264499	-0.389962
C	 0.1333784082	 0.1538139564	 0.1490011521	-0.028191
O	 0.8646072772	-0.3295216604	-0.988951446	-0.252892
C	 0.4383804791	-1.4967043621	-1.5200739954	 0.404804
N	-0.5593496682	-2.1257885716	-1.0668135203	-0.526969
C	 1.3645463652	-1.882990532	-2.6672162657	-0.413782
C	 0.6814327551	-2.7136461204	-3.7496628887	 0.413672
N	 0.9329825951	-2.3129631014	-5.0257181876	-0.51316
O	-0.0140635774	-3.6813317786	-3.4973684386	-0.358472
H	 1.82809705	 1.2925751606	 0.8689772473	 0.124618
H	 0.7499132249	 2.1982490937	-0.2084494467	 0.123313
H	 0.2529829714	 1.8557231002	 1.4594559608	 0.120404
H	 0.1541095662	-0.6070841072	 0.9362128762	 0.119364
H	-0.9154405915	 0.2923045927	-0.1334315404	 0.119631
H	-0.7027597059	-2.9747424696	-1.6150749253	 0.249905
H	 1.8282332798	-0.9789916505	-3.0687813903	 0.117886
H	 2.1736670108	-2.4982745926	-2.2543211633	 0.16079
H	 1.455478104	-1.482559908	-5.239657254	 0.263355
H	 0.5006262746	-2.8243454206	-5.7780663441	 0.265684
36.5646	50.0456	89.2184	128.6951	158.6599	188.5309	239.1148	260.5577	346.8298	386.02	411.7339	508.0429	567.2462	589.4583	669.8541	759.5225	807.4776	855.9629	906.5763	928.6569	956.8049	975.1863	1051.666	1090.2419	1130.9135	1139.3563	1183.9892	1196.5766	1267.6097	1287.7579	1366.7975	1390.3298	1408.9068	1435.0966	1457.0961	1486.2804	1496.9541	1521.4062	1618.7576	1729.3122	1794.8987	3043.9529	3044.4501	3048.2479	3083.1477	3103.7547	3118.6099	3121.5214	3481.1659	3603.9814	3743.1173
CCOC(=N)CC(N)=O	CCO[C]([NH])CC(=O)N	
InChI=1S/C5H10N2O2/c1-2-9-5(7)3-4(6)8/h7H,2-3H2,1H3,(H2,6,8)	InChI=1S/C5H10N2O2/c1-2-9-5(7)3-4(6)8/h7H,2-3H2,1H3,(H2,6,8)
