22
gdb 88475	2.88161	1.19155	1.16283	2.3016	82.67	-0.2131	0.0652	0.2783	1220.7401	0.193227	-404.300321	-404.290901	-404.289957	-404.334242	36.238	
C	-0.7738408057	 0.8459371832	 0.2885894452	-0.322025
N	 0.1361691013	-0.2940125647	 0.2355394021	-0.101372
C	 1.4007720313	-0.1390164805	-0.4772444184	-0.262575
C	 1.380367656	-0.3075491583	 1.0031047818	-0.00341
C	 1.8457881949	 0.787479582	 1.9483151742	 0.377725
O	 1.8785726988	 2.0178516304	 1.2552533087	-0.476507
C	 1.1000868291	 0.7521537618	 3.3240057831	-0.273949
C	 2.2729002428	-0.0833805217	 3.903417915	-0.215412
C	 3.1479962381	 0.3649694022	 2.7031783282	-0.268238
H	-0.2760876487	 1.8199396184	 0.3607497707	 0.124274
H	-1.3927025869	 0.8291082959	-0.6147686884	 0.114759
H	-1.4425376783	 0.7299354442	 1.1485202928	 0.11201
H	 1.6890726148	-0.9628973879	-1.1262606449	 0.103771
H	 1.659840154	 0.8519783104	-0.8416719378	 0.125
H	 1.6006651212	-1.296708446	 1.4042936912	 0.084373
H	 2.0953786424	 2.7093773054	 1.888766518	 0.274834
H	 1.0590424783	 1.7540811742	 3.7656577652	 0.08824
H	 0.0962917824	 0.3222991601	 3.3435953834	 0.111264
H	 2.6255392953	 0.1799720214	 4.9022711604	 0.100793
H	 2.0628534746	-1.1555235518	 3.8856748715	 0.112216
H	 3.7952026204	-0.3725254364	 2.221928954	 0.104268
H	 3.7464766639	 1.2499586679	 2.942445874	 0.089962
66.5544	138.4673	159.4373	202.7647	241.2359	259.6217	284.8713	339.9089	385.6991	393.4064	475.1939	548.8815	663.5452	711.9796	768.4488	785.0454	815.9969	888.9967	920.8347	933.0416	969.9581	1001.3886	1030.5362	1040.7918	1045.819	1095.3477	1114.0715	1130.6028	1147.6473	1169.0533	1196.3378	1208.5723	1210.9458	1218.604	1244.0482	1271.4597	1283.6751	1340.1815	1369.0307	1441.467	1447.5336	1467.5431	1484.405	1490.3679	1503.7549	1509.2203	1512.4104	3017.8667	3041.7807	3049.5553	3069.8033	3085.9456	3090.5487	3096.3204	3099.7768	3103.213	3108.0583	3125.1167	3186.5058	3813.5773
CN1CC1C1(O)CCC1	CN1C[C@H]1C1(O)CCC1	
InChI=1S/C7H13NO/c1-8-5-6(8)7(9)3-2-4-7/h6,9H,2-5H2,1H3	InChI=1S/C7H13NO/c1-8-5-6(8)7(9)3-2-4-7/h6,9H,2-5H2,1H3/t6-,8?/m0/s1
