16
gdb 30476	3.80867	1.20633	0.92136	3.2441	79.89	-0.2302	-0.0331	0.1971	1229.0846	0.125716	-434.100659	-434.092293	-434.091349	-434.134772	30.136	
C	-0.0015265437	 1.4861226528	-0.3075096448	-0.330328
N	 0.0299162061	 0.0787689559	 0.0346664286	-0.351334
C	-1.0215196819	-0.5482577712	 0.3247960982	 0.51166
N	-0.9992521548	-1.8879125017	 0.6515103281	-0.398291
C	-2.0768882744	-2.6980898868	 0.9900505206	 0.376557
N	-1.8509706531	-3.9266263766	 1.2631042932	-0.541992
C	-3.3494488678	-1.9819196882	 0.9782652072	-0.237547
C	-3.3728921656	-0.6855077134	 0.6623611313	 0.077416
O	-2.2754377375	 0.0445485157	 0.3409824161	-0.236423
H	 0.4232894718	 1.6235989875	-1.3087354571	 0.1268
H	-0.9995623297	 1.9377536301	-0.2902004583	 0.119782
H	 0.6413596869	 2.0405811675	 0.3861083058	 0.126799
H	-0.0866803771	-2.3199609542	 0.6398882919	 0.274932
H	-2.7210622026	-4.4028066932	 1.4926625548	 0.218865
H	-4.2624964736	-2.505464183	 1.2250225012	 0.119599
H	-4.2663262028	-0.073781651	 0.6272947634	 0.143505
37.9954	75.7251	138.9505	218.3182	226.1724	371.2151	391.2504	486.1964	523.7052	628.3451	629.4128	698.6194	718.337	753.1139	784.9253	844.7747	889.0801	955.8467	957.4054	1053.0236	1084.9689	1137.9212	1149.2215	1166.2082	1273.4266	1290.2548	1399.6051	1421.0985	1446.5422	1468.5768	1495.7377	1504.0473	1664.7889	1734.4538	1808.2931	3015.9976	3070.4803	3085.3563	3211.0224	3237.6027	3508.0635	3627.0464	37.9922	75.7247	138.9505	218.3181	226.1721	371.215	391.2505	486.1964	523.7052	628.345	629.4129	698.6192	718.3369	753.1138	784.9254	844.7747	889.0802	955.8461	957.4052	1053.0235	1084.969	1137.9214	1149.2217	1166.2083	1273.4267	1290.2546	1399.6049	1421.0984	1446.5423	1468.5768	1495.7378	1504.0475	1664.7888	1734.4538	1808.2929	3015.9976	3070.4803	3085.3562	3211.0224	3237.6027	3508.0633	3627.0463
CN=C1NC(=N)C=CO1	CN=C1NC(=CCO1)[NH]	
InChI=1S/C5H7N3O/c1-7-5-8-4(6)2-3-9-5/h2-3H,1H3,(H2,6,7,8)	InChI=1S/C5H8N3O/c1-7-5-8-4(6)2-3-9-5/h2,6H,3H2,1H3,(H,7,8)
