18
gdb 37529	3.61828	1.95031	1.68217	1.5434	72.49	-0.2283	0.0683	0.2967	844.5336	0.152192	-401.902304	-401.896601	-401.895657	-401.932124	24.886	
C	-0.0177490245	 1.5391251749	-0.0705547303	-0.253216
C	 1.4630752103	 1.9885135404	 0.1199324706	-0.168631
N	 2.2358548217	 0.7529856381	 0.345578887	-0.097686
C	 2.2999442092	-0.1316696355	-0.832780812	-0.064443
C	 2.0366137119	-1.3762720036	 0.0272538872	 0.086929
O	 1.0888324401	-1.9326520819	-0.8887429678	-0.295212
C	 0.8149918708	-0.5543567069	-1.2558895407	 0.0574
C	 0.0860692621	 0.0083387582	-0.0209312346	-0.017096
C	 1.3064480047	-0.2821145783	 0.9064179144	-0.072167
H	-0.6546368822	 1.9155798934	 0.7354457287	 0.103901
H	-0.450685612	 1.8873507411	-1.0137318145	 0.101678
H	 1.8691457029	 2.5168781769	-0.7479105982	 0.10632
H	 1.5738467665	 2.6465233843	 0.9871492721	 0.106965
H	 3.0779896672	 0.0065011148	-1.5821637411	 0.081163
H	 2.7597843767	-2.0675367956	 0.4522223398	 0.093965
H	 0.3852524297	-0.4327184685	-2.2492614538	 0.079476
H	-0.8396365131	-0.5229103368	 0.2004865628	 0.078246
H	 1.1762740682	-0.330105165	 1.9866711804	 0.072407
185.4546	320.2527	411.7569	529.808	643.2284	651.1716	752.7192	781.5371	787.863	815.7985	856.521	859.2472	867.1073	894.3217	919.0434	948.8857	965.5533	978.8891	991.4995	1017.6514	1048.703	1090.3235	1108.0547	1115.7824	1155.6386	1167.7101	1183.3756	1212.611	1215.5751	1242.7628	1267.0001	1273.1863	1282.1226	1304.9342	1322.1771	1344.6741	1347.2969	1491.3237	1507.8219	3045.0543	3054.1632	3079.0267	3100.8069	3116.2583	3125.5254	3128.563	3135.8391	3159.8394
C1CN2C3C4OC3C1C24	C1CN2[C@H]3[C@@H]4O[C@H]3[C@H]1[C@H]24	
InChI=1S/C7H9NO/c1-2-8-4-3(1)6-5(8)7(4)9-6/h3-7H,1-2H2	InChI=1S/C7H9NO/c1-2-8-4-3(1)6-5(8)7(4)9-6/h3-7H,1-2H2/t3-,4+,5-,6+,7-/m1/s1
