18
gdb 126751	3.19287	1.29796	1.00522	2.4429	74.71	-0.2137	0.0184	0.2322	1211.771	0.148523	-435.317461	-435.308351	-435.307407	-435.352138	32.042	
C	 0.0294037503	 1.5620828314	 0.0210207486	-0.37913
C	 0.0255216456	 0.0328713027	-0.0085678417	-0.155977
N	 0.7201915299	-0.5537080607	 1.1255549681	-0.118913
C	 2.0138739394	-0.9921758002	 1.2185602724	 0.040883
N	 2.3098586121	-1.4362917299	 2.4013326828	-0.261229
N	 1.1480015997	-1.2731649929	 3.1229669108	-0.080407
C	 1.0596000939	-1.6578279567	 4.5092741715	-0.328883
C	 0.1238625695	-0.725608554	 2.3811791721	 0.485844
O	-1.0173628179	-0.4530815722	 2.7072332281	-0.456606
H	 1.0498164751	 1.9562814177	-0.0082111209	 0.121931
H	-0.5166406615	 1.9562058234	-0.8413247941	 0.123222
H	-0.4582658396	 1.9201049299	 0.9311640655	 0.153496
H	-1.0023223317	-0.3395724767	 0.0235196929	 0.14537
H	 0.4937535803	-0.3467786964	-0.9218257159	 0.11662
H	 2.7047474791	-0.9753486719	 0.389691678	 0.147424
H	 1.7782499674	-1.0971645988	 5.1143880702	 0.139941
H	 0.0445646758	-1.4284684845	 4.8380175145	 0.166255
H	 1.2520114925	-2.7282328001	 4.6284666972	 0.140158
46.324	87.1029	120.4783	173.1123	207.9537	255.6402	284.158	302.3759	404.7671	550.0193	596.3222	639.41	748.9597	770.2065	781.1608	826.4925	832.3356	963.8043	1007.7181	1058.4155	1097.1937	1115.0164	1160.2114	1238.482	1252.456	1287.6915	1364.0519	1393.3041	1413.2897	1413.6646	1437.906	1450.2256	1478.1015	1484.0702	1492.5517	1506.1051	1516.9157	1609.0759	1813.0478	3042.2849	3044.1794	3057.3835	3100.98	3104.4363	3118.5647	3134.3324	3151.0908	3260.652
CCN1C=NN(C)C1=O	CCn1cnn(C)c1=O	
InChI=1S/C5H9N3O/c1-3-8-4-6-7(2)5(8)9/h4H,3H2,1-2H3	InChI=1S/C5H9N3O/c1-3-8-4-6-7(2)5(8)9/h4H,3H2,1-2H3
