20
gdb 120211	4.60929	0.94325	0.92532	1.8615	81.04	-0.2146	0.0066	0.2212	1368.2269	0.171612	-403.086821	-403.078522	-403.077577	-403.120392	31.764	
C	-0.0509237154	 1.4649296206	 0.0424634503	-0.385051
C	 0.2561894244	-0.0202360356	-0.0378374337	-0.046668
O	 0.4588624709	-0.5065405865	 1.2790134503	-0.256646
C	 0.6613668835	-1.8738058982	 1.3511301635	 0.220085
C	 2.1557689676	-2.4273467546	 1.227447495	-0.109659
N	 2.3352764569	-1.8856689888	 2.6147681307	-0.288526
C	 0.9381967103	-2.399594923	 2.8052595718	-0.101056
C	 1.045971606	-3.9011580611	 2.4995270287	-0.099217
C	 1.8651288147	-3.9162880023	 1.4387977157	-0.094379
H	 0.7789633699	 2.0016180285	 0.5101681698	 0.132841
H	-0.2123310204	 1.8754201748	-0.9588377164	 0.112974
H	-0.9506184464	 1.6382155123	 0.6397001419	 0.126398
H	-0.5749360489	-0.5652464556	-0.5161103536	 0.086644
H	 1.1540797559	-0.1961100646	-0.6510481233	 0.091499
H	-0.0873626593	-2.4263299385	 0.7686628165	 0.064175
H	 2.855003273	-2.110239662	 0.4538790173	 0.067191
H	 3.0098182398	-2.4417052774	 3.1437188144	 0.198692
H	 0.3696409169	-2.0516514249	 3.6671228912	 0.071692
H	 0.5169833883	-4.7065230773	 2.9888608908	 0.105161
H	 2.1867132124	-4.7395453357	 0.8163897391	 0.103849
62.116	76.5106	134.8536	242.1816	314.5718	324.9864	372.5711	520.8576	547.4467	606.2459	708.7535	747.0052	819.1339	829.3193	857.6437	894.1856	906.6397	914.6748	928.8464	949.3715	968.162	1014.9022	1055.4169	1098.3802	1113.0929	1142.3841	1156.3238	1181.5755	1186.2814	1211.4336	1230.3823	1242.2899	1288.4857	1296.2467	1305.23	1335.5457	1374.5944	1404.5007	1442.0487	1483.0837	1499.7304	1526.5602	1601.3172	2962.1167	2994.4905	3024.1607	3045.7846	3119.4521	3120.4033	3124.5317	3127.1512	3219.6424	3246.6017	3428.7112
CCOC1C2NC1C=C2	CCO[C@H]1[C@H]2N[C@@H]1C=C2	
InChI=1S/C7H11NO/c1-2-9-7-5-3-4-6(7)8-5/h3-8H,2H2,1H3	InChI=1S/C7H11NO/c1-2-9-7-5-3-4-6(7)8-5/h3-8H,2H2,1H3/t5-,6+,7-
