17
gdb 73715	2.8117	1.95689	1.3589	1.4059	66.98	-0.253	0.0605	0.3135	927.6188	0.137211	-458.891779	-458.885032	-458.884088	-458.922562	27.93	
O	 0.1690773198	 1.3796318318	 0.1484533252	-0.492118
C	 0.0904812432	-0.0000228013	 0.0426500018	 0.439435
C	 1.071475881	-0.6581358912	 1.0028724724	-0.155599
O	 1.3948039971	-1.9714044902	 0.5863990435	-0.246043
C	 0.2574712395	-2.7172866207	 0.1840481073	-0.118935
C	-0.6606062986	-1.8896068415	-0.7062944734	-0.036883
C	-1.3271665604	-0.6318441291	-0.102241112	-0.035539
O	-1.4121086171	-0.0374616695	-1.4603691584	-0.345393
C	-0.0527769702	-0.6364516124	-1.3841896556	-0.024144
H	-0.4967150942	 1.7190632154	-0.4677554339	 0.289167
H	 2.0049884136	-0.0892426494	 1.0138930791	 0.128465
H	 0.6563440066	-0.649507111	 2.0245849405	 0.098
H	 0.6444755882	-3.5865883728	-0.3561077233	 0.118671
H	-0.3016022467	-3.0910675812	 1.0595793272	 0.094664
H	-1.3258813773	-2.4710757915	-1.3461227009	 0.093036
H	-2.2037262088	-0.5440142207	 0.5416779022	 0.093655
H	 0.5840110141	-0.5496813845	-2.2643877418	 0.099563
203.2383	212.6637	322.5442	350.311	405.7057	434.1568	499.1148	569.0374	618.7523	680.5666	770.4815	777.1129	788.1079	849.6021	881.4249	899.939	950.3677	1008.6145	1029.3156	1070.0401	1077.8355	1113.6714	1127.9698	1148.8017	1161.8196	1196.6931	1212.4834	1249.3291	1256.7471	1287.3617	1302.4088	1346.5525	1379.9462	1422.7755	1433.3884	1497.0098	1507.6792	2956.7219	2970.7423	3078.3339	3095.0381	3106.9388	3114.3996	3127.7903	3734.9366
OC12COCC3C1OC23	O[C@@]12COC[C@H]3[C@@H]1O[C@@H]23	
InChI=1S/C6H8O3/c7-6-2-8-1-3-4(6)9-5(3)6/h3-5,7H,1-2H2	InChI=1S/C6H8O3/c7-6-2-8-1-3-4(6)9-5(3)6/h3-5,7H,1-2H2/t3-,4-,5+,6-
