19
gdb 59911	4.3105	0.719	0.6845	2.4584	77.17	-0.2639	0.0064	0.2703	1710.0015	0.157489	-456.399001	-456.388635	-456.387691	-456.435906	35.974	
C	-0.1244773525	 1.4926226523	-0.0368555856	-0.398189
C	 0.0164554044	-0.0246801776	 0.1009343639	 0.056884
C	 0.7280431257	-0.4293582606	 1.3983637843	-0.380651
N	-1.303008639	-0.6463380974	 0.0002798055	-0.369803
C	-1.4999192312	-1.8426794066	-0.5915095877	 0.548483
O	-0.6738109808	-2.5147269657	-1.1629009181	-0.406816
O	-2.835536124	-2.18952359	-0.4528211371	-0.235487
C	-3.2316225069	-3.3748763297	-1.0060125439	 0.119931
N	-4.4399407464	-3.7090424367	-0.8907434353	-0.433633
H	 0.8581273304	 1.9709089135	-0.0003712767	 0.127492
H	-0.6048894577	 1.7594383897	-0.9820858872	 0.128692
H	-0.7237983914	 1.9078348439	 0.7825738619	 0.115869
H	 0.5865293206	-0.4157118177	-0.7464825997	 0.122712
H	 0.1727764091	-0.0792884088	 2.2758263792	 0.112706
H	 0.821905842	-1.5166699957	 1.4598259539	 0.135648
H	 1.732066961	 0.0047407228	 1.4375659022	 0.120092
H	-2.0846272569	-0.2399958212	 0.490574048	 0.258127
H	-2.4135685828	-3.9021299605	-1.4978911893	 0.142318
H	-4.5895156633	-4.6075585638	-1.3470740085	 0.235627
27.6457	54.0247	119.6949	128.3603	136.349	230.0133	252.5033	271.7895	310.8534	417.3141	435.7261	466.5385	493.5616	545.8226	771.6604	780.6843	847.3876	854.3563	931.8073	946.4128	957.9712	994.7461	1070.8952	1106.3903	1149.7895	1185.4687	1200.6506	1238.5286	1282.8073	1351.1797	1382.0088	1390.5999	1400.0953	1420.1988	1485.1302	1488.336	1496.2922	1507.6404	1537.1117	1748.7973	1834.1633	3030.8945	3035.2596	3077.3393	3099.4833	3110.9955	3121.87	3124.4837	3135.9261	3508.7908	3633.4791
CC(C)NC(=O)OC=N	CC(C)NC(=O)O[CH][NH]	
InChI=1S/C5H10N2O2/c1-4(2)7-5(8)9-3-6/h3-4,6H,1-2H3,(H,7,8)	InChI=1S/C5H10N2O2/c1-4(2)7-5(8)9-3-6/h3-4,6H,1-2H3,(H,7,8)
