18
gdb 18371	3.16909	2.20057	1.59163	2.3533	66.31	-0.2419	0.0674	0.3094	841.1211	0.155744	-384.932509	-384.925449	-384.924505	-384.963661	27.514	
O	-0.0003528164	 1.4067609816	-0.0643231799	-0.439331
C	 0.038035055	-0.0040920684	 0.074061078	 0.127905
C	 0.58612173	-0.5116303282	 1.426143403	-0.258556
C	-0.0159122373	-1.9210105609	 1.558750438	-0.225546
C	-1.4239959668	-1.7643655372	 0.9825044127	 0.130012
O	-2.3017491163	-1.0346207857	 1.872986161	-0.301928
C	-2.4105088553	 0.0670863659	 0.9415088027	-0.078232
C	-1.3861615316	-0.5736372575	-0.0126000006	-0.073041
H	 0.8958454707	 1.7417549818	 0.0371606808	 0.284049
H	 0.6350178643	-0.4481073309	-0.7398956749	 0.064333
H	 1.6793822132	-0.4986635401	 1.4715876232	 0.087464
H	 0.2076811445	 0.1360448391	 2.223837482	 0.120495
H	 0.5442992277	-2.6449272335	 0.9534240648	 0.095812
H	-0.03816641	-2.2921657342	 2.5870978296	 0.111956
H	-1.88068347	-2.7053501673	 0.6565163466	 0.066806
H	-3.4251019023	 0.1508310101	 0.5329935688	 0.096433
H	-2.1190053643	 1.0238310167	 1.3859503028	 0.115984
H	-1.7222209952	-0.7326762913	-1.0368474985	 0.075384
107.3175	191.0592	246.7987	261.8947	359.2935	389.2504	522.3149	575.3784	620.9566	791.9493	816.1077	847.8153	892.842	908.5209	942.2095	960.6612	997.8599	1025.5739	1036.8673	1083.1201	1095.6502	1122.1477	1159.3807	1176.6149	1198.4623	1214.3407	1255.541	1278.7517	1301.1076	1320.5751	1336.1415	1346.0289	1364.0202	1382.4317	1427.3101	1471.58	1493.9365	1528.8902	2956.3147	3020.7546	3029.3447	3046.8076	3050.1175	3079.9372	3092.605	3101.7306	3113.2628	3822.0519
OC1CCC2OCC12	O[C@H]1CC[C@H]2OC[C@@H]12	
InChI=1S/C6H10O2/c7-5-1-2-6-4(5)3-8-6/h4-7H,1-3H2	InChI=1S/C6H10O2/c7-5-1-2-6-4(5)3-8-6/h4-7H,1-3H2/t4-,5-,6+/m0/s1
