17
gdb 67733	2.98183	1.90245	1.35597	1.2755	71.76	-0.227	-0.0008	0.2262	930.8608	0.135437	-421.760862	-421.753532	-421.752587	-421.791816	30.727	
O	-0.0811882094	 1.3951697527	 0.0678762913	-0.488684
C	 0.005027139	 0.0064276355	 0.048898274	 0.396959
C	 0.9136233456	-0.7179044152	 1.0401950169	-0.192318
C	 0.6987172887	-2.0054920636	 0.7760889185	-0.192318
C	-0.3267659801	-1.9716094477	-0.3553303826	 0.39696
O	-0.7577219787	-3.1576051517	-0.9419212626	-0.488684
C	-1.3362939246	-0.7919069089	-0.0350759037	-0.14127
C	-1.4336454222	-0.4836285076	-1.5501289986	-0.269527
C	 0.0642667453	-0.8007348152	-1.3143282842	-0.141271
H	 0.7780419001	 1.7554071559	-0.1754685928	 0.283073
H	 1.5549460755	-0.2452459223	 1.771308273	 0.106827
H	 1.1246610068	-2.8965490388	 1.2163350793	 0.106827
H	-1.2345162507	-3.6677700678	-0.2788504037	 0.283073
H	-2.1274798807	-0.7940080676	 0.7199770594	 0.06688
H	-1.9855170128	-1.2038044923	-2.1548909732	 0.103297
H	-1.673279993	 0.546838598	-1.8140709325	 0.103297
H	 0.8879621309	-0.8113778834	-2.0337011786	 0.06688
222.6848	266.886	287.2597	328.2603	333.753	376.5386	410.5505	490.8837	534.2229	592.6815	669.2157	689.5718	717.4344	746.1771	793.7343	840.6207	898.4663	909.0757	951.8237	990.6056	1010.0892	1042.3488	1061.301	1091.5771	1125.3636	1130.3009	1132.5748	1155.6333	1214.4378	1225.6063	1264.2202	1286.2574	1328.879	1355.6027	1375.4344	1497.185	1638.1603	3073.8852	3075.0437	3090.263	3149.0507	3215.1219	3242.9816	3808.9164	3809.2191
OC12C=CC3(O)C1CC23	O[C@@]12C=C[C@@]3(O)[C@@H]1C[C@@H]23	
InChI=1S/C7H8O2/c8-6-1-2-7(9)4(6)3-5(6)7/h1-2,4-5,8-9H,3H2	InChI=1S/C7H8O2/c8-6-1-2-7(9)4(6)3-5(6)7/h1-2,4-5,8-9H,3H2/t4-,5+,6+,7-
