19
gdb 33199	5.40968	0.73415	0.68136	1.9766	78.81	-0.227	0.0046	0.2316	1682.6061	0.160278	-419.229996	-419.221029	-419.220085	-419.265092	31.875	
C	-0.0397459998	 1.4938013531	 0.3167419829	-0.3907
C	-0.0336919916	-0.0042276973	 0.0298145851	-0.094048
N	-1.394074545	-0.5310175676	-0.0147543572	-0.299691
C	-1.4392449782	-1.9747808448	-0.2260719829	-0.24769
C	-2.838538826	-2.4866804505	-0.1765462274	 0.398475
N	-3.4765268206	-3.2022131621	-1.0465506264	-0.304036
C	-4.7296725053	-3.4084427583	-0.4797088167	-0.113714
C	-4.7799405138	-2.790804109	 0.7212227761	-0.040701
O	-3.5669536388	-2.1951596349	 0.9354885778	-0.179579
H	 0.9784754983	 1.8935340117	 0.3162293846	 0.116623
H	-0.6264625488	 2.0276271067	-0.4360096277	 0.13035
H	-0.4782727774	 1.7044776871	 1.2991678238	 0.112796
H	 0.4295972568	-0.1924749462	-0.9476049733	 0.105824
H	 0.597899878	-0.5253812215	 0.7752152225	 0.076354
H	-1.8700896061	-0.3113208673	 0.8552007918	 0.222048
H	-1.0464100989	-2.2113027897	-1.219235053	 0.140312
H	-0.8235929542	-2.5355981588	 0.5052855832	 0.098622
H	-5.4939126722	-3.9797513872	-0.9818593459	 0.12452
H	-5.5195775763	-2.6710962435	 1.4936064628	 0.144238
44.5455	77.9642	92.9931	126.813	243.1031	250.4681	321.7948	348.6244	467.6505	630.9017	697.6803	758.9104	776.387	780.8296	818.1944	865.2556	930.7035	932.8078	941.0865	998.2027	1041.7451	1104.736	1127.152	1136.1499	1154.1195	1163.1072	1177.1081	1246.8627	1266.8265	1307.4137	1347.3868	1383.9544	1402.4642	1422.9236	1482.8336	1495.7069	1499.8768	1504.8428	1525.1703	1558.0607	1630.0122	2901.2135	2914.1742	3030.1129	3036.2661	3087.7819	3100.8564	3121.4986	3265.1519	3301.1681	3512.1275
CCNCC1=NC=CO1	CCNCc1ncco1	
InChI=1S/C6H10N2O/c1-2-7-5-6-8-3-4-9-6/h3-4,7H,2,5H2,1H3	InChI=1S/C6H10N2O/c1-2-7-5-6-8-3-4-9-6/h3-4,7H,2,5H2,1H3
