20
gdb 113010	3.05155	1.02049	0.81987	4.1254	78.74	-0.2399	0.0248	0.2647	1422.7453	0.169226	-440.286952	-440.276994	-440.27605	-440.322917	34.646	
C	 0.2211439708	 1.5388042906	-0.1491980728	-0.242322
O	-0.32268092	 0.2577304666	-0.3898321703	-0.236067
C	 0.5421615705	-0.5904719735	-1.085438537	 0.103152
C	 1.677292647	-1.2728202263	-0.2570964079	-0.200591
N	 1.0552675455	-2.5609238871	-0.5588271799	-0.048722
C	 1.5954873504	-3.7972201579	-0.4873907982	 0.125764
O	 2.6637782415	-4.0535114574	 0.0312827148	-0.3328
C	-0.0722475967	-2.006617736	-1.3303747274	-0.006491
C	-1.4569204404	-2.2700478871	-0.7557049063	-0.386052
H	 1.1223555012	 1.4921621352	 0.4795163346	 0.115961
H	 0.4806827801	 2.0488341743	-1.0895840755	 0.110948
H	-0.5421557226	 2.1199558341	 0.3724230269	 0.134994
H	 0.9065972472	-0.10612874	-2.0016837741	 0.076934
H	 2.6959859037	-1.1774597904	-0.6450542774	 0.124008
H	 1.6692295219	-1.0171798958	 0.8078886539	 0.123012
H	 0.9433625772	-4.5639641557	-0.9550542374	 0.066082
H	-0.0391586814	-2.3009702174	-2.3866141118	 0.090031
H	-1.513389553	-1.958572299	 0.2888541533	 0.135289
H	-2.2115207581	-1.7149614547	-1.3206270059	 0.127475
H	-1.6964675747	-3.3358364924	-0.8204569617	 0.119394
38.4536	80.646	98.5977	162.6397	185.7145	203.1332	220.0257	306.871	324.7686	361.1354	448.401	483.7138	611.3282	737.7177	815.2953	863.771	917.135	995.4633	1017.2127	1033.1593	1043.9872	1096.1048	1138.519	1157.2472	1171.7137	1183.8057	1189.4901	1240.9768	1275.4731	1282.3225	1310.6958	1372.545	1382.8546	1404.4835	1410.9632	1444.17	1483.1842	1486.3629	1488.2329	1490.8029	1503.6022	1508.2494	1788.5845	2917.3012	2980.611	3005.2938	3027.3846	3031.1248	3041.1607	3047.4074	3091.4777	3115.1643	3124.0315	3141.0037
COC1CN(C=O)C1C	CO[C@H]1CN(C=O)[C@H]1C	
InChI=1S/C6H11NO2/c1-5-6(9-2)3-7(5)4-8/h4-6H,3H2,1-2H3	InChI=1S/C6H11NO2/c1-5-6(9-2)3-7(5)4-8/h4-6H,3H2,1-2H3/t5-,6-/m0/s1
