16
gdb 79326	3.68495	1.24116	1.17277	2.82	70.71	-0.2511	-0.0328	0.2182	1068.5324	0.124156	-437.822014	-437.814423	-437.813479	-437.854268	28.734	
O	-0.2257698313	 1.5152954778	-0.1243380308	-0.436004
C	-0.0212186331	 0.1271418677	-0.0892376356	 0.147568
C	-1.2843218199	-0.7234094307	-0.1030886135	-0.117998
N	-1.7265421182	-0.9844648256	-1.4880612135	-0.181326
C	-0.7371289509	-0.2392355317	-2.3528574364	-0.148902
C	 0.3918931097	-0.6302853035	-1.3895225908	-0.211124
C	-0.5713458194	-1.7712229024	-0.9236173229	 0.291772
C	-0.5472638122	-3.2254810554	-0.7792845702	 0.005809
O	 0.4479348001	-3.9069079609	-0.8501500099	-0.269027
H	 0.6203932051	 1.955608422	 0.0047610458	 0.289756
H	 0.6157234771	-0.1778553216	 0.7505651398	 0.090367
H	-2.0161061541	-0.8647366894	 0.6815371177	 0.11687
H	-0.6838094484	-0.7436753213	-3.3189102158	 0.119586
H	-0.9545374478	 0.8252436252	-2.4723719065	 0.12275
H	 1.4330844876	-0.7257549913	-1.6853541939	 0.09374
H	-1.5539932342	-3.6602976889	-0.5909904037	 0.086162
88.4455	145.3237	220.4495	261.5457	286.8508	318.4708	461.7478	526.7458	588.0998	676.3442	735.5172	766.2576	808.0899	848.012	941.8762	955.3607	987.1399	999.4505	1020.6698	1031.8534	1045.8739	1115.8987	1148.3536	1155.6699	1183.2368	1196.7527	1234.0485	1256.7919	1311.7854	1322.9457	1380.0268	1427.0442	1436.7862	1497.2982	1799.241	2889.485	3032.6733	3069.5663	3136.5245	3159.439	3209.9785	3820.484
OC1C2N3CC1C23C=O	O[C@H]1[C@H]2N3C[C@@H]1[C@@]23C=O	
InChI=1S/C6H7NO2/c8-2-6-3-1-7(6)5(6)4(3)9/h2-5,9H,1H2	InChI=1S/C6H7NO2/c8-2-6-3-1-7(6)5(6)4(3)9/h2-5,9H,1H2/t3-,4+,5+,6-,7?/m0/s1
