18
gdb 31756	5.30724	0.78353	0.72276	1.684	76.68	-0.2049	0.0281	0.2329	1546.3384	0.148544	-439.109895	-439.100759	-439.099815	-439.144655	33.284	
O	 0.7558676743	 0.2412770436	-0.6105108503	-0.418346
C	-0.0720288679	 0.2109637695	 0.552791577	-0.178796
C	-1.4744031112	-0.1987132023	 0.2449920108	 0.289258
C	-2.6949425635	 0.3018674998	 0.6443495378	-0.366353
C	-3.7150857655	-0.5027062499	 0.0559255637	 0.231802
C	-5.2004697589	-0.3547153688	 0.2137337874	-0.159429
O	-5.9273568527	-0.8121485178	-0.920441154	-0.41362
C	-3.0766496153	-1.4650285435	-0.6992227795	-0.173282
N	-1.7254969724	-1.2765219816	-0.569765045	-0.285206
H	 0.3549428068	 0.8637712628	-1.2272623227	 0.282596
H	 0.4201073616	-0.5083524212	 1.2191229009	 0.120442
H	-0.0860887936	 1.1773603702	 1.0763166027	 0.105048
H	-2.8425335566	 1.1497109209	 1.2978434147	 0.091606
H	-5.5737846078	-0.9591463152	 1.0496869308	 0.118078
H	-5.4440044171	 0.6932937131	 0.4530065645	 0.08798
H	-5.553419835	-0.3661594549	-1.6880517971	 0.276037
H	-3.4823059964	-2.2519340998	-1.3138834072	 0.127621
H	-1.0059962687	-1.7767492849	-1.0639213146	 0.264563
49.7264	63.1564	121.2771	201.9476	228.2292	313.8043	327.188	367.1617	389.7117	506.597	545.2903	624.7093	655.5674	706.5675	745.3567	762.1682	811.9044	969.4528	974.0438	985.6739	1003.3096	1046.9611	1060.2128	1131.1901	1160.5326	1200.0998	1204.2013	1259.7768	1313.3207	1353.293	1366.1538	1412.5635	1416.4042	1443.4516	1463.591	1502.4246	1509.0342	1537.3246	1624.7518	2970.3002	3006.0017	3040.1507	3046.8071	3234.6037	3270.3414	3671.8426	3801.1101	3803.7745
OCC1=CC(CO)=CN1	OCc1cc(CO)c[nH]1	
InChI=1S/C6H9NO2/c8-3-5-1-6(4-9)7-2-5/h1-2,7-9H,3-4H2	InChI=1S/C6H9NO2/c8-3-5-1-6(4-9)7-2-5/h1-2,7-9H,3-4H2
