15
gdb 24372	3.72364	1.65721	1.17014	0.4514	76.62	-0.1869	-0.0236	0.1633	984.3349	0.115202	-420.652733	-420.64622	-420.645276	-420.68358	25.963	
C	 0.0299547073	 1.4596596569	 0.1291191429	-0.144095
O	 1.342633717	 2.0673959137	 0.0839681275	-0.280319
C	 2.1506701622	 1.4757861107	-0.8250181972	 0.300095
C	 1.9828826896	 0.1806042473	-1.2363156112	 0.2187
O	 2.9936530012	-0.1675695793	-2.0846940897	-0.189817
C	 3.7964300798	 0.9233212227	-2.1918737354	-0.001702
C	 3.3403626488	 1.9645532513	-1.4341759236	-0.32719
C	 0.9866700777	-0.6747161872	-0.6642312353	-0.163255
C	 0.0557922665	-0.0527432401	 0.0815066886	-0.11952
H	-0.4227907875	 1.8272153155	 1.0523142044	 0.123038
H	-0.5546509207	 1.8599102554	-0.7188207343	 0.10739
H	 4.6372862091	 0.8186416203	-2.8573574944	 0.139267
H	 3.7858418535	 2.9411789222	-1.3368904506	 0.122569
H	 1.0408729651	-1.7519679587	-0.7705529261	 0.111005
H	-0.7059851995	-0.5963881708	 0.6274546543	 0.103833
151.5367	163.4569	341.835	401.7969	441.5187	522.3202	595.9696	613.53	660.7222	716.2136	720.0316	756.1131	817.3352	821.8623	913.7571	921.4425	958.0026	1009.289	1026.0447	1060.6997	1157.9643	1173.9803	1188.2791	1268.6703	1286.1277	1309.9973	1381.8324	1406.4683	1484.1619	1510.7771	1517.7324	1617.9675	1662.3601	2934.2061	3102.6934	3191.3847	3210.1496	3263.2978	3286.0944
C1OC2=C(OC=C2)C=C1	C1Oc2c(occ2)C=C1	
InChI=1S/C7H6O2/c1-2-6-7(8-4-1)3-5-9-6/h1-3,5H,4H2	InChI=1S/C7H6O2/c1-2-6-7(8-4-1)3-5-9-6/h1-3,5H,4H2
