21
gdb 68302	3.04727	1.22779	1.04526	1.6659	83.66	-0.231	0.0962	0.3273	1242.9865	0.181861	-387.016369	-387.007857	-387.006913	-387.049571	33.386	
C	-0.1637717175	 1.452251941	 0.0097471032	-0.512267
C	-0.0591327235	-0.0382353741	-0.0709814121	 0.395803
C	 0.6740247055	-0.9348219704	-1.1039265214	-0.264945
C	 0.2204150121	-1.8081640795	 0.0839644664	 0.030693
O	 0.6951554255	-0.7497533672	 1.0054213578	-0.350563
C	-1.1757759179	-1.1299418172	 0.0491181179	-0.01701
C	-2.0339644029	-1.1580568707	 1.277124807	-0.001209
C	-3.4458484744	-0.6218175316	 1.2262477246	-0.273803
C	-3.2085500634	-2.104098029	 1.3569954065	-0.276611
H	 0.8315907399	 1.9061122604	 0.0349929552	 0.132769
H	-0.700006396	 1.8415410187	-0.8616173671	 0.124729
H	-0.706804524	 1.7516981059	 0.9110924342	 0.135543
H	 0.2030194651	-1.0929687442	-2.0781313835	 0.089431
H	 1.7505455844	-0.7717078508	-1.167841564	 0.103274
H	 0.4843871263	-2.8369558327	 0.3298092147	 0.090236
H	-1.7571691084	-1.30128878	-0.8647007041	 0.059094
H	-1.483697573	-0.9905612559	 2.1960776267	 0.098175
H	-3.8209388057	-0.0793483371	 2.0870962085	 0.111366
H	-3.8155254091	-0.2517052068	 0.2750211674	 0.106312
H	-3.4183550623	-2.7276647829	 0.4936171058	 0.107108
H	-3.4195493107	-2.580518486	 2.3080103765	 0.111876
70.3389	136.1011	173.1679	204.1249	264.4876	312.3519	334.9923	457.9504	496.3688	636.2755	642.165	738.4858	761.0769	776.7933	839.7086	869.0845	886.3464	905.3466	909.637	936.9644	960.18	1021.8878	1033.9134	1041.4115	1058.7604	1077.5547	1105.4075	1132.3816	1154.0102	1166.3629	1193.1959	1199.4141	1206.4161	1218.5185	1235.2422	1249.5455	1313.0546	1336.1499	1409.6834	1443.9245	1471.1249	1477.0745	1487.6757	1494.0049	1507.6929	3036.1129	3039.0369	3059.1091	3112.2254	3115.649	3117.4103	3126.2417	3131.1114	3143.9054	3176.6409	3204.1157	3220.0385
CC12CC(O1)C2C1CC1	C[C@@]12C[C@@H](O1)[C@H]2C1CC1	
InChI=1S/C8H12O/c1-8-4-6(9-8)7(8)5-2-3-5/h5-7H,2-4H2,1H3	InChI=1S/C8H12O/c1-8-4-6(9-8)7(8)5-2-3-5/h5-7H,2-4H2,1H3/t6-,7-,8+/m1/s1
