23
gdb 121984	5.30616	0.50434	0.48235	3.3599	84.25	-0.2425	-0.0198	0.2227	2306.3749	0.202278	-425.443466	-425.432051	-425.431107	-425.481531	39.707	
C	 0.0805218485	 1.5778859211	 0.0961191585	-0.379846
C	 0.0323360835	 0.0509477012	-0.0051701335	-0.166619
C	-1.3928693685	-0.5089613242	 0.0501742382	-0.161776
C	-1.447878874	-2.0373400227	-0.039028707	-0.204603
C	-2.8740905545	-2.5982021685	-0.0535349868	 0.104576
O	-3.6425015741	-2.0809750299	-1.1384041408	-0.426266
C	-2.8883766889	-4.1393006623	-0.0604524071	-0.295222
C	-4.2866534227	-4.7118286077	 0.0434632529	 0.154636
O	-4.5938720814	-5.6239948273	 0.7686623373	-0.243701
H	 1.1088273003	 1.9495445775	 0.0493401023	 0.112005
H	-0.4811668538	 2.0462804092	-0.7196393674	 0.115088
H	-0.3567339526	 1.9256679285	 1.038610208	 0.115342
H	 0.511567865	-0.2697557579	-0.9400150374	 0.092281
H	 0.6285928953	-0.3893462577	 0.8052371482	 0.094585
H	-1.874798036	-0.1859655687	 0.9833985674	 0.09497
H	-1.9930507996	-0.081953372	-0.7617527665	 0.105475
H	-0.9290956445	-2.3782597426	-0.9489631785	 0.084069
H	-0.9020201299	-2.482022769	 0.8030706377	 0.101804
H	-3.4016537869	-2.2433518464	 0.8413659613	 0.10046
H	-3.1725460858	-2.2871838133	-1.9549402571	 0.278749
H	-2.4540671794	-4.483852903	-1.0122621464	 0.109821
H	-2.2800628161	-4.5540479247	 0.7487701932	 0.121611
H	-5.0338492839	-4.2171964696	-0.6130378065	 0.092562
44.5416	61.8941	76.9992	97.8785	108.6815	158.6381	211.9593	243.4515	278.0653	301.6096	330.4297	428.3843	437.2254	506.5726	555.651	737.3271	787.7688	814.2315	869.1937	906.8379	924.1074	988.6661	1015.8779	1042.4397	1064.9416	1075.0059	1101.811	1121.3277	1152.2724	1200.2233	1231.9948	1259.336	1291.7725	1302.7646	1329.1378	1349.3645	1357.153	1384.3136	1399.7047	1413.5047	1415.2522	1423.0076	1450.5668	1479.1364	1486.6438	1499.367	1499.9019	1513.4116	1829.4451	2911.2016	2987.9316	2997.2663	3009.2108	3018.5347	3030.4557	3032.9197	3037.9361	3045.7881	3072.9995	3096.4954	3097.4578	3102.7786	3789.0117
CCCCC(O)CC=O	CCCC[C@@H](O)CC=O	
InChI=1S/C7H14O2/c1-2-3-4-7(9)5-6-8/h6-7,9H,2-5H2,1H3	InChI=1S/C7H14O2/c1-2-3-4-7(9)5-6-8/h6-7,9H,2-5H2,1H3/t7-/m1/s1
