16
gdb 67788	2.7532	2.41962	1.65237	2.7691	69.99	-0.2411	-0.0044	0.2367	820.2743	0.126252	-400.680062	-400.673932	-400.672988	-400.710028	26.397	
O	-0.1060528265	 1.335726987	 0.0483713087	-0.505219
C	 0.0585841256	-0.0516802909	 0.0310252048	 0.414382
C	 1.0648376974	-0.6709752477	 0.9745016163	-0.184528
C	 1.3570129533	-1.9023865261	 0.5378549211	-0.086724
C	 0.5512948633	-2.1749105194	-0.709377877	-0.102487
C	-0.9920360263	-2.152789394	-0.5023704164	-0.051552
C	-1.307321224	-0.7800552175	-0.028041803	-0.082138
N	-1.2452892901	-1.0631467711	-1.4971591298	-0.173916
C	 0.2663637354	-0.7830296336	-1.3317112329	-0.079699
H	 0.7582818619	 1.7402656472	-0.0841686723	 0.279063
H	 1.4070725899	-0.1955549296	 1.886227324	 0.105249
H	 1.9963752346	-2.6268861582	 1.027670655	 0.106164
H	 0.8954049896	-2.9653045435	-1.3752360358	 0.079966
H	-1.6650383972	-2.9952182252	-0.3925942335	 0.098457
H	-2.2259543738	-0.4956985823	 0.4707096037	 0.102015
H	 0.8469505869	-0.353538065	-2.148252603	 0.080968
271.4419	299.9551	341.9249	386.8109	447.4425	549.0588	630.4885	688.6643	734.7859	746.461	794.2658	805.1552	831.1817	857.1448	893.1006	931.3006	944.2563	960.5518	991.4627	1002.794	1018.6273	1042.8314	1077.4658	1110.3555	1134.7216	1152.9016	1204.9654	1218.3151	1236.3239	1264.4583	1286.8444	1357.2624	1362.4688	1373.6128	1636.7768	3117.6279	3126.4959	3179.8143	3192.2324	3195.8022	3216.7006	3803.2594
OC12C=CC3C4C1N4C23	O[C@@]12C=C[C@H]3[C@H]4[C@@H]1N4[C@@H]23	
InChI=1S/C7H7NO/c9-7-2-1-3-4-6(7)8(4)5(3)7/h1-6,9H	InChI=1S/C7H7NO/c9-7-2-1-3-4-6(7)8(4)5(3)7/h1-6,9H/t3-,4-,5+,6-,7+,8?/m0/s1
