20
gdb 15673	2.8524	1.79925	1.24427	1.3848	77.14	-0.2215	0.0365	0.258	1031.1503	0.177345	-349.020937	-349.012276	-349.011332	-349.054082	32.076	
C	-0.3602697163	 1.5269717364	-0.032496557	-0.489939
C	-0.0574061005	 0.0607539646	-0.006958006	 0.337748
C	 0.2648287691	-0.7080783438	-1.0499802883	-0.163361
C	 0.4970166677	-2.1504621087	-0.677916787	-0.24743
C	-0.0269098752	-2.2174354411	 0.7801619254	-0.235953
C	-0.0715468984	-0.7487320795	 1.2842465579	-0.072603
C	 1.1118227692	-0.434340592	 2.2085217096	-0.079189
O	 0.9840383535	 0.8959087188	 2.6935334309	-0.418571
H	-0.288450712	 1.9321237122	-1.0460351902	 0.10895
H	-1.3738839725	 1.7224473653	 0.3415534768	 0.118187
H	 0.3188087277	 2.0771761987	 0.6251212454	 0.142207
H	 0.3716969393	-0.3439192278	-2.0672215318	 0.078226
H	-0.0298243053	-2.8498058262	-1.3378590112	 0.098355
H	 1.5619102869	-2.4154249679	-0.7475158706	 0.099211
H	-1.0383330235	-2.6336309741	 0.787249381	 0.103653
H	 0.5850945294	-2.8609595031	 1.4203011896	 0.089863
H	-0.9812382907	-0.5506655367	 1.8660493113	 0.074692
H	 1.1113113277	-1.1537258264	 3.0433481612	 0.083279
H	 2.0550947669	-0.5679213461	 1.6546192557	 0.086423
H	 1.7496447669	 1.0917579073	 3.2412367272	 0.28625
64.8681	134.826	179.3976	214.1519	246.9905	256.8067	302.5234	325.224	404.1418	580.2478	608.6354	695.5705	795.9958	816.1167	846.9495	916.1025	941.2047	979.836	1029.7638	1038.9074	1047.2306	1063.1947	1082.0318	1106.2709	1164.5791	1177.9528	1235.8094	1247.2483	1258.5772	1287.3938	1307.8103	1327.7206	1343.0584	1374.5734	1411.6612	1449.37	1475.9938	1486.0994	1494.5414	1504.1806	1518.384	1721.0342	2959.2897	2989.568	3000.9219	3019.7449	3023.1079	3040.8428	3052.67	3082.1751	3090.2431	3117.7606	3176.0048	3829.9508
CC1=CCCC1CO	CC1=CCC[C@H]1CO	
InChI=1S/C7H12O/c1-6-3-2-4-7(6)5-8/h3,7-8H,2,4-5H2,1H3	InChI=1S/C7H12O/c1-6-3-2-4-7(6)5-8/h3,7-8H,2,4-5H2,1H3/t7-/m0/s1
