16
gdb 97354	2.67592	0.95937	0.77576	3.9915	80.75	-0.2456	0.0006	0.2462	1476.8627	0.121858	-396.892764	-396.882838	-396.881894	-396.928655	34.471	
C	 0.0697125727	 1.4482542899	-0.0402373342	-0.316542
N	 0.0427510282	 0.0018436313	-0.0691326377	-0.211569
C	 0.4662751847	-0.6259210296	 0.9452879461	 0.105975
N	 0.5533262469	-2.0032543063	 0.9810964638	-0.296883
C	-0.0609608951	-2.7859465966	-0.0802253245	-0.295995
C	 0.6216963314	-4.0670037213	-0.2645578871	 0.306565
C	 1.1831148513	-5.1172125143	-0.4098382851	-0.382951
C	-1.5117176151	-3.0000679232	 0.1524160884	 0.294412
N	-2.6359404975	-3.1611370638	 0.3623979895	-0.322863
H	 0.7004000789	 1.8256056585	-0.8537804114	 0.127688
H	-0.9391948442	 1.8402883883	-0.2117246843	 0.132297
H	 0.4464312355	 1.8646717359	 0.9079549417	 0.09774
H	 0.8376945326	-0.1516143985	 1.8636581871	 0.098837
H	 0.607903891	-2.4442056298	 1.88577169	 0.260232
H	 0.0258899897	-2.1708765409	-0.9850184241	 0.190809
H	 1.6797619789	-6.0463404597	-0.5479419182	 0.212248
27.1588	105.6073	129.4377	138.6283	203.7442	211.4634	229.1379	342.8056	357.9625	371.8745	455.0822	511.5197	577.7531	599.0336	649.6414	677.9625	710.8707	901.7054	976.298	1001.763	1043.1113	1099.6975	1142.9232	1152.7784	1219.4488	1288.4195	1338.2811	1395.2794	1450.3447	1479.472	1500.2562	1506.0374	1761.878	2253.0905	2359.361	2972.2844	3030.1093	3045.2743	3058.0975	3076.6376	3501.0145	3636.3194
CN=CNC(C#C)C#N	CN=CN[C@@H](C#C)C#N	
InChI=1S/C6H7N3/c1-3-6(4-7)9-5-8-2/h1,5-6H,2H3,(H,8,9)	InChI=1S/C6H7N3/c1-3-6(4-7)9-5-8-2/h1,5-6H,2H3,(H,8,9)/t6-/m0/s1
