15
gdb 51966	4.63011	0.81733	0.75956	5.6174	63.74	-0.2723	-0.0528	0.2195	1439.7139	0.109557	-494.898732	-494.889824	-494.888879	-494.933929	30.229	
O	 0.4595575851	 0.1924043403	-0.1476609482	-0.268244
C	 1.0651535215	 1.2163124431	-0.2095503134	 0.190679
O	 0.4683167454	 2.3898060069	-0.5286524121	-0.165114
C	 1.2759067471	 3.549728582	-0.504851574	-0.204797
C	 1.6552740126	 3.9509334165	 0.9232616572	 0.338654
O	 1.4485401589	 3.2300528621	 1.8682583817	-0.283352
C	 2.3011133084	 5.2953555083	 1.0995378917	-0.016673
C	 3.5385380987	 5.6489480991	 0.3704464198	-0.172508
O	 2.2822770284	 6.1833755594	-0.0200286157	-0.214109
H	 2.1552892965	 1.3148298794	-0.0517067433	 0.077754
H	 2.1872383766	 3.4233671864	-1.1074842006	 0.136404
H	 0.6988290905	 4.3509444008	-0.9704612294	 0.172263
H	 2.1285274631	 5.7458649075	 2.0752350748	 0.135227
H	 4.228837218	 6.3501601074	 0.8352020785	 0.143596
H	 3.987617749	 4.9373767209	-0.3200218271	 0.130218
36.8305	87.3047	92.4484	168.0918	184.2899	255.9385	286.2394	356.2043	480.8385	518.0642	572.0491	694.8023	811.4258	874.1474	900.1133	930.399	993.8611	1031.7634	1074.5553	1088.3365	1144.7746	1158.529	1165.1196	1219.6719	1263.0141	1289.5236	1380.8581	1392.5259	1427.676	1462.527	1526.6104	1819.2895	1879.6478	2963.5538	3013.9526	3094.2259	3123.2379	3141.2491	3186.2479
O=COCC(=O)C1CO1	O=COCC(=O)[C@H]1CO1	
InChI=1S/C5H6O4/c6-3-8-1-4(7)5-2-9-5/h3,5H,1-2H2	InChI=1S/C5H6O4/c6-3-8-1-4(7)5-2-9-5/h3,5H,1-2H2/t5-/m1/s1
