22
gdb 99747	1.82364	1.39639	1.00549	2.3816	78.36	-0.2411	0.0315	0.2726	1312.3369	0.191787	-441.527246	-441.515896	-441.514952	-441.563944	40.72	
C	-1.5652609245	-0.5919650783	-0.1777307753	-0.379876
C	-0.1369619813	-0.0546777582	-0.0408248957	-0.194095
C	 0.6050644038	-0.4756125941	 1.2563711439	-0.097814
C	-0.146126401	-0.0796884569	 2.5365888762	 0.141426
C	 0.6878584637	-0.302431397	 3.798558869	-0.419866
O	-0.4911754046	 1.2981277216	 2.3866360614	-0.450354
C	 0.8597119778	-1.9833275527	 1.2372931708	 0.417503
N	 2.0397781415	-2.3606446215	 0.6618074905	-0.524883
O	 0.0690940628	-2.8002707027	 1.6772629269	-0.377243
H	-2.2218918383	-0.1500292754	 0.5769422192	 0.124294
H	-1.9730545915	-0.3352913807	-1.1604427837	 0.104168
H	-1.6037097968	-1.6787632855	-0.0638766413	 0.136906
H	 0.4642334855	-0.3851520214	-0.8973619785	 0.08314
H	-0.1532959278	 1.03784756	-0.0679951822	 0.119842
H	 1.5709742388	 0.0473224475	 1.2616219947	 0.069468
H	-1.0506038308	-0.6984217635	 2.599529396	 0.094476
H	 0.1275231206	 0.0098278384	 4.6875746618	 0.102095
H	 0.9358680389	-1.3601172226	 3.9214493243	 0.138728
H	 1.612872576	 0.2827024247	 3.7593467178	 0.114541
H	-0.9655123109	 1.567959513	 3.1788391691	 0.280654
H	 2.6593045589	-1.6991848607	 0.2282301365	 0.258684
H	 2.2037467092	-3.3438313038	 0.5174566988	 0.258207
48.4255	71.1892	98.073	163.8387	191.5017	200.4458	217.6184	251.9101	272.0729	295.2232	317.9356	365.5295	422.0726	471.3806	522.0944	590.351	629.4087	752.6611	772.1447	843.2663	891.9432	906.7521	959.3272	1032.6073	1058.3642	1067.5327	1094.8592	1114.3464	1133.0965	1172.4568	1233.9262	1271.533	1303.3616	1308.5776	1370.5669	1381.9039	1401.2384	1406.5544	1419.5135	1430.1514	1484.7311	1496.658	1497.1603	1500.5516	1513.2303	1614.4821	1778.5733	3009.4951	3027.2658	3028.3985	3031.6857	3043.9108	3091.6091	3092.9798	3109.0188	3122.986	3125.3183	3599.2647	3737.168	3824.4424
CCC(C(C)O)C(N)=O	CC[C@@H]([C@@H](C)O)C(=O)N	
InChI=1S/C6H13NO2/c1-3-5(4(2)8)6(7)9/h4-5,8H,3H2,1-2H3,(H2,7,9)	InChI=1S/C6H13NO2/c1-3-5(4(2)8)6(7)9/h4-5,8H,3H2,1-2H3,(H2,7,9)/t4-,5+/m1/s1
