22
gdb 82509	2.68908	1.55855	1.34967	1.6679	84.91	-0.2176	0.0851	0.3027	1083.8738	0.195525	-367.189502	-367.18115	-367.180206	-367.22174	33.771	
C	-0.2090790425	 1.536130432	-0.0095737307	-0.429604
C	 0.0057171674	 0.0407434013	-0.0678720868	 0.012385
C	 0.6448809484	-0.6738608816	-1.2057159289	-0.062239
C	 1.4435501956	 0.1045474607	-2.2081025332	-0.099638
C	 2.8336666203	-0.4389082456	-2.4516465155	-0.342807
C	 2.6307532921	 0.6988768896	-1.47817661	 0.36803
C	 3.2038005733	 2.0616209568	-1.7859932802	-0.489424
C	 2.494899557	 0.2763225148	-0.0107593372	-0.239321
N	 1.3198208713	-0.6170680136	 0.1165558502	-0.121589
H	 0.4643593811	 2.0929606636	-0.662552523	 0.131735
H	-1.2352901006	 1.7688908698	-0.3135321366	 0.12074
H	-0.0802927719	 1.9091421061	 1.0130473354	 0.122959
H	-0.7732750258	-0.5139010096	 0.4543722842	 0.086838
H	 0.2693628544	-1.6519270545	-1.5021965101	 0.085146
H	 0.9387719497	 0.6434974231	-3.003672762	 0.084333
H	 3.0732588427	-1.425574386	-2.0654223543	 0.115704
H	 3.3039858039	-0.2011734281	-3.4001821564	 0.1058
H	 3.1808378088	 2.2710278573	-2.8601159496	 0.115924
H	 2.6477295936	 2.8585664918	-1.2773935404	 0.116002
H	 4.2485274677	 2.1328770772	-1.4606307095	 0.119985
H	 3.3758315994	-0.275508102	 0.3382228269	 0.102104
H	 2.3881060642	 1.1531085469	 0.6399288978	 0.096937
139.4369	175.2033	204.1885	223.8352	292.7485	318.1214	367.0863	384.4723	482.0016	526.4771	599.0469	700.6289	733.8064	752.2075	788.3412	832.3706	874.2769	933.1077	941.5402	955.8413	981.6605	1016.0946	1032.4835	1052.6116	1060.4565	1077.0463	1111.9709	1124.2679	1138.2479	1152.2953	1171.2925	1228.0614	1273.1078	1287.4473	1296.3923	1325.9875	1375.3452	1403.9596	1412.9892	1423.3234	1426.9861	1488.8413	1489.0044	1494.6348	1499.998	1503.8211	1517.9893	3018.2251	3023.0788	3036.1049	3053.5651	3075.9779	3088.9939	3096.4793	3100.8744	3115.624	3118.8997	3143.8369	3156.6983	3206.3572
CC1C2C3CC3(C)CN12	C[C@H]1[C@H]2[C@@H]3C[C@]3(C)CN12	
InChI=1S/C8H13N/c1-5-7-6-3-8(6,2)4-9(5)7/h5-7H,3-4H2,1-2H3	InChI=1S/C8H13N/c1-5-7-6-3-8(6,2)4-9(5)7/h5-7H,3-4H2,1-2H3/t5-,6-,7-,8+,9?/m0/s1
