18
gdb 108097	2.54887	1.46161	1.20646	3.2968	71.54	-0.2159	0.0625	0.2784	1083.4415	0.147924	-438.992609	-438.984399	-438.983455	-439.025366	31.833	
O	 0.1509138804	 1.2284888233	-0.2457113898	-0.41666
C	-0.0416509857	-0.1084145227	 0.1995314987	-0.17852
C	-1.479620085	-0.5243890479	 0.1845465945	 0.257979
C	-2.6397321765	-0.0084511824	 1.0347559061	-0.24903
C	-3.455442114	-1.180401602	 0.4381408607	-0.131491
N	-3.5842020085	-0.7624786873	-1.0011694875	-0.307556
C	-2.1461216462	-1.0720315225	-1.1239845123	-0.19231
C	-2.0550160965	-1.9163748035	 0.1183018468	 0.295817
O	-1.445739126	-3.0901652928	 0.4763897003	-0.446825
H	-0.2995351156	 1.3150364944	-1.0925700189	 0.281813
H	 0.5545461188	-0.8227547629	-0.392176041	 0.088366
H	 0.3518274251	-0.1354927142	 1.2215948937	 0.115114
H	-2.4335528567	-0.1481330314	 2.0994441381	 0.102229
H	-3.034780432	 0.9925574285	 0.8441420335	 0.106311
H	-4.3436191705	-1.5801717199	 0.9234729753	 0.077006
H	-4.0960931854	-1.4944717845	-1.4933839347	 0.211596
H	-1.6105245903	-1.102790146	-2.0655053053	 0.094244
H	-1.8478494555	-3.8133785862	-0.018758208	 0.291915
85.9261	118.9732	223.8903	270.5231	282.9104	341.2707	371.5284	422.795	470.6963	552.1803	599.0534	699.9781	722.2696	791.4417	829.815	900.3643	918.1969	943.9149	962.9493	1013.2619	1015.1041	1038.5729	1059.1021	1086.8894	1125.4782	1137.411	1160.8367	1177.0775	1235.7334	1254.2459	1273.2268	1312.0139	1332.5203	1357.3374	1366.7208	1427.6298	1468.0225	1501.9584	1504.0058	2967.2096	3057.2133	3064.5738	3117.7245	3139.2311	3187.7664	3452.3248	3780.8105	3808.2935
OCC12CC3NC1C23O	OC[C@@]12C[C@H]3N[C@@H]1[C@@]23O	
InChI=1S/C6H9NO2/c8-2-5-1-3-6(5,9)4(5)7-3/h3-4,7-9H,1-2H2	InChI=1S/C6H9NO2/c8-2-5-1-3-6(5,9)4(5)7-3/h3-4,7-9H,1-2H2/t3-,4+,5+,6-/m1/s1
