22
gdb 101590	4.42779	0.71186	0.66814	1.8219	80.95	-0.2138	0.0172	0.2311	1784.7281	0.191337	-441.502732	-441.491587	-441.490643	-441.540166	38.46	
C	-0.2558248269	 1.4655224794	 0.1139793109	-0.39491
C	-0.0343845259	-0.0390972007	-0.0398394993	-0.100277
N	 0.7256085999	-0.3942070292	-1.2381665824	-0.048757
C	 2.1051223852	 0.0770233258	-1.1953945915	-0.334925
C	 0.6491357249	-1.8129616592	-1.5106527999	-0.276472
C	 1.0321519258	-2.1869176363	-2.9371173696	 0.438607
O	 1.411326038	-1.4471951199	-3.8067512298	-0.347058
O	 0.8836771262	-3.5194102913	-3.099730785	-0.230111
C	 1.2136002293	-4.0184001714	-4.4012338795	-0.238024
H	 0.6718955791	 2.0033783978	 0.3273841144	 0.121089
H	-0.6913602785	 1.8822604394	-0.7988594999	 0.12817
H	-0.9410833877	 1.6560779681	 0.945728682	 0.113371
H	 0.442105671	-0.437780058	 0.8789421751	 0.073022
H	-1.01215436	-0.5285727339	-0.1175498338	 0.097293
H	 2.674980519	-0.3577000967	-0.3503374403	 0.081957
H	 2.6051724214	-0.1805554067	-2.1294419958	 0.145342
H	 2.1295303602	 1.1640772456	-1.0962673699	 0.12149
H	 1.2695484003	-2.4333084808	-0.8324317211	 0.105986
H	-0.3806614416	-2.1570264387	-1.3646087558	 0.130926
H	 0.5749829773	-3.563854415	-5.1629955444	 0.140982
H	 2.2567816227	-3.8014245302	-4.6450667372	 0.139793
H	 1.0479462302	-5.0949606581	-4.3578529069	 0.132506
34.3979	61.5633	101.8604	122.6137	144.67	169.678	212.7034	254.7754	282.1322	304.3671	358.126	367.7077	381.1124	533.6452	599.5894	711.4149	808.8418	832.4709	904.1468	966.8171	1010.2563	1032.0656	1073.2504	1093.6653	1124.4006	1168.1694	1180.5708	1191.9979	1209.187	1226.3033	1262.513	1308.9074	1341.017	1391.2157	1398.7965	1423.9388	1449.8774	1467.268	1475.4445	1482.4626	1488.0076	1492.88	1498.3697	1499.4715	1512.507	1516.7115	1831.8243	2895.1167	2904.22	2916.5711	3043.1423	3045.9115	3050.8862	3066.4197	3097.4949	3112.4348	3120.6298	3124.6606	3148.4306	3157.4451
CCN(C)CC(=O)OC	CCN(C)CC(=O)OC	
InChI=1S/C6H13NO2/c1-4-7(2)5-6(8)9-3/h4-5H2,1-3H3	InChI=1S/C6H13NO2/c1-4-7(2)5-6(8)9-3/h4-5H2,1-3H3
