17
gdb 82083	2.58625	1.57308	1.26092	3.4776	68.06	-0.2455	-0.0034	0.2421	1028.7596	0.136999	-455.125356	-455.117191	-455.116247	-455.158567	31.236	
N	 0.1699413089	 0.9108448074	 0.9779917267	-0.524649
C	-0.060386963	 0.2892807811	-0.2049659996	 0.462934
O	 0.737817159	 0.3466859669	-1.13657988	-0.389539
C	-1.3556471322	-0.4970386733	-0.285170434	-0.152951
C	-1.8595548573	-0.9428481304	-1.6997434387	 0.118962
O	-1.2332367183	-0.4746388606	-2.8513419297	-0.436827
C	-1.6375423582	-2.3852900053	-1.2274249337	-0.052108
C	-0.2709514943	-2.5995459491	-0.7249648517	-0.260923
N	-1.2393451556	-1.9378697543	 0.1804733063	-0.154859
H	 1.0681916297	 1.3450695624	 1.1219976993	 0.267269
H	-0.4175432033	 0.7453310537	 1.7772893359	 0.273935
H	-2.134910298	-0.0092865764	 0.3058733339	 0.089998
H	-2.9298548975	-0.7360193666	-1.7976707008	 0.093615
H	-0.3291332878	-0.2268722069	-2.5939422313	 0.301836
H	-2.3346087355	-3.203350141	-1.3774062187	 0.09619
H	-0.0242840768	-3.6000503464	-0.3842034767	 0.124664
H	 0.5636036103	-2.0360271012	-1.129808277	 0.142454
38.2171	137.8468	209.6095	258.2831	320.4746	325.8974	413.8526	458.1309	540.5084	588.1522	605.1728	640.2911	731.5335	751.0743	752.6236	808.8177	842.3693	955.2525	977.3701	1012.7514	1032.353	1065.1582	1097.1968	1123.7201	1144.4838	1178.7301	1212.7361	1235.4899	1268.5578	1294.5539	1353.4394	1377.3621	1421.9021	1483.7888	1504.5712	1620.8092	1748.3754	3056.1722	3075.3541	3128.0591	3166.9001	3215.8755	3592.0523	3642.1188	3727.6682
NC(=O)C1C(O)C2CN12	NC(=O)[C@H]1[C@@H](O)[C@H]2CN12	
InChI=1S/C5H8N2O2/c6-5(9)3-4(8)2-1-7(2)3/h2-4,8H,1H2,(H2,6,9)	InChI=1S/C5H8N2O2/c6-5(9)3-4(8)2-1-7(2)3/h2-4,8H,1H2,(H2,6,9)/t2-,3-,4+,7?/m1/s1
