13
gdb 131026	2.76904	1.41388	0.93597	1.4255	71.06	-0.2797	-0.0956	0.184	1133.1939	0.089559	-452.782056	-452.77454	-452.773596	-452.814666	26.329	
O	-0.0149555741	-0.0484480788	-0.0021969215	-0.239529
C	 0.0052300672	 1.145375304	 0.0075740752	 0.185892
N	 1.1868658169	 1.9192958527	 0.0001312908	-0.119635
N	 2.3973147699	 1.315877931	-0.018457356	-0.207029
C	 3.2761686456	 2.3055357939	-0.020621413	 0.027172
C	 2.6529703882	 3.5732391697	-0.0033131622	-0.276931
C	 1.3025585649	 3.3068618866	 0.0098601608	 0.29954
C	 0.1983114237	 4.2752485926	 0.0299774644	 0.082338
O	 0.3880875174	 5.4692646488	 0.0371699338	-0.251911
H	-0.8930099963	 1.7828057946	 0.0225170606	 0.113904
H	 4.3320260923	 2.0772189057	-0.0344747882	 0.143292
H	 3.1019365665	 4.5527680603	-0.0005926748	 0.152913
H	-0.8308197222	 3.863416099	 0.03777041	 0.089987
102.6694	153.2967	166.8448	189.3423	260.9783	298.6027	433.0481	548.7112	646.4253	670.3508	769.5502	857.8908	859.6744	933.4806	934.4583	1014.2954	1019.743	1050.8037	1098.8548	1237.7297	1292.4221	1345.9151	1366.6154	1418.5243	1455.7376	1493.1819	1582.448	1785.5873	1852.4512	2920.7102	3016.7643	3250.0008	3284.6537
O=CN1N=CC=C1C=O	O=Cn1nccc1C=O	
InChI=1S/C5H4N2O2/c8-3-5-1-2-6-7(5)4-9/h1-4H	InChI=1S/C5H4N2O2/c8-3-5-1-2-6-7(5)4-9/h1-4H
