13
gdb 24551	4.04285	1.75091	1.22177	2.4469	75.26	-0.2388	-0.0822	0.1566	914.4926	0.093264	-415.651045	-415.645245	-415.6443	-415.681146	23.038	
O	-0.0425884898	 1.3452512803	 0.0097719015	-0.191149
C	 1.1425652881	 1.9921101375	 0.0017436099	 0.114795
N	 2.3114440338	 1.4611267876	-0.012325556	-0.272074
C	 2.4171037298	 0.0866068066	-0.0205777743	-0.084654
C	 1.2982970004	-0.6872405606	-0.0138609748	 0.225552
N	 1.1088691851	-2.0458980383	-0.0191954049	-0.340599
C	-0.2110852246	-2.1849386339	-0.007127417	-0.013898
C	-0.9658377589	-0.9563235525	 0.0065393952	-0.348014
C	 0.0103339074	-0.0055963949	 0.00215531	 0.377552
H	 0.9971257225	 3.065645742	 0.0087929977	 0.155941
H	 3.4213557915	-0.3232118578	-0.0324178521	 0.143107
H	-0.65459251	-3.1753780072	-0.0080785353	 0.115471
H	-2.0371554053	-0.8386002287	 0.0174640601	 0.117971
206.5169	250.7362	364.7237	440.9373	545.1581	582.4445	618.1486	652.6927	761.8547	767.7138	790.4369	889.185	902.2824	909.8035	941.8083	984.0906	1015.7258	1091.4469	1147.5191	1208.8532	1243.6097	1296.8626	1342.9199	1389.0163	1418.3158	1438.4148	1556.8613	1621.7461	1678.987	3193.0662	3197.2046	3223.0652	3266.1406
O1C=NC=C2N=CC=C12	o1cncc2nccc12	
InChI=1S/C6H4N2O/c1-2-8-5-3-7-4-9-6(1)5/h1-4H	InChI=1S/C6H4N2O/c1-2-8-5-3-7-4-9-6(1)5/h1-4H
