18
gdb 71591	2.74335	1.71493	1.62691	1.4425	76.78	-0.2314	0.0057	0.2371	933.7081	0.149773	-401.888586	-401.881564	-401.88062	-401.91955	29.048	
O	-0.0245500908	 1.3941374292	 0.0101506822	-0.465009
C	 0.050530338	 0.0122621441	 0.0196912858	 0.335158
C	 0.6135448163	-0.9638155813	 1.0714889834	-0.235271
N	 0.017927491	-1.9045825216	 0.019800347	-0.161348
C	-1.1795394644	-0.9137109805	-0.0104087946	 0.012091
C	-2.0804252364	-0.9888353693	-1.2337326843	-0.305485
C	-1.2742477861	-1.0250756881	-2.4999814222	-0.067389
C	 0.0520011947	-1.0162612215	-2.3983776297	-0.071602
C	 0.6618926752	-0.9623667334	-1.0374802568	-0.078114
H	 0.8687614574	 1.7548421061	-0.0122466313	 0.281169
H	 1.6991476106	-1.0572979892	 1.1676249457	 0.093641
H	 0.1121941271	-1.023485479	 2.0409016218	 0.101963
H	-1.7564670876	-0.9590022234	 0.9182678697	 0.072036
H	-2.720435514	-1.8785360878	-1.1580831964	 0.120231
H	-2.7634766089	-0.1276427728	-1.2303072171	 0.120517
H	-1.7882426786	-1.0622797992	-3.4554495239	 0.0939
H	 0.7045113712	-1.0432569669	-3.2648249939	 0.090591
H	 1.7512771954	-1.0531887155	-1.0409935753	 0.062922
185.1352	198.9634	244.5277	347.7772	401.3573	467.5489	491.1664	564.4366	595.6881	609.6658	721.8034	770.9164	792.5683	813.9943	885.6307	907.5122	953.5547	968.7728	989.4177	1016.6296	1033.1737	1060.9726	1085.9276	1117.1828	1125.7677	1144.9085	1172.6332	1186.1035	1209.0352	1262.2977	1283.2105	1340.0798	1352.214	1366.6873	1415.3597	1439.5266	1459.3806	1528.3656	1716.9508	3010.2944	3035.9177	3049.1892	3062.9397	3074.6009	3119.3038	3167.9527	3191.5423	3804.157
OC12CN3C1CC=CC23	O[C@@]12CN3[C@@H]1CC=C[C@@H]23	
InChI=1S/C7H9NO/c9-7-4-8-5(7)2-1-3-6(7)8/h1-2,5-6,9H,3-4H2	InChI=1S/C7H9NO/c9-7-4-8-5(7)2-1-3-6(7)8/h1-2,5-6,9H,3-4H2/t5-,6+,7+/m0/s1
