18
gdb 65590	3.52917	1.22721	1.20441	3.4658	75.31	-0.2838	0.0203	0.3041	1094.3456	0.148795	-401.960977	-401.953027	-401.952083	-401.993079	31.452	
O	-0.441927633	 0.9740687134	 0.5663178761	-0.442293
C	 0.0191693283	-0.2402697879	-0.0210464469	 0.188118
C	 0.8517195322	-1.1030941169	 0.9751772123	-0.254557
C	-0.1563495211	-1.9952367713	 1.6802524031	-0.03812
C	-1.4067645787	-1.3618443387	 2.241370531	-0.286203
C	-1.4358155256	-1.9944192339	 0.8714748089	-0.039857
C	-1.2378453119	-1.09549985	-0.3386212191	-0.233449
C	 0.7974825986	 0.0792214315	-1.235196126	 0.249087
N	 1.4249125543	 0.3451879793	-2.1688633194	-0.340746
H	 0.3265708403	 1.497772428	 0.8213836557	 0.290856
H	 1.5694917477	-1.7169591031	 0.420941316	 0.124914
H	 1.427325359	-0.4539527151	 1.6449422205	 0.105583
H	 0.2163764439	-2.9033505549	 2.140071199	 0.089604
H	-1.9083337999	-1.9004669592	 3.0380325817	 0.109151
H	-1.4597516789	-0.2826509657	 2.3159986753	 0.134485
H	-2.0098674786	-2.9029375369	 0.730359057	 0.089457
H	-2.0771306117	-0.428284974	-0.5526470257	 0.130916
H	-1.0538536849	-1.7034545544	-1.2294354195	 0.123055
123.4416	150.2345	221.7346	270.7307	327.9939	375.177	395.7806	408.2951	518.9437	558.4661	613.4047	636.4315	781.2138	784.9979	826.4817	871.21	885.4288	902.5192	968.6398	1022.2122	1040.5605	1061.2612	1073.2149	1091.523	1095.6101	1119.9797	1142.9658	1193.5443	1214.6379	1274.7841	1314.1404	1320.2838	1342.445	1371.7579	1402.3188	1473.2509	1480.7046	1494.0974	2350.6023	3038.2917	3060.2849	3081.5893	3107.4456	3141.4829	3170.1271	3179.3451	3234.5671	3799.3329
OC1(CC2CC2C1)C#N	O[C@]1(C[C@H]2C[C@H]2C1)C#N	
InChI=1S/C7H9NO/c8-4-7(9)2-5-1-6(5)3-7/h5-6,9H,1-3H2	InChI=1S/C7H9NO/c8-4-7(9)2-5-1-6(5)3-7/h5-6,9H,1-3H2/t5-,6+,7+
