18
gdb 71156	2.70433	1.85203	1.4768	2.838	75.02	-0.242	0.0789	0.3209	950.4441	0.14744	-401.8688	-401.861293	-401.860349	-401.900362	29.885	
C	 0.0219251438	 1.5538839108	 0.0325107732	-0.504333
C	 0.0057412453	 0.0565470674	 0.0295529985	 0.217234
C	-1.2843613842	-0.792539059	-0.0468113948	-0.284862
C	-0.4936082236	-1.7963761182	 0.774836879	-0.04454
C	 0.9327714497	-1.7838164631	 0.3240983948	-0.162948
N	 0.4375881206	-0.7583231659	 1.3187964491	-0.184305
C	 1.0358482838	-0.7552729005	-0.7587328989	 0.497245
C	 1.447405304	-0.7628828888	-2.1597544084	-0.292425
O	 2.2800290258	-0.1926132702	-1.1276022825	-0.28852
H	 1.0450357776	 1.9255785092	 0.1346921994	 0.14627
H	-0.3912278935	 1.9423654403	-0.905693488	 0.121507
H	-0.5814581665	 1.9455377172	 0.8565987883	 0.129203
H	-2.0888979283	-0.3502519302	 0.5473900004	 0.111951
H	-1.6622117154	-1.0731707717	-1.0357944317	 0.097668
H	-0.8766057663	-2.5879570712	 1.4097029525	 0.100144
H	 1.655408989	-2.5413324293	 0.6023492295	 0.106782
H	 1.8308750211	-1.6766070699	-2.6116516688	 0.118461
H	 1.0208973673	-0.0443602368	-2.8588602415	 0.115467
149.0757	181.0529	216.7846	245.1043	306.7377	390.435	438.0293	525.65	602.1845	643.6757	748.8296	763.2205	798.0886	825.6723	872.4712	888.6363	906.95	980.166	1006.391	1015.8795	1022.216	1030.2689	1097.0055	1111.9208	1117.6563	1137.4684	1160.4694	1166.7981	1230.9096	1245.3555	1290.0606	1345.5333	1357.9458	1414.0029	1456.5317	1482.7892	1486.5875	1496.801	1545.5857	3034.8097	3040.3247	3080.6354	3099.0993	3102.4807	3123.8839	3166.5926	3173.46	3196.6111
CC12CC3C(N13)C21CO1	C[C@]12C[C@H]3[C@H](N13)[C@]12CO1	
InChI=1S/C7H9NO/c1-6-2-4-5(8(4)6)7(6)3-9-7/h4-5H,2-3H2,1H3	InChI=1S/C7H9NO/c1-6-2-4-5(8(4)6)7(6)3-9-7/h4-5H,2-3H2,1H3/t4-,5-,6+,7-,8?/m0/s1
