18
gdb 86064	2.51252	1.28137	0.95827	3.6638	81.56	-0.2575	-0.0402	0.2173	1242.5202	0.147502	-401.990964	-401.98204	-401.981096	-402.024618	33.1	
C	 0.0568943331	 1.4898939047	 0.0721243726	-0.513035
C	 0.0749467802	-0.0001965977	 0.0054273377	 0.225334
C	 0.0495353412	-0.7707735965	-1.1007411784	 0.107083
C	 0.0309721894	-2.2529541799	-0.7691151974	-0.33803
C	 0.4774660254	-2.2713472507	 0.7138674524	 0.122608
O	 1.8693690001	-2.5108197	 0.8439305778	-0.430775
C	 0.0840089061	-0.869933884	 1.241687619	-0.319281
C	-0.0014760654	-0.2817225694	-2.4332083849	 0.1875
N	-0.0397515445	 0.098750077	-3.5276655637	-0.348773
H	 0.9348529084	 1.8642581979	 0.6127573898	 0.138617
H	 0.0392987601	 1.9429467577	-0.921572868	 0.154309
H	-0.8213280988	 1.8398510298	 0.6289854605	 0.141356
H	-0.9787049627	-2.6636279756	-0.8960944051	 0.124646
H	 0.7047366889	-2.8529202016	-1.387503135	 0.129117
H	-0.0002657269	-3.0756555226	 1.2770760446	 0.094028
H	 2.3355743389	-1.8429957682	 0.3276449156	 0.282637
H	 0.7857773167	-0.5293343567	 2.0106420019	 0.120536
H	-0.9141608402	-0.8750337443	 1.7025026406	 0.122122
86.9233	132.1995	145.3318	168.5863	246.6784	307.7315	337.4068	380.1945	424.1383	444.2881	527.943	580.2462	616.055	647.4296	804.3472	841.9907	883.6604	931.3336	938.6297	1007.6707	1042.8806	1066.938	1087.185	1157.6775	1175.9998	1191.2653	1232.3175	1279.872	1299.7202	1318.8332	1352.6885	1416.0331	1432.4337	1463.1222	1477.8597	1479.8319	1483.101	1682.9293	2330.0928	3012.6673	3024.98	3031.471	3071.7325	3073.602	3091.2571	3097.2479	3127.7917	3791.485
CC1=C(CC(O)C1)C#N	CC1=C(C[C@@H](O)C1)C#N	
InChI=1S/C7H9NO/c1-5-2-7(9)3-6(5)4-8/h7,9H,2-3H2,1H3	InChI=1S/C7H9NO/c1-5-2-7(9)3-6(5)4-8/h7,9H,2-3H2,1H3/t7-/m0/s1
