19
gdb 111299	3.17427	1.22133	1.04629	2.9345	71.2	-0.2295	0.0586	0.2881	1176.6388	0.158502	-460.117199	-460.108317	-460.107373	-460.15031	34.507	
O	-0.0721425709	 1.3554633868	 0.3199884846	-0.427895
C	 0.0301046597	 0.0087035313	-0.1635382336	-0.1159
C	-1.3589650571	-0.5972661268	-0.0588025383	-0.017351
C	-1.5281844802	-2.1165839841	-0.1440766431	-0.185667
C	-0.8445214979	-2.8032562182	 1.0251456051	-0.316778
C	-2.1494947354	-2.1403517913	 1.271009567	 0.414003
O	-3.1946042333	-2.8739307293	 1.7956157076	-0.46013
C	-1.9931632204	-0.6261688404	 1.3843549444	 0.031788
O	-1.2046311019	-0.1746591608	 2.4572522092	-0.441936
H	 0.8041345535	 1.7519272474	 0.3005911109	 0.293229
H	 0.3753985585	-0.004926886	-1.2076028663	 0.096222
H	 0.7511066822	-0.5602434951	 0.4366522864	 0.102355
H	-2.0227851785	-0.0723178278	-0.7519560589	 0.076522
H	-1.8151735326	-2.6680401496	-1.0310837646	 0.088264
H	-0.914656786	-3.8858153605	 0.995646935	 0.119141
H	 0.0694584265	-2.4212323245	 1.4693355253	 0.117888
H	-4.0202982272	-2.443993421	 1.5464363486	 0.282336
H	-2.9785267525	-0.1326376733	 1.3768457164	 0.056175
H	-0.8331352565	 0.6719350233	 2.1721299143	 0.287735
107.8909	138.5377	176.9731	253.2015	266.1848	317.8087	337.1726	351.2966	388.8719	484.1182	500.9549	535.56	614.6223	660.251	715.5687	822.8895	849.5782	910.6612	941.1177	971.5295	1000.3159	1024.2482	1036.8762	1077.5677	1091.183	1112.6261	1142.6052	1175.1479	1202.007	1235.2333	1251.2765	1264.1836	1293.8306	1315.0745	1349.5079	1369.8121	1415.1213	1442.8308	1454.2417	1505.8139	1517.0738	2964.0517	2995.2016	3038.7545	3066.8525	3125.1031	3186.0988	3212.5043	3741.5961	3794.4375	3828.1557
OCC1C2CC2(O)C1O	OC[C@H]1[C@H]2C[C@@]2(O)[C@H]1O	
InChI=1S/C6H10O3/c7-2-3-4-1-6(4,9)5(3)8/h3-5,7-9H,1-2H2	InChI=1S/C6H10O3/c7-2-3-4-1-6(4,9)5(3)8/h3-5,7-9H,1-2H2/t3-,4+,5-,6-/m0/s1
