19
gdb 37358	2.69694	1.91771	1.78107	1.5236	72.18	-0.2464	0.0756	0.322	889.0461	0.163162	-423.012529	-423.006069	-423.005125	-423.04298	27.661	
C	 0.044241577	 1.4324969239	 0.2296050284	-0.295956
C	 1.371236385	 0.7333798867	 0.0506952791	-0.061454
C	 0.0927983316	-0.064989596	 0.130207056	-0.044664
C	-0.0038577035	-0.6789630486	-1.2795939639	 0.167596
O	 1.3380325677	-0.8632436039	-1.6704561095	-0.252142
C	 1.9227927673	 0.4262931708	-1.3549947597	 0.078271
C	 1.4815022061	 1.3923777014	-2.4798003417	-0.257711
C	 0.2190652902	 0.8000479949	-3.1401583958	-0.051955
O	-0.6626648892	 0.2080692556	-2.1860584624	-0.284516
H	-0.1494071815	 1.8622602245	 1.2073423347	 0.109525
H	-0.4001857375	 1.9740627627	-0.5960933076	 0.127534
H	 2.0789834263	 0.7393710526	 0.8710947487	 0.090388
H	-0.1475450433	-0.6950581404	 0.9778460263	 0.089101
H	-0.512714794	-1.6462570043	-1.309269233	 0.08266
H	 3.0052008454	 0.2932728413	-1.333349698	 0.081838
H	 1.2936273974	 2.3919771809	-2.0775658035	 0.110419
H	 2.2655396661	 1.4887669655	-3.2378730317	 0.101699
H	-0.3704881918	 1.5704134737	-3.6438416913	 0.104118
H	 0.5169151808	 0.0550848088	-3.8879484651	 0.105249
204.0864	211.2216	334.5923	404.6753	470.2127	532.1703	558.847	640.7497	714.7276	732.9165	771.1676	815.3617	828.2946	893.8621	901.0903	913.0357	943.9457	968.3451	994.7829	1015.7058	1041.3892	1066.7151	1070.4146	1094.9002	1104.3984	1109.3378	1144.7683	1199.8616	1221.1003	1268.6164	1298.1973	1327.8554	1330.1207	1341.967	1345.0383	1368.2079	1382.151	1412.8543	1482.4302	1491.3066	1504.8662	3024.9588	3049.5734	3077.0571	3085.7605	3099.6689	3105.0119	3134.6877	3175.5903	3186.7382	3224.6838
C1C2C1C1OC2CCO1	C1[C@H]2[C@@H]1[C@@H]1O[C@H]2CCO1	
InChI=1S/C7H10O2/c1-2-8-7-5-3-4(5)6(1)9-7/h4-7H,1-3H2	InChI=1S/C7H10O2/c1-2-8-7-5-3-4(5)6(1)9-7/h4-7H,1-3H2/t4-,5+,6-,7-/m0/s1
