19
gdb 16533	2.9287	2.18019	1.4955	1.9815	72.06	-0.2114	0.0756	0.2871	909.4676	0.165106	-365.012707	-365.004824	-365.00388	-365.04467	29.701	
C	 0.2252569439	 1.5633778709	 0.0147853345	-0.39792
C	 0.0718343796	 0.0549089699	-0.0353546104	 0.044263
C	 0.6838128958	-0.7298905526	-1.2205899942	 0.082384
O	 1.9680622669	-0.2512259056	-1.6669627182	-0.295058
C	 2.67264879	-1.2101299468	-0.8327147201	-0.074034
C	 1.3554830132	-1.6483507699	-0.1749334174	-0.039896
N	 0.9401687945	-0.718454918	 0.8983391516	-0.091031
C	 0.3298851933	-1.2707076402	 2.0864551029	-0.330171
H	 1.2533932924	 1.8409917259	-0.2282372663	 0.135594
H	-0.4476664872	 2.0468766236	-0.7017742859	 0.111605
H	-0.0146403298	 1.9446819312	 1.0127695678	 0.113287
H	-0.9877911501	-0.2357649148	 0.0748789074	 0.056406
H	 0.0357467969	-1.0277390612	-2.0473614778	 0.077696
H	 3.1632187829	-1.9760244984	-1.4479457218	 0.09526
H	 3.3980004899	-0.7334242719	-0.1660168533	 0.108096
H	 1.1433274911	-2.708578341	-0.0194249103	 0.072956
H	 1.0599238233	-1.8735389704	 2.637258628	 0.119529
H	 0.0080655938	-0.4578601541	 2.7462046617	 0.122845
H	-0.5530409705	-1.9064533068	 1.8796155417	 0.088186
102.6986	204.532	208.0398	211.7146	220.5225	281.8164	380.5076	411.3319	552.7982	658.6053	747.0097	816.6112	828.2412	893.1059	914.3473	953.7333	995.5029	1011.2812	1053.8116	1068.7871	1109.3078	1128.5737	1157.1821	1159.575	1190.03	1199.2235	1214.6547	1250.8154	1292.5342	1308.7151	1340.9104	1356.1342	1376.0448	1403.4784	1456.5261	1484.3327	1491.263	1495.8696	1500.1541	1501.9001	2914.7435	2945.7177	3010.588	3036.2113	3053.4666	3077.5257	3084.4306	3091.3267	3095.9648	3099.9675	3130.8647
CC1C2OCC2N1C	C[C@H]1[C@H]2OC[C@H]2N1C	
InChI=1S/C6H11NO/c1-4-6-5(3-8-6)7(4)2/h4-6H,3H2,1-2H3	InChI=1S/C6H11NO/c1-4-6-5(3-8-6)7(4)2/h4-6H,3H2,1-2H3/t4-,5+,6+/m0/s1
