16
gdb 16505	3.72816	2.30148	1.95329	2.7659	62.83	-0.2401	0.0758	0.3159	735.8182	0.131755	-383.67489	-383.668729	-383.667785	-383.704678	25.726	
O	-0.2394958743	 1.3278113789	 0.1259340375	-0.460824
C	-0.0643122618	-0.0464973107	 0.0148290101	 0.419223
C	-0.4292298886	-0.7743386877	-1.2544701795	-0.374504
C	-1.2423287124	-0.9901297103	 0.0101484003	-0.099386
C	-0.7408553986	-1.9718428094	 1.0898012619	 0.067967
C	 0.7361384283	-2.2652166896	 0.7428289365	-0.244364
C	 0.7831448742	-0.762338562	 1.0957579159	-0.004622
O	-0.2385600892	-1.04190429	 2.1179836493	-0.296811
H	 0.4614562981	 1.7601785337	-0.3733511664	 0.284427
H	-0.9198759585	-0.1470337151	-1.9935363065	 0.11685
H	 0.1874688066	-1.5549672754	-1.6843397163	 0.113181
H	-2.258754032	-0.6210549137	 0.0611433293	 0.107446
H	-1.4303102262	-2.7224501158	 1.4742815545	 0.081556
H	 1.2036854456	-2.8576015558	 1.528667974	 0.115883
H	 1.0295281836	-2.6276276185	-0.242819675	 0.095844
H	 1.6648711453	-0.2471838185	 1.4766547043	 0.078134
217.2582	287.2743	325.4968	401.699	467.6627	505.6345	600.4964	623.3059	709.4716	763.759	842.5065	852.701	870.4952	897.5947	928.2859	945.2239	982.4552	1009.5394	1023.5213	1033.7349	1073.7729	1086.1172	1107.5641	1175.3409	1209.6138	1227.4372	1248.333	1279.1851	1283.6021	1299.6107	1328.2946	1402.1424	1480.881	1513.2567	3086.4035	3125.1773	3126.7899	3131.0609	3151.463	3198.747	3210.5157	3800.3076
OC12CC1C1CC2O1	O[C@]12C[C@H]1[C@H]1C[C@@H]2O1	
InChI=1S/C6H8O2/c7-6-2-3(6)4-1-5(6)8-4/h3-5,7H,1-2H2	InChI=1S/C6H8O2/c7-6-2-3(6)4-1-5(6)8-4/h3-5,7H,1-2H2/t3-,4+,5-,6+/m0/s1
