19
gdb 60638	2.90703	1.11817	0.85562	2.2987	71.69	-0.2518	-0.0343	0.2175	1327.8532	0.156927	-460.15477	-460.145092	-460.144148	-460.190663	33.907	
C	-0.0589254203	 1.4264706832	 0.0426065674	-0.481751
C	 0.1002258628	-0.0749184387	 0.0454624264	 0.362406
O	 0.3210121298	-0.7033361077	 1.0594463497	-0.316667
C	-0.0240657864	-0.8393790854	-1.27889774	 0.016091
O	 0.2138814875	-2.2035474614	-1.0577025665	-0.436514
C	-1.4036357846	-0.6577186466	-1.9231194583	-0.045496
C	-1.6829319505	 0.6040223243	-2.7733291496	-0.096535
O	-1.9594516209	-0.185916505	-3.9417074791	-0.272836
C	-1.6146256445	-1.4101769701	-3.2552809255	-0.079829
H	 0.5761787433	 1.8843948975	-0.7221211012	 0.147482
H	-1.094234171	 1.6938209506	-0.1975100522	 0.15697
H	 0.1927760864	 1.824875447	 1.0260574255	 0.151459
H	 0.7367240462	-0.4316621691	-1.9687258932	 0.088592
H	 0.3625021449	-2.2829411189	-0.1003923166	 0.29389
H	-2.1824743023	-0.8737905558	-1.1869765861	 0.088947
H	-2.5432299725	 1.214502141	-2.4728148496	 0.103797
H	-0.8175898314	 1.265763748	-2.9222916929	 0.094682
H	-0.7103455842	-1.8756147812	-3.6651548384	 0.115838
H	-2.4325284721	-2.1379450616	-3.2762897999	 0.109475
52.9967	62.3723	81.9832	119.7577	139.4286	257.8487	296.4013	338.7411	388.3434	443.7143	506.4917	556.7602	633.3671	781.8167	825.7663	885.5085	902.5056	965.5133	977.9552	1004.0807	1036.6068	1046.1497	1099.9122	1134.4203	1148.4989	1163.8681	1175.083	1208.8178	1259.9173	1277.9148	1305.3029	1311.2622	1372.5278	1385.0809	1392.4893	1436.7094	1462.0235	1473.8538	1512.3584	1537.4391	1795.5727	2946.9315	2994.7897	3028.6978	3040.4867	3043.4281	3067.5668	3083.4443	3105.5116	3154.4389	3660.5879
CC(=O)C(O)C1COC1	CC(=O)[C@@H](O)C1COC1	
InChI=1S/C6H10O3/c1-4(7)6(8)5-2-9-3-5/h5-6,8H,2-3H2,1H3	InChI=1S/C6H10O3/c1-4(7)6(8)5-2-9-3-5/h5-6,8H,2-3H2,1H3/t6-/m1/s1
