16
gdb 27740	2.37897	1.44236	0.90363	2.4435	79.59	-0.205	-0.0347	0.1704	1236.8057	0.125104	-434.139995	-434.131164	-434.13022	-434.174544	31.759	
C	-0.0172407577	 1.4522816474	 0.03091983	-0.498535
C	 0.0115818931	-0.0373970675	-0.0230269506	 0.362123
N	 0.0199173343	-0.7536743311	-1.1449076403	-0.354227
C	 0.0486025335	-2.0594823958	-0.7528525093	 0.244461
N	 0.1203928366	-3.0590460493	-1.692782115	-0.590371
C	 0.0562051755	-2.1555331287	 0.6417037001	 0.172404
N	 0.0311731592	-0.8260402128	 1.0664395319	-0.338429
C	 0.0854773568	-3.2322146429	 1.5787843141	 0.047207
O	 0.0862981147	-3.0827936539	 2.7929694174	-0.340248
H	 0.8708692333	 1.8515420853	 0.5329303016	 0.144145
H	-0.0470677155	 1.8422413452	-0.9866200205	 0.160551
H	-0.8961409125	 1.8172899623	 0.5733535016	 0.142193
H	-0.1690829989	-2.7649307001	-2.6139527669	 0.261802
H	-0.2365142407	-3.962637665	-1.4250085156	 0.257676
H	 0.0292278469	-0.5664900175	 2.0399330436	 0.277927
H	 0.1099904015	-4.2475460155	 1.1253684676	 0.051323
24.6468	132.6667	150.233	216.7434	234.0685	276.3015	345.3253	394.2029	417.1497	541.5436	563.6454	566.5373	644.3245	684.476	692.2235	756.8709	880.9791	999.6198	1013.8737	1038.6292	1061.1934	1088.3573	1215.1927	1226.8807	1354.0816	1396.0815	1415.3549	1448.6877	1482.7373	1486.7046	1516.0224	1565.1221	1603.5318	1655.7586	1735.4449	2878.7593	3039.0696	3091.7683	3155.8896	3579.1868	3655.3545	3688.9955
CC1=NC(N)=C(N1)C=O	Cc1nc(N)c([nH]1)C=O	
InChI=1S/C5H7N3O/c1-3-7-4(2-9)5(6)8-3/h2H,6H2,1H3,(H,7,8)	InChI=1S/C5H7N3O/c1-3-7-4(2-9)5(6)8-3/h2H,6H2,1H3,(H,7,8)
