19
gdb 91689	2.95304	1.23161	1.06438	2.9683	75.79	-0.2402	-0.0232	0.217	1191.7732	0.159538	-423.015588	-423.00753	-423.006586	-423.0483	30.943	
C	-0.1625346195	 1.5342615126	-0.0073894312	-0.421162
C	 0.0516909843	 0.0232149404	 0.001444545	 0.035405
C	 1.0204752274	-0.5467073126	-1.0894309789	-0.247983
C	 1.9797049197	-1.2916585837	-0.13953091	 0.058747
O	 1.060041213	-1.9296201827	 0.8002015804	-0.299071
C	 0.8025607209	-0.5561992229	 1.2254824036	 0.043142
C	 2.3025126816	-0.2310539882	 0.9540747502	-0.090472
C	 3.2320736839	-0.7227403698	 2.0266041152	 0.143761
O	 4.1429022129	-0.068354349	 2.4717165581	-0.264963
H	 0.782802711	 2.0836876043	 0.0476889098	 0.123019
H	-0.6712339296	 1.8476960682	-0.9244932964	 0.124678
H	-0.7827053269	 1.8513160646	 0.8381829221	 0.12021
H	-0.917134183	-0.4819234679	-0.056648386	 0.088685
H	 0.5297143873	-1.2364498718	-1.7790151189	 0.113836
H	 1.5222684705	 0.2333181519	-1.6694150764	 0.106006
H	 2.7333971005	-1.9619882447	-0.552861849	 0.091471
H	 0.3488260027	-0.4714957604	 2.2136402995	 0.089274
H	 2.5826410347	 0.7773915959	 0.6447855927	 0.088737
H	 3.0203280185	-1.7497262242	 2.3900143806	 0.096683
91.7737	148.3622	201.8218	231.531	253.0962	312.2221	394.5155	459.582	520.9364	551.9393	673.34	803.6798	827.2338	870.9784	883.6392	914.1539	927.9135	944.4183	964.5194	1028.2784	1058.2331	1071.0454	1074.2848	1110.0953	1128.9413	1184.9977	1193.8833	1207.672	1233.0644	1255.6662	1285.1579	1299.2497	1306.8799	1351.2014	1367.3249	1416.5714	1421.2032	1488.1364	1498.6471	1500.9038	1820.0905	2921.5957	3033.1602	3058.9351	3064.8968	3098.219	3102.8948	3109.0574	3118.2989	3119.1564	3125.5779
CC1CC2OC1C2C=O	C[C@H]1C[C@@H]2O[C@H]1[C@H]2C=O	
InChI=1S/C7H10O2/c1-4-2-6-5(3-8)7(4)9-6/h3-7H,2H2,1H3	InChI=1S/C7H10O2/c1-4-2-6-5(3-8)7(4)9-6/h3-7H,2H2,1H3/t4-,5-,6-,7+/m0/s1
