18
gdb 17721	4.38031	2.45982	2.00578	0.2052	75.39	-0.2643	0.1014	0.3658	733.4262	0.15707	-310.590237	-310.584697	-310.583753	-310.619396	24.125	
C	-0.0845581105	 1.5754765973	 0.0074003294	-0.353486
C	 1.4508905026	 1.2881606452	-0.0348617019	-0.08708
C	 1.3299145893	 0.1501366015	 1.0225529584	-0.040596
C	 1.8461794923	-1.0204805	 0.1597394859	-0.075736
C	 0.7824790726	-2.1462626378	 0.3108301759	-0.217917
C	-0.5755764946	-1.3378644015	 0.2972520666	-0.351257
C	 0.0389868978	 0.0396963621	 0.1430938941	 0.346926
C	 1.2460409635	-0.0222817932	-0.8525593236	-0.040595
H	-0.4607871716	 2.1228046513	 0.8781656808	 0.092092
H	-0.5408455164	 1.9582238404	-0.9116506596	 0.092092
H	 2.2581139276	 2.0144506514	-0.1377520128	 0.066915
H	 1.3290288987	 0.2590307063	 2.1096814537	 0.061529
H	 2.8937634319	-1.3295248122	 0.1412972213	 0.053175
H	 0.8341074286	-2.86675367	-0.5118220142	 0.097516
H	 0.9126031052	-2.7054184404	 1.242999928	 0.097516
H	-1.2220375229	-1.6253199759	-0.5373789172	 0.098689
H	-1.1432239402	-1.4633428019	 1.2241741586	 0.098688
H	 1.148022526	-0.1130612628	-1.9369296631	 0.061529
240.9854	355.5828	411.1627	429.7699	666.9133	721.8318	734.0653	798.6759	820.2357	850.3059	861.7919	875.4592	884.4897	925.9444	936.6985	954.6968	992.2098	993.5426	1015.4375	1041.8072	1087.5119	1100.3582	1140.3243	1143.7008	1165.8259	1189.8508	1190.3126	1208.4436	1222.4437	1234.1794	1258.6978	1266.7369	1308.9363	1318.2539	1340.998	1486.8956	1508.5921	1509.009	3033.587	3041.9965	3052.9489	3078.029	3078.8649	3080.8942	3090.4752	3091.3398	3098.656	3106.5017
C1C2C3C4CCC13C24	C1[C@H]2[C@@H]3[C@H]4CC[C@@]13[C@@H]24	
InChI=1S/C8H10/c1-2-8-3-5-6(8)4(1)7(5)8/h4-7H,1-3H2	InChI=1S/C8H10/c1-2-8-3-5-6(8)4(1)7(5)8/h4-7H,1-3H2/t4-,5+,6+,7-,8-
