20
gdb 71942	2.67125	1.98645	1.47564	1.1681	77.26	-0.2132	0.0716	0.2848	960.4823	0.172817	-403.112512	-403.105159	-403.104214	-403.143987	29.972	
C	 0.0593200754	 1.5188151631	 0.1046643717	-0.463419
C	-0.0117784786	 0.0122775073	-0.0292365324	 0.407543
C	 0.2822978831	-0.6410733218	-1.4108269606	-0.214578
N	-0.9609265669	-1.4766614214	-1.3462922436	-0.142287
C	-0.7682111959	-2.7058930418	-0.5008122721	-0.18126
C	-1.176550082	-1.9608546291	 0.8015034526	-0.051874
C	-0.03812175	-1.5556386746	 1.7304597691	-0.100972
O	 0.752000238	-0.608493973	 1.0132871592	-0.310448
C	-1.3785496979	-0.7219574505	-0.0945319326	-0.063989
H	 1.099589002	 1.8555745439	 0.0495941807	 0.12807
H	-0.5046579838	 2.0115086696	-0.6932106609	 0.116548
H	-0.3480796348	 1.8399520262	 1.0687369002	 0.119029
H	 0.2161519991	 0.0602031794	-2.2486849018	 0.100973
H	 1.2214556557	-1.198227302	-1.4755272461	 0.105053
H	-1.4684412518	-3.4916689849	-0.7982226783	 0.107065
H	 0.2478381646	-3.1158650582	-0.5216721095	 0.103355
H	-2.0421391595	-2.3633345917	 1.329769901	 0.076426
H	-0.4342133911	-1.1054901251	 2.6544921795	 0.091549
H	 0.609032083	-2.3939596407	 2.0126287922	 0.105777
H	-2.3100160287	-0.1536003147	-0.1025092781	 0.067441
105.8001	222.1075	236.7539	304.072	340.9263	381.3947	435.4366	558.5102	641.6024	663.4983	772.9992	793.1752	828.3221	851.8212	892.2902	915.3088	919.5486	951.4277	964.3024	971.7836	1001.4315	1021.3667	1086.7049	1115.2177	1153.4493	1179.974	1187.7967	1193.3655	1209.191	1218.4363	1227.0652	1260.0927	1269.331	1308.2114	1323.2151	1338.2694	1387.7433	1409.3432	1476.4529	1485.1738	1491.4523	1498.7123	1520.1464	2977.4662	3033.171	3034.2695	3041.8639	3058.2978	3084.0253	3092.5035	3099.3577	3105.5102	3106.3426	3111.758
CC12CN3CC(CO1)C23	C[C@@]12CN3C[C@@H](CO1)[C@@H]23	
InChI=1S/C7H11NO/c1-7-4-8-2-5(3-9-7)6(7)8/h5-6H,2-4H2,1H3	InChI=1S/C7H11NO/c1-7-4-8-2-5(3-9-7)6(7)8/h5-6H,2-4H2,1H3/t5-,6-,7-/m0/s1
