13
gdb 132630	3.12963	1.3436	0.94085	4.5336	65.28	-0.219	-0.0286	0.1904	1112.276	0.089297	-502.049389	-502.04214	-502.041196	-502.081041	27.816	
N	-0.0093625911	 1.4091063775	 0.1618402661	-0.593628
C	 0.0137441652	 0.0202780017	 0.0529307239	 0.293533
C	-1.1657311115	-0.7326652151	 0.027655351	-0.065755
N	-1.1856578175	-2.0673468963	-0.012550796	-0.304425
C	-0.0521270019	-2.7148632447	-0.0328062361	 0.203012
F	-0.0836169364	-4.0447447254	-0.0762028474	-0.061265
C	 1.1853144768	-2.0687760052	-0.0152053087	 0.136381
F	 2.3110180811	-2.7781264958	-0.0421278011	-0.05632
C	 1.2234860855	-0.6906639713	 0.0288885851	-0.282788
H	 0.7935933446	 1.8831483546	-0.2250653619	 0.253377
H	-0.8713189248	 1.8404517796	-0.1393143738	 0.254475
H	-2.1320907983	-0.234417325	 0.0434459876	 0.105814
H	 2.1830633983	-0.1857253644	 0.0491116713	 0.117588
142.6132	233.3314	276.966	287.6027	325.1555	398.465	478.4581	484.0722	509.5364	592.5253	607.9633	652.192	732.9677	745.4489	813.0983	895.3886	904.1605	1005.4356	1103.1783	1195.7053	1232.1434	1325.3093	1333.1164	1371.8605	1496.7106	1530.9053	1628.658	1651.3792	1665.254	3153.9443	3194.5234	3565.7072	3663.0957
NC1=CN=C(F)C(F)=C1	Nc1cnc(F)c(F)c1	
InChI=1S/C5H4F2N2/c6-4-1-3(8)2-9-5(4)7/h1-2H,8H2	InChI=1S/C5H4F2N2/c6-4-1-3(8)2-9-5(4)7/h1-2H,8H2
