20
gdb 86985	4.22852	0.6962	0.6679	4.9017	80.57	-0.2589	0.0403	0.2992	1717.6998	0.170244	-403.160064	-403.150539	-403.149595	-403.195614	34.152	
C	 0.6150198974	 1.4508603251	 0.2621591279	-0.398709
C	 0.1049065811	 0.0493762424	 0.0037757529	 0.177569
C	 0.5016712604	-0.6641330837	-1.3087617964	-0.331786
C	 1.0551189925	-1.7642102557	-0.3803841896	 0.155802
C	 2.5189025315	-2.1515687938	-0.5016816395	-0.206791
C	 2.9788530428	-2.9489076885	 0.7354919476	-0.336445
C	 4.3940822687	-3.3035682704	 0.6816493323	 0.255715
N	 5.5152603346	-3.5771345137	 0.6205189641	-0.307488
O	 0.8025822656	-0.9536444219	 0.7912157442	-0.31694
H	 1.6855091272	 1.5228244447	 0.0467252881	 0.119827
H	 0.0821613573	 2.1723300777	-0.3669493585	 0.119926
H	 0.4557046741	 1.7286905697	 1.3088325905	 0.131031
H	-0.9742307008	-0.0038625789	 0.2048235051	 0.078073
H	-0.3103873015	-0.9506095343	-1.9778208684	 0.1126
H	 1.2732072965	-0.1395092815	-1.878327214	 0.110342
H	 0.4292045304	-2.669708243	-0.3602133078	 0.074122
H	 2.6669496887	-2.7460612603	-1.4104592892	 0.119727
H	 3.1300074771	-1.2479811266	-0.596058879	 0.120387
H	 2.7917331234	-2.3518264438	 1.6340363021	 0.17412
H	 2.3921894428	-3.8696958134	 0.8368731078	 0.148914
41.4927	84.6168	98.4305	124.4786	213.414	235.1278	328.628	364.1633	397.6842	425.2222	459.6554	549.6838	690.7906	770.3008	830.8017	888.095	911.9275	924.5032	941.1789	964.6304	1016.9261	1058.8579	1072.5504	1107.3308	1132.0283	1146.9295	1195.9802	1217.4192	1250.8751	1270.5788	1289.262	1309.9353	1340.9492	1366.6803	1383.4725	1405.1026	1421.1269	1468.2864	1481.0544	1484.2818	1490.875	1495.9665	2362.3304	2981.1126	3003.0091	3034.0661	3040.5248	3048.6012	3070.4008	3082.5759	3101.2565	3106.8215	3113.2379	3133.1176
CC1CC(CCC#N)O1	C[C@H]1C[C@@H](CCC#N)O1	
InChI=1S/C7H11NO/c1-6-5-7(9-6)3-2-4-8/h6-7H,2-3,5H2,1H3	InChI=1S/C7H11NO/c1-6-5-7(9-6)3-2-4-8/h6-7H,2-3,5H2,1H3/t6-,7+/m0/s1
