17
gdb 33908	3.91323	1.30041	1.1767	4.9017	77.13	-0.2495	-0.0059	0.2437	1066.0975	0.137598	-380.811719	-380.804556	-380.803612	-380.843194	28.552	
N	 0.2004674289	-1.1502134178	 0.0830306644	-0.339654
C	 0.0951504818	 0.0005771749	 0.0182916333	 0.204762
C	-0.0876487632	 1.418951871	-0.0411090628	 0.191917
C	 0.2558113251	 2.2179393368	-1.2423779393	-0.276739
N	 1.0915842414	 2.4115306827	-0.0551727976	-0.167692
C	 0.3289181653	 3.2395115317	 0.9749025812	 0.040074
C	-0.649752394	 4.3519284789	 0.5136688612	-0.247523
C	-1.8309058027	 3.3241967926	 0.567788924	-0.251222
C	-0.8353343038	 2.2278784876	 1.041507776	-0.086797
H	 0.7850290749	 1.69587737	-2.0335040209	 0.147834
H	-0.417407576	 2.993732133	-1.5915006898	 0.130767
H	 0.9856838181	 3.4495518989	 1.8173028142	 0.097373
H	-0.7393423571	 5.1498324081	 1.2541886682	 0.115787
H	-0.4381735025	 4.8157533496	-0.4530225254	 0.115777
H	-2.58314667	 3.5685974859	 1.3201509183	 0.116029
H	-2.3452146936	 3.1225413795	-0.3752647218	 0.112204
H	-1.0683850426	 1.6605458165	 1.9400658968	 0.097102
127.0904	150.8917	243.1871	336.6842	351.7571	458.8202	531.5748	550.9009	608.1937	685.0469	723.4196	749.6267	805.3458	849.394	876.4424	900.6392	942.7934	953.7503	960.5789	1017.1597	1083.2445	1107.7437	1129.0207	1148.8864	1172.0075	1190.6376	1221.0826	1240.5796	1259.4332	1273.7774	1294.523	1305.8399	1360.3023	1472.9766	1482.1885	1508.5912	2344.011	3065.4865	3069.7925	3107.3454	3123.1481	3126.9203	3131.2059	3141.0681	3215.5249
N#CC12CN1C1CCC21	N#C[C@]12CN1[C@H]1CC[C@@H]21	
InChI=1S/C7H8N2/c8-3-7-4-9(7)6-2-1-5(6)7/h5-6H,1-2,4H2	InChI=1S/C7H8N2/c8-3-7-4-9(7)6-2-1-5(6)7/h5-6H,1-2,4H2/t5-,6+,7-,9?/m1/s1
