14
gdb 66703	3.20045	1.7437	1.44173	2.4186	64.08	-0.2371	-0.0296	0.2075	882.3655	0.101405	-436.625775	-436.619353	-436.618409	-436.656379	26.101	
O	-0.1182143306	 1.3997331664	 0.0814407965	-0.45149
C	 0.0305301719	 0.0421647599	 0.0373425326	 0.376834
C	 0.7985892927	-0.8633552877	 1.0447957374	-0.138345
C	 1.0672022683	-2.1403014227	 0.3224986205	-0.188564
N	-0.2620852421	-1.9000264227	 0.9677487741	-0.144759
C	-0.9999295278	-1.0165341554	-0.0438244337	-0.074912
C	-0.0661654597	-0.8274316906	-1.230680374	-0.304482
C	 0.9799840841	-1.8925526432	-1.1622036509	 0.47407
O	 1.6089067947	-2.4156564161	-2.0440748355	-0.332089
H	 0.6472201146	 1.8129223259	-0.3358593286	 0.298368
H	 1.2444628177	-0.5619807244	 1.9859978318	 0.116574
H	 1.6700553165	-2.9405255886	 0.7314703694	 0.121748
H	-2.079782424	-1.0164180989	-0.0873224234	 0.124995
H	-0.4266848363	-0.4002712519	-2.1550493861	 0.12205
146.2573	276.9693	322.295	348.2875	453.3932	538.1338	571.486	607.3395	696.5632	732.1768	760.76	796.3206	810.8431	869.068	900.6537	931.4445	937.9907	971.923	995.8531	1021.3511	1049.3524	1121.1604	1150.1049	1180.1356	1213.693	1249.6488	1265.2624	1294.601	1322.9913	1487.2572	1857.1987	3179.1513	3212.3449	3220.5061	3238.1717	3781.1633
OC12C3C4N3C1C2C4=O	O[C@@]12[C@@H]3[C@H]4N3[C@@H]1[C@@H]2C4=O	
InChI=1S/C6H5NO2/c8-3-1-4-6(1,9)5-2(3)7(4)5/h1-2,4-5,9H	InChI=1S/C6H5NO2/c8-3-1-4-6(1,9)5-2(3)7(4)5/h1-2,4-5,9H/t1-,2-,4+,5-,6+,7?/m0/s1
