19
gdb 67027	2.15483	2.1215	1.62534	1.6444	79.31	-0.2205	0.0075	0.2279	954.7786	0.158447	-385.860525	-385.852581	-385.851636	-385.892244	32.086	
C	-0.0776342769	 1.564859301	-0.0626253919	-0.520097
C	-0.0423015614	 0.0696588449	 0.0145718893	 0.207805
C	 0.5225134447	-1.0124738437	-0.8282081672	 0.04983
O	 1.1811102866	-1.6950935599	 0.2026428246	-0.328529
C	 0.4401448673	-0.846340473	 1.2026026426	 0.352553
C	 1.36985245	-0.3334281179	 2.2662253544	-0.497301
C	-0.7571149294	-1.6818598021	 1.5776639533	-0.152388
C	-1.5687027973	-1.7556632523	 0.5118683957	-0.064283
C	-1.0393108451	-0.9060787358	-0.5754662668	-0.190293
H	 0.8870774306	 2.0071325987	 0.2098720741	 0.1238
H	-0.3155467889	 1.890693543	-1.0805510272	 0.124303
H	-0.8417758175	 1.980579607	 0.6043278057	 0.126057
H	 0.9424840947	-1.0623642345	-1.8263551154	 0.106794
H	 2.1999049103	 0.2256041982	 1.8263904463	 0.126717
H	 0.8304628788	 0.3202750902	 2.9597230073	 0.123522
H	 1.7862359489	-1.1691753017	 2.8376066521	 0.132476
H	-0.8198213187	-2.2640925953	 2.4883003525	 0.09623
H	-2.4297753769	-2.404456283	 0.4057482208	 0.100938
H	-1.6353705497	-0.6067149437	-1.4301777603	 0.081868
182.3508	185.508	201.2509	218.9595	294.4799	340.7305	420.3032	464.716	561.0109	604.5992	626.7001	701.293	726.9783	747.0873	783.9955	794.1179	880.783	891.8897	913.4809	924.047	959.8366	1015.9474	1033.1888	1053.4196	1097.8182	1115.4458	1139.1561	1174.8039	1213.1542	1218.8345	1267.9076	1311.4705	1372.6739	1407.9688	1413.2213	1457.489	1480.772	1483.6091	1492.2878	1497.0462	1625.4551	3024.3526	3038.4135	3085.9829	3097.2305	3107.5843	3119.9542	3176.7761	3184.9699	3197.6183	3221.4968
CC12C3OC1(C)C=CC23	C[C@@]12[C@H]3O[C@]1(C)C=C[C@@H]23	
InChI=1S/C8H10O/c1-7-4-3-5-6(9-7)8(5,7)2/h3-6H,1-2H3	InChI=1S/C8H10O/c1-7-4-3-5-6(9-7)8(5,7)2/h3-6H,1-2H3/t5-,6+,7-,8-/m1/s1
