21
gdb 115630	2.14517	1.45835	1.03282	2.1239	79.78	-0.2264	0.0717	0.2981	1243.2745	0.181013	-424.182013	-424.172463	-424.171519	-424.216556	35.546	
C	 0.2755114613	 1.4767105438	 0.3548470679	-0.241584
O	 0.8526205928	 0.2084394333	 0.1236757418	-0.254221
C	 0.7195130918	-0.6747734529	 1.2092676458	 0.086992
C	-0.6396960642	-1.3775877139	 1.4977979831	-0.255794
C	 0.149797509	-2.7069473643	 1.7137580248	-0.321034
C	 1.336478767	-2.0522550049	 0.994359836	 0.278652
C	 1.9514430731	-2.4797196535	-0.32152583	-0.383232
C	 2.8049666481	-2.3125514984	 0.909063315	 0.059649
O	 3.6976598781	-1.2402734591	 1.0312905423	-0.435721
H	 0.7183700302	 1.9690361183	 1.2343862286	 0.108471
H	 0.4678345188	 2.088568633	-0.5295763156	 0.128732
H	-0.8109197584	 1.4075442267	 0.5084381004	 0.113584
H	 1.1194029535	-0.2012512932	 2.1219445911	 0.070391
H	-1.2451566561	-1.0029029402	 2.3258698123	 0.095726
H	-1.2458562393	-1.4180851246	 0.5890379824	 0.112456
H	 0.3469961516	-2.9116960528	 2.7705993024	 0.106718
H	-0.2686519844	-3.6051098938	 1.254134955	 0.105186
H	 1.7453582994	-3.4865712439	-0.6731740929	 0.109039
H	 2.0274992628	-1.7304012049	-1.1035756603	 0.124703
H	 3.2231423301	-3.1983444416	 1.3769605233	 0.101901
H	 3.3100187948	-0.4841433732	 0.5743435167	 0.289385
72.3653	91.3293	139.0235	165.9308	198.3733	235.1153	305.8037	344.8824	406.0368	440.0359	449.5512	512.2186	623.5443	728.3648	789.1005	818.9198	881.8885	894.2728	929.3034	971.9264	998.6908	1025.6821	1041.3558	1091.6621	1098.0827	1114.9713	1144.0653	1165.9622	1177.3257	1185.093	1211.7933	1224.6676	1248.0414	1266.1911	1283.7029	1326.3642	1366.4809	1396.9663	1439.4112	1474.4668	1481.3464	1487.8401	1490.2881	1498.2343	1509.549	2956.9806	2981.5337	3032.7746	3052.1797	3064.0109	3103.0269	3117.1445	3117.3707	3124.9926	3162.1644	3208.0268	3788.9772
COC1CCC11CC1O	CO[C@H]1CC[C@]21C[C@H]2O	
InChI=1S/C7H12O2/c1-9-6-2-3-7(6)4-5(7)8/h5-6,8H,2-4H2,1H3	InChI=1S/C7H12O2/c1-9-6-2-3-7(6)4-5(7)8/h5-6,8H,2-4H2,1H3/t5-,6+,7+/m1/s1
