20
gdb 111335	2.39022	1.55523	1.13	1.9101	79.81	-0.2379	0.0795	0.3174	1151.4031	0.170895	-403.075849	-403.067301	-403.066357	-403.109121	32.605	
C	 0.2531878606	 1.3415796648	 0.1750915244	-0.238353
O	-0.2352946667	 0.0620061033	-0.1641296844	-0.242542
C	 0.514686564	-0.5688495829	-1.1696810378	 0.034752
C	 1.9159931586	-1.1188744918	-0.8415972956	-0.086642
C	 1.8273395838	-2.2180236824	 0.1813186819	-0.285515
C	 1.4532691585	-2.5295203215	-1.2408604994	-0.128278
C	 0.0592168676	-1.9986065479	-1.5021614497	 0.343021
C	-1.2674345261	-2.5984472298	-1.2590527592	-0.300745
N	-0.7678392426	-2.380355346	-2.6372021589	-0.39166
H	 1.2770956683	 1.2954723709	 0.5736139462	 0.113328
H	 0.2504152473	 2.0199019786	-0.6930826572	 0.102382
H	-0.406984207	 1.749510216	 0.9440552304	 0.127559
H	 0.5473394378	 0.0603412192	-2.0753359289	 0.066183
H	 2.8501234017	-0.6279239154	-1.0831087725	 0.086516
H	 2.7807895046	-2.6136888579	 0.5156514544	 0.111891
H	 1.0587563165	-2.1813364781	 0.9482615273	 0.121716
H	 1.9664319927	-3.2628905715	-1.8488733234	 0.099063
H	-1.349519399	-3.6413749706	-0.9651492155	 0.116034
H	-2.0472106855	-1.9462599294	-0.8759239365	 0.122298
H	-1.210763445	-1.5577127576	-3.0417517855	 0.228992
82.5449	122.6988	165.2604	197.6349	258.291	275.2715	304.2835	455.9693	482.5467	562.3676	610.8142	755.4982	800.9455	824.2797	873.4125	916.1886	936.105	943.0593	968.9507	987.4873	1004.5346	1037.9218	1049.7176	1063.6975	1086.3157	1090.4244	1126.3524	1146.9794	1181.3753	1188.286	1220.7202	1245.2085	1257.7	1263.8502	1306.5345	1345.8174	1370.0199	1434.9582	1479.3875	1486.017	1489.7169	1508.9275	1515.2259	2958.3917	2975.8694	3027.8925	3109.443	3116.3963	3120.5971	3188.3433	3198.3437	3201.8473	3212.3535	3481.5933
COC1C2CC2C11CN1	CO[C@H]1[C@H]2C[C@H]2[C@]21CN2	
InChI=1S/C7H11NO/c1-9-6-4-2-5(4)7(6)3-8-7/h4-6,8H,2-3H2,1H3	InChI=1S/C7H11NO/c1-9-6-4-2-5(4)7(6)3-8-7/h4-6,8H,2-3H2,1H3/t4-,5+,6-,7-/m0/s1
