17
gdb 67297	3.12425	1.60238	1.30807	1.8028	71.91	-0.2338	0.0868	0.3206	991.4604	0.134392	-421.705829	-421.698411	-421.697467	-421.737433	29.324	
C	-0.0450337886	 1.4922681151	-0.0142172821	-0.536225
C	-0.0767385714	-0.00498053	-0.0461150107	 0.175112
C	 0.8870795847	-0.9807036842	-0.8164735666	 0.057739
O	 1.9079944916	-0.984819615	 0.2240588684	-0.337718
C	 0.6406149775	-1.004936459	 0.9414700888	 0.062562
C	-0.0715700567	-1.9643481081	-0.0699454193	-0.240902
C	-1.227872874	-0.9893359763	-0.2242905495	 0.461497
O	-2.4382290804	-0.9945282852	 0.5013774693	-0.289355
C	-2.4929665985	-0.9808523278	-0.9446361708	-0.292895
H	 0.9752182497	 1.8411763381	 0.1747109751	 0.140287
H	-0.3813436001	 1.9183693874	-0.9655109673	 0.123668
H	-0.6955715068	 1.8794543487	 0.7764849339	 0.135804
H	 1.1969246138	-0.9710223335	-1.8607980856	 0.100589
H	 0.648028272	-1.0228778891	 2.0302433894	 0.108677
H	-0.0406425492	-3.0516065723	-0.080813262	 0.094313
H	-2.8703614284	-0.0574383682	-1.3822039356	 0.117454
H	-2.8705899853	-1.8953270906	-1.4001650254	 0.119391
152.2875	179.6673	216.0105	239.197	305.1388	350.93	508.589	595.2654	599.3008	678.9649	730.154	808.0576	812.7434	816.5147	864.7236	892.6446	917.0165	920.6246	984.9089	1005.1284	1069.936	1091.3378	1106.1972	1118.1684	1142.1771	1147.8911	1156.6299	1169.0846	1201.5286	1223.8306	1303.141	1362.214	1410.3172	1469.5319	1487.6344	1493.1176	1560.7654	3033.1152	3081.6261	3099.4032	3109.1501	3125.2188	3132.11	3152.7756	3166.4762
CC12C3OC1C3C21OC1	C[C@@]12[C@H]3O[C@@H]1[C@H]3[C@]12OC1	
InChI=1S/C7H8O2/c1-6-4-3(5(6)9-4)7(6)2-8-7/h3-5H,2H2,1H3	InChI=1S/C7H8O2/c1-6-4-3(5(6)9-4)7(6)2-8-7/h3-5H,2H2,1H3/t3-,4-,5+,6+,7-/m1/s1
