13
gdb 20457	6.33663	1.42105	1.26417	4.2751	59.73	-0.2735	-0.042	0.2314	913.9467	0.097057	-394.709161	-394.702827	-394.701883	-394.74035	22.915	
C	 0.9930837121	 1.1023874811	 0.0769843366	-0.230835
N	 0.3633798147	 0.12801534	-0.8165243755	-0.310172
C	-0.3806322105	 0.5931201517	 0.3666032204	-0.134965
C	-0.6232499964	-0.4246676078	 1.4048041237	 0.384485
N	-1.5282407518	-0.2819916468	 2.3372544894	-0.17056
O	-1.4547443622	-1.4114573952	 3.1055135178	-0.147788
N	-0.4965387539	-2.2673067747	 2.6415088244	-0.061327
C	 0.0220914634	-1.6812955144	 1.6002151347	-0.111623
H	 1.8360758091	 0.7240679054	 0.6479048524	 0.132109
H	 1.0837603009	 2.1376107067	-0.2405363307	 0.129272
H	 0.0086125265	 0.5791544446	-1.6547916918	 0.246545
H	-1.1985640306	 1.2946525454	 0.2327407237	 0.113589
H	 0.8023903887	-2.1431489259	 1.0173599848	 0.161269
65.7798	169.9766	183.1327	407.8326	453.0553	643.2821	651.0035	725.1923	858.7865	891.8497	898.4139	905.6738	918.1753	936.3973	975.1096	1024.7701	1058.0151	1087.3934	1122.3139	1161.8127	1216.2162	1232.2968	1285.4196	1394.4468	1437.5094	1488.3024	1513.2301	1620.0135	3112.9628	3159.9958	3202.1566	3283.5771	3518.8486
C1NC1C1=NON=C1	C1N[C@H]1c1nonc1	
InChI=1S/C4H5N3O/c1-3(5-1)4-2-6-8-7-4/h2-3,5H,1H2	InChI=1S/C4H5N3O/c1-3(5-1)4-2-6-8-7-4/h2-3,5H,1H2/t3-/m1/s1
