25
gdb 101683	2.75393	0.77935	0.72073	1.4692	86.87	-0.2439	0.0772	0.3211	1766.3282	0.224938	-426.61517	-426.603091	-426.602147	-426.65407	42.136	
C	 1.3698788496	 1.1712134488	 0.8434738279	-0.234559
O	 1.1101646721	-0.138391497	 0.4015885199	-0.248256
C	 0.2217849265	-0.2283117434	-0.7107107601	 0.134946
C	 0.9393991881	 0.1070509728	-2.0210670589	-0.40226
C	-0.3347808688	-1.6545962786	-0.6690197609	-0.207211
C	-1.4152442637	-1.9641942245	-1.7052844558	 0.128907
C	-1.9257306691	-3.4018246745	-1.5649614244	-0.402402
O	-2.4548294364	-1.0081338001	-1.5147699342	-0.243334
C	-3.3703846839	-0.902741883	-2.5784148899	-0.233616
H	 1.920848567	 1.7724950539	 0.1044077875	 0.101339
H	 0.4413897784	 1.7080259812	 1.0955936985	 0.101772
H	 1.9840875171	 1.091671221	 1.7445924331	 0.122731
H	-0.6122029188	 0.4738391117	-0.565912776	 0.079785
H	 1.7443330866	-0.6106430263	-2.2118150888	 0.116328
H	 0.2446527057	 0.0861810761	-2.8659090756	 0.117538
H	 1.3773222065	 1.1087192074	-1.9869331733	 0.113866
H	 0.4939476025	-2.3612671539	-0.7962111205	 0.098581
H	-0.7468486899	-1.8226528665	 0.3321441083	 0.10644
H	-1.0013640869	-1.836886442	-2.7201188532	 0.062928
H	-2.6821933703	-3.6393638651	-2.318189142	 0.113329
H	-1.1024129073	-4.1123440491	-1.6886980458	 0.116485
H	-2.3668486928	-3.5518194592	-0.5744983349	 0.123884
H	-4.0309974306	-0.0616388628	-2.3520062473	 0.125627
H	-2.8623508215	-0.7041540519	-3.5358133785	 0.100528
H	-3.9885730502	-1.803957725	-2.7004038251	 0.106627
19.4298	70.4036	72.9486	102.8088	137.0955	196.7699	197.362	230.0023	241.9184	266.2447	314.4004	324.3316	348.1382	445.9219	461.9271	528.1108	546.4745	803.7053	834.3007	888.8042	907.0748	954.0041	1001.4179	1031.0837	1107.8502	1116.7537	1134.9465	1145.7774	1160.6474	1176.2176	1182.8735	1184.7104	1212.834	1232.7679	1278.0537	1307.3652	1366.4055	1380.4542	1386.5011	1400.4025	1403.288	1410.1146	1471.5648	1477.3162	1477.6445	1482.6155	1483.4709	1491.718	1494.9352	1504.6872	1505.9711	1512.8087	1513.3101	2956.7276	2971.3974	2974.087	3002.0921	3017.3985	3023.9452	3036.1147	3039.0631	3042.4411	3083.5829	3104.2896	3106.8135	3110.6099	3111.5073	3112.112	3115.5284
COC(C)CC(C)OC	CO[C@@H](C)C[C@@H](C)OC	
InChI=1S/C7H16O2/c1-6(8-3)5-7(2)9-4/h6-7H,5H2,1-4H3	InChI=1S/C7H16O2/c1-6(8-3)5-7(2)9-4/h6-7H,5H2,1-4H3/t6-,7+
