14
gdb 133223	3.07908	1.43731	0.98603	5.5864	73.61	-0.2228	-0.0544	0.1684	1110.7361	0.100577	-474.114227	-474.10642	-474.105476	-474.147008	28.344	
C	-0.0056777408	 1.4570344441	 0.0095962165	-0.32986
N	-0.0322661865	 0.0032407388	 0.000997302	-0.018096
C	-1.2166114315	-0.7028943316	 0.0040709866	-0.085769
C	-1.1734765632	-2.0459067337	-0.0036779353	 0.176753
F	-2.2882312692	-2.7557467106	-0.0011054287	-0.036322
C	 0.1046219604	-2.7293622093	-0.0150174794	 0.294385
N	 0.2077116175	-4.0017966093	-0.02267278	-0.524359
N	 1.2457276384	-1.8706577108	-0.0169696106	-0.274792
N	 1.1691259936	-0.6088743089	-0.0094465427	-0.053825
H	 1.0407656905	 1.7590163818	 0.0033363212	 0.173539
H	-0.507983417	 1.8583739695	-0.8763877631	 0.148878
H	-0.4941905885	 1.8477427953	 0.9079806142	 0.148896
H	-2.1382875372	-0.1365667171	 0.0126303858	 0.154194
H	 1.2003492235	-4.2480759581	-0.0298993666	 0.226379
75.7432	121.9066	172.3127	294.2614	326.3545	336.4943	389.7377	463.1195	528.5405	566.3091	575.0765	733.361	777.8414	834.7993	869.666	900.1256	951.4779	1051.7291	1078.0231	1152.6499	1178.1005	1273.0106	1317.1213	1373.1473	1431.8343	1453.085	1484.3855	1509.1292	1523.48	1691.5889	1722.9266	3038.228	3099.7578	3170.157	3225.7623	3457.1752
CN1C=C(F)C(=N)N=N1	Cn1cc(F)c([NH])nn1	
InChI=1S/C4H5FN4/c1-9-2-3(5)4(6)7-8-9/h2,6H,1H3	InChI=1S/C4H10FN4/c1-9-2-3(5)4(6)7-8-9/h3-4,6-8H,2H2,1H3
