17
gdb 18514	5.2926	1.15298	1.07141	1.8074	77.21	-0.2278	0.0372	0.265	1155.4175	0.141937	-326.653667	-326.645589	-326.644645	-326.687431	28.915	
C	 0.044986351	 1.55148408	-0.0782538828	-0.49814
C	 0.0377563026	 0.0973595842	-0.0129321832	 0.033127
C	 0.0365706321	-1.1072810631	 0.0278077356	 0.138163
C	 0.0323847749	-2.5550842629	 0.0960038722	-0.150255
C	 0.2682784641	-3.2457219862	 1.479998215	-0.263433
C	-1.1176796617	-3.8544643835	 1.3096521868	-0.009723
C	-2.1389575386	-2.81647981	 1.0801540415	-0.234584
N	-1.3198851978	-3.2445900063	-0.0692759432	-0.133427
H	 0.983018754	 1.9241370402	-0.5043751543	 0.150425
H	-0.7729649583	 1.922291708	-0.7058080491	 0.152476
H	-0.0696345155	 1.9989591595	 0.9152269052	 0.147431
H	 0.6958941097	-2.9680654436	-0.668297852	 0.109201
H	 1.0796233338	-3.9742104912	 1.4406109325	 0.11345
H	 0.413265906	-2.5927253828	 2.3442188815	 0.109765
H	-1.3741732108	-4.8901898925	 1.5073716395	 0.09438
H	-3.1721339018	-3.1377106881	 0.9912310075	 0.119949
H	-2.0044406236	-1.8133093917	 1.4776166774	 0.121195
27.3089	93.6057	108.7066	225.4022	294.0606	334.7783	426.1823	472.6161	532.5603	708.6021	758.6752	768.9618	782.0838	914.9849	935.7276	960.4433	1001.3711	1048.4387	1052.0029	1055.2008	1080.3322	1108.7275	1131.9083	1149.2865	1195.9956	1224.5723	1251.3532	1270.6693	1356.1085	1368.7046	1414.4438	1477.1302	1478.4725	1487.52	1504.0971	2362.2116	3027.219	3066.1177	3067.5119	3087.8027	3089.1357	3111.2512	3125.6469	3163.4939	3201.5664
CC#CC1CC2CN12	CC#C[C@H]1C[C@H]2CN12	
InChI=1S/C7H9N/c1-2-3-6-4-7-5-8(6)7/h6-7H,4-5H2,1H3	InChI=1S/C7H9N/c1-2-3-6-4-7-5-8(6)7/h6-7H,4-5H2,1H3/t6-,7-,8?/m0/s1
