22
gdb 118203	4.26442	0.6451	0.62711	4.1282	80.37	-0.2456	0.0334	0.2789	1862.5269	0.191178	-441.516511	-441.504874	-441.50393	-441.555226	39.687	
C	-0.0156799562	 1.3889601673	 0.0374784343	-0.225825
O	-0.1303383485	-0.0103981525	-0.0303150184	-0.232413
C	 0.6593149622	-0.5808507383	-1.0505461322	-0.062985
C	 0.4424035614	-2.093473065	-1.061822898	 0.029974
C	-1.0253142772	-2.4490423361	-1.3268838087	-0.398907
C	 1.3844725838	-2.7503169896	-2.0796203283	-0.325799
C	 1.4669063872	-4.268071086	-1.9076132115	 0.411537
N	 1.7651349279	-4.9589502434	-3.0467075404	-0.523255
O	 1.3143404721	-4.8218923363	-0.8359716322	-0.35957
H	 1.0192052278	 1.7060176328	 0.2447631197	 0.101721
H	-0.3387375328	 1.8729452552	-0.8984930176	 0.100835
H	-0.6583997714	 1.7324571367	 0.8518633217	 0.126607
H	 0.3882236835	-0.1449960487	-2.0304248326	 0.074686
H	 1.7257298193	-0.3486543774	-0.8800406902	 0.078505
H	 0.7176795046	-2.478049321	-0.073929867	 0.11213
H	-1.1831149545	-3.5275878039	-1.2451802282	 0.1285
H	-1.6724414408	-1.9480846669	-0.6041529707	 0.133
H	-1.3314822812	-2.1300742964	-2.3315833889	 0.096914
H	 1.0869530613	-2.4975822874	-3.1056481215	 0.094187
H	 2.4057990673	-2.3659599723	-1.9495263174	 0.12385
H	 1.8537329418	-4.5134510421	-3.9422580805	 0.256539
H	 1.8570962426	-5.9597820186	-2.9884809614	 0.259769
27.1227	55.0352	82.1544	91.7691	106.1506	133.5307	216.124	229.2117	248.8588	298.787	341.7367	378.6974	450.4833	508.1335	537.1177	618.6474	678.0654	845.9404	862.0435	910.2385	935.1142	978.3172	998.761	1071.5053	1124.8021	1132.0119	1162.0617	1171.5282	1190.3951	1221.3854	1239.9763	1268.1743	1281.2111	1324.0054	1381.0581	1400.4845	1407.1337	1425.2599	1460.6513	1481.2899	1485.7234	1495.4848	1502.929	1507.9983	1526.7749	1616.4241	1795.2462	2926.7928	2956.4618	2966.4612	3007.5681	3011.8357	3025.8492	3046.9558	3068.784	3105.0224	3112.0118	3135.6383	3604.8275	3743.5379
COCC(C)CC(N)=O	COC[C@@H](C)CC(=O)N	
InChI=1S/C6H13NO2/c1-5(4-9-2)3-6(7)8/h5H,3-4H2,1-2H3,(H2,7,8)	InChI=1S/C6H13NO2/c1-5(4-9-2)3-6(7)8/h5H,3-4H2,1-2H3,(H2,7,8)/t5-/m0/s1
