18
gdb 37585	3.49579	1.98374	1.96138	1.59	76.92	-0.2294	0.012	0.2414	808.998	0.152829	-364.807402	-364.801916	-364.800972	-364.836769	24.927	
C	-0.0378916236	 1.5695533786	 0.0027033849	-0.254127
C	 1.4588464018	 1.8225351329	 0.0229847505	-0.042158
C	 2.1006569661	 0.7161338894	 0.7829490639	-0.035969
C	 1.0269301138	-0.3406433665	 1.1623050892	-0.091502
C	 1.5434508637	-1.6887000507	 0.6959935844	-0.0836
C	 1.5879134561	-1.6606849486	-0.640566031	-0.07
C	 1.0948550786	-0.2982783726	-1.0720824211	-0.035599
C	 0.0434670572	 0.0482553282	 0.013686974	-0.045826
N	 2.1631894646	 0.7214522651	-0.6930114763	-0.122662
H	-0.5437451259	 1.9824253733	 0.8820660753	 0.10193
H	-0.5251818431	 1.9640529851	-0.8954322681	 0.1026
H	 1.8844385161	 2.815729179	-0.0675834497	 0.088239
H	 3.0343003381	 0.8011239158	 1.3265034308	 0.088454
H	 0.6539334137	-0.2726895222	 2.1849447484	 0.064547
H	 1.8993246834	-2.4737012776	 1.3512671945	 0.097755
H	 1.9877591165	-2.4136021102	-1.3066379792	 0.100387
H	 0.8081783779	-0.174620273	-2.1164950891	 0.065551
H	-0.8836618549	-0.5212278259	-0.0165398414	 0.07198
351.8382	364.9182	445.7306	498.1339	596.0344	708.7044	716.2383	733.2213	777.5699	816.3778	843.3586	862.9303	901.7481	907.3207	921.134	926.8697	937.6733	970.2666	977.4357	995.8072	1004.6467	1022.5342	1052.5671	1073.3086	1124.7192	1139.1428	1184.6374	1202.3002	1220.3714	1245.0152	1257.2117	1264.5497	1280.9491	1304.0004	1332.5944	1350.1249	1367.9838	1486.1097	1639.504	3043.5359	3086.515	3107.8375	3114.4953	3139.3822	3170.6403	3182.9251	3203.149	3229.9463
C1C2C3C4C=CC(C14)N23	C1[C@H]2[C@H]3[C@@H]4C=C[C@@H]([C@H]14)N23	
InChI=1S/C8H9N/c1-2-6-5-3-7-8(4(1)5)9(6)7/h1-2,4-8H,3H2	InChI=1S/C8H9N/c1-2-6-5-3-7-8(4(1)5)9(6)7/h1-2,4-8H,3H2/t4-,5-,6+,7+,8-,9?/m1/s1
