18
gdb 53397	2.48387	1.1004	0.83687	3.6634	85.25	-0.2513	0.0249	0.2762	1416.1157	0.146865	-364.796767	-364.787175	-364.786231	-364.833176	33.333	
C	 0.2877101322	 1.5596060381	-0.4229233812	-0.501013
C	 0.1800604858	 0.1223671329	-0.2231571386	 0.116132
C	 0.0845382806	-1.0670255982	-0.0586606275	 0.045149
C	-0.0647089615	-2.487259139	 0.1589681707	-0.169912
C	-0.0542732224	-3.0551463756	 1.6137301323	-0.220108
C	-1.1671549667	-4.0529903433	 1.2096608173	-0.232602
C	-1.4807482601	-3.1698920967	-0.0437968481	-0.177541
C	-2.6123319915	-2.2763506988	 0.1410624524	 0.289081
N	-3.520729465	-1.577976184	 0.2966447512	-0.33077
H	 0.8149405037	 2.0372269251	 0.4102288697	 0.149884
H	 0.8347512182	 1.7957344718	-1.3421920339	 0.148554
H	-0.7036261156	 2.0195800769	-0.4959835354	 0.160011
H	 0.6485634792	-3.0468443689	-0.4557952268	 0.110192
H	 0.8917693474	-3.4622387865	 1.9739350527	 0.112119
H	-0.4161996708	-2.3075796398	 2.3225014102	 0.131072
H	-0.7711048119	-5.0235789851	 0.9025719807	 0.116124
H	-1.9870791898	-4.2079161723	 1.9107387231	 0.12912
H	-1.6030405418	-3.6997996567	-0.991152929	 0.124508
21.9438	61.7064	80.2313	134.7157	177.1009	237.5703	300.1552	322.0625	445.1704	460.0467	511.8497	579.8444	677.7818	733.2596	790.9268	876.1242	905.4771	937.8828	971.7215	1021.693	1051.1907	1053.16	1068.5948	1097.4614	1192.0871	1200.4235	1229.9003	1240.6075	1268.2987	1271.7605	1335.8417	1365.0308	1413.6071	1476.4562	1477.4445	1482.8448	1497.204	2353.9915	2370.2073	3028.5263	3043.8882	3075.8309	3078.1021	3087.5701	3089.1964	3093.0591	3130.7691	3145.8132
CC#CC1CCC1C#N	CC#C[C@H]1CC[C@H]1C#N	
InChI=1S/C8H9N/c1-2-3-7-4-5-8(7)6-9/h7-8H,4-5H2,1H3	InChI=1S/C8H9N/c1-2-3-7-4-5-8(7)6-9/h7-8H,4-5H2,1H3/t7-,8-/m0/s1
