15
gdb 33343	5.25642	0.775	0.73689	4.9874	84.61	-0.2571	-0.0519	0.2052	1487.8051	0.113446	-379.60589	-379.598094	-379.59715	-379.638956	28.641	
N	-0.0124350637	-3.800466924	-0.1521554282	-0.334119
C	-0.0032769761	-2.6395166177	-0.1054963285	 0.211
C	 0.0067167929	-1.276076277	-0.046530416	-0.008849
C	 0.0118517176	-0.067723323	 0.0073687441	 0.188703
C	 0.0235373621	 1.3764086827	 0.0843852985	-0.178337
C	-0.2460582936	 2.0555363621	 1.4687148016	-0.26774
C	 1.1479842023	 2.6572704875	 1.3372710656	-0.004366
C	 2.1685692004	 1.6150431416	 1.136247912	-0.238078
N	 1.3842022395	 2.0467044251	-0.039728045	-0.129274
H	-0.6217269843	 1.7851514175	-0.6976316674	 0.133414
H	-1.0544688822	 2.7845413255	 1.40679589	 0.128906
H	-0.4173762458	 1.3980668698	 2.3240186358	 0.124815
H	 1.4006135088	 3.6924018209	 1.5388669775	 0.108857
H	 3.2043825798	 1.9312497906	 1.0700267256	 0.135159
H	 2.0235813822	 0.6140469483	 1.5355797445	 0.129911
73.8593	86.2409	184.8236	225.4366	301.3072	412.7679	445.3611	517.8233	571.9791	587.9039	702.4928	751.4353	760.6654	777.7268	904.8936	936.3722	957.9701	998.5139	1050.3876	1078.7543	1113.3273	1131.1087	1149.1009	1193.6356	1224.7733	1239.5156	1273.0281	1347.1103	1367.617	1487.7675	1504.3733	2259.4249	2392.8145	3073.5362	3075.5417	3115.4138	3137.2072	3176.0211	3208.9126
N#CC#CC1CC2CN12	N#CC#C[C@H]1C[C@H]2CN12	
InChI=1S/C7H6N2/c8-3-1-2-6-4-7-5-9(6)7/h6-7H,4-5H2	InChI=1S/C7H6N2/c8-3-1-2-6-4-7-5-9(6)7/h6-7H,4-5H2/t6-,7-,9?/m0/s1
