23
gdb 122427	4.26685	0.64026	0.61107	1.0918	84.	-0.2434	0.0903	0.3337	1940.5947	0.203895	-425.406824	-425.396351	-425.395407	-425.443656	37.099	
C	-0.0279807002	 1.2727020591	 0.3331668988	-0.227166
O	-0.0246527142	-0.1150497711	 0.1064609469	-0.232219
C	-1.3249316629	-0.6614094601	 0.0397322557	-0.050414
C	-1.2070269326	-2.16409598	-0.1802221304	-0.222157
C	-2.5613726379	-2.8430680758	-0.2637187548	 0.160376
C	-2.6212474305	-4.3836427895	-0.2124381162	-0.327892
C	-3.5750320922	-4.1684046664	 0.983961271	 0.180395
C	-3.2391133784	-4.808519495	 2.3148001597	-0.397791
O	-3.3163469124	-2.741709787	 0.970682856	-0.316359
H	 1.0134886249	 1.6017869143	 0.3738888226	 0.123851
H	-0.5410686482	 1.8192590161	-0.4748183728	 0.100519
H	-0.5200960498	 1.5320327587	 1.2842967466	 0.103311
H	-1.8799761468	-0.4622603713	 0.970240389	 0.106625
H	-1.8945828646	-0.1957819934	-0.7844785593	 0.079194
H	-0.6528131784	-2.351930162	-1.1085740913	 0.103882
H	-0.6281851909	-2.600429949	 0.6415182872	 0.105035
H	-3.1439495241	-2.4209322829	-1.0971427726	 0.068221
H	-3.032542996	-4.8901718825	-1.0866404365	 0.105564
H	-1.6711868828	-4.8492018076	 0.0632889552	 0.105764
H	-4.6266444449	-4.3631969123	 0.727190748	 0.070704
H	-2.1891796137	-4.6390991498	 2.5725415237	 0.118871
H	-3.8606240274	-4.3855592641	 3.1105671221	 0.126807
H	-3.4212594262	-5.8883220382	 2.2766867913	 0.114879
38.7642	68.99	91.13	114.8578	144.9147	220.1232	235.3331	290.6809	315.8188	334.6079	421.0383	466.7665	497.8662	689.3951	796.1764	831.9753	892.6159	918.0694	927.0198	959.1448	989.2349	1034.3058	1066.0155	1095.298	1111.3353	1140.697	1159.0385	1170.5209	1186.7837	1201.7733	1225.2787	1240.598	1252.2975	1282.1938	1298.062	1310.9922	1344.9824	1379.6591	1400.7859	1417.8207	1429.2505	1478.0849	1482.0405	1482.2734	1485.3006	1491.5676	1496.3614	1505.5541	1534.5468	2943.4406	2966.9506	2979.7431	2991.4835	2994.8938	3008.3349	3032.0002	3032.4895	3066.5373	3081.266	3104.3637	3110.2296	3111.9631	3128.0983
COCCC1CC(C)O1	COCC[C@H]1C[C@@H](C)O1	
InChI=1S/C7H14O2/c1-6-5-7(9-6)3-4-8-2/h6-7H,3-5H2,1-2H3	InChI=1S/C7H14O2/c1-6-5-7(9-6)3-4-8-2/h6-7H,3-5H2,1-2H3/t6-,7+/m1/s1
