14
gdb 49932	4.76325	0.95023	0.87608	3.9124	70.28	-0.2715	-0.0472	0.2244	1260.3885	0.102298	-432.907706	-432.899807	-432.898863	-432.941468	27.396	
O	-0.0497500724	-0.0485798057	 0.0351552281	-0.29613
C	-0.0211086899	 1.1579097223	 0.0240453031	 0.156364
N	 1.1388189715	 1.9033516971	 0.0089879714	-0.086189
C	 1.2381550138	 3.3672634028	 0.0020533862	-0.224359
C	 2.7961499743	 3.5577472863	-0.0291528714	-0.117004
N	 3.3929414979	 2.2018505122	-0.0353553056	-0.252802
C	 2.4254568067	 1.3742435392	-0.0125117305	 0.103436
C	 3.239615255	 4.3285373058	-1.1962757244	 0.291029
N	 3.5582331475	 4.9535369228	-2.1136796538	-0.309645
H	-0.9239381807	 1.7958958208	 0.0264605241	 0.098577
H	 0.7498461472	 3.7968599344	-0.8753004322	 0.157789
H	 0.7966076123	 3.7996777175	 0.9031060524	 0.145082
H	 3.1429879438	 4.0863813191	 0.8651375926	 0.15097
H	 2.534777313	 0.2971072355	-0.0051860501	 0.182881
29.457	135.8372	158.6367	232.3064	235.0473	263.5427	438.3739	478.7756	581.6551	594.9009	756.1687	803.7466	829.9357	932.1727	967.7882	992.9888	1028.1578	1035.2337	1068.9131	1216.0853	1230.8336	1267.9964	1281.7899	1312.7199	1347.9814	1409.7951	1442.6053	1519.6737	1690.931	1808.686	2366.7599	2968.6402	3053.8416	3066.3792	3116.0975	3239.1831
O=CN1CC(N=C1)C#N	O=CN1C[C@@H](N=C1)C#N	
InChI=1S/C5H5N3O/c6-1-5-2-8(4-9)3-7-5/h3-5H,2H2	InChI=1S/C5H5N3O/c6-1-5-2-8(4-9)3-7-5/h3-5H,2H2/t5-/m0/s1
