15
gdb 5691	4.80608	2.09933	1.4993	3.526	67.16	-0.1746	0.0333	0.2079	802.7028	0.123839	-358.867811	-358.861699	-358.860754	-358.897885	23.914	
C	 0.0191578301	 1.4136605077	 0.0514405493	-0.156811
C	 1.4994388233	 1.9200155781	-0.0981656838	-0.343423
C	 2.1986854461	 0.6083796827	 0.0450048851	 0.253085
C	 1.3388848154	-0.4344673346	-0.1203682653	 0.324846
N	 0.0152180102	-0.0209133874	-0.3573539198	-0.395544
N	 1.9694327536	-1.6421203287	-0.1528490036	-0.351506
C	 3.2483273765	-1.3224583608	-0.0198604107	-0.012526
N	 3.4510874098	 0.0299462833	 0.0733577193	-0.368462
H	-0.2804905305	 1.5201231786	 1.103535003	 0.101398
H	-0.6773828573	 1.9900351344	-0.5624354299	 0.109238
H	 1.6623774035	 2.3778855625	-1.0846679476	 0.113149
H	 1.7319423782	 2.6799580929	 0.6552180416	 0.106691
H	-0.6892626645	-0.565218327	 0.1262401626	 0.232818
H	 4.0664222799	-2.0249004175	 0.0334279248	 0.124421
H	 4.3377512258	 0.4837656558	 0.2105487351	 0.262627
168.0079	191.3041	301.4847	439.6123	473.0609	581.1723	649.858	683.1239	725.6387	736.8816	766.2684	829.8993	864.9463	937.9116	969.3229	1025.9701	1076.2777	1094.7309	1130.4385	1187.6028	1233.0131	1246.3142	1299.812	1318.7693	1351.7655	1378.8501	1435.1578	1463.8685	1493.7729	1516.0016	1535.4759	1639.6023	2993.2201	3000.1097	3056.7285	3091.1032	3253.2881	3544.5237	3674.2084
C1CC2=C(N1)N=CN2	C1Cc2c(N1)nc[nH]2	
InChI=1S/C5H7N3/c1-2-6-5-4(1)7-3-8-5/h3,6H,1-2H2,(H,7,8)	InChI=1S/C5H7N3/c1-2-6-5-4(1)7-3-8-5/h3,6H,1-2H2,(H,7,8)
