18
gdb 57286	2.61496	1.37032	1.13829	3.7792	71.22	-0.274	0.0193	0.2932	1122.832	0.146316	-439.070131	-439.061054	-439.06011	-439.103798	33.568	
C	-0.0051689373	 1.51743951	 0.1404534252	-0.410357
C	 0.0076423902	-0.0097799659	 0.0052434818	 0.191095
O	 0.6966687285	-0.5175924305	 1.1370769808	-0.450135
C	-1.3937628723	-0.5147845809	 0.0143919076	 0.272031
N	-2.4760202953	-0.9202066108	 0.0041546565	-0.341254
C	 0.6622702587	-0.4587292995	-1.3213146309	-0.056484
C	 2.2032069688	-0.5182094994	-1.2367441628	-0.110385
O	 2.1459586551	-1.9432149271	-0.9720552157	-0.28414
C	 0.7820380252	-1.9898922898	-1.4653492771	-0.121652
H	 1.0166948264	 1.8961169216	 0.0545672887	 0.130379
H	-0.6265692796	 1.97514581	-0.6331451166	 0.133519
H	-0.3969917569	 1.7958997016	 1.1208506204	 0.150762
H	 1.1339815451	-1.3463356471	 0.8953859865	 0.305586
H	 0.2184133615	 0.0821396141	-2.1582704405	 0.100807
H	 2.7036161172	-0.3074461004	-2.1898682125	 0.111194
H	 2.691469948	 0.0291666092	-0.426862888	 0.129076
H	 0.1323074581	-2.6174780612	-0.8466157663	 0.132312
H	 0.7405838188	-2.340916284	-2.5037443469	 0.117643
88.5326	130.8527	141.8868	198.7372	234.59	264.1184	319.5682	341.307	414.461	439.9913	458.8807	577.2797	607.0639	696.2098	845.7731	865.3002	873.7237	942.3372	945.5557	1004.5697	1022.153	1052.4909	1070.9833	1112.4187	1152.8867	1178.4352	1184.8619	1218.7608	1238.8361	1304.2636	1331.2719	1368.9595	1404.4095	1419.6954	1480.6854	1492.1859	1504.2825	1534.9575	2349.2406	3023.0396	3031.0814	3052.8491	3082.9617	3102.5287	3106.945	3132.532	3141.8738	3738.8673
CC(O)(C#N)C1COC1	C[C@@](O)(C#N)C1COC1	
InChI=1S/C6H9NO2/c1-6(8,4-7)5-2-9-3-5/h5,8H,2-3H2,1H3	InChI=1S/C6H9NO2/c1-6(8,4-7)5-2-9-3-5/h5,8H,2-3H2,1H3/t6-/m1/s1
