18
gdb 70940	3.68796	1.3392	1.12556	3.2621	78.03	-0.2419	-0.0375	0.2044	1102.6458	0.146276	-401.863252	-401.855157	-401.854213	-401.895878	30.855	
C	-0.038709985	 1.4376528957	 0.0519344866	-0.517326
C	 0.0622487294	-0.0544609986	-0.0456537636	 0.364884
C	 0.5054710054	-0.9133537072	-1.2384088324	-0.352476
C	 0.0112515767	-1.8997946779	-0.1871948481	 0.291644
C	-0.1443300365	-3.376426727	-0.284540596	 0.031184
O	 0.3492051905	-4.0378554257	-1.1646545627	-0.246755
C	 0.5871992076	-1.0751415314	 1.0214479715	-0.139738
C	-0.7844258072	-1.0831238057	 1.6792282873	-0.203875
N	-1.1866068775	-0.9749953107	 0.2104791231	-0.215303
H	 0.9475404488	 1.8954121047	-0.0785083908	 0.129268
H	-0.7006915291	 1.8240236958	-0.7294075623	 0.138266
H	-0.4343935646	 1.7542941189	 1.0220890173	 0.12751
H	-0.1010500888	-0.8356195343	-2.1443356816	 0.115261
H	 1.573933126	-0.9309501232	-1.4635992808	 0.108915
H	-0.7485019856	-3.846339567	 0.5228226	 0.079861
H	 1.5941318705	-1.1513756204	 1.4457477166	 0.076364
H	-1.1295145509	-1.9995644038	 2.1659416091	 0.106583
H	-1.0752715496	-0.212927962	 2.275356807	 0.105734
78.8595	158.9454	195.5406	198.4386	283.2429	344.0767	384.2325	425.0821	506.6849	629.7063	659.4879	690.2177	788.5332	818.8763	860.2615	881.0431	930.6585	988.1277	1006.9359	1016.5836	1039.295	1082.3211	1097.5753	1117.9689	1145.6139	1151.7624	1166.1151	1204.7526	1254.656	1275.427	1286.271	1360.3631	1412.3197	1425.2576	1482.1802	1485.3307	1500.78	1525.8662	1812.5428	2885.0264	3035.2263	3042.7633	3055.392	3066.1398	3103.6188	3106.0182	3109.8546	3131.9654
CC12CC3(C=O)C1CN23	C[C@@]12C[C@@]3(C=O)[C@@H]1CN23	
InChI=1S/C7H9NO/c1-6-3-7(4-9)5(6)2-8(6)7/h4-5H,2-3H2,1H3	InChI=1S/C7H9NO/c1-6-3-7(4-9)5(6)2-8(6)7/h4-5H,2-3H2,1H3/t5-,6-,7-/m1/s1
