21
gdb 115933	3.5287	1.13609	0.95819	2.4311	77.95	-0.2532	0.0759	0.329	1271.681	0.184704	-424.217312	-424.209019	-424.208075	-424.250248	32.646	
O	 0.0789613546	 1.3724546222	 0.2205916371	-0.427236
C	 0.0496446685	-0.0303619586	 0.064598127	-0.069787
C	-1.3781847826	-0.5526621417	-0.0397014333	 0.110653
C	-1.4664138528	-2.0728055173	-0.2158080686	-0.247013
C	-2.8422436173	-2.6211884259	 0.1628707057	-0.031064
C	-3.1994921501	-2.8068400947	 1.6198096524	-0.281173
C	-3.849740834	-1.7054880379	 0.8284294861	-0.029369
C	-3.4376493263	-0.2702067479	 1.0831034366	-0.10464
O	-2.0277632774	-0.1329442607	 1.1632759057	-0.275223
H	-0.5574012826	 1.5630057149	 0.9206373135	 0.287221
H	 0.600661074	-0.2698307595	-0.8510889064	 0.10578
H	 0.5507431369	-0.5419096053	 0.9032065037	 0.088257
H	-1.8737012363	-0.0517771237	-0.8881135191	 0.071153
H	-1.2458112781	-2.3143887496	-1.261207786	 0.103514
H	-0.6898375593	-2.5581727614	 0.3888445959	 0.103242
H	-3.2441833834	-3.3620530149	-0.5204773688	 0.085407
H	-3.7978164588	-3.6660922177	 1.9018630613	 0.10753
H	-2.4502322111	-2.5150703957	 2.3492502707	 0.119198
H	-4.894452662	-1.8284385641	 0.5580604121	 0.084381
H	-3.8291925932	 0.3803602379	 0.282851541	 0.091383
H	-3.8333571084	 0.0938515518	 2.0375222632	 0.107784
76.6287	129.9993	193.2266	243.2889	328.5379	337.8311	399.4107	460.7837	468.1471	509.5776	539.3837	717.7199	769.0679	790.8317	820.184	851.4139	885.0544	940.9526	994.0414	1016.8915	1064.1094	1073.1281	1087.9449	1095.0985	1106.677	1115.9628	1129.5363	1140.7913	1159.5108	1222.344	1224.8623	1258.7263	1287.9345	1307.5973	1362.4562	1370.8382	1383.2408	1396.3255	1407.3705	1423.8449	1444.4308	1481.621	1491.5557	1498.0349	1501.7007	2960.2766	2964.1902	2975.2255	3023.3688	3063.0478	3067.8154	3076.7808	3128.3885	3146.9182	3157.3123	3216.5527	3787.2562
OCC1CC2CC2CO1	OC[C@H]1C[C@H]2C[C@H]2CO1	
InChI=1S/C7H12O2/c8-3-7-2-5-1-6(5)4-9-7/h5-8H,1-4H2	InChI=1S/C7H12O2/c8-3-7-2-5-1-6(5)4-9-7/h5-8H,1-4H2/t5-,6+,7-/m1/s1
