22
gdb 102303	2.67755	0.92187	0.75055	4.2262	83.04	-0.2715	0.0385	0.31	1602.9644	0.192048	-404.376123	-404.365158	-404.364214	-404.412597	39.295	
C	-0.0146463466	 1.6141722881	 0.0313737121	-0.398897
C	-0.0598549621	 0.087464662	 0.1157590963	-0.187861
C	 0.8464895039	-0.5079989743	 1.2198558571	-0.111811
C	 0.7370289692	-2.0503174016	 1.294768428	-0.234586
C	 1.1831668101	-2.6430552726	 2.6417292076	 0.135605
C	 1.2363436182	-4.170679186	 2.5988561625	-0.401413
O	 2.4068424412	-2.0864866898	 3.1026833332	-0.422204
C	 2.2413102866	-0.1105454858	 0.9943589682	 0.28769
N	 3.3320993939	 0.1911793294	 0.755942142	-0.353162
H	 0.9948002791	 1.9693018027	-0.1955645757	 0.146737
H	-0.6844997461	 1.9770618045	-0.7534112382	 0.119983
H	-0.327205671	 2.0725664598	 0.9760022578	 0.119248
H	-1.0832269897	-0.2456997988	 0.3232887485	 0.104505
H	 0.2237128208	-0.3515759601	-0.8480024815	 0.115344
H	 0.5418141246	-0.0862771096	 2.1865857448	 0.127596
H	-0.3075577724	-2.3327019361	 1.1200700422	 0.107141
H	 1.3196097433	-2.4923869366	 0.4761645652	 0.109823
H	 0.4545151395	-2.3362207073	 3.4037771015	 0.089878
H	 1.9671510011	-4.5111695507	 1.8554280469	 0.113349
H	 1.5333509867	-4.5639822839	 3.5743472335	 0.129422
H	 0.2633865635	-4.596918682	 2.3321533153	 0.115253
H	 3.0928035664	-2.2470003015	 2.4441084025	 0.288361
52.2954	73.4924	106.1213	143.5927	168.4529	233.2872	241.8131	257.048	291.093	300.1491	334.8078	413.1357	469.4264	476.8444	559.8019	614.1396	763.0826	834.6162	845.5032	895.5519	938.8144	961.0513	1025.3296	1033.6238	1076.2501	1090.7667	1119.0188	1128.8056	1173.4142	1199.5381	1265.649	1291.6783	1328.5905	1341.7139	1363.0668	1374.7654	1387.4208	1404.0975	1417.726	1426.6887	1477.6055	1487.2452	1492.8028	1495.3902	1499.9779	1507.3219	2349.0218	3019.8759	3023.9184	3029.1742	3031.2665	3037.4383	3039.0735	3069.5156	3075.8442	3096.9403	3107.5054	3119.0896	3121.9665	3796.2971
CCC(CC(C)O)C#N	CC[C@@H](C[C@@H](C)O)C#N	
InChI=1S/C7H13NO/c1-3-7(5-8)4-6(2)9/h6-7,9H,3-4H2,1-2H3	InChI=1S/C7H13NO/c1-3-7(5-8)4-6(2)9/h6-7,9H,3-4H2,1-2H3/t6-,7+/m1/s1
