15
gdb 22142	4.45484	0.6007	0.58991	4.8617	83.54	-0.2669	-0.0457	0.2211	1824.1982	0.110114	-416.758927	-416.749159	-416.748214	-416.795277	33.384	
C	 0.0551404047	 1.5332635684	-0.0365336067	-0.48651
C	 0.0695075832	 0.0343112282	-0.099393824	 0.367972
C	 0.0882351281	-0.7610464055	 1.1966684748	-0.429016
C	 1.2773295624	-0.5147117909	 2.0003581209	 0.141218
C	 2.2671207308	-0.3011414386	 2.6593972317	-0.022511
C	 3.3846114695	-0.0642477491	 3.4070823038	 0.215869
N	 4.3345396137	 0.139458249	 4.0440375899	-0.335976
N	 0.0402229801	-0.684636751	-1.1541539065	-0.151458
O	-0.0227894124	 0.0750879596	-2.3237302001	-0.389246
H	 0.3348657767	 1.9652146723	-0.9965605283	 0.163273
H	-0.9490197417	 1.8923422241	 0.2213209772	 0.144132
H	 0.7379190413	 1.8902454581	 0.7398013992	 0.14566
H	-0.7988270134	-0.5100096655	 1.7959875491	 0.155371
H	 0.0215615061	-1.8252352897	 0.9482759703	 0.16866
H	 0.0052735911	-0.6018931893	-3.0084695212	 0.312561
42.5024	48.7351	68.0141	147.9299	187.2328	303.0078	310.7807	346.6409	365.2925	395.9049	435.7901	523.7367	575.6864	578.0221	658.2724	740.2677	817.3464	898.9378	993.0275	1047.2883	1056.8907	1166.5819	1208.7301	1261.8722	1317.7521	1401.3368	1403.9408	1444.6381	1479.9023	1486.7604	1737.6538	2266.3418	2402.6812	3011.6996	3037.5872	3083.3017	3099.4111	3164.2279	3818.7698
CC(CC#CC#N)=NO	CC(=NO)CC#CC#N	
InChI=1S/C6H6N2O/c1-6(8-9)4-2-3-5-7/h9H,4H2,1H3	InChI=1S/C6H6N2O/c1-6(8-9)4-2-3-5-7/h9H,4H2,1H3
