17
gdb 11383	4.15226	1.51002	1.18298	4.1113	73.29	-0.2428	-0.0319	0.2109	1029.2401	0.142993	-363.892007	-363.884426	-363.883482	-363.924082	28.334	
C	-0.0844422932	 1.5575140644	 0.0573738659	-0.385066
C	 0.0388650614	 0.0337719585	-0.0137083673	-0.182061
C	 0.7477119937	-0.5607739155	 1.2085448546	 0.066759
O	 0.0130149467	-0.2597098452	 2.4038873438	-0.227244
C	-0.3170962511	-1.411048003	 3.0636649806	 0.387063
N	-0.9738999641	-1.3524245823	 4.1463094225	-0.525256
C	 0.2225924605	-2.5412176607	 2.2816664266	-0.191683
C	 0.8481154058	-2.0605520407	 1.2087779271	-0.092291
H	 0.9019452932	 2.0329609977	 0.0948820744	 0.114923
H	-0.6106940175	 1.9472598586	-0.8186826804	 0.115229
H	-0.6365503692	 1.8567588685	 0.9517085054	 0.147188
H	-0.9520863092	-0.427756169	-0.0934049268	 0.110857
H	 0.602778528	-0.2623357388	-0.907383738	 0.098686
H	 1.7424660471	-0.0982281968	 1.3054634443	 0.101446
H	-1.1316984088	-2.2918873181	 4.5060098198	 0.219194
H	 0.1007529751	-3.5736857649	 2.5784560576	 0.119624
H	 1.3537942117	-2.6166530328	 0.42991337	 0.122633
95.4351	120.6023	176.2623	232.6428	298.8265	394.4347	467.9676	495.1616	666.976	699.0927	760.8136	788.9504	819.1977	847.5324	883.5311	922.0545	964.3532	976.2797	1026.0896	1042.1523	1075.4181	1099.1419	1140.5045	1147.2113	1268.7564	1285.4555	1321.1591	1354.1762	1382.0412	1388.7762	1412.4356	1476.3093	1496.8478	1509.132	1659.0045	1743.9132	2986.0728	3028.7338	3039.3534	3071.5694	3106.5705	3128.6633	3215.6926	3242.5651	3508.8478
CCC1OC(=N)C=C1	CC[C@H]1OC(=C[CH]1)[NH]	
InChI=1S/C6H9NO/c1-2-5-3-4-6(7)8-5/h3-5,7H,2H2,1H3	InChI=1S/C6H9NO/c1-2-5-3-4-6(7)8-5/h3-5,7H,2H2,1H3/t5-/m1/s1
