18
gdb 83677	2.39789	1.63019	1.31445	3.7674	75.	-0.2711	0.0194	0.2905	1031.2099	0.148582	-401.933888	-401.925664	-401.92472	-401.967498	30.93	
O	 0.3150636836	 1.1389374059	 0.5221109575	-0.40796
C	 0.0474474618	-0.168130999	 0.103331387	 0.112536
C	-1.4633418366	-0.4748246896	-0.028032948	-0.047561
C	-2.3455225457	 0.7421138828	-0.4134466041	-0.224352
C	-2.1788367848	 0.3941301645	-1.9242936333	-0.242035
C	-1.2789549506	-0.8107967667	-1.5529687872	-0.027743
C	 0.2513794037	-0.5123519163	-1.4328870607	-0.227891
C	 0.8224629509	 0.5380879714	-2.2528450578	 0.291268
N	 1.287994127	 1.3958174933	-2.8744100873	-0.343053
H	 1.2485468017	 1.3319471675	 0.3819090618	 0.297222
H	 0.5745170065	-0.905034903	 0.7240190278	 0.080489
H	-1.8692080262	-1.1788828034	 0.6979925305	 0.072331
H	-3.3731180304	 0.654597641	-0.0552702321	 0.102317
H	-1.944905004	 1.7056677995	-0.0987096951	 0.131785
H	-3.1100288736	 0.0888727273	-2.4067749781	 0.10594
H	-1.7063453823	 1.1569698926	-2.5478119236	 0.128881
H	-1.5189760472	-1.7775767186	-1.9944868954	 0.077953
H	 0.8531498865	-1.416901609	-1.556041542	 0.119873
31.1632	120.3392	160.3279	253.1817	260.11	343.9007	378.6446	501.6662	543.1573	596.1592	669.7593	722.1908	768.9591	795.0189	852.8673	869.7727	890.3127	963.0119	998.2638	1022.5097	1049.8649	1070.0836	1094.306	1137.095	1156.0974	1203.2475	1212.278	1221.0277	1254.3943	1271.273	1281.9398	1294.5907	1315.6484	1324.4073	1346.0186	1417.043	1478.0673	1494.52	2345.8867	3003.5764	3065.8987	3073.3077	3079.4949	3103.6232	3112.3288	3118.2695	3143.8971	3810.3838
OC1C2CCC2C1C#N	O[C@H]1[C@H]2CC[C@H]2[C@H]1C#N	
InChI=1S/C7H9NO/c8-3-6-4-1-2-5(4)7(6)9/h4-7,9H,1-2H2	InChI=1S/C7H9NO/c8-3-6-4-1-2-5(4)7(6)9/h4-7,9H,1-2H2/t4-,5+,6-,7+/m1/s1
