17
gdb 128382	1.96252	1.71652	0.95853	5.2517	71.9	-0.2225	-0.0202	0.2023	1208.1488	0.137325	-451.279481	-451.270735	-451.269791	-451.313114	31.678	
C	 0.2024051553	 1.3412445915	 0.1291339244	-0.323295
N	 0.0505587668	-0.0977322352	-0.0046672814	-0.379218
C	 0.6250945483	-0.7348553351	-1.0663994676	 0.339483
N	 1.1371253537	-0.1442501753	-2.1195703041	-0.198418
O	 1.5514441226	-1.1819510982	-2.9458196616	-0.173218
N	 1.3078768848	-2.3943205417	-2.3781375815	-0.151858
C	 0.7346692897	-2.1590544649	-1.23416883	 0.285706
C	 0.2721036051	-3.22557893	-0.2942039848	-0.284824
N	 0.6740911547	-2.8822395513	 1.0814362228	-0.518598
H	 1.252262739	 1.6544617796	 0.2190850495	 0.125849
H	-0.2177772462	 1.8377661763	-0.7496604913	 0.151534
H	-0.3462579359	 1.6733012176	 1.0128933667	 0.123847
H	 0.097929304	-0.6546671582	 0.8404057781	 0.256966
H	-0.8244471687	-3.2631472147	-0.3099012475	 0.133869
H	 0.6354724186	-4.1981816611	-0.6529129001	 0.126616
H	 0.245354743	-3.5281106914	 1.7364864867	 0.242276
H	 1.6793896151	-2.9895313879	 1.1826959717	 0.243284
102.2599	131.0849	149.573	164.1395	207.9135	264.1796	316.5532	364.1493	439.7455	518.873	609.1054	628.2844	679.3661	763.8942	789.2331	881.6127	904.1922	949.0334	999.8701	1042.2354	1053.742	1092.7163	1151.983	1179.8937	1190.4934	1269.9127	1303.9192	1409.136	1425.9999	1456.7552	1482.3281	1496.081	1509.8961	1524.4678	1598.922	1655.2793	1661.5998	3005.0904	3010.9028	3051.8728	3088.6714	3132.6651	3495.3689	3549.0163	3576.735
CNC1=NON=C1CN	CNc1nonc1CN	
InChI=1S/C4H8N4O/c1-6-4-3(2-5)7-9-8-4/h2,5H2,1H3,(H,6,8)	InChI=1S/C4H8N4O/c1-6-4-3(2-5)7-9-8-4/h2,5H2,1H3,(H,6,8)
