16
gdb 12943	2.67738	2.18464	1.68625	1.5766	66.31	-0.241	0.0188	0.2598	847.8048	0.1306	-379.888224	-379.88052	-379.879576	-379.919862	29.174	
C	 0.0097200595	 1.5602514854	 0.015548681	-0.421052
C	 0.092628961	 0.0521307705	 0.0747915013	-0.057744
C	 1.3383075352	-0.7353117113	-0.1362422159	 0.036227
O	 2.4802996369	-0.0082746134	 0.3964086035	-0.276123
C	 1.9558361319	-0.1119309001	 1.6862455151	 0.379031
N	 2.4666434185	 0.1639426359	 2.797072517	-0.561152
C	 0.6788592866	-0.7639804133	 1.2393270252	 0.156571
N	-0.0841228332	-1.7610071364	 1.8932640757	-0.59604
H	 0.9472277871	 2.0212314541	 0.3329791811	 0.142171
H	-0.1969703763	 1.8895531862	-1.0081216119	 0.123492
H	-0.7936224043	 1.934660972	 0.6576518957	 0.122947
H	-0.7800470637	-0.4759174292	-0.3071227207	 0.10963
H	 1.5417413503	-1.5107901832	-0.8615983213	 0.123937
H	 3.4076925043	 0.5466970143	 2.6905856149	 0.230277
H	 0.5139502106	-2.3649013144	 2.4489034212	 0.244197
H	-0.7589726443	-1.343381207	 2.5265204781	 0.24363
126.8786	173.1669	200.6791	250.6313	273.7057	315.1391	381.7692	480.2061	590.7176	646.2965	702.6961	736.7785	783.4466	832.3395	867.1025	914.0587	927.4189	934.5327	972.5114	1001.8432	1069.8319	1110.9732	1126.4415	1183.701	1243.3403	1267.2137	1299.7591	1358.9274	1414.8281	1478.0864	1492.3312	1503.6822	1667.9665	1823.0508	3041.6533	3101.3214	3125.8853	3140.6439	3219.8475	3476.6588	3497.8637	3570.9644
CC1C2OC(=N)C12N	C[C@H]1[C@H]2O[C]([NH])[C@@]12N	
InChI=1S/C5H8N2O/c1-2-3-5(2,7)4(6)8-3/h2-3,6H,7H2,1H3	InChI=1S/C5H8N2O/c1-2-3-5(2,7)4(6)8-3/h2-3,6H,7H2,1H3/t2-,3+,5+/m0/s1
