17
gdb 88723	3.40466	1.00625	0.84226	4.8382	74.11	-0.2659	0.0192	0.2851	1333.9597	0.135806	-417.96711	-417.958416	-417.957471	-418.00132	32.006	
O	-0.0895536151	 1.4528238692	 0.1287813436	-0.418659
C	 0.0003356632	 0.0619828309	 0.000928955	 0.086243
C	-0.4597477887	-0.8090505819	 1.140119729	-0.335169
C	-1.3012878893	-0.6817654775	-0.1175385607	-0.018687
C	-2.5841902763	 0.0765363962	-0.073386725	-0.012552
N	-3.4178455144	 0.0346835348	-1.2751743988	-0.321578
C	-3.9198972659	-0.6080206792	-0.0426035948	-0.209414
C	-4.0333820172	-2.0465663169	-0.063997012	 0.335387
N	-4.1223081978	-3.1992491699	-0.0477842754	-0.34024
H	 0.6000473227	 1.7401261284	 0.7361137436	 0.292505
H	 0.8301679123	-0.2879214517	-0.611789542	 0.096949
H	 0.0446839527	-1.7489557256	 1.3328671315	 0.124708
H	-0.8202994128	-0.2940290408	 2.0250543219	 0.116343
H	-1.3157979367	-1.5320255151	-0.7904717628	 0.118357
H	-2.5368741256	 1.0130831967	 0.4755481411	 0.110275
H	-3.902797039	 0.9160450518	-1.421326804	 0.246847
H	-4.7144418221	-0.1178521496	 0.5137840699	 0.128685
41.3012	91.3909	162.2089	204.1564	248.4835	308.5915	345.2232	392.8929	463.2464	535.1049	583.2597	646.2279	769.5157	791.3259	845.3149	855.3604	886.1558	939.1581	963.5363	997.5267	1020.3552	1055.0653	1066.3032	1130.5807	1145.38	1168.1336	1201.4082	1224.0402	1231.3597	1259.7782	1297.8628	1326.9317	1408.098	1417.5503	1467.8861	1498.3894	2358.8795	3109.1697	3132.3035	3144.4708	3155.3823	3177.4314	3223.2763	3512.2514	3809.8942
OC1CC1C1NC1C#N	O[C@H]1C[C@H]1[C@H]1N[C@H]1C#N	
InChI=1S/C6H8N2O/c7-2-4-6(8-4)3-1-5(3)9/h3-6,8-9H,1H2	InChI=1S/C6H8N2O/c7-2-4-6(8-4)3-1-5(3)9/h3-6,8-9H,1H2/t3-,4+,5+,6-/m1/s1
