12
gdb 29263	3.26325	1.479	1.01773	3.7316	61.23	-0.2491	-0.0503	0.1988	1043.2248	0.077172	-509.801467	-509.794087	-509.793143	-509.833695	27.122	
O	-0.0848235631	 1.3887542902	-0.1806674681	-0.404469
C	 0.0054028811	 0.0497566239	-0.0147377672	 0.215968
C	 1.1364724354	-0.6613093032	 0.0493827608	-0.063591
O	 1.1614902524	-2.0243972906	 0.2197808777	-0.214133
C	 0.0123825849	-2.7366627969	 0.334779235	 0.477139
O	 0.0227605898	-3.9147776364	 0.4816849708	-0.334333
O	-1.1500027834	-2.0347553487	 0.2722082632	-0.262621
C	-1.2692917835	-0.6529235167	 0.1015435624	 0.383312
N	-2.3974322909	-0.0985664431	 0.0569240629	-0.493798
H	 0.7990084598	 1.7682285441	-0.2478586213	 0.307373
H	 2.1364608818	-0.2545447947	-0.0238069219	 0.143249
H	-3.1476115442	-0.7831606379	 0.1593441257	 0.245905
87.0538	115.1103	304.0129	317.403	339.9806	387.413	394.3436	465.1657	528.8557	625.6585	727.0984	737.9053	758.6786	813.2423	836.896	893.2669	922.0916	1059.1749	1106.0768	1182.3936	1229.0217	1285.167	1361.1013	1468.6576	1720.3304	1767.8656	1912.5291	3224.1515	3495.1326	3808.6476
OC1=COC(=O)OC1=N	OC1=C(OC(=O)O[CH]1)[NH]	
InChI=1S/C4H3NO4/c5-3-2(6)1-8-4(7)9-3/h1,5-6H	InChI=1S/C4H3NO4/c5-3-2(6)1-8-4(7)9-3/h1,5-6H
