19
gdb 50596	2.69039	1.53714	1.26619	3.3153	74.35	-0.2391	-0.0221	0.217	1054.8713	0.160403	-423.021291	-423.013429	-423.012485	-423.054172	29.769	
O	 0.3016243246	-0.1103224294	-0.1659267854	-0.246447
C	 0.1397080398	 1.0704764465	-0.0048228201	 0.155841
C	 1.255415486	 2.0968794055	 0.1050471912	 0.004826
O	 2.5163349573	 1.5047309614	 0.343210714	-0.240075
C	 3.2220427943	 1.4137288724	-0.8915400022	-0.102658
C	 2.8606720779	 2.6900932959	-1.6668555909	-0.011845
C	 2.353644536	 2.4930380852	-3.1194746007	-0.236544
C	 0.9007248769	 2.3886728018	-2.5769544307	-0.248572
C	 1.3972196792	 2.9371811755	-1.1985295866	-0.055572
H	-0.8824531693	 1.5163466426	 0.0574576073	 0.069133
H	 1.019353037	 2.7423035137	 0.962762212	 0.093105
H	 4.285409547	 1.3289129536	-0.6544032181	 0.111333
H	 2.9150233152	 0.5127224551	-1.4422229706	 0.106421
H	 3.584298909	 3.4879337958	-1.4890539723	 0.075778
H	 2.5042001773	 3.38368122	-3.734001717	 0.105679
H	 2.7467514003	 1.629404679	-3.6622652721	 0.105176
H	 0.1465939291	 2.9923310011	-3.0857258007	 0.10589
H	 0.538369852	 1.3592724504	-2.5282305496	 0.126797
H	 1.1304938505	 3.9822465539	-1.0396275272	 0.081736
75.8699	96.1991	165.6549	238.0942	285.1783	339.5745	404.0417	616.1232	656.9491	677.6811	747.9009	789.2495	812.5015	864.16	883.7976	931.3665	952.1994	959.2853	985.3341	1004.0508	1029.2235	1071.2604	1112.3522	1121.0556	1154.3797	1201.6762	1227.8774	1240.2921	1257.1078	1278.8987	1281.8288	1283.3635	1320.7684	1329.5448	1362.183	1382.2317	1420.3286	1484.6053	1499.688	1520.756	1837.0245	2840.8651	3000.897	3012.1769	3060.3518	3072.327	3080.2987	3097.6268	3104.9285	3108.0607	3129.4275
O=CC1OCC2CCC12	O=C[C@H]1OC[C@H]2CC[C@@H]12	
InChI=1S/C7H10O2/c8-3-7-6-2-1-5(6)4-9-7/h3,5-7H,1-2,4H2	InChI=1S/C7H10O2/c8-3-7-6-2-1-5(6)4-9-7/h3,5-7H,1-2,4H2/t5-,6-,7-/m1/s1
