21
gdb 13817	4.23829	1.16782	1.05991	2.7236	75.46	-0.2477	0.0673	0.315	1221.5718	0.188187	-366.246244	-366.237004	-366.23606	-366.280194	34.343	
C	-0.299962075	 1.5095350213	 0.2339754186	-0.376042
C	 0.30305446	 0.1622397338	-0.1782107894	-0.202897
C	 0.9394059821	-0.5577039421	 0.9914860648	 0.009322
N	 0.0514954205	-1.2479564164	 1.9511103442	-0.358082
C	 1.0136881862	-2.0342922271	 1.1567542783	-0.055337
C	 0.3729216462	-3.0552612812	 0.2118992568	 0.129921
C	 0.4852052716	-4.4713393425	 0.788754492	-0.390962
O	-0.9809162864	-2.7270851255	-0.0444291997	-0.433193
H	 0.4595409541	 2.1770341866	 0.657553024	 0.106416
H	-0.7496510783	 2.019582997	-0.6231433345	 0.113155
H	-1.0787401532	 1.3674058429	 0.9899471584	 0.124656
H	-0.4616039389	-0.4785619843	-0.6230590368	 0.130415
H	 1.0740974378	 0.3176962014	-0.9443127036	 0.094305
H	 1.7698349616	-0.0105587047	 1.4407839016	 0.080187
H	 0.3577277701	-1.1275254558	 2.9108681177	 0.235819
H	 1.8955143823	-2.4096864101	 1.673549765	 0.082262
H	 0.8973291052	-3.0241426338	-0.7531490201	 0.083223
H	 1.5321676539	-4.7784503792	 0.8927116698	 0.103376
H	 0.0104200081	-4.5224213603	 1.7749301708	 0.113237
H	-0.0209836821	-5.1810098325	 0.1295141031	 0.123102
H	-1.2728044658	-2.2457647374	 0.747215769	 0.287117
62.66	85.3577	153.7298	210.0856	237.6027	261.606	293.5427	298.491	412.916	450.9432	556.4675	578.6165	637.9336	761.2765	770.52	833.7934	886.0595	910.2417	948.4946	965.7907	1027.2417	1039.6611	1062.4226	1082.5005	1108.0687	1131.4074	1154.445	1195.6254	1242.3906	1272.6465	1299.0823	1309.9442	1344.3067	1357.92	1399.3546	1408.6259	1414.9122	1448.1759	1471.1424	1489.8898	1493.8459	1495.1757	1500.0121	1509.0739	3011.4217	3027.514	3028.1361	3030.3869	3085.2777	3091.091	3096.896	3109.7772	3116.186	3119.5752	3122.4728	3526.3135	3665.3085
CCC1NC1C(C)O	CC[C@H]1N[C@H]1[C@@H](C)O	
InChI=1S/C6H13NO/c1-3-5-6(7-5)4(2)8/h4-8H,3H2,1-2H3	InChI=1S/C6H13NO/c1-3-5-6(7-5)4(2)8/h4-8H,3H2,1-2H3/t4-,5-,6+/m1/s1
