18
gdb 80696	2.11986	1.57229	1.34889	4.1143	72.05	-0.2366	-0.0229	0.2137	1059.973	0.145946	-439.038924	-439.030055	-439.029111	-439.072643	32.976	
C	 0.062121196	 1.448551984	-0.3832141605	-0.505962
C	 0.0533900196	-0.0067830708	-0.0244861263	 0.268032
C	-0.9241734778	-0.6641102743	 0.9311641994	 0.099325
O	-1.7121564059	-1.7622614065	 0.5929219905	-0.434506
C	 0.5383743525	-0.8183481001	 1.1905115543	-0.140601
N	 0.9778144519	-1.9467781205	 0.3315531126	-0.375935
C	 0.6919857836	-1.1196610579	-0.8848117485	-0.119501
C	-0.1850820002	-1.7594151431	-1.9442376871	 0.159788
O	-0.5563247929	-1.1643532215	-2.9233147365	-0.257365
H	 1.0761777803	 1.8112815539	-0.5876744314	 0.11704
H	-0.5428378796	 1.6223030228	-1.2800064672	 0.147999
H	-0.354777682	 2.0563080038	 0.4261730832	 0.1218
H	-1.4469030729	 0.0438571244	 1.5694093011	 0.105028
H	-1.1148777463	-2.525808358	 0.61452336	 0.293917
H	 1.0633416817	-0.5499053632	 2.1004305897	 0.098643
H	 1.9680940141	-2.1378885654	 0.4294765749	 0.233614
H	 1.6048715446	-0.7508346373	-1.3667127971	 0.107383
H	-0.4557995067	-2.8218136103	-1.7570527113	 0.0813
58.7098	121.3692	182.8687	191.3009	218.1315	283.2825	309.9908	374.101	472.5996	487.6719	549.2891	625.9481	672.5262	737.0377	787.8781	848.9278	904.1549	934.2585	977.3371	994.8679	997.2903	1028.4961	1073.8692	1100.0816	1115.463	1162.6248	1180.8559	1237.3708	1248.6624	1291.4398	1330.1633	1350.3438	1395.2872	1405.0083	1415.559	1472.4501	1483.4015	1499.4663	1823.9353	2890.3302	3024.6549	3044.5798	3086.9796	3102.1848	3148.4488	3174.1823	3545.9433	3701.6648
CC12C(O)C1NC2C=O	C[C@]12[C@@H](O)[C@H]1N[C@H]2C=O	
InChI=1S/C6H9NO2/c1-6-3(2-8)7-4(6)5(6)9/h2-5,7,9H,1H3	InChI=1S/C6H9NO2/c1-6-3(2-8)7-4(6)5(6)9/h2-5,7,9H,1H3/t3-,4+,5-,6+/m0/s1
