14
gdb 129827	3.31842	1.41723	0.99412	3.14	70.4	-0.2279	-0.0325	0.1954	1100.3181	0.101442	-470.018894	-470.01086	-470.009916	-470.051071	30.847	
N	 0.0075518003	 1.3684680891	 0.1533804389	-0.56042
C	-0.0442553318	 0.0067798329	 0.0637971762	 0.496994
C	-1.1950122942	-0.7372626099	 0.0465782406	-0.382994
C	-1.098412302	-2.1510167314	 0.0087328017	 0.37072
O	-2.0114418621	-2.9722320533	-0.0386576611	-0.408373
C	 0.3255253652	-2.6462886986	 0.0210604958	 0.309433
N	 0.4288725974	-3.9932180103	 0.0514313007	-0.542755
N	 1.3985318284	-1.9140287059	 0.0130553127	-0.211854
O	 1.1802401601	-0.5147276733	 0.0301671182	-0.266668
H	 0.8838567497	 1.7958000853	-0.1042472679	 0.272933
H	-0.8204034207	 1.8751504374	-0.1135455539	 0.272528
H	-2.1636853237	-0.2551293542	 0.0622224144	 0.106948
H	-0.4410598736	-4.4780828971	-0.1162609674	 0.277533
H	 1.3098864369	-4.4389916407	-0.1356618787	 0.265976
114.1599	171.8505	267.6463	308.6549	329.2945	351.7154	377.353	441.1042	469.5099	475.7214	528.2525	564.1739	603.1808	698.1322	700.8024	782.4432	816.7608	837.6923	906.4495	1021.2729	1101.14	1140.0662	1252.5935	1306.2416	1425.0794	1469.8908	1575.9162	1614.0139	1649.0135	1662.381	1743.5251	3216.0075	3574.121	3594.1771	3712.1554	3725.4983
NC1=CC(=O)C(N)=NO1	Nc1cc(=O)c(N)no1	
InChI=1S/C4H5N3O2/c5-3-1-2(8)4(6)7-9-3/h1H,5H2,(H2,6,7)	InChI=1S/C4H5N3O2/c5-3-1-2(8)4(6)7-9-3/h1H,5H2,(H2,6,7)
