18
gdb 35035	3.09958	1.43693	1.3959	3.0628	74.5	-0.2599	0.0282	0.2881	999.4046	0.151135	-401.977478	-401.970343	-401.969399	-402.008989	28.283	
N	-0.0696105976	-1.1544480422	-0.1101253456	-0.335906
C	-0.0370588215	-0.0007651094	-0.0378084462	 0.27233
C	 0.0109245634	 1.4494816366	 0.0474632573	-0.171321
C	-0.3299498839	 2.0541121016	 1.4417889842	-0.051075
C	 0.8046299405	 1.4897362779	 2.3281225095	-0.226648
C	 2.0418049415	 1.5318943539	 1.372738097	-0.228499
C	 1.4304501113	 2.0837822331	 0.0726775595	 0.107563
O	 1.1244769843	 3.466195541	 0.2491096687	-0.277308
C	-0.0085647262	 3.5259426946	 1.1403104018	-0.087931
H	-0.5930406589	 1.8802172557	-0.7559437597	 0.127264
H	-1.3414217417	 1.8795893816	 1.8080492785	 0.089101
H	 0.9432713107	 2.0929050214	 3.2287306953	 0.106875
H	 0.5803077299	 0.4679466901	 2.643164176	 0.125941
H	 2.8306341197	 2.2005948808	 1.7225014017	 0.115977
H	 2.4752963406	 0.5398063623	 1.2217481757	 0.123888
H	 2.0332971855	 1.9741750118	-0.8282948566	 0.095233
H	-0.832939291	 4.0468166201	 0.6372267284	 0.106006
H	 0.2557211533	 4.085494309	 2.0453353744	 0.108508
139.8193	152.2384	190.5815	351.7358	391.2477	405.8869	522.9033	524.7154	609.397	761.3819	781.8849	840.1731	847.3553	878.2303	900.8494	921.2866	954.4964	973.5221	1021.2877	1040.6048	1053.6175	1060.9568	1091.5362	1149.1794	1166.642	1197.443	1228.6768	1243.4735	1275.6109	1288.8611	1313.642	1330.4503	1338.8563	1357.7257	1388.1949	1479.7001	1501.231	1528.7112	2353.324	3017.3687	3057.478	3065.5106	3073.4608	3080.7449	3106.782	3123.6615	3127.2312	3131.0511
N#CC1C2CCC1OC2	N#C[C@H]1[C@H]2CC[C@@H]1OC2	
InChI=1S/C7H9NO/c8-3-6-5-1-2-7(6)9-4-5/h5-7H,1-2,4H2	InChI=1S/C7H9NO/c8-3-6-5-1-2-7(6)9-4-5/h5-7H,1-2,4H2/t5-,6-,7-/m0/s1
