19
gdb 89535	4.24784	1.17834	1.08951	3.3831	75.93	-0.2341	0.0787	0.3128	1172.8808	0.158387	-422.940403	-422.932569	-422.931625	-422.972973	30.795	
C	 0.3974151113	 1.5729035186	 0.0798687223	-0.396915
C	-0.0875073682	 0.145314087	-0.0630838801	 0.144726
C	 0.3897895045	-0.6726273724	-1.2841073425	-0.412915
C	 1.0210542297	-1.5906805409	-0.2279009317	 0.545624
O	 0.597295863	-0.7630890678	 0.8433208125	-0.333759
C	 0.8952192252	-3.1321956107	-0.1120454003	-0.039972
C	 1.9570173197	-3.2701704586	-1.2286244452	-0.234605
C	 2.4411739973	-2.208366197	-0.2127616132	-0.036857
O	 1.9931403625	-3.1000348937	 0.8836389905	-0.314455
H	 1.4746670075	 1.6382721532	-0.1027251406	 0.1188
H	-0.1185530912	 2.2255115036	-0.6330524914	 0.11636
H	 0.1983356567	 1.9437034759	 1.0900289794	 0.131642
H	-1.1713707948	 0.0909869167	 0.1017934101	 0.079768
H	-0.393034604	-1.1200966074	-1.8989444094	 0.114631
H	 1.1027953159	-0.1530233683	-1.9286539952	 0.113093
H	 0.0271661143	-3.7525788903	 0.1120796763	 0.096208
H	 2.5176597694	-4.2036271329	-1.1934058182	 0.11454
H	 1.7038031709	-2.9571279822	-2.2450563918	 0.098838
H	 3.4146269702	-1.7283528726	-0.1091961714	 0.095247
54.9639	172.6498	212.5349	249.64	341.6544	352.4314	410.1279	484.7592	545.0355	648.5462	749.0441	771.1033	782.9123	864.5677	877.0266	904.9917	911.4626	919.779	932.4523	1007.3989	1010.8782	1067.725	1089.4407	1117.7626	1123.1426	1143.468	1149.7513	1170.2419	1197.8467	1202.2427	1214.6949	1253.6727	1262.7439	1318.4978	1332.8668	1391.3148	1411.7132	1479.2966	1481.4449	1488.122	1495.625	3017.1157	3033.4599	3064.5721	3070.4858	3106.2751	3113.1551	3116.9302	3123.1413	3125.8995	3157.2724
CC1CC2(O1)C1CC2O1	C[C@H]1C[C@@]2(O1)[C@H]1C[C@@H]2O1	
InChI=1S/C7H10O2/c1-4-3-7(9-4)5-2-6(7)8-5/h4-6H,2-3H2,1H3	InChI=1S/C7H10O2/c1-4-3-7(9-4)5-2-6(7)8-5/h4-6H,2-3H2,1H3/t4-,5-,6+,7-/m0/s1
