19
gdb 39420	2.44171	1.99969	1.38328	2.6274	74.63	-0.2353	0.0802	0.3156	977.2662	0.160972	-422.986193	-422.978861	-422.977917	-423.017678	29.525	
C	 0.108093246	 1.4861332508	-0.2142604478	-0.320394
C	 1.3135594865	 0.5994708232	-0.1093938285	 0.096253
O	 2.1571109453	 0.8939557943	 0.951854563	-0.238165
C	 2.7413013188	-0.1872412741	 1.6603336777	-0.050855
C	 1.8573693471	-1.4230807739	 1.9009181504	-0.286246
C	 0.4381868867	-1.1543811576	 2.3781447363	 0.054062
O	 0.0506569228	 0.1952520436	 2.6659904622	-0.244248
C	-0.5015917863	-0.4301240071	 1.5061717579	 0.037785
C	-0.0656301738	 0.0255525086	 0.1492034752	-0.074982
H	-0.0000178071	 2.1985208174	 0.5959063009	 0.138787
H	-0.2219063705	 1.8288522496	-1.1882433697	 0.111233
H	 1.8140303574	 0.2906055521	-1.0292055624	 0.081756
H	 3.6604459663	-0.5236590879	 1.1541322339	 0.088229
H	 3.0340306041	 0.2461239505	 2.6212849154	 0.118392
H	 1.7985592392	-2.0245471577	 0.9852397912	 0.11386
H	 2.3846532616	-2.0423446575	 2.6359108614	 0.107831
H	 0.0322124412	-1.8827563921	 3.0810628077	 0.088875
H	-1.5669376935	-0.650600569	 1.5945443393	 0.088996
H	-0.4551848419	-0.6159383733	-0.6387020141	 0.088832
145.6854	188.6734	221.2917	279.5518	314.6901	418.3408	470.7196	516.5695	632.253	707.9911	758.6027	778.1487	791.1535	834.2648	878.3556	901.9476	935.3988	977.1588	990.0617	1041.335	1065.6471	1090.7733	1100.3612	1116.3746	1127.4039	1142.917	1146.6122	1185.8625	1229.2159	1270.7766	1279.9509	1299.8209	1355.8984	1377.4561	1396.4855	1404.8845	1429.95	1464.743	1477.7663	1488.66	1507.4733	2974.7135	3030.3999	3060.5439	3075.2714	3084.6249	3086.0548	3103.3908	3129.1853	3139.5515	3233.6932
C1C2OCCC3OC3C12	C1[C@H]2OCC[C@H]3O[C@H]3[C@@H]12	
InChI=1S/C7H10O2/c1-2-8-6-3-4(6)7-5(1)9-7/h4-7H,1-3H2	InChI=1S/C7H10O2/c1-2-8-6-3-4(6)7-5(1)9-7/h4-7H,1-3H2/t4-,5+,6+,7-/m0/s1
