15
gdb 132004	2.33732	1.84204	1.03681	3.8255	74.57	-0.2202	-0.0277	0.1925	1079.141	0.112449	-461.937344	-461.929518	-461.928574	-461.969765	29.273	
C	 0.0467461026	 1.5082125932	 0.0197837383	-0.48194
C	-0.0285209489	 0.02094242	 0.0708415697	 0.233573
C	-1.1314804171	-0.7244476345	-0.1338775304	 0.141765
F	-2.2816553261	-0.1108551277	-0.4098819609	-0.059822
C	-1.1489520825	-2.1835365014	-0.0719714976	 0.20218
N	-2.2396747861	-2.8312958799	-0.2784211023	-0.538786
C	 0.1749325161	-2.7196897749	 0.2381342508	-0.237332
C	 1.2299283046	-1.9160025338	 0.4298777073	 0.061545
O	 1.1754052112	-0.5674210189	 0.3574219685	-0.234
H	 0.7606293047	 1.8316249479	-0.7455141965	 0.146434
H	-0.9334521325	 1.9246729795	-0.2103076759	 0.156111
H	 0.3890023128	 1.9098952686	 0.979705387	 0.146416
H	-2.0691660661	-3.835756679	-0.1963415229	 0.208796
H	 0.3077544456	-3.7928761919	 0.3151354042	 0.114131
H	 2.2320797217	-2.2538209271	 0.6615938307	 0.14093
116.6876	131.8277	172.6423	287.0375	310.014	317.0675	483.1925	502.0223	510.3107	529.1627	545.0739	676.7603	737.0392	813.6054	849.3656	888.173	933.0775	948.2675	1017.0685	1064.5982	1111.3685	1156.2075	1219.2463	1282.154	1299.4191	1401.1341	1417.3899	1466.0249	1477.8287	1480.5148	1636.2041	1685.9127	1731.1634	3039.8832	3092.6525	3161.6072	3195.1433	3225.045	3447.5498
CC1=C(F)C(=N)C=CO1	C[C@H]1C(=C([NH])C=CO1)F	
InChI=1S/C6H6FNO/c1-4-6(7)5(8)2-3-9-4/h2-3,8H,1H3	InChI=1S/C6H7FNO/c1-4-6(7)5(8)2-3-9-4/h2-4,8H,1H3/t4-/m0/s1
