18
gdb 83240	2.79394	1.49506	1.40673	2.4217	73.09	-0.2302	0.015	0.2452	1023.7694	0.148218	-439.082595	-439.074449	-439.073504	-439.11506	31.356	
C	-0.0766853165	 1.4210770733	 0.0337074563	-0.456386
C	-0.1327790223	-0.0636372672	-0.1448729398	 0.359198
N	-1.0209322662	-0.7948179462	 0.3847913561	-0.262161
C	-1.040918413	-2.1891664272	 0.0968055465	-0.059122
C	-1.0761043938	-2.6649067157	-1.3609125715	 0.118365
O	-1.1967562709	-1.798343677	-2.4391530231	-0.423707
C	 0.1820334872	-2.8238420979	-0.5566345297	-0.145466
C	 1.3285887826	-1.8628774713	-0.7594225102	-0.118223
O	 0.8790795738	-0.5076386655	-0.976125835	-0.28878
H	 0.8623996343	 1.7138709476	 0.5150004971	 0.136684
H	-0.1089699276	 1.9229493671	-0.939139472	 0.140051
H	-0.920757326	 1.7472558297	 0.6401712774	 0.148792
H	-1.6147683741	-2.7665353288	 0.8138063191	 0.095528
H	-1.6582737368	-3.5631991907	-1.5426570366	 0.111531
H	-0.505408365	-1.1286894579	-2.3786603481	 0.301462
H	 0.4852133961	-3.8224352722	-0.2534664778	 0.095751
H	 1.988621811	-1.8747585895	 0.117884064	 0.119903
H	 1.9273067171	-2.1056138807	-1.6420600528	 0.12658
111.7473	149.0919	183.476	210.2554	276.3483	333.2488	408.4734	463.9483	509.4524	543.7232	609.3178	713.9733	737.4413	754.5474	780.8452	850.7281	900.966	948.8832	1001.8091	1013.9434	1045.5281	1062.8709	1093.784	1108.9334	1122.2242	1172.0848	1226.8045	1238.0423	1279.7505	1328.6034	1360.5729	1368.4061	1404.4614	1415.7556	1464.7528	1474.5956	1475.7502	1512.0196	1746.7419	3019.1355	3043.8664	3082.5552	3098.7481	3141.5054	3154.5884	3165.137	3166.0434	3784.7075
CC1=NC2C(O)C2CO1	CC1=N[C@H]2[C@@H](O)[C@H]2CO1	
InChI=1S/C6H9NO2/c1-3-7-5-4(2-9-3)6(5)8/h4-6,8H,2H2,1H3	InChI=1S/C6H9NO2/c1-3-7-5-4(2-9-3)6(5)8/h4-6,8H,2H2,1H3/t4-,5+,6-/m0/s1
