17
gdb 89212	2.71091	1.41841	1.13879	2.5056	68.56	-0.2438	-0.0256	0.2182	1084.5733	0.133793	-458.942662	-458.934013	-458.933069	-458.97604	32.617	
O	 0.58350237	 0.735041045	-0.8780768154	-0.428277
C	 0.0118330167	-0.2851660696	-0.1050702014	 0.165283
C	 0.1152780991	-0.2289355752	 1.4480209243	-0.370878
C	-1.3787758419	-0.6899158112	 1.5673671031	 0.305411
O	-1.6670819575	-1.8426803108	 2.2728811705	-0.468848
C	-1.524294727	-0.436923123	-0.015427659	-0.141863
C	-2.3046232369	 0.8703676247	 0.2886156405	-0.377305
C	-2.3230006421	 0.4957884017	 1.7884205544	 0.375191
O	-2.9491852023	 0.8879574097	 2.7273502373	-0.295189
H	 0.2429257311	 1.582841965	-0.5739952614	 0.282057
H	 0.4554773294	-1.2112393709	-0.4824868198	 0.098046
H	 0.8268171225	-0.9251548547	 1.9027018891	 0.112566
H	 0.3192727706	 0.7656488864	 1.8555974545	 0.117772
H	-0.8969083821	-2.4200031232	 2.2729228402	 0.286937
H	-2.0221478262	-1.1339742197	-0.6876766974	 0.084233
H	-1.8130724241	 1.8189929786	 0.046854889	 0.109081
H	-3.3109637295	 0.9052881173	-0.1368071686	 0.145782
56.4203	142.0332	207.8462	236.7261	251.6793	294.312	312.9764	405.9953	448.7282	488.7842	557.024	584.018	674.4367	741.1407	782.9674	852.8637	891.5496	941.5049	958.8101	1001.3032	1032.5856	1046.3156	1088.3027	1110.4976	1117.9164	1145.0007	1199.0945	1216.8115	1267.9372	1276.0201	1308.8536	1320.7663	1393.6778	1433.7862	1448.8342	1476.0115	1890.9866	3048.1162	3049.713	3065.7576	3101.336	3105.7052	3128.1177	3810.6284	3814.3073
OC1CC2(O)C1CC2=O	O[C@H]1C[C@]2(O)[C@H]1CC2=O	
InChI=1S/C6H8O3/c7-4-2-6(9)3(4)1-5(6)8/h3-4,7,9H,1-2H2	InChI=1S/C6H8O3/c7-4-2-6(9)3(4)1-5(6)8/h3-4,7,9H,1-2H2/t3-,4-,6-/m0/s1
