23
gdb 100834	3.70259	0.72513	0.63811	3.2811	83.71	-0.2463	-0.0171	0.2292	1785.4893	0.201959	-425.443925	-425.432549	-425.431605	-425.481362	40.296	
C	 0.1719158939	 1.6080974505	 0.1126835789	-0.378024
C	-0.0057561931	 0.0903926384	 0.0091012765	-0.207035
C	 0.6539524294	-0.5072580578	-1.2405942104	 0.134098
O	 2.036384087	-0.1520909652	-1.3006470688	-0.428267
C	 0.4771924322	-2.0384095679	-1.369116931	-0.008115
C	-0.9954846985	-2.4766111933	-1.3650488701	-0.408685
C	 1.192803927	-2.5487672689	-2.6403925278	-0.276845
C	 1.4158544202	-4.0391447568	-2.6041930712	 0.157676
O	 1.0108231586	-4.8299688834	-3.4175641618	-0.244759
H	 1.2299921426	 1.8805866967	 0.1018408953	 0.125446
H	-0.307336589	 2.1162975581	-0.7312236407	 0.117401
H	-0.2762645098	 1.9937880233	 1.0330898453	 0.111162
H	 0.4196503852	-0.3996403002	 0.8984808341	 0.085197
H	-1.0728114022	-0.1537147658	 0.0091031024	 0.107136
H	 0.2164408811	-0.0354180908	-2.1314681882	 0.088799
H	 2.4508030854	-0.4564757327	-0.4847115918	 0.277022
H	 0.976823621	-2.490188769	-0.4962588079	 0.063635
H	-1.0849356376	-3.5444686276	-1.5865129341	 0.131755
H	-1.4773649728	-2.2978201721	-0.4009010979	 0.120991
H	-1.5630239562	-1.9381612122	-2.1331864033	 0.12215
H	 0.6250408232	-2.2966178146	-3.5419076788	 0.113138
H	 2.1738863654	-2.0608402174	-2.6969501993	 0.132564
H	 2.009093837	-4.3849763412	-1.7222929594	 0.06356
49.0286	58.0885	77.7161	107.1974	165.3015	207.071	227.4332	257.8774	276.7078	314.6448	318.5924	378.6514	422.9943	492.2657	527.2757	543.8163	781.2541	795.501	852.4064	908.6104	952.6247	959.895	989.3089	1019.2667	1051.7923	1085.2445	1097.8112	1130.2881	1154.0715	1165.1625	1216.2039	1240.5783	1265.6362	1310.6392	1330.9558	1354.3661	1376.05	1387.337	1407.5502	1416.452	1419.8077	1432.0798	1468.9223	1482.5751	1495.7938	1498.4484	1503.8789	1508.6972	1832.3729	2831.9662	2969.7476	2994.6917	3022.1654	3032.469	3035.6418	3040.0755	3075.5881	3095.1406	3099.6866	3104.0331	3118.2026	3126.4352	3787.692
CCC(O)C(C)CC=O	CC[C@@H](O)[C@@H](C)CC=O	
InChI=1S/C7H14O2/c1-3-7(9)6(2)4-5-8/h5-7,9H,3-4H2,1-2H3	InChI=1S/C7H14O2/c1-3-7(9)6(2)4-5-8/h5-7,9H,3-4H2,1-2H3/t6-,7+/m0/s1
