18
gdb 81413	4.09632	1.09895	1.04827	3.8231	74.01	-0.2304	0.0346	0.265	1171.9802	0.14917	-439.083595	-439.075796	-439.074852	-439.116876	29.997	
O	-0.0867748204	 1.4171370909	 0.0680524066	-0.437103
C	 0.0291422533	 0.0186411647	 0.0138144635	 0.147415
C	-1.3598741484	-0.6537184606	-0.209303158	-0.074538
C	-1.1902306328	-0.2806193771	-1.7190863401	-0.233484
C	 0.2949745588	-0.6093918275	-1.40020135	-0.066622
N	 0.2247181878	-2.0295115922	-1.060276269	-0.017523
C	-0.9705698614	-2.1444023563	-0.2030646981	-0.183424
C	 0.9852502344	-3.0578417329	-1.4917729926	 0.130494
O	 0.8090849229	-4.2215511539	-1.1878279165	-0.345731
H	 0.7981887537	 1.7947989711	 0.0431498086	 0.289854
H	 0.6491486076	-0.3789130304	 0.8287022359	 0.074962
H	-2.2291618417	-0.3597261145	 0.3757818203	 0.086178
H	-1.6899176833	-0.9023694983	-2.46501922	 0.102954
H	-1.3561830972	 0.7790230721	-1.9005661598	 0.127191
H	 1.1386767776	-0.3461440238	-2.0374847813	 0.081116
H	-0.717515003	-2.5318742333	 0.7885344945	 0.126032
H	-1.724212792	-2.7992270854	-0.6510256041	 0.128132
H	 1.8038024941	-2.7183402823	-2.1589885199	 0.064094
22.2427	191.0049	266.3865	303.8683	314.2179	335.6691	387.1494	441.6873	471.6943	582.9595	704.7601	827.7701	837.5471	850.4152	891.1009	929.6455	944.1995	994.0425	1026.9963	1028.5501	1042.9756	1076.6782	1119.9348	1132.9048	1171.611	1190.3968	1204.7282	1231.5333	1250.6432	1264.2502	1274.3321	1312.3487	1337.1916	1415.1121	1422.7979	1464.149	1488.5779	1519.9735	1786.5383	2921.6318	3013.9734	3050.7248	3082.5595	3092.348	3128.7768	3141.1517	3170.6263	3817.7449
OC1C2CC1N(C2)C=O	O[C@H]1[C@H]2C[C@@H]1N(C2)C=O	
InChI=1S/C6H9NO2/c8-3-7-2-4-1-5(7)6(4)9/h3-6,9H,1-2H2	InChI=1S/C6H9NO2/c8-3-7-2-4-1-5(7)6(4)9/h3-6,9H,1-2H2/t4-,5-,6-/m0/s1
