16
gdb 54297	2.4582	1.61639	1.07122	4.4757	67.21	-0.2446	-0.0003	0.2444	1089.7176	0.124328	-471.224002	-471.215356	-471.214412	-471.257506	32.88	
N	 0.9825162201	-0.3478655904	 0.7689750611	-0.541525
C	 0.107808851	-0.1505168724	-0.2636711508	 0.298642
N	 0.3447791723	 0.4433551067	-1.3762635982	-0.562442
C	-1.2452694776	-0.7839737819	-0.0209468155	 0.250011
C	-1.2813405713	-2.2176853034	 0.3591769194	-0.183907
O	-1.4432385077	-1.2020541754	 1.3379633203	-0.259396
C	-2.539455939	-0.2686817605	-0.6754043907	 0.354621
N	-2.3787326237	 0.6724386935	-1.6271516952	-0.545701
O	-3.6067447383	-0.7301705775	-0.3187331016	-0.368992
H	 1.8423664872	 0.1755737141	 0.7762701696	 0.253909
H	 0.5755985814	-0.5874825556	 1.6608781055	 0.276491
H	 1.2943842936	 0.8118713965	-1.4209786324	 0.209438
H	-2.1876927449	-2.7703157417	 0.1270788646	 0.152329
H	-0.3466407351	-2.7727575949	 0.4045483043	 0.124802
H	-1.436191201	 0.8947300855	-1.9411615247	 0.286255
H	-3.198133827	 0.9590806471	-2.1374392458	 0.255464
56.6771	80.5842	260.4451	273.9428	298.1059	344.2239	391.224	408.3127	435.6373	469.2808	527.7864	557.1724	604.7328	677.4278	685.6513	726.579	781.3842	838.1773	890.4416	902.1443	950.1443	1092.5225	1126.9708	1138.8733	1165.4703	1172.2611	1190.0146	1324.3411	1382.233	1443.248	1489.1696	1603.7136	1609.4381	1711.8177	1802.2465	3100.2909	3208.5551	3418.9151	3475.9789	3575.3929	3679.1947	3702.8804
NC(=N)C1(CO1)C(N)=O	NC(=N)[C@]1(CO1)C(=O)N	
InChI=1S/C4H7N3O2/c5-2(6)4(1-9-4)3(7)8/h1H2,(H3,5,6)(H2,7,8)	InChI=1S/C4H7N3O2/c5-2(6)4(1-9-4)3(7)8/h1H2,(H3,5,6)(H2,7,8)/t4-/m1/s1
