15
gdb 47478	3.37619	1.11796	0.87175	2.4367	67.03	-0.2712	-0.0068	0.2644	1254.5539	0.111477	-457.762328	-457.754029	-457.753085	-457.79605	29.666	
O	-0.074145022	 0.052939479	 0.2939590261	-0.332918
C	-0.0605228536	 1.2332827024	 0.1120447007	 0.432494
O	-1.166888113	 1.983812426	-0.123607893	-0.219237
C	-0.7549202233	 3.3354702426	-0.3452350841	 0.024518
O	 0.5355602577	 3.4680297263	 0.1889599498	-0.24515
C	 1.1368536782	 2.1855013348	 0.1053415855	-0.046439
C	 2.0882258983	 1.9335732214	 1.2775278627	-0.371414
C	 3.304736121	 2.7306240236	 1.2082370847	 0.298278
C	 4.3070251248	 3.388498374	 1.1361690784	-0.428688
H	-0.775318179	 3.5292353295	-1.4284600529	 0.115982
H	-1.4369894515	 4.0076291516	 0.1801741076	 0.141112
H	 1.678380174	 2.0634729233	-0.8463605627	 0.122741
H	 1.5495677623	 2.1383578893	 2.2101452273	 0.146274
H	 2.3249911841	 0.862891358	 1.2740854267	 0.161449
H	 5.1949059319	 3.9683295582	 1.0819352832	 0.200999
62.4239	99.7059	133.3285	199.7471	232.7665	338.9893	378.374	445.3672	549.1425	620.0693	625.4955	655.9699	712.2634	751.291	854.459	909.4493	981.8021	1009.034	1044.4489	1072.6153	1124.6991	1146.3115	1209.9706	1226.1111	1249.3394	1279.852	1342.9375	1381.7859	1441.4753	1457.7459	1543.9989	1897.0287	2246.1121	2985.0518	2993.3395	3037.2612	3077.9138	3108.1839	3506.8825
O=C1OCOC1CC#C	O=C1OCO[C@H]1CC#C	
InChI=1S/C6H6O3/c1-2-3-5-6(7)9-4-8-5/h1,5H,3-4H2	InChI=1S/C6H6O3/c1-2-3-5-6(7)9-4-8-5/h1,5H,3-4H2/t5-/m0/s1
