19
gdb 110117	1.92537	1.35096	0.99183	2.4156	76.64	-0.2489	0.0067	0.2556	1277.8143	0.157981	-419.181444	-419.171529	-419.170585	-419.217031	35.195	
C	-0.9857177749	 1.0485312874	 0.3458954568	-0.383685
C	 0.246908552	 0.2613657353	-0.0891256048	-0.133515
N	 0.7882198254	-0.4939631939	 1.045765464	-0.098399
C	 0.2883587641	-1.8113615937	 1.4036779003	-0.033456
C	-0.7936392336	-2.5692370443	 0.6512772778	-0.096851
O	-0.6672609571	-3.9650024732	 0.8579941339	-0.416546
C	 1.6678941363	-1.6423887146	 0.8112204288	-0.179064
C	 1.9022939925	-2.1468373994	-0.5207872003	 0.282195
N	 2.0937537562	-2.5623363033	-1.5842905987	-0.346385
H	-0.7513288567	 1.6903465957	 1.1994532038	 0.134086
H	-1.3420723437	 1.6763375405	-0.4757850781	 0.124225
H	-1.8031741431	 0.3812854488	 0.6374396091	 0.123474
H	 0.0135506378	-0.3659361064	-0.9604277098	 0.114142
H	 1.0386140431	 0.9498931049	-0.4041800399	 0.119638
H	 0.2621396541	-1.9908595338	 2.4775139973	 0.116613
H	-1.7726164109	-2.2907538311	 1.0548528658	 0.122006
H	-0.791443303	-2.3179580518	-0.4157153664	 0.115867
H	 0.086318756	-4.2699707582	 0.3408039228	 0.296586
H	 2.5428818154	-1.693294529	 1.4540677877	 0.139068
44.1742	82.5131	113.3551	144.3696	191.718	228.2083	259.6371	319.0527	355.2302	381.3301	418.1813	531.3228	607.3357	640.9647	716.0018	815.4115	843.6786	851.138	960.5805	986.9259	1020.2256	1062.7539	1076.059	1107.352	1136.2596	1151.2683	1182.2224	1220.661	1305.8298	1325.3695	1349.6101	1368.4419	1392.3339	1412.6833	1415.543	1433.1397	1490.3514	1496.2133	1499.0532	1519.4474	2340.6733	3008.5695	3037.3501	3043.6666	3064.1906	3081.7795	3113.9048	3122.7293	3125.1382	3143.3391	3808.3959
CCN1C(CO)C1C#N	CCN1[C@@H](CO)[C@H]1C#N	
InChI=1S/C6H10N2O/c1-2-8-5(3-7)6(8)4-9/h5-6,9H,2,4H2,1H3	InChI=1S/C6H10N2O/c1-2-8-5(3-7)6(8)4-9/h5-6,9H,2,4H2,1H3/t5-,6+,8?/m1/s1
