19
gdb 128316	3.18529	1.21278	0.89406	2.725	80.91	-0.1773	0.0411	0.2184	1316.6874	0.160115	-415.40391	-415.393768	-415.392824	-415.439073	35.897	
C	 0.1156990874	 1.455993391	-0.0119999004	-0.310599
N	-0.1501348742	 0.0310806109	-0.1209140405	-0.379748
C	 0.5174031788	-0.6816510667	-1.1032828681	 0.40981
N	 1.1079820204	-0.1092082578	-2.1456877316	-0.330478
N	 1.5767097894	-1.161905167	-2.8731907083	-0.291931
C	 1.3034270755	-2.3721523127	-2.317530669	 0.347053
C	 1.7342874768	-3.666231657	-2.9226170357	-0.510072
C	 0.6091768304	-2.1010525363	-1.1528298013	-0.031973
N	 0.1099733622	-2.9633821243	-0.1425249225	-0.630315
H	 1.1761943478	 1.6923551618	 0.1643732038	 0.109817
H	-0.1786444157	 1.9509646134	-0.9409897893	 0.142805
H	-0.4818486948	 1.867514007	 0.8054778724	 0.109614
H	-0.1359402537	-0.4673277778	 0.7594733621	 0.236735
H	 2.1145317614	-0.9740442918	-3.6999159546	 0.260569
H	 2.7977231082	-3.8774075874	-2.7542825544	 0.13575
H	 1.1623222147	-4.492246962	-2.489598872	 0.126076
H	 1.5633226603	-3.6801001023	-4.0046187593	 0.132408
H	 0.5580922225	-3.8716022879	-0.1602282781	 0.233887
H	-0.8920832573	-3.110531163	-0.2250931533	 0.240591
70.0499	92.4031	135.0734	161.5893	182.5988	197.3566	248.5109	259.1781	305.3906	330.4239	411.9349	527.3602	577.9905	643.7522	677.921	735.352	747.5649	801.9237	830.474	990.1815	1007.7578	1057.2636	1098.8999	1138.8628	1156.9786	1203.3603	1230.347	1252.8671	1311.8044	1401.216	1424.2229	1452.6825	1478.7568	1483.3142	1483.7793	1502.9866	1517.751	1536.9026	1588.7484	1635.8095	1663.111	2987.8003	3021.4514	3075.0783	3081.8407	3105.4026	3124.2737	3485.7047	3569.5555	3585.2055	3691.5749
CNC1=NNC(C)=C1N	CNc1n[nH]c(C)c1N	
InChI=1S/C5H10N4/c1-3-4(6)5(7-2)9-8-3/h6H2,1-2H3,(H2,7,8,9)	InChI=1S/C5H10N4/c1-3-4(6)5(7-2)9-8-3/h6H2,1-2H3,(H2,7,8,9)
