15
gdb 16615	3.48432	2.14945	1.47477	3.4189	67.61	-0.2333	-0.0531	0.1802	844.6048	0.119534	-362.666033	-362.65899	-362.658046	-362.697313	26.337	
C	 0.0412148126	 1.4997137513	 0.0339155319	-0.491297
C	-0.0292200507	 0.0108150577	-0.0382784266	 0.185707
C	-0.10658208	-0.7928515875	-1.1111610217	-0.141588
C	-0.0628289093	-2.2394907309	-0.7255890184	-0.087911
N	 1.2325782395	-2.5902624978	-0.0793943272	-0.326224
C	 0.0273830555	-2.2757685316	 0.7477500156	-0.170094
C	 0.0115350089	-0.8273019357	 1.2046235228	 0.38426
O	-0.0010832485	-0.4235455134	 2.3434908544	-0.328032
H	 0.9966612131	 1.8192822738	 0.4653521834	 0.146087
H	-0.0655593779	 1.95904197	-0.9517972514	 0.121938
H	-0.7402841538	 1.8895357596	 0.6945446197	 0.144202
H	-0.133559066	-0.46184853	-2.1434328087	 0.113776
H	-0.5906531073	-2.9924820119	-1.299199872	 0.103106
H	 1.3385189137	-3.6059203879	-0.0832621463	 0.235774
H	-0.4117819896	-3.0453027555	 1.3704045645	 0.110298
102.6296	151.6831	218.0874	254.7801	375.1498	444.9761	478.822	615.9376	665.1059	745.4533	797.1474	818.1374	867.4038	892.0312	902.7274	943.1972	1008.634	1025.7632	1067.0711	1092.1793	1130.8478	1153.3842	1219.9271	1271.8246	1338.6889	1348.9564	1384.9351	1414.3217	1472.6152	1483.2553	1685.6541	1818.7214	3036.5516	3090.9842	3123.2373	3180.5388	3195.9308	3199.454	3452.777
CC1=CC2NC2C1=O	CC1=C[C@H]2N[C@H]2C1=O	
InChI=1S/C6H7NO/c1-3-2-4-5(7-4)6(3)8/h2,4-5,7H,1H3	InChI=1S/C6H7NO/c1-3-2-4-5(7-4)6(3)8/h2,4-5,7H,1H3/t4-,5-/m1/s1
