18
gdb 22060	3.92448	0.76771	0.73256	3.2312	73.29	-0.2427	0.0081	0.2509	1560.4805	0.146242	-472.407195	-472.396892	-472.395948	-472.443381	36.694	
C	 1.037951445	 0.2472198253	 0.3281369602	-0.486931
C	-0.2956538822	-0.2420890197	-0.166361656	 0.347443
C	-1.1544185703	-1.1126743087	 0.7218585217	-0.237172
N	-0.5581260466	-2.4143964349	 0.9926808718	-0.333683
C	 0.1666921736	-2.6429954515	 2.1409582667	 0.457088
N	 0.7723831536	-3.8928825704	 2.1827494119	-0.560599
O	 0.2908614768	-1.8235881673	 3.034927877	-0.394154
N	-0.788734514	 0.0168974697	-1.3175294294	-0.166011
O	 0.0696699363	 0.8256985452	-2.0779403661	-0.39622
H	 1.8451193689	-0.1062633552	-0.322002763	 0.140298
H	 1.0697975028	 1.3411500839	 0.2892563838	 0.145265
H	 1.2200010246	-0.0857438591	 1.3504385359	 0.157304
H	-1.2914824992	-0.6350486658	 1.6957126359	 0.150519
H	-2.1304667105	-1.2469238333	 0.2485347955	 0.117185
H	-0.3890716241	-3.0108933691	 0.1977751887	 0.243649
H	 0.3024112615	-4.656897583	 1.7203293142	 0.248401
H	 1.1140618445	-4.1208444354	 3.1041517892	 0.262003
H	-0.4334330106	 0.9479799593	-2.889870418	 0.305615
45.699	73.5151	77.092	119.2713	217.2542	237.0237	288.2852	353.4868	366.2684	394.5274	410.4978	466.2506	511.7578	554.9147	563.2566	658.7345	663.8507	777.8367	815.0882	889.2431	982.4888	993.4945	1050.4233	1073.9354	1107.9023	1145.1969	1250.2677	1289.4234	1326.442	1378.5634	1401.5706	1407.2188	1460.9584	1485.967	1486.7914	1539.0667	1626.6522	1729.1017	1791.4009	3042.5577	3064.6629	3096.5032	3119.8189	3152.4195	3573.4416	3624.584	3687.683	3820.3018
CC(CNC(N)=O)=NO	CC(=NO)CNC(=O)N	
InChI=1S/C4H9N3O2/c1-3(7-9)2-6-4(5)8/h9H,2H2,1H3,(H3,5,6,8)	InChI=1S/C4H9N3O2/c1-3(7-9)2-6-4(5)8/h9H,2H2,1H3,(H3,5,6,8)
