20
gdb 22222	3.14867	0.80956	0.69551	2.9235	79.65	-0.2482	-0.02	0.2282	1618.9743	0.16641	-440.261809	-440.250894	-440.24995	-440.29898	37.968	
C	 0.6118833126	 1.0108895132	 0.6350111267	-0.396713
C	-0.0791621999	-0.1971018519	-0.0326229277	-0.084099
C	-1.5731769778	 0.0862309812	-0.2759882401	-0.270468
C	-2.3463549591	 0.1638234554	 1.0190069927	 0.153842
O	-3.0740429164	 1.0657534703	 1.3453531743	-0.243327
C	 0.6637345694	-0.6074212161	-1.2883920713	 0.353348
C	 2.0751239867	-1.1198368031	-1.1664241276	-0.471981
N	 0.0490643904	-0.4893469429	-2.4019212531	-0.159321
O	 0.8505362944	-0.8763575901	-3.4869969262	-0.406378
H	 1.664546153	 0.807488727	 0.8499395247	 0.121722
H	 0.5608274896	 1.8876807738	-0.0185074628	 0.132953
H	 0.1210682465	 1.2664801736	 1.5790787986	 0.131703
H	-0.0025862844	-1.0470626729	 0.6641895105	 0.087792
H	-1.7223445173	 1.0084709882	-0.842170357	 0.128452
H	-1.9995899354	-0.7354289395	-0.865819537	 0.130128
H	-2.2017459501	-0.7203455719	 1.6876068258	 0.065384
H	 2.7914397451	-0.3805288076	-1.5415009143	 0.14869
H	 2.3286978067	-1.3518737644	-0.1300100898	 0.120014
H	 2.201348011	-2.0157707969	-1.779969341	 0.151903
H	 0.2522768749	-0.7584074852	-4.2323365255	 0.306356
54.2649	57.9255	70.0756	100.4945	159.5117	194.3136	236.2871	283.251	310.1972	342.9042	378.9016	414.1354	445.9362	541.8469	565.3124	654.7305	768.4248	813.7025	911.8171	949.0772	973.3406	1007.5069	1025.186	1034.7768	1102.9918	1118.4751	1143.0244	1208.1075	1247.718	1272.3279	1329.7257	1377.6984	1397.0162	1401.2736	1412.7189	1430.4818	1454.9344	1474.3896	1482.9288	1495.7641	1504.5232	1727.9503	1835.3813	2830.6641	2979.3694	3037.8322	3039.7887	3044.2253	3105.03	3110.0915	3114.7636	3116.8839	3134.998	3820.3841
CC(CC=O)C(C)=NO	C[C@@H](CC=O)C(=NO)C	
InChI=1S/C6H11NO2/c1-5(3-4-8)6(2)7-9/h4-5,9H,3H2,1-2H3	InChI=1S/C6H11NO2/c1-5(3-4-8)6(2)7-9/h4-5,9H,3H2,1-2H3/t5-/m0/s1
