20
gdb 64230	3.03361	0.97476	0.89487	5.1187	79.49	-0.2693	0.0373	0.3066	1370.5735	0.169641	-403.1612	-403.151639	-403.150695	-403.19563	35.768	
C	-0.0642371922	 1.5717018351	-0.0985412908	-0.451583
C	-0.0078381755	 0.0478702897	-0.0342666534	 0.377436
O	-1.2954398701	-0.5129568918	-0.201305611	-0.47575
C	 1.1525602105	-0.5561832107	-0.887905421	-0.277865
C	 2.0012204368	-0.6686566496	 0.4072489789	-0.242758
C	 0.6884783453	-0.547941814	 1.223094887	 0.019914
C	 0.6656760059	 0.2239760144	 2.5467912411	-0.385556
C	 1.4344631467	-0.4526579727	 3.5903545296	 0.263377
N	 2.0501089882	-1.0006930751	 4.4005034154	-0.308582
H	 0.9178543976	 2.0265508994	 0.0640257721	 0.123509
H	-0.4045543399	 1.8901723785	-1.0916074772	 0.112519
H	-0.763020521	 1.971431517	 0.6428688546	 0.125749
H	-1.7121159469	-0.1024747888	-0.9669635973	 0.276386
H	 0.8625882714	-1.5365882266	-1.2728056017	 0.112894
H	 1.5464183899	 0.0531040315	-1.705447409	 0.094885
H	 2.5923201943	-1.5738232897	 0.5504049821	 0.118472
H	 2.6549317652	 0.1973557191	 0.5494832145	 0.105134
H	 0.2609430114	-1.5420575863	 1.3809943836	 0.108343
H	 1.0772676947	 1.2314764498	 2.4186665954	 0.145071
H	-0.3666764623	 0.3421976612	 2.8969283772	 0.158405
62.5144	114.8724	124.3915	223.134	250.6959	270.2383	279.9125	345.4255	383.4279	397.1626	421.2929	498.1868	543.9794	614.4664	753.9925	800.3328	875.7304	891.0407	899.0523	935.1796	954.9984	975.8166	1006.2665	1076.1722	1115.3184	1133.9282	1170.4704	1193.4789	1212.0873	1235.2138	1255.6065	1272.6387	1300.8611	1323.7253	1367.6141	1393.531	1408.3164	1464.4903	1478.0894	1493.3133	1497.5596	1500.2802	2360.4562	3025.0288	3038.6046	3057.219	3063.0375	3070.1348	3084.8932	3089.8659	3111.3657	3116.8026	3130.9476	3800.7481
CC1(O)CCC1CC#N	C[C@@]1(O)CC[C@H]1CC#N	
InChI=1S/C7H11NO/c1-7(9)4-2-6(7)3-5-8/h6,9H,2-4H2,1H3	InChI=1S/C7H11NO/c1-7(9)4-2-6(7)3-5-8/h6,9H,2-4H2,1H3/t6-,7+/m0/s1
