15
gdb 48261	3.23969	0.90661	0.75509	5.666	70.55	-0.2823	-0.0578	0.2245	1416.6923	0.11041	-416.837463	-416.827932	-416.826988	-416.873658	31.729	
O	-0.0742368632	-0.0743180453	 0.0016632716	-0.211272
C	-0.0191579288	 1.1220800132	 0.0082729945	 0.177055
C	 1.2793606848	 1.927397518	 0.0002183144	-0.082818
C	 1.3364400576	 2.8327183837	-1.2544842876	-0.372154
C	 1.3811492096	 2.0768654338	-2.5042400718	 0.26834
N	 1.4182277168	 1.4775811292	-3.4907644084	-0.282062
C	 1.3604569809	 2.8193627739	 1.2631149439	-0.372151
C	 1.4287089345	 2.0502631317	 2.5036927608	 0.268318
N	 1.4843391683	 1.4404644608	 3.4828758009	-0.282062
H	-0.9404398166	 1.7528290677	 0.0211031401	 0.085993
H	 2.1089006032	 1.2166288412	-0.0114947826	 0.144255
H	 0.4645915896	 3.4989020015	-1.2790314052	 0.162376
H	 2.2221088824	 3.4760295116	-1.2044660723	 0.166903
H	 2.2451460861	 3.4631664044	 1.2031309293	 0.166902
H	 0.4893638549	 3.4852453245	 1.3112807523	 0.162375
44.7984	50.0623	79.9109	98.0198	185.0419	282.5703	317.9127	318.7456	385.0428	393.3874	455.7239	554.6903	596.5929	826.9593	873.369	902.4455	975.3578	986.3455	1046.9357	1089.5973	1094.6223	1209.2927	1224.7171	1280.8468	1343.4223	1353.16	1367.1984	1423.6066	1460.0418	1472.7569	1853.5327	2369.3708	2369.9286	2848.8893	3035.0486	3036.9446	3075.9518	3076.8942	3104.4833
O=CC(CC#N)CC#N	O=CC(CC#N)CC#N	
InChI=1S/C6H6N2O/c7-3-1-6(5-9)2-4-8/h5-6H,1-2H2	InChI=1S/C6H6N2O/c7-3-1-6(5-9)2-4-8/h5-6H,1-2H2
