21
gdb 109878	2.32483	1.49682	1.09559	1.5167	78.94	-0.2411	0.0735	0.3146	1197.227	0.181073	-424.190483	-424.180881	-424.179937	-424.224673	35.918	
C	-0.2402546286	 1.3462257765	 0.1213566967	-0.249324
O	 0.1589046227	-0.0003351133	-0.0727136914	-0.254055
C	 0.7388722507	-0.5812078904	 1.0753506922	 0.004403
C	-0.2785770652	-1.2453205322	 2.0782822064	 0.112292
O	-1.6437290979	-1.0605523279	 1.7946157422	-0.441884
C	 0.3757453305	-2.6012219267	 1.7994805243	-0.127034
C	 0.3505988334	-2.900694542	 0.3263349696	-0.342376
C	 1.3888400307	-1.9409557935	 0.8364674408	 0.345147
C	 2.8667872671	-2.1576853178	 0.6765714532	-0.506342
H	 0.6208450124	 1.9833491156	 0.3731940759	 0.108242
H	-0.6711787538	 1.692811236	-0.8212214672	 0.126458
H	-0.9913748022	 1.4373810614	 0.9163537751	 0.12595
H	 1.4153582027	 0.1325536455	 1.5656453764	 0.060698
H	-0.1224340237	-0.917031532	 3.1089833818	 0.084177
H	-1.719217377	-1.0073647097	 0.8341360881	 0.287575
H	 0.5548662956	-3.3750180145	 2.5369045867	 0.083881
H	 0.7352742368	-3.8783665839	 0.0528355922	 0.111343
H	-0.4640869192	-2.5619436877	-0.3064826552	 0.109595
H	 3.2165809519	-1.7888925693	-0.294887072	 0.127602
H	 3.4365786834	-1.636808108	 1.4547602905	 0.114714
H	 3.1177110695	-3.221806596	 0.7345264136	 0.118937
79.8326	115.2086	163.64	197.6771	218.2311	226.2524	240.3326	335.5636	340.9549	388.775	494.6444	539.8373	556.2786	717.3112	729.8579	800.387	840.2779	906.2942	963.2775	967.4642	998.9921	1022.6294	1035.6093	1069.8121	1101.4825	1109.2085	1113.6408	1145.6586	1177.8921	1191.1251	1217.6316	1246.4892	1275.7428	1303.3851	1314.4855	1368.3831	1403.7423	1422.6536	1439.6024	1478.1802	1486.3688	1488.2106	1499.6301	1506.9892	1513.4527	2988.1078	3004.5487	3022.385	3053.6133	3078.9101	3081.0538	3096.8184	3116.0944	3122.0398	3179.0131	3201.3854	3784.6885
COC1C(O)C2CC12C	CO[C@H]1[C@@H](O)[C@H]2C[C@@]12C	
InChI=1S/C7H12O2/c1-7-3-4(7)5(8)6(7)9-2/h4-6,8H,3H2,1-2H3	InChI=1S/C7H12O2/c1-7-3-4(7)5(8)6(7)9-2/h4-6,8H,3H2,1-2H3/t4-,5+,6+,7-/m1/s1
