21
gdb 30648	3.66689	0.93045	0.91085	0.4187	85.62	-0.2115	0.0249	0.2364	1424.6431	0.182481	-387.132109	-387.122756	-387.121812	-387.166893	34.639	
C	 0.0897740836	 1.5201276555	-0.0130003268	-0.394152
C	-0.0186311977	-0.007066391	 0.0194193517	-0.162901
C	-1.4684152183	-0.5484451995	-0.0213028059	-0.093942
C	-2.2057785549	-0.1746806557	-1.3219814097	-0.393089
C	-1.4888015095	-2.0270617485	 0.2021168159	 0.392078
C	-1.9898475109	-2.8223349767	 1.1866988972	-0.296083
C	-1.677847178	-4.1752868693	 0.8250139418	-0.169815
C	-1.0101782505	-4.1013259329	-0.3531774973	-0.023869
O	-0.8850519185	-2.8042196558	-0.7476325527	-0.189475
H	 1.1316968922	 1.8354641245	 0.1004196532	 0.113823
H	-0.2773894765	 1.9405637083	-0.9540134603	 0.119542
H	-0.4841762602	 1.9763548256	 0.801969251	 0.112223
H	 0.541616238	-0.4403295472	-0.8178935847	 0.107464
H	 0.4580721085	-0.3825199062	 0.9324742394	 0.099359
H	-2.0151720707	-0.1093071415	 0.8233282344	 0.082379
H	-1.6905837371	-0.5940071214	-2.1918316646	 0.126848
H	-3.2264262182	-0.5680955215	-1.3147477576	 0.118051
H	-2.2635588527	 0.9096585718	-1.4483670573	 0.113808
H	-2.5189578827	-2.486576455	 2.0651715868	 0.102418
H	-1.9209467329	-5.0734520745	 1.3708627862	 0.107668
H	-0.576566683	-4.8341802889	-1.0133884407	 0.127666
51.9536	77.6694	113.3193	183.2112	214.8353	269.3586	286.9482	347.5024	379.9209	477.0164	615.0385	691.0875	716.6774	743.4174	780.744	803.1732	840.932	845.4591	902.2488	939.8165	962.1877	982.2797	1022.375	1037.2264	1069.7282	1106.4306	1132.155	1179.3023	1185.3405	1233.7453	1251.5471	1285.9541	1317.3065	1348.3399	1374.6755	1402.907	1411.5505	1420.0836	1485.3662	1493.2264	1500.067	1504.7353	1511.3107	1542.9229	1634.4466	3023.1311	3030.6925	3032.6389	3042.2011	3065.7958	3097.6742	3107.5428	3112.9966	3119.3721	3247.9233	3259.5863	3284.6227
CCC(C)C1=CC=CO1	CC[C@@H](C)c1ccco1	
InChI=1S/C8H12O/c1-3-7(2)8-5-4-6-9-8/h4-7H,3H2,1-2H3	InChI=1S/C8H12O/c1-3-7(2)8-5-4-6-9-8/h4-7H,3H2,1-2H3/t7-/m1/s1
