25
gdb 122212	3.19019	0.71262	0.6466	1.6629	89.62	-0.2577	0.0896	0.3473	1898.8688	0.227018	-389.486886	-389.475855	-389.474911	-389.523949	40.049	
C	-0.3890223937	 1.4741842235	 0.0118835532	-0.38178
C	 0.0381805675	 0.0051758312	 0.0698769808	-0.164394
C	 0.6671248504	-0.4903860382	-1.2369634574	-0.160426
C	 1.0969648577	-1.9631770581	-1.1709828198	-0.266531
C	 1.5933025549	-2.5256780401	-2.4944920102	 0.415513
C	 2.8766521969	-1.9131468027	-3.041447168	-0.246248
C	 3.3774405278	-2.4955357815	-4.3652966588	-0.398532
C	 1.1711995576	-3.882587277	-2.878300053	-0.233209
O	 0.5485486427	-2.7341232492	-3.4627485973	-0.276876
H	 0.4666875676	 2.1282433508	-0.1899618826	 0.112467
H	-1.1250134146	 1.6406194209	-0.7824575619	 0.115948
H	-0.8389522521	 1.7975870685	 0.9558233761	 0.110497
H	 0.7511090933	-0.1374081097	 0.8932443106	 0.091991
H	-0.8313440562	-0.6203848073	 0.3115425214	 0.095752
H	-0.0499764489	-0.370976365	-2.0589355834	 0.111244
H	 1.52776847	 0.1453141122	-1.4809054586	 0.093626
H	 1.881534374	-2.0894548306	-0.4123157152	 0.093465
H	 0.2422466668	-2.5654802666	-0.8417634296	 0.097384
H	 2.7044151052	-0.8376123473	-3.1694713126	 0.111102
H	 3.6525947278	-2.0033398867	-2.2700708389	 0.099591
H	 4.1990709743	-1.8917308331	-4.7610082968	 0.111493
H	 3.7504078092	-3.5177205946	-4.2478165391	 0.114475
H	 2.5740402849	-2.5070607118	-5.1070072481	 0.13846
H	 1.7732596201	-4.4796439981	-3.5596080999	 0.109888
H	 0.5437499966	-4.4582657996	-2.1981822409	 0.105101
45.6094	71.6275	82.8252	119.3127	135.6644	226.6858	249.8125	252.7056	301.7902	329.4141	361.8042	381.1799	486.2756	551.9851	703.4062	735.194	775.4356	786.0917	844.1727	900.9107	912.6868	940.6833	945.7173	1017.508	1027.6708	1062.6675	1068.3	1102.0807	1116.0399	1137.4149	1148.9771	1174.8792	1222.2322	1254.5605	1280.0659	1304.5031	1319.766	1335.3166	1360.9068	1385.8703	1394.5894	1403.8484	1413.214	1428.9706	1472.6552	1481.5799	1486.1771	1498.266	1499.958	1500.36	1512.2629	1512.4502	1534.0883	3010.4595	3012.8512	3022.488	3025.3685	3029.8834	3037.2552	3042.7499	3052.3928	3057.9329	3075.0091	3084.8466	3096.7358	3101.185	3107.9009	3122.4357	3171.8488
CCCCC1(CC)CO1	CCCC[C@@]1(CC)CO1	
InChI=1S/C8H16O/c1-3-5-6-8(4-2)7-9-8/h3-7H2,1-2H3	InChI=1S/C8H16O/c1-3-5-6-8(4-2)7-9-8/h3-7H2,1-2H3/t8-/m0/s1
