16
gdb 26448	3.67416	1.06386	0.92551	2.5692	70.18	-0.2409	-0.0242	0.2167	1243.5135	0.123813	-437.927118	-437.918771	-437.917826	-437.96124	29.535	
C	 0.1120302139	 1.4713235355	 0.552450336	-0.404704
C	-0.0859808699	 0.0753499608	-0.0365323726	-0.184282
C	 0.8458062509	-0.9561676214	 0.6065242122	 0.149741
O	 1.7122057174	-0.6836812007	 1.3953476935	-0.239101
C	-1.4969562144	-0.4303020104	 0.0387668448	 0.23454
C	-2.5641448903	 0.0391271064	 0.7323387781	-0.110711
O	-3.629291885	-0.7843765743	 0.4875102711	-0.137616
C	-3.1388090403	-1.7241314241	-0.3472828639	 0.073952
N	-1.8924799715	-1.5768178819	-0.6531094833	-0.305831
H	 1.1595106291	 1.7682410333	 0.476400761	 0.137727
H	-0.5040538963	 2.205561345	 0.0268675028	 0.118452
H	-0.150701675	 1.488434592	 1.614354715	 0.129609
H	 0.19175245	 0.0728589848	-1.1025659354	 0.121678
H	 0.6593102424	-2.0005359321	 0.2786874196	 0.104648
H	-2.7440529955	 0.8746361412	 1.3849405126	 0.155171
H	-3.8239919956	-2.490253734	-0.6746180215	 0.156727
42.3665	81.8311	153.708	197.7147	231.9656	265.6024	367.0248	428.2714	581.7601	641.8675	698.6821	718.9374	776.3713	850.8815	851.2089	931.3139	940.65	977.9549	1070.8281	1098.2435	1103.2291	1122.181	1142.0536	1225.135	1251.0484	1290.5489	1334.335	1350.1404	1403.5734	1422.961	1489.4051	1497.9743	1556.2774	1620.8147	1830.463	2917.6783	2991.9387	3051.3877	3119.4391	3139.078	3277.2135	3303.585
CC(C=O)C1=COC=N1	C[C@@H](C=O)c1cocn1	
InChI=1S/C6H7NO2/c1-5(2-8)6-3-9-4-7-6/h2-5H,1H3	InChI=1S/C6H7NO2/c1-5(2-8)6-3-9-4-7-6/h2-5H,1H3/t5-/m0/s1
