19
gdb 36535	3.90023	0.97831	0.83365	3.2397	76.79	-0.2416	0.0187	0.2604	1356.2519	0.161225	-419.208186	-419.199896	-419.198952	-419.241456	31.077	
N	-0.080914399	-1.1596011777	-0.037792256	-0.307384
C	-0.0402559145	-0.0055905055	-0.0142092472	 0.277006
C	-0.001335056	 1.4621772003	 0.0029093198	-0.27962
N	 1.3601111976	 1.9720447357	-0.0237298074	-0.081282
C	 2.0600360174	 1.6567284741	-1.2715123545	-0.164744
C	 3.4884741481	 2.1884658493	-1.2012778414	-0.084415
O	 3.5069206801	 3.5834762434	-0.9529389907	-0.241617
C	 2.8457957784	 3.8883367189	 0.2604838876	-0.084621
C	 1.3952159372	 3.410762854	 0.238025686	-0.153718
H	-0.6207626931	 1.8285038279	-0.8394231626	 0.129485
H	-0.4884323506	 1.802639225	 0.9240542627	 0.152216
H	 2.0754042766	 0.5706939689	-1.409085705	 0.1297
H	 1.5474471348	 2.1041300885	-2.1449507668	 0.088146
H	 4.0391332486	 1.6526062768	-0.411740447	 0.101004
H	 4.0003741957	 2.0312948094	-2.154315085	 0.113712
H	 3.3688661657	 3.4196482444	 1.1097189566	 0.098756
H	 2.8875397465	 4.9745216264	 0.3792863741	 0.112033
H	 0.8375960114	 3.9806316577	-0.530280362	 0.089563
H	 0.9275135049	 3.6101171626	 1.2092918388	 0.105779
70.659	107.907	183.9745	253.9307	318.7723	331.0629	385.808	397.2761	421.554	492.9671	555.5089	635.0558	805.9264	868.7241	881.9118	908.6879	954.821	1009.578	1025.102	1048.3059	1099.0568	1141.1118	1144.6872	1160.0627	1187.7192	1233.1039	1261.6157	1299.9034	1321.76	1338.0598	1363.4672	1380.3425	1403.5444	1422.9913	1428.7184	1472.0406	1483.5924	1485.34	1496.3452	1505.738	2366.6173	2914.7507	2919.2926	2927.6197	2980.125	2986.734	3057.2829	3060.288	3078.1049	3093.9982	3098.1331
N#CCN1CCOCC1	N#CCN1CCOCC1	
InChI=1S/C6H10N2O/c7-1-2-8-3-5-9-6-4-8/h2-6H2	InChI=1S/C6H10N2O/c7-1-2-8-3-5-9-6-4-8/h2-6H2
