16
gdb 133487	4.52083	0.57328	0.56459	2.298	66.54	-0.2531	0.0536	0.3067	1917.4173	0.118643	-532.246955	-532.236988	-532.236044	-532.284859	33.488	
C	-0.0137406775	 0.082255182	-0.0716973477	 0.006651
C	 0.0166402967	 0.1282996615	 1.3847415998	-0.370593
C	 1.4339117848	-0.0952936882	 1.9466426202	-0.317919
H	-0.6545138271	-0.6323191017	 1.8008956719	 0.143815
H	-0.3577962603	 1.09561909	 1.7400771702	 0.143815
H	 1.8214756023	-1.0690264703	 1.6362688662	 0.140171
H	 2.1201061879	 0.6700531587	 1.5750587488	 0.140171
C	 1.4633147432	-0.0470996015	 3.4593735184	 0.284968
F	 2.7038616357	-0.2435983372	 3.9289291959	-0.077382
F	 0.6738439276	-0.9899807931	 4.0026340185	-0.086658
F	 1.0395541608	 1.1397202623	 3.9276754701	-0.086658
C	-0.010872891	 0.0394393432	-1.2745727753	 0.130415
C	-0.0244765078	-0.0094385151	-2.7296569811	-0.498018
H	-0.6805314623	-0.8070213732	-3.0952830924	 0.149363
H	 0.9778733049	-0.1961513329	-3.1305821648	 0.148495
H	-0.3806446628	 0.934542519	-3.1565914197	 0.149362
15.6364	41.4389	77.817	98.4288	182.3531	209.4665	278.7693	358.3864	373.1795	385.8197	474.5359	538.4155	562.6045	645.2207	775.5069	776.1682	859.304	996.7713	1034.771	1053.8409	1054.4567	1137.2904	1165.6106	1186.0638	1253.7201	1269.2427	1322.0053	1331.7844	1400.8823	1415.713	1475.3883	1478.4253	1479.0547	1488.2223	2378.4296	3027.2681	3032.8214	3065.1427	3075.7843	3088.034	3088.3597	3126.3211
CC#CCCC(F)(F)F	C(#CC)CCC(F)(F)F	
InChI=1S/C6H7F3/c1-2-3-4-5-6(7,8)9/h4-5H2,1H3	InChI=1S/C6H7F3/c1-2-3-4-5-6(7,8)9/h4-5H2,1H3
