16
gdb 52185	4.01241	0.80766	0.71062	3.2694	67.68	-0.2639	-0.0035	0.2604	1504.7611	0.123333	-475.061645	-475.052904	-475.051959	-475.096803	30.45	
O	 0.3287212192	 0.2338123315	 0.7645623892	-0.267803
C	 0.3192754628	 1.4151815552	 0.6014024937	 0.16912
O	 0.9465511836	 2.0100865116	-0.4356819934	-0.183228
C	 0.9413499698	 3.4395691618	-0.5013551891	-0.096352
C	 2.345779131	 3.966678802	-0.2635561476	 0.050121
C	 2.4753893209	 5.4998703022	-0.0235738233	-0.413919
C	 3.0573591686	 5.1148011958	 1.3612174534	 0.435878
O	 3.5319732978	 5.6996717475	 2.2930417116	-0.342744
N	 2.8394332126	 3.7753833946	 1.1061910349	-0.331509
H	-0.1964939885	 2.1386118407	 1.2618642062	 0.086746
H	 0.5895904561	 3.7177390216	-1.4998206841	 0.130979
H	 0.2509545879	 3.8525945422	 0.2451691566	 0.115924
H	 3.0252709509	 3.5758592471	-1.0281694683	 0.10653
H	 3.1813403572	 6.0188532345	-0.672879212	 0.143998
H	 1.535441529	 6.0549180314	 0.015048637	 0.13422
H	 3.206993121	 2.9538949003	 1.5649072552	 0.262037
36.9946	68.88	100.034	151.7105	209.042	339.2377	386.8253	420.7185	453.1899	513.2745	566.9043	672.1577	730.3491	828.4999	917.2629	941.2779	1012.3442	1029.5611	1044.1052	1062.7868	1080.5774	1124.9969	1168.9028	1194.1211	1215.5015	1262.1353	1307.5142	1364.7957	1387.205	1408.3897	1434.4426	1461.8919	1494.464	1869.1044	1906.7859	2955.3561	3025.738	3056.8172	3086.2971	3092.747	3148.0766	3605.6952
O=COCC1CC(=O)N1	O=COC[C@H]1CC(=O)N1	
InChI=1S/C5H7NO3/c7-3-9-2-4-1-5(8)6-4/h3-4H,1-2H2,(H,6,8)	InChI=1S/C5H7NO3/c7-3-9-2-4-1-5(8)6-4/h3-4H,1-2H2,(H,6,8)/t4-/m1/s1
