17
gdb 103443	2.41796	1.58329	1.32257	1.146	62.74	-0.246	0.0524	0.2984	1010.1399	0.134884	-496.045084	-496.03678	-496.035836	-496.077697	32.287	
O	 0.008732304	 1.3943924289	 0.0048686904	-0.437461
C	 0.0432621129	-0.0252360515	-0.113299133	-0.142032
C	-1.3834283894	-0.5469852246	-0.0327744112	 0.343933
O	-2.160365796	-0.0513774777	-1.0959993308	-0.493904
C	-1.6259750651	-2.050998456	 0.152849604	-0.022913
O	-0.9875986372	-2.4155864336	 1.3874801693	-0.262578
C	-2.3120760057	-1.8517724007	 1.4402850169	-0.027497
C	-2.0987829931	-0.3353922612	 1.3777541761	 0.041004
O	-1.3649016544	 0.254601471	 2.4276152419	-0.439254
H	-0.2700713717	 1.5726772464	 0.9136947392	 0.297161
H	 0.4695043897	-0.2504857615	-1.0961851415	 0.117614
H	 0.6782990468	-0.4878459698	 0.6514303415	 0.098937
H	-1.9003972496	 0.8756212357	-1.1918235016	 0.288957
H	-1.7571452264	-2.8178780156	-0.600638675	 0.117953
H	-3.0772979905	-2.4369499751	 1.9366160487	 0.114022
H	-3.0182344993	 0.2362549695	 1.2385434874	 0.10797
H	-0.7019382849	-0.3959761042	 2.6935078778	 0.298088
119.4474	125.8184	190.5039	255.0879	301.3677	322.153	399.0144	466.4033	481.4872	501.5895	548.8968	614.2036	652.442	708.4967	795.9834	861.084	869.7338	912.5727	928.4406	992.5985	1031.0173	1051.7664	1054.3354	1098.5418	1114.1007	1165.217	1216.9427	1221.3445	1238.4648	1265.4334	1288.4496	1352.7259	1379.7415	1420.8994	1426.5427	1435.9878	1501.4837	3032.3814	3087.9536	3108.2725	3186.6238	3205.6477	3748.5765	3755.1405	3772.2103
OCC1(O)C2OC2C1O	OC[C@@]1(O)[C@H]2O[C@H]2[C@H]1O	
InChI=1S/C5H8O4/c6-1-5(8)3(7)2-4(5)9-2/h2-4,6-8H,1H2	InChI=1S/C5H8O4/c6-1-5(8)3(7)2-4(5)9-2/h2-4,6-8H,1H2/t2-,3+,4-,5-/m0/s1
