16
gdb 6262	4.19839	1.19005	1.05191	1.9358	69.29	-0.2763	-0.0389	0.2374	1152.0054	0.127137	-383.743541	-383.734493	-383.733548	-383.777471	31.94	
C	-0.0338491996	 1.5135532464	-0.042891256	-0.397848
C	 0.0107008631	-0.0091813473	 0.0163852933	 0.144808
C	 0.6065346537	-0.5533966026	 1.3054939452	-0.396186
O	-1.3470453508	-0.537916885	-0.0478984958	-0.247186
C	-1.8891273377	-0.6663856056	-1.26781778	 0.298458
O	-1.3526051668	-0.3769650096	-2.3099048184	-0.361004
C	-3.2276951762	-1.2133618961	-1.1776935963	 0.226264
C	-4.3417107429	-1.6629233292	-1.1623654166	-0.362456
H	 0.98050185	 1.9181587021	 0.0280896175	 0.121553
H	-0.4706144797	 1.8492933604	-0.9857390857	 0.144006
H	-0.6238828939	 1.9141864263	 0.7873156234	 0.124632
H	 0.5496768886	-0.3948642483	-0.853336197	 0.113887
H	 0.0445588286	-0.1966042008	 2.1740481299	 0.128597
H	 0.5916120277	-1.6463865414	 1.3100562498	 0.128278
H	 1.6438973211	-0.2210154663	 1.4057939157	 0.122574
H	-5.3271239053	-2.060849393	-1.148928089	 0.211621
63.1603	88.0158	131.4794	213.7333	233.1391	256.2208	279.6362	332.9728	412.852	458.7409	537.0681	607.9884	654.7659	698.6335	777.4303	835.2866	893.05	934.6441	951.3957	965.9162	1135.819	1161.8069	1203.788	1258.8365	1360.8949	1385.9065	1402.1643	1418.4561	1481.2046	1486.0626	1495.2019	1510.9838	1783.6502	2236.5723	3042.2891	3046.3711	3076.66	3112.6197	3122.6779	3124.2955	3135.9774	3498.3135
CC(C)OC(=O)C#C	CC(C)OC(=O)C#C	
InChI=1S/C6H8O2/c1-4-6(7)8-5(2)3/h1,5H,2-3H3	InChI=1S/C6H8O2/c1-4-6(7)8-5(2)3/h1,5H,2-3H3
