18
gdb 86499	4.8712	0.68803	0.64896	5.0814	77.22	-0.2404	-0.0165	0.2239	1726.9414	0.144952	-439.094755	-439.085296	-439.084352	-439.130919	32.867	
C	-0.2786375253	 1.7172202955	-0.2670010838	-0.399061
C	 0.0175893555	 0.2652316716	 0.0294690039	 0.148011
C	 0.6814305244	-0.5926940614	-1.0735575553	-0.399781
C	 1.8390685392	-0.6582077132	-0.1050098106	 0.476101
O	 1.2222210441	 0.1069483982	 0.8636948449	-0.27426
N	 2.9721370935	-1.1910605629	-0.109645977	-0.353082
C	 3.838782814	-1.0049244199	 1.041104345	-0.25132
C	 5.2943870269	-0.9814617949	 0.5996192382	 0.156388
O	 6.190654184	-0.5284059892	 1.2614506375	-0.242838
H	 0.5713333669	 2.1952778988	-0.7633599649	 0.130632
H	-1.1532775636	 1.7956014667	-0.9212695521	 0.128467
H	-0.4923638932	 2.2634677842	 0.656240306	 0.138221
H	-0.8237726046	-0.2229994434	 0.5299710731	 0.099435
H	 0.2079493466	-1.5515458676	-1.2901943372	 0.139258
H	 0.8958943103	-0.0722298963	-2.0092556183	 0.137199
H	 3.6261492031	-0.107678784	 1.63546306	 0.138646
H	 3.7379139546	-1.8656539303	 1.7216400478	 0.139805
H	 5.4649331634	-1.4417477319	-0.3990463572	 0.088179
25.7157	69.0627	91.9199	121.4645	197.8673	235.6546	312.4436	328.8415	421.2396	443.0278	559.1079	590.1558	695.8465	743.3485	833.0448	883.6344	907.5887	969.4765	1036.3381	1052.2329	1066.932	1075.8457	1092.9067	1118.6248	1163.6969	1200.8998	1230.4286	1245.4105	1321.5451	1326.0098	1381.9782	1403.8265	1414.5334	1445.0538	1466.5107	1484.2577	1495.0333	1835.251	1846.6466	2893.1306	2987.752	3038.856	3052.7782	3066.1785	3083.3027	3112.7004	3120.1751	3138.4674
CC1CC(O1)=NCC=O	C[C@H]1CC(=NCC=O)O1	
InChI=1S/C6H9NO2/c1-5-4-6(9-5)7-2-3-8/h3,5H,2,4H2,1H3	InChI=1S/C6H9NO2/c1-5-4-6(9-5)7-2-3-8/h3,5H,2,4H2,1H3/t5-/m0/s1
