19
gdb 47922	2.24475	1.62097	1.13065	4.0728	71.12	-0.2644	0.0077	0.2722	1113.4402	0.161122	-460.192911	-460.184782	-460.183838	-460.225878	30.895	
O	-0.0200341007	 0.010311416	 0.6644276015	-0.314186
C	-0.037594718	 1.1174147156	 0.2010383394	 0.405591
C	-1.3273636553	 1.9187404409	 0.0615373185	-0.336835
C	-1.9665716061	 1.8335228878	-1.3424159432	-0.198427
C	-1.266977934	 2.5820254914	-2.4897399726	-0.227554
C	 0.1300172858	 2.0709368765	-2.8822662489	-0.071903
O	 1.2344264072	 2.748966599	-2.2838575008	-0.230161
C	 1.2149139723	 2.9014165839	-0.907230667	 0.025325
O	 1.1433708679	 1.6598630512	-0.2139615997	-0.224071
H	-2.0090085037	 1.4590963974	 0.7796852798	 0.137544
H	-1.1986696891	 2.9641220952	 0.3583376304	 0.119748
H	-2.0575798912	 0.7739536766	-1.6119148701	 0.12297
H	-2.9900404754	 2.2148056572	-1.2565684646	 0.109983
H	-1.9068484145	 2.4840059027	-3.3742473318	 0.112125
H	-1.2119204095	 3.6583344218	-2.2830219006	 0.111169
H	 0.2069406959	 0.991882751	-2.6856637984	 0.116998
H	 0.2914866626	 2.2168397439	-3.9530394871	 0.11828
H	 2.1790146104	 3.3367941157	-0.6376832845	 0.13099
H	 0.4083780756	 3.5656954763	-0.5758484405	 0.092414
69.6617	141.0411	190.3484	234.4724	260.5232	363.3627	428.0812	464.263	478.4197	508.6083	605.8657	708.4036	770.9384	779.0767	858.7031	905.2507	920.478	983.3991	1019.125	1048.8236	1085.0656	1092.3264	1106.3852	1148.772	1198.5589	1221.1074	1262.5965	1294.5145	1304.1115	1333.8383	1355.7706	1378.916	1389.4067	1418.155	1446.8183	1476.7239	1483.1895	1490.1775	1506.1862	1518.2702	1840.8067	3007.1313	3028.119	3030.0444	3033.6795	3057.8062	3067.2425	3078.4283	3096.4683	3115.4538	3119.2834
O=C1CCCCOCO1	O=C1CCCCOCO1	
InChI=1S/C6H10O3/c7-6-3-1-2-4-8-5-9-6/h1-5H2	InChI=1S/C6H10O3/c7-6-3-1-2-4-8-5-9-6/h1-5H2
