19
gdb 61902	3.23591	0.85256	0.7005	2.3797	78.87	-0.2452	-0.0165	0.2287	1582.6643	0.15377	-422.999467	-422.988624	-422.98768	-423.036896	37.636	
C	-0.1453480974	 1.8375383975	 0.7221871873	-0.406692
C	-0.0830261306	 0.4178570453	 0.156939472	 0.046351
O	 0.5927586265	-0.5021690324	 0.9991438307	-0.259284
C	 2.0009135987	-0.3456551049	 1.0288375997	-0.216332
C	 2.6020092433	-1.4589202528	 1.7513502582	 0.280359
C	 3.1220913412	-2.3643306705	 2.3440610194	-0.411122
C	-1.4930750807	-0.1380093317	-0.1237219124	 0.362748
C	-1.7293128663	-1.6064461122	 0.1440192439	-0.469438
O	-2.3457267218	 0.5931587113	-0.571100923	-0.303127
H	 0.8394369805	 2.3117150635	 0.7339906561	 0.115358
H	-0.8158814565	 2.4369193013	 0.1038508156	 0.150198
H	-0.5364451031	 1.817443045	 1.7438446958	 0.129783
H	 0.418560837	 0.443075043	-0.8290270572	 0.094342
H	 2.4013299104	-0.3099815614	 0.0011266835	 0.120156
H	 2.2849502138	 0.6008472056	 1.5134894705	 0.12884
H	 3.5774924972	-3.1676639554	 2.8687204522	 0.203587
H	-0.9913373891	-2.2167174771	-0.3863801741	 0.142837
H	-1.5862955944	-1.8186054397	 1.2078458534	 0.157448
H	-2.7401114387	-1.8720403945	-0.1668803017	 0.13399
30.7066	50.3543	78.8544	117.7562	152.3888	206.8167	230.9076	272.0125	329.8886	353.6116	401.5816	420.0765	494.8699	588.0954	611.782	612.7014	679.6566	754.1826	895.0237	957.8157	965.0331	979.1119	1031.9616	1072.6416	1088.2381	1121.6955	1156.2827	1221.214	1255.4729	1326.7676	1341.9632	1382.1086	1393.3869	1421.5024	1452.9776	1465.0767	1491.6447	1493.9051	1504.8137	1814.0675	2248.6251	2929.967	2960.0288	2997.7462	3049.1436	3050.4241	3112.2961	3120.9725	3145.4229	3158.5181	3505.096
CC(OCC#C)C(C)=O	C[C@@H](OCC#C)C(=O)C	
InChI=1S/C7H10O2/c1-4-5-9-7(3)6(2)8/h1,7H,5H2,2-3H3	InChI=1S/C7H10O2/c1-4-5-9-7(3)6(2)8/h1,7H,5H2,2-3H3/t7-/m1/s1
