17
gdb 123928	3.47733	1.57117	1.12326	3.7259	73.94	-0.2033	0.0246	0.2278	1044.9234	0.140584	-418.033658	-418.026773	-418.025829	-418.064864	27.41	
C	-0.0160220733	 1.5185956924	-0.0170034375	-0.217369
C	 1.4160853367	 2.0663937989	 0.0374337762	-0.079219
O	 2.1007043014	 1.7190102451	 1.244104187	-0.279905
C	 1.9491512023	 0.4023138459	 1.5546648928	 0.244717
C	 0.9987475767	-0.4388560687	 1.013585799	 0.268402
C	-0.0287000898	-0.0270630667	 0.0117919762	-0.345146
N	 1.2041851052	-1.6418448183	 1.6168330692	-0.29525
N	 2.2162160855	-1.6262527484	 2.5055147373	-0.22507
C	 2.6798546444	-0.3765063518	 2.4749169831	-0.126269
H	-0.5721632949	 1.9075154612	 0.8429770001	 0.121146
H	-0.5053318737	 1.892517121	-0.9217446814	 0.105736
H	 1.9926429346	 1.690009071	-0.8217275653	 0.101524
H	 1.4181636624	 3.1584549639	 0.0016393178	 0.114914
H	-1.0277894771	-0.3934474149	 0.2762154141	 0.114083
H	 0.1982945187	-0.4290084925	-0.985083047	 0.11667
H	 0.7011621851	-2.4999037689	 1.4705562323	 0.267822
H	 3.505049136	-0.0826716991	 3.1049165761	 0.113215
119.1075	214.9425	302.3834	362.2074	390.241	442.7736	453.5888	518.6867	668.3374	695.3783	700.6094	713.0802	862.3231	866.5931	883.7405	927.2418	957.6301	1010.2863	1072.7375	1098.3115	1123.1705	1182.9644	1210.9251	1224.237	1245.5989	1291.2033	1302.0359	1358.718	1368.5876	1391.0155	1419.5093	1447.8414	1476.6409	1485.3404	1500.6144	1553.1871	1640.2892	2990.2915	3008.9856	3042.866	3054.914	3095.2846	3101.8954	3256.8456	3676.1854
C1COC2=C(C1)NN=C2	C1COc2c(C1)[nH]nc2	
InChI=1S/C6H8N2O/c1-2-5-6(9-3-1)4-7-8-5/h4H,1-3H2,(H,7,8)	InChI=1S/C6H8N2O/c1-2-5-6(9-3-1)4-7-8-5/h4H,1-3H2,(H,7,8)
