23
gdb 121962	5.2589	0.55008	0.53089	4.2876	88.44	-0.2347	0.0237	0.2584	2135.7059	0.204269	-384.474896	-384.463836	-384.462892	-384.512045	38.849	
C	-0.1454716038	 1.5474366773	 0.0426405632	-0.381516
C	-0.0841757509	 0.0204602779	-0.0477418777	-0.164465
C	 0.7898716379	-0.4748140433	-1.2062693328	-0.186981
C	 0.8621652241	-2.0024858727	-1.2640826626	-0.129267
N	 1.5242870639	-2.5126790624	-2.4666718859	-0.06774
C	 2.9463636815	-2.1905225809	-2.5220710868	-0.340462
C	 1.2962421152	-3.9444162279	-2.6070396073	-0.276671
C	 1.7029445445	-4.4450756389	-3.9263949704	 0.273798
N	 2.0266126777	-4.8544698874	-4.9568438098	-0.309304
H	 0.8512443183	 1.9755403813	 0.1963148899	 0.115471
H	-0.5530518141	 1.9820076491	-0.8766681203	 0.117608
H	-0.7787250493	 1.8720716598	 0.8739401775	 0.114124
H	 0.2985077633	-0.3871305142	 0.8974066862	 0.097697
H	-1.0998017085	-0.3808277146	-0.1619966303	 0.09758
H	 0.3936549026	-0.1077078646	-2.1609114726	 0.109758
H	 1.7942337217	-0.0484459524	-1.0980806414	 0.10025
H	 1.3469202211	-2.3853321034	-0.3429701305	 0.07899
H	-0.1614458905	-2.3969778351	-1.2636336074	 0.099593
H	 3.5106496268	-2.6014944646	-1.6632064779	 0.094932
H	 3.3788738693	-2.594048538	-3.4411571886	 0.147798
H	 3.0851652271	-1.1082739595	-2.5373831876	 0.132286
H	 1.8208472098	-4.5502202566	-1.8411448961	 0.12529
H	 0.2262645523	-4.147605559	-2.4885053706	 0.15123
45.918	68.1136	97.9146	108.0328	140.5105	185.7554	245.911	254.2435	285.5451	329.2861	362.6364	394.6664	425.361	462.1584	602.8251	744.8368	808.7705	861.2009	911.4639	935.6078	952.7389	998.6114	1030.4306	1057.4152	1072.5852	1114.9115	1137.0115	1168.5966	1195.7044	1236.1339	1268.4835	1297.2742	1305.0071	1330.228	1343.0846	1375.4705	1389.7773	1413.6518	1430.1345	1464.4233	1473.305	1487.1771	1491.3931	1500.0642	1500.4298	1503.796	1506.8649	1516.6783	2365.4452	2897.919	2909.6749	2931.245	3013.8052	3028.1727	3032.4258	3039.0828	3041.4084	3066.2553	3076.2363	3090.9559	3099.0219	3104.3198	3135.6236
CCCCN(C)CC#N	CCCCN(C)CC#N	
InChI=1S/C7H14N2/c1-3-4-6-9(2)7-5-8/h3-4,6-7H2,1-2H3	InChI=1S/C7H14N2/c1-3-4-6-9(2)7-5-8/h3-4,6-7H2,1-2H3
