24
gdb 110831	3.20222	1.09363	0.98909	1.6263	89.34	-0.2216	0.0753	0.297	1365.6576	0.216644	-368.374776	-368.36495	-368.364006	-368.409003	37.999	
C	-1.5643051442	 0.3186766164	-2.3977684239	-0.377112
C	-0.8805815895	-1.0187941204	-2.0826653479	-0.22512
C	-1.848361542	-2.0014576242	-1.4555385695	 0.028786
C	-1.5933400016	-3.1900916156	-0.6126279382	-0.105158
N	-2.3187778427	-1.961587949	-0.0521337102	-0.155946
C	-1.1124447448	-1.7227041927	 0.8234631929	-0.225954
C	-0.465339104	-3.0829437084	 0.4259971041	 0.325137
C	-0.6816381875	-4.1236370405	 1.5316257569	-0.430816
C	 0.9872750361	-3.1263005503	-0.0487378491	-0.460777
H	-0.8686809572	 1.0146688748	-2.8761864644	 0.110752
H	-2.4153864087	 0.1773126447	-3.0725896664	 0.117601
H	-1.9432858756	 0.7895404664	-1.4852143005	 0.129398
H	-0.4939992542	-1.4646566663	-3.008085176	 0.101376
H	-0.0114132166	-0.8399965285	-1.4475467169	 0.104007
H	-2.7189626889	-2.1508779989	-2.0972299646	 0.089307
H	-2.1330354415	-4.1183098475	-0.7922204151	 0.081854
H	-0.5512423782	-0.8147399631	 0.5828991026	 0.096868
H	-1.421749751	-1.6693568374	 1.8698049036	 0.104215
H	-1.7194724862	-4.1209999905	 1.8785616468	 0.126051
H	-0.4475480627	-5.1323833665	 1.1719793005	 0.110105
H	-0.0339182183	-3.9166278181	 2.3908948154	 0.11097
H	 1.6700248639	-2.9166127589	 0.7831651546	 0.112635
H	 1.2358676893	-4.1230357294	-0.4314976352	 0.114302
H	 1.1986216063	-2.407608976	-0.8427808294	 0.117519
67.971	130.4483	172.1769	196.4388	228.6415	243.9861	271.8379	303.3944	363.5566	376.9978	428.4512	508.6889	593.7926	624.1751	697.8152	763.0804	812.3538	852.1517	877.9567	899.2119	939.4945	961.0313	972.1487	995.6756	1013.6482	1031.2701	1067.4653	1076.3663	1125.7536	1138.3119	1186.1794	1225.6121	1235.7096	1260.2736	1264.1655	1290.1084	1296.0922	1337.5199	1376.8673	1399.5997	1410.829	1422.2484	1457.984	1477.8989	1486.1818	1488.9315	1497.7216	1503.2502	1504.8865	1509.6469	1521.883	3022.164	3029.2536	3031.3511	3035.4524	3052.5314	3083.3168	3083.8183	3089.7151	3094.8363	3102.0796	3106.3288	3110.037	3116.2152	3122.2844	3128.5514
CCC1C2N1CC2(C)C	CC[C@H]1[C@@H]2N1CC2(C)C	
InChI=1S/C8H15N/c1-4-6-7-8(2,3)5-9(6)7/h6-7H,4-5H2,1-3H3	InChI=1S/C8H15N/c1-4-6-7-8(2,3)5-9(6)7/h6-7H,4-5H2,1-3H3/t6-,7-,9?/m0/s1
