18
gdb 15247	2.11088	1.78557	1.15729	3.0349	69.55	-0.2487	-0.0272	0.2215	1077.7897	0.152178	-384.930365	-384.921384	-384.92044	-384.964256	32.043	
C	-0.0492245209	 1.5596157846	 0.1956291971	-0.415751
C	 0.0601967216	 0.0638683352	-0.0303140156	-0.040501
C	 0.4775818963	-0.5626326226	-1.3217324879	-0.061088
C	 0.8789169379	 0.2152649178	-2.5576339788	-0.082393
O	 1.7384926632	-0.5290956407	-3.4044621748	-0.416635
C	 1.399509249	-0.6800542465	-0.0915212941	-0.134294
C	 2.6933967074	 0.0305107728	-0.0239681345	 0.14622
O	 3.6926219471	-0.4430333273	 0.4657094755	-0.272072
H	 0.6886965765	 2.1384977171	-0.3627294647	 0.126272
H	-1.0401665152	 1.912378819	-0.1089399475	 0.128591
H	 0.0771561752	 1.7986273461	 1.2564159216	 0.131464
H	-0.6942956709	-0.4964656471	 0.5161133154	 0.104396
H	-0.0077493729	-1.5021096625	-1.5730223996	 0.109529
H	-0.0148980088	 0.420158464	-3.1571139348	 0.118687
H	 1.3170151303	 1.1890455967	-2.300104469	 0.090589
H	 2.5224886106	-0.7658344094	-2.8972467252	 0.2885
H	 1.4418579668	-1.6540567139	 0.3847009089	 0.108739
H	 2.7150312169	 1.0530182166	-0.4605981918	 0.069748
59.9284	111.1992	144.2126	203.0418	232.8994	243.7814	277.6365	335.6481	417.3935	451.9778	504.2447	562.3663	717.4856	833.002	905.2222	944.778	960.9864	1002.7889	1022.9038	1052.8129	1073.8981	1107.9791	1152.1126	1165.6505	1188.5317	1227.4517	1260.5319	1338.4286	1353.2434	1389.9337	1421.4178	1423.7838	1437.1534	1458.8691	1497.706	1505.4505	1514.9039	1802.0334	2884.1008	3010.6379	3042.8312	3066.905	3099.7839	3123.8225	3139.312	3147.9597	3172.182	3807.5148
CC1C(CO)C1C=O	C[C@H]1[C@@H](CO)[C@H]1C=O	
InChI=1S/C6H10O2/c1-4-5(2-7)6(4)3-8/h2,4-6,8H,3H2,1H3	InChI=1S/C6H10O2/c1-4-5(2-7)6(4)3-8/h2,4-6,8H,3H2,1H3/t4-,5+,6-/m1/s1
