16
gdb 127882	2.71073	1.60595	1.01518	2.5637	80.58	-0.1993	-0.0141	0.1852	1124.2885	0.126286	-430.26617	-430.257674	-430.25673	-430.29965	31.164	
C	 0.0780832076	 1.3759751504	 0.0752915589	-0.333461
N	-0.0122973491	-0.0710522741	 0.0791591279	-0.341704
C	-1.1621514591	-0.6319055553	-0.0038493958	 0.336831
N	-2.3891026688	 0.0099711603	-0.1022859384	-0.356658
C	-3.4421848852	-0.7457272678	-0.1405683819	 0.104814
N	-3.4221971391	-2.0856160836	-0.0900865901	-0.224694
N	-2.2726791664	-2.8330872057	-0.0106374153	-0.324828
C	-1.1806369424	-2.1225033842	 0.0154914084	 0.380017
N	 0.0272489425	-2.7234620221	 0.0507484461	-0.543044
H	 0.7092931867	 1.6945437903	-0.7638696399	 0.117676
H	-0.8907979902	 1.8803965353	 0.003480067	 0.131874
H	 0.5863769606	 1.707217032	 0.9895958417	 0.116215
H	-4.4326853399	-0.299272682	-0.2170139443	 0.129002
H	-4.2675432325	-2.630407099	-0.1221346357	 0.275796
H	 0.090640691	-3.7083680745	 0.2407884147	 0.258907
H	 0.8040954944	-2.1019989201	 0.2225913968	 0.273258
54.5552	98.0366	209.3023	230.0943	275.2748	300.377	361.5176	421.1798	505.5462	542.1902	568.7196	587.123	597.3438	617.9939	777.9441	812.7217	940.8079	943.6898	987.6535	1068.3348	1128.0593	1129.0359	1154.2095	1205.7781	1307.3201	1405.7788	1426.6916	1429.4711	1487.4721	1496.2102	1523.3273	1584.1993	1626.4492	1674.0003	1697.7675	3010.0347	3058.1187	3094.7123	3141.189	3571.1378	3656.6093	3725.0566
CN=C1N=CNN=C1N	C[N]C1=NCNN=C1N	
InChI=1S/C4H7N5/c1-6-4-3(5)9-8-2-7-4/h2H,1H3,(H2,5,9)(H,6,7,8)	InChI=1S/C4H8N5/c1-6-4-3(5)9-8-2-7-4/h8H,2H2,1H3,(H2,5,9)
