14
gdb 131564	3.1906	1.60859	1.15518	5.3565	63.29	-0.2527	-0.0152	0.2375	991.3997	0.102406	-473.794861	-473.787891	-473.786947	-473.826657	26.227	
O	-0.1555350392	 1.4927884576	 0.2596398643	-0.419678
C	-0.0118915429	 0.1084222535	-0.021824908	-0.102437
C	 0.6476348587	-0.7027638205	 1.1565280393	-0.109941
O	-0.3857617551	-1.451893009	 1.8549018626	-0.263137
C	-1.4735000055	-1.3925905006	 1.0727856453	 0.476669
N	-2.623194114	-1.9963215251	 1.1919868512	-0.274883
O	-3.333435038	-1.5116076415	 0.0623210757	-0.17805
C	-2.561828344	-0.6633552568	-0.6446093788	-0.065856
C	-1.3522551598	-0.5458131592	-0.0522052433	 0.140626
H	 0.7106077484	 1.906605647	 0.1793210074	 0.288568
H	 0.5691257742	-0.0362113506	-0.9421508458	 0.093797
H	 1.3827992406	-1.4229899844	 0.783325663	 0.124961
H	 1.119749458	-0.0314092289	 1.87729781	 0.128317
H	-3.0249703614	-0.2387850515	-1.5218500329	 0.161044
77.7983	161.7574	281.069	289.3074	352.1193	454.2616	521.757	576.0601	662.5719	718.5785	751.8264	789.3985	854.3293	871.2352	888.2915	958.7257	984.7929	1021.1556	1100.9522	1128.4266	1163.503	1221.3722	1239.183	1276.6259	1320.8298	1356.0788	1421.0142	1478.5111	1494.3367	1579.7686	1696.5453	3012.8548	3053.8301	3119.5119	3264.6853	3808.0289
OC1COC2=NOC=C12	O[C@H]1COc2nocc12	
InChI=1S/C5H5NO3/c7-4-2-8-5-3(4)1-9-6-5/h1,4,7H,2H2	InChI=1S/C5H5NO3/c7-4-2-8-5-3(4)1-9-6-5/h1,4,7H,2H2/t4-/m0/s1
