17
gdb 44102	4.358	1.1607	0.93792	0.8939	74.82	-0.2348	-0.0232	0.2116	1194.4397	0.1368	-421.858244	-421.850644	-421.849699	-421.890838	28.466	
O	 0.0018822155	 0.0674445226	 0.0534654131	-0.29204
C	-0.014827068	 1.2665100626	 0.0310035791	 0.406464
C	-1.2911830149	 2.1501336995	 0.0323211423	-0.466041
C	-0.7127336932	 3.5275485344	-0.001850636	 0.230295
C	 0.6198202364	 3.5457699099	-0.0204288877	 0.230295
C	 1.1146223873	 4.9564067558	-0.0540881286	-0.181443
O	-0.0773241475	 5.7514028975	-0.0529565417	-0.272588
C	-1.2466601337	 4.9241184782	-0.0211642669	-0.181442
C	 1.236436458	 2.1846965929	-0.0029115198	-0.466041
H	-1.9181870621	 1.8965198924	-0.8322934997	 0.140122
H	-1.8932573224	 1.9297868768	 0.9233898025	 0.140151
H	 1.7343573626	 5.2163998169	 0.8186256047	 0.107997
H	 1.7101432533	 5.1826076921	-0.9526895778	 0.108
H	-1.8729624134	 5.133614711	-0.9027270576	 0.108
H	-1.8486997406	 5.1674027665	 0.8685875494	 0.107997
H	 1.8688953214	 1.981236128	 0.8709597796	 0.140152
H	 1.8458136448	 1.9479843929	-0.8847491148	 0.140122
66.9512	130.5125	207.421	211.1971	312.8325	478.6757	479.6607	480.9263	509.9528	686.5194	724.7636	755.2252	839.3032	865.2299	915.9929	928.7866	1006.4215	1037.8349	1047.801	1064.0916	1142.429	1151.2943	1151.7166	1194.6841	1196.7517	1197.1977	1221.2466	1307.4207	1308.5697	1399.2774	1406.3225	1450.7858	1453.3482	1515.6982	1525.8691	1726.4625	1860.3203	2970.5575	2977.3995	2988.9913	2991.8234	3024.5172	3027.7486	3053.362	3054.3875
O=C1CC2=C(COC2)C1	O=C1CC2=C(COC2)C1	
InChI=1S/C7H8O2/c8-7-1-5-3-9-4-6(5)2-7/h1-4H2	InChI=1S/C7H8O2/c8-7-1-5-3-9-4-6(5)2-7/h1-4H2
