19
gdb 38389	4.29258	1.2733	1.23067	2.6501	79.3	-0.226	0.0775	0.3034	1079.4915	0.161156	-381.967396	-381.960234	-381.95929	-381.998802	29.218	
C	 0.0053262816	 1.4926053669	-0.1272398376	-0.255939
C	 1.5487862524	 1.402065579	 0.0001871973	-0.152788
N	 1.5189694267	-0.0948662386	 0.1893588111	-0.187919
C	 0.0032030123	-0.0292714373	-0.0237327629	-0.123249
C	 0.9006179452	-0.6368840648	-1.019017531	 0.443035
C	 1.0692654631	-0.2663534303	-2.5194002608	-0.32852
C	 1.0480230323	-1.7749908427	-2.8121929188	-0.043327
N	 2.2121692223	-2.3416577952	-2.093409813	-0.330248
C	 0.936573927	-2.1081740837	-1.363724068	-0.181979
H	-0.4603113301	 1.9820534561	 0.7298961472	 0.1121
H	-0.4120474789	 1.9195883481	-1.0450844948	 0.100904
H	 2.1423057908	 1.7212075312	-0.8619398406	 0.107002
H	 1.9447389814	 1.8792228721	 0.8983088777	 0.111708
H	-0.6814172245	-0.6211833667	 0.5776944576	 0.090375
H	 0.2121653826	 0.2797465437	-2.9216948269	 0.107152
H	 1.9993552018	 0.2334701866	-2.8008379128	 0.115349
H	 0.6159518127	-2.2724437213	-3.6706877608	 0.095517
H	 2.2418874349	-3.338736186	-2.309117042	 0.227445
H	 0.4234988666	-2.919076557	-0.8618045709	 0.093382
129.2156	168.7205	216.6535	300.6254	394.8387	434.2777	543.0666	561.8579	745.2495	759.7427	780.3768	820.8188	831.0092	850.9838	855.7738	909.1158	950.8795	955.0508	961.9672	977.9888	1010.2879	1027.1476	1055.2122	1094.5271	1104.3322	1116.9518	1128.9831	1164.5566	1191.5032	1217.6211	1227.5549	1264.4932	1266.8448	1295.2289	1301.2668	1327.692	1370.8145	1451.9377	1471.6824	1486.0121	1507.517	3045.0025	3055.9959	3061.1512	3105.1626	3117.1503	3123.0803	3146.7111	3188.7917	3203.2501	3462.7338
C1CN2C1C21CC2NC12	C1CN2[C@@H]1[C@]12C[C@H]2N[C@@H]12	
InChI=1S/C7H10N2/c1-2-9-5(1)7(9)3-4-6(7)8-4/h4-6,8H,1-3H2	InChI=1S/C7H10N2/c1-2-9-5(1)7(9)3-4-6(7)8-4/h4-6,8H,1-3H2/t4-,5+,6-,7-,9?/m1/s1
