21
gdb 60844	1.9553	1.41538	1.04371	3.1645	79.13	-0.2355	-0.0176	0.2179	1260.196	0.178813	-424.223861	-424.213307	-424.212363	-424.259743	38.309	
C	-0.2897418237	 1.4620454889	 0.0764122097	-0.435655
C	-0.0085692418	-0.0479563851	-0.0535583197	-0.11105
C	 0.783127573	-0.304295357	-1.3263971243	 0.163056
O	 0.3267593953	-0.7991267213	-2.3258700139	-0.260069
C	 0.758459474	-0.5837152591	 1.153450746	 0.382113
O	 1.9782011926	 0.0808313519	 1.3904956122	-0.472482
C	 0.0117697455	-1.1012794804	 2.3617591895	-0.367271
C	 0.8074294731	-2.0507605272	 1.4822925875	-0.0289
C	 0.1317431592	-3.125357471	 0.6591195115	-0.42047
H	 0.6395589028	 2.0415037819	 0.076584819	 0.122852
H	-0.9016449267	 1.8157207957	-0.7576435355	 0.135366
H	-0.8263244937	 1.671230546	 1.0076593732	 0.124695
H	-0.9592829897	-0.577945461	-0.1554239438	 0.093663
H	 1.8468465903	 0.0162379187	-1.271997829	 0.090619
H	 1.7811145813	 0.9308497142	 1.7990008634	 0.284637
H	 0.4137946401	-0.8539321933	 3.3384185359	 0.112838
H	-1.0719522074	-1.150939914	 2.3128706673	 0.110909
H	 1.7661269372	-2.3415110336	 1.9024920174	 0.100172
H	-0.8473999515	-2.8086332726	 0.289624634	 0.122787
H	 0.7368676266	-3.4055841801	-0.2093841949	 0.132055
H	-0.0231767167	-4.0252837017	 1.2638355348	 0.120133
44.7115	64.2497	134.3341	190.9297	197.7864	228.5022	239.8875	268.5546	308.7568	347.6048	384.2	445.6151	457.8809	510.7153	542.2384	754.9297	803.0719	865.5622	896.4518	920.6566	932.3678	952.2586	1012.4108	1039.4647	1053.755	1099.2566	1102.8071	1132.0862	1156.9878	1187.0031	1223.9078	1274.7576	1300.7145	1321.1826	1359.8114	1393.7281	1409.31	1420.9099	1430.6725	1482.6469	1492.4462	1496.2786	1505.6691	1508.8457	1827.942	2895.7008	3033.7616	3036.357	3081.2361	3096.6587	3103.9829	3111.5102	3117.3472	3123.3368	3153.1975	3213.7662	3799.0106
CC(C=O)C1(O)CC1C	C[C@@H](C=O)[C@@]1(O)C[C@H]1C	
InChI=1S/C7H12O2/c1-5-3-7(5,9)6(2)4-8/h4-6,9H,3H2,1-2H3	InChI=1S/C7H12O2/c1-5-3-7(5,9)6(2)4-8/h4-6,9H,3H2,1-2H3/t5-,6+,7-/m1/s1
