19
gdb 75397	2.46263	1.68974	1.24094	1.6235	82.32	-0.2276	0.0027	0.2303	1077.2428	0.160297	-385.881275	-385.873373	-385.872429	-385.913255	31.391	
C	-0.3493845155	 1.4841079622	 0.1160534716	-0.490917
C	 0.0689317926	 0.0413928644	-0.0207157083	 0.349999
C	 0.1137447659	-0.5712829848	-1.2106249932	-0.177706
C	 0.4487300946	-2.0318878621	-1.4488235787	-0.317246
C	-0.5387240612	-2.9163432054	-0.71249498	-0.094577
C	-0.7330382494	-2.9004116527	 0.6092833539	-0.025049
C	-0.0064728602	-2.0479162905	 1.5737220463	-0.002341
O	 1.350481034	-1.6881761039	 1.2947536471	-0.248991
C	 0.3887113173	-0.6336617911	 1.2661271968	-0.055703
H	 0.4478791091	 2.0911671941	 0.5635691702	 0.126744
H	-0.6032339331	 1.9177796392	-0.8541308531	 0.123229
H	-1.2249025452	 1.5855075746	 0.7706244874	 0.125767
H	-0.1618844225	 0.0096904895	-2.0878128721	 0.08523
H	 0.3981322325	-2.242401167	-2.5200573618	 0.095825
H	 1.4694819621	-2.25206874	-1.1253281867	 0.144318
H	-1.1584692218	-3.574739441	-1.3156296335	 0.095411
H	-1.4981914441	-3.5382974469	 1.0436964167	 0.085349
H	-0.1822953009	-2.2786130773	 2.6245237683	 0.093533
H	 0.4627867255	 0.0371450387	 2.1237193689	 0.087126
125.3472	181.8222	249.5594	265.1789	309.471	330.0149	372.6857	391.0394	568.9498	592.0534	604.2704	720.2792	759.5093	774.598	849.0508	858.0854	886.2028	934.4844	950.3429	986.1717	1017.2985	1026.0518	1069.283	1081.2077	1098.6703	1135.7	1173.1248	1231.5204	1245.9658	1285.4082	1339.9236	1354.2956	1402.0279	1413.8166	1429.353	1441.3484	1478.6943	1480.9004	1493.6322	1708.6527	1719.705	3015.0144	3061.084	3061.552	3091.6679	3098.6967	3108.5813	3117.2512	3147.8827	3151.5064	3173.4981
CC1=CCC=CC2OC12	CC1=CCC=C[C@H]2O[C@@H]12	
InChI=1S/C8H10O/c1-6-4-2-3-5-7-8(6)9-7/h3-5,7-8H,2H2,1H3	InChI=1S/C8H10O/c1-6-4-2-3-5-7-8(6)9-7/h3-5,7-8H,2H2,1H3/t7-,8+/m1/s1
