19
gdb 112196	2.48455	1.32798	0.97081	4.011	78.24	-0.2543	0.0165	0.2708	1262.129	0.159158	-419.180679	-419.171833	-419.170889	-419.214437	32.917	
C	 0.0977042393	 1.5651362505	 0.0435393154	-0.385717
C	-0.266148705	 0.1036164158	-0.2365099471	-0.196553
C	 0.6890876002	-0.5600570349	-1.2081628575	 0.067704
O	 2.0543433616	-0.6655658291	-0.6643346478	-0.290933
C	 2.0744883933	-2.0436736964	-0.8153109515	 0.410952
N	 2.9632868142	-2.8865679274	-0.5560152287	-0.547959
C	 0.6786284219	-2.0860613341	-1.3538136169	 0.174619
C	-0.4112829496	-3.0609131466	-1.1245675074	-0.296564
N	 0.2099581073	-2.9201860269	-2.4516270706	-0.351041
H	 1.1067900884	 1.6363040316	 0.4586433635	 0.141148
H	 0.0678511458	 2.1643977617	-0.8729928104	 0.117568
H	-0.598385319	 2.0119152429	 0.7588888064	 0.118488
H	-0.2748494557	-0.4727519619	 0.6956896287	 0.111506
H	-1.2782103807	 0.0402739409	-0.6585468948	 0.100616
H	 0.7270525472	-0.0241503667	-2.1648447091	 0.093466
H	 3.8035859653	-2.4431411871	-0.181968607	 0.229068
H	-0.1863988859	-3.9925549868	-0.6144348806	 0.146154
H	-1.4127266229	-2.6698752779	-0.9624551444	 0.119808
H	-0.3870766056	-2.3734234776	-3.0690220405	 0.237669
87.4635	110.4506	143.5239	212.8955	225.501	234.8961	299.7867	348.5363	464.1152	556.214	603.6031	683.9703	734.1015	795.6777	851.6466	862.9884	891.6238	919.9675	944.5007	974.0479	985.1446	1004.1632	1033.4501	1066.8562	1100.7931	1129.5139	1165.6055	1214.8597	1259.3555	1266.3155	1290.5746	1300.7671	1346.2012	1404.6769	1412.7155	1432.6784	1474.6974	1498.1531	1508.217	1510.5703	1832.9259	3022.3321	3031.3182	3039.5643	3069.6506	3108.1545	3110.1021	3122.7065	3203.2367	3482.1562	3489.4091
CCC1OC(=N)C11CN1	CC[C@H]1O[C]([NH])[C@]21CN2	
InChI=1S/C6H10N2O/c1-2-4-6(3-8-6)5(7)9-4/h4,7-8H,2-3H2,1H3	InChI=1S/C6H10N2O/c1-2-4-6(3-8-6)5(7)9-4/h4,7-8H,2-3H2,1H3/t4-,6-/m1/s1
