19
gdb 40976	3.84629	1.25796	1.25657	1.4285	82.32	-0.2279	0.0172	0.2452	1090.9283	0.160378	-385.905978	-385.898365	-385.897421	-385.938518	29.905	
C	 0.0041832102	 1.4981043368	 0.2666917559	-0.131615
O	 1.2558087979	 1.9268434319	-0.2575072177	-0.309199
C	 2.0164476936	 0.8071839685	-0.7536489109	 0.384845
C	 2.3692469423	 1.055562659	-2.2537537894	-0.296708
C	 3.7939633237	 1.5440825738	-2.2210930124	-0.064033
C	 4.3498445383	 1.3900147801	-1.021060778	-0.064032
C	 3.3991660272	 0.7701088368	-0.0303699071	-0.296717
C	 1.1242457994	-0.375388201	-0.4922531412	-0.141849
C	-0.0091282336	 0.0076707533	 0.0816694447	-0.106106
H	-0.0814165992	 1.7902224098	 1.325541134	 0.103568
H	-0.8198430153	 1.9948181013	-0.2700559784	 0.103554
H	 2.2758007614	 0.1351968397	-2.8466061936	 0.099732
H	 1.6641564157	 1.7794381582	-2.6750225596	 0.115682
H	 4.2905468652	 1.9513734174	-3.0948796351	 0.089639
H	 5.3702458855	 1.652124589	-0.7640331285	 0.089639
H	 3.3268433311	 1.318601216	 0.9143720443	 0.115689
H	 3.6955206763	-0.2583000573	 0.2182781231	 0.099733
H	 1.4134841979	-1.3851660359	-0.7557646864	 0.102691
H	-0.8355163776	-0.6232930775	 0.3833119864	 0.105485
71.9069	74.188	220.2509	351.1523	374.8345	398.5963	429.0784	507.8422	677.089	737.2188	748.0481	783.2179	789.0958	821.435	872.4312	926.7046	953.1575	958.1687	963.651	974.0389	984.7877	1026.1854	1042.9376	1093.4387	1096.3227	1117.0691	1125.4219	1159.1511	1172.2616	1200.3327	1241.9395	1286.7687	1327.3901	1364.7812	1365.4408	1380.2394	1462.4373	1468.3328	1519.6637	1689.0963	1692.852	2971.4389	2986.0764	3011.7464	3013.8072	3073.3498	3073.817	3180.6851	3203.2772	3206.0996	3228.5603
C1OC2(CC=CC2)C=C1	C1O[C@]2(CC=CC2)C=C1	
InChI=1S/C8H10O/c1-2-5-8(4-1)6-3-7-9-8/h1-3,6H,4-5,7H2	InChI=1S/C8H10O/c1-2-5-8(4-1)6-3-7-9-8/h1-3,6H,4-5,7H2
