21
gdb 96502	2.27578	1.51613	1.06063	3.0608	78.64	-0.2321	-0.0247	0.2074	1201.5732	0.183203	-424.244519	-424.235385	-424.234441	-424.278842	33.891	
C	-0.0168642812	 1.64428097	 0.0004941156	-0.40102
C	-0.004443965	 0.1130200488	 0.033657871	-0.083631
C	 0.6076178012	-0.4564848425	-1.2741017167	-0.194663
C	 0.9528576929	-1.9627973974	-1.2998697769	-0.220437
C	 0.164638407	-2.8760694734	-0.351971457	-0.072068
O	 0.686270208	-2.8618487501	 0.9691565986	-0.241599
C	 0.288478531	-1.7885660241	 1.7977818684	-0.164616
C	 0.7200471722	-0.4056316949	 1.2766071153	 0.371407
O	 1.572996974	 0.2338140625	 1.8478914598	-0.303269
H	 1.0044493288	 2.0310893234	 0.0361622087	 0.139011
H	-0.4986842145	 2.0056961546	-0.913157186	 0.108431
H	-0.5564002155	 2.0564513898	 0.8580319092	 0.117436
H	-1.0365405541	-0.2551654588	 0.0982321391	 0.081912
H	-0.1036272166	-0.2290535277	-2.0760485051	 0.104974
H	 1.5135518021	 0.1163729477	-1.5012800592	 0.115058
H	 0.8291869921	-2.3332288207	-2.3239598036	 0.100327
H	 2.0085013263	-2.1108264451	-1.0457647167	 0.121621
H	-0.9119172986	-2.6406136191	-0.3490938691	 0.088929
H	 0.2719994989	-3.9133523012	-0.6841574589	 0.112209
H	-0.8070637734	-1.7904558648	 1.9381978612	 0.09222
H	 0.7729230045	-1.9500389472	 2.7628622223	 0.127769
52.1819	88.0702	140.3577	205.1488	261.6036	285.6772	298.9587	345.5723	386.437	464.2784	521.9285	575.6417	680.2693	766.0792	802.9154	854.6101	896.5747	923.1399	963.4947	988.3318	1016.5547	1071.0603	1085.2399	1119.2655	1135.5389	1150.437	1186.0261	1219.6869	1273.21	1279.4743	1322.4327	1331.5675	1354.3106	1378.6509	1383.5752	1395.8647	1408.2624	1411.3591	1474.9248	1479.549	1487.8439	1497.816	1498.884	1500.8011	1808.8347	2948.6534	2979.4754	3021.0904	3029.0454	3039.1514	3044.3285	3064.2963	3077.6645	3085.4145	3111.3566	3114.9468	3128.7812
CC1CCCOCC1=O	C[C@H]1CCCOCC1=O	
InChI=1S/C7H12O2/c1-6-3-2-4-9-5-7(6)8/h6H,2-5H2,1H3	InChI=1S/C7H12O2/c1-6-3-2-4-9-5-7(6)8/h6H,2-5H2,1H3/t6-/m0/s1
