22
gdb 57605	3.38609	0.997	0.94706	1.1555	88.33	-0.2295	0.0538	0.2833	1359.1222	0.190814	-367.151317	-367.140978	-367.140033	-367.186491	39.171	
C	 0.3693225322	 1.5932237726	 0.4131603881	-0.434494
C	 0.1175836306	 0.1013824342	 0.1309768735	 0.255699
C	 0.7300924923	-0.7539984622	 1.2479462377	-0.397818
C	-1.4123839762	-0.1657995036	 0.0249426657	-0.365925
C	-2.180105493	 0.1851518729	 1.2121866776	 0.321882
C	-2.8114801834	 0.4742460459	 2.1941771589	-0.465786
N	 0.662113604	-0.4213548853	-1.1399092672	-0.072881
C	 0.766406164	 0.4031598768	-2.3347726177	-0.233053
C	 1.9869781472	-0.0476387249	-1.6050537477	-0.233114
H	 1.4374485086	 1.8200996253	 0.477597335	 0.113612
H	-0.0774686882	 2.2383790855	-0.3494469303	 0.114477
H	-0.0841844773	 1.8634455951	 1.3699115337	 0.136462
H	 0.2714215096	-0.5193604492	 2.211912772	 0.126636
H	 0.5812216473	-1.8163412743	 1.0354246817	 0.120251
H	 1.8065515263	-0.5708192205	 1.3242964986	 0.109445
H	-1.8002044614	 0.3918406059	-0.8372160668	 0.125011
H	-1.5493045209	-1.2274144617	-0.209518625	 0.136881
H	-3.3760348436	 0.7255842316	 3.0575040392	 0.192786
H	 0.4646236421	-0.0767989441	-3.2621512839	 0.114546
H	 0.5279425804	 1.4626320786	-2.2780201002	 0.110255
H	 2.5441424973	 0.7174367169	-1.0684153738	 0.110342
H	 2.5969331122	-0.8616367858	-1.988410569	 0.114786
46.8124	77.7921	135.7663	212.7059	242.1464	254.5517	285.7693	316.9388	348.1781	364.6517	385.1859	420.7628	488.2995	540.324	614.2031	641.0326	705.9487	792.3517	823.1252	891.8016	917.2913	940.1476	956.1984	980.6597	994.0946	1025.0135	1042.646	1108.6463	1119.037	1140.5214	1167.04	1176.4472	1186.9709	1246.0381	1290.818	1321.0632	1331.0503	1396.4294	1416.5698	1465.7962	1480.7459	1483.0082	1490.9273	1506.5462	1512.5173	1522.9547	2233.7191	3026.3999	3039.3891	3043.8848	3068.4889	3096.9557	3103.549	3109.1598	3111.4871	3121.5653	3127.7967	3173.5161	3188.2938	3505.8994
CC(C)(CC#C)N1CC1	CC(C)(CC#C)N1CC1	
InChI=1S/C8H13N/c1-4-5-8(2,3)9-6-7-9/h1H,5-7H2,2-3H3	InChI=1S/C8H13N/c1-4-5-8(2,3)9-6-7-9/h1H,5-7H2,2-3H3
