23
gdb 89996	3.9367	1.04191	0.97891	0.1574	92.16	-0.2306	0.027	0.2576	1348.4525	0.206895	-351.164275	-351.155547	-351.154603	-351.197717	34.49	
C	 0.0281835359	 1.6467782407	 0.2680617554	-0.394754
C	 0.0325051576	 0.1193757009	 0.1367455092	-0.017033
C	 0.6357920277	-0.3994534248	-1.1966383694	-0.317907
C	 1.4291868713	-1.682033342	-0.8626472709	 0.332243
C	 0.8644566183	-3.0856383412	-1.2882479712	-0.259177
C	 2.2987884663	-3.5167956615	-1.6877653946	-0.210261
C	 2.7088886502	-2.0215944803	-1.6909576055	-0.268886
C	 1.6360316343	-1.5516514904	 0.6260020147	-0.122384
C	 0.8835929904	-0.59456214	 1.1650558523	-0.084813
H	 1.0455694137	 2.0467122818	 0.1933461795	 0.113925
H	-0.5744505948	 2.1085348317	-0.5215225154	 0.111559
H	-0.3869369625	 1.9634452586	 1.2311495747	 0.109295
H	-1.0080453969	-0.2266166727	 0.2363983339	 0.076601
H	-0.1193710179	-0.5630056217	-1.9717073831	 0.089551
H	 1.3342749151	 0.3532898506	-1.5841632061	 0.095915
H	 0.3506546704	-3.6700691148	-0.5203876028	 0.094451
H	 0.2065697021	-2.9980377227	-2.1587792536	 0.095177
H	 2.7957249107	-4.0775933155	-0.8911013245	 0.100589
H	 2.4160725016	-4.0729750124	-2.6207059999	 0.093982
H	 2.6540953586	-1.5863964235	-2.6940738776	 0.095348
H	 3.6721247982	-1.7512818444	-1.248781086	 0.092694
H	 2.3009885316	-2.2109886019	 1.1758753825	 0.088079
H	 0.8419278579	-0.3500440048	 2.2220136584	 0.085804
57.6695	114.0508	185.2289	235.7824	269.9661	284.242	369.8177	388.9341	442.5947	561.9073	662.4908	684.7044	768.8765	789.2437	806.8765	848.5895	872.4739	877.7206	913.8927	932.0211	942.4713	971.9893	978.9552	989.4763	1053.8373	1063.6391	1088.9116	1126.4995	1144.736	1167.9299	1203.6393	1210.7214	1228.1977	1253.5442	1273.2219	1279.6059	1292.428	1298.4199	1318.6837	1343.0093	1388.7635	1408.3472	1472.8361	1481.7667	1484.6518	1496.5964	1498.4868	1505.9238	1681.9517	2977.1353	3022.0202	3025.9591	3042.2822	3047.0941	3058.6209	3078.6398	3089.8791	3093.8489	3095.9715	3098.1918	3114.5947	3164.7795	3191.0707
CC1CC2(CCC2)C=C1	C[C@H]1CC2(CCC2)C=C1	
InChI=1S/C9H14/c1-8-3-6-9(7-8)4-2-5-9/h3,6,8H,2,4-5,7H2,1H3	InChI=1S/C9H14/c1-8-3-6-9(7-8)4-2-5-9/h3,6,8H,2,4-5,7H2,1H3/t8-/m1/s1
