17
gdb 64802	3.47062	1.01143	0.94971	3.1454	75.65	-0.2868	-0.0535	0.2332	1288.6825	0.134306	-418.006025	-417.996971	-417.996026	-418.040088	33.14	
C	-0.0372174809	 1.6614910534	-0.6395587361	-0.464631
C	-0.0405465434	 0.2342264828	-0.1538207707	 0.453465
C	 1.1560111279	-0.6533128373	-0.3124009997	-0.317388
C	 0.7126501136	-0.2032488262	 1.0659005589	-0.294604
O	-1.2651644343	-0.4637890832	-0.4211316769	-0.275991
C	-2.3357026052	-0.1777900001	 0.3294018771	 0.307345
N	-2.3689676178	 0.6794088692	 1.262792022	-0.507344
C	-3.4705085558	-0.9954370497	-0.0728740798	 0.25368
N	-4.4114877643	-1.6117165372	-0.3385241021	-0.316524
H	 0.9583206573	 2.0932863242	-0.5055629246	 0.123986
H	-0.2857625066	 1.704294684	-1.7049114987	 0.128289
H	-0.7535730687	 2.2681994653	-0.0814960816	 0.150896
H	 0.9699185632	-1.6863340403	-0.5818951458	 0.131476
H	 2.0511915135	-0.221910251	-0.7460135626	 0.120897
H	 1.2955878387	 0.5443760948	 1.5918299125	 0.125504
H	 0.2440008111	-0.9406044017	 1.706136624	 0.129139
H	-3.2897680583	 0.718406673	 1.6939938241	 0.251806
64.7617	101.9917	137.0231	212.1179	222.4807	311.5834	315.0966	330.2489	411.1961	442.3927	509.2822	602.0991	732.0207	737.8727	765.3573	851.7304	867.0611	877.5074	932.6784	940.1085	980.3876	1041.1247	1069.6738	1081.2779	1108.3082	1143.557	1186.2815	1259.6431	1353.759	1369.8341	1416.5349	1457.6197	1480.1439	1496.9187	1511.7432	1700.695	2354.8283	3045.3475	3114.9083	3134.0049	3141.5696	3146.4927	3226.0532	3239.4471	3528.6193
CC1(CC1)OC(=N)C#N	CC1(CC1)O[C]([NH])C#N	
InChI=1S/C6H8N2O/c1-6(2-3-6)9-5(8)4-7/h8H,2-3H2,1H3	InChI=1S/C6H8N2O/c1-6(2-3-6)9-5(8)4-7/h8H,2-3H2,1H3
