19
gdb 10682	2.34171	1.86963	1.50327	4.0484	75.48	-0.2834	0.0362	0.3196	980.409	0.16446	-327.942798	-327.933931	-327.932986	-327.975846	32.871	
C	 0.0859987729	 1.4209862758	-0.3101761063	-0.399744
C	 0.0033401565	-0.0550530975	 0.1011222766	-0.04612
C	 0.6228808494	-0.2925729648	 1.4847549672	-0.399746
C	-1.4385230461	-0.5734814983	 0.0374803825	 0.20708
C	-2.0004111423	-1.0374235317	-1.2980939543	-0.303569
C	-1.6832881576	-2.0496427262	-0.2377106255	-0.303572
C	-2.3636737491	 0.0761521325	 0.9343918659	 0.250538
N	-3.091326476	 0.6088302469	 1.6600192135	-0.36057
H	 1.1252610669	 1.7634324951	-0.3085837749	 0.116045
H	-0.322888039	 1.579731458	-1.3128959151	 0.11638
H	-0.4763939249	 2.0520199012	 0.3861081926	 0.139651
H	 0.5640075729	-0.6486437401	-0.6332574867	 0.076559
H	 0.0827216845	 0.267504182	 2.255365432	 0.139646
H	 0.5956631923	-1.3520061301	 1.7580616195	 0.116379
H	 1.6664719391	 0.036057371	 1.500811862	 0.116047
H	-3.0412836175	-0.8264130155	-1.5116087029	 0.139862
H	-1.3360572703	-0.9540229483	-2.151239541	 0.127642
H	-0.7994527593	-2.6667204434	-0.3569888885	 0.127635
H	-2.5070403924	-2.5316534367	 0.2747614835	 0.139858
77.6469	143.4763	186.179	226.6985	235.6083	239.449	272.8241	329.3204	433.4353	451.8155	581.343	603.4275	646.3341	780.3698	856.8655	899.9399	926.1874	932.841	954.5078	970.9715	979.4412	1062.4699	1088.5296	1090.0992	1145.0365	1192.592	1193.2285	1270.2005	1300.1039	1342.6396	1382.1145	1402.332	1423.6357	1467.3786	1486.1907	1493.0469	1495.4869	1501.4411	1512.2204	2344.487	3015.4892	3034.1409	3038.039	3105.3215	3107.3798	3109.3316	3111.1808	3139.5473	3143.0488	3225.2457	3238.9508
CC(C)C1(CC1)C#N	CC(C)C1(CC1)C#N	
InChI=1S/C7H11N/c1-6(2)7(5-8)3-4-7/h6H,3-4H2,1-2H3	InChI=1S/C7H11N/c1-6(2)7(5-8)3-4-7/h6H,3-4H2,1-2H3
