18
gdb 91881	2.40655	1.63428	1.06194	4.7088	72.34	-0.2431	0.0021	0.2453	1129.8534	0.148995	-439.110067	-439.102039	-439.101094	-439.142757	30.747	
C	 0.1413266712	 1.5743974417	 0.0085785762	-0.410868
C	 0.0212449517	 0.0520153241	-0.0019637827	 0.047025
C	 0.5151889207	-0.5533723213	-1.3231451952	-0.218829
C	 0.7006607015	-2.06094255	-1.2411375968	 0.014652
O	 2.0055615343	-2.4945806324	-0.8604016055	-0.238463
C	 0.9327403745	-2.6895485362	 0.0718256255	-0.06168
C	 1.0134824294	-1.8388544092	 1.3183578285	 0.406901
O	 1.3044511596	-2.3150281805	 2.3983925046	-0.369847
N	 0.7779770445	-0.5040159672	 1.1245972208	-0.330932
H	 1.1873896542	 1.8794346927	-0.095389743	 0.133953
H	-0.4307044732	 2.007311895	-0.8171148337	 0.127127
H	-0.2494408752	 1.9957094779	 0.9410100513	 0.120991
H	-1.0436128427	-0.2088242199	 0.1126692416	 0.085519
H	-0.2003514839	-0.3036512033	-2.1126936883	 0.107762
H	 1.4786927288	-0.1091995976	-1.596619533	 0.126031
H	 0.2461848056	-2.6635852372	-2.0265052322	 0.101217
H	 0.6704841294	-3.7271979562	 0.2636680761	 0.115332
H	 0.7830959196	 0.0300073795	 1.983579476	 0.244109
86.3577	122.4345	225.5979	250.6465	280.5922	385.4397	431.7653	446.3263	463.8735	541.8755	592.1532	668.0239	767.1075	812.1043	833.4427	883.7611	907.2038	943.0311	997.8147	1012.1574	1067.8185	1086.2274	1121.2351	1149.3393	1206.3623	1242.7049	1272.241	1320.6712	1336.317	1370.0441	1378.2915	1405.0356	1413.3752	1443.8183	1454.9581	1473.2902	1495.9368	1500.6328	1798.2141	2960.7053	3035.4003	3045.2895	3092.1048	3104.9669	3117.4893	3118.9202	3150.4083	3587.8
CC1CC2OC2C(=O)N1	C[C@H]1C[C@H]2O[C@H]2C(=O)N1	
InChI=1S/C6H9NO2/c1-3-2-4-5(9-4)6(8)7-3/h3-5H,2H2,1H3,(H,7,8)	InChI=1S/C6H9NO2/c1-3-2-4-5(9-4)6(8)7-3/h3-5H,2H2,1H3,(H,7,8)/t3-,4+,5+/m0/s1
