21
gdb 68078	2.46166	1.77916	1.26479	1.3226	78.16	-0.2301	0.0904	0.3205	1076.7188	0.182174	-424.226567	-424.218041	-424.217097	-424.258881	33.993	
C	-0.0898229016	 1.5276612322	 0.0314622352	-0.477523
C	 0.0670664781	 0.0277911933	-0.0300653851	 0.378527
C	 0.7799467966	-0.6576774258	-1.2173484458	-0.330468
C	-0.3458177265	-1.6975895786	-1.0200136553	 0.378531
C	-1.0196690224	-2.3580822261	-2.1980135242	-0.477525
C	 0.0442007911	-2.6526372376	 0.1118838174	-0.093497
O	 0.8605284018	-1.990516886	 1.072049171	-0.271774
C	 0.5303650746	-0.6210339429	 1.2775287288	-0.093496
O	-1.1728794415	-0.6628293105	-0.3938905257	-0.363008
H	 0.8800172266	 2.0127131728	 0.1830002695	 0.120889
H	-0.525496953	 1.898634746	-0.9001096376	 0.125722
H	-0.7504097791	 1.8171990195	 0.8559526587	 0.126952
H	 0.6549988358	-0.0954943979	-2.1450653617	 0.098626
H	 1.8143170792	-0.9796269171	-1.0876360946	 0.108747
H	-0.3273442783	-3.0328322593	-2.7120447304	 0.12089
H	-1.8888610709	-2.9406810071	-1.8738595081	 0.12695
H	-1.3630091491	-1.6008227526	-2.9078973411	 0.125724
H	-0.879541215	-3.0370214938	 0.571799309	 0.096332
H	 0.6353458901	-3.4993519702	-0.2545689631	 0.101534
H	 1.4375420655	-0.1471094472	 1.6687976148	 0.101534
H	-0.2754690819	-0.5127156011	 2.0201398184	 0.096332
183.8162	190.8961	206.6377	232.2124	245.4811	277.2561	344.5315	409.6924	433.7892	468.4233	493.4872	586.5556	644.1301	728.2724	852.9553	853.2668	892.0461	907.6738	912.6858	957.1485	980.8774	981.2077	1034.3981	1050.2511	1098.9244	1122.4314	1168.0857	1202.8325	1245.1195	1264.0324	1265.324	1273.9652	1281.4898	1318.4496	1379.9307	1406.698	1407.5921	1421.226	1478.2063	1481.0079	1482.2822	1484.8832	1493.1199	1493.845	1496.9183	2983.1772	2989.7099	3035.2908	3035.5397	3064.7675	3066.6406	3072.7999	3103.9969	3104.1965	3118.5136	3118.61	3138.0236
CC12CC(C)(COC1)O2	C[C@@]12C[C@@](C)(COC1)O2	
InChI=1S/C7H12O2/c1-6-3-7(2,9-6)5-8-4-6/h3-5H2,1-2H3	InChI=1S/C7H12O2/c1-6-3-7(2,9-6)5-8-4-6/h3-5H2,1-2H3/t6-,7+
