19
gdb 69429	2.87207	1.26473	1.21423	1.114	80.83	-0.2302	0.0498	0.28	1144.1958	0.158404	-385.849066	-385.840519	-385.839574	-385.881972	33.368	
C	 0.2233486064	 1.5332891356	 0.239682785	-0.47011
C	 0.2140110349	 0.0407975109	 0.0797385098	 0.472837
C	-0.9069333497	-0.8343767982	 0.5904765034	-0.383806
C	 0.4981151603	-0.9643485978	 1.1602799996	-0.108095
C	 1.4054498579	-2.0220582465	 0.5283435372	-0.203004
C	 1.2216779524	-1.7304446371	-0.9954313188	-0.112873
O	 0.8477891181	-0.3668387106	-1.1131729711	-0.288543
C	 2.7865122806	-1.8708391453	 0.9741185099	 0.333243
C	 3.924756254	-1.7438543232	 1.3394808586	-0.47254
H	 1.2492612581	 1.9135408597	 0.2185582693	 0.130432
H	-0.3354474633	 2.012604463	-0.57069916	 0.128316
H	-0.2372282292	 1.8210814874	 1.1884775311	 0.117387
H	-1.6487124625	-0.3693061387	 1.231053195	 0.113916
H	-1.3009878265	-1.6238241971	-0.0409715091	 0.114495
H	 0.6929907201	-0.6728458582	 2.1848737389	 0.101397
H	 1.0684557516	-3.041654765	 0.7495855354	 0.108522
H	 2.1366873264	-1.8883838997	-1.5698231514	 0.124379
H	 0.4389139954	-2.3849581296	-1.4025635174	 0.097872
H	 4.9309035551	-1.6352721295	 1.6607894744	 0.196175
82.1655	141.8497	201.6582	220.4716	264.2706	318.4133	397.7457	408.3496	481.5263	514.2852	615.7286	624.875	633.3993	735.036	766.8577	806.4147	827.4201	869.4025	919.0897	942.4008	974.8226	1017.4477	1041.3562	1073.5063	1077.279	1099.0019	1124.0882	1128.6543	1223.1411	1237.8443	1262.4514	1271.0297	1344.5362	1386.7395	1392.3158	1428.3206	1477.2517	1483.7629	1504.0635	1524.1414	2235.7942	3003.3586	3037.7505	3039.1688	3105.3645	3107.8073	3120.9435	3129.9504	3188.2365	3214.8858	3504.7528
CC12CC1C(CO2)C#C	C[C@]12C[C@H]1[C@@H](CO2)C#C	
InChI=1S/C8H10O/c1-3-6-5-9-8(2)4-7(6)8/h1,6-7H,4-5H2,2H3	InChI=1S/C8H10O/c1-3-6-5-9-8(2)4-7(6)8/h1,6-7H,4-5H2,2H3/t6-,7+,8+/m1/s1
