23
gdb 101742	3.04158	0.89837	0.73088	2.3297	82.65	-0.2448	0.0678	0.3127	1611.3736	0.203588	-425.403437	-425.393027	-425.392082	-425.439952	37.269	
C	 0.0016444639	 1.5181582245	 0.2153218919	-0.385131
C	 0.0124672165	 0.0004438108	 0.0208921006	-0.177105
C	 0.7448775582	-0.4470286525	-1.244783295	 0.143978
C	 0.8271675501	-1.971041181	-1.3592267908	-0.403149
O	 0.0472784515	 0.1313095313	-2.3485135211	-0.261789
C	 0.7184980224	 0.1260280259	-3.5735170566	 0.094424
C	 0.4124335844	-0.9961319042	-4.5998815469	-0.097023
O	 0.066998982	-0.0192403651	-5.6028425631	-0.274413
C	 0.0921182498	 1.0488914977	-4.632953625	-0.101986
H	 1.0200304079	 1.9116076419	 0.3122956901	 0.108713
H	-0.4689886391	 2.0117556429	-0.6382483323	 0.131693
H	-0.548990777	 1.795107988	 1.1192548435	 0.110494
H	 0.4875640838	-0.4873458398	 0.8803225708	 0.094303
H	-1.015672972	-0.3793701323	-0.0276081239	 0.104499
H	 1.7693784298	-0.0352429573	-1.2282094839	 0.064804
H	-0.1766740341	-2.4059822147	-1.397664828	 0.124265
H	 1.3697806817	-2.2779643212	-2.2585387218	 0.117864
H	 1.3533947216	-2.3909371885	-0.4960278108	 0.115936
H	 1.7950117176	 0.2918307891	-3.4315695228	 0.076619
H	 1.2396957961	-1.6403157673	-4.9201286647	 0.099255
H	-0.4468561817	-1.6136209172	-4.3066958852	 0.101903
H	-0.9153013413	 1.3799450267	-4.3483516036	 0.107806
H	 0.6805361081	 1.9071717223	-4.9747148714	 0.104042
42.8408	68.9937	95.0893	113.1532	187.4668	214.5589	229.5388	250.7675	308.8387	402.7163	434.6074	468.6879	503.8233	722.6382	784.9317	831.0735	871.0207	883.1707	922.9303	976.7431	994.4414	1018.2619	1024.2401	1035.34	1041.9308	1124.116	1130.1747	1153.45	1160.8604	1173.8385	1186.8633	1216.1515	1270.3592	1297.9593	1301.1099	1330.5815	1342.3251	1376.4295	1395.932	1403.6751	1406.3529	1433.532	1474.6974	1490.9131	1495.538	1497.5083	1499.3635	1509.8902	1527.1967	2948.5624	3006.3054	3009.1165	3019.73	3029.2195	3036.0367	3036.7644	3064.0124	3067.3275	3073.9942	3100.657	3106.9751	3112.4122	3127.2633
CCC(C)OC1COC1	CC[C@@H](C)OC1COC1	
InChI=1S/C7H14O2/c1-3-6(2)9-7-4-8-5-7/h6-7H,3-5H2,1-2H3	InChI=1S/C7H14O2/c1-3-6(2)9-7-4-8-5-7/h6-7H,3-5H2,1-2H3/t6-/m1/s1
