21
gdb 93505	2.77241	1.32684	0.93655	4.0158	80.29	-0.2213	0.0352	0.2566	1270.9014	0.184097	-420.442256	-420.433238	-420.432293	-420.475764	34.435	
C	-0.0225291312	 1.5722002938	-0.0557310606	-0.420263
C	 0.001618007	 0.0440666394	 0.0140215726	 0.072389
C	 0.7315621586	-0.5021065883	-1.2168417353	-0.147176
N	 0.9051241209	-1.9410493782	-1.1381754996	-0.322299
C	 0.9613565322	-2.6655125669	 0.013382763	 0.385594
O	 1.2363895035	-3.8507273187	 0.0349556847	-0.376751
C	 0.5825091554	-1.9157876544	 1.2845434819	-0.257804
N	 0.6894862762	-0.4622840302	 1.2047320045	-0.08627
C	 0.2521615462	 0.1349311728	 2.458667683	-0.322229
H	 0.9838270738	 1.9808414033	 0.0815250035	 0.129644
H	-0.3930685039	 1.8925616237	-1.0342939546	 0.118902
H	-0.6794348739	 2.0074433943	 0.7000297034	 0.125707
H	-1.0450680828	-0.3243228173	-0.0136412556	 0.059601
H	 0.1502530725	-0.2634337241	-2.1146145591	 0.107694
H	 1.7028868725	 0.006810541	-1.3019290846	 0.10943
H	 1.1985768415	-2.4442442613	-1.9632518255	 0.245493
H	-0.4455444817	-2.2439013983	 1.5425652227	 0.103996
H	 1.2366019559	-2.2902024466	 2.0763431309	 0.133657
H	 0.8040261201	-0.3277556092	 3.2823788705	 0.124251
H	 0.465681821	 1.2052826436	 2.4775385272	 0.123375
H	-0.8276721339	-0.0095049282	 2.6561226771	 0.093058
83.4219	124.3557	185.2127	230.6579	255.3366	292.5465	336.2418	371.5157	414.1437	451.1194	484.875	521.765	543.583	656.2017	722.9809	757.4017	863.9874	919.0512	950.0643	1001.4963	1047.0854	1096.3051	1099.2889	1113.2478	1143.3124	1159.5103	1200.1685	1255.5053	1267.9457	1296.5941	1314.1925	1362.2643	1384.5718	1389.8727	1405.385	1412.3637	1457.6333	1478.2407	1484.8477	1490.8478	1498.5437	1506.0843	1515.5068	1524.7643	1797.3034	2881.9644	2899.2176	2925.259	2996.1888	3043.6167	3057.1587	3075.9267	3092.0471	3111.2824	3122.5296	3131.1306	3605.4471
CC1CNC(=O)CN1C	C[C@H]1CNC(=O)CN1C	
InChI=1S/C6H12N2O/c1-5-3-7-6(9)4-8(5)2/h5H,3-4H2,1-2H3,(H,7,9)	InChI=1S/C6H12N2O/c1-5-3-7-6(9)4-8(5)2/h5H,3-4H2,1-2H3,(H,7,9)/t5-/m0/s1
