20
gdb 37075	3.19648	1.61472	1.3534	3.2252	77.29	-0.2345	0.0679	0.3024	1009.7958	0.174762	-403.139849	-403.132711	-403.131767	-403.171014	29.405	
C	-0.051697145	 1.5704354653	-0.0060464125	-0.234287
C	 1.450663206	 1.9716454067	-0.0493608141	-0.308703
C	 2.1173225552	 0.8214449423	-0.7767641017	 0.260102
C	 3.5115748343	 0.2812260348	-0.5575355935	-0.132167
O	 3.4137523291	-1.1292539472	-0.7703499546	-0.259664
C	 2.0707000031	-1.5693634472	-0.5539533751	-0.132167
C	 1.2047432393	-0.3506274873	-0.774495181	 0.260102
C	-0.0724269603	 0.015462701	-0.0455744423	-0.308704
N	 1.5252604585	 0.33867397	-2.0398937516	-0.398565
H	-0.5617747733	 1.9692877602	 0.8743288922	 0.108347
H	-0.5795909908	 1.9797763937	-0.8734428877	 0.108158
H	 1.6043597727	 2.9478680319	-0.5218389575	 0.105438
H	 1.8636156478	 2.037957882	 0.9646189996	 0.106667
H	 4.2618164501	 0.659404388	-1.2589034088	 0.110307
H	 3.8411179031	 0.5116879641	 0.469450791	 0.083755
H	 1.8866757584	-2.3911112542	-1.2529982393	 0.110308
H	 1.9299895509	-1.9428720313	 0.4742023107	 0.083755
H	-0.0335746348	-0.3987001691	 0.9693352529	 0.106667
H	-0.9820625766	-0.3740067119	-0.5154099918	 0.105438
H	 0.7543452523	 0.9383599582	-2.324067675	 0.225212
184.8607	205.8462	217.7183	309.4366	332.6348	456.915	496.1746	547.5763	616.9042	686.5675	697.5208	808.1518	829.2473	872.2679	885.7974	915.8246	929.406	981.4575	1003.8984	1022.8869	1053.1707	1061.86	1070.4183	1078.8698	1124.5241	1177.8053	1206.3602	1220.9752	1228.9688	1252.7896	1267.2032	1291.4233	1323.8642	1328.5806	1333.9744	1399.5219	1404.8867	1427.1948	1489.9371	1495.4206	1504.9219	1509.3779	1515.3779	2963.251	2970.2513	3032.0511	3034.2437	3049.0521	3070.4298	3073.0024	3073.131	3076.075	3101.8213	3499.6332
C1CC23COCC2(C1)N3	C1C[C@@]23COC[C@]2(C1)N3	
InChI=1S/C7H11NO/c1-2-6-4-9-5-7(6,3-1)8-6/h8H,1-5H2	InChI=1S/C7H11NO/c1-2-6-4-9-5-7(6,3-1)8-6/h8H,1-5H2/t6-,7+
