19
gdb 13375	6.21728	1.03379	0.91134	1.0818	73.08	-0.2392	0.0338	0.273	1306.6293	0.165978	-365.09394	-365.085313	-365.084368	-365.128526	30.001	
C	 0.070549976	 1.6053365274	-0.016115799	-0.385231
C	 0.0258110032	 0.0764661911	 0.0346653245	-0.155253
C	 0.6183361037	-0.5639138013	-1.2225576294	-0.289147
C	 0.5941456093	-2.0593731612	-1.2134554438	 0.422941
N	 0.1448451575	-2.8116783566	-0.2940861476	-0.313182
C	 0.3423214059	-4.1961402421	-0.7457184332	-0.185946
C	 1.0101744961	-4.0635001776	-2.1396919058	-0.11042
O	 1.1214072001	-2.6373658837	-2.3328747289	-0.260191
H	 1.0991684867	 1.972296394	-0.1085114066	 0.112709
H	-0.4951141762	 1.9936379918	-0.8708082605	 0.112708
H	-0.3573455606	 2.0424680447	 0.8910263338	 0.114273
H	 0.5690589993	-0.2902856886	 0.9116354947	 0.113825
H	-1.0056038392	-0.2692030286	 0.1587713542	 0.11381
H	 0.0855927655	-0.2246489296	-2.1211372255	 0.123574
H	 1.6592939418	-0.2455115278	-1.3688104611	 0.123576
H	 0.9697634916	-4.7379442372	-0.0298369271	 0.11463
H	-0.6202855508	-4.7168895214	-0.7896231107	 0.11463
H	 2.0131964279	-4.4972884389	-2.1882995099	 0.116347
H	 0.4087218721	-4.4759961445	-2.9549775582	 0.116347
37.1015	74.0632	90.295	140.518	234.216	246.7721	324.368	401.4794	596.9924	721.1343	743.2494	761.937	827.7353	878.3888	908.8654	926.3462	974.886	1011.59	1017.6812	1056.8491	1113.1565	1127.2758	1133.9794	1196.0499	1215.2481	1246.2105	1250.9769	1306.8545	1318.0243	1345.2644	1374.7494	1413.7098	1418.3703	1467.267	1488.3303	1500.6457	1503.3738	1508.9421	1527.6637	1739.7901	3020.7144	3028.1301	3038.0047	3045.6236	3052.2671	3053.1585	3064.5697	3077.2414	3098.2738	3102.5191	3104.87
CCCC1=NCCO1	CCCC1=NCCO1	
InChI=1S/C6H11NO/c1-2-3-6-7-4-5-8-6/h2-5H2,1H3	InChI=1S/C6H11NO/c1-2-3-6-7-4-5-8-6/h2-5H2,1H3
