18
gdb 16182	4.17024	1.57125	1.36245	2.7009	67.65	-0.2479	0.0692	0.3171	944.6469	0.154784	-384.924252	-384.916674	-384.91573	-384.956095	28.725	
O	-0.0444499509	 1.3520490441	 0.4003759971	-0.422044
C	-0.0205961098	 0.0000546315	-0.0447494682	-0.187155
C	-1.4236947454	-0.5275638996	-0.0060938361	 0.358912
C	-2.0012119341	-1.1302432708	 1.2504685541	-0.319278
C	-1.7515278659	-2.0036982143	 0.0470523789	-0.122128
C	-2.9292884136	-2.1912426837	-0.8925236641	-0.089994
O	-3.5005859279	-0.8964656807	-1.0508065724	-0.256991
C	-2.4535316485	 0.0658702081	-0.9568875928	-0.13599
H	 0.8366295309	 1.7208180315	 0.2862459247	 0.287224
H	 0.3716240243	-0.0648147962	-1.0735243613	 0.085005
H	 0.627625198	-0.6205470692	 0.5943774918	 0.083807
H	-1.3307249978	-1.2422272935	 2.0955606186	 0.110777
H	-3.0284636628	-0.8936309643	 1.5092050284	 0.122955
H	-0.9747318494	-2.7596665491	 0.0753193618	 0.086435
H	-2.5832746366	-2.5986109518	-1.857334041	 0.088248
H	-3.7162295681	-2.8472760665	-0.5053433436	 0.108296
H	-2.8985780325	 1.0018869068	-0.6083348551	 0.118906
H	-1.98668079	 0.2478336879	-1.9402690208	 0.083015
87.8265	155.0376	234.5895	262.2381	288.4119	351.6699	386.673	427.8346	631.1514	686.5028	739.8414	847.6423	911.1264	923.6379	937.78	953.5014	982.8506	1033.1282	1049.1329	1072.0599	1080.6683	1102.8321	1113.8045	1126.2641	1213.7795	1225.2047	1243.3271	1252.7641	1277.016	1323.9445	1359.6499	1373.3812	1416.5924	1465.9833	1491.0786	1509.0232	1515.9911	1523.0353	2954.0003	2958.6452	2966.3034	2988.1677	3065.6133	3086.9906	3128.4925	3173.8425	3217.3413	3825.7424
OCC12CC1COC2	OC[C@]12C[C@H]1COC2	
InChI=1S/C6H10O2/c7-3-6-1-5(6)2-8-4-6/h5,7H,1-4H2	InChI=1S/C6H10O2/c7-3-6-1-5(6)2-8-4-6/h5,7H,1-4H2/t5-,6-/m0/s1
