18
gdb 17436	2.73551	2.63565	1.89775	1.5739	70.48	-0.2265	0.0842	0.3107	803.6361	0.153034	-347.748816	-347.741535	-347.740591	-347.779737	28.89	
C	 0.0321306927	 1.5727272927	 0.02623374	-0.420935
C	 0.0627088742	 0.053526974	-0.0419262259	-0.003915
C	 0.8002101162	-0.6612864965	-1.1771190005	-0.135358
C	 2.2493848499	-0.7905713564	-0.6761391107	 0.097272
O	 2.3428905567	-0.1332304421	 0.5853575709	-0.325524
C	 1.0403272428	-0.7292734358	 0.8984860866	 0.410363
C	 0.8077101025	-0.9445139524	 2.3608277405	-0.512061
C	 1.2383077121	-1.7942050672	-0.2536830512	-0.205613
H	 1.0486592288	 1.9729206472	 0.0167904532	 0.13325
H	-0.5135911848	 1.9908608206	-0.8266657831	 0.109789
H	-0.4670356101	 1.9205346914	 0.9378676444	 0.108592
H	-0.9402036787	-0.3759187054	 0.0620796471	 0.07046
H	 0.5369756985	-0.7199622965	-2.2260113467	 0.084953
H	 3.126705009	-0.8522899923	-1.3060492795	 0.10531
H	 0.8171440763	 0.0146679174	 2.8898588947	 0.133897
H	-0.1629784668	-1.4209602593	 2.5292486798	 0.122185
H	 1.5891512105	-1.5780585564	 2.7898954932	 0.131611
H	 1.1669592201	-2.8711679531	-0.3141101529	 0.095725
188.3288	194.1993	200.8365	245.1403	309.9242	324.3555	569.4106	585.1513	633.3759	724.4224	764.1588	775.6594	802.27	817.6916	852.5535	906.9349	931.2838	992.2239	1012.0053	1027.0363	1038.3168	1041.6523	1107.7825	1124.7881	1144.0879	1146.5946	1181.1967	1213.2402	1284.6075	1334.9515	1364.7446	1382.43	1400.815	1419.2632	1478.5801	1488.3097	1492.731	1503.3773	3031.0976	3036.8762	3047.3077	3089.8521	3106.7822	3116.7779	3127.487	3191.8641	3203.0699	3218.8233
CC1C2C3OC1(C)C23	C[C@H]1[C@H]2[C@H]3O[C@]1(C)[C@@H]23	
InChI=1S/C7H10O/c1-3-4-5-6(4)8-7(3,5)2/h3-6H,1-2H3	InChI=1S/C7H10O/c1-3-4-5-6(4)8-7(3,5)2/h3-6H,1-2H3/t3-,4+,5-,6+,7-/m0/s1
