16
gdb 54379	3.30768	1.35641	1.26765	4.538	69.03	-0.2453	0.0035	0.2488	1025.8461	0.125829	-437.848991	-437.841758	-437.840814	-437.881351	27.813	
O	 0.2867771624	 0.6092401777	 1.0123682743	-0.375758
C	 0.0057072139	 1.6244861691	 0.1554581611	 0.297289
O	 0.8647578504	 2.1001833512	-0.5367967584	-0.337659
C	-1.393200141	 2.0824265693	 0.1463145231	 0.209599
C	-2.2275551665	 2.6748096301	-0.9918312416	-0.120462
C	-3.4046217493	 1.7686947754	-0.6304836343	-0.238515
C	-2.7892713234	 1.7180525416	 0.7989813618	-0.129697
N	-2.8568334177	 3.107890305	 1.3364575378	-0.301854
H	-3.7875116281	 3.5209416089	 1.243493989	 0.214316
H	-0.5053770868	 0.3765673283	 1.5113641901	 0.30406
C	-1.9324894295	 3.4895502496	 0.2649773176	-0.057099
H	-1.852646762	 2.9554249249	-1.9666456709	 0.118408
H	-4.4238164368	 2.16398736	-0.7152843964	 0.095711
H	-3.3339495207	 0.8047864208	-1.1399017241	 0.116382
H	-3.0221377254	 0.9107485405	 1.4934564487	 0.081518
H	-1.3657843396	 4.4111262476	 0.2628815022	 0.123761
53.2851	146.1283	156.075	359.6517	456.4148	476.5441	499.9174	523.5301	704.6843	714.7696	756.0245	768.9351	822.5712	886.5108	908.7359	933.4964	960.1033	971.753	999.6086	1028.9002	1069.4057	1090.8659	1103.5841	1117.9588	1155.603	1181.5741	1219.4324	1225.0364	1265.0551	1303.7473	1325.8285	1354.1266	1429.4851	1496.7041	1852.6815	3034.5118	3109.2878	3115.0859	3212.9447	3223.0973	3414.5892	3804.1139
[O-]C(=O)C12C3CC1[NH2+]C23	OC(=O)[C@@]12[C@H]3C[C@@H]1N[C@@H]23	
InChI=1S/C6H7NO2/c8-5(9)6-2-1-3(6)7-4(2)6/h2-4,7H,1H2,(H,8,9)	InChI=1S/C6H7NO2/c8-5(9)6-2-1-3(6)7-4(2)6/h2-4,7H,1H2,(H,8,9)/t2-,3-,4+,6-/m0/s1
