17
gdb 127083	2.03577	1.47413	1.03177	4.8569	76.75	-0.2233	-0.0566	0.1666	1199.0282	0.133223	-451.315147	-451.304876	-451.303932	-451.350946	35.65	
C	 0.1246059104	 0.9955331659	-0.5304159926	-0.331398
N	-0.1442145321	-0.2042295853	 0.2621321951	-0.13614
C	 0.3481929099	-0.108504568	 1.638131436	-0.332849
C	-1.4469888352	-0.7410052224	 0.1253257509	 0.10781
C	-1.765092446	-2.0850365656	-0.3848655599	 0.366466
N	-0.6523939929	-2.8161712264	-0.7031121774	-0.54795
O	-2.9086735289	-2.4989361586	-0.4850013193	-0.397054
N	-3.2893511143	 0.7150341335	 0.8178014335	-0.235671
N	-2.4731671421	-0.0014866086	 0.4917070665	 0.236231
H	 1.1988137779	 1.2053966662	-0.5163866613	 0.126676
H	-0.1863422364	 0.826002887	-1.5637947399	 0.135201
H	-0.3987642464	 1.8894790347	-0.1508004668	 0.113644
H	-0.1491017343	 0.6874344203	 2.217186611	 0.113612
H	 0.1860897084	-1.0613107278	 2.1466620931	 0.139444
H	 1.4220617808	 0.1040954745	 1.6251035666	 0.124891
H	 0.2376459831	-2.3490711084	-0.7574495078	 0.256051
H	-0.796738912	-3.6723739008	-1.2113772177	 0.261036
38.9089	103.3984	122.337	134.5716	163.3566	226.252	235.6666	308.2207	333.5362	354.3179	447.389	449.8162	488.7651	567.0445	597.551	645.2273	697.4178	757.9189	937.3785	1048.8572	1079.4745	1119.5024	1165.6645	1185.9543	1225.319	1236.6958	1322.3531	1396.4382	1440.8043	1468.0578	1480.0994	1495.472	1499.3706	1517.3942	1585.6351	1766.4263	2177.85	2965.0574	2971.5361	3069.2399	3071.6543	3123.6365	3127.421	3595.0188	3734.1533
CN(C)C1=C(N)ON=N1	CN(C)[C](C(=O)N)[N][N]	
InChI=1S/C4H8N4O/c1-8(2)4-3(5)9-7-6-4/h5H2,1-2H3	InChI=1S/C4H8N4O/c1-8(2)4(7-6)3(5)9/h1-2H3,(H2,5,9)
