22
gdb 113980	3.25065	0.73503	0.64534	0.762	89.78	-0.2262	0.0547	0.2809	1789.8185	0.191886	-367.15105	-367.140676	-367.139732	-367.187189	37.944	
C	-0.288080207	 1.6290153166	 0.3066731401	-0.371841
C	-0.1243034647	 0.1395453403	 0.6022668392	-0.12067
N	-1.3437819991	-0.5778510414	 0.2434685046	-0.077421
C	-1.4562845694	-1.0716521597	-1.1247809792	-0.272401
C	-1.3234666156	-2.0260584453	 0.0126951163	 0.01645
C	-0.0938270699	-2.8971482803	 0.1711575817	-0.213581
C	 0.1370548395	-3.3256632751	 1.6382917128	-0.352504
C	 1.2758491479	-4.2217038012	 1.7934410337	 0.292557
C	 2.22118787	-4.9580014197	 1.8895217686	-0.436782
H	 0.6037461917	 2.1843702645	 0.6129261172	 0.110804
H	-0.4417724014	 1.7986683107	-0.764104737	 0.118114
H	-1.1533321317	 2.03273631	 0.8395501952	 0.126959
H	 0.7695900822	-0.2379981851	 0.0785063366	 0.083995
H	 0.0473751953	-0.0071090319	 1.6757586508	 0.102185
H	-2.4113826823	-0.9167684639	-1.6203815348	 0.11271
H	-0.5871954125	-0.9637860626	-1.7751338949	 0.103886
H	-2.2355221016	-2.5081056869	 0.3679432764	 0.086972
H	-0.2220799058	-3.797331918	-0.4412383499	 0.115153
H	 0.801981993	-2.3960193447	-0.205534103	 0.113097
H	 0.2827225881	-2.4348968584	 2.2617439086	 0.136976
H	-0.7695632287	-3.8144763703	 2.0186279359	 0.131633
H	 3.0530081519	-5.6100814776	 1.989303471	 0.19371
49.6549	82.5916	88.7761	123.3785	200.9294	208.8756	242.9767	339.142	345.3689	361.4932	434.662	509.3721	546.8769	617.8767	638.2398	734.7593	764.1964	812.2219	820.243	913.3487	946.7784	974.4768	1015.6825	1030.6919	1051.0352	1089.5812	1102.2466	1122.4235	1146.5681	1151.0161	1199.4451	1220.2131	1277.0501	1305.8711	1311.0314	1336.6509	1364.3978	1379.9599	1408.7791	1426.6504	1470.7702	1487.6364	1489.0357	1491.0491	1505.5551	1517.203	2238.8788	2960.4975	3021.214	3039.1102	3042.4244	3043.1289	3056.2881	3078.0332	3084.3472	3103.8414	3108.223	3120.9046	3167.0773	3507.669
CCN1CC1CCC#C	CCN1C[C@H]1CCC#C	
InChI=1S/C8H13N/c1-3-5-6-8-7-9(8)4-2/h1,8H,4-7H2,2H3	InChI=1S/C8H13N/c1-3-5-6-8-7-9(8)4-2/h1,8H,4-7H2,2H3/t8-,9?/m1/s1
