19
gdb 83448	3.54515	1.11646	0.98873	4.5955	79.36	-0.2404	0.0328	0.2732	1243.9461	0.159467	-382.044924	-382.036166	-382.035221	-382.078598	32.713	
C	-0.0677207485	 1.4899771472	-0.2404363512	-0.428435
C	 0.0593836529	 0.028529913	 0.1230794732	-0.03419
N	 1.269767395	-0.8032529512	-0.0936539415	-0.176236
C	 2.4684016396	 0.0537324334	 0.2302717183	-0.150475
C	 1.9961371675	 0.2856569764	 1.6864162114	-0.326227
C	 0.7528604852	-0.5239577197	 1.3090920843	 0.329178
C	 0.1299202863	-1.6050572295	 2.1680744221	-0.441512
C	 1.1227444935	-2.4678874876	 2.8114481667	 0.267352
N	 1.922594844	-3.1263382454	 3.3230700096	-0.312664
H	 0.7243550514	 2.1128692285	 0.1790709444	 0.127529
H	-0.0577194489	 1.6146861952	-1.3286074561	 0.134212
H	-1.0226496639	 1.8782135626	 0.1283824287	 0.126531
H	-0.8141217109	-0.55070268	-0.174511134	 0.094952
H	 3.3716643784	-0.5531798195	 0.1557191	 0.124226
H	 2.5785321701	 0.9306871444	-0.4134037145	 0.108013
H	 2.6239689621	-0.2287008222	 2.4157372918	 0.137106
H	 1.8306574225	 1.3118413227	 2.0266887766	 0.104894
H	-0.4939634725	-1.1545719302	 2.9509479777	 0.154719
H	-0.5283713637	-2.2263218984	 1.5516437023	 0.161026
57.7144	109.3081	164.37	225.6814	257.9267	295.9322	311.7276	385.0455	416.9613	497.4527	574.8181	660.3742	720.8525	773.8393	797.2276	850.4309	913.48	935.8228	950.0721	977.7301	1000.4598	1061.5066	1111.9089	1115.5836	1138.2783	1189.5723	1205.607	1222.9532	1250.1916	1282.2216	1300.3055	1326.5224	1362.8541	1412.6783	1447.295	1453.7234	1480.7174	1502.4355	1503.3905	1516.1859	2362.2985	3032.9119	3041.63	3058.427	3066.3709	3083.6978	3099.5575	3109.7238	3115.2009	3130.7484	3136.227
CC1N2CCC12CC#N	C[C@H]1N2CC[C@@]12CC#N	
InChI=1S/C7H10N2/c1-6-7(2-4-8)3-5-9(6)7/h6H,2-3,5H2,1H3	InChI=1S/C7H10N2/c1-6-7(2-4-8)3-5-9(6)7/h6H,2-3,5H2,1H3/t6-,7+,9?/m1/s1
