17
gdb 68508	2.55568	1.8677	1.45126	0.9653	71.17	-0.2456	-0.0075	0.2381	942.0366	0.136071	-421.801425	-421.794095	-421.793151	-421.832968	29.087	
C	 0.0076661203	 1.5508278679	 0.0247997564	-0.509358
C	 0.0101396912	 0.0438746076	-0.0138036171	 0.163357
C	 0.441145832	-0.8039429612	-1.2581954159	-0.276273
C	-0.3510924826	-1.9724634379	-0.5947867644	-0.200356
C	 0.3999085548	-2.1567271552	 0.7362637588	 0.033691
O	 1.7320416565	-1.6303960589	 0.7804651348	-0.249466
C	 0.6502579239	-0.7618318516	 1.1392077877	-0.002287
C	-1.2982550118	-0.8137745307	-0.1391927767	 0.398257
O	-2.4694154333	-0.6154020092	-0.0658376656	-0.312762
H	 1.022658803	 1.9524968127	-0.0600897439	 0.129411
H	-0.5922866498	 1.9625883564	-0.7923666058	 0.129151
H	-0.4197817371	 1.9164500921	 0.9645406536	 0.129815
H	-0.0275918486	-0.4522629124	-2.1784240574	 0.114921
H	 1.5103876176	-0.9615302183	-1.3810489981	 0.136258
H	-0.6977309047	-2.8453127059	-1.1413058702	 0.089418
H	 0.175725233	-2.9696690703	 1.4167288679	 0.115609
H	 0.6385488356	-0.3954314051	 2.1599885259	 0.110613
135.2224	171.0239	205.2396	293.2466	318.8775	435.7225	530.3344	544.4324	587.3672	687.3988	732.7064	754.718	803.61	834.6068	849.8234	892.4334	909.2742	943.1687	972.779	995.6351	1015.1462	1068.689	1084.042	1109.9533	1162.4052	1196.8447	1200.9181	1236.9657	1246.9698	1270.2285	1331.6148	1390.5485	1417.3641	1478.2218	1490.223	1491.9951	1902.587	3034.7305	3093.2651	3100.3401	3107.8178	3159.9871	3171.6523	3176.0298	3192.2374
CC12CC(C3OC13)C2=O	C[C@@]12C[C@@H]([C@H]3O[C@@H]13)C2=O	
InChI=1S/C7H8O2/c1-7-2-3(5(7)8)4-6(7)9-4/h3-4,6H,2H2,1H3	InChI=1S/C7H8O2/c1-7-2-3(5(7)8)4-6(7)9-4/h3-4,6H,2H2,1H3/t3-,4+,6+,7-/m0/s1
