15
gdb 84551	3.8127	1.32809	1.11802	3.8702	65.96	-0.2632	-0.0218	0.2414	1045.3892	0.113788	-457.792504	-457.785344	-457.7844	-457.824267	27.433	
O	 0.2834705337	 1.2193795474	-0.3521236187	-0.421804
C	 0.0148554327	-0.132640006	-0.0052356086	 0.07052
C	 0.6041847225	-0.5295611856	 1.3282350503	-0.118198
C	-0.3267029151	-0.8446465492	 2.2333345155	-0.080054
C	-1.7177192054	-0.8045730061	 1.6584951507	-0.278007
C	-1.4867055566	-0.4180789955	 0.17905212	 0.069118
O	-1.8645814752	-1.7755924436	-0.2372862835	-0.250618
C	-2.1651467758	-2.1490177153	 1.049040708	 0.458643
O	-2.6114694709	-3.1819453375	 1.4251669326	-0.316732
H	 0.1848125357	 1.750983151	 0.44566272	 0.282441
H	 0.3996704277	-0.73333577	-0.8367579102	 0.11962
H	 1.6739974263	-0.5233618012	 1.5025665869	 0.115546
H	-0.1361410456	-1.1460304533	 3.2565843627	 0.123441
H	-2.4712673256	-0.2982200891	 2.2637846782	 0.115834
H	-2.1299227184	 0.322975014	-0.295226084	 0.11025
104.7334	145.7362	269.8979	310.8319	344.723	352.5368	478.3138	556.5549	681.6175	725.2514	739.8686	812.083	823.1409	878.645	927.13	953.6478	969.9559	983.8547	1018.1814	1055.4073	1075.1487	1113.1006	1133.819	1193.7314	1235.3585	1257.6028	1277.5433	1293.5314	1334.3063	1369.9082	1417.4973	1661.5738	1940.4818	3062.7824	3105.9929	3126.5647	3195.8377	3218.8499	3801.337
OC1C=CC2C1OC2=O	O[C@H]1C=C[C@H]2[C@@H]1OC2=O	
InChI=1S/C6H6O3/c7-4-2-1-3-5(4)9-6(3)8/h1-5,7H	InChI=1S/C6H6O3/c7-4-2-1-3-5(4)9-6(3)8/h1-5,7H/t3-,4-,5-/m0/s1
