17
gdb 84245	2.57197	1.96979	1.36665	2.4772	74.03	-0.2294	-0.05	0.1794	953.6056	0.13461	-417.864344	-417.856701	-417.855757	-417.895871	30.859	
C	-0.0947497726	 1.5504377406	-0.0660631433	-0.398396
C	 0.0202760098	 0.0307670098	-0.036952879	-0.023926
N	 0.9636939443	-0.3955935883	-1.1055766519	-0.161544
C	 1.6251554325	-1.354579409	-0.5940820419	 0.126421
N	 3.0267486281	-1.0816202884	-0.2282369064	-0.348204
C	 2.3044673693	-1.0150343724	 1.152518927	-0.096844
C	 1.1864715009	-1.920483619	 0.7996318047	-0.224603
C	 0.7331286757	-0.5738068944	 1.2060693201	 0.386469
O	 0.2169175607	-0.3862968317	 2.4733548385	-0.468248
H	 0.8968358219	 2.0099114474	-0.0275886068	 0.13314
H	-0.5871953701	 1.8790824483	-0.9844795211	 0.133872
H	-0.6910296632	 1.902642722	 0.78396331	 0.104379
H	-0.9838147231	-0.4157468475	-0.1039289469	 0.089533
H	 3.5479736941	-1.9629308035	-0.1507700449	 0.22422
H	 2.9049676174	-0.9609676252	 2.0554526754	 0.115572
H	 0.8894124183	-2.9131408562	 1.1134972939	 0.112364
H	 0.302459936	 0.5464159677	 2.7011644426	 0.295797
137.9366	224.6257	238.6756	274.0419	350.5984	378.4676	431.5721	471.6748	547.078	570.9111	595.4893	645.6222	734.9585	770.7903	813.5355	841.4562	874.293	904.3679	953.7393	1010.0994	1043.462	1060.4948	1091.5703	1112.4484	1119.9098	1145.933	1193.442	1211.9326	1228.4404	1288.01	1291.8712	1346.8804	1396.2771	1415.4382	1485.2765	1495.9261	1621.9848	2985.14	3033.0233	3106.6144	3128.2999	3164.2907	3191.6816	3361.1833	3797.565
CC1N=C2NC3C2C13O	C[C@H]1[N][C]2N[C@@H]3[C@H]2[C@]13O	
InChI=1S/C6H8N2O/c1-2-6(9)3-4(6)8-5(3)7-2/h2-4,9H,1H3,(H,7,8)	InChI=1S/C6H8N2O/c1-2-6(9)3-4(6)8-5(3)7-2/h2-4,9H,1H3,(H,7,8)/t2-,3-,4-,6-/m1/s1
