19
gdb 36924	4.61704	0.94027	0.83493	1.4633	76.69	-0.2315	0.021	0.2524	1378.6845	0.160755	-419.182643	-419.17438	-419.173436	-419.216627	30.2	
C	-0.0718074019	 1.5058505825	 0.0522449496	-0.151521
C	 0.1293187435	-0.0097374772	-0.0394568944	 0.015655
C	-1.2047859656	-0.8050676119	-0.0195052268	-0.128132
O	-1.1579399935	-1.615183487	-1.218933975	-0.22015
C	-0.0123644641	-1.2548676542	-1.8447250236	 0.120618
N	 0.7633529515	-0.40572649	-1.3160456731	-0.265839
N	 1.1860892906	 2.1954534588	 0.2825129652	-0.065343
C	 1.9511056611	 2.5755836292	-0.900865145	-0.197416
C	 1.2325653426	 3.6041067771	-0.1006960657	-0.230821
H	-0.5915411607	 1.8502289958	-0.8617172769	 0.081917
H	-0.7319373204	 1.7210187523	 0.9030599751	 0.100976
H	 0.7903125104	-0.3068274249	 0.7818110934	 0.102758
H	-1.3090520022	-1.4717514929	 0.8393475596	 0.123677
H	-2.0882139419	-0.1598212927	-0.079930975	 0.114854
H	 0.1511163533	-1.7538550519	-2.7938373384	 0.141237
H	 3.028052287	 2.4640293039	-0.8175297853	 0.116207
H	 1.5417942339	 2.3118950994	-1.8724271054	 0.12098
H	 0.3382840115	 4.0432349568	-0.5409316998	 0.105609
H	 1.772059425	 4.2591104569	 0.5775984617	 0.114734
59.6804	75.7841	106.3884	173.3679	297.6356	335.3223	380.4951	421.8664	593.4823	730.2448	767.0065	828.3664	847.1148	878.9319	901.4052	932.134	963.6122	967.4917	1021.6219	1029.3449	1056.9391	1084.4426	1112.3377	1118.1435	1127.996	1139.1956	1171.679	1189.2074	1225.0033	1273.5125	1303.237	1323.3361	1323.7303	1345.5847	1380.9051	1398.8677	1482.0688	1494.1143	1516.769	1522.6509	1707.0465	2924.9992	3031.7007	3042.9231	3051.3733	3093.7811	3104.4627	3114.1101	3178.5813	3200.6999	3212.7977
C(C1COC=N1)N1CC1	C([C@H]1COC=N1)N1CC1	
InChI=1S/C6H10N2O/c1-2-8(1)3-6-4-9-5-7-6/h5-6H,1-4H2	InChI=1S/C6H10N2O/c1-2-8(1)3-6-4-9-5-7-6/h5-6H,1-4H2/t6-/m0/s1
