20
gdb 89219	3.0403	1.56152	1.25343	2.3295	77.55	-0.2218	0.0704	0.2922	1056.1923	0.172198	-403.113659	-403.105771	-403.104826	-403.145485	31.967	
C	-0.0495195023	 1.4770794504	 0.0324467256	-0.478229
C	-0.0199092135	-0.0249840494	-0.0777675379	 0.355974
C	 0.9782143973	-0.690529772	-1.023260256	-0.342508
C	 0.2902546114	-2.0239317119	-1.4289776345	 0.139033
O	 1.1581547095	-3.1387094666	-1.5316717169	-0.43983
C	-0.7107804134	-2.2544901612	-0.2955823879	-0.073297
C	 0.0077825479	-2.1707837525	 1.0697664791	-0.160167
N	-0.3292190516	-0.7111683793	 1.2181091696	-0.185725
C	-1.2510683885	-0.8441317331	 0.0296168818	-0.108855
H	 0.9098634396	 1.8590896682	 0.3987845787	 0.121455
H	-0.2474849191	 1.9378424793	-0.9418126313	 0.110964
H	-0.8244999008	 1.7944857921	 0.734629261	 0.129744
H	 1.1787641502	-0.0477547075	-1.8864872518	 0.0955
H	 1.9389460312	-0.8914618517	-0.5353138812	 0.108088
H	-0.2628784121	-1.876695846	-2.3707416813	 0.065156
H	 1.7992784406	-2.9600083755	-2.2262012474	 0.284931
H	-1.4000757412	-3.0810248083	-0.462229438	 0.074564
H	-0.5083873777	-2.7170846975	 1.8621777666	 0.107988
H	 1.0732355312	-2.4182609909	 1.0982231023	 0.10865
H	-2.2745213588	-0.4858956367	 0.0343973696	 0.086564
136.4742	207.8075	241.5121	268.0362	294.4801	322.4053	409.322	445.9463	504.8443	564.8761	599.3471	687.516	770.0303	834.5498	849.1645	880.2304	917.342	934.3415	966.1061	977.4194	1012.7098	1031.0587	1057.1307	1059.2845	1095.2041	1127.2516	1165.4123	1188.5536	1194.7073	1216.9135	1239.2208	1261.9373	1292.8579	1313.6688	1319.7872	1364.7257	1395.2855	1418.2324	1427.9146	1486.5585	1487.1688	1495.3062	1515.0114	2965.798	3029.7925	3036.9861	3056.2518	3078.8457	3090.9962	3108.6925	3119.9538	3124.655	3171.831	3824.8487
CC12CC(O)C3CN1C23	C[C@@]12C[C@@H](O)[C@H]3CN1[C@@H]23	
InChI=1S/C7H11NO/c1-7-2-5(9)4-3-8(7)6(4)7/h4-6,9H,2-3H2,1H3	InChI=1S/C7H11NO/c1-7-2-5(9)4-3-8(7)6(4)7/h4-6,9H,2-3H2,1H3/t4-,5-,6-,7+,8?/m1/s1
