16
gdb 47780	2.67698	1.49669	1.03547	3.7243	71.89	-0.2398	0.0175	0.2573	1122.6413	0.124445	-437.873672	-437.86542	-437.864476	-437.906947	30.746	
O	-0.0502205927	-0.0808120389	 0.00226099	-0.357888
C	-0.0624458558	 1.1307485207	 0.0468179727	 0.388301
N	-1.2067444265	 1.8691336275	 0.0072647939	-0.330592
C	-1.2912518491	 3.316836838	 0.1280447294	-0.157563
C	 0.0350174215	 3.9207910162	-0.3105532435	-0.070903
O	 1.0940404306	 3.3215126713	 0.4092609237	-0.259237
C	 1.2582929186	 1.9488394476	 0.0650802615	-0.163067
C	 2.2250868739	 1.3546105169	 0.9772773611	 0.328485
C	 3.033132433	 0.8784389892	 1.7252507258	-0.425701
H	-2.0543642015	 1.3199512724	 0.0248495017	 0.253581
H	-2.1043166993	 3.6882936274	-0.5061699902	 0.116462
H	-1.5057565184	 3.6156421275	 1.1632674432	 0.12336
H	 0.1740802751	 3.7862262163	-1.3956947519	 0.102057
H	 0.0656752231	 4.9895798754	-0.0856992816	 0.122411
H	 1.6476434763	 1.8746278623	-0.9669004703	 0.128816
H	 3.7413688612	 0.4476357801	 2.3890099346	 0.201478
51.9248	140.7769	142.8312	228.6451	337.5541	375.1123	428.7561	440.7028	489.8236	546.9781	579.5681	626.2882	670.1305	675.6878	681.7666	861.1678	906.9142	956.5457	982.2259	1061.9327	1092.687	1132.8919	1141.0336	1262.4796	1276.0855	1297.4133	1325.8549	1353.449	1392.5617	1411.2668	1477.8581	1494.7754	1517.3848	1803.8375	2253.7755	2939.6059	2978.157	3010.8687	3062.8281	3105.6153	3505.5712	3603.8119
O=C1NCCOC1C#C	O=C1NCCO[C@H]1C#C	
InChI=1S/C6H7NO2/c1-2-5-6(8)7-3-4-9-5/h1,5H,3-4H2,(H,7,8)	InChI=1S/C6H7NO2/c1-2-5-6(8)7-3-4-9-5/h1,5H,3-4H2,(H,7,8)/t5-/m0/s1
