20
gdb 87767	3.55903	1.24416	1.07882	2.4512	79.77	-0.2311	0.0724	0.3035	1181.9599	0.169746	-403.085769	-403.077033	-403.076089	-403.118659	34.273	
C	 0.1535805485	 1.4348817744	 0.2052839161	-0.486399
C	-0.0106788877	-0.0370599043	-0.0248051182	 0.352589
C	-0.894181197	-0.9050089744	 0.7761994319	-0.284522
N	 0.5791502628	-1.087980388	 0.9186322595	-0.223057
C	 0.9681805826	-1.8576211851	-0.2965050192	 0.339154
C	 2.2469782764	-2.6474589117	-0.2903409278	-0.41044
C	 0.9026752737	-3.3502444355	-0.2605593824	 0.083992
O	 0.4420563173	-3.9812684623	 0.8968665215	-0.436701
C	 0.4747657829	-0.7888910686	-1.2719361018	-0.407486
H	 1.1643491299	 1.7656509329	-0.0555009025	 0.125331
H	-0.555941389	 2.0021714953	-0.4088083923	 0.124005
H	-0.0279914324	 1.6870246697	 1.253940903	 0.130088
H	-1.346724685	-0.4736187302	 1.6641314789	 0.117787
H	-1.4719756096	-1.697052667	 0.3060277561	 0.124561
H	 2.8355674479	-2.6908845556	-1.2019159329	 0.111438
H	 2.8216298577	-2.6313699625	 0.6307730458	 0.123173
H	 0.5912726467	-3.8934124052	-1.148090323	 0.103142
H	 0.436023607	-3.318843731	 1.5993427518	 0.296779
H	-0.2881411275	-1.0653483195	-2.0063866987	 0.10453
H	 1.2946618449	-0.2770653914	-1.7829219057	 0.112036
105.8711	138.6376	189.215	210.1232	293.7927	322.2172	346.4023	399.6621	423.7038	443.2179	501.8321	616.1661	673.4478	754.7264	799.6308	810.5271	864.8844	870.2981	945.3075	954.1166	991.7898	1012.952	1022.4581	1037.4195	1088.0621	1097.5707	1111.6389	1125.7525	1141.3102	1177.1126	1204.037	1226.252	1298.3998	1307.2478	1360.3902	1378.1863	1422.4653	1429.8317	1481.0793	1486.2528	1489.4255	1493.5852	1513.644	3028.9757	3046.4382	3091.5594	3099.5911	3108.8999	3113.8488	3119.0741	3153.0852	3200.3264	3212.0895	3775.3975
CC12CN1C1(CC1O)C2	C[C@]12CN1[C@]1(C[C@H]1O)C2	
InChI=1S/C7H11NO/c1-6-3-7(2-5(7)9)8(6)4-6/h5,9H,2-4H2,1H3	InChI=1S/C7H11NO/c1-6-3-7(2-5(7)9)8(6)4-6/h5,9H,2-4H2,1H3/t5-,6+,7-,8?/m1/s1
