17
gdb 89245	3.04855	1.62216	1.27852	2.1392	66.97	-0.2407	0.0641	0.3048	982.4208	0.136264	-458.897616	-458.890399	-458.889455	-458.928996	29.5	
O	-0.0332708803	 1.4164230092	-0.0443233115	-0.437806
C	 0.0326106409	-0.0004284373	-0.0013653147	 0.092874
C	 0.5967990468	-0.5673863661	 1.3401093707	-0.328635
C	-0.6442025582	-1.2597052147	 1.865599368	 0.458609
O	-0.5489292054	-1.8855062871	 3.0878213178	-0.491972
C	-1.4039621153	-1.9467718122	 0.6753731573	-0.036589
O	-2.6915524028	-1.6870935658	 1.3470735975	-0.344574
C	-1.9235721972	-0.4310824001	 1.4900436527	-0.013932
C	-1.3938646743	-0.5360804218	 0.0394698474	-0.041838
H	 0.8659888283	 1.7590272661	-0.0585022882	 0.285551
H	 0.5858326202	-0.388092668	-0.8684904003	 0.071113
H	 1.4265035592	-1.2671310044	 1.2016548157	 0.107282
H	 0.9289608492	 0.2406522621	 1.9983047929	 0.110938
H	-1.422837804	-2.2695267437	 3.2522141989	 0.288085
H	-1.2593047709	-2.9253837788	 0.2156101585	 0.091389
H	-2.4021154224	 0.4034978739	 2.0011271366	 0.098542
H	-2.072498244	-0.3211762414	-0.7826191994	 0.090963
113.7319	250.0436	287.5859	302.9957	382.9619	407.4939	473.5096	528.489	543.2145	679.7786	703.1091	706.6868	768.9331	812.0758	867.3803	899.9663	900.6323	916.1484	988.0711	1022.8159	1046.9599	1058.2191	1113.135	1122.032	1146.8122	1165.61	1184.6331	1209.0347	1228.7447	1241.6399	1268.9588	1310.2926	1338.1826	1370.0732	1424.6106	1434.1752	1489.2146	2997.1158	3054.542	3102.9904	3110.8098	3129.376	3158.2897	3734.3118	3817.5687
OC1CC2(O)C3OC2C13	O[C@H]1C[C@]2(O)[C@H]3O[C@@H]2[C@@H]13	
InChI=1S/C6H8O3/c7-2-1-6(8)4-3(2)5(6)9-4/h2-5,7-8H,1H2	InChI=1S/C6H8O3/c7-2-1-6(8)4-3(2)5(6)9-4/h2-5,7-8H,1H2/t2-,3-,4-,5+,6-/m0/s1
