20
gdb 93888	2.07059	1.57178	1.05176	3.6576	75.98	-0.2345	-0.0272	0.2073	1190.7756	0.170419	-440.287139	-440.277903	-440.276959	-440.321488	33.963	
C	-0.0986801324	 1.2106039452	-0.4861040776	-0.332098
N	-0.1184842808	-0.1807425905	-0.0712867147	-0.088534
C	-1.4633650567	-0.69239548	 0.2320161169	-0.152956
C	-1.2180113467	-1.9539649903	 1.0936241643	-0.264947
C	 0.3133520356	-1.9903379181	 1.3015456379	 0.126615
O	 0.9660841908	-2.8259822602	 0.3585364236	-0.439942
C	 0.7031632275	-0.5066538399	 1.091585614	-0.081722
C	 2.1887537925	-0.3398458521	 0.824307105	 0.168961
O	 2.9823285628	 0.0101051961	 1.6579818916	-0.254645
H	 0.9228294766	 1.524242526	-0.7219361841	 0.128944
H	-0.7040077364	 1.3346313037	-1.3895014443	 0.12566
H	-0.4959367071	 1.8922014158	 0.2883749717	 0.10338
H	-2.0504357125	 0.0516297504	 0.7984775467	 0.088393
H	-2.0078780572	-0.893928708	-0.6963534992	 0.108221
H	-1.7420329314	-1.881114985	 2.0499110967	 0.111815
H	-1.5380192305	-2.8782519528	 0.6078088139	 0.118272
H	 0.6071665407	-2.3604700471	 2.2849650951	 0.100716
H	 0.769007403	-2.4553672914	-0.5114189137	 0.28208
H	 0.4523374091	 0.0831117101	 1.9926662283	 0.071532
H	 2.4979863031	-0.584720882	-0.2147131519	 0.080255
71.3635	89.2671	112.9934	199.9998	246.0571	259.0508	302.7926	341.4316	417.3153	474.8212	488.4401	518.493	625.3524	750.5738	811.8879	851.3931	907.7393	922.5402	983.7253	1008.5523	1040.685	1051.0221	1100.9421	1124.4576	1151.6087	1191.4858	1210.6482	1220.6793	1249.1881	1265.5907	1278.9567	1316.8926	1322.3684	1338.909	1384.1957	1412.9599	1434.4608	1463.3585	1486.0426	1489.2523	1502.0188	1528.2791	1835.6512	2897.5828	2935.9106	2941.2249	2949.1413	3058.2266	3065.0482	3069.8998	3106.4535	3108.9456	3119.6404	3769.6372
CN1CCC(O)C1C=O	CN1CC[C@@H](O)[C@H]1C=O	
InChI=1S/C6H11NO2/c1-7-3-2-6(9)5(7)4-8/h4-6,9H,2-3H2,1H3	InChI=1S/C6H11NO2/c1-7-3-2-6(9)5(7)4-8/h4-6,9H,2-3H2,1H3/t5-,6-/m1/s1
