17
gdb 42419	4.65761	0.80407	0.73594	3.4146	75.57	-0.2456	-0.0641	0.1814	1502.3467	0.133522	-421.778335	-421.76911	-421.768166	-421.814082	32.06	
O	-0.0652988799	-0.0333043764	-0.4434555442	-0.289207
C	-0.0317452824	 1.1465840394	-0.1656263328	 0.229209
C	 1.2640916001	 1.8937346445	 0.1041454794	-0.336778
C	 2.4815208437	 0.98419446	 0.0746207131	-0.021893
C	 2.9253812257	 0.4323557498	-1.2978189258	-0.068924
O	 4.2191499673	 1.0644692614	-1.1844580566	-0.272491
C	 3.8700613562	 1.663516787	 0.0772613948	-0.10083
C	-1.243989704	 1.9440105536	-0.0766797103	 0.245109
C	-2.2331197328	 2.6254260194	 0.0023979452	-0.37778
H	 1.3477143856	 2.694846576	-0.644579846	 0.139143
H	 1.1676939163	 2.4100800651	 1.0690601626	 0.134474
H	 2.3782578848	 0.2019577648	 0.82871512	 0.095921
H	 3.0010457236	-0.6571634126	-1.3756299614	 0.113048
H	 2.3585496517	 0.8095406941	-2.159278372	 0.09778
H	 3.8540573498	 2.7613363433	 0.0217252945	 0.093964
H	 4.5525949398	 1.3621047156	 0.8812435456	 0.102482
H	-3.1185012656	 3.210498815	 0.0672203841	 0.216772
34.8151	66.2617	79.5893	119.6279	188.8386	244.3235	330.7399	355.4584	466.7611	580.2662	607.2073	648.2565	708.3352	766.4099	832.5998	877.8871	896.0679	899.4283	981.8457	1034.0291	1041.3229	1097.7212	1107.5274	1148.4229	1156.4057	1164.152	1236.41	1261.2092	1311.4322	1333.7521	1376.4209	1404.5024	1443.996	1514.1288	1538.6055	1764.7094	2211.8554	2995.9892	3012.6625	3017.693	3044.1088	3046.4006	3068.1362	3098.896	3494.0463
O=C(CC1COC1)C#C	O=C(CC1COC1)C#C	
InChI=1S/C7H8O2/c1-2-7(8)3-6-4-9-5-6/h1,6H,3-5H2	InChI=1S/C7H8O2/c1-2-7(8)3-6-4-9-5-6/h1,6H,3-5H2
