21
gdb 121870	2.49166	1.09009	0.85364	4.7993	76.88	-0.2415	-0.0292	0.2123	1432.1421	0.178853	-461.373369	-461.362542	-461.361598	-461.410046	38.116	
C	 0.1891813694	 1.7328966684	 0.3483167205	-0.407696
C	-0.1087311971	 0.3114401253	-0.1459254388	 0.020618
O	 0.3344923564	 0.2219521673	-1.4711313473	-0.249251
C	-0.2635290964	-0.7937176408	-2.2771397108	-0.095747
C	 0.8152758188	-1.3711621119	-3.1800871069	-0.038397
O	 1.7521419206	-2.1454179768	-2.4726142483	-0.434038
C	 0.5857686436	-0.7303258187	 0.7538454766	 0.375134
C	 0.119077488	-0.8192025511	 2.1946302916	-0.480176
O	 1.4770338791	-1.4340536973	 0.3347177031	-0.293183
H	 1.2643747954	 1.9273710338	 0.2999763379	 0.141909
H	-0.3193767281	 2.4515904197	-0.2979694578	 0.137808
H	-0.1527674817	 1.8825318495	 1.3753565808	 0.121975
H	-1.1956830909	 0.1329948486	-0.0765124387	 0.082617
H	-0.6786470261	-1.5959597335	-1.6530981103	 0.099696
H	-1.0798177916	-0.3551924362	-2.8711865264	 0.091654
H	 0.3451776729	-2.0198568409	-3.9299696828	 0.094511
H	 1.2920053206	-0.5353609453	-3.7202874338	 0.087431
H	 1.902931476	-1.7135140107	-1.6179400732	 0.300892
H	-0.9618076905	-0.6755110822	 2.283702473	 0.13505
H	 0.4087111035	-1.7847591565	 2.6115561532	 0.15337
H	 0.6031490281	-0.0311934608	 2.7831267984	 0.155823
55.7819	61.3749	96.3716	124.5247	165.7489	187.2562	204.8214	256.9768	290.7787	339.2233	417.7907	437.7074	519.135	547.735	584.1792	633.7512	750.4171	844.2571	892.6453	937.569	961.1048	972.6782	1050.3895	1101.1626	1108.5239	1122.4366	1146.3037	1167.7227	1210.6628	1255.9244	1279.2072	1308.5707	1361.7212	1383.3764	1391.3673	1399.7078	1418.5809	1461.6715	1463.8725	1474.9735	1486.6752	1498.5933	1503.2141	1505.512	1805.0767	2956.6551	2962.1441	2986.9401	3041.3741	3044.3971	3049.6838	3051.6618	3106.0257	3129.0615	3135.0831	3151.4044	3705.7124
CC(OCCO)C(C)=O	C[C@@H](OCCO)C(=O)C	
InChI=1S/C6H12O3/c1-5(8)6(2)9-4-3-7/h6-7H,3-4H2,1-2H3	InChI=1S/C6H12O3/c1-5(8)6(2)9-4-3-7/h6-7H,3-4H2,1-2H3/t6-/m1/s1
