17
gdb 103040	2.42763	1.64973	1.1546	2.743	72.79	-0.2545	0.0115	0.266	1063.3223	0.136953	-417.934139	-417.92608	-417.925135	-417.966928	30.562	
O	 0.0451587459	 1.5312426932	-0.0538582717	-0.412846
C	 0.051991396	 0.1369062571	 0.1771130716	-0.158719
C	-1.3524041137	-0.4744467407	 0.0212642544	 0.174094
C	-2.2267014178	 0.1612059538	 1.0086319648	 0.211266
N	-2.8614091384	 0.7083367598	 1.8069678986	-0.346897
C	-2.0173777114	-0.6985708115	-1.3913662641	-0.048781
C	-1.0495939505	-1.8831582178	-1.6347874216	-0.22676
C	-1.6040348964	-2.0175268096	-0.1940363238	-0.073622
N	-2.9638233175	-1.7271624879	-0.7994720481	-0.326898
H	-0.454999239	 1.9525919422	 0.6547250671	 0.300487
H	 0.7392311891	-0.2855011435	-0.5569755259	 0.124252
H	 0.4407918337	-0.1123564617	 1.175948229	 0.109674
H	-2.3513687409	 0.0727661778	-2.084449268	 0.108063
H	-1.4314799465	-2.6317768731	-2.3268194064	 0.125944
H	 0.008885467	-1.6793811819	-1.7780666402	 0.109624
H	-1.4495053207	-2.814879252	 0.5335426211	 0.101379
H	-3.5742378988	-1.2871271643	-0.1039000667	 0.22974
79.1813	143.2068	158.6357	206.3388	308.9962	380.0161	403.1704	486.9627	520.514	545.1724	647.8344	671.5919	788.4443	813.1421	874.4995	884.4014	918.3704	966.4579	1029.1141	1045.0811	1065.0455	1081.2487	1094.5524	1143.7978	1165.1443	1171.0705	1188.5703	1207.5105	1241.5319	1280.3644	1295.094	1310.9519	1384.3844	1419.6464	1491.7736	1514.4461	2336.7618	2994.9515	3106.0398	3116.3792	3123.8558	3131.5723	3186.462	3396.2311	3796.9809
OCC1(C#N)C2CC1N2	OC[C@@]1(C#N)[C@H]2C[C@@H]1N2	
InChI=1S/C6H8N2O/c7-2-6(3-9)4-1-5(6)8-4/h4-5,8-9H,1,3H2	InChI=1S/C6H8N2O/c7-2-6(3-9)4-1-5(6)8-4/h4-5,8-9H,1,3H2/t4-,5+,6+
