19
gdb 72254	2.34388	1.8097	1.4883	2.2749	74.95	-0.2102	0.0818	0.292	1003.1582	0.158629	-422.990595	-422.982428	-422.981483	-423.022868	31.597	
C	-0.0072586202	 1.4795841355	-0.0341404173	-0.505268
C	-0.024468113	-0.011115453	 0.0138716396	 0.398683
O	 0.8503198031	-0.7240059626	-0.8709803857	-0.339693
C	-0.0244273782	-1.8893664279	-0.7776222966	 0.015794
C	 0.5670962557	-2.7966619914	 0.289335183	-0.079717
O	 0.5602192183	-1.9841955759	 1.4711696606	-0.2696
C	-0.3079061437	-0.9021588149	 1.2202141288	-0.013222
C	-1.1136900732	-1.069917994	-0.0387794646	 0.152823
C	-2.5984941297	-1.0782404503	-0.2402796719	-0.519985
H	 0.981385891	 1.8585930465	 0.2472266231	 0.138325
H	-0.240232245	 1.8447928626	-1.0397216947	 0.128982
H	-0.7403443136	 1.8942036524	 0.6644026187	 0.123325
H	-0.2375579727	-2.3366700001	-1.7501805166	 0.084097
H	-0.0369255226	-3.7062882151	 0.4367838663	 0.08964
H	 1.5993386562	-3.079069097	 0.0623589067	 0.118628
H	-0.7380487103	-0.471890919	 2.1179552041	 0.102056
H	-3.0808852291	-0.3173899742	 0.381756106	 0.125008
H	-2.8671540157	-0.8737161807	-1.2827859085	 0.124624
H	-3.0325325675	-2.0471266209	 0.0344493388	 0.125499
160.6409	169.6367	185.366	217.7608	241.7819	282.404	304.0575	437.5148	559.116	594.9497	632.3759	735.8055	758.5689	779.5518	858.0987	901.43	917.3001	954.0772	966.9981	983.7336	1007.3918	1037.9095	1098.486	1105.5855	1114.6171	1168.9436	1184.3197	1219.4705	1238.3622	1272.3024	1296.3996	1320.1328	1367.445	1408.3369	1415.6554	1471.7178	1482.6256	1486.9241	1494.2327	1499.1288	1510.4745	2978.6907	3021.7708	3032.1347	3081.0809	3086.0457	3096.6359	3097.5914	3103.2118	3111.2467	3180.1577
CC12OC3COC1C23C	C[C@@]12O[C@H]3CO[C@@H]1[C@@]23C	
InChI=1S/C7H10O2/c1-6-4-3-8-5(6)7(6,2)9-4/h4-5H,3H2,1-2H3	InChI=1S/C7H10O2/c1-6-4-3-8-5(6)7(6,2)9-4/h4-5H,3H2,1-2H3/t4-,5+,6-,7+/m0/s1
