21
gdb 105170	1.70322	1.29048	0.82275	1.9318	89.09	-0.2339	0.048	0.2819	1490.0775	0.179805	-387.05781	-387.046871	-387.045927	-387.095115	38.58	
C	 0.1029567351	 1.5032331834	-0.0210794437	-0.502084
C	 0.0604697235	 0.0472926165	-0.0309220869	 0.071287
C	 0.0015490755	-1.1581260304	-0.0274125	-0.006884
C	 0.0110777893	-2.5977457257	-0.0718034207	 0.125687
C	 1.0857917381	-3.1625090748	-0.9946689027	-0.120256
O	 2.3945093951	-2.7953942118	-0.6031422567	-0.418139
C	-0.3140303651	-3.3722472681	 1.1983583933	-0.315718
C	-1.2950835063	-3.3755688928	 0.0596831842	-0.027606
C	-2.6280554927	-2.6730974404	 0.1715093116	-0.415707
H	 0.745047224	 1.883141055	 0.7815464819	 0.148113
H	 0.4879621524	 1.896709964	-0.9684217909	 0.148726
H	-0.8969850135	 1.9259451831	 0.1271201117	 0.150415
H	 1.0530288894	-4.2566562881	-0.9673181308	 0.099823
H	 0.8752872186	-2.8463382656	-2.028871292	 0.089374
H	 2.399848316	-1.8341929437	-0.5223958374	 0.283762
H	 0.2742181374	-4.2619611746	 1.3959737445	 0.120135
H	-0.5664930787	-2.792147944	 2.0791075769	 0.118578
H	-1.3183293595	-4.2872584247	-0.5334431211	 0.087328
H	-2.5376554601	-1.7453395918	 0.7429404615	 0.126487
H	-3.0260874143	-2.4169335774	-0.8162216963	 0.119686
H	-3.3616810942	-3.3125975481	 0.6742887537	 0.116997
24.2195	71.4672	96.6858	114.496	163.0351	195.3145	239.2337	270.9785	310.2773	344.5277	375.8207	400.5633	453.878	529.2863	566.0184	653.7802	793.4099	862.6354	905.6101	931.9191	946.2025	1020.8537	1051.8181	1053.7125	1061.871	1066.266	1078.9148	1109.2234	1135.0984	1192.127	1211.9583	1245.4728	1359.654	1373.8072	1401.9524	1415.4813	1424.0255	1431.3716	1477.349	1479.7759	1482.5312	1492.3312	1500.0122	1506.4715	2353.8322	2975.4099	3025.0131	3032.5721	3070.8153	3084.2729	3086.7966	3092.8667	3110.4282	3131.7468	3133.3531	3221.2188	3785.4311
CC#CC1(CO)CC1C	CC#C[C@@]1(CO)C[C@H]1C	
InChI=1S/C8H12O/c1-3-4-8(6-9)5-7(8)2/h7,9H,5-6H2,1-2H3	InChI=1S/C8H12O/c1-3-4-8(6-9)5-7(8)2/h7,9H,5-6H2,1-2H3/t7-,8+/m1/s1
