19
gdb 114216	2.79489	1.19118	1.02482	3.1291	71.23	-0.2518	0.0554	0.3073	1218.9977	0.157969	-460.116351	-460.107313	-460.106368	-460.150292	33.942	
O	 0.3883369593	 1.0915943772	-0.6726397213	-0.423548
C	 0.0449264249	-0.2540087308	-0.3771133298	-0.069766
C	-1.3260868212	-0.3751604295	 0.2798623924	-0.069593
C	-2.5310245864	-0.2218654965	-0.710758695	-0.338869
C	-2.6691641713	-1.7425032802	-0.6990212612	 0.378856
C	-3.5872542602	-2.6975139721	-1.3094802712	-0.26586
O	-2.2553959342	-2.5122366116	-1.8321041255	-0.280118
C	-1.7807909567	-1.8582706962	 0.5454664666	 0.067892
O	-0.8421195923	-2.8956939125	 0.5347043331	-0.432078
H	-0.2383367258	 1.4202941033	-1.3249698259	 0.280883
H	 0.0939818643	-0.883863099	-1.2791109682	 0.091209
H	 0.8126930885	-0.6184648975	 0.3109808121	 0.124911
H	-1.3597014437	 0.2798963586	 1.1536662177	 0.078733
H	-3.3929652584	 0.2908867157	-0.2763040936	 0.114569
H	-2.3193048488	 0.2115270365	-1.6930118548	 0.107195
H	-3.7646674525	-3.6581991097	-0.8284600117	 0.125897
H	-4.3850423722	-2.3469011999	-1.9621475881	 0.123682
H	-2.3620487747	-1.9278032342	 1.4717106305	 0.091318
H	-0.7754618586	-3.1849189717	-0.386575906	 0.294688
61.9434	110.747	165.7751	216.1173	247.3451	280.9462	325.9254	345.5085	409.6651	456.8961	493.9508	584.6804	650.9896	776.2954	792.8389	828.2231	872.4689	903.0433	929.1868	959.4178	1042.1447	1074.3752	1082.7849	1115.9344	1131.9816	1143.4543	1167.835	1181.288	1203.5902	1217.9314	1256.8685	1271.4903	1318.8761	1346.2651	1393.0508	1417.2275	1424.9673	1445.8498	1473.8	1504.2921	1530.9232	2984.5168	3044.6921	3054.5511	3080.4177	3087.2577	3095.2303	3109.7321	3175.8943	3735.5995	3815.6263
OCC1CC2(CO2)C1O	OC[C@H]1C[C@]2(CO2)[C@H]1O	
InChI=1S/C6H10O3/c7-2-4-1-6(3-9-6)5(4)8/h4-5,7-8H,1-3H2	InChI=1S/C6H10O3/c7-2-4-1-6(3-9-6)5(4)8/h4-5,7-8H,1-3H2/t4-,5+,6+/m1/s1
