17
gdb 84535	2.46917	1.52936	1.24891	4.4811	74.2	-0.2274	-0.0146	0.2128	1047.4642	0.13594	-421.81984	-421.811858	-421.810914	-421.852465	30.389	
O	 0.0646283745	 1.399918471	-0.14485914	-0.421308
C	 0.071947159	-0.0222550457	-0.0387683165	 0.056703
C	 0.6922883715	-0.5362656524	 1.2533024257	-0.114041
C	-0.1718875171	-1.2580177046	 1.9669158343	-0.082095
C	-1.5001040213	-1.3523274241	 1.2850524071	-0.111256
C	-2.2931979472	-0.0452774096	 1.1276113963	-0.1102
C	-2.0597896574	 1.1707950377	 1.9521456143	 0.166185
O	-2.948199534	 1.943724296	 2.2253242515	-0.281657
C	-1.36058898	-0.5475089929	 0.0270877724	-0.072487
H	 0.9770421354	 1.7044797134	-0.1895408064	 0.286518
H	 0.5794752236	-0.4523974371	-0.9172692369	 0.080223
H	 1.7044088506	-0.2807038238	 1.5483546433	 0.099029
H	 0.022608984	-1.7059032239	 2.9348158656	 0.108986
H	-2.0726804027	-2.2715881568	 1.3316022685	 0.102688
H	-3.3469724962	-0.1737962772	 0.8996173584	 0.109366
H	-1.0303266941	 1.3246752772	 2.321951978	 0.080758
H	-1.8407524086	-0.8446112571	-0.8964397856	 0.102587
79.4299	157.28	179.7942	256.6717	277.7197	304.2863	405.6623	477.061	512.7758	604.6704	717.7642	747.3566	783.136	817.723	843.5157	915.0531	942.2486	966.4844	982.7119	999.1209	1038.7926	1063.9825	1075.7674	1097.4498	1114.5817	1138.6497	1215.235	1219.6034	1304.8219	1325.4023	1336.6614	1363.4883	1390.2345	1414.7432	1449.4828	1672.7515	1802.9612	2965.9834	2969.4452	3162.5433	3175.823	3184.0192	3194.5725	3209.6964	3813.6121
OC1C=CC2C(C=O)C12	O[C@H]1C=C[C@H]2[C@@H](C=O)[C@@H]12	
InChI=1S/C7H8O2/c8-3-5-4-1-2-6(9)7(4)5/h1-7,9H	InChI=1S/C7H8O2/c8-3-5-4-1-2-6(9)7(4)5/h1-7,9H/t4-,5+,6-,7-/m0/s1
