18
gdb 54175	2.13357	1.25717	1.08617	3.8119	74.4	-0.2515	-0.0399	0.2116	1222.7396	0.14381	-439.08939	-439.079433	-439.078489	-439.124898	35.018	
C	 0.2178463945	 1.2600084978	-0.4557323441	-0.477086
C	-0.1084059856	 0.1190914229	 0.4833968597	 0.334104
O	 0.5453675342	-0.1141403457	 1.4741894115	-0.298024
C	-1.3547790954	-0.716190294	 0.2049766928	 0.192771
C	-2.1815946925	-0.9891748272	 1.4473054573	-0.46262
N	-1.996376509	-0.5174935773	-1.087672538	-0.366241
C	-1.3247012162	-1.8085019565	-0.8463911338	-0.141006
C	-0.1310608797	-2.1205975021	-1.6826917949	 0.172133
O	 0.2364243503	-3.2457946188	-1.9068020835	-0.252208
H	 1.1713978124	 1.7024430993	-0.1663811588	 0.141512
H	 0.2342045486	 0.9439838033	-1.5004466091	 0.153788
H	-0.575970014	 2.0135923871	-0.3846892295	 0.147571
H	-2.6034022144	-0.0571464742	 1.8394854283	 0.131221
H	-3.005320473	-1.6747040027	 1.2279244417	 0.117659
H	-1.5512787999	-1.4240631371	 2.2252327373	 0.163526
H	-3.0052083487	-0.6295186047	-1.0214550869	 0.245421
H	-1.9249024674	-2.6857555024	-0.6149295828	 0.111923
H	 0.3981886156	-1.2373089977	-2.0987518073	 0.085558
53.0179	84.6984	98.9298	150.607	193.6369	208.4432	259.2452	297.6128	347.8769	419.3325	442.9581	517.1371	527.763	617.5225	655.1071	807.4661	863.7774	959.6666	972.7155	987.5699	1023.0338	1048.3095	1058.9962	1069.5077	1127.9829	1174.5372	1221.3011	1268.3906	1354.7514	1377.6833	1388.7428	1406.0031	1449.1149	1453.4264	1464.1077	1480.5443	1501.4324	1800.9846	1823.947	2912.3759	3038.8611	3044.675	3104.6106	3116.3826	3140.4122	3143.1454	3165.2113	3501.595
CC(=O)C1(C)NC1C=O	CC(=O)[C@@]1(C)N[C@H]1C=O	
InChI=1S/C6H9NO2/c1-4(9)6(2)5(3-8)7-6/h3,5,7H,1-2H3	InChI=1S/C6H9NO2/c1-4(9)6(2)5(3-8)7-6/h3,5,7H,1-2H3/t5-,6+/m0/s1
