16
gdb 127518	3.15988	1.44696	0.99862	1.8351	78.	-0.194	-0.0515	0.1425	1130.4353	0.125752	-434.085481	-434.077495	-434.076551	-434.117961	30.409	
C	 0.005761738	 1.404835334	-0.0318380281	-0.302821
N	 0.0214213716	-0.0479548777	-0.0000966421	-0.04681
N	-0.0124151734	-0.6687139291	-1.2031363514	-0.321344
C	 0.0000411387	-1.9613654586	-1.2239377485	 0.429132
O	-0.0332758837	-2.5998369345	-2.4184861462	-0.421168
C	 0.0476950477	-2.7703788941	-0.0431198946	-0.176205
C	 0.0810612866	-2.1388036218	 1.1474919871	-0.142303
C	 0.0694612817	-0.6853753955	 1.239335939	 0.377073
N	 0.0977901734	 0.045661529	 2.302528971	-0.580274
H	 0.8997927188	 1.8014410509	 0.458312241	 0.147503
H	-0.0323143007	 1.7111038733	-1.0757208642	 0.134455
H	-0.8612405164	 1.7837279306	 0.5173168593	 0.147503
H	-0.0626252867	-1.9163632601	-3.1015422994	 0.303019
H	 0.0554900038	-3.8496736682	-0.1389019673	 0.127533
H	 0.1178699084	-2.6901207197	 2.0807468398	 0.118903
H	 0.1314585921	-0.5468431283	 3.1294086447	 0.205804
90.193	148.9578	183.7114	320.187	321.9625	361.5227	378.4432	474.9708	489.2863	533.7321	585.6919	593.3724	719.9192	738.396	760.252	822.3632	858.6891	955.1978	998.1221	1036.2704	1103.0905	1151.185	1168.3641	1198.5874	1257.145	1323.6445	1358.7896	1415.5213	1443.1692	1466.058	1493.179	1506.1726	1597.9368	1628.5905	1707.4727	3047.8478	3103.8279	3172.9728	3190.2719	3211.0274	3502.7918	3779.7885
CN1N=C(O)C=CC1=N	CN1N=C(O)CC=C1[NH]	
InChI=1S/C5H7N3O/c1-8-4(6)2-3-5(9)7-8/h2-3,6H,1H3,(H,7,9)	InChI=1S/C5H8N3O/c1-8-4(6)2-3-5(9)7-8/h2,6H,3H2,1H3,(H,7,9)
