15
gdb 29680	2.43175	2.01197	1.1086	3.1173	70.52	-0.2456	-0.0387	0.2069	1017.2445	0.115743	-450.205196	-450.19747	-450.196526	-450.237713	28.449	
C	-0.009005218	 1.4561667948	-0.012370314	-0.333493
N	-0.0080075412	-0.0064193655	-0.0127776971	-0.187797
C	-1.2133674119	-0.6617099476	-0.1288514788	 0.50683
O	-2.2992794885	-0.1359753451	-0.2330229882	-0.394883
N	-1.0814058105	-2.0557252421	-0.1167040285	-0.366899
C	 0.1275595344	-2.6748559288	-0.0002768271	 0.103068
N	 1.2486427786	-2.0669998356	 0.1076348038	-0.31544
C	 1.2385788326	-0.6656846668	 0.1066665911	 0.421335
N	 2.2866809711	 0.051164369	 0.2071197818	-0.54675
H	 0.600371672	 1.8238530189	-0.8405266082	 0.150395
H	-1.040015336	 1.7881188253	-0.1111591134	 0.160918
H	 0.4318421176	 1.8232942467	 0.9167474039	 0.150382
H	-1.9430477708	-2.5726915373	-0.1993700936	 0.278828
H	 0.0981027658	-3.7627403664	-0.003129234	 0.143074
H	 3.0911248348	-0.5690944396	 0.2842796824	 0.230433
84.8833	144.3267	151.9759	222.0355	353.0776	407.5587	429.0207	526.9862	547.0517	578.3383	588.8795	712.0422	757.0369	770.6432	879.2196	903.7854	982.5284	982.6255	1048.928	1133.1881	1162.693	1190.5037	1223.2902	1321.1949	1409.7683	1421.835	1455.2297	1485.1489	1485.23	1510.7495	1699.0482	1713.2618	1823.3176	3067.399	3130.8385	3156.9979	3187.9538	3513.1679	3643.6489
CN1C(=O)NC=NC1=N	CN1C(=O)N[CH]N=C1[NH]	
InChI=1S/C4H6N4O/c1-8-3(5)6-2-7-4(8)9/h2H,1H3,(H2,5,6,7,9)	InChI=1S/C4H6N4O/c1-8-3(5)6-2-7-4(8)9/h2H,1H3,(H2,5,6,7,9)
