13
gdb 25189	2.5418	1.85172	1.21701	3.2711	70.31	-0.2551	-0.0893	0.1658	964.3716	0.089785	-452.754441	-452.747167	-452.746223	-452.786817	26.495	
N	-0.0508617435	 1.2249503505	-0.3043861815	-0.428205
C	-0.0244236384	-0.0215590854	-0.0555175356	 0.138189
C	 1.2084215561	-0.8323113551	 0.1510378378	-0.082013
N	 1.514854572	-1.9122172018	-0.4573531826	-0.190198
C	 0.6540878443	-2.5147663548	-1.3616968269	-0.061538
C	-0.6884808096	-2.5091517607	-1.3803970206	 0.047988
O	-1.5536044537	-1.9072210385	-0.5181094838	-0.213235
C	-1.3545026173	-0.7213915532	 0.1513665992	 0.412645
O	-2.2050159943	-0.3188724794	 0.8813074058	-0.277039
H	 0.9013601818	 1.6007900817	-0.36102385	 0.239447
H	 1.9265528988	-0.4275575028	 0.8676010814	 0.14008
H	 1.1425030896	-3.1402666286	-2.1015235888	 0.128985
H	-1.2319210858	-3.1109614119	-2.0991162644	 0.144893
61.0095	107.6142	255.3212	310.5248	347.004	395.994	433.8515	543.2818	625.8058	666.0579	749.4457	793.7401	840.6188	879.1103	902.4963	936.6292	944.7197	989.5135	1041.2018	1124.6277	1167.041	1324.9717	1347.2137	1383.2901	1433.2084	1637.7339	1672.7811	1702.6544	1869.1402	3107.1326	3185.0486	3214.721	3417.5642
N=C1C=NC=COC1=O	[NH][C]1C=NC=COC1=O	
InChI=1S/C5H4N2O2/c6-4-3-7-1-2-9-5(4)8/h1-3,6H	InChI=1S/C5H4N2O2/c6-4-3-7-1-2-9-5(4)8/h1-3,6H
