19
gdb 63499	1.96264	1.68222	1.07238	2.3233	84.45	-0.2478	-0.031	0.2168	1176.5081	0.155223	-385.866161	-385.856252	-385.855308	-385.900184	37.116	
C	 0.0760198542	 1.5065950397	 0.0640751785	-0.468471
C	 0.060732824	-0.0080848944	 0.0031351852	 0.291046
C	-1.2186835538	-0.5846842071	-0.5715878346	-0.450616
C	 1.331208608	-0.7440156912	-0.2218075857	-0.345415
C	 0.7175834342	-0.8261190837	 1.1832948028	 0.001664
C	 1.4294114922	-0.0828203716	 2.2705722502	 0.090805
O	 2.2508455222	 0.7849513118	 2.0929789544	-0.269217
C	 0.0893926946	-2.0386820373	 1.6240859196	 0.239126
C	-0.4159204001	-3.0439298089	 2.0514969775	-0.425051
H	 0.994395017	 1.8935702846	 0.5044946783	 0.158621
H	-0.0118875656	 1.9053128159	-0.9531455877	 0.120325
H	-0.7754348005	 1.8843355112	 0.6406133259	 0.118991
H	-1.3542781424	-0.2198941656	-1.5960761582	 0.121671
H	-1.2059531579	-1.6757150206	-0.5941553035	 0.132715
H	-2.0890337496	-0.2686118058	 0.0130548821	 0.125557
H	 1.3151440208	-1.65967136	-0.80205143	 0.128147
H	 2.2533272049	-0.1734483646	-0.261887062	 0.143151
H	 1.1417803759	-0.4042296474	 3.2929613142	 0.091924
H	-0.862190088	-3.9364418949	 2.4146037929	 0.195028
117.5542	136.4672	158.7887	178.9186	209.6759	215.2356	261.4377	316.7357	365.4234	385.6063	423.9676	522.4917	535.2495	556.641	580.0089	662.8181	672.114	718.9926	822.7114	928.4037	942.4258	978.693	1011.7925	1034.1319	1051.0868	1081.3722	1135.6678	1168.5117	1216.574	1306.0095	1357.9147	1412.0982	1425.7715	1426.9452	1469.7251	1483.4017	1487.0463	1509.1377	1512.3259	1799.3064	2229.2609	2919.2074	3032.107	3037.0777	3088.5292	3095.502	3132.1341	3134.3948	3155.8191	3229.9041	3501.7737
CC1(C)CC1(C=O)C#C	CC1(C)C[C@]1(C=O)C#C	
InChI=1S/C8H10O/c1-4-8(6-9)5-7(8,2)3/h1,6H,5H2,2-3H3	InChI=1S/C8H10O/c1-4-8(6-9)5-7(8,2)3/h1,6H,5H2,2-3H3/t8-/m0/s1
