17
gdb 125312	3.44872	1.14493	0.86881	4.7354	80.85	-0.2522	-0.0396	0.2125	1305.1523	0.135354	-418.06062	-418.051732	-418.050788	-418.094469	31.634	
C	 0.0025762932	 1.5599380404	-0.0023477857	-0.507551
C	 0.0107498177	 0.0643837815	-0.0232868594	 0.10981
C	-0.0028351382	-0.7721702692	-1.101058243	-0.089741
N	 0.0126166018	-2.0628703084	-0.6186515149	-0.024539
C	 0.0060832826	-3.2217325436	-1.3993753059	 0.190384
O	 0.0196684978	-4.342773062	-0.979412685	-0.265331
N	 0.035771158	-2.0918146419	 0.7437245002	-0.296584
C	 0.0348445513	-0.8237444667	 1.108799677	 0.316877
C	 0.0570704378	-0.4432035958	 2.5533092113	-0.493487
H	 0.8864724175	 1.9596656015	 0.507998173	 0.135886
H	-0.0107515121	 1.9710400025	-1.0150104871	 0.129511
H	-0.8744122654	 1.9499905077	 0.5271299042	 0.135962
H	-0.0217202457	-0.5730489103	-2.1615702018	 0.146185
H	-0.0134133036	-2.9560687174	-2.4734912289	 0.09288
H	 0.9374865953	 0.1653654304	 2.7893889901	 0.133301
H	-0.8245166183	 0.1507141539	 2.8203593199	 0.13339
H	 0.0753596402	-1.3399697426	 3.1747801159	 0.153046
99.7629	110.1725	128.6827	190.6797	216.3026	226.3651	275.4615	349.6959	412.0098	513.8755	623.9835	628.8797	692.7445	727.7842	796.8833	831.6235	987.8757	1006.5051	1022.0576	1040.422	1051.0959	1076.64	1182.9162	1201.7982	1292.9133	1377.6619	1404.8129	1418.4299	1423.8705	1456.1581	1475.7962	1478.4616	1484.8894	1500.391	1520.6589	1645.6562	1848.6105	2958.3227	3028.4638	3033.0605	3077.5075	3082.9979	3115.2451	3142.0628	3253.4111
CC1=CN(C=O)N=C1C	Cc1cn(C=O)nc1C	
InChI=1S/C6H8N2O/c1-5-3-8(4-9)7-6(5)2/h3-4H,1-2H3	InChI=1S/C6H8N2O/c1-5-3-8(4-9)7-6(5)2/h3-4H,1-2H3
