19
gdb 94401	2.53638	1.4679	1.21242	1.2069	76.13	-0.2493	-0.0297	0.2196	1112.6581	0.157857	-423.019074	-423.010356	-423.009411	-423.052703	32.43	
C	-0.2119020167	 1.4678696073	-0.0377425609	-0.39034
C	 0.0410929027	-0.0348987328	-0.1057163727	-0.06509
C	 1.3336413646	-0.4490238944	-0.8714102495	-0.223208
C	 2.0747140156	-0.5880336926	 0.4871393778	-0.297235
C	 0.6985432614	-0.6110179377	 1.185799394	 0.336965
O	 0.5073072905	 0.0350355905	 2.4613283145	-0.327187
C	-0.0358444003	-1.1415251533	 3.0976560834	-0.200006
C	 0.1562063817	-1.9079051013	 1.7821594691	 0.285416
O	-0.0326058195	-3.0192214033	 1.3889953681	-0.28683
H	 0.692282372	 2.0173264843	 0.2435503422	 0.121177
H	-0.5430696403	 1.8396126989	-1.012941794	 0.116131
H	-0.9822451741	 1.7040483037	 0.7016722563	 0.126588
H	-0.8705713168	-0.5567726054	-0.4124564509	 0.081679
H	 1.2239454914	-1.4081615887	-1.3814737684	 0.118583
H	 1.7329350124	 0.2841388124	-1.5757556913	 0.102801
H	 2.7228433854	-1.4541760103	 0.6377531707	 0.111932
H	 2.619008	 0.3181456332	 0.764815314	 0.123218
H	 0.5704253636	-1.4907279907	 3.9423762796	 0.133138
H	-1.0764235636	-1.0153732896	 3.421519518	 0.132269
79.2471	98.7974	138.359	208.6443	221.3441	255.7751	355.3337	399.6342	497.7306	539.1836	563.0463	712.5134	734.8254	790.6096	866.9663	882.103	908.6151	939.4013	953.5862	1004.9853	1018.9803	1045.3817	1073.1891	1096.6509	1138.4909	1156.0006	1181.8692	1209.0203	1217.7266	1253.4077	1272.9486	1294.9619	1297.7068	1350.4523	1409.9293	1470.7016	1482.3748	1490.3099	1493.0277	1495.634	1914.6632	3020.5938	3035.7851	3052.8001	3065.0693	3069.4201	3071.1992	3103.8993	3113.3429	3114.4396	3130.5864
CC1CCC11OCC1=O	C[C@H]1CC[C@]21OCC2=O	
InChI=1S/C7H10O2/c1-5-2-3-7(5)6(8)4-9-7/h5H,2-4H2,1H3	InChI=1S/C7H10O2/c1-5-2-3-7(5)6(8)4-9-7/h5H,2-4H2,1H3/t5-,7+/m0/s1
