20
gdb 94093	4.40775	0.89426	0.77343	3.0229	86.89	-0.2126	-0.0014	0.2112	1488.0517	0.17182	-403.199571	-403.190528	-403.189583	-403.234	33.475	
C	-0.0477774774	 1.6166245523	 0.018018516	-0.392845
C	 0.0077430952	 0.0847548319	 0.0289001509	 0.010326
C	 0.728216369	-0.522043599	-1.2063483495	-0.227276
C	 1.490491194	-1.7697710102	-0.7004222734	-0.29467
C	 1.5873363045	-1.506660223	 0.7858564378	 0.41891
N	 2.3906512826	-2.265455566	 1.6449622621	-0.392421
C	 3.2037357378	-3.3244201416	 1.3356312037	 0.1447
O	 3.3775636823	-3.8059255221	 0.2394955132	-0.306494
C	 0.7897588124	-0.5065038741	 1.1791631471	-0.221896
H	 0.9613834014	 2.042324861	-0.0098119479	 0.113094
H	-0.5942394842	 1.9827601645	-0.8579098979	 0.112406
H	-0.5520583849	 2.0044790141	 0.9098405536	 0.10863
H	-1.029876997	-0.2840270912	 0.0704815601	 0.074217
H	 0.0408801786	-0.7516637635	-2.0246310432	 0.096963
H	 1.4494273408	 0.2104127733	-1.5863088877	 0.101658
H	 0.940558402	-2.7013583921	-0.8825165243	 0.118858
H	 2.4660580256	-1.9032430072	-1.170065249	 0.132141
H	 2.3626732438	-2.0072943641	 2.6207596982	 0.250739
H	 3.7048648631	-3.7063263976	 2.2474839988	 0.07929
H	 0.6680990903	-0.1736045252	 2.2053537215	 0.073669
41.8461	106.4745	146.9272	172.7735	243.3749	266.7388	306.2643	380.0914	463.7136	506.914	560.8241	606.9102	618.1105	812.4566	837.2323	842.1097	850.9553	908.7771	939.1329	968.3724	1002.7021	1020.4117	1048.0276	1104.1473	1120.7591	1136.8067	1202.7647	1217.6713	1261.9681	1292.8048	1313.3175	1320.9888	1363.2744	1379.8301	1408.5583	1448.377	1478.7949	1495.7015	1497.4254	1500.4969	1516.9268	1711.5815	1812.1117	2934.0048	2963.8097	3024.9534	3036.5406	3042.5632	3093.2369	3095.1025	3098.5044	3117.3043	3173.3793	3605.3907
CC1CCC(NC=O)=C1	C[C@H]1CCC(=C1)NC=O	
InChI=1S/C7H11NO/c1-6-2-3-7(4-6)8-5-9/h4-6H,2-3H2,1H3,(H,8,9)	InChI=1S/C7H11NO/c1-6-2-3-7(4-6)8-5-9/h4-6H,2-3H2,1H3,(H,8,9)/t6-/m0/s1
