14
gdb 44732	2.5126	1.70323	1.20294	6.4397	65.24	-0.2909	-0.0163	0.2746	992.6573	0.101886	-436.702956	-436.695763	-436.694818	-436.73521	26.535	
O	-0.4389755496	 0.2104925721	 0.2566825185	-0.305206
C	-0.1430414951	 1.3086132187	-0.0735840319	 0.471715
O	-0.8850500321	 2.1982962489	-0.8267131459	-0.248587
C	 0.1755149351	 3.1994783867	-0.7953359872	 0.112288
C	-0.0051090308	 4.1893917911	 0.3723839787	-0.261994
C	 0.9126093529	 3.2780142549	 1.26686422	-0.16557
C	 0.3859460482	 2.8002529035	 2.5339515111	 0.292885
N	-0.0431403667	 2.4389174774	 3.5444750271	-0.315113
C	 1.0454396357	 2.2615702732	 0.0759716075	-0.251439
H	 0.4241783081	 3.5508949272	-1.7941334339	 0.115255
H	 0.4224324727	 5.178495569	 0.2028628222	 0.132676
H	-1.0382238032	 4.2882385335	 0.7054329929	 0.151959
H	 1.8760198161	 3.7591050608	 1.4495999081	 0.144579
H	 2.0349522986	 1.878805763	-0.1608860572	 0.126552
78.7372	107.7169	205.0086	270.2095	377.8098	466.1937	524.1282	538.099	621.9698	711.9109	777.3693	824.0122	873.5232	879.4339	920.2579	971.7348	1007.9802	1035.8793	1070.8712	1096.7699	1124.888	1174.6422	1190.7286	1229.9426	1273.7752	1284.1618	1319.1675	1346.105	1467.8444	1950.5443	2359.796	3087.1605	3092.9771	3145.5308	3156.3459	3159.4315
O=C1OC2CC(C#N)C12	O=C1O[C@H]2C[C@@H](C#N)[C@@H]12	
InChI=1S/C6H5NO2/c7-2-3-1-4-5(3)6(8)9-4/h3-5H,1H2	InChI=1S/C6H5NO2/c7-2-3-1-4-5(3)6(8)9-4/h3-5H,1H2/t3-,4-,5+/m0/s1
