16
gdb 125914	4.54745	1.29183	1.05458	5.8759	70.74	-0.2145	-0.0041	0.2104	1102.2781	0.126779	-434.055672	-434.048405	-434.047461	-434.087802	27.613	
C	 0.1900390535	 1.5126815546	 0.1014461736	-0.398338
C	 0.0556589534	 0.0082242249	-0.0210162134	 0.130719
C	 0.7567491323	-0.6125229103	-1.2972479507	-0.396346
C	 1.4378654069	-1.7673793802	-0.6457795662	 0.260821
C	 1.3407488739	-1.6722193273	 0.7106324596	 0.404804
O	 0.6386413741	-0.6130452757	 1.1739740814	-0.283511
N	 2.0093621294	-2.6601465165	 1.3282809708	-0.30321
N	 2.5490535192	-3.4016520128	 0.3797632712	-0.128115
N	 2.2141863644	-2.8592066095	-0.8181845605	-0.317369
H	 1.244651342	 1.8035574358	 0.1212862565	 0.132095
H	-0.2924856107	 2.0055723107	-0.7487794877	 0.122273
H	-0.2838405221	 1.8669747059	 1.0204014171	 0.139536
H	-1.0013514128	-0.2826118757	-0.0265752164	 0.102228
H	 0.0148815211	-0.8743522896	-2.0575066317	 0.128478
H	 1.4601871127	 0.0977552219	-1.7510988748	 0.125724
H	 2.5367797227	-3.3138804061	-1.6566148989	 0.280209
53.8552	198.5624	240.8853	277.0205	330.7062	437.3062	479.0955	538.3393	590.5523	696.599	730.1397	742.3007	784.8961	828.3772	892.0506	932.3823	1027.2002	1037.9111	1057.9205	1100.1125	1126.4831	1183.7521	1197.4811	1224.246	1272.7396	1343.025	1366.2466	1377.2373	1408.9752	1430.4185	1483.2596	1494.7071	1498.6013	1555.0679	1632.9609	3017.4218	3034.3619	3042.4247	3076.3289	3115.3947	3127.0522	3665.1103
CC1CC2=C(O1)N=NN2	C[C@H]1Cc2c(O1)nn[nH]2	
InChI=1S/C5H7N3O/c1-3-2-4-5(9-3)7-8-6-4/h3H,2H2,1H3,(H,6,7,8)	InChI=1S/C5H7N3O/c1-3-2-4-5(9-3)7-8-6-4/h3H,2H2,1H3,(H,6,7,8)/t3-/m0/s1
