19
gdb 50535	2.62619	1.22813	0.96952	3.7349	75.82	-0.2414	-0.0272	0.2142	1256.6394	0.158115	-422.992218	-422.983358	-422.982414	-423.027168	31.719	
O	-0.3318034033	 0.2572722234	-0.16150865	-0.240032
C	 0.027612824	 1.3462712985	 0.1996345665	 0.142522
C	 1.3924197498	 1.9435415015	-0.0697579023	 0.029795
O	 2.33363617	 1.0277381946	-0.6281978548	-0.266997
C	 2.3644812753	 1.7319450602	-1.8868322616	-0.084066
C	 1.4698482377	 2.8690272231	-1.3365313074	-0.077414
C	 0.2144427331	 3.214740135	-2.0869442702	 0.011904
C	-0.5267173449	 4.4977629646	-1.792586175	-0.273795
C	 0.226173588	 4.3446875492	-3.0888192799	-0.282082
H	-0.6490614875	 2.0311646042	 0.7641476918	 0.071978
H	 1.7562828622	 2.4058779985	 0.8601683543	 0.090558
H	 3.3838324649	 2.0087622077	-2.1772462293	 0.106527
H	 1.9049299804	 1.1445981465	-2.6915366452	 0.11177
H	 2.0388067326	 3.7773898314	-1.1212889689	 0.084417
H	-0.4021379227	 2.3584200896	-2.3476887979	 0.106107
H	-1.6103338429	 4.4806981457	-1.8197012884	 0.120654
H	-0.1120576248	 5.1634077195	-1.042422046	 0.113371
H	 1.1471849276	 4.9058665227	-3.2092807897	 0.114869
H	-0.3407959995	 4.2220462641	-4.0045476958	 0.119914
49.3483	68.667	81.4355	160.9164	239.8361	251.7415	300.0856	385.8656	479.3865	691.5977	758.8489	764.4869	804.7036	834.2402	886.9236	915.2352	923.2491	951.1683	1001.2072	1008.1453	1032.6762	1060.6892	1071.2686	1084.1444	1116.9536	1143.7586	1160.4557	1186.1985	1200.2092	1224.7081	1247.822	1256.5198	1307.3846	1337.8869	1367.5253	1417.0824	1438.1266	1471.882	1507.2814	1524.7868	1837.4088	2848.5147	2995.2176	3020.9567	3062.052	3078.1089	3131.5689	3136.2315	3143.106	3210.9249	3225.7211
O=CC1OCC1C1CC1	O=C[C@H]1OC[C@H]1C1CC1	
InChI=1S/C7H10O2/c8-3-7-6(4-9-7)5-1-2-5/h3,5-7H,1-2,4H2	InChI=1S/C7H10O2/c8-3-7-6(4-9-7)5-1-2-5/h3,5-7H,1-2,4H2/t6-,7+/m0/s1
