18
gdb 73330	2.76573	2.00781	1.40498	3.4573	75.49	-0.2449	-0.0238	0.2211	945.0491	0.149138	-401.891996	-401.884952	-401.884008	-401.922996	28.739	
C	 0.0711556472	 1.4952256767	-0.0484271406	-0.484136
C	-0.0717223834	-0.0079115564	 0.0436655439	 0.279904
C	-0.4405208836	-0.7359822625	-1.2984291251	-0.13542
O	-1.416627023	-1.7835744386	-0.9600728856	-0.256241
C	-0.9113908547	-2.0160124594	 0.2986984399	 0.255863
N	 0.0163186714	-2.8569824243	 0.5086471391	-0.21247
C	 0.9721662154	-2.171069545	 1.4087373535	-0.19013
C	 0.5700911546	-0.6896476144	 1.3239090566	-0.113115
C	-0.8967911045	-0.7014906041	 1.0732273831	-0.182185
H	 0.9488161488	 1.7757582422	-0.6422545332	 0.12648
H	-0.8088166258	 1.9449029313	-0.5228723693	 0.124026
H	 0.1842331436	 1.9472612331	 0.941102908	 0.123676
H	-0.9382133142	-0.0395734309	-1.978544078	 0.118702
H	 0.4121358538	-1.2109931875	-1.7932759381	 0.125169
H	 0.9356904093	-2.5215321712	 2.449910053	 0.11277
H	 1.9747127651	-2.3903850036	 1.0252416661	 0.120494
H	 1.0205536069	 0.0166975493	 2.0147963261	 0.08727
H	-1.7222743466	-0.3189923246	 1.6608197705	 0.099343
197.9408	208.278	240.1513	300.0334	333.0972	435.3095	508.9132	542.2184	629.9223	681.3685	753.4737	789.917	840.1391	863.4521	882.5886	913.5103	935.6477	957.3867	989.9611	1005.7613	1023.6988	1047.4684	1093.4083	1119.1627	1134.2108	1192.3665	1198.1087	1222.6807	1262.1188	1275.5533	1313.0653	1333.3069	1400.5164	1417.9693	1482.7439	1488.4746	1494.3269	1499.1455	1663.4761	3010.4205	3024.6372	3048.0536	3064.4063	3083.1821	3105.5133	3111.6268	3159.488	3185.6072
CC12COC3=NCC1C23	C[C@@]12CO[C]3[N]C[C@@H]1[C@@H]23	
InChI=1S/C7H9NO/c1-7-3-9-6-5(7)4(7)2-8-6/h4-5H,2-3H2,1H3	InChI=1S/C7H9NO/c1-7-3-9-6-5(7)4(7)2-8-6/h4-5H,2-3H2,1H3/t4-,5-,7-/m1/s1
