13
gdb 49123	3.75607	1.23862	0.98538	1.5491	67.37	-0.2614	-0.1175	0.1438	1106.015	0.088442	-456.565698	-456.558445	-456.557501	-456.597887	26.368	
O	 0.0154778057	-0.0534761703	-0.0059152327	-0.250389
C	 0.0200587802	 1.1514254236	 0.0936197428	 0.088904
C	 1.2522418464	 1.9568106527	 0.0560472963	 0.247411
C	 1.3283545569	 3.2979843176	 0.127757225	-0.303317
C	 2.7526588031	 3.7464779941	-0.0181905298	 0.431442
O	 3.1508263182	 4.8782500359	-0.1209652893	-0.300033
C	 3.584093862	 2.4663945319	-0.0768423407	-0.102782
O	 3.4279163212	 1.6783577747	 1.1154356528	-0.239964
C	 2.6297066249	 1.3533866823	-0.0356305904	-0.071544
H	-0.9182475036	 1.7327268474	 0.2120926698	 0.092671
H	 0.507438135	 3.9928327467	 0.2574621542	 0.144346
H	 4.5569972097	 2.4510575917	-0.5561752485	 0.127535
H	 2.7927196703	 0.3792514118	-0.4803145996	 0.135722
87.7003	165.4106	185.0564	223.6514	330.9483	403.7363	496.7067	562.3924	630.5567	712.7744	739.93	831.5852	842.534	862.0328	900.6095	927.4577	1018.3624	1041.3516	1080.7554	1147.685	1177.6396	1233.2221	1274.2061	1340.5155	1394.8772	1417.4577	1650.7529	1786.6874	1832.7159	2917.1271	3183.0934	3204.7826	3217.04
O=CC1=CC(=O)C2OC12	O=CC1=CC(=O)[C@H]2O[C@@H]12	
InChI=1S/C6H4O3/c7-2-3-1-4(8)6-5(3)9-6/h1-2,5-6H	InChI=1S/C6H4O3/c7-2-3-1-4(8)6-5(3)9-6/h1-2,5-6H/t5-,6+/m0/s1
