15
gdb 57040	2.57174	1.33007	0.91949	4.3503	66.71	-0.2803	-0.0006	0.2797	1191.6855	0.112153	-453.938604	-453.929975	-453.929031	-453.972702	30.491	
O	-0.0317808624	 1.4241737657	-0.0417357457	-0.409892
C	 0.052060169	 0.0103740146	-0.042014753	-0.029994
C	 0.7381087825	-0.4816837453	-1.2512615461	 0.277477
N	 1.3087060599	-0.8052564936	-2.2019552864	-0.309416
C	 0.7251994495	-0.5155448934	 1.2341969932	-0.156051
C	-0.0106597284	-0.1868478955	 2.5489395381	-0.106843
O	-0.2219610685	-1.6134154826	 2.7925227233	-0.248821
C	 0.4234771562	-1.954724324	 1.6216760433	 0.428131
N	 0.6408063071	-3.0652070454	 1.089153384	-0.523311
H	 0.8502133654	 1.7842692452	-0.1925058356	 0.300035
H	-0.9845188433	-0.3432503303	-0.0693984709	 0.150334
H	 1.790960963	-0.2747424732	 1.229830877	 0.122585
H	 0.5912448735	 0.2620771377	 3.3411393844	 0.130355
H	-0.9596499923	 0.3429623975	 2.4415602514	 0.138078
H	 0.2645885789	-3.8355223574	 1.6440244529	 0.237334
58.6343	96.5159	128.5424	195.9767	223.8037	299.0592	314.8882	376.1775	490.8594	515.7197	593.8842	653.5006	750.0993	849.4625	873.9314	937.372	960.2683	975.0471	1005.6282	1059.6749	1085.7284	1130.1878	1157.1266	1205.8009	1228.9884	1258.4312	1291.0189	1355.3955	1380.5898	1418.4609	1519.3843	1830.4799	2362.0219	3061.1736	3073.9538	3092.2589	3135.2391	3484.0943	3800.1437
OC(C#N)C1COC1=N	O[C@@H](C#N)[C@H]1CO[C]1[NH]	
InChI=1S/C5H6N2O2/c6-1-4(8)3-2-9-5(3)7/h3-4,7-8H,2H2	InChI=1S/C5H6N2O2/c6-1-4(8)3-2-9-5(3)7/h3-4,7-8H,2H2/t3-,4+/m1/s1
