17
gdb 27944	3.589	1.12495	0.86105	3.624	86.59	-0.2516	-0.0598	0.1918	1303.8478	0.136841	-384.781389	-384.773197	-384.772253	-384.815299	29.978	
C	-0.0190400664	 1.5241238447	 0.0004670573	-0.492679
C	 0.0115222451	 0.0153111911	-0.0000412137	 0.322322
C	-0.0266317603	-0.7132864651	-1.1882582607	-0.297607
C	 0.0019111778	-2.1108231237	-1.1839998678	 0.222878
C	-0.040300212	-2.8466860096	-2.4666183678	 0.097645
O	-0.0206888306	-4.0509356459	-2.5749103954	-0.272352
C	 0.0699772972	-2.8052501305	 0.0276675647	-0.20055
C	 0.1085784025	-2.0930463946	 1.2184549048	-0.089419
C	 0.0795540046	-0.6989670295	 1.2018555869	-0.186086
H	 0.8757580531	 1.9404012168	 0.4763552001	 0.136123
H	-0.0726654055	 1.9217066652	-1.01615716	 0.126684
H	-0.8837918168	 1.9047369144	 0.5552240035	 0.136117
H	-0.0796530549	-0.1895270877	-2.1399421469	 0.098194
H	-0.0936714108	-2.1922314894	-3.3665127147	 0.067449
H	 0.0910397093	-3.8888563178	 0.0069655289	 0.126359
H	 0.1614657512	-2.6184561164	 2.1663005655	 0.105703
H	 0.1103230364	-0.1532688321	 2.1409562155	 0.099218
27.44	110.3687	194.6041	218.8324	247.4229	336.1608	439.2001	445.449	523.54	527.5618	667.1134	710.3232	784.9532	816.6914	905.7088	924.3363	943.5326	986.3281	1010.8624	1016.2055	1045.4695	1065.9952	1111.5427	1180.6539	1189.2909	1267.6767	1321.9634	1353.2147	1415.7163	1419.1868	1461.259	1485.6041	1501.0047	1519.9726	1621.9826	1646.9234	1798.4949	2871.239	3033.395	3087.5693	3117.1397	3155.238	3164.9157	3186.6521	3207.639
CC1=CC(C=O)=CC=C1	Cc1cc(C=O)ccc1	
InChI=1S/C8H8O/c1-7-3-2-4-8(5-7)6-9/h2-6H,1H3	InChI=1S/C8H8O/c1-7-3-2-4-8(5-7)6-9/h2-6H,1H3
