15
gdb 129396	4.59823	1.0457	0.85746	4.1114	71.21	-0.2271	-0.0227	0.2044	1271.4174	0.114012	-450.132739	-450.124401	-450.123457	-450.166013	31.429	
N	-0.1050312378	 1.3106383613	 0.2953883615	-0.525142
C	 0.0637891992	-0.0267892493	 0.05149323	 0.277386
N	 1.2269403065	-0.5183252113	-0.164594336	-0.530413
C	-1.199219998	-0.8147914314	 0.0893500682	 0.396084
N	-2.3536087994	-0.1880409215	 0.0300239948	-0.234243
O	-3.3259264145	-1.1990456418	 0.0672575735	-0.21638
C	-2.7113193768	-2.3890931448	 0.1511557707	 0.502562
N	-3.5320932829	-3.4803035373	 0.2629137385	-0.595492
C	-1.3538998784	-2.2241438926	 0.166780468	-0.477579
H	 0.6727177048	 1.9017978482	 0.0496415341	 0.256239
H	-1.0317740053	 1.6904468907	 0.1896925876	 0.271775
H	 1.1742502485	-1.5254536121	-0.2962559769	 0.212736
H	-4.472463631	-3.3352543864	-0.0754372594	 0.271483
H	-3.1301579229	-4.3544215471	-0.0385608731	 0.270385
H	-0.596150472	-2.9836405046	 0.2489805786	 0.120602
44.1638	145.0318	185.8628	271.6931	322.098	362.2241	400.8747	418.5861	479.6218	524.222	554.0581	618.1501	634.6273	703.8733	734.1008	749.0573	787.5103	823.5472	942.1617	1004.3503	1029.3407	1079.1945	1114.2152	1149.7451	1185.1129	1343.3749	1410.4615	1506.88	1524.1304	1618.8608	1620.1228	1672.6882	1713.8196	3282.824	3517.5416	3578.3791	3590.9522	3685.0026	3717.0665
NC(=N)C1=NOC(N)=C1	NC(=N)c1noc(N)c1	
InChI=1S/C4H6N4O/c5-3-1-2(4(6)7)8-9-3/h1H,5H2,(H3,6,7)	InChI=1S/C4H6N4O/c5-3-1-2(4(6)7)8-9-3/h1H,5H2,(H3,6,7)
