23
gdb 77695	2.42307	1.3784	1.17246	1.6056	85.82	-0.2201	0.0814	0.3015	1222.0781	0.203006	-388.276641	-388.266707	-388.265763	-388.311078	38.43	
C	-0.4845423049	 1.3033707268	 0.0132634358	-0.417589
C	-0.1033405552	-0.1693637512	-0.0131567057	-0.175376
C	 0.7735732093	-0.6875254955	-1.1497521232	 0.469652
C	 0.4174126677	-1.3237204125	-2.4495457277	-0.340968
C	 1.1933094187	-0.0113829337	-2.4172291513	-0.33765
O	 1.7272975497	-1.2715312164	-0.2678321788	-0.354576
C	 1.0441603348	-0.7147928313	 0.9017663908	 0.42007
C	 1.9356284854	 0.3171858212	 1.5813905738	-0.428487
C	 0.6344589181	-1.8277639479	 1.8553273124	-0.432953
H	 0.378440513	 1.9551837775	-0.1465052303	 0.122586
H	-1.214821121	 1.5242842583	-0.7731648053	 0.116557
H	-0.9445769538	 1.5749818964	 0.9694157005	 0.116206
H	-1.0042137183	-0.780472732	 0.1075489852	 0.075508
H	 0.9646955658	-2.2191323494	-2.7249207198	 0.121136
H	-0.6188102591	-1.3076527591	-2.7736820502	 0.10939
H	 0.6861405661	 0.8989224141	-2.7213818075	 0.109905
H	 2.2477983078	-0.0503202608	-2.6690544546	 0.120478
H	 2.2734046736	 1.0789226012	 0.8749192801	 0.121375
H	 1.4119636111	 0.8137554466	 2.4054280496	 0.111722
H	 2.8224489767	-0.1769235579	 1.9908909275	 0.121382
H	 1.5185002017	-2.3211730067	 2.2724621913	 0.120732
H	 0.0433230362	-1.4272282437	 2.6866579136	 0.111763
H	 0.0369486564	-2.5809031038	 1.3344148339	 0.119139
39.6429	193.093	197.3507	206.5851	224.3195	231.8175	259.6432	293.8474	332.3436	393.0774	415.5642	471.9898	528.8658	552.2036	711.098	755.3686	764.9299	861.1761	865.68	895.8006	928.2802	936.749	974.3477	979.9817	995.2775	1043.9741	1051.4223	1065.0371	1088.5555	1132.2658	1154.8221	1187.3292	1205.9169	1259.2757	1269.4374	1288.8075	1358.4597	1397.5275	1405.6631	1408.3809	1417.0136	1447.5358	1472.0639	1481.8817	1485.5273	1497.9268	1499.5106	1503.0213	1511.4086	3029.9091	3032.5218	3037.7531	3043.8969	3092.4076	3098.6367	3106.4493	3112.1536	3115.1634	3122.319	3124.7538	3125.6946	3205.5752	3220.1513
CC1C2(CC2)OC1(C)C	C[C@H]1C2(CC2)OC1(C)C	
InChI=1S/C8H14O/c1-6-7(2,3)9-8(6)4-5-8/h6H,4-5H2,1-3H3	InChI=1S/C8H14O/c1-6-7(2,3)9-8(6)4-5-8/h6H,4-5H2,1-3H3/t6-/m1/s1
