15
gdb 45668	3.42996	1.75662	1.34893	2.9404	73.05	-0.2241	-0.035	0.1891	910.3687	0.114963	-416.737406	-416.730952	-416.730008	-416.768095	26.148	
O	-0.0551222376	-0.0712867613	-0.2535092193	-0.345783
C	-0.0745075718	 1.1190429564	-0.0472612048	 0.396076
N	-1.2551918793	 1.8696074093	-0.1210856947	-0.32586
C	-1.2291855272	 3.0832824826	 0.562072525	-0.048028
C	-0.1177119707	 3.8345740291	 0.4602317089	 0.019559
C	 0.7892940724	 3.9820500715	 1.6759648296	-0.177782
N	 1.7838867464	 3.0816212067	 0.9632262001	-0.153257
C	 1.0902658716	 3.3402021728	-0.3330354478	-0.106042
C	 1.2039334	 1.9371717602	 0.0857739331	-0.114674
H	-2.1014573286	 1.3269639391	-0.217217899	 0.25756
H	-1.9528761182	 3.2254561072	 1.3620519125	 0.116988
H	 1.3034065639	 4.9410443156	 1.7905705967	 0.124923
H	 0.4222125116	 3.6278028959	 2.6427268362	 0.11518
H	 1.5709257671	 3.8172439225	-1.1805197587	 0.108698
H	 2.0549920806	 1.3403342624	-0.2234136178	 0.132444
122.145	261.0509	344.6694	418.0279	448.8363	495.2703	528.8651	608.6968	653.4819	728.4086	769.9341	782.5128	820.1986	872.7027	885.0666	916.9462	931.1357	1004.0071	1032.3363	1068.902	1087.1703	1135.8544	1160.4671	1186.5855	1256.8584	1266.4371	1297.0132	1346.3081	1367.9391	1425.8429	1504.1137	1664.6823	1809.5888	3048.9752	3110.2213	3140.8814	3165.388	3185.4907	3609.9319
O=C1NC=C2CN3C2C13	O=C1N[CH][C]2CN3[C@H]2[C@H]13	
InChI=1S/C6H6N2O/c9-6-5-4-3(1-7-6)2-8(4)5/h1,4-5H,2H2,(H,7,9)	InChI=1S/C6H6N2O/c9-6-5-4-3(1-7-6)2-8(4)5/h1,4-5H,2H2,(H,7,9)/t4-,5-,8?/m1/s1
