17
gdb 18436	2.9677	2.05384	1.56639	1.5419	73.78	-0.2303	0.0303	0.2606	875.352	0.141694	-326.643824	-326.636202	-326.635258	-326.675308	29.432	
C	-0.3058583723	 1.5422215205	-0.0196882283	-0.423852
C	 0.0014779242	 0.0509724819	 0.024369098	 0.018666
C	 1.10451431	-0.5879985831	-0.8674081818	-0.192759
N	 1.7041885612	-1.327087785	 0.3076115833	-0.149482
C	 2.214204517	-0.2863000122	 1.2442182802	-0.196979
C	 2.872381948	 0.914700064	 0.8120455702	 0.353175
C	 3.4923781467	 1.890644072	 0.4779475988	-0.453384
C	 0.7517594153	-0.5638680409	 1.2068340125	-0.056991
H	 0.5951438462	 2.1449673331	 0.1095169597	 0.138077
H	-0.7614538967	 1.8113378853	-0.9790656961	 0.11393
H	-1.014938643	 1.8151193761	 0.7697491786	 0.115318
H	-0.926816219	-0.5124942785	-0.1143526545	 0.087606
H	 0.7356807659	-1.3046342396	-1.6026069815	 0.111264
H	 1.8046258439	 0.099971956	-1.3492479761	 0.118635
H	 2.7192997563	-0.7671974538	 2.0799526608	 0.120812
H	 4.0262742695	 2.7601028832	 0.1831490024	 0.201042
H	 0.2788302668	-1.0384279991	 2.062948284	 0.094923
137.105	154.7086	211.9092	224.4056	297.1229	393.8768	430.7773	549.3296	600.0019	604.6543	660.8897	707.9326	746.5702	763.3604	869.398	896.624	926.7301	961.4623	981.0181	1055.3846	1069.457	1104.2047	1136.5919	1159.459	1203.7204	1228.9296	1271.1596	1293.4926	1351.8571	1383.0079	1406.3452	1415.4092	1495.0388	1498.5745	1505.5878	2228.4342	3034.0375	3051.3687	3065.1251	3092.2809	3124.6139	3124.9042	3134.8263	3143.0779	3501.586
CC1CN2C(C#C)C12	C[C@H]1CN2[C@@H](C#C)[C@@H]12	
InChI=1S/C7H9N/c1-3-6-7-5(2)4-8(6)7/h1,5-7H,4H2,2H3	InChI=1S/C7H9N/c1-3-6-7-5(2)4-8(6)7/h1,5-7H,4H2,2H3/t5-,6-,7+,8?/m0/s1
