19
gdb 133828	3.13493	1.96124	1.79752	2.9968	82.41	-0.1884	0.0035	0.1919	871.386	0.16006	-348.639712	-348.632753	-348.631809	-348.6704	29.322	
C	 1.3606122095	 0.2188929141	 0.6605770296	-0.521292
C	 2.6714184169	-0.1135221499	 0.0123692604	 0.361039
C	 3.9870380778	 0.4952443603	 0.3757332248	-0.093111
C	 3.360344544	 0.6522273445	-1.1015640713	-0.125621
C	 5.1581225372	-0.154725871	-1.2498544846	-0.143898
C	 3.8555466649	-0.6711098215	-1.7280219927	-0.044865
C	 3.1439064976	-1.4785421335	-0.569546171	-0.147226
C	 4.3171357509	-1.9001451874	 0.323127143	-0.238451
C	 5.0770917766	-0.5597122731	 0.2268101089	-0.051546
H	 1.2945103471	 1.2884913951	 0.8881678931	 0.123119
H	 1.236803227	-0.3291056437	 1.6014776275	 0.127965
H	 0.5189920235	-0.0366477592	 0.007925572	 0.125488
H	 4.0820959771	 1.4094797276	 0.9436455973	 0.106308
H	 3.1563690083	 1.6095316956	-1.5563563459	 0.109346
H	 3.6643034558	-0.8462630416	-2.7803565971	 0.087206
H	 2.3789361682	-2.2085879756	-0.8262870811	 0.064465
H	 4.8898362844	-2.7374736679	-0.0904716637	 0.099899
H	 4.010446258	-2.147263756	 1.3461297774	 0.093084
H	 5.9749137254	-0.4218645966	 0.8233619235	 0.068092
172.5198	213.5687	252.2911	350.6911	381.2154	408.7965	568.9471	656.7235	672.3074	693.8176	769.7234	814.8226	839.6711	869.5731	888.1692	906.1848	924.1298	935.4872	952.1457	960.8445	974.3656	1008.3947	1016.804	1073.5076	1092.7231	1114.2545	1130.3404	1136.4571	1171.9752	1186.544	1207.2548	1232.5368	1242.06	1257.3578	1286.6433	1323.0418	1413.5379	1437.3675	1481.6638	1485.7773	1497.9505	3024.8797	3036.0744	3087.4217	3090.1588	3094.3614	3138.0609	3146.8595	3183.0207	3222.4914	3232.7434
CC12C3C1C1=CC2CC31	C[C@]12[C@@H]3[C@H]1[C@H]1[C][C@@H]3C[C@@H]21	
InChI=1S/C9H10/c1-9-4-2-5-6(3-4)8(9)7(5)9/h2,4,6-8H,3H2,1H3	InChI=1S/C9H10/c1-9-6-3-4-2-5(6)8(9)7(4)9/h4-8H,3H2,1H3/t4-,5+,6-,7+,8-,9+/m1/s1
