25
gdb 106493	2.37041	1.48327	1.11893	0.13	91.96	-0.2819	0.0848	0.3667	1243.1522	0.230691	-352.362002	-352.352976	-352.352032	-352.395208	36.403	
C	-0.1173004502	 1.5529875049	-0.0803249281	-0.391221
C	-0.0075566633	 0.0307960555	 0.062022	-0.292359
C	 0.7206144687	-0.4545248323	 1.3027773063	 0.371688
C	 2.1498977497	 0.0449516879	 1.6952005333	-0.267214
C	 1.754623451	-0.5149982391	 3.0893643478	-0.014466
C	 0.3129103136	-0.0421109274	 2.7559184344	-0.269013
C	 1.6676434593	-2.0265066646	 2.8158705497	-0.234199
C	 0.9135356574	-1.9945667205	 1.443162638	 0.009956
C	-0.3596351236	-2.8387024892	 1.3987278523	-0.422521
H	 0.8691380708	 2.0249980126	-0.1292651205	 0.116424
H	-0.6563276386	 1.8189476496	-0.9949875855	 0.109513
H	-0.6578665998	 1.9974852862	 0.7617137778	 0.116135
H	-1.0171124976	-0.4005398633	 0.0499506752	 0.096899
H	 0.5015386851	-0.3777677237	-0.8227406976	 0.091413
H	 3.0081307104	-0.4015522647	 1.1812030966	 0.080479
H	 2.2353613117	 1.1342037846	 1.6902475046	 0.091102
H	 2.2643824048	-0.1970041553	 3.9995651033	 0.053183
H	 0.1930024566	 1.038395688	 2.8642868715	 0.092354
H	-0.5263723726	-0.5566003032	 3.2340395099	 0.083979
H	 2.6515806461	-2.5006729765	 2.7477002059	 0.089919
H	 1.0947585471	-2.554111759	 3.5860670179	 0.089608
H	 1.5770633264	-2.3376737688	 0.6392741924	 0.06156
H	-1.0864979033	-2.5203395238	 2.1539462006	 0.113374
H	-0.8482342277	-2.7845185744	 0.4202249941	 0.112169
H	-0.1288566621	-3.8920416235	 1.5920469299	 0.111238
84.5337	167.7344	185.06	223.1279	231.8487	282.0052	323.8834	398.6817	422.3404	478.8073	527.8921	592.5822	651.776	764.7073	789.3905	839.3635	848.6557	889.8754	898.9681	929.3162	934.4906	972.6557	983.3601	997.1184	1018.6684	1063.5289	1064.1947	1088.5384	1109.0827	1114.2439	1161.7774	1172.4149	1195.2854	1210.0047	1218.5323	1255.7112	1268.2638	1292.0398	1314.0208	1317.5155	1342.568	1374.5944	1382.2685	1410.5263	1411.9423	1479.5208	1485.8765	1495.3801	1499.1148	1501.4021	1502.0766	1506.5856	1528.1295	3004.0721	3015.7278	3027.5578	3035.3222	3039.2084	3039.4256	3041.1299	3052.2507	3083.0196	3092.1962	3097.4095	3101.4955	3102.7098	3104.9613	3109.3589	3113.8654
CCC12CC(C1)CC2C	CC[C@@]12C[C@@H](C1)C[C@H]2C	
InChI=1S/C9H16/c1-3-9-5-8(6-9)4-7(9)2/h7-8H,3-6H2,1-2H3	InChI=1S/C9H16/c1-3-9-5-8(6-9)4-7(9)2/h7-8H,3-6H2,1-2H3/t7-,8-,9+/m1/s1
