19
gdb 106590	3.30697	1.49176	1.35692	1.1031	78.93	-0.2237	-0.0047	0.219	1026.6746	0.160007	-385.863165	-385.855567	-385.854623	-385.895157	30.831	
C	 0.0426889082	 1.3858775451	-0.0012907584	-0.262788
O	-0.0340705655	-0.0230540618	 0.0076849755	-0.31874
C	-1.3275326682	-0.5576251809	 0.0194986311	 0.381469
C	-1.3560870276	-2.1096441333	 0.0319730674	-0.241579
C	-2.9166633299	-2.13413668	 0.0407999548	-0.128214
C	-3.1458065489	-1.2478716118	 1.282243287	-0.078146
C	-2.2065338487	-0.3042221667	 1.2715792988	-0.140546
C	-3.1596382523	-1.2676094606	-1.2119721364	-0.07815
C	-2.2203086614	-0.3240939792	-1.2267235998	-0.14041
H	 1.1040905996	 1.6445679213	-0.0140547607	 0.128917
H	-0.4345494448	 1.8240377052	-0.889357438	 0.108638
H	-0.4155991924	 1.8343111288	 0.8916159499	 0.108692
H	-0.916061538	-2.5451179359	-0.8683270863	 0.099231
H	-0.9060737142	-2.5308310949	 0.9341346729	 0.099208
H	-3.4075061777	-3.1062855908	 0.0512087432	 0.062958
H	-3.9611889769	-1.3729413926	 1.9823803885	 0.099591
H	-2.0712863267	 0.518534023	 1.95991688	 0.100138
H	-3.9825706845	-1.4038876504	-1.9010929339	 0.099588
H	-2.09228129	 0.4873679154	-1.9297111556	 0.100142
65.2799	185.8946	212.0868	336.97	395.1536	439.599	462.0169	517.7455	559.2271	624.0258	669.0717	713.1095	751.6987	784.66	807.3243	899.4802	905.2628	918.2287	919.6726	941.3625	949.5359	1032.6813	1067.1516	1084.976	1085.1068	1109.2336	1147.8672	1181.6555	1204.5949	1227.3781	1255.1267	1256.0675	1273.4154	1291.9752	1353.3843	1484.6085	1491.2502	1494.2091	1506.8814	1617.6177	1661.0121	2992.388	3040.9555	3062.5496	3116.0297	3123.6261	3127.517	3207.2946	3208.6665	3235.097	3237.4207
COC12CC(C=C1)C=C2	CO[C@@]12C[C@@H](C=C1)C=C2	
InChI=1S/C8H10O/c1-9-8-4-2-7(6-8)3-5-8/h2-5,7H,6H2,1H3	InChI=1S/C8H10O/c1-9-8-4-2-7(6-8)3-5-8/h2-5,7H,6H2,1H3/t7-,8-
