19
gdb 74629	3.1251	1.68271	1.50848	1.2182	79.4	-0.2177	0.0221	0.2399	965.9515	0.162025	-385.901544	-385.894631	-385.893687	-385.932466	28.921	
C	-0.0122237574	 1.5178785927	 0.0366260697	-0.508744
C	-0.0175650122	 0.0224243382	-0.0338309691	 0.33411
C	-0.0150964562	-0.7191664149	-1.150322912	-0.153227
C	 0.024710483	-2.185666365	-0.9918803089	-0.128182
C	-0.7085494247	-2.8075400482	 0.2152009228	-0.121429
C	-1.1885150206	-1.7897330114	 1.230695267	-0.236522
C	 0.0157501094	-0.8109706945	 1.2267806434	-0.046738
O	 1.163548293	-1.6973656191	 1.1488123817	-0.256023
C	 0.7823451401	-2.6919067725	 0.2441072859	 0.098091
H	 0.8822591024	 1.8882662559	 0.5542130899	 0.129097
H	-0.0340745977	 1.9643036891	-0.9616686991	 0.12135
H	-0.8762997569	 1.9016101701	 0.5954645573	 0.120388
H	 0.006325105	-0.2818382714	-2.1440944419	 0.085311
H	 0.0794103493	-2.7996965733	-1.8830770874	 0.082179
H	-1.2250419734	-3.7497304204	 0.0855029314	 0.090115
H	-2.1191876348	-1.2840775085	 0.960877599	 0.106033
H	-1.3070747781	-2.2620732944	 2.2110189521	 0.104898
H	 0.1244105028	-0.2213953161	 2.1379085292	 0.07588
H	 1.4919580771	-3.5065865362	 0.1838933591	 0.103413
154.1234	186.8616	295.6571	355.012	424.5988	469.3948	502.267	599.2363	688.2307	704.7855	755.7228	766.2879	795.0412	856.0825	866.8035	915.4917	921.4016	951.7309	969.491	1000.4887	1013.2593	1049.72	1062.102	1071.3367	1077.1793	1097.0743	1136.8026	1185.103	1201.022	1239.7345	1280.0143	1301.4311	1330.9139	1361.1198	1371.4281	1404.2107	1413.9414	1478.6557	1480.7757	1491.0614	1709.0963	3009.9247	3052.7852	3054.3049	3104.7282	3105.2622	3110.4626	3164.4663	3181.6289	3194.3612	3208.1071
CC1=CC2C3CC1OC23	CC1=C[C@@H]2[C@@H]3C[C@H]1O[C@H]23	
InChI=1S/C8H10O/c1-4-2-5-6-3-7(4)9-8(5)6/h2,5-8H,3H2,1H3	InChI=1S/C8H10O/c1-4-2-5-6-3-7(4)9-8(5)6/h2,5-8H,3H2,1H3/t5-,6+,7-,8-/m1/s1
