19
gdb 95713	2.78658	1.37055	1.03203	3.3278	72.43	-0.2421	-0.0291	0.2129	1182.7897	0.158804	-460.176284	-460.16745	-460.166506	-460.210244	32.46	
C	 0.17233948	 1.5724845334	 0.0028647677	-0.397627
C	-0.0215246082	 0.0681369069	 0.029735142	 0.208604
O	 0.6336295158	-0.4731774454	-1.0945005431	-0.245421
C	 0.0954891051	-1.6433422473	-1.6881868441	-0.071499
C	-0.3443305297	-2.7402286826	-0.6945935758	-0.342537
C	 0.5244677521	-2.799615586	 0.557785363	 0.387743
O	 1.3404616774	-3.6691092795	 0.7432632201	-0.290391
C	 0.2489473822	-1.7204318473	 1.6221129467	-0.169381
O	 0.5631901338	-0.3991479703	 1.2240352983	-0.236513
H	 1.2421989779	 1.79489306	 0.010036331	 0.142418
H	-0.2698628423	 1.9903254741	-0.9042161366	 0.122339
H	-0.2921131834	 2.0310118821	 0.8785500662	 0.12452
H	-1.0942645831	-0.1949825562	 0.0088644753	 0.056738
H	-0.7510540535	-1.3888955187	-2.3431039001	 0.101159
H	 0.8996919673	-2.0298364165	-2.3197462737	 0.131286
H	-1.3806726646	-2.5675416806	-0.3829666552	 0.117403
H	-0.2988745038	-3.7118118745	-1.1926570172	 0.130139
H	-0.8135852625	-1.7930562665	 1.9148646502	 0.097381
H	 0.8711578795	-1.938608565	 2.4914800152	 0.133639
58.1512	116.812	131.4637	201.2271	213.2902	306.3712	345.9902	367.3596	454.7677	496.2071	546.3853	619.204	659.5163	788.4364	830.2179	867.9385	902.3041	925.806	985.4653	1059.7475	1090.3513	1096.0535	1119.597	1142.2879	1172.6362	1207.6267	1246.6298	1265.7482	1285.1314	1340.0194	1372.8674	1388.1807	1393.1178	1418.7557	1423.4791	1475.0041	1481.1967	1485.0542	1489.9057	1512.9627	1821.7963	2943.4248	2951.4945	2994.4596	3045.8676	3058.049	3089.524	3113.7775	3123.6817	3140.4306	3141.1223
CC1OCCC(=O)CO1	C[C@H]1OCCC(=O)CO1	
InChI=1S/C6H10O3/c1-5-8-3-2-6(7)4-9-5/h5H,2-4H2,1H3	InChI=1S/C6H10O3/c1-5-8-3-2-6(7)4-9-5/h5H,2-4H2,1H3/t5-/m0/s1
