19
gdb 76902	2.29995	1.85749	1.45143	1.0815	69.41	-0.2542	0.0592	0.3134	982.2319	0.160108	-460.147394	-460.139158	-460.138213	-460.180297	31.197	
C	 0.3660841215	 1.6183813733	 0.2188573337	-0.401081
C	 0.1453524959	 0.1250035735	 0.0355200981	-0.043078
C	 1.083289091	-0.6606218379	-0.9479269542	 0.080997
O	 2.2021753092	 0.0433545025	-1.4279307475	-0.435304
C	 1.4274594835	-1.6646339949	 0.2057016518	 0.046772
O	 2.7589644304	-1.5486107828	 0.6805462739	-0.273441
C	 2.7799426655	-0.4782475375	 1.6219172009	 0.009934
O	 1.4864953881	-0.3517329227	 2.1557985993	-0.245832
C	 0.5643441547	-0.8384883024	 1.1934253072	 0.056874
H	 1.4114364895	 1.8527436199	 0.4279542771	 0.12786
H	 0.082954232	 2.1613983588	-0.6878657294	 0.12137
H	-0.2384583635	 1.9985007543	 1.0481428248	 0.117165
H	-0.901815097	-0.0643224105	-0.2250785281	 0.072658
H	 0.5445861306	-1.1175071569	-1.7872259491	 0.070551
H	 2.9776991252	-0.408964162	-1.0696782887	 0.294849
H	 1.2065442994	-2.7193295497	 0.0376379436	 0.089449
H	 3.4782021805	-0.7315992589	 2.4255082368	 0.123475
H	 3.0926518037	 0.4496626795	 1.1194381099	 0.099082
H	-0.2464646902	-1.3294565856	 1.73429178	 0.087701
78.6069	134.2854	182.9491	216.4477	225.5677	272.6228	409.2761	503.3231	521.8442	579.1938	656.6247	740.7364	778.1159	809.7855	848.5074	893.7455	925.1604	958.7759	981.6911	1018.2802	1056.7346	1102.7567	1141.4059	1144.6544	1160.4744	1182.0325	1184.7926	1224.909	1251.5892	1263.3357	1292.9385	1319.0437	1347.4572	1356.1248	1368.0444	1396.2257	1416.056	1443.3985	1485.3711	1493.6589	1543.9353	2985.7509	3018.1768	3043.4585	3048.3465	3081.7337	3093.9308	3108.6874	3108.9234	3131.2476	3748.7466
CC1C(O)C2OCOC12	C[C@H]1[C@@H](O)[C@H]2OCO[C@@H]12	
InChI=1S/C6H10O3/c1-3-4(7)6-5(3)8-2-9-6/h3-7H,2H2,1H3	InChI=1S/C6H10O3/c1-3-4(7)6-5(3)8-2-9-6/h3-7H,2H2,1H3/t3-,4+,5-,6+/m0/s1
