18
gdb 79763	3.23867	1.89218	1.64822	1.9855	72.94	-0.1979	0.0798	0.2777	881.9462	0.150512	-401.90665	-401.900274	-401.899329	-401.937081	27.078	
C	-0.0759896022	 1.4728165559	 0.1139140463	-0.32182
N	 0.0327889845	 0.022754874	-0.0529549069	-0.063129
C	-1.2712221725	-0.6061312714	-0.0674687372	-0.052396
C	-1.3022118831	-2.0976907385	 0.0672941675	 0.056517
O	-0.0715511309	-2.7619600174	 0.1816357273	-0.243295
C	 0.6520198957	-2.0780073911	 1.1703315749	 0.056513
C	-0.2728711321	-1.2419810611	 2.0433282597	-0.145344
C	-1.5844350736	-1.2552654047	 1.3030785706	-0.145341
C	 0.7286330595	-0.5859972237	 1.0612097855	-0.05239
H	 0.9261786021	 1.9111485552	 0.1297250431	 0.11999
H	-0.6140082621	 1.8956537061	-0.7395915838	 0.119991
H	-0.6011658345	 1.7659952349	 1.0391552219	 0.101736
H	-2.027432967	-0.111276038	-0.6659180744	 0.091933
H	-2.0507991811	-2.685941624	-0.4494875574	 0.102812
H	 1.4901517177	-2.650287933	 1.5491652089	 0.10281
H	-0.2226004195	-1.1947539107	 3.1221199904	 0.089738
H	-2.5346124446	-1.2181880612	 1.8172163987	 0.089738
H	 1.6241266741	-0.0745287514	 1.3949311247	 0.091936
152.1248	238.205	338.7483	356.7234	570.4073	631.1365	673.5889	678.5236	706.8726	709.2656	747.2328	759.2548	810.7622	827.9628	898.0062	952.4	977.0578	980.2692	1012.537	1019.1773	1043.6519	1060.3286	1077.3837	1083.5636	1089.2829	1124.1928	1161.283	1170.2314	1184.3225	1241.7522	1271.8862	1273.9506	1295.6819	1372.7378	1390.4473	1427.585	1464.2683	1489.4376	1503.6035	2959.8305	3071.8705	3110.8227	3176.282	3178.6523	3187.4735	3191.3276	3206.8301	3218.2675
CN1C2C3OC4C(C23)C14	CN1[C@H]2[C@H]3O[C@@H]4[C@H]([C@@H]23)[C@H]14	
InChI=1S/C7H9NO/c1-8-4-2-3-5(8)7(3)9-6(2)4/h2-7H,1H3	InChI=1S/C7H9NO/c1-8-4-2-3-5(8)7(3)9-6(2)4/h2-7H,1H3/t2-,3+,4+,5-,6-,7+
