20
gdb 107130	3.65035	1.10947	1.07029	3.3791	79.41	-0.2134	0.0636	0.277	1254.6399	0.168692	-403.05935	-403.050399	-403.049455	-403.092786	34.359	
C	-0.3260518298	 1.5360475273	-0.1248349155	-0.372374
C	 0.0719224888	 0.0657753847	 0.0722068228	-0.316512
C	 0.8219509763	-0.4967146139	-1.0965443757	 0.340445
N	 0.1893989403	-0.8717195543	-2.3841573694	-0.352822
C	 0.9764905714	-1.8737256451	-1.6174105454	-0.243796
C	 2.5085004146	-1.6068516171	-1.8845619012	 0.443459
C	 3.6075137056	-2.6129249863	-1.8118595527	-0.506404
O	 2.6212461655	-0.4962567417	-2.776905631	-0.257042
C	 2.3504181474	-0.2349082864	-1.3974546496	-0.111176
H	 0.5557967547	 2.1645982043	-0.2855386169	 0.124156
H	-0.9764164277	 1.6533459307	-0.9969656202	 0.128292
H	-0.8569032393	 1.9193237736	 0.751677647	 0.113
H	 0.6901075538	-0.0304156488	 0.9749793115	 0.103654
H	-0.8233079896	-0.5443884821	 0.2499329559	 0.097401
H	-0.7919691394	-1.0634382981	-2.1728754309	 0.223529
H	 0.5417477106	-2.8031365508	-1.270489371	 0.092745
H	 3.5694667761	-3.292601605	-2.670863468	 0.134098
H	 4.5805957199	-2.1147243067	-1.8116801318	 0.135392
H	 3.5216505536	-3.2167854345	-0.902102116	 0.123362
H	 3.0212463872	 0.42640604	-0.8596702819	 0.100593
84.2661	117.0959	185.9135	197.4505	229.2511	278.3843	327.1873	374.929	439.5445	478.2612	567.6329	608.0757	696.3811	760.2872	780.403	809.0073	863.7766	879.3265	905.5958	923.1904	949.0206	987.8423	1013.6509	1026.7455	1088.0619	1093.5892	1104.9998	1123.3827	1173.0544	1208.1023	1245.4326	1289.478	1337.481	1350.1049	1402.773	1410.8627	1436.3309	1467.2343	1475.9063	1485.3705	1496.2993	1497.2492	1506.1869	3011.5768	3031.473	3039.0521	3044.9771	3092.4489	3108.4205	3113.6062	3120.0013	3174.3475	3189.9659	3446.4189
CCC12NC1C1(C)OC21	CC[C@]12N[C@H]1[C@@]1(C)O[C@@H]21	
InChI=1S/C7H11NO/c1-3-7-4(8-7)6(2)5(7)9-6/h4-5,8H,3H2,1-2H3	InChI=1S/C7H11NO/c1-3-7-4(8-7)6(2)5(7)9-6/h4-5,8H,3H2,1-2H3/t4-,5+,6+,7-/m0/s1
