23
gdb 61069	2.79907	1.03529	0.80765	2.8078	86.02	-0.243	-0.0166	0.2264	1473.5788	0.205703	-388.32343	-388.313563	-388.312619	-388.359388	35.874	
C	 0.085287383	 1.570801637	-0.0539905505	-0.417695
C	-0.0061142751	 0.0334851926	-0.0265686537	-0.081735
C	 0.6620964254	-0.5094014359	-1.2744011752	 0.168055
O	 0.114464295	-1.1221148163	-2.1541418736	-0.257693
C	 0.656326985	-0.5738753927	 1.2249780936	 0.047062
C	 0.0248297961	-0.1194306766	 2.5670940455	-0.223108
C	 0.224068149	-1.3000629419	 3.5622641718	-0.207867
C	 0.9499152815	-2.4089141925	 2.7640775351	-0.207763
C	 0.5980359475	-2.1122604225	 1.3000992146	-0.218067
H	 1.1296873284	 1.9035004476	-0.0729992067	 0.119333
H	-0.4151001547	 1.9805725705	-0.9365183434	 0.128199
H	-0.3859303117	 2.0023857898	 0.8327434991	 0.130409
H	-1.0573842252	-0.2759396617	-0.0659059904	 0.089022
H	 1.755481031	-0.2816459623	-1.3315608271	 0.063753
H	 1.7163237004	-0.2781779362	 1.2239090847	 0.068973
H	 0.4708228971	 0.8090012221	 2.9330141002	 0.100797
H	-1.0432255906	 0.0809023813	 2.4250998886	 0.099691
H	 0.7899851762	-1.0008854709	 4.4485355847	 0.098597
H	-0.7459979218	-1.6597460238	 3.9185400483	 0.102399
H	 2.0345786176	-2.3261009556	 2.9022992241	 0.097435
H	 0.6634182928	-3.4156994593	 3.080047735	 0.096182
H	-0.4216719384	-2.4527002398	 1.0752149263	 0.102914
H	 1.2656487916	-2.6048910031	 0.586514449	 0.101108
43.8788	59.632	82.1382	163.7271	175.4401	220.3088	293.0023	305.171	373.2909	427.9533	485.2418	584.3486	639.6458	778.539	825.633	866.4655	890.2244	901.1927	940.6314	946.7186	959.8559	986.1952	1012.2152	1044.6533	1053.9526	1104.5362	1128.4084	1160.7492	1203.3863	1208.6558	1221.6293	1264.8798	1288.6001	1297.8919	1314.803	1324.0176	1344.8399	1348.9852	1352.0418	1387.5178	1404.6596	1429.0081	1486.8574	1490.7092	1496.0182	1497.2519	1501.6384	1517.6856	1833.9451	2826.3118	2988.0944	3022.9261	3033.1817	3035.1915	3037.0191	3046.0605	3055.986	3078.4114	3083.6945	3091.1868	3101.4598	3105.0032	3119.946
CC(C=O)C1CCCC1	C[C@@H](C=O)C1CCCC1	
InChI=1S/C8H14O/c1-7(6-9)8-4-2-3-5-8/h6-8H,2-5H2,1H3	InChI=1S/C8H14O/c1-7(6-9)8-4-2-3-5-8/h6-8H,2-5H2,1H3/t7-/m0/s1
