27
gdb 103073	1.9693	1.28605	1.09837	0.081	96.57	-0.2453	0.0771	0.3224	1377.6347	0.249093	-353.560593	-353.54871	-353.547766	-353.596744	44.374	
C	-0.5957624483	 0.5673689919	-2.7878256356	-0.384587
C	-0.3469628351	-0.2957077918	-1.5412341458	-0.238859
C	-1.6130351454	-0.7296287224	-0.8017145709	 0.295948
C	-2.3902142936	 0.459134503	-0.2515626136	-0.461131
C	-2.4153452285	-1.9269719239	-1.2965411981	-0.086906
C	-2.1107204611	-2.701257538	-2.5634407665	-0.419584
C	-1.608215343	-2.045853461	-0.0128547802	 0.257472
C	-0.3589781848	-2.9158695419	 0.027735896	-0.449971
C	-2.3704708481	-2.1482524267	 1.3015071962	-0.448842
H	 0.3499704723	 0.7976439102	-3.2890610492	 0.107906
H	-1.2377066567	 0.0491156526	-3.5075343857	 0.117806
H	-1.0740132796	 1.5199723735	-2.5425802226	 0.117078
H	 0.2427861349	-1.1637856007	-1.841796048	 0.091245
H	 0.289141531	 0.2639926268	-0.8410751812	 0.090306
H	-2.6729249633	 1.147580968	-1.0546320695	 0.114741
H	-3.3136081306	 0.162990262	 0.24858518	 0.111258
H	-1.7885112758	 1.0268652621	 0.4693547801	 0.108227
H	-3.4872667721	-1.8313471627	-1.126578661	 0.068907
H	-1.0430700326	-2.751151863	-2.7891008544	 0.11426
H	-2.4765886372	-3.7319453362	-2.4881967171	 0.113207
H	-2.6040178779	-2.2428645586	-3.4280057444	 0.11524
H	 0.1721072157	-2.9776417978	-0.9223117358	 0.113585
H	 0.3494327098	-2.5455805322	 0.7787126135	 0.111908
H	-0.6258204158	-3.9404601086	 0.3132532289	 0.109607
H	-2.5827342869	-3.1995936884	 1.5305838872	 0.109743
H	-1.7840727889	-1.7461129424	 2.1371140922	 0.109623
H	-3.3274196283	-1.6239274039	 1.2841453357	 0.111814
71.8767	122.7834	150.2354	158.3592	170.2279	182.1481	205.2324	221.7902	248.11	285.0927	326.2645	336.2658	384.5806	392.6909	435.1307	510.7573	556.2385	666.858	692.1341	769.0546	784.9042	908.7968	964.8743	969.1529	973.2412	1007.5572	1011.8652	1031.3191	1059.579	1072.8518	1116.1556	1123.816	1134.7755	1163.4631	1208.7797	1219.5665	1288.8012	1311.0361	1336.1429	1370.6444	1406.293	1407.9927	1412.7033	1417.0124	1430.0988	1449.749	1474.6639	1487.1652	1487.749	1490.1479	1494.2302	1499.1742	1500.7118	1507.6593	1508.7951	1515.1586	1525.7215	3010.818	3019.3585	3024.8606	3027.2008	3030.1578	3037.7506	3070.539	3075.3023	3079.9329	3083.7223	3092.8072	3099.2331	3102.9416	3113.7821	3117.4919	3120.0175	3134.9661	3140.0263
CCC1(C)C(C)C1(C)C	CC[C@@]1(C)[C@@H](C)C1(C)C	
InChI=1S/C9H18/c1-6-9(5)7(2)8(9,3)4/h7H,6H2,1-5H3	InChI=1S/C9H18/c1-6-9(5)7(2)8(9,3)4/h7H,6H2,1-5H3/t7-,9-/m0/s1
