19
gdb 85014	2.4033	1.58899	1.00752	0.6064	78.53	-0.2532	-0.0032	0.25	1186.3128	0.160115	-419.279823	-419.270795	-419.269851	-419.314053	33.131	
C	-0.1925733569	 1.5432335082	 0.0240047987	-0.394602
C	 0.069941632	 0.0361106927	-0.0021936653	-0.059611
C	 0.9056504091	-0.4686912047	-1.1943967706	-0.361327
C	 1.9560814369	-1.3944376153	-0.5976923325	 0.403746
O	 2.7555729184	-2.0867860823	-1.1814501792	-0.366225
N	 1.8604738192	-1.292769375	 0.7871476225	-0.122744
C	 2.7591316014	-1.9982033193	 1.6759076303	-0.370431
C	 0.8409847859	-0.4447399225	 1.2233437577	 0.371788
N	 0.5495327886	-0.1118481036	 2.4133063756	-0.542094
H	 0.7475866593	 2.1036860021	-0.0149640375	 0.117724
H	-0.8044077174	 1.8442184582	-0.8317514329	 0.115499
H	-0.7109796997	 1.8186573164	 0.9446173165	 0.148787
H	-0.8941179867	-0.4857714018	 0.0157034816	 0.112516
H	 0.3299326586	-1.0041058115	-1.9522634002	 0.139622
H	 1.4274815373	 0.3469289589	-1.7072397635	 0.139754
H	 3.4261477152	-2.5971190124	 1.0549300133	 0.172524
H	 3.3503800778	-1.295351124	 2.2729994883	 0.139594
H	 2.2007713892	-2.6534720739	 2.3526982069	 0.140358
H	 1.168866922	-0.54333163	 3.0998336205	 0.215122
40.469	118.7975	162.5431	195.1741	235.3233	265.5864	304.7992	355.4553	391.1116	553.8671	558.2764	599.7278	611.9617	701.7657	727.8891	861.3336	874.4495	920.4408	944.1928	1014.6118	1057.9948	1103.6361	1119.5068	1145.0798	1157.1415	1211.4592	1235.2087	1277.8739	1304.5879	1318.4407	1350.6937	1405.4344	1416.8752	1454.2262	1465.8705	1493.9288	1494.4959	1500.8652	1513.0993	1736.0862	1836.4998	3032.5018	3036.7911	3040.9651	3058.347	3090.8191	3106.2459	3114.4191	3136.5362	3154.1264	3474.7473
CC1CC(=O)N(C)C1=N	C[C@H]1CC(=O)N(C)[C]1[NH]	
InChI=1S/C6H10N2O/c1-4-3-5(9)8(2)6(4)7/h4,7H,3H2,1-2H3	InChI=1S/C6H10N2O/c1-4-3-5(9)8(2)6(4)7/h4,7H,3H2,1-2H3/t4-/m0/s1
