14
gdb 129517	5.22529	0.97812	0.82458	5.6422	65.21	-0.2276	-0.0095	0.2181	1283.3208	0.102278	-470.030657	-470.022778	-470.021834	-470.063669	28.934	
N	-0.1379613182	 1.4048887446	 0.1240909578	-0.576997
C	 0.0876168844	 0.0394793842	 0.0399290254	 0.459408
O	 1.1970067778	-0.4554273338	 0.024316796	-0.374245
N	-1.0732752417	-0.7125547668	 0.0166941528	-0.477299
C	-1.0797448696	-2.1067471129	 0.0018749821	 0.219761
C	-0.0509970605	-3.0009219937	-0.043234397	 0.023134
O	-0.5477345926	-4.2540481013	-0.0577166594	-0.166498
N	-1.9268078889	-4.2091843693	-0.0196224348	-0.124052
C	-2.235902646	-2.9361381915	 0.0129678796	-0.065435
H	 0.6973435441	 1.9436947746	-0.0478635151	 0.269031
H	-0.9657425921	 1.7818968406	-0.3124907385	 0.252448
H	-1.9499566706	-0.2566101583	 0.2094597673	 0.254506
H	 1.0169400002	-2.8896007914	-0.0665740623	 0.181488
H	-3.2763615263	-2.6430686551	 0.0452340562	 0.12475
69.8876	90.5052	167.3149	327.019	349.3105	354.2956	391.1386	438.1456	544.9788	613.086	618.9905	666.107	765.4265	817.1845	823.5225	881.3111	925.7466	938.0694	990.519	1049.7756	1104.8514	1134.8574	1214.8825	1284.1365	1309.2935	1396.34	1478.9262	1564.6608	1630.5033	1673.5768	1807.4444	3235.4596	3327.1213	3577.1412	3642.7648	3690.4968
NC(=O)NC1=CON=C1	NC(=O)Nc1conc1	
InChI=1S/C4H5N3O2/c5-4(8)7-3-1-6-9-2-3/h1-2H,(H3,5,7,8)	InChI=1S/C4H5N3O2/c5-4(8)7-3-1-6-9-2-3/h1-2H,(H3,5,7,8)
