22
gdb 13625	3.41789	1.16003	1.04347	1.6933	78.62	-0.2561	0.0835	0.3396	1269.6531	0.197971	-350.200037	-350.190109	-350.189165	-350.235042	35.77	
C	 1.3139795542	 1.1569118176	-0.7231237258	-0.394227
C	 0.8353748094	-0.2978112249	-0.7354335592	-0.164013
C	-0.496625375	-0.540427426	 0.0030693101	 0.001916
C	-1.6904993676	 0.1618635997	-0.6611377831	-0.400294
C	-0.7630323858	-2.0300156704	 0.0821410101	 0.067243
O	 0.0781334403	-2.8145258566	 0.936065106	-0.274008
C	-1.3202337342	-2.7440534672	 1.2447053097	 0.073148
C	-1.7124737188	-2.1071285179	 2.5535985187	-0.421446
H	 2.2895019948	 1.2492658218	-1.2106939689	 0.113764
H	 0.6223116687	 1.8233313553	-1.2478049059	 0.115679
H	 1.42064546	 1.5287425834	 0.3023415748	 0.114128
H	 0.7369057594	-0.6450690498	-1.7734222308	 0.089474
H	 1.59691891	-0.9332925554	-0.2694532387	 0.115397
H	-0.3843924238	-0.1547500376	 1.0232656154	 0.072573
H	-2.6178102455	-0.0290258568	-0.1114114299	 0.114832
H	-1.5467251974	 1.2446642515	-0.7029709487	 0.119564
H	-1.8331105877	-0.1943837089	-1.688453713	 0.11444
H	-0.9325011022	-2.4913945278	-0.8961444099	 0.07917
H	-1.8538362686	-3.6730977661	 1.0288267263	 0.083611
H	-1.1708596532	-1.1769917904	 2.7351485861	 0.129607
H	-2.7874811144	-1.896127368	 2.5682259937	 0.120306
H	-1.4961591526	-2.7899470354	 3.382069853	 0.129135
52.0522	78.5765	132.1409	173.6611	200.3772	207.3184	249.6685	274.1046	368.9099	389.8586	405.4013	508.9467	539.4836	771.953	779.4408	826.2015	845.8731	927.0234	966.771	980.7885	996.6074	1014.4781	1049.8623	1085.9096	1145.3931	1147.4851	1178.0814	1185.6886	1201.8436	1284.2681	1296.3284	1308.4155	1351.3431	1376.0611	1402.8475	1407.2961	1413.4436	1419.86	1469.643	1484.59	1489.432	1496.0822	1498.1927	1505.5164	1510.1616	1514.3194	3012.4471	3029.0063	3032.6081	3034.7024	3039.3234	3054.5618	3064.3279	3076.4182	3094.7537	3097.6176	3098.3715	3104.2793	3114.4436	3134.6832
CCC(C)C1OC1C	CC[C@@H](C)[C@H]1O[C@H]1C	
InChI=1S/C7H14O/c1-4-5(2)7-6(3)8-7/h5-7H,4H2,1-3H3	InChI=1S/C7H14O/c1-4-5(2)7-6(3)8-7/h5-7H,4H2,1-3H3/t5-,6+,7-/m1/s1
