19
gdb 97827	3.90033	0.6938	0.62703	2.5242	87.6	-0.2297	-0.0207	0.209	1835.9486	0.157226	-385.878449	-385.868628	-385.867684	-385.915751	34.469	
C	-0.5757730129	 1.612702814	-0.2068364284	-0.364457
C	 0.1093010844	 0.2738956225	 0.1231047762	-0.316477
C	 0.8762517336	-0.2686917188	-0.9930027667	 0.126909
C	 1.4995706514	-0.6932122563	-1.9333279982	 0.031252
C	 2.2458491988	-1.2547389254	-3.034419503	-0.284294
C	 3.7329231726	-1.7211818845	-2.8336995323	-0.236722
C	 3.442042684	-3.0377497451	-3.6098225659	-0.341749
C	 1.9438255595	-2.7163439725	-3.4968167506	 0.3986
O	 0.9413325193	-3.3505219856	-3.6142890923	-0.280797
H	 0.1633195615	 2.3701855285	-0.4816032871	 0.126503
H	-1.2682302441	 1.497547682	-1.0449730639	 0.130533
H	-1.1381220946	 1.9767089429	 0.6582022601	 0.114221
H	 0.7711782271	 0.4041154593	 0.9891890372	 0.127776
H	-0.6473760471	-0.4589224064	 0.4317713913	 0.133022
H	 2.1769493388	-0.6120718141	-3.923248069	 0.126159
H	 4.4920781263	-1.0622766659	-3.2549438463	 0.114013
H	 3.9526702755	-1.8989175492	-1.7802520904	 0.125778
H	 3.7782544007	-3.0181560505	-4.6518127939	 0.134709
H	 3.7585029252	-3.982154375	-3.1616100667	 0.13502
11.801	68.1985	78.2797	113.8914	171.9395	211.2112	295.5336	382.8926	408.4344	462.9652	503.0803	571.3359	624.8464	684.8054	767.1761	784.5726	843.7731	904.6506	938.0875	992.0439	1013.8998	1032.0863	1067.0441	1080.9749	1103.767	1186.3931	1195.0787	1209.6521	1229.365	1255.2607	1285.8062	1322.6255	1355.1023	1408.5837	1441.6821	1473.9829	1492.6876	1494.6968	1505.6042	1902.2993	2360.637	3013.2178	3018.2772	3043.8583	3045.3655	3058.8278	3090.0324	3117.103	3117.7293	3123.627	3149.6321
CCC#CC1CCC1=O	CCC#C[C@H]1CCC1=O	
InChI=1S/C8H10O/c1-2-3-4-7-5-6-8(7)9/h7H,2,5-6H2,1H3	InChI=1S/C8H10O/c1-2-3-4-7-5-6-8(7)9/h7H,2,5-6H2,1H3/t7-/m0/s1
