15
gdb 36123	4.28503	1.14286	1.03501	2.7906	68.76	-0.2628	-0.0003	0.2625	1123.5043	0.113576	-416.814882	-416.807441	-416.806497	-416.847457	27.715	
N	-0.0460150582	-1.1433698243	 0.3903856669	-0.300316
C	-0.0182006522	-0.0288937207	 0.088734309	 0.27497
C	 0.0192584754	 1.3878603619	-0.2846495693	-0.434757
C	 1.3955296847	 1.9945051054	-0.164884942	 0.412477
C	 2.0439537283	 2.3861418547	 1.1286300151	-0.339359
C	 1.7694800254	 3.4507304764	 0.0809375148	-0.082975
N	 2.8497331462	 3.7370479279	-0.8335001906	-0.250179
C	 3.0716092926	 2.6505840631	-1.4552906503	 0.095037
O	 2.2885797544	 1.5688820446	-1.189213186	-0.241674
H	-0.3448676442	 1.4950959962	-1.312265504	 0.167106
H	-0.6723758135	 1.9372373774	 0.3628193892	 0.162101
H	 1.4021814437	 2.3913953636	 2.0029596918	 0.132288
H	 3.0721022386	 2.0918860331	 1.3090479982	 0.138493
H	 1.0688030774	 4.251975275	 0.2835834735	 0.112496
H	 3.8348266114	 2.4835239056	-2.2047337264	 0.15429
54.1267	109.9861	235.302	298.4387	383.1226	392.9839	418.2939	458.239	609.1498	716.3932	751.7933	818.9337	877.8969	901.1084	916.5742	938.058	944.1007	983.1523	1028.171	1043.2567	1070.9843	1113.8533	1131.1445	1175.2396	1253.4057	1279.0002	1337.1648	1341.1994	1392.3919	1445.2171	1469.8134	1667.8986	2367.6004	3050.816	3093.9518	3135.266	3183.0774	3229.0191	3238.1753
N#CCC12CC1N=CO2	N#CC[C@]12C[C@H]1N=CO2	
InChI=1S/C6H6N2O/c7-2-1-6-3-5(6)8-4-9-6/h4-5H,1,3H2	InChI=1S/C6H6N2O/c7-2-1-6-3-5(6)8-4-9-6/h4-5H,1,3H2/t5-,6+/m1/s1
