18
gdb 126763	2.72028	1.32605	0.96293	2.1432	77.24	-0.2037	0.0131	0.2168	1258.0421	0.147269	-435.294486	-435.285309	-435.284364	-435.329269	32.883	
C	-0.115527883	 1.58081792	-0.1493892638	-0.381257
C	 0.0854835757	 0.0670708846	-0.0565525332	-0.139902
N	 0.7559246127	-0.48779675	-1.2136290589	-0.054871
N	 0.1045723345	-0.6537908772	-2.4213989558	-0.281777
C	 1.0160886812	-1.0644476997	-3.2248267705	 0.400512
C	 0.8740049391	-1.4220221104	-4.6547673029	-0.489546
O	 2.2521760299	-1.173919779	-2.6434561758	-0.234226
C	 2.0932471402	-0.7725858154	-1.3193065452	 0.445877
N	 2.9795208014	-0.6922420737	-0.418114349	-0.617387
H	 0.8477021431	 2.0944589268	-0.2158386516	 0.135596
H	-0.7103087401	 1.8373597305	-1.0305239585	 0.133315
H	-0.6400687847	 1.9461981698	 0.7388530677	 0.119241
H	 0.7102034388	-0.1915091925	 0.8018513649	 0.152021
H	-0.8755596517	-0.4457153181	 0.049837345	 0.122985
H	 1.5257878095	-0.8005693894	-5.277600035	 0.150957
H	 1.153718974	-2.4670401287	-4.8246439148	 0.151329
H	-0.162514572	-1.2740270011	-4.9594546477	 0.159463
H	 3.8886929116	-0.9811921563	-0.7656264249	 0.22767
42.6559	71.0946	159.736	185.9474	203.6465	271.7827	284.1464	310.2966	396.5049	534.9157	617.1416	650.8397	670.86	690.4192	730.0435	787.864	835.9695	954.4766	963.7755	992.9187	1056.061	1067.8207	1081.5626	1103.5131	1167.8401	1234.4624	1342.8795	1355.7775	1393.9371	1410.4225	1421.3514	1424.397	1470.9618	1475.1714	1482.6374	1491.1519	1504.1215	1698.9687	1789.1488	3043.3013	3043.7736	3058.4194	3098.7062	3110.5552	3117.8441	3133.262	3155.8809	3554.8327
CCN1N=C(C)OC1=N	CCN1N=C(C)O[C@@H]1[NH]	
InChI=1S/C5H9N3O/c1-3-8-5(6)9-4(2)7-8/h6H,3H2,1-2H3	InChI=1S/C5H10N3O/c1-3-8-5(6)9-4(2)7-8/h5-6H,3H2,1-2H3/t5-/m1/s1
