22
gdb 117948	3.5612	0.75973	0.69322	1.6291	80.62	-0.2155	0.016	0.2315	1743.4186	0.191863	-441.512953	-441.501714	-441.50077	-441.550391	38.873	
C	 0.1087792267	 1.4808229519	 0.1994101265	-0.383099
C	-0.2002471429	 0.0206587175	-0.1234619007	-0.106211
N	 0.8530877375	-0.5494896545	-0.9505434301	-0.294506
C	 0.7591982423	-1.9710988888	-1.2399682274	-0.066372
C	-0.563844433	-2.4612477124	-1.8789986142	-0.406628
C	 1.8938125244	-2.3147233815	-2.1953462682	 0.460329
O	 2.3187867883	-1.5749978111	-3.0480978576	-0.372677
O	 2.3336462198	-3.5721298699	-2.0067393013	-0.233516
C	 3.3577420487	-4.006573228	-2.9119545792	-0.242325
H	 1.0765297951	 1.5681958743	 0.7008815162	 0.126486
H	 0.1486033657	 2.0828433632	-0.7156452724	 0.114356
H	-0.664237163	 1.9088579941	 0.8448026904	 0.111324
H	-0.2466235985	-0.5600732891	 0.8079916673	 0.097692
H	-1.2060074957	-0.0434200034	-0.5760860727	 0.079926
H	 0.9643699057	-0.040159741	-1.8216785818	 0.22451
H	 0.917265069	-2.5303679654	-0.3102014005	 0.099291
H	-0.5213703168	-3.5369580638	-2.0746241052	 0.125269
H	-1.4078718071	-2.2724090681	-1.2112106145	 0.123997
H	-0.7472765422	-1.941628428	-2.825292332	 0.124454
H	 3.0000088166	-3.9740213796	-3.944235	 0.140069
H	 4.2407548631	-3.3686053599	-2.8266793796	 0.144046
H	 3.5956460864	-5.0298621568	-2.6216925732	 0.133586
36.3349	87.9311	96.272	108.9941	125.982	163.9301	237.3039	246.1085	270.2448	285.5516	337.1381	361.0076	367.4307	547.3075	690.1937	730.1094	766.0003	820.4436	861.9916	886.4172	952.3599	1014.4803	1042.034	1064.558	1093.8195	1135.6195	1169.6425	1178.3312	1201.7644	1217.4155	1234.004	1300.5933	1347.1299	1351.392	1397.3173	1399.974	1416.7264	1472.5464	1481.3214	1481.7115	1493.8279	1496.0236	1497.3065	1498.4563	1513.5339	1524.5342	1817.9665	2936.1576	3022.9995	3035.1195	3037.6043	3041.6916	3052.6893	3100.382	3113.3031	3120.6373	3123.2595	3127.7345	3159.9065	3525.4165
CCNC(C)C(=O)OC	CCN[C@@H](C)C(=O)OC	
InChI=1S/C6H13NO2/c1-4-7-5(2)6(8)9-3/h5,7H,4H2,1-3H3	InChI=1S/C6H13NO2/c1-4-7-5(2)6(8)9-3/h5,7H,4H2,1-3H3/t5-/m0/s1
