18
gdb 45132	2.61665	1.6288	1.16328	5.4788	80.44	-0.2073	-0.0256	0.1817	1066.3183	0.150428	-401.960561	-401.952897	-401.951953	-401.992803	30.149	
O	 0.071339891	-0.1186145467	-0.3050455635	-0.351777
C	 0.0105116027	 1.0909488129	-0.1401641637	 0.322686
C	-1.3546421521	 1.7206691279	 0.1517929133	-0.32911
C	-1.4708744192	 2.79023163	 1.2222287497	-0.031596
C	-0.553587923	 2.8558868271	 2.4257796905	-0.320321
C	-0.531249475	 3.9473548692	 1.3723843024	 0.02475
N	 0.6024709882	 4.1767601058	 0.515442894	-0.298927
C	 1.396633843	 3.2393511081	-0.0720365486	 0.01413
C	 1.1907305225	 1.9246330597	-0.3345140012	-0.190322
H	-1.7181270314	 2.1394416825	-0.7981444419	 0.121157
H	-2.0148822931	 0.8849350065	 0.4007033837	 0.124472
H	-2.5078704864	 3.0524607003	 1.4186690007	 0.096534
H	-0.9657606767	 3.0835993415	 3.4024005653	 0.115739
H	 0.2888616605	 2.1732901615	 2.4398650809	 0.138469
H	-0.9854748712	 4.8955030064	 1.6396621148	 0.102317
H	 1.0697352181	 5.0482836796	 0.7058432995	 0.250644
H	 2.3571370539	 3.6545840335	-0.3683932117	 0.115663
H	 2.0294238583	 1.3864164342	-0.7621160044	 0.095493
81.5617	123.6404	260.9502	286.5179	358.9242	440.6506	454.4597	482.2616	514.9597	592.1354	659.3467	737.8432	749.3138	808.5311	827.8472	853.2393	892.0844	946.9103	983.158	996.261	1023.6722	1055.2977	1060.1956	1126.2668	1153.4161	1174.1836	1222.9526	1244.7138	1296.6073	1337.2581	1352.6555	1396.3296	1426.1421	1452.757	1465.8734	1494.4193	1553.2303	1682.1072	1730.5239	3008.8213	3087.6046	3128.2663	3138.3258	3154.4131	3163.0644	3193.8545	3226.6138	3630.2928
O=C1CC2CC2NC=C1	O=C1C[C@H]2C[C@H]2NC=C1	
InChI=1S/C7H9NO/c9-6-1-2-8-7-4-5(7)3-6/h1-2,5,7-8H,3-4H2	InChI=1S/C7H9NO/c9-6-1-2-8-7-4-5(7)3-6/h1-2,5,7-8H,3-4H2/t5-,7+/m0/s1
