23
gdb 58961	2.5514	1.3499	1.16774	1.8795	84.32	-0.2377	0.064	0.3016	1207.0713	0.205191	-388.264914	-388.255571	-388.254627	-388.298972	35.772	
C	 0.0333253244	 1.5460729539	-0.0581210501	-0.393372
C	 0.0707047746	 0.0092700681	-0.0538461062	-0.085312
C	 0.7605012006	-0.5324004727	-1.3139324815	-0.403052
C	 0.6923313232	-0.509851716	 1.2351526128	 0.348565
C	 2.2164284383	-0.303215194	 1.5160270032	-0.296382
C	 2.3707707164	-1.8245214356	 1.8292131481	-0.227423
C	 0.8516118115	-2.011695866	 1.6387529742	 0.05416
O	 0.1069280354	-1.8051148135	 2.8559864216	-0.294839
C	-0.1518104395	-0.4225711956	 2.5245609738	-0.133753
H	 1.0466973139	 1.9633927988	-0.0416389149	 0.117671
H	-0.4660836903	 1.9239190045	-0.9560561309	 0.11257
H	-0.5034232411	 1.9383624569	 0.8121589873	 0.115657
H	-0.9682134297	-0.3518209915	-0.0698823197	 0.074023
H	 1.7914951479	-0.1722311875	-1.3986108858	 0.116505
H	 0.7845681897	-1.6270008812	-1.3195413026	 0.114815
H	 0.2279774082	-0.2064710495	-2.2132125208	 0.114085
H	 2.7916446927	 0.0239842099	 0.6473119537	 0.102608
H	 2.4376599853	 0.3766745524	 2.3431032969	 0.098897
H	 2.9671517548	-2.3566391446	 1.0824213272	 0.099716
H	 2.7292428542	-2.090019271	 2.8259572703	 0.109341
H	 0.4848409471	-2.8723843681	 1.0708212997	 0.067903
H	 0.1992279271	 0.2666845571	 3.3036180108	 0.095323
H	-1.2237297646	-0.2490851548	 2.3525386927	 0.092296
74.9913	84.04	159.475	218.7145	242.7396	261.0981	284.828	329.7458	393.1648	441.4466	462.3089	616.2024	674.5893	739.1348	839.3342	879.3505	886.4512	910.5936	927.8624	939.1699	951.3537	969.6383	1006.3469	1028.3935	1053.5132	1072.6951	1101.9043	1148.645	1156.052	1179.9606	1194.8	1207.8964	1232.4247	1249.7328	1271.611	1293.2513	1323.0482	1347.4792	1366.3561	1383.9204	1399.8599	1420.3017	1461.4561	1482.0978	1486.4239	1495.5503	1506.8362	1509.7508	1521.9357	2988.643	2995.1637	3027.0148	3031.7385	3037.7513	3051.1373	3058.5884	3066.0321	3093.3095	3097.3866	3099.7517	3102.0204	3106.873	3124.4055
CC(C)C12CCC1OC2	CC(C)[C@]12CC[C@H]1OC2	
InChI=1S/C8H14O/c1-6(2)8-4-3-7(8)9-5-8/h6-7H,3-5H2,1-2H3	InChI=1S/C8H14O/c1-6(2)8-4-3-7(8)9-5-8/h6-7H,3-5H2,1-2H3/t7-,8-/m1/s1
