18
gdb 60082	2.48091	1.22252	0.92343	4.4541	73.07	-0.2768	0.0107	0.2876	1292.373	0.14491	-439.072024	-439.062253	-439.061309	-439.107256	34.975	
C	-0.1624355737	 1.6007096598	-0.0149222158	-0.403316
C	-0.0781402606	 0.0764245564	-0.1005470553	 0.131475
O	 0.945068542	-0.4358319331	 0.7441447082	-0.422613
C	-1.3781180811	-0.5939051293	 0.3540766048	-0.283274
C	-1.3948712	-2.0897876727	 0.0970868024	 0.254816
C	-2.5663826641	-2.7403878034	-0.52995092	-0.207365
O	-1.3884127126	-2.4764991667	-1.2849170815	-0.25467
C	-0.5735357092	-2.9322466524	 0.9545909219	 0.283337
N	 0.0245883626	-3.6379838953	 1.646746922	-0.340911
H	 0.785604607	 2.0531485938	-0.3245569043	 0.112308
H	-0.9485129926	 1.9935398611	-0.6683637428	 0.11642
H	-0.3679970285	 1.9152400063	 1.0130845174	 0.127806
H	 0.1039754176	-0.2193070412	-1.1450109177	 0.090474
H	 1.8004085634	-0.2102849264	 0.3666258053	 0.288984
H	-1.5242399598	-0.4039170091	 1.423309085	 0.127859
H	-2.2187509043	-0.14894111	-0.1861887561	 0.111195
H	-2.7689888562	-3.7898383488	-0.3276274588	 0.140977
H	-3.4315074297	-2.1251620992	-0.7720659645	 0.126501
39.1603	90.1679	140.0552	177.6204	236.0312	244.8925	247.304	308.537	333.751	389.7776	465.6171	470.5347	582.0725	600.1534	720.7328	838.7848	850.9815	912.6147	915.9932	952.8348	972.9457	1067.3018	1115.2078	1117.352	1135.7705	1170.3269	1189.2756	1260.5494	1301.1564	1325.538	1374.3368	1398.7757	1407.0862	1422.9375	1457.6645	1491.5351	1498.0242	1521.0308	2361.397	2991.2338	3031.7431	3050.1848	3091.4256	3099.9421	3103.4885	3114.1982	3188.0771	3832.1309
CC(O)CC1(CO1)C#N	C[C@@H](O)C[C@]1(CO1)C#N	
InChI=1S/C6H9NO2/c1-5(8)2-6(3-7)4-9-6/h5,8H,2,4H2,1H3	InChI=1S/C6H9NO2/c1-5(8)2-6(3-7)4-9-6/h5,8H,2,4H2,1H3/t5-,6-/m1/s1
