18
gdb 24336	3.56523	1.52699	1.10071	1.9644	87.	-0.1876	0.0122	0.1998	1079.8858	0.151961	-364.87259	-364.865568	-364.864624	-364.90369	28.887	
C	-0.0458101108	 1.4961333756	 0.0768113061	-0.261062
C	 1.3642590761	 2.1220326562	-0.0103905275	-0.333568
C	 2.1837116668	 1.427991606	-1.0596740589	 0.206795
C	 3.2318705183	 1.8419245453	-1.8399132877	-0.207088
N	 3.6700475298	 0.7544922892	-2.5665508644	-0.248264
C	 2.9166622139	-0.3500214924	-2.2591615052	-0.20575
C	 1.9789540349	 0.0343015248	-1.3235406586	 0.234628
C	 0.9135924732	-0.69048958	-0.655267665	-0.14922
C	-0.0264946486	-0.0169865327	 0.0236633439	-0.095787
H	-0.5446274368	 1.8388348668	 0.9898692241	 0.095338
H	-0.6598604223	 1.8680882002	-0.7586793082	 0.108568
H	 1.2892339965	 3.1985922098	-0.1964117521	 0.096524
H	 1.8556963808	 2.0094671668	 0.9674328901	 0.10637
H	 3.7109818086	 2.8031509608	-1.9401917268	 0.116263
H	 4.4159335377	 0.7741038182	-3.2386329765	 0.259147
H	 3.0944413519	-1.2987663914	-2.7402582221	 0.118243
H	 0.883745931	-1.7745480577	-0.7222559213	 0.077087
H	-0.8384837608	-0.5496723355	 0.5098681402	 0.081777
143.8219	198.3873	281.2469	381.4607	422.987	431.0454	508.3316	570.8895	627.8149	662.9661	686.0062	693.0122	743.0417	757.7318	805.2202	875.7585	916.2524	919.7311	980.2215	1014.743	1040.1837	1078.35	1121.8797	1168.6451	1185.561	1209.2489	1224.2076	1264.3229	1318.6487	1345.618	1366.4074	1399.6168	1427.6504	1466.1081	1473.4369	1484.8551	1568.2425	1615.3632	1687.7546	2980.3501	2995.1761	3059.6261	3064.3062	3155.1901	3178.0157	3254.3068	3257.8569	3691.4021
C1CC2=CNC=C2C=C1	C1Cc2c[nH]cc2C=C1	
InChI=1S/C8H9N/c1-2-4-8-6-9-5-7(8)3-1/h1,3,5-6,9H,2,4H2	InChI=1S/C8H9N/c1-2-4-8-6-9-5-7(8)3-1/h1,3,5-6,9H,2,4H2
