19
gdb 108779	2.57542	1.21081	0.85097	5.2899	80.61	-0.2282	-0.0391	0.1891	1338.6264	0.159568	-423.064917	-423.056089	-423.055145	-423.098751	32.756	
O	 0.0611047008	 1.4238286026	-0.017732158	-0.406727
C	 0.0017806946	 0.0167375307	 0.0418428071	-0.148714
C	-1.4212586863	-0.4651991923	 0.0428148764	 0.274046
C	-2.4657783476	 0.3765825956	 0.0872193291	-0.241336
C	-3.8676132594	-0.0825373606	 0.0507420493	 0.378502
O	-4.7987167409	 0.6965373947	 0.1185215436	-0.335588
C	-4.0870295808	-1.5837360763	-0.1150848285	-0.303411
C	-2.9614475435	-2.4061987679	 0.5208325459	-0.224004
C	-1.5959636582	-1.9635326998	-0.0174594262	-0.291889
H	 0.9818271577	 1.6914539511	 0.0469374895	 0.294426
H	 0.5250339203	-0.4506755883	-0.8124051025	 0.102807
H	 0.4961879083	-0.3737842393	 0.9497602164	 0.105197
H	-2.3124994132	 1.4481439389	 0.1366275894	 0.121053
H	-5.0700530037	-1.8333396682	 0.2920184842	 0.120254
H	-4.1285949968	-1.7862225269	-1.1955884988	 0.119191
H	-2.9784663107	-2.2639697891	 1.6083732175	 0.110482
H	-3.1132032166	-3.4749344794	 0.3380557082	 0.101165
H	-1.4805994359	-2.2910681632	-1.0623274634	 0.119825
H	-0.7856265681	-2.4554154723	 0.5355684806	 0.104719
76.9897	121.5607	150.4067	191.014	212.8529	254.322	371.8346	425.0056	471.8935	477.6507	505.2878	589.0049	660.4102	761.3848	825.1915	889.1534	900.214	930.165	973.543	1021.2381	1050.2964	1077.0846	1087.8437	1149.6324	1151.3632	1200.1941	1228.5652	1253.7365	1258.8729	1277.8782	1330.1202	1347.8157	1373.0573	1390.038	1458.4101	1459.7767	1474.0795	1494.9164	1499.2383	1695.9112	1772.9065	2936.8053	2951.2591	2993.9295	3010.1874	3029.8712	3045.035	3077.7324	3101.3429	3211.235	3843.9411
OCC1=CC(=O)CCC1	OCC1=CC(=O)CCC1	
InChI=1S/C7H10O2/c8-5-6-2-1-3-7(9)4-6/h4,8H,1-3,5H2	InChI=1S/C7H10O2/c8-5-6-2-1-3-7(9)4-6/h4,8H,1-3,5H2
