18
gdb 79973	2.53852	1.73618	1.35084	2.8974	76.91	-0.221	-0.0276	0.1934	999.0766	0.14712	-401.929157	-401.921152	-401.920208	-401.961485	30.757	
C	-0.4599687951	 1.44354305	-0.0583919037	-0.422249
C	-0.0844876329	-0.0198842129	-0.0686522237	 0.030364
C	 0.5966513865	-0.7130466022	-1.2099890927	-0.104753
C	 1.3639929662	 0.1380350929	-2.1594865491	-0.070818
C	 2.3871457256	 0.7275107472	-1.5407834324	-0.117681
C	 2.4345279094	 0.27032788	-0.0890435595	-0.106831
C	 2.6316501913	 1.3833464693	 0.9258348486	 0.165199
O	 1.9287769833	 1.6163444029	 1.8718252444	-0.238306
N	 1.2639463829	-0.5940820166	 0.1166333157	-0.118377
H	 0.1997181788	 2.0583351103	-0.6733715136	 0.116988
H	-1.4787183159	 1.5497249949	-0.4483895695	 0.113502
H	-0.4392231627	 1.8331252705	 0.9613827335	 0.148881
H	-0.8068906662	-0.6348225461	 0.4667721894	 0.097545
H	 0.2734828334	-1.7031403397	-1.5236090087	 0.094806
H	 1.1016750429	 0.2527866064	-3.2041448403	 0.109443
H	 3.0900585103	 1.4306740512	-1.9720410701	 0.107893
H	 3.340982415	-0.350222934	 0.0536488189	 0.11651
H	 3.5579229573	 1.9749574056	 0.7340313128	 0.077884
108.8801	158.496	196.217	232.6999	243.5188	298.0993	401.1263	479.163	547.2052	666.6325	712.2139	718.3024	754.6731	768.5574	808.3607	875.9873	920.5722	945.481	980.2163	1015.9031	1032.7971	1060.6648	1067.5481	1117.0622	1130.8047	1144.7188	1162.2539	1253.8852	1288.4573	1321.9051	1332.8641	1371.0174	1403.3101	1419.4778	1426.4069	1492.3721	1500.8091	1663.6358	1839.169	2852.7057	2913.6967	3041.5333	3105.7986	3115.7415	3131.1841	3141.7255	3194.7203	3219.6887
CC1C2C=CC(C=O)N12	C[C@H]1[C@H]2C=C[C@@H](C=O)N12	
InChI=1S/C7H9NO/c1-5-7-3-2-6(4-9)8(5)7/h2-7H,1H3	InChI=1S/C7H9NO/c1-5-7-3-2-6(4-9)8(5)7/h2-7H,1H3/t5-,6-,7+,8?/m0/s1
