14
gdb 46169	1.90123	1.65757	1.29516	2.1719	74.84	-0.2701	0.0073	0.2774	1052.2316	0.098171	-399.461531	-399.452921	-399.451977	-399.494854	31.711	
N	-0.0082255528	 1.2007047892	-0.3070340659	-0.529434
C	 0.0144928233	-0.0074853205	-0.000426148	 0.423522
O	 1.0132362319	-0.8183601725	 0.4797935086	-0.249316
C	 0.1443890637	-1.9835166783	 0.5268959898	-0.103315
C	-1.0538842908	-1.1306862682	-0.0194155832	-0.17387
C	-2.1477455904	-0.9349126656	 0.9218801143	 0.279203
C	-3.0318753914	-0.7837369702	 1.7195504407	-0.427989
C	-1.5135222746	-1.4997857771	-1.3511020971	 0.279176
C	-1.8677283778	-1.8205969229	-2.4522077604	-0.427963
H	 0.8982809085	 1.6488921137	-0.1654604878	 0.23835
H	 0.4913422386	-2.7688387729	-0.1457405115	 0.139215
H	 0.0189578014	-2.3481561401	 1.5471170245	 0.139216
H	-3.8228199953	-0.637768124	 2.4133656131	 0.206604
H	-2.1928150042	-2.0896529907	-3.426993007	 0.206602
100.3627	120.6271	125.0691	154.5094	238.5731	368.4767	379.5216	460.7063	540.1412	567.8216	609.9084	643.5741	645.2122	653.295	655.0495	679.3348	766.7593	854.4887	935.7613	949.0034	992.0653	1007.9667	1147.9082	1155.5347	1212.2372	1218.3903	1348.3749	1509.7629	1833.2495	2244.7448	2248.8752	3081.6966	3154.8874	3485.2368	3501.1376	3501.9668
N=C1OCC1(C#C)C#C	[NH][C]1OCC1(C#C)C#C	
InChI=1S/C7H5NO/c1-3-7(4-2)5-9-6(7)8/h1-2,8H,5H2	InChI=1S/C7H5NO/c1-3-7(4-2)5-9-6(7)8/h1-2,8H,5H2
