13
gdb 25858	4.2989	1.10898	0.88644	5.4401	62.96	-0.267	-0.0753	0.1917	1208.8488	0.087632	-493.765438	-493.757469	-493.756524	-493.799112	27.688	
C	-0.0094004573	 1.5119325376	 0.0713134942	-0.501741
C	-0.020527423	-0.0057058131	 0.053830801	 0.301081
O	-0.0432378943	-0.6801940777	 1.0581887019	-0.291887
C	-0.0012433816	-0.6365661903	-1.2780040686	 0.228751
C	 0.0229562617	-0.1444245316	-2.5243315576	-0.101194
O	 0.0319483777	-1.1705193952	-3.4213138224	-0.201673
C	 0.0123425677	-2.3501576799	-2.6917413297	 0.506839
O	 0.0135950681	-3.4394945939	-3.1548043389	-0.350198
O	-0.0081159761	-2.0179396014	-1.3710566933	-0.225222
H	 0.8902971457	 1.9001561372	-0.4179486401	 0.147077
H	-0.8779322874	 1.9146042823	-0.4606234783	 0.146612
H	-0.0314277261	 1.8483197729	 1.1078890065	 0.159611
H	 0.0359350249	 0.8579574631	-2.9161472845	 0.181944
51.3687	97.8292	135.0903	157.8116	282.8172	338.4757	462.2893	540.3946	566.2935	620.3543	655.2685	764.3346	770.96	816.2588	890.7968	931.1429	984.6765	1038.3277	1042.6753	1120.2337	1180.3758	1311.5954	1347.6215	1386.7977	1468.6342	1475.0233	1676.1457	1789.5991	1957.2914	3041.5785	3105.3482	3160.4313	3297.9915
CC(=O)C1=COC(=O)O1	CC(=O)c1coc(=O)o1	
InChI=1S/C5H4O4/c1-3(6)4-2-8-5(7)9-4/h2H,1H3	InChI=1S/C5H4O4/c1-3(6)4-2-8-5(7)9-4/h2H,1H3
