21
gdb 68787	2.37615	1.44273	1.3264	2.1428	79.16	-0.2174	0.0642	0.2816	1125.1063	0.179854	-424.206521	-424.196801	-424.195857	-424.240005	37.881	
C	-0.0086303772	 1.579293082	 0.1339154903	-0.504033
C	-0.0257802704	 0.0812186473	 0.0672847677	 0.270547
C	 1.1609219933	-0.7420112653	-0.403331318	-0.393732
C	 0.6226007841	-0.992046048	 0.9621241033	 0.380428
O	 1.4336859131	-0.9094406643	 2.0719444565	-0.467977
C	-0.6578965405	-1.8311236337	 0.9477684118	 0.333888
C	-0.592643499	-3.3000941939	 0.5593919596	-0.466464
O	-1.1992336607	-1.6757654808	 2.2616470716	-0.496921
C	-1.2843881758	-0.7944714437	-0.0519722979	-0.339373
H	 0.9670942289	 1.9417298347	 0.4741138651	 0.124232
H	-0.207112264	 2.0321779824	-0.8455239438	 0.11651
H	-0.7665286275	 1.9542795032	 0.8314702326	 0.115384
H	 1.0702452097	-1.4694389978	-1.2090294138	 0.096683
H	 2.1063330062	-0.207140805	-0.395031181	 0.118957
H	 0.8365893804	-0.9091333459	 2.8319734935	 0.29401
H	-0.0063538339	-3.8613051195	 1.293287549	 0.129475
H	-1.598279516	-3.7378072622	 0.513619873	 0.104894
H	-0.1347050316	-3.4311624461	-0.4249934937	 0.122704
H	-2.0210974643	-2.1737589837	 2.3146042042	 0.2796
H	-2.1750627514	-0.3346764981	 0.3838824472	 0.096883
H	-1.5200982734	-1.1653710212	-1.0565722375	 0.084303
119.9764	172.5725	197.0285	206.546	223.8676	231.7345	274.6426	324.065	375.0321	428.6353	433.4071	461.3081	516.282	539.8987	581.7341	672.7226	742.6294	799.921	854.7651	884.9327	931.4145	950.7859	971.3172	997.7401	1051.2616	1058.7213	1090.8442	1131.5999	1150.7773	1174.9097	1213.5906	1236.2618	1249.9544	1307.5508	1356.8845	1397.1448	1405.2811	1417.0456	1439.1427	1472.0947	1485.8909	1488.385	1493.0809	1499.0199	1523.9449	3016.8275	3022.2499	3028.874	3073.3779	3088.0738	3091.4446	3095.2163	3099.1135	3119.677	3187.9689	3768.4406	3818.9978
CC12CC1(O)C(C)(O)C2	C[C@@]12C[C@]1(O)[C@@](C)(O)C2	
InChI=1S/C7H12O2/c1-5-3-6(2,8)7(5,9)4-5/h8-9H,3-4H2,1-2H3	InChI=1S/C7H12O2/c1-5-3-6(2,8)7(5,9)4-5/h8-9H,3-4H2,1-2H3/t5-,6+,7-/m1/s1
