27
gdb 103831	2.45627	0.93623	0.88831	0.1004	96.82	-0.2549	0.0833	0.3382	1587.5675	0.249784	-353.563861	-353.552366	-353.551422	-353.600197	43.156	
C	 0.0505007878	 1.5627308772	 0.0338026202	-0.382592
C	-0.0537600883	 0.0668308563	 0.3627293021	-0.247592
C	-1.4246589465	-0.5355675797	 0.0781765097	 0.35649
C	-2.5472000606	 0.0159849949	 0.9419876635	-0.461055
C	-1.7671269597	-0.8879965006	-1.3549974253	-0.348157
C	-1.5573059411	-1.9892201775	-0.3402967065	-0.021287
C	-0.4105762764	-2.9801072375	-0.4585869885	 0.011717
C	-0.0424480387	-3.5676035092	 0.9123648986	-0.386745
C	-0.7652260466	-4.0932375452	-1.4566725639	-0.384335
H	 1.0660513822	 1.9299722491	 0.2125413158	 0.108452
H	-0.1951421191	 1.7511804023	-1.016791804	 0.116528
H	-0.6278315923	 2.1645054447	 0.646195678	 0.116656
H	 0.7119554436	-0.4670188008	-0.2090366997	 0.095413
H	 0.1952988211	-0.0871044837	 1.4219375026	 0.091857
H	-2.6850882963	 1.0926032726	 0.7935731388	 0.115163
H	-3.4996929584	-0.4697182586	 0.7080532513	 0.110154
H	-2.3429916515	-0.1486195997	 2.0071578893	 0.110563
H	-2.7694253965	-0.6882961521	-1.7205588795	 0.101359
H	-0.9911733747	-0.7507326574	-2.103472292	 0.10132
H	-2.4721042467	-2.4638048933	 0.0149710849	 0.069376
H	 0.4699873445	-2.4567009203	-0.8517777734	 0.068645
H	-0.8963645316	-4.0994988146	 1.3489908771	 0.10965
H	 0.7840350353	-4.2815498172	 0.8292442426	 0.106288
H	 0.2555684177	-2.7841888361	 1.6157359004	 0.114342
H	-1.0059187526	-3.6808593244	-2.441427737	 0.113381
H	 0.0655060472	-4.7971757229	-1.5749921097	 0.105359
H	-1.6365175917	-4.663263306	-1.1123386054	 0.10905
61.9628	76.4889	130.0433	141.7149	218.2001	221.4208	227.6627	241.9869	279.2281	291.2109	335.7411	370.5117	386.8331	413.3494	475.8953	573.6604	686.4454	768.1496	786.5249	873.5453	898.6618	910.1669	928.7947	945.6761	964.1404	983.0139	1017.3827	1022.7515	1057.8128	1062.5091	1091.6135	1123.7668	1140.3313	1146.0018	1184.6861	1215.3271	1256.1063	1308.7745	1317.5084	1342.0698	1346.4112	1374.6901	1396.8045	1408.7299	1415.5075	1418.0437	1436.4249	1477.517	1486.3656	1488.7643	1490.9692	1495.6695	1500.7682	1502.6848	1506.9579	1509.6323	1510.8745	3011.1408	3021.3086	3022.468	3022.8543	3027.6399	3036.199	3067.9367	3082.1399	3086.052	3092.0069	3095.684	3101.8695	3102.3061	3102.6495	3105.1281	3109.7307	3114.5107	3196.4505
CCC1(C)CC1C(C)C	CC[C@@]1(C)C[C@H]1C(C)C	
InChI=1S/C9H18/c1-5-9(4)6-8(9)7(2)3/h7-8H,5-6H2,1-4H3	InChI=1S/C9H18/c1-5-9(4)6-8(9)7(2)3/h7-8H,5-6H2,1-4H3/t8-,9-/m0/s1
