19
gdb 38465	2.90962	2.18927	1.781	2.0227	78.83	-0.2319	0.0475	0.2794	846.737	0.162055	-385.737693	-385.731808	-385.730863	-385.76737	27.024	
C	-0.0282522626	 1.6522150068	-0.0502619464	-0.284916
C	 1.5877487309	 1.6495577237	-0.0576429007	 0.037884
O	 2.4334565061	 1.5623206524	 1.1654281014	-0.381216
C	 1.6768413842	 0.3334579205	 1.4465036059	 0.397117
C	 1.4106300122	-1.1952404922	 1.8053159288	-0.31928
C	-0.0827534296	-0.6095500376	 1.541986981	-0.054016
C	 0.4267218404	 0.6085555305	 2.3108017544	-0.225924
C	-0.0909489613	 0.0458869429	 0.0803227717	-0.07275
C	 1.4065999719	 0.1632097976	-0.0762074279	-0.01186
H	-0.6111388313	 2.3061631152	 0.6005136196	 0.109915
H	-0.2889894368	 1.8892600731	-1.0868876252	 0.109007
H	 2.0683815668	 2.2957936637	-0.7909892486	 0.085249
H	 1.832102169	-1.946160355	 1.1352698555	 0.102818
H	 1.506721176	-1.5005592497	 2.8484238926	 0.109339
H	-0.9392006192	-1.1950698221	 1.8772134942	 0.071653
H	 0.6595766827	 0.3945717913	 3.3570585945	 0.090669
H	-0.1020432727	 1.553727651	 2.2506318733	 0.097131
H	-0.7208472806	-0.4447604442	-0.6622242747	 0.065462
H	 2.0761015839	-0.5374623482	-0.5728638594	 0.073718
302.8654	357.9311	447.6472	480.2919	545.3474	562.8772	624.4595	701.8013	741.497	760.1014	774.2487	791.8867	836.6055	872.2509	883.8512	914.9361	941.3356	955.9595	960.5028	968.371	993.5967	1012.7352	1041.6078	1070.5621	1091.1659	1108.8818	1131.883	1156.1893	1174.6751	1190.9627	1207.9432	1210.9012	1220.5498	1256.8777	1266.2452	1294.6406	1309.8056	1348.238	1470.9965	1498.388	1559.6287	3055.5653	3070.5704	3076.022	3098.2093	3109.6282	3113.7339	3117.098	3128.1723	3145.5694	3178.3257
C1C2OC34CC(C3)C1C24	C1[C@H]2O[C@@]34C[C@@H](C3)[C@@H]1[C@@H]24	
InChI=1S/C8H10O/c1-5-4-2-8(3-4)7(5)6(1)9-8/h4-7H,1-3H2	InChI=1S/C8H10O/c1-5-4-2-8(3-4)7(5)6(1)9-8/h4-7H,1-3H2/t4-,5-,6-,7+,8-/m1/s1
