19
gdb 107847	3.45239	1.43762	1.35438	2.463	74.06	-0.2351	0.0801	0.3152	1024.3862	0.160113	-422.970207	-422.96281	-422.961865	-423.002112	29.576	
C	-0.0174990572	 1.3351787433	-0.0447696976	-0.263613
O	-0.0546994362	-0.0721659279	 0.0909005602	-0.303686
C	 0.6744185256	-0.5652422845	 1.1576348676	 0.410383
C	 2.2335546277	-0.5093576513	 1.2338096344	-0.322869
C	 2.0615115768	-1.7613113461	 2.1095090341	-0.08128
C	 0.9123745098	-1.5104067306	 3.1717218516	 0.067755
C	 0.2820794057	-0.2200212024	 2.6191409786	-0.278117
O	 0.078704145	-2.5286219188	 2.5365372752	-0.296196
C	 0.777935945	-2.1482194997	 1.3478112882	 0.049208
H	 1.00848513	 1.7029462681	-0.1904293972	 0.111279
H	-0.6110072008	 1.5865549156	-0.9265107747	 0.129949
H	-0.4488204354	 1.8421172863	 0.8299748856	 0.112854
H	 2.6991948205	-0.7684919554	 0.278539077	 0.106803
H	 2.7044953754	 0.3835901676	 1.6536146479	 0.095072
H	 2.855097626	-2.4615582664	 2.3580716322	 0.082317
H	 1.0363899282	-1.6479104421	 4.245017513	 0.081806
H	 0.7382947591	 0.7043214856	 2.9831522483	 0.094286
H	-0.7951078336	-0.2100307561	 2.7962085404	 0.113176
H	 0.6779246686	-2.8065264853	 0.4867634353	 0.090873
78.923	175.3691	199.9299	314.494	361.4355	436.4923	466.1345	562.621	620.396	669.8559	751.8037	801.2433	843.9373	848.1823	900.6874	904.3618	932.8096	965.1383	987.6881	1023.439	1027.3151	1058.8105	1063.7371	1118.5957	1137.5358	1158.9522	1181.8694	1190.4834	1195.1553	1217.3478	1222.622	1250.2639	1270.5121	1288.3448	1323.98	1347.5172	1474.1782	1482.6409	1488.1422	1502.3004	1507.7624	2989.0672	3039.9318	3052.4811	3064.825	3110.289	3120.1984	3127.6127	3128.8823	3141.3573	3153.7478
COC12CC3C(C1)OC23	CO[C@@]12C[C@H]3[C@@H](C1)O[C@@H]23	
InChI=1S/C7H10O2/c1-8-7-2-4-5(3-7)9-6(4)7/h4-6H,2-3H2,1H3	InChI=1S/C7H10O2/c1-8-7-2-4-5(3-7)9-6(4)7/h4-6H,2-3H2,1H3/t4-,5+,6+,7-/m0/s1
