16
gdb 130397	3.0728	1.21635	0.92833	3.337	68.7	-0.219	-0.0009	0.2181	1229.1423	0.124747	-471.18168	-471.172384	-471.17144	-471.217	32.762	
N	 0.0131340093	 1.526186131	 0.2679540829	-0.499262
C	-0.0106924744	 0.0752672169	 0.0216863755	-0.281126
C	-1.4013327904	-0.4450437156	-0.0963751116	 0.442511
C	-2.1287084669	-0.866576657	-1.1708629041	-0.05171
N	-1.753935755	-0.9595218195	-2.5261799514	-0.623699
C	-3.3649637566	-1.2591281511	-0.578746737	 0.418788
O	-4.4007345042	-1.7662545719	-1.2723542258	-0.430529
N	-3.3879423898	-1.0927140825	 0.7180933209	-0.259043
O	-2.1395084122	-0.5547353424	 1.0311680851	-0.22419
H	 0.9759710742	 1.8303058043	 0.3803135344	 0.230109
H	-0.3486874426	 2.0177626434	-0.5442074999	 0.223438
H	 0.5276626963	-0.2467936853	-0.8844194563	 0.108708
H	 0.4712616643	-0.4116034113	 0.8773115113	 0.131237
H	-1.6348436913	-0.052578557	-2.9625675918	 0.247349
H	-2.4534609334	-1.4682106373	-3.0539192283	 0.254606
H	-5.1023233972	-1.9786776249	-0.6428597339	 0.312814
31.6556	62.1221	114.5149	194.2076	240.6472	252.5553	294.2642	347.539	412.4161	442.2545	543.9454	579.594	673.1363	724.0433	746.2483	780.6154	823.6695	851.5242	954.5286	990.1632	1031.0874	1065.3069	1157.0227	1207.9069	1245.5229	1248.3159	1330.5853	1352.8444	1426.3947	1493.1584	1539.8649	1579.3243	1654.4711	1659.8649	1710.5032	2973.4315	3060.5336	3485.1	3520.89	3567.4942	3601.4391	3786.796
NCC1=C(N)C(O)=NO1	NCc1c(N)c(O)no1	
InChI=1S/C4H7N3O2/c5-1-2-3(6)4(8)7-9-2/h1,5-6H2,(H,7,8)	InChI=1S/C4H7N3O2/c5-1-2-3(6)4(8)7-9-2/h1,5-6H2,(H,7,8)
