15
gdb 35441	2.45143	1.45177	1.10088	5.3691	78.03	-0.2449	0.0064	0.2513	1104.037	0.112381	-379.603806	-379.595821	-379.594877	-379.636463	30.148	
C	-0.0236250878	-1.1921879052	-0.0752183477	-0.397624
C	 0.0238999463	 0.0082775344	-0.0066950769	 0.17894
C	 0.0557226355	 1.422552835	 0.0961873884	 0.225676
N	 0.2780068201	 2.3132271508	-1.0740282991	-0.355521
C	 1.1990483854	 2.397744582	 0.0693875162	-0.117174
C	 0.5217561754	 3.3099456712	 1.0935604347	-0.233556
C	-0.6795877039	 2.2882219198	 1.1523024772	-0.236579
C	-2.0118637806	 2.7651428006	 0.8153637018	 0.300213
N	-3.0734968836	 3.1464570301	 0.563919056	-0.329168
H	-0.0651323208	-2.2515087879	-0.1410691536	 0.199145
H	 0.7172305839	 1.7444640894	-1.797429052	 0.246974
H	 2.2559028573	 2.1913055985	-0.0391777499	 0.120715
H	 1.0420348307	 3.3699522754	 2.04996196	 0.123255
H	 0.2778996039	 4.3091026301	 0.7307303879	 0.138719
H	-0.7085665918	 1.7774593458	 2.1168562869	 0.135985
92.3441	131.7912	158.397	214.5289	319.9984	427.5285	457.9325	494.8147	542.4873	551.3765	595.5624	656.3533	678.8646	705.5441	804.7662	875.8292	904.6347	946.0015	989.7607	1020.3467	1048.5125	1063.101	1111.6888	1164.9061	1195.382	1225.9628	1288.9641	1301.138	1352.8948	1402.359	1477.9352	2235.6372	2359.8536	3087.8435	3098.5136	3151.825	3206.1076	3487.2695	3500.6198
C#CC12NC1CC2C#N	C#C[C@]12N[C@H]1C[C@H]2C#N	
InChI=1S/C7H6N2/c1-2-7-5(4-8)3-6(7)9-7/h1,5-6,9H,3H2	InChI=1S/C7H6N2/c1-2-7-5(4-8)3-6(7)9-7/h1,5-6,9H,3H2/t5-,6-,7+/m0/s1
