21
gdb 62117	3.48179	0.73409	0.63596	3.0673	80.42	-0.2536	-0.0254	0.2282	1759.3852	0.178865	-424.211688	-424.201265	-424.20032	-424.24878	36.435	
C	-0.2649177669	 1.3339462531	-0.0251289021	-0.407147
C	-0.0283726511	-0.1787424085	-0.0038437434	 0.131333
O	 0.6415390804	-0.6279622105	-1.1828028186	-0.263541
C	-0.1219237076	-0.6145339229	-2.358793694	-0.153279
C	 0.6351644896	-1.3977326745	-3.4191227522	 0.141858
O	 0.2903127372	-1.4719894366	-4.5682751971	-0.23968
C	 0.8219910018	-0.6016118116	 1.1689469424	 0.028694
C	 0.1702614731	-0.9054928143	 2.4944668849	-0.271358
C	 0.7652819907	-2.0190684584	 1.6691997926	-0.270409
H	 0.6879144062	 1.8632495287	-0.1261284135	 0.125081
H	-0.914798899	 1.6351039372	-0.8518096261	 0.116772
H	-0.7404806909	 1.6521177828	 0.9071411571	 0.124407
H	-1.0023048183	-0.6954765535	 0.063050236	 0.06035
H	-1.1059906144	-1.095827297	-2.2150435199	 0.116351
H	-0.3148796685	 0.3982447784	-2.7451043442	 0.12361
H	 1.5428494756	-1.908002429	-3.0279746168	 0.095688
H	 1.7911075768	-0.1109176188	 1.2029694629	 0.087972
H	 0.6812684553	-0.5989263108	 3.400091491	 0.114448
H	-0.9116257688	-0.8425705664	 2.5551656899	 0.11127
H	 0.0845402447	-2.7013177774	 1.1710178965	 0.11268
H	 1.6852149339	-2.48057577	 2.0095384745	 0.1149
45.57	54.9711	81.6882	96.4315	128.768	206.3469	228.7319	289.4248	317.2277	376.5097	458.6715	506.3389	577.3487	741.1014	767.5873	824.1545	831.2686	891.4151	942.3317	956.6429	994.9421	1043.3131	1060.8855	1079.3554	1099.007	1110.8313	1119.3569	1135.3876	1160.1342	1196.4088	1225.8846	1229.2022	1242.7789	1316.2157	1342.6068	1375.1469	1400.6817	1407.1925	1434.2647	1470.9743	1481.4172	1492.3716	1499.311	1509.9625	1843.8027	2899.7828	2944.1132	2953.7994	3002.9574	3041.0587	3113.0439	3117.2015	3130.8828	3136.6039	3144.7011	3209.6019	3224.8816
CC(OCC=O)C1CC1	C[C@@H](OCC=O)C1CC1	
InChI=1S/C7H12O2/c1-6(7-2-3-7)9-5-4-8/h4,6-7H,2-3,5H2,1H3	InChI=1S/C7H12O2/c1-6(7-2-3-7)9-5-4-8/h4,6-7H,2-3,5H2,1H3/t6-/m1/s1
