22
gdb 112623	4.08787	0.82047	0.79509	2.1184	79.58	-0.2229	0.0702	0.2931	1551.3304	0.192634	-441.455683	-441.445619	-441.444675	-441.490772	37.571	
C	-0.0774965511	 1.4817393105	-0.0720103048	-0.381383
C	-0.0060721399	-0.0238954517	 0.1713099238	-0.119362
N	-1.3009381944	-0.6578831077	 0.0171423778	-0.091411
C	-1.8890644125	-0.7749027614	-1.3362646673	-0.232494
C	-2.4793007196	-2.1432427689	-0.9041358539	 0.376286
O	-3.8029848387	-2.0506032064	-0.3965896318	-0.497082
C	-2.499035671	-3.297752517	-1.8859883565	-0.092935
O	-2.8789401092	-4.4999228325	-1.2447768221	-0.426091
C	-1.3973736281	-2.1205689816	 0.208075104	-0.22541
H	 0.9047638539	 1.9424830645	 0.0687472943	 0.115219
H	-0.4044872839	 1.7022991393	-1.0937539172	 0.120192
H	-0.7853392388	 1.9505056925	 0.6177843243	 0.123215
H	 0.7443333692	-0.4767681225	-0.5080992923	 0.072851
H	 0.3399732202	-0.2191040658	 1.1940508255	 0.102548
H	-2.6041411855	 0.005853266	-1.6137031907	 0.104285
H	-1.133424935	-0.8798502587	-2.1339259319	 0.083431
H	-3.7987429682	-1.3937005724	 0.3086447191	 0.291493
H	-3.1797695007	-3.0469168095	-2.7162854636	 0.091678
H	-1.5004684771	-3.4555476924	-2.3039959504	 0.102996
H	-3.6787536752	-4.2865513132	-0.7488592597	 0.29101
H	-0.4873122279	-2.6654171513	-0.0915454288	 0.090272
H	-1.6959930263	-2.44531956	 1.2106061922	 0.100692
61.9644	87.7749	118.3195	192.0202	209.2951	231.0542	322.196	345.4778	349.6063	399.5783	413.845	452.1305	465.7272	498.5622	668.8652	748.8931	811.0956	900.9864	915.8968	946.2152	964.5015	985.5549	1030.5815	1062.5635	1096.0865	1104.1362	1117.163	1125.0195	1160.6166	1173.9158	1204.1594	1233.3932	1269.9392	1289.5164	1308.9872	1327.7133	1371.2882	1394.2379	1411.2052	1414.8201	1450.868	1489.1722	1491.2122	1493.1788	1498.4983	1508.647	1522.9082	2899.1291	2953.9472	2972.5241	2974.3831	3038.1707	3041.402	3062.2147	3069.77	3085.7086	3106.5649	3117.7961	3790.6275	3805.0962
CCN1CC(O)(CO)C1	CCN1CC(O)(CO)C1	
InChI=1S/C6H13NO2/c1-2-7-3-6(9,4-7)5-8/h8-9H,2-5H2,1H3	InChI=1S/C6H13NO2/c1-2-7-3-6(9,4-7)5-8/h8-9H,2-5H2,1H3
