16
gdb 13923	3.42364	1.93587	1.55357	1.1069	65.27	-0.2515	-0.0308	0.2207	857.8942	0.129942	-383.728097	-383.720878	-383.719934	-383.759837	26.827	
O	 0.0352153671	 0.0181713444	-0.3179331007	-0.280112
C	-0.0076952825	 1.1885600014	-0.0879243752	 0.282062
C	-1.075554058	 2.2043673273	 0.3398812863	-0.200183
O	-0.0676085839	 3.2372488019	 0.3113345005	-0.326625
C	 0.9906325775	 2.3472154414	-0.0906794643	 0.339915
C	 2.2966848894	 2.2360217877	 0.7303345291	-0.284989
C	 3.0545111931	 2.0215214795	-0.6090738684	-0.210436
C	 1.8347463762	 2.629014473	-1.3557023069	-0.284986
H	-1.8839476374	 2.3716034222	-0.3825137104	 0.133183
H	-1.5030869365	 2.0474818733	 1.33784056	 0.133183
H	 2.5256853587	 3.2049864214	 1.1826370057	 0.121711
H	 2.3493749525	 1.4571129656	 1.494203527	 0.111729
H	 4.0140275449	 2.5270161642	-0.7263215109	 0.107328
H	 3.1799362116	 0.9608732508	-0.8366653922	 0.12478
H	 1.5108062881	 2.1705168967	-2.2926192303	 0.111729
H	 1.9328791692	 3.7093148391	-1.4943825795	 0.12171
102.3956	105.8142	166.0603	267.9508	353.1351	472.456	524.6228	541.4628	690.7873	723.1588	784.9343	835.9606	910.7558	911.5685	929.2561	960.7958	1009.3573	1033.6278	1044.6165	1087.7781	1138.2242	1154.4946	1193.702	1202.4003	1241.7155	1270.8797	1273.0607	1291.9595	1303.2336	1463.5793	1479.3027	1483.174	1499.996	1916.6666	3021.5075	3061.2426	3065.0337	3069.9761	3077.9219	3114.9149	3120.6937	3137.9113
O=C1COC11CCC1	O=C1COC21CCC2	
InChI=1S/C6H8O2/c7-5-4-8-6(5)2-1-3-6/h1-4H2	InChI=1S/C6H8O2/c7-5-4-8-6(5)2-1-3-6/h1-4H2
