22
gdb 7397	3.96977	0.98507	0.91908	0.5002	75.34	-0.2482	0.0715	0.3197	1379.363	0.197318	-387.334166	-387.323606	-387.322661	-387.369724	37.429	
C	-0.0155179597	 1.3946033022	-0.0139601316	-0.226719
O	 0.0190305892	-0.0108483074	-0.0007619666	-0.236645
C	-1.2692300629	-0.5918352329	 0.0251118683	-0.057412
C	-1.1289358097	-2.1138910747	 0.0970266678	 0.005574
C	-0.3703274243	-2.5311910001	 1.36463797	-0.41333
C	-2.5211393687	-2.7700435303	-0.0364540886	 0.133605
C	-2.4731303355	-4.2911147941	-0.1857678422	-0.41841
O	-3.3959810794	-2.3842985367	 1.0248837529	-0.437882
H	 1.0181510358	 1.7495483369	-0.0305596727	 0.123448
H	-0.5381438439	 1.783399307	-0.9028396198	 0.101701
H	-0.5170624928	 1.8007040029	 0.8791099072	 0.102823
H	-1.8441774144	-0.2261901521	 0.8908448999	 0.096514
H	-1.8315161401	-0.304962136	-0.8807293161	 0.078618
H	-0.539992398	-2.4232338336	-0.7771906304	 0.078604
H	-0.9474257746	-2.2947790937	 2.2669679051	 0.102514
H	-0.1424941028	-3.6008748691	 1.3744898331	 0.110533
H	 0.5708207939	-1.9819477507	 1.428997363	 0.13965
H	-2.9968830445	-2.3542412891	-0.9340300489	 0.084485
H	-2.0515329368	-4.7682554686	 0.7063937138	 0.111793
H	-3.4835162211	-4.6828791871	-0.3312207712	 0.123766
H	-1.8589485045	-4.5862165229	-1.0426948269	 0.117169
H	-3.1131426953	-2.84764745	 1.820306434	 0.279602
61.0108	87.9865	99.1338	151.2371	218.7398	231.799	244.6536	279.1332	291.9406	305.9042	319.7222	363.4004	463.8672	524.8351	615.1502	789.1372	891.0926	927.587	944.072	989.7226	1006.1317	1028.3476	1082.2415	1112.8098	1151.8503	1172.1156	1179.2954	1197.3817	1229.7311	1266.9207	1285.7355	1317.7953	1354.6783	1378.6344	1401.9292	1403.0686	1418.7746	1428.5508	1480.9298	1484.8705	1489.2027	1492.7123	1499.399	1504.9384	1514.6471	1528.9336	2947.4779	2968.1576	2993.5709	3009.351	3018.9841	3029.7329	3031.3571	3034.0363	3096.7042	3101.1235	3109.4972	3117.2883	3133.3485	3810.1293
COCC(C)C(C)O	COC[C@@H](C)[C@@H](C)O	
InChI=1S/C6H14O2/c1-5(4-8-3)6(2)7/h5-7H,4H2,1-3H3	InChI=1S/C6H14O2/c1-5(4-8-3)6(2)7/h5-7H,4H2,1-3H3/t5-,6-/m1/s1
