21
gdb 103545	2.17399	1.44957	1.1943	1.1604	79.62	-0.2447	0.0193	0.264	1176.9648	0.180876	-424.233679	-424.223809	-424.222865	-424.268153	37.157	
C	 0.1086974741	 1.4894237738	-0.2352144483	-0.420317
C	-0.0650135479	-0.0333873383	-0.2356341279	-0.189954
C	-1.4942499755	-0.5101677302	 0.0892079405	 0.341312
O	-1.8672399128	-0.1209799468	 1.415834174	-0.486967
C	-2.5148952711	-0.0731602954	-0.9469049605	-0.120059
C	-2.9103665187	-1.0750713279	-1.7290129596	-0.073422
C	-2.2316864811	-2.3714142375	-1.3650305507	-0.303691
C	-1.6327396549	-2.0579479694	 0.0291076346	 0.08194
O	-0.3959362096	-2.6937926913	 0.2951701552	-0.433474
H	 1.1421917426	 1.7569712136	-0.4741776603	 0.120445
H	-0.5359490099	 1.9776214052	-0.9736426511	 0.117454
H	-0.1073902033	 1.9286194619	 0.7463838399	 0.105985
H	 0.2212584399	-0.432210143	-1.2152531564	 0.099461
H	 0.607413611	-0.4890017791	 0.4963106446	 0.120492
H	-1.7684485806	 0.8337152738	 1.4866614233	 0.274995
H	-2.851695363	 0.955274945	-1.0222611612	 0.088441
H	-3.6209405095	-0.9914105006	-2.5445469631	 0.094112
H	-2.9146262398	-3.2291911711	-1.3509884767	 0.096643
H	-1.42324583	-2.6191220479	-2.0663846217	 0.112868
H	-2.3711366599	-2.3110497373	 0.8014772058	 0.087844
H	-0.56559259	-3.6295945775	 0.4352833496	 0.285892
69.196	93.3039	190.052	202.4602	205.9402	234.3088	263.192	312.9626	323.1115	374.3507	461.618	525.9768	548.695	608.3274	681.5812	755.2541	769.8517	792.6882	902.224	964.0613	977.1134	977.6472	1003.3292	1030.5251	1049.2564	1091.1535	1098.3642	1119.8556	1142.0265	1179.723	1193.1312	1261.5354	1289.4862	1308.7501	1317.2385	1329.2476	1380.6419	1384.1505	1410.9084	1436.7257	1471.7469	1489.5864	1501.8431	1509.4599	1687.18	3013.9875	3016.7102	3025.6382	3046.7272	3055.0096	3081.1586	3099.655	3110.1343	3174.2046	3199.5548	3818.8109	3834.0435
CCC1(O)C=CCC1O	CC[C@@]1(O)C=CC[C@H]1O	
InChI=1S/C7H12O2/c1-2-7(9)5-3-4-6(7)8/h3,5-6,8-9H,2,4H2,1H3	InChI=1S/C7H12O2/c1-2-7(9)5-3-4-6(7)8/h3,5-6,8-9H,2,4H2,1H3/t6-,7-/m1/s1
