20
gdb 14803	6.6421	0.62126	0.58842	3.318	69.34	-0.2604	0.0739	0.3343	1863.7956	0.175101	-423.254971	-423.244816	-423.243872	-423.291362	34.481	
O	-0.2120551873	 1.4099990938	-0.0705033658	-0.418746
C	-0.059222435	-0.0003737575	-0.0774761153	-0.071773
C	-1.4506185877	-0.6149652185	 0.0011600528	-0.184418
C	-1.4207208762	-2.1364779732	-0.0023405936	-0.052278
O	-2.7492208083	-2.6118862284	 0.0735886374	-0.259674
C	-2.8561998674	-4.0230915722	 0.060925645	-0.070163
C	-4.3403707967	-4.3474006729	-0.0080145373	-0.057888
O	-4.9334684051	-3.7958671965	-1.1663079522	-0.421612
H	 0.661981372	 1.8076700673	-0.1198895772	 0.286589
H	 0.4504320519	-0.34171161	-0.9937845132	 0.08633
H	 0.5494862534	-0.3396170715	 0.7771421832	 0.086057
H	-1.9474762207	-0.2632335006	 0.9114089889	 0.118023
H	-2.0461842336	-0.2613102943	-0.8473552504	 0.114677
H	-0.9344468689	-2.515470465	-0.9176252643	 0.088994
H	-0.8350471637	-2.5155532477	 0.8526799638	 0.087612
H	-2.3401656627	-4.4367531965	-0.82060051	 0.093863
H	-2.3996910413	-4.4617802123	 0.9637888502	 0.085983
H	-4.4809226469	-5.4323422715	-0.0541405912	 0.106791
H	-4.8293216617	-3.9814912041	 0.9091245248	 0.092974
H	-4.6495870441	-2.8741688484	-1.1874371856	 0.288659
51.7574	59.7552	93.4371	121.7605	127.8066	180.4354	255.0223	265.1008	313.1726	382.1717	445.3931	490.5549	562.0242	780.2159	866.4326	890.0734	908.7204	1016.6088	1053.3641	1057.4982	1087.9899	1100.0071	1137.4806	1161.2081	1179.4329	1230.941	1232.3114	1252.0914	1265.2981	1303.9917	1307.1524	1319.941	1385.5141	1389.2331	1437.9562	1451.0692	1468.7505	1498.1409	1499.6997	1504.7277	1526.6132	1536.873	2947.3491	2958.382	2966.2225	2974.3798	2977.151	2983.0642	3005.7858	3050.6143	3078.7234	3097.0521	3792.4574	3831.5003
OCCCOCCO	OCCCOCCO	
InChI=1S/C5H12O3/c6-2-1-4-8-5-3-7/h6-7H,1-5H2	InChI=1S/C5H12O3/c6-2-1-4-8-5-3-7/h6-7H,1-5H2
