16
gdb 34326	2.36094	1.81461	1.32518	4.5739	75.04	-0.2638	-0.0224	0.2414	990.6186	0.125288	-400.725273	-400.717844	-400.716899	-400.757203	28.454	
N	-0.1852758506	-1.2287351499	-0.0052501814	-0.340911
C	-0.0963813073	-0.0761426416	 0.0007491075	 0.263111
C	 0.0145116222	 1.3877401345	 0.023859178	 0.259298
C	-0.6659824355	 2.0336439369	 1.2486725233	-0.300666
C	 0.5540276852	 2.3417461942	 2.180324078	-0.252248
C	 1.6884361388	 2.5857380951	 1.1854978809	-0.191089
C	 1.3962735756	 1.9865172256	 0.0396077611	 0.166447
C	 1.2979584395	 2.1400369588	-1.455923017	-0.17139
O	-0.149673735	 1.9157156226	-1.3346657092	-0.32231
H	-1.1247798659	 2.9698971032	 0.9180919096	 0.132862
H	-1.4311673704	 1.4100939506	 1.7150840056	 0.122203
H	 0.3747099905	 3.2206931836	 2.8067521517	 0.120611
H	 0.7604328733	 1.5066589246	 2.8615773793	 0.131801
H	 2.5220567309	 3.2478653836	 1.3845813566	 0.116322
H	 1.5343845185	 3.1216197408	-1.8755447096	 0.133086
H	 1.7604618201	 1.3493823573	-2.0578299445	 0.132873
102.9091	147.2311	223.6059	254.8874	328.9545	382.8223	497.6457	560.9277	573.1286	647.2285	688.472	774.976	839.3387	871.0022	897.837	911.2844	926.4574	961.7205	1001.2234	1018.8337	1089.4042	1112.1333	1139.3697	1163.9508	1193.6442	1228.65	1278.053	1293.9049	1320.875	1329.4903	1474.8257	1490.3803	1508.7359	1747.8644	2349.3826	3032.5712	3036.4209	3068.0467	3085.8983	3100.5578	3128.6953	3211.5456
N#CC12CCC=C1CO2	N#C[C@@]12CC[CH][C]1CO2	
InChI=1S/C7H7NO/c8-5-7-3-1-2-6(7)4-9-7/h2H,1,3-4H2	InChI=1S/C7H7NO/c8-5-7-3-1-2-6(7)4-9-7/h2H,1,3-4H2/t7-/m0/s1
