18
gdb 65324	3.8641	1.04131	0.93325	2.1186	79.52	-0.2432	0.034	0.2772	1278.1012	0.145483	-401.86656	-401.85743	-401.856486	-401.900341	34.004	
C	-0.0644006351	 1.8043296625	 0.2285951177	-0.456818
C	-0.0971558755	 0.3034065837	 0.0514625191	 0.282963
N	 0.8811308014	-0.2689831249	-0.8719098286	-0.366754
C	 1.008935075	-0.5650689648	 0.581613633	-0.294818
C	 2.1458710161	-0.0391305436	 1.2832014368	 0.366153
C	 3.0842796119	 0.3885443713	 1.9017638549	-0.419656
C	-1.4773733658	-0.2979294952	 0.0686141592	-0.000421
C	-2.2288119635	-0.5396317669	-1.1706608738	-0.178648
O	-1.6015133578	-1.6174829173	-0.46105287	-0.237396
H	 0.9661960709	 2.1602025374	 0.263995915	 0.148095
H	-0.5754918661	 2.2990210409	-0.6040460548	 0.121134
H	-0.5632422293	 2.0982125186	 1.158776291	 0.119466
H	 0.4723559274	-1.0967158118	-1.3069320043	 0.243707
H	 0.7044684758	-1.5624949271	 0.8913429913	 0.121741
H	 3.9203204989	 0.7639617136	 2.4380085452	 0.196291
H	-2.0459278541	-0.1251422413	 0.9835924512	 0.104256
H	-3.3166979118	-0.5467726505	-1.1538255647	 0.124542
H	-1.7749682184	-0.2904555745	-2.1282010482	 0.126164
89.0085	119.9985	138.8883	174.4993	221.33	261.6236	309.6846	364.6658	417.1566	509.979	553.2527	606.7871	628.5346	656.4929	690.5146	829.051	846.582	882.4316	913.8464	964.1837	985.9184	1012.6368	1071.1032	1093.7991	1110.491	1139.2686	1161.9747	1175.2599	1236.9743	1274.4857	1289.0161	1340.3174	1417.0307	1431.3938	1435.4114	1486.3932	1495.2454	1527.0855	2238.8005	3036.888	3093.0288	3097.6738	3103.0386	3132.4783	3142.604	3184.3358	3464.5908	3503.8663
CC1(NC1C#C)C1CO1	C[C@]1(N[C@H]1C#C)[C@H]1CO1	
InChI=1S/C7H9NO/c1-3-5-7(2,8-5)6-4-9-6/h1,5-6,8H,4H2,2H3	InChI=1S/C7H9NO/c1-3-5-7(2,8-5)6-4-9-6/h1,5-6,8H,4H2,2H3/t5-,6+,7+/m0/s1
