17
gdb 31343	3.83582	1.19575	0.9494	5.2159	76.36	-0.218	0.0316	0.2496	1213.3113	0.138379	-418.003763	-417.995875	-417.994931	-418.037162	28.938	
O	 0.2616676847	 1.2022309335	-0.7658962684	-0.422164
C	 0.0709144362	 0.1279544806	 0.1365127003	-0.150975
C	-1.3634928244	-0.3052259307	 0.1785054999	 0.083181
C	-2.2038822498	-0.697410156	 1.1894827657	 0.26433
C	-2.7144108996	-1.005761893	 2.5919920758	-0.386558
C	-4.0872703803	-1.3158933504	 1.8832241453	-0.170027
N	-3.4071972994	-0.9852331575	 0.6086432226	-0.007574
C	-3.3090057438	-0.7626281207	-0.7268768815	-0.039486
N	-2.0798577815	-0.3618696793	-1.0054824338	-0.332468
H	-0.3512586979	 1.035332112	-1.4938239906	 0.29308
H	 0.7102293303	-0.7279730328	-0.1419386253	 0.092277
H	 0.3974296981	 0.4602196717	 1.1284701305	 0.099803
H	-2.2601735251	-1.8641832293	 3.0921607115	 0.131673
H	-2.7446157841	-0.1624954251	 3.2857331164	 0.134035
H	-4.4281209612	-2.3519975139	 1.9387804205	 0.136446
H	-4.9078312749	-0.637294733	 2.1261168192	 0.137868
H	-4.1100334974	-0.8986874861	-1.4358394781	 0.136559
39.3704	110.9817	175.7309	218.1342	271.1556	375.8002	416.5888	517.4541	646.7585	653.611	704.8096	757.5608	784.9371	804.9191	855.1849	909.1567	996.8319	1055.9623	1061.5825	1078.8712	1107.5545	1137.9243	1185.4841	1206.4011	1232.1869	1239.2631	1281.217	1297.0229	1348.8424	1386.4937	1409.9693	1450.904	1462.486	1487.6296	1513.1488	1514.4273	1625.7824	2945.9271	3055.5858	3068.6439	3072.9889	3114.1251	3131.8537	3264.6069	3765.5009
OCC1=C2CCN2C=N1	OCc1c2CCn2cn1	
InChI=1S/C6H8N2O/c9-3-5-6-1-2-8(6)4-7-5/h4,9H,1-3H2	InChI=1S/C6H8N2O/c9-3-5-6-1-2-8(6)4-7-5/h4,9H,1-3H2
