16
gdb 46685	3.13489	1.83458	1.42509	3.7754	68.96	-0.2536	0.0057	0.2593	907.4433	0.127012	-437.850031	-437.843514	-437.84257	-437.88091	26.206	
N	-0.1486496922	 1.278911063	 0.3177532917	-0.527229
C	 0.0137442725	 0.0796186807	-0.057647476	 0.430707
O	 1.1689135955	-0.3689235999	-0.6114050081	-0.258702
C	 1.3554600564	-1.7850590579	-0.8071715986	-0.095492
C	 0.1142215601	-2.5160707028	-1.2931478472	-0.106901
C	-0.9274857047	-2.9255474702	-0.2873794409	 0.08629
O	-0.8346528431	-2.0647092796	 0.8491903469	-0.298413
C	-1.1223015593	-0.9040116802	 0.0007942497	-0.002036
C	-1.2238797257	-1.8009149974	-1.2352320897	-0.148916
H	 0.7112887055	 1.8136941285	 0.1726046323	 0.220237
H	 2.156928386	-1.8537846875	-1.5451949167	 0.121566
H	 1.7081837448	-2.2163261456	 0.1356598392	 0.129093
H	 0.239111734	-3.1762664984	-2.1454052311	 0.105567
H	-1.3379521824	-3.9180369507	-0.150980574	 0.113304
H	-2.0345059527	-0.4042444676	 0.3239609053	 0.116961
H	-1.9061729347	-1.6957955644	-2.066052263	 0.113963
124.6525	195.7435	292.1362	405.6605	432.9794	490.2421	605.4648	677.6501	720.4928	755.2693	803.4634	845.9752	866.8885	897.8758	921.7381	956.5423	970.9996	1013.0298	1021.8884	1037.1198	1047.5348	1074.7644	1093.2567	1135.05	1165.3279	1237.8191	1272.8021	1289.5997	1294.9516	1322.9191	1342.3536	1421.6742	1436.5377	1499.275	1749.4532	3048.6856	3111.1122	3131.0634	3168.6158	3197.0351	3221.3587	3454.9975
N=C1OCC2C3OC1C23	[NH][C]1OC[C@H]2[C@H]3O[C@@H]1[C@@H]23	
InChI=1S/C6H7NO2/c7-6-5-3-2(1-8-6)4(3)9-5/h2-5,7H,1H2	InChI=1S/C6H7NO2/c7-6-5-3-2(1-8-6)4(3)9-5/h2-5,7H,1H2/t2-,3+,4-,5-/m1/s1
