20
gdb 36918	4.44651	0.90031	0.80321	1.395	79.54	-0.2447	0.0236	0.2683	1446.4388	0.172497	-403.148488	-403.140017	-403.139073	-403.18286	31.251	
C	 0.0207301105	 1.5295930262	-0.1216159597	-0.216925
C	-0.1547017928	 0.0284784117	-0.185861596	 0.035006
C	-0.2140561816	-0.7965551674	 1.0718800589	-0.231916
C	-1.4574016012	-0.6048508142	 0.239623978	-0.285333
C	 1.4825823074	 1.9854097239	-0.0078252563	 0.01833
C	 1.6609091293	 3.5265130578	-0.1122899834	-0.127295
O	 2.3892517836	 3.8872317789	 1.0860770006	-0.221102
C	 2.5146113797	 2.7326270755	 1.7835732589	 0.120959
N	 2.0726216303	 1.6470902323	 1.3061220609	-0.261934
H	-0.409726447	 1.9877801046	-1.0236108079	 0.094832
H	-0.5379943081	 1.9358012308	 0.731617599	 0.096139
H	 0.3404471866	-0.4371575241	-1.0352620779	 0.076885
H	 0.2624848701	-1.7704670332	 1.0713625829	 0.108181
H	-0.1396360683	-0.2691350664	 2.0156807458	 0.119715
H	-2.2340665129	 0.0472090154	 0.6269442681	 0.106187
H	-1.8334071113	-1.4458479998	-0.3327606086	 0.107484
H	 2.067929898	 1.4735400239	-0.7822593247	 0.087045
H	 2.2461048449	 3.8484190149	-0.9768835611	 0.119786
H	 0.7072244283	 4.0654245895	-0.1059017347	 0.114177
H	 3.0125510443	 2.8443589096	 2.7407711075	 0.13978
55.4795	63.7293	100.7899	160.9941	286.9358	321.6908	387.4008	413.3568	585.5996	724.5609	769.8858	793.4573	837.6579	847.6375	876.372	895.4608	938.1141	962.6369	967.4395	978.7364	1025.9361	1054.8391	1061.5509	1075.5055	1095.8444	1132.2828	1137.2802	1172.804	1196.3389	1223.8627	1232.1608	1262.5382	1297.4986	1318.4545	1336.1799	1373.4432	1382.1361	1422.8161	1470.6619	1478.0158	1510.5602	1517.1575	1707.5947	3003.0565	3017.3617	3043.7429	3050.2713	3101.6053	3126.7985	3129.0561	3143.1667	3207.5094	3212.2359	3229.0131
C(C1CC1)C1COC=N1	C(C1CC1)[C@H]1COC=N1	
InChI=1S/C7H11NO/c1-2-6(1)3-7-4-9-5-8-7/h5-7H,1-4H2	InChI=1S/C7H11NO/c1-2-6(1)3-7-4-9-5-8-7/h5-7H,1-4H2/t7-/m0/s1
