16
gdb 61788	2.12613	1.26461	0.8334	5.0866	66.81	-0.2911	-0.0107	0.2803	1314.935	0.120978	-475.048242	-475.038289	-475.037345	-475.08421	33.932	
C	-0.0418981872	 1.7061361262	 0.066462053	-0.400803
C	-0.0464250881	 0.1904652511	-0.0584470072	 0.074732
O	 0.636952085	-0.1829318134	-1.258111121	-0.190502
C	-0.0074259232	-0.9498733578	-2.1713393992	 0.177882
O	 0.4964533332	-1.2729921021	-3.2003277926	-0.259701
C	 0.6949715074	-0.4883649869	 1.1223178315	-0.009347
O	 0.1915637103	-0.0844692216	 2.3781986251	-0.405128
C	 0.65452859	-1.9554155967	 0.973693923	 0.253944
N	 0.5554338858	-3.1023525323	 0.8748112269	-0.308153
H	 0.9826453279	 2.086473528	 0.0188362666	 0.142492
H	-0.6129445586	 2.1520634984	-0.751490622	 0.134545
H	-0.4831450063	 2.0074634472	 1.0183068003	 0.1428
H	-1.0772776636	-0.1910297423	-0.0877205183	 0.096536
H	-1.0316341452	-1.2229792703	-1.8537711363	 0.089736
H	 1.7406993287	-0.1643014159	 1.0912338649	 0.158328
H	-0.6539066661	-0.5227346016	 2.5306582352	 0.302638
41.3832	59.2005	137.5999	153.203	205.6833	213.9675	255.2641	282.8329	323.3046	367.8907	383.8456	486.53	551.9582	599.0987	673.5466	860.1835	931.2406	980.2652	1036.8979	1074.824	1103.9456	1122.4387	1141.4262	1176.2867	1261.7492	1298.8579	1363.1187	1371.4411	1407.105	1416.889	1435.8184	1486.4158	1493.775	1876.6224	2357.3303	2959.9078	3007.5498	3054.2041	3072.9322	3128.5465	3146.5912	3801.5394
CC(OC=O)C(O)C#N	C[C@@H](OC=O)[C@@H](O)C#N	
InChI=1S/C5H7NO3/c1-4(9-3-7)5(8)2-6/h3-5,8H,1H3	InChI=1S/C5H7NO3/c1-4(9-3-7)5(8)2-6/h3-5,8H,1H3/t4-,5+/m1/s1
