20
gdb 73984	3.01352	1.53589	1.37642	1.0149	86.96	-0.1982	-0.0365	0.1617	1055.2971	0.169901	-365.903255	-365.894918	-365.893974	-365.935612	32.754	
C	-0.1863293323	 1.3908641227	-0.3401305663	-0.472447
C	-0.0977089376	 0.0378293226	 0.2860003924	 0.253968
C	-1.128473728	-0.8286021315	 0.4386893621	-0.124568
C	-1.7027204186	-1.3163957518	-0.9100345612	-0.276069
C	-0.6158065732	-2.4466100626	-0.7353545843	-0.094089
N	 0.6977077427	-2.1817091728	 0.0154768556	-0.158597
C	 1.183086496	-0.7942016741	 0.2257550866	-0.234109
C	-0.5637924832	-2.2469383321	 0.7295950812	 0.323027
C	-0.8393081129	-3.1422778089	 1.8965630551	-0.517521
H	 0.4062522846	 1.4530861008	-1.2629717244	 0.122787
H	-1.2227638019	 1.6608299	-0.5615110621	 0.129225
H	 0.2140948704	 2.1611040361	 0.3326470227	 0.133835
H	-2.6916632233	-1.7892718397	-0.8921798805	 0.108575
H	-1.6426111753	-0.6218991252	-1.7527915257	 0.102272
H	-0.6097439431	-3.3842780159	-1.283272977	 0.099711
H	 1.7920731397	-0.4400450249	-0.615236408	 0.11431
H	 1.8317887968	-0.8072446575	 1.1119593341	 0.114853
H	-0.42985888	-2.722409999	 2.8224597659	 0.122469
H	-1.916506202	-3.2755460873	 2.0427044596	 0.122603
H	-0.3844095788	-4.1239623889	 1.7374004342	 0.129766
123.9894	167.4315	195.9994	207.7158	253.5251	273.1867	379.0349	483.8698	493.4922	544.6608	594.6513	646.1542	751.6805	779.9039	836.281	849.5131	896.927	929.1745	941.3423	956.4256	964.9468	1023.6603	1038.1579	1061.8465	1075.0213	1110.7235	1131.163	1168.129	1203.0233	1225.2979	1229.0598	1241.3586	1313.6875	1396.0435	1402.3471	1434.3442	1462.3162	1476.1758	1483.9037	1486.4197	1493.9651	1504.6272	1603.4892	3005.524	3013.5698	3026.9891	3030.4513	3050.0703	3056.7667	3089.0834	3090.2628	3107.2193	3115.0309	3158.4031
CC1=C2CC3N(C1)C23C	C[C]1[C]2C[C@H]3N(C1)[C@@]23C	
InChI=1S/C8H11N/c1-5-4-9-7-3-6(5)8(7,9)2/h7H,3-4H2,1-2H3	InChI=1S/C8H11N/c1-5-4-9-7-3-6(5)8(7,9)2/h7H,3-4H2,1-2H3/t7-,8+,9?/m1/s1
