20
gdb 68285	2.29316	1.50035	1.43689	3.867	79.94	-0.2334	-0.0289	0.2045	1074.0672	0.169185	-403.076406	-403.067383	-403.066439	-403.109915	34.132	
C	-0.2721859174	 1.6400368619	-0.1390760697	-0.521966
C	-0.0556930178	 0.1498675067	-0.0438225881	 0.250504
C	 0.6452617569	-0.8151908826	-1.031749977	-0.215647
N	 0.2018180238	-1.7818312267	 0.0885129808	-0.167089
C	 0.7150255526	-0.6661492914	 1.020288338	-0.215241
C	-1.1319475009	-1.0032345704	 0.0808647931	 0.235096
C	-2.0201755364	-1.126999256	 1.323064312	-0.496471
C	-2.0344811783	-1.2530807983	-1.1132181727	 0.092261
O	-1.900722707	-2.1056823728	-1.9518683523	-0.24509
H	 0.6873943393	 2.1675249061	-0.1709433953	 0.127813
H	-0.8291150472	 1.9056192554	-1.0439428442	 0.125568
H	-0.8309385402	 2.0155390282	 0.7251749706	 0.123836
H	 0.1955454263	-1.0194289735	-2.0010157519	 0.128462
H	 1.7322700044	-0.735983118	-1.1098010954	 0.098096
H	 1.8048405367	-0.5813092804	 1.0114639273	 0.102368
H	 0.3462945258	-0.7178229116	 2.0440757481	 0.102085
H	-1.6269229857	-0.6077460343	 2.1975902338	 0.129029
H	-3.0147339611	-0.7137924704	 1.1243527515	 0.124382
H	-2.1447202495	-2.1844873279	 1.5780310485	 0.149648
H	-2.9091240644	-0.5584220242	-1.1406399969	 0.072355
86.8682	126.4239	153.0569	192.7116	199.8124	284.3779	323.3937	383.1588	410.425	478.7774	587.9786	598.2548	650.3604	708.8297	781.3374	808.3597	897.1873	905.0588	920.8215	932.0382	979.287	1011.5591	1035.4489	1064.3089	1108.1233	1150.8527	1173.7034	1189.0912	1193.2697	1199.6012	1225.8458	1262.1073	1323.6023	1404.4944	1408.3195	1429.641	1486.1205	1488.9681	1489.5409	1500.0138	1530.7057	1566.5611	1826.6988	2833.378	3028.1008	3041.8672	3067.5199	3077.2885	3096.8234	3099.0871	3102.1514	3128.7062	3145.6509	3165.9165
CC12CN(C1)C2(C)C=O	C[C@@]12CN(C1)[C@]2(C)C=O	
InChI=1S/C7H11NO/c1-6-3-8(4-6)7(6,2)5-9/h5H,3-4H2,1-2H3	InChI=1S/C7H11NO/c1-6-3-8(4-6)7(6,2)5-9/h5H,3-4H2,1-2H3/t7-/m1/s1
