20
gdb 80963	2.98275	1.26848	1.05567	4.3463	81.92	-0.2313	0.0165	0.2477	1209.9201	0.1697	-403.110796	-403.101831	-403.100886	-403.144188	33.877	
C	 0.007936619	 1.7056997018	 0.0234385929	-0.445017
C	-0.0406015282	 0.1884400174	 0.0462936632	 0.02045
C	 0.9682240416	-0.6963682702	-0.7557220056	-0.039229
C	 2.0703209065	-0.3485982519	 0.2868893559	-0.27683
C	 0.7663571625	-0.6606919903	 1.0940718269	 0.299566
C	 0.5630814888	-0.7628813735	 2.5772361256	-0.522082
N	 0.534153546	-1.8240108495	 0.1379551389	-0.095484
C	 1.1141179521	-3.0641572848	 0.1773633757	 0.123064
O	 1.5877847632	-3.6453917358	-0.7759955233	-0.322335
H	 1.0158788191	 2.1178981954	 0.1106303407	 0.121911
H	-0.4225402735	 2.0814571459	-0.9108229036	 0.128456
H	-0.591000448	 2.1167683916	 0.8434738891	 0.124373
H	-1.0677928099	-0.1727702347	-0.0556044085	 0.085145
H	 1.0619702251	-0.8317654187	-1.8308173938	 0.108413
H	 2.8753763915	-1.0795312971	 0.3810106283	 0.117432
H	 2.4533940036	 0.6727151439	 0.3115938015	 0.10145
H	 0.7138442687	 0.217011362	 3.0415325157	 0.13346
H	-0.4527899535	-1.0986171763	 2.8075093673	 0.136278
H	 1.2712411619	-1.46174848	 3.033421483	 0.132631
H	 1.0138430232	-3.5336897751	 1.1780947202	 0.068349
106.893	145.866	166.1553	191.008	205.3841	249.4496	321.9859	347.6814	377.3653	489.3713	593.2233	622.0166	670.036	755.8447	777.6607	804.5168	860.5332	911.8471	975.8716	1009.6869	1014.6454	1029.7399	1039.9527	1103.6657	1115.2054	1120.5859	1150.1608	1192.0755	1210.6593	1227.6911	1246.3577	1316.8252	1342.3934	1399.1954	1410.0409	1418.006	1427.7107	1483.32	1490.3809	1495.6278	1498.0093	1525.2897	1781.5499	2914.5189	3037.0639	3038.1732	3071.3313	3076.544	3095.0358	3107.5179	3111.8543	3120.7044	3143.5383	3152.0995
CC1C2CC1(C)N2C=O	C[C@H]1[C@H]2C[C@]1(C)N2C=O	
InChI=1S/C7H11NO/c1-5-6-3-7(5,2)8(6)4-9/h4-6H,3H2,1-2H3	InChI=1S/C7H11NO/c1-5-6-3-7(5,2)8(6)4-9/h4-6H,3H2,1-2H3/t5-,6+,7-/m0/s1
