21
gdb 69534	2.93541	1.53087	1.37169	1.3443	81.53	-0.2406	0.0778	0.3184	1048.8585	0.18354	-387.057099	-387.049245	-387.0483	-387.088614	33.163	
C	 0.0200468256	 1.4550603767	 0.0089423371	-0.478208
C	-0.0018830764	-0.0530060065	-0.0097747683	 0.371122
C	-0.86917086	-0.8267544601	 0.9575563727	-0.371036
C	 0.6341420927	-0.9421911995	 1.043038768	-0.099703
C	 1.3790124207	-1.9443732697	 0.1441582998	 0.408183
O	 2.0912668007	-2.9030180606	 0.8592283113	-0.4866
C	 0.3664797088	-2.2859100427	-0.9852625044	-0.308125
C	 0.5181847729	-0.7698307239	-1.2835329785	-0.09301
C	 2.0262061246	-0.9562198119	-0.9008605299	-0.28188
H	 0.9737135071	 1.8475199962	-0.3630588684	 0.114742
H	-0.7751863043	 1.871584495	-0.6215619463	 0.114924
H	-0.126249702	 1.842778629	 1.0222071659	 0.114439
H	-1.3266802105	-0.2245597252	 1.7376047626	 0.104393
H	-1.4891495038	-1.6607339251	 0.6521409263	 0.110363
H	 1.1678531388	-0.5527284452	 1.9029651012	 0.086872
H	 2.5456434937	-3.4727186121	 0.230262287	 0.277169
H	 0.8361289288	-2.8889311599	-1.7674722556	 0.085257
H	-0.6089520846	-2.7064450408	-0.7419164805	 0.096701
H	 0.2222017377	-0.3548902769	-2.2467029647	 0.061485
H	 2.5688575161	-0.0909474955	-0.5114351002	 0.093023
H	 2.6128185234	-1.4630368513	-1.6742279451	 0.07989
177.6832	207.4798	257.6643	292.0558	322.7018	379.3657	417.712	451.9142	523.0144	550.7769	569.3258	624.4009	711.3115	785.8404	842.8805	853.6857	907.7256	915.7584	927.956	956.6553	969.1941	981.4851	999.8938	1026.8447	1046.0199	1072.8669	1080.7307	1116.5041	1125.2917	1137.7856	1152.9976	1201.148	1220.2965	1223.151	1252.1451	1292.9766	1314.7277	1378.8213	1397.5417	1419.2199	1476.783	1487.0643	1500.4808	1500.7622	1537.1035	3018.1428	3043.3427	3067.0606	3074.3261	3095.0176	3109.2623	3115.9672	3124.8922	3133.9296	3172.0078	3207.7381	3815.1757
CC12CC1C1(O)CC2C1	C[C@]12C[C@H]1[C@@]1(O)C[C@@H]2C1	
InChI=1S/C8H12O/c1-7-4-6(7)8(9)2-5(7)3-8/h5-6,9H,2-4H2,1H3	InChI=1S/C8H12O/c1-7-4-6(7)8(9)2-5(7)3-8/h5-6,9H,2-4H2,1H3/t5-,6-,7-,8-/m1/s1
