17
gdb 67165	2.92609	1.55085	1.48343	4.5714	71.25	-0.2589	0.0105	0.2694	972.003	0.137313	-421.841266	-421.83411	-421.833166	-421.872676	28.315	
C	 0.0309565011	 1.5491310961	-0.1084657893	-0.519601
C	 0.004405991	 0.0558557943	 0.0016914286	 0.303933
C	 0.424275074	-1.0825256981	-0.9487272627	-0.151989
C	 1.2085671081	-1.7586891623	 0.1687363592	-0.23716
C	 0.466593239	-0.8276203619	 1.1986392943	-0.258024
C	-0.779244545	-1.5854653491	 1.6254837851	 0.446561
O	-1.0630914684	-2.0807943602	 2.6749985715	-0.343518
O	-1.5695440686	-1.7098647539	 0.5063543166	-0.231469
C	-1.0186588658	-0.8925954762	-0.5157243462	 0.052533
H	 1.0449026232	 1.9441153213	 0.017883415	 0.127437
H	-0.3312042888	 1.8714096515	-1.0901288022	 0.127494
H	-0.6069414916	 2.0141695044	 0.6518789994	 0.133825
H	 0.7011531526	-1.0369283039	-1.9958515832	 0.09312
H	 1.1064541558	-2.8404112103	 0.3013443631	 0.119552
H	 2.2673868441	-1.4965767299	 0.1255110708	 0.119338
H	 1.0406849046	-0.4127093895	 2.0220246122	 0.101116
H	-1.757531775	-0.5970679724	-1.2488350323	 0.116855
135.0893	195.0921	229.7015	272.0747	313.8018	459.3146	502.9303	572.7418	613.8687	730.6126	755.5324	800.5007	812.1136	853.1033	886.323	925.6477	947.4884	976.2115	1009.2312	1026.3572	1053.953	1075.2923	1103.4581	1142.4589	1161.704	1172.1244	1218.21	1233.1608	1284.5962	1296.2087	1329.4916	1414.6806	1461.2283	1484.3506	1495.853	1501.3042	1889.8898	3026.3888	3052.4846	3088.5551	3099.9437	3116.0547	3164.3971	3178.3694	3211.7601
CC12C3CC1C(=O)OC23	C[C@@]12[C@H]3C[C@@H]1C(=O)O[C@@H]23	
InChI=1S/C7H8O2/c1-7-3-2-4(7)6(8)9-5(3)7/h3-5H,2H2,1H3	InChI=1S/C7H8O2/c1-7-3-2-4(7)6(8)9-5(3)7/h3-5H,2H2,1H3/t3-,4+,5+,7+/m0/s1
