20
gdb 65082	3.08309	1.39497	1.2357	1.1431	78.92	-0.2321	0.0768	0.3089	1099.615	0.170548	-403.055812	-403.047505	-403.04656	-403.088961	32.528	
C	-0.0947111079	 1.4140828832	-0.3685601988	-0.484358
C	-0.0243031118	-0.0689395861	-0.0723071934	 0.115016
C	 1.147315295	-0.8559528303	-0.5385159406	-0.270276
N	 0.9655093689	-0.5781470818	 0.8980811959	-0.346273
C	-1.3505854081	-0.7438127985	 0.0421697443	 0.48401
C	-1.7025759847	-2.2448101166	 0.1983842948	-0.264808
C	-2.993311955	-1.4457075187	-0.0929488777	 0.042382
C	-2.5689269886	-0.3807507741	 0.9407089095	-0.267488
O	-2.2637669334	-0.6908162914	-1.1390491245	-0.356409
H	 0.9067318246	 1.8328471437	-0.5098927762	 0.109714
H	-0.6771672643	 1.5955139175	-1.2765894119	 0.148236
H	-0.5791165491	 1.9550575963	 0.4520402164	 0.12447
H	 1.0312724634	-1.8981662053	-0.8193548691	 0.120135
H	 1.9235821211	-0.322743975	-1.081186862	 0.111958
H	 1.5785695067	 0.1822930182	 1.183484141	 0.229621
H	-1.3663357925	-2.8863908816	-0.6170518477	 0.103442
H	-1.5804225627	-2.6974064149	 1.1843603964	 0.104064
H	-3.989416527	-1.8088150598	-0.3437463288	 0.094039
H	-2.5277126187	-0.6660564629	 1.9946358523	 0.09987
H	-2.9895542057	 0.612417548	 0.7786440903	 0.102658
43.4339	163.6184	181.4264	210.8977	301.9983	339.6421	393.238	463.3819	524.0972	549.2856	606.9851	732.1681	802.9836	812.2959	846.465	898.5206	919.4089	935.5771	950.0575	963.9538	985.7061	993.4287	1002.3199	1048.5243	1091.4872	1098.5293	1117.9627	1122.0633	1146.99	1155.8379	1204.5843	1229.0761	1240.7085	1245.1581	1267.3582	1352.4685	1411.1527	1426.9463	1466.5549	1480.2126	1500.8856	1510.4085	1521.0595	3031.0991	3063.956	3073.2563	3096.5529	3110.996	3114.3301	3124.8647	3145.9813	3152.4886	3198.392	3491.3147
CC1(CN1)C12CC(C1)O2	C[C@]1(CN1)[C@@]12C[C@@H](C1)O2	
InChI=1S/C7H11NO/c1-6(4-8-6)7-2-5(3-7)9-7/h5,8H,2-4H2,1H3	InChI=1S/C7H11NO/c1-6(4-8-6)7-2-5(3-7)9-7/h5,8H,2-4H2,1H3/t5-,6-,7+/m0/s1
