21
gdb 116398	2.54312	1.39641	0.9915	3.9298	80.13	-0.2241	0.0626	0.2867	1253.6748	0.185026	-420.465947	-420.456727	-420.455783	-420.500696	33.922	
C	-0.1482406013	 1.5622446596	 0.0758019905	-0.373356
C	 0.0637818873	 0.0502111513	-0.0396927115	-0.148863
N	 0.7670425777	-0.3389398853	-1.2569556414	-0.118618
C	-0.0317797121	-0.5586630574	-2.4555525206	-0.149904
C	 0.8253897223	-0.5290828577	-3.7181816696	-0.215867
C	 2.0310538877	-1.4456528641	-3.5349994255	-0.153797
N	 2.729531005	-1.0355858426	-2.3329730622	-0.359304
C	 2.1133721064	-0.6271677269	-1.1663633728	 0.466827
O	 2.7489543487	-0.4998251085	-0.1290257844	-0.433979
H	 0.816584614	 2.0743431693	 0.1229827008	 0.137555
H	-0.7084299425	 1.9604778628	-0.7772240634	 0.10852
H	-0.7100519771	 1.8009100531	 0.9848803678	 0.11285
H	 0.6572518989	-0.3060479809	 0.8032644374	 0.143857
H	-0.9015480617	-0.4725330161	-0.0209735514	 0.090803
H	-0.5662102845	-1.5211579957	-2.3889387647	 0.100577
H	-0.8002591553	 0.2212061154	-2.5102979721	 0.110116
H	 0.2272368326	-0.845592108	-4.5775238051	 0.105453
H	 1.1756272756	 0.4916078987	-3.9043039648	 0.118881
H	 1.6982486792	-2.4957538136	-3.4860861251	 0.100406
H	 2.7137240016	-1.3636578723	-4.3871324504	 0.110354
H	 3.6710505375	-1.3555637411	-2.1740209216	 0.247493
45.8619	78.3115	129.5771	140.5557	225.7684	306.9242	362.5636	367.6625	458.2947	464.8852	511.3214	553.7505	672.9869	716.1447	756.9196	786.0104	892.9754	903.8032	933.2943	979.1389	1000.357	1092.0368	1104.5574	1120.8772	1142.1344	1204.3408	1211.7379	1242.4024	1265.885	1304.0025	1327.8011	1367.6577	1379.7264	1395.9506	1399.8904	1410.464	1458.4317	1468.5351	1482.1961	1488.3837	1492.1947	1502.3536	1525.5784	1538.0505	1768.2274	2958.2599	2965.0752	3019.0268	3034.6252	3042.0628	3053.5309	3066.3541	3096.3753	3102.0412	3118.821	3132.3442	3648.1336
CCN1CCCNC1=O	CCN1CCCNC1=O	
InChI=1S/C6H12N2O/c1-2-8-5-3-4-7-6(8)9/h2-5H2,1H3,(H,7,9)	InChI=1S/C6H12N2O/c1-2-8-5-3-4-7-6(8)9/h2-5H2,1H3,(H,7,9)
