17
gdb 92078	2.69722	1.57972	1.15661	3.3247	67.57	-0.2665	-0.0313	0.2352	1050.9344	0.136454	-458.97481	-458.967119	-458.966175	-459.007265	29.658	
O	 0.0461977289	 1.4109181664	 0.1152672872	-0.440133
C	 0.0078260408	 0.0197389122	-0.0165056607	 0.049371
C	-1.4391417292	-0.5127549853	 0.0759447102	-0.252292
C	-1.5959541636	-1.9348737887	-0.4278601644	 0.025494
O	-1.6993854283	-2.0804521655	-1.8516961838	-0.246815
C	-0.5424876738	-2.6126279629	-1.2089936702	 0.05175
C	 0.7565676878	-1.914326511	-1.5519735871	-0.342989
C	 0.6740244953	-0.4186431689	-1.3164563965	 0.366667
O	 1.1361869378	 0.4081893566	-2.0701814404	-0.328069
H	 0.49285666	 1.7296856508	-0.6864446309	 0.29291
H	 0.5923868495	-0.4544159162	 0.7930637871	 0.091463
H	-1.7741346495	-0.4403345905	 1.1146137059	 0.11758
H	-2.0828855088	 0.1453858502	-0.5165228385	 0.137845
H	-2.2973030547	-2.562609188	 0.1214759062	 0.101977
H	-0.4965753213	-3.7020547032	-1.1910501531	 0.098981
H	 1.5606988216	-2.3111316862	-0.9165057935	 0.13371
H	 1.0388984178	-2.09851568	-2.5926462175	 0.14255
75.2825	107.6516	296.4286	318.54	353.2047	363.7299	421.9439	446.5094	524.591	562.4926	614.1643	731.2015	780.9152	813.5505	825.0772	879.3595	982.4161	1002.3058	1014.7198	1040.3537	1088.9336	1124.331	1151.9435	1185.0781	1208.9309	1236.3729	1277.7173	1292.1753	1325.2605	1330.9826	1363.0636	1386.1816	1443.7852	1452.0981	1469.7163	1484.8083	1811.558	2939.4436	3025.735	3056.1683	3095.3731	3099.3019	3103.4995	3116.9972	3672.4788
OC1CC2OC2CC1=O	O[C@H]1C[C@H]2O[C@H]2CC1=O	
InChI=1S/C6H8O3/c7-3-1-5-6(9-5)2-4(3)8/h3,5-7H,1-2H2	InChI=1S/C6H8O3/c7-3-1-5-6(9-5)2-4(3)8/h3,5-7H,1-2H2/t3-,5+,6-/m0/s1
