22
gdb 107179	3.30638	1.17531	1.09718	1.8273	85.99	-0.1988	0.0761	0.2749	1255.1711	0.193504	-367.12727	-367.118037	-367.117093	-367.161564	35.323	
C	-0.0419658723	 1.5969774567	-0.1592594503	-0.377745
C	-0.064157611	 0.0764845548	 0.0497863751	-0.3054
C	 0.6751831512	-0.381560457	 1.2720388255	 0.358242
N	 0.3791012112	-1.6732496157	 1.9415898819	-0.38937
C	 0.3097785579	-0.3916180817	 2.7037440475	-0.123148
C	 1.7418508829	 0.0410004789	 3.1156007942	-0.082559
C	 2.8517333113	-0.861629928	 2.6326129831	-0.013758
C	 2.9743676274	-2.3823093125	 2.697408195	-0.387011
C	 2.1385183132	 0.0262763913	 1.6354106558	-0.132372
H	 0.97865886	 1.9690884284	-0.2902209203	 0.123506
H	-0.6117071728	 1.8738236991	-1.0513823471	 0.113718
H	-0.4796185639	 2.1176905405	 0.6983340641	 0.119083
H	-1.1053690271	-0.264731621	 0.1263708535	 0.092267
H	 0.3564883758	-0.4214367654	-0.8352662577	 0.10615
H	-0.5827427537	-1.9135478951	 1.6969401476	 0.218748
H	-0.6047473286	-0.0908995816	 3.1995621052	 0.087508
H	 1.9085183206	 0.830987561	 3.8380308824	 0.082927
H	 3.799201437	-0.3766351759	 2.8708191322	 0.086375
H	 2.2146077441	-2.8276722668	 3.338732222	 0.12988
H	 2.8684798174	-2.8385735386	 1.7109849037	 0.120641
H	 3.9608328688	-2.6516016069	 3.092011394	 0.089729
H	 2.6662223806	 0.7975673155	 1.0872118728	 0.08259
56.2683	78.5534	129.8962	185.789	227.3385	265.9629	319.7986	421.5361	433.9951	519.5614	559.8149	683.4755	696.2364	713.8078	770.8175	824.3753	851.1623	885.2376	894.4875	924.4159	950.1163	964.8887	995.129	1022.6205	1034.9276	1064.5886	1084.048	1090.5591	1113.9181	1114.6533	1153.7425	1206.8432	1224.367	1273.301	1302.408	1326.0179	1346.2272	1366.1535	1407.5263	1413.054	1431.6507	1458.6723	1476.7493	1488.6313	1490.5044	1499.5624	1508.2187	3004.1786	3035.4642	3037.6556	3039.2863	3094.5967	3109.1972	3110.4846	3113.7584	3148.4812	3171.8339	3181.1364	3190.8124	3450.1374
CCC12NC1C1C(C)C21	CC[C@]12N[C@H]1[C@H]1[C@@H](C)[C@@H]21	
InChI=1S/C8H13N/c1-3-8-6-4(2)5(6)7(8)9-8/h4-7,9H,3H2,1-2H3	InChI=1S/C8H13N/c1-3-8-6-4(2)5(6)7(8)9-8/h4-7,9H,3H2,1-2H3/t4-,5+,6-,7+,8-/m1/s1
