15
gdb 27074	3.24762	1.3956	0.98394	2.4824	71.49	-0.1878	0.0096	0.1975	1117.6052	0.11585	-450.189223	-450.181395	-450.180451	-450.222103	29.314	
N	-0.4849922007	 0.6577121852	-1.2452678193	-0.628151
C	-0.2094059946	-0.3732783133	-0.3447550626	 0.225328
C	-0.9590068847	-1.2746564428	 0.3825131415	 0.304024
N	-2.3484102009	-1.4408776032	 0.5250597874	-0.388045
C	-3.357951381	-0.9073929188	-0.2001820479	 0.141186
O	-3.2549729067	-0.1079391982	-1.1163390538	-0.335753
N	-0.1569425411	-2.1487446936	 1.075947289	-0.321461
C	 1.0732890302	-1.7974479234	 0.7885256275	 0.00546
N	 1.0964573642	-0.7396643679	-0.0703701749	-0.269185
H	-1.4804347348	 0.6366977125	-1.4673694974	 0.276289
H	-0.2508510427	 1.5718629527	-0.8686287909	 0.238099
H	-2.5893110172	-2.1314378441	 1.2216788762	 0.263507
H	-4.3389384324	-1.2838215386	 0.1418229159	 0.088694
H	 1.9700989002	-2.2542558994	 1.176959092	 0.132454
H	 1.901933732	-0.323139547	-0.5071590526	 0.267554
39.4138	212.0724	229.8511	271.4354	286.6337	349.6789	411.4471	446.4196	520.8846	615.6399	620.3935	660.2838	720.9084	729.9924	773.3	871.136	911.4408	955.001	1009.2015	1093.8589	1125.9298	1177.975	1240.8183	1295.0321	1303.0875	1409.0484	1433.0641	1474.9066	1516.6498	1572.5203	1643.1024	1679.6305	1775.3979	2971.5786	3260.5836	3437.2116	3529.8355	3613.5572	3663.1352
NC1=C(NC=O)N=CN1	Nc1c(NC=O)nc[nH]1	
InChI=1S/C4H6N4O/c5-3-4(8-2-9)7-1-6-3/h1-2H,5H2,(H,6,7)(H,8,9)	InChI=1S/C4H6N4O/c5-3-4(8-2-9)7-1-6-3/h1-2H,5H2,(H,6,7)(H,8,9)
