17
gdb 73731	2.71402	1.9293	1.41258	1.2819	66.94	-0.2246	0.059	0.2836	925.8234	0.136831	-458.904171	-458.897125	-458.896181	-458.93519	28.646	
O	-0.0026897966	 1.3218969119	 0.0188581466	-0.459141
C	 0.0185248957	-0.0785298061	 0.0143938322	 0.311568
C	 1.112541306	-0.6699579218	-0.8610694164	-0.137569
O	 1.1044691181	-2.0817361627	-0.9564511459	-0.238879
C	-0.1686546166	-2.6748309454	-1.1120878622	-0.090647
C	-1.1439497332	-2.1866563464	-0.0486753406	 0.072452
O	-0.4947389843	-2.140043467	 1.2600076467	-0.291141
C	-0.5839976351	-0.7194989498	 1.2533428353	 0.031705
C	-1.3637626593	-0.6650918927	-0.0383648278	-0.202556
H	 0.7361009742	 1.6294577411	 0.5566881805	 0.290265
H	 1.0066079813	-0.203880579	-1.8561622215	 0.096673
H	 2.1046057702	-0.4062371069	-0.4748381341	 0.102769
H	-0.600674906	-2.476286371	-2.1087965608	 0.091169
H	 0.0010053873	-3.751826735	-1.0199619141	 0.118229
H	-2.0556500851	-2.7906296294	-0.0156487902	 0.090479
H	-0.7014828385	-0.2003223857	 2.1978464603	 0.108391
H	-2.2463583784	-0.1155323938	-0.3349683481	 0.106234
183.6768	233.3707	305.9688	333.4199	348.1979	385.8733	418.1979	477.6124	559.263	682.0771	736.237	772.0401	833.7772	875.6781	900.4885	915.8795	957.691	1019.0306	1020.8497	1032.4418	1063.0451	1081.3381	1094.6991	1157.2553	1166.817	1224.8624	1236.8682	1260.8125	1272.5992	1318.3884	1328.025	1335.7218	1385.3802	1416.6922	1448.7028	1485.7971	1499.8973	2955.2538	2961.0079	3048.5928	3064.7127	3085.2328	3178.6644	3210.6157	3789.0079
OC12COCC3OC1C23	O[C@@]12COC[C@H]3O[C@@H]1[C@@H]23	
InChI=1S/C6H8O3/c7-6-2-8-1-3-4(6)5(6)9-3/h3-5,7H,1-2H2	InChI=1S/C6H8O3/c7-6-2-8-1-3-4(6)5(6)9-3/h3-5,7H,1-2H2/t3-,4+,5-,6-/m1/s1
