13
gdb 20750	5.66782	1.65139	1.28899	1.5343	65.54	-0.2576	-0.0918	0.1657	892.0225	0.095396	-394.760565	-394.75366	-394.752716	-394.791865	25.211	
C	-0.2612640599	 1.4718192608	 0.0188952988	-0.451226
C	 0.037144304	 0.0056605238	-0.0295311779	 0.392146
N	 0.0758011029	-0.5512200437	-1.1886620907	-0.118879
O	 0.3568233623	-1.9299240106	-1.2221918459	-0.277309
C	 0.5781521994	-2.6417592034	-0.0715480021	 0.391262
N	 0.8337186004	-3.8844246543	-0.0673499996	-0.515562
C	 0.5010551852	-1.871905003	 1.1686023996	-0.002781
N	 0.2462807485	-0.6181507169	 1.2114726531	-0.263348
H	 0.5628975036	 2.0007702898	 0.5082453555	 0.149665
H	-0.4086408862	 1.8687594016	-0.9853730739	 0.151151
H	-1.1587192677	 1.6467034931	 0.6209644364	 0.149674
H	 0.8492495419	-4.2619170669	-1.0169189468	 0.237064
H	 0.6746939257	-2.4243092003	 2.0899707834	 0.158143
70.5043	176.8259	289.2396	310.1242	325.6228	427.9655	493.5696	526.3605	625.8319	743.3903	770.3256	800.6823	880.8104	931.054	953.2669	988.56	1067.8386	1070.047	1100.3807	1283.423	1339.7636	1366.0555	1414.0666	1469.0715	1472.5182	1612.3223	1682.6744	1728.1336	3047.442	3106.1268	3161.0145	3164.8861	3474.1631
CC1=NOC(=N)C=N1	CC1=NOC(=C[N]1)[NH]	
InChI=1S/C4H5N3O/c1-3-6-2-4(5)8-7-3/h2,5H,1H3	InChI=1S/C4H5N3O/c1-3-6-2-4(5)8-7-3/h2,5H,1H3
