21
gdb 15420	5.41753	0.93926	0.87143	2.0353	75.87	-0.2275	0.088	0.3155	1387.5914	0.187848	-366.228225	-366.21877	-366.217826	-366.263269	33.999	
C	 0.3354810446	-2.7968549814	 0.1744576906	-0.381354
C	-0.0655415068	-1.4709499791	 0.8322627594	-0.199115
C	-1.5493073483	-1.1989609822	 0.6817177389	 0.030733
C	-2.5264424548	-1.626468488	 1.7206302687	-0.2569
N	-2.2690815886	-0.2045657883	 1.4808379094	-0.117029
C	-1.563504995	 0.5488693907	 2.5173009826	-0.135535
C	-2.5676639023	 1.4333645133	 3.2555462468	-0.060284
O	-3.6118670984	 0.6792131805	 3.8457582587	-0.42288
H	 1.412074594	-2.9709263655	 0.2611623983	 0.114994
H	-0.1826702688	-3.6405833765	 0.6417361511	 0.120935
H	 0.0820143758	-2.8015142052	-0.8912838694	 0.118355
H	 0.2134706779	-1.4872020822	 1.8906544841	 0.101301
H	 0.5012271121	-0.650125697	 0.3729128355	 0.102241
H	-1.8853695184	-1.216255387	-0.3559367129	 0.086197
H	-3.514101864	-1.9907131011	 1.4475950889	 0.110013
H	-2.1213768691	-2.061965735	 2.6335465149	 0.113335
H	-1.0504513749	-0.0992590859	 3.2448395904	 0.091755
H	-0.8071220776	 1.1859635436	 2.0419848016	 0.098015
H	-2.0655908031	 1.9636681342	 4.0719618822	 0.101609
H	-2.9662236771	 2.1846367275	 2.5570558463	 0.091181
H	-4.0802526471	 0.2558842844	 3.1182454139	 0.292431
36.306	77.3491	106.4425	147.3587	217.712	259.4559	276.6842	347.2659	414.3621	439.0265	471.4638	583.9811	733.0419	779.556	814.8989	890.0911	916.9892	931.7359	962.3633	1012.3745	1048.048	1065.4564	1083.9305	1113.5774	1123.9313	1148.731	1169.3273	1192.0828	1230.9853	1274.2981	1292.513	1331.1459	1346.7281	1385.0633	1396.7447	1409.2966	1424.1325	1429.9208	1477.1549	1485.1544	1497.2914	1498.6037	1507.1748	1514.0539	2974.8266	2992.278	3020.6612	3033.9791	3052.1166	3069.31	3074.5903	3085.9234	3091.997	3105.5086	3108.776	3169.4851	3812.3121
CCC1CN1CCO	CC[C@H]1CN1CCO	
InChI=1S/C6H13NO/c1-2-6-5-7(6)3-4-8/h6,8H,2-5H2,1H3	InChI=1S/C6H13NO/c1-2-6-5-7(6)3-4-8/h6,8H,2-5H2,1H3/t6-,7?/m0/s1
