15
gdb 27577	3.38967	1.29086	0.94027	2.3026	84.93	-0.2506	-0.049	0.2016	1197.6896	0.112652	-379.698497	-379.690414	-379.68947	-379.731897	29.505	
C	 0.0047444951	 1.4991524091	-0.0132351389	-0.476816
C	-0.0038477883	-0.0035655495	 0.0293230588	 0.319475
N	 0.0520672129	-0.6392833623	-1.1468097468	-0.324523
C	 0.0448928252	-1.9780304697	-1.1183801002	 0.164861
N	-0.013001398	-2.7547837549	-0.0244155841	-0.284052
C	-0.0681229673	-2.1057646212	 1.136924039	 0.001643
C	-0.0665922354	-0.7193006145	 1.2258260564	-0.166178
C	 0.1051039262	-2.6508511835	-2.3838301748	 0.257152
C	 0.1555373247	-3.2157242177	-3.4438979497	-0.344156
H	 0.9113179292	 1.8548968819	-0.5124862377	 0.151095
H	-0.844514098	 1.8624545536	-0.6001338802	 0.151095
H	-0.043335469	 1.9339548939	 0.9875197663	 0.123346
H	-0.1154026474	-2.7227331817	 2.0317975025	 0.119717
H	-0.1122307348	-0.2162074867	 2.1844168868	 0.109632
H	 0.200090485	-3.7148506469	-4.3803782575	 0.197708
41.5933	128.0369	148.0525	194.0585	342.1623	342.6714	462.1058	516.783	545.7952	562.3148	635.5045	646.8063	655.1797	747.5735	830.2115	853.9971	924.419	1000.77	1008.203	1034.5064	1060.3354	1123.3043	1249.9293	1266.5284	1315.4737	1393.5654	1411.4602	1462.5807	1473.7359	1483.2578	1595.9909	1606.8677	2239.8844	3045.8521	3108.8859	3132.8576	3152.7741	3202.0503	3502.6063
CC1=NC(=NC=C1)C#C	Cc1nc(ncc1)C#C	
InChI=1S/C7H6N2/c1-3-7-8-5-4-6(2)9-7/h1,4-5H,2H3	InChI=1S/C7H6N2/c1-3-7-8-5-4-6(2)9-7/h1,4-5H,2H3
