14
gdb 125798	3.41543	1.66514	1.12724	2.8625	70.16	-0.2327	-0.0258	0.2069	1007.0776	0.102523	-436.682543	-436.675732	-436.674788	-436.71384	25.974	
C	-0.014974943	 1.5056384877	-0.0317539575	-0.505008
C	-0.0079798906	 0.0165001215	 0.0679461908	 0.242886
N	-0.0417941273	-0.7237566857	-1.0274321574	-0.202242
O	-0.0258833314	-2.0903451306	-0.6392797581	-0.23845
C	 0.0181030781	-2.1127200086	 0.6971082459	 0.359539
C	 0.0311062944	-0.8423087207	 1.1902632952	 0.165139
O	 0.0756810226	-0.8463152431	 2.5479440183	-0.201827
C	 0.0901748993	-2.1758231582	 2.8864050882	 0.006808
C	 0.0565688984	-3.0109498917	 1.8029894525	-0.35837
H	 0.8839021332	 1.9306563937	 0.4261767892	 0.14429
H	-0.0533237158	 1.8063426098	-1.0799841902	 0.156473
H	-0.8804386868	 1.9266540754	 0.4897715552	 0.144219
H	 0.1254366917	-2.3750260322	 3.9453340721	 0.148278
H	 0.059870147	-4.0879299974	 1.8239990259	 0.138265
133.0908	171.1616	240.2114	274.7091	404.6005	519.5169	598.1563	610.7884	626.6824	677.0219	738.6772	765.6298	795.5232	826.6599	890.9073	913.635	1025.4678	1043.8601	1065.5128	1114.2738	1158.771	1241.1094	1322.0703	1409.8674	1417.5299	1472.0876	1480.5215	1489.6088	1533.2802	1570.0769	1623.7335	3045.2825	3102.4101	3145.191	3268.1264	3286.8085
CC1=NOC2=C1OC=C2	Cc1noc2c1occ2	
InChI=1S/C6H5NO2/c1-4-6-5(9-7-4)2-3-8-6/h2-3H,1H3	InChI=1S/C6H5NO2/c1-4-6-5(9-7-4)2-3-8-6/h2-3H,1H3
