19
gdb 91989	2.69622	1.49835	1.22004	2.047	80.5	-0.2479	0.0572	0.3051	1083.4424	0.159473	-385.85008	-385.841731	-385.840787	-385.882594	33.114	
O	-0.1714444821	 1.0759284838	 1.4176677908	-0.4099
C	-0.0619360556	 0.1645499307	 0.3325021764	 0.074135
C	 0.9217276794	-0.9949688966	 0.6223132731	-0.246877
C	 0.0946681017	-2.0891448228	 1.2820022976	-0.042354
C	-0.8418871254	-1.692002405	 2.3994968347	-0.285336
C	-1.3619864197	-1.8129734877	 0.9906879895	-0.036793
C	-1.4379873814	-0.5426500185	 0.1363069371	-0.192283
C	-2.6000112345	 0.3025781137	 0.3773759287	 0.351272
C	-3.5849378514	 0.9682632807	 0.5530270385	-0.46543
H	 0.6956486272	 1.4688842268	 1.5586000756	 0.283659
H	 0.2150929871	 0.7094714727	-0.5800304479	 0.075251
H	 1.3424306802	-1.3668107305	-0.3201181431	 0.099666
H	 1.7625136215	-0.6455938648	 1.2341274104	 0.09004
H	 0.4830013385	-3.1016444752	 1.2663707904	 0.080674
H	-1.1346677111	-2.4741107591	 3.0918973406	 0.104501
H	-0.7487567982	-0.7047165466	 2.8338549865	 0.139252
H	-2.0596416767	-2.6078908693	 0.7540815957	 0.087768
H	-1.4687085204	-0.8659511208	-0.9138523339	 0.10424
H	-4.4451743293	 1.5666628085	 0.7224591993	 0.188515
102.7428	141.6589	202.8985	261.1809	282.9453	355.7593	384.6608	398.6507	507.3083	534.6544	615.8028	631.4542	645.9285	763.6582	784.2821	814.0595	833.2409	872.774	921.7924	955.0002	993.907	1036.2621	1052.1457	1070.0109	1074.1788	1092.853	1110.2849	1140.1889	1201.2937	1208.4818	1227.5913	1289.4364	1301.2341	1326.6687	1328.8825	1372.5022	1393.236	1424.7058	1478.127	1490.9805	2238.8224	2996.5545	3009.0384	3026.7232	3060.8194	3140.6176	3163.411	3176.9186	3237.4422	3506.4337	3820.4812
OC1CC2CC2C1C#C	O[C@H]1C[C@H]2C[C@H]2[C@H]1C#C	
InChI=1S/C8H10O/c1-2-6-7-3-5(7)4-8(6)9/h1,5-9H,3-4H2	InChI=1S/C8H10O/c1-2-6-7-3-5(7)4-8(6)9/h1,5-9H,3-4H2/t5-,6-,7-,8+/m1/s1
