27
gdb 101824	2.87076	0.69233	0.58403	1.0056	93.86	-0.2478	0.0853	0.3331	2046.7216	0.248852	-390.700017	-390.687822	-390.686877	-390.738425	43.686	
C	-0.2026007088	 1.3635448296	-0.0327753923	-0.233185
O	 0.0769284904	-0.01523729	-0.035974387	-0.242452
C	 0.6784555722	-0.5121342507	 1.1563486995	 0.141429
C	-0.3494727288	-0.6713768009	 2.2803422233	-0.402671
C	 1.3438429533	-1.8425294363	 0.7947515182	-0.20052
C	 2.4727630302	-1.6963753888	-0.2312721124	-0.170207
C	 3.0493061222	-3.0225737147	-0.757689898	 0.041744
C	 4.0376793301	-2.7591055957	-1.9020108086	-0.387598
C	 3.7148056005	-3.8584332408	 0.3453661592	-0.380401
H	 0.6989344674	 1.9618751583	 0.1749041097	 0.101337
H	-0.570378557	 1.6198265266	-1.0299480236	 0.124455
H	-0.9735764437	 1.6419684684	 0.7009896856	 0.103987
H	 1.4582531579	 0.1993693856	 1.4819595818	 0.058097
H	 0.1309338067	-1.0472318794	 3.1893201344	 0.113145
H	-0.8282766325	 0.2799549144	 2.5293816784	 0.113287
H	-1.1297207561	-1.3791807333	 1.9823751679	 0.121588
H	 1.7157968412	-2.2999232112	 1.7184439308	 0.092072
H	 0.5674329332	-2.5117235531	 0.4000567164	 0.099122
H	 2.0866864317	-1.1157859208	-1.0759318833	 0.106879
H	 3.2884853119	-1.1016899943	 0.2066342515	 0.080028
H	 2.2122785133	-3.6083829249	-1.1656029573	 0.069762
H	 4.8972995517	-2.1758889348	-1.549535751	 0.108432
H	 4.4229099407	-3.6952356912	-2.3200816279	 0.105667
H	 3.5658515422	-2.1960660972	-2.7141081993	 0.109285
H	 4.5406236595	-3.3042241448	 0.8087632093	 0.107544
H	 3.0116730515	-4.1325454515	 1.1375535081	 0.111681
H	 4.1287621692	-4.7869803386	-0.0620474436	 0.107494
32.6463	71.347	76.1076	126.5393	135.0567	199.389	219.5636	227.1809	243.5621	260.7229	298.4517	308.3973	401.3581	411.8965	434.3486	497.4056	532.0184	751.6464	825.1269	835.539	912.5949	925.9239	938.186	954.3559	966.8537	1033.0974	1048.1505	1083.5429	1119.1107	1145.3505	1152.6985	1180.5901	1190.3724	1193.8722	1219.7879	1257.6376	1281.3586	1324.1442	1339.9815	1366.9758	1377.2711	1386.034	1398.4684	1400.383	1405.1561	1421.0998	1470.9324	1477.864	1482.7575	1486.7537	1490.3711	1494.4719	1500.9103	1504.3583	1504.5463	1511.7388	1513.4024	2942.1188	2973.6262	2990.131	3002.2558	3020.6455	3020.8807	3022.2488	3026.3361	3038.9844	3059.932	3079.5012	3084.5196	3091.0311	3098.0826	3104.4144	3106.1281	3109.6563	3113.4519
COC(C)CCC(C)C	CO[C@@H](C)CCC(C)C	
InChI=1S/C8H18O/c1-7(2)5-6-8(3)9-4/h7-8H,5-6H2,1-4H3	InChI=1S/C8H18O/c1-7(2)5-6-8(3)9-4/h7-8H,5-6H2,1-4H3/t8-/m0/s1
