20
gdb 13934	3.17936	1.76648	1.42537	1.9716	74.29	-0.2409	0.0691	0.31	965.516	0.177167	-348.974529	-348.966481	-348.965536	-349.007252	30.202	
C	-0.0936865133	 1.5652612163	-0.1774154447	-0.419759
C	 0.0557028166	 0.0578204194	-0.0452714894	-0.01284
C	 1.1043071202	-0.6857121007	-0.9193829667	-0.232395
C	 1.4045315757	-1.6065393958	 0.2923217894	-0.292099
C	 0.7226609451	-0.5682110124	 1.2158212736	 0.29722
C	 1.5878033563	 0.2765903747	 2.179733493	-0.125988
O	 0.8140941191	-0.1461836767	 3.3201740742	-0.275217
C	-0.0527660392	-0.9436006067	 2.4886810665	-0.141797
H	 0.873419409	 2.0735466875	-0.0991016027	 0.114871
H	-0.5244619446	 1.8273885854	-1.1500046502	 0.116336
H	-0.7510475455	 1.9758189891	 0.5975421878	 0.119794
H	-0.9252787306	-0.4175837135	-0.175583654	 0.071878
H	 0.7570081928	-1.1533132932	-1.8436563117	 0.096612
H	 1.95469174	-0.0382788753	-1.1574290004	 0.099936
H	 0.8353963913	-2.5409387527	 0.2504656103	 0.101203
H	 2.4497539457	-1.8481486209	 0.504125839	 0.099589
H	 2.6390622604	-0.0320748456	 2.2587415473	 0.094801
H	 1.5476351352	 1.3647992372	 2.0438730893	 0.097898
H	-1.0942324381	-0.5934002586	 2.5248827834	 0.094003
H	-0.027028046	-2.0070896777	 2.763634076	 0.095953
63.6715	95.3787	211.5966	219.4074	253.4716	331.2888	386.7479	478.6937	491.5387	660.6738	765.3242	851.5503	869.5915	886.3433	893.8098	948.2884	953.2637	957.2947	992.6695	1040.7864	1061.4587	1106.2294	1150.474	1161.2333	1163.1016	1184.7646	1192.5277	1217.8185	1252.4523	1269.4819	1276.2023	1301.4037	1310.9786	1373.1908	1385.4359	1407.9729	1478.9916	1492.1251	1495.2771	1498.5264	1509.14	1532.6845	2987.8688	3003.4902	3017.1048	3024.9781	3031.7653	3044.2185	3045.7544	3050.7825	3091.343	3092.6075	3094.8793	3109.6816
CC1CCC11COC1	C[C@H]1CCC21COC2	
InChI=1S/C7H12O/c1-6-2-3-7(6)4-8-5-7/h6H,2-5H2,1H3	InChI=1S/C7H12O/c1-6-2-3-7(6)4-8-5-7/h6H,2-5H2,1H3/t6-/m0/s1
