16
gdb 115259	4.91497	0.9027	0.82015	3.6559	75.04	-0.2784	-0.058	0.2203	1372.143	0.123998	-437.896048	-437.887477	-437.886533	-437.929923	30.178	
C	 0.0505328941	 1.2648210473	-0.2963394969	-0.243675
O	-0.0720118612	-0.1413049928	-0.1427675814	-0.237968
C	-1.3647591642	-0.5575331204	 0.1877226008	 0.191025
O	-2.2928010076	-0.3956431549	-0.8760718635	-0.265481
C	-2.5649560933	-1.6445595032	-1.4928526349	-0.171577
C	-1.9852425282	-2.6681868791	-0.538347596	 0.189904
C	-1.3262210799	-2.0422994699	 0.4378003702	-0.222971
C	-2.1346525514	-4.066436669	-0.7248775138	 0.210957
N	-2.2799247215	-5.2006316719	-0.9081465125	-0.323322
H	 1.1030706425	 1.4704910722	-0.4992683576	 0.134286
H	-0.5604073803	 1.6294169664	-1.1300048891	 0.131218
H	-0.2486159922	 1.7929911683	 0.621168827	 0.110812
H	-1.740534513	 0.0394726505	 1.0341691388	 0.083992
H	-3.6489182199	-1.752699167	-1.615731913	 0.136162
H	-2.1001621363	-1.7185161712	-2.4863143443	 0.133879
H	-0.7837399175	-2.4937999453	 1.2557881363	 0.142759
75.6952	103.1092	132.6694	168.9734	186.9006	267.4874	347.3299	443.6002	525.7175	544.6585	560.9107	590.5427	805.8957	876.0801	905.6847	937.2016	993.415	1009.4329	1036.7999	1073.5227	1132.7246	1177.5866	1191.7588	1201.9524	1216.3037	1274.6078	1350.1318	1384.8005	1396.2752	1476.5583	1484.9978	1510.755	1511.4881	1692.8648	2344.8467	2979.0496	2996.7529	3008.6329	3058.3806	3069.6267	3133.1849	3249.8664
COC1OCC(=C1)C#N	CO[C@H]1OCC(=C1)C#N	
InChI=1S/C6H7NO2/c1-8-6-2-5(3-7)4-9-6/h2,6H,4H2,1H3	InChI=1S/C6H7NO2/c1-8-6-2-5(3-7)4-9-6/h2,6H,4H2,1H3/t6-/m0/s1
