15
gdb 128585	2.81605	1.52796	0.99682	4.5545	74.35	-0.2288	-0.057	0.1718	1123.875	0.112675	-453.916611	-453.908766	-453.907822	-453.949241	28.971	
C	 0.0164991609	 1.3641481889	 0.1325983557	-0.253606
O	 0.1079988339	-0.0503468276	 0.0252816149	-0.220553
C	 0.6322762455	-0.5562604843	-1.0890062916	 0.340194
C	 1.1010522269	 0.1283624541	-2.1600861415	-0.29481
C	 1.6267489602	-0.6248906454	-3.261206816	 0.043445
N	 1.7016324824	-1.9071716523	-3.3408020601	-0.088311
O	 1.2163237982	-2.6130242036	-2.2321445504	-0.289831
C	 0.6822325953	-2.0269578707	-1.1016860339	 0.363175
N	 0.2625413951	-2.7330043117	-0.1367963099	-0.512218
H	 1.008848288	 1.8279933992	 0.0840432348	 0.136154
H	-0.6182574512	 1.7791480064	-0.6593130747	 0.136155
H	-0.4337171872	 1.5613953141	 1.105116111	 0.154448
H	 1.0930716696	 1.2078829259	-2.2136354804	 0.118275
H	 2.0119886836	-0.1124183142	-4.1381432626	 0.136094
H	 0.3878819489	-3.7251205387	-0.3459772652	 0.231386
92.2513	130.2201	198.6641	230.2545	260.3453	352.9015	445.6559	510.3168	531.4857	563.5079	589.0939	761.817	766.5594	843.4814	871.6942	873.4933	938.4273	946.5013	1010.0623	1073.001	1087.4687	1175.7945	1211.6285	1254.7124	1324.7911	1354.2902	1411.488	1480.9323	1491.5705	1501.752	1622.0613	1678.5049	1730.7381	3018.364	3084.4371	3155.9038	3178.9979	3227.6955	3477.6126
COC1=CC=NOC1=N	COC1=C(ON=C[CH]1)[NH]	
InChI=1S/C5H6N2O2/c1-8-4-2-3-7-9-5(4)6/h2-3,6H,1H3	InChI=1S/C5H6N2O2/c1-8-4-2-3-7-9-5(4)6/h2-3,6H,1H3
