19
gdb 122797	4.03612	0.65756	0.57742	4.5383	77.56	-0.235	-0.0647	0.1703	1880.8205	0.157468	-456.341991	-456.331686	-456.330741	-456.37877	35.267	
C	-0.2143814878	 1.3506871726	-0.1607677497	-0.228955
O	-0.1010712559	-0.051439403	-0.0694254525	-0.241875
C	 0.7278965194	-0.6116840017	-1.0700652917	-0.078346
C	 0.708236824	-2.120505419	-0.8948982653	-0.144048
N	-0.6586513233	-2.5999076595	-0.9550840585	-0.324625
C	-0.9447496353	-3.926843116	-1.1020035355	 0.290346
N	-0.0596220534	-4.814394858	-1.3582579585	-0.519219
C	-2.4192455744	-4.2471634193	-0.976025952	 0.108529
O	-2.8565076415	-5.3598600369	-1.1039109041	-0.236182
H	 0.7623967864	 1.84389584	-0.0427062021	 0.111712
H	-0.6432216522	 1.6626893417	-1.125659421	 0.109692
H	-0.8754372195	 1.6787719616	 0.6447060219	 0.13174
H	 0.3541404009	-0.3380442612	-2.0703041688	 0.097784
H	 1.7593918017	-0.2362377644	-0.9796331655	 0.098425
H	 1.2827226173	-2.6059152516	-1.6881666063	 0.142687
H	 1.1822653825	-2.3926105889	 0.0593275235	 0.119124
H	-1.3347621622	-2.0083522552	-0.49544586	 0.250294
H	-0.534330018	-5.7116163528	-1.4755156756	 0.233126
H	-3.0864641787	-3.3829588084	-0.7544907984	 0.079791
39.4388	68.1392	91.1919	118.298	170.5242	206.0543	230.2517	277.8176	292.1699	339.7876	461.0737	498.5109	532.1314	583.7836	741.9584	840.8187	873.7757	919.4716	947.0224	1025.8904	1047.2836	1107.606	1123.6522	1155.9896	1184.1529	1193.8729	1214.396	1258.1127	1272.7639	1327.3129	1384.7977	1418.7813	1436.8831	1480.2136	1486.4849	1499.0109	1502.1411	1523.7309	1543.6917	1701.0434	1834.1492	2872.4763	2967.1147	2980.4759	2997.9033	3016.1318	3025.7368	3102.8127	3118.8719	3467.5866	3617.0382
COCCNC(=N)C=O	COCCNC(=N)C=O	
InChI=1S/C5H10N2O2/c1-9-3-2-7-5(6)4-8/h4H,2-3H2,1H3,(H2,6,7)	InChI=1S/C5H10N2O2/c1-9-3-2-7-5(6)4-8/h4H,2-3H2,1H3,(H2,6,7)
