20
gdb 58838	3.17503	1.34206	1.13082	1.8726	77.94	-0.2407	0.0185	0.2592	1151.2124	0.170953	-403.154426	-403.145866	-403.144922	-403.187543	33.062	
C	-0.2307660151	 1.5794896734	-0.2372870535	-0.387478
C	 0.013634415	 0.0751065598	-0.0354353055	-0.06512
C	-1.2888963284	-0.6616568381	 0.3008208939	-0.408565
C	 0.7206147614	-0.5158789517	-1.2348295538	 0.430518
C	 0.0870190775	-0.9399453587	-2.5298335385	-0.350302
C	 0.857559163	-1.95820045	-1.7060196482	-0.083897
N	 2.2471228772	-2.1440586859	-2.0609168122	-0.260806
C	 2.7949043713	-1.0111307834	-1.8773152704	 0.087307
O	 2.0471613785	 0.0119018913	-1.3920782232	-0.256637
H	 0.7038571748	 2.1035549296	-0.4529758696	 0.130946
H	-0.9171812412	 1.7519056493	-1.0737938314	 0.115509
H	-0.6738424142	 2.0235521982	 0.6598307434	 0.109699
H	 0.7003681624	-0.0478093529	 0.8128652048	 0.08733
H	-2.0348867907	-0.5440853645	-0.4924652374	 0.120191
H	-1.1239300031	-1.7316447502	 0.4599731688	 0.1207
H	-1.7225784728	-0.2513408897	 1.2174101473	 0.120318
H	-0.992013953	-1.0431173796	-2.5338768133	 0.122309
H	 0.5230048088	-0.6023643692	-3.4643621351	 0.123105
H	 0.3450602173	-2.8106263288	-1.2772029103	 0.103616
H	 3.8328875014	-0.7657839189	-2.0665999859	 0.141258
59.7544	160.3764	203.3835	230.8109	259.1291	301.6093	359.0007	390.9283	437.4801	465.6533	595.0371	658.2732	743.8293	818.2945	839.5333	897.8506	916.0506	931.8719	937.4536	954.2762	967.4637	1006.9273	1028.8967	1061.6814	1102.3443	1118.7028	1132.07	1146.7691	1169.1851	1204.3306	1264.8663	1331.3391	1348.9703	1367.331	1386.4954	1397.4928	1420.7331	1465.0153	1490.2063	1491.1707	1504.6751	1514.7508	1668.1899	3015.8187	3032.9811	3037.0762	3099.0426	3104.6753	3110.3931	3120.412	3131.968	3184.3707	3225.376	3227.5586
CC(C)C12CC1N=CO2	CC(C)[C@]12C[C@H]1N=CO2	
InChI=1S/C7H11NO/c1-5(2)7-3-6(7)8-4-9-7/h4-6H,3H2,1-2H3	InChI=1S/C7H11NO/c1-5(2)7-3-6(7)8-4-9-7/h4-6H,3H2,1-2H3/t6-,7-/m1/s1
