16
gdb 71372	2.63233	1.84064	1.30791	4.4658	68.97	-0.2395	0.0017	0.2412	966.4131	0.123017	-437.83493	-437.826907	-437.825963	-437.867266	30.45	
C	 0.0212848521	 1.5002754415	 0.083521049	-0.512559
C	 0.0598363219	 0.0086752323	-0.0387367416	 0.124151
C	-0.7188276038	-1.0995867615	 0.6924357735	-0.165703
N	-0.2679962822	-2.0875624861	-0.3860101482	-0.217179
C	 1.0669209614	-2.2178662459	 0.3444944652	-0.252956
C	 0.7133292448	-0.9110985416	 1.0479512899	 0.324876
O	 1.3030946394	-0.3025774557	 2.1274957858	-0.449463
C	 0.02185175	-0.8841566217	-1.2288117661	 0.385105
O	 0.0784971466	-0.7824295464	-2.4127115547	-0.314013
H	 0.9059189806	 1.943797855	-0.3841345537	 0.142952
H	-0.8637748533	 1.9152112979	-0.4074718875	 0.135545
H	 0.0153174982	 1.8003461253	 1.1344117214	 0.137752
H	-1.6850370559	-1.0839567542	 1.174006555	 0.124578
H	 1.0468060857	-3.0881919102	 1.007428595	 0.113312
H	 1.9402574183	-2.261234568	-0.3145940006	 0.125759
H	 1.1100723862	-0.8171575606	 2.9194901277	 0.297841
112.8464	134.7877	221.1993	245.0339	254.668	297.7078	395.3395	461.034	530.3443	569.4649	658.9688	697.6353	739.5159	796.8737	831.6376	849.5642	895.2935	925.2958	976.8039	992.0278	1068.3602	1077.5912	1110.4572	1139.9047	1152.7743	1213.9041	1270.1847	1290.0142	1371.7454	1419.2545	1430.097	1484.7471	1493.6311	1513.0148	1919.3877	3042.9353	3044.355	3103.2153	3108.506	3125.1003	3235.8038	3797.4122
CC12C3N(CC13O)C2=O	C[C@]12[C@H]3N(C[C@@]13O)C2=O	
InChI=1S/C6H7NO2/c1-5-3-6(5,9)2-7(3)4(5)8/h3,9H,2H2,1H3	InChI=1S/C6H7NO2/c1-5-3-6(5,9)2-7(3)4(5)8/h3,9H,2H2,1H3/t3-,5-,6+/m1/s1
