23
gdb 87799	2.63867	1.35822	1.15061	0.141	90.06	-0.2333	0.0882	0.3216	1213.2261	0.205465	-351.117606	-351.108514	-351.10757	-351.150911	35.871	
C	-0.0825797799	 1.5152819542	-0.0420424665	-0.408323
C	 0.0161376738	 0.006843658	 0.0174606676	-0.050773
C	 1.3574426102	-0.6755806064	-0.1525797933	-0.375888
C	 0.6695036804	-0.6894765566	 1.1819654778	 0.387931
C	 1.2426065858	-0.098368655	 2.4888690779	-0.325776
C	 0.7838144258	-1.3715817683	 3.220709155	-0.070719
C	-0.6942682034	-1.6205371748	 3.0673404651	 0.003416
C	-1.7699444794	-0.555013611	 3.0694711583	-0.420099
C	 0.2173510275	-1.9427310102	 1.9092423168	-0.159276
H	 0.7885570527	 1.9877555317	 0.4238670817	 0.115205
H	-0.1342337319	 1.8688398352	-1.078087176	 0.114765
H	-0.9752766717	 1.882553664	 0.4775495737	 0.115553
H	-0.8317209112	-0.5170254834	-0.4191988275	 0.078396
H	 1.4021777421	-1.60163011	-0.7180109962	 0.105715
H	 2.2345552327	-0.0439198517	-0.2656438896	 0.103213
H	 2.3311897125	-0.0023471436	 2.4593180572	 0.101845
H	 0.8196907761	 0.8476050033	 2.8444982454	 0.093036
H	 1.3684097457	-1.8818244507	 3.9769802659	 0.080311
H	-0.993651418	-2.5264262192	 3.5932554864	 0.080235
H	-1.461886944	 0.3424177126	 2.528457773	 0.129054
H	-2.6858014832	-0.9260091392	 2.5958895067	 0.112517
H	-2.0228203365	-0.2577637771	 4.0935361682	 0.111806
H	 0.306636294	-2.9479021217	 1.5110549824	 0.077856
101.1999	137.1007	176.6226	201.778	217.7686	266.5841	313.1982	381.3736	421.9093	469.1829	528.3982	598.0276	717.2896	780.6765	789.7781	810.5629	868.0287	885.7292	910.6402	933.0397	962.4704	976.9171	997.4188	1006.8323	1043.6226	1057.7934	1078.0447	1086.7798	1104.8735	1128.4394	1137.6966	1168.2704	1184.2115	1209.3619	1216.1193	1249.0923	1286.6758	1310.0111	1352.4761	1408.5855	1414.314	1430.4941	1440.4198	1483.2016	1491.1671	1491.7	1497.6735	1504.4613	1506.1818	3022.5998	3031.1874	3038.0146	3081.5214	3085.9288	3091.1169	3092.5783	3110.0237	3110.9184	3126.7332	3128.4645	3161.4798	3179.1671	3194.8219
CC1CC11CC2C(C)C12	C[C@H]1C[C@]21C[C@H]1[C@@H](C)[C@@H]21	
InChI=1S/C9H14/c1-5-3-9(5)4-7-6(2)8(7)9/h5-8H,3-4H2,1-2H3	InChI=1S/C9H14/c1-5-3-9(5)4-7-6(2)8(7)9/h5-8H,3-4H2,1-2H3/t5-,6+,7-,8+,9+/m0/s1
