15
gdb 30414	3.93584	1.19487	0.9218	3.0603	74.65	-0.2365	-0.0402	0.1963	1204.8644	0.115033	-450.202283	-450.194307	-450.193363	-450.235302	28.893	
C	-0.0104069258	 1.4299768831	 0.118986961	-0.327918
N	 0.1315999366	-0.010292872	 0.0521525777	-0.328461
C	 0.619695578	-0.5485621273	-0.9865060953	 0.452204
N	 0.7314203229	-1.9587153384	-0.9877440134	-0.40642
C	 1.2257166489	-2.7380960359	-1.9963068747	 0.488037
O	 1.3143221194	-3.9430931888	-1.9809427564	-0.384217
N	 1.6351514452	-1.9644361575	-3.0932737849	-0.359538
C	 1.5295021988	-0.6001552548	-3.0970682144	 0.103164
N	 1.0629108741	 0.1110747179	-2.1401961157	-0.308002
H	 0.547214995	 1.8040841108	 0.9860373733	 0.122146
H	 0.3327923185	 1.9552193251	-0.7783776393	 0.130373
H	-1.064116514	 1.677232823	 0.2956233815	 0.122143
H	 0.4124131176	-2.4354051859	-0.156357529	 0.275426
H	 2.0124083304	-2.4719645198	-3.8783164261	 0.278668
H	 1.8814492345	-0.1153361894	-4.0061677146	 0.142395
79.2389	111.8799	148.4823	232.3886	252.6581	400.5229	407.7614	491.5326	553.9471	561.8585	651.851	664.7484	757.8855	772.3618	786.8794	929.5537	980.5431	981.8531	1073.6436	1121.6271	1135.0144	1166.4016	1227.6326	1379.7608	1400.4492	1422.7423	1436.3758	1469.4857	1494.7642	1495.1936	1704.1627	1750.5687	1851.6412	3015.3416	3067.1716	3094.294	3151.6829	3623.9598	3645.9926
CN=C1NC(=O)NC=N1	C[N]C1=N[CH]NC(=O)N1	
InChI=1S/C4H6N4O/c1-5-3-6-2-7-4(9)8-3/h2H,1H3,(H2,5,6,7,8,9)	InChI=1S/C4H6N4O/c1-5-3-6-2-7-4(9)8-3/h2H,1H3,(H2,5,6,7,8,9)
