18
gdb 8338	5.70629	1.19215	1.18595	1.3217	67.3	-0.2454	0.0626	0.308	1052.6592	0.153656	-384.899934	-384.892214	-384.89127	-384.93246	28.932	
O	 0.7150340776	 0.5366384137	-0.9202156904	-0.43224
C	-0.0081178883	-0.2631003739	-0.0237261917	 0.178842
C	 0.182355655	-0.0990107603	 1.5084429638	-0.342209
C	-1.3284895431	-0.3926883117	 1.6759291433	 0.307906
C	-1.7906484355	-1.7670556502	 2.2081295925	-0.122253
O	-2.5742811345	-1.1520939054	 3.2495286004	-0.274018
C	-2.191260219	 0.1693846138	 2.8170584635	-0.140427
C	-1.5301939535	-0.0364539884	 0.1828237016	-0.342211
H	 0.5666705043	 1.4588649682	-0.6850794486	 0.276283
H	 0.1902972934	-1.295085619	-0.3287554205	 0.097735
H	 0.8981798219	-0.7473157555	 2.0206807839	 0.106362
H	 0.4089357584	 0.9444648697	 1.7608619566	 0.09275
H	-2.4117814884	-2.3581726521	 1.5215622037	 0.099023
H	-0.9984965119	-2.4098055842	 2.6155210136	 0.099024
H	-1.6442891422	 0.7160702054	 3.5973068093	 0.09816
H	-3.0575505151	 0.767686355	 2.5033606339	 0.09816
H	-1.7832762095	 1.0245431764	 0.0639542038	 0.092749
H	-2.2339330896	-0.6329046213	-0.4037674788	 0.106363
60.41	83.5203	256.7465	270.7242	333.8262	336.8598	430.7702	443.6119	477.1375	698.3919	816.4664	850.3024	868.3639	878.7895	939.2412	949.7866	989.9477	1020.6705	1039.8049	1064.0866	1085.1431	1108.4406	1148.9051	1159.4321	1203.5619	1218.1819	1224.7568	1241.0425	1278.8485	1300.7156	1311.251	1335.3832	1388.3405	1438.0869	1464.6912	1490.2341	1506.8423	1532.4783	2990.5538	3002.7482	3026.5352	3033.828	3037.744	3039.2428	3066.7613	3097.3061	3102.0929	3804.515
OC1CC2(COC2)C1	OC1CC2(COC2)C1	
InChI=1S/C6H10O2/c7-5-1-6(2-5)3-8-4-6/h5,7H,1-4H2	InChI=1S/C6H10O2/c7-5-1-6(2-5)3-8-4-6/h5,7H,1-4H2
