20
gdb 96900	3.01782	1.27044	1.06073	2.4692	82.61	-0.2411	0.0322	0.2733	1230.1211	0.169983	-403.141833	-403.132715	-403.131771	-403.176077	33.651	
C	 0.3024428918	 1.4391915989	 0.0091280947	-0.338862
N	 0.3496462476	-0.0151773877	 0.0696254758	-0.341009
C	 0.5225373607	-0.6625388864	-0.9869288991	 0.463194
O	 0.6814486133	-0.2203670557	-2.2980327475	-0.312445
C	 0.7469345567	-1.601316448	-2.7994135641	 0.450997
C	-0.2202955309	-1.8396189223	-3.9240042762	-0.478397
C	 2.2184757995	-2.0788100325	-2.8776378143	-0.276228
C	 2.1183676479	-2.6129185821	-1.4150512351	-0.22842
C	 0.6391469552	-2.1233673751	-1.3314033633	-0.248263
H	 1.1311031484	 1.850954655	 0.5966638289	 0.124819
H	 0.3575903578	 1.8480964857	-1.0066343942	 0.124167
H	-0.6237870163	 1.7868811781	 0.4796567588	 0.124148
H	 0.0582553259	-1.2426793628	-4.7995046994	 0.133499
H	-0.2164677408	-2.894057277	-4.2169152332	 0.122948
H	-1.2365861159	-1.561576091	-3.6299376097	 0.131113
H	 2.3838440792	-2.8635592944	-3.6201679375	 0.106152
H	 2.9296021451	-1.2696376623	-3.0536812356	 0.116235
H	 2.1997342887	-3.6996825553	-1.3523785567	 0.110891
H	 2.7947185766	-2.1708099072	-0.681611599	 0.120393
H	-0.1227861501	-2.8023450377	-0.9529547033	 0.095069
59.7976	84.1527	150.0541	186.0708	223.7911	237.0095	311.8793	350.4262	405.7614	489.779	604.8049	653.1292	725.5568	738.6942	807.0108	856.0957	907.1732	918.6804	949.25	969.4873	985.1571	1043.0446	1063.6067	1112.2302	1127.612	1138.3797	1161.9912	1194.4107	1212.7263	1226.4332	1239.6681	1265.6802	1302.6904	1331.9565	1414.2097	1438.2113	1465.8688	1482.0133	1489.8348	1491.0774	1493.673	1496.757	1841.3016	3015.0077	3035.1083	3066.7535	3077.1473	3078.3683	3085.4241	3103.9558	3115.9662	3118.6206	3132.2724	3138.0818
CN=C1OC2(C)CCC12	CN=C1O[C@@]2(C)CC[C@@H]12	
InChI=1S/C7H11NO/c1-7-4-3-5(7)6(8-2)9-7/h5H,3-4H2,1-2H3	InChI=1S/C7H11NO/c1-7-4-3-5(7)6(8-2)9-7/h5H,3-4H2,1-2H3/t5-,7-/m0/s1
