18
gdb 117323	4.75648	0.72956	0.68809	2.4358	71.81	-0.2684	-0.0101	0.2583	1679.5408	0.143806	-476.242046	-476.231609	-476.230665	-476.279229	34.917	
C	-0.3928805219	 1.3828955843	 0.1646901515	-0.226066
O	-0.4129746104	 0.0213539136	 0.5299904844	-0.213031
C	-1.1553742583	-0.7598979303	-0.3541257658	-0.168759
C	-1.0925920087	-2.2119211108	 0.0846405299	 0.419084
O	-0.4520906875	-2.6580934909	 0.9914823533	-0.327919
O	-1.882604335	-2.9424746676	-0.7519231771	-0.243429
C	-1.9927452599	-4.3267162561	-0.5670490168	 0.381893
C	-2.6466899465	-4.7270188362	 0.7249423119	-0.478095
N	-1.6076839322	-5.0342620005	-1.532881361	-0.433669
H	 0.2095100593	 1.9060501881	 0.9100511016	 0.136927
H	 0.0577666384	 1.5320544711	-0.8289403571	 0.110087
H	-1.4046258536	 1.817971142	 0.152732842	 0.107526
H	-2.2151387252	-0.4555523472	-0.3972558521	 0.118939
H	-0.7731478547	-0.703280647	-1.3878764638	 0.128828
H	-2.8248184833	-5.803596961	 0.7478930235	 0.129645
H	-2.0076164139	-4.4448299888	 1.5647232305	 0.180607
H	-3.6014281029	-4.2032163741	 0.8389151759	 0.1452
H	-1.7874970237	-6.0198485486	-1.3426273208	 0.232231
45.2136	56.2105	69.6322	107.7988	127.0545	161.5564	235.8036	242.5399	321.2053	385.4301	444.5253	515.4135	551.2188	603.2307	730.8391	826.5155	898.7984	965.9196	1000.7937	1031.8013	1036.3161	1070.4762	1079.2529	1175.4617	1180.7719	1184.9667	1245.0295	1250.8777	1322.1533	1402.7611	1418.339	1469.2602	1472.78	1487.4286	1489.6426	1492.5148	1516.5052	1767.8847	1859.363	2959.8395	2975.6408	2985.0539	3019.9928	3049.8018	3122.8143	3125.377	3147.3249	3494.617
COCC(=O)OC(C)=N	COCC(=O)O[C](C)[NH]	
InChI=1S/C5H9NO3/c1-4(6)9-5(7)3-8-2/h6H,3H2,1-2H3	InChI=1S/C5H9NO3/c1-4(6)9-5(7)3-8-2/h6H,3H2,1-2H3
