13
gdb 19028	4.87687	2.14705	1.80746	4.344	66.24	-0.2404	-0.0854	0.155	708.0049	0.096005	-361.344887	-361.339254	-361.33831	-361.374421	22.737	
O	-0.0371885503	 0.0058922754	 0.2095256337	-0.322857
C	-0.0453715641	 1.1791103447	-0.0580200758	 0.39391
C	-1.2299236011	 2.1133179241	-0.1804535967	-0.216114
C	-0.6898691331	 3.3369887257	-0.3731513309	 0.101228
N	-0.3473555345	 4.1379629954	 0.8209112301	-0.349627
C	 1.0669210994	 3.6252062199	 0.4620077795	-0.017394
C	 0.7315874268	 3.3003070477	-0.9315989989	-0.153168
C	 1.1454164249	 2.1270467858	-0.0607115917	-0.156515
H	-2.0857011485	 1.9286244286	 0.4596981924	 0.134491
H	-0.2770873137	 5.1315945464	 0.5795570729	 0.234496
H	 1.9353794249	 4.0937167588	 0.9158446008	 0.120889
H	 1.1321336514	 3.573368581	-1.8985394473	 0.120485
H	 2.1536904677	 1.7227424665	-0.0940827382	 0.110176
144.7143	371.7294	420.1545	436.7614	589.1397	633.8266	695.2158	707.3494	771.4157	791.2137	821.3426	833.4097	885.2303	911.9483	958.3774	988.9477	1015.3362	1051.5363	1067.4438	1099.0886	1145.2478	1199.3839	1227.1281	1247.0745	1282.9118	1348.1496	1567.8813	1812.8815	3158.3599	3165.2369	3197.8558	3205.7651	3389.2454
O=C1C=C2NC3C2C13	O=C1[CH][C]2N[C@@H]3[C@H]2[C@H]13	
InChI=1S/C6H5NO/c8-3-1-2-4-5(3)6(4)7-2/h1,4-7H	InChI=1S/C6H5NO/c8-3-1-2-4-5(3)6(4)7-2/h1,4-7H/t4-,5+,6-/m1/s1
