19
gdb 95189	2.61062	1.76727	1.14919	4.4427	76.96	-0.2321	0.0445	0.2766	1078.1449	0.16155	-419.226514	-419.218339	-419.217395	-419.259302	30.853	
C	-0.0769844103	 1.4536171763	 0.1304394487	-0.3413
N	-0.0013099968	 0.0070786583	 0.0455437644	-0.101698
C	-1.2499202122	-0.7479184617	 0.0388535182	-0.148073
C	-1.1120434048	-1.979347081	-0.8660893635	-0.251295
C	 0.0666789045	-2.7838188622	-0.3587991575	-0.009137
C	 1.3572392113	-2.8784806262	-1.1085224043	-0.250429
N	 1.2261911283	-1.9924442328	 0.0413793653	-0.126153
C	 1.2249594207	-0.5905271465	-0.1435398667	 0.413648
O	 2.2485078404	 0.0213854059	-0.3794096704	-0.398781
H	 0.938255827	 1.8470330265	 0.1122238126	 0.17104
H	-0.6373751974	 1.8729644651	-0.7156268164	 0.116407
H	-0.5737496299	 1.7636692016	 1.058210373	 0.119389
H	-1.5381637834	-1.0550353348	 1.0556500384	 0.111988
H	-2.0411161623	-0.086943078	-0.3314137944	 0.110671
H	-2.0299375612	-2.5734273479	-0.8490890789	 0.111354
H	-0.9486556786	-1.646978725	-1.8967215192	 0.115285
H	-0.1736753187	-3.5809812903	 0.3426912971	 0.100274
H	 2.0081364136	-3.7366384806	-0.9679676158	 0.126362
H	 1.4103057997	-2.4178973468	-2.0920211205	 0.130447
104.5441	115.4266	149.6515	243.8984	255.9258	350.8111	404.3514	433.9653	482.9172	534.0629	625.7386	712.9746	774.1541	804.5703	905.126	921.6965	953.989	969.9428	997.9052	1059.1302	1107.7708	1123.509	1135.4756	1147.4736	1158.3485	1171.9789	1230.4563	1235.2904	1290.6698	1331.6459	1350.1479	1355.721	1419.1891	1428.3549	1455.9286	1481.7196	1496.5732	1508.4651	1512.869	1533.3571	1779.9631	2989.4784	3009.2308	3046.9644	3055.2979	3063.5121	3096.9671	3109.1922	3121.1721	3166.4407	3198.122
CN1CCC2CN2C1=O	CN1CC[C@H]2CN2C1=O	
InChI=1S/C6H10N2O/c1-7-3-2-5-4-8(5)6(7)9/h5H,2-4H2,1H3	InChI=1S/C6H10N2O/c1-7-3-2-5-4-8(5)6(7)9/h5H,2-4H2,1H3/t5-,8?/m0/s1
