17
gdb 15639	3.36894	1.78015	1.23703	3.3039	71.12	-0.2311	-0.0038	0.2273	983.1348	0.143616	-360.073914	-360.066049	-360.065104	-360.106321	28.917	
C	 0.0090806824	 1.5598298034	 0.0163458371	-0.387306
C	 0.0033039653	 0.030871114	 0.0358962533	-0.163202
C	-1.4128375101	-0.5601924562	-0.0134644132	-0.039933
N	-2.097637494	-0.2701470223	-1.2897773101	-0.246762
C	-2.438319006	-1.39986886	-1.7709823394	 0.05911
N	-2.108888026	-2.5125304155	-1.0056046628	-0.345448
C	-1.4230103489	-2.0843429328	 0.1323465655	 0.377436
N	-0.9071899516	-2.7472970738	 1.0847857009	-0.546998
H	 1.0329160397	 1.9459344302	 0.0258187084	 0.109346
H	-0.4945534741	 1.9384406523	-0.8768683795	 0.13828
H	-0.5092166718	 1.9672101111	 0.8916591825	 0.112349
H	 0.5725098579	-0.360440886	-0.8159289788	 0.096644
H	 0.4839215386	-0.3546945346	 0.9412592399	 0.124175
H	-2.0036608119	-0.1211725572	 0.8015037227	 0.116208
H	-2.9612356687	-1.5366007287	-2.7126521456	 0.133611
H	-2.2561446516	-3.4723210687	-1.2691704516	 0.256564
H	-1.0336949191	-3.7539620852	 0.9673637108	 0.205924
86.9494	110.3088	175.5469	221.1618	288.9573	319.5979	400.2731	491.3767	583.2696	635.7335	682.762	772.4172	852.4569	871.8695	874.0711	935.1147	944.5181	971.5	1066.266	1080.8447	1084.845	1125.479	1139.1081	1253.9638	1265.6718	1300.4619	1323.7391	1353.3121	1371.4154	1407.9624	1413.2671	1484.2398	1495.6698	1509.1209	1683.7205	1759.662	3021.615	3035.1542	3038.5269	3081.1276	3101.6733	3123.7627	3188.0643	3454.189	3659.5858
CCC1N=CNC1=N	CC[C@H]1N=CN[C]1[NH]	
InChI=1S/C5H9N3/c1-2-4-5(6)8-3-7-4/h3-4H,2H2,1H3,(H2,6,7,8)	InChI=1S/C5H9N3/c1-2-4-5(6)8-3-7-4/h3-4H,2H2,1H3,(H2,6,7,8)/t4-/m1/s1
