23
gdb 88202	3.24931	1.17702	1.00133	1.6397	85.85	-0.251	0.083	0.3339	1300.4799	0.207076	-388.308122	-388.299292	-388.298348	-388.341281	34.841	
C	-0.0110472967	 1.5113700566	-0.2017836734	-0.425636
C	 0.0115774563	 0.0307884874	 0.0824773114	 0.004259
O	 1.2784934009	-0.6396204017	 0.0113709225	-0.309476
C	 0.5840549878	-0.6122526875	 1.2778135328	 0.417243
C	 1.2833228545	 0.154941523	 2.3858875501	-0.269793
C	 2.4003793579	-0.6990215225	 3.0126614533	-0.190438
C	 1.8727616972	-2.0592967007	 3.4904102073	-0.183662
C	 1.1753580354	-2.8132376898	 2.3489390164	-0.191991
C	 0.0553056158	-1.9657736907	 1.723810079	-0.262323
H	 0.7886181595	 2.0432247251	 0.3165755522	 0.126577
H	 0.1091192106	 1.6871492005	-1.27616271	 0.128544
H	-0.9719240607	 1.9424098148	 0.1005006492	 0.119471
H	-0.7922392881	-0.5210632307	-0.4129813556	 0.077185
H	 1.6959884542	 1.0913975404	 2.0037716785	 0.098715
H	 0.5431472128	 0.4144762095	 3.1556784104	 0.093792
H	 3.183190648	-0.8568660779	 2.2599295516	 0.109973
H	 2.8635947045	-0.1533857911	 3.841992449	 0.088787
H	 2.6928134763	-2.6609909245	 3.8979319804	 0.091332
H	 1.1604625075	-1.9046713851	 4.3135865859	 0.088599
H	 1.9095301138	-3.0527804401	 1.5693213612	 0.109805
H	 0.7704126166	-3.7659975	 2.7071526026	 0.088698
H	-0.7444685588	-1.8089821755	 2.4611311192	 0.092659
H	-0.3885589653	-2.4833231194	 0.867572546	 0.09768
93.848	151.8903	178.1884	196.3667	258.207	289.941	378.8959	406.3496	434.7906	477.5996	504.2611	571.9994	689.9254	775.7747	784.8968	840.1968	862.8822	902.681	919.8978	941.1211	960.0791	998.0418	1038.1616	1050.6769	1079.4481	1088.2674	1125.9847	1135.5467	1164.2734	1177.6474	1254.353	1256.2455	1275.5595	1300.2742	1337.4382	1362.6138	1366.2769	1375.5082	1379.0476	1400.6573	1409.628	1464.6357	1470.6988	1475.2046	1485.4917	1489.4586	1491.5152	1501.3661	1515.5112	3006.7277	3011.0036	3018.0192	3027.4364	3027.7701	3037.4357	3062.3804	3063.0398	3069.3241	3073.7882	3079.5267	3096.6881	3097.604	3135.8105
CC1OC11CCCCC1	C[C@H]1OC21CCCCC2	
InChI=1S/C8H14O/c1-7-8(9-7)5-3-2-4-6-8/h7H,2-6H2,1H3	InChI=1S/C8H14O/c1-7-8(9-7)5-3-2-4-6-8/h7H,2-6H2,1H3/t7-/m1/s1
