19
gdb 108716	3.34787	1.01788	0.8388	3.9079	80.36	-0.241	-0.0487	0.1922	1395.5579	0.15881	-423.070307	-423.061219	-423.060275	-423.104816	33.434	
C	-0.189030949	 1.5635232042	-0.1360364975	-0.379176
C	 0.1185669413	 0.0610685204	 0.0208904512	-0.285107
C	 0.7982855776	-0.5216699931	-1.1799540544	 0.326603
C	 2.0770189511	-0.9399587493	-1.2538550199	-0.29837
C	 2.354987893	-1.4722089574	-2.5924312578	 0.354436
O	 3.2824713659	-2.1487392271	-2.9852922742	-0.35832
C	 1.1683933815	-1.0826944162	-3.489877052	 0.053682
O	 0.8392889252	-2.1119762832	-4.3869253747	-0.44139
C	 0.0575744582	-0.7301682966	-2.4892590331	-0.338312
H	 0.7309643986	 2.1369896538	-0.2824813612	 0.129479
H	-0.8455001621	 1.7540002813	-0.9900045895	 0.127895
H	-0.6881020765	 1.9428183137	 0.7599626374	 0.12595
H	 0.7431275817	-0.0932657908	 0.9066938641	 0.114468
H	-0.8230705522	-0.4768788916	 0.1932280041	 0.117278
H	 2.7930920768	-0.9574680166	-0.4414974581	 0.113013
H	 1.4664069684	-0.1671801939	-4.0317634644	 0.091127
H	 1.6673873684	-2.5916435177	-4.538051275	 0.291337
H	-0.634888006	-1.5765764282	-2.4015834049	 0.138669
H	-0.5369664121	 0.1413854783	-2.7795519901	 0.116739
51.3928	80.9252	130.699	197.6047	242.0475	266.6678	317.2534	409.3573	442.8331	510.2688	513.3772	573.4712	628.8716	726.6956	794.1394	821.3188	863.3007	892.3784	960.9584	969.9976	1023.0948	1059.4428	1085.488	1125.3767	1159.2945	1176.634	1200.4772	1235.213	1266.3017	1294.6137	1345.2302	1351.0951	1364.6225	1409.2431	1417.656	1471.2125	1482.3496	1498.9967	1507.2663	1657.9529	1804.7234	2941.5977	3022.3224	3040.0726	3044.2794	3074.7565	3083.9647	3118.3963	3119.2136	3211.7834	3723.3089
CCC1=CC(=O)C(O)C1	CCC1=CC(=O)[C@@H](O)C1	
InChI=1S/C7H10O2/c1-2-5-3-6(8)7(9)4-5/h3,7,9H,2,4H2,1H3	InChI=1S/C7H10O2/c1-2-5-3-6(8)7(9)4-5/h3,7,9H,2,4H2,1H3/t7-/m0/s1
