19
gdb 106753	2.12786	1.65048	1.12568	2.9706	77.75	-0.2298	-0.0083	0.2215	1153.4843	0.156888	-423.010952	-423.001651	-423.000707	-423.045085	34.145	
C	 0.2151392063	 1.3179390578	 0.2178174282	-0.263927
O	-0.1579453101	-0.0241766579	-0.0822687714	-0.282769
C	 0.4679543714	-0.5336450458	-1.1868819828	 0.300021
C	 1.9076334061	-1.0546734294	-1.1280960776	-0.390807
C	 0.824708328	-2.0144337426	-1.5044812766	 0.247683
C	 0.4622204641	-3.2377165189	-0.7164396925	-0.490274
C	 0.5026858864	-1.7915183091	-2.9949184854	-0.412025
C	 0.0523323114	-0.3519123856	-2.6161869663	 0.362342
O	-0.5860811957	 0.4852180999	-3.1909656159	-0.330166
H	 1.2933693707	 1.3953204088	 0.4139555064	 0.111734
H	-0.0504316501	 1.9925544831	-0.6039985438	 0.141525
H	-0.3368221859	 1.6032372264	 1.1154325369	 0.131048
H	 2.6602862087	-0.7417602369	-1.8472714365	 0.116233
H	 2.2619895317	-1.1298751689	-0.103760465	 0.126013
H	 0.548381589	-3.0476468044	 0.3576040793	 0.132256
H	-0.5669476414	-3.5498399859	-0.9230648001	 0.127358
H	 1.1228040718	-4.0761614996	-0.9648551385	 0.127089
H	 1.3328318433	-1.8942193077	-3.7000737033	 0.116508
H	-0.3556302959	-2.3659672534	-3.3572365352	 0.130159
75.3657	108.5662	138.3556	174.1045	208.859	258.445	276.2515	349.0739	396.4372	493.4926	499.8739	567.3028	614.2132	665.5305	743.004	829.2641	857.9622	958.9767	977.5556	987.0085	1010.2739	1050.5308	1065.5901	1082.6669	1124.4068	1138.7406	1180.2203	1201.1047	1219.4324	1256.5601	1352.2138	1383.4975	1423.3925	1457.1393	1478.0159	1486.1543	1488.1028	1495.4979	1506.5651	1508.7094	1872.5198	3005.3582	3029.5497	3050.966	3075.6153	3091.1886	3106.1457	3107.1722	3109.2685	3131.8365	3197.8202
COC12CC1(C)CC2=O	CO[C@@]12C[C@]1(C)CC2=O	
InChI=1S/C7H10O2/c1-6-3-5(8)7(6,4-6)9-2/h3-4H2,1-2H3	InChI=1S/C7H10O2/c1-6-3-5(8)7(6,4-6)9-2/h3-4H2,1-2H3/t6-,7+/m0/s1
