17
gdb 41222	2.6252	1.42404	1.18858	3.6583	74.45	-0.2371	-0.0373	0.1998	1091.3029	0.134413	-421.793571	-421.785358	-421.784413	-421.82701	30.481	
C	-1.4052433568	 1.0290348709	-0.5897507617	-0.324139
O	 2.999560922	 0.4850650837	 1.9274774957	-0.287693
C	 1.9245107488	 0.1096162078	 1.5676217339	 0.429397
C	 1.4454874429	-0.9169534782	 0.5182521806	-0.423948
C	-0.0337047996	-0.5099263823	 0.8345790385	 0.269369
C	-0.6045690165	-1.3039809332	 2.0330706411	-0.113545
O	 0.0079648696	-0.4018461409	 2.9846754027	-0.285262
C	 0.4729531783	 0.4827753773	 1.9408399749	-0.067218
C	-0.9182805259	-0.1760056701	-0.3098032969	-0.115437
H	-1.1844379096	 1.895658512	 0.0256950031	 0.110445
H	-2.0450976301	 1.196064283	-1.449303226	 0.121045
H	 1.7689872229	-0.6361458611	-0.4890092684	 0.142155
H	 1.7246999508	-1.9587392854	 0.6995296944	 0.132569
H	-1.6976176307	-1.2730813188	 2.1123960263	 0.112454
H	-0.2554762213	-2.3365592315	 2.1512848891	 0.108347
H	 0.1825930365	 1.5253276445	 2.0931070457	 0.093997
H	-1.1678343014	-1.0149005377	-0.9603823831	 0.097465
57.9615	84.0158	166.3856	228.4603	264.4377	329.7044	418.322	492.83	537.2767	582.2439	614.4724	696.413	778.5753	857.3854	878.0556	915.1874	956.9928	982.8062	1003.4114	1010.9951	1038.0117	1059.5504	1081.743	1135.4247	1157.9814	1171.9282	1181.4531	1198.6734	1263.6738	1294.5587	1329.4703	1362.3728	1432.3676	1460.0358	1519.3734	1712.9587	1897.658	3019.2638	3055.3012	3070.6236	3084.6288	3111.401	3123.1534	3150.627	3232.281
C1OC23CC4(COC24)C13	C=C[C@]12CC(=O)[C@@H]2OC1	
InChI=1S/C7H8O2/c1-4-6-2-7(4,9-1)5(6)8-3-6/h4-5H,1-3H2	InChI=1S/C7H8O2/c1-2-7-3-5(8)6(7)9-4-7/h2,6H,1,3-4H2/t6-,7-/m0/s1
