19
gdb 94119	3.65757	0.85307	0.76866	3.6532	73.21	-0.2705	0.0103	0.2807	1483.489	0.158818	-460.197156	-460.187976	-460.187032	-460.233223	32.781	
O	-0.0935180723	 1.2202883783	-0.3512149805	-0.434343
C	-0.1274242216	-0.1575797715	-0.0296984593	 0.132513
C	 0.7718537047	-0.5614167278	 1.1571100167	-0.239799
C	 0.1079398517	-1.8244624959	 1.7574384334	-0.231443
C	-1.3215019992	-1.884428133	 1.1553866981	 0.096888
C	-1.5275526508	-0.5378388238	 0.4575470148	-0.223591
O	-1.3591049628	-2.9386571582	 0.1668304263	-0.192285
C	-2.3375422606	-3.856302805	 0.2391167696	 0.166023
O	-2.4531898617	-4.7464350898	-0.5492616165	-0.27895
H	 0.7679004198	 1.420350317	-0.7298896513	 0.284529
H	 0.1222626742	-0.7687785905	-0.910215424	 0.085913
H	 1.8123409506	-0.7295667975	 0.8655490725	 0.098052
H	 0.7596847003	 0.2659822903	 1.8748631067	 0.109648
H	 0.6368070811	-2.7405812284	 1.4858204098	 0.126333
H	 0.0725426111	-1.782696354	 2.8489977459	 0.110977
H	-2.0888777522	-2.0921477403	 1.9082766253	 0.085539
H	-1.8507822145	 0.2131433425	 1.1884757328	 0.113335
H	-2.2749241589	-0.5877946024	-0.3367198875	 0.116
H	-3.011734979	-3.6976229601	 1.1043920471	 0.074661
25.5984	34.3666	118.3714	161.6658	265.1117	273.5725	322.5643	352.5486	437.6666	466.3283	561.8447	616.1879	724.113	798.5768	877.2473	899.8705	917.5171	951.4909	999.8258	1007.7678	1045.3583	1063.8638	1090.6803	1114.5305	1169.5843	1204.5535	1208.1703	1224.5968	1253.6526	1294.0311	1305.4046	1322.2755	1339.3928	1369.0009	1386.9279	1437.8523	1444.2632	1476.5959	1480.5989	1505.8233	1862.7705	2938.5495	2989.6358	3042.1776	3047.8118	3054.8363	3072.6458	3092.0283	3118.2117	3119.981	3824.8944
OC1CCC(C1)OC=O	O[C@H]1CC[C@@H](C1)OC=O	
InChI=1S/C6H10O3/c7-4-9-6-2-1-5(8)3-6/h4-6,8H,1-3H2	InChI=1S/C6H10O3/c7-4-9-6-2-1-5(8)3-6/h4-6,8H,1-3H2/t5-,6-/m0/s1
