19
gdb 81608	3.75973	0.94473	0.89988	1.4762	81.36	-0.2557	0.0552	0.3109	1351.2449	0.158522	-385.795784	-385.787219	-385.786274	-385.829324	33.349	
O	 0.0672336624	 1.4487688515	-0.2536311234	-0.451328
C	-0.0528539985	 0.0602310238	-0.1360033485	 0.194745
C	-0.0649481032	-0.650953397	 1.2571509259	-0.09705
C	-1.5243886532	-0.1262767733	 1.4272924655	-0.260268
C	-1.4497518837	-0.6399714788	-0.0437631275	-0.125338
C	-0.7076064809	-1.8819365662	 0.5442851795	 0.063992
C	 0.104620238	-2.8412682528	-0.338229125	-0.41663
C	 0.9505154628	-3.7238830013	 0.4586802451	 0.313256
C	 1.6359552852	-4.4376941874	 1.1410027235	-0.457904
H	-0.5110742383	 1.8785812982	 0.3839513126	 0.282609
H	 0.6399118699	-0.3393279012	-0.8757172849	 0.077869
H	 0.7250852297	-0.6665422277	 2.0085993828	 0.080411
H	-2.1680611168	-0.6898124863	 2.1074384656	 0.099705
H	-1.6693022062	 0.9458389737	 1.5878357186	 0.077716
H	-2.2500481539	-0.6388160656	-0.7859575864	 0.072553
H	-1.3348111543	-2.4730295215	 1.2179514226	 0.081212
H	-0.59670384	-3.4469284561	-0.9277249728	 0.13199
H	 0.7251080881	-2.3106597679	-1.0670099571	 0.137071
H	 2.2476723328	-5.073728054	 1.7312168639	 0.19539
45.3443	113.3737	227.4983	244.3507	285.2649	340.1414	375.4691	384.3257	447.55	588.6671	612.7593	619.0465	638.4822	747.6165	802.702	835.0259	862.721	894.6899	897.4723	962.4566	985.7436	1007.3922	1034.1281	1069.5939	1084.8262	1089.7738	1125.9361	1158.1511	1182.9342	1199.7044	1218.7063	1240.5817	1252.8041	1272.5919	1284.6192	1322.957	1424.5853	1462.107	1486.4737	1536.255	2238.0368	3022.767	3051.9186	3057.1973	3077.148	3098.3328	3106.5519	3111.8391	3126.4397	3506.6905	3821.4469
OC1C2CC1C2CC#C	O[C@H]1[C@H]2C[C@@H]1[C@H]2CC#C	
InChI=1S/C8H10O/c1-2-3-5-6-4-7(5)8(6)9/h1,5-9H,3-4H2	InChI=1S/C8H10O/c1-2-3-5-6-4-7(5)8(6)9/h1,5-9H,3-4H2/t5-,6-,7+,8-
