19
gdb 37295	3.11263	1.78999	1.69015	2.6068	77.46	-0.1958	0.0658	0.2615	901.2484	0.16232	-381.946537	-381.940051	-381.939107	-381.97699	27.765	
C	-0.061049729	 1.6223200524	 0.2177171201	-0.243103
C	 1.4970583017	 1.5924032817	 0.193080326	-0.155029
N	 1.4995300308	 0.1013399075	 0.0278396064	-0.146885
C	-0.0085848505	 0.0891594736	-0.0157831372	 0.0198
C	 0.0134493996	-0.6274237842	-1.4080490601	-0.055552
C	 0.0578754243	 0.1016344008	-2.7691949818	-0.070381
N	 0.67478163	 1.430741967	-2.5970430984	-0.327796
C	 1.5511505072	 0.2414306159	-2.6856677762	-0.078731
C	 1.560590676	-0.522603053	-1.3328402281	 0.011291
H	-0.4891271298	 1.8854477387	 1.1886810084	 0.089145
H	-0.5307592667	 2.2177326027	-0.5610722192	 0.117963
H	 1.9611680796	 2.1448342091	-0.6238547262	 0.114852
H	 1.9756695957	 1.8784430477	 1.1357334671	 0.090223
H	-0.5012873402	-0.5182246199	 0.7522494808	 0.06835
H	-0.473541987	-1.6019268011	-1.4487979052	 0.072496
H	-0.5721348353	-0.0968854345	-3.628034298	 0.093927
H	 0.6921572663	 1.8730902177	-3.5152886355	 0.231607
H	 2.3026594303	 0.1808400796	-3.4640884625	 0.090665
H	 2.1951658971	-1.4118488717	-1.3733252103	 0.077158
184.8001	257.8323	265.1604	333.6859	490.6207	599.4894	644.3936	701.8505	731.405	770.7803	782.4422	798.8599	819.4453	875.405	901.6997	914.1592	927.0905	943.4081	978.7351	994.5284	1011.165	1058.7317	1064.4794	1102.96	1115.4318	1128.8369	1172.4375	1180.5858	1207.3358	1211.3734	1224.6812	1227.8346	1262.7667	1284.5646	1302.015	1316.5903	1330.7813	1351.6702	1383.1071	1468.3826	1497.6652	3024.4591	3039.7655	3066.7692	3070.9057	3108.3485	3124.182	3163.5627	3173.7893	3186.7254	3472.4268
C1CN2C1C1C3NC3C21	C1CN2[C@@H]1[C@H]1[C@H]3N[C@H]3[C@@H]21	
InChI=1S/C7H10N2/c1-2-9-3(1)4-5-6(8-5)7(4)9/h3-8H,1-2H2	InChI=1S/C7H10N2/c1-2-9-3(1)4-5-6(8-5)7(4)9/h3-8H,1-2H2/t3-,4-,5+,6+,7-/m0/s1
