20
gdb 87880	3.299	1.25994	1.22659	2.7178	79.62	-0.2209	0.0642	0.2851	1135.5321	0.170953	-403.074689	-403.066507	-403.065562	-403.107605	31.534	
C	-0.251322674	 1.4253743058	 0.1841690225	-0.315799
N	-0.0425237873	-0.0147794019	 0.1929957601	-0.115227
C	 1.2668919293	-0.5064114666	-0.2281555931	-0.32063
C	 0.8404449776	-0.5636056072	 1.1967885429	 0.381678
C	 1.5553255878	 0.1209715742	 2.3856205329	-0.342377
C	 1.3626756845	-1.1872564936	 3.2096485186	-0.078929
C	 0.0363782157	-1.2526753262	 3.9801194197	-0.07325
O	-0.6849522733	-1.6863361798	 2.8036844481	-0.288741
C	 0.5344195237	-1.7987448062	 2.037112416	 0.020172
H	 0.6464740157	 2.0087802934	 0.4477688174	 0.098509
H	-0.5752255353	 1.7321924909	-0.8150996287	 0.12433
H	-1.0466319877	 1.677960655	 0.892258421	 0.128823
H	 1.2622837105	-1.3975640319	-0.8517242635	 0.114614
H	 2.0366915316	 0.2242592356	-0.4795348817	 0.102087
H	 2.5971681434	 0.3907664986	 2.1973388466	 0.107855
H	 1.0436029993	 0.9928435365	 2.8053979846	 0.106043
H	 2.2475610471	-1.6453951997	 3.6468700308	 0.079702
H	 0.0033509864	-2.0156810703	 4.769186038	 0.099081
H	-0.3469936456	-0.3061429102	 4.382421396	 0.098887
H	 0.6578592905	-2.7910333763	 1.5941943418	 0.073171
65.3794	135.3359	200.5956	217.99	246.0459	364.5738	392.9557	427.4512	507.6544	553.3202	763.3051	776.7253	799.005	832.2649	887.4634	911.225	919.9811	943.0214	992.8266	1015.8671	1036.2942	1054.6968	1084.7581	1109.7555	1127.857	1150.8015	1157.7689	1166.4231	1182.9211	1197.8381	1219.671	1238.5465	1256.7658	1292.5228	1306.4386	1356.5918	1417.304	1447.7643	1480.0788	1493.347	1494.9044	1509.34	1521.5747	2965.9932	3002.8259	3046.036	3049.7304	3069.7713	3070.2426	3074.9934	3100.9151	3106.7378	3131.4111	3164.0416
CN1CC11CC2COC12	CN1C[C@]21C[C@H]1CO[C@@H]21	
InChI=1S/C7H11NO/c1-8-4-7(8)2-5-3-9-6(5)7/h5-6H,2-4H2,1H3	InChI=1S/C7H11NO/c1-8-4-7(8)2-5-3-9-6(5)7/h5-6H,2-4H2,1H3/t5-,6+,7+,8?/m0/s1
