18
gdb 17559	3.18808	2.10125	1.62101	1.8395	71.79	-0.2418	0.0886	0.3304	865.5025	0.152788	-347.756392	-347.748856	-347.747912	-347.787768	29.417	
C	-0.1072761417	 1.5397410047	 0.0593730532	-0.514076
C	 0.1336267417	 0.0679222749	-0.0077698049	 0.347338
O	-0.7730101827	-0.8044525071	 0.6984049298	-0.291304
C	 0.6298459202	-0.9178040657	 0.9716169805	-0.039385
C	 1.240499695	-1.8001938924	-0.1308679791	-0.345604
C	 0.7068657246	-0.7631064256	-1.1512281856	 0.337024
C	 0.121850315	-0.9798653225	-2.5118475828	-0.319551
C	 1.4349703118	-0.2423983257	-2.3546123608	-0.333636
H	 0.7857581209	 2.0967778048	-0.2411620599	 0.126443
H	-0.928455952	 1.8335578941	-0.6049622873	 0.129354
H	-0.3776388572	 1.831481381	 1.0774358081	 0.135931
H	 0.9483032063	-0.7952604017	 2.0009984707	 0.099071
H	 2.3330478537	-1.8420016492	-0.0979369636	 0.104806
H	 0.8310176208	-2.8121124205	-0.1895830579	 0.109489
H	 0.1474144858	-1.9849731529	-2.9199705337	 0.115214
H	-0.7576867702	-0.4091871041	-2.7920421994	 0.114489
H	 1.4414206767	 0.8289752868	-2.5302439772	 0.112113
H	 2.3478247412	-0.7458437591	-2.6570741099	 0.112284
132.3692	180.2723	209.0951	214.67	322.9533	370.69	452.0725	493.6408	592.1517	642.8284	761.8556	773.4339	846.3411	859.6908	882.8971	922.1512	938.8784	965.4923	983.3048	1040.912	1052.4447	1069.2451	1076.9511	1098.7834	1156.157	1165.6328	1185.6558	1220.593	1259.9586	1273.8741	1383.5833	1400.2416	1454.6076	1464.2229	1476.075	1486.4324	1493.2821	1507.2245	3032.5503	3054.1529	3094.0092	3110.4367	3121.2073	3122.6074	3128.0573	3178.2332	3199.1139	3215.0218
CC12OC1CC21CC1	C[C@]12O[C@H]1CC12CC1	
InChI=1S/C7H10O/c1-6-5(8-6)4-7(6)2-3-7/h5H,2-4H2,1H3	InChI=1S/C7H10O/c1-6-5(8-6)4-7(6)2-3-7/h5H,2-4H2,1H3/t5-,6-/m0/s1
