15
gdb 33713	3.85862	1.51887	1.27144	4.4716	74.28	-0.2388	-0.0164	0.2223	959.1163	0.114767	-379.626557	-379.620012	-379.619068	-379.657315	26.629	
N	 0.1432463126	-1.0891694171	-0.0045937641	-0.3418
C	 0.044877094	 0.0638822239	-0.0201241645	 0.179834
C	-0.0686757202	 1.4909987335	-0.0316152788	 0.189024
C	-1.214958942	 2.1938145846	 0.619218031	-0.143478
C	-1.2998272396	 3.4382537167	 0.142326547	-0.056399
C	-0.1111047702	 3.6814117261	-0.7577787791	-0.121794
N	 1.0913049251	 3.6860762142	 0.2074167283	-0.327028
C	 1.300098034	 2.2831576371	-0.1537833865	-0.056144
C	 0.3255765908	 2.271521742	-1.278912083	-0.128497
H	-1.8101998674	 1.7429248659	 1.4015533124	 0.123615
H	-1.9683047893	 4.2162527713	 0.485130329	 0.117038
H	-0.1440450744	 4.526422057	-1.4419118463	 0.089319
H	 1.8367009266	 4.2154796127	-0.2423414932	 0.230431
H	 2.2308301733	 1.7590760765	 0.0239731314	 0.126817
H	 0.3307043964	 1.8590403356	-2.2802938134	 0.119062
153.5158	161.3681	379.5091	398.7574	492.2871	514.5695	538.5448	580.2448	682.5083	721.3043	753.6287	807.5967	817.4744	857.4964	891.5849	896.0665	933.3482	935.7699	986.7805	1030.3088	1052.3287	1078.0385	1096.7204	1154.1098	1183.4817	1228.1379	1247.7323	1262.6562	1344.4072	1353.289	1380.2198	1645.1047	2349.9453	3142.4596	3185.7527	3204.8387	3218.1762	3241.3358	3475.5545
N#CC12C=CC3NC1C23	N#C[C@@]12C=C[C@H]3N[C@@H]1[C@@H]23	
InChI=1S/C7H6N2/c8-3-7-2-1-4-5(7)6(7)9-4/h1-2,4-6,9H	InChI=1S/C7H6N2/c8-3-7-2-1-4-5(7)6(7)9-4/h1-2,4-6,9H/t4-,5+,6-,7-/m1/s1
