21
gdb 79338	3.04644	1.48015	1.38023	1.2952	80.59	-0.2359	0.0825	0.3185	1050.8523	0.184878	-387.103076	-387.095423	-387.094479	-387.134502	32.103	
C	-0.1269002781	 1.5472999709	-0.0437067954	-0.419507
C	 0.0340331569	 0.0282016335	-0.0096579144	 0.041134
C	 0.9256199896	-0.5627357596	-1.1012627706	-0.102326
C	 2.3437293522	-0.6504264539	-0.5336915134	-0.13612
C	 2.2887065027	-0.1302714496	 0.8977995162	-0.228493
C	 0.8289785077	-0.5629991503	 1.1926556364	-0.056048
C	 0.8706996389	-2.0645772093	 0.8172092164	-0.295789
C	 1.4460674433	-1.8779330172	-0.5855890752	 0.408045
O	 1.6424636431	-2.9362723913	-1.4626287961	-0.48264
H	 0.8369958758	 2.0631132893	-0.0775632326	 0.118244
H	-0.6911118139	 1.8555927052	-0.9304544217	 0.113286
H	-0.6725421834	 1.9058732931	 0.8362711445	 0.108933
H	-0.963306946	-0.4297428772	-0.0405415632	 0.066897
H	 0.7541895316	-0.4129461443	-2.1593473796	 0.084141
H	 3.2090757309	-0.5649735175	-1.1778413346	 0.079546
H	 3.0048896295	-0.6302268721	 1.559665315	 0.088841
H	 2.4483291333	 0.9484821481	 0.9828028485	 0.095597
H	 0.4442742731	-0.3228077469	 2.1843431744	 0.059073
H	 1.5258793538	-2.6492809752	 1.4742677509	 0.080722
H	-0.1198725076	-2.5310969391	 0.8044338191	 0.09712
H	 2.3905590867	-3.4532974066	-1.1440061944	 0.279345
176.7148	225.3873	239.349	286.6432	323.539	375.0974	435.3074	461.7513	521.5243	580.3377	662.8693	706.1815	756.2458	839.7165	867.6848	901.0508	907.6454	925.4961	938.3441	948.541	984.9229	1002.0511	1008.5296	1045.0409	1067.4401	1095.1842	1122.8888	1133.6721	1146.4832	1170.9949	1216.575	1231.3062	1255.3513	1277.814	1286.6658	1323.6356	1329.0817	1331.8218	1384.6678	1411.7251	1447.361	1487.8786	1495.3033	1502.8942	1516.8315	3016.261	3030.627	3031.7294	3042.4375	3079.9341	3086.4979	3092.1857	3110.5263	3111.3931	3197.4792	3206.417	3790.9463
CC1C2C3CC1CC23O	C[C@H]1[C@H]2[C@H]3C[C@@H]1C[C@@]23O	
InChI=1S/C8H12O/c1-4-5-2-6-7(4)8(6,9)3-5/h4-7,9H,2-3H2,1H3	InChI=1S/C8H12O/c1-4-5-2-6-7(4)8(6,9)3-5/h4-7,9H,2-3H2,1H3/t4-,5-,6-,7+,8+/m1/s1
