18
gdb 38236	3.19227	2.08861	1.74	1.1713	75.24	-0.2258	0.0484	0.2742	835.0846	0.149945	-401.774882	-401.768907	-401.767963	-401.804651	26.819	
C	 0.0103935406	 1.7464079304	-0.0056796516	-0.207596
N	 1.4788692418	 1.5252382585	 0.1124303064	-0.151435
C	 1.0765977945	 0.3114556299	 0.9978806618	-0.250447
C	-0.0710000115	 0.1948737011	-0.1017400051	 0.372946
O	-1.3272646448	-0.2584299984	-0.5915509356	-0.360327
C	-1.2125538421	 0.3524672882	-1.9300806217	-0.123136
C	 0.3232536233	 0.4578910901	-2.2677664851	-0.144914
C	 1.6269025934	 0.9111125092	-1.2837365462	-0.040344
C	 0.9091842901	-0.3418180855	-1.2037310758	-0.050434
H	-0.4262846436	 2.0920899721	 0.9359270279	 0.097607
H	-0.283023097	 2.4039712124	-0.8202961944	 0.113054
H	 1.8085186811	-0.4955587058	 1.0572556798	 0.11575
H	 0.801041316	 0.6798596252	 1.9856425434	 0.123017
H	-1.6623881978	-0.3512508273	-2.6375324214	 0.120091
H	-1.7749483741	 1.2909489388	-1.9526487698	 0.11453
H	 0.6090469883	 0.3603341853	-3.3116971487	 0.091157
H	 2.5562303739	 1.1042623492	-1.8073242698	 0.095225
H	 1.235357278	-1.3765384234	-1.1633398241	 0.085257
296.1763	322.6163	431.1895	457.4794	508.93	550.2174	627.5505	666.2624	694.7042	736.8536	757.5714	821.4562	832.7754	863.7561	887.7368	905.8716	923.0278	964.9399	975.5583	998.1061	1013.3715	1043.2041	1075.1368	1087.4736	1116.6667	1148.5926	1164.6469	1189.9588	1194.3388	1197.3081	1218.9154	1246.8326	1272.0411	1294.7903	1327.1766	1394.5827	1496.4753	1498.0972	1539.8929	3043.5057	3059.9877	3083.8299	3093.1883	3142.3614	3152.9943	3154.9388	3161.3712	3183.8272
C1N2CC11OCC3C2C13	C1N2C[C@]31OC[C@H]1[C@@H]2[C@@H]31	
InChI=1S/C7H9NO/c1-4-5-6(4)8-2-7(5,3-8)9-1/h4-6H,1-3H2	InChI=1S/C7H9NO/c1-4-5-6(4)8-2-7(5,3-8)9-1/h4-6H,1-3H2/t4-,5+,6-/m1/s1
