18
gdb 42915	2.71377	1.52333	1.19908	2.087	75.49	-0.242	-0.024	0.218	1073.6723	0.147899	-401.900367	-401.892509	-401.891565	-401.933077	30.096	
O	 0.1119516616	 0.0856847911	-0.3735605531	-0.32172
C	 0.0135663716	 1.2513006981	-0.1133797239	 0.40354
C	-1.1063510902	 2.2467274194	-0.1158603403	-0.160996
C	-1.0135467825	 3.0824861798	 1.1212744617	-0.238834
N	-0.1106130043	 3.4003854676	 0.0246363699	-0.132143
C	 1.0303623685	 2.3977573669	 0.1023165915	-0.109264
C	 1.9715199651	 2.4417881658	 1.2746047123	-0.013506
C	 1.7897890737	 1.5894307117	 2.5116378324	-0.269386
C	 2.8747620782	 1.2569209467	 1.5225463832	-0.272321
H	-1.9650074872	 2.2728341145	-0.7767811283	 0.123248
H	-1.8064207556	 3.8123469419	 1.2563941549	 0.135336
H	-0.6233038816	 2.6585998052	 2.0401205933	 0.138608
H	 1.5965260098	 2.505265997	-0.8317853124	 0.120488
H	 2.4152706646	 3.4220081289	 1.4297989309	 0.100248
H	 2.0705887872	 2.0196008461	 3.4666635111	 0.115816
H	 0.941325804	 0.9154334887	 2.5593847443	 0.124076
H	 2.7229682499	 0.3819723006	 0.8997033548	 0.140647
H	 3.9066439873	 1.4482353001	 1.7937842377	 0.116162
85.2046	120.5556	139.874	212.4061	336.0828	363.5575	450.7157	531.5937	631.9137	705.0477	737.7913	784.2645	808.8223	822.0448	839.7766	878.4052	920.6326	953.7653	1001.2172	1036.0651	1047.721	1064.6715	1093.3903	1097.9716	1110.1402	1124.302	1139.4898	1163.6152	1203.2109	1208.1378	1225.4755	1260.2139	1309.3702	1337.9826	1391.8585	1466.9327	1504.0014	1504.7762	1882.1583	3035.1442	3127.8136	3133.7433	3136.7301	3140.8963	3188.673	3214.0392	3217.3597	3230.6452
O=C1C2CN2C1C1CC1	O=C1[C@H]2CN2[C@H]1C1CC1	
InChI=1S/C7H9NO/c9-7-5-3-8(5)6(7)4-1-2-4/h4-6H,1-3H2	InChI=1S/C7H9NO/c9-7-5-3-8(5)6(7)4-1-2-4/h4-6H,1-3H2/t5-,6+,8?/m1/s1
