21
gdb 57278	2.57141	1.21557	1.03261	2.9562	82.83	-0.266	0.0357	0.3018	1263.2836	0.182749	-383.273828	-383.264136	-383.263192	-383.308193	36.418	
C	 0.0809451572	 1.5080194031	 0.0636169949	-0.402938
C	-0.0369139794	-0.0265759744	 0.0422863405	 0.041091
N	 0.545852842	-0.5521979082	 1.2839266517	-0.517202
C	-1.471181193	-0.3980600207	-0.0762653998	 0.253272
N	-2.581420604	-0.7168765224	-0.1406700751	-0.347283
C	 0.7067610839	-0.5944496004	-1.1851477256	 0.078778
C	 2.2475962403	-0.4173929285	-1.2765332071	-0.246806
C	 2.3217856334	-1.8273961127	-1.922842637	-0.216016
C	 0.9082819988	-2.1268667545	-1.3529479274	-0.249876
H	 1.1332912298	 1.7826929167	 0.1671521649	 0.140018
H	-0.3157094703	 1.9417849509	-0.8573477158	 0.134474
H	-0.4756194239	 1.9311799277	 0.9052578989	 0.126628
H	 0.1142386146	-0.0979756107	 2.0836255621	 0.23866
H	 0.3446709938	-1.5431791734	 1.3764451506	 0.242008
H	 0.2236426257	-0.1906636101	-2.0807956059	 0.08521
H	 2.6264711916	 0.4303850738	-1.8517854245	 0.09649
H	 2.6926486836	-0.4050924735	-0.2788482195	 0.123968
H	 2.3137177669	-1.7756628943	-3.0150451555	 0.106134
H	 3.1385528562	-2.4818402441	-1.6116747195	 0.101466
H	 0.9757177709	-2.6446338691	-0.3916469154	 0.100437
H	 0.1957788218	-2.6610781151	-1.9843931953	 0.111487
70.3367	114.1685	143.2466	188.8566	227.6534	241.3932	280.9329	296.6603	360.8191	411.9401	454.9411	537.042	600.7036	636.0243	728.8043	785.9491	812.8776	888.5017	895.8871	929.6566	936.3828	961.1777	976.6643	1029.2764	1035.4894	1077.0405	1111.4636	1174.1259	1205.1624	1225.2739	1251.0042	1259.837	1263.0588	1283.6864	1293.642	1313.923	1380.569	1404.8738	1476.3313	1486.1417	1486.9548	1493.8743	1509.8967	1659.3878	2336.7248	3046.7743	3053.4383	3060.9767	3061.697	3068.5784	3107.1062	3118.4737	3120.0168	3130.5409	3138.0302	3498.3792	3575.1469
CC(N)(C#N)C1CCC1	C[C@@](N)(C#N)C1CCC1	
InChI=1S/C7H12N2/c1-7(9,5-8)6-3-2-4-6/h6H,2-4,9H2,1H3	InChI=1S/C7H12N2/c1-7(9,5-8)6-3-2-4-6/h6H,2-4,9H2,1H3/t7-/m1/s1
