15
gdb 125145	3.3259	1.29592	0.93909	3.5534	79.6	-0.2315	-0.0331	0.1984	1183.7497	0.111622	-416.779686	-416.771004	-416.77006	-416.812842	32.059	
C	-0.0442122295	 1.5444954377	 0.0693064917	-0.529916
C	-0.0076426041	 0.0538959687	 0.0235311414	-0.011875
C	-0.000181638	-0.7781428222	-1.0606132323	 0.256729
O	 0.0149082524	-2.0731887953	-0.6668099958	-0.2322
N	 0.0305656665	-2.1167960632	 0.7251118299	-0.215177
C	 0.0067403729	-0.861898188	 1.1213958536	 0.345137
N	-0.0706239022	-0.5288297347	 2.4631898888	-0.600072
C	-0.0154806197	-0.5042837506	-2.4420520062	 0.237131
C	-0.0276299507	-0.2496059988	-3.618637738	-0.38633
H	 0.8643225132	 1.9613763976	 0.5221110833	 0.129641
H	-0.1303769984	 1.9586297873	-0.9379229895	 0.145419
H	-0.894814993	 1.9018285012	 0.6607687731	 0.142803
H	 0.132017677	-1.3102480895	 3.0729271842	 0.261912
H	 0.4635011719	 0.2900029682	 2.718237118	 0.25481
H	-0.0384147382	-0.0327655685	-4.6584509123	 0.201989
116.6194	124.8343	134.5283	232.4747	239.0997	290.9837	353.0855	397.9029	460.7997	523.2549	584.8064	586.104	642.9433	684.1708	690.9258	698.3328	759.8497	782.0439	955.8565	983.6999	1065.4102	1135.0152	1143.4496	1203.6692	1306.5475	1419.2067	1475.195	1483.3589	1504.4706	1550.3929	1640.0372	1669.6422	2235.2642	3022.3225	3073.117	3123.8117	3499.9499	3552.0535	3651.1198
CC1=C(ON=C1N)C#C	Cc1c(onc1N)C#C	
InChI=1S/C6H6N2O/c1-3-5-4(2)6(7)8-9-5/h1H,2H3,(H2,7,8)	InChI=1S/C6H6N2O/c1-3-5-4(2)6(7)8-9-5/h1H,2H3,(H2,7,8)
