19
gdb 34394	2.63906	1.51579	1.26821	1.2029	80.89	-0.2409	0.047	0.2879	1071.0675	0.159925	-385.854395	-385.846378	-385.845433	-385.886854	31.72	
C	-0.0495636014	-1.1862959223	-0.4419424724	-0.410067
C	-0.0412785932	-0.0117235244	-0.1802136719	 0.191386
C	-0.0198947981	 1.4023630372	 0.1182112523	 0.145909
C	-0.4164992695	 2.3539702223	-1.0681156081	-0.281661
C	 0.9769593827	 3.0354199354	-1.0106770513	-0.244318
C	 1.3905464254	 2.124327412	 0.1789355427	 0.080334
O	 1.4954769867	 2.7513554177	 1.4368295601	-0.252395
C	 0.1774009624	 2.9928413081	 1.9183732478	-0.10005
C	-0.6419839269	 1.7688930011	 1.4838468657	-0.282916
H	-0.0586685546	-2.2235859529	-0.667999483	 0.187423
H	-0.6266604897	 1.819809607	-1.995132753	 0.117251
H	-1.2654873709	 3.0042974459	-0.8410416318	 0.101124
H	 1.5860354795	 2.890808283	-1.9055386791	 0.108459
H	 0.9765702712	 4.0989901705	-0.7613763718	 0.109591
H	 2.279675839	 1.5101591791	 0.0308052758	 0.091435
H	 0.235886902	 3.1200455935	 3.001997112	 0.115533
H	-0.235119548	 3.9188901595	 1.4878538261	 0.093451
H	-1.7137843885	 1.9722007045	 1.4141551458	 0.108426
H	-0.4905554382	 0.9450974427	 2.1858384441	 0.121084
84.8701	146.007	176.1194	233.5349	340.5258	396.5995	490.5891	511.1908	543.1402	609.2201	615.007	624.5603	655.7948	741.8854	819.5852	843.546	884.2181	926.9278	954.4626	960.488	981.1713	1010.4561	1053.2609	1078.3617	1150.0816	1155.3208	1190.0819	1213.9339	1225.7273	1246.4605	1259.5604	1266.4095	1273.1585	1335.7873	1355.6143	1391.8662	1470.4955	1483.0788	1491.0337	1523.1669	2229.4106	2981.1249	3063.9141	3065.1171	3070.5005	3097.7895	3104.1325	3116.9048	3117.978	3136.145	3502.5801
C#CC12CCC1OCC2	C#C[C@]12CC[C@H]1OCC2	
InChI=1S/C8H10O/c1-2-8-4-3-7(8)9-6-5-8/h1,7H,3-6H2	InChI=1S/C8H10O/c1-2-8-4-3-7(8)9-6-5-8/h1,7H,3-6H2/t7-,8-/m1/s1
