19
gdb 102771	2.34455	0.8165	0.62561	3.8282	82.54	-0.2428	-0.0217	0.2211	1773.5072	0.154555	-422.998636	-422.987416	-422.986472	-423.037455	36.907	
C	 0.2705211318	 1.4763302579	-0.0700073503	-0.23905
O	-0.0874155352	 0.1142550938	 0.0511234547	-0.23134
C	 0.6087028286	-0.5769007041	 1.079654675	-0.106056
C	-0.0796623513	-1.9462204047	 1.2180095791	-0.283403
C	-1.5185787019	-1.8327551247	 1.6803010349	 0.149424
O	-2.0365137601	-2.5927751841	 2.4583873318	-0.244954
C	 2.0409489299	-0.7218095512	 0.7980217342	 0.083022
C	 3.2144006511	-0.8558734605	 0.5616325529	 0.088663
C	 4.6326634694	-1.0196112578	 0.2782888874	-0.500974
H	 1.3321061514	 1.5944992352	-0.3238783726	 0.120843
H	-0.3406072447	 1.8944405639	-0.8727448446	 0.130956
H	 0.0681772685	 2.0303052149	 0.8595983473	 0.106718
H	 0.4950797484	-0.0198429078	 2.0270680891	 0.096298
H	-0.0762002305	-2.4142398157	 0.2249402276	 0.142932
H	 0.4682119378	-2.5961898028	 1.9033367622	 0.131579
H	-2.0818184523	-0.9857563063	 1.2342807429	 0.094703
H	 5.019954393	-1.9390042408	 0.7306846196	 0.154666
H	 4.8153690683	-1.078999521	-0.8000596716	 0.154359
H	 5.2189960278	-0.182108754	 0.6713997604	 0.151613
28.4463	52.0515	66.931	84.5157	103.4258	144.295	206.8546	233.2727	271.9751	315.1149	349.5205	424.1354	449.167	538.8477	582.9216	788.6917	796.6686	889.2632	1015.4788	1051.5647	1054.3356	1078.7774	1093.326	1139.5874	1161.4691	1184.592	1200.5943	1249.3947	1275.9549	1354.5064	1368.0092	1414.2097	1417.5573	1441.6393	1476.2806	1477.7452	1477.9174	1485.1537	1510.753	1830.0941	2365.3039	2913.1661	2939.4342	2985.8621	3030.3512	3040.3157	3048.9155	3092.6123	3093.4258	3123.3986	3123.8984
COC(CC=O)C#CC	CO[C@@H](CC=O)C#CC	
InChI=1S/C7H10O2/c1-3-4-7(9-2)5-6-8/h6-7H,5H2,1-2H3	InChI=1S/C7H10O2/c1-3-4-7(9-2)5-6-8/h6-7H,5H2,1-2H3/t7-/m1/s1
