23
gdb 104183	2.44681	1.29372	1.17373	1.8138	81.81	-0.2375	0.0774	0.3148	1237.3959	0.204085	-425.431046	-425.420899	-425.419955	-425.46635	37.639	
C	 0.2439153347	 1.0116408165	-0.3621868461	-0.24691
O	-0.1390459395	-0.3355448211	-0.2002042914	-0.281204
C	-1.525283037	-0.6087396351	 0.0422433653	 0.383127
C	-2.0453323712	 0.1118564027	 1.2861330614	-0.465327
C	-2.3715859743	-0.3642462329	-1.2202486368	-0.104703
O	-2.0728345139	-1.424441154	-2.1034372208	-0.272007
C	-1.7274233807	-2.5994709401	-1.3499715736	 0.145767
C	-0.4532516517	-3.1917861959	-1.9385125819	-0.393027
C	-1.6023506755	-2.143553085	 0.1239951231	-0.285018
H	 1.3050749711	 1.0013106544	-0.6237641186	 0.12865
H	-0.3022228837	 1.5181789642	-1.1704503493	 0.10703
H	 0.1209922457	 1.5985041482	 0.5587972018	 0.106664
H	-2.0854554186	 1.1962926486	 1.1444854362	 0.118754
H	-3.0569695911	-0.2255467998	 1.5280365268	 0.119326
H	-1.3985351442	-0.0952902573	 2.1440011311	 0.126509
H	-3.4412532841	-0.3499720904	-0.948456544	 0.07794
H	-2.1454099931	 0.5786826025	-1.7267654485	 0.10308
H	-2.5475253779	-3.3252514886	-1.4507304085	 0.064156
H	 0.3793519726	-2.4985874488	-1.794262811	 0.133896
H	-0.2113826526	-4.1445432896	-1.4554128063	 0.104403
H	-0.5802400405	-3.3723947242	-3.0098829704	 0.118234
H	-0.7135198732	-2.544164425	 0.6151333364	 0.11465
H	-2.4806279813	-2.4424948692	 0.7025041448	 0.096012
55.0177	58.4432	132.4677	201.92	221.4574	248.3627	254.3149	308.3426	358.4577	367.9321	404.4977	425.8834	485.2244	610.4764	707.6009	776.3322	816.5408	867.9095	889.1144	909.1572	935.8942	997.8743	1037.1384	1054.0659	1106.509	1117.9773	1134.3376	1175.1745	1180.0527	1190.4108	1201.5847	1224.0762	1257.8613	1288.3921	1313.0764	1338.2313	1384.3651	1397.2478	1404.6229	1405.8357	1474.08	1478.4474	1485.1171	1487.5325	1490.2932	1499.7129	1503.977	1506.671	1519.7082	2953.996	2986.2197	2991.4907	3037.3573	3038.3444	3043.5579	3066.4183	3079.453	3107.149	3108.5062	3110.7615	3116.7948	3123.0388	3130.2088
COC1(C)COC(C)C1	CO[C@@]1(C)CO[C@@H](C)C1	
InChI=1S/C7H14O2/c1-6-4-7(2,8-3)5-9-6/h6H,4-5H2,1-3H3	InChI=1S/C7H14O2/c1-6-4-7(2,8-3)5-9-6/h6H,4-5H2,1-3H3/t6-,7+/m0/s1
