20
gdb 113726	3.35165	0.86121	0.76073	5.4444	80.52	-0.2599	0.0225	0.2823	1544.096	0.170924	-399.309331	-399.299224	-399.29828	-399.345148	36.179	
C	-0.6148364371	 1.5433000498	 0.7224299303	-0.381404
C	-0.4640295185	 0.0328097536	 0.9372072411	-0.190293
C	-1.6387477453	-0.7344523018	 0.3685672324	-0.008923
N	-1.6486023781	-0.9670147063	-1.0848136779	-0.327556
C	-1.5868758914	-2.1189865251	-0.1808904663	-0.048124
C	-0.3126696702	-2.9618762159	-0.2164718293	-0.132342
N	-0.0064225613	-3.6836382082	 1.0231509349	-0.506559
C	-0.4032548931	-3.9290228597	-1.3236444982	 0.301363
N	-0.5190748157	-4.6857599352	-2.1887194606	-0.319113
H	 0.2399612774	 2.0884545217	 1.1328074104	 0.117363
H	-0.6847798686	 1.7710152119	-0.3453801652	 0.135204
H	-1.5193440309	 1.9247228298	 1.2091347441	 0.114011
H	 0.4641049953	-0.3070443731	 0.467025203	 0.107792
H	-0.3795480786	-0.1847584712	 2.0103037962	 0.0965
H	-2.5931426251	-0.4674570884	 0.8248933832	 0.087568
H	-2.5769954345	-0.860394154	-1.4820845203	 0.240363
H	-2.488108126	-2.7199539291	-0.05895086	 0.093701
H	 0.5304625045	-2.3008340318	-0.4415931995	 0.14125
H	 0.057966452	-3.0122732406	 1.7829362416	 0.23996
H	-0.7693685347	-4.3143886564	 1.2536133401	 0.23924
43.6504	79.5869	106.3976	153.8642	206.8067	223.0107	242.6558	271.1954	309.9031	394.7774	469.5173	500.4226	573.0762	610.5662	763.5364	807.426	843.0938	879.4517	891.8821	938.8026	956.8569	991.9152	1039.1352	1067.2052	1107.6439	1123.5731	1154.9617	1177.5605	1217.4087	1249.2769	1269.1859	1296.6286	1309.4173	1346.0095	1389.8441	1407.1591	1420.6795	1476.1499	1479.4061	1498.7197	1508.3587	1656.2674	2363.1291	3022.3882	3035.8323	3066.1468	3076.5766	3093.4856	3106.0972	3110.8845	3117.2229	3488.8174	3520.3641	3572.8768
CCC1NC1C(N)C#N	CC[C@H]1N[C@H]1[C@@H](N)C#N	
InChI=1S/C6H11N3/c1-2-5-6(9-5)4(8)3-7/h4-6,9H,2,8H2,1H3	InChI=1S/C6H11N3/c1-2-5-6(9-5)4(8)3-7/h4-6,9H,2,8H2,1H3/t4-,5+,6-/m0/s1
