21
gdb 59551	2.53896	1.32776	1.03895	1.4494	78.26	-0.2405	0.068	0.3085	1231.1407	0.180996	-424.193836	-424.184377	-424.183433	-424.227773	36.451	
C	 0.090123198	 1.5470828031	-0.0024330111	-0.408776
C	 0.0299281792	 0.0242309159	 0.0884755507	 0.109932
O	 0.5966296032	-0.452952242	 1.3177316127	-0.438689
C	-1.3778260356	-0.5396757811	-0.0615995427	-0.058783
C	-2.1325111656	-0.5655694536	-1.4380807042	-0.269354
C	-2.333771298	-2.0812098461	-1.2773248356	-0.111851
C	-0.9754578815	-2.7448172565	-1.2161267228	-0.340779
C	-1.5246385728	-2.0616114404	 0.0085767457	 0.413828
O	-1.765301658	-2.7440207686	 1.1872443152	-0.46873
H	 1.115400338	 1.900735883	 0.1376486334	 0.123679
H	-0.2688491778	 1.897511826	-0.9756587385	 0.122463
H	-0.5411292038	 2.0075845749	 0.7684589267	 0.105891
H	 0.6763750248	-0.4058783415	-0.6857052616	 0.086788
H	 0.1194456817	-0.0240474669	 2.0375296927	 0.276737
H	-2.0267346917	-0.0867226155	 0.6991994159	 0.066076
H	-3.0554121969	 0.0170869501	-1.4254615919	 0.105299
H	-1.5429377696	-0.2696309129	-2.3132462377	 0.094504
H	-3.2328084971	-2.6314867528	-1.5241052512	 0.092569
H	-1.0037487542	-3.827139542	-1.1429365291	 0.114402
H	-0.1382861967	-2.3507250323	-1.7890610684	 0.099532
H	-0.9222389257	-2.7829931909	 1.6553919918	 0.285263
80.1654	110.8363	145.6635	238.4591	247.5699	274.6623	311.9829	382.8624	394.7445	402.2838	448.3347	472.3139	526.0696	653.5572	713.6996	804.3622	849.2256	888.9349	899.8535	945.9058	975.0834	988.4287	1013.9611	1023.3827	1045.4746	1073.564	1088.6751	1103.9881	1154.8879	1178.2182	1209.7148	1220.1532	1236.9601	1266.5714	1298.8408	1320.9043	1333.2012	1394.3932	1402.3902	1415.7097	1421.6407	1481.5437	1491.7141	1494.0668	1509.5001	3019.8907	3022.62	3039.3538	3045.6557	3092.5054	3100.4706	3109.4213	3116.0388	3192.1371	3203.6619	3780.6034	3791.1727
CC(O)C1CC2CC12O	C[C@@H](O)[C@H]1C[C@H]2C[C@@]12O	
InChI=1S/C7H12O2/c1-4(8)6-2-5-3-7(5,6)9/h4-6,8-9H,2-3H2,1H3	InChI=1S/C7H12O2/c1-4(8)6-2-5-3-7(5,6)9/h4-6,8-9H,2-3H2,1H3/t4-,5+,6-,7+/m1/s1
