20
gdb 7826	3.13314	1.81584	1.23898	1.5649	71.8	-0.2549	0.0935	0.3484	1027.9444	0.177349	-386.162887	-386.154775	-386.153831	-386.194907	31.229	
C	 0.0010808578	 1.5250102641	 0.0749419608	-0.402934
C	 0.0465963287	 0.0084146335	-0.008612782	 0.143036
C	 0.7422020255	-0.5216948497	-1.2687446673	-0.203753
C	 0.9104483523	-2.0374873919	-1.1483444914	-0.092146
O	 1.5473793557	-2.372919315	 0.0754923451	-0.246997
C	 0.8410616217	-1.8669433751	 1.1851783393	 0.225165
C	 1.5869651491	-2.2579582766	 2.4422714154	-0.407304
O	 0.7398883124	-0.4624262599	 1.1473755717	-0.264698
H	 1.0145890843	 1.9374562209	 0.0659846231	 0.125543
H	-0.5512948792	 1.9394257654	-0.7739798104	 0.112936
H	-0.4893996241	 1.8418529438	 0.9993841161	 0.12349
H	-0.983717349	-0.3913945409	 0.015345916	 0.061005
H	 0.1601682037	-0.2709440578	-2.1629280665	 0.094614
H	 1.7275704821	-0.0505776844	-1.3580887014	 0.108529
H	-0.0751784436	-2.5314980551	-1.2055261905	 0.085696
H	 1.5365473034	-2.4430666467	-1.9475515821	 0.108969
H	-0.1826477862	-2.2940726511	 1.1742603638	 0.047626
H	 2.5886901008	-1.8219442644	 2.4211424188	 0.133554
H	 1.0557160166	-1.8878778424	 3.3219299135	 0.123571
H	 1.6728881579	-3.3451957366	 2.5023002281	 0.124097
153.1437	162.4909	209.2355	229.3151	253.8693	302.1522	363.8702	443.1149	466.6739	490.6851	556.1494	652.9636	810.3638	852.2577	873.5421	911.9977	964.8721	974.5007	989.9893	1062.8043	1100.6885	1117.3295	1135.987	1163.4955	1195.8555	1201.5257	1245.0381	1276.4193	1337.9275	1354.1343	1386.1067	1396.2535	1402.1731	1409.514	1419.2468	1438.623	1466.4917	1481.8935	1483.6338	1489.3139	1499.9463	1504.3427	2892.2066	2935.3152	2959.4849	3035.7665	3042.6691	3058.1872	3084.6214	3090.9667	3116.5149	3120.5603	3139.7136	3141.1928
CC1CCOC(C)O1	C[C@H]1CCO[C@@H](C)O1	
InChI=1S/C6H12O2/c1-5-3-4-7-6(2)8-5/h5-6H,3-4H2,1-2H3	InChI=1S/C6H12O2/c1-5-3-4-7-6(2)8-5/h5-6H,3-4H2,1-2H3/t5-,6+/m0/s1
