20
gdb 126586	5.53868	0.66732	0.63629	3.0984	81.2	-0.2537	0.0158	0.2695	1802.4753	0.173044	-399.370429	-399.361297	-399.360353	-399.406102	32.487	
C	 0.0592262663	 1.5630804009	-0.1194398171	-0.383005
C	 0.0062484826	 0.0393513691	 0.0196144494	-0.166841
C	-1.4201321436	-0.5145609973	-0.0416127152	-0.15219
C	-1.4736145159	-2.0468610516	 0.0978403592	-0.330198
C	-2.8711195335	-2.5754972698	 0.1074086152	 0.3825
N	-3.8133941078	-2.3052429249	 0.9979340976	-0.311784
C	-4.8831327875	-3.0134581477	 0.5432313599	 0.024111
N	-4.6763242744	-3.7048281945	-0.5647213221	-0.217264
N	-3.3792810218	-3.4082366305	-0.8280842609	-0.241492
H	 1.0880699473	 1.9323688111	-0.0681836337	 0.113583
H	-0.3644229977	 1.8886533367	-1.0759344143	 0.115353
H	-0.5112737356	 2.0523387431	 0.6774465423	 0.11951
H	 0.6123428712	-0.4228503449	-0.7713669679	 0.09257
H	 0.4689902094	-0.2594168405	 0.9695539779	 0.099158
H	-2.0305015444	-0.0739287801	 0.7544683107	 0.127784
H	-1.8913683491	-0.2215456076	-0.9888068979	 0.097922
H	-0.908171109	-2.5201617162	-0.7142026167	 0.0988
H	-0.984560054	-2.3410000494	 1.034153816	 0.133112
H	-5.8403367947	-3.021169748	 1.043128987	 0.122986
H	-2.9295920177	-3.8069139578	-1.6359630092	 0.275385
25.7884	84.5192	91.6709	121.5014	242.7029	251.1352	318.7355	333.5269	436.2867	565.7192	698.617	707.5088	737.5687	779.1185	796.7318	910.1099	912.7012	932.6354	982.1096	1011.6704	1050.4754	1063.7232	1099.55	1123.1425	1130.8793	1217.5377	1229.0114	1267.4201	1292.2883	1309.62	1323.7328	1333.8442	1367.029	1397.6763	1414.3937	1420.201	1475.163	1485.7905	1497.1063	1500.6603	1505.0878	1512.9093	1585.9911	3011.2108	3023.1099	3031.0753	3032.5544	3041.9637	3062.5929	3085.9654	3100.0597	3104.5564	3259.2892	3661.4553
CCCCC1=NC=NN1	CCCCc1ncn[nH]1	
InChI=1S/C6H11N3/c1-2-3-4-6-7-5-8-9-6/h5H,2-4H2,1H3,(H,7,8,9)	InChI=1S/C6H11N3/c1-2-3-4-6-7-5-8-9-6/h5H,2-4H2,1H3,(H,7,8,9)
