17
gdb 30043	2.48866	1.81842	1.06445	3.4024	80.07	-0.2192	-0.0471	0.1721	1102.6526	0.136635	-418.077218	-418.068746	-418.067801	-418.110526	30.941	
C	-0.0068150201	 1.4537528406	 0.0173198005	-0.336577
N	-0.011631395	-0.0046700115	-0.0260248531	-0.107225
C	-0.0841125576	-0.6936361452	-1.2034567214	-0.002718
C	-0.0858751312	-2.0509783578	-1.198865709	-0.087703
N	-0.016626873	-2.7731302021	-0.0397396325	-0.296189
C	 0.0531604827	-2.1368084368	 1.094626374	 0.206354
C	 0.1302697891	-2.8957491596	 2.3842092459	-0.456828
C	 0.0620455416	-0.6681428199	 1.2047598478	 0.366807
O	 0.1265935712	-0.041066783	 2.2531501982	-0.40115
H	 0.9062326942	 1.8085625201	 0.5012568607	 0.160623
H	-0.0677983954	 1.8420563503	-0.9996510845	 0.130771
H	-0.8537468416	 1.8112196716	 0.6078031327	 0.160616
H	-0.1381932351	-0.1023276768	-2.1094026692	 0.130908
H	-0.142943924	-2.608172702	-2.1255882806	 0.115165
H	 0.1165459614	-3.9675432041	 2.1843845706	 0.132243
H	 1.0401734056	-2.6295996876	 2.933232855	 0.142451
H	-0.7057876127	-2.6269943662	 3.0391642248	 0.142451
79.7534	113.3285	134.4243	215.8564	272.3993	282.0805	333.9093	480.514	487.7439	539.8349	566.3319	580.764	703.8842	792.1864	810.6066	881.8085	913.8748	940.5478	1014.7562	1049.2913	1065.1985	1150.6065	1152.3829	1251.2191	1256.818	1305.6086	1357.1494	1404.6794	1445.755	1465.0035	1465.9495	1467.8129	1475.615	1515.6567	1574.1235	1652.3314	1743.2455	3039.4558	3058.0499	3090.33	3125.4172	3152.075	3155.8273	3196.6318	3214.8442
CN1C=CN=C(C)C1=O	Cn1ccnc(C)c1=O	
InChI=1S/C6H8N2O/c1-5-6(9)8(2)4-3-7-5/h3-4H,1-2H3	InChI=1S/C6H8N2O/c1-5-6(9)8(2)4-3-7-5/h3-4H,1-2H3
