19
gdb 22229	2.96839	0.93104	0.7821	5.8149	81.95	-0.1846	-0.0568	0.1278	1494.9515	0.156866	-456.290092	-456.279849	-456.278905	-456.32612	35.784	
C	 0.622915229	 0.9708467847	 0.2215141044	-0.32685
N	-0.4286051603	 0.2380170454	-0.4888971095	-0.318708
H	-0.5253504752	-1.505786779	 0.0987778211	 0.30341
H	-1.21825868	 0.8441883509	-0.6688888257	 0.241332
C	 0.0193555831	-0.3977833562	-1.7336280844	-0.286158
C	 0.4752044612	-1.8171341996	-1.4058310607	 0.345703
O	-0.0517452705	-2.2895160738	-0.2817021635	-0.383354
C	 1.3070124668	-2.5676752095	-2.1828863447	 0.203373
C	 1.7095478071	-3.9824524579	-1.8985511336	-0.493412
N	 1.7711694238	-1.8933887867	-3.3116965627	-0.069802
O	 2.4989447846	-2.5567190875	-4.0523206465	-0.314249
H	 1.4137511067	 0.2747763244	 0.517482484	 0.146105
H	 1.0804549344	 1.7653853863	-0.3861129744	 0.124191
H	 0.2080274837	 1.4154344246	 1.1296907779	 0.132376
H	-0.8366607166	-0.4639965553	-2.4141299289	 0.140592
H	 0.8084778921	 0.1444642083	-2.260656547	 0.148881
H	 1.4228184754	-4.6335291683	-2.7308418028	 0.139142
H	 2.7982539588	-4.0596072718	-1.8106456965	 0.137715
H	 1.2472241759	-4.3448542893	-0.9797665364	 0.129713
55.3556	77.4534	93.8608	150.6684	173.1979	207.4341	211.2396	286.1061	355.52	376.7991	424.0039	459.2215	502.0152	592.324	714.7811	768.7905	833.141	909.6032	916.8236	958.3111	1001.5956	1054.12	1071.2516	1121.2323	1153.3788	1175.5761	1259.9868	1275.1587	1321.9011	1355.0809	1403.0175	1428.6354	1461.0425	1470.5625	1473.7983	1478.8075	1486.1199	1497.8405	1515.3521	1539.2601	1720.3762	2998.2027	3044.001	3050.5385	3083.007	3094.1183	3104.3146	3122.0503	3148.5857	3314.758	3565.8111
C[NH2+]CC(=O)C(C)=N[O-]	CNCC(=C(C)N=O)O	
InChI=1S/C5H10N2O2/c1-4(7-9)5(8)3-6-2/h6,9H,3H2,1-2H3	InChI=1S/C5H10N2O2/c1-4(7-9)5(8)3-6-2/h6,8H,3H2,1-2H3
