13
gdb 19640	5.56044	1.78754	1.65617	3.0033	63.17	-0.2366	-0.0288	0.2077	764.1658	0.095061	-361.342894	-361.336924	-361.33598	-361.373133	22.655	
O	-0.1577274618	 0.0328479921	-0.1100312835	-0.276429
C	 0.009647421	 1.2165653106	 0.0823538192	 0.006875
C	 1.291899792	 1.8932154427	 0.0114211297	 0.299926
C	 1.8385577118	 3.0185933142	 0.9539721235	-0.166322
C	 3.2671572657	 2.5363484157	 0.6059576646	-0.038714
C	 2.7420718909	 1.488803238	-0.3073986498	-0.13241
N	 3.0592765735	 2.8616295658	-0.8501582717	-0.171509
C	 1.6427260239	 3.2979321119	-0.4904623584	-0.060486
H	-0.8402014195	 1.8941880195	 0.3326546809	 0.065986
H	 1.364384207	 3.4139476609	 1.8409204072	 0.118893
H	 4.2232767211	 2.653544618	 1.0996556767	 0.113871
H	 3.1842902243	 0.5850897378	-0.704896692	 0.118471
H	 1.0437931501	 4.0124121727	-1.0405361164	 0.121849
116.4649	161.4392	281.7659	454.7784	644.3656	676.1546	723.842	776.3235	786.4489	860.7611	869.9183	872.9659	895.2172	943.6915	974.0346	1000.8007	1002.6672	1027.4647	1039.3325	1118.3209	1127.6906	1193.2693	1246.8262	1307.6005	1316.2089	1389.1652	1444.2284	1787.6007	2853.5366	3194.8589	3199.2894	3213.4659	3226.5355
O=CC12C3C4C1N4C23	O=C[C@@]12[C@H]3[C@H]4[C@@H]1N4[C@@H]23	
InChI=1S/C6H5NO/c8-1-6-2-3-5(6)7(3)4(2)6/h1-5H	InChI=1S/C6H5NO/c8-1-6-2-3-5(6)7(3)4(2)6/h1-5H/t2-,3-,4+,5-,6-,7?/m0/s1
