20
gdb 100191	2.34351	1.26366	1.05378	1.6262	75.59	-0.2435	-0.0243	0.2192	1228.1458	0.16838	-440.254017	-440.243643	-440.242698	-440.290028	36.673	
C	-0.153597277	 1.6042071821	 0.1051361632	-0.471318
C	-0.0442483677	 0.078788506	-0.0156727042	 0.12079
C	 0.7831842737	-0.5113208954	 1.1351609113	-0.091309
O	 0.265044769	-0.0164999585	 2.3610782281	-0.433804
C	-1.4480136846	-0.5365912841	-0.0047270511	 0.172407
O	-1.7077818675	-1.6374895879	 0.4051744547	-0.263282
C	 0.5639776777	-0.4055315258	-1.3424168328	-0.002246
C	 0.2628210296	 0.2201097329	-2.656935242	-0.256993
N	 1.6093807022	 0.325662511	-2.0682585957	-0.327466
H	 0.8280229516	 2.0835657223	 0.0374313118	 0.122045
H	-0.8002668187	 2.0299847455	-0.6682090278	 0.119527
H	-0.5697188008	 1.8653612991	 1.0798419664	 0.157011
H	 0.7089796074	-1.604329568	 1.0858941402	 0.112356
H	 1.8395902281	-0.2285479569	 1.006013578	 0.093032
H	 0.5343490233	-0.6113895309	 3.0655591986	 0.293638
H	-2.2338750753	 0.1032772368	-0.4683885139	 0.074035
H	 0.7294539665	-1.4815912143	-1.3411719095	 0.108062
H	 0.1964059056	-0.401505392	-3.5449887004	 0.125582
H	-0.361095478	 1.108600589	-2.6825325764	 0.115338
H	 1.7356434449	 1.2535656288	-1.6718035786	 0.232596
50.2364	65.5696	104.5367	141.257	186.7322	204.4589	257.4479	285.3218	315.183	336.21	375.9122	440.9083	502.8294	629.1831	763.6487	815.6896	856.2686	902.6666	933.0212	950.7396	969.6796	1015.1349	1020.9897	1076.2735	1106.0942	1142.459	1163.1172	1172.0122	1209.9628	1227.3941	1261.7745	1289.2751	1307.048	1311.3468	1393.1434	1413.3817	1420.9044	1456.0366	1490.0836	1504.0186	1507.4073	1521.656	1827.7481	2864.0684	2982.2908	3045.6166	3051.631	3108.2347	3117.589	3122.0853	3136.7017	3201.1215	3507.5506	3848.7401
CC(CO)(C=O)C1CN1	C[C@@](CO)(C=O)[C@H]1CN1	
InChI=1S/C6H11NO2/c1-6(3-8,4-9)5-2-7-5/h3,5,7,9H,2,4H2,1H3	InChI=1S/C6H11NO2/c1-6(3-8,4-9)5-2-7-5/h3,5,7,9H,2,4H2,1H3/t5-,6+/m1/s1
