21
gdb 59104	2.02504	1.62304	1.00759	3.4274	80.54	-0.2177	0.0319	0.2496	1237.4083	0.1813	-420.415667	-420.405707	-420.404763	-420.450438	36.521	
C	-0.0399085436	 1.5317335031	-0.1420727025	-0.394123
C	 0.0023951146	 0.0209546509	 0.0368098317	 0.036696
N	 0.9009756763	-0.6695855293	-0.9003868122	-0.331475
C	 1.8027810322	-1.1063901624	 0.0279808725	 0.433059
O	 2.8528334714	-1.6891802187	-0.0617450687	-0.37242
C	 0.9106437016	-0.567996352	 1.1861107454	-0.126658
N	 1.5176392994	 0.3542351363	 2.1180805252	-0.071791
C	 0.5691462275	 0.78021676	 3.1386514449	-0.319586
C	 2.7292016137	-0.1868873129	 2.7335664589	-0.327815
H	 0.9493537476	 1.9665196374	 0.0152681339	 0.138631
H	-0.3818284622	 1.7810882449	-1.1525761854	 0.111967
H	-0.7386920545	 1.9931039636	 0.5619222311	 0.121879
H	-1.0090699933	-0.4014324023	 0.030049966	 0.082323
H	 0.9214387945	-0.7045645715	-1.9094698793	 0.247696
H	 0.4049373826	-1.4141316445	 1.6900395978	 0.075868
H	 0.2383661783	-0.0544107942	 3.7865264217	 0.09415
H	 1.0333727055	 1.5394609074	 3.7755289283	 0.121388
H	-0.318300268	 1.2217627142	 2.6781272665	 0.117078
H	 3.4268084123	-0.518166329	 1.9647375641	 0.159897
H	 3.2016108209	 0.596067386	 3.3350260322	 0.112226
H	 2.5191337432	-1.0458270469	 3.3982590679	 0.091009
71.2061	81.7748	174.2409	185.3599	218.2631	228.2179	253.6632	321.9176	326.314	386.2212	393.4568	434.307	516.5286	564.3173	686.3007	741.9625	819.5046	889.6784	908.4641	952.9073	1034.4029	1067.7962	1082.2569	1115.8719	1124.3732	1131.6106	1186.2166	1188.8292	1203.5845	1244.3082	1298.4056	1318.8283	1359.6303	1383.5761	1392.7096	1413.0637	1444.824	1475.1377	1481.2952	1486.8339	1491.9841	1498.6568	1501.7468	1515.4204	1881.3825	2912.0702	2924.4806	2937.4537	3034.7678	3041.4881	3068.8327	3071.7732	3102.6057	3116.8087	3137.8337	3154.0065	3601.9783
CC1NC(=O)C1N(C)C	C[C@H]1NC(=O)[C@H]1N(C)C	
InChI=1S/C6H12N2O/c1-4-5(8(2)3)6(9)7-4/h4-5H,1-3H3,(H,7,9)	InChI=1S/C6H12N2O/c1-4-5(8(2)3)6(9)7-4/h4-5H,1-3H3,(H,7,9)/t4-,5+/m1/s1
