20
gdb 91901	2.36064	1.55426	1.02231	1.9913	81.52	-0.2163	0.0153	0.2316	1195.6697	0.171263	-403.126919	-403.118238	-403.117294	-403.159964	33.492	
C	 0.0359774829	 1.5221471888	 0.0858791007	-0.481274
C	 0.0402643983	 0.022843494	-0.0184619006	 0.309088
C	 0.0101900311	-0.6500514013	-1.1704432862	-0.202807
C	 0.0123076389	-2.1608011561	-1.2185564462	 0.073732
O	 0.6351263027	-2.6611854433	-2.3976212403	-0.428558
C	 0.8226081758	-2.7205555001	-0.0462169682	-0.162768
N	 0.3744907721	-2.1735642901	 1.2448600302	-0.110918
C	 1.2770175422	-1.2304630901	 1.9070585969	-0.245971
C	 0.0222737512	-0.7511238781	 1.2560460827	-0.098476
H	 0.9289168782	 1.8827412071	 0.6113073655	 0.128923
H	 0.0035260377	 1.9924876447	-0.9005159932	 0.121899
H	-0.8283813616	 1.8768050133	 0.6617030555	 0.125612
H	-0.0060548323	-0.1245404651	-2.1234740236	 0.07659
H	-1.0228690754	-2.5367087198	-1.1524927551	 0.081945
H	 0.0806515597	-2.4294993247	-3.1489990882	 0.283338
H	 0.7251113841	-3.8103657001	-0.0136365877	 0.108418
H	 1.8758034678	-2.4885321464	-0.2516218091	 0.104916
H	 1.3417898641	-1.3143137674	 2.9892815361	 0.11193
H	 2.215284753	-0.9961955483	 1.4068737035	 0.111268
H	-0.8190796402	-0.5179570269	 1.9110799174	 0.093112
103.2245	152.5154	196.2347	203.7619	227.4097	282.4411	372.9025	423.9498	439.682	463.6196	520.4845	598.0934	635.1229	749.0383	833.7167	841.0529	913.616	928.6496	1000.3765	1019.6959	1031.3858	1062.1239	1068.9766	1079.5054	1101.3073	1113.5842	1119.8731	1163.1139	1187.8742	1219.4627	1268.1204	1310.0864	1314.25	1344.9645	1371.077	1412.1258	1415.0455	1424.1134	1477.371	1490.6779	1495.9968	1517.9291	1728.6521	2950.7157	3017.4738	3018.6956	3066.8161	3071.9238	3082.745	3089.9515	3112.0247	3143.7411	3177.0344	3821.3631
CC1=CC(O)CN2CC12	CC1=C[C@@H](O)CN2C[C@@H]12	
InChI=1S/C7H11NO/c1-5-2-6(9)3-8-4-7(5)8/h2,6-7,9H,3-4H2,1H3	InChI=1S/C7H11NO/c1-5-2-6(9)3-8-4-7(5)8/h2,6-7,9H,3-4H2,1H3/t6-,7+,8?/m1/s1
