18
gdb 80333	2.12489	1.4846	1.32244	3.2509	76.05	-0.2664	0.0261	0.2925	1085.0077	0.147109	-401.933289	-401.924519	-401.923575	-401.966407	33.123	
C	-0.1063004902	 1.5128708999	-0.1230279164	-0.426549
C	 0.0615541371	 0.0186995362	 0.0591178687	-0.073613
C	 1.3268204932	-0.7807452544	-0.1902583622	-0.132559
C	 2.5690986569	-0.0242113107	 0.2924293683	-0.256921
C	 1.9803646989	-0.0243982648	 1.7506405	-0.204307
C	 1.8598533386	 1.2274896895	 2.4858355201	 0.261202
N	 1.7526305994	 2.2216307456	 3.0676626837	-0.339233
C	 0.7069446246	-0.7106357609	 1.2048634249	 0.363861
O	 0.0813465841	-1.7197802825	 1.9064476176	-0.454999
H	 0.7593142921	 2.0858642364	 0.214761469	 0.139929
H	-0.2717554928	 1.7491591107	-1.1797043064	 0.120437
H	-0.971384646	 1.8786118621	 0.439727534	 0.12621
H	-0.8040233041	-0.5545053007	-0.2715088847	 0.098396
H	 1.3429669393	-1.6153904432	-0.879575913	 0.102707
H	 3.4900061827	-0.6054717542	 0.232745956	 0.122377
H	 2.7435040271	 0.9599545203	-0.1475619457	 0.121635
H	 2.5239082716	-0.7424838253	 2.3699437453	 0.13633
H	-0.6874098926	-1.3531349939	 2.3575801709	 0.295096
109.9375	129.3467	179.8031	213.6269	253.0449	280.1036	307.2157	357.4812	440.8663	509.9546	520.8971	578.1909	652.0019	728.8562	756.8926	817.8309	903.863	955.2332	970.1822	999.6478	1039.3386	1054.5074	1067.0053	1122.93	1125.0878	1151.8936	1180.1562	1225.2083	1240.9768	1285.1218	1324.4082	1335.411	1344.6229	1423.8436	1466.5719	1490.5336	1506.7369	1507.2614	2346.1108	3039.1192	3078.504	3083.6082	3096.6511	3116.3485	3132.0599	3135.0759	3195.9561	3793.4912
CC1C2CC(C#N)C12O	C[C@H]1[C@H]2C[C@@H](C#N)[C@@]12O	
InChI=1S/C7H9NO/c1-4-6-2-5(3-8)7(4,6)9/h4-6,9H,2H2,1H3	InChI=1S/C7H9NO/c1-4-6-2-5(3-8)7(4,6)9/h4-6,9H,2H2,1H3/t4-,5-,6+,7-/m0/s1
