19
gdb 90200	2.98395	1.7533	1.56997	1.5035	79.67	-0.2067	0.0607	0.2674	943.9086	0.160247	-381.88883	-381.881642	-381.880697	-381.919907	29.867	
C	-0.4292633333	 1.4131252215	 0.0060798653	-0.400566
C	 0.0294060097	-0.0405279676	-0.0109431041	-0.080266
C	 1.3201411083	-0.3467817424	-0.8866414628	-0.33254
C	 2.1547733399	-0.439315528	 0.421206953	 0.190017
N	 2.569527013	 0.8012507881	 1.1671654611	-0.369135
C	 1.9279296144	-0.0498469945	 2.2154886688	-0.075617
C	 2.3865842747	-1.4435107383	 1.6067132657	-0.082756
N	 0.9900369381	-1.9837617636	 1.6169818665	-0.378795
C	 0.8356382559	-0.5376527138	 1.2266891354	 0.263014
H	 0.4027463237	 2.0776809268	 0.2487268602	 0.149778
H	-0.8309046106	 1.6980993019	-0.9726889693	 0.109584
H	-1.2178929737	 1.5613963673	 0.7510084188	 0.1182
H	-0.8168181318	-0.699606514	-0.2310609679	 0.0843
H	 1.2591715218	-1.2845435598	-1.444158428	 0.111762
H	 1.6392428523	 0.4464292963	-1.5663363665	 0.120717
H	 3.5847219316	 0.8283723274	 1.2897940363	 0.209527
H	 1.8709336428	 0.2352295542	 3.2711320712	 0.084003
H	 3.2578609526	-2.052048455	 1.8781294372	 0.074374
H	 0.8560678806	-2.5829030063	 0.7962907089	 0.204399
150.7367	215.838	248.5345	323.2159	378.0704	435.3558	470.9748	514.0053	608.9288	714.6933	729.2584	765.5247	804.1087	809.842	886.8042	899.8742	918.8541	929.187	940.9711	993.1045	1046.5435	1060.8665	1085.2725	1093.5614	1112.2254	1134.3077	1175.9946	1197.6243	1202.8838	1219.21	1244.5454	1255.5193	1275.5519	1281.1263	1295.9196	1331.6835	1348.3125	1406.1278	1452.2584	1490.4493	1510.0824	3032.8128	3033.3598	3048.2205	3061.4917	3066.7822	3096.8229	3124.2887	3132.9523	3384.1252	3401.6456
CC1CC23NC4C2NC134	C[C@H]1C[C@]23N[C@@H]4[C@H]2N[C@]134	
InChI=1S/C7H10N2/c1-3-2-6-4-5(8-6)7(3,6)9-4/h3-5,8-9H,2H2,1H3	InChI=1S/C7H10N2/c1-3-2-6-4-5(8-6)7(3,6)9-4/h3-5,8-9H,2H2,1H3/t3-,4+,5+,6-,7-/m0/s1
