21
gdb 119170	2.59154	1.1076	0.8823	3.4875	79.48	-0.2362	0.0693	0.3054	1389.5308	0.182657	-420.331546	-420.321996	-420.321052	-420.366572	34.799	
C	-0.0189898499	 1.3911314253	-0.099379341	-0.229254
O	-0.0876195808	-0.0122240518	 0.0074771438	-0.238889
C	 0.7402512215	-0.5339016338	 1.0217345031	-0.171975
C	 0.6581407407	-2.0505526855	 1.0130983844	 0.292129
C	-0.5803828652	-2.6976358465	 0.5019665163	-0.268943
N	 0.6603543929	-2.720804651	-0.2990270944	-0.354613
C	 1.4452044942	-2.7812172621	 2.067725848	-0.027409
C	 2.4281606023	-2.1262689656	 2.9694096106	-0.255751
N	 1.1462575728	-2.6223796367	 3.5032155992	-0.326523
H	 1.0027073725	 1.7318915902	-0.3269904295	 0.110946
H	-0.6826157215	 1.6879355024	-0.9145737936	 0.133736
H	-0.3489921175	 1.8850921599	 0.8273025613	 0.110546
H	 1.7847089398	-0.2222445822	 0.8513961681	 0.100596
H	 0.4391958566	-0.1325825877	 2.0058113696	 0.087533
H	-0.8817565639	-3.6598839124	 0.9065185412	 0.11736
H	-1.3878037641	-2.0526226447	 0.1735157319	 0.125605
H	 0.5818837199	-2.0054716965	-1.0195584356	 0.236936
H	 1.630545548	-3.8133312283	 1.7811582402	 0.102988
H	 3.3050807923	-2.6759343722	 3.3001270733	 0.120144
H	 2.5818069474	-1.0534982541	 2.8939009155	 0.108205
H	 0.5054838821	-1.8431523966	 3.6381713874	 0.226636
61.6225	88.4288	105.1232	150.1397	225.6033	245.8052	255.1176	356.5539	358.3204	414.1247	491.3319	529.3098	720.2089	818.1002	852.3245	861.2052	927.6478	949.9192	962.2209	974.4967	997.677	1024.9233	1053.2157	1089.5862	1121.9089	1144.082	1162.1534	1165.0479	1182.7846	1194.8048	1225.4735	1249.7983	1272.9427	1288.1251	1297.1208	1320.5771	1355.4896	1425.1165	1442.7889	1480.2236	1485.7851	1499.8419	1504.3202	1513.593	1530.7246	2941.1185	2972.4854	2979.1963	3025.6604	3112.364	3119.2445	3120.9663	3142.364	3192.7983	3214.9997	3487.4297	3493.0347
COCC1(CN1)C1CN1	COC[C@]1(CN1)[C@H]1CN1	
InChI=1S/C6H12N2O/c1-9-4-6(3-8-6)5-2-7-5/h5,7-8H,2-4H2,1H3	InChI=1S/C6H12N2O/c1-9-4-6(3-8-6)5-2-7-5/h5,7-8H,2-4H2,1H3/t5-,6-/m1/s1
