20
gdb 105307	2.35987	1.46168	1.12899	3.9353	82.54	-0.2737	0.0373	0.311	1170.5216	0.171135	-366.004111	-365.995328	-365.994384	-366.037349	33.615	
C	 0.0702048995	 1.5559496538	-0.0683567041	-0.395916
C	 0.0223398722	 0.0373013164	 0.1246903872	-0.241696
C	-1.3923212126	-0.5599260874	 0.0181417782	 0.146375
C	-2.1207936456	-0.5334968741	-1.3894446441	-0.287137
C	-2.2717443884	-2.0568233402	-1.3287663626	-0.025043
C	-0.9226234684	-2.7034822802	-1.2299432041	-0.303289
C	-1.5312851215	-2.1040955498	 0.007313869	-0.07638
C	-2.2574562672	 0.0129584934	 1.0490648148	 0.262294
N	-2.9318925005	 0.4655247317	 1.8726101919	-0.357632
H	 1.0985351245	 1.9203905512	 0.0085373209	 0.11954
H	-0.3124840278	 1.8456000218	-1.052876266	 0.12002
H	-0.5278464019	 2.0719128422	 0.688648591	 0.144694
H	 0.6530288448	-0.4516849718	-0.624733345	 0.103509
H	 0.4373131484	-0.2288559403	 1.1040705686	 0.114866
H	-3.0648755155	 0.0103628478	-1.357264766	 0.132698
H	-1.5136720524	-0.1454848237	-2.2135727853	 0.106178
H	-3.1556840544	-2.603542926	-1.6300159101	 0.097581
H	-0.9219336936	-3.788633499	-1.2412404247	 0.121881
H	-0.0574071415	-2.2579558703	-1.7135498125	 0.11195
H	-1.7412420782	-2.6932953154	 0.8909105828	 0.105508
105.8761	139.9883	166.4957	177.8282	202.3045	273.6206	362.5254	385.5954	473.3403	507.5134	574.8425	625.7354	742.2082	784.3801	793.8528	844.4225	886.094	925.9226	941.9701	960.0449	990.1942	1007.6351	1043.1041	1061.5008	1074.421	1087.3889	1126.2836	1142.5623	1157.733	1210.5082	1239.3418	1256.3997	1292.7485	1317.7731	1356.814	1366.4146	1416.7602	1479.9154	1481.4446	1497.9015	1500.3575	1507.3319	2346.5453	3037.681	3040.3683	3053.0102	3078.9985	3107.7392	3117.5158	3119.0563	3132.962	3190.7096	3196.7718	3209.0924
CCC1(CC2CC12)C#N	CC[C@]1(C[C@H]2C[C@@H]12)C#N	
InChI=1S/C8H11N/c1-2-8(5-9)4-6-3-7(6)8/h6-7H,2-4H2,1H3	InChI=1S/C8H11N/c1-2-8(5-9)4-6-3-7(6)8/h6-7H,2-4H2,1H3/t6-,7-,8+/m1/s1
