20
gdb 53567	4.54731	0.7842	0.75314	1.0336	89.28	-0.2148	0.0554	0.2702	1606.1007	0.170174	-365.904084	-365.895006	-365.894062	-365.940352	33.117	
C	 2.3067409957	-4.583265518	-3.1904786229	-0.496916
C	 1.5400568254	-3.9599373843	-2.1211303991	 0.066118
C	 0.9035971207	-3.4362552299	-1.2437186953	 0.08488
C	 0.1375324434	-2.8180309739	-0.1649935989	-0.327579
N	-1.1828059644	-3.4534446701	-0.0317860172	-0.098938
C	-1.9280670288	-3.2914220192	 1.2870800841	-0.010621
C	-2.7566029841	-4.5230996106	 0.8393585117	-0.207872
C	-1.2602521094	-4.8427821076	 0.5855781648	-0.00137
C	-0.9530707849	-4.2732297134	 2.0005348071	-0.240798
H	 3.1461129579	-5.1672478753	-2.7966783026	 0.144221
H	 1.6812557443	-5.2604703298	-3.7826652879	 0.14832
H	 2.717745273	-3.832669085	-3.8748189846	 0.147052
H	 0.7519642834	-2.8209091319	 0.750246251	 0.105926
H	-0.0480638596	-1.7617976043	-0.4015354764	 0.126249
H	-2.2901076523	-2.318265688	 1.6242605949	 0.079266
H	-3.2575536699	-5.0929597413	 1.6234760063	 0.092476
H	-3.3644492827	-4.3805564752	-0.0540379351	 0.106024
H	-0.8262826944	-5.7095840614	 0.0866125901	 0.087679
H	 0.0613166459	-3.9297852815	 2.2022428936	 0.102237
H	-1.3454322692	-4.8286243493	 2.8569063362	 0.093646
13.9769	45.2307	80.6713	196.9788	231.7521	328.8262	345.5756	378.228	449.1702	556.8741	602.9088	738.7846	769.2042	784.8052	816.8223	888.0992	903.9427	910.3218	981.6054	998.398	1029.8565	1052.3861	1055.6357	1064.6122	1066.187	1115.7709	1117.9732	1157.8061	1175.3943	1181.572	1193.2839	1222.0916	1255.0853	1262.9105	1275.5975	1367.9035	1415.3234	1474.9925	1478.4357	1479.933	1489.5693	1531.0239	2375.5337	2960.4673	3024.4674	3025.8391	3064.333	3077.9251	3085.1317	3086.7138	3097.8098	3116.7657	3137.7376	3159.6291
CC#CCN1C2CC1C2	CC#CCN1[C@H]2C[C@@H]1C2	
InChI=1S/C8H11N/c1-2-3-4-9-7-5-8(9)6-7/h7-8H,4-6H2,1H3	InChI=1S/C8H11N/c1-2-3-4-9-7-5-8(9)6-7/h7-8H,4-6H2,1H3/t7-,8+
