25
gdb 108195	2.89685	1.30528	1.19732	0.0624	90.89	-0.28	0.0754	0.3553	1217.2471	0.2325	-352.392494	-352.384	-352.383056	-352.425217	34.819	
C	-0.0576692099	 1.5495152921	 0.080246839	-0.388293
C	 0.0343354941	 0.0230525435	-0.0418453697	-0.269717
C	 0.7410705849	-0.4826802755	-1.2970919746	 0.366746
C	 0.0498964976	-0.1139381629	-2.6385705641	-0.23698
C	 0.6277358765	-1.1508726019	-3.6536410535	-0.215456
C	 1.5944924918	-1.9875837492	-2.7866961365	-0.003105
C	 2.8194398448	-1.1148253221	-2.4343286257	-0.215466
C	 2.2356821622	-0.0781571769	-1.4223791861	-0.236983
C	 0.8461324955	-2.0217924219	-1.4405576558	-0.257456
H	 0.9343964872	 2.0123289075	 0.1025903188	 0.116493
H	-0.6091205947	 1.9881848895	-0.7578325733	 0.116486
H	-0.5755057389	 1.8354522646	 1.0011475806	 0.109245
H	 0.5541643319	-0.3753768304	 0.8400416571	 0.087412
H	-0.9792117816	-0.3995586516	-0.0135433266	 0.087416
H	-1.0371967399	-0.2150405093	-2.546981537	 0.088174
H	 0.2514050981	 0.9196198022	-2.9349797358	 0.091918
H	-0.1668124081	-1.7799149174	-4.067159245	 0.091315
H	 1.1371075307	-0.6789683036	-4.4995303493	 0.089567
H	 1.8531253814	-2.9548105379	-3.2229794371	 0.050887
H	 3.6053548979	-1.717883221	-1.9688709719	 0.091317
H	 3.2575774757	-0.6439309329	-3.319754079	 0.08957
H	 2.3555139137	 0.9541378977	-1.7640051557	 0.091919
H	 2.73320634	-0.1535734838	-0.4491487315	 0.088171
H	 1.4231818335	-2.4862756941	-0.6332548794	 0.083411
H	-0.1321197246	-2.5118221944	-1.4985670381	 0.083411
88.0578	156.1673	183.6929	227.5657	319.6939	330.6972	388.3607	423.1776	455.5193	547.8329	586.0475	761.3568	780.4067	781.6766	805.1796	826.6825	866.4409	922.0442	924.1536	944.2643	958.219	959.3115	980.7639	991.9689	1008.2845	1032.2052	1075.7851	1101.7306	1120.4095	1134.6977	1175.4225	1187.2847	1229.1301	1239.0524	1261.3356	1261.8849	1278.4572	1302.2714	1303.641	1331.3506	1338.8942	1343.503	1362.9639	1377.0024	1406.9744	1481.4744	1485.5665	1489.9292	1498.2932	1499.4292	1504.6311	1507.7536	1527.2911	3005.1776	3031.9631	3033.0715	3033.844	3036.5499	3036.9443	3046.509	3049.4688	3070.625	3073.9253	3080.8187	3089.0016	3091.2946	3096.3738	3101.9993	3102.0468
CCC12CCC(CC1)C2	CC[C@@]12CC[C@@H](CC1)C2	
InChI=1S/C9H16/c1-2-9-5-3-8(7-9)4-6-9/h8H,2-7H2,1H3	InChI=1S/C9H16/c1-2-9-5-3-8(7-9)4-6-9/h8H,2-7H2,1H3/t8-,9+
