18
gdb 66681	2.50718	2.05571	1.66089	2.3012	74.45	-0.2105	0.0693	0.2798	901.7789	0.147928	-401.852295	-401.844984	-401.84404	-401.883485	29.895	
C	-0.0266490921	 1.4232735235	 0.0309708155	-0.514805
C	 0.0065575764	-0.0689428745	 0.036365073	 0.326862
C	-0.5894232922	-1.0948699259	-0.9063626328	-0.269898
C	 0.4701568015	-2.0378793136	-0.3016416749	-0.002519
C	-0.2725430009	-2.1464386311	 1.0749298538	-0.144315
C	 0.9626087839	-1.4727410701	 1.7015888975	-0.195045
N	 1.2421128321	-0.8684487651	 0.343066395	-0.190175
C	-1.1211792075	-0.9712155691	 0.5231900593	 0.334301
O	-2.293678963	-0.4368457023	 1.0039197528	-0.459915
H	 0.6375203626	 1.8328629831	-0.7361541526	 0.126115
H	-1.04402359	 1.7793047873	-0.1555382489	 0.131195
H	 0.2922776409	 1.8194322158	 1.0020502353	 0.124383
H	-1.0392942288	-0.9939132933	-1.8849533264	 0.094781
H	 1.0276142476	-2.8322501555	-0.7940755162	 0.07758
H	-0.7691520106	-3.0402664315	 1.4548614157	 0.062868
H	 0.8191502681	-0.7536190403	 2.5143982863	 0.104159
H	 1.763307072	-2.1732690186	 1.9564034685	 0.104077
H	-3.01825565	-1.0307780088	 0.779439229	 0.290351
171.7153	200.0969	223.0529	270.0412	366.2949	396.6017	471.8859	543.221	645.7419	654.7223	749.6256	763.0353	801.0744	831.8805	847.5094	880.4041	891.9158	903.8611	917.6891	985.7602	1004.7862	1037.2688	1067.4164	1097.564	1133.2759	1149.7363	1162.4595	1175.3006	1212.7277	1220.1611	1243.9644	1271.4146	1296.1972	1361.8297	1416.7322	1465.7847	1478.856	1496.4941	1498.9705	3031.4477	3045.2991	3093.9586	3103.4502	3106.9929	3116.2568	3131.8922	3203.9787	3792.7457
CC12C3C4C(CN14)C23O	C[C@@]12[C@H]3[C@@H]4[C@@H](CN14)[C@@]23O	
InChI=1S/C7H9NO/c1-6-5-4-3(2-8(4)6)7(5,6)9/h3-5,9H,2H2,1H3	InChI=1S/C7H9NO/c1-6-5-4-3(2-8(4)6)7(5,6)9/h3-5,9H,2H2,1H3/t3-,4+,5-,6+,7+/m1/s1
