18
gdb 113022	4.67874	0.85214	0.78724	2.2602	78.02	-0.217	-0.0122	0.2047	1434.6287	0.148322	-439.11162	-439.102817	-439.101873	-439.146076	31.769	
O	 0.175408145	 1.3805644284	 0.0423953319	-0.418585
C	 0.058743271	-0.0275340009	-0.017097164	-0.069706
C	-1.4071462976	-0.5032139419	-0.0424861543	-0.059486
C	-1.5167051057	-2.0566931523	-0.0595048743	-0.212196
N	-2.085924762	-2.3970535839	 1.2571051557	-0.05574
C	-2.2593335622	-3.6587335377	 1.7468239562	 0.143025
O	-2.7591684412	-3.9224173096	 2.8202630833	-0.327916
C	-2.4836188771	-1.2254865336	 1.912536913	 0.014691
C	-2.1636992064	-0.1321880198	 1.2186031091	-0.195026
H	-0.1034089704	 1.6612158413	 0.9197027835	 0.287068
H	 0.5588034446	-0.3335285868	-0.9431311558	 0.11133
H	 0.5833301493	-0.5148479012	 0.8202420641	 0.093708
H	-1.8748358321	-0.0701229234	-0.9334877295	 0.096932
H	-2.1788695451	-2.4045535598	-0.8589031609	 0.12732
H	-0.5421303119	-2.5379562425	-0.1937890111	 0.123471
H	-1.8833997939	-4.4272570329	 1.0438240147	 0.074805
H	-2.9876996795	-1.3324872804	 2.8613882736	 0.157412
H	-2.3940415548	 0.8812244968	 1.5141002546	 0.108891
34.855	105.3637	149.2559	198.6939	246.2421	271.4312	325.3508	343.5163	387.9827	550.0383	581.59	753.8084	760.5003	784.4102	840.9262	901.6657	924.6249	951.3018	1002.4997	1023.6787	1046.1575	1086.164	1114.9426	1116.9912	1190.4062	1232.1377	1247.2079	1291.3613	1313.3113	1325.4503	1354.8052	1395.155	1413.1623	1437.2047	1447.8468	1500.3125	1516.1065	1677.5749	1789.8086	2944.5345	2978.6929	3035.2079	3045.1247	3067.0079	3078.2995	3234.9124	3267.3932	3820.9811
OCC1CN(C=O)C=C1	OC[C@H]1CN(C=O)C=C1	
InChI=1S/C6H9NO2/c8-4-6-1-2-7(3-6)5-9/h1-2,5-6,8H,3-4H2	InChI=1S/C6H9NO2/c8-4-6-1-2-7(3-6)5-9/h1-2,5-6,8H,3-4H2/t6-/m1/s1
