18
gdb 57860	2.2354	1.33962	0.97836	4.7519	74.3	-0.2596	-0.0008	0.2588	1249.7549	0.146386	-435.292975	-435.282321	-435.281376	-435.329692	35.998	
C	 0.1188267073	 1.4354650945	 0.0307094244	-0.347462
N	 0.0629320237	-0.0204195722	-0.0197452581	-0.086058
C	 0.2632144365	-0.6887117877	 1.2553987531	-0.342116
C	-0.0530119536	-0.6282028869	-1.2308014744	 0.402475
O	-0.1723988189	-0.0235917207	-2.2819337558	-0.373798
C	-0.0435565806	-2.198608459	-1.2863085757	-0.256757
N	-0.4203150132	-2.7099987464	-2.5947724604	-0.483835
C	 1.2971377035	-2.6851435796	-0.9174491431	 0.307857
N	 2.3556610426	-3.0282957827	-0.6053372506	-0.323995
H	 1.0915253615	 1.7681056052	 0.4129900438	 0.133504
H	-0.0286768458	 1.8238368359	-0.9747952688	 0.174175
H	-0.6632038735	 1.8205076739	 0.6952194474	 0.127813
H	 0.0807775202	-1.7588999557	 1.1895909742	 0.151099
H	 1.288776091	-0.5457847999	 1.617649138	 0.149104
H	-0.4254678433	-0.27092914	 1.9986286561	 0.132265
H	-0.7472337056	-2.5951227436	-0.546832219	 0.140456
H	-1.4266393481	-2.6148306031	-2.6956026455	 0.240744
H	-0.0254481739	-2.0789571021	-3.2900122956	 0.254529
36.5131	79.9303	95.1472	133.9421	147.1671	158.9063	228.4812	252.835	274.3204	353.6926	389.9093	445.8849	464.8183	594.8931	609.9863	703.8517	816.2477	890.6875	936.3876	975.7039	1079.9849	1127.8895	1131.9687	1168.5183	1177.3315	1218.1479	1254.6417	1279.169	1407.4457	1428.6316	1437.5513	1476.0776	1480.9786	1501.314	1501.9976	1542.0526	1677.9664	1764.2062	2355.4529	3021.314	3027.4184	3060.6638	3073.2583	3076.6001	3172.1881	3178.2055	3485.2277	3560.6931
CN(C)C(=O)C(N)C#N	CN(C)C(=O)[C@@H](N)C#N	
InChI=1S/C5H9N3O/c1-8(2)5(9)4(7)3-6/h4H,7H2,1-2H3	InChI=1S/C5H9N3O/c1-8(2)5(9)4(7)3-6/h4H,7H2,1-2H3/t4-/m0/s1
