18
gdb 92690	2.98771	1.40471	0.99658	1.3528	77.33	-0.2306	-0.0285	0.2021	1183.1832	0.149271	-435.303143	-435.294684	-435.29374	-435.335947	32.62	
C	-0.0720005069	 1.4920510442	 0.0668222053	-0.40202
C	-0.0175530146	-0.0171236334	-0.0838879857	 0.105484
C	 0.892026164	-0.5100749228	-1.1994771941	-0.163142
N	 1.0321295127	-1.9565020025	-1.2201765441	-0.319852
C	 0.9316394413	-2.5583539689	-0.094355465	 0.309887
N	 0.9801586769	-3.9192609234	 0.012188716	-0.546874
C	 0.773370163	-1.8526585819	 1.2255039818	 0.362958
N	 1.0096020583	-2.4767651137	 2.3059158933	-0.538157
O	 0.4509640492	-0.545258503	 1.1847397774	-0.263081
H	 0.9281451214	 1.8992693475	 0.2423954661	 0.12972
H	-0.4787475312	 1.9454748753	-0.8417913274	 0.125677
H	-0.7108512028	 1.7718690347	 0.9086036154	 0.130449
H	-1.0276577908	-0.4177713605	-0.2489424703	 0.094525
H	 0.4814837247	-0.1834528743	-2.1622523289	 0.111251
H	 1.8813507144	-0.0352541984	-1.1069508681	 0.107749
H	 1.3476637939	-4.4111850737	-0.7866871487	 0.255003
H	 1.2019027576	-4.2729832068	 0.9307971571	 0.273858
H	 0.8960328189	-1.8598600183	 3.1120142698	 0.226563
99.5468	125.748	217.6806	265.8267	274.6607	345.8014	380.7577	444.5073	458.501	510.6293	514.2124	530.9753	568.2627	684.7498	746.9369	797.763	885.4707	902.1403	927.7132	942.6638	1011.651	1079.0095	1134.4133	1149.9004	1164.7845	1214.3623	1258.3271	1295.0867	1337.7214	1378.2035	1398.0508	1412.8227	1447.1096	1482.5335	1488.0543	1499.6128	1600.8006	1711.2674	1739.6082	2986.8507	3011.5747	3045.3727	3051.6054	3121.1077	3124.2233	3474.1812	3575.3526	3704.2742
CC1CN=C(N)C(=N)O1	C[C@H]1CN=C(N)[C]([NH])O1	
InChI=1S/C5H9N3O/c1-3-2-8-4(6)5(7)9-3/h3,7H,2H2,1H3,(H2,6,8)	InChI=1S/C5H9N3O/c1-3-2-8-4(6)5(7)9-3/h3,7H,2H2,1H3,(H2,6,8)/t3-/m0/s1
