25
gdb 100642	2.37063	1.06263	0.93746	0.6082	94.74	-0.2571	0.0616	0.3187	1455.2159	0.225235	-352.335209	-352.32356	-352.322616	-352.371402	43.799	
C	-0.0082630957	 1.6309396663	 0.0701374015	-0.392318
C	 0.0024988845	 0.0982329007	 0.0020303357	-0.194627
C	-1.4035741301	-0.5334624706	-0.0582160948	 0.04715
C	-2.1614020974	-0.0862136843	-1.3186118177	-0.4161
C	-1.3902802625	-2.1001862614	 0.1006622016	 0.058659
C	-0.6846125218	-2.8088927989	-1.0804244682	-0.411675
C	-0.701769461	-2.5202469015	 1.4237834612	-0.416611
C	-2.7809780956	-2.5713356524	 0.1688158589	 0.346732
C	-3.9122737914	-2.9730312429	 0.2471487569	-0.494997
H	 1.0068758511	 2.0178337567	 0.2038417346	 0.111168
H	-0.4128250862	 2.08295136	-0.8398821335	 0.119955
H	-0.6114996857	 1.9846777592	 0.9140793904	 0.11377
H	 0.5860737701	-0.2158829118	-0.8727101514	 0.096038
H	 0.5385272497	-0.2754887176	 0.8799526484	 0.09638
H	-1.9637906396	-0.163469792	 0.8119941184	 0.076209
H	-1.5825092006	-0.2865556009	-2.2271364119	 0.110714
H	-3.1204468565	-0.6024547314	-1.4047309075	 0.129251
H	-2.3645647596	 0.9873931761	-1.2918628697	 0.113922
H	 0.3603741909	-2.4934448155	-1.1520023652	 0.11422
H	-0.7011058211	-3.8921843825	-0.9318385646	 0.121133
H	-1.1780491542	-2.5955483214	-2.0312013675	 0.124549
H	-1.1161122769	-1.9704844178	 2.2742900991	 0.119002
H	-0.8573102032	-3.5871036787	 1.6052002761	 0.12177
H	 0.3758508472	-2.3411222214	 1.385026633	 0.115743
H	-4.9116505643	-3.326003446	 0.3118959864	 0.189958
54.2595	81.8888	142.5446	177.7667	204.3201	228.2921	240.2211	258.984	275.6424	290.4215	327.2293	347.4858	400.8079	411.952	470.7375	556.0449	584.1162	620.703	628.3237	702.0261	783.6196	830.1765	890.4022	938.6039	941.937	974.4231	990.484	1023.3544	1037.4784	1077.0773	1130.8885	1162.272	1197.8514	1219.2108	1235.4128	1300.8578	1335.7931	1363.0964	1381.0291	1394.527	1410.1436	1416.6955	1418.6377	1481.303	1483.8856	1489.7969	1497.1185	1500.8478	1503.0196	1508.6529	1511.8274	1517.1692	2224.9141	3003.4409	3028.8704	3033.9563	3039.7242	3040.871	3047.958	3073.3961	3097.838	3104.6136	3112.8749	3113.9625	3116.0121	3120.5413	3125.7532	3129.3759	3501.3141
CCC(C)C(C)(C)C#C	CC[C@@H](C)C(C)(C)C#C	
InChI=1S/C9H16/c1-6-8(3)9(4,5)7-2/h2,8H,6H2,1,3-5H3	InChI=1S/C9H16/c1-6-8(3)9(4,5)7-2/h2,8H,6H2,1,3-5H3/t8-/m1/s1
