13
gdb 5552	3.39807	1.97804	1.32911	1.5532	56.82	-0.2087	0.005	0.2137	876.2083	0.095261	-435.746739	-435.739301	-435.738357	-435.77913	25.976	
C	-0.3266402581	 1.2685461679	-0.0654639302	-0.252243
O	 0.6392014865	 0.2230356807	 0.1246515622	-0.259736
C	 0.8670944271	-0.5427936604	-0.9413341506	 0.289963
C	 0.5835894501	-1.8308573824	-1.2670180692	 0.215843
O	-0.1282078568	-2.730058108	-0.5579229616	-0.430134
N	 1.1501331562	-2.1376609624	-2.4874784063	-0.333128
C	 1.73840573	-1.0411939016	-2.8524201644	 0.079629
O	 1.6239580076	-0.0245484989	-1.9804001603	-0.173051
H	 0.0215021555	 1.987664453	-0.8143489689	 0.133926
H	-1.2902365759	 0.8499608211	-0.3760556327	 0.130346
H	-0.4314822863	 1.7660182419	 0.8996195697	 0.140185
H	-0.1121216914	-3.5518528204	-1.0626818454	 0.306287
H	 2.2951385254	-0.8550779005	-3.7569659523	 0.152111
51.9291	142.1922	163.4478	285.5574	296.142	327.5881	437.5365	523.1898	635.4857	671.2325	719.6656	763.5112	805.7131	951.7692	1015.5488	1066.4949	1150.6193	1171.1028	1188.4522	1219.9446	1318.8298	1356.339	1407.0149	1483.6547	1489.1012	1500.8052	1551.8874	1761.5501	3026.2981	3099.3697	3146.0858	3275.6377	3811.0022
COC1=C(O)N=CO1	COc1c(O)nco1	
InChI=1S/C4H5NO3/c1-7-4-3(6)5-2-8-4/h2,6H,1H3	InChI=1S/C4H5NO3/c1-7-4-3(6)5-2-8-4/h2,6H,1H3
