18
gdb 78200	3.08742	1.27864	1.06999	1.1688	78.86	-0.2316	0.0317	0.2633	1161.8617	0.145766	-401.854725	-401.845864	-401.844919	-401.8879	33.774	
C	-0.1293217588	 1.505824315	-0.0410595795	-0.319889
N	 0.1089943779	 0.0740902189	 0.0688020881	-0.079163
C	 1.3885245787	-0.5562498096	-0.1660655159	-0.095813
C	 0.741578723	-0.556398829	 1.1956143533	-0.049359
C	 1.9179493826	 0.2767763807	 1.7935628457	-0.286347
C	 2.6950145264	-0.4622817737	 2.7630536042	 0.280995
C	 3.3567985456	-1.1259366068	 3.5191159276	-0.408546
C	 2.5843795512	 0.2817847122	 0.3471667734	 0.123031
O	 3.8369539677	-0.326128497	 0.2360101558	-0.42471
H	 0.6534656627	 2.1520817343	 0.3800604203	 0.112105
H	-0.2428101809	 1.7594253266	-1.0990654892	 0.129739
H	-1.0697837973	 1.7409057352	 0.4662508521	 0.128783
H	 1.4677355486	-1.3419718708	-0.9107475533	 0.100174
H	 0.2208494181	-1.3390824918	 1.7367415371	 0.105357
H	 1.6421666776	 1.2587064636	 2.1923569197	 0.103763
H	 3.927445618	-1.6858228408	 4.2187413147	 0.202551
H	 2.6796638933	 1.2756911744	-0.0992085862	 0.092904
H	 3.9068575057	-1.0068578012	 0.918927972	 0.284423
105.0461	138.9416	163.2661	195.8133	247.0684	298.6842	328.5912	380.4229	435.7821	489.1063	554.2304	596.4027	625.4223	656.5235	733.8877	783.6222	839.3497	904.6916	917.1256	948.733	1004.5396	1052.752	1070.892	1083.1634	1136.4336	1154.3662	1169.4793	1183.2381	1223.9761	1244.497	1265.4506	1308.5755	1340.4955	1381.1029	1443.6457	1459.1028	1497.2292	1502.9094	2223.4457	3005.6628	3049.4413	3070.429	3078.5249	3111.2107	3162.0339	3174.0704	3499.6452	3744.9965
CN1C2C1C(C#C)C2O	CN1[C@@H]2[C@H]1[C@@H](C#C)[C@H]2O	
InChI=1S/C7H9NO/c1-3-4-5-6(7(4)9)8(5)2/h1,4-7,9H,2H3	InChI=1S/C7H9NO/c1-3-4-5-6(7(4)9)8(5)2/h1,4-7,9H,2H3/t4-,5-,6-,7-,8?/m1/s1
