16
gdb 52299	4.16296	0.84838	0.74027	2.9042	67.41	-0.2612	-0.0443	0.2169	1447.4162	0.122854	-475.02761	-475.018822	-475.017878	-475.062624	30.388	
O	 0.4358009862	 0.2113956121	-0.685387996	-0.274027
C	 0.3816881681	 1.3892851694	-0.5022623086	 0.175117
O	 0.9199445595	 1.9751822924	 0.5910485137	-0.183713
C	 0.9045032941	 3.4031916751	 0.6493051884	-0.084784
C	 2.2321092524	 3.9581432692	 0.1550384473	-0.101548
N	 2.4506288707	 3.8139996325	-1.3095793996	-0.330569
C	 2.7690869008	 5.2579451762	-1.4899861385	-0.281182
C	 2.328457172	 5.4874028393	-0.0366894448	 0.376815
O	 2.1081662789	 6.4355554107	 0.6521952638	-0.275503
H	-0.1097564717	 2.1125656699	-1.1778336737	 0.08973
H	 0.0817691459	 3.8003742909	 0.0430654066	 0.119116
H	 0.7381265956	 3.6782616332	 1.69376757	 0.139516
H	 3.0478338981	 3.573682131	 0.783036211	 0.115137
H	 3.2101717702	 3.1903664966	-1.553054912	 0.239052
H	 3.82997793	 5.497581206	-1.6435898325	 0.134351
H	 2.180221369	 5.7643821555	-2.2621389051	 0.142492
49.6016	65.8847	115.3988	133.8822	174.957	292.6435	346.9281	410.0477	496.7051	535.8778	653.4971	669.3847	769.239	811.8926	907.4885	980.7884	1003.5639	1022.8064	1038.8963	1068.0453	1078.7514	1105.5597	1126.1539	1174.0969	1213.4967	1270.8977	1300.2663	1354.032	1372.4793	1398.2169	1431.0921	1473.3791	1492.948	1866.722	1916.2328	2979.2727	3015.2954	3020.9116	3040.8995	3075.8802	3112.2707	3560.267
O=COCC1NCC1=O	O=COC[C@H]1NCC1=O	
InChI=1S/C5H7NO3/c7-3-9-2-4-5(8)1-6-4/h3-4,6H,1-2H2	InChI=1S/C5H7NO3/c7-3-9-2-4-5(8)1-6-4/h3-4,6H,1-2H2/t4-/m1/s1
