23
gdb 112925	3.11804	0.98847	0.79289	1.1914	88.18	-0.2396	0.0249	0.2645	1509.0879	0.206414	-388.313202	-388.303681	-388.302737	-388.347474	36.539	
C	 0.1012959316	 1.5547737866	-0.0846836225	-0.393028
C	-0.0057170483	 0.0301918685	 0.0145365216	-0.17701
C	-1.450410268	-0.5126379427	 0.0633286785	-0.02742
C	-1.469289665	-2.0350818324	-0.156675459	-0.207507
C	-2.8383732279	-2.633818289	 0.1446358689	 0.111118
O	-2.7851621061	-4.0151878447	-0.1909255364	-0.441613
C	-3.2021733231	-2.4092935169	 1.6170745342	-0.276203
C	-2.9213386681	-0.9921566399	 2.0465816308	-0.080173
C	-2.1583768975	-0.1507011745	 1.3488250717	-0.034252
H	 1.1476700013	 1.8687187305	-0.1517220412	 0.113307
H	-0.4150620245	 1.9294056379	-0.9757374637	 0.113937
H	-0.3336748079	 2.0572746595	 0.7850209284	 0.118823
H	 0.4965183728	-0.4178812683	-0.8522649975	 0.09474
H	 0.5371048019	-0.3251839062	 0.9000139103	 0.097266
H	-1.9961832919	-0.0373624273	-0.7688511784	 0.077225
H	-1.1850178511	-2.2776161324	-1.1859164324	 0.099454
H	-0.7307756979	-2.5131562962	 0.5003675615	 0.100309
H	-3.5881913883	-2.1211845928	-0.4820603506	 0.063519
H	-3.6399362611	-4.4050401943	 0.0190471621	 0.277522
H	-4.2607486703	-2.6510261765	 1.7883954331	 0.089447
H	-2.6275529314	-3.1197386413	 2.229054019	 0.114326
H	-3.3824589004	-0.6575744219	 2.9730104762	 0.083479
H	-2.0224075487	 0.8638398744	 1.7155831357	 0.082734
74.5894	104.6222	150.2005	197.9783	246.1605	285.3166	306.0565	314.7205	385.3229	432.3471	466.0686	498.3524	552.06	687.9047	737.7905	776.9737	854.3365	897.3157	914.7336	959.7542	961.7904	1002.9501	1020.4018	1045.64	1064.0914	1080.0012	1108.3511	1121.5294	1140.308	1166.0413	1222.5987	1239.4141	1269.9111	1284.6012	1305.0505	1329.3177	1343.1256	1359.7154	1380.1413	1387.9404	1412.9999	1420.5216	1441.9612	1477.6978	1485.2798	1499.0919	1500.3383	1506.886	1717.7824	2950.2388	2961.2174	2999.6262	3016.7736	3025.7459	3030.3642	3032.2962	3051.447	3078.2492	3098.1438	3103.0792	3141.3373	3165.6391	3812.8456
CCC1CC(O)CC=C1	CC[C@H]1C[C@@H](O)CC=C1	
InChI=1S/C8H14O/c1-2-7-4-3-5-8(9)6-7/h3-4,7-9H,2,5-6H2,1H3	InChI=1S/C8H14O/c1-2-7-4-3-5-8(9)6-7/h3-4,7-9H,2,5-6H2,1H3/t7-,8+/m1/s1
