23
gdb 101448	2.31326	1.24108	1.00993	2.9112	81.95	-0.2331	0.0727	0.3058	1326.4056	0.203566	-425.40143	-425.390885	-425.389941	-425.43759	37.784	
C	 0.1974344255	 1.4225219627	 0.250274803	-0.237768
O	-0.0241610646	 0.0486736591	 0.0288380535	-0.238193
C	 0.642123398	-0.4958552608	-1.1045493959	 0.1135
C	 2.1449873825	-0.6682298098	-0.8457942987	-0.407217
C	-0.0110092768	-1.8343560376	-1.4456540309	-0.074216
C	-0.4030701388	-2.7638426168	-0.2742252682	-0.075981
O	-1.7876758517	-2.7608284635	-0.671505732	-0.292923
C	-1.520971525	-1.9199571947	-1.8189348049	 0.14591
C	-2.3961280802	-0.6813607091	-1.8481306152	-0.412132
H	 1.2369294091	 1.6450980647	 0.529869437	 0.109549
H	-0.0577296854	 2.0228364857	-0.6369644489	 0.105071
H	-0.4527613263	 1.7219354401	 1.0759742922	 0.130266
H	 0.5066387109	 0.1892386524	-1.9600241123	 0.065856
H	 2.6440993687	-1.0631664843	-1.7359968927	 0.117273
H	 2.6226498831	 0.2823934047	-0.5941562184	 0.117294
H	 2.3123526463	-1.3636680921	-0.017062557	 0.127342
H	 0.6169096904	-2.325543498	-2.1935244057	 0.0745
H	 0.0313748182	-3.7710587898	-0.3044927937	 0.089314
H	-0.2656151058	-2.3362505354	 0.7241214802	 0.11279
H	-1.6740421727	-2.4922536163	-2.7464331926	 0.065704
H	-2.2672929135	-0.0916620901	-0.9402073014	 0.139855
H	-2.1564560925	-0.0598002104	-2.7187113819	 0.104105
H	-3.4459125697	-0.9812458206	-1.9308246355	 0.120103
52.7924	69.6212	86.3912	155.525	202.7041	211.1891	224.0006	248.6261	289.8582	348.632	390.1072	414.1996	518.8172	604.6713	747.2325	770.8658	862.4	881.9558	921.7557	967.333	986.5897	1021.9543	1041.9627	1093.5327	1100.7237	1123.8932	1130.2242	1167.8211	1173.4239	1177.6643	1183.3736	1225.8256	1260.3288	1293.6226	1338.5208	1363.7433	1371.4476	1388.4632	1393.748	1400.7061	1408.6666	1476.4983	1482.5461	1484.1303	1492.2928	1499.4193	1504.83	1511.107	1524.6316	2945.9903	2977.3972	2979.2463	3015.501	3029.6613	3036.3228	3040.813	3067.9538	3079.9661	3097.3161	3112.4753	3112.5717	3116.8901	3152.8136
COC(C)C1COC1C	CO[C@@H](C)[C@H]1CO[C@H]1C	
InChI=1S/C7H14O2/c1-5(8-3)7-4-9-6(7)2/h5-7H,4H2,1-3H3	InChI=1S/C7H14O2/c1-5(8-3)7-4-9-6(7)2/h5-7H,4H2,1-3H3/t5-,6-,7+/m0/s1
