16
gdb 67096	2.69839	2.20048	1.77608	1.8767	72.69	-0.2228	-0.0063	0.2166	829.0732	0.1249	-400.622412	-400.615896	-400.614952	-400.652774	27.345	
O	 0.2611021169	 1.4249867766	-0.1085264314	-0.461682
C	 0.1214234342	 0.0577961848	-0.0522212501	 0.380362
C	 0.4072838983	-0.9480403763	 1.0898038703	-0.116072
C	-1.0670383212	-0.9684735811	 1.5942393902	-0.360107
C	-1.1581438275	-0.8858879778	 0.0621318252	 0.237182
C	-1.8553527504	-0.9135758469	-1.2712807053	-0.221182
C	-0.8073967143	-0.9022099152	-2.1110701575	-0.077852
C	 0.4375442364	-0.8950891942	-1.2130000815	-0.124677
N	 0.0203754694	-1.8686321695	-0.0840036685	-0.13973
H	 0.0891649308	 1.7982364272	 0.7636069146	 0.286964
H	 1.3198044832	-1.1194878849	 1.6616216667	 0.083151
H	-1.3959143665	-1.9078133701	 2.0456883202	 0.118798
H	-1.4181082587	-0.105516077	 2.1656895046	 0.096923
H	-2.9135797624	-0.9262716468	-1.4833127367	 0.11709
H	-0.8082308287	-0.9295948999	-3.1912814334	 0.111071
H	 1.4230471804	-1.016333939	-1.6650969675	 0.069761
201.3886	254.7137	282.3804	379.6673	453.3192	489.046	589.1056	600.2337	718.1906	719.2794	761.3834	798.6901	845.0006	860.7006	880.018	891.7225	905.596	927.2075	975.9474	990.4677	1022.4876	1040.4758	1087.7763	1124.5245	1146.9157	1183.8494	1191.5906	1204.5701	1233.6272	1277.8339	1309.8373	1344.2062	1363.8946	1489.0183	1585.365	3060.0005	3107.2827	3111.9659	3125.7924	3231.1926	3258.027	3800.3772
OC12C3CC11C=CC2N31	O[C@@]12[C@H]3C[C@]41C=C[C@@H]2N34	
InChI=1S/C7H7NO/c9-7-4-1-2-6(7)3-5(7)8(4)6/h1-2,4-5,9H,3H2	InChI=1S/C7H7NO/c9-7-4-1-2-6(7)3-5(7)8(4)6/h1-2,4-5,9H,3H2/t4-,5+,6-,7-/m0/s1
