21
gdb 78098	2.62734	1.14832	0.93903	3.247	84.46	-0.2435	-0.0183	0.2252	1332.5823	0.18087	-387.079776	-387.070349	-387.069405	-387.114045	35.195	
C	-0.0250235034	 1.5699616488	 0.0515700789	-0.421423
C	 0.0713488756	 0.0594060751	 0.1015475394	-0.056489
C	 1.2928735434	-0.7573573877	-0.2458862148	-0.132215
C	 2.5836397	-0.068367482	 0.23549216	-0.078077
C	 1.9931209498	-0.0767171381	 1.6929777514	-0.32356
C	 0.7179614854	-0.7642339199	 1.1840944447	 0.347869
C	-0.0024257966	-1.8438518813	 1.9407259973	-0.499001
C	 3.7938095177	-0.9539424519	 0.123701601	 0.159049
O	 4.8404814189	-0.6401011671	-0.3824448291	-0.260719
H	 0.8768294603	 2.0626982646	 0.422836437	 0.122847
H	-0.1876830898	 1.914009153	-0.9756175096	 0.121893
H	-0.8662115905	 1.9246511953	 0.6571978932	 0.118056
H	-0.8292750214	-0.429849667	-0.2682106164	 0.085778
H	 1.2604070149	-1.5317514527	-1.0050053952	 0.088383
H	 2.8184428878	 0.9041594523	-0.2040575987	 0.087228
H	 2.5719189899	-0.7247341566	 2.3585212904	 0.108314
H	 1.8850408014	 0.8990643459	 2.1752820669	 0.105857
H	-0.5378462039	-1.432946108	 2.8056541354	 0.12212
H	-0.7399610793	-2.3474179179	 1.3072733002	 0.120004
H	 0.6928455614	-2.6044142219	 2.3149196085	 0.116661
H	 3.6515961084	-1.9705729728	 0.5644209296	 0.067425
78.1154	93.7417	166.5949	196.0827	211.7984	238.221	305.1536	323.6245	354.5172	439.6629	454.014	546.5272	633.6047	738.3943	773.5027	846.7692	881.3449	932.6096	935.3784	956.5502	991.1373	1019.1716	1052.6299	1059.4994	1093.1849	1118.6416	1126.1018	1168.0904	1183.2048	1229.3667	1235.3316	1252.8964	1291.3185	1306.8617	1343.8719	1415.9734	1417.7873	1431.9768	1463.7594	1484.6904	1489.0892	1496.9405	1502.0526	1507.364	1830.4525	2838.3128	3018.3056	3035.2778	3046.9527	3075.1485	3079.6174	3091.4122	3094.8201	3095.8313	3108.7393	3126.0572	3164.5513
CC1C2C(CC12C)C=O	C[C@H]1[C@H]2[C@@H](C[C@@]12C)C=O	
InChI=1S/C8H12O/c1-5-7-6(4-9)3-8(5,7)2/h4-7H,3H2,1-2H3	InChI=1S/C8H12O/c1-5-7-6(4-9)3-8(5,7)2/h4-7H,3H2,1-2H3/t5-,6-,7-,8-/m0/s1
