20
gdb 8491	2.68413	2.01008	1.92547	1.79	75.12	-0.2304	0.0862	0.3166	883.6457	0.17499	-348.950524	-348.942093	-348.941149	-348.982531	32.848	
C	 0.1749128096	 1.4154036339	 0.0209568201	-0.517274
C	 0.0541056327	-0.072774569	-0.0931687353	 0.376995
C	 0.7289822651	-1.0501588139	-1.0940428545	-0.279195
C	 0.0549728137	-1.8670982441	 0.0288654542	 0.009429
O	 0.6280009052	-0.9089552128	 1.0008446578	-0.345969
C	-1.2341670209	-0.9845921357	-0.0514590295	 0.31813
C	-2.0616848598	-0.9004398144	 1.2292918854	-0.462125
C	-2.154119607	-1.0682604543	-1.2682909463	-0.480274
H	 1.2258171852	 1.7109543558	 0.0963913254	 0.133789
H	-0.2574225762	 1.8990368087	-0.8609637415	 0.125661
H	-0.3518472497	 1.7801902554	 0.9081655238	 0.132935
H	 0.3630511866	-1.11981779	-2.1186479052	 0.093468
H	 1.81834718	-1.0471672526	-1.0422187379	 0.102955
H	 0.1511139603	-2.9284232849	 0.2639104603	 0.084537
H	-1.4216590825	-0.8443794482	 2.1093544941	 0.138181
H	-2.7134001662	-0.0189126227	 1.2104344915	 0.107282
H	-2.7126205482	-1.7773925813	 1.3232569843	 0.108204
H	-2.8016579562	-1.9491189477	-1.1908889317	 0.119415
H	-2.8118444674	-0.1921227472	-1.3037865492	 0.118451
H	-1.6309768843	-1.127037115	-2.2236377059	 0.115404
150.2342	174.3833	181.0796	196.866	243.8705	333.0007	356.8766	390.4746	425.3782	536.9481	607.2575	636.7364	684.1167	708.7447	772.6386	872.2162	900.9623	938.5378	949.685	980.9855	1006.322	1019.9817	1034.8249	1106.6194	1142.4858	1161.546	1195.8094	1210.3556	1217.7328	1247.4412	1292.8312	1342.8724	1394.8585	1407.074	1417.7968	1475.9323	1479.4025	1487.2382	1490.5694	1501.2295	1513.7542	1515.8251	3027.5262	3034.0301	3037.3518	3079.058	3080.5772	3086.1924	3105.6495	3110.4281	3112.5464	3129.4271	3151.3709	3154.185
CC12CC(O1)C2(C)C	C[C@@]12C[C@@H](O1)C2(C)C	
InChI=1S/C7H12O/c1-6(2)5-4-7(6,3)8-5/h5H,4H2,1-3H3	InChI=1S/C7H12O/c1-6(2)5-4-7(6,3)8-5/h5H,4H2,1-3H3/t5-,7+/m1/s1
