17
gdb 127845	2.7232	1.57736	1.01142	1.8491	82.31	-0.2215	-0.0673	0.1542	1148.4187	0.136345	-414.164831	-414.156344	-414.1554	-414.198129	30.747	
C	 0.1054761654	 1.4280385288	 0.0064988938	-0.326415
N	 0.0481499494	-0.0231054113	 0.0024115802	-0.336521
C	-1.1039398013	-0.5779340405	 0.0093292815	 0.435891
C	-2.4331342765	-0.0072935228	 0.0211261229	-0.225013
C	-3.5008399805	-0.8334352798	 0.0264521607	 0.04606
N	-3.4102473207	-2.2115700616	 0.0213623449	-0.235608
N	-2.2496306834	-2.7465816174	 0.0110502964	-0.054144
N	-1.1482557411	-1.992336308	 0.0052618928	-0.058663
C	 0.1080787317	-2.7295153129	-0.0064350943	-0.308162
H	 1.1525571791	 1.7411113408	-0.0013781965	 0.124122
H	-0.3781972389	 1.8761801361	-0.8749548276	 0.111616
H	-0.3631203048	 1.8704641601	 0.8989145473	 0.11165
H	-2.5488445852	 1.0683417176	 0.0254903555	 0.124902
H	-4.5191214806	-0.4597190429	 0.0352581781	 0.131591
H	-0.138990581	-3.7896676635	-0.0076120149	 0.149801
H	 0.6867010504	-2.4558698699	-0.8918222453	 0.154438
H	 0.700127608	-2.4609410127	 0.8715923345	 0.154452
86.9153	118.7903	173.0157	191.7713	215.7749	278.6566	344.2222	380.5903	513.4849	537.2101	559.9235	637.5374	759.2134	767.0495	852.9881	883.3497	1000.7217	1006.3055	1046.6901	1078.9885	1111.5204	1151.5216	1160.8312	1204.5243	1212.3027	1286.7441	1325.462	1423.1448	1427.1456	1445.6418	1464.0905	1482.3036	1492.3996	1502.3241	1506.6802	1622.9022	1721.226	2972.9133	3019.1651	3061.3716	3098.5693	3126.1763	3179.7223	3192.0565	3224.6744
CN=C1C=CN=NN1C	C[N]c1ccnnn1C	
InChI=1S/C5H8N4/c1-6-5-3-4-7-8-9(5)2/h3-4H,1-2H3	InChI=1S/C5H13N4/c1-6-5-3-4-7-8-9(5)2/h5,7-8H,3-4H2,1-2H3
