19
gdb 51649	3.94812	0.97244	0.92742	4.3693	76.12	-0.216	-0.017	0.199	1304.4691	0.160018	-419.177351	-419.169039	-419.168094	-419.211371	30.841	
O	-0.2694700431	 0.9144206122	 1.1235277787	-0.242999
C	 0.2415154071	 1.1875914308	 0.0687908719	 0.159771
C	 1.3367820162	 2.2269014987	-0.1201417406	-0.244846
N	 1.2303584204	 2.8634631544	-1.421047605	-0.083421
C	 0.198136648	 3.9144271737	-1.503899433	-0.182178
C	 0.9531317576	 5.2286765448	-1.5934540358	-0.032713
N	 1.9850583465	 5.3546009736	-0.542166547	-0.33292
C	 2.3664636203	 4.9084428364	-1.8987273725	-0.034681
C	 2.4781330047	 3.3971763929	-1.9944362779	-0.173581
H	-0.0473392571	 0.6783247222	-0.8796417957	 0.075521
H	 1.3359564636	 2.9190248861	 0.734007701	 0.130791
H	 2.2816775995	 1.6665515428	-0.0833095548	 0.123036
H	-0.4214068982	 3.7892467025	-2.4030087606	 0.101509
H	-0.4641194038	 3.8620598789	-0.6334251725	 0.11807
H	 0.4626933769	 6.1171062636	-1.9776158824	 0.089066
H	 2.2301849187	 6.3352456289	-0.4297490924	 0.23347
H	 2.982996179	 5.5449950489	-2.5249477048	 0.088639
H	 3.3437570153	 2.9985128665	-1.4573300595	 0.108048
H	 2.5772049184	 3.1098471218	-3.0515897071	 0.099417
52.1557	70.2189	104.8539	237.3409	307.7265	360.4904	401.272	428.4957	483.2738	651.3656	697.9767	769.0767	806.6852	848.2603	864.1835	887.9126	940.9551	968.7318	993.3293	1041.0818	1041.991	1068.0441	1099.3769	1125.0136	1145.8348	1161.932	1165.4135	1216.8706	1249.923	1267.7412	1323.081	1329.9248	1339.2313	1370.4272	1378.7828	1399.439	1434.5445	1459.9471	1495.6451	1505.6503	1835.9838	2871.5226	2994.7695	2999.9352	3006.6999	3046.6632	3071.5766	3080.6731	3161.6245	3172.1947	3503.803
O=CCN1CC2NC2C1	O=CCN1C[C@H]2N[C@H]2C1	
InChI=1S/C6H10N2O/c9-2-1-8-3-5-6(4-8)7-5/h2,5-7H,1,3-4H2	InChI=1S/C6H10N2O/c9-2-1-8-3-5-6(4-8)7-5/h2,5-7H,1,3-4H2/t5-,6+
