18
gdb 30041	2.40719	1.81187	1.04706	3.3481	83.72	-0.2057	-0.027	0.1787	1132.6148	0.148635	-402.031637	-402.02304	-402.022096	-402.064993	31.806	
C	-0.0067936224	 1.447888172	 0.0130918315	-0.331493
N	-0.0085985545	-0.0110123423	-0.0334954427	-0.133656
C	-0.0750229795	-0.6801818037	-1.2201237961	 0.029882
C	-0.0771821391	-2.0388078833	-1.2672226378	-0.195062
C	-0.0081687373	-2.757530245	-0.0440585507	-0.141873
C	 0.0592359899	-2.1187358612	 1.1602115551	 0.114137
C	 0.133602993	-2.8269417275	 2.4808784358	-0.46787
C	 0.0617758037	-0.663828097	 1.2162389333	 0.387095
O	 0.1191147743	 0.0030891232	 2.2436439894	-0.416366
H	 0.9028664555	 1.8057901746	 0.5009896201	 0.155462
H	-0.0648171308	 1.8384942832	-1.0034557945	 0.123932
H	-0.8556502315	 1.8046910874	 0.601096999	 0.155514
H	-0.1250516729	-0.0607259578	-2.1074735566	 0.126209
H	-0.1305288006	-2.5480491087	-2.2198027776	 0.103453
H	-0.0092534744	-3.8440526653	-0.0699237972	 0.100099
H	 0.1264811614	-3.9119808073	 2.3498072265	 0.110027
H	 1.0398558136	-2.5402804442	 3.0254241098	 0.14025
H	-0.7060664783	-2.540645447	 3.1235180128	 0.14026
79.9319	121.0665	128.9643	218.036	259.1557	278.0862	347.1974	453.1068	494.7002	511.2703	556.9747	580.823	696.7134	759.6733	787.2902	872.8052	911.7688	940.8311	940.854	1027.1444	1062.2793	1067.5351	1121.3233	1153.6444	1188.6654	1236.7311	1245.5221	1347.8837	1399.3185	1414.0809	1445.0329	1464.7092	1467.2081	1479.5215	1491.971	1517.3986	1598.2068	1670.3023	1737.6953	3034.5582	3057.6985	3087.1619	3120.3347	3124.1411	3152.7526	3163.1912	3200.3166	3227.6045
CN1C=CC=C(C)C1=O	Cn1cccc(C)c1=O	
InChI=1S/C7H9NO/c1-6-4-3-5-8(2)7(6)9/h3-5H,1-2H3	InChI=1S/C7H9NO/c1-6-4-3-5-8(2)7(6)9/h3-5H,1-2H3
