20
gdb 71115	2.92226	1.86203	1.59517	1.3981	81.94	-0.2238	0.014	0.2378	937.1186	0.174196	-366.020806	-366.013881	-366.012937	-366.051399	29.84	
C	 0.013702697	 1.5154836675	 0.0450353081	-0.480328
C	 0.0219277529	-0.0076541375	 0.0200888484	 0.222904
C	 0.6583368611	-0.6345336433	-1.2570183413	-0.248078
C	 0.091170747	-2.0395240793	-1.2346864623	-0.045068
C	 0.0178414515	-2.6719771775	 0.1290129665	-0.07099
C	 0.6769000327	-1.9734914925	 1.2500281846	-0.063177
C	 0.6933215995	-0.6362308717	 1.2137378043	-0.123409
N	-1.189325928	-2.0463317254	-0.5124719185	-0.12326
C	-1.3958471945	-0.6650359453	-0.0632220572	-0.174633
H	 1.0330035045	 1.916793766	 0.0517606465	 0.117165
H	-0.501439196	 1.9237804763	-0.8308739119	 0.112026
H	-0.4950859074	 1.8919774217	 0.9392986727	 0.117084
H	 0.316270687	-0.103386783	-2.1531609601	 0.100182
H	 1.7520520712	-0.6097274755	-1.2366694848	 0.103201
H	 0.1712805267	-2.6719925486	-2.1137435829	 0.088535
H	-0.0592608662	-3.7528857691	 0.1843973524	 0.08676
H	 1.1010556417	-2.5555628909	 2.0608654548	 0.091637
H	 1.1277683507	-0.0215703271	 1.9955815466	 0.084616
H	-1.9277298287	-0.6390866619	 0.8917998338	 0.103919
H	-2.0066475127	-0.1602577627	-0.8206133197	 0.100914
218.9912	273.3792	283.9515	356.0004	400.2887	409.0354	507.8332	560.7309	589.6209	699.2804	717.6885	748.0193	759.8054	797.8285	868.6485	893.2862	909.0677	941.2773	950.8401	969.4902	990.6369	1019.6476	1043.2485	1080.594	1093.1472	1136.7648	1160.2098	1174.7558	1205.2053	1211.653	1247.4058	1285.8344	1288.235	1304.9476	1345.3005	1390.2558	1411.5453	1417.7612	1477.1942	1491.6208	1493.661	1504.0505	1674.4476	3026.3619	3035.6242	3040.935	3089.2747	3092.5166	3095.6573	3099.3182	3151.9955	3161.8571	3170.7198	3195.9465
CC12CC3C(C=C1)N3C2	C[C@@]12C[C@H]3[C@@H](C=C1)N3C2	
InChI=1S/C8H11N/c1-8-3-2-6-7(4-8)9(6)5-8/h2-3,6-7H,4-5H2,1H3	InChI=1S/C8H11N/c1-8-3-2-6-7(4-8)9(6)5-8/h2-3,6-7H,4-5H2,1H3/t6-,7+,8+,9?/m1/s1
