16
gdb 31293	2.14711	1.5608	0.95346	0.8878	81.94	-0.2282	-0.0282	0.2	1212.6928	0.123833	-400.75961	-400.751126	-400.750182	-400.793231	30.98	
C	 0.2442077906	 1.6330171423	 0.2133779959	-0.372317
C	-0.0998677574	 0.1595902628	-0.0600683075	-0.305613
C	 0.5582025316	-0.3665088454	-1.2919897456	 0.163996
C	-0.0113047416	-0.8366557615	-2.4441299961	 0.127832
O	 1.0135642232	-1.2014115588	-3.2968606914	-0.177288
C	 2.1322951695	-0.9265396066	-2.6027829762	 0.059629
N	 1.9394618248	-0.4352264954	-1.4217718945	-0.296333
C	-1.3377098777	-0.998279976	-2.8694552012	 0.262865
C	-2.4850155036	-1.1291684163	-3.2131549543	-0.428871
H	 1.3262619372	 1.7650245311	 0.2952064969	 0.139841
H	-0.1153740587	 2.2761515211	-0.595711723	 0.120936
H	-0.2167945609	 1.9685444707	 1.1468959366	 0.114258
H	 0.219954339	-0.449468372	 0.7944909698	 0.122497
H	-1.1826022188	 0.0317163069	-0.1565664573	 0.116521
H	 3.0701756397	-1.1413613616	-3.0915151222	 0.1533
H	-3.4955898869	-1.2447757614	-3.51841197	 0.198747
57.579	132.7959	157.213	177.219	219.9579	326.4914	373.6311	468.8972	533.0822	545.6712	594.6323	659.1022	681.1955	694.3789	759.1576	800.0377	851.5108	955.989	974.8963	1030.4009	1083.3056	1109.9594	1163.9266	1219.6148	1291.6817	1303.972	1352.8048	1373.999	1409.1668	1477.6383	1496.6357	1507.8298	1544.19	1624.7423	2230.9096	3032.9731	3043.0543	3082.9157	3113.6907	3126.4208	3271.7755	3501.5462
CCC1=C(OC=N1)C#C	CCc1c(ocn1)C#C	
InChI=1S/C7H7NO/c1-3-6-7(4-2)9-5-8-6/h2,5H,3H2,1H3	InChI=1S/C7H7NO/c1-3-6-7(4-2)9-5-8-6/h2,5H,3H2,1H3
