18
gdb 45490	2.95329	1.71564	1.52822	4.0502	73.99	-0.2354	0.0271	0.2625	933.075	0.15217	-401.995985	-401.989426	-401.988481	-402.02677	27.369	
O	 0.0220095647	-0.0331930799	 0.0304882273	-0.384732
C	 0.0163796202	 1.1770594099	-0.019994962	 0.399789
N	-1.1047325299	 1.9788083627	-0.0829635629	-0.30183
C	-0.8297048706	 3.406690282	 0.0791455543	-0.031959
C	-0.9315808271	 3.8267522224	 1.5596285778	-0.198705
C	 0.3229562085	 3.1868066016	 2.2089378751	-0.242574
C	 1.3460499782	 3.1343877792	 1.0689984898	-0.041109
C	 0.6826017022	 3.507760766	-0.2268895147	-0.077966
C	 1.2020406837	 2.1055088032	-0.0562191543	-0.167193
H	-1.9948377235	 1.5804541115	 0.1773823764	 0.244074
H	-1.4558784815	 4.00256141	-0.5896000458	 0.082961
H	-0.8729530422	 4.9194852802	 1.6253397455	 0.102861
H	-1.8722752332	 3.5152559046	 2.025267376	 0.095046
H	 0.6976204723	 3.7863658427	 3.0423969195	 0.10427
H	 0.1041352486	 2.1907035288	 2.6069119668	 0.121008
H	 2.3634702087	 3.4505604241	 1.2684120436	 0.094855
H	 1.0711890981	 4.2164893687	-0.9459031721	 0.094458
H	 2.1027869227	 1.7454522324	-0.5362170503	 0.106745
132.6814	194.0393	376.4932	382.677	468.1831	526.8564	603.4532	629.3871	685.0022	720.9918	779.6876	806.9253	826.5385	850.1076	875.96	911.0536	940.1391	952.9605	997.629	1018.9524	1027.152	1050.573	1082.4159	1097.5805	1137.6058	1176.3821	1211.9862	1244.6646	1274.5856	1291.5891	1306.6496	1331.2906	1339.8994	1369.2482	1387.8997	1425.4733	1483.7301	1502.5975	1826.1667	3036.764	3053.2192	3076.5731	3083.6105	3100.2547	3175.8775	3196.108	3205.7861	3619.4393
O=C1NC2CCC3C2C13	O=C1N[C@H]2CC[C@@H]3[C@H]2[C@H]13	
InChI=1S/C7H9NO/c9-7-6-3-1-2-4(8-7)5(3)6/h3-6H,1-2H2,(H,8,9)	InChI=1S/C7H9NO/c9-7-6-3-1-2-4(8-7)5(3)6/h3-6H,1-2H2,(H,8,9)/t3-,4+,5-,6-/m1/s1
