17
gdb 48731	3.13051	1.61105	1.34003	2.6247	72.47	-0.2584	-0.0358	0.2226	971.6825	0.137039	-421.789918	-421.783086	-421.782142	-421.821175	27.497	
O	-0.7350118511	 0.9810595656	 0.5007888773	-0.264367
C	 0.2745193779	 0.9542824579	-0.1604332127	 0.085269
C	 1.3760630887	 1.9283766055	-0.0178360658	 0.310862
O	 2.307436057	 2.0033114008	-1.1201268252	-0.28258
C	 2.7978653926	 1.5263734868	 0.1252077253	-0.01102
C	 3.291762457	 2.5918598806	 1.1270371963	-0.080044
C	 2.6405491863	 3.8924723322	 0.5801377076	-0.223974
C	 1.3198788399	 3.1492749402	 0.921225189	-0.111587
C	 2.100081254	 2.5610425362	 2.149828097	-0.221808
H	 0.4611145769	 0.1822597244	-0.9383768272	 0.085339
H	 3.148342148	 0.4988104557	 0.1432257796	 0.113261
H	 4.3341926097	 2.5391107963	 1.4390126794	 0.075083
H	 2.8086858596	 4.7354550444	 1.2517773227	 0.103502
H	 2.8283703548	 4.1712487102	-0.4549931458	 0.121776
H	 0.360313673	 3.6509981431	 1.0229158198	 0.086264
H	 1.7789185958	 1.5900051593	 2.5364379065	 0.108076
H	 2.2177238599	 3.2756138707	 2.9677759064	 0.105948
110.145	178.2872	244.9324	401.8697	426.7338	508.0088	513.5187	611.25	641.8452	733.6263	824.3972	843.0026	847.4943	859.6799	898.897	920.2097	931.0214	996.2351	1006.3259	1023.7667	1049.1697	1071.7824	1088.534	1108.2073	1121.2576	1217.0396	1226.9723	1237.9077	1246.4845	1270.2358	1294.7623	1311.4522	1371.9688	1427.7562	1482.0055	1519.1525	1808.879	2901.9758	3061.2221	3092.2392	3121.8814	3125.5678	3147.6972	3160.8076	3167.0038
O=CC12OC1C1CC2C1	O=C[C@]12O[C@H]1[C@H]1C[C@@H]2C1	
InChI=1S/C7H8O2/c8-3-7-5-1-4(2-5)6(7)9-7/h3-6H,1-2H2	InChI=1S/C7H8O2/c8-3-7-5-1-4(2-5)6(7)9-7/h3-6H,1-2H2/t4-,5+,6-,7+/m0/s1
