19
gdb 46622	2.7216	1.61621	1.09058	2.6297	81.58	-0.2244	-0.0177	0.2067	1114.1417	0.161201	-385.937091	-385.92944	-385.928496	-385.969703	29.783	
O	-0.0731791301	 0.0344853777	-0.2670134394	-0.315039
C	-0.0360706497	 1.2181850953	-0.0533705886	 0.382837
C	-1.2479820573	 2.0864665827	 0.357001849	-0.315559
C	-0.7049014585	 3.5243004119	 0.5937302174	-0.342033
C	 0.7683369928	 3.2894257237	 0.7645684933	 0.342421
C	 1.72641465	 3.6837252006	 1.5984382156	-0.228726
C	 2.9948506478	 2.8739697263	 1.4003128769	-0.246419
C	 2.5219304164	 1.6460513108	 0.5624824149	-0.236392
C	 1.2019393015	 2.1184600742	-0.081986661	-0.165269
H	-2.0360507236	 2.0234459957	-0.3986826269	 0.129945
H	-1.6593092602	 1.6538961919	 1.2757021884	 0.138866
H	-0.8983305	 4.146225611	-0.2899808302	 0.114737
H	-1.1683518465	 4.0236517089	 1.4480025178	 0.11481
H	 1.638838697	 4.4672197941	 2.3434391483	 0.091391
H	 3.7575137094	 3.4541643223	 0.8614708817	 0.106966
H	 3.4530981157	 2.5777539521	 2.3506084859	 0.105129
H	 3.2641593013	 1.3222153842	-0.1696319741	 0.105351
H	 2.3223985025	 0.7931164062	 1.2188666822	 0.116854
H	 1.3425385914	 2.4167426003	-1.1348893913	 0.100128
61.8058	108.1232	226.1733	245.2272	325.5906	453.5432	535.621	560.4399	583.1751	619.9564	698.209	736.3516	817.6158	836.0148	876.9744	906.3217	928.8515	964.1975	966.1037	980.9734	1008.838	1048.6265	1108.1437	1144.2754	1161.5576	1178.7205	1204.8683	1221.963	1241.3883	1266.6504	1275.2821	1300.5573	1318.8073	1325.4845	1350.4647	1447.3004	1485.281	1487.2585	1502.8912	1739.7968	1844.9047	2962.5046	3006.2918	3022.5682	3052.1739	3055.1702	3065.1598	3093.2652	3104.6409	3112.9128	3190.0784
O=C1CCC2=CCCC12	O=C1CCC2=CCC[C@@H]12	
InChI=1S/C8H10O/c9-8-5-4-6-2-1-3-7(6)8/h2,7H,1,3-5H2	InChI=1S/C8H10O/c9-8-5-4-6-2-1-3-7(6)8/h2,7H,1,3-5H2/t7-/m1/s1
