15
gdb 17767	5.57834	1.23284	1.19736	3.7212	65.26	-0.2543	0.0294	0.2837	1002.0066	0.119333	-362.599431	-362.592603	-362.591659	-362.631146	25.485	
N	 0.0310132613	-1.1663949608	-0.0267171077	-0.30213
C	-0.0196887617	-0.0222764211	 0.1269037688	 0.263151
C	-0.0576375887	 1.428489427	 0.3098679113	-0.395583
C	 1.3242094986	 2.060939691	 0.1111317236	 0.042668
C	 1.9757591289	 2.2638504905	-1.2860664062	 0.049483
C	 0.9931405742	 3.4154425184	-1.6091103196	-0.233131
C	 1.5152848298	 3.5808844965	-0.1608973103	 0.02161
O	 2.8728321284	 3.2615387134	-0.6550932721	-0.302485
H	-0.8032800592	 1.8425609212	-0.3748095139	 0.153369
H	-0.4130332384	 1.6395248824	 1.325416894	 0.159408
H	 2.0421620157	 1.6810069438	 0.8404636674	 0.108992
H	 2.4275206792	 1.5252822568	-1.9473609198	 0.111757
H	 1.3784466195	 4.1526743016	-2.3132578702	 0.120742
H	-0.0615415841	 3.1902365613	-1.7804512037	 0.100039
H	 1.4144958866	 4.4219169181	 0.5256522484	 0.10211
56.1732	120.488	301.9217	305.5412	388.7788	471.3287	554.8355	634.7685	729.0578	785.213	833.7751	877.4048	904.6065	929.9897	956.2384	980.3155	1014.1974	1064.8758	1081.3673	1096.5238	1161.0344	1171.8843	1202.4906	1209.2897	1231.8672	1263.3733	1287.5711	1318.9147	1394.7261	1463.01	1500.3663	2362.8009	3047.4886	3074.9358	3089.5362	3108.2523	3118.8319	3132.2969	3154.9615
N#CCC1C2CC1O2	N#CC[C@H]1[C@H]2C[C@@H]1O2	
InChI=1S/C6H7NO/c7-2-1-4-5-3-6(4)8-5/h4-6H,1,3H2	InChI=1S/C6H7NO/c7-2-1-4-5-3-6(4)8-5/h4-6H,1,3H2/t4-,5+,6-
