18
gdb 86602	3.67116	1.01627	0.84352	2.4415	74.9	-0.2476	0.0287	0.2763	1362.1118	0.146969	-439.080883	-439.071841	-439.070896	-439.11573	31.569	
C	-0.1052289465	 1.4917143126	-0.0105107012	-0.344628
N	-0.0120126251	 0.057392284	-0.0812638011	-0.071403
C	-1.0243763039	-1.0006390515	-0.0609808992	-0.19749
C	 0.1441439761	-2.0326821328	-0.1266261833	-0.178432
C	 0.2222669284	-2.9131574511	-1.3397333441	 0.097899
C	 0.9988986911	-4.1572293943	-1.3417249178	-0.178646
O	-0.4280617324	-4.1849876844	-1.2572339317	-0.242043
C	 1.0710505004	-0.7816335003	-0.1368379315	 0.389245
O	 2.2561291046	-0.5761414413	-0.1805347163	-0.374031
H	 0.9114325352	 1.8909949265	-0.0394981226	 0.163452
H	-0.6705770061	 1.900527628	-0.856756809	 0.130286
H	-0.5876443585	 1.8187735707	 0.9189252407	 0.129985
H	-1.6237166501	-1.0306599457	 0.8555250687	 0.114431
H	-1.6907462032	-0.9981560558	-0.9313728392	 0.115022
H	 0.2508015302	-2.6316952324	 0.7808825334	 0.107292
H	 0.0788788874	-2.4026993559	-2.2940076032	 0.097459
H	 1.4218426545	-4.526735495	-2.2742123321	 0.120813
H	 1.528058678	-4.4589376115	-0.4391613805	 0.120789
55.3427	80.2078	121.6294	145.9049	173.4239	243.2961	301.1199	330.5379	393.1551	546.8749	637.5112	769.5645	787.4311	832.3522	869.9462	923.5772	966.5616	985.8289	1019.51	1083.5143	1099.3761	1125.6572	1149.0891	1159.6821	1170.4	1179.0447	1198.7216	1257.6882	1272.6279	1295.7006	1316.2266	1414.3805	1443.8449	1459.5499	1482.1718	1511.785	1531.2463	1534.5241	1876.2086	3014.6702	3029.1525	3065.9668	3072.6705	3086.0653	3090.4921	3100.755	3130.1112	3176.8001
CN1CC(C2CO2)C1=O	CN1C[C@@H]([C@H]2CO2)C1=O	
InChI=1S/C6H9NO2/c1-7-2-4(6(7)8)5-3-9-5/h4-5H,2-3H2,1H3	InChI=1S/C6H9NO2/c1-7-2-4(6(7)8)5-3-9-5/h4-5H,2-3H2,1H3/t4-,5+/m0/s1
