19
gdb 88083	3.43394	1.25272	1.14772	0.7261	75.01	-0.2539	0.0766	0.3304	1144.9387	0.15913	-423.00747	-422.999408	-422.998464	-423.040017	31.254	
C	-0.041012859	 1.5164083213	-0.0920608752	-0.421846
C	-0.0505071349	 0.0258339292	 0.1313665913	-0.0052
O	 1.1893470617	-0.6780995536	-0.0548658912	-0.304768
C	 0.6144235657	-0.6333305679	 1.2610839677	 0.415908
C	 1.3905384302	 0.0613670542	 2.3820452656	-0.309288
C	 1.9275634523	-1.0893123654	 3.2749343973	-0.251596
C	 0.9694173664	-2.2385195207	 3.0217845824	 0.049652
O	-0.4114804313	-1.8591398152	 3.1090837379	-0.264129
C	 0.1881508533	-1.9668114316	 1.8083565906	-0.042098
H	 0.8206586463	 1.9875355206	 0.3854104268	 0.126784
H	-0.0047417046	 1.7404147946	-1.163229635	 0.130138
H	-0.9542355002	 1.9652262483	 0.3134190139	 0.126172
H	-0.9074723639	-0.4921425978	-0.3058549243	 0.086775
H	 2.1902982393	 0.6836461814	 1.9782489005	 0.117747
H	 0.7147321565	 0.701044101	 2.955646475	 0.122184
H	 2.9336010113	-1.3938676671	 2.9644798311	 0.113641
H	 1.9770723023	-0.8107908031	 4.3315418424	 0.111822
H	 1.1979135192	-3.2465859506	 3.3577354651	 0.097577
H	-0.2082304307	-2.7320483178	 1.146972948	 0.100526
94.132	163.448	185.3438	197.9953	303.8268	366.502	381.5218	444.8095	512.9286	556.5418	686.652	751.988	809.1608	827.3864	842.4299	872.756	915.5149	936.0046	973.8795	1006.0637	1025.1107	1035.5419	1080.4102	1094.3924	1129.353	1157.7638	1192.7239	1215.5087	1238.8228	1253.0959	1306.6683	1311.0184	1328.058	1370.7917	1408.1215	1427.1487	1467.3328	1475.873	1485.5994	1492.5273	1521.1314	3039.6534	3045.8605	3070.6168	3078.4761	3093.0304	3101.4788	3127.542	3135.2975	3148.574	3163.4761
CC1OC11CCC2OC12	C[C@H]1O[C@]21CC[C@H]1O[C@@H]21	
InChI=1S/C7H10O2/c1-4-7(9-4)3-2-5-6(7)8-5/h4-6H,2-3H2,1H3	InChI=1S/C7H10O2/c1-4-7(9-4)3-2-5-6(7)8-5/h4-6H,2-3H2,1H3/t4-,5-,6-,7+/m1/s1
