17
gdb 48848	2.92862	1.4222	1.1716	1.5782	69.09	-0.2562	-0.029	0.2272	1061.8728	0.136432	-458.9536	-458.945908	-458.944963	-458.985961	29.143	
O	-0.0681143972	 0.0306944683	 0.236284254	-0.267332
C	 0.0449300747	 1.1907898176	-0.0784093293	 0.106468
C	 1.3043702064	 1.9651108916	 0.005164248	 0.147423
C	 1.1787896222	 3.4709474033	 0.2306643971	-0.345685
C	 1.5524938857	 2.9791071764	-1.1236967721	 0.07749
O	 2.8583885998	 3.1672664868	-1.5754980409	-0.245263
C	 3.7404292108	 2.1176056582	-1.2316358729	 0.009646
O	 3.7325341643	 1.8519617083	 0.1386636636	-0.233345
C	 2.5186529093	 1.2155515661	 0.5260184335	-0.167247
H	-0.8256050027	 1.7703696202	-0.466194479	 0.07268
H	 0.1850696725	 3.8778680294	 0.3866952455	 0.124773
H	 1.9719120633	 3.926176661	 0.8123727239	 0.146926
H	 0.8179411848	 3.0385916965	-1.9235876102	 0.10987
H	 3.4806731241	 1.2055818606	-1.7976320215	 0.08881
H	 4.7395777928	 2.4638019705	-1.4999966027	 0.12603
H	 2.5256921358	 1.1734943132	 1.6179903094	 0.126986
H	 2.4870077638	 0.1854456021	 0.1449674836	 0.121772
96.6007	136.1721	214.0027	227.7375	341.2429	388.756	419.7713	460.2649	506.7032	577.3139	714.2049	754.5764	801.2058	856.9469	920.763	979.7463	993.1469	1020.4331	1045.3015	1051.5568	1077.7165	1103.1039	1117.9179	1187.451	1203.1567	1248.9067	1281.3024	1324.7375	1326.1247	1372.583	1416.4854	1439.3124	1446.2854	1466.5317	1500.2548	1513.3484	1808.3959	2854.9919	2949.3398	3018.2104	3098.4403	3124.9159	3130.9323	3136.2177	3233.8173
O=CC12CC1OCOC2	O=C[C@]12C[C@H]1OCOC2	
InChI=1S/C6H8O3/c7-2-6-1-5(6)9-4-8-3-6/h2,5H,1,3-4H2	InChI=1S/C6H8O3/c7-2-6-1-5(6)9-4-8-3-6/h2,5H,1,3-4H2/t5-,6+/m1/s1
