20
gdb 105206	1.95144	1.50544	1.07105	5.3469	75.54	-0.2405	0.0232	0.2637	1222.1984	0.17024	-440.308127	-440.298464	-440.29752	-440.342783	35.622	
C	-0.281771277	 1.0604235689	-1.4339360586	-0.329934
N	-0.2534992973	 0.3987639277	-0.1288869204	-0.390621
H	 0.6189998876	-0.0940912025	 0.0122793949	 0.235147
H	-1.0186130711	 1.5314575256	 1.2134563836	 0.298537
C	-1.3955829342	-0.4204642308	 0.21172807	 0.125361
C	-2.0215239248	-1.4211714252	-0.750409413	-0.315765
C	-1.2586887065	-1.926350996	 0.4323529361	-0.012041
C	 0.0723662128	-2.6232531158	 0.2661210319	-0.428248
C	-2.3608701562	 0.2631362159	 1.1582726685	 0.427715
O	-1.90645616	 1.4356180028	 1.6229019058	-0.383058
O	-3.4243540144	-0.2031724287	 1.4802669981	-0.362367
H	 0.6062098839	 1.6907359935	-1.5335696015	 0.126923
H	-0.3136748626	 0.3666396303	-2.286556377	 0.114296
H	-1.1632028423	 1.7056042577	-1.4935429707	 0.142266
H	-3.1029069808	-1.4820662261	-0.7347614962	 0.145862
H	-1.5565824514	-1.5174063129	-1.7261600954	 0.113009
H	-1.8677059441	-2.2875072445	 1.2553653115	 0.119451
H	 0.6209678618	-2.2585777884	-0.6085891211	 0.112688
H	 0.7104025114	-2.4975689354	 1.1484091276	 0.126249
H	-0.0806956549	-3.6977686661	 0.1226001757	 0.134531
57.6961	110.2749	156.0992	180.056	205.0407	217.9078	259.567	316.1526	377.0276	413.5679	510.8092	515.4214	576.5496	698.9585	727.4503	756.7207	840.2001	864.7659	910.902	915.4039	932.2654	1015.5378	1062.4503	1072.736	1089.9894	1139.7641	1154.1002	1175.9232	1193.4104	1201.9195	1248.9978	1325.0513	1392.6603	1416.3463	1425.095	1462.1794	1464.9921	1479.3703	1495.4635	1498.8725	1504.676	1518.2921	1853.1161	2998.0877	3028.8327	3080.111	3092.3294	3098.4913	3118.5553	3137.7773	3164.846	3235.5138	3480.6603	3557.7434
C[NH2+]C1(CC1C)C([O-])=O	CN[C@]1(C[C@H]1C)C(=O)O	
InChI=1S/C6H11NO2/c1-4-3-6(4,7-2)5(8)9/h4,7H,3H2,1-2H3,(H,8,9)	InChI=1S/C6H11NO2/c1-4-3-6(4,7-2)5(8)9/h4,7H,3H2,1-2H3,(H,8,9)/t4-,6+/m1/s1
