20
gdb 86813	4.21277	0.80284	0.75539	2.5626	75.88	-0.2383	0.0294	0.2676	1560.8951	0.169288	-440.312822	-440.302669	-440.301725	-440.349827	35.745	
C	 0.4075151884	 1.506010282	-0.7171450013	-0.396922
C	 0.0321884813	 0.1415291398	-0.1776494308	 0.162269
C	 0.6199024754	-1.1197923826	-0.8470165478	-0.291324
C	 1.121527375	-1.4664144763	 0.5661414181	 0.177515
C	 2.6058965945	-1.7076979939	 0.7879064686	-0.346939
C	 3.0469653434	-3.0606181437	 0.2393215899	 0.413602
N	 4.2662104704	-3.4904112202	 0.6757104888	-0.524655
O	 2.3721351321	-3.7043482315	-0.5431578468	-0.357186
O	 0.7115412373	-0.1727214312	 1.0682630411	-0.325156
H	 1.4874179151	 1.5759946229	-0.8812377607	 0.113144
H	-0.1027470718	 1.6926865657	-1.6686709269	 0.115765
H	 0.1152732703	 2.2922992213	-0.0135901865	 0.124846
H	-1.0567446138	 0.0801719337	-0.0358835559	 0.070805
H	-0.0791217607	-1.8216295979	-1.3000247148	 0.116103
H	 1.4230157399	-0.9065959749	-1.5568605864	 0.102466
H	 0.5425432641	-2.2706807522	 1.0386406636	 0.08225
H	 3.1846589374	-0.9174462781	 0.292699589	 0.125673
H	 2.8332459863	-1.6331510181	 1.85859368	 0.117839
H	 4.8145691886	-2.97475694	 1.340701818	 0.259281
H	 4.6166139767	-4.3685575948	 0.3300171304	 0.260623
24.8748	58.1194	82.5768	85.0248	159.8251	221.9232	319.6299	324.4046	348.1045	417.9745	470.4661	519.9615	595.1924	660.0007	715.8814	824.2159	861.4557	887.4675	898.9443	930.2464	952.9488	1014.4732	1073.6264	1096.0053	1103.1579	1107.9402	1154.9835	1193.2131	1235.6758	1245.5239	1255.017	1284.6652	1332.6768	1378.1704	1393.7651	1403.5038	1421.9798	1462.2625	1481.8446	1492.9213	1497.9405	1616.5721	1788.3053	2991.7368	3015.4065	3028.3916	3031.5242	3067.384	3076.1613	3103.5651	3109.8492	3144.6686	3604.1628	3742.5268
CC1CC(CC(N)=O)O1	C[C@H]1C[C@@H](CC(=O)N)O1	
InChI=1S/C6H11NO2/c1-4-2-5(9-4)3-6(7)8/h4-5H,2-3H2,1H3,(H2,7,8)	InChI=1S/C6H11NO2/c1-4-2-5(9-4)3-6(7)8/h4-5H,2-3H2,1H3,(H2,7,8)/t4-,5-/m0/s1
