16
gdb 51601	2.36917	1.13408	0.82744	6.2694	68.77	-0.2737	0.0042	0.2779	1348.4353	0.121923	-475.007645	-474.998599	-474.997655	-475.042837	31.113	
N	-0.4414294894	 1.142675211	-0.454136878	-0.424824
C	-0.5182548275	-0.0286557534	-0.0013195947	 0.128638
O	-1.132377674	-0.9897980123	-0.7401126511	-0.186312
C	-1.0487290164	-2.2987060795	-0.2566751467	 0.059678
C	-1.8500099079	-2.7089145055	 0.9569316004	-0.34495
C	-2.2892577301	-3.1400215829	-0.4133688892	 0.078796
O	-3.4686179406	-2.5391775096	-0.8796300333	-0.189932
C	-3.479900396	-2.1339207131	-2.1790801411	 0.189716
O	-4.4537688921	-1.6667780757	-2.680337123	-0.266027
H	 0.0284143939	 1.7479522309	 0.2158765423	 0.236373
H	-0.1441111905	-0.3992823797	 0.9608946967	 0.098541
H	-0.0892015967	-2.7784894658	-0.435894218	 0.117757
H	-1.4366863695	-3.4441001734	 1.6371785639	 0.133006
H	-2.4667421071	-1.9415352562	 1.4111062288	 0.154188
H	-2.1733522144	-4.1790337851	-0.7080232216	 0.120064
H	-2.5127589717	-2.2929683497	-2.6860931152	 0.095286
56.4275	79.8241	99.2645	151.6149	177.1517	184.9456	309.3037	359.6658	474.5061	556.3273	603.9802	688.5675	812.9374	821.2621	829.0445	918.8804	1009.4706	1035.7197	1040.8075	1048.4383	1074.5583	1089.7469	1129.6762	1140.8216	1165.9124	1188.5207	1252.7462	1284.9137	1366.1442	1395.0757	1414.5333	1423.2816	1472.3621	1751.1138	1877.8675	2996.9846	3047.3902	3130.0345	3144.7509	3150.7854	3240.6901	3522.1691
N=COC1CC1OC=O	[NH][CH]O[C@H]1C[C@H]1OC=O	
InChI=1S/C5H7NO3/c6-2-8-4-1-5(4)9-3-7/h2-6H,1H2	InChI=1S/C5H7NO3/c6-2-8-4-1-5(4)9-3-7/h2-6H,1H2/t4-,5+/m0/s1
