17
gdb 67764	2.72509	2.10758	1.74454	1.9114	75.88	-0.2398	-0.0113	0.2285	859.9304	0.137695	-380.855866	-380.849043	-380.848099	-380.886474	28.135	
C	 0.019275313	 1.5587377634	 0.0275456265	-0.479246
C	 0.0063260828	 0.0443176988	 0.0508337631	 0.253508
C	-1.3439896873	-0.6635544769	-0.0175987272	-0.094651
C	-1.3272820325	-1.7894826534	 0.7160865368	-0.078023
C	-0.0662823705	-1.9056956715	 1.4566420587	-0.062266
C	 0.7043159912	-0.6689613588	 1.2393378614	-0.10292
N	 1.3386967532	-1.8531955942	 0.6533449187	-0.17471
C	 1.2366588863	-1.6267890737	-0.7316584589	 0.046739
N	 0.6452488437	-0.5723407539	-1.1544204901	-0.234753
H	 1.047314951	 1.9345310028	 0.032234315	 0.124417
H	-0.470771125	 1.9318831318	-0.8759234682	 0.13061
H	-0.5034350905	 1.965861537	 0.8989838998	 0.118416
H	-2.107594874	-0.3721619617	-0.7286458858	 0.114376
H	-2.0937374935	-2.5545251198	 0.7236122915	 0.106046
H	 0.0473077557	-2.5366546845	 2.3280406907	 0.115025
H	 1.2433813175	-0.1321904561	 2.0150588334	 0.095352
H	 1.6729304388	-2.3630483695	-1.4006345954	 0.122079
205.2407	232.7692	281.3597	341.1067	363.8198	386.7005	572.7154	607.3744	618.045	668.7955	782.6192	785.3545	821.6729	842.3994	871.3975	901.0811	930.2455	950.6742	958.0401	992.1532	1005.4529	1068.8217	1110.0867	1114.0389	1144.1864	1207.2912	1210.7256	1243.8084	1294.9972	1320.7572	1366.9382	1383.4247	1413.0001	1487.1765	1492.9552	1604.7382	1630.8441	3038.3233	3108.4782	3118.2147	3146.2927	3183.444	3198.1043	3210.9468	3224.4462
CC12C=CC3C1N3C=N2	C[C@]12C=C[C@@H]3[C@H]1N3[CH][N]2	
InChI=1S/C7H8N2/c1-7-3-2-5-6(7)9(5)4-8-7/h2-6H,1H3	InChI=1S/C7H8N2/c1-7-3-2-5-6(7)9(5)4-8-7/h2-6H,1H3/t5-,6-,7+,9?/m1/s1
