19
gdb 57668	2.14707	1.17449	0.92528	4.2966	78.27	-0.2675	0.0084	0.2758	1335.2531	0.154436	-423.021658	-423.011197	-423.010253	-423.057135	37.706	
C	-0.0481046674	 1.5577115438	 0.0150441467	-0.418458
C	 0.0571648506	 0.0298940055	 0.074468025	 0.324885
C	 0.7858426708	-0.4541862258	 1.3312428512	-0.419718
C	-1.3633197619	-0.5789434953	-0.0163895618	-0.370534
C	-1.4047544593	-2.0333535437	 0.054229152	 0.312075
C	-1.4492792272	-3.2320244053	 0.1218337204	-0.435623
O	 0.7066233925	-0.4689414191	-1.1330139492	-0.21881
C	 1.9867262066	-0.1626369366	-1.3949370312	 0.168058
O	 2.5431266331	-0.5365405979	-2.3859393103	-0.279593
H	 0.9352122746	 2.0319230741	 0.0729822901	 0.123826
H	-0.527946362	 1.8728851007	-0.9158322595	 0.135744
H	-0.6431003842	 1.9280380253	 0.8552256292	 0.126987
H	 0.2071173414	-0.1831162685	 2.2197051931	 0.126143
H	 0.8952085297	-1.5403633971	 1.3112082686	 0.15237
H	 1.7741556375	 0.0015637284	 1.4306850156	 0.120917
H	-1.9679985041	-0.1519196806	 0.7928936119	 0.130685
H	-1.8116793899	-0.2436656137	-0.9586293506	 0.144066
H	-1.4872988465	-4.2922678828	 0.1679592208	 0.200104
H	 2.4714606457	 0.4587085186	-0.6217435219	 0.076876
64.4183	93.2483	125.009	148.6649	205.4042	227.9067	246.1863	318.1947	331.8393	351.8615	361.1023	407.7549	455.3018	565.0791	598.7401	622.4449	654.4604	801.4938	887.0625	916.3198	935.5692	972.84	1012.2034	1028.6984	1046.2196	1157.9995	1182.8773	1200.8889	1252.2855	1297.4788	1353.5798	1402.5485	1416.0382	1435.6608	1457.3396	1480.9393	1488.035	1501.9158	1504.6613	1853.9807	2242.6086	2981.052	3032.1815	3044.1833	3050.91	3071.8053	3113.9022	3119.9432	3123.0817	3140.7556	3505.0724
CC(C)(CC#C)OC=O	CC(C)(CC#C)OC=O	
InChI=1S/C7H10O2/c1-4-5-7(2,3)9-6-8/h1,6H,5H2,2-3H3	InChI=1S/C7H10O2/c1-4-5-7(2,3)9-6-8/h1,6H,5H2,2-3H3
