17
gdb 38125	2.50968	2.27374	1.62181	1.2172	71.27	-0.2515	-0.0183	0.2332	861.6527	0.138546	-421.772991	-421.766723	-421.765779	-421.803175	26.751	
C	-0.0858938991	 1.5317958827	 0.094128452	-0.143229
O	 1.3123757778	 1.9122250089	-0.0028580762	-0.298494
C	 2.1634785459	 0.7353538256	 0.2044631352	 0.069492
C	 1.2192963393	-0.2569920003	 0.8890358368	-0.285979
C	 0.0875276707	 0.0364474554	-0.0920988745	 0.338174
O	-0.6807300924	-1.0140818491	-0.6447597617	-0.319886
C	 0.3202201827	-0.3508341143	-1.4798708988	 0.009935
C	 1.7380145386	-0.6971853353	-1.7897328767	-0.168985
C	 2.6250430416	 0.0066274241	-1.069830876	-0.030585
H	-0.4926857603	 1.8326344883	 1.0682555913	 0.097747
H	-0.6432903707	 2.0249405466	-0.7059274565	 0.114628
H	 3.0172927484	 1.0818900253	 0.7888971477	 0.079201
H	 1.5684630034	-1.2862172397	 0.8749782685	 0.119732
H	 0.952817036	 0.0398484259	 1.9085440556	 0.101713
H	-0.1685059101	 0.2456463764	-2.2510207709	 0.110437
H	 2.0170409351	-1.3161360024	-2.6364242068	 0.103793
H	 3.6890781232	-0.022732208	-1.2877300691	 0.102306
239.9709	299.2604	363.0799	394.1977	465.4673	495.8863	512.6059	610.1403	654.2525	722.2142	775.1973	831.914	864.7379	887.2944	914.3529	934.936	957.4549	979.5725	991.5199	1014.7832	1019.8077	1065.0052	1106.2194	1138.7241	1166.5031	1188.104	1212.9324	1253.9546	1305.4455	1328.9128	1345.9566	1359.5399	1380.1007	1482.9239	1496.1236	1527.2412	1645.554	3016.0204	3056.661	3095.1303	3097.1957	3101.1372	3163.3411	3165.8891	3187.5139
C1OC2CC11OC1C=C2	C1O[C@H]2C[C@]31O[C@@H]3[CH][CH]2	
InChI=1S/C7H8O2/c1-2-6-7(9-6)3-5(1)8-4-7/h1-2,5-6H,3-4H2	InChI=1S/C7H8O2/c1-2-6-7(9-6)3-5(1)8-4-7/h1-2,5-6H,3-4H2/t5-,6-,7-/m1/s1
