27
gdb 105515	1.71174	1.57331	1.08205	0.1196	94.72	-0.2732	0.076	0.3492	1340.9691	0.251572	-353.556576	-353.545948	-353.545004	-353.591451	41.293	
C	 0.8174661662	-0.4780266344	-1.0169977731	-0.392341
C	 0.068344477	-0.0450257353	 0.2485498886	-0.246497
C	-1.4445923333	-0.3274275853	 0.2487745319	 0.391642
C	-2.1894904145	 0.3568138793	 1.4479694458	-0.272116
C	-3.1287369417	 1.0886410443	 0.4522677222	-0.205522
C	-2.2372926418	 0.6127779627	-0.7258201743	-0.272184
C	-1.7677175411	-1.8349080005	 0.0679657874	-0.022969
C	-1.0766588787	-2.7129702865	 1.1255628917	-0.399711
C	-3.2714839163	-2.1621029939	 0.0456093149	-0.408992
H	 1.8542520255	-0.1280088535	-0.9920751576	 0.109862
H	 0.8431127371	-1.5660555174	-1.1304802312	 0.118252
H	 0.3504250666	-0.0626227479	-1.9169893752	 0.116538
H	 0.5325257526	-0.5060679972	 1.1288904254	 0.093706
H	 0.2008364979	 1.0365492335	 0.3805000461	 0.085832
H	-2.6715530513	-0.3066798976	 2.1705592965	 0.093219
H	-1.537884625	 1.0363231951	 2.0051288786	 0.090233
H	-4.1359835938	 0.6658748992	 0.4262887084	 0.09998
H	-3.22036731	 2.1698350982	 0.5806283836	 0.092668
H	-1.6061194727	 1.4100030586	-1.1293918553	 0.090436
H	-2.7474832794	 0.1367718027	-1.5670992988	 0.092341
H	-1.3711219897	-2.1222608243	-0.9159480207	 0.072064
H	-1.3609630659	-3.7625330402	 0.9972237145	 0.107226
H	 0.0134608899	-2.6593616922	 1.0669416241	 0.114558
H	-1.3709286661	-2.4162865951	 2.1391484163	 0.113818
H	-3.8142516897	-1.5951204939	-0.7150459889	 0.114574
H	-3.4177269068	-3.2247962967	-0.174004411	 0.108862
H	-3.7443263851	-1.9658351616	 1.0139152002	 0.11452
94.0398	113.9103	121.9356	196.3626	200.2905	238.9134	245.312	281.88	303.9134	371.293	396.5154	417.2901	421.0487	530.8589	604.8899	709.5658	779.1797	793.7626	832.3265	845.3417	915.1872	928.2655	946.6919	950.8116	959.5569	972.0045	999.7709	1039.0289	1052.1627	1074.7628	1117.8475	1166.8194	1186.9517	1198.7278	1207.8397	1220.3782	1259.0142	1266.316	1279.8401	1293.0165	1324.0955	1348.5835	1366.8325	1374.2456	1400.6123	1411.6205	1422.205	1473.6509	1479.6511	1484.9419	1490.9142	1500.6609	1502.0658	1507.5597	1508.9765	1513.5447	1521.1739	3003.7117	3018.2573	3030.5662	3033.7494	3036.6753	3048.8951	3050.8703	3053.8422	3064.3191	3089.5675	3090.1215	3095.1778	3097.8431	3099.0892	3105.1482	3111.7427	3114.7412	3118.0862
CCC1(CCC1)C(C)C	CCC1(CCC1)C(C)C	
InChI=1S/C9H18/c1-4-9(8(2)3)6-5-7-9/h8H,4-7H2,1-3H3	InChI=1S/C9H18/c1-4-9(8(2)3)6-5-7-9/h8H,4-7H2,1-3H3
