18
gdb 80014	2.88136	1.80862	1.6177	3.1844	73.76	-0.2344	0.0008	0.2352	901.6393	0.151257	-401.91092	-401.904482	-401.903538	-401.94117	28.199	
O	 0.1150307423	 1.3954526566	-0.0964717218	-0.462686
C	 0.0410110777	-0.0018806289	-0.0167908969	 0.166788
C	 0.4168179264	-0.6255892129	 1.3651214754	-0.120405
C	-0.7752096237	-0.1283430734	 2.1896526359	-0.098546
C	-1.848724746	-0.1173402129	 1.3854133556	-0.098544
C	-1.3988930128	-0.6069727355	 0.0048532441	-0.120405
C	-1.0825654945	-2.107531537	 0.2229208054	-0.024128
N	 0.2277148067	-2.5688790986	-0.3011370264	-0.348905
C	 0.098972615	-2.1196458478	 1.1080920155	-0.024128
H	-0.4217341144	 1.7486733353	 0.6248537587	 0.270475
H	 0.6474257708	-0.388027946	-0.8315286243	 0.116943
H	 1.4105766524	-0.396697831	 1.7496514546	 0.067874
H	-0.7473970628	 0.0990420305	 3.2478934293	 0.099113
H	-2.8690777834	 0.1207899708	 1.6584056951	 0.099113
H	-2.0440800198	-0.3612750618	-0.8384600315	 0.067874
H	-1.8951845397	-2.8188265303	 0.3258064898	 0.090003
H	 0.2321109116	-3.5864747124	-0.3209308958	 0.22956
H	 0.2191916342	-2.8405042047	 1.9098316073	 0.090003
260.5744	325.1442	340.5072	344.7175	474.0466	486.0189	508.0861	587.4283	686.9481	731.755	780.2584	802.5882	847.4002	854.9497	885.4089	900.8557	904.5506	931.1864	933.5647	949.6104	980.5163	995.5849	1083.6439	1106.7098	1111.8372	1115.9969	1160.4703	1189.3606	1200.2841	1236.6483	1265.448	1275.5727	1286.9837	1300.8569	1325.6771	1360.3816	1396.8821	1447.4259	1619.1293	3116.9743	3118.1842	3159.3704	3163.7502	3170.2678	3198.0061	3222.9229	3492.0402	3757.4209
OC1C2C=CC1C1NC21	O[C@H]1[C@H]2C=C[C@@H]1[C@H]1N[C@@H]21	
InChI=1S/C7H9NO/c9-7-3-1-2-4(7)6-5(3)8-6/h1-9H	InChI=1S/C7H9NO/c9-7-3-1-2-4(7)6-5(3)8-6/h1-9H/t3-,4+,5-,6+,7-
