22
gdb 63667	4.22964	0.70443	0.66719	1.392	90.13	-0.2269	0.0582	0.2851	1763.1966	0.190842	-367.15817	-367.147581	-367.146637	-367.193992	39.105	
C	-0.0278263772	 1.5236846853	-0.3653772782	-0.4544
C	-0.0054143243	 0.0340956144	-0.0721989352	 0.331606
C	-1.2464651535	-0.7047239369	-0.5353122445	-0.434726
C	 1.305453496	-0.6830272545	-0.0514581153	-0.297767
N	 0.5507750031	-0.4815528625	 1.1856925617	-0.104674
C	 1.1032031048	 0.4189099859	 2.1860415079	-0.136566
C	 1.8876702329	-0.4038063134	 3.2264653748	-0.348957
C	 2.4547563792	 0.4250297462	 4.2818209215	 0.296619
C	 2.908736209	 1.1350306502	 5.1391578898	-0.44822
H	 0.8967959341	 2.0268866701	-0.0759901611	 0.120503
H	-0.1721957206	 1.6897325522	-1.438289428	 0.121499
H	-0.8600759822	 2.0121184618	 0.1550788447	 0.120586
H	-1.3677633813	-0.6239891458	-1.6215578034	 0.111499
H	-1.1870723161	-1.7618506163	-0.2665496922	 0.123749
H	-2.1448426543	-0.2867327027	-0.0663566498	 0.115
H	 1.3863094107	-1.7090498957	-0.4030480558	 0.108742
H	 2.2038292534	-0.0831641877	-0.1993850285	 0.102651
H	 1.769861442	 1.1915859447	 1.7728917051	 0.095846
H	 0.2776579378	 0.9361495937	 2.6869972062	 0.11367
H	 1.2180097223	-1.1600611761	 3.6515815434	 0.139395
H	 2.687443016	-0.9543316671	 2.7149048679	 0.131281
H	 3.3148407579	 1.7493964741	 5.903761009	 0.192665
59.495	79.4409	91.7535	176.9421	205.1766	211.2795	245.7802	288.0775	354.8201	368.0501	400.7671	435.1252	494.9378	526.8744	616.6489	640.4583	703.9844	789.2057	791.4412	897.8175	918.6309	958.8641	973.3289	1015.677	1021.3992	1045.6478	1060.6801	1108.3594	1127.0105	1143.495	1201.7158	1234.6774	1281.5339	1302.466	1313.9695	1382.4806	1388.277	1411.2147	1421.8349	1473.3694	1479.2464	1486.4153	1494.7783	1500.0699	1507.275	1518.2006	2238.6734	2977.0147	3026.9932	3028.879	3033.7939	3058.9977	3076.8266	3079.0238	3086.4581	3091.1364	3123.6405	3127.0214	3164.8451	3507.9219
CC1(C)CN1CCC#C	CC1(C)CN1CCC#C	
InChI=1S/C8H13N/c1-4-5-6-9-7-8(9,2)3/h1H,5-7H2,2-3H3	InChI=1S/C8H13N/c1-4-5-6-9-7-8(9,2)3/h1H,5-7H2,2-3H3
