17
gdb 34562	3.63307	1.29286	1.2197	3.8136	79.6	-0.2454	-0.0485	0.1969	1057.6703	0.140505	-380.88867	-380.881827	-380.880883	-380.919967	27.43	
N	 0.0733127517	-1.1375366342	 0.0893312095	-0.343022
C	-0.0145962871	 0.0172826684	 0.0322386996	 0.185638
C	-0.0633019071	 1.4270208059	-0.053810107	 0.222146
C	-1.1362671657	 2.2348863538	-0.0249638861	-0.18329
C	-0.5888082844	 3.6580656923	 0.0175331347	-0.062157
C	-0.012905286	 3.8532364578	 1.459370007	-0.190807
C	 1.2398345948	 2.9281135843	 1.422891985	-0.193737
C	 1.1670690378	 2.3625726487	-0.0283168192	-0.126528
N	 0.6819671877	 3.5616158314	-0.7358164366	-0.280152
H	-2.1725594806	 1.9422016827	 0.0811938856	 0.126947
H	-1.2539890542	 4.44849453	-0.3275950169	 0.081091
H	 0.2688449132	 4.8982208288	 1.6025917759	 0.117264
H	-0.7332828008	 3.5791306335	 2.2321831652	 0.107654
H	 2.1592356396	 3.5029080706	 1.5482682358	 0.116591
H	 1.2206573117	 2.1372466201	 2.1746700437	 0.114781
H	 2.0930905261	 1.9473141385	-0.4221785092	 0.088766
H	 0.4843138433	 3.3283136876	-1.707881757	 0.218814
117.4982	157.7343	264.5442	376.109	448.5545	488.8905	559.9204	570.8744	631.1226	727.2956	801.4164	824.6207	853.3558	869.4329	887.0543	901.1986	920.5998	933.8644	978.0349	1044.6806	1065.8442	1069.1038	1132.7801	1166.0004	1194.8327	1218.5425	1233.4427	1243.8047	1289.1461	1308.1978	1316.8213	1343.4023	1393.4044	1484.3384	1502.5393	1646.0432	2329.5141	3074.2814	3083.1627	3118.8697	3128.6125	3135.3762	3139.083	3226.8003	3473.9049
N#CC1=CC2CCC1N2	N#CC1=C[C@H]2CC[C@@H]1N2	
InChI=1S/C7H8N2/c8-4-5-3-6-1-2-7(5)9-6/h3,6-7,9H,1-2H2	InChI=1S/C7H8N2/c8-4-5-3-6-1-2-7(5)9-6/h3,6-7,9H,1-2H2/t6-,7+/m1/s1
