23
gdb 94840	3.41252	1.10131	0.96588	1.386	85.47	-0.2564	0.0796	0.336	1310.9626	0.207621	-388.302676	-388.294041	-388.293096	-388.335433	35.099	
O	-0.10930641	 1.4559220821	 0.0708885324	-0.443516
C	 0.0113943812	 0.0398991435	 0.0099218093	 0.150206
C	 0.791847689	-0.5246563761	 1.2033684656	-0.225775
C	 0.824957496	-2.0618104269	 1.1732918579	-0.28681
C	-0.5808601569	-2.636035277	 1.0946154301	 0.422174
C	-0.8082053734	-4.0649076607	 1.5092686675	-0.338634
C	-1.3041327368	-2.9378473989	 2.3871217264	-0.301173
C	-1.3835905011	-2.0689311992	-0.0659792366	-0.291204
C	-1.4046536774	-0.5325448108	-0.0339560855	-0.191628
H	 0.7762773196	 1.8252931847	 0.1482759535	 0.276226
H	 0.534106195	-0.2536739141	-0.9187429587	 0.056269
H	 1.8141069963	-0.1230802309	 1.2043686021	 0.07616
H	 0.3079021207	-0.1762826624	 2.1244297459	 0.103943
H	 1.4023674689	-2.3960587959	 0.2991229271	 0.092767
H	 1.3473345978	-2.4478074085	 2.0557259739	 0.09009
H	-1.5436817751	-4.6467215219	 0.9627013833	 0.107072
H	 0.0441651807	-4.6419695802	 1.8537904195	 0.106222
H	-0.7861013789	-2.7564177135	 3.3235165863	 0.106567
H	-2.3739423495	-2.7608582752	 2.4332520384	 0.108055
H	-0.9385438657	-2.4076695592	-1.0128105855	 0.092374
H	-2.4068674847	-2.4601276106	-0.0480372442	 0.090488
H	-1.9417202242	-0.1821822444	 0.8562865106	 0.102883
H	-1.9314923014	-0.1302639639	-0.9053575792	 0.097243
92.6607	186.2461	219.8596	269.2726	293.7344	331.1354	350.3779	371.9115	413.0714	478.3183	480.4238	594.3017	692.1777	784.3131	799.1633	817.9149	894.3812	909.3354	912.8392	945.7291	975.7244	988.8768	1006.5724	1022.3989	1051.9003	1076.6792	1078.402	1103.3016	1132.4139	1140.262	1182.4139	1190.9355	1209.3883	1255.6364	1293.7736	1315.8528	1329.5781	1338.7871	1357.8393	1364.2539	1390.3504	1407.0818	1439.9187	1467.0691	1478.6572	1484.1126	1488.6352	1502.9999	1507.8063	2931.0011	3001.2893	3005.8918	3013.2152	3033.1155	3055.4578	3061.0274	3065.1242	3081.7036	3120.7746	3125.4503	3197.5985	3212.2778	3812.5351
OC1CCC2(CC2)CC1	OC1CCC2(CC2)CC1	
InChI=1S/C8H14O/c9-7-1-3-8(4-2-7)5-6-8/h7,9H,1-6H2	InChI=1S/C8H14O/c9-7-1-3-8(4-2-7)5-6-8/h7,9H,1-6H2
