13
gdb 29546	3.42174	1.79795	1.17864	4.88	64.82	-0.2144	0.0158	0.2302	938.4045	0.091576	-452.768706	-452.762101	-452.761157	-452.799559	25.674	
O	-0.1213313231	 1.3564538669	 0.0100246911	-0.418792
C	 0.0281006539	 0.0204144947	 0.0025900866	 0.345541
C	 1.0947622834	-0.8121715738	-0.006843869	-0.214275
O	 0.6691485831	-2.1409058787	-0.0115113392	-0.220612
C	-0.6764183332	-2.0861463003	-0.0046522265	 0.511968
N	-1.6307997648	-2.9693392764	-0.0043748987	-0.396299
C	-2.7703712415	-2.1752970098	 0.0054392329	-0.085984
C	-2.4877795911	-0.8295752007	 0.0105833895	-0.164253
N	-1.0994460037	-0.7834454971	 0.0039740614	-0.083362
H	 0.7456055318	 1.7764091146	 0.0087375411	 0.318415
H	 2.155655811	-0.6433172809	-0.0111983487	 0.149726
H	-3.750017942	-2.628513929	 0.0081177494	 0.115808
H	-3.1003372739	 0.0537228603	 0.0179481	 0.142119
171.9305	242.3664	248.3169	287.7682	411.7023	579.1636	586.7826	613.1693	636.4137	644.7721	678.6204	732.7073	749.8142	787.1714	850.1713	951.5878	1057.758	1102.3102	1117.407	1165.6099	1203.4721	1255.9248	1292.2329	1346.5338	1419.685	1498.9545	1536.1513	1625.8405	1705.8224	3253.8406	3304.6425	3308.1722	3830.5789
OC1=COC2=NC=CN12	Oc1coc2nccn12	
InChI=1S/C5H4N2O2/c8-4-3-9-5-6-1-2-7(4)5/h1-3,8H	InChI=1S/C5H4N2O2/c8-4-3-9-5-6-1-2-7(4)5/h1-3,8H
