23
gdb 107278	3.1241	1.27432	1.11435	0.2854	88.82	-0.2263	0.0824	0.3087	1227.738	0.206767	-351.110307	-351.101839	-351.100895	-351.143204	34.09	
C	 0.1197373495	 1.513242226	-0.2049805179	-0.371312
C	-0.1066268414	 0.0151879598	 0.0431180998	-0.30099
C	 0.6322782522	-0.4951612873	 1.2514735679	 0.393445
C	 2.0703349381	-0.9331384046	 1.1972126636	-0.346261
C	 1.0332671735	-1.9256645431	 1.6534581129	-0.135534
C	 0.5723844381	-1.6688104874	 3.1043165485	-0.006493
C	 1.5915956578	-1.1164065355	 4.148305472	-0.24178
C	 1.1960735924	 0.3454823253	 3.752368534	-0.246153
C	 0.1804451052	-0.2160545835	 2.7115183062	-0.071743
H	 1.1794145576	 1.7255595683	-0.3805076675	 0.116944
H	-0.4450964334	 1.8617225533	-1.0753762304	 0.108431
H	-0.1981803749	 2.107763765	 0.6583760611	 0.117269
H	-1.1819733903	-0.1753366638	 0.1627544079	 0.092476
H	 0.2085188478	-0.5557068662	-0.8397974755	 0.092642
H	 2.4453738985	-1.1095858154	 0.192824048	 0.104636
H	 2.8259353527	-0.5439956179	 1.8727392864	 0.10707
H	 0.8789805543	-2.8541331567	 1.1139440243	 0.07756
H	-0.1778487234	-2.3723992188	 3.4663474731	 0.062525
H	 1.3311175116	-1.3689947399	 5.1791503433	 0.095776
H	 2.636461464	-1.3943604554	 3.986442587	 0.098651
H	 0.716684242	 0.8970216073	 4.5650836034	 0.095525
H	 1.9970217308	 0.9703616188	 3.3480109687	 0.098115
H	-0.8531310527	 0.1256804816	 2.789734283	 0.059201
83.815	117.5125	198.4727	231.2207	294.2133	316.9196	354.424	414.4262	507.2885	631.3579	679.1425	728.0121	782.4074	793.7056	814.7963	831.8942	878.247	897.9321	912.4785	950.8091	964.0264	977.0143	998.3758	1016.4131	1022.8783	1061.1324	1075.056	1094.0827	1107.5355	1131.4827	1148.8315	1198.6231	1226.1673	1232.9469	1240.916	1249.3738	1269.4186	1299.0637	1307.443	1328.6115	1353.5966	1401.6041	1410.8009	1474.1764	1479.1563	1488.348	1498.2478	1506.9758	1507.25	3008.2637	3031.9294	3042.9621	3053.4575	3059.5815	3084.716	3096.5744	3099.9609	3101.2709	3104.5761	3116.0094	3118.1379	3161.0706	3193.0087
CCC12CC1C1CCC21	CC[C@]12C[C@H]1[C@H]1CC[C@@H]21	
InChI=1S/C9H14/c1-2-9-5-8(9)6-3-4-7(6)9/h6-8H,2-5H2,1H3	InChI=1S/C9H14/c1-2-9-5-8(9)6-3-4-7(6)9/h6-8H,2-5H2,1H3/t6-,7+,8-,9+/m0/s1
