20
gdb 65281	2.64485	1.31272	1.06888	4.2798	84.28	-0.2685	0.0346	0.3031	1208.3739	0.170488	-366.012779	-366.00364	-366.002695	-366.046792	34.165	
C	-0.052699567	 1.5252327981	 0.0070305001	-0.463132
C	 0.0094960473	 0.00612103	 0.0030517693	 0.096682
C	 1.3476148949	-0.687361729	-0.244002136	-0.378665
C	 0.7434033626	-0.7220842261	 1.1215041294	 0.337708
C	 1.3246780501	-0.1067581803	 2.4033564676	-0.297616
C	 1.1446049177	-1.4935567645	 3.0915184459	-0.212831
C	 0.2949696033	-1.9788405835	 1.87905243	-0.293897
C	-1.1657710431	-0.6497884081	-0.5110654276	 0.24823
N	-2.1199079739	-1.17433625	-0.9044592888	-0.358796
H	 0.8640327403	 1.9390103097	 0.4351347888	 0.126342
H	-0.1615683303	 1.916259222	-1.0089645257	 0.138203
H	-0.8984487031	 1.8844460359	 0.6012208071	 0.136678
H	 1.3433626623	-1.5987680127	-0.8324466852	 0.13434
H	 2.194772781	-0.0324640516	-0.4247344893	 0.121611
H	 2.3447722671	 0.2806621587	 2.3393803187	 0.105215
H	 0.6845801781	 0.6692850234	 2.8335990004	 0.109867
H	 2.0871909423	-2.0367516617	 3.1872538199	 0.110274
H	 0.645892729	-1.4896151659	 4.0622233396	 0.107274
H	-0.7800279955	-1.9902135264	 2.0797371362	 0.122262
H	 0.572745547	-2.9381533779	 1.4359618096	 0.110253
66.3647	113.0528	140.598	183.8217	204.8426	231.6479	357.2829	377.5483	410.3567	472.1581	575.7527	626.5141	678.847	721.6583	789.0636	845.483	869.0556	905.3512	935.1513	940.6613	948.0275	981.133	1056.5698	1067.4402	1105.1709	1117.1246	1165.3187	1182.3252	1217.2036	1236.9263	1252.6172	1269.5844	1281.1947	1296.3706	1392.5394	1414.8382	1476.0278	1476.3781	1482.8334	1486.6366	1500.898	1506.4589	2342.8178	3041.15	3051.0826	3060.2885	3074.0774	3098.3327	3107.5009	3109.8659	3120.4114	3125.0685	3130.9557	3215.4191
CC1(CC11CCC1)C#N	C[C@]1(CC21CCC2)C#N	
InChI=1S/C8H11N/c1-7(6-9)5-8(7)3-2-4-8/h2-5H2,1H3	InChI=1S/C8H11N/c1-7(6-9)5-8(7)3-2-4-8/h2-5H2,1H3/t7-/m0/s1
