23
gdb 111277	2.92761	1.158	0.99233	1.0613	85.69	-0.242	0.0756	0.3176	1313.4685	0.204661	-388.264381	-388.254426	-388.253481	-388.298675	37.817	
C	-0.6020333625	 1.5794259769	-0.266203725	-0.415956
C	-0.214423748	 0.1064342974	-0.1835014966	-0.045374
C	 1.0155978087	-0.4431382035	-1.0047398233	 0.017584
C	 1.8272419577	 0.4902959752	-1.8849070786	-0.097179
O	 1.024813793	 0.8261972554	-3.0129362265	-0.422949
C	 1.6397049655	-0.9409934926	 0.3029494845	-0.135808
C	 1.7971376181	 0.1807607541	 1.2988059737	-0.337261
C	 0.4373576477	-0.4319210344	 1.1080130205	 0.368386
C	-0.3234668346	-1.0910471784	 2.2235595465	-0.499333
H	 0.2105498796	 2.2404963481	 0.051867125	 0.105802
H	-0.864431309	 1.8479106836	-1.2934124911	 0.129249
H	-1.4636013275	 1.7905895684	 0.3769967755	 0.106233
H	-1.0927896523	-0.5002364465	-0.4275190336	 0.069258
H	 0.6922604831	-1.2802842213	-1.6306415153	 0.077914
H	 2.1250257939	 1.3932414048	-1.3322077602	 0.08184
H	 2.7540865159	-0.0205614591	-2.1947716039	 0.083692
H	 1.5060337242	 1.4670804074	-3.5442555405	 0.285013
H	 2.1818225685	-1.8735740431	 0.4159945625	 0.077853
H	 2.2957000788	-0.1002783894	 2.2218764437	 0.105037
H	 2.0200237743	 1.1953818158	 0.9799621081	 0.100744
H	-0.913591568	-0.3607979872	 2.7913029854	 0.117849
H	-1.0175712699	-1.8485728638	 1.8405754029	 0.113451
H	 0.3530467629	-1.5842069078	 2.929901266	 0.113956
97.2446	119.0394	175.151	190.4178	201.8593	222.7767	259.4621	275.3091	324.0628	334.4315	457.4397	488.0027	559.0431	632.2278	688.1021	757.7519	806.2479	883.4521	913.569	960.1875	974.5338	1002.3919	1005.9734	1033.5055	1058.0093	1066.3203	1080.3064	1107.0615	1118.3245	1140.6346	1151.1166	1203.8607	1246.8678	1250.3495	1263.6248	1273.9133	1306.8408	1359.7012	1372.9085	1399.3365	1406.7434	1424.0822	1457.6031	1485.5147	1489.7209	1497.3179	1499.6457	1506.489	1519.3459	2963.2435	3001.8831	3015.7101	3032.89	3039.6436	3064.7296	3072.4934	3089.6626	3094.6052	3112.2297	3114.3858	3165.2187	3192.1596	3829.164
CC1C(CO)C2CC12C	C[C@H]1[C@@H](CO)[C@H]2C[C@@]12C	
InChI=1S/C8H14O/c1-5-6(4-9)7-3-8(5,7)2/h5-7,9H,3-4H2,1-2H3	InChI=1S/C8H14O/c1-5-6(4-9)7-3-8(5,7)2/h5-7,9H,3-4H2,1-2H3/t5-,6+,7+,8-/m0/s1
