21
gdb 86305	1.88277	1.78253	1.14037	2.5296	77.92	-0.229	0.0614	0.2903	1165.6499	0.181886	-424.201025	-424.191888	-424.190944	-424.234882	34.693	
C	-0.785797539	 1.3064452348	-0.2190161172	-0.42283
C	 0.0547752519	 0.040087973	-0.214077925	-0.021048
C	 1.501351938	 0.0656710929	-0.7832531301	-0.30391
C	 1.897847276	-0.9543944997	 0.3146419318	 0.090902
O	 3.1713930709	-0.915063669	 0.9066261271	-0.431214
C	 0.637743024	-0.520442739	 1.1105623386	 0.395362
C	 0.8104064854	 0.3409114859	 2.3810115841	-0.357372
C	 0.0176535224	-0.7850768148	 3.0710522344	-0.072621
O	-0.1127362928	-1.5102572886	 1.830938083	-0.318214
H	-0.2456596791	 2.1516577496	 0.2220408003	 0.110366
H	-1.0603812534	 1.5908567546	-1.2404127182	 0.11865
H	-1.7140327177	 1.167277414	 0.3461570011	 0.121654
H	-0.5048417496	-0.7791842525	-0.6804163909	 0.089644
H	 1.6587380634	-0.2138109852	-1.8264798896	 0.106566
H	 1.9771779518	 1.0383098893	-0.6049221823	 0.088561
H	 1.7532424073	-1.9833066866	-0.0298417873	 0.103178
H	 3.4015458601	 0.0071902228	 1.059443988	 0.278829
H	 1.8435362169	 0.447652684	 2.7175889216	 0.103193
H	 0.3262270987	 1.3182454505	 2.3673854762	 0.111049
H	 0.5691608733	-1.3589182075	 3.8246745073	 0.107697
H	-0.9583459084	-0.5006629185	 3.4818912472	 0.101557
76.9953	91.8003	202.92	210.2207	233.4463	263.0754	291.868	299.8292	448.5984	485.2756	511.8592	541.4376	652.1175	786.4341	824.2256	861.0815	876.1402	882.0934	936.6292	978.8727	990.716	1030.7962	1057.4896	1069.6655	1111.1037	1149.6501	1157.4337	1165.2144	1172.4424	1221.7942	1227.1361	1237.5003	1253.7535	1279.0548	1285.8274	1316.16	1355.9305	1377.4434	1408.9364	1435.036	1481.0046	1487.4734	1497.436	1500.6935	1529.8826	3021.0726	3026.1739	3031.0086	3043.3563	3062.6126	3070.623	3078.893	3094.0683	3094.7819	3114.1345	3134.6059	3812.9911
CC1CC(O)C11CCO1	C[C@H]1C[C@@H](O)[C@]21CCO2	
InChI=1S/C7H12O2/c1-5-4-6(8)7(5)2-3-9-7/h5-6,8H,2-4H2,1H3	InChI=1S/C7H12O2/c1-5-4-6(8)7(5)2-3-9-7/h5-6,8H,2-4H2,1H3/t5-,6+,7+/m0/s1
