19
gdb 96688	2.10539	1.49898	0.98539	2.0864	81.18	-0.2306	-0.0528	0.1777	1250.5579	0.156439	-419.190617	-419.180615	-419.179671	-419.226458	35.096	
C	-0.7078373976	 1.1748108414	 0.1427115181	-0.315002
N	-0.0711826744	-0.1197948714	-0.0013086862	-0.25935
C	 0.8612293952	-0.5293835482	 0.7553676795	 0.230756
N	 1.5128011058	-1.7516239865	 0.4845099071	-0.100027
C	 1.1484387462	-2.9495156654	 1.2527743051	-0.238392
C	 0.782545624	-2.8068263222	-0.1873557961	-0.211676
C	 1.4627461409	 0.2131772627	 1.9461772988	 0.320801
C	 2.9320441453	-0.0119527591	 2.2344089131	-0.473939
O	 0.778419652	 0.9585446612	 2.6114294858	-0.294072
H	-0.9653972514	 1.5422158963	-0.8560386705	 0.118024
H	-1.6481347447	 1.0529839237	 0.6940115612	 0.134608
H	-0.1170322606	 1.9287958963	 0.6711046107	 0.129586
H	 1.9758989469	-3.5853978242	 1.5541811634	 0.123477
H	 0.3462984591	-2.8548678875	 1.9810627636	 0.131614
H	-0.2537898408	-2.597577382	-0.4338285138	 0.141693
H	 1.343652534	-3.3518660782	-0.9404427257	 0.124689
H	 3.1075630564	-1.0496407339	 2.5350776867	 0.150413
H	 3.5290074891	 0.1511314115	 1.3316031947	 0.149705
H	 3.2480836046	 0.6626545956	 3.0312282745	 0.137092
34.8406	85.3879	121.6751	144.9814	158.2054	195.1435	254.1389	286.6521	341.8574	426.0466	445.8109	512.6219	578.2274	668.8101	719.2559	818.0231	888.445	920.1902	966.9667	1022.3211	1032.0346	1072.6394	1091.3046	1114.3841	1124.8149	1133.9448	1171.0381	1175.6663	1192.5506	1232.3716	1359.1419	1382.1192	1441.2419	1453.6517	1466.5175	1475.5121	1489.8914	1498.2911	1515.3184	1708.5362	1795.7806	3022.6931	3046.9928	3078.8441	3101.5058	3105.8363	3110.8273	3123.0375	3153.3781	3193.9754	3215.2811
CN=C(N1CC1)C(C)=O	CN=C(N1CC1)C(=O)C	
InChI=1S/C6H10N2O/c1-5(9)6(7-2)8-3-4-8/h3-4H2,1-2H3	InChI=1S/C6H10N2O/c1-5(9)6(7-2)8-3-4-8/h3-4H2,1-2H3
