13
gdb 132312	2.00752	1.85577	0.96485	5.0001	64.95	-0.2285	-0.0241	0.2044	1090.7278	0.0908	-494.117743	-494.110462	-494.109518	-494.149476	27.925	
N	-0.0188338825	 1.3551792952	 0.1421884448	-0.566825
C	-0.0348642055	-0.0058001789	 0.0493109886	 0.510019
N	-1.1900158222	-0.6280475518	 0.0326477348	-0.391156
C	-1.1204386433	-1.9702718459	-0.0009780777	 0.350536
F	-2.3069005849	-2.5599676786	-0.0083049877	-0.060757
C	 0.0039715653	-2.7398286468	-0.0344426702	-0.419361
C	 1.2820584127	-2.0858336302	-0.0223294343	 0.43356
O	 2.3958615	-2.5704329904	-0.0401703661	-0.390939
N	 1.1510486764	-0.6603871081	 0.0212538762	-0.399233
H	 0.7829554374	 1.8622215895	-0.1952600674	 0.266754
H	-0.9142631349	 1.7917561875	-0.0130174486	 0.280958
H	-0.0390445608	-3.8181688478	-0.0651013579	 0.125804
H	 2.0302667723	-0.1637187339	 0.0713063257	 0.260641
164.1956	192.53	217.3912	332.7423	345.9577	374.1461	500.632	510.1706	540.9101	598.2124	631.5215	641.9671	698.3515	737.9524	774.7439	829.1233	943.5175	1001.0354	1061.2347	1140.6397	1194.2035	1238.1243	1330.1799	1458.6663	1521.9761	1604.4769	1644.9656	1662.6687	1808.4462	3248.2933	3593.6938	3601.2535	3712.619
NC1=NC(F)=CC(=O)N1	Nc1nc(F)cc(=O)[nH]1	
InChI=1S/C4H4FN3O/c5-2-1-3(9)8-4(6)7-2/h1H,(H3,6,7,8,9)	InChI=1S/C4H4FN3O/c5-2-1-3(9)8-4(6)7-2/h1H,(H3,6,7,8,9)
