18
gdb 115440	4.57407	0.90019	0.85244	4.9941	71.83	-0.2808	0.0162	0.297	1353.9139	0.148358	-439.09392	-439.085056	-439.084112	-439.128542	31.86	
O	-0.0712022624	 1.3529585753	-0.3197318673	-0.421471
C	-0.0085904404	-0.0598153744	-0.2182760014	-0.086363
C	-1.38091367	-0.5546235508	 0.2335808603	 0.021594
C	-2.4503231977	-0.2923056221	-0.8386873072	-0.10808
O	-2.4116507447	-1.4466451935	-1.6829922264	-0.238874
C	-2.2748743171	-2.5670293184	-0.8308508474	-0.024821
C	-1.4108306194	-2.0975145682	 0.3792911815	-0.292322
C	-3.5986667566	-3.0654257167	-0.3938523666	 0.26861
N	-4.6309619519	-3.4534858252	-0.0482994524	-0.323771
H	 0.7551653546	 1.6698446063	-0.6952885184	 0.291783
H	 0.2406844915	-0.5233855398	-1.1863993072	 0.097864
H	 0.7549793485	-0.3759587949	 0.5100591049	 0.090282
H	-1.6348101977	-0.0543645123	 1.1716495263	 0.095936
H	-3.4484206968	-0.1797041652	-0.3927122917	 0.11071
H	-2.2322562508	 0.5802651818	-1.4553226929	 0.134351
H	-1.7936620163	-3.3621673075	-1.407114795	 0.131502
H	-0.4080907772	-2.5279004124	 0.3128686742	 0.11737
H	-1.8455183157	-2.417228672	 1.3269708967	 0.135698
30.2331	105.0498	147.3536	182.1577	244.299	256.4165	293.3843	354.2972	437.0786	531.772	586.162	711.5082	771.6156	796.195	843.5789	917.5518	932.432	963.358	995.7841	1030.2714	1058.7766	1088.8191	1105.0568	1147.4987	1188.7545	1233.8877	1239.5201	1270.9229	1275.5666	1307.9598	1314.1411	1355.8089	1373.5093	1382.3319	1454.9118	1496.3794	1517.7391	1521.5561	2352.2324	2966.8725	2999.5145	3010.6547	3068.7961	3078.5824	3084.0365	3128.3588	3133.7967	3835.2307
OCC1COC(C1)C#N	OC[C@H]1CO[C@@H](C1)C#N	
InChI=1S/C6H9NO2/c7-2-6-1-5(3-8)4-9-6/h5-6,8H,1,3-4H2	InChI=1S/C6H9NO2/c7-2-6-1-5(3-8)4-9-6/h5-6,8H,1,3-4H2/t5-,6-/m0/s1
