18
gdb 34908	2.7819	1.69122	1.33589	1.6641	79.49	-0.2259	0.0438	0.2697	997.4236	0.148558	-364.733064	-364.725612	-364.724668	-364.764723	30.34	
C	 0.0154204747	-1.2313554181	 0.0357168986	-0.481511
C	 0.0036700872	-0.0293485254	 0.0284863471	 0.366619
C	-0.0118439197	 1.4301093029	 0.0379510048	-0.190313
C	-0.7504082915	 2.0479337654	 1.2439746698	-0.035884
C	-0.2877535306	 1.7236959176	 2.6368855159	-0.30624
C	 0.2366689778	 2.9579336866	 1.9425997278	-0.041714
C	 1.5251876276	 2.8955287	 1.1534582214	-0.025051
C	 2.2893248804	 1.6270556984	 1.0421502206	-0.2531
N	 1.3627353006	 2.0199714204	-0.0301478928	-0.100598
H	 0.0223676862	-2.2932367055	 0.0292834677	 0.197335
H	-0.5221105457	 1.7735515743	-0.8699722005	 0.115906
H	-1.7847746104	 2.3333817421	 1.0885313274	 0.094649
H	-1.0041978692	 1.8801677493	 3.4368444986	 0.114267
H	 0.3611708885	 0.8714681817	 2.7981208864	 0.125834
H	-0.0625688759	 3.9303251118	 2.3156868148	 0.090126
H	 2.0272398547	 3.8433791312	 0.9785342863	 0.091182
H	 3.3361318557	 1.6468692442	 0.7494125231	 0.114404
H	 2.0287944396	 0.791512893	 1.6826775628	 0.12409
108.8854	139.7841	265.4417	287.0271	393.9243	470.3601	513.5665	534.1383	619.6844	648.2575	673.7773	682.9726	736.4516	797.5929	822.1332	835.4996	848.5688	936.0605	982.0885	997.036	1027.0129	1042.1828	1047.0535	1072.5711	1095.6166	1103.4749	1112.3872	1119.9774	1157.894	1205.3038	1259.545	1299.6341	1329.3957	1341.591	1372.6912	1394.8536	1486.8577	1519.7125	2235.0541	3029.1207	3113.7721	3136.7156	3139.4666	3167.9536	3180.9079	3200.4737	3221.419	3503.5709
C#CC1C2CC2C2CN12	C#C[C@H]1[C@H]2C[C@H]2[C@H]2CN12	
InChI=1S/C8H9N/c1-2-7-5-3-6(5)8-4-9(7)8/h1,5-8H,3-4H2	InChI=1S/C8H9N/c1-2-7-5-3-6(5)8-4-9(7)8/h1,5-8H,3-4H2/t5-,6+,7-,8+,9?/m0/s1
