16
gdb 30259	2.70758	1.54497	1.03358	2.2264	73.93	-0.1933	0.0328	0.2261	1107.8957	0.125216	-437.871402	-437.863478	-437.862534	-437.903896	30.196	
O	 0.3897003369	 1.2804419608	-0.3677499688	-0.424721
C	 0.0689323961	-0.0482217869	-0.0499097578	-0.001308
C	 0.3027991486	-0.5290222063	 1.447045998	-0.207237
N	-1.1465686775	-0.7986943002	 1.4988688669	 0.01389
C	-2.1790012286	-1.5149866065	 2.0043744224	-0.132618
C	-3.1475482652	-1.548519032	 1.0031182668	-0.27005
C	-2.6342075882	-0.8934619019	-0.1569596171	 0.149011
O	-3.2378377264	-0.7336068175	-1.3679936326	-0.440647
C	-1.3807310532	-0.4287736371	 0.1931887044	 0.168546
H	-0.2689709787	 1.8451728769	 0.0519272838	 0.282251
H	 0.6036235643	-0.6678638251	-0.7749522307	 0.109045
H	 0.9227968084	-1.4233389338	 1.5575643562	 0.126039
H	 0.6381111449	 0.2521917539	 2.1349383469	 0.119309
H	-2.2008943254	-1.8978178285	 3.0121215661	 0.121984
H	-4.137230622	-1.9728362113	 1.1028045907	 0.089265
H	-4.1047122441	-1.1483296245	-1.3331238654	 0.297241
102.0519	122.4852	217.9363	248.6941	315.5372	350.2087	407.1094	454.6563	539.9351	620.0569	639.3866	660.8659	709.9435	758.3286	767.2232	794.5175	855.2966	1002.0825	1031.0672	1071.2638	1086.8118	1131.6326	1141.4258	1194.9716	1233.8637	1265.2873	1290.8387	1299.2836	1339.8346	1417.5236	1425.5434	1454.3338	1488.8172	1510.081	1650.2588	3050.1909	3077.7637	3110.5845	3221.9004	3262.6929	3801.1523	3840.0347
OC1CN2C=CC(O)=C12	O[C@H]1Cn2ccc(O)c12	
InChI=1S/C6H7NO2/c8-4-1-2-7-3-5(9)6(4)7/h1-2,5,8-9H,3H2	InChI=1S/C6H7NO2/c8-4-1-2-7-3-5(9)6(4)7/h1-2,5,8-9H,3H2/t5-/m0/s1
