18
gdb 7468	3.77051	1.39478	1.27696	1.5909	72.7	-0.2473	0.0437	0.291	1020.4339	0.151844	-347.751443	-347.742859	-347.741915	-347.784641	31.533	
C	-0.0637829298	 1.6508956157	 0.1547764512	-0.467435
C	 0.0214141868	 0.1351589578	 0.0432115288	 0.290403
C	-1.3545593963	-0.5107107657	-0.2272575652	-0.412511
C	-1.9442255149	-0.1064668098	-1.4984617688	 0.30518
C	-2.4056000028	 0.2348566678	-2.5550169288	-0.446179
C	 1.1337051122	-0.4480081746	-0.8651514866	-0.105871
O	 1.6325897374	-1.2766522956	 0.2060281292	-0.274901
C	 0.7889932148	-0.6104724663	 1.1645354218	-0.119231
H	 0.9235832803	 2.0871281353	 0.3346132877	 0.117444
H	-0.4699857376	 2.087932395	-0.7625140445	 0.135942
H	-0.7179830844	 1.9473057046	 0.9830821583	 0.116021
H	-1.2422386845	-1.6022561131	-0.2119016102	 0.139131
H	-2.0386028335	-0.2583543687	 0.5942489332	 0.127957
H	-2.8254545639	 0.5289692812	-3.4849176729	 0.197546
H	 0.8062816096	-1.036234943	-1.729660978	 0.110274
H	 1.879946644	 0.2881532977	-1.1936288514	 0.09477
H	 1.3635731635	 0.0485715832	 1.8301886868	 0.092716
H	 0.2138270092	-1.3186540214	 1.7743399296	 0.098743
71.3465	89.1359	141.31	222.6182	296.4963	320.5733	355.5779	377.972	387.0971	508.3742	622.4778	642.4572	688.62	841.4435	887.5541	904.2325	913.5079	975.3603	983.431	1011.9701	1019.1674	1034.8438	1156.4365	1159.66	1163.5326	1185.2594	1273.6863	1300.9328	1309.9284	1339.923	1386.3408	1416.0074	1468.5335	1493.246	1498.6852	1513.2964	1537.0894	2235.2974	2995.0243	3007.8185	3013.9948	3030.0262	3044.7498	3050.5038	3064.1082	3095.1929	3111.0861	3505.7982
CC1(CC#C)COC1	CC1(CC#C)COC1	
InChI=1S/C7H10O/c1-3-4-7(2)5-8-6-7/h1H,4-6H2,2H3	InChI=1S/C7H10O/c1-3-4-7(2)5-8-6-7/h1H,4-6H2,2H3
