20
gdb 63856	2.23894	1.61165	1.26705	1.7377	86.04	-0.2305	0.02	0.2505	1107.9556	0.168904	-365.941103	-365.931966	-365.931022	-365.974157	35.821	
C	-0.0266640007	 1.5909818475	-0.0383605676	-0.457157
C	 0.0195120138	 0.0655149341	 0.0154710095	 0.258707
C	-1.3705527276	-0.5283498012	-0.2170288506	-0.44891
C	 1.1065620427	-0.6653948803	-0.8282123956	-0.208091
N	 1.6759146043	-1.3834546332	 0.3668827008	-0.163076
C	 2.1772913061	-0.3219962365	 1.2445619621	-0.276867
C	 0.7118160858	-0.5648663744	 1.2513794497	 0.127
C	 0.0284100928	-1.0953076934	 2.3848644214	 0.218966
C	-0.5748556636	-1.5059977226	 3.3421703016	-0.411481
H	 0.9556805576	 2.0422123103	 0.1262954135	 0.112712
H	-0.3878348976	 1.929582176	-1.0161021397	 0.116395
H	-0.7094575133	 1.9852486926	 0.7223566612	 0.123541
H	-1.7483568511	-0.2337365306	-1.202178012	 0.111752
H	-1.349448686	-1.621027952	-0.1703597236	 0.129599
H	-2.0794805486	-0.1757720958	 0.5389427052	 0.123172
H	 0.7001105998	-1.3843690739	-1.5421517127	 0.110683
H	 1.841838575	-0.0314527157	-1.3361352919	 0.100365
H	 2.7322323371	-0.6990741348	 2.0978036481	 0.131674
H	 2.5808442583	 0.5876585519	 0.8040598252	 0.110931
H	-1.1003602549	-1.8800682779	 4.1856660254	 0.190085
113.5419	140.2955	194.9617	213.7954	254.2057	281.8152	339.7102	358.2464	430.1619	469.3205	497.1639	555.6804	594.2214	618.6847	637.9487	660.6373	756.9689	852.8669	870.9833	895.839	934.0894	967.1324	996.4756	1011.0842	1032.5264	1109.4024	1134.0634	1159.6185	1191.444	1233.1556	1255.3503	1261.7103	1319.6792	1335.2305	1405.4627	1424.084	1481.9091	1482.3841	1491.7266	1500.7894	1506.6772	1512.5106	2227.8226	3027.5494	3032.9217	3040.7647	3091.9087	3101.1478	3101.7285	3106.8097	3110.0192	3113.6496	3200.2578	3502.1119
CC1(C)CN2CC12C#C	CC1(C)CN2C[C@@]12C#C	
InChI=1S/C8H11N/c1-4-8-6-9(8)5-7(8,2)3/h1H,5-6H2,2-3H3	InChI=1S/C8H11N/c1-4-8-6-9(8)5-7(8,2)3/h1H,5-6H2,2-3H3/t8-,9?/m0/s1
