22
gdb 56200	4.74629	0.64093	0.61394	3.4255	83.43	-0.2425	0.036	0.2785	1869.128	0.193929	-404.380632	-404.37046	-404.369516	-404.417957	36.508	
N	-0.0751047132	 1.3586710767	 0.1860770902	-0.522953
C	 0.0626769927	 0.0297251843	-0.1072823505	 0.406998
O	 1.1413088083	-0.464861887	-0.3710386328	-0.357243
C	-1.239420838	-0.7694439025	-0.0820843683	-0.313245
C	-1.0097091281	-2.260807454	 0.177942805	-0.200304
C	-2.2764671346	-3.0923164045	 0.037402229	 0.056002
C	-2.9197514466	-3.269742709	-1.3712117516	-0.21886
C	-3.2225743375	-4.7475884817	-1.0048094644	-0.210183
C	-2.1683395966	-4.6413202288	 0.1292983217	-0.236593
H	 0.7292216341	 1.9533222228	 0.0693121002	 0.258024
H	-0.9761840846	 1.7878897725	 0.3019214487	 0.254853
H	-1.9288323571	-0.3431127271	 0.6574210541	 0.099049
H	-1.7202890832	-0.6339316961	-1.0611448193	 0.128496
H	-0.2439893159	-2.6177766369	-0.5190730341	 0.118597
H	-0.5882600691	-2.3928293353	 1.1827553852	 0.099615
H	-3.0387245928	-2.7366566579	 0.7428560334	 0.061431
H	-3.7621463754	-2.6267870361	-1.6395822993	 0.089031
H	-2.1632858028	-3.1982378171	-2.1606261248	 0.099746
H	-4.2347674243	-4.8659473383	-0.6070585775	 0.099127
H	-3.0650043151	-5.5043550515	-1.7768017939	 0.095446
H	-1.1832268031	-4.9858686435	-0.2024158984	 0.100741
H	-2.3951980471	-5.1134894088	 1.0885855572	 0.092226
16.1362	57.6308	102.177	106.7582	161.039	181.4711	240.6156	320.5768	402.876	469.1962	516.621	591.7493	642.9893	665.4061	757.9796	784.7554	791.1174	860.4559	895.4844	932.5485	938.6483	973.3561	980.4025	1031.1883	1073.2783	1088.963	1118.33	1140.851	1197.1785	1206.5098	1244.5141	1255.6451	1257.5078	1264.739	1283.5431	1292.2659	1314.8363	1345.3139	1384.2131	1405.9629	1463.7422	1479.404	1486.0013	1491.8233	1512.4675	1616.9477	1798.121	3012.9523	3016.9744	3029.9552	3041.402	3048.4303	3051.2031	3056.6798	3082.6036	3092.6095	3097.8112	3115.0629	3599.6426	3736.227
NC(=O)CCC1CCC1	NC(=O)CCC1CCC1	
InChI=1S/C7H13NO/c8-7(9)5-4-6-2-1-3-6/h6H,1-5H2,(H2,8,9)	InChI=1S/C7H13NO/c8-7(9)5-4-6-2-1-3-6/h6H,1-5H2,(H2,8,9)
