16
gdb 55980	3.36704	0.96868	0.87957	3.6359	67.74	-0.2555	0.0042	0.2597	1342.8887	0.12263	-475.074185	-475.064972	-475.064027	-475.110812	31.308	
C	-0.0911624442	 1.4740509845	-0.0362774074	-0.482076
C	 0.0903331085	-0.0103045206	 0.1469909612	 0.436283
O	 1.0704440063	-0.5565760322	 0.5772190176	-0.338836
O	-1.0326139549	-0.670270927	-0.2570286722	-0.247849
C	-1.0070931488	-2.0836871361	-0.2121293333	-0.036821
C	-2.1002510952	-2.7509818462	 0.6724663907	-0.181203
N	-2.5937499171	-3.3860849824	-0.5531937319	-0.330271
C	-1.7282265086	-2.7603839203	-1.4174763984	 0.412623
O	-1.6028847866	-2.762347394	-2.6097050881	-0.347727
H	 0.774300285	 1.9983275044	 0.3663593997	 0.151639
H	-0.2006905506	 1.7000958198	-1.1010587746	 0.162078
H	-1.0045817345	 1.808597855	 0.4623619079	 0.150973
H	 0.0074506186	-2.4386649876	-0.0309222493	 0.145849
H	-1.7356605004	-3.4465724166	 1.4337664264	 0.123106
H	-2.7931151338	-2.0303779303	 1.1169125985	 0.124226
H	-3.3467590837	-4.0364659305	-0.7184745569	 0.258006
13.202	66.0851	90.4674	115.8873	165.2116	249.2931	338.5683	361.2843	486.8199	525.6876	601.0203	629.5839	696.8794	755.3802	870.1952	909.0183	937.7661	994.1275	1017.636	1064.1454	1082.9802	1136.0925	1164.3972	1175.7358	1206.0976	1246.9092	1298.555	1363.3655	1392.9437	1403.4594	1468.2258	1474.6971	1522.5303	1837.781	1907.8168	3048.5813	3059.1408	3100.4636	3124.9227	3129.1149	3172.3836	3623.7973
CC(=O)OC1CNC1=O	CC(=O)O[C@H]1CNC1=O	
InChI=1S/C5H7NO3/c1-3(7)9-4-2-6-5(4)8/h4H,2H2,1H3,(H,6,8)	InChI=1S/C5H7NO3/c1-3(7)9-4-2-6-5(4)8/h4H,2H2,1H3,(H,6,8)/t4-/m0/s1
