21
gdb 121575	4.86364	0.52478	0.48067	3.3916	91.33	-0.2515	-0.0427	0.2089	2331.9736	0.178669	-387.096698	-387.085149	-387.084205	-387.136837	38.453	
C	-0.0835083099	 1.5084016628	 0.1312143492	-0.379453
C	 0.0006141746	-0.0152671741	 0.0064664767	-0.176869
C	 0.727237996	-0.4696088792	-1.2633773306	-0.158998
C	 0.8118428245	-1.9899833965	-1.388731477	-0.30164
C	 1.5290624899	-2.4622836582	-2.644360117	 0.199863
O	 1.990152795	-1.6992736723	-3.4680269797	-0.295958
C	 1.628065536	-3.9019683096	-2.7965247702	-0.026015
C	 1.7042236459	-5.1010624749	-2.912256893	 0.163552
C	 1.8043931143	-6.542215919	-3.0664886026	-0.504492
H	 0.9150651503	 1.9584630234	 0.1556148303	 0.116025
H	-0.6203745134	 1.9452275388	-0.7180528062	 0.116032
H	-0.6062479144	 1.8065286627	 1.0454001653	 0.110095
H	 0.5117021337	-0.4271954826	 0.8871891643	 0.092853
H	-1.0121583159	-0.4403270387	 0.0198544988	 0.092858
H	 0.2230492289	-0.0642562605	-2.1484069117	 0.109953
H	 1.7402013935	-0.050981864	-1.2849405323	 0.109908
H	 1.3271939715	-2.4347574927	-0.5254621599	 0.125102
H	-0.187534514	-2.4481116714	-1.3856147069	 0.125095
H	 2.3279693685	-6.8097124254	-3.9900082458	 0.161779
H	 2.3491528332	-6.9870755668	-2.2265825319	 0.16017
H	 0.8101097518	-7.0012221217	-3.0949584898	 0.160139
17.7618	27.0834	60.7029	62.9744	121.5304	144.9273	155.7886	252.4058	280.8904	299.6577	368.138	380.5456	458.2507	570.0736	587.4068	729.5118	773.1275	802.1787	912.8123	932.2011	968.9342	1034.9632	1046.2805	1053.1327	1070.7122	1113.5916	1121.3105	1186.968	1232.2027	1290.3404	1306.085	1324.0422	1369.3258	1397.2027	1410.192	1414.3281	1447.076	1470.2885	1474.3823	1481.5062	1494.1288	1500.6743	1510.6199	1760.2659	2339.0407	3008.6042	3013.0408	3030.3153	3031.8195	3034.3908	3039.3642	3039.7804	3078.8469	3094.2141	3098.4184	3099.8302	3102.5035
CCCCC(=O)C#CC	CCCCC(=O)C#CC	
InChI=1S/C8H12O/c1-3-5-7-8(9)6-4-2/h3,5,7H2,1-2H3	InChI=1S/C8H12O/c1-3-5-7-8(9)6-4-2/h3,5,7H2,1-2H3
