13
gdb 28281	5.4823	1.32135	1.0655	2.8148	67.31	-0.2042	0.0058	0.21	1025.7982	0.092315	-452.773141	-452.766699	-452.765755	-452.803725	25.731	
N	 0.0653893563	 1.3241999245	 0.1405280306	-0.58842
C	-0.0624577366	-0.0261209735	 0.0494616653	 0.428339
N	-1.1561575098	-0.718625108	 0.0256733528	-0.425596
C	-0.6897206895	-2.0364901384	 0.0034424964	 0.192152
C	-1.0510500237	-3.346840575	-0.0272498267	-0.121791
O	 0.0912605203	-4.1106513423	-0.0438564826	-0.164562
C	 1.1918050519	-3.2903055965	-0.0239019539	-0.144343
C	 0.730373651	-2.0211573762	 0.005891644	 0.24197
O	 1.1430199253	-0.7126003657	 0.0364640831	-0.253815
H	 0.9267680285	 1.7138031785	-0.2089112624	 0.272892
H	-0.7698745943	 1.8397792505	-0.0881062831	 0.279207
H	-1.978127586	-3.89160573	-0.0399811367	 0.140422
H	 2.1516195267	-3.7736115479	-0.0328848368	 0.143545
160.3411	315.1135	331.7381	368.0685	396.8373	513.9612	560.7252	581.4809	602.381	676.6369	716.921	735.4034	755.422	759.2936	838.7654	919.4831	950.8021	1025.6852	1106.7381	1147.4682	1178.4587	1243.8367	1302.7148	1383.5954	1425.1669	1599.3222	1612.405	1698.7035	1712.1575	3295.0387	3301.5272	3594.9797	3710.323
NC1=NC2=COC=C2O1	Nc1nc2cocc2o1	
InChI=1S/C5H4N2O2/c6-5-7-3-1-8-2-4(3)9-5/h1-2H,(H2,6,7)	InChI=1S/C5H4N2O2/c6-5-7-3-1-8-2-4(3)9-5/h1-2H,(H2,6,7)
