21
gdb 41540	3.92738	1.52913	1.43538	0.179	85.15	-0.2727	0.0948	0.3675	998.1675	0.186623	-349.907661	-349.901214	-349.90027	-349.938212	28.014	
C	-0.024244484	 1.4975587222	 0.3804857078	-0.23348
C	 1.4494332239	 1.6390459518	-0.108696328	-0.23348
C	 1.4551928997	 0.1388974045	-0.5332861022	-0.033757
C	-0.0232593032	-0.003048334	-0.0425201599	-0.033757
C	-0.7005017011	-0.3611284511	-1.3594537848	-0.004941
C	-0.0640470228	 0.4744796457	-2.5201367682	-0.059018
C	-0.2667696536	-0.7227401228	-3.477130761	-0.243704
C	 0.2323610735	-1.3430006008	-2.1528725576	-0.064856
C	 1.2683381025	-0.1721016155	-2.0130017795	-0.004941
H	-0.1484825545	 1.6572441037	 1.4541420037	 0.09532
H	-0.7567933036	 2.1205777174	-0.1405005426	 0.094278
H	 1.6098457287	 2.3477971802	-0.9260988491	 0.094278
H	 2.156534248	 1.8785500029	 0.6889994506	 0.09532
H	 2.2165884008	-0.4832232931	-0.0565103038	 0.059553
H	-0.2327396875	-0.7183823623	 0.7565341015	 0.059553
H	-1.7795184363	-0.5323756662	-1.3750818754	 0.056808
H	-0.2364835473	 1.5313062544	-2.7339386445	 0.065534
H	-1.2960566226	-0.9492363198	-3.7708124895	 0.085978
H	 0.4076112901	-0.7856668716	-4.3363349474	 0.085978
H	 0.4078435252	-2.3977296828	-1.9292813305	 0.062523
H	 2.137266704	-0.1563259726	-2.6752412898	 0.056808
141.2447	216.2225	316.2098	434.5429	471.2959	646.2842	655.9289	739.594	751.8958	789.7922	810.1639	866.99	880.8565	885.1152	901.5259	915.5253	939.9999	955.1187	962.1974	999.294	1011.3472	1030.4577	1057.1162	1067.1752	1097.948	1099.0625	1106.6926	1135.1608	1160.388	1186.8596	1191.1382	1219.7679	1237.7123	1241.3697	1249.8317	1252.3646	1269.8279	1274.201	1283.9175	1327.7797	1329.3432	1360.5217	1475.8127	1492.7973	1519.5179	3042.3363	3051.7189	3057.8951	3066.5877	3076.204	3081.3021	3084.586	3086.5166	3095.531	3100.4075	3101.3611	3115.4795
C1CC2C1C1C3CC1C23	C1C[C@H]2[C@@H]1[C@H]1[C@@H]3C[C@H]1[C@H]23	
InChI=1S/C9H12/c1-2-5-4(1)8-6-3-7(8)9(5)6/h4-9H,1-3H2	InChI=1S/C9H12/c1-2-5-4(1)8-6-3-7(8)9(5)6/h4-9H,1-3H2/t4-,5+,6-,7+,8-,9+
