18
gdb 45192	3.45586	1.5792	1.33698	2.9109	77.56	-0.2624	0.0207	0.2831	983.894	0.150661	-401.896655	-401.890046	-401.889102	-401.92741	27.71	
N	 0.1016328693	 1.2210677698	 0.3605632357	-0.561138
C	 0.0301501682	 0.0145755116	 0.0354325375	 0.289679
O	 1.0402142883	-0.8778086038	-0.3786214585	-0.296054
C	-0.0026126097	-1.7807248126	-0.9184536403	 0.138805
C	-0.3312749206	-3.2636394257	-0.6383707351	-0.284992
C	-1.6587738619	-2.994569871	 0.1497843593	-0.027065
C	-1.1046201754	-2.0095213192	 1.2040685797	-0.229479
C	-1.0163782356	-1.0733467073	-0.0377532314	 0.231609
C	-2.3478724655	-1.7140296386	-0.5023468962	-0.33209
H	 1.0624865568	 1.5636929751	 0.3038233261	 0.231413
H	-0.0914811923	-1.5459815666	-1.9828602251	 0.094634
H	-0.455366787	-3.823811553	-1.5685298197	 0.104992
H	 0.3916039703	-3.7922200722	-0.0122455487	 0.123553
H	-2.2619412152	-3.8593966799	 0.4270060508	 0.074861
H	-1.8537488945	-1.6494933425	 1.9119016312	 0.110755
H	-0.1771022828	-2.268310304	 1.7196575496	 0.107768
H	-2.5573175661	-1.7082914438	-1.574704981	 0.105518
H	-3.2335516163	-1.4222367862	 0.0641592861	 0.117231
148.1974	239.1379	274.8724	404.8061	453.7029	509.3616	593.8213	637.2542	677.6234	695.4806	802.6314	806.8578	843.2894	865.7983	872.7177	913.0608	931.9985	956.5398	984.1674	997.3779	1038.2121	1059.6405	1069.073	1089.19	1127.9267	1163.3174	1185.2327	1205.1203	1225.0407	1232.9389	1250.7113	1288.9379	1304.1425	1316.8396	1404.1685	1484.3469	1491.2336	1524.0596	1823.2032	3057.3761	3066.8	3067.6166	3072.5781	3116.0299	3116.8894	3132.0591	3137.0413	3473.9601
N=C1OC2CC3CC12C3	[NH][C]1O[C@H]2C[C@H]3C[C@@]12C3	
InChI=1S/C7H9NO/c8-6-7-2-4(3-7)1-5(7)9-6/h4-5,8H,1-3H2	InChI=1S/C7H9NO/c8-6-7-2-4(3-7)1-5(7)9-6/h4-5,8H,1-3H2/t4-,5-,7-/m0/s1
