19
gdb 84562	2.92754	1.74912	1.36505	1.7901	79.08	-0.2296	0.0097	0.2393	978.0819	0.162001	-385.869896	-385.862833	-385.861889	-385.900919	29.645	
O	 0.0659712707	 1.4306910825	-0.0799515324	-0.440965
C	 0.0617623919	 0.0022853003	-0.0389061378	 0.088033
C	 0.8952599393	-0.5124872989	 1.1113708595	-0.129478
C	 0.5349805181	-1.5705084887	 1.8414492014	-0.056804
C	-0.6876708999	-2.3576097823	 1.5405768594	-0.065955
C	-2.1065572827	-1.7938184216	 1.6536117826	-0.065157
C	-2.1212895639	-0.2912102101	 1.3841632975	-0.257588
C	-1.3652096351	-0.5463326021	 0.0310816238	-0.044612
C	-1.4737568908	-2.066546858	 0.2959356992	-0.103081
H	-0.2495646499	 1.7406605794	 0.7764927847	 0.277057
H	 0.5200344558	-0.2914736014	-0.9937031843	 0.092553
H	 1.8031801438	 0.0440093646	 1.3282175815	 0.092054
H	 1.1465097857	-1.8918120162	 2.6809829679	 0.087629
H	-0.6435488612	-3.4086560425	 1.8114701682	 0.088214
H	-2.879639241	-2.353343554	 2.1674718666	 0.085358
H	-3.1307543065	 0.0905737676	 1.2182292139	 0.106566
H	-1.6221355868	 0.3448563156	 2.1243928926	 0.08519
H	-1.9374996057	-0.2063534543	-0.8337168239	 0.077779
H	-1.7134958119	-2.8262144601	-0.4381560603	 0.083207
140.517	250.0273	307.2	322.9168	369.8821	420.8193	492.2291	533.0829	623.7221	705.8075	732.6746	775.1115	791.2827	833.2827	866.1817	928.0638	937.9394	965.7582	970.2251	994.8592	1003.4211	1026.6006	1054.0418	1073.8059	1078.2076	1105.1806	1138.9987	1158.8141	1185.054	1219.0737	1256.3269	1262.2602	1295.5933	1308.2837	1321.4928	1362.7824	1395.2161	1420.7188	1429.3585	1481.8842	1701.2908	3009.4672	3033.3955	3090.4767	3108.2049	3144.5959	3154.2408	3171.9967	3174.1319	3185.9732	3797.7444
OC1C=CC2C3CC1C23	O[C@H]1C=C[C@H]2[C@H]3C[C@@H]1[C@@H]23	
InChI=1S/C8H10O/c9-7-2-1-4-5-3-6(7)8(4)5/h1-2,4-9H,3H2	InChI=1S/C8H10O/c9-7-2-1-4-5-3-6(7)8(4)5/h1-2,4-9H,3H2/t4-,5+,6-,7-,8-/m0/s1
