18
gdb 41661	3.43006	1.89959	1.88805	1.4388	71.89	-0.2329	0.0918	0.3247	824.6116	0.152991	-401.940559	-401.934932	-401.933988	-401.970221	24.689	
C	-0.0275222121	 1.5556578244	-0.0299378436	-0.084806
O	 1.3440291922	 1.9869594369	-0.0063050593	-0.281764
C	 2.1363749336	 0.7999497715	 0.0580548435	 0.108797
C	 1.9887715986	 0.131622502	 1.4331046159	-0.060679
C	 0.5885587197	-0.3880301203	 1.4100827408	-0.03797
C	 0.0510657374	 0.0211209035	 0.0307939456	-0.076705
C	 1.363746264	-0.2728288306	-0.7443516348	-0.087121
C	 1.8548121587	-1.5938317059	-0.1660298106	-0.175792
N	 1.7309775419	-1.3178587148	 1.2863121969	-0.13603
H	-0.5684179911	 1.9856049959	 0.822082134	 0.102161
H	-0.5022827749	 1.9110895861	-0.9539371249	 0.098714
H	 3.1496731823	 1.0457260069	-0.260369425	 0.079777
H	 2.5054700809	 0.4744008449	 2.3202131604	 0.093713
H	-0.0432019708	-0.4760315514	 2.285264098	 0.093492
H	-0.8489562629	-0.4972150028	-0.3029534703	 0.073207
H	 1.3421246187	-0.142682933	-1.8248063016	 0.076653
H	 1.2340259727	-2.4539145922	-0.4366134699	 0.106901
H	 2.8966485712	-1.821060471	-0.414184225	 0.107452
244.7612	358.8927	379.6997	470.7159	595.5298	648.2976	736.9889	780.2205	787.104	852.4106	866.8923	893.755	919.3168	931.079	943.5302	953.8481	969.0691	979.6281	1013.9594	1017.6012	1045.8633	1064.7734	1076.2611	1093.7276	1171.8125	1186.6386	1210.7489	1217.9033	1232.4519	1256.9723	1267.4987	1286.2452	1306.5725	1315.5139	1332.5032	1369.2522	1395.1327	1504.9814	1526.3325	3010.8857	3047.602	3047.7476	3093.3887	3105.8778	3117.4891	3139.4229	3187.4637	3200.9177
C1OC2C3C4C1C2CN34	C1O[C@H]2[C@H]3[C@H]4[C@@H]1[C@@H]2CN34	
InChI=1S/C7H9NO/c1-3-4-2-9-7(3)6-5(4)8(1)6/h3-7H,1-2H2	InChI=1S/C7H9NO/c1-3-4-2-9-7(3)6-5(4)8(1)6/h3-7H,1-2H2/t3-,4-,5+,6+,7+,8?/m0/s1
