15
gdb 75984	2.30262	1.59432	1.30287	3.0113	61.65	-0.2604	-0.0589	0.2014	1006.574	0.112197	-494.940792	-494.932658	-494.931714	-494.974057	29.578	
O	-0.8157149903	 1.0999673474	-1.1900964311	-0.428664
C	-0.1714076408	 0.2557937513	-0.2348412028	-0.142836
C	-1.2690074284	-0.662372599	 0.3216117703	 0.424269
O	-1.7099490085	-0.5318088901	 1.4326899205	-0.293503
C	-1.6970752122	-1.7693720625	-0.6342863501	-0.333065
C	-0.9346326789	-1.7144903622	-1.9551130616	-0.080763
O	 0.4859505439	-1.5584400574	-1.7468743053	-0.230269
C	 0.9197869002	-0.5739682661	-0.9297717583	 0.402334
O	 2.0928680347	-0.364230026	-0.7887964427	-0.324808
H	-0.1504448792	 1.7024206131	-1.5428631192	 0.308074
H	 0.2837956199	 0.8226860252	 0.5814296479	 0.119009
H	-1.521459392	-2.7220177685	-0.1211693941	 0.153915
H	-2.7756016617	-1.6969535759	-0.8068609789	 0.151633
H	-1.0333693396	-2.6490185032	-2.5087554234	 0.133254
H	-1.2901106871	-0.890377336	-2.5774789613	 0.141421
55.3803	99.9085	222.021	236.8858	266.8976	338.9971	391.8206	434.4111	485.3805	526.8229	591.1365	668.9897	746.2136	787.553	852.4554	913.1972	968.756	1027.393	1077.8429	1086.2618	1120.3407	1213.5808	1229.0606	1256.8586	1291.5209	1307.3093	1348.3419	1396.5046	1423.1518	1436.5403	1503.5593	1833.9898	1857.0612	3050.8306	3079.8685	3087.2602	3099.0137	3137.0461	3798.6941
OC1C(=O)CCOC1=O	O[C@H]1C(=O)CCOC1=O	
InChI=1S/C5H6O4/c6-3-1-2-9-5(8)4(3)7/h4,7H,1-2H2	InChI=1S/C5H6O4/c6-3-1-2-9-5(8)4(3)7/h4,7H,1-2H2/t4-/m0/s1
