23
gdb 88159	2.25978	1.44542	1.14007	1.1333	85.38	-0.2513	0.0785	0.3298	1212.2608	0.206353	-388.293497	-388.28433	-388.283386	-388.327397	36.15	
C	-0.2243205337	 1.5340314775	-0.0267651219	-0.411388
C	 0.0469822982	 0.03031962	-0.0341949804	-0.014575
C	 0.9376535811	-0.4292503038	-1.2108081829	-0.212818
C	 1.5657314701	-1.7440544999	-0.7288211162	-0.211888
C	 1.9118492388	-1.4366638682	 0.7377008554	-0.281627
C	 0.7632500354	-0.5409808824	 1.2144590028	 0.338874
C	 0.8978178109	 0.2233863634	 2.5167556552	-0.393499
C	-0.049728116	-0.9442615738	 2.412454272	 0.056368
O	-1.4268473564	-0.7048877604	 2.3375493552	-0.420148
H	 0.7006115618	 2.1061960168	 0.108395024	 0.108323
H	-0.6757141778	 1.8464094996	-0.9749511451	 0.106283
H	-0.9175272509	 1.8099388499	 0.7734488796	 0.11504
H	-0.919911677	-0.4809709405	-0.1148009148	 0.089064
H	 0.3747826566	-0.5293085191	-2.1438521515	 0.090081
H	 1.7279186338	 0.3131854067	-1.3871905697	 0.090166
H	 0.8262963809	-2.5526900613	-0.7796738554	 0.098961
H	 2.433250089	-2.0547546071	-1.3180948392	 0.090002
H	 2.0324720368	-2.3339362802	 1.3536095239	 0.0903
H	 2.8602708178	-0.8857041598	 0.7852323611	 0.095825
H	 1.8124162132	 0.1016220675	 3.0899678466	 0.102923
H	 0.4529268602	 1.2110022263	 2.5790035706	 0.109375
H	 0.2214495204	-1.8726447755	 2.9180998865	 0.076774
H	-1.7241050234	-0.3928605757	 3.1983661942	 0.287585
38.1263	166.0067	193.1552	236.3266	266.5301	283.3013	306.2595	364.4124	415.6874	452.3801	505.6377	554.7738	561.6408	668.8314	809.4479	847.8229	850.7585	885.3378	908.4974	917.6966	960.9021	978.2664	1000.38	1016.49	1038.7785	1051.9059	1088.7462	1118.082	1144.91	1173.1263	1181.862	1208.9196	1234.3716	1256.6394	1282.893	1304.9702	1319.4426	1337.761	1342.625	1355.5577	1376.2419	1405.0216	1418.6145	1480.0309	1487.8877	1490.283	1496.5885	1506.7795	1509.9569	3014.4057	3018.6178	3026.3911	3030.7933	3033.5233	3068.849	3080.6756	3080.8549	3090.2446	3092.8697	3104.661	3119.581	3209.1017	3807.3484
CC1CCCC11CC1O	C[C@H]1CCC[C@]21C[C@H]2O	
InChI=1S/C8H14O/c1-6-3-2-4-8(6)5-7(8)9/h6-7,9H,2-5H2,1H3	InChI=1S/C8H14O/c1-6-3-2-4-8(6)5-7(8)9/h6-7,9H,2-5H2,1H3/t6-,7+,8+/m0/s1
