17
gdb 38069	3.60011	1.45452	1.28773	0.7619	72.67	-0.2411	-0.0149	0.2262	1008.4693	0.136659	-421.787707	-421.780534	-421.77959	-421.819598	27.986	
C	-0.019922297	 1.3864827157	-0.3102046004	-0.076596
C	 1.4453412785	 1.5379730632	 0.1380549654	-0.340709
C	 1.2660205481	 0.1194643491	 0.7374804511	 0.426112
O	-0.0813643585	 0.0356853981	 0.2020894634	-0.328628
C	 2.1848307934	-0.9902251132	 0.2878196854	-0.14363
C	 2.6809786388	-1.6848528683	 1.3155089297	-0.097256
C	 2.1844207807	-1.1217562486	 2.6081737132	-0.006063
O	 2.5831756929	 0.2586056102	 2.8233878623	-0.258365
C	 1.2981128784	-0.0048421863	 2.2611888981	-0.052869
H	-0.7398695953	 2.0449629112	 0.1908922639	 0.104916
H	-0.2024155737	 1.4196122301	-1.3901482381	 0.107022
H	 2.1716011366	 1.5921439377	-0.6742849346	 0.1155
H	 1.6613106386	 2.3216408344	 0.8648689745	 0.125909
H	 2.4180721972	-1.1423810812	-0.7599860822	 0.106974
H	 3.3755462729	-2.5133773077	 1.251592121	 0.110914
H	 2.0925265404	-1.7177756485	 3.5101836778	 0.10334
H	 0.4312188681	 0.3002506541	 2.8416269793	 0.103429
81.57	127.8321	207.7702	362.3918	392.0598	420.5221	482.2456	600.4439	743.5695	765.6457	784.2659	822.3645	848.6852	864.9019	877.1907	944.2725	957.3022	975.7308	984.363	1017.6314	1028.744	1039.1614	1100.4041	1105.0286	1159.5614	1178.3693	1203.6381	1240.0209	1252.0227	1262.7093	1300.8699	1346.8537	1375.8947	1409.3232	1489.3436	1531.0277	1653.6869	3021.4132	3063.0689	3085.6243	3141.8415	3150.9748	3174.0392	3192.337	3219.4383
C1CC2(O1)C=CC1OC21	C1C[C@@]2(O1)C=C[C@H]1O[C@@H]21	
InChI=1S/C7H8O2/c1-2-7(3-4-8-7)6-5(1)9-6/h1-2,5-6H,3-4H2	InChI=1S/C7H8O2/c1-2-7(3-4-8-7)6-5(1)9-6/h1-2,5-6H,3-4H2/t5-,6-,7+/m1/s1
