22
gdb 118669	3.21918	0.78835	0.67498	5.4019	80.84	-0.2445	0.0135	0.258	1724.3946	0.193514	-441.512203	-441.501716	-441.500772	-441.54878	37.245	
C	 0.2883771521	 1.5035467012	 0.0379936157	-0.38083
C	 0.0761700036	-0.010582924	 0.1130915641	-0.170613
C	-1.3860258131	-0.4023635211	-0.1365533898	-0.176792
N	-1.6402195653	-1.8383056274	-0.0539048446	-0.029717
C	-1.6357175045	-2.4836234001	 1.2694742942	-0.197994
C	-2.9281865234	-3.2361680429	 1.6414985421	-0.043052
O	-2.956124399	-4.5690423922	 1.2078268625	-0.425345
C	-1.773533465	-2.5712297933	-1.1817674161	 0.156773
O	-1.9698163676	-3.7765596299	-1.2374312573	-0.367091
H	 1.3360741476	 1.7626285688	 0.213659595	 0.124314
H	 0.0089560323	 1.8969599731	-0.9455875606	 0.120548
H	-0.3140162696	 2.028120862	 0.7877538377	 0.120427
H	 0.7065759956	-0.5198014546	-0.6258534062	 0.109593
H	 0.3920077967	-0.3811477258	 1.0955854398	 0.109842
H	-2.0403393313	 0.1095292587	 0.5804481109	 0.115699
H	-1.6915742396	-0.0633558602	-1.1322152014	 0.119752
H	-0.8012637809	-3.19176408	 1.3355627905	 0.133063
H	-1.4585946578	-1.6874574781	 1.9972934753	 0.109948
H	-2.9967413137	-3.2612743139	 2.7360207072	 0.102231
H	-3.7907673776	-2.6504173243	 1.277073164	 0.079196
H	-2.6880974226	-4.5572881036	 0.2728958092	 0.303921
H	-1.6888692169	-1.9578830624	-2.0972239421	 0.086128
40.0577	74.2687	91.133	125.9057	191.7912	230.8815	247.7714	267.2073	290.8595	350.3759	404.5316	427.5488	513.5129	638.0764	705.1462	749.7156	795.8572	877.2864	891.1412	907.4129	1004.5645	1031.8234	1041.57	1079.0282	1108.2808	1120.8847	1145.4783	1197.6232	1251.9817	1262.3514	1317.1682	1324.6238	1336.8098	1368.4574	1397.7043	1408.5033	1417.6212	1432.973	1451.9573	1476.8905	1490.8891	1493.5205	1499.4135	1500.8942	1505.6968	1512.4972	1761.1444	2948.0324	2966.5135	3023.5461	3031.9729	3036.4405	3037.8462	3050.81	3058.9147	3080.9958	3100.4127	3102.6754	3112.5368	3631.1273
CCCN(CCO)C=O	CCCN(CCO)C=O	
InChI=1S/C6H13NO2/c1-2-3-7(6-9)4-5-8/h6,8H,2-5H2,1H3	InChI=1S/C6H13NO2/c1-2-3-7(6-9)4-5-8/h6,8H,2-5H2,1H3
