18
gdb 17522	4.50774	1.78716	1.64353	0.8116	70.85	-0.2322	0.086	0.3182	855.8078	0.154249	-347.741619	-347.734597	-347.733653	-347.772694	27.672	
C	 0.0043540212	 1.3675955194	 0.0222419447	-0.267066
O	 0.0210248924	-0.0464014868	-0.019526599	-0.293868
C	-1.2359462743	-0.6152589726	 2.6555*^-6	 0.434131
C	-2.1571818073	-0.5492829514	 1.2595760634	-0.294693
C	-2.6940612532	-1.8950688368	 0.7745063908	-0.062064
C	-2.7382901802	-1.850244806	-0.7626773433	-0.062068
C	-2.2278116868	-0.4776515309	-1.1986656353	-0.294696
C	-1.4552985502	-2.1780502375	-0.0392670466	-0.152987
H	 1.044202175	 1.700536843	 0.0027566325	 0.128538
H	-0.5225008453	 1.7940772691	-0.8433949931	 0.113516
H	-0.4724017209	 1.7420126858	 0.9394654252	 0.113521
H	-1.5688253797	-0.6644197217	 2.1742690356	 0.1019
H	-2.8477822105	 0.2966093824	 1.3555726918	 0.08442
H	-3.294131156	-2.6061855291	 1.3267944879	 0.085953
H	-3.3702994835	-2.5290036776	-1.3200313125	 0.085953
H	-2.921320048	 0.3712746028	-1.205516978	 0.084412
H	-1.6931014135	-0.5384296578	-2.1507564495	 0.101901
H	-0.7775456191	-3.0169440343	-0.08322912	 0.093196
90.5452	189.8199	207.1188	362.6232	368.3064	452.5263	455.4105	627.7771	712.0331	749.3932	780.8814	796.4394	901.757	908.5909	948.7312	956.1519	984.0689	1008.1166	1022.994	1041.1447	1061.7703	1094.0751	1121.43	1141.5351	1162.6013	1169.7301	1182.7781	1205.4561	1239.0228	1250.41	1296.3013	1332.453	1362.434	1484.4903	1487.1039	1490.4344	1506.3223	1509.8214	2990.0117	3024.9181	3034.0497	3041.6515	3097.6248	3100.2093	3122.0078	3195.7997	3203.2453	3235.4834
COC12CC3C(C1)C23	CO[C@@]12C[C@H]3[C@@H](C1)[C@@H]23	
InChI=1S/C7H10O/c1-8-7-2-4-5(3-7)6(4)7/h4-6H,2-3H2,1H3	InChI=1S/C7H10O/c1-8-7-2-4-5(3-7)6(4)7/h4-6H,2-3H2,1H3/t4-,5+,6-,7-
