18
gdb 65320	3.73849	1.03716	0.93896	4.4934	77.42	-0.2805	0.0261	0.3066	1267.1033	0.146626	-401.93335	-401.924473	-401.923528	-401.967013	32.746	
C	-0.0874328696	 1.7718069392	 0.2535855662	-0.47131
C	-0.0575488381	 0.2831048285	-0.0266107533	 0.288533
C	 1.2170478198	-0.3691937759	-0.4669333551	-0.329003
C	 0.6873063068	-0.6512737363	 0.9331470546	-0.207554
C	 1.3652169502	-0.1237737299	 2.0816559746	 0.288095
N	 1.9063584419	 0.3110876547	 3.0078310961	-0.34429
C	-1.3511773815	-0.2647341679	-0.5619820543	 0.006629
C	-1.568881588	-0.5094182993	-1.9942216899	-0.175126
O	-1.3282934207	-1.5905286685	-1.0860540581	-0.234502
H	 0.8402056596	 2.1084518469	 0.7218806217	 0.14721
H	-0.2263545589	 2.3329822483	-0.676463607	 0.125921
H	-0.9109239553	 2.0284475407	 0.928921172	 0.131788
H	 1.1557924085	-1.1990268605	-1.1608335359	 0.143604
H	 2.102236638	 0.2505636154	-0.5480956173	 0.134613
H	 0.2452784608	-1.6307352394	 1.080982393	 0.146106
H	-2.2247934787	-0.0447834139	 0.0545223215	 0.10346
H	-2.5753436076	-0.4645903093	-2.405618361	 0.125144
H	-0.7626919472	-0.3078028228	-2.6973110079	 0.120683
83.8882	120.3013	144.4347	194.6038	221.7349	270.3795	309.9946	347.2502	443.235	502.2587	555.7032	615.2521	687.4776	810.3047	837.2719	879.7521	891.1333	930.2334	962.6364	987.5251	1048.5121	1077.093	1094.5845	1108.4602	1116.4686	1136.9756	1159.0123	1175.1195	1260.4712	1282.9666	1318.8393	1395.8823	1420.9872	1433.09	1473.0889	1490.2549	1502.9494	1525.5145	2349.5693	3036.2469	3091.2449	3095.5371	3098.3259	3126.4775	3147.6216	3174.6109	3183.2524	3242.8807
CC1(CC1C#N)C1CO1	C[C@]1(C[C@H]1C#N)[C@H]1CO1	
InChI=1S/C7H9NO/c1-7(6-4-9-6)2-5(7)3-8/h5-6H,2,4H2,1H3	InChI=1S/C7H9NO/c1-7(6-4-9-6)2-5(7)3-8/h5-6H,2,4H2,1H3/t5-,6+,7+/m0/s1
