18
gdb 99817	2.00354	1.44808	1.13666	1.9121	72.77	-0.2583	0.0032	0.2615	1170.8084	0.146565	-435.312054	-435.301781	-435.300837	-435.347199	37.044	
C	 0.359442896	 1.4435952447	 0.3930564152	-0.403719
C	 0.2600266361	-0.0573917195	 0.1245906223	-0.174759
C	 0.5638335831	-0.4553544667	-1.3513584884	-0.024999
N	-0.4032425899	 0.1948313233	-2.239579779	-0.52304
C	 1.9250621504	-0.0365801291	-1.7123934663	 0.297597
N	 3.0186959538	 0.2300507748	-1.9772909835	-0.355822
C	 0.4262589268	-2.0151966525	-1.4273441946	 0.408403
N	 1.5535692421	-2.7435962174	-1.25677243	-0.538871
O	-0.6805598628	-2.4951129878	-1.5739619221	-0.370251
H	 1.3825884445	 1.8057400404	 0.2522384256	 0.134406
H	-0.2948564938	 1.9977304632	-0.2827866822	 0.146275
H	 0.064927602	 1.6611869105	 1.423713007	 0.117575
H	 0.9363356954	-0.6157385622	 0.7810228041	 0.111404
H	-0.753094869	-0.4213457184	 0.326637671	 0.125744
H	-0.0941336952	 0.1116748936	-3.2045965883	 0.24208
H	-1.2551425409	-0.3620533405	-2.1722148622	 0.253305
H	 2.466190885	-2.3190264398	-1.2628340233	 0.284296
H	 1.4826908664	-3.7475179764	-1.3057145754	 0.270378
52.9002	105.4667	155.2052	158.4604	197.714	235.5066	256.0798	300.3986	335.3801	349.1104	375.7361	446.6874	518.2215	569.8368	600.6483	616.1215	695.2601	758.3855	798.0199	896.6012	944.8612	984.6879	1024.831	1090.4238	1105.3756	1122.0866	1197.411	1283.4617	1341.7091	1360.7807	1372.878	1409.2225	1483.87	1494.1369	1510.3382	1621.6387	1663.2718	1799.0398	2347.4522	3044.3681	3047.5619	3086.3355	3114.0555	3139.6482	3464.7228	3548.1777	3590.2601	3720.3348
CCC(N)(C#N)C(N)=O	CC[C@@](N)(C#N)C(=O)N	
InChI=1S/C5H9N3O/c1-2-5(8,3-6)4(7)9/h2,8H2,1H3,(H2,7,9)	InChI=1S/C5H9N3O/c1-2-5(8,3-6)4(7)9/h2,8H2,1H3,(H2,7,9)/t5-/m1/s1
