19
gdb 82960	3.00555	1.51348	1.40497	2.1469	73.47	-0.238	0.0761	0.3141	1005.5673	0.161141	-422.988713	-422.981387	-422.980443	-423.02025	30.207	
O	 0.0182674456	 1.3961367008	 0.0254036025	-0.426047
C	-0.0067448124	 0.0050023647	 0.0333039558	 0.095485
C	-1.3394076249	-0.7292962392	 0.0733959218	-0.108628
C	-2.6391961051	 0.0703076704	 0.0177675971	-0.271816
C	-3.2871481459	-0.008930034	-1.3671955796	-0.041198
C	-3.2386324909	 1.1707038996	-2.3169878773	-0.315624
C	-2.325348799	 0.0012836707	-2.5230556295	 0.110831
O	-0.9690701694	 0.1853472276	-2.1862860408	-0.273758
C	-0.5093620663	-0.6997662912	-1.1944873354	 0.020341
H	-0.1856245901	 1.6599515302	-0.8827563805	 0.295139
H	 0.8295793949	-0.4267397346	 0.5757643857	 0.097418
H	-1.3617568091	-1.6671842653	 0.6187683545	 0.08759
H	-3.3341752107	-0.3072646378	 0.7710776019	 0.106688
H	-2.425714727	 1.1109601904	 0.2819308047	 0.123152
H	-4.1424082898	-0.6712090715	-1.4525801122	 0.0891
H	-4.0535292896	 1.3139763058	-3.018109612	 0.113769
H	-2.7870105289	 2.0877418944	-1.9521907396	 0.118505
H	-2.4751796028	-0.6597723154	-3.3736540624	 0.090053
H	-0.0229682085	-1.5941536055	-1.5774697345	 0.089
98.5645	206.6029	275.4021	308.814	407.3359	442.291	472.4084	496.3238	585.3198	638.411	703.5595	777.0379	797.7691	813.2439	827.3354	857.6621	901.9632	943.1969	1002.7488	1009.9472	1028.3898	1056.8618	1078.7125	1103.4624	1115.2507	1123.9755	1130.102	1145.508	1171.6917	1217.5931	1235.6284	1258.6712	1306.9517	1335.3543	1352.8088	1361.7818	1376.3266	1406.0814	1440.3278	1472.8247	1496.071	3053.6369	3098.9785	3120.4753	3125.4673	3130.7567	3145.681	3157.7866	3162.1628	3218.4787	3739.0554
OC1C2CC3CC3OC12	O[C@H]1[C@H]2C[C@H]3C[C@H]3O[C@@H]12	
InChI=1S/C7H10O2/c8-6-4-1-3-2-5(3)9-7(4)6/h3-8H,1-2H2	InChI=1S/C7H10O2/c8-6-4-1-3-2-5(3)9-7(4)6/h3-8H,1-2H2/t3-,4+,5+,6-,7+/m0/s1
