20
gdb 76809	2.73183	1.62418	1.35477	1.206	80.92	-0.2051	0.0636	0.2687	1035.2704	0.170501	-403.005808	-402.997656	-402.996712	-403.038005	32.734	
C	-0.2067156915	 1.6423511185	-0.1315367057	-0.416273
C	-0.0742026259	 0.1235967499	-0.0022729332	-0.016485
C	 0.9128984522	-0.6163425785	-1.0296421804	-0.029509
O	 1.4851286109	 0.115216259	-2.0802911877	-0.422618
C	 1.8286772684	-0.7808530953	 0.186696539	 0.30336
C	 2.5130410581	-1.6229165934	 1.3018650403	-0.283802
C	 1.9232526828	-0.288132943	 1.9302010416	-0.024195
C	 2.5597323424	 0.481921505	 0.7632566588	-0.244366
N	 0.6619009102	-0.6175367264	 1.1168365668	-0.172726
H	 0.6598376667	 2.1092278148	-0.6024974531	 0.138179
H	-1.0790718797	 1.8808338021	-0.7507166625	 0.107689
H	-0.3696444921	 2.1010750749	 0.8487072397	 0.124257
H	-1.0806251101	-0.3045105539	-0.006783359	 0.081223
H	 0.4778376059	-1.5631229527	-1.3718854747	 0.087295
H	 0.8814407873	 0.1035723394	-2.8292618055	 0.290075
H	 1.9887827171	-2.5374547456	 1.5779082118	 0.108532
H	 3.6009993141	-1.7213528205	 1.3049154437	 0.0948
H	 1.8911278633	-0.0311200351	 2.9921442136	 0.081325
H	 3.6519236825	 0.4900521961	 0.7052856566	 0.08958
H	 2.1487793274	 1.4597224545	 0.5362698998	 0.103662
129.2309	154.6214	213.2521	253.2211	261.1828	293.5535	406.6237	519.0113	545.296	559.2909	601.3199	681.1918	754.1826	769.232	783.6829	849.3335	865.7594	918.2781	945.9689	978.3078	998.324	1007.4964	1073.32	1079.3846	1103.1702	1107.999	1121.0741	1142.5079	1147.3022	1185.6235	1198.7624	1202.3402	1237.034	1246.9119	1255.1071	1307.1873	1372.1024	1399.3854	1431.0505	1473.423	1486.1056	1507.737	1533.6739	3028.8974	3033.6646	3055.5482	3061.3921	3066.8101	3081.5988	3094.7875	3132.89	3159.9357	3199.9013	3826.3207
CC1C(O)C23CC(C2)N13	C[C@H]1[C@@H](O)[C@@]23C[C@@H](C2)N13	
InChI=1S/C7H11NO/c1-4-6(9)7-2-5(3-7)8(4)7/h4-6,9H,2-3H2,1H3	InChI=1S/C7H11NO/c1-4-6(9)7-2-5(3-7)8(4)7/h4-6,9H,2-3H2,1H3/t4-,5-,6+,7+/m0/s1
