20
gdb 41992	3.25106	1.47235	1.07808	3.5893	80.39	-0.2333	0.0323	0.2657	1137.7273	0.175239	-403.1879	-403.180555	-403.179611	-403.219589	29.428	
C	 0.0025276555	 1.3847249571	-0.2849776444	-0.08409
C	 1.4144588408	 1.9291622088	-0.0210470943	-0.268208
C	 2.1948902187	 0.6244032918	 0.1753918984	-0.083961
C	 3.4740236283	 0.6027158252	 1.0088637794	-0.232442
C	 3.8051340439	-0.8687993344	 1.299890456	-0.217931
C	 2.6490179839	-1.5704678291	 2.0405566477	-0.141108
N	 1.2906229797	-1.2170575936	 1.6351203692	-0.312021
C	 1.145341192	-0.2559735597	 0.8344048953	 0.430638
O	-0.1008941875	 0.1791445026	 0.4897353571	-0.245823
H	-0.7991873931	 2.055067094	 0.0334899037	 0.12
H	-0.1446047886	 1.1445505045	-1.3462578453	 0.108093
H	 1.7857423251	 2.552135198	-0.8378529148	 0.108308
H	 1.4272172243	 2.5239754541	 0.8990717632	 0.114443
H	 2.4100011078	 0.1959751463	-0.8149421048	 0.097176
H	 4.2979349136	 1.0986207555	 0.4854293801	 0.09633
H	 3.3122283891	 1.1482884178	 1.9477843284	 0.101836
H	 3.9984025185	-1.3796525803	 0.3478073507	 0.099129
H	 4.7210908449	-0.9554389638	 1.8938168563	 0.096456
H	 2.7589972007	-2.6576981914	 1.9489125109	 0.106693
H	 2.7203459024	-1.3596819634	 3.1173201272	 0.106484
122.286	177.507	248.5423	274.6908	357.0415	384.1738	464.1727	531.0451	625.889	653.3289	684.2953	761.8382	841.881	881.2598	889.0369	914.4531	944.8928	967.5606	1002.8287	1047.3129	1069.6676	1114.295	1133.5086	1149.6905	1183.5425	1192.9833	1204.7219	1231.9063	1245.0362	1289.6109	1308.1225	1324.6721	1348.6275	1370.2708	1377.7565	1383.0271	1407.4919	1486.2082	1489.2305	1493.2991	1503.1681	1525.7386	1791.1133	2994.9692	3004.2679	3019.7089	3020.3725	3026.3332	3045.9151	3049.6917	3072.7915	3077.1077	3099.568	3112.6055
C1CC2CCCN=C2O1	C1C[C@H]2CCCN=C2O1	
InChI=1S/C7H11NO/c1-2-6-3-5-9-7(6)8-4-1/h6H,1-5H2	InChI=1S/C7H11NO/c1-2-6-3-5-9-7(6)8-4-1/h6H,1-5H2/t6-/m1/s1
