19
gdb 40970	3.48344	1.27884	1.15542	1.3904	70.39	-0.252	0.0653	0.3174	1105.8006	0.160828	-460.139231	-460.131548	-460.130604	-460.171695	29.593	
C	 0.0333898781	 1.5129779398	-0.1015239999	-0.132198
O	 1.3136523737	 1.571390468	 0.5611937415	-0.272401
C	 1.479232935	 0.143111492	 0.4704930402	-0.123421
C	 0.0144252978	-0.0216045322	-0.0294085695	 0.349304
C	-0.9692415117	-0.6461353372	 0.9603232127	-0.261039
C	-0.8478086105	-2.1701593338	 0.9016476085	-0.098128
O	-0.9872607295	-2.6187847171	-0.4404335427	-0.230471
C	-0.0319013167	-2.0161404255	-1.2666223037	 0.002288
O	-0.1452893491	-0.6126900547	-1.3077379002	-0.285155
H	-0.7466354561	 2.0446094919	 0.4554786524	 0.102745
H	 0.0762485011	 1.8849053518	-1.1325072777	 0.111241
H	 2.2272898189	-0.1415326848	-0.280853943	 0.102005
H	 1.7403117187	-0.3022819672	 1.4376281315	 0.09989
H	-0.7817755414	-0.2763724926	 1.9739285007	 0.109649
H	-1.9860582526	-0.356075897	 0.6729606932	 0.11541
H	 0.127842362	-2.4930979439	 1.3042350269	 0.092792
H	-1.6319964834	-2.6625239719	 1.4814682119	 0.11737
H	 0.984978083	-2.2980218168	-0.9315840095	 0.077683
H	-0.2054266775	-2.3763370189	-2.2820337935	 0.122436
78.2349	128.9451	200.9395	293.8249	331.7569	383.2839	414.1971	480.2836	505.1962	647.1569	685.1522	821.5314	868.5446	886.4475	936.2319	959.021	990.6596	1001.2363	1004.9895	1034.4148	1053.3712	1093.4068	1138.0159	1154.7047	1166.3239	1187.912	1211.7301	1259.6011	1265.6607	1281.4119	1304.0518	1330.4608	1370.3417	1385.339	1398.3413	1446.2381	1468.2264	1496.2915	1498.4701	1512.1086	1524.3776	2917.7281	2961.7486	3008.0811	3022.5432	3041.4804	3061.7252	3072.8116	3091.4485	3100.2157	3119.1434
C1OCC11CCOCO1	C1OCC21CCOCO2	
InChI=1S/C6H10O3/c1-2-7-5-9-6(1)3-8-4-6/h1-5H2	InChI=1S/C6H10O3/c1-2-7-5-9-6(1)3-8-4-6/h1-5H2
