16
gdb 8841	4.73955	1.23996	0.9951	2.0034	65.44	-0.2616	-0.0263	0.2353	1122.4845	0.129618	-417.086522	-417.077612	-417.076668	-417.121916	30.509	
C	-0.0024065281	 1.5098243045	 0.0118337656	-0.356411
N	-0.0093803704	 0.0473819672	-0.0274483237	-0.114358
C	-0.01675298	-0.671066754	 1.1730076303	 0.099454
N	-0.0176609805	-0.0834070024	 2.298004645	-0.469582
C	-0.0084451677	-0.6545096345	-1.2167096886	 0.400753
O	-0.0138932399	-1.8735218359	-1.2727380346	-0.378814
C	-0.0001744358	 0.1486152297	-2.5171231723	-0.150858
O	 0.0002909559	-0.7170381461	-3.6099514818	-0.421249
H	 0.8936071573	 1.9116444028	-0.4692256268	 0.141467
H	-0.8886315885	 1.9202858934	-0.4798726344	 0.141447
H	-0.0071587089	 1.8015631971	 1.0605707711	 0.186291
H	-0.0212742851	-1.745343387	 0.992300812	 0.148746
H	-0.0234860959	-0.7675333684	 3.0515132449	 0.237537
H	-0.8797910579	 0.8119651863	-2.536500196	 0.119149
H	 0.8850488128	 0.8046001691	-2.529927561	 0.119147
H	-0.0053844673	-1.6083913118	-3.2227889497	 0.297282
11.245	87.6209	129.9345	175.8797	206.9827	291.4953	344.9223	369.9507	424.1372	435.9368	549.7255	571.8167	732.5817	820.3362	833.682	970.1751	1026.6812	1084.9045	1102.0836	1146.398	1153.8311	1188.1758	1261.3203	1303.1819	1352.7321	1354.9907	1409.4143	1457.8313	1470.1425	1502.2868	1505.5767	1507.7131	1716.367	1764.3976	2977.4322	2994.9046	3048.5387	3111.1537	3147.67	3170.5335	3514.6773	3666.4151
CN(C=N)C(=O)CO	CN(C=N)C(=O)CO	
InChI=1S/C4H8N2O2/c1-6(3-5)4(8)2-7/h3,5,7H,2H2,1H3	InChI=1S/C4H8N2O2/c1-6(3-5)4(8)2-7/h3,5,7H,2H2,1H3
