16
gdb 29376	4.9052	0.91027	0.84931	1.1319	77.08	-0.2346	0.0046	0.2392	1378.4164	0.123183	-400.755857	-400.747168	-400.746224	-400.790127	31.307	
C	 0.2813647036	 1.5326383845	-0.106597572	-0.491511
C	 0.0539731561	 0.0605022673	-0.0477609238	 0.249146
C	-0.3426558318	-0.7981124515	-1.0170124576	-0.118975
O	-0.40891586	-2.0573357134	-0.4801952973	-0.166813
C	-0.0446669087	-1.889591025	 0.8117751978	 0.389399
C	 0.007983221	-3.0999864426	 1.6933586511	-0.447412
C	-1.266797494	-3.8061498438	 1.7971089977	 0.306181
C	-2.3120645795	-4.3903886473	 1.8838964487	-0.448316
N	 0.2407315062	-0.6682364102	 1.1289657244	-0.343088
H	 1.3141986983	 1.7790976712	 0.1610923231	 0.139483
H	 0.0832923285	 1.9213983402	-1.1087129134	 0.124309
H	-0.369550984	 2.0562523212	 0.6013666981	 0.140891
H	-0.6027769782	-0.7049586408	-2.0572373277	 0.142885
H	 0.777340977	-3.7890241464	 1.3193552211	 0.153992
H	 0.3387701354	-2.7569913672	 2.6781584621	 0.16786
H	-3.23810277	-4.9042888263	 1.9600647278	 0.201967
33.7863	96.0293	137.4636	210.3405	249.2192	321.5655	327.4482	379.4336	458.1506	622.8243	628.5629	650.9525	659.2259	712.2243	755.2181	796.466	918.4497	954.5631	976.3844	1016.7519	1028.2061	1068.2032	1132.6088	1200.5089	1236.6873	1290.4574	1330.2098	1367.1333	1418.8878	1452.9393	1475.4108	1490.9447	1613.9441	1643.1368	2247.1943	3021.6491	3038.6655	3092.4437	3095.0531	3122.1915	3292.6766	3506.902
CC1=COC(CC#C)=N1	Cc1coc(CC#C)n1	
InChI=1S/C7H7NO/c1-3-4-7-8-6(2)5-9-7/h1,5H,4H2,2H3	InChI=1S/C7H7NO/c1-3-4-7-8-6(2)5-9-7/h1,5H,4H2,2H3
