23
gdb 115852	2.516	1.32672	1.13139	1.0402	85.44	-0.2418	0.0772	0.319	1235.2706	0.206519	-388.281919	-388.272537	-388.271593	-388.316219	35.299	
C	-0.041873569	 1.3651846421	-0.235278731	-0.233743
O	-0.0462305185	-0.0139210863	 0.0453345583	-0.245091
C	-1.3463792339	-0.5806868422	 0.1102782276	 0.147254
C	-2.037200049	-0.7291090972	-1.2768584241	-0.259201
C	-2.7489254315	-2.1042951197	-1.2722990056	-0.226509
C	-2.1434443013	-2.9025556824	-0.1207335873	-0.066958
C	-0.648472908	-3.1105330927	-0.0577259332	 0.008455
C	 0.3203120025	-2.9929442279	-1.2163193484	-0.413065
C	-1.2831788497	-1.9708876707	 0.7113999386	-0.093519
H	 0.9965575891	 1.7037685929	-0.1911643878	 0.123527
H	-0.4410833256	 1.5937500033	-1.2353705379	 0.102593
H	-0.6305577448	 1.9326162866	 0.5041679828	 0.099273
H	-1.968345682	 0.052440237	 0.7659792872	 0.059097
H	-2.7395181266	 0.0856389991	-1.4731940389	 0.09594
H	-1.2689505029	-0.6748634451	-2.0527420665	 0.115597
H	-3.8209239652	-1.9779181263	-1.0856030648	 0.099832
H	-2.6596724853	-2.6140871359	-2.2383980677	 0.099369
H	-2.7768432994	-3.6453496341	 0.3533516542	 0.076221
H	-0.377419993	-3.9280652902	 0.6081006256	 0.081333
H	 1.3125850095	-2.6992262724	-0.8598212007	 0.125387
H	 0.4175117623	-3.9594321137	-1.7241692577	 0.107438
H	 0.0170899333	-2.2600801723	-1.9640973304	 0.11915
H	-1.267164791	-2.0307896017	 1.7942471376	 0.077621
79.3536	104.5999	115.6213	169.5444	198.4634	233.7145	271.7427	367.4246	432.5846	462.9817	519.395	658.0092	707.2839	743.5901	766.0466	820.4893	869.8397	913.8783	952.9819	975.8321	1000.5788	1019.41	1039.4631	1073.8463	1092.1682	1114.5166	1134.5784	1140.9802	1152.3316	1182.852	1196.5395	1228.771	1236.5498	1247.2564	1292.7585	1329.2626	1339.7315	1352.3546	1372.5361	1397.1215	1422.5883	1448.7635	1479.9212	1481.9729	1489.5189	1494.3519	1502.5135	1510.5646	1511.1181	2947.3791	2967.8788	3013.4343	3034.2905	3037.2036	3059.9742	3064.5044	3093.9311	3100.3534	3107.8368	3112.3445	3145.6586	3152.1133	3166.1261
COC1CCC2C(C)C12	CO[C@H]1CC[C@H]2[C@@H](C)[C@@H]12	
InChI=1S/C8H14O/c1-5-6-3-4-7(9-2)8(5)6/h5-8H,3-4H2,1-2H3	InChI=1S/C8H14O/c1-5-6-3-4-7(9-2)8(5)6/h5-8H,3-4H2,1-2H3/t5-,6+,7+,8-/m1/s1
