14
gdb 123593	2.84907	1.63078	1.21828	3.2781	75.59	-0.2326	-0.0709	0.1617	983.0761	0.102136	-432.802742	-432.795875	-432.79493	-432.834426	26.063	
C	-0.0015882615	 1.4890793709	-0.13030917	-0.187357
C	 1.5313469607	 1.423541759	 0.1235002432	-0.151857
C	 1.1567436157	 0.1302530454	 0.9017978392	-0.187366
N	 0.0582853706	-0.0420884593	-0.1528227067	-0.192672
C	 0.9101806203	-0.208069991	-1.3273861867	 0.285285
C	 1.9885614972	 0.7936097144	-1.2189987539	 0.357064
O	 2.9276388138	 1.059438795	-1.9227883559	-0.341269
N	 0.5638310617	-1.8410837765	-3.0876568801	-0.233296
N	 0.7010698425	-1.0861184617	-2.2480117665	 0.051345
H	-0.5793628269	 1.8253447743	 0.7339844683	 0.125603
H	-0.3749742312	 1.9430686913	-1.0502580388	 0.126021
H	 2.1438656405	 2.237409428	 0.5075681376	 0.096882
H	 1.8720858198	-0.6929140504	 0.9519259906	 0.126019
H	 0.7064797169	 0.3168934806	 1.8797185898	 0.1256
90.8881	145.8942	197.7387	390.7682	496.492	498.9838	528.4284	555.9341	603.844	713.5075	740.4841	815.5431	840.8968	850.9554	861.2791	969.1952	1013.2907	1017.722	1067.9108	1091.6706	1159.651	1184.1779	1189.9794	1234.978	1250.2931	1294.0223	1431.566	1493.0886	1528.7674	1840.7673	2194.1153	3063.3601	3068.6178	3133.4632	3135.864	3138.5497
C1C2CN1C1=C2ON=N1	C1[C@H]2CN1[C](C2=O)[N][N]	
InChI=1S/C5H5N3O/c1-3-2-8(1)5-4(3)9-7-6-5/h3H,1-2H2	InChI=1S/C5H5N3O/c6-7-5-4(9)3-1-8(5)2-3/h3H,1-2H2
