21
gdb 92855	2.76273	1.60695	1.18011	1.3016	83.89	-0.2349	0.0189	0.2538	1112.454	0.184596	-387.107921	-387.099773	-387.098829	-387.140754	31.693	
C	-0.0713391968	 1.5506424817	 0.0001334493	-0.37898
C	 0.0069475165	 0.0212114864	-0.0076505009	-0.041566
C	 0.9391068185	-0.5035037478	-1.1526132214	-0.259011
C	 2.2883478268	-0.6534392598	-0.4721022797	-0.235908
C	 2.1437418625	-0.6807268829	 0.8486505333	 0.361251
C	 2.9829964153	-0.5678645009	 2.0851775741	-0.38195
C	 1.9284507383	-0.0508743584	 3.1198167462	-0.066541
O	 0.7492525482	 0.308387801	 2.3975975161	-0.268891
C	 0.7003124022	-0.5406887168	 1.2542975794	 0.064678
H	 0.9272848467	 1.9944649286	 0.0581246579	 0.116383
H	-0.5520576655	 1.9095160386	-0.9156413952	 0.103108
H	-0.6434927853	 1.9117468335	 0.8579190371	 0.126763
H	-1.0033913938	-0.3859963393	-0.1128865891	 0.066742
H	 0.5774320861	-1.4599050285	-1.5555899402	 0.102452
H	 0.9744895548	 0.1917282801	-1.9999899737	 0.099795
H	 3.2236399708	-0.692211024	-1.0199546837	 0.089922
H	 3.4095258809	-1.5242055962	 2.4070903107	 0.115811
H	 3.8139016358	 0.1315102689	 1.9560765477	 0.121666
H	 1.6978819918	-0.8403824444	 3.8509555405	 0.092784
H	 2.2626024407	 0.8333274891	 3.6689638347	 0.110113
H	 0.2590949054	-1.5130640588	 1.5419999567	 0.061378
72.0451	115.8849	208.9555	235.2252	260.8915	321.698	393.9227	448.0589	594.4642	650.2864	708.513	731.5852	777.6202	839.356	851.3042	881.5985	916.8125	929.3854	946.6883	975.6953	1003.939	1038.6006	1059.8643	1079.9558	1100.4064	1123.8806	1174.8525	1206.1821	1215.2194	1245.4215	1253.3661	1259.6247	1289.747	1321.2237	1352.0906	1355.6494	1372.9504	1390.0045	1410.0543	1479.1152	1485.5591	1494.0879	1497.4774	1517.3941	1744.7957	2919.9182	2986.7409	3006.2867	3039.3083	3044.2066	3048.6636	3056.4481	3079.3585	3096.2093	3107.0281	3124.2319	3188.2108
CC1CC=C2CCOC12	C[C@H]1CC=C2CCO[C@@H]12	
InChI=1S/C8H12O/c1-6-2-3-7-4-5-9-8(6)7/h3,6,8H,2,4-5H2,1H3	InChI=1S/C8H12O/c1-6-2-3-7-4-5-9-8(6)7/h3,6,8H,2,4-5H2,1H3/t6-,8-/m0/s1
