16
gdb 80086	2.41016	1.80231	1.43153	2.7248	69.51	-0.2629	-0.0229	0.24	956.4251	0.125425	-437.920763	-437.913234	-437.91229	-437.952864	28.503	
C	-0.262389258	 1.5153278856	-0.0215704661	-0.422262
C	 0.0228735264	 0.0322898421	 0.0334521878	-0.033323
C	 1.3658344082	-0.5830909786	-0.2475533514	-0.020874
N	 2.4955528159	 0.2508245047	-0.4725288249	-0.224666
C	 2.9128817751	 0.9663384087	 0.4771800079	 0.113427
O	 2.447448803	 1.0247800792	 1.7679542097	-0.217368
C	 1.4773415253	 0.1291430748	 2.2136643658	 0.443616
O	 1.301490732	 0.0352003595	 3.3928038753	-0.31462
C	 0.7792949392	-0.6491333458	 1.1714979843	-0.230113
H	 0.5779081113	 2.1242703617	 0.315676438	 0.140941
H	-0.5006844119	 1.8147363453	-1.0469607833	 0.133241
H	-1.1223277769	 1.7581338524	 0.61027328	 0.134973
H	-0.8046293761	-0.5811052916	-0.3127148822	 0.112413
H	 1.3822200302	-1.4973006093	-0.8305268783	 0.114511
H	 3.7508271845	 1.6470515265	 0.3581417643	 0.145467
H	 0.3698186118	-1.5760883253	 1.5538088931	 0.124638
106.282	150.0592	164.5208	225.9665	369.8796	429.8512	436.7392	536.7713	559.9462	643.5309	719.3284	738.8341	795.1323	844.6248	909.1508	933.681	949.7006	968.2982	1010.7398	1018.8674	1077.5073	1126.616	1143.0247	1176.2906	1195.4544	1246.9047	1356.3557	1373.8775	1413.2221	1418.4508	1427.593	1491.5566	1502.822	1736.3532	1867.0294	3047.368	3107.5361	3133.0131	3150.7315	3170.1704	3188.9421	3192.3794
CC1C2N=COC(=O)C12	C[C@H]1[C@H]2N=COC(=O)[C@@H]12	
InChI=1S/C6H7NO2/c1-3-4-5(3)7-2-9-6(4)8/h2-5H,1H3	InChI=1S/C6H7NO2/c1-3-4-5(3)7-2-9-6(4)8/h2-5H,1H3/t3-,4+,5-/m1/s1
