17
gdb 90389	2.14367	1.55058	1.31093	4.3027	73.2	-0.2379	0.0309	0.2688	1059.9086	0.13527	-417.968123	-417.959458	-417.958514	-418.001087	32.67	
C	-0.2733269322	 1.5302081837	-0.0632987933	-0.417574
C	 0.0395855191	 0.0470685633	 0.0044083548	-0.026506
N	 1.1958039666	-0.4451421643	-0.8360117519	-0.331661
C	 1.6845695572	-1.2345064126	 0.3036330451	-0.079597
C	 2.1829932757	-0.277481098	 1.3751551807	-0.258635
C	 2.8113778136	 0.9849300359	 1.0951522999	 0.318279
N	 3.3328926806	 2.0005484722	 0.9070820113	-0.355387
C	 0.6914292514	-0.599876031	 1.2407855148	 0.328197
O	-0.0061325014	-1.1548037293	 2.2887501026	-0.450504
H	 0.6134169022	 2.1374964888	 0.1254165776	 0.160488
H	-0.659814698	 1.7919517693	-1.0535961088	 0.123663
H	-1.0444410121	 1.7871152732	 0.6719293932	 0.112385
H	-0.8606174327	-0.5439499135	-0.2058689621	 0.093814
H	 0.8761937553	-1.0409837756	-1.5921817675	 0.231081
H	 2.0698268841	-2.2426642538	 0.2157200727	 0.118556
H	 2.6027687332	-0.7983433396	 2.2318869735	 0.137509
H	-0.1422220825	-0.4802225888	 2.9648080774	 0.295891
127.0165	129.7397	195.3385	201.5081	231.828	280.6427	348.5546	388.0983	413.0537	472.2188	575.8866	607.0478	644.4139	720.5784	793.7006	819.8239	866.2261	910.099	959.7682	996.4895	1018.3727	1053.6057	1087.901	1116.8463	1138.7818	1204.0209	1216.7909	1249.4547	1320.6853	1330.6289	1358.8124	1387.213	1415.5848	1478.5578	1489.5016	1501.0093	2349.035	3028.7059	3039.314	3099.0668	3145.3291	3154.8669	3197.5068	3532.6792	3780.4298
CC1NC2C(C#N)C12O	C[C@H]1N[C@H]2[C@@H](C#N)[C@@]12O	
InChI=1S/C6H8N2O/c1-3-6(9)4(2-7)5(6)8-3/h3-5,8-9H,1H3	InChI=1S/C6H8N2O/c1-3-6(9)4(2-7)5(6)8-3/h3-5,8-9H,1H3/t3-,4-,5+,6+/m1/s1
