19
gdb 5947	2.92704	1.48232	1.27983	4.6585	71.71	-0.265	0.0346	0.2996	1054.5423	0.162559	-365.077244	-365.067559	-365.066614	-365.111484	34.682	
C	 0.1069778021	 1.3682340049	 0.0979833434	-0.245904
O	-0.0497888579	-0.0293475933	-0.0245694738	-0.270459
C	-1.3746777362	-0.561122446	 0.0068313301	 0.348739
C	-2.1537072724	-0.1236107555	 1.2548170774	-0.433046
C	-2.1396959803	-0.2040330773	-1.2773267955	-0.421888
C	-1.1288277147	-2.0909425615	 0.0209466752	-0.351904
C	-0.4332607622	-2.5551672111	 1.2191750026	 0.278437
N	 0.0988273836	-2.9341026691	 2.1721934535	-0.320677
H	 1.1749194401	 1.5653891777	-0.0211731367	 0.135588
H	-0.4354448905	 1.9265900295	-0.6778257422	 0.10612
H	-0.2057546175	 1.7418206916	 1.0817414092	 0.115557
H	-2.3823873954	 0.9448931605	 1.2253655625	 0.120641
H	-3.1055744344	-0.660308871	 1.3139402195	 0.120363
H	-1.5821595489	-0.3353735127	 2.1621127349	 0.150891
H	-1.5651917562	-0.5008942015	-2.1596030325	 0.125074
H	-3.1108186457	-0.7076617319	-1.305908801	 0.119239
H	-2.3283617891	 0.8710743478	-1.3364935722	 0.123386
H	-2.081613431	-2.623743187	-0.0615618353	 0.144358
H	-0.5252249334	-2.3512482243	-0.8543641493	 0.155485
72.9611	79.5176	141.851	188.5838	241.8677	254.3312	288.2989	316.2649	354.6617	393.0727	394.2735	432.7627	466.8951	603.4987	742.4394	855.456	883.5299	925.6965	949.2184	1000.4691	1019.5635	1116.906	1168.0174	1179.3753	1191.1012	1212.9401	1258.4966	1293.5478	1339.5031	1397.9134	1417.2654	1451.4907	1475.7076	1481.0376	1484.7071	1496.5046	1503.0393	1510.7024	1515.9585	2363.9887	2998.3405	3039.9932	3047.2596	3053.636	3056.114	3099.7741	3111.3366	3116.1617	3118.5209	3120.2579	3130.4337
COC(C)(C)CC#N	COC(C)(C)CC#N	
InChI=1S/C6H11NO/c1-6(2,8-3)4-5-7/h4H2,1-3H3	InChI=1S/C6H11NO/c1-6(2,8-3)4-5-7/h4H2,1-3H3
