17
gdb 101985	2.30509	1.12678	0.85609	0.668	79.78	-0.2288	-0.0727	0.1561	1372.6264	0.132602	-417.972519	-417.962093	-417.961149	-418.009162	35.593	
C	 0.154335992	 1.3368042789	 0.3858099233	-0.3099
N	-0.0128276317	-0.0146775258	-0.0934841004	-0.303571
C	 0.5643173918	-0.4606175373	-1.2345415259	 0.279682
C	 0.1920536394	-1.9004343894	-1.5315430258	 0.116618
O	-0.5590543251	-2.5282000583	-0.8239098377	-0.265365
N	 1.3318630889	 0.2961282859	-1.9355986915	-0.302016
C	 1.9586684062	-0.211841839	-3.1588217858	-0.321082
C	 1.0205848649	-0.4683340354	-4.2538686783	 0.312646
C	 0.2280084371	-0.6836809518	-5.1322108156	-0.462748
H	 1.2105450461	 1.555230311	 0.5792001325	 0.139576
H	-0.1987308358	 2.0657107739	-0.3531800527	 0.140082
H	-0.4116989203	 1.4584282404	 1.311044829	 0.123919
H	-0.6279979187	-0.6629814762	 0.3706322115	 0.263679
H	 0.6405551659	-2.3450539932	-2.4351585276	 0.119014
H	 2.6748774326	 0.5503236165	-3.4864384661	 0.141776
H	 2.5585356908	-1.1172865248	-2.9778609435	 0.126842
H	-0.466963994	-0.8668502255	-5.9139997254	 0.200848
46.8016	57.8532	72.2087	129.2512	190.9319	192.1706	231.9228	264.0375	327.3105	350.1944	433.0461	496.3468	573.083	610.0597	623.4911	650.2695	686.9634	814.546	932.0687	1003.7416	1014.7044	1038.6383	1128.6457	1160.7821	1205.2143	1239.0318	1320.6552	1351.4104	1416.3958	1456.4858	1470.8926	1497.0707	1512.0354	1556.869	1698.0698	1799.7927	2230.4107	2979.4769	3007.1798	3026.7581	3047.6424	3075.5367	3134.4305	3504.4876	3646.5539
CNC(C=O)=NCC#C	CNC(=NCC#C)C=O	
InChI=1S/C6H8N2O/c1-3-4-8-6(5-9)7-2/h1,5H,4H2,2H3,(H,7,8)	InChI=1S/C6H8N2O/c1-3-4-8-6(5-9)7-2/h1,5H,4H2,2H3,(H,7,8)
