22
gdb 122888	4.62002	0.50515	0.46911	5.1422	83.98	-0.2712	0.0384	0.3097	2280.5051	0.192591	-404.368329	-404.357195	-404.356251	-404.405851	38.674	
C	-0.0719206331	 1.5823112489	 0.1751895528	-0.389782
C	 0.0508897838	 0.0519214363	 0.0355666861	-0.144799
C	 0.7320812382	-0.4022164961	-1.2788345123	-0.17964
C	-0.0623661161	-0.0503131397	-2.5415060299	-0.20433
C	 0.5947107668	-0.598406531	-3.8122674634	-0.169031
C	-0.1766449839	-0.2477939875	-5.0782108065	-0.074578
O	 0.5241584235	-0.8005433438	-6.1808438263	-0.419624
C	 0.7784725671	-0.4981581237	 1.1852933793	 0.265117
N	 1.3626250491	-0.927480447	 2.0856765594	-0.324123
H	 0.9130669134	 2.0550275238	 0.1199047502	 0.136455
H	-0.6971281603	 1.9887384619	-0.6229152364	 0.128443
H	-0.524761324	 1.8502515181	 1.1328149036	 0.138445
H	-0.9576437711	-0.3822829085	 0.0659737827	 0.124894
H	 1.7332751134	 0.0429600334	-1.3292653137	 0.116249
H	 0.8791327862	-1.4871980458	-1.2355313097	 0.119814
H	-1.0818986469	-0.4511581863	-2.4520428583	 0.097986
H	-0.1665835453	 1.038054261	-2.6298793562	 0.103382
H	 1.6145874943	-0.2065503388	-3.9088368271	 0.109989
H	 0.6849424251	-1.6896250496	-3.7512195595	 0.110274
H	-1.2012874057	-0.6502293491	-5.0130267335	 0.084327
H	-0.2642315453	 0.8477778075	-5.1686675567	 0.083826
H	 0.0414277709	-0.586219164	-6.9842927346	 0.286707
53.5741	56.4793	83.26	130.9686	138.4417	171.9483	209.5075	248.3077	265.9717	288.5577	357.6549	367.8875	495.7472	555.8053	582.6214	744.0328	791.3779	825.1015	913.5692	920.1856	1006.8593	1020.1078	1027.1339	1062.4298	1076.3199	1101.062	1124.9589	1184.2297	1213.2998	1229.3518	1275.5062	1290.46	1316.3048	1327.3478	1330.3997	1347.1522	1372.0379	1403.1053	1415.5584	1465.3667	1481.6821	1490.2268	1497.9576	1501.928	1507.4792	1528.9938	2355.5177	2955.5953	2980.6186	3010.012	3020.2777	3031.4997	3038.2758	3045.5539	3051.9933	3073.1095	3086.6127	3125.537	3133.0673	3831.5697
CC(CCCCO)C#N	C[C@@H](CCCCO)C#N	
InChI=1S/C7H13NO/c1-7(6-8)4-2-3-5-9/h7,9H,2-5H2,1H3	InChI=1S/C7H13NO/c1-7(6-8)4-2-3-5-9/h7,9H,2-5H2,1H3/t7-/m0/s1
