20
gdb 110912	2.23765	1.47309	1.09717	3.172	79.09	-0.2334	-0.0266	0.2067	1190.8616	0.1699	-403.105957	-403.096998	-403.096054	-403.139928	33.156	
C	 1.2435539677	 0.9549517513	 0.7166120826	-0.388922
C	 0.0936920514	 0.2900721909	-0.0516555241	-0.206993
C	 0.6084526113	-0.4062220526	-1.294669191	 0.035875
C	 1.0169345895	-1.8213923251	-1.3961842657	-0.038711
C	 0.1108537592	-2.7553428267	-0.5902670601	-0.300082
C	-1.0483081708	-2.1907808594	-1.4667089901	-0.038436
C	-2.3068305339	-1.6549163168	-0.8376373357	 0.15446
O	-2.7384159731	-0.5376504615	-0.9555743004	-0.241855
N	-0.1451164627	-1.2732519075	-2.231790382	-0.170109
H	 1.9834464516	 0.2166952387	 1.0440355372	 0.116892
H	 1.7636146336	 1.690790769	 0.0937308968	 0.119311
H	 0.8710169565	 1.4746113276	 1.6041220873	 0.117265
H	-0.4267292536	-0.4046584914	 0.6134844999	 0.094965
H	-0.6497859715	 1.0367312836	-0.3474245315	 0.130532
H	 1.2306098638	 0.2549892373	-1.8978767838	 0.097046
H	 1.9435194497	-2.1375287152	-1.8647635548	 0.097869
H	 0.2999672988	-3.814380283	-0.7672457116	 0.11893
H	 0.0689859539	-2.5821125732	 0.4890158671	 0.114061
H	-1.3884744961	-2.9724632669	-2.1604312237	 0.114454
H	-2.8563693154	-2.4279841791	-0.2467716465	 0.073449
78.3215	103.8213	137.8734	166.1228	219.8758	255.6369	293.7688	354.5821	446.9941	520.529	676.4718	711.1863	729.0546	780.635	802.6069	845.9667	891.5768	901.7628	982.9742	1002.6232	1011.5133	1035.4702	1074.7664	1097.8298	1107.3154	1119.9032	1149.2426	1170.4729	1243.1731	1251.5628	1274.2528	1289.3351	1332.6059	1352.2424	1362.0871	1410.1836	1420.2459	1453.5322	1475.1733	1499.1094	1502.6249	1509.6273	1831.2499	2835.7198	3012.8904	3033.1177	3056.8109	3062.5886	3083.7517	3103.0075	3109.5248	3115.1995	3127.3438	3161.4349
CCC1C2CC(C=O)N12	CC[C@H]1[C@H]2C[C@@H](C=O)N12	
InChI=1S/C7H11NO/c1-2-6-7-3-5(4-9)8(6)7/h4-7H,2-3H2,1H3	InChI=1S/C7H11NO/c1-2-6-7-3-5(4-9)8(6)7/h4-7H,2-3H2,1H3/t5-,6-,7+,8?/m0/s1
