17
gdb 85201	2.57037	1.22057	0.86729	2.7559	74.31	-0.2465	-0.0434	0.2031	1284.1253	0.134322	-418.011932	-418.002876	-418.001932	-418.046469	32.107	
C	-0.168152383	 1.5180569529	 0.0497573753	-0.340291
N	-0.0899700531	 0.0688597314	 0.0600739766	-0.086777
C	-1.3058214237	-0.6933173331	 0.427330572	-0.286244
C	-0.4026243287	-1.6038650247	 1.2669217389	 0.383736
O	-0.4974596341	-2.6716374506	 1.7892321654	-0.284844
C	 0.7364180534	-0.5799739345	 1.098200866	-0.083232
C	 2.1054909228	-1.1128857863	 0.6568116603	-0.343165
C	 3.0642436306	-0.036681687	 0.4190280036	 0.26764
N	 3.798011621	 0.8376992131	 0.2376846578	-0.309615
H	 0.8228166414	 1.9380386125	-0.1409456174	 0.154577
H	-0.8345198327	 1.8445143517	-0.7541469809	 0.131492
H	-0.5466064514	 1.9338496335	 1.002062638	 0.099436
H	-2.0173076616	-0.1397919894	 1.0635518897	 0.122141
H	-1.8522384476	-1.1472905933	-0.4056926787	 0.139845
H	 0.8466510037	 0.0238702709	 2.015680928	 0.107194
H	 2.4969399347	-1.7827207292	 1.4307124657	 0.167295
H	 1.989128068	-1.6968826879	-0.2615079103	 0.16081
57.0198	91.8383	111.9379	204.1379	217.7722	263.6743	288.4036	382.0275	400.1468	449.7202	555.499	571.6234	632.1542	771.0885	822.9001	907.176	956.8265	987.653	1016.2756	1069.0774	1103.3948	1116.4918	1150.9933	1188.6504	1205.9263	1234.9395	1262.7604	1290.4607	1328.9231	1367.703	1451.9619	1455.0509	1477.005	1496.1128	1499.4376	1920.7478	2360.1913	2937.8866	2958.7976	2971.7643	3052.4007	3073.2074	3076.4154	3099.4734	3122.7077
CN1CC(=O)C1CC#N	CN1CC(=O)[C@H]1CC#N	
InChI=1S/C6H8N2O/c1-8-4-6(9)5(8)2-3-7/h5H,2,4H2,1H3	InChI=1S/C6H8N2O/c1-8-4-6(9)5(8)2-3-7/h5H,2,4H2,1H3/t5-/m1/s1
