25
gdb 40819	3.44245	0.98564	0.82652	0.0941	92.71	-0.2655	0.0905	0.3559	1495.6722	0.231813	-352.373304	-352.364482	-352.363538	-352.406811	35.339	
C	-0.2061595153	 1.4084186847	-0.1991222963	-0.278151
C	 1.2351633013	 1.0568666609	 0.0838654041	-0.278151
C	 0.1893984295	-0.0281238771	 0.0319641795	 0.030674
C	-0.2358610012	-0.7582356795	 1.2908966602	 0.031445
C	-1.6703689665	-1.3054995161	 1.1736380414	-0.185989
C	-2.1061104885	-2.0628171873	 2.4365874248	-0.199485
C	-1.1218518907	-3.1881256691	 2.7847070386	-0.175527
C	 0.3110874151	-2.6524331501	 2.9111567903	-0.199485
C	 0.7412588265	-1.8937568961	 1.6471132955	-0.18599
H	-0.7653656343	 1.9107769062	 0.5840115901	 0.107021
H	-0.4734047957	 1.7205608274	-1.202749898	 0.107444
H	 1.9522734758	 1.1289126635	-0.7264945386	 0.107444
H	 1.6376261682	 1.3246658226	 1.0558127417	 0.107021
H	 0.2098831803	-0.6584341393	-0.8553986925	 0.074562
H	-0.2211526853	-0.0314929031	 2.118908722	 0.057411
H	-2.3639237492	-0.4839674685	 0.9603818403	 0.089388
H	-1.719884814	-1.9843583542	 0.3095493294	 0.086326
H	-2.1609682567	-1.3585689023	 3.2787704065	 0.089257
H	-3.1165828473	-2.4667364538	 2.3049813797	 0.086946
H	-1.4255794156	-3.6866249515	 3.7123805028	 0.08633
H	-1.1534079746	-3.9526471455	 1.9955798755	 0.08959
H	 0.3678748322	-1.9754172819	 3.7752585822	 0.089257
H	 1.0087135496	-3.4730004853	 3.114902424	 0.086946
H	 0.7893182925	-2.5964182788	 0.8021826787	 0.086326
H	 1.752216814	-1.487998406	 1.7685025381	 0.089389
82.1748	107.4889	159.46	226.5531	253.6113	332.3731	389.2133	418.4016	447.203	461.2164	519.9686	765.3838	792.6318	800.6429	824.9147	837.8261	879.5852	888.6404	889.1747	920.6434	953.2043	971.6507	1012.4209	1038.5494	1055.5679	1063.3051	1074.6954	1088.1085	1100.1025	1126.9777	1138.9249	1196.4764	1200.6187	1205.0299	1225.6148	1267.6655	1287.1309	1287.8555	1311.6404	1329.9783	1367.1903	1370.4815	1378.9143	1379.3759	1387.4578	1422.3059	1468.2586	1479.7817	1484.0743	1485.0813	1489.8354	1502.6711	1506.1411	2974.7542	2999.6961	3005.6274	3007.2082	3008.7009	3013.2777	3055.4367	3057.0624	3057.8077	3058.6199	3065.0229	3119.5246	3125.3578	3130.7303	3202.8774	3218.0849
C1CC1C1CCCCC1	C1CC1C1CCCCC1	
InChI=1S/C9H16/c1-2-4-8(5-3-1)9-6-7-9/h8-9H,1-7H2	InChI=1S/C9H16/c1-2-4-8(5-3-1)9-6-7-9/h8-9H,1-7H2
