16
gdb 42737	2.68099	1.63479	1.25251	5.4475	73.07	-0.2585	-0.0326	0.2259	1004.5606	0.12637	-400.768827	-400.761711	-400.760767	-400.800581	27.578	
O	-0.0260379957	 0.0545679803	-0.003899872	-0.31131
C	-0.0777311535	 1.2476426153	 0.0248841622	 0.442
C	-1.2631902501	 2.1897885097	 0.0422064885	-0.125913
C	-0.7883386596	 3.2595284405	-0.9999048071	-0.251573
C	 0.2928146413	 3.5619209911	 0.0743985714	-0.023608
C	-0.7959270172	 3.217796911	 1.1300098679	-0.245805
C	 1.1348302781	 2.2610192186	 0.0350342874	-0.271846
C	 2.0310938427	 2.071864471	 1.163453467	 0.283067
N	 2.7312949503	 1.9363836195	 2.0735077976	-0.32544
H	-2.2484700472	 1.7308623216	 0.0285899839	 0.097891
H	-0.4676019608	 2.9176120563	-1.98787361	 0.113592
H	-1.5129565504	 4.0696495634	-1.0964857744	 0.122575
H	 0.8463957852	 4.4984746762	 0.0955543511	 0.09662
H	-1.5226844992	 4.0224299031	 1.2531836016	 0.121645
H	-0.4774578648	 2.8392892594	 2.1039907493	 0.133915
H	 1.7010593509	 2.154064113	-0.8964626044	 0.14419
105.6498	139.0204	184.1425	375.5236	400.6574	465.8809	508.2506	536.8325	621.1783	675.5645	797.3166	810.9489	841.083	868.8185	892.5739	914.8756	992.647	1003.4074	1020.4113	1048.6546	1064.2386	1096.2888	1106.2815	1156.5261	1185.7008	1228.3105	1245.43	1247.5134	1287.5326	1303.3406	1324.0117	1489.8497	1522.5682	1887.8194	2354.5755	3061.602	3064.1904	3073.8088	3131.3787	3136.8172	3139.6797	3159.0305
O=C1C2CC(C2)C1C#N	O=C1[C@@H]2C[C@@H](C2)[C@H]1C#N	
InChI=1S/C7H7NO/c8-3-6-4-1-5(2-4)7(6)9/h4-6H,1-2H2	InChI=1S/C7H7NO/c8-3-6-4-1-5(2-4)7(6)9/h4-6H,1-2H2/t4-,5+,6-/m1/s1
