14
gdb 10379	2.79672	2.02507	1.45308	3.6844	62.47	-0.26	-0.059	0.201	865.5694	0.107116	-378.712422	-378.704884	-378.70394	-378.744522	26.726	
O	-0.0815716922	 0.0117884154	 0.2184831473	-0.239108
C	-0.0065992252	 1.165879314	-0.105007884	 0.118971
C	 1.3091256666	 1.9542650339	-0.029306032	 0.093874
C	 1.377716099	 2.784936252	 1.3040585706	-0.286279
C	 2.3114714643	 1.66102931	 1.813060378	-0.154708
N	 2.4636081602	 1.1640378841	 0.4189949245	-0.331342
C	 1.4862746828	 2.7024520288	-1.2771692208	 0.24519
N	 1.5862749487	 3.3008845617	-2.2609441781	-0.322842
H	-0.8842295351	 1.746341743	-0.4577960317	 0.113835
H	 1.8705455849	 3.7456424359	 1.1586621224	 0.147751
H	 0.4300830084	 2.9330731538	 1.8236252115	 0.130035
H	 3.2518465311	 1.9797449797	 2.269677893	 0.123285
H	 1.8045717301	 0.9598894576	 2.484786434	 0.120748
H	 2.3020330565	 0.16661243	 0.3068376852	 0.240589
101.9081	123.8034	180.5906	189.2737	282.2486	316.1138	514.6738	531.4022	554.0789	659.0622	773.6367	781.9149	882.4282	934.0506	956.2503	976.6375	1026.8826	1090.96	1136.2048	1173.0602	1205.5394	1215.6332	1259.922	1326.7801	1400.1986	1414.7168	1483.6961	1522.8303	1831.3425	2352.0269	2924.5075	3042.4085	3091.4161	3095.4365	3155.3392	3511.7223
O=CC1(CCN1)C#N	O=C[C@]1(CCN1)C#N	
InChI=1S/C5H6N2O/c6-3-5(4-8)1-2-7-5/h4,7H,1-2H2	InChI=1S/C5H6N2O/c6-3-5(4-8)1-2-7-5/h4,7H,1-2H2/t5-/m0/s1
