14
gdb 27186	3.25782	1.31602	0.99863	1.8581	65.98	-0.2216	-0.012	0.2096	1121.7166	0.101448	-473.824653	-473.81716	-473.816216	-473.857326	27.313	
O	-0.3315142979	 1.368367624	 0.1411425306	-0.424422
C	-0.0599117584	 0.0576114094	 0.0203533756	 0.245335
C	 0.2561510968	-0.6262211623	-1.1148104984	 0.261206
O	 0.4515003708	-1.9389440169	-0.726394503	-0.17649
C	 0.2369397454	-1.9455577554	 0.5965037226	 0.077289
N	-0.0673082545	-0.7918015311	 1.1059863677	-0.33856
C	 0.4089282157	-0.2473738473	-2.516304845	-0.052958
C	 1.1070539071	-1.0809928636	-3.5069531614	-0.182262
O	-0.3165128042	-1.0040382527	-3.5068611655	-0.234888
H	-0.5152637307	 1.5333530997	 1.073934133	 0.310265
H	 0.3315747307	-2.8915066081	 1.1058451672	 0.158006
H	 0.3807668166	 0.8301414304	-2.6687009197	 0.115553
H	 1.608353816	-0.6042855294	-4.3488113454	 0.117502
H	 1.5231984166	-2.0370716367	-3.1947194983	 0.124425
64.8378	142.0857	158.062	298.4107	310.2685	355.2906	456.9382	529.5637	628.6042	667.3011	737.0987	750.4149	813.0677	836.5536	910.436	957.6737	993.3605	1068.1235	1094.7184	1158.7295	1164.9352	1181.9232	1211.6788	1273.6383	1298.4603	1326.0733	1402.0525	1466.8913	1520.8349	1552.2224	1723.1224	3083.1657	3134.0309	3174.3239	3278.4061	3807.186
OC1=C(OC=N1)C1CO1	Oc1c(ocn1)[C@H]1CO1	
InChI=1S/C5H5NO3/c7-5-4(3-1-8-3)9-2-6-5/h2-3,7H,1H2	InChI=1S/C5H5NO3/c7-5-4(3-1-8-3)9-2-6-5/h2-3,7H,1H2/t3-/m1/s1
