17
gdb 127957	2.46794	1.62599	0.99225	1.4515	82.21	-0.2253	-0.0635	0.1618	1166.589	0.136395	-414.173478	-414.164982	-414.164038	-414.20654	31.212	
C	-0.0376294252	 1.4402747955	 0.0508084781	-0.346611
N	-0.0335700419	-0.0099589984	 0.0641806911	-0.316976
C	 0.5234187503	-0.6255019574	-0.909771561	 0.392072
N	 1.1427887945	-0.0161183835	-2.0111802754	-0.320328
N	 1.7452941959	-0.6100602038	-3.0663736374	-0.04322
N	 1.7803634107	-1.8755530867	-3.1103516899	-0.219905
C	 1.2026638619	-2.6068398261	-2.0802836726	-0.045958
C	 0.5854299124	-2.0767022467	-0.9986247567	 0.200725
C	-0.0291658108	-2.8847365161	 0.0970057491	-0.480612
H	 0.9782300132	 1.8704463771	 0.0551570523	 0.110774
H	-0.5680633425	 1.8580625881	-0.8216215959	 0.110757
H	-0.5472806406	 1.8080753039	 0.9444349872	 0.131682
H	 1.1711645038	 0.9899059272	-2.0756142435	 0.275663
H	 1.286042577	-3.680319662	-2.2120184389	 0.124276
H	 0.086102818	-3.9553268931	-0.0860598086	 0.122476
H	 0.4262435991	-2.6274884317	 1.0589021323	 0.15263
H	-1.0927477357	-2.6436504561	 0.1949460897	 0.152554
110.1868	155.0761	182.1757	194.3548	205.5792	252.6961	300.9937	453.053	511.6852	514.1477	554.3437	615.6315	686.0393	753.6979	767.7184	906.3439	934.5065	1011.7166	1047.6054	1065.4057	1077.1374	1106.1519	1144.7143	1160.5621	1199.4788	1275.5565	1384.2353	1410.0506	1430.3774	1447.471	1461.8804	1476.8611	1498.0452	1508.8055	1556.7674	1648.1662	1717.4942	2949.827	2992.0552	3041.9716	3097.8894	3102.4689	3132.2727	3191.8958	3635.3032
CN=C1NN=NC=C1C	CN=C1N[N]N=C[C@@H]1C	
InChI=1S/C5H8N4/c1-4-3-7-9-8-5(4)6-2/h3H,1-2H3,(H,6,7,8)	InChI=1S/C5H9N4/c1-4-3-7-9-8-5(4)6-2/h3-4H,1-2H3,(H,6,7,8)/t4-/m0/s1
