19
gdb 93533	2.77438	1.33137	1.0735	1.7763	70.94	-0.2407	-0.0157	0.2249	1148.4183	0.159564	-460.196517	-460.187836	-460.186892	-460.229691	33.452	
O	 0.0243448491	 1.4419468423	 0.0126225038	-0.447151
C	 0.0423874266	 0.0277476045	 0.0004413625	 0.143707
C	 0.8449424798	-0.544600507	 1.1791336197	-0.225513
C	 0.8516815727	-2.0851759068	 1.1765539877	-0.312078
C	-0.5584089095	-2.6521721635	 1.1010131472	 0.406108
O	-0.9688543008	-3.5108836845	 1.8440428157	-0.306122
C	-1.4171884654	-2.0582558965	-0.0129274707	-0.335357
C	-1.3916855279	-0.523156773	-0.0029582336	 0.073398
O	-1.9889385148	 0.0027331961	 1.1839186215	-0.443468
H	-0.6064484873	 1.6903757657	 0.70041171	 0.288196
H	 0.5217812569	-0.2620182836	-0.9433831395	 0.082662
H	 1.8663642406	-0.1563186543	 1.1370444104	 0.109456
H	 0.3966708316	-0.1824925317	 2.1104571882	 0.11993
H	 1.3970845724	-2.444158211	 0.2911216051	 0.115538
H	 1.348225017	-2.494907738	 2.0587880524	 0.122947
H	-1.0185589416	-2.4093253099	-0.9753020096	 0.121393
H	-2.4371420977	-2.4435160981	 0.0799019617	 0.112288
H	-1.9120055654	-0.1334596586	-0.8892984871	 0.078921
H	-2.9211984962	-0.233335732	 1.1972734845	 0.295146
83.7086	119.0719	203.4547	260.8649	273.7252	338.1385	355.4766	380.4972	445.0142	462.8197	498.2147	541.596	640.1794	710.6419	744.1161	799.4811	865.0233	922.925	965.637	978.0483	1025.2596	1054.0799	1094.387	1108.3932	1136.3745	1168.4746	1202.4755	1241.0618	1255.33	1277.255	1300.1658	1335.3448	1346.4894	1380.9105	1385.3411	1422.5492	1443.2167	1458.2875	1470.2281	1492.1116	1825.069	3000.102	3008.8576	3022.3286	3034.5606	3053.5421	3087.993	3100.0333	3109.9408	3778.9316	3832.9277
OC1CCC(=O)CC1O	O[C@H]1CCC(=O)C[C@H]1O	
InChI=1S/C6H10O3/c7-4-1-2-5(8)6(9)3-4/h5-6,8-9H,1-3H2	InChI=1S/C6H10O3/c7-4-1-2-5(8)6(9)3-4/h5-6,8-9H,1-3H2/t5-,6+/m0/s1
