18
gdb 89932	3.16248	1.33979	1.10056	1.9881	79.3	-0.2304	0.0209	0.2513	1138.4201	0.146624	-401.867225	-401.858752	-401.857807	-401.900106	32.597	
C	 0.2953759301	 1.6251457358	-0.002156393	-0.394114
C	 0.0567648897	 0.1289798255	 0.0594210126	 0.037083
N	 0.8900300768	-0.6864970244	-0.8847744631	-0.381247
C	 1.269626512	-1.6422134846	 0.1999184598	 0.173718
C	 2.6113145518	-1.2210368548	 0.8422259165	-0.101539
O	 1.9439777934	-0.2392477079	 1.6731276723	-0.291198
C	 0.6418613939	-0.6686292939	 1.2487653305	 0.024269
C	 0.9494826608	-3.0291991473	 0.0122723563	 0.187266
C	 0.6812717791	-4.1887793874	-0.1648448279	-0.423126
H	 1.3450650832	 1.8454623959	 0.2042045495	 0.136396
H	 0.0448577682	 2.013092102	-0.9945482547	 0.115965
H	-0.3243304235	 2.1481784132	 0.7344329508	 0.113104
H	-1.0146961723	-0.0994277479	-0.0331132499	 0.073388
H	 0.3555323496	-1.1295475424	-1.6235391109	 0.224288
H	 3.0871677826	-1.9977906521	 1.4520801079	 0.107814
H	 3.3281781688	-0.7717011477	 0.1490970569	 0.115073
H	-0.0084874387	-0.9445047352	 2.0811233842	 0.087472
H	 0.4459256943	-5.2137633968	-0.3134112679	 0.195389
92.1135	142.23	175.6539	214.5172	231.4785	343.5679	398.3804	433.6274	511.4218	549.4936	613.0513	626.3579	637.5292	647.8358	755.5593	813.6426	898.2465	907.2169	951.493	977.8508	1015.2273	1033.2682	1062.7549	1099.2018	1112.6952	1153.5752	1175.3294	1185.2451	1223.0873	1290.9301	1319.2771	1346.563	1366.1196	1395.328	1413.4991	1485.7794	1494.5243	1501.4342	2230.8234	2997.1098	3027.9907	3038.2218	3093.0977	3099.3594	3103.0805	3133.479	3500.0076	3542.0852
CC1NC2(COC12)C#C	C[C@H]1N[C@]2(CO[C@@H]12)C#C	
InChI=1S/C7H9NO/c1-3-7-4-9-6(7)5(2)8-7/h1,5-6,8H,4H2,2H3	InChI=1S/C7H9NO/c1-3-7-4-9-6(7)5(2)8-7/h1,5-6,8H,4H2,2H3/t5-,6+,7+/m1/s1
