27
gdb 101674	2.87159	0.69771	0.6483	1.3006	93.2	-0.2615	0.0715	0.333	1954.3558	0.249306	-390.708611	-390.69641	-390.695466	-390.74697	44.114	
C	 0.4115272936	 1.8724445216	-2.1160744888	-0.38813
C	 0.0960293229	 0.3773840663	-2.2339022408	-0.166616
C	 0.7993545221	-0.5120568279	-1.1896618646	 0.052578
C	 0.3148345809	-0.2101170223	 0.2359814053	-0.402069
C	 0.6175238717	-2.0101256485	-1.5031850422	-0.213249
C	 1.397040779	-2.5268751496	-2.7205859821	 0.125877
O	 2.7932463622	-2.2436161584	-2.603393775	-0.426442
C	 1.1523252163	-4.0221977902	-2.9669701652	-0.183241
C	 1.8670705907	-4.5537421155	-4.2113770843	-0.381918
H	 0.0592808462	 2.2951858303	-1.1703649179	 0.115624
H	 1.4906102157	 2.0520967221	-2.1793699009	 0.116574
H	-0.0659295414	 2.4369407982	-2.9233537499	 0.109337
H	-0.9900530127	 0.2235518245	-2.1578645944	 0.086908
H	 0.3791164741	 0.0453470804	-3.2393359295	 0.096738
H	 1.8757693024	-0.3017817831	-1.2407457535	 0.080604
H	-0.7582098061	-0.4152035707	 0.3381438499	 0.10833
H	 0.8402400147	-0.8305975203	 0.97001926	 0.104957
H	 0.480418945	 0.8349589424	 0.5125852634	 0.113429
H	 0.9353329829	-2.5987572429	-0.6289481044	 0.074539
H	-0.4497627748	-2.2324590991	-1.6411647752	 0.089867
H	 1.0909829436	-1.9752931225	-3.6182157373	 0.087566
H	 3.1145001723	-2.7016008362	-1.8178982697	 0.274393
H	 1.483050993	-4.5796195838	-2.0778206205	 0.082504
H	 0.0718052976	-4.1952653256	-3.0478695504	 0.094833
H	 1.4851271046	-4.0734328553	-5.1191211297	 0.113031
H	 2.9390085978	-4.3473415541	-4.1552189799	 0.126811
H	 1.7263809956	-5.63331504	-4.3207342823	 0.107165
32.4193	64.0693	75.8235	126.8008	136.1155	213.8879	217.7269	237.6962	240.5099	289.1205	304.9081	316.6985	354.1618	415.851	455.5305	507.8565	551.2048	767.6649	777.8274	797.2214	849.6169	899.3177	935.8697	969.1075	984.0386	990.7364	1027.5383	1045.3244	1059.0203	1092.7795	1114.803	1135.8377	1173.9074	1179.3003	1225.8672	1266.6241	1282.7423	1302.6503	1326.6636	1350.9593	1360.983	1378.4804	1392.1347	1397.325	1406.038	1408.646	1416.3021	1420.9862	1470.4103	1480.9954	1485.1061	1495.2547	1495.4022	1501.1152	1506.0953	1509.4806	1511.142	2986.5715	2999.8887	3005.392	3019.593	3024.6099	3032.4833	3033.9087	3036.6999	3039.5064	3054.1668	3058.7315	3086.5537	3098.1216	3100.4175	3102.5799	3111.2145	3121.9533	3788.5071
CCC(C)CC(O)CC	CC[C@@H](C)C[C@@H](O)CC	
InChI=1S/C8H18O/c1-4-7(3)6-8(9)5-2/h7-9H,4-6H2,1-3H3	InChI=1S/C8H18O/c1-4-7(3)6-8(9)5-2/h7-9H,4-6H2,1-3H3/t7-,8+/m1/s1
