18
gdb 11986	2.70827	2.12161	1.80655	1.8629	66.6	-0.2472	0.0764	0.3236	848.0408	0.152162	-384.904654	-384.896608	-384.895664	-384.9364	31.072	
C	-0.0376231128	 1.5572978083	-0.038890705	-0.445981
C	-0.0017184855	 0.0348019679	-0.0116254208	 0.245212
C	-1.3820615493	-0.5766783789	 0.2223985965	-0.452898
C	 0.738746348	-0.6475094007	-1.178434727	 0.003894
O	 2.1079613892	-0.2151395735	-1.1425263585	-0.26872
C	 1.7061427913	-1.3002372292	-0.2844602884	-0.024391
C	 1.0966618107	-0.62320325	 0.9506307526	 0.080188
O	 1.9461539191	 0.2159025893	 1.6802942386	-0.4306
H	 0.9313898744	 1.9709636566	-0.3285418905	 0.119964
H	-0.7848427989	 1.9169505274	-0.7552514738	 0.110445
H	-0.2949652248	 1.9550854403	 0.947866318	 0.124656
H	-2.0846997961	-0.2813846287	-0.565132094	 0.115809
H	-1.3408006006	-1.6717925519	 0.2375129788	 0.113326
H	-1.7947671528	-0.243641692	 1.180690507	 0.124394
H	 0.3518144949	-0.9734267441	-2.1380791793	 0.101163
H	 2.2567082674	-2.2294796438	-0.37847999	 0.105439
H	 0.6411843105	-1.3200789811	 1.6589917151	 0.086555
H	 2.4781957853	 0.6908751439	 1.0292653908	 0.291545
129.4045	183.6347	233.6512	244.3938	266.511	298.3862	329.8124	436.6817	491.5663	540.7065	595.9762	675.2922	783.7255	842.8186	857.5228	868.8601	910.6877	956.9255	968.9826	997.1014	1021.4764	1057.0953	1121.7637	1171.5558	1194.2296	1209.7726	1227.7214	1269.6907	1292.3826	1313.9656	1374.5208	1399.224	1421.5533	1439.8742	1480.3725	1489.4888	1499.7567	1511.57	3022.1921	3034.5513	3081.903	3089.1876	3096.067	3099.5739	3120.346	3172.0214	3188.1836	3778.8837
CC1(C)C2OC2C1O	CC1(C)[C@H]2O[C@H]2[C@H]1O	
InChI=1S/C6H10O2/c1-6(2)4(7)3-5(6)8-3/h3-5,7H,1-2H3	InChI=1S/C6H10O2/c1-6(2)4(7)3-5(6)8-3/h3-5,7H,1-2H3/t3-,4+,5-/m0/s1
