17
gdb 74559	2.49283	1.61027	1.28253	2.9912	78.07	-0.2362	-0.007	0.2292	1040.9386	0.136652	-380.870479	-380.862524	-380.86158	-380.902981	30.108	
C	-0.0506984136	 1.5110198097	 0.0468779965	-0.495233
C	-0.0540227716	 0.0190448659	-0.0056287786	 0.320453
C	-0.0151790336	-0.7774715836	-1.0779934659	-0.188552
C	 0.0406839702	-2.2033218861	-0.6614362854	-0.068013
C	 1.2465524371	-2.6418509707	 0.1330050038	-0.176197
C	 2.4272881186	-1.821406139	 0.2001697033	 0.313109
N	 3.3884467491	-1.1843390061	 0.29693323	-0.35031
N	-0.0088333366	-2.2420488055	 0.8105464959	-0.114913
C	-0.0697809544	-0.8287300568	 1.2533798357	-0.264066
H	 0.8575373496	 1.87982268	 0.538913439	 0.147249
H	-0.0956887047	 1.9494293999	-0.9528931681	 0.132419
H	-0.9007893378	 1.8886457156	 0.6286291061	 0.130008
H	-0.0008355572	-0.4603111267	-2.112739889	 0.107308
H	-0.5082145899	-2.9677075078	-1.2056300878	 0.109504
H	 1.4526105099	-3.7051544826	 0.2248344249	 0.13653
H	 0.7650743262	-0.5970441321	 1.9258590066	 0.138071
H	-0.9943812012	-0.688683944	 1.8281056931	 0.122631
93.8747	140.9918	175.9554	207.5617	306.9857	375.1551	382.5192	455.214	579.9983	610.65	625.2397	727.5847	783.7835	808.4182	848.5231	888.5424	910.6926	977.4559	993.3588	1021.7267	1035.8782	1071.9694	1089.3843	1120.6638	1200.031	1217.3431	1258.3339	1288.6095	1346.0606	1355.3502	1364.1832	1414.066	1478.8914	1482.8746	1486.6892	1708.0952	2347.2204	3020.3235	3025.1323	3059.5785	3073.3602	3119.9273	3139.2915	3147.1022	3218.8611
CC1=CC2C(C#N)N2C1	CC1=C[C@H]2[C@@H](C#N)N2C1	
InChI=1S/C7H8N2/c1-5-2-6-7(3-8)9(6)4-5/h2,6-7H,4H2,1H3	InChI=1S/C7H8N2/c1-5-2-6-7(3-8)9(6)4-5/h2,6-7H,4H2,1H3/t6-,7+,9?/m0/s1
