16
gdb 35048	2.40127	1.71634	1.58623	3.8104	72.99	-0.2513	-0.0238	0.2275	934.5412	0.126687	-396.917043	-396.909644	-396.9087	-396.949018	27.934	
N	-0.3341399649	-1.0709670454	-0.4066325449	-0.336389
C	-0.1918263291	 0.0633843521	-0.2299811106	 0.317887
C	-0.0622471218	 1.4835335464	-0.0319453246	-0.180202
C	 0.4803305687	 2.0515974243	 1.2465620274	-0.013251
C	 1.0101040968	 1.2379251754	 2.4079368544	-0.256055
C	 2.0298107691	 0.1599710276	 1.9864338904	-0.180603
N	 2.8501241557	 0.4725171496	 0.8226182308	-0.175124
C	 2.4328202934	 1.3027375767	-0.0330821533	 0.045865
N	 1.2731460791	 2.1444669145	 0.0249368147	-0.139437
H	-0.8061929635	 2.0599216522	-0.5754611165	 0.147184
H	 0.0398772522	 3.0065424187	 1.5280323224	 0.116089
H	 1.4983100269	 1.9491578497	 3.0836575271	 0.125465
H	 0.1860292215	 0.7886658899	 2.9720532703	 0.126324
H	 2.701420759	-0.0560611633	 2.822877987	 0.119205
H	 1.518061759	-0.7811921783	 1.7577915502	 0.154796
H	 3.0158283779	 1.4746287899	-0.9371369748	 0.128245
115.6573	129.9257	154.1897	277.6957	331.0424	459.2454	492.2316	534.5874	626.2067	635.0893	709.5821	763.5959	813.0317	831.5504	898.6173	951.7274	965.4915	1012.1664	1017.6455	1048.2747	1091.6543	1118.7477	1167.3714	1248.9505	1273.256	1310.087	1338.2088	1364.6647	1378.9053	1402.5433	1429.6369	1484.2553	1494.231	1724.5445	2351.0741	3040.4767	3051.0287	3073.0091	3088.6577	3120.8277	3140.6393	3148.7367
N#CC1C2CCN=CN12	N#C[C@H]1[C@H]2CCN=CN12	
InChI=1S/C6H7N3/c7-3-6-5-1-2-8-4-9(5)6/h4-6H,1-2H2	InChI=1S/C6H7N3/c7-3-6-5-1-2-8-4-9(5)6/h4-6H,1-2H2/t5-,6+,9?/m1/s1
