16
gdb 98575	4.39773	1.03822	0.85341	1.5216	68.39	-0.256	-0.0459	0.2101	1325.2626	0.124139	-475.05876	-475.049943	-475.048998	-475.093992	29.66	
C	-0.0788835678	 1.3711725433	 0.038385154	-0.24293
O	-0.0955371981	-0.0626370881	 0.0157107595	-0.212436
C	-1.287785238	-0.6145712812	 0.2592022308	 0.40503
O	-2.3028570996	-0.009452605	 0.4860724712	-0.352114
C	-1.2077267773	-2.1157647814	 0.2150262736	 0.301101
N	-0.1651662317	-2.8017819869	-0.0178085568	-0.291227
C	-0.5872979242	-4.2101637912	 0.0466550082	-0.191843
C	-2.1042629677	-4.1533509229	 0.3675224784	-0.112569
O	-2.3861802598	-2.7365550419	 0.453245939	-0.240872
H	 0.9505564209	 1.6554417307	-0.1765694675	 0.140777
H	-0.7565820846	 1.7749187809	-0.7180578346	 0.144692
H	-0.3848785993	 1.7430752779	 1.0194943996	 0.144651
H	-0.3724501659	-4.701272834	-0.9079115175	 0.127346
H	-0.0088396087	-4.7311808126	 0.8164027343	 0.127347
H	-2.7360063714	-4.5785023218	-0.4167190208	 0.126508
H	-2.3691295268	-4.6108533657	 1.3242766985	 0.126539
30.4031	90.6648	112.8922	126.9682	161.1868	222.251	315.3138	385.2272	485.7645	570.7938	754.8749	806.1361	815.0128	827.7368	918.3287	970.3784	981.9953	1016.0734	1030.5843	1114.9575	1178.4089	1181.9959	1213.6989	1221.7354	1246.8327	1294.9991	1358.2045	1402.4895	1475.6329	1481.8699	1494.9562	1496.2459	1525.8163	1715.1985	1823.0099	3046.8508	3052.9742	3061.7686	3076.0432	3110.5858	3127.5149	3166.5005
COC(=O)C1=NCCO1	COC(=O)C1=NCCO1	
InChI=1S/C5H7NO3/c1-8-5(7)4-6-2-3-9-4/h2-3H2,1H3	InChI=1S/C5H7NO3/c1-8-5(7)4-6-2-3-9-4/h2-3H2,1H3
