16
gdb 27292	3.13523	1.63501	1.0948	3.6138	71.78	-0.17	0.0487	0.2187	1049.3121	0.126345	-437.899129	-437.891541	-437.890597	-437.931199	28.805	
O	 0.19160164	 1.3746894591	 0.1228510981	-0.45576
C	 0.0852364753	 0.0130077202	 0.0224215581	 0.148301
C	 0.1657809972	-0.7980109201	-1.0784904987	 0.281713
O	 0.4828399486	-0.679074619	-2.4041681982	-0.293837
C	 0.2067777124	-1.9733811405	-2.9745520115	-0.101593
C	 0.3001727954	-2.9852307246	-1.8017667201	-0.198746
N	-0.0282556742	-2.1004343379	-0.7034478354	-0.032564
C	-0.1976550467	-2.1598215635	 0.6618507459	-0.150337
C	-0.1549299027	-0.8629414205	 1.1286868155	-0.212239
H	 0.3661360376	 1.7312336684	-0.75346174	 0.298309
H	-0.8061904196	-1.9708994479	-3.3956708542	 0.120378
H	 0.9310928647	-2.1585265595	-3.7690223865	 0.126588
H	-0.4141687669	-3.8053840587	-1.9123216304	 0.127375
H	 1.3088798761	-3.4056828079	-1.6962750068	 0.124443
H	-0.3845960929	-3.0900351613	 1.1711859821	 0.11598
H	-0.3088058643	-0.5451760263	 2.148318072	 0.101989
105.9075	180.0272	193.6527	252.0163	263.2895	341.229	520.8949	596.9403	604.1136	616.0007	636.8505	667.3716	758.6123	781.7302	809.4347	882.1971	944.8858	1009.5501	1060.2076	1097.9124	1112.9671	1137.7926	1203.0968	1236.4219	1253.4874	1281.8362	1311.4962	1378.4505	1406.5604	1429.507	1498.2322	1507.2451	1519.7404	1535.6282	1695.535	3015.7273	3030.4018	3090.0918	3125.8833	3251.9189	3278.6405	3835.3849
OC1=C2OCCN2C=C1	Oc1c2OCCn2cc1	
InChI=1S/C6H7NO2/c8-5-1-2-7-3-4-9-6(5)7/h1-2,8H,3-4H2	InChI=1S/C6H7NO2/c8-5-1-2-7-3-4-9-6(5)7/h1-2,8H,3-4H2
