21
gdb 50038	3.51909	0.98415	0.90264	3.5195	84.42	-0.2421	-0.0153	0.2268	1366.9087	0.183275	-387.108832	-387.10015	-387.099206	-387.143095	32.876	
O	-0.1619523211	 0.2587341658	-0.8495257272	-0.274367
C	-0.0357175841	 1.2996730195	-0.2511062566	 0.164062
C	 1.2454059052	 2.007200498	-0.0495410521	-0.171363
C	 1.216681415	 3.5307962647	 0.0570565254	-0.346869
C	 1.5321780823	 2.7202154683	 1.2698747239	 0.371869
C	 0.5726009942	 2.6879924929	 2.4766499226	-0.291517
C	 1.4744915659	 2.9450335873	 3.7164138683	-0.202566
C	 2.8025474003	 3.4815330943	 3.1498361961	-0.203948
C	 2.9536324835	 2.7133464391	 1.8279327628	-0.272267
H	-0.9196694305	 1.8137764989	 0.1952462657	 0.062912
H	 2.0891639596	 1.5481184843	-0.5551087134	 0.100611
H	 2.011716294	 4.0701125196	-0.4471380138	 0.12259
H	 0.2410189318	 4.0055120202	-0.0033041201	 0.118133
H	-0.1998071203	 3.4568642128	 2.3782227938	 0.104995
H	 0.0547180099	 1.7288329499	 2.5662604228	 0.111545
H	 1.0119946613	 3.6266990601	 4.4347095289	 0.0999
H	 1.6569992073	 2.002288312	 4.2434131533	 0.105084
H	 2.7224438157	 4.555758585	 2.9448018088	 0.101547
H	 3.6458177407	 3.337705257	 3.830709512	 0.097468
H	 3.2752463269	 1.6834451251	 2.0304888435	 0.105162
H	 3.6800362126	 3.1552579253	 1.1399060752	 0.09702
36.1035	96.2144	130.0598	208.0168	262.3444	345.2049	379.9526	414.8095	449.1691	552.3446	578.0357	732.5367	808.5974	848.3279	862.4024	871.79	904.0696	918.8556	944.4879	970.2097	988.1309	1032.3874	1040.6421	1051.1715	1074.7784	1084.6857	1163.0924	1179.4006	1188.8336	1219.6962	1248.6637	1254.548	1298.0731	1310.6266	1329.5614	1341.1697	1352.1218	1386.6465	1442.7422	1481.0998	1489.4978	1490.9603	1493.7806	1513.5411	1814.4193	2848.344	3023.7057	3037.1377	3044.5189	3051.2955	3082.1925	3086.5159	3094.1976	3104.8778	3118.3723	3166.0354	3207.4598
O=CC1CC11CCCC1	O=C[C@H]1CC21CCCC2	
InChI=1S/C8H12O/c9-6-7-5-8(7)3-1-2-4-8/h6-7H,1-5H2	InChI=1S/C8H12O/c9-6-7-5-8(7)3-1-2-4-8/h6-7H,1-5H2/t7-/m1/s1
