18
gdb 17574	3.34668	2.36015	1.89644	1.3025	70.27	-0.2449	0.0769	0.3218	776.3251	0.15613	-347.763457	-347.757201	-347.756257	-347.79321	27.058	
O	-0.101509954	 1.3862419129	 0.0461483179	-0.487537
C	 0.0434345151	 0.0021765223	 0.063745391	 0.409116
C	 0.9064365673	-0.8123634728	-0.9775837319	-0.273849
C	 0.728004098	-1.9210854142	 0.114024575	-0.045352
C	 0.8452915611	-0.7681031137	 1.1500560813	-0.301317
C	-0.7894979426	-2.1801263922	-0.0014693775	-0.025846
C	-1.7343084196	-1.6774582071	 1.0632207657	-0.314602
C	-1.2943249685	-0.7501984217	-0.0411896709	-0.052921
H	 0.7748008089	 1.7823114835	 0.0870731117	 0.277646
H	 0.4714834317	-0.9938580486	-1.9641090945	 0.090517
H	 1.9354620443	-0.4484234284	-1.067541663	 0.080201
H	 1.3890352729	-2.7849771216	 0.161780132	 0.064985
H	 1.8738694642	-0.4032981272	 1.2156483308	 0.085987
H	 0.4376811344	-0.884485657	 2.1543151551	 0.096832
H	-1.1308659324	-2.9304280659	-0.7057364119	 0.085431
H	-2.7547600189	-2.0392096048	 0.9788732495	 0.10793
H	-1.4185600114	-1.5343269281	 2.0895363091	 0.113166
H	-2.0067657103	-0.3912425554	-0.7746005594	 0.089613
254.7733	307.7367	343.162	405.0011	421.6338	544.6971	558.5799	593.8232	647.7978	776.006	798.352	816.361	842.1386	911.3692	917.3007	933.8969	969.4829	979.578	999.1717	1018.3805	1066.0767	1077.8451	1081.2607	1103.3544	1117.8246	1133.073	1158.114	1191.6901	1209.4385	1224.8754	1266.1376	1284.6602	1314.9584	1368.1448	1397.5641	1475.0196	1498.5211	1537.9556	3042.1009	3070.1438	3108.9167	3125.2372	3126.0457	3136.0016	3169.3541	3181.2673	3211.4334	3816.6879
OC12CC(C1)C1CC21	O[C@@]12C[C@@H](C1)[C@H]1C[C@@H]21	
InChI=1S/C7H10O/c8-7-2-4(3-7)5-1-6(5)7/h4-6,8H,1-3H2	InChI=1S/C7H10O/c8-7-2-4(3-7)5-1-6(5)7/h4-6,8H,1-3H2/t4-,5-,6-,7-/m1/s1
