20
gdb 82806	2.91124	1.59853	1.54169	1.7923	77.24	-0.2172	0.0696	0.2868	980.4242	0.173406	-403.090871	-403.083529	-403.082585	-403.122274	30.04	
C	-0.164964295	 1.485382852	-0.0256124287	-0.318472
N	 0.0351050395	 0.0496153105	 0.0238945839	-0.089567
C	 1.2183547653	-0.6556699821	-0.4308693146	-0.021115
C	 2.5937140125	-0.0040474239	-0.6331633969	-0.258319
C	 3.3078556796	 0.2326516336	 0.7115797862	 0.098612
C	 2.4817987401	 1.092732443	 1.6847693023	-0.255407
C	 1.8331666555	-0.2712070284	 1.9907699146	 0.064836
O	 3.0854200107	-0.9173128389	 1.5788223624	-0.293428
C	 0.766079254	-0.7421191305	 1.0003758864	-0.042169
H	 0.7305782351	 2.0774457374	-0.2576277081	 0.109471
H	-0.9038878862	 1.7011553948	-0.80579883	 0.121471
H	-0.5737303522	 1.8418963578	 0.9248077285	 0.125235
H	 1.008202746	-1.4783922715	-1.11151995	 0.090857
H	 3.2002872509	-0.6918670825	-1.2308591369	 0.112448
H	 2.5324281028	 0.9339767475	-1.2007415297	 0.102895
H	 4.3713801055	 0.4496741471	 0.5811946768	 0.075774
H	 3.091985661	 1.4158591763	 2.5301523598	 0.110694
H	 1.8872063307	 1.9233923945	 1.3155001671	 0.100571
H	 1.5762360896	-0.5104932441	 3.025102291	 0.074827
H	 0.2196744646	-1.6207680926	 1.3402742259	 0.090784
147.5411	171.2929	251.7522	270.1066	379.5917	428.114	473.9805	502.5757	595.9965	665.5644	720.047	760.2616	799.5141	859.7481	873.9814	909.7733	929.5366	948.6907	975.3339	989.9416	1057.9106	1075.8857	1087.7223	1110.073	1123.8096	1144.4345	1147.7753	1183.8622	1192.861	1240.8678	1253.9789	1300.568	1328.8007	1341.0104	1355.0765	1366.4641	1385.1663	1420.0899	1456.5051	1474.8872	1488.7505	1490.2579	1526.3869	2999.701	3025.3744	3055.5765	3070.6916	3078.88	3080.3365	3096.1045	3098.133	3109.4634	3119.4267	3176.0659
CN1C2CC3CC(O3)C12	CN1[C@H]2C[C@H]3C[C@H](O3)[C@@H]12	
InChI=1S/C7H11NO/c1-8-5-2-4-3-6(9-4)7(5)8/h4-7H,2-3H2,1H3	InChI=1S/C7H11NO/c1-8-5-2-4-3-6(9-4)7(5)8/h4-7H,2-3H2,1H3/t4-,5-,6-,7-,8?/m0/s1
