15
gdb 31468	4.07632	1.0469	0.83737	2.9033	78.09	-0.2012	0.0083	0.2095	1311.1745	0.112539	-416.811019	-416.802551	-416.801607	-416.844241	31.004	
C	-0.0236720028	 1.3768688193	 0.0274510999	-0.239544
O	 0.0140799298	-0.0529451878	-0.0196953034	-0.276666
C	 0.6271471508	-0.5596750809	-1.092144938	 0.478165
N	 1.1837406484	 0.0807853315	-2.0814760511	-0.422301
C	 1.6694980413	-0.9241024798	-2.922732992	 0.137977
C	 1.3826718088	-2.1604278832	-2.4005159278	-0.194365
N	 0.7097302641	-1.9149359148	-1.2184204333	-0.324401
C	 2.3521377135	-0.6426622907	-4.128849216	 0.248418
C	 2.9339049385	-0.4088830464	-5.1569246499	-0.426818
H	 0.9893340695	 1.7884434879	 0.0387018824	 0.14519
H	-0.5556483232	 1.7766489754	-0.8402176316	 0.145257
H	-0.5497273486	 1.6272956168	 0.9488703558	 0.131988
H	 1.5896689412	-3.1565044026	-2.7511819351	 0.140002
H	 0.3458431945	-2.5905910882	-0.5683562225	 0.272933
H	 3.4461130842	-0.1987789966	-6.0624782173	 0.184164
105.9802	130.2479	133.8286	167.9362	245.728	315.8562	447.5554	482.4338	501.581	536.6608	544.0943	575.8092	662.032	672.7436	737.5567	739.5562	748.4753	984.6476	1026.766	1075.9823	1099.9426	1183.8996	1217.5654	1246.0015	1282.5395	1372.305	1461.8238	1478.0303	1483.081	1504.114	1573.0061	1633.447	2235.1099	3046.6711	3120.1435	3156.5352	3288.2502	3506.7785	3674.146
COC1=NC(=CN1)C#C	COc1nc(c[nH]1)C#C	
InChI=1S/C6H6N2O/c1-3-5-4-7-6(8-5)9-2/h1,4H,2H3,(H,7,8)	InChI=1S/C6H6N2O/c1-3-5-4-7-6(8-5)9-2/h1,4H,2H3,(H,7,8)
