17
gdb 75973	2.15214	1.94684	1.06178	2.7715	70.49	-0.2464	-0.0237	0.2227	1089.8621	0.137536	-455.209611	-455.201216	-455.200272	-455.243201	30.454	
C	 0.0126282375	 1.4589435498	-0.0004248183	-0.346322
N	 0.0328501367	-0.0069260916	 0.014714001	-0.167689
C	 0.0668588833	-0.6494382815	-1.2248772168	 0.435605
O	 0.0454034363	-0.0145721504	-2.2549329477	-0.346305
C	 0.0949189948	-2.1688776344	-1.2040597829	-0.286644
N	 0.7109906374	-2.6595426133	 0.0162938254	-0.310148
C	-0.0156278009	-2.1917706745	 1.1833892948	-0.284604
C	-0.0444294296	-0.6722247482	 1.2431726102	 0.442068
O	-0.1596536281	-0.0771202829	 2.2904301142	-0.345988
H	 0.8897575255	 1.8336888642	-0.531077319	 0.148165
H	-0.8792327479	 1.8161189502	-0.5200402924	 0.146096
H	 0.0114205082	 1.7986169584	 1.0324055506	 0.164891
H	-0.9499470901	-2.5094625914	-1.349455024	 0.112562
H	 0.6656378352	-2.4856015431	-2.0790843311	 0.144284
H	 0.7595768537	-3.6716481693	 0.0094812589	 0.236411
H	-1.0708378474	-2.529555057	 1.2220171962	 0.113
H	 0.4689350356	-2.531550695	 2.1005499208	 0.144619
67.3605	100.927	111.4937	210.5378	297.995	340.0974	384.2895	456.6235	460.2008	563.3949	567.3948	643.1567	658.9767	688.8727	871.4584	953.8486	988.4698	994.2384	1030.4614	1123.9589	1130.6116	1158.4343	1183.8257	1219.0681	1286.0214	1293.7087	1331.5873	1373.9195	1409.7226	1450.1148	1472.1549	1485.7578	1489.6641	1492.6277	1506.1424	1778.3465	1820.3118	2906.94	2908.1444	3068.2506	3112.3248	3114.0424	3132.6996	3191.3142	3541.9357
CN1C(=O)CNCC1=O	CN1C(=O)CNCC1=O	
InChI=1S/C5H8N2O2/c1-7-4(8)2-6-3-5(7)9/h6H,2-3H2,1H3	InChI=1S/C5H8N2O2/c1-7-4(8)2-6-3-5(7)9/h6H,2-3H2,1H3
