20
gdb 114140	4.55637	0.89467	0.81987	4.5707	85.36	-0.2666	0.0212	0.2878	1442.8062	0.171371	-366.010326	-366.001455	-366.000511	-366.044005	33.462	
C	 0.0068388273	 1.5467131742	 0.0657413806	-0.380345
C	-0.1497764309	 0.0277447277	-0.0607529172	-0.198072
C	 0.6894215079	-0.5595014885	-1.1919068926	 0.040196
C	 2.2543607679	-0.5716771956	-1.0661730721	-0.318845
C	 2.2493622857	-2.0892097368	-1.32885305	 0.227805
C	 1.4164845775	-2.790248812	-0.2793890258	-0.319033
C	 0.70388355	-2.0839538665	-1.3895563026	-0.123178
C	 3.1767094727	-2.781785679	-2.1595315779	 0.178406
N	 3.9358462704	-3.3292774413	-2.8417326449	-0.353416
H	 1.0473342797	 1.8245208658	 0.2660760122	 0.120801
H	-0.2988641324	 2.0541799334	-0.8557951308	 0.117701
H	-0.6047145645	 1.9417622096	 0.8822724102	 0.117581
H	 0.1202254608	-0.4494870485	 0.8894470904	 0.096612
H	-1.2042318496	-0.2213379548	-0.2375640137	 0.10164
H	 0.4141046047	-0.0729524441	-2.1333271064	 0.085637
H	 2.7519170059	-0.0006625445	-1.850552176	 0.127194
H	 2.6711650911	-0.2805875209	-0.096874467	 0.108032
H	 1.414093391	-3.8728078004	-0.3431512831	 0.139124
H	 1.4170864299	-2.3996275002	 0.7345417658	 0.122143
H	 0.0802468548	-2.6294579577	-2.087268379	 0.110018
90.5992	105.1073	129.0739	211.7269	212.9768	260.9504	357.0001	412.9805	444.0604	548.5211	568.9814	588.6437	694.513	778.1934	812.5266	845.0708	890.0647	927.9379	952.7045	970.4068	991.931	1031.4327	1039.8778	1088.6521	1094.5589	1100.6094	1137.7358	1189.2052	1209.6919	1244.6113	1273.2889	1291.3906	1294.6608	1344.5229	1377.6656	1401.5465	1414.455	1481.3398	1484.1696	1498.768	1500.8942	1506.6513	2342.3776	3020.8218	3032.6177	3044.1384	3055.5371	3060.582	3099.2957	3107.1371	3122.7702	3129.9675	3190.6799	3217.404
CCC1CC2(CC12)C#N	CC[C@H]1C[C@]2(C[C@@H]12)C#N	
InChI=1S/C8H11N/c1-2-6-3-8(5-9)4-7(6)8/h6-7H,2-4H2,1H3	InChI=1S/C8H11N/c1-2-6-3-8(5-9)4-7(6)8/h6-7H,2-4H2,1H3/t6-,7-,8-/m0/s1
