18
gdb 33211	6.41934	0.70529	0.64315	0.5643	74.79	-0.2388	0.0066	0.2453	1703.7173	0.147561	-439.108061	-439.099094	-439.098149	-439.143703	30.98	
C	 0.1508746408	 1.291526309	-0.3453432781	-0.229122
O	-0.072546999	 0.0414489184	 0.2610434107	-0.233471
C	-1.2866531454	-0.5510181543	-0.1440223681	-0.048696
C	-1.3999655451	-1.8894828183	 0.5768601283	-0.340164
C	-2.6511942998	-2.6145108278	 0.2222755881	 0.413208
N	-3.5781796477	-2.2702391657	-0.6163021743	-0.312783
C	-4.5063623202	-3.3045917889	-0.5588876142	-0.116021
C	-4.0790683362	-4.231292345	 0.3264571967	-0.042724
O	-2.8855001664	-3.8021965688	 0.8396608741	-0.180491
H	 1.1069265595	 1.6690282249	 0.0254622967	 0.126422
H	 0.201454776	 1.2104486314	-1.4427567737	 0.105429
H	-0.6398745431	 2.0158003328	-0.0930454575	 0.105284
H	-2.1441379471	 0.0924985076	 0.1071882039	 0.103956
H	-1.3096329933	-0.7009550909	-1.2344335155	 0.105776
H	-0.5290936626	-2.509318766	 0.3314450878	 0.137584
H	-1.3608533054	-1.726384129	 1.6603469693	 0.137167
H	-5.4033024093	-3.2982918804	-1.157189082	 0.123789
H	-4.4508311259	-5.1724366592	 0.6922223778	 0.144856
25.6676	73.7385	107.2414	110.3211	224.314	260.3632	283.6592	331.9723	494.0869	627.579	689.1014	759.8049	760.6439	809.0618	862.6138	932.8914	960.028	999.4884	1066.0302	1092.961	1109.7787	1138.7243	1164.9069	1167.5136	1182.1899	1196.9611	1225.3078	1237.1259	1297.3979	1320.3565	1392.1198	1436.7463	1481.1245	1483.1858	1484.9336	1505.7949	1528.3499	1559.6223	1618.1841	2967.904	2983.9351	3009.5208	3014.9921	3038.6585	3072.6013	3113.7906	3265.1639	3303.31
COCCC1=NC=CO1	COCCc1ncco1	
InChI=1S/C6H9NO2/c1-8-4-2-6-7-3-5-9-6/h3,5H,2,4H2,1H3	InChI=1S/C6H9NO2/c1-8-4-2-6-7-3-5-9-6/h3,5H,2,4H2,1H3
