16
gdb 79611	2.29466	1.98709	1.54654	3.6983	68.39	-0.2482	-0.0272	0.221	919.0348	0.124568	-437.856464	-437.84913	-437.848186	-437.88818	28.236	
C	-0.2496492634	 1.5667399814	 0.1299572998	-0.432399
C	-0.0496240341	 0.0885659678	-0.1000459734	-0.001889
C	 0.707364971	-0.5747028952	-1.2118335066	-0.082096
C	 1.7544666294	 0.0943374834	-2.0768732739	 0.029851
O	 2.0879901408	 1.4389556274	-1.7375324704	-0.237505
C	 2.9149414425	 0.3768124781	-1.2172926614	-0.093545
C	 2.4753253673	 0.0687168934	 0.2143355258	 0.398187
O	 3.0748768487	 0.3366431069	 1.2193736208	-0.317446
N	 1.2270507811	-0.6208489035	 0.1636110843	-0.148529
H	 0.5809356092	 2.1659631646	-0.2339777324	 0.163318
H	-1.1624618651	 1.886761746	-0.3837519631	 0.127128
H	-0.3890482006	 1.7525117757	 1.199855309	 0.137304
H	-0.8866589164	-0.5066973225	 0.265268431	 0.111344
H	 0.3321674099	-1.5189213824	-1.6019123625	 0.104754
H	 1.8366573293	-0.1631997358	-3.1279804004	 0.116374
H	 3.9594787806	 0.3950259247	-1.5100130768	 0.12515
117.5641	171.7412	191.6853	261.2485	332.2055	402.257	481.6776	569.2272	619.9609	706.5965	732.0754	754.9569	816.6143	825.9261	877.3813	883.6304	960.5191	989.6156	1021.2746	1052.7873	1089.6442	1105.1576	1136.7902	1159.0393	1178.5373	1240.5328	1304.8285	1315.5021	1380.7177	1390.2021	1418.0273	1432.6555	1492.3157	1501.4264	1847.7694	3046.0458	3101.7036	3103.2357	3127.3929	3168.8878	3181.6944	3187.8196
CC1C2C3OC3C(=O)N12	C[C@H]1[C@H]2[C@H]3O[C@H]3C(=O)N12	
InChI=1S/C6H7NO2/c1-2-3-4-5(9-4)6(8)7(2)3/h2-5H,1H3	InChI=1S/C6H7NO2/c1-2-3-4-5(9-4)6(8)7(2)3/h2-5H,1H3/t2-,3-,4+,5+,7?/m0/s1
