21
gdb 71613	2.88333	1.69167	1.56044	1.6595	80.72	-0.2346	0.0859	0.3206	979.2376	0.185614	-387.091255	-387.084155	-387.083211	-387.122214	30.117	
C	-0.0408994274	 1.5296889973	 0.0148080974	-0.504876
C	 0.0052096902	 0.0197190924	-0.0012799936	 0.332606
C	 0.9554042266	-0.7807446409	-0.9427160758	-0.276785
C	 0.7323680753	-1.9150348453	 0.0798054226	-0.048359
C	 0.640592114	-0.821430966	 1.1815987901	-0.06585
C	-0.3080589089	-1.3732127181	 2.2419118167	-0.118701
O	-1.0630706385	-2.3782080437	 1.5454550689	-0.2732
C	-0.7968503794	-2.1660863836	 0.1565033389	 0.10825
C	-1.3124817161	-0.7551214742	-0.2419315265	-0.269744
H	 0.9544170678	 1.9600662303	 0.1701834707	 0.111743
H	-0.4300985394	 1.9221830826	-0.9319785228	 0.116811
H	-0.6935929433	 1.8974969014	 0.8151788426	 0.115919
H	 0.6405502794	-0.9307237906	-1.9805745274	 0.087032
H	 1.9830199773	-0.4073181149	-0.9181120595	 0.093912
H	 1.3818386346	-2.7853996875	 0.1672147328	 0.065266
H	 1.586799658	-0.4183528263	 1.5447864953	 0.068259
H	 0.2239699651	-1.8474186257	 3.0753886649	 0.101624
H	-0.977914889	-0.6078321099	 2.6600320206	 0.09267
H	-1.2062922187	-3.0124742593	-0.3947847247	 0.072306
H	-2.1428515133	-0.4532469658	 0.402275888	 0.100399
H	-1.6387997344	-0.6793610121	-1.2843101293	 0.090719
205.0356	217.8787	237.5596	301.4997	408.4599	418.9179	478.0542	561.5344	619.6253	698.8685	742.6316	815.2332	829.4609	850.5671	894.6601	903.1262	932.9302	949.2306	969.5636	981.8032	999.8151	1025.0568	1044.4779	1055.7612	1077.64	1120.191	1135.1125	1156.553	1193.4345	1214.3877	1229.0176	1241.6591	1254.6179	1262.2576	1283.6278	1309.7829	1332.3875	1354.8074	1381.3471	1412.9835	1486.2885	1492.8073	1493.4406	1511.0499	1521.2019	2994.6348	3020.9253	3040.4603	3043.8254	3047.0756	3084.2247	3089.6302	3095.6916	3099.9544	3109.2302	3116.0145	3127.215
CC12CC3C1COC3C2	C[C@@]12C[C@H]3[C@@H]1CO[C@H]3C2	
InChI=1S/C8H12O/c1-8-2-5-6(8)4-9-7(5)3-8/h5-7H,2-4H2,1H3	InChI=1S/C8H12O/c1-8-2-5-6(8)4-9-7(5)3-8/h5-7H,2-4H2,1H3/t5-,6-,7-,8-/m0/s1
