15
gdb 33302	5.95083	0.72401	0.68935	6.31	88.88	-0.2654	-0.0457	0.2198	1575.2964	0.113603	-379.616879	-379.609019	-379.608074	-379.649914	28.997	
N	 0.0574803982	-3.7346740837	 0.0262097509	-0.338025
C	 0.0546488918	-2.5722788236	 0.0187506158	 0.17143
C	 0.0502083947	-1.2090933271	 0.0057504279	 0.250397
C	 0.051398653	 0.0011141534	-0.0013480448	-0.040666
C	 0.0270130512	 1.4184677845	-0.063131919	 0.073415
C	-0.7224844576	 2.266714108	-1.1154172596	-0.302476
C	 0.4423811227	 3.3083592448	-1.0718425112	-0.23971
C	 1.1547106082	 2.4433364782	-0.0246409841	-0.083538
N	 0.3279762005	 2.2021620208	 1.1390119685	-0.333428
H	-0.7986974569	 1.7685677863	-2.0830240417	 0.131591
H	-1.7176768766	 2.601497562	-0.8083618108	 0.113098
H	 0.9790056439	 3.3652131001	-2.0206675876	 0.124983
H	 0.1958733977	 4.3230521899	-0.7447609725	 0.113056
H	 2.2204439377	 2.2698067005	 0.0665815867	 0.122434
H	-0.3663094283	 2.9310088858	 1.3000526314	 0.237439
79.9372	83.3624	201.1404	227.1574	300.4364	389.6154	466.4009	512.0456	522.1287	582.9578	589.5285	750.8533	780.0652	805.4175	865.1006	931.8657	946.4406	992.0212	1051.83	1054.8419	1079.5139	1143.5501	1155.256	1208.4983	1226.7383	1255.8136	1286.7331	1300.4291	1429.491	1479.4051	1497.7829	2261.3666	2388.2488	3057.0381	3064.3326	3115.9074	3133.622	3192.2181	3457.0627
N#CC#CC12CCC1N2	N#CC#C[C@]12CC[C@H]1N2	
InChI=1S/C7H6N2/c8-5-1-3-7-4-2-6(7)9-7/h6,9H,2,4H2	InChI=1S/C7H6N2/c8-5-1-3-7-4-2-6(7)9-7/h6,9H,2,4H2/t6-,7+/m1/s1
