18
gdb 52310	5.12429	0.81111	0.73014	4.0702	76.14	-0.2395	0.0042	0.2437	1510.8671	0.148196	-439.111939	-439.103252	-439.102307	-439.146844	30.938	
O	-0.0949084266	 0.2623338393	-0.6730497064	-0.326886
C	 0.0310010275	 1.2616232901	 0.0041909908	 0.1538
N	 1.1860548127	 1.6790094996	 0.5837607349	-0.272777
C	 2.4555866205	 0.9998417031	 0.4146472503	-0.160802
C	 3.5246050575	 1.971479255	-0.1009665381	 0.073534
O	 3.6129150401	 3.0871958213	 0.7984161555	-0.288532
C	 4.9423429185	 3.2209673973	 1.3003440986	-0.116549
C	 5.7117443447	 2.0963956821	 0.6673412278	-0.092053
C	 4.9146429444	 1.3985235745	-0.1328085095	-0.095136
H	-0.8090017812	 1.9491271212	 0.227365286	 0.072917
H	 1.1985806561	 2.5498823364	 1.0915938869	 0.257379
H	 2.7939383455	 0.5708350392	 1.3664951186	 0.108287
H	 2.292496313	 0.1841368374	-0.2939439403	 0.14387
H	 3.205717871	 2.3421571353	-1.0883341505	 0.094492
H	 5.3451534066	 4.2092506081	 1.0287184957	 0.111096
H	 4.9371085698	 3.1651350669	 2.3998455196	 0.109567
H	 6.7634887532	 1.9209272229	 0.8543398186	 0.112686
H	 5.1811198868	 0.5374727302	-0.7320537085	 0.115108
37.3635	74.1737	91.432	166.2936	234.4001	281.6808	355.5086	437.4838	508.8883	588.7881	701.8526	748.7425	770.0238	816.9067	858.8007	937.6786	961.2112	989.2993	1017.7235	1020.2301	1038.5745	1047.7359	1100.5795	1113.3143	1133.9984	1197.7291	1215.4525	1260.7203	1289.9583	1338.1568	1361.2472	1387.2044	1399.1622	1429.0218	1486.4184	1521.4191	1528.2462	1691.0482	1803.1759	2935.8321	2974.7185	2980.2435	2997.1665	3025.8613	3116.9774	3209.8243	3233.8402	3634.5257
O=CNCC1OCC=C1	O=CNC[C@H]1OCC=C1	
InChI=1S/C6H9NO2/c8-5-7-4-6-2-1-3-9-6/h1-2,5-6H,3-4H2,(H,7,8)	InChI=1S/C6H9NO2/c8-5-7-4-6-2-1-3-9-6/h1-2,5-6H,3-4H2,(H,7,8)/t6-/m0/s1
