15
gdb 50014	3.16149	1.27027	1.05373	3.8507	69.09	-0.2647	-0.0164	0.2484	1116.7686	0.11208	-453.92488	-453.916908	-453.915964	-453.957917	28.748	
N	-0.3029653119	 0.9548470463	-0.7580037824	-0.548897
C	-0.1564000508	-0.1467272497	-0.1840135284	 0.402149
O	 0.9196624307	-0.7156424059	 0.4721676992	-0.262466
C	 0.1961868159	-1.9687568206	 0.7112214414	-0.150787
C	-1.0290434518	-1.3474432797	 0.043628802	 0.178799
C	-2.4926476834	-1.3777568479	 0.3643974215	-0.293911
N	-1.9688887679	-1.9559886896	-0.8525388666	-0.125383
C	-2.2834153302	-1.4855004135	-2.1311342108	 0.159806
O	-3.3944881693	-1.1935286205	-2.4832978861	-0.271329
H	 0.5383384625	 1.5309394412	-0.719739951	 0.24003
H	 0.6568284219	-2.8007262449	 0.1739284606	 0.138271
H	 0.1217178478	-2.1824345458	 1.7795401737	 0.134249
H	-2.8594669126	-2.0790547993	 1.108705397	 0.137096
H	-3.0403457256	-0.443278149	 0.2737827511	 0.162617
H	-1.4023810653	-1.487882561	-2.7970607212	 0.099755
84.8593	109.2593	174.9639	188.9814	269.5495	329.2075	346.9799	470.3685	561.1157	643.4016	733.7199	769.9622	852.143	859.4927	897.92	951.439	968.733	995.2198	1030.4486	1084.8674	1118.5328	1131.7619	1144.1196	1152.0623	1205.2527	1242.205	1334.7864	1413.8671	1456.3774	1508.8929	1514.0615	1815.3502	1836.2034	2983.1505	3069.8871	3112.2004	3133.4574	3208.0714	3494.6932
N=C1OCC11CN1C=O	[NH][C]1OC[C@]21CN2C=O	
InChI=1S/C5H6N2O2/c6-4-5(2-9-4)1-7(5)3-8/h3,6H,1-2H2	InChI=1S/C5H6N2O2/c6-4-5(2-9-4)1-7(5)3-8/h3,6H,1-2H2/t5-,7?/m0/s1
