15
gdb 66027	2.55773	1.29073	1.13438	2.7654	69.94	-0.3019	-0.0298	0.2721	1109.3135	0.111768	-416.806771	-416.798097	-416.797153	-416.840685	30.598	
C	-0.2104212413	 1.5690714423	 0.0213952836	-0.453295
C	-0.0629643937	 0.0455521192	 0.0098931338	 0.061525
C	 1.1916692138	-0.4811801454	-0.7499627213	-0.097457
O	 1.8441971318	-0.844009137	 0.4849003052	-0.267675
C	 0.6652274504	-0.5856531068	 1.257245487	-0.029664
C	 0.9050396607	 0.2915709828	 2.4023971425	 0.297218
N	 1.0767412821	 0.991897983	 3.3050027592	-0.314296
C	-1.3171773806	-0.6122030083	-0.333129549	 0.251599
N	-2.3087723104	-1.1385921569	-0.6077173848	-0.323921
H	 0.7424990629	 2.0352927357	 0.282910877	 0.153453
H	-0.515878756	 1.9211198779	-0.9674490113	 0.146298
H	-0.9617334519	 1.8852361074	 0.748930932	 0.158982
H	 1.0100381629	-1.3509115941	-1.3888883917	 0.137144
H	 1.7499815556	 0.2815779645	-1.3005942269	 0.133692
H	 0.1926066736	-1.5109987842	 1.6076929347	 0.146395
48.4458	139.953	142.9687	189.3317	231.5873	250.1515	334.1867	354.2245	482.4283	521.3373	570.4064	583.8655	633.5015	826.84	903.3756	941.6584	966.2036	978.175	1032.5105	1060.658	1143.8447	1153.377	1199.816	1216.3828	1281.5386	1349.1419	1367.07	1421.6756	1486.618	1492.8333	1522.8459	2357.3154	2361.5163	3040.621	3047.2807	3053.1375	3103.6171	3132.0636	3137.8134
CC1(COC1C#N)C#N	C[C@]1(CO[C@H]1C#N)C#N	
InChI=1S/C6H6N2O/c1-6(3-8)4-9-5(6)2-7/h5H,4H2,1H3	InChI=1S/C6H6N2O/c1-6(3-8)4-9-5(6)2-7/h5H,4H2,1H3/t5-,6+/m0/s1
