16
gdb 128706	3.35141	1.33941	0.96866	3.7532	69.08	-0.2159	0.0351	0.251	1175.3683	0.12378	-471.193083	-471.184001	-471.183057	-471.228438	31.173	
C	 0.0478911239	 1.3434440543	 0.0707110657	-0.247341
O	-0.022993755	-0.0912106335	 0.01796194	-0.267264
C	-1.2476707369	-0.5948254889	 0.0112593083	 0.536258
N	-2.3532773784	 0.0769926335	 0.0360643117	-0.270416
O	-3.364306095	-0.9470843368	 0.0145516269	-0.255793
C	-2.77799124	-2.1806420467	-0.0240366724	 0.488414
N	-3.3267873406	-3.3202465082	-0.0552813331	-0.612859
N	-1.4097435524	-1.9496492027	-0.0187155389	-0.188013
C	-0.3973887635	-2.9834895263	-0.0678937518	-0.338211
H	 1.1103168979	 1.5834215786	 0.0695690576	 0.144242
H	-0.4486436413	 1.7785739031	-0.8002728273	 0.155781
H	-0.4322048448	 1.7128348154	 0.9804511003	 0.155298
H	-4.3400155313	-3.2379916264	-0.0384424311	 0.232989
H	-0.7428161056	-3.8292891043	 0.5292367993	 0.169476
H	-0.2293998861	-3.3261467776	-1.0940258557	 0.146766
H	 0.5336975892	-2.5886743435	 0.3397410106	 0.150672
20.4693	95.428	134.6306	161.8328	199.456	201.8361	275.4158	366.965	390.6495	569.9117	640.2247	680.8093	733.6579	753.7399	758.4117	779.6484	935.0573	982.6666	1037.532	1063.8155	1161.2029	1181.6841	1215.6053	1226.4633	1270.8438	1366.6252	1437.4101	1459.172	1479.0126	1486.9	1499.0912	1509.8325	1573.5732	1677.3339	1783.2912	3047.6369	3052.564	3120.8659	3130.0016	3161.0264	3168.5726	3542.1306
COC1=NOC(=N)N1C	COC1=NO[C@H]([NH])N1C	
InChI=1S/C4H7N3O2/c1-7-3(5)9-6-4(7)8-2/h5H,1-2H3	InChI=1S/C4H8N3O2/c1-7-3(5)9-6-4(7)8-2/h3,5H,1-2H3/t3-/m1/s1
