16
gdb 129698	3.0153	1.49734	1.05425	4.0359	72.33	-0.2006	0.0095	0.2101	1094.3724	0.126682	-430.204566	-430.196614	-430.19567	-430.237541	29.49	
N	-0.303162092	 1.0631483418	 0.8281473058	-0.607395
C	-0.1623166439	-0.1685196912	 0.1619213361	 0.228025
C	-1.1492948728	-1.0197087482	-0.3024435528	 0.318942
N	-0.4440714724	-2.062696326	-0.8154939522	-0.236796
N	 0.8837667341	-1.8986542566	-0.6570223749	-0.135849
N	 1.048568493	-0.742167452	-0.0744994669	-0.245291
N	-2.5394620605	-0.9325395684	-0.3977967333	-0.184557
C	-3.347927754	-1.7800178751	 0.5005317176	-0.234261
C	-3.2512124977	-0.3159133111	 0.7281451343	-0.226786
H	 0.6126701265	 1.3729696929	 1.1358778304	 0.252139
H	-0.6887318472	 1.7815188013	 0.2238489113	 0.247663
H	-0.7984612866	-2.8841604206	-1.2785698087	 0.277651
H	-4.235970094	-2.2073067336	 0.0461165037	 0.128472
H	-2.8132009341	-2.4306272325	 1.1873319905	 0.132016
H	-2.653404817	 0.0323039238	 1.5638037396	 0.159615
H	-4.0741219214	 0.3304281453	 0.4391309095	 0.126414
52.7448	164.6574	178.5029	199.1475	289.2003	340.8922	407.6151	499.8329	541.8665	592.1811	709.6165	732.5179	735.6623	819.6521	868.1017	877.0339	923.2767	1005.0536	1044.6235	1083.1834	1109.5529	1127.935	1137.129	1174.7085	1179.6592	1221.8522	1256.2432	1312.7179	1362.4612	1395.4303	1493.2161	1515.7418	1525.1896	1642.3366	1661.7751	3116.5676	3127.5004	3206.9274	3225.4826	3503.7878	3588.3275	3656.8528
NC1=C(NN=N1)N1CC1	Nc1c([nH]nn1)N1CC1	
InChI=1S/C4H7N5/c5-3-4(7-8-6-3)9-1-2-9/h1-2H2,(H3,5,6,7,8)	InChI=1S/C4H7N5/c5-3-4(7-8-6-3)9-1-2-9/h1-2H2,(H3,5,6,7,8)
