17
gdb 51909	3.46295	0.79942	0.6686	3.038	75.85	-0.2511	-0.0203	0.2308	1618.6121	0.135143	-455.141514	-455.132418	-455.131474	-455.176725	31.598	
O	-0.3312342539	 0.8745238409	 1.3686411356	-0.293866
C	-0.0772680456	 1.3891176099	 0.3060433143	 0.159418
N	 1.0785115258	 1.1866991587	-0.4117628521	-0.30831
C	 2.1197408269	 0.3601440672	-0.0031445254	 0.128138
N	 3.1321027046	 0.2199748182	-0.7517929196	-0.275354
C	 4.2327421006	-0.6310733178	-0.3229498764	-0.150746
C	 3.9632776515	-1.5963254754	 0.807488848	 0.06067
C	 4.9978539254	-1.952653897	 1.7855691232	-0.178664
O	 3.9468301667	-1.0524911122	 2.1340219444	-0.230811
H	-0.7587789184	 2.0894363456	-0.2130519597	 0.089624
H	 1.2006784619	 1.6512112261	-1.3009406851	 0.262483
H	 1.9430884683	-0.0938070512	 0.9724728311	 0.165228
H	 4.5626992462	-1.2048365553	-1.1996258093	 0.115298
H	 5.0762061003	 0.0162579439	-0.0483557162	 0.11984
H	 3.1706138741	-2.3238987401	 0.6224204725	 0.101411
H	 4.9647466728	-2.9244519989	 2.2755641942	 0.118709
H	 5.9886172028	-1.5064985027	 1.7073371905	 0.116932
51.0106	74.743	106.2573	171.0536	189.0282	232.5604	341.8705	356.11	378.1694	425.3663	620.0118	659.3712	777.6082	803.4625	866.6768	945.8387	955.9638	1025.2243	1033.4293	1047.7292	1088.1223	1103.406	1133.9621	1159.3134	1174.4377	1244.382	1275.7613	1292.15	1345.0696	1378.1299	1438.5308	1444.366	1464.0841	1504.8776	1530.6543	1747.0244	1820.7643	2956.8743	3015.0253	3044.2975	3084.2329	3096.1252	3139.7061	3170.9478	3607.3852
O=CNC=NCC1CO1	O=CNC=NC[C@H]1CO1	
InChI=1S/C5H8N2O2/c8-4-7-3-6-1-5-2-9-5/h3-5H,1-2H2,(H,6,7,8)	InChI=1S/C5H8N2O2/c8-4-7-3-6-1-5-2-9-5/h3-5H,1-2H2,(H,6,7,8)/t5-/m0/s1
