19
gdb 56854	3.01736	1.15796	0.99917	1.5667	81.09	-0.2486	0.0336	0.2821	1245.9523	0.158264	-385.812927	-385.804014	-385.803069	-385.847179	33.858	
O	 0.692628262	 0.3119318723	-0.9182304832	-0.415093
C	-0.2752034087	-0.0020689229	 0.083164243	-0.090842
C	-1.3107143956	-0.905459096	-0.4321697358	 0.317134
C	-2.1224300043	-1.6823127671	-0.8605178062	-0.457595
C	 0.3697317057	-0.5841599947	 1.3341503636	-0.014342
C	 1.251430383	 0.1937761837	 2.2694243123	-0.07856
C	 0.7479153751	 1.6297081643	 2.4640163948	-0.233838
C	-0.6230570352	 1.0655144493	 2.9624791371	-0.233543
C	-0.101170029	-0.3619178283	 2.7463976935	-0.064797
H	 1.0743426076	-0.5194470404	-1.2214237828	 0.281649
H	-0.7382627617	 0.9608748831	 0.3181606369	 0.117129
H	-2.8540199107	-2.3507503914	-1.2424563973	 0.197404
H	 0.7221306611	-1.6024146869	 1.176491012	 0.086532
H	 2.2519044692	-0.1506159893	 2.5032086266	 0.08401
H	 1.2828397481	 2.1580379733	 3.2555814742	 0.102261
H	 0.7410907363	 2.2636813139	 1.5721472115	 0.110642
H	-0.791242674	 1.2861047516	 4.0185799405	 0.10481
H	-1.5231909174	 1.3520030737	 2.4088330386	 0.102099
H	-0.3055164415	-1.2007758182	 3.4012048809	 0.084939
31.0347	120.856	159.8997	204.2852	239.1687	289.0736	311.296	453.2679	502.8963	514.2042	587.6604	628.769	667.8537	746.867	780.9386	789.784	804.2279	905.6129	946.6815	955.0325	961.3439	1011.7163	1023.6008	1026.0929	1056.2227	1080.8031	1122.6878	1137.3532	1188.8923	1221.4415	1242.6629	1261.9329	1268.0514	1298.1826	1304.6753	1354.3093	1417.0283	1446.5926	1487.6529	1508.4374	2230.2832	3047.4117	3057.0799	3073.2814	3098.1587	3116.8235	3122.9678	3172.757	3184.6069	3503.1386	3804.21
OC(C#C)C1C2CCC12	O[C@@H](C#C)[C@H]1[C@H]2CC[C@@H]12	
InChI=1S/C8H10O/c1-2-7(9)8-5-3-4-6(5)8/h1,5-9H,3-4H2	InChI=1S/C8H10O/c1-2-7(9)8-5-3-4-6(5)8/h1,5-9H,3-4H2/t5-,6+,7-,8-/m0/s1
