21
gdb 83827	2.71829	1.42466	1.13055	1.1877	83.29	-0.2279	0.0317	0.2596	1152.6648	0.184909	-387.081558	-387.073409	-387.072465	-387.113881	32.814	
O	 0.0708715595	 1.4581320562	-0.1313489361	-0.411971
C	 0.0075612778	 0.0672436459	 0.0177438137	 0.047455
C	-1.3608677458	-0.5395294748	 0.1501302615	-0.034065
C	-2.6184741984	 0.298864293	 0.0519726719	-0.230789
C	-3.7366160108	-0.4170750989	-0.7211590987	-0.239424
C	-3.4849024329	-0.6849260284	-2.1852213355	-0.026583
C	-2.3595330183	-0.5813249799	-2.8955828366	-0.057982
C	-0.980620635	-0.1685863237	-2.4188454507	-0.290774
C	-0.544783741	-0.7942128987	-1.103018437	-0.062582
H	 0.8292697275	 1.6632272945	-0.6884526658	 0.289013
H	 0.8052724535	-0.3522275717	 0.6308078123	 0.082413
H	-1.4353114242	-1.3746281805	 0.842750437	 0.078233
H	-2.9770022456	 0.535731433	 1.0611110401	 0.091717
H	-2.3936344916	 1.2579468789	-0.4210651247	 0.119958
H	-3.9720851643	-1.3716440925	-0.2244068439	 0.101913
H	-4.6603774952	 0.1733722911	-0.6414896738	 0.098248
H	-4.3750287623	-1.0058444581	-2.7260969122	 0.077978
H	-2.4282237654	-0.8041306027	-3.9588712673	 0.078575
H	-0.2500981185	-0.4320343286	-3.1925343965	 0.09348
H	-0.9313223198	 0.9241993542	-2.3328607374	 0.116509
H	-0.1124159992	-1.7866610383	-1.1972603305	 0.078677
114.3145	156.5959	217.2826	287.3669	320.8891	325.5685	342.8932	415.0096	543.9035	586.2742	597.0868	659.9315	729.1387	768.42	799.2861	845.6501	881.9848	920.5138	933.5589	967.7169	994.1094	1014.7902	1051.2543	1058.7439	1091.5693	1113.4351	1138.4133	1151.8685	1219.3207	1242.108	1248.0064	1251.0054	1285.4405	1295.699	1334.9734	1355.2037	1385.8856	1391.7345	1401.7901	1427.6406	1465.3212	1474.8911	1485.077	1503.5079	1729.5948	2985.2385	3015.1738	3023.7526	3036.2701	3051.6176	3092.2591	3100.7196	3116.6838	3127.8952	3142.0957	3145.7225	3803.267
OC1C2CCC=CCC12	O[C@H]1[C@H]2CCC=CC[C@@H]12	
InChI=1S/C8H12O/c9-8-6-4-2-1-3-5-7(6)8/h1-2,6-9H,3-5H2	InChI=1S/C8H12O/c9-8-6-4-2-1-3-5-7(6)8/h1-2,6-9H,3-5H2/t6-,7+,8-/m1/s1
