17
gdb 74028	2.88095	1.57785	1.07663	4.5311	78.38	-0.2262	-0.0227	0.2035	1094.6813	0.137174	-418.012562	-418.004446	-418.003502	-418.045616	30.305	
C	-0.0990405266	 1.4874594606	-0.0363303936	-0.499966
C	-0.0579065254	 0.0084027731	 0.1421110746	 0.087089
C	-1.020440251	-0.9223472912	 0.1688699162	 0.157025
N	-2.2716438417	-1.218777177	-0.4779145662	-0.376596
C	-1.6668017812	-2.5430206487	-0.8780399287	-0.199871
C	-0.4901728759	-2.3105433401	 0.1594510552	-0.038998
N	 0.907875355	-2.1192297245	-0.0827224364	-0.35605
C	 1.2355194309	-0.7597380103	 0.122835819	 0.348594
O	 2.3624295388	-0.3201662203	 0.16943367	-0.368923
H	 0.6992334009	 1.8104835334	-0.7109202732	 0.145877
H	-1.0641248001	 1.8104090793	-0.4369116315	 0.128193
H	 0.064126628	 2.0079678803	 0.9150512343	 0.137919
H	-3.0767578414	-1.3057060655	 0.1345899598	 0.241309
H	-2.2955525906	-3.4200564908	-0.7054421212	 0.112585
H	-1.3394913544	-2.5011905001	-1.9187091445	 0.135553
H	-0.6943974394	-2.8920203425	 1.0671013534	 0.101335
H	 1.6052670441	-2.8066596156	 0.1601299228	 0.244925
69.4254	115.216	146.8277	219.45	273.6997	357.5069	428.3788	521.0966	556.0518	583.2679	656.1654	693.4155	719.9606	765.4199	783.9966	868.8114	914.7368	954.0306	1029.6711	1056.2283	1089.1088	1104.1478	1115.009	1131.6513	1169.1978	1216.1998	1260.9222	1307.9215	1334.6343	1354.821	1402.5973	1410.9121	1473.3725	1486.9725	1491.5468	1734.2598	1815.6516	3025.423	3031.0789	3062.2456	3087.5319	3120.8419	3131.7502	3518.4074	3622.9293
CC1=C2NCC2NC1=O	C[C]1[C]2NC[C@H]2NC1=O	
InChI=1S/C6H8N2O/c1-3-5-4(2-7-5)8-6(3)9/h4,7H,2H2,1H3,(H,8,9)	InChI=1S/C6H8N2O/c1-3-5-4(2-7-5)8-6(3)9/h4,7H,2H2,1H3,(H,8,9)/t4-/m1/s1
