21
gdb 57845	2.40184	1.21828	1.05155	3.7938	75.17	-0.2566	-0.0275	0.2291	1272.3222	0.177874	-461.387758	-461.376754	-461.37581	-461.423481	40.531	
C	-0.5120809124	 1.3137984726	-0.1404826083	-0.407783
C	 0.0106895383	-0.1350661609	-0.0961686599	 0.065396
O	 0.8591457315	-0.3916092329	-1.1875606758	-0.445626
C	 0.7702693945	-0.3988674946	 1.2041398665	 0.35231
O	 1.9757479143	-0.5417231071	 1.1675716768	-0.35822
C	 0.0337753622	-0.4865422565	 2.5493764141	 0.252178
C	 0.3612030724	-1.8453687272	 3.1889105944	-0.410433
C	 0.4975174195	 0.6756451553	 3.4435913832	-0.416773
O	-1.3622496113	-0.3885822134	 2.271395559	-0.459178
H	 0.318236523	 2.0200848983	-0.0394028439	 0.117546
H	-0.9802751742	 1.4804055219	-1.1137561409	 0.130739
H	-1.2465402811	 1.4938039839	 0.6462380003	 0.133434
H	-0.8485804344	-0.8174413505	-0.1305538393	 0.10516
H	 1.7496737421	-0.4653596549	-0.8097331414	 0.288925
H	 1.4406147565	-1.9649333945	 3.3016501629	 0.145724
H	-0.1052810624	-1.9141061686	 4.1780879517	 0.106939
H	-0.021797688	-2.6610988597	 2.5694765699	 0.130411
H	 0.2192733482	 1.637065318	 3.003826393	 0.132229
H	 0.0265300675	 0.5985016177	 4.4300618194	 0.109078
H	 1.5818530907	 0.6478981761	 3.5741919842	 0.144177
H	-1.8359493569	-0.4642962629	 3.1058853242	 0.283764
43.4132	87.2626	196.8126	208.7587	225.5782	233.5323	247.1219	267.9713	277.4201	306.4046	352.0541	375.5963	408.5726	422.4278	458.0683	508.8687	590.2075	720.6373	779.4178	830.534	920.8727	929.4565	976.8065	1007.5621	1040.5134	1071.5479	1083.4945	1141.868	1166.2146	1189.6321	1221.6661	1279.3072	1341.6006	1375.2723	1387.6701	1390.4147	1409.6175	1436.9433	1477.7083	1483.263	1494.556	1495.2779	1502.8175	1512.4659	1782.1197	3028.2533	3033.8137	3038.1628	3046.0611	3107.1523	3110.6791	3119.4289	3135.0694	3141.1545	3148.2133	3691.2356	3818.9763
CC(O)C(=O)C(C)(C)O	C[C@@H](O)C(=O)C(C)(C)O	
InChI=1S/C6H12O3/c1-4(7)5(8)6(2,3)9/h4,7,9H,1-3H3	InChI=1S/C6H12O3/c1-4(7)5(8)6(2,3)9/h4,7,9H,1-3H3/t4-/m1/s1
