16
gdb 45480	3.13763	1.77959	1.55353	2.9107	68.17	-0.2624	0.0165	0.2789	886.626	0.127852	-437.89846	-437.892178	-437.891234	-437.929196	25.476	
N	-0.047899199	 1.2669633069	-0.4617750863	-0.553699
C	-0.014148712	 0.0708539717	-0.0602212017	 0.416198
O	 1.1268954768	-0.6251560731	 0.249488058	-0.250243
C	 0.7967378935	-1.9282654861	 0.7749408003	 0.162409
O	 0.8005899809	-1.8879843344	 2.1692270871	-0.235926
C	-0.4416975426	-1.2990522445	 2.5880066028	-0.112381
C	-1.4138408278	-1.5305857559	 1.4355829946	-0.089087
C	-0.6518839579	-2.2083219324	 0.3400196217	-0.110764
C	-1.1917418097	-0.8281166198	 0.0941329605	-0.13898
H	 0.8966798612	 1.6517119901	-0.5171486657	 0.225116
H	 1.5672721583	-2.6212385797	 0.4415666414	 0.107188
H	-0.7646329158	-1.8102700053	 3.4992044085	 0.118574
H	-0.2968564998	-0.2359423702	 2.8148728586	 0.123928
H	-2.4348214838	-1.8102976639	 1.6640511836	 0.109547
H	-0.9390701629	-3.1099429229	-0.1826517532	 0.107889
H	-2.0566865394	-0.6266690306	-0.5226787003	 0.120231
122.0186	176.3071	361.2018	414.0837	508.6492	628.7773	650.2185	686.4473	737.076	783.9221	812.7189	833.2337	886.4011	896.5871	931.3057	950.234	959.8873	973.7931	1006.987	1031.3998	1045.1793	1089.9976	1101.0298	1114.3066	1153.4382	1229.0732	1257.9545	1296.9213	1318.4958	1342.0275	1363.5923	1384.336	1409.347	1519.1035	1779.4515	3033.0994	3089.5541	3144.3342	3191.8586	3210.6709	3220.2472	3475.1841
N=C1OC2OCC3C2C13	[NH][C]1O[C@H]2OC[C@@H]3[C@H]2[C@H]13	
InChI=1S/C6H7NO2/c7-5-3-2-1-8-6(9-5)4(2)3/h2-4,6-7H,1H2	InChI=1S/C6H7NO2/c7-5-3-2-1-8-6(9-5)4(2)3/h2-4,6-7H,1H2/t2-,3+,4-,6+/m0/s1
