17
gdb 106158	2.47332	1.52751	1.2053	1.9959	67.75	-0.2236	0.0643	0.2879	1064.257	0.134936	-458.876163	-458.868006	-458.867061	-458.908956	31.199	
O	 0.2164383723	 1.2974618665	 0.2595399553	-0.411931
C	 0.0631322627	-0.0701588634	-0.0940133219	-0.215549
C	-1.3602489823	-0.5127615071	-0.116627293	 0.226832
C	-2.4041481215	-0.7581539037	 0.940033712	-0.054453
O	-3.4021208747	 0.0715330439	 0.3531417758	-0.292206
C	-2.6618348745	-0.0749987074	-0.8967614483	 0.016639
C	-2.901949005	-1.552442359	-1.3044472181	-0.301087
C	-2.050740619	-1.8697780011	-0.0718137217	 0.273314
O	-1.4461064504	-3.0540337301	 0.2859488493	-0.456467
H	-0.2597242625	 1.4355474961	 1.0853085986	 0.284591
H	 0.5140197617	-0.1673470508	-1.0880609854	 0.1173
H	 0.6273402179	-0.7345492068	 0.5798168915	 0.103289
H	-2.3490114117	-0.8662679885	 2.0165754228	 0.108438
H	-2.7834780174	 0.7603880917	-1.5815516584	 0.098462
H	-3.944369366	-1.8840609441	-1.3446084676	 0.098953
H	-2.3719743075	-1.8114712291	-2.2244859526	 0.111851
H	-2.0860767621	-3.5937002672	 0.7641598117	 0.292022
87.1561	113.2329	211.5569	264.3383	295.3417	332.821	362.9127	422.0203	495.8253	576.0657	614.5847	658.3009	743.4671	810.8569	871.9956	893.1969	918.1802	952.1913	958.1277	1011.3712	1036.906	1049.4903	1090.0695	1119.3956	1129.1002	1176.9335	1218.2422	1224.7025	1246.208	1275.8633	1308.1892	1358.5354	1363.8247	1421.1619	1464.946	1495.8127	1500.7766	2980.782	3048.7692	3060.747	3116.8027	3157.1468	3194.6222	3787.9788	3809.4066
OCC12C3OC1CC23O	OC[C@@]12[C@H]3O[C@@H]1C[C@@]23O	
InChI=1S/C6H8O3/c7-2-5-3-1-6(5,8)4(5)9-3/h3-4,7-8H,1-2H2	InChI=1S/C6H8O3/c7-2-5-3-1-6(5,8)4(5)9-3/h3-4,7-8H,1-2H2/t3-,4-,5+,6+/m1/s1
