14
gdb 130977	4.08033	0.99674	0.8332	3.4855	64.22	-0.2347	-0.0504	0.1843	1278.3763	0.099797	-469.970326	-469.962248	-469.961304	-470.00457	28.136	
O	 0.8816600351	 1.1382089303	 1.2930804774	-0.228409
C	 0.517408284	 1.6998323344	 0.2949811825	 0.170087
C	 1.1548929152	 1.4994225736	-1.0782056565	-0.265688
N	 1.2642571197	 2.7600785396	-1.7844881719	-0.392666
C	 2.2862917262	 3.6148173944	-1.4170110734	 0.316561
C	 3.0649181718	 3.6876477473	-0.3001583791	-0.052495
O	 3.8798947279	 4.7489228198	-0.4433056311	-0.156082
N	 3.5928120802	 5.3244093113	-1.6828712457	 0.003817
N	 2.6675723919	 4.6568890754	-2.231136936	-0.205469
H	-0.3286978867	 2.4224536631	 0.2908073177	 0.098366
H	 2.1138195323	 0.9762206469	-0.9483005182	 0.129977
H	 0.4834398687	 0.8448578605	-1.646573219	 0.142347
H	 1.1279034803	 2.7237099881	-2.7835931866	 0.262098
H	 3.1451795433	 3.1157202853	 0.6073218297	 0.177556
43.7028	67.3252	104.3563	190.8415	291.2107	379.4533	417.0326	499.3117	597.0761	640.364	698.5891	721.945	761.7687	776.5518	794.6019	990.5882	1041.4864	1045.7915	1108.4212	1122.6268	1125.4515	1248.4848	1282.4993	1314.7089	1352.561	1403.7829	1421.7421	1457.0373	1514.1151	1665.1931	1840.1116	2897.3821	2999.701	3072.8992	3303.2365	3613.8565
O=CCNC1=CON=N1	O=CCNc1conn1	
InChI=1S/C4H5N3O2/c8-2-1-5-4-3-9-7-6-4/h2-3,5H,1H2	InChI=1S/C4H5N3O2/c8-2-1-5-4-3-9-7-6-4/h2-3,5H,1H2
