16
gdb 26043	3.33573	1.14191	0.95959	5.4648	76.24	-0.2181	0.0065	0.2246	1213.7449	0.126531	-396.96414	-396.955733	-396.954789	-396.997938	30.851	
N	 0.3064614051	 1.2072010763	 0.4612986828	-0.491021
C	-0.1031476514	-0.1239322793	-0.0354718363	-0.272435
C	-1.5745081627	-0.1636368987	-0.0915591094	 0.323242
N	-2.7278122343	-0.1859311252	-0.1467531238	-0.325629
C	 0.4779417925	-0.5552131999	-1.3563030363	 0.315744
C	 0.0465513876	-0.3653495746	-2.651769259	-0.214399
C	 1.0410490027	-0.8939268359	-3.5184589681	-0.13859
C	 2.0514922787	-1.3927330616	-2.7302849612	-0.092287
N	 1.7035945343	-1.1794758218	-1.4203867735	-0.312479
H	 1.3204073255	 1.2195595926	 0.5375576106	 0.231682
H	 0.0747326758	 1.9003157728	-0.2464851466	 0.242346
H	 0.1972841881	-0.8464004185	 0.7365000345	 0.130296
H	-0.8887285989	 0.0915208435	-2.9370591275	 0.116686
H	 1.0126091146	-0.9141550812	-4.5967551865	 0.102872
H	 2.9770441133	-1.883327755	-2.9850670249	 0.12381
H	 2.2428786291	-1.4791574834	-0.6261284047	 0.260162
38.7369	113.3398	163.0733	204.728	241.9589	347.4808	382.5459	469.1738	479.9113	586.0617	628.0059	684.7047	723.7907	736.88	812.8369	868.1298	882.7556	897.0629	911.1633	991.9465	1057.9143	1102.2719	1117.9676	1140.8232	1187.3202	1224.42	1277.5777	1338.5194	1395.0663	1444.0617	1462.2804	1489.2565	1605.3995	1659.9688	2367.7658	3015.7695	3246.5498	3258.0037	3273.8897	3480.2657	3560.792	3670.5151
NC(C#N)C1=CC=CN1	N[C@@H](C#N)c1ccc[nH]1	
InChI=1S/C6H7N3/c7-4-5(8)6-2-1-3-9-6/h1-3,5,9H,8H2	InChI=1S/C6H7N3/c7-4-5(8)6-2-1-3-9-6/h1-3,5,9H,8H2/t5-/m0/s1
