23
gdb 70147	2.53658	1.47679	1.12635	0.4118	92.12	-0.2222	0.0275	0.2497	1201.296	0.207956	-351.162753	-351.154214	-351.15327	-351.195418	34.608	
C	 0.6427328303	 1.5527910778	-0.0334800655	-0.449933
C	 0.1035378415	 0.1311733253	 0.0077487265	 0.321813
C	-1.0241120979	-0.1227238964	 0.9748389863	-0.325588
C	 0.3835727792	-0.6340124884	 1.2858968236	-0.07662
C	 0.6805531602	-2.0786644209	 1.4398517866	-0.050839
C	 0.7641579459	-3.0671116518	 0.546123902	-0.075126
C	 0.5788931377	-3.0267805998	-0.9477136644	-0.242382
C	-0.3783202581	-1.9631621982	-1.5012625299	-0.224869
C	 0.1133804857	-0.519597954	-1.369922441	-0.246372
H	 1.6820451036	 1.5718732875	-0.3822759102	 0.113968
H	 0.0519869387	 2.1765024281	-0.7151894365	 0.111822
H	 0.613256851	 2.0218068336	 0.9548301455	 0.110095
H	-1.4105455876	 0.7117184858	 1.5518710453	 0.103252
H	-1.7643258834	-0.8760051671	 0.7306617339	 0.113954
H	 0.8955602703	-0.0409923123	 2.0410098249	 0.07981
H	 0.8635259904	-2.3560284111	 2.4778315309	 0.079488
H	 1.0135491543	-4.0513985475	 0.9392016541	 0.079016
H	 1.5610970832	-2.9043875172	-1.4321617159	 0.105999
H	 0.2262899383	-4.0143623719	-1.2712917738	 0.096864
H	-0.5262380859	-2.1666200742	-2.5687934751	 0.092602
H	-1.3639552083	-2.0775089642	-1.0349501692	 0.099252
H	-0.4949737486	 0.1149857549	-2.0295102163	 0.092407
H	 1.1368781494	-0.464115668	-1.7694066219	 0.091384
86.8135	162.9385	229.2765	274.6083	291.9666	320.0632	364.3488	409.6477	425.1819	474.3796	547.8185	645.5185	713.1871	747.8693	787.3569	821.0281	871.5046	886.3604	911.8617	934.1943	958.6605	997.0973	1006.442	1029.8131	1054.1825	1062.7061	1089.167	1119.657	1122.1586	1132.9687	1194.0281	1228.8004	1266.9875	1287.628	1301.7906	1346.0729	1383.0172	1390.1026	1395.8846	1413.8251	1426.2927	1444.9555	1472.9456	1484.0435	1486.545	1490.781	1498.5553	1510.0484	1734.4736	2980.972	2994.431	3019.4615	3019.9558	3029.4622	3041.6281	3066.8896	3079.533	3097.1527	3109.5789	3122.0772	3126.8577	3143.474	3215.0216
CC12CC1C=CCCC2	C[C@]12C[C@H]1C=CCCC2	
InChI=1S/C9H14/c1-9-6-4-2-3-5-8(9)7-9/h3,5,8H,2,4,6-7H2,1H3	InChI=1S/C9H14/c1-9-6-4-2-3-5-8(9)7-9/h3,5,8H,2,4,6-7H2,1H3/t8-,9+/m1/s1
