19
gdb 58544	2.1029	1.45539	1.41396	3.3014	70.4	-0.2692	0.0077	0.2769	1086.5531	0.157575	-460.193811	-460.184326	-460.183382	-460.227888	34.972	
C	 0.0071715667	 1.5931001605	-0.0387182026	-0.429142
C	-0.0461628619	 0.0660459509	 0.0206667875	 0.069929
O	 0.4366415217	-0.5120156116	-1.1886552787	-0.435615
C	 0.6995756446	-0.5262729678	 1.2371455344	 0.100117
C	 0.2110948818	 0.0131148595	 2.5816223735	-0.470472
C	 0.9212292461	-2.0570293771	 1.1758474154	-0.125157
O	 2.3711974192	-1.8522864666	 1.0590378358	-0.240236
C	 2.227879606	-0.4959306348	 1.0640950766	 0.431805
O	 3.0773719356	 0.3306163652	 0.9314779658	-0.346785
H	 1.0446689625	 1.943781848	-0.0134992365	 0.145391
H	-0.4591223163	 1.9330938598	-0.9671221796	 0.12897
H	-0.525586876	 2.0523433195	 0.7979258437	 0.12436
H	-1.0923767328	-0.2602531379	 0.0850619322	 0.093703
H	 1.2697931341	-0.0810231395	-1.4136717092	 0.294074
H	-0.8731485885	-0.1115812618	 2.6779327356	 0.125362
H	 0.6866084589	-0.515832354	 3.4128571717	 0.130867
H	 0.4441796409	 1.0751319853	 2.6885648963	 0.144309
H	 0.6856813684	-2.6172999028	 2.0826207429	 0.117188
H	 0.5410967089	-2.5518327848	 0.2827222152	 0.141332
75.2587	127.8134	139.5399	203.834	231.0666	237.1132	285.95	356.2529	360.6879	377.2774	454.691	481.8677	552.4762	685.2797	755.2333	776.7233	868.5997	891.4845	934.1047	963.0465	974.8427	1030.8769	1078.2309	1102.3299	1135.2221	1161.8389	1182.599	1223.4028	1256.1122	1302.9581	1339.7298	1369.2756	1405.0017	1411.943	1421.5266	1489.9087	1493.1564	1499.8825	1501.4427	1509.9791	1912.0068	3026.841	3037.226	3041.985	3081.1323	3104.2526	3116.4786	3122.3302	3128.5882	3155.9593	3791.8714
CC(O)C1(C)COC1=O	C[C@@H](O)[C@@]1(C)COC1=O	
InChI=1S/C6H10O3/c1-4(7)6(2)3-9-5(6)8/h4,7H,3H2,1-2H3	InChI=1S/C6H10O3/c1-4(7)6(2)3-9-5(6)8/h4,7H,3H2,1-2H3/t4-,6-/m1/s1
