18
gdb 50706	2.93738	1.45631	1.14311	2.4649	72.87	-0.2308	-0.0243	0.2066	1084.4763	0.148213	-439.053632	-439.045785	-439.04484	-439.086403	29.592	
O	-0.0983883072	-0.0123857468	 0.1879743359	-0.234406
C	 0.0259534481	 1.1813678261	 0.1751890857	 0.146425
C	 1.3422761539	 1.9232826364	 0.0234730477	-0.005107
O	 2.406295412	 1.0117260452	-0.0082362587	-0.235357
C	 3.6375713969	 1.6854262057	-0.2284552513	-0.083355
C	 3.7069981387	 2.2219487933	-1.6557576713	-0.15722
N	 2.4861423419	 2.9429968056	-2.0623467092	-0.10058
C	 1.3748658108	 2.1370671844	-2.5692421758	-0.243025
C	 1.2823874433	 2.7905181788	-1.2380816214	-0.042531
H	-0.8490302596	 1.8672606484	 0.258144305	 0.078181
H	 1.4389140349	 2.59790507	 0.8971540392	 0.087064
H	 3.7494313321	 2.5046652107	 0.5001769201	 0.096436
H	 4.4341100591	 0.9593049607	-0.0460218044	 0.118735
H	 4.5562435259	 2.909628265	-1.7463553364	 0.110035
H	 3.8813678597	 1.39427034	-2.3517303412	 0.115118
H	 0.8466276252	 2.548456122	-3.4251637595	 0.117225
H	 1.4952950891	 1.0552063396	-2.5731163081	 0.132765
H	 0.6987215851	 3.702246905	-1.1254630264	 0.099597
71.7373	111.1052	211.5685	229.2373	299.2783	374.1342	395.3696	471.9837	549.9984	672.0677	713.1142	739.603	781.9575	874.7566	905.3482	925.6417	959.5141	980.2762	1057.5478	1070.9812	1078.9265	1117.8703	1126.1048	1137.7257	1174.6665	1190.0605	1265.1251	1280.1558	1298.4718	1316.3215	1357.1834	1371.9186	1400.3306	1410.9859	1433.4002	1491.0621	1501.9334	1510.2467	1845.8037	2862.4574	2913.9055	2977.4692	3029.6341	3070.2432	3096.8418	3098.0539	3119.3002	3186.6548
O=CC1OCCN2CC12	O=C[C@H]1OCCN2C[C@@H]12	
InChI=1S/C6H9NO2/c8-4-6-5-3-7(5)1-2-9-6/h4-6H,1-3H2	InChI=1S/C6H9NO2/c8-4-6-5-3-7(5)1-2-9-6/h4-6H,1-3H2/t5-,6+,7?/m0/s1
