17
gdb 84708	3.01877	1.68165	1.15626	2.8853	75.39	-0.2062	-0.0077	0.1985	1036.5416	0.138293	-418.016638	-418.008999	-418.008055	-418.048917	28.889	
O	-0.0200310434	 1.457057602	 0.0751447414	-0.43437
C	 0.0429225152	 0.0426661498	 0.0970913286	-0.004774
C	 0.5743032571	-0.5302434257	 1.4015230772	-0.16167
C	-0.2879620859	-1.4392179157	 1.87732418	-0.044182
N	-1.395802657	-1.6043792552	 1.0219376065	-0.08387
C	-2.8169290095	-1.804186578	 1.3145071909	-0.201703
C	-3.4515327774	-1.1414200445	 0.0466845748	-0.169532
N	-2.4091971287	-0.2490472044	-0.5169381985	-0.353982
C	-1.333214008	-0.5920981815	 0.0668322055	 0.353398
H	-0.8277802871	 1.6870720874	-0.4016348839	 0.295004
H	 0.6490817092	-0.3201049868	-0.7513796583	 0.098323
H	 1.5435922972	-0.2904742605	 1.8114140851	 0.111555
H	-0.1969779608	-2.0622691861	 2.7568288998	 0.127029
H	-3.0719875312	-2.8616786859	 1.4164939461	 0.118618
H	-3.1086619401	-1.2808233305	 2.2356390424	 0.112767
H	-3.723045439	-1.8968684845	-0.7008841576	 0.118475
H	-4.3548180305	-0.5729263099	 0.28120534	 0.118914
94.1713	143.9431	182.9762	224.9093	297.31	339.9139	491.7778	555.2881	627.0837	642.0414	720.4334	770.9813	788.7931	865.104	888.491	913.1672	929.9745	977.3344	1006.1712	1038.7533	1088.9778	1106.2923	1164.3066	1197.8852	1227.6029	1238.9384	1253.1071	1258.941	1322.0146	1338.0568	1353.3947	1400.535	1413.4798	1495.4471	1519.8683	1646.7565	1746.7402	2948.2102	3005.7859	3033.1943	3088.905	3099.5183	3225.4025	3257.4092	3774.3021
OC1C=CN2CCN=C12	O[C@H]1C=CN2CC[N][C]12	
InChI=1S/C6H8N2O/c9-5-1-3-8-4-2-7-6(5)8/h1,3,5,9H,2,4H2	InChI=1S/C6H8N2O/c9-5-1-3-8-4-2-7-6(5)8/h1,3,5,9H,2,4H2/t5-/m0/s1
