19
gdb 41185	2.94262	1.76284	1.58559	1.9645	80.7	-0.2256	0.0151	0.2407	935.6663	0.16132	-385.7798	-385.773111	-385.772166	-385.810346	28.685	
C	 0.0449506095	 1.5864383195	-0.163788091	-0.19261
O	 1.5026386394	 1.4698106229	 0.0855834773	-0.324572
C	 1.1298273391	 0.3079509909	 0.9179291009	 0.173123
C	 1.2442470385	-1.2332115162	 1.206278992	-0.118538
C	-0.3720916343	-1.1004635638	 1.135392772	-0.32016
C	-0.0740149877	 0.0485793225	 0.0879885258	 0.179524
C	 0.2932430938	-0.6543622399	-1.2110198102	-0.061563
C	 1.1464748191	-1.6734670025	-1.228184301	-0.070772
C	 1.7819472219	-2.0967449103	 0.0683290888	-0.249028
H	-0.42550788	 2.228644089	 0.5903148259	 0.103899
H	-0.155038006	 1.9518133171	-1.175420383	 0.109396
H	 0.8553333695	 0.7458549213	 1.8893613729	 0.075427
H	 1.6719562274	-1.5160763452	 2.1711709083	 0.074892
H	-0.9103053361	-1.9731916679	 0.7602797691	 0.111093
H	-0.7891547554	-0.7660984174	 2.0862935819	 0.11234
H	-0.1899790434	-0.295768838	-2.1163419115	 0.084638
H	 1.3975132455	-2.2044975834	-2.1413475672	 0.088203
H	 2.8755841915	-2.0065420518	 0.0152333582	 0.11739
H	 1.5804480378	-3.1577396567	 0.2734398807	 0.107317
195.5529	241.0641	338.3866	392.3641	413.3943	459.6682	529.0357	595.0905	634.3957	706.5958	743.6518	784.9436	824.2025	845.6509	877.7227	901.5199	930.9838	946.6866	974.5742	982.872	1007.3907	1040.5937	1048.7772	1089.1678	1123.9977	1135.1648	1151.1424	1194.0614	1194.2036	1246.2121	1253.8589	1255.7612	1290.5925	1315.4223	1363.318	1404.762	1460.6782	1470.5349	1482.6699	1500.2555	1711.3448	2971.1056	3005.2228	3025.249	3030.5663	3069.9452	3080.2196	3098.2614	3142.3878	3150.4331	3179.7293
C1OC2C3CC12C=CC3	C1O[C@@H]2[C@H]3C[C@@]12C=CC3	
InChI=1S/C8H10O/c1-2-6-4-8(3-1)5-9-7(6)8/h1,3,6-7H,2,4-5H2	InChI=1S/C8H10O/c1-2-6-4-8(3-1)5-9-7(6)8/h1,3,6-7H,2,4-5H2/t6-,7-,8+/m1/s1
