14
gdb 33356	5.30895	0.73141	0.70441	5.5267	82.	-0.2681	-0.0498	0.2184	1545.0558	0.101188	-399.528352	-399.520383	-399.519439	-399.562056	28.173	
N	 0.0785997274	-3.6646479068	 0.1732407608	-0.334365
C	 0.0497904712	-2.5059332876	 0.095468108	 0.212574
C	 0.01926445	-1.1442505185	 0.0011503583	-0.025436
C	-0.0040084471	 0.0609250585	-0.0798987668	 0.18583
C	-0.0293347429	 1.5263052882	-0.1902730662	-0.126473
O	-0.7332436869	 2.1120547211	 0.9024151046	-0.253994
C	 0.1594640102	 2.8991892696	 1.6968374442	-0.118352
C	 1.4567801066	 2.9007511036	 0.9419756193	-0.085534
C	 1.3608232427	 2.1300080637	-0.1326607559	-0.084371
H	-0.5530010634	 1.7839342085	-1.1241612329	 0.131131
H	-0.2674551751	 3.90448049	 1.8158095478	 0.122975
H	 0.2629657292	 2.4624500814	 2.70185913	 0.122449
H	 2.3277942293	 3.4575090776	 1.2626119265	 0.123766
H	 2.1203617189	 1.9108804106	-0.8700149977	 0.1298
56.0257	81.5595	132.8046	216.9408	257.4394	379.5695	433.405	509.8585	573.7071	590.8713	694.6665	761.5609	808.5945	820.7447	917.3576	933.2864	958.2691	998.1396	1045.3608	1099.5175	1116.1204	1162.6761	1198.3692	1273.3324	1337.3111	1344.4215	1380.6969	1515.9638	1692.0044	2262.1306	2399.829	2982.0691	2991.4974	3025.7356	3218.6437	3246.0583
N#CC#CC1OCC=C1	N#CC#C[C@H]1OCC=C1	
InChI=1S/C7H5NO/c8-5-1-3-7-4-2-6-9-7/h2,4,7H,6H2	InChI=1S/C7H5NO/c8-5-1-3-7-4-2-6-9-7/h2,4,7H,6H2/t7-/m1/s1
