21
gdb 119385	2.89757	1.09909	0.95549	1.2918	80.03	-0.2346	0.0723	0.3069	1347.3712	0.180576	-424.148642	-424.139251	-424.138306	-424.183376	34.648	
C	 0.5885433034	 1.3638042932	-0.3593095239	-0.218448
O	 0.875221991	-0.0141165429	-0.4082742692	-0.238599
C	-0.1882699715	-0.7759917322	-0.9330200149	-0.216131
C	 0.2385055329	-2.2151370839	-0.9273466322	 0.406859
C	 0.531070238	-3.1584330068	 0.2644539502	-0.255842
C	 0.4741845964	-3.9834645228	-1.0398283285	 0.029353
O	-0.7354613265	-3.2144320854	-1.4352185731	-0.355906
C	 1.3629004812	-2.9224520356	-1.7466126904	 0.011085
C	 1.3462686661	-2.8258037975	-3.2593068365	-0.436079
H	 0.3834387469	 1.7738787569	-1.360739898	 0.106385
H	-0.280595361	 1.5770198508	 0.2826900955	 0.106882
H	 1.4663581579	 1.8649146309	 0.055411087	 0.128836
H	-1.1034702836	-0.6588467795	-0.3287643494	 0.099554
H	-0.4317522593	-0.4664540336	-1.9635491766	 0.099416
H	 1.490424498	-3.0581703114	 0.7764399999	 0.100219
H	-0.3088864772	-3.3130742561	 0.9426167016	 0.102227
H	 0.4406377364	-5.0647293941	-1.1761959896	 0.091423
H	 2.3674294269	-2.8114654567	-1.326962118	 0.074153
H	 0.3288500961	-2.9438719059	-3.6385261683	 0.134472
H	 1.7352026149	-1.8572467699	-3.5920486549	 0.116841
H	 1.976743543	-3.6018342675	-3.7067525106	 0.113302
53.3692	83.9054	128.7252	196.6287	218.7813	240.8583	292.0384	342.4373	379.6761	397.0563	527.9274	661.1449	703.3022	755.2564	768.2811	800.8082	902.8107	918.7571	982.5157	1006.5426	1009.396	1023.9742	1075.4392	1086.8831	1123.8934	1147.3696	1161.8846	1167.2054	1185.1553	1207.1317	1215.7029	1226.4656	1238.1293	1270.5183	1331.4833	1390.6987	1407.7497	1428.4055	1481.6308	1486.0743	1489.0679	1502.0335	1503.0416	1505.4847	1524.3487	2956.2743	2974.1963	2988.8878	3017.7331	3034.9072	3061.9832	3073.0499	3091.6087	3115.7373	3116.5974	3130.7327	3151.8989
COCC12CC(O1)C2C	COC[C@@]12C[C@@H](O1)[C@H]2C	
InChI=1S/C7H12O2/c1-5-6-3-7(5,9-6)4-8-2/h5-6H,3-4H2,1-2H3	InChI=1S/C7H12O2/c1-5-6-3-7(5,9-6)4-8-2/h5-6H,3-4H2,1-2H3/t5-,6-,7-/m1/s1
