24
gdb 118405	1.8078	1.02563	0.70401	0.699	90.43	-0.2376	0.0347	0.2723	1742.2481	0.214803	-405.569228	-405.557609	-405.556665	-405.608125	40.446	
C	 0.2954579321	 1.3726505527	-0.0936650328	-0.390455
C	 0.2456382362	-0.1444045846	-0.1092425075	-0.025567
O	 0.8439238706	-0.6066404236	 1.1074744333	-0.261375
C	 0.9197077506	-1.9489797595	 1.2893711111	 0.397851
C	 1.6304333104	-2.228157331	 2.5969341668	-0.268574
C	 3.1537574505	-2.0566419905	 2.4718212174	-0.37419
N	 0.4544890541	-2.7376680766	 0.4142680661	-0.303065
C	 0.5143374767	-4.1785559594	 0.5485163494	-0.138635
C	-0.8944145954	-4.7786107159	 0.5117139868	-0.356848
H	 1.3278833985	 1.7292879099	-0.0331906667	 0.123608
H	-0.1532094673	 1.7703772756	-1.009011096	 0.11704
H	-0.2554241948	 1.7733807029	 0.7622408879	 0.124515
H	-0.7814361865	-0.5200282537	-0.1719368087	 0.111307
H	 0.7895696504	-0.5641725743	-0.9624988932	 0.110672
H	 1.2439505833	-1.5223523356	 3.3387166587	 0.119709
H	 1.3918784717	-3.2338257161	 2.9490855337	 0.112927
H	 3.5739242343	-2.772899912	 1.7590266442	 0.123625
H	 3.3985544168	-1.0494983353	 2.1243592426	 0.133096
H	 3.6413665152	-2.2146732416	 3.4382419791	 0.115782
H	 1.0859690309	-4.5683589373	-0.3045717004	 0.102624
H	 1.0361149817	-4.5247035824	 1.4535436307	 0.082721
H	-0.8516236178	-5.8724512633	 0.5269808313	 0.105976
H	-1.4805712649	-4.4456759024	 1.3743480381	 0.113292
H	-1.4195929973	-4.4611061161	-0.3935339821	 0.123962
26.7628	37.6358	60.3493	111.5628	145.308	176.2985	215.2936	237.9929	247.7874	285.4636	327.1799	369.6151	430.0555	487.3191	606.606	698.243	776.1846	789.7057	808.9967	813.6064	899.3667	944.6332	993.9748	1040.6759	1073.9186	1096.1315	1105.0048	1121.4506	1160.2047	1165.6752	1183.9966	1254.7253	1284.2041	1298.7511	1312.5283	1346.5917	1380.1233	1392.4016	1402.9162	1407.4688	1420.5683	1475.3748	1485.694	1488.0804	1495.825	1496.8414	1498.0914	1507.903	1519.645	1521.4789	1748.5415	2982.6433	3023.7808	3036.527	3041.3522	3042.261	3043.2012	3060.9253	3075.4577	3103.3189	3106.6601	3113.2942	3117.0905	3117.5954	3120.5196	3128.4552
CCOC(CC)=NCC	CCOC(=NCC)CC	
InChI=1S/C7H15NO/c1-4-7(8-5-2)9-6-3/h4-6H2,1-3H3	InChI=1S/C7H15NO/c1-4-7(8-5-2)9-6-3/h4-6H2,1-3H3
