18
gdb 122059	3.39791	0.684	0.61827	6.8403	71.44	-0.2521	-0.0364	0.2157	1768.2259	0.144908	-476.25001	-476.239675	-476.238731	-476.287201	34.523	
O	-0.0708920528	 1.4361160191	 0.0105843097	-0.415342
C	 0.0150154502	 0.0230927019	 0.0020404539	-0.070657
C	-1.4087023978	-0.521395314	 0.0127465579	-0.169821
C	-1.4502448263	-2.0515636811	 0.0048084856	-0.217646
N	-2.8142430323	-2.5916879638	 0.0149392907	-0.081823
C	-3.4476852826	-2.816462283	-1.2153938128	 0.16566
O	-4.5663626391	-3.2116730347	-1.3833512147	-0.260111
C	-3.4241336475	-2.8295409506	 1.254678525	 0.165661
O	-4.5394352177	-3.2266480673	 1.4397434036	-0.26011
H	 0.8208949319	 1.7959516754	 0.0039255898	 0.291116
H	 0.5474944655	-0.3427930277	-0.8919031827	 0.09004
H	 0.5645370806	-0.3524781469	 0.8815374626	 0.09004
H	-1.92848005	-0.1398434531	 0.8990041975	 0.123466
H	-1.9453673137	-0.1302662854	-0.8591547831	 0.123467
H	-0.9370725165	-2.4451038444	-0.8787643711	 0.128873
H	-0.9202532009	-2.4546624943	 0.8740289138	 0.128873
H	-2.7559567145	-2.5823302581	-2.0502710189	 0.084156
H	-2.7165585768	-2.6042741122	 2.0786436831	 0.084158
31.4594	76.5808	85.3972	104.4052	146.2239	214.7522	224.1445	267.058	272.4607	356.4357	393.4927	473.9078	528.9658	725.6174	751.6651	865.8695	962.9653	1014.7873	1027.3372	1038.4676	1042.4245	1092.149	1108.2095	1202.8752	1206.5065	1240.9322	1288.4766	1312.2285	1317.3768	1380.4703	1403.8446	1447.4306	1460.1713	1468.9258	1493.1215	1506.4864	1528.5399	1799.4115	1879.0149	2914.2758	2925.3886	2954.9016	2979.3696	3038.8304	3050.4056	3074.1046	3097.8075	3831.6936
OCCCN(C=O)C=O	OCCCN(C=O)C=O	
InChI=1S/C5H9NO3/c7-3-1-2-6(4-8)5-9/h4-5,7H,1-3H2	InChI=1S/C5H9NO3/c7-3-1-2-6(4-8)5-9/h4-5,7H,1-3H2
