21
gdb 117893	3.56844	0.55971	0.51988	1.5321	86.18	-0.2445	0.034	0.2785	2169.4398	0.179015	-424.179264	-424.167682	-424.166738	-424.218436	39.033	
C	-0.1868121478	 1.4188983441	 0.306904717	-0.228676
O	-0.0908489014	 0.0344741443	 0.0737002121	-0.232445
C	-1.3429807429	-0.6136403439	 0.0847731252	-0.04644
C	-1.1082551094	-2.1166108827	-0.1394304712	-0.169536
C	-0.2501866728	-2.729907944	 0.9842690248	-0.382742
C	-2.3883252638	-2.806707365	-0.2835506994	 0.057368
C	-3.4513597486	-3.3647103885	-0.3754299607	 0.096413
C	-4.7291109725	-4.0501944661	-0.5191946308	-0.215934
O	-5.374031797	-4.1364151717	 0.7470580197	-0.40986
H	 0.826194264	 1.8274941319	 0.2760080448	 0.127102
H	-0.796469863	 1.9214041536	-0.4607881462	 0.104626
H	-0.6292667554	 1.6377132561	 1.2916115238	 0.105975
H	-1.8582425843	-0.4562611353	 1.0472445747	 0.095534
H	-1.9954756801	-0.2133993608	-0.7075033532	 0.093689
H	-0.5548384562	-2.2089054174	-1.0840923573	 0.112546
H	-0.0312554067	-3.7797839851	 0.7744877677	 0.119884
H	 0.6882424782	-2.1788988	 1.0734000039	 0.132119
H	-0.7798710688	-2.6785371234	 1.9406330114	 0.123084
H	-5.3528287616	-3.5029628659	-1.2451999286	 0.113823
H	-4.5538239011	-5.0521145743	-0.9445468722	 0.115074
H	-6.2077576188	-4.598311466	 0.6116275544	 0.288395
13.9931	70.2191	73.8593	94.0872	124.2626	197.9666	221.7488	228.0655	236.9515	278.3195	313.6927	339.5559	379.2506	491.6317	538.7056	591.2162	756.1391	886.6099	933.0714	992.4809	1020.7249	1028.1204	1057.7859	1117.301	1131.7825	1165.1106	1175.9447	1196.2857	1226.9036	1246.7853	1255.7286	1265.0104	1314.394	1342.6503	1395.4086	1417.9166	1459.9008	1480.314	1485.8125	1492.7138	1500.4969	1503.4869	1503.7242	1526.6494	2369.6677	2959.3834	2960.3924	2973.482	2977.6001	2995.1834	3014.6767	3019.7475	3047.3637	3113.613	3118.9051	3138.6801	3817.0183
COCC(C)C#CCO	COC[C@@H](C)C#CCO	
InChI=1S/C7H12O2/c1-7(6-9-2)4-3-5-8/h7-8H,5-6H2,1-2H3	InChI=1S/C7H12O2/c1-7(6-9-2)4-3-5-8/h7-8H,5-6H2,1-2H3/t7-/m0/s1
