16
gdb 126004	4.70949	1.3086	1.06904	5.5762	70.59	-0.2301	0.0087	0.2388	1090.2733	0.12672	-434.060942	-434.05374	-434.052795	-434.092956	27.105	
C	 0.179382501	 1.5357798702	 0.0463671555	-0.407498
C	 0.068750045	 0.0275143413	-0.0183780171	 0.104305
C	 0.7989981549	-0.6417369672	-1.2266500084	-0.212003
N	 1.3846492393	-1.7785298229	-0.5494270221	 0.027126
N	 2.0918692872	-2.8737579947	-0.9227531739	-0.180787
N	 2.4550640782	-3.4502725699	 0.1897448578	-0.182825
C	 2.0100334603	-2.7426473235	 1.2784472292	-0.206
C	 1.3256663456	-1.6595025366	 0.7875613166	 0.401452
O	 0.6742973625	-0.5512943991	 1.1859859777	-0.287262
H	 1.2280952653	 1.8460238705	 0.0609044515	 0.138965
H	-0.3072567583	 1.985440881	-0.8248708835	 0.132502
H	-0.3099044184	 1.9156564195	 0.9465385076	 0.145013
H	-0.9819766259	-0.2847714368	-0.0134780355	 0.113096
H	 0.1048057086	-0.9412969933	-2.0140498909	 0.148409
H	 1.5726768052	 0.0045157609	-1.6563244157	 0.137885
H	 2.2070750295	-3.0566905895	 2.2879387913	 0.127621
66.9523	170.0877	229.3279	270.9563	320.0095	438.6142	462.8507	590.189	687.4261	709.1376	762.7763	798.0121	805.7162	828.4034	902.6159	949.0165	1002.7074	1065.5616	1105.0853	1123.8781	1152.0283	1174.0977	1216.6345	1247.5322	1278.5379	1323.4309	1336.898	1368.4253	1387.3543	1414.7953	1483.6131	1495.7724	1504.9497	1536.2011	1621.2714	3038.9059	3044.5273	3047.599	3114.63	3120.8588	3132.1865	3293.9138
CC1CN2N=NC=C2O1	C[C@H]1Cn2nncc2O1	
InChI=1S/C5H7N3O/c1-4-3-8-5(9-4)2-6-7-8/h2,4H,3H2,1H3	InChI=1S/C5H7N3O/c1-4-3-8-5(9-4)2-6-7-8/h2,4H,3H2,1H3/t4-/m0/s1
