17
gdb 19057	3.51597	2.30324	2.08072	3.074	66.16	-0.2245	0.0659	0.2904	738.7105	0.144922	-363.815794	-363.809552	-363.808608	-363.845774	25.608	
O	-0.02571291	 1.4342197899	-0.1177115253	-0.427011
C	 0.0432434005	 0.0170959012	 0.009181084	 0.086548
C	 0.6943892495	-0.4774575588	 1.3345342817	-0.240144
C	-0.5050846768	-0.8515770366	 2.2095887272	-0.066165
C	-1.4828558921	 0.3453767856	 2.3143394287	-0.149512
N	-2.3035273799	-0.1567826993	 1.157270973	-0.145417
C	-1.5413076918	-1.4516453783	 1.221171393	-0.0529
C	-1.367511402	-0.552015141	 0.0629804629	-0.017565
H	 0.8713338857	 1.7644819781	-0.2288872024	 0.283024
H	 0.5666084866	-0.40666378	-0.8604354466	 0.06776
H	 1.3217094731	-1.3557657725	 1.1437061435	 0.097262
H	 1.3236954166	 0.2997809203	 1.7822742084	 0.091872
H	-0.2668999055	-1.3917882551	 3.1256419113	 0.068425
H	-2.1102984294	 0.311565261	 3.2083504936	 0.103633
H	-1.0748688492	 1.3503193416	 2.1795429814	 0.113893
H	-2.0189498763	-2.4245944715	 1.2270443922	 0.090144
H	-1.8957324389	-0.7298121448	-0.8671945967	 0.096153
164.4856	272.2677	301.441	389.1535	428.0922	524.7789	625.86	683.6772	774.2354	799.7065	824.8542	851.3599	886.4728	898.2813	929.8553	981.598	1005.7382	1018.6412	1042.6379	1056.6032	1072.1961	1125.0772	1171.0947	1179.4554	1207.8129	1229.0326	1262.9244	1269.3279	1281.6344	1306.1248	1338.2209	1351.6429	1393.7472	1427.8388	1475.0965	1503.0871	2985.9067	3033.8241	3059.0274	3080.433	3109.4537	3119.0077	3170.8165	3182.3667	3818.6562
OC1CC2CN3C2C13	O[C@H]1C[C@H]2CN3[C@H]2[C@H]13	
InChI=1S/C6H9NO/c8-4-1-3-2-7-5(3)6(4)7/h3-6,8H,1-2H2	InChI=1S/C6H9NO/c8-4-1-3-2-7-5(3)6(4)7/h3-6,8H,1-2H2/t3-,4-,5+,6-,7?/m0/s1
