16
gdb 74329	3.61687	1.00399	0.82888	5.5264	70.99	-0.2386	0.0361	0.2746	1326.5936	0.125952	-434.106477	-434.098002	-434.097058	-434.140797	30.507	
N	 0.0280153141	 1.3396741354	-0.1023211174	-0.572959
C	-0.0468009357	-0.0196915692	-0.0531821158	 0.477863
N	-1.0784357901	-0.7198369575	 0.2219798263	-0.340204
C	-0.6894571052	-2.1146832486	 0.0393838713	 0.005705
C	-1.5235988864	-2.7930199051	-1.0717071502	-0.345832
C	-2.9394094014	-2.9049103679	-0.731254662	 0.278141
N	-4.0564497133	-3.0188951227	-0.4594676287	-0.308028
C	 0.8257977031	-2.0548401113	-0.3191604556	-0.131373
O	 1.1159040759	-0.6463794219	-0.3869565306	-0.24839
H	 0.9431812686	 1.7389589489	 0.0313552749	 0.26772
H	-0.730849892	 1.8199186762	 0.3541387055	 0.275555
H	-0.8505944047	-2.6735060563	 0.968173165	 0.102256
H	-1.4247662429	-2.2187020222	-1.9996684722	 0.152477
H	-1.1358249474	-3.800743022	-1.2648182027	 0.144783
H	 1.4642494901	-2.5051451645	 0.4457466624	 0.123763
H	 1.0651199073	-2.5025173212	-1.2891535201	 0.11852
35.5944	80.229	140.9911	194.0538	305.0617	386.4632	388.9309	407.8503	444.0869	508.4147	548.3813	698.2418	730.7823	764.495	859.8054	902.9783	926.8958	952.892	1028.341	1043.3119	1057.2094	1107.5302	1178.9685	1221.1131	1243.173	1291.52	1324.6384	1349.3251	1384.2161	1439.2904	1458.0268	1525.0818	1618.4838	1756.2978	2365.7499	3032.9037	3038.0071	3049.6729	3083.9813	3097.6859	3599.9031	3715.8824
NC1=NC(CC#N)CO1	NC1=N[C@@H](CC#N)CO1	
InChI=1S/C5H7N3O/c6-2-1-4-3-9-5(7)8-4/h4H,1,3H2,(H2,7,8)	InChI=1S/C5H7N3O/c6-2-1-4-3-9-5(7)8-4/h4H,1,3H2,(H2,7,8)/t4-/m0/s1
