18
gdb 35236	3.08392	1.22043	1.0629	3.712	77.14	-0.2518	0.0295	0.2813	1173.9565	0.148815	-401.960286	-401.952145	-401.951201	-401.993743	30.532	
N	-0.2481024999	-0.9645682052	-0.3197150334	-0.351543
C	-0.1368138295	 0.1766108671	-0.1552403978	 0.291657
C	 0.0539211697	 1.581196877	 0.0345829288	-0.258182
C	 0.6200661476	 2.1114042763	 1.3569597034	-0.359835
C	 1.4784685335	 2.1624500307	 0.1514033787	 0.457727
C	 2.7238507654	 1.308048204	-0.0957324459	-0.324972
C	 3.5609486515	 2.1896042843	-1.055883799	-0.213229
C	 2.5397581837	 3.2270385415	-1.5418526503	-0.096211
O	 1.6660973398	 3.4192339033	-0.4274786621	-0.276083
H	-0.6626872878	 2.2221814921	-0.4665152659	 0.138526
H	 0.1961128455	 3.0432650868	 1.7128805689	 0.140018
H	 0.8561127732	 1.3829022521	 2.1242270657	 0.141122
H	 3.2579826137	 1.1018182309	 0.8348445038	 0.119928
H	 2.4589100945	 0.3468795641	-0.5426848003	 0.142024
H	 4.3676487943	 2.6882445929	-0.5122088891	 0.116473
H	 4.0058320255	 1.6218596646	-1.8757014842	 0.113785
H	 2.9694664025	 4.1982689273	-1.7949472674	 0.116445
H	 1.9738553868	 2.8535723	-2.4085997437	 0.10235
46.1451	124.5331	130.6145	215.3147	310.021	343.7475	422.6639	519.0604	549.8305	594.2392	626.5404	775.7411	798.1509	826.731	871.2751	889.1298	913.4865	930.7412	944.8091	1022.3686	1036.24	1082.2879	1087.1774	1109.3613	1124.1515	1203.2702	1218.4206	1233.4378	1263.4894	1295.2402	1321.7202	1345.4099	1380.5134	1401.1496	1476.131	1488.4798	1503.7737	1520.5675	2341.6291	2994.5113	3065.0356	3071.9573	3105.4484	3111.4625	3125.7381	3142.7048	3179.7326	3237.835
N#CC1CC11CCCO1	N#C[C@H]1C[C@]21CCCO2	
InChI=1S/C7H9NO/c8-5-6-4-7(6)2-1-3-9-7/h6H,1-4H2	InChI=1S/C7H9NO/c8-5-6-4-7(6)2-1-3-9-7/h6H,1-4H2/t6-,7+/m1/s1
