17
gdb 74678	3.20607	1.73651	1.54168	2.2517	76.4	-0.2361	-0.0061	0.23	921.2557	0.138233	-380.856146	-380.849303	-380.848359	-380.887091	27.586	
C	 0.0898202263	 1.4659956375	 0.0584683515	-0.503541
C	-0.0661280593	-0.0216922424	-0.0025288436	 0.340835
C	-0.0700636522	-0.8039722075	-1.0977531236	-0.168019
C	 0.0048586776	-2.2724040243	-0.7076656401	-0.082026
N	 1.4846367558	-2.4827439764	-0.713881724	-0.202735
C	 1.8653725106	-2.2080054472	 0.4759650582	 0.048327
N	 0.8970223714	-2.0173275241	 1.4863075651	-0.172122
C	-0.3729982061	-2.2604599231	 0.7912945044	-0.049855
C	-0.1754484131	-0.8628014135	 1.2098110881	-0.124149
H	 1.0371606274	 1.7422997963	 0.5384059395	 0.136651
H	 0.0770761595	 1.9072678986	-0.9411516955	 0.130538
H	-0.7097593464	 1.9311642934	 0.6474057839	 0.128127
H	 0.0859244296	-0.4644795632	-2.1147844528	 0.109245
H	-0.5138690892	-2.9837757494	-1.3492404676	 0.080936
H	 2.9119681906	-2.1243545499	 0.7541881651	 0.122102
H	-1.0788601357	-2.9501280699	 1.2430298197	 0.098619
H	-0.5304896868	-0.462695575	 2.1517526117	 0.107068
152.0968	173.7625	271.6888	333.2493	408.8296	431.2167	576.6625	611.2139	655.0859	681.3231	812.9804	838.3559	855.9102	877.162	887.9212	925.0875	938.1373	968.5566	985.1973	999.8717	1040.8759	1051.6452	1070.0058	1113.6269	1181.7361	1231.6527	1256.7102	1264.8616	1290.3658	1311.9204	1346.9902	1379.1038	1415.8537	1479.8027	1488.7418	1625.5181	1669.3811	3022.2067	3070.6007	3118.3578	3118.4528	3158.9097	3184.2901	3193.4717	3208.0289
CC1=CC2N=CN3C2C13	CC1=C[C@H]2[N][CH]N3[C@H]2[C@H]13	
InChI=1S/C7H8N2/c1-4-2-5-7-6(4)9(7)3-8-5/h2-3,5-7H,1H3	InChI=1S/C7H8N2/c1-4-2-5-7-6(4)9(7)3-8-5/h2-3,5-7H,1H3/t5-,6+,7-,9?/m1/s1
