23
gdb 117850	2.49405	0.98427	0.87038	3.0761	78.29	-0.2553	0.0491	0.3045	1470.2699	0.202941	-462.542164	-462.530819	-462.529875	-462.578609	40.756	
C	-0.0149307763	 1.411762213	 0.0011310365	-0.227602
O	 0.0271554693	 0.0058050675	-0.0450026371	-0.236486
C	 0.6297958207	-0.5680949799	 1.0937072016	-0.085582
C	 0.652423186	-2.0956730693	 0.9581716635	 0.191909
C	 1.3529033842	-2.5136048274	-0.3441210818	-0.424194
C	 1.4157133502	-2.6648524219	 2.1808114598	-0.083651
O	 1.2052728982	-4.0508404313	 2.369851068	-0.43468
C	-0.7875536433	-2.6558459795	 0.938838958	-0.109347
O	-1.3878790952	-2.7444978225	 2.2332086602	-0.437224
H	 0.9943637545	 1.8481272274	 0.061946098	 0.107392
H	-0.494483247	 1.7561312118	-0.9182384603	 0.129849
H	-0.5963887904	 1.7755427249	 0.8636321826	 0.101803
H	 1.6581768	-0.1849693964	 1.2175867031	 0.088524
H	 0.0756220065	-0.2701961135	 2.0045929333	 0.064894
H	 2.3307327389	-2.0280419118	-0.4338236417	 0.107579
H	 1.5084959645	-3.5963901815	-0.3482253973	 0.128789
H	 0.7646108732	-2.2363862804	-1.2228169292	 0.124824
H	 2.4927886337	-2.529781877	 2.0317760389	 0.104118
H	 1.1397777604	-2.1029617163	 3.0861061505	 0.076042
H	 0.2996600369	-4.1331524827	 2.6938573779	 0.294677
H	-1.403333206	-2.058609789	 0.2558095282	 0.1142
H	-0.7669445182	-3.6828860887	 0.5668079615	 0.116514
H	-1.555780001	-1.8533030453	 2.5542427758	 0.28765
70.4073	94.9811	108.4211	129.3777	153.9371	226.2337	233.8458	241.9288	287.6044	317.0067	331.4436	347.6492	366.3828	402.5446	505.3235	567.053	625.9827	783.9444	889.3184	910.2961	930.0274	973.2955	987.9037	1032.2107	1055.731	1084.6394	1149.7279	1159.616	1161.0496	1187.419	1211.2422	1242.0219	1250.5298	1268.4456	1314.359	1376.9116	1394.3239	1409.2006	1414.9358	1425.6079	1437.53	1479.1536	1484.8045	1493.4182	1495.6285	1501.0449	1503.1569	1506.8816	1525.6569	2914.8075	2957.1614	2970.3343	2982.7913	3013.9888	3035.0007	3039.6121	3064.4544	3102.6612	3106.9153	3115.3732	3122.2364	3779.2121	3826.1241
COCC(C)(CO)CO	COCC(C)(CO)CO	
InChI=1S/C6H14O3/c1-6(3-7,4-8)5-9-2/h7-8H,3-5H2,1-2H3	InChI=1S/C6H14O3/c1-6(3-7,4-8)5-9-2/h7-8H,3-5H2,1-2H3
