21
gdb 94684	2.46542	1.61456	1.19895	1.368	78.49	-0.2496	0.0688	0.3184	1121.8687	0.1813	-424.227118	-424.217839	-424.216895	-424.260297	35.909	
C	 0.038364595	 1.5653478092	-0.0647538176	-0.415665
C	 0.0454365325	 0.0488134199	 0.0302849401	 0.092031
O	 0.7422540068	-0.4828061094	-1.0957533254	-0.271441
C	 1.2034071477	-1.7907412735	-0.7620133505	-0.13887
C	 1.4920755368	-1.7704498339	 0.7315482556	 0.266086
C	 1.5559107798	-3.0648632006	 1.4996961775	-0.484535
C	 2.2671074381	-0.5483891867	 1.1964863974	-0.404968
C	 0.7588999872	-0.5556095993	 1.2367487996	 0.333256
O	 0.0709137635	-0.6004547226	 2.4474371479	-0.475096
H	 1.0581563181	 1.9607960629	-0.0473761611	 0.120379
H	-0.4422064109	 1.8899237051	-0.9916929855	 0.127715
H	-0.5202997754	 1.9926207911	 0.7747628313	 0.109573
H	-0.9939737002	-0.3232385558	 0.0536600464	 0.070353
H	 0.4339298989	-2.5504638614	-0.9799275199	 0.088656
H	 2.0773378244	-1.9972103754	-1.3895166756	 0.10452
H	 2.4702489879	-3.624460621	 1.2727946252	 0.116279
H	 1.5304562819	-2.87231566	 2.5756237835	 0.129859
H	 0.7013544279	-3.7071389101	 1.2581856575	 0.118068
H	 2.7704757524	-0.6416323125	 2.1532745675	 0.108242
H	 2.7754913025	 0.0689797957	 0.462247925	 0.11846
H	 0.2304974251	 0.2256697483	 2.9155429609	 0.287097
131.6924	172.0715	200.1959	214.8292	220.7045	246.3755	281.8751	327.2006	349.6982	431.8183	456.2858	531.0682	575.1826	639.8073	678.6386	776.0802	861.9764	890.2469	920.4456	926.6769	974.7762	1021.4763	1038.6187	1053.8617	1070.5615	1109.7136	1130.892	1146.2038	1199.4689	1221.0705	1242.0356	1286.8266	1318.8837	1344.5071	1369.6103	1391.892	1407.8335	1410.781	1419.5208	1483.1794	1487.4071	1490.3744	1496.2333	1502.0043	1514.6752	2950.0798	2964.4662	3027.9695	3038.9853	3061.9496	3085.7748	3109.779	3113.1864	3120.7286	3122.9543	3213.8717	3806.2921
CC1OCC2(C)CC12O	C[C@H]1OC[C@@]2(C)C[C@@]12O	
InChI=1S/C7H12O2/c1-5-7(8)3-6(7,2)4-9-5/h5,8H,3-4H2,1-2H3	InChI=1S/C7H12O2/c1-5-7(8)3-6(7,2)4-9-5/h5,8H,3-4H2,1-2H3/t5-,6-,7-/m1/s1
