13
gdb 129753	3.46994	1.30279	0.94812	3.0276	73.29	-0.2121	-0.0316	0.1805	1133.3319	0.08844	-452.70283	-452.694645	-452.6937	-452.735345	30.704	
N	 0.0572079794	 1.5024758963	-0.1522952998	-0.62416
C	 0.0099752621	 0.1210268203	-0.0679630966	-0.032129
C	-1.0592613323	-0.735103477	-0.017683416	 0.27841
O	-0.6150943223	-2.0313963005	-0.0233305156	-0.237685
N	 0.7681119878	-2.0278885559	-0.0695182545	-0.240213
C	 1.121760834	-0.7688148637	-0.0971072261	 0.420501
O	 2.4022523368	-0.360781284	-0.1352741552	-0.432684
C	-2.4370709977	-0.4832673215	 0.036752018	 0.212041
C	-3.6137159998	-0.2264382349	 0.0900128188	-0.381365
H	 0.8990367533	 1.9030817066	 0.2380087306	 0.263073
H	-0.772101376	 1.9642384482	 0.1953328604	 0.259673
H	 2.9649946946	-1.1464805428	-0.1340442661	 0.314363
H	-4.6532681799	-0.012483111	 0.1282005321	 0.200173
115.0579	127.3943	229.7489	271.0887	279.2111	360.4529	413.9086	439.5504	462.4364	519.0563	532.44	602.2477	641.9356	649.1602	702.7337	725.6985	758.1328	789.7793	985.2374	1030.5625	1187.3362	1209.2371	1246.0831	1371.907	1534.7672	1590.1935	1638.221	1694.5237	2223.6485	3500.3847	3551.4594	3651.4012	3785.7294
NC1=C(ON=C1O)C#C	Nc1c(onc1O)C#C	
InChI=1S/C5H4N2O2/c1-2-3-4(6)5(8)7-9-3/h1H,6H2,(H,7,8)	InChI=1S/C5H4N2O2/c1-2-3-4(6)5(8)7-9-3/h1H,6H2,(H,7,8)
