20
gdb 126158	3.73273	0.96511	0.92572	4.7213	80.81	-0.2531	0.0072	0.2603	1372.2523	0.171676	-399.340023	-399.33094	-399.329996	-399.374759	33.074	
C	-0.0607272106	 1.5221527499	-0.101343217	-0.390846
C	-0.1271700958	 0.0007793456	 0.0597071635	-0.179552
C	 0.6805857794	-0.5286817389	 1.2583082208	 0.052495
C	 0.1499099327	-0.0688029939	 2.6195811066	-0.399538
N	 0.7656471334	-1.990878334	 1.2056847954	 0.068339
C	-0.2048614135	-2.924511529	 1.3514056471	-0.106007
C	 0.4472802504	-4.1223605072	 1.180264131	-0.068847
N	 1.7619860737	-3.8710523982	 0.9408558137	-0.195469
N	 1.952891032	-2.5814549107	 0.9554861317	-0.146402
H	 0.9763172679	 1.8663382063	-0.1804218429	 0.124956
H	-0.5828521337	 1.8333297458	-1.0105720551	 0.123743
H	-0.5250337738	 2.0469179968	 0.7389381858	 0.122592
H	-1.1726496498	-0.3184670301	 0.1589910463	 0.099169
H	 0.2621313222	-0.4807984672	-0.8438112056	 0.12191
H	 1.7212677023	-0.2088788615	 1.1505286293	 0.119212
H	-0.897796248	-0.3560961388	 2.7580684782	 0.12004
H	 0.7378538268	-0.5080329706	 3.4294614213	 0.139019
H	 0.2127700325	 1.0187322173	 2.7041114766	 0.131768
H	-1.2313371289	-2.6734751591	 1.5570340262	 0.140755
H	 0.056416191	-5.1263677124	 1.216126017	 0.122662
37.551	93.2753	113.8843	202.0962	219.3461	270.5794	292.7405	347.0091	402.7562	484.9839	670.4473	709.2	724.8204	786.3024	790.4113	854.4281	859.4316	958.0303	970.2244	987.1376	1028.0717	1044.7007	1079.7316	1097.3913	1141.5764	1154.3301	1176.0626	1216.5066	1286.2663	1297.8658	1319.846	1350.9951	1373.3993	1390.2388	1411.8115	1419.1366	1483.1161	1489.2333	1497.1429	1501.0504	1506.564	1510.4214	1519.7031	3026.6397	3038.6504	3043.5739	3068.4859	3081.1854	3107.39	3113.3384	3117.2048	3131.6512	3267.1521	3292.1534
CCC(C)N1C=CN=N1	CC[C@@H](C)n1ccnn1	
InChI=1S/C6H11N3/c1-3-6(2)9-5-4-7-8-9/h4-6H,3H2,1-2H3	InChI=1S/C6H11N3/c1-3-6(2)9-5-4-7-8-9/h4-6H,3H2,1-2H3/t6-/m1/s1
