15
gdb 19727	4.20852	2.39654	2.21447	2.7176	58.65	-0.2407	0.0741	0.3148	672.4316	0.122425	-399.760543	-399.75522	-399.754276	-399.789698	22.247	
C	-0.00908699	 1.5489041361	-0.0024941238	-0.082583
O	 1.3893413579	 1.8986930756	 0.0312548365	-0.278033
C	 2.0645937495	 0.6343890195	 0.0286612377	 0.194142
O	 1.2414124512	-0.2057029064	-0.74488815	-0.228609
C	 0.0493714014	-0.0000107764	 0.0240280795	 0.015257
C	 0.4984253475	-0.3669581006	 1.444008946	-0.04992
N	 1.5874777971	-1.3624025788	 1.4785399374	-0.333374
C	 1.913182295	 0.0781696534	 1.4510168334	-0.08375
H	-0.5269917619	 1.9774297686	 0.8623806075	 0.102444
H	-0.4598352078	 1.9287062498	-0.9254745776	 0.111011
H	 3.0551826128	 0.7380379027	-0.4104094102	 0.098498
H	-0.78764018	-0.5368271373	-0.4183363558	 0.096858
H	-0.1673080591	-0.2293503277	 2.2879550522	 0.09989
H	 1.6829301536	-1.689582709	 2.4379852413	 0.234442
H	 2.3797207628	 0.5773303605	 2.291007686	 0.103727
262.9829	337.8936	388.5006	509.874	635.4162	666.4032	792.1634	809.7455	847.261	874.6424	878.403	902.9325	909.3425	943.814	966.4003	980.6754	1020.7472	1053.8756	1072.095	1100.9606	1131.7357	1145.1053	1189.1391	1227.9412	1257.4037	1270.459	1291.371	1349.2843	1349.6838	1360.5989	1411.8728	1515.8714	3035.0545	3081.3367	3143.2303	3147.7707	3182.6972	3199.3772	3494.4564
C1OC2OC1C1NC21	C1O[C@@H]2O[C@H]1[C@H]1N[C@@H]21	
InChI=1S/C5H7NO2/c1-2-3-4(6-3)5(7-1)8-2/h2-6H,1H2	InChI=1S/C5H7NO2/c1-2-3-4(6-3)5(7-1)8-2/h2-6H,1H2/t2-,3-,4-,5-/m1/s1
