16
gdb 19204	2.7545	2.71193	2.67684	1.1684	63.68	-0.2445	-0.0001	0.2444	685.622	0.133537	-383.731391	-383.725537	-383.724593	-383.760985	23.999	
C	-0.0080193509	 1.5387566346	 0.0165725406	-0.065135
O	 1.3324986763	 2.0330251122	 0.0296142518	-0.277097
C	 2.2899816176	 0.9557567353	 0.0219282736	 0.026275
C	 2.0207529376	 0.1078891478	 1.2782719801	-0.065136
O	 0.6944262301	-0.4185052839	 1.2059725225	-0.277096
C	 0.0280037146	-0.0001189001	-0.0015743905	 0.026275
C	 0.8322733896	-0.4324287623	-1.2032911961	-0.070371
C	 2.0630655156	 0.0810934099	-1.1869296366	-0.07037
H	-0.5218871466	 1.8807518065	 0.9240501571	 0.10457
H	-0.5368344647	 1.9323572384	-0.8617289887	 0.09807
H	 3.274707772	 1.4230784395	 0.0562500927	 0.082294
H	 2.7403623954	-0.7176232658	 1.3599555076	 0.09807
H	 2.1035855145	 0.7416455527	 2.1704758046	 0.10457
H	-0.9751004443	-0.4258383576	 0.0408345177	 0.082294
H	 0.4257615097	-1.0773398118	-1.9735248468	 0.101394
H	 2.8320419134	-0.0945196557	-1.9300697797	 0.101394
189.2996	323.7598	379.076	403.9517	434.7033	604.1252	662.1762	704.067	722.7957	834.1277	847.9428	875.3398	916.5049	959.8091	962.505	989.6602	1027.0391	1059.3847	1077.7249	1087.8556	1090.5479	1148.9457	1228.0462	1228.4684	1301.8713	1303.6253	1327.4775	1329.9195	1383.9911	1391.7293	1399.1288	1506.3225	1511.1851	1676.9213	3004.5148	3007.4504	3046.5655	3049.4399	3110.9284	3113.3388	3185.0687	3208.7102
C1OC2COC1C=C2	C1O[C@H]2CO[C@@H]1C=C2	
InChI=1S/C6H8O2/c1-2-6-4-7-5(1)3-8-6/h1-2,5-6H,3-4H2	InChI=1S/C6H8O2/c1-2-6-4-7-5(1)3-8-6/h1-2,5-6H,3-4H2/t5-,6-/m1/s1
