22
gdb 59234	2.47142	1.40922	1.05824	2.5977	81.4	-0.2371	0.0719	0.309	1225.6747	0.194152	-404.308519	-404.299273	-404.298329	-404.342264	35.906	
C	-0.0159211686	 1.6244545484	 0.1266045959	-0.39455
C	 0.0286191064	 0.0941337079	 0.015375083	 0.037071
C	 0.8134234247	-0.5288930248	 1.1784735546	-0.398518
C	-1.3833325635	-0.4860723389	-0.0597157349	-0.017066
C	-2.2757154338	-0.1383603526	-1.2571424499	-0.075432
N	-1.6457718496	-0.7636806252	-2.4512045683	-0.357516
C	-2.5261189415	-1.5704669449	-1.5660128439	-0.086508
C	-1.5869792262	-2.0227570949	-0.4403754849	 0.112329
O	-0.4715302192	-2.7701791172	-0.8421446683	-0.430652
H	 0.9951705967	 2.0443847433	 0.1523488701	 0.109611
H	-0.5421051585	 2.0761529025	-0.7209118363	 0.109901
H	-0.5274265081	 1.9387131043	 1.044795251	 0.106221
H	 0.5423504288	-0.159764822	-0.9195751533	 0.076726
H	 0.8779862439	-1.6137479703	 1.0648801012	 0.135511
H	 1.8314954711	-0.1273128484	 1.2228744212	 0.103667
H	 0.3309294401	-0.3102666329	 2.1394712311	 0.101416
H	-1.9200633216	-0.2822955558	 0.8750601691	 0.066103
H	-2.9421915204	 0.707421578	-1.3736621742	 0.094498
H	-2.1921908973	-0.4976783223	-3.2683142924	 0.233323
H	-3.404260361	-2.0658578652	-1.9617442464	 0.093711
H	-2.0829953709	-2.5818019188	 0.3553875173	 0.087304
H	-0.1796984013	-2.3646189501	-1.6706684716	 0.29285
77.5029	122.3423	165.1355	222.5109	237.8748	263.7903	299.5968	323.6393	415.7523	487.8429	518.0397	562.1905	639.3284	704.3083	784.3564	839.081	843.1492	883.7181	909.3723	928.5091	939.6183	963.515	980.0024	1017.2627	1036.0021	1084.2657	1101.4765	1126.6804	1147.0933	1159.5843	1182.9058	1199.3879	1238.256	1263.2235	1297.314	1320.3754	1331.8986	1348.6089	1376.6794	1392.4748	1396.0203	1418.0348	1449.0888	1489.6833	1493.6027	1504.2962	1517.4797	3020.5863	3024.0189	3027.6062	3041.2725	3083.3429	3090.8509	3096.5669	3097.0254	3123.8791	3182.1108	3195.8849	3490.8122	3746.0153
CC(C)C1C2NC2C1O	CC(C)[C@H]1[C@H]2N[C@H]2[C@H]1O	
InChI=1S/C7H13NO/c1-3(2)4-5-6(8-5)7(4)9/h3-9H,1-2H3	InChI=1S/C7H13NO/c1-3(2)4-5-6(8-5)7(4)9/h3-9H,1-2H3/t4-,5+,6+,7-/m0/s1
