17
gdb 17176	4.04347	1.84113	1.59022	0.9705	67.82	-0.2351	0.0615	0.2966	862.998	0.141826	-363.751221	-363.744168	-363.743224	-363.782563	27.208	
C	-0.0467427649	 1.5455737982	-0.0432851684	-0.382004
C	-0.0782698575	 0.0124896291	-0.0392104814	-0.33329
C	-1.467162787	-0.5359619424	 0.0200825037	 0.517864
O	-2.4221488482	-0.2256199496	-1.0487143214	-0.360967
C	-3.1898869083	-1.0660548539	-0.1444027529	 0.072625
C	-1.9894268793	-1.9959457666	 0.2223672436	-0.135892
N	-2.0986544487	-1.8070347451	 1.7062626729	-0.350069
C	-2.5468930053	-0.4864683966	 1.1551594035	-0.122049
H	 0.9796647997	 1.9131036709	-0.1292582474	 0.114112
H	-0.6254996921	 1.9416798483	-0.8820866129	 0.138775
H	-0.4732162753	 1.950469258	 0.8800879527	 0.118953
H	 0.4100291331	-0.3786894841	-0.9401117613	 0.113304
H	 0.4696656797	-0.3878169198	 0.8219759139	 0.125467
H	-4.2273044004	-1.2958406716	-0.391822622	 0.093034
H	-1.6513945502	-2.9177118412	-0.2527874246	 0.088594
H	-2.9011295437	-2.3275916315	 2.0690103563	 0.212246
H	-2.8637753317	 0.3557018177	 1.7713037259	 0.089299
85.1644	166.0735	190.0431	278.3831	368.2848	514.3696	546.8899	638.8994	732.7026	770.7048	772.9708	817.4574	854.9089	866.0087	906.8159	918.6789	975.8552	989.2488	1024.4013	1077.6552	1100.3902	1103.6189	1141.838	1150.9346	1159.0521	1208.8765	1238.6782	1278.3384	1291.3631	1304.7023	1346.7888	1407.9469	1421.5643	1468.3096	1497.0627	1507.6668	3032.7962	3042.5539	3072.2086	3104.2372	3110.5605	3113.0434	3122.9445	3124.3405	3409.274
CCC12OC3C1NC23	CC[C@@]12O[C@H]3[C@@H]1N[C@@H]23	
InChI=1S/C6H9NO/c1-2-6-4-3(8-6)5(6)7-4/h3-5,7H,2H2,1H3	InChI=1S/C6H9NO/c1-2-6-4-3(8-6)5(6)7-4/h3-5,7H,2H2,1H3/t3-,4-,5+,6+
