20
gdb 8366	5.15653	1.10573	1.08106	1.29	75.67	-0.2632	0.0804	0.3436	1169.1415	0.177751	-348.951645	-348.943651	-348.942707	-348.984488	30.332	
O	-0.115098277	 1.4418200713	 0.0105335744	-0.418898
C	 0.0223885709	 0.0282180695	 0.0020333522	-0.073084
C	-1.3774234776	-0.5756869087	 0.0115262477	-0.320898
C	-1.379369944	-2.0839685172	 0.0041122677	 0.360305
C	-0.764669989	-3.05277541	 1.0695611176	-0.24747
C	-1.4076484813	-3.9717348624	-0.0050145708	-0.043513
C	-2.6314308906	-3.014461397	 0.0090185062	-0.259966
C	-0.7809719557	-3.0421594069	-1.080076451	-0.247481
H	 0.7649583308	 1.8291315169	 0.0042408899	 0.284252
H	 0.5691274326	-0.3134810033	-0.8915123308	 0.087354
H	 0.5851051372	-0.3225882307	 0.8820358714	 0.087338
H	-1.9090823392	-0.2079198026	 0.8980260806	 0.105443
H	-1.9247825177	-0.1992395598	-0.8616743005	 0.105433
H	 0.3266049654	-3.0763294165	 1.1459342593	 0.084349
H	-1.2326836063	-3.0492083116	 2.0587198717	 0.086066
H	-1.4250727969	-5.0619892306	-0.0102658168	 0.068936
H	-3.2412321282	-3.006477969	 0.917615224	 0.085713
H	-3.2549856345	-2.9974963356	-0.8900709936	 0.085708
H	-1.2639028526	-3.0288638978	-2.0619549249	 0.086064
H	 0.3090230539	-3.0648700279	-1.1731834342	 0.084349
71.7852	89.3591	135.7684	265.3932	310.542	347.9201	369.1545	543.0782	543.4679	697.1057	758.1392	804.0282	813.5102	881.8501	925.9735	943.1432	960.0591	977.12	996.0854	1020.0108	1043.7	1069.9484	1101.0204	1105.3206	1143.2519	1145.3036	1156.6389	1181.5404	1227.1834	1227.9703	1235.6888	1255.2854	1256.8967	1304.591	1315.4515	1364.6573	1458.6978	1485.061	1496.9857	1498.3991	1528.0992	1554.9253	2964.5765	2990.3639	3025.931	3036.468	3037.6252	3045.9141	3067.3744	3098.661	3104.6285	3105.481	3106.8448	3829.91
OCCC12CC(C1)C2	OCC[C@@]12C[C@@H](C1)C2	
InChI=1S/C7H12O/c8-2-1-7-3-6(4-7)5-7/h6,8H,1-5H2	InChI=1S/C7H12O/c8-2-1-7-3-6(4-7)5-7/h6,8H,1-5H2/t6-,7+
