18
gdb 55386	2.58661	1.56266	0.99467	3.9482	75.66	-0.2286	0.0121	0.2407	1163.6882	0.14897	-435.332237	-435.323295	-435.322351	-435.36628	32.639	
C	 0.0126632823	 1.508600543	-0.0443037156	-0.456434
C	 0.0040060971	 0.0150658389	-0.0381712475	 0.388965
N	-0.1277290089	-0.684941428	-1.0973934911	-0.297596
C	-0.1047057204	-2.1024007884	-0.7289195176	-0.178974
C	 0.1458969771	-2.1573395478	 0.8022469828	-0.209111
N	 0.1558188807	-0.7314321284	 1.1532691443	-0.171413
C	 0.2150623505	-0.2305250823	 2.4463771528	 0.448887
N	 0.3562874289	-1.2045979741	 3.4195881421	-0.562954
O	 0.1082035323	 0.9489330768	 2.7249851357	-0.395365
H	 0.9316198147	 1.8972300637	 0.4009208688	 0.146123
H	-0.0763778461	 1.8401148139	-1.0791550551	 0.134611
H	-0.807565228	 1.9060484961	 0.5565092831	 0.15682
H	-1.0572151487	-2.5693367598	-1.0035721507	 0.119065
H	 0.6777740223	-2.6224269173	-1.2906949847	 0.117275
H	-0.6405209863	-2.6860039619	 1.3493944754	 0.129316
H	 1.1078720309	-2.6281227529	 1.0436213112	 0.111143
H	 0.8162984001	-2.0732501294	 3.2006262598	 0.254945
H	 0.5730197117	-0.8184106722	 4.3253909965	 0.264697
56.75	111.4564	128.4067	200.1082	234.5521	247.7518	350.4481	396.6858	432.6962	517.8114	530.7786	604.4649	663.4456	693.6268	767.2467	788.6172	850.2483	947.5384	977.5785	1052.2406	1063.7739	1075.5009	1114.6066	1134.3102	1199.6506	1217.8834	1256.0833	1284.0628	1338.5599	1373.4892	1417.2164	1422.812	1457.7958	1470.6586	1500.9254	1528.8577	1622.5258	1720.1709	1793.203	3007.4889	3039.5955	3062.2198	3066.3264	3080.5285	3132.1524	3162.3218	3588.5174	3706.7191
CC1=NCCN1C(N)=O	CC1=NCCN1C(=O)N	
InChI=1S/C5H9N3O/c1-4-7-2-3-8(4)5(6)9/h2-3H2,1H3,(H2,6,9)	InChI=1S/C5H9N3O/c1-4-7-2-3-8(4)5(6)9/h2-3H2,1H3,(H2,6,9)
