21
gdb 107199	3.6687	1.21751	1.08837	1.8869	80.99	-0.2486	0.0815	0.3301	1195.1431	0.183387	-387.074994	-387.066875	-387.065931	-387.107501	32.448	
C	 0.021460693	 1.5211470777	 0.3932588485	-0.375023
C	-0.0301508713	 0.0683798378	-0.0976306241	-0.272085
C	-1.432710964	-0.5041066381	-0.1406889879	 0.36319
C	-2.0156083718	-1.0994940868	 1.1171597392	-0.328098
C	-1.6936777711	-2.0026638265	-0.0531855416	-0.12758
C	-2.8368718757	-2.3183532895	-0.9890098426	 0.028863
O	-4.0841378269	-1.6942549989	-0.6425675394	-0.256054
C	-3.2754242027	-1.0817154078	-1.6562303753	 0.043528
C	-2.413181444	 0.0782061316	-1.1771897992	-0.32415
H	 1.0510462697	 1.8910790415	 0.423756368	 0.110123
H	-0.5496388198	 2.1849914226	-0.2644199553	 0.1174
H	-0.4001837639	 1.6096355722	 1.3998620726	 0.119541
H	 0.4211583562	 0.0045461779	-1.0975251246	 0.091368
H	 0.5882484579	-0.5579404455	 0.5574298959	 0.093166
H	-1.3594139638	-1.1586196315	 1.9801584644	 0.102036
H	-3.0628146634	-0.9426102219	 1.343808871	 0.131876
H	-0.8816302896	-2.7169568349	 0.0227142719	 0.079958
H	-2.9221754502	-3.3048915769	-1.4359477313	 0.093215
H	-3.7272145653	-1.0531731191	-2.645666089	 0.092533
H	-3.0235067354	 0.8971121365	-0.7814327962	 0.115427
H	-1.8515632378	 0.4763232896	-2.0315254153	 0.100768
91.0386	137.1333	204.083	261.0461	304.3061	348.0403	378.6476	418.3693	558.6756	630.5879	698.749	719.163	787.8832	805.0168	823.8331	872.8328	896.4008	916.1174	918.9561	962.204	991.1346	1011.7524	1024.4062	1050.7835	1074.2597	1082.2321	1096.9918	1112.1374	1127.3483	1196.8161	1235.5348	1251.3502	1269.9274	1307.6406	1315.3707	1351.5308	1362.0498	1397.7631	1411.1854	1422.0841	1472.0182	1477.0641	1491.0568	1498.9703	1508.0493	3008.626	3031.8035	3033.8164	3046.3984	3074.7916	3101.4955	3105.0271	3131.9093	3132.1941	3153.316	3176.7307	3228.7816
CCC12CC1C1OC1C2	CC[C@]12C[C@H]1[C@H]1O[C@H]1C2	
InChI=1S/C8H12O/c1-2-8-3-5(8)7-6(4-8)9-7/h5-7H,2-4H2,1H3	InChI=1S/C8H12O/c1-2-8-3-5(8)7-6(4-8)9-7/h5-7H,2-4H2,1H3/t5-,6-,7+,8+/m0/s1
