21
gdb 110462	3.75465	1.34102	1.20721	0.0542	83.94	-0.2162	0.0886	0.3048	1121.2236	0.184403	-349.915389	-349.90794	-349.906996	-349.947284	30.698	
C	 0.0927804757	 1.513017903	-0.0726762729	-0.385916
C	-0.0140939546	-0.0134806976	 0.0024967547	-0.172132
C	-1.457015383	-0.5337136158	 0.0460729976	 0.009069
C	-2.2435856033	-0.3443983311	-1.2437340624	-0.077067
C	-2.0317558821	-1.5216524228	-2.1809892377	-0.082056
C	-3.3187528508	-1.4021449331	-1.3905124244	-0.097011
C	-2.8545766138	-2.5532646491	-0.4607963482	-0.10211
C	-1.5679024605	-2.6714432328	-1.2514790033	-0.081488
C	-1.5563031792	-2.0488516673	 0.1345457863	-0.086351
H	 1.1383157359	 1.8370962258	-0.0674602956	 0.109249
H	-0.3687869663	 1.9051650119	-0.9849288998	 0.115447
H	-0.4057281463	 1.9877832057	 0.7801451358	 0.111688
H	 0.4982321657	-0.4653839588	-0.8561549231	 0.097981
H	 0.5154740733	-0.3665539372	 0.8969147919	 0.087751
H	-1.986989447	-0.0657314673	 0.8878020422	 0.065833
H	-2.418905444	 0.637227728	-1.667780626	 0.081502
H	-1.864288237	-1.4392481894	-3.2457864654	 0.081044
H	-4.3258653667	-1.2102097218	-1.7338458713	 0.082148
H	-3.4724127713	-3.3251609078	-0.0233418589	 0.082332
H	-1.0088828939	-3.5519322397	-1.5358700009	 0.081227
H	-1.1020384709	-2.5960959328	 0.9529894416	 0.078861
88.5082	152.3803	193.6665	259.0099	367.0681	502.8247	577.2773	681.935	709.6338	734.7813	752.6979	781.2364	798.0208	823.1442	852.696	888.4742	914.7271	926.7129	935.1297	959.2899	963.7349	980.4698	1004.8033	1036.8564	1045.5596	1051.4114	1064.1975	1066.9411	1111.4774	1127.5287	1144.1991	1209.5902	1243.5166	1265.4997	1275.1117	1276.2538	1287.5963	1334.79	1366.2747	1388.9658	1396.0815	1411.9897	1484.964	1500.1277	1506.3167	3007.7796	3018.1535	3029.7713	3053.8041	3095.9994	3100.9978	3177.8613	3186.0886	3196.1868	3206.3249	3208.6975	3218.4479
CCC1C2C3C2C2C3C12	CC[C@H]1[C@H]2[C@@H]3[C@H]2[C@H]2[C@@H]3[C@@H]12	
InChI=1S/C9H12/c1-2-3-4-6-7(4)9-5(3)8(6)9/h3-9H,2H2,1H3	InChI=1S/C9H12/c1-2-3-4-6-7(4)9-5(3)8(6)9/h3-9H,2H2,1H3/t3-,4-,5+,6+,7-,8+,9-
