17
gdb 30393	3.90337	1.11652	0.87369	3.5243	85.05	-0.1944	-0.015	0.1793	1298.0189	0.136702	-418.032685	-418.024132	-418.023188	-418.065999	31.96	
C	-0.06184116	 1.4536727986	-0.0223597196	-0.318084
N	-0.0169214204	 0.0027377001	-0.0247589263	-0.324286
C	 0.5821022776	-0.597351321	 0.9446667521	 0.315971
C	 1.2476614823	 0.0262133177	 2.0978964593	-0.246328
C	 1.8270435009	-0.7224581486	 3.0416866201	 0.050131
O	 1.8645208798	-2.083350926	 3.0217768931	-0.229289
C	 1.2666149216	-2.7145345562	 1.9697982403	 0.427833
N	 1.4619372225	-4.0785524348	 2.0666452643	-0.570942
C	 0.6416026854	-2.0479701537	 0.9772985495	-0.292459
H	 0.9378943937	 1.9147537357	-0.0609565115	 0.104007
H	-0.6090151302	 1.7947183276	-0.9059391429	 0.113525
H	-0.5769170869	 1.8676973651	 0.8591441519	 0.102758
H	 1.2767632228	 1.1018100507	 2.2071944653	 0.112029
H	 2.3311753883	-0.3420797924	 3.9210081075	 0.135218
H	 1.5274020342	-4.4158539277	 3.017082558	 0.258954
H	 0.834245	-4.6281400473	 1.4992370195	 0.263477
H	 0.1723576985	-2.5962938878	 0.1699470694	 0.097486
75.2696	112.4052	174.7197	221.6147	273.8729	303.6877	369.5617	404.9068	451.5365	540.0023	589.9128	603.3871	681.2537	718.2319	759.365	821.6156	855.8349	900.023	947.9545	951.5839	1026.2989	1072.171	1096.8685	1130.8197	1154.1059	1252.5957	1290.7449	1314.7028	1414.7995	1425.01	1435.8214	1489.3334	1505.7972	1624.7815	1645.1322	1683.3605	1735.725	2961.4806	3006.6881	3085.989	3209.1171	3213.1436	3232.824	3566.0329	3675.1385
CN=C1C=COC(N)=C1	C[N]C1=C[C@H](OC=C1)N	
InChI=1S/C6H8N2O/c1-8-5-2-3-9-6(7)4-5/h2-4H,7H2,1H3	InChI=1S/C6H9N2O/c1-8-5-2-3-9-6(7)4-5/h2-4,6H,7H2,1H3/t6-/m0/s1
