19
gdb 63775	3.13341	1.16356	1.01557	3.2035	76.83	-0.2407	-0.0238	0.2169	1212.3238	0.157356	-423.001187	-422.992345	-422.991401	-423.034492	33.969	
C	 0.2747009916	 1.2067675243	-0.9951088836	-0.462223
C	 0.6067953833	-0.2567737159	-0.7389112065	 0.403036
O	-0.4875356132	-1.0757665777	-1.138535011	-0.471196
C	 1.9670442681	-0.8639270654	-1.2528759878	-0.307012
C	 2.2241900714	-1.4134076348	 0.1608796771	-0.078983
C	 2.3303425534	-0.3080347018	 1.1919549407	-0.112107
C	 3.0194554602	 0.9904309878	 0.9832928326	 0.139867
O	 3.5327331973	 1.6169496148	 1.8800870994	-0.270097
C	 0.9643857935	-0.7433704292	 0.6722069785	-0.090295
H	 0.1262538717	 1.3789347936	-2.0691190542	 0.109256
H	-0.6523879621	 1.4728717348	-0.4786276625	 0.132355
H	 1.0619997993	 1.885739142	-0.6623527428	 0.123885
H	-0.696855795	-0.860148895	-2.0541092061	 0.276652
H	 1.7636163793	-1.6586360315	-1.97244467	 0.112787
H	 2.7151413635	-0.1852595199	-1.6712672755	 0.100498
H	 2.6094591559	-2.3999605662	 0.3858762511	 0.100376
H	 2.4939616677	-0.6705531398	 2.2037527744	 0.113185
H	 3.0776971896	 1.3602055456	-0.0613236725	 0.073998
H	 0.2221935448	-1.1093812457	 1.3713529688	 0.106019
73.9576	145.802	215.1717	227.731	260.5507	289.1501	332.9556	374.4729	406.7442	438.9172	484.0451	577.7239	628.966	786.3088	811.9484	825.0575	847.7515	943.7016	944.9722	968.9409	993.1306	1000.5969	1035.7055	1055.7878	1086.8791	1115.7196	1127.6331	1183.3214	1214.5642	1227.2957	1247.8392	1273.9718	1321.1316	1380.2005	1388.7758	1411.3367	1460.8415	1485.6194	1491.1488	1494.2024	1806.4091	2907.3202	3025.9888	3063.0667	3097.0578	3124.72	3133.81	3151.5907	3184.4643	3195.8182	3800.4032
CC1(O)CC2C(C=O)C12	C[C@@]1(O)C[C@H]2[C@@H](C=O)[C@@H]12	
InChI=1S/C7H10O2/c1-7(9)2-4-5(3-8)6(4)7/h3-6,9H,2H2,1H3	InChI=1S/C7H10O2/c1-7(9)2-4-5(3-8)6(4)7/h3-6,9H,2H2,1H3/t4-,5+,6-,7+/m0/s1
