20
gdb 88729	3.76103	0.90103	0.79776	3.9166	81.98	-0.2471	0.006	0.2531	1471.2757	0.169997	-403.129785	-403.120489	-403.119545	-403.164636	33.881	
C	-0.9197030294	 0.903871553	 0.339162295	-0.406291
C	 0.1403513223	-0.1302656626	 0.0247022858	-0.004825
C	 1.4430351004	 0.2568919486	-0.6265087051	-0.306772
C	 1.4369761575	-0.2508783249	 0.8009917755	-0.010435
C	 1.7736089403	 0.6582596414	 1.9377233078	-0.02679
C	 1.9375377493	 0.1108806829	 3.3315505921	-0.253243
N	 3.0809606124	 0.5720161544	 2.5795082776	-0.068365
C	 4.1374011543	-0.2317452891	 2.1942225985	 0.13718
O	 4.6422360017	-1.0883159331	 2.879690488	-0.293339
H	-0.4860650484	 1.8770798461	 0.5868246087	 0.11808
H	-1.575087972	 1.0530964176	-0.5255654523	 0.122611
H	-1.5466515078	 0.5932860061	 1.182093383	 0.122403
H	-0.2687053076	-1.0861799442	-0.2923382279	 0.092277
H	 1.8625085027	-0.3767586266	-1.400000048	 0.118001
H	 1.6272896018	 1.3172837989	-0.7728925504	 0.114873
H	 1.8012801749	-1.2652651121	 0.9459369862	 0.097564
H	 1.4069006031	 1.6782805982	 1.846220597	 0.099327
H	 1.6535444691	 0.7132636907	 4.1900321637	 0.126315
H	 1.844407347	-0.96383424	 3.4687872634	 0.135577
H	 4.5226898684	 0.0525797247	 1.1965611214	 0.085854
46.7873	80.7681	144.8073	191.199	198.1814	216.8518	303.0925	356.4545	396.8083	422.3351	534.5083	645.351	761.0331	799.0735	836.3899	871.1851	912.1345	922.6788	957.7209	1014.6752	1027.6428	1041.2961	1069.2988	1089.7524	1107.5377	1118.0575	1140.4178	1149.9082	1163.8233	1198.4877	1205.2788	1255.5055	1319.8575	1382.7242	1399.9272	1418.0551	1424.3857	1457.6853	1492.3448	1494.6622	1505.6089	1513.8023	1795.2144	2955.7123	3032.8728	3093.0365	3102.7382	3108.9532	3125.3041	3128.8817	3134.7797	3144.1285	3197.6332	3212.5569
CC1CC1C1CN1C=O	C[C@H]1C[C@H]1[C@H]1CN1C=O	
InChI=1S/C7H11NO/c1-5-2-6(5)7-3-8(7)4-9/h4-7H,2-3H2,1H3	InChI=1S/C7H11NO/c1-5-2-6(5)7-3-8(7)4-9/h4-7H,2-3H2,1H3/t5-,6+,7+,8?/m0/s1
