17
gdb 98024	4.16529	0.62498	0.5742	1.9397	77.59	-0.2719	-0.0365	0.2353	1932.2452	0.132664	-458.957689	-458.947148	-458.946204	-458.995101	35.459	
C	 0.4723200097	 1.3002404503	 0.1954604843	-0.241462
O	 0.5805236831	-0.1238339384	 0.059107117	-0.218217
C	 0.3949336552	-0.5880931714	-1.1912298576	 0.260584
O	 0.1589786913	 0.1060971578	-2.149561096	-0.356684
C	 0.5176532195	-2.0254821537	-1.231580569	-0.116533
C	 0.5961451024	-3.2237617631	-1.3397862835	 0.268539
C	 0.735167019	-4.6803172204	-1.4388501677	-0.034042
C	 2.0099853914	-5.0612786401	-2.2074437913	-0.390971
O	 0.6716876374	-5.3071032476	-0.1639241154	-0.407601
H	 1.2209764485	 1.8042120201	-0.420914766	 0.144191
H	-0.5204735145	 1.6414575264	-0.1080863253	 0.145434
H	 0.6426927831	 1.5069360817	 1.2516945155	 0.136781
H	-0.1334761844	-5.0718842507	-1.9820062662	 0.131824
H	 2.8968594405	-4.6744341748	-1.6955453825	 0.122776
H	 2.0809892678	-6.150312122	-2.2622498438	 0.132761
H	 1.9935318212	-4.6494648133	-3.2202937576	 0.135427
H	 1.3522669587	-4.9111364209	 0.392231265	 0.287194
23.9983	68.1485	78.9218	133.3999	161.5346	193.6352	250.3284	271.3089	297.5551	312.3054	361.0754	452.0171	547.9674	591.4801	618.0764	773.8732	792.4243	883.6649	951.8954	1025.9961	1061.1208	1092.2524	1141.7282	1177.3544	1213.4659	1275.2724	1285.4916	1328.2833	1399.5283	1416.7156	1472.2138	1481.6653	1487.8271	1491.3387	1496.3287	1791.1844	2345.0663	3040.9073	3045.1119	3053.3903	3119.0467	3128.624	3133.0384	3163.5014	3802.7956
COC(=O)C#CC(C)O	COC(=O)C#C[C@@H](C)O	
InChI=1S/C6H8O3/c1-5(7)3-4-6(8)9-2/h5,7H,1-2H3	InChI=1S/C6H8O3/c1-5(7)3-4-6(8)9-2/h5,7H,1-2H3/t5-/m1/s1
