20
gdb 64133	3.22807	1.09584	1.02335	4.4751	78.66	-0.2782	0.0153	0.2935	1258.3942	0.170759	-403.174729	-403.16556	-403.164616	-403.209048	34.344	
C	 0.1054100779	 1.3864995212	-0.1737102925	-0.429239
C	-0.0594944919	-0.1239409454	 0.0661662839	 0.296164
C	-1.5420103005	-0.5033241166	 0.1267263429	-0.447989
C	 0.706174135	-0.913862667	-1.0109401078	-0.115308
O	 2.0760813595	-0.8466253175	-0.6209528179	-0.247064
C	 2.1236511548	-0.9724976976	 0.7940322676	-0.028653
C	 0.7203402554	-0.5633960673	 1.3357535865	-0.297634
C	 2.4821685434	-2.3521393313	 1.1823603199	 0.275068
N	 2.757168044	-3.4311434587	 1.4917577743	-0.32412
H	 1.1602601944	 1.6571570489	-0.2795421562	 0.128754
H	-0.4135243392	 1.6951596975	-1.0874982774	 0.116863
H	-0.3132873812	 1.9626149095	 0.6580960245	 0.115439
H	-2.0507721146	-0.2416655381	-0.8075354431	 0.120061
H	-1.6742131728	-1.5773996937	 0.2933260469	 0.120721
H	-2.0518628991	 0.0280370671	 0.9370705158	 0.121829
H	 0.3647666055	-1.9598352217	-1.0507378049	 0.101613
H	 0.6331595403	-0.4823805206	-2.0124035522	 0.116393
H	 2.9173127289	-0.3103802586	 1.1540895175	 0.13066
H	 0.7992073169	 0.2360635324	 2.0752450335	 0.119105
H	 0.2350585333	-1.4157648924	 1.8160756587	 0.127337
31.4171	129.962	197.1241	224.6386	252.1171	272.4693	303.1008	330.4963	385.2438	408.7915	499.4469	578.8496	595.163	721.5279	780.0244	822.7168	905.3482	933.2581	954.4362	962.1757	972.5667	1000.5045	1025.1898	1057.7208	1089.3788	1154.8921	1222.2069	1228.519	1253.9198	1285.5179	1310.2326	1322.7036	1363.3876	1382.7565	1402.6025	1425.5122	1484.5472	1488.1759	1496.2682	1505.275	1509.7204	1515.6412	2353.3554	2986.8407	3028.3841	3032.8433	3062.5792	3074.0108	3095.2602	3097.891	3101.4504	3103.2132	3110.3746	3122.7693
CC1(C)COC(C1)C#N	CC1(C)CO[C@@H](C1)C#N	
InChI=1S/C7H11NO/c1-7(2)3-6(4-8)9-5-7/h6H,3,5H2,1-2H3	InChI=1S/C7H11NO/c1-7(2)3-6(4-8)9-5-7/h6H,3,5H2,1-2H3/t6-/m0/s1
