21
gdb 52614	1.9872	1.19896	0.95281	1.7191	87.05	-0.2434	0.0592	0.3026	1397.4004	0.17889	-387.050416	-387.039565	-387.038621	-387.087353	38.425	
C	 0.0642316263	 1.4934298851	-0.0905162433	-0.500251
C	 0.0879721102	 0.03711323	-0.0740955335	 0.019864
C	 0.1034158382	-1.1670469461	-0.0506384369	 0.115921
C	 0.0981408799	-2.6333848522	-0.0608743583	 0.015483
C	-1.3454820048	-3.1465724097	 0.1547767184	-0.403649
C	 0.6487187069	-3.1493745448	-1.4110888355	-0.407179
C	 0.9741320678	-3.2041954507	 1.0586746184	 0.114782
C	 2.0688915654	-2.4773074754	 1.7078797944	-0.200261
O	 0.811715168	-2.6726450128	 2.3676516553	-0.244782
H	 0.9701547095	 1.9043475688	-0.549859313	 0.145322
H	-0.7937944006	 1.8696494938	-0.6586224662	 0.147663
H	-0.0074910128	 1.9002306659	 0.9241677784	 0.151123
H	-2.0075635461	-2.7721446572	-0.6304938364	 0.119289
H	-1.3668351225	-4.2417332193	 0.1321879187	 0.108264
H	-1.7267451868	-2.8108210238	 1.1218947504	 0.140052
H	 1.668077129	-2.7921277368	-1.5809221288	 0.123131
H	 0.6573393517	-4.2447589916	-1.4276228291	 0.111466
H	 0.0222236331	-2.799982524	-2.2358937253	 0.124936
H	 1.0355913769	-4.2950339866	 1.0282055295	 0.085815
H	 2.9069475558	-3.0303861407	 2.1299700808	 0.10969
H	 2.2750375149	-1.4522544221	 1.409305172	 0.123322
26.1112	76.038	90.1566	118.1849	208.8209	229.9369	248.9028	273.3687	296.8279	315.1744	322.3235	413.9242	461.7169	556.9549	597.5772	602.6266	806.3884	870.8046	911.4359	943.1248	951.8746	1014.4003	1037.5846	1052.996	1054.6459	1077.112	1098.7358	1158.7543	1162.9843	1177.5817	1212.7199	1277.8235	1321.6431	1392.0283	1405.045	1414.5219	1430.0983	1478.6735	1479.5472	1482.0529	1485.5913	1497.4811	1508.9981	1519.3111	2367.3539	3026.6609	3033.81	3037.6119	3075.4446	3086.3172	3088.5217	3090.611	3106.2458	3110.4304	3122.1066	3131.3139	3184.5526
CC#CC(C)(C)C1CO1	CC#CC(C)(C)[C@H]1CO1	
InChI=1S/C8H12O/c1-4-5-8(2,3)7-6-9-7/h7H,6H2,1-3H3	InChI=1S/C8H12O/c1-4-5-8(2,3)7-6-9-7/h7H,6H2,1-3H3/t7-/m1/s1
