16
gdb 115262	3.36546	1.02417	0.81688	4.4376	73.35	-0.2518	-0.0565	0.1952	1337.0075	0.125929	-434.081091	-434.072713	-434.071769	-434.114637	30.38	
O	 0.0695998846	 1.4258962201	-0.0169735251	-0.418875
C	 0.0794402006	 0.021834118	-0.1056072228	-0.057237
C	-1.3300254456	-0.5545684938	 0.0445558653	 0.014167
C	-1.4145148127	-2.1061444929	 0.0216999855	-0.212293
N	-2.3795936405	-2.3567495274	 1.1034560383	-0.35286
C	-2.4155891502	-1.1945637777	 1.8543115851	 0.288365
N	-1.8897870055	-0.1422542839	 1.3509055506	-0.323914
C	-3.0728241906	-1.2112421397	 3.1343583309	 0.263732
N	-3.5943353495	-1.2651959779	 4.1639058429	-0.31225
H	-0.4291124784	 1.6418714615	 0.7812262154	 0.299866
H	 0.4885451777	-0.2378443466	-1.0886517008	 0.110154
H	 0.7304247046	-0.4358141358	 0.6589598598	 0.085943
H	-1.963535578	-0.1146213236	-0.7363058486	 0.109725
H	-1.7773407903	-2.5004314763	-0.9295812146	 0.130083
H	-0.4403570671	-2.5659112578	 0.2429410901	 0.114212
H	-2.375846129	-3.2451196161	 1.5832832181	 0.261182
81.5512	114.8357	144.1798	170.6421	231.0564	365.1984	408.8748	461.3876	497.3369	521.7943	560.403	588.1706	703.4287	729.6696	867.8032	924.3218	980.3384	1037.5833	1050.0619	1064.4361	1100.2941	1124.9255	1205.5537	1227.2904	1252.4648	1286.7148	1331.3233	1344.8797	1387.7682	1437.439	1464.086	1505.094	1522.359	1671.9009	2367.4114	2958.6537	2999.6498	3028.5735	3065.6123	3101.2526	3610.4463	3779.6933
OCC1CNC(=N1)C#N	OC[C@H]1CN[C]([N]1)C#N	
InChI=1S/C5H7N3O/c6-1-5-7-2-4(3-9)8-5/h4,9H,2-3H2,(H,7,8)	InChI=1S/C5H7N3O/c6-1-5-7-2-4(3-9)8-5/h4,9H,2-3H2,(H,7,8)/t4-/m1/s1
