21
gdb 87970	2.71728	1.24334	1.20237	0.7461	78.43	-0.2238	0.0786	0.3024	1183.2668	0.181926	-424.21845	-424.209341	-424.208397	-424.252687	34.907	
C	 0.8248670379	 1.2549595949	 0.1024892861	-0.397536
C	-0.052665977	 0.0047792137	 0.0205658174	 0.108858
C	 0.1608542923	-0.8201254664	-1.2636029543	-0.221109
C	 1.3014088259	-1.7920890746	-0.8824456479	-0.31243
C	 1.2991228115	-1.7403879694	 0.6454085002	 0.436385
C	 1.6484994114	-2.8989211537	 1.5338397737	-0.408482
C	 2.5803707698	-1.7027045673	 1.429674906	 0.024662
O	 3.7723095551	-1.8021791651	 0.7060398358	-0.422599
O	 0.2398076281	-0.9186195857	 1.0763306109	-0.294277
H	 1.8804313331	 1.0123441607	-0.0571862511	 0.12969
H	 0.5240640076	 1.983207126	-0.6582393818	 0.110234
H	 0.7266468483	 1.7234306144	 1.0858304359	 0.120356
H	-1.1017348919	 0.2882006681	 0.1526709035	 0.075608
H	-0.7509289054	-1.3765323733	-1.4974361567	 0.10446
H	 0.4032961292	-0.1963446461	-2.1275515161	 0.100211
H	 1.1151355288	-2.8005895532	-1.2597266194	 0.105331
H	 2.2711074045	-1.473072659	-1.2708722308	 0.128499
H	 1.0849850549	-3.0201646385	 2.4527542151	 0.120514
H	 1.9574929781	-3.8193057977	 1.0478864012	 0.111768
H	 2.6015449787	-1.0252794054	 2.282973102	 0.091142
H	 4.371249409	-2.3811238125	 1.1892679705	 0.288715
34.9257	104.4717	196.4585	215.3836	244.5741	277.9737	344.5675	371.6206	424.3583	459.1659	507.5991	543.6061	703.4967	775.5072	793.7389	822.6814	860.4331	875.8754	917.7403	948.8981	968.1994	988.3196	1010.0059	1035.5108	1071.4312	1089.9474	1127.3117	1131.9064	1171.0808	1205.3764	1218.8883	1238.7953	1275.8342	1292.7121	1319.6468	1346.7527	1355.2636	1388.3097	1406.4816	1411.3086	1482.4665	1484.4895	1493.2069	1499.0361	1511.2783	3035.2063	3050.8422	3061.7619	3071.2058	3098.4301	3106.3086	3108.0431	3114.959	3118.8735	3124.5409	3220.1014	3799.274
CC1CCC2(CC2O)O1	C[C@H]1CC[C@]2(C[C@H]2O)O1	
InChI=1S/C7H12O2/c1-5-2-3-7(9-5)4-6(7)8/h5-6,8H,2-4H2,1H3	InChI=1S/C7H12O2/c1-5-2-3-7(9-5)4-6(7)8/h5-6,8H,2-4H2,1H3/t5-,6+,7+/m0/s1
