23
gdb 108227	2.07961	1.4578	1.12777	1.0503	86.28	-0.2355	0.0719	0.3074	1246.504	0.204302	-388.270562	-388.260482	-388.259538	-388.305152	38.167	
C	-0.2283561071	 1.5050729492	 0.0242059718	-0.377672
C	 0.1233538843	 0.0138667388	 0.1321801973	-0.290708
C	 0.7608913063	-0.5279038736	-1.118672389	 0.303368
C	 2.1788080639	-0.1537526172	-1.5905670228	-0.282244
C	 2.4165199415	-1.6321554251	-2.0485264748	-0.291918
C	 0.9835417188	-1.9512568339	-1.6227293592	 0.324002
O	 0.5966227523	-3.1290756214	-1.0002680689	-0.464906
C	-0.0045301277	-1.0476000907	-2.3296183586	-0.11557
C	-1.4777248754	-1.3779012729	-2.2035752804	-0.43799
H	 0.661090951	 2.1068247678	-0.1912311489	 0.117028
H	-0.9502932502	 1.6841921474	-0.7793551006	 0.117049
H	-0.663151485	 1.8761915992	 0.9576370524	 0.10939
H	 0.8098579843	-0.1352798988	 0.9764836382	 0.095741
H	-0.7776958216	-0.5598257767	 0.3730028183	 0.103657
H	 2.2324272938	 0.607785361	-2.3755737105	 0.092356
H	 2.839492292	 0.1409773073	-0.7708110929	 0.099441
H	 2.6691218962	-1.7993020255	-3.1018027093	 0.085742
H	 3.1523142279	-2.1408195088	-1.4210881222	 0.105893
H	 0.335708062	-3.7627196477	-1.6784360585	 0.283552
H	 0.2756626762	-0.6493195507	-3.306890154	 0.064184
H	-1.6958003214	-1.9034135817	-1.2709363418	 0.132613
H	-2.0976344379	-0.4758004404	-2.2420597191	 0.117743
H	-1.7975273742	-2.0278204257	-3.0265000164	 0.109246
67.0878	118.8677	155.8671	205.854	218.1142	242.4909	262.7822	269.6564	289.0245	347.7504	411.9155	523.147	556.3429	623.9671	689.9766	731.1694	768.0465	783.4421	825.104	939.2439	960.8622	977.6783	1002.7879	1034.6542	1055.8864	1061.9968	1096.577	1125.4636	1141.609	1178.417	1209.1399	1219.6572	1232.1326	1239.1758	1284.8141	1313.0551	1324.9093	1355.6693	1382.7331	1407.4475	1416.0317	1451.4123	1478.8222	1481.9819	1497.7573	1498.4443	1502.3162	1509.284	1517.1583	3016.9578	3030.2299	3031.855	3033.5789	3044.5062	3067.4936	3072.0639	3083.1335	3088.8572	3101.8966	3103.4088	3109.3302	3124.3354	3782.7899
CCC12CCC1(O)C2C	CC[C@@]12CC[C@]1(O)[C@H]2C	
InChI=1S/C8H14O/c1-3-7-4-5-8(7,9)6(7)2/h6,9H,3-5H2,1-2H3	InChI=1S/C8H14O/c1-3-7-4-5-8(7,9)6(7)2/h6,9H,3-5H2,1-2H3/t6-,7-,8-/m0/s1
