19
gdb 30130	3.58798	1.18294	1.04019	2.0068	82.76	-0.178	0.0485	0.2265	1204.4182	0.160532	-382.073574	-382.0652	-382.064256	-382.106838	32.264	
C	-0.553714431	 1.4368901287	-0.0082102032	-0.405987
C	-0.2136727329	-0.0315668525	 0.0804890962	 0.016699
C	 1.10087764	-0.5359224412	-0.4085750325	-0.254588
N	 0.8036132681	-0.533490936	 1.0176307977	-0.168602
C	 1.500649399	 0.3433337907	 1.8736054352	 0.289768
C	 0.9849561734	 0.9349122046	 3.010302892	-0.179403
N	 2.0052130657	 1.6391913776	 3.6088969432	-0.230398
C	 3.1565046004	 1.5021179163	 2.8850423714	-0.07308
C	 2.8792490565	 0.7042881554	 1.7975413145	-0.241425
H	 0.3442580863	 2.0581165937	 0.0290088563	 0.1308
H	-1.0808893356	 1.643804562	-0.9456279057	 0.116381
H	-1.2047776763	 1.7437150451	 0.8180098652	 0.117972
H	-1.070596128	-0.6992158857	 0.0023203159	 0.086356
H	 1.1916359345	-1.5153575235	-0.8715529716	 0.109637
H	 1.7996259096	 0.2111377353	-0.7824517198	 0.110927
H	-0.0041044738	 0.9002080372	 3.4353951604	 0.110456
H	 1.9130513204	 2.1744307882	 4.453316053	 0.25985
H	 4.072618207	 1.9764893823	 3.1978714473	 0.114945
H	 3.5811592067	 0.3944019616	 1.0391008944	 0.089691
53.2723	119.1929	169.0638	214.9898	292.7146	372.9038	424.589	441.445	526.3278	566.6635	631.7746	642.8642	691.4078	757.0121	798.3465	814.473	853.3107	899.6143	912.2798	962.0925	1017.331	1041.6248	1081.1736	1089.2826	1124.9655	1134.3	1158.5392	1167.1	1189.8387	1246.5867	1274.6497	1367.8421	1396.7982	1403.6139	1422.4345	1476.8284	1483.6905	1493.3857	1508.8649	1521.8734	1608.1566	3034.1321	3090.7232	3093.0774	3107.0196	3129.0053	3174.9075	3248.6025	3269.2918	3272.2116	3693.2552
CC1CN1C1=CNC=C1	C[C@H]1CN1c1c[nH]cc1	
InChI=1S/C7H10N2/c1-6-5-9(6)7-2-3-8-4-7/h2-4,6,8H,5H2,1H3	InChI=1S/C7H10N2/c1-6-5-9(6)7-2-3-8-4-7/h2-4,6,8H,5H2,1H3/t6-,9?/m0/s1
