16
gdb 10623	2.61594	1.79783	1.26805	5.2431	66.18	-0.2539	0.0104	0.2644	993.4761	0.129325	-379.905245	-379.896476	-379.895532	-379.938607	31.003	
C	 0.0348125121	 1.5059592267	-0.1502060006	-0.432347
C	 0.036345958	 0.0188543585	 0.089841659	 0.039616
O	 1.2881454912	-0.6712765723	 0.0651073142	-0.275543
C	 0.5616281528	-0.6532265779	 1.3050008724	 0.224907
C	 1.235315576	 0.0627836368	 2.4600561676	-0.242392
N	 2.3401034918	-0.7587755364	 2.9438569687	-0.499695
C	-0.0424420547	-1.9316437455	 1.6593243478	 0.28581
N	-0.5668606263	-2.9223178159	 1.9397316703	-0.335501
H	 0.8657337128	 2.0072629428	 0.3476386553	 0.135409
H	 0.1162951385	 1.6999985461	-1.2245400128	 0.141988
H	-0.9060259173	 1.9443458754	 0.1979734864	 0.136989
H	-0.7579037418	-0.5212086629	-0.4279014425	 0.114848
H	 1.5221110302	 1.0702883603	 2.1278912349	 0.098522
H	 0.5062367662	 0.1783078982	 3.2702433461	 0.126788
H	 3.0730698431	-0.7952154035	 2.2422049332	 0.243226
H	 2.7441809373	-0.3530081904	 3.7805455102	 0.237376
76.3473	145.4218	149.964	169.2798	204.1576	237.5295	311.4491	376.6724	407.9258	503.8253	572.7917	598.959	683.0784	786.5061	841.5747	925.6332	937.1247	989.6093	1033.0129	1084.3592	1116.6918	1157.0651	1197.9926	1241.7953	1317.5228	1347.915	1407.5062	1428.3312	1453.713	1485.2229	1490.2782	1503.9895	1657.1689	2359.7782	3001.9475	3046.0884	3066.8322	3101.9056	3108.162	3145.7528	3506.0688	3590.1276
CC1OC1(CN)C#N	C[C@H]1O[C@]1(CN)C#N	
InChI=1S/C5H8N2O/c1-4-5(2-6,3-7)8-4/h4H,2,6H2,1H3	InChI=1S/C5H8N2O/c1-4-5(2-6,3-7)8-4/h4H,2,6H2,1H3/t4-,5-/m1/s1
