16
gdb 26541	2.36437	1.84527	1.04317	5.8766	76.98	-0.2024	-0.0175	0.1849	1089.5774	0.125898	-437.962572	-437.954596	-437.953652	-437.99509	30.31	
C	 0.0339654054	 1.549112014	 0.0256316656	-0.502273
C	-0.028827615	 0.0525581098	 0.0141636389	 0.256634
C	-1.1739467337	-0.6761575798	-0.0843862006	 0.181398
O	-2.3949376132	-0.1189248865	-0.1838373497	-0.440139
C	-1.1846598356	-2.142012242	-0.0915047716	 0.330342
O	-2.2853688518	-2.7091907869	-0.1857233403	-0.449678
C	 0.1076617836	-2.7638227075	 0.0136357035	-0.273638
C	 1.2306556933	-1.9976457801	 0.1105098469	 0.02375
N	 1.1650787164	-0.6419523098	 0.1107753056	-0.375462
H	 0.6281860089	 1.9340988222	-0.8123784439	 0.13354
H	-0.9735965307	 1.9568823937	-0.0558428825	 0.170407
H	 0.4824632068	 1.9267477512	 0.952902357	 0.133492
H	-2.9755020572	-0.9116600777	-0.2354286544	 0.301522
H	 0.1775482035	-3.8438483009	 0.0148899348	 0.113454
H	 2.2256532674	-2.417992024	 0.1916978851	 0.13301
H	 2.0165456619	-0.1096477556	 0.1839944556	 0.263642
87.7438	138.8188	201.932	278.2276	312.614	337.5324	474.2285	495.9542	506.6183	534.4989	580.4497	583.0338	698.2871	716.9789	757.5556	838.6574	863.1341	934.0558	961.2582	1053.648	1060.8766	1106.7722	1222.5801	1251.7255	1304.6304	1313.7185	1413.4377	1424.8505	1453.4879	1488.471	1489.3369	1563.6867	1621.9409	1680.1216	1718.0246	3020.8119	3068.7012	3154.2538	3203.1214	3223.3507	3473.4957	3650.2538
CC1=C(O)C(=O)C=CN1	Cc1c(O)c(=O)cc[nH]1	
InChI=1S/C6H7NO2/c1-4-6(9)5(8)2-3-7-4/h2-3,9H,1H3,(H,7,8)	InChI=1S/C6H7NO2/c1-4-6(9)5(8)2-3-7-4/h2-3,9H,1H3,(H,7,8)
