15
gdb 44398	3.73398	1.52133	1.51328	3.637	72.29	-0.2404	-0.0382	0.2022	906.1741	0.112272	-416.640013	-416.633301	-416.632356	-416.670861	27.599	
N	-0.0545617487	 1.257663334	-0.2742346831	-0.523099
C	 0.0382837441	 0.0394148662	-0.0097304309	 0.280148
N	 1.1988962183	-0.8542123479	 0.2979888615	-0.404037
C	 0.2056122417	-1.7479041761	 1.0354234792	 0.006524
C	-0.8132938307	-2.9679640332	 0.9225236409	-0.057446
O	-1.875958505	-1.9122468934	 1.0687491225	-0.355972
C	-0.8859851871	-1.1608657044	 0.2080791477	 0.304183
C	-0.9113099866	-2.0379752258	-1.0692584761	-0.145575
C	-0.8625251654	-3.2697492259	-0.5668878026	-0.059248
H	 0.8673983118	 1.6937426607	-0.3442121807	 0.237904
H	 1.6333800463	-1.2354074466	-0.5399013154	 0.245182
H	 0.2045729221	-1.4061273922	 2.0701438157	 0.123382
H	-0.8879933155	-3.7508660841	 1.6758033215	 0.09734
H	-0.980412765	-1.6687277419	-2.0816360751	 0.125447
H	-0.8720707704	-4.2409998093	-1.0382658352	 0.125268
112.2792	243.2335	291.8299	421.6805	474.0968	527.6415	564.7142	575.0668	632.369	678.6511	721.541	740.9749	789.3801	821.1968	852.2212	871.6674	909.7522	915.9284	945.8688	972.3676	1019.3303	1037.7166	1086.6099	1116.1113	1174.8072	1209.8377	1221.6866	1246.822	1254.5585	1304.6116	1393.9032	1622.9921	1803.2127	3114.6321	3142.227	3235.8265	3263.6517	3463.416	3507.3274
N=C1NC2C3OC12C=C3	[NH][C]1N[C@@H]2[C@H]3O[C@@]12C=C3	
InChI=1S/C6H6N2O/c7-5-6-2-1-3(9-6)4(6)8-5/h1-4H,(H2,7,8)	InChI=1S/C6H6N2O/c7-5-6-2-1-3(9-6)4(6)8-5/h1-4H,(H2,7,8)/t3-,4+,6+/m0/s1
