17
gdb 44136	3.25006	1.35522	1.20499	3.6724	73.54	-0.2418	0.01	0.2517	1068.794	0.13719	-417.938553	-417.931057	-417.930113	-417.970939	28.949	
N	 0.2833536277	 1.0885993313	 0.0770694594	-0.546837
C	 0.0811074262	-0.1439218381	 0.1129901973	 0.468995
O	 0.9893662449	-1.2074180009	 0.2622637056	-0.278901
C	-0.083220916	-2.1554866743	 0.0072453332	 0.040378
C	-1.1273209211	-2.0846441633	 1.0663042033	-0.044831
C	-0.9220595638	-1.8265764362	 2.5303488467	-0.028857
C	-0.200780251	-2.8300085443	 3.3599706348	-0.233826
N	 0.3798989164	-1.5023424963	 3.1263464238	-0.317561
C	-1.1025530794	-1.0357989449	-0.0609397331	-0.240623
H	 1.2702898747	 1.3132709595	 0.210435273	 0.23613
H	 0.1413664869	-2.9737476776	-0.6635503373	 0.128404
H	-1.9353862408	-2.7917518807	 0.8745978428	 0.114323
H	-1.7494667594	-1.2881084863	 2.989469105	 0.101765
H	-0.5217405043	-3.0257966056	 4.3793417617	 0.117936
H	 0.2322583292	-3.6864173033	 2.847807988	 0.108782
H	 1.1054327224	-1.5520008496	 2.4174700034	 0.248185
H	-1.9395266526	-0.8642537193	-0.7211980874	 0.126537
78.0868	106.8545	204.0298	259.1866	358.3521	415.7417	441.6165	670.9657	682.124	706.7808	780.9144	823.5401	824.316	843.2699	870.0794	897.3734	944.3766	946.5415	970.7107	987.4237	1025.133	1032.8675	1055.068	1082.6518	1111.1239	1146.8065	1167.4705	1194.1079	1205.2153	1268.8819	1291.9856	1320.8917	1322.606	1407.1765	1437.4325	1514.4087	1839.9749	3102.6365	3108.6344	3119.4237	3187.8366	3210.9726	3235.0804	3487.3467	3531.3672
N=C1OC2C(C3CN3)C12	[NH][C]1O[C@H]2[C@@H]([C@H]3CN3)[C@@H]12	
InChI=1S/C6H8N2O/c7-6-4-3(2-1-8-2)5(4)9-6/h2-5,7-8H,1H2	InChI=1S/C6H8N2O/c7-6-4-3(2-1-8-2)5(4)9-6/h2-5,7-8H,1H2/t2-,3+,4-,5+/m1/s1
