13
gdb 132330	2.03266	1.84802	0.96798	1.6756	65.51	-0.2179	-0.0248	0.1931	1087.8292	0.091278	-494.094606	-494.087636	-494.086692	-494.126144	26.961	
O	-0.0863488523	 1.2830207784	 0.0101373085	-0.39691
C	 0.0408948961	-0.0456239472	 0.0024969405	 0.535765
N	 1.2183639114	-0.5973088667	-0.0068207985	-0.444617
C	 1.1991341554	-1.9542871544	-0.0138459905	 0.344427
F	 2.4065965746	-2.4973098409	-0.0232191316	-0.059357
C	 0.0994182223	-2.7465397595	-0.0119841427	-0.37208
C	-1.2075919529	-2.1272306292	-0.0016115985	 0.391387
N	-2.3863550944	-2.624706551	 0.0022350749	-0.568574
N	-1.1240994823	-0.7134643574	 0.0053319056	-0.365388
H	 0.8122209868	 1.6426282589	 0.0071168939	 0.322193
H	 0.1857814128	-3.8237863553	-0.0180780953	 0.114552
H	-2.3410769309	-3.6414711217	-0.0033175497	 0.21821
H	-2.0006137067	-0.2096107638	 0.0127571535	 0.280392
156.5556	202.1235	216.8051	349.0333	359.1342	515.0239	533.3023	539.5733	597.4319	642.3537	645.9379	687.4374	715.7889	767.4292	790.5644	839.3523	962.4195	1013.5442	1082.2962	1132.5463	1212.2599	1246.7096	1334.6202	1345.7556	1454.3544	1566.8419	1631.4257	1665.2993	1730.0353	3232.8894	3512.5345	3608.9127	3776.0008
OC1=NC(F)=CC(=N)N1	OC1=N[C@@H](F)C=C([NH])N1	
InChI=1S/C4H4FN3O/c5-2-1-3(6)8-4(9)7-2/h1H,(H3,6,7,8,9)	InChI=1S/C4H5FN3O/c5-2-1-3(6)8-4(9)7-2/h1-2,6H,(H2,7,8,9)/t2-/m1/s1
