20
gdb 120059	4.98113	0.86969	0.82418	2.4441	78.11	-0.2353	0.0759	0.3112	1424.3465	0.171688	-403.067992	-403.059736	-403.058792	-403.101394	31.482	
O	-0.0180343596	 1.4066280272	 0.1417365374	-0.420014
C	 0.0532806209	-0.0010108041	-0.0262099285	-0.076112
C	-1.3651288504	-0.5519266818	 0.0703329414	-0.197011
C	-1.4333531519	-2.0697858651	-0.0739191802	-0.009206
C	-2.8695969473	-2.5990148665	-0.1035000253	-0.043254
C	-2.9230699307	-2.5666245024	-1.582994002	-0.049272
C	-1.3450139738	-2.604918193	-1.5370927759	-0.0887
C	-1.522240138	-4.1181366672	-1.3413802349	-0.155865
N	-2.934325427	-3.8840640581	-0.8863742733	-0.158925
H	 0.8732509924	 1.7627608542	 0.0846052534	 0.285626
H	 0.4957133872	-0.2628630397	-1.0010386103	 0.084837
H	 0.6841437416	-0.4640444936	 0.7505888622	 0.084701
H	-1.7796233304	-0.2508192477	 1.0406158461	 0.105309
H	-1.9851141543	-0.0710914335	-0.695978223	 0.10784
H	-0.7487094265	-2.5502273289	 0.6387677759	 0.062581
H	-3.6614145436	-2.4406385817	 0.617812439	 0.096421
H	-3.666595924	-2.2481058833	-2.3010918126	 0.096669
H	-0.6428365295	-2.1777841018	-2.2512628809	 0.072833
H	-1.5548179625	-4.6834439217	-2.2762669349	 0.107017
H	-0.8726680026	-4.6287231111	-0.6197778137	 0.094525
78.2377	93.7563	124.2687	251.0341	264.8641	332.1739	348.4894	446.5219	573.0465	750.297	753.8945	776.8592	791.1938	825.5554	860.9015	925.8384	940.2266	962.132	975.5677	998.5612	1019.8922	1045.1412	1053.4964	1080.5995	1084.5578	1127.865	1153.1088	1166.3605	1183.9358	1204.0922	1220.595	1229.8831	1242.626	1277.2208	1297.5831	1307.5683	1319.7325	1350.9295	1393.2255	1462.4618	1491.2837	1510.4994	1527.6173	2959.2559	2984.2653	3005.7167	3028.0567	3029.2911	3071.0876	3099.8664	3127.1463	3193.0827	3209.8859	3831.062
OCCC1C2C3C1CN23	OCC[C@H]1[C@H]2[C@H]3[C@@H]1CN23	
InChI=1S/C7H11NO/c9-2-1-4-5-3-8-6(4)7(5)8/h4-7,9H,1-3H2	InChI=1S/C7H11NO/c9-2-1-4-5-3-8-6(4)7(5)8/h4-7,9H,1-3H2/t4-,5-,6+,7-,8?/m1/s1
