15
gdb 27806	1.99704	1.95775	0.99504	6.3231	71.82	-0.2464	-0.0312	0.2152	1126.5738	0.114169	-450.221433	-450.213219	-450.212275	-450.254353	30.322	
C	-0.01107339	 1.4691514505	 0.039857311	-0.452468
C	-0.0011912561	-0.0316043139	-0.0089668203	 0.341896
N	-0.0046879871	-0.6049265999	-1.1881826321	-0.351205
C	-0.0013589185	-1.9779811564	-1.2513650098	 0.426963
O	-0.0088551896	-2.6551696057	-2.2522580642	-0.378403
N	 0.0105993398	-2.6369430754	 0.0173817071	-0.383307
C	 0.0164777779	-1.9527058443	 1.1833097356	 0.498663
N	-0.0145329391	-2.6488668726	 2.3489757738	-0.56993
N	 0.0158350777	-0.6405130243	 1.2144028342	-0.367207
H	 0.8666727113	 1.8280895131	 0.5870714314	 0.140051
H	-0.0177954079	 1.8827862576	-0.967646004	 0.144559
H	-0.8901179262	 1.8154109161	 0.5932555316	 0.141224
H	-0.017462879	-3.6464659345	-0.0196814868	 0.262272
H	 0.2745912555	-3.6123569653	 2.3728352118	 0.267026
H	 0.1496591014	-2.1000853648	 3.1778574107	 0.279867
94.7656	128.3796	182.9369	199.5509	304.6904	320.8987	359.1562	486.2132	541.3218	551.2057	587.3752	609.8619	646.5544	652.6408	763.085	815.6958	931.5943	980.4573	1023.997	1062.4999	1072.4959	1117.7235	1159.8788	1323.3316	1378.4808	1427.1991	1453.1329	1475.6181	1504.309	1584.4705	1637.2697	1662.1935	1830.5121	3047.4519	3104.2955	3167.1304	3598.8867	3603.662	3723.6079
CC1=NC(=O)NC(N)=N1	Cc1nc(=O)[nH]c(N)n1	
InChI=1S/C4H6N4O/c1-2-6-3(5)8-4(9)7-2/h1H3,(H3,5,6,7,8,9)	InChI=1S/C4H6N4O/c1-2-6-3(5)8-4(9)7-2/h1H3,(H3,5,6,7,8,9)
