19
gdb 17660	3.97704	1.4978	1.45091	2.6046	71.3	-0.2335	0.0757	0.3093	962.3983	0.164964	-365.002234	-364.994122	-364.993178	-365.036266	30.062	
C	 0.1064870508	 1.5988921682	-0.4216381787	-0.479933
C	 0.0374037947	 0.1034198155	-0.1042410393	 0.288945
C	 1.0963222737	-0.7290729358	-0.8726759315	-0.096482
O	 1.9214607176	-0.845951574	 0.3037121522	-0.27364
C	 0.8818840378	-0.2918504359	 1.1348621017	-0.09655
N	-1.2726998378	-0.5399129181	-0.1045617746	-0.107429
C	-2.4572571049	 0.161768445	 0.3743938897	-0.230478
C	-2.2963523263	-0.1621352073	-1.0711960822	-0.230577
H	 1.1489997168	 1.9278701214	-0.3840820437	 0.134322
H	-0.2715578815	 1.8254122497	-1.4237495754	 0.120441
H	-0.4517838148	 2.199480453	 0.3036688634	 0.120564
H	 0.7147668482	-1.7002737895	-1.2099141227	 0.101224
H	 1.6201181126	-0.2272913895	-1.6949884083	 0.093732
H	 1.2505349052	 0.5264857333	 1.764741102	 0.09368
H	 0.3979005823	-1.0540333748	 1.7571934719	 0.101252
H	-3.1212411802	-0.4247061193	 1.0035427557	 0.118769
H	-2.3800668085	 1.2096833968	 0.6545299996	 0.111702
H	-2.1126176865	 0.6723282635	-1.7438801544	 0.111669
H	-2.8406468591	-0.9895506521	-1.5181607853	 0.118789
13.6035	80.2481	233.7744	259.4004	279.9956	362.2747	382.2537	389.4345	494.8477	595.0307	799.8741	839.2757	842.9201	903.5283	909.7143	928.1365	984.1343	986.9806	1008.4341	1034.2376	1043.4928	1108.5507	1119.4931	1160.2393	1160.7924	1162.825	1175.8599	1198.804	1218.6827	1250.7126	1306.705	1342.042	1377.5479	1410.1627	1483.5843	1491.7825	1500.968	1516.2671	1523.2286	1528.2361	3010.7356	3021.1566	3037.1582	3066.6536	3068.2003	3099.8959	3107.0943	3108.1909	3111.1888	3179.166	3193.4185
CC1(COC1)N1CC1	CC1(COC1)N1CC1	
InChI=1S/C6H11NO/c1-6(4-8-5-6)7-2-3-7/h2-5H2,1H3	InChI=1S/C6H11NO/c1-6(4-8-5-6)7-2-3-7/h2-5H2,1H3
