16
gdb 25645	6.238	0.76061	0.68371	1.0647	88.56	-0.2205	-0.0244	0.1961	1644.427	0.123286	-400.770108	-400.761017	-400.760072	-400.805818	31.305	
C	-0.0960707615	 1.4342525472	 0.0377143156	-0.513307
C	-0.0193248182	-0.0162020791	 0.0173834395	 0.298226
C	 0.0504700897	-1.2196261298	 0.0007441172	-0.10303
C	 0.1326875681	-2.6259936014	-0.0185215088	 0.188792
N	 1.1949706373	-3.379627017	 0.0187826688	-0.351837
C	 0.7163864221	-4.6814343666	-0.0250697934	 0.241265
C	 1.6308169906	-5.8592107755	-0.0012775364	-0.499918
C	-0.6395005734	-4.6358600201	-0.0879063998	-0.116579
O	-1.0338729651	-3.3315376271	-0.0849970676	-0.169374
H	 0.9044426874	 1.8779193236	 0.0010369121	 0.161089
H	-0.6632142199	 1.8118577952	-0.8201684562	 0.158047
H	-0.5890266624	 1.7917616891	 0.9485422588	 0.157977
H	 2.2350843292	-5.8643652697	 0.9117453869	 0.141467
H	 1.0676722106	-6.7948300889	-0.0474750948	 0.123402
H	 2.3238646195	-5.8306441875	-0.8483610023	 0.141536
H	-1.420307734	-5.3755176525	-0.1368036896	 0.142244
18.6835	84.5147	90.6287	131.6004	230.4104	278.2342	324.1347	359.0606	465.4003	473.8794	552.2657	646.6569	685.8752	749.4636	763.4854	941.5372	990.1149	1025.7713	1038.9452	1049.4115	1052.9387	1067.7805	1143.2616	1233.0317	1297.0238	1347.2387	1410.9652	1417.8937	1471.7837	1473.5414	1475.5848	1490.8239	1575.491	1627.7184	2365.8539	3029.4325	3039.906	3090.5052	3097.5504	3097.6223	3122.5763	3287.723
CC#CC1=NC(C)=CO1	CC#Cc1nc(C)co1	
InChI=1S/C7H7NO/c1-3-4-7-8-6(2)5-9-7/h5H,1-2H3	InChI=1S/C7H7NO/c1-3-4-7-8-6(2)5-9-7/h5H,1-2H3
