18
gdb 27543	5.15176	0.93316	0.83337	1.5541	79.93	-0.1818	0.0416	0.2234	1385.2755	0.148732	-401.960897	-401.952502	-401.951558	-401.994449	31.899	
N	 0.1469071695	 1.3360699001	 0.274571047	-0.593279
C	-0.0214591237	-0.0212673728	 0.0340560568	 0.399648
C	-1.0716092326	-0.8787870681	 0.1638498977	-0.397792
C	-0.5551843032	-2.1913844307	-0.1488702092	 0.287498
C	 0.7559908471	-2.0133181728	-0.4488118627	-0.140288
O	 1.0992799634	-0.6838431341	-0.3340645398	-0.180833
C	-1.3230142066	-3.4571547389	-0.1476771035	-0.119789
C	-0.6352644167	-4.7935032222	-0.0205460937	-0.269593
C	-1.4683449726	-4.2736194033	 1.1220980997	-0.249439
H	 0.8482878349	 1.7511930577	-0.3260561342	 0.254127
H	-0.7206727517	 1.851093156	 0.2174937581	 0.254331
H	-2.0802976355	-0.6287423755	 0.4520516605	 0.09239
H	 1.547935937	-2.6700895273	-0.7634312885	 0.126963
H	-2.2070045285	-3.4439264788	-0.7809851466	 0.088779
H	-1.0184639459	-5.6212449309	-0.6066461273	 0.109146
H	 0.4409632374	-4.8016560713	 0.1089489836	 0.112832
H	-0.9464975792	-3.9172066806	 2.003030034	 0.117338
H	-2.4255916632	-4.7427011864	 1.321757178	 0.10796
45.1183	125.2938	164.659	182.5079	265.7409	347.3675	409.0052	468.9813	573.4048	637.3635	667.3927	679.46	713.0324	748.1745	765.4563	794.3963	829.0304	897.7818	926.52	965.354	995.411	1058.4461	1079.6396	1082.0605	1105.8802	1131.7222	1144.0371	1176.8713	1198.2819	1226.9413	1262.0764	1295.8054	1406.4778	1453.7492	1466.1303	1502.8467	1607.6841	1635.4282	1672.6178	3126.0962	3133.4591	3140.081	3214.4019	3229.1266	3254.6114	3290.1037	3544.025	3645.7361
NC1=CC(=CO1)C1CC1	Nc1cc(co1)C1CC1	
InChI=1S/C7H9NO/c8-7-3-6(4-9-7)5-1-2-5/h3-5H,1-2,8H2	InChI=1S/C7H9NO/c8-7-3-6(4-9-7)5-1-2-5/h3-5H,1-2,8H2
