18
gdb 82250	2.39381	2.10301	1.47252	3.7364	69.56	-0.2345	0.0572	0.2916	926.6997	0.150527	-439.041012	-439.033991	-439.033047	-439.072268	28.507	
O	-0.090303285	 1.4293900808	-0.1565027692	-0.434274
C	-0.031119353	 0.0346763622	 0.0086037994	 0.128277
C	-1.3929164675	-0.660848593	 0.061253611	-0.074376
N	-2.1710008966	-0.4670746619	-1.1748736591	-0.331547
C	-1.4565315877	-1.7427442778	-0.9579945638	-0.061809
C	-0.1386540021	-1.8146517865	-1.7200931936	-0.085228
C	-0.0675093153	-1.0326520268	-3.050090803	-0.073428
O	 0.5970593299	 0.0832755092	-2.4065995949	-0.300879
C	 0.721794399	-0.6522826727	-1.1673684629	 0.072667
H	-0.2870193347	 1.5614986932	-1.0949157663	 0.29573
H	 0.5004602237	-0.1526379599	 0.9486521287	 0.079964
H	-1.9215874927	-0.7256218235	 1.0070903969	 0.088596
H	-3.1609561471	-0.5881099376	-0.9785199601	 0.235172
H	-2.0360624881	-2.6461138015	-0.7977799463	 0.08706
H	 0.2909938994	-2.8168590816	-1.7173309624	 0.077645
H	 0.5765860803	-1.4856550163	-3.8126807598	 0.097992
H	-1.0254514149	-0.7377768064	-3.4852395418	 0.119145
H	 1.7732664225	-0.8522674	-0.9345594428	 0.079292
127.9521	190.4379	259.3985	288.7416	417.3484	479.238	517.427	538.5837	634.3922	706.4575	807.4886	811.3422	839.1128	877.341	897.3726	901.9635	930.9094	983.3829	1002.3096	1030.7756	1054.3485	1069.1264	1101.9958	1114.2764	1127.3383	1166.3024	1175.9385	1217.3625	1243.8969	1259.1239	1275.6975	1319.3348	1324.5608	1354.7669	1358.8589	1380.0096	1420.6047	1454.0628	1505.4044	3030.5795	3037.9803	3054.2537	3100.7726	3108.7978	3155.845	3166.7289	3506.4831	3747.0953
OC1C2NC2C2COC12	O[C@H]1[C@H]2N[C@H]2[C@H]2CO[C@@H]12	
InChI=1S/C6H9NO2/c8-5-4-3(7-4)2-1-9-6(2)5/h2-8H,1H2	InChI=1S/C6H9NO2/c8-5-4-3(7-4)2-1-9-6(2)5/h2-8H,1H2/t2-,3+,4+,5+,6-/m1/s1
