17
gdb 37570	3.81052	1.6461	1.41657	1.6475	71.1	-0.235	0.0708	0.3058	923.2486	0.137075	-421.705293	-421.698766	-421.697821	-421.736437	26.319	
C	-0.0310424551	 1.443179023	-0.0166316261	-0.062522
C	 1.47108157	 1.9245983572	 0.0719810657	-0.419669
C	 2.0991289025	 0.5945771817	 0.3779382296	 0.342888
C	 3.3255252257	-0.368822479	 0.5296616489	-0.050873
O	 3.5015006867	-0.1453465014	 1.9513565978	-0.322079
C	 2.0539772862	-0.159803154	 1.7658284511	 0.056045
C	 2.0502021338	-1.3038733737	 0.726399506	-0.148206
C	 1.2419966471	-0.4593725656	-0.279435988	 0.077704
O	-0.0745703408	-0.0071119314	-0.0176034397	-0.289055
H	-0.6162922405	 1.7847044593	 0.8426718276	 0.11431
H	-0.5072780487	 1.8236432917	-0.9281966866	 0.106592
H	 1.8072183381	 2.3292582744	-0.8873763877	 0.115826
H	 1.6127262652	 2.6891176398	 0.8387920721	 0.120713
H	 4.2053601514	-0.5081826603	-0.0970538698	 0.100444
H	 1.4135620038	 0.0061303057	 2.6294740602	 0.103664
H	 2.0655013251	-2.3751181469	 0.9242397963	 0.088163
H	 1.3950460797	-0.6814508604	-1.3436123572	 0.066054
75.0295	213.0232	272.9545	338.877	537.2845	603.9754	663.578	712.0762	735.4277	805.7014	826.5927	833.7685	869.9358	892.3145	904.3545	920.1765	951.8107	967.1335	993.291	1041.6895	1066.5647	1084.2501	1126.7767	1128.9071	1149.0113	1168.8713	1196.4565	1211.3949	1225.4467	1264.1049	1276.3995	1296.8901	1336.1368	1379.7247	1389.368	1489.7682	1519.8435	3016.8398	3028.2302	3059.8806	3076.3225	3115.2993	3123.3645	3132.7845	3147.4656
C1CC23C4OC2C4C3O1	C1C[C@@]23[C@H]4O[C@@H]2[C@H]4[C@H]3O1	
InChI=1S/C7H8O2/c1-2-8-4-3-5-7(1,4)6(3)9-5/h3-6H,1-2H2	InChI=1S/C7H8O2/c1-2-8-4-3-5-7(1,4)6(3)9-5/h3-6H,1-2H2/t3-,4-,5-,6+,7+/m1/s1
