16
gdb 27765	2.15757	1.96224	1.04758	2.9342	73.67	-0.1702	0.0481	0.2183	1091.7152	0.12669	-434.06627	-434.058301	-434.057357	-434.098873	29.992	
N	-0.1320373192	 1.4104434563	-0.0756818072	-0.594415
C	-0.0592988753	 0.0217285503	-0.117594448	 0.352677
N	-1.0935729565	-0.8075521949	-0.0596354221	-0.41022
C	-0.5972567656	-2.0799562692	-0.2674846851	 0.211407
O	-1.4277334409	-3.1466951394	-0.3241603662	-0.439984
C	 0.7630513248	-2.0324531701	-0.3657477289	 0.167584
C	 2.1544684716	-2.4047041756	-0.8534406203	-0.367559
C	 2.4480342832	-0.8569546501	-0.814711018	-0.173947
N	 1.0870550059	-0.6811486836	-0.2530425091	-0.055365
H	 0.559437458	 1.8329254173	 0.5311524452	 0.249807
H	-1.0618873483	 1.7031762714	 0.1960067938	 0.259147
H	-2.3182654414	-2.7948969807	-0.2082551075	 0.297104
H	 2.7704078954	-2.9969788176	-0.1708767909	 0.12037
H	 2.2104890487	-2.8447509289	-1.8521294008	 0.126492
H	 3.2482384198	-0.5292251615	-0.1465618761	 0.122415
H	 2.5679345399	-0.3912369335	-1.7960459289	 0.134487
73.2713	177.3955	232.9805	254.162	278.6634	305.1831	350.4777	403.0118	616.7472	634.0298	654.0303	686.812	695.0929	723.6208	779.0649	800.193	907.2035	956.006	1047.6126	1095.0208	1129.1433	1142.1773	1187.146	1212.9562	1245.1143	1256.1719	1308.2739	1336.1439	1388.8224	1478.7117	1498.499	1517.2985	1572.3058	1643.5158	1709.0227	3055.3244	3062.2795	3098.351	3119.7134	3536.2249	3634.1576	3808.5079
NC1=NC(O)=C2CCN12	Nc1nc(O)c2CCn12	
InChI=1S/C5H7N3O/c6-5-7-4(9)3-1-2-8(3)5/h9H,1-2H2,(H2,6,7)	InChI=1S/C5H7N3O/c6-5-7-4(9)3-1-2-8(3)5/h9H,1-2H2,(H2,6,7)
