22
gdb 104865	2.05443	1.50041	1.14882	1.276	81.84	-0.2462	0.0245	0.2706	1215.0644	0.194087	-404.374755	-404.365066	-404.364122	-404.409695	35.717	
C	 0.7055721027	-0.4937316828	 1.2834896774	-0.392816
C	 0.1114545702	 0.029263115	-0.0274608688	-0.210634
C	 0.8351247981	-0.4205545093	-1.3161639119	 0.279492
C	 0.8109831005	-1.9563203501	-1.4725634715	-0.208724
C	 1.5769988284	-2.5009497246	-2.6817124944	-0.399956
C	 0.2356494722	 0.3167329451	-2.5556510001	-0.15437
O	 1.3420610127	 1.0660518835	-3.1111489114	-0.223664
C	 2.3820030194	 0.8291868925	-2.2777365581	 0.115622
N	 2.2402416807	 0.0576394135	-1.2848036071	-0.287314
H	 0.5749528693	-1.5740804711	 1.3943020831	 0.115422
H	 1.7748689185	-0.2738335401	 1.3349449613	 0.141901
H	 0.2148106402	-0.0179495094	 2.1382111992	 0.108393
H	-0.944434502	-0.2640872513	-0.105813468	 0.091536
H	 0.1253990994	 1.1261306233	-0.0111543944	 0.096624
H	 1.2327216167	-2.3994502543	-0.5657425815	 0.111456
H	-0.2391247869	-2.2752192354	-1.517767883	 0.090827
H	 1.1857981124	-2.1208639943	-3.6315105841	 0.113826
H	 2.6345174098	-2.2303780411	-2.6231350081	 0.133271
H	 1.5080395232	-3.592404252	-2.7157426152	 0.112409
H	-0.143819856	-0.3545963291	-3.3299213635	 0.115968
H	-0.5520119301	 1.0266084991	-2.2856310329	 0.112448
H	 3.2952876205	 1.3481539029	-2.549443437	 0.138282
50.3294	91.0582	109.2105	198.4173	211.3599	226.5498	278.3426	314.3486	358.2392	418.4869	445.3724	598.3921	616.6824	768.5268	778.4721	797.2683	876.4707	896.5102	941.8826	966.0291	971.5429	981.0009	1006.3371	1046.0659	1064.1421	1089.5464	1119.5882	1182.0188	1187.1747	1206.7878	1239.5867	1305.7345	1319.9349	1329.8139	1363.0929	1373.7339	1385.2926	1408.7389	1411.3745	1477.1549	1481.4112	1494.6122	1500.5562	1506.4169	1510.5937	1520.3235	1704.0637	3011.3871	3021.3626	3039.5038	3044.043	3049.9201	3051.6579	3081.307	3097.7035	3104.0246	3107.7878	3121.4171	3127.6342	3208.1072
CCC1(CC)COC=N1	CCC1(CC)COC=N1	
InChI=1S/C7H13NO/c1-3-7(4-2)5-9-6-8-7/h6H,3-5H2,1-2H3	InChI=1S/C7H13NO/c1-3-7(4-2)5-9-6-8-7/h6H,3-5H2,1-2H3
