13
gdb 26907	3.15182	1.48714	1.01084	4.5205	71.23	-0.1969	-0.065	0.132	1063.9246	0.088767	-489.933377	-489.925559	-489.924614	-489.965428	29.711	
N	 0.0497654382	 1.3543134351	 0.1396395854	-0.556109
C	-0.0359571836	 0.0022628395	 0.0535561433	 0.378371
C	-1.215083133	-0.71208417	 0.0289697932	 0.287944
O	-2.394325087	-0.0154101344	 0.0437682583	-0.454946
N	-1.2160323836	-2.0406787237	-0.0119286112	-0.275052
C	-0.0849158746	-2.7069869413	-0.0267494754	-0.179394
C	 1.210168975	-2.0802271235	-0.0070473957	 0.376994
O	 2.3092661933	-2.5602284372	-0.022688367	-0.337173
O	 1.1253431038	-0.6443110637	 0.0311412939	-0.242159
H	 0.9278425249	 1.7793821002	-0.1133051225	 0.277758
H	-0.7910516301	 1.8708417573	-0.0639315336	 0.28651
H	-3.0989189003	-0.6732817523	-0.0007541336	 0.30174
H	-0.108799193	-3.7896667461	-0.0610207352	 0.135515
113.7287	184.1227	273.0473	309.7715	347.2461	360.8327	384.3596	429.5614	466.1275	477.8706	521.4181	599.5428	689.4049	715.0618	755.7299	800.3261	835.3458	851.8951	1023.3027	1112.6715	1158.19	1317.4957	1344.5784	1445.0734	1453.6626	1525.1332	1624.259	1680.1496	1852.0756	3201.7947	3591.1056	3716.0086	3803.1136
NC1=C(O)N=CC(=O)O1	Nc1c(O)ncc(=O)o1	
InChI=1S/C4H4N2O3/c5-3-4(8)6-1-2(7)9-3/h1,8H,5H2	InChI=1S/C4H4N2O3/c5-3-4(8)6-1-2(7)9-3/h1,8H,5H2
