16
gdb 29594	3.08995	1.24572	0.97865	4.622	75.67	-0.1906	0.0304	0.221	1177.2802	0.126233	-396.975577	-396.96706	-396.966116	-397.009014	31.67	
N	 0.1800382828	 1.3742941842	 0.1627324798	-0.620129
C	 0.0616024511	-0.0261321871	 0.0809462643	 0.164741
C	-1.0842893772	-0.7853132862	-0.0139125328	-0.153724
N	-0.7020380394	-2.1040608885	-0.1605048316	-0.243909
C	 0.658003747	-2.1978814833	-0.1458595129	-0.173618
C	 1.1701207965	-0.9260208942	-0.0072516539	 0.240681
C	 2.6226138943	-0.5371743529	 0.0026672986	-0.460594
C	 3.0077090527	 0.181550779	 1.2242232785	 0.266364
N	 3.269493927	 0.775448459	 2.1811687807	-0.328017
H	 0.8321961958	 1.6633072994	 0.8845434383	 0.257485
H	-0.710051926	 1.8237574292	 0.3369258241	 0.238959
H	-2.1236605522	-0.5012422187	 0.0077512724	 0.111855
H	-1.3338437982	-2.8785766737	-0.2523102646	 0.264068
H	 1.1598772531	-3.147782023	-0.2392221873	 0.121505
H	 3.2582881807	-1.4234599677	-0.0932576143	 0.151328
H	 2.8614442718	 0.1177180845	-0.8461327094	 0.163005
54.193	104.9353	209.7759	257.3281	260.374	317.8714	382.1335	413.3288	424.8673	486.904	625.8454	629.5133	664.6729	711.4998	737.9857	769.9802	815.1029	900.7745	926.3341	936.5594	1081.3678	1095.0064	1153.3302	1203.9848	1235.5496	1285.3517	1323.8454	1363.5686	1436.5521	1450.613	1483.4648	1570.8575	1632.7145	1666.2078	2352.9693	3022.0602	3080.7776	3259.6843	3265.6316	3512.1776	3605.8781	3698.1759
NC1=CNC=C1CC#N	Nc1c[nH]cc1CC#N	
InChI=1S/C6H7N3/c7-2-1-5-3-9-4-6(5)8/h3-4,9H,1,8H2	InChI=1S/C6H7N3/c7-2-1-5-3-9-4-6(5)8/h3-4,9H,1,8H2
