15
gdb 19578	3.42235	2.50831	2.04755	3.647	63.44	-0.243	-0.0113	0.2318	708.7985	0.121148	-362.614446	-362.608659	-362.607715	-362.644068	23.805	
O	 0.0044139308	-0.0200265066	 0.0590745548	-0.321638
C	-0.0136371193	 1.167193336	-0.0022989317	 0.464531
C	-1.0530076046	 2.3122865929	 0.028816694	-0.13361
N	-0.0269090203	 2.9382392555	 0.9452452872	-0.320178
C	 0.9925010912	 2.3419973664	 0.0019351748	-0.13361
C	 0.7032119455	 3.0079665558	-1.3655239088	-0.053817
C	-0.0604995765	 2.2196349156	-2.405211874	-0.303192
C	-0.8192089552	 2.9858498764	-1.3455185019	-0.053817
H	-2.0698418651	 2.2007627523	 0.400028649	 0.092537
H	-0.0425549187	 3.9575503293	 0.8812785551	 0.218047
H	 2.0215469348	 2.2601899115	 0.3462603763	 0.092537
H	 1.2804986233	 3.876970907	-1.6596553448	 0.098197
H	-0.0797261134	 2.6366012202	-3.4074634614	 0.115119
H	-0.0444897692	 1.1347343249	-2.3862884706	 0.140696
H	-1.4290180532	 3.8376085127	-1.6240534881	 0.098197
170.1775	298.8985	375.3762	463.1978	538.5969	618.7074	661.9988	773.6279	788.544	801.2287	818.1458	854.9362	889.2787	923.6781	965.1543	973.5329	1031.8193	1045.0111	1061.4028	1088.7506	1096.8548	1099.5545	1124.1435	1184.2836	1212.3931	1245.3907	1262.9641	1275.9955	1328.4903	1358.1462	1495.6865	1933.4528	3125.8459	3144.9993	3147.059	3171.5508	3179.3297	3208.7137	3440.9994
O=C1C2NC1C1CC21	O=C1[C@H]2N[C@@H]1[C@H]1C[C@@H]21	
InChI=1S/C6H7NO/c8-6-4-2-1-3(2)5(6)7-4/h2-5,7H,1H2	InChI=1S/C6H7NO/c8-6-4-2-1-3(2)5(6)7-4/h2-5,7H,1H2/t2-,3+,4+,5-
