15
gdb 32189	2.76427	1.43991	0.95244	2.3185	70.42	-0.2257	-0.0394	0.1863	1165.5216	0.113381	-453.995092	-453.986983	-453.986038	-454.028244	28.705	
C	 0.0255810562	 1.3456246459	 0.0074541758	-0.240152
O	-0.0363186026	-0.0863851943	 0.0031523396	-0.268626
C	-1.2664276099	-0.595458425	 0.0108077867	 0.520932
N	-2.3991249966	 0.0339887073	 0.0215464706	-0.381567
C	-3.3636574916	-0.9794564196	 0.0254778257	-0.096308
C	-2.7951951858	-2.2081193533	 0.0170420375	-0.108598
N	-1.4104402116	-1.9766629701	 0.0072111015	-0.149032
C	-0.3968369591	-2.9324745446	-0.0037558736	 0.16604
O	-0.6059175092	-4.1169455034	-0.0047643896	-0.289404
H	 1.0869523509	 1.5928666494	 0.0000427344	 0.13948
H	-0.4723974803	 1.7516112642	-0.8768720583	 0.149103
H	-0.4585754566	 1.7456676723	 0.9021072603	 0.149097
H	-4.4141393556	-0.7345226818	 0.0342929033	 0.124178
H	-3.178680474	-3.2126032796	 0.016591103	 0.160939
H	 0.6026880259	-2.4709053973	-0.0085341269	 0.123918
89.285	152.6254	155.8164	171.5843	230.514	264.0056	351.0017	416.8019	590.7375	626.4068	708.1018	724.1373	763.7084	833.0093	869.24	928.0909	1039.7306	1042.7386	1090.103	1139.4177	1182.7532	1195.0811	1229.1969	1297.7058	1377.1755	1425.3994	1444.6703	1478.2117	1478.4804	1502.3834	1575.3256	1635.1827	1820.45	3029.0736	3050.5401	3126.4343	3162.5396	3261.0819	3309.5465
COC1=NC=CN1C=O	COc1nccn1C=O	
InChI=1S/C5H6N2O2/c1-9-5-6-2-3-7(5)4-8/h2-4H,1H3	InChI=1S/C5H6N2O2/c1-9-5-6-2-3-7(5)4-8/h2-4H,1H3
