21
gdb 58059	2.10551	1.29855	0.98751	3.4125	83.43	-0.232	0.0325	0.2645	1313.4457	0.181544	-383.253626	-383.243546	-383.242602	-383.288984	36.488	
C	 0.1412773961	 1.346866969	-0.1817116373	-0.336805
N	-0.1101979905	-0.0786255327	-0.0009702549	-0.043172
C	 0.6036073046	-0.61307898	 1.1533397602	-0.331786
C	-1.5243290359	-0.4447675086	 0.0006192456	-0.137089
C	-2.2687585421	 0.1642108538	 1.139923222	 0.275287
N	-2.7914289617	 0.6702586325	 2.0388894539	-0.33752
C	-2.2391312355	-0.1299168884	-1.3040205629	 0.019843
C	-1.9425603953	-0.9751748091	-2.5127894969	-0.273742
C	-3.2785939957	-1.0908447065	-1.8249135724	-0.271942
H	 1.2209895498	 1.5067047728	-0.2489724152	 0.124505
H	-0.305024167	 1.694669338	-1.1161710769	 0.12594
H	-0.2465076407	 1.9671790735	 0.6450379873	 0.118784
H	 0.2867945868	-0.1665839037	 2.111795966	 0.120594
H	 0.4514841637	-1.6956729033	 1.2137079922	 0.119271
H	 1.6744503881	-0.428157527	 1.0288273548	 0.124457
H	-1.5636748921	-1.5311556834	 0.149621686	 0.115666
H	-2.4383300787	 0.9229498352	-1.4707913028	 0.104663
H	-1.8958158328	-0.4858225715	-3.4788326514	 0.118827
H	-1.2313935452	-1.784670465	-2.390571898	 0.122553
H	-3.4791902217	-1.9867396489	-1.2465516122	 0.119416
H	-4.1530022241	-0.6755364867	-2.3122977973	 0.122249
56.1918	81.0975	129.9426	151.2723	187.4329	237.6411	243.7993	311.3022	348.3952	356.0485	415.9675	475.3079	527.1916	621.177	767.4369	820.9639	852.4751	886.4665	899.9815	961.2386	993.3362	1055.4367	1062.1399	1069.7505	1079.5453	1121.3654	1139.2246	1160.4215	1188.8946	1195.8728	1229.9508	1234.2605	1291.4105	1298.7004	1368.094	1415.587	1444.3505	1471.8993	1473.8556	1483.1727	1498.1122	1501.9888	1505.9586	1516.3487	2338.582	2958.4004	2964.5445	3030.4571	3064.3937	3080.6947	3107.267	3123.2343	3135.7538	3140.6975	3168.8181	3215.0096	3229.7916
CN(C)C(C#N)C1CC1	CN(C)[C@@H](C#N)C1CC1	
InChI=1S/C7H12N2/c1-9(2)7(5-8)6-3-4-6/h6-7H,3-4H2,1-2H3	InChI=1S/C7H12N2/c1-9(2)7(5-8)6-3-4-6/h6-7H,3-4H2,1-2H3/t7-/m0/s1
