20
gdb 121326	2.81842	1.10241	0.88105	2.7843	75.76	-0.2383	0.0319	0.2702	1355.7853	0.172056	-440.320898	-440.311571	-440.310627	-440.356049	33.267	
C	-0.5891317461	 0.9274455265	-0.6569645535	-0.241385
O	 0.4390851671	 0.3543319817	-1.434255838	-0.23356
C	 1.327210559	-0.4699605762	-0.7074909186	-0.075665
C	 0.7446337106	-1.8586705703	-0.3790624288	-0.136687
C	 0.3883944493	-2.6876570575	-1.6260727749	-0.228015
C	 1.616685873	-3.6023513499	-1.8538776723	-0.168316
N	 2.2093368249	-3.6729542249	-0.5287003654	-0.299533
C	 1.8237537317	-2.6838567786	 0.3346594021	 0.397114
O	 2.2796194456	-2.4804108839	 1.4400987549	-0.389542
H	-1.2932928309	 0.1787596571	-0.2653477193	 0.107831
H	-0.1826968014	 1.4953769815	 0.1937309358	 0.111042
H	-1.1394465399	 1.6108818522	-1.3082986371	 0.128572
H	 2.2121292028	-0.5818407419	-1.344920701	 0.10615
H	 1.6452193944	 0.0149463784	 0.2269586134	 0.113804
H	-0.1044854686	-1.7376767234	 0.2981819327	 0.09946
H	-0.4938509453	-3.3032279584	-1.4308800288	 0.110435
H	 0.1718028411	-2.0583338712	-2.4912913687	 0.124629
H	 1.3310946286	-4.5948659381	-2.2164267885	 0.113721
H	 2.3150451219	-3.1713801091	-2.5850510993	 0.109723
H	 3.0146033522	-4.2391387842	-0.3118439147	 0.250223
55.4391	71.8434	122.1187	156.728	160.7803	208.3446	273.9264	394.9717	441.7793	519.1374	537.6704	637.0069	703.9937	714.2966	817.7132	867.8998	922.8742	952.4413	965.5201	995.5634	1057.4765	1097.7944	1125.4391	1149.1757	1182.0282	1207.2077	1213.1346	1231.6159	1265.804	1270.8851	1301.0865	1333.3622	1352.5468	1365.544	1405.4624	1449.2189	1475.56	1489.8493	1496.0834	1499.9685	1510.659	1538.1324	1820.7557	2980.7785	3001.253	3003.5458	3029.2841	3056.9979	3061.1134	3071.4263	3088.3896	3113.6519	3120.8096	3637.5811
COCC1CCNC1=O	COC[C@H]1CCNC1=O	
InChI=1S/C6H11NO2/c1-9-4-5-2-3-7-6(5)8/h5H,2-4H2,1H3,(H,7,8)	InChI=1S/C6H11NO2/c1-9-4-5-2-3-7-6(5)8/h5H,2-4H2,1H3,(H,7,8)/t5-/m1/s1
