18
gdb 67328	2.94025	1.55648	1.29674	2.204	76.55	-0.2422	-0.0343	0.2079	1026.0136	0.146289	-401.859678	-401.851667	-401.850723	-401.892381	30.371	
C	-0.0499750797	 1.4146317814	 0.355398749	-0.534168
C	-0.0059961903	-0.07083627	 0.1194885024	 0.324256
C	 0.8001860016	-0.8938552187	-0.9421024154	-0.03738
C	 2.032268217	-1.0567613838	-0.0498588807	-0.266713
C	 0.8203863293	-1.1679441275	 0.8780806686	-0.044394
N	 0.0482525546	-2.016625293	-0.1749171883	-0.185119
C	-1.154507084	-1.0647678325	-0.0404662398	-0.105939
C	-2.0542609448	-1.3874928523	 1.1226961044	 0.14149
O	-2.051994675	-0.7841048738	 2.1682784937	-0.251003
H	 0.9583204917	 1.8357695952	 0.4313849678	 0.120593
H	-0.5667994418	 1.9278790267	-0.4631287793	 0.12035
H	-0.585043017	 1.6317794155	 1.2843583926	 0.147981
H	 0.7187705289	-0.8343360314	-2.0297216775	 0.082735
H	 2.6142908711	-1.9704341853	-0.1946846449	 0.112219
H	 2.6749346738	-0.1823837361	 0.0751366454	 0.104758
H	 0.7707645932	-1.4212821805	 1.9367412691	 0.099793
H	-1.7410902441	-1.0290003086	-0.9697801748	 0.083463
H	-2.7318265643	-2.2564234155	 0.9617018677	 0.087078
68.7908	146.0936	198.6346	214.1531	256.535	304.8761	387.3382	463.4924	612.9395	690.9981	722.5818	767.5992	842.9692	849.613	861.2162	881.3477	905.0358	925.0628	1003.4409	1019.2538	1021.8171	1059.3149	1078.4478	1120.2313	1144.2951	1159.9619	1178.6446	1213.0042	1224.7087	1228.9462	1284.7358	1323.5302	1393.9526	1411.7613	1425.0669	1483.9295	1489.1281	1497.5423	1814.8698	2878.8219	3012.0109	3031.1564	3061.9834	3092.7074	3094.9955	3114.2309	3123.9805	3127.5783
CC12C3CC1N3C2C=O	C[C@@]12[C@H]3C[C@@H]1N3[C@H]2C=O	
InChI=1S/C7H9NO/c1-7-4-2-5(7)8(4)6(7)3-9/h3-6H,2H2,1H3	InChI=1S/C7H9NO/c1-7-4-2-5(7)8(4)6(7)3-9/h3-6H,2H2,1H3/t4-,5+,6-,7-/m0/s1
