25
gdb 76231	2.30892	1.40736	1.10773	0.2902	94.19	-0.2229	0.0344	0.2573	1277.1892	0.227768	-352.389054	-352.378892	-352.377947	-352.423067	39.983	
C	-0.1592159089	 1.5726196763	-0.0178081183	-0.41775
C	 0.0467910476	 0.0529438578	-0.017306708	-0.087291
C	 0.8599956156	-0.4927518396	-1.1842518376	 0.338822
C	 0.724262747	 0.0421227657	-2.5761508553	-0.499978
C	 1.615336186	-1.5204558077	-0.7932187616	-0.179902
C	 1.45177457	-1.829532797	 0.671842636	-0.288065
C	 0.7617823462	-0.5527125578	 1.2437649915	 0.302906
C	 1.8514360212	 0.391161605	 1.783476315	-0.420286
C	-0.2332685293	-0.8771345606	 2.3638851136	-0.441637
H	 0.7890557563	 2.1175191087	-0.0477099678	 0.117787
H	-0.746331284	 1.882635174	-0.888254968	 0.111059
H	-0.7058625178	 1.8979285299	 0.8737382195	 0.113132
H	-0.9571288011	-0.3999028281	-0.0775958189	 0.069393
H	 1.0088181724	 1.0997075678	-2.6359879187	 0.124978
H	 1.3489749307	-0.5153209443	-3.2796539789	 0.119735
H	-0.3150121241	-0.0181055915	-2.9262684909	 0.121093
H	 2.2449847326	-2.1097217788	-1.4527197561	 0.078647
H	 0.8194152595	-2.7191974744	 0.8125676996	 0.093819
H	 2.3996861531	-2.0461955676	 1.1797359816	 0.09179
H	 2.5848033293	 0.6360638453	 1.008558756	 0.114231
H	 1.4315273695	 1.3277053187	 2.162526729	 0.108271
H	 2.3860278069	-0.087816233	 2.610972489	 0.105748
H	 0.2720282361	-1.3356864066	 3.2215104125	 0.107919
H	-0.7352976614	 0.0277399345	 2.7259610505	 0.108208
H	-1.0062464434	-1.5732083665	 2.0205801862	 0.107371
74.6418	177.4623	215.3187	225.7663	250.6172	260.1845	266.7855	301.0372	313.1265	336.8226	349.6156	436.5944	462.173	517.0915	577.0641	659.8986	724.4156	805.381	825.6205	870.1684	922.6465	949.3884	971.4911	981.0756	1010.4295	1031.3354	1039.4486	1062.5572	1076.8584	1109.4764	1139.187	1196.9588	1205.3211	1229.1735	1265.4623	1299.0732	1327.9052	1338.9588	1356.8124	1398.2167	1404.2124	1414.0703	1420.7675	1478.2259	1483.182	1485.7779	1486.8985	1492.4728	1499.1654	1501.8953	1509.7397	1515.3146	1722.3052	2953.9496	2989.6646	3014.1275	3019.0882	3030.371	3034.1645	3039.0655	3060.8983	3082.9297	3090.146	3094.9	3096.5714	3106.7148	3106.918	3107.705	3175.8885
CC1C(C)=CCC1(C)C	C[C@H]1C(=CCC1(C)C)C	
InChI=1S/C9H16/c1-7-5-6-9(3,4)8(7)2/h5,8H,6H2,1-4H3	InChI=1S/C9H16/c1-7-5-6-9(3,4)8(7)2/h5,8H,6H2,1-4H3/t8-/m0/s1
