17
gdb 72366	2.53501	1.68524	1.44837	1.781	72.79	-0.2426	-0.0355	0.2071	973.6478	0.136368	-418.015903	-418.008071	-418.007127	-418.048348	29.56	
C	 0.1571798954	 1.5446911365	-0.0668232241	-0.450237
C	-0.0524099639	 0.0403420796	 0.0318947696	 0.179352
C	-1.5415874295	-0.3982038369	 0.1262458364	-0.236559
N	-1.6134982529	-1.3272461493	 1.2632406544	-0.215236
C	-0.447601002	-1.4140331046	 1.7654507087	 0.030126
N	 0.588391675	-0.6208325762	 1.2316298884	-0.137661
C	 1.5971960865	-1.3552434168	 0.396546044	-0.313559
C	 0.899950025	-0.7859302663	-0.8585273127	 0.3611
O	 1.0367261605	-0.9313251127	-2.0348064726	-0.283352
H	 1.2175782013	 1.8098346412	-0.0222038618	 0.125367
H	-0.247929902	 1.9142887972	-1.0142728852	 0.139164
H	-0.3577121052	 2.0510741305	 0.7552603157	 0.133351
H	-2.1857280841	 0.4691518628	 0.3114574773	 0.121417
H	-1.9120784234	-0.8874819165	-0.7807959091	 0.131821
H	-0.2159970889	-2.0654479536	 2.604477075	 0.129399
H	 2.6215272273	-0.9990555184	 0.5418824952	 0.143894
H	 1.5763923909	-2.4459742567	 0.4922575809	 0.141613
73.438	163.9582	201.7208	225.3128	276.3629	319.9679	449.1053	514.2658	543.9681	597.2188	667.1542	748.77	798.8966	820.4376	909.7119	943.8791	958.2556	972.1926	997.491	1014.1515	1053.0025	1096.09	1135.4836	1174.0012	1188.2876	1218.8527	1255.5007	1266.4565	1312.6646	1339.4056	1405.3098	1464.4151	1482.9277	1487.9619	1496.0038	1683.6503	1905.8509	3035.807	3038.2562	3045.402	3074.2524	3099.7699	3113.122	3114.5926	3175.4252
CC12CN=CN1CC2=O	C[C@]12CN=CN1CC2=O	
InChI=1S/C6H8N2O/c1-6-3-7-4-8(6)2-5(6)9/h4H,2-3H2,1H3	InChI=1S/C6H8N2O/c1-6-3-7-4-8(6)2-5(6)9/h4H,2-3H2,1H3/t6-/m1/s1
