16
gdb 31545	3.33251	1.13073	0.86333	2.7867	70.28	-0.1663	0.0466	0.2129	1293.8965	0.122665	-475.025641	-475.016096	-475.015152	-475.060408	33.745	
C	-0.1533844159	 1.4020262953	 0.2238131847	-0.330553
N	 0.3822968015	 0.080866781	-0.1004833989	-0.384761
C	 0.7963139825	-0.7325166436	 0.9398615516	 0.444264
C	 0.7414976336	-2.0815725501	 1.1409345611	-0.44664
C	 1.4664732386	-2.3192258769	 2.3635792057	 0.218948
O	 1.7037815601	-3.5116882288	 2.9798666387	-0.446806
C	 1.8903615409	-1.1142651122	 2.8177771098	 0.23847
O	 2.4956596597	-0.7113393538	 3.9512492944	-0.417749
O	 1.4761781209	-0.1224868358	 1.9374793169	-0.199269
H	 0.6010487546	 1.9724163801	 0.7683069946	 0.153497
H	-0.3721513207	 1.9278740073	-0.7084013228	 0.123602
H	-1.0666960056	 1.3679845546	 0.836778557	 0.115139
H	-0.1962370546	-0.4310886446	-0.7513500874	 0.240467
H	 0.259795855	-2.8136824529	 0.511206989	 0.090294
H	 1.2282599699	-4.1978698963	 2.504095912	 0.297711
H	 3.4295675394	-0.5339714835	 3.7811843836	 0.303387
55.386	100.1318	135.0274	183.1888	216.6887	232.7533	268.8605	286.1768	365.9424	385.2996	549.7408	566.6179	632.7858	658.7942	673.6982	700.8992	713.5664	835.9941	983.2656	1069.1937	1082.8667	1142.7729	1155.8802	1199.1445	1213.3296	1251.2061	1344.8056	1384.9582	1423.6468	1455.4477	1490.7026	1494.04	1516.3105	1657.3596	1761.3113	2990.3834	3096.9556	3140.9725	3243.3185	3596.5111	3735.9666	3851.6742
CNC1=CC(O)=C(O)O1	CNc1cc(O)c(O)o1	
InChI=1S/C5H7NO3/c1-6-4-2-3(7)5(8)9-4/h2,6-8H,1H3	InChI=1S/C5H7NO3/c1-6-4-2-3(7)5(8)9-4/h2,6-8H,1H3
