20
gdb 87410	3.39135	1.36715	1.29654	1.8172	82.36	-0.2286	0.0819	0.3105	1084.06	0.171986	-365.938107	-365.930449	-365.929505	-365.97002	30.785	
C	-0.147076931	 1.5105735137	 0.0064691823	-0.405283
C	-0.0322017662	 0.0023755083	 0.0565552257	-0.08193
C	 1.3126880792	-0.6770114412	-0.1504608126	-0.375906
C	 0.6550639472	-0.6866241337	 1.1955070594	 0.44167
C	 1.2627577884	-0.1814207685	 2.4745749271	-0.150448
C	 0.3964494469	-0.6439157101	 3.6066915757	-0.043133
C	-0.7676630378	-1.4388503097	 3.0394556377	-0.239879
C	 0.274227654	-1.9190697502	 2.0068588522	-0.11406
N	 1.4213080967	-1.5770986715	 3.0232483925	-0.160242
H	 0.733561215	 1.9883746886	 0.4483872677	 0.114429
H	-0.2342259884	 1.8685583491	-1.025317944	 0.118054
H	-1.0253665401	 1.8636498126	 0.5583099189	 0.117833
H	-0.8853437775	-0.5293540736	-0.3609461858	 0.081151
H	 1.3457439244	-1.6006683676	-0.7200309363	 0.111066
H	 2.1829421633	-0.040991982	-0.2861893565	 0.111614
H	 2.0418450098	 0.5611608751	 2.6062510377	 0.09285
H	 0.5093627456	-0.2502957867	 4.6110409036	 0.093904
H	-1.0556108059	-2.2428910596	 3.7217645378	 0.109546
H	-1.6588889524	-0.9175211351	 2.675121058	 0.096843
H	 0.228811739	-2.909007468	 1.5558403089	 0.081923
124.1667	150.1353	194.3285	229.6173	350.7706	390.131	456.1454	494.1662	606.9862	748.6083	776.8988	802.2323	806.4555	828.4446	880.2636	888.5204	922.9448	939.8837	968.1671	987.8822	1010.2825	1027.2151	1039.743	1052.9692	1071.7674	1103.7138	1123.3767	1130.184	1144.1014	1179.0454	1188.9664	1221.6494	1246.5532	1263.2359	1284.3994	1354.7297	1371.0398	1415.403	1444.1909	1491.0415	1492.2769	1496.3519	1513.3989	3026.9044	3043.8336	3088.6536	3094.4805	3104.3006	3115.624	3123.8215	3131.8505	3169.7761	3181.7739	3199.7458
CC1CC11C2C3CC1N23	C[C@H]1C[C@]21[C@H]1[C@H]3C[C@@H]2N13	
InChI=1S/C8H11N/c1-4-3-8(4)6-2-5-7(8)9(5)6/h4-7H,2-3H2,1H3	InChI=1S/C8H11N/c1-4-3-8(4)6-2-5-7(8)9(5)6/h4-7H,2-3H2,1H3/t4-,5+,6-,7+,8+,9?/m0/s1
