15
gdb 98102	4.46347	0.91894	0.8065	2.5467	64.12	-0.2577	-0.0849	0.1728	1385.8167	0.109799	-494.903703	-494.894478	-494.893534	-494.939408	30.771	
C	-0.0794175059	 1.4665364878	 0.1129982339	-0.244676
O	 0.2736840163	 0.0738321523	 0.117841526	-0.207008
C	 0.7951149001	-0.3857578227	-1.0151261532	 0.371256
O	 0.9903211973	 0.2641927676	-2.0141937769	-0.350217
C	 1.1480033848	-1.885036154	-0.9143173722	 0.247286
O	 1.0189957967	-2.5062300236	 0.1077230934	-0.273179
C	 1.6926463266	-2.4746227862	-2.1842284106	-0.022365
C	 2.8440719404	-3.4009660611	-2.0815162066	-0.157391
O	 1.5368232218	-3.887102688	-2.3087264632	-0.208064
H	 0.8051262133	 2.0825335706	-0.0664147091	 0.147723
H	-0.8168178679	 1.6694327388	-0.6674258854	 0.14871
H	-0.4956464492	 1.667403416	 1.0990807836	 0.14702
H	 1.5540838588	-1.8949687294	-3.0908770372	 0.133227
H	 3.5344506913	-3.4672131976	-2.9208144773	 0.129862
H	 3.2528302055	-3.6097015705	-1.0946200652	 0.137815
36.4812	52.0982	121.9991	148.8082	157.1393	255.3294	272.9204	320.2576	346.3467	494.609	538.7722	743.1639	816.9991	829.0912	869.354	905.0961	958.1701	1020.6998	1092.6837	1098.9695	1163.0623	1171.5296	1177.4741	1211.299	1265.9437	1314.0733	1413.9734	1474.2817	1483.4154	1492.6134	1508.662	1799.7489	1824.7526	3055.9426	3089.1575	3132.2328	3171.7444	3177.4068	3189.7966
COC(=O)C(=O)C1CO1	COC(=O)C(=O)[C@H]1CO1	
InChI=1S/C5H6O4/c1-8-5(7)4(6)3-2-9-3/h3H,2H2,1H3	InChI=1S/C5H6O4/c1-8-5(7)4(6)3-2-9-3/h3H,2H2,1H3/t3-/m1/s1
