12
gdb 23747	3.45049	2.35167	1.40014	3.3623	59.63	-0.2318	-0.0322	0.1996	789.6051	0.085891	-418.862046	-418.855791	-418.854847	-418.892311	23.766	
N	-0.0114421272	 1.418568951	 0.1447875624	-0.600055
C	-0.0234680045	 0.0379621191	 0.0438219812	 0.137029
C	-1.1758801003	-0.7489373207	 0.0237930847	-0.03997
N	-1.148816242	-2.08477776	-0.0115711585	-0.244791
C	 0.0492617757	-2.6540653406	-0.0306258072	 0.051959
N	 1.2257664185	-2.009960351	-0.024697248	-0.297808
C	 1.1635527063	-0.709009809	 0.0110180901	 0.312862
F	 2.3134688942	-0.0298767662	 0.0077692107	-0.07717
H	 0.8445681874	 1.8569761049	-0.160379603	 0.264301
H	-0.837032485	 1.8887494681	-0.1953749077	 0.258225
H	-2.1558352434	-0.2750768751	 0.0382618014	 0.111463
H	 0.0898794802	-3.7382843705	-0.0561843762	 0.123955
168.0986	285.7964	305.0947	326.8051	459.9636	482.5496	542.0073	576.033	620.548	628.8206	790.2206	793.9977	896.5401	926.5461	967.7001	1089.3449	1171.9422	1253.6975	1287.5041	1324.4452	1363.9396	1452.9702	1516.824	1595.4643	1631.1591	1660.5289	3145.107	3188.1044	3572.6949	3677.1311
NC1=CN=CN=C1F	Nc1cncnc1F	
InChI=1S/C4H4FN3/c5-4-3(6)1-7-2-8-4/h1-2H,6H2	InChI=1S/C4H4FN3/c5-4-3(6)1-7-2-8-4/h1-2H,6H2
