23
gdb 114622	2.30952	1.26585	0.96031	0.9322	85.96	-0.2413	0.0836	0.3249	1355.3467	0.204553	-388.255287	-388.245474	-388.24453	-388.290048	36.759	
C	-0.2327912627	 1.659354959	 0.1146616869	-0.377688
C	 0.1475666036	 0.1845306517	-0.0580556248	-0.204713
C	 0.708785051	-0.4376248702	 1.2183744417	-0.033627
C	-0.238669534	-0.6559316494	 2.4542781211	-0.249534
C	 0.1837251742	-2.1290688028	 2.5053471131	-0.138981
C	-0.1852476093	-2.8067662474	 1.2031803982	-0.343696
C	 1.04521803	-1.940382626	 1.2709413774	 0.429523
O	 2.3072178828	-2.4592996608	 1.0626217605	-0.281685
C	 2.6070420582	-2.7237043612	-0.2970021266	-0.256538
H	 0.6360095096	 2.2596951983	 0.4072135104	 0.11357
H	-0.6310060259	 2.0801342368	-0.8139206434	 0.110579
H	-0.9957671202	 1.7850167691	 0.8905364225	 0.118354
H	-0.7310716018	-0.382735672	-0.390473818	 0.0935
H	 0.890442055	 0.0934671349	-0.8613276514	 0.094689
H	 1.5932571886	 0.1227919919	 1.5421036516	 0.076074
H	 0.0593697912	-0.0758479478	 3.329830613	 0.103638
H	-1.3051600022	-0.4861098246	 2.2682047215	 0.092551
H	 0.3954413793	-2.7001067913	 3.400496258	 0.092925
H	 0.0347279825	-3.8692921086	 1.1730442945	 0.113427
H	-1.0797472116	-2.5139646346	 0.6580795172	 0.101544
H	 1.8729650745	-3.4082334485	-0.7443337051	 0.109561
H	 2.6365870239	-1.8035864678	-0.8971251075	 0.11185
H	 3.5947476031	-3.1902817187	-0.3211343806	 0.124677
76.6817	95.3048	133.3279	164.1916	188.5566	221.8025	268.7237	318.238	359.6257	409.367	483.8353	488.6814	643.8892	709.9246	769.6956	813.6684	856.1395	905.7444	926.9674	950.1705	971.7125	1005.3594	1018.1026	1023.5218	1064.5614	1078.8402	1090.5695	1129.9888	1147.3044	1179.4317	1181.2102	1214.0062	1225.3382	1230.6838	1255.6657	1286.6808	1300.3639	1339.5059	1366.6557	1398.9168	1410.2205	1470.9475	1480.5336	1484.806	1491.8411	1498.8612	1505.0426	1507.1428	1507.7609	2992.4257	3017.5699	3029.4478	3036.847	3039.7154	3045.9819	3055.2768	3096.5393	3101.4658	3105.7583	3107.2751	3116.7561	3190.6655	3202.5629
CCC1CC2CC12OC	CC[C@H]1C[C@H]2C[C@@]12OC	
InChI=1S/C8H14O/c1-3-6-4-7-5-8(6,7)9-2/h6-7H,3-5H2,1-2H3	InChI=1S/C8H14O/c1-3-6-4-7-5-8(6,7)9-2/h6-7H,3-5H2,1-2H3/t6-,7-,8+/m0/s1
