23
gdb 91755	2.29217	1.74627	1.54752	1.286	83.69	-0.2451	0.0751	0.3203	1038.212	0.210051	-388.316482	-388.308813	-388.307869	-388.348078	32.086	
C	-0.3099795104	 1.5342853693	-0.0319003988	-0.424443
C	 0.0038319246	 0.0377864504	-0.0007226537	 0.065275
C	 0.8301838885	-0.467917903	-1.2296920819	-0.222537
C	 1.9839350548	-1.3086910987	-0.627864236	-0.013725
C	 1.3843380383	-1.7950066361	 0.7056684086	-0.230673
C	 0.8173342613	-0.4619212865	 1.2261415093	-0.030668
C	 2.0035844363	 0.4541012778	 1.5661608145	-0.079087
O	 2.8028707838	 0.7450203685	 0.4274837221	-0.25105
C	 3.1883413653	-0.4115350782	-0.3030351212	-0.076932
H	 0.6056694693	 2.1255294045	-0.1224167363	 0.135384
H	-0.9496475914	 1.7770559216	-0.8871938994	 0.107954
H	-0.8387061764	 1.8527403259	 0.8738292222	 0.104403
H	-0.9492078386	-0.5052590076	 0.017082254	 0.06608
H	 0.2107852535	-1.0791872242	-1.8929138681	 0.089376
H	 1.2123506205	 0.3683805283	-1.8232093737	 0.09897
H	 2.3102507149	-2.121743275	-1.2838869924	 0.059145
H	 0.5877258109	-2.5294254928	 0.5416899658	 0.088676
H	 2.1260023947	-2.2444719111	 1.3749010894	 0.086195
H	 0.1919186973	-0.5716553369	 2.1187696929	 0.056955
H	 1.669024484	 1.4236478066	 1.9467713389	 0.105672
H	 2.6143233563	-0.0206182829	 2.3534298863	 0.081764
H	 3.9428590339	-0.9879626529	 0.2596001068	 0.080653
H	 3.6621597184	-0.0376001072	-1.2166190092	 0.102614
122.7818	230.2739	265.4436	308.9855	349.9837	357.4643	426.515	450.853	476.9836	557.423	705.6937	772.2429	809.5587	825.8556	845.2572	896.0834	913.0769	930.6959	947.2276	979.7504	1000.8111	1016.0309	1034.7487	1060.9841	1090.1263	1111.1799	1124.9331	1161.4904	1186.4843	1210.8231	1216.0162	1248.7611	1278.7305	1308.2557	1311.6846	1328.9349	1338.1821	1352.6305	1367.1965	1375.8671	1393.8139	1408.0492	1421.1815	1489.0577	1493.8558	1496.8408	1502.5882	1511.2953	1517.1242	2955.5118	2961.3604	3014.4195	3029.2413	3030.9336	3045.3791	3052.3939	3061.0057	3071.43	3076.4872	3080.2545	3087.5116	3090.9678	3114.9201
CC1CC2CC1COC2	C[C@H]1C[C@@H]2C[C@H]1COC2	
InChI=1S/C8H14O/c1-6-2-7-3-8(6)5-9-4-7/h6-8H,2-5H2,1H3	InChI=1S/C8H14O/c1-6-2-7-3-8(6)5-9-4-7/h6-8H,2-5H2,1H3/t6-,7+,8-/m0/s1
