16
gdb 52953	4.76423	0.81376	0.76892	2.9068	82.38	-0.2432	-0.0286	0.2145	1495.9874	0.122789	-400.699286	-400.690505	-400.689561	-400.734389	31.265	
C	-0.0276972144	 1.4731724598	 0.0339264109	-0.509507
C	-0.0301939564	 0.0191846863	 0.0045799339	 0.257268
C	-0.039624527	-1.1853989905	-0.0087251956	-0.115918
C	-0.0155411633	-2.608052534	-0.0628987395	 0.126228
C	 0.8075029285	-3.4630420391	-1.0535705016	-0.421883
C	-0.4279083872	-4.4052440031	-1.1309136292	 0.419158
O	-0.7149619942	-5.31784627	-1.8496705738	-0.30361
C	-1.1934899328	-3.5978209739	-0.1114355417	-0.214322
N	-0.3714452316	-3.4137832021	 1.094183989	-0.337369
H	 0.8203604725	 1.878344758	-0.5287413069	 0.153654
H	-0.9445721947	 1.8814979819	-0.4052489816	 0.154345
H	 0.045143904	 1.8461379954	 1.0612645897	 0.156766
H	 0.9775075381	-2.9934310702	-2.0265135145	 0.14472
H	 1.7540620132	-3.856432614	-0.6713789303	 0.123271
H	-2.2613592032	-3.4324883456	-0.0359945715	 0.124603
H	 0.2819183084	-4.1808355889	 1.2466897526	 0.242596
25.5865	70.1942	98.1308	165.3702	292.143	322.3586	394.467	438.896	460.7601	531.5653	546.8669	583.1581	661.9193	759.5498	838.8142	916.2523	960.6673	987.7469	1041.6504	1051.599	1052.7198	1068.7606	1087.9196	1123.9212	1159.191	1201.3431	1226.8593	1275.7236	1410.7972	1428.5614	1461.4463	1474.9431	1476.2283	1886.348	2371.349	3029.1737	3057.2832	3090.8359	3093.3254	3115.1455	3199.1621	3459.5766
CC#CC12CC(=O)C1N2	CC#C[C@]12CC(=O)[C@H]1N2	
InChI=1S/C7H7NO/c1-2-3-7-4-5(9)6(7)8-7/h6,8H,4H2,1H3	InChI=1S/C7H7NO/c1-2-3-7-4-5(9)6(7)8-7/h6,8H,4H2,1H3/t6-,7+/m1/s1
