17
gdb 30284	3.1565	1.55791	1.11094	1.3563	74.53	-0.2163	0.0143	0.2307	1072.8099	0.137486	-421.845643	-421.838143	-421.837199	-421.877825	28.578	
C	 0.094604178	 1.568857151	-0.1476335008	-0.383046
C	-0.0591983323	 0.0688407508	 0.0837754801	 0.014572
O	 0.5233881763	-0.6472432657	-1.0427804277	-0.297863
C	 1.4849766903	-1.6336112427	-0.6458356152	-0.185875
C	 1.5348059457	-1.4317622938	 0.8271431098	 0.276821
C	 0.6763995719	-0.4891574531	 1.2629711897	 0.225068
C	 0.8376148854	-0.4386648137	 2.6855661323	-0.377598
C	 1.7936173827	-1.3690410557	 2.9696825311	-0.010868
O	 2.2370426272	-1.9955926044	 1.8297319317	-0.194159
H	 1.1521285048	 1.8460207454	-0.1726732121	 0.120343
H	-0.3655328992	 1.8516179991	-1.0984617171	 0.125663
H	-0.3965306581	 2.130114381	 0.6544452852	 0.112766
H	-1.1310025558	-0.1806623684	 0.1162822556	 0.087583
H	 1.1417147332	-2.6374699688	-0.9398437089	 0.11422
H	 2.4402212112	-1.4456848652	-1.1567931936	 0.117281
H	 0.3319558617	 0.1862156367	 3.4052018898	 0.11733
H	 2.2574408369	-1.6973623525	 3.8849755099	 0.137763
86.1146	151.439	209.2029	231.3601	298.6219	446.4807	452.8099	594.0597	611.5284	657.3053	712.6407	730.6929	782.1072	820.1461	849.5215	919.3332	996.4506	1031.1105	1045.648	1053.5044	1079.2158	1107.4837	1129.3819	1159.894	1177.0083	1263.1858	1308.0202	1320.13	1372.5004	1401.3206	1414.8951	1470.1927	1486.5174	1496.3525	1518.7631	1527.1751	1656.9387	2977.1655	2982.0191	3007.3224	3038.3102	3111.6891	3124.5776	3253.1049	3286.0355
CC1OCC2=C1C=CO2	C[C@H]1OCc2c1cco2	
InChI=1S/C7H8O2/c1-5-6-2-3-8-7(6)4-9-5/h2-3,5H,4H2,1H3	InChI=1S/C7H8O2/c1-5-6-2-3-8-7(6)4-9-5/h2-3,5H,4H2,1H3/t5-/m1/s1
