17
gdb 126000	2.8009	1.53149	1.05522	4.8577	76.65	-0.2051	0.0143	0.2194	1128.6783	0.137979	-414.150459	-414.142389	-414.141445	-414.183174	30.153	
C	-0.2325696907	 1.5744056744	 0.0369558825	-0.394619
C	-0.0165730665	 0.0664287354	-0.0003642795	-0.172561
C	 1.1532785076	-0.4573152884	-0.9357459847	-0.181659
N	 1.7519381825	-0.9959121919	 0.3022422067	 0.092241
N	 2.7528840986	-1.6386203528	 0.8938232053	-0.194872
N	 2.4159702879	-1.6411969856	 2.1751234594	-0.246497
C	 1.2275391257	-0.993158881	 2.3812357616	 0.126687
N	 0.7204760916	-0.8094970261	 3.668362209	-0.597026
C	 0.7912307132	-0.5659062301	 1.1396788573	 0.303903
H	 0.7085047022	 2.1021854289	 0.2190816961	 0.131986
H	-0.653893055	 1.9314118634	-0.9085467202	 0.122212
H	-0.9279556037	 1.8439580509	 0.8376305644	 0.131804
H	-0.9589050743	-0.4510795207	-0.2052871007	 0.100379
H	 0.8865343656	-1.226195832	-1.6635738252	 0.139438
H	 1.7570474959	 0.322443664	-1.4053389733	 0.140212
H	 1.2361786445	-1.3794571418	 4.328368919	 0.253869
H	-0.2684307651	-1.0110200867	 3.7414533623	 0.244503
95.3446	125.4486	207.2966	221.8026	259.0983	321.4288	364.9721	442.1218	513.0829	655.2495	668.1506	689.3302	707.7768	777.3868	802.808	872.169	914.7197	1026.8645	1069.4085	1086.6226	1096.3041	1126.1328	1167.7808	1198.3967	1225.1651	1235.126	1277.8627	1310.4302	1372.5369	1374.9953	1413.1402	1482.9624	1493.5525	1497.8353	1517.0641	1624.2756	1650.6716	3036.7899	3057.3493	3072.5901	3107.5763	3114.7189	3134.7521	3532.4096	3624.0658
CC1CN2N=NC(N)=C12	C[C@H]1Cn2nnc(N)c12	
InChI=1S/C5H8N4/c1-3-2-9-4(3)5(6)7-8-9/h3H,2,6H2,1H3	InChI=1S/C5H8N4/c1-3-2-9-4(3)5(6)7-8-9/h3H,2,6H2,1H3/t3-/m0/s1
