24
gdb 57329	1.95228	1.41917	1.27105	3.8885	88.39	-0.3069	0.0442	0.3511	1220.5912	0.214162	-368.445119	-368.433852	-368.432908	-368.480566	42.718	
C	-0.0499257698	 1.546813356	 0.0517954454	-0.427938
C	-0.0103050993	 0.0044607896	 0.0396841415	 0.25295
C	 0.6974476209	-0.4785051623	 1.3205072995	-0.432377
C	-1.4634841154	-0.5138205813	 0.0557414769	-0.427942
C	 0.7464166386	-0.5172621827	-1.2571508059	 0.09169
C	 2.2018510291	 0.0045872181	-1.3591240714	-0.425211
C	 0.7798204818	-2.0632221728	-1.3570722094	-0.425161
C	 0.0246056517	-0.0223005141	-2.4451847419	 0.286515
N	-0.5308027979	 0.3583981177	-3.3854692435	-0.365641
H	 0.9460907154	 1.9854994195	 0.1570689622	 0.114367
H	-0.5048861375	 1.9454351211	-0.8596393315	 0.139622
H	-0.6471011376	 1.8926970154	 0.9012520526	 0.114026
H	 0.1539685928	-0.1056802284	 2.1947596683	 0.118898
H	 0.7218154315	-1.5691075529	 1.397679692	 0.116253
H	 1.7228796057	-0.1060371153	 1.3960324947	 0.116292
H	-2.0001385964	-0.2372447826	-0.8564850467	 0.139552
H	-1.513946201	-1.6004716866	 0.1662774994	 0.114368
H	-2.0003788622	-0.0771792	 0.9036308384	 0.114037
H	 2.8013129414	-0.3724444377	-0.5270258191	 0.12445
H	 2.6581631088	-0.3490782639	-2.2874709486	 0.132747
H	 2.2498945773	 1.0944762358	-1.3598563437	 0.135657
H	-0.2207757293	-2.4979113507	-1.3577989288	 0.135702
H	 1.2738154475	-2.3639791817	-2.2847826759	 0.132727
H	 1.3459120339	-2.4871401603	-0.5241651245	 0.12442
39.7318	155.5048	179.9364	183.6318	239.237	247.5931	252.3855	266.3567	292.6556	312.2827	357.8143	359.8172	375.1351	419.4466	442.4506	443.655	573.6878	592.279	644.5577	791.5345	862.6068	934.8551	936.4717	940.8411	946.3066	962.2321	1018.3977	1044.9924	1049.9547	1150.5709	1183.4011	1208.6395	1249.4687	1252.6869	1271.0866	1394.5663	1400.8401	1404.1625	1417.0374	1438.0269	1473.7476	1482.6849	1484.5573	1489.2125	1499.3015	1501.9976	1504.3606	1512.1629	1519.0303	1522.8639	2345.0231	3037.9896	3038.26	3044.9201	3054.0685	3059.0455	3100.9	3102.7672	3110.0376	3113.117	3116.1106	3118.45	3124.228	3126.4511	3143.6672	3144.4755
CC(C)(C)C(C)(C)C#N	CC(C)(C)C(C)(C)C#N	
InChI=1S/C8H15N/c1-7(2,3)8(4,5)6-9/h1-5H3	InChI=1S/C8H15N/c1-7(2,3)8(4,5)6-9/h1-5H3
