18
gdb 126386	3.43509	1.10107	0.88824	3.1658	75.95	-0.2116	0.0212	0.2328	1335.9006	0.148305	-435.326121	-435.316881	-435.315937	-435.360726	32.794	
C	 0.4424378935	 0.8321095227	-0.7850709235	-0.3792
C	-0.2756699606	 0.440176716	 0.5178694329	-0.295108
C	-1.5964296435	-0.2155345729	 0.294573384	 0.401902
N	-2.7411796403	 0.2823311903	 0.6554422762	-0.304434
N	-3.6800004045	-0.642347551	 0.2456382659	-0.06267
C	-5.0873223513	-0.44012528	 0.4779716712	-0.326494
C	-3.1268829856	-1.738780297	-0.38120941	 0.463589
O	-3.6691771138	-2.7185285275	-0.8511780638	-0.438597
N	-1.762584665	-1.4281484527	-0.3349718849	-0.411246
H	 1.4003082956	 1.3105245179	-0.5631034703	 0.126105
H	 0.6449744093	-0.0406389567	-1.4143679182	 0.116439
H	-0.163680187	 1.5313860785	-1.3678547793	 0.136704
H	 0.3675934801	-0.2277226223	 1.1055623196	 0.117433
H	-0.4623309186	 1.3258821655	 1.1305121284	 0.13989
H	-5.2988300696	-0.3652201247	 1.5490669241	 0.137968
H	-5.4368409309	 0.4708330143	-0.017504938	 0.137728
H	-5.6054731745	-1.3056979183	 0.0617576898	 0.166013
H	-1.0525154734	-2.0334813422	-0.7080491142	 0.273977
54.2151	109.6903	122.1903	168.0464	192.9451	243.4033	275.5392	327.5959	412.7454	475.4771	550.6755	605.5521	695.3377	710.7621	754.0632	794.3781	834.9629	963.755	1015.5884	1035.4771	1076.1511	1097.7007	1152.767	1160.0197	1252.1369	1273.0938	1291.4609	1354.1074	1412.1022	1420.9122	1447.429	1471.7183	1477.7153	1484.131	1498.5975	1506.4306	1517.1457	1641.3621	1835.9648	3027.3179	3039.7492	3041.7407	3096.671	3100.1336	3116.3051	3123.1783	3150.5747	3689.5628
CCC1=NN(C)C(=O)N1	CCc1nn(C)c(=O)[nH]1	
InChI=1S/C5H9N3O/c1-3-4-6-5(9)8(2)7-4/h3H2,1-2H3,(H,6,7,9)	InChI=1S/C5H9N3O/c1-3-4-6-5(9)8(2)7-4/h3H2,1-2H3,(H,6,7,9)
