14
gdb 13480	3.49178	1.93599	1.26549	1.6357	59.98	-0.2629	-0.0131	0.2498	897.059	0.107847	-415.930716	-415.922996	-415.922051	-415.963409	27.173	
N	-0.0610093041	 1.3289058044	 0.0158757887	-0.56712
C	 0.0900358241	-0.0199424855	 0.0030250456	 0.467073
O	 1.1374755363	-0.6298945361	-0.0128972244	-0.387894
N	-1.1453689388	-0.6945575706	 0.0128493235	-0.15093
C	-1.4469956368	-2.1320061835	 0.0107208251	-0.161689
C	-2.9576350047	-1.7422932878	 0.0234703223	-0.376499
C	-2.4685627191	-0.2838770402	 0.0233455467	 0.435092
O	-2.9531196918	 0.8197824669	 0.0287556107	-0.374819
H	 0.768594063	 1.8948153942	-0.0060699579	 0.269261
H	-0.9812163382	 1.7457299595	 0.0146053524	 0.284158
H	-1.0977097099	-2.6457284309	-0.8870529978	 0.136336
H	-1.0838695476	-2.6513147087	 0.8997516608	 0.136273
H	-3.5269121521	-2.0224506658	-0.8642692303	 0.145358
H	-3.5127740602	-2.0268488259	 0.9187354645	 0.145402
53.552	113.8963	188.0036	196.1687	253.3474	374.3217	443.1157	531.8552	599.9373	625.2879	693.6881	770.382	790.5494	811.3426	930.7772	1041.9389	1051.3986	1105.8105	1156.971	1177.3585	1183.8154	1228.4551	1240.0685	1366.0435	1391.3879	1457.6132	1524.7732	1617.1964	1821.1316	1859.709	3076.8402	3092.2599	3127.9558	3150.7286	3558.764	3732.8069
NC(=O)N1CCC1=O	NC(=O)N1CCC1=O	
InChI=1S/C4H6N2O2/c5-4(8)6-2-1-3(6)7/h1-2H2,(H2,5,8)	InChI=1S/C4H6N2O2/c5-4(8)6-2-1-3(6)7/h1-2H2,(H2,5,8)
