20
gdb 62910	2.80521	1.4889	1.16534	3.7363	80.25	-0.2345	-0.0248	0.2097	1113.5506	0.168994	-403.061948	-403.053073	-403.052129	-403.095334	33.789	
C	-0.0623740439	 1.5760004763	 0.136113513	-0.482448
C	 0.0223350655	 0.058280213	-0.0418017314	 0.390684
C	-1.3743273989	-0.5064196953	 0.2517444735	-0.469344
C	 0.8656147881	-0.5775849614	-1.193760636	-0.14387
C	 2.1010291396	-0.0649312498	-0.4261961488	-0.178998
N	 1.2251838392	-0.6235546672	 0.7210359149	-0.178032
C	 1.0381347996	-1.8002009376	-0.2494048101	-0.00724
C	 0.0513241656	-2.9034098166	 0.0440711418	 0.086064
O	-0.2376737896	-3.2987279008	 1.1429589256	-0.23645
H	 0.8822979626	 2.1124952993	 0.0664634543	 0.121593
H	-0.7388874936	 1.993555818	-0.6172857798	 0.122749
H	-0.4927857793	 1.7953149031	 1.1188848212	 0.134594
H	-1.6302903849	-1.38978092	-0.3368923787	 0.122178
H	-1.466894078	-0.7700100852	 1.3090303319	 0.154385
H	-2.1331832623	 0.2465944258	 0.0226557681	 0.113204
H	 0.670154551	-0.5675685711	-2.2732723333	 0.065795
H	 3.0368459983	-0.6147135501	-0.5485962057	 0.103564
H	 2.2949954325	 1.0022995107	-0.3754130244	 0.106765
H	 1.983318543	-2.3417059296	-0.4127476327	 0.103089
H	-0.3198531344	-3.4200830516	-0.8748044532	 0.071718
95.7621	108.2728	159.1827	189.7383	243.8357	253.4468	368.8554	380.0269	452.7978	511.0415	566.5331	636.125	682.8013	736.1584	758.925	784.7828	889.0866	906.0518	959.523	969.9847	995.3174	1029.8149	1033.5037	1069.5286	1110.3665	1124.2374	1136.1976	1159.5948	1204.2523	1222.3334	1232.6656	1236.0231	1288.4571	1395.5888	1407.3257	1417.5352	1421.3994	1476.7679	1488.5685	1498.8232	1517.9154	1557.7909	1827.7181	2829.6451	2985.2353	3024.5859	3042.1699	3049.9248	3081.8857	3099.5472	3111.8842	3126.6429	3144.9896	3178.7799
CC1(C)C2CN1C2C=O	CC1(C)[C@H]2CN1[C@H]2C=O	
InChI=1S/C7H11NO/c1-7(2)5-3-8(7)6(5)4-9/h4-6H,3H2,1-2H3	InChI=1S/C7H11NO/c1-7(2)5-3-8(7)6(5)4-9/h4-6H,3H2,1-2H3/t5-,6-/m0/s1
