17
gdb 54286	2.37631	1.42414	1.02718	2.3402	72.89	-0.2583	0.0089	0.2672	1158.8871	0.135938	-418.048241	-418.039305	-418.038361	-418.082286	33.111	
N	 0.397650292	-0.1714063847	 1.5775054313	-0.554236
C	 0.2255546758	-0.9137738373	 0.4395781991	 0.352557
O	 1.1569412204	-1.4632558193	-0.1202324962	-0.365463
C	-1.1893357455	-1.056009629	-0.0778471649	 0.237301
C	-2.366209088	-0.6302076892	 0.7969264322	-0.44988
C	-2.4365105093	 0.8127506556	 1.0439039517	 0.266506
N	-2.4479003792	 1.9495788086	 1.2546915948	-0.313608
C	-1.327245526	-0.9059610891	-1.5864169916	-0.276543
C	-1.4099132418	-2.2645907343	-0.9696553514	-0.296742
H	 1.3605873448	 0.0065364335	 1.8216837983	 0.263283
H	-0.2655526044	 0.5396045819	 1.844668324	 0.274263
H	-3.3027680097	-0.9351168503	 0.318711235	 0.158161
H	-2.32949162	-1.1398538591	 1.7670518158	 0.166247
H	-2.2338288775	-0.438597064	-1.9554319661	 0.122443
H	-0.4222364058	-0.6547248393	-2.1257230733	 0.146736
H	-0.5537702123	-2.9169249863	-1.0848727397	 0.1547
H	-2.3759219334	-2.7541130977	-0.9118945692	 0.114274
58.8405	80.5873	133.0244	243.3696	286.9105	311.6588	344.0613	395.1854	439.3868	465.5976	476.1694	574.7708	621.9923	709.0654	771.4547	788.7229	849.8558	905.2823	938.71	949.8549	988.0465	1016.7403	1072.1339	1100.289	1114.4853	1200.4769	1203.2284	1270.9583	1304.3769	1338.1156	1402.6944	1449.2481	1457.7259	1481.941	1636.1276	1781.9103	2353.9082	3043.4715	3085.1714	3140.3022	3142.8721	3233.0227	3246.7532	3570.7561	3690.6822
NC(=O)C1(CC#N)CC1	NC(=O)C1(CC#N)CC1	
InChI=1S/C6H8N2O/c7-4-3-6(1-2-6)5(8)9/h1-3H2,(H2,8,9)	InChI=1S/C6H8N2O/c7-4-3-6(1-2-6)5(8)9/h1-3H2,(H2,8,9)
