18
gdb 19013	4.52468	1.86141	1.64338	2.1657	70.3	-0.2253	0.0754	0.3008	841.0388	0.155385	-347.750031	-347.743582	-347.742638	-347.780379	26.261	
C	-0.1204769229	 1.5593942388	-0.0258565966	-0.40108
C	 0.013148317	 0.0353148345	-0.0014633971	 0.002536
C	 0.9216916183	-0.546899765	-1.1377487581	-0.268033
C	 1.9690980682	-1.2824006582	-0.3118534516	-0.025661
C	 1.2933228457	-1.9343936066	 0.9310331171	 0.041901
O	 2.4874134436	-1.6960855515	 1.753386015	-0.319467
C	 2.2956181645	-0.4654828794	 0.9728650425	 0.053847
C	 0.7562879664	-0.5029856053	 1.2199282086	-0.026346
H	 0.8617553249	 2.0435407515	 0.0235881573	 0.114466
H	-0.610605947	 1.8973516339	-0.9449061136	 0.115461
H	-0.7123268857	 1.9216973048	 0.8215047202	 0.114931
H	-0.9896209047	-0.4055628302	-0.053436598	 0.072813
H	 0.3770890134	-1.2173312958	-1.8100721022	 0.101644
H	 1.362681017	 0.2443672904	-1.7539281819	 0.100322
H	 2.7818939709	-1.8216393716	-0.7975104745	 0.075691
H	 0.7909627132	-2.8982525176	 1.0257442786	 0.086613
H	 3.0096517755	 0.3456259219	 1.1205370239	 0.087128
H	 0.3907427519	-0.2826727246	 2.2230704103	 0.073233
132.1	235.1579	264.4654	364.0866	459.2605	502.5103	648.7651	688.5498	767.4756	777.29	834.0619	880.4363	896.286	904.1413	935.4003	944.5931	976.6915	987.8182	1004.5196	1045.3212	1088.7672	1116.4881	1131.1846	1160.7048	1176.8048	1186.7896	1232.2527	1242.8663	1256.0244	1273.3727	1282.1846	1321.5485	1358.1951	1382.3187	1412.1833	1495.2755	1499.0548	1500.0291	3025.0728	3027.2668	3043.6987	3082.6203	3093.8126	3098.1996	3103.9355	3107.4142	3125.144	3133.8625
CC1CC2C3OC2C13	C[C@H]1C[C@@H]2[C@H]3O[C@@H]2[C@@H]13	
InChI=1S/C7H10O/c1-3-2-4-6-5(3)7(4)8-6/h3-7H,2H2,1H3	InChI=1S/C7H10O/c1-3-2-4-6-5(3)7(4)8-6/h3-7H,2H2,1H3/t3-,4-,5+,6-,7+/m0/s1
