17
gdb 20905	5.0355	1.3662	1.18433	0.4441	71.59	-0.2436	0.0063	0.2499	1063.2434	0.143269	-360.065514	-360.057329	-360.056384	-360.099462	28.456	
C	-0.0676766725	 1.5188246127	 0.0404643011	-0.378418
C	 0.0368843928	-0.0063537165	 0.0207835638	-0.126834
N	 0.7409550208	-0.5297919668	 1.1812257336	 0.149357
N	 2.0570115901	-0.6991746279	 1.1923326293	-0.227666
C	 2.3083298385	-1.1025404858	 2.4387429454	-0.131956
C	 1.1013011889	-1.1576125995	 3.1577458507	 0.30679
C	 0.8340111736	-1.5549865335	 4.5733145473	-0.49724
N	 0.1198596453	-0.7817427747	 2.3303108715	-0.294211
H	 0.9269971568	 1.9726235444	 0.0439772249	 0.138579
H	-0.6048637069	 1.8677853291	-0.8465363799	 0.122026
H	-0.6091535399	 1.855826207	 0.92842716	 0.139299
H	-0.9532277175	-0.4672512248	 0.0194119282	 0.135969
H	 0.5870901426	-0.3514463782	-0.8569610179	 0.137282
H	 3.3133330059	-1.3370799875	 2.7531598706	 0.116962
H	 1.3873075073	-0.9248657199	 5.2777331092	 0.133205
H	-0.2314451156	-1.4596888638	 4.7920295858	 0.142936
H	 1.1311896998	-2.5921570942	 4.7621254362	 0.133921
35.7843	57.9475	115.218	213.5028	272.5381	288.0938	402.7678	426.5896	627.5419	695.9559	698.6576	735.7139	796.6365	866.1641	971.8603	996.7481	1025.6153	1056.069	1068.1156	1102.954	1111.6359	1204.8025	1267.2135	1351.2912	1386.0454	1391.4869	1403.5014	1408.6847	1417.4044	1437.3546	1475.1467	1485.2837	1489.8486	1499.5779	1505.9082	1560.0702	3038.6267	3046.6586	3080.2704	3090.4385	3120.0247	3122.1674	3134.0785	3143.8888	3261.9014
CCN1N=CC(C)=N1	CCn1ncc(C)n1	
InChI=1S/C5H9N3/c1-3-8-6-4-5(2)7-8/h4H,3H2,1-2H3	InChI=1S/C5H9N3/c1-3-8-6-4-5(2)7-8/h4H,3H2,1-2H3
