18
gdb 73657	2.475	1.61594	1.40181	2.8843	71.38	-0.2478	0.0242	0.272	1008.0775	0.148713	-439.123885	-439.115648	-439.114704	-439.156656	31.393	
O	 0.0229886456	 1.4880213365	 0.1121061024	-0.488729
C	 0.0034636859	 0.0977466494	-0.0693159803	 0.282773
C	 0.6583554459	-0.3727401808	-1.3766446361	-0.272723
C	-0.0618477384	-1.681534274	-1.7533187978	-0.221336
C	-1.5194888137	-1.4567532097	-1.2937745795	-0.223152
C	-1.3846596066	-0.6505489747	-0.0032353926	-0.009912
N	-0.8280966388	-1.3888394323	 1.1469906298	-0.336108
C	 0.359001218	-0.7134953761	 1.2038987085	 0.361901
O	 1.2842856012	-0.7046993851	 1.9759198194	-0.381328
H	 0.6302841659	 1.6765620836	 0.8370099489	 0.297769
H	 0.4654248415	 0.4064895829	-2.1233422618	 0.112504
H	 1.74250422	-0.4817326231	-1.2837206397	 0.113304
H	 0.013146748	-1.9121425077	-2.8187073559	 0.10344
H	 0.3757101698	-2.5247242515	-1.2087791637	 0.112749
H	-2.0602109951	-0.8490209246	-2.029204452	 0.108986
H	-2.0809963622	-2.3869259141	-1.162802551	 0.099004
H	-2.2419921375	-0.0263554579	 0.2565006146	 0.091334
H	-1.2256940995	-2.0895676907	 1.7561842168	 0.249523
81.8927	141.9217	179.8863	226.5888	268.4282	323.8032	376.9785	426.6232	529.976	580.0653	604.1284	697.4571	761.9724	774.2958	829.3973	857.9712	896.051	936.8704	941.8199	980.0498	1042.9042	1074.3142	1124.7356	1134.2272	1162.8134	1190.9728	1227.2152	1258.1798	1267.064	1323.0298	1331.8596	1343.6785	1354.3036	1381.3484	1385.995	1477.0223	1485.2644	1501.2174	1883.2501	3038.7058	3043.0143	3053.6345	3086.4105	3092.9071	3096.6675	3107.4827	3598.0103	3795.1465
OC12CCCC1NC2=O	O[C@]12CCC[C@H]1NC2=O	
InChI=1S/C6H9NO2/c8-5-6(9)3-1-2-4(6)7-5/h4,9H,1-3H2,(H,7,8)	InChI=1S/C6H9NO2/c8-5-6(9)3-1-2-4(6)7-5/h4,9H,1-3H2,(H,7,8)/t4-,6-/m1/s1
