16
gdb 63124	2.29109	1.68654	1.2035	2.9861	70.7	-0.2638	0.0059	0.2697	1042.682	0.122652	-437.849875	-437.84136	-437.840416	-437.882684	31.848	
C	 0.003903713	 1.5676019728	-0.0256093732	-0.471807
C	 0.0796677386	 0.0617605872	-0.0057915023	 0.298598
O	-0.9871173024	-0.6115890495	-0.5999460483	-0.444972
C	 1.341175806	-0.7084174297	-0.2015188774	 0.02856
O	 2.4785985715	-0.0241761623	 0.2963697125	-0.276517
C	 1.9753192944	-0.093394276	 1.6575374534	-0.147659
C	 0.6718882931	-0.7372597817	 1.1848462667	 0.060758
C	-0.0857126101	-1.7303764009	 1.8573801993	 0.192987
N	-0.7320372579	-2.5121658552	 2.4170667697	-0.356487
H	 0.9562455498	 2.0180250905	 0.2595293493	 0.145311
H	-0.2399471083	 1.8956790208	-1.0402879337	 0.14265
H	-0.7769740933	 1.9328764138	 0.6499844284	 0.123988
H	-1.7415227934	-0.6037374405	 0.0018943766	 0.301731
H	 1.4703407636	-1.4859285229	-0.9456331262	 0.140454
H	 2.5906915263	-0.7687870682	 2.2592314831	 0.139045
H	 1.9118671394	 0.8889869617	 2.1360280522	 0.123361
117.2439	141.716	182.5139	239.354	260.1462	293.0629	344.8634	384.1675	421.5729	491.4858	540.6275	591.5442	619.3451	677.8746	756.7896	911.572	965.6779	990.7716	1000.5054	1032.6149	1041.7268	1080.1318	1108.6528	1160.0807	1189.6898	1229.2028	1274.1709	1316.4762	1372.1762	1410.5002	1436.9879	1481.7416	1500.2187	1520.3062	2339.8154	3041.9696	3045.6049	3100.4826	3109.0101	3141.1483	3192.86	3781.3935
CC1(O)C2OCC12C#N	C[C@@]1(O)[C@H]2OC[C@@]12C#N	
InChI=1S/C6H7NO2/c1-5(8)4-6(5,2-7)3-9-4/h4,8H,3H2,1H3	InChI=1S/C6H7NO2/c1-5(8)4-6(5,2-7)3-9-4/h4,8H,3H2,1H3/t4-,5-,6-/m1/s1
