21
gdb 58724	3.47162	1.35916	1.1865	0.2152	84.82	-0.2173	0.078	0.2953	1134.8914	0.181449	-349.849977	-349.841627	-349.840683	-349.882776	33.24	
C	-0.0408554261	 1.5703058053	 0.2174364391	-0.383171
C	-0.0402287921	 0.0457519835	 0.0150604766	-0.126186
C	 0.8266753688	-0.6534296477	 1.071853414	-0.39426
C	-1.4417493943	-0.4933762966	 0.0039743042	 0.417366
C	-2.6651076473	-0.1529246634	-0.9131837278	-0.17683
C	-3.6163010108	-0.4689032296	 0.2307830494	-0.085364
C	-3.1956801885	-1.5670790392	-0.7351105006	-0.087568
C	-1.9823352011	-1.9091398764	 0.1785136948	-0.175541
C	-2.4050640373	-0.8086824231	 1.147998554	-0.149624
H	 0.9751744149	 1.9741947739	 0.1570908383	 0.106263
H	-0.6479046168	 2.0727960173	-0.542335209	 0.114043
H	-0.4519876056	 1.8306340312	 1.1990326445	 0.114947
H	 0.402012171	-0.1605028342	-0.9717455401	 0.07423
H	 0.4362207056	-0.4759922982	 2.0804073444	 0.115941
H	 0.8655563783	-1.7348946719	 0.9089407243	 0.115494
H	 1.8523326534	-0.2725610341	 1.0424811838	 0.111697
H	-2.7873460639	 0.530043005	-1.7439086933	 0.081011
H	-4.6009826935	-0.0710640231	 0.4369299271	 0.082955
H	-3.7986029257	-2.1653059372	-1.4051532535	 0.083126
H	-1.453883049	-2.8320297411	 0.3790024814	 0.081009
H	-2.2566588598	-0.7450712303	 2.2180319082	 0.080462
67.8739	153.4475	176.1333	224.9349	257.1642	307.8724	399.2015	441.0292	579.7017	667.5285	746.3184	749.8001	788.273	797.883	838.2709	849.3368	881.1213	890.2103	903.2691	927.8132	943.5411	957.2765	970.1063	976.2279	1006.2684	1018.8675	1043.229	1083.4658	1114.5712	1142.5524	1169.7096	1175.5597	1207.8891	1249.1927	1259.2566	1319.2336	1346.2743	1357.9773	1395.8376	1411.2623	1428.0339	1487.8689	1490.4103	1502.1117	1513.2712	2982.9501	3028.2667	3032.6614	3096.1822	3100.951	3101.4201	3105.9695	3184.4614	3188.4174	3198.1864	3200.0456	3210.3059
CC(C)C12C3C4C3C1C24	CC(C)[C@@]12[C@@H]3[C@H]4[C@@H]3[C@@H]1[C@@H]24	
InChI=1S/C9H12/c1-3(2)9-6-4-5(6)8(9)7(4)9/h3-8H,1-2H3	InChI=1S/C9H12/c1-3(2)9-6-4-5(6)8(9)7(4)9/h3-8H,1-2H3/t4-,5+,6-,7+,8-,9+
