18
gdb 121485	5.06796	0.58844	0.54502	2.2838	75.59	-0.2576	-0.0279	0.2297	1993.4639	0.144672	-476.253371	-476.243135	-476.242191	-476.290406	34.756	
C	-0.2434969794	 1.4362943826	 0.1452082346	-0.483399
C	 0.0591586468	-0.0314537217	 0.0242261412	 0.443585
O	 1.135407043	-0.5291937068	-0.1532741939	-0.32449
O	-1.1077495608	-0.7551846048	 0.1482187339	-0.222375
C	-1.0282108682	-2.1216114119	 0.0567880664	 0.114295
N	-2.08177514	-2.7916159536	 0.1750525461	-0.222342
C	-1.9857831425	-4.2414737239	 0.0960372365	-0.160309
C	-2.7340684577	-4.84023515	 1.2915115978	-0.04016
O	-4.0783155865	-4.4145135184	 1.3213936752	-0.420553
H	 0.6803930758	 2.0061054112	 0.0582570991	 0.155267
H	-0.9467474994	 1.7353138585	-0.6373678596	 0.16217
H	-0.7245983153	 1.6387708045	 1.1062610381	 0.161737
H	-0.0179405104	-2.4953175799	-0.1194499964	 0.13936
H	-2.4921835727	-4.563076478	-0.8222202404	 0.122383
H	-0.947006448	-4.6070113228	 0.0658721803	 0.090578
H	-2.7393211535	-5.9328122683	 1.2158052013	 0.106323
H	-2.2013408142	-4.5715432787	 2.2191483151	 0.084961
H	-4.0532002469	-3.4601527179	 1.1748052646	 0.292967
36.2293	69.6893	90.1739	95.6095	131.7758	165.4393	242.6318	311.5847	369.0475	393.0774	467.4932	533.5016	563.1637	593.8488	645.2294	859.4801	894.5126	951.7992	999.2784	1003.8427	1064.0317	1083.7001	1094.9445	1120.356	1164.9215	1222.6941	1227.5063	1264.0285	1358.248	1382.6816	1387.8363	1397.2799	1439.6108	1465.979	1472.3857	1479.989	1508.8689	1774.8093	1851.4632	2964.7604	2980.521	3055.7951	3058.8699	3073.8103	3121.492	3123.9566	3174.3463	3771.4852
CC(=O)OC=NCCO	CC(=O)OC=NCCO	
InChI=1S/C5H9NO3/c1-5(8)9-4-6-2-3-7/h4,7H,2-3H2,1H3	InChI=1S/C5H9NO3/c1-5(8)9-4-6-2-3-7/h4,7H,2-3H2,1H3
