22
gdb 106519	3.05819	1.39204	1.20199	0.3618	81.17	-0.2076	0.0777	0.2853	1146.2807	0.195821	-404.316149	-404.307781	-404.306837	-404.348832	33.238	
C	 0.0286783127	 1.5545107189	-0.1244803222	-0.382914
C	-0.0146947534	 0.044315047	 0.1306527472	-0.261082
C	-1.4032679748	-0.545102035	-0.0096375713	 0.427365
C	-2.1604758029	-0.575794947	-1.3655908008	-0.24319
N	-2.8572658319	-1.8325320444	-0.8978667362	-0.124906
C	-1.649368465	-2.0714392315	-0.0217710773	-0.219718
C	-3.9604620882	-1.4289973451	-0.0040851361	-0.180982
C	-3.6289810652	-0.1389036709	 0.791763987	-0.086418
O	-2.228389743	 0.024148629	 1.0122088702	-0.310075
H	 1.0403857286	 1.9477164263	 0.0110148928	 0.110384
H	-0.2865123135	 1.7941009017	-1.1462215406	 0.11183
H	-0.6395163873	 2.0769122095	 0.5645062675	 0.133885
H	 0.6531365099	-0.4796172854	-0.5640035642	 0.092294
H	 0.3472269643	-0.1733066607	 1.1431117943	 0.105736
H	-2.8088431029	 0.2592585213	-1.6412632417	 0.106518
H	-1.5004452319	-0.8120584226	-2.205143616	 0.106133
H	-0.8953592973	-2.6403095082	-0.575249622	 0.098299
H	-1.8535129418	-2.5493767069	 0.9401611528	 0.099913
H	-4.8653039528	-1.2623703993	-0.6001100571	 0.10312
H	-4.1628868974	-2.2703684839	 0.6666552539	 0.109154
H	-4.0138785519	 0.7380187981	 0.2522146586	 0.096974
H	-4.1056655644	-0.1436988507	 1.7768664013	 0.107678
93.3354	150.8105	188.3468	213.7845	289.2668	328.8967	418.7925	449.528	471.4765	493.8191	600.5805	672.3137	773.426	801.2955	827.1994	868.8139	887.8565	913.2729	917.1099	956.0344	977.3155	1020.1071	1035.6045	1054.5815	1085.2759	1104.4461	1150.2963	1164.8135	1207.7853	1226.4062	1249.776	1263.821	1265.4723	1286.8872	1307.8418	1335.0656	1361.9588	1385.8146	1402.5143	1406.3026	1474.7646	1481.271	1494.5299	1496.1303	1506.4894	1510.4387	1530.4419	2995.1052	3027.0393	3032.0325	3037.6686	3041.1487	3057.4363	3063.9868	3066.866	3083.7613	3102.2182	3106.8664	3112.7929	3126.4116
CCC12CN(C1)CCO2	CC[C@@]12CN(C1)CCO2	
InChI=1S/C7H13NO/c1-2-7-5-8(6-7)3-4-9-7/h2-6H2,1H3	InChI=1S/C7H13NO/c1-2-7-5-8(6-7)3-4-9-7/h2-6H2,1H3
