15
gdb 71101	2.69589	1.58437	1.33523	4.9592	71.46	-0.2637	-0.0016	0.2621	978.6189	0.113381	-416.750964	-416.743728	-416.742784	-416.78255	28.256	
O	 0.1615586025	 1.426859814	 0.1200925462	-0.450472
C	 0.0242671618	 0.0702627932	 0.0333776548	 0.324953
C	 0.4844165013	-0.7685159826	-1.1888424219	-0.314376
C	-0.5005383787	-1.8262843063	-0.696919285	-0.080201
N	-0.5159123857	-1.8570549354	 0.8017890391	-0.16941
C	 0.4592322641	-0.792146909	 1.2182212821	-0.180962
C	-1.3208105547	-0.8394653827	 0.0564404625	 0.201669
C	-2.7072267308	-0.5900297029	 0.1819318453	 0.11985
N	-3.8321206178	-0.3260289545	 0.2609936359	-0.35601
H	-0.0535577006	 1.8316287888	-0.7276537542	 0.297876
H	 0.1427812903	-0.3382795596	-2.1351183867	 0.115655
H	 1.5479838631	-1.0191683449	-1.2494374722	 0.115164
H	-0.8399652817	-2.7216437174	-1.1995483058	 0.129063
H	 1.5053787804	-1.1123767756	 1.2613119015	 0.111595
H	 0.1402605465	-0.3867543949	 2.1800188384	 0.135603
122.4645	141.4465	299.1211	330.9756	366.3411	420.2129	449.6744	542.0917	558.3465	599.8049	643.7065	717.5519	762.3246	863.8169	898.0912	915.2884	945.3179	987.0067	1041.7347	1069.9876	1081.8824	1110.3483	1142.5434	1152.6114	1237.1428	1246.3199	1280.3402	1326.9131	1394.8987	1409.913	1488.8198	1516.7929	2341.3314	3047.9828	3054.7709	3107.1577	3131.0265	3218.7598	3803.8644
OC12CC3N(C1)C23C#N	O[C@@]12C[C@H]3N(C1)[C@@]23C#N	
InChI=1S/C6H6N2O/c7-2-6-4-1-5(6,9)3-8(4)6/h4,9H,1,3H2	InChI=1S/C6H6N2O/c7-2-6-4-1-5(6,9)3-8(4)6/h4,9H,1,3H2/t4-,5+,6-,8?/m1/s1
