17
gdb 85718	2.06884	1.57076	1.00414	4.4415	80.03	-0.2405	0.0097	0.2503	1191.9391	0.134462	-380.819801	-380.810732	-380.809787	-380.853829	32.878	
C	 0.0212161491	 1.5439466071	 0.0784907719	-0.333258
N	-0.0223687094	 0.0991655656	 0.0924591085	-0.045085
C	-1.2793417356	-0.5837496721	 0.4282500816	-0.17862
C	-0.4563267613	-1.6822242565	 1.1652841808	-0.213877
C	-0.2063388381	-2.8817315306	 0.3860597411	 0.307705
N	-0.0301396399	-3.848345017	-0.2225239134	-0.324944
C	 0.70317213	-0.6158696959	 1.1623343127	-0.18218
C	 2.068359965	-1.0135689665	 0.8827387505	 0.353434
C	 3.2017140858	-1.3466599679	 0.6642726208	-0.413558
H	 1.0485375152	 1.875247015	-0.1006709809	 0.139093
H	-0.6025949515	 1.9225287316	-0.7371606152	 0.131969
H	-0.3319562243	 1.9971694192	 1.0241682579	 0.094825
H	-1.91288356	-0.0296275563	 1.1402321029	 0.096548
H	-1.8809618277	-0.8966731911	-0.4284652321	 0.133697
H	-0.8126033662	-1.9595680264	 2.1577575087	 0.133525
H	 0.6652929849	-0.0738261665	 2.1244270345	 0.094076
H	 4.198114524	-1.6514497617	 0.4572676098	 0.206648
72.4892	99.7706	142.168	194.105	228.0164	249.9906	312.7474	332.453	438.255	486.6678	533.059	608.795	639.2226	676.4773	754.9125	778.9787	841.8203	927.1395	980.8858	1023.9236	1078.6327	1091.6088	1134.2729	1152.0937	1182.3165	1229.6667	1238.5376	1270.7432	1322.1027	1347.496	1374.5126	1450.1807	1486.6834	1495.7668	1517.8494	2242.1909	2361.0894	2928.8253	2934.4661	2970.4842	3068.9132	3093.8931	3112.4043	3113.6045	3501.7383
CN1CC(C#N)C1C#C	CN1C[C@@H](C#N)[C@H]1C#C	
InChI=1S/C7H8N2/c1-3-7-6(4-8)5-9(7)2/h1,6-7H,5H2,2H3	InChI=1S/C7H8N2/c1-3-7-6(4-8)5-9(7)2/h1,6-7H,5H2,2H3/t6-,7-/m1/s1
