15
gdb 6658	6.37294	0.90735	0.85019	7.1401	62.58	-0.247	0.0125	0.2595	1286.11	0.118531	-396.01216	-396.003205	-396.002261	-396.046898	30.463	
N	-0.1773285335	 1.1645725267	-0.2982404737	-0.516582
C	-0.1109891518	-0.18221564	-0.1170782052	 0.394616
O	 0.7251643086	-0.8860175022	-0.6517710225	-0.357499
C	-1.1693088934	-0.7705295099	 0.8369914972	-0.278652
N	-1.2126043127	-2.2195144494	 0.8489600389	-0.272656
C	-1.7500120703	-2.7850943262	-0.3906020019	-0.273153
C	-1.8414488445	-4.2450449399	-0.2977804711	 0.262951
N	-1.9021979226	-5.3969440918	-0.2409351354	-0.300944
H	 0.5383380193	 1.6135087489	-0.8467914601	 0.268047
H	-0.8334495065	 1.7413957489	 0.1991344042	 0.26422
H	-0.9417690689	-0.4162026509	 1.8508221547	 0.136896
H	-2.1621556879	-0.3763945042	 0.5866660778	 0.122961
H	-0.2634650003	-2.5635448731	 0.9657865515	 0.243122
H	-2.7629239475	-2.3918831634	-0.5434789382	 0.148369
H	-1.1605132681	-2.5339578636	-1.285576496	 0.158303
46.2986	52.7217	112.2367	176.8873	198.4884	250.0908	327.824	393.2828	448.6479	487.262	553.2521	642.0713	648.689	760.6148	828.5433	921.6626	984.7779	997.4112	1081.9666	1109.4589	1170.6465	1230.7298	1294.7018	1301.3035	1376.6412	1395.0704	1462.7254	1487.7839	1522.6407	1620.4796	1795.0178	2368.8629	2995.6766	3023.0545	3051.8277	3064.4554	3517.1917	3597.3572	3730.8838
NC(=O)CNCC#N	NC(=O)CNCC#N	
InChI=1S/C4H7N3O/c5-1-2-7-3-4(6)8/h7H,2-3H2,(H2,6,8)	InChI=1S/C4H7N3O/c5-1-2-7-3-4(6)8/h7H,2-3H2,(H2,6,8)
