22
gdb 115918	3.5959	1.13178	0.96062	0.5352	82.19	-0.2176	0.0876	0.3051	1308.6309	0.195681	-404.326395	-404.317755	-404.316811	-404.359764	33.456	
C	 0.034073039	 1.5432435633	-0.0801983247	-0.388736
C	 0.0459146676	 0.0147882458	 0.0015345884	-0.190477
C	 0.7222145336	-0.5181092001	 1.2599859193	 0.135737
C	 0.5936500916	-2.0413083989	 1.3955412188	-0.174046
N	 1.5313082307	-2.657617948	 2.3518053853	-0.105151
C	 2.8976808527	-2.8892896553	 1.8763923084	-0.240523
C	 2.6268294258	-1.8302070438	 2.8788655584	-0.01063
C	 2.7180370931	-0.3735064453	 2.4671608967	-0.116739
O	 2.0984907643	-0.1449334516	 1.217905247	-0.254395
H	 1.0525210698	 1.9366777749	-0.030424022	 0.13395
H	-0.4209429382	 1.8845945372	-1.0147482766	 0.110721
H	-0.5362963383	 1.979517155	 0.747463324	 0.110699
H	-0.9787379003	-0.3761663488	-0.0293512993	 0.098364
H	 0.5691864558	-0.4033542277	-0.8671769094	 0.10523
H	 0.2656043532	-0.0416435355	 2.1463226663	 0.062853
H	-0.42597639	-2.2822743961	 1.7207621927	 0.103435
H	 0.7356366354	-2.5082944837	 0.4133806843	 0.101747
H	 3.34355761	-3.8354681496	 2.1729737613	 0.108773
H	 3.1433347967	-2.5566595111	 0.8697095028	 0.116625
H	 2.8601283342	-2.0163717565	 3.9266312549	 0.088253
H	 2.2502855342	 0.2594003973	 3.2406996634	 0.092185
H	 3.7635614293	-0.0621291915	 2.3678040903	 0.112125
72.7747	109.9943	181.944	217.0001	266.439	338.5008	343.3562	403.7328	465.4591	478.9524	542.3506	704.3482	757.2762	776.5148	795.0417	851.0674	925.5085	949.161	967.8256	990.7456	1003.0852	1056.9317	1068.4019	1100.3683	1117.8233	1130.6628	1146.7628	1155.2882	1161.6143	1181.527	1260.4614	1277.4487	1307.5275	1314.3665	1319.662	1367.3856	1380.5464	1400.9703	1406.1564	1407.1831	1430.3963	1474.3913	1492.2989	1496.6159	1499.0112	1508.709	1510.3852	2937.5631	2960.2638	3016.7378	3028.7896	3037.2278	3055.5704	3064.7651	3066.7201	3094.3257	3102.5353	3109.9123	3124.5497	3180.896
CCC1CN2CC2CO1	CC[C@H]1CN2C[C@H]2CO1	
InChI=1S/C7H13NO/c1-2-7-4-8-3-6(8)5-9-7/h6-7H,2-5H2,1H3	InChI=1S/C7H13NO/c1-2-7-4-8-3-6(8)5-9-7/h6-7H,2-5H2,1H3/t6-,7-,8?/m0/s1
