12
gdb 8968	5.93583	0.91189	0.79815	1.0726	60.57	-0.3186	-0.1068	0.2117	1277.8943	0.082309	-377.555034	-377.546907	-377.545963	-377.588779	26.813	
O	-0.0828272872	-0.0835258453	 0.0019113793	-0.25844
C	-0.0229731524	 1.1194505869	 0.0059747779	 0.289004
C	 1.2606967234	 1.9182008384	-0.0016491894	-0.30734
C	 2.494781139	 1.0026085409	-0.0163911754	-0.350272
C	 3.7356521483	 1.7720799804	-0.0234669695	 0.257304
N	 4.7084344927	 2.3948796974	-0.0287011165	-0.290089
C	-1.2550399425	 1.9341038493	 0.0193680841	 0.240566
N	-2.2092896396	 2.586717764	 0.0296340452	-0.282084
H	 1.2470818187	 2.5873199023	-0.8711995187	 0.173718
H	 1.2621540702	 2.5793697074	 0.8740947579	 0.173749
H	 2.4833455902	 0.3422874716	 0.8563222203	 0.176958
H	 2.4684945993	 0.3504086167	-0.8948593352	 0.176926
61.306	82.8879	96.0627	194.2671	247.3733	275.3342	390.4891	450.6157	526.9058	573.4682	619.6298	785.0838	821.2105	962.6989	1027.7804	1031.6153	1098.8407	1182.7784	1301.7897	1302.0884	1392.4137	1443.5818	1464.0341	1799.962	2340.6697	2368.9868	3041.0608	3066.8265	3072.7806	3106.7833
O=C(CCC#N)C#N	O=C(CCC#N)C#N	
InChI=1S/C5H4N2O/c6-3-1-2-5(8)4-7/h1-2H2	InChI=1S/C5H4N2O/c6-3-1-2-5(8)4-7/h1-2H2
