19
gdb 64304	2.37575	1.54811	1.18321	2.8121	79.96	-0.2452	-0.0647	0.1805	1111.1823	0.157007	-423.054677	-423.04547	-423.044525	-423.088581	33.981	
C	 0.1267839094	 1.4940417348	-0.1929314781	-0.417592
C	-0.0739379979	-0.0100949269	 0.0240556409	 0.276451
C	-1.5628814695	-0.3637721177	 0.1125426305	-0.417593
O	 0.5057046905	-0.721690005	-1.0986665753	-0.309333
C	 1.5400074318	-1.5950178765	-0.6788339214	-0.128716
C	 1.6235440911	-1.4264548191	 0.8051494218	-0.200104
C	 0.7162554552	-0.5335733582	 1.2120270876	 0.215549
C	 0.5206528646	-0.1262137494	 2.6055764036	 0.07037
O	-0.3005300679	 0.6819810849	 2.9821905373	-0.270145
H	 1.1907510742	 1.730611099	-0.2827734435	 0.110881
H	-0.3738573322	 1.803835182	-1.1147777345	 0.121544
H	-0.290343425	 2.0566731768	 0.6458896927	 0.141148
H	-2.0695289659	-0.0602062279	-0.8080915642	 0.121533
H	-1.6947733494	-1.4420986223	 0.2385907018	 0.110869
H	-2.0244019874	 0.1496952416	 0.9596116436	 0.141164
H	 1.3083219984	-2.6355124514	-0.9606414689	 0.116276
H	 2.4906097355	-1.3379168284	-1.1747432045	 0.116311
H	 2.3251122826	-1.961297373	 1.4354120224	 0.122875
H	 1.2020892018	-0.6275674633	 3.3279789481	 0.078511
63.9304	117.7001	176.9673	213.7671	225.7261	259.1267	289.4812	326.4444	387.0922	389.4631	479.9073	591.4087	663.7366	702.0548	786.9943	827.5226	847.8554	931.2799	951.232	970.8201	1011.7825	1034.0999	1044.1519	1092.2525	1161.1661	1183.2396	1206.54	1215.3359	1247.0768	1353.0171	1377.1178	1390.1379	1409.1779	1421.643	1478.5181	1483.4093	1496.4223	1507.2301	1511.112	1687.4285	1778.9291	2885.5855	2966.1891	2978.6825	3042.2324	3046.3621	3115.6948	3119.068	3131.1392	3136.4614	3204.5174
CC1(C)OCC=C1C=O	CC1(C)OCC=C1C=O	
InChI=1S/C7H10O2/c1-7(2)6(5-8)3-4-9-7/h3,5H,4H2,1-2H3	InChI=1S/C7H10O2/c1-7(2)6(5-8)3-4-9-7/h3,5H,4H2,1-2H3
