19
gdb 98311	2.57105	1.1035	0.8113	1.9806	72.38	-0.272	-0.0394	0.2326	1395.5205	0.156852	-460.157643	-460.147917	-460.146973	-460.193152	35.174	
O	 0.202614435	 1.2291455975	 0.1010075263	-0.419995
C	 0.0141279472	-0.1387677512	-0.1128738457	-0.126384
C	-1.4414475843	-0.5348932745	 0.0483374592	 0.325457
O	-2.2731280326	 0.3227790783	 0.2780219798	-0.345914
C	-1.8688476147	-1.9989497411	-0.0591609928	 0.028427
O	-3.2549816762	-2.1035414858	 0.1325805165	-0.43696
C	-1.4545677257	-2.6100808732	-1.3857750856	 0.006873
C	-0.1136881076	-3.2906854047	-1.5353744213	-0.271933
C	-1.3791006994	-4.1081202785	-1.5072268097	-0.270584
H	-0.6812643734	 1.5924703433	 0.2630890591	 0.296651
H	 0.3395296524	-0.4377691013	-1.1217783065	 0.131832
H	 0.615536391	-0.7369143025	 0.5904337459	 0.120373
H	-1.3332675741	-2.5391465207	 0.7436331198	 0.088439
H	-3.5655083234	-1.2041605815	 0.31999877	 0.29479
H	-1.8349312331	-2.0740637999	-2.2511380868	 0.095837
H	 0.4135376307	-3.1785824765	-2.4758509282	 0.120672
H	 0.5376004431	-3.3384368092	-0.6684745199	 0.11595
H	-1.5863664068	-4.6954153785	-0.6192884034	 0.125448
H	-1.7236202083	-4.55963887	-2.4301445367	 0.121022
45.9891	77.5456	94.4809	144.2824	232.6422	263.1599	308.7686	368.0179	370.419	397.815	412.2958	525.1754	542.6115	722.6617	772.6265	827.3069	839.8054	896.5114	939.1424	966.0364	998.8399	1055.4947	1058.5014	1081.6022	1132.0576	1140.2803	1162.013	1171.7093	1196.1034	1224.5583	1247.7473	1278.2409	1311.9974	1321.459	1400.052	1437.7161	1450.7341	1470.9433	1485.705	1505.2729	1775.564	2934.543	2986.0123	3003.101	3132.3535	3141.1345	3146.4292	3212.5061	3229.7377	3699.2232	3711.2449
OCC(=O)C(O)C1CC1	OCC(=O)[C@@H](O)C1CC1	
InChI=1S/C6H10O3/c7-3-5(8)6(9)4-1-2-4/h4,6-7,9H,1-3H2	InChI=1S/C6H10O3/c7-3-5(8)6(9)4-1-2-4/h4,6-7,9H,1-3H2/t6-/m0/s1
