21
gdb 50563	2.98697	1.31089	1.14718	2.9025	81.6	-0.2421	-0.0197	0.2224	1149.2681	0.184991	-387.0988	-387.090883	-387.089939	-387.131745	31.079	
O	 0.2193791268	-0.1718233001	 0.3680330591	-0.259501
C	 0.0788611688	 0.9641320382	-0.0072111186	 0.156763
C	 1.1958745225	 1.9864286718	-0.0813413823	-0.058637
C	 1.0645979058	 2.9195321682	-1.3192164795	-0.24825
C	 0.4616990915	 4.3151623923	-1.0096472244	-0.204109
C	 0.6985321112	 4.7208621126	 0.4531142687	 0.006389
C	 2.0388154069	 4.1310914679	 0.9841971224	-0.243096
C	 1.2460742715	 2.8135716114	 1.2264295773	-0.019546
C	-0.0195535026	 3.7073861425	 1.3823568166	-0.226721
H	-0.9234979343	 1.3342245793	-0.3293981148	 0.070127
H	 2.1242774184	 1.4090637039	-0.1518328464	 0.09285
H	 2.0687608453	 3.0562141845	-1.7293739824	 0.114831
H	 0.4913368575	 2.4249619069	-2.1116019558	 0.10163
H	 0.9050829675	 5.0516980058	-1.6891312307	 0.096878
H	-0.6174568238	 4.3266690658	-1.2057405849	 0.099001
H	 0.5044690329	 5.7845778575	 0.6100794368	 0.061132
H	 2.905886328	 4.1058888419	 0.3178812517	 0.092506
H	 2.3315241862	 4.5925817103	 1.9310362857	 0.10071
H	 1.5316508343	 2.1780555142	 2.0670686798	 0.077528
H	-0.1080086011	 4.0817611519	 2.4057122231	 0.099136
H	-0.9912198135	 3.3193800732	 1.0633247986	 0.090379
53.0517	98.8707	223.2812	291.2906	341.488	379.283	414.6995	449.9647	516.0914	636.8595	765.6928	808.0401	821.1468	830.2427	889.2359	907.5308	925.2693	940.2309	958.1624	979.944	1021.2281	1051.3086	1083.5613	1100.7983	1110.6662	1125.5936	1141.9155	1158.7385	1221.3692	1243.383	1258.6171	1276.4461	1285.1028	1303.1287	1312.506	1340.0484	1346.6347	1374.078	1381.2856	1429.3714	1481.0619	1494.4441	1499.4535	1520.4036	1828.3506	2845.8601	3024.4763	3040.9544	3048.6247	3050.7775	3052.2571	3058.2478	3075.777	3085.0356	3088.9253	3103.9739	3107.0989
O=CC1CCC2CC1C2	O=C[C@H]1CC[C@@H]2C[C@H]1C2	
InChI=1S/C8H12O/c9-5-7-2-1-6-3-8(7)4-6/h5-8H,1-4H2	InChI=1S/C8H12O/c9-5-7-2-1-6-3-8(7)4-6/h5-8H,1-4H2/t6-,7-,8+/m1/s1
