17
gdb 105916	2.45698	1.74368	1.23886	3.9183	67.61	-0.2342	0.0541	0.2883	1012.6221	0.134907	-458.852531	-458.844572	-458.843627	-458.884965	30.644	
O	 0.5621343497	 0.083721988	-0.9734226614	-0.425326
C	-0.1099604883	 0.1507631818	 0.2758583303	-0.199567
C	-1.4980743653	-0.4068156089	 0.1664904185	 0.27784
C	-2.6377380565	 0.1071236346	-0.7211995176	 0.031791
O	-2.2893869129	 0.0727639526	-2.0944769208	-0.440883
C	-3.2707212145	-1.1476538084	-0.0880008435	-0.152201
C	-1.904513691	-1.9020744117	-0.0911637649	 0.058456
O	-1.9522568606	-2.2486021508	 1.325820428	-0.327258
C	-2.5053783987	-0.9035935309	 1.2542239604	 0.013139
H	-0.0714507708	 0.3383826618	-1.6554232193	 0.296031
H	 0.4758134032	-0.4389480134	 0.9897061843	 0.120584
H	-0.1517539843	 1.1855881411	 0.6561626541	 0.08487
H	-3.0807248982	 1.0728000447	-0.4430669007	 0.073226
H	-3.0459618741	 0.3461058107	-2.6221852044	 0.291973
H	-4.2634187178	-1.5815317636	-0.2039075651	 0.086654
H	-1.497042896	-2.6219844675	-0.7965584561	 0.111646
H	-2.8384232538	-0.4194801501	 2.1714147785	 0.099023
100.8834	142.5946	204.328	252.2852	270.4406	338.6271	397.5405	417.3247	559.3188	600.526	686.9948	757.6931	805.9947	831.9469	842.2758	895.9625	925.025	933.7689	954.6926	1033.6386	1058.929	1072.2668	1103.7411	1106.9014	1138.303	1143.035	1169.6148	1195.5178	1224.0295	1264.0218	1281.5122	1327.2789	1344.4692	1374.107	1436.8523	1458.8473	1506.5389	2959.4946	3015.5394	3065.7292	3122.0993	3132.5513	3157.3355	3782.3783	3824.2739
OCC12C(O)C3C1OC23	OC[C@@]12[C@@H](O)[C@H]3[C@@H]1O[C@@H]23	
InChI=1S/C6H8O3/c7-1-6-3(8)2-4(6)9-5(2)6/h2-5,7-8H,1H2	InChI=1S/C6H8O3/c7-1-6-3(8)2-4(6)9-5(2)6/h2-5,7-8H,1H2/t2-,3-,4-,5+,6+/m0/s1
