23
gdb 60424	4.25774	0.60222	0.55132	1.9737	83.9	-0.2645	0.0203	0.2847	2081.8696	0.202449	-425.479961	-425.468449	-425.467505	-425.518729	39.667	
C	-0.079302529	 1.5255001416	 0.1806075076	-0.38496
C	-0.0308527637	 0.0066909512	-0.0444744064	 0.037847
C	-1.4496571967	-0.5680318587	-0.1531302171	-0.38921
C	 0.795003002	-0.3807987614	-1.2846509246	-0.190759
C	 2.2680152458	-0.0144425102	-1.1854635846	-0.070594
O	 2.9214721405	-0.5354939014	-2.3600024606	-0.241034
C	 4.2394265435	-0.2682597571	-2.4668502282	 0.425428
C	 4.8034652822	-0.866167052	-3.7342180417	-0.477826
O	 4.8625426252	 0.3624822565	-1.6504079552	-0.350814
H	 0.9135512238	 1.9529046129	 0.3489211457	 0.119252
H	-0.5196484388	 2.0336368996	-0.6859451828	 0.113127
H	-0.6932491169	 1.7692657261	 1.0537277922	 0.113218
H	 0.4495048839	-0.4500218491	 0.8332817843	 0.07508
H	-1.9768315574	-0.1473697527	-1.0177999812	 0.113324
H	-1.4327408363	-1.6564817771	-0.2712379389	 0.111094
H	-2.039300379	-0.3352157861	 0.7394822147	 0.111256
H	 0.7236242033	-1.463488835	-1.4435790882	 0.102034
H	 0.365903306	 0.0934923549	-2.1770529013	 0.101049
H	 2.4332370067	 1.0655556566	-1.1423787697	 0.122554
H	 2.7344255738	-0.4518621902	-0.2953914517	 0.116686
H	 4.2732848653	-0.4705087538	-4.6050803208	 0.148085
H	 5.8646605389	-0.6310629779	-3.805194548	 0.146879
H	 4.6608271471	-1.9505791768	-3.7328869635	 0.148282
30.1837	47.7759	57.1057	96.8739	111.6091	184.4079	222.3081	238.1905	247.3587	267.6941	385.0846	395.778	452.3306	480.7856	607.9988	648.0075	783.1026	824.3756	914.7761	929.0888	954.614	966.3263	979.7355	996.0819	1058.9123	1064.5906	1078.8234	1155.1941	1188.9553	1194.9818	1251.1788	1270.9821	1303.5407	1310.3757	1364.5633	1374.7925	1391.2295	1402.3062	1419.5145	1426.623	1469.7568	1476.3375	1483.3485	1489.9961	1497.7109	1505.8302	1510.8014	1518.9523	1822.9823	2995.2861	3021.0193	3024.1828	3030.0054	3044.4983	3056.4614	3060.2514	3088.9847	3094.6877	3097.5593	3101.0364	3107.6123	3121.0261	3168.2526
CC(C)CCOC(C)=O	CC(C)CCOC(=O)C	
InChI=1S/C7H14O2/c1-6(2)4-5-9-7(3)8/h6H,4-5H2,1-3H3	InChI=1S/C7H14O2/c1-6(2)4-5-9-7(3)8/h6H,4-5H2,1-3H3
