20
gdb 105642	1.99979	1.37641	1.23103	3.7481	80.29	-0.2398	0.0287	0.2685	1185.3466	0.171498	-399.312756	-399.303052	-399.302108	-399.347061	35.937	
C	 0.0948457105	 1.4774150577	-0.1110526533	-0.339519
N	 0.0116463388	 0.0183627465	-0.0143980499	-0.327645
C	-1.3412569399	-0.5255936746	 0.0204985958	 0.117902
C	-2.0915134925	-0.595098159	-1.3587452726	-0.265744
C	-1.5627139849	-2.042614966	-1.5412144065	-0.242591
C	-1.3203118296	-2.1243005669	-0.0142068921	 0.018422
N	-0.2043043548	-2.8804699482	 0.4774274869	-0.508892
C	-2.0896618218	 0.0554105653	 1.1310522533	 0.265359
N	-2.7219351162	 0.4702633167	 2.0064142567	-0.355233
H	 1.1468107558	 1.7631934742	-0.1930164211	 0.125225
H	-0.4483389966	 1.9074502788	-0.9680901904	 0.10659
H	-0.3067658618	 1.9256334289	 0.8017318247	 0.156158
H	 0.4956875702	-0.3887238718	-0.8087016004	 0.221686
H	-3.1765098497	-0.5597212457	-1.2397051734	 0.124745
H	-1.792215468	 0.1553046927	-2.0934847043	 0.111486
H	-2.237857317	-2.7823754038	-1.9742052573	 0.113482
H	-0.621518041	-2.074328115	-2.0996530205	 0.102591
H	-2.2286311902	-2.4792045818	 0.4793303371	 0.10627
H	 0.6709921557	-2.4094957411	 0.267569048	 0.229104
H	-0.244498487	-2.9594469768	 1.4888501792	 0.240603
96.7467	113.1471	149.4771	167.148	191.8579	227.9734	238.7937	318.7828	359.4978	419.64	506.6638	541.2151	583.856	605.1523	695.8687	789.4102	794.5205	858.7346	909.4085	928.0405	950.311	984.512	1029.786	1058.6564	1089.4305	1160.894	1166.3818	1184.5165	1208.875	1215.8574	1244.2046	1259.0721	1295.4056	1320.903	1433.1365	1458.7878	1474.7265	1486.2805	1492.9631	1503.7176	1519.7766	1676.7104	2345.2452	2974.9768	3056.8304	3071.8078	3081.719	3082.1342	3117.5311	3123.4631	3131.5454	3498.4937	3512.4749	3571.9648
CNC1(CCC1N)C#N	CN[C@]1(CC[C@H]1N)C#N	
InChI=1S/C6H11N3/c1-9-6(4-7)3-2-5(6)8/h5,9H,2-3,8H2,1H3	InChI=1S/C6H11N3/c1-9-6(4-7)3-2-5(6)8/h5,9H,2-3,8H2,1H3/t5-,6-/m1/s1
