21
gdb 83508	2.14661	1.78547	1.39821	1.8258	82.67	-0.2344	0.0184	0.2528	1061.2463	0.184976	-387.109367	-387.101426	-387.100481	-387.141254	32.519	
C	-0.0545545	 1.4797243406	 0.0151355131	-0.514298
C	-0.0866175975	-0.0123817266	-0.0348044067	 0.330371
C	-0.0866113095	-0.825289077	-1.1034609033	-0.217412
C	 0.0182134924	-2.259682519	-0.6104420473	-0.084004
C	 1.459161206	-2.4389864619	-0.0364014392	-0.209058
C	 1.4533269372	-1.4962280644	 1.2110163712	-0.215864
C	 0.0080573422	-0.9057980461	 1.1986871441	-0.135476
C	-0.7901093176	-2.1473267656	 0.7128063673	 0.173485
O	-2.1792574851	-1.989618178	 0.5846790614	-0.456577
H	 0.8625521591	 1.8400647377	 0.4994593089	 0.128896
H	-0.1008627677	 1.9182935064	-0.9859034384	 0.123555
H	-0.8902682667	 1.8785367808	 0.603842744	 0.127345
H	-0.0501194655	-0.5222509411	-2.143717626	 0.087108
H	-0.2983918458	-3.0380169775	-1.3053975456	 0.060982
H	 1.6332225264	-3.4797244569	 0.2540861519	 0.097813
H	 2.2237313263	-2.168326669	-0.7677768264	 0.098885
H	 1.6301038923	-2.057650172	 2.1333458603	 0.09871
H	 2.2133241948	-0.7131510357	 1.1539510573	 0.098672
H	-0.3128497792	-0.459077473	 2.1411331701	 0.058461
H	-0.6481536549	-3.0142686929	 1.3660351687	 0.076816
H	-2.3155611171	-1.2539105189	-0.0260081253	 0.271587
144.3468	187.7227	235.8165	250.1065	306.3064	340.2509	413.1498	456.6502	514.5112	566.3699	614.6214	719.3547	796.577	802.8042	832.9183	865.6005	885.3853	905.1956	917.8511	947.0123	980.2643	988.116	1013.8753	1059.7648	1083.8488	1096.5108	1140.3651	1161.5491	1174.2869	1210.6282	1241.1886	1245.7309	1267.0052	1285.5393	1304.3537	1307.0959	1334.5031	1358.7768	1414.3979	1446.9169	1478.6946	1487.8159	1490.6029	1508.7623	1682.5573	3014.7136	3048.5167	3058.8431	3060.4003	3067.3294	3090.5676	3102.7631	3105.6997	3109.4362	3111.9804	3193.6855	3765.5027
CC1=CC2CCC1C2O	CC1=C[C@H]2CC[C@@H]1[C@H]2O	
InChI=1S/C8H12O/c1-5-4-6-2-3-7(5)8(6)9/h4,6-9H,2-3H2,1H3	InChI=1S/C8H12O/c1-5-4-6-2-3-7(5)8(6)9/h4,6-9H,2-3H2,1H3/t6-,7+,8+/m1/s1
