19
gdb 95179	2.15534	1.83774	1.30089	1.8934	75.35	-0.2372	-0.0194	0.2177	1043.1385	0.159938	-423.035109	-423.026984	-423.02604	-423.06772	31.454	
C	-0.2314041838	 1.5265556611	-0.0310321036	-0.404963
C	 0.0055029896	 0.0054057893	-0.0207644225	-0.088941
C	 0.7700015679	-0.4755686697	-1.2634478698	-0.101813
O	 2.1014096219	 0.0253198951	-1.260840829	-0.255845
C	 2.886369637	-0.4736109472	-0.2185568796	 0.088927
C	 3.200947357	 0.4824147412	 0.8808631985	-0.308859
C	 2.2190040768	-0.6679709683	 1.1290320048	-0.153905
C	 0.7442986698	-0.4466646645	 1.244685445	 0.381054
O	 0.1476414027	-0.6843418937	 2.2720583131	-0.334139
H	 0.7022307685	 2.075397267	-0.177527517	 0.133144
H	-0.9067342333	 1.7974371508	-0.8490452223	 0.119475
H	-0.6861424465	 1.8505468884	 0.9086986646	 0.135533
H	-0.9688572032	-0.4948667137	 0.0211500283	 0.099764
H	 0.7726330908	-1.5746420716	-1.3126057743	 0.098231
H	 0.3064409722	-0.0962224021	-2.1792472381	 0.112111
H	 3.6335529191	-1.1995149618	-0.5334539052	 0.101416
H	 4.154835775	 0.4113028811	 1.3907904487	 0.127415
H	 2.805156153	 1.4858505025	 0.7846798168	 0.137323
H	 2.5815261155	-1.4523823737	 1.7840570116	 0.114073
77.1223	180.1138	200.9501	221.955	262.1776	345.9026	425.3238	437.1036	452.7314	559.4599	643.0806	750.8822	776.5927	785.403	823.2658	879.4541	928.3922	932.2095	978.2484	1017.2572	1030.0838	1045.813	1079.912	1116.8849	1119.2156	1136.4455	1172.2993	1225.9987	1251.5631	1275.5278	1318.1063	1337.0749	1361.4478	1370.9013	1395.3175	1417.6605	1475.4402	1494.1547	1503.5552	1505.7013	1793.0082	2995.2576	3042.9516	3050.1647	3083.1763	3111.4713	3122.604	3130.5527	3147.4671	3176.6636	3240.7926
CC1COC2CC2C1=O	C[C@H]1CO[C@H]2C[C@H]2C1=O	
InChI=1S/C7H10O2/c1-4-3-9-6-2-5(6)7(4)8/h4-6H,2-3H2,1H3	InChI=1S/C7H10O2/c1-4-3-9-6-2-5(6)7(4)8/h4-6H,2-3H2,1H3/t4-,5+,6-/m0/s1
