15
gdb 65914	2.55022	1.38393	1.21749	1.541	61.97	-0.2547	-0.1001	0.1546	1057.5792	0.108679	-494.876416	-494.867206	-494.866262	-494.911258	31.365	
O	-0.0123574399	 1.4979179595	-0.2505993396	-0.472208
C	-0.0755455829	 0.102345337	-0.1188304483	 0.231849
C	 0.4544574429	-0.56043234	 1.1841597626	-0.133592
O	-0.7819656429	-1.2611205666	 1.3719114722	-0.266902
C	-1.4130527487	-0.5576517809	 0.2782107578	-0.125047
C	 0.574134744	-0.4542396575	-1.3782361319	 0.289652
O	 0.0609364652	-1.2465338849	-2.1287104106	-0.277256
C	 2.0205956199	-0.0149845782	-1.6541146292	 0.095626
O	 2.7597604524	 0.3904255203	-0.7974721588	-0.21756
H	-0.0484355533	 1.8974090492	 0.6249925651	 0.294133
H	 1.3155180643	-1.2316543917	 1.1060812262	 0.127203
H	 0.6541423989	 0.1805940124	 1.9741099629	 0.101586
H	-2.1616322142	 0.1680369633	 0.6205702284	 0.102538
H	-1.8507643492	-1.2377425127	-0.4576227909	 0.134683
H	 2.3352976834	-0.1937376192	-2.7035104859	 0.115295
63.9301	85.547	109.9949	138.6965	165.7869	215.6178	274.9546	355.6162	408.0278	475.2945	549.4909	614.1536	687.3891	792.3659	879.3677	942.1401	998.538	1004.3171	1036.1556	1057.9963	1097.5239	1144.0133	1158.4382	1199.9148	1238.6985	1293.7853	1362.2015	1371.4297	1399.5619	1498.8216	1524.3073	1815.1782	1822.0304	2927.6258	2983.3434	3024.8195	3075.3738	3100.319	3811.8214
OC1(COC1)C(=O)C=O	OC1(COC1)C(=O)C=O	
InChI=1S/C5H6O4/c6-1-4(7)5(8)2-9-3-5/h1,8H,2-3H2	InChI=1S/C5H6O4/c6-1-4(7)5(8)2-9-3-5/h1,8H,2-3H2
