21
gdb 92812	2.68429	1.74549	1.53163	0.7205	87.5	-0.2209	-0.0012	0.2197	993.0177	0.184639	-349.895134	-349.887695	-349.886751	-349.926434	31.25	
C	-0.1576418666	 1.6195909534	-0.0864912079	-0.384961
C	 0.0233387613	 0.0974948339	-0.0417233714	 0.001789
C	 0.6770782736	-0.4712164252	-1.358367232	-0.258124
C	 2.1209280195	-0.0519908203	-1.267836003	-0.13293
C	 2.7556973693	-0.4081152569	-0.148290795	 0.164081
C	 3.3305035557	 0.553620769	 0.8790833796	-0.282117
C	 2.2016353464	-0.0015724813	 1.800444301	-0.06989
C	 0.828500859	-0.4040795049	 1.1767350981	-0.012453
C	 2.0471900274	-1.2312366238	 0.9258749973	-0.166339
H	 0.801646385	 2.1310564339	-0.2106020039	 0.120086
H	-0.8100722295	 1.9176133612	-0.9148143227	 0.106073
H	-0.6072646714	 1.9842183026	 0.8428373937	 0.112089
H	-0.9753438026	-0.3508485286	 0.0512199698	 0.064136
H	 0.5512515997	-1.558665042	-1.3644182163	 0.108109
H	 0.1761622745	-0.0750801967	-2.2461750416	 0.092662
H	 2.4623375732	 0.8026652954	-1.8471529534	 0.087894
H	 4.2948414599	 0.2584801859	 1.3092024287	 0.103814
H	 3.3524587984	 1.6174885962	 0.6216532684	 0.094463
H	 2.2697420257	 0.0193195468	 2.8842324805	 0.084444
H	 0.1904738766	-0.7688279804	 1.9811333193	 0.08113
H	 2.1858849649	-2.2794342682	 1.1594524108	 0.086045
134.1727	221.1623	231.1746	330.2413	353.3582	405.3716	467.2542	513.4873	585.606	640.273	742.6395	758.6784	778.2853	796.9704	850.8332	885.5098	899.2759	934.2353	949.8894	966.2369	986.9391	1006.0338	1030.4524	1053.6523	1064.423	1072.6335	1114.3166	1117.8477	1131.4735	1177.4345	1210.3404	1233.7462	1246.2712	1256.2967	1314.2109	1326.0744	1354.0882	1364.1916	1391.893	1411.3945	1481.6767	1492.0855	1497.2324	1499.9394	1691.3155	3002.2574	3025.2302	3030.5327	3048.1	3078.6203	3092.7944	3096.756	3106.7538	3109.7009	3149.4426	3151.8137	3184.4513
CC1CC=C2CC3C1C23	C[C@H]1C[CH][C]2C[C@H]3[C@@H]1[C@@H]23	
InChI=1S/C9H12/c1-5-2-3-6-4-7-8(5)9(6)7/h3,5,7-9H,2,4H2,1H3	InChI=1S/C9H12/c1-5-2-3-6-4-7-8(5)9(6)7/h3,5,7-9H,2,4H2,1H3/t5-,7-,8+,9-/m0/s1
