16
gdb 52208	3.9629	0.77561	0.71315	2.3857	73.92	-0.2564	0.0088	0.2651	1543.478	0.122285	-437.848459	-437.839231	-437.838287	-437.884154	32.35	
O	-0.4122290994	 0.961352804	-0.8052762891	-0.320724
C	-0.0232062973	 1.4699990892	 0.2244568841	 0.155823
N	 1.2565970268	 1.429590868	 0.6849218454	-0.272509
C	 2.3383609017	 0.7855325544	-0.0402276802	-0.205429
C	 3.3682192922	 1.7956802313	-0.4848622215	 0.065786
O	 4.1791012491	 2.3616131776	 0.5473939119	-0.251315
C	 4.822432648	 1.5278831075	-0.4331569419	-0.14973
C	 5.3687862023	 0.2733253994	 0.0110621272	 0.337522
C	 5.8577976761	-0.7693849545	 0.3553421766	-0.427364
H	-0.6880151451	 2.0264306556	 0.9138340566	 0.079043
H	 1.4823701448	 1.9182364443	 1.5371731902	 0.259491
H	 2.8157680687	 0.0230282614	 0.5825820133	 0.128113
H	 1.8857875914	 0.2974922681	-0.9070726981	 0.156001
H	 3.0216672265	 2.5202597106	-1.2231043268	 0.111862
H	 5.4539953185	 2.0789278809	-1.12932803	 0.124078
H	 6.2858941956	-1.6912763578	 0.6644298824	 0.209352
35.2515	48.1363	103.0018	163.7681	224.2977	248.1744	303.9153	378.0129	474.0467	552.2816	558.4155	600.6822	635.7817	676.6932	742.98	811.8289	831.8889	947.0433	979.9615	1022.7654	1036.3968	1068.4236	1137.3176	1151.5262	1210.9263	1274.0154	1285.9835	1351.4759	1392.881	1429.2473	1461.0816	1475.021	1529.9347	1805.4117	2240.4548	2943.755	3061.3125	3103.8994	3118.1951	3126.031	3500.2181	3634.6585
O=CNCC1OC1C#C	O=CNC[C@H]1O[C@H]1C#C	
InChI=1S/C6H7NO2/c1-2-5-6(9-5)3-7-4-8/h1,4-6H,3H2,(H,7,8)	InChI=1S/C6H7NO2/c1-2-5-6(9-5)3-7-4-8/h1,4-6H,3H2,(H,7,8)/t5-,6+/m0/s1
