16
gdb 64974	3.87867	0.9727	0.83586	5.958	70.77	-0.2639	-0.0372	0.2267	1334.804	0.121704	-437.898142	-437.889006	-437.888061	-437.932846	32.927	
O	 0.2088244249	 1.3737442988	 0.2437847095	-0.453925
C	 0.03287539	-0.0049670104	 0.0781296996	 0.268737
C	-0.4545920428	-0.7692225684	 1.2967938861	-0.266287
C	-1.3662095931	-0.5908357728	 0.1235795721	-0.303562
C	 1.0462897261	-0.7107502559	-0.7719931514	 0.322297
O	 0.9777171967	-1.8914028193	-1.0124158234	-0.296908
C	 2.1917223076	 0.1752073651	-1.2931400028	-0.466432
C	 3.1930228499	-0.5688778698	-2.0450972348	 0.288091
N	 4.000425228	-1.1351930808	-2.6451379467	-0.296953
H	-0.2918670012	 1.8328151168	-0.4392892577	 0.292934
H	-0.0207836536	-1.747786745	 1.4628883986	 0.147892
H	-0.6272909869	-0.1597681305	 2.1756327025	 0.137207
H	-2.1748780568	 0.1261268263	 0.2133086428	 0.124822
H	-1.5503120447	-1.446214289	-0.5155676003	 0.149769
H	 1.7723271373	 0.9710786521	-1.9199080734	 0.164953
H	 2.6538086285	 0.6932284728	-0.4455288306	 0.187364
42.1621	70.3071	125.2446	235.7544	252.1182	299.7386	327.5926	373.9295	408.1074	420.2514	448.6451	574.236	590.8713	778.4328	788.7032	848.6908	855.0127	941.1215	957.0384	966.5871	1007.2753	1046.0986	1082.2826	1092.8709	1201.3205	1207.5224	1261.7526	1288.8371	1339.4606	1357.1746	1420.7318	1439.7885	1472.6483	1807.3463	2376.0367	3051.726	3085.8491	3139.9514	3149.4675	3235.9455	3252.5448	3800.7593
OC1(CC1)C(=O)CC#N	OC1(CC1)C(=O)CC#N	
InChI=1S/C6H7NO2/c7-4-1-5(8)6(9)2-3-6/h9H,1-3H2	InChI=1S/C6H7NO2/c7-4-1-5(8)6(9)2-3-6/h9H,1-3H2
