19
gdb 73633	2.21698	1.93915	1.45737	2.6399	74.66	-0.2447	0.0168	0.2615	981.8873	0.160931	-423.04055	-423.032884	-423.03194	-423.072697	30.632	
O	-0.0026984307	 1.4185581537	-0.1620533262	-0.481789
C	 0.0533988797	 0.010291749	 0.028591109	 0.371486
C	 0.6917808766	-0.7303114169	-1.1716307476	-0.291267
C	-0.2375654415	-1.9320076091	-1.3744922875	-0.088628
O	-1.5359303736	-1.4298646523	-1.0885770428	-0.260702
C	-1.4086550978	-0.5470251246	 0.0299097143	 0.045363
C	-1.5434889599	-1.2510554191	 1.3550023301	-0.090921
C	-0.437633571	-1.1653450113	 2.0911151546	-0.066232
C	 0.6501781596	-0.3684661153	 1.417657197	-0.324609
H	 0.9006468897	 1.7507167746	-0.1925406933	 0.276073
H	 0.6336737842	-0.0693790451	-2.0413649735	 0.112215
H	 1.7356558186	-1.0123040416	-1.0096070936	 0.092688
H	-0.2451677333	-2.3178103246	-2.3971246279	 0.110044
H	 0.0285582208	-2.7578167295	-0.6956173293	 0.092047
H	-2.1422503587	 0.2524253831	-0.1106987642	 0.096394
H	-2.4538088535	-1.7693907354	 1.6335550154	 0.099672
H	-0.3070769263	-1.5996387884	 3.0772766515	 0.097228
H	 1.58729345	-0.9343576064	 1.3423841092	 0.100226
H	 0.878185747	 0.5487385292	 1.9751750149	 0.110711
64.1445	181.8799	277.4881	283.1869	322.3517	398.383	422.1384	489.1538	575.3063	606.1588	643.2897	726.6858	771.2167	830.9998	885.0761	926.7321	948.2179	963.3931	972.3922	982.4455	1008.6714	1017.7906	1048.7642	1090.9054	1113.4669	1128.0121	1160.8102	1218.5636	1227.3568	1246.3718	1278.798	1298.7411	1311.8894	1340.5472	1364.6015	1389.6319	1393.5531	1471.954	1485.9922	1515.6397	1690.228	2978.9933	3018.274	3050.046	3055.5092	3068.0136	3093.2683	3109.9844	3176.9269	3208.3185	3808.4073
OC12CCOC1C=CC2	O[C@]12CCO[C@H]1C=CC2	
InChI=1S/C7H10O2/c8-7-3-1-2-6(7)9-5-4-7/h1-2,6,8H,3-5H2	InChI=1S/C7H10O2/c8-7-3-1-2-6(7)9-5-4-7/h1-2,6,8H,3-5H2/t6-,7+/m0/s1
