20
gdb 119121	2.44854	1.23991	0.94263	3.0043	76.31	-0.2367	0.0294	0.2661	1312.1559	0.16938	-440.306034	-440.29619	-440.295246	-440.341007	36.496	
C	-0.9035495624	 1.4804738489	-0.5169515057	-0.386576
C	-1.4215741179	 0.1264963229	-0.9691017496	-0.065016
O	-1.390561821	-0.7567429252	 0.155140552	-0.309511
C	-1.8305962207	-2.0579975474	-0.1108234822	 0.313385
C	-2.7702012342	-2.6638369949	 0.9075625046	-0.29454
C	-3.2806497013	-2.3062226171	-0.459112003	-0.310267
C	-0.8089398517	-3.0072028456	-0.6925331839	 0.343454
N	 0.4636781533	-2.514028231	-0.7062135412	-0.537305
O	-1.1087087653	-4.1153234939	-1.0992076278	-0.377487
H	-0.9295187886	 2.1913434504	-1.3481248556	 0.120637
H	-1.5174574009	 1.8751157846	 0.2975876664	 0.129492
H	 0.1282928039	 1.4062109703	-0.1604741539	 0.120467
H	-2.4499572526	 0.2101813328	-1.3460750854	 0.100062
H	-0.8041663152	-0.2778710815	-1.7834674881	 0.104284
H	-2.628433599	-3.7113617247	 1.1442092765	 0.135149
H	-3.039352077	-2.016963472	 1.7342790308	 0.124142
H	-3.9180328129	-1.433982384	-0.5445378721	 0.118026
H	-3.4729243499	-3.1106054627	-1.1583794209	 0.145442
H	 0.6697269243	-1.6919400456	-0.1629762761	 0.266252
H	 1.2065346192	-3.1567542344	-0.9278854146	 0.25991
58.9873	76.5743	134.2815	184.7834	230.8725	253.277	256.8282	342.6715	360.115	405.389	454.285	490.9291	578.1076	611.7295	703.1797	763.9592	783.6454	819.7069	855.6407	926.452	932.757	976.7726	1005.3863	1063.1698	1084.387	1088.8216	1097.4798	1144.6467	1186.8733	1203.7428	1231.55	1295.7747	1301.8186	1390.8072	1401.3398	1427.2547	1435.922	1474.0762	1483.3125	1499.1992	1527.3248	1594.0332	1790.046	3003.2024	3037.6326	3043.8077	3116.2071	3121.9183	3145.2059	3146.5093	3236.7544	3249.6701	3592.21	3728.1982
CCOC1(CC1)C(N)=O	CCOC1(CC1)C(=O)N	
InChI=1S/C6H11NO2/c1-2-9-6(3-4-6)5(7)8/h2-4H2,1H3,(H2,7,8)	InChI=1S/C6H11NO2/c1-2-9-6(3-4-6)5(7)8/h2-4H2,1H3,(H2,7,8)
