16
gdb 56608	2.63874	1.18189	0.89927	4.2415	65.08	-0.2846	0.0074	0.2921	1251.5408	0.123027	-474.996949	-474.988129	-474.987185	-475.030966	32.038	
O	 1.3979983787	 1.1019671703	-0.9966154199	-0.429015
C	 0.5241384098	 0.4519529198	-0.1072722316	-0.016804
C	-0.0696324395	-0.7140480948	-0.7757036965	 0.283298
N	-0.5488828906	-1.6578261013	-1.2381822836	-0.318225
C	 1.2934731566	 0.0121695174	 1.1729673762	 0.05588
O	 2.0330943563	 1.1255831419	 1.6338266747	-0.441749
C	 0.3557007863	-0.4985574346	 2.2519667886	 0.040018
C	 0.745876526	-0.4787283742	 3.6633192998	-0.184643
O	-0.1237161811	 0.5349616019	 3.1256864665	-0.249235
H	 1.9823506444	 1.6249609595	-0.4281156079	 0.300843
H	-0.3019380064	 1.1153569342	 0.2021438738	 0.122457
H	 2.0131148775	-0.7627125725	 0.8877865891	 0.126938
H	 1.4297337698	 1.6142617008	 2.2172208024	 0.301977
H	-0.4025062693	-1.2085734165	 1.9251340879	 0.134297
H	 0.2706253619	-1.1660181931	 4.3589589008	 0.136867
H	 1.7395066397	-0.1323740288	 3.9360572396	 0.137095
74.212	96.9676	123.7403	217.7794	243.749	295.4936	336.3228	385.8901	461.0732	471.9688	541.1155	594.9757	619.6952	675.3729	800.8726	892.9977	924.5907	944.5053	1005.9003	1035.339	1097.9691	1122.3081	1135.9363	1166.2252	1173.8834	1236.3383	1266.7947	1292.5241	1315.0217	1366.0666	1417.9845	1433.4211	1448.9556	1518.9872	2364.0509	2961.1345	3067.0313	3107.8178	3135.1888	3203.0304	3692.1777	3737.2431
OC(C#N)C(O)C1CO1	O[C@@H](C#N)[C@@H](O)[C@H]1CO1	
InChI=1S/C5H7NO3/c6-1-3(7)5(8)4-2-9-4/h3-5,7-8H,2H2	InChI=1S/C5H7NO3/c6-1-3(7)5(8)4-2-9-4/h3-5,7-8H,2H2/t3-,4+,5+/m0/s1
