16
gdb 9210	7.03765	0.84172	0.80277	2.8593	63.14	-0.2644	-0.0355	0.2289	1404.8554	0.126811	-420.921812	-420.912499	-420.911555	-420.958526	30.485	
C	-0.3825163892	 1.3815100256	 0.0846410737	-0.373511
C	 0.2672309693	 0.0041952316	-0.021848936	-0.303579
C	 0.8925568884	-0.4534901838	 1.2770020511	 0.451761
O	 0.9230548104	 0.1707355613	 2.3048688835	-0.339905
O	 1.4339028552	-1.6939116773	 1.1276045665	-0.24959
C	 2.071172568	-2.2708048834	 2.2683423207	-0.174254
C	 1.3512192313	-3.5473119272	 2.6629447098	 0.145992
O	 1.8543546124	-4.4130831096	 3.3262665894	-0.227502
H	 0.3499898832	 2.1389379477	 0.3741418883	 0.135741
H	-0.8191040378	 1.6710165109	-0.874881382	 0.116634
H	-1.1729663141	 1.3850715578	 0.8392712035	 0.134585
H	-0.4543084666	-0.7615544109	-0.3300946227	 0.136313
H	 1.0517126633	-0.0137991488	-0.7878779415	 0.138377
H	 3.1130386259	-2.4911214556	 2.0209163578	 0.146344
H	 2.0401827459	-1.5640049901	 3.1054725215	 0.172383
H	 0.3024722243	-3.6073411784	 2.2938179165	 0.090211
19.7147	35.5866	79.8631	89.3163	199.2295	211.1235	317.3321	341.6961	387.1466	562.2264	582.2551	649.1824	742.5518	807.8605	871.7375	996.6325	1044.5683	1051.8338	1107.3165	1108.7352	1119.0993	1186.2189	1263.8847	1277.5282	1340.6836	1382.3445	1410.7297	1417.4413	1455.6431	1456.7724	1493.9592	1500.4388	1829.9045	1844.6384	2886.1589	3043.5038	3051.4813	3054.2853	3072.8385	3112.3103	3126.7251	3130.8791
CCC(=O)OCC=O	CCC(=O)OCC=O	
InChI=1S/C5H8O3/c1-2-5(7)8-4-3-6/h3H,2,4H2,1H3	InChI=1S/C5H8O3/c1-2-5(7)8-4-3-6/h3H,2,4H2,1H3
