17
gdb 34747	2.9279	1.65818	1.46934	2.2696	73.94	-0.2563	0.0178	0.2741	940.6104	0.139388	-380.857241	-380.850375	-380.849431	-380.888562	27.138	
N	-0.1918211576	-1.2145045089	-0.2037685289	-0.340237
C	-0.1211983311	-0.0655337213	-0.0917931397	 0.276898
C	-0.0033700651	 1.3790886435	 0.0583120983	-0.159786
C	-0.1819426248	 2.0229013215	 1.4318826472	-0.061931
C	 1.0287281114	 1.9155734887	 2.2841741436	-0.014204
C	 2.0822861371	 0.8488446995	 2.0147002427	-0.257694
C	 2.5220181644	 1.1596480593	 0.5595687305	-0.219144
C	 1.4072742046	 2.0638573887	 0.0505560117	-0.012228
N	 0.9938984416	 2.9507207859	 1.221804463	-0.147375
H	-0.6573229965	 1.8655906702	-0.6698234793	 0.13569
H	-1.134380133	 2.3787982224	 1.8112064219	 0.107772
H	 0.930653625	 2.3196976779	 3.2867752747	 0.103013
H	 2.9126601199	 0.9425396277	 2.7188577967	 0.113801
H	 1.6771990005	-0.1612349983	 2.1164128063	 0.135825
H	 3.4678676669	 1.7093473348	 0.5464550617	 0.116326
H	 2.6414516695	 0.2623169279	-0.0529612902	 0.128902
H	 1.635758737	 2.6310425805	-0.8502417802	 0.094372
119.395	143.69	224.2972	352.6063	401.7662	533.5548	553.1606	641.1815	712.3809	759.1203	778.3548	802.492	823.7128	852.5665	916.6369	941.4123	971.9809	992.8708	1039.4912	1053.903	1068.3443	1081.1896	1108.5535	1153.6295	1183.0662	1194.8451	1233.4188	1269.1563	1290.6606	1313.0804	1325.2071	1349.9754	1357.7058	1415.6377	1480.2992	1505.8116	2348.5893	3058.8749	3068.8193	3082.4201	3101.3876	3117.1053	3130.2177	3159.9027	3171.8163
N#CC1C2C3CCC1N23	N#C[C@H]1[C@H]2[C@H]3CC[C@@H]1N23	
InChI=1S/C7H8N2/c8-3-4-5-1-2-6-7(4)9(5)6/h4-7H,1-2H2	InChI=1S/C7H8N2/c8-3-4-5-1-2-6-7(4)9(5)6/h4-7H,1-2H2/t4-,5+,6-,7+,9?/m1/s1
