25
gdb 101328	3.17936	0.78054	0.70982	1.3998	90.06	-0.2551	0.0749	0.33	1764.9711	0.227025	-389.487222	-389.47602	-389.475076	-389.524028	40.985	
C	 0.0782699738	 1.5623710477	 0.193588351	-0.38435
C	-0.0229790953	 0.0359261145	 0.2145521061	-0.179897
C	-1.4193747787	-0.4835432295	-0.1580657349	 0.124238
O	-1.8209785844	-0.0157084073	-1.4495104882	-0.43579
C	-1.4979311174	-1.9932680555	-0.0624225471	-0.040451
C	-1.9588176624	-2.6756318145	 1.206730499	-0.303835
C	-2.8115466013	-2.7383019535	-0.0380854741	 0.006281
C	-4.1585094239	-2.0459606529	-0.1114019603	-0.185087
C	-5.2968428922	-2.9286908411	 0.4130664137	-0.379011
H	 1.0981046648	 1.8965059217	 0.407180053	 0.106321
H	-0.2173595319	 1.9522883373	-0.7837824743	 0.127944
H	-0.5835617042	 2.0108138508	 0.943117029	 0.111576
H	 0.7062807212	-0.3974356656	-0.4858645974	 0.08136
H	 0.240179562	-0.3523837225	 1.2062246273	 0.099278
H	-2.149541865	-0.0348081123	 0.5257753413	 0.080167
H	-1.2740873621	-0.4665359713	-2.1025149214	 0.273617
H	-0.6896742667	-2.4941347456	-0.5953493106	 0.069785
H	-1.4369225426	-3.5647327051	 1.5433781137	 0.10717
H	-2.3054406845	-2.0357156326	 2.0137078669	 0.107851
H	-2.7938319229	-3.6944218123	-0.5583077805	 0.076049
H	-4.1320776993	-1.1124755817	 0.4615834076	 0.095579
H	-4.3603451547	-1.753656246	-1.1488487938	 0.105771
H	-6.2604230686	-2.4134882883	 0.34893023	 0.109343
H	-5.3768222193	-3.8563011237	-0.1649233924	 0.111028
H	-5.1310137844	-3.2062292006	 1.4595407264	 0.115061
49.2875	83.2414	92.2082	110.9492	184.9667	222.2483	233.0575	248.	271.9843	279.1833	347.4196	401.5262	448.1436	507.4977	589.0785	760.2939	774.5292	796.3722	837.6543	858.2554	900.3897	950.5322	965.8741	981.644	1019.8785	1047.3201	1059.1289	1068.1734	1098.4758	1112.0298	1119.5455	1144.7656	1173.6571	1198.0422	1240.0591	1261.138	1286.0215	1297.1741	1329.7056	1342.0011	1379.6225	1402.0812	1406.3339	1412.1315	1421.1079	1440.2454	1480.3121	1481.6898	1494.7097	1497.196	1499.0067	1508.291	1509.7882	3001.2181	3029.323	3033.0507	3035.6054	3041.7477	3055.8027	3065.1378	3096.927	3098.9451	3100.6803	3102.9927	3119.9257	3121.4662	3122.5576	3205.2082	3797.735
CCC(O)C1CC1CC	CC[C@@H](O)[C@H]1C[C@H]1CC	
InChI=1S/C8H16O/c1-3-6-5-7(6)8(9)4-2/h6-9H,3-5H2,1-2H3	InChI=1S/C8H16O/c1-3-6-5-7(6)8(9)4-2/h6-9H,3-5H2,1-2H3/t6-,7+,8-/m1/s1
