22
gdb 90092	2.68954	1.47507	1.29294	1.2834	88.52	-0.2008	0.0813	0.282	1128.8172	0.193808	-367.078012	-367.069521	-367.068577	-367.110465	34.318	
C	-0.0981064507	 1.6379583613	-0.1938913341	-0.412363
C	-0.0101915264	 0.1204069007	-0.0296891508	 0.052488
C	 0.928010189	-0.7061648746	-1.0067730679	-0.357911
C	 1.7993452193	-0.9318541484	 0.2426412531	 0.271622
C	 2.3585968504	-1.819182374	 1.3946776002	-0.293611
C	 1.9214601787	-0.407309125	 1.983584136	-0.04922
C	 2.6404703129	 0.2830668698	 0.8097792772	 0.043426
C	 4.1571073847	 0.3781785172	 0.699224985	-0.448707
N	 0.6514785104	-0.6241670657	 1.1470224741	-0.164811
H	 0.8435115238	 2.1172049122	-0.4690942536	 0.12293
H	-0.8230596183	 1.8710225671	-0.9828587892	 0.114756
H	-0.4610457187	 2.1006474045	 0.7299880658	 0.125602
H	-1.0370134899	-0.2554943022	-0.0368417565	 0.089433
H	 0.4370148102	-1.6030935781	-1.3900784939	 0.113341
H	 1.395209559	-0.1598584702	-1.8300489469	 0.100091
H	 1.7102264274	-2.6477154291	 1.6778735663	 0.108801
H	 3.4174712625	-2.0761263618	 1.4362555998	 0.093178
H	 1.8982599603	-0.124246087	 3.0402231551	 0.074456
H	 2.2064998936	 1.2525729864	 0.5750310935	 0.065245
H	 4.6746819033	-0.5609042885	 0.9067385763	 0.118275
H	 4.4454950523	 0.6975189956	-0.3087936412	 0.116239
H	 4.5435426062	 1.12908219	 1.3983820517	 0.116741
136.3245	160.1048	195.5954	207.8682	262.8345	322.1521	377.4954	417.4975	466.7754	531.1347	596.2733	677.9855	714.7183	752.2625	782.6787	825.6392	862.4217	869.1899	895.4642	943.1729	987.4299	1003.385	1023.9521	1053.6741	1072.1808	1096.3618	1102.246	1120.547	1130.0697	1161.3559	1181.7338	1185.3431	1206.946	1221.4101	1243.4491	1252.2177	1293.4631	1381.6886	1399.9092	1406.5928	1415.3543	1473.3708	1486.1238	1490.2645	1496.0355	1505.3353	1506.9888	3029.82	3030.4046	3052.9267	3060.9672	3064.8267	3083.5881	3086.8527	3090.7368	3115.4307	3121.0807	3124.8912	3151.0197	3164.4288
CC1CC23CC(C2C)N13	C[C@H]1C[C@@]23C[C@@H]([C@H]2C)N13	
InChI=1S/C8H13N/c1-5-3-8-4-7(6(8)2)9(5)8/h5-7H,3-4H2,1-2H3	InChI=1S/C8H13N/c1-5-3-8-4-7(6(8)2)9(5)8/h5-7H,3-4H2,1-2H3/t5-,6+,7-,8+/m0/s1
