17
gdb 13944	3.55275	1.77195	1.47555	2.4912	63.68	-0.236	0.0578	0.2938	889.0445	0.142577	-400.941503	-400.933965	-400.933021	-400.973614	28.12	
O	 0.1718887772	 1.3848458442	-0.1365559762	-0.428423
C	 0.1006901337	-0.0108309248	 0.0206736787	 0.088779
C	 0.185462867	-0.535412376	 1.4786583871	-0.21231
N	-1.2911472456	-0.6711761531	 1.4691627857	-0.364444
C	-1.3341325422	-0.6170996469	 0.0046134951	 0.24929
C	-2.486777134	 0.0390595666	-0.769331578	-0.134456
O	-2.5590896056	-1.0800754185	-1.6817231002	-0.272081
C	-1.6353722184	-1.8451105879	-0.88760151	-0.135158
H	-0.3988974941	 1.7872084082	 0.5284310252	 0.290244
H	 0.8044434037	-0.4344516588	-0.6979559225	 0.09541
H	 0.7409052863	-1.4792952155	 1.5614639319	 0.098519
H	 0.5752036346	 0.1710045145	 2.2200354504	 0.102126
H	-1.6825568591	-1.4989975167	 1.9057389257	 0.218453
H	-3.4061083809	 0.1562207073	-0.1795322291	 0.098156
H	-2.2493353505	 0.9796810618	-1.2789952068	 0.113791
H	-0.8086818783	-2.2524554418	-1.4838047208	 0.103426
H	-2.1323623437	-2.6703858426	-0.3543813761	 0.088678
83.2622	97.3807	199.437	293.7053	324.658	368.5017	427.1326	500.4686	541.6306	677.1439	832.1677	844.9113	875.715	936.675	942.8761	991.9967	993.5917	1029.224	1047.8809	1068.6869	1132.0345	1150.6113	1154.1171	1159.9067	1205.5278	1225.9979	1243.5113	1292.6499	1303.9509	1318.3691	1367.0251	1390.1786	1437.5553	1499.4707	1513.3608	1526.2356	2977.8578	3006.3402	3009.2094	3038.1938	3062.4236	3068.9027	3101.7954	3525.4565	3796.1319
OC1CNC11COC1	O[C@H]1CNC21COC2	
InChI=1S/C5H9NO2/c7-4-1-6-5(4)2-8-3-5/h4,6-7H,1-3H2	InChI=1S/C5H9NO2/c7-4-1-6-5(4)2-8-3-5/h4,6-7H,1-3H2/t4-/m0/s1
