17
gdb 28770	3.26857	1.68714	1.12842	3.6088	83.25	-0.1956	-0.0171	0.1785	1048.0979	0.138845	-380.928562	-380.921249	-380.920305	-380.960315	28.146	
C	-0.0209196431	 1.4630650934	 0.0814776969	-0.494082
C	-0.0104109549	-0.0239728874	 0.0001615737	 0.326509
N	-0.0315490086	-0.7413511129	-1.1125835254	-0.316084
C	-0.0113248947	-2.0643044859	-0.7311005061	-0.224592
C	 0.023335604	-2.1521526591	 0.6399242185	 0.315205
C	 0.0596247467	-3.0039433359	 1.8104261087	-0.211038
C	 0.0804114465	-2.2358460412	 2.9155642723	-0.10624
C	 0.0587071107	-0.7649598869	 2.5431278119	-0.244691
N	 0.0233084542	-0.8419535231	 1.0891447762	-0.065717
H	 0.8723967412	 1.8502027377	 0.5871415568	 0.128445
H	-0.0504765835	 1.8692933817	-0.9300951339	 0.15628
H	-0.8933268705	 1.8352302905	 0.6328080694	 0.128405
H	-0.0226761716	-2.8597269104	-1.4599402938	 0.106869
H	 0.0680509278	-4.0843645007	 1.7814656312	 0.117949
H	 0.1086293629	-2.5720739993	 3.9424691687	 0.111092
H	-0.8213237348	-0.2419383385	 2.9402109467	 0.135842
H	 0.9483470675	-0.226935382	 2.8963251284	 0.135848
116.4415	161.9468	196.0013	244.7745	305.9471	458.4011	509.2192	627.9578	659.2872	671.6017	680.5038	751.7363	801.151	819.6122	868.3668	944.4504	944.6395	993.3738	993.4321	1059.7928	1069.0356	1116.36	1168.8066	1183.7911	1211.3619	1278.0762	1309.3433	1350.8969	1367.8912	1406.6109	1438.2169	1479.9759	1485.9801	1498.0198	1536.2115	1589.1845	1624.8684	3015.1914	3020.8525	3042.3271	3066.1515	3149.2619	3227.4819	3248.5761	3252.9967
CC1=NC=C2C=CCN12	Cc1ncc2C=CCn12	
InChI=1S/C7H8N2/c1-6-8-5-7-3-2-4-9(6)7/h2-3,5H,4H2,1H3	InChI=1S/C7H8N2/c1-6-8-5-7-3-2-4-9(6)7/h2-3,5H,4H2,1H3
