18
gdb 49647	3.97696	1.3989	1.30181	1.793	75.34	-0.2364	-0.0296	0.2067	1004.9793	0.149863	-401.897814	-401.890992	-401.890047	-401.929321	27.255	
O	-0.7316530644	 0.7297467278	-0.5399648895	-0.246945
C	 0.1517775229	 0.8695651308	 0.2695575249	 0.122468
C	 1.2454579174	 1.8959255283	 0.2198350655	-0.0678
C	 1.3060379309	 3.0701978146	-0.7803886161	-0.027506
C	-0.0458871317	 3.7867688637	-0.5660573374	-0.235971
C	 0.280819773	 4.19345277	 0.8860404872	-0.060116
C	 1.5300492826	 5.058120379	 0.6339613701	-0.16447
N	 2.2350810739	 3.7900423718	 0.2386052266	-0.154929
C	 1.3294050587	 3.0569129935	 1.2300613578	-0.032769
H	 0.2203975073	 0.1932392799	 1.1545594114	 0.07823
H	 2.2095393649	 1.3734288614	 0.2671611307	 0.113677
H	 1.6946019816	 2.9485943887	-1.7892238441	 0.083134
H	-0.1873363023	 4.6553731564	-1.2145474311	 0.097835
H	-0.8937869544	 3.1142766746	-0.6859320051	 0.133802
H	-0.5337331116	 4.4850063411	 1.5495977376	 0.068289
H	 1.4787791544	 5.8462631516	-0.1239898883	 0.101526
H	 2.0089244605	 5.4433722612	 1.5387213839	 0.108073
H	 1.6737004264	 2.9427128455	 2.2583822658	 0.083472
75.2146	188.7431	203.6593	379.9572	438.5352	495.9713	645.1419	689.8859	723.0043	737.076	805.3724	842.8409	872.0583	907.1872	927.0649	939.5169	969.3624	982.7544	1007.1191	1018.0774	1036.4822	1065.6409	1090.6911	1113.5024	1151.6529	1156.1461	1189.1104	1195.0839	1243.905	1247.4654	1265.7742	1274.9827	1299.4751	1330.2218	1365.5704	1429.3645	1500.6069	1526.516	1819.9824	2850.6411	3040.5867	3045.6636	3073.6085	3103.6999	3107.09	3117.1578	3141.8411	3151.4484
O=CC1C2CC3CN2C13	O=C[C@H]1[C@H]2C[C@@H]3CN2[C@H]13	
InChI=1S/C7H9NO/c9-3-5-6-1-4-2-8(6)7(4)5/h3-7H,1-2H2	InChI=1S/C7H9NO/c9-3-5-6-1-4-2-8(6)7(4)5/h3-7H,1-2H2/t4-,5+,6-,7+/m1/s1
