21
gdb 76501	2.94644	1.2637	1.13023	1.4992	82.9	-0.2315	0.0686	0.3002	1190.3673	0.181993	-387.040559	-387.031696	-387.030751	-387.073716	34.534	
C	-0.1893761453	 1.5204100117	-0.0463461077	-0.404449
C	-0.0315305104	 0.0158373576	-0.0037289138	-0.109158
C	 1.3236363046	-0.6237687328	-0.1874020722	-0.012318
O	 2.4092653981	 0.2356733676	-0.3900888771	-0.414319
C	 0.6526558059	-0.6679949805	 1.1580667203	 0.333976
C	 1.2423433285	-0.0432909482	 2.4400154956	-0.311338
C	 0.8128022126	-1.307460666	 3.2023081328	-0.038982
C	-0.6665759957	-1.535169486	 3.0610470654	-0.275832
C	 0.2370537055	-1.9125265221	 1.9171838409	-0.137708
H	 0.7048588747	 2.0208694163	 0.3304694182	 0.131887
H	-0.3519620531	 1.8673732779	-1.0724784047	 0.116671
H	-1.0457170217	 1.842998764	 0.5557569289	 0.10967
H	-0.8562819823	-0.53966349	-0.4459352794	 0.080562
H	 1.3678289728	-1.55206468	-0.7600514967	 0.07834
H	 3.1700924179	-0.130656762	 0.0731927277	 0.287005
H	 2.3279977211	 0.0817186989	 2.3795194242	 0.088227
H	 0.8068265872	 0.8999491554	 2.7867674241	 0.098922
H	 1.3928353299	-1.7937816421	 3.9767995355	 0.084103
H	-1.0642340775	-2.3671545857	 3.6342835834	 0.107434
H	-1.3478826017	-0.6926342919	 2.9652024312	 0.106023
H	 0.3073203789	-2.928837652	 1.5461513333	 0.081284
113.2735	143.2927	168.9612	179.4772	239.6069	284.9018	304.1835	383.0504	430.1918	533.639	575.776	585.2261	747.8219	783.5569	807.074	833.7356	873.7158	918.0604	930.4804	960.0952	978.0064	1006.471	1040.8959	1058.7464	1064.3611	1084.2779	1093.2453	1114.0711	1145.1752	1152.4922	1171.4151	1201.5389	1207.6979	1247.6619	1286.6174	1296.2463	1312.4897	1355.1897	1373.3488	1413.7833	1471.661	1482.5915	1493.7758	1497.8612	1505.666	3033.9353	3037.6142	3076.755	3082.203	3090.0358	3105.2645	3119.3279	3135.7192	3169.3024	3184.144	3198.5806	3801.5832
CC1C(O)C11CC2CC12	C[C@H]1[C@@H](O)[C@]21C[C@H]1C[C@@H]21	
InChI=1S/C8H12O/c1-4-7(9)8(4)3-5-2-6(5)8/h4-7,9H,2-3H2,1H3	InChI=1S/C8H12O/c1-4-7(9)8(4)3-5-2-6(5)8/h4-7,9H,2-3H2,1H3/t4-,5+,6+,7+,8-/m0/s1
