18
gdb 68172	3.51286	1.42969	1.21884	2.9866	73.23	-0.2565	0.0309	0.2873	1035.6863	0.149259	-439.089706	-439.082078	-439.081134	-439.121527	30.44	
O	-0.0019072761	 1.4282218086	-0.0331793969	-0.475675
C	 0.0084591232	 0.0296270722	 0.0400665454	 0.367558
C	 0.2380289632	-0.712170686	 1.383411688	-0.298069
C	-0.6986984257	-1.8037910509	 0.7805914053	-0.094287
C	-1.3626255819	-0.6640924272	-0.0527029534	-0.265046
C	 0.1038989698	-2.6813088279	-0.1365238595	 0.422126
N	 0.0396202942	-3.9440994888	-0.1079559353	-0.535417
O	 0.9249044803	-2.0176560961	-1.0105927139	-0.265812
C	 0.9310598985	-0.5818562933	-1.019353861	-0.127522
H	 0.8910759838	 1.7552109852	 0.1257481089	 0.281776
H	 1.2566880995	-0.9969493955	 1.6603703408	 0.104951
H	-0.2479341828	-0.1866161208	 2.2082629952	 0.113326
H	-1.3109027032	-2.4115412511	 1.4412204512	 0.10289
H	-2.1101224618	-0.1286594911	 0.5360841607	 0.116548
H	-1.7593158932	-0.9012440831	-1.0427006639	 0.111382
H	 0.6639975587	-4.3450390231	-0.8110713093	 0.217683
H	 0.6218022178	-0.2457845575	-2.0156512131	 0.122414
H	 1.9684224655	-0.2605606934	-0.8521465692	 0.101175
105.3853	184.4381	257.9017	299.8423	338.8736	414.6758	420.9618	439.0696	463.2873	609.1984	683.193	693.8324	768.2206	857.7066	895.7708	903.3533	920.4498	952.588	954.6715	973.034	1013.0474	1060.2303	1088.8972	1111.1303	1147.2922	1159.7098	1198.3921	1233.523	1244.8671	1262.5092	1279.6279	1301.9409	1349.6806	1375.2536	1423.7504	1475.1903	1505.6536	1518.538	1760.1916	3009.7247	3058.9684	3064.6904	3068.5564	3124.2312	3130.4107	3157.038	3463.2892	3794.1994
OC12CC(C1)C(=N)OC2	O[C@@]12C[C@@H](C1)[C]([NH])OC2	
InChI=1S/C6H9NO2/c7-5-4-1-6(8,2-4)3-9-5/h4,7-8H,1-3H2	InChI=1S/C6H9NO2/c7-5-4-1-6(8,2-4)3-9-5/h4,7-8H,1-3H2/t4-,6-
