19
gdb 53263	3.59283	0.87352	0.77596	1.8076	86.57	-0.2157	0.0526	0.2683	1531.2227	0.157413	-385.833648	-385.824104	-385.82316	-385.869933	33.803	
C	 0.076473017	 1.513826149	 0.1045250585	-0.498098
C	 0.0550405065	 0.058500382	 0.0643186559	 0.056827
C	 0.0543582638	-1.1472787121	 0.0364142357	 0.094584
C	 0.0172164001	-2.577734254	-0.0076905306	-0.292804
C	-0.5090083239	-3.3930526202	 1.1871222206	-0.359723
C	-1.3125707321	-3.304191275	-0.0562813546	 0.470878
C	-2.6924018546	-2.7265063378	-0.3305927056	-0.356424
C	-2.8160821646	-3.9223244777	-1.3008322384	-0.073091
O	-1.5084117832	-4.4191545026	-0.9189431168	-0.306685
H	 1.0876722944	 1.8923955388	 0.2921621568	 0.147804
H	-0.2691692214	 1.9492834383	-0.8399812608	 0.144808
H	-0.5705745919	 1.898381001	 0.9010249641	 0.14568
H	 0.8078713765	-3.0636746055	-0.5735326565	 0.117006
H	-0.0048285961	-4.3320102116	 1.3889008655	 0.126779
H	-0.8427093026	-2.844772327	 2.0614995956	 0.12381
H	-3.3804432594	-2.7455169148	 0.5167191559	 0.114698
H	-2.6946727221	-1.7335129192	-0.7826222581	 0.125981
H	-3.6025390237	-4.649303499	-1.0730882534	 0.108671
H	-2.8548369327	-3.6655268325	-2.3652700139	 0.1093
21.1283	68.1223	89.47	106.6976	219.0881	244.2738	322.837	330.4936	398.7779	490.2516	509.5052	600.9703	716.6012	789.0617	854.2793	870.0532	889.1626	915.5922	949.6946	988.8046	1016.2413	1051.6628	1052.5218	1057.8072	1083.556	1110.2732	1162.7328	1194.2647	1204.8336	1210.873	1244.7401	1323.2028	1366.9082	1401.3244	1416.2865	1471.9557	1477.5369	1480.3083	1490.3749	1531.1598	2362.0544	3023.1791	3031.8829	3076.0796	3079.766	3081.3998	3083.7373	3131.7595	3134.0981	3142.3193	3226.5662
CC#CC1CC11CCO1	CC#C[C@H]1C[C@]21CCO2	
InChI=1S/C8H10O/c1-2-3-7-6-8(7)4-5-9-8/h7H,4-6H2,1H3	InChI=1S/C8H10O/c1-2-3-7-6-8(7)4-5-9-8/h7H,4-6H2,1H3/t7-,8-/m0/s1
