18
gdb 112473	2.55996	1.31685	0.91636	4.4379	75.16	-0.2351	0.0095	0.2446	1250.3989	0.148739	-439.127549	-439.118887	-439.117943	-439.161517	32.016	
O	-0.2478633056	 1.5387159315	 0.1451294175	-0.424561
C	 0.0321310744	 0.1466259498	 0.1585599308	-0.075942
C	-1.3060685204	-0.5755103401	-0.0534539066	-0.00608
N	-1.8899154508	-0.1541344256	-1.314312265	-0.315583
C	-2.2926798332	-0.9152341146	-2.3714333003	 0.39857
O	-2.7189516905	-0.4188878359	-3.3981962307	-0.38172
C	-2.1887892507	-2.4269283668	-2.2049492764	-0.38103
C	-1.5462008864	-2.8920751897	-0.9332510982	-0.073406
C	-1.1526064515	-2.063214631	 0.0276764801	-0.06672
H	 0.5804059406	 2.0198320607	 0.0670877398	 0.295945
H	 0.7246492189	-0.1378646807	-0.6462964164	 0.101411
H	 0.468037331	-0.165770783	 1.1200564707	 0.091571
H	-1.9600039779	-0.241172331	 0.7699724028	 0.10445
H	-1.9320987249	 0.8441031428	-1.4662009852	 0.253234
H	-3.2037374541	-2.8351262137	-2.3023866019	 0.142528
H	-1.6500091808	-2.805515737	-3.0824003389	 0.141216
H	-1.4169425562	-3.9644130718	-0.8091230529	 0.099076
H	-0.7030084918	-2.441121054	 0.9413000408	 0.097043
64.1672	86.7513	133.638	196.5195	235.6082	325.5458	415.2719	467.0504	487.1495	522.689	543.1252	574.738	678.2571	716.5259	766.2081	912.3078	930.598	968.8168	974.8884	1007.43	1018.6357	1056.0851	1083.2417	1162.2562	1189.6827	1208.4598	1220.9619	1257.1777	1324.2728	1329.9222	1358.2652	1393.0855	1427.9854	1444.4442	1451.1786	1484.939	1510.2796	1744.4623	1787.933	2955.548	2979.8531	3027.8558	3030.0952	3054.1689	3152.1546	3178.5178	3606.3544	3843.6341
OCC1NC(=O)CC=C1	OC[C@H]1NC(=O)CC=C1	
InChI=1S/C6H9NO2/c8-4-5-2-1-3-6(9)7-5/h1-2,5,8H,3-4H2,(H,7,9)	InChI=1S/C6H9NO2/c8-4-5-2-1-3-6(9)7-5/h1-2,5,8H,3-4H2,(H,7,9)/t5-/m0/s1
