17
gdb 98027	4.84374	0.60308	0.55975	2.2321	82.78	-0.2615	-0.0562	0.2053	1959.9794	0.132835	-421.789836	-421.779988	-421.779044	-421.826814	33.315	
C	-0.1968430542	 1.4278522528	-0.6805266165	-0.385928
C	-0.5717252569	-0.0512098792	-0.647680439	-0.278686
C	-1.2034057119	-0.4801712697	 0.6666437059	 0.206855
O	-1.3885326833	 0.2773822138	 1.5957170808	-0.289897
C	-1.5786776442	-1.88098234	 0.7460401988	 0.014987
C	-1.8872539777	-3.0476153932	 0.7989118419	 0.189451
C	-2.2528336816	-4.430464924	 0.9114217001	-0.131248
C	-3.2295647702	-5.0423963986	-0.0158390849	-0.156741
O	-1.8434009284	-5.3139283946	-0.1449292011	-0.207105
H	 0.2537521252	 1.6867634628	-1.6424722286	 0.112038
H	-1.07686482	 2.0578043468	-0.5285068299	 0.133622
H	 0.5157865645	 1.6678798549	 0.1124566879	 0.134593
H	-1.2741957354	-0.309560502	-1.4517540624	 0.130895
H	 0.3017607224	-0.6948890656	-0.8190661504	 0.134732
H	-2.1631667583	-4.8587013399	 1.9086370259	 0.131415
H	-3.8455986722	-5.8647861543	 0.3447726143	 0.12941
H	-3.6659847878	-4.4286688399	-0.801127653	 0.131608
32.8152	53.1015	61.7426	109.3848	186.8363	199.2547	261.8597	270.8746	359.9739	525.8797	568.9674	572.2036	579.8199	722.3067	806.454	828.9079	855.8054	941.0633	995.6211	1033.1061	1077.496	1088.5947	1102.4525	1155.1004	1161.6078	1194.7166	1272.0269	1280.3335	1367.9738	1400.5284	1414.046	1447.9571	1492.5465	1497.8621	1518.4772	1762.5967	2325.8439	3023.4409	3050.4702	3052.9757	3090.1061	3124.9969	3125.0749	3129.1892	3185.3053
CCC(=O)C#CC1CO1	CCC(=O)C#C[C@H]1CO1	
InChI=1S/C7H8O2/c1-2-6(8)3-4-7-5-9-7/h7H,2,5H2,1H3	InChI=1S/C7H8O2/c1-2-6(8)3-4-7-5-9-7/h7H,2,5H2,1H3/t7-/m0/s1
