17
gdb 32256	2.574	1.60711	1.00178	3.2538	78.55	-0.2398	-0.0305	0.2092	1156.2096	0.136887	-418.059122	-418.050781	-418.049837	-418.092339	30.326	
C	 0.0639930147	 1.3920297716	-0.0317936822	-0.252443
O	-0.0062317471	-0.025059771	-0.0175005439	-0.262846
C	-1.2340480076	-0.5999371353	 0.0055257888	 0.283617
C	-2.4498931905	 0.0748397865	 0.0164699019	-0.100015
N	-3.6212100627	-0.5746747999	 0.0393871332	-0.253869
C	-3.5544302361	-1.8996675035	 0.0511172494	 0.053003
N	-2.4441666448	-2.6456632268	 0.0422923608	-0.294784
C	-1.2756571623	-2.0087123238	 0.019524772	 0.254128
C	-0.0098945857	-2.8159953567	 0.0090983895	-0.477733
H	 1.1254918933	 1.6418915228	-0.0492177736	 0.14237
H	-0.4219381146	 1.8090924021	-0.9226324103	 0.132441
H	-0.3965392096	 1.8258623751	 0.8645082329	 0.132442
H	-2.4989040867	 1.1593124669	 0.0068421882	 0.11103
H	-4.4979612515	-2.4388258289	 0.0695602136	 0.113636
H	 0.5892131272	-2.5901817649	-0.8796306502	 0.139089
H	 0.6154572695	-2.571756714	 0.8745502717	 0.139077
H	-0.2569936554	-3.8777098004	 0.0238526182	 0.140857
89.8069	109.2087	152.881	218.342	244.9426	307.4102	322.066	468.765	504.8602	524.0057	589.4456	610.542	767.8413	774.8758	876.0117	925.5348	979.959	988.5719	1059.2004	1059.2449	1174.4827	1177.3864	1213.2962	1217.3054	1271.8363	1293.5043	1331.0158	1402.8259	1438.4524	1467.9492	1474.8525	1483.3624	1492.2811	1500.3617	1509.3558	1595.4988	1611.9651	3011.0946	3040.8034	3073.6963	3093.4094	3141.8037	3153.7392	3168.2886	3174.3653
COC1=CN=CN=C1C	COc1cncnc1C	
InChI=1S/C6H8N2O/c1-5-6(9-2)3-7-4-8-5/h3-4H,1-2H3	InChI=1S/C6H8N2O/c1-5-6(9-2)3-7-4-8-5/h3-4H,1-2H3
