20
gdb 99917	2.29697	1.29556	1.03324	4.089	79.03	-0.241	0.0255	0.2665	1246.9068	0.171397	-399.311885	-399.302051	-399.301107	-399.346362	36.891	
N	-0.1054283422	 1.3796159428	-0.2020677312	-0.507658
C	 0.1472925917	-0.0401517116	-0.0524694771	-0.153026
C	 0.9160699283	-0.4762327978	 1.2397247111	 0.021876
N	 2.2014916258	 0.2311329888	 1.2399195986	-0.536321
C	 0.1523757186	 0.0006849471	 2.4111278246	 0.299315
N	-0.4756912889	 0.3566868869	 3.3136572926	-0.343892
C	 0.9719872945	-2.0115171585	 1.3084264688	 0.033239
C	 2.0372357967	-2.8024123115	 0.5930689112	-0.291146
C	 2.0155752638	-2.7502903779	 2.1005976315	-0.277491
H	-0.7675596654	 1.6890243127	 0.5040599897	 0.240548
H	 0.7572982198	 1.8869884594	-0.0236222345	 0.238757
H	-0.8026511866	-0.5820537456	-0.0941443414	 0.116345
H	 0.7517865341	-0.3919140706	-0.8983741186	 0.108578
H	 2.7029569131	 0.0936573806	 2.1109985459	 0.247024
H	 2.7847042464	-0.1152219942	 0.4844211652	 0.238736
H	-0.0190039538	-2.4570713781	 1.3109701822	 0.102724
H	 1.739460425	-3.7172694986	 0.0938866761	 0.124234
H	 2.8365077342	-2.2691866987	 0.0892615774	 0.105747
H	 2.7944532749	-2.1719424706	 2.5862921241	 0.106994
H	 1.70861763	-3.6305291148	 2.6530410338	 0.12542
69.6715	120.5007	151.4686	162.2671	208.2994	269.4521	287.1989	315.7867	358.5957	388.0607	426.6623	479.3014	561.4246	617.9346	697.589	775.7231	817.4342	826.3858	876.3471	902.058	912.4022	928.7942	1009.9848	1032.5964	1057.405	1062.6898	1083.5094	1139.9672	1145.5096	1149.8208	1193.4586	1223.3278	1245.9462	1318.7994	1371.4541	1386.7705	1409.3727	1464.5768	1479.8658	1503.8764	1646.1293	1674.6158	2353.7713	3028.2442	3087.7669	3136.1907	3139.0625	3146.3714	3213.5279	3227.763	3489.822	3501.3591	3565.6461	3592.0198
NCC(N)(C#N)C1CC1	NC[C@@](N)(C#N)C1CC1	
InChI=1S/C6H11N3/c7-3-6(9,4-8)5-1-2-5/h5H,1-3,7,9H2	InChI=1S/C6H11N3/c7-3-6(9,4-8)5-1-2-5/h5H,1-3,7,9H2/t6-/m1/s1
