20
gdb 133807	4.38235	0.53873	0.53258	2.2242	69.03	-0.3247	0.0827	0.4074	2085.1008	0.166124	-534.680514	-534.670311	-534.669367	-534.717223	35.884	
C	-0.0433586288	 1.6050129946	 0.0497214764	-0.380572
C	-0.0026605718	 0.0751874639	 0.0125538175	-0.166677
C	 0.7019612745	-0.4788753114	-1.2302345453	-0.167969
C	 0.7415072776	-2.0094793633	-1.2656538335	-0.189638
C	 1.4477219043	-2.5547839872	-2.5109436874	-0.335343
C	 1.4891268131	-4.067142608	-2.5511620501	 0.283742
F	 0.2549123914	-4.6007912638	-2.5509305163	-0.086636
F	 2.1144315699	-4.5110731506	-3.6539327627	-0.081064
F	 2.1404187381	-4.577392304	-1.4912015208	-0.086636
H	 0.967076693	 2.0287551163	 0.0450981582	 0.114547
H	-0.5741510023	 2.0087612195	-0.8196480965	 0.114549
H	-0.5520075352	 1.9685438109	 0.9478773822	 0.113859
H	 0.5030669232	-0.3009268483	 0.9116174069	 0.097862
H	-1.0259341147	-0.3207516472	 0.0535714165	 0.097863
H	 0.1969850756	-0.1049211736	-2.1318941859	 0.095227
H	 1.7271697434	-0.0852426988	-1.2730875449	 0.095224
H	 1.2515492331	-2.3880024412	-0.3720749423	 0.113365
H	-0.2793828849	-2.4076519433	-1.2316867091	 0.113366
H	 0.9453529199	-2.221590911	-3.4251304034	 0.127466
H	 2.4832987308	-2.2024167037	-2.5613607294	 0.127465
48.918	62.0257	94.015	133.6068	139.7889	204.3625	248.2171	287.2157	361.709	379.0554	461.804	538.6093	564.0691	655.4802	735.0098	762.6869	843.4165	848.4753	908.7938	966.9425	1014.7849	1055.0655	1065.5981	1069.3229	1122.3385	1182.2424	1211.0113	1253.3988	1267.1556	1286.6468	1311.2309	1334.6055	1345.1525	1354.6701	1401.785	1409.8604	1415.748	1476.9144	1485.4127	1490.9859	1500.1269	1504.8425	1514.6346	3003.8	3016.9949	3028.6559	3030.1328	3036.0488	3051.8606	3055.3763	3075.0426	3096.3757	3103.4185	3104.552
CCCCCC(F)(F)F	CCCCCC(F)(F)F	
InChI=1S/C6H11F3/c1-2-3-4-5-6(7,8)9/h2-5H2,1H3	InChI=1S/C6H11F3/c1-2-3-4-5-6(7,8)9/h2-5H2,1H3
