17
gdb 8307	5.26228	1.13575	0.97408	3.7854	66.26	-0.2264	-0.0173	0.2091	1159.0304	0.140481	-400.977073	-400.968709	-400.967765	-401.010389	29.906	
O	 0.1124436614	 1.4215411033	 0.0225104876	-0.411587
C	 0.034403918	 0.0024971293	 0.0369134497	-0.076198
C	-1.4338884786	-0.3957019004	 0.0549373919	-0.135841
N	-2.1100426943	-0.0800873761	-1.188179323	-0.08543
C	-2.4449774847	 1.3381674073	-1.4795103035	-0.275317
C	-3.8355765473	 0.8617589529	-1.9125640114	 0.387826
O	-4.7680633268	 1.3466586939	-2.4784412932	-0.283582
C	-3.5166172951	-0.5224562729	-1.3247635911	-0.288654
H	 1.0282520364	 1.6744433837	-0.1232968451	 0.290514
H	 0.5098098383	-0.434090305	-0.8531715693	 0.098658
H	 0.5283084899	-0.412108095	 0.9299077685	 0.087273
H	-1.4895437537	-1.4801324176	 0.2054576675	 0.106027
H	-1.9182596241	 0.0828245226	 0.929229912	 0.086425
H	-2.4905178954	 1.985354094	-0.5904732193	 0.127448
H	-1.8174211417	 1.8259060045	-2.230558126	 0.130484
H	-3.6776920025	-1.3968813026	-1.9645706463	 0.128748
H	-4.0442600798	-0.677931212	-0.368228299	 0.113205
77.7896	88.437	122.111	220.3469	256.0208	295.307	356.9564	427.1314	461.0845	511.0725	640.5686	750.9513	761.2759	900.3407	924.4251	964.7102	1038.5202	1057.1191	1083.0903	1091.0092	1097.7667	1127.2543	1161.871	1215.0758	1229.69	1258.3853	1272.949	1306.8911	1329.5752	1400.2982	1456.2857	1458.7564	1470.6415	1491.5237	1511.4649	1919.5212	2911.4114	2966.6265	2976.1238	3002.9519	3022.3699	3059.7578	3064.7541	3086.9983	3836.6089
OCCN1CC(=O)C1	OCCN1CC(=O)C1	
InChI=1S/C5H9NO2/c7-2-1-6-3-5(8)4-6/h7H,1-4H2	InChI=1S/C5H9NO2/c7-2-1-6-3-5(8)4-6/h7H,1-4H2
