15
gdb 25941	2.90156	1.61588	1.04687	5.3939	68.91	-0.211	0.0033	0.2143	1064.9967	0.11546	-450.191472	-450.18371	-450.182765	-450.223823	29.73	
N	-0.1108997367	 1.378316106	-0.032490258	-0.554677
C	 0.0614812465	-0.0043833198	 0.0619274793	 0.423092
N	 1.208712102	-0.5268746478	 0.184864614	-0.532266
N	-1.1747451276	-0.7011940132	 0.0583302283	-0.181429
C	-2.4572115554	-0.1381999202	 0.1706143315	-0.104037
C	-3.3546439133	-1.1367844214	 0.1002521806	-0.098146
N	-2.6474798273	-2.3241093529	-0.0594947224	-0.373158
C	-1.2834622539	-2.1005898205	-0.0655723535	 0.499964
O	-0.393186444	-2.9236147664	-0.1560120321	-0.427207
H	 0.7957397795	 1.8228546335	-0.1016465183	 0.262894
H	-0.7232855853	 1.6740397073	-0.7827093112	 0.249573
H	 1.1364010743	-1.5343583605	 0.3162182621	 0.252964
H	-2.5935453003	 0.9135523164	 0.3417465141	 0.157472
H	-4.4286203627	-1.1121664232	 0.1608177348	 0.150232
H	-3.0268038359	-3.2526080373	-0.1169140192	 0.274731
86.7104	129.4912	238.2312	243.4007	387.0056	401.2031	442.8236	468.1092	563.4402	598.0698	637.806	666.1907	682.5815	760.1577	770.7135	796.9311	811.2916	896.4012	908.4657	1051.2017	1091.0325	1121.6028	1177.5313	1188.7818	1235.3025	1254.9862	1389.3564	1429.3387	1431.2573	1621.9767	1641.4767	1735.3665	1836.3536	3288.5523	3317.2481	3511.8109	3536.0613	3637.7752	3694.8839
NC(=N)N1C=CNC1=O	NC(=N)n1cc[nH]c1=O	
InChI=1S/C4H6N4O/c5-3(6)8-2-1-7-4(8)9/h1-2H,(H3,5,6)(H,7,9)	InChI=1S/C4H6N4O/c5-3(6)8-2-1-7-4(8)9/h1-2H,(H3,5,6)(H,7,9)
