20
gdb 17895	3.5266	1.85255	1.63915	1.6157	73.17	-0.2424	0.0727	0.3152	885.6097	0.180112	-349.001442	-348.994325	-348.993381	-349.032232	29.014	
O	 0.1856981301	 1.3406746956	-0.1550917653	-0.463007
C	 0.0447971181	-0.0583820319	-0.013187677	 0.191805
C	 0.2018802734	-0.6152448177	 1.4312034086	-0.041388
C	-1.3374781335	-0.4100616833	 1.5919757815	-0.265692
C	-1.4152929227	-0.5931388064	 0.0434273899	-0.041398
C	-1.412046419	-2.087024584	-0.3281210099	-0.206068
C	-0.6186430488	-2.9121209035	 0.7144610419	-0.197841
C	 0.5450723354	-2.1137770313	 1.3513796454	-0.206068
H	-0.3700462515	 1.7762993123	 0.4992201652	 0.277392
H	 0.6968374909	-0.4902671947	-0.7798841998	 0.070536
H	 0.8776308756	-0.069387184	 2.0952317164	 0.059715
H	-1.895224914	-1.0992302477	 2.230937372	 0.09513
H	-1.5888271656	 0.6089534222	 1.9011084307	 0.085264
H	-2.1654580339	-0.0277922462	-0.5161895035	 0.059713
H	-2.436492336	-2.4708198791	-0.3939001583	 0.093393
H	-0.9742436598	-2.1983239971	-1.3282391256	 0.098536
H	-1.3063473995	-3.2140098732	 1.5110334253	 0.104106
H	-0.2511793012	-3.8426750563	 0.2714334307	 0.093945
H	 1.4653399439	-2.2316722283	 0.765287928	 0.098536
H	 0.7594192978	-2.5145081153	 2.348668724	 0.093393
184.2041	209.5995	270.6318	271.0395	336.2686	407.6741	446.2552	496.7496	606.9684	770.4371	811.3485	832.8148	844.1049	882.2969	895.6957	912.6327	938.7766	962.4061	1039.495	1045.663	1078.0201	1088.3859	1096.4755	1116.6391	1126.2055	1180.4088	1227.3159	1234.0512	1255.752	1266.4483	1268.1785	1314.7939	1316.7042	1329.6812	1354.113	1374.8941	1376.279	1435.899	1488.6415	1491.661	1499.8011	1522.7137	3021.2165	3021.3261	3041.0415	3050.6916	3051.8723	3058.0928	3060.7077	3070.1428	3075.7331	3086.4106	3100.49	3814.039
OC1C2CC1CCC2	O[C@H]1[C@H]2C[C@@H]1CCC2	
InChI=1S/C7H12O/c8-7-5-2-1-3-6(7)4-5/h5-8H,1-4H2	InChI=1S/C7H12O/c8-7-5-2-1-3-6(7)4-5/h5-8H,1-4H2/t5-,6+,7+
