18
gdb 9393	5.46422	0.81391	0.73527	3.5889	70.03	-0.2586	0.0258	0.2844	1508.3585	0.152964	-381.11555	-381.105915	-381.10497	-381.150753	32.834	
C	 0.0343825383	 1.3796654803	 0.0275040978	-0.229535
O	 0.0103666542	-0.0276227945	 0.04481422	-0.23285
C	-1.2954946283	-0.5543046486	-0.0211820461	-0.056611
C	-1.1780834933	-2.0746767194	-0.0229179324	-0.192646
C	-2.550250752	-2.7701329126	-0.0316791289	-0.136961
N	-3.3052774877	-2.4231517927	-1.239303571	-0.493474
C	-2.3834564683	-4.2305752458	 0.1442764229	 0.25734
N	-2.2772144369	-5.3780757707	 0.2397646719	-0.32031
H	 1.0811168556	 1.6893207416	 0.0744596009	 0.129168
H	-0.4165360849	 1.7854398396	-0.8919235957	 0.105436
H	-0.5020153915	 1.8084684259	 0.8890152113	 0.104375
H	-1.8926978574	-0.2198832967	 0.8464172304	 0.082732
H	-1.8176068365	-0.2061797757	-0.9242721755	 0.10977
H	-0.5992499499	-2.3952985505	-0.8966636241	 0.120774
H	-0.6173814848	-2.3921949271	 0.861357932	 0.131023
H	-3.1290313812	-2.4100519158	 0.8283140871	 0.133155
H	-2.835333455	-2.8043862936	-2.0563596022	 0.242526
H	-4.2262558205	-2.8503620437	-1.2118742686	 0.246087
61.371	73.7666	105.9817	131.143	193.6513	232.2316	248.4292	295.836	318.4679	396.9731	451.2975	586.0976	592.1201	801.1851	846.7906	934.8785	956.9617	1006.9674	1037.9109	1080.5702	1139.3587	1166.5168	1177.0092	1211.6924	1226.9869	1274.5137	1287.7419	1316.4432	1357.645	1395.3763	1425.8	1482.6148	1485.8609	1487.583	1505.7878	1533.8863	1662.8316	2345.1303	2943.4548	2970.7718	3012.7761	3015.9414	3033.9896	3051.791	3100.1428	3115.7754	3491.5063	3571.8025
COCCC(N)C#N	COCC[C@@H](N)C#N	
InChI=1S/C5H10N2O/c1-8-3-2-5(7)4-6/h5H,2-3,7H2,1H3	InChI=1S/C5H10N2O/c1-8-3-2-5(7)4-6/h5H,2-3,7H2,1H3/t5-/m1/s1
