19
gdb 107589	2.66708	1.59934	1.15143	2.1829	76.89	-0.2222	0.025	0.2472	1100.8373	0.161086	-419.20351	-419.195156	-419.194212	-419.236326	31.947	
C	-0.398128131	 1.3431245632	-0.0304141716	-0.33433
N	 0.206491816	 0.0104161374	 0.10144723	-0.36645
C	 0.8340734827	-0.4697742905	-1.0851508957	 0.286229
C	-0.0472389307	-0.9647072429	-2.2149714206	-0.306985
C	 0.832114182	-1.937959367	-1.4899299357	-0.131374
C	 2.182293263	-2.2011877006	-2.119078743	-0.109057
O	 2.8104059616	-0.9116041308	-2.279797689	-0.249812
C	 2.172299427	 0.0379966358	-1.5284329927	 0.344857
N	 2.6643580996	 1.1633537821	-1.2271012263	-0.548173
H	 0.3162166192	 2.1209102968	-0.3267785135	 0.140436
H	-1.1985343587	 1.3014680654	-0.7760343804	 0.117237
H	-0.8499876014	 1.617407443	 0.9273551931	 0.111944
H	 0.8896826897	 0.0323136612	 0.851896079	 0.223787
H	-1.1047332218	-1.0016975087	-1.9812568306	 0.129394
H	 0.1954133543	-0.6855567857	-3.2353517685	 0.125477
H	 0.3891474209	-2.6831113016	-0.8423473079	 0.10931
H	 2.8156085197	-2.8220668277	-1.4739052394	 0.115709
H	 2.1289265616	-2.6654024674	-3.1090113814	 0.120121
H	 3.6159930261	 1.2469496277	-1.5880861057	 0.221681
106.3074	134.7423	181.9135	201.5066	251.1415	296.0404	359.8871	427.2949	475.4965	587.8614	675.7475	703.015	747.1273	778.5884	861.3982	869.9283	889.29	940.6654	952.4557	975.1798	1024.2126	1040.6504	1067.0411	1094.3109	1106.2368	1122.4431	1159.4619	1198.1583	1216.3526	1229.1858	1287.6875	1330.4487	1384.0729	1414.4514	1455.0582	1483.6262	1486.4504	1493.8295	1520.347	1529.7396	1765.5599	3020.8983	3030.1018	3077.6841	3088.0605	3107.9262	3133.3983	3202.9922	3229.2878	3474.2997	3518.8336
CNC12CC1COC2=N	CN[C@]12C[C@H]1CO[C]2[NH]	
InChI=1S/C6H10N2O/c1-8-6-2-4(6)3-9-5(6)7/h4,7-8H,2-3H2,1H3	InChI=1S/C6H10N2O/c1-8-6-2-4(6)3-9-5(6)7/h4,7-8H,2-3H2,1H3/t4-,6+/m0/s1
