13
gdb 28747	5.61138	0.88934	0.80084	3.3865	63.29	-0.221	-0.0154	0.2056	1331.337	0.089245	-489.926972	-489.919072	-489.918128	-489.960467	27.982	
N	-0.0590015465	 1.4547254077	-0.0137728681	-0.585532
C	-0.0129783368	 0.0867725652	-0.0171862753	 0.475727
N	-0.9072657071	-0.7475644289	 0.4148846632	-0.330635
C	-0.310036226	-1.9971317091	 0.2417200837	-0.212198
C	 0.9154297679	-1.8293348862	-0.2917712862	 0.347865
O	 1.9067563047	-2.6454240836	-0.7102362759	-0.213881
C	 2.6624929238	-3.2634366877	 0.2650410865	 0.164289
O	 3.5251127191	-4.0292885798	-0.0089801578	-0.239348
O	 1.1361540521	-0.4777663389	-0.4661185944	-0.196467
H	 0.4789743859	 1.9056133623	-0.7390592583	 0.270563
H	-0.9953462271	 1.817582278	 0.0869711226	 0.276179
H	-0.8120904161	-2.9162815154	 0.4957564251	 0.136521
H	 2.339819386	-2.9591047936	 1.2758428149	 0.106918
38.9178	120.1873	153.1359	264.3824	293.5283	337.9903	417.4602	475.1891	509.7013	587.5733	649.6621	730.4638	766.8444	833.2839	847.1685	983.5288	1006.0069	1037.3214	1077.3011	1093.4735	1194.5044	1250.5952	1282.1362	1397.2926	1436.9457	1604.1014	1663.0546	1693.5995	1893.9574	2997.3094	3271.9273	3578.1163	3687.2797
NC1=NC=C(OC=O)O1	Nc1ncc(OC=O)o1	
InChI=1S/C4H4N2O3/c5-4-6-1-3(9-4)8-2-7/h1-2H,(H2,5,6)	InChI=1S/C4H4N2O3/c5-4-6-1-3(9-4)8-2-7/h1-2H,(H2,5,6)
