16
gdb 24172	3.95677	1.68428	1.1814	1.0945	88.27	-0.1823	-0.0183	0.164	987.7576	0.128932	-363.695659	-363.689482	-363.688538	-363.725892	26.016	
C	-0.0285058309	 1.4016749399	 0.010429868	-0.14398
C	 1.2821094221	 1.8427167805	 0.0000274474	-0.122158
N	 2.098286346	 0.7409452096	-0.0139826445	-0.089743
C	 3.4701510404	 0.667278621	-0.0277642152	 0.021096
C	 4.0898577911	-0.542546043	-0.0404560391	-0.180535
C	 3.3215884434	-1.7432820405	-0.0395643033	-0.101455
C	 1.9555622397	-1.6760356061	-0.0258756278	-0.218645
C	 1.2974276231	-0.4248803156	-0.0125808288	 0.379422
C	-0.029272629	-0.0071897941	 0.0026294317	-0.291178
H	-0.8964131027	 2.0441133068	 0.0224559139	 0.101583
H	 1.7006970955	 2.8361117767	 0.0013902259	 0.119196
H	 3.9929548378	 1.6153048305	-0.0276537952	 0.124614
H	 5.1720389357	-0.5781028048	-0.0512054964	 0.102299
H	 3.8260191153	-2.7022589596	-0.0497612422	 0.0986
H	 1.3462798984	-2.5728909567	-0.0248702461	 0.103275
H	-0.8880740957	-0.6599184147	 0.0074026718	 0.097609
208.8916	225.552	406.2778	424.7583	571.1212	574.6529	615.6993	617.3098	682.1352	726.5631	749.6019	764.5075	769.1762	840.7604	860.5173	890.7674	901.1093	920.6198	961.3541	1027.2647	1058.9972	1102.0115	1151.0452	1171.5147	1240.5036	1269.9484	1309.4597	1339.2874	1391.7234	1433.7192	1493.9694	1504.5652	1553.9309	1571.2576	1678.987	3187.5452	3200.8336	3208.3571	3222.5305	3239.8349	3256.6177	3269.3461
C1=CN2C=CC=CC2=C1	c1cn2ccccc2c1	
InChI=1S/C8H7N/c1-2-6-9-7-3-5-8(9)4-1/h1-7H	InChI=1S/C8H7N/c1-2-6-9-7-3-5-8(9)4-1/h1-7H
