21
gdb 103865	2.46595	1.15738	0.94143	2.0647	79.43	-0.2308	0.0638	0.2945	1332.0653	0.181408	-424.189567	-424.180031	-424.179086	-424.224346	36.327	
O	 0.3323785209	 0.5495453833	 0.8817769224	-0.430745
C	-0.1233708239	 0.2234982137	-0.4317754442	-0.14112
C	-1.4756729821	-0.4400562223	-0.3561743445	 0.392509
O	-2.4342103109	 0.377794266	 0.2591323983	-0.470578
C	-1.9905990439	-1.3191943717	-1.450397055	-0.365292
C	-1.5933141806	-1.9371702192	-0.118264739	-0.077496
C	-0.4134099501	-2.8504541973	 0.0038265197	 0.00572
C	 0.059731557	-3.3116319963	 1.3676043691	-0.280263
C	-0.6013758306	-4.2866432249	 0.4236407441	-0.278103
H	 0.4873370422	-0.2855638289	 1.3384210135	 0.290713
H	-0.2089982602	 1.1785132985	-0.9599613662	 0.11841
H	 0.6026933011	-0.3995563007	-0.9700723053	 0.090496
H	-1.9953402526	 0.7430603118	 1.0388506963	 0.282989
H	-3.0468954182	-1.2426828388	-1.6818225536	 0.125005
H	-1.3494290933	-1.5016654929	-2.3078189342	 0.110085
H	-2.4305559282	-2.1954697479	 0.5257498237	 0.088398
H	 0.3689969316	-2.6849348801	-0.7318170192	 0.083685
H	 1.1254011001	-3.4098260579	 1.545363647	 0.112484
H	-0.5090122392	-2.9902696978	 2.2346282787	 0.11318
H	-1.6087488402	-4.6130624963	 0.6599552564	 0.116425
H	 0.0139328211	-5.0472838002	-0.043929868	 0.113497
47.0383	87.3377	136.4936	169.1303	238.9128	314.8578	323.5363	375.5971	403.1721	417.7052	479.1949	511.8736	557.5623	754.6319	765.9189	806.9281	825.7195	898.4834	911.8288	922.4079	929.4112	966.4729	1005.6785	1026.5685	1050.4554	1053.3043	1063.3691	1078.1007	1096.0987	1138.355	1188.6419	1200.3012	1211.0096	1229.4111	1260.7813	1274.0574	1329.4716	1361.2001	1405.6177	1425.7911	1445.8944	1468.5517	1493.0927	1498.4203	1509.9476	3019.0716	3084.3193	3124.8208	3126.5237	3131.4354	3135.8361	3144.7803	3204.8596	3219.1037	3221.9409	3763.1136	3794.974
OCC1(O)CC1C1CC1	OC[C@@]1(O)C[C@H]1C1CC1	
InChI=1S/C7H12O2/c8-4-7(9)3-6(7)5-1-2-5/h5-6,8-9H,1-4H2	InChI=1S/C7H12O2/c8-4-7(9)3-6(7)5-1-2-5/h5-6,8-9H,1-4H2/t6-,7-/m0/s1
