16
gdb 14445	4.27964	2.05414	1.7714	1.4936	63.1	-0.2395	0.0767	0.3163	765.8083	0.131886	-383.704275	-383.697963	-383.697018	-383.734296	25.658	
O	-0.0772835901	 1.3802560397	-0.0470309583	-0.461281
C	 0.0589980853	 0.0054386228	-0.0412182961	 0.381312
C	 0.8861131765	-0.8102932418	-1.0373062435	-0.322255
C	-0.1031338215	-1.993708864	-0.760241886	 0.089411
O	 0.3863457504	-2.8779131548	 0.2369880278	-0.263217
C	 0.5232835081	-2.1125184527	 1.4398033385	-0.102125
C	-0.2636173551	-0.8313280811	 1.1936593447	-0.148055
C	-1.0699161958	-1.0002713225	-0.0705509288	-0.138721
H	 0.6601759085	 1.7618182003	 0.442053288	 0.285834
H	 0.7669301485	-0.413480951	-2.0494107232	 0.108033
H	 1.9458628455	-0.9992459607	-0.8341465913	 0.092005
H	-0.4387847136	-2.5819034187	-1.6122564257	 0.087631
H	 0.1094167341	-2.6918381682	 2.273780025	 0.105757
H	 1.5858255206	-1.9253330602	 1.6493203191	 0.094056
H	-0.7062894354	-0.2920013484	 2.0226863845	 0.094926
H	-2.1407847558	-0.8923887088	-0.1694450445	 0.096691
216.8436	234.8671	298.09	348.5529	442.3974	457.3866	586.8331	683.6555	715.714	755.8051	840.437	872.1259	895.3335	903.1001	937.0298	978.497	992.3638	1005.7983	1039.6719	1071.5765	1104.5938	1143.3932	1172.136	1182.9773	1219.1571	1233.3301	1253.338	1298.4177	1303.3338	1328.5857	1378.8725	1441.0108	1497.9171	1524.5145	3001.2178	3040.2319	3047.8504	3101.8326	3138.156	3192.2524	3217.2705	3794.6453
OC12CC3OCC1C23	O[C@@]12C[C@H]3OC[C@@H]1[C@@H]23	
InChI=1S/C6H8O2/c7-6-1-4-5(6)3(6)2-8-4/h3-5,7H,1-2H2	InChI=1S/C6H8O2/c7-6-1-4-5(6)3(6)2-8-4/h3-5,7H,1-2H2/t3-,4-,5-,6+/m1/s1
