16
gdb 5311	4.52071	1.58231	1.25229	4.1303	66.45	-0.2269	0.0244	0.2514	956.8037	0.131898	-379.963234	-379.955616	-379.954672	-379.995676	28.24	
C	 0.1141485501	 1.385184691	-0.3843596623	-0.386485
C	 0.0093609352	 0.0123891591	 0.2925785353	 0.052452
O	 0.3806389571	 0.1184720873	 1.6479478171	-0.437818
C	-1.3788691247	-0.5681878224	 0.2080949029	 0.344282
N	-2.0797987798	-0.9035259603	 1.2682666086	-0.318918
C	-3.2758026723	-1.3961909752	 0.7938592151	-0.088829
C	-3.2934291925	-1.3575443219	-0.5722648494	-0.111502
N	-2.0716119906	-0.8243572542	-0.9359771877	-0.299792
H	 1.1268314552	 1.7754401275	-0.2540966994	 0.131982
H	-0.0919486452	 1.3228336641	-1.459150192	 0.092972
H	-0.5912813444	 2.0860343324	 0.0704447925	 0.129332
H	 0.7059831671	-0.6756220673	-0.2183560923	 0.081128
H	-0.364073185	-0.2368538367	 2.1584066943	 0.29609
H	-4.0463541092	-1.7474473561	 1.4623484867	 0.114327
H	-4.0304032601	-1.6458102335	-1.3029376547	 0.132791
H	-1.7544507309	-0.6587793637	-1.8762560048	 0.267987
38.5182	156.4016	211.8379	251.6486	333.7479	385.8119	451.2933	495.6995	539.0428	641.5648	674.8186	726.3787	755.3933	852.1047	906.4379	932.0842	985.0986	1046.5141	1096.7707	1103.204	1136.4877	1158.2016	1190.6735	1250.4853	1313.8337	1367.4226	1381.0102	1402.8125	1442.9279	1469.8059	1491.7785	1499.1038	1518.8569	1590.2723	2940.6181	3033.6605	3106.5634	3129.2139	3254.4546	3282.9057	3667.6732	3683.364
CC(O)C1=NC=CN1	C[C@@H](O)c1ncc[nH]1	
InChI=1S/C5H8N2O/c1-4(8)5-6-2-3-7-5/h2-4,8H,1H3,(H,6,7)	InChI=1S/C5H8N2O/c1-4(8)5-6-2-3-7-5/h2-4,8H,1H3,(H,6,7)/t4-/m1/s1
