16
gdb 24403	3.72198	1.61426	1.14404	1.1255	78.95	-0.1649	0.0038	0.1687	1016.2835	0.127635	-400.781001	-400.774178	-400.773234	-400.81205	27.4	
C	 0.138057435	 1.4563571382	 0.3329711742	-0.229278
N	 1.1010826783	 2.1394890341	-0.5497410686	-0.405138
C	 2.1458521346	 1.3626113722	-0.972722903	 0.376822
C	 2.1234485352	-0.0021069487	-1.096812787	 0.189705
C	 3.3866651604	-0.3369475147	-1.6970835814	-0.314819
C	 4.0560502732	 0.8281296998	-1.8754822844	-0.037491
O	 3.287374095	 1.8982420923	-1.428968333	-0.203568
C	 0.9009184992	-0.6808459766	-0.72130546	-0.160128
C	-0.0630401158	 0.0134049844	-0.0956090258	-0.098881
H	 0.4687825118	 1.4898398128	 1.3908577302	 0.098422
H	-0.8083817794	 2.0054630741	 0.2852997673	 0.115045
H	 1.3329632286	 3.0883702124	-0.2950082445	 0.247181
H	 3.7492101833	-1.3204923056	-1.9546171891	 0.108346
H	 5.0234900006	 1.0939032203	-2.2626319093	 0.130875
H	 0.7562963984	-1.7254875477	-0.9782962963	 0.091245
H	-0.9997100084	-0.4521483874	 0.1888797707	 0.091661
130.6315	186.4431	295.5535	383.4075	420.5023	491.5823	557.8977	592.9061	602.4656	632.7588	688.0256	752.0306	771.0122	824.1377	853.3661	902.3756	916.5177	971.8683	1021.5813	1037.4393	1064.3757	1129.9866	1183.7172	1206.9291	1249.8889	1280.5491	1292.9557	1349.0487	1373.7372	1466.5673	1508.7457	1527.4963	1581.8223	1627.0906	1686.6054	2879.0732	3051.1246	3174.2242	3198.7212	3249.5647	3302.8188	3607.7823
C1NC2=C(C=CO2)C=C1	C1Nc2c(cco2)C=C1	
InChI=1S/C7H7NO/c1-2-6-3-5-9-7(6)8-4-1/h1-3,5,8H,4H2	InChI=1S/C7H7NO/c1-2-6-3-5-9-7(6)8-4-1/h1-3,5,8H,4H2
