20
gdb 62083	3.26032	0.67979	0.64211	3.5978	77.28	-0.2464	-0.0214	0.2251	1768.3165	0.167975	-440.33539	-440.324327	-440.323383	-440.373842	37.569	
C	-0.0715219349	 1.7674921083	 0.2342733934	-0.390249
C	-0.0770018922	 0.2474108201	 0.0097898709	-0.09211
C	 0.7169307899	-0.5278777328	 1.0827812853	-0.182765
C	 2.2185208111	-0.1962995451	 1.1213172734	-0.29087
C	 2.9250710997	-0.9856132967	 2.2000658045	 0.160519
O	 3.8640599784	-1.7169106335	 2.0191516149	-0.238233
C	-1.5279822287	-0.2468384412	 0.0530391568	 0.412735
N	-1.9823532824	-0.8460152601	-1.0843294177	-0.526724
O	-2.2224383799	-0.1133180814	 1.0431778033	-0.376693
H	 0.9431037845	 2.1738936533	 0.2163409258	 0.115941
H	-0.6451915463	 2.2781039753	-0.5454687075	 0.120332
H	-0.5324393133	 2.0021433478	 1.1975317922	 0.144241
H	 0.3587401505	 0.0283759918	-0.9739438542	 0.065848
H	 0.2562771277	-0.3286078712	 2.0568633259	 0.130106
H	 0.5983333467	-1.6030230547	 0.8992233226	 0.111795
H	 2.7063647526	-0.4041833049	 0.1638410228	 0.117002
H	 2.3588146152	 0.8680042793	 1.3540150238	 0.122939
H	 2.4964398442	-0.8462897051	 3.2207397086	 0.074438
H	-1.412439399	-0.9554713103	-1.9037249124	 0.259706
H	-2.9298607938	-1.1874411288	-1.1004650826	 0.262041
22.7803	54.5508	66.9089	95.9156	139.4925	153.4499	221.6559	244.7923	291.663	312.0056	334.0688	504.6679	511.5555	597.5481	623.598	760.6615	771.8352	805.7017	849.8647	912.251	991.4839	1003.5885	1038.5795	1068.0101	1111.7997	1124.1681	1158.0381	1214.5346	1252.8257	1287.1945	1310.7675	1354.0048	1371.119	1402.1042	1408.5972	1430.7248	1465.2373	1493.062	1495.709	1505.893	1615.9937	1792.5669	1836.4782	2854.8962	3015.7568	3021.8615	3032.6535	3044.9162	3074.6649	3097.3905	3110.6337	3128.7597	3601.683	3741.9008
CC(CCC=O)C(N)=O	C[C@@H](CCC=O)C(=O)N	
InChI=1S/C6H11NO2/c1-5(6(7)9)3-2-4-8/h4-5H,2-3H2,1H3,(H2,7,9)	InChI=1S/C6H11NO2/c1-5(6(7)9)3-2-4-8/h4-5H,2-3H2,1H3,(H2,7,9)/t5-/m0/s1
