20
gdb 61618	3.28729	0.86383	0.72997	5.1518	80.54	-0.2434	0.0275	0.2709	1556.6248	0.170523	-399.301571	-399.291662	-399.290718	-399.337055	35.928	
C	-0.0535562533	 1.531021818	-0.2922637216	-0.414963
C	-0.0479649249	 0.0503549332	 0.014627662	 0.029882
C	 1.1917825522	-0.7639927952	-0.1076941625	-0.262156
N	 0.6011691169	-0.5070511662	 1.2067322446	-0.098148
C	 1.3004862174	 0.3784311377	 2.1271378181	-0.146063
C	 1.8259227679	-0.4694368404	 3.3133552087	-0.125109
N	 2.715049459	-1.5758639563	 2.9596601946	-0.506086
C	 2.4923628334	 0.4116711818	 4.2847439559	 0.28848
N	 3.0098130168	 1.1400746034	 5.0171014827	-0.31919
H	 0.9252701841	 1.9931039523	-0.1408885105	 0.124581
H	-0.3392130004	 1.6915531004	-1.3369142253	 0.128933
H	-0.7807019112	 2.0617565632	 0.3322431516	 0.129357
H	-0.9924655124	-0.4454767085	-0.2059404539	 0.097006
H	 1.1564659595	-1.7926990503	-0.4573780483	 0.117585
H	 2.10820167	-0.23105666	-0.3612379095	 0.11047
H	 2.1464858596	 0.915630922	 1.669901132	 0.099761
H	 0.6019089433	 1.1299665559	 2.5122336387	 0.121866
H	 0.9512820429	-0.9076813017	 3.8086786869	 0.14009
H	 2.215271383	-2.181028927	 2.3148448459	 0.249399
H	 3.5322775162	-1.2233330223	 2.4683352197	 0.234303
47.7214	80.2722	102.6641	192.7712	208.0764	227.5212	280.9026	315.4518	340.8198	408.913	441.658	491.1318	564.8894	581.6314	757.3674	798.3592	863.7766	881.7064	905.9221	934.798	958.8817	1037.408	1042.7141	1086.7471	1119.1736	1144.779	1150.4008	1164.3355	1191.2563	1209.0973	1266.654	1318.0637	1335.4836	1378.9573	1404.7202	1416.9205	1423.5601	1480.4406	1491.3919	1499.6591	1514.3742	1653.6951	2362.4129	2974.2883	3036.7452	3048.077	3066.638	3084.7453	3096.8821	3104.4689	3125.2104	3172.4501	3487.5386	3576.2954
CC1CN1CC(N)C#N	C[C@H]1CN1C[C@@H](N)C#N	
InChI=1S/C6H11N3/c1-5-3-9(5)4-6(8)2-7/h5-6H,3-4,8H2,1H3	InChI=1S/C6H11N3/c1-5-3-9(5)4-6(8)2-7/h5-6H,3-4,8H2,1H3/t5-,6-,9?/m0/s1
