18
gdb 34113	3.4407	1.50253	1.40604	1.7843	82.24	-0.2334	0.0304	0.2638	986.349	0.149447	-364.725887	-364.718988	-364.718043	-364.756844	29.033	
C	 0.0702323769	-1.1618954572	-0.072042373	-0.319169
C	 0.0421894346	 0.0392240947	-0.0197510501	 0.056827
C	-0.0112889875	 1.47421558	 0.0398871767	 0.253252
C	-0.4011825318	 2.2584964262	 1.3229387209	-0.275455
C	 0.4293274679	 3.342080354	 0.6453428106	-0.014304
C	-0.0352891301	 3.5537254287	-0.8534704967	-0.062239
C	 1.3778231974	 3.0602430729	-1.2125275034	-0.172686
N	 1.3441898543	 2.2628129862	 0.0592961048	-0.17504
C	-0.8243169146	 2.2453736222	-1.0399896024	-0.269434
H	 0.102392409	-2.2223522309	-0.1145458272	 0.180629
H	-1.4640120171	 2.4133602799	 1.5179661723	 0.101607
H	 0.1104774582	 1.8721919967	 2.2057714742	 0.124132
H	 0.8984821276	 4.1730701871	 1.1718051478	 0.082335
H	-0.4680147132	 4.4813058457	-1.2306843077	 0.065609
H	 1.521011174	 2.4936953546	-2.1384571409	 0.102773
H	 2.159846553	 3.8192343588	-1.1164608954	 0.108598
H	-0.727523628	 1.8280885761	-2.0448528162	 0.108869
H	-1.8842773104	 2.3035153944	-0.7823129843	 0.103697
140.1534	159.7363	365.9048	415.4289	481.8347	514.2338	517.0545	550.7902	616.7797	652.2431	655.6343	724.2838	780.978	830.2225	857.5478	888.1693	907.9649	944.7403	960.7775	995.5851	999.8944	1018.132	1057.0856	1077.3778	1096.1996	1136.2566	1171.7671	1189.6817	1222.2572	1231.1965	1247.4639	1263.9007	1287.899	1296.8719	1326.1228	1479.0555	1500.9287	1522.0986	2238.034	3044.0087	3067.8096	3076.1535	3100.8505	3103.1897	3117.951	3121.3147	3143.1596	3502.8864
C#CC12CC3C(CN13)C2	C#C[C@@]12C[C@@H]3[C@@H](CN13)C2	
InChI=1S/C8H9N/c1-2-8-3-6-5-9(8)7(6)4-8/h1,6-7H,3-5H2	InChI=1S/C8H9N/c1-2-8-3-6-5-9(8)7(6)4-8/h1,6-7H,3-5H2/t6-,7-,8-/m1/s1
