20
gdb 18718	2.98246	2.14716	1.44784	1.2518	73.79	-0.2431	0.0775	0.3206	924.0486	0.179224	-348.998865	-348.991435	-348.990491	-349.030208	29.436	
C	-0.0530218244	 1.5451331222	-0.0119478605	-0.395767
C	 0.0490772238	 0.0163480267	 0.0102859224	 0.0007
C	 0.6941257449	-0.5269126904	-1.2735079427	-0.093504
O	 0.854205322	-1.9297931402	-1.2174430616	-0.241578
C	 1.8552856174	-2.3169885081	-0.2897455156	-0.094942
C	 1.679458503	-1.7110330851	 1.1018680761	-0.061279
C	 2.2663663375	-0.3518740309	 1.4079043322	-0.29352
C	 0.7761954385	-0.5048588971	 1.2414225977	-0.00324
H	 0.9397363918	 2.0071746013	-0.0460508332	 0.115764
H	-0.6170309144	 1.893492395	-0.8844803504	 0.110155
H	-0.5602266747	 1.9183460319	 0.8835920533	 0.113894
H	-0.9666921231	-0.4004632888	 0.0393485271	 0.079673
H	 0.0497673677	-0.32034566	-2.1338472286	 0.104925
H	 1.6643404665	-0.0330894318	-1.4633734264	 0.080208
H	 1.7952073038	-3.4074237585	-0.2339130313	 0.108077
H	 2.848736672	-2.0600867734	-0.6959810554	 0.086579
H	 1.6681158097	-2.4300442633	 1.9145546656	 0.086217
H	 2.6549072815	-0.1660213758	 2.4032406574	 0.107993
H	 2.8306191767	 0.1341669292	 0.6170004218	 0.108763
H	 0.1932225495	-0.4460575428	 2.1568243621	 0.08088
115.2528	204.53	223.0851	292.5385	306.9779	379.2235	435.6942	484.1308	538.4808	678.9479	736.6289	814.9539	843.2192	894.4042	924.0755	943.1078	964.6535	971.4624	1025.6151	1053.5486	1070.4371	1094.5256	1121.7538	1131.1626	1142.0666	1177.8357	1190.6971	1238.3456	1259.7504	1324.7535	1328.9927	1357.5692	1372.2456	1386.2742	1405.6984	1414.3635	1428.5563	1489.37	1494.0421	1496.6767	1499.6796	1507.4487	2943.8495	2954.051	3013.4262	3027.5935	3074.2645	3082.5678	3094.4288	3099.6448	3122.0673	3133.6329	3155.0814	3206.7447
CC1COCC2CC12	C[C@H]1COC[C@H]2C[C@@H]12	
InChI=1S/C7H12O/c1-5-3-8-4-6-2-7(5)6/h5-7H,2-4H2,1H3	InChI=1S/C7H12O/c1-5-3-8-4-6-2-7(5)6/h5-7H,2-4H2,1H3/t5-,6+,7-/m0/s1
