19
gdb 61630	3.00967	0.89011	0.81335	4.1184	76.67	-0.2641	0.0342	0.2983	1460.821	0.159018	-419.193548	-419.183771	-419.182827	-419.228959	35.561	
N	 0.5584901725	 0.8594350301	 0.6732827487	-0.498506
C	-0.2460739532	-0.1236425193	-0.0588663028	-0.123544
C	-1.6956313018	 0.3762288786	-0.236087141	-0.205807
C	-2.3855864022	 0.5876710733	 1.0935344554	-0.016932
C	-3.893280477	 0.4501927373	 1.1875603425	-0.350198
C	-2.9906908985	-0.5870967069	 1.8081427612	 0.105761
O	-2.8394404018	-1.8338906051	 1.1890102376	-0.420535
C	 0.3376891246	-0.4763861536	-1.3718984382	 0.252551
N	 0.8232071938	-0.7145184087	-2.3943043614	-0.327165
H	 1.4827787811	 0.4835902482	 0.8622896334	 0.243741
H	 0.6980987738	 1.6844599693	 0.0955842876	 0.238672
H	-0.2841781846	-1.0400217112	 0.5399401255	 0.15008
H	-1.6839709947	 1.3097872694	-0.8125832461	 0.105547
H	-2.2404002694	-0.3620340917	-0.828834157	 0.127541
H	-1.9200316299	 1.3339797684	 1.7273686953	 0.107504
H	-4.4455471984	 1.1222442335	 1.8353842836	 0.114428
H	-4.4168000257	 0.1587585147	 0.2823282521	 0.115967
H	-2.915062427	-0.608765557	 2.8948672231	 0.089023
H	-3.6488107715	-2.3379559794	 1.3208636006	 0.291872
44.8554	66.3036	120.7628	196.5615	230.8089	259.3663	289.3678	310.6918	320.4705	403.0457	443.9742	561.2316	571.3936	600.2711	781.74	812.7121	843.015	858.0942	901.4506	948.1101	982.8137	1011.3964	1029.577	1061.0182	1107.3604	1134.6004	1140.9413	1172.2902	1206.4657	1236.5053	1287.7145	1292.3826	1314.772	1354.6275	1392.8616	1404.4497	1429.8815	1473.0509	1491.8525	1663.2096	2342.5822	3032.9601	3066.4136	3102.9199	3108.8499	3129.0149	3176.9049	3217.7817	3490.4827	3570.441	3810.6576
NC(CC1CC1O)C#N	N[C@@H](C[C@H]1C[C@H]1O)C#N	
InChI=1S/C6H10N2O/c7-3-5(8)1-4-2-6(4)9/h4-6,9H,1-2,8H2	InChI=1S/C6H10N2O/c7-3-5(8)1-4-2-6(4)9/h4-6,9H,1-2,8H2/t4-,5-,6+/m0/s1
