16
gdb 124307	4.66757	0.93882	0.93002	2.2637	70.43	-0.2416	-0.0079	0.2336	1303.1255	0.124611	-434.115183	-434.106626	-434.105682	-434.150091	29.788	
C	-0.1074316672	 1.4947345966	-0.0622717763	-0.47727
C	 0.0455483565	-0.0066053202	 0.1011201884	 0.391676
O	 0.0671784259	-0.5414302604	 1.1816366477	-0.277839
C	 0.1813469928	-0.7980633802	-1.2087571579	-0.428183
C	 0.0899846614	-2.2729928443	-1.0203211745	 0.38138
N	 1.1603258323	-3.0504194308	-0.9534981547	-0.264656
N	 0.6124544956	-4.2716176646	-0.7494631912	-0.176843
C	-0.731029536	-4.1803298296	-0.7079514207	 0.018444
N	-1.1013729636	-2.928200803	-0.8793896146	-0.299709
H	 0.6710915777	 1.8989901612	-0.7184205972	 0.135486
H	-1.0706829609	 1.718074375	-0.5358729049	 0.144615
H	-0.0633484102	 1.980218852	 0.9131564199	 0.143744
H	-0.5891000071	-0.4564069855	-1.9086978844	 0.135908
H	 1.1504922653	-0.5396395383	-1.6511978395	 0.145234
H	 1.2061591835	-5.0789820072	-0.6556855436	 0.282332
H	-1.3790859263	-5.0307843507	-0.5584079766	 0.14568
41.4933	50.7807	101.6851	119.9046	299.5007	326.9308	336.2358	469.723	541.2248	566.087	681.8632	714.1748	799.2851	824.4329	845.4853	857.465	973.9645	999.3145	1007.1502	1037.1829	1105.8779	1162.6806	1173.529	1210.0346	1292.4078	1331.3784	1366.1197	1382.5456	1430.8695	1463.9504	1471.1996	1476.3589	1498.8362	1562.7921	1825.7792	3034.9217	3047.4341	3087.9178	3097.9677	3153.5134	3259.5375	3668.1619
CC(=O)CC1=NNC=N1	CC(=O)Cc1n[nH]cn1	
InChI=1S/C5H7N3O/c1-4(9)2-5-6-3-7-8-5/h3H,2H2,1H3,(H,6,7,8)	InChI=1S/C5H7N3O/c1-4(9)2-5-6-3-7-8-5/h3H,2H2,1H3,(H,6,7,8)
