19
gdb 55478	3.26054	1.13482	0.96267	4.9949	72.08	-0.232	0.0162	0.2482	1241.6254	0.163116	-456.373005	-456.364963	-456.364019	-456.405887	30.939	
O	-0.2505543685	-0.1194220388	 0.0438884683	-0.367784
C	-0.0562526503	 1.2126411633	 0.0271117921	 0.412638
O	 1.029741621	 1.7105979143	-0.093458061	-0.34031
C	-1.3534231349	 2.0217750341	 0.1021171676	-0.126463
C	-1.7926908602	 2.3607335019	-1.3469257012	-0.153562
N	-3.1177744694	 2.9581639205	-1.4414722653	-0.286393
C	-4.1158074575	 2.140250825	-0.7538099863	-0.148628
C	-3.7381894613	 1.8371975275	 0.6976985171	-0.160692
N	-2.4025240301	 1.2223001006	 0.7519510128	-0.330786
H	-1.2137611368	-0.2444991809	 0.1660202632	 0.297917
H	-2.1513487285	 1.0754959912	 1.7252642239	 0.23615
H	-1.1311060502	 2.9604466978	 0.631805263	 0.087435
H	-1.049938666	 3.0263877184	-1.7929497529	 0.130661
H	-1.7997325844	 1.4320806174	-1.9319621028	 0.115926
H	-3.1046871329	 3.8923559296	-1.0410694809	 0.217477
H	-5.0843937998	 2.6480200139	-0.7902877243	 0.107031
H	-4.2159734841	 1.1968503552	-1.3054386635	 0.114683
H	-3.7759215411	 2.7759435985	 1.278753923	 0.085623
H	-4.4553525551	 1.1422807105	 1.1478288771	 0.109077
86.4263	115.5798	192.5179	245.2979	308.1999	354.0462	406.0046	464.1017	528.5081	562.0476	662.1455	726.1012	756.5149	802.6201	837.8598	879.909	903.8373	909.9141	936.7938	997.0062	1050.4993	1077.5506	1139.6149	1156.3646	1162.5213	1195.44	1217.949	1265.6437	1294.8714	1336.9705	1350.3119	1363.9504	1387.2355	1400.1258	1414.2852	1472.1783	1481.8139	1487.9361	1490.227	1502.1153	1871.5046	2944.0148	2991.4082	3028.4302	3032.5455	3065.5234	3088.6736	3108.4823	3499.4186	3502.2129	3544.5343
[O-]C(=O)C1CNCC[NH2+]1	OC(=O)[C@H]1CNCCN1	
InChI=1S/C5H10N2O2/c8-5(9)4-3-6-1-2-7-4/h4,6-7H,1-3H2,(H,8,9)	InChI=1S/C5H10N2O2/c8-5(9)4-3-6-1-2-7-4/h4,6-7H,1-3H2,(H,8,9)/t4-/m1/s1
