25
gdb 100987	2.65646	1.01558	0.94543	1.3111	88.31	-0.2618	0.0786	0.3404	1429.1165	0.227878	-389.48209	-389.471508	-389.470564	-389.517219	40.168	
C	-1.5915013384	-0.3408330773	-0.0662725516	-0.411323
C	-0.0888084903	-0.0974006842	 0.1327427025	-0.019214
C	 0.4130979364	-0.7844891454	 1.405427547	-0.093253
O	-0.218944042	-0.1608227623	 2.517606974	-0.423419
C	 0.7622960178	-0.4558262001	-1.1011798842	 0.364097
C	 0.7382619194	-1.9483790627	-1.451728519	-0.458095
C	 0.4953167279	 0.4284296985	-2.3649187265	-0.260224
C	 2.0250668919	 0.6192230704	-2.5393659111	-0.22114
C	 2.2270652264	 0.1006261459	-1.0914228888	-0.259898
H	-1.96989892	 0.1941382594	-0.9429347774	 0.110081
H	-1.8138596056	-1.4050163295	-0.2015851486	 0.108231
H	-2.1438924486	 0.0037371745	 0.8109085463	 0.131091
H	 0.050595228	 0.9791290809	 0.3055090206	 0.074113
H	 0.1752401173	-1.8594392924	 1.3753737832	 0.083
H	 1.5085172357	-0.6907400415	 1.475203783	 0.085015
H	 0.0298809926	-0.6409684308	 3.3123577902	 0.284443
H	-0.2770442734	-2.2977383548	-1.6649509447	 0.115576
H	 1.3444941081	-2.146027584	-2.3421254258	 0.110986
H	 1.1441994495	-2.5625944218	-0.6406731459	 0.111228
H	-0.0506915806	-0.0394530507	-3.1891118243	 0.090819
H	-0.0085266728	 1.3647142093	-2.1064106066	 0.095738
H	 2.4494002196	-0.0536137549	-3.2891113826	 0.101078
H	 2.3761542019	 1.6305736978	-2.7562104663	 0.095761
H	 2.3469918638	 0.9191222014	-0.3747888411	 0.096257
H	 3.0303743154	-0.6229805657	-0.9253633324	 0.089053
80.0394	99.9266	136.4676	175.175	225.4138	248.3965	256.9912	271.4392	306.955	325.6496	338.2044	419.9964	451.2879	480.0854	670.2016	722.2631	795.4064	858.5244	872.2776	914.1945	923.639	932.8355	943.1814	947.1036	993.1462	1042.5446	1050.0251	1068.5797	1109.6766	1152.527	1171.5425	1188.0988	1214.2481	1219.5111	1250.4974	1260.8975	1274.8129	1278.0371	1290.3278	1317.8452	1349.6456	1372.3861	1402.9204	1416.632	1458.4627	1475.0236	1483.2247	1493.5671	1497.0574	1500.9654	1508.6562	1516.5152	1523.3975	2965.9519	2991.6567	3010.8774	3031.1697	3039.4972	3043.4359	3048.0128	3063.1157	3088.85	3092.706	3095.3147	3099.9689	3105.103	3116.6586	3125.2001	3833.0742
CC(CO)C1(C)CCC1	C[C@@H](CO)C1(C)CCC1	
InChI=1S/C8H16O/c1-7(6-9)8(2)4-3-5-8/h7,9H,3-6H2,1-2H3	InChI=1S/C8H16O/c1-7(6-9)8(2)4-3-5-8/h7,9H,3-6H2,1-2H3/t7-/m0/s1
