20
gdb 57276	2.26744	1.30667	1.18572	4.6349	77.98	-0.2527	0.0325	0.2853	1184.8708	0.16968	-403.145305	-403.135655	-403.134711	-403.179788	35.09	
C	 0.2945465441	 1.5253884614	 0.1672976187	-0.408285
C	-0.0156822473	 0.0181926771	 0.0241667634	 0.050076
C	 0.5195219146	-0.7583910901	 1.2484390324	-0.408285
C	-1.4780064114	-0.1550520289	-0.0374952233	 0.278811
N	-2.6258288496	-0.2873019074	-0.0780135111	-0.351282
C	 0.6330126096	-0.5275515808	-1.2636362789	-0.02075
C	 0.2861318945	-1.9484536602	-1.7633830009	-0.103365
O	 0.0016333005	-1.452483916	-3.0860168148	-0.270111
C	 0.1024508658	-0.0840934111	-2.6459838606	-0.103365
H	 1.3774016945	 1.6717563618	 0.2276859398	 0.124188
H	-0.0845372828	 2.0911620723	-0.6878656021	 0.138836
H	-0.1601279476	 1.9335532107	 1.0736401722	 0.13705
H	 0.0686483519	-0.3889680672	 2.1731140026	 0.137051
H	 0.3014083084	-1.8265021235	 1.1667460042	 0.138836
H	 1.6041481837	-0.6300131514	 1.3173622596	 0.124188
H	 1.7124240775	-0.3778404444	-1.1720325479	 0.089055
H	 1.0976909297	-2.6844036484	-1.7639933094	 0.106256
H	-0.6027835067	-2.3904139495	-1.2934566466	 0.117419
H	-0.878588878	 0.4090070722	-2.618723267	 0.11742
H	 0.7837548585	 0.5020575434	-3.2724842002	 0.106256
81.9382	91.2503	160.4143	187.2407	189.6347	226.8136	249.4169	306.2395	323.9285	411.3333	422.0015	586.3887	612.0334	622.7428	787.2924	877.0138	900.5594	932.815	951.6867	974.4949	998.5171	1040.7566	1057.0725	1061.7863	1118.7014	1165.3511	1174.5	1178.7427	1210.8631	1263.5941	1268.6662	1315.8507	1347.3312	1394.7314	1400.1354	1424.098	1481.0315	1486.8318	1498.4023	1508.0039	1510.6662	1536.4972	2350.3962	3007.0546	3017.3977	3041.3217	3044.4964	3054.9624	3063.1296	3077.8507	3116.4229	3119.9368	3124.2169	3126.4605
CC(C)(C#N)C1COC1	CC(C)(C#N)C1COC1	
InChI=1S/C7H11NO/c1-7(2,5-8)6-3-9-4-6/h6H,3-4H2,1-2H3	InChI=1S/C7H11NO/c1-7(2,5-8)6-3-9-4-6/h6H,3-4H2,1-2H3
