16
gdb 27084	3.13864	1.37891	1.03117	1.7255	73.94	-0.1839	-0.0364	0.1475	1115.7587	0.124582	-437.932844	-437.924683	-437.923738	-437.965716	30.579	
O	 0.3785551345	 1.2795031415	-0.1864814259	-0.440674
C	 0.1764402466	-0.0497696048	-0.142690205	 0.332854
C	 0.0026578289	-0.9958093973	-1.1390129452	 0.122583
C	 0.0006542688	-0.6865183179	-2.6153804117	-0.396485
C	 1.3406984357	-0.0596299382	-2.9309284822	 0.153823
O	 1.6171833228	 1.0913847338	-2.6556663733	-0.274356
C	-0.1710885581	-2.25199701	-0.4751058451	-0.255961
C	-0.118863154	-2.0283723028	 0.8750021166	-0.089469
N	 0.095968405	-0.6736530546	 1.0659627215	-0.293832
H	 0.7281613332	 1.4992819544	-1.0718338269	 0.316917
H	-0.1415434353	-1.6009458475	-3.1971793566	 0.11671
H	-0.7901203337	 0.0253425179	-2.88606859	 0.128309
H	 2.1107989505	-0.720187433	-3.3794405539	 0.101125
H	-0.3379566483	-3.2051249152	-0.9541223451	 0.092604
H	-0.2266681553	-2.6946614574	 1.7141137417	 0.11907
H	 0.2110772186	-0.2024900288	 1.9464024315	 0.266783
86.4783	118.246	173.9257	237.7479	265.4457	330.0646	455.5497	468.6632	517.9665	608.0865	626.1886	643.5879	649.4749	717.5126	737.1894	808.8102	907.109	914.17	968.6996	1045.6205	1080.7752	1091.5435	1166.5231	1224.9284	1254.5703	1272.3405	1316.5795	1400.6802	1411.4264	1415.8195	1469.6889	1529.87	1567.1793	1625.0138	1775.1712	2925.1266	3017.9886	3101.5441	3242.3208	3280.232	3552.1004	3683.4099
OC1=C(CC=O)C=CN1	Oc1c(CC=O)cc[nH]1	
InChI=1S/C6H7NO2/c8-4-2-5-1-3-7-6(5)9/h1,3-4,7,9H,2H2	InChI=1S/C6H7NO2/c8-4-2-5-1-3-7-6(5)9/h1,3-4,7,9H,2H2
