18
gdb 75795	3.11789	1.27741	1.06348	1.0124	73.09	-0.2613	0.0202	0.2815	1159.595	0.14704	-439.065056	-439.05659	-439.055646	-439.098609	31.218	
C	-0.2438334463	 1.479325759	-0.1079962019	-0.412072
C	-0.0268799467	-0.0281322308	-0.0995604497	-0.21897
C	 1.212432119	-0.5484760571	-0.8008905678	 0.431737
N	 1.6697240064	-0.4681524897	-1.9637589843	-0.545727
O	 1.7228961094	-1.160360236	 0.3308888894	-0.28171
C	 0.6044118218	-0.7022626535	 1.1420437752	 0.359712
C	 0.9368565208	 0.0031727406	 2.4648247555	-0.130027
O	 0.155459647	-0.9551408441	 3.208426031	-0.271604
C	-0.0975434944	-1.7413427295	 2.0257172204	-0.131501
H	 0.6510578355	 2.0140429778	 0.2241593854	 0.127993
H	-0.4743192066	 1.8144298661	-1.1226843562	 0.146697
H	-1.0765923624	 1.7613759982	 0.5437460994	 0.126459
H	-0.9304098372	-0.5492695055	-0.4315650895	 0.111008
H	 2.5663717708	-0.9497716782	-2.0501732303	 0.230303
H	 2.0033115686	-0.0334598728	 2.7190344618	 0.118173
H	 0.5634951349	 1.0260501561	 2.5882430664	 0.111305
H	-1.1692203578	-1.8905560216	 1.8469151423	 0.109313
H	 0.4122099173	-2.7124907988	 2.047463123	 0.118911
75.0146	80.5633	191.0983	205.3442	227.6662	292.124	339.1307	439.0819	470.4015	518.4746	653.5341	763.1766	819.7318	836.592	870.1519	886.0304	934.9643	983.8438	999.7754	1015.7891	1034.8212	1076.1865	1112.5957	1135.8268	1151.6813	1166.5112	1171.3641	1224.4968	1269.7019	1299.7002	1304.4877	1359.4207	1384.3378	1411.8685	1492.14	1496.6142	1497.7504	1521.9057	1831.7249	3013.9374	3026.1828	3041.768	3062.7064	3067.8747	3072.7332	3112.5749	3123.2813	3476.3338
CC1C(=N)OC11COC1	C[C@H]1[C]([NH])OC21COC2	
InChI=1S/C6H9NO2/c1-4-5(7)9-6(4)2-8-3-6/h4,7H,2-3H2,1H3	InChI=1S/C6H9NO2/c1-4-5(7)9-6(4)2-8-3-6/h4,7H,2-3H2,1H3/t4-/m0/s1
