17
gdb 62528	2.48296	1.38151	1.15617	2.9485	74.47	-0.2879	-0.0119	0.276	1121.0879	0.134562	-418.024311	-418.01523	-418.014286	-418.058071	33.064	
C	-0.1019639303	 1.4664637147	-0.0645112295	-0.444287
C	-0.0176365582	-0.0548144655	 0.0544630523	 0.117428
C	-1.3832739487	-0.6947933375	 0.2945724737	-0.44521
C	 0.8952652136	-0.7320910592	-1.0310104825	-0.046453
O	 1.8343484993	-1.1441341561	 0.0045652258	-0.264214
C	 1.0728389368	-0.5433066361	 0.9973730604	 0.440634
N	 1.2647640036	-0.4537272966	 2.2283539149	-0.540344
C	 0.3595430319	-1.8652920684	-1.7761217769	 0.2976
N	-0.0831245999	-2.7452029668	-2.3800692629	-0.320079
H	 0.8806889487	 1.9141665457	-0.2408422177	 0.12913
H	-0.7669681796	 1.7532193354	-0.8855411793	 0.129171
H	-0.4998443387	 1.8870898376	 0.8629166692	 0.14919
H	-2.0766515599	-0.4427912282	-0.5138263283	 0.131767
H	-1.3182315682	-1.7835126163	 0.3619981062	 0.145049
H	-1.7967103947	-0.3205241641	 1.2349258432	 0.144209
H	 1.371140803	-0.0306506535	-1.7221529337	 0.138041
H	 2.1284549411	-0.911448275	 2.522618995	 0.238367
70.4217	141.27	174.3097	210.1271	222.35	229.5062	283.0232	339.5509	350.647	458.8798	518.0306	600.1363	670.1047	687.4572	768.9121	840.6695	867.2421	946.4157	966.5532	991.2864	1003.1571	1026.4213	1048.5435	1167.1339	1190.5598	1227.1416	1254.1686	1317.2199	1361.3412	1404.9656	1426.0229	1479.5577	1484.6923	1501.1789	1505.7464	1839.9862	2361.4255	3038.6261	3046.2517	3076.387	3110.224	3118.8933	3122.8698	3129.1626	3487.2958
CC1(C)C(OC1=N)C#N	CC1(C)[C@@H](O[C]1[NH])C#N	
InChI=1S/C6H8N2O/c1-6(2)4(3-7)9-5(6)8/h4,8H,1-2H3	InChI=1S/C6H8N2O/c1-6(2)4(3-7)9-5(6)8/h4,8H,1-2H3/t4-/m0/s1
