18
gdb 126269	2.33662	1.37398	0.9263	2.4562	75.91	-0.2196	0.01	0.2296	1288.5474	0.146866	-439.079234	-439.070016	-439.069072	-439.114563	32.29	
C	-0.301661139	 1.5590508069	-0.0158599219	-0.364639
C	 0.0649379215	 0.0661469096	 0.0462709338	-0.311336
C	 0.7435154326	-0.4391505149	-1.1910919763	-0.011404
C	 2.0774631519	-0.6633485109	-1.3984905109	 0.484671
O	 3.0952050052	-0.506438357	-0.5575009536	-0.267252
C	 4.398967895	-0.8617132248	-1.0325386073	-0.250833
O	 2.3220524287	-1.1026615703	-2.6379507057	-0.231161
N	 1.0917839298	-1.1886299892	-3.3307543243	-0.172614
C	 0.1998513728	-0.7921464621	-2.4543556326	-0.015839
H	 0.59239192	 2.1747359723	-0.153865431	 0.122383
H	-0.9783607548	 1.7650632954	-0.8514405432	 0.118094
H	-0.7972358797	 1.8780281032	 0.9066299943	 0.112511
H	 0.722894338	-0.1106237759	 0.9039181157	 0.114462
H	-0.8427337299	-0.5211859795	 0.2308457507	 0.108749
H	 4.4381132376	-1.9189631749	-1.3103952096	 0.146094
H	 4.6785023503	-0.2519484991	-1.8964150316	 0.146667
H	 5.0754958878	-0.6668120449	-0.200747482	 0.14302
H	-0.8396243079	-0.774454224	-2.7562508545	 0.128428
32.1266	69.4452	154.4933	166.3657	168.6623	240.6967	286.3813	304.4934	411.6742	538.3787	612.6339	639.3635	716.0435	739.3141	784.3621	893.577	922.8055	939.5619	970.2186	1038.3709	1068.2155	1085.084	1176.7485	1196.8723	1210.4055	1213.7912	1285.3316	1336.8687	1365.5132	1405.0053	1416.9408	1466.5454	1483.1221	1486.4339	1497.1712	1499.9189	1505.8194	1550.5574	1687.7026	3030.4448	3035.1512	3043.7236	3070.0224	3106.365	3112.0851	3116.7209	3159.3408	3225.7724
CCC1=C(OC)ON=C1	CCc1c(OC)onc1	
InChI=1S/C6H9NO2/c1-3-5-4-7-9-6(5)8-2/h4H,3H2,1-2H3	InChI=1S/C6H9NO2/c1-3-5-4-7-9-6(5)8-2/h4H,3H2,1-2H3
