20
gdb 105420	2.26502	1.28511	0.97872	3.4543	77.33	-0.2579	0.0163	0.2742	1277.1107	0.170025	-440.267809	-440.258414	-440.257469	-440.302337	34.706	
O	-0.2261760271	 1.6232542453	-0.4254013057	-0.421066
C	-0.0204262514	 0.2600606321	-0.1299037917	-0.088839
C	-1.3409614983	-0.4950596606	 0.0137101825	 0.369677
C	-2.145964452	-0.5900724988	-1.2983276189	-0.26605
C	-1.5956574345	-2.031883423	-1.4857073377	-0.226009
C	-1.1961769802	-2.0419250493	 0.0172171167	-0.283252
O	-2.0993757921	 0.1287109439	 1.0652162097	-0.249876
C	-1.77488834	-0.1767584708	 2.3384260243	 0.104321
N	-2.274084409	 0.4861545995	 3.2904343733	-0.442251
H	-0.8550019966	 1.9574879983	 0.2259531872	 0.297605
H	 0.5621786549	-0.1611847534	-0.9558852556	 0.112358
H	 0.5714434063	 0.1255494733	 0.792141221	 0.085184
H	-3.2174987233	-0.5837655458	-1.087694122	 0.118549
H	-1.920602853	 0.1610531211	-2.0567935646	 0.120694
H	-2.3068116993	-2.7942781941	-1.8066117831	 0.110505
H	-0.7277943388	-2.0688514685	-2.1482940556	 0.112762
H	-0.221745954	-2.4567509625	 0.2900376143	 0.103138
H	-1.967541276	-2.5079856471	 0.6357286679	 0.117396
H	-1.087706713	-1.0271612395	 2.4292481738	 0.095953
H	-1.9552358026	 0.1073948901	 4.1800738642	 0.229204
64.0812	115.6214	144.4053	163.7549	178.1928	216.962	330.9962	348.9877	412.5007	427.8676	483.169	577.5442	694.8626	767.888	803.0656	826.7907	856.496	909.3455	924.7871	932.33	978.5536	1043.159	1047.3922	1088.5429	1090.8585	1117.7627	1149.478	1195.19	1204.3576	1240.4395	1250.1843	1273.42	1285.7487	1294.9473	1306.0152	1374.0323	1419.5506	1433.4319	1470.751	1486.0062	1496.3455	1507.8235	1738.6656	2957.09	3041.5443	3056.0752	3072.6169	3076.6346	3079.4121	3107.972	3125.7812	3141.2008	3514.1309	3787.7361
OCC1(CCC1)OC=N	OCC1(CCC1)O[CH][NH]	
InChI=1S/C6H11NO2/c7-5-9-6(4-8)2-1-3-6/h5,7-8H,1-4H2	InChI=1S/C6H11NO2/c7-5-9-6(4-8)2-1-3-6/h5,7-8H,1-4H2
