18
gdb 66136	2.56083	1.45046	1.42049	1.8149	71.57	-0.2402	-0.0293	0.2109	1031.497	0.146754	-439.071373	-439.062946	-439.062002	-439.10467	31.484	
C	 0.1797660078	 1.5417679763	-0.2257167083	-0.437529
C	 0.0305097247	 0.0250287248	-0.0928744404	 0.294546
O	 0.7585663979	-0.5837342075	-1.1678806073	-0.305064
C	 1.3657778617	-1.8041691471	-0.7368437196	-0.090595
C	 1.4580374019	-1.7102492961	 0.7702061588	-0.046923
N	 2.0826185828	-0.449005458	 1.2208773104	-0.343868
C	 0.6130887859	-0.568262655	 1.1783437546	-0.09911
C	-1.449506307	-0.3446997226	-0.2268420593	 0.122679
O	-2.2125705765	-0.4708996396	 0.695898292	-0.258457
H	 1.2358274676	 1.7960694849	-0.1139392233	 0.151125
H	-0.1644384058	 1.877046072	-1.2082730912	 0.127612
H	-0.4044865499	 2.0534657761	 0.5446902937	 0.127356
H	 0.7552968442	-2.6755007415	-1.0198764579	 0.097839
H	 2.3380529734	-1.8786579413	-1.234209243	 0.118673
H	 1.552544794	-2.6104250223	 1.3674182116	 0.10031
H	 2.395738488	-0.5570241998	 2.1828374798	 0.235772
H	 0.0173106887	-0.5598838365	 2.0823722409	 0.11311
H	-1.7694667595	-0.4784583968	-1.2850372117	 0.092525
55.7954	131.159	174.1691	225.3447	268.7346	294.1879	333.2526	388.7013	471.7533	563.7125	620.1082	755.0685	785.7587	830.1992	877.7119	878.8831	909.5333	933.6837	973.3711	986.368	1027.4768	1071.3172	1093.4601	1117.1603	1158.1894	1164.9102	1204.5385	1222.0493	1237.7045	1260.2684	1351.6018	1384.3463	1391.5346	1401.0961	1429.7233	1484.0668	1491.1467	1509.2397	1827.3956	2884.19	2988.7372	3045.6362	3075.2801	3120.4537	3139.7497	3175.7126	3202.1409	3500.7755
CC1(OCC2NC12)C=O	C[C@]1(OC[C@H]2N[C@@H]12)C=O	
InChI=1S/C6H9NO2/c1-6(3-8)5-4(7-5)2-9-6/h3-5,7H,2H2,1H3	InChI=1S/C6H9NO2/c1-6(3-8)5-4(7-5)2-9-6/h3-5,7H,2H2,1H3/t4-,5-,6+/m1/s1
