13
gdb 8622	2.51981	1.82691	1.45834	3.0909	59.91	-0.2835	-0.0867	0.1967	892.9561	0.091549	-398.62132	-398.612579	-398.611635	-398.655352	28.953	
C	-0.1401736262	 1.7390308931	-0.1370411676	-0.424568
C	-0.0439712714	 0.1938029306	-0.0997386144	-0.130171
C	 0.4605047389	-0.2120283238	 1.3128206195	 0.159434
O	 1.4366337416	-0.8656222267	 1.5284829627	-0.208634
C	-1.455464494	-0.4300459863	-0.2269332436	 0.139923
O	-2.407689691	 0.0455834221	 0.3263935972	-0.235986
C	 0.8322262135	-0.3324067348	-1.1415790743	 0.287816
N	 1.4848162367	-0.7501217187	-1.9978215022	-0.315052
H	 0.8340043053	 2.1886179728	 0.0663187665	 0.152936
H	-0.481743299	 2.0698449119	-1.1200011124	 0.157198
H	-0.8631742837	 2.0688864883	 0.6109662132	 0.159158
H	-0.1953567012	 0.1886120865	 2.1129204741	 0.124713
H	-1.5087757495	-1.3603302949	-0.8251194485	 0.133234
49.2558	86.1275	146.5099	166.9921	193.3154	266.0262	282.8076	322.5664	421.7923	524.1573	557.9153	683.8509	742.5406	858.4106	932.1202	967.3555	1028.0156	1126.9622	1143.0535	1219.4384	1386.1609	1407.6228	1411.1058	1486.6853	1495.6341	1816.4664	1856.7948	2366.8057	2931.5152	2950.5189	3060.9636	3142.927	3152.8137
CC(C=O)(C=O)C#N	CC(C=O)(C=O)C#N	
InChI=1S/C5H5NO2/c1-5(2-6,3-7)4-8/h3-4H,1H3	InChI=1S/C5H5NO2/c1-5(2-6,3-7)4-8/h3-4H,1H3
