13
gdb 42652	3.1431	1.49487	1.25183	4.8046	68.13	-0.2772	-0.0306	0.2466	971.3531	0.09009	-415.571237	-415.564494	-415.56355	-415.60266	25.575	
O	-0.0107557136	 0.0740226548	 0.0861805967	-0.289408
C	-0.0984300965	 1.2548764734	 0.0563275685	 0.449246
C	-1.204797502	 2.2978946793	-0.038081233	-0.257387
C	-0.9367610945	 3.1168878907	 1.2609758978	-0.246755
C	 0.4189117324	 3.464399464	 0.6328172035	-0.090974
N	 0.9789766953	 2.2567761433	-0.0706861409	-0.215866
C	-0.065813914	 3.1599130105	-0.7293953288	 0.286834
C	 0.0776197804	 3.7402412243	-2.0124162102	 0.155761
N	 0.1511543896	 4.2317833234	-3.057042268	-0.337705
H	-2.2025339186	 2.077412366	-0.4034197303	 0.129595
H	-1.5717277184	 4.0023978911	 1.3256232592	 0.139217
H	-0.9500266684	 2.5672388153	 2.2060515074	 0.133339
H	 1.1499516683	 4.1995927441	 0.9413737381	 0.144104
98.4209	169.2549	215.1696	391.4817	461.7928	507.9413	538.4757	563.6583	626.5479	699.4065	757.4626	789.5307	844.8462	900.5192	942.5054	971.1148	983.3742	1070.2697	1079.6641	1102.2766	1129.6166	1142.8373	1208.6535	1261.7829	1275.8925	1405.3764	1499.2836	1945.6391	2357.5238	3067.8186	3132.7194	3185.6046	3218.6249
O=C1C2CC3N1C23C#N	O=C1[C@H]2C[C@H]3N1[C@@]23C#N	
InChI=1S/C6H4N2O/c7-2-6-3-1-4(6)8(6)5(3)9/h3-4H,1H2	InChI=1S/C6H4N2O/c7-2-6-3-1-4(6)8(6)5(3)9/h3-4H,1H2/t3-,4-,6+,8?/m1/s1
