20
gdb 59007	3.48585	0.93905	0.886	3.474	82.67	-0.2074	0.0028	0.2101	1407.3615	0.170307	-403.207971	-403.19853	-403.197586	-403.24255	35.085	
C	 0.0085016843	 1.5520864868	 0.0010751372	-0.386283
C	-0.0177524047	 0.0118161591	 0.0429007876	-0.076325
C	 0.7791786113	-0.5122457707	 1.2533298052	-0.386267
C	-1.4209999217	-0.5245007757	 0.022464962	 0.287888
C	-1.9739757556	-1.3015151162	-0.9173645174	-0.139318
N	-3.3100328683	-1.6179263973	-0.6170867204	-0.322994
C	-3.711678658	-1.0447328069	 0.574536506	 0.422677
O	-4.8039415076	-1.1431327155	 1.0837797224	-0.371126
C	-2.4770485834	-0.276330033	 1.0809154419	-0.461419
H	 1.0387355228	 1.9210201055	-0.0366531884	 0.112305
H	-0.5238289811	 1.9328729466	-0.8755921293	 0.115892
H	-0.4622676228	 1.9800077754	 0.8930688814	 0.116554
H	 0.4776193372	-0.354831606	-0.8663727216	 0.073009
H	 0.3392914004	-0.1675123044	 2.1956938355	 0.11655
H	 0.7974729567	-1.6059873467	 1.2710278627	 0.115889
H	 1.8129310014	-0.152720474	 1.2214993337	 0.112298
H	-1.5280675341	-1.685694507	-1.8245939237	 0.122583
H	-3.9213335753	-2.186600852	-1.1783459913	 0.258955
H	-2.2032170958	-0.6492411411	 2.0744394251	 0.14456
H	-2.7372051257	 0.7808939132	 1.2063239016	 0.144573
50.4477	93.834	163.2266	173.5726	220.9489	248.4362	313.7743	352.9974	449.1728	471.6318	488.8717	496.9768	583.6625	591.1762	725.4021	840.3977	862.2938	875.2177	917.3221	925.8387	949.3949	963.9923	1037.5575	1086.8207	1114.2126	1152.4885	1169.7398	1195.2999	1219.0549	1297.6313	1321.4444	1336.5357	1387.0902	1393.9289	1400.3189	1416.6433	1433.5852	1486.5951	1490.5686	1502.3579	1509.2309	1703.1975	1836.7862	3011.2066	3028.7501	3032.9256	3046.2048	3078.6691	3094.6159	3101.0441	3107.4882	3109.6793	3227.6181	3668.4689
CC(C)C1=CNC(=O)C1	CC(C)C1=CNC(=O)C1	
InChI=1S/C7H11NO/c1-5(2)6-3-7(9)8-4-6/h4-5H,3H2,1-2H3,(H,8,9)	InChI=1S/C7H11NO/c1-5(2)6-3-7(9)8-4-6/h4-5H,3H2,1-2H3,(H,8,9)
