17
gdb 82200	2.6316	1.85602	1.39616	3.2992	66.07	-0.2515	0.0464	0.298	954.0394	0.135294	-458.9242	-458.916492	-458.915548	-458.956035	30.234	
C	-0.2343428832	 1.459457346	 0.0321304711	-0.492745
C	 0.1191754839	 0.0008258298	-0.0109344365	 0.362854
O	-0.6401104629	-0.8671402441	 0.8491300569	-0.281586
C	 0.7742671916	-0.7767238034	 1.0549568916	-0.058747
C	 1.5568808269	-1.9167892687	 0.4170928277	 0.012384
O	 0.7357402416	-2.8710013329	-0.2605905941	-0.240851
C	 1.3596194711	-1.8425204226	-1.0378613733	-0.011177
C	 0.4073162721	-0.6835134878	-1.3675100592	 0.051316
O	-0.773925617	-1.1046785431	-2.0127101173	-0.434401
H	 0.5829123655	 2.0727940521	-0.3617241789	 0.122787
H	-1.122794237	 1.6461504543	-0.5805182543	 0.144058
H	-0.4489123904	 1.7726981344	 1.0568513327	 0.131354
H	 1.0929587461	-0.355896391	 2.0048960488	 0.098758
H	 2.4516512805	-2.3065410125	 0.8934307516	 0.102621
H	 2.0833673338	-2.187604232	-1.7720130027	 0.104832
H	 0.9012558597	 0.0220029579	-2.0443582249	 0.087836
H	-1.1864567724	-1.7295598764	-1.4008180394	 0.300705
133.2668	195.2754	222.7066	229.3907	274.6128	375.5497	435.9309	484.0224	555.4403	573.9895	684.1144	707.8169	749.8523	837.5255	865.0954	871.7829	895.4406	946.8436	954.8841	1031.1609	1040.8775	1083.727	1089.9192	1097.9309	1118.328	1220.4397	1249.4118	1275.9119	1290.1813	1313.4781	1330.0783	1402.921	1421.8071	1439.6706	1455.8724	1482.7815	1496.4649	3036.4426	3062.558	3102.1664	3125.0874	3143.5569	3149.3936	3166.0913	3767.4353
CC12OC1C1OC1C2O	C[C@]12O[C@H]1[C@H]1O[C@H]1[C@H]2O	
InChI=1S/C6H8O3/c1-6-4(7)2-3(8-2)5(6)9-6/h2-5,7H,1H3	InChI=1S/C6H8O3/c1-6-4(7)2-3(8-2)5(6)9-6/h2-5,7H,1H3/t2-,3+,4-,5+,6-/m1/s1
