17
gdb 51127	4.0106	1.12953	1.11632	2.1345	73.21	-0.23	0.021	0.251	1134.7918	0.136163	-417.934003	-417.926241	-417.925297	-417.966944	29.759	
O	 0.0270372218	 0.4882924199	 1.4208943359	-0.30618
C	 0.0430795771	 1.3590351047	 0.5831008998	 0.134326
N	 1.1295647535	 1.7272474466	-0.1660700305	-0.398359
C	 2.388566126	 1.0848669561	-0.1104622683	 0.397003
C	 3.1472601624	 0.8866985945	 1.1647461594	-0.308964
C	 3.7811361019	 1.6628670476	 0.0412857551	-0.092106
N	 4.3120610938	 0.8916354842	-1.1546759819	-0.139079
C	 4.1529469941	-0.5646771065	-0.9487201822	-0.24621
C	 2.9615776468	 0.2438360712	-1.2781144108	-0.08655
H	-0.8399754361	 1.9831529856	 0.3359828735	 0.074489
H	 0.9844132461	 2.4356994558	-0.870666353	 0.249688
H	 2.7977042076	 1.5305502162	 1.9649563871	 0.135066
H	 3.4706045157	-0.0875961282	 1.5100763832	 0.125838
H	 4.118535314	 2.6856486685	 0.1514868516	 0.110558
H	 4.5972722941	-1.1343041279	-1.7605191349	 0.126693
H	 4.294379642	-1.0103086884	 0.0283360427	 0.126993
H	 2.4583155093	 0.1943572	-2.2397084665	 0.096792
39.925	130.4117	198.9866	256.3519	362.6844	413.7659	463.7273	507.7322	548.9221	602.7142	688.6606	752.0229	805.9561	812.892	872.6985	899.3963	969.4662	983.1084	999.436	1028.9005	1033.0766	1045.2993	1076.3373	1096.636	1110.3838	1137.7256	1153.4167	1202.2596	1224.4462	1262.054	1324.2958	1403.042	1437.1339	1482.6792	1511.2621	1527.9441	1819.1289	2926.0236	3127.2322	3146.3952	3150.3664	3194.1136	3215.0094	3226.1121	3598.6907
O=CNC12CC1N1CC21	O=CN[C@]12C[C@H]1N1C[C@@H]21	
InChI=1S/C6H8N2O/c9-3-7-6-1-4(6)8-2-5(6)8/h3-5H,1-2H2,(H,7,9)	InChI=1S/C6H8N2O/c9-3-7-6-1-4(6)8-2-5(6)8/h3-5H,1-2H2,(H,7,9)/t4-,5+,6-,8?/m1/s1
