21
gdb 114534	3.65786	1.21317	1.09798	1.3359	78.38	-0.2406	0.0915	0.3322	1206.1332	0.183714	-424.213557	-424.205468	-424.204524	-424.246158	32.137	
C	 0.0222273579	 1.4639858109	 0.1735489707	-0.385507
C	 0.0687349002	-0.0594888348	 0.0417737714	-0.199617
C	 0.719940037	-0.5187510461	-1.250531696	 0.235524
O	 2.0657434328	-0.0663138609	-1.2785457492	-0.294477
C	 2.8953102253	-0.8546561273	-2.1312730725	 0.12308
C	 2.0637967801	-1.4997700249	-3.2761713859	-0.282862
C	 1.6240725454	-2.5049506123	-2.1736293037	 0.120306
C	 3.0139579728	-2.2770372933	-1.5173708086	-0.235527
O	 0.6266116807	-1.93292572	-1.3282193813	-0.295728
H	 1.0302982169	 1.8858680353	 0.1537664385	 0.13534
H	-0.5478352578	 1.9175316503	-0.6450236387	 0.112101
H	-0.4549387297	 1.757977425	 1.1127588295	 0.112639
H	 0.62827801	-0.5053132145	 0.8708839607	 0.107501
H	-0.9410374563	-0.4834441423	 0.0666505216	 0.106226
H	 0.1899053538	-0.0846672993	-2.1154864352	 0.065381
H	 3.7845979314	-0.2625570837	-2.3522768	 0.078525
H	 1.3125983977	-0.9074008713	-3.8008554527	 0.10967
H	 2.7182445704	-1.9848641893	-4.0030211164	 0.107524
H	 1.285667154	-3.5082746633	-2.4363187001	 0.078716
H	 3.8026155585	-2.873134159	-1.9841893571	 0.096727
H	 3.063032029	-2.3422749794	-0.429385145	 0.104456
89.1575	127.658	191.5342	244.5528	323.2564	378.6879	457.8662	468.2179	482.0056	513.7715	625.329	764.3798	798.2152	852.0828	864.2792	871.1131	896.8218	934.9373	941.0128	965.0418	992.2391	1012.2669	1058.6196	1064.7091	1110.9625	1129.5091	1139.4045	1180.9092	1183.6763	1190.6686	1233.266	1260.6411	1281.1786	1285.1375	1338.9532	1358.8718	1370.78	1396.498	1410.4117	1430.2061	1462.7719	1477.903	1497.9872	1501.4712	1510.2217	2947.6568	3038.4999	3047.1858	3064.2763	3078.8279	3086.1768	3100.2005	3104.6876	3106.0161	3125.3812	3135.505	3137.531
CCC1OC2CC(C2)O1	CC[C@H]1O[C@@H]2C[C@@H](C2)O1	
InChI=1S/C7H12O2/c1-2-7-8-5-3-6(4-5)9-7/h5-7H,2-4H2,1H3	InChI=1S/C7H12O2/c1-2-7-8-5-3-6(4-5)9-7/h5-7H,2-4H2,1H3/t5-,6+,7-
