25
gdb 112644	2.27297	1.17225	0.84895	0.2017	95.34	-0.2247	0.0338	0.2585	1497.8151	0.228634	-352.388042	-352.377784	-352.37684	-352.422887	38.989	
C	 0.0078090352	 1.6319673293	-0.0084480392	-0.385828
C	-0.0379411637	 0.0996763307	-0.0069747393	-0.193547
C	 0.7508581255	-0.5327140169	-1.1566297604	 0.038335
C	 2.2771304914	-0.2601459886	-1.144054161	-0.311639
C	 2.8597202462	-1.4656928707	-1.8538301855	 0.32849
C	 4.2835585516	-1.4981923948	-2.3118056785	-0.492697
C	 1.9501853857	-2.4369606678	-1.9578601209	-0.169307
C	 0.6305745252	-2.0854457766	-1.3081211268	-0.050527
C	 0.4333294645	-2.8696238677	 0.0034331557	-0.386102
H	 1.0312188003	 2.0035013142	 0.1083676996	 0.117674
H	-0.385171322	 2.0381929634	-0.9476037378	 0.111767
H	-0.5899095814	 2.0472912749	 0.8090590675	 0.108563
H	 0.3418933161	-0.273208139	 0.9525036197	 0.094857
H	-1.0846862205	-0.2262817066	-0.067488786	 0.091353
H	 0.3670002799	-0.1082915934	-2.0941641734	 0.070005
H	 2.5383684632	 0.6849435129	-1.63534531	 0.095837
H	 2.6735674783	-0.1871586323	-0.1188118778	 0.095825
H	 4.9734337862	-1.3402880776	-1.472318876	 0.122069
H	 4.536243683	-2.4524880023	-2.7824669817	 0.120309
H	 4.4884552107	-0.6967998516	-3.0335111746	 0.121532
H	 2.1382820054	-3.413278395	-2.395530943	 0.07702
H	-0.2167982403	-2.3274416935	-1.9636196719	 0.065176
H	 1.2364893464	-2.6616777473	 0.7182369489	 0.113153
H	-0.5213193027	-2.6288461709	 0.4818060449	 0.110491
H	 0.4422826358	-3.9469180728	-0.1939248025	 0.10719
91.5889	111.4771	139.5016	169.8202	193.5942	226.2521	255.8766	270.841	325.249	380.4993	415.66	459.5278	491.9685	578.997	688.1933	763.4891	792.1419	851.243	876.5167	905.3208	939.1531	961.8086	978.1133	1004.4781	1035.1472	1043.6109	1050.3573	1090.2451	1102.7514	1146.9283	1150.9294	1187.2455	1215.0248	1278.5775	1298.7765	1302.5776	1313.8637	1338.8598	1355.2726	1372.2573	1393.0239	1403.5652	1411.5808	1414.8158	1479.5298	1483.624	1488.0125	1490.3218	1496.6108	1499.7953	1501.5562	1508.6698	1723.6431	2983.5726	2997.4263	3013.2509	3013.7911	3016.1571	3028.9788	3029.4134	3043.801	3054.1048	3057.5292	3094.7367	3096.0722	3101.6024	3103.0768	3106.4862	3170.0863
CCC1CC(C)=CC1C	CC[C@H]1CC(=C[C@H]1C)C	
InChI=1S/C9H16/c1-4-9-6-7(2)5-8(9)3/h5,8-9H,4,6H2,1-3H3	InChI=1S/C9H16/c1-4-9-6-7(2)5-8(9)3/h5,8-9H,4,6H2,1-3H3/t8-,9+/m1/s1
