14
gdb 128641	5.10779	1.10663	0.9148	0.7513	68.51	-0.2429	-0.0715	0.1714	1197.9488	0.101611	-470.019427	-470.011861	-470.010917	-470.051703	27.81	
C	 0.001043694	 1.3954044532	-0.0064150195	-0.228152
O	 0.0664270822	-0.0316866984	-0.0233341771	-0.241348
C	 0.6317982435	-0.603024482	-1.0893307698	 0.500955
N	 0.6609212292	-1.9494097903	-1.0409369175	-0.271654
C	 1.2122850079	-2.5333349978	-2.07789502	-0.058277
C	 1.7221393213	-1.7586984836	-3.1398077748	 0.422387
O	 2.285984529	-2.3669998418	-4.1994585353	-0.413733
N	 1.6596059803	-0.443778399	-3.1199904918	-0.285468
N	 1.0994515709	 0.1620944206	-2.0674676187	-0.29265
H	 1.001656321	 1.8346149279	-0.0484674514	 0.141012
H	-0.5794886539	 1.7717060089	-0.8533389456	 0.141009
H	-0.4879982889	 1.6494043901	 0.9344421541	 0.134779
H	 1.2668732825	-3.6188124084	-2.1000945772	 0.143653
H	 2.566257861	-1.6647307494	-4.8048647354	 0.307487
91.34	149.8296	202.3034	229.5628	382.47	385.7491	442.321	496.06	498.4007	573.1306	603.0735	662.8843	795.0724	828.6578	875.5969	971.1539	1048.4113	1080.2907	1172.6234	1180.2349	1194.5311	1224.9492	1306.2302	1380.9779	1424.1702	1452.0462	1480.3289	1495.9936	1519.5474	1588.2702	1633.115	3044.879	3117.1587	3153.4579	3167.2465	3749.9383
COC1=NC=C(O)N=N1	COc1ncc(O)nn1	
InChI=1S/C4H5N3O2/c1-9-4-5-2-3(8)6-7-4/h2H,1H3,(H,6,8)	InChI=1S/C4H5N3O2/c1-9-4-5-2-3(8)6-7-4/h2H,1H3,(H,6,8)
