20
gdb 61933	4.67473	0.67022	0.63506	3.838	80.29	-0.2826	0.0385	0.3211	1757.8504	0.170109	-403.151682	-403.141926	-403.140982	-403.187292	35.397	
O	-0.3737652883	 1.3067316616	 0.0057791255	-0.42708
C	-0.1110229165	-0.0923800846	 0.0397335803	 0.088595
C	 0.6624784297	-0.5414670831	-1.2086449147	-0.204126
C	-0.086254328	-0.1747568786	-2.5045245872	-0.340982
C	 0.6751850197	-0.5007578946	-3.7067483046	 0.254213
N	 1.2936188186	-0.7641859247	-4.6469041759	-0.307202
C	 0.5883523972	-0.5316020882	 1.3182171645	 0.008692
C	 1.6168504498	 0.338221941	 2.0002070274	-0.277393
C	 0.2648306722	 0.118921377	 2.6344983566	-0.271446
H	 0.4737195668	 1.765675194	-0.0199072553	 0.284016
H	-1.1091651922	-0.5508071983	 0.0181165775	 0.094659
H	 1.654052196	-0.0719321655	-1.2092289607	 0.11585
H	 0.8298619969	-1.6230383253	-1.1701861527	 0.120928
H	-1.0481387575	-0.6992514676	-2.5469952839	 0.150752
H	-0.3155141303	 0.8954405622	-2.501515862	 0.161951
H	 0.7856622976	-1.6001851389	 1.3454105648	 0.088804
H	 2.4853724172	-0.1439271912	 2.4340796913	 0.118701
H	 1.8243236734	 1.3262223991	 1.6005961083	 0.098818
H	-0.4276320845	 0.9525453941	 2.6093247784	 0.128
H	 0.2002683621	-0.5047752083	 3.5187434625	 0.114251
47.5592	71.7122	111.288	118.8244	212.4319	267.4486	274.6803	350.6514	369.772	399.5294	476.4472	576.5738	585.9587	769.2241	775.7983	793.1122	832.399	912.8783	919.8825	957.8677	1007.8303	1039.7312	1047.6306	1055.6404	1074.0174	1085.8271	1137.1633	1153.338	1168.935	1197.1753	1230.0604	1264.0777	1279.8293	1332.737	1343.3109	1384.799	1402.5624	1421.423	1461.7318	1470.7715	1489.875	1505.3721	2361.646	3017.808	3035.9558	3049.4393	3078.9009	3099.7711	3128.2746	3139.3189	3143.6681	3208.827	3232.2375	3795.377
OC(CCC#N)C1CC1	O[C@@H](CCC#N)C1CC1	
InChI=1S/C7H11NO/c8-5-1-2-7(9)6-3-4-6/h6-7,9H,1-4H2	InChI=1S/C7H11NO/c8-5-1-2-7(9)6-3-4-6/h6-7,9H,1-4H2/t7-/m0/s1
