21
gdb 112257	2.57564	1.08883	0.85418	3.4832	79.06	-0.2471	-0.0282	0.219	1413.9929	0.181114	-424.235984	-424.226203	-424.225259	-424.271117	35.889	
C	-0.0702222366	 1.6990406545	 0.1218298658	-0.387557
C	 0.1929874761	 0.2029260474	-0.0767265819	-0.180584
C	 0.7152340979	-0.4792023793	 1.1891691362	-0.026386
C	-0.3762619044	-0.7146550461	 2.2921505595	-0.351063
C	-0.3278956864	-2.2007576262	 1.928851014	 0.399995
O	-1.0752924457	-3.1314487564	 2.0796288827	-0.320057
C	 0.9448636754	-2.0343843174	 1.0996004199	-0.135141
C	 0.9562437069	-2.8232961236	-0.2121539257	-0.085512
O	 0.9059602721	-4.2111861879	 0.0565868068	-0.425119
H	 0.8464411144	 2.2251208688	 0.4102596235	 0.117964
H	-0.4444755359	 2.1594599207	-0.7973441774	 0.118464
H	-0.8130007702	 1.8753786974	 0.9072281029	 0.119695
H	-0.7305172778	-0.2892133055	-0.4092382448	 0.102201
H	 0.9196591954	 0.0667655885	-0.8872171443	 0.104901
H	 1.5943852689	 0.0580518631	 1.5544011298	 0.077195
H	-0.0221131801	-0.5319751477	 3.3116162419	 0.133277
H	-1.3449768398	-0.222430156	 2.1676291744	 0.129301
H	 1.8140418338	-2.3365352655	 1.6960002773	 0.111492
H	 0.1180775141	-2.5074219129	-0.8519357726	 0.090162
H	 1.8796333703	-2.6407907881	-0.7720250659	 0.110369
H	 0.1234822916	-4.3582000878	 0.6050582878	 0.296404
56.346	102.4478	126.9093	137.5277	185.8008	224.729	277.435	331.1524	383.3788	441.4857	478.8833	509.9181	562.1581	735.8526	745.8787	784.0512	812.752	869.5524	910.2406	963.8355	991.0008	1039.0017	1050.1512	1068.5548	1096.5738	1112.5763	1143.4613	1146.404	1204.6033	1212.3552	1239.7434	1258.9346	1300.602	1317.9302	1342.2575	1384.1165	1393.8447	1412.3504	1436.5902	1444.8327	1486.8006	1498.7148	1505.4648	1514.0743	1859.3377	2986.3461	3018.9945	3032.6184	3042.877	3049.6522	3056.03	3067.1604	3074.7656	3099.3001	3107.1391	3110.5485	3754.0206
CCC1CC(=O)C1CO	CC[C@H]1CC(=O)[C@H]1CO	
InChI=1S/C7H12O2/c1-2-5-3-7(9)6(5)4-8/h5-6,8H,2-4H2,1H3	InChI=1S/C7H12O2/c1-2-5-3-7(9)6(5)4-8/h5-6,8H,2-4H2,1H3/t5-,6-/m0/s1
