15
gdb 16212	3.10599	2.28526	1.50117	2.1669	61.02	-0.2247	-0.0414	0.1832	827.5486	0.11961	-399.784218	-399.77725	-399.776306	-399.815635	25.956	
O	 0.0456348211	 0.0366341398	 0.0268355356	-0.303071
C	-0.0137179547	 1.234047474	 0.1169803367	 0.341193
C	-1.2636120598	 2.1217797499	 0.1731757012	-0.291899
N	-0.8120462263	 3.4999065026	-0.0752009614	-0.300978
C	 0.5802939683	 3.5643686851	 0.4266604133	-0.278065
C	 1.1724751011	 2.1882931899	 0.1846734816	 0.313656
C	 2.5208425069	 1.7096050203	 0.4977964522	-0.238137
O	 2.15782782	 2.012981766	-0.847365398	-0.25877
H	-2.0225764531	 1.7960109295	-0.5410671601	 0.141169
H	-1.7036247523	 2.041693393	 1.1781883732	 0.137842
H	-0.7935299833	 3.6538855327	-1.0787916822	 0.232041
H	 1.144790612	 4.3516119123	-0.0760999433	 0.129663
H	 0.5585205423	 3.7889431763	 1.5012324693	 0.118355
H	 3.2309060784	 2.3953488382	 0.9590375853	 0.120426
H	 2.6616510694	 0.6516063004	 0.7123575967	 0.136574
75.1646	176.103	246.3816	255.4074	362.9347	441.7407	546.7012	575.6583	660.6128	710.0585	797.3207	828.393	877.4222	925.9592	952.8342	998.1656	1032.5852	1079.2334	1090.9364	1131.5224	1167.3646	1180.6353	1228.3913	1281.2381	1306.1981	1333.107	1426.1963	1457.1075	1466.2768	1482.589	1513.7585	1855.132	3007.2477	3022.6082	3083.2159	3115.1747	3119.6545	3178.6603	3513.1906
O=C1CNCC11CO1	O=C1CNC[C@]21CO2	
InChI=1S/C5H7NO2/c7-4-1-6-2-5(4)3-8-5/h6H,1-3H2	InChI=1S/C5H7NO2/c7-4-1-6-2-5(4)3-8-5/h6H,1-3H2/t5-/m1/s1
