18
gdb 92404	2.09988	1.64133	1.24203	5.0101	76.24	-0.2734	0.0175	0.2909	1079.0254	0.148377	-401.937327	-401.929093	-401.928149	-401.970255	31.482	
O	 0.5306443741	 0.8891551408	-0.8304655178	-0.418614
C	 0.1501130206	-0.1951465923	-0.0384196631	 0.099258
C	 0.203305323	-0.0927789409	 1.5131523842	-0.291248
C	-1.2110424494	-0.7258637639	 1.6189341827	-0.063578
C	-2.3540166466	 0.2964513868	 1.8010312602	-0.217194
C	-2.3634981447	 0.5679420116	 0.2686971171	-0.293044
C	-1.3611528818	-0.6093344996	 0.0416192955	 0.182137
C	-1.8030444564	-1.6898554852	-0.8036288682	 0.177807
N	-2.1472860385	-2.5695883254	-1.4727264746	-0.348058
H	 0.1527483324	 1.6944881265	-0.4616980571	 0.285781
H	 0.7326281573	-1.0466630697	-0.3984871491	 0.117735
H	 1.0169635286	-0.6501227529	 1.980180819	 0.121136
H	 0.2435387474	 0.9383426798	 1.8814145357	 0.099645
H	-1.2804516859	-1.6832339657	 2.1322668522	 0.092319
H	-3.2832610133	-0.1687942403	 2.1377776631	 0.119186
H	-2.1360416068	 1.1455532596	 2.454647448	 0.104676
H	-3.3279335907	 0.4279781437	-0.2195873633	 0.136827
H	-1.9700613593	 1.538285807	-0.0475101644	 0.095229
73.8471	130.4621	173.6723	238.5401	286.6116	346.2236	376.5683	483.5588	513.0575	557.7513	590.4263	622.9426	746.2696	774.6036	837.4264	892.5307	912.2002	941.7449	977.644	1023.1661	1035.2359	1050.8129	1117.7071	1135.4053	1146.9033	1178.1823	1203.6752	1238.3071	1247.8742	1257.7876	1282.1164	1301.6163	1316.5944	1331.7483	1433.2669	1477.6602	1482.8187	1498.2292	2340.0633	3047.1827	3058.6805	3064.396	3084.8442	3108.3048	3115.8216	3130.774	3135.0057	3809.512
OC1CC2CCC12C#N	O[C@H]1C[C@H]2CC[C@@]12C#N	
InChI=1S/C7H9NO/c8-4-7-2-1-5(7)3-6(7)9/h5-6,9H,1-3H2	InChI=1S/C7H9NO/c8-4-7-2-1-5(7)3-6(7)9/h5-6,9H,1-3H2/t5-,6+,7+/m1/s1
