15
gdb 51749	2.48368	1.24743	0.90745	5.8169	68.16	-0.2841	-0.0144	0.2697	1240.5789	0.111608	-453.915926	-453.90723	-453.906286	-453.951247	29.518	
N	-0.0640594715	 1.2745329907	-0.2308437766	-0.42209
C	-0.0741862614	 0.0189474232	-0.2785838029	 0.126619
O	-1.0825973112	-0.6650398336	 0.3243569416	-0.178145
C	-1.0709759387	-2.060018261	 0.2310694238	 0.075538
C	-1.9146925564	-2.7626922369	 1.3040685574	-0.105704
O	-2.642287958	-3.5057378943	 0.2947902911	-0.265415
C	-2.0542117575	-2.7491024079	-0.7762408167	-0.07423
C	-3.0008756608	-1.8600552171	-1.4528111887	 0.304865
N	-3.7398273891	-1.167630428	-2.0085901798	-0.307667
H	 0.7534866403	 1.641361214	-0.7131562412	 0.23977
H	 0.6672429244	-0.6345842955	-0.7580265833	 0.093859
H	-0.0520986002	-2.4464915082	 0.1303440238	 0.111162
H	-1.3913708327	-3.4234065529	 2.0003659435	 0.126065
H	-2.5607162416	-2.0677004751	 1.850831771	 0.143
H	-1.5846495555	-3.4018598472	-1.521066393	 0.132373
32.7287	66.059	91.242	142.0882	214.3011	255.2616	353.4686	412.5294	513.5034	569.1485	646.1669	806.4319	815.9607	824.2764	920.8605	973.4394	1023.4859	1027.7656	1040.4629	1062.6293	1104.5274	1158.463	1184.494	1237.2325	1262.0819	1276.4769	1340.6008	1351.939	1399.4136	1431.2062	1516.1266	1756.405	2360.4294	3025.1619	3044.5177	3049.4552	3064.4407	3108.9071	3526.5147
N=COC1COC1C#N	[NH][CH]O[C@H]1CO[C@H]1C#N	
InChI=1S/C5H6N2O2/c6-1-4-5(2-8-4)9-3-7/h3-5,7H,2H2	InChI=1S/C5H6N2O2/c6-1-4-5(2-8-4)9-3-7/h3-5,7H,2H2/t4-,5-/m0/s1
