20
gdb 59743	2.69501	1.33376	1.11997	4.6373	75.03	-0.2441	0.0536	0.2977	1186.28	0.171573	-440.344051	-440.334873	-440.333929	-440.378183	33.506	
C	-0.027897454	 1.4491564736	-0.2017842362	-0.394711
C	-0.0138216481	-0.0626929335	 0.0668340017	 0.047732
C	 0.7548580477	-0.4191830142	 1.3439615139	-0.390081
N	-1.3725686164	-0.6252920994	 0.0925092755	-0.143384
C	-2.0061029442	-1.1548064605	-1.1004327265	-0.193745
C	-3.3877408953	-1.5282619054	-0.540649982	-0.092742
O	-3.5453824456	-0.6999101021	 0.6156558296	-0.242242
C	-2.319849226	-0.226468667	 1.0066956356	 0.492564
O	-2.1654206482	 0.4292342363	 2.0041978608	-0.409075
H	 0.9943584695	 1.8294224423	-0.2902950894	 0.115414
H	-0.5548759818	 1.6812871767	-1.1331019981	 0.109257
H	-0.5249757558	 1.9717294527	 0.6189003527	 0.15492
H	 0.4781691997	-0.5622706994	-0.7761108342	 0.083858
H	 0.7743443468	-1.5026751146	 1.4930018414	 0.112292
H	 1.7866689302	-0.0626742521	 1.2686109083	 0.110015
H	 0.283969629	 0.041930008	 2.2135132757	 0.160389
H	-2.0747746055	-0.4007767064	-1.8994641619	 0.111158
H	-1.4700422633	-2.0227188618	-1.4970945011	 0.119879
H	-4.208155389	-1.3270603996	-1.2318317961	 0.127368
H	-3.4265533299	-2.5796264338	-0.2331573598	 0.121135
67.7477	104.4593	171.7317	193.6649	207.3664	226.3385	262.9091	315.1598	425.4365	456.8244	501.0589	651.9835	699.7246	769.9948	774.8534	879.1904	894.6187	932.8275	949.4704	976.5251	1018.5374	1078.3894	1139.844	1146.2462	1161.9911	1177.8432	1222.2245	1237.3463	1255.2276	1277.9467	1351.8615	1376.8179	1396.1534	1404.697	1415.3372	1454.8773	1480.6636	1496.8259	1499.1814	1518.2582	1522.3284	1534.8902	1856.06	2983.2683	3033.5107	3039.1154	3039.4073	3047.3217	3068.4614	3104.6422	3113.244	3115.3239	3133.2916	3148.6346
CC(C)N1CCOC1=O	CC(C)N1CCOC1=O	
InChI=1S/C6H11NO2/c1-5(2)7-3-4-9-6(7)8/h5H,3-4H2,1-2H3	InChI=1S/C6H11NO2/c1-5(2)7-3-4-9-6(7)8/h5H,3-4H2,1-2H3
