17
gdb 25779	4.31103	1.04558	0.8465	2.435	81.07	-0.2136	-0.0168	0.1968	1339.8458	0.136735	-418.053982	-418.045313	-418.044369	-418.087492	32.4	
C	-0.0035409461	 1.5076761669	-0.0767666447	-0.499162
C	-0.002547449	 0.013082279	 0.0126501775	 0.257153
C	-0.0360546264	-0.8746301641	-1.0206859016	-0.11513
O	-0.0247389705	-2.1559884892	-0.5664874559	-0.205573
C	 0.0179295202	-2.0913104665	 0.798633989	 0.422869
C	 0.0333658266	-0.7896298633	 1.1991835379	-0.368425
C	 0.0475642736	-3.3550642909	 1.5428598578	 0.217007
N	-0.0870478307	-4.4870980074	 0.758194981	-0.554669
N	 0.1482256336	-3.3039749503	 2.8200300141	-0.523462
H	 0.8918746172	 1.9360236702	 0.3869292016	 0.134711
H	-0.0335251149	 1.8424216202	-1.1173070091	 0.124388
H	-0.8695545807	 1.9379079039	 0.4381876577	 0.135167
H	-0.0699447627	-0.7564435559	-2.0917928714	 0.134039
H	 0.066248072	-0.4567742374	 2.2241440701	 0.13321
H	 0.1062580386	-4.3887736658	-0.2261412035	 0.261397
H	 0.2142468312	-5.3568745811	 1.1678691439	 0.247086
H	 0.1483972881	-4.2405492284	 3.2269584255	 0.199395
70.2048	120.9288	146.2719	173.0635	302.3813	317.94	392.6583	413.2114	453.9442	522.524	599.7618	612.9569	621.3055	704.7376	735.9934	759.5125	831.2424	866.4429	953.7446	985.7984	1017.9319	1065.6967	1084.8332	1119.6905	1151.9109	1169.223	1236.4244	1291.1995	1393.7531	1412.0675	1421.8906	1482.7573	1498.0555	1572.4105	1633.2737	1662.3266	1702.6434	3032.8428	3085.7335	3112.2108	3270.2481	3271.586	3460.8187	3584.9557	3700.4422
CC1=COC(=C1)C(N)=N	Cc1coc(c1)C(=N)N	
InChI=1S/C6H8N2O/c1-4-2-5(6(7)8)9-3-4/h2-3H,1H3,(H3,7,8)	InChI=1S/C6H8N2O/c1-4-2-5(6(7)8)9-3-4/h2-3H,1H3,(H3,7,8)
