23
gdb 109866	2.18121	1.43984	1.0203	1.7145	85.54	-0.241	0.0844	0.3254	1294.9534	0.203708	-388.270986	-388.260964	-388.260019	-388.305496	37.714	
C	 0.011646154	 1.5691714014	-0.1431067946	-0.389342
C	 0.1805771244	 0.0464421631	-0.0956152018	-0.186497
C	 0.7131351231	-0.4745173936	 1.2368246824	-0.067959
C	-0.2335508115	-0.6190725823	 2.5105638894	-0.020759
C	-1.716790474	-0.2820633711	 2.4230555304	-0.410178
C	 0.1231321091	-2.1129722582	 2.5204792723	-0.058147
O	-0.2790222359	-2.6520999477	 1.2502171721	-0.296182
C	 0.9955844546	-1.9870676356	 1.3429530277	 0.41415
C	 2.2108063178	-2.7355088495	 0.8998613397	-0.506631
H	 0.9657268875	 2.0776573818	 0.0371522393	 0.110561
H	-0.3585236875	 1.8949844327	-1.1203301674	 0.112036
H	-0.6963409389	 1.9225610356	 0.612872729	 0.120455
H	-0.7670163785	-0.4496530454	-0.3281745132	 0.111517
H	 0.8804204885	-0.2564922976	-0.886647019	 0.091418
H	 1.609612077	 0.0903872105	 1.5204020459	 0.065867
H	 0.2229419422	-0.1077510715	 3.3644266589	 0.071348
H	-2.1946225012	-0.834267693	 1.610076944	 0.134572
H	-2.2238612775	-0.5551819872	 3.3555984609	 0.111106
H	-1.8836371589	 0.7871590603	 2.260830474	 0.115336
H	 0.1578307283	-2.8045492063	 3.3562977846	 0.092863
H	 2.2815468998	-2.7559585545	-0.1937794914	 0.129632
H	 3.1201005449	-2.262492715	 1.2852205246	 0.121867
H	 2.1740105027	-3.7689310667	 1.2549489524	 0.132967
90.6923	118.8925	159.5568	186.8788	203.8174	220.0049	229.0226	262.8857	304.2925	338.5867	470.555	536.8468	564.4351	668.916	714.8296	727.567	817.6804	858.9501	866.2926	892.6829	959.1236	983.9764	1009.3685	1030.4491	1055.9193	1064.2106	1076.6342	1104.1629	1157.2651	1170.9059	1201.1513	1217.8675	1259.7124	1282.0366	1288.5046	1334.4039	1364.2065	1383.1709	1402.0056	1406.433	1412.0352	1468.5992	1484.0838	1486.7882	1491.0739	1496.0591	1500.4544	1505.7537	1509.6977	3015.1997	3027.3272	3031.9135	3032.7919	3035.0627	3055.1335	3074.432	3092.6847	3094.1811	3099.6294	3109.0062	3118.5309	3124.2354	3167.692
CCC1C(C)C2OC12C	CC[C@H]1[C@@H](C)[C@H]2O[C@@]12C	
InChI=1S/C8H14O/c1-4-6-5(2)7-8(6,3)9-7/h5-7H,4H2,1-3H3	InChI=1S/C8H14O/c1-4-6-5(2)7-8(6,3)9-7/h5-7H,4H2,1-3H3/t5-,6+,7-,8+/m1/s1
