22
gdb 12921	3.21798	1.52635	1.27788	0.2374	82.47	-0.2384	0.0895	0.3279	1094.4639	0.200266	-313.052652	-313.043949	-313.043005	-313.085559	33.343	
C	 0.0399565498	 1.4286556766	-0.2980817368	-0.369784
C	 0.0212317476	-0.0110752862	 0.2302612017	-0.210951
C	-1.3563448414	-0.6403019148	 0.1444789329	-0.027634
C	-1.9640331618	-1.2523515692	-1.0965067839	-0.113015
C	-0.9230086505	-2.0373433758	-1.9034168914	-0.22491
C	-0.6227520417	-2.9061496113	-0.6413200922	-0.282438
C	-1.6788012481	-2.1128052333	 0.1497873167	 0.326755
C	-2.623521396	-2.7382046865	 1.1372160541	-0.495356
H	 1.037943321	 1.8710421849	-0.2170048723	 0.10733
H	-0.2612267173	 1.4643437234	-1.3503505767	 0.118472
H	-0.6530360546	 2.0651363206	 0.2636296445	 0.11097
H	 0.7531063503	-0.608877229	-0.3227844888	 0.098435
H	 0.3546921712	-0.0211558179	 1.2764922455	 0.092355
H	-2.1025846319	-0.0777004641	 0.7068325056	 0.07302
H	-2.9196205761	-0.9137906048	-1.4825434532	 0.074171
H	-1.3697466526	-2.6249772599	-2.7084470061	 0.099088
H	-0.0910863791	-1.4621019872	-2.3233767963	 0.093661
H	-0.9174217946	-3.9492146463	-0.7844777926	 0.096653
H	 0.3996573097	-2.8920594089	-0.249580789	 0.091105
H	-2.1052319389	-3.0219629465	 2.0621364387	 0.116079
H	-3.4272233219	-2.0464268687	 1.4112579887	 0.114312
H	-3.0868886531	-3.6448573053	 0.7298089912	 0.111681
73.2914	161.115	196.8996	202.8553	228.5214	276.066	293.2044	334.5544	473.2634	519.4009	617.1339	715.4857	772.3868	791.7816	813.8841	873.9964	924.1463	936.7734	953.7694	973.3871	1000.8199	1006.8223	1065.7939	1072.2513	1112.2491	1124.8448	1149.1341	1170.138	1221.1405	1236.6378	1248.0218	1258.8918	1293.6552	1311.1785	1332.8773	1367.0803	1409.2276	1413.4589	1471.2814	1476.2566	1485.7875	1492.1941	1497.6527	1498.7055	1508.4383	1512.0768	3013.4698	3020.8629	3029.7424	3040.3091	3047.546	3066.9825	3069.0011	3086.3604	3089.5378	3095.9482	3102.7749	3105.0658	3107.3029	3163.2953
CCC1C2CCC12C	CC[C@H]1[C@H]2CC[C@@]12C	
InChI=1S/C8H14/c1-3-6-7-4-5-8(6,7)2/h6-7H,3-5H2,1-2H3	InChI=1S/C8H14/c1-3-6-7-4-5-8(6,7)2/h6-7H,3-5H2,1-2H3/t6-,7+,8-/m0/s1
