19
gdb 97908	4.00976	0.59371	0.54204	2.7329	82.07	-0.2517	-0.0381	0.2136	2043.592	0.156092	-423.0142	-423.003636	-423.002691	-423.053292	36.33	
C	 0.5314319713	 1.5823706201	 0.05437545	-0.363947
C	 0.8588353815	 0.0776966737	 0.0592895772	-0.314947
C	 0.7517298603	-0.5325595312	-1.2627246151	 0.091364
C	 0.6480044912	-0.9999962384	-2.3687384216	 0.024635
C	 0.5364305477	-1.6081960325	-3.6886397124	-0.37631
C	 1.1413892909	-3.0367202893	-3.7611379249	 0.05458
O	 0.8669014154	-3.6135474773	-5.0043595754	-0.428321
C	 2.6367827377	-3.0084618122	-3.5121345564	 0.139371
O	 3.4141265058	-3.4672941759	-4.3157141618	-0.263999
H	 1.213583533	 2.1262823905	-0.6044576842	 0.129412
H	-0.4885845148	 1.7565132267	-0.29836451	 0.130148
H	 0.6232948306	 1.994806935	 1.0634031397	 0.116636
H	 1.8728384732	-0.0746279994	 0.4508495031	 0.12876
H	 0.1869623805	-0.4409811914	 0.7550660771	 0.130701
H	-0.5143288138	-1.699255655	-3.9856552054	 0.149101
H	 1.0204904475	-0.9867585289	-4.4521107437	 0.137104
H	 0.6928870546	-3.6275991216	-2.9433302594	 0.105857
H	 1.7306277482	-3.8654302891	-5.370107559	 0.294658
H	 2.9719697692	-2.5454943437	-2.5654067379	 0.115198
4.3741	56.989	74.2538	129.7334	156.7073	186.4519	268.5792	294.5396	326.8705	391.8685	403.9181	471.1659	484.9998	527.2459	723.3569	761.0323	786.5953	833.1868	877.9381	965.9386	1019.128	1067.2308	1079.2323	1105.6927	1149.6173	1166.5418	1190.1046	1281.8618	1285.9348	1306.1231	1348.3166	1351.6879	1389.4232	1409.0894	1444.7759	1475.7864	1477.6562	1494.7314	1505.6872	1808.6264	2364.0792	2956.1505	2974.1964	3020.2862	3032.4017	3045.7054	3047.4629	3070.957	3119.6299	3125.277	3677.2396
CCC#CCC(O)C=O	CCC#CC[C@@H](O)C=O	
InChI=1S/C7H10O2/c1-2-3-4-5-7(9)6-8/h6-7,9H,2,5H2,1H3	InChI=1S/C7H10O2/c1-2-3-4-5-7(9)6-8/h6-7,9H,2,5H2,1H3/t7-/m1/s1
