16
gdb 19770	3.126	2.87803	2.42631	1.301	62.02	-0.2199	0.0795	0.2994	672.4353	0.133976	-383.723893	-383.718336	-383.717392	-383.75331	23.041	
C	 0.0516711075	 1.5928983076	-0.0528733108	-0.228082
C	 1.5476348168	 1.8411041294	 0.0724137526	-0.156282
C	 2.0790595629	 0.5668580932	 0.7135352154	 0.051204
O	 1.0051643921	-0.3104835112	 0.9665904779	-0.259357
C	 0.0224402899	 0.0494313068	-0.0146045703	 0.024867
C	 0.4953760302	-0.514597303	-1.3525160424	-0.055211
O	 1.7258835986	 0.0961733482	-1.748517	-0.275626
C	 2.3528883646	 0.8431211089	-0.7398542642	 0.089322
H	-0.4897737341	 2.0231397615	 0.7947515642	 0.109116
H	-0.3797405422	 1.9801730394	-0.9805847054	 0.111323
H	 1.9310037387	 2.828066795	 0.3018315892	 0.088679
H	 2.8526321195	 0.5180101836	 1.4699852534	 0.102902
H	-0.9325169403	-0.3860838871	 0.2855336237	 0.087637
H	 0.6385521497	-1.5990676006	-1.2538855348	 0.105289
H	-0.2411648342	-0.3294680555	-2.1452078671	 0.099437
H	 3.3595931102	 1.1081998239	-1.0431073714	 0.104782
167.1773	348.9109	400.8068	527.4283	566.3865	666.7016	699.5557	752.7919	771.1096	840.1412	848.2622	907.156	926.1423	943.7654	985.7771	1026.3781	1047.1615	1057.9537	1085.3536	1103.2518	1114.241	1120.6149	1176.0801	1216.9508	1236.6717	1261.7013	1293.5006	1322.9577	1342.9938	1365.4478	1399.9744	1434.5182	1489.3357	1508.6714	3005.4381	3044.8964	3053.8224	3099.3605	3103.092	3172.5697	3180.0779	3193.3879
C1C2C3OC1COC23	C1[C@H]2[C@H]3O[C@@H]1CO[C@@H]23	
InChI=1S/C6H8O2/c1-3-2-7-5-4(1)6(5)8-3/h3-6H,1-2H2	InChI=1S/C6H8O2/c1-3-2-7-5-4(1)6(5)8-3/h3-6H,1-2H2/t3-,4+,5-,6+/m0/s1
