16
gdb 133648	3.28723	0.69326	0.65217	3.3409	66.79	-0.2875	0.0148	0.3023	1719.3194	0.118492	-532.233086	-532.223302	-532.222358	-532.270551	33.864	
C	-0.0356603339	 1.5563408137	 0.0044026206	-0.378838
C	 0.0376541802	 0.0159566722	-0.0081355209	-0.145841
C	 0.7138520508	-0.5127587226	-1.2893575081	-0.378836
C	 0.7207180829	-0.4819584866	 1.1839365099	 0.197542
C	 1.2943410894	-0.8849027614	 2.1605540054	-0.226499
C	 1.9847684286	-1.3760287562	 3.3457934946	 0.261646
F	 2.0217110847	-2.7169081868	 3.3740146031	-0.072962
F	 3.2528962848	-0.9403383137	 3.3934792405	-0.073417
F	 1.3798920303	-0.9690692147	 4.4721277103	-0.072955
H	 0.9679745852	 1.9904098174	-0.0270836026	 0.132039
H	-0.5910408696	 1.9089665051	-0.8697729264	 0.120932
H	-0.5370850311	 1.9211243274	 0.9042348609	 0.132185
H	-0.9892096399	-0.3735759721	 0.019960262	 0.119846
H	 1.7416722207	-0.145453798	-1.3625992147	 0.132036
H	 0.7402985931	-1.6051706411	-1.3006788509	 0.132188
H	 0.1619019438	-0.1696059329	-2.1694556838	 0.120933
8.0032	75.0865	86.5129	183.7313	201.9487	227.4145	265.119	320.0797	423.6183	436.1466	454.4464	545.0178	561.16	617.2541	619.3828	736.6788	852.4946	934.0347	967.8841	977.9632	1118.7946	1123.7961	1176.602	1176.6297	1188.8845	1294.3721	1318.3303	1349.0773	1397.8075	1419.7327	1486.5127	1488.8481	1499.4433	1510.2861	2379.8493	3015.5179	3041.8332	3045.0526	3115.2032	3120.3245	3124.8234	3126.4739
CC(C)C#CC(F)(F)F	CC(C)C#CC(F)(F)F	
InChI=1S/C6H7F3/c1-5(2)3-4-6(7,8)9/h5H,1-2H3	InChI=1S/C6H7F3/c1-5(2)3-4-6(7,8)9/h5H,1-2H3
