25
gdb 120928	3.10524	0.87265	0.79489	0.3153	93.38	-0.2403	0.0867	0.327	1623.8159	0.228387	-352.342445	-352.33236	-352.331416	-352.377568	38.318	
C	-0.0245405207	 1.5828470576	 0.0883152365	-0.380272
C	-0.0886191541	 0.060060202	-0.0578674087	-0.159855
C	 0.8157154923	-0.4776191307	-1.1740781573	-0.192101
C	 0.7509722223	-1.9949290825	-1.3285379828	-0.032576
C	-0.5509844076	-2.6670504849	-1.8921012055	-0.24715
C	 0.2949512248	-3.3633355804	-2.9629879788	-0.093655
C	 0.9992968962	-2.3299107468	-3.7988081978	-0.327929
C	 1.5659435159	-2.6779599069	-2.4468422443	 0.353377
C	 2.9566697626	-3.2172840563	-2.2652786721	-0.49905
H	 0.9941704442	 1.9159264487	 0.316856916	 0.112159
H	-0.3333583968	 2.0822608351	-0.8369452213	 0.112562
H	-0.6784639419	 1.9370609391	 0.8915556062	 0.109148
H	 0.1919225119	-0.4118649498	 0.893362909	 0.091494
H	-1.125130992	-0.2454654004	-0.2518089836	 0.098042
H	 0.5431935941	 0.005559272	-2.1217562739	 0.089662
H	 1.8547290079	-0.1809937788	-0.9712440756	 0.088971
H	 1.0059048418	-2.4597534378	-0.3680422079	 0.06325
H	-1.0186859966	-3.3497000959	-1.1793003216	 0.098027
H	-1.3203262298	-1.9852220929	-2.2735382228	 0.088901
H	 0.1646900444	-4.3836238201	-3.3054101032	 0.07873
H	 1.5666689813	-2.718369149	-4.6393824572	 0.103934
H	 0.5292955475	-1.3684729513	-3.9949827879	 0.100093
H	 3.694348455	-2.4085694282	-2.1889509123	 0.117256
H	 3.0353067586	-3.8219743689	-1.3538380402	 0.11219
H	 3.2509891989	-3.848381873	-3.1107383329	 0.114793
73.8531	85.3278	116.5233	167.4406	202.6045	245.889	253.8323	306.2844	316.2637	389.3642	450.0426	502.1164	612.3036	721.5811	743.8452	803.6014	831.2688	857.9916	874.5043	901.6162	941.5565	963.437	974.1891	1003.5403	1029.5154	1045.4048	1049.846	1079.9766	1097.3128	1100.5186	1136.0929	1161.1733	1186.8325	1230.6081	1245.7863	1258.4207	1271.9833	1299.2054	1308.6441	1328.7376	1372.7918	1385.5626	1405.6334	1413.0739	1423.7749	1480.2996	1483.4217	1486.3185	1493.0681	1498.7809	1499.7706	1506.0984	1510.3846	3003.4621	3014.3315	3015.6226	3020.1651	3027.7991	3031.4637	3034.7622	3055.874	3071.1738	3090.5556	3094.1112	3099.2649	3100.6376	3102.1693	3170.9471	3189.7863
CCCC1CC2CC12C	CCC[C@H]1C[C@H]2C[C@@]12C	
InChI=1S/C9H16/c1-3-4-7-5-8-6-9(7,8)2/h7-8H,3-6H2,1-2H3	InChI=1S/C9H16/c1-3-4-7-5-8-6-9(7,8)2/h7-8H,3-6H2,1-2H3/t7-,8-,9-/m0/s1
