19
gdb 102915	2.48089	0.84063	0.66115	3.2374	77.32	-0.2476	-0.0358	0.2118	1649.824	0.156803	-419.213779	-419.203286	-419.202342	-419.25119	35.777	
C	-0.5001803737	 1.4728695158	 0.2472389603	-0.399934
C	-0.2954396	-0.0286958182	 0.0363031501	-0.174662
C	-1.5866601856	-0.8304480243	-0.1840472769	-0.068081
N	-2.3402855605	-0.5261801153	-1.4029314851	-0.310024
C	-3.4567778692	 0.4012587192	-1.2649115536	-0.268648
C	-4.156977177	 0.5609911369	-2.5437085544	 0.2572
N	-4.6932778708	 0.7076618113	-3.5558982148	-0.292215
C	-1.3149263921	-2.3413620179	-0.1684056936	 0.165824
O	-0.3415258763	-2.8581235792	 0.3121233332	-0.244136
H	 0.4550450494	 1.9674942822	 0.4461844664	 0.127468
H	-0.9351744018	 1.9557904972	-0.6340935946	 0.117091
H	-1.1591022909	 1.6722743484	 1.0998335301	 0.117449
H	 0.3668179124	-0.1996310525	-0.8228481831	 0.106191
H	 0.2211879199	-0.4691239465	 0.894402999	 0.130664
H	-2.2633555397	-0.6601945367	 0.6691018698	 0.10621
H	-1.7211283002	-0.232246079	-2.1494682936	 0.237649
H	-4.1687898732	-0.00961384	-0.5390910526	 0.160011
H	-3.1861213187	 1.4074852196	-0.9038285885	 0.139963
H	-2.120868392	-2.9297644709	-0.6592817781	 0.091977
32.4873	53.6356	84.5178	99.2013	147.9918	196.5335	249.4937	281.7595	316.0859	379.5203	397.7238	424.5317	545.7317	660.5955	700.7957	776.948	800.7189	933.3682	954.5964	978.9789	1017.6954	1032.6983	1099.6163	1106.0958	1169.667	1170.048	1241.6375	1267.7711	1300.3193	1332.6813	1370.8109	1387.5456	1406.7869	1414.1958	1477.6893	1491.7891	1499.9285	1504.0555	1510.5368	1834.5228	2368.9973	2901.0726	2968.4783	2986.8266	3028.1056	3032.8919	3054.1167	3081.7146	3102.813	3107.9659	3544.3312
CCC(NCC#N)C=O	CC[C@@H](NCC#N)C=O	
InChI=1S/C6H10N2O/c1-2-6(5-9)8-4-3-7/h5-6,8H,2,4H2,1H3	InChI=1S/C6H10N2O/c1-2-6(5-9)8-4-3-7/h5-6,8H,2,4H2,1H3/t6-/m1/s1
