18
gdb 23502	4.88224	1.16295	1.06169	1.0205	80.66	-0.2341	0.0169	0.251	1143.9897	0.1495	-401.873887	-401.866864	-401.86592	-401.905208	28.76	
O	-0.1511825358	 1.3422474083	 0.0485830338	-0.395277
N	 0.0193998597	-0.0575464715	 0.0096253267	-0.271084
C	-1.1041744062	-0.6498344096	 0.000374469	 0.436678
C	-2.5218814915	-0.1084866634	 0.0236043011	-0.341076
C	-3.2574793021	-1.4512042223	-0.0083787321	-0.016455
C	-2.4992049651	-2.4775568627	 0.8984070331	-0.051163
C	-2.90347203	-3.6134951199	-0.0691287472	-0.246743
C	-2.5105052123	-2.4266760335	-0.9784970617	-0.051163
C	-1.2837274526	-2.12989472	-0.0386597903	-0.096085
H	 0.7593593661	 1.6557166856	 0.051571029	 0.303951
H	-2.7198802026	 0.483216473	 0.9237619462	 0.123451
H	-2.7305139826	 0.5311027233	-0.8406828706	 0.123452
H	-4.3485172901	-1.4534900277	-0.0018709982	 0.068003
H	-2.4794053141	-2.4939066222	 1.9900511029	 0.074965
H	-2.2537775597	-4.4924866603	-0.0968684526	 0.094287
H	-3.9581120523	-3.9039283362	-0.0706526154	 0.092441
H	-2.5038426453	-2.3838556686	-2.0695824536	 0.074966
H	-0.4043601633	-2.7712036223	-0.0613405603	 0.076852
108.1334	204.455	279.3178	369.1544	392.2286	429.8588	470.3758	562.1139	679.2265	718.6973	748.9031	802.006	855.4663	875.8575	885.8875	917.1618	946.5244	967.7067	976.1632	994.453	1006.1464	1059.8611	1071.2508	1099.8355	1116.551	1137.0947	1185.2279	1203.2397	1206.3213	1226.9415	1245.925	1255.0802	1271.7424	1283.3769	1352.2941	1410.5824	1473.5941	1517.7777	1776.5313	3047.7757	3048.3054	3084.8501	3089.9224	3091.6525	3107.9052	3109.6046	3140.982	3818.7011
ON=C1CC2C3CC2C13	ON=C1C[C@@H]2[C@H]3C[C@@H]2[C@@H]13	
InChI=1S/C7H9NO/c9-8-6-2-3-4-1-5(3)7(4)6/h3-5,7,9H,1-2H2	InChI=1S/C7H9NO/c9-8-6-2-3-4-1-5(3)7(4)6/h3-5,7,9H,1-2H2/t3-,4-,5+,7+
