22
gdb 96110	2.12255	1.76442	1.21754	2.202	81.89	-0.2166	0.0685	0.2851	1125.2993	0.19509	-404.334256	-404.325382	-404.324438	-404.367189	35.115	
C	 0.0335342915	 1.528180598	-0.0096888765	-0.459432
C	-0.0818013368	 0.0181974124	 0.010907821	 0.352891
C	-0.8881172714	-0.6421822019	 1.0717302681	-0.274401
N	 0.5716158596	-0.6405093694	 1.1586778505	-0.141943
C	 1.2697714781	-1.9273987577	 0.9869268344	-0.142712
C	 1.5803828074	-2.301815232	-0.4663448667	-0.207642
C	 0.3423026665	-2.1070107281	-1.3438793311	-0.246316
C	-0.0354471243	-0.6234748786	-1.3707829139	 0.061526
O	-1.305827907	-0.391468587	-1.976096758	-0.441136
H	 1.0027703202	 1.840261331	-0.4161819017	 0.108841
H	-0.7538683908	 1.9564327407	-0.6377934692	 0.128768
H	-0.0550330776	 1.9357784078	 0.9999753639	 0.118968
H	-1.4070016783	-0.0382718798	 1.8132921661	 0.104854
H	-1.3899876439	-1.5768658804	 0.8282182098	 0.10643
H	 2.202925385	-1.8746808733	 1.5597865323	 0.102875
H	 0.6656798702	-2.7209510743	 1.4456459133	 0.099199
H	 2.3953227701	-1.670853872	-0.8454450626	 0.101137
H	 1.9404460992	-3.3353906651	-0.5076981147	 0.097864
H	 0.5278010271	-2.4482183062	-2.3698498005	 0.085235
H	-0.5009020161	-2.6959639062	-0.9638842646	 0.105283
H	 0.7464341632	-0.0947277326	-1.9433288929	 0.061213
H	-1.2476485518	-0.6665951253	-2.897220767	 0.278498
91.8916	188.2266	215.2347	234.3141	257.565	278.8739	326.9759	376.5265	415.5286	457.8224	486.2209	536.8506	617.2992	692.1418	741.1298	844.7326	896.7961	902.8107	920.478	935.2842	965.4701	1019.4216	1059.8549	1074.0389	1097.5997	1107.1897	1115.8337	1136.9704	1163.9719	1189.8471	1224.4168	1250.4367	1271.678	1288.0398	1342.2593	1373.914	1376.5576	1390.6898	1400.2011	1413.4652	1443.5208	1485.7437	1487.9032	1493.827	1500.9715	1504.5768	1527.8509	2943.8385	3014.6172	3018.8825	3025.4407	3030.6963	3051.2063	3065.3943	3074.8648	3089.5325	3097.2114	3125.8147	3168.6686	3805.2743
CC12CN1CCCC2O	C[C@]12CN1CCC[C@H]2O	
InChI=1S/C7H13NO/c1-7-5-8(7)4-2-3-6(7)9/h6,9H,2-5H2,1H3	InChI=1S/C7H13NO/c1-7-5-8(7)4-2-3-6(7)9/h6,9H,2-5H2,1H3/t6-,7-,8?/m1/s1
