18
gdb 31655	3.64203	1.08047	0.84224	1.7629	76.88	-0.1664	0.0623	0.2287	1352.2953	0.146214	-439.098783	-439.088954	-439.08801	-439.134114	34.663	
C	 0.0153251433	 1.3990851686	 0.0274346674	-0.237457
O	 0.0112459528	-0.0115503397	 0.0551556013	-0.268483
C	-1.2138483943	-0.6060033132	 0.0491332572	 0.358725
C	-1.3868643652	-1.9671371449	 0.0653158651	-0.240556
N	-2.7590816088	-2.2118361455	 0.0692618376	-0.040995
C	-3.3778337494	-3.5186726912	 0.0283150187	-0.340512
C	-3.4121037494	-1.0208234066	 0.0421016332	 0.399096
O	-4.7724815879	-1.0368388982	 0.0237751587	-0.444042
C	-2.5027334507	 0.0162628512	 0.0324563341	-0.472735
H	 1.0625286179	 1.7083008615	 0.0312828929	 0.126295
H	-0.4705869759	 1.7893716787	-0.8776561067	 0.114357
H	-0.487129603	 1.8245973165	 0.9073208543	 0.11381
H	-0.6732243583	-2.7719142794	 0.082212832	 0.111758
H	-2.8890447145	-4.1843790474	 0.7455200634	 0.135359
H	-4.4302458633	-3.4234420191	 0.2962461077	 0.155815
H	-3.3088339124	-3.9677349943	-0.9696673859	 0.133627
H	-5.082715095	-0.1299221229	 0.096877357	 0.306597
H	-2.7354466159	 1.0682381159	 0.0209133019	 0.089342
53.1809	62.7806	131.3466	186.0476	198.4512	205.1792	248.9851	292.1556	344.7187	394.851	533.4358	571.3133	607.133	645.1583	655.1081	659.8558	700.0151	826.5709	992.0971	1064.2679	1090.2275	1137.2688	1153.7564	1180.0118	1185.0674	1216.1609	1226.745	1291.6481	1365.2109	1415.1035	1454.6688	1480.5084	1486.2926	1491.7858	1509.3539	1510.9922	1574.0266	1581.622	1631.1902	2991.3282	3027.9444	3044.1353	3090.2042	3123.3391	3152.429	3258.6691	3283.301	3855.0114
COC1=CN(C)C(O)=C1	COc1cn(C)c(O)c1	
InChI=1S/C6H9NO2/c1-7-4-5(9-2)3-6(7)8/h3-4,8H,1-2H3	InChI=1S/C6H9NO2/c1-7-4-5(9-2)3-6(7)8/h3-4,8H,1-2H3
