19
gdb 52669	3.20812	0.78996	0.6828	3.8356	81.97	-0.2431	-0.0184	0.2247	1669.064	0.154658	-423.009799	-422.998566	-422.997622	-423.047999	37.963	
C	-0.1010509505	 1.5132452612	 0.0000122649	-0.501753
C	-0.0272627401	 0.059547497	 0.0044326414	 0.113576
C	 0.0348444908	-1.1435245865	 0.0302795347	 0.021009
C	 0.0631139205	-2.6059487211	 0.0105332912	-0.061174
O	-1.2363800885	-3.1733490847	 0.1725322564	-0.418459
C	 0.7383638525	-3.1546663131	-1.2689646705	-0.077577
C	 2.2276320236	-2.7806081238	-1.3476369004	-0.418017
C	 0.5960601129	-4.6674204646	-1.2818739771	 0.168316
O	 0.2350485786	-5.3141479449	-2.2290815304	-0.25386
H	 0.7683111853	 1.9532494568	 0.5004758182	 0.154676
H	-0.1347207229	 1.9099282333	-1.0203746636	 0.151873
H	-0.996979747	 1.8630390904	 0.5242192022	 0.155855
H	 0.6271460061	-2.9705675031	 0.8796449662	 0.11643
H	-1.8125704327	-2.7749776874	-0.4898832718	 0.286984
H	 0.2108199663	-2.7666026093	-2.1471949944	 0.093578
H	 2.6640522162	-3.125454651	-2.2886569056	 0.135385
H	 2.3484882931	-1.696096236	-1.2833384807	 0.138608
H	 2.7929993929	-3.2336609032	-0.5249165775	 0.122093
H	 0.8998801129	-5.1598465901	-0.3278335832	 0.072456
24.689	50.6726	75.6474	93.8062	150.1655	207.2603	217.8927	273.6046	287.6256	296.3285	339.7537	365.2332	419.7929	471.2226	567.7202	585.5556	787.7857	887.8111	920.6612	957.2156	1032.4067	1051.6668	1053.9555	1093.7654	1116.7002	1152.4923	1174.3813	1242.2654	1270.4824	1317.1745	1360.6179	1402.9469	1412.7762	1417.4614	1429.8372	1475.8644	1477.9667	1497.6007	1500.2648	1840.4087	2364.2084	2853.6914	3020.4845	3030.3366	3035.5232	3059.1509	3092.7167	3093.4848	3106.8643	3126.2801	3802.8533
CC#CC(O)C(C)C=O	CC#C[C@@H](O)[C@@H](C)C=O	
InChI=1S/C7H10O2/c1-3-4-7(9)6(2)5-8/h5-7,9H,1-2H3	InChI=1S/C7H10O2/c1-3-4-7(9)6(2)5-8/h5-7,9H,1-2H3/t6-,7+/m0/s1
