16
gdb 113628	3.61894	0.88609	0.85851	3.4783	72.76	-0.297	-0.1	0.197	1395.6371	0.12176	-437.881746	-437.872456	-437.871512	-437.916935	32.06	
C	-0.2522879716	 1.5864992303	-0.7557577545	-0.381672
C	 0.0315914346	 0.3116137867	 0.0511732478	-0.231651
C	-1.2465256446	-0.3998524642	 0.4122761061	 0.086256
O	-1.9101709796	-1.1316268586	-0.6103869523	-0.224839
C	-1.4101571849	-1.8828708826	 0.4812186828	-0.07986
C	-0.2576796978	-2.7951465074	 0.2057099436	 0.304334
O	 0.4396910493	-2.7756094479	-0.776355057	-0.269344
C	-0.002657488	-3.763121909	 1.2964251056	 0.212442
N	 0.1903059875	-4.5094872144	 2.1582862313	-0.293741
H	 0.680471859	 2.0986878579	-1.0061407298	 0.125495
H	-0.7689533933	 1.3445100383	-1.6888888141	 0.14113
H	-0.8789397529	 2.2863318635	-0.1926234632	 0.11911
H	 0.6733075307	-0.3598079539	-0.5241831758	 0.141511
H	 0.5588303419	 0.5633603593	 0.9798545139	 0.111571
H	-1.9270035576	 0.1584723025	 1.0598179893	 0.111896
H	-2.1544337726	-2.2869794905	 1.1678760665	 0.127365
43.0585	75.8404	125.319	152.9906	205.5157	238.1874	275.3572	293.3132	436.0154	450.7061	508.7484	596.5009	754.4187	758.0941	800.6311	863.0466	898.3154	962.1008	1021.9453	1046.8685	1081.5467	1092.9025	1157.2743	1174.7632	1275.5863	1297.1685	1345.6793	1401.7994	1410.6633	1461.5784	1478.1996	1499.6667	1507.8343	1791.9976	2337.6974	3037.7587	3040.7674	3084.0201	3101.1759	3116.164	3120.5612	3124.7521
CCC1OC1C(=O)C#N	CC[C@H]1O[C@H]1C(=O)C#N	
InChI=1S/C6H7NO2/c1-2-5-6(9-5)4(8)3-7/h5-6H,2H2,1H3	InChI=1S/C6H7NO2/c1-2-5-6(9-5)4(8)3-7/h5-6H,2H2,1H3/t5-,6+/m1/s1
