16
gdb 22972	2.76481	1.21573	0.96662	7.2607	76.64	-0.2352	-0.0716	0.1637	1209.7813	0.125855	-433.989832	-433.981707	-433.980763	-434.023133	29.411	
O	-0.0613933974	 0.5249953677	 1.152695332	-0.4214
N	 0.2570643872	 1.7137222025	 0.941815942	 0.060166
C	 1.2727654161	 2.1785490072	 0.2289834633	 0.118644
C	 2.1448788268	 1.2586686416	-0.3984126872	 0.254238
N	 2.8988318259	 0.5637362778	-0.9403029877	-0.333737
C	 1.4761428902	 3.6663121512	 0.101096298	-0.100834
C	 0.1826989467	 4.4584296978	-0.2655003571	-0.174346
N	-0.0552155971	 4.6268745997	 1.1903557725	-0.322168
H	-0.4611986321	 5.508665637	 1.4857099745	 0.232971
H	-0.3274181793	 2.4617725079	 1.363491712	 0.282997
C	 1.3941037721	 4.4403672476	 1.4533685587	-0.174523
H	 2.3529009783	 3.8547216808	-0.5148066472	 0.112347
H	 0.4177311242	 5.3921313377	-0.7936589145	 0.110591
H	-0.6034346035	 3.9221816144	-0.8048236372	 0.122252
H	 1.632328575	 3.8889081966	 2.3674866869	 0.122192
H	 1.9797955068	 5.3688099724	 1.422662861	 0.110611
66.4782	147.4712	164.6372	170.7208	258.0419	346.928	369.5833	413.6373	488.6525	640.1504	648.1681	724.7648	805.1798	833.2063	931.818	967.1665	990.2388	1029.3521	1032.998	1050.5223	1105.8284	1118.6687	1185.9176	1199.1148	1223.0397	1269.515	1327.6396	1352.0035	1370.396	1416.6724	1502.9776	1506.4999	1531.9537	1653.348	2324.4064	3010.2678	3016.245	3086.9997	3087.2688	3141.4728	3210.8074	3523.2679
[O-]N=C(C#N)C1C[NH2+]C1	[O]N[C](C#N)C1CNC1	
InChI=1S/C5H7N3O/c6-1-5(8-9)4-2-7-3-4/h4,7,9H,2-3H2	InChI=1S/C5H7N3O/c6-1-5(8-9)4-2-7-3-4/h4,7-8H,2-3H2
