14
gdb 5375	5.12787	1.72735	1.30255	4.2826	70.32	-0.227	-0.0642	0.1628	898.1593	0.107638	-378.739088	-378.731973	-378.731029	-378.771029	25.436	
C	 0.0004110462	 1.4365664881	-0.0174401508	-0.315438
N	-0.00844748	-0.0130871891	 0.0180986462	-0.295747
C	 0.5296985137	-0.6574114492	-0.9214628551	 0.450327
O	 1.1351117098	 0.0710748927	-1.9988129475	-0.230189
C	 1.7124725186	-0.5878125466	-3.0072688149	 0.099495
C	 1.7547223582	-1.9311159202	-3.0630410852	-0.201727
C	 1.1367292823	-2.6234845699	-1.9639874075	 0.017482
N	 0.5653040553	-2.0365933691	-0.9649691006	-0.274769
H	 1.0207932378	 1.8435294333	-0.037473184	 0.11892
H	-0.5166525358	 1.8312095433	-0.9029607619	 0.118999
H	-0.5043979009	 1.816442678	 0.873533956	 0.122896
H	 2.1290258918	 0.0842507608	-3.7509255242	 0.143076
H	 2.2253676241	-2.4500682528	-3.8854829886	 0.120384
H	 1.1389437189	-3.7134959293	-1.952797902	 0.126291
59.5034	103.252	223.2428	236.7619	375.6989	489.9433	518.1152	592.7411	612.8729	709.2168	766.8331	786.6428	947.8581	963.7387	972.1333	999.141	1050.4127	1102.5862	1108.0429	1110.6637	1195.8051	1281.3602	1413.5495	1436.7579	1446.8763	1483.6836	1499.0537	1585.8822	1698.3682	1760.9399	2997.306	3045.4607	3109.2798	3131.5561	3190.6824	3241.763
CN=C1OC=CC=N1	C[N]C1=NC=CCO1	
InChI=1S/C5H6N2O/c1-6-5-7-3-2-4-8-5/h2-4H,1H3	InChI=1S/C5H7N2O/c1-6-5-7-3-2-4-8-5/h2-3H,4H2,1H3
