17
gdb 98120	4.6778	0.829	0.71027	2.4809	74.28	-0.2412	-0.0759	0.1653	1561.5449	0.134128	-455.194133	-455.184264	-455.18332	-455.23014	33.685	
C	-0.0658675252	 1.6257881491	 0.0123642002	-0.388065
C	-0.0277908551	 0.1007571802	 0.0037706759	-0.273269
C	-1.3933598403	-0.53446465	 0.0128062179	 0.297538
O	-2.4370465561	 0.0818349346	 0.0265767858	-0.316805
C	-1.4098599546	-2.0869707561	 0.0039979189	 0.338937
O	-0.3885803445	-2.7315044045	-0.0096071786	-0.312446
N	-2.7042115089	-2.5535448384	 0.0147438793	-0.323523
C	-3.1724452318	-3.8636754463	 0.0123338553	 0.084605
N	-2.4198233094	-4.8823842291	 0.0000127866	-0.395123
H	 0.9482560108	 2.0332650977	 0.0054291675	 0.119108
H	-0.5980803881	 2.0109094247	-0.8615387494	 0.131648
H	-0.5822295675	 2.0013814594	 0.8998137308	 0.13167
H	 0.5098794337	-0.2973891534	-0.8666042593	 0.149268
H	 0.525479964	-0.306613242	 0.8600140921	 0.14927
H	-3.3887054913	-1.8072035392	 0.0256383166	 0.271944
H	-4.269454003	-3.8782431897	 0.0224223138	 0.102141
H	-2.9875594326	-5.7285012171	 0.0007751966	 0.233102
47.8898	65.0709	91.4987	132.0083	175.245	202.75	227.7877	303.8031	323.8791	418.5979	506.1936	568.9751	669.9173	725.4636	727.0908	820.5476	834.2718	917.5749	941.9679	1006.6674	1067.6057	1080.146	1088.501	1136.4778	1219.8352	1257.6045	1262.1479	1378.2407	1417.5673	1428.813	1430.1703	1495.9008	1498.9862	1551.0879	1727.6202	1796.6587	1820.5376	3038.9233	3039.0169	3052.1731	3059.7553	3123.958	3126.1778	3498.9789	3571.4486
CCC(=O)C(=O)NC=N	CCC(=O)C(=O)NC=N	
InChI=1S/C5H8N2O2/c1-2-4(8)5(9)7-3-6/h3H,2H2,1H3,(H2,6,7,9)	InChI=1S/C5H8N2O2/c1-2-4(8)5(9)7-3-6/h3H,2H2,1H3,(H2,6,7,9)
