19
gdb 94161	2.30119	1.41848	1.20982	5.9915	71.17	-0.2388	0.0216	0.2603	1124.9415	0.15968	-456.35716	-456.347918	-456.346974	-456.391094	34.505	
C	-0.0847738827	 1.6234611187	 0.0558029636	-0.455572
C	 0.0246564458	 0.1060217315	 0.0203598262	 0.148613
N	 1.0841959628	-0.4636272829	-0.8678962259	-0.367376
H	-0.3210446653	-1.662319947	-1.3092979195	 0.299218
H	 1.4216486497	 0.1651297735	-1.5897650954	 0.228081
C	 2.0028465951	-0.6760727815	 0.2788415209	-0.196907
C	 0.790912766	-0.5327999807	 1.2461641224	 0.00251
N	 0.8582526978	 0.2300175587	 2.4624079787	-0.506686
C	-1.3408957001	-0.5389975865	-0.2466340241	 0.404177
O	-1.2667951997	-1.6174545628	-1.0413607144	-0.382972
O	-2.369749821	-0.1461811266	 0.2369624396	-0.349537
H	 0.8780291841	 2.0918295188	 0.28434096	 0.099775
H	-0.4281521367	 2.0053534737	-0.9114975157	 0.124372
H	-0.8115419841	 1.9191227714	 0.8137429371	 0.168824
H	 2.5407410323	-1.6291319864	 0.2586980663	 0.110931
H	 2.7283606841	 0.1364417999	 0.4205808853	 0.095403
H	 0.363725744	-1.511131693	 1.4792529909	 0.108232
H	 1.1544194237	-0.3410265036	 3.2445930789	 0.239055
H	 1.4989934142	 1.0119869549	 2.3894383352	 0.229858
72.0625	122.9772	165.8724	198.942	217.2082	255.9622	272.3495	362.6652	402.5949	447.1257	472.7995	589.3863	684.8409	718.4305	749.8796	769.682	820.1391	885.4454	903.1011	934.4677	947.4769	1012.6529	1024.4368	1092.9835	1131.6689	1167.4108	1172.368	1198.7929	1226.0493	1266.6063	1277.1367	1321.4622	1366.9235	1402.163	1432.5145	1436.7718	1486.4268	1492.3146	1513.4357	1663.0292	1861.9629	3008.5664	3038.8771	3070.177	3088.2298	3100.1892	3148.4898	3450.2617	3520.3375	3521.0505	3604.8096
CC1([NH2+]CC1N)C([O-])=O	C[C@]1(NC[C@H]1N)C(=O)O	
InChI=1S/C5H10N2O2/c1-5(4(8)9)3(6)2-7-5/h3,7H,2,6H2,1H3,(H,8,9)	InChI=1S/C5H10N2O2/c1-5(4(8)9)3(6)2-7-5/h3,7H,2,6H2,1H3,(H,8,9)/t3-,5-/m1/s1
