15
gdb 128650	3.62741	1.21132	0.91865	4.1724	64.52	-0.2258	0.0316	0.2573	1219.3774	0.11227	-491.117305	-491.108658	-491.107713	-491.151139	29.764	
C	 0.0417895225	 1.3574744682	 0.0565758475	-0.24073
O	-0.0050068347	-0.0712094381	-0.0793375342	-0.242317
C	 0.6227343732	-0.5510003475	-1.1322474846	 0.527451
N	 1.2654657001	 0.090446582	-2.0448532224	-0.380486
N	 1.7041868107	-0.9423468125	-2.8806250844	-0.096527
C	 2.4822234283	-0.6700114248	-4.0626468123	-0.328892
C	 1.3108095772	-2.1683869371	-2.4450338644	 0.483523
O	 1.4866588853	-3.2698767041	-2.8818267017	-0.397402
O	 0.5830844706	-1.8889826897	-1.2648118141	-0.2341
H	 1.077429713	 1.6965537806	 0.1443011315	 0.150548
H	-0.4218437644	 1.8363939395	-0.8099840306	 0.150483
H	-0.5154269489	 1.5819415991	 0.9648467342	 0.149111
H	 1.9223169303	-0.0350030317	-4.7559520069	 0.144169
H	 3.4212250707	-0.1727552834	-3.8011826207	 0.144201
H	 2.6952308061	-1.6297793903	-4.5354686367	 0.17097
94.1204	110.6812	141.3658	159.686	194.5619	235.0894	295.8325	360.8466	407.982	578.4102	687.2897	701.9783	702.0591	757.4647	840.9187	960.1929	1037.8634	1042.1784	1103.6272	1160.6077	1181.6905	1224.0248	1279.3907	1417.4511	1425.2744	1447.6602	1479.5198	1480.001	1490.2182	1501.0303	1519.8715	1703.3702	1912.0888	3041.414	3050.2269	3102.8141	3125.6618	3155.5133	3171.0214
COC1=NN(C)C(=O)O1	COc1nn(C)c(=O)o1	
InChI=1S/C4H6N2O3/c1-6-4(7)9-3(5-6)8-2/h1-2H3	InChI=1S/C4H6N2O3/c1-6-4(7)9-3(5-6)8-2/h1-2H3
