17
gdb 13114	4.05976	1.26394	1.03514	4.3218	65.14	-0.2375	0.0065	0.2441	1144.3342	0.142218	-401.010031	-401.001786	-401.000842	-401.043469	29.023	
C	 0.0308692805	 1.4909662441	 0.0860369988	-0.391849
C	 0.1862051985	-0.0252367378	 0.0528285441	-0.115905
N	 0.468605368	-0.4858805098	-1.311781501	-0.305473
C	 0.6195064498	-1.9221663652	-1.4108791447	-0.157585
C	 1.1343170585	-2.4574870431	-2.7593296582	-0.104523
O	 2.3530092185	-2.95230238	-2.1141895151	-0.235571
C	 1.9725573984	-2.4500349532	-0.8974088267	 0.48257
O	 2.5801363788	-2.4723456755	 0.1239545122	-0.323251
H	 0.9343787504	 1.9797070309	-0.2887701402	 0.132382
H	-0.8130102986	 1.8169449802	-0.5336308172	 0.109527
H	-0.1556076669	 1.8364868831	 1.1068149452	 0.121387
H	 1.0249737045	-0.334282473	 0.684353858	 0.141899
H	-0.717050723	-0.5056883476	 0.4728322311	 0.080023
H	-0.2854362413	-0.1895464644	-1.9259507786	 0.219431
H	-0.22198374	-2.5060060404	-0.9981447931	 0.091713
H	 0.5756618037	-3.2783709534	-3.2121215806	 0.124662
H	 1.3736534403	-1.6842488947	-3.4916104343	 0.130563
74.9654	93.1673	113.1522	188.9309	243.3773	267.9447	382.4528	411.5499	511.5713	711.7534	753.7052	790.706	824.2559	840.829	925.8095	946.2168	970.4731	1063.488	1074.7226	1125.3711	1146.894	1161.9379	1174.2268	1191.1929	1247.7407	1304.7009	1330.3222	1376.8706	1392.7719	1416.1449	1478.7495	1497.2887	1499.4685	1506.5639	1525.8146	1935.6827	2930.0177	2946.6947	3032.9963	3076.6297	3078.0032	3103.8483	3123.5564	3142.7074	3491.3255
CCNC1COC1=O	CCN[C@H]1COC1=O	
InChI=1S/C5H9NO2/c1-2-6-4-3-8-5(4)7/h4,6H,2-3H2,1H3	InChI=1S/C5H9NO2/c1-2-6-4-3-8-5(4)7/h4,6H,2-3H2,1H3/t4-/m0/s1
