19
gdb 74523	4.1536	1.12342	1.03588	1.4929	77.56	-0.2171	0.0577	0.2748	1210.3231	0.161276	-419.225725	-419.217537	-419.216593	-419.259119	31.588	
N	 0.3017446916	 1.3491767717	-0.2516879636	-0.57956
C	 0.065658826	 0.0096260112	-0.1114558142	 0.452854
N	-1.032548481	-0.5434445392	 0.230399646	-0.387036
C	-0.8282968432	-1.9815987717	 0.1246379348	 0.329988
C	-1.3213907979	-2.8663083163	 1.3071062886	-0.270235
C	-1.9013392652	-3.8789674864	 0.2838063423	-0.215234
C	-1.8073524123	-2.771650314	-0.7989582719	-0.266672
C	 0.6810706647	-2.1244875987	-0.2272178629	-0.164327
O	 1.1328746202	-0.7705178636	-0.4325903289	-0.254208
H	 1.2616076626	 1.63422929	-0.1346230815	 0.261934
H	-0.3772932024	 1.9362666315	 0.2063311186	 0.268068
H	-0.5673355708	-3.221592949	 2.0162037945	 0.086709
H	-2.1056838175	-2.3421464303	 1.8584236365	 0.113431
H	-1.2169563486	-4.7101742784	 0.0892596473	 0.097309
H	-2.8902098169	-4.2917211128	 0.4930214232	 0.099172
H	-2.7431714726	-2.2177053318	-0.904245224	 0.113152
H	-1.4447981257	-3.0476122951	-1.7936568237	 0.088824
H	 1.2704294509	-2.5607704867	 0.5868989966	 0.109995
H	 0.8698228782	-2.6885463004	-1.1451402975	 0.115836
38.2051	104.6304	175.5058	300.4638	316.9732	389.6041	422.1703	445.6471	480.5976	544.7554	677.0819	709.8355	738.0447	787.7314	827.9239	865.0084	910.5503	915.2936	936.5297	948.5345	975.0076	1036.7345	1050.3654	1114.5408	1132.2256	1185.4358	1197.4539	1207.3825	1232.5523	1248.997	1260.8896	1271.2983	1290.0605	1355.671	1432.1297	1469.4883	1484.0486	1505.4153	1522.1404	1617.4248	1747.6863	3036.6991	3047.9408	3050.9244	3060.5129	3087.8948	3100.5698	3112.9832	3123.8061	3592.1069	3706.4844
NC1=NC2(CCC2)CO1	NC1=NC2(CCC2)CO1	
InChI=1S/C6H10N2O/c7-5-8-6(4-9-5)2-1-3-6/h1-4H2,(H2,7,8)	InChI=1S/C6H10N2O/c7-5-8-6(4-9-5)2-1-3-6/h1-4H2,(H2,7,8)
