19
gdb 56024	3.64971	0.97082	0.8724	3.1267	72.54	-0.2417	-0.011	0.2307	1374.0209	0.157945	-460.184642	-460.175266	-460.174322	-460.220671	32.558	
C	-0.7893842671	 0.8758568032	 0.2257081786	-0.479878
C	 0.4271173511	 0.0295665035	-0.0766485487	 0.392031
O	 1.3641741368	-0.0712553738	 0.680921829	-0.308783
C	 0.4061250169	-0.7511870869	-1.3924686364	-0.320429
C	 0.0606114812	-2.2092661365	-1.1191448934	 0.227475
O	-1.2498198285	-2.3104146691	-0.5762513442	-0.273625
C	-1.8450162098	-3.5001385783	-1.0899902579	-0.089528
C	-0.7736566446	-4.069254571	-2.0432138378	-0.11487
O	 0.0493954222	-2.9452457825	-2.3158437764	-0.246651
H	-0.6957844975	 1.3378663135	 1.2090951691	 0.13732
H	-0.9100454358	 1.6513054893	-0.5399516752	 0.135584
H	-1.6815724657	 0.2415187845	 0.1826881093	 0.158427
H	-0.3235536795	-0.3524722001	-2.1016932447	 0.110696
H	 1.4058898363	-0.7166863035	-1.8329427932	 0.135929
H	 0.784324555	-2.6441462702	-0.406911144	 0.085312
H	-2.0860116513	-4.1920562312	-0.2749267632	 0.110263
H	-2.7705419214	-3.2358991649	-1.613699411	 0.112424
H	-0.1943969145	-4.8684457182	-1.5580441472	 0.105606
H	-1.1750828139	-4.4431908978	-2.9869824927	 0.122697
37.3544	61.5347	70.0047	120.6751	177.9095	199.6727	292.1519	391.5015	443.3847	540.2847	593.7122	694.4749	725.0319	802.4868	857.0679	875.2279	925.6626	950.7383	974.1302	1037.6331	1063.4354	1073.0251	1086.2356	1147.7379	1167.2877	1178.0921	1225.2474	1240.1407	1247.463	1301.9425	1345.3109	1376.7096	1378.3345	1399.3245	1418.3769	1460.8929	1471.111	1474.8102	1515.2374	1532.2767	1814.0882	2950.1782	2998.8808	3029.4478	3034.1427	3066.7295	3068.5451	3098.6173	3113.7693	3128.0605	3153.6805
CC(=O)CC1OCCO1	CC(=O)CC1OCCO1	
InChI=1S/C6H10O3/c1-5(7)4-6-8-2-3-9-6/h6H,2-4H2,1H3	InChI=1S/C6H10O3/c1-5(7)4-6-8-2-3-9-6/h6H,2-4H2,1H3
