19
gdb 75384	2.5973	1.76632	1.23739	1.5858	76.16	-0.2453	0.0173	0.2626	1046.1995	0.161057	-423.048371	-423.04056	-423.039616	-423.080916	29.866	
C	-0.0635700009	 1.5060625361	 0.1168888974	-0.497662
C	 0.0238189307	 0.0161754084	 0.0279153038	 0.309394
C	 0.1536009401	-0.7434233926	-1.0619592495	-0.170184
C	 0.2104118422	-2.2208144557	-0.7645718287	-0.281243
C	 0.2486004674	-2.2875986991	 0.7807801689	 0.080162
O	 1.5372566975	-2.6074691961	 1.3046295555	-0.260318
C	 2.1254351479	-1.3997892154	 1.7368316032	 0.013581
O	 1.0778885273	-0.5710566202	 2.1772203756	-0.249831
C	-0.0070299875	-0.834220144	 1.2816938973	-0.022771
H	 0.713768517	 1.8951091173	 0.7843100062	 0.140395
H	 0.0479639332	 1.9790106142	-0.8623433221	 0.121865
H	-1.0254252007	 1.8220241576	 0.5413272833	 0.125342
H	 0.1977364079	-0.3560051298	-2.0756429474	 0.09126
H	-0.6660667455	-2.747967449	-1.163922643	 0.107214
H	 1.0916034255	-2.7140367392	-1.1896621787	 0.119482
H	-0.4537687429	-3.0217054309	 1.1827574159	 0.086095
H	 2.793856382	-1.6051174769	 2.578022591	 0.117193
H	 2.6849298106	-0.924032688	 0.9126611298	 0.08422
H	-0.9261415518	-0.7044079367	 1.8624973214	 0.085807
69.8072	168.8057	187.0458	223.0039	264.5957	347.5353	418.4712	523.9647	576.9129	683.6758	739.3771	779.7101	838.2232	864.3625	884.1432	934.747	968.3548	979.7734	1007.9086	1032.6887	1038.1212	1059.1679	1077.2819	1106.1957	1174.0001	1187.6917	1196.7858	1231.0339	1269.2325	1280.3901	1325.1102	1336.6877	1353.7143	1372.5915	1410.712	1428.7757	1476.4215	1478.3768	1492.1616	1542.0466	1724.7578	2949.378	3021.0322	3021.3227	3053.9839	3065.0246	3074.0158	3079.7237	3086.9082	3114.8846	3175.3346
CC1=CCC2OCOC12	CC1=CC[C@H]2OCO[C@@H]12	
InChI=1S/C7H10O2/c1-5-2-3-6-7(5)9-4-8-6/h2,6-7H,3-4H2,1H3	InChI=1S/C7H10O2/c1-5-2-3-6-7(5)9-4-8-6/h2,6-7H,3-4H2,1H3/t6-,7+/m1/s1
