17
gdb 19570	3.93364	1.99723	1.85013	2.4616	67.3	-0.2416	0.0759	0.3174	791.9453	0.144536	-363.803507	-363.797217	-363.796273	-363.833633	25.598	
C	 0.0004855645	 1.5677449768	-0.0095714322	-0.342359
N	 1.2327024803	 0.7333382753	 0.0548615576	-0.390146
C	-0.0643147975	 0.0988361781	 0.0084213231	 0.440895
C	-0.5390808857	-0.9811569181	 0.9843029706	-0.004606
C	-2.0720737756	-0.9576209554	 0.8091470709	-0.21793
C	-2.0968804036	-0.9373617528	-0.758069777	-0.218213
C	-0.5690453846	-0.9559952513	-0.9805647384	-0.024336
O	-0.1356854258	-1.9718555967	-0.0206462268	-0.302072
H	-0.2003290307	 2.1472788992	 0.8876297763	 0.122245
H	-0.2335286102	 2.080674776	-0.9399309645	 0.113079
H	 1.6867537598	 0.7009913579	-0.8551372672	 0.23326
H	-0.0985375128	-1.1319682255	 1.9684695966	 0.090221
H	-2.5353046945	-1.8535967246	 1.2264538845	 0.110351
H	-2.5366685214	-0.0771427897	 1.260865443	 0.101588
H	-2.5698790711	-1.824551886	-1.1837548491	 0.109728
H	-2.5772374549	-0.0476544472	-1.1737733428	 0.099796
H	-0.1700989061	-1.0847745958	-1.9876624246	 0.078501
173.7568	230.2828	288.2123	347.6508	437.8164	570.0652	612.5107	707.7371	820.437	833.0912	864.3586	889.0611	900.8615	905.9491	928.3996	945.3756	968.5048	972.6469	1008.6129	1038.7626	1067.8209	1110.027	1140.8229	1190.7971	1214.6301	1228.2475	1246.2899	1253.9958	1264.0045	1286.7189	1309.7289	1318.9283	1452.0312	1478.3152	1497.5607	1528.0801	3063.9804	3072.4878	3100.949	3111.1002	3115.508	3127.9282	3142.9803	3184.3368	3492.5188
C1NC11C2CCC1O2	C1N[C@]21[C@H]1CC[C@@H]2O1	
InChI=1S/C6H9NO/c1-2-5-6(3-7-6)4(1)8-5/h4-5,7H,1-3H2	InChI=1S/C6H9NO/c1-2-5-6(3-7-6)4(1)8-5/h4-5,7H,1-3H2/t4-,5+,6-
