15
gdb 30551	6.5568	0.7957	0.72688	14.1129	98.54	-0.133	-0.0621	0.0709	1468.7271	0.111447	-453.928728	-453.920178	-453.919233	-453.96192	32.179	
N	-0.1631474277	 1.309908914	-0.0282327947	-0.496647
C	 0.1610225336	 0.0479008142	 0.3281207852	 0.107191
N	 1.1358776871	-0.6393673456	-0.2307048219	-0.31513
H	 1.8791000035	-0.1503084023	-0.7220345184	 0.269382
C	 1.2148944021	-2.0348347277	-0.1357001044	 0.286212
C	 0.1242393456	-2.8385254757	-0.3887355274	-0.069788
O	 0.4710629326	-4.1189965698	-0.2551965426	-0.225122
C	 1.9185478638	-4.1789798965	 0.1227272854	 0.424526
O	 2.4020489793	-5.2662199416	 0.322046833	-0.401104
C	 2.3358964229	-2.8293328062	 0.167320258	-0.529023
H	 0.3817487591	 1.8092314556	-0.7131254055	 0.281099
H	-0.695653203	 1.8729744176	 0.6138104189	 0.292227
H	-0.4658893659	-0.4741845714	 1.0393454898	 0.184369
H	-0.8212812654	-2.6024707416	-0.8564417588	 0.112114
H	 3.3037379024	-2.511774783	 0.5172228633	 0.079694
87.5688	95.1446	190.0769	242.4146	316.3734	335.1834	396.8546	424.7232	480.159	506.0418	540.6523	585.573	613.7444	658.4703	671.31	721.4686	732.4448	797.1277	830.9208	997.6134	1056.1967	1067.9277	1192.0771	1217.6131	1271.7356	1340.4487	1355.4406	1397.7166	1503.2844	1554.5196	1639.859	1704.1079	1856.7225	3227.0322	3236.5941	3265.5982	3492.6719	3599.6845	3716.6093
NC=[NH+]C1=COC([O-])=C1	[NH2]=CNC1=COC(=O)[CH]1	
InChI=1S/C5H6N2O2/c6-3-7-4-1-5(8)9-2-4/h1-3,8H,(H2,6,7)	InChI=1S/C5H6N2O2/c6-3-7-4-1-5(8)9-2-4/h1-3,7H,6H2
