19
gdb 82885	2.58151	1.91538	1.46021	0.7088	74.27	-0.2312	0.0661	0.2973	957.6481	0.160003	-422.980298	-422.972781	-422.971837	-423.011673	30.774	
C	-0.0662694357	 1.5450094735	 0.1012441977	-0.521333
C	-0.0211650721	 0.0419400536	 0.0971146792	 0.332664
C	 0.9052515619	-0.7623719361	-0.9083216383	 0.029786
C	 1.9988814087	-0.8370399168	 0.180107855	-0.253525
C	 0.7806235128	-0.8746907725	 1.1140924779	-0.103253
C	-0.2063233116	-1.9517648954	 0.499920292	 0.021264
O	 0.3168224721	-2.0777100406	-0.8290753074	-0.272613
C	-1.2662373557	-0.8386815717	 0.2951220042	 0.052193
O	-1.9338976649	-0.4112941803	 1.4649009898	-0.440387
H	 0.9356488325	 1.9841571342	 0.1556099114	 0.116185
H	-0.545296535	 1.9258483232	-0.8087426634	 0.117735
H	-0.6428050371	 1.9028531895	 0.9594461242	 0.139151
H	 1.0820555597	-0.4760190911	-1.944408585	 0.075642
H	 2.68183669	-1.6885633436	 0.1303960981	 0.09951
H	 2.5534375461	 0.0978315199	 0.2941126876	 0.102394
H	 0.8031207448	-0.7219447866	 2.1893950342	 0.081393
H	-0.419103973	-2.9246193894	 0.9427497757	 0.071209
H	-1.9530440494	-0.9856110664	-0.5498209485	 0.064563
H	-2.5920111541	-1.0759554834	 1.6911432154	 0.287423
194.1678	211.3452	225.7239	273.6227	308.8848	346.125	448.523	512.4591	528.4415	610.5573	662.636	765.4515	838.1056	843.185	853.9508	913.5186	917.8171	927.0318	970.8999	980.0218	1002.7841	1043.3458	1081.6719	1099.3274	1121.1505	1144.6521	1171.4845	1172.7951	1207.3828	1225.1488	1242.1823	1245.6319	1255.9371	1292.0304	1321.4364	1330.7119	1410.1484	1422.3649	1480.4286	1487.834	1498.2294	3010.4021	3026.646	3061.8191	3086.8305	3108.0265	3121.2891	3122.3907	3128.7727	3159.9079	3817.8229
CC12C3CC1C(O3)C2O	C[C@@]12[C@H]3C[C@@H]1[C@H](O3)[C@H]2O	
InChI=1S/C7H10O2/c1-7-3-2-4(7)9-5(3)6(7)8/h3-6,8H,2H2,1H3	InChI=1S/C7H10O2/c1-7-3-2-4(7)9-5(3)6(7)8/h3-6,8H,2H2,1H3/t3-,4-,5+,6-,7+/m1/s1
