22
gdb 120870	4.67173	0.79899	0.75374	0.6275	82.78	-0.2259	0.0814	0.3073	1583.5211	0.193422	-404.303625	-404.293925	-404.292981	-404.338409	36.201	
C	 0.248340382	 1.5589593348	 0.1089277437	-0.48967
C	-0.0566096737	 0.0986690558	-0.0438886617	 0.371983
C	-1.0676420706	-0.625585613	 0.7484875283	-0.290598
N	 0.3591812606	-0.9456089102	 0.9856275893	-0.183476
C	 0.8088904825	-1.8302189953	-0.160504593	 0.070741
C	 0.2431737952	-3.2402459459	-0.2183605541	-0.199567
C	 0.6109373069	-4.0662546596	 1.0088286375	-0.069539
O	 0.048319929	-5.3607530627	 0.844698775	-0.424029
C	 0.3943749946	-0.7733017599	-1.2208088826	-0.349603
H	 1.299605158	 1.7702187922	-0.115959882	 0.119747
H	-0.3672712659	 2.1583650912	-0.5725727853	 0.120339
H	 0.046158987	 1.8928936863	 1.1307768141	 0.127784
H	-1.5149365654	-0.1063758135	 1.5910279366	 0.115142
H	-1.7214974426	-1.3555686808	 0.2775644909	 0.110006
H	 1.8997819084	-1.8885982524	-0.0867817641	 0.081207
H	-0.8478419559	-3.2312410205	-0.3192105183	 0.104261
H	 0.630251746	-3.7419029801	-1.1142724743	 0.106505
H	 1.708032911	-4.1175426479	 1.1059961649	 0.083244
H	 0.2279501748	-3.5711027257	 1.9132902803	 0.105667
H	 0.2310198699	-5.8686074124	 1.6403755439	 0.284725
H	-0.3859378233	-1.0534318893	-1.9356865425	 0.099829
H	 1.2430668515	-0.3645509111	-1.7734815666	 0.105301
68.542	95.6442	105.1135	190.6114	201.7567	264.3064	285.1089	302.2719	384.9859	399.5693	442.2822	552.4202	625.8722	709.8178	761.4282	801.5323	833.6908	897.3037	946.4738	961.5563	975.0613	1012.609	1032.8539	1056.938	1085.6503	1092.399	1113.5502	1131.6172	1134.8704	1185.4287	1224.8348	1239.0403	1249.5351	1284.1715	1306.1048	1317.1919	1330.1481	1376.179	1402.5392	1423.7264	1461.733	1482.469	1484.5153	1491.987	1494.0095	1514.6825	1528.4433	2965.387	3008.8475	3025.5685	3034.4506	3043.1528	3048.7633	3077.1151	3085.8169	3107.9075	3108.2263	3110.808	3192.4166	3831.2663
CC12CN1C(CCO)C2	C[C@]12CN1[C@@H](CCO)C2	
InChI=1S/C7H13NO/c1-7-4-6(2-3-9)8(7)5-7/h6,9H,2-5H2,1H3	InChI=1S/C7H13NO/c1-7-4-6(2-3-9)8(7)5-7/h6,9H,2-5H2,1H3/t6-,7-,8?/m0/s1
