19
gdb 6824	3.11573	1.58847	1.38546	4.3892	73.28	-0.2366	0.0321	0.2686	997.3978	0.164295	-365.086298	-365.077466	-365.076522	-365.120109	31.864	
C	-0.2280515433	 1.5045945311	 0.1349689305	-0.427387
C	-0.018981463	-0.0029817205	-0.0129123708	 0.317741
C	-1.3321166045	-0.7721372042	 0.136549617	-0.427383
C	 0.8461496196	-0.423314407	-1.2500517713	-0.296698
C	 1.931919951	-0.9490101978	-0.2694493196	-0.163493
N	 1.0753936334	-0.5330953376	 0.8366684284	-0.053065
C	 1.2744039454	-0.6281978429	 2.1668662857	 0.119314
O	 2.2648209349	-1.1077389688	 2.6846587776	-0.338169
H	 0.7201238735	 2.0417953819	 0.0430000155	 0.122938
H	-0.9091296057	 1.8709050028	-0.6406750759	 0.121703
H	-0.6662810124	 1.7497005955	 1.1080571446	 0.123244
H	-2.0419473163	-0.4649656105	-0.6389916504	 0.121699
H	-1.1669195561	-1.8494140207	 0.0456165159	 0.122933
H	-1.7953677593	-0.5787713358	 1.1097070154	 0.123243
H	 0.3873129951	-1.1891810298	-1.8770088209	 0.112278
H	 1.1628974451	 0.4105769187	-1.8781075945	 0.112278
H	 2.119857412	-2.0269403593	-0.2975242569	 0.123942
H	 2.8945580236	-0.4288944156	-0.2985261363	 0.123948
H	 0.4237545869	-0.2153286295	 2.7480030859	 0.060933
43.6226	81.7722	171.2639	217.5723	258.3	299.9668	331.6855	337.1638	349.0906	439.2228	569.8868	634.9087	783.9905	840.4668	870.9536	925.203	953.0277	968.9048	989.1736	1030.1751	1036.1894	1131.3347	1156.0987	1191.5352	1201.5459	1239.9945	1273.6682	1286.8481	1317.0734	1400.2209	1400.6098	1417.3737	1444.0806	1478.197	1484.6162	1488.6784	1499.2458	1505.1548	1521.9694	1783.9776	2915.2741	3030.3951	3035.7053	3044.0689	3083.3413	3083.4585	3098.6676	3105.3984	3112.2018	3115.0198	3138.8604
CC1(C)CCN1C=O	CC1(C)CCN1C=O	
InChI=1S/C6H11NO/c1-6(2)3-4-7(6)5-8/h5H,3-4H2,1-2H3	InChI=1S/C6H11NO/c1-6(2)3-4-7(6)5-8/h5H,3-4H2,1-2H3
