19
gdb 11592	5.64354	0.91936	0.83306	3.5353	73.93	-0.2387	0.0384	0.2771	1400.18	0.164783	-365.088155	-365.07892	-365.077976	-365.123989	32.266	
C	 0.2187845212	 1.4408055517	-0.1393878412	-0.480728
C	-0.1906349527	-0.0221531498	-0.0440082908	 0.406659
O	-1.0538640618	-0.3991487366	 0.7285404091	-0.373352
N	 0.4803111166	-0.8674291812	-0.8820644423	-0.310948
C	 0.1925077252	-2.2901334213	-0.9686072262	-0.177934
C	-0.124737166	-2.7248171778	-2.3814884902	 0.02341
C	 0.994044585	-3.0419414628	-3.3476611413	-0.267502
C	 0.1255938649	-4.1483012189	-2.8019186126	-0.266786
H	 1.0142530442	 1.6326632738	-0.8644297932	 0.107446
H	-0.6594896856	 2.0333200861	-0.4092552577	 0.151256
H	 0.5477118439	 1.7778079848	 0.8470613958	 0.151874
H	 1.159513997	-0.4861638445	-1.5197553401	 0.241137
H	 1.0438576296	-2.8733979571	-0.5888820526	 0.097507
H	-0.6512415363	-2.4660627197	-0.2968270731	 0.150346
H	-1.0007039383	-2.2421023849	-2.8060152691	 0.092389
H	 0.8766530959	-2.7581950329	-4.3874943073	 0.114549
H	 2.0154165998	-2.9811535676	-2.9837507509	 0.108282
H	 0.5645157874	-4.82187047	-2.0730056038	 0.115201
H	-0.58880982	-4.6205818713	-3.4663361526	 0.117193
31.8059	44.5349	77.6972	94.6756	234.9635	261.5917	328.8504	400.8225	453.7211	497.533	618.8135	637.227	776.6228	806.6033	832.8778	891.0215	914.0446	962.6729	993.9107	1048.9913	1051.3164	1059.9779	1082.6972	1114.7799	1140.5317	1181.4112	1198.8687	1226.5078	1255.1865	1291.0028	1356.3586	1395.2629	1425.8748	1468.791	1470.5701	1485.9767	1493.6998	1507.7936	1536.5575	1779.5507	3000.4146	3048.7641	3109.3773	3126.0733	3126.8332	3128.5163	3135.3945	3147.869	3207.0141	3223.4195	3645.8331
CC(=O)NCC1CC1	CC(=O)NCC1CC1	
InChI=1S/C6H11NO/c1-5(8)7-4-6-2-3-6/h6H,2-4H2,1H3,(H,7,8)	InChI=1S/C6H11NO/c1-5(8)7-4-6-2-3-6/h6H,2-4H2,1H3,(H,7,8)
