20
gdb 116847	4.7794	0.53235	0.48477	1.993	90.38	-0.25	-0.0122	0.2379	2305.0834	0.168654	-403.128503	-403.117695	-403.116751	-403.166869	37.031	
C	-0.0531170636	 1.5108981023	 0.0728065545	-0.38291
C	-0.0177228078	-0.0177446415	 0.0290533343	-0.156315
C	 0.7085463506	-0.548044296	-1.2240275079	-0.349948
C	 0.7589083618	-2.0015651344	-1.2942816008	 0.185356
C	 0.7929367452	-3.2049982275	-1.3389935063	 0.075046
C	 0.8404475967	-4.6366581023	-1.4043361274	 0.174832
N	 1.3845508314	-5.2344836627	-2.3861105656	-0.53003
O	 0.2405865021	-5.1785308195	-0.3045977602	-0.223751
C	 0.2048443036	-6.5943733271	-0.2188367805	-0.265568
H	 0.9583798926	 1.9321261823	 0.0833415086	 0.117441
H	-0.5738403645	 1.9220461216	-0.7992352283	 0.117479
H	-0.5711318621	 1.867279986	 0.9680129227	 0.116949
H	 0.4829543866	-0.410444625	 0.9208418658	 0.112982
H	-1.0363819119	-0.4205522286	 0.0445919908	 0.112959
H	 0.2151514693	-0.1612368799	-2.1261019325	 0.134757
H	 1.7325276487	-0.1510614535	-1.2506837144	 0.134724
H	 1.3433804442	-6.2484679216	-2.2964252842	 0.22035
H	-0.3526922479	-7.0340866263	-1.0551413633	 0.13174
H	 1.2150496756	-7.0215869664	-0.1950000123	 0.131738
H	-0.3063699008	-6.82554999	 0.7162953968	 0.14217
15.0439	54.0063	67.9121	112.6972	164.6878	203.1212	223.7043	247.6949	302.8254	330.5116	390.9048	412.6419	558.5874	582.6758	714.2314	741.8337	781.5874	837.0599	870.2417	888.2043	955.4731	1041.1437	1108.8319	1117.7768	1119.105	1132.2702	1173.9599	1217.0562	1256.5645	1302.1777	1320.9666	1340.8715	1380.7355	1415.744	1466.8613	1473.3759	1491.8882	1492.1375	1500.7976	1505.0714	1509.0979	1697.1912	2365.6541	3011.5316	3012.1467	3031.0966	3038.7719	3043.9528	3074.3849	3075.7574	3101.9917	3107.9176	3143.5098	3504.3678
CCCC#CC(=N)OC	CCCC#C[C]([NH])OC	
InChI=1S/C7H11NO/c1-3-4-5-6-7(8)9-2/h8H,3-4H2,1-2H3	InChI=1S/C7H11NO/c1-3-4-5-6-7(8)9-2/h8H,3-4H2,1-2H3
