14
gdb 132024	2.36375	1.82915	1.03243	5.0866	69.83	-0.1946	-0.0141	0.1804	1044.1974	0.102188	-478.025552	-478.017957	-478.017012	-478.057339	29.4	
N	 0.0121244162	 1.4149120667	 0.1628835415	-0.591856
C	-0.0330400961	 0.0350371005	 0.0640402744	-0.001141
C	-1.1673143312	-0.7043390343	 0.0408245007	 0.306162
F	-2.3907624846	-0.1671662008	 0.0460044734	-0.069972
N	-1.16744909	-2.0730173812	-0.0007385176	-0.385603
C	 0.0091122983	-2.7627970221	-0.01860894	 0.016951
C	 1.197128913	-2.1053370516	-0.0074259367	-0.253866
C	 1.2694063968	-0.6571322937	 0.020657111	 0.362156
O	 2.3112004071	 0.0028296356	 0.0004784495	-0.422767
H	 0.9453281673	 1.7380669133	-0.0714286404	 0.263927
H	-0.7295476678	 1.9212609907	-0.2968063643	 0.248029
H	-2.057040082	-2.5442920115	-0.0115348121	 0.275014
H	-0.0815547365	-3.8407471768	-0.0454043112	 0.138866
H	 2.1268548996	-2.6587113449	-0.0337280182	 0.114098
138.4287	211.9309	271.0693	293.0884	351.775	368.8563	379.6318	484.606	518.0245	547.9913	570.4943	579.0215	679.7367	706.5065	743.8887	829.6724	874.1884	928.1204	990.1614	1088.1311	1199.0937	1225.5178	1272.4318	1307.9077	1373.6331	1428.6935	1559.1095	1599.788	1626.9037	1707.248	1728.1591	3212.9637	3229.4723	3516.3463	3651.7185	3660.9905
NC1=C(F)NC=CC1=O	Nc1c(F)[nH]ccc1=O	
InChI=1S/C5H5FN2O/c6-5-4(7)3(9)1-2-8-5/h1-2H,7H2,(H,8,9)	InChI=1S/C5H5FN2O/c6-5-4(7)3(9)1-2-8-5/h1-2H,7H2,(H,8,9)
