18
gdb 67753	2.87693	2.03117	1.42818	1.336	82.89	-0.1986	-0.0281	0.1705	937.7363	0.147921	-364.725566	-364.718297	-364.717353	-364.756654	29.689	
C	 0.012418448	 1.5328605987	-0.0295664545	-0.463867
C	-0.0680191606	 0.0290648298	-0.0688741245	 0.313486
C	 0.6792062462	-0.6874136014	-1.1893630894	-0.135138
C	 0.1009824918	-1.8544002823	-1.5215080157	-0.15259
C	-0.8460355092	-2.1133275225	-0.3825235211	 0.031405
C	-0.4035414452	-2.8372660098	 0.6600985277	-0.096707
C	-0.2058750093	-1.8965525212	 1.8436932116	-0.181682
N	-0.5244818433	-0.538860643	 1.3354948012	-0.177413
C	-1.3013936584	-0.7467079143	 0.1264791781	-0.135574
H	 1.0249057036	 1.866213288	 0.2257389873	 0.118999
H	-0.2397245314	 1.9552315036	-1.0093302507	 0.117497
H	-0.674742851	 1.9336750952	 0.7176737293	 0.133486
H	 1.5321730302	-0.2385964734	-1.6857048834	 0.100461
H	 0.4366179181	-2.5631047652	-2.2673837281	 0.113807
H	 0.1768340115	-3.7494817657	 0.5646189776	 0.100251
H	-0.8253127304	-2.07217522	 2.735938109	 0.112572
H	 0.8413077423	-1.9707447813	 2.1668875765	 0.118856
H	-2.3265451432	-0.3892515252	 0.0310791292	 0.08215
181.5861	198.5552	242.8005	281.546	338.3298	396.4286	484.225	558.5946	600.8659	693.0863	725.9888	730.2925	780.0778	826.1226	841.7589	875.4225	892.7763	915.1952	933.6965	982.799	1021.2112	1043.0652	1078.3634	1094.8882	1110.5255	1130.498	1196.0087	1215.4753	1234.0938	1285.4345	1308.4729	1322.2056	1384.2654	1410.3651	1479.0521	1485.5568	1492.222	1588.2817	1606.2687	2989.2441	3028.16	3033.7412	3084.3771	3100.7731	3133.3199	3177.6946	3192.4474	3223.5267
CC12C=CC3=CCN1C23	C[C@@]12C=C[C]3[CH]CN1[C@@H]23	
InChI=1S/C8H9N/c1-8-4-2-6-3-5-9(8)7(6)8/h2-4,7H,5H2,1H3	InChI=1S/C8H9N/c1-8-4-2-6-3-5-9(8)7(6)8/h2-4,7H,5H2,1H3/t7-,8+,9?/m1/s1
