17
gdb 13684	5.86747	0.92319	0.87353	2.7984	67.13	-0.2532	0.0291	0.2823	1316.6834	0.141167	-401.00645	-400.997713	-400.996768	-401.041141	30.237	
C	 0.1312337986	 1.3432408196	-0.4954846744	-0.420968
C	-0.147091358	 0.0758769492	 0.2718201489	 0.080473
O	 0.8937028641	-0.9075823434	 0.3369723405	-0.271276
C	 0.4567906365	-0.2968721106	 1.5618903789	 0.053998
C	 1.4896605011	 0.5185397135	 2.301682778	-0.191681
N	 2.5115228413	-0.3478080694	 2.8675478995	-0.272021
C	 2.797332772	-0.3919605457	 4.1960309883	 0.155824
O	 2.2723395973	 0.2924950269	 5.0488249146	-0.322729
H	 1.1273943851	 1.7396040817	-0.2912570508	 0.129685
H	 0.060766088	 1.1498955968	-1.570901577	 0.133963
H	-0.6099428766	 2.1096987305	-0.2449551629	 0.128677
H	-1.1300184687	-0.3557527583	 0.0702293703	 0.093674
H	-0.11037072	-0.972109657	 2.205601541	 0.100588
H	 1.9500115355	 1.257539663	 1.6388494771	 0.113159
H	 1.0324392156	 1.0481320291	 3.1415968826	 0.152655
H	 2.9866502116	-0.9824542352	 2.244778073	 0.258915
H	 3.5851959565	-1.1380098706	 4.4195774625	 0.077063
36.8916	52.1214	137.1402	182.224	202.6354	277.3057	317.1383	407.7031	474.7433	532.8129	564.1829	740.9961	769.8547	848.6879	920.5063	955.8427	1009.8264	1032.3761	1034.1489	1100.8678	1115.8589	1173.7459	1182.9238	1212.5633	1270.8166	1306.8227	1351.4989	1406.3333	1420.943	1428.9878	1468.0554	1483.0726	1491.1202	1510.0201	1532.0188	1804.6029	2940.4785	3041.5617	3056.4772	3080.4875	3095.8725	3102.8156	3118.0975	3138.5068	3633.4024
CC1OC1CNC=O	C[C@H]1O[C@H]1CNC=O	
InChI=1S/C5H9NO2/c1-4-5(8-4)2-6-3-7/h3-5H,2H2,1H3,(H,6,7)	InChI=1S/C5H9NO2/c1-4-5(8-4)2-6-3-7/h3-5H,2H2,1H3,(H,6,7)/t4-,5+/m1/s1
