19
gdb 35664	4.31722	0.89003	0.77703	0.501	88.39	-0.2538	0.0458	0.2996	1453.1153	0.158524	-348.704176	-348.695069	-348.694124	-348.739355	34.529	
C	 0.015399108	-1.2560616535	-0.577714953	-0.450181
C	-0.0753204235	-0.1249168163	-0.1796531995	 0.299888
C	-0.1690029947	 1.2403078099	 0.3146964229	-0.148888
C	-0.3486908657	 1.3527752298	 1.8504293551	-0.219376
C	 0.0591774029	 2.7985795406	 2.1416754777	-0.22083
C	 1.3319135983	 2.9920468731	 1.2748535531	-0.150291
C	 1.0846831928	 2.1194958742	-0.0013264127	-0.23541
C	 1.6513166908	 4.3828010817	 0.9899356804	 0.302472
C	 1.8995314861	 5.5343929045	 0.7481705298	-0.453113
H	 0.0900602275	-2.2533513887	-0.9340863657	 0.192486
H	-1.0411456239	 1.7148023776	-0.1528394004	 0.106674
H	-1.3662566075	 1.1107677168	 2.166478713	 0.107272
H	 0.3300496063	 0.6533164567	 2.3513590889	 0.110689
H	-0.7213925891	 3.4908577786	 1.8069861233	 0.111276
H	 0.2469060837	 2.9984168566	 3.1993345831	 0.106914
H	 2.1742482308	 2.554183022	 1.8248464749	 0.106881
H	 1.9539705372	 1.4945868137	-0.2137182395	 0.119987
H	 0.9094593445	 2.7442758011	-0.8786978287	 0.12087
H	 2.1256415255	 6.5499851114	 0.5369889771	 0.192679
13.0614	111.6489	152.3252	187.6501	236.7014	283.0088	436.0219	490.2414	504.4134	533.5113	546.5107	564.9053	620.8924	623.104	627.6459	628.3043	793.6663	828.8664	870.0836	942.7342	960.4599	1009.2303	1023.7847	1033.0577	1084.5852	1090.0958	1163.4641	1182.5041	1234.4929	1288.5448	1306.8975	1310.3033	1313.6624	1321.7351	1364.5682	1369.8076	1491.7103	1493.4205	1505.1516	2234.8323	2235.0884	3018.7366	3021.7012	3046.4867	3051.2873	3080.3992	3103.4519	3110.1201	3128.7198	3505.0706	3505.4167
C#CC1CCC(C1)C#C	C#C[C@H]1CC[C@@H](C1)C#C	
InChI=1S/C9H10/c1-3-8-5-6-9(4-2)7-8/h1-2,8-9H,5-7H2	InChI=1S/C9H10/c1-3-8-5-6-9(4-2)7-8/h1-2,8-9H,5-7H2/t8-,9-/m0/s1
