16
gdb 127511	2.35951	1.65418	0.98353	0.8338	68.64	-0.2046	0.0512	0.2558	1145.6279	0.125142	-471.218207	-471.209112	-471.208168	-471.252186	32.94	
C	 0.0504342101	 1.4008882656	-0.099941804	-0.32642
N	 0.066604294	-0.0367476597	 0.0044441499	-0.049895
N	 0.0894247392	-0.8204603986	-1.1297321431	-0.405939
C	 0.0994846006	-2.0605654889	-0.671677476	 0.391574
O	 0.1222367769	-3.1265851271	-1.5007479094	-0.435768
C	 0.0840379643	-2.1307235106	 0.7409795509	-0.112256
N	 0.0862162112	-3.1904652593	 1.6884154523	-0.638767
C	 0.0633088283	-0.7978325565	 1.1130589272	 0.481882
O	 0.0426066739	-0.2690579111	 2.34776299	-0.437522
H	 0.9417649933	 1.7569601051	-0.6256580441	 0.140492
H	-0.8367450855	 1.7354395842	-0.6464003313	 0.140496
H	 0.0336254214	 1.8196284195	 0.9071216979	 0.154078
H	 0.1283787908	-2.7784393952	-2.401607116	 0.300307
H	 0.9088174492	-3.778851749	 1.5953739645	 0.244458
H	-0.7196537898	-3.7985187972	 1.5771439028	 0.244452
H	 0.0452676921	-1.0325504911	 2.9461105684	 0.308828
52.9184	128.834	181.0256	225.5445	251.7222	277.1126	278.1444	305.2246	399.5159	434.1728	514.6943	585.9877	622.9838	640.443	668.5738	735.3162	760.2928	848.5919	970.2494	1046.33	1147.6695	1154.3901	1215.0066	1218.7076	1272.5898	1322.0356	1362.1015	1452.8891	1477.7773	1490.9761	1515.7427	1561.6672	1627.0939	1657.7156	1687.2576	3040.3671	3098.6658	3151.7705	3488.7491	3548.3654	3722.8354	3789.0577
CN1N=C(O)C(N)=C1O	Cn1nc(O)c(N)c1O	
InChI=1S/C4H7N3O2/c1-7-4(9)2(5)3(8)6-7/h9H,5H2,1H3,(H,6,8)	InChI=1S/C4H7N3O2/c1-7-4(9)2(5)3(8)6-7/h9H,5H2,1H3,(H,6,8)
