17
gdb 36000	3.31974	0.7565	0.6784	3.2653	80.57	-0.2448	0.0115	0.2562	1644.4957	0.135047	-380.815023	-380.805643	-380.804699	-380.851993	32.484	
N	 1.1059214627	-0.8200254433	 1.2059038001	-0.298435
C	 0.8095846517	 0.1016433983	 0.5769526379	 0.279236
C	 0.4194309036	 1.2730412352	-0.219771121	-0.47276
C	 1.5545634359	 2.1126528906	-0.5964815874	 0.046018
C	 2.4851330237	 2.7992179196	-0.9305532625	 0.099505
C	 3.6317090433	 3.6402276945	-1.2962170346	-0.280388
N	 4.4211279669	 4.213312237	-0.201953769	-0.073208
C	 3.7380214545	 4.6289354419	 1.0178494359	-0.217811
C	 4.6183206225	 3.4266276117	 1.0108275252	-0.219606
H	-0.1055033041	 0.9183385189	-1.1161928309	 0.185217
H	-0.3163292084	 1.8489075852	 0.3561882096	 0.182642
H	 4.3171656444	 3.0551076247	-1.921300925	 0.143761
H	 3.278916966	 4.4732742527	-1.9165780054	 0.140967
H	 4.0808319293	 5.5675058811	 1.4435070521	 0.11893
H	 2.6684049065	 4.447656063	 1.0964474209	 0.117397
H	 4.1243629412	 2.4605245979	 1.0855718672	 0.128414
H	 5.6188253003	 3.4685718607	 1.431127617	 0.120121
9.8642	60.0002	92.5997	126.4064	237.0077	275.8971	357.3228	361.8802	379.0133	388.8746	483.6191	617.021	752.6074	787.6307	832.4389	874.0088	925.988	935.7098	983.6075	1029.7439	1063.6076	1115.3402	1126.6551	1145.9558	1173.8132	1185.9191	1234.6163	1289.817	1313.7619	1336.4466	1361.6952	1447.0118	1465.6066	1485.0577	1514.0044	2363.8064	2373.4734	3026.0673	3027.936	3056.1836	3060.6205	3104.8829	3108.0491	3186.7744	3200.4459
N#CCC#CCN1CC1	N#CCC#CCN1CC1	
InChI=1S/C7H8N2/c8-4-2-1-3-5-9-6-7-9/h2,5-7H2	InChI=1S/C7H8N2/c8-4-2-1-3-5-9-6-7-9/h2,5-7H2
