17
gdb 20800	3.18176	1.79049	1.25555	3.2065	70.48	-0.202	0.0356	0.2376	983.1669	0.143963	-360.066261	-360.05791	-360.056966	-360.099961	30.013	
C	 0.0489585187	 1.5792939903	-0.0131712395	-0.360767
C	 0.0104422655	 0.0414079403	 0.0432364913	-0.321504
C	-1.3776229982	-0.5297102629	 0.0167927511	 0.159698
C	-2.1868278661	-0.7480512846	-1.0884117313	 0.273022
N	-1.9536804871	-0.623724594	-2.465110871	-0.608429
N	-3.3637393707	-1.2330299472	-0.6184068556	-0.231894
N	-3.3932343333	-1.3454501421	 0.7329357425	-0.24133
C	-2.1917883512	-0.924930125	 1.1064845599	-0.078026
H	 1.0784353932	 1.951739668	 0.0145532554	 0.108886
H	-0.4206683571	 1.9522098174	-0.9298469638	 0.10521
H	-0.4946598622	 2.0124306261	 0.8319030056	 0.123739
H	 0.6051613018	-0.3640026849	-0.7868931034	 0.093114
H	 0.5172907311	-0.2976574043	 0.9539645169	 0.109127
H	-1.0133924028	-0.2976884643	-2.6478916805	 0.252846
H	-2.6053588534	 0.0034752222	-2.9242344098	 0.249781
H	-4.1438315022	-1.5636218979	-1.160203687	 0.266014
H	-1.935008236	-0.9085033872	 2.1571250391	 0.100511
26.5558	118.5442	155.3148	197.3763	273.4035	278.0475	400.7793	430.129	472.5581	629.8978	673.0652	713.834	720.5671	777.9049	795.5388	886.0975	946.363	971.845	1050.0637	1081.2815	1106.3311	1124.9754	1222.9406	1238.5823	1296.1215	1337.6895	1352.7975	1391.3361	1406.4126	1452.2915	1484.7893	1494.909	1506.5862	1553.6626	1625.0969	1662.2829	3009.271	3030.7497	3054.9382	3098.6478	3109.323	3227.711	3518.0217	3613.8432	3673.9192
CCC1=C(N)NN=C1	CCc1c(N)[nH]nc1	
InChI=1S/C5H9N3/c1-2-4-3-7-8-5(4)6/h3H,2H2,1H3,(H3,6,7,8)	InChI=1S/C5H9N3/c1-2-4-3-7-8-5(4)6/h3H,2H2,1H3,(H3,6,7,8)
