17
gdb 83681	2.45567	1.68082	1.35355	1.1809	73.2	-0.2462	0.029	0.2752	997.9227	0.135005	-421.747717	-421.739493	-421.738549	-421.78075	31.178	
O	 0.3523877009	 1.2008914014	 0.4421209006	-0.430544
C	 0.0248937981	-0.1186418675	 0.1170193185	 0.116562
C	-1.4867547162	-0.4875678111	 0.0112677275	-0.116955
C	-2.3673339524	 0.6270379645	-0.5687087942	-0.087356
O	-2.0773595052	 0.2097745013	-1.9305498293	-0.280632
C	-1.2906710455	-0.8945468617	-1.4744227905	 0.111301
C	 0.2396860404	-0.5780611968	-1.388220094	-0.279022
C	 0.7660683169	 0.4329320847	-2.2739593565	 0.310679
C	 1.2059101134	 1.3412939162	-2.9306175881	-0.418122
H	 0.5586564674	 1.6691367561	-0.3789110804	 0.290515
H	 0.5535078667	-0.7822072176	 0.8089870582	 0.090917
H	-1.9034209025	-1.1276202405	 0.7868827451	 0.080135
H	-3.4365561918	 0.5322421788	-0.3479967886	 0.104712
H	-2.0371628814	 1.6502835053	-0.3627256612	 0.115467
H	-1.5784408861	-1.8433859514	-1.9336956371	 0.08277
H	 0.8410564277	-1.4912974579	-1.4368018399	 0.105691
H	 1.5892820095	 2.1122838764	-3.5526719902	 0.203885
57.6803	131.0326	162.0972	226.4502	300.3824	329.4763	372.033	510.2536	551.2552	618.2865	628.9429	661.3109	694.5394	759.3268	802.2381	857.4954	894.557	927.0592	989.5705	1011.6028	1039.2369	1059.4741	1085.7786	1131.2555	1154.7578	1168.9823	1196.0947	1223.9922	1256.38	1287.5354	1302.5652	1322.9816	1341.3706	1377.7669	1420.4089	1523.9533	2223.808	3030.7665	3044.8111	3060.9084	3079.644	3084.5711	3128.122	3499.8003	3730.004
OC1C2COC2C1C#C	O[C@H]1[C@H]2CO[C@H]2[C@H]1C#C	
InChI=1S/C7H8O2/c1-2-4-6(8)5-3-9-7(4)5/h1,4-8H,3H2	InChI=1S/C7H8O2/c1-2-4-6(8)5-3-9-7(4)5/h1,4-8H,3H2/t4-,5+,6+,7-/m0/s1
