18
gdb 98778	3.25624	1.09499	1.01598	4.7369	72.37	-0.2425	-0.0209	0.2215	1225.1834	0.14731	-439.045288	-439.036867	-439.035923	-439.079197	31.484	
O	-0.4674541317	 1.4494767133	 0.5085889182	-0.425582
C	-0.9312081977	 0.1551511829	 0.7581583879	-0.15027
C	-1.2170283844	-0.5843130975	-0.5370153555	 0.356691
O	-0.9935910464	-0.0264583293	-1.5948921046	-0.340888
C	-1.8119717676	-1.9752744961	-0.5080258972	-0.086938
C	-1.6981604842	-2.9356553187	 0.7360018022	-0.266381
C	-3.2288388198	-2.9901447202	 0.7899635424	-0.037332
N	-3.6775134893	-1.5969526061	 1.0151472964	-0.323089
C	-3.3502046294	-2.0505838228	-0.3559310494	-0.062078
H	-0.4236544854	 1.5131342915	-0.459509041	 0.289768
H	-0.1903286758	-0.4315152511	 1.3289984736	 0.105813
H	-1.8545336069	 0.1501591077	 1.3577729013	 0.146917
H	-1.5043571936	-2.4800293099	-1.4259369388	 0.107472
H	-1.2325209298	-3.8840710242	 0.462889103	 0.116015
H	-1.2203015988	-2.5408937828	 1.6346835123	 0.120579
H	-3.8549460461	-3.8265514427	 1.072761864	 0.103454
H	-4.6932308505	-1.606893368	 1.0991933273	 0.237139
H	-4.0777616727	-1.9864095562	-1.1547289021	 0.108708
37.8692	111.0906	156.2633	184.286	282.7892	344.4328	423.7629	446.6964	461.9464	532.9534	649.266	713.3726	802.0191	811.6904	836.8741	883.5515	934.2643	947.3832	955.1545	999.2165	1039.2281	1047.3081	1097.5417	1104.7123	1124.0337	1158.0545	1186.8568	1226.3082	1248.4302	1252.5642	1283.5664	1310.5578	1315.4012	1338.2677	1379.6007	1450.852	1474.6263	1496.278	1772.749	2961.9029	3012.4364	3077.4082	3096.0039	3135.2899	3193.3216	3206.7299	3482.342	3674.411
OCC(=O)C1CC2NC12	OCC(=O)[C@H]1C[C@H]2N[C@@H]12	
InChI=1S/C6H9NO2/c8-2-5(9)3-1-4-6(3)7-4/h3-4,6-8H,1-2H2	InChI=1S/C6H9NO2/c8-2-5(9)3-1-4-6(3)7-4/h3-4,6-8H,1-2H2/t3-,4-,6+/m1/s1
