19
gdb 107084	3.75241	1.00619	0.91825	1.4744	82.92	-0.2449	0.0504	0.2953	1333.2966	0.157185	-385.812573	-385.803523	-385.802579	-385.846481	34.14	
C	 0.0009746369	 1.3995068818	 0.3685494904	-0.257594
O	 0.0179961483	 0.0755053664	-0.1395909705	-0.280078
C	-1.2194760732	-0.5261469701	-0.1438197952	 0.467294
C	-1.8361687727	-1.102151708	 1.1025592969	-0.352486
C	-1.5139599117	-2.0092789581	-0.0661895375	-0.145073
C	-2.6219529547	-1.8647382827	-1.1354821072	-0.168688
C	-2.2711791334	-0.3279932888	-1.2432622253	-0.322634
C	-2.4153131458	-2.6225488212	-2.3533831624	 0.301785
C	-2.2332667725	-3.2523928816	-3.3615513078	-0.441681
H	 1.0306858469	 1.7625383146	 0.345875355	 0.129014
H	-0.6232031342	 2.0632735051	-0.2462016323	 0.112921
H	-0.371061871	 1.4275234214	 1.402178803	 0.111652
H	-1.1459004995	-1.1911063288	 1.935287766	 0.11815
H	-2.8687563648	-0.9019707822	 1.3829486748	 0.102468
H	-0.8389166236	-2.8508498724	 0.0161421777	 0.107395
H	-3.6265537008	-2.0599601191	-0.7422541263	 0.099961
H	-3.0869686274	 0.3740589769	-1.0455716357	 0.096885
H	-1.8136917255	-0.1016298458	-2.2073187164	 0.127394
H	-2.0774299415	-3.8101102273	-4.2514411572	 0.193316
71.7513	90.761	166.3413	179.0576	215.6692	295.5935	371.8788	406.5124	434.6141	487.4384	522.0433	618.2072	626.4092	651.1899	738.3874	801.02	867.4308	910.3071	930.9046	972.994	994.9727	1035.3105	1042.358	1071.9553	1086.6893	1104.4526	1148.7771	1181.2785	1202.685	1207.4978	1231.9963	1246.8406	1281.8518	1345.2385	1377.352	1472.0061	1478.8052	1488.447	1503.9909	1508.6802	2235.6279	2992.8357	3031.0901	3046.1029	3053.9973	3098.9676	3123.4627	3131.8934	3199.2916	3208.0547	3505.0477
COC12CC1C(C2)C#C	CO[C@]12C[C@H]1[C@@H](C2)C#C	
InChI=1S/C8H10O/c1-3-6-4-8(9-2)5-7(6)8/h1,6-7H,4-5H2,2H3	InChI=1S/C8H10O/c1-3-6-4-8(9-2)5-7(6)8/h1,6-7H,4-5H2,2H3/t6-,7+,8-/m1/s1
