22
gdb 63434	3.93229	0.81202	0.76078	3.7091	85.07	-0.2471	0.0326	0.2797	1581.8547	0.193177	-404.377448	-404.36754	-404.366596	-404.412754	36.991	
C	-0.1854330694	 1.512728552	-0.0571210851	-0.437344
C	-0.0617609813	-0.0133909042	-0.0195835913	 0.349163
C	-1.3855593999	-0.6744949445	-0.3897895859	-0.448313
C	 1.2000226704	-0.5206768693	-0.7921908576	-0.288144
C	 1.9727981609	-0.5550669271	 0.5522928918	 0.076352
C	 0.6134280379	-0.5167938436	 1.2983915079	-0.288128
N	 2.8764989708	-1.6506542819	 0.8078759364	-0.289662
C	 4.1780739774	-1.4895180525	 1.172971971	 0.15047
O	 4.7391575329	-0.4257007919	 1.32844471	-0.322988
H	 0.7557184418	 2.0064275821	 0.2060420865	 0.1207
H	-0.4719673062	 1.8564023482	-1.0575707623	 0.113581
H	-0.9502684815	 1.8595745775	 0.6470359741	 0.113582
H	-1.7035483165	-0.3842777556	-1.3980878987	 0.114357
H	-1.3072749405	-1.7667686265	-0.365830075	 0.10306
H	-2.1813523409	-0.3811673072	 0.3049623524	 0.114359
H	 1.0470681098	-1.5299732872	-1.1901215779	 0.086461
H	 1.6018671071	 0.1113663848	-1.5885994386	 0.104327
H	 2.553818457	 0.3527522229	 0.7136452327	 0.125766
H	 0.5429242091	 0.1183785817	 2.1854143583	 0.104325
H	 0.2748131129	-1.524860002	 1.5621402253	 0.086462
H	 2.5289932101	-2.592556155	 0.7118944981	 0.241013
H	 4.6848249379	-2.4650831307	 1.3166810378	 0.070601
38.0836	69.6018	177.119	203.548	221.5133	257.4332	296.2218	308.6082	345.9881	382.7071	428.0741	461.2446	540.9024	568.0123	718.8215	803.3951	834.6748	868.7845	916.2448	943.4831	962.8125	973.2299	1004.7589	1023.4766	1047.4095	1069.5032	1084.1096	1162.9182	1206.8738	1218.3332	1229.3227	1249.0448	1290.9228	1297.6298	1308.6083	1372.3025	1402.6684	1421.2919	1433.1795	1470.9886	1483.4092	1485.7279	1500.4882	1504.0027	1505.8412	1534.1709	1805.9372	2928.969	3017.9299	3024.6008	3037.6758	3044.138	3083.5631	3089.2513	3090.2921	3097.3344	3097.6138	3099.1732	3131.1792	3619.8639
CC1(C)CC(C1)NC=O	CC1(C)CC(C1)NC=O	
InChI=1S/C7H13NO/c1-7(2)3-6(4-7)8-5-9/h5-6H,3-4H2,1-2H3,(H,8,9)	InChI=1S/C7H13NO/c1-7(2)3-6(4-7)8-5-9/h5-6H,3-4H2,1-2H3,(H,8,9)
