23
gdb 58991	3.15166	1.16935	1.10223	0.2081	91.36	-0.2124	0.0242	0.2365	1267.6882	0.206683	-351.134119	-351.125356	-351.124412	-351.167538	34.725	
C	-0.0037820103	 1.5523762223	 0.0285261979	-0.385924
C	 0.053785219	 0.012382526	 0.0255412666	-0.116334
C	 0.7079755772	-0.5059281891	-1.2699504062	-0.385922
C	 0.752203934	-0.5133734647	 1.2417848189	 0.397179
C	 0.320024509	-1.2927018765	 2.2400960015	-0.234932
C	 1.5472671835	-1.4422957861	 3.1500044726	-0.057744
C	 2.0626637477	 0.0383766726	 3.1676878798	-0.207416
C	 2.225160763	-0.2528395239	 1.636389034	-0.113521
C	 2.6614025287	-1.6925931664	 2.0755794909	-0.207417
H	 1.0026466802	 1.9845783976	 0.0049416187	 0.115604
H	-0.544572973	 1.9214274021	-0.8494497893	 0.109035
H	-0.5087332885	 1.9262513029	 0.9240799752	 0.115761
H	-0.977747677	-0.3632175635	 0.0554996927	 0.074339
H	 1.7459961294	-0.1650822009	-1.3511398245	 0.115603
H	 0.7104339064	-1.5994804886	-1.3001278349	 0.115761
H	 0.1681966951	-0.1397371263	-2.1497455604	 0.109035
H	-0.656636023	-1.7298490898	 2.3975578861	 0.090711
H	 1.4604209086	-2.0433134137	 4.0549897609	 0.056143
H	 1.3518532023	 0.8146662228	 3.4610523994	 0.089123
H	 3.0171599554	 0.1638815587	 3.6898424848	 0.087972
H	 2.8409338455	 0.3699004545	 0.9869495704	 0.055848
H	 3.6727782928	-1.7315224723	 2.4939840686	 0.087972
H	 2.5008763942	-2.5071846574	 1.3652189361	 0.089123
63.6849	113.1073	176.2904	218.8649	254.0508	320.6202	320.8367	476.0888	495.3099	506.2336	597.3612	659.0962	778.7119	793.6987	834.3422	847.2516	857.6098	868.2098	898.619	927.408	933.0641	962.3423	1002.4776	1003.747	1028.3552	1064.9063	1083.6718	1106.7007	1107.3367	1116.5835	1172.9207	1208.5059	1225.2164	1228.6262	1235.0068	1247.2397	1269.7599	1318.4721	1340.5445	1360.9225	1392.5854	1414.8749	1475.8798	1487.5317	1489.4213	1500.7766	1509.2429	1511.8263	1680.9669	3014.4936	3027.5246	3031.6203	3036.4059	3046.4509	3093.2629	3098.7954	3106.7173	3107.7635	3109.5205	3111.6775	3114.5	3116.887	3220.9171
CC(C)C1=CC2CC1C2	CC(C)C1=C[C@@H]2C[C@H]1C2	
InChI=1S/C9H14/c1-6(2)9-5-7-3-8(9)4-7/h5-8H,3-4H2,1-2H3	InChI=1S/C9H14/c1-6(2)9-5-7-3-8(9)4-7/h5-8H,3-4H2,1-2H3/t7-,8+
