19
gdb 63314	2.52704	1.61114	1.30403	3.7942	77.18	-0.2456	0.0199	0.2655	1059.3959	0.159563	-419.211205	-419.202865	-419.201921	-419.243641	32.831	
C	 0.1720966988	 1.4616891016	-0.0989608548	-0.420859
C	-0.0806741538	-0.033553465	 0.0555607506	 0.358907
C	-1.5692358046	-0.3745111301	 0.1264149909	-0.422825
O	 0.4741206014	-0.6949023223	-1.1251698535	-0.281247
C	 1.2113517476	-1.7979868908	-0.8023977136	 0.448328
N	 1.5960977989	-2.6879425074	-1.6121315721	-0.559714
C	 1.4691048035	-1.7897893315	 0.6635117657	-0.128302
N	 2.131187994	-0.523366171	 1.0872440649	-0.340265
C	 0.6771285332	-0.6695655542	 1.2192456738	-0.087562
H	 1.2457007975	 1.6551118161	-0.127822319	 0.147876
H	-0.2832356429	 1.8299359154	-1.0223716338	 0.124716
H	-0.2648662042	 2.0098135522	 0.7419344825	 0.112081
H	-2.0732244387	-0.0500442252	-0.7876465358	 0.13198
H	-1.7175053434	-1.4530547347	 0.2366836411	 0.124606
H	-2.0403608164	 0.1283400305	 0.9773248111	 0.11754
H	 1.2563332758	-2.483395929	-2.5538062129	 0.220847
H	 1.6825706316	-2.7174147841	 1.1770406663	 0.116582
H	 2.568860949	-0.6834204536	 1.9921625879	 0.239935
H	 0.2120226128	-0.7071884171	 2.1983339205	 0.097377
103.0743	192.3161	218.5616	249.1814	265.5915	325.6522	333.4972	393.9687	455.3632	519.2082	594.1867	632.3346	723.6906	807.228	837.2609	869.0013	876.7076	901.3288	920.3324	939.1167	941.5681	967.3851	1019.2346	1045.836	1098.6262	1118.6278	1144.1238	1190.7329	1229.926	1250.5012	1261.5046	1334.168	1381.2387	1396.7721	1407.7022	1419.3427	1477.337	1483.8492	1496.14	1507.8616	1779.5086	3037.8718	3046.6355	3109.2205	3115.2715	3123.9356	3144.5081	3172.6293	3215.1889	3469.2841	3496.144
CC1(C)OC(=N)C2NC12	CC1(C)O[C]([NH])[C@H]2N[C@@H]12	
InChI=1S/C6H10N2O/c1-6(2)4-3(8-4)5(7)9-6/h3-4,7-8H,1-2H3	InChI=1S/C6H10N2O/c1-6(2)4-3(8-4)5(7)9-6/h3-4,7-8H,1-2H3/t3-,4+/m0/s1
