21
gdb 92265	2.24573	1.59673	1.43268	1.6704	82.85	-0.2367	0.0136	0.2504	1069.2416	0.183391	-387.09752	-387.089124	-387.08818	-387.130023	33.641	
C	-0.3341671036	 1.4087557662	 0.0142122546	-0.480324
C	 0.0624103235	-0.0631782731	-0.0253407841	 0.272457
C	-1.1171277227	-0.9960876816	-0.1689663668	-0.15285
C	-1.2207335101	-1.8678724971	 0.8360619154	-0.065181
C	-0.1219518727	-1.7088086655	 1.8632455724	-0.278978
C	 0.8364900005	-0.7132077337	 1.1818584348	-0.051213
C	 1.848761662	-1.3288375792	 0.1729894958	-0.283947
C	 1.2670980727	-0.4360975392	-0.9553734023	 0.114589
O	 1.0171776947	-0.997489776	-2.2197431718	-0.433657
H	 0.5374904996	 2.0460198735	 0.1998785147	 0.111487
H	-0.7744658709	 1.7193260459	-0.94063164	 0.120997
H	-1.0707137855	 1.6050997274	 0.8010135264	 0.114756
H	-1.815951506	-0.9149616802	-0.9960948433	 0.09555
H	-2.011768562	-2.604015402	 0.9391147056	 0.093174
H	-0.5251847898	-1.3316576902	 2.8133157852	 0.104529
H	 0.3754239003	-2.6590003619	 2.0985472351	 0.103861
H	 1.2927115715	-0.0022503284	 1.8729429236	 0.06336
H	 2.9120881199	-1.2092766825	 0.3929098586	 0.099854
H	 1.652915737	-2.3909042854	-0.0092288012	 0.093018
H	 1.8937131872	 0.4412552407	-1.144465507	 0.082027
H	 0.4540454743	-1.7682920078	-2.0840638955	 0.276492
92.0476	198.4917	203.7121	241.2449	277.8641	311.4784	361.9481	430.914	461.9778	521.0189	603.9463	632.7323	727.1735	765.4343	795.6021	817.2762	883.6252	898.6219	942.8191	952.9551	970.5	983.269	1026.4301	1055.3133	1097.3336	1107.483	1124.9485	1145.5969	1173.5983	1192.9376	1209.5705	1227.8106	1257.018	1287.6005	1305.3041	1321.7583	1328.6637	1384.9455	1404.6592	1441.2725	1479.0299	1484.8676	1491.8843	1495.8873	1672.2669	3008.5811	3021.0652	3037.502	3048.8461	3059.6894	3087.0683	3089.1992	3092.8769	3110.9353	3168.6479	3194.4076	3789.7695
CC12C=CCC1CC2O	C[C@]12C=CC[C@H]1C[C@H]2O	
InChI=1S/C8H12O/c1-8-4-2-3-6(8)5-7(8)9/h2,4,6-7,9H,3,5H2,1H3	InChI=1S/C8H12O/c1-8-4-2-3-6(8)5-7(8)9/h2,4,6-7,9H,3,5H2,1H3/t6-,7+,8-/m0/s1
