17
gdb 74893	2.78256	1.65474	1.16691	0.994	75.95	-0.2186	-0.0594	0.1592	1045.122	0.137861	-418.033112	-418.02547	-418.024526	-418.06508	30.387	
N	 0.0274733639	 1.2055297161	 0.4793463235	-0.542809
C	-0.0595678651	-0.1216198492	 0.1552825476	 0.262089
N	-1.1573656804	-0.7768868983	 0.2526487614	-0.288288
C	-1.1950665884	-2.1576788507	-0.0946048529	 0.020166
C	-0.8779659885	-2.5899857985	-1.513498783	-0.296203
C	 0.0678025788	-2.9425074164	-0.3934684454	-0.054838
C	 1.3878402494	-2.2214808077	-0.2365340241	-0.330987
C	 1.269123693	-0.7114923228	-0.2747569585	 0.337423
O	 2.1899015238	 0.0148684967	-0.584148999	-0.32787
H	 0.8289605746	 1.6882002328	 0.1030554831	 0.267606
H	-0.8404565199	 1.713121602	 0.5381587429	 0.257003
H	-2.0094844886	-2.682231326	 0.3944704408	 0.095608
H	-1.4654757359	-3.3850579731	-1.959367528	 0.116512
H	-0.5913376724	-1.7991397021	-2.2007651773	 0.117466
H	 0.0807245862	-3.9838922059	-0.0869162159	 0.092415
H	 1.8215320851	-2.4528023384	 0.7478499169	 0.140301
H	 2.1335967743	-2.5267728385	-0.9780444222	 0.134407
86.866	155.8147	304.7322	339.0757	348.2135	405.7138	464.538	490.8489	509.9241	545.9995	569.888	671.7775	679.1674	753.4483	800.8838	816.194	873.7273	926.6668	993.9095	1022.8834	1045.0122	1060.066	1108.9894	1132.6523	1166.7823	1207.4433	1222.4343	1266.8404	1325.9705	1376.7424	1382.2978	1416.1591	1450.6191	1482.5853	1595.5155	1706.2744	1787.5272	3009.8297	3073.3139	3123.3394	3147.127	3157.5601	3214.6854	3583.8665	3710.0645
NC1=NC2CC2CC1=O	NC1=N[C@H]2C[C@H]2CC1=O	
InChI=1S/C6H8N2O/c7-6-5(9)2-3-1-4(3)8-6/h3-4H,1-2H2,(H2,7,8)	InChI=1S/C6H8N2O/c7-6-5(9)2-3-1-4(3)8-6/h3-4H,1-2H2,(H2,7,8)/t3-,4-/m0/s1
