17
gdb 54104	2.94178	1.55414	1.20724	2.3382	68.7	-0.2422	0.0155	0.2577	1027.4206	0.136625	-455.096782	-455.088773	-455.087829	-455.129248	31.652	
N	 0.3010207848	 0.7515052438	 1.1559776935	-0.514423
C	 0.1165915898	 0.0331694691	 0.0177253842	 0.321846
O	 0.9145819199	 0.0178026104	-0.9032240711	-0.373476
C	-1.1923872349	-0.7676658479	 0.021198131	 0.252119
N	-2.2250987261	-0.0445195328	 0.7362207729	-0.598028
C	-1.5767364782	-1.6055086614	-1.25202395	 0.006938
C	-0.434549217	-2.6037853926	-0.9710685536	-0.232726
C	-1.1651635974	-2.3004625015	 0.3521338894	 0.011389
O	-2.4561037015	-2.4294757299	-0.3696874204	-0.331676
H	 1.1141135976	 1.3402740244	 1.2280931588	 0.259506
H	-0.4475895858	 0.812239874	 1.8273255695	 0.271526
H	-2.4567748345	 0.8168609688	 0.2484726169	 0.234221
H	-3.0590749686	-0.6268652942	 0.7363748031	 0.247119
H	-1.9952584505	-1.264523665	-2.1990440359	 0.098095
H	-0.6270000217	-3.6083949151	-1.346554344	 0.107739
H	 0.5879817264	-2.2615382958	-1.1069241429	 0.142661
H	-1.0896075524	-2.7753712643	 1.3315295887	 0.097171
62.8266	168.0036	247.3758	310.8552	342.9986	369.9023	400.2256	439.138	464.8713	566.4664	635.9685	654.8439	694.193	724.7638	758.0043	836.8698	873.6075	901.1706	914.0204	933.7821	1009.9834	1034.2602	1065.0048	1105.2778	1119.9017	1143.2836	1169.1789	1204.5142	1210.0442	1253.7258	1274.3013	1305.0464	1390.1659	1485.7349	1585.2822	1651.0854	1786.3037	3100.6691	3111.5617	3124.406	3194.1576	3478.9171	3558.1654	3582.8891	3727.638
NC(=O)C1(N)C2CC1O2	NC(=O)[C@@]1(N)[C@H]2C[C@@H]1O2	
InChI=1S/C5H8N2O2/c6-4(8)5(7)2-1-3(5)9-2/h2-3H,1,7H2,(H2,6,8)	InChI=1S/C5H8N2O2/c6-4(8)5(7)2-1-3(5)9-2/h2-3H,1,7H2,(H2,6,8)/t2-,3+,5-
