16
gdb 49441	2.83244	1.77803	1.6464	2.7232	67.2	-0.2423	-0.0324	0.2099	880.159	0.125231	-437.833902	-437.827001	-437.826057	-437.865417	26.538	
O	-0.8104479102	 0.9038942241	 0.7911637044	-0.248745
C	 0.1040272595	 0.9525418307	 0.0089903487	 0.169073
C	 1.2056166942	 1.9787496118	 0.0194874587	-0.085179
C	 1.1630937783	 3.1504166717	-1.0158459779	 0.04743
O	-0.1653821583	 3.5308516921	-1.3088237226	-0.260031
C	-0.7662632494	 3.9459079279	-0.0662176615	-0.118669
C	 0.3908850666	 4.0907843048	 0.9053578281	-0.040928
C	 1.6527629782	 4.0299084616	 0.1562015096	-0.062559
N	 1.3166514432	 2.9458285904	 1.1604897357	-0.155441
H	 0.2041140668	 0.2045681653	-0.811764548	 0.080045
H	 2.162920225	 1.4464324771	-0.0561727953	 0.10541
H	 1.7271794141	 3.063047192	-1.9429282432	 0.095953
H	-1.2665032319	 4.9089297203	-0.2217731005	 0.113192
H	-1.5021518891	 3.2083168203	 0.2650931436	 0.141934
H	 0.2802953357	 4.7298658593	 1.7733441901	 0.112592
H	 2.5191575373	 4.6737404705	 0.2317313302	 0.105924
96.1006	162.7202	203.8515	266.7409	410.0068	488.331	632.1346	679.9765	711.3152	781.9707	804.3574	832.3167	847.9842	901.6177	913.3933	946.3854	985.2405	997.9164	1039.4113	1063.6988	1081.4261	1105.7906	1112.1132	1187.3905	1197.0469	1229.1424	1250.1821	1270.1172	1320.5706	1346.1809	1371.5014	1405.417	1421.4227	1519.8863	1826.687	2862.3517	3030.6982	3038.5004	3097.4468	3135.6154	3190.2169	3204.77
O=CC1C2OCC3C2N13	O=C[C@H]1[C@H]2OC[C@@H]3[C@H]2N13	
InChI=1S/C6H7NO2/c8-1-3-6-5-4(2-9-6)7(3)5/h1,3-6H,2H2	InChI=1S/C6H7NO2/c8-1-3-6-5-4(2-9-6)7(3)5/h1,3-6H,2H2/t3-,4+,5+,6+,7?/m0/s1
