21
gdb 100180	2.26483	1.29862	1.03645	1.5005	74.64	-0.2475	-0.0386	0.2089	1258.051	0.179467	-461.371097	-461.360515	-461.35957	-461.406751	38.872	
C	-0.0128465806	 1.6403588323	-0.1113921378	-0.403891
C	 0.0599435928	 0.1037724057	-0.1336950889	-0.003684
C	 0.8119715541	-0.3643161947	-1.3928636481	-0.40862
C	 0.6925279915	-0.4514956061	 1.1668945068	 0.260955
O	 2.0365400385	 0.0205281115	 1.2652357934	-0.472649
C	-0.0791328055	-0.0554434646	 2.4367714355	-0.128788
O	 0.6498552143	-0.452130059	 3.5918510199	-0.440286
C	 0.8311895038	-1.980811812	 1.1282137654	 0.12872
O	 0.297099767	-2.7384916376	 1.9047967438	-0.282776
H	 0.976883049	 2.0647901808	 0.0772695913	 0.138566
H	-0.3659282054	 2.0102858971	-1.0786653334	 0.11282
H	-0.6990189883	 2.0185058892	 0.6509116612	 0.117047
H	-0.9632072204	-0.2948336421	-0.1758644082	 0.082193
H	 1.8656806795	-0.0753412696	-1.3431143783	 0.140964
H	 0.7615533486	-1.4472744389	-1.5363215527	 0.113417
H	 0.3741393002	 0.1001336173	-2.2813792051	 0.114916
H	 2.2501066417	-0.0338770003	 2.209329167	 0.293883
H	-0.1685564671	 1.0303904989	 2.4932241003	 0.119542
H	-1.0848707102	-0.4926354846	 2.421519759	 0.11012
H	 0.5504253408	-1.4111046974	 3.6502731697	 0.301422
H	 1.5499137256	-2.3530298159	 0.3708721792	 0.106129
47.7834	71.2002	144.2719	186.4762	220.8628	229.0136	264.8629	283.7885	334.1441	346.2822	366.7451	424.6011	453.3702	510.4691	523.3975	627.4075	656.7205	802.6703	851.443	914.8513	929.8093	963.3546	969.0067	1025.8458	1047.8837	1081.2822	1102.7235	1163.6139	1193.976	1210.6573	1248.6535	1333.1926	1345.7783	1377.7799	1388.229	1396.0772	1417.1162	1421.5575	1434.6496	1486.8386	1494.1668	1495.3913	1509.0132	1518.2536	1801.8649	2935.0945	3011.9707	3037.2159	3042.5574	3046.732	3106.3152	3110.5196	3120.8213	3124.7022	3130.5911	3715.4813	3777.8597
CC(C)C(O)(CO)C=O	CC(C)[C@@](O)(CO)C=O	
InChI=1S/C6H12O3/c1-5(2)6(9,3-7)4-8/h3,5,8-9H,4H2,1-2H3	InChI=1S/C6H12O3/c1-5(2)6(9,3-7)4-8/h3,5,8-9H,4H2,1-2H3/t6-/m0/s1
