16
gdb 131522	3.04547	1.60688	1.15956	1.4334	69.84	-0.2599	-0.0161	0.2438	1023.2561	0.127923	-434.070208	-434.062946	-434.062002	-434.102124	27.712	
O	-0.2294751771	 1.4961187933	-0.2199620502	-0.424418
C	 0.0845562617	 0.1255025341	 0.0019870516	 0.006008
C	-1.1791910744	-0.7906003829	 0.1882591306	-0.240049
C	-1.4426467821	-1.5669057655	-1.1486574531	-0.357199
C	-0.1090067886	-1.445513596	-1.8172151164	 0.310272
N	 0.5117809592	-1.9587657133	-2.874518926	-0.313548
N	 1.697357819	-1.337340556	-2.8208922561	-0.093484
N	 1.8963233341	-0.4729512738	-1.8252092691	-0.308927
C	 0.7364740083	-0.5378656653	-1.1745932285	 0.263205
H	-0.5578941604	 1.5840304888	-1.1213413525	 0.279611
H	 0.6994420535	 0.1264976214	 0.9053805229	 0.10457
H	-0.974342017	-1.5133066644	 0.9839434893	 0.115055
H	-2.0298209142	-0.1837692814	 0.5056169157	 0.115217
H	-1.748556975	-2.6005202834	-0.9669206051	 0.127578
H	-2.2358196464	-1.1027487398	-1.7460561769	 0.123169
H	 2.4188282894	-1.5313906357	-3.4970520363	 0.292939
87.398	155.8112	247.3293	272.651	340.8156	437.9367	484.2301	512.3724	627.4735	702.072	713.3041	724.3286	780.8764	830.9497	906.118	969.0712	1001.1777	1014.3677	1071.8377	1126.0057	1160.8883	1164.3155	1198.7514	1214.2746	1265.6025	1272.5137	1301.5355	1329.418	1419.3934	1434.7579	1447.0086	1472.6003	1496.8815	1518.3108	1579.8456	3042.9606	3058.7894	3085.5745	3092.0006	3119.6655	3664.1878	3806.2074
OC1CCC2=NNN=C12	O[C@H]1CCc2n[nH]nc12	
InChI=1S/C5H7N3O/c9-4-2-1-3-5(4)7-8-6-3/h4,9H,1-2H2,(H,6,7,8)	InChI=1S/C5H7N3O/c9-4-2-1-3-5(4)7-8-6-3/h4,9H,1-2H2,(H,6,7,8)/t4-/m0/s1
