19
gdb 97595	4.23524	0.58551	0.52857	1.7622	88.4	-0.2458	0.0282	0.274	2044.174	0.155397	-385.822117	-385.811057	-385.810113	-385.861045	38.226	
C	 0.0332477683	 1.58012926	 0.0066276017	-0.384776
C	 0.0245685737	 0.040408489	-0.0243275376	-0.163438
C	-1.4235845953	-0.5319679204	 0.036091408	-0.346759
C	-2.1212263856	-0.1894446539	 1.2686735622	 0.302755
C	-2.6745824032	 0.0967823001	 2.2970173689	-0.447926
C	 0.711762942	-0.4707863911	-1.2085172554	 0.055864
C	 1.2537414752	-0.8951261382	-2.1964823801	 0.117374
C	 1.9269486165	-1.3870327057	-3.3918937327	-0.21643
O	 1.9310650489	-2.8102260918	-3.3881937183	-0.409158
H	 1.057919415	 1.9599793825	 0.0062960703	 0.124133
H	-0.4796006677	 1.9855671409	-0.8712277638	 0.121927
H	-0.475901956	 1.9397484218	 0.9043927165	 0.132842
H	 0.5509639452	-0.32212747	 0.8681050876	 0.117206
H	-1.9849812527	-0.1603944441	-0.8299589971	 0.136258
H	-1.3764579532	-1.6212294113	-0.0713109679	 0.144603
H	-3.1766401033	 0.3421906931	 3.1998369264	 0.19552
H	 1.4121389909	-0.9935848179	-4.2838514503	 0.114755
H	 2.9536943965	-0.9862238225	-3.4164204904	 0.116111
H	 2.3827366449	-3.0967739306	-4.188620208	 0.28914
6.9063	57.0356	74.2514	128.7036	168.75	204.9711	230.4432	245.5689	286.8371	341.1897	356.379	441.0513	514.2321	521.5007	575.0703	616.5999	646.568	759.1923	856.098	894.4668	974.4883	1008.3387	1028.481	1053.878	1091.4423	1103.5337	1169.4572	1240.4257	1246.1311	1257.1224	1291.2124	1336.8105	1362.4627	1405.6613	1459.1646	1469.4381	1495.0893	1498.6132	1504.3089	2236.108	2368.9907	2961.1834	2978.5759	3020.6407	3035.6336	3044.4251	3072.8733	3117.878	3129.487	3506.2526	3817.5402
CC(CC#C)C#CCO	C[C@@H](CC#C)C#CCO	
InChI=1S/C8H10O/c1-3-5-8(2)6-4-7-9/h1,8-9H,5,7H2,2H3	InChI=1S/C8H10O/c1-3-5-8(2)6-4-7-9/h1,8-9H,5,7H2,2H3/t8-/m0/s1
