25
gdb 101232	3.50581	0.8427	0.81668	1.4009	89.57	-0.2392	0.0839	0.3231	1607.6761	0.227349	-389.492136	-389.481403	-389.480459	-389.528507	39.527	
C	 0.0320532827	 1.5030552987	 0.1954448151	-0.394566
C	 0.0900709314	-0.0139291469	-0.008150276	-0.16159
C	 0.7919827626	-0.4726531016	-1.3041287256	 0.008573
C	 2.2703558196	-0.0643272517	-1.3383441632	-0.404104
C	 0.5911386346	-1.9802011876	-1.4720868913	 0.169083
C	 1.2336614783	-2.7642392841	-2.637050266	-0.343081
C	 1.7670214682	-3.6944900311	-1.5254350959	 0.186818
C	 3.2504779131	-3.9891901522	-1.4518779101	-0.403527
O	 1.3258527486	-2.7692249609	-0.500646825	-0.318392
H	 1.0265837452	 1.9415076098	 0.3210235513	 0.118356
H	-0.4450091217	 1.9999549342	-0.657428072	 0.109635
H	-0.5480988727	 1.7519876673	 1.0897229249	 0.111709
H	 0.5907268276	-0.4867508502	 0.8458086253	 0.113383
H	-0.9347872933	-0.4071604022	-0.0136935943	 0.089167
H	 0.2747607891	-0.0011250908	-2.1547573006	 0.066962
H	 2.7478400309	-0.3402515836	-2.2834134043	 0.107305
H	 2.3842987054	 1.0169232665	-1.227107157	 0.112557
H	 2.8182214566	-0.553466539	-0.5276950188	 0.130898
H	-0.4852099283	-2.1986998748	-1.3896284334	 0.062313
H	 0.549371724	-3.202149433	-3.3654786553	 0.102308
H	 2.0239194449	-2.2247619064	-3.1633543021	 0.105854
H	 1.1943098536	-4.631440438	-1.4550440396	 0.069707
H	 3.8370144906	-3.0712933006	-1.5546375938	 0.120422
H	 3.5010162601	-4.4518111416	-0.4917750712	 0.12609
H	 3.5412731288	-4.6815403503	-2.2498310209	 0.11412
51.8789	55.0842	81.8062	181.0315	199.3252	222.998	229.9708	282.3521	316.5984	327.325	364.6563	432.9601	444.5175	603.2695	670.2727	770.1327	793.4122	846.4847	896.7286	911.2782	926.5188	955.7519	975.894	980.6989	1024.2912	1057.817	1077.5886	1093.1565	1126.3449	1146.4584	1169.9657	1198.2664	1201.2925	1249.5643	1271.6692	1290.6332	1308.557	1339.9007	1359.2991	1379.3249	1383.1301	1393.8609	1406.3761	1411.7076	1426.8053	1481.0225	1485.9374	1487.0884	1494.2931	1497.9748	1505.0305	1507.9265	1514.8554	2968.442	2985.1805	2987.7762	3019.527	3030.3925	3032.8753	3045.7143	3057.905	3075.2031	3095.8449	3103.5823	3104.1291	3109.6846	3113.285	3123.4246	3130.542
CCC(C)C1CC(C)O1	CC[C@@H](C)[C@H]1C[C@@H](C)O1	
InChI=1S/C8H16O/c1-4-6(2)8-5-7(3)9-8/h6-8H,4-5H2,1-3H3	InChI=1S/C8H16O/c1-4-6(2)8-5-7(3)9-8/h6-8H,4-5H2,1-3H3/t6-,7-,8-/m1/s1
