20
gdb 116391	2.46766	1.37868	0.93653	4.3641	76.06	-0.2398	0.0128	0.2526	1275.5829	0.172207	-440.319414	-440.310546	-440.309602	-440.353508	32.95	
C	-0.0289146544	 1.5315259602	 0.1127732919	-0.40612
C	 0.0882991831	 0.005970625	 0.0632033256	-0.171791
C	 0.7524425867	-0.5133103664	-1.2192976611	-0.11695
N	 2.1449295431	-0.0807617635	-1.3154072659	-0.31171
C	 2.8163155471	-0.7113201163	-2.4409471637	-0.184431
C	 2.9057208659	-2.1907980886	-2.1264416946	-0.04363
O	 1.6193287645	-2.7662918496	-1.8426815158	-0.235602
C	 0.6134578393	-2.0404227673	-1.3049080762	 0.442117
O	-0.3962322918	-2.6025690285	-0.9751860672	-0.329404
H	 0.9508637519	 2.0214734135	 0.1335723133	 0.114764
H	-0.5833669529	 1.9181496807	-0.7502797966	 0.115571
H	-0.5612117444	 1.846609176	 1.0149772198	 0.123463
H	 0.6680712156	-0.3527601912	 0.9210469441	 0.107765
H	-0.9006681303	-0.4532454378	 0.1274614929	 0.130751
H	 0.1544861168	-0.1542849441	-2.0833847304	 0.089479
H	 2.1804996807	 0.9287244334	-1.3952900717	 0.227923
H	 2.2938067086	-0.5644955419	-3.4050128659	 0.092564
H	 3.828056856	-0.3063151191	-2.5442693004	 0.112641
H	 3.3047009519	-2.7631636748	-2.9679455267	 0.119234
H	 3.5473913526	-2.3464528595	-1.2522374513	 0.123365
57.7799	95.6369	141.555	201.0301	238.0159	313.1539	330.5127	406.4424	455.057	476.3226	533.622	619.7734	674.5745	758.8142	787.3841	862.0412	904.5265	918.9363	982.4912	1003.4127	1061.9271	1091.9465	1113.9776	1124.1715	1161.0356	1176.1987	1205.1632	1259.6278	1272.4134	1296.3594	1310.6586	1342.9959	1378.3435	1408.3828	1414.6426	1434.1987	1480.0941	1483.9774	1493.8129	1499.9774	1505.9791	1513.498	1835.36	2880.1642	2928.3089	3028.3371	3045.9593	3050.9142	3078.2302	3085.5023	3104.3214	3105.6003	3118.9579	3537.8557
CCC1NCCOC1=O	CC[C@H]1NCCOC1=O	
InChI=1S/C6H11NO2/c1-2-5-6(8)9-4-3-7-5/h5,7H,2-4H2,1H3	InChI=1S/C6H11NO2/c1-2-5-6(8)9-4-3-7-5/h5,7H,2-4H2,1H3/t5-/m1/s1
