13
gdb 28860	3.43315	1.39139	1.03516	2.7794	72.85	-0.2509	-0.0916	0.1593	1062.4209	0.090744	-452.78097	-452.773928	-452.772984	-452.812869	26.301	
O	-0.0996091128	 1.2770636979	-0.2879059481	-0.355447
C	 0.0414357992	-0.0146922756	 0.0219539035	 0.476229
N	 1.2506557153	-0.4816979615	 0.1056630695	-0.362947
C	 1.5690003607	-1.8011604075	 0.181079548	 0.018732
C	 0.8184808059	-2.9138099215	-0.0558633872	-0.190773
C	-0.6144652991	-2.9763237554	-0.2879723996	 0.314531
O	-1.1988531766	-3.9546966086	-0.7258679261	-0.344593
C	-1.4370983037	-1.828071175	 0.2248298104	-0.042735
N	-1.1713606771	-0.5792676103	 0.318034671	-0.230477
H	 0.7938780616	 1.6148634438	-0.4491267008	 0.313422
H	 2.6251166431	-1.9602125109	 0.3916372813	 0.126843
H	 1.3203066509	-3.8768715292	-0.0596225254	 0.123561
H	-2.4334219476	-2.1412472764	 0.5465646135	 0.153653
69.2549	174.2688	304.7687	327.2425	367.3862	402.1238	469.0629	534.9521	614.5177	636.6757	720.2755	754.3255	798.918	847.5466	866.9606	925.4619	986.3711	1024.2599	1077.377	1206.7461	1278.2987	1365.2311	1373.3842	1436.692	1457.5059	1554.941	1619.8362	1700.8427	1737.7331	3111.4318	3145.0911	3183.156	3759.5546
OC1=NC=CC(=O)C=N1	O[C]1N=C[CH]C(=O)C=N1	
InChI=1S/C5H4N2O2/c8-4-1-2-6-5(9)7-3-4/h1-3H,(H,6,9)	InChI=1S/C5H4N2O2/c8-4-1-2-6-5(9)7-3-4/h1-3H,(H,6,9)
