22
gdb 63641	3.50851	1.08959	0.96803	2.2436	83.16	-0.2363	0.0703	0.3066	1327.8897	0.193763	-404.310079	-404.300617	-404.299673	-404.344509	35.45	
C	 0.1783661434	 1.5492188009	-0.1494509094	-0.449297
C	 0.068422794	 0.0539407291	 0.0714656996	 0.325073
C	-1.0946078642	-0.5937215304	-0.65882976	-0.452202
N	 1.3511862891	-0.6863129199	 0.0939353345	-0.368455
C	 0.5392775053	-0.6163858308	 1.3196524362	-0.079833
C	 1.158150357	 0.0179124226	 2.5445165414	 0.127416
C	 2.4138705699	-0.7072278878	 3.0944327503	-0.285083
C	 3.1502763026	 0.5919385117	 2.718438189	-0.055679
O	 1.9189102769	 1.2225204918	 2.3082330308	-0.278256
H	 1.0552590263	 1.9527097776	 0.3524383044	 0.159622
H	 0.2465342481	 1.7621217102	-1.2228451218	 0.104943
H	-0.7122128974	 2.0605614431	 0.2338727944	 0.105399
H	-0.9990521866	-0.4453594855	-1.7411156508	 0.120073
H	-1.1448681808	-1.6708112023	-0.4659140129	 0.105887
H	-2.049071989	-0.1522465695	-0.3511470273	 0.12237
H	 1.2419314184	-1.5941978131	-0.351973478	 0.22086
H	-0.0197287549	-1.5131634985	 1.597682897	 0.072412
H	 0.3695888883	 0.1993952174	 3.2883760477	 0.07509
H	 2.3860412361	-0.9350343026	 4.1609117263	 0.106944
H	 2.711901434	-1.5946866395	 2.5345154382	 0.111557
H	 3.6269331043	 1.135443049	 3.5426051541	 0.097834
H	 3.8546648794	 0.5033304965	 1.8840802364	 0.113326
67.0317	82.4274	161.4498	179.6026	217.3391	241.7203	284.0457	309.5536	379.1311	415.4537	503.5486	646.9296	706.561	738.7232	795.6567	827.7659	885.7656	921.8672	952.5509	957.8506	974.8977	984.9236	1017.8276	1040.6553	1060.9974	1083.7944	1107.3214	1154.0042	1157.553	1168.9939	1206.0995	1220.1716	1259.4471	1273.6071	1307.634	1349.9728	1360.3099	1381.3849	1411.828	1423.442	1458.9948	1482.2828	1485.3189	1487.5647	1506.4355	1514.2655	1526.117	3001.7115	3020.6451	3024.9324	3030.0027	3069.796	3073.5643	3081.7978	3082.7376	3087.2353	3095.1159	3139.9442	3175.9146	3487.9891
CC1(C)NC1C1CCO1	CC1(C)N[C@H]1[C@H]1CCO1	
InChI=1S/C7H13NO/c1-7(2)6(8-7)5-3-4-9-5/h5-6,8H,3-4H2,1-2H3	InChI=1S/C7H13NO/c1-7(2)6(8-7)5-3-4-9-5/h5-6,8H,3-4H2,1-2H3/t5-,6+/m1/s1
