14
gdb 123710	4.19599	1.66309	1.29983	1.8236	66.44	-0.2275	-0.0061	0.2214	908.8819	0.104627	-432.836791	-432.830678	-432.829734	-432.867127	24.497	
C	 0.0017346487	 1.4784104709	 0.1020304866	-0.317687
C	 1.2931359022	 0.7260951381	 0.0406029028	 0.082775
O	 1.9898387624	 0.4492905853	 1.266389941	-0.259725
C	 1.1679561791	-0.3815203414	 1.9451575676	 0.398357
N	 1.2427283172	-0.9544343472	 3.1281872009	-0.330147
N	 0.0957050057	-1.6720247419	 3.1221183161	-0.11219
N	-0.6851558402	-1.5851446809	 2.0370539663	-0.317466
C	-0.0012992094	-0.7452363098	 1.2723420748	 0.269796
C	-0.0372816867	-0.0445791731	-0.0244869709	-0.211227
H	-0.3036806468	 1.9208245979	 1.0435839533	 0.138277
H	-0.2616441426	 2.0500159292	-0.7812399733	 0.12901
H	 1.978851463	 0.8344451893	-0.7890104181	 0.120442
H	-0.1438136663	-2.2692351113	 3.8947629442	 0.293134
H	-0.4020782464	-0.508447545	-0.9320236714	 0.116651
170.222	279.7493	315.4768	417.6904	465.4109	486.1714	642.7314	678.2303	706.9892	766.3154	786.9789	798.1237	826.0389	947.9441	966.0133	976.862	1035.0798	1060.1114	1082.5204	1124.9062	1153.6302	1168.7767	1183.6986	1202.5275	1299.204	1357.347	1443.61	1466.1914	1470.0018	1555.1756	1629.6475	3137.4223	3193.4639	3208.4776	3230.4338	3692.9875
C1C2OC3=NNN=C3C12	C1[C@H]2Oc3n[nH]nc3[C@@H]12	
InChI=1S/C5H5N3O/c1-2-3(1)9-5-4(2)6-8-7-5/h2-3H,1H2,(H,6,7,8)	InChI=1S/C5H5N3O/c1-2-3(1)9-5-4(2)6-8-7-5/h2-3H,1H2,(H,6,7,8)/t2-,3+/m0/s1
