17
gdb 71424	4.59472	1.15122	1.05013	1.0327	78.22	-0.244	0.0519	0.2959	1141.9149	0.135076	-384.595455	-384.587715	-384.58677	-384.62731	31.143	
O	-0.0375190297	 1.3437356876	-0.023698961	-0.46175
C	 0.0493544558	-0.0314837263	-0.0397980283	 0.381666
C	 0.8752546917	-0.9045920718	-0.9815541943	-0.313814
C	-0.0495510509	-2.0608713963	-0.5056392013	-0.061691
C	-1.1122067173	-0.9813779132	-0.0539261206	-0.118046
C	-0.2806372634	-0.8765790357	 1.2094686044	-0.136072
C	 0.3434667979	-2.2644848492	 1.0011040989	-0.199022
C	-0.3756315233	-3.3401918952	 1.6594771023	 0.311147
C	-0.9708336691	-4.2349841937	 2.1994216462	-0.446764
H	 0.6790425593	 1.689885045	 0.5198878277	 0.286735
H	 0.6824354825	-0.6397526418	-2.0247297766	 0.106998
H	 1.9539706307	-1.0141102026	-0.8153834086	 0.085811
H	-0.2435135014	-2.923884525	-1.1363914359	 0.087524
H	-2.1668412628	-0.846842957	-0.2390128249	 0.101531
H	-0.5566182693	-0.4006220794	 2.1416543074	 0.094828
H	 1.4202175976	-2.3598686046	 1.1923483271	 0.089804
H	-1.4946104481	-5.0240802909	 2.6792037876	 0.191115
120.8636	137.1162	260.9575	317.0618	350.0696	386.8856	439.2699	467.4829	515.4361	615.2278	627.6944	633.9713	754.5104	788.2159	831.346	848.2273	883.734	917.3518	924.0285	949.4761	981.31	1027.0204	1036.496	1064.6749	1119.8749	1124.2073	1139.4333	1178.7529	1211.5096	1236.8605	1245.9333	1287.6556	1308.0123	1347.0678	1437.6345	1505.391	2233.7911	3016.1609	3028.4265	3100.1929	3156.587	3200.9861	3238.519	3504.6945	3791.4801
OC12CC3C1C2C3C#C	O[C@]12C[C@@H]3[C@H]1[C@H]2[C@H]3C#C	
InChI=1S/C8H8O/c1-2-4-5-3-8(9)6(4)7(5)8/h1,4-7,9H,3H2	InChI=1S/C8H8O/c1-2-4-5-3-8(9)6(4)7(5)8/h1,4-7,9H,3H2/t4-,5-,6+,7-,8-/m0/s1
