17
gdb 16303	3.54505	1.69811	1.40273	3.8306	69.53	-0.2439	-0.0403	0.2035	931.7016	0.141422	-363.827027	-363.819278	-363.818334	-363.859045	28.652	
C	-0.0690495616	 1.6215021645	-0.2131717045	-0.413681
C	 0.0476437236	 0.1170526253	-0.0031044059	-0.061393
C	 1.1266140394	-0.6993923584	-0.7660473889	-0.177017
N	 1.6534271942	-1.3329273886	 0.4983335367	-0.141425
C	 2.1567666186	-0.2338032848	 1.311045508	-0.271214
C	 0.6816268976	-0.4132178363	 1.2854640763	 0.228679
C	-0.0489637091	-0.9268074419	 2.4680549487	 0.072558
O	 0.4766941098	-1.4550932203	 3.4173644501	-0.252883
H	 0.8918702157	 2.1263273793	-0.0730529611	 0.119423
H	-0.4184448615	 1.8463267307	-1.2265270295	 0.122386
H	-0.7836309807	 2.0620689865	 0.4905942112	 0.122938
H	-0.9329055085	-0.3502601421	-0.1440004198	 0.088898
H	 0.7313503387	-1.4639266467	-1.436178439	 0.118685
H	 1.8871660842	-0.1142066304	-1.2949728457	 0.108612
H	 2.6438598924	-0.5674752617	 2.2215601646	 0.149235
H	 2.6013052422	 0.6326790663	 0.8250097247	 0.11568
H	-1.1539434251	-0.7909401914	 2.4204738942	 0.070519
100.6621	155.9909	195.5211	222.6765	237.7449	305.758	441.2755	462.0181	575.4402	658.984	707.3324	761.9864	862.5309	872.0694	906.4062	948.2368	1002.0452	1037.6617	1083.3471	1101.5896	1119.071	1145.9284	1158.2673	1202.5593	1229.8948	1267.632	1307.8478	1345.8027	1389.4171	1414.9022	1431.8832	1483.5964	1494.0579	1498.7411	1507.6065	1808.9277	2867.0105	3031.3697	3044.284	3048.0454	3098.2452	3102.5431	3107.4761	3121.6697	3211.1403
CC1CN2CC12C=O	C[C@H]1CN2C[C@@]12C=O	
InChI=1S/C6H9NO/c1-5-2-7-3-6(5,7)4-8/h4-5H,2-3H2,1H3	InChI=1S/C6H9NO/c1-5-2-7-3-6(5,7)4-8/h4-5H,2-3H2,1H3/t5-,6+,7?/m0/s1
