20
gdb 76912	2.65886	1.20796	1.12346	3.0875	75.17	-0.2265	0.0537	0.2801	1200.6722	0.169444	-440.228949	-440.219255	-440.218311	-440.263067	36.456	
C	 0.1931835396	 1.5821330044	-0.0723784997	-0.463932
C	 0.0387832349	 0.0838093039	 0.0435107749	 0.318812
O	-1.1759306688	-0.4218051139	-0.4547417307	-0.45661
C	 1.242301247	-0.8325010375	-0.0756346894	-0.018257
O	 2.544232879	-0.3244996461	-0.2157911066	-0.409405
C	 0.53492924	-0.6692397318	 1.2560972479	-0.099237
C	 1.0959618172	 0.003136874	 2.4752196978	-0.021977
C	 2.2962613683	-0.532896394	 3.1690039846	-0.237294
N	 2.3518488106	 0.7719736142	 2.4905940376	-0.329543
H	 1.1247671297	 1.9334920932	 0.3734179493	 0.147835
H	 0.179010788	 1.8927469966	-1.1258693407	 0.097686
H	-0.6383589364	 2.0833111933	 0.4320597623	 0.133931
H	-1.2199969158	-0.2177139827	-1.3961821964	 0.276819
H	 1.0710619679	-1.7778774495	-0.5901133963	 0.095907
H	 2.6346093808	 0.042521754	-1.1014526113	 0.293513
H	-0.0984195291	-1.5197094682	 1.4995979086	 0.107018
H	 0.3234587405	 0.4496504967	 3.1008489698	 0.092832
H	 2.3607632916	-0.498655866	 4.2533308655	 0.110406
H	 2.8083432713	-1.3730327994	 2.7067633452	 0.113496
H	 2.8192079836	 0.6480511786	 1.5967069176	 0.248001
80.9817	132.4654	171.5044	176.7743	243.0412	264.5442	297.2707	310.8684	319.6981	347.396	405.3605	507.2036	515.7338	671.0099	721.9099	766.0413	849.1586	865.7716	890.9057	961.1913	978.3081	1000.562	1018.6446	1054.2983	1099.5048	1110.662	1129.1827	1148.5489	1160.3337	1221.0838	1237.2868	1277.8176	1287.2924	1298.1705	1332.5231	1355.6096	1363.0368	1418.0353	1421.8074	1461.8169	1486.7379	1508.3511	1511.7725	3018.4118	3091.0294	3101.3639	3102.0477	3105.2653	3133.8783	3145.6507	3190.1046	3522.1705	3782.4429	3804.5485
CC1(O)C(O)C1C1CN1	C[C@@]1(O)[C@@H](O)[C@H]1[C@H]1CN1	
InChI=1S/C6H11NO2/c1-6(9)4(5(6)8)3-2-7-3/h3-5,7-9H,2H2,1H3	InChI=1S/C6H11NO2/c1-6(9)4(5(6)8)3-2-7-3/h3-5,7-9H,2H2,1H3/t3-,4-,5+,6+/m1/s1
