17
gdb 94411	2.67728	1.35135	1.20382	3.3941	67.92	-0.2642	-0.0048	0.2594	1094.8404	0.135471	-458.96716	-458.958917	-458.957973	-459.000487	29.972	
C	-0.3309443711	 1.4355375205	-0.0568399243	-0.411377
C	 0.1812699371	 0.0116674539	-0.0979121488	 0.105816
O	 1.44542158	-0.1052746656	-0.7927436509	-0.291704
C	 2.0511522525	-0.7842374699	 0.3204444439	-0.12782
C	 0.7916324405	-0.6078182011	 1.186458868	 0.034739
C	 0.7753333407	 0.0348156863	 2.5794661162	-0.146746
O	 0.1347260469	-1.1645951073	 3.130656296	-0.246317
C	 0.1306338494	-1.7803102751	 1.9033928715	 0.420382
O	-0.280355175	-2.8597438361	 1.6237430131	-0.327861
H	 0.3945582274	 2.1062830538	 0.4132639025	 0.122201
H	-0.5071656661	 1.7877790707	-1.0776602342	 0.140751
H	-1.2780315204	 1.4936445818	 0.4902051318	 0.126385
H	-0.565668727	-0.6564457621	-0.5474243658	 0.102189
H	 2.2942836705	-1.8285182449	 0.0899543072	 0.127013
H	 2.9494987977	-0.2708646143	 0.6840003211	 0.112254
H	 1.7505015689	 0.1999432835	 3.0436355337	 0.12886
H	 0.1341926779	 0.908809556	 2.7096871591	 0.131234
71.018	123.2325	144.0916	215.7564	245.5811	271.2004	365.4555	436.1503	493.5364	616.1711	699.3908	760.2534	809.2519	877.9697	885.3548	905.3925	960.0336	1030.5377	1033.7204	1073.4881	1094.1302	1116.3419	1150.0665	1158.078	1172.0635	1193.0977	1261.5594	1293.0281	1354.761	1365.6522	1378.8918	1405.5117	1482.1037	1492.8017	1513.0496	1518.4147	1935.9006	3013.1168	3020.3704	3036.3945	3064.7572	3069.4616	3110.8659	3116.5106	3130.2224
CC1OCC11COC1=O	C[C@H]1OC[C@]21COC2=O	
InChI=1S/C6H8O3/c1-4-6(2-8-4)3-9-5(6)7/h4H,2-3H2,1H3	InChI=1S/C6H8O3/c1-4-6(2-8-4)3-9-5(6)7/h4H,2-3H2,1H3/t4-,6-/m1/s1
