19
gdb 89856	2.46257	1.70013	1.25932	3.0123	76.1	-0.2461	0.0144	0.2606	1047.5336	0.160307	-423.020011	-423.012091	-423.011146	-423.052164	31.624	
O	-0.0101558017	 1.4203136099	 0.1316997519	-0.441532
C	 0.0019991721	 0.0002975238	 0.0054034357	 0.096842
C	-1.4233097331	-0.5820990085	 0.0493705778	-0.31417
C	-2.0788186013	-0.3992191661	-1.3015389335	 0.410142
C	-3.4728912473	 0.0327478605	-1.4311503787	-0.252161
O	-2.4103137126	 0.976896411	-1.6110505406	-0.28604
C	-1.3695586506	-1.1317472969	-2.4217499534	-0.321626
C	 0.124642154	-0.9404431045	-2.3209266866	-0.050495
C	 0.7315381692	-0.4338789957	-1.2478232055	-0.080518
H	-0.6151447325	 1.7537679425	-0.5432173932	 0.294064
H	 0.5579816072	-0.3494802299	 0.883004762	 0.083457
H	-1.3808448801	-1.6515173226	 0.2896562697	 0.103689
H	-1.9919497131	-0.0759441038	 0.8342313771	 0.109297
H	-4.0322542853	-0.2046395647	-2.3354871974	 0.11367
H	-4.0794360101	 0.1743695721	-0.5373408041	 0.116482
H	-1.619472424	-2.2029353819	-2.390047126	 0.113945
H	-1.7355228099	-0.7573133991	-3.3844604158	 0.118535
H	 0.7096480959	-1.228471817	-3.1911966535	 0.092502
H	 1.8071028232	-0.279201969	-1.2515031559	 0.093916
107.8521	133.2106	268.042	303.0395	346.386	377.5249	396.9041	430.5307	484.0615	513.7861	605.9805	675.9221	747.7065	787.8096	819.7499	892.8868	915.7457	936.4931	954.2451	987.188	1001.3881	1011.3676	1061.3226	1074.2001	1124.7909	1156.5461	1165.3114	1198.174	1232.674	1280.0113	1288.3742	1325.9373	1336.8531	1374.3943	1408.3493	1436.396	1445.5941	1455.6915	1474.5183	1530.5643	1716.5413	3000.1471	3032.0496	3045.171	3061.9697	3079.8328	3098.4283	3147.9406	3165.4886	3173.5175	3777.8221
OC1CC2(CO2)CC=C1	O[C@H]1C[C@]2(CO2)CC=C1	
InChI=1S/C7H10O2/c8-6-2-1-3-7(4-6)5-9-7/h1-2,6,8H,3-5H2	InChI=1S/C7H10O2/c8-6-2-1-3-7(4-6)5-9-7/h1-2,6,8H,3-5H2/t6-,7+/m1/s1
