20
gdb 56167	3.50704	0.90553	0.77048	1.4403	76.33	-0.2446	0.0082	0.2528	1515.6383	0.168703	-440.301988	-440.291776	-440.290831	-440.33866	35.852	
C	-1.3043744932	 0.5311551162	 0.5809063956	-0.480461
C	-0.0687886907	-0.2229993818	 0.1542050536	 0.432523
O	 1.0102539124	-0.1697009894	 0.6838283843	-0.340741
O	-0.3288703733	-0.9909059833	-0.930673476	-0.250819
C	 0.7746868102	-1.7557971346	-1.4416504678	-0.134153
C	 0.3097763667	-2.5659625044	-2.6348933508	 0.304087
C	 1.4295426657	-3.3439021969	-3.2926703616	-0.449234
C	-1.0805048737	-3.0822854381	-2.668259208	-0.269694
N	-0.6696044495	-1.9731565633	-3.5585306837	-0.35112
H	-1.6486680398	 1.1782431113	-0.2309645637	 0.151028
H	-2.1143041478	-0.1686693019	 0.8051052527	 0.15105
H	-1.0758024136	 1.1306250972	 1.4609884162	 0.152329
H	 1.580224316	-1.0695214661	-1.7281930046	 0.12429
H	 1.1652970347	-2.4044523698	-0.6502008124	 0.127662
H	 1.8617042943	-4.0776124334	-2.6029011643	 0.116881
H	 1.0517429036	-3.8723522006	-4.1705033532	 0.13336
H	 2.23210913	-2.6746422906	-3.6229858632	 0.12106
H	-1.2934945304	-4.0203215172	-3.1737879163	 0.11308
H	-1.7335464927	-2.8507665149	-1.8328228665	 0.11612
H	-1.0144072889	-1.1020961884	-3.1606150104	 0.23275
34.049	57.0885	75.6808	126.0028	190.9589	199.4083	255.5049	299.4208	347.3883	395.9692	418.9342	512.7401	604.5949	630.6579	722.8636	833.2818	909.6749	917.2238	940.8253	970.667	997.2969	1014.3891	1031.4683	1064.5095	1074.9919	1092.8643	1127.7359	1154.6289	1256.3436	1265.6829	1284.4729	1322.1918	1384.9311	1393.4579	1415.6403	1425.2897	1469.3425	1476.5602	1485.5862	1494.3705	1506.4619	1513.4763	1831.1668	3029.3414	3037.2998	3056.8964	3077.8846	3091.2746	3113.5092	3121.4286	3127.7752	3170.2745	3202.8547	3497.6562
CC(=O)OCC1(C)CN1	CC(=O)OC[C@@]1(C)CN1	
InChI=1S/C6H11NO2/c1-5(8)9-4-6(2)3-7-6/h7H,3-4H2,1-2H3	InChI=1S/C6H11NO2/c1-5(8)9-4-6(2)3-7-6/h7H,3-4H2,1-2H3/t6-/m1/s1
