19
gdb 70368	2.74454	1.69012	1.36409	1.3708	73.31	-0.2209	0.0734	0.2944	998.8509	0.160094	-422.993062	-422.985555	-422.984611	-423.024666	30.736	
O	-0.3820376598	 1.2582840646	 0.2191873307	-0.472301
C	 0.0260792315	-0.0647074319	 0.046116702	 0.375268
C	-0.3255282165	-1.0071283718	 1.1676716608	-0.356565
C	 1.1274137287	-0.7095171361	 0.8525107517	 0.022198
O	 1.8518302872	-1.6266239975	 0.0773779238	-0.267496
C	 1.2981263697	-1.6842113871	-1.2365946283	 0.120931
C	 0.270443491	-2.8132046809	-1.5364271138	-0.247769
C	-0.8067577788	-1.7330422411	-1.8580408151	-0.238231
C	 0.1676302609	-0.621685861	-1.3675477357	-0.125922
H	 0.2704060461	 1.8304140038	-0.2009893356	 0.279662
H	-0.7264819601	-0.5276566382	 2.0544717832	 0.12424
H	-0.7321748412	-1.9888374206	 0.954307717	 0.118452
H	 1.7393588173	-0.1702728696	 1.5672370609	 0.10166
H	 2.1225130612	-1.6289656557	-1.9533581492	 0.079488
H	 0.5369313682	-3.4783124394	-2.3611325722	 0.100281
H	 0.0578770201	-3.4248294589	-0.6569973479	 0.112499
H	-1.0350446052	-1.6576686309	-2.9235134245	 0.102666
H	-1.7493184321	-1.8058844278	-1.3111894982	 0.108281
H	 0.3348593818	 0.2061725302	-2.0621012897	 0.062658
119.723	191.169	250.7109	314.1654	347.6126	391.9546	442.1393	466.7429	595.7031	666.3468	685.3394	722.1234	772.604	843.3989	866.525	888.806	919.1975	947.9758	952.8696	978.2623	1005.2899	1021.3842	1047.8301	1072.263	1088.5674	1111.0679	1156.6012	1188.269	1224.442	1231.6157	1248.568	1249.5785	1269.2049	1280.2034	1322.7088	1334.0638	1364.1443	1411.3593	1471.2399	1480.7833	1495.5116	3056.8401	3064.8909	3067.2725	3075.9301	3110.8722	3129.0742	3138.4224	3174.593	3230.0353	3787.2186
OC12CC1OC1CCC21	O[C@]12C[C@H]1O[C@H]1CC[C@@H]21	
InChI=1S/C7H10O2/c8-7-3-6(7)9-5-2-1-4(5)7/h4-6,8H,1-3H2	InChI=1S/C7H10O2/c8-7-3-6(7)9-5-2-1-4(5)7/h4-6,8H,1-3H2/t4-,5+,6-,7+/m1/s1
