16
gdb 75765	2.4821	1.32484	1.15653	3.2758	71.74	-0.2482	-0.0022	0.2461	1124.2793	0.121888	-437.870688	-437.861385	-437.860441	-437.904634	33.965	
C	 0.1718029663	 1.3825124693	-0.2819100767	-0.424346
C	-0.0406933243	-0.1027968611	-0.0380028381	 0.217384
O	 0.8064045827	-0.909089682	-0.9547825429	-0.27091
C	 1.608270129	-1.3524742547	 0.0634726433	 0.420516
O	 2.6198100976	-1.9726271183	-0.0205320458	-0.325555
C	 0.7560304136	-0.7144501083	 1.1756057604	-0.211674
N	 1.3335200225	 0.1658305639	 2.152237665	-0.5118
C	-1.4331142459	-0.4993048912	-0.1354231056	 0.30227
C	-2.5907717566	-0.8177960502	-0.1846535937	-0.444878
H	 1.2372868464	 1.625593529	-0.2608232478	 0.120927
H	-0.2325121552	 1.6662183365	-1.2561796692	 0.142629
H	-0.3327953218	 1.9592418578	 0.496695578	 0.148177
H	 0.1502195894	-1.475395003	 1.671934023	 0.131069
H	 1.4954622593	-0.3135669071	 3.0286788898	 0.251147
H	 2.221481956	 0.5460424944	 1.8451815843	 0.247718
H	-3.613154019	-1.1015247951	-0.2387420239	 0.207325
80.4819	139.1036	143.7941	184.0516	201.9596	246.9742	249.53	381.5928	433.1388	442.2192	503.7131	597.6485	629.8286	641.4186	676.8733	713.3858	761.8678	808.963	860.5554	901.3302	952.9858	1047.9042	1129.3061	1163.881	1186.5295	1203.81	1233.5472	1280.0041	1406.9825	1424.0375	1475.1788	1488.6854	1673.2797	1930.2808	2238.062	3054.0162	3100.3314	3131.3855	3140.8237	3499.7116	3530.6347	3612.8046
CC1(OC(=O)C1N)C#C	C[C@]1(OC(=O)[C@H]1N)C#C	
InChI=1S/C6H7NO2/c1-3-6(2)4(7)5(8)9-6/h1,4H,7H2,2H3	InChI=1S/C6H7NO2/c1-3-6(2)4(7)5(8)9-6/h1,4H,7H2,2H3/t4-,6+/m1/s1
