19
gdb 122508	2.73733	0.86778	0.72529	3.9321	74.5	-0.2506	-0.0214	0.2292	1567.5074	0.156762	-460.139586	-460.12981	-460.128866	-460.17583	34.433	
O	 0.2018495676	 1.0934663497	-0.755880899	-0.418629
C	-0.1464790013	 0.0963019319	 0.1828252015	-0.065694
C	-1.6384981686	-0.193334924	 0.1732630173	-0.072033
O	-1.9593726495	-0.6725511422	-1.1301477544	-0.265032
C	-3.3126145304	-0.9367442759	-1.3080061507	 0.12738
C	-4.2461654426	 0.174012103	-1.6541917348	-0.330886
C	-3.8532252571	-0.8581041787	-2.7188429941	-0.147599
C	-2.9739787286	-0.4070446943	-3.8254300195	 0.178563
O	-3.0367262412	-0.8311701664	-4.9524030269	-0.267758
H	-0.1083623515	 0.7792625164	-1.6122651081	 0.291722
H	 0.402487361	-0.8409399308	 0.0017956803	 0.099259
H	 0.143442605	 0.470311779	 1.170034089	 0.113514
H	-1.8931410882	-0.9486867093	 0.9332721733	 0.093213
H	-2.2065339234	 0.7228672583	 0.3882335396	 0.104894
H	-3.6937844378	-1.7529576706	-0.6930773297	 0.103324
H	-5.2664286067	 0.1579029546	-1.2894868084	 0.132893
H	-3.8104092786	 1.1617650986	-1.7673328634	 0.136343
H	-4.5869972047	-1.6006020647	-3.0110935828	 0.114288
H	-2.2419681034	 0.3807986355	-3.5433095592	 0.072238
42.5846	54.592	83.3153	153.017	161.1896	266.4012	275.8367	317.2476	390.7656	432.8628	450.6812	546.5206	562.6849	799.523	844.0554	856.4941	875.3335	912.9708	985.6242	1010.7555	1044.0181	1064.0358	1075.9375	1099.7894	1131.5045	1135.6555	1167.261	1184.1326	1235.3423	1241.6545	1267.1552	1336.3802	1373.9984	1391.7705	1423.5919	1435.3885	1439.3843	1477.9767	1495.8117	1506.9171	1820.9064	2891.8269	2982.1959	2988.9596	3034.3715	3083.8319	3097.0381	3136.4278	3184.56	3229.8152	3810.6691
OCCOC1CC1C=O	OCCO[C@H]1C[C@H]1C=O	
InChI=1S/C6H10O3/c7-1-2-9-6-3-5(6)4-8/h4-7H,1-3H2	InChI=1S/C6H10O3/c7-1-2-9-6-3-5(6)4-8/h4-7H,1-3H2/t5-,6-/m0/s1
