20
gdb 114286	2.27602	1.43651	1.07677	1.4521	84.91	-0.2271	0.0293	0.2565	1209.3791	0.169945	-365.931729	-365.922708	-365.921764	-365.965394	34.453	
C	 1.3667201646	 0.1664258368	 1.1593148573	-0.38206
C	 0.3270530621	 0.4017754633	 0.0573356151	-0.206509
C	 0.6630018727	-0.3722705996	-1.2070110012	 0.092738
C	 0.5101940026	-1.9178948067	-1.3198712438	-0.298122
C	-0.2627318937	-1.6387635591	-2.6067474829	-0.027963
C	-1.4891256942	-0.8470485742	-2.342265756	-0.193933
C	-2.3041101942	-1.0046666224	-1.1696797385	 0.34938
C	-3.057958587	-1.168590079	-0.245725392	-0.456007
N	-0.1776618089	-0.135631223	-2.4471974871	-0.18319
H	 1.4101837079	-0.8899990241	 1.4469208801	 0.117878
H	 2.3699384698	 0.4619940499	 0.8319880961	 0.113724
H	 1.1261104562	 0.7431172019	 2.057235301	 0.115171
H	-0.6670918511	 0.1324073741	 0.4196092413	 0.119593
H	 0.2913051521	 1.4677063354	-0.201641046	 0.105606
H	 1.6774363551	-0.0980275476	-1.5177383884	 0.087212
H	 1.453498559	-2.4459714694	-1.4642678301	 0.108949
H	-0.0670357565	-2.4195113287	-0.5379915651	 0.116427
H	-0.1010991485	-2.123448703	-3.564755061	 0.099333
H	-2.0726721384	-0.6131136093	-3.2304393149	 0.122022
H	-3.7107183096	-1.2990606952	 0.5817827361	 0.199752
79.7166	132.0483	138.3726	183.7392	214.1294	277.9586	342.5046	406.3165	428.7502	542.384	589.3445	603.2579	656.496	733.1599	757.8018	768.8089	789.8218	848.8198	910.525	925.7927	972.8519	992.522	1006.7946	1059.6713	1068.6182	1085.5603	1136.2056	1147.0995	1204.2861	1231.3807	1265.6429	1283.8485	1301.1329	1329.5545	1355.167	1398.3244	1406.7396	1416.4146	1487.2973	1494.2611	1499.9213	1508.0545	2226.3588	3028.7662	3033.8055	3037.3756	3063.4666	3087.6899	3104.7429	3119.758	3125.8941	3128.8087	3158.489	3501.1602
CCC1CC2C(C#C)N12	CC[C@H]1C[C@H]2[C@@H](C#C)N12	
InChI=1S/C8H11N/c1-3-6-5-8-7(4-2)9(6)8/h2,6-8H,3,5H2,1H3	InChI=1S/C8H11N/c1-3-6-5-8-7(4-2)9(6)8/h2,6-8H,3,5H2,1H3/t6-,7+,8-,9?/m0/s1
