17
gdb 59164	2.94019	1.19741	1.07678	3.8117	68.39	-0.274	-0.0007	0.2732	1172.512	0.134251	-458.953345	-458.944734	-458.943789	-458.987305	31.782	
C	-0.4332337884	 1.2730708474	 0.0804426681	-0.403982
C	 0.0832205648	-0.1508529888	-0.1382326403	 0.088062
O	 1.0742260381	-0.2015579039	-1.1599969947	-0.43503
C	 0.7573126668	-0.685526007	 1.1069884338	-0.015187
C	 0.0617232201	-1.3387303446	 2.2407823595	 0.061148
O	-1.0942474857	-2.0833778062	 1.7669726841	-0.265534
C	-0.2518018799	-2.9454094443	 1.0602683031	 0.464651
O	-0.5626954066	-3.9335814838	 0.4830257458	-0.319665
C	 0.9978769558	-2.1784817022	 1.4006919441	-0.295926
H	 0.3874191765	 1.9434360731	 0.3552420031	 0.123184
H	-0.8950009336	 1.6576705601	-0.8355384355	 0.111895
H	-1.1898741162	 1.2967988873	 0.8709344975	 0.127774
H	-0.765434489	-0.7998970522	-0.3930481146	 0.097086
H	 0.6696009736	 0.0980463809	-1.9802233658	 0.285985
H	 1.6194156837	-0.0933487211	 1.411875809	 0.114517
H	 0.078316004	-1.0786367286	 3.289707462	 0.130202
H	 1.9772270959	-2.5914933863	 1.5901841908	 0.130819
41.9148	102.181	168.6892	239.3286	247.6279	265.7942	340.7012	439.1029	465.7346	494.721	599.0926	712.1503	753.3314	803.5861	828.2461	876.6503	901.4562	933.3669	959.8479	995.1747	1048.6541	1051.2472	1066.9034	1096.1439	1109.3901	1132.5591	1168.8234	1275.1737	1275.6665	1305.2978	1366.3493	1383.6798	1405.5489	1459.8367	1492.5516	1503.986	1946.9498	3014.0774	3031.6796	3100.9886	3114.9758	3130.1115	3221.6462	3237.8758	3820.7358
CC(O)C1C2OC(=O)C12	C[C@@H](O)[C@H]1[C@H]2OC(=O)[C@@H]12	
InChI=1S/C6H8O3/c1-2(7)3-4-5(3)9-6(4)8/h2-5,7H,1H3	InChI=1S/C6H8O3/c1-2(7)3-4-5(3)9-6(4)8/h2-5,7H,1H3/t2-,3-,4+,5-/m1/s1
