18
gdb 117865	4.05695	0.57178	0.5165	4.493	87.95	-0.2872	-0.0499	0.2373	2074.1556	0.145663	-401.938157	-401.927861	-401.926917	-401.974435	35.818	
C	-0.0300954664	 1.5736802843	-0.038542268	-0.390701
C	 0.0084345873	 0.0437768609	-0.0153094545	-0.167935
C	 0.7007662194	-0.5098077374	 1.2339554358	-0.182553
C	 0.7916341677	-2.0489894368	 1.2253971952	-0.102901
O	 1.4994656763	-2.5546070166	 0.1010702712	-0.402472
C	 1.3641785814	-2.5498800134	 2.4798492716	 0.079978
C	 1.8736208679	-2.9413872649	 3.5037353165	 0.077844
C	 2.4437834966	-3.3876774491	 4.6612555145	 0.203701
N	 2.9301467753	-3.764403342	 5.6466908006	-0.332856
H	 0.9804309131	 1.9967203932	-0.0238716074	 0.117378
H	-0.5308090388	 1.9410601435	-0.9392103227	 0.119854
H	-0.5679201396	 1.973102164	 0.8283155078	 0.118168
H	-1.014425215	-0.3523887803	-0.0631268251	 0.100887
H	 0.5240995094	-0.335116853	-0.9037373139	 0.116121
H	 1.7174582002	-0.1025029222	 1.3200404348	 0.102645
H	 0.1661281385	-0.1975500424	 2.1392827115	 0.116418
H	-0.2207441105	-2.4606552611	 1.1232391512	 0.135314
H	 2.4190344172	-2.2740117767	 0.178194191	 0.291111
58.9576	72.7953	87.936	136.5529	175.1439	245.1383	249.0642	268.5158	323.2406	337.0036	390.4398	525.6989	537.4224	580.3774	595.3823	748.6852	767.022	855.0839	906.8414	951.6377	1042.997	1082.056	1102.7974	1120.1239	1164.8952	1239.2279	1269.9797	1299.1534	1336.4683	1345.3315	1391.0641	1413.5445	1416.8491	1478.2448	1494.4213	1500.0823	1511.6735	2260.9401	2398.4093	3015.6841	3027.288	3032.4592	3036.9928	3060.5189	3078.8193	3102.0202	3107.6711	3796.0926
CCCC(O)C#CC#N	CCC[C@@H](O)C#CC#N	
InChI=1S/C7H9NO/c1-2-4-7(9)5-3-6-8/h7,9H,2,4H2,1H3	InChI=1S/C7H9NO/c1-2-4-7(9)5-3-6-8/h7,9H,2,4H2,1H3/t7-/m1/s1
