21
gdb 62561	1.83267	1.63964	1.58843	0.818	79.23	-0.2149	0.0655	0.2804	1085.9669	0.179313	-424.193994	-424.184023	-424.183078	-424.227737	37.837	
C	 0.0031238436	 1.5564637278	-0.0131717997	-0.467627
C	 0.0519583755	 0.0470666888	-0.0560678204	 0.274377
O	-1.1171563733	-0.5811110164	 0.4201590815	-0.464719
C	 0.6430799376	-0.7781394069	-1.1940189702	 0.157609
C	-0.1146699363	-1.8215055257	-1.9620865492	-0.499357
C	 1.9214835871	-0.0986733086	-1.6671281622	-0.145619
O	 2.4489943758	-0.0296916429	-0.3153952174	-0.325841
C	 1.3142812656	-0.7576359374	 0.1821965729	 0.358139
C	 1.5443636963	-1.7612558643	 1.2626731474	-0.501018
H	 0.9678864213	 1.9923801911	-0.278106909	 0.141014
H	-0.7668794868	 1.9445295906	-0.6877353541	 0.121115
H	-0.2388028995	 1.8967992406	 1.0018641516	 0.103707
H	-1.2215161986	-0.3377963324	 1.3468317626	 0.283713
H	-0.5806362642	-1.3887151018	-2.8560842645	 0.118299
H	 0.5472061529	-2.6297620395	-2.2931298695	 0.1139
H	-0.9094494362	-2.2512988137	-1.3500225229	 0.144137
H	 2.5462613086	-0.751896734	-2.2891468998	 0.105429
H	 1.8451666197	 0.8880373484	-2.1399543513	 0.099125
H	 1.9829677497	-1.2797774294	 2.1450331875	 0.127095
H	 0.5965365575	-2.2213834443	 1.5523050407	 0.129215
H	 2.2304814639	-2.5489263803	 0.9358890961	 0.127307
152.6044	162.2945	184.1389	190.7439	193.0109	232.2717	255.4279	300.3602	313.5767	320.6559	417.685	420.9274	504.9532	551.0734	662.5278	665.3196	687.2646	751.7464	908.1483	922.6364	971.3292	989.8171	999.4572	1076.537	1095.3217	1117.2564	1140.2175	1158.253	1188.9394	1206.6137	1231.9624	1283.4102	1328.8411	1347.3243	1401.2414	1404.4679	1412.161	1472.0451	1482.3972	1489.3151	1490.87	1492.3447	1496.5764	1513.7344	1526.7308	3012.9146	3023.4603	3025.1672	3030.5879	3058.2391	3076.4477	3085.0305	3090.8405	3126.6884	3135.0002	3136.5221	3793.7989
CC1(O)C2(C)COC12C	C[C@@]1(O)[C@@]2(C)CO[C@@]12C	
InChI=1S/C7H12O2/c1-5-4-9-7(5,3)6(5,2)8/h8H,4H2,1-3H3	InChI=1S/C7H12O2/c1-5-4-9-7(5,3)6(5,2)8/h8H,4H2,1-3H3/t5-,6-,7-/m1/s1
