18
gdb 19471	4.66167	1.58032	1.53023	1.027	72.75	-0.2246	0.0169	0.2415	910.7861	0.154786	-347.757388	-347.750351	-347.749407	-347.788581	27.563	
C	 0.1746684178	 1.3430713892	 0.0846702149	-0.244682
O	-0.2617057013	 0.0396960473	-0.2373949047	-0.257
C	 0.4994239367	-0.5727324715	-1.2360372897	 0.195612
C	 1.8247233187	-1.3308224983	-0.7813882004	-0.118848
C	 0.8570551181	-2.4350633413	-0.2387643319	-0.211017
C	 0.0499855903	-2.0485114444	-1.5234593649	-0.10774
C	 1.0606658932	-2.3890002307	-2.6187417217	-0.090907
C	 2.2170587661	-1.9200204529	-2.1328070677	-0.086447
H	 1.1890177494	 1.3457721124	 0.509506195	 0.109317
H	 0.168926657	 1.9995028377	-0.7989856139	 0.107552
H	-0.5193036717	 1.7431638767	 0.8274782515	 0.128064
H	 0.6092211146	 0.0850900407	-2.1105499772	 0.059507
H	 2.5900613519	-0.8612232379	-0.1640078232	 0.058543
H	 1.2473590837	-3.4537615149	-0.1829486484	 0.08847
H	 0.3514769063	-2.1448194692	 0.6839393655	 0.109133
H	-0.9996469822	-2.3040716179	-1.6626265172	 0.064128
H	 0.8448833042	-2.8611410013	-3.5665656059	 0.098741
H	 3.2004508074	-1.9012209338	-2.5811918202	 0.097573
94.8972	176.5119	194.1509	321.6232	397.2306	461.4069	525.7227	555.7413	701.342	721.0966	825.7938	847.596	902.215	910.065	919.65	939.3063	958.7217	996.6325	1021.1081	1047.5293	1083.5409	1116.2199	1136.5875	1151.4099	1182.5034	1208.85	1214.8945	1237.2712	1243.2288	1251.2448	1262.0661	1332.3654	1376.1416	1478.5027	1487.1521	1490.8336	1508.1326	1616.6985	2980.0337	3001.9154	3030.9121	3068.3005	3117.335	3119.7369	3128.123	3139.2992	3217.3614	3243.9828
COC1C2CC1C=C2	CO[C@H]1[C@H]2C[C@@H]1C=C2	
InChI=1S/C7H10O/c1-8-7-5-2-3-6(7)4-5/h2-3,5-7H,4H2,1H3	InChI=1S/C7H10O/c1-8-7-5-2-3-6(7)4-5/h2-3,5-7H,4H2,1H3/t5-,6+,7+
