14
gdb 19102	5.17517	2.14686	2.05142	3.1176	63.21	-0.225	-0.0087	0.2163	683.2132	0.108891	-345.339018	-345.333727	-345.332783	-345.36825	21.915	
O	 0.0031802106	-0.0146027187	 0.0417328218	-0.325599
C	-0.0125830259	 1.1802572966	 0.0724282309	 0.445131
C	-1.0982686354	 2.2694882522	-0.0242577072	-0.193695
C	-0.7997862609	 3.2598759692	 1.1190075408	-0.066965
C	-0.0515851379	 4.2454282256	 0.2561498928	-0.107377
C	 0.7473599659	 3.2809142469	 1.0970103331	-0.066958
C	 1.0399979278	 2.2984861755	-0.0546049996	-0.193703
C	-0.0521359828	 3.1363539048	-0.8456751531	-0.049148
H	-2.1228358844	 2.0710213704	-0.3278784354	 0.086804
H	-1.3649435352	 3.4255129521	 2.0258571546	 0.099205
H	-0.06671903	 5.3257744801	 0.2252795268	 0.097239
H	 1.3333598052	 3.4622157616	 1.9874864527	 0.099204
H	 2.0605384374	 2.127746815	-0.3872566618	 0.086801
H	-0.0688459044	 3.2378227387	-1.9262893767	 0.08906
144.7647	382.7508	563.8057	577.6183	711.0373	713.6927	765.2448	785.4803	800.6892	825.5261	840.3018	878.4352	907.8404	923.9017	977.8886	986.9299	1008.8506	1014.3463	1045.1443	1072.9288	1084.4926	1161.6907	1173.935	1176.0487	1185.9151	1212.313	1245.8684	1269.2111	1356.5878	1890.6	3155.2213	3156.0378	3169.4123	3205.5784	3205.6348	3221.6808
O=C1C2C3C4C3C1C24	O=C1[C@H]2[C@@H]3[C@H]4[C@@H]3[C@@H]1[C@@H]24	
InChI=1S/C7H6O/c8-7-5-2-1-3(2)6(7)4(1)5/h1-6H	InChI=1S/C7H6O/c8-7-5-2-1-3(2)6(7)4(1)5/h1-6H/t1-,2+,3-,4+,5-,6+
