20
gdb 107485	2.13684	1.67122	1.21974	1.6007	78.65	-0.2399	0.0592	0.299	1121.6829	0.17015	-403.08375	-403.075032	-403.074088	-403.11709	33.355	
C	 0.2253804078	 1.5445082974	-0.0447798355	-0.384325
C	-0.0091860458	 0.0267404834	-0.0505825157	-0.323977
C	-1.4554120253	-0.3621668683	 0.0294031633	 0.339758
O	-1.8973460334	-1.5415689541	-0.6737565846	-0.292285
C	-2.5651442745	-0.3001023259	-0.9437534974	-0.04709
C	-3.615175213	-0.0980899727	 0.1614712736	-0.328647
C	-2.4549034345	-0.2062404942	 1.1794240962	 0.309494
C	-2.3907090911	-0.8097094383	 2.5233681722	-0.300596
N	-2.3455751843	 0.6616616616	 2.3471169268	-0.370698
H	 1.2944712763	 1.7696188465	-0.0984076657	 0.120853
H	-0.2638296835	 2.0168399106	-0.9020828683	 0.125393
H	-0.1685673257	 2.0202180411	 0.8585953694	 0.122484
H	 0.3963460286	-0.4114164873	-0.968276971	 0.12431
H	 0.53764548	-0.4414999095	 0.7794539446	 0.104833
H	-2.5819111534	 0.0401006702	-1.9731301655	 0.102825
H	-4.0552412164	 0.9024712493	 0.1666442796	 0.11771
H	-4.3996006045	-0.8570566538	 0.2082868799	 0.111642
H	-3.2959402482	-1.1812196249	 2.9955173851	 0.122592
H	-1.481493587	-1.3316707915	 2.8118311949	 0.113415
H	-1.3894726121	 0.9903480804	 2.460259488	 0.232308
84.162	130.8566	152.643	182.994	239.1866	279.1508	386.0851	398.4782	458.9578	518.9215	610.2458	628.0944	757.2045	804.5226	832.1958	878.0047	889.8712	924.2491	928.2818	965.0732	975.5098	984.8257	1037.7861	1062.9802	1066.4386	1101.3191	1114.4337	1152.7566	1187.6948	1225.0111	1253.93	1259.7074	1266.2957	1309.867	1353.2109	1414.2647	1415.9464	1451.3875	1476.7212	1482.7844	1498.488	1507.5525	1515.6238	3017.7562	3042.5988	3064.3001	3076.1222	3105.1668	3112.8875	3114.2661	3124.4093	3181.1985	3190.4888	3494.4955
CCC12OC1CC21CN1	CC[C@]12O[C@H]1C[C@]12CN1	
InChI=1S/C7H11NO/c1-2-7-5(9-7)3-6(7)4-8-6/h5,8H,2-4H2,1H3	InChI=1S/C7H11NO/c1-2-7-5(9-7)3-6(7)4-8-6/h5,8H,2-4H2,1H3/t5-,6+,7-/m0/s1
