16
gdb 80203	2.23434	1.59461	1.20314	2.4272	78.43	-0.2412	-0.0309	0.2103	1082.1324	0.122014	-400.685883	-400.677392	-400.676448	-400.71884	31.987	
C	-0.04662548	 1.5822533383	 0.027524207	-0.434833
C	 0.0733914199	 0.0752957879	 0.1054712449	-0.009403
N	 1.2328342675	-0.7176715413	-0.2887949373	-0.167431
C	 2.4595547741	 0.0652900162	 0.0891618362	-0.291603
C	 2.0519148257	 0.0198831076	 1.5698533232	 0.345996
O	 2.6056397083	 0.2420809087	 2.6039616623	-0.287667
C	 0.7639253864	-0.6921195346	 1.2065181755	 0.015989
C	 0.1711716897	-1.7701556304	 1.9143292076	 0.200099
C	-0.3213484342	-2.6675443554	 2.5460180077	-0.392914
H	 0.7914261743	 2.1175770196	 0.4760471794	 0.138442
H	-0.1393606277	 1.8970899336	-1.0175396776	 0.136884
H	-0.9549809439	 1.8951805303	 0.5508817635	 0.141708
H	-0.8359261872	-0.4350570014	-0.208180454	 0.121429
H	 3.354306098	-0.5395496424	-0.0810164665	 0.150658
H	 2.5745251702	 1.0322308632	-0.4053541891	 0.133533
H	-0.7485084211	-3.4660705697	 3.1009100872	 0.199112
108.9646	127.0254	150.2362	180.9714	307.0452	334.3619	378.1845	451.9823	497.9332	528.548	589.0918	599.3866	656.0791	665.8344	680.1862	722.4247	834.1785	883.8165	943.9722	1009.8829	1032.3788	1074.0722	1109.0853	1142.8459	1181.2174	1238.0459	1265.5388	1309.6574	1410.586	1432.5918	1467.5645	1496.3571	1502.2927	1895.5118	2234.3512	3044.8064	3070.4354	3107.6029	3122.1137	3125.932	3144.0989	3500.7817
CC1N2CC(=O)C12C#C	C[C@H]1N2CC(=O)[C@@]12C#C	
InChI=1S/C7H7NO/c1-3-7-5(2)8(7)4-6(7)9/h1,5H,4H2,2H3	InChI=1S/C7H7NO/c1-3-7-5(2)8(7)4-6(7)9/h1,5H,4H2,2H3/t5-,7-,8?/m1/s1
