21
gdb 111694	2.34833	1.50904	1.31786	0.8157	77.89	-0.2165	0.0789	0.2954	1115.5945	0.182768	-424.199393	-424.190494	-424.18955	-424.23287	33.544	
C	-0.4485712899	 1.1573288173	 0.2651687823	-0.237533
O	 0.5423381452	 0.1967603337	-0.066263076	-0.237773
C	 0.9714666929	-0.5270990073	 1.0413427029	 0.072747
C	 0.1113082503	-1.6260444037	 1.6261698572	 0.043194
O	-1.0113206584	-2.0391008854	 0.894537746	-0.263851
C	-0.6012670358	-2.4616072179	-0.411298477	-0.088421
C	 0.9202182658	-2.7436309487	-0.3598442126	 0.004685
C	 1.6464095623	-2.3974379236	-1.6626645977	-0.407269
C	 1.3749321647	-1.974885748	 0.8773695958	-0.160266
H	-0.0688737045	 1.8869734478	 0.9958291884	 0.105123
H	-0.7045675476	 1.6831635895	-0.6575936727	 0.124381
H	-1.3441446147	 0.6747321355	 0.674643611	 0.13135
H	 1.563188941	 0.0529908548	 1.7543877858	 0.082247
H	-0.0293332866	-1.73435113	 2.696135638	 0.096926
H	-1.1891656469	-3.3474649677	-0.6741037329	 0.099513
H	-0.8121576678	-1.6713807069	-1.1397385006	 0.10597
H	 1.0758726248	-3.807327605	-0.1393056624	 0.076838
H	 1.5412536387	-1.3334104284	-1.8877195512	 0.142801
H	 2.7138389656	-2.6292293012	-1.5906033718	 0.111045
H	 1.2408235176	-2.972880889	-2.5024137026	 0.109343
H	 2.2732466633	-2.312063476	 1.3825418602	 0.088952
99.9429	113.9451	174.5912	185.4809	233.407	245.2714	280.8642	336.9689	404.6477	551.8146	633.9298	679.3108	735.3849	759.6589	773.7315	870.6931	919.8773	950.2714	972.4831	1007.5866	1032.6649	1046.4821	1091.1603	1103.1113	1110.3537	1134.7284	1163.4357	1177.1996	1181.6939	1205.4353	1242.7381	1259.4533	1306.3654	1320.4702	1344.4718	1362.1291	1401.4627	1412.3689	1428.9019	1482.1333	1487.7264	1498.7595	1507.0751	1507.9772	1519.6321	2991.923	3018.3231	3032.7618	3036.6878	3061.8334	3064.487	3077.0377	3095.3169	3121.5487	3129.8881	3164.2442	3174.166
COC1C2OCC(C)C12	CO[C@H]1[C@H]2OC[C@@H](C)[C@@H]12	
InChI=1S/C7H12O2/c1-4-3-9-7-5(4)6(7)8-2/h4-7H,3H2,1-2H3	InChI=1S/C7H12O2/c1-4-3-9-7-5(4)6(7)8-2/h4-7H,3H2,1-2H3/t4-,5+,6-,7+/m1/s1
