13
gdb 130300	3.47232	1.68951	1.13803	3.0547	66.6	-0.2266	-0.0188	0.2078	972.0855	0.091939	-452.730621	-452.724097	-452.723153	-452.761399	25.671	
N	-0.0214233821	 1.3897846784	 0.1588454165	-0.597389
C	 0.0613710214	 0.0166884881	 0.0402497621	 0.276253
N	-1.0263976555	-0.7393814217	 0.0024778801	-0.231536
O	-0.603669074	-2.1032616896	-0.0255081161	-0.245198
C	 0.7329649108	-2.0917054704	-0.0241443872	 0.36652
C	 1.2064572474	-0.8166399495	 0.0161804537	 0.178108
O	 2.5652275522	-0.793660056	 0.0262644593	-0.207141
C	 2.9267974354	-2.1169096527	-0.009625239	 0.005782
C	 1.8571689689	-2.9692615497	-0.0403518394	-0.356715
H	 0.6941097128	 1.8948408227	-0.3441304199	 0.261636
H	-0.9477581623	 1.7444320304	-0.039127662	 0.265224
H	 3.989639954	-2.297160583	-0.0096873885	 0.147242
H	 1.8966382512	-4.045388697	-0.0698547995	 0.137214
173.5995	252.5993	269.3332	320.8516	429.1302	540.9504	596.5833	611.1277	638.3679	669.3319	697.0858	738.6386	771.4435	806.8063	825.3985	905.4433	917.0061	1042.0131	1124.6187	1135.9911	1160.9111	1272.2991	1336.1733	1435.4734	1490.3229	1540.298	1595.8511	1632.2315	1658.6257	3267.7895	3286.5689	3556.0348	3657.8659
NC1=NOC2=C1OC=C2	Nc1noc2c1occ2	
InChI=1S/C5H4N2O2/c6-5-4-3(9-7-5)1-2-8-4/h1-2H,(H2,6,7)	InChI=1S/C5H4N2O2/c6-5-4-3(9-7-5)1-2-8-4/h1-2H,(H2,6,7)
