24
gdb 109771	1.88365	1.32652	0.90569	0.3707	86.43	-0.2146	0.0687	0.2833	1418.3823	0.214555	-405.518815	-405.507555	-405.506611	-405.555396	40.953	
C	-1.1437323075	 2.1298634464	-1.0034483879	-0.37897
C	-0.9052575299	 0.7632769424	-1.6447865977	-0.11533
N	-1.604634718	-0.2773367638	-0.8960253052	-0.109932
C	-1.414931168	-1.6925505619	-1.2150183215	-0.012396
C	-0.4781508791	-2.1912302587	-2.2957360588	-0.404942
C	-0.927673121	-1.1368910704	 0.0847566446	-0.044433
C	 0.55323084	-1.0932509514	 0.4347536364	 0.122753
C	 0.8293772167	-0.2087931717	 1.6517207031	-0.41112
O	 1.0494889637	-2.4175815052	 0.6435674108	-0.434664
H	-0.6735183663	 2.9218626997	-1.595154181	 0.108591
H	-2.2154259241	 2.3339388748	-0.9306184339	 0.126655
H	-0.7267535474	 2.1723296569	 0.0077311927	 0.121421
H	-1.3239471277	 0.7607443508	-2.6585537685	 0.103238
H	 0.176193452	 0.59399389	-1.7586995051	 0.086625
H	-2.3515133186	-2.2513722578	-1.1838893755	 0.081843
H	 0.4661222617	-1.6462367106	-2.3342103178	 0.119819
H	-0.2398138937	-3.244524489	-2.1200916157	 0.129573
H	-0.9519182458	-2.1130756381	-3.2805183927	 0.115289
H	-1.5449491221	-1.3212536485	 0.9688268783	 0.072663
H	 1.1374713874	-0.7219551494	-0.4108185666	 0.086915
H	 0.2534417574	-0.5544091522	 2.5191590312	 0.108122
H	 1.8912063148	-0.2425396276	 1.9097741882	 0.122985
H	 0.547183603	 0.8311376904	 1.4602772139	 0.127946
H	 0.5336727622	-2.8129543648	 1.3553505986	 0.277349
39.944	97.3087	114.1247	155.0168	176.611	205.7663	219.2544	247.8885	254.4148	284.247	352.3072	366.993	436.8813	507.3747	528.6501	585.5863	717.3713	796.1842	812.081	837.2214	909.9331	962.1605	991.0793	1005.4898	1054.3781	1061.992	1089.4768	1102.2786	1135.2188	1149.4891	1168.8495	1184.8744	1197.9064	1267.0006	1310.2121	1327.026	1346.9892	1383.6251	1398.3098	1402.8735	1409.0894	1418.331	1421.2078	1445.3154	1484.469	1488.8403	1489.5198	1493.6263	1497.2899	1501.5851	1513.6339	2980.7321	3027.7676	3039.8561	3040.4609	3044.8179	3050.9382	3076.6444	3083.2454	3100.9144	3101.6657	3108.4006	3120.383	3121.9688	3137.7238	3796.1266
CCN1C(C)C1C(C)O	CCN1[C@@H](C)[C@H]1[C@@H](C)O	
InChI=1S/C7H15NO/c1-4-8-5(2)7(8)6(3)9/h5-7,9H,4H2,1-3H3	InChI=1S/C7H15NO/c1-4-8-5(2)7(8)6(3)9/h5-7,9H,4H2,1-3H3/t5-,6+,7-,8?/m0/s1
