19
gdb 63561	2.64898	1.44361	1.11946	1.6162	78.06	-0.2506	0.0126	0.2632	1144.6692	0.158518	-419.190053	-419.181097	-419.180153	-419.223329	33.841	
C	-0.062348927	 1.5135153188	-0.0534425696	-0.436495
C	-0.0468846162	 0.0001205675	 0.011527677	 0.243297
C	-1.2312142166	-0.6968670132	-0.6251840408	-0.475157
N	 1.2966190582	-0.5943490866	-0.138064141	-0.411882
C	 0.6387468576	-0.6561067022	 1.1608333498	 0.170135
C	 1.1759471217	-0.1343372157	 2.4908739239	-0.152076
O	 0.6870705744	-1.3617998829	 3.1331020004	-0.265788
C	 0.249179059	-1.8774237111	 1.928895392	 0.387909
N	-0.249877563	-2.9917987107	 1.6370690831	-0.565614
H	 0.8498351329	 1.934701638	 0.375993677	 0.126392
H	-0.1282554973	 1.8475187732	-1.0946845366	 0.126017
H	-0.9259832328	 1.9186574438	 0.4847929596	 0.119505
H	-1.2404189477	-0.5111083087	-1.705473914	 0.120086
H	-1.2026597328	-1.7743748177	-0.4471074233	 0.15905
H	-2.1719037141	-0.3122415267	-0.2168576538	 0.123483
H	 1.237923496	-1.5114228883	-0.5796305331	 0.244462
H	 2.2632581517	-0.0591339794	 2.5638388497	 0.131434
H	 0.6908963531	 0.7476516148	 2.9157132116	 0.123396
H	-0.3421635969	-3.5945817928	 2.455428728	 0.231847
120.8681	137.9419	162.7407	199.9398	222.3874	261.0387	306.4079	353.7633	414.5492	456.5652	514.8053	602.5095	664.0579	735.506	777.3209	833.4106	855.8265	940.0376	964.4923	974.1262	986.1984	1007.0365	1031.2582	1068.5205	1096.053	1142.1497	1153.7646	1178.0666	1219.914	1261.661	1323.6274	1341.3007	1412.3443	1424.3461	1460.2206	1481.2483	1486.8625	1501.7499	1509.0546	1520.085	1816.3137	3029.6767	3035.2417	3064.7524	3091.0187	3098.046	3122.8173	3127.5394	3128.6572	3475.8015	3487.8503
CC1(C)NC11COC1=N	CC1(C)N[C@]21CO[C]2[NH]	
InChI=1S/C6H10N2O/c1-5(2)6(8-5)3-9-4(6)7/h7-8H,3H2,1-2H3	InChI=1S/C6H10N2O/c1-5(2)6(8-5)3-9-4(6)7/h7-8H,3H2,1-2H3/t6-/m1/s1
