17
gdb 91601	2.24525	2.07272	1.47147	3.7453	65.93	-0.2619	0.0033	0.2652	938.7237	0.137914	-459.01237	-459.005216	-459.004272	-459.043945	28.061	
C	-0.1717089705	 1.5641066497	-0.0034283588	-0.421343
C	 0.0305114353	 0.0505700262	-0.0152806661	 0.018274
C	 0.9384616183	-0.5073098251	-1.1595979717	-0.26684
C	 1.9429408318	-1.3351757748	-0.3383665406	 0.188772
O	 1.1808218785	-1.8377577818	 0.7345905639	-0.241577
C	 0.772821288	-0.5476008533	 1.2196642931	-0.116053
C	 2.1344097309	 0.1498209121	 1.3144902324	 0.466628
O	 2.5358584661	 1.0096401093	 2.0387389474	-0.346702
O	 2.8584569761	-0.4029731233	 0.2919908334	-0.242406
H	 0.7797319922	 2.101430053	 0.0549879057	 0.143752
H	-0.6857650562	 1.8878040273	-0.9133913759	 0.124107
H	-0.7810993774	 1.8746880509	 0.851438181	 0.126909
H	-0.9423556294	-0.4472880027	-0.0571915564	 0.096261
H	 0.3856308182	-1.1434174092	-1.8538312458	 0.118873
H	 1.4440539773	 0.277047204	-1.7268878438	 0.124668
H	 2.5149600224	-2.1179399068	-0.8309330086	 0.112001
H	 0.2204629585	-0.6211466755	 2.1522185507	 0.114676
125.5658	147.7451	218.7501	310.5582	405.1432	439.1061	468.2691	538.4685	637.2068	687.6945	749.1489	815.781	860.7071	865.0456	883.1802	924.7664	928.3117	967.8355	1023.3267	1029.639	1091.4155	1103.8368	1132.3257	1141.1347	1201.2463	1226.2081	1251.8124	1297.6722	1321.5616	1340.6759	1358.8635	1369.7444	1421.7135	1487.3382	1495.5229	1500.1218	1904.4448	3039.1962	3062.226	3077.6282	3106.6196	3114.6842	3129.5823	3161.6055	3174.0055
CC1CC2OC1C(=O)O2	C[C@H]1C[C@@H]2O[C@H]1C(=O)O2	
InChI=1S/C6H8O3/c1-3-2-4-8-5(3)6(7)9-4/h3-5H,2H2,1H3	InChI=1S/C6H8O3/c1-3-2-4-8-5(3)6(7)9-4/h3-5H,2H2,1H3/t3-,4+,5+/m0/s1
