21
gdb 84870	2.31449	1.46561	1.09429	1.1795	86.42	-0.2303	-0.0017	0.2286	1207.6834	0.183013	-387.095501	-387.086462	-387.085518	-387.128861	35.018	
C	 0.0129654027	 1.5694331376	 0.0637738833	-0.461503
C	 0.0251032104	 0.0613169174	-0.0154527005	 0.317513
C	 0.0525163916	-0.5406069451	-1.2098826043	-0.14184
C	 0.0443498687	-2.0159734551	-1.544407874	 0.031184
O	 1.4159175752	-2.4656726198	-1.5396869458	-0.431432
C	-0.8312115039	-2.876041636	-0.6523155381	-0.10084
C	-0.6828279232	-2.9447425036	 0.6692198235	-0.054923
C	 0.3220095205	-2.1035757319	 1.4137135349	-0.266424
C	-0.0098789842	-0.6041101075	 1.3442407261	-0.270921
H	 0.9000016918	 1.9446291965	 0.5900229238	 0.122971
H	-0.0169199625	 2.0299606359	-0.9266586937	 0.119579
H	-0.8569442209	 1.9247645206	 0.6319289834	 0.120116
H	 0.1004733256	 0.1047399171	-2.0844441716	 0.078243
H	-0.3424513418	-2.1009607683	-2.5710014389	 0.060404
H	 1.3983452186	-3.4155724058	-1.7033676851	 0.274651
H	-1.5925805423	-3.4741450374	-1.1472546479	 0.085383
H	-1.3269323582	-3.6034128159	 1.2474417496	 0.08849
H	 0.3655224408	-2.4040217175	 2.4651923737	 0.088822
H	 1.3163911131	-2.2617839564	 0.9834168699	 0.132324
H	 0.6923403277	-0.0639766545	 1.9943875323	 0.102088
H	-1.0020233396	-0.4241405803	 1.7874440991	 0.106115
86.3205	136.6925	197.298	201.0318	274.6395	307.6688	313.6472	348.1419	387.7436	442.7483	490.6266	591.4205	609.3727	711.3162	744.5139	818.2527	843.5045	863.8582	899.9378	950.8889	986.2732	1001.8048	1010.7317	1044.159	1059.6197	1086.1561	1095.2943	1166.6939	1205.565	1241.0205	1258.2954	1282.3207	1351.2208	1360.0685	1370.9632	1408.551	1411.5681	1419.1096	1429.5506	1462.7275	1479.4879	1486.3603	1491.5939	1721.0302	1732.939	2976.0507	2987.8379	3014.2581	3021.4444	3047.7185	3060.1531	3089.5567	3114.7935	3139.7957	3141.0152	3165.1821	3792.7996
CC1=CC(O)C=CCC1	CC1=C[C@@H](O)C=CCC1	
InChI=1S/C8H12O/c1-7-4-2-3-5-8(9)6-7/h3,5-6,8-9H,2,4H2,1H3	InChI=1S/C8H12O/c1-7-4-2-3-5-8(9)6-7/h3,5-6,8-9H,2,4H2,1H3/t8-/m0/s1
