16
gdb 70377	2.46699	1.58397	1.35503	5.1398	68.92	-0.2588	0.008	0.2668	1006.9287	0.121898	-437.845254	-437.836699	-437.835755	-437.877968	32.303	
C	-0.0718436553	 1.5693438958	-0.0058036326	-0.448047
C	 0.0438030322	 0.0541993812	 0.0622212567	 0.159444
O	 1.0892168901	-0.4867821571	-0.8015952836	-0.31336
C	 1.6503667138	-1.238753682	 0.2853114591	 0.052588
C	 2.1830283663	-0.2979758356	 1.3299563107	-0.374792
C	 0.7059889052	-0.6363819703	 1.2841313195	 0.294248
O	 0.0135534232	-1.2309026802	 2.3073319526	-0.439325
C	-1.2422876431	-0.5808742516	-0.2711090986	 0.296809
N	-2.2625670536	-1.0541679575	-0.5342974391	-0.334185
H	 0.8728962686	 2.0347205686	 0.281502091	 0.131083
H	-0.3208128739	 1.8815938823	-1.0234985842	 0.153398
H	-0.8637561615	 1.9187266744	 0.6633332516	 0.139868
H	 1.9862637752	-2.24868777	 0.0906700627	 0.129717
H	 2.6904172915	-0.7852144506	 2.1575938476	 0.130763
H	 2.5771981348	 0.671745809	 1.0422867001	 0.123714
H	-0.0222705537	-0.6250579364	 3.0563380966	 0.298076
128.2424	135.6576	203.0029	224.7344	245.9354	294.1533	346.942	384.4467	455.8169	471.2798	532.3987	561.5357	652.8989	679.2259	822.3049	867.0451	882.9172	918.0603	966.4775	989.4514	1018.8197	1050.2015	1077.4926	1110.4222	1176.9073	1203.1023	1239.4568	1263.1203	1313.114	1404.809	1415.3552	1478.3324	1486.7826	1495.964	2359.1397	3050.9518	3120.4292	3125.1746	3140.0048	3208.4625	3215.9076	3790.7378
CC1(OC2CC12O)C#N	C[C@]1(O[C@H]2C[C@@]12O)C#N	
InChI=1S/C6H7NO2/c1-5(3-7)6(8)2-4(6)9-5/h4,8H,2H2,1H3	InChI=1S/C6H7NO2/c1-5(3-7)6(8)2-4(6)9-5/h4,8H,2H2,1H3/t4-,5-,6-/m0/s1
