17
gdb 113284	2.43535	1.21654	0.94205	3.3343	76.49	-0.237	-0.0534	0.1836	1271.1867	0.134541	-418.004346	-417.994981	-417.994036	-418.038843	33.265	
C	-0.3845967265	 1.2507133846	 0.0593352644	-0.321445
N	 0.3481157408	-0.0023493658	-0.1081121796	-0.293118
C	 0.8590562958	-0.5230415984	 1.1117345081	 0.028605
C	 0.1807482277	-1.5347826056	 1.9642772181	-0.321754
C	 1.4164328583	-1.9822488707	 1.1488049431	 0.017299
C	 1.1689844859	-2.8514674788	-0.0394442189	 0.11185
O	 0.1349410169	-2.8495473734	-0.6654592298	-0.27717
C	 2.6546673343	-2.2034057111	 1.8405134389	 0.218911
N	 3.6554929285	-2.3901329541	 2.390645646	-0.331829
H	 0.2888267423	 2.0204861458	 0.4518671206	 0.12902
H	-0.7382639903	 1.5857835626	-0.9188486989	 0.1323
H	-1.2507497376	 1.1813614406	 0.7378885856	 0.106881
H	-0.2182460262	-0.69895217	-0.5799827746	 0.250632
H	 1.5074516567	 0.1807234858	 1.6274955469	 0.134689
H	 0.3098594625	-1.511969626	 3.040154379	 0.14785
H	-0.7490163999	-1.9587951599	 1.5993868798	 0.15055
H	 2.0160103306	-3.5071857556	-0.3203021885	 0.116728
63.3347	136.2087	147.0604	161.588	182.4211	219.1166	265.3953	288.6575	403.1344	458.1397	530.2331	557.3793	586.2676	729.468	757.3065	803.4408	871.2532	942.5131	1006.1674	1030.2008	1053.9088	1079.814	1106.0686	1150.3818	1165.7709	1232.0574	1269.5065	1284.1082	1376.2814	1429.4265	1456.5728	1464.9157	1489.4344	1509.2834	1538.4029	1795.1218	2348.9044	2947.908	2968.9348	3065.5393	3116.8244	3137.2606	3152.5634	3238.9483	3539.5403
CNC1CC1(C=O)C#N	CN[C@H]1C[C@]1(C=O)C#N	
InChI=1S/C6H8N2O/c1-8-5-2-6(5,3-7)4-9/h4-5,8H,2H2,1H3	InChI=1S/C6H8N2O/c1-8-5-2-6(5,3-7)4-9/h4-5,8H,2H2,1H3/t5-,6+/m0/s1
