18
gdb 50326	3.14158	1.52747	1.47344	2.1963	73.85	-0.2458	-0.0255	0.2203	963.2937	0.149191	-401.918932	-401.911842	-401.910898	-401.950702	27.964	
O	-0.793485648	 0.6690977823	-0.4689308957	-0.246935
C	-0.0245549165	 1.1117472205	 0.3457558176	 0.156618
C	 1.1516026435	 2.0183757813	 0.0295683434	-0.063119
C	 1.0496065729	 2.8144326291	-1.294131726	-0.244495
C	 0.7805352485	 4.2330937115	-0.7846008943	-0.047451
C	-0.536013881	 4.2592281894	 0.0581719001	-0.257295
C	 0.3208091728	 4.0291099238	 1.3114083489	-0.047886
C	 1.5760495586	 4.3176749891	 0.5544752659	-0.056743
N	 1.3656396842	 2.996287694	 1.1258685199	-0.112711
H	-0.1143921687	 0.8616989639	 1.426170566	 0.092555
H	 2.0300248239	 1.3565273907	 0.0261122551	 0.110283
H	 1.9878808761	 2.7627493223	-1.8551646426	 0.100523
H	 0.2473788951	 2.4251018184	-1.926420371	 0.129317
H	 0.9015669441	 5.0258091216	-1.5214255374	 0.074736
H	-0.981359236	 5.2570247997	 0.0830706792	 0.108942
H	-1.3121524418	 3.5289245207	-0.1909611791	 0.113938
H	 0.0498885801	 4.2639952657	 2.3346633537	 0.095303
H	 2.4594374019	 4.8957747161	 0.7978616563	 0.094419
81.4097	137.1788	209.9232	328.8383	390.1474	475.7021	573.4588	650.0778	716.8908	744.3268	791.9362	833.271	853.8219	859.1302	881.995	944.1805	962.6339	974.2379	990.0094	1020.1319	1039.4225	1069.7792	1086.8763	1112.8188	1130.7867	1166.1577	1212.0585	1218.2195	1242.4118	1250.3613	1276.798	1302.4898	1328.624	1336.8332	1359.8656	1410.5633	1490.9634	1501.9543	1827.8701	2892.4657	3002.4774	3053.0424	3055.1544	3105.2234	3110.1048	3126.2972	3170.9815	3187.5912
O=CC1CC2CC3C2N13	O=C[C@H]1C[C@H]2C[C@@H]3[C@H]2N13	
InChI=1S/C7H9NO/c9-3-5-1-4-2-6-7(4)8(5)6/h3-7H,1-2H2	InChI=1S/C7H9NO/c9-3-5-1-4-2-6-7(4)8(5)6/h3-7H,1-2H2/t4-,5+,6+,7-,8?/m0/s1
