20
gdb 33077	4.44792	0.79851	0.71169	0.9357	82.8	-0.2269	0.0134	0.2403	1653.4782	0.170613	-403.204605	-403.195105	-403.194161	-403.239853	33.917	
C	-0.0213844481	 1.5807936986	 0.0521763064	-0.381645
C	 0.1127629299	 0.0576986363	-0.0005819832	-0.154004
C	 0.7381400204	-0.5293749455	 1.2777285616	-0.306033
C	 0.8156198623	-2.020926926	 1.2578762073	 0.253865
C	 1.8945649708	-2.8384420364	 1.2569462329	-0.135628
O	 1.4552932199	-4.1367044809	 1.2206574442	-0.173832
C	 0.1016598813	-4.0366921913	 1.1998466132	 0.382817
C	-0.6831289304	-5.298075299	 1.1603032144	-0.488629
N	-0.3324204407	-2.8164495894	 1.2200343689	-0.343394
H	 0.9544146323	 2.0635806178	 0.179290705	 0.11081
H	-0.4681003762	 1.9722086698	-0.8670467596	 0.111998
H	-0.6551612936	 1.8937444678	 0.8895585028	 0.115084
H	-0.8699354827	-0.4028215018	-0.1496981898	 0.119895
H	 0.7244387989	-0.2347997173	-0.8630522789	 0.094696
H	 1.743282575	-0.1164923928	 1.4247031883	 0.097734
H	 0.1392168406	-0.2144625236	 2.1424132392	 0.112637
H	 2.9606062552	-2.691635955	 1.2813093031	 0.138271
H	-0.4693258977	-5.9232350819	 2.0334536525	 0.144874
H	-1.7453668343	-5.0534959267	 1.1486162277	 0.155713
H	-0.4412739129	-5.8853102926	 0.2683289141	 0.144768
60.0251	88.4682	92.9905	110.1887	227.0423	240.7011	275.7483	312.2305	378.9729	416.2288	634.7999	666.4795	711.5003	745.7717	752.5311	786.2478	875.6253	899.1269	941.6318	1003.0784	1042.9164	1048.3753	1066.5763	1099.9171	1113.0247	1132.9884	1217.253	1251.3299	1289.3526	1313.6304	1323.6568	1363.9766	1386.5388	1411.7752	1412.7043	1475.5	1476.5968	1481.5915	1493.3234	1498.707	1510.3087	1622.6038	1638.5578	3017.7321	3027.2318	3033.8272	3044.1498	3055.9226	3074.8675	3098.1089	3098.2129	3101.9876	3157.5798	3290.039
CCCC1=COC(C)=N1	CCCc1coc(C)n1	
InChI=1S/C7H11NO/c1-3-4-7-5-9-6(2)8-7/h5H,3-4H2,1-2H3	InChI=1S/C7H11NO/c1-3-4-7-5-9-6(2)8-7/h5H,3-4H2,1-2H3
