12
gdb 27726	3.01606	1.31938	0.91786	5.6616	66.01	-0.2176	-0.0114	0.2061	1138.5779	0.079253	-468.866724	-468.859103	-468.858159	-468.89887	28.202	
O	 0.0668608785	 1.265308281	 0.128730943	-0.411875
C	 0.0784072372	-0.063886097	 0.0191335638	 0.471626
N	 0.1486781024	-0.7522982246	-1.1037292333	-0.437026
C	 0.129600506	-2.0576216086	-0.7074696355	 0.284312
O	 0.1862027907	-3.0639837694	-1.5844917392	-0.40881
C	 0.0472553261	-2.1757939946	 0.6665431455	 0.113388
N	 0.0152008369	-0.8360502018	 1.114437003	-0.386271
C	-0.0002720302	-3.2816006735	 1.5236513042	 0.208133
N	-0.0408784232	-4.1840859305	 2.253079281	-0.360827
H	 0.11942442	 1.6244740256	-0.766453778	 0.324451
H	 0.237783061	-2.6728079358	-2.4656953243	 0.312149
H	-0.0436486454	-0.5245480907	 2.0692945197	 0.290751
130.9728	136.9443	244.9278	322.3602	327.4235	394.4319	422.9194	445.2774	459.1009	541.3515	552.799	616.6239	672.7036	718.7464	745.5017	833.5357	1072.5984	1144.3381	1190.8319	1233.8628	1271.9761	1373.1697	1458.8623	1558.0482	1636.6145	1677.9814	2324.6438	3674.9618	3801.1454	3803.4289
OC1=NC(O)=C(N1)C#N	Oc1nc(O)c([nH]1)C#N	
InChI=1S/C4H3N3O2/c5-1-2-3(8)7-4(9)6-2/h8H,(H2,6,7,9)	InChI=1S/C4H3N3O2/c5-1-2-3(8)7-4(9)6-2/h8H,(H2,6,7,9)
