22
gdb 55464	3.17589	1.01903	0.93156	3.3297	82.39	-0.2386	0.0377	0.2763	1366.085	0.196449	-404.415619	-404.406288	-404.405344	-404.450603	35.078	
N	 0.1717050784	 1.1150935529	 0.6744374545	-0.528575
C	-0.0091381838	 0.1107576933	-0.2325375414	 0.399437
O	 0.8334388014	-0.1679723828	-1.0660345451	-0.378225
C	-1.3357117553	-0.6407705415	-0.1327717975	-0.078681
C	-2.119382887	-0.4861148549	-1.4524300508	-0.180116
C	-3.4103668632	-1.3155409794	-1.4517225902	-0.204777
C	-3.1303281792	-2.7946402037	-1.1532833737	-0.177253
C	-2.3588603274	-2.9569182249	 0.1634224494	-0.204759
C	-1.0661896089	-2.1301229944	 0.1652636316	-0.180147
H	 1.030744993	 1.6397739342	 0.6431815258	 0.258024
H	-0.5203553878	 1.3547094269	 1.3611147152	 0.256517
H	-1.9392794957	-0.2224466439	 0.6854604732	 0.052757
H	-2.3470219089	 0.5717904055	-1.6291104216	 0.089296
H	-1.4633916704	-0.8067846692	-2.2700476904	 0.121
H	-4.0998765086	-0.9178921036	-0.6934021389	 0.087583
H	-3.9185005833	-1.2101087713	-2.416946507	 0.092321
H	-4.0685984625	-3.3595866676	-1.1165582402	 0.087965
H	-2.5386472868	-3.2230090372	-1.973816238	 0.097304
H	-2.9981634456	-2.6375807407	 0.9988346679	 0.087597
H	-2.1232877981	-4.0124246335	 0.3405896462	 0.092324
H	-0.375985865	-2.5043267485	-0.5997565593	 0.120965
H	-0.5517896251	-2.2304617957	 1.1283299802	 0.089443
27.907	111.8341	117.3882	184.7573	232.2986	271.0813	312.0754	367.167	442.153	481.0556	518.0603	591.3313	631.3759	761.0573	788.9746	796.803	843.632	888.8155	905.0765	914.3488	934.5142	1029.985	1040.9698	1055.1775	1083.2653	1085.5448	1095.4768	1163.6704	1197.075	1243.9986	1284.217	1292.4974	1294.2608	1330.5744	1357.4843	1368.4475	1369.4803	1380.322	1389.836	1411.0115	1483.9913	1486.0667	1489.1483	1493.146	1508.1451	1614.1539	1788.4576	2996.6238	3006.3145	3007.467	3016.6278	3029.4189	3031.5614	3058.4224	3060.8365	3063.8666	3074.7883	3081.0191	3602.5311	3743.5574
NC(=O)C1CCCCC1	NC(=O)C1CCCCC1	
InChI=1S/C7H13NO/c8-7(9)6-4-2-1-3-5-6/h6H,1-5H2,(H2,8,9)	InChI=1S/C7H13NO/c8-7(9)6-4-2-1-3-5-6/h6H,1-5H2,(H2,8,9)
