19
gdb 40983	3.94054	1.57542	1.49931	0.3583	84.85	-0.2184	0.0047	0.2231	951.3037	0.16118	-348.633409	-348.627067	-348.626122	-348.663551	28.038	
C	-0.0413994244	 1.5731249452	 0.1545693164	-0.270531
C	 1.5177472254	 1.4820905242	-0.144807779	-0.344813
C	 1.1725693452	 0.1241357826	-0.7942757654	 0.322852
C	-0.1046895294	 0.0037762538	 0.0163217702	-0.032818
C	-0.3220107881	-0.9397645051	-1.2002600506	-0.075107
C	 0.3456726951	 0.0826211225	-2.1638614071	-0.082373
C	 1.1591474953	-0.7043751308	-3.1693579219	-0.113388
C	 1.7095499547	-1.6920451611	-2.4568410812	-0.100684
C	 1.2112741018	-1.4437971988	-1.0499362163	-0.176874
H	-0.3160175588	 1.9633262639	 1.136849384	 0.098895
H	-0.5836513755	 2.1350669725	-0.6074025071	 0.112416
H	 1.9794215742	 2.2523972824	-0.7690482452	 0.100632
H	 2.0853551045	 1.380387268	 0.7851626534	 0.109189
H	-0.0096778117	-0.4916122993	 0.9868218084	 0.065324
H	-1.1673536462	-1.5921982919	-1.4534821043	 0.063219
H	-0.2114229948	 0.9584936254	-2.4931785097	 0.059439
H	 1.2617415005	-0.4776684471	-4.2216670199	 0.098965
H	 2.3754453492	-2.4829278053	-2.7726039736	 0.100791
H	 1.4754149329	-2.1138044114	-0.231056251	 0.064868
251.4755	260.8438	287.8542	463.1146	502.0222	547.2325	633.8317	666.036	718.5642	723.2129	764.4836	803.4692	825.0708	848.4125	873.2766	901.9125	909.8289	930.7274	955.4091	990.5209	998.0676	1008.3637	1049.4795	1084.8936	1092.7378	1120.0446	1146.2341	1154.6742	1164.6774	1186.794	1192.8515	1225.3224	1229.9302	1250.1262	1253.7862	1308.1606	1331.2948	1361.7349	1471.8574	1483.7917	1627.7213	3026.63	3048.188	3059.3784	3074.5738	3104.0056	3117.9699	3124.4546	3136.401	3215.7506	3242.6153
C1CC23C1C1C2C=CC31	C1C[C@@]23[C@@H]1[C@H]1[C@@H]2C=C[C@@H]31	
InChI=1S/C9H10/c1-2-6-8-5(1)9(6)4-3-7(8)9/h1-2,5-8H,3-4H2	InChI=1S/C9H10/c1-2-6-8-5(1)9(6)4-3-7(8)9/h1-2,5-8H,3-4H2/t5-,6+,7-,8-,9+/m0/s1
