16
gdb 105584	1.92895	1.63774	1.30831	4.2092	71.79	-0.2501	0.0123	0.2623	1058.9825	0.123047	-437.862296	-437.853357	-437.852413	-437.895872	32.846	
O	 0.053910229	 1.3774042734	 0.1911449349	-0.414357
C	 0.0154441249	 0.0065363258	-0.1118174455	-0.09474
C	-1.4366980208	-0.5229458818	-0.118896641	-0.092342
C	-1.6030172785	-2.0746791941	 0.0564417266	-0.212142
N	-2.1454383192	-1.8025136742	 1.3927556437	-0.32522
C	-1.9944759369	-0.447742911	 1.3428316396	 0.421415
O	-2.1337256897	 0.4441305756	 2.1395958522	-0.372711
C	-2.2615260791	 0.0841381827	-1.1408269796	 0.320579
C	-2.9519136749	 0.5704169529	-1.9959870468	-0.4551
H	-0.4588558245	 1.5125536213	 1.0001870463	 0.302712
H	 0.4683862618	-0.1191457006	-1.1000546552	 0.119267
H	 0.5960974847	-0.5956083921	 0.6077413915	 0.087323
H	-2.313327002	-2.5362842283	-0.6320366821	 0.133215
H	-0.6605877663	-2.6316308338	 0.0621188427	 0.121719
H	-2.3481080507	-2.4134625048	 2.1706624039	 0.259209
H	-3.5577647778	 1.016605579	-2.745552061	 0.201176
107.8402	121.9691	126.5998	161.5365	230.9573	260.1887	381.4724	407.45	455.1402	487.5418	536.0779	569.453	624.8178	647.1874	691.1802	762.4056	788.5688	902.2848	940.4037	985.0074	1020.0328	1092.5895	1144.3046	1159.409	1187.8105	1211.2117	1270.4168	1303.9493	1385.0956	1391.893	1452.4429	1507.748	1519.1407	1878.9478	2237.9808	2958.0021	3049.7338	3079.7378	3116.1806	3501.0655	3607.5909	3748.0079
OCC1(CNC1=O)C#C	OC[C@]1(CNC1=O)C#C	
InChI=1S/C6H7NO2/c1-2-6(4-8)3-7-5(6)9/h1,8H,3-4H2,(H,7,9)	InChI=1S/C6H7NO2/c1-2-6(4-8)3-7-5(6)9/h1,8H,3-4H2,(H,7,9)/t6-/m1/s1
