21
gdb 36790	8.13173	0.50704	0.49562	1.0403	86.67	-0.2554	0.0556	0.311	2213.8766	0.18015	-387.033512	-387.02325	-387.022306	-387.070203	36.515	
C	-0.0639660536	-1.1154111512	 0.0848969606	-0.450418
C	-0.0036598768	 0.0826913228	 0.157911931	 0.287733
C	 0.1042790398	 1.5328593308	 0.237609878	-0.349739
C	 1.516654791	 2.0306210912	-0.0899924464	-0.04498
O	 1.5080558959	 3.43368549	 0.0200484972	-0.245009
C	 2.7610383957	 4.0249582033	-0.2705269715	-0.06867
C	 2.6353133385	 5.5197815754	-0.174768744	 0.010593
C	 2.7378262236	 6.1982740201	 1.1660296375	-0.246705
C	 3.8509188845	 6.34733339	 0.160031644	-0.272628
H	-0.1316521938	-2.1731432557	 0.0239951396	 0.195347
H	-0.6020776483	 2.0064794488	-0.4543979983	 0.139307
H	-0.1640241005	 1.8806272437	 1.242180079	 0.139826
H	 2.2440072133	 1.5828087871	 0.6066171932	 0.096849
H	 1.8012976989	 1.7138491561	-1.1065464569	 0.097519
H	 3.5274316219	 3.6639536012	 0.4376869424	 0.080859
H	 3.0912450036	 3.7271088458	-1.2806687165	 0.087428
H	 1.9334057516	 5.9493688875	-0.8834483946	 0.089987
H	 2.0981089258	 7.0518474241	 1.3593636778	 0.113486
H	 2.9172835768	 5.5721492942	 2.0336669649	 0.113834
H	 4.7837485108	 5.8274305984	 0.3535021567	 0.111566
H	 3.9736870216	 7.3005553163	-0.3415063336	 0.113815
39.0463	58.845	82.2589	114.5371	146.0948	172.9364	288.1571	309.3045	355.1059	409.414	470.6251	546.2003	621.7797	647.2012	774.5058	797.701	817.2526	845.6824	921.6164	944.0024	970.984	1024.4026	1038.8365	1060.2745	1078.1782	1086.2474	1093.6896	1133.5386	1154.7714	1196.1506	1198.8092	1227.554	1231.5147	1283.0881	1300.2493	1304.9392	1368.1988	1410.3275	1458.3449	1471.5152	1476.5749	1504.5984	1513.0976	1533.0746	2241.6832	2944.2083	2967.8097	2973.0543	2995.7075	3035.7607	3072.9046	3131.8225	3136.6858	3153.0563	3209.8085	3225.0362	3507.9354
C#CCCOCC1CC1	C#CCCOCC1CC1	
InChI=1S/C8H12O/c1-2-3-6-9-7-8-4-5-8/h1,8H,3-7H2	InChI=1S/C8H12O/c1-2-3-6-9-7-8-4-5-8/h1,8H,3-7H2
