19
gdb 31121	2.1327	1.59894	0.95305	2.5703	80.05	-0.1699	0.0531	0.2229	1232.4108	0.160164	-419.23999	-419.230456	-419.229512	-419.273929	35.701	
C	-0.1551690851	 1.5705903917	-0.1103645543	-0.506269
C	-0.0656539749	 0.0762505592	-0.0325537547	 0.191949
C	-0.0677173094	-0.7895868613	-1.0943682386	-0.193202
N	 0.0403187328	-2.0800972714	-0.5966768729	-0.308933
C	 0.1035011393	-2.0407683253	 0.7680918322	 0.251935
N	 0.1411731132	-3.2086955277	 1.5407584236	-0.607715
C	 0.0435536719	-0.7159932559	 1.1638478268	 0.08852
C	 0.0752852309	-0.2507494071	 2.5856497394	-0.194715
O	 1.0365387209	-0.9641756619	 3.3835883573	-0.417346
H	 0.6977565288	 2.0603926268	 0.3760900352	 0.116959
H	-0.1735093879	 1.9058381665	-1.1515713286	 0.116716
H	-1.0599993656	 1.9568640398	 0.3747033903	 0.121432
H	-0.1218054743	-0.6074671803	-2.1553257867	 0.10913
H	-0.0045060704	-2.9214078265	-1.144060039	 0.253189
H	 0.798388216	-3.8952646363	 1.1858425671	 0.234102
H	 0.4055988037	-2.9644977157	 2.4903142533	 0.258509
H	 0.2661756817	 0.8316924289	 2.6270906738	 0.095163
H	-0.8769651818	-0.4225508359	 3.1033162168	 0.113945
H	 1.8784380903	-0.8913237678	 2.9198699889	 0.276631
89.7708	139.3064	158.3144	193.3708	218.364	260.213	302.9245	314.0125	384.6612	410.2047	445.9588	496.0204	578.7927	626.2564	657.7121	687.1875	742.2331	774.7124	859.554	954.5972	1001.2048	1007.7914	1058.7056	1063.152	1093.4529	1150.2526	1205.6918	1240.0255	1277.4378	1347.9759	1369.1166	1404.6241	1416.6377	1429.9086	1482.1611	1494.9233	1511.0922	1541.2814	1582.3805	1631.5701	1671.1578	2995.1196	3016.7338	3036.1248	3060.2708	3100.7539	3263.1996	3496.0667	3582.7841	3682.0706	3796.1684
CC1=CNC(N)=C1CO	Cc1c[nH]c(N)c1CO	
InChI=1S/C6H10N2O/c1-4-2-8-6(7)5(4)3-9/h2,8-9H,3,7H2,1H3	InChI=1S/C6H10N2O/c1-4-2-8-6(7)5(4)3-9/h2,8-9H,3,7H2,1H3
