12
gdb 24010	1.96441	1.91125	0.96873	8.8486	74.12	-0.2634	-0.0399	0.2235	1093.6099	0.080511	-394.601004	-394.593791	-394.592847	-394.633053	26.345	
N	 0.021846217	-1.1448440687	-0.0032871607	-0.340585
C	 0.0179117032	 0.0127695493	 0.0029906293	 0.206595
C	 0.0046090422	 1.4286116555	 0.0107926136	 0.084097
C	-1.121224678	 2.2257683651	 0.0293311145	-0.142702
N	-0.7096346855	 3.5268323239	 0.0311410475	-0.240858
C	 0.652901261	 3.6002333696	 0.0142944534	-0.142705
C	 1.1433267096	 2.3108080627	 0.0011544476	 0.084056
C	 2.510784634	 1.9440307596	-0.0181125413	 0.206591
N	 3.6307010642	 1.6513520151	-0.0338528374	-0.340577
H	-2.1634624956	 1.9548599122	 0.0410531782	 0.168738
H	-1.325848623	 4.3223573494	 0.0432302986	 0.288608
H	 1.1756626909	 4.5417784362	 0.0127504867	 0.168743
105.6502	156.5113	191.0438	209.7084	478.9074	491.48	505.3492	540.1716	578.3805	642.315	644.2614	649.8488	690.3153	792.7449	808.692	911.9142	1100.2321	1105.4678	1201.544	1263.3493	1341.0255	1368.6971	1469.5692	1557.8595	1583.4823	2352.4526	2354.4802	3284.4799	3287.1575	3673.1205
N#CC1=CNC=C1C#N	N#Cc1c[nH]cc1C#N	
InChI=1S/C6H3N3/c7-1-5-3-9-4-6(5)2-8/h3-4,9H	InChI=1S/C6H3N3/c7-1-5-3-9-4-6(5)2-8/h3-4,9H
