21
gdb 100145	3.89806	0.75027	0.74449	4.919	76.44	-0.2778	0.0088	0.2866	1589.9634	0.178841	-461.383765	-461.372779	-461.371834	-461.420456	38.659	
C	 0.1764839851	 1.4122214904	-0.1667480969	-0.421394
C	 0.0731407674	-0.1110149937	 0.0235524589	 0.234675
C	 0.723628657	-0.5311660636	 1.3534861232	-0.409811
C	-1.40571061	-0.5376050486	 0.006496073	-0.089635
O	-2.0745508756	 0.1018135517	 1.0808368008	-0.421892
C	 0.7524412042	-0.8414678006	-1.146136714	-0.103048
O	 2.1516209716	-0.5382372872	-1.201712692	-0.183093
C	 2.6397655486	 0.0555363496	-2.3059510154	 0.172964
O	 3.7917104213	 0.3425368724	-2.430995427	-0.275543
H	 1.2176353181	 1.7432421911	-0.1276861294	 0.129612
H	-0.2448733142	 1.7217835677	-1.1308268129	 0.100899
H	-0.3790455798	 1.9263000711	 0.6200135767	 0.139969
H	 0.2186387603	-0.0458094145	 2.1909153456	 0.134129
H	 0.6538174114	-1.615246856	 1.4999451866	 0.104542
H	 1.7810352091	-0.2566959114	 1.3692881693	 0.132455
H	-1.8584191052	-0.2585150446	-0.9597849653	 0.082968
H	-1.471951723	-1.6343459148	 0.0987013457	 0.0851
H	-2.9953550201	-0.1735326725	 1.071450618	 0.291526
H	 0.6712082091	-1.927226713	-1.0228398108	 0.116588
H	 0.2792183245	-0.5688459313	-2.0997025246	 0.102997
H	 1.8611523002	 0.2395342379	-3.0726078895	 0.075991
42.1703	65.6844	116.1616	140.6334	204.5203	224.7185	229.1609	249.693	281.7864	302.0035	353.4122	363.9022	392.5447	420.908	586.0281	681.329	754.0281	902.0387	923.0259	947.9525	967.3049	1004.7642	1037.4845	1045.165	1073.6245	1097.014	1158.8514	1200.97	1226.9776	1234.2232	1288.6936	1304.0944	1348.9495	1393.5873	1397.6678	1413.5049	1433.0642	1465.493	1486.0492	1493.0703	1497.5657	1503.1216	1514.7451	1523.9501	1866.0132	2940.4855	2951.3415	2982.0121	3006.9064	3031.3799	3038.4407	3066.7949	3103.5166	3109.9474	3134.9106	3139.8922	3838.8436
CC(C)(CO)COC=O	CC(C)(CO)COC=O	
InChI=1S/C6H12O3/c1-6(2,3-7)4-9-5-8/h5,7H,3-4H2,1-2H3	InChI=1S/C6H12O3/c1-6(2,3-7)4-9-5-8/h5,7H,3-4H2,1-2H3
