17
gdb 106013	3.41377	1.65358	1.43418	2.5437	69.61	-0.2514	0.0655	0.3169	930.405	0.136549	-421.732053	-421.724978	-421.724033	-421.763735	28.05	
O	 0.0841228031	 1.3739101712	-0.0786168836	-0.429675
C	 0.0959963831	-0.0430263791	 0.0283730318	-0.188668
C	-1.2930447238	-0.6030185704	 0.0208198795	 0.311197
C	-1.829960549	-2.0700202	-0.0458639231	-0.198637
C	-3.0407965199	-1.5244791792	-0.7712915842	-0.088118
C	-3.0255573672	-1.6034569113	 0.7545208915	-0.086801
C	-2.4189393105	-0.2072658917	 1.0406415308	 0.00071
O	-2.9989133152	 0.742226578	 0.1106751143	-0.303073
C	-2.4373348164	-0.104902228	-0.9256654455	 0.014439
H	-0.7771469932	 1.6887869987	 0.2194197916	 0.296679
H	 0.6694412287	-0.432175806	-0.823694527	 0.10661
H	 0.6235502704	-0.3627691347	 0.942606815	 0.092778
H	-1.3420376338	-3.0318429435	-0.1001738213	 0.100085
H	-3.7692842112	-2.0395379944	-1.381476986	 0.098083
H	-3.7418647897	-2.1779300273	 1.3247394762	 0.098207
H	-2.2988733434	 0.1695782827	 2.0558163805	 0.085222
H	-2.3311404822	 0.3782973952	-1.8949377107	 0.090961
79.3061	139.5817	259.8226	270.6203	393.8387	528.1711	554.4321	660.4843	760.6909	761.3715	800.2304	826.2759	843.2535	857.2006	866.4462	912.9934	914.9873	925.167	995.0737	996.3223	1036.6672	1046.769	1076.072	1083.0292	1103.0489	1145.1965	1156.6887	1205.981	1209.1936	1242.4943	1274.9497	1283.4417	1332.5014	1345.6758	1365.3305	1451.4361	1517.5148	2964.9339	3027.3993	3128.7814	3145.4524	3211.4134	3214.9875	3231.5769	3791.3944
OCC12C3C4C3C1OC24	OC[C@@]12[C@@H]3[C@H]4[C@@H]3[C@@H]1O[C@@H]24	
InChI=1S/C7H8O2/c8-1-7-4-2-3(4)6(7)9-5(2)7/h2-6,8H,1H2	InChI=1S/C7H8O2/c8-1-7-4-2-3(4)6(7)9-5(2)7/h2-6,8H,1H2/t2-,3+,4-,5-,6+,7+
