16
gdb 84975	2.84361	1.24068	0.91054	6.5001	79.46	-0.2629	-0.0787	0.1841	1248.5352	0.124311	-400.807523	-400.799148	-400.798204	-400.841182	30.418	
C	-0.1118855958	 1.5740115507	 0.017083743	-0.401613
C	 0.0258592801	 0.0425028817	-0.0165523307	-0.035663
C	 0.8057195099	-0.5049762934	-1.2316158522	-0.350716
C	 1.9407720422	-1.3657171408	-0.6634905259	 0.321477
O	 2.7505997446	-1.9999837003	-1.28567235	-0.296141
C	 1.8409836513	-1.2585023571	 0.8313492152	 0.073391
C	 0.7908829913	-0.4904603335	 1.168219483	-0.142293
C	 2.746879125	-1.9003429201	 1.7180283756	 0.228277
N	 3.4913523546	-2.4277648118	 2.4299907864	-0.326954
H	 0.870972211	 2.0554692332	-0.0093936391	 0.131642
H	-0.6864164492	 1.9241626965	-0.8452248366	 0.132806
H	-0.6276441702	 1.9051944163	 0.923854402	 0.126845
H	-0.9859907369	-0.3848339353	 0.0123211362	 0.110094
H	 0.1944454599	-1.1104227224	-1.9060319139	 0.145352
H	 1.2447779331	 0.2962135954	-1.8349258893	 0.144634
H	 0.501879359	-0.2568177691	 2.1875833263	 0.138863
52.687	109.0952	141.1184	244.6667	254.1426	311.1893	408.3556	415.4944	510.473	522.1659	593.8324	644.9505	678.7628	764.1996	857.0387	908.59	933.2147	961.0501	1022.4356	1040.6209	1078.0802	1131.96	1203.7895	1208.0125	1265.9461	1304.857	1315.2829	1336.6732	1410.6242	1450.6099	1497.2511	1498.4693	1661.4721	1835.5283	2350.1303	3011.344	3037.0892	3063.1804	3107.1873	3110.7966	3115.7685	3198.2943
CC1CC(=O)C(=C1)C#N	C[C@H]1CC(=O)C(=C1)C#N	
InChI=1S/C7H7NO/c1-5-2-6(4-8)7(9)3-5/h2,5H,3H2,1H3	InChI=1S/C7H7NO/c1-5-2-6(4-8)7(9)3-5/h2,5H,3H2,1H3/t5-/m1/s1
