20
gdb 55136	3.28838	1.33675	1.18782	2.1199	78.51	-0.2373	-0.0163	0.2209	1119.2964	0.17222	-403.1339	-403.125805	-403.124861	-403.167281	31.193	
C	 0.1698347688	 0.9123745062	 0.9082094551	-0.475718
C	-0.0238339411	 0.1423899143	-0.380917717	 0.369314
O	 0.7813103549	 0.1710024929	-1.2842775608	-0.298177
C	-1.3049399438	-0.6931643976	-0.4580109238	-0.051616
C	-1.5410911736	-1.4618744514	-1.7949270783	-0.256299
C	-1.5948816066	-2.8798098009	-1.194908611	-0.024854
C	-2.4325638537	-2.6295183757	 0.0837704555	-0.171099
N	-1.25187148	-1.8010823872	 0.563226348	-0.147059
C	-0.4112742007	-2.8189568593	-0.2006771188	-0.187911
H	 1.1625966918	 1.3628216405	 0.9330937384	 0.13593
H	-0.5890148634	 1.7006625591	 0.9839546943	 0.136704
H	 0.0193311805	 0.2436123909	 1.7607137434	 0.161201
H	-2.1452750394	-0.042453829	-0.191007015	 0.084711
H	-2.4731328712	-1.1728116468	-2.2876053135	 0.095761
H	-0.711747443	-1.3180815663	-2.4900870703	 0.128916
H	-1.7662586901	-3.7168029647	-1.8735705584	 0.06492
H	-3.378560885	-2.0843477418	 0.0073361099	 0.09828
H	-2.5507402891	-3.507219932	 0.7235121905	 0.108341
H	-0.2891076321	-3.7168676989	 0.4083799296	 0.107652
H	 0.5589255968	-2.4582829724	-0.5503336978	 0.121004
36.4695	136.2341	147.7622	194.0422	356.8284	357.5681	452.3895	514.1175	569.9901	591.5221	695.266	777.4109	826.2811	846.6896	859.5565	875.1967	924.3374	941.3812	953.9395	973.6559	1003.2981	1034.0574	1043.5829	1066.7104	1091.5607	1111.8206	1147.0654	1188.6525	1208.2337	1233.5914	1257.8394	1262.0985	1267.7037	1306.4474	1316.2014	1363.2919	1381.6838	1465.9549	1471.7746	1498.7149	1500.0187	1533.8129	1807.681	3035.7026	3042.9146	3049.9456	3067.4371	3068.8971	3104.1894	3105.7742	3115.6113	3124.8419	3131.3197	3156.8296
CC(=O)C1CC2CN1C2	CC(=O)[C@H]1C[C@@H]2CN1C2	
InChI=1S/C7H11NO/c1-5(9)7-2-6-3-8(7)4-6/h6-7H,2-4H2,1H3	InChI=1S/C7H11NO/c1-5(9)7-2-6-3-8(7)4-6/h6-7H,2-4H2,1H3/t7-/m1/s1
