13
gdb 49947	2.29172	1.26568	0.98399	3.8447	69.76	-0.2882	-0.0703	0.2179	1174.6932	0.087668	-415.617785	-415.609328	-415.608384	-415.651462	29.44	
O	-0.0114760037	-0.0453451977	-0.3190132256	-0.235339
C	 0.0311820345	 1.075427088	 0.1117616321	 0.16182
C	 1.2753563144	 1.9065130098	 0.0737113791	-0.137739
C	 1.1748319185	 3.3800777077	-0.1894290728	-0.306894
C	 1.5438161503	 2.9247866772	 1.2155497076	 0.015631
C	 0.558198847	 3.0807540293	 2.2603049415	 0.255624
N	-0.2439613607	 3.2120840441	 3.0815772117	-0.31784
C	 2.9172351042	 3.0635136765	 1.6356105674	 0.260717
N	 4.0249806811	 3.1714664151	 1.9459418802	-0.31039
H	-0.8584310258	 1.5757692803	 0.5495281918	 0.113367
H	 2.1544536081	 1.38312884	-0.2838316469	 0.157398
H	 1.9574041501	 3.8503363209	-0.7714452274	 0.174908
H	 0.186244502	 3.8125923888	-0.2969302287	 0.168735
85.4565	105.0147	136.6234	179.6192	215.9802	305.91	328.6228	446.2667	491.5333	506.3275	594.6776	612.8122	643.3355	832.3074	866.9719	939.6282	973.7685	1033.7317	1074.969	1101.3915	1166.985	1223.207	1281.2871	1345.8063	1437.8244	1473.4767	1832.1597	2363.0839	2366.6452	2916.2272	3151.1268	3198.7059	3250.1286
O=CC1CC1(C#N)C#N	O=C[C@H]1CC1(C#N)C#N	
InChI=1S/C6H4N2O/c7-3-6(4-8)1-5(6)2-9/h2,5H,1H2	InChI=1S/C6H4N2O/c7-3-6(4-8)1-5(6)2-9/h2,5H,1H2/t5-/m1/s1
