19
gdb 59914	4.36002	0.79211	0.73086	4.001	76.81	-0.2523	0.0013	0.2535	1603.9593	0.157589	-456.3953	-456.385034	-456.38409	-456.431489	35.848	
C	-0.257394768	 1.5857368543	 0.0567180101	-0.394664
C	 0.0236449586	 0.0914689509	 0.0025151435	 0.15307
C	 0.7259048569	-0.4414139675	 1.2470534032	-0.396883
O	-1.2683898054	-0.5543964328	-0.1447425639	-0.297018
C	-1.2621795557	-1.7740434516	-0.7403675034	 0.537866
O	-0.2931642926	-2.3480453352	-1.1554218182	-0.364358
N	-2.5778566659	-2.2175520322	-0.7793647453	-0.37119
C	-3.0737153971	-3.4138511148	-1.2831872173	 0.08472
N	-2.3659566127	-4.3241238168	-1.8068214841	-0.400912
H	 0.6822514639	 2.1397899639	 0.1379414451	 0.122417
H	-0.7768520175	 1.9172563878	-0.8463430043	 0.12379
H	-0.8778269178	 1.8335934062	 0.9238007745	 0.122344
H	 0.6139363962	-0.1585167243	-0.883441099	 0.11402
H	 0.1228419978	-0.252681119	 2.1412181822	 0.117325
H	 0.9025973637	-1.5151360232	 1.1552648891	 0.146428
H	 1.6929707033	 0.0553804266	 1.3732769139	 0.118896
H	-3.2471988464	-1.578566678	-0.3818851781	 0.261159
H	-4.163621152	-3.4465880573	-1.1572835052	 0.094674
H	-2.9638462094	-5.096527167	-2.0955548728	 0.228316
46.6005	66.6508	97.172	135.2934	188.3987	215.5734	236.8243	267.2207	292.5136	402.8846	418.2225	478.4894	572.2127	578.5685	776.2173	798.308	822.2362	851.3195	933.2383	944.2934	950.6326	974.2054	1062.1564	1131.8443	1151.074	1162.9524	1199.5106	1216.5049	1263.6161	1360.8628	1386.5911	1401.5563	1417.6498	1431.5853	1481.1101	1486.2042	1495.2389	1511.0075	1543.0419	1739.5425	1854.5209	3032.3898	3039.5171	3044.0828	3076.0105	3108.8121	3120.1151	3122.4882	3134.802	3501.8207	3649.7736
CC(C)OC(=O)NC=N	CC(C)OC(=O)NC=N	
InChI=1S/C5H10N2O2/c1-4(2)9-5(8)7-3-6/h3-4H,1-2H3,(H2,6,7,8)	InChI=1S/C5H10N2O2/c1-4(2)9-5(8)7-3-6/h3-4H,1-2H3,(H2,6,7,8)
