14
gdb 14587	7.07641	0.67028	0.65147	2.1728	72.46	-0.2515	-0.0309	0.2206	1642.0555	0.103171	-345.345443	-345.336329	-345.335385	-345.381885	30.346	
O	-0.6848985444	 0.7689083571	 0.7121944258	-0.229098
C	-0.0141247281	 1.6777658814	 0.3063013759	 0.169906
C	 1.2905851542	 1.4861534914	-0.4718273032	-0.413357
C	 1.4565486853	 2.4746337192	-1.526912265	 0.047185
C	 1.5451899369	 3.3125150798	-2.3853085954	 0.098465
C	 1.6710815149	 4.3199564327	-3.4405998972	-0.489853
C	 2.3875597913	 5.5249095033	-3.0180383075	 0.315468
C	 2.972717254	 6.5176313242	-2.6820332904	-0.441788
H	-0.2886090178	 2.740353478	 0.4822265083	 0.096401
H	 2.1089482285	 1.5752912775	 0.2593295206	 0.158625
H	 1.3149201347	 0.4596557905	-0.8517319608	 0.155649
H	 2.183175555	 3.8775518727	-4.3062514768	 0.165118
H	 0.671739145	 4.5995604508	-3.8016606406	 0.164289
H	 3.4911800205	 7.3944277614	-2.3820162937	 0.20299
11.2406	52.6869	87.5527	120.4206	242.4027	277.8858	322.0613	367.8529	450.7382	469.6475	562.3415	626.0584	652.9952	723.4074	818.6415	933.1056	949.4664	1033.1988	1042.8817	1159.5742	1211.8835	1231.1052	1290.3361	1336.6576	1414.406	1440.3379	1451.5851	1841.7377	2248.3851	2378.045	2903.2123	3002.7866	3010.0722	3034.5598	3081.1868	3506.5447
O=CCC#CCC#C	O=CCC#CCC#C	
InChI=1S/C7H6O/c1-2-3-4-5-6-7-8/h1,7H,3,6H2	InChI=1S/C7H6O/c1-2-3-4-5-6-7-8/h1,7H,3,6H2
