22
gdb 9673	3.48727	1.14862	1.01473	1.4086	79.08	-0.2557	0.0789	0.3346	1267.5059	0.198589	-350.193179	-350.183295	-350.182351	-350.227658	36.298	
C	 0.0269944704	 1.5290716887	-0.3630671348	-0.380674
C	-0.0274303555	 0.1099598215	 0.2194580949	-0.247342
C	-1.40773702	-0.5345120065	 0.1489247623	 0.351737
C	-2.4789608447	 0.17864153	 0.9585743358	-0.458595
C	-1.8397539484	-1.1775444199	-1.1508476689	-0.319061
C	-1.5509266201	-2.0422590613	 0.0543454526	-0.028675
C	-0.3978842118	-3.0115783589	 0.0587289477	-0.110654
O	-0.8511891057	-4.2197245396	-0.5438614088	-0.419759
H	 1.0494237582	 1.9188652101	-0.3381613102	 0.109123
H	-0.3114657063	 1.5379671191	-1.4046027265	 0.117913
H	-0.6030732123	 2.2260216471	 0.197392609	 0.117747
H	 0.6986983676	-0.5100125466	-0.3156838642	 0.093367
H	 0.3059324207	 0.135405058	 1.2663059178	 0.091471
H	-2.6408086762	 1.2024919666	 0.6051378877	 0.116593
H	-3.437334989	-0.3451419724	 0.8915353718	 0.113248
H	-2.2021731143	 0.2326261361	 2.0186355038	 0.110756
H	-2.8683166897	-1.063823125	-1.4767227756	 0.105207
H	-1.1199169907	-1.2108418231	-1.9635707616	 0.105239
H	-2.422254565	-2.4506593788	 0.56077584	 0.084472
H	 0.4605164999	-2.6007626947	-0.4927613393	 0.081704
H	-0.0637298417	-3.1936514387	 1.0936130262	 0.083285
H	-0.1400431555	-4.8647609718	-0.4849110495	 0.282899
70.4759	93.4037	151.0347	179.4157	225.1072	226.8438	265.5124	286.4628	325.2478	372.6483	387.7248	451.5204	575.0181	680.0764	785.9687	828.0749	880.3753	899.9894	928.8078	969.4709	1018.7424	1024.1558	1050.4767	1062.6841	1070.8914	1092.2953	1129.2082	1148.433	1169.5251	1243.1641	1257.5068	1290.7266	1310.7992	1330.6893	1374.9259	1408.1305	1410.4157	1420.0541	1471.1486	1480.1574	1490.0592	1496.8023	1502.814	1507.4837	1511.9895	1521.4563	2962.3401	3002.8901	3012.2223	3023.7983	3036.5839	3070.1865	3085.432	3099.5344	3103.3129	3110.9492	3122.0713	3134.8186	3205.2461	3823.3401
CCC1(C)CC1CO	CC[C@@]1(C)C[C@H]1CO	
InChI=1S/C7H14O/c1-3-7(2)4-6(7)5-8/h6,8H,3-5H2,1-2H3	InChI=1S/C7H14O/c1-3-7(2)4-6(7)5-8/h6,8H,3-5H2,1-2H3/t6-,7-/m0/s1
