17
gdb 27102	3.01383	1.31634	0.92147	2.3861	81.	-0.1862	0.0014	0.1875	1225.2573	0.137223	-418.078862	-418.070264	-418.06932	-418.112717	31.473	
C	-0.0074430254	 1.543449874	 0.0439839506	-0.522883
C	 0.0065583625	 0.0439098035	 0.0441029765	 0.16623
C	 0.0086364169	-0.7894047301	-1.0585353442	 0.343676
N	-0.0172850008	-0.4579229112	-2.4187798628	-0.394834
C	-0.0359576821	-1.3340642914	-3.4576227278	 0.144921
O	-0.0294282434	-2.5494256583	-3.3536401197	-0.343407
N	 0.0409393086	-2.0919960434	-0.6447968861	-0.290401
C	 0.0605903773	-2.1220005008	 0.7269515097	-0.093395
C	 0.0413483388	-0.8232921076	 1.1769892918	-0.226972
H	 1.000157342	 1.977533143	 0.0027078058	 0.127304
H	-0.5718245468	 1.9535246917	-0.802990039	 0.106527
H	-0.483725988	 1.9265014663	 0.9514554561	 0.133323
H	-0.0175516399	 0.526175308	-2.6364310452	 0.26298
H	-0.0560454065	-0.8154655674	-4.4326552465	 0.090527
H	 0.0333650717	-2.8567323209	-1.3033688812	 0.285583
H	 0.0806084519	-3.0590245393	 1.2582978221	 0.119454
H	 0.0470822933	-0.5101394261	 2.2102299099	 0.091365
59.4534	78.3837	183.2539	193.799	251.8201	255.1235	382.9638	422.6436	555.0648	583.4565	598.1209	664.1047	679.8803	685.4687	714.5942	819.5269	879.4088	924.9819	981.5279	996.4285	1058.4941	1077.837	1095.5525	1156.9994	1204.762	1270.174	1338.266	1411.5362	1420.0018	1430.314	1463.4144	1488.9049	1497.8852	1528.4297	1542.4974	1654.6951	1770.1592	2975.1479	3009.9235	3055.064	3096.2943	3242.4089	3275.789	3620.6586	3638.7314
CC1=C(NC=O)NC=C1	Cc1c(NC=O)[nH]cc1	
InChI=1S/C6H8N2O/c1-5-2-3-7-6(5)8-4-9/h2-4,7H,1H3,(H,8,9)	InChI=1S/C6H8N2O/c1-5-2-3-7-6(5)8-4-9/h2-4,7H,1H3,(H,8,9)
