22
gdb 69535	2.89996	1.58258	1.41347	1.279	85.68	-0.2249	0.0967	0.3216	1058.7229	0.195329	-367.172545	-367.164492	-367.163548	-367.204278	33.611	
C	 0.0961978846	 1.4246946756	-0.0081473036	-0.468607
C	-0.0704936852	-0.074541263	-0.0255470216	 0.348492
C	-0.6253521284	-0.8012777623	 1.1482499763	-0.315536
N	 0.8115954438	-0.9239328095	 0.8255603083	-0.173956
C	 1.1709265461	-2.0008683554	-0.1699912143	 0.354449
C	 2.0516225456	-3.0738212857	 0.4166640108	-0.487661
C	-0.108199919	-2.3049496855	-1.0093232031	-0.286195
C	 0.0342126748	-0.8083261085	-1.377596104	-0.098793
C	 1.5802937502	-1.0855218311	-1.3708701118	-0.245981
H	 0.9161458671	 1.7430069572	-0.6612866327	 0.116783
H	-0.8184819542	 1.9206367686	-0.3533668378	 0.11433
H	 0.3150517674	 1.7785802437	 1.0029276287	 0.125176
H	-0.8042670137	-0.2278134307	 2.0545230772	 0.109116
H	-1.2906414891	-1.6489513397	 1.0365357865	 0.112035
H	 1.5226747529	-3.6243486799	 1.2024929208	 0.118352
H	 2.361304943	-3.7909473658	-0.3499916032	 0.109632
H	 2.9470549863	-2.63246732	 0.8649725418	 0.126738
H	 0.1302651943	-2.9507177397	-1.8566754413	 0.097063
H	-1.0176782832	-2.6726220978	-0.5328653952	 0.092141
H	-0.4774259107	-0.3659029987	-2.2324713398	 0.061518
H	 2.2510741236	-0.2540873369	-1.1420587295	 0.099779
H	 1.9286253838	-1.6390215851	-2.2459939224	 0.091124
179.75	189.0114	213.401	249.075	301.487	347.4491	425.5531	477.4196	530.4976	566.4613	584.0628	624.1225	712.8172	773.1079	783.4668	831.6822	859.1682	895.4934	926.2676	946.8051	959.8593	995.247	1020.0418	1030.6105	1046.7984	1080.3413	1101.7441	1117.8478	1118.9263	1136.2747	1192.6534	1201.0368	1217.4019	1227.1609	1240.0675	1311.1211	1324.1779	1361.2604	1413.3355	1417.5999	1479.0972	1485.5187	1487.3406	1491.9837	1495.3762	1505.0165	1553.0822	3027.9035	3032.8471	3062.5305	3080.0959	3087.987	3098.4278	3110.2113	3112.6661	3115.4924	3119.6979	3126.7603	3129.6948	3207.1939
CC12CN1C1(C)CC2C1	C[C@]12CN1[C@@]1(C)C[C@@H]2C1	
InChI=1S/C8H13N/c1-7-3-6(4-7)8(2)5-9(7)8/h6H,3-5H2,1-2H3	InChI=1S/C8H13N/c1-7-3-6(4-7)8(2)5-9(7)8/h6H,3-5H2,1-2H3/t6-,7+,8-,9?/m1/s1
