19
gdb 104026	3.09719	1.34606	1.23627	2.0401	70.37	-0.2391	0.0773	0.3164	1091.6539	0.157967	-460.142592	-460.134072	-460.133128	-460.17548	33.09	
C	 0.1085765214	 1.4807629442	 0.0456885923	-0.422887
C	-0.0415311691	-0.0263476923	 0.0410778716	 0.403679
C	-1.5063789755	-0.4925154846	 0.0209887882	-0.080843
O	-2.1486435818	-0.1070820222	-1.1768243636	-0.418128
O	 0.6104686674	-0.563103951	-1.1287817201	-0.309291
C	 1.1907193945	-1.7890248285	-0.7466698451	 0.052061
C	 2.5104630745	-1.6943755586	-0.0127420822	-0.328478
C	 1.205008387	-1.8046378909	 0.7449317458	 0.053671
O	 0.636177823	-0.5876951866	 1.1640935924	-0.294348
H	 1.1594525943	 1.7516202326	-0.0719300507	 0.123946
H	-0.4757197859	 1.9103188915	-0.7704373671	 0.139271
H	-0.2616357854	 1.8828006955	 0.9922041051	 0.129575
H	-1.5242084726	-1.5841265868	 0.1655785623	 0.086159
H	-2.0550616607	-0.0348362268	 0.8494212306	 0.114412
H	-1.565335459	-0.3938689723	-1.890695623	 0.287983
H	 0.9392166838	-2.6356072767	-1.3754053412	 0.107135
H	 3.1564789852	-2.5665022692	-0.030033779	 0.11728
H	 3.0108166609	-0.7329372105	-0.0065543337	 0.130472
H	 0.9642038379	-2.6634442068	 1.3609942873	 0.108331
93.7808	136.8143	196.8678	201.538	291.2332	327.6658	338.8351	416.7263	475.4838	509.2409	527.5615	664.4998	739.84	782.4218	788.6392	812.3493	880.2605	924.2718	937.3344	986.022	1002.265	1015.0899	1064.6605	1080.858	1093.8327	1111.3018	1142.277	1148.0509	1175.3706	1199.46	1227.6369	1292.2423	1331.8536	1367.9291	1374.6685	1412.9094	1430.0283	1458.4901	1477.9243	1488.7094	1500.7997	2984.3769	3059.6855	3090.001	3131.9098	3138.1522	3149.1171	3167.8639	3177.372	3232.1508	3781.0598
CC1(CO)OC2CC2O1	C[C@@]1(CO)O[C@H]2C[C@H]2O1	
InChI=1S/C6H10O3/c1-6(3-7)8-4-2-5(4)9-6/h4-5,7H,2-3H2,1H3	InChI=1S/C6H10O3/c1-6(3-7)8-4-2-5(4)9-6/h4-5,7H,2-3H2,1H3/t4-,5+,6+
