16
gdb 29044	2.72466	1.65117	1.02812	3.2391	90.23	-0.2002	-0.0514	0.1487	1099.928	0.127102	-400.813578	-400.806058	-400.805114	-400.845446	29.41	
N	 0.0244532142	 1.3530113007	 0.0089112444	-0.519352
C	-0.0338618342	 0.0089454251	 0.0014285527	 0.216366
C	-1.2486191169	-0.6586182019	 0.0046517429	-0.177464
C	-1.5299517474	-2.0325312234	-0.0011721666	-0.062764
C	-0.6707612653	-3.1073997488	-0.011689554	-0.130667
C	 0.7363280921	-3.0613089116	-0.0193289265	-0.071534
C	 1.5896035038	-1.9876137217	-0.0185647986	-0.168738
C	 1.3481563816	-0.5708389149	-0.0099267341	 0.315048
O	 2.2867905028	 0.2378488891	-0.0114899095	-0.418852
H	 0.9611226971	 1.738436607	 0.0037524981	 0.280504
H	-0.7942168825	 1.9332577877	 0.0141949349	 0.261288
H	-2.1244444673	-0.0113306824	 0.013137312	 0.079143
H	-2.5907793024	-2.2727974433	 0.003462721	 0.09788
H	-1.1205580057	-4.0953034947	-0.0144315031	 0.09263
H	 1.22635176	-4.033142692	-0.0271657188	 0.100669
H	 2.6547879402	-2.2030063249	-0.025798885	 0.105842
102.9855	175.7304	232.8416	363.9488	377.6921	389.2599	413.5534	444.108	529.9797	611.0474	663.6626	682.1948	746.268	749.5917	795.3533	883.8425	887.6728	924.8041	968.5888	1001.2501	1015.7546	1029.3283	1147.3647	1239.6411	1268.768	1292.0426	1373.2344	1441.0801	1444.005	1500.4408	1524.3728	1574.8606	1627.3812	1652.0093	1680.0121	3125.9232	3140.7484	3153.8221	3171.7693	3181.9743	3532.6348	3729.71
NC1=CC=CC=CC1=O	Nc1cccccc1=O	
InChI=1S/C7H7NO/c8-6-4-2-1-3-5-7(6)9/h1-5H,(H2,8,9)	InChI=1S/C7H7NO/c8-6-4-2-1-3-5-7(6)9/h1-5H,(H2,8,9)
