16
gdb 8737	2.45641	1.85227	1.11556	6.244	69.	-0.3271	0.011	0.338	1041.5195	0.129479	-342.819977	-342.811091	-342.810146	-342.85359	31.137	
C	 0.0531586113	 1.5571550413	 0.0057015239	-0.411178
C	 0.0112299078	 0.0167180463	 0.0285642532	-0.135939
C	 0.7122215274	-0.4764413196	 1.2197214182	 0.281361
N	 1.260992025	-0.8314287309	 2.1723879823	-0.310455
C	-1.4429758075	-0.5527634172	-0.0147872074	-0.13594
C	-2.2488465942	-0.0483253908	-1.2277761391	-0.411178
C	-1.4116180861	-2.0198769795	-0.0212196834	 0.281357
N	-1.3964480133	-3.1743805055	-0.0615980658	-0.310449
H	 1.0826577934	 1.9048877267	 0.1146925039	 0.151215
H	-0.3376678279	 1.9411410321	-0.9383255847	 0.136607
H	-0.5346921069	 1.9756806537	 0.8278789721	 0.142232
H	 0.5461933954	-0.368238392	-0.8482548141	 0.146157
H	-1.950686192	-0.2407661168	 0.9061236153	 0.146157
H	-3.2273142886	-0.5326438145	-1.2542645376	 0.151215
H	-2.4044897623	 1.0303521421	-1.1677116752	 0.136607
H	-1.7311053215	-0.2790899754	-2.1634044317	 0.142231
58.5347	117.9522	193.2191	207.9808	213.7314	219.296	309.6104	321.2815	364.8365	497.4817	530.3041	572.9603	605.7158	795.3498	846.4462	918.0205	973.8074	1039.3373	1082.134	1107.3678	1134.7821	1152.9207	1274.0022	1319.2693	1339.5976	1354.3852	1408.89	1418.8694	1491.359	1492.5623	1498.3219	1510.1006	2361.5936	2362.0064	3036.143	3049.655	3055.4026	3055.8749	3130.255	3130.3619	3137.6158	3145.3838
CC(C#N)C(C)C#N	C[C@@H](C#N)[C@@H](C)C#N	
InChI=1S/C6H8N2/c1-5(3-7)6(2)4-8/h5-6H,1-2H3	InChI=1S/C6H8N2/c1-5(3-7)6(2)4-8/h5-6H,1-2H3/t5-,6-/m0/s1
