19
gdb 46908	3.16436	1.37097	1.04482	3.067	75.69	-0.234	-0.0185	0.2155	1145.9041	0.160345	-423.029422	-423.021558	-423.020614	-423.062093	30.745	
O	 0.048233087	 0.0331920326	-0.4402134539	-0.2954
C	-0.005837343	 1.1885735203	-0.0838498429	 0.369585
C	-1.3524580954	 1.8826696964	 0.1056802893	-0.29184
C	-1.4812411092	 2.8225546553	 1.3211774611	-0.23822
C	-0.7334844354	 4.1267012867	 1.127654201	-0.037694
C	 0.1379040828	 4.6889721512	 2.2334407979	-0.337157
C	 0.7709582958	 4.0557665046	 1.0355217365	 0.117589
O	 1.3697910035	 2.8111902192	 1.236886694	-0.240462
C	 1.3118116348	 1.9606547415	 0.1045388737	-0.172546
H	-1.5439260124	 2.4594052036	-0.8116854134	 0.119658
H	-2.0999077673	 1.0849995165	 0.1359149354	 0.12211
H	-2.5433713742	 3.0321599082	 1.4880870401	 0.107662
H	-1.1235315619	 2.3100884785	 2.2193180403	 0.115547
H	-1.2238987047	 4.8453845614	 0.4757750616	 0.087523
H	 0.2156620354	 5.7643063768	 2.3463114921	 0.116975
H	 0.1886153766	 4.1287802279	 3.1608336008	 0.128362
H	 1.2904764372	 4.6874943989	 0.3137895694	 0.086359
H	 2.1006644368	 1.2138838616	 0.217786519	 0.133809
H	 1.5110808536	 2.5269079789	-0.821157152	 0.108142
51.4744	173.952	246.2084	270.458	314.113	367.9709	391.4591	472.9265	499.9228	603.8368	653.605	756.5476	767.7904	805.6781	847.6515	864.3211	928.9154	967.8514	985.297	1042.583	1059.7577	1079.3252	1099.9646	1123.1855	1131.9008	1172.7678	1187.4766	1230.6063	1236.5378	1274.6029	1304.9795	1337.7259	1344.5099	1368.6932	1396.0848	1416.6146	1459.6465	1467.5585	1479.1239	1492.4138	1798.7165	2968.5691	3008.6463	3044.732	3085.6233	3090.5634	3094.1746	3112.6655	3136.8419	3140.0436	3226.6534
O=C1CCC2CC2OC1	O=C1CC[C@H]2C[C@H]2OC1	
InChI=1S/C7H10O2/c8-6-2-1-5-3-7(5)9-4-6/h5,7H,1-4H2	InChI=1S/C7H10O2/c8-6-2-1-5-3-7(5)9-4-6/h5,7H,1-4H2/t5-,7+/m0/s1
