16
gdb 6723	7.13664	0.77973	0.7359	7.4516	68.28	-0.2332	0.0073	0.2405	1500.8157	0.129664	-417.09656	-417.087563	-417.086619	-417.131619	30.276	
C	 0.0609763842	 1.4202160967	 0.1697181334	-0.325061
N	-0.1462455782	 0.1190640205	-0.4297068862	-0.275615
H	 0.6286410484	-0.3169477427	-0.9074444352	 0.253217
C	-1.1817913927	-0.6997666596	-0.1212902093	 0.136226
N	-1.2359456821	-1.9249594236	-0.4759515013	-0.292667
C	-2.4152559681	-2.6943025307	-0.1365119144	-0.290416
C	-2.025965456	-4.1097982574	 0.316743153	 0.413614
O	-0.7341165774	-4.4023352763	 0.1066366708	-0.361794
O	-2.8075995061	-4.8872221145	 0.7928598717	-0.337707
H	 0.7595297423	 1.392831605	 1.016674834	 0.134463
H	 0.4458985156	 2.1254037539	-0.5729998784	 0.140674
H	-0.895975379	 1.8047993012	 0.5320463451	 0.145144
H	-1.9848568666	-0.200872248	 0.4376807225	 0.10045
H	-0.344430324	-3.585933806	-0.2719659395	 0.299003
H	-3.0391670966	-2.2461797293	 0.6498213111	 0.121118
H	-3.0590719735	-2.8235109192	-1.0179189772	 0.13935
45.7948	74.5414	80.424	127.3731	193.5729	229.3926	319.5347	392.5904	465.4989	569.4305	588.7908	601.575	679.2973	788.3101	874.0197	987.3295	1019.3411	1040.1142	1071.6729	1151.6378	1187.4515	1221.0791	1232.7615	1318.6336	1346.2966	1386.7929	1427.0177	1463.3612	1470.2042	1484.9937	1491.8209	1532.7443	1758.1382	1877.1239	3000.1202	3012.0913	3036.2309	3038.2143	3080.9074	3121.7737	3512.287	3615.7378
C[NH+]=CNCC([O-])=O	CNC=NCC(=O)O	
InChI=1S/C4H8N2O2/c1-5-3-6-2-4(7)8/h3H,2H2,1H3,(H,5,6)(H,7,8)	InChI=1S/C4H8N2O2/c1-5-3-6-2-4(7)8/h3H,2H2,1H3,(H,5,6)(H,7,8)
