16
gdb 8864	2.61983	1.67787	1.09292	4.6318	67.45	-0.2478	-0.0804	0.1673	1071.2862	0.128413	-379.929336	-379.920024	-379.91908	-379.964275	31.592	
C	-0.5208682477	 1.4123513309	 0.4775359326	-0.322235
N	-0.4697637629	-0.0433324954	 0.4056868623	-0.281268
C	-1.4777654218	-0.6778861615	-0.4333374292	-0.063306
C	-1.1945241384	-0.7055072161	-1.9367190714	-0.40654
C	-1.670364372	-2.0870433419	 0.1283404934	 0.284203
O	-1.5629593279	-3.1090424103	-0.498757088	-0.271
C	-1.9940014799	-2.1281215216	 1.572921616	 0.253155
N	-2.3147404846	-2.205616712	 2.6812583718	-0.310379
H	 0.2926755845	 1.7661145404	 1.1162286206	 0.13362
H	-0.4380226197	 1.9215824585	-0.496569546	 0.106567
H	-1.4632861412	 1.7195526651	 0.9422008484	 0.136877
H	 0.4549883365	-0.3576032051	 0.1327830171	 0.228737
H	-2.4239656392	-0.1504799238	-0.2423789721	 0.117781
H	-2.0128005031	-1.17871064	-2.4858173245	 0.13778
H	-1.0673181016	 0.312185792	-2.3150052332	 0.123932
H	-0.284447531	-1.2754965391	-2.1460264479	 0.132076
32.1452	74.8172	146.1707	186.8756	203.8171	216.1567	273.6604	306.5643	373.2213	384.0181	488.7407	604.3414	685.1553	735.1899	799.1031	885.4769	1016.322	1046.6611	1077.7829	1129.2081	1150.7527	1172.5434	1218.8064	1333.3913	1343.7626	1407.9179	1458.6807	1480.7324	1485.8977	1493.2118	1499.8024	1518.817	1800.6365	2336.6678	2970.644	3012.9424	3048.3563	3071.3221	3116.5222	3122.0193	3127.204	3530.7458
CNC(C)C(=O)C#N	CN[C@@H](C)C(=O)C#N	
InChI=1S/C5H8N2O/c1-4(7-2)5(8)3-6/h4,7H,1-2H3	InChI=1S/C5H8N2O/c1-4(7-2)5(8)3-6/h4,7H,1-2H3/t4-/m0/s1
