21
gdb 42048	2.82924	1.46196	1.06344	0.765	77.76	-0.2408	0.0771	0.3179	1159.091	0.185352	-424.212212	-424.204367	-424.203423	-424.244715	30.827	
C	 0.1262169591	 1.6013694606	 0.1260598845	-0.095762
O	 1.4046968808	 1.5026302342	-0.5321029402	-0.294327
C	 1.2826447684	 0.0647703958	-0.6650363177	 0.149239
C	 2.4707389861	-0.688671958	-0.0824524366	-0.227899
C	 2.188445939	-2.1903140075	 0.0927118687	-0.207374
C	 1.3478289834	-2.5329362293	 1.3289346512	-0.067656
O	 0.0175954268	-2.0449015136	 1.317776048	-0.244925
C	-0.1080687236	-0.6399706745	 1.4511942859	-0.098991
C	-0.0644616742	 0.0695397934	 0.1043773181	-0.063395
H	 0.2103758607	 2.0601853479	 1.1206328783	 0.097208
H	-0.5980016133	 2.1754764351	-0.4649581538	 0.100443
H	 1.160396103	-0.2125063408	-1.7221225144	 0.07409
H	 3.3301140456	-0.5390002734	-0.7459995012	 0.103516
H	 2.7456016076	-0.2412895066	 0.8803624059	 0.099892
H	 1.6921107605	-2.589235778	-0.8014197821	 0.104346
H	 3.137912071	-2.7315654371	 0.1886643825	 0.098749
H	 1.2540943598	-3.6203209823	 1.417224016	 0.106077
H	 1.8691788545	-2.1709966525	 2.2319747418	 0.086806
H	-1.0788530219	-0.4574641769	 1.927894687	 0.105539
H	 0.6657069735	-0.2450365942	 2.1283622186	 0.090524
H	-0.9072479468	-0.2710420621	-0.5010150204	 0.083899
75.1074	159.1252	215.7095	285.1004	309.4966	367.2184	392.3643	431.2134	515.5047	567.8589	743.3728	779.2692	824.6872	881.3561	908.2811	926.2172	942.9819	992.709	1019.2332	1028.7047	1043.2705	1063.9716	1082.4869	1128.347	1158.3787	1162.4778	1185.1607	1220.0112	1229.6522	1257.8885	1282.4638	1292.2694	1331.4376	1343.6852	1353.548	1377.9961	1384.8336	1394.6484	1407.3864	1424.3612	1475.5224	1489.1746	1491.6774	1508.719	1527.6751	2957.5506	2980.8325	2989.85	3005.2734	3021.4986	3032.0889	3043.9628	3049.1138	3063.4667	3070.3869	3074.8029	3088.5418
C1OC2CCCOCC12	C1O[C@H]2CCCOC[C@@H]12	
InChI=1S/C7H12O2/c1-2-7-6(5-9-7)4-8-3-1/h6-7H,1-5H2	InChI=1S/C7H12O2/c1-2-7-6(5-9-7)4-8-3-1/h6-7H,1-5H2/t6-,7-/m0/s1
