19
gdb 121577	4.66017	0.57993	0.52244	2.3979	84.82	-0.2618	-0.0278	0.2341	2143.8159	0.155934	-423.041387	-423.030352	-423.029408	-423.080397	36.364	
C	-0.0721557041	 1.4187709407	 0.1152032644	-0.384355
C	 0.023732278	-0.1032604952	-0.022042855	-0.191652
C	 0.741766871	-0.5101853357	-1.2982941059	-0.044244
O	 0.7822596261	-1.950675629	-1.3383848201	-0.233994
C	 1.3904224715	-2.4836866543	-2.4151243349	 0.257291
O	 1.8819793407	-1.8381843282	-3.309656761	-0.361041
C	 1.3759943061	-3.9253298879	-2.3568979636	-0.075967
C	 1.3979751537	-5.12969944	-2.3690651573	 0.231493
C	 1.4211112662	-6.5819222769	-2.3785499813	-0.5087
H	 0.9207493533	 1.8807632807	 0.1400060834	 0.120938
H	-0.6226175308	 1.8612678464	-0.7221145948	 0.120937
H	-0.590691886	 1.6956890939	 1.0372230671	 0.120366
H	 0.5566720067	-0.5292108874	 0.8355723005	 0.110825
H	-0.9775926808	-0.5485817688	-0.0214677879	 0.110827
H	 0.2255215483	-0.1424404248	-2.1917412043	 0.121346
H	 1.7659972248	-0.1230757459	-1.3312599141	 0.121349
H	 1.9491193606	-6.9659872119	-3.2573392637	 0.161384
H	 1.9218651499	-6.9692495364	-1.4847172201	 0.161508
H	 0.4033628745	-6.9867187093	-2.3901450214	 0.16169
21.7113	47.2393	58.5226	65.2794	129.7775	158.1003	220.0055	224.9463	292.5767	328.4933	381.2455	399.3928	491.416	601.5603	757.9821	775.0063	837.2533	890.6994	923.3116	985.6801	1047.6526	1052.1406	1054.1962	1102.8463	1148.8686	1187.4453	1267.6539	1278.5594	1312.9335	1335.5681	1410.4693	1412.2882	1420.7399	1470.6137	1473.8389	1491.5315	1499.0919	1503.5672	1519.2308	1784.8903	2362.3158	3033.0475	3033.8658	3037.207	3045.9228	3066.8001	3088.0606	3096.6847	3100.7831	3106.0926	3111.9305
CCCOC(=O)C#CC	CCCOC(=O)C#CC	
InChI=1S/C7H10O2/c1-3-5-7(8)9-6-4-2/h4,6H2,1-2H3	InChI=1S/C7H10O2/c1-3-5-7(8)9-6-4-2/h4,6H2,1-2H3
