17
gdb 48326	2.79503	1.45929	1.12261	3.5135	74.36	-0.2424	-0.0344	0.208	1089.9421	0.134609	-421.813315	-421.805091	-421.804147	-421.846281	30.459	
O	-0.519094052	 0.501064926	-0.7425825461	-0.278963
C	 0.0469677741	 1.0861935425	 0.1524383635	 0.076203
C	 1.2478928771	 1.9604386852	 0.0008316552	 0.120738
C	 1.7489403351	 2.5623555678	 1.2705622921	 0.121736
O	 1.2627853116	 2.391189446	 2.3609806607	-0.271783
C	 2.4054901984	 1.707255419	-0.9894323631	-0.098749
C	 1.916855037	 1.0682973342	-2.2970043416	-0.236295
C	 0.9873781296	 2.3050366835	-2.5162484501	-0.236341
C	 1.5140403482	 2.894199246	-1.2001229661	-0.098622
H	-0.3029819765	 1.011740514	 1.2001824377	 0.118809
H	 2.6458768043	 3.2119801507	 1.1379114006	 0.077175
H	 3.4128309298	 1.6607510088	-0.5909309295	 0.105852
H	 2.7222410883	 1.0198598113	-3.0331500148	 0.11174
H	 1.432366611	 0.0962657274	-2.2181633355	 0.13544
H	 1.2997753725	 2.9119910269	-3.3688352778	 0.111729
H	-0.0827621968	 2.1122169247	-2.5751858031	 0.135457
H	 1.6986149684	 3.942995796	-0.996040842	 0.105874
89.1189	112.658	204.9358	223.0747	233.3176	307.2627	367.3049	368.6391	452.0933	678.7002	685.6537	731.2932	785.9491	824.2957	884.6565	937.3868	938.6529	1001.4326	1007.3995	1028.376	1042.4655	1070.2599	1093.6526	1098.3286	1186.8741	1217.9654	1240.4286	1255.5836	1292.2031	1300.6819	1363.8387	1426.8052	1442.6918	1467.8603	1489.117	1800.0241	1819.448	2854.0818	2953.6144	3077.476	3085.0665	3143.8295	3154.7137	3167.9485	3179.2368
O=CC1(C=O)C2CCC12	O=CC1(C=O)[C@H]2CC[C@@H]12	
InChI=1S/C7H8O2/c8-3-7(4-9)5-1-2-6(5)7/h3-6H,1-2H2	InChI=1S/C7H8O2/c8-3-7(4-9)5-1-2-6(5)7/h3-6H,1-2H2/t5-,6+
