21
gdb 62957	2.12542	1.8132	1.43693	1.4003	82.32	-0.2342	0.072	0.3062	1050.2755	0.182011	-383.20252	-383.193718	-383.192774	-383.235234	34.761	
C	-0.1567530427	 1.5678078146	 0.0702291753	-0.43213
C	-0.0059266826	 0.0543733785	 0.027564976	 0.239163
C	-1.3502674076	-0.6325733431	-0.1879711315	-0.41779
N	 0.95002789	-0.4922333297	-1.0363726314	-0.154772
C	 2.3094078425	-0.0187586195	-0.730745896	-0.254635
C	 1.7698671808	-1.138289506	 0.0702152054	-0.135357
C	 0.8410847849	-0.6154613586	 1.1326361918	 0.336558
N	 1.2004308511	-0.0222461081	 2.4178865043	-0.368612
C	 0.4255401454	-1.2816539632	 2.381090338	-0.323116
H	 0.7850449823	 2.0803548228	 0.2766778792	 0.119259
H	-0.5533803247	 1.934982292	-0.8823254676	 0.119516
H	-0.8541458991	 1.8503040555	 0.8647465141	 0.125284
H	-1.7964558831	-0.2989359741	-1.1299210153	 0.120846
H	-1.2281429788	-1.7180918521	-0.2375265203	 0.117519
H	-2.0435721654	-0.3968077996	 0.6258685261	 0.110727
H	 3.0179476351	-0.2628911608	-1.5168582681	 0.121023
H	 2.4646355224	 0.9528091363	-0.2710741245	 0.117649
H	 2.1367306713	-2.1571886796	-0.0115883909	 0.096439
H	 2.1769082014	-0.2136101181	 2.6331977018	 0.228762
H	-0.597708281	-1.198906014	 2.7373777925	 0.121327
H	 0.9224704878	-2.2102302333	 2.653689761	 0.112342
128.2571	157.4003	193.5374	222.7909	247.1084	295.2839	311.244	358.2789	421.1838	511.1332	538.0811	574.2297	646.8219	757.0382	764.5828	861.4454	883.8275	910.2543	945.8663	955.0172	958.5733	973.5236	1001.0211	1013.9531	1048.5171	1084.5972	1110.8651	1124.5734	1137.6231	1173.6989	1214.4233	1237.4786	1247.8492	1256.2613	1292.3698	1335.35	1398.9536	1413.7783	1437.9937	1474.9023	1476.7521	1493.9159	1499.0462	1508.6715	1519.4887	3035.4731	3042.0211	3100.819	3105.2804	3111.6361	3115.4084	3116.8087	3125.5066	3152.1659	3184.3107	3202.5091	3484.0646
CC1(C)N2CC2C11NC1	CC1(C)N2C[C@H]2[C@]21NC2	
InChI=1S/C7H12N2/c1-6(2)7(4-8-7)5-3-9(5)6/h5,8H,3-4H2,1-2H3	InChI=1S/C7H12N2/c1-6(2)7(4-8-7)5-3-9(5)6/h5,8H,3-4H2,1-2H3/t5-,7+,9?/m0/s1
