22
gdb 109393	2.8962	1.19528	0.95192	1.8096	84.63	-0.233	0.0194	0.2524	1334.8496	0.19544	-404.371084	-404.361872	-404.360928	-404.405517	34.513	
C	 0.5272335976	 0.8042702487	-0.6068021642	-0.381205
C	-0.3142263642	 0.3800524604	 0.6058600079	-0.2322
C	-1.6038069018	-0.3043156363	 0.2231808493	 0.36584
N	-2.7225306234	 0.199673852	 0.5255930671	-0.283338
C	-3.9975258613	-0.4806839285	 0.3554677385	-0.145016
C	-4.3452352796	-1.0138267287	-1.0401101357	-0.201166
C	-3.4848079295	-2.2033746655	-1.4625506229	-0.196201
C	-2.0129901434	-1.8450642829	-1.613408954	-0.068535
O	-1.341454839	-1.5071154092	-0.3959082546	-0.268747
H	 1.4632413313	 1.2686290502	-0.282771563	 0.115606
H	 0.7757643466	-0.0592411043	-1.2299371051	 0.125186
H	-0.0112985581	 1.5304239696	-1.2243436332	 0.120367
H	 0.2667119784	-0.3221810359	 1.2174197781	 0.113923
H	-0.5652596477	 1.2401197011	 1.2291043525	 0.1182
H	-4.0427135778	-1.3174088418	 1.0702709664	 0.104936
H	-4.7755891689	 0.2264588237	 0.6619114546	 0.100946
H	-5.4020692288	-1.3064115901	-1.0377684538	 0.096248
H	-4.2452128207	-0.2015981408	-1.7720991742	 0.100061
H	-3.5820186132	-3.0181241927	-0.733637108	 0.104697
H	-3.8291844093	-2.596477642	-2.4275499456	 0.097444
H	-1.4507884631	-2.6981057893	-2.0040045636	 0.111279
H	-1.9019897137	-1.0133988578	-2.3235206066	 0.101676
61.9504	63.979	171.8016	188.8382	225.8581	300.5415	331.5658	353.384	389.4406	396.9666	518.5553	643.7194	704.4107	754.1432	793.0411	825.3465	864.7054	877.974	938.9168	965.4657	998.3649	1043.1849	1059.0551	1083.583	1107.4251	1127.191	1145.5769	1208.2075	1215.5307	1259.7792	1288.5781	1305.9405	1323.634	1352.1029	1373.8278	1381.9397	1399.8244	1404.0128	1422.3342	1470.174	1471.752	1481.6426	1495.8781	1498.6808	1501.3021	1509.8003	1759.6449	2987.7435	3007.9952	3019.0053	3022.5952	3033.4705	3039.9824	3056.387	3060.9501	3068.9545	3087.8965	3105.0871	3110.5108	3128.058
CCC1=NCCCCO1	CCC1=NCCCCO1	
InChI=1S/C7H13NO/c1-2-7-8-5-3-4-6-9-7/h2-6H2,1H3	InChI=1S/C7H13NO/c1-2-7-8-5-3-4-6-9-7/h2-6H2,1H3
