19
gdb 40887	3.40578	1.4966	1.34238	3.1838	73.9	-0.2386	0.0815	0.3201	1017.493	0.160853	-422.98289	-422.975634	-422.97469	-423.014722	28.886	
C	-0.0327997015	 1.3771121265	-0.3431908579	-0.082544
C	 1.4175738255	 1.6145934026	 0.1184739071	-0.387438
C	 1.2914019076	 0.2113642963	 0.7307127979	 0.526551
O	-0.056078066	 0.0673714175	 0.2654503739	-0.328744
C	 2.2149111568	-1.0103408851	 0.5214373855	-0.001458
C	 3.5743739121	-0.5255755843	 1.0614525054	-0.228539
C	 3.0462253594	 0.1042696221	 2.396125033	-0.228539
C	 1.5543171236	-0.2225370707	 2.1908018866	-0.001453
O	 1.6003333915	-1.6019630967	 1.7087109702	-0.305026
H	-0.787891383	 2.041352603	 0.092772091	 0.106599
H	-0.1867309107	 1.3243603551	-1.4271461736	 0.106603
H	 2.1580873019	 1.710061338	-0.6782778389	 0.115549
H	 1.5589078126	 2.4249347547	 0.8365658687	 0.115547
H	 2.1702964104	-1.6373776489	-0.3687142364	 0.083739
H	 4.2548272728	-1.3623649166	 1.2292293927	 0.1133
H	 4.0667180394	 0.1969169576	 0.4042701401	 0.099407
H	 3.441853471	-0.3928653209	 3.2836595798	 0.113301
H	 3.2453370843	 1.1764668171	 2.4799945968	 0.099405
H	 0.8392770525	-0.0500496473	 2.9948548182	 0.08374
80.3253	178.649	199.3619	286.9868	387.3691	406.705	524.8965	577.9494	692.5324	787.8138	829.494	839.8106	863.1577	869.6673	898.3179	910.8581	942.7721	943.7711	980.4456	1005.6336	1019.6006	1032.4618	1052.5061	1151.3386	1153.5555	1175.7852	1189.0482	1199.6667	1219.5841	1225.6475	1228.348	1250.9536	1260.9929	1301.5142	1319.1114	1353.0148	1362.4556	1479.0512	1482.3216	1498.5442	1531.0846	3023.9355	3061.2077	3064.5652	3069.3005	3072.6858	3109.6608	3125.3508	3125.6747	3128.2344	3132.3806
C1CC2(O1)C1CCC2O1	C1C[C@@]2(O1)[C@H]1CC[C@@H]2O1	
InChI=1S/C7H10O2/c1-2-6-7(3-4-8-7)5(1)9-6/h5-6H,1-4H2	InChI=1S/C7H10O2/c1-2-6-7(3-4-8-7)5(1)9-6/h5-6H,1-4H2/t5-,6+,7-
