19
gdb 79026	4.66212	1.36309	1.30146	2.9387	79.03	-0.21	0.0727	0.2827	1034.0562	0.161767	-381.960378	-381.953576	-381.952632	-381.991183	28.544	
C	-0.1492319429	 1.5732787572	 0.0943705978	-0.43526
C	 0.0336177528	 0.0717852126	-0.0184504165	 0.080496
C	 0.8056920448	-0.6043461736	-1.1593925292	-0.101257
C	 2.1198482453	-0.136806685	-0.4516749902	 0.000156
C	 3.1797748771	-1.2172957105	-0.612346817	-0.067201
N	 3.3715847646	-2.0338292668	 0.6137416261	-0.317341
C	 2.3645230477	-2.4270839733	-0.4047275784	-0.073746
C	 1.0007867166	-1.7984108985	-0.1676836856	 0.012455
N	 1.2187340163	-0.5608778931	 0.7390648888	-0.14625
H	 0.7233274773	 2.1441359627	-0.2314636939	 0.117781
H	-1.0018610833	 1.8918290824	-0.515156973	 0.11741
H	-0.3620278852	 1.8457714879	 1.1333724792	 0.131623
H	-0.9010604325	-0.4298856056	 0.2607516371	 0.067564
H	 0.5787021761	-0.6362401891	-2.2333669618	 0.055061
H	 2.4323073383	 0.9056117578	-0.4581322132	 0.075542
H	 3.9731891935	-1.1264967275	-1.3449316104	 0.090981
H	 4.1979922264	-2.6141704603	 0.4709588152	 0.22678
H	 2.4736656782	-3.3480227939	-0.9651467332	 0.091709
H	 0.1538802191	-2.4262785435	 0.1138092383	 0.073495
170.2619	211.5839	254.9845	336.1951	391.3258	505.1221	570.9122	662.1903	712.7823	768.3911	779.0402	807.9053	829.6215	845.0507	863.6593	900.3862	908.9804	960.0079	976.238	1009.061	1039.8232	1064.1852	1067.4561	1101.6726	1111.7524	1136.9255	1142.7559	1151.6809	1176.7946	1200.3866	1235.2596	1254.0882	1261.8398	1279.017	1349.7692	1355.0581	1403.7432	1412.686	1432.4229	1494.9321	1496.5486	3009.3786	3027.0118	3040.0036	3100.0351	3105.584	3119.9822	3139.6046	3176.9978	3187.5551	3469.0096
CC1C2C3C4NC4C2N13	C[C@H]1[C@H]2[C@@H]3[C@H]4N[C@H]4[C@H]2N13	
InChI=1S/C7H10N2/c1-2-3-6-4-5(8-4)7(3)9(2)6/h2-8H,1H3	InChI=1S/C7H10N2/c1-2-3-6-4-5(8-4)7(3)9(2)6/h2-8H,1H3/t2-,3-,4-,5+,6+,7-/m0/s1
