19
gdb 41395	2.66764	1.92316	1.37644	2.0336	79.17	-0.2377	0.0076	0.2453	975.6795	0.161543	-385.867991	-385.860949	-385.860005	-385.899409	28.519	
C	-0.0371420854	 1.5839747183	 0.0385260918	-0.231114
C	 1.5195963842	 1.5726793509	-0.0437405934	-0.320877
C	 1.5115960974	 0.0458570747	 0.1502123983	 0.289103
C	 2.4624837806	-0.9963975137	-0.4456895591	-0.155015
O	 2.604123782	-1.6754612608	 0.8233355823	-0.304359
C	 1.7942254644	-0.6666512915	 1.4922647082	 0.051347
C	 0.4497500668	-1.1370009806	 1.9812059241	-0.096101
C	-0.534540757	-0.7566052796	 1.1608925924	-0.081783
C	-0.0316684473	 0.0159958245	-0.028546664	-0.10426
H	-0.4212893738	 1.9628814438	 0.9882399166	 0.105303
H	-0.5533396269	 2.0968345661	-0.7758009158	 0.101191
H	 1.8859627605	 1.8600436115	-1.0342084058	 0.104196
H	 2.0633575604	 2.1586404594	 0.7027682244	 0.102263
H	 2.0445542999	-1.6501090955	-1.2223597284	 0.09916
H	 3.4225831855	-0.5934222131	-0.7972791205	 0.096248
H	 2.3859659527	-0.1415353048	 2.2536529412	 0.072467
H	 0.3218776217	-1.7044954524	 2.8963044656	 0.09998
H	-1.5882231241	-0.9642203264	 1.3215455937	 0.098835
H	-0.4008290516	-0.3716601809	-0.9836703316	 0.073419
95.8496	190.1968	258.5878	282.711	397.3852	442.5096	575.6304	626.2021	714.2736	739.5096	780.1821	802.4388	833.4132	879.2307	915.5097	935.3775	941.6787	968.466	978.8177	1003.1792	1017.22	1038.6625	1090.7231	1117.5622	1139.1948	1155.273	1176.8473	1190.6008	1231.3533	1239.0351	1255.9561	1277.0273	1291.9994	1305.5254	1333.5564	1359.6619	1368.6012	1476.1728	1492.5338	1516.2411	1658.6338	2995.802	3018.6053	3040.1341	3047.551	3052.7735	3067.3489	3092.8245	3123.2724	3173.3457	3204.1493
C1CC23COC2C=CC13	C1C[C@@]23CO[C@@H]2C=C[C@@H]13	
InChI=1S/C8H10O/c1-2-7-8(5-9-7)4-3-6(1)8/h1-2,6-7H,3-5H2	InChI=1S/C8H10O/c1-2-7-8(5-9-7)4-3-6(1)8/h1-2,6-7H,3-5H2/t6-,7+,8-/m0/s1
