20
gdb 55150	3.11047	1.26233	1.18205	2.3398	78.4	-0.2297	-0.0173	0.2124	1149.5818	0.17161	-403.152849	-403.144299	-403.143355	-403.186585	32.225	
C	-0.332847037	 1.2288915444	 0.2272681135	-0.475229
C	-0.1741545582	-0.2677023964	 0.0222578574	 0.375061
O	-0.306371973	-1.0474063812	 0.940064616	-0.304132
C	 0.1547695679	-0.7100078409	-1.4011770983	-0.115861
C	 0.7662508652	-2.1264961337	-1.5075638072	-0.249457
C	-0.3396174929	-3.0043096764	-2.0762382135	-0.012784
C	-1.6443512858	-3.0065945573	-1.3689740913	-0.257062
N	-1.4566097589	-2.1821819577	-2.5758411635	-0.089737
C	-1.1336191915	-0.7790722564	-2.3062487062	-0.179231
H	 0.6455076307	 1.7141228017	 0.1261407186	 0.143711
H	-0.9824290771	 1.6682028968	-0.5371563229	 0.139077
H	-0.7326282989	 1.4306870578	 1.2215249272	 0.143283
H	 0.8297301177	 0.0428023506	-1.8202700739	 0.086593
H	 1.6225086714	-2.1191274586	-2.1885968229	 0.101502
H	 1.1103958511	-2.4788734292	-0.531955723	 0.129814
H	-0.0523321745	-3.8539035742	-2.6893819464	 0.088275
H	-2.3318622439	-3.8367826604	-1.5028018954	 0.112787
H	-1.6900008981	-2.5240224493	-0.3974174822	 0.140844
H	-1.9953123556	-0.271186828	-1.8595834349	 0.110224
H	-0.9297893687	-0.2939753415	-3.2658459411	 0.112322
46.2098	117.8923	134.3793	195.3977	261.0532	307.0591	363.4081	408.5371	567.3165	577.6056	676.9527	718.052	738.148	758.6469	846.0355	877.4982	922.0526	925.9058	955.5013	983.6559	1020.3775	1031.7027	1073.3589	1108.7091	1111.3464	1119.3735	1172.6999	1186.8565	1214.6132	1228.575	1252.4479	1287.7496	1323.6339	1336.3967	1367.8838	1383.6686	1395.8452	1463.1182	1476.6486	1480.8191	1498.0759	1515.4519	1799.9806	3034.6167	3039.1034	3049.8749	3062.9333	3082.0409	3096.3802	3107.794	3116.7591	3146.2851	3153.3044	3208.4686
CC(=O)C1CC2CN2C1	CC(=O)[C@H]1C[C@H]2CN2C1	
InChI=1S/C7H11NO/c1-5(9)6-2-7-4-8(7)3-6/h6-7H,2-4H2,1H3	InChI=1S/C7H11NO/c1-5(9)6-2-7-4-8(7)3-6/h6-7H,2-4H2,1H3/t6-,7-,8?/m0/s1
