19
gdb 66611	2.87825	1.93168	1.84205	1.5551	76.49	-0.244	0.1	0.344	878.4363	0.162261	-385.872434	-385.866019	-385.865075	-385.902775	27.66	
C	 0.0219481032	 1.4633454805	 0.0089408345	-0.520324
C	 0.0097642101	-0.0403040533	 0.0051936951	 0.363184
C	 0.1313635133	-0.8850378798	 1.2679709365	-0.132934
C	 1.2502943375	-0.8757750909	 0.2514251757	-0.136214
C	 0.7352109208	-2.1808801178	-0.3763929403	 0.059465
O	 0.0892747077	-1.8021341041	-1.5848386628	-0.253318
C	-0.8481981318	-0.8766835228	-1.0053982629	-0.010021
C	-1.6586948215	-1.8134091815	-0.0866302273	-0.216602
C	-0.4239669357	-2.2191542043	 0.7303636106	-0.090475
H	 0.6923641748	 1.8499184857	 0.7836415342	 0.119646
H	 0.362685874	 1.8617825947	-0.9534688343	 0.124184
H	-0.9757436492	 1.8729825923	 0.2052524548	 0.118313
H	 0.0950834387	-0.4930927821	 2.2767851163	 0.080791
H	 2.2588019335	-0.4832863604	 0.294022584	 0.083131
H	 1.3884887181	-3.0374782141	-0.5238240067	 0.077738
H	-1.3651411123	-0.3229366851	-1.7873608935	 0.069962
H	-2.4034754253	-1.2924044898	 0.5224179099	 0.094202
H	-2.1270727196	-2.6254724955	-0.6482869495	 0.10042
H	-0.4750493863	-3.0824560616	 1.3896832857	 0.068852
205.6893	217.2922	274.7542	442.3471	531.0058	550.6039	606.6539	673.2798	702.5941	789.5663	799.352	816.3817	873.2964	880.3206	901.265	918.3088	925.4504	934.608	963.6845	972.5467	991.819	1027.7413	1034.0577	1066.7326	1097.7264	1119.5796	1151.0601	1170.8771	1198.5061	1209.5791	1238.3615	1254.4876	1269.7366	1286.7101	1310.4098	1335.1149	1408.3436	1422.178	1476.1376	1490.6948	1499.8684	3022.7276	3057.457	3081.4477	3094.8177	3116.9173	3138.7685	3143.6559	3153.5803	3181.6749	3194.4058
CC12C3C1C1OC2CC31	C[C@]12[C@@H]3[C@H]1[C@@H]1O[C@H]2C[C@H]31	
InChI=1S/C8H10O/c1-8-4-2-3-5(8)6(8)7(3)9-4/h3-7H,2H2,1H3	InChI=1S/C8H10O/c1-8-4-2-3-5(8)6(8)7(3)9-4/h3-7H,2H2,1H3/t3-,4+,5+,6+,7-,8+/m1/s1
