26
gdb 5989	3.67654	0.97154	0.94726	0.0047	88.78	-0.2934	0.0757	0.3692	1450.1416	0.244181	-315.490873	-315.479782	-315.478838	-315.526768	40.882	
C	-0.1444643887	 1.6626815277	 0.0124794137	-0.375254
C	 0.0281081651	 0.1397954703	 0.0025115804	-0.192747
C	-1.3201448531	-0.5933389143	 0.0115112531	-0.165001
C	-1.3009491115	-2.1456584001	 0.0029294603	 0.264613
C	-0.5982944661	-2.6646224101	-1.2657344702	-0.409666
C	-0.5740758167	-2.6782279721	 1.2521620139	-0.409664
C	-2.786923709	-2.5980122849	 0.0147858897	-0.172728
C	-3.0640506443	-4.1057092456	 0.009394793	-0.40509
H	 0.8228859629	 2.1749267799	 0.0059114908	 0.108465
H	-0.7078935691	 2.0032089997	-0.8635545409	 0.112268
H	-0.6908057409	 1.9935845166	 0.9029067799	 0.112269
H	 0.6089570039	-0.1478333881	-0.8816838329	 0.096871
H	 0.6258815225	-0.1573981404	 0.8721440489	 0.096871
H	-1.8859771097	-0.264241625	 0.8947937285	 0.08402
H	-1.9028212529	-0.2547580576	-0.8571143335	 0.08402
H	 0.4464236442	-2.3423926922	-1.3060674911	 0.111178
H	-0.5970864769	-3.7580898815	-1.3048194066	 0.110272
H	-1.0959876407	-2.2984085657	-2.1712955147	 0.10458
H	-1.0542510351	-2.3219094694	 2.1710312127	 0.104579
H	-0.572188909	-3.7720546965	 1.279372881	 0.110272
H	 0.4712479092	-2.3563100637	 1.2759035167	 0.111178
H	-3.2678402917	-2.1565770125	 0.8978352551	 0.087467
H	-3.2846665558	-2.1472173478	-0.8540975469	 0.087467
H	-4.1433572524	-4.2894404461	 0.0187444577	 0.111091
H	-2.6603446136	-4.5967608561	-0.8811254171	 0.116333
H	-2.6434236704	-4.6061942047	 0.8867339587	 0.116334
51.6466	80.6465	103.5598	150.972	204.3386	242.536	252.9913	278.9394	291.0034	318.458	327.2191	359.9956	409.0776	409.52	542.0012	728.3589	742.407	780.4091	848.3009	866.0896	923.7951	941.2941	959.9176	994.2356	1019.6324	1026.4087	1054.1036	1066.9311	1117.7432	1123.0518	1210.7871	1233.1094	1257.1392	1278.7432	1319.6764	1325.1442	1364.3034	1364.924	1393.0755	1397.1304	1408.4241	1412.3949	1423.1642	1471.2502	1482.9005	1483.7998	1490.6344	1492.8182	1499.1981	1505.8729	1508.4186	1509.7163	1511.9691	1518.1938	2994.8968	3008.8126	3026.6078	3026.923	3027.192	3029.892	3033.9061	3040.4437	3042.5842	3064.1303	3094.4153	3095.6184	3096.001	3099.222	3101.0961	3102.0255	3108.0639	3112.9833
CCCC(C)(C)CC	CCCC(C)(C)CC	
InChI=1S/C8H18/c1-5-7-8(3,4)6-2/h5-7H2,1-4H3	InChI=1S/C8H18/c1-5-7-8(3,4)6-2/h5-7H2,1-4H3
