12
gdb 5144	5.93932	1.36332	1.21731	3.585	59.7	-0.2612	-0.0189	0.2423	934.9598	0.085402	-377.564435	-377.55783	-377.556886	-377.596274	23.092	
N	-0.0725599625	-1.1064597872	 0.4177828338	-0.295554
C	-0.0207810741	 0.0198084273	 0.1691196909	 0.266958
C	 0.035447131	 1.4505755261	-0.1421061581	-0.432391
C	 1.4279468286	 1.9986752123	-0.1562537615	 0.399898
N	 2.0275922265	 2.5964564199	-1.1336100813	-0.294689
C	 3.2775350814	 2.9239558633	-0.6191573321	-0.109442
C	 3.355109231	 2.4920814646	 0.6601113665	-0.032787
O	 2.1657052532	 1.8943241283	 0.9737839863	-0.162681
H	-0.3960926356	 1.6277305621	-1.1304294149	 0.191541
H	-0.5795384687	 1.9885424293	 0.5897807897	 0.177402
H	 4.0175357007	 3.4395964777	-1.2093988498	 0.135027
H	 4.1016020785	 2.5126738064	 1.4347567904	 0.156719
43.5114	108.6606	275.5123	328.2685	376.7022	484.4029	631.0432	683.2701	773.3652	792.5299	870.4138	916.9671	933.7516	940.8964	979.1494	1106.3996	1135.517	1165.5003	1213.1938	1275.6047	1331.0294	1391.2092	1446.6726	1552.2986	1622.5665	2372.1531	3044.1263	3115.932	3270.6204	3305.7225
N#CCC1=NC=CO1	N#CCc1ncco1	
InChI=1S/C5H4N2O/c6-2-1-5-7-3-4-8-5/h3-4H,1H2	InChI=1S/C5H4N2O/c6-2-1-5-7-3-4-8-5/h3-4H,1H2
