16
gdb 80107	2.73135	1.53927	1.25661	3.975	73.97	-0.2629	-0.0256	0.2374	1025.2253	0.12535	-396.924938	-396.917165	-396.916221	-396.957081	29.273	
C	-0.0836662928	 1.5467182753	-0.0175642777	-0.431634
C	 0.0052570317	 0.0428918185	 0.066883726	-0.030818
N	 1.2474185846	-0.7342221488	-0.2117770776	-0.161629
C	 2.4428554419	 0.0392257886	-0.0797333854	 0.039634
N	 2.7853474275	 0.4785821926	 1.0613832321	-0.187174
C	 1.7463116836	 0.0764711956	 2.0195797944	-0.246542
C	 0.6978715005	-0.6784097373	 1.1810836434	 0.137504
C	 0.1223354259	-1.8812439504	 1.7243585344	 0.229533
N	-0.3546451996	-2.8201356283	 2.2016621844	-0.333136
H	 0.8017424064	 2.0521254782	 0.3718241611	 0.149256
H	-0.2243794399	 1.8562624274	-1.0579578755	 0.141052
H	-0.9544415345	 1.888261746	 0.5511231991	 0.141832
H	-0.8601342323	-0.4726667722	-0.34231609	 0.126945
H	 3.033080544	 0.1945007713	-0.9777461309	 0.142394
H	 2.175025298	-0.5759205171	 2.7861320476	 0.148302
H	 1.344608515	 0.9595925006	 2.5276836747	 0.13448
136.5341	166.2961	180.7651	222.1299	234.9623	373.1154	452.4944	495.2253	551.8391	569.1968	586.148	708.3961	783.5459	845.4907	893.7061	950.3679	959.2643	983.9881	1007.8348	1033.2575	1075.4345	1128.936	1159.8028	1207.3005	1223.3356	1300.5681	1320.3163	1338.2964	1411.0207	1428.3621	1481.9872	1495.9024	1502.1366	1683.2932	2357.3121	3046.1958	3052.0237	3091.581	3107.8661	3132.2502	3149.3577	3194.6372
CC1N2C=NCC12C#N	C[C@H]1N2C=NC[C@@]12C#N	
InChI=1S/C6H7N3/c1-5-6(2-7)3-8-4-9(5)6/h4-5H,3H2,1H3	InChI=1S/C6H7N3/c1-5-6(2-7)3-8-4-9(5)6/h4-5H,3H2,1H3/t5-,6+,9?/m1/s1
