21
gdb 118814	3.74344	0.72056	0.6907	4.3824	81.51	-0.2438	-0.017	0.2267	1678.7393	0.179939	-424.222007	-424.211623	-424.210679	-424.257819	37.327	
C	 0.0019639475	 1.7241421289	 0.0961014313	-0.47054
C	-0.0668094774	 0.2063336956	 0.0413795484	 0.326961
C	-1.3889919385	-0.3622740152	-0.4569331306	-0.241041
C	-1.7077287605	-0.0209337211	-1.9118155418	-0.076954
O	-2.8928393436	-0.7229248691	-2.2540910566	-0.417961
C	 1.1762317732	-0.5653338272	-0.2662362583	-0.334086
C	 0.6038755513	-0.6236131517	 1.1481942289	-0.146031
C	 1.3614491524	-0.0085531217	 2.2588648247	 0.155879
O	 1.3448185046	-0.4126922118	 3.396671922	-0.270949
H	 0.9718981819	 2.0843010059	 0.4456463664	 0.121572
H	-0.160543363	 2.1544738918	-0.8974077424	 0.12413
H	-0.7670889208	 2.1289626987	 0.7632196037	 0.128089
H	-1.3776740841	-1.4545825467	-0.3732353349	 0.111293
H	-2.2120045962	-0.0081992874	 0.1756096456	 0.111814
H	-1.844262349	 1.0642292041	-2.0336693829	 0.08889
H	-0.8637105737	-0.3191607847	-2.5549324221	 0.087981
H	-3.1356967532	-0.4848215108	-3.1534568835	 0.287241
H	 1.1094053343	-1.4726792274	-0.8568116902	 0.125384
H	 2.1035241032	-0.0149034035	-0.3957588537	 0.119359
H	 0.0858062871	-1.5307250333	 1.4412888116	 0.105296
H	 1.9883777045	 0.8684181065	 1.9776992042	 0.063674
70.7979	85.0394	109.4025	112.9944	196.8386	235.55	261.0776	286.8493	308.5323	353.5088	389.987	414.0647	470.516	557.9661	722.6079	800.7217	840.5083	872.293	944.6162	960.7209	988.1396	1010.4011	1046.1946	1066.7097	1076.9597	1082.2133	1101.4043	1122.3164	1189.2172	1222.0753	1245.1253	1257.1605	1304.5651	1343.9737	1348.2075	1383.7548	1422.2597	1449.3111	1462.9093	1481.1138	1489.8371	1499.7956	1510.3554	1529.8871	1811.6387	2863.7168	2968.089	2999.5214	3034.4689	3038.6786	3080.2144	3096.4865	3121.4986	3126.3711	3171.0408	3212.3693	3831.3023
CC1(CCO)CC1C=O	C[C@@]1(CCO)C[C@H]1C=O	
InChI=1S/C7H12O2/c1-7(2-3-8)4-6(7)5-9/h5-6,8H,2-4H2,1H3	InChI=1S/C7H12O2/c1-7(2-3-8)4-6(7)5-9/h5-6,8H,2-4H2,1H3/t6-,7+/m0/s1
