20
gdb 111594	4.22393	1.23139	1.15079	1.2093	78.14	-0.2139	0.076	0.2898	1141.0494	0.17236	-403.082393	-403.074974	-403.07403	-403.114261	30.043	
C	 0.1135118197	 1.6348634235	 0.0617004887	-0.382552
C	 0.0330811206	 0.1102720993	 0.0268086118	-0.120105
N	 0.6273691145	-0.4225815435	-1.200915634	-0.104506
C	-0.2792120222	-0.3932287211	-2.4062077737	-0.070174
C	 0.7088827571	-0.8927971591	-3.4740176562	-0.202564
C	 0.8222369348	-2.2819180513	-2.8145637918	 0.049503
O	-0.5360388608	-2.7881642209	-2.9931260593	-0.294958
C	-0.8941218879	-1.8301318557	-1.997386143	 0.092444
C	 0.483752244	-1.8894678515	-1.314040243	-0.044301
H	 1.150987304	 1.9636794944	-0.0445965895	 0.126189
H	-0.4666934842	 2.0849588735	-0.7505411148	 0.116056
H	-0.2832034711	 2.0205393148	 1.0059776428	 0.111718
H	 0.603622085	-0.3036181318	 0.8675242607	 0.099471
H	-1.0151575929	-0.2095114815	 0.1752363743	 0.078924
H	-0.8701172227	 0.5033282068	-2.5817717294	 0.074322
H	 0.300134109	-0.983138963	-4.4818553324	 0.105493
H	 1.6248949614	-0.3011705457	-3.4672149238	 0.10946
H	 1.5988378576	-2.9847031372	-3.109648351	 0.084966
H	-1.8899164744	-1.9424238882	-1.5732590621	 0.090782
H	 0.7824629281	-2.5380055318	-0.4912846942	 0.079832
96.9123	157.3099	200.4956	285.4514	382.5775	430.6998	502.8936	533.4993	698.1961	725.9427	762.5975	797.823	820.9601	844.8834	856.956	911.6559	925.3239	949.7921	960.6618	976.7805	996.2415	1022.8763	1033.1539	1097.5895	1112.6932	1128.3039	1153.0757	1163.087	1177.5425	1187.5673	1217.1648	1229.7949	1274.0073	1292.4613	1309.7988	1317.4894	1341.0021	1392.3915	1411.5759	1464.3897	1489.5405	1492.4913	1511.2279	2928.2706	3038.0521	3040.5969	3083.7161	3105.3131	3119.6416	3125.5035	3137.4648	3143.3492	3148.6379	3149.9741
CCN1C2CC3OC2C13	CCN1[C@H]2C[C@@H]3O[C@H]2[C@H]13	
InChI=1S/C7H11NO/c1-2-8-4-3-5-6(8)7(4)9-5/h4-7H,2-3H2,1H3	InChI=1S/C7H11NO/c1-2-8-4-3-5-6(8)7(4)9-5/h4-7H,2-3H2,1H3/t4-,5-,6+,7+/m0/s1
