18
gdb 98377	2.5979	1.20607	0.83195	1.0722	78.35	-0.2605	-0.0217	0.2388	1362.7286	0.146948	-435.303123	-435.293431	-435.292487	-435.338632	34.103	
C	 0.1853536558	 1.3839509271	 0.2069944541	-0.387099
C	 0.1820978589	-0.1356945487	 0.0510520982	-0.27665
C	 0.7599182829	-0.5630690322	-1.2780046061	 0.431762
O	 1.1642552667	 0.2365658385	-2.092533403	-0.335188
N	 0.8321844396	-1.9616460714	-1.5849647375	-0.165273
C	 1.3856932186	-2.2864952628	-2.8454352238	 0.106107
N	 1.5061098727	-3.4859856366	-3.2390127865	-0.471563
C	 0.417918051	-3.0371234206	-0.7802522975	 0.10302
N	-0.097960748	-2.9155870313	 0.3728504497	-0.46285
H	 1.1989964815	 1.7875313357	 0.1456674781	 0.129624
H	-0.4046096264	 1.8650839901	-0.5769329839	 0.129686
H	-0.238594001	 1.6570881518	 1.1771905016	 0.111576
H	 0.7413401971	-0.6309345011	 0.8507270923	 0.148375
H	-0.8241922377	-0.5551636589	 0.145561733	 0.14852
H	 1.6727902707	-1.3879200539	-3.386356223	 0.156692
H	 1.924179099	-3.5070038799	-4.1668625161	 0.238817
H	 0.6088058332	-3.9762475155	-1.2998470915	 0.158205
H	-0.3089228947	-3.8407924003	 0.7435374418	 0.236239
31.5722	109.537	115.2054	168.7645	202.033	216.9953	277.3743	288.3488	335.1343	380.4823	476.8772	563.6939	633.8054	704.4015	779.3263	806.0903	829.1641	850.2043	973.1797	1029.5542	1092.0124	1097.5484	1100.9657	1105.8478	1146.2403	1172.8696	1280.1897	1293.945	1357.6516	1391.3262	1406.7987	1416.2598	1421.6874	1435.5014	1493.1407	1499.2636	1711.8211	1735.9303	1790.0928	3052.8745	3069.9508	3093.2093	3124.7822	3130.61	3134.789	3168.4	3496.6654	3510.5049
CCC(=O)N(C=N)C=N	CCC(=O)N(C=N)C=N	
InChI=1S/C5H9N3O/c1-2-5(9)8(3-6)4-7/h3-4,6-7H,2H2,1H3	InChI=1S/C5H9N3O/c1-2-5(9)8(3-6)4-7/h3-4,6-7H,2H2,1H3
