19
gdb 79277	2.86348	1.62178	1.46019	3.3076	77.8	-0.2297	-0.003	0.2267	988.4403	0.162007	-385.924439	-385.917315	-385.916371	-385.955694	29.212	
C	-0.1459959847	 1.5652395041	-0.0225948	-0.420293
C	 0.0268104032	 0.0480547957	 0.0140441448	 0.019465
C	 0.9293285011	-0.5250365823	-1.087718353	-0.060992
C	 2.3230663204	-0.6265703479	-0.5375652068	-0.057205
C	 2.2892133566	-0.1239653151	 0.9082011707	-0.24226
C	 0.8289217428	-0.5384963371	 1.2150327322	-0.173006
C	 0.8825819611	-2.0207893701	 0.7826430164	 0.444835
O	 0.5536579415	-3.005533094	 1.388237814	-0.34931
C	 1.4465077865	-1.8800144749	-0.6001951084	-0.189556
H	 0.8127943764	 2.0911716911	-0.006740559	 0.120761
H	-0.6697707973	 1.8677031872	-0.9361180502	 0.117434
H	-0.7384393569	 1.913720219	 0.8296711108	 0.118829
H	-0.9647830073	-0.421093743	-0.0209627332	 0.083598
H	 0.7365544558	-0.3592247904	-2.140168726	 0.092554
H	 3.1983709474	-0.5424517929	-1.1678955374	 0.094769
H	 3.0053910713	-0.6418951686	 1.5544454593	 0.111214
H	 2.4672492153	 0.951651535	 0.9916946995	 0.104722
H	 0.4435076279	-0.35836038	 2.2154842584	 0.080908
H	 1.6442404988	-2.7162990659	-1.2548258621	 0.103533
142.115	194.5953	234.7736	277.2527	395.8695	463.5245	511.5176	575.291	673.2736	712.3122	781.0322	798.933	818.5932	840.6424	867.7055	884.7816	925.5824	941.9757	963.6281	986.1395	1028.3893	1061.7801	1071.5078	1074.8773	1090.5364	1126.9001	1142.1516	1164.0105	1202.4363	1232.6235	1276.5626	1284.5561	1295.3012	1326.8033	1373.4087	1390.878	1412.0939	1493.3317	1496.3612	1513.2245	1865.4335	3024.029	3034.9258	3052.1433	3094.4266	3096.8347	3114.8997	3155.4899	3193.3478	3205.0409	3229.0549
CC1C2C3CC1C(=O)C23	C[C@H]1[C@H]2[C@H]3C[C@@H]1C(=O)[C@@H]23	
InChI=1S/C8H10O/c1-3-4-2-5-6(3)7(5)8(4)9/h3-7H,2H2,1H3	InChI=1S/C8H10O/c1-3-4-2-5-6(3)7(5)8(4)9/h3-7H,2H2,1H3/t3-,4+,5-,6+,7-/m1/s1
