23
gdb 117816	2.46911	0.96549	0.85674	2.8513	82.21	-0.2411	-0.0174	0.2237	1506.7978	0.2019	-425.438964	-425.42738	-425.426436	-425.476324	40.819	
C	 0.0197664758	 1.6561130103	 0.0329126225	-0.378336
C	 0.1118334964	 0.1331967985	-0.1013788696	-0.190455
C	 0.6817584597	-0.5239783649	 1.1625409645	-0.198627
C	 0.7421082403	-2.064932192	 1.1522195607	 0.139196
C	 1.4786530934	-2.6411131486	-0.0706853305	-0.4378
C	 1.4609746201	-2.5198703533	 2.4426286452	-0.099173
O	 1.4351864799	-3.9387205857	 2.5100405699	-0.429866
C	-0.6661749476	-2.6650057547	 1.2096646509	 0.170208
O	-1.6509145512	-2.0678002708	 1.5654763467	-0.27145
H	 1.0045842327	 2.0995585837	 0.219707221	 0.10961
H	-0.382352525	 2.1116458141	-0.8773262994	 0.110754
H	-0.6338896059	 1.9402346743	 0.8647744804	 0.119414
H	-0.8846888002	-0.2740615342	-0.3037124993	 0.114234
H	 0.7359050353	-0.1137006803	-0.9684064088	 0.094382
H	 1.695264524	-0.1387126946	 1.3400327017	 0.084576
H	 0.0714773313	-0.2160243201	 2.0190197943	 0.110794
H	 2.4736545287	-2.1922174983	-0.1602004594	 0.116052
H	 1.6039309412	-3.7214903906	 0.0335042905	 0.138914
H	 0.9379060439	-2.4449408889	-1.000695363	 0.12202
H	 2.4949408974	-2.1397206641	 2.4211145928	 0.091507
H	 0.9548716652	-2.0724342457	 3.3109723669	 0.101573
H	 1.8466454833	-4.2118213011	 3.3347169485	 0.292957
H	-0.726491929	-3.7316313129	 0.9048069636	 0.089514
44.9584	69.9094	90.5002	118.2158	147.9141	222.3335	236.3032	247.2063	262.9482	274.9387	314.7247	336.0448	353.9334	392.7566	534.7181	602.2701	739.3656	793.3529	861.506	894.4138	908.8735	936.9435	958.8939	1012.0313	1050.8421	1066.1071	1099.5185	1115.0054	1178.061	1196.1127	1213.7231	1264.0689	1284.524	1309.5206	1327.6426	1353.6704	1396.5559	1399.6265	1412.7023	1426.6787	1451.4429	1471.0246	1491.0029	1494.1142	1500.7883	1505.0281	1508.2435	1519.4039	1821.4484	2903.4924	2967.4515	3010.5141	3012.7215	3028.6629	3033.2221	3040.9036	3061.9863	3076.9447	3099.6802	3103.2675	3107.7734	3127.7121	3837.7769
CCCC(C)(CO)C=O	CCC[C@@](C)(CO)C=O	
InChI=1S/C7H14O2/c1-3-4-7(2,5-8)6-9/h5,9H,3-4,6H2,1-2H3	InChI=1S/C7H14O2/c1-3-4-7(2,5-8)6-9/h5,9H,3-4,6H2,1-2H3/t7-/m1/s1
