14
gdb 69025	2.77089	1.41356	1.17791	3.4933	70.84	-0.2404	-0.0164	0.2239	1051.8544	0.099297	-436.639041	-436.630902	-436.629958	-436.671609	30.82	
N	-0.1072464421	 1.4834356764	-0.2156909042	-0.591628
C	-0.0285694293	 0.0893740518	-0.0596184703	 0.051233
C	-0.2770999782	-0.8537187415	-1.2369389137	-0.360232
C	-1.1332608423	-0.9909236425	-0.0232210826	 0.263172
O	-0.3725720193	-1.748704023	 0.972064196	-0.291079
C	 0.5756274983	-0.7349171527	 1.0602662028	 0.417149
O	 1.4645786336	-0.6407231575	 1.8410638436	-0.325768
C	-2.5375088713	-0.9046351872	 0.0963621348	 0.242809
C	-3.7334561231	-0.8247630432	 0.1934021214	-0.405529
H	-0.1541700379	 1.9652577448	 0.6748988578	 0.254033
H	 0.6767316367	 1.8526259567	-0.7423743392	 0.251307
H	-0.7391063758	-0.3522808457	-2.0814535141	 0.151311
H	 0.4248229703	-1.6463985931	-1.4750633161	 0.139837
H	-4.7902086095	-0.7590607032	 0.281438694	 0.203385
105.4172	121.2569	190.5094	275.6878	287.1352	337.4845	419.3211	472.0737	515.8703	566.1293	583.8259	652.7789	677.1925	702.5014	710.0262	748.4816	792.6882	848.6013	923.4165	970.4846	1012.219	1080.0773	1108.7923	1153.6257	1269.8932	1353.2399	1410.7711	1486.1503	1664.6095	1939.7416	2240.8469	3127.494	3226.847	3498.3205	3516.0943	3596.6248
NC12CC1(OC2=O)C#C	N[C@]12C[C@]1(OC2=O)C#C	
InChI=1S/C6H5NO2/c1-2-5-3-6(5,7)4(8)9-5/h1H,3,7H2	InChI=1S/C6H5NO2/c1-2-5-3-6(5,7)4(8)9-5/h1H,3,7H2/t5-,6+/m1/s1
