14
gdb 49367	2.02269	1.80679	1.46595	4.7508	64.8	-0.2612	-0.0581	0.203	951.7494	0.097654	-473.815583	-473.806998	-473.806054	-473.849457	29.277	
O	-0.379715372	 0.6364403846	 0.8093643779	-0.231768
C	 0.4323546883	 0.8348990824	-0.0570231118	 0.147945
C	 1.3426595258	 2.0398905694	-0.08276884	-0.09722
C	 1.469630903	 2.92059651	 1.1402813927	-0.137675
C	 0.7107629801	 2.6176127676	 2.4088584601	 0.167365
O	 1.1296433332	 1.8943037909	 3.2736426274	-0.242007
N	 2.5520210369	 2.0622049736	 0.7233876704	-0.085581
C	 3.024840924	 0.9267595671	 1.3908432525	 0.162238
O	 2.9179673329	-0.1881423805	 0.9455814031	-0.291475
H	 0.5377553875	 0.1597072908	-0.9278015164	 0.11807
H	 1.4585509466	 2.4909849413	-1.0679639109	 0.124763
H	 1.6110044508	 3.9883096505	 0.9661554378	 0.131311
H	-0.238309957	 3.180505236	 2.5149042232	 0.107798
H	 3.5845314401	 1.1844544163	 2.301220014	 0.126237
74.0027	102.4331	142.1262	158.8887	165.0404	256.6805	333.3939	368.865	399.5148	612.7396	723.6487	748.1337	802.0881	818.1637	876.8261	988.6807	1006.8257	1020.8083	1034.6204	1088.505	1098.2195	1141.607	1329.2417	1355.7413	1397.8454	1405.9604	1410.3159	1425.343	1785.603	1813.4207	1830.395	2933.7059	2952.863	3041.6595	3103.091	3118.2171
O=CC1C(C=O)N1C=O	O=C[C@H]1[C@@H](C=O)N1C=O	
InChI=1S/C5H5NO3/c7-1-4-5(2-8)6(4)3-9/h1-5H	InChI=1S/C5H5NO3/c7-1-4-5(2-8)6(4)3-9/h1-5H/t4-,5+,6?
