17
gdb 69636	3.83516	1.15157	1.12477	4.1263	74.47	-0.2383	-0.0428	0.1955	1145.2511	0.13326	-421.757455	-421.749251	-421.748307	-421.790159	31.103	
C	 0.0539869318	 1.511115396	-0.0938644335	-0.495608
C	 0.0305281414	 0.0150731527	 0.0085670314	 0.308274
C	-0.9300568743	-0.7940660364	 0.8398871017	-0.333311
C	 0.5486256966	-0.9074406169	 1.1068471008	-0.198763
C	 1.2532878965	-1.7905542479	 0.0294874273	 0.317425
O	 0.2925480137	-2.2432178299	-0.932365555	-0.249574
C	 0.7349982642	-0.9051963674	-1.0421156174	-0.083831
C	 2.5728195863	-2.4478514404	 0.1159176305	 0.054211
O	 3.0218921405	-3.2050554862	-0.7076061811	-0.257221
H	 1.0581690727	 1.8827761726	-0.3294017796	 0.122464
H	-0.6248663141	 1.8674258637	-0.8779728425	 0.128527
H	-0.2571039373	 1.9713020564	 0.8490117928	 0.12646
H	-1.4740068169	-0.2140700621	 1.5790530842	 0.117124
H	-1.4748819239	-1.6275992213	 0.4146594888	 0.140668
H	 1.0157835179	-0.6382379475	 2.0455615759	 0.100813
H	 1.2090072535	-0.6004027841	-1.9689762361	 0.125329
H	 3.1490017813	-2.1584352611	 1.0239168518	 0.077012
89.9014	150.6354	189.0347	213.3162	272.2429	301.155	387.8729	430.1649	482.0389	550.1799	644.8944	744.3266	787.7099	799.8962	850.8801	865.1029	913.0202	931.9857	967.6409	993.3116	1016.8992	1042.9825	1073.2559	1100.2251	1118.0485	1125.0005	1196.4764	1239.5951	1289.329	1362.696	1407.2384	1423.4168	1432.8074	1479.152	1485.2189	1499.2293	1811.7344	2874.6087	3021.6078	3078.2761	3102.1194	3138.7786	3182.4202	3197.161	3230.8182
CC12CC1C1(OC21)C=O	C[C@]12C[C@H]1[C@]1(O[C@@H]21)C=O	
InChI=1S/C7H8O2/c1-6-2-4(6)7(3-8)5(6)9-7/h3-5H,2H2,1H3	InChI=1S/C7H8O2/c1-6-2-4(6)7(3-8)5(6)9-7/h3-5H,2H2,1H3/t4-,5+,6+,7-/m1/s1
