15
gdb 16589	3.35397	1.89599	1.54658	1.7107	61.99	-0.2342	-0.0294	0.2048	849.2583	0.117394	-399.750745	-399.74303	-399.742086	-399.782868	28.029	
C	-0.1304409714	 1.5245330887	 0.0236183741	-0.321042
N	 0.1027624427	 0.086413008	-0.1054054489	-0.077734
C	 0.6710285656	-0.5381061801	-1.2564258947	-0.059234
C	 1.4053193613	-0.5283058821	 0.1022798623	-0.181542
C	 2.5076852293	 0.2378059418	-0.5777649266	 0.362666
O	 3.6741646329	 0.4050424766	-0.3474035373	-0.324115
C	 1.7359020492	 0.3447586488	-1.9317936109	 0.010885
O	 2.4442771262	-0.3276941815	-2.9454484587	-0.440297
H	 0.6743761388	 2.1718452083	-0.3460160699	 0.122488
H	-1.0502324272	 1.7716777488	-0.5142874121	 0.135575
H	-0.2862360877	 1.745417621	 1.0829118601	 0.137895
H	 0.1845614767	-1.3884482311	-1.7203760995	 0.125342
H	 1.5162459945	-1.2927671719	 0.8637005884	 0.119067
H	 1.3907201288	 1.3310213167	-2.2652219571	 0.089786
H	 3.3757543602	-0.0948983219	-2.8447941591	 0.30026
76.6728	146.9802	205.6797	211.5797	286.8289	342.6384	379.9784	464.5234	552.0527	644.3145	706.5824	766.9048	864.2856	903.3707	935.6754	962.0704	987.0116	1058.2109	1114.2234	1118.1857	1159.8513	1167.6172	1182.3244	1234.2096	1258.5304	1331.1481	1368.7538	1383.0413	1455.8934	1493.3918	1502.3908	1863.1344	3015.8054	3027.5456	3091.6157	3119.9673	3176.3414	3190.6305	3780.1128
CN1C2C1C(=O)C2O	CN1[C@@H]2[C@H]1C(=O)[C@H]2O	
InChI=1S/C5H7NO2/c1-6-2-3(6)5(8)4(2)7/h2-4,7H,1H3	InChI=1S/C5H7NO2/c1-6-2-3(6)5(8)4(2)7/h2-4,7H,1H3/t2-,3+,4+,6?/m1/s1
