15
gdb 25636	3.6867	0.97384	0.7748	3.0441	81.93	-0.1928	0.0112	0.2041	1423.6373	0.112644	-416.819505	-416.810659	-416.809715	-416.85441	31.094	
C	-0.0467170258	 1.4710683311	-0.0011701311	-0.511543
C	-0.0144730171	 0.0172596133	-0.0255060719	 0.250663
C	-0.0083523517	-1.1902236066	-0.0520338371	-0.169906
C	 0.039147197	-2.5986866885	-0.0764877986	 0.071607
C	 1.1572091308	-3.3912852908	-0.021143418	 0.270507
N	 2.5059307808	-3.1277255541	-0.0127720366	-0.605172
O	 0.7727195307	-4.6894360172	-0.0628138476	-0.169816
C	-0.5978712672	-4.6318525053	-0.1443495884	 0.039025
N	-1.0806773201	-3.4437756275	-0.1619540658	-0.300984
H	 0.6036233215	 1.9021616816	-0.771097675	 0.146477
H	-1.0624520041	 1.8378089783	-0.1861757844	 0.156016
H	 0.2754041701	 1.8691692592	 0.9681827325	 0.145045
H	 2.7059505978	-2.1630469005	 0.2147917557	 0.267869
H	 3.0547997317	-3.7723357508	 0.5408142593	 0.263109
H	-1.1111599045	-5.5787863822	-0.1777654631	 0.147103
28.9869	81.1331	108.8432	228.5611	260.1504	279.4624	304.7951	388.8846	475.4668	491.4484	566.9048	627.742	674.4206	731.0918	756.3272	781.4087	942.5962	984.4047	1046.0096	1052.3446	1053.656	1090.4751	1158.7268	1276.1588	1347.3956	1412.874	1458.3085	1474.3241	1478.986	1577.4567	1611.7121	1674.5014	2351.8965	3021.4019	3076.9059	3087.2777	3285.4196	3546.7533	3649.6252
CC#CC1=C(N)OC=N1	CC#Cc1c(N)ocn1	
InChI=1S/C6H6N2O/c1-2-3-5-6(7)9-4-8-5/h4H,7H2,1H3	InChI=1S/C6H6N2O/c1-2-3-5-6(7)9-4-8-5/h4H,7H2,1H3
