17
gdb 39763	4.97827	1.31604	1.21076	2.586	71.79	-0.2436	0.0998	0.3434	1024.4166	0.137368	-421.749133	-421.742663	-421.741718	-421.779807	26.664	
C	 0.0477809642	 1.5215898259	 0.028074265	-0.308911
O	 1.2112764495	 0.6566158964	 0.0138905619	-0.301645
C	-0.0705834657	 0.0731423479	-0.001615952	 0.543445
C	-0.60766785	-0.99647156	 0.9385724221	-0.221541
C	-1.8381187095	-1.1463485858	-0.0314126773	-0.054197
C	-2.1768052247	-2.6317100893	-0.0624853629	-0.11082
O	-0.8621645103	-3.2110816464	-0.070440856	-0.285169
C	-0.0300570648	-2.0710844816	-0.0449467571	 0.157444
C	-0.6021284302	-0.9574427279	-0.9874348294	-0.221539
H	-0.1070130037	 2.0674141818	 0.9578267167	 0.118439
H	-0.1017362021	 2.1046592752	-0.879669371	 0.11844
H	-0.6165157509	-1.0223246736	 2.0273396922	 0.083784
H	-2.6437911447	-0.4133011278	-0.0188744032	 0.078706
H	-2.7323875764	-2.9683260933	 0.8213467482	 0.10638
H	-2.7272512753	-2.9321789372	-0.9624129844	 0.10638
H	 1.0216457672	-2.347553762	-0.0475254026	 0.10702
H	-0.6047029527	-0.9391686423	-2.0763885401	 0.083784
155.1129	252.8964	268.2165	351.1489	475.6328	480.4881	571.2749	728.2226	752.0738	758.6103	779.9991	868.7311	885.5767	907.4246	951.9894	961.641	982.0581	983.9648	1021.3697	1039.0302	1074.6738	1110.7347	1115.2259	1124.6745	1140.9882	1148.1675	1150.9687	1186.3484	1200.5178	1207.4469	1242.4442	1277.5199	1318.8455	1384.6936	1471.5478	1522.9437	1566.3325	3020.6456	3059.2605	3082.1931	3124.9178	3127.7321	3134.854	3161.7467	3166.9108
C1OC11C2C3COC2C13	C1O[C@]21[C@H]1[C@@H]3CO[C@H]1[C@H]23	
InChI=1S/C7H8O2/c1-3-4-6(8-1)5(3)7(4)2-9-7/h3-6H,1-2H2	InChI=1S/C7H8O2/c1-3-4-6(8-1)5(3)7(4)2-9-7/h3-6H,1-2H2/t3-,4-,5+,6+,7+
