17
gdb 31268	2.56053	1.36464	0.93721	1.6641	73.09	-0.186	0.0138	0.1998	1250.9478	0.135918	-455.150037	-455.140878	-455.139933	-455.184984	31.744	
C	-0.0955180359	 1.3445597438	-0.017252741	-0.322881
N	-0.3113196339	-0.0847458719	-0.2216749564	-0.396517
C	 0.5127829362	-0.7347257308	-1.1320362942	 0.21329
C	 0.954004506	-2.0226869987	-1.1271958659	 0.281143
O	 0.8594922567	-3.0181511919	-0.237687827	-0.270537
C	 0.0532301846	-4.1322970347	-0.6507269726	-0.253781
O	 1.6883235956	-2.2256707862	-2.2815725636	-0.178951
C	 1.6478949495	-1.0317289495	-2.9030135654	 0.073952
N	 0.9798976584	-0.1127307136	-2.2825899386	-0.313011
H	 0.8896754047	 1.5872642842	 0.4102635022	 0.108301
H	-0.1816899255	 1.8584335721	-0.9759254823	 0.156492
H	-0.8720340576	 1.7237034047	 0.6518461813	 0.117967
H	-0.3738717766	-0.6013252971	 0.6453742458	 0.237044
H	-0.9623669005	-3.8032665725	-0.8983269091	 0.127999
H	 0.4977631043	-4.6309302428	-1.5180924154	 0.136667
H	 0.0262021378	-4.8222483004	 0.1941704302	 0.136098
H	 2.1652517064	-0.9531006448	-3.846107518	 0.146724
53.2255	73.0062	146.3682	157.0514	160.2314	203.0319	290.2092	340.3878	430.3049	549.0175	611.0815	648.1998	678.8994	735.556	789.7334	803.5991	952.159	1002.0562	1040.749	1095.1259	1145.2622	1154.117	1172.8972	1185.9701	1205.6046	1264.9366	1323.5513	1405.9938	1455.4353	1471.8042	1483.8649	1487.4147	1500.2881	1502.8593	1524.4038	1556.7906	1724.5598	2984.3284	3025.0147	3091.4575	3098.8939	3142.0618	3142.252	3272.6871	3578.5082
CNC1=C(OC)OC=N1	CNc1c(OC)ocn1	
InChI=1S/C5H8N2O2/c1-6-4-5(8-2)9-3-7-4/h3,6H,1-2H3	InChI=1S/C5H8N2O2/c1-6-4-5(8-2)9-3-7-4/h3,6H,1-2H3
