17
gdb 36614	5.49688	0.80719	0.77123	1.8517	75.36	-0.2379	0.0256	0.2635	1462.5321	0.133112	-421.719258	-421.710569	-421.709625	-421.753545	31.953	
C	 0.0565434284	-1.2015745757	-0.052911911	-0.41575
C	 0.0664483378	-0.00241835	-0.1108011906	 0.279763
C	 0.0470925926	 1.4499296738	-0.1925851787	-0.23492
O	 1.2858709287	 1.9744136694	 0.2912268076	-0.284321
C	 1.3793298297	 3.3402636873	 0.1694319682	 0.378267
C	 1.6007627562	 4.0574466786	-1.149476924	-0.355521
C	 2.5940726596	 4.2008474974	-0.0245186385	 0.011477
O	 2.1439886466	 5.1739673529	 0.9214053254	-0.282862
C	 0.987815952	 4.3532397321	 1.2489185875	-0.143099
H	 0.0536042248	-2.2624006713	 0.0006249434	 0.203868
H	-0.112470408	 1.7698685055	-1.233032756	 0.130262
H	-0.7921742302	 1.8456144569	 0.3996077255	 0.128019
H	 1.9267819748	 3.3980304898	-1.948735691	 0.124076
H	 0.9958989884	 4.9080894314	-1.4524115808	 0.116968
H	 3.6544716876	 3.9894321314	-0.086087047	 0.119824
H	 0.0437736999	 4.8993985916	 1.1417402887	 0.105443
H	 1.0792287112	 3.9424712988	 2.2605117915	 0.118507
41.7126	83.7426	112.2898	216.2741	302.966	326.1532	370.2734	380.2054	454.0815	502.2787	614.086	681.9695	707.6428	745.8078	872.1315	908.8354	930.2965	980.972	984.8251	995.4559	1009.8484	1029.0436	1038.9619	1074.8952	1078.4503	1110.2307	1156.8744	1219.6872	1247.756	1284.7403	1298.8111	1381.0715	1420.3184	1480.5023	1498.2667	1512.2928	2249.4181	2983.6709	3011.7699	3027.6776	3083.6277	3111.155	3194.0474	3209.3177	3504.7764
C#CCOC12CC1OC2	C#CCO[C@]12C[C@H]1OC2	
InChI=1S/C7H8O2/c1-2-3-9-7-4-6(7)8-5-7/h1,6H,3-5H2	InChI=1S/C7H8O2/c1-2-3-9-7-4-6(7)8-5-7/h1,6H,3-5H2/t6-,7+/m1/s1
