24
gdb 102807	1.73418	1.30956	0.8557	3.6116	86.82	-0.248	0.0341	0.2821	1475.3345	0.215351	-405.591061	-405.579628	-405.578684	-405.628879	40.747	
C	 0.0162018772	 1.591543538	 0.231365498	-0.382388
C	 0.0998902752	 0.0705112862	 0.0772934743	-0.191835
C	 0.761812041	-0.6424667569	 1.2715935048	 0.038606
N	 0.0428808894	-0.3248975173	 2.5055019874	-0.269835
C	 0.5889286747	 0.3399806584	 3.5581027845	 0.15267
O	 1.7315489719	 0.7425621018	 3.6241095902	-0.327908
C	 0.881361054	-2.1776981007	 1.0898075764	 0.028417
C	 1.6509978424	-2.5520624299	-0.186732972	-0.39573
C	 1.5431235593	-2.8361719625	 2.3091951753	-0.388255
H	 1.010553216	 2.0291814297	 0.3669656406	 0.129094
H	-0.4343543925	 2.0465204308	-0.6559169527	 0.111209
H	-0.5881021251	 1.8748773726	 1.0975817849	 0.115661
H	-0.9064851649	-0.3462361439	-0.0766011576	 0.085284
H	 0.6667915347	-0.1649993555	-0.8280095509	 0.108747
H	 1.7656015338	-0.2298438163	 1.4215013551	 0.119008
H	-0.9256259228	-0.5989123192	 2.5761882813	 0.24089
H	-0.1458323906	 0.4783378417	 4.3773541718	 0.0693
H	-0.1409095462	-2.5775179146	 0.9978299834	 0.061175
H	 2.6456081579	-2.0901384983	-0.1925138226	 0.118918
H	 1.7927946225	-3.6361295169	-0.2387031023	 0.113228
H	 1.1320169218	-2.2464684511	-1.0984993021	 0.116513
H	 0.9936173024	-2.6321614588	 3.231036227	 0.112932
H	 1.5933257393	-3.9218259173	 2.1789742341	 0.108188
H	 2.5660230985	-2.4669949398	 2.4447878409	 0.126109
25.3941	48.7352	86.4875	156.2085	172.0709	190.2803	225.8056	238.8471	255.1082	329.5542	358.8161	370.4548	428.7605	473.9857	511.0065	536.5955	737.4209	788.0983	861.5187	896.9247	929.5872	955.3214	967.5988	976.4432	1029.6277	1047.8634	1078.1325	1130.595	1156.1839	1181.2762	1191.5171	1210.3369	1286.5893	1311.5496	1341.0031	1352.8652	1376.6521	1385.5084	1401.5281	1412.7859	1422.5431	1432.2405	1480.792	1488.1145	1493.9382	1497.3064	1505.2748	1508.1666	1514.9957	1526.8595	1802.5368	2923.7293	2978.9504	3004.2089	3030.8506	3037.4484	3041.3659	3067.1916	3082.2517	3093.8646	3101.8147	3108.299	3115.2501	3119.6367	3121.3962	3614.2062
CCC(NC=O)C(C)C	CC[C@@H](NC=O)C(C)C	
InChI=1S/C7H15NO/c1-4-7(6(2)3)8-5-9/h5-7H,4H2,1-3H3,(H,8,9)	InChI=1S/C7H15NO/c1-4-7(6(2)3)8-5-9/h5-7H,4H2,1-3H3,(H,8,9)/t7-/m1/s1
