19
gdb 102189	2.43055	1.08768	0.81583	3.8671	76.34	-0.263	0.034	0.297	1405.1863	0.158381	-419.178957	-419.169235	-419.168291	-419.214384	34.205	
C	 0.9665879674	 0.1021212945	 0.277645208	-0.243142
O	 0.06639061	-0.9190508803	-0.1052715216	-0.237205
C	-1.298987898	-0.6203419302	 0.0858448941	 0.089118
C	-2.0702152895	-1.6624954655	-0.7477648901	-0.354587
C	-1.8303844062	-1.5161291626	-2.1810003017	 0.267981
N	-1.6567018252	-1.3826197315	-3.31520952	-0.306848
C	-1.7165635616	-0.690359311	 1.5428880452	 0.00234
C	-1.7513779831	 0.5321721253	 2.3840184095	-0.250172
N	-3.0047240376	-0.1143996871	 1.9628679937	-0.320009
H	 1.9621889154	-0.2288755987	-0.0248277871	 0.138788
H	 0.7380430649	 1.0497941231	-0.2323990634	 0.112517
H	 0.9624182952	 0.2755852433	 1.3613910419	 0.118116
H	-1.528822025	 0.3890360835	-0.2992367166	 0.077869
H	-1.7557194599	-2.6628080923	-0.431242227	 0.163136
H	-3.1441545145	-1.578808294	-0.553271759	 0.157219
H	-1.4868767885	-1.6421053386	 2.019147187	 0.104881
H	-1.5351085679	 0.4659374121	 3.4461452778	 0.129682
H	-1.4741583307	 1.4764124507	 1.9218427847	 0.11746
H	-3.4179797854	 0.4129244592	 1.1952755147	 0.232856
62.0818	81.7213	107.1416	131.4769	186.0597	226.6014	252.2436	344.3418	366.7815	391.9064	444.2857	491.6903	592.7035	818.6436	841.4268	883.5644	936.2684	954.5694	964.0005	1026.32	1053.6105	1073.2782	1130.9468	1151.903	1162.5363	1181.3352	1201.0021	1207.0311	1248.9283	1263.5279	1285.8289	1309.0164	1351.7492	1368.7725	1431.1723	1453.2114	1480.5898	1489.661	1509.1075	1512.7351	2367.2733	2950.0961	2992.1142	3052.4042	3055.7014	3100.4142	3109.5156	3125.7412	3126.5215	3196.6701	3474.9949
COC(CC#N)C1CN1	CO[C@@H](CC#N)[C@H]1CN1	
InChI=1S/C6H10N2O/c1-9-6(2-3-7)5-4-8-5/h5-6,8H,2,4H2,1H3	InChI=1S/C6H10N2O/c1-9-6(2-3-7)5-4-8-5/h5-6,8H,2,4H2,1H3/t5-,6+/m1/s1
