19
gdb 46322	3.00502	1.28993	1.16188	1.9376	75.62	-0.2417	-0.025	0.2166	1131.8189	0.159933	-423.038458	-423.030187	-423.029243	-423.072599	30.624	
O	-0.3126962902	 0.061110279	-0.0935880161	-0.303888
C	-0.2069149564	 1.2474350021	 0.0335570851	 0.344093
C	-1.1793735049	 2.3876125769	 0.3693274274	-0.342259
C	 0.0635906425	 3.3085133375	 0.5703084071	-0.301572
C	 1.0021210754	 2.1967304367	-0.0034785868	 0.23853
C	 2.280865759	 1.7953698106	 0.7636373994	-0.329451
C	 3.4385002385	 2.2207850918	-0.1780929447	-0.074619
O	 2.8475719035	 3.0086205311	-1.2037288742	-0.239913
C	 1.5614035153	 2.4637296879	-1.4190594037	-0.145443
H	-1.8044685053	 2.6576203634	-0.4883742619	 0.134111
H	-1.833056779	 2.2151928165	 1.2281280632	 0.131635
H	 0.0571988081	 4.2485850115	 0.0156432574	 0.112903
H	 0.2604993622	 3.5241442601	 1.6228595438	 0.110476
H	 2.3296747626	 2.302316291	 1.7302666517	 0.113059
H	 2.2927715295	 0.717589117	 0.9480264305	 0.127748
H	 4.2023135326	 2.8296476886	 0.3119358424	 0.111834
H	 3.9270587159	 1.3350599063	-0.6115483146	 0.098247
H	 1.6194935308	 1.5151308685	-1.9789198569	 0.102684
H	 0.97677302	 3.1824377835	-1.999153059	 0.111825
35.2626	64.3205	150.5843	199.1556	272.7049	360.3649	393.0919	505.3283	582.2104	654.9947	707.3776	741.505	782.7579	814.6443	890.261	919.4932	931.1723	963.5435	967.0331	1003.5287	1044.1713	1074.6361	1103.4546	1133.889	1163.844	1183.2334	1205.5924	1225.0253	1238.2459	1258.1661	1280.7074	1286.5901	1307.687	1352.9481	1395.2756	1438.1984	1486.5019	1488.8777	1507.2101	1524.2864	1881.2271	2965.7154	2989.7462	3056.136	3062.7757	3072.3643	3090.4378	3095.0438	3109.0279	3113.273	3128.8614
O=C1CCC11CCOC1	O=C1CC[C@]21CCOC2	
InChI=1S/C7H10O2/c8-6-1-2-7(6)3-4-9-5-7/h1-5H2	InChI=1S/C7H10O2/c8-6-1-2-7(6)3-4-9-5-7/h1-5H2/t7-/m0/s1
