15
gdb 66402	2.34051	1.5512	1.29092	1.3953	73.34	-0.2462	0.0046	0.2508	1034.2263	0.111525	-416.730904	-416.722654	-416.72171	-416.763575	31.429	
N	-0.0812560588	 1.4974465818	 0.0952957789	-0.597884
C	-0.0211489927	 0.0939397397	-0.0500452475	 0.154206
C	-1.1042161189	-0.9652250789	-0.1159864128	 0.042809
O	-0.3474336692	-1.7366912609	-1.0752029577	-0.268231
C	 0.6350337436	-0.7423523551	-1.1166196223	 0.388648
N	 1.623853569	-0.5977805881	-1.8685326225	-0.556605
C	-0.3234301102	-0.8258919992	 1.1587023228	-0.282361
C	 0.5745352845	-1.8234455718	 1.6624806581	 0.334057
C	 1.3276186604	-2.6524851528	 2.0983260969	-0.421153
H	 0.754215579	 1.8487550477	 0.5533012055	 0.251089
H	-0.1430727907	 1.9512741583	-0.8110285267	 0.248277
H	-2.1778545012	-0.9205395301	-0.2344091627	 0.134085
H	 1.7153136467	-1.3747705956	-2.5249797463	 0.23588
H	-0.8640125288	-0.2545448588	 1.9112753887	 0.136324
H	 1.9934474175	-3.3884112161	 2.4759680975	 0.200858
95.8969	128.7148	188.4072	262.1935	271.9606	328.0497	367.7232	473.1894	485.9387	607.6923	631.5439	661.1903	669.4375	718.7893	743.2825	797.9935	857.4721	869.3354	909.9216	924.5253	945.4828	1007.3939	1017.8629	1072.8749	1164.7538	1235.383	1257.3973	1285.9929	1341.8046	1474.4015	1664.5193	1833.2038	2242.7153	3136.7194	3222.6782	3481.9294	3498.6793	3504.1262	3572.6872
NC12C(OC1=N)C2C#C	N[C@@]12[C@@H](O[C]1[NH])[C@H]2C#C	
InChI=1S/C6H6N2O/c1-2-3-4-6(3,8)5(7)9-4/h1,3-4,7H,8H2	InChI=1S/C6H6N2O/c1-2-3-4-6(3,8)5(7)9-4/h1,3-4,7H,8H2/t3-,4+,6+/m1/s1
