21
gdb 85359	2.80421	1.30925	1.0566	3.7356	85.15	-0.2337	-0.0471	0.1866	1214.5463	0.182971	-387.137636	-387.128763	-387.127819	-387.170872	34.413	
C	-0.2219882041	 1.6067400223	 0.0003090232	-0.39715
C	-0.0044515843	 0.0853483136	 0.000618598	-0.012284
C	 0.7498691446	-0.3685939044	-1.2634533738	-0.333597
C	 2.211967207	 0.0663010276	-1.2807504086	 0.384039
O	 2.7995133872	 0.3286797103	-2.3115263495	-0.335644
C	 2.8846632372	 0.1012279679	 0.0350399907	-0.170584
C	 2.2234220865	-0.1390007002	 1.1744611822	-0.028387
C	 0.7466893856	-0.4418808037	 1.2503485587	-0.022487
C	 0.1460817472	 0.0262094304	 2.5846424774	-0.419926
H	 0.7231028686	 2.1553756586	 0.0625810826	 0.126867
H	-0.7215972698	 1.9134259546	-0.9240684742	 0.119313
H	-0.8514332858	 1.9254525611	 0.8354453106	 0.11662
H	-0.9940916145	-0.3888939259	-0.008546857	 0.07494
H	 0.7490345336	-1.4674506719	-1.3145739494	 0.117195
H	 0.2739742266	-0.0070536771	-2.1790950701	 0.116785
H	 3.9465858029	 0.3267617038	 0.0215672255	 0.104294
H	 2.7648822249	-0.1259149443	 2.1195387027	 0.102151
H	 0.6526513538	-1.5406213211	 1.2300776673	 0.095115
H	 0.2805886325	 1.1011578252	 2.7363809182	 0.12758
H	-0.9262683738	-0.1896888415	 2.6269314715	 0.118218
H	 0.6242541142	-0.4882359553	 3.424519594	 0.116941
79.4969	137.3401	208.1111	232.4382	263.7612	291.6176	342.6498	365.4584	398.5647	465.9371	539.0014	554.6711	626.1972	722.68	742.2032	800.4809	846.2347	884.5363	937.7208	958.2096	1008.6203	1022.3658	1032.1482	1085.5494	1089.9759	1106.3962	1130.0894	1193.1566	1226.881	1257.6571	1282.102	1322.0397	1328.8716	1366.2311	1379.9013	1403.1015	1414.4305	1421.3673	1459.6988	1494.7954	1496.9441	1503.1051	1515.9461	1678.4041	1778.0562	2959.943	3006.616	3022.052	3036.0057	3041.5743	3095.1943	3102.5228	3106.043	3111.3933	3117.341	3135.7788	3185.2892
CC1CC(=O)C=CC1C	C[C@H]1CC(=O)C=C[C@H]1C	
InChI=1S/C8H12O/c1-6-3-4-8(9)5-7(6)2/h3-4,6-7H,5H2,1-2H3	InChI=1S/C8H12O/c1-6-3-4-8(9)5-7(6)2/h3-4,6-7H,5H2,1-2H3/t6-,7+/m1/s1
