21
gdb 101599	4.52116	0.67362	0.64508	2.7216	76.2	-0.2664	0.017	0.2834	1790.7352	0.17944	-461.39681	-461.38566	-461.384716	-461.434491	38.278	
C	-0.1860333287	 1.3595951806	-0.0234451547	-0.239484
O	-0.1250139988	-0.0613639002	 0.1514662925	-0.232023
C	 0.7316543866	-0.4888435211	 1.1028036	 0.449335
O	 1.3952479104	 0.2555864181	 1.7803391105	-0.357348
C	 0.7540282885	-2.0037340393	 1.162061222	-0.344932
C	 1.3558941977	-2.5528570766	 2.4613458015	 0.048783
C	 0.4511857937	-2.2859843649	 3.6706218175	-0.398382
C	 1.6535795464	-4.0445016503	 2.3045473137	-0.083498
O	 2.3153609112	-4.4933369281	 3.4767580201	-0.422031
H	 0.7923684395	 1.7570302712	-0.3054256675	 0.139671
H	-0.9112553051	 1.5301242022	-0.819241939	 0.13186
H	-0.5084566166	 1.8485524134	 0.8993348409	 0.140674
H	-0.263869211	-2.3743842099	 0.9977159291	 0.124147
H	 1.3383262892	-2.337923991	 0.2931861762	 0.127042
H	 2.3122447074	-2.0440295679	 2.6278113178	 0.10565
H	-0.536470609	-2.74300477	 3.5281396465	 0.100154
H	 0.8916886245	-2.7125554354	 4.5739407207	 0.134944
H	 0.3140071336	-1.2127116943	 3.824051719	 0.127469
H	 0.7112908837	-4.5960485856	 2.1439319729	 0.080465
H	 2.281593464	-4.2034297711	 1.4122594857	 0.080488
H	 2.4316801528	-5.44530749	 3.4127727543	 0.287015
25.665	65.9307	104.4289	122.3962	139.3574	178.7595	239.6222	241.0832	258.2148	284.6843	329.0312	367.434	421.5751	542.7432	600.4419	706.8047	848.5127	898.2218	904.0192	931.2198	962.7015	1027.9404	1079.4997	1106.225	1127.6578	1164.4941	1179.0385	1193.9123	1211.9163	1250.5688	1253.9412	1276.6793	1311.9823	1377.7448	1392.0023	1404.787	1455.7123	1461.5722	1473.1514	1481.7041	1497.3458	1498.3871	1507.1717	1520.2526	1817.6115	2949.999	2978.3992	3021.4496	3027.7574	3051.2391	3052.6995	3075.7903	3106.5363	3125.1153	3137.2239	3157.7707	3836.9412
COC(=O)CC(C)CO	COC(=O)C[C@@H](C)CO	
InChI=1S/C6H12O3/c1-5(4-7)3-6(8)9-2/h5,7H,3-4H2,1-2H3	InChI=1S/C6H12O3/c1-5(4-7)3-6(8)9-2/h5,7H,3-4H2,1-2H3/t5-/m1/s1
