16
gdb 128043	6.60922	0.78438	0.70754	3.9307	77.17	-0.2288	0.0071	0.2359	1554.7525	0.124957	-434.078323	-434.069877	-434.068933	-434.112526	29.997	
C	-0.0328819004	 1.3881559506	-0.0058660251	-0.315191
N	 0.2603835006	-0.025171315	 0.1186209067	-0.202313
C	 0.5604904339	-0.6410869264	-0.9325252347	 0.11388
O	 0.8050262399	-1.9832401034	-0.8640972662	-0.238337
C	 1.2895768184	-2.610607517	-1.9662154746	 0.46158
N	 1.8586998808	-1.9718680352	-2.9786007798	-0.316813
N	 2.1964950481	-2.9696606044	-3.8291068242	-0.196166
C	 1.8668712239	-4.1966624532	-3.3660509053	 0.002771
C	 1.2640126372	-4.010383815	-2.1408212256	-0.333161
H	 0.6459973451	 1.9585614799	 0.6378650871	 0.129915
H	 0.0526315219	 1.7771892843	-1.0329983803	 0.10058
H	-1.0497401182	 1.5825005012	 0.3536016333	 0.129124
H	 0.6427487438	-0.2240961075	-1.9405586757	 0.12143
H	 2.6606925524	-2.7338733297	-4.6884983094	 0.27976
H	 2.0794900562	-5.0914986466	-3.9292639743	 0.142136
H	 0.8625910263	-4.7522610226	-1.4724404521	 0.120803
43.7099	72.4637	129.2175	206.2868	293.1829	319.8353	359.6004	405.4802	439.5045	555.1648	653.9285	716.5056	769.549	797.7468	839.5426	939.8023	982.9923	1006.1732	1056.6839	1072.4489	1102.3857	1141.5128	1145.7675	1200.3634	1232.2637	1316.2416	1389.8739	1409.4508	1447.5113	1481.6574	1492.3387	1503.047	1516.1918	1583.0857	1778.3247	2975.6403	3062.4214	3080.9558	3088.47	3262.8032	3290.6988	3688.8113
CN=COC1=NNC=C1	CN=COc1n[nH]cc1	
InChI=1S/C5H7N3O/c1-6-4-9-5-2-3-7-8-5/h2-4H,1H3,(H,7,8)	InChI=1S/C5H7N3O/c1-6-4-9-5-2-3-7-8-5/h2-4H,1H3,(H,7,8)
