15
gdb 12324	3.169	2.33413	1.41486	1.0787	65.89	-0.2324	-0.0303	0.2022	847.092	0.121696	-396.007666	-396.00072	-395.999776	-396.038641	26.797	
N	 0.0238486323	 1.3129047903	-0.2480904037	-0.545325
C	-0.0451387796	-0.0404037323	-0.0789725115	 0.309099
N	-1.1608310461	-0.6576895393	 0.0463210644	-0.31152
C	-1.0926666806	-2.1062728554	 0.1464399618	-0.162846
C	 0.0983959602	-2.6771628701	-0.5997789873	-0.097433
O	 1.3193955426	-2.0569274048	-0.1496084901	-0.249917
C	 1.3016395657	-0.713232282	-0.03491803	 0.368828
N	 2.3455681707	-0.0214418179	 0.1722900505	-0.537523
H	 0.9152188983	 1.7313682349	-0.0279215604	 0.274524
H	-0.8113790995	 1.8289364238	-0.0214015275	 0.255568
H	-1.0553400737	-2.4097930224	 1.203537919	 0.113826
H	-2.0130654932	-2.535651352	-0.2668365215	 0.113879
H	 0.2337407448	-3.7468687517	-0.4254276184	 0.122063
H	-0.0066226207	-2.5037259198	-1.6785430774	 0.118604
H	 3.1738096186	-0.6179335614	 0.211372852	 0.228173
106.4126	197.0597	311.8676	346.0835	384.5299	473.7741	498.1236	516.006	524.137	561.6512	683.9722	726.1287	798.9844	901.967	906.4653	940.5939	989.95	1044.9963	1108.1761	1147.7047	1213.7628	1246.5687	1283.2519	1299.3706	1373.3315	1395.5782	1454.0024	1487.8439	1503.8434	1600.7654	1710.3134	1739.9013	2997.0864	3026.9815	3053.3423	3110.0073	3474.353	3575.3174	3704.227
NC1=NCCOC1=N	NC1=NCCO[C]1[NH]	
InChI=1S/C4H7N3O/c5-3-4(6)8-2-1-7-3/h6H,1-2H2,(H2,5,7)	InChI=1S/C4H7N3O/c5-3-4(6)8-2-1-7-3/h6H,1-2H2,(H2,5,7)
