18
gdb 117609	2.2616	1.20857	1.04182	3.1081	78.64	-0.2649	0.0105	0.2754	1257.0165	0.143995	-401.911367	-401.900859	-401.899914	-401.947036	36.88	
C	 0.3120847295	 0.9679912339	 0.4497553933	-0.25691
O	-0.4006497566	 0.1514499424	-0.4689400119	-0.239509
C	 0.3892328587	-0.5309305464	-1.4047942175	-0.083325
C	 0.510167959	-2.0592156824	-1.0724886821	-0.131054
C	-0.9034135696	-2.6863129252	-0.9694935487	-0.404642
C	 1.2936359642	-2.6990814257	-2.1327257361	 0.33428
C	 1.912386462	-3.187588186	-3.0384260484	-0.44712
C	 1.2090776672	-2.2256845516	 0.217458855	 0.307646
N	 1.7442267635	-2.3468181887	 1.2344326161	-0.351375
H	 0.9957459668	 0.3849688904	 1.0768135076	 0.145028
H	 0.880838753	 1.7490084055	-0.0743853116	 0.113209
H	-0.4362854623	 1.4445527603	 1.086572833	 0.134744
H	-0.0976303439	-0.4640825473	-2.3846984093	 0.122323
H	 1.3939276553	-0.0999086369	-1.4897831599	 0.118011
H	-1.4000080409	-2.6093004351	-1.9399604245	 0.133404
H	-0.8389438857	-3.739178071	-0.689692855	 0.142564
H	-1.4856360085	-2.1428518293	-0.2239150292	 0.15345
H	 2.4682460782	-3.632396777	-3.8270492908	 0.209274
62.135	103.6438	120.7991	131.8804	170.7151	181.6392	233.7416	245.0554	291.1136	390.0012	410.5124	479.0091	506.8958	579.3755	596.2167	651.3852	668.6198	699.955	894.6834	935.7191	963.9872	987.5037	1110.6625	1143.3581	1174.5998	1186.1631	1210.2804	1233.1993	1327.2587	1388.6215	1408.0332	1476.126	1486.6294	1491.0125	1492.6762	1501.9873	1510.7999	2241.9499	2355.9186	3001.1515	3023.762	3059.0266	3077.0014	3077.1782	3128.418	3139.98	3156.1416	3499.8611
COCC(C)(C#C)C#N	COC[C@@](C)(C#C)C#N	
InChI=1S/C7H9NO/c1-4-7(2,5-8)6-9-3/h1H,6H2,2-3H3	InChI=1S/C7H9NO/c1-4-7(2,5-8)6-9-3/h1H,6H2,2-3H3/t7-/m0/s1
