17
gdb 78816	2.67533	1.70461	1.26932	2.42	74.93	-0.2672	0.0146	0.2819	1003.8987	0.137581	-380.825726	-380.818265	-380.81732	-380.857613	28.793	
C	-0.1395861698	 1.5984779114	-0.0127183269	-0.44263
C	 0.0912492048	 0.094024806	-0.0177325986	 0.033162
C	 0.84839767	-0.6240386096	-1.1235942472	-0.055381
C	 2.2929504508	-0.74509724	-0.7593254702	-0.068515
C	 2.5331261408	-0.1320429171	 0.6125419711	-0.126376
C	 2.9412392071	 1.25750398	 0.7862340005	 0.265036
N	 3.2919591998	 2.3498458439	 0.9294912203	-0.335121
C	 1.0940996129	-0.6361515409	 0.9084998944	-0.063555
N	 1.2970534022	-1.722046226	-0.1984818146	-0.161718
H	 0.7717197337	 2.1669581018	-0.2038442439	 0.15103
H	-0.8703258876	 1.8642536159	-0.7840340781	 0.120822
H	-0.5454137547	 1.9255118277	 0.9504274773	 0.125012
H	-0.8652479888	-0.4277691366	 0.1043463758	 0.099442
H	 0.5097535831	-0.8491601796	-2.1289364723	 0.104167
H	 3.0517450607	-1.0534250017	-1.4684335056	 0.114557
H	 3.2368682856	-0.7680617133	 1.1588234434	 0.141117
H	 0.8275815993	-0.9347783619	 1.9197920248	 0.098953
130.0119	137.7478	200.0863	249.297	280.9944	422.233	492.7175	540.3902	598.4383	713.3552	754.2238	775.85	799.6893	814.2426	907.4145	921.6727	940.3111	1000.5046	1036.6897	1052.7263	1079.263	1084.5148	1120.1533	1129.5788	1145.5138	1174.2586	1187.8149	1248.298	1273.3582	1345.4525	1357.5331	1383.0682	1400.9499	1420.1291	1495.5387	1504.6285	2352.2615	3039.6561	3045.0952	3067.9749	3099.4646	3144.4879	3148.5114	3178.6539	3196.1421
CC1C2C3C(C#N)C1N23	C[C@H]1[C@H]2[C@H]3[C@@H](C#N)[C@@H]1N23	
InChI=1S/C7H8N2/c1-3-5-4(2-8)7-6(3)9(5)7/h3-7H,1H3	InChI=1S/C7H8N2/c1-3-5-4(2-8)7-6(3)9(5)7/h3-7H,1H3/t3-,4+,5-,6+,7-,9?/m1/s1
