16
gdb 5272	6.77574	1.07967	1.0022	3.7699	66.02	-0.2225	0.0307	0.2532	1141.	0.132256	-379.946277	-379.93855	-379.937606	-379.979293	27.302	
O	-0.071131869	 1.4266491107	-0.001295123	-0.412707
C	 0.0367726748	 0.0172233916	-0.0616932078	-0.069349
C	-1.3856826178	-0.5319194168	 0.0632715512	-0.17338
N	-1.4262327647	-1.980610861	 0.0158793619	 0.020716
C	-1.3305186378	-2.7755035387	-1.1081713995	-0.1307
C	-1.3551119105	-4.0667976478	-0.6518408954	-0.089393
N	-1.4604022445	-4.0934741565	 0.7193073098	-0.273007
C	-1.4973532171	-2.8319149207	 1.0817267499	 0.003854
H	 0.8103468328	 1.803993572	-0.069704169	 0.295358
H	 0.4791728895	-0.3220726271	-1.0108029642	 0.100072
H	 0.6540309383	-0.3874439129	 0.7548304592	 0.103073
H	-1.8169372511	-0.2016714927	 1.0120095377	 0.134582
H	-2.0052950435	-0.1205041005	-0.7390289082	 0.133761
H	-1.2676616296	-2.3495734859	-2.0962684917	 0.12411
H	-1.3107198327	-4.9765585027	-1.2312099006	 0.107415
H	-1.5837046471	-2.4627806609	 2.0937236296	 0.125596
59.4255	87.984	108.7713	232.7307	314.6485	347.6227	376.0721	640.279	679.0722	729.2374	760.0181	803.8271	817.7827	855.587	916.5435	1009.8055	1047.1846	1090.9421	1095.0102	1104.6887	1144.8484	1210.2289	1245.517	1265.6832	1297.9075	1311.9731	1364.8	1395.5806	1409.4254	1461.4876	1490.4521	1528.4531	1534.9502	1544.7314	2980.4041	3013.2929	3063.0354	3113.9432	3240.7528	3246.0944	3273.9335	3838.8437
OCCN1C=CN=C1	OCCn1ccnc1	
InChI=1S/C5H8N2O/c8-4-3-7-2-1-6-5-7/h1-2,5,8H,3-4H2	InChI=1S/C5H8N2O/c8-4-3-7-2-1-6-5-7/h1-2,5,8H,3-4H2
