16
gdb 54234	2.24137	1.50449	1.35163	4.0158	66.05	-0.2466	-0.0421	0.2045	1038.7405	0.121878	-475.056203	-475.0471	-475.046156	-475.090311	32.874	
C	-0.2552686395	 1.6482438016	 0.3866809397	-0.429933
C	-0.0518832673	 0.1741606942	 0.0768206726	 0.182861
O	 0.9888175979	-0.0797340313	-0.9162754614	-0.334512
C	 1.8084594251	-0.8629312947	-0.0201699182	-0.196021
C	 0.7935229508	-0.6223905818	 1.1016431504	 0.315248
O	 0.706704077	-0.8876420018	 2.257321716	-0.257694
C	-1.3863735062	-0.5113733066	-0.2704910338	 0.3527
N	-1.3230699004	-1.3023398203	-1.3719120054	-0.523132
O	-2.3687202872	-0.3549879592	 0.4246284869	-0.359351
H	 0.6653570911	 2.101610504	 0.7621492352	 0.12278
H	-0.5648430279	 2.1801245044	-0.5179155603	 0.135819
H	-1.0431997237	 1.7411307806	 1.1362473226	 0.169
H	 1.912566168	-1.9082222892	-0.3356552263	 0.138506
H	 2.8010449671	-0.4260444379	 0.1381153544	 0.142953
H	-0.512044228	-1.2455298325	-1.9658664991	 0.27425
H	-2.1766470068	-1.7117182995	-1.7146538233	 0.266529
62.2254	102.1315	130.628	189.9289	217.2758	263.2116	344.7336	389.1376	431.6652	458.8699	503.4866	556.4203	627.216	678.3093	710.6805	769.9043	872.5155	888.5495	971.9343	1002.2837	1035.0816	1095.186	1133.8705	1142.8991	1167.1659	1196.3128	1296.6441	1347.8579	1392.445	1477.5355	1479.6508	1488.6008	1586.4898	1804.2573	1931.5332	3027.9624	3049.7017	3079.814	3122.5464	3151.3751	3590.9366	3729.3408
CC1(OCC1=O)C(N)=O	C[C@]1(OCC1=O)C(=O)N	
InChI=1S/C5H7NO3/c1-5(4(6)8)3(7)2-9-5/h2H2,1H3,(H2,6,8)	InChI=1S/C5H7NO3/c1-5(4(6)8)3(7)2-9-5/h2H2,1H3,(H2,6,8)/t5-/m1/s1
