21
gdb 53434	3.36987	0.91668	0.77872	1.6666	87.66	-0.2414	0.0564	0.2979	1532.9874	0.181623	-387.080436	-387.070306	-387.069362	-387.11796	35.635	
C	 0.4730430096	 1.5418806624	-0.6984449678	-0.50042
C	 0.2701171858	 0.1441182196	-0.3438846962	 0.100515
C	 0.1026816586	-1.0123648639	-0.0511327523	 0.042655
C	-0.0856885546	-2.4086206676	 0.3086720224	-0.215182
C	 0.0736305494	-2.7294539982	 1.8122091145	-0.227299
C	-0.6041866953	-4.0948759936	 1.8897840755	-0.073638
O	-1.6943741263	-4.0394069193	 0.9772145686	-0.275879
C	-1.4943078203	-3.0116438471	-0.0017860259	 0.145057
C	-2.6549592208	-2.0263929508	 0.0630692915	-0.38979
H	 1.071331618	 2.0618434733	 0.0581100102	 0.1474
H	 0.9956114357	 1.6389111515	-1.6566063761	 0.147334
H	-0.4810021074	 2.073409787	-0.7869248352	 0.147722
H	 0.6524025436	-3.0120888511	-0.2362533878	 0.103111
H	 1.1180467237	-2.7416705669	 2.1311483543	 0.107709
H	-0.4622308868	-1.9894899572	 2.4139449925	 0.115925
H	 0.097043071	-4.8955617067	 1.603575667	 0.087824
H	-0.9985306441	-4.3320718781	 2.8831122601	 0.104971
H	-1.4776525494	-3.4828545846	-0.9934801331	 0.07756
H	-2.6608549537	-1.4836954113	 1.0132863004	 0.115275
H	-2.5918106949	-1.2976566129	-0.7494851863	 0.119108
H	-3.5981981719	-2.5726357744	-0.0248781163	 0.12004
15.4176	34.3278	89.1094	106.9308	217.6105	233.6123	262.83	304.5987	365.7756	389.6985	454.0024	506.0161	595.5537	693.1322	763.5402	838.3888	872.8628	892.1935	950.928	991.8276	1027.7587	1052.8907	1053.38	1063.7864	1109.7033	1139.3017	1141.7749	1188.7278	1195.6187	1234.1734	1295.918	1302.5187	1327.8768	1363.0323	1384.9969	1395.3246	1410.8408	1415.3555	1478.7131	1478.9648	1483.8495	1488.4889	1494.9588	1526.8342	2369.285	2969.5558	3001.163	3018.8882	3025.2195	3042.6469	3059.9175	3073.0905	3085.2036	3085.7349	3115.8904	3119.2569	3124.1819	15.4522	34.3284	89.1091	106.9309	217.6102	233.6114	262.8302	304.5997	365.7764	389.6986	454.0028	506.0164	595.5536	693.1321	763.5402	838.3888	872.8629	892.1936	950.928	991.8278	1027.7588	1052.8911	1053.3804	1063.7867	1109.7035	1139.3018	1141.775	1188.728	1195.6188	1234.1731	1295.9181	1302.5192	1327.8769	1363.0326	1384.9969	1395.3243	1410.841	1415.3554	1478.7129	1478.9646	1483.8499	1488.4894	1494.9594	1526.8331	2369.2853	2969.5558	3001.1629	3018.8882	3025.2193	3042.6468	3059.9175	3073.0906	3085.2037	3085.7349	3115.8904	3119.2569	3124.1819
CC#CC1CCOC1C	CC#C[C@H]1CCO[C@H]1C	
InChI=1S/C8H12O/c1-3-4-8-5-6-9-7(8)2/h7-8H,5-6H2,1-2H3	InChI=1S/C8H12O/c1-3-4-8-5-6-9-7(8)2/h7-8H,5-6H2,1-2H3/t7-,8-/m0/s1
