14
gdb 42710	3.35941	1.94564	1.83568	3.1077	63.23	-0.2472	-0.0389	0.2082	780.6065	0.102584	-436.594938	-436.589322	-436.588378	-436.624854	23.223	
O	 0.0175497575	 0.0405818181	 0.1190869583	-0.307116
C	-0.0116933023	 1.2328218287	 0.092326024	 0.493445
C	-1.0985219058	 2.3002517457	-0.0204115254	-0.18721
C	-1.0559761369	 3.2083630287	 1.2725389484	 0.089984
O	-0.0161412488	 2.7763780346	 2.1767932894	-0.291166
C	 0.9726031742	 3.257401848	 1.2405542651	 0.089984
C	-0.0750356008	 4.1242256372	 0.5080357973	-0.039453
N	-0.0725375056	 3.2227320108	-0.7156912329	-0.178101
C	 1.0182088737	 2.3514217243	-0.053786286	-0.187211
H	-2.0581458774	 2.1084520896	-0.4996397599	 0.104839
H	-1.9864778995	 3.4667429009	 1.7753736226	 0.104835
H	 1.9049175654	 3.5608135484	 1.7140176218	 0.104835
H	-0.1026706473	 5.2080646481	 0.4170761522	 0.097495
H	 1.9704015037	 2.2058385567	-0.5631582848	 0.104839
146.955	343.2806	420.7035	507.7397	581.5207	696.7643	732.4801	750.4359	807.6274	825.9167	826.2994	844.36	896.4825	901.4524	933.7146	936.6309	972.5966	1011.3009	1079.2051	1090.1863	1124.402	1151.4656	1175.4777	1181.8666	1201.24	1223.278	1228.4483	1267.3431	1284.8918	1328.8367	1905.2341	3121.677	3123.1799	3129.2885	3131.6285	3145.1087
O=C1C2C3OC4C3N2C14	O=C1[C@H]2[C@H]3O[C@@H]4[C@H]3N2[C@H]14	
InChI=1S/C6H5NO2/c8-4-1-5-3-6(9-5)2(4)7(1)3/h1-3,5-6H	InChI=1S/C6H5NO2/c8-4-1-5-3-6(9-5)2(4)7(1)3/h1-3,5-6H/t1-,2+,3-,5+,6-
