18
gdb 104759	2.94259	1.09488	0.91596	1.6381	75.11	-0.2552	0.0256	0.2808	1287.1379	0.146348	-439.012299	-439.00284	-439.001896	-439.046612	35.155	
O	 0.1044380354	 1.3967026047	-0.2173925907	-0.421051
C	 0.0490711698	 0.0928220144	 0.3688126972	-0.139065
C	-1.3451480856	-0.4847925118	 0.2257627325	 0.272892
C	-2.4288335253	 0.2555308919	 0.9905241613	-0.132174
O	-2.6803509584	 1.5356389566	 0.4412721412	-0.426148
N	-1.6401035429	-0.906558344	-1.1526078159	-0.357789
C	-1.5465930778	-1.936160702	-0.0877587201	-0.324556
C	-0.4708729818	-2.8877855785	-0.1582088095	 0.370863
C	 0.4111525384	-3.7041330915	-0.1894381635	-0.424288
H	-0.0716004521	 1.2709120347	-1.1585076853	 0.300427
H	 0.786868037	-0.5761180094	-0.08707895	 0.119619
H	 0.3077703505	 0.2249371799	 1.4239722641	 0.117436
H	-3.3734841983	-0.2994887151	 0.9397634991	 0.098644
H	-2.1441355702	 0.3187713016	 2.0541832699	 0.09335
H	-1.8141383707	 1.9473115071	 0.3068667999	 0.289983
H	-2.6187469616	-0.7251999773	-1.3677835636	 0.244584
H	-2.485685166	-2.356857506	 0.2676047587	 0.115516
H	 1.1942614295	-4.4206540654	-0.2248960952	 0.201757
88.6046	98.0077	119.2836	158.6534	231.0032	292.929	322.7422	350.2008	412.7285	435.2109	473.9892	565.4101	618.4223	629.5546	650.6492	663.825	766.2707	877.0305	905.2712	940.9983	959.0092	990.8829	1037.2144	1064.0409	1085.4884	1100.7453	1188.8936	1207.1606	1223.5483	1303.9756	1350.2353	1377.0653	1392.8482	1426.3102	1446.1103	1471.0975	1494.7254	1508.9329	2240.6599	2964.5625	3044.7458	3046.409	3097.9396	3119.7355	3490.0617	3501.9969	3720.4745	3783.7505
OCC1(CO)NC1C#C	OCC1(CO)N[C@H]1C#C	
InChI=1S/C6H9NO2/c1-2-5-6(3-8,4-9)7-5/h1,5,7-9H,3-4H2	InChI=1S/C6H9NO2/c1-2-5-6(3-8,4-9)7-5/h1,5,7-9H,3-4H2/t5-/m0/s1
