19
gdb 107107	3.85372	0.89445	0.82251	2.9073	76.94	-0.2487	-0.0237	0.225	1410.4731	0.158127	-422.998877	-422.989912	-422.988968	-423.033288	32.996	
O	 0.1524478869	 1.394747994	 0.1608491813	-0.411123
C	 0.0785083821	-0.0004124345	-0.1016173343	-0.178686
C	-1.3307244424	-0.5125154392	-0.1018755586	 0.352355
C	-2.0405517866	-0.9521339641	 1.1530821719	-0.343789
C	-1.8628656076	-1.9439730001	 0.0369280827	-0.123992
C	-2.9155848781	-1.6977270103	-1.0604499757	-0.075996
C	-2.3717602322	-0.2237666527	-1.190051518	-0.319473
C	-2.6648815452	-2.4908519018	-2.3137238178	 0.158959
O	-3.4909315575	-3.1406061943	-2.9007277864	-0.255422
H	-0.2776899155	 1.5505189187	 1.0084657672	 0.282786
H	 0.5348949406	-0.1323487727	-1.0892939497	 0.110833
H	 0.681021063	-0.5812677473	 0.6161316861	 0.086928
H	-1.4007287827	-1.123230618	 2.0141863808	 0.11606
H	-3.0292019388	-0.5712784844	 1.3987851034	 0.11341
H	-1.3161652105	-2.8689704793	 0.180123607	 0.098698
H	-3.9606375989	-1.8178258473	-0.7635242392	 0.090982
H	-3.0953559573	 0.569285196	-0.9839695926	 0.111372
H	-1.9196270332	-0.0352385078	-2.1682101602	 0.116374
H	-1.6128035759	-2.4280795748	-2.6838714178	 0.069724
62.9221	78.7847	102.0378	192.921	294.3508	302.5874	357.7146	378.2958	388.6211	425.0407	492.16	693.6336	762.6665	846.7462	851.017	888.5013	933.3959	938.2467	971.4926	1007.4914	1023.5794	1028.3885	1063.7091	1077.5377	1086.5693	1121.3692	1174.7589	1192.1326	1234.7418	1243.893	1257.1248	1291.96	1314.6563	1368.678	1399.5962	1424.978	1430.7186	1479.0916	1495.3134	1505.6802	1832.5838	2840.1674	2969.7942	3053.3021	3061.2113	3080.5083	3105.0277	3105.5293	3176.2251	3194.5064	3807.7847
OCC12CC1C(C2)C=O	OC[C@]12C[C@H]1[C@@H](C2)C=O	
InChI=1S/C7H10O2/c8-3-5-1-7(4-9)2-6(5)7/h3,5-6,9H,1-2,4H2	InChI=1S/C7H10O2/c8-3-5-1-7(4-9)2-6(5)7/h3,5-6,9H,1-2,4H2/t5-,6-,7-/m0/s1
