22
gdb 104790	2.20792	1.4773	1.07645	1.7834	81.08	-0.2282	0.0663	0.2945	1216.1841	0.193801	-404.295594	-404.286103	-404.285159	-404.330029	35.931	
C	 0.7091964082	-0.5864872257	 1.5095461678	-0.391673
C	 0.0828532009	-0.1248277949	 0.1886545092	-0.248584
C	-1.3399455463	-0.6444945002	-0.0525665807	 0.334688
C	-2.3495297405	-0.0351541555	 0.9190598888	-0.135002
O	-2.3589709114	 1.3716832216	 0.7192319514	-0.427071
C	-1.8962502701	-0.5939522879	-1.5080738764	-0.222748
N	-2.2317946872	-2.0645342728	-1.5060761902	-0.130141
C	-0.9408535721	-2.7556157832	-1.3507307423	-0.252195
C	-1.5536501023	-2.1626143765	-0.146751873	-0.083642
H	 1.743673683	-0.2388810463	 1.5894922056	 0.113783
H	 0.1686220342	-0.1988845853	 2.3787766783	 0.118583
H	 0.7206549688	-1.6798040527	 1.5822541469	 0.116686
H	 0.0579477748	 0.9695390485	 0.149489175	 0.118519
H	 0.7236344371	-0.4485815738	-0.6393297276	 0.087507
H	-3.3414193087	-0.4720915483	 0.7259322536	 0.096453
H	-2.0772215178	-0.2873783508	 1.9561511249	 0.086002
H	-3.0200721587	 1.7558567291	 1.3018324089	 0.289467
H	-2.7972565803	 0.0118412407	-1.614151505	 0.116408
H	-1.1844536261	-0.313983325	-2.2922048469	 0.09639
H	-1.0197099995	-3.8325267273	-1.4671165971	 0.119012
H	-0.0492433306	-2.3186636949	-1.7951186231	 0.110866
H	-1.9703183453	-2.7797624785	 0.6453362618	 0.08669
46.6402	116.8276	169.4595	199.255	209.658	249.6304	286.3222	333.5042	382.0797	413.702	474.7081	541.8915	661.811	749.0327	772.9853	787.8949	847.4221	905.1467	948.99	956.5533	979.3658	1010.9195	1042.3311	1053.5417	1059.0135	1080.2574	1108.5449	1120.0709	1148.1293	1184.2022	1199.4405	1223.0253	1230.7726	1263.5458	1279.0334	1308.3591	1314.6488	1372.7588	1387.4264	1406.3665	1452.7385	1485.0464	1496.8852	1498.9876	1505.4032	1514.1708	1527.9291	2971.2375	3001.7349	3033.5777	3036.3625	3045.4068	3073.79	3101.5281	3104.4266	3106.9887	3120.1425	3137.8707	3193.1914	3836.2808
CCC1(CO)CN2CC12	CC[C@@]1(CO)CN2C[C@@H]12	
InChI=1S/C7H13NO/c1-2-7(5-9)4-8-3-6(7)8/h6,9H,2-5H2,1H3	InChI=1S/C7H13NO/c1-2-7(5-9)4-8-3-6(7)8/h6,9H,2-5H2,1H3/t6-,7-,8?/m0/s1
