21
gdb 87776	3.80959	1.05104	1.02749	1.7024	83.96	-0.2439	0.0872	0.3311	1300.2767	0.180839	-387.054037	-387.045061	-387.044117	-387.087314	34.854	
C	-0.0636394473	 1.49884887	-0.1209232256	-0.416141
C	-0.0290771966	 0.004448281	 0.0663150449	-0.031536
O	 1.2693132415	-0.6244511313	-0.0002450818	-0.307945
C	 0.5729346649	-0.6432934887	 1.2351318051	 0.464418
C	 1.2108784301	-0.0701374976	 2.5162651752	-0.384371
C	 0.8553633202	-1.3908086183	 3.2338005459	 0.360013
C	 1.7363389756	-2.0699194914	 4.2414102076	-0.495537
C	-0.6278132945	-1.6115348082	 3.1449317831	-0.328838
C	 0.2259870665	-1.9349870784	 1.9398498164	-0.195732
H	 0.7123392852	 1.9859966336	 0.4752889528	 0.12644
H	 0.0973642737	 1.7613224336	-1.1720006045	 0.127862
H	-1.0382258673	 1.8995100858	 0.179202537	 0.1191
H	-0.8033874576	-0.5503660964	-0.4679355427	 0.084914
H	 2.2878113075	 0.056704305	 2.3751217856	 0.117022
H	 0.7909997106	 0.8496342629	 2.938178549	 0.094268
H	 1.7626924148	-1.5118414967	 5.1854844677	 0.119824
H	 1.3745538989	-3.0787563449	 4.4661341463	 0.117923
H	 2.7667312302	-2.1556360914	 3.8783070552	 0.120489
H	-1.002266126	-2.4759831904	 3.6852922928	 0.110457
H	-1.3204467811	-0.7727021278	 3.1171183199	 0.103476
H	 0.2759443906	-2.9246121205	 1.5015488	 0.093894
89.4347	143.9224	189.8427	203.8183	222.5898	295.4636	334.9203	390.2628	427.5246	444.3233	499.7899	533.531	656.5789	782.0745	794.2756	809.3857	887.7617	906.0201	953.4702	955.4527	971.4483	1004.4145	1016.3523	1040.883	1072.6019	1089.2246	1106.5526	1126.3732	1134.6987	1168.9465	1193.0149	1227.6006	1252.7511	1279.0365	1352.9519	1387.5961	1409.4374	1424.978	1467.6441	1477.4397	1485.9345	1490.7599	1496.5037	1501.4312	1529.3985	3020.0956	3034.0483	3038.849	3078.6238	3083.9646	3096.0063	3096.9092	3099.8248	3101.8974	3123.1324	3184.0298	3193.2155
CC1OC11CC2(C)CC12	C[C@H]1O[C@]21C[C@@]1(C)C[C@@H]21	
InChI=1S/C8H12O/c1-5-8(9-5)4-7(2)3-6(7)8/h5-6H,3-4H2,1-2H3	InChI=1S/C8H12O/c1-5-8(9-5)4-7(2)3-6(7)8/h5-6H,3-4H2,1-2H3/t5-,6-,7-,8+/m1/s1
