18
gdb 102371	1.86583	1.43833	1.21965	3.2985	68.63	-0.2341	-0.0384	0.1958	1154.5066	0.143232	-476.207848	-476.197085	-476.196141	-476.244436	36.464	
C	-0.3288233292	 1.3384564172	 0.2377056939	-0.338839
N	 0.0000659852	-0.0863220292	 0.1094096869	-0.323518
C	 0.6320046648	-0.4581176739	-1.1496816973	 0.040311
C	 0.7745528639	-1.9988441831	-1.1420694531	-0.11704
O	 1.4387213495	-2.3808986226	-2.3308974342	-0.417744
C	-0.3079560434	-0.1072001827	-2.3045108011	 0.161422
O	 0.0121229896	 0.4669633749	-3.3098926553	-0.246063
C	 2.0357287547	 0.1400891722	-1.3556138744	 0.160308
O	 2.7084004484	 0.4936361715	-0.4193473353	-0.277412
H	 0.5313474933	 2.0108922301	 0.1146844396	 0.127539
H	-1.0894164944	 1.6142251665	-0.5000959415	 0.13139
H	-0.759751252	 1.5067491308	 1.228046912	 0.127449
H	 0.6477511113	-0.3287739569	 0.8536624085	 0.233555
H	 1.343113149	-2.2803748377	-0.2423337295	 0.107831
H	-0.2298855602	-2.4389719653	-1.0589074696	 0.11158
H	 1.5500765059	-3.3359110007	-2.3302555002	 0.300079
H	-1.3520933921	-0.4509336927	-2.1248869731	 0.095861
H	 2.3948727956	 0.2031410817	-2.3978080162	 0.12329
45.6311	77.3658	101.3483	109.2001	171.7344	204.2943	220.1613	241.9944	272.6996	303.8283	317.5979	408.4689	493.2485	534.1579	650.9706	758.6596	784.5933	915.5021	930.28	1005.5088	1044.3139	1087.4751	1111.9345	1138.5692	1172.4597	1189.5078	1216.5709	1261.773	1294.008	1398.1519	1404.3976	1439.8588	1462.7115	1490.5098	1499.0745	1516.6221	1527.7058	1816.4015	1839.0567	2877.2952	2979.5841	2983.6971	3008.8041	3020.9961	3078.4461	3113.9081	3512.647	3837.9723
CNC(CO)(C=O)C=O	CNC(CO)(C=O)C=O	
InChI=1S/C5H9NO3/c1-6-5(2-7,3-8)4-9/h2-3,6,9H,4H2,1H3	InChI=1S/C5H9NO3/c1-6-5(2-7,3-8)4-9/h2-3,6,9H,4H2,1H3
