23
gdb 120224	4.09672	0.90335	0.87838	0.9531	86.54	-0.2497	0.09	0.3396	1466.9785	0.207643	-388.269112	-388.260421	-388.259477	-388.302975	33.418	
C	 0.0547417493	 1.3497075745	-0.0371012542	-0.222359
O	-0.0011826071	-0.0499422016	 0.0781372809	-0.233623
C	-1.3027665367	-0.568060563	-0.1230698311	-0.110697
C	-1.2250447726	-2.0794276396	-0.0298112934	 0.040016
C	-0.9769102619	-2.7069540052	 1.3802684668	-0.004927
C	-2.5081781496	-2.5728792374	 1.6240362944	-0.234703
C	-2.5712802246	-2.8631291277	 0.0953916894	-0.031768
C	-2.0719657616	-4.3214647477	 0.0401317583	-0.215807
C	-0.8530908389	-4.2013854384	 1.0212613439	-0.216615
H	 1.0907467224	 1.6533227741	 0.1337108378	 0.124744
H	-0.2546253664	 1.6922447397	-1.0380610752	 0.10057
H	-0.5881641223	 1.8497127019	 0.7056919609	 0.100232
H	-1.9978477349	-0.1359534949	 0.6142828591	 0.084427
H	-1.6763852531	-0.2752057941	-1.1205457861	 0.080774
H	-0.5477425015	-2.4308315078	-0.8171992007	 0.063575
H	-0.2401839819	-2.2875263967	 2.0648646402	 0.065148
H	-2.9807880043	-3.2952158846	 2.2970639083	 0.084408
H	-2.8238811489	-1.5651327978	 1.8941789061	 0.097272
H	-3.4449553981	-2.6096509789	-0.5079170921	 0.053148
H	-2.828142608	-5.0296078726	 0.3911940894	 0.093135
H	-1.7731463238	-4.6213136859	-0.9685352678	 0.094108
H	 0.0998544612	-4.4341003267	 0.5374965421	 0.0963
H	-0.9527036764	-4.8490482095	 1.8971604631	 0.092641
69.1831	87.2938	120.9024	225.0622	288.0058	302.1763	324.8033	371.6983	479.6511	579.3137	650.3418	799.551	833.4775	841.249	847.5842	888.5318	905.9482	942.9673	963.1804	980.6606	999.2078	1012.8657	1039.6421	1080.1284	1086.6952	1095.6168	1133.6029	1154.5784	1176.7661	1185.4558	1201.1691	1219.459	1231.4293	1242.7959	1258.3982	1265.7981	1272.3469	1289.3391	1311.8147	1325.3561	1383.3267	1432.7046	1480.1237	1484.6072	1493.0187	1496.3873	1506.3105	1518.7846	1530.8738	2943.5956	2964.5024	2981.9452	3004.6021	3036.3946	3047.5175	3054.1658	3057.8774	3084.5676	3096.5744	3103.6215	3109.5278	3119.8387	3129.9806
COCC1C2CC1CC2	COC[C@H]1[C@H]2C[C@@H]1CC2	
InChI=1S/C8H14O/c1-9-5-8-6-2-3-7(8)4-6/h6-8H,2-5H2,1H3	InChI=1S/C8H14O/c1-9-5-8-6-2-3-7(8)4-6/h6-8H,2-5H2,1H3/t6-,7+,8+
