16
gdb 8023	3.38789	1.97237	1.53309	3.8424	64.74	-0.2341	-0.035	0.1992	855.9756	0.129437	-383.719945	-383.712624	-383.71168	-383.75154	27.471	
C	-0.2663660379	 1.585363405	-0.0161887409	-0.498547
C	 0.0359543659	 0.1051311615	 0.0121701929	 0.290372
C	-1.0997333705	-0.8972900053	 0.293248041	-0.113725
O	-0.3011005257	-1.6160752217	 1.2644527558	-0.286993
C	 0.7707489616	-0.6500013966	 1.1798123368	-0.052208
C	 1.8225865858	-1.1409517547	 0.160613453	 0.425938
O	 2.8332198631	-1.77235601	 0.2427315996	-0.288672
C	 1.0783357126	-0.4538743971	-1.0056870946	-0.421308
H	 0.6537685695	 2.1794630725	-0.0154325491	 0.123987
H	-0.8289234259	 1.8522467666	-0.9185631068	 0.127564
H	-0.8628669699	 1.8878072871	 0.8505472455	 0.126194
H	-1.9864284509	-0.4562247543	 0.7670429527	 0.104623
H	-1.4168965063	-1.5352072552	-0.5403905139	 0.107409
H	 1.0723749183	-0.2464934165	 2.1505238609	 0.089517
H	 0.7038198116	-1.111990321	-1.7949683818	 0.131414
H	 1.6993603987	 0.3210513895	-1.4683251913	 0.134433
78.0755	192.9621	213.046	272.6747	324.289	363.7243	443.069	529.1616	593.5401	630.9795	776.7286	821.309	869.8007	915.6925	956.8371	993.5719	1006.0011	1010.9152	1071.417	1090.8796	1143.5285	1156.946	1173.6725	1216.987	1250.2025	1264.349	1298.5164	1371.0281	1419.5605	1435.7771	1493.1344	1495.3047	1525.0692	1896.9198	3010.2018	3027.1737	3049.6476	3059.9307	3077.31	3090.2602	3100.852	3105.0245
CC12COC1C(=O)C2	C[C@]12CO[C@H]1C(=O)C2	
InChI=1S/C6H8O2/c1-6-2-4(7)5(6)8-3-6/h5H,2-3H2,1H3	InChI=1S/C6H8O2/c1-6-2-4(7)5(6)8-3-6/h5H,2-3H2,1H3/t5-,6-/m0/s1
