19
gdb 80587	2.72309	1.4029	1.23354	3.4378	75.99	-0.2265	0.0537	0.2802	1100.482	0.160107	-419.20947	-419.20077	-419.199826	-419.242848	33.091	
C	 0.4175905711	 1.587689261	 0.1330402702	-0.422541
C	 0.2593089338	 0.0912283908	-0.0143644421	 0.000325
C	 0.6269663153	-0.7153378131	-1.2437750601	-0.118798
C	 1.9447280105	-0.2262453014	-1.8612677172	-0.207485
N	 2.5999446864	-0.4326888057	-0.5492641719	-0.103869
C	 1.3755449341	-0.9120073648	 0.0750784824	-0.020534
C	 3.5304745886	 0.3526456861	 0.1001721986	 0.410247
N	 4.3720667337	 1.0536845391	-0.7551203179	-0.559986
O	 3.6026050963	 0.4233040496	 1.3124015516	-0.393404
H	 1.3354859234	 1.9558592038	-0.3312938397	 0.132095
H	-0.423890891	 2.1139834215	-0.3304273244	 0.111764
H	 0.455475097	 1.8669532465	 1.1902198961	 0.134251
H	-0.6477713499	-0.3017727286	 0.4428625326	 0.092345
H	-0.0614403446	-1.3874210107	-1.7371898859	 0.097209
H	 2.3387026777	-0.8983921571	-2.6317254752	 0.111293
H	 1.9713222156	 0.804774649	-2.2322736203	 0.117704
H	 1.3972423295	-1.7475638565	 0.7631250901	 0.107851
H	 4.5583048034	 0.6539043235	-1.6625247129	 0.252068
H	 5.188474779	 1.4155365969	-0.285672084	 0.259466
84.1676	94.4769	178.0408	186.6909	267.7412	278.2229	412.4755	434.8478	446.0244	535.8888	553.6809	622.4225	689.5826	727.6467	781.5544	813.983	837.6284	875.8489	967.9378	996.168	1017.4968	1044.2861	1066.8641	1090.2336	1104.336	1129.5359	1149.8214	1188.775	1196.6106	1213.7502	1271.2762	1309.2826	1349.7524	1419.7077	1425.9708	1438.279	1491.8125	1500.0714	1518.8558	1621.3539	1793.9651	3025.3418	3040.2997	3069.7195	3102.4395	3116.7231	3132.4832	3192.3088	3209.9683	3573.2787	3689.0613
CC1C2CN(C12)C(N)=O	C[C@H]1[C@H]2CN([C@@H]12)C(=O)N	
InChI=1S/C6H10N2O/c1-3-4-2-8(5(3)4)6(7)9/h3-5H,2H2,1H3,(H2,7,9)	InChI=1S/C6H10N2O/c1-3-4-2-8(5(3)4)6(7)9/h3-5H,2H2,1H3,(H2,7,9)/t3-,4+,5-/m0/s1
