21
gdb 72266	2.65237	1.84238	1.63831	1.426	80.43	-0.2281	0.0845	0.3125	962.2102	0.185055	-387.079962	-387.072707	-387.071763	-387.11098	30.696	
C	 0.0389534185	 1.4934919876	-0.0861486396	-0.502071
C	-0.058112657	-0.0038820253	-0.0222356904	 0.489923
O	 0.41890764	-0.6760007954	-1.2031456781	-0.341396
C	-0.4755852225	-1.7860987035	-0.8764133014	 0.096295
C	 0.3390031764	-2.8135225523	-0.0952393365	-0.222537
C	 1.1623159174	-2.0194238866	 0.9515946477	-0.198932
C	 0.3841583815	-0.7469475051	 1.3163892582	-0.102687
C	-1.1144425846	-1.0959426876	 1.5603574374	-0.248571
C	-1.3384307822	-0.8657920052	 0.0563568945	-0.127603
H	 1.0891226201	 1.8053232139	-0.1201050838	 0.126887
H	-0.4613626706	 1.8769389881	-0.9803413972	 0.124043
H	-0.4201334462	 1.9493276345	 0.7970618703	 0.118618
H	-0.9621605182	-2.1837718244	-1.7705492737	 0.071061
H	-0.3297918562	-3.5408487701	 0.379123521	 0.098724
H	 0.994716186	-3.3719309327	-0.7702757283	 0.102254
H	 1.3558408021	-2.6224966611	 1.8448635104	 0.090478
H	 2.1308850078	-1.7439279015	 0.5254826091	 0.110009
H	 0.8943643286	-0.1440344099	 2.071168436	 0.059154
H	-1.3396676654	-2.0769572544	 1.9898161186	 0.092484
H	-1.6319055713	-0.3316100144	 2.1471641339	 0.09856
H	-2.3065521841	-0.5574505146	-0.3413791181	 0.065308
206.0089	213.3108	265.8136	271.337	372.0435	417.5629	458.8383	514.8528	598.2732	682.756	716.865	785.6919	804.2966	826.7467	867.1813	873.0701	888.7985	942.7973	946.3868	969.0737	1004.52	1032.2184	1046.7168	1085.1394	1089.9563	1122.5306	1138.7289	1164.8124	1175.5328	1196.3594	1230.2381	1272.9627	1280.9121	1300.0578	1314.7485	1322.5553	1344.48	1361.25	1378.6464	1410.3547	1477.1911	1477.4251	1485.2536	1491.4675	1504.6932	3030.7857	3037.866	3046.6145	3049.6066	3072.3179	3078.4623	3080.3581	3094.1542	3097.5876	3098.667	3100.4971	3112.1964
CC12OC3CCC1CC23	C[C@@]12O[C@H]3CC[C@@H]1C[C@@H]23	
InChI=1S/C8H12O/c1-8-5-2-3-7(9-8)6(8)4-5/h5-7H,2-4H2,1H3	InChI=1S/C8H12O/c1-8-5-2-3-7(9-8)6(8)4-5/h5-7H,2-4H2,1H3/t5-,6-,7+,8-/m1/s1
