19
gdb 90683	4.24074	1.00277	0.86548	3.0142	77.49	-0.2303	0.0373	0.2676	1358.3484	0.159195	-419.204815	-419.195975	-419.195031	-419.238665	33.465	
C	-0.0326221815	 1.5035791656	 0.1175729884	-0.410093
C	-0.0007812012	-0.0046757596	-0.0899026198	 0.005674
C	 1.2446724437	-0.5219815924	-0.9075334129	-0.264945
C	 1.701267517	-1.2851404138	 0.33910581	-0.04512
C	 0.5176346405	-0.8047461574	 1.1192621259	-0.019394
N	 0.5985982379	-2.2025642056	 0.7030291892	-0.157771
C	 0.8228927201	-3.1561183274	 1.7224141062	 0.397183
N	 1.5659365984	-4.2261707625	 1.277040458	-0.535694
O	 0.3877934537	-3.0655864727	 2.8513082887	-0.366291
H	 0.9181338798	 1.8681562969	 0.5232009322	 0.115242
H	-0.2142653515	 2.0239992189	-0.828583257	 0.118318
H	-0.8253624831	 1.7899435301	 0.8170666447	 0.120489
H	-0.9640935239	-0.3661972716	-0.4611709175	 0.082737
H	 1.0434220522	-1.1337272236	-1.790300386	 0.103692
H	 1.9210802578	 0.2942849451	-1.1745019951	 0.10542
H	 2.7076172351	-1.5077327042	 0.672632604	 0.110258
H	 0.4222065525	-0.5824220448	 2.1744160039	 0.119883
H	 1.5982394877	-4.3954791462	 0.284632139	 0.25896
H	 1.5364831949	-5.0403498349	 1.869975958	 0.261452
50.3304	127.2599	140.4425	214.3666	248.975	300.3197	343.4144	422.4992	449.9421	508.8439	538.6743	610.4796	708.6522	749.1983	805.3928	834.3413	863.5611	893.9177	898.1349	935.0056	970.1007	1031.5031	1056.7295	1086.4821	1108.3628	1118.1118	1122.1319	1198.7296	1203.8666	1242.8008	1251.8912	1292.5528	1338.189	1364.0903	1384.5615	1412.2454	1473.3706	1494.8324	1500.5381	1613.3086	1801.0061	3026.7412	3059.1656	3064.3415	3095.3444	3099.7422	3117.8618	3190.8345	3210.9524	3590.1721	3714.3873
CC1CC2C1N2C(N)=O	C[C@H]1C[C@H]2[C@@H]1N2C(=O)N	
InChI=1S/C6H10N2O/c1-3-2-4-5(3)8(4)6(7)9/h3-5H,2H2,1H3,(H2,7,9)	InChI=1S/C6H10N2O/c1-3-2-4-5(3)8(4)6(7)9/h3-5H,2H2,1H3,(H2,7,9)/t3-,4-,5+,8?/m0/s1
