23
gdb 104850	1.97467	1.49355	1.06776	2.2468	81.4	-0.2405	0.062	0.3025	1266.2953	0.203456	-425.414908	-425.404302	-425.403358	-425.45058	38.936	
C	 0.7595296613	 0.1420228171	 1.0003732708	-0.397733
C	-0.0791838343	-0.0866925089	-0.2627817691	-0.216063
C	-1.4609531463	-0.6991665456	-0.024101366	 0.409908
C	-2.3538725583	 0.075356242	 0.9470528803	-0.221107
C	-2.6525266648	 1.5122852162	 0.5076864984	-0.394604
O	-2.1504124981	-0.8620551528	-1.3075432816	-0.327493
C	-2.1250445677	-2.2961117268	-1.2108749084	-0.103053
C	-1.4816115161	-2.241552841	 0.1896851273	 0.00158
O	-0.2055359329	-2.822187332	 0.3380213922	-0.423029
H	 1.749342704	 0.5260184593	 0.7346607516	 0.110936
H	 0.2974050357	 0.8700324516	 1.6747636297	 0.11244
H	 0.8987270259	-0.7935541354	 1.5479477255	 0.132291
H	-0.2308675828	 0.858086807	-0.7969811404	 0.101874
H	 0.4645638526	-0.7449971663	-0.9460622128	 0.10772
H	-3.2988721549	-0.474152366	 1.0365800328	 0.091496
H	-1.8929483119	 0.0637761775	 1.9426975305	 0.099632
H	-1.7575445965	 2.1415593792	 0.5268303347	 0.118223
H	-3.0521746292	 1.5216338088	-0.510404792	 0.13706
H	-3.3931450792	 1.9725282398	 1.1685863893	 0.109224
H	-3.1281398917	-2.7353473607	-1.2803357417	 0.094522
H	-1.4724671683	-2.7554448294	-1.9651245735	 0.097315
H	-2.1514633466	-2.5497871212	 1.0023333118	 0.069716
H	-0.3158336598	-3.7657546621	 0.4887387507	 0.289145
46.1388	99.5953	132.3584	173.5363	193.7101	208.8442	227.7489	277.1177	296.0194	324.2042	375.0065	413.7508	459.8019	572.8552	648.2088	759.8247	775.2515	800.8453	886.8066	930.5518	949.12	971.5223	1024.6213	1041.5969	1048.1529	1068.9286	1080.7622	1126.4137	1150.2174	1166.9726	1186.7445	1212.3794	1259.6936	1295.2487	1313.2359	1324.0091	1330.958	1359.6445	1390.834	1405.4399	1406.7637	1442.1131	1471.9208	1484.5318	1499.9921	1503.0886	1506.9008	1513.1187	1514.8331	3004.2022	3015.5373	3025.9302	3039.7986	3040.4016	3047.61	3053.4594	3059.5348	3086.8162	3104.379	3106.9687	3118.7944	3125.2054	3826.3417
CCC1(CC)OCC1O	CCC1(CC)OC[C@H]1O	
InChI=1S/C7H14O2/c1-3-7(4-2)6(8)5-9-7/h6,8H,3-5H2,1-2H3	InChI=1S/C7H14O2/c1-3-7(4-2)6(8)5-9-7/h6,8H,3-5H2,1-2H3/t6-/m1/s1
