20
gdb 5817	3.46281	1.56668	1.33	0.4425	71.25	-0.2498	0.0703	0.3201	1009.902	0.174112	-386.139359	-386.130298	-386.129354	-386.17191	35.487	
C	-0.2380898047	 1.5524929707	-0.0400656239	-0.456277
C	-0.0456300115	 0.0413864924	-0.0153653955	 0.424972
O	-1.2773151209	-0.6405920368	-0.1802257333	-0.47888
C	 1.1385329669	-0.4612724447	-0.9038097183	-0.297797
C	 2.0128579395	-0.5946886458	 0.3698554551	 0.405943
C	 2.8690830564	-1.8410280398	 0.5294669065	-0.448264
O	 2.8121721916	 0.5846334824	 0.4599337995	-0.476672
C	 0.7140960244	-0.4891124087	 1.2273723359	-0.305902
H	 0.7127453294	 2.0619533402	 0.1327825643	 0.139259
H	-0.6224064875	 1.877181313	-1.0160746024	 0.099289
H	-0.9540216658	 1.8568790924	 0.730485313	 0.115588
H	-1.7317204855	-0.2558937594	-0.9377549032	 0.271264
H	 0.9015102494	-1.4333540347	-1.3420389943	 0.097607
H	 1.5291406392	 0.213204482	-1.6693447407	 0.099835
H	 3.6720288648	-1.8488361008	-0.2144448997	 0.123428
H	 3.3287227557	-1.8730195794	 1.525798449	 0.103545
H	 2.2722618258	-2.7502389412	 0.4104286485	 0.116828
H	 3.2030866483	 0.6056205702	 1.3406043621	 0.273048
H	 0.7580882202	 0.1611057365	 2.1057501319	 0.087462
H	 0.3256794345	-1.4689782382	 1.5156345457	 0.105723
98.8798	212.4052	236.1339	277.1155	282.7599	305.9261	311.3033	329.0341	359.9594	402.1944	411.877	456.8451	492.5292	591.4875	727.5949	833.5869	846.2503	911.6533	913.6992	932.8747	944.5188	978.149	982.33	1060.6573	1103.6688	1115.3481	1164.6727	1210.1201	1223.1089	1255.4045	1276.646	1301.8489	1366.5759	1380.2624	1403.9618	1408.9268	1449.6407	1472.698	1489.456	1492.3569	1494.2473	1504.3518	3018.0759	3020.361	3052.6558	3064.3643	3087.2082	3087.6827	3111.5552	3118.6832	3127.9556	3131.0741	3795.079	3798.5406
CC1(O)CC(C)(O)C1	C[C@@]1(O)C[C@@](C)(O)C1	
InChI=1S/C6H12O2/c1-5(7)3-6(2,8)4-5/h7-8H,3-4H2,1-2H3	InChI=1S/C6H12O2/c1-5(7)3-6(2,8)4-5/h7-8H,3-4H2,1-2H3/t5-,6-
