23
gdb 118864	3.46433	0.93229	0.86505	1.1459	85.42	-0.2513	0.0803	0.3316	1446.9378	0.205119	-388.257216	-388.247626	-388.246682	-388.291404	36.97	
C	 0.0141727852	 1.6474658513	 0.1045204793	-0.456093
C	 0.0319081356	 0.1199034265	 0.0287634733	 0.328909
C	-1.3709219633	-0.4584924924	-0.2110281964	-0.220624
C	-2.064886189	 0.016503727	-1.4831928368	-0.092682
O	-3.2541628799	-0.748995761	-1.6277891685	-0.419663
C	 1.1019655283	-0.5348367833	-0.9289019736	-0.290171
C	 1.6856506417	-1.3028595042	 0.2617351015	-0.029391
C	 2.1719993063	-0.3419003014	 1.3075946335	-0.302926
C	 0.6983618789	-0.6224077076	 1.2097569886	-0.070654
H	 0.9941033076	 2.0480662259	 0.3787983208	 0.111423
H	-0.2612763361	 2.0952368111	-0.8565191188	 0.113007
H	-0.7083679475	 1.9939868051	 0.8528805794	 0.111498
H	-1.3074987395	-1.5525584838	-0.2540044828	 0.104832
H	-2.014880593	-0.2191150428	 0.6454343944	 0.097172
H	-2.2961256971	 1.090184965	-1.4170267314	 0.086618
H	-1.3984737415	-0.1198822451	-2.3508742146	 0.085214
H	-3.7250888668	-0.4271537583	-2.4018745755	 0.28387
H	 0.6457528762	-1.1774825004	-1.6854699072	 0.101129
H	 1.7920866639	 0.153502789	-1.4295061995	 0.088156
H	 2.0055531604	-2.3374717662	 0.2429750922	 0.08173
H	 2.6643133464	-0.7929912017	 2.1635867591	 0.10921
H	 2.5866381751	 0.621687821	 1.0210280372	 0.101991
H	 0.1485002981	-1.0501918735	 2.0413080657	 0.077444
81.3292	116.1711	142.5855	200.1523	240.1881	270.6244	284.4442	328.1284	352.9562	400.6496	417.1746	525.266	654.6124	755.6802	790.8493	801.5271	838.5001	856.1446	923.5015	954.313	968.7523	990.2949	999.7107	1015.19	1028.5467	1050.569	1069.4629	1071.1402	1083.9431	1146.9997	1158.26	1182.1191	1211.2496	1241.0961	1249.9959	1254.4826	1283.8496	1301.7062	1327.7185	1352.8225	1363.0289	1414.1043	1460.8553	1476.8494	1487.7862	1489.1841	1503.0113	1505.0853	1529.619	2964.7637	2998.4837	3021.3268	3027.7109	3037.4233	3064.8731	3089.3027	3098.3816	3104.0027	3109.3539	3162.4587	3180.8651	3197.4592	3828.3366
CC1(CCO)CC2CC12	C[C@@]1(CCO)C[C@H]2C[C@@H]12	
InChI=1S/C8H14O/c1-8(2-3-9)5-6-4-7(6)8/h6-7,9H,2-5H2,1H3	InChI=1S/C8H14O/c1-8(2-3-9)5-6-4-7(6)8/h6-7,9H,2-5H2,1H3/t6-,7-,8-/m1/s1
