18
gdb 38682	3.03907	1.96258	1.65423	0.8704	74.2	-0.2142	0.0064	0.2206	874.585	0.151126	-401.91679	-401.910456	-401.909512	-401.947074	26.997	
C	 0.0406371971	 1.5222885863	-0.0280482899	-0.251556
C	 1.2850725126	 0.7154816666	-0.0128141297	-0.003236
C	 2.1224097761	 0.6398857574	 1.260095525	-0.007972
O	 1.2362584691	 0.7355184828	 2.3756718563	-0.25434
C	 0.612993628	-0.5556622247	 2.3976077937	 0.022943
C	-0.4777850641	-0.5538584207	 1.3019598691	-0.163842
N	-0.0367368089	 0.0584716803	 0.0295861105	-0.10097
C	 1.7594794124	-1.4897606005	 2.0407159037	-0.077841
C	 2.6685140953	-0.7814969254	 1.3808676755	-0.079413
H	-0.1936346766	 2.078822131	 0.8756540995	 0.122134
H	-0.3111262006	 1.966736358	-0.9561825788	 0.107487
H	 1.8354564415	 0.5514161602	-0.9387400314	 0.088027
H	 2.8643230935	 1.4412581572	 1.3254696817	 0.085931
H	 0.1818944979	-0.7218032792	 3.3891289165	 0.084151
H	-0.7945510397	-1.5826526341	 1.0921619261	 0.103878
H	-1.3567867388	-0.0104581087	 1.6650254288	 0.1076
H	 1.7581642528	-2.5531090332	 2.2404092691	 0.108164
H	 3.5799847724	-1.1297643334	 0.9139361642	 0.108856
191.1106	265.903	373.4116	378.8674	441.0422	496.573	623.3381	662.8115	721.2704	732.3016	795.5471	826.3528	843.8278	876.209	919.3115	926.2915	943.371	958.5572	987.4927	1025.6315	1050.1515	1072.9318	1086.8992	1106.4239	1127.6839	1138.6334	1161.838	1241.2063	1265.9389	1285.9926	1305.2236	1311.3293	1330.5711	1358.9159	1366.071	1399.4082	1486.2744	1501.0613	1671.6036	3024.8697	3064.1845	3067.1806	3073.6069	3099.036	3108.7755	3189.6885	3213.0575	3238.7344
C1C2C3OC(CN12)C=C3	C1[C@H]2[C@H]3O[C@@H](CN12)C=C3	
InChI=1S/C7H9NO/c1-2-7-6-4-8(6)3-5(1)9-7/h1-2,5-7H,3-4H2	InChI=1S/C7H9NO/c1-2-7-6-4-8(6)3-5(1)9-7/h1-2,5-7H,3-4H2/t5-,6+,7+,8?/m1/s1
