16
gdb 42781	2.55443	1.95947	1.58646	2.2902	69.15	-0.2457	-0.0132	0.2326	887.6416	0.126044	-437.802382	-437.795706	-437.794762	-437.833292	26.796	
O	-0.0069344296	 0.0134813813	-0.2100476718	-0.335483
C	-0.0311467233	 1.1870896443	 0.0148245363	 0.418156
C	-1.0584167464	 2.3226742401	 0.0512504205	-0.132964
C	-0.7719937939	 2.8814748555	 1.4814864552	-0.285407
C	 0.7621643026	 3.0375141032	 1.3001628607	 0.166713
O	 1.8853649879	 2.2688134668	 1.844787832	-0.309241
C	 2.4131530342	 2.1353375725	 0.4804485694	-0.219949
C	 0.9763519758	 2.3431881306	-0.0111483503	 0.148011
N	-0.0485393365	 3.0494442543	-0.8861957865	-0.398543
H	-2.0830716332	 2.2391816734	-0.3042206581	 0.102584
H	-1.2527074202	 3.8400808762	 1.6838771563	 0.120492
H	-1.0804113132	 2.1584523776	 2.2411301386	 0.137449
H	 1.0448440142	 4.0961622542	 1.2764411532	 0.092524
H	 3.1193930719	 2.9399381163	 0.2461121316	 0.119524
H	 2.8548380436	 1.1519056079	 0.3043284619	 0.13608
H	-0.1281931539	 2.5970419357	-1.7994385989	 0.240055
152.2586	190.9217	268.9168	366.8029	410.9614	477.6647	558.6492	620.1572	686.5529	699.2746	777.5578	809.4963	861.4787	889.4103	896.7318	912.34	987.2939	1009.4059	1042.9123	1053.9658	1092.1784	1111.683	1124.9469	1168.5326	1216.122	1220.4231	1233.3505	1292.1452	1295.5961	1307.2696	1330.3413	1395.6033	1477.6628	1501.926	1891.6568	3033.8888	3040.3516	3074.3612	3116.8172	3129.387	3156.7316	3443.3233
O=C1C2CC3OCC13N2	O=C1[C@H]2C[C@H]3OC[C@@]13N2	
InChI=1S/C6H7NO2/c8-5-3-1-4-6(5,7-3)2-9-4/h3-4,7H,1-2H2	InChI=1S/C6H7NO2/c8-5-3-1-4-6(5,7-3)2-9-4/h3-4,7H,1-2H2/t3-,4-,6+/m1/s1
