20
gdb 5822	2.69629	1.6695	1.3627	2.7515	74.85	-0.2673	0.0284	0.2958	1018.1268	0.175526	-345.2051	-345.195313	-345.194369	-345.238758	36.322	
C	-0.0386487635	 1.5417907688	-0.0001233196	-0.413198
C	 0.0059382299	 0.0048250537	 0.0490688589	 0.270424
C	 0.7208626092	-0.460548775	 1.330125702	-0.429027
C	-1.4282181168	-0.5522816529	 0.0238590072	-0.422351
C	 0.7717196371	-0.5006475371	-1.2160705134	-0.130388
N	 2.149315013	-0.0000872499	-1.2676620552	-0.504562
C	 0.7184964276	-1.9762120918	-1.3307727735	 0.265737
N	 0.7370694148	-3.129270495	-1.4227311369	-0.340474
H	 0.9669513102	 1.9641887169	-0.0467506286	 0.135818
H	-0.5945906384	 1.8924969225	-0.8770568559	 0.106963
H	-0.5424846425	 1.9318692642	 0.8899258366	 0.11112
H	 0.1536673728	-0.1459047376	 2.2116014727	 0.119979
H	 0.8122551731	-1.5512701937	 1.3652983741	 0.131797
H	 1.7209617477	-0.0238127616	 1.4159976277	 0.117854
H	-1.9532543783	-0.2586355079	-0.8921570448	 0.112243
H	-1.4420796042	-1.6442624352	 0.0861246216	 0.138783
H	-1.9976747686	-0.1598922257	 0.8721134258	 0.116492
H	 0.2488302984	-0.0958754204	-2.0909401171	 0.12372
H	 2.7225916184	-0.4922506835	-0.5892935786	 0.244215
H	 2.5537120703	-0.1981234188	-2.1776094429	 0.244857
70.98	150.7027	198.8711	227.4406	242.4324	262.0595	272.1061	293.0207	321.0861	349.9181	384.3387	404.429	460.5811	568.8677	608.9548	748.8695	844.781	879.2472	939.7264	940.4033	963.7981	968.0055	1035.6904	1054.3367	1110.1806	1165.7194	1235.313	1257.2511	1276.8684	1327.2503	1391.5736	1397.5638	1399.8073	1431.2895	1478.6404	1487.3434	1490.8004	1502.8256	1509.4886	1521.4121	1661.9387	2338.5355	3029.509	3031.3458	3036.4347	3042.3113	3094.3406	3099.3602	3104.1884	3105.2124	3113.6008	3132.3929	3503.9275	3579.9912
CC(C)(C)C(N)C#N	CC(C)(C)[C@@H](N)C#N	
InChI=1S/C6H12N2/c1-6(2,3)5(8)4-7/h5H,8H2,1-3H3	InChI=1S/C6H12N2/c1-6(2,3)5(8)4-7/h5H,8H2,1-3H3/t5-/m0/s1
