17
gdb 34577	3.48611	1.25259	0.99317	0.454	97.35	-0.2105	-0.0515	0.159	1183.0107	0.136827	-347.547329	-347.539503	-347.538559	-347.57942	30.896	
C	 0.2764315963	-1.0518202206	-0.5413565655	-0.431621
C	 0.09563673	 0.096146058	-0.2168944671	 0.249409
C	-0.063255503	 1.4458946474	 0.1838488245	 0.083343
C	-1.2755433649	 2.0625055793	 0.1428753611	-0.125314
C	-1.5174660785	 3.4598737055	 0.372725934	-0.093286
C	-0.6567101035	 4.4857289987	 0.1149504519	-0.107497
C	 0.6702038189	 4.3585477055	-0.4341819514	-0.047531
C	 1.4851114773	 3.3004864357	-0.2579753066	-0.086281
C	 1.1530974809	 2.1943723682	 0.7064031705	-0.351601
H	 0.4187366075	-2.0627183963	-0.8329557454	 0.195765
H	-2.1419881134	 1.455794148	-0.1068388528	 0.09821
H	-2.5351028702	 3.7250730814	 0.6500497343	 0.093012
H	-1.0484357717	 5.4958606508	 0.2102081682	 0.093864
H	 1.0138693197	 5.1832671811	-1.0549919412	 0.093412
H	 2.4193511179	 3.2414723064	-0.8089418528	 0.098889
H	 0.9077664154	 2.6194598174	 1.6886856973	 0.122682
H	 1.9936207115	 1.5109008735	 0.8328130308	 0.114546
101.4447	148.9642	235.4348	303.385	336.9287	377.8773	408.1392	543.3183	559.8235	586.1849	593.0965	631.7365	640.29	730.4857	792.7344	822.5506	889.4934	917.6116	942.216	967.3278	988.4166	1001.8877	1007.6569	1093.4753	1148.4855	1221.7306	1254.3217	1283.195	1323.2417	1344.8971	1407.3544	1471.2312	1475.3752	1561.3792	1644.9978	1670.112	2206.6071	3013.522	3118.4459	3138.5705	3147.3679	3159.7996	3169.4895	3176.5991	3502.9236
C#CC1=CC=CC=CC1	C#CC1=CC=CC=CC1	
InChI=1S/C9H8/c1-2-9-7-5-3-4-6-8-9/h1,3-7H,8H2	InChI=1S/C9H8/c1-2-9-7-5-3-4-6-8-9/h1,3-7H,8H2
