18
gdb 82257	3.13253	1.3755	1.05865	1.8089	87.22	-0.223	-0.0238	0.1992	1143.9176	0.147792	-364.76827	-364.760063	-364.759118	-364.800726	32.246	
C	-0.1022406597	 1.5480624073	 0.0196609637	-0.396476
C	 0.0194449101	 0.0196640599	-0.0023088016	-0.104691
C	 0.7999460284	-0.5289403467	-1.1971854992	-0.059086
N	 2.1971623551	-0.0556136506	-1.268944914	-0.329838
C	 1.8928882567	-1.4013689534	-0.6904723446	-0.084705
C	 1.7971739538	-1.3681882285	 0.7922385537	-0.171554
C	 0.7953213939	-0.5627028409	 1.1890072244	 0.17302
C	 0.4525531054	-0.2422330913	 2.5230202567	 0.239565
C	 0.1144849194	 0.0537813226	 3.6420031189	-0.428193
H	 0.8875729104	 2.0027508575	-0.0674256562	 0.139893
H	-0.7195991173	 1.8979514891	-0.8139677427	 0.107776
H	-0.5640922673	 1.8870428187	 0.9511628165	 0.124319
H	-0.990583171	-0.4133359124	-0.0032767976	 0.086954
H	 0.2749605299	-0.7455823238	-2.1215767897	 0.086988
H	 2.5272557661	-0.183770306	-2.2244647267	 0.228424
H	 2.2426059598	-2.2836788099	-1.2149375457	 0.091192
H	 2.4692388499	-1.8965100865	 1.4564064971	 0.105039
H	-0.1666483635	 0.306478935	 4.6340361971	 0.191373
107.231	141.2697	199.05	234.9866	265.3628	358.3476	454.7255	477.1075	524.2812	581.828	601.8403	635.3745	646.0867	694.6568	790.3906	814.3281	845.0446	863.7308	905.6422	920.9727	979.2254	1037.0463	1070.065	1090.6287	1114.5989	1129.4721	1160.6237	1181.3869	1248.3369	1278.9365	1314.79	1337.8122	1368.8717	1397.656	1412.8274	1493.9673	1505.6046	1650.7116	2216.5682	3009.104	3041.5737	3109.5336	3131.0238	3161.2013	3174.5487	3216.0392	3474.7832	3504.1178
CC1C2NC2C=C1C#C	C[C@H]1[C@H]2N[C@H]2C=C1C#C	
InChI=1S/C8H9N/c1-3-6-4-7-8(9-7)5(6)2/h1,4-5,7-9H,2H3	InChI=1S/C8H9N/c1-3-6-4-7-8(9-7)5(6)2/h1,4-5,7-9H,2H3/t5-,7+,8-/m1/s1
