17
gdb 62430	3.92629	1.23425	1.1916	1.6766	80.22	-0.239	-0.0133	0.2258	1084.8404	0.13553	-380.817548	-380.809443	-380.808499	-380.849786	31.321	
C	-0.0678169668	 1.5352128712	 0.0640636104	-0.479067
C	-0.0015548687	 0.0207314737	-0.0342159159	 0.090261
C	-1.1515814312	-0.6452530013	 0.5263321767	 0.263163
C	-2.1358727364	-1.1689123553	 0.9755870056	-0.381335
C	 0.7171465993	-0.6765653268	-1.1497564485	-0.077402
C	 1.7252002228	 0.0960462288	-2.0012702814	-0.202412
N	 2.7791922348	 0.5238265999	-1.0605023073	-0.197133
C	 2.4549708452	 0.0743922542	 0.0846787862	 0.032632
N	 1.2915220855	-0.7399095997	 0.2138385001	-0.158564
H	 0.8280347322	 2.0187467817	-0.3271710369	 0.146913
H	-0.9324625661	 1.8931214628	-0.5027756914	 0.137826
H	-0.2027850284	 1.8398902189	 1.1057372686	 0.138657
H	-2.9970950134	-1.641846946	 1.3784646042	 0.195732
H	 0.2924812678	-1.5993480794	-1.5307789221	 0.110476
H	 2.1604283424	-0.5464792563	-2.7745823546	 0.126628
H	 1.3089051746	 0.9727626115	-2.5107671183	 0.122849
H	 3.0479094264	 0.249321462	 0.9773918446	 0.130778
134.4001	149.7033	180.4378	241.6455	247.0724	357.6826	398.3853	480.2279	522.081	569.338	621.5584	648.8545	653.4427	734.8588	796.3386	867.352	879.0539	944.3221	959.4711	971.1506	998.9774	1025.3071	1073.6704	1089.0719	1122.7035	1207.7389	1242.5762	1278.6745	1311.5315	1324.629	1378.4364	1416.0214	1480.0019	1492.7974	1498.6338	1671.4902	2238.985	3038.8912	3050.5796	3070.0974	3114.2472	3145.6995	3167.3235	3192.5675	3502.8338
CC1(C#C)C2CN=CN12	C[C@@]1(C#C)[C@H]2CN=CN12	
InChI=1S/C7H8N2/c1-3-7(2)6-4-8-5-9(6)7/h1,5-6H,4H2,2H3	InChI=1S/C7H8N2/c1-3-7(2)6-4-8-5-9(6)7/h1,5-6H,4H2,2H3/t6-,7-,9?/m1/s1
