20
gdb 119131	2.41442	1.12809	0.87428	2.703	75.62	-0.2452	0.0292	0.2743	1360.4818	0.170207	-440.303347	-440.293425	-440.292481	-440.338436	36.734	
N	 0.3526112212	 0.5304140502	 1.0321441453	-0.542188
C	 0.1928498966	-0.4083837266	 0.0473236353	 0.349188
O	 1.1253995114	-0.7478043011	-0.6609465818	-0.375299
C	-1.1908016297	-0.9933225401	-0.1123152591	 0.242027
C	-2.3731078885	-0.3871871189	 0.6252030587	-0.306753
C	-2.7949462789	 0.9872194224	 0.1066363144	-0.076522
O	-3.8924583356	 1.4182849297	 0.8987196848	-0.419557
C	-1.4455908026	-1.612097993	-1.477528593	-0.280903
C	-1.1680014205	-2.5064502921	-0.3140789012	-0.296474
H	 1.3000494507	 0.8115134176	 1.2285862005	 0.259012
H	-0.3347386219	 0.6673316735	 1.7521899418	 0.259724
H	-3.2343383523	-1.057491743	 0.5316777749	 0.110411
H	-2.1806945938	-0.3157166684	 1.7043907665	 0.098831
H	-1.9543594282	 1.6941971756	 0.1685349067	 0.094897
H	-3.0718684177	 0.904489356	-0.9555790427	 0.093877
H	-4.1876529711	 2.2705323491	 0.5655843372	 0.28744
H	-2.4600202239	-1.5568842999	-1.8574574814	 0.110077
H	-0.657085568	-1.489458207	-2.2092447812	 0.142565
H	-0.1959315518	-2.9826976671	-0.274196095	 0.136644
H	-1.9849314655	-3.0706677968	 0.1223388393	 0.113005
63.5532	74.2739	131.0983	164.6593	260.1479	267.3931	286.3886	324.5039	347.809	365.4933	415.8316	448.823	574.8632	596.8705	711.7682	770.8462	795.919	802.9877	886.8816	917.0072	964.1382	973.8927	1031.4325	1065.8835	1078.3378	1087.4301	1095.8902	1104.0905	1204.4916	1210.2468	1243.2683	1257.4172	1299.3586	1316.4865	1355.1882	1394.3393	1451.6485	1461.191	1483.8108	1501.7629	1534.0018	1616.145	1773.9975	2981.2679	3009.3057	3020.4944	3070.4611	3138.7426	3142.1073	3230.3982	3244.4378	3599.4254	3731.7736	3832.2143
NC(=O)C1(CCO)CC1	NC(=O)C1(CCO)CC1	
InChI=1S/C6H11NO2/c7-5(9)6(1-2-6)3-4-8/h8H,1-4H2,(H2,7,9)	InChI=1S/C6H11NO2/c7-5(9)6(1-2-6)3-4-8/h8H,1-4H2,(H2,7,9)
