18
gdb 105728	2.41942	1.37554	1.15785	3.4647	77.31	-0.2617	-0.0049	0.2568	1139.8314	0.148298	-401.971534	-401.962831	-401.961887	-402.00514	32.31	
O	 0.1032809798	 1.4113917449	-0.0046855004	-0.418225
C	 0.0269186206	 0.0052060293	 0.0182834135	-0.10284
C	-1.4339393619	-0.519789795	 0.0348990748	 0.078987
C	-1.5022886736	-2.0801655741	 0.0920926429	-0.273464
C	-2.6327270806	-2.4190757676	 1.0951202739	-0.261015
C	-2.8185026478	-1.1297245767	 1.8558197373	-0.066928
C	-2.1909421361	-0.1037183696	 1.2889472098	-0.087711
C	-2.1005085679	 0.0170941451	-1.1631243236	 0.247315
N	-2.5815370553	 0.4734836577	-2.1113725212	-0.351673
H	-0.2372393696	 1.7169381112	-0.8538215995	 0.299721
H	 0.5657525674	-0.4525619315	-0.8251174775	 0.104886
H	 0.507927624	-0.3174289583	 0.9466233364	 0.120189
H	-1.6509582872	-2.5245395417	-0.8931850426	 0.124483
H	-0.5430379582	-2.4442025969	 0.4745658803	 0.115083
H	-3.5618121873	-2.7039389022	 0.5840928722	 0.12511
H	-2.3680070963	-3.2607697665	 1.7439386469	 0.114666
H	-3.4238416949	-1.0635655002	 2.7530825775	 0.107956
H	-2.1909447353	 0.926852502	 1.6189562594	 0.123461
73.1195	111.3923	150.7001	175.5299	242.6939	281.4903	393.9332	404.5719	464.1876	496.9959	573.2537	670.947	698.9403	781.2855	785.957	845.5724	908.8266	935.4904	966.741	985.1041	1005.3015	1069.5964	1093.8113	1102.8842	1127.9732	1155.255	1197.3203	1229.5203	1280.2253	1318.872	1320.9532	1365.9773	1392.0938	1418.5033	1481.2077	1495.3904	1499.0791	1688.1333	2338.8076	2991.4892	3024.8476	3052.3062	3069.4692	3087.7359	3121.6447	3195.0029	3231.4996	3793.7272
OCC1(CCC=C1)C#N	OC[C@]1(CCC=C1)C#N	
InChI=1S/C7H9NO/c8-5-7(6-9)3-1-2-4-7/h1,3,9H,2,4,6H2	InChI=1S/C7H9NO/c8-5-7(6-9)3-1-2-4-7/h1,3,9H,2,4,6H2/t7-/m1/s1
