15
gdb 31442	2.95899	1.36176	0.93799	5.2693	73.66	-0.2437	-0.0698	0.1739	1171.9031	0.113111	-453.968675	-453.9609	-453.959956	-454.001496	28.861	
O	 0.0948951432	 1.3974873304	-0.0250791779	-0.418648
C	 0.0377500085	 0.0058894912	-0.0175187165	-0.118957
C	-1.3753884191	-0.5268219973	-0.0000353517	 0.297998
N	-2.3212700588	 0.3567181721	 0.0055021789	-0.35396
C	-3.6442293006	-0.0310521712	 0.0209670225	 0.430905
N	-4.6050085691	 0.7871341338	 0.0246097009	-0.517578
O	-3.9220964167	-1.4286022238	 0.0337172973	-0.226023
C	-2.9185465603	-2.312357951	 0.0268359316	 0.102495
C	-1.625865268	-1.9443845513	 0.0097447373	-0.239384
H	-0.8298111132	 1.6972975639	-0.0173298249	 0.30346
H	 0.545456077	-0.4179255839	-0.9016670012	 0.117006
H	 0.564061347	-0.4090865224	 0.8598846391	 0.117046
H	-5.4968704877	 0.2945321044	 0.0364974588	 0.230783
H	-3.2783604659	-3.3356697362	 0.0368286749	 0.151789
H	-0.8284637162	-2.6741024387	 0.0044024108	 0.123066
72.6952	124.7895	185.7485	200.8261	370.4536	402.9974	440.1879	486.3221	585.2476	603.4282	606.4477	726.965	763.7956	788.6982	832.8516	852.0681	966.6191	974.7887	1018.9013	1073.9367	1107.0149	1131.5069	1183.9156	1250.3875	1262.7649	1300.9661	1336.855	1448.2373	1469.5477	1499.4991	1595.5475	1698.5101	1756.3877	2958.0942	2968.3491	3199.2187	3236.3761	3513.8477	3655.1194
OCC1=NC(=N)OC=C1	OCC1=CCOC(=N1)[NH]	
InChI=1S/C5H6N2O2/c6-5-7-4(3-8)1-2-9-5/h1-2,6,8H,3H2	InChI=1S/C5H7N2O2/c6-5-7-4(3-8)1-2-9-5/h1,6,8H,2-3H2
