19
gdb 18958	6.05354	1.3413	1.33122	1.7513	75.7	-0.2282	0.0775	0.3057	1013.4816	0.166272	-327.828334	-327.821212	-327.820268	-327.859745	27.787	
C	-0.1259194092	 1.5931330625	 0.034785312	-0.375578
C	 0.1557712654	 0.0947396772	-0.1278562338	-0.217478
C	 0.7792998109	-0.5253756987	 1.1133008886	 0.021762
C	-0.0936612513	-0.8614922588	 2.3340172377	-0.012477
C	-0.6634401148	-2.1812348809	 1.7246348254	-0.072017
C	-0.2039766206	-2.9308313777	 2.9681413957	-0.184931
N	 0.9321990414	-1.9227136092	 2.8210817018	-0.165125
C	 0.8259869153	-2.0513829299	 1.2757798412	-0.0298
H	 0.7931748731	 2.1454766519	 0.2589947662	 0.117742
H	-0.5561729256	 2.0179564106	-0.8772138775	 0.113021
H	-0.8298970707	 1.7785853308	 0.8531543794	 0.117268
H	-0.7749889326	-0.4300347376	-0.3776734171	 0.095326
H	 0.8310517667	-0.059440677	-0.9795408272	 0.098464
H	 1.7225509306	-0.0353333928	 1.3852708318	 0.077333
H	-0.5801810623	-0.2029507036	 3.0570523047	 0.077643
H	-1.553486661	-2.3164136016	 1.1015513988	 0.065398
H	-0.7800929179	-2.8063214786	 3.8913933878	 0.098242
H	 0.1197118371	-3.9713195508	 2.856664962	 0.098218
H	 1.4260244855	-2.7950944457	 0.7461668826	 0.076989
83.744	165.9562	190.9319	272.6967	353.451	465.3141	521.4747	712.3298	734.9312	802.6355	819.1919	846.3564	860.4607	901.1289	910.7427	922.8412	968.8193	1026.8064	1028.2008	1046.6631	1057.0474	1104.3763	1108.9088	1128.4451	1150.966	1170.6785	1181.3856	1196.1683	1233.5773	1257.5172	1274.6103	1292.7961	1315.0276	1352.2172	1408.9331	1415.6775	1486.0703	1500.143	1507.135	1518.066	3019.1975	3030.0866	3031.1459	3034.0008	3047.4458	3055.8167	3085.2179	3089.7844	3093.033	3099.7146	3104.9369
CCC1C2C3CN2C13	CC[C@H]1[C@H]2[C@@H]3CN2[C@H]13	
InChI=1S/C7H11N/c1-2-4-6-5-3-8(6)7(4)5/h4-7H,2-3H2,1H3	InChI=1S/C7H11N/c1-2-4-6-5-3-8(6)7(4)5/h4-7H,2-3H2,1H3/t4-,5-,6-,7+
