16
gdb 45943	2.23031	1.96221	1.14808	2.4366	70.55	-0.243	-0.0564	0.1866	1031.2009	0.124484	-437.90979	-437.90189	-437.900946	-437.942734	29.227	
O	 0.0664472981	 0.0527059039	-0.3463156416	-0.33365
C	 0.018929878	 1.2284962554	-0.0711036148	 0.328582
C	-1.2324586705	 2.0453850726	 0.2552870571	-0.344022
C	-0.8235427171	 3.5246053292	 0.0978384624	-0.343298
C	 0.7129074708	 3.5574315045	 0.0807631298	 0.335597
O	 1.4000547058	 4.5419338773	 0.162161903	-0.3068
C	 1.1982179858	 2.1425552291	-0.0266863047	 0.116574
C	 2.4666094557	 1.6767554846	 0.645855391	-0.251296
N	 2.418451008	 1.8004077274	-0.790448963	-0.329071
H	-2.0650984534	 1.7330445462	-0.3787073939	 0.14251
H	-1.5169583273	 1.8150552465	 1.2891867088	 0.145973
H	-1.1660063087	 3.934642729	-0.859619965	 0.149181
H	-1.207648254	 4.1850249298	 0.8783360034	 0.141345
H	 3.0458623038	 2.4417311927	 1.1551786548	 0.152757
H	 2.4390926425	 0.6896481304	 1.0999085466	 0.141308
H	 2.2419577326	 0.8777206114	-1.1951638139	 0.25431
69.3521	93.0905	220.2397	228.2369	240.7533	343.9484	509.2108	540.3429	568.8835	574.5026	639.3449	668.407	773.5095	863.6571	869.7221	920.3616	980.6616	997.0908	1007.0971	1051.7851	1095.3032	1129.2199	1143.3621	1147.3185	1235.1588	1268.3733	1298.4744	1302.345	1317.984	1390.5958	1447.9577	1463.0436	1485.607	1815.4455	1856.0731	3047.7752	3051.7575	3107.7934	3110.0598	3117.1287	3213.2768	3437.7428
O=C1CCC(=O)C11CN1	O=C1CCC(=O)C21CN2	
InChI=1S/C6H7NO2/c8-4-1-2-5(9)6(4)3-7-6/h7H,1-3H2	InChI=1S/C6H7NO2/c8-4-1-2-5(9)6(4)3-7-6/h7H,1-3H2
