17
gdb 84396	2.40838	1.45026	1.19845	4.4271	69.52	-0.24	-0.0287	0.2113	1078.596	0.13517	-458.965689	-458.956996	-458.956052	-458.999738	32.032	
O	-0.1473722281	 1.2920129834	 1.1190634432	-0.433046
C	-0.0572499094	 0.1996242049	 0.2095031067	 0.068492
C	 0.8324794399	-0.8963772428	 0.7679145647	-0.088183
C	 0.1070219345	-1.8900825837	 1.2791996201	-0.097729
C	-1.3766399842	-1.6123630998	 1.1335732747	 0.040862
O	-1.9048075466	-0.9892464291	 2.3191097695	-0.43755
C	-1.4031107999	-0.5541979923	 0.0052854948	-0.131465
C	-2.649616738	 0.3096072087	 0.0002944278	 0.166848
O	-3.5577664611	 0.1475703889	-0.7766321654	-0.265665
H	-0.4638992965	 0.923955319	 1.9550224903	 0.285409
H	 0.3120453669	 0.6314125514	-0.7244229527	 0.096616
H	 1.9112809186	-0.800305467	 0.8090064859	 0.112724
H	 0.4896640695	-2.7597447483	 1.8030547811	 0.104671
H	-1.9742751622	-2.4961590312	 0.8801236844	 0.087429
H	-1.8014824304	-1.5999685716	 3.0563829924	 0.289401
H	-1.3750955562	-1.0892332354	-0.9479691619	 0.104841
H	-2.6760862666	 1.112466625	 0.7604342843	 0.096345
40.755	83.4111	198.1622	222.399	242.2276	285.4896	358.8066	415.9624	469.5326	504.2636	525.6964	580.4462	783.7629	787.3203	833.0535	846.7103	889.5991	971.1748	977.2343	984.1675	994.3858	1058.8176	1103.7862	1116.5394	1134.6121	1191.2144	1246.8186	1282.6362	1292.3181	1320.9812	1343.2221	1352.731	1393.5156	1431.4568	1446.216	1671.5223	1820.4921	2959.7176	3034.042	3077.0369	3087.377	3182.5371	3212.201	3763.0306	3815.5619
OC1C=CC(O)C1C=O	O[C@H]1C=C[C@@H](O)[C@H]1C=O	
InChI=1S/C6H8O3/c7-3-4-5(8)1-2-6(4)9/h1-6,8-9H	InChI=1S/C6H8O3/c7-3-4-5(8)1-2-6(4)9/h1-6,8-9H/t4-,5-,6+
