19
gdb 76835	2.66297	1.48777	1.25373	4.1467	75.29	-0.2335	-0.0132	0.2203	1074.8018	0.157989	-423.015806	-423.007084	-423.00614	-423.049602	33.051	
C	-0.9431403233	 1.1332562056	-0.0652100324	-0.42674
C	-0.1011802818	-0.1306485209	 0.0230593367	 0.003311
C	 1.0934001949	-0.3073489379	-0.9806100489	 0.081819
O	 1.5689516065	 0.8634466649	-1.6113081921	-0.413187
C	 2.026354635	-0.7250537912	 0.1950091541	-0.186006
C	 0.8756101697	-0.3456833279	 1.2105296601	-0.051087
C	 1.6965461956	 0.8907566535	 1.686030757	-0.367582
C	 2.8461651541	 0.4410338478	 0.7635643477	 0.442962
O	 3.9854961136	 0.7803683091	 0.6439937779	-0.301818
H	-0.3203881051	 2.029473122	-0.1276813026	 0.130365
H	-1.5856688246	 1.1161499473	-0.95357476	 0.109701
H	-1.5966731102	 1.2307917102	 0.8081753698	 0.120362
H	-0.7521643293	-1.0085217662	-0.0552407238	 0.073725
H	 0.9351686454	-1.1091452535	-1.7129906402	 0.074731
H	 0.9556376403	 1.1027315685	-2.3137417627	 0.288671
H	 2.5160126295	-1.6957052458	 0.1153656436	 0.086813
H	 0.5554283738	-1.0220861988	 2.0021926771	 0.07446
H	 1.2846166299	 1.87902502	 1.4673263479	 0.130138
H	 1.9809832359	 0.8671809433	 2.7428133206	 0.129362
36.1411	125.4488	180.4157	225.308	245.6744	282.1134	385.9915	413.5008	434.1436	535.5042	551.6364	617.6331	720.6494	747.0065	789.5499	852.4357	888.5557	921.9502	956.0212	982.3897	1009.8274	1049.9706	1074.5459	1103.2219	1124.4838	1149.5994	1163.2304	1176.8114	1203.9332	1225.8295	1259.0063	1269.9902	1312.6615	1326.1057	1358.7441	1399.5004	1416.7139	1436.9532	1490.0276	1506.3867	1893.1563	3009.2713	3028.8659	3042.3656	3059.9072	3088.8224	3107.7815	3114.3417	3117.7368	3121.5601	3815.923
CC1C(O)C2C1CC2=O	C[C@H]1[C@@H](O)[C@@H]2[C@H]1CC2=O	
InChI=1S/C7H10O2/c1-3-4-2-5(8)6(4)7(3)9/h3-4,6-7,9H,2H2,1H3	InChI=1S/C7H10O2/c1-3-4-2-5(8)6(4)7(3)9/h3-4,6-7,9H,2H2,1H3/t3-,4+,6-,7-/m1/s1
