20
gdb 6862	3.18865	1.83426	1.62729	0.117	70.85	-0.232	0.0852	0.3171	914.8035	0.177266	-386.1469	-386.138858	-386.137914	-386.178544	31.541	
C	 0.0358364049	 1.4973260823	 0.0436092979	-0.420789
C	-0.0527160817	-0.0251549421	-0.0147319611	 0.348998
C	-1.5162332953	-0.4931454566	-0.0176654214	-0.42429
C	 0.6989868797	-0.5623168167	-1.2455758283	-0.095886
O	 0.8423245511	-1.9722940409	-1.1981379716	-0.253185
C	 1.5698418753	-2.3602238288	-0.0432103359	-0.079485
C	 0.8539768302	-1.8830012933	 1.2140522828	-0.084786
O	 0.6314563051	-0.4827085838	 1.1677683779	-0.293432
H	 1.0794670787	 1.8162003457	 0.1139225156	 0.120602
H	-0.4119306985	 1.9481866323	-0.8474267031	 0.11246
H	-0.4943157529	 1.8717913598	 0.9238779138	 0.123792
H	-2.0757158452	 0.0183704192	-0.8072772021	 0.112498
H	-1.594393403	-1.5670815057	-0.2008570652	 0.127444
H	-1.9851326766	-0.261301831	 0.942792262	 0.119084
H	 0.152323174	-0.3340008625	-2.1656738065	 0.104288
H	 1.6911845747	-0.0844016053	-1.2979173883	 0.085778
H	 1.645620208	-3.4517305393	-0.0642644946	 0.105382
H	 2.5864938089	-1.9340478737	-0.0768959787	 0.091049
H	-0.0923320783	-2.4318206744	 1.3310147237	 0.095262
H	 1.465391761	-2.0680161555	 2.1035121432	 0.105216
150.7796	200.4758	223.4585	247.2618	306.855	326.9872	367.2573	412.0106	449.6977	474.8488	510.1527	627.2547	752.6431	859.0114	878.2777	907.3784	927.8717	939.831	982.2278	1018.4101	1054.6934	1118.4691	1132.7292	1141.7221	1204.3127	1231.4374	1250.9415	1275.5972	1301.8923	1333.969	1377.4742	1392.2812	1404.9458	1414.2041	1423.8469	1472.9726	1481.0298	1486.1405	1490.6405	1492.8198	1499.8794	1518.2227	2966.9809	2973.0449	2998.385	3040.4768	3045.7752	3075.7385	3082.0068	3085.6205	3110.8875	3118.4545	3119.599	3130.9126
CC1(C)COCCO1	CC1(C)COCCO1	
InChI=1S/C6H12O2/c1-6(2)5-7-3-4-8-6/h3-5H2,1-2H3	InChI=1S/C6H12O2/c1-6(2)5-7-3-4-8-6/h3-5H2,1-2H3
