15
gdb 44869	3.59878	1.68168	1.53788	3.7609	62.75	-0.263	0.003	0.266	871.4211	0.115498	-457.784588	-457.778625	-457.777681	-457.81484	24.637	
O	-0.0217394708	 0.0217776045	 0.0466693794	-0.33975
C	 0.0135554265	 1.2131214733	 0.0149559314	 0.47405
O	-1.0940312928	 2.0259816114	 0.0346986423	-0.243073
C	-0.5530752611	 3.3722203795	 0.0527997117	 0.178367
O	 0.6028467606	 3.2736453866	-0.7505847564	-0.24351
C	 1.198796071	 2.1995623035	-0.0064311725	-0.124884
C	 1.2490829429	 2.7582110872	 1.4267259272	-0.049315
C	 1.3397659454	 4.2570594152	 1.5560393711	-0.309608
C	-0.0134498162	 3.601906112	 1.4650053105	-0.074946
H	-1.2810973176	 4.057931905	-0.3744771176	 0.11398
H	 2.1117035874	 1.8422088493	-0.4747958037	 0.119332
H	 1.5309841745	 2.1007510225	 2.2383559133	 0.121122
H	 1.6258051036	 4.6319107048	 2.5323919536	 0.125609
H	 1.7003749231	 4.8368850812	 0.7150389353	 0.136794
H	-0.7035142565	 3.5859276038	 2.2979371646	 0.115833
155.9529	297.1103	354.7324	474.9243	482.6362	593.9462	651.6783	735.2532	744.7083	789.2888	830.8151	849.3001	874.1124	891.424	919.3251	954.2059	985.8733	1015.4976	1050.9808	1076.02	1082.1529	1097.1986	1103.8491	1158.7891	1187.7417	1224.5928	1263.6908	1301.6283	1326.0618	1333.7646	1376.3701	1472.9642	1910.5549	3145.4161	3159.6655	3171.4052	3205.4273	3212.494	3236.1704
O=C1OC2OC1C1CC21	O=C1O[C@@H]2O[C@H]1[C@H]1C[C@@H]21	
InChI=1S/C6H6O3/c7-5-4-2-1-3(2)6(8-4)9-5/h2-4,6H,1H2	InChI=1S/C6H6O3/c7-5-4-2-1-3(2)6(8-4)9-5/h2-4,6H,1H2/t2-,3+,4-,6-/m0/s1
