20
gdb 28902	2.24206	1.75059	1.00126	2.8773	89.39	-0.2403	-0.014	0.2263	1209.8355	0.171385	-366.092294	-366.083182	-366.082238	-366.126032	33.94	
C	 0.0517692695	 1.5168567421	-0.0203337105	-0.502029
C	 0.0276266537	 0.010638194	 0.0127851835	 0.22359
C	-0.007523184	-0.7143938293	-1.1780769329	-0.06791
N	-0.0307826039	-2.0448778715	-1.2524977238	-0.288951
C	-0.0190398402	-2.7057590691	-0.0965126004	-0.066954
C	 0.0153938144	-2.1065828082	 1.1654070544	 0.212628
C	 0.025159289	-2.9782246712	 2.3978606919	-0.506312
C	 0.0394786579	-0.704268296	 1.2225544276	 0.132841
C	 0.0771785345	 0.0429236756	 2.5327280354	-0.500805
H	 0.9480355039	 1.9211492199	 0.4651238987	 0.129732
H	 0.0369592005	 1.8832839792	-1.0499798676	 0.126749
H	-0.8102672167	 1.9501291802	 0.5007914586	 0.129712
H	-0.0173072268	-0.1803765154	-2.1270968083	 0.095529
H	-0.0382097498	-3.7923277983	-0.1669250017	 0.095549
H	 0.9212175789	-2.8179768253	 3.0080163073	 0.131629
H	-0.8408457492	-2.7893286899	 3.0422534211	 0.131631
H	 0.0025486098	-4.034787838	 2.1182942549	 0.126442
H	 0.9674044133	 0.679582126	 2.598256687	 0.135143
H	-0.7883437926	 0.7085907831	 2.6322011757	 0.135146
H	 0.0827371078	-0.6259940378	 3.3933041891	 0.126639
70.4941	131.5004	164.9747	180.1899	236.5679	271.9227	296.5599	326.1247	457.5299	485.7453	513.9946	549.9434	574.6693	657.4755	762.1835	828.2189	911.9244	913.7097	968.1724	1007.8168	1018.0571	1034.9678	1063.3727	1078.6717	1097.5804	1194.6575	1216.1017	1293.9819	1299.0838	1311.6772	1407.2099	1415.0973	1421.5054	1450.8085	1464.3243	1475.5178	1485.4351	1492.0739	1499.4189	1500.9834	1515.1352	1609.6178	1622.8951	3023.7996	3028.3805	3031.0016	3071.811	3076.312	3080.7815	3111.1714	3113.0529	3133.2714	3137.4936	3144.4014
CC1=CN=CC(C)=C1C	Cc1cncc(C)c1C	
InChI=1S/C8H11N/c1-6-4-9-5-7(2)8(6)3/h4-5H,1-3H3	InChI=1S/C8H11N/c1-6-4-9-5-7(2)8(6)3/h4-5H,1-3H3
