15
gdb 25603	4.08004	0.98852	0.8287	1.865	67.43	-0.213	-0.0352	0.1778	1303.6008	0.112736	-453.968233	-453.960128	-453.959183	-454.002286	28.692	
O	 0.813399751	 1.1255402123	 1.2996253118	-0.234411
C	 0.526637599	 1.7375246504	 0.3056027954	 0.170808
C	 1.1578168427	 1.4906775044	-1.0627046871	-0.266161
N	 1.2680892914	 2.719952961	-1.8163057923	-0.388806
C	 2.2969041255	 3.585631297	-1.4898809742	 0.299039
C	 3.0823076344	 3.6514646096	-0.3776524414	-0.121667
O	 3.9197342335	 4.7370112319	-0.5385926952	-0.14079
C	 3.5917568521	 5.239758442	-1.7369526894	 0.085113
N	 2.6425060211	 4.6129815572	-2.3559961043	-0.324744
H	-0.245870919	 2.5389126806	 0.2985019058	 0.094066
H	 2.1152052544	 0.9671861512	-0.9173068451	 0.126633
H	 0.4819896579	 0.8136436818	-1.5993741495	 0.137552
H	 1.1238357832	 2.650133464	-2.812285637	 0.254219
H	 3.175977176	 3.0942103551	 0.5359471789	 0.155975
H	 4.1406842666	 6.1053630716	-2.0733089265	 0.153174
48.9841	72.7254	110.783	193.0674	286.9422	379.4865	418.8691	505.4031	608.2284	631.9082	665.1902	687.6069	737.3683	781.4563	848.6078	937.7748	996.7399	1040.1617	1079.7764	1107.2549	1127.9762	1165.3219	1236.6591	1274.3215	1292.6026	1330.1479	1357.1103	1401.8026	1451.628	1489.2579	1565.8648	1659.6038	1839.8779	2891.8604	2991.8644	3066.7983	3275.815	3312.7971	3615.7534
O=CCNC1=COC=N1	O=CCNc1cocn1	
InChI=1S/C5H6N2O2/c8-2-1-6-5-3-9-4-7-5/h2-4,6H,1H2	InChI=1S/C5H6N2O2/c8-2-1-6-5-3-9-4-7-5/h2-4,6H,1H2
