21
gdb 94922	2.20453	1.41159	1.14413	3.6153	83.28	-0.2394	-0.017	0.2223	1189.4592	0.183354	-387.105991	-387.09731	-387.096365	-387.139457	33.164	
C	-0.2684060424	 1.4643561796	-0.1644957542	-0.403459
C	-0.0915066427	-0.0510581103	-0.0422258474	 0.033583
C	 0.4427450448	-0.737618126	-1.3272370481	-0.246301
C	 1.2695279157	-1.960842041	-0.8581489883	-0.228267
C	 1.638741334	-1.6880687598	 0.59769304	-0.071962
C	 2.362275343	-0.3951439079	 0.9782211433	-0.109124
C	 3.1247778276	 0.4634374226	 0.0431148113	 0.144682
O	 4.1043833164	 1.088999274	 0.3785066165	-0.277476
C	 0.8341352984	-0.5221439595	 1.0768556076	-0.069412
H	 0.6820470887	 1.9607314977	-0.3876427261	 0.123034
H	-0.9713142077	 1.712820606	-0.966760254	 0.115362
H	-0.6574089609	 1.8952134094	 0.7637411642	 0.116465
H	-1.073545995	-0.4853405447	 0.1921205229	 0.079661
H	-0.3733433073	-1.0306212843	-1.9935866221	 0.101945
H	 1.0626953959	-0.039411183	-1.8975267748	 0.110861
H	 0.6554848344	-2.8680767748	-0.883671937	 0.107872
H	 2.1361718111	-2.151534344	-1.4992847393	 0.10763
H	 1.8444000132	-2.5406749818	 1.2358944799	 0.095098
H	 2.8544220812	-0.4277828485	 1.9461384654	 0.105538
H	 2.7713025986	 0.5047244577	-1.0069779592	 0.069887
H	 0.4486419431	-0.4782394316	 2.0902916993	 0.094382
69.8647	134.4884	165.0068	206.9945	238.7084	266.7324	347.7559	389.9692	469.0595	540.4972	613.729	670.5594	746.8076	818.3678	829.9163	849.041	921.3368	935.3544	957.7585	986.8505	998.293	1045.938	1053.4702	1059.3187	1086.2536	1123.7895	1136.7109	1154.5577	1210.2065	1232.3897	1240.6409	1300.7947	1316.861	1332.3806	1335.4571	1346.9985	1376.5142	1403.293	1415.3038	1452.5191	1494.806	1496.1794	1499.2931	1513.6099	1797.3147	2921.2737	3002.0691	3030.6781	3040.2513	3053.9186	3074.6791	3093.8297	3099.376	3102.2026	3152.3564	3158.5569	3172.2762
CC1CCC2C(C=O)C12	C[C@H]1CC[C@H]2[C@@H](C=O)[C@@H]12	
InChI=1S/C8H12O/c1-5-2-3-6-7(4-9)8(5)6/h4-8H,2-3H2,1H3	InChI=1S/C8H12O/c1-5-2-3-6-7(4-9)8(5)6/h4-8H,2-3H2,1H3/t5-,6-,7+,8-/m0/s1
