20
gdb 26155	2.48243	1.4085	0.95741	2.5574	82.65	-0.1949	0.0401	0.2349	1256.1833	0.17093	-403.193003	-403.18349	-403.182546	-403.22729	35.776	
C	 0.1745770575	 1.2391337783	 1.2221197966	-0.393852
C	-0.1811855259	 0.4885385986	-0.0624289489	 0.020608
O	 0.8453279864	-0.4666262656	-0.3845316965	-0.426982
C	-1.5441610049	-0.1569690148	-0.0232607358	 0.173222
C	-2.0893194215	-0.9346582643	-1.0340090704	 0.218806
C	-1.5519206151	-1.3159634955	-2.3758639655	-0.516987
N	-3.334960302	-1.3301810587	-0.6139154848	-0.286149
C	-3.6037566307	-0.829110449	 0.636003686	-0.096388
C	-2.5104828557	-0.0974592684	 1.028252576	-0.255625
H	 1.1844233288	 1.6479890497	 1.1375305178	 0.116481
H	-0.5224192003	 2.0626739623	 1.4074993455	 0.115513
H	 0.1469153937	 0.5681049394	 2.0879271233	 0.108975
H	-0.133238043	 1.2005822098	-0.8966819771	 0.086804
H	 0.6935245854	-1.2318812097	 0.1815564639	 0.27155
H	-0.4666940974	-1.202933881	-2.3770218647	 0.162355
H	-1.7833746745	-2.3592767834	-2.6224257199	 0.114332
H	-1.9627026701	-0.6929585071	-3.1813823371	 0.125531
H	-3.9534883049	-1.9176555628	-1.1463342043	 0.254986
H	-4.5356295262	-1.0418352452	 1.1342563368	 0.11498
H	-2.4103560594	 0.4271876776	 1.9655412191	 0.091839
49.7451	134.6284	165.4575	192.1935	237.4389	266.6635	294.5755	303.9328	382.9718	442.4048	497.6533	501.7955	613.4331	639.8902	688.4376	697.915	737.368	829.8343	885.9478	917.4951	984.6089	1015.9673	1055.0514	1062.6544	1086.5814	1113.947	1121.8442	1177.0736	1268.803	1270.5087	1308.8805	1361.2465	1397.7965	1406.3971	1419.6552	1433.1578	1472.467	1490.5484	1494.4147	1496.0391	1503.2046	1518.793	1613.4657	3013.0031	3017.5532	3033.3424	3060.8638	3102.3229	3122.5062	3138.7617	3249.5702	3271.1125	3671.3823	3796.3694
CC(O)C1=C(C)NC=C1	C[C@@H](O)c1c(C)[nH]cc1	
InChI=1S/C7H11NO/c1-5-7(6(2)9)3-4-8-5/h3-4,6,8-9H,1-2H3	InChI=1S/C7H11NO/c1-5-7(6(2)9)3-4-8-5/h3-4,6,8-9H,1-2H3/t6-/m1/s1
