20
gdb 82911	2.67712	1.51118	1.44846	2.2152	77.95	-0.2124	0.0654	0.2778	1038.1765	0.171907	-403.105492	-403.097412	-403.096468	-403.137521	32.569	
C	 0.1241877721	 1.5358529656	-0.0020859698	-0.47591
C	-0.0325621866	 0.0334356325	 0.0553130735	 0.335165
C	-0.6228692593	-0.6286057714	 1.2523337816	-0.304234
N	 0.8281280341	-0.7100061772	 1.0016600264	-0.134086
C	 1.3021076098	-1.9378784626	 0.322581264	-0.185414
C	 0.9041624165	-1.8783038518	-1.1579321668	-0.115759
C	-0.5419819842	-2.0676711754	-1.5332747286	 0.074938
O	-1.4764492752	-2.669934833	-0.6837283347	-0.407228
C	-0.0256903691	-0.6739296742	-1.2897421053	-0.13612
H	 0.9818520943	 1.8213797784	-0.6221642741	 0.114654
H	-0.7708105065	 2.0066879976	-0.4244920364	 0.115775
H	 0.2832457233	 1.9386255339	 1.0011380538	 0.125883
H	-0.8835687145	-0.0196465623	 2.1159096913	 0.098057
H	-1.2324399069	-1.5100807021	 1.1069904725	 0.140028
H	 2.3934657251	-1.9694657081	 0.3992227516	 0.108763
H	 0.9151508218	-2.8294917174	 0.8313491259	 0.095639
H	 1.6650095441	-2.1069311568	-1.8976383547	 0.085351
H	-0.7174306159	-2.2928453157	-2.5867339345	 0.088831
H	-1.287497633	-3.6146080168	-0.6648142819	 0.289458
H	 0.0198283202	-0.0237617729	-2.1567179837	 0.086208
128.1966	205.6315	235.826	237.471	286.4139	307.8395	361.1361	452.6675	521.6184	576.1162	638.018	687.4292	721.0761	754.4188	786.6329	812.5042	859.6336	946.2518	967.9473	980.2807	1019.8527	1027.4115	1049.9445	1068.1131	1102.3693	1117.306	1122.5046	1134.5967	1167.1304	1230.194	1241.692	1253.2245	1291.04	1326.5134	1348.6294	1365.4489	1391.6337	1413.7745	1456.7164	1486.2441	1494.47	1495.5862	1514.8913	3027.0167	3028.3931	3070.2531	3079.6683	3087.5177	3104.6401	3120.7113	3152.4544	3167.3897	3235.0624	3798.8661
CC12CN1CC1C(O)C21	C[C@]12CN1C[C@H]1[C@@H](O)[C@@H]21	
InChI=1S/C7H11NO/c1-7-3-8(7)2-4-5(7)6(4)9/h4-6,9H,2-3H2,1H3	InChI=1S/C7H11NO/c1-7-3-8(7)2-4-5(7)6(4)9/h4-6,9H,2-3H2,1H3/t4-,5+,6-,7-,8?/m1/s1
