21
gdb 56757	2.79055	1.27937	1.03239	0.4663	87.93	-0.2469	0.0545	0.3014	1243.2601	0.181404	-349.897263	-349.888063	-349.887119	-349.931081	35.543	
C	-0.0661215831	 1.6138079311	 0.2603482328	-0.387843
C	-0.0215478131	 0.0836481018	 0.0503204833	-0.276403
C	 0.7848183199	-0.5662686823	 1.083020114	 0.332252
C	 1.4404112521	-1.0940140646	 1.9420569567	-0.479615
C	-1.4215985155	-0.4988745985	-0.0292332001	 0.403823
C	-2.2455767921	-0.8721329427	 1.1715700337	-0.324352
C	-1.9276841412	-1.9317331198	 0.1484878071	-0.111471
C	-2.8527227996	-1.7811557657	-1.0642360264	-0.22112
C	-2.346270771	-0.3116095756	-1.2443902273	-0.300594
H	 0.9414442236	 2.0376921976	 0.2576683155	 0.121988
H	-0.6437778695	 2.0871196182	-0.5395341301	 0.118262
H	-0.5394044226	 1.8536001709	 1.2163578812	 0.129056
H	 0.4682013804	-0.1053203274	-0.9168891086	 0.101385
H	 2.0293398712	-1.5611917268	 2.6920077812	 0.194662
H	-1.6906729726	-0.9544295899	 2.1002098389	 0.121932
H	-3.2629392064	-0.5009165632	 1.2813957066	 0.096485
H	-1.364751649	-2.8181771209	 0.4152183063	 0.090944
H	-2.5730673537	-2.4192063476	-1.9054434167	 0.102308
H	-3.9223176095	-1.9124231055	-0.8689332358	 0.094992
H	-3.0929494351	 0.485576625	-1.1651600423	 0.094263
H	-1.7952909034	-0.177980534	-2.1797136503	 0.099045
60.1353	124.6148	164.9777	200.518	233.1041	262.8075	324.2676	377.9392	422.4868	491.2613	545.6673	620.9617	634.9202	684.47	712.2435	787.2771	834.4814	859.6219	890.8113	929.0362	949.9649	973.4103	1001.4582	1019.1498	1041.3517	1076.7344	1091.6204	1108.094	1120.1129	1157.4393	1197.6696	1223.7696	1242.1186	1269.1345	1285.524	1321.7402	1351.7307	1388.3082	1404.7015	1481.1641	1484.2276	1492.4973	1497.5833	1510.8527	2232.1328	2988.4022	3037.8611	3042.1701	3047.4144	3086.1097	3100.4012	3108.6195	3116.0892	3124.7371	3183.3716	3204.2264	3503.6059
CC(C#C)C12CC1CC2	C[C@@H](C#C)[C@]12C[C@H]1CC2	
InChI=1S/C9H12/c1-3-7(2)9-5-4-8(9)6-9/h1,7-8H,4-6H2,2H3	InChI=1S/C9H12/c1-3-7(2)9-5-4-8(9)6-9/h1,7-8H,4-6H2,2H3/t7-,8+,9-/m0/s1
