17
gdb 30574	6.57457	0.67607	0.61771	3.5152	91.33	-0.2082	-0.005	0.2033	1793.1812	0.137353	-380.893101	-380.884379	-380.883435	-380.928118	31.171	
C	 0.0383539314	 1.5281949736	 0.009677187	-0.364539
C	-0.0365414377	-0.0101426864	 0.0028206962	-0.331723
C	-1.4063403594	-0.5076113004	 0.0133466788	 0.25007
C	-2.552568812	-0.8858131584	 0.0219754831	-0.076007
C	-3.885807039	-1.3540670273	 0.0310048227	 0.166141
N	-4.9937723316	-0.6276081621	 0.0421428297	-0.304327
C	-6.0248710761	-1.5275245706	 0.0475987451	-0.098408
C	-5.5509867391	-2.8161453314	 0.0400421014	-0.107406
N	-4.1852449619	-2.6948513926	 0.0296840347	-0.287759
H	 1.0819220065	 1.8558249978	 0.0013446589	 0.11593
H	-0.4631456911	 1.9447652339	-0.8675770207	 0.135223
H	-0.446306187	 1.9360957638	 0.900370806	 0.135197
H	 0.4863165402	-0.3997370393	-0.8806574144	 0.131363
H	 0.502868472	-0.408367469	 0.8723850994	 0.131338
H	-7.0536718742	-1.2009096829	 0.0567847916	 0.106719
H	-6.0404506087	-3.7757171657	 0.0411479647	 0.129282
H	-3.5121652923	-3.442667523	 0.0222212159	 0.268905
27.1825	73.2988	102.3687	185.5631	215.224	307.2857	430.3732	465.9056	508.3636	549.374	577.4489	644.3489	730.127	747.8928	788.1623	861.1955	885.8008	931.5162	979.1843	1050.5231	1090.0563	1103.9656	1108.0803	1143.5192	1192.5467	1279.5528	1283.3014	1346.1339	1403.9926	1411.5686	1427.2697	1474.9178	1485.5695	1494.7159	1505.7939	1572.3787	2353.4922	3015.2538	3041.6158	3047.9257	3122.1328	3129.0541	3248.7748	3279.8666	3668.4541
CCC#CC1=NC=CN1	CCC#Cc1ncc[nH]1	
InChI=1S/C7H8N2/c1-2-3-4-7-8-5-6-9-7/h5-6H,2H2,1H3,(H,8,9)	InChI=1S/C7H8N2/c1-2-3-4-7-8-5-6-9-7/h5-6H,2H2,1H3,(H,8,9)
