16
gdb 71425	4.60187	1.1575	1.05521	4.1363	72.78	-0.2651	0.0319	0.297	1112.0748	0.124883	-400.703976	-400.696619	-400.695674	-400.735636	28.988	
O	-0.048769107	 1.3385523933	-0.0271525252	-0.458422
C	 0.0452331254	-0.0331766911	-0.0421628819	 0.386706
C	 0.87017104	-0.9077636902	-0.9838711572	-0.31494
C	-0.0490287741	-2.0648992559	-0.5009043174	-0.063078
C	-1.1121209995	-0.9871511915	-0.0453506261	-0.117898
C	-0.2733149111	-0.874850538	 1.2143298635	-0.135509
C	 0.3586123641	-2.2558592279	 1.0024303558	-0.174529
C	-0.3686871452	-3.3302709269	 1.6652358493	 0.269786
N	-0.942838529	-4.1868234544	 2.1883456591	-0.327869
H	 0.6802058678	 1.6944667351	 0.4934519537	 0.290598
H	 0.6689725281	-0.6506366317	-2.026935103	 0.116776
H	 1.9498944305	-1.0126352939	-0.8241415949	 0.092774
H	-0.2424632361	-2.931916193	-1.1254977502	 0.101925
H	-2.169359125	-0.8622591156	-0.2211560032	 0.113552
H	-0.5419674384	-0.4001403082	 2.1485674772	 0.108372
H	 1.4303883993	-2.3699003302	 1.2023125306	 0.111757
124.306	143.8187	266.1879	321.6499	358.3005	393.144	449.4222	478.8785	550.172	629.6668	756.7854	788.9607	831.6228	849.824	883.3425	917.7907	923.43	949.6839	980.5591	1028.986	1034.3577	1060.6004	1118.9866	1125.9345	1138.9684	1181.8732	1208.7397	1239.1587	1247.4102	1284.3995	1310.6655	1345.3695	1441.3683	1506.4982	2354.2606	3032.0511	3043.3705	3107.4007	3164.2113	3210.2193	3243.4237	3791.3265
OC12CC3C1C2C3C#N	O[C@]12C[C@@H]3[C@H]1[C@H]2[C@H]3C#N	
InChI=1S/C7H7NO/c8-2-4-3-1-7(9)5(3)6(4)7/h3-6,9H,1H2	InChI=1S/C7H7NO/c8-2-4-3-1-7(9)5(3)6(4)7/h3-6,9H,1H2/t3-,4-,5-,6+,7+/m0/s1
