20
gdb 22445	2.12874	1.13302	0.92366	0.4539	84.13	-0.2473	0.0076	0.2549	1386.6245	0.16721	-403.081598	-403.070856	-403.069912	-403.117685	38.974	
C	-0.1046206714	 1.5593413524	 0.0199264874	-0.378858
C	 0.0558647652	 0.0277540031	-0.0122580142	-0.265356
C	 0.7072255567	-0.4999146484	 1.2417814144	 0.359567
N	 0.1089034192	-0.6954433914	 2.3515155044	-0.17259
O	-1.257760309	-0.3763560951	 2.2782789162	-0.401259
C	 2.2058651371	-0.7910351512	 1.2155286554	-0.216876
C	 2.8087510481	-1.1289119263	 2.5906766417	-0.385031
C	 2.4909067223	-1.846627338	 0.2381271684	 0.344442
C	 2.7246177677	-2.7228248022	-0.5510950729	-0.496828
H	 0.8631660847	 2.0612326925	 0.1237752788	 0.114257
H	-0.56629547	 1.9143822022	-0.9062361482	 0.116526
H	-0.7374036607	 1.8600143392	 0.8580278579	 0.139581
H	-0.9290686171	-0.4356994691	-0.1164300113	 0.128889
H	 0.6563751606	-0.2703922594	-0.8764107033	 0.112498
H	-1.5626213083	-0.5984861175	 3.164159665	 0.30602
H	 2.6896722536	 0.1279567799	 0.8478478768	 0.116211
H	 2.625799947	-0.3142970326	 3.2945654369	 0.123904
H	 2.3577566924	-2.0355946232	 2.9972284376	 0.139646
H	 3.8857726518	-1.2849447182	 2.4920461665	 0.116579
H	 2.93383995	-3.4949376967	-1.2494875974	 0.198676
44.2944	68.0973	120.5891	175.8197	217.2008	226.5122	240.2784	257.6967	313.5608	333.4737	404.0672	421.529	455.2748	549.5713	586.9754	622.7279	644.3842	729.0602	748.0842	806.1411	864.02	968.4361	977.4874	1029.026	1046.7551	1088.5563	1112.6005	1126.9231	1218.2563	1288.8798	1308.3448	1319.3856	1351.854	1399.9417	1402.2907	1412.3557	1485.4208	1486.5663	1494.2554	1497.3583	1509.6972	1731.786	2232.4587	2979.5056	3039.7141	3057.8874	3058.4424	3096.8717	3110.061	3131.6629	3133.7517	3145.1541	3503.8513	3821.6242
CCC(=NO)C(C)C#C	CCC(=NO)[C@@H](C)C#C	
InChI=1S/C7H11NO/c1-4-6(3)7(5-2)8-9/h1,6,9H,5H2,2-3H3	InChI=1S/C7H11NO/c1-4-6(3)7(5-2)8-9/h1,6,9H,5H2,2-3H3/t6-/m0/s1
