22
gdb 56150	3.09402	0.91426	0.84976	6.952	78.95	-0.2357	0.0349	0.2706	1464.2346	0.193143	-441.534016	-441.523825	-441.52288	-441.569451	38.348	
C	-0.8402606761	 1.4435443726	 0.3176651271	-0.408477
C	 0.1888498431	 0.3233414915	 0.0783686827	 0.240906
C	 1.1116711055	 0.2046866247	 1.2989262328	-0.405201
N	-0.4898149344	-0.9874623569	-0.0970728669	-0.530406
H	-1.308615296	-0.8774977665	-0.6919234069	 0.244269
H	 0.4868716511	-1.9557837359	-1.146247553	 0.320171
H	-0.8284994388	-1.3345729871	 0.7962603478	 0.239426
C	 0.9769720529	 0.6430146565	-1.2167727816	-0.211152
C	 2.1804820671	-0.2515352052	-1.593255176	-0.341409
C	 1.9147992683	-1.5374057949	-2.3870123379	 0.382046
O	 0.9607112056	-2.3522256939	-1.9281352316	-0.382644
O	 2.5638798539	-1.8177211546	-3.3636770527	-0.335393
H	-0.3500850295	 2.4063331542	 0.494196556	 0.123789
H	-1.5004471978	 1.5600423519	-0.5494153665	 0.115285
H	-1.4627751281	 1.2184555515	 1.1903735102	 0.110814
H	 0.5211949935	 0.1091653318	 2.21712928	 0.113626
H	 1.7629158688	-0.6702383365	 1.2305012567	 0.132463
H	 1.7393677842	 1.094511529	 1.3994572318	 0.126817
H	 0.2678486181	 0.6719277821	-2.0545864027	 0.105145
H	 1.3515237484	 1.667528946	-1.1133680586	 0.10816
H	 2.8676382137	 0.3242322019	-2.2158870146	 0.13039
H	 2.7440950566	-0.529775822	-0.6947445759	 0.121376
36.9411	73.1809	177.8299	222.4806	239.0085	251.4589	276.2422	329.2097	348.7253	359.6941	403.8188	437.5397	471.2466	506.2793	595.3959	705.649	721.3623	817.9232	887.7486	913.0915	935.5282	949.1568	960.929	980.4833	1020.4032	1037.9449	1063.0623	1104.0173	1175.456	1193.8772	1228.8465	1276.1049	1326.4474	1341.8477	1371.0904	1378.6057	1402.6035	1422.7917	1466.0335	1476.1441	1482.9014	1486.9693	1489.5598	1503.1772	1514.2866	1647.0491	1844.6096	3021.1507	3026.1999	3038.4844	3047.9545	3067.2848	3094.0093	3100.6553	3105.5645	3114.2343	3126.7036	3153.5329	3474.9503	3554.4872
CC(C)([NH3+])CCC([O-])=O	CC(C)(N)CCC(=O)O	
InChI=1S/C6H13NO2/c1-6(2,7)4-3-5(8)9/h3-4,7H2,1-2H3,(H,8,9)	InChI=1S/C6H13NO2/c1-6(2,7)4-3-5(8)9/h3-4,7H2,1-2H3,(H,8,9)
