15
gdb 48318	2.79368	1.53188	1.15155	3.0293	73.77	-0.2388	-0.0322	0.2066	1044.958	0.110017	-420.545755	-420.537633	-420.536689	-420.578385	30.339	
O	-0.4996281598	 0.5262892749	 0.8252942927	-0.26046
C	 0.3162425216	 0.7496014183	-0.0341933189	 0.091161
C	 1.36130855	 1.8191879264	 0.0129167655	-0.01647
C	 1.9683643309	 2.1316814134	-1.2501572224	 0.233911
C	 2.4710080973	 2.3778757572	-2.315243059	-0.39363
C	 1.3788147528	 2.9831010563	 1.0227916489	-0.187584
C	 0.8593026939	 2.5337195156	 2.3899526809	-0.106029
O	 1.8294655356	 1.4382736848	 2.412200801	-0.271479
C	 2.3759138464	 1.8933894117	 1.205209142	 0.087388
H	 0.3679660217	 0.1346240748	-0.9577536708	 0.08858
H	 2.9106020633	 2.5970706338	-3.256838363	 0.19953
H	 1.4907322956	 3.9985019801	 0.6696681806	 0.124516
H	 1.1036171415	 3.2553481404	 3.1755532345	 0.120389
H	-0.1657497013	 2.1788610392	 2.4690057789	 0.154016
H	 3.4376619706	 1.7873555532	 1.0187762291	 0.136163
114.4113	140.2034	151.184	209.1001	246.4416	364.8828	426.9427	497.3335	506.6468	537.0099	579.1341	675.3606	689.7575	748.1872	853.8716	904.8577	927.4176	943.4923	1000.5488	1018.3303	1066.2496	1072.371	1086.9108	1154.0539	1171.6821	1243.3902	1274.7065	1300.2691	1375.9363	1431.9225	1492.1417	1807.6644	2231.2923	2904.7736	3060.0038	3167.7849	3195.6386	3218.7198	3501.1964
O=CC1(C#C)C2COC12	O=C[C@@]1(C#C)[C@H]2CO[C@@H]12	
InChI=1S/C7H6O2/c1-2-7(4-8)5-3-9-6(5)7/h1,4-6H,3H2	InChI=1S/C7H6O2/c1-2-7(4-8)5-3-9-6(5)7/h1,4-6H,3H2/t5-,6+,7-/m0/s1
