21
gdb 119393	4.02001	1.02726	0.97216	1.0508	84.15	-0.2213	0.0192	0.2406	1322.0007	0.182855	-387.043708	-387.035253	-387.034308	-387.077168	32.68	
C	-0.0200872645	 1.3838061783	 0.0678585737	-0.217323
O	-0.0119396608	-0.0223395212	 0.0955607819	-0.239362
C	-1.3026379528	-0.5844391231	-0.0321205366	-0.199649
C	-1.1785448396	-2.084633246	-0.005154084	 0.315062
C	-0.734272181	-2.8903937335	 1.2692343954	-0.235964
C	-1.358420258	-4.0724364918	 0.4504285719	-0.077759
C	-2.4320221345	-3.0300070986	-0.0153036756	-0.261071
C	-0.4301464882	-4.0759261736	-0.7746880164	-0.094511
C	-0.3115167463	-2.7803749537	-1.0718276319	-0.107406
H	 1.0144429627	 1.7205632986	 0.1711162437	 0.126088
H	-0.4279182587	 1.7729011306	-0.8791525394	 0.101573
H	-0.6152502045	 1.8067115143	 0.8932348613	 0.101981
H	-1.9565646957	-0.2361508281	 0.786174795	 0.081107
H	-1.7708799538	-0.2584233106	-0.9786083642	 0.083085
H	 0.3346732215	-2.9337205315	 1.4850109851	 0.099844
H	-1.3067930844	-2.6278775434	 2.1657284709	 0.086378
H	-1.6306628992	-5.0229146283	 0.9076993459	 0.059202
H	-3.1658553562	-2.7837673938	 0.7601027591	 0.088773
H	-2.9216758079	-3.2046373408	-0.9765424126	 0.091139
H	 0.0079512574	-4.9437811094	-1.2469306479	 0.096674
H	 0.2542167445	-2.2798361442	-1.8441307454	 0.102139
69.9792	93.1612	125.9168	232.2883	304.9841	341.5993	362.6414	466.2763	531.0482	540.4704	697.2811	700.1059	735.0275	835.3163	840.6186	878.6786	906.575	911.6034	939.5441	956.9059	992.5849	1028.5029	1051.9024	1059.2821	1082.313	1105.8163	1154.9615	1164.5503	1172.5879	1197.4665	1218.0772	1227.9272	1229.7355	1257.5022	1279.619	1286.2644	1351.2267	1421.5744	1477.6385	1480.5301	1485.9363	1501.5506	1514.069	1523.4248	1628.6377	2936.7114	2965.1537	2967.9654	3008.3544	3034.8705	3047.3434	3110.5166	3111.9264	3122.5878	3125.2684	3220.7839	3248.9996
COCC12CC(C1)C=C2	COC[C@@]12C[C@@H](C1)C=C2	
InChI=1S/C8H12O/c1-9-6-8-3-2-7(4-8)5-8/h2-3,7H,4-6H2,1H3	InChI=1S/C8H12O/c1-9-6-8-3-2-7(4-8)5-8/h2-3,7H,4-6H2,1H3/t7-,8-
