13
gdb 130424	2.29007	0.81442	0.61001	1.7415	60.86	-0.2499	-0.0471	0.2028	1680.3117	0.0842	-486.149975	-486.13836	-486.137416	-486.194872	33.545	
N	-0.0198634619	 1.5385037817	-0.5497196351	-0.49061
C	-0.2073624197	 0.1695737887	-0.1062346299	-0.250021
C	 0.6547862155	-0.3339523809	 1.0509483294	 0.360104
N	 1.0414163736	 0.714113718	 1.9346221726	-0.439274
C	 1.6922359929	 0.6905349398	 2.9654560171	 0.599959
O	 2.294741349	 0.7938156586	 3.9532867804	-0.25999
N	 2.688550051	-2.7073301732	 3.5441901002	-0.004472
N	 2.730210892	-3.7793815193	 3.3076651808	 0.000163
O	 0.9609597397	-1.4832786361	 1.218857687	-0.289005
H	-0.1603164878	 2.1787479454	 0.2254171847	 0.242068
H	 0.9345242544	 1.6794437726	-0.8661317951	 0.236061
H	-1.2506876488	 0.0372870051	 0.2117525449	 0.147519
H	-0.0515362299	-0.5246805705	-0.9365481571	 0.147496
3.0779	21.8908	31.4584	36.1425	46.2283	82.045	85.0119	112.2545	240.5763	279.4278	454.6978	530.375	612.5289	639.7163	651.7773	784.2061	876.6897	908.572	1109.8702	1142.4601	1196.7864	1352.9199	1385.165	1449.7666	1458.8588	1672.7341	1806.6056	2338.4711	2432.5859	3028.8233	3102.6927	3503.7272	3581.2815
NCC1=NC(=O)N=NO1	NCC(=O)N=C=O.N#N	
InChI=1S/C3H4N4O2/c4-1-2-5-3(8)6-7-9-2/h1,4H2	InChI=1S/C3H4N2O2.N2/c4-1-3(7)5-2-6;1-2/h1,4H2;
