17
gdb 73340	2.40007	1.99245	1.55136	3.721	71.77	-0.2249	-0.0052	0.2198	924.7971	0.136187	-421.823243	-421.815805	-421.814861	-421.854907	29.091	
C	-0.1215457614	 1.5049969603	 0.0035220011	-0.483733
C	-0.0050126331	 0.0056915627	 0.0543401463	 0.274082
O	-1.2948571362	-0.5992974053	-0.0230247564	-0.292434
C	-1.147597688	-1.9802006294	 0.3065919347	-0.111102
C	 0.2285598546	-2.0962061094	 0.9540578994	-0.08195
C	 1.4421695509	-1.6562480308	 0.1278512416	-0.213521
C	 0.7600706064	-0.7365469738	 1.189070895	-0.124144
C	 1.0069330407	-0.6862204175	-0.921662889	 0.406507
O	 1.4299810678	-0.3879022045	-2.0042203786	-0.338795
H	 0.8606786611	 1.9719922601	 0.11366888	 0.128502
H	-0.5375633069	 1.8102147801	-0.9599046661	 0.1481
H	-0.7803679144	 1.8640789125	 0.7993299285	 0.127816
H	-1.9455897002	-2.2593751627	 1.0043330201	 0.111984
H	-1.2353524621	-2.6040417502	-0.5926407469	 0.111949
H	 0.420766831	-2.8916315368	 1.6645375066	 0.109972
H	 2.3848845216	-2.1867073274	 0.1823534739	 0.112666
H	 1.1925136183	-0.3268622278	 2.0903462098	 0.114101
128.9853	177.1834	195.8957	261.188	303.9203	367.4322	477.8935	576.446	647.8205	701.229	718.9511	762.4501	807.9617	838.589	860.5919	886.5551	918.5443	949.5946	966.935	1027.221	1037.0369	1077.517	1099.7398	1116.7403	1150.6193	1164.6651	1198.7598	1225.8482	1290.2391	1331.6918	1355.5707	1389.2922	1412.5038	1478.1476	1489.7053	1522.5886	1870.6609	3015.5905	3049.222	3060.1899	3124.3047	3130.1622	3187.5871	3198.4719	3227.1351
CC12OCC3C(C13)C2=O	C[C@]12OC[C@H]3[C@H]([C@@H]13)C2=O	
InChI=1S/C7H8O2/c1-7-5-3(2-9-7)4(5)6(7)8/h3-5H,2H2,1H3	InChI=1S/C7H8O2/c1-7-5-3(2-9-7)4(5)6(7)8/h3-5H,2H2,1H3/t3-,4+,5-,7-/m0/s1
