17
gdb 61513	2.94936	0.86713	0.71155	1.661	66.73	-0.2791	-0.0566	0.2225	1510.0434	0.131769	-496.103016	-496.093204	-496.09226	-496.139139	34.185	
O	-0.2453948519	 1.2300843515	 1.0050964614	-0.432783
C	-0.0140621281	 0.2900888639	-0.0081022937	 0.051116
C	 0.4955513177	 0.9924820364	-1.2909852225	-0.258129
C	-0.0799303172	 0.4793912379	-2.6299896075	 0.0457
O	 0.2880647701	 1.3495768236	-3.6617704877	-0.430364
C	 0.3523008402	-0.9348346689	-2.9649981993	 0.134711
O	 0.9690448515	-1.1895988379	-3.9708804748	-0.255971
C	 0.9632550893	-0.7622439617	 0.4865808101	 0.13982
O	 1.394650987	-0.7464412572	 1.6128338738	-0.258245
H	 0.2340650643	 0.9047738474	 1.7837975854	 0.297163
H	-0.9527688882	-0.2473932003	-0.2489478056	 0.091498
H	 0.1846022181	 2.0359463637	-1.204445658	 0.158323
H	 1.5900431191	 0.9942081227	-1.3452285483	 0.11941
H	-1.1815499881	 0.4446836194	-2.5266312807	 0.103599
H	 0.7431425419	 0.8030614309	-4.3218486011	 0.297433
H	 0.0607242485	-1.7318375903	-2.2504741668	 0.098038
H	 1.2657387957	-1.5469801912	-0.236665925	 0.098679
39.9401	56.8038	103.4964	134.3484	199.7353	270.2999	304.4654	336.5016	346.9821	406.2667	420.5113	458.6044	532.9422	731.1299	751.2914	822.4203	839.3545	854.9125	971.0937	1028.4048	1038.3603	1092.3918	1120.3025	1171.2967	1187.3513	1274.3264	1290.6675	1301.4295	1347.767	1364.2838	1396.9464	1404.0835	1439.2057	1446.5676	1484.7088	1812.2504	1816.6443	2906.7035	2915.2232	2929.7527	2940.1061	3051.0606	3116.5706	3688.1409	3694.232
OC(CC(O)C=O)C=O	O[C@@H](C[C@@H](O)C=O)C=O	
InChI=1S/C5H8O4/c6-2-4(8)1-5(9)3-7/h2-5,8-9H,1H2	InChI=1S/C5H8O4/c6-2-4(8)1-5(9)3-7/h2-5,8-9H,1H2/t4-,5+
