21
gdb 84692	2.84684	1.6334	1.40002	1.3853	82.26	-0.238	0.0194	0.2574	1036.8511	0.185729	-387.115972	-387.108387	-387.107443	-387.147657	31.026	
C	-0.0011181209	 1.5958705729	 0.0334349528	-0.405103
C	-0.0074085438	 0.0584756316	 0.001473749	-0.015927
C	 0.6315493195	-0.468966554	-1.2658044476	-0.069587
C	 1.7720564806	-1.1569580648	-1.240140919	-0.067196
C	 2.4481042436	-1.4357154269	 0.0852655487	 0.03332
C	 1.8311971253	-2.6786288675	 0.7643268568	-0.209262
C	 0.5263091499	-2.0809514704	 1.3576853652	-0.244735
C	 0.7314817453	-0.5458725294	 1.2152487054	 0.085054
O	 2.1407809725	-0.3915562618	 1.0103463993	-0.26261
H	 1.0270567305	 1.9634573157	 0.0944165512	 0.134773
H	-0.4601033098	 2.0136001508	-0.8686011362	 0.108447
H	-0.5558449283	 1.973624912	 0.899303783	 0.107708
H	-1.0528440563	-0.2813867108	 0.0355851456	 0.073317
H	 0.1342769089	-0.2448393323	-2.2068537676	 0.086056
H	 2.2223019775	-1.5562306751	-2.1446417618	 0.086584
H	 3.535499565	-1.4812406423	-0.0132145781	 0.077976
H	 1.6465403864	-3.4995051746	 0.067560495	 0.100239
H	 2.4964661573	-3.0392864374	 1.5538217321	 0.102065
H	-0.3617750933	-2.4168914329	 0.8169859633	 0.1041
H	 0.4010749334	-2.3649629493	 2.4048556688	 0.104282
H	 0.4773145068	 0.0001265365	 2.1279867742	 0.070497
120.0211	187.568	227.6748	262.6028	338.5072	374.6433	472.0328	531.6624	563.9756	675.7666	724.5178	762.4619	776.1603	841.5974	846.4427	893.4071	907.2079	951.9046	965.7395	974.5072	994.7745	1018.5254	1029.2869	1065.2536	1067.4634	1106.316	1118.1734	1178.1883	1184.9337	1224.3017	1256.7346	1284.8235	1308.383	1314.2711	1325.5954	1340.7562	1353.6545	1388.0355	1395.4017	1416.1247	1482.941	1492.8499	1502.268	1505.143	1708.1104	2997.1501	3031.1398	3057.2152	3064.8456	3073.0782	3085.3218	3096.9321	3102.9943	3117.6785	3120.3688	3144.7314	3173.4586
CC1C=CC2CCC1O2	C[C@H]1C=C[C@@H]2CC[C@H]1O2	
InChI=1S/C8H12O/c1-6-2-3-7-4-5-8(6)9-7/h2-3,6-8H,4-5H2,1H3	InChI=1S/C8H12O/c1-6-2-3-7-4-5-8(6)9-7/h2-3,6-8H,4-5H2,1H3/t6-,7+,8+/m0/s1
