16
gdb 18884	3.40332	2.78059	2.51841	0.5932	61.69	-0.2429	0.0803	0.3232	656.4545	0.134586	-383.738317	-383.733198	-383.732254	-383.767221	22.136	
C	 0.0096914628	 1.5945669196	-0.0127852894	-0.22442
C	 1.5226295319	 1.878658637	 0.00790799	 0.064973
O	 2.0460507322	 1.6882984323	 1.3437840674	-0.303907
C	 2.1362449474	 0.2642673235	 1.1013550918	 0.064973
C	 0.7679150897	-0.4002822907	 1.3383489654	-0.22442
C	 0.0407178577	 0.047725015	 0.0469453588	 0.049753
O	 1.0183108606	-0.2657909304	-0.964537943	-0.255844
C	 2.0837476612	 0.4916899602	-0.4440714953	 0.058651
H	-0.4986478495	 2.0701903176	 0.8284366571	 0.111158
H	-0.4476259131	 1.9213471633	-0.9513556973	 0.106735
H	 1.8481562135	 2.8177415788	-0.4415483249	 0.080996
H	 2.9927234846	-0.1935569869	 1.5980407869	 0.080996
H	 0.8493884574	-1.4910327363	 1.3598902592	 0.106735
H	 0.3065499333	-0.0482450896	 2.2632775008	 0.111158
H	-0.8943169572	-0.4622781313	-0.181318652	 0.081105
H	 2.9785196174	 0.4174835579	-1.0557563354	 0.09136
336.5874	378.9082	472.0494	550.04	642.9842	644.7999	788.797	816.6717	847.2707	869.7225	875.3579	910.1141	910.994	932.424	985.5396	987.919	1019.9456	1020.833	1080.3378	1096.0939	1106.5896	1139.5151	1173.6091	1204.6796	1259.2355	1262.6493	1279.2939	1297.8444	1314.4396	1340.9503	1349.0463	1371.0115	1458.8444	1472.2573	3061.6883	3062.4636	3104.113	3106.3726	3123.2979	3127.0971	3128.9838	3164.9995
C1C2OC3CC1OC23	C1[C@H]2O[C@H]3C[C@@H]1O[C@@H]23	
InChI=1S/C6H8O2/c1-3-2-5-6(7-3)4(1)8-5/h3-6H,1-2H2	InChI=1S/C6H8O2/c1-3-2-5-6(7-3)4(1)8-5/h3-6H,1-2H2/t3-,4-,5+,6+
