19
gdb 107138	3.66323	1.15361	1.1201	0.9245	75.81	-0.2266	0.0687	0.2952	1194.9709	0.156457	-422.938853	-422.930046	-422.929102	-422.972126	33.524	
C	-0.2926894195	 1.3679570524	-0.1143680605	-0.256855
O	 0.1407198248	 0.0300789753	 0.0868110562	-0.275556
C	 0.7314166837	-0.5180745342	-1.0260798062	 0.417395
C	-0.0167572673	-1.0420062392	-2.221111965	-0.35116
C	 0.8350038247	-1.9809601554	-1.3824969354	-0.239609
C	 2.366728344	-1.7763310394	-1.6571443561	 0.427329
C	 3.4364816715	-2.8013588356	-1.4837879234	-0.502939
O	 2.5238327134	-0.7697579109	-2.6785573422	-0.281231
C	 2.2670889022	-0.3576477652	-1.3267752604	-0.145056
H	 0.5442018593	 2.0304643642	-0.3758602503	 0.113151
H	-1.0459657519	 1.4268328008	-0.9112773174	 0.116367
H	-0.7323318267	 1.7043594504	 0.8269829349	 0.1277
H	-1.0817626486	-1.158889645	-2.0442080936	 0.114574
H	 0.2714076608	-0.7886103205	-3.2334673234	 0.133392
H	 0.4257957745	-2.833865051	-0.857694941	 0.101585
H	 3.3547614999	-3.5825650378	-2.2482104811	 0.132066
H	 4.4231411698	-2.3384580302	-1.5682472274	 0.134775
H	 3.3546327777	-3.2813693928	-0.5031022783	 0.129267
H	 2.9594327378	 0.331393964	-0.8555665296	 0.104806
86.7313	133.5472	163.9793	199.9883	239.5676	284.1351	364.3367	395.0805	429.301	468.4322	538.5487	608.2457	670.6937	760.6104	816.9165	861.1919	875.6762	906.8408	969.3091	980.2765	989.563	1011.7632	1057.4872	1070.2911	1090.2779	1107.7318	1166.4421	1168.6658	1180.8486	1216.4183	1239.0925	1275.9635	1367.7235	1405.6972	1454.8556	1469.1453	1484.6309	1485.937	1491.7056	1501.7519	1505.9773	2996.6371	3033.1229	3052.6825	3095.3756	3122.5365	3124.916	3136.9279	3178.3868	3207.4821	3233.1089
COC12CC1C1(C)OC21	CO[C@]12C[C@H]1[C@@]1(C)O[C@@H]21	
InChI=1S/C7H10O2/c1-6-4-3-7(4,8-2)5(6)9-6/h4-5H,3H2,1-2H3	InChI=1S/C7H10O2/c1-6-4-3-7(4,8-2)5(6)9-6/h4-5H,3H2,1-2H3/t4-,5+,6+,7+/m0/s1
