18
gdb 13220	4.93395	1.18219	1.14518	3.1287	63.72	-0.2521	0.062	0.3141	1093.0241	0.153902	-422.049902	-422.041663	-422.040719	-422.082963	30.14	
O	 0.0919969456	 1.4001928652	-0.1696742656	-0.42711
C	 0.0780934862	 0.0175325693	 0.1109911715	-0.069453
C	-1.3523627123	-0.5316526412	 0.0516885429	 0.075705
O	-1.9523701345	-0.143069853	-1.1817312883	-0.447743
C	-1.4053295843	-2.0456997284	 0.2037111795	 0.127561
C	-2.7791355102	-2.7435157212	 0.111033287	-0.292649
C	-2.1472065884	-3.5247091827	-1.0556134664	-0.066653
O	-0.9607515991	-2.6915570051	-1.0240324377	-0.310625
H	-0.5206032258	 1.5121634114	-0.9086511301	 0.28567
H	 0.7085532411	-0.5491849357	-0.5956807762	 0.093902
H	 0.497118255	-0.1210482873	 1.1142594873	 0.102253
H	-1.9493294608	-0.063541075	 0.8441826261	 0.095845
H	-1.6041441328	-0.7714146252	-1.8318744185	 0.28927
H	-0.7950560755	-2.3684664646	 1.0583013909	 0.080587
H	-3.0925490631	-3.322964119	 0.9797155341	 0.112577
H	-3.5768955202	-2.0653971114	-0.1948655545	 0.128896
H	-1.9017886311	-4.5699222599	-0.8320179733	 0.109991
H	-2.6546358	-3.4746234464	-2.0245209687	 0.111977
83.4462	98.3579	130.9467	184.5166	285.2509	308.233	366.661	463.8471	513.0385	591.8984	668.5638	735.5996	826.3577	861.5855	897.1278	954.7531	972.9942	1013.3905	1021.9565	1065.4558	1091.0029	1123.6149	1139.945	1174.7567	1204.3798	1219.5173	1246.7246	1265.7035	1298.57	1306.49	1356.9669	1369.4538	1398.5531	1436.1836	1445.0534	1484.2045	1508.6549	1529.6419	2961.4952	3012.51	3026.9067	3043.7662	3065.45	3074.7558	3088.4566	3148.2081	3726.5841	3763.6438
OCC(O)C1CCO1	OC[C@@H](O)[C@H]1CCO1	
InChI=1S/C5H10O3/c6-3-4(7)5-1-2-8-5/h4-7H,1-3H2	InChI=1S/C5H10O3/c6-3-4(7)5-1-2-8-5/h4-7H,1-3H2/t4-,5-/m1/s1
