20
gdb 61593	3.37397	0.83982	0.75167	2.0718	75.61	-0.2477	0.0603	0.308	1550.9342	0.169854	-440.223509	-440.213976	-440.213032	-440.259014	34.414	
O	 0.0711443903	 1.6562410353	-0.0263412743	-0.43263
C	 0.1435063308	 0.2320526392	-0.0072710794	 0.10311
C	 0.8783818654	-0.3047638517	-1.2462319246	-0.247783
C	 0.1792349747	 0.0732548427	-2.5286145387	 0.099044
C	 0.1800165797	-0.8024344221	-3.7054188948	-0.182826
O	-0.9716265687	-0.7124482636	-2.8646240134	-0.24077
C	 0.7561242722	-0.2789648819	 1.2796590519	-0.000417
C	-0.0782811802	-0.4377325629	 2.4920066125	-0.245551
N	 0.4304152224	-1.6247526197	 1.7787071493	-0.321152
H	 0.9644213529	 1.9988023	 0.0915309483	 0.279343
H	-0.9015185142	-0.1007326491	-0.0533395559	 0.099037
H	 1.9046025063	 0.0909613311	-1.2527042501	 0.091931
H	 0.9544351621	-1.3961758626	-1.1829281384	 0.11307
H	 0.0394051873	 1.1429217494	-2.6812510143	 0.103788
H	 0.0677257336	-0.3761245045	-4.7014138314	 0.114902
H	 0.7135799972	-1.7517689277	-3.6664191784	 0.111402
H	 1.8089709252	-0.0203160909	 1.4062086569	 0.081828
H	 0.3508260041	-0.2786413116	 3.4769123317	 0.120014
H	-1.1336096878	-0.1902495066	 2.4108673851	 0.119429
H	-0.3148592134	-2.0286109228	 1.2140691183	 0.23423
54.3768	67.0935	93.2509	132.003	212.2072	267.2164	303.0893	337.4264	353.1111	461.3519	493.5186	549.0936	787.6782	820.0164	847.884	872.9498	895.3018	936.3294	958.2054	963.9654	1013.9644	1034.6443	1086.1287	1106.1595	1107.5452	1135.143	1156.8204	1160.1726	1169.5585	1185.9632	1220.2455	1254.3364	1280.7095	1294.6833	1305.0966	1312.1911	1366.4262	1410.1955	1437.7924	1447.2748	1463.2313	1512.266	1529.7052	3006.9268	3036.4828	3072.3045	3079.8423	3089.9779	3110.925	3123.6662	3165.9469	3196.5261	3481.9452	3796.5337
OC(CC1CO1)C1CN1	O[C@@H](C[C@H]1CO1)[C@H]1CN1	
InChI=1S/C6H11NO2/c8-6(5-2-7-5)1-4-3-9-4/h4-8H,1-3H2	InChI=1S/C6H11NO2/c8-6(5-2-7-5)1-4-3-9-4/h4-8H,1-3H2/t4-,5+,6-/m0/s1
