19
gdb 10725	2.55249	1.70845	1.3888	3.0327	66.84	-0.2473	0.0632	0.3105	996.4561	0.164757	-402.16357	-402.15456	-402.153616	-402.196966	33.565	
C	 0.9544402385	-1.3899292747	 0.1602392355	-0.439979
C	-0.0503029471	-0.7279403407	-0.7839680721	 0.065473
O	-0.0691189514	-1.379161926	-2.0549905814	-0.427312
C	-1.4808562694	-0.5970327841	-0.2627122788	 0.282714
C	-2.3124174387	 0.4085838076	-1.0416520821	-0.110257
O	-1.9164134909	 1.731942523	-0.7251315978	-0.424059
C	-2.1602551899	-1.7383169389	 0.4039307432	-0.299026
N	-1.7842326008	-0.541090547	 1.181024432	-0.365585
H	 1.9093760926	-1.4898908242	-0.3614093226	 0.136586
H	 1.1286202418	-0.790978321	 1.0600782553	 0.121354
H	 0.6378919146	-2.393997812	 0.4666421246	 0.112166
H	 0.2983125472	 0.286967401	-1.005544013	 0.110779
H	-0.4649405063	-2.248847972	-1.9268630842	 0.275786
H	-2.1480480832	 0.2762848686	-2.1146017929	 0.123315
H	-3.3798770487	 0.2497517676	-0.8294729595	 0.083916
H	-2.0178562033	 1.8089923894	 0.2317141494	 0.288698
H	-3.2288017785	-1.8839391883	 0.2703851035	 0.12261
H	-1.6035916097	-2.6558505904	 0.5775863969	 0.11022
H	-0.9537252869	-0.7446317279	 1.730347024	 0.232599
75.1419	93.9897	197.6314	226.0947	250.7618	292.5173	321.171	342.4148	401.5601	436.0067	478.2822	490.6263	627.0882	698.8568	851.573	892.4959	910.9482	938.9259	983.1235	999.9762	1033.9852	1068.8134	1070.9936	1098.9703	1113.0476	1138.7126	1206.779	1260.5629	1293.7302	1310.5797	1354.41	1387.7418	1400.4009	1413.3541	1427.1407	1436.1939	1492.0778	1496.0659	1500.3074	1519.7186	2995.8908	3031.6541	3055.7387	3098.3755	3099.0598	3107.2999	3122.058	3188.2329	3513.4582	3781.1096	3794.1654
CC(O)C1(CO)CN1	C[C@@H](O)[C@@]1(CO)CN1	
InChI=1S/C5H11NO2/c1-4(8)5(3-7)2-6-5/h4,6-8H,2-3H2,1H3	InChI=1S/C5H11NO2/c1-4(8)5(3-7)2-6-5/h4,6-8H,2-3H2,1H3/t4-,5+/m1/s1
