23
gdb 76546	2.40459	1.26255	1.14278	1.5746	86.29	-0.2188	0.0759	0.2947	1272.4629	0.203765	-388.268234	-388.257921	-388.256977	-388.303612	37.678	
C	-0.1034613719	 0.7178576827	-2.1075776583	-0.407085
C	 0.085563015	-0.4158440234	-1.1220221518	-0.107159
C	 1.3835856242	-0.6054507548	-0.3283092031	-0.108293
C	 2.5695689459	 0.324177698	-0.4766809895	-0.409899
C	 0.134107949	-0.1401355153	 0.3525499907	 0.437883
O	 0.0268454135	 1.1999679193	 0.8479821535	-0.30948
C	-0.7865099936	 0.7519714307	 1.9562741483	-0.081526
C	-0.6717285652	-0.7260704974	 1.5147087915	-0.123145
C	-1.962481248	-1.4642873719	 1.1908737117	-0.406193
H	 0.2343152932	 1.669421397	-1.6917323032	 0.135459
H	 0.441758457	 0.5354908176	-3.0400855831	 0.112367
H	-1.1632282017	 0.8336116136	-2.3596080666	 0.113546
H	-0.4058042549	-1.3442386497	-1.4070177048	 0.078137
H	 1.6492862357	-1.6454614214	-0.1454194272	 0.076819
H	 2.2612036766	 1.371677273	-0.4627840238	 0.135438
H	 3.272134523	 0.1834787237	 0.3518364298	 0.114317
H	 3.1130114232	 0.136567755	-1.4091506275	 0.112478
H	-0.3347906161	 1.0102165433	 2.9205738976	 0.102157
H	-1.8004835089	 1.1695296064	 1.9086115706	 0.098507
H	-0.0530945672	-1.3203594041	 2.1945322245	 0.079692
H	-2.5915402975	-0.8788783059	 0.5122107241	 0.122021
H	-1.7599899474	-2.4284132062	 0.711924051	 0.118364
H	-2.5387466039	-1.6633180306	 2.1009291057	 0.115596
52.9212	126.7585	137.5505	145.2982	161.9315	193.2102	215.185	240.2677	283.4064	389.8209	459.602	519.0946	575.9018	585.781	750.0147	783.7356	828.9265	890.3471	919.0195	922.3326	982.258	1003.2102	1017.2406	1031.9127	1050.2253	1113.3354	1120.5091	1145.6022	1150.3761	1154.5527	1172.9598	1187.7643	1201.6302	1259.6201	1291.0407	1341.1268	1356.1603	1377.2974	1409.1537	1410.1602	1419.2813	1465.8593	1486.1519	1493.0577	1493.6667	1497.0992	1501.3565	1515.3453	1526.5633	3013.2921	3028.96	3032.1081	3035.4652	3047.8672	3066.959	3087.2873	3089.3719	3094.7119	3103.4244	3106.3471	3118.151	3126.6555	3136.4657
CC1C(C)C11OCC1C	C[C@H]1[C@@H](C)[C@]21OC[C@H]2C	
InChI=1S/C8H14O/c1-5-4-9-8(5)6(2)7(8)3/h5-7H,4H2,1-3H3	InChI=1S/C8H14O/c1-5-4-9-8(5)6(2)7(8)3/h5-7H,4H2,1-3H3/t5-,6-,7+,8-/m1/s1
