16
gdb 10435	2.60414	1.95936	1.44736	2.7551	60.51	-0.243	-0.033	0.21	906.9255	0.128413	-420.854157	-420.845722	-420.844778	-420.887715	29.344	
O	 0.4523821108	 0.9405047816	-0.8568229322	-0.407191
C	-0.0077516154	 0.4331067272	 0.3825034962	-0.13364
C	-1.2892149666	-0.3791903748	 0.2244582843	 0.296828
C	-1.1874152181	-1.8442049142	-0.2442741626	-0.34429
C	-1.8080274852	-2.1760261366	 1.1269952869	-0.067984
O	-1.8157297488	-0.778083345	 1.5192054931	-0.324122
C	-2.3628067119	 0.4428250239	-0.4836077109	 0.138637
O	-2.9095751862	 0.1232923838	-1.5056683743	-0.247171
H	 0.6676423171	 0.1962864384	-1.4290794254	 0.293224
H	 0.7470068723	-0.17736125	 0.8998384042	 0.099677
H	-0.2154245771	 1.3031608265	 1.0152011039	 0.126908
H	-1.7978244331	-2.0732866697	-1.1173630275	 0.141525
H	-0.1692160259	-2.2107170056	-0.3912865409	 0.105345
H	-2.8209280688	-2.5919608131	 1.0984317787	 0.118065
H	-1.1916157303	-2.7742231183	 1.8059172604	 0.113274
H	-2.6403128427	 1.3682288359	 0.068528166	 0.090917
71.0397	78.978	113.5775	188.3164	254.9644	280.5	334.1258	372.1618	449.2012	567.3951	704.7813	797.3755	860.2549	903.8983	950.4823	975.6604	1001.5638	1009.797	1064.9838	1076.7572	1141.239	1162.2734	1209.	1229.2226	1263.1365	1298.9681	1349.4925	1367.2959	1400.1093	1416.1823	1486.658	1502.5162	1528.2983	1836.4116	2891.4256	2998.1643	3035.5632	3075.6563	3076.7945	3084.1066	3148.1796	3810.4551
OCC1(CCO1)C=O	OC[C@]1(CCO1)C=O	
InChI=1S/C5H8O3/c6-3-5(4-7)1-2-8-5/h3,7H,1-2,4H2	InChI=1S/C5H8O3/c6-3-5(4-7)1-2-8-5/h3,7H,1-2,4H2/t5-/m0/s1
