22
gdb 78543	2.35825	1.53101	1.24355	0.8231	87.39	-0.2021	0.077	0.2791	1163.882	0.19205	-367.126204	-367.116793	-367.115849	-367.15954	36.675	
C	-0.1173975479	 1.5433113736	 0.03420712	-0.328535
N	 0.1575608983	 0.1106040906	 0.0721094743	-0.106766
C	 1.2763409517	-0.6650088657	-0.3861792173	-0.181584
C	 2.7195346506	-0.2354184632	 0.0746438255	 0.341148
C	 3.9300754878	-0.8967429659	-0.5166197753	-0.487206
C	 2.7497977695	 1.0417682113	 0.8602766211	-0.366992
C	 2.234856647	-0.2168636533	 1.5184388163	-0.158658
C	 0.8160957791	-0.7067431736	 1.0477079514	 0.31404
C	 0.0601218881	-1.7451700262	 1.8236951098	-0.479873
H	 0.4808968073	 2.050086462	-0.729810545	 0.125747
H	-1.173997131	 1.6940007955	-0.2190296339	 0.113111
H	 0.0622937781	 2.026438706	 1.0006260239	 0.124667
H	 1.1292002746	-1.3838381006	-1.1886586233	 0.083892
H	 4.1266664194	-0.5349211149	-1.5341409882	 0.117096
H	 4.8230711567	-0.6968196274	 0.0847405509	 0.11571
H	 3.8042750127	-1.9846711811	-0.5745357321	 0.116618
H	 3.7467654808	 1.3190916865	 1.1960034498	 0.106765
H	 2.1267352473	 1.894563606	 0.6389713576	 0.108813
H	 2.725589361	-0.6470191582	 2.3834124365	 0.081955
H	-0.3557316006	-1.3212328065	 2.7466303744	 0.116764
H	-0.7667154446	-2.1360863526	 1.2253433406	 0.127071
H	 0.7139635743	-2.5765953523	 2.1099771731	 0.116217
105.8803	182.0599	201.1669	209.5996	220.1544	245.7297	283.094	292.3936	337.1657	401.048	517.0452	558.3347	581.8924	655.594	710.0553	790.662	813.8863	859.7852	910.0117	923.0708	940.8406	968.0574	981.4879	1004.2389	1053.7527	1083.506	1101.0864	1120.9133	1133.1464	1149.917	1169.9845	1191.4455	1228.4001	1252.2113	1287.146	1378.7278	1401.1135	1418.0747	1429.9917	1466.6699	1483.2223	1483.7757	1489.3629	1499.0769	1504.7418	1509.555	1518.6217	3010.1877	3012.9203	3020.9491	3061.9399	3067.6471	3078.2246	3091.8256	3096.372	3119.6652	3128.3198	3134.1987	3180.9092	3249.478
CN1C2C3(C)CC3C12C	CN1[C@H]2[C@@]3(C)C[C@H]3[C@@]12C	
InChI=1S/C8H13N/c1-7-4-5(7)8(2)6(7)9(8)3/h5-6H,4H2,1-3H3	InChI=1S/C8H13N/c1-7-4-5(7)8(2)6(7)9(8)3/h5-6H,4H2,1-3H3/t5-,6+,7+,8-,9?/m1/s1
