15
gdb 86481	2.33855	1.3103	0.97016	3.912	70.37	-0.2988	-0.015	0.2838	1186.983	0.112157	-416.811647	-416.803126	-416.802181	-416.845094	31.102	
O	 0.7527558287	 0.506329243	-0.8486412913	-0.41948
C	 0.0146835354	-0.3167171268	 0.000415553	 0.173364
C	 0.1452664494	-0.1514617533	 1.5385188141	-0.300436
C	-1.3982396167	-0.4597951865	 1.6601473289	-0.021939
C	-1.5199908161	-0.1175011973	 0.1238320266	-0.300428
C	-1.657870682	-1.8729941738	 1.9317898486	 0.278076
N	-1.8367457379	-2.9993447939	 2.1156617522	-0.320253
C	-2.1532919359	 0.395125347	 2.569454025	 0.257284
N	-2.7276798205	 1.1189188427	 3.2629380252	-0.322636
H	 0.5799142338	 1.4271376122	-0.622708808	 0.286455
H	 0.2481868681	-1.3417157712	-0.2990517459	 0.128468
H	 0.8195448167	-0.8073436166	 2.0885431918	 0.147724
H	 0.3308910821	 0.8888105357	 1.8178883961	 0.133042
H	-1.8009368679	 0.9322862895	 0.0068620931	 0.133043
H	-2.1869867571	-0.7460271308	-0.4656007896	 0.147717
72.2394	131.6252	175.0176	179.9594	252.0967	318.2896	389.2893	423.3972	486.6582	499.1313	508.4825	595.9116	598.0995	713.8492	829.4897	877.9066	937.8218	945.2374	1014.696	1072.4189	1083.0436	1089.8969	1169.9242	1230.5449	1263.4302	1273.3829	1285.5611	1345.2523	1439.7889	1464.2294	1488.2776	2360.3536	2365.3661	3075.3895	3077.7327	3090.4514	3152.1682	3153.8384	3800.7702
OC1CC(C1)(C#N)C#N	OC1CC(C1)(C#N)C#N	
InChI=1S/C6H6N2O/c7-3-6(4-8)1-5(9)2-6/h5,9H,1-2H2	InChI=1S/C6H6N2O/c7-3-6(4-8)1-5(9)2-6/h5,9H,1-2H2
