15
gdb 133280	3.8243	1.1292	0.8766	1.4544	75.32	-0.2127	-0.0567	0.156	1236.2488	0.11297	-458.095488	-458.087702	-458.086757	-458.127912	29.059	
C	-0.0103192342	 1.4329914284	 0.0070295549	-0.344301
N	 0.0518881157	-0.014306568	 0.0030084308	-0.323089
C	-1.0497139317	-0.6683115185	 0.0095397903	 0.437081
N	-2.3337793844	-0.08683223	 0.0205439532	-0.313778
N	-3.5217604446	-0.7100200951	 0.0277099173	-0.168779
C	-3.5090420776	-2.0063444009	 0.024317615	-0.102004
C	-2.2791737611	-2.7454039539	 0.0133920748	 0.297786
F	-2.3745829675	-4.0725852105	 0.0107627735	-0.0652
C	-1.0885931901	-2.118089799	 0.0061959538	-0.317225
H	 1.0045438325	 1.838140458	 0.0002100824	 0.129065
H	-0.5288282175	 1.8448719643	-0.8766323885	 0.105803
H	-0.5151347108	 1.8404727852	 0.9005979386	 0.105821
H	-2.4107061231	 0.9171108579	 0.0236903442	 0.275226
H	-4.4642630852	-2.5170425706	 0.0300582497	 0.141415
H	-0.1466629204	-2.6496273874	-0.0020914801	 0.142178
108.6226	161.2719	206.3009	218.1904	310.1657	362.0289	403.2435	472.5776	507.3963	592.1094	610.293	687.2514	719.1378	736.2752	877.3782	913.8206	932.6778	1008.62	1046.2491	1105.6222	1137.3215	1171.8736	1228.2117	1270.7516	1349.5851	1421.3091	1432.2009	1462.7417	1504.2506	1506.6562	1606.3182	1684.2348	1720.3839	2937.7038	2976.6911	3098.106	3211.6712	3235.0857	3653.7756
CN=C1NN=CC(F)=C1	C[N]C1=C[C@H](C=NN1)F	
InChI=1S/C5H6FN3/c1-7-5-2-4(6)3-8-9-5/h2-3H,1H3,(H,7,9)	InChI=1S/C5H7FN3/c1-7-5-2-4(6)3-8-9-5/h2-4,9H,1H3/t4-/m1/s1
