13
gdb 123699	2.7553	1.65465	1.11184	4.689	70.71	-0.2354	-0.0728	0.1626	1009.7116	0.089667	-452.739099	-452.732099	-452.731154	-452.770898	26.125	
C	-0.0268494523	 1.4553320603	 0.1355188041	-0.322107
C	 1.2809050218	 0.738587248	-0.0217543414	 0.113524
O	 2.1017775932	 0.5895716833	 1.1171659798	-0.231273
C	 1.5344229066	-0.271124944	 2.0367459588	 0.401706
C	 0.2533359928	-0.7059641608	 1.4599209837	 0.169848
N	-0.5408025102	-1.5098408702	 2.0941804728	 0.123773
N	-1.2252112587	-2.2145250833	 2.661461481	-0.223329
O	 2.0457871931	-0.5325534948	 3.0863333168	-0.35384
C	 0.0153807379	-0.0714283363	 0.144486322	-0.196422
H	-0.2209248578	 1.9723583114	 1.0687007075	 0.139518
H	-0.4357232876	 1.9270055461	-0.7514774995	 0.131486
H	 1.8510480761	 0.7762586027	-0.9409748733	 0.125677
H	-0.4218845348	-0.6368333124	-0.6692926723	 0.121438
109.0924	149.2084	167.7142	345.7673	429.7882	464.188	525.3066	540.8813	614.6781	692.812	737.959	743.7743	804.5912	831.2538	962.8198	985.3734	1020.0235	1045.2811	1069.993	1105.3691	1151.3973	1197.8465	1244.469	1292.3444	1379.8792	1444.1959	1467.1797	1865.3845	2216.4428	3136.9305	3184.4208	3200.6798	3232.1943
C1C2OC3=C(N=NO3)C12	C1[C@H]2OC(=O)[C]([N][N])[C@@H]12	
InChI=1S/C5H4N2O2/c1-2-3(1)8-5-4(2)6-7-9-5/h2-3H,1H2	InChI=1S/C5H4N2O2/c6-7-4-2-1-3(2)9-5(4)8/h2-3H,1H2/t2-,3+/m0/s1
