14
gdb 18143	3.61233	1.90121	1.57163	5.6616	61.01	-0.247	0.0056	0.2526	813.6585	0.108208	-378.67019	-378.663367	-378.662423	-378.701221	25.924	
O	 0.1350518333	 1.3437563544	 0.068125837	-0.427136
C	-0.0138149533	-0.0303353508	 0.0049275952	 0.162877
C	-0.4599674761	-0.8366167454	 1.1749481526	-0.087058
N	-1.3839618369	 0.0382367928	 1.9396860533	-0.351239
C	-2.3858710211	-0.0598066074	 0.8260409452	-0.143849
C	-2.979012132	 1.2126957842	 0.4004110708	 0.303571
N	-3.485361658	 2.198851667	 0.0748159878	-0.320368
C	-1.3513847949	-0.7480954732	-0.0760424075	-0.147339
H	-0.2307322883	 1.6205172005	 0.9220121043	 0.30204
H	 0.7453566457	-0.4941885696	-0.6183449742	 0.116428
H	 0.0671704124	-1.6595990853	 1.6422380882	 0.107966
H	-1.7308790235	-0.3892939731	 2.7900197901	 0.241896
H	-3.1995833012	-0.7499939543	 1.0707278995	 0.13129
H	-1.598650786	-1.4699697597	-0.8429815122	 0.110922
107.3581	161.6253	241.7877	293.8621	459.2922	483.7339	540.4832	564.3304	640.2456	726.2402	749.4279	807.7382	847.9147	911.3959	947.3671	992.2923	1024.8468	1027.3025	1054.8429	1084.7655	1093.6118	1177.3707	1201.6555	1266.2276	1301.7571	1332.5939	1367.7094	1384.9241	1467.3352	2358.933	3057.3913	3162.1805	3185.0714	3203.1248	3555.1158	3715.934
OC1C2NC(C#N)C12	O[C@H]1[C@H]2N[C@@H](C#N)[C@@H]12	
InChI=1S/C5H6N2O/c6-1-2-3-4(7-2)5(3)8/h2-5,7-8H	InChI=1S/C5H6N2O/c6-1-2-3-4(7-2)5(3)8/h2-5,7-8H/t2-,3+,4-,5+/m0/s1
