17
gdb 30959	2.44681	1.39957	0.93816	3.848	74.74	-0.1777	0.0488	0.2264	1237.0877	0.137092	-451.335986	-451.326937	-451.325993	-451.369724	33.555	
C	-0.4911860456	 1.1787904619	 0.1290521973	-0.326574
N	 0.4278325195	 0.0711648129	-0.1707016668	-0.396394
C	 0.8298135522	-0.704043978	 0.8996960155	 0.232058
C	 0.6100874424	-1.9962542284	 1.1845659918	 0.272561
N	-0.1593054135	-2.9597936427	 0.5379956705	-0.606778
N	 1.2839203782	-2.2930336836	 2.3688462273	-0.376404
C	 1.8410330143	-1.126198166	 2.8794197517	 0.45564
N	 2.4450562164	-1.0285014559	 3.9903959767	-0.606069
O	 1.6068361432	-0.1426887125	 1.9575448888	-0.254107
H	-0.0648401518	 1.9300305557	 0.807738485	 0.124425
H	-0.773091766	 1.67074067	-0.8064097158	 0.118554
H	-1.3951541195	 0.7730615028	 0.59141431	 0.131815
H	 1.2109889003	 0.4003847802	-0.7271270597	 0.233063
H	-0.5372177173	-2.5760250595	-0.3209521651	 0.258353
H	 0.3703016547	-3.799664633	 0.3242670766	 0.250073
H	 1.0441180711	-3.0537471085	 2.9821676962	 0.270105
H	 2.7535262613	-0.0713271253	 4.1406717398	 0.219679
89.641	117.8317	156.595	186.2127	259.2896	286.6585	318.0443	338.7586	398.71	446.8522	568.549	618.5873	635.436	656.1894	721.2091	753.296	759.8765	827.5404	839.0157	965.8106	1006.8979	1042.5004	1080.923	1143.175	1152.0681	1172.6125	1295.5635	1315.7254	1371.0781	1451.4587	1473.3798	1482.4921	1490.4637	1519.9778	1638.011	1771.9482	1819.5672	3008.9942	3083.0422	3119.1524	3494.0275	3497.449	3535.4772	3597.3994	3669.1286
CNC1=C(N)NC(=N)O1	CNC1=C(N)N[C@@H]([NH])O1	
InChI=1S/C4H8N4O/c1-7-3-2(5)8-4(6)9-3/h7H,5H2,1H3,(H2,6,8)	InChI=1S/C4H9N4O/c1-7-3-2(5)8-4(6)9-3/h4,6-8H,5H2,1H3/t4-/m1/s1
