20
gdb 23164	1.80321	1.48446	0.90991	2.1136	79.11	-0.2465	-0.0024	0.2442	1318.7881	0.169483	-440.231626	-440.221925	-440.220981	-440.266557	35.935	
C	-0.4327561441	 1.4776136282	-0.0728988279	-0.398096
C	-0.0054281495	 0.0134299015	-0.063618553	-0.012284
C	 1.2962354987	-0.288099717	-0.8866505838	-0.342374
C	 1.9879024229	-0.582492543	 0.4245440455	 0.424784
N	 3.1799004255	-0.6959761568	 0.8412837774	-0.251956
O	 4.1113492904	-0.5978350624	-0.2070642647	-0.392516
C	 0.7138084245	-0.5186371683	 1.2389412058	-0.106238
C	 0.7987647681	 0.3130689983	 2.5199470832	-0.078353
O	 1.6931095177	-0.2811485039	 3.4409304497	-0.424346
H	 0.4036049106	 2.1467842544	 0.1547105667	 0.122665
H	-0.8147101034	 1.7549844372	-1.0611620674	 0.118122
H	-1.2255324539	 1.6711826323	 0.6570405222	 0.121249
H	-0.8516702504	-0.61474057	-0.3521858278	 0.078208
H	 1.2274618321	-1.1575826226	-1.5476122594	 0.126795
H	 1.7159187302	 0.5440446368	-1.4597755001	 0.127207
H	 4.9512307216	-0.711858838	 0.2507829655	 0.30732
H	 0.3609310593	-1.5216095032	 1.5056270738	 0.100711
H	 1.0977691714	 1.3451824656	 2.2819359714	 0.083864
H	-0.1783232412	 0.3595639369	 3.013445035	 0.105128
H	 2.5346325894	-0.3910731663	 2.976294678	 0.290111
41.7231	119.7475	151.2348	177.2495	201.9244	261.0531	295.0378	343.5721	366.0085	410.0148	467.6496	498.234	513.437	581.3343	702.9365	800.066	841.9805	864.3405	894.2279	969.1021	1000.1973	1017.9453	1062.3724	1073.5543	1094.5849	1131.0165	1156.6912	1191.4275	1214.6581	1222.9892	1256.8677	1280.8173	1328.3005	1362.3744	1389.7544	1407.0501	1412.6544	1447.7422	1458.1241	1495.5775	1499.4963	1511.2377	1776.9249	2985.691	3031.2255	3039.5714	3052.9563	3065.2615	3070.179	3098.2153	3099.0138	3105.8599	3736.0942	3817.1164
CC1CC(=NO)C1CO	C[C@H]1CC(=NO)[C@H]1CO	
InChI=1S/C6H11NO2/c1-4-2-6(7-9)5(4)3-8/h4-5,8-9H,2-3H2,1H3	InChI=1S/C6H11NO2/c1-4-2-6(7-9)5(4)3-8/h4-5,8-9H,2-3H2,1H3/t4-,5-/m0/s1
