14
gdb 48048	3.85002	0.72109	0.63472	1.9744	80.02	-0.2611	-0.1069	0.1542	1676.6262	0.098947	-436.636453	-436.627489	-436.626545	-436.672144	30.005	
O	-0.9170102474	 1.5372274648	-0.3287081941	-0.215542
C	 0.192502947	 1.0827581829	-0.3740445706	 0.084185
C	 1.4758814469	 1.9126768195	-0.2158617383	 0.108573
O	 2.5464404111	 1.3404942631	-0.275863962	-0.264647
C	 1.3097276245	 3.319585037	-0.0058106062	 0.086988
C	 1.1745691202	 4.5085317751	 0.1762560105	 0.107237
C	 1.0225086549	 5.9140376347	 0.3667199848	-0.174962
C	 1.9126529273	 6.6101082377	 1.3570158018	-0.220163
N	 2.1024909013	 6.837290267	-0.0687411291	-0.293444
H	 0.4185159077	 0.0076612515	-0.5347441363	 0.111839
H	 0.0229985373	 6.3080517613	 0.2080582301	 0.137534
H	 1.498384652	 7.4486027408	 1.9088500423	 0.140617
H	 2.6283205015	 6.0008615659	 1.9004160751	 0.139176
H	 2.8913514557	 6.2914896086	-0.4085842081	 0.252608
39.0317	63.9509	101.0374	127.6976	150.1508	258.2145	299.5864	421.3675	528.8344	542.4995	612.3172	637.5304	706.7221	805.3822	843.6981	944.2168	975.1001	1027.6794	1031.9361	1112.1196	1137.275	1176.098	1247.2111	1272.7517	1299.3824	1363.4951	1391.9716	1503.3322	1742.5918	1832.7236	2311.886	2929.2917	3120.5864	3155.5811	3214.1372	3505.33
O=CC(=O)C#CC1CN1	O=CC(=O)C#C[C@H]1CN1	
InChI=1S/C6H5NO2/c8-4-6(9)2-1-5-3-7-5/h4-5,7H,3H2	InChI=1S/C6H5NO2/c8-4-6(9)2-1-5-3-7-5/h4-5,7H,3H2/t5-/m0/s1
