23
gdb 65653	3.65136	0.90242	0.80943	1.645	86.06	-0.2581	0.0829	0.3411	1514.2455	0.205067	-388.266295	-388.256788	-388.255844	-388.30131	35.874	
C	 0.2200542225	 1.5005254688	-0.6194597293	-0.457314
C	 0.0370816896	 0.0602819029	-0.1893350152	 0.427295
C	-1.3492791911	-0.5465165876	-0.3380675493	-0.294731
C	-2.4100263831	 0.0639172702	 0.5765682908	 0.065209
C	-3.0915118344	 1.4207834621	 0.2235665496	-0.218673
C	-4.4370620694	 0.8333073821	 0.7249509911	-0.218367
C	-3.8235793594	-0.5846105886	 0.5798631407	-0.234517
C	 1.2077851006	-0.8310332089	-0.1691235151	-0.231631
O	 0.6928340954	-0.2802169668	 1.0457433992	-0.277772
H	 1.2557052621	 1.8157538926	-0.4703273083	 0.122266
H	-0.0336861859	 1.624543694	-1.6778699582	 0.117208
H	-0.4241662125	 2.1681391917	-0.040476345	 0.133464
H	-1.6718131025	-0.4641155332	-1.3854264972	 0.089549
H	-1.2770545497	-1.61769759	-0.1139070235	 0.099121
H	-2.0168055089	 0.0993405392	 1.5985388474	 0.086934
H	-2.7192750781	 2.3261106784	 0.709786965	 0.096788
H	-3.1047516865	 1.5898979777	-0.8588211416	 0.094494
H	-4.6235679317	 1.0879329228	 1.7721926293	 0.102824
H	-5.3371709283	 1.0600629712	 0.148786727	 0.094445
H	-4.0575625193	-1.0247898116	-0.3958195949	 0.094526
H	-4.0426014344	-1.3244877754	 1.3540517875	 0.095557
H	 1.0739865795	-1.9057408932	-0.289789261	 0.106814
H	 2.1820254257	-0.4519157382	-0.4772659789	 0.106508
43.5682	78.5612	130.9464	165.5438	201.4065	279.3818	317.8586	367.1047	388.7666	431.964	480.515	644.033	726.9653	768.3442	787.2654	835.7264	875.5303	897.2741	917.9034	931.8205	936.5339	959.1663	982.2227	1008.6448	1058.3221	1091.0798	1109.9438	1136.0053	1147.2552	1173.5845	1197.4224	1216.9834	1255.1422	1257.3699	1266.3686	1277.4987	1286.4114	1311.7904	1330.3435	1385.481	1403.8005	1422.6172	1466.1877	1476.7254	1486.2952	1486.6954	1498.7795	1510.4261	1532.2818	3009.8672	3039.7865	3040.9675	3042.0001	3048.52	3057.8578	3060.5794	3074.3709	3093.6691	3096.8083	3108.9975	3115.4692	3124.7044	3158.4622
CC1(CC2CCC2)CO1	C[C@@]1(CC2CCC2)CO1	
InChI=1S/C8H14O/c1-8(6-9-8)5-7-3-2-4-7/h7H,2-6H2,1H3	InChI=1S/C8H14O/c1-8(6-9-8)5-7-3-2-4-7/h7H,2-6H2,1H3/t8-/m1/s1
