20
gdb 126552	4.72995	0.79096	0.72198	0.4088	83.26	-0.2448	0.0032	0.2479	1641.601	0.171679	-399.350499	-399.340823	-399.339879	-399.38803	33.282	
C	 0.0932447545	 1.5863758347	-0.0308381735	-0.381154
C	 0.257677754	 0.0657674453	-0.0711144096	-0.155273
C	 0.5095632235	-0.5424932185	 1.3221352684	-0.296595
C	 0.6704557502	-2.0300201434	 1.2941382522	 0.308456
N	-0.379601629	-2.8604243137	 1.3169091116	-0.308346
N	 0.163310332	-4.0709912877	 1.2511785803	 0.158194
C	-0.6417641945	-5.274129243	 1.2295046427	-0.310477
N	 1.4884600267	-4.1057645124	 1.1856449801	-0.225023
C	 1.8321399755	-2.8162971576	 1.2116036229	-0.142511
H	 0.9907524825	 2.0732877403	 0.3671513275	 0.113174
H	-0.0896213036	 1.9925271811	-1.0304296247	 0.113331
H	-0.7494821359	 1.8770455502	 0.6062764229	 0.116173
H	-0.6387270022	-0.3982070468	-0.4986627153	 0.111386
H	 1.0885258707	-0.2028297934	-0.7352428538	 0.098351
H	 1.4087606838	-0.0913521009	 1.7584749442	 0.10306
H	-0.3261515708	-0.2867623759	 1.9830901873	 0.115962
H	-1.1969118573	-5.3461128744	 0.2899028601	 0.149054
H	 0.0340446761	-6.1225581575	 1.3252472984	 0.161906
H	-1.3488735637	-5.2578820596	 2.0613501218	 0.153087
H	 2.8684179373	-2.5183780371	 1.1799347665	 0.117247
17.0675	24.3487	85.4434	101.6968	203.4777	237.8092	273.5943	310.1913	388.0951	428.0915	668.3708	679.002	733.6526	747.1175	793.4128	869.4604	873.2256	900.2294	1016.8844	1039.11	1047.4269	1069.6967	1105.4068	1113.2312	1149.6992	1200.5264	1257.6294	1307.6047	1324.3228	1346.836	1353.2063	1383.3326	1411.7781	1427.1086	1446.2931	1449.6225	1479.5518	1479.8193	1492.5613	1498.1255	1508.5548	1509.8304	1552.0953	3026.6216	3028.2742	3036.7425	3056.6131	3057.8538	3079.9408	3098.6606	3103.0929	3125.7431	3176.5142	3263.9627
CCCC1=NN(C)N=C1	CCCc1nn(C)nc1	
InChI=1S/C6H11N3/c1-3-4-6-5-7-9(2)8-6/h5H,3-4H2,1-2H3	InChI=1S/C6H11N3/c1-3-4-6-5-7-9(2)8-6/h5H,3-4H2,1-2H3
