17
gdb 94768	3.94165	1.17026	1.04088	1.68	75.23	-0.2306	0.0295	0.26	1156.2761	0.134808	-421.768221	-421.759888	-421.758943	-421.800908	32.206	
O	 0.117531836	 1.2401019811	-0.5569779688	-0.427073
C	-0.0136891241	-0.0565038368	 0.0046711758	 0.079182
C	 0.4688828739	-0.1205977462	 1.4804179341	-0.138784
O	-0.4011531806	-0.9962416592	 2.1856356965	-0.293021
C	-1.628787793	-1.0589719349	 1.4878264715	 0.252375
C	-2.3029218476	 0.2538582644	 1.1408784655	-0.340158
C	-1.4666357392	-0.4632235586	 0.1045569444	-0.120793
C	-2.3941961671	-2.2362864884	 1.7657628063	 0.237891
C	-3.0519124626	-3.2152418316	 1.9978715694	-0.392207
H	 1.0520086571	 1.4054076392	-0.718085561	 0.286601
H	 0.5200780129	-0.7953690057	-0.6096346001	 0.079683
H	 1.4881508072	-0.5024430035	 1.592218566	 0.108846
H	 0.4317500675	 0.8975337602	 1.8928999341	 0.106096
H	-3.3777744341	 0.2296087033	 1.0083233863	 0.129901
H	-1.9170144627	 1.1615108581	 1.5905171689	 0.132788
H	-1.94919307	-0.9086007712	-0.7557460149	 0.107125
H	-3.6280465135	-4.0831168404	 2.2034421561	 0.191548
100.3892	144.3544	159.9187	249.5026	268.0306	345.5087	419.6426	453.5571	521.8401	556.0511	576.738	599.3722	643.14	682.782	718.1208	829.8069	873.9042	928.9344	956.0041	979.1106	1013.607	1046.308	1055.7766	1081.254	1102.9944	1142.0426	1208.4094	1231.9719	1243.3235	1275.5445	1340.7954	1357.0201	1392.9009	1436.0858	1477.0883	1527.0031	2244.0308	2999.1348	3008.9407	3081.4277	3146.066	3197.7213	3237.854	3503.2439	3816.4609
OC1COC2(CC12)C#C	O[C@H]1CO[C@]2(C[C@@H]12)C#C	
InChI=1S/C7H8O2/c1-2-7-3-5(7)6(8)4-9-7/h1,5-6,8H,3-4H2	InChI=1S/C7H8O2/c1-2-7-3-5(7)6(8)4-9-7/h1,5-6,8H,3-4H2/t5-,6-,7-/m0/s1
