21
gdb 127419	2.32167	1.55428	0.95309	2.234	87.92	-0.2144	0.0368	0.2512	1287.932	0.181189	-383.318285	-383.307696	-383.306752	-383.354304	36.852	
C	-0.0314354562	 1.3858146203	-0.0438326129	-0.326071
N	-0.0015635356	-0.0564425021	 0.0346003878	-0.020587
N	 0.0062536719	-0.7883976381	-1.1027371341	-0.34006
C	 0.0349085557	-2.0552889123	-0.6982333801	 0.288561
C	 0.0515413733	-3.1734993375	-1.6917511145	-0.493177
C	 0.0458672979	-2.1482220005	 0.7178782103	 0.049944
C	 0.0768659361	-3.4015268094	 1.5369002512	-0.513972
C	 0.0216164612	-0.8333859955	 1.1542452602	 0.290206
C	 0.0182088061	-0.2450848506	 2.5268616995	-0.506957
H	 0.8521272487	 1.8301508545	 0.4278829924	 0.131696
H	-0.0434901011	 1.6501001944	-1.1006206108	 0.159846
H	-0.926330045	 1.7939388456	 0.4391099322	 0.131693
H	 0.9462414494	-3.7981092702	-1.5826330897	 0.12153
H	-0.8151114816	-3.8344879906	-1.5711787232	 0.121527
H	 0.0366158283	-2.7701839024	-2.7065659064	 0.136382
H	 0.9683612025	-4.0047707007	 1.325663283	 0.125249
H	 0.0793451845	-3.1852191431	 2.6091684202	 0.117367
H	-0.791769848	-4.0408986233	 1.3370014309	 0.12525
H	 0.8887029344	 0.3991799781	 2.7009035869	 0.132369
H	-0.8760504117	 0.3624161798	 2.7122613336	 0.132379
H	 0.0395365693	-1.0364717865	 3.2788386137	 0.136826
64.2236	74.3367	120.6995	127.1283	139.983	169.6451	239.6131	273.3397	288.3973	297.8498	329.6425	535.3551	567.9137	619.9181	645.4824	700.0757	723.1643	843.0007	959.813	1011.6102	1047.9277	1058.7091	1058.7833	1076.1686	1105.612	1148.5738	1168.0037	1244.5487	1338.8462	1398.3792	1411.0174	1413.8957	1427.162	1448.8227	1476.906	1477.2008	1480.2405	1484.021	1486.7631	1490.5784	1495.5847	1507.6729	1514.1283	1524.6055	1623.4649	3019.1626	3022.2723	3024.5632	3028.022	3063.2833	3067.4146	3070.7917	3079.9968	3100.3604	3127.1275	3128.4404	3162.57
CN1N=C(C)C(C)=C1C	Cn1nc(C)c(C)c1C	
InChI=1S/C7H12N2/c1-5-6(2)8-9(4)7(5)3/h1-4H3	InChI=1S/C7H12N2/c1-5-6(2)8-9(4)7(5)3/h1-4H3
