21
gdb 99271	3.61699	0.7241	0.69583	1.7949	76.09	-0.2699	0.0119	0.2818	1743.1158	0.179348	-461.4076	-461.396595	-461.395651	-461.445476	38.234	
C	-0.0660585978	 1.4021410219	-0.1434001634	-0.370084
C	 0.1735143811	-0.097507081	 0.0128975285	-0.305675
C	 0.8365215157	-0.4507205472	 1.3286808112	 0.45496
O	 1.2004343975	 0.3326627341	 2.1674514327	-0.34711
O	 0.9760088079	-1.7908725215	 1.4525114003	-0.267503
C	 1.6237092212	-2.257288509	 2.6541212629	-0.081521
C	 1.5917615631	-3.7820668059	 2.606382472	 0.122186
C	 0.1721911399	-4.350036216	 2.6865486052	-0.397532
O	 2.2842420692	-4.2562980489	 1.4598263634	-0.436394
H	 0.8736113023	 1.9560956678	-0.0798806615	 0.135431
H	-0.5312480703	 1.6162614811	-1.1094255136	 0.113289
H	-0.7207689426	 1.7785414771	 0.6466527296	 0.132764
H	-0.7615740538	-0.66564109	-0.0551195397	 0.13142
H	 0.8093084295	-0.4863559242	-0.7920038868	 0.131608
H	 2.6541487413	-1.8907888014	 2.6658753977	 0.125143
H	 1.1029547433	-1.8595950728	 3.5302776658	 0.121087
H	 2.172204971	-4.1414426659	 3.4647224965	 0.092854
H	 0.20602042	-5.4396191289	 2.6127182655	 0.126928
H	-0.3092394384	-4.078933658	 3.6321985396	 0.113575
H	-0.4450138427	-3.9649755216	 1.8688704748	 0.120126
H	 1.8781202925	-3.8267823196	 0.6980317193	 0.284447
29.131	44.9546	71.8351	114.202	165.5069	206.539	218.4249	235.7802	290.5175	366.7484	367.7166	424.4274	439.0495	578.3774	611.3856	678.7017	810.7583	822.3156	895.4463	936.4844	940.373	985.2058	1026.1224	1059.441	1099.8758	1107.1778	1132.9843	1153.2458	1206.8442	1262.444	1278.9165	1309.3012	1365.9931	1369.4479	1394.8674	1410.9839	1416.4719	1428.857	1459.4273	1487.9835	1492.3736	1498.6589	1499.2122	1501.7214	1824.8111	3038.5852	3040.4104	3042.084	3053.2414	3059.3012	3070.868	3106.6852	3110.4112	3124.7317	3127.2858	3130.9151	3799.1678
CCC(=O)OCC(C)O	CCC(=O)OC[C@@H](C)O	
InChI=1S/C6H12O3/c1-3-6(8)9-4-5(2)7/h5,7H,3-4H2,1-2H3	InChI=1S/C6H12O3/c1-3-6(8)9-4-5(2)7/h5,7H,3-4H2,1-2H3/t5-/m1/s1
