16
gdb 128539	3.44926	1.26915	0.93877	3.0262	69.22	-0.2027	0.0141	0.2167	1213.9993	0.123487	-471.186221	-471.176948	-471.176004	-471.2209	31.847	
C	 0.0254010114	 1.401707775	 0.0297433028	-0.240669
O	 0.1013121376	-0.0195825998	-0.0593247651	-0.292847
C	 0.6580812517	-0.632518663	 1.0081290925	 0.292585
C	 0.8296459653	-1.996200749	 1.1301184016	 0.274733
O	 0.5429611432	-3.0518446384	 0.3386326519	-0.438548
N	 1.4137691884	-2.1531175296	 2.3359887338	 0.01688
C	 1.8228000051	-3.3797306137	 2.9834982984	-0.329986
N	 1.597633483	-0.9508539245	 2.9359959366	-0.188496
N	 1.133541741	-0.0341374836	 2.1175627712	-0.28414
H	 1.0226841455	 1.8425211212	 0.1295019095	 0.138042
H	-0.4424546143	 1.735146851	-0.8975388206	 0.126757
H	-0.5785847462	 1.7093732339	 0.8895960335	 0.138115
H	 0.1331273261	-2.7112616472	-0.4652179528	 0.31984
H	 2.5684646983	-3.9046260921	 2.38007273	 0.149927
H	 2.2546672833	-3.1011401478	 3.9444796225	 0.167884
H	 0.9641913805	-4.0385160625	 3.1398716141	 0.149923
57.1783	85.5271	139.8571	179.4269	181.6118	249.6633	274.9075	300.277	350.9298	385.3692	556.0434	620.4572	669.4708	714.1326	778.9686	793.9619	1019.1814	1031.0981	1110.4507	1154.4602	1181.332	1210.748	1235.8406	1279.6613	1295.2513	1324.6015	1414.51	1445.3563	1478.5137	1480.6786	1485.8775	1504.7137	1507.6046	1603.7352	1680.0744	3032.5733	3051.4992	3099.3601	3116.3441	3144.223	3166.0416	3812.9116
COC1=C(O)N(C)N=N1	COc1c(O)n(C)nn1	
InChI=1S/C4H7N3O2/c1-7-4(8)3(9-2)5-6-7/h8H,1-2H3	InChI=1S/C4H7N3O2/c1-7-4(8)3(9-2)5-6-7/h8H,1-2H3
