23
gdb 105885	1.92893	1.47269	1.27724	0.95	85.89	-0.2372	0.0789	0.3161	1210.7595	0.204187	-388.254278	-388.244249	-388.243305	-388.288876	37.551	
C	-1.0673735233	 1.0890766712	-0.4608061575	-0.254922
O	-0.211562476	 0.0120248507	-0.1227974207	-0.279612
C	 0.603415412	-0.4083323468	-1.1596446439	 0.396806
C	 0.0432524747	-1.2379864641	-2.2904689166	-0.055872
C	 0.1618081294	-1.0350964814	-3.7883009222	-0.424336
C	 1.1038232687	-1.8318781767	-1.3858612181	-0.167572
C	 2.5004094695	-1.2942201766	-1.7290148196	-0.262372
C	 2.0180861552	 0.1580049271	-1.382780368	-0.025655
C	 2.2827856097	 1.3222555529	-2.3332849234	-0.426584
H	-0.5042245034	 1.9963438266	-0.7207592222	 0.110155
H	-1.7235846021	 0.8329678858	-1.3045648775	 0.107842
H	-1.6818698752	 1.2975025028	 0.418432336	 0.124336
H	-0.9401594441	-1.6015356809	-1.9931676751	 0.089741
H	 1.1822641729	-0.8147000073	-4.1077829418	 0.12262
H	-0.1522580757	-1.9425452808	-4.3167239763	 0.11431
H	-0.4774913322	-0.2147472372	-4.1330249417	 0.114276
H	 0.9086366215	-2.716206358	-0.7914272423	 0.089911
H	 3.2826796034	-1.652189648	-1.0566695234	 0.102776
H	 2.8354088648	-1.4563017939	-2.7585291823	 0.095129
H	 2.4099743755	 0.4140012865	-0.3922964101	 0.082825
H	 1.8845138822	 1.1431978086	-3.3351167306	 0.118159
H	 1.8302506628	 2.2466253748	-1.9573005095	 0.114866
H	 3.3594259296	 1.5035353447	-2.4307279634	 0.113173
70.0919	132.4013	161.1641	167.247	192.0573	222.863	229.7306	291.5652	329.9696	375.0542	402.7774	509.7604	548.9854	653.9038	673.7239	774.7466	822.8595	872.2935	892.9569	957.3784	983.6629	994.395	1038.5406	1053.1661	1084.4588	1114.1537	1120.67	1121.9643	1152.2613	1177.7432	1180.2428	1218.0534	1230.649	1237.7224	1250.4894	1300.2326	1329.6563	1381.3761	1409.7616	1416.5499	1444.9106	1480.2216	1487.4439	1492.1351	1496.8487	1502.3481	1505.0783	1507.9746	1509.3626	2990.3529	3029.8626	3031.2395	3042.8698	3044.5799	3050.0627	3084.1958	3087.2629	3105.8107	3109.7945	3115.0655	3117.7362	3130.5101	3184.6479
COC12C(C)C1CC2C	CO[C@]12[C@@H](C)[C@H]1C[C@H]2C	
InChI=1S/C8H14O/c1-5-4-7-6(2)8(5,7)9-3/h5-7H,4H2,1-3H3	InChI=1S/C8H14O/c1-5-4-7-6(2)8(5,7)9-3/h5-7H,4H2,1-3H3/t5-,6+,7-,8-/m1/s1
