23
gdb 122937	4.24313	0.53292	0.4938	3.1674	85.12	-0.247	-0.0198	0.2272	2261.8315	0.201875	-425.434987	-425.423361	-425.422417	-425.474034	39.34	
C	-0.1336199365	 1.5589735195	-0.0859253711	-0.384632
C	-0.028010221	 0.0458341749	-0.0003341634	-0.030112
O	-1.3326456559	-0.4977128793	 0.0017438945	-0.242579
C	-1.3523236115	-1.9054156554	 0.0677256917	-0.058094
C	-2.8103801611	-2.3540157356	 0.0746401085	-0.212941
C	-2.9945568273	-3.8852620721	 0.0284686593	-0.064952
C	-2.4687638457	-4.5979103822	 1.2884818641	-0.409923
C	-4.4736676188	-4.1865054238	-0.1228627758	 0.160679
O	-4.9784158816	-4.7486729384	-1.0592986841	-0.248062
H	 0.8625193137	 2.0113661324	-0.0880717672	 0.115082
H	-0.6523987332	 1.8558131481	-1.0017869824	 0.127845
H	-0.6928532059	 1.9533456407	 0.7672244413	 0.126781
H	 0.5474792722	-0.3511230741	-0.854039437	 0.085797
H	 0.5102973919	-0.2540277942	 0.9152572628	 0.084411
H	-0.8246346342	-2.3411306015	-0.7991342979	 0.087321
H	-0.8248336703	-2.2509204561	 0.9721189294	 0.086765
H	-3.3029321041	-1.942889352	 0.9647090216	 0.108587
H	-3.3001349279	-1.9000474339	-0.7944735303	 0.120838
H	-2.4996046498	-4.2891991366	-0.8618514049	 0.095013
H	-2.6344108702	-5.677763749	 1.2260686835	 0.130514
H	-1.3962694488	-4.4336972604	 1.4187493881	 0.130331
H	-2.9747147273	-4.2294596226	 2.1883420811	 0.123034
H	-5.0945747368	-3.8338402184	 0.7366649082	 0.068297
36.2963	44.5001	58.831	98.9742	111.6905	136.0023	207.2844	230.4805	244.9254	268.2059	341.5822	363.1829	415.7062	491.6477	577.9846	792.7816	820.3566	872.7674	900.5941	921.3519	961.6851	983.4388	1035.9526	1064.1001	1114.2242	1144.218	1165.7908	1168.6413	1172.0311	1192.9068	1241.4819	1271.2111	1294.5724	1311.9554	1340.6925	1358.968	1391.9396	1407.799	1409.3442	1428.2939	1452.0778	1483.2871	1488.3517	1498.3078	1499.4886	1505.4023	1517.9756	1539.9013	1837.6442	2836.2894	2943.2427	2956.0429	2975.2168	2979.6519	3030.6491	3035.5805	3045.4212	3052.1962	3077.8224	3103.6685	3118.0878	3119.9075	3122.0587
CCOCCC(C)C=O	CCOCC[C@@H](C)C=O	
InChI=1S/C7H14O2/c1-3-9-5-4-7(2)6-8/h6-7H,3-5H2,1-2H3	InChI=1S/C7H14O2/c1-3-9-5-4-7(2)6-8/h6-7H,3-5H2,1-2H3/t7-/m1/s1
