21
gdb 72033	2.33607	1.96105	1.50422	1.3433	81.19	-0.2222	0.0904	0.3126	1002.9943	0.183999	-387.107831	-387.099945	-387.099	-387.139522	32.284	
C	 0.0022516775	 1.505816175	 0.0661956399	-0.503177
C	 0.0327995117	 0.0044010449	-0.0065287279	 0.253136
C	 1.0613433408	-0.7566786018	-0.8416401573	-0.273896
C	 0.5170901308	-2.1626723325	-0.518327415	 0.049998
C	 0.5263565856	-2.1813247488	 1.0273259315	-0.231925
C	-0.303571334	-0.9144679084	 1.1816264976	-0.197164
C	-1.1944843842	-0.888931657	-0.0465082044	 0.427391
C	-2.628263257	-0.4695471182	-0.1143784275	-0.501574
O	-0.8795933586	-2.0370585191	-0.826315302	-0.296863
H	 0.9257099216	 1.9015049309	 0.5054575771	 0.117307
H	-0.1077486439	 1.9522269322	-0.929156506	 0.118289
H	-0.8292396246	 1.8636695658	 0.6820275313	 0.115529
H	 0.9931990905	-0.5235507062	-1.9088512525	 0.098756
H	 2.0924693803	-0.6106752462	-0.504383694	 0.094391
H	 0.9383126594	-3.0150377868	-1.0476327641	 0.076191
H	 0.0320825776	-3.0702516938	 1.4297365891	 0.102367
H	 1.5349641737	-2.1064359453	 1.4443979784	 0.096489
H	-0.6240154097	-0.5203438353	 2.1377399537	 0.080054
H	-2.8022090487	 0.4184735118	 0.4987908034	 0.120334
H	-2.9188893097	-0.2370467708	-1.1442490494	 0.126463
H	-3.2830540192	-1.2676397803	 0.2504004882	 0.127906
183.7824	192.9357	213.1624	225.075	302.06	333.7266	419.3835	469.0386	553.9772	593.9515	620.6691	687.6781	719.6821	818.4067	888.249	898.4749	906.3438	920.7062	927.2984	943.2439	973.6772	988.922	1005.0763	1055.3574	1100.8906	1118.9878	1140.7066	1154.5249	1176.4721	1183.2072	1206.8045	1248.2869	1281.9391	1306.3301	1331.8817	1349.1429	1412.0478	1420.5441	1450.4558	1476.0542	1478.4746	1492.529	1495.8047	1496.5573	1512.5102	3020.5169	3037.2573	3047.3848	3055.6039	3076.9019	3093.2912	3096.9727	3098.5306	3104.769	3120.1017	3145.4357	3194.3766
CC12CC3CC1C2(C)O3	C[C@@]12C[C@H]3C[C@@H]1[C@]2(C)O3	
InChI=1S/C8H12O/c1-7-4-5-3-6(7)8(7,2)9-5/h5-6H,3-4H2,1-2H3	InChI=1S/C8H12O/c1-7-4-5-3-6(7)8(7,2)9-5/h5-6H,3-4H2,1-2H3/t5-,6+,7-,8+/m1/s1
