23
gdb 119425	2.84894	1.12309	0.953	1.1546	87.65	-0.2338	0.0837	0.3175	1372.6071	0.204589	-388.259151	-388.249295	-388.248351	-388.293864	36.749	
C	 0.8791975433	 1.3470148856	 0.493146089	-0.220266
O	 1.0490158521	-0.0413330102	 0.6433024721	-0.233136
C	-0.1725942446	-0.728993347	 0.8255668483	-0.18369
C	 0.090001916	-2.1988549797	 0.9723449756	 0.311324
C	 1.1949568726	-2.9187737176	 0.2482841174	-0.370195
C	 1.1703673967	-2.957882684	 1.7577297518	 0.323475
C	 2.3029562043	-2.4585630121	 2.6085545359	-0.498097
C	 0.126366196	-3.9950603937	 2.2026075587	-0.273328
C	-0.9731224684	-3.2131486764	 1.4117643318	-0.296966
H	 0.4086943858	 1.8000222159	 1.3803361877	 0.103689
H	 1.8704345836	 1.7861433214	 0.3565147065	 0.126357
H	 0.2582101117	 1.5896218383	-0.3838359394	 0.104293
H	-0.6947987489	-0.3440540806	 1.7204065525	 0.081546
H	-0.8435739495	-0.5446384687	-0.0344223656	 0.085617
H	 0.9823045261	-3.8128454879	-0.3365035903	 0.090609
H	 1.9502838171	-2.2671529804	-0.177265924	 0.121308
H	 2.7419864904	-1.5551539901	 2.1772239889	 0.133739
H	 1.9630010622	-2.2156752534	 3.6225192554	 0.106526
H	 3.0935607498	-3.214093683	 2.7002162638	 0.111642
H	 0.3143508199	-5.0301832093	 1.8965306607	 0.090512
H	-0.0544984141	-3.9813896967	 3.2808115787	 0.096577
H	-1.7292131499	-2.7827010081	 2.0746574627	 0.0969
H	-1.4849920422	-3.7510705923	 0.6063028218	 0.091566
77.1146	91.9007	129.3945	203.8113	206.4201	222.5723	238.1679	325.1351	350.7599	367.5734	442.1046	470.4612	627.9826	710.1356	727.318	789.6341	850.6178	919.3978	940.1061	972.2613	986.513	997.6198	1024.1532	1052.4835	1063.8562	1111.5662	1149.0469	1153.9846	1182.9488	1189.0455	1210.5512	1233.7488	1239.0681	1241.1069	1256.0943	1270.6108	1333.9682	1400.1461	1416.7398	1433.3835	1480.6124	1481.3704	1484.7972	1485.3358	1490.7772	1499.2	1503.205	1520.728	1528.1253	2924.2285	2946.278	2970.1118	3013.1947	3016.945	3033.0288	3041.423	3069.0583	3080.0688	3091.4442	3099.9576	3113.5558	3115.1654	3206.1712
COCC12CC1(C)CC2	COC[C@@]12C[C@]1(C)CC2	
InChI=1S/C8H14O/c1-7-3-4-8(7,5-7)6-9-2/h3-6H2,1-2H3	InChI=1S/C8H14O/c1-7-3-4-8(7,5-7)6-9-2/h3-6H2,1-2H3/t7-,8+/m0/s1
