21
gdb 92605	2.12731	1.57815	1.44217	1.5239	76.58	-0.2368	0.0585	0.2953	1069.367	0.18339	-424.229789	-424.221215	-424.220271	-424.262632	34.25	
O	 0.4289469753	 0.975714693	-0.8966349095	-0.431536
C	 0.0922090629	-0.1242130582	-0.0831466053	 0.082455
C	 0.145463911	 0.0107832125	 1.462039093	-0.296779
C	-1.2307934652	-0.7155445642	 1.5666190095	-0.027702
C	-2.3770659295	 0.0907661116	 2.1860673764	-0.219962
C	-2.6781495288	 1.1801671498	 1.1348552682	-0.215275
C	-2.4737646125	 0.4666096677	-0.2190587654	-0.298264
C	-1.3904777601	-0.6071843846	 0.0158939923	 0.384799
O	-1.6691136831	-1.8354420636	-0.6262968106	-0.490484
H	 0.0278564189	 1.7651471991	-0.5185922761	 0.280896
H	 0.7064470546	-0.9575051119	-0.4361392052	 0.093277
H	 0.992699205	-0.4671949198	 1.9576898262	 0.105756
H	 0.1054252234	 1.0542091268	 1.7944046035	 0.090811
H	-1.1556055802	-1.7401953419	 1.9318867348	 0.076428
H	-3.2543422256	-0.5545171591	 2.3139434698	 0.103378
H	-2.1287072265	 0.5039236298	 3.1692180479	 0.094845
H	-3.6799842149	 1.6062539201	 1.236962659	 0.100666
H	-1.9742212965	 2.0142030268	 1.2426943839	 0.089315
H	-3.3881398563	-0.0642737502	-0.5037210589	 0.10734
H	-2.2198080305	 1.1507065053	-1.035635057	 0.093507
H	-1.6632088012	-1.6804917589	-1.5776087065	 0.27653
66.7676	212.5375	217.251	254.0805	289.7353	291.7062	335.9217	388.8673	458.6262	523.6484	541.6128	592.5288	627.6799	737.0669	814.3818	837.5909	880.3339	901.4941	906.5867	944.9638	982.6937	1007.4955	1046.997	1053.0957	1072.452	1109.9477	1131.9381	1161.9358	1173.4927	1204.7395	1226.5254	1246.7439	1271.1799	1275.2279	1300.6555	1314.3195	1321.6568	1338.6984	1352.6656	1382.6747	1427.7524	1478.097	1482.7729	1490.9056	1509.1704	3029.9508	3034.6681	3042.4291	3046.3523	3072.9273	3078.9661	3082.9962	3095.4247	3101.8276	3116.2492	3796.3692	3813.3836
OC1CC2CCCC12O	O[C@H]1C[C@H]2CCC[C@@]12O	
InChI=1S/C7H12O2/c8-6-4-5-2-1-3-7(5,6)9/h5-6,8-9H,1-4H2	InChI=1S/C7H12O2/c8-6-4-5-2-1-3-7(5,6)9/h5-6,8-9H,1-4H2/t5-,6+,7+/m1/s1
