18
gdb 117054	4.16806	0.80634	0.71326	1.9285	71.96	-0.2476	-0.0414	0.2063	1618.3439	0.145878	-476.285807	-476.275473	-476.274529	-476.322939	34.792	
C	-0.3083878458	 1.3524815208	 0.3039649462	-0.373287
C	 0.3598878353	 0.0640388389	-0.1806385831	-0.145254
N	 1.0950975518	-0.6153244491	 0.8713222413	-0.30471
C	 0.7331285515	-1.8192182734	 1.3710972048	 0.283818
O	-0.2073139122	-2.4981601406	 1.0132385357	-0.360307
C	 1.7019993471	-2.2456543261	 2.4970382372	 0.386036
O	 2.6332036459	-1.566672564	 2.8651421822	-0.380917
O	 1.3769411469	-3.4327874078	 2.9936446347	-0.201364
C	 2.2240150422	-3.9116298964	 4.0489902698	-0.241779
H	 0.4301624947	 2.0626637162	 0.6910317945	 0.117421
H	-0.8389839668	 1.8373046942	-0.5212982792	 0.12306
H	-1.0277434154	 1.1409983662	 1.1001299136	 0.133728
H	-0.3861855134	-0.6487336259	-0.5393816248	 0.150164
H	 1.0409633921	 0.2813859017	-1.0126711914	 0.11258
H	 1.9004382549	-0.1822145896	 1.3004554762	 0.265412
H	 3.2536133164	-4.0109163711	 3.6964912404	 0.14546
H	 2.2051370679	-3.2216636087	 4.896202407	 0.145353
H	 1.8189826869	-4.8818833151	 4.3333002848	 0.144588
30.4087	54.6256	83.4331	119.648	149.9909	169.1544	231.4649	296.425	340.0824	351.9975	429.0795	515.1	537.8281	625.1082	755.6032	813.1993	833.3787	894.639	902.619	1007.078	1075.667	1120.6078	1177.748	1179.5472	1204.5157	1228.8507	1308.0604	1332.1515	1392.0707	1411.6527	1474.2309	1483.0122	1487.8129	1492.5044	1493.1364	1504.1808	1556.4772	1795.2559	1804.6018	3030.3331	3036.7919	3054.2662	3098.8276	3116.7733	3124.6359	3129.8447	3168.9661	3609.5139
CCNC(=O)C(=O)OC	CCNC(=O)C(=O)OC	
InChI=1S/C5H9NO3/c1-3-6-4(7)5(8)9-2/h3H2,1-2H3,(H,6,7)	InChI=1S/C5H9NO3/c1-3-6-4(7)5(8)9-2/h3H2,1-2H3,(H,6,7)
