17
gdb 19433	3.96367	1.94144	1.62226	1.0312	67.62	-0.2458	0.0782	0.324	831.753	0.144227	-363.828509	-363.821951	-363.821007	-363.859049	26.171	
C	-0.0340989134	 1.4794153258	-0.0107432648	-0.297052
N	 1.2338030356	 0.7209549548	-0.0080244296	-0.359379
C	-0.05343213	 0.0011283323	 0.0247463308	 0.352875
C	-0.379749082	-0.8416032744	 1.2580221582	-0.291585
C	-0.2926585077	-2.31321037	 0.7718495712	-0.247261
C	-0.5855406257	-2.2283938534	-0.7154488609	 0.049242
O	-1.7409684668	-1.4356132072	-1.0282002435	-0.261075
C	-0.4440787313	-0.8349890091	-1.1589871603	-0.044087
H	-0.2272347004	 2.0430720004	 0.8981289354	 0.120467
H	-0.3460897303	 1.977854638	-0.9253672065	 0.11308
H	 1.6265666026	 0.7016839962	-0.9477128622	 0.226923
H	 0.3093354406	-0.6220856127	 2.0753766835	 0.115204
H	-1.3957278941	-0.6202865927	 1.5947038884	 0.118661
H	 0.7170351374	-2.7179187082	 0.9088489741	 0.110451
H	-0.9876114194	-2.973072431	 1.2993203783	 0.110571
H	-0.411779291	-3.0764081816	-1.3731149858	 0.094592
H	-0.1536657342	-0.5415295772	-2.1665345264	 0.088372
120.2461	228.3789	295.8482	357.2512	370.9606	474.8972	548.3683	680.0239	763.3405	826.8075	833.3271	856.7584	876.4007	907.5819	930.4765	950.1286	981.5518	988.8727	1031.9822	1071.3394	1085.8085	1108.7078	1136.4616	1186.6227	1213.9369	1250.7942	1263.1474	1290.7067	1314.6677	1320.0458	1344.2547	1396.7695	1445.1674	1476.226	1489.2361	1515.0673	3043.6865	3070.7827	3091.6867	3104.1247	3125.2288	3126.7801	3149.5342	3188.3112	3476.0694
C1NC11CCC2OC12	C1N[C@]21CC[C@H]1O[C@@H]21	
InChI=1S/C6H9NO/c1-2-6(3-7-6)5-4(1)8-5/h4-5,7H,1-3H2	InChI=1S/C6H9NO/c1-2-6(3-7-6)5-4(1)8-5/h4-5,7H,1-3H2/t4-,5-,6+/m1/s1
