19
gdb 96677	4.48305	0.78358	0.69757	8.893	74.55	-0.2328	0.0111	0.244	1598.4176	0.158753	-456.399822	-456.389867	-456.388923	-456.435792	34.937	
C	-0.3876691249	 1.624167693	-0.4246086089	-0.344078
N	 0.0216898906	 0.2527323606	-0.2081232975	-0.299511
H	 0.9527918364	-0.0139889942	-0.4760574003	 0.255133
C	-0.7897489641	-0.6984595162	 0.3274409102	 0.408586
N	-1.9916647476	-0.5064658739	 0.7453408773	-0.558544
C	-0.1835437616	-2.089222597	 0.3952484403	-0.297546
C	-0.7779172654	-3.0197577953	 1.4715806568	-0.325956
C	-2.0976026424	-3.7149646494	 1.1039728474	 0.385401
O	-3.1249494072	-2.9162983361	 0.8255678903	-0.376592
O	-2.1931085149	-4.9177075528	 1.08507244	-0.339821
H	 0.4291240224	 2.1665406723	-0.9029400303	 0.141227
H	-1.2667161439	 1.6814811078	-1.0785783155	 0.143863
H	-0.6264093788	 2.1295875472	 0.5197980538	 0.141572
H	-2.3205794145	 0.4495813548	 0.6436011885	 0.220137
H	-2.8374283919	-1.9565604143	 0.8703440434	 0.33257
H	-0.2749938153	-2.5505431353	-0.5966480084	 0.146774
H	 0.8919928228	-1.9846383391	 0.5809098563	 0.111932
H	-0.0680388072	-3.821848873	 1.6784103867	 0.126029
H	-0.9247146426	-2.450303009	 2.39607448	 0.128823
35.0363	89.7657	103.0742	154.1366	156.7413	211.1472	249.6317	311.0591	335.5749	395.1467	475.3895	561.2006	596.8998	643.4064	743.3129	816.1961	830.3176	845.4759	955.1996	967.4903	986.6085	1039.4642	1075.8897	1157.783	1178.1805	1189.1861	1213.5551	1236.953	1313.9853	1316.8111	1356.74	1404.8425	1455.6006	1468.2252	1468.7604	1483.1874	1519.1236	1526.9499	1552.9449	1695.9551	1845.8674	3014.2887	3028.5325	3041.7501	3051.6191	3063.5754	3067.0418	3125.9206	3137.7448	3525.4085	3665.6069
C[NH+]=C(N)CCC([O-])=O	CNC(=N)CCC(=O)O	
InChI=1S/C5H10N2O2/c1-7-4(6)2-3-5(8)9/h2-3H2,1H3,(H2,6,7)(H,8,9)	InChI=1S/C5H10N2O2/c1-7-4(6)2-3-5(8)9/h2-3H2,1H3,(H2,6,7)(H,8,9)
