21
gdb 92918	2.37344	1.33305	1.01381	0.7112	89.82	-0.2431	0.02	0.2631	1267.2015	0.182741	-349.944782	-349.935799	-349.934855	-349.978205	35.071	
C	 0.041521144	 1.6060405658	-0.02510326	-0.407291
C	 0.0415430889	 0.0756856557	-0.0310600501	 0.037057
C	 0.7645568923	-0.4894475893	-1.2649889754	-0.243983
C	 1.0199379122	-1.9697623597	-1.1639921094	-0.058141
C	 0.9067445638	-2.6695391298	-0.0376104127	-0.053502
C	 0.5345427157	-2.0446070579	 1.2966916429	-0.222503
C	 0.6702965782	-0.5032929395	 1.2427806923	-0.209341
C	-0.8082634383	-2.4655419694	 1.7076712838	 0.354299
C	-1.9129309591	-2.8058597837	 2.0398691592	-0.50054
H	 1.0622718103	 2.0003817408	 0.049588859	 0.110767
H	-0.4016665114	 2.0071342655	-0.9430878828	 0.110382
H	-0.5299882902	 1.9994920858	 0.8220488783	 0.112675
H	-1.0001550739	-0.2710795682	-0.0669087065	 0.08852
H	 0.1807834449	-0.2777090808	-2.1704054889	 0.103221
H	 1.7216670909	 0.0370584278	-1.4090989758	 0.102975
H	 1.3142528262	-2.4802634465	-2.0784834063	 0.087111
H	 1.0743746589	-3.742799913	-0.0347515788	 0.094067
H	 1.2368618079	-2.420280078	 2.0545955943	 0.10522
H	 1.7386216004	-0.2514933565	 1.2673194482	 0.093408
H	 0.212969031	-0.0646448423	 2.135106889	 0.101675
H	-2.8865230628	-3.111503707	 2.3329775296	 0.193924
85.2932	110.7536	181.0064	229.1939	252.3767	301.8659	365.3685	414.1327	422.3203	453.5014	542.1897	601.3081	616.1339	634.7245	721.5366	757.4209	802.5032	889.6449	897.0516	915.0756	943.8592	987.3339	1003.5594	1014.5614	1070.037	1108.7399	1119.4502	1136.508	1182.5372	1225.8724	1274.3105	1286.5297	1320.113	1328.795	1337.9876	1380.93	1398.7682	1408.383	1415.1441	1470.8534	1487.4097	1497.8746	1500.1082	1724.9962	2228.6072	2982.9622	2996.2941	3012.4106	3021.8905	3028.4978	3036.1561	3079.7606	3089.0035	3097.3563	3144.1597	3173.8737	3505.1254
CC1CC=CC(C1)C#C	C[C@H]1CC=C[C@@H](C1)C#C	
InChI=1S/C9H12/c1-3-9-6-4-5-8(2)7-9/h1,4,6,8-9H,5,7H2,2H3	InChI=1S/C9H12/c1-3-9-6-4-5-8(2)7-9/h1,4,6,8-9H,5,7H2,2H3/t8-,9-/m0/s1
