14
gdb 12164	4.0299	1.45825	1.13114	1.6718	65.12	-0.2497	-0.0364	0.2133	993.8711	0.104349	-382.504408	-382.496305	-382.49536	-382.53705	29.238	
O	 0.6128760664	 0.7957350842	 0.7109970025	-0.42064
C	 0.2520974705	-0.2910106842	-0.07202811	 0.062519
C	-1.2610152871	-0.7676680225	-0.198954605	-0.230656
C	-1.0095968376	-1.0461170007	-1.7240759605	-0.347357
C	 0.214030333	-0.1326615359	-1.5955466964	 0.325589
O	 0.7545441832	 0.6535241223	-2.320498547	-0.296149
C	-1.6920656487	-1.8621505628	 0.6391329902	 0.303592
C	-2.0248162787	-2.786449237	 1.3326274494	-0.431439
H	 0.6062943665	 1.5803446397	 0.149178183	 0.298107
H	 0.8518530046	-1.1629545599	 0.2173773232	 0.127354
H	-1.9131804988	 0.1034290174	-0.0825987511	 0.119317
H	-0.7369342437	-2.088474577	-1.9086191483	 0.146298
H	-1.777693586	-0.7368633574	-2.4336305391	 0.142866
H	-2.3255912336	-3.5970321662	 1.9491725491	 0.2006
84.9728	121.2345	149.9485	207.1162	264.3719	337.3095	408.8353	462.9816	522.1604	618.0403	622.5915	638.9995	665.783	763.3597	805.0971	886.6863	988.1191	1035.6714	1067.2629	1112.9667	1156.0592	1175.9898	1204.538	1231.2608	1309.6491	1360.3085	1415.1595	1447.6893	1882.9351	2237.1826	3040.731	3065.9352	3079.3603	3145.0516	3503.9816	3784.682
OC1C(CC1=O)C#C	O[C@H]1[C@@H](CC1=O)C#C	
InChI=1S/C6H6O2/c1-2-4-3-5(7)6(4)8/h1,4,6,8H,3H2	InChI=1S/C6H6O2/c1-2-4-3-5(7)6(4)8/h1,4,6,8H,3H2/t4-,6+/m1/s1
