17
gdb 34979	4.22294	1.36699	1.30895	4.8257	75.79	-0.2425	0.0202	0.2627	991.7858	0.139602	-380.822828	-380.816369	-380.815425	-380.853665	26.387	
N	-0.2048832254	-1.2329846553	-0.127590039	-0.334357
C	-0.1079882835	-0.0828737394	-0.0576258323	 0.273758
C	 0.0075516245	 1.3645694887	 0.0364233612	-0.143913
C	-0.0962180042	 2.0858769853	 1.4204416044	-0.08111
C	 1.0529770722	 1.3876475331	 2.1703403464	-0.177178
N	 2.1813547272	 1.8330895978	 1.2901341578	-0.143646
C	 2.0850712063	 3.3301479012	 1.5229701353	-0.189601
C	 0.7555898374	 3.2737563231	 0.7817361626	-0.057198
C	 1.364272834	 2.0867070748	-0.013015702	-0.004144
H	-0.655653735	 1.8311527558	-0.6983456577	 0.12664
H	-1.060762376	 2.2353735369	 1.9009130152	 0.087439
H	 1.2079692526	 1.7371002682	 3.1928254369	 0.108868
H	 0.9638652181	 0.2993422741	 2.1800549525	 0.134388
H	 2.1359526075	 3.6373072876	 2.5714110351	 0.107182
H	 2.8575282735	 3.8480582636	 0.9477462216	 0.115441
H	 0.2212224966	 4.1132841891	 0.3366762858	 0.079584
H	 1.9823032343	 2.1581208054	-0.9047736139	 0.097846
131.1999	155.9144	370.2832	400.7207	499.6515	525.2841	562.7062	702.1345	720.7276	764.2946	829.8924	834.2957	851.1077	901.3635	918.2391	968.768	971.4608	981.1998	1013.4585	1022.2077	1043.9176	1069.9076	1130.2921	1131.9419	1154.3947	1189.0198	1201.9138	1226.0868	1248.6073	1259.8919	1280.2703	1287.5572	1328.5066	1365.4211	1504.4666	1530.3682	2352.5761	3052.2448	3073.9388	3077.1511	3108.7407	3113.4974	3126.4802	3144.0381	3152.0771
N#CC1C2CN3CC2C13	N#C[C@H]1[C@H]2CN3C[C@H]2[C@H]13	
InChI=1S/C7H8N2/c8-1-4-5-2-9-3-6(5)7(4)9/h4-7H,2-3H2	InChI=1S/C7H8N2/c8-1-4-5-2-9-3-6(5)7(4)9/h4-7H,2-3H2/t4-,5+,6+,7-/m0/s1
