16
gdb 98038	5.74245	0.56235	0.51706	5.5758	80.58	-0.2699	-0.0623	0.2076	2046.2996	0.121338	-400.750467	-400.740324	-400.73938	-400.788461	33.688	
C	-0.076776107	 1.5173975051	 0.1361031439	-0.386455
C	 0.0361855421	 0.006005574	-0.0433247002	-0.280786
C	 0.7569804027	-0.3939366091	-1.3192057411	 0.220193
O	 1.1985481621	 0.4038346497	-2.1161048539	-0.279506
C	 0.8899624283	-1.8291908121	-1.534634078	 0.001756
C	 0.9977079982	-3.0167029419	-1.7085097945	 0.175917
C	 1.1251506621	-4.4557655307	-1.9136879449	-0.484577
C	 1.8338119231	-4.8141370872	-3.1491796509	 0.287261
N	 2.3879697944	-5.1179590625	-4.1149002101	-0.289629
H	 0.9118556897	 1.9818891263	 0.1685265965	 0.136568
H	-0.6219430184	 1.9698365296	-0.6959273896	 0.136596
H	-0.6022453487	 1.7534354513	 1.0652272622	 0.113794
H	 0.5672504584	-0.4634969916	 0.7961164453	 0.13188
H	-0.9512424415	-0.4755612323	-0.057991455	 0.131875
H	 1.6537088121	-4.9102003201	-1.0656455899	 0.192527
H	 0.1309587723	-4.9206925684	-1.9360613097	 0.192586
11.9847	57.0881	57.5429	129.0576	141.0039	206.79	262.2384	338.4124	348.3329	381.6784	400.6564	538.9605	564.7039	625.1532	741.5008	806.3124	910.8042	928.0191	962.9399	1017.444	1088.9995	1091.2661	1186.0875	1234.3242	1271.1552	1335.2668	1369.2914	1414.9602	1437.6403	1447.2199	1492.9196	1498.2371	1772.3676	2345.6843	2376.4087	3021.1799	3028.3874	3048.296	3054.1568	3059.4074	3126.9335	3130.378
CCC(=O)C#CCC#N	CCC(=O)C#CCC#N	
InChI=1S/C7H7NO/c1-2-7(9)5-3-4-6-8/h2,4H2,1H3	InChI=1S/C7H7NO/c1-2-7(9)5-3-4-6-8/h2,4H2,1H3
