20
gdb 118788	4.35298	0.74947	0.71948	4.7365	80.95	-0.2767	0.0289	0.3056	1593.2743	0.169457	-403.152333	-403.142226	-403.141281	-403.187699	36.432	
C	-0.0113615738	 1.6925253508	 0.1566642962	-0.470208
C	-0.0590656252	 0.1805619734	 0.035411721	 0.331133
C	-1.3722880336	-0.4078193422	-0.4570137852	-0.249522
C	-1.7296442576	-0.007784451	-1.8873656233	-0.076719
O	-2.9035016847	-0.7228026636	-2.2384961677	-0.417487
C	 1.2090688876	-0.542299238	-0.3215371218	-0.314527
C	 0.6669602123	-0.649985367	 1.0986325078	-0.229438
C	 1.3671275352	-0.01650551	 2.1789776133	 0.291042
N	 1.9266861658	 0.4989546178	 3.051360807	-0.347346
H	 0.9200599512	 2.0294651126	 0.6181905862	 0.142379
H	-0.0871957324	 2.166422469	-0.8271228169	 0.123455
H	-0.8392106694	 2.0607147694	 0.7722913179	 0.129526
H	-1.3295589894	-1.5026022953	-0.4234997914	 0.108787
H	-2.1904385937	-0.1046181443	 0.2073495881	 0.115146
H	-1.8930646271	 1.0785283842	-1.9514386047	 0.092553
H	-0.8921124988	-0.2534475457	-2.5605874007	 0.08894
H	-3.1736905945	-0.4470776933	-3.1191311984	 0.28852
H	 1.152619127	-1.4393065482	-0.9286110083	 0.127014
H	 2.112652588	 0.0408694269	-0.4577291823	 0.135427
H	 0.2044152829	-1.5922559554	 1.3735805932	 0.131327
69.3306	86.4672	103.6106	150.8235	213.1533	215.6386	261.4337	301.3538	339.4783	358.9213	415.2358	430.2204	555.4941	624.1805	730.1427	797.9874	811.7873	865.6783	943.7475	958.0131	983.8036	1015.1101	1048.9974	1076.5597	1082.8187	1106.7268	1116.3527	1139.8546	1218.4205	1246.7358	1268.3759	1303.7073	1347.5472	1354.8999	1398.954	1427.4468	1462.1497	1480.5289	1486.8614	1500.7976	1504.6516	1529.3412	2348.7876	2967.0895	2999.8197	3032.9004	3038.4127	3077.2939	3100.0925	3122.5063	3137.915	3164.4376	3227.886	3832.3747
CC1(CCO)CC1C#N	C[C@@]1(CCO)C[C@H]1C#N	
InChI=1S/C7H11NO/c1-7(2-3-9)4-6(7)5-8/h6,9H,2-4H2,1H3	InChI=1S/C7H11NO/c1-7(2-3-9)4-6(7)5-8/h6,9H,2-4H2,1H3/t6-,7+/m0/s1
