16
gdb 125800	3.17435	1.57071	1.07306	3.0629	71.75	-0.213	-0.0053	0.2077	1085.3939	0.125424	-437.869804	-437.86215	-437.861205	-437.902409	28.091	
C	 0.0033071281	 1.5204538131	-0.0006986486	-0.50246
C	-0.0199964381	 0.0287782626	 0.0514097381	 0.245187
N	-0.0218400418	-0.6799685253	-1.0683630137	-0.206192
O	-0.0424760909	-2.0411048053	-0.7073850847	-0.226168
C	-0.0584337066	-2.0914216367	 0.6280528426	 0.302414
C	-0.0428285218	-0.8566041981	 1.158499479	 0.195829
O	-0.0257508358	-0.8068909453	 2.5188861696	-0.294584
C	-0.1938526831	-2.1999300809	 2.9365113911	-0.09543
C	-0.0234788895	-3.1422812125	 1.6856464681	-0.380836
H	 0.8894949354	 1.9149712821	 0.5069540599	 0.141975
H	 0.0133665232	 1.8565535116	-1.0390494904	 0.151708
H	-0.8744096561	 1.9425695572	 0.499339826	 0.141516
H	 0.540375687	-2.3978275631	 3.7193602724	 0.129286
H	-1.199083436	-2.2970533959	 3.3581645876	 0.126846
H	-0.8321986427	-3.8766516037	 1.6275499279	 0.135832
H	 0.9244167688	-3.6930875998	 1.704013675	 0.135078
82.4192	129.1251	149.4302	233.0696	275.7043	364.2658	487.2396	591.6141	618.5876	628.28	695.3885	764.4597	794.4287	833.8346	907.0132	929.216	963.6823	1026.1919	1065.5698	1073.19	1090.5741	1190.0161	1227.1719	1243.3754	1270.0619	1359.4267	1383.1898	1414.7536	1459.5009	1480.3083	1490.3788	1508.9645	1512.503	1547.0662	1695.4879	3032.6759	3042.8303	3053.8701	3079.4271	3098.785	3120.6293	3141.2309
CC1=NOC2=C1OCC2	Cc1noc2c1OCC2	
InChI=1S/C6H7NO2/c1-4-6-5(9-7-4)2-3-8-6/h2-3H2,1H3	InChI=1S/C6H7NO2/c1-4-6-5(9-7-4)2-3-8-6/h2-3H2,1H3
