15
gdb 32025	2.9756	1.40664	0.96105	7.5087	75.16	-0.2232	-0.0435	0.1796	1160.7198	0.112811	-454.009089	-454.000647	-453.999703	-454.04313	29.821	
C	-0.0892722889	 1.4891202081	 0.0364320827	-0.331157
N	-0.0533590146	 0.0355351855	-0.0094368925	-0.356589
C	-1.148011672	-0.7463931442	 0.0004044939	 0.52271
C	-1.1322328468	-2.1353629385	 0.024485533	-0.309411
C	-2.3788421998	-2.7574922926	 0.0199140957	 0.049938
N	-3.5560678987	-2.1579894797	-0.012448561	-0.358755
C	-3.609614512	-0.8126145955	-0.0461215579	 0.439182
O	-4.5402679536	-0.0709709004	-0.0877053574	-0.327435
O	-2.2900725892	-0.0927849843	-0.0245011737	-0.269159
H	 0.8807672925	 1.8703316362	-0.2869294156	 0.137554
H	-0.8616136167	 1.8632092165	-0.6369568029	 0.17214
H	-0.3007875939	 1.8636981824	 1.0446633233	 0.147277
H	 0.8345511079	-0.4288419342	 0.0820331607	 0.265729
H	-0.2063094598	-2.691756753	 0.0468785631	 0.096453
H	-2.4157404844	-3.8464506163	 0.0451221388	 0.121522
47.0269	96.4849	130.8875	180.3035	188.5543	415.5672	433.1046	446.6514	453.0339	548.7176	562.2418	685.7497	730.2289	756.1452	786.6172	849.6197	961.5955	1015.74	1028.341	1105.4893	1126.7419	1151.978	1180.3722	1328.5907	1385.7483	1441.207	1481.9398	1489.6601	1493.6652	1523.2893	1595.8116	1664.2234	1907.6305	3036.985	3114.12	3133.3881	3153.4009	3229.3153	3658.2292
CNC1=CC=NC(=O)O1	CNc1ccnc(=O)o1	
InChI=1S/C5H6N2O2/c1-6-4-2-3-7-5(8)9-4/h2-3,6H,1H3	InChI=1S/C5H6N2O2/c1-6-4-2-3-7-5(8)9-4/h2-3,6H,1H3
