16
gdb 33761	2.45211	1.65363	1.27245	4.5016	74.59	-0.2598	-0.0093	0.2505	1021.5111	0.12378	-400.663604	-400.656093	-400.655149	-400.695549	29.205	
N	 0.0692009044	-1.1005403181	-0.031576639	-0.342934
C	 0.0274306966	 0.0538672287	 0.0024795195	 0.174895
C	-0.0832546692	 1.4910670477	 0.0235142099	 0.235545
C	-0.6426005765	 2.4254581813	 1.1336730442	-0.252848
C	 0.0112248232	 3.2861057607	 0.0226984971	-0.066015
O	 1.1459751153	 2.3174864403	-0.0055651479	-0.326837
C	-0.6942364221	 2.4302295971	-1.0370111871	 0.411627
C	-0.6699726999	 2.4045154987	-2.5165833615	-0.356028
C	-1.9947768826	 2.4777146314	-1.7559747381	-0.359358
H	-1.7259793177	 2.4723864281	 1.2555501076	 0.11839
H	-0.0904765571	 2.3859838077	 2.0723469191	 0.126074
H	 0.2573288604	 4.345752646	 0.0175722436	 0.115775
H	-0.3337981765	 3.292201485	-3.0418827736	 0.127469
H	-0.4235639371	 1.4708249863	-3.0110887234	 0.136747
H	-2.6220540214	 1.5921431453	-1.7496044629	 0.132733
H	-2.5427496297	 3.4142732837	-1.7741844275	 0.124764
111.5604	153.2759	207.2234	266.9005	293.7248	473.6868	504.0129	517.6498	555.5129	617.197	697.481	733.4619	771.7665	803.6008	909.985	918.5868	945.2378	969.0042	983.3964	1003.7395	1052.5094	1069.8636	1086.2185	1096.543	1164.0375	1180.104	1201.0631	1211.6128	1221.262	1279.3553	1416.4958	1459.5037	1479.7061	1523.1105	2359.2122	3081.1315	3128.6	3133.9716	3151.9104	3168.5839	3208.8358	3222.6891
N#CC12CC(O1)C21CC1	N#C[C@@]12C[C@@H](O1)C12CC1	
InChI=1S/C7H7NO/c8-4-7-3-5(9-7)6(7)1-2-6/h5H,1-3H2	InChI=1S/C7H7NO/c8-4-7-3-5(9-7)6(7)1-2-6/h5H,1-3H2/t5-,7-/m1/s1
