20
gdb 121220	2.44956	0.97382	0.73735	3.244	77.88	-0.2421	0.0217	0.2638	1528.2324	0.170396	-440.289264	-440.279483	-440.278539	-440.325105	34.22	
O	-0.2775278901	 1.5653889351	 0.1016689143	-0.417851
C	-0.0938709547	 0.1819679968	-0.150400164	-0.082557
C	-1.4128832151	-0.5175742755	 0.1548927754	-0.175625
C	-1.361731116	-2.0347419457	 0.0174223856	 0.026006
C	-2.7253607086	-2.7794358233	 0.1590402358	-0.271106
C	-2.5446388834	-3.303377209	-1.2925353862	-0.16197
N	-1.2810141866	-2.5616332741	-1.363726705	-0.045627
C	-0.2228516645	-2.8353477601	-2.1633514789	 0.124879
O	-0.2658376615	-3.5619496812	-3.1350867536	-0.329052
H	 0.524362918	 2.0289189699	-0.1567293873	 0.288615
H	 0.1906811812	 0.0019708414	-1.1986137092	 0.096559
H	 0.7053099493	-0.2384144159	 0.4835362605	 0.084165
H	-1.7014722326	-0.274245112	 1.1851587703	 0.113613
H	-2.1918978563	-0.1137241071	-0.5017840678	 0.110924
H	-0.5724584134	-2.4449532135	 0.6611707904	 0.086933
H	-2.7443306092	-3.5535778843	 0.9263286647	 0.118417
H	-3.5766129438	-2.1122480377	 0.3024710195	 0.117333
H	-2.4075476114	-4.3836390274	-1.3988776053	 0.128431
H	-3.2926470376	-2.9726403306	-2.019069435	 0.123571
H	 0.6978589162	-2.3087769457	-1.8360428442	 0.064342
63.052	73.215	92.8166	129.0701	167.0961	212.9933	265.946	316.6972	333.8399	358.6705	482.5095	580.93	751.3344	785.642	810.6228	878.9682	922.665	954.5465	1000.1176	1030.9536	1044.9537	1066.262	1090.6437	1147.6102	1158.0328	1177.6223	1212.897	1225.2063	1253.3454	1266.9329	1274.9908	1310.7473	1319.5818	1340.018	1385.1869	1394.9073	1433.2352	1464.0327	1481.428	1490.218	1521.9739	1528.183	1788.6855	2914.3193	2957.3106	2997.0401	3014.9539	3033.9095	3050.5583	3082.3082	3087.893	3092.8723	3144.0092	3831.5103
OCCC1CCN1C=O	OCC[C@H]1CCN1C=O	
InChI=1S/C6H11NO2/c8-4-2-6-1-3-7(6)5-9/h5-6,8H,1-4H2	InChI=1S/C6H11NO2/c8-4-2-6-1-3-7(6)5-9/h5-6,8H,1-4H2/t6-/m1/s1
