19
gdb 70273	3.84728	1.02478	0.9114	3.3181	76.12	-0.2514	-0.0235	0.2279	1302.9841	0.158312	-423.041552	-423.032972	-423.032028	-423.075115	32.183	
C	-0.0945388599	 1.4999543248	 0.0279008187	-0.484123
C	-0.0822573221	-0.0022942281	 0.0896086501	 0.417508
C	-1.2634274219	-0.8067117534	-0.4345222902	-0.311453
C	-0.9786042575	-2.2682976869	 0.0113295303	-0.061649
C	-0.1111996969	-2.1291360125	 1.2963265293	-0.27705
C	 0.6005356402	-0.8053592438	 1.1130996307	-0.010031
O	 1.1762279263	-0.6450819749	-0.1924905304	-0.295299
C	-2.2516241174	-3.0368916467	 0.2721842435	 0.151664
O	-2.5819019135	-4.0531944843	-0.2798657653	-0.246333
H	 0.8110762955	 1.9109170327	 0.4804416296	 0.133224
H	-0.140670384	 1.8437499896	-1.0111693321	 0.131051
H	-0.9660292275	 1.9047582729	 0.5533406645	 0.122703
H	-2.1852625494	-0.4263128279	 0.0268306515	 0.104042
H	-1.3840773288	-0.7285205843	-1.5190117168	 0.122295
H	-0.4165880967	-2.7920669575	-0.762035167	 0.112016
H	-0.7384331783	-2.0776732381	 2.1970175494	 0.106088
H	 0.5713295871	-2.9747339055	 1.4180277621	 0.126119
H	 1.1638744489	-0.3616359212	 1.9309671113	 0.094234
H	-2.9008961341	-2.5723725347	 1.0555623408	 0.064994
66.7513	92.4906	184.9645	230.4132	269.019	340.3855	353.6223	364.1038	403.1689	494.2265	588.3323	688.7705	718.6186	840.7199	862.8363	897.6476	906.0245	924.6544	981.0491	997.939	1030.7471	1060.426	1084.5931	1101.2886	1146.9688	1182.9495	1220.4819	1234.3779	1278.0793	1293.2114	1316.2908	1338.4313	1344.0809	1413.0406	1427.6281	1457.6512	1476.5441	1482.6904	1489.9775	1503.3583	1837.3225	2824.3635	3019.557	3023.5511	3036.6705	3086.2497	3091.2976	3098.3478	3119.1506	3124.9978	3141.0716
CC12CC(CC1O2)C=O	C[C@]12C[C@@H](C[C@H]1O2)C=O	
InChI=1S/C7H10O2/c1-7-3-5(4-8)2-6(7)9-7/h4-6H,2-3H2,1H3	InChI=1S/C7H10O2/c1-7-3-5(4-8)2-6(7)9-7/h4-6H,2-3H2,1H3/t5-,6-,7+/m1/s1
