19
gdb 47900	2.43838	1.54822	1.09773	5.5471	79.93	-0.2023	0.0027	0.205	1129.7724	0.162664	-419.245355	-419.237003	-419.236059	-419.27817	32.28	
O	 0.1665844943	-0.0824222693	 0.2611002214	-0.396719
C	 0.0170340621	 1.1138247523	 0.051322625	 0.335544
N	-1.2272712249	 1.6858679831	 0.207815348	-0.310665
C	-1.6482071912	 3.0151865384	-0.1859031486	-0.169201
C	-1.5007773678	 4.0505842018	 0.9397616323	-0.180076
C	-0.0824602956	 4.0482432914	 1.5205968872	-0.168926
N	 0.9487530332	 4.2341514009	 0.5105914791	-0.290339
C	 1.51583013	 3.2288284092	-0.2245077306	-0.003052
C	 1.1488109983	 1.9428554792	-0.4266920511	-0.192105
H	-1.9221656123	 1.0269197411	 0.5247806457	 0.238521
H	-1.0559695072	 3.3278275868	-1.0510860212	 0.135311
H	-2.6909549979	 2.969405966	-0.5168191422	 0.107844
H	-1.7446770141	 5.0455987008	 0.548743122	 0.095551
H	-2.2110514812	 3.8326953753	 1.7470362316	 0.097636
H	 0.0194975207	 4.8487943662	 2.2590408019	 0.106699
H	 0.0996230936	 3.1020496729	 2.0440762992	 0.134915
H	 1.4846063286	 5.081362193	 0.5694850613	 0.247379
H	 2.433779916	 3.5525314891	-0.7107506892	 0.106973
H	 1.8635082756	 1.3404169718	-0.9752109719	 0.104712
82.7424	139.8919	230.0843	260.6259	278.3111	298.677	381.1257	421.4307	487.2277	530.4234	556.1698	588.6579	705.0946	742.7861	790.3661	808.7415	837.7931	879.4775	909.9695	973.8516	1036.1776	1063.5901	1077.2617	1121.1371	1175.9758	1245.6695	1257.8987	1320.148	1337.3324	1344.7814	1382.7818	1394.0802	1413.6113	1446.701	1457.5972	1476.0724	1487.2816	1489.6798	1531.4075	1689.9486	1744.7634	3025.4368	3036.1031	3047.5471	3068.8395	3090.6751	3096.55	3148.1915	3199.3219	3620.9752	3670.0559
O=C1NCCCNC=C1	O=C1NCCCNC=C1	
InChI=1S/C6H10N2O/c9-6-2-5-7-3-1-4-8-6/h2,5,7H,1,3-4H2,(H,8,9)/b5-2-	InChI=1S/C6H10N2O/c9-6-2-5-7-3-1-4-8-6/h2,5,7H,1,3-4H2,(H,8,9)/b5-2-
