12
gdb 131010	4.37016	1.05955	0.85279	6.4052	72.26	-0.2939	-0.0841	0.2098	1220.2975	0.078859	-431.710197	-431.703033	-431.702089	-431.742325	25.554	
O	-0.0223208167	-0.042110257	-0.0004117073	-0.231533
C	 0.0171755213	 1.1488594659	 0.009181966	 0.198696
N	 1.2078989665	 1.9132728879	 0.0018210773	-0.025811
C	 1.2715694712	 3.2876725639	 0.0125515659	 0.012987
C	 2.5940838266	 3.6208376287	 0.0000388623	-0.314994
C	 3.269658854	 2.3634516831	-0.0181826735	 0.277539
N	 2.4275945406	 1.3364877163	-0.0170321605	-0.27574
C	 4.6796611848	 2.1581765494	-0.0361578459	 0.250541
N	 5.8302585034	 2.0433543745	-0.050388223	-0.322328
H	-0.8629601703	 1.8161732287	 0.0247870863	 0.114468
H	 0.3772209573	 3.8899364363	 0.0278718275	 0.167095
H	 3.0346971213	 4.6034842222	 0.0031136547	 0.149079
123.6194	133.5783	161.3966	257.2402	289.1556	501.7552	507.8912	568.6758	586.6081	639.3538	724.8049	787.6399	822.9103	877.9888	995.823	1021.2645	1022.1634	1082.6332	1199.6153	1293.071	1358.4783	1412.3076	1448.1858	1460.2035	1566.5831	1865.7044	2362.5726	2985.8627	3267.0406	3291.0364
O=CN1C=CC(=N1)C#N	O=Cn1ccc(n1)C#N	
InChI=1S/C5H3N3O/c6-3-5-1-2-8(4-9)7-5/h1-2,4H	InChI=1S/C5H3N3O/c6-3-5-1-2-8(4-9)7-5/h1-2,4H
