17
gdb 79780	2.96669	2.10599	1.84434	3.1887	68.78	-0.2252	0.0362	0.2614	811.6392	0.140108	-417.901391	-417.895642	-417.894698	-417.931182	25.209	
O	 0.1073605489	 1.4431247383	-0.0994484993	-0.441245
C	-0.0150196917	 0.0647403153	 0.0306743006	 0.167175
C	 0.2060752755	-0.6626718442	 1.3800659707	-0.061215
C	-0.7529438127	-0.1453391246	 2.5021583254	-0.040195
N	-1.6302464818	 0.9448506813	 1.9445878759	-0.352556
C	-2.3347207155	-0.1315213913	 1.1608797219	-0.040194
C	-1.3897237068	-0.6487319607	 0.0268972381	-0.061215
N	-0.8095677854	-1.7368124563	 0.9491304832	-0.181809
C	-1.7392146924	-1.2588235715	 2.050391951	 0.001947
H	-0.4745268286	 1.8056925221	 0.5905063386	 0.292785
H	 0.6219506804	-0.405415722	-0.7253501774	 0.100676
H	 1.2018820539	-0.9839292089	 1.6884984697	 0.075844
H	-0.3543682475	 0.0176135807	 3.5027985115	 0.080904
H	-2.254778264	 1.2599237762	 2.6843482382	 0.225863
H	-3.3853299314	 0.0440914765	 0.932675147	 0.080904
H	-1.859971545	-0.9571828863	-0.9078183073	 0.075844
H	-2.2773269955	-1.9708060045	 2.6776549524	 0.076486
244.7557	263.7593	459.8949	545.5253	578.9469	683.6015	697.3107	700.5551	729.0313	786.7915	798.1418	813.051	841.3284	901.9898	904.3381	938.3972	957.1278	960.9553	980.8459	1030.3013	1030.8545	1098.7792	1104.1248	1153.7667	1157.2276	1168.9608	1192.1791	1194.2522	1233.8945	1249.2904	1250.1572	1295.6487	1300.3582	1332.1836	1364.9492	1372.4928	1482.8775	3062.7523	3095.553	3097.4617	3099.1029	3118.2086	3123.3509	3476.9164	3628.3302
OC1C2C3NC4C1N2C34	O[C@H]1[C@H]2[C@H]3N[C@H]4[C@@H]1N2[C@@H]34	
InChI=1S/C6H8N2O/c9-6-4-1-3-2(7-1)5(6)8(3)4/h1-7,9H	InChI=1S/C6H8N2O/c9-6-4-1-3-2(7-1)5(6)8(3)4/h1-7,9H/t1-,2+,3-,4+,5-,6-
