17
gdb 38305	3.0327	2.00566	1.98621	2.8162	69.39	-0.2218	-0.0013	0.2204	805.5587	0.139448	-421.767767	-421.762062	-421.761118	-421.797423	25.307	
C	-0.0699109597	 1.5988498405	 0.0860873175	-0.239603
C	 1.4619856485	 1.398788998	 0.0308137389	 0.061048
O	 1.2689851006	 0.1474753199	 0.7558599973	-0.263081
C	 0.0018128333	 0.0553516565	 0.0385635295	 0.061047
C	 0.3656861658	-0.4856087119	-1.4230006809	 0.00511
O	 1.7904468752	-0.4322192631	-1.4844942364	-0.210498
C	 1.9624120472	 0.9834764323	-1.4314776338	 0.005114
C	 0.971390219	 1.4357761637	-2.5141951796	-0.085402
C	-0.0088998652	 0.5338321984	-2.5090022793	-0.085397
H	-0.3727948777	 1.9337880846	 1.0798883363	 0.107832
H	-0.5902199968	 2.1599208489	-0.6854118808	 0.103028
H	 2.1362477407	 2.0900257332	 0.5403387385	 0.07945
H	-0.7401319754	-0.5563977006	 0.5556069308	 0.07945
H	 0.0323693566	-1.5118105219	-1.5825821207	 0.082357
H	 3.0118291828	 1.2294755895	-1.5984047532	 0.082357
H	 1.0438258547	 2.3474421288	-3.091577051	 0.108594
H	-0.9267321095	 0.534379193	-3.081134473	 0.108594
263.775	360.3751	462.4249	507.2863	527.6206	608.9746	643.7015	709.2776	747.6925	766.5313	824.6941	827.7387	889.3655	900.8488	918.0703	919.8703	933.995	935.352	952.2748	995.5346	1040.9836	1042.9199	1074.8172	1121.4848	1136.3688	1179.443	1245.1296	1247.3796	1265.5084	1284.4222	1294.6706	1312.2059	1328.5287	1338.0699	1352.9638	1496.2831	1639.5712	3082.857	3090.2139	3096.1545	3109.4879	3113.6848	3166.3972	3214.8155	3240.6378
C1C2OC1C1OC2C=C1	C1[C@H]2O[C@@H]1[C@@H]1O[C@H]2C=C1	
InChI=1S/C7H8O2/c1-2-5-7-3-6(9-7)4(1)8-5/h1-2,4-7H,3H2	InChI=1S/C7H8O2/c1-2-5-7-3-6(9-7)4(1)8-5/h1-2,4-7H,3H2/t4-,5+,6+,7-
