21
gdb 77701	2.91218	1.34705	1.10115	1.5471	83.36	-0.2133	0.0787	0.292	1196.9107	0.18078	-387.045546	-387.03668	-387.035736	-387.079025	34.75	
C	-0.3076475086	 1.3762423844	-0.0463375787	-0.404837
C	-0.0968609067	-0.1306877371	-0.0159770351	-0.224677
C	 1.0729620087	-0.7067341295	-0.8200468728	 0.462276
C	 1.101062997	-1.4187272233	-2.1283693771	-0.337902
C	 1.8674800634	-0.1135613967	-1.9356042714	-0.33522
O	 1.7093594895	-1.2515988928	 0.3412537127	-0.333229
C	 0.6689657242	-0.7231266203	 1.1711914462	 0.462276
C	 0.9640216575	-0.1502216596	 2.5174092767	-0.33522
C	 0.1872676877	-1.4558066975	 2.3755912897	-0.337902
H	 0.6276118202	 1.9093411861	 0.1478020379	 0.126415
H	-0.6878372155	 1.6992236245	-1.0214943932	 0.115513
H	-1.0388363828	 1.6849819566	 0.708536324	 0.115513
H	-1.0379028193	-0.6551703646	-0.2112195883	 0.082957
H	 1.6804781171	-2.3344193184	-2.1786922135	 0.123512
H	 0.2078938188	-1.4107435319	-2.7454828951	 0.111754
H	 1.4991733842	 0.7829783172	-2.424082159	 0.112865
H	 2.9474537311	-0.1770803938	-1.8564994161	 0.123887
H	 1.9896372562	-0.2159457062	 2.8644371399	 0.123887
H	 0.4315960946	 0.7396581994	 2.837847815	 0.112865
H	-0.8758004035	-1.4547163657	 2.595884314	 0.111754
H	 0.7041971062	-2.3740345207	 2.6332497242	 0.123512
48.6439	194.244	199.709	217.8392	218.0595	243.1714	374.7633	383.8715	451.5838	457.4566	555.8948	672.6808	752.8585	761.3588	777.5669	863.7731	872.979	875.0892	897.0914	930.2192	958.8542	978.1196	978.7182	1045.5746	1046.0417	1065.81	1065.8535	1086.0039	1086.6036	1139.279	1184.6653	1186.4958	1187.1192	1236.8566	1284.3013	1344.5732	1351.0967	1407.0905	1419.0913	1447.9567	1448.0592	1486.591	1497.6128	1497.8545	1516.045	3031.9575	3049.2933	3094.4629	3112.9795	3124.7114	3124.8617	3128.4285	3128.436	3208.5074	3208.7533	3222.8756	3222.964
CC1C2(CC2)OC11CC1	CC1C2(CC2)OC21CC2	
InChI=1S/C8H12O/c1-6-7(2-3-7)9-8(6)4-5-8/h6H,2-5H2,1H3	InChI=1S/C8H12O/c1-6-7(2-3-7)9-8(6)4-5-8/h6H,2-5H2,1H3
