17
gdb 66300	2.38551	1.50038	1.23868	4.1608	69.42	-0.241	-0.0574	0.1836	1069.4136	0.134375	-459.001095	-458.992516	-458.991572	-459.03465	31.826	
O	 0.2744363973	 1.5188228957	 0.119605701	-0.469922
C	-0.0112784601	 0.1618780511	-0.0367764631	 0.228533
C	-1.514093906	-0.1220533173	-0.2507454293	-0.277119
C	-1.5756395043	-1.3509435391	-1.1815360519	-0.232527
C	-0.4019645084	-1.1572433163	-2.1539687094	-0.320866
C	 0.6540662932	-0.406458011	-1.3506566795	 0.356597
O	 1.8011971	-0.2209979347	-1.6450920818	-0.298282
C	 0.5445720345	-0.6184818769	 1.1406786807	 0.123509
O	 1.2522573363	-0.0925409219	 1.9641950192	-0.268551
H	 0.9435722863	 1.5714441113	 0.820779312	 0.298219
H	-2.0601242748	-0.2659287008	 0.6853665085	 0.114829
H	-1.9332464312	 0.761675564	-0.7422133867	 0.132702
H	-1.439805064	-2.2736473868	-0.6059214351	 0.11248
H	-2.5397159779	-1.4330190057	-1.687855043	 0.118233
H	 0.0073538465	-2.0737341033	-2.5851853533	 0.13568
H	-0.6875242232	-0.5077506949	-2.9920050905	 0.146066
H	 0.2738293158	-1.6913090836	 1.2046652121	 0.10042
57.1196	102.3747	180.4443	216.8678	283.1634	309.8519	349.3052	417.0123	458.0813	519.6944	552.9846	621.722	632.7789	775.0419	817.197	823.0585	909.8695	937.3937	963.0667	1018.6721	1051.8849	1060.0451	1114.5348	1147.242	1195.9386	1233.1988	1256.5895	1298.0131	1333.3064	1341.609	1386.1053	1434.1586	1446.593	1489.6984	1504.3397	1797.9606	1860.5533	2933.8258	3035.7404	3046.0038	3057.9864	3100.9664	3107.0526	3112.4423	3692.1261
OC1(CCCC1=O)C=O	O[C@]1(CCCC1=O)C=O	
InChI=1S/C6H8O3/c7-4-6(9)3-1-2-5(6)8/h4,9H,1-3H2	InChI=1S/C6H8O3/c7-4-6(9)3-1-2-5(6)8/h4,9H,1-3H2/t6-/m1/s1
