14
gdb 124368	5.19862	1.00335	0.84548	5.1263	66.13	-0.2534	-0.0295	0.2238	1281.0172	0.101746	-466.198756	-466.190516	-466.189571	-466.23374	28.164	
C	 0.056741866	 1.506160626	-0.1303818636	-0.504285
C	 0.0016376278	 0.0177552612	 0.1783280989	 0.401772
O	-0.0797991925	-0.4369789367	 1.2912201146	-0.302569
N	 0.0553553731	-0.7681210965	-0.9720960649	-0.42747
C	 0.0270283444	-2.1448825119	-1.0625338526	 0.527125
N	 0.090749655	-2.7388990862	-2.2538118816	-0.309459
N	 0.0339683195	-4.0158066555	-1.8849979854	-0.066284
N	-0.0569359308	-4.2153033219	-0.5853438938	-0.088308
N	-0.0633683978	-3.0262138483	-0.0328617053	-0.248973
H	 0.9804612739	 1.7637375788	-0.6593919384	 0.143082
H	-0.786190713	 1.8070742354	-0.7615749707	 0.143483
H	 0.0156484901	 2.0540767715	 0.8098081924	 0.160045
H	 0.124010003	-0.3010364148	-1.8631883669	 0.267588
H	 0.0586420513	-4.7751417809	-2.5485569028	 0.304253
22.2815	62.4767	95.9333	151.2469	345.1087	353.3794	365.7474	534.526	549.5575	597.2992	603.7729	725.8831	781.202	800.9584	961.169	992.7008	1031.5013	1050.2623	1075.7591	1145.6311	1191.676	1223.4994	1271.6217	1352.167	1387.9568	1462.7576	1482.4797	1483.7253	1517.1293	1606.5304	1832.8439	3042.3511	3104.821	3169.2347	3632.0489	3654.0811
CC(=O)NC1=NNN=N1	CC(=O)Nc1n[nH]nn1	
InChI=1S/C3H5N5O/c1-2(9)4-3-5-7-8-6-3/h1H3,(H2,4,5,6,7,8,9)	InChI=1S/C3H5N5O/c1-2(9)4-3-5-7-8-6-3/h1H3,(H2,4,5,6,7,8,9)
