22
gdb 77254	2.62201	0.96372	0.87597	3.1195	84.07	-0.2281	-0.0199	0.2082	1460.8639	0.189677	-404.335127	-404.324135	-404.32319	-404.371872	39.059	
C	 1.5529872857	 1.225674891	-0.5855624123	-0.427053
C	 0.9798948834	-0.1361586407	-0.2586004934	-0.037196
N	 1.8069222789	-1.3274394239	-0.0009912695	-0.150416
C	 3.2555529818	-1.2443062574	-0.0159386568	-0.232032
C	 3.7868089326	-1.8371181844	-1.3141400484	 0.159235
O	 4.8230639031	-1.5129740863	-1.832321776	-0.242719
C	 1.0121781207	-0.7659858399	 1.1030379507	 0.307461
C	 1.6909082596	-0.0757307331	 2.2722210297	-0.456054
C	-0.1516021984	-1.6469024693	 1.5204638444	-0.435711
H	 2.3579377086	 1.5379724516	 0.081787208	 0.123682
H	 1.9415830684	 1.247534627	-1.6100411391	 0.132123
H	 0.761605303	 1.9797033286	-0.5198682506	 0.126562
H	 0.1106544988	-0.3748841783	-0.8729434446	 0.085044
H	 3.6992317804	-0.248025748	 0.1085917972	 0.113838
H	 3.6494026695	-1.8741601885	 0.7959915165	 0.129778
H	 3.1251011007	-2.6208538353	-1.7452531495	 0.086558
H	 2.5289204617	 0.5579660128	 1.9794808245	 0.120292
H	 0.970954916	 0.5505862807	 2.8097670088	 0.123132
H	 2.0687797513	-0.8189999096	 2.9840792174	 0.121872
H	 0.1774250623	-2.4181121799	 2.2266321266	 0.114349
H	-0.9333259922	-1.0557531415	 2.0111260968	 0.112646
H	-0.5857563759	-2.1484208557	 0.6524498896	 0.12461
38.1443	69.5166	128.7029	143.0221	153.8388	180.5809	228.986	249.5906	268.3552	313.2726	363.4011	441.1058	495.4027	500.5358	562.6476	677.9585	734.0357	769.0701	824.2379	950.3064	966.86	992.1538	1025.1603	1053.95	1058.3043	1093.9941	1133.319	1144.9721	1167.6117	1197.3554	1242.9587	1280.1484	1323.2636	1362.5362	1397.5226	1406.0554	1411.1585	1424.3095	1437.8988	1456.357	1477.0811	1483.5514	1492.1023	1494.8946	1503.6488	1516.8596	1837.4827	2894.662	2998.8005	3026.6874	3034.6138	3037.5299	3044.4933	3085.5497	3087.117	3090.5058	3094.141	3122.4433	3127.8399	3139.8956
CC1N(CC=O)C1(C)C	C[C@H]1N(CC=O)C1(C)C	
InChI=1S/C7H13NO/c1-6-7(2,3)8(6)4-5-9/h5-6H,4H2,1-3H3	InChI=1S/C7H13NO/c1-6-7(2,3)8(6)4-5-9/h5-6H,4H2,1-3H3/t6-,8?/m1/s1
