18
gdb 62903	2.98212	1.49902	1.14246	5.1902	77.4	-0.2707	0.0317	0.3024	1083.0852	0.147268	-401.908442	-401.900155	-401.899211	-401.940832	32.382	
C	-0.0782344923	 1.640679186	-0.0300749878	-0.477295
C	-0.001971931	 0.117761597	-0.0035124552	 0.457587
O	-1.3037892626	-0.4022969631	-0.1315031203	-0.461084
C	 1.1568658599	-0.6287687328	-0.7683292033	-0.132447
C	 2.1104622408	-0.1666456667	 0.3727025022	-0.253179
C	 0.8113842353	-0.6339056861	 1.0936283818	-0.100554
C	 0.8765557297	-1.8800663469	 0.1355344053	-0.123493
C	-0.2422390176	-2.7777693774	-0.0996821865	 0.270836
N	-1.0304959799	-3.6023564735	-0.2908209554	-0.352011
H	 0.8792628267	 2.1459153993	 0.0980511687	 0.124945
H	-0.4934959787	 1.9684885432	-0.9910027923	 0.114844
H	-0.7593855375	 1.9811334364	 0.7550135295	 0.137467
H	-1.6809802578	-0.1109075896	-0.9683627633	 0.28515
H	 1.3564721017	-0.6441007774	-1.8407622424	 0.085921
H	 2.9912942479	-0.7901396651	 0.5349457293	 0.107415
H	 2.3679584804	 0.8881760753	 0.4261174297	 0.106814
H	 0.6087423576	-0.6577071848	 2.1644209891	 0.092664
H	 1.7640442275	-2.4973525137	 0.299746271	 0.116419
125.5176	165.0346	185.4788	238.8645	269.5444	329.4302	411.5111	424.4443	466.5862	516.1921	548.0214	625.2255	666.0854	772.3031	804.9419	873.7987	892.0692	896.1517	964.6132	1018.2447	1024.7191	1058.2052	1070.3273	1089.613	1107.3597	1121.2181	1180.9277	1188.2623	1206.0289	1221.929	1230.2336	1255.8766	1358.0519	1395.1951	1414.9017	1490.454	1493.473	1539.6288	2350.2398	3035.4115	3073.5283	3088.379	3100.6967	3108.4021	3120.9997	3141.7351	3171.5985	3811.521
CC1(O)C2CC1C2C#N	C[C@@]1(O)[C@H]2C[C@@H]1[C@H]2C#N	
InChI=1S/C7H9NO/c1-7(9)5-2-6(7)4(5)3-8/h4-6,9H,2H2,1H3	InChI=1S/C7H9NO/c1-7(9)5-2-6(7)4(5)3-8/h4-6,9H,2H2,1H3/t4-,5-,6+,7+
