15
gdb 97796	3.45578	0.68859	0.59934	1.5645	73.1	-0.2637	-0.0483	0.2154	1762.0781	0.109146	-457.701633	-457.692104	-457.69116	-457.738525	32.09	
O	 0.0660720031	 1.4869732794	 0.1414820721	-0.395669
C	 0.0726978058	 0.0691307177	 0.1434932115	-0.200209
C	-1.2662851549	-0.5215430736	 0.1360357537	 0.146399
C	-2.3801676389	-0.9796611462	 0.0903065558	 0.040484
C	-3.7232538022	-1.4907295125	 0.0888454115	-0.160469
O	-4.3079978178	-1.862984693	-1.1599167542	-0.22434
C	-4.0548646591	-2.9113752066	-0.2262658747	-0.042859
C	-2.9681175782	-3.8680188781	-0.6049263022	 0.148668
O	-2.9273423806	-5.0041501596	-0.2098734214	-0.241422
H	-0.4450293974	 1.7764743717	-0.6217710126	 0.292022
H	 0.647656807	-0.3377229809	-0.7034125207	 0.128246
H	 0.6026975332	-0.2272845987	 1.0553402774	 0.150628
H	-4.4135328091	-0.9873900286	 0.7655618103	 0.133281
H	-4.9265233571	-3.356181438	 0.2515298603	 0.124242
H	-2.2065643337	-3.4374434531	-1.2876474068	 0.100999
16.7369	56.2715	111.5272	117.0858	173.4295	270.7576	296.7447	324.6324	363.3193	476.5414	481.9883	555.0178	585.8839	760.01	855.8726	868.989	978.3082	997.8097	1028.8271	1053.7498	1097.6091	1150.1277	1163.6232	1215.3026	1259.7133	1331.4798	1363.4599	1392.5206	1415.2593	1432.5758	1484.8493	1828.8879	2356.5189	2926.9294	2983.1693	3067.8614	3113.7002	3138.064	3814.4353
OCC#CC1OC1C=O	OCC#C[C@H]1O[C@H]1C=O	
InChI=1S/C6H6O3/c7-3-1-2-5-6(4-8)9-5/h4-7H,3H2	InChI=1S/C6H6O3/c7-3-1-2-5-6(4-8)9-5/h4-7H,3H2/t5-,6+/m1/s1
