23
gdb 93773	2.77668	1.21047	0.94896	2.0162	88.57	-0.2393	0.0176	0.257	1343.7401	0.205908	-388.321305	-388.311616	-388.310672	-388.355223	37.38	
C	-0.0193588142	 1.5862554561	-0.0084061694	-0.402595
C	 0.0437378998	 0.057758347	-0.0174258056	 0.017423
C	 0.767641656	-0.4988025501	-1.2502453207	-0.212806
C	 0.6777994029	-2.0283409113	-1.2963427446	-0.298403
C	 0.9665970967	-2.6790663397	 0.0379093389	 0.321345
C	 1.2415979211	-4.1580063676	 0.0083147597	-0.473009
C	 0.9566229328	-1.9784043645	 1.1773254165	-0.201075
C	 0.7022556736	-0.4969855802	 1.2640015984	 0.097472
O	 1.9155950546	 0.1945323267	 1.6026396846	-0.438744
H	 0.9854642583	 2.0135908315	 0.0397401308	 0.124737
H	-0.5163207421	 1.9617434699	-0.9090097428	 0.101593
H	-0.5743077908	 1.954417903	 0.8612877083	 0.108202
H	-0.9838534834	-0.3355206603	-0.0289504103	 0.067742
H	 0.3518718047	-0.0678039715	-2.1675238298	 0.091066
H	 1.8220440165	-0.1903002572	-1.216890529	 0.086914
H	-0.3276690869	-2.3334373762	-1.6256849907	 0.109021
H	 1.3620158091	-2.4318699415	-2.0544120851	 0.098314
H	 2.1255135299	-4.3834338372	-0.6021409495	 0.122681
H	 1.4050242472	-4.5618313049	 1.0108086221	 0.121732
H	 0.4051120776	-4.7036396868	-0.4475766059	 0.124313
H	 1.1859910669	-2.4765532166	 2.117280492	 0.08049
H	 0.0360853312	-0.2885685494	 2.1109734149	 0.078435
H	 2.6220865584	-0.2107739191	 1.0893141971	 0.275151
90.471	135.76	195.9976	202.613	226.7073	269.4685	283.646	286.1885	356.9436	391.4313	416.1606	494.9242	518.7975	608.409	701.6262	745.0754	795.7203	866.5055	894.9583	941.9342	960.8777	979.8428	1015.982	1037.0227	1050.2451	1073.1233	1095.5132	1123.1185	1151.737	1180.3203	1205.4534	1251.1517	1257.3852	1324.9897	1338.3913	1339.9638	1365.065	1388.0042	1401.1668	1406.9019	1414.1125	1419.6139	1472.4134	1480.2803	1489.9351	1491.3602	1496.9758	1503.358	1728.539	2990.9203	2991.813	3011.4281	3015.6504	3025.1156	3034.19	3035.8032	3061.5356	3063.4862	3096.4347	3112.7633	3121.0107	3143.9745	3812.8845
CC1CCC(C)=CC1O	C[C@H]1CCC(=C[C@H]1O)C	
InChI=1S/C8H14O/c1-6-3-4-7(2)8(9)5-6/h5,7-9H,3-4H2,1-2H3	InChI=1S/C8H14O/c1-6-3-4-7(2)8(9)5-6/h5,7-9H,3-4H2,1-2H3/t7-,8+/m0/s1
