25
gdb 119416	3.03636	0.92055	0.82201	0.2543	94.19	-0.234	0.0861	0.3201	1580.9373	0.228204	-352.346477	-352.336288	-352.335344	-352.381677	38.607	
C	 0.1041979753	 1.5945913397	-0.0572835959	-0.380884
C	 0.1765361853	 0.0656511875	-0.0504236763	-0.152474
C	 0.5658151145	-0.5130186743	 1.3195569461	-0.307399
C	 0.6221799823	-2.016349411	 1.3376709046	 0.352665
C	 1.8193035454	-2.8006084565	 0.8564706458	-0.370417
C	 1.3559490047	-2.9885273333	 2.2788495214	 0.29314
C	 2.2366453126	-2.7329911784	 3.4686731983	-0.494734
C	 0.1397768996	-3.925938532	 2.2789921058	-0.276157
C	-0.6044141263	-2.9422536412	 1.3191246916	-0.28076
H	 1.0702835731	 2.0379032846	 0.2097908455	 0.111653
H	-0.1761352513	 1.9782653423	-1.0433907276	 0.109558
H	-0.6353082485	 1.9598915069	 0.6643200819	 0.112167
H	-0.7932099076	-0.3492354802	-0.3542466059	 0.097748
H	 0.9007228983	-0.2759981597	-0.8005650094	 0.098049
H	 1.5412331263	-0.105247816	 1.6181372355	 0.089481
H	-0.15408953	-0.1622950107	 2.073526134	 0.087844
H	 1.708451414	-3.598003668	 0.1227782627	 0.094501
H	 2.7330392403	-2.2231101622	 0.7438281756	 0.100804
H	 2.9098356085	-1.8866758595	 3.2956263118	 0.114668
H	 1.6458759244	-2.5121357517	 4.3656711857	 0.111909
H	 2.8621337493	-3.6062260665	 3.6935069075	 0.117455
H	 0.314375516	-4.9430905275	 1.9105525045	 0.089346
H	-0.3439429339	-3.9921413535	 3.2575133198	 0.096083
H	-1.4840845213	-2.4928170276	 1.78868258	 0.095679
H	-0.899118301	-3.3358747014	 0.340138787	 0.090076
71.7657	89.6603	101.0647	192.2144	198.7761	231.7879	247.2338	311.2826	329.0613	345.0821	441.5609	482.3902	593.2224	720.6309	746.7423	762.9145	788.4954	842.0599	870.2684	902.0514	928.7143	941.9102	965.4376	991.701	1023.2156	1044.8399	1052.3459	1065.4757	1090.795	1120.0012	1146.8307	1198.7631	1220.5684	1240.5811	1240.9739	1254.5212	1290.7515	1306.8656	1332.6406	1344.4141	1384.2466	1404.2097	1410.9338	1426.4331	1477.3474	1481.1932	1485.9633	1488.3946	1492.6329	1498.6625	1499.499	1509.9198	1520.9424	2995.3104	3015.2073	3021.2684	3026.9868	3030.0522	3031.9276	3040.4648	3057.1249	3070.5938	3079.1264	3088.7032	3090.9897	3094.0045	3098.826	3099.3632	3179.8433
CCCC12CC1(C)CC2	CCC[C@@]12C[C@]1(C)CC2	
InChI=1S/C9H16/c1-3-4-9-6-5-8(9,2)7-9/h3-7H2,1-2H3	InChI=1S/C9H16/c1-3-4-9-6-5-8(9,2)7-9/h3-7H2,1-2H3/t8-,9+/m0/s1
