18
gdb 53159	4.60467	0.83026	0.76857	1.9338	83.4	-0.2341	0.053	0.287	1520.8997	0.146872	-401.844794	-401.835781	-401.834837	-401.880242	32.66	
C	 0.0326597608	 1.5270668367	-0.0519239365	-0.503049
C	 0.0214035314	 0.0721015823	-0.0156471281	 0.157174
C	-0.0033085928	-1.1312300634	 0.027857876	 0.039515
C	 0.0175814738	-2.5766435484	 0.0307079151	-0.200757
C	-0.0456180523	-3.3512712564	 1.3876371399	-0.078273
N	-1.4856024684	-2.9003641129	 1.5067182783	-0.313797
C	-1.3300515416	-3.3737501769	 0.0741897153	-0.048698
C	-0.5441319352	-4.6018962065	 0.5893266943	 0.09356
O	 0.2750032896	-5.270070325	-0.3314783233	-0.424533
H	 1.0557155299	 1.9200487162	-0.049440238	 0.143421
H	-0.4628918334	 1.9067789144	-0.9527079273	 0.145025
H	-0.4874895277	 1.9508498426	 0.8144224234	 0.14796
H	 0.7418530788	-2.9865628301	-0.6739322357	 0.109762
H	 0.6507656562	-3.2893115703	 2.2255964357	 0.082819
H	-2.019238545	-3.598676974	 2.0379638341	 0.204138
H	-2.150863374	-3.3364756156	-0.6425371914	 0.089186
H	-1.1474043579	-5.2964615523	 1.1915242718	 0.067519
H	 0.8370493278	-5.8861456005	 0.1492340864	 0.289029
16.3827	90.4707	94.9473	234.8467	256.9003	294.3165	297.9984	359.3739	434.8528	501.5649	552.6157	593.7641	787.4962	822.4258	851.0553	885.5587	904.9598	929.0642	929.5776	1052.6963	1052.9226	1053.9933	1102.2576	1111.6186	1140.4297	1156.5651	1169.9585	1187.9847	1213.269	1243.2354	1273.0455	1298.8367	1315.1139	1386.3626	1414.1946	1428.1672	1478.1653	1479.2184	2371.4312	3004.1433	3023.6641	3082.1335	3084.5587	3102.0617	3110.5825	3117.9126	3359.254	3817.4646
CC#CC1C2NC1C2O	CC#C[C@H]1[C@H]2N[C@@H]1[C@H]2O	
InChI=1S/C7H9NO/c1-2-3-4-5-7(9)6(4)8-5/h4-9H,1H3	InChI=1S/C7H9NO/c1-2-3-4-5-7(9)6(4)8-5/h4-9H,1H3/t4-,5+,6-,7-
