17
gdb 31163	2.0389	1.7949	1.00911	0.5571	71.69	-0.166	0.0664	0.2324	1151.9208	0.135523	-455.149165	-455.139524	-455.13858	-455.18327	35.024	
C	-0.12330015	 1.4511283898	 0.1312672154	-0.25539
O	 0.1496451158	 0.0627238425	-0.0663242498	-0.299486
C	 0.6978721858	-0.554776564	 1.0341111672	 0.113241
C	 2.0079712142	-0.9615900867	 1.1265927899	 0.315042
O	 3.0310847777	-0.8731357887	 0.241762101	-0.443555
N	 2.192069233	-1.5571364353	 2.3332375528	-0.314521
C	 0.9818715261	-1.567434281	 3.0316502057	-0.189561
C	 0.0423097994	-0.9425653367	 2.2473140038	 0.168142
N	-1.2992560931	-0.6272120531	 2.5453616332	-0.61636
H	 0.7982209041	 2.0088296603	 0.3436050506	 0.110265
H	-0.567826893	 1.8208488749	-0.7963939796	 0.118786
H	-0.8237956527	 1.60120956	 0.9607595537	 0.135405
H	 2.6573275986	-0.5085138625	-0.5695646836	 0.307867
H	 3.0360568864	-2.0244890008	 2.6100549793	 0.263779
H	 0.9179661797	-1.9809850915	 4.023541478	 0.104059
H	-1.658955124	-1.1815474423	 3.312717112	 0.237792
H	-1.8939053982	-0.7743835249	 1.7371451903	 0.244495
88.8741	146.1951	161.8339	192.7149	202.4062	219.2287	265.3416	292.1106	353.822	388.0329	447.3092	559.3906	568.6426	572.3482	632.2514	699.8083	736.6157	769.4299	825.0354	1028.0706	1056.2219	1080.5195	1137.5173	1180.827	1187.0593	1216.1797	1257.6918	1310.378	1381.6047	1449.6799	1478.5609	1484.0382	1511.0842	1577.7826	1605.365	1644.448	1681.1034	3006.9656	3075.1957	3117.7119	3274.6946	3513.5354	3604.4762	3700.7433	3804.7884
COC1=C(O)NC=C1N	COc1c(O)[nH]cc1N	
InChI=1S/C5H8N2O2/c1-9-4-3(6)2-7-5(4)8/h2,7-8H,6H2,1H3	InChI=1S/C5H8N2O2/c1-9-4-3(6)2-7-5(4)8/h2,7-8H,6H2,1H3
