14
gdb 56477	2.83446	1.02627	0.83818	2.5701	65.82	-0.282	-0.0513	0.2307	1336.1146	0.099804	-470.028501	-470.019199	-470.018255	-470.063813	31.392	
N	-0.2478527103	 1.4029829054	 0.0139272827	-0.498172
C	-0.044810792	-0.034069142	 0.0519615616	-0.218463
C	 0.6991859626	-0.5881571557	-1.103410226	 0.258233
N	 1.2738453044	-0.9632412223	-2.0336276865	-0.308711
C	 0.7317715762	-0.3893134929	 1.3283475508	 0.496426
O	 1.4268964818	 0.3796423323	 1.9272907618	-0.32863
O	 0.5182759991	-1.6886381219	 1.6498492756	-0.200555
C	 1.2093637342	-2.2162757799	 2.7272299618	 0.120646
N	 0.9538450927	-3.4006354822	 3.0485618887	-0.404353
H	 0.6307005233	 1.8716884154	 0.2144001867	 0.259294
H	-0.5623906738	 1.6934247402	-0.9053332815	 0.253855
H	-1.0097836407	-0.5511168445	 0.0969817278	 0.166238
H	 1.9096631522	-1.5070906192	 3.1671921187	 0.154121
H	 1.5261645301	-3.6796473927	 3.8442437579	 0.25007
43.2366	96.3906	104.4433	150.4771	183.5059	236.7372	251.0685	325.5835	388.0044	442.9599	534.9423	586.354	682.1371	796.6573	853.1555	853.9768	929.2668	964.0224	993.6912	1067.3218	1131.4289	1175.7204	1242.8657	1248.7611	1318.3899	1384.8504	1394.8501	1641.7281	1753.6933	1855.002	2347.3664	3060.3108	3147.8944	3510.3709	3512.5045	3599.2169
NC(C#N)C(=O)OC=N	N[C@@H](C#N)C(=O)O[CH][NH]	
InChI=1S/C4H5N3O2/c5-1-3(7)4(8)9-2-6/h2-3,6H,7H2	InChI=1S/C4H5N3O2/c5-1-3(7)4(8)9-2-6/h2-3,6H,7H2/t3-/m0/s1
