21
gdb 41494	3.29063	1.6143	1.37602	0.4506	88.04	-0.2187	0.0208	0.2395	1020.2231	0.18643	-349.929954	-349.923172	-349.922227	-349.960624	29.443	
C	 0.0501434301	 1.5505141838	-0.0663392864	-0.260202
C	 1.6139279008	 1.3956217049	 0.0098771904	-0.309301
C	 1.3283392281	 0.0481976295	 0.6350129544	 0.286103
C	 1.622809309	-0.6120999809	 1.7510843348	-0.221044
C	 0.5114553127	-1.497676805	 2.294989215	-0.042087
C	-0.7463390682	-0.571209723	 2.4578668555	-0.218931
C	-1.0105014747	-0.8179128579	 0.9412030707	-0.059214
C	-0.2866116205	-2.1903411134	 1.1485841292	-0.2161
C	-0.067093357	-0.0085494869	 0.0468664001	-0.007818
H	-0.3367675014	 2.0553111261	 0.8222716941	 0.108899
H	-0.3640497953	 2.0183873438	-0.9627871222	 0.0962
H	 2.0492311504	 1.329242257	-0.9936011684	 0.105838
H	 2.1788090971	 2.1254133907	 0.5948977605	 0.104318
H	 2.5024903939	-0.411563233	 2.3562029661	 0.080092
H	 0.8233672801	-2.1063584696	 3.1449127554	 0.057038
H	-1.524899201	-1.045900718	 3.0621051887	 0.092835
H	-0.5789980741	 0.4498165095	 2.8107444972	 0.088624
H	-2.0478199823	-0.8171929996	 0.5965919975	 0.055503
H	 0.2826368628	-2.5974192384	 0.3084684397	 0.09268
H	-0.9656060988	-2.953536902	 1.5382672308	 0.091564
H	-0.0750936718	-0.4315345175	-0.9669057931	 0.075004
188.9564	211.6271	339.9931	385.4738	403.5	462.0354	526.8877	599.2582	676.6704	770.1344	775.4095	805.5231	840.5491	855.1395	875.4644	886.5618	901.9764	936.6814	944.6049	980.1697	1004.9744	1035.0166	1062.5053	1073.2478	1089.5525	1099.6964	1121.7043	1137.1636	1156.3911	1186.3444	1225.3787	1241.9022	1244.7094	1248.2854	1259.3696	1264.6689	1314.5971	1334.7912	1343.4493	1370.6731	1472.4425	1477.2313	1488.9653	1503.9928	1739.9435	3007.2041	3039.2674	3047.7031	3050.8227	3059.7973	3071.6201	3093.3869	3099.1875	3105.7749	3109.2803	3121.9496	3163.6269
C1CC2=CC3CC(C3)C12	C1C[C]2[CH][C@H]3C[C@H](C3)[C@@H]12	
InChI=1S/C9H12/c1-2-9-7(1)3-6-4-8(9)5-6/h3,6,8-9H,1-2,4-5H2	InChI=1S/C9H12/c1-2-9-7(1)3-6-4-8(9)5-6/h3,6,8-9H,1-2,4-5H2/t6-,8+,9-/m0/s1
