19
gdb 97033	2.78229	1.38703	0.95253	1.2073	80.71	-0.2385	-0.0011	0.2375	1232.3563	0.159687	-419.263367	-419.254101	-419.253156	-419.297983	33.172	
C	 0.0405418731	 1.3672064912	 0.3718545008	-0.333551
N	 0.2077430762	-0.0508734618	 0.1211686676	-0.310228
C	 0.6246242958	-0.5689801627	-0.953038062	 0.380738
C	 0.7279096771	-2.0830231052	-1.1033527514	-0.285603
C	 0.9420528156	-2.3280786601	-2.6004528039	-0.344316
C	 1.3098063128	-0.9629839059	-3.1592211291	 0.411412
O	 1.7291279339	-0.708748212	-4.2642347145	-0.369086
N	 1.0708212232	-0.0092995767	-2.1697837323	-0.148686
C	 1.3690546767	 1.3868378133	-2.4544523928	-0.358567
H	-0.2217200572	 1.9716023487	-0.5033930536	 0.109818
H	-0.7579260216	 1.4911659439	 1.1103004387	 0.125832
H	 0.9487967354	 1.7918185878	 0.8196211136	 0.124438
H	 1.581701374	-2.4323788292	-0.5141260983	 0.134982
H	-0.1635406629	-2.5568097129	-0.6917756056	 0.134991
H	 1.7294916363	-3.0455053202	-2.8389306259	 0.138315
H	 0.0326095184	-2.6686951639	-3.106448673	 0.141442
H	 1.980747731	 1.3990312783	-3.3581595688	 0.16568
H	 0.4613680103	 1.9674349683	-2.6424116987	 0.141192
H	 1.920473902	 1.837551819	-1.6283387209	 0.141197
54.1423	92.6259	115.4025	191.7785	213.554	241.381	257.7038	325.7283	414.0549	528.5089	573.1325	592.4608	611.7107	687.1775	696.6104	822.8232	942.5194	1006.6763	1022.2938	1039.0505	1082.6833	1116.906	1133.6067	1147.6593	1161.3037	1174.042	1240.8655	1280.4251	1290.0401	1321.4705	1382.7817	1437.4783	1452.3144	1465.9515	1482.2704	1485.8593	1501.8085	1505.2233	1524.3893	1774.8967	1836.6581	3009.701	3050.0312	3063.4137	3063.8562	3069.8337	3085.8288	3116.4294	3123.0131	3131.4465	3152.9789
CN=C1CCC(=O)N1C	CN=C1CCC(=O)N1C	
InChI=1S/C6H10N2O/c1-7-5-3-4-6(9)8(5)2/h3-4H2,1-2H3	InChI=1S/C6H10N2O/c1-7-5-3-4-6(9)8(5)2/h3-4H2,1-2H3
