19
gdb 52305	5.2772	0.70214	0.6585	3.8705	79.39	-0.2398	-0.0171	0.2226	1673.4832	0.157957	-423.038157	-423.029073	-423.028129	-423.073687	32.006	
O	-0.6384444946	 0.6216210731	 0.5385331374	-0.240231
C	 0.1614455544	 0.9139844177	-0.3129205707	 0.156137
C	 1.3303787273	 1.8497252462	-0.1270480446	-0.270561
C	 1.3000917882	 3.0115652606	-1.1341500357	-0.207464
C	 2.5776762026	 3.8617866123	-1.0752832079	 0.088277
O	 3.7233267151	 3.0456639164	-1.3445811542	-0.277209
C	 4.467790699	 3.5706152773	-2.4418108481	-0.115237
C	 3.6991178674	 4.7803659019	-2.8919358964	-0.094499
C	 2.6381706157	 4.9515330211	-2.1128686601	-0.096437
H	 0.0772332458	 0.49165123	-1.3432231085	 0.067421
H	 1.3330971868	 2.2100565426	 0.9060270869	 0.116919
H	 2.2532634685	 1.2797622171	-0.2990403881	 0.139855
H	 1.1897314443	 2.6233047022	-2.1542152664	 0.104929
H	 0.4351037904	 3.6570837883	-0.9372224012	 0.106943
H	 2.6726529233	 4.2747815604	-0.0561165731	 0.084509
H	 5.4890752229	 3.8218545919	-2.1141948044	 0.109153
H	 4.5609092471	 2.8087508166	-3.2311284015	 0.108374
H	 4.0026116178	 5.3983685793	-3.7273409385	 0.110253
H	 1.8980604177	 5.7387107647	-2.1799489948	 0.108869
48.791	56.5348	95.0679	121.6532	148.2261	290.6564	307.4918	401.1267	501.3551	540.2259	705.9919	742.063	778.9547	817.145	831.2127	905.6235	937.2436	960.2338	987.2785	1010.7721	1034.6118	1045.5505	1085.1854	1114.9644	1124.3195	1134.265	1192.1911	1207.5375	1245.6009	1300.1566	1314.5362	1350.8427	1361.0053	1388.6408	1390.0444	1431.618	1463.8719	1483.6399	1521.0337	1691.8068	1835.0965	2843.6676	2950.1792	2976.7612	2994.8529	3023.6243	3032.3291	3067.8215	3101.5787	3207.8366	3232.2058
O=CCCC1OCC=C1	O=CCC[C@H]1OCC=C1	
InChI=1S/C7H10O2/c8-5-1-3-7-4-2-6-9-7/h2,4-5,7H,1,3,6H2	InChI=1S/C7H10O2/c8-5-1-3-7-4-2-6-9-7/h2,4-5,7H,1,3,6H2/t7-/m1/s1
