17
gdb 99358	7.3314	0.56667	0.53265	3.0891	70.48	-0.2569	-0.0013	0.2556	1962.3666	0.13473	-455.184764	-455.174515	-455.173571	-455.222345	33.885	
N	-0.1671646807	 1.3005954224	-0.2886218257	-0.483582
C	-0.0017451195	-0.1057190247	 0.0230484396	-0.274569
C	 0.8989036607	-0.4047313876	 1.2179260768	 0.415066
O	 1.4598391615	 0.4189524107	 1.8925516763	-0.347179
O	 0.992257292	-1.738230219	 1.4315502659	-0.244407
C	 1.8176406253	-2.1329275062	 2.534783972	-0.060394
C	 1.7656765298	-3.6625882032	 2.5725484751	-0.345612
C	 2.5732281171	-4.2025877657	 3.6625263793	 0.250014
N	 3.2159164788	-4.6156682041	 4.5288332515	-0.293297
H	-0.5312106251	 1.7839870018	 0.5277429482	 0.238552
H	 0.7451834614	 1.7166934237	-0.4533111095	 0.238545
H	-0.9785191421	-0.5649330117	 0.2161611283	 0.141725
H	 0.4056166037	-0.6372194167	-0.8451790285	 0.141731
H	 2.8385441364	-1.7703952692	 2.3872095822	 0.145669
H	 1.4371944169	-1.6962358497	 3.4621509687	 0.145674
H	 0.7291832582	-3.9948318167	 2.6929790558	 0.166033
H	 2.1259521057	-4.0687217241	 1.621514654	 0.166031
30.4565	52.6264	56.8204	85.265	155.53	188.0201	222.952	290.3145	312.1319	398.5643	442.1194	565.5934	573.6129	696.1553	784.7963	884.1695	920.1208	935.1836	974.1321	1025.2741	1074.2489	1086.9964	1155.9424	1180.6166	1204.7684	1231.4629	1296.64	1306.9006	1372.3094	1388.6097	1415.3808	1454.3681	1470.734	1515.3524	1678.6857	1827.952	2369.2692	3041.9954	3054.0409	3067.7669	3077.4827	3091.8959	3120.2249	3496.8562	3565.1203
NCC(=O)OCCC#N	NCC(=O)OCCC#N	
InChI=1S/C5H8N2O2/c6-2-1-3-9-5(8)4-7/h1,3-4,7H2	InChI=1S/C5H8N2O2/c6-2-1-3-9-5(8)4-7/h1,3-4,7H2
