20
gdb 91876	2.30784	1.58069	1.06258	3.2942	79.3	-0.2322	-0.0119	0.2203	1172.4622	0.172713	-403.163616	-403.155402	-403.154458	-403.196338	32.14	
C	 0.0859442587	 1.5731233643	 0.0200469972	-0.40379
C	 0.0096071764	 0.0443657202	 0.0087290564	 0.021977
C	 0.572178976	-0.5365263922	-1.3051087482	-0.198951
C	 0.8430195444	-2.0363378455	-1.2640424427	-0.048029
N	 2.0767409575	-2.4403516303	-0.591737081	-0.330562
C	 0.7763050671	-2.7993984534	 0.0279552262	-0.137353
C	 0.4448246295	-2.0614390293	 1.2881653875	 0.419253
O	-0.0633642852	-2.6229326858	 2.2333727725	-0.328913
C	 0.7182371969	-0.5703958593	 1.2389783853	-0.315046
H	 1.1280979036	 1.9120487348	-0.0051804675	 0.118195
H	-0.4256041184	 2.001181126	-0.8488258978	 0.113039
H	-0.3793282388	 1.9857831082	 0.9207823075	 0.117623
H	-1.0497555683	-0.2425687022	 0.0720002864	 0.083667
H	-0.1269642925	-0.3175161684	-2.1198009884	 0.100658
H	 1.5142203596	-0.0317949834	-1.5528753969	 0.111219
H	 0.5574974969	-2.5955973999	-2.152338444	 0.094919
H	 2.4739273363	-3.2681616759	-1.0281050324	 0.240684
H	 0.4600793113	-3.8383299949	 0.0175418099	 0.097592
H	 1.7992413209	-0.403621623	 1.1590781646	 0.131196
H	 0.3592370082	-0.1247275	 2.1699004553	 0.112621
91.7266	126.1567	229.2051	245.9194	289.7411	363.21	397.561	414.2803	479.4075	492.6068	577.9801	692.4507	777.2054	802.8546	852.546	879.1646	910.4818	932.3476	939.7118	949.7599	997.3646	1032.9596	1097.8066	1119.8971	1128.174	1162.0597	1173.1639	1212.2898	1243.4997	1262.5497	1285.6268	1298.6752	1334.0351	1371.2344	1385.1443	1391.7359	1413.9522	1434.1409	1462.9968	1481.8003	1497.5186	1499.2941	1807.6891	2999.6049	3025.6275	3029.9243	3044.0661	3071.2723	3094.4917	3101.8339	3110.6205	3129.007	3161.0596	3506.8277
CC1CC2NC2C(=O)C1	C[C@H]1C[C@H]2N[C@H]2C(=O)C1	
InChI=1S/C7H11NO/c1-4-2-5-7(8-5)6(9)3-4/h4-5,7-8H,2-3H2,1H3	InChI=1S/C7H11NO/c1-4-2-5-7(8-5)6(9)3-4/h4-5,7-8H,2-3H2,1H3/t4-,5+,7+/m0/s1
