16
gdb 28713	3.46188	1.19208	0.89166	0.447	76.49	-0.2024	-0.0094	0.193	1251.7556	0.126269	-434.147856	-434.139691	-434.138747	-434.180867	29.891	
C	-0.0098370917	 1.5145473602	 0.0386596205	-0.505586
C	-0.006164202	 0.0277782082	-0.0553353439	 0.293645
C	-0.0332043905	-0.8349632246	-1.1199534465	-0.169074
N	-0.015140397	-2.1529746843	-0.704587177	-0.354007
C	 0.0223885495	-2.0732473369	 0.6017175807	 0.475868
N	 0.0519747358	-3.1784855585	 1.4497038056	-0.390927
C	 0.0899816334	-3.1319732805	 2.8092956352	 0.151127
O	 0.1037571049	-2.109324205	 3.4712803013	-0.337368
N	 0.0300668131	-0.7952963282	 1.0602995016	-0.338686
H	 0.887748275	 1.8992706536	 0.5380899899	 0.132784
H	-0.0423342511	 1.9462597583	-0.9643886417	 0.140653
H	-0.8786820244	 1.8914833863	 0.5919408451	 0.132741
H	-0.0647474887	-0.581903694	-2.1687931484	 0.105846
H	 0.0424746844	-4.0710004411	 0.9787673213	 0.276655
H	 0.1073631443	-4.1399023235	 3.2584626659	 0.100122
H	 0.0565807451	-0.56474824	 2.0434898003	 0.286205
97.3215	143.2919	162.8249	167.6001	270.6686	301.6363	401.474	414.7331	588.0909	597.7753	615.6902	681.759	706.3997	729.8588	834.1876	870.179	990.6378	1010.3683	1014.6796	1051.1911	1065.3031	1144.9737	1181.9161	1215.3003	1290.8229	1379.703	1418.5257	1424.4341	1445.6002	1478.9729	1496.881	1531.4007	1595.1724	1641.5702	1773.245	2989.1061	3020.9392	3066.7259	3123.0961	3250.3536	3610.2089	3631.0128
CC1=CN=C(NC=O)N1	Cc1cnc(NC=O)[nH]1	
InChI=1S/C5H7N3O/c1-4-2-6-5(8-4)7-3-9/h2-3H,1H3,(H2,6,7,8,9)	InChI=1S/C5H7N3O/c1-4-2-6-5(8-4)7-3-9/h2-3H,1H3,(H2,6,7,8,9)
