14
gdb 28637	5.85252	1.02954	0.88028	4.8761	80.14	-0.2723	-0.0823	0.1899	1242.3127	0.102293	-395.796663	-395.788954	-395.78801	-395.829674	27.456	
C	 0.0081828613	 1.5085133526	 0.0202047711	-0.474484
C	 0.0114739548	 0.0080289402	-0.0107217841	 0.326825
C	-0.1554559751	-0.7133467318	-1.2028289483	-0.060864
N	-0.1553981021	-2.0398866671	-1.2502190482	-0.290169
C	 0.0151573888	-2.671384776	-0.0815386807	 0.19839
C	 0.1828678991	-1.9655301163	 1.115470159	-0.046637
N	 0.181026992	-0.6374736718	 1.1504808724	-0.289187
C	 0.0228496239	-4.1079029353	-0.0795602227	 0.241586
N	 0.0353011435	-5.2636890026	-0.0342252331	-0.317553
H	 0.9535267181	 1.8805134928	 0.4275124744	 0.155125
H	-0.1371129011	 1.9321806953	-0.9758943836	 0.133011
H	-0.7879252427	 1.8715681138	 0.6777492041	 0.155125
H	-0.2933271148	-0.193045546	-2.1471845294	 0.126298
H	 0.3200585843	-2.4936944877	 2.054815109	 0.142534
53.9984	93.0145	154.2227	251.4602	345.5842	414.0072	446.017	456.4009	566.2142	595.0136	663.8276	705.8942	795.3265	869.3593	933.144	978.6638	1008.4613	1046.2175	1061.7835	1235.2283	1244.5841	1276.3304	1332.6918	1349.5402	1411.3078	1473.1093	1482.9785	1508.1121	1565.1309	1607.1963	2351.6573	3045.3564	3107.0142	3133.4483	3164.3058	3174.8907
CC1=CN=C(C=N1)C#N	Cc1cnc(cn1)C#N	
InChI=1S/C6H5N3/c1-5-3-9-6(2-7)4-8-5/h3-4H,1H3	InChI=1S/C6H5N3/c1-5-3-9-6(2-7)4-8-5/h3-4H,1H3
