17
gdb 115998	2.0266	1.6635	0.99174	3.1062	73.74	-0.2562	-0.065	0.1912	1185.7846	0.134468	-458.969373	-458.960549	-458.959605	-459.003564	30.915	
C	-0.0209425154	 1.3937152865	-0.3155878724	-0.240307
O	-0.0512348606	-0.0237182739	-0.3241127732	-0.239649
C	-1.2476455936	-0.5613926934	 0.1562073752	 0.126049
O	-2.3313323232	-0.3804887808	-0.7516224735	-0.271193
C	-2.5677290283	-1.5871117879	-1.4659652837	-0.121529
C	-1.8056045601	-2.6369324263	-0.7163165309	-0.194261
C	-1.0802310021	-2.0614560096	 0.2462717936	 0.215226
C	-0.2299063722	-2.7374960109	 1.229480045	 0.076781
O	 0.3499735876	-2.1743729578	 2.1290423909	-0.260413
H	 0.9720249278	 1.6925693938	-0.6570899205	 0.129849
H	-0.7789271942	 1.8145268856	-0.9873081533	 0.123851
H	-0.1845109735	 1.7887188111	 0.6977086746	 0.113396
H	-1.5274723361	-0.0718165665	 1.0995948769	 0.088813
H	-3.6481515989	-1.7833093156	-1.4834686445	 0.126781
H	-2.2309403238	-1.5138621955	-2.5125059076	 0.125545
H	-1.8527968416	-3.6950587598	-0.9452851749	 0.128041
H	-0.1676284018	-3.8411250488	 1.1013700284	 0.073023
78.277	106.6373	131.1423	157.7699	188.811	217.9094	286.3718	360.7079	491.7323	514.5578	585.1089	718.6767	789.7849	824.3282	934.1835	946.0149	974.7534	1003.3517	1029.6449	1041.8368	1074.8957	1135.1231	1177.787	1198.1018	1212.0406	1220.0078	1282.2421	1370.3733	1378.617	1398.8563	1426.9054	1476.8755	1485.4083	1498.5405	1510.4125	1692.4958	1793.153	2882.2286	2983.0742	2996.5073	3012.8597	3032.1214	3063.31	3128.5329	3212.4843
COC1OCC=C1C=O	CO[C@H]1OCC=C1C=O	
InChI=1S/C6H8O3/c1-8-6-5(4-7)2-3-9-6/h2,4,6H,3H2,1H3	InChI=1S/C6H8O3/c1-8-6-5(4-7)2-3-9-6/h2,4,6H,3H2,1H3/t6-/m0/s1
