20
gdb 93509	2.89021	1.33014	1.07904	2.5687	76.55	-0.2538	0.0233	0.277	1177.9961	0.171733	-440.308138	-440.299171	-440.298226	-440.341624	34.03	
C	-0.1026700503	 1.5458003274	-0.0245738423	-0.412584
C	 0.026324509	 0.0201960994	 0.0040490352	-0.001514
C	 0.7142587509	-0.4924946421	-1.260649068	-0.073181
O	 0.9156954253	-1.916596249	-1.2791493275	-0.262042
C	 1.3785963994	-2.5388721109	-0.1568684004	 0.391836
N	 2.1030184824	-3.5755870261	-0.2163879076	-0.506355
C	 0.8762927858	-2.0145025074	 1.1693223109	-0.312793
C	 0.8096688169	-0.4867799669	 1.2214546672	 0.104918
O	 2.1077137006	 0.0966781456	 1.1574796227	-0.437257
H	 0.8830161334	 2.0180349413	-0.0312514807	 0.1419
H	-0.653745077	 1.8798719712	-0.9096177372	 0.113562
H	-0.6406211586	 1.9039678087	 0.8588612388	 0.116517
H	-0.975350363	-0.4253101423	 0.0584074155	 0.080413
H	 0.1133870867	-0.2791519033	-2.1480748199	 0.112755
H	 1.688173687	-0.0023905737	-1.3724337959	 0.124171
H	 2.3062344626	-3.7971161983	-1.1940123758	 0.217222
H	-0.1335309441	-2.4147321329	 1.3303305514	 0.125863
H	 1.5097755507	-2.4235712016	 1.960930449	 0.12023
H	 0.2982540022	-0.1738807119	 2.1452679434	 0.065835
H	 2.6700828701	-0.3408395573	 1.8040585513	 0.290505
81.551	122.3777	200.1379	210.4418	251.7451	265.3853	302.5136	371.5994	405.2193	447.6797	529.102	568.6937	610.8458	735.9867	773.7555	878.4765	887.0128	926.8256	932.2724	974.1951	1012.1115	1017.1676	1048.464	1104.5242	1123.8025	1139.4973	1165.2498	1212.8888	1232.414	1294.225	1305.5642	1316.6555	1338.7115	1376.6588	1395.2976	1408.1168	1419.23	1445.4303	1467.3068	1494.9268	1503.5988	1508.5204	1748.1434	2973.6551	3024.9061	3033.742	3039.1675	3045.827	3097.3519	3101.7153	3104.5151	3125.625	3456.1156	3825.2855
CC1COC(=N)CC1O	C[C@H]1CO[C]([NH])C[C@H]1O	
InChI=1S/C6H11NO2/c1-4-3-9-6(7)2-5(4)8/h4-5,7-8H,2-3H2,1H3	InChI=1S/C6H11NO2/c1-4-3-9-6(7)2-5(4)8/h4-5,7-8H,2-3H2,1H3/t4-,5+/m0/s1
