15
gdb 20881	6.90781	1.06889	0.98703	2.9806	62.94	-0.3135	-0.0679	0.2456	1169.9795	0.118266	-395.938194	-395.930603	-395.929659	-395.971128	26.428	
C	-0.0033237324	 1.5482406524	 0.0899362529	-0.38436
C	 0.000663105	 0.0189115071	 0.0570861989	-0.173348
C	-1.4184039842	-0.5620718839	-0.0987517703	-0.284673
C	-1.4323166642	-2.0507856641	-0.0878866963	 0.410873
N	-1.7230162665	-2.8167942774	-1.1007775786	-0.149362
O	-1.587957951	-4.080183886	-0.6312018515	-0.138781
N	-1.2042290346	-4.0228924968	 0.7053855784	 0.046644
N	-1.1110709911	-2.8129431362	 1.0275542865	-0.202903
H	 1.0121215589	 1.9394730333	 0.1994694533	 0.122982
H	-0.4243730155	 1.9652089023	-0.831351551	 0.121105
H	-0.5987913202	 1.925286604	 0.9285075288	 0.12143
H	 0.623740238	-0.3377415748	-0.7713517851	 0.114311
H	 0.4471895056	-0.3763747733	 0.9762328237	 0.125677
H	-2.0510032697	-0.2043306793	 0.7221515258	 0.134262
H	-1.8710486482	-0.2216664472	-1.0343683654	 0.136144
54.7111	92.4951	122.1972	244.1775	311.8903	335.7874	392.2167	672.9275	696.3289	713.9006	747.4439	798.2623	878.5896	903.7487	956.2942	1044.4886	1062.1205	1070.1563	1111.5568	1125.6275	1247.0731	1305.4087	1316.2539	1337.2737	1385.4728	1415.7444	1472.0452	1488.0351	1494.5258	1499.3781	1509.6357	1598.5141	3033.4812	3036.043	3048.3859	3070.4723	3098.3594	3109.9078	3111.7548
CCCC1=NON=N1	CCCc1nonn1	
InChI=1S/C4H7N3O/c1-2-3-4-5-7-8-6-4/h2-3H2,1H3	InChI=1S/C4H7N3O/c1-2-3-4-5-7-8-6-4/h2-3H2,1H3
