17
gdb 125383	3.01881	1.2711	0.89948	3.4388	80.04	-0.1985	0.0223	0.2208	1258.2374	0.13757	-414.209177	-414.200281	-414.199337	-414.243817	32.008	
C	-0.1314267034	 1.5139590029	 0.1361580603	-0.53263
C	-0.0970942623	 0.0246758849	-0.0061023156	 0.130345
C	-0.1106760582	-0.7330637181	-1.1570166532	-0.10928
N	-0.0661611572	-2.029865613	-0.7754843454	-0.186424
N	-0.0232001789	-2.1940803158	 0.5671524696	-0.28444
C	-0.0419243556	-0.9511438489	 1.0325629516	 0.377966
N	-0.0114868434	-0.6192861409	 2.3851686399	-0.378345
C	 0.0417338273	-1.4263833552	 3.5004487916	 0.070997
N	 0.0742590082	-2.6972454508	 3.4780376036	-0.419981
H	 0.757587945	 1.9006440316	 0.6515142643	 0.125841
H	-0.1721928948	 2.000619353	-0.8419266988	 0.130365
H	-1.0081022259	 1.8551019925	 0.702333593	 0.125836
H	-0.1481285939	-0.4418540974	-2.1953576188	 0.130755
H	-0.0616853564	-2.8492704274	-1.3564133465	 0.275081
H	-0.0317730038	 0.3686774057	 2.5707010214	 0.249185
H	 0.0517913609	-0.80792287	 4.4084022165	 0.077526
H	 0.1110130924	-3.0512779233	 4.4320173266	 0.217202
25.0559	124.6923	155.3017	171.5823	232.9596	247.8635	354.9188	422.3535	430.125	447.4286	589.1655	650.3478	672.666	727.8128	782.6745	801.3717	853.6447	941.334	1001.3293	1042.1466	1065.9158	1082.2206	1084.688	1170.998	1231.3215	1270.6368	1325.2914	1385.5852	1419.9315	1422.192	1483.2764	1484.8444	1503.2393	1512.5675	1592.6964	1638.3488	1736.1536	3009.7129	3018.1683	3051.5871	3108.2584	3255.3384	3500.5416	3665.7907	3692.2909
CC1=CNN=C1NC=N	Cc1c[nH]nc1NC=N	
InChI=1S/C5H8N4/c1-4-2-8-9-5(4)7-3-6/h2-3H,1H3,(H3,6,7,8,9)	InChI=1S/C5H8N4/c1-4-2-8-9-5(4)7-3-6/h2-3H,1H3,(H3,6,7,8,9)
