14
gdb 27043	2.45747	1.481	0.92533	6.4498	73.86	-0.2065	-0.0386	0.1679	1167.873	0.101417	-470.039981	-470.031851	-470.030907	-470.072691	30.136	
N	 0.1129325845	 1.3749795611	 0.1605702131	-0.599659
C	-0.0045194911	 0.0140047511	 0.0412160274	 0.286414
C	-1.0983126381	-0.8107122517	 0.0183341008	 0.1992
O	-0.6435919626	-2.1372710924	-0.0094778797	-0.237974
C	 0.7193011899	-2.1330057935	-0.0147079815	 0.467736
N	 1.5200346218	-3.1085730722	-0.019245813	-0.596698
N	 1.1045560176	-0.7897902758	-0.0116171277	-0.365645
C	-2.4918677068	-0.4985961348	-0.0109902856	 0.051495
O	-3.4149522358	-1.2888159214	-0.0380025637	-0.306862
H	 0.8581537509	 1.7954227847	-0.3781878273	 0.268701
H	-0.7546452458	 1.8828509447	 0.0703557401	 0.276363
H	 1.0157544629	-3.9913311318	-0.0150532959	 0.237864
H	 2.0587758071	-0.5126959749	 0.1452071341	 0.282268
H	-2.6760830346	 0.6044213969	-0.009750611	 0.036796
119.1218	160.7858	163.77	230.6592	297.8136	314.2799	391.3691	428.3635	451.3022	583.174	600.9715	653.1467	680.7716	696.3924	726.3613	778.0363	855.86	984.0407	987.0125	1053.9359	1072.9319	1173.1293	1305.1853	1325.6132	1353.0885	1438.6638	1528.6487	1635.3628	1703.0022	1768.0951	1802.1085	2808.8601	3544.4765	3559.5327	3663.9479	3676.9018
NC1=C(OC(=N)N1)C=O	NC1=C(O[C@H]([NH])N1)C=O	
InChI=1S/C4H5N3O2/c5-3-2(1-8)9-4(6)7-3/h1H,5H2,(H2,6,7)	InChI=1S/C4H6N3O2/c5-3-2(1-8)9-4(6)7-3/h1,4,6-7H,5H2/t4-/m1/s1
