17
gdb 102070	2.00004	1.31699	0.99341	3.9729	71.09	-0.2533	-0.0381	0.2152	1245.1411	0.130986	-458.910426	-458.900057	-458.899113	-458.94653	35.835	
C	 0.6777404756	 0.9938253623	 0.3929119174	-0.250903
O	 0.260569562	-0.0821771785	-0.4367753005	-0.265283
C	-1.0736970985	-0.5115443577	-0.256584256	-0.009722
C	-1.6641907351	-0.7813766741	-1.6429094887	 0.149599
O	-2.7179989514	-1.3311800612	-1.816142064	-0.244713
C	-1.121112776	-1.8050598145	 0.5950275471	-0.078624
O	-0.1825299308	-2.7307424568	 0.0793385436	-0.416042
C	-0.9146332115	-1.5352750374	 2.0237669117	 0.323432
C	-0.7426999126	-1.3222496141	 3.1947230798	-0.446381
H	 1.7077635799	 1.2243174443	 0.1118688013	 0.135476
H	 0.0558898897	 1.8841419065	 0.2249497771	 0.116944
H	 0.6412778132	 0.7266210846	 1.4543360533	 0.137867
H	-1.6886382544	 0.2688267452	 0.2154945962	 0.113189
H	-1.0336633384	-0.403020448	-2.4757700188	 0.099418
H	-2.1116609013	-2.2491645203	 0.4464140387	 0.142837
H	 0.6460863386	-2.2408373461	-0.011502462	 0.290797
H	-0.5991068291	-1.1493866142	 4.2330362438	 0.202108
50.7159	82.0654	97.5495	139.6752	163.4392	182.7734	232.5667	255.2971	311.7652	392.853	454.8831	472.5084	559.6729	601.5969	629.5388	666.8579	701.5265	798.6179	963.7964	980.2573	1007.5535	1075.1736	1091.5528	1146.2715	1184.1248	1217.6111	1248.508	1269.9	1334.8275	1347.4461	1390.9262	1430.2762	1483.2658	1490.1274	1512.1254	1839.5192	2228.556	2912.8085	3003.4484	3009.8714	3063.4421	3081.0772	3128.0041	3499.6331	3762.3671
COC(C=O)C(O)C#C	CO[C@@H](C=O)[C@@H](O)C#C	
InChI=1S/C6H8O3/c1-3-5(8)6(4-7)9-2/h1,4-6,8H,2H3	InChI=1S/C6H8O3/c1-3-5(8)6(4-7)9-2/h1,4-6,8H,2H3/t5-,6-/m0/s1
