19
gdb 53323	3.24095	1.05436	0.92171	1.7396	84.19	-0.2419	0.0449	0.2868	1343.8431	0.15821	-385.83242	-385.823092	-385.822148	-385.867474	33.99	
C	 0.0351809017	 1.5448927871	-0.0364653263	-0.500343
C	 0.0177022837	 0.0899914248	 0.0381670269	 0.060014
C	 0.0227315275	-1.1156770679	 0.0919221138	 0.068121
C	 0.0099847038	-2.5712004758	 0.1571608514	-0.181969
C	 0.1902799891	-3.2904180581	 1.5485327089	-0.247635
C	-1.1261358031	-4.0384643079	 1.3196949529	-0.096807
C	-2.2411627044	-3.0473883294	 1.1579160606	 0.126026
O	-2.2933831266	-1.8542450419	 1.8829248758	-0.435418
C	-1.3442813226	-3.2903363652	-0.0162274965	-0.131275
H	 0.9137145268	 1.9015720396	-0.585286578	 0.150944
H	-0.8536467816	 1.9290859936	-0.5489530847	 0.150166
H	 0.0628086414	 1.9950320424	 0.9618833495	 0.152048
H	 0.7390104784	-2.9737841391	-0.552150156	 0.10475
H	 1.0733842061	-3.930456949	 1.5630540323	 0.105181
H	 0.1984858043	-2.6317753451	 2.419448943	 0.116059
H	-1.3049373512	-5.0801060509	 1.5571343982	 0.087355
H	-3.2229048648	-3.5066907694	 1.0522959021	 0.093527
H	-1.8956601869	-1.1546082981	 1.3502387622	 0.291513
H	-1.7199125316	-3.6437618199	-0.9697335658	 0.087743
36.4567	83.8673	95.1372	203.8041	206.7247	283.9727	300.0863	321.8752	436.4014	465.4579	523.3222	604.0418	721.1034	743.9923	780.7715	807.3226	923.1732	929.3539	970.2015	1009.3165	1017.5853	1022.6482	1051.4614	1054.3751	1069.5847	1091.827	1137.9499	1186.4878	1199.9459	1219.7155	1258.1104	1286.0827	1330.5028	1343.563	1370.334	1415.6446	1437.4245	1478.314	1478.7213	1482.6049	2352.8465	3027.8068	3057.4409	3075.2397	3088.9331	3089.6537	3120.1179	3133.0681	3170.3715	3187.3991	3763.8226
CC#CC1CC2C(O)C12	CC#C[C@H]1C[C@H]2[C@@H](O)[C@@H]12	
InChI=1S/C8H10O/c1-2-3-5-4-6-7(5)8(6)9/h5-9H,4H2,1H3	InChI=1S/C8H10O/c1-2-3-5-4-6-7(5)8(6)9/h5-9H,4H2,1H3/t5-,6+,7-,8+/m0/s1
