14
gdb 50027	3.35383	1.06464	0.97476	4.0616	65.46	-0.2665	-0.0561	0.2105	1195.9596	0.099019	-473.816574	-473.808375	-473.80743	-473.850051	28.892	
O	-0.7498312363	 0.8105059046	 0.7003248905	-0.239162
C	 0.1418193332	 0.9873193759	-0.0876261981	 0.15542
C	 1.2027909794	 2.0250738714	 0.0818422142	-0.146965
O	 2.4173186232	 1.7741157767	-0.6538227583	-0.256128
C	 1.6141785304	 2.8269763795	-1.0867590523	 0.263341
C	 1.0099709334	 3.0057112752	-2.4978774	-0.247982
N	 1.4259674634	 4.4087536601	-2.3800358637	-0.344623
C	 2.0104818158	 4.3189876767	-1.1350004263	 0.390976
O	 2.5674004568	 5.097855186	-0.4164071249	-0.349589
H	 0.2511433492	 0.388015251	-1.0188078031	 0.092624
H	 1.3268074972	 2.449736949	 1.0757488703	 0.145769
H	 1.5308210296	 2.4417281834	-3.2773205104	 0.137072
H	-0.0710389436	 2.8587360035	-2.5805208179	 0.132669
H	 1.2790430683	 5.1992274868	-2.9879858	 0.266578
83.1465	97.9287	144.5453	193.1652	246.7737	293.0977	374.7285	455.8824	500.2494	541.7434	638.3943	733.0094	783.5638	878.7277	931.6784	957.5051	1002.5206	1046.7207	1087.4636	1107.864	1125.9542	1156.2375	1165.7699	1277.0991	1280.7346	1373.8025	1399.2865	1490.2085	1520.9677	1830.0224	1911.0508	2892.5157	3048.2855	3100.3811	3155.1448	3638.0344
O=CC1OC11CNC1=O	O=C[C@H]1O[C@]21CNC2=O	
InChI=1S/C5H5NO3/c7-1-3-5(9-3)2-6-4(5)8/h1,3H,2H2,(H,6,8)	InChI=1S/C5H5NO3/c7-1-3-5(9-3)2-6-4(5)8/h1,3H,2H2,(H,6,8)/t3-,5+/m1/s1
