23
gdb 118129	2.56161	1.01382	0.84766	1.8387	82.79	-0.2506	0.0793	0.3299	1493.3344	0.202532	-425.403762	-425.392824	-425.39188	-425.440598	38.952	
C	 0.8335645418	 1.1552433899	-0.3311295592	-0.383298
C	 0.2673963323	-0.0613812972	 0.3832096377	-0.034907
O	-0.7629005825	-0.6050537776	-0.4197113315	-0.259983
C	-1.2938378782	-1.8472865143	 0.0320243095	 0.10024
C	-2.2240969437	-1.7021561367	 1.2392188301	-0.40192
C	-1.9730634753	-2.5193563738	-1.1641025335	 0.023028
O	-3.388573373	-2.7337706882	-1.1178914959	-0.255437
C	-2.8740772003	-1.8408012148	-2.1124396762	 0.098734
C	-3.288915367	-0.3937082608	-2.0498734754	-0.409395
H	 1.637873545	 1.6044947555	 0.25914536	 0.114345
H	 1.2330391054	 0.8741033223	-1.3095905688	 0.124897
H	 0.0540411929	 1.9073065955	-0.4830386585	 0.126523
H	 1.0554313365	-0.8165478479	 0.5449597141	 0.084343
H	-0.1117266422	 0.2256488044	 1.3760467381	 0.091033
H	-0.4483371724	-2.4913709794	 0.3260014856	 0.066222
H	-1.6931344334	-1.2636823769	 2.088586706	 0.110222
H	-3.0887256175	-1.0801105008	 1.000931603	 0.133339
H	-2.5967123663	-2.6846683926	 1.5426556352	 0.127501
H	-1.4257359434	-3.3799069902	-1.5519093456	 0.086158
H	-2.9050842051	-2.2656941283	-3.1190823691	 0.083793
H	-3.1794944356	 0.0219414067	-1.0492608616	 0.133932
H	-2.665965852	 0.1980712807	-2.7279609445	 0.123493
H	-4.3316341059	-0.2919760254	-2.3701407091	 0.117139
46.5459	58.9151	100.2345	121.7924	175.4311	201.7589	230.7902	254.3917	266.9828	346.3959	351.739	394.712	465.1891	528.0276	681.8906	764.5028	788.6021	823.0034	855.6236	906.6158	962.1118	977.9105	1022.3706	1046.1903	1086.853	1097.6546	1125.1039	1152.573	1154.1184	1177.075	1188.4015	1195.439	1297.6073	1320.1383	1367.2107	1370.3359	1390.4256	1403.6197	1413.5875	1422.1006	1437.2597	1464.463	1480.0723	1483.8067	1486.9305	1491.8084	1500.3374	1506.8832	1529.494	2955.4776	2962.3795	2997.7506	3042.1932	3044.6163	3053.2442	3070.2387	3093.2966	3102.9906	3118.7674	3119.2847	3121.9124	3140.9978	3162.9558
CCOC(C)C1OC1C	CCO[C@@H](C)[C@H]1O[C@H]1C	
InChI=1S/C7H14O2/c1-4-8-5(2)7-6(3)9-7/h5-7H,4H2,1-3H3	InChI=1S/C7H14O2/c1-4-8-5(2)7-6(3)9-7/h5-7H,4H2,1-3H3/t5-,6-,7+/m0/s1
