18
gdb 104834	2.1403	1.53667	1.21333	4.39	68.87	-0.254	0.0192	0.2732	1107.6899	0.146342	-476.218081	-476.208639	-476.207695	-476.252492	33.92	
C	 1.0397369845	-0.61069397	 1.2727721022	-0.257743
O	 0.1944415897	-0.3244411182	 0.1711894436	-0.284633
C	 0.7436773461	-0.5141829369	-1.0982694961	 0.232999
C	 2.1204922598	 0.119931161	-1.3168934006	-0.122886
O	 2.1012379751	 1.4924113104	-0.9978957399	-0.422022
C	 0.5402311176	-1.9407382409	-1.7315186631	-0.227291
N	-0.3698851533	-1.2992870578	-2.6894998935	-0.331092
C	-0.2424870755	-0.0294491297	-2.199791423	 0.413539
O	-0.6605245876	 1.0489610178	-2.5380224181	-0.377564
H	 1.4619927204	-1.6250266856	 1.2179720213	 0.103125
H	 1.853873363	 0.1181810195	 1.3570308923	 0.138623
H	 0.4117493027	-0.5442874212	 2.1637639351	 0.134138
H	 2.8784334941	-0.3465105284	-0.6785448787	 0.110256
H	 2.4215088758	-0.06440595	-2.3615272044	 0.096347
H	 1.3320759233	 1.879474788	-1.4378780112	 0.30383
H	 1.4236325968	-2.3964845625	-2.1906831658	 0.11269
H	 0.0526083907	-2.6482814399	-1.0559058578	 0.122057
H	-0.810753503	-1.6455420757	-3.5289217124	 0.255626
78.4137	101.8398	121.0647	168.9414	207.0724	240.0203	303.0744	345.205	352.0228	438.028	462.1402	499.3309	590.9575	710.2789	764.7375	783.8163	892.3729	934.527	981.9077	1026.8343	1072.8302	1095.9049	1155.6337	1170.7038	1178.953	1197.7767	1201.1608	1247.3583	1261.7576	1315.939	1375.2875	1392.6158	1446.3598	1477.7683	1490.6707	1502.9049	1514.4558	1521.2613	1880.4571	2970.1167	2991.7604	3043.1972	3065.3226	3070.8327	3101.7648	3124.2713	3610.0105	3757.073
COC1(CO)CNC1=O	CO[C@@]1(CO)CNC1=O	
InChI=1S/C5H9NO3/c1-9-5(3-7)2-6-4(5)8/h7H,2-3H2,1H3,(H,6,8)	InChI=1S/C5H9NO3/c1-9-5(3-7)2-6-4(5)8/h7H,2-3H2,1H3,(H,6,8)/t5-/m1/s1
