12
gdb 14661	20.06296	0.53268	0.52059	4.6644	83.99	-0.263	-0.0836	0.1795	1951.1433	0.080988	-381.282296	-381.273432	-381.272488	-381.31723	28.333	
O	-0.0031025145	 1.4722324654	 0.0104440736	-0.404255
C	 0.0044494405	 0.0544121849	 0.0023372707	-0.245013
C	-1.3603522405	-0.4469788282	 0.0125318052	 0.336164
C	-2.4849423047	-0.8965772822	 0.0207034532	-0.191574
C	-3.7425929031	-1.3969344899	 0.029904668	-0.144266
C	-4.8700330958	-1.8501304655	 0.0381869569	 0.230583
C	-6.2173986398	-2.3503767294	 0.0484544359	-0.033318
O	-6.5116205404	-3.5245850676	 0.0459725765	-0.222271
H	 0.9136258843	 1.7669418548	 0.0041475549	 0.297776
H	 0.5140178436	-0.3464435221	-0.8898177217	 0.135032
H	 0.5309402639	-0.356472252	 0.8799782345	 0.135032
H	-6.9909532935	-1.5561726482	 0.0599407223	 0.106112
40.2697	60.035	95.1307	137.8665	205.4197	231.6884	272.3723	387.412	410.6654	546.0373	596.5473	612.0779	732.5093	943.0646	1010.9379	1016.9138	1064.9101	1242.4187	1243.4231	1284.5869	1418.3165	1460.8188	1489.1745	1754.3387	2253.3112	2352.3212	2923.568	2962.4837	2982.332	3818.4799
OCC#CC#CC=O	OCC#CC#CC=O	
InChI=1S/C6H4O2/c7-5-3-1-2-4-6-8/h5,8H,6H2	InChI=1S/C6H4O2/c7-5-3-1-2-4-6-8/h5,8H,6H2
