25
gdb 93832	2.26362	1.28922	0.98676	1.3925	88.24	-0.2575	0.0739	0.3314	1346.2185	0.229944	-389.522535	-389.512745	-389.5118	-389.556307	38.649	
C	-0.1285344323	 1.5881836054	 0.0215025923	-0.402644
C	-0.02701424	 0.0601231518	 0.0073228513	 0.03997
C	 0.6675422047	-0.4574998256	-1.2635427916	-0.182013
C	 0.8002063448	-1.9881231497	-1.2640503616	-0.230967
C	 1.522720637	-2.5299194479	-0.0131622143	 0.033371
C	 3.0297522028	-2.2306706201	-0.0172519249	-0.397224
C	 0.8077654637	-2.0045525137	 1.2440567804	 0.122276
O	 1.5046425457	-2.500728746	 2.3820300134	-0.445664
C	 0.6956601512	-0.4748252241	 1.2561411617	-0.2212
H	 0.8671965486	 2.0473193646	 0.0125404292	 0.112259
H	-0.6720249038	 1.9578735263	-0.8546430081	 0.109443
H	-0.6506891307	 1.9461137316	 0.9154506649	 0.107595
H	-1.0497622681	-0.3474932292	 0.0149855862	 0.067036
H	 0.1087646647	-0.1334375686	-2.1497296939	 0.087549
H	 1.6595711532	 0.0070627155	-1.3424707939	 0.094651
H	-0.204906737	-2.428570535	-1.3149595637	 0.088941
H	 1.3276664011	-2.321795238	-2.1651632831	 0.090065
H	 1.4123472497	-3.6215805257	-0.0018491382	 0.071484
H	 3.245370422	-1.1598818116	-0.0815635353	 0.109731
H	 3.4956331179	-2.6090047779	 0.8946704253	 0.133734
H	 3.5075894364	-2.7124211492	-0.8767788627	 0.103874
H	-0.2172292985	-2.4164101553	 1.2318320123	 0.055334
H	 1.0908850246	-2.1292462567	 3.1674714338	 0.276953
H	 1.7005940115	-0.0386291163	 1.3232800996	 0.101025
H	 0.1582950108	-0.1581360144	 2.1615297809	 0.074421
108.312	156.8408	205.9855	226.3025	241.7203	260.1916	273.822	285.284	352.091	399.1414	416.2206	450.2236	452.9533	559.8484	625.5807	767.7905	805.4159	836.0044	904.5632	933.3031	951.9716	967.1982	981.4398	1011.8114	1023.4061	1062.6607	1075.0791	1100.1317	1128.2296	1153.1918	1173.2463	1194.2035	1231.0533	1273.1642	1278.9568	1296.6393	1331.4117	1336.8604	1372.3679	1376.6401	1377.7781	1391.9605	1399.3243	1406.669	1414.2714	1440.6467	1479.5293	1483.8795	1495.8453	1497.0884	1499.9435	1505.6736	1512.2266	2932.986	2982.8305	3003.4828	3009.302	3017.2585	3023.9824	3026.7128	3042.5437	3052.7998	3055.5924	3061.7977	3089.4586	3094.6865	3103.5423	3133.4574	3817.2845
CC1CCC(C)C(O)C1	C[C@H]1CC[C@@H](C)[C@@H](O)C1	
InChI=1S/C8H16O/c1-6-3-4-7(2)8(9)5-6/h6-9H,3-5H2,1-2H3	InChI=1S/C8H16O/c1-6-3-4-7(2)8(9)5-6/h6-9H,3-5H2,1-2H3/t6-,7+,8-/m0/s1
