17
gdb 79503	2.39946	1.85589	1.24218	3.8806	73.65	-0.2281	-0.0399	0.1882	1016.6487	0.134642	-417.88025	-417.872325	-417.871381	-417.913034	29.718	
C	 0.0753446557	 1.541680546	-0.1227389369	-0.336557
N	 0.0491959678	 0.0826125265	-0.0343613855	-0.158098
C	-1.1074389015	-0.4881292436	 0.713052239	-0.034281
C	-0.2840942149	-1.7382966025	 1.1638193577	-0.076563
N	-0.5992918859	-1.6157041372	 2.6232943035	-0.334234
C	-0.5422596267	-0.2004859904	 2.1575486831	-0.091431
C	 0.6794003145	-0.5217903873	 1.183212221	 0.297194
C	 2.1382758638	-0.47426609	 1.494137188	 0.027556
O	 2.7460733882	-1.3625965713	 2.0340005472	-0.231457
H	 1.0566531321	 1.8710661179	-0.4773888203	 0.127928
H	-0.6660652029	 1.862417625	-0.8615438873	 0.12691
H	-0.1411625196	 2.0603776773	 0.8264072446	 0.100233
H	-2.1378937767	-0.4367175949	 0.3537592652	 0.087382
H	-0.1348681372	-2.6830537987	 0.6438657562	 0.10499
H	-1.5711185212	-1.8856368091	 2.7973545451	 0.213773
H	-0.6863993026	 0.6474109407	 2.8271878611	 0.099348
H	 2.6405172272	 0.4736533117	 1.1936698282	 0.077308
62.6778	143.9484	198.3965	221.0952	252.1854	286.3913	467.5003	510.8883	549.5218	701.3724	720.6214	735.3692	794.3054	811.2599	898.718	920.751	934.0003	981.5063	1022.2584	1072.2771	1077.2833	1095.8639	1119.4215	1143.2012	1158.7282	1170.916	1187.6521	1216.4333	1264.9171	1271.16	1296.2401	1363.6413	1427.2873	1449.859	1493.1562	1496.8741	1820.6883	2868.1945	2965.0674	3069.3863	3091.2778	3104.8437	3119.2835	3141.6837	3402.7529
CN1C2C3NC2C13C=O	CN1[C@H]2[C@@H]3N[C@H]2[C@]13C=O	
InChI=1S/C6H8N2O/c1-8-3-4-6(8,2-9)5(3)7-4/h2-5,7H,1H3	InChI=1S/C6H8N2O/c1-8-3-4-6(8,2-9)5(3)7-4/h2-5,7H,1H3/t3-,4-,5+,6+
