15
gdb 5581	3.46412	1.85385	1.24095	2.0774	64.82	-0.1874	0.0145	0.2019	945.9138	0.12057	-395.998695	-395.990933	-395.989989	-396.030912	28.012	
C	 0.1869041898	 1.471692866	 0.0513736325	-0.32445
N	-0.2370536639	 0.0982820063	-0.1878879748	-0.387212
C	 0.456296568	-0.6548848681	-1.1170346401	 0.317482
C	 0.6613991865	-2.0029047774	-1.130346555	 0.160715
N	 0.3120900248	-3.0030744736	-0.2326315144	-0.606876
O	 1.3342708734	-2.2922321634	-2.3241347759	-0.169271
C	 1.494719135	-1.0983205901	-2.9082421093	 0.075456
N	 1.0029614247	-0.0888804535	-2.2609018509	-0.320084
H	 1.1856666307	 1.5539577393	 0.5080636229	 0.105963
H	 0.206659282	 2.0091852774	-0.8980448621	 0.156654
H	-0.5391036213	 1.9552218172	 0.7100063166	 0.117697
H	-0.4135015211	-0.4327338856	 0.6542791509	 0.239154
H	-0.3905815263	-3.6447459242	-0.5873326965	 0.246785
H	 1.1045541305	-3.5446377327	 0.0970851428	 0.245988
H	 2.017729477	-1.0782535477	-3.8524888368	 0.141999
84.1497	150.281	189.9211	222.2017	282.905	301.9424	354.5628	509.6328	620.3918	628.4018	689.4809	747.9208	758.0495	799.4517	831.956	955.664	1003.7869	1090.876	1145.2796	1153.5381	1195.6062	1212.3884	1248.6605	1324.5184	1417.8324	1465.1532	1478.924	1497.3498	1524.2747	1556.4589	1656.3183	1732.8374	2980.9873	3089.2726	3141.3883	3261.0279	3486.6717	3551.0689	3582.8345
CNC1=C(N)OC=N1	CNc1c(N)ocn1	
InChI=1S/C4H7N3O/c1-6-4-3(5)8-2-7-4/h2,6H,5H2,1H3	InChI=1S/C4H7N3O/c1-6-4-3(5)8-2-7-4/h2,6H,5H2,1H3
