15
gdb 34812	4.2509	1.33163	1.25326	5.8243	68.57	-0.2589	0.025	0.2839	989.5767	0.114819	-416.743313	-416.736818	-416.735874	-416.774191	26.065	
N	-0.0191749831	-1.1598079	-0.0434555962	-0.325243
C	-0.0192405856	-0.0041611646	-0.020893326	 0.277008
C	-0.0597963136	 1.4453232251	-0.0343574975	-0.173844
C	-0.0541489491	 2.0905907288	 1.3858971671	 0.059068
O	 1.382240084	 1.7999293575	 1.4591849773	-0.294854
C	 1.3467451221	 2.1171801452	 0.0269976192	 0.059068
C	 1.0281730227	 3.6296211899	 0.0669456696	-0.053935
N	-0.3648853128	 3.9710386082	-0.2994429553	-0.332154
C	-0.0341687064	 3.6094571288	 1.0974472012	-0.053935
H	-0.7746197838	 1.8227568237	-0.7638900542	 0.152759
H	-0.632129566	 1.7005471005	 2.2206426292	 0.106719
H	 2.206054883	 1.7544249391	-0.5324580606	 0.106719
H	 1.8178704905	 4.3679059773	 0.0140372662	 0.115441
H	-0.4509215839	 4.9837439908	-0.3683205858	 0.241741
H	-0.1253509779	 4.3310221098	 1.8990180359	 0.115441
146.8042	157.4753	355.1979	374.8969	447.4079	537.7736	561.4815	612.113	697.158	792.1088	837.9993	849.4282	867.9504	888.5622	903.7912	911.8128	943.0387	948.7115	1041.8475	1059.2131	1072.2213	1112.0876	1133.1775	1170.5214	1183.3083	1204.2868	1243.4997	1281.9999	1295.8486	1328.7468	1346.0517	1395.2338	2361.8192	3131.9677	3155.3808	3157.027	3197.429	3206.9988	3487.2563
N#CC1C2OC1C1NC21	N#C[C@H]1[C@H]2O[C@@H]1[C@H]1N[C@@H]21	
InChI=1S/C6H6N2O/c7-1-2-5-3-4(8-3)6(2)9-5/h2-6,8H	InChI=1S/C6H6N2O/c7-1-2-5-3-4(8-3)6(2)9-5/h2-6,8H/t2-,3+,4-,5+,6-
