19
gdb 106822	2.62188	1.56189	1.20138	1.6286	70.4	-0.2226	0.0496	0.2722	1074.7833	0.159202	-460.139939	-460.131469	-460.130525	-460.172562	33.289	
O	 0.7167386613	-0.2018780655	-0.5906535904	-0.41382
C	-0.2192607391	 0.2979693329	 0.3670462294	-0.180339
C	-1.5646627555	-0.3771806429	 0.2392888651	 0.345486
C	-2.1929291329	-0.7263307545	-1.1052402106	-0.433761
C	-1.7480057813	-1.8163738872	-0.1364338543	 0.373813
O	-0.7157634601	-2.6937069084	-0.4514910385	-0.486318
C	-2.7915016736	-2.3528237993	 0.8250601712	-0.282047
C	-3.4107018205	-1.0702667662	 1.4186552612	-0.101631
O	-2.4308778287	-0.0296778769	 1.2891274153	-0.305977
H	 0.5383531433	 0.2243205995	-1.4345940567	 0.29753
H	 0.1974177905	 0.071283566	 1.3534877609	 0.130424
H	-0.3181045945	 1.389166138	 0.2920372	 0.113375
H	-3.245824758	-0.5221263475	-1.2728846373	 0.11376
H	-1.5700272114	-0.6112022006	-1.9874173421	 0.095262
H	 0.0631559437	-2.1504853669	-0.6402110236	 0.290163
H	-3.5449071306	-2.9915020461	 0.3553667371	 0.109734
H	-2.2703800274	-2.941345903	 1.5865969257	 0.117771
H	-4.3223106878	-0.7861493397	 0.8759605531	 0.102233
H	-3.6646384374	-1.1599477719	 2.4779555646	 0.114342
107.8898	185.5238	198.1688	204.0649	302.7371	319.068	381.1507	394.6323	442.8474	530.9275	543.0257	574.7671	668.2676	709.7674	743.0673	842.6415	883.4056	909.3854	932.1292	968.503	1005.4366	1019.0056	1042.7681	1063.7998	1096.1912	1141.989	1177.549	1211.2102	1219.2424	1224.7522	1259.5403	1325.8958	1371.4892	1378.7893	1389.8366	1408.5083	1448.4635	1482.5089	1497.827	1508.4694	1527.4084	3011.3412	3015.7568	3054.4923	3084.2386	3088.9778	3104.3628	3118.9554	3206.6636	3724.0867	3829.9781
OCC12CC1(O)CCO2	OC[C@@]12C[C@]1(O)CCO2	
InChI=1S/C6H10O3/c7-4-6-3-5(6,8)1-2-9-6/h7-8H,1-4H2	InChI=1S/C6H10O3/c7-4-6-3-5(6,8)1-2-9-6/h7-8H,1-4H2/t5-,6+/m1/s1
