21
gdb 38739	2.69178	1.96255	1.86092	0.1316	84.87	-0.2335	0.0253	0.2588	900.6906	0.188335	-349.972947	-349.966747	-349.965803	-350.002884	28.093	
C	-0.0306756002	 1.5509415421	 0.0544563917	-0.224179
C	 1.5124069021	 1.4670568982	-0.0106552117	-0.016381
C	 2.0818535522	 1.1610650362	 1.3857779931	-0.210101
C	 1.7503502022	-0.3231730959	 1.7292616235	-0.054397
C	 0.247226909	-0.5715332556	 1.3979445553	-0.2101
C	-0.0355072913	 0.0051952777	-0.0004020136	-0.01638
C	 1.3352068714	 0.0987346201	-0.7902587953	-0.041488
C	 2.3404046896	-0.9636161326	-0.5030273715	-0.077685
C	 2.5601880668	-1.1872529552	 0.7955845494	-0.082925
H	-0.475419357	 2.0280391877	 0.9348502762	 0.081782
H	-0.4566067582	 1.9955942682	-0.8496255	 0.088792
H	 2.0548360786	 2.2684176726	-0.517277806	 0.058071
H	 3.1662529341	 1.3037384247	 1.4134516822	 0.093506
H	 1.6420773077	 1.8409123934	 2.1260181785	 0.088568
H	 1.9646312438	-0.5427116976	 2.7778252014	 0.056397
H	 0.0430255079	-1.6457917405	 1.4341754385	 0.093505
H	-0.4011811386	-0.0886995205	 2.1395583754	 0.088569
H	-0.8700679766	-0.4938898176	-0.4978930844	 0.058071
H	 1.1624339547	 0.2742316372	-1.8533405279	 0.059942
H	 2.8420905636	-1.5004308102	-1.3018525104	 0.084176
H	 3.2597214184	-1.9253202321	 1.1739620458	 0.082258
296.6948	319.7219	360.9942	445.3034	447.823	507.5201	630.6572	646.8008	715.7627	730.1998	797.4755	812.4892	828.5124	867.9826	878.1518	907.302	938.0112	961.8384	965.561	1003.5033	1008.161	1025.9466	1057.4223	1079.3948	1080.3685	1111.7199	1112.5555	1135.5576	1177.3224	1187.3829	1235.8837	1242.7831	1268.1051	1270.3838	1287.1016	1328.2611	1330.8082	1357.4051	1363.1292	1371.3139	1403.7666	1486.5761	1489.2646	1505.3042	1679.6636	3026.099	3026.7881	3034.2564	3071.0041	3071.0607	3076.0339	3081.0257	3081.5473	3090.1855	3097.4963	3165.8698	3190.454
C1C2CC3CC1C2C=C3	C1[C@H]2C[C@H]3C[C@@H]1[C@@H]2C=C3	
InChI=1S/C9H12/c1-2-9-7-3-6(1)4-8(9)5-7/h1-2,6-9H,3-5H2	InChI=1S/C9H12/c1-2-9-7-3-6(1)4-8(9)5-7/h1-2,6-9H,3-5H2/t6-,7+,8-,9+
