16
gdb 30320	3.14374	1.62016	1.1408	1.4554	70.6	-0.2336	-0.0042	0.2294	1036.0469	0.126131	-437.902265	-437.894957	-437.894013	-437.934333	27.364	
C	 0.103102177	 1.5695459677	-0.0842145479	-0.390489
C	-0.057657005	 0.0638978154	 0.1049519225	 0.022266
O	 0.5017725944	-0.6404848426	-1.032398073	-0.301208
C	 1.4833884913	-1.6417887611	-0.6737529198	-0.180479
C	 1.5845919159	-1.4894323389	 0.8070085266	 0.20442
C	 0.7235345188	-0.5474064122	 1.2146858328	 0.270399
O	 0.8086856884	-0.4198111304	 2.5628980223	-0.197085
C	 1.7681012353	-1.3431904136	 2.8911023091	 0.034038
N	 2.2656335426	-2.0091557934	 1.8950665206	-0.334744
H	 1.161310721	 1.8371073479	-0.1458826676	 0.125124
H	-0.3926795718	 1.8818191977	-1.0070438448	 0.131802
H	-0.3506132798	 2.1089400509	 0.7536733619	 0.122487
H	-1.1293003097	-0.1809707786	 0.1700873829	 0.097489
H	 1.1264105813	-2.6319896094	-0.9886084643	 0.120139
H	 2.4180741707	-1.433258161	-1.209820874	 0.122691
H	 2.0121302297	-1.4213223083	 3.9387060327	 0.153151
86.9508	146.2313	230.5871	238.9104	294.8543	442.8139	460.6124	594.163	649.731	675.2475	725.3009	787.1744	814.236	849.3321	942.0041	990.7293	1033.5221	1046.5535	1070.5054	1078.314	1109.5429	1132.5682	1182.0783	1268.8305	1303.7101	1308.6834	1366.1259	1401.1671	1411.2604	1432.7553	1486.8471	1495.3263	1519.6275	1525.2501	1673.3036	2976.8802	3006.5826	3037.1835	3041.9683	3117.5957	3129.5562	3280.7075
CC1OCC2=C1OC=N2	C[C@H]1OCc2c1ocn2	
InChI=1S/C6H7NO2/c1-4-6-5(2-8-4)7-3-9-6/h3-4H,2H2,1H3	InChI=1S/C6H7NO2/c1-4-6-5(2-8-4)7-3-9-6/h3-4H,2H2,1H3/t4-/m1/s1
