17
gdb 126336	2.90958	1.41485	1.02403	4.7508	80.72	-0.2203	-0.0517	0.1686	1156.9177	0.137438	-414.172517	-414.164243	-414.163298	-414.205711	30.851	
C	-0.1582560378	 1.5624244524	 0.0058086751	-0.376331
C	 0.075366331	 0.0410322482	 0.0379975641	-0.283055
C	 0.7512828495	-0.4784431442	-1.1976522521	 0.220527
C	 2.0286061343	-0.9074758813	-1.2153150315	-0.046619
N	 2.585361324	-1.361580752	-2.3858968714	-0.247886
N	 1.9276766563	-1.4193417026	-3.5636770511	-0.034253
N	 0.7260136749	-1.0415363811	-3.6124714357	-0.262725
C	 0.0253340538	-0.5472187778	-2.4642188367	 0.309559
N	-1.199785428	-0.1893583053	-2.566952378	-0.520656
H	 0.7899031494	 2.1049380205	-0.0674600421	 0.10758
H	-0.7817248574	 1.8301362094	-0.8491708054	 0.156463
H	-0.665143853	 1.8862922126	 0.9196891628	 0.113731
H	 0.6734331136	-0.2271758764	 0.9170036016	 0.09086
H	-0.894535782	-0.4601635698	 0.1300532724	 0.13304
H	 2.6758724169	-0.9237779284	-0.3456506341	 0.137494
H	 3.5353914686	-1.6890142152	-2.4423537259	 0.281355
H	-1.5039266243	-0.3306927091	-3.532857682	 0.220918
75.0235	92.5577	179.7452	212.3589	303.8966	357.6409	395.867	450.1997	482.6482	539.551	602.2494	625.0543	735.6227	784.3801	810.313	884.0113	891.0646	909.876	972.5193	989.4745	1057.2402	1084.1819	1100.2159	1201.0315	1228.7278	1282.0207	1318.7433	1355.937	1395.6938	1402.2914	1454.5591	1470.9297	1494.3621	1513.4169	1585.3881	1671.9383	1705.7454	3029.6416	3041.6267	3076.2698	3108.2326	3143.0063	3195.7247	3455.8827	3661.5044
CCC1=CNN=NC1=N	CCc1c[nH]nnc1[NH]	
InChI=1S/C5H8N4/c1-2-4-3-7-9-8-5(4)6/h3H,2H2,1H3,(H2,6,7,8)	InChI=1S/C5H13N4/c1-2-4-3-7-9-8-5(4)6/h4-9H,2-3H2,1H3
