15
gdb 131683	2.69513	1.25674	0.86169	5.0944	70.52	-0.2465	-0.0473	0.1992	1247.8102	0.113186	-453.962552	-453.954139	-453.953194	-453.996502	29.522	
O	-0.0482883128	 1.435132559	 0.0078026125	-0.41934
C	 0.0239842448	 0.0184409645	 0.0015440486	-0.207701
C	-1.3753556496	-0.5141877684	 0.01181021	 0.153335
C	-2.5288544995	 0.2352758743	 0.0233619838	-0.090183
N	-3.5577446628	-0.6552394341	 0.029510678	-0.178842
N	-3.171387527	-1.9277791405	 0.0228677003	-0.259022
C	-1.8316748902	-1.8640596469	 0.0119571385	 0.149902
C	-1.0008537876	-3.0762237398	 0.0018537855	 0.095513
O	-1.4054151482	-4.2136608445	 0.001934364	-0.260893
H	 0.8481895308	 1.7824504974	 0.002022843	 0.29442
H	 0.5603830281	-0.3478877008	-0.8888470678	 0.109712
H	 0.5760975768	-0.354992134	 0.8792643249	 0.109697
H	-2.6822296788	 1.3008953453	 0.0276101557	 0.16112
H	-4.5436677888	-0.4485764345	 0.0382397415	 0.283384
H	 0.0928357347	-2.8592723272	-0.0071668086	 0.058899
49.4086	123.2208	147.5541	215.1746	239.829	240.4422	306.2187	381.4587	551.5202	586.393	660.4937	696.9363	721.4244	805.8444	824.0698	961.2618	1027.3605	1052.11	1069.1216	1086.4835	1136.0662	1225.9702	1251.2862	1255.1865	1318.7703	1377.5714	1417.6415	1455.0161	1477.4508	1509.5467	1519.5636	1598.7196	1809.8696	2854.9478	2963.7618	2981.2557	3289.6286	3655.9854	3838.1671
OCC1=CNN=C1C=O	OCc1c[nH]nc1C=O	
InChI=1S/C5H6N2O2/c8-2-4-1-6-7-5(4)3-9/h1,3,8H,2H2,(H,6,7)	InChI=1S/C5H6N2O2/c8-2-4-1-6-7-5(4)3-9/h1,3,8H,2H2,(H,6,7)
