20
gdb 8381	4.13128	1.35548	1.2398	1.525	75.89	-0.2194	0.0867	0.3061	1089.3495	0.175593	-348.98322	-348.974656	-348.973711	-349.01637	32.232	
C	 0.304134007	 1.5763364939	-0.50127604	-0.405911
C	 0.155446346	 0.0948661313	-0.2384752648	-0.070436
C	 1.3809835842	-0.8063653659	-0.1088278481	-0.365469
C	 0.5241743569	-0.5018656582	 1.0796467585	 0.461281
C	 0.8932194109	 0.1530595849	 2.4048656441	-0.380795
C	 0.0862901861	-1.0131661989	 3.0253879726	 0.160679
C	-1.1275569445	-0.6794813038	 3.8672960622	-0.397033
O	-0.2757622025	-1.5064401089	 1.7062315125	-0.323496
H	 1.1626364623	 1.9896801144	 0.0391212901	 0.113556
H	 0.4601308632	 1.7771409585	-1.5669894823	 0.11907
H	-0.5858084927	 2.1312888106	-0.1834021327	 0.117029
H	-0.7026480453	-0.3767595203	-0.7118245428	 0.094098
H	 1.3183207103	-1.8070237696	-0.5231225916	 0.118834
H	 2.3649616783	-0.3488245329	-0.1668648505	 0.105969
H	 1.9567365729	 0.1834287575	 2.6485016799	 0.10859
H	 0.4538413613	 1.140550213	 2.570442287	 0.107075
H	 0.7183717965	-1.7492547725	 3.5398433324	 0.076318
H	-1.7520950437	 0.0677613339	 3.3679567068	 0.119693
H	-1.7332879857	-1.5752832743	 4.0367455873	 0.126865
H	-0.8203606917	-0.2847040628	 4.8422473296	 0.114081
45.5654	163.4695	181.2876	200.5161	231.5251	306.9264	373.9741	387.8319	416.8624	491.8762	559.7093	768.1327	791.0693	853.2113	882.5183	894.6495	911.6852	920.9996	946.0418	997.0436	1028.6517	1076.5285	1095.8287	1119.4248	1121.3669	1139.9356	1176.0293	1197.7181	1210.6979	1243.7862	1307.7904	1343.1385	1381.6985	1404.5339	1413.1795	1424.3072	1480.5701	1482.5042	1491.8263	1493.3907	1498.2298	1509.8728	3010.2393	3024.6561	3031.9644	3062.1909	3087.2919	3091.3404	3104.0907	3111.5595	3118.041	3119.0124	3139.4528	3210.665
CC1CC11CC(C)O1	C[C@H]1C[C@]21C[C@@H](C)O2	
InChI=1S/C7H12O/c1-5-3-7(5)4-6(2)8-7/h5-6H,3-4H2,1-2H3	InChI=1S/C7H12O/c1-5-3-7(5)4-6(2)8-7/h5-6H,3-4H2,1-2H3/t5-,6+,7+/m0/s1
