17
gdb 46677	2.96767	1.7588	1.35773	4.4856	72.24	-0.2517	0.0054	0.2572	953.3446	0.138835	-421.788333	-421.781856	-421.780911	-421.819094	26.593	
O	-0.0117282443	-0.0048188284	-0.0193158383	-0.342914
C	 0.0382587823	 1.1887558711	 0.0048366363	 0.359671
O	-1.0919597664	 1.9678956434	 0.1574283999	-0.249551
C	-0.8237534655	 3.4049448739	 0.0842550357	-0.132996
C	 0.5507260877	 3.4816077341	-0.5778933793	-0.016738
C	 1.9673748029	 3.8628510677	-0.0186410053	-0.091053
C	 1.6926282654	 2.9401798015	 1.193117557	-0.251649
C	 1.1717412162	 2.1698916884	-0.0723707969	 0.167348
C	 2.4968814709	 2.5792974031	-0.7716270786	-0.302227
H	-1.6225455768	 3.8385258619	-0.5202558283	 0.124603
H	-0.8851750698	 3.8202858941	 1.0931698621	 0.123883
H	 0.4633367519	 3.5537132536	-1.6661726827	 0.08648
H	 2.4386910927	 4.8465438008	-0.0113102871	 0.085307
H	 2.5626896683	 2.497914807	 1.6819718077	 0.108732
H	 0.9586728116	 3.2703242252	 1.9279693542	 0.110338
H	 2.4790271683	 2.6069096833	-1.863334401	 0.110188
H	 3.4199090746	 2.1402377194	-0.3884359655	 0.110579
155.7079	200.106	315.4244	361.2451	496.5126	525.5603	605.3317	625.3614	684.0959	720.2921	780.9366	824.0513	879.1561	883.2336	943.6634	976.3919	978.7073	990.1872	1031.3815	1042.5635	1074.6665	1098.3847	1116.6602	1141.3487	1151.7578	1165.8134	1202.0641	1215.4292	1224.5924	1234.7712	1296.4331	1364.7357	1404.1434	1495.4628	1515.7793	1547.1564	1885.5225	3060.0024	3066.8449	3067.8761	3081.8335	3104.6557	3118.9674	3139.1624	3147.6992
O=C1OCC2C3CC12C3	O=C1OC[C@H]2[C@H]3C[C@@]12C3	
InChI=1S/C7H8O2/c8-6-7-1-4(2-7)5(7)3-9-6/h4-5H,1-3H2	InChI=1S/C7H8O2/c8-6-7-1-4(2-7)5(7)3-9-6/h4-5H,1-3H2/t4-,5-,7-/m0/s1
