18
gdb 51192	4.30325	1.06936	1.01507	1.2737	75.28	-0.2423	-0.0295	0.2128	1192.2767	0.147391	-401.885271	-401.877478	-401.876533	-401.918673	29.414	
O	-0.0637944634	-0.1118690028	-0.2111879095	-0.236282
C	 0.0126785942	 1.0820613126	-0.0809428241	 0.165845
C	 1.3074296284	 1.869283942	-0.0734909373	-0.408764
C	 1.3364272396	 2.9113763133	-1.1735407988	 0.282631
C	 1.3785837782	 2.5088878834	-2.6785526183	-0.281114
C	 2.0550695115	 3.8572657795	-2.9050840577	-0.031063
C	 2.4866443262	 3.9551309968	-1.4925697219	-0.110797
N	 1.4453713907	 4.8932991695	-1.9939683048	-0.143396
C	 0.4089329288	 4.1448729086	-1.2133431261	-0.188663
H	-0.9052865571	 1.7031436887	 0.0406629993	 0.079084
H	 1.38773811	 2.3723214682	 0.9015126728	 0.120222
H	 2.1402295742	 1.1655932976	-0.1667828797	 0.124152
H	 2.0786863446	 1.688463548	-2.8575299406	 0.114247
H	 0.4250005718	 2.297330788	-3.1747221608	 0.101815
H	 2.5372217708	 4.2373267625	-3.7956287582	 0.103867
H	 3.403937111	 4.2541241905	-1.0023135441	 0.099687
H	-0.5694594003	 4.0495206829	-1.6996409658	 0.100588
H	 0.2942482909	 4.6332137708	-0.2411394743	 0.107942
45.5887	65.2242	167.3945	283.4484	323.5246	441.5766	446.971	484.1884	645.9846	722.2256	744.8793	798.3043	840.8161	849.7509	891.5371	926.7961	959.9135	970.6173	986.3801	1001.1026	1018.0643	1056.7151	1091.7729	1122.881	1146.5691	1159.1598	1168.1507	1207.5198	1238.2474	1267.489	1272.1892	1295.844	1329.6155	1351.6083	1433.1963	1463.0962	1491.259	1514.3393	1835.0947	2861.8371	3007.9216	3027.5386	3042.3274	3089.7842	3092.6573	3104.9757	3197.3753	3213.7806
O=CCC12CC3C1N3C2	O=CC[C@]12C[C@@H]3[C@H]1N3C2	
InChI=1S/C7H9NO/c9-2-1-7-3-5-6(7)8(5)4-7/h2,5-6H,1,3-4H2	InChI=1S/C7H9NO/c9-2-1-7-3-5-6(7)8(5)4-7/h2,5-6H,1,3-4H2/t5-,6-,7-,8?/m1/s1
