18
gdb 66778	3.29973	2.08257	1.78442	1.4368	76.44	-0.2364	0.0699	0.3064	840.6321	0.149852	-364.743319	-364.737162	-364.736217	-364.773384	26.678	
C	-0.043011962	 1.4347441396	 0.0248795363	-0.491147
C	 0.0484002088	-0.0658785595	 0.0170544953	 0.354061
C	 1.3152664499	-0.8127915481	-0.32260782	-0.128931
C	 0.7452292579	-0.8549350026	 1.0987279471	-0.128933
C	 0.156023437	-2.259442014	 0.8416623365	-0.083329
C	-1.261347418	-2.0703188012	 0.2379902379	-0.063966
C	-0.7051233603	-2.0291675288	-1.148981134	-0.06397
C	 0.7404590352	-2.216217024	-0.6156589764	-0.083329
N	-1.1449246554	-0.7950458461	-0.4831163641	-0.163108
H	 0.87996409	 1.8801960898	 0.4083790096	 0.114882
H	-0.2131966459	 1.8197693698	-0.9855578545	 0.12543
H	-0.871752456	 1.771075216	 0.6559575844	 0.125434
H	 2.2168589355	-0.3522775162	-0.7096972004	 0.083174
H	 1.1204616906	-0.4333311309	 2.0240556607	 0.083173
H	 0.3715573258	-3.0871080869	 1.51222297	 0.071604
H	-2.2236908191	-2.3847953531	 0.626967339	 0.088676
H	-1.1260112392	-2.3035791323	-2.1101547673	 0.088675
H	 1.3762318952	-3.0128038214	-0.9929913903	 0.071603
196.2215	235.8725	291.4476	566.0376	571.9117	574.3522	707.7262	744.1928	752.6644	785.7121	795.2262	838.1883	849.3478	878.8454	898.8583	911.8812	913.0072	928.8989	935.0784	957.9176	1013.6049	1022.7426	1042.3518	1054.2322	1092.0403	1122.4091	1153.863	1176.2068	1178.143	1203.8711	1222.2972	1239.0833	1273.1683	1273.2239	1336.6247	1398.2202	1422.0645	1482.0167	1500.9929	3035.3435	3101.0761	3108.6556	3147.14	3154.72	3161.5735	3170.933	3174.3457	3183.2818
CC12C3C1C1C4C(C31)N24	C[C@@]12[C@H]3[C@@H]1[C@H]1[C@@H]4[C@H]([C@@H]31)N24	
InChI=1S/C8H9N/c1-8-4-2-3(5(4)8)7-6(2)9(7)8/h2-7H,1H3	InChI=1S/C8H9N/c1-8-4-2-3(5(4)8)7-6(2)9(7)8/h2-7H,1H3/t2-,3+,4-,5+,6+,7-,8-,9?
