21
gdb 115726	2.76857	1.19653	0.98692	1.6616	78.25	-0.2453	0.0709	0.3162	1293.9431	0.182088	-424.185058	-424.175913	-424.174969	-424.21942	33.562	
C	-0.2856048308	 1.5296069211	 0.0934778556	-0.385302
C	 0.2822216185	 0.1238639246	-0.1336840427	-0.210837
C	 0.7758720457	-0.514087917	 1.1593067214	-0.02664
C	-0.2594333221	-0.9860662849	 2.2041583874	-0.081482
O	 0.3658317258	-2.2860987276	 2.2986758104	-0.289201
C	 1.2357074716	-2.0032240762	 1.1855134215	 0.071774
C	 0.9225503463	-2.8613880864	-0.0164524776	 0.054404
C	 0.1997246709	-4.1310730154	 0.1297206466	-0.174129
O	-0.4501835725	-2.9673903451	-0.3933555916	-0.234221
H	 0.4680542223	 2.1999413392	 0.5219465494	 0.11289
H	-0.6314240423	 1.9723805585	-0.8452968579	 0.116038
H	-1.1381708491	 1.5081500365	 0.7815130717	 0.119588
H	-0.4787251842	-0.5163337331	-0.5906304058	 0.132854
H	 1.1134562149	 0.1802151811	-0.848947881	 0.093139
H	 1.5350933049	 0.1259224437	 1.6202963632	 0.078124
H	-0.2680805783	-0.4695346487	 3.1700061757	 0.100178
H	-1.2844272519	-1.0626110575	 1.8199765598	 0.10841
H	 2.291348542	-2.156627236	 1.4517606339	 0.076017
H	 1.6147605927	-2.7495110119	-0.8536448814	 0.091629
H	 0.3682996569	-4.9323518868	-0.5878881828	 0.111414
H	-0.1290013014	-4.4279933282	 1.1218422143	 0.135352
85.6931	93.4844	122.9542	141.0008	217.0131	249.0622	255.9433	339.4193	407.9205	523.8623	608.1704	746.4858	769.7462	804.2201	865.0969	891.0056	925.6868	957.4914	971.7885	979.3587	997.5686	1028.9689	1063.1952	1100.0796	1114.5308	1147.0258	1163.8758	1165.3862	1171.552	1190.0002	1255.1122	1267.9143	1283.332	1301.5608	1332.364	1363.2182	1373.7743	1405.3632	1415.3447	1425.0297	1492.0718	1502.0423	1507.7462	1513.2222	1525.3687	2999.9543	3019.6268	3022.1822	3030.0235	3048.0443	3072.067	3080.6259	3089.2694	3098.8812	3101.2006	3106.2114	3198.237
CCC1COC1C1CO1	CC[C@H]1CO[C@H]1[C@H]1CO1	
InChI=1S/C7H12O2/c1-2-5-3-9-7(5)6-4-8-6/h5-7H,2-4H2,1H3	InChI=1S/C7H12O2/c1-2-5-3-9-7(5)6-4-8-6/h5-7H,2-4H2,1H3/t5-,6+,7+/m0/s1
