23
gdb 109790	1.947	1.34619	0.92497	0.5482	87.29	-0.2136	0.0779	0.2915	1379.7836	0.205202	-384.411332	-384.401206	-384.400262	-384.446954	37.194	
C	-1.3726930025	 2.5053004536	-0.4424691833	-0.374532
C	-1.2099510075	 1.2940866007	-1.3590824547	-0.11368
N	-1.8506867117	 0.1243932395	-0.7636692208	-0.109773
C	-1.5360805556	-1.2303314202	-1.2195321131	-0.016126
C	-0.5539703585	-1.5364691103	-2.3311176805	-0.414594
C	-1.1145884141	-0.7627132676	 0.1421349453	-0.042308
C	 0.3198506136	-0.5659135604	 0.5254417068	 0.015657
C	 0.647574916	-0.1548540961	 1.9162181441	-0.247436
N	 0.9398161835	-1.5242121034	 1.4608272093	-0.327417
H	-0.9558397447	 3.4028181584	-0.9100917249	 0.10922
H	-2.4300385895	 2.6810696835	-0.2258097865	 0.125639
H	-0.854331827	 2.3464282933	 0.5083770297	 0.121834
H	-1.7160496472	 1.4822184971	-2.3136582241	 0.10094
H	-0.1441744559	 1.1547852146	-1.5938710221	 0.083585
H	-2.4219817656	-1.8656424037	-1.2605394272	 0.085776
H	 0.3725033633	-0.9638969834	-2.2652721449	 0.122681
H	-0.2872096257	-2.5982455454	-2.3066717698	 0.126291
H	-1.0045457365	-1.3325777819	-3.3087458798	 0.122733
H	-1.7152628435	-1.0911269875	 0.9947566666	 0.075052
H	 0.9991834345	-0.2541982842	-0.2609455236	 0.093318
H	 1.5222818355	 0.4581058692	 2.1144442527	 0.119096
H	-0.181236261	 0.0020197395	 2.6025347968	 0.113652
H	 0.2276703502	-2.160999275	 1.8136016539	 0.23039
52.4265	70.5076	128.4141	165.8694	176.1476	211.7104	240.4971	285.0708	333.9014	364.6186	482.3003	534.6676	573.0327	712.7272	793.4366	804.351	814.2186	863.9527	895.4492	958.5422	965.0754	979.4425	1004.3501	1058.243	1076.9073	1088.6232	1118.6592	1139.8551	1151.391	1161.195	1174.4704	1187.212	1235.3913	1252.983	1293.5727	1308.5059	1330.9265	1347.73	1382.3477	1405.6056	1410.6088	1419.3261	1461.3287	1488.1737	1490.9712	1498.3529	1502.5074	1511.5181	1516.8927	2985.1099	3039.201	3039.4776	3044.9479	3056.4978	3085.9699	3094.5029	3105.1319	3109.6659	3119.7998	3134.1559	3160.9094	3191.4868	3482.4862
CCN1C(C)C1C1CN1	CCN1[C@@H](C)[C@H]1[C@H]1CN1	
InChI=1S/C7H14N2/c1-3-9-5(2)7(9)6-4-8-6/h5-8H,3-4H2,1-2H3	InChI=1S/C7H14N2/c1-3-9-5(2)7(9)6-4-8-6/h5-8H,3-4H2,1-2H3/t5-,6+,7-,9?/m0/s1
