14
gdb 27958	4.08916	1.15372	0.90007	5.881	74.39	-0.2511	-0.0766	0.1745	1194.5361	0.102602	-432.936109	-432.928476	-432.927532	-432.968439	28.103	
N	-0.0110218816	 1.3607667325	 0.1090890738	-0.56387
C	-0.0139821075	 0.0021193252	 0.0411365504	 0.42277
C	-1.2080495838	-0.7488234235	 0.0330732082	-0.247147
C	-1.079915902	-2.1246865761	-0.0019222751	 0.233681
C	-2.3257502704	-2.959694742	-0.0147626167	 0.112182
O	-2.3520756446	-4.1604051886	-0.0466522876	-0.234578
N	 0.1108129932	-2.7506906252	-0.0250956494	-0.306104
C	 1.1639371506	-1.9435805493	-0.0139344464	 0.067389
N	 1.1776859012	-0.6083678886	 0.0139919286	-0.316195
H	 0.8709526269	 1.8185474394	-0.0538367922	 0.268979
H	-0.8480895924	 1.8758727963	-0.0999084684	 0.263807
H	-2.1827736152	-0.2722294348	 0.0555839508	 0.103841
H	-3.2618871265	-2.3552165589	 0.0082851232	 0.072216
H	 2.1407096522	-2.4223831064	-0.0333381492	 0.12303
84.0046	200.2073	206.9804	222.1739	303.5976	370.2848	444.1449	448.4128	497.7443	568.4675	642.2468	716.7317	795.7693	850.4241	873.593	960.8833	1000.0479	1005.2039	1032.9628	1053.8844	1169.8246	1288.0526	1315.3084	1369.1673	1416.9361	1452.2686	1510.3665	1589.6039	1617.4995	1652.626	1831.5527	2865.3887	3159.4865	3177.8639	3607.7752	3735.6463
NC1=CC(C=O)=NC=N1	Nc1cc(C=O)ncn1	
InChI=1S/C5H5N3O/c6-5-1-4(2-9)7-3-8-5/h1-3H,(H2,6,7,8)	InChI=1S/C5H5N3O/c6-5-1-4(2-9)7-3-8-5/h1-3H,(H2,6,7,8)
