20
gdb 101138	2.24906	1.47523	1.17565	3.3444	74.14	-0.2407	0.0498	0.2905	1140.7801	0.171035	-440.227648	-440.218772	-440.217827	-440.261392	33.867	
O	 0.325156531	 0.276487067	 0.9508240564	-0.425362
C	-0.1590071318	 0.1947421823	-0.3674394791	-0.084551
C	-1.5512809413	-0.4554427197	-0.4351523962	-0.042346
O	-2.1298647626	-0.3461609236	-1.7296909363	-0.419011
C	-1.5128596919	-1.9106304133	 0.0012626774	 0.35432
C	-2.1771290949	-2.4447091841	 1.2045975929	-0.281551
N	-0.7010902724	-2.3798516347	 1.2189236219	-0.188036
C	-0.2419482001	-3.5566088139	 0.3992629465	-0.152678
C	-0.9802520154	-3.0540659069	-0.8685311059	-0.31809
H	 0.2404979824	-0.6131176576	 1.3347044272	 0.296653
H	-0.232612376	 1.2138451344	-0.7618595956	 0.112056
H	 0.5322861222	-0.360147361	-1.0325105636	 0.061719
H	-2.210980657	 0.1100966224	 0.2307490227	 0.101454
H	-1.4989020711	-0.6979800349	-2.3676118639	 0.284457
H	-2.6379713336	-1.7272288507	 1.8768320996	 0.131129
H	-2.6491106717	-3.4255448066	 1.1909613225	 0.113754
H	 0.8456028112	-3.5510960638	 0.3109356268	 0.120834
H	-0.5611765436	-4.5180407639	 0.8139324362	 0.112831
H	-1.7315834446	-3.7029712076	-1.3255961019	 0.114705
H	-0.285357149	-2.7242734037	-1.6447003779	 0.107714
48.3789	160.2605	176.5535	210.6679	235.8152	269.029	315.7549	376.5294	469.9545	506.1818	517.5836	647.8084	666.8078	745.6877	777.3611	801.6337	861.8963	932.1983	963.4141	988.7307	1003.4789	1045.823	1082.8774	1097.963	1103.5479	1107.209	1128.6986	1197.3285	1208.1868	1224.1208	1235.9375	1249.5733	1286.5386	1314.7129	1338.8461	1386.093	1388.1758	1422.6035	1471.8415	1484.516	1491.9441	1510.6386	1516.4217	2907.8303	3052.5253	3061.7602	3062.113	3072.9753	3098.9487	3103.8234	3124.5525	3196.6055	3626.2963	3799.0759
OCC(O)C12CN1CC2	OC[C@@H](O)[C@]12CN1CC2	
InChI=1S/C6H11NO2/c8-3-5(9)6-1-2-7(6)4-6/h5,8-9H,1-4H2	InChI=1S/C6H11NO2/c8-3-5(9)6-1-2-7(6)4-6/h5,8-9H,1-4H2/t5-,6+,7?/m1/s1
