22
gdb 103278	3.64073	1.01307	0.9763	2.5946	82.42	-0.2323	0.0847	0.317	1343.298	0.193557	-404.304956	-404.295471	-404.294527	-404.338867	36.326	
C	 0.1571377344	 1.4816015589	-0.1263798329	-0.413344
C	 0.1335875559	-0.0411441313	-0.0685599684	-0.006064
C	 1.2720455894	-0.7439132344	-0.8549139903	-0.180422
N	 1.9193157803	-1.2662641275	 0.3994610319	-0.189744
C	 0.7695844705	-0.6438559642	 1.1898650642	-0.08695
C	 0.9332700191	-2.1119385246	 1.1302082654	 0.293862
C	-0.0173885819	-3.0674971186	 0.4408201542	-0.477461
C	 1.6676957057	-2.7412731596	 2.308334281	-0.106269
O	 2.5970783252	-3.711780618	 1.8625648871	-0.423238
H	 1.1566184307	 1.8699609366	 0.0984175257	 0.123321
H	-0.1274245129	 1.8393121185	-1.1216033499	 0.117618
H	-0.5414585474	 1.9156152039	 0.5972405973	 0.117332
H	-0.8789391133	-0.4016960433	-0.2792751435	 0.075103
H	 0.9984312364	-1.5166799351	-1.5794962071	 0.103631
H	 1.951751731	-0.0376579291	-1.3386370253	 0.109076
H	 0.9522274821	-0.0797990567	 2.1021839221	 0.085601
H	-0.4859130794	-2.6577749454	-0.4546739872	 0.118211
H	 0.5206417607	-3.9798146692	 0.1662563258	 0.138502
H	-0.8194205917	-3.3501811718	 1.1314864182	 0.121683
H	 2.1645724439	-1.9532861876	 2.8936716563	 0.087399
H	 0.9636989284	-3.2602888563	 2.967541421	 0.102728
H	 3.1586228429	-3.2460251853	 1.2296456145	 0.289425
84.0305	128.0642	160.7754	191.2454	240.6879	255.6887	304.6026	323.7808	354.9869	421.5279	476.5605	498.1478	600.0834	662.1281	724.2232	836.0964	849.6264	888.3895	921.9252	935.5772	942.1088	982.8894	1016.8989	1043.0675	1076.8397	1092.3219	1108.1298	1121.9356	1136.1323	1185.6047	1213.6531	1226.028	1269.2562	1295.7477	1305.9202	1356.5495	1386.3577	1408.2412	1414.7361	1430.5261	1433.2342	1482.4156	1495.3391	1497.3433	1499.4743	1503.9275	1512.1562	2991.3974	3027.4306	3038.1717	3042.8296	3052.005	3073.2502	3095.013	3098.8559	3102.6093	3103.9298	3128.2691	3139.4424	3773.4289
CC1CN2C1C2(C)CO	C[C@H]1CN2[C@@H]1[C@]2(C)CO	
InChI=1S/C7H13NO/c1-5-3-8-6(5)7(8,2)4-9/h5-6,9H,3-4H2,1-2H3	InChI=1S/C7H13NO/c1-5-3-8-6(5)7(8,2)4-9/h5-6,9H,3-4H2,1-2H3/t5-,6-,7-,8?/m0/s1
