20
gdb 19075	3.69047	1.71014	1.42791	0.1464	78.29	-0.2014	0.0783	0.2797	972.0727	0.177004	-311.792314	-311.784444	-311.783499	-311.824137	30.937	
C	 0.0806623243	 1.5422529283	-0.0032031836	-0.41986
C	 0.0681948552	 0.025769709	-0.0083958038	-0.022303
C	 1.3983190635	-0.6393443228	-0.2559082738	-0.060733
C	 0.787036691	-0.6390691799	 1.13796536	-0.060737
C	 0.7894181509	-2.1924045568	 1.1425898305	-0.09971
C	 0.0916584763	-2.8968672322	 0.0025181809	-0.008354
C	-1.2953786244	-2.6841495616	-0.605727004	-0.432018
C	 1.4030722038	-2.1926789063	-0.2567844112	-0.099712
H	 1.0198311202	 1.9279193185	 0.4084446315	 0.113629
H	-0.0271118053	 1.9416242761	-1.0175050358	 0.116471
H	-0.738260384	 1.9419156556	 0.6047104054	 0.116471
H	-0.8428712106	-0.3959888552	-0.40788035	 0.077921
H	 2.2499223622	-0.069886093	-0.6078437857	 0.080627
H	 1.1050894154	-0.0693487933	 2.0026216187	 0.080627
H	 1.126706166	-2.7415925176	 2.0137973496	 0.082083
H	 0.3100992443	-3.9607006822	 0.0985037034	 0.088792
H	-1.2553048375	-2.1438030037	-1.5556128239	 0.128949
H	-1.7591534469	-3.6545393317	-0.8087342322	 0.10682
H	-1.9667556756	-2.143233531	 0.0669705546	 0.128954
H	 2.2723143412	-2.7421275005	-0.5986867107	 0.082083
90.798	197.2537	210.8086	247.9875	267.2659	277.8186	419.2878	474.7366	642.3323	672.6112	692.0507	752.5886	790.391	821.0989	869.5088	894.8197	934.0061	962.025	1003.4571	1006.8639	1020.27	1042.5689	1074.3788	1076.3352	1082.2568	1118.1404	1123.6896	1145.0656	1193.4619	1235.024	1257.189	1281.2079	1288.3326	1352.8237	1406.8925	1413.9734	1417.4801	1447.8155	1497.2667	1500.8089	1502.8373	1504.4887	3026.6292	3037.2504	3088.6792	3091.7151	3094.2875	3108.528	3110.4275	3165.1254	3175.6563	3178.5683	3189.5873	3219.2093
CC1C2C1C1C(C)C21	C[C@H]1[C@H]2[C@@H]1[C@H]1[C@@H](C)[C@@H]21	
InChI=1S/C8H12/c1-3-5-6(3)8-4(2)7(5)8/h3-8H,1-2H3	InChI=1S/C8H12/c1-3-5-6(3)8-4(2)7(5)8/h3-8H,1-2H3/t3-,4-,5-,6+,7-,8+
