18
gdb 18769	3.88409	2.36313	2.06351	0.1727	74.36	-0.2328	0.099	0.3318	752.973	0.155348	-310.600542	-310.594372	-310.593428	-310.630307	25.973	
C	-0.018408119	 1.4419409313	 0.0205271822	-0.51804
C	 0.0063437391	-0.0543794089	-0.0428779823	 0.374225
C	-0.9531846815	-0.965059578	 0.7317844952	-0.113343
C	 0.543632827	-1.0626539178	 0.9529184508	-0.161147
C	 0.557808322	-2.0929594435	-0.2147551907	-0.045093
C	-1.0176405858	-2.1857637389	-0.2155130699	-0.0527
C	-1.0534501566	-1.6339771217	-1.6621961135	-0.247911
C	 0.2852065397	-0.9585564534	-1.2736269636	-0.107436
H	 0.9448851426	 1.8742996511	-0.2743847189	 0.116408
H	-0.786525765	 1.858401984	-0.6427824198	 0.117384
H	-0.2377703277	 1.7881613081	 1.0367073687	 0.11748
H	-1.7154244608	-0.5710873895	 1.3922598701	 0.077674
H	 1.1410310102	-0.9359738179	 1.8466414251	 0.079785
H	 1.2302124213	-2.9339576133	-0.3645249399	 0.064316
H	-1.5753378368	-3.067808032	 0.097976677	 0.060353
H	-0.9049879236	-2.4282828933	-2.4014968367	 0.093032
H	-1.8952027967	-1.0008062997	-1.9620266005	 0.087755
H	 1.0170662317	-0.6229768766	-2.0087438733	 0.057257
207.7913	221.593	276.8463	411.2726	537.9561	590.4074	731.6646	743.3868	782.9474	805.0809	828.6411	854.3401	858.6798	886.8864	895.802	923.2226	951.6286	984.7471	995.9046	1013.1337	1048.7162	1077.3818	1084.3767	1116.646	1154.0245	1167.7718	1173.8917	1202.5518	1209.4679	1244.163	1264.4262	1274.8776	1300.6198	1408.4291	1431.1629	1484.2232	1486.262	1499.5571	3016.3707	3035.7915	3074.1992	3087.576	3091.5314	3110.3362	3115.7631	3145.2683	3185.2079	3197.3225
CC12C3C1C1C3CC21	C[C@]12[C@@H]3[C@H]1[C@H]1[C@@H]3C[C@@H]21	
InChI=1S/C8H10/c1-8-4-2-3-5(4)7(8)6(3)8/h3-7H,2H2,1H3	InChI=1S/C8H10/c1-8-4-2-3-5(4)7(8)6(3)8/h3-7H,2H2,1H3/t3-,4+,5-,6-,7+,8-/m0/s1
