15
gdb 72509	2.37012	1.94097	1.73783	1.7121	65.11	-0.2404	-0.0251	0.2153	864.5379	0.112855	-457.760985	-457.75385	-457.752906	-457.792162	28.161	
O	 0.0204484031	 1.3906198515	-0.1021935796	-0.497461
C	 0.0131529178	 0.0038746012	-0.0998330679	 0.248236
C	-1.3736684644	-0.6816302043	 0.0571611617	-0.107173
O	-1.061823663	-2.0099796805	 0.5189575978	-0.280326
C	 0.3875013704	-2.1204834841	 0.60119894	-0.058434
C	 0.9887446491	-1.9918033981	-0.7764868019	-0.086083
C	 0.7705075507	-0.7273476881	-1.1862316376	-0.137753
C	 0.717944973	-0.7020589978	 1.0912598493	 0.377036
O	 1.2996905888	-0.2042051616	 2.0079968351	-0.334972
H	 0.5406910392	 1.6694695993	 0.6651333651	 0.296635
H	-1.9673314712	-0.1506484771	 0.8108356935	 0.116343
H	-1.9345110703	-0.734983708	-0.8816636849	 0.111589
H	 0.6398746399	-2.9783307605	 1.2173038625	 0.105548
H	 1.4753904076	-2.7891080397	-1.3221023253	 0.122402
H	 1.0538855992	-0.2649218522	-2.1231628178	 0.124414
158.5939	225.6404	241.091	287.7034	366.5775	379.5477	451.0952	529.143	642.037	674.2852	678.3877	741.2791	758.4333	801.0358	885.6089	939.0962	948.6219	957.9489	983.3778	1042.7272	1069.0531	1115.049	1133.961	1191.1916	1206.5278	1265.5533	1283.4548	1338.2158	1366.6734	1400.8173	1523.158	1601.9215	1894.6967	3026.44	3077.4212	3173.848	3210.4437	3232.5369	3734.4362
OC12COC(C=C1)C2=O	O[C@@]12CO[C@@H](C=C1)C2=O	
InChI=1S/C6H6O3/c7-5-4-1-2-6(5,8)3-9-4/h1-2,4,8H,3H2	InChI=1S/C6H6O3/c7-5-4-1-2-6(5,8)3-9-4/h1-2,4,8H,3H2/t4-,6+/m0/s1
