19
gdb 73723	2.69929	1.89175	1.39634	2.5757	74.39	-0.2258	0.0792	0.305	975.637	0.160437	-422.982696	-422.975308	-422.974363	-423.014052	29.836	
C	 0.0252817594	 1.4535337383	 0.072979395	-0.468077
C	-0.0056522653	-0.060470239	 0.0179669433	 0.246273
C	 1.0853868321	-0.6623070583	-0.8573982684	-0.128245
O	 1.0890553475	-2.0737068077	-0.9648188135	-0.241097
C	-0.1767414911	-2.6798354068	-1.1156455788	-0.092728
C	-1.1420519037	-2.2054258198	-0.037775764	 0.073282
O	-0.4678146818	-2.1480723073	 1.2549681608	-0.29331
C	-0.5814389759	-0.7284204786	 1.2507241236	 0.065959
C	-1.3824843559	-0.6873297849	-0.0268929302	-0.200445
H	 0.970511576	 1.8155814769	 0.4929850738	 0.123892
H	-0.0861601659	 1.8876096208	-0.9274095311	 0.121949
H	-0.7877253085	 1.8437693772	 0.6938560525	 0.120235
H	 0.9881485896	-0.2058511865	-1.8601332125	 0.082129
H	 2.0772999989	-0.397989196	-0.4734572796	 0.110406
H	-0.6203742516	-2.4786847067	-2.1072012598	 0.086099
H	 0.0040898426	-3.7559492378	-1.0334556246	 0.115377
H	-2.0446118318	-2.8218112813	 0.0147127987	 0.084678
H	-0.7039946808	-0.2311729924	 2.2068215372	 0.102585
H	-2.295326424	-0.1718939402	-0.2964659123	 0.091037
175.9177	210.3975	235.3574	294.9455	306.2714	359.6023	417.5822	478.7648	554.4076	682.3739	738.5489	767.045	829.9649	875.5996	890.3356	901.267	931.3696	983.6621	1021.6724	1024.7421	1039.1104	1044.4696	1070.217	1103.6193	1139.0962	1153.9851	1184.3018	1234.0765	1251.6089	1276.1328	1295.6661	1326.2262	1340.0085	1385.3784	1411.654	1415.0163	1440.8657	1485.8663	1490.678	1495.9496	1507.1926	2929.3431	2953.4089	3023.7506	3055.9888	3062.563	3082.3856	3085.4833	3097.544	3170.6486	3191.4955
CC12COCC3OC1C23	C[C@@]12COC[C@H]3O[C@@H]1[C@@H]23	
InChI=1S/C7H10O2/c1-7-3-8-2-4-5(7)6(7)9-4/h4-6H,2-3H2,1H3	InChI=1S/C7H10O2/c1-7-3-8-2-4-5(7)6(7)9-4/h4-6H,2-3H2,1H3/t4-,5+,6-,7+/m1/s1
