15
gdb 55961	4.36061	0.98623	0.94823	2.4339	62.25	-0.2638	0.015	0.2787	1236.9701	0.113557	-491.141923	-491.133745	-491.132801	-491.175891	29.11	
N	-0.1229957116	 1.3217382035	 0.0550516671	-0.560893
C	 0.0926987083	-0.0161787999	 0.1579136502	 0.503801
O	 1.1021799422	-0.5434681972	 0.5532035807	-0.38668
O	-1.0479248842	-0.6844209323	-0.2165805234	-0.266015
C	-0.9672791279	-2.0958478195	-0.2327558117	 0.196115
C	-2.3752057438	-2.6916330885	-0.0396671386	-0.212457
N	-2.7739128614	-3.1735198686	-1.3715573425	-0.256895
C	-1.7441283991	-3.0388328724	-2.0943779171	 0.116246
O	-0.6042316764	-2.5235260193	-1.5540734747	-0.218757
H	 0.676290367	 1.9218067587	 0.1590000731	 0.274818
H	-0.9208938344	 1.6577568616	-0.4557388425	 0.270854
H	-0.1876481513	-2.4185406669	 0.4539769115	 0.133092
H	-2.3711285737	-3.5265121426	 0.6682237689	 0.128806
H	-3.0708349279	-1.9337798389	 0.3289038867	 0.132565
H	-1.6603660758	-3.3108602977	-3.1401192477	 0.1454
48.8395	77.7827	109.4185	221.2038	284.052	344.788	418.0589	470.1819	526.7976	578.9595	655.2606	776.3558	783.6828	851.3101	891.4347	949.2238	960.3609	985.605	993.4658	1061.7978	1077.8117	1114.8037	1137.6226	1219.1977	1301.6997	1321.3427	1335.3397	1364.9956	1414.5561	1480.78	1610.3946	1709.8152	1851.7706	3058.2108	3107.2265	3152.7741	3223.884	3621.2638	3753.8099
NC(=O)OC1CN=CO1	NC(=O)O[C@H]1CN=CO1	
InChI=1S/C4H6N2O3/c5-4(7)9-3-1-6-2-8-3/h2-3H,1H2,(H2,5,7)	InChI=1S/C4H6N2O3/c5-4(7)9-3-1-6-2-8-3/h2-3H,1H2,(H2,5,7)/t3-/m0/s1
