15
gdb 36547	3.87762	1.01705	0.90065	3.624	67.46	-0.2804	-0.0073	0.2732	1260.1583	0.113278	-453.956546	-453.948361	-453.947417	-453.990802	28.311	
N	 0.2691455114	-0.8887276789	-0.6293621762	-0.312066
C	 0.2296158006	 0.1712228329	-0.1713124743	 0.273839
C	 0.1933650611	 1.518796361	 0.4135238322	-0.295354
N	 1.4833813238	 2.2043998848	 0.3171470054	-0.326958
C	 1.8099158142	 2.6604468595	-0.8124618604	 0.430799
C	 3.0975909791	 3.3787977496	-1.1526830534	-0.190692
O	 2.8158676718	 3.9727792049	-2.4125082153	-0.233224
C	 1.8510469435	 3.1571172953	-3.0127794399	 0.020306
O	 1.0683175777	 2.5965637032	-1.9483867258	-0.235742
H	-0.6126923371	 2.0787784536	-0.0793900039	 0.156728
H	-0.0674909744	 1.4239462221	 1.4716449979	 0.156996
H	 3.3480010623	 4.1567652609	-0.4306486601	 0.156269
H	 3.9293563395	 2.6608454314	-1.2129305557	 0.137591
H	 1.2043994029	 3.7621417258	-3.651850132	 0.140939
H	 2.2987767736	 2.326705314	-3.5798668785	 0.12057
31.8282	92.6057	142.8084	209.7118	219.2975	288.9316	372.1678	432.9669	578.467	638.0178	695.3179	752.1646	856.6874	923.2225	975.6469	999.8031	1018.0693	1032.6806	1074.4448	1114.47	1152.6224	1202.9775	1238.3528	1242.4641	1271.2881	1345.7648	1359.452	1437.7209	1475.8063	1496.9704	1542.3072	1800.288	2360.372	2993.0982	3003.1575	3023.1896	3085.7312	3113.2074	3129.4252
N#CCN=C1COCO1	N#CCN=C1COCO1	
InChI=1S/C5H6N2O2/c6-1-2-7-5-3-8-4-9-5/h2-4H2	InChI=1S/C5H6N2O2/c6-1-2-7-5-3-8-4-9-5/h2-4H2
