16
gdb 83222	2.58532	1.64745	1.33245	4.948	67.57	-0.2548	0.0261	0.2809	979.6185	0.125313	-437.86951	-437.861792	-437.860848	-437.902104	29.021	
O	 0.238982731	 1.3484966431	 0.2201027518	-0.411381
C	 0.0473562863	-0.0077010551	 0.0254139577	 0.111223
C	-0.4619722417	-0.8433264066	 1.1644016047	 0.00967
O	-0.9460747288	-0.0408272431	 2.2188588856	-0.26593
C	-2.3294186383	 0.2355332697	 1.9923241272	-0.094385
C	-2.5510297674	 0.1845416488	 0.4489160653	-0.189288
C	-2.7148843265	 1.5085408856	-0.1607586982	 0.28567
N	-2.92316625	 2.5442684675	-0.6288079034	-0.330658
C	-1.3470942242	-0.6271188413	-0.0428666323	-0.142951
H	 0.084826436	 1.5178485434	 1.1605278446	 0.298891
H	 0.7806577023	-0.4440757937	-0.6469069875	 0.114066
H	-0.0433049484	-1.7974646847	 1.4670793643	 0.108979
H	-2.9477330165	-0.5326139077	 2.4745569574	 0.116657
H	-2.5594581242	 1.2080120794	 2.431726595	 0.14054
H	-3.4680719992	-0.3722942094	 0.2326355512	 0.137625
H	-1.5267512604	-1.4141450558	-0.7644847134	 0.111273
68.0418	124.3147	188.3813	249.1648	275.617	442.7064	457.4704	501.0281	586.1459	644.9201	704.3793	744.8244	790.5361	804.1959	823.6281	921.6182	984.3281	1002.685	1034.4961	1062.2317	1071.2662	1094.8488	1124.0277	1135.7213	1204.7653	1239.1338	1250.0206	1297.3625	1324.2708	1346.1853	1355.7531	1394.4998	1438.3025	1513.8297	2358.9516	3020.6234	3065.4075	3119.0985	3151.3686	3163.1407	3190.6968	3736.0925
OC1C2OCC(C#N)C12	O[C@H]1[C@H]2OC[C@@H](C#N)[C@@H]12	
InChI=1S/C6H7NO2/c7-1-3-2-9-6-4(3)5(6)8/h3-6,8H,2H2	InChI=1S/C6H7NO2/c7-1-3-2-9-6-4(3)5(6)8/h3-6,8H,2H2/t3-,4+,5-,6+/m1/s1
