17
gdb 67051	2.1726	2.0332	1.65264	2.5918	66.72	-0.2311	0.0532	0.2843	906.0248	0.135729	-458.917321	-458.909618	-458.908674	-458.948937	30.67	
O	 0.1270526985	 1.398891269	 0.1067678567	-0.459232
C	 0.0594616735	 0.0320884925	 0.0247625527	 0.321764
C	-1.0612320156	-1.0220707354	 0.0666016027	-0.191375
C	-0.4607998679	-1.7469887467	-1.139385635	-0.28526
C	 0.8296871587	-0.8758704099	-0.9790529108	 0.275898
O	 1.3297708295	-0.195198947	-2.0927862596	-0.498005
C	 1.8421586402	-1.5878939309	-0.0703635888	-0.132244
O	 1.1001061886	-1.8442364103	 1.127249102	-0.269055
C	 0.0264577528	-0.9168890034	 1.1462890629	 0.052285
H	 0.0060083939	 1.7495287355	-0.7842666768	 0.295309
H	-2.1123609148	-0.9360484317	 0.3176028963	 0.090638
H	-0.3336540682	-2.8323540991	-1.0655473198	 0.097983
H	-0.9796172881	-1.4917065139	-2.067227496	 0.102607
H	 1.6185544024	-0.8391099593	-2.7481500283	 0.285794
H	 2.1965276956	-2.5464030463	-0.4660756802	 0.098344
H	 2.7052225122	-0.933982456	 0.1263930146	 0.10197
H	-0.2754723412	-0.6128148271	 2.1408067374	 0.112579
168.5658	201.362	208.7438	273.9983	323.9744	350.7712	392.9595	467.8514	495.7843	603.7228	612.8573	671.7513	733.977	824.2889	855.332	882.1338	929.4378	948.8548	986.324	1005.9038	1047.4058	1062.2771	1081.328	1114.1453	1139.4618	1176.4823	1214.9958	1236.9938	1253.9873	1272.656	1285.2061	1327.3399	1344.5496	1398.9253	1481.8859	1511.1167	1519.0822	2991.9638	3040.4909	3064.59	3103.1511	3176.1251	3202.8666	3781.9455	3810.3764
OC12C3CC1(O)COC23	O[C@@]12[C@H]3C[C@]1(O)CO[C@@H]23	
InChI=1S/C6H8O3/c7-5-1-3-4(9-2-5)6(3,5)8/h3-4,7-8H,1-2H2	InChI=1S/C6H8O3/c7-5-1-3-4(9-2-5)6(3,5)8/h3-4,7-8H,1-2H2/t3-,4+,5-,6+/m0/s1
