16
gdb 34175	4.50841	1.45835	1.30637	1.3329	78.22	-0.2266	0.0374	0.2639	963.9474	0.125274	-363.519725	-363.51309	-363.512145	-363.550455	27.579	
C	 0.100889205	-1.1200596162	-0.0151021706	-0.367823
C	 0.0350553079	 0.0815020553	-0.0235241505	 0.117548
C	-0.0538149148	 1.5049710731	-0.0335582167	 0.211744
C	-1.1476833939	 2.2547787935	-0.7798757628	-0.31178
C	-0.7550738715	 3.6595939139	-0.3963971014	-0.061153
C	 0.7150710021	 3.780923232	-0.2246836882	-0.057526
C	 1.2298476843	 2.3576429739	 0.0249614488	-0.15147
C	 0.3140354876	 2.3110434808	 1.2071125257	-0.061063
N	-0.1751828163	 3.7216725767	 0.9846690246	-0.16584
H	 0.1596924633	-2.1800753756	-0.0082009777	 0.182465
H	-1.1045877124	 2.0929420656	-1.8613889308	 0.11905
H	-2.1441747922	 1.9811145775	-0.4200447915	 0.121262
H	-1.3579071502	 4.5182109846	-0.6694885371	 0.102023
H	 1.3131841657	 4.654888456	-0.4530612365	 0.102393
H	 2.2201931249	 1.9559410582	-0.1300904252	 0.107961
H	 0.4095271005	 1.9034497306	 2.20376117	 0.112209
148.6055	150.6679	375.3845	485.6255	490.5938	509.7547	553.0549	580.535	658.8832	701.8663	739.8734	751.3998	792.6778	804.2563	873.8776	881.3915	921.3689	951.1432	970.0371	1003.8993	1012.6032	1033.7407	1055.5211	1075.0176	1144.7205	1160.7491	1180.2125	1218.3917	1234.265	1285.4576	1311.0586	1350.3518	1382.5063	1488.598	2236.5561	3055.6785	3102.238	3179.1825	3189.7629	3213.1441	3230.5707	3503.5787
C#CC12CC3C4C1C2N34	C#C[C@]12C[C@@H]3[C@@H]4[C@H]1[C@H]2N34	
InChI=1S/C8H7N/c1-2-8-3-4-6-5(8)7(8)9(4)6/h1,4-7H,3H2	InChI=1S/C8H7N/c1-2-8-3-4-6-5(8)7(8)9(4)6/h1,4-7H,3H2/t4-,5+,6-,7-,8+,9?/m1/s1
