21
gdb 115416	3.21217	0.93956	0.88929	1.8748	84.	-0.2503	0.0418	0.2922	1434.4261	0.181798	-387.065346	-387.055748	-387.054804	-387.100664	35.353	
C	 0.3185432899	 1.5759477124	 0.1865067481	-0.386824
C	 0.123733176	 0.0613889099	 0.0544067527	-0.199111
C	 0.6350809246	-0.7311824381	 1.2593185006	 0.017784
C	-0.1175548397	-0.4569927639	 2.5765353643	-0.070511
O	-0.1161180025	-1.671156396	 3.3349927892	-0.261067
C	 0.5548387721	-2.7029291782	 2.6072248474	-0.070626
C	 0.4890784687	-2.2563123293	 1.1356791885	-0.25603
C	 1.9339315558	-2.8837603752	 3.0795527051	 0.356495
C	 3.0648806887	-3.0317570141	 3.4595905448	-0.490507
H	 1.3759107923	 1.8269059265	 0.3256333506	 0.11755
H	-0.0324124765	 2.0981680811	-0.7087219553	 0.115188
H	-0.2328861969	 1.9813955739	 1.0415256422	 0.121608
H	-0.9413090974	-0.1629304991	-0.094521559	 0.096162
H	 0.6394986861	-0.2915616701	-0.8473916478	 0.098632
H	 1.6975301413	-0.5022846329	 1.4105309534	 0.087636
H	 0.3455026858	 0.338865752	 3.1702862366	 0.106119
H	-1.1620476452	-0.1719783048	 2.3824978782	 0.094322
H	-0.0014870418	-3.6315035205	 2.7785968953	 0.107431
H	-0.4939445625	-2.5147752811	 0.7259689437	 0.1025
H	 1.2587141684	-2.7199625137	 0.5159923547	 0.11503
H	 4.0600745729	-3.1656152287	 3.8054328768	 0.198218
40.0688	70.6595	113.7669	165.5406	215.9213	235.2915	272.5298	371.3861	412.6852	471.6842	540.9267	601.3659	628.2703	660.0845	755.6605	783.8696	835.9013	871.7424	923.6234	939.8444	957.372	980.827	1016.9237	1043.0869	1065.9702	1113.0705	1145.7709	1163.1215	1196.0377	1246.385	1259.809	1299.5277	1302.7933	1339.3306	1360.2308	1365.8281	1381.3168	1406.3894	1415.7838	1483.2106	1488.3914	1502.1394	1506.7011	1525.5426	2230.2887	2995.3916	3012.8225	3025.4078	3032.5785	3038.4918	3048.6219	3052.1177	3060.2782	3099.5163	3104.7869	3120.6161	3502.9107
CCC1COC(C1)C#C	CC[C@H]1CO[C@@H](C1)C#C	
InChI=1S/C8H12O/c1-3-7-5-8(4-2)9-6-7/h2,7-8H,3,5-6H2,1H3	InChI=1S/C8H12O/c1-3-7-5-8(4-2)9-6-7/h2,7-8H,3,5-6H2,1H3/t7-,8-/m1/s1
