18
gdb 52100	4.33488	0.87837	0.84493	3.5334	73.81	-0.2397	0.0022	0.242	1383.6369	0.147894	-439.019273	-439.011108	-439.010164	-439.053549	29.755	
O	 0.2784655346	 0.0982122424	 0.2955634922	-0.271015
C	 0.3092687375	 1.2897485984	 0.3479779284	 0.177155
O	 0.899292813	 2.0466596048	-0.5971373393	-0.173422
C	 0.9215600127	 3.4693513527	-0.4123035819	-0.240982
C	 2.3316283263	 3.9326916089	-0.1472129702	 0.30418
C	 3.5985826682	 3.7530535374	-1.0149986683	-0.197348
N	 4.1445265597	 4.5400174009	 0.1918959995	-0.13739
C	 2.8563212848	 5.3729261892	 0.0539736093	-0.21797
C	 3.2742920563	 3.5865142589	 1.0311700084	-0.209158
H	-0.1410649845	 1.8940228087	 1.1606826678	 0.077438
H	 0.5295290509	 3.9150611534	-1.3323839979	 0.127198
H	 0.2564966075	 3.7547978893	 0.4143478735	 0.112981
H	 4.0173017373	 2.7487261648	-1.109237964	 0.116507
H	 3.659828667	 4.3043116078	-1.9573387075	 0.103713
H	 2.8617013406	 6.0450325357	-0.8085555281	 0.105832
H	 2.5782125159	 5.9009804195	 0.9704580284	 0.104231
H	 3.0287936228	 3.9804985354	 2.021603101	 0.102173
H	 3.6729941293	 2.5709542019	 1.0902583287	 0.115875
41.6375	57.2224	136.5285	202.0103	274.4949	360.9032	382.8414	582.0279	583.1575	666.9111	673.59	773.2812	801.6492	898.0137	903.0231	939.4506	979.8854	1002.2854	1023.8731	1031.6522	1045.7477	1055.8023	1134.1667	1157.9376	1166.3371	1170.6591	1199.8161	1203.7137	1215.0801	1273.8329	1314.902	1332.3073	1395.1546	1430.2215	1492.4619	1511.1138	1512.0005	1565.8773	1869.07	2938.9851	3013.9712	3047.5299	3051.7514	3060.5761	3078.0807	3115.4335	3122.6783	3128.455
O=COCC12CN(C1)C2	O=COC[C@@]12CN(C1)C2	
InChI=1S/C6H9NO2/c8-5-9-4-6-1-7(2-6)3-6/h5H,1-4H2	InChI=1S/C6H9NO2/c8-5-9-4-6-1-7(2-6)3-6/h5H,1-4H2
