14
gdb 28090	4.79145	0.94404	0.78865	4.299	68.24	-0.2017	0.0214	0.2231	1341.448	0.10183	-470.038332	-470.030183	-470.029238	-470.072612	29.265	
O	 0.113497522	 1.2903971883	 0.1224790519	-0.420034
C	 0.0709552642	-0.0449920548	 0.0075689182	 0.473032
N	 0.0767864149	-0.7345129514	-1.108078153	-0.450026
C	 0.0210747311	-2.0443489548	-0.6892560644	 0.394436
O	 0.0073654405	-3.1052871847	-1.5402873265	-0.225238
C	 0.0490934101	-2.884719754	-2.88113646	 0.102756
N	 0.0355132822	-3.8831466026	-3.6520637491	-0.439693
C	-0.0182009212	-2.1482854921	 0.66887458	-0.232311
N	 0.0155481859	-0.8196464863	 1.1092087035	-0.305411
H	 0.149226337	 1.6445500565	-0.7747560412	 0.317698
H	 0.0911323616	-1.826502961	-3.1422660833	 0.133551
H	 0.0709193866	-3.5638018481	-4.6184079482	 0.229957
H	-0.0644391125	-2.9869369396	 1.338566968	 0.142861
H	 0.0016861077	-0.4940215355	 2.060102484	 0.27842
19.8504	100.4316	160.9609	245.8909	330.9112	387.9863	391.1238	454.4845	473.2523	533.9841	628.9634	694.1973	702.6378	733.3622	823.0883	829.7837	1000.1946	1037.6008	1059.4219	1085.7917	1101.0166	1195.7157	1261.8171	1304.0708	1326.2557	1389.1772	1408.1307	1570.6243	1627.8398	1639.0297	1741.512	3127.7518	3305.1156	3513.776	3682.6288	3809.9513
OC1=NC(OC=N)=CN1	Oc1nc(O[CH][NH])c[nH]1	
InChI=1S/C4H5N3O2/c5-2-9-3-1-6-4(8)7-3/h1-2,5H,(H2,6,7,8)	InChI=1S/C4H5N3O2/c5-2-9-3-1-6-4(8)7-3/h1-2,5H,(H2,6,7,8)
