18
gdb 75007	4.33557	1.28087	1.04869	1.7419	78.84	-0.2287	0.0032	0.232	1152.516	0.15071	-398.166257	-398.158733	-398.157789	-398.198106	29.404	
C	-0.1350177977	 1.4840073431	 0.0730685945	-0.489987
C	-0.0186758085	 0.0010215806	-0.0444306108	 0.350592
N	-0.1345117787	-0.6640370076	-1.1364970449	-0.302237
C	-0.0133055605	-2.0782797682	-0.7509305448	-0.035973
C	 1.0017983662	-3.0611140882	-1.353745966	-0.246266
C	 1.3602197681	-3.9018876266	-0.0827535539	-0.16321
N	 1.2602668556	-2.9733105308	 1.0778239557	-0.31583
C	 0.5181156554	-2.0335075085	 0.6590245274	 0.386268
N	 0.2180276211	-0.7656218566	 1.1274529127	-0.418296
H	 0.7761994454	 1.9178550451	 0.5008975161	 0.135729
H	-0.303470041	 1.9106535177	-0.9154855752	 0.159995
H	-0.9678649634	 1.7557146483	 0.73071938	 0.144964
H	-1.0201590691	-2.5235969866	-0.7772538905	 0.104285
H	 0.6110564506	-3.6632583598	-2.1767581802	 0.10283
H	 1.8852959766	-2.5185255736	-1.7053939678	 0.113754
H	 0.6601321938	-4.7397613355	 0.0426224653	 0.105816
H	 2.3669444349	-4.3269575431	-0.1222319287	 0.109014
H	 0.6782143212	-0.3726407298	 1.9350666012	 0.258553
130.6988	146.7103	202.1771	285.3775	303.6781	393.5155	464.6941	551.4036	589.6846	626.789	665.6639	721.5748	757.0576	847.2727	866.4556	908.8396	930.731	988.8126	991.2932	1021.6138	1060.9122	1087.3791	1120.7236	1166.7107	1189.2361	1214.2286	1269.1036	1288.3059	1316.054	1326.7815	1334.8839	1389.0406	1417.076	1478.0338	1479.797	1487.9847	1504.426	1685.3174	1770.0146	2985.3382	3012.9433	3037.8103	3058.3562	3085.7272	3092.785	3119.0478	3160.303	3621.5772
CC1=NC2CCN=C2N1	C[C]1[N][C@H]2CC[N][C]2N1	
InChI=1S/C6H9N3/c1-4-8-5-2-3-7-6(5)9-4/h5H,2-3H2,1H3,(H,7,8,9)	InChI=1S/C6H9N3/c1-4-8-5-2-3-7-6(5)9-4/h5H,2-3H2,1H3,(H,7,8,9)/t5-/m0/s1
