16
gdb 10692	2.38757	1.96535	1.51781	4.0336	65.1	-0.2777	0.0149	0.2926	914.0241	0.129549	-379.904114	-379.895642	-379.894698	-379.937079	30.687	
C	 0.2681022115	 1.1123613813	-0.5579037703	-0.421437
C	-0.0677695838	 0.0401358185	 0.4775171591	 0.048622
O	 0.0360381919	 0.5230350775	 1.8057104969	-0.425038
C	-1.4372856359	-0.6061572059	 0.2426762323	 0.158475
C	-1.5278626304	-1.8673460508	-0.5542073141	-0.266701
N	-1.7458963007	-1.8926210944	 0.8910393119	-0.328331
C	-2.5378390205	 0.3381100188	 0.229417953	 0.268759
N	-3.3679583155	 1.143095025	 0.2185258456	-0.342866
H	 1.2534889959	 1.5325219774	-0.3426356763	 0.134048
H	 0.2758241184	 0.6963152175	-1.5700559264	 0.1255
H	-0.4682551691	 1.9228292159	-0.5329263294	 0.14192
H	 0.671433515	-0.7687646905	 0.4172512623	 0.089875
H	-0.5525629478	 1.2820806511	 1.8979147432	 0.295451
H	-2.4101648765	-2.0610626209	-1.1557079031	 0.144581
H	-0.5967784499	-2.2513354051	-0.9642966615	 0.126902
H	-0.9191698525	-2.2142968554	 1.3902582768	 0.250239
59.638	141.0149	182.613	233.791	250.1679	283.6775	322.3796	361.9638	459.072	491.5278	579.1	612.5289	689.0121	864.1741	872.9547	919.2974	938.0219	980.3791	1023.2822	1076.6743	1104.067	1127.4051	1151.0822	1237.9092	1288.9683	1300.5495	1320.9528	1390.4727	1409.8897	1424.817	1490.9803	1495.6275	1508.4152	2352.7795	3033.5174	3040.5681	3111.2165	3112.3038	3128.4596	3205.7989	3499.2956	3789.2748
CC(O)C1(CN1)C#N	C[C@@H](O)[C@]1(CN1)C#N	
InChI=1S/C5H8N2O/c1-4(8)5(2-6)3-7-5/h4,7-8H,3H2,1H3	InChI=1S/C5H8N2O/c1-4(8)5(2-6)3-7-5/h4,7-8H,3H2,1H3/t4-,5-/m1/s1
