20
gdb 18616	2.91091	1.96384	1.61297	0.2217	80.27	-0.2154	0.0306	0.246	928.8955	0.177788	-311.879618	-311.871729	-311.870785	-311.911321	30.781	
C	-0.0992712791	 1.5538359656	 0.0430379288	-0.415418
C	 0.0648042261	 0.0529041847	-0.0323259085	 0.003433
C	 0.7182168464	-0.6718206556	-1.1848498596	-0.066365
C	 1.648218432	 0.0991441531	-2.1257876596	-0.270246
C	 2.7799003181	 0.5457133034	-1.2259387352	-0.180319
C	 2.6470134239	 0.1009117997	 0.0296362686	 0.34579
C	 3.57730539	 0.3342335627	 1.178974339	-0.498483
C	 1.3827595953	-0.6834714485	 0.1862799951	-0.15573
H	 0.8023268938	 2.0803273284	-0.2788954123	 0.124058
H	-0.9280433995	 1.8857529297	-0.5929001856	 0.11236
H	-0.3228366031	 1.8703626399	 1.067989163	 0.110992
H	-0.7870627959	-0.4892640922	 0.3737131554	 0.079766
H	 0.2220860076	-1.5561017523	-1.5685639071	 0.078273
H	 2.0091149805	-0.5440386703	-2.9397506053	 0.102808
H	 1.1459441067	 0.9476658269	-2.611124151	 0.104231
H	 3.5872753959	 1.181517867	-1.5749854375	 0.080774
H	 4.4534655925	 0.9152874342	 0.8784155613	 0.12045
H	 3.07508481	 0.867964046	 1.9957039026	 0.126283
H	 3.9293554096	-0.6159301033	 1.6010258695	 0.123173
H	 1.3798551394	-1.5574509993	 0.8310918785	 0.074171
135.3331	176.8914	186.5714	223.1236	269.1723	304.8304	387.4612	490.8014	576.7865	619.4175	715.1615	746.66	789.3081	814.8281	850.5904	933.9636	937.6733	959.7408	988.2615	1017.3192	1033.9182	1057.9993	1076.0388	1089.3705	1118.8963	1135.4742	1182.8455	1189.9773	1225.6628	1273.946	1314.5426	1358.4002	1376.8934	1410.8247	1413.6384	1428.2151	1478.4106	1480.3556	1489.4792	1499.3464	1502.6912	1705.7162	3007.3372	3016.394	3028.7659	3029.529	3061.8069	3083.2735	3108.96	3111.2827	3126.8953	3146.5613	3169.8583	3182.5169
CC1C2CC=C(C)C12	C[C@H]1[C@H]2CC=C(C)[C@@H]12	
InChI=1S/C8H12/c1-5-3-4-7-6(2)8(5)7/h3,6-8H,4H2,1-2H3	InChI=1S/C8H12/c1-5-3-4-7-6(2)8(5)7/h3,6-8H,4H2,1-2H3/t6-,7+,8-/m0/s1
