16
gdb 5234	7.33111	1.18387	1.03241	2.2496	67.24	-0.1992	0.0529	0.252	1125.8902	0.131814	-379.961042	-379.953334	-379.95239	-379.993683	27.808	
C	-0.1105634545	 1.5026170282	 0.0116301522	-0.392146
C	-0.003863918	-0.0096973391	 0.0036118937	-0.037425
O	-1.3410469998	-0.5384541354	 0.0110780701	-0.281271
C	-1.4224107733	-1.873752677	 0.0061121921	 0.490849
N	-0.4479942223	-2.7456361865	-0.0050541421	-0.362108
C	-1.0845255513	-3.9781424327	-0.0054245235	-0.09294
C	-2.4390785645	-3.8293782169	 0.0057057413	-0.110173
N	-2.6522096778	-2.4553209533	 0.0131616119	-0.334606
H	 0.8905283498	 1.9438109203	 0.0061494447	 0.123005
H	-0.6502632974	 1.8608008771	-0.869629643	 0.127628
H	-0.6368397663	 1.8523517577	 0.9043272037	 0.127623
H	 0.5200421493	-0.3797082647	-0.8843324564	 0.122495
H	 0.5332374592	-0.3881756807	 0.8800197646	 0.122521
H	-0.5167747137	-4.895618207	-0.0137016496	 0.105269
H	-3.2559685667	-4.5305448954	 0.0090598413	 0.125359
H	-3.5320273627	-1.9692709144	 0.0219157489	 0.265921
56.7699	92.6075	162.5449	250.6564	308.4821	354.6438	466.6042	472.5467	634.261	681.6605	741.8273	750.76	809.0408	838.7582	903.9431	935.307	1012.7088	1077.7544	1082.028	1129.9105	1137.9715	1184.98	1197.3934	1288.9521	1289.8069	1373.7381	1394.5707	1418.3041	1485.2285	1497.6862	1503.2101	1522.5317	1551.7628	1618.9247	3042.5278	3045.9825	3079.6811	3121.2025	3124.3441	3252.2018	3286.825	3678.8092
CCOC1=NC=CN1	CCOc1ncc[nH]1	
InChI=1S/C5H8N2O/c1-2-8-5-6-3-4-7-5/h3-4H,2H2,1H3,(H,6,7)	InChI=1S/C5H8N2O/c1-2-8-5-6-3-4-7-5/h3-4H,2H2,1H3,(H,6,7)
