20
gdb 106530	3.10312	1.4219	1.21211	1.5856	73.89	-0.2144	0.0715	0.2859	1086.4382	0.172976	-440.238519	-440.230626	-440.229682	-440.270738	31.491	
O	 0.019152722	 1.4262281077	-0.0859075356	-0.422585
C	 0.0333029244	 0.0256334301	 0.1142328051	-0.138827
C	-1.3539594716	-0.5596967193	-0.0317489695	 0.38571
C	-2.0952626245	-0.6129444109	-1.3898314967	-0.234558
N	-2.8350845915	-1.8302863227	-0.8800287278	-0.125156
C	-1.6413654093	-2.0739512374	 0.0161972225	-0.222665
C	-3.9323503412	-1.3576935676	-0.0129859161	-0.1811
C	-3.5725300488	-0.0448416962	 0.7337314405	-0.090569
O	-2.165867499	 0.0861638414	 0.9585323979	-0.320945
H	-0.6878520854	 1.7562179837	 0.4822420368	 0.287744
H	 0.6984373142	-0.404256482	-0.6417939103	 0.104963
H	 0.4331643965	-0.2400937694	 1.1067340434	 0.091444
H	-2.7125741714	 0.2327725541	-1.6990175812	 0.111702
H	-1.435126394	-0.8982977053	-2.2129672835	 0.111794
H	-0.9013525594	-2.6864402313	-0.5085430714	 0.1046
H	-1.8667309004	-2.5072398478	 0.994014135	 0.104018
H	-4.826241651	-1.1878032557	-0.6239406516	 0.10756
H	-4.1666365562	-2.1634042371	 0.690109836	 0.112
H	-3.9256363301	 0.8203328315	 0.1565784641	 0.102604
H	-4.0538116632	 0.0025071341	 1.7150639624	 0.112265
101.5462	152.3708	208.6227	278.2235	333.6731	418.1402	438.7483	467.9219	473.9344	503.9582	625.3558	698.4988	801.8117	821.5071	851.7694	904.3839	908.5801	913.8225	955.8522	980.0775	1027.5595	1067.2584	1079.9962	1091.1701	1129.6705	1159.2711	1163.4167	1228.1904	1248.6896	1251.6815	1265.4917	1277.2661	1288.7521	1342.8631	1363.9625	1377.0499	1398.1149	1444.7915	1481.1998	1495.1857	1497.2041	1506.3435	1529.633	2971.9553	3004.3427	3035.081	3043.902	3065.6633	3071.2131	3076.6469	3087.6552	3109.8532	3123.1491	3784.4484
OCC12CN(C1)CCO2	OC[C@@]12CN(C1)CCO2	
InChI=1S/C6H11NO2/c8-5-6-3-7(4-6)1-2-9-6/h8H,1-5H2	InChI=1S/C6H11NO2/c8-5-6-3-7(4-6)1-2-9-6/h8H,1-5H2
