17
gdb 67427	2.67891	1.54003	1.25688	4.8624	74.97	-0.2424	-0.0249	0.2175	1047.5542	0.134605	-421.772012	-421.764115	-421.763171	-421.804437	29.946	
C	-0.0625147629	 1.5559700838	-0.0936279747	-0.530993
C	 0.0140476716	 0.0664035189	-0.0155695767	 0.225057
C	 0.5757970838	-1.0124246704	-0.9085645718	-0.209618
C	 1.3338769742	-1.6672783527	 0.2434240213	-0.234678
C	 0.2803881963	-0.9765382971	 1.1478129365	 0.023092
O	-0.9504090968	-1.6888192484	 0.8440136482	-0.313382
C	-0.9209273631	-1.0539349171	-0.4190508114	 0.359845
C	-2.0476632111	-1.0609439166	-1.3505861019	 0.041777
O	-3.090794036	-1.6428766846	-1.1811879576	-0.265254
H	 0.9047889521	 2.010573377	 0.1484820413	 0.131851
H	-0.3343681002	 1.8797999305	-1.1032750314	 0.134244
H	-0.8080368564	 1.9550412441	 0.6017616809	 0.14034
H	 0.8262687575	-0.9574296208	-1.9607409946	 0.105094
H	 1.3802805798	-2.7578886956	 0.3026200437	 0.114369
H	 2.3268452366	-1.2263582994	 0.3620892598	 0.111658
H	 0.4223124839	-0.7855315136	 2.2091895984	 0.097213
H	-1.8501528494	-0.4578824881	-2.26784823	 0.069384
96.6201	164.3581	201.4208	223.1796	235.9449	312.1461	447.8022	472.5215	557.1828	615.3812	682.9407	728.2126	821.7052	830.8674	895.4478	917.2717	937.9346	948.6122	990.2241	1032.934	1051.9558	1084.6904	1105.6962	1123.6783	1149.826	1174.7625	1220.2983	1257.1372	1269.8337	1354.2848	1405.9679	1416.6947	1467.4051	1482.5264	1487.7414	1496.5002	1811.4025	2852.9248	3029.7337	3059.6696	3092.6159	3105.0221	3121.9017	3150.969	3198.7944
CC12C3CC1OC23C=O	C[C@@]12[C@H]3C[C@@H]1O[C@@]23C=O	
InChI=1S/C7H8O2/c1-6-4-2-5(6)9-7(4,6)3-8/h3-5H,2H2,1H3	InChI=1S/C7H8O2/c1-6-4-2-5(6)9-7(4,6)3-8/h3-5H,2H2,1H3/t4-,5+,6-,7-/m1/s1
