21
gdb 61615	3.26312	0.81912	0.71276	4.9302	83.41	-0.2565	0.0273	0.2837	1615.7839	0.182392	-383.266208	-383.256095	-383.255151	-383.301726	36.93	
C	 0.0840713249	 1.5482483678	-0.2239900902	-0.405602
C	 0.0140192625	 0.0532262143	 0.0027177614	-0.017597
C	 1.2522674826	-0.8053168574	-0.0622082043	-0.296328
C	 0.5312507959	-0.6149805349	 1.2584457006	-0.008617
C	 1.1482724919	 0.1583813546	 2.4053508446	-0.212586
C	 1.9857411841	-0.7557249817	 3.3412148289	-0.129777
N	 3.1459879115	-1.4214028153	 2.7424976255	-0.504243
C	 2.4308665357	 0.0173771864	 4.5119797643	 0.292974
N	 2.7660083958	 0.6605403483	 5.4112890771	-0.320131
H	 1.0224976904	 1.9765899743	 0.139148516	 0.117976
H	 0.0149239348	 1.7771458272	-1.2928495085	 0.121999
H	-0.7369196029	 2.0693156908	 0.2807671374	 0.122114
H	-0.8847162729	-0.4040480499	-0.4032536075	 0.089424
H	 1.2038876911	-1.7695385698	-0.5570844651	 0.113958
H	 2.2000598105	-0.2902339063	-0.1898125698	 0.108795
H	-0.0605194036	-1.466472354	 1.5905143022	 0.085819
H	 1.7948242214	 0.9626041099	 2.0383385243	 0.108229
H	 0.3617114721	 0.6362077689	 3.002925294	 0.119182
H	 1.3241836732	-1.5470989719	 3.7193558827	 0.131623
H	 2.8332099228	-1.9471548603	 1.9322242045	 0.246353
H	 3.8029185683	-0.7246922007	 2.4014860816	 0.236434
53.7269	93.0322	103.0135	175.8168	203.9846	225.9721	248.6242	293.5204	323.0199	384.1864	433.4391	481.3259	575.6734	584.3566	759.8332	820.2384	832.832	863.1926	880.3772	902.82	927.0068	965.3122	1009.0434	1056.6841	1079.1885	1110.0747	1122.802	1151.2239	1153.7237	1200.5071	1203.8633	1245.3894	1263.4981	1308.454	1350.4641	1393.6245	1412.8352	1422.7318	1432.3081	1476.792	1493.1763	1494.4786	1507.1305	1660.7901	2362.0065	3021.8881	3028.6873	3034.3077	3077.9197	3092.0622	3107.943	3115.8515	3122.2914	3140.5709	3206.2195	3492.7274	3578.4641
CC1CC1CC(N)C#N	C[C@H]1C[C@H]1C[C@@H](N)C#N	
InChI=1S/C7H12N2/c1-5-2-6(5)3-7(9)4-8/h5-7H,2-3,9H2,1H3	InChI=1S/C7H12N2/c1-5-2-6(5)3-7(9)4-8/h5-7H,2-3,9H2,1H3/t5-,6-,7+/m0/s1
