12
gdb 130858	7.53511	0.88385	0.79106	4.5704	74.67	-0.2775	-0.0915	0.186	1316.2763	0.07613	-435.449352	-435.441779	-435.440835	-435.481822	27.108	
O	-0.0018776239	-0.0435100196	-0.0006213435	-0.243014
C	 0.0023926517	 1.1613716541	 0.0087425615	 0.072901
C	 1.2151716107	 1.994037941	 0.0024203815	 0.341456
C	 1.3708870784	 3.3477854382	 0.0117098824	-0.403002
C	 2.7844263729	 3.5251953966	-0.0024419784	 0.240602
N	 3.4072845259	 2.3539487842	-0.0179958902	-0.173695
O	 2.4240617289	 1.3978448258	-0.0151693328	-0.178745
C	 3.5087647557	 4.7428494961	-0.0004956856	 0.252915
C	 4.0908580852	 5.7944018259	 0.0016860458	-0.367671
H	-0.9314496068	 1.7614388546	 0.023719595	 0.098402
H	 0.6090104141	 4.10888553	 0.0260600412	 0.150806
H	 4.6177029471	 6.7170020032	 0.003425953	 0.209046
82.9643	125.7022	184.5658	214.3715	280.9866	429.7668	467.2759	540.8611	629.2173	638.6395	656.3337	681.4417	718.0334	769.5321	853.2315	982.5542	1015.454	1020.9339	1042.058	1138.9123	1296.8253	1400.9622	1412.1617	1466.8931	1607.9342	1807.4709	2249.8338	2915.7057	3285.6302	3501.121
O=CC1=CC(=NO1)C#C	O=Cc1cc(no1)C#C	
InChI=1S/C6H3NO2/c1-2-5-3-6(4-8)9-7-5/h1,3-4H	InChI=1S/C6H3NO2/c1-2-5-3-6(4-8)9-7-5/h1,3-4H
