22
gdb 117770	2.30464	1.00867	0.87348	3.4145	83.4	-0.2788	0.0243	0.3032	1490.6301	0.191063	-404.362156	-404.350976	-404.350032	-404.398528	39.693	
C	-0.1286950902	 1.5819545926	-0.0708382703	-0.385329
C	-0.0102476842	 0.058104734	 0.0313041746	-0.190203
C	 0.7451857239	-0.5359083287	-1.163257069	-0.183979
C	 0.7932916658	-2.080951706	-1.1881342162	 0.195081
C	 1.4989620757	-2.6726518471	 0.047130367	-0.430982
O	-0.5582797427	-2.5019346006	-1.3004122243	-0.262263
C	-0.7926262246	-3.8946623598	-1.4246601856	-0.257974
C	 1.5445781162	-2.493728307	-2.4056257063	 0.265602
N	 2.1233381309	-2.8203004591	-3.3513563489	-0.347297
H	 0.8579207044	 2.0573240335	-0.1045457189	 0.11595
H	-0.6691678487	 1.8777208777	-0.9764873464	 0.120251
H	-0.6671608034	 1.9933576137	 0.788185947	 0.115418
H	 0.5006731801	-0.2007004429	 0.9660890581	 0.097897
H	-1.0060979105	-0.3927677487	 0.0816001268	 0.120417
H	 0.265697204	-0.214344548	-2.0940543012	 0.121043
H	 1.7740539248	-0.1590864768	-1.1888185919	 0.11058
H	 0.8967500606	-2.4809173949	 0.9378365998	 0.136995
H	 1.6463434993	-3.749948381	-0.0521728482	 0.135822
H	 2.4816680566	-2.211670141	 0.1762232292	 0.136482
H	-0.2299699479	-4.3279235519	-2.2620827311	 0.134787
H	-0.5456765089	-4.4424257833	-0.5061547648	 0.114691
H	-1.8609405509	-4.0056156147	-1.6211832293	 0.137012
79.869	89.7597	101.9412	121.2849	165.9474	194.2657	233.1285	246.8765	259.1477	299.1036	327.8214	362.431	410.4766	472.5966	587.8946	618.1412	721.104	746.3445	851.5307	891.147	911.5718	948.6599	1014.8981	1047.9745	1095.1223	1116.7455	1177.0296	1181.1796	1184.4046	1202.0827	1237.401	1285.4932	1325.4198	1340.3927	1394.8143	1402.6844	1415.5855	1470.8218	1476.8263	1485.6653	1489.4183	1495.1457	1500.4031	1504.5799	1510.1546	1511.5274	2347.5696	3005.4442	3031.6305	3035.3025	3043.5423	3055.8456	3065.5416	3074.4243	3088.1919	3106.4916	3107.2778	3126.4967	3131.6533	3140.7225
CCCC(C)(OC)C#N	CCC[C@@](C)(OC)C#N	
InChI=1S/C7H13NO/c1-4-5-7(2,6-8)9-3/h4-5H2,1-3H3	InChI=1S/C7H13NO/c1-4-5-7(2,6-8)9-3/h4-5H2,1-3H3/t7-/m1/s1
