18
gdb 80952	2.40772	1.39967	1.25027	4.5365	77.44	-0.2504	0.0056	0.2561	1106.9268	0.148152	-398.060378	-398.051764	-398.05082	-398.09335	32.755	
C	-0.0410348443	 1.5990615749	-0.0090279349	-0.453538
C	 0.0898199825	 0.0921396568	 0.0726666469	 0.020298
N	 1.1924377404	-0.6016609012	-0.7656245382	-0.153554
C	 2.1683402626	-0.1808398117	 0.3517082143	-0.209942
C	 0.9455006992	-0.6565536995	 1.1616054693	 0.272443
N	 0.8466268109	-0.7933226649	 2.575074651	-0.619571
C	 0.9504012145	-1.8298747572	 0.1394139658	-0.121539
C	-0.260434688	-2.6044312329	-0.0957169742	 0.278711
N	-1.2082882479	-3.249437193	-0.2465862405	-0.334286
H	 0.8587651503	 2.1480336081	 0.2772515396	 0.12142
H	-0.3042640488	 1.8940003264	-1.0298799877	 0.143389
H	-0.8535254117	 1.9271029666	 0.6480750067	 0.126953
H	-0.8838176523	-0.3632973657	-0.1326318149	 0.101696
H	 3.0734477605	-0.791712866	 0.3926075275	 0.113357
H	 2.4163543439	 0.8787619751	 0.3409858322	 0.11132
H	 0.9667126162	 0.1019959041	 3.038864799	 0.236966
H	-0.0617533423	-1.1596143632	 2.8453587683	 0.243053
H	 1.8134327642	-2.4989588166	 0.1741197499	 0.122824
123.1996	146.5837	152.2479	198.4028	215.7615	329.5594	365.1383	385.7997	471.8407	523.7299	549.6537	636.3513	646.218	774.8518	779.7783	789.9691	832.6443	910.4847	931.008	961.7439	1031.9238	1054.9674	1084.3265	1102.4979	1137.1373	1144.396	1172.225	1195.7315	1248.8689	1295.2655	1337.7292	1388.638	1409.4523	1440.1799	1493.6732	1496.508	1548.9565	1645.0378	2350.5972	3042.1931	3062.5507	3077.3231	3090.4765	3103.6676	3122.6608	3158.9381	3494.0515	3576.3874
CC1N2CC1(N)C2C#N	C[C@H]1N2C[C@]1(N)[C@H]2C#N	
InChI=1S/C6H9N3/c1-4-6(8)3-9(4)5(6)2-7/h4-5H,3,8H2,1H3	InChI=1S/C6H9N3/c1-4-6(8)3-9(4)5(6)2-7/h4-5H,3,8H2,1H3/t4-,5-,6-/m1/s1
