12
gdb 18926	3.66751	2.72851	2.09711	2.699	52.56	-0.2336	-0.0401	0.1935	642.6294	0.084615	-418.411934	-418.406694	-418.40575	-418.441226	20.863	
O	 0.0062074428	 0.0838674436	 0.0511942734	-0.314777
C	-0.0127571745	 1.2754604765	 0.0163433792	 0.51162
C	-1.1638866015	 2.3068543721	-0.0254186496	-0.09708
O	-0.90121842	 2.9238866927	 1.2801635466	-0.297778
C	 0.2581058956	 3.5055210188	 0.6559863694	 0.069857
C	-0.3538072128	 3.4550100911	-0.7509798119	 0.069845
O	 0.8240266804	 2.8754041273	-1.3414932184	-0.297787
C	 1.1049554998	 2.3436284931	-0.0026312644	-0.097093
H	-2.1931951721	 2.0091127234	-0.1996877068	 0.112354
H	 0.7204893146	 4.3351606274	 1.1859363493	 0.114244
H	-0.8418541555	 4.2374538706	-1.3276421628	 0.114243
H	 2.1430446033	 2.0893499534	 0.187655886	 0.112352
169.6613	399.6072	446.7423	510.5026	611.4843	749.6201	763.9601	799.1952	809.1763	824.1952	855.2271	877.3056	929.5361	950.7432	982.9208	1031.3131	1113.0053	1121.3505	1156.3569	1174.8151	1194.7551	1231.4917	1239.2633	1290.9793	1325.4658	1914.3258	3146.3601	3156.566	3181.9838	3183.6239
O=C1C2OC3C2OC13	O=C1[C@H]2O[C@@H]3[C@H]2O[C@H]13	
InChI=1S/C5H4O3/c6-1-2-4-5(7-2)3(1)8-4/h2-5H	InChI=1S/C5H4O3/c6-1-2-4-5(7-2)3(1)8-4/h2-5H/t2-,3-,4+,5+/m1/s1
