17
gdb 101526	2.86028	0.96518	0.80323	2.3514	72.06	-0.2809	-0.0583	0.2226	1417.1204	0.134231	-455.153734	-455.143968	-455.143024	-455.189115	34.33	
C	-0.099244165	 1.559464463	-0.0281986021	-0.401019
C	-0.0522180662	 0.0391112373	-0.0822986622	 0.107883
C	 0.7947087367	-0.5113845841	-1.2280867008	-0.073456
O	 2.1279423146	-0.0451197306	-1.1962133568	-0.414435
O	 0.5974001598	-0.4793766222	 1.1219745633	-0.266581
C	-0.1433456445	-0.6289328605	 2.2215436994	 0.329559
N	-1.3786263397	-0.3544040087	 2.3039429173	-0.515321
C	 0.6569430877	-1.1575432969	 3.3156754152	 0.251492
N	 1.2391953916	-1.5752718864	 4.222386081	-0.313581
H	 0.9135806264	 1.967279405	-0.0096002822	 0.139749
H	-0.6066697111	 1.9388895223	-0.9205997979	 0.126327
H	-0.6532568391	 1.8985140117	 0.8488259616	 0.140957
H	-1.0610435734	-0.3810233363	-0.1242341628	 0.118833
H	 0.749103752	-1.6105017551	-1.210936481	 0.100866
H	 0.3649259561	-0.1730288818	-2.1765207441	 0.119047
H	 2.5149247328	-0.352639849	-0.3689607761	 0.295176
H	-1.7462315589	-0.5561716876	 3.2303830683	 0.254503
61.8893	85.8569	89.2344	155.0286	220.1852	230.9479	275.8828	318.6556	332.6064	404.703	427.9676	524.867	581.3948	656.0868	731.5937	826.9434	845.0306	878.7275	924.4839	934.9061	1009.4949	1069.3553	1109.68	1141.984	1152.0577	1239.9915	1329.3359	1356.2565	1389.0965	1392.2516	1417.2675	1425.8199	1487.8573	1493.2911	1499.2343	1701.5186	2355.6781	2997.3392	3054.5751	3081.8779	3085.2794	3127.0339	3150.5732	3537.238	3809.6422
CC(CO)OC(=N)C#N	C[C@@H](CO)O[C]([NH])C#N	
InChI=1S/C5H8N2O2/c1-4(3-8)9-5(7)2-6/h4,7-8H,3H2,1H3	InChI=1S/C5H8N2O2/c1-4(3-8)9-5(7)2-6/h4,7-8H,3H2,1H3/t4-/m0/s1
