19
gdb 52980	4.15399	0.92437	0.85136	0.1199	91.42	-0.2191	0.0181	0.2373	1434.7359	0.159175	-348.733622	-348.724824	-348.723879	-348.768885	32.711	
C	 0.0002705427	 1.4552900514	-0.0229399216	-0.505543
C	-0.007561444	-0.0004259149	-0.0047762169	 0.219103
C	-0.0188692521	-1.2060594781	 0.0059949729	-0.16963
C	-0.0027183538	-2.6380761995	 0.0395472947	 0.186466
C	-0.4459533967	-3.4102318855	-1.1909627429	-0.310634
C	-1.2988442869	-3.4713362869	 0.0532970477	-0.113913
C	-1.014357675	-4.6163181196	 0.9630114837	-0.070653
C	 0.2327342005	-4.5805800791	 1.4374006337	-0.084477
C	 0.9839617531	-3.3485147988	 0.9841450337	-0.333778
H	 0.9483498221	 1.8504173413	 0.3592067562	 0.146269
H	-0.1302583299	 1.8433004585	-1.0395757137	 0.145031
H	-0.8027931848	 1.8720017387	 0.5959072936	 0.144369
H	-0.8057741987	-2.8120656306	-2.0205587392	 0.118496
H	 0.1101461969	-4.3007511315	-1.467142288	 0.111815
H	-2.2713497284	-2.9927184675	 0.0466072707	 0.097165
H	-1.7434805611	-5.3923017066	 1.1669501605	 0.096449
H	 0.6867699752	-5.3365533564	 2.0678874097	 0.094558
H	 1.9278955522	-3.5926241115	 0.4809867336	 0.112088
H	 1.2411120288	-2.6990714935	 1.8302098316	 0.116818
13.0537	92.9984	97.7544	234.8471	291.9079	326.6233	337.455	434.4903	487.4976	523.0611	545.2896	705.4463	740.8861	754.3879	823.6327	864.9005	913.3802	941.3148	954.8511	976.9101	1010.1347	1026.25	1052.6508	1054.2472	1058.2901	1077.3283	1090.2914	1144.9437	1175.5286	1237.8433	1275.9818	1308.6641	1363.0391	1396.46	1416.7523	1468.6382	1477.6245	1480.2071	1482.2325	1670.379	2364.4119	3021.6733	3023.9614	3053.0406	3079.2124	3082.5029	3124.1925	3176.0444	3186.1425	3209.9286	3220.387
CC#CC12CC1C=CC2	CC#C[C@]12C[C@H]1C=CC2	
InChI=1S/C9H10/c1-2-5-9-6-3-4-8(9)7-9/h3-4,8H,6-7H2,1H3	InChI=1S/C9H10/c1-2-5-9-6-3-4-8(9)7-9/h3-4,8H,6-7H2,1H3/t8-,9+/m1/s1
