17
gdb 72087	2.98016	1.81125	1.6389	0.9548	70.8	-0.2175	0.0086	0.226	883.1937	0.138194	-421.818446	-421.811878	-421.810934	-421.848815	28.096	
O	-0.0690498461	 1.3824980814	-0.0744657316	-0.473928
C	 0.0586245644	 0.0000755448	-0.0038535106	 0.342366
C	 1.2715881949	-0.713947328	-0.5771704162	-0.30053
C	 0.9991002819	-2.1524519183	-0.077273686	 0.009395
O	 0.4912699201	-1.9463441282	 1.2778027984	-0.256906
C	-0.3434354321	-0.8333232845	 1.1736427492	 0.011486
C	-1.2392149852	-0.802727885	-0.0939363431	-0.170875
C	-1.2496440422	-2.0491929145	-0.8821205378	-0.041285
C	-0.1170839922	-2.7611166572	-0.8875015625	-0.094973
H	 0.6260474685	 1.774640481	 0.4669360962	 0.283454
H	 1.3463848465	-0.6646501962	-1.6657398412	 0.115036
H	 2.1854340297	-0.3048119132	-0.1309958814	 0.095217
H	 1.8853065654	-2.7800936621	 0.0049930696	 0.083592
H	-0.7103545418	-0.4634402053	 2.1219544258	 0.110281
H	-2.139371764	-0.204721475	-0.020393869	 0.096412
H	-2.1624292629	-2.374466735	-1.3698792013	 0.098149
H	-0.001531455	-3.7180815147	-1.3813414686	 0.093109
232.789	309.0877	341.6166	356.6393	428.0215	434.6756	527.6729	579.2212	645.5036	683.0365	689.1974	757.0733	810.4596	850.9842	880.773	897.2069	919.4297	958.2916	971.2898	998.6319	1025.2407	1044.8506	1066.4835	1097.0516	1142.0051	1159.2754	1199.9312	1241.5867	1264.4573	1281.2194	1321.2158	1341.0256	1355.2746	1402.975	1436.7751	1486.6993	1672.6825	3041.055	3111.0958	3126.7974	3176.3211	3193.2155	3207.8856	3210.4251	3783.0588
OC12CC3OC1C2C=C3	O[C@@]12C[C@H]3O[C@@H]1[C@@H]2C=C3	
InChI=1S/C7H8O2/c8-7-3-4-1-2-5(7)6(7)9-4/h1-2,4-6,8H,3H2	InChI=1S/C7H8O2/c8-7-3-4-1-2-5(7)6(7)9-4/h1-2,4-6,8H,3H2/t4-,5-,6+,7+/m0/s1
