21
gdb 79996	2.67112	1.73447	1.52394	0.2954	86.91	-0.2147	0.0115	0.2261	1003.7741	0.184193	-349.877989	-349.870638	-349.869693	-349.90903	31.507	
C	-0.0264155795	 1.6666241249	 0.0756154217	-0.438036
C	 0.0662881312	 0.15071725	 0.0596756106	 0.038206
C	 1.1739444898	-0.6061884896	-0.7427816299	-0.1416
C	 2.4372268084	-0.0377051932	-0.0307076178	-0.076541
C	 2.1404927819	-0.0547409625	 1.2795703153	-0.211519
C	 0.7431936879	-0.6649041689	 1.2566907131	 0.296915
C	-0.2178137555	-1.5285547771	 2.0910816173	-0.335326
C	-0.4043316429	-2.430337398	 0.805362625	-0.28362
C	 0.9232186226	-1.8138364921	 0.2317539448	 0.023092
H	 0.9335758522	 2.1356415405	 0.3031534723	 0.117607
H	-0.3637642142	 2.0389964343	-0.8986936531	 0.110172
H	-0.7564240318	 2.0018998995	 0.8213678893	 0.109411
H	-0.9239491386	-0.2534676082	-0.1657821793	 0.066981
H	 1.1950818793	-0.6582342971	-1.8340519699	 0.048485
H	 3.3282778328	 0.3236710804	-0.5247525197	 0.095594
H	 2.7296090055	 0.2720555804	 2.1248241486	 0.100227
H	 0.2870788084	-2.0765283696	 2.8926285579	 0.105199
H	-1.1093007752	-1.0451592678	 2.5016346473	 0.095791
H	-0.3476823043	-3.5069624914	 0.978185682	 0.098191
H	-1.3224265816	-2.2243920305	 0.2534393626	 0.111627
H	 1.7763255336	-2.4806777841	 0.3718659519	 0.069143
202.4137	222.0029	260.1743	299.3534	327.6003	406.8956	527.8049	554.0058	588.7303	662.5491	684.9232	725.7215	755.7501	792.63	818.8948	851.4826	879.0259	889.5239	896.9929	925.2703	995.8306	1012.2384	1041.2997	1058.6841	1064.3429	1087.0951	1099.5867	1143.4779	1183.2227	1194.0614	1199.4196	1220.0971	1222.5144	1243.1483	1244.3753	1275.6934	1328.5718	1339.4661	1397.6414	1409.3634	1478.6822	1489.2377	1495.6542	1503.0954	1582.5147	3028.1953	3045.4064	3067.1192	3075.5856	3078.0748	3083.2186	3087.7299	3095.8982	3121.295	3130.6456	3215.5991	3241.6132
CC1C2C=CC11CCC21	C[C@H]1[C@H]2C=C[C@]31CC[C@@H]23	
InChI=1S/C9H12/c1-6-7-2-4-9(6)5-3-8(7)9/h2,4,6-8H,3,5H2,1H3	InChI=1S/C9H12/c1-6-7-2-4-9(6)5-3-8(7)9/h2,4,6-8H,3,5H2,1H3/t6-,7+,8-,9+/m0/s1
