19
gdb 26156	2.5146	1.32871	1.02837	4.9068	78.42	-0.2175	0.0254	0.2429	1225.461	0.159593	-419.257196	-419.247838	-419.246894	-419.292118	34.238	
C	-0.0217215827	 1.6010294645	 0.0090556825	-0.385189
C	 0.0262068262	 0.0688630158	 0.1108365126	 0.032393
O	 0.6380637803	-0.3313626735	 1.3293922868	-0.43943
C	-1.3449966772	-0.5422984604	 0.0021516156	 0.21664
C	-2.0081636057	-1.0897709927	-1.0678755382	 0.208434
C	-1.6329681078	-1.2960333966	-2.496383847	-0.510768
N	-3.2376450643	-1.47206494	-0.5570549824	-0.300181
C	-3.2563236761	-1.1535616578	 0.7667538474	 0.003206
N	-2.1331351103	-0.5885113906	 1.1360899077	-0.333195
H	 0.9809080866	 2.0133582829	 0.1538577259	 0.115983
H	-0.398608705	 1.9216730447	-0.9684116363	 0.100444
H	-0.6823619762	 2.0066445766	 0.7817076496	 0.122257
H	 0.6623244259	-0.3179374384	-0.6958423441	 0.073778
H	-0.0817128532	-0.3872757527	 1.9724606595	 0.289592
H	-1.7658190128	-2.3391747928	-2.8077848071	 0.129941
H	-2.224197692	-0.6712034757	-3.1773885377	 0.133118
H	-0.58194132	-1.0396060558	-2.6467289025	 0.147995
H	-3.9754942092	-1.9236865384	-1.0717989832	 0.263183
H	-4.1058052664	-1.3599504588	 1.4006371909	 0.131799
26.7438	112.3504	147.5531	179.5341	236.4452	249.7272	290.7427	376.0959	405.5416	448.3755	517.7369	525.5665	627.8753	661.4929	737.0826	752.4374	804.722	905.2709	958.1451	985.1692	1024.109	1062.4683	1082.9518	1101.8141	1117.95	1144.5922	1250.8133	1286.6609	1305.238	1353.8182	1380.5778	1392.6654	1422.7939	1432.8059	1465.0346	1481.3109	1487.9098	1492.7746	1496.307	1531.9729	1641.7923	3019.9906	3021.5837	3031.2251	3066.4558	3104.897	3118.2419	3124.4178	3250.2588	3657.7397	3753.5813
CC(O)C1=C(C)NC=N1	C[C@@H](O)c1c(C)[nH]cn1	
InChI=1S/C6H10N2O/c1-4-6(5(2)9)8-3-7-4/h3,5,9H,1-2H3,(H,7,8)	InChI=1S/C6H10N2O/c1-4-6(5(2)9)8-3-7-4/h3,5,9H,1-2H3,(H,7,8)/t5-/m1/s1
