21
gdb 104208	2.62717	1.25884	1.21351	2.5428	78.05	-0.2432	0.0662	0.3094	1175.2221	0.181251	-424.193638	-424.184341	-424.183397	-424.227425	35.569	
C	-0.3872032948	 1.5723293241	 0.2897465221	-0.43919
C	-0.1202328655	 0.086820967	 0.1306176471	 0.32221
C	-1.3456939532	-0.680148526	-0.3786728136	-0.088272
O	-1.6521307092	-0.2923494056	-1.7035555753	-0.424104
O	 0.9692918159	-0.1551426524	-0.8240881608	-0.34573
C	 1.7233299524	-0.9211302296	 0.1440317662	-0.141106
C	 0.6904061772	-0.6247278227	 1.222680981	 0.254074
C	 0.9381750079	-0.2007537499	 2.6362715739	-0.328561
C	 0.2202045221	-1.4999923231	 2.3437802282	-0.330503
H	 0.5357573406	 2.1093066804	 0.5208757025	 0.118489
H	-0.8131101266	 1.9702283178	-0.6351479877	 0.138001
H	-1.1068083478	 1.7480995885	 1.0972408757	 0.112224
H	-1.1490123093	-1.7613238038	-0.3110916875	 0.082561
H	-2.2269841962	-0.4605192457	 0.2343916633	 0.101453
H	-0.8198749928	-0.3729816791	-2.188230051	 0.290797
H	 1.8177227447	-1.9752468138	-0.1489793765	 0.102169
H	 2.7251735554	-0.5020519156	 0.3000162095	 0.105604
H	 1.9567322232	-0.2488328586	 3.008915811	 0.11563
H	 0.3573674051	 0.6236868631	 3.037104435	 0.118742
H	-0.8442326581	-1.5502721814	 2.5496241997	 0.119308
H	 0.7490047791	-2.4318532834	 2.5183613871	 0.116204
78.8291	121.8017	160.9088	216.3656	231.5953	270.5126	290.683	344.4536	381.1392	460.1516	502.7054	520.45	581.5773	717.9898	778.3419	866.5675	867.8067	898.5973	914.6451	940.5711	956.7177	991.7412	1016.7299	1059.5126	1073.2965	1082.1781	1091.7095	1125.8667	1153.8604	1175.6172	1188.7673	1216.3407	1255.7761	1287.9349	1323.2297	1375.4076	1402.6535	1411.5005	1434.1886	1466.1946	1479.8815	1491.6139	1503.9215	1510.9973	1524.6618	2982.8155	3003.9848	3038.5607	3047.3229	3066.7266	3109.9688	3123.5631	3126.9803	3132.1113	3200.6857	3215.3097	3765.8172
CC1(CO)OCC11CC1	C[C@@]1(CO)OCC21CC2	
InChI=1S/C7H12O2/c1-6(4-8)7(2-3-7)5-9-6/h8H,2-5H2,1H3	InChI=1S/C7H12O2/c1-6(4-8)7(2-3-7)5-9-6/h8H,2-5H2,1H3/t6-/m0/s1
