24
gdb 7392	3.87361	0.93062	0.8732	1.3839	81.91	-0.2595	0.0685	0.328	1486.7572	0.220961	-351.420789	-351.40996	-351.409015	-351.456465	39.25	
C	-0.1230927604	 1.5663420583	-0.0667540007	-0.382938
C	-0.0503572852	 0.0386770169	-0.0086651043	-0.161485
C	 0.7352197985	-0.4829395078	 1.2001836778	-0.199666
C	 0.8708895207	-2.0110826708	 1.2179344543	 0.136
O	 1.5736501159	-2.4827915727	 0.0659105597	-0.438581
C	 1.4692928221	-2.5777504591	 2.5268857179	 0.032669
C	 1.3490118043	-4.107512781	 2.5469196289	-0.39282
C	 2.925451185	-2.1450873102	 2.7580225215	-0.406477
H	 0.8772913642	 2.0093942359	-0.1317375558	 0.110341
H	-0.6928149634	 1.905574878	-0.937628475	 0.111689
H	-0.6063107181	 1.9771933624	 0.8270755082	 0.111178
H	-1.066420893	-0.3768202905	 0.0193212038	 0.093258
H	 0.4104879957	-0.352077023	-0.9223862331	 0.108098
H	 1.7366171493	-0.027944992	 1.2059126583	 0.084345
H	 0.2489922134	-0.155936412	 2.1291983417	 0.091715
H	-0.1335239557	-2.4415392975	 1.1067187924	 0.078811
H	 2.4345013424	-2.0507764795	 0.0530248318	 0.278035
H	 0.8612758683	-2.1723989072	 3.3478974864	 0.068649
H	 1.8810291976	-4.5411638939	 1.694896114	 0.127344
H	 1.7699687459	-4.5266364091	 3.4664892045	 0.103282
H	 0.3025884447	-4.4243801604	 2.4812950116	 0.107347
H	 3.5811347616	-2.5216867028	 1.9637220751	 0.108679
H	 3.0360030965	-1.0574621938	 2.8052543059	 0.113969
H	 3.3021247998	-2.5541031383	 3.700627485	 0.11656
66.5183	92.1669	98.1718	139.5939	212.6699	230.1117	248.1467	280.4498	284.2652	295.78	305.929	360.1072	427.1566	533.7032	607.6034	748.5621	803.4393	856.1968	902.7545	915.7582	932.117	963.4528	1001.2001	1030.8731	1055.7225	1081.2132	1112.6732	1116.457	1173.1665	1201.42	1241.5148	1279.4462	1298.4279	1327.5475	1338.6808	1366.0288	1374.7995	1394.4788	1396.4592	1412.613	1414.6764	1425.9143	1479.6855	1487.8327	1494.4907	1495.0893	1499.9153	1506.4995	1511.9763	1513.5051	2996.1347	3006.5995	3017.9221	3023.2434	3027.275	3027.6257	3033.7807	3042.2786	3069.7471	3091.7912	3095.297	3097.3372	3100.0174	3105.5065	3113.4294	3805.7358
CCCC(O)C(C)C	CCC[C@@H](O)C(C)C	
InChI=1S/C7H16O/c1-4-5-7(8)6(2)3/h6-8H,4-5H2,1-3H3	InChI=1S/C7H16O/c1-4-5-7(8)6(2)3/h6-8H,4-5H2,1-3H3/t7-/m1/s1
