17
gdb 66592	3.00085	1.921	1.61612	1.5637	69.6	-0.2274	0.0779	0.3053	871.428	0.137836	-421.770153	-421.763657	-421.762712	-421.800644	27.238	
O	-0.1233685144	 1.3487500159	 0.0848155345	-0.468818
C	 0.0277562122	-0.0188177752	 0.0481645023	 0.392367
C	-0.2118017132	-0.855609559	-1.225869254	-0.161783
C	-1.0718795331	-1.0431141767	 0.0110475146	-0.167109
C	 0.0132135777	-2.0787365601	 0.463139537	-0.098218
C	 0.5956008974	-2.1413833008	-0.9848564578	-0.064861
C	 2.100918531	-1.9094754021	-0.8390212214	-0.088174
O	 2.2511223551	-1.1324091901	 0.3651018847	-0.286322
C	 0.9525721199	-0.9123901828	 0.8845413024	 0.035995
H	 0.6053220712	 1.7472903246	-0.4046318351	 0.289398
H	-0.476335603	-0.3705079166	-2.1571332589	 0.087668
H	-2.1356808325	-0.9644434989	 0.1701543392	 0.102363
H	-0.1297521259	-2.9580911619	 1.0850787705	 0.075271
H	 0.3094495161	-2.9987996122	-1.5955551213	 0.07363
H	 2.6646677855	-2.8458418118	-0.7287172679	 0.097681
H	 2.5190429719	-1.3566974734	-1.6903933949	 0.097062
H	 1.0173717141	-0.6646160089	 1.9449102861	 0.08385
190.5124	243.9824	290.8905	363.0514	404.7168	523.1694	611.9549	661.0206	720.2496	754.6201	798.7454	838.7127	852.9168	875.9333	905.0462	923.0415	929.2511	945.9853	974.6126	1004.0654	1031.2506	1057.3007	1085.6897	1111.2989	1134.0412	1154.9002	1187.3727	1208.0764	1231.5485	1255.5148	1274.2617	1292.9618	1315.0413	1335.6549	1390.2067	1458.6554	1518.9946	3004.2761	3039.95	3104.9456	3115.5329	3153.7217	3194.4211	3245.4996	3789.2944
OC12C3C1C1C3COC21	O[C@]12[C@@H]3[C@H]1[C@H]1[C@@H]3CO[C@@H]21	
InChI=1S/C7H8O2/c8-7-4-2-1-9-6(7)3(2)5(4)7/h2-6,8H,1H2	InChI=1S/C7H8O2/c8-7-4-2-1-9-6(7)3(2)5(4)7/h2-6,8H,1H2/t2-,3+,4-,5+,6+,7+/m0/s1
