16
gdb 44165	3.05439	1.16865	0.99222	3.6998	74.35	-0.2476	0.0028	0.2504	1196.441	0.123546	-400.701813	-400.693671	-400.692727	-400.735212	30.722	
O	 0.2868497247	 0.0779254184	 0.3450956497	-0.335397
C	 0.1805030299	 1.2541367017	 0.1514739109	 0.413678
N	-0.952589759	 2.0845554016	 0.0337883074	-0.340603
C	-0.1362253419	 3.2933313138	-0.0987921221	-0.044537
C	 0.8262886761	 3.4806795929	 1.0344820609	-0.008718
C	 0.5294624795	 3.1568405297	 2.4935003378	-0.395051
C	 1.7449009726	 2.9577147164	 3.2753851642	 0.313419
C	 2.7595183448	 2.8087586193	 3.901183363	-0.445061
C	 1.1238403336	 2.4360880091	-0.0454364164	-0.2293
H	-1.7708338504	 2.0035813581	 0.6268097951	 0.24394
H	-0.4003264186	 4.0547310116	-0.8211064267	 0.116706
H	 1.4588858981	 4.3586574472	 0.9156329458	 0.114209
H	-0.0527504816	 3.9808458593	 2.9272632768	 0.134518
H	-0.1016529565	 2.26389037	 2.5639416865	 0.14165
H	 3.649676058	 2.663880481	 4.4615535108	 0.200046
H	 2.0143877706	 2.4682148997	-0.6561229037	 0.120503
44.6536	121.6152	143.7722	245.9945	335.2547	350.0994	455.4848	505.3486	532.5195	612.8715	623.373	647.7176	711.0397	767.0946	799.9729	842.2078	869.5871	918.7153	965.3712	986.5081	1006.1014	1046.225	1064.8595	1087.4218	1134.9046	1171.418	1244.4797	1271.2287	1312.4479	1323.6873	1337.7342	1429.6068	1468.6631	1900.3163	2242.918	3021.1326	3066.4227	3135.269	3201.4608	3229.9779	3506.9775	3548.1246
O=C1NC2C(CC#C)C12	O=C1N[C@H]2[C@@H](CC#C)[C@@H]12	
InChI=1S/C7H7NO/c1-2-3-4-5-6(4)8-7(5)9/h1,4-6H,3H2,(H,8,9)	InChI=1S/C7H7NO/c1-2-3-4-5-6(4)8-7(5)9/h1,4-6H,3H2,(H,8,9)/t4-,5+,6-/m0/s1
