22
gdb 78454	3.59554	1.26075	1.16614	1.0255	86.96	-0.2111	0.0995	0.3106	1186.643	0.195748	-367.156274	-367.148302	-367.147358	-367.188126	32.838	
C	-0.1537748313	 1.5408554858	-0.0207122726	-0.444274
C	-0.0120184554	 0.0237157551	-0.0061264282	 0.065242
C	 1.1164062904	-0.6020847789	-0.8879186665	-0.0828
C	 2.0976918786	-0.2596479788	 0.2888321508	-0.227771
C	 0.8308366677	-0.6091930381	 1.1477986235	-0.082796
C	 0.7455610226	-2.1211180622	 0.8438532868	-0.018775
C	 0.952249374	-2.1159737055	-0.6295264053	-0.018773
N	-0.3346547646	-2.5524829115	-0.0603845644	-0.099772
C	-0.5487313656	-3.9924272382	-0.0954502046	-0.32114
H	 0.7876077017	 2.0804156961	 0.1130913736	 0.112469
H	-0.5881427126	 1.8701569594	-0.9714697693	 0.113817
H	-0.8330758305	 1.8640805104	 0.7762392536	 0.113817
H	-0.9920007614	-0.4312526755	-0.1451845733	 0.094564
H	 1.2968971192	-0.2746412873	-1.9127182952	 0.05476
H	 2.9763699352	-0.9007224133	 0.4098532759	 0.0846
H	 2.3963068463	 0.7878032621	 0.3343809265	 0.097448
H	 0.7220815753	-0.2889453759	 2.1849217569	 0.054759
H	 1.2022678037	-2.85223952	 1.5035129138	 0.082904
H	 1.573535432	-2.8429977426	-1.1430538802	 0.082903
H	 0.3742522054	-4.5852542563	 0.031987429	 0.094474
H	-1.245117359	-4.2727440051	 0.7014298094	 0.122172
H	-0.9986483417	-4.2666103498	-1.0551102205	 0.122172
182.1919	182.8402	220.4146	239.595	304.9219	319.0384	394.1248	431.305	492.4045	581.0794	685.9524	755.7906	803.0039	830.6339	843.2837	857.757	876.1307	907.4384	946.0181	958.8119	999.2223	1032.422	1053.1957	1073.856	1084.7321	1087.8347	1105.2379	1112.6653	1137.7675	1158.8269	1159.397	1220.6226	1221.6657	1250.6155	1257.4006	1269.5446	1280.0501	1311.422	1370.1051	1390.3224	1415.505	1454.1522	1491.3155	1493.2948	1498.3406	1499.1197	1517.7205	2946.6585	3030.194	3057.1481	3062.4407	3085.9181	3097.851	3101.0908	3101.957	3103.7464	3122.2072	3135.7081	3154.6481	3164.6218
CC1C2CC1C1C2N1C	C[C@H]1[C@H]2C[C@@H]1[C@@H]1[C@H]2N1C	
InChI=1S/C8H13N/c1-4-5-3-6(4)8-7(5)9(8)2/h4-8H,3H2,1-2H3	InChI=1S/C8H13N/c1-4-5-3-6(4)8-7(5)9(8)2/h4-8H,3H2,1-2H3/t4-,5+,6-,7-,8+,9?
