21
gdb 91337	2.89904	1.29739	1.0804	1.9981	84.31	-0.2293	0.0186	0.2479	1208.5284	0.183652	-387.100974	-387.092588	-387.091644	-387.133795	33.258	
C	-0.0338729168	 1.5026945313	-0.0301287202	-0.489313
C	 0.0347725407	 0.0078938896	-0.0398921844	 0.330121
C	-0.0968914421	-0.800248283	-1.0992159233	-0.207508
C	 0.0045131832	-2.2603667038	-0.7543564787	-0.101009
C	 1.3650567708	-2.9398549074	-1.1167259191	 0.155725
O	 2.0763723983	-2.4983580091	-2.2446541061	-0.431469
C	 1.8953228983	-2.5899436788	 0.3022088076	-0.278731
C	 0.4492834323	-2.2226974655	 0.748850965	-0.012088
C	 0.2365180233	-0.7807667591	 1.2416332622	-0.314372
H	 0.8957195782	 1.9395588656	 0.3569011007	 0.125276
H	-0.2112390446	 1.9091532144	-1.0295053995	 0.123333
H	-0.8370836622	 1.8556657825	 0.6295342245	 0.126935
H	-0.2845291543	-0.4512543517	-2.1104237565	 0.089399
H	-0.8906806637	-2.8244254575	-1.0376601413	 0.065881
H	 1.2438755375	-4.0189157535	-1.2478253642	 0.085581
H	 2.1412838884	-1.5383281785	-2.1813306287	 0.275972
H	 2.4022993307	-3.3893911387	 0.8476648808	 0.099215
H	 2.5546294191	-1.715549344	 0.2822703103	 0.091427
H	-0.0061679694	-2.9754831369	 1.3933615912	 0.065389
H	 1.0924165933	-0.4133558706	 1.8246003963	 0.099389
H	-0.6418516408	-0.6809804153	 1.8955542534	 0.100846
88.4337	129.3512	182.775	260.1887	308.2911	358.7428	376.286	419.686	449.224	541.9286	582.0652	645.3063	721.3574	802.4173	843.4123	865.3759	865.7787	899.6248	946.0303	950.5533	1003.358	1029.0045	1030.1189	1058.9479	1071.5986	1110.106	1129.5305	1159.6669	1190.4664	1204.7274	1237.5639	1249.1064	1264.2271	1282.5035	1307.7709	1319.6839	1335.0507	1361.5466	1412.6711	1439.6731	1478.2418	1478.779	1484.3355	1489.2347	1705.0736	3000.4513	3016.4966	3029.5357	3040.5995	3047.3137	3061.274	3070.6615	3094.1955	3110.2978	3112.0319	3173.6734	3787.4124
CC1=CC2C(O)CC2C1	CC1=C[C@H]2[C@@H](O)C[C@H]2C1	
InChI=1S/C8H12O/c1-5-2-6-4-8(9)7(6)3-5/h3,6-9H,2,4H2,1H3	InChI=1S/C8H12O/c1-5-2-6-4-8(9)7(6)3-5/h3,6-9H,2,4H2,1H3/t6-,7-,8+/m1/s1
