17
gdb 9894	3.76938	1.55448	1.32984	2.5735	65.85	-0.2325	0.0094	0.2419	960.698	0.141929	-400.985038	-400.977147	-400.976203	-401.017408	29.755	
O	 0.4046764568	 1.3714132778	-0.4537433065	-0.477919
C	 0.2688266401	 0.0083194187	-0.2085021699	 0.424387
C	 1.0116511247	-0.9024347679	-1.1634466301	-0.162984
O	 2.3476605628	-1.2929527703	-0.7379101485	-0.197039
C	 3.3038429657	-0.3737290081	-0.6761971977	 0.152137
N	 3.1303199055	 0.8726843	-0.8510897124	-0.480792
C	 0.0821080117	-0.456242774	 1.220781226	-0.312714
C	-1.0936799717	-0.4075165753	 0.2687581619	-0.307533
H	 1.3620534645	 1.5208874476	-0.576200198	 0.291705
H	 0.5063248503	-1.8636701548	-1.2670109443	 0.118758
H	 1.0871321823	-0.418824759	-2.1423809202	 0.131235
H	 4.2588993939	-0.8578305976	-0.4527383584	 0.118823
H	 4.0072816348	 1.3789047593	-0.7669745416	 0.238371
H	 0.4751933478	-1.4236859947	 1.5151404372	 0.110737
H	 0.1407797142	 0.3155100036	 1.9790519946	 0.118961
H	-1.8079024762	 0.3974640574	 0.3963604696	 0.126261
H	-1.5164861672	-1.3416592827	-0.0854373216	 0.107606
63.0911	144.6228	202.8806	268.5134	295.9469	346.5834	377.3191	426.5515	530.9652	659.8983	721.0269	751.0597	782.0589	821.8079	875.1516	913.006	938.2631	958.3253	977.5723	1025.0816	1045.1712	1049.3182	1077.4941	1102.1197	1190.713	1265.059	1281.9617	1322.0357	1353.5822	1400.3821	1411.5156	1453.7371	1468.7558	1474.4478	1521.363	1710.3261	3061.3086	3095.9151	3130.4162	3133.4902	3137.4223	3220.4928	3234.4417	3534.6302	3543.794
OC1(COC=N)CC1	OC1(CO[CH][NH])CC1	
InChI=1S/C5H9NO2/c6-4-8-3-5(7)1-2-5/h4,6-7H,1-3H2	InChI=1S/C5H9NO2/c6-4-8-3-5(7)1-2-5/h4,6-7H,1-3H2
