13
gdb 129123	2.90249	1.68344	1.0729	3.9311	71.3	-0.2523	-0.1061	0.1462	1018.8058	0.090611	-448.938032	-448.930849	-448.929905	-448.970419	26.001	
N	-0.049919839	 1.3023775033	 0.2247229033	-0.531971
C	 0.0359215631	 0.0481070809	 0.037763797	 0.458631
N	 1.237802044	-0.6427629359	-0.1621547251	-0.283075
C	 1.2098394499	-1.9286191641	-0.1056575966	 0.000144
C	-0.0118392766	-2.6731854392	 0.0919424433	-0.016695
N	-1.1600914972	-2.0827724046	 0.1162767351	-0.113904
N	-1.1557413863	-0.7388120706	 0.0242339848	-0.126923
C	-2.4362163426	-0.1116635162	-0.0725627678	 0.184043
O	-3.4670138271	-0.7140423202	-0.0125313361	-0.253597
H	 0.8815791798	 1.7090526001	 0.1524400033	 0.238941
H	 2.1482394635	-2.4656094743	-0.2424576971	 0.140528
H	-0.0165051735	-3.7544588657	 0.1703249023	 0.145598
H	-2.318732948	 0.9696582363	-0.2110780364	 0.158281
54.6194	131.8242	236.3689	263.7784	385.4249	400.1275	515.7918	548.7207	599.7297	639.2864	770.9793	841.1264	851.7009	882.6892	917.1829	996.7246	1006.5999	1040.354	1051.7773	1154.3306	1214.1697	1313.824	1374.925	1413.3378	1420.154	1581.6144	1677.9546	1713.5324	1842.104	3085.3405	3136.235	3201.0238	3510.277	54.6195	131.8243	236.369	263.7784	385.4251	400.1275	515.7917	548.7209	599.7297	639.2864	770.9795	841.1264	851.701	882.6894	917.183	996.725	1006.6	1040.354	1051.7774	1154.3308	1214.1699	1313.824	1374.9253	1413.338	1420.1539	1581.6142	1677.9547	1713.5326	1842.104	3085.3405	3136.2351	3201.0238	3510.2771
N=C1N=CC=NN1C=O	[NH]c1nccnn1C=O	
InChI=1S/C4H4N4O/c5-4-6-1-2-7-8(4)3-9/h1-3,5H	InChI=1S/C4H9N4O/c5-4-6-1-2-7-8(4)3-9/h3-7H,1-2H2
