20
gdb 114272	4.08267	1.12462	1.0635	0.6451	81.11	-0.208	0.0639	0.2719	1197.1028	0.171061	-402.998347	-402.990374	-402.98943	-403.030819	31.944	
O	 1.0737888398	-0.757081698	 0.4242434332	-0.416093
C	 0.2641786523	 0.0589848352	-0.4109828062	-0.096148
C	-1.1840111814	-0.4415693145	-0.4227506389	 0.020146
C	-2.1498180335	-0.0120577722	 0.755736746	-0.351713
C	-2.8348692902	 0.8523935601	-0.3187501552	 0.295038
C	-3.9991727972	 1.1968154212	-1.293931604	-0.275675
C	-2.6094515372	 1.3540062306	-2.053904316	-0.0217
C	-2.0984603091	 2.1391562881	-0.8404560078	-0.251587
N	-2.2666480668	 0.0023275511	-1.4155746168	-0.174219
H	 1.0797802394	-1.6452853988	 0.0522657214	 0.282812
H	 0.3613654156	 1.063321998	 0.005878816	 0.113479
H	 0.6434337773	 0.0890439422	-1.4450329937	 0.096146
H	-1.1177351522	-1.5304733584	-0.5353640361	 0.074885
H	-2.754269439	-0.8463761609	 1.1166137923	 0.116015
H	-1.7015756416	 0.5159612829	 1.6000471381	 0.111694
H	-4.6050011963	 0.3470650033	-1.6070851541	 0.110667
H	-4.5750717709	 2.1129423146	-1.1416288193	 0.094243
H	-2.4710858819	 1.5622434781	-3.1179108242	 0.082562
H	-2.5694077023	 3.1046699232	-0.6321595505	 0.089902
H	-1.0206707747	 2.1992505141	-0.7118249542	 0.099545
73.695	171.8663	177.0694	310.2896	319.2903	349.5679	409.2381	450.8058	549.4474	609.405	691.2581	752.8898	774.3594	807.467	840.4816	879.873	893.6887	925.2617	963.0343	986.2312	998.1031	1028.2022	1056.6651	1065.7336	1081.101	1099.9695	1120.3347	1127.734	1169.6719	1187.0901	1198.6232	1214.7685	1230.2672	1237.4522	1249.6681	1288.6973	1347.5828	1396.1683	1421.6256	1474.3648	1474.9657	1504.61	1526.7268	2979.8701	3021.2517	3054.6655	3065.9228	3072.778	3081.6854	3102.7855	3133.7366	3159.5196	3169.8943	3809.6435
OCC1CC23CC(C2)N13	OC[C@H]1C[C@@]23C[C@@H](C2)N13	
InChI=1S/C7H11NO/c9-4-6-3-7-1-5(2-7)8(6)7/h5-6,9H,1-4H2	InChI=1S/C7H11NO/c9-4-6-3-7-1-5(2-7)8(6)7/h5-6,9H,1-4H2/t5-,6-,7+/m1/s1
