20
gdb 56202	4.74976	0.65371	0.6002	3.7276	75.68	-0.2434	0.0296	0.273	1812.4494	0.170039	-440.298572	-440.288425	-440.287481	-440.336432	34.727	
N	 0.0172154047	 1.2617905718	-0.382259179	-0.523217
C	 0.0430961018	 0.0239245514	 0.1934309828	 0.412109
O	 1.0159125042	-0.39430102	 0.7903751932	-0.356818
C	-1.247199628	-0.7828247678	 0.0438322714	-0.316416
C	-0.9914576669	-2.2922379378	 0.0855278125	-0.195197
C	-2.2728228743	-3.112932476	 0.1143828837	-0.029815
C	-3.1065468839	-3.2154897925	-1.1859920304	-0.075123
O	-2.9964153544	-4.651605931	-1.2020868869	-0.271484
C	-2.1404094266	-4.6453438642	-0.0409579133	-0.091919
H	 0.8101975215	 1.8672922527	-0.2467454549	 0.260736
H	-0.8010139488	 1.6293899617	-0.8341659179	 0.257069
H	-1.9055568504	-0.4946860631	 0.8755747161	 0.127416
H	-1.7714846191	-0.4962604303	-0.8760835676	 0.102083
H	-0.3887273229	-2.5839066771	-0.7841419129	 0.105853
H	-0.3789693805	-2.5108390273	 0.9661094223	 0.12925
H	-2.8822067244	-2.8310508414	 0.9788372454	 0.076437
H	-4.1508501953	-2.884298149	-1.130818591	 0.098101
H	-2.6374590538	-2.7587520448	-2.0698171522	 0.090912
H	-1.1261124855	-4.9961556071	-0.2763586537	 0.099504
H	-2.5472776373	-5.2578090481	 0.7725414724	 0.100519
22.195	43.0408	70.1268	102.6549	126.632	144.5812	234.7799	322.667	401.9553	461.3133	524.6062	603.614	667.6546	756.169	788.0919	858.633	877.8552	893.8141	949.2551	981.3324	1025.1144	1045.8475	1062.6947	1105.042	1115.8311	1136.5075	1159.3652	1165.0367	1225.1146	1247.2392	1276.6612	1309.6656	1316.5976	1330.4303	1372.2247	1402.4429	1410.7982	1465.1565	1491.5992	1511.8498	1537.3417	1617.8824	1798.2403	2988.487	3005.0623	3014.2404	3031.0582	3038.1576	3047.0445	3054.275	3065.0622	3090.8451	3603.3562	3741.0581
NC(=O)CCC1COC1	NC(=O)CCC1COC1	
InChI=1S/C6H11NO2/c7-6(8)2-1-5-3-9-4-5/h5H,1-4H2,(H2,7,8)	InChI=1S/C6H11NO2/c7-6(8)2-1-5-3-9-4-5/h5H,1-4H2,(H2,7,8)
