13
gdb 19042	4.35739	2.36342	2.02664	5.0993	56.35	-0.2783	0.0054	0.2837	673.3127	0.097704	-398.590264	-398.584929	-398.583985	-398.61965	21.248	
O	-0.0357263959	-0.0086677338	-0.0743467795	-0.332488
C	-0.0295451951	 1.1769032837	 0.0164713345	 0.457063
O	-1.1632425464	 1.9431378163	 0.0969030709	-0.228931
C	-0.7451061544	 3.2599362276	 0.4695311439	 0.059683
C	-0.0960755111	 3.1946523577	 1.8838684301	-0.260479
C	 1.2455211161	 2.980184357	 1.1736066933	-0.051675
C	 0.6769499325	 3.4059123814	-0.1338283244	-0.056701
N	 1.1348509804	 2.0271670712	 0.0190101128	-0.188597
H	-1.5431702686	 3.9663457567	 0.2606506614	 0.110422
H	-0.1110404529	 4.1691217081	 2.3786239369	 0.124246
H	-0.4748232309	 2.4226439829	 2.5588458481	 0.12736
H	 2.2409290155	 3.1044687689	 1.5798272108	 0.122342
H	 1.0460446907	 4.0244264424	-0.9416373988	 0.117756
154.3047	353.0851	444.9423	499.2706	681.3765	692.173	697.717	808.5796	842.3937	862.6632	884.5747	914.8717	922.5007	952.4809	990.8495	1026.2844	1044.034	1084.9042	1106.0783	1149.0826	1174.639	1220.2618	1253.9295	1273.9961	1342.0279	1347.7027	1484.0632	1913.9849	3062.8424	3122.5267	3169.1575	3198.6325	3211.2633
O=C1OC2CC3C2N13	O=C1O[C@H]2C[C@@H]3[C@H]2N13	
InChI=1S/C5H5NO2/c7-5-6-2-1-3(8-5)4(2)6/h2-4H,1H2	InChI=1S/C5H5NO2/c7-5-6-2-1-3(8-5)4(2)6/h2-4H,1H2/t2-,3+,4-,6?/m1/s1
