18
gdb 70084	2.60236	1.80621	1.37146	2.1896	76.48	-0.2235	0.0109	0.2343	978.3599	0.149562	-401.914511	-401.907222	-401.906278	-401.945709	30.295	
O	-0.045846354	 1.3624372272	 0.0539671262	-0.47425
C	-0.0058988674	-0.0403462209	 0.0523465168	 0.423293
C	-0.2724876822	-0.701593295	 1.3595976422	-0.318185
C	 1.1449399023	-0.7247355989	 0.775804101	-0.170074
C	 1.7297822468	-1.9431224273	 0.1775986386	-0.053968
C	 1.3043316087	-2.4841955941	-0.9697617848	-0.065929
C	 0.1907223027	-1.9017360514	-1.7532582824	-0.075433
N	-1.1732921086	-1.9719478155	-1.1545868191	-0.337597
C	-0.4840205534	-0.6764391347	-1.2314493062	-0.136122
H	 0.6708126174	 1.6798053734	-0.5065960958	 0.280773
H	-0.4310704594	-0.0461297702	 2.2078951055	 0.118173
H	-0.840133499	-1.6233951219	 1.3406209726	 0.142724
H	 1.8409971959	-0.0625152754	 1.2828999385	 0.08785
H	 2.558903863	-2.4024394941	 0.710436109	 0.090908
H	 1.7806724557	-3.3779070938	-1.3620120473	 0.088486
H	 0.2508853582	-2.0275935944	-2.8317651094	 0.08384
H	-1.8664998215	-2.0326613701	-1.8964111305	 0.231346
H	-0.8466471852	 0.0539801869	-1.9497720749	 0.084162
147.9441	230.7124	296.4204	322.9096	366.9436	402.3727	474.1423	513.5052	532.2432	587.0932	673.0613	747.118	800.5143	826.3194	864.4791	871.1103	900.1555	935.3546	941.4247	963.1827	979.7421	998.298	1061.5968	1086.5449	1093.7825	1110.131	1152.6624	1184.103	1208.2245	1229.5048	1258.6292	1274.2536	1326.8665	1388.1399	1418.4739	1424.5126	1448.2252	1480.1577	1697.3722	3129.3282	3142.3671	3144.536	3146.9459	3153.0444	3175.5455	3249.4838	3496.4012	3794.2341
OC12CC1C=CC1NC21	O[C@]12C[C@H]1C=C[C@H]1N[C@@H]21	
InChI=1S/C7H9NO/c9-7-3-4(7)1-2-5-6(7)8-5/h1-2,4-6,8-9H,3H2	InChI=1S/C7H9NO/c9-7-3-4(7)1-2-5-6(7)8-5/h1-2,4-6,8-9H,3H2/t4-,5-,6-,7-/m1/s1
