18
gdb 74886	2.86205	1.5727	1.10881	3.7676	79.5	-0.2331	-0.0255	0.2076	1101.9819	0.14935	-401.991641	-401.983657	-401.982713	-402.024055	31.046	
C	-0.0007533848	 1.5236026149	 0.049834513	-0.467799
C	-0.0129706187	 0.0229788897	 0.0067481924	 0.190571
C	-1.1251514505	-0.7193205867	 0.1084682106	-0.162733
C	-1.1296144177	-2.1936492201	 0.0349047016	-0.089762
C	-0.7229147754	-2.9016170571	-1.2552032814	-0.306534
C	 0.2201967637	-2.8627577807	-0.0813388597	 0.021515
N	 1.3541084642	-1.9949207523	-0.0720960624	-0.343881
C	 1.3266379673	-0.6226914433	-0.1303109932	 0.347968
O	 2.3534385309	 0.0275048889	-0.2547793437	-0.377597
H	 0.6312948624	 1.8842819499	 0.8674687103	 0.14124
H	 0.4295200836	 1.934789774	-0.8690562593	 0.140983
H	-1.0106084329	 1.9217087225	 0.1775018183	 0.109514
H	-2.0849503382	-0.2294161564	 0.2593810507	 0.097172
H	-1.8872931858	-2.6914720076	 0.6313872821	 0.099763
H	-1.2137481793	-3.8407567718	-1.485054104	 0.118907
H	-0.4884959349	-2.2748042669	-2.1080299132	 0.127283
H	 0.383140304	-3.7853758624	 0.4667132264	 0.106446
H	 2.2713931621	-2.3941206245	-0.2067442186	 0.246944
99.9029	136.7388	163.7239	297.4413	328.1231	369.4254	435.554	451.4816	516.6352	560.4316	585.9427	697.2354	746.1035	779.2147	803.9647	833.7862	875.5415	920.4603	993.7654	1023.1195	1036.3566	1048.8068	1073.0593	1093.0502	1123.9076	1141.5117	1198.5186	1238.3813	1295.6774	1388.0156	1395.0706	1414.8863	1424.9565	1453.7043	1468.789	1485.8571	1491.2456	1706.1541	1765.1972	3040.7697	3097.9914	3122.3718	3134.8829	3143.076	3150.5692	3160.8303	3232.1214	3612.9245
CC1=CC2CC2NC1=O	CC1=C[C@H]2C[C@H]2NC1=O	
InChI=1S/C7H9NO/c1-4-2-5-3-6(5)8-7(4)9/h2,5-6H,3H2,1H3,(H,8,9)	InChI=1S/C7H9NO/c1-4-2-5-3-6(5)8-7(4)9/h2,5-6H,3H2,1H3,(H,8,9)/t5-,6+/m0/s1
