13
gdb 132127	3.05617	1.43541	0.97669	1.4827	68.64	-0.2033	-0.0466	0.1567	1083.8257	0.088313	-497.872711	-497.865254	-497.86431	-497.904677	28.335	
O	 0.0699913425	 1.3315845954	 0.0073646797	-0.390404
C	-0.0323231817	 0.0002527275	 0.0009035181	 0.357966
C	-1.203046656	-0.6767754021	 0.0035801279	 0.063426
F	-2.3722314598	-0.0240723687	 0.0132437032	-0.069429
C	-1.1685143589	-2.098134411	-0.0040883421	-0.154476
C	 0.0108447669	-2.7643582503	-0.0138864521	-0.179472
C	 1.2672185595	-2.0553212991	-0.0168322819	 0.385744
N	 2.4183974595	-2.586539197	-0.0258104158	-0.532252
O	 1.1507234738	-0.6385867195	-0.0087614525	-0.282389
H	 1.0091359571	 1.5583323656	 0.0035496012	 0.31572
H	-2.1155315212	-2.6268168734	-0.001829	 0.132759
H	 0.0712698536	-3.8434915242	-0.0199038105	 0.131263
H	 3.1564176046	-1.884263153	-0.0260519953	 0.221544
104.1007	187.0759	283.9444	302.2119	346.4461	346.5276	431.5988	463.0621	505.774	590.8389	641.8979	701.109	732.3621	785.2393	799.0806	831.9278	890.0685	980.1021	1024.7614	1129.7594	1151.0569	1248.6369	1281.5155	1306.6323	1397.1439	1463.0131	1606.4315	1711.0207	1776.6273	3199.4755	3240.3897	3508.6711	3796.2536
OC1=C(F)C=CC(=N)O1	OC1=C(F)CC=C([NH])O1	
InChI=1S/C5H4FNO2/c6-3-1-2-4(7)9-5(3)8/h1-2,7-8H	InChI=1S/C5H5FNO2/c6-3-1-2-4(7)9-5(3)8/h2,7-8H,1H2
