16
gdb 127492	3.22198	1.46954	1.01664	2.0981	79.36	-0.1922	-0.065	0.1272	1121.9833	0.126094	-430.256357	-430.248131	-430.247187	-430.289112	30.935	
C	-0.2747066129	 1.3588834251	-0.0254220043	-0.30696
N	 0.0320392303	-0.0593417995	-0.0025213533	-0.032101
N	 0.1854175933	-0.6649047914	-1.2088078124	-0.293779
C	 0.4465953574	-1.9383784209	-1.1996486142	 0.435994
N	 0.5185326111	-2.6248984338	-2.3980346547	-0.555958
N	 0.6249881202	-2.7191406327	-0.0698315742	-0.281935
C	 0.4861453759	-2.1156679486	 1.0587141837	-0.038874
C	 0.152462214	-0.700501705	 1.2154086831	 0.353174
N	-0.0168012096	-0.0467591037	 2.3148895439	-0.577273
H	 0.4883988526	 1.9157704795	 0.526915781	 0.149024
H	-0.3080405274	 1.6717177514	-1.0673567963	 0.140586
H	-1.2342809811	 1.5434093406	 0.4675868091	 0.149458
H	 0.6699194244	-2.0393179478	-3.2056952507	 0.2594
H	 1.1087936588	-3.4422073424	-2.3604763241	 0.260289
H	 0.6289394564	-2.6929641241	 1.9725690096	 0.129262
H	 0.1116881565	-0.6692593365	 3.1110887237	 0.209693
80.1437	139.1692	177.2295	294.1721	317.3213	338.6064	371.7376	393.176	485.0662	554.5372	575.6401	587.0646	630.1965	747.7973	757.049	788.8059	832.0179	929.7294	974.5657	1037.0256	1109.2965	1149.6907	1152.6695	1239.5816	1318.929	1357.1238	1402.794	1431.9051	1466.6866	1469.7027	1503.0654	1566.53	1616.7752	1643.1855	1699.3521	3044.7519	3100.0913	3131.0484	3175.6388	3490.7933	3576.9948	3691.2571
CN1N=C(N)N=CC1=N	CN1N=C(N)N=C[C@H]1[NH]	
InChI=1S/C4H7N5/c1-9-3(5)2-7-4(6)8-9/h2,5H,1H3,(H2,6,8)	InChI=1S/C4H8N5/c1-9-3(5)2-7-4(6)8-9/h2-3,5H,1H3,(H2,6,8)/t3-/m0/s1
