15
gdb 15569	3.42033	1.78353	1.22778	3.8378	69.69	-0.2683	-0.0452	0.2231	943.6968	0.119896	-362.692472	-362.685012	-362.684068	-362.724461	27.276	
O	-0.0913810141	 1.4600730731	-0.0131996079	-0.421548
C	 0.0497714593	 0.0527372687	-0.0300146552	 0.018907
C	-1.3485124786	-0.597892451	 0.002304836	-0.228448
C	-1.2932054932	-1.7976403934	-0.9743965333	-0.262193
C	-0.0938554024	-1.4974505943	-1.8319702804	-0.156358
C	 0.6411736939	-0.4993385668	-1.328206374	 0.197273
C	 1.8502765796	 0.026263729	-1.8538397429	 0.189394
N	 2.8381051462	 0.5065025844	-2.2239339718	-0.339144
H	 0.7860049812	 1.8564167817	 0.0275259797	 0.296063
H	 0.6704658082	-0.2754808382	 0.8188081025	 0.086254
H	-1.6538204463	-0.8797737352	 1.0114166271	 0.112437
H	-2.0517923665	 0.1555973021	-0.363161905	 0.133696
H	-1.1483146844	-2.7501536515	-0.4464280012	 0.126462
H	-2.2082923303	-1.9143077907	-1.5648179919	 0.123429
H	 0.1489301474	-2.0507684979	-2.7319259916	 0.123777
85.3445	130.6948	170.4103	294.7141	310.9095	373.3908	467.9583	510.9588	564.7799	648.11	676.9641	807.3821	843.9328	901.5215	935.2559	952.8521	1021.6468	1045.0236	1103.5855	1155.1448	1176.6819	1232.8952	1263.7602	1287.0625	1303.9739	1335.9957	1347.8543	1419.7801	1476.8493	1494.6332	1685.1769	2332.8944	2972.2281	3019.7568	3063.4571	3075.6004	3125.6003	3205.6746	3807.7927
OC1CCC=C1C#N	O[C@H]1CCC=C1C#N	
InChI=1S/C6H7NO/c7-4-5-2-1-3-6(5)8/h2,6,8H,1,3H2	InChI=1S/C6H7NO/c7-4-5-2-1-3-6(5)8/h2,6,8H,1,3H2/t6-/m0/s1
