15
gdb 35020	2.8527	1.32291	1.09846	3.5211	75.61	-0.298	-0.0167	0.2813	1097.9095	0.113796	-379.672293	-379.664553	-379.663609	-379.704745	28.725	
N	 0.0882196165	-1.1375033333	 0.0182156132	-0.336099
C	 0.0613883524	 0.0186038788	 0.0304628902	 0.312289
C	 0.0516862132	 1.4575324281	 0.0656215544	-0.230516
C	 0.4865806391	 2.2453450973	 1.2780166358	-0.101265
C	 1.5966028981	 1.5186014748	 2.0433213777	-0.241252
C	 2.4790335996	 1.5210818718	 0.7519844076	-0.297112
C	 1.3508901707	 2.2584683307	 0.0057319737	 0.200155
C	 1.5245009821	 3.2870790167	-0.9675777771	 0.194384
N	 1.6777468421	 4.1268155567	-1.7490669841	-0.335914
H	-0.7619867499	 1.9107209338	-0.4915570008	 0.159071
H	-0.1486042873	 3.0367342216	 1.6554274909	 0.128857
H	 2.0246095917	 2.1333334701	 2.8357248994	 0.12851
H	 1.3253697655	 0.5427826589	 2.4520386436	 0.1392
H	 3.369125267	 2.1416182518	 0.8550821202	 0.138042
H	 2.7576009593	 0.5519066322	 0.3335333552	 0.141652
107.4762	138.9455	169.3187	187.8847	315.6609	369.7091	496.8023	515.763	546.5094	577.8209	625.1389	763.4176	791.8938	816.7919	873.429	941.0128	949.2169	978.3734	1037.1434	1060.0647	1090.8829	1141.6737	1204.2218	1215.0437	1238.6987	1247.8539	1287.4469	1326.2742	1425.8582	1478.5051	1500.3895	2348.9177	2356.1166	3080.0431	3085.7664	3132.9086	3150.4272	3174.6294	3202.7917
N#CC1C2CCC12C#N	N#C[C@H]1[C@H]2CC[C@@]12C#N	
InChI=1S/C7H6N2/c8-3-6-5-1-2-7(5,6)4-9/h5-6H,1-2H2	InChI=1S/C7H6N2/c8-3-6-5-1-2-7(5,6)4-9/h5-6H,1-2H2/t5-,6+,7+/m1/s1
