19
gdb 121695	6.18196	0.60051	0.56715	6.5098	76.9	-0.249	-0.0051	0.2439	1954.7145	0.157674	-456.406678	-456.395994	-456.39505	-456.445441	35.934	
C	-0.1870191944	 1.4630210012	 0.0421547333	-0.37882
C	-0.0655206996	-0.0505311351	-0.1512714373	-0.168488
C	 1.1384621534	-0.4268309376	-1.0207572586	-0.144398
N	 1.2808391213	-1.8642115816	-1.1946222529	-0.378544
C	 1.2743841442	-2.4470435139	-2.4370798013	 0.523179
O	 1.1376435472	-1.8468115253	-3.4752817331	-0.354007
N	 1.4227087077	-3.8551955612	-2.3595751068	-0.391543
C	 1.6146667967	-4.7374081461	-3.4131830357	 0.168053
O	 1.7565684877	-4.4650394453	-4.5724946107	-0.256826
H	 0.7054857915	 1.8755755664	 0.5256245114	 0.116708
H	-0.3099160996	 1.9752718822	-0.9180286871	 0.126325
H	-1.0491986058	 1.7135529198	 0.666651431	 0.118673
H	 0.0230907693	-0.5423173735	 0.8270198838	 0.087403
H	-0.9743357191	-0.4485502683	-0.6171114765	 0.111739
H	 1.0365692418	-0.0098071732	-2.025206906	 0.157111
H	 2.0585797834	-0.0125734662	-0.5859813199	 0.104582
H	 1.5462882682	-2.4093278124	-0.3908029427	 0.236614
H	 1.3381372373	-4.2871659726	-1.4515088758	 0.245414
H	 1.6314852589	-5.7783282172	-3.0261066351	 0.076824
9.657	48.4038	66.2736	83.3344	180.7314	198.4307	237.8259	267.4008	301.0863	324.9384	347.8962	499.115	548.9184	600.361	749.973	763.7559	835.6006	894.3707	897.7404	966.5252	1027.5612	1035.2201	1079.1764	1127.9805	1165.4794	1181.5816	1223.2643	1277.76	1327.2823	1339.2794	1405.8959	1415.9653	1451.374	1486.0795	1494.7574	1500.4676	1509.355	1511.4024	1537.3458	1806.971	1875.7409	2906.8141	3011.5041	3016.4911	3034.108	3062.7722	3100.2076	3110.6012	3120.3751	3609.5206	3636.2572
CCCNC(=O)NC=O	CCCNC(=O)NC=O	
InChI=1S/C5H10N2O2/c1-2-3-6-5(9)7-4-8/h4H,2-3H2,1H3,(H2,6,7,8,9)	InChI=1S/C5H10N2O2/c1-2-3-6-5(9)7-4-8/h4H,2-3H2,1H3,(H2,6,7,8,9)
