25
gdb 109174	3.68359	0.89137	0.7876	0.2055	96.1	-0.2251	0.0349	0.2601	1601.4536	0.229935	-352.393623	-352.383811	-352.382867	-352.428174	37.797	
C	 0.1127339338	 1.5324532675	 0.2885658028	-0.371511
C	 0.0157064241	 0.0504536256	-0.1150156578	-0.271092
C	-1.3928648451	-0.4938573012	-0.1089325617	 0.33606
C	-1.9846333235	-0.9320267455	-1.2237259792	-0.165674
C	-3.389635396	-1.46983155	-1.2967359597	-0.240228
C	-4.2142299433	-1.1756631483	-0.0326431171	 0.043034
C	-5.51742303	-1.9779515303	-0.0075324868	-0.403852
C	-3.350546581	-1.4298218486	 1.2102257017	-0.197535
C	-2.1107134966	-0.5260076452	 1.2243862514	-0.30438
H	 1.1506098292	 1.8779966509	 0.2508546253	 0.110597
H	-0.4784549262	 2.1595266783	-0.3867645452	 0.117164
H	-0.2538125946	 1.6995171187	 1.3061827623	 0.117464
H	 0.4497707458	-0.0806757433	-1.1125559826	 0.095202
H	 0.6355418613	-0.5399017349	 0.5757041864	 0.095405
H	-1.4262388233	-0.9127323786	-2.1586162032	 0.069805
H	-3.8990511668	-1.0566244935	-2.1779249914	 0.096546
H	-3.3576403126	-2.557949976	-1.4687354395	 0.098691
H	-4.4687471741	-0.1055673373	-0.0446818217	 0.0695
H	-5.3134191714	-3.054507876	 0.0396104356	 0.110732
H	-6.1293663443	-1.7174343845	 0.8627039026	 0.107795
H	-6.117086512	-1.7938448916	-0.9057684933	 0.108186
H	-3.9387898514	-1.2754071683	 2.1224933298	 0.085623
H	-3.0357266921	-2.4825697825	 1.2144770218	 0.092889
H	-1.4131487994	-0.8557769004	 2.006544517	 0.093909
H	-2.4022365507	 0.495208525	 1.5105198224	 0.105671
67.4703	86.9267	192.775	193.9888	219.751	241.1385	287.5866	316.5997	373.5888	400.321	416.5881	491.3999	559.0968	662.3808	755.1699	785.0987	806.1837	832.6238	910.0885	917.0507	948.7813	959.0149	972.5559	1017.919	1043.6417	1070.073	1091.3555	1106.302	1119.0265	1161.208	1170.3029	1188.6544	1254.1537	1277.8689	1284.2568	1323.8856	1333.397	1338.7648	1358.9216	1378.1068	1389.2839	1403.5674	1406.55	1415.24	1473.8239	1478.1871	1481.4929	1492.7051	1498.125	1498.5522	1500.8371	1508.7106	1735.7156	2976.3946	2992.8321	2996.6688	3000.3312	3010.7065	3022.4994	3025.5379	3029.7169	3035.7026	3057.6519	3058.5437	3088.5256	3094.0133	3104.5416	3108.3128	3130.9847
CCC1=CCC(C)CC1	CCC1=CC[C@@H](C)CC1	
InChI=1S/C9H16/c1-3-9-6-4-8(2)5-7-9/h6,8H,3-5,7H2,1-2H3	InChI=1S/C9H16/c1-3-9-6-4-8(2)5-7-9/h6,8H,3-5,7H2,1-2H3/t8-/m1/s1
