16
gdb 85165	2.17164	1.75667	1.0809	2.1462	65.99	-0.2562	-0.0395	0.2167	1079.8508	0.123556	-475.065854	-475.05744	-475.056496	-475.099212	31.65	
N	 0.0204168073	 1.2025525526	 0.3543843222	-0.521382
C	 0.0961973616	-0.0673848842	-0.1121238585	 0.416077
O	 1.1087706113	-0.5693571836	-0.5778638021	-0.387764
C	-1.2100564452	-0.8392316494	-0.029122569	-0.275399
C	-1.1259495317	-2.3881969483	 0.2001664248	 0.110716
O	 0.0973586117	-2.7996225276	 0.7441872293	-0.434563
C	-2.1970895107	-2.2743885203	 1.3264368881	-0.337425
C	-2.0250046868	-0.7551598615	 1.2725052554	 0.389997
O	-2.3040060535	 0.1659835368	 1.9891864242	-0.312077
H	 0.8768962109	 1.7299379727	 0.4236842046	 0.266152
H	-0.7685298032	 1.4730477888	 0.92563243	 0.281274
H	-1.8374750744	-0.573854508	-0.887920728	 0.137719
H	-1.4226762162	-2.9926928919	-0.6651933091	 0.077069
H	 0.7898187701	-2.3806904149	 0.2075948246	 0.304111
H	-3.2019327331	-2.5812868427	 1.0195198492	 0.135163
H	-1.9379449481	-2.7587640885	 2.2701221943	 0.150332
77.2385	81.0071	169.1506	220.5537	353.1866	372.2377	417.4326	439.63	467.9599	508.5717	586.1064	599.7778	625.3641	713.0795	729.489	762.8533	851.8063	913.2515	962.758	1012.5061	1047.3941	1077.9478	1120.2425	1144.056	1203.3662	1216.5712	1241.8166	1259.4912	1356.5659	1378.515	1418.3068	1431.6194	1629.6415	1771.6656	1871.2133	3027.1088	3058.324	3066.3856	3132.0412	3549.5291	3678.0458	3691.1727
NC(=O)C1C(O)CC1=O	NC(=O)[C@H]1[C@@H](O)CC1=O	
InChI=1S/C5H7NO3/c6-5(9)4-2(7)1-3(4)8/h2,4,7H,1H2,(H2,6,9)	InChI=1S/C5H7NO3/c6-5(9)4-2(7)1-3(4)8/h2,4,7H,1H2,(H2,6,9)/t2-,4-/m0/s1
