16
gdb 47634	2.49417	1.63874	1.03848	7.5466	75.48	-0.2228	-0.0674	0.1554	1097.7751	0.125941	-437.920617	-437.912603	-437.911659	-437.954017	29.606	
O	-0.1163593684	 1.012433012	-1.5958913417	-0.270117
C	-0.0001635281	 1.3379319508	-0.4416900608	 0.285051
C	-1.1778836654	 1.274290358	 0.5219105139	-0.307856
C	-1.6100577286	 2.6655489647	 1.0034254653	-0.178819
N	-0.7824217697	 3.1777520169	 2.0808568787	-0.290083
C	 0.5721767472	 3.1952228638	 2.1027618971	 0.024951
C	 1.4987318722	 2.6327087911	 1.2797252921	-0.205717
C	 1.3824982191	 1.8140590729	 0.0839025031	 0.255499
O	 2.3645550767	 1.4469240002	-0.5375485301	-0.323825
H	-2.0027015111	 0.8089024441	-0.0221735425	 0.133871
H	-0.9318002371	 0.6502977126	 1.3892855516	 0.130878
H	-1.6185983193	 3.3634973624	 0.1511743062	 0.129628
H	-2.6329828738	 2.6106641582	 1.3848873487	 0.126946
H	-1.2418834424	 3.7810380118	 2.7414297579	 0.25819
H	 0.9556748137	 3.7543221662	 2.952922398	 0.125059
H	 2.5325433149	 2.8217360843	 1.5481610324	 0.106344
33.0176	122.6126	211.2624	286.6852	322.8586	344.1745	383.0861	434.8183	516.3591	537.0042	623.2022	638.2727	764.4997	831.5875	841.8769	876.532	933.6061	992.3615	1000.2571	1048.6966	1091.0526	1158.0379	1217.6269	1269.6727	1300.2502	1345.9794	1348.9596	1385.293	1450.9067	1461.609	1494.9093	1555.0068	1675.0038	1727.7473	1816.3683	2982.418	3045.658	3089.1669	3118.2125	3159.3904	3190.9427	3654.8598
O=C1CCNC=CC1=O	O=C1CCNC=CC1=O	
InChI=1S/C6H7NO2/c8-5-1-3-7-4-2-6(5)9/h1,3,7H,2,4H2	InChI=1S/C6H7NO2/c8-5-1-3-7-4-2-6(5)9/h1,3,7H,2,4H2
