18
gdb 120804	5.16733	0.63931	0.60793	5.285	74.47	-0.2708	0.0246	0.2953	1808.3414	0.145217	-439.059486	-439.049629	-439.048685	-439.095969	33.483	
C	 0.1077555185	 1.3261123987	 0.3779090624	-0.229357
O	 0.0007482541	-0.0756587154	 0.2815538719	-0.232732
C	-1.2541933581	-0.497952469	-0.1960247717	-0.083633
C	-1.2334764038	-2.003519364	-0.2611344854	 0.043845
O	-1.7028619305	-2.7364926732	 0.8768852599	-0.239696
C	-2.4323059686	-2.8503303136	-0.338222792	 0.056461
C	-3.8499151191	-2.2936913615	-0.3557706931	-0.374016
C	-4.8237320638	-3.2569695988	 0.1590106146	 0.264918
N	-5.5888970635	-4.0266085396	 0.5543970558	-0.294935
H	 1.1114152719	 1.550053598	 0.7455344294	 0.135731
H	-0.0318565712	 1.813436153	-0.6001358422	 0.105916
H	-0.6305022018	 1.7442325798	 1.0796619289	 0.110271
H	-2.0625059432	-0.1511921119	 0.4661694707	 0.096948
H	-1.4442284462	-0.084717838	-1.2036088701	 0.091761
H	-0.3134225123	-2.3973479265	-0.6945185918	 0.111666
H	-2.3374874361	-3.8175936629	-0.8330985851	 0.115478
H	-3.9086886718	-1.3806036102	 0.2420660016	 0.161943
H	-4.1312110246	-2.0352846747	-1.3839798538	 0.159431
38.3566	70.0733	79.1326	98.1036	163.4725	229.0086	249.6626	325.1005	382.8429	384.0787	487.1993	503.9709	570.733	797.9132	853.989	897.6437	954.7841	981.3356	1001.3661	1058.8023	1085.4641	1146.0112	1156.9199	1171.8952	1186.8365	1228.207	1241.1262	1269.711	1298.4417	1320.	1369.2651	1422.6785	1448.9545	1475.3627	1485.4958	1494.4411	1500.4207	1521.045	2367.1066	2939.9071	2972.4809	2997.0394	3018.7121	3046.2603	3099.1707	3110.5389	3118.9758	3123.0437
COCC1OC1CC#N	COC[C@H]1O[C@H]1CC#N	
InChI=1S/C6H9NO2/c1-8-4-6-5(9-6)2-3-7/h5-6H,2,4H2,1H3	InChI=1S/C6H9NO2/c1-8-4-6-5(9-6)2-3-7/h5-6H,2,4H2,1H3/t5-,6+/m0/s1
