17
gdb 73518	3.18218	1.68843	1.35029	2.2662	73.98	-0.2313	-0.0003	0.231	960.8446	0.136582	-421.768838	-421.76181	-421.760866	-421.799876	28.922	
O	 0.0309440025	 1.4021558922	-0.2875269572	-0.487111
C	 0.0098855877	 0.013457105	-0.0725302757	 0.38471
C	 1.1120074139	-0.6372399187	-0.9178356741	-0.29299
C	 2.2953491842	-0.7728388455	 0.0945434544	-0.247811
C	 1.5742582084	-0.9998060536	 1.4250108819	-0.217504
C	 0.3374548561	-0.523566031	 1.3320240158	 0.235451
C	-1.0876537047	-0.8386621136	 1.6214484184	-0.103199
O	-1.9065379981	 0.2959941401	 1.2566863257	-0.25408
C	-1.4301882605	-0.5447724519	 0.196787308	-0.07675
H	-0.5911027318	 1.7773501578	 0.3502975398	 0.286768
H	 0.8075168991	-1.6358818874	-1.2474933398	 0.10256
H	 1.3478250311	-0.0368276037	-1.7996019172	 0.112436
H	 2.9484286728	-1.6158568624	-0.1530307754	 0.104083
H	 2.9264384802	 0.1248529009	 0.1024201325	 0.122228
H	 1.9932819525	-1.5886859099	 2.2331283339	 0.099447
H	-1.5251128232	-1.5509968293	 2.3096186028	 0.117991
H	-2.1719519502	-1.003324499	-0.4494303539	 0.113769
152.8332	241.3661	257.3805	311.3098	373.5429	468.3374	511.5956	549.4426	620.3738	678.0907	714.3024	774.0114	804.8154	833.2335	852.0633	875.6453	899.942	933.2861	958.5988	975.1229	1008.1605	1049.3185	1082.1076	1103.2462	1110.3542	1195.7935	1211.9206	1228.0875	1244.7537	1278.3178	1303.0684	1313.0982	1341.5293	1406.5407	1470.9962	1486.3556	1733.7379	3028.9759	3052.6479	3077.2853	3114.2877	3168.4543	3192.8282	3204.9461	3760.3732
OC12CCC=C1C1OC21	O[C@@]12CC[CH][C]1[C@H]1O[C@@H]21	
InChI=1S/C7H8O2/c8-7-3-1-2-4(7)5-6(7)9-5/h2,5-6,8H,1,3H2	InChI=1S/C7H8O2/c8-7-3-1-2-4(7)5-6(7)9-5/h2,5-6,8H,1,3H2/t5-,6-,7+/m1/s1
