16
gdb 19229	3.17342	1.98616	1.56355	2.4673	67.84	-0.2547	0.0182	0.2729	852.0492	0.131243	-342.753627	-342.74628	-342.745335	-342.785168	27.466	
C	-0.2353330372	 1.5829016835	 0.0776685712	-0.413611
C	 0.0340206047	 0.0922401553	 0.0367717509	 0.056772
C	 1.1002466462	-0.5152236225	-0.9551237505	-0.207659
C	 1.8877563548	 0.3835032078	-1.7854237478	 0.285008
N	 2.5045140955	 1.1256142112	-2.4231676199	-0.334757
C	 1.7742019602	-1.0876425131	 0.2990439359	-0.026852
C	 2.1038342794	-0.0229404101	 1.2604137244	-0.248314
N	 0.7179683106	-0.529125629	 1.228924363	-0.131978
H	 0.6780725032	 2.1796491671	 0.1362807784	 0.137205
H	-0.7736631229	 1.8941683935	-0.8230380855	 0.134015
H	-0.8578349302	 1.8169765615	 0.9469467919	 0.135774
H	-0.9078320041	-0.4451484252	-0.0963444319	 0.102318
H	 0.6554659504	-1.2871842834	-1.5858206186	 0.131321
H	 2.1382499898	-2.1056397616	 0.3797717726	 0.1122
H	 2.6278450311	-0.315814715	 2.1642352943	 0.133431
H	 2.3355755686	 0.9779978401	 0.9083345317	 0.135128
117.677	133.3418	192.5683	255.872	301.2752	398.9412	488.2325	537.8377	602.8463	709.5188	769.749	776.08	791.986	899.0862	936.4079	989.818	1018.4851	1062.7294	1102.0551	1110.6201	1113.7905	1121.3821	1156.2103	1203.0509	1234.1806	1291.835	1330.8522	1368.0315	1378.6224	1412.496	1484.5667	1491.3122	1507.5568	2349.0563	3043.6764	3073.9649	3098.6583	3113.212	3121.5095	3128.9362	3177.1075	3213.8044
CC1C(C#N)C2CN12	C[C@H]1[C@@H](C#N)[C@H]2CN12	
InChI=1S/C6H8N2/c1-4-5(2-7)6-3-8(4)6/h4-6H,3H2,1H3	InChI=1S/C6H8N2/c1-4-5(2-7)6-3-8(4)6/h4-6H,3H2,1H3/t4-,5+,6+,8?/m0/s1
