16
gdb 124906	3.5737	1.36497	1.2383	3.3105	70.3	-0.2566	0.0146	0.2713	1036.7426	0.125305	-434.048725	-434.040849	-434.039904	-434.081292	29.184	
C	-0.2019833108	 1.5568178046	 0.0414651873	-0.450127
C	-0.029830532	 0.0447697404	 0.0242546804	 0.217643
O	-1.2428249324	-0.6374337953	 0.2296837423	-0.444625
C	 0.6994699716	-0.5622467005	-1.2566673913	-0.191238
N	 1.7485391238	-0.9895491574	-0.3149163153	 0.076158
N	 2.9612504542	-1.5322431267	-0.0814150759	-0.284082
C	 3.0345159779	-1.332243672	 1.2419850411	 0.020015
N	 1.9744945977	-0.6923071208	 1.8413586851	-0.391249
C	 1.1964610051	-0.5053708182	 0.7885808379	 0.33703
H	 0.7370565367	 2.0677723987	-0.1885511192	 0.136138
H	-0.9616726766	 1.855180704	-0.6867249718	 0.134773
H	-0.5250436058	 1.8875221219	 1.0345406603	 0.131962
H	-1.605919289	-0.3612916889	 1.0786149398	 0.292361
H	 0.1553095162	-1.3856487873	-1.7213674977	 0.149644
H	 1.0372984562	 0.1632470393	-1.9996954908	 0.138309
H	 3.8960487073	-1.6654502919	 1.8019474676	 0.127286
73.4719	136.1899	225.2567	239.4842	281.4035	321.827	361.5524	453.8294	533.6122	628.8713	669.3373	732.7773	779.1276	860.2911	886.5106	926.5336	959.0928	987.5829	1065.0374	1093.3196	1133.0013	1159.0698	1193.9594	1225.9201	1245.3624	1261.1974	1309.7065	1358.3867	1405.6572	1410.3962	1477.2241	1487.0394	1490.7136	1506.9523	1564.2907	3037.9592	3075.6489	3108.4755	3124.8452	3145.3378	3257.9476	3808.4581
CC1(O)CN2N=CN=C12	C[C@@]1(O)Cn2ncnc12	
InChI=1S/C5H7N3O/c1-5(9)2-8-4(5)6-3-7-8/h3,9H,2H2,1H3	InChI=1S/C5H7N3O/c1-5(9)2-8-4(5)6-3-7-8/h3,9H,2H2,1H3/t5-/m1/s1
