21
gdb 108322	3.00255	1.26639	1.05502	1.7108	78.46	-0.2349	0.0696	0.3045	1213.9724	0.181571	-424.186973	-424.177831	-424.176887	-424.220763	34.795	
C	 0.1045572973	 1.4179784026	-0.0276555611	-0.262057
O	 0.0833747336	 0.0055620412	-0.0469308171	-0.294553
C	 0.6083430591	-0.5771656945	 1.1074413315	 0.458262
C	 2.1280873417	-0.4734299541	 1.3815308069	-0.290797
C	 2.135354483	-1.9932790374	 1.7348928142	-0.234221
C	 0.6709240996	-2.136116495	 1.2260925183	-0.111256
C	-0.3969076932	-2.0925974568	 2.3331548503	 0.136312
O	-0.0630835452	-2.8347374763	 3.4844289842	-0.431152
C	-0.2875364113	-0.5338240206	 2.3896144744	-0.348163
H	 1.1282636602	 1.811066548	 0.0566395916	 0.109908
H	-0.3269517557	 1.7597722443	-0.9713240246	 0.125856
H	-0.4908559354	 1.8268481483	 0.8023406343	 0.105681
H	 2.67494202	-0.2680999624	 0.4566907107	 0.103308
H	 2.457175769	 0.2276946472	 2.1540863625	 0.089799
H	 2.866665835	-2.5843474577	 1.1815971627	 0.102569
H	 2.2408460612	-2.2172316369	 2.7973112937	 0.121827
H	 0.5072459484	-2.8004076069	 0.378094326	 0.068373
H	-1.3762653722	-2.3980173747	 1.9393074885	 0.070453
H	-0.7491600543	-2.6932757686	 4.1442261131	 0.283233
H	 0.2193778726	-0.1643171471	 3.2856034017	 0.095355
H	-1.2330909033	-0.0021658725	 2.2609147883	 0.101262
72.3156	115.8362	176.9645	190.9161	237.2139	263.9063	331.0166	354.7473	365.9504	434.3507	559.9714	596.4344	624.5996	757.7251	778.458	849.2336	882.7968	923.9147	941.3128	945.4022	1018.4945	1033.5038	1043.1036	1080.4102	1134.4938	1150.1921	1170.8781	1178.2863	1183.0942	1208.8557	1215.4443	1230.917	1240.9007	1244.7175	1273.4931	1311.6926	1320.0171	1334.5721	1416.5136	1460.4128	1474.5754	1481.6139	1486.9187	1498.6571	1508.496	2984.3161	2996.0478	3031.959	3046.649	3054.5633	3081.4196	3099.1224	3114.0214	3115.792	3117.0103	3137.6192	3818.6041
COC12CCC1C(O)C2	CO[C@]12CC[C@H]1[C@@H](O)C2	
InChI=1S/C7H12O2/c1-9-7-3-2-5(7)6(8)4-7/h5-6,8H,2-4H2,1H3	InChI=1S/C7H12O2/c1-9-7-3-2-5(7)6(8)4-7/h5-6,8H,2-4H2,1H3/t5-,6-,7-/m0/s1
