18
gdb 68335	3.29015	1.17851	1.02456	3.9061	73.37	-0.2487	0.0295	0.2782	1187.4273	0.147858	-439.058731	-439.050372	-439.049428	-439.09252	31.615	
O	 0.0021673047	 1.3473356156	 0.1038604887	-0.477441
C	 0.0649796463	-0.0320574842	 0.0197380454	 0.344185
C	 0.6504987147	-0.9363146619	-1.1094931816	-0.289616
C	-0.0067880804	-1.8945753638	-0.0740875343	-0.055239
C	 0.655737522	-1.0502009566	 1.0505848453	-0.294678
C	-1.2083187408	-0.8979461575	-0.0553880508	 0.062918
N	-2.0975330531	-0.855623347	 1.0822512464	-0.308723
C	-3.0110757969	-1.8332155491	 1.3261970063	 0.144422
O	-3.0919276492	-2.8722317858	 0.7064401217	-0.323794
H	 0.8962656239	 1.6931590119	 0.1977200683	 0.287342
H	 0.1775818832	-0.8656119295	-2.092188918	 0.101137
H	 1.7394914191	-0.9824254229	-1.1817235085	 0.093295
H	-0.0780150084	-2.9753566802	-0.133698445	 0.106215
H	 1.7460354988	-1.0997692312	 1.1131600624	 0.089495
H	 0.1893990681	-1.0877654274	 2.0353292796	 0.101079
H	-1.7654753039	-0.8443296812	-0.9960651322	 0.090949
H	-2.1779369487	 0.0145932396	 1.5860100185	 0.255447
H	-3.6769987894	-1.5778446589	 2.1754252477	 0.073007
30.1567	124.9721	208.1382	218.8883	254.4232	337.3575	407.0808	433.0284	522.8049	530.6302	610.8282	648.5705	762.1261	790.7932	847.7816	922.0234	936.9124	953.0721	963.1749	1020.5447	1034.4941	1046.4802	1081.6213	1103.9881	1112.6135	1133.9913	1147.8648	1199.6753	1207.5526	1223.0692	1245.9975	1293.668	1364.9106	1417.8433	1428.4802	1492.209	1503.5182	1540.4822	1805.8108	2927.7229	3054.6795	3060.5245	3067.4031	3128.0461	3141.8346	3181.5026	3619.7872	3813.2746
OC12CC(C1)C2NC=O	O[C@@]12C[C@@H](C1)[C@H]2NC=O	
InChI=1S/C6H9NO2/c8-3-7-5-4-1-6(5,9)2-4/h3-5,9H,1-2H2,(H,7,8)	InChI=1S/C6H9NO2/c8-3-7-5-4-1-6(5,9)2-4/h3-5,9H,1-2H2,(H,7,8)/t4-,5-,6-/m1/s1
