25
gdb 100098	2.45818	0.92721	0.87864	2.2193	85.24	-0.254	0.0635	0.3175	1531.8534	0.225573	-426.628581	-426.61684	-426.615896	-426.665129	43.726	
C	-0.2688140811	 1.7479503021	 1.2002118751	-0.405014
C	-0.066380371	 0.3977031288	 1.8912460851	 0.11514
O	-1.2983906258	-0.0808030204	 2.4331635809	-0.425894
C	 0.477948346	-0.6495701923	 0.9125768971	-0.199437
C	 0.7339411565	-2.0950350412	 1.4216849491	 0.240342
C	-0.5830987514	-2.8898089022	 1.5281941054	-0.428698
C	 1.6580259383	-2.7980626194	 0.4090778637	-0.402006
C	 1.4321496562	-2.0549417223	 2.7993203845	-0.083938
O	 1.8480618786	-3.3307971603	 3.2698901404	-0.431144
H	-0.9883213367	 1.6536420557	 0.380543242	 0.124852
H	-0.6523128557	 2.4930952749	 1.9073960134	 0.101914
H	 0.673345419	 2.1316122026	 0.7958036874	 0.117606
H	 0.6624962185	 0.5357017069	 2.7060452065	 0.069897
H	-1.6513101839	 0.6017516477	 3.0127085891	 0.28038
H	-0.2019676621	-0.7014859702	 0.0519540317	 0.096114
H	 1.4249588791	-0.2473089168	 0.5306517094	 0.091543
H	-1.0851065965	-2.9353272608	 0.555755962	 0.107976
H	-0.3898212707	-3.9252620585	 1.8324512221	 0.09268
H	-1.2718626101	-2.4286643145	 2.2376824476	 0.137343
H	 2.6125406549	-2.2688199754	 0.3086636678	 0.102752
H	 1.8774416444	-3.8181674233	 0.7331392516	 0.121029
H	 1.1921558894	-2.8408375664	-0.5815390954	 0.101957
H	 2.3501294455	-1.4587609985	 2.7301388013	 0.097164
H	 0.7728063757	-1.570610519	 3.5328976463	 0.094162
H	 1.0591191631	-3.8246175374	 3.5118604859	 0.283277
40.0395	103.0297	137.462	169.1876	223.9058	241.2809	248.3187	256.7426	294.1062	301.7254	308.4809	313.8018	355.6065	385.8224	415.392	463.6788	484.3122	589.8159	745.4554	839.2356	881.0129	907.9076	911.9814	953.0583	970.1451	992.0392	1028.7491	1050.061	1076.0701	1103.969	1118.2278	1162.801	1204.6696	1223.801	1262.8873	1288.4879	1339.5582	1348.0279	1382.6042	1392.3477	1397.5713	1404.9438	1412.3512	1428.094	1430.5979	1467.3565	1487.0161	1491.2271	1492.7613	1497.3119	1501.2563	1512.8733	1515.4914	2966.504	3003.1568	3013.8229	3025.2807	3025.6342	3031.2114	3054.3648	3058.0576	3083.7807	3089.7669	3091.3857	3111.8561	3120.7155	3140.7605	3814.8157	3829.396
CC(O)CC(C)(C)CO	C[C@@H](O)CC(C)(C)CO	
InChI=1S/C7H16O2/c1-6(9)4-7(2,3)5-8/h6,8-9H,4-5H2,1-3H3	InChI=1S/C7H16O2/c1-6(9)4-7(2,3)5-8/h6,8-9H,4-5H2,1-3H3/t6-/m1/s1
