13
gdb 35662	4.04396	0.99475	0.88075	2.6973	71.63	-0.2932	-0.0777	0.2155	1240.6878	0.08981	-415.626637	-415.618842	-415.617898	-415.659788	27.33	
N	 0.0800968143	-1.0971748536	 0.3304643444	-0.304172
C	 0.025354148	 0.0381150478	 0.1253088551	 0.272242
C	-0.033393139	 1.4922527938	-0.1528924085	-0.048779
O	-0.7341225937	 2.1881237431	 0.8659191112	-0.253051
C	 0.1606375679	 3.0061985159	 1.6167983907	-0.166926
C	 1.4552555387	 2.9684980813	 0.8324420341	 0.186956
C	 1.3478376538	 2.1058446878	-0.1786477614	-0.198327
C	 2.5889924781	 3.7470071335	 1.180258422	 0.218063
N	 3.4922148181	 4.4007630016	 1.4917543576	-0.311333
H	-0.5660594184	 1.6249236302	-1.1050007867	 0.15306
H	-0.2587994945	 4.0159297122	 1.6917418268	 0.146108
H	 0.2952638257	 2.6131175741	 2.6342152854	 0.144884
H	 2.105574221	 1.8408918423	-0.9019193308	 0.161275
66.3507	108.0796	159.1936	202.2718	253.6408	376.9618	477.198	529.3977	546.6216	560.3029	598.5859	792.3235	858.8099	901.6004	922.4852	967.7234	1005.8352	1045.0383	1098.1995	1197.1889	1201.8097	1268.7488	1297.9147	1348.492	1377.372	1517.125	1692.811	2348.5465	2359.1689	3012.6833	3015.487	3063.7512	3250.4851
N#CC1OCC(=C1)C#N	N#C[C@H]1OCC(=C1)C#N	
InChI=1S/C6H4N2O/c7-2-5-1-6(3-8)9-4-5/h1,6H,4H2	InChI=1S/C6H4N2O/c7-2-5-1-6(3-8)9-4-5/h1,6H,4H2/t6-/m0/s1
