15
gdb 98107	4.43643	0.8711	0.76871	2.1247	64.11	-0.2626	-0.1092	0.1534	1418.4909	0.109167	-494.886041	-494.876842	-494.875898	-494.921568	31.317	
O	 0.3081069288	 1.355752745	 0.3079578391	-0.419995
C	 0.1260125122	 0.0164178916	-0.0409796586	-0.121137
C	-1.3345167672	-0.3723677995	-0.0031323498	 0.248608
O	-2.19131799	 0.4291449129	 0.3036441713	-0.303635
C	-1.6924178664	-1.8209628349	-0.3744864626	 0.2865
O	-0.8216435896	-2.5902679553	-0.7064027102	-0.282627
C	-3.1468497109	-2.181053391	-0.3209012279	-0.029401
C	-3.6922589317	-3.0431501095	-1.3961261183	-0.156317
O	-3.4223499306	-3.5653297601	-0.1116237764	-0.204763
H	-0.5738990555	 1.708064477	 0.4993131958	 0.296129
H	 0.5109751081	-0.198480289	-1.0503988623	 0.13877
H	 0.675065918	-0.6608122261	 0.6328914634	 0.140133
H	-3.8026310483	-1.4799021723	 0.1854524708	 0.134174
H	-4.7428220125	-2.9380787811	-1.6615472842	 0.13365
H	-3.0187906342	-3.3746837477	-2.1841547001	 0.139912
39.5056	54.0837	104.7627	144.2483	240.314	268.4355	305.9687	332.9659	341.7327	436.4972	510.8486	706.1464	740.7861	816.8861	849.7421	886.3696	931.9991	989.4448	1029.7571	1098.4457	1135.2935	1162.0382	1170.8625	1213.4018	1227.3392	1269.4546	1317.776	1414.8955	1443.1669	1471.5183	1508.2221	1786.9317	1801.27	2990.7496	3005.2029	3090.6988	3174.1102	3191.0029	3715.9502
OCC(=O)C(=O)C1CO1	OCC(=O)C(=O)[C@H]1CO1	
InChI=1S/C5H6O4/c6-1-3(7)5(8)4-2-9-4/h4,6H,1-2H2	InChI=1S/C5H6O4/c6-1-3(7)5(8)4-2-9-4/h4,6H,1-2H2/t4-/m1/s1
