14
gdb 5139	5.80918	1.35077	1.1419	2.466	67.92	-0.2158	0.0227	0.2386	988.0306	0.109366	-341.637234	-341.630196	-341.629252	-341.669419	25.664	
N	-0.1935476821	-0.8407772935	-1.057763859	-0.311712
C	-0.1000923407	 0.1187087834	-0.4204781635	 0.257701
C	 0.0467704442	 1.3656799114	 0.3353555309	-0.450398
C	 1.4333148362	 1.9384755695	 0.2457902065	 0.322087
C	 2.1718794071	 2.6314502515	 1.177954936	-0.23459
C	 3.3976070869	 3.0050635764	 0.559827327	-0.137148
C	 3.3705195533	 2.5244089795	-0.7278443381	-0.087959
N	 2.1703275536	 1.8863614587	-0.9118796887	-0.28533
H	-0.7121900333	 2.0681555129	-0.0380668836	 0.164756
H	-0.1993846768	 1.1756147306	 1.3847942854	 0.170664
H	 1.8619476074	 2.8497305527	 2.1888120744	 0.096376
H	 4.2051689836	 3.5594161914	 1.0119781771	 0.099461
H	 4.0994227621	 2.5715531546	-1.5205010899	 0.122919
H	 1.9006539885	 1.3784356808	-1.7379809545	 0.273175
35.6533	113.2807	246.2563	326.4691	377.6794	487.5544	509.3616	627.9364	643.1801	723.0635	738.6887	795.8311	855.5618	896.7006	931.0188	937.2078	980.9115	1055.6657	1116.2894	1146.7708	1212.3999	1256.5783	1292.2753	1327.831	1441.8579	1455.0866	1473.7462	1497.9488	1613.705	2360.8295	3007.3906	3083.9658	3242.2574	3255.7604	3275.2666	3664.3008
N#CCC1=CC=CN1	N#CCc1ccc[nH]1	
InChI=1S/C6H6N2/c7-4-3-6-2-1-5-8-6/h1-2,5,8H,3H2	InChI=1S/C6H6N2/c7-4-3-6-2-1-5-8-6/h1-2,5,8H,3H2
