21
gdb 96452	2.15503	1.89821	1.29914	1.9267	77.57	-0.2404	0.0804	0.3207	1059.9343	0.184456	-424.210354	-424.20234	-424.201396	-424.242428	32.283	
C	-0.4411431194	 1.509187167	-0.0365585826	-0.397945
C	-0.0154959121	 0.0355605719	-0.0082235919	-0.010469
C	 0.6729456763	-0.3668690949	-1.327115657	-0.081573
O	 1.7392655138	 0.4940086314	-1.7061976789	-0.226422
C	 2.9140992236	 0.3778952471	-0.9597420191	 0.020276
O	 2.8236254584	 0.9201260432	 0.3388497071	-0.240943
C	 2.3001657242	 0.0295121122	 1.286482517	 0.104451
C	 1.3194711642	 0.5896775865	 2.2670341445	-0.326325
C	 0.8480906895	-0.3735759178	 1.1932520294	-0.062916
H	 0.4252782633	 2.1691984128	-0.1138141553	 0.142683
H	-1.0824742123	 1.7011561906	-0.9032331117	 0.107551
H	-1.0044697879	 1.7715524288	 0.8632897451	 0.111576
H	-0.9301853649	-0.5708227644	 0.0453434625	 0.074257
H	 1.0348634306	-1.4060295151	-1.260614011	 0.084201
H	-0.0450401463	-0.3124265838	-2.1525553162	 0.103082
H	 3.2315049097	-0.6784075409	-0.9026981625	 0.074881
H	 3.6641603515	 0.9715806356	-1.4877171907	 0.112528
H	 3.0208993209	-0.7118797986	 1.631715753	 0.08508
H	 1.3564578736	 0.2491202756	 3.2958064713	 0.11075
H	 1.0742895724	 1.637733533	 2.1447471004	 0.129693
H	 0.6485239708	-1.3845881604	 1.5396106167	 0.085583
119.3019	203.7907	247.0421	259.568	292.1401	320.4942	401.9839	434.5819	473.7689	489.0865	646.0762	704.6452	725.232	790.457	832.6585	869.9671	924.5379	971.1339	984.8116	1007.7991	1034.6629	1046.9147	1063.3487	1081.8579	1123.1235	1131.7499	1136.5507	1164.694	1185.3811	1208.862	1263.0544	1293.2447	1321.3691	1340.0024	1368.4656	1371.2462	1393.9601	1403.9399	1422.2987	1449.815	1481.5328	1487.2822	1495.1732	1505.0617	1510.7589	2947.3657	2973.2492	3008.0938	3041.8	3068.2798	3095.2775	3103.9719	3105.2939	3131.7208	3134.5326	3142.1867	3231.6647
CC1COCOC2CC12	C[C@H]1COCO[C@H]2C[C@@H]12	
InChI=1S/C7H12O2/c1-5-3-8-4-9-7-2-6(5)7/h5-7H,2-4H2,1H3	InChI=1S/C7H12O2/c1-5-3-8-4-9-7-2-6(5)7/h5-7H,2-4H2,1H3/t5-,6-,7-/m0/s1
