23
gdb 105079	2.60603	1.1593	1.00492	1.8689	85.33	-0.2556	0.0881	0.3437	1337.0624	0.204074	-388.265594	-388.255564	-388.25462	-388.300796	37.608	
C	 1.8696403122	 1.9327480437	-1.782351073	-0.401698
C	 1.4101129594	 0.5254604859	-1.3904556422	-0.24405
C	 2.3372440112	-0.6350533153	-1.7470875211	 0.320623
C	 3.2201656369	-0.586270145	-2.9752518572	-0.317102
C	 3.8344398654	-0.5323243226	-1.5982897141	-0.300936
C	 1.6835825627	-1.9646093474	-1.4727749404	-0.022047
O	 2.5139672873	-3.1062213373	-1.24794052	-0.268084
C	 1.6730827778	-2.6603596283	-0.1723983836	 0.087305
C	 2.3398752548	-2.1556730563	 1.0815037238	-0.427266
H	 2.8290280344	 2.1950322943	-1.325464943	 0.120513
H	 1.9704653018	 2.0427392097	-2.8661054699	 0.122098
H	 1.1364457291	 2.672199354	-1.4463728948	 0.115988
H	 1.2312153953	 0.4989835406	-0.3070169961	 0.100424
H	 0.4321276628	 0.3359958528	-1.855449743	 0.097049
H	 3.3400289194	-1.5048967293	-3.5398205046	 0.12005
H	 3.2299070475	 0.3143629121	-3.5780332649	 0.10884
H	 4.2574731662	 0.4086048377	-1.2641628607	 0.105798
H	 4.3583693834	-1.4162909042	-1.2557804935	 0.128941
H	 0.8378099962	-2.1698010957	-2.1360417685	 0.084372
H	 0.8305682826	-3.3319454502	 0.0089685162	 0.085442
H	 3.1087310996	-1.4142058295	 0.8626813507	 0.138358
H	 1.5941778307	-1.7012897372	 1.7433288228	 0.119001
H	 2.802944743	-2.9861358224	 1.6252910971	 0.12638
50.0929	71.9596	150.0474	173.0423	204.7614	245.6599	272.0885	297.6468	361.684	382.1483	397.8757	516.589	571.4479	698.0218	774.8821	786.0372	792.3103	830.463	898.3911	910.0545	940.105	965.6293	988.5677	1034.0572	1053.4926	1063.2364	1082.2992	1090.6676	1102.8718	1143.5193	1163.894	1178.8021	1199.4011	1253.0749	1295.4053	1314.9296	1345.6109	1385.7015	1396.0021	1415.6993	1418.6238	1454.2617	1465.2408	1484.7257	1493.5271	1497.9137	1504.3221	1507.6318	1512.778	3003.4913	3032.5077	3038.6211	3040.8963	3056.068	3080.632	3095.2493	3105.8217	3110.4366	3135.7266	3141.1772	3150.1068	3216.9616	3233.1404
CCC1(CC1)C1OC1C	CCC1(CC1)[C@H]1O[C@H]1C	
InChI=1S/C8H14O/c1-3-8(4-5-8)7-6(2)9-7/h6-7H,3-5H2,1-2H3	InChI=1S/C8H14O/c1-3-8(4-5-8)7-6(2)9-7/h6-7H,3-5H2,1-2H3/t6-,7-/m0/s1
