23
gdb 100786	3.12211	0.91841	0.75725	0.5344	82.18	-0.2458	0.0633	0.3092	1579.7602	0.203193	-425.410754	-425.399761	-425.398817	-425.44725	39.992	
C	 0.0512374272	 1.5450223209	-0.0806842187	-0.385294
C	 0.0071867794	 0.0193566175	 0.0272722387	-0.187532
C	-1.4171386541	-0.543163921	 0.0191424387	 0.115757
O	-2.1139280266	-0.211472726	-1.1785007815	-0.427036
C	-1.4453710972	-2.0639475021	 0.288973347	 0.072852
O	-0.8508836225	-2.3455850495	 1.5577188628	-0.429003
C	-2.8371015817	-2.6444096854	 0.1687559992	 0.01504
C	-3.2806868272	-3.3417049371	-1.0905813927	-0.257386
C	-3.0173339478	-4.1421930987	 0.1579988157	-0.280058
H	 1.0813025554	 1.9090908722	-0.1407404099	 0.108311
H	-0.4877116277	 1.8863321382	-0.9688466881	 0.124206
H	-0.4173795831	 2.0145979632	 0.79153103	 0.1117
H	 0.55892356	-0.4308526967	-0.8124786268	 0.078254
H	 0.505794482	-0.3232281927	 0.9390525233	 0.116558
H	-1.9988540718	-0.0570159472	 0.8165040547	 0.072542
H	-1.6278148619	-0.5976975376	-1.9156892619	 0.277279
H	-0.787728262	-2.5620817386	-0.4389780489	 0.068825
H	-1.5114012835	-2.1613804982	 2.2342024137	 0.279127
H	-3.6031405794	-2.0661372921	 0.6824083608	 0.078808
H	-4.3051879681	-3.2033918295	-1.4166971206	 0.114469
H	-2.5665258896	-3.422237487	-1.9036489281	 0.102978
H	-2.1207383997	-4.751559775	 0.197026773	 0.119724
H	-3.8632407601	-4.5630691175	 0.6900385197	 0.10988
54.8559	63.6579	106.5469	133.1672	200.2839	218.6568	229.4604	257.3303	283.8052	295.9776	342.6161	418.7542	446.9495	545.4625	547.9699	771.6236	782.6648	828.8819	855.3153	890.0292	944.2021	951.5206	988.3134	1046.1863	1051.5543	1065.5917	1074.1301	1079.0362	1106.7116	1130.0131	1137.0244	1179.3127	1196.7071	1215.093	1231.0565	1264.4909	1281.6031	1324.2254	1364.1878	1389.174	1401.2526	1407.1241	1417.496	1430.627	1472.4861	1486.7117	1497.1959	1507.1995	1509.9461	2991.325	2995.3119	3013.9566	3035.8927	3083.6078	3100.4398	3118.7556	3120.6236	3131.4968	3136.8054	3209.4743	3224.432	3797.5581	3807.5602
CCC(O)C(O)C1CC1	CC[C@@H](O)[C@@H](O)C1CC1	
InChI=1S/C7H14O2/c1-2-6(8)7(9)5-3-4-5/h5-9H,2-4H2,1H3	InChI=1S/C7H14O2/c1-2-6(8)7(9)5-3-4-5/h5-9H,2-4H2,1H3/t6-,7+/m1/s1
