15
gdb 15508	3.50108	1.94962	1.27681	2.0723	65.98	-0.2343	0.0052	0.2395	907.6659	0.121499	-396.008845	-396.001624	-396.00068	-396.040737	25.92	
N	 0.9208225683	-0.1102992741	 0.2232429675	-0.474139
C	-0.2262178415	 0.308957507	-0.1387548567	 0.081815
N	-1.3376947643	-0.4885270059	 0.0098638964	-0.106273
C	-1.3077407775	-1.8030938598	 0.62701615	-0.179232
C	-2.7318650278	-2.2915114592	 0.3235543679	-0.108105
O	-3.4845761801	-1.1000576328	 0.0326872489	-0.254414
C	-2.6381476912	-0.0744044986	-0.2592554682	 0.488043
N	-2.9581553907	 1.069660198	-0.6897482924	-0.588848
H	 1.6264407672	 0.5982847397	 0.0329918533	 0.229617
H	-0.4769424873	 1.2747523053	-0.5830975164	 0.143089
H	-0.5302975683	-2.4260242839	 0.1804908211	 0.14618
H	-1.1023852754	-1.725947225	 1.7010786424	 0.131991
H	-2.7617712508	-2.9476636418	-0.5530494031	 0.126906
H	-3.2066993879	-2.7977677844	 1.1655096817	 0.132156
H	-3.9624500725	 1.1285640657	-0.8368865925	 0.231215
93.4386	140.3913	163.0619	217.7647	278.2721	399.8452	591.127	666.7676	701.1087	711.6531	785.5115	813.676	828.885	883.561	973.1668	1004.0658	1075.1927	1088.7947	1140.9152	1158.6957	1183.0204	1225.0622	1250.0385	1299.766	1370.8645	1389.5701	1406.3836	1459.7774	1522.221	1530.7303	1711.2035	1781.3084	3040.0183	3048.5038	3108.5413	3116.8932	3122.9442	3510.6544	3538.6778
N=CN1CCOC1=N	[NH][CH]N1CCO[C]1[NH]	
InChI=1S/C4H7N3O/c5-3-7-1-2-8-4(7)6/h3,5-6H,1-2H2	InChI=1S/C4H7N3O/c5-3-7-1-2-8-4(7)6/h3,5-6H,1-2H2
