15
gdb 123540	3.35741	2.27455	1.53588	3.2312	74.81	-0.2207	-0.0393	0.1815	818.199	0.11618	-379.599273	-379.593482	-379.592537	-379.629097	24.157	
C	-0.1203501786	 1.4841565337	-0.094924573	-0.156537
C	 1.4428635657	 1.7470551944	 0.048801707	-0.153736
C	 2.0700751824	 2.273542545	 1.3186777765	-0.099312
C	 2.1444966724	 1.3005760934	 2.2655394137	-0.151173
C	 1.5024100402	 0.0842630822	 1.7462551502	 0.037984
C	 1.328655616	 0.2971686043	 0.4040972218	 0.140537
N	 0.0415338897	-0.0632048022	-0.0032979429	-0.093283
N	-0.5500867587	-0.7331294096	 1.0920494383	-0.211257
C	 0.327160195	-0.6937267279	 2.0748054874	-0.055934
H	-0.6873771246	 1.8360048627	 0.7629835358	 0.15518
H	-0.5576866848	 1.7764002134	-1.0475710409	 0.145375
H	 1.9063604186	 2.0847848279	-0.8770335271	 0.106954
H	 2.5225794301	 3.2559545125	 1.3926279773	 0.104187
H	 2.5698803607	 1.4247933218	 3.2538781624	 0.109766
H	 0.0890168261	-1.1867258317	 3.0098832536	 0.121248
212.251	322.9418	335.4506	464.3251	536.817	621.2267	704.9612	717.7733	726.8313	761.4811	811.9209	845.228	865.6748	921.1846	934.2166	949.4685	983.4696	990.4798	1029.7371	1083.5039	1118.7489	1136.4816	1177.8792	1189.6755	1229.783	1273.7111	1302.4042	1318.4498	1386.4603	1425.2303	1465.5251	1528.2838	1573.7866	3104.883	3125.8813	3192.4715	3198.8268	3212.8671	3216.9259
C1C2C=CC3=C2N1N=C3	C1[C@H]2C=C[C]3[C]2N1[N][CH]3	
InChI=1S/C7H6N2/c1-2-6-4-9-7(6)5(1)3-8-9/h1-3,6H,4H2	InChI=1S/C7H6N2/c1-2-6-4-9-7(6)5(1)3-8-9/h1-3,6H,4H2/t6-/m1/s1
