15
gdb 131660	2.99289	1.25956	0.89141	4.9295	71.63	-0.2347	-0.0546	0.1802	1217.2162	0.114043	-453.976856	-453.968913	-453.967969	-454.009871	29.013	
O	 0.0308816005	 1.4247065316	 0.0072612156	-0.408374
C	 0.0097989276	 0.0157822505	 0.0022542485	-0.163079
C	-1.4150018897	-0.4727166269	 0.0126301489	 0.273852
C	-2.4819008914	 0.366253179	 0.0230211957	-0.312361
C	-3.8368782948	-0.1592380681	 0.0326150493	 0.437272
O	-4.876149862	 0.4758179283	 0.0421450643	-0.390212
N	-3.8647121631	-1.5641458513	 0.0294984532	-0.263741
N	-2.8370202649	-2.4176603619	 0.0194186407	-0.18915
C	-1.6487884651	-1.8876940631	 0.0112676157	-0.050318
H	 0.9465638882	 1.7164849454	-0.0008802055	 0.298597
H	 0.5148327772	-0.3974586144	-0.8875301183	 0.114228
H	 0.5300671435	-0.4039980707	 0.8801153109	 0.114179
H	-2.3618884365	 1.4411451512	 0.0245652858	 0.146472
H	-4.7818774001	-1.9913105727	 0.0357471877	 0.273925
H	-0.8230138595	-2.5920579469	 0.0031630374	 0.118711
68.7855	171.105	175.2129	191.5725	229.8015	395.052	423.0942	473.0926	560.4431	578.4977	595.5281	737.5702	739.4577	754.2305	887.5125	926.7587	941.2184	1033.1126	1042.8894	1086.186	1148.4339	1180.4889	1229.0295	1245.806	1256.5777	1337.8772	1420.6177	1430.873	1467.5854	1505.7306	1583.5784	1664.024	1789.8427	2955.1119	2974.6712	3181.2806	3238.2035	3592.4262	3845.6195
OCC1=CC(=O)NN=C1	OCc1cc(=O)[nH]nc1	
InChI=1S/C5H6N2O2/c8-3-4-1-5(9)7-6-2-4/h1-2,8H,3H2,(H,7,9)	InChI=1S/C5H6N2O2/c8-3-4-1-5(9)7-6-2-4/h1-2,8H,3H2,(H,7,9)
