12
gdb 128953	7.87484	0.82739	0.75226	2.2323	61.36	-0.2869	-0.0271	0.2598	1362.9516	0.077935	-468.795118	-468.787624	-468.786679	-468.82855	25.418	
N	-0.0101942992	-1.0893653012	-0.0043054549	-0.272535
C	 0.0180374123	 0.0640476035	 0.0019879208	 0.282773
C	-0.0049707407	 1.5244881625	 0.010594811	-0.215086
O	 1.3542879939	 1.9857246867	-0.0014899416	-0.244167
C	 1.5296379106	 3.296228989	 0.0036576109	 0.555123
N	 2.6750463912	 3.9053179155	-0.0056655193	-0.35725
C	 2.2650485132	 5.213522662	 0.0058470733	 0.063412
N	 0.9766296577	 5.4207847447	 0.0215339446	-0.123601
O	 0.4599527603	 4.0960276937	 0.0198831015	-0.219015
H	-0.5418651299	 1.8951445873	-0.8689302675	 0.185251
H	-0.5226280247	 1.8849836367	 0.9057394296	 0.18525
H	 2.9548848755	 6.0455007795	 0.0028206116	 0.159846
40.2593	98.3819	121.0237	237.2976	306.1315	377.7385	458.6349	535.1837	638.4579	762.8016	776.5432	880.9135	943.7469	966.6656	972.7864	1006.8574	1019.0127	1077.4653	1215.4831	1256.5752	1279.8662	1357.3413	1395.5582	1483.2639	1552.4697	1657.4946	2382.7039	3052.2575	3096.8951	3259.4871
N#CCOC1=NC=NO1	N#CCOc1ncno1	
InChI=1S/C4H3N3O2/c5-1-2-8-4-6-3-7-9-4/h3H,2H2	InChI=1S/C4H3N3O2/c5-1-2-8-4-6-3-7-9-4/h3H,2H2
