16
gdb 20933	7.4995	1.09125	0.96564	5.829	67.87	-0.2132	0.0164	0.2296	1177.4428	0.132202	-376.094539	-376.08677	-376.085826	-376.127176	27.928	
C	-0.0409076414	 1.553803862	-0.0303074077	-0.402243
C	-0.0333659022	 0.0324679918	 0.0615427736	-0.115397
N	-1.3909713007	-0.4961625662	-0.0579221411	-0.40681
C	-1.542077473	-1.869442016	-0.0164502781	 0.416713
C	-0.6461212105	-2.9212218184	-0.0494792446	-0.142684
N	-1.3487150158	-4.0916183666	-0.0530269286	-0.183575
N	-2.6181220409	-3.844252144	-0.0183170939	-0.125676
N	-2.7503568947	-2.4861859088	-0.0002898562	-0.274134
H	 0.9784630277	 1.9436220996	 0.0317765414	 0.130076
H	-0.48368783	 1.8850989348	-0.9738030651	 0.134495
H	-0.6145302283	 1.9977139945	 0.7916809204	 0.118394
H	 0.5569877195	-0.3894879855	-0.7594441827	 0.127301
H	 0.4475193291	-0.2907126748	 0.9988468015	 0.105694
H	-2.0541885297	 0.0044402232	 0.5202937811	 0.235318
H	 0.4300876073	-2.9033867648	-0.0678097087	 0.11214
H	-3.6700639761	-2.0768163008	-0.013108551	 0.270388
72.4095	90.8148	144.2661	255.1066	305.6221	343.5525	415.3007	495.0611	567.0213	699.9308	719.9072	772.5857	787.5261	823.685	928.7919	992.5487	1023.3126	1061.4576	1085.6513	1144.4413	1150.009	1165.2195	1249.7154	1293.7286	1353.535	1363.962	1400.5275	1413.6349	1433.2207	1490.8446	1499.1774	1519.9567	1527.2049	1638.1027	2975.0114	3036.0101	3059.1863	3105.8671	3126.8435	3282.3162	3554.6046	3662.3004
CCNC1=CN=NN1	CCNc1cnn[nH]1	
InChI=1S/C4H8N4/c1-2-5-4-3-6-8-7-4/h3H,2H2,1H3,(H2,5,6,7,8)	InChI=1S/C4H8N4/c1-2-5-4-3-6-8-7-4/h3H,2H2,1H3,(H2,5,6,7,8)
