19
gdb 125943	2.9196	1.5558	1.06656	2.5883	81.26	-0.2204	0.0274	0.2477	1131.4063	0.163291	-382.105167	-382.097518	-382.096574	-382.137254	29.918	
C	-0.0711644102	 1.6002772664	-0.0599930945	-0.392728
C	 0.0069374737	 0.0731951885	 0.0316105331	-0.121081
C	 0.7695857099	-0.5764269534	-1.1759638995	-0.203008
C	 1.5383989555	-1.8302695541	-0.6449652732	-0.360546
C	 1.6130349314	-1.4981700283	 0.8118383594	 0.348798
C	 0.7868351889	-0.472063034	 1.1998211334	 0.231826
C	 0.9751837347	-0.3671137428	 2.5935732561	-0.174283
N	 1.8620612331	-1.2645000477	 3.0307223701	-0.227693
N	 2.23295766	-1.9538584125	 1.9214201558	-0.328681
H	 0.9315121298	 2.0409053266	-0.0715763135	 0.116069
H	-0.5922597596	 1.9138875045	-0.9711141579	 0.1099
H	-0.6122386837	 2.0206532567	 0.7939083602	 0.115774
H	-1.0215390099	-0.3162193028	 0.0575453136	 0.079747
H	 0.1023250792	-0.8206399182	-2.0070382161	 0.098718
H	 1.4999319337	 0.1489698817	-1.5511188515	 0.107505
H	 0.9726223714	-2.7553716546	-0.8180728452	 0.116037
H	 2.5104519673	-1.9565185456	-1.1333759247	 0.111356
H	 0.5256302773	 0.3113066252	 3.3042887699	 0.104764
H	 2.9173082476	-2.6844130858	 2.0162742645	 0.267526
104.0594	162.1114	226.6101	236.7686	281.666	428.4485	470.9128	496.3691	557.0199	638.7299	682.2114	704.5142	733.5566	821.7933	885.034	900.4712	947.2154	967.543	981.5542	1034.1875	1096.7005	1101.3745	1106.536	1132.6998	1188.0084	1210.8286	1237.603	1284.9309	1304.3257	1319.5478	1338.4954	1360.9538	1403.3908	1409.8782	1441.8398	1483.2839	1494.7555	1500.1196	1500.9308	1542.1713	1606.0397	2986.104	3017.1458	3028.3019	3044.0828	3064.4374	3096.4554	3097.4893	3102.7567	3239.0737	3675.2725
CC1CCC2=C1C=NN2	C[C@H]1CCc2c1cn[nH]2	
InChI=1S/C7H10N2/c1-5-2-3-7-6(5)4-8-9-7/h4-5H,2-3H2,1H3,(H,8,9)	InChI=1S/C7H10N2/c1-5-2-3-7-6(5)4-8-9-7/h4-5H,2-3H2,1H3,(H,8,9)/t5-/m0/s1
