18
gdb 101281	2.30155	1.20539	0.89745	2.623	72.58	-0.285	-0.0093	0.2757	1312.2262	0.145374	-439.06893	-439.059218	-439.058274	-439.10456	34.503	
C	 0.0766998093	 1.5416239135	-0.636741694	-0.386907
C	 0.1054258364	 0.0642971269	-1.0378897746	-0.215454
C	 1.4832941293	-0.5691904567	-0.8207333053	 0.084514
O	 1.904395703	-0.4761220943	 0.5385255072	-0.42597
C	 1.5891679571	-2.0296964897	-1.2536107676	 0.028969
O	 0.4011465329	-2.7962231468	-1.4698100485	-0.225068
C	 1.2643160217	-2.583998804	-2.5868769919	-0.102085
C	 0.7688771104	-1.7764113392	-3.6809501599	 0.310218
N	 0.406853015	-1.1599542077	-4.5894641041	-0.329117
H	 0.3866580928	 1.673658219	 0.4030343337	 0.124927
H	 0.7543359782	 2.1318682019	-1.2629571856	 0.121151
H	-0.9291446429	 1.9546343003	-0.7527650441	 0.117626
H	-0.6324206274	-0.5076888046	-0.4603227507	 0.103542
H	-0.1863381772	-0.0411442567	-2.0865968697	 0.135946
H	 2.2414309878	-0.0038271371	-1.3780925609	 0.109455
H	 1.2005427826	-0.8385183935	 1.0893450033	 0.28542
H	 2.3659222162	-2.5647042666	-0.7050976222	 0.119026
H	 1.8076641148	-3.4669159047	-2.9211936952	 0.143807
28.5701	84.9673	130.0766	178.9911	203.5867	230.8613	275.4521	312.6209	339.2218	400.9997	468.1626	554.0869	596.6351	646.3907	771.3494	807.4244	832.3267	892.743	966.8872	990.5786	1016.5801	1062.8979	1085.7921	1115.525	1148.1104	1151.8701	1253.0903	1274.6405	1316.1085	1336.2612	1369.6347	1389.0016	1410.2267	1419.8557	1442.1216	1481.8928	1495.9705	1508.268	2358.0307	3026.7845	3039.3557	3043.0994	3094.3129	3107.53	3109.7457	3125.5633	3125.959	3791.6541
CCC(O)C1OC1C#N	CC[C@@H](O)[C@H]1O[C@H]1C#N	
InChI=1S/C6H9NO2/c1-2-4(8)6-5(3-7)9-6/h4-6,8H,2H2,1H3	InChI=1S/C6H9NO2/c1-2-4(8)6-5(3-7)9-6/h4-6,8H,2H2,1H3/t4-,5+,6-/m1/s1
