16
gdb 52860	1.8515	1.27568	0.83796	4.7615	78.23	-0.2616	0.013	0.2746	1387.0884	0.121497	-400.714543	-400.704824	-400.703879	-400.751201	33.089	
C	-0.0496777012	 1.5284067852	 0.1630576327	-0.504883
C	-0.0062349224	 0.0752694344	 0.131627384	 0.148171
C	 0.0173092097	-1.1279710759	 0.0970793742	 0.022606
C	 0.0930915229	-2.5649782708	 0.0284201982	 0.194757
C	 1.3895122349	-3.1375968245	-0.547507322	-0.4211
C	 1.6611478861	-2.6781930185	-1.9095341041	 0.279959
N	 1.887329867	-2.3207795224	-2.984131038	-0.303071
C	-0.6821169655	-3.4023628712	 0.9668748589	-0.217474
O	-1.0928443053	-3.2574647273	-0.3890059507	-0.247731
H	 0.6765831358	 1.9574698665	-0.5351182913	 0.162606
H	-1.0423375631	 1.8939796185	-0.1204597224	 0.161052
H	 0.17577155	 1.9125729107	 1.1636906797	 0.153401
H	 2.2310921123	-2.8501463933	 0.0925026615	 0.161421
H	 1.3263575631	-4.2300544355	-0.5491817823	 0.160448
H	-0.3041346135	-4.3861371307	 1.2444951963	 0.11869
H	-1.3137963509	-2.9141258152	 1.7057007353	 0.131147
24.1268	48.8245	89.5205	121.0272	166.6925	302.5204	311.8144	334.4665	366.2597	387.6317	476.8629	526.9625	554.8638	675.2544	796.0129	890.0346	935.5689	958.77	983.6626	1046.8647	1050.5262	1053.5936	1132.328	1166.5462	1220.4624	1276.0225	1323.2803	1393.5913	1413.1043	1446.7101	1473.8121	1475.313	1522.368	2369.1239	2373.3038	3032.6918	3051.6473	3083.6956	3095.7426	3099.3153	3100.1422	3180.0492
CC#CC1(CC#N)CO1	CC#C[C@@]1(CC#N)CO1	
InChI=1S/C7H7NO/c1-2-3-7(4-5-8)6-9-7/h4,6H2,1H3	InChI=1S/C7H7NO/c1-2-3-7(4-5-8)6-9-7/h4,6H2,1H3/t7-/m1/s1
