23
gdb 118836	4.62047	0.71323	0.68635	1.8004	84.3	-0.2405	0.0788	0.3193	1776.6566	0.203121	-425.405015	-425.394174	-425.393229	-425.441216	39.289	
C	 0.0226541391	 1.4359833835	-0.4457319844	-0.372637
C	-0.0293643423	 0.0629914368	 0.2334046773	-0.195424
C	-1.4184782784	-0.542532712	 0.2169780105	-0.052221
C	-1.92686897	-1.2877981745	-1.0074323426	-0.346909
C	-1.6189209778	-2.026888738	 0.2758952933	 0.394616
O	-0.45680449	-2.8081252336	 0.3265454404	-0.475619
C	-2.7401467495	-2.6090426282	 1.0958268155	-0.124383
O	-2.9930356606	-3.9104156087	 0.5916046352	-0.249655
C	-3.9178583994	-4.6378273007	 1.3646961383	-0.225265
H	 1.0348408803	 1.8517804521	-0.419562355	 0.109244
H	-0.2876671746	 1.3683960763	-1.4937758262	 0.11631
H	-0.6437917384	 2.1508097045	 0.050074532	 0.109018
H	 0.6669613564	-0.6265001197	-0.2531185808	 0.114851
H	 0.3117848626	 0.1538974559	 1.2727488834	 0.095728
H	-2.1662124734	 0.0465235172	 0.745906486	 0.076934
H	-2.9597367672	-1.1632240879	-1.3149656142	 0.105501
H	-1.2216195016	-1.4343672088	-1.8187643527	 0.113014
H	-0.7372040933	-3.703364349	 0.0993333201	 0.287774
H	-2.4401173478	-2.6695345854	 2.1553385343	 0.091868
H	-3.6435613468	-1.9817920651	 1.0321433848	 0.085125
H	-4.027336001	-5.6230568347	 0.9048704523	 0.128193
H	-3.5725387116	-4.7643999993	 2.4027914808	 0.107523
H	-4.9031498445	-4.1466227606	 1.3889453316	 0.106418
64.5272	74.2787	108.9407	126.6671	167.6159	222.5747	233.303	273.7176	301.8408	328.6315	387.4814	403.1191	430.7564	476.5191	637.8043	729.7719	787.6881	831.0424	890.9183	927.3829	955.1459	970.5916	991.1583	1025.7992	1046.9029	1065.615	1108.8824	1132.776	1154.4928	1184.5185	1195.5219	1222.6607	1226.2436	1258.5971	1286.8102	1312.4488	1339.2412	1376.7657	1407.3045	1410.7611	1440.7356	1479.8461	1486.3897	1489.4312	1498.9196	1499.0788	1507.6624	1510.8007	1519.2799	2959.086	2975.4537	2999.7322	3018.9716	3026.7732	3029.8316	3077.5321	3099.6494	3103.6655	3113.9119	3117.5158	3127.7893	3217.8719	3783.1309
CCC1CC1(O)COC	CC[C@H]1C[C@]1(O)COC	
InChI=1S/C7H14O2/c1-3-6-4-7(6,8)5-9-2/h6,8H,3-5H2,1-2H3	InChI=1S/C7H14O2/c1-3-6-4-7(6,8)5-9-2/h6,8H,3-5H2,1-2H3/t6-,7-/m0/s1
