18
gdb 113294	2.21842	1.20019	0.87551	2.4747	75.48	-0.2563	-0.0485	0.2078	1351.2508	0.145151	-439.085356	-439.075764	-439.07482	-439.120316	33.764	
C	 0.0382692858	 1.5376026323	 0.1659903261	-0.382791
C	 0.2480094109	 0.0388534525	-0.0866158862	-0.19652
C	 0.8406347366	-0.6377483991	 1.1286451844	-0.006078
N	-0.0487872144	-1.118529651	 2.1572526879	-0.355619
C	 0.714737902	-2.1371100369	 1.4065528634	 0.083811
C	-0.0575159032	-3.0152867746	 0.4802583811	 0.100644
O	 0.4089150225	-3.9971187512	-0.0437846008	-0.258525
C	 1.8983779523	-2.7388508083	 2.0930555723	 0.086285
O	 2.3979767513	-2.2352632213	 3.0731272218	-0.276545
H	 0.9838945973	 2.0357862659	 0.4052720677	 0.121436
H	-0.3824389263	 2.0255919551	-0.7175586371	 0.122742
H	-0.6485632316	 1.6966495644	 1.0026900759	 0.135125
H	-0.7075050738	-0.4291603388	-0.3402730559	 0.112113
H	 0.9194000028	-0.1088154443	-0.9408268005	 0.114639
H	 1.7983976977	-0.2352292829	 1.4609020692	 0.117444
H	 0.3996255404	-1.0350074895	 3.0711345829	 0.25612
H	-1.1081518225	-2.6982639208	 0.316541157	 0.101428
H	 2.2748202022	-3.6778611516	 1.6496804107	 0.124291
74.9911	86.4642	132.755	165.2781	201.1249	214.7588	255.6873	292.3264	306.551	429.0818	460.7001	525.9153	694.2295	763.2614	780.028	799.3578	883.4648	966.6317	1011.8867	1021.4523	1050.6872	1077.853	1100.135	1111.406	1149.1449	1249.8108	1269.2027	1308.4493	1336.7334	1348.6413	1404.0126	1407.7733	1414.3328	1460.3839	1478.2877	1498.5941	1507.5201	1791.9682	1812.3446	2920.8673	2985.9986	3038.3359	3042.2312	3085.4523	3106.5239	3115.5284	3119.2143	3456.3458
CCC1NC1(C=O)C=O	CC[C@H]1NC1(C=O)C=O	
InChI=1S/C6H9NO2/c1-2-5-6(3-8,4-9)7-5/h3-5,7H,2H2,1H3	InChI=1S/C6H9NO2/c1-2-5-6(3-8,4-9)7-5/h3-5,7H,2H2,1H3/t5-/m1/s1
