13
gdb 7878	3.88545	1.87922	1.27651	3.0177	64.48	-0.2832	-0.086	0.1972	887.5829	0.095872	-398.668909	-398.661936	-398.660992	-398.700268	25.277	
C	-0.0355378474	 1.5023433579	 0.0580841734	-0.489465
C	-0.0087577715	 0.0175634617	-0.0318653756	 0.297463
C	-0.0308176889	-0.7994558057	-1.0943981364	-0.382439
C	 0.0147107178	-2.1994742302	-0.625840044	 0.437586
O	 0.0137958315	-3.2303988535	-1.2261232594	-0.314688
O	 0.0647966801	-2.1618132806	 0.7732339906	-0.231308
C	 0.0524609951	-0.8429560959	 1.1729006329	 0.348267
N	 0.0877692187	-0.4419168156	 2.3686914548	-0.511198
H	 0.8534793848	 1.8664591163	 0.5831695907	 0.161208
H	-0.0820159113	 1.962756298	-0.9305253241	 0.135626
H	-0.8965981459	 1.8309269556	 0.6490306625	 0.161231
H	-0.0741115387	-0.5479150773	-2.1438292741	 0.143834
H	 0.1274059556	-1.2282459509	 3.0196260987	 0.243882
111.3732	162.6747	188.7609	258.9385	376.9084	379.624	580.0767	587.2236	659.6288	700.1253	770.4733	794.1592	883.0057	901.0356	919.4816	998.8729	1026.3036	1064.3367	1133.9022	1186.1525	1292.9466	1376.8465	1414.4829	1469.1483	1475.7203	1690.045	1761.9647	1896.7149	3046.5228	3103.0329	3139.092	3251.4672	3482.0373
CC1=CC(=O)OC1=N	CC1=C(OC(=O)[CH]1)[NH]	
InChI=1S/C5H5NO2/c1-3-2-4(7)8-5(3)6/h2,6H,1H3	InChI=1S/C5H5NO2/c1-3-2-4(7)8-5(3)6/h2,6H,1H3
