23
gdb 111746	2.32763	1.16901	0.93662	1.9123	85.72	-0.2413	0.0749	0.3162	1382.1419	0.205633	-388.261959	-388.252193	-388.251249	-388.296769	36.811	
C	 0.0631385399	 1.5316283012	-0.1275862417	-0.372937
C	-0.0081733497	 0.0166336981	 0.1107507757	-0.292871
C	-1.4147179399	-0.518866714	 0.0630507717	 0.35435
C	-2.4465979042	-0.3172414829	 1.190940898	-0.289336
C	-2.952966651	-1.7785858814	 0.9788921144	-0.229029
C	-1.9235376314	-1.9561812276	-0.1447889559	-0.156468
C	-2.0877437231	-0.9100395291	-1.2277473508	-0.078089
C	-3.4196149982	-0.4183554982	-1.7460304428	-0.091554
O	-3.9968298908	-1.3298027644	-2.674065811	-0.421071
H	 1.0940250434	 1.8940849777	-0.067576051	 0.111222
H	-0.3299186363	 1.7921766467	-1.1158206209	 0.118508
H	-0.5256352124	 2.0770311787	 0.6177614556	 0.117759
H	 0.6021676431	-0.5021553793	-0.6392036184	 0.095777
H	 0.4370736187	-0.2196797924	 1.0869064121	 0.093083
H	-1.9621774847	-0.1924059356	 2.1632235687	 0.100434
H	-3.1727323313	 0.4918109059	 1.0668596617	 0.097041
H	-2.7460243486	-2.4147372259	 1.8419854805	 0.104304
H	-4.0067415581	-1.906419654	 0.708640131	 0.093476
H	-1.3436679537	-2.8558180552	-0.3204501825	 0.081872
H	-1.367478532	-1.0520311611	-2.0326351505	 0.087193
H	-4.1150825668	-0.2050001874	-0.921833715	 0.087561
H	-3.2856383307	 0.5179920665	-2.298962378	 0.107337
H	-4.010420352	-2.1931007661	-2.247265321	 0.281439
65.1359	90.9686	129.4566	182.0613	216.8074	251.2454	274.2342	317.7321	330.1288	395.9527	469.0681	541.1965	648.1289	735.0833	783.6379	796.3321	826.	876.7384	919.7439	946.8762	970.4529	988.5591	1009.6079	1022.0741	1047.7004	1055.011	1085.2992	1097.9905	1140.4357	1164.0037	1202.4384	1225.7063	1230.9656	1243.57	1259.0939	1286.5055	1322.4375	1337.8519	1355.3447	1383.1602	1408.46	1420.242	1472.481	1479.9408	1483.8979	1497.4682	1504.0275	1507.2494	1518.2067	3001.2947	3009.5019	3032.7815	3040.7695	3046.1886	3051.8792	3062.6784	3089.574	3101.2176	3105.318	3109.1023	3120.8461	3167.092	3807.5616
CCC12CCC1C2CO	CC[C@]12CC[C@H]1[C@H]2CO	
InChI=1S/C8H14O/c1-2-8-4-3-6(8)7(8)5-9/h6-7,9H,2-5H2,1H3	InChI=1S/C8H14O/c1-2-8-4-3-6(8)7(8)5-9/h6-7,9H,2-5H2,1H3/t6-,7+,8-/m0/s1
