21
gdb 41945	2.22823	1.93867	1.59145	0.0393	76.47	-0.2382	0.072	0.3102	973.7738	0.18704	-424.237163	-424.229947	-424.229002	-424.268448	29.931	
C	-0.0330166068	 1.3735335516	-0.1159577045	-0.073625
C	 1.3550855167	 2.0280797691	 0.0159567833	-0.238406
C	 2.2758823084	 1.33111188	 1.0372868094	 0.11573
C	 2.2635799714	-0.1750920948	 0.7643082708	-0.227668
C	 0.8138855177	-0.6334058677	 0.9422310552	 0.115735
C	 0.374417909	-0.3386964913	 2.3902511015	-0.238396
C	 0.6954410945	 1.0937621791	 2.8567777525	-0.073627
O	 1.9522007097	 1.5839008277	 2.4045697673	-0.276706
O	-0.0120677818	-0.0481151771	-0.0644269262	-0.27671
H	-0.7172730959	 1.7700900978	 0.6455341165	 0.095717
H	-0.4712994548	 1.6203956677	-1.0884419876	 0.104977
H	 1.8666473804	 1.9831594099	-0.9531750781	 0.104793
H	 1.2393890027	 3.0861319834	 0.2736822102	 0.104785
H	 3.2853356594	 1.7401329079	 0.9311160711	 0.078845
H	 2.6027838046	-0.3898623726	-0.2539148141	 0.097725
H	 2.9246832689	-0.6895724713	 1.4687331743	 0.097726
H	 0.7180978872	-1.7085064019	 0.7618111525	 0.078845
H	-0.6975559574	-0.5309570943	 2.505101307	 0.104781
H	 0.9038656527	-1.0525885435	 3.0328821025	 0.10479
H	-0.1077659864	 1.7816020212	 2.5617070626	 0.095715
H	 0.7492594	 1.127200449	 3.9498204643	 0.104976
140.8039	188.2458	304.1877	351.3606	372.273	399.4186	426.7788	527.2846	575.3558	667.7611	732.9876	777.0473	809.9133	841.752	850.2423	877.7154	921.7725	984.1887	988.9756	1010.821	1049.4327	1072.1353	1095.9963	1108.9782	1123.2162	1137.795	1208.9543	1242.9077	1260.6432	1269.3597	1281.732	1318.8118	1351.9636	1358.1944	1365.7022	1379.753	1386.8068	1399.4229	1415.8428	1431.9408	1463.6463	1471.3131	1480.2709	1502.889	1529.0403	2999.3971	3021.7532	3029.6771	3029.8454	3043.2521	3059.0926	3062.9217	3065.1044	3069.2579	3082.893	3085.993	3096.3571
C1CC2CC(CCO2)O1	C1C[C@@H]2C[C@@H](CCO2)O1	
InChI=1S/C7H12O2/c1-3-8-7-2-4-9-6(1)5-7/h6-7H,1-5H2	InChI=1S/C7H12O2/c1-3-8-7-2-4-9-6(1)5-7/h6-7H,1-5H2/t6-,7-/m1/s1
