16
gdb 130317	3.03826	1.43688	1.02771	3.5318	71.66	-0.2165	0.0092	0.2257	1118.4578	0.125717	-434.021192	-434.013397	-434.012452	-434.053877	29.512	
N	 0.2549170579	 1.2599152576	-0.4415162653	-0.593251
C	 0.0738899598	-0.0793288833	-0.1464617033	 0.361778
N	-1.1074121219	-0.6518356629	-0.1240319233	-0.230285
O	-0.8605633116	-2.0049988896	 0.1429451087	-0.183797
C	 0.465250678	-2.1899424477	 0.2734874706	 0.008617
C	 1.1299288795	-1.0179461338	 0.1014691161	 0.094988
N	 2.4862932632	-0.6778663509	 0.2115661685	-0.177999
C	 3.4841680339	-1.671429962	-0.1708158945	-0.228825
C	 3.2508267149	-0.4799231771	-1.0306217666	-0.223371
H	 1.0212419783	 1.6758902287	 0.0707767835	 0.260732
H	-0.5948379973	 1.8020740864	-0.358235214	 0.260637
H	 0.7861521912	-3.1937023833	 0.5025074513	 0.141724
H	 4.3574343539	-1.7251559487	 0.4716362166	 0.126974
H	 3.1266225346	-2.6277484843	-0.5455006055	 0.123715
H	 2.7280986999	-0.6354352345	-1.9702879142	 0.13396
H	 3.9480197355	 0.3516546953	-1.0148773986	 0.124404
63.2102	155.8278	169.091	281.9929	297.6054	361.3588	445.2235	531.6525	566.7624	580.6683	676.3822	735.7013	775.1354	807.107	825.1652	890.8373	903.5277	928.6172	937.3496	1040.7753	1111.891	1130.7111	1133.1367	1163.5858	1172.19	1175.3445	1209.6157	1295.2537	1350.5709	1476.6139	1488.353	1513.9461	1567.8668	1636.5356	1683.0312	3109.6737	3118.1434	3196.034	3213.2706	3266.9278	3547.7714	3648.7902
NC1=NOC=C1N1CC1	Nc1nocc1N1CC1	
InChI=1S/C5H7N3O/c6-5-4(3-9-7-5)8-1-2-8/h3H,1-2H2,(H2,6,7)	InChI=1S/C5H7N3O/c6-5-4(3-9-7-5)8-1-2-8/h3H,1-2H2,(H2,6,7)
