18
gdb 65491	2.9514	1.22959	1.02434	3.2001	76.7	-0.2821	0.0128	0.2949	1197.6968	0.146648	-401.932863	-401.92421	-401.923265	-401.966302	33.075	
O	 0.4090674818	 1.3663060932	-0.6117933169	-0.458556
C	 0.0110530253	 0.1610404466	-0.0043069132	 0.276491
C	 0.127103654	 0.0515486834	 1.558633552	-0.367468
C	-1.3358689263	-0.4053823033	 1.5849864048	 0.393552
C	-1.8361363371	-1.6941691431	 2.1696753	-0.311922
C	-2.3090489209	-0.3663391229	 2.7203831068	-0.330665
C	-1.5364774637	 0.0510255781	 0.1355368486	-0.346696
C	 0.6145408988	-0.9928092684	-0.6877111062	 0.232922
N	 1.1235276363	-1.8826756054	-1.2224259647	-0.339823
H	 1.3719225145	 1.3881169339	-0.6608309809	 0.292711
H	 0.8846024145	-0.6279108167	 1.9553003366	 0.118967
H	 0.272087161	 1.0539833685	 1.9723313477	 0.116737
H	-2.5345595678	-2.283530795	 1.5842212129	 0.120154
H	-1.1509645164	-2.2826664061	 2.7714120054	 0.119384
H	-1.9447669613	-0.0579807338	 3.6952608009	 0.116411
H	-3.3281327082	-0.0581804035	 2.508967485	 0.117388
H	-1.9637275034	 1.0543862075	 0.0532436278	 0.125886
H	-2.046287261	-0.6240352831	-0.5539993465	 0.124526
48.0837	160.3748	183.1112	251.5609	285.8957	298.3112	335.9266	402.1958	423.1846	446.9927	587.0218	608.7117	681.6536	773.6537	801.4015	839.1583	881.3033	902.5175	928.5427	971.6595	993.1821	1005.0052	1056.3368	1081.6733	1091.0272	1101.7789	1166.192	1187.5143	1228.9891	1245.5091	1258.5668	1281.8716	1362.2797	1392.5679	1464.4631	1465.2878	1486.2816	1506.1909	2347.8171	3055.2714	3065.2838	3119.552	3123.7807	3127.7514	3128.003	3202.0816	3216.9173	3798.6925
OC1(CC2(CC2)C1)C#N	OC1(CC2(CC2)C1)C#N	
InChI=1S/C7H9NO/c8-5-7(9)3-6(4-7)1-2-6/h9H,1-4H2	InChI=1S/C7H9NO/c8-5-7(9)3-6(4-7)1-2-6/h9H,1-4H2
