19
gdb 56283	6.43798	0.52601	0.49219	4.3773	78.77	-0.2721	0.024	0.2961	2141.1858	0.157863	-419.239545	-419.229202	-419.228258	-419.276569	35.19	
C	-0.0576977477	 1.4412696046	-0.1655133381	-0.461078
C	 0.0703858902	-0.0404816379	 0.0759191326	 0.394385
N	 0.245324541	-0.660237465	 1.1696159617	-0.520068
O	-0.0281884946	-0.7107799544	-1.0937135596	-0.241137
C	 0.074920837	-2.1343103058	-1.0237808337	-0.052546
C	-0.0634074139	-2.6630357112	-2.4441274425	-0.2025
C	 0.0353223034	-4.2003215921	-2.4703474149	-0.342716
C	-0.0932785516	-4.74527938	-3.8197035782	 0.259092
N	-0.1965141049	-5.1628191429	-4.8920916194	-0.301443
H	 0.0195429268	 1.9975463116	 0.7697689452	 0.128993
H	 0.7249082545	 1.7803365427	-0.8509338849	 0.14875
H	-1.0192365125	 1.664244816	-0.6377450273	 0.148751
H	 0.297112406	-0.0074076975	 1.9479675715	 0.222271
H	 1.0372074854	-2.4108702386	-0.5773962151	 0.121462
H	-0.7079133104	-2.5267919525	-0.3643126786	 0.121439
H	-1.0237641612	-2.3473583634	-2.8630685945	 0.131508
H	 0.7191713416	-2.2318083357	-3.07584265	 0.131505
H	 0.9951456723	-4.5290767392	-2.0544806976	 0.156667
H	-0.7457553512	-4.6445170587	-1.8419413467	 0.156665
41.3779	76.7381	80.8304	103.2613	115.1181	181.227	184.9597	284.5743	350.762	398.2859	464.4164	552.8928	573.9166	624.8313	754.2212	848.666	869.3685	906.8829	943.2103	991.3917	1038.2915	1068.5781	1076.6694	1090.7256	1120.2894	1122.1338	1221.153	1276.7851	1294.8799	1313.2995	1356.4121	1376.9431	1402.9717	1438.056	1470.8659	1471.2254	1482.1108	1497.5137	1519.3822	1729.4192	2364.8767	3033.4593	3038.7179	3049.6662	3061.4345	3068.7357	3073.8386	3111.2799	3113.3633	3145.3928	3518.6189
CC(=N)OCCCC#N	C[C]([NH])OCCCC#N	
InChI=1S/C6H10N2O/c1-6(8)9-5-3-2-4-7/h8H,2-3,5H2,1H3	InChI=1S/C6H10N2O/c1-6(8)9-5-3-2-4-7/h8H,2-3,5H2,1H3
