15
gdb 129515	5.14247	0.97721	0.82211	5.7094	69.65	-0.2081	0.0236	0.2317	1304.6962	0.115403	-450.179138	-450.171015	-450.170071	-450.212519	30.1	
N	-0.1511562471	 1.4211129953	 0.1140394923	-0.577137
C	 0.1004647611	 0.0522618773	 0.0447041673	 0.450934
O	 1.2232441254	-0.4113116328	 0.0460053923	-0.373594
N	-1.0508776492	-0.7080082095	 0.0187540125	-0.473802
C	-1.0851001726	-2.1073061866	 0.002519292	 0.290705
C	-2.2280986999	-2.8838496583	 0.0399191113	-0.161859
N	-1.7999228183	-4.1733052488	-0.0070510823	-0.173646
N	-0.4667302884	-4.2874142511	-0.0735374292	-0.220344
C	-0.0157625988	-3.0348438279	-0.0681512002	-0.063763
H	 0.6833491368	 1.9611443097	-0.0604995655	 0.263665
H	-0.9633214972	 1.7733978309	-0.3713095961	 0.246673
H	-1.924920755	-0.2390666447	 0.1916241041	 0.246509
H	-3.2735761042	-2.6255652864	 0.0940587113	 0.122728
H	-2.3633452938	-5.0054194068	 0.0061049161	 0.274911
H	 1.0366380711	-2.8179746501	-0.1095362959	 0.148019
49.5352	87.947	171.2441	327.0817	347.3333	358.0905	388.8005	448.8676	467.3527	568.3032	623.681	646.6037	692.2499	735.1742	764.6813	804.6951	892.6332	945.9704	983.2656	1040.8855	1076.9024	1100.4526	1164.129	1253.1279	1294.1107	1343.3176	1394.8274	1411.848	1505.917	1540.7947	1629.6576	1646.3336	1808.6804	3259.0075	3308.522	3569.3566	3638.2993	3681.3208	3684.9957
NC(=O)NC1=CNN=C1	NC(=O)Nc1c[nH]nc1	
InChI=1S/C4H6N4O/c5-4(9)8-3-1-6-7-2-3/h1-2H,(H,6,7)(H3,5,8,9)	InChI=1S/C4H6N4O/c5-4(9)8-3-1-6-7-2-3/h1-2H,(H,6,7)(H3,5,8,9)
