17
gdb 102954	2.5168	0.9606	0.79445	3.0489	69.65	-0.2682	0.0104	0.2786	1434.5926	0.135219	-455.17721	-455.167273	-455.166329	-455.213662	33.907	
O	 0.0206975961	 1.1565124036	-0.4441111601	-0.412757
C	 0.0724616886	-0.1565606648	 0.0586032198	-0.071055
C	-1.3171892373	-0.8365247993	 0.0990909709	-0.154784
C	-1.2294389195	-2.2957601829	 0.6084192321	-0.183002
N	-2.5037294837	-2.9850417526	 0.6014620899	-0.269891
C	-3.0037031588	-3.5279259707	-0.5436295116	 0.155013
O	-2.4196946857	-3.5316785362	-1.6066142896	-0.320708
C	-2.2255147632	-0.0507603283	 0.9366356664	 0.250154
N	-2.9103006226	 0.5782972773	 1.6243560107	-0.325815
H	-0.4595404286	 1.7045903783	 0.1870399175	 0.299536
H	 0.7106092834	-0.7257049273	-0.6239111708	 0.131919
H	 0.527627918	-0.1987331962	 1.0600978506	 0.104536
H	-1.719680941	-0.8544887574	-0.9192784955	 0.162453
H	-0.5519086514	-2.8419860225	-0.0523366919	 0.152745
H	-0.8219565144	-2.3168769974	 1.6227999327	 0.126619
H	-3.0991008067	-2.9240318571	 1.4121204129	 0.264406
H	-4.0020364533	-3.9805134165	-0.3926570039	 0.090633
33.8843	57.4026	99.3637	141.2881	158.5604	233.6406	261.129	299.2288	372.5054	397.4387	426.0391	513.4532	557.2961	628.0156	750.0444	801.7326	932.4548	969.9629	1033.5055	1049.529	1077.9268	1086.2335	1102.2994	1205.3514	1216.2479	1248.57	1304.4294	1369.6973	1388.4301	1401.1362	1423.0433	1426.9022	1466.5291	1504.0066	1526.6665	1800.2665	2349.0744	2958.7311	2989.0468	3063.2045	3074.6219	3091.1156	3123.6406	3639.4692	3801.2086
OCC(CNC=O)C#N	OC[C@@H](CNC=O)C#N	
InChI=1S/C5H8N2O2/c6-1-5(3-8)2-7-4-9/h4-5,8H,2-3H2,(H,7,9)	InChI=1S/C5H8N2O2/c6-1-5(3-8)2-7-4-9/h4-5,8H,2-3H2,(H,7,9)/t5-/m1/s1
