20
gdb 105549	2.38063	1.40465	1.10799	4.1192	75.22	-0.232	0.0637	0.2957	1172.5238	0.169995	-440.208225	-440.199034	-440.19809	-440.242715	33.772	
O	-0.0198107253	 1.524956228	 0.4847948196	-0.412233
C	 0.0810736585	 0.1180859581	 0.3348835765	-0.183015
C	-1.3204586503	-0.4350285662	 0.067593047	 0.286012
C	-2.4623103654	 0.1746154938	 0.9196740996	-0.090392
O	-3.0950653519	 0.7423316998	-0.2417227542	-0.272245
C	-2.0615670364	 0.244537076	-1.1119863205	-0.089677
N	-1.4360430651	-1.8897854664	 0.0088588492	-0.121162
C	-0.2946559491	-2.7637287391	-0.2388639657	-0.232845
C	-0.9482824592	-2.7214943424	 1.1009748141	-0.230189
H	 0.8670209534	 1.884853332	 0.5748191324	 0.292326
H	 0.7357805305	-0.1380283771	-0.5125755713	 0.095184
H	 0.51089483	-0.3421153174	 1.2390929379	 0.090923
H	-3.0936891296	-0.573380362	 1.4127555113	 0.096319
H	-2.1513397369	 0.9431594889	 1.6345351264	 0.108027
H	-1.5118851123	 1.0589616121	-1.5971070577	 0.099201
H	-2.4465098492	-0.458393913	-1.8588148351	 0.098369
H	-0.4826354418	-3.5892196002	-0.9202319537	 0.120001
H	 0.704844414	-2.3427629464	-0.3126071961	 0.112464
H	-0.3850902966	-2.2610844304	 1.9105979789	 0.112722
H	-1.6190223372	-3.516286858	 1.4164496412	 0.120209
54.4298	85.7036	122.9692	216.0165	229.3581	248.2211	300.8377	329.9586	382.4651	484.4174	494.0045	613.5782	782.5455	825.883	860.667	890.708	907.4726	968.5912	994.	995.6342	1038.2207	1048.3582	1081.8302	1109.4032	1119.7617	1143.9192	1155.5687	1160.2478	1171.1209	1176.5712	1180.4587	1239.1215	1275.3952	1292.6315	1316.8651	1342.7224	1388.9839	1456.6804	1490.1939	1495.2338	1515.7887	1521.8071	1525.5856	2965.8222	2997.7256	3021.1771	3031.88	3079.8399	3084.2212	3095.6263	3107.8776	3174.3765	3191.2466	3835.4179
OCC1(COC1)N1CC1	OCC1(COC1)N1CC1	
InChI=1S/C6H11NO2/c8-3-6(4-9-5-6)7-1-2-7/h8H,1-5H2	InChI=1S/C6H11NO2/c8-3-6(4-9-5-6)7-1-2-7/h8H,1-5H2
