23
gdb 82041	2.58445	1.45815	1.23144	0.2307	88.97	-0.2442	0.0891	0.3332	1161.6671	0.206525	-351.11991	-351.111359	-351.110415	-351.152702	34.334	
C	-0.10004509	 1.5717825331	-0.4124106724	-0.410242
C	 0.0615634455	 0.074057373	-0.1823348816	-0.069914
C	 1.2058001438	-0.674423132	-0.8835683884	-0.053921
C	 2.5457369701	-0.2680542455	-0.3345287767	-0.293295
C	 1.6947816213	-1.2203291757	 0.4579242987	-0.111469
C	 0.5893130803	-0.4545561037	 1.197256671	 0.378898
C	 0.9677761982	 0.4264016326	 2.419821118	-0.282267
C	 0.4172476918	-0.6880542355	 3.3506846509	-0.211634
C	-0.3331904854	-1.2831375773	 2.1293452533	-0.292431
H	 0.8275335316	 2.1181771146	-0.2139346664	 0.113909
H	-0.3908765343	 1.7773323938	-1.4486811091	 0.112096
H	-0.8764804339	 1.9909546543	 0.2376333415	 0.110785
H	-0.8896399913	-0.4281693231	-0.3945477114	 0.067858
H	 1.120521852	-1.1904589511	-1.8330462375	 0.078344
H	 3.4014868379	-0.7121672715	-0.8335068338	 0.107311
H	 2.7246905597	 0.7424020042	 0.0252252762	 0.104968
H	 2.0289286526	-2.2222507542	 0.704277832	 0.078998
H	 2.0196493401	 0.7060125345	 2.5253061244	 0.093149
H	 0.3599835717	 1.3356398369	 2.4715161815	 0.095831
H	 1.2099519326	-1.3512164867	 3.7075726794	 0.101917
H	-0.1841422627	-0.3776488264	 4.2083621965	 0.093733
H	-1.3704714306	-0.9349506916	 2.0779787144	 0.093934
H	-0.3270100207	-2.3696124925	 2.0009096098	 0.093443
107.696	135.5304	185.9151	214.9921	253.7196	270.3347	366.5593	450.9431	524.2426	530.5552	664.9778	709.5625	785.5203	787.1647	792.1999	874.1623	886.7479	916.3159	937.1523	942.5507	957.2904	973.1839	993.8724	1020.6119	1048.1803	1065.2018	1082.9159	1093.3717	1110.4695	1155.2816	1160.543	1187.7919	1203.7478	1209.408	1248.5692	1253.9117	1257.7424	1275.5582	1294.1511	1319.5542	1358.1423	1368.6714	1408.5116	1471.4834	1482.7755	1486.3685	1494.303	1499.7498	1504.7496	3026.5906	3031.3383	3038.5436	3046.0921	3059.4846	3085.9028	3088.3603	3094.3244	3101.6631	3110.5684	3114.7488	3162.9549	3173.3538	3197.2775
CC1C2CC2C11CCC1	C[C@H]1[C@H]2C[C@H]2C21CCC2	
InChI=1S/C9H14/c1-6-7-5-8(7)9(6)3-2-4-9/h6-8H,2-5H2,1H3	InChI=1S/C9H14/c1-6-7-5-8(7)9(6)3-2-4-9/h6-8H,2-5H2,1H3/t6-,7+,8+/m0/s1
