14
gdb 28947	3.01718	1.29068	1.03558	3.5806	67.43	-0.2174	0.004	0.2214	1113.7098	0.10197	-432.898597	-432.890468	-432.889524	-432.932466	28.773	
O	 0.1148840372	 1.343659437	 0.2189247418	-0.438538
C	 0.0807293872	 0.0097412796	-0.0048398105	 0.343487
C	 0.0860000883	-0.8045632664	-1.1035770598	-0.210031
N	 0.0466419441	-2.1269236498	-0.6989440776	-0.2558
C	 0.0164545176	-2.1060505728	 0.6043234429	 0.003854
N	 0.0435134759	-0.8164614462	 1.096090853	-0.047489
C	-0.0066320759	-0.3854364311	 2.475876403	-0.309388
C	-1.3676420211	-0.0718777718	 2.9404107162	 0.280029
N	-2.4318573688	 0.1727233725	 3.3151812733	-0.291056
H	 0.1008255535	 1.8035090948	-0.6262075078	 0.318893
H	 0.1201120135	-0.5254054135	-2.1450033411	 0.10989
H	-0.0185269534	-2.9603520504	 1.2638972404	 0.136039
H	 0.4103838417	-1.1750065457	 3.1075187121	 0.174455
H	 0.6185082602	 0.5035935138	 2.5993284539	 0.185656
33.063	84.0641	203.9675	238.0753	256.1583	317.1148	366.2937	434.8022	516.8964	656.0636	674.3697	699.9786	766.8215	778.5514	787.5286	916.9232	927.509	972.3812	1120.6778	1147.2078	1204.7836	1251.5067	1294.1579	1317.0011	1379.3336	1391.5011	1452.8613	1502.4538	1548.2585	1622.408	2369.3493	3067.6459	3112.544	3248.7666	3253.1112	3845.6307
OC1=CN=CN1CC#N	Oc1cncn1CC#N	
InChI=1S/C5H5N3O/c6-1-2-8-4-7-3-5(8)9/h3-4,9H,2H2	InChI=1S/C5H5N3O/c6-1-2-8-4-7-3-5(8)9/h3-4,9H,2H2
