18
gdb 85452	2.66924	1.51402	1.0887	4.9829	72.28	-0.2438	0.0524	0.2962	1121.4634	0.148121	-439.12812	-439.119941	-439.118997	-439.160835	31.598	
C	-0.2073846935	 1.4824747618	-0.0478657246	-0.41248
C	 0.1088391798	 0.0000328204	-0.024067452	 0.070759
O	 1.0943804156	-0.2952783886	-1.036102051	-0.254457
C	 1.9754197664	-1.2344648047	-0.5791132688	 0.463935
O	 2.8603846661	-1.6983524531	-1.2415908176	-0.391692
N	 1.642551484	-1.5357586343	 0.7268795489	-0.427243
C	 0.7283236681	-0.5631237086	 1.2604108456	 0.35527
C	 1.0552313504	 0.2468161179	 2.4882147292	-0.323611
C	-0.0465247576	-0.8006475507	 2.5153342693	-0.325551
H	 0.6864185379	 2.074252865	 0.1655221038	 0.135381
H	-0.5843888485	 1.7646270508	-1.0339411285	 0.139308
H	-0.9782479579	 1.7242145331	 0.6909111104	 0.122805
H	-0.7905483297	-0.5812640225	-0.269733155	 0.099532
H	 2.3510699891	-1.9752526095	 1.2924173237	 0.258492
H	 1.9820271068	 0.0202461674	 3.0057952772	 0.11856
H	 0.7722274297	 1.2927884373	 2.5224986849	 0.125137
H	-1.0764207537	-0.4588151545	 2.5545211654	 0.122993
H	 0.1353094969	-1.7226821672	 3.0574511091	 0.122861
84.1172	137.2044	227.7066	253.1808	261.3734	318.8364	422.7861	455.6943	519.0233	526.8008	551.833	686.6285	752.2152	767.8454	774.3767	887.49	911.2076	931.7036	949.8548	983.7124	996.0718	1056.0762	1079.1183	1093.8077	1110.7165	1139.2815	1187.9214	1239.5651	1285.3352	1320.0677	1370.6302	1392.8307	1412.2736	1437.8042	1462.166	1487.2969	1495.0597	1512.4746	1893.3532	3009.5073	3046.1769	3118.5749	3125.1359	3131.8736	3133.0921	3206.9566	3222.7992	3648.0024
CC1OC(=O)NC11CC1	C[C@H]1OC(=O)NC21CC2	
InChI=1S/C6H9NO2/c1-4-6(2-3-6)7-5(8)9-4/h4H,2-3H2,1H3,(H,7,8)	InChI=1S/C6H9NO2/c1-4-6(2-3-6)7-5(8)9-4/h4H,2-3H2,1H3,(H,7,8)/t4-/m1/s1
