12
gdb 21459	6.24485	1.48116	1.1972	3.4125	59.19	-0.2434	-0.0234	0.22	916.1295	0.085827	-410.835501	-410.828917	-410.827973	-410.866816	23.309	
N	 0.2785127304	 1.2746983298	 0.0038177114	-0.402506
C	 0.0548427638	 0.0273449699	 0.0011881351	 0.070245
N	-1.2173000938	-0.5165025588	 0.0113509162	-0.379682
C	-2.4292710913	 0.1299577485	 0.0257749241	 0.491559
N	-2.6279605765	 1.4285022403	 0.0325355511	-0.182947
O	-4.0431471272	 1.508472284	 0.0469676643	-0.155824
C	-4.494194217	 0.2620905885	 0.046524555	 0.126109
N	-3.5739142341	-0.6470280326	 0.0342217158	-0.337098
H	 1.2804385166	 1.4533318442	-0.0051253921	 0.231206
H	 0.8104245063	-0.7671027479	-0.0091203739	 0.099182
H	-1.3004548366	-1.5201135153	 0.0085450198	 0.271598
H	-5.5650924607	 0.1197892995	 0.0566124133	 0.168159
73.2118	169.7064	182.4385	361.2338	363.1269	507.0565	612.8663	617.9695	767.033	813.9448	815.3545	893.8269	909.9143	974.9425	1015.6979	1052.6571	1110.4851	1169.9449	1240.6005	1291.8201	1338.5226	1419.0689	1517.3033	1595.4459	1633.455	1741.8936	3049.586	3265.1153	3513.7053	3655.7592
N=CNC1=NOC=N1	N=CNc1nocn1	
InChI=1S/C3H4N4O/c4-1-5-3-6-2-8-7-3/h1-2H,(H2,4,5,7)	InChI=1S/C3H4N4O/c4-1-5-3-6-2-8-7-3/h1-2H,(H2,4,5,7)
