15
gdb 114933	3.38772	1.11553	0.89987	5.1026	69.37	-0.2845	-0.0574	0.227	1252.1834	0.112571	-453.959291	-453.950999	-453.950055	-453.992869	29.142	
C	-0.1151807853	 1.4241896875	 0.0610164118	-0.251294
O	-0.0328412111	 0.0032213492	 0.0417038551	-0.22033
C	 0.7314155495	-0.5393409811	 1.0497974179	 0.174655
C	 0.7025397281	-2.0774024281	 0.9506343321	-0.21394
N	 2.0232895373	-2.4646958457	 0.4394971122	-0.298803
C	 2.704012109	-1.3930882556	 0.4319538438	 0.321864
O	 2.1477182973	-0.2289340101	 0.853623747	-0.26162
C	 4.0747139721	-1.3051989171	 0.0115206297	 0.280232
N	 5.1777797066	-1.224397698	-0.3211532364	-0.311374
H	 0.8625628046	 1.8810006996	-0.1248182009	 0.140457
H	-0.8074878378	 1.7081299828	-0.7327700204	 0.142517
H	-0.5022341122	 1.7820060553	 1.0253661704	 0.118123
H	 0.4723137956	-0.1171040063	 2.0284716307	 0.093432
H	 0.5329826126	-2.55738134	 1.9194762088	 0.136899
H	-0.0850879864	-2.3956820224	 0.2632855782	 0.149184
71.3324	123.5251	157.9722	177.8782	193.2037	274.4818	403.5114	425.6682	499.1212	568.3669	608.7935	715.6275	786.1146	852.287	919.5944	947.3327	1013.9691	1022.9171	1070.0111	1148.59	1179.7551	1196.4312	1228.7952	1269.0883	1331.5336	1351.7115	1404.436	1470.9375	1481.9521	1488.0677	1509.6934	1699.4712	2373.1823	3007.317	3037.2405	3062.9238	3083.7217	3113.4174	3142.8447
COC1CN=C(O1)C#N	CO[C@H]1C[N][C](O1)C#N	
InChI=1S/C5H6N2O2/c1-8-5-3-7-4(2-6)9-5/h5H,3H2,1H3	InChI=1S/C5H6N2O2/c1-8-5-3-7-4(2-6)9-5/h5H,3H2,1H3/t5-/m1/s1
