17
gdb 42715	2.48699	2.13303	1.71959	2.8466	75.	-0.2358	0.0001	0.2359	867.2172	0.13867	-384.691494	-384.685113	-384.684169	-384.721857	27.044	
O	 0.0035764427	 0.0646325332	 0.1344726228	-0.334363
C	-0.0146701951	 1.2528756584	 0.0309922955	 0.4148
C	-1.1849479846	 2.2744984448	-0.0031335022	-0.177384
C	-0.6973035112	 3.08673475	 1.1860312834	-0.081988
C	 0.6484486165	 3.1056988344	 1.1669451509	-0.081989
C	 1.1248639473	 2.3071063813	-0.0359304292	-0.177381
C	 0.6957658608	 3.0728298012	-1.30967929	-0.025793
C	-0.064021301	 2.322563501	-2.3815434875	-0.327465
C	-0.8139786116	 3.0515007075	-1.2882520737	-0.025792
H	-2.192240045	 1.8651927051	 0.0498192136	 0.083008
H	-1.3463031899	 3.5399688558	 1.9238258637	 0.10718
H	 1.3050805667	 3.5773422988	 1.886215465	 0.107179
H	 2.1444042202	 1.9264145356	-0.0117664954	 0.083008
H	 1.2463135177	 3.9693206646	-1.5698125925	 0.09374
H	-0.0843709626	 2.770809587	-3.3690811567	 0.113781
H	-0.0488967237	 1.2369431511	-2.3966256523	 0.135718
H	-1.3967820474	 3.9319802703	-1.5323090954	 0.093741
165.843	296.7396	301.494	417.2795	485.2232	497.9049	610.0003	643.5952	699.1482	759.472	784.3923	828.1299	828.3614	841.881	888.6189	933.6834	940.672	949.7132	981.8369	992.9103	1016.7468	1076.003	1076.5255	1101.1985	1115.803	1122.2458	1191.3068	1201.5865	1211.2361	1243.3939	1259.3469	1304.4061	1350.8285	1359.9367	1492.6598	1605.2797	1894.6168	3127.8431	3135.3163	3136.5734	3171.923	3180.0608	3206.2784	3211.6961	3229.2499
O=C1C2C=CC1C1CC21	O=C1[C@H]2C=C[C@@H]1[C@H]1C[C@@H]21	
InChI=1S/C8H8O/c9-8-4-1-2-5(8)7-3-6(4)7/h1-2,4-7H,3H2	InChI=1S/C8H8O/c9-8-4-1-2-5(8)7-3-6(4)7/h1-2,4-7H,3H2/t4-,5+,6-,7+
