18
gdb 68793	2.72589	1.3107	1.12294	2.9261	76.88	-0.2633	0.0264	0.2897	1153.1353	0.145653	-401.945591	-401.936567	-401.935623	-401.979112	33.486	
C	-0.1940592889	 1.5334206982	 0.0699494309	-0.502266
C	 0.1586872719	 0.0841195155	 0.0128659186	 0.35252
C	 0.721508466	-0.7083085098	-1.1777344031	-0.304218
C	 1.3380968468	-1.7354171829	-0.1513973001	-0.216392
C	 2.7873692349	-1.8179709914	-0.1841591906	 0.269132
N	 3.9431917	-1.8627383637	-0.1875873817	-0.334298
C	 0.7510844455	-0.8502115191	 0.993420282	 0.347784
C	 1.2589445489	-0.7212981388	 2.3904215452	-0.511461
O	-0.6577191313	-0.8479275833	 0.7534580825	-0.320402
H	 0.6295908714	 2.1474502282	-0.3074650968	 0.132993
H	-1.0782854341	 1.7397241886	-0.543427972	 0.1377
H	-0.4169383526	 1.8351412869	 1.0965273896	 0.138047
H	-0.0202777429	-1.1183033819	-1.8660603897	 0.121524
H	 1.4929118328	-0.1722246767	-1.7335454513	 0.131767
H	 0.9042926872	-2.7381658732	-0.1784417135	 0.130615
H	 2.3391204498	-0.5492894728	 2.3936998824	 0.150052
H	 0.7644577602	 0.1091852269	 2.9006069763	 0.137586
H	 1.0586315943	-1.6365883807	 2.9584393111	 0.139316
92.1004	135.4334	179.4686	188.3284	190.8333	265.8921	318.4892	341.436	452.0999	479.4129	504.4467	554.2868	619.3991	692.9491	735.97	805.0304	873.7402	900.6217	955.2769	984.9566	1016.0095	1080.7391	1090.1845	1130.8956	1168.6308	1195.5716	1208.2672	1228.2337	1297.9691	1314.6044	1411.3292	1413.7817	1461.8813	1475.9744	1476.7108	1485.7242	1490.8153	1527.831	2351.3879	3037.1772	3039.9487	3075.9758	3085.5826	3100.7535	3106.0726	3124.1826	3128.4388	3139.4367
CC12CC(C#N)C1(C)O2	C[C@@]12C[C@@H](C#N)[C@]1(C)O2	
InChI=1S/C7H9NO/c1-6-3-5(4-8)7(6,2)9-6/h5H,3H2,1-2H3	InChI=1S/C7H9NO/c1-6-3-5(4-8)7(6,2)9-6/h5H,3H2,1-2H3/t5-,6+,7-/m0/s1
