16
gdb 78681	3.4387	1.51417	1.19914	1.3101	69.48	-0.2183	-0.0061	0.2122	1014.1006	0.122438	-437.795293	-437.78728	-437.786336	-437.827674	30.276	
C	 0.026049066	 1.5104149756	-0.2785766537	-0.342712
N	 0.0515115902	 0.06438407	-0.0663436154	-0.108861
C	-1.0202510781	-0.4932450691	 0.8028357232	-0.074921
C	-0.1131103975	-1.7064027706	 1.2137918185	-0.212862
C	 0.7708823077	-0.4112486475	 1.1466692343	-0.075024
C	-0.3795609834	-0.0205249792	 2.1986697308	 0.234425
O	-0.5683259767	 1.1334172309	 2.9048224661	-0.468656
C	-0.4062045323	-1.4556732939	 2.6806605728	 0.390203
O	-0.5765539426	-2.042822127	 3.7095655129	-0.346464
H	 0.991092301	 1.8242252834	-0.6896368225	 0.122552
H	-0.7425008149	 1.7448778495	-1.0222925627	 0.122557
H	-0.1752870257	 2.0954830087	 0.6311161974	 0.130064
H	-2.0757331928	-0.5331672226	 0.5337861519	 0.102522
H	 0.0404929678	-2.6045231042	 0.6279643697	 0.116685
H	 1.8501621418	-0.3533622253	 1.2874759106	 0.102514
H	-0.7322857705	 0.8937253714	 3.825984856	 0.307979
102.7295	180.5656	197.9167	219.3562	221.4028	305.7861	394.6539	415.5575	593.9018	649.8081	668.2043	700.3939	796.7067	801.7113	850.0178	854.5425	911.8064	922.2998	985.6283	997.7498	1046.3583	1101.923	1105.5736	1157.4841	1160.2391	1200.0365	1206.1272	1209.4442	1296.3099	1332.9156	1411.1995	1449.9767	1493.0125	1500.1262	1908.9066	2998.1288	3075.28	3101.2453	3117.6867	3122.939	3207.3647	3770.887
CN1C2C3C1C2(O)C3=O	CN1[C@H]2[C@H]3[C@@H]1[C@]2(O)C3=O	
InChI=1S/C6H7NO2/c1-7-3-2-4(7)6(3,9)5(2)8/h2-4,9H,1H3	InChI=1S/C6H7NO2/c1-7-3-2-4(7)6(3,9)5(2)8/h2-4,9H,1H3/t2-,3-,4+,6-
