23
gdb 104408	2.4289	1.32473	1.14998	0.7117	80.65	-0.2592	0.0688	0.328	1227.0277	0.204943	-425.444558	-425.434327	-425.433383	-425.479856	38.51	
C	 0.0183627492	 1.61007844	 0.13928397	-0.409731
C	 0.0313379888	 0.0792959652	 0.0639370667	-0.215638
C	-1.3580125436	-0.554428505	-0.0730103222	 0.392987
O	-2.1623114718	-0.2780436197	 1.0831398911	-0.496402
C	-2.129266809	-0.1907281083	-1.3590454226	-0.247929
C	-3.1990337919	-1.3012856719	-1.5262669198	-0.200071
C	-2.7545106032	-2.458978645	-0.5886544646	-0.23547
C	-1.3325652787	-2.0949108575	-0.1353746075	 0.10519
O	-0.3524693064	-2.4566268144	-1.1053464353	-0.449749
H	 1.0322084023	 1.9992248083	 0.2717992834	 0.116769
H	-0.3897512632	 2.0605787704	-0.7716540788	 0.116904
H	-0.5745891312	 1.967264698	 0.9891769725	 0.104725
H	 0.6481535184	-0.2509283616	-0.7761841893	 0.115535
H	 0.4931742051	-0.3233416188	 0.9734495765	 0.095176
H	-2.4046485591	 0.6524651443	 1.0552761326	 0.277733
H	-2.5654468465	 0.8119322352	-1.3007314754	 0.081238
H	-1.4355213679	-0.1944867361	-2.2045681829	 0.110961
H	-4.192745099	-0.9426467642	-1.2469023097	 0.099405
H	-3.2630847908	-1.6244280625	-2.5682760421	 0.098773
H	-3.4057231339	-2.5191335445	 0.2863132093	 0.113667
H	-2.7746588832	-3.437724776	-1.0801730992	 0.077747
H	-1.0827219796	-2.5140531544	 0.84886625	 0.065236
H	-0.4122569348	-3.4066204413	-1.2416559025	 0.282944
37.2812	93.7258	142.9316	179.3265	224.2773	260.8205	264.6631	291.5518	339.6661	350.0103	394.0287	469.941	493.0678	620.9299	729.6518	730.3683	783.5624	808.3957	856.9047	893.7579	930.3644	967.8313	980.1887	1022.9661	1029.9326	1042.5776	1076.8272	1103.9052	1129.0834	1158.056	1191.7507	1225.6618	1238.7233	1260.2596	1296.0896	1307.8037	1320.7819	1335.0819	1340.1328	1366.6796	1387.93	1410.8107	1431.37	1473.0164	1477.5911	1481.3616	1504.1656	1507.0324	1511.3875	3011.2721	3029.8227	3038.0948	3045.6351	3046.6192	3067.6418	3081.7746	3085.0169	3097.8729	3104.3919	3106.9422	3114.9808	3825.1861	3829.9531
CCC1(O)CCCC1O	CC[C@@]1(O)CCC[C@H]1O	
InChI=1S/C7H14O2/c1-2-7(9)5-3-4-6(7)8/h6,8-9H,2-5H2,1H3	InChI=1S/C7H14O2/c1-2-7(9)5-3-4-6(7)8/h6,8-9H,2-5H2,1H3/t6-,7-/m1/s1
