17
gdb 125971	3.72365	1.20929	1.15364	3.0637	74.25	-0.2304	0.0174	0.2478	1117.1142	0.138393	-414.189275	-414.181402	-414.180457	-414.222425	29.153	
C	-0.2852285168	 1.5151625582	-0.1697633665	-0.416888
C	-0.1605247751	 0.0257451829	 0.035597243	 0.00147
C	 1.0911984499	-0.6978044279	-0.308528396	-0.24088
N	 0.7242063044	-0.5308160202	 1.0981461768	-0.207466
C	 1.5000352675	 0.3296964446	 1.8632735055	 0.44852
N	 2.6941873431	 0.8361558814	 1.5989691614	-0.325189
C	 2.9746461206	 1.5470770298	 2.7292115321	 0.027506
N	 2.0449851065	 1.5216796814	 3.6659421901	-0.216457
N	 1.1003690121	 0.7291567076	 3.0910046271	-0.256141
H	 0.6864088068	 2.0101367002	-0.1005705285	 0.149835
H	-0.7049453599	 1.7180353231	-1.1602863109	 0.129302
H	-0.9543786858	 1.9628956681	 0.5730449919	 0.126068
H	-1.0943376546	-0.5280422029	-0.0327547209	 0.102276
H	 1.0545251858	-1.7224862042	-0.6663702439	 0.123475
H	 1.9320325772	-0.1080492181	-0.661334014	 0.152796
H	 3.8934106489	 2.0993512576	 2.8603404445	 0.1236
H	 0.2634705294	 0.4797421885	 3.5909543381	 0.278173
43.5931	114.6664	184.0159	224.1239	293.0659	371.9861	446.0304	512.8836	547.7512	609.1256	694.6088	762.7924	802.937	865.6219	906.9583	915.0037	976.6392	999.6984	1044.2118	1059.8484	1115.3966	1135.106	1136.5663	1166.6118	1199.4304	1221.1061	1254.5125	1302.8949	1334.7051	1398.9194	1419.8704	1429.9604	1489.6957	1496.61	1507.2669	1515.6758	1588.1075	3038.2222	3099.4675	3118.5819	3122.1961	3140.0487	3211.8815	3257.451	3671.6078
CC1CN1C1=NC=NN1	C[C@H]1CN1c1ncn[nH]1	
InChI=1S/C5H8N4/c1-4-2-9(4)5-6-3-7-8-5/h3-4H,2H2,1H3,(H,6,7,8)	InChI=1S/C5H8N4/c1-4-2-9(4)5-6-3-7-8-5/h3-4H,2H2,1H3,(H,6,7,8)/t4-,9?/m0/s1
