18
gdb 16447	4.159	1.93125	1.71867	1.7192	70.89	-0.2442	0.0777	0.3219	838.0898	0.153903	-347.751859	-347.744871	-347.743927	-347.782614	27.854	
C	-0.0958138165	 1.5309122801	 0.0641609064	-0.505083
C	 0.1568796475	 0.0598925235	 0.0045251355	 0.412486
O	-0.7591434887	-0.8081441862	 0.690732152	-0.278633
C	 0.6405791507	-0.9287719773	 0.9913743251	-0.055424
C	 1.2926659619	-1.7954388684	-0.1107629362	-0.04966
C	 0.4020404405	-2.8970225464	-0.7588756948	-0.2222
C	-0.1147863539	-1.8622358232	-1.8089972114	-0.227183
C	 0.7763588044	-0.7604689682	-1.163476915	-0.095996
H	 0.7971429109	 2.0910942635	-0.2316734237	 0.123201
H	-0.9089316339	 1.8131188716	-0.6149525621	 0.129979
H	-0.3798230355	 1.8295329605	 1.0769705901	 0.132799
H	 0.9187997678	-0.8262650384	 2.0357566635	 0.094867
H	 2.3570590286	-1.9892387125	 0.0232978874	 0.068653
H	 0.9811509705	-3.7134225246	-1.1968575073	 0.094449
H	-0.3624915376	-3.3165338587	-0.1027869118	 0.109364
H	 0.1731931505	-2.0993323845	-2.835967757	 0.093661
H	-1.1876911269	-1.6644328541	-1.7777635706	 0.108016
H	 1.4669140595	-0.2042448966	-1.7984563403	 0.066703
152.9342	195.07	224.6618	263.3017	337.8311	461.1076	560.7907	626.081	701.7459	730.0262	791.9618	807.225	833.9051	871.869	890.9798	952.208	955.8273	973.4463	1002.0185	1022.7222	1066.4886	1094.792	1115.1523	1142.5483	1176.3244	1217.191	1232.9917	1248.2356	1252.9889	1278.2735	1287.5792	1309.4032	1402.7009	1456.8693	1460.9155	1479.7714	1482.9554	1494.0179	3031.0143	3063.2389	3069.8696	3093.0099	3101.3031	3112.2696	3115.8166	3118.6207	3132.7038	3163.0301
CC12OC1C1CCC21	C[C@]12O[C@H]1[C@H]1CC[C@@H]21	
InChI=1S/C7H10O/c1-7-5-3-2-4(5)6(7)8-7/h4-6H,2-3H2,1H3	InChI=1S/C7H10O/c1-7-5-3-2-4(5)6(7)8-7/h4-6H,2-3H2,1H3/t4-,5+,6-,7+/m0/s1
