21
gdb 37981	3.02957	1.64809	1.27901	1.1401	82.6	-0.2431	0.0908	0.3338	1045.4685	0.186547	-387.039533	-387.032601	-387.031657	-387.070613	29.111	
C	-0.0222154259	 1.6960416271	-0.0089796315	-0.224775
C	 1.4648068952	 1.2338622795	 0.0472487408	-0.09193
C	 0.9965581757	 0.2040815177	 1.1272770027	 0.059785
C	 1.8404386072	-0.9805512562	 1.5898192881	-0.258284
C	 2.7970028092	-1.5817754491	 0.5673385038	-0.079573
O	 2.1204604553	-2.0179119352	-0.5931849736	-0.233473
C	 1.9016082639	-0.985781235	-1.5286240824	-0.140388
C	 1.0750532735	 0.2163330687	-1.0819253619	 0.034754
C	-0.0682925228	 0.1378801424	-0.0230400349	-0.07027
H	-0.4135987733	 2.1879245284	 0.8850238495	 0.088331
H	-0.342839882	 2.2041199969	-0.9219270155	 0.087345
H	 2.3470011796	 1.8770974011	 0.0795191117	 0.063417
H	 0.5881500103	 0.693140358	 2.0198453033	 0.061396
H	 2.4316642858	-0.6659780732	 2.4611537704	 0.092185
H	 1.1665681718	-1.7703375131	 1.9471204528	 0.105417
H	 3.5857069426	-0.858108389	 0.3010931776	 0.084869
H	 3.2916048855	-2.4617504679	 0.9935665185	 0.100376
H	 2.8677949632	-0.6178461511	-1.9206570584	 0.084501
H	 1.3799463297	-1.4654618246	-2.3646953142	 0.105965
H	 0.773075667	 0.7319274695	-2.003755679	 0.062541
H	-0.9583790615	-0.4929667449	-0.0581398477	 0.06781
134.9391	218.1878	322.1537	339.2692	381.3971	408.3376	491.4666	621.2373	678.1703	752.9	766.7584	807.2355	848.8266	874.5615	891.5376	920.8373	958.0757	984.7969	1006.0506	1029.9387	1044.7129	1048.2267	1062.993	1102.1655	1123.9058	1139.4565	1164.1823	1174.1827	1194.6551	1218.5822	1221.8865	1235.0418	1286.362	1289.3232	1292.5602	1334.7923	1374.5489	1393.7599	1399.0108	1439.6343	1453.8247	1470.2011	1484.8892	1503.9032	1524.7949	2937.4852	2965.7587	3006.4534	3008.7374	3028.6445	3047.6353	3052.4275	3058.3819	3063.2817	3085.3443	3097.0963	3118.9567
C1C2C3CCOCC2C13	C1[C@H]2[C@@H]3CCOC[C@H]2[C@H]13	
InChI=1S/C8H12O/c1-2-9-4-8-6-3-7(8)5(1)6/h5-8H,1-4H2	InChI=1S/C8H12O/c1-2-9-4-8-6-3-7(8)5(1)6/h5-8H,1-4H2/t5-,6-,7+,8+
