25
gdb 60378	3.2709	0.73624	0.66523	1.3646	89.54	-0.252	0.0729	0.3249	1823.368	0.226582	-389.487153	-389.476158	-389.475214	-389.523729	41.223	
C	 0.0270582991	 1.5269562081	 0.2973212454	-0.381475
C	-0.0702052933	 0.0263899697	-0.012505519	 0.04255
C	-1.5387328075	-0.4024890394	-0.1366708794	-0.390177
C	 0.7126794095	-0.3661907837	-1.2792883732	-0.177252
C	 2.2338291048	-0.1823618471	-1.1882750699	-0.256497
C	 2.9674903582	-0.6324606892	-2.4385073795	 0.428348
O	 2.8306327314	-1.9999662529	-2.7427432825	-0.472149
C	 3.1282376595	 0.3161320266	-3.6031888009	-0.319791
C	 4.3224010893	-0.0795913387	-2.7525929918	-0.305744
H	 1.058077567	 1.8478341939	 0.4719260466	 0.114559
H	-0.3730628034	 2.1228797384	-0.5323280327	 0.109403
H	-0.5505543593	 1.778436258	 1.1929753313	 0.110206
H	 0.3697484157	-0.5226678194	 0.8329359806	 0.07254
H	-2.0271596535	 0.1112036455	-0.9737115676	 0.110082
H	-1.6268279731	-1.4800440554	-0.311577778	 0.108597
H	-2.1014887467	-0.1626458341	 0.7715434993	 0.109071
H	 0.5021956904	-1.4224433228	-1.4947421089	 0.082265
H	 0.3249669524	 0.2079995534	-2.1334478357	 0.089363
H	 2.4784361932	 0.8694593701	-1.0034772182	 0.093874
H	 2.6191581988	-0.7540478416	-0.3334533714	 0.100682
H	 1.9441364348	-2.136770432	-3.0931610465	 0.281826
H	 3.0705318527	-0.1079491511	-4.5995183498	 0.110743
H	 2.7393368767	 1.3250759755	-3.513250189	 0.108065
H	 4.7497162527	 0.6583075173	-2.082361783	 0.109601
H	 5.0348564904	-0.7689235192	-3.190281336	 0.121314
36.6409	70.0349	123.2129	131.3648	222.6672	235.8245	252.963	283.4861	310.0696	336.4923	388.113	414.2329	426.632	447.8465	520.1759	732.8679	766.058	780.273	835.012	897.8878	923.2472	925.4546	932.2295	956.72	964.7966	971.7784	1004.2815	1044.7533	1051.6437	1076.9187	1121.614	1147.9524	1188.4809	1192.8006	1222.4028	1277.2492	1283.3359	1307.6771	1327.7737	1356.5525	1368.4671	1377.4743	1400.0739	1406.9404	1421.9463	1452.7956	1473.0613	1486.9365	1490.3005	1498.8632	1500.2284	1505.1536	1511.8763	2993.7532	3000.4213	3020.7359	3022.5309	3027.718	3036.0236	3072.896	3086.698	3092.6128	3098.4042	3106.1616	3128.3645	3137.7312	3214.4358	3231.5382	3804.5113
CC(C)CCC1(O)CC1	CC(C)CCC1(O)CC1	
InChI=1S/C8H16O/c1-7(2)3-4-8(9)5-6-8/h7,9H,3-6H2,1-2H3	InChI=1S/C8H16O/c1-7(2)3-4-8(9)5-6-8/h7,9H,3-6H2,1-2H3
