21
gdb 98838	2.86088	1.09601	0.96157	3.4212	78.5	-0.2331	-0.0187	0.2143	1347.7289	0.180216	-424.229011	-424.218888	-424.217944	-424.265317	35.732	
C	-0.3072849152	 1.5431835692	 0.0905114686	-0.3773
C	-0.3574279351	 0.0615494355	-0.2718425145	-0.292698
C	 0.7796154762	-0.3822939073	-1.1804304893	 0.36919
O	 1.5474498315	 0.3952010906	-1.6970258636	-0.303616
C	 0.9200438555	-1.8913111298	-1.3796147563	 0.022589
O	 1.6119456626	-2.2372627937	-2.5835415928	-0.27088
C	 2.7610382308	-2.7161221857	-1.8564266854	-0.07583
C	 2.0306694483	-2.569508777	-0.5029349261	-0.034088
C	 2.721612459	-1.79366429	 0.6081295745	-0.428796
H	 0.6084156387	 1.7807619365	 0.6389572231	 0.127309
H	-0.3132967144	 2.1600828377	-0.8110595138	 0.138545
H	-1.1632698987	 1.8215515305	 0.7112522116	 0.110753
H	-0.3535482787	-0.5760385535	 0.6238340461	 0.118104
H	-1.2962889179	-0.1880061404	-0.787792225	 0.129201
H	-0.0674044466	-2.3687822218	-1.3249248935	 0.079322
H	 3.0446665596	-3.7310029935	-2.1572478832	 0.102399
H	 3.6217116151	-2.0462666902	-1.9778668079	 0.1114
H	 1.6771208921	-3.5334164435	-0.1282171066	 0.089121
H	 3.0608352059	-0.8142924334	 0.2590643734	 0.144806
H	 2.0596861654	-1.6423473886	 1.4677651998	 0.118568
H	 3.5973296159	-2.3461349918	 0.9653855309	 0.121901
41.2719	58.4311	72.0805	150.042	194.1353	198.8955	245.7955	303.3692	330.1521	359.4372	419.5394	568.1306	650.1829	715.6547	787.0507	839.2068	887.8753	901.6003	930.5731	967.3831	1004.094	1027.7786	1048.8045	1082.9769	1100.5676	1134.33	1142.8696	1156.9366	1176.6872	1237.9465	1274.7261	1276.852	1342.9171	1352.5436	1370.8341	1393.5187	1412.1703	1413.9875	1447.4193	1492.2182	1497.0981	1497.5463	1502.8902	1523.7844	1812.3574	3006.5805	3014.694	3019.4776	3032.5334	3035.5954	3051.4487	3059.8418	3077.9084	3094.2494	3117.8058	3120.1874	3130.7289
CCC(=O)C1OCC1C	CCC(=O)[C@H]1OC[C@H]1C	
InChI=1S/C7H12O2/c1-3-6(8)7-5(2)4-9-7/h5,7H,3-4H2,1-2H3	InChI=1S/C7H12O2/c1-3-6(8)7-5(2)4-9-7/h5,7H,3-4H2,1-2H3/t5-,7+/m1/s1
