19
gdb 46520	3.69913	1.22045	1.06018	4.2168	75.86	-0.2342	0.0628	0.297	1163.8293	0.162325	-419.246605	-419.238461	-419.237517	-419.279376	31.567	
O	 0.0016164289	-0.0824105252	-0.1093981656	-0.418159
C	-0.013126529	 1.1303286077	 0.0168518225	 0.43548
N	-1.188126051	 1.8441687636	 0.1398779318	-0.340402
C	-1.2896707341	 3.2908092058	 0.0134164557	-0.23398
C	-0.0432375668	 3.9246679201	 0.5914824184	 0.370837
C	-0.0578161909	 5.3778224256	 0.9707654722	-0.330597
C	-0.0288353238	 4.3146695303	 2.0458305973	-0.286221
C	 1.2038220742	 3.3246594649	-0.0203719398	-0.233966
N	 1.1449866807	 1.8758300366	 0.1081000373	-0.340404
H	-2.0015505055	 1.2815906543	-0.052030928	 0.247855
H	-1.4096205998	 3.5998701134	-1.0385364565	 0.101551
H	-2.1787605418	 3.6343995268	 0.5530953178	 0.106299
H	 0.8418055005	 5.9601473086	 0.7995892521	 0.114814
H	-0.9772024718	 5.9354738744	 0.8242185619	 0.114814
H	-0.9292176405	 4.1492270227	 2.627417456	 0.118187
H	 0.8911140048	 4.1739294494	 2.6027761469	 0.118187
H	 1.2868636586	 3.6365765072	-1.0750387103	 0.101551
H	 2.0975408317	 3.6923720011	 0.4952314076	 0.106298
H	 1.9678470856	 1.3354573327	-0.1060967671	 0.247855
87.4883	104.1348	181.9192	268.3775	329.703	360.5451	434.0415	449.204	482.122	546.7253	586.527	678.6467	761.384	779.9354	803.6093	860.6521	906.9074	939.4391	968.9444	1003.2075	1008.9986	1057.9118	1074.1672	1079.4324	1096.4037	1151.7955	1182.6451	1232.3614	1243.6669	1284.2724	1331.7671	1356.0473	1407.744	1416.3587	1469.3809	1471.9242	1484.2197	1507.9784	1526.5227	1528.2317	1802.7959	2954.2567	2962.383	3054.7064	3057.8293	3127.1952	3134.5839	3205.3906	3221.6587	3641.8399	3644.3638
O=C1NCC2(CC2)CN1	O=C1NCC2(CC2)CN1	
InChI=1S/C6H10N2O/c9-5-7-3-6(1-2-6)4-8-5/h1-4H2,(H2,7,8,9)	InChI=1S/C6H10N2O/c9-5-7-3-6(1-2-6)4-8-5/h1-4H2,(H2,7,8,9)
