22
gdb 82318	2.4749	1.73128	1.28493	1.3534	84.6	-0.2248	0.0886	0.3134	1080.3894	0.195801	-367.187327	-367.179198	-367.178254	-367.219424	33.328	
C	-0.8703140268	 1.0411150861	 0.0361718647	-0.407314
C	 0.0285637238	-0.1732348329	-0.1582161823	-0.01003
N	 0.9236053864	-0.0090592893	-1.3293636283	-0.104917
C	 2.1091271872	 0.8246041426	-1.063378641	-0.257371
C	 2.2060206087	-0.6550699976	-0.9861080462	-0.012336
C	 2.1166510626	-1.2923884283	 0.3922719828	-0.302629
C	 0.9203729096	-0.5851615019	 1.0284030751	 0.342221
C	 1.0991835188	 0.2684602374	 2.2628963231	-0.304029
C	 0.3489634805	-1.038586019	 2.3407275847	-0.341975
H	-0.2856258468	 1.9469820936	 0.223151565	 0.118061
H	-1.4706654559	 1.2066437263	-0.8623533987	 0.126507
H	-1.5549903293	 0.8961037142	 0.878408132	 0.113793
H	-0.6079671562	-1.0338193036	-0.4081741198	 0.080194
H	 2.4922760705	 1.3480877364	-1.9343925984	 0.110785
H	 2.1604545073	 1.3890929536	-0.1363553433	 0.118387
H	 2.6960610911	-1.2090434365	-1.7820157669	 0.085193
H	 1.9211978139	-2.3669284807	 0.2838053156	 0.103698
H	 3.0355662341	-1.1854826774	 0.9781407891	 0.101908
H	 2.0898505354	 0.3172088508	 2.7042758705	 0.107484
H	 0.5290621958	 1.186029296	 2.3575651294	 0.11246
H	-0.7285302827	-0.9964079064	 2.4704853926	 0.110117
H	 0.8206024819	-1.8767607833	 2.8438677402	 0.109796
107.1142	219.8386	234.9583	256.5344	264.5226	348.0375	378.1677	418.4293	491.8001	562.9166	646.1206	731.6122	750.0235	783.0431	839.8676	855.374	880.6697	914.4688	934.5714	943.4906	980.7049	994.5742	1054.5541	1060.2244	1080.3103	1083.815	1091.5087	1107.6009	1120.784	1138.2171	1170.6269	1189.1007	1196.98	1257.919	1271.5155	1298.7177	1335.1212	1363.1299	1375.2361	1390.3386	1408.1189	1465.3668	1488.6361	1490.9638	1498.2574	1500.2418	1507.8889	2999.5934	3024.2531	3038.1181	3071.0025	3104.9293	3112.1757	3117.6324	3118.6256	3127.7897	3143.6444	3196.4217	3196.5642	3213.9414
CC1N2CC2CC11CC1	C[C@H]1N2C[C@H]2CC21CC2	
InChI=1S/C8H13N/c1-6-8(2-3-8)4-7-5-9(6)7/h6-7H,2-5H2,1H3	InChI=1S/C8H13N/c1-6-8(2-3-8)4-7-5-9(6)7/h6-7H,2-5H2,1H3/t6-,7-,9?/m1/s1
