18
gdb 91667	2.56991	1.73865	1.37865	2.1139	71.36	-0.245	0.0652	0.3102	987.254	0.148644	-439.017007	-439.009448	-439.008504	-439.048759	30.134	
O	-0.0461103964	 1.4234257787	-0.0251749984	-0.43231
C	-0.0115135227	 0.0149256954	 0.0454746423	 0.134336
C	 0.4664287716	-0.5856620209	 1.4160435788	-0.269833
C	-0.8346078222	-1.3327225399	 1.7686769547	-0.026047
O	-1.1820209763	-1.9370052631	 0.4775187713	-0.301131
C	-1.4457198621	-0.5582961012	 0.0610165204	-0.033032
C	-1.9310775578	-0.3010384971	 1.4894404801	 0.433831
C	-3.2843273015	-0.2348029395	 2.0543137855	-0.337011
N	-2.3456821447	 0.916208768	 2.1418217023	-0.375345
H	 0.8577619165	 1.7450941329	-0.0909284413	 0.286742
H	 0.5491868954	-0.4146268049	-0.7943085917	 0.074881
H	 1.3114764332	-1.2702481695	 1.3171862099	 0.105404
H	 0.7185740291	 0.2065370151	 2.1274943218	 0.100471
H	-0.8529430029	-2.0230317672	 2.6127079809	 0.081787
H	-2.0645431327	-0.4542375451	-0.8284066043	 0.087313
H	-4.1455601777	-0.0658132515	 1.4139064961	 0.12537
H	-3.4929488609	-0.8118108285	 2.9521642191	 0.113777
H	-1.9454682675	 0.9882952183	 3.0746937825	 0.230798
134.7981	175.397	239.6168	243.3142	321.2829	373.4081	432.0713	491.3949	567.6786	628.191	732.9399	820.9866	843.5689	864.3174	877.2204	907.2558	936.6307	951.2009	963.6419	977.2325	1006.1288	1045.0953	1063.1287	1087.4186	1132.2362	1162.7836	1174.1977	1210.1264	1221.0657	1242.3038	1250.5874	1276.3598	1287.3075	1305.1163	1336.3799	1422.9784	1458.598	1477.5334	1532.0797	3019.8724	3059.4511	3104.4909	3115.5732	3119.6353	3145.2565	3189.3593	3491.2816	3828.6427
OC1CC2OC1C21CN1	O[C@H]1C[C@@H]2O[C@H]1[C@]12CN1	
InChI=1S/C6H9NO2/c8-3-1-4-6(2-7-6)5(3)9-4/h3-5,7-8H,1-2H2	InChI=1S/C6H9NO2/c8-3-1-4-6(2-7-6)5(3)9-4/h3-5,7-8H,1-2H2/t3-,4-,5+,6+/m0/s1
