23
gdb 61230	2.74886	0.93521	0.77169	0.8193	92.05	-0.2545	0.0562	0.3108	1561.7942	0.20328	-351.118413	-351.107817	-351.106873	-351.154147	39.582	
C	-0.9967654026	-0.5638034248	 1.2543519868	-0.392675
C	 0.4103437773	-1.0084781906	 0.8338758333	 0.005018
C	 0.6249908277	-2.5244615247	 1.0866972396	-0.359056
C	 0.520873345	-2.9091959257	 2.4889775485	 0.299922
C	 0.4434599443	-3.203077874	 3.652509373	-0.445982
C	 0.6685360512	-0.6868331083	-0.6272717924	 0.021875
C	 1.0807305731	 0.6988566442	-1.0639712164	-0.318539
C	 2.0470349008	-0.4529328917	-1.2109197137	-0.004007
C	 3.3215272273	-0.5069151958	-0.395452287	-0.410398
H	-1.122344669	 0.513354689	 1.1104320016	 0.114821
H	-1.761573087	-1.0715839217	 0.6542130159	 0.10859
H	-1.1850248615	-0.7980153686	 2.3056770097	 0.127029
H	 1.1346810767	-0.4689482787	 1.4551488719	 0.08117
H	-0.1088039056	-3.0905852365	 0.496214523	 0.123592
H	 1.6108498222	-2.8148664533	 0.7043864551	 0.131538
H	 0.3741348031	-3.4751096068	 4.6763393016	 0.191423
H	-0.0261406634	-1.1938221657	-1.2960463126	 0.07561
H	 0.6282633969	 1.1307985789	-1.9500603463	 0.107536
H	 1.2925061544	 1.4212502248	-0.2803286542	 0.107532
H	 2.1708111167	-0.8225944064	-2.2261270807	 0.081202
H	 3.1812083345	-0.1101582988	 0.6138833248	 0.120033
H	 3.6989873493	-1.53146399	-0.3006739623	 0.116278
H	 4.1075012885	 0.0896281552	-0.8718916294	 0.117487
55.7152	76.2895	118.8566	161.4313	208.5713	228.5017	244.2438	313.5467	342.7362	349.1054	365.7404	420.338	520.5817	556.664	612.984	633.6297	772.4794	799.7456	852.3269	868.4431	888.4785	920.2649	944.0986	983.4208	1021.4665	1035.9283	1070.1646	1102.0294	1116.9456	1121.6757	1151.4196	1188.3676	1199.5658	1239.7599	1253.582	1287.8042	1341.1902	1353.9074	1395.4643	1406.9535	1423.6281	1433.9839	1467.8665	1492.2735	1494.4801	1497.8346	1500.4149	1509.1818	2234.5627	3013.151	3028.4087	3029.7083	3039.3847	3058.0277	3084.2057	3097.5593	3106.2302	3109.0906	3118.5107	3120.6808	3134.4911	3204.7367	3506.6425
CC(CC#C)C1CC1C	C[C@@H](CC#C)[C@H]1C[C@H]1C	
InChI=1S/C9H14/c1-4-5-7(2)9-6-8(9)3/h1,7-9H,5-6H2,2-3H3	InChI=1S/C9H14/c1-4-5-7(2)9-6-8(9)3/h1,7-9H,5-6H2,2-3H3/t7-,8+,9+/m0/s1
