15
gdb 72061	2.53584	1.65126	1.28612	1.1763	73.41	-0.2245	0.0265	0.251	998.0432	0.110861	-420.514666	-420.507012	-420.506068	-420.546559	30.059	
O	-0.176829597	 1.3112488994	-0.1393156072	-0.445282
C	 0.0357052863	-0.0414801652	-0.0798397313	 0.278965
C	 0.9878901006	-0.899319451	-0.9178666402	-0.303575
C	 0.162361516	-2.0908174998	-0.3747110477	 0.007161
O	 0.4642079054	-2.1094095898	 1.0516779521	-0.285311
C	-0.28714136	-0.907304076	 1.1463011497	-0.047154
C	-1.0663812128	-1.117260275	-0.1337591702	 0.242382
C	-2.4275556943	-1.1063295285	-0.4907777045	-0.016285
C	-3.5887469798	-1.1050302394	-0.8102300608	-0.358556
H	 0.4021613744	 1.746272476	 0.4970564198	 0.295318
H	 0.8203876186	-0.7395615998	-1.9853615601	 0.120479
H	 2.0562322114	-0.9023104281	-0.6799696984	 0.102624
H	 0.1444579644	-3.0735220826	-0.8377241823	 0.105602
H	-0.6012955546	-0.5344612805	 2.1127306099	 0.124185
H	-4.6132735787	-1.1007973996	-1.0880814988	 0.179447
115.9639	148.1734	229.4647	313.8807	342.3201	417.3951	451.8802	492.7734	565.0311	565.2932	626.6108	641.8002	664.1412	750.4636	798.7008	834.2402	918.9906	929.0243	949.9439	987.7573	1025.4131	1054.7146	1119.6584	1126.1915	1176.2852	1219.416	1233.9679	1279.8432	1304.9282	1359.0703	1446.7769	1495.3325	2231.0171	3052.3654	3124.1933	3165.6937	3210.1187	3502.4977	3791.1142
OC12CC3OC1C23C#C	O[C@@]12C[C@H]3O[C@@H]1[C@@]23C#C	
InChI=1S/C7H6O2/c1-2-6-4-3-7(6,8)5(6)9-4/h1,4-5,8H,3H2	InChI=1S/C7H6O2/c1-2-6-4-3-7(6,8)5(6)9-4/h1,4-5,8H,3H2/t4-,5-,6+,7+/m1/s1
