16
gdb 23178	2.45788	1.62595	1.05362	1.9918	74.86	-0.2413	-0.0155	0.2258	1102.8728	0.123585	-437.831704	-437.823848	-437.822904	-437.864164	30.08	
O	-0.1247049376	 1.3003462902	 0.0151343396	-0.388948
N	 0.0049767894	-0.0914995445	-0.0671256674	-0.215607
C	-1.1286316557	-0.6642034475	-0.022771508	 0.320503
C	-2.5066388596	-0.0455529815	 0.0787958016	-0.364313
C	-3.4084544729	-1.25812749	 0.0547003268	-0.104471
C	-2.7292493225	-2.4032945037	-0.035853577	-0.135355
C	-1.2640831357	-2.1602282978	-0.0859210721	 0.358306
C	-0.2679177327	-3.0522963571	-0.703201818	-0.243645
O	-0.3924742328	-2.9819030945	 0.7135223887	-0.275653
H	 0.7921268072	 1.5954318685	-0.0133199872	 0.31015
H	-2.6153854272	 0.5538074687	 0.9920643324	 0.140804
H	-2.6882427986	 0.6456336265	-0.7541830255	 0.1386
H	-4.4876699029	-1.1755052303	 0.1057876652	 0.107602
H	-3.1469504562	-3.4018537415	-0.0597491959	 0.110997
H	-0.5935395129	-3.986267951	-1.1616215923	 0.111715
H	 0.6357259407	-2.6069438044	-1.1163185909	 0.129315
82.221	179.1194	188.7984	263.305	306.4073	352.4332	429.7943	498.6503	511.7871	547.3182	605.3975	710.4221	748.0734	813.3273	842.4332	899.138	950.8167	961.9211	970.87	989.8732	1000.298	1089.9948	1131.2691	1151.2181	1154.9581	1168.8135	1266.6107	1290.2346	1341.1743	1400.6041	1433.8722	1460.3331	1513.7238	1671.168	1760.386	3027.6752	3049.8539	3075.3628	3170.9562	3199.0606	3224.7626	3812.9317
ON=C1CC=CC11CO1	ON=C1CC=C[C@]21CO2	
InChI=1S/C6H7NO2/c8-7-5-2-1-3-6(5)4-9-6/h1,3,8H,2,4H2	InChI=1S/C6H7NO2/c8-7-5-2-1-3-6(5)4-9-6/h1,3,8H,2,4H2/t6-/m1/s1
