20
gdb 95697	3.24717	1.18849	0.92645	4.7171	75.89	-0.2466	0.0394	0.286	1277.3529	0.173065	-440.338621	-440.330015	-440.32907	-440.371922	32.789	
C	 0.1441817939	 1.6229764261	-0.0037023528	-0.403734
C	-0.0385585724	 0.101429743	-0.0483269848	 0.036948
C	 0.6277424738	-0.4975502379	-1.292471	-0.195342
C	 0.5180975458	-2.0144280744	-1.392271427	-0.088187
O	 1.3345195681	-2.7217784228	-0.4442177835	-0.234173
C	 0.8431204778	-2.989195395	 0.7975515337	 0.409263
O	 1.0091580431	-4.0660410767	 1.3121512666	-0.369787
N	 0.1618172513	-1.9521885491	 1.3997451077	-0.348183
C	 0.5036398757	-0.5364260194	 1.2375237975	-0.16399
H	 1.2037180694	 1.8912393009	 0.0825377085	 0.119903
H	-0.2410050956	 2.0916003819	-0.9145881171	 0.118377
H	-0.3822483979	 2.0650359891	 0.8486947367	 0.114894
H	-1.1129796343	-0.1245380215	-0.0911695634	 0.080857
H	 0.17311753	-0.0669660152	-2.1937355608	 0.100432
H	 1.6909410718	-0.2237063177	-1.314714431	 0.108486
H	-0.5241732043	-2.3396806695	-1.290040423	 0.115686
H	 0.8835745341	-2.3523695103	-2.3654820633	 0.121506
H	-0.1217331249	-2.2196854751	 2.3306084227	 0.252989
H	 1.5926488155	-0.3889052134	 1.2866353954	 0.115088
H	 0.074349039	-0.0175275829	 2.0994438979	 0.108968
69.7579	136.8494	217.2929	230.1732	280.5354	294.6281	310.0263	375.0831	421.1606	495.6833	589.3205	592.2865	712.6127	774.9936	800.5674	850.0372	877.9172	903.4612	957.3949	988.7024	1017.8117	1078.1239	1101.5789	1141.1615	1153.1696	1190.0225	1227.9772	1277.7523	1298.2129	1320.7187	1331.813	1372.0558	1395.3744	1407.6865	1418.748	1428.1386	1462.2151	1472.3152	1491.6439	1499.016	1501.7865	1503.1386	1838.5932	2996.954	3014.3811	3020.8717	3029.6647	3035.1239	3064.4712	3082.3974	3095.3972	3098.9625	3104.2466	3616.5943
CC1CCOC(=O)NC1	C[C@H]1CCOC(=O)NC1	
InChI=1S/C6H11NO2/c1-5-2-3-9-6(8)7-4-5/h5H,2-4H2,1H3,(H,7,8)	InChI=1S/C6H11NO2/c1-5-2-3-9-6(8)7-4-5/h5H,2-4H2,1H3,(H,7,8)/t5-/m0/s1
