16
gdb 54900	4.1244	1.09626	0.8794	10.0492	90.56	-0.1482	-0.0391	0.1091	1250.1725	0.124506	-434.060449	-434.051995	-434.051051	-434.093058	33.124	
N	 0.0835694729	 1.195103738	 0.6322749759	-0.546654
C	-0.0351379018	-0.0035326595	-0.0020313717	 0.47416
N	 1.0766529477	-0.4529787842	-0.6724475971	-0.558312
H	 1.9495650837	-0.3961899173	-0.1641987557	 0.268962
H	 0.9617760619	-1.2973411661	-1.2100703088	 0.273267
N	-1.1814124842	-0.6561567258	 0.0124644264	-0.013793
C	-2.4465247782	-0.1480519642	 0.3635540232	-0.371894
H	-2.6236349485	 0.9138823905	 0.318943703	 0.094471
C	-3.3998415582	-1.197641547	 0.2957461044	 0.34368
O	-4.6225937397	-1.1944389268	 0.4551176254	-0.435498
C	-2.573301262	-2.420473385	-0.0333774429	-0.256669
C	-1.2952497133	-2.0685833931	-0.2039134945	-0.06339
H	 0.6094068088	 1.9243457911	 0.177180684	 0.274678
H	-0.7176315337	 1.4871226001	 1.1712598533	 0.282683
H	-2.9753166994	-3.4210729098	-0.1015127721	 0.115318
H	-0.4031068459	-2.6561057409	-0.3512146428	 0.11899
113.1245	131.3707	202.2499	286.0333	345.8685	377.7356	399.1516	437.2869	481.3517	489.4691	550.5157	567.6238	590.2536	616.8103	627.4474	667.7354	709.8694	750.9275	881.1273	893.0654	931.5618	1025.9353	1090.256	1125.9083	1184.3983	1198.1328	1247.518	1315.3354	1370.3361	1502.2625	1606.9599	1617.6496	1631.4453	1701.0982	1725.7212	3237.6039	3255.9261	3263.4038	3545.3283	3580.2289	3681.7445	3694.179
NC(=[NH2+])N1[CH-]C(=O)C=C1	NC(=[NH2])N1[CH]C(=O)C=C1	
InChI=1S/C5H6N3O/c6-5(7)8-2-1-4(9)3-8/h1-3H,(H3,6,7)/q-1/p+1	InChI=1S/C5H7N3O/c6-5(7)8-2-1-4(9)3-8/h1-3H,6-7H2
