19
gdb 111661	2.23345	1.5943	1.27727	2.7079	75.58	-0.2342	-0.0092	0.225	1086.1474	0.159506	-423.035799	-423.027377	-423.026432	-423.069153	31.565	
C	 0.0423932287	 1.0765258317	 0.4984168351	-0.246685
O	-0.1369376619	 0.0354678433	-0.4486795073	-0.236242
C	-1.332483459	-0.6480298339	-0.2819968378	 0.126032
C	-1.4461398529	-2.0422891073	-0.7665066592	-0.12135
C	-0.146720184	-2.7901856387	-1.0852998369	-0.222702
C	 0.718781849	-2.7213858829	 0.188337284	-0.326754
C	-0.2357067511	-2.3448402271	 1.3284161752	 0.431143
O	-0.0298120147	-2.5185713145	 2.5051886387	-0.341105
C	-1.491419596	-1.7761697057	 0.7439993977	-0.224787
H	 0.9908407764	 1.5630502157	 0.2621484405	 0.132236
H	-0.7669098815	 1.8182900606	 0.4327466765	 0.111856
H	 0.077926714	 0.6844272933	 1.5234734639	 0.131077
H	-2.2178675546	-0.0160745541	-0.3741816302	 0.096613
H	-2.3433810384	-2.325424632	-1.3056963908	 0.09745
H	-0.3921959251	-3.8299161926	-1.3222256588	 0.109508
H	 0.3559049455	-2.3652198944	-1.958203272	 0.117045
H	 1.2277609752	-3.6578305466	 0.4269223416	 0.123522
H	 1.479784802	-1.9383149633	 0.1190270858	 0.139689
H	-2.3904996317	-1.8073026815	 1.3467588441	 0.103452
75.6479	112.7017	153.4446	181.2805	223.4661	303.3871	422.3339	453.6475	519.9895	612.6031	638.7803	675.1692	749.6035	793.2632	829.8486	847.0571	948.7299	951.6401	983.8164	1019.029	1041.1589	1075.9637	1105.8197	1114.8257	1167.7202	1184.3298	1194.1305	1203.9758	1238.3106	1257.7413	1285.0499	1315.3842	1331.5533	1359.7088	1428.6641	1446.6018	1486.2941	1488.139	1498.5348	1509.2835	1824.046	2993.8001	3053.2687	3055.2616	3068.1342	3084.186	3094.9628	3119.3152	3128.0364	3169.9448	3195.5601
COC1C2CCC(=O)C12	CO[C@H]1[C@H]2CCC(=O)[C@@H]12	
InChI=1S/C7H10O2/c1-9-7-4-2-3-5(8)6(4)7/h4,6-7H,2-3H2,1H3	InChI=1S/C7H10O2/c1-9-7-4-2-3-5(8)6(4)7/h4,6-7H,2-3H2,1H3/t4-,6-,7-/m0/s1
