14
gdb 19579	3.50547	2.53262	2.08653	4.9908	60.36	-0.2412	-0.0046	0.2366	686.7198	0.109433	-378.652996	-378.647338	-378.646394	-378.682493	23.149	
O	 0.0044623571	-0.0122406977	 0.0474795001	-0.308569
C	-0.014193378	 1.1677612139	-0.0532156763	 0.494298
C	-1.0572220084	 2.3220771065	 0.0223283712	-0.145928
N	-0.0266576379	 2.9148274667	 0.9531544265	-0.318106
C	 0.9961049312	 2.352241803	-0.0046072576	-0.145928
C	 0.6846214297	 3.0486636575	-1.348213549	-0.04913
N	-0.0583809034	 2.1774591338	-2.2908023537	-0.323244
C	-0.8016706994	 3.0268303084	-1.3287153294	-0.049129
H	-2.0743329913	 2.2093447457	 0.3914505186	 0.092743
H	-0.0419115005	 3.9357942802	 0.9336855261	 0.217925
H	 2.0254188877	 2.2695735349	 0.3376695729	 0.092743
H	 1.2817826659	 3.8735400872	-1.7188388271	 0.103381
H	-0.0767965552	 2.6056487249	-3.215095681	 0.235563
H	-1.4323147473	 3.8336704049	-1.6832333714	 0.103381
188.5409	334.3217	356.7257	476.8341	546.8151	609.7186	687.6995	797.5051	798.5409	805.3855	855.0659	857.7	896.1273	903.2482	916.5541	998.0082	1029.0093	1050.2622	1061.6967	1093.1832	1128.0242	1139.3551	1189.5554	1216.0491	1253.9603	1291.6331	1292.2579	1334.0812	1384.8089	1952.4917	3148.8593	3150.7448	3177.3658	3187.6554	3443.6456	3482.058
O=C1C2NC1C1NC21	O=C1[C@H]2N[C@@H]1[C@H]1N[C@@H]21	
InChI=1S/C5H6N2O/c8-5-3-1-2(6-1)4(5)7-3/h1-4,6-7H	InChI=1S/C5H6N2O/c8-5-3-1-2(6-1)4(5)7-3/h1-4,6-7H/t1-,2+,3+,4-
