19
gdb 126600	5.49838	0.68565	0.66611	6.0552	77.22	-0.2791	-0.0117	0.2674	1728.7239	0.160148	-415.379977	-415.370992	-415.370048	-415.41543	31.396	
C	 0.0889368563	 1.55716978	 0.1544007967	-0.382825
C	-0.0582009582	 0.0449397228	-0.033641662	-0.168213
C	 0.7853233003	-0.4907728869	-1.194980122	-0.171957
C	 0.6258105767	-2.0032779611	-1.3751879035	-0.173457
N	 1.4045449709	-2.5178949793	-2.4943432331	 0.041323
C	 2.6033273678	-3.12543599	-2.5315861885	 0.056219
N	 2.9288255154	-3.365589503	-3.7832512387	-0.223751
N	 1.8952506174	-2.8849175069	-4.5233283637	-0.093645
N	 0.9795107737	-2.3747117116	-3.7674531413	-0.130714
H	 1.1285426609	 1.8308102905	 0.3643982343	 0.119541
H	-0.2210103349	 2.098905481	-0.7454781072	 0.12377
H	-0.5246495536	 1.91349442	 0.9869577394	 0.119355
H	 0.2266608314	-0.4699910986	 0.8936068636	 0.099284
H	-1.1134728188	-0.2027032113	-0.2076316729	 0.105985
H	 0.4982730847	 0.0024263972	-2.1304833275	 0.132665
H	 1.8448590957	-0.2586841094	-1.0286847777	 0.108113
H	 0.9476718871	-2.5431121863	-0.479635213	 0.129655
H	-0.4191770037	-2.2623974931	-1.5651445166	 0.148035
H	 3.1838935209	-3.3732601239	-1.6579570262	 0.160616
36.7289	78.5416	85.1117	117.1508	222.8587	249.0452	325.6245	342.7907	432.1083	679.8665	735.2344	740.6627	753.4466	796.3339	863.2669	913.5527	937.3505	989.1631	1018.0708	1043.1866	1063.5426	1098.9622	1129.1103	1134.2034	1194.2251	1218.9902	1273.0175	1295.5335	1315.9754	1330.4366	1342.9305	1383.7564	1403.8259	1416.5465	1463.3063	1476.0994	1487.3705	1499.1441	1500.4419	1512.2925	1517.5257	3014.6945	3030.6864	3035.4271	3044.5738	3063.2763	3078.9511	3102.7276	3109.7733	3117.0922	3282.4882
CCCCN1C=NN=N1	CCCCn1cnnn1	
InChI=1S/C5H10N4/c1-2-3-4-9-5-6-7-8-9/h5H,2-4H2,1H3	InChI=1S/C5H10N4/c1-2-3-4-9-5-6-7-8-9/h5H,2-4H2,1H3
