23
gdb 99998	2.51701	1.04328	0.92206	3.2622	81.94	-0.2432	-0.019	0.2243	1391.4844	0.201511	-425.434666	-425.42317	-425.422226	-425.471307	41.458	
C	 0.0396984347	 1.5751245688	-0.1513489478	-0.43207
C	 0.0256509714	 0.0439872778	 0.0365456919	-0.073516
C	 0.5457168311	-0.5697917771	-1.2517351394	 0.152517
O	-0.1087559531	-1.2401610835	-2.0085219524	-0.255637
C	 0.802301262	-0.4907879833	 1.2867415296	 0.236916
C	 0.8553986243	-2.0315693111	 1.2249606299	-0.420396
C	 2.2337339394	 0.071042158	 1.387171032	-0.423207
C	 0.0084531858	-0.0856467463	 2.5450004262	-0.089706
O	 0.6749235484	-0.5955046148	 3.6916348494	-0.425354
H	 1.039832734	 1.9428925771	-0.4010263598	 0.12746
H	-0.6315300364	 1.8596356828	-0.9673414601	 0.130984
H	-0.2929313762	 2.0989739102	 0.7479305028	 0.126735
H	-1.0138615016	-0.2941486842	 0.1217293733	 0.0884
H	 1.6076084996	-0.3233470251	-1.4880159973	 0.072704
H	 1.4924756736	-2.3791688797	 0.4055320606	 0.115606
H	 1.2534759296	-2.4309242126	 2.1597827536	 0.13439
H	-0.1430057873	-2.4545142783	 1.0685793554	 0.115959
H	 2.2394590006	 1.1624319543	 1.4687492817	 0.109668
H	 2.7205420399	-0.327171036	 2.2799002639	 0.138266
H	 2.8401504349	-0.2063569443	 0.5196808337	 0.110046
H	-0.0723867043	 1.0094538415	 2.6061823446	 0.08403
H	-1.0131559967	-0.4922510334	 2.4712710311	 0.086451
H	 0.1826518363	-0.3248913309	 4.4713965271	 0.289755
52.6702	61.763	113.5923	190.239	197.2484	219.5934	238.5972	242.6854	283.7149	300.1035	315.5754	342.1493	366.0335	398.8048	444.3639	463.0438	618.6897	739.9704	857.7569	905.4291	929.996	957.3908	960.6542	963.7578	1013.5367	1064.5934	1087.9351	1101.7993	1160.0267	1190.1273	1210.0073	1225.4567	1277.8963	1297.1501	1315.1782	1356.2478	1397.2193	1406.2235	1412.3781	1431.2978	1460.2673	1480.3265	1493.4678	1496.7714	1500.3613	1505.8318	1520.2898	1522.0228	1829.2873	2854.0962	2967.2755	3007.771	3034.831	3041.2662	3043.5168	3046.1818	3097.8613	3105.5823	3111.3299	3121.6583	3128.6256	3133.2508	3840.2229
CC(C=O)C(C)(C)CO	C[C@@H](C=O)C(C)(C)CO	
InChI=1S/C7H14O2/c1-6(4-8)7(2,3)5-9/h4,6,9H,5H2,1-3H3	InChI=1S/C7H14O2/c1-6(4-8)7(2,3)5-9/h4,6,9H,5H2,1-3H3/t6-/m0/s1
