18
gdb 25793	3.92198	1.0657	0.84681	2.3398	85.87	-0.2138	-0.0325	0.1813	1358.8765	0.147447	-402.030808	-402.02164	-402.020696	-402.065509	32.853	
C	 0.0922322358	 1.4884033417	 0.0075803601	-0.489853
C	 0.0094321505	-0.0268288743	-0.0194068269	 0.296628
O	 1.0120430553	-0.7269281591	-0.0672032863	-0.36402
C	-1.3128198476	-0.6355587773	 0.0127957181	 0.220819
C	-2.6093365679	-0.1402205517	 0.0663729923	-0.231752
C	-3.4841933306	-1.246692163	 0.0724457349	-0.222177
C	-2.711019212	-2.4012448987	 0.0235950364	 0.318413
C	-3.1167886294	-3.8379761698	 0.0095278619	-0.503866
N	-1.4095673051	-2.010081642	-0.0121316591	-0.328547
H	 1.1402626301	 1.7886510265	-0.0146317204	 0.1394
H	-0.4305269003	 1.9188503484	-0.8530670771	 0.139129
H	-0.3844364812	 1.885928237	 0.9097313842	 0.138816
H	-2.8853039649	 0.9028467045	 0.0967499444	 0.103385
H	-4.5629746605	-1.2230069534	 0.1085909805	 0.098722
H	-2.7605765889	-4.3537235149	-0.8900792917	 0.136859
H	-2.7224942732	-4.3820001149	 0.876088846	 0.137184
H	-4.2054854681	-3.9192631015	 0.0318476445	 0.140778
H	-0.5860246321	-2.5905288975	-0.0515673817	 0.270083
56.9311	88.3999	105.9454	152.8588	154.6687	278.2708	308.209	383.3084	522.3499	556.9827	607.2864	612.2746	658.4274	679.495	699.412	794.6877	852.1174	933.0003	981.4382	1005.4915	1014.429	1042.2748	1060.695	1069.2674	1117.5048	1243.4675	1263.6894	1345.3329	1381.6348	1410.8995	1430.4727	1441.6605	1468.3333	1475.5998	1481.4665	1504.99	1526.6597	1605.9469	1733.541	3026.2283	3041.6722	3074.5009	3104.2159	3128.8472	3153.7759	3240.696	3256.4262	3645.7635
CC(=O)C1=CC=C(C)N1	CC(=O)c1ccc(C)[nH]1	
InChI=1S/C7H9NO/c1-5-3-4-7(8-5)6(2)9/h3-4,8H,1-2H3	InChI=1S/C7H9NO/c1-5-3-4-7(8-5)6(2)9/h3-4,8H,1-2H3
