17
gdb 42433	3.30542	0.81696	0.6906	2.0042	75.11	-0.2528	-0.0332	0.2196	1583.7042	0.132488	-421.783907	-421.774398	-421.773454	-421.819614	33.455	
O	 0.3433795785	 0.6384755668	-2.1314770149	-0.308368
C	 0.0867551864	 1.361984637	-1.1949294057	 0.354742
C	 1.1257930106	 1.8076153534	-0.1830380398	-0.304531
C	 2.4933305276	 1.1510888664	-0.4287484965	-0.362059
C	 3.4963204495	 1.5876539854	 0.5337964978	 0.282729
C	 4.3055398302	 1.9622231717	 1.3396787887	-0.426625
C	-1.3185606249	 1.8738649895	-1.0199546158	-0.006874
C	-2.0493790245	 1.6921992397	 0.2520996963	-0.177091
O	-1.5297534607	 2.9602520504	-0.1167127299	-0.215386
H	 1.1980328718	 2.9007432194	-0.2314058072	 0.155191
H	 0.7700538647	 1.5974833789	 0.8324349609	 0.137105
H	 2.3848802336	 0.061113154	-0.3922545523	 0.14323
H	 2.8226214422	 1.376766832	-1.4488824227	 0.148582
H	 5.0329531888	 2.2844820241	 2.0426677007	 0.19427
H	-1.8931436969	 1.9020454302	-1.9443031847	 0.122175
H	-3.132989838	 1.5946592961	 0.2178163992	 0.135157
H	-1.5607124389	 1.2068542651	 1.0950120459	 0.127753
50.4701	70.2949	94.9711	99.2249	210.8279	251.6946	268.6451	345.093	464.1327	507.33	559.6543	573.0462	621.6159	643.0913	774.278	804.9603	873.6238	908.1702	935.7934	975.9523	1027.16	1055.0996	1086.8326	1146.1394	1163.1254	1171.4728	1191.166	1262.1118	1297.4837	1307.2163	1383.6505	1395.1748	1439.5684	1469.467	1522.8226	1798.99	2241.1407	3042.1905	3051.0155	3067.1414	3086.3886	3091.5169	3136.4986	3182.2725	3506.9868
O=C(CCC#C)C1CO1	O=C(CCC#C)[C@H]1CO1	
InChI=1S/C7H8O2/c1-2-3-4-6(8)7-5-9-7/h1,7H,3-5H2	InChI=1S/C7H8O2/c1-2-3-4-6(8)7-5-9-7/h1,7H,3-5H2/t7-/m1/s1
