18
gdb 119527	4.3296	1.03747	0.95381	2.5229	72.21	-0.2425	0.0167	0.2592	1270.8385	0.147631	-439.06489	-439.056561	-439.055616	-439.09842	30.572	
C	-0.6268713198	 1.3564383242	-0.5042634621	-0.223572
O	-0.8796251709	-0.027046525	-0.5904699126	-0.237994
C	-0.4924633547	-0.7298217955	 0.5664648752	-0.159175
C	-0.7874038401	-2.1875623175	 0.3379118644	 0.380438
C	-0.6248966911	-2.8952436234	-0.9723769397	-0.345852
C	-1.9992157747	-2.8166085554	-0.3277702347	-0.054552
N	-2.3706129689	-3.9360394815	 0.5123597099	-0.255403
C	-1.5199710943	-3.9519823365	 1.456128415	 0.088512
O	-0.5632927838	-2.9826500265	 1.4998990272	-0.257607
H	-0.9539526651	 1.8052628127	-1.4447896661	 0.132284
H	-1.18233519	 1.8203022904	 0.3252349087	 0.110396
H	 0.4445922876	 1.5653231351	-0.3614373848	 0.109644
H	 0.582196304	-0.5852443481	 0.7727621948	 0.09993
H	-1.0467448844	-0.3764157783	 1.4520644682	 0.1005
H	-0.4667035377	-2.247607723	-1.8261492011	 0.137407
H	-0.1219385988	-3.856286715	-0.9972486937	 0.119681
H	-2.7984386698	-2.2692889647	-0.8104606622	 0.112704
H	-1.4692160877	-4.673463412	 2.2621803933	 0.142662
73.6658	81.7435	146.6008	220.6778	244.6438	336.1392	365.2773	417.5907	456.552	612.3079	683.4976	747.0418	804.2659	874.6141	912.1387	938.6658	951.9376	994.4946	1020.2093	1036.2271	1070.471	1096.4854	1123.322	1129.9061	1165.8054	1185.2397	1198.1425	1235.4021	1253.5693	1268.3671	1333.6773	1387.0948	1432.1124	1467.1619	1483.6922	1486.4224	1504.7937	1529.2286	1669.5474	2951.7836	2978.3817	2983.0288	3024.7993	3120.8975	3136.5269	3198.8913	3231.2416	3238.4516
COCC12CC1N=CO2	COC[C@]12C[C@H]1N=CO2	
InChI=1S/C6H9NO2/c1-8-3-6-2-5(6)7-4-9-6/h4-5H,2-3H2,1H3	InChI=1S/C6H9NO2/c1-8-3-6-2-5(6)7-4-9-6/h4-5H,2-3H2,1H3/t5-,6-/m1/s1
