18
gdb 89887	4.36826	0.88361	0.82372	4.3532	74.83	-0.249	0.0018	0.2508	1393.2249	0.14631	-439.060982	-439.052225	-439.051281	-439.094878	32.362	
O	 0.5495060932	 0.7520867902	-0.8603367997	-0.428586
C	-0.077683856	-0.2024471158	-0.0412046881	 0.145046
C	 0.2999543351	-0.2455204659	 1.4742246201	-0.343272
C	-1.2011874735	-0.2794614297	 1.7683441115	 0.347459
C	-1.9632771519	-1.3005460254	 2.5575127522	-0.306787
N	-1.8482028444	 0.07229567	 3.0090404049	-0.117757
C	-2.9241861905	 0.9284804125	 3.16442092	 0.133085
O	-3.9980593754	 0.6156318025	 3.6172129418	-0.286406
C	-1.5239498315	 0.1931200483	 0.3448864356	-0.320076
H	 1.4426070076	 0.4496248454	-1.0539644712	 0.286353
H	-0.042566918	-1.2049980343	-0.4882363798	 0.076466
H	 0.9113949746	-1.0745027073	 1.8377811837	 0.105506
H	 0.7469378481	 0.7057941754	 1.7776562477	 0.119117
H	-2.9384106903	-1.6155011932	 2.1930951145	 0.136742
H	-1.4257455783	-2.0390775866	 3.1469475413	 0.125786
H	-2.663138974	 1.9674275338	 2.8855832509	 0.084015
H	-1.6261167993	 1.2806313457	 0.2847807638	 0.126658
H	-2.3523008355	-0.2817110754	-0.1842352992	 0.116652
64.2113	86.8327	166.6589	220.3988	268.992	301.8293	334.1375	362.5677	435.1881	456.069	494.9366	684.5189	721.972	821.619	840.2047	887.9833	940.8798	961.667	976.6765	1032.1558	1046.7125	1054.9318	1120.5735	1127.7754	1156.9872	1175.407	1186.5764	1210.1503	1238.4313	1257.8834	1275.1024	1323.8044	1415.7498	1424.9144	1439.1704	1461.1377	1491.0108	1515.7724	1798.7297	2950.7976	3009.8992	3058.0909	3065.2989	3103.9964	3119.9676	3125.1704	3193.253	3816.0071
OC1CC2(CN2C=O)C1	O[C@H]1C[C@]2(CN2C=O)C1	
InChI=1S/C6H9NO2/c8-4-7-3-6(7)1-5(9)2-6/h4-5,9H,1-3H2	InChI=1S/C6H9NO2/c8-4-7-3-6(7)1-5(9)2-6/h4-5,9H,1-3H2/t5-,6+,7?
