18
gdb 38196	2.71212	1.99589	1.44907	1.145	85.71	-0.2215	-0.0484	0.1731	935.8008	0.149924	-364.765604	-364.75877	-364.757825	-364.796279	28.607	
C	 0.1498466624	 2.0163028515	-0.0326065688	-0.298886
C	 1.4271473795	 1.1991944888	 0.3230451313	 0.037884
C	 0.534912717	 0.3879037555	 1.3473937131	-0.280562
C	-0.5546058706	 0.7376989262	 0.3390596819	 0.227262
C	-1.2134642639	-0.1078178736	-0.4545659294	-0.213014
C	-1.180370347	 0.102845015	-1.9066521586	-0.106309
C	 0.0225223829	 0.2647586604	-2.4918650137	-0.096155
C	 1.3783960357	 0.1097683636	-1.8725421444	 0.017222
N	 1.9570781623	 0.4014610159	-0.7708825578	-0.203205
H	-0.011908042	 2.7915584644	 0.7247186967	 0.103077
H	 0.0534390616	 2.4384654467	-1.0303781039	 0.11266
H	 2.2630197704	 1.7438143057	 0.7715021225	 0.083859
H	 0.7649961756	-0.6668853251	 1.4971867976	 0.115128
H	 0.4873835363	 0.9186501116	 2.3032011553	 0.105896
H	-1.4924063802	-1.0958031436	-0.0888769615	 0.09704
H	-2.0726026255	 0.0318017224	-2.5259635273	 0.101001
H	 0.0679444219	 0.3457648331	-3.5776226902	 0.094767
H	 2.0369954337	-0.4201327984	-2.5747900128	 0.102335
198.9937	248.6512	283.9783	337.1289	393.9988	435.1259	483.0509	607.5233	630.2231	714.5844	754.2131	782.0848	809.4034	845.686	848.4301	886.4072	911.7486	936.1976	974.7233	985.0747	1004.7527	1059.0506	1062.1177	1075.7871	1102.8307	1150.5778	1167.2706	1218.7073	1229.8833	1252.7869	1324.4149	1354.0552	1415.6136	1442.542	1470.7234	1496.2978	1630.9084	1690.8479	1723.7536	3018.6781	3043.8473	3052.2682	3064.3636	3121.5412	3125.2401	3140.3371	3148.3094	3154.2535
C1C2CC11C=CC3C1N23	C1[C@H]2C[C]1[CH]C=CC=N2	
InChI=1S/C8H9N/c1-2-8-3-5(4-8)9-6(1)7(8)9/h1-2,5-7H,3-4H2	InChI=1S/C8H9N/c1-2-4-9-8-5-7(3-1)6-8/h1-4,8H,5-6H2/b2-1-,7-3?,9-4-/t8-
