23
gdb 82372	2.39057	1.76072	1.27618	0.32	87.05	-0.2591	0.0752	0.3343	1096.0146	0.208775	-351.138672	-351.130707	-351.129763	-351.170655	33.4	
C	-0.3583145142	 1.5519016566	 0.0396611528	-0.399371
C	 0.0244828702	 0.0654663778	 0.0005597155	-0.023523
C	 0.6689030871	-0.3881520235	-1.327037411	-0.016439
C	 1.322287859	 0.5470269674	-2.3184244388	-0.306008
C	 2.1755242017	-0.3399868544	-1.4489399208	 0.001384
C	 2.9159972859	 0.2389328443	-0.2459545585	-0.265919
C	 2.3900946855	-0.3507374104	 1.0603144204	 0.001384
C	 1.6975105332	 0.5282279144	 2.0695497484	-0.306008
C	 0.8846153621	-0.398959416	 1.1955671779	-0.016439
H	 0.5070667118	 2.2179039893	-0.0314831715	 0.112804
H	-1.0254264206	 1.7963187524	-0.7928900948	 0.112297
H	-0.8742193098	 1.7887423605	 0.975432568	 0.112297
H	-0.9188890332	-0.4844001325	 0.0788736153	 0.073826
H	 0.1905413968	-1.2575540679	-1.7678995058	 0.077143
H	 1.2291595754	 0.3117833546	-3.3736453163	 0.103151
H	 1.3292799144	 1.6114824493	-2.1071139786	 0.106177
H	 2.6565837705	-1.1874927157	-1.9282850054	 0.074664
H	 3.9905481218	 0.0545691198	-0.3386309532	 0.099866
H	 2.8028890831	 1.3292214273	-0.2316110222	 0.097581
H	 2.9449371465	-1.2019394615	 1.4437998581	 0.074664
H	 1.7847163073	 0.2839499281	 3.12322279	 0.103151
H	 1.6693000245	 1.5944469478	 1.8691810225	 0.106177
H	 0.4874152411	-1.2724278376	 1.703833028	 0.077143
89.0017	234.2128	244.4585	273.5933	342.4399	349.5967	444.2859	463.1533	496.9471	513.3039	670.1988	712.7845	784.2049	805.9159	831.9873	841.2186	876.3512	880.9744	933.2651	958.9162	986.4956	989.2044	1034.616	1046.0549	1065.3394	1068.1957	1077.3556	1113.1153	1122.5613	1128.9417	1134.278	1168.2487	1181.4018	1240.0975	1241.5854	1255.8659	1314.4155	1321.7809	1355.5658	1368.542	1378.0126	1400.1744	1402.4704	1422.595	1479.1291	1481.8203	1485.3091	1504.4532	1505.5486	3031.9357	3034.6459	3037.9445	3075.915	3101.5063	3105.7247	3125.0809	3125.7266	3135.147	3138.3179	3145.2581	3149.9935	3206.9763	3207.5568
CC1C2CC2CC2CC12	C[C@H]1[C@H]2C[C@H]2C[C@H]2C[C@@H]12	
InChI=1S/C9H14/c1-5-8-3-6(8)2-7-4-9(5)7/h5-9H,2-4H2,1H3	InChI=1S/C9H14/c1-5-8-3-6(8)2-7-4-9(5)7/h5-9H,2-4H2,1H3/t5-,6+,7-,8+,9-
