17
gdb 91611	2.25234	2.01574	1.4622	3.9719	66.6	-0.2307	-0.0163	0.2144	936.7889	0.137259	-458.983682	-458.97634	-458.975396	-459.015499	28.993	
O	-0.0371044279	 1.4376826367	-0.0289909928	-0.424709
C	 0.0374142242	 0.02585387	 0.0092143057	 0.102885
C	 0.624761379	-0.568061818	 1.3288705282	-0.25768
C	-0.6028360663	-1.3000558219	 1.9061811046	 0.071647
C	-1.6479806018	-0.2965274695	 2.4269088312	-0.345327
C	-2.2022174731	 0.2422884766	 1.0922783073	 0.452258
O	-3.0800838721	 1.0390870324	 0.9222401779	-0.314505
C	-1.4036730756	-0.5516674975	 0.0400500539	-0.064846
O	-1.2364212152	-1.804871949	 0.7071613835	-0.267719
H	 0.8538870629	 1.7894686021	-0.1147858541	 0.29144
H	 0.5702834338	-0.3650275925	-0.8662573782	 0.084909
H	 1.4305867961	-1.2767288008	 1.1251568108	 0.109164
H	 1.0061439955	 0.2224896123	 1.9802594923	 0.105136
H	-0.3856233356	-2.1343309094	 2.5719373122	 0.088187
H	-2.4449202201	-0.7996014102	 2.9823115598	 0.136781
H	-1.2556234379	 0.5160178584	 3.0429587412	 0.131287
H	-1.8983599759	-0.6728122197	-0.9207227134	 0.101091
92.4372	137.3516	278.3877	328.5788	389.9978	423.3868	449.9516	515.37	566.2868	619.9242	680.7856	778.6537	813.4355	838.1907	883.9963	917.0217	928.6858	987.9335	1001.7914	1031.1253	1050.0172	1080.8505	1105.5101	1146.4053	1189.2738	1197.2805	1234.3151	1254.2057	1272.8401	1290.8201	1328.2757	1343.7165	1355.9619	1416.6869	1447.3585	1482.7735	1878.2234	3022.4895	3066.4328	3068.3003	3116.9677	3120.1516	3128.8538	3158.7937	3830.0007
OC1CC2CC(=O)C1O2	O[C@H]1C[C@H]2CC(=O)[C@@H]1O2	
InChI=1S/C6H8O3/c7-4-1-3-2-5(8)6(4)9-3/h3-4,6-7H,1-2H2	InChI=1S/C6H8O3/c7-4-1-3-2-5(8)6(4)9-3/h3-4,6-7H,1-2H2/t3-,4-,6+/m0/s1
