22
gdb 15707	2.54653	1.76433	1.23441	1.2676	77.09	-0.2614	0.0762	0.3376	1075.5493	0.20145	-350.219194	-350.210258	-350.209314	-350.252758	33.402	
C	-0.5676640699	 1.4414495838	-0.0618973188	-0.416907
C	-0.020499772	 0.0150009681	 0.0091141534	 0.037676
C	 1.0227382362	-0.3200493691	-1.0836085262	-0.206671
C	 1.8687757211	-1.4963263799	-0.5220856406	-0.207099
C	 1.3730012188	-1.7208658164	 0.9310934029	-0.211564
C	 0.6662471251	-0.4100256354	 1.3312217613	 0.011504
C	 1.650726098	 0.6247224002	 1.8781311188	-0.08441
O	 2.2305882775	 0.0880634381	 3.0617074783	-0.421499
H	 0.23245403	 2.1869772989	 5.4158*^-6	 0.112966
H	-1.0925120934	 1.6078214346	-1.008832989	 0.110617
H	-1.2770758786	 1.6424262814	 0.7484149643	 0.111088
H	-0.8677136707	-0.6725185398	-0.1206855588	 0.070186
H	 0.5416469411	-0.5639185091	-2.0355415855	 0.091971
H	 1.6559020842	 0.5542085757	-1.2749623542	 0.091256
H	 1.7581551824	-2.4035031136	-1.1226128366	 0.094532
H	 2.9338912661	-1.2464878154	-0.538708734	 0.097143
H	 0.6481609996	-2.5418428551	 0.957035014	 0.088917
H	 2.1762519607	-1.9770840117	 1.6247033285	 0.110957
H	-0.0750792306	-0.5871673669	 2.1189677539	 0.068382
H	 2.4275382027	 0.8523783052	 1.1299614541	 0.082232
H	 1.1234821504	 1.5649947436	 2.0975991555	 0.084526
H	 2.8621568715	 0.7279398029	 3.402138313	 0.284199
68.7672	107.4934	143.1413	201.5614	253.5397	259.3067	291.1624	324.6067	434.4263	498.9353	590.7479	660.4317	779.63	815.0523	851.5459	876.5991	897.3753	954.616	975.8974	1002.3412	1033.9638	1048.1315	1068.1179	1086.6195	1123.3114	1167.8838	1189.5798	1213.2915	1229.8363	1261.9856	1266.3274	1297.3328	1306.3749	1323.615	1337.0114	1351.3375	1374.1087	1388.4732	1411.4486	1458.6304	1491.8619	1496.1221	1500.1434	1502.8676	1516.8988	1524.5107	2966.3781	2999.0715	3001.7747	3026.5553	3034.1957	3036.9609	3050.2647	3055.7623	3071.2256	3091.8508	3092.4855	3096.2469	3114.8806	3831.8646
CC1CCCC1CO	C[C@H]1CCC[C@H]1CO	
InChI=1S/C7H14O/c1-6-3-2-4-7(6)5-8/h6-8H,2-5H2,1H3	InChI=1S/C7H14O/c1-6-3-2-4-7(6)5-8/h6-8H,2-5H2,1H3/t6-,7-/m0/s1
