17
gdb 28921	2.30254	1.83659	1.027	1.1791	80.94	-0.1873	0.0249	0.2123	1113.866	0.137714	-418.074662	-418.066048	-418.065104	-418.108075	33.466	
N	 0.018119498	 1.4031999177	-0.1134750768	-0.595708
C	-0.0141736006	 0.0092564205	-0.0504215864	 0.252559
C	-1.214284514	-0.7126207288	-0.0087803695	-0.231252
C	-1.1808831799	-2.1025830638	 0.0013446686	-0.08143
C	 0.021428558	-2.8004391584	-0.0250822516	-0.231342
C	 1.2313412084	-2.0951576067	-0.0666886394	 0.252455
N	 2.4685420475	-2.736544045	-0.1452831535	-0.595793
C	 1.1937051684	-0.696472338	-0.0805169842	 0.179335
O	 2.3952062008	 0.014598912	-0.0564578716	-0.469064
H	 0.8904877527	 1.7869535618	 0.2241579617	 0.248365
H	-0.7818217515	 1.8556327747	 0.304811939	 0.243755
H	-2.159505266	-0.1800380325	 0.0099953826	 0.07496
H	-2.1143125493	-2.6553235369	 0.0366548879	 0.086435
H	 0.0336227554	-3.8854525514	-0.0188276748	 0.074947
H	 2.4827163807	-3.6608169029	 0.2610391369	 0.243766
H	 3.2266058398	-2.1608048422	 0.1955786153	 0.248314
H	 2.6733520317	 0.1820395901	-0.9650892443	 0.299698
33.63	162.8606	242.3387	288.253	304.2779	321.7324	373.0642	399.1278	502.2564	506.8978	529.1001	564.2608	592.0548	672.6817	701.9989	705.139	734.5187	786.1881	824.7683	842.6869	928.2052	1009.5314	1062.795	1142.3544	1164.9817	1191.8374	1202.4539	1282.2903	1311.7718	1367.6889	1373.0809	1513.5277	1542.4613	1622.8391	1623.2316	1648.6127	1659.8884	3164.5496	3174.9857	3189.4432	3552.0146	3552.2904	3655.7086	3655.9474	3769.0673
NC1=CC=CC(N)=C1O	Nc1cccc(N)c1O	
InChI=1S/C6H8N2O/c7-4-2-1-3-5(8)6(4)9/h1-3,9H,7-8H2	InChI=1S/C6H8N2O/c7-4-2-1-3-5(8)6(4)9/h1-3,9H,7-8H2
