18
gdb 119507	3.96588	1.03844	0.94214	2.8478	72.42	-0.2198	0.0556	0.2754	1293.0149	0.145681	-438.961057	-438.952612	-438.951668	-438.994812	31.351	
C	 0.1271066268	 1.4697194357	-0.0288741844	-0.220824
O	 0.0777759641	 0.0648192389	 0.0598239055	-0.239692
C	 0.4627318902	-0.5723242051	-1.1401718832	-0.197499
C	 0.4654946826	-2.0454152951	-0.9010012391	 0.442254
O	 0.4819887648	-2.9239406171	-2.0232393979	-0.267946
C	-0.5439455943	-3.0961765273	-1.0404750574	-0.05722
C	 0.0578744002	-3.850488239	 0.1994604836	-0.088345
N	 1.4805234006	-4.1513060694	-0.0929815368	-0.316895
C	 1.0803095498	-2.7930191577	 0.343790831	-0.144794
H	 1.141690957	 1.8283841108	-0.2637723363	 0.10749
H	-0.5590669602	 1.8542772121	-0.7996365512	 0.107623
H	-0.1737102694	 1.8684691041	 0.942712114	 0.129295
H	-0.2265822163	-0.3360188409	-1.9666390921	 0.103587
H	 1.4702680069	-0.2399073882	-1.4472696758	 0.098502
H	-1.5763183702	-3.073083082	-1.3679889895	 0.10903
H	-0.5069610238	-4.382417321	 0.952772458	 0.099526
H	 1.8488745506	-4.6214196377	 0.7350763145	 0.231484
H	 1.4721528708	-2.3175174712	 1.231910257	 0.104426
68.3403	83.8629	114.5318	223.9404	261.1699	329.671	369.5738	415.859	496.522	629.7226	678.029	756.5733	803.3627	812.7487	836.1315	869.9195	901.3555	921.9116	988.682	990.058	1019.5098	1054.3922	1089.6827	1103.5524	1148.2035	1171.3003	1189.1607	1210.2892	1226.9842	1242.4504	1292.2212	1296.7222	1341.7051	1396.4941	1477.1725	1485.7145	1492.9587	1503.1777	1521.3076	2948.0299	2973.2032	2993.6958	3017.8441	3117.4846	3190.9141	3207.4376	3221.3225	3461.5809
COCC12OC1C1NC21	COC[C@]12O[C@H]1[C@H]1N[C@@H]21	
InChI=1S/C6H9NO2/c1-8-2-6-4-3(7-4)5(6)9-6/h3-5,7H,2H2,1H3	InChI=1S/C6H9NO2/c1-8-2-6-4-3(7-4)5(6)9-6/h3-5,7H,2H2,1H3/t3-,4+,5-,6+/m0/s1
