23
gdb 122637	3.55223	0.74345	0.664	1.4872	83.05	-0.2528	0.0675	0.3203	1778.4155	0.204381	-425.406516	-425.396145	-425.3952	-425.44277	37.51	
C	-0.0443422784	 1.3704792883	-0.2298462277	-0.384313
C	-0.0422169823	-0.1483321212	-0.1890287133	-0.027673
O	-1.3684555241	-0.5964972026	-0.0007937529	-0.244227
C	-1.4829085213	-2.0014652502	 0.0533032293	-0.065856
C	-2.943634539	-2.3579551577	 0.2698508241	-0.055487
C	-3.8457778109	-2.104055087	-0.972147869	-0.220759
C	-3.7291042539	-3.6088305858	-1.3449939545	-0.261658
C	-3.2559942551	-3.8814805927	 0.1057535867	 0.145299
O	-2.2663932049	-4.8496834677	 0.3617857216	-0.430137
H	 0.9714586454	 1.7502365907	-0.3747451901	 0.113862
H	-0.6708850152	 1.7311433091	-1.0505958567	 0.125757
H	-0.4380974423	 1.7782745007	 0.7054385815	 0.127269
H	 0.3692060559	-0.5597755214	-1.1272109795	 0.081753
H	 0.6023551122	-0.5130831471	 0.6289704217	 0.08511
H	-1.1009253948	-2.4433833893	-0.8866499538	 0.063342
H	-0.8684202227	-2.411667595	 0.8718975883	 0.094807
H	-3.2739687457	-1.9029890176	 1.2076074584	 0.074183
H	-4.8640391684	-1.8242003936	-0.6923018073	 0.103101
H	-3.471866762	-1.3761791971	-1.6941803796	 0.108853
H	-4.6211258143	-4.1323221426	-1.6963778489	 0.100989
H	-2.9217159278	-3.7875871678	-2.0641576048	 0.092727
H	-4.1005832568	-4.1566935743	 0.7441707102	 0.092766
H	-1.5694772337	-4.749967818	-0.2945886837	 0.280292
53.1029	75.035	100.1662	129.8191	153.6745	202.4874	246.5553	295.7578	305.8709	393.3273	435.7074	457.2691	566.9518	652.4463	758.2318	821.8538	852.7884	889.0327	907.9123	930.9087	947.4408	963.8322	1040.8769	1063.3603	1085.3103	1134.2992	1143.2722	1153.3403	1163.4417	1188.1998	1203.711	1228.7395	1255.7522	1256.6561	1270.627	1295.7724	1304.9661	1314.6532	1353.5904	1392.755	1409.4888	1435.0359	1452.4339	1481.2687	1483.4153	1499.1455	1500.1265	1515.5753	1537.621	2920.8969	2950.5332	2973.5609	2977.3868	3042.0596	3044.9367	3063.1007	3069.7156	3078.5593	3104.821	3119.2608	3121.5071	3126.9884	3816.1326
CCOCC1CCC1O	CCOC[C@H]1CC[C@H]1O	
InChI=1S/C7H14O2/c1-2-9-5-6-3-4-7(6)8/h6-8H,2-5H2,1H3	InChI=1S/C7H14O2/c1-2-9-5-6-3-4-7(6)8/h6-8H,2-5H2,1H3/t6-,7-/m1/s1
