15
gdb 115264	3.40695	1.03807	0.83442	3.8422	69.37	-0.2744	-0.0658	0.2086	1304.7792	0.113369	-453.9571	-453.948845	-453.947901	-453.99084	29.208	
O	 0.0963779153	 1.3748830417	 0.0760330132	-0.414991
C	 0.0461765203	-0.0290573898	 0.0327705342	-0.057665
C	-1.3979025723	-0.5387782202	-0.04843397	-0.022355
C	-1.5395876838	-2.082144428	-0.0401783027	-0.136872
O	-2.3904484377	-2.3568797336	 1.1060092272	-0.249535
C	-2.6086133217	-1.1522180669	 1.6775445036	 0.331751
N	-2.1355230016	-0.0968169463	 1.1531649966	-0.327299
C	-3.3940253677	-1.1766704755	 2.8808607314	 0.28707
N	-4.0250737089	-1.196026887	 3.8477704843	-0.307427
H	-0.4863902286	 1.6512556047	 0.7940045943	 0.301087
H	 0.59838635	-0.3433188371	-0.8600800404	 0.116127
H	 0.534309976	-0.4909089146	 0.907902098	 0.092507
H	-1.8715421709	-0.0824819868	-0.924349346	 0.114561
H	-2.030032042	-2.4878038463	-0.9264853798	 0.140067
H	-0.5891585263	-2.6018965745	 0.1185957761	 0.132976
64.3488	110.0653	132.9901	175.6727	228.1564	346.9705	406.4035	446.2834	508.7426	559.746	582.3214	720.2076	736.5142	865.1354	918.3253	947.1687	999.3536	1033.9994	1057.8745	1099.1975	1134.6297	1210.0674	1227.6892	1250.9076	1323.7074	1327.518	1385.044	1388.4924	1433.5171	1503.2371	1514.9202	1699.8613	2375.2613	2962.7955	3051.2984	3055.236	3069.8642	3121.1747	3788.7279
OCC1COC(=N1)C#N	OC[C@H]1COC(=N1)C#N	
InChI=1S/C5H6N2O2/c6-1-5-7-4(2-8)3-9-5/h4,8H,2-3H2	InChI=1S/C5H6N2O2/c6-1-5-7-4(2-8)3-9-5/h4,8H,2-3H2/t4-/m0/s1
