14
gdb 46461	3.96299	1.24912	1.12359	4.7453	68.59	-0.2718	-0.0047	0.2671	1059.4524	0.100635	-436.66149	-436.65404	-436.653095	-436.693524	28.1	
O	-0.0503098479	-0.019649789	 0.0813133465	-0.329599
C	-0.0051865609	 1.1682071688	 0.0604462909	 0.462105
O	-1.1136880194	 1.9603173936	 0.1804785693	-0.231141
C	-0.7872664951	 3.340629589	 0.0259966283	-0.152181
C	 0.7419211697	 3.3773827344	-0.0095719358	 0.095844
C	 1.4421321595	 2.7475550288	 1.1417838006	-0.277888
N	 1.1853240255	 1.9599100809	-0.0888001293	-0.197984
C	 1.3751395944	 4.3625607863	-0.8360155861	 0.197303
C	 1.8663317141	 5.2244632045	-1.5137023722	-0.342868
H	-1.2016205033	 3.7091490696	-0.9166966902	 0.140371
H	-1.2197327253	 3.9038824146	 0.8573078373	 0.136566
H	 2.4889031678	 2.9723419075	 1.3111289173	 0.149819
H	 0.8591023345	 2.5092917349	 2.027990492	 0.145523
H	 2.3148584464	 5.9741510359	-2.1182461087	 0.204131
109.8544	145.1012	164.0823	265.748	361.497	437.2158	501.0725	537.556	597.6657	633.0432	673.6758	698.6645	727.2572	814.9717	823.6855	863.3232	928.6474	979.0082	1053.1372	1073.9982	1085.9277	1131.8232	1158.082	1222.5548	1255.6836	1339.2123	1401.6213	1500.6072	1522.1777	1911.3545	2247.9142	3058.4235	3107.8432	3118.5499	3223.0049	3499.7742
O=C1OCC2(CN12)C#C	O=C1OC[C@]2(CN12)C#C	
InChI=1S/C6H5NO2/c1-2-6-3-7(6)5(8)9-4-6/h1H,3-4H2	InChI=1S/C6H5NO2/c1-2-6-3-7(6)5(8)9-4-6/h1H,3-4H2/t6-,7?/m1/s1
