18
gdb 117070	3.06575	0.84454	0.67036	1.6197	70.87	-0.2635	-0.0618	0.2016	1632.9727	0.144978	-476.23473	-476.224382	-476.223437	-476.27121	35.285	
C	 1.3068176311	 1.1369520028	 0.0962592261	-0.237478
O	 1.2820364592	-0.1992747051	 0.6069899458	-0.235468
C	 0.1436797773	-0.5749861616	 1.2101093197	 0.328489
N	-0.8655937685	 0.1790660757	 1.3375965524	-0.515064
C	 0.2042364337	-2.0143001458	 1.7249079068	 0.300727
O	-0.76911766	-2.4625798592	 2.2882752549	-0.308466
C	 1.4719003099	-2.8002789706	 1.5044716854	-0.283077
C	 1.401812987	-4.2139016757	 2.0619779291	-0.08366
O	 2.6505159742	-4.8288180736	 1.7853323229	-0.423397
H	 1.1503899323	 1.8578131192	 0.9033518915	 0.144415
H	 2.292077793	 1.2656979542	-0.3522401437	 0.133097
H	 0.5194948933	 1.2759407396	-0.6496036944	 0.144418
H	-1.5916735689	-0.3463429632	 1.8294713015	 0.246601
H	 1.6935699455	-2.8189948516	 0.4301216047	 0.146688
H	 2.3103033554	-2.2502957809	 1.9498381186	 0.146697
H	 1.1948829882	-4.1761858798	 3.1411679472	 0.103226
H	 0.5669886175	-4.7552067971	 1.5940474471	 0.103209
H	 2.6248349199	-5.7256557174	 2.1310509746	 0.289044
58.2387	73.3355	102.2712	111.4804	144.0688	180.9388	238.0255	268.5613	326.0696	357.3435	408.29	443.1876	496.1427	669.781	730.363	814.6898	843.5119	923.1959	996.3402	1016.9539	1058.3335	1073.1613	1104.1931	1138.8527	1180.1807	1205.0239	1221.0549	1255.9284	1296.0545	1346.5309	1389.8529	1437.8756	1469.0576	1477.5058	1477.6889	1497.2494	1523.1968	1718.6849	1800.0013	2993.9485	3022.4371	3043.7084	3048.1784	3074.5581	3121.7167	3157.5918	3470.1619	3832.5199
COC(=N)C(=O)CCO	CO[C]([NH])C(=O)CCO	
InChI=1S/C5H9NO3/c1-9-5(6)4(8)2-3-7/h6-7H,2-3H2,1H3	InChI=1S/C5H9NO3/c1-9-5(6)4(8)2-3-7/h6-7H,2-3H2,1H3
