17
gdb 64847	3.30098	0.9979	0.87806	4.7327	77.81	-0.3207	-0.0033	0.3174	1317.2617	0.136094	-380.895964	-380.887218	-380.886274	-380.929602	32.159	
C	-0.1644443588	 1.5903527662	-0.0164311507	-0.447
C	-0.0069370832	 0.0631162543	 0.0029937117	 0.148402
C	 1.1756642073	-0.4462788997	-0.8907667938	-0.266166
C	 2.071939315	-0.5108922699	 0.3845773503	-0.147243
C	 0.7780549508	-0.4599945711	 1.2547840352	-0.266166
C	 2.9495833422	-1.6571869416	 0.5398927495	 0.27213
N	 3.6364879263	-2.5791389603	 0.661294841	-0.315328
C	-1.2907316901	-0.5852426205	-0.239062133	 0.240285
N	-2.3066341261	-1.1029123527	-0.4306377302	-0.333524
H	 0.799604142	 2.0749650958	 0.1653146675	 0.127609
H	-0.5408878955	 1.9288707728	-0.9855306751	 0.145038
H	-0.8638983684	 1.9177273813	 0.7575508419	 0.145038
H	 0.9836632114	-1.4384460331	-1.2999969143	 0.15075
H	 1.5011361013	 0.2217375613	-1.6895436309	 0.130965
H	 2.6626780849	 0.4013497492	 0.4998835407	 0.133496
H	 0.7941706764	 0.1973510556	 2.1253352357	 0.130965
H	 0.4544422927	-1.4567015176	 1.555748165	 0.15075
61.9134	154.308	182.3635	190.5101	231.5507	255.9325	334.6885	357.8597	474.8132	522.7188	562.506	588.2036	595.0608	702.0678	844.8192	882.0343	915.5181	924.5165	956.5744	1003.3455	1060.9698	1061.1412	1145.5867	1168.5742	1194.685	1247.5901	1251.2307	1271.1874	1305.6983	1361.5458	1415.309	1474.127	1490.3355	1492.8476	1499.9266	2353.4415	2357.9054	3043.4526	3079.2675	3085.8244	3089.2111	3117.8351	3125.054	3151.2752	3153.2097
CC1(CC(C1)C#N)C#N	C[C@]1(C[C@@H](C1)C#N)C#N	
InChI=1S/C7H8N2/c1-7(5-9)2-6(3-7)4-8/h6H,2-3H2,1H3	InChI=1S/C7H8N2/c1-7(5-9)2-6(3-7)4-8/h6H,2-3H2,1H3/t6-,7+
