16
gdb 126118	4.45672	1.02051	0.83886	0.3977	73.83	-0.266	-0.0726	0.1934	1331.0749	0.123489	-437.904764	-437.896325	-437.895381	-437.938931	29.725	
C	-0.0702553393	 1.4776421876	-0.0962525362	-0.384867
C	 0.0339689584	-0.0378534002	 0.0496514705	-0.289855
C	 0.7815760577	-0.4640447722	 1.2982094734	 0.276867
O	 1.2499654535	 0.3163288433	 2.0999575465	-0.306258
C	 0.9379803793	-1.9217432755	 1.5338484773	 0.358776
C	 1.5461559418	-2.6086767881	 2.5431885592	-0.304772
C	 1.3475052643	-3.9633568185	 2.1835231631	 0.029254
N	 0.6790757404	-4.0841817958	 1.058561098	-0.124346
O	 0.4171318621	-2.7908488246	 0.6426373559	-0.208361
H	 0.9208954078	 1.9357149057	-0.1430212065	 0.133781
H	-0.6153316838	 1.7363488405	-1.0077511601	 0.11519
H	-0.5922035487	 1.9182859935	 0.7568624154	 0.133768
H	-0.9564137989	-0.5118261189	 0.0740740709	 0.138957
H	 0.5361206303	-0.4946202543	-0.813669926	 0.138959
H	 2.0508276757	-2.1949653526	 3.3990592173	 0.148638
H	 1.6651898193	-4.8576288396	 2.7004218711	 0.144269
56.6226	70.3855	139.379	167.526	206.1718	276.1732	366.7929	480.3188	527.5913	648.6157	683.5023	712.4045	810.9842	855.516	925.9652	929.265	935.1917	952.9161	1004.3469	1040.2686	1053.6639	1089.9473	1113.7356	1222.722	1251.2075	1274.5967	1361.6632	1380.4118	1414.2901	1444.9967	1486.2198	1491.4173	1497.4308	1615.4593	1781.0723	3028.8027	3053.4407	3054.1706	3126.18	3128.0112	3249.6821	3296.3657
CCC(=O)C1=CC=NO1	CCC(=O)c1ccno1	
InChI=1S/C6H7NO2/c1-2-5(8)6-3-4-7-9-6/h3-4H,2H2,1H3	InChI=1S/C6H7NO2/c1-2-5(8)6-3-4-7-9-6/h3-4H,2H2,1H3
