18
gdb 79777	2.94977	1.99345	1.78435	2.3812	72.81	-0.21	0.0611	0.2711	848.5793	0.150832	-401.858715	-401.852419	-401.851475	-401.888975	26.838	
O	 0.0175650243	 1.4759057286	-0.1160292565	-0.43198
C	-0.0158347527	 0.0782389003	 0.056116394	 0.137306
C	 0.2360066204	-0.6115476752	 1.4239458108	-0.134987
C	-0.7941250866	-0.2004645666	 2.529390982	-0.002933
C	-1.7987348921	 0.8845079841	 2.0994700121	-0.240405
C	-2.3503222777	-0.2020299347	 1.1594866817	-0.000401
C	-1.3860905476	-0.6154614314	-0.0050787723	-0.101066
C	-0.815470848	-1.6844968048	 0.986478742	 0.011708
N	-1.7783097114	-1.2901945414	 2.0807138962	-0.164107
H	 0.9363062954	 1.7622013171	-0.0950219614	 0.283832
H	 0.635415091	-0.418078982	-0.6811798904	 0.073097
H	 1.2586423271	-0.8210431386	 1.7381497829	 0.0616
H	-0.4308820555	-0.2324448333	 3.5586460111	 0.069564
H	-2.5111254629	 1.0670993129	 2.9092651459	 0.104059
H	-1.4375150805	 1.8213126529	 1.6829565471	 0.124862
H	-3.4167564312	-0.235850455	 0.9288959711	 0.0714
H	-1.8326306436	-0.8236742893	-0.9764912764	 0.069062
H	-0.6160675884	-2.7317979735	 0.7616016103	 0.069389
228.9953	244.9006	251.159	398.9831	517.6751	550.1682	678.0549	683.7923	740.9963	775.3253	781.3074	810.018	841.351	925.0574	930.9995	936.765	952.0064	985.302	1005.4597	1021.822	1045.1517	1068.8972	1091.2671	1107.5048	1138.8082	1166.7983	1178.1125	1196.3902	1205.7973	1217.1324	1248.7734	1260.491	1274.0223	1297.796	1314.2778	1347.4847	1355.2353	1433.8248	1480.5918	2968.3161	3065.0368	3080.9827	3087.0135	3101.2786	3110.6954	3121.2242	3167.9374	3816.569
OC1C2C3CC4C1C2N34	O[C@H]1[C@H]2[C@H]3C[C@H]4[C@@H]1[C@@H]2N34	
InChI=1S/C7H9NO/c9-7-4-2-1-3-5(7)6(4)8(2)3/h2-7,9H,1H2	InChI=1S/C7H9NO/c9-7-4-2-1-3-5(7)6(4)8(2)3/h2-7,9H,1H2/t2-,3+,4+,5-,6-,7+
