18
gdb 17691	4.7987	1.59963	1.5464	1.9633	72.29	-0.2297	0.0797	0.3094	893.1271	0.155553	-343.869134	-343.862375	-343.861431	-343.900327	26.649	
C	-0.1285247172	 1.3334627429	-0.2201009881	-0.234837
C	 1.2730574777	 0.9053998551	 0.0366243497	-0.234839
N	 0.1779790043	-0.0619365898	 0.0910054719	-0.176275
C	-0.2047982783	-0.5430490962	 1.3793365711	 0.350804
C	-0.2629306057	 0.1210962359	 2.7973193033	-0.223097
N	-0.7476524181	-1.3083549395	 3.069126622	-0.137443
C	-1.5654157458	-1.1504796404	 1.7752428524	-0.209666
C	 0.3936822985	-1.7464695223	 2.1346998475	-0.209622
H	-0.6127903254	 1.9333368456	 0.5478525349	 0.114761
H	-0.4719215916	 1.5221692658	-1.2328043842	 0.120625
H	 1.9706768789	 0.7761396917	-0.7853967779	 0.120619
H	 1.7238352266	 1.2197221527	 0.9758344717	 0.114747
H	 0.6769019695	 0.3608032073	 3.301949163	 0.099667
H	-1.0270616895	 0.879155587	 2.9892736582	 0.099673
H	-2.4225295506	-0.4798337857	 1.8812345838	 0.097913
H	-1.8523188729	-2.1018656536	 1.3202850545	 0.104531
H	 0.2505358894	-2.7415929547	 1.7061275666	 0.104534
H	 1.3864746603	-1.6385978918	 2.5800913097	 0.097903
65.2789	194.026	200.364	388.8555	442.8042	547.2054	592.2905	600.3867	781.6784	794.0663	811.3746	847.9928	895.311	926.348	955.9048	964.5216	988.7298	1002.2149	1023.5781	1050.2751	1108.5917	1121.933	1140.9636	1157.0346	1164.166	1170.429	1188.1793	1191.8698	1195.0278	1198.6532	1222.1454	1288.2094	1366.1896	1490.2932	1506.271	1510.9556	1517.6335	1563.4739	3046.6893	3049.3765	3059.3146	3101.338	3105.7749	3115.0484	3121.1388	3123.5538	3184.1093	3198.5193
C1CN1C12CN(C1)C2	C1CN1[C@@]12CN(C1)C2	
InChI=1S/C6H10N2/c1-2-8(1)6-3-7(4-6)5-6/h1-5H2	InChI=1S/C6H10N2/c1-2-8(1)6-3-7(4-6)5-6/h1-5H2
