14
gdb 12658	3.44424	2.02421	1.32144	4.3596	60.61	-0.2475	-0.0655	0.182	868.1244	0.108087	-415.876717	-415.869445	-415.8685	-415.908272	26.933	
O	 0.2476280951	 1.2515576124	 0.4759468489	-0.435035
C	-0.0017454492	-0.0512880185	 0.041195861	 0.065307
C	-1.4910794151	-0.3917263365	-0.1515261491	-0.207906
N	-1.4309620376	-1.4300085847	-1.1823507779	-0.344269
C	-0.3299148267	-1.3525275045	-2.0107739917	 0.292255
N	-0.0304122518	-1.9488643735	-3.0948961564	-0.519554
C	 0.5740696848	-0.3329156596	-1.344108325	 0.328415
O	 1.5199260024	 0.2454653924	-1.8091230735	-0.303551
H	 1.005207715	 1.5638384525	-0.0413273413	 0.298442
H	 0.4364731759	-0.7991383434	 0.7263036916	 0.11145
H	-1.9663073448	-0.7709974764	 0.7562491046	 0.125528
H	-2.025835239	 0.5094534118	-0.4797028713	 0.12785
H	-2.2634641727	-1.9157068212	-1.4756715558	 0.250767
H	-0.7752000163	-2.5802467408	-3.3995664339	 0.210299
88.4765	163.529	244.9381	323.2174	333.642	380.203	443.6355	486.0023	548.307	597.5721	666.7497	737.6712	818.6743	864.7659	980.5517	1012.9168	1059.6009	1075.1233	1130.7396	1175.9779	1195.1458	1246.2649	1284.1379	1368.9184	1370.4286	1410.7709	1437.9288	1530.9103	1741.7658	1860.5479	2948.6584	3020.4217	3095.99	3442.8903	3636.3134	3721.4096
OC1CNC(=N)C1=O	O[C@H]1CN[C]([NH])C1=O	
InChI=1S/C4H6N2O2/c5-4-3(8)2(7)1-6-4/h2,7H,1H2,(H2,5,6)	InChI=1S/C4H6N2O2/c5-4-3(8)2(7)1-6-4/h2,7H,1H2,(H2,5,6)/t2-/m0/s1
