18
gdb 126595	5.52744	0.66959	0.64135	3.0777	74.33	-0.3118	-0.0674	0.2444	1755.9863	0.146704	-435.226714	-435.217789	-435.216845	-435.261882	31.278	
C	 0.0381642694	 1.5610975255	 0.0932241638	-0.384549
C	 0.0131963751	 0.0333253379	 0.0005940065	-0.16746
C	 0.7047487662	-0.4963507098	-1.2593982737	-0.169878
C	 0.6706528767	-2.0342724498	-1.3474775004	-0.303903
C	 1.3782328389	-2.5538115106	-2.5499609579	 0.411258
N	 0.8168180433	-3.134958798	-3.5718569026	-0.14973
O	 1.8381208277	-3.41483052	-4.4168798713	-0.139023
N	 3.0269619375	-2.9717952376	-3.8451826357	 0.046166
N	 2.7514505266	-2.4582147311	-2.7330633982	-0.203007
H	 1.065811144	 1.9399782018	 0.110447257	 0.119609
H	-0.4687292948	 2.018316248	-0.7635094936	 0.118608
H	-0.4613996809	 1.9113042131	 1.0014268452	 0.117262
H	 0.4976097043	-0.3975302752	 0.8867100311	 0.100956
H	-1.0261080993	-0.3200905826	 0.0195223671	 0.100667
H	 0.2237824049	-0.0761024465	-2.1515269072	 0.11059
H	 1.7481952267	-0.1596801244	-1.2807059473	 0.121829
H	 1.1444801851	-2.4622519281	-0.4563600432	 0.134326
H	-0.3616898215	-2.3940694125	-1.3757297897	 0.13628
43.6487	82.5158	91.1801	125.7113	244.4622	249.5849	325.2359	339.1079	443.549	674.1256	697.3668	719.9936	738.4982	781.7922	805.541	911.331	934.0123	958.1304	1010.583	1060.6881	1063.4443	1074.4908	1121.3027	1131.3897	1234.4423	1282.5477	1297.8072	1332.6017	1336.6844	1361.928	1398.3225	1415.4878	1470.938	1485.9496	1488.0467	1498.625	1500.6992	1512.2614	1598.3534	3015.2017	3028.0797	3033.8158	3043.047	3047.1771	3071.3754	3100.5031	3106.8958	3107.2186
CCCCC1=NON=N1	CCCCc1nonn1	
InChI=1S/C5H9N3O/c1-2-3-4-5-6-8-9-7-5/h2-4H2,1H3	InChI=1S/C5H9N3O/c1-2-3-4-5-6-8-9-7-5/h2-4H2,1H3
