17
gdb 43644	3.28279	1.28549	1.09076	4.5978	73.94	-0.2697	-0.0435	0.2261	1130.2381	0.136989	-421.861166	-421.853585	-421.852641	-421.893741	28.913	
O	-0.2396838093	 0.0275688463	 0.227538427	-0.343483
C	-0.0753637472	 1.2079681185	 0.1131815161	 0.425755
O	-1.1100319967	 2.112084195	 0.2257812533	-0.234993
C	-0.6273804106	 3.4473660618	 0.0493408074	 0.028362
C	 0.8499472784	 3.2780633838	-0.1889399922	-0.067917
C	 1.1590745669	 1.9841861785	-0.1553582892	-0.234824
C	-1.3608456734	 4.1551433903	-1.0779479211	-0.004889
C	-1.7628762377	 3.419372379	-2.3276320025	-0.265612
C	-2.8151961869	 3.8720851359	-1.3437021306	-0.268729
H	-0.8060817732	 3.9895650404	 0.9899560934	 0.112169
H	 1.5116530114	 4.1164293858	-0.3648635655	 0.130285
H	 2.1174119039	 1.505779342	-0.2924236711	 0.13577
H	-1.0321206406	 5.1843063217	-1.1969373993	 0.090001
H	-1.6761476352	 3.9401166838	-3.2744556553	 0.113812
H	-1.557916941	 2.3562860563	-2.3767915802	 0.132627
H	-3.2888695324	 3.1048002197	-0.7429664875	 0.137813
H	-3.4557821862	 4.7046761612	-1.6118315129	 0.113853
86.0211	98.2668	172.6096	253.7763	331.1711	407.5509	496.8969	565.4289	682.5469	714.7901	783.2403	784.8084	824.4668	830.3308	850.965	896.1769	924.4333	966.5249	990.2645	1029.4302	1038.5515	1068.9189	1090.8939	1093.3245	1134.5141	1143.8936	1171.1533	1199.8532	1233.8159	1301.7209	1337.6086	1356.7344	1401.2603	1461.6515	1503.7918	1662.7722	1874.1434	2998.0223	3140.1137	3141.4078	3146.8315	3220.3676	3224.3096	3237.7307	3258.1257
O=C1OC(C=C1)C1CC1	O=C1O[C@@H](C=C1)C1CC1	
InChI=1S/C7H8O2/c8-7-4-3-6(9-7)5-1-2-5/h3-6H,1-2H2	InChI=1S/C7H8O2/c8-7-4-3-6(9-7)5-1-2-5/h3-6H,1-2H2/t6-/m0/s1
