18
gdb 107110	3.18597	1.06394	0.9187	3.4676	72.52	-0.2506	-0.0314	0.2192	1285.5798	0.14622	-439.036967	-439.028133	-439.027189	-439.071312	32.179	
O	 0.1252269058	 1.4113582057	-0.0042848811	-0.409182
C	-0.0361459041	 0.0234648991	-0.2604650058	-0.170568
C	-1.4531113154	-0.4251993777	-0.038962129	 0.323743
C	-1.9418886537	-0.9524288961	 1.2567483993	-0.284021
N	-1.8225117099	-1.8953302722	 0.1261155027	-0.191211
C	-3.0257477979	-1.6247863746	-0.7478056704	-0.031859
C	-2.6264562637	-0.1534328973	-0.9833783861	-0.331385
C	-2.9725939543	-2.5381894636	-1.9542052693	 0.147182
O	-3.0193232512	-2.1674037525	-3.0979307838	-0.234585
H	-0.108363537	 1.5670341532	 0.9169706293	 0.28341
H	 0.2462024074	-0.1181364213	-1.3088771673	 0.121059
H	 0.6397559045	-0.5950862182	 0.350184403	 0.098589
H	-1.2095960327	-1.1424538297	 2.036630189	 0.123386
H	-2.9340990119	-0.6900331249	 1.6194277393	 0.115406
H	-3.9745043621	-1.8140797211	-0.225412724	 0.097571
H	-3.3316306388	 0.6235750687	-0.6810952111	 0.108934
H	-2.3271645362	 0.016797298	-2.0189251999	 0.141201
H	-2.8760304789	-3.6138673057	-1.6889217946	 0.09233
55.3505	76.5519	124.5014	206.0738	238.4198	293.5451	370.7378	375.4367	413.7208	445.2281	642.5718	675.5494	749.0006	812.9311	849.184	875.5009	932.4041	947.7111	955.2693	1013.8554	1061.352	1067.2016	1085.7927	1120.0805	1126.7111	1152.5176	1181.632	1229.7152	1245.4654	1319.8094	1349.0205	1354.9345	1391.4757	1410.0881	1423.9487	1489.1305	1497.2038	1511.0046	1833.5353	2898.9564	2988.8506	3009.3781	3074.9931	3077.1923	3097.0514	3133.9008	3189.0808	3809.4848
OCC12CN1C(C2)C=O	OC[C@]12CN1[C@@H](C2)C=O	
InChI=1S/C6H9NO2/c8-2-5-1-6(4-9)3-7(5)6/h2,5,9H,1,3-4H2	InChI=1S/C6H9NO2/c8-2-5-1-6(4-9)3-7(5)6/h2,5,9H,1,3-4H2/t5-,6-,7?/m0/s1
