19
gdb 110342	2.79969	1.26083	1.08608	2.9782	76.81	-0.2341	-0.0073	0.2268	1207.496	0.157511	-423.007423	-422.99832	-422.997375	-423.041567	33.256	
C	-0.4354603935	 0.9498414926	-0.0102174381	-0.242189
O	 0.5656799958	-0.0440965364	 0.1230586899	-0.237373
C	 0.9344585078	-0.6140248513	-1.0865424268	 0.123207
C	 1.4784786516	-1.9803930627	-1.1196361038	-0.130639
C	 0.0882348138	-1.6695726056	-1.7957114085	-0.254091
C	-0.5351342843	-2.5911687818	-0.7928150069	 0.432341
O	-1.6156374024	-3.1079765713	-0.7205047701	-0.334759
C	 0.7989225544	-2.862602925	-0.0502840743	-0.111023
C	 1.176417976	-4.3416014385	-0.0633402321	-0.412569
H	-0.0948135166	 1.7796495611	-0.6470861986	 0.108884
H	-1.3587441993	 0.5352697761	-0.4368253745	 0.126193
H	-0.6403509701	 1.3317170341	 0.9917566036	 0.134193
H	 1.3780618042	 0.0935029191	-1.7914413149	 0.098631
H	 2.4000105379	-2.2367705707	-1.6274168474	 0.106571
H	-0.1937772182	-1.5629889799	-2.8366140393	 0.106524
H	 0.8522099937	-2.4512811474	 0.9605380441	 0.109359
H	 1.1479842576	-4.7525927762	-1.0782110688	 0.119951
H	 2.1839437112	-4.4925777033	 0.3367760845	 0.118654
H	 0.4736439603	-4.913350323	 0.5486748822	 0.138135
69.7195	95.462	152.2123	195.3678	209.8002	228.063	269.1876	324.0936	430.5364	503.0627	592.3616	660.0048	700.094	771.8506	803.7365	850.5401	911.3307	934.6348	953.2924	983.2949	1047.191	1068.1535	1085.973	1105.4308	1122.6363	1134.498	1180.6097	1192.3712	1240.3519	1249.4679	1272.9156	1311.7737	1350.4287	1405.9935	1420.5968	1487.0421	1487.5375	1493.6168	1496.5015	1507.7745	1872.6148	2989.9332	3035.4235	3048.4071	3076.675	3080.6034	3104.7735	3119.1542	3129.2169	3186.0442	3197.0269
COC1C2C1C(=O)C2C	CO[C@H]1[C@@H]2[C@H]1C(=O)[C@H]2C	
InChI=1S/C7H10O2/c1-3-4-5(6(3)8)7(4)9-2/h3-5,7H,1-2H3	InChI=1S/C7H10O2/c1-3-4-5(6(3)8)7(4)9-2/h3-5,7H,1-2H3/t3-,4-,5-,7-/m0/s1
