13
gdb 81883	3.2319	1.29934	1.01724	3.3901	60.69	-0.2509	-0.0644	0.1865	1094.9623	0.085472	-493.656799	-493.648341	-493.647397	-493.690614	29.024	
O	-0.1125244044	 1.458531322	 0.2285609239	-0.417084
C	 0.0218957134	 0.0936519098	-0.0195140645	-0.001877
C	-1.2817536216	-0.7078574546	 0.0307336176	-0.034601
O	-2.0843703946	-0.3062346907	-1.0489325497	-0.233465
C	-1.0728626279	-1.2917816941	-1.3459464706	 0.178432
C	-1.4729650232	-2.6285929332	-1.8598888107	 0.049343
O	-2.5877284844	-3.073687282	-1.7758386477	-0.240686
C	 0.2050381295	-0.4617763028	-1.4783826559	 0.33174
O	 1.0644025255	-0.3610764034	-2.3000609518	-0.29047
H	 0.6981482468	 1.8982310849	-0.0508425427	 0.304587
H	 0.7963688056	-0.3847081566	 0.6058575529	 0.104522
H	-1.7575789804	-1.1997320316	 0.8708643581	 0.145223
H	-0.6386510344	-3.1968858975	-2.3211645788	 0.104338
73.6913	103.6218	141.8128	149.649	234.3536	264.4862	293.7959	355.1372	549.8725	577.6581	697.2869	742.0467	789.5519	824.0597	858.3099	934.1987	959.8467	1023.4036	1041.2337	1149.4324	1168.7101	1189.6739	1255.6368	1288.4022	1387.0244	1419.8722	1431.1827	1817.4011	1901.503	2919.6916	2960.0141	3203.7544	3811.5715
OC1C2OC2(C=O)C1=O	O[C@H]1[C@H]2O[C@@]2(C=O)C1=O	
InChI=1S/C5H4O4/c6-1-5-3(8)2(7)4(5)9-5/h1-2,4,7H	InChI=1S/C5H4O4/c6-1-5-3(8)2(7)4(5)9-5/h1-2,4,7H/t2-,4-,5+/m1/s1
