18
gdb 126217	2.39204	1.28851	0.89595	5.4834	74.74	-0.2383	0.0069	0.2452	1304.3845	0.148152	-435.268159	-435.258948	-435.258003	-435.30343	32.492	
C	 0.0794909112	 1.5668987708	 0.2298309073	-0.36823
C	 0.0125436797	 0.0440601773	 0.020940498	-0.290384
C	 0.6159290448	-0.3986520691	-1.2749111311	 0.204351
C	 0.0193802468	-0.687062333	-2.4851468191	 0.277173
C	-1.3865202668	-0.6750643731	-2.9849512173	-0.202733
O	-1.4521420261	-1.5506358787	-4.1042523796	-0.424834
N	 1.0609342022	-0.9971077686	-3.2930229754	-0.213207
N	 2.2341914399	-0.9281819424	-2.6426492221	-0.126711
N	 1.9662998101	-0.5558675551	-1.4239088911	-0.254552
H	 1.1171957872	 1.9104285002	 0.1985758684	 0.139449
H	-0.4726911408	 2.0988758644	-0.5520261639	 0.109012
H	-0.3473296022	 1.8477968158	 1.1976903743	 0.11161
H	 0.5465762432	-0.4557978336	 0.8359032629	 0.125705
H	-1.0303058182	-0.2911965712	 0.0740927185	 0.095083
H	-2.0655193184	-0.9891318315	-2.178024775	 0.117623
H	-1.6788992072	 0.3475005073	-3.2730074419	 0.116995
H	-2.3069238343	-1.4353208216	-4.5294236892	 0.298481
H	 1.0131205989	-1.3264092778	-4.2443927437	 0.28517
35.6313	60.5403	157.7096	167.6584	211.3326	239.5614	277.4065	315.7778	393.9067	511.7439	609.3246	635.8463	701.3058	743.2105	768.8096	787.2711	973.6138	1019.6914	1034.1325	1061.344	1063.6261	1083.3292	1091.1397	1194.4066	1207.4471	1235.9276	1272.3877	1276.6775	1338.8378	1354.8867	1375.8036	1405.8359	1458.4805	1477.7793	1495.2167	1499.7627	1510.9807	1518.0622	1627.4646	2970.2495	3002.0522	3032.6786	3035.9924	3075.1855	3105.4988	3120.2489	3659.844	3835.4699
CCC1=C(CO)NN=N1	CCc1c(CO)[nH]nn1	
InChI=1S/C5H9N3O/c1-2-4-5(3-9)7-8-6-4/h9H,2-3H2,1H3,(H,6,7,8)	InChI=1S/C5H9N3O/c1-2-4-5(3-9)7-8-6-4/h9H,2-3H2,1H3,(H,6,7,8)
