22
gdb 110365	4.28162	1.09558	1.05979	1.046	86.93	-0.2125	0.0952	0.3077	1264.3164	0.196256	-367.160346	-367.152555	-367.151611	-367.192579	31.91	
C	-0.2529868111	 1.4481989128	 0.2230932627	-0.375692
C	 0.2409943913	 0.0325356677	-0.0639429995	-0.120995
N	 0.8645867805	-0.5481819446	 1.1228868195	-0.101344
C	-0.0603171007	-1.2880416839	 2.0019555003	-0.016509
C	 0.9060974575	-2.0194854946	 1.1411932863	-0.015815
C	 1.8157221027	-2.657815504	 2.2107222932	-0.06888
C	 0.7187906518	-3.1851725641	 3.2037737195	-0.213067
C	 0.4758754184	-1.6458594482	 3.4030065456	-0.067093
C	 2.015123208	-1.5041386317	 3.2339464703	-0.215954
H	 0.5709717754	 2.0780910148	 0.5698673798	 0.126318
H	-0.6822140246	 1.8986346575	-0.6772055721	 0.110237
H	-1.0240449462	 1.4434930883	 1.0003751489	 0.116562
H	-0.594779872	-0.5860203765	-0.44061591	 0.076536
H	 0.9994388519	 0.0533745998	-0.8558489283	 0.101151
H	-1.1255990264	-1.25546543	 1.7961243756	 0.083097
H	 0.6082910927	-2.569095546	 0.2539132567	 0.082804
H	 2.6426388426	-3.2822711705	 1.872621727	 0.058778
H	-0.1003766525	-3.7811439075	 2.7891579253	 0.084991
H	 1.1369137771	-3.6732146999	 4.088060951	 0.093055
H	-0.0513962792	-1.2476167987	 4.2698655695	 0.058654
H	 2.5473014225	-1.8475017736	 4.1231808117	 0.08695
H	 2.4108496402	-0.556867307	 2.8746336468	 0.116216
85.9679	146.6624	196.9477	281.6885	344.5109	418.4632	439.6815	512.2834	571.0185	673.7552	771.8933	802.3337	824.0474	832.9439	843.1159	856.0966	898.4119	910.0146	946.8772	954.8221	971.2359	1010.2024	1025.7826	1050.038	1071.1574	1080.3646	1096.0023	1105.8686	1116.6893	1160.0687	1167.1873	1215.6719	1221.5172	1246.3107	1247.2434	1275.3335	1293.4861	1303.6349	1324.0985	1376.9826	1394.6396	1412.0259	1474.2742	1488.389	1494.0404	1510.4347	1513.2959	2926.821	3038.6712	3045.0625	3046.6709	3082.9382	3107.7747	3109.1266	3111.8428	3117.0526	3118.6515	3156.0107	3162.6337	3165.7401
CCN1C2C1C1CC2C1	CCN1[C@H]2[C@@H]1[C@@H]1C[C@H]2C1	
InChI=1S/C8H13N/c1-2-9-7-5-3-6(4-5)8(7)9/h5-8H,2-4H2,1H3	InChI=1S/C8H13N/c1-2-9-7-5-3-6(4-5)8(7)9/h5-8H,2-4H2,1H3/t5-,6+,7-,8+,9?
