14
gdb 131464	5.20267	1.23312	1.13077	4.4939	67.94	-0.2518	-0.0128	0.239	1030.6174	0.10229	-432.778362	-432.771717	-432.770773	-432.809435	25.735	
O	-0.0363679124	 1.2592728055	-0.2413128153	-0.414821
C	-0.0844044719	-0.1122674295	-0.0524635548	 0.098777
C	-0.4825762097	-0.5906863241	 1.3364753932	-0.073656
C	-1.4873530532	-0.6432235872	 0.1763236363	-0.242769
C	-1.3751255554	-2.1517793982	 0.2765607725	 0.240714
C	-1.2315246423	-3.4487153018	-0.1567333788	-0.173605
N	-0.3175359368	-4.0492129967	 0.6777252533	-0.178365
N	 0.1713138976	-3.1937569869	 1.542366133	-0.170677
N	-0.532595186	-2.0623307579	 1.3356867803	 0.07952
H	 0.8575785924	 1.5648438687	-0.0514247581	 0.303257
H	 0.6201444736	-0.7119758934	-0.6296364904	 0.127404
H	-0.4742688325	 0.0064176411	 2.2365568899	 0.141642
H	-2.3653818303	-0.0330013772	 0.0270647023	 0.134539
H	-1.711644243	-4.0041450425	-0.9442839232	 0.12804
112.1286	245.4687	293.5148	304.6949	336.549	470.8109	501.0193	694.4905	722.7646	760.9614	828.2537	835.1739	836.6429	885.4961	902.3057	1000.5667	1013.2886	1080.4243	1092.8879	1099.2859	1123.7415	1160.9463	1179.5973	1223.152	1252.8904	1263.1222	1275.9093	1321.2159	1420.4507	1443.6677	1547.5254	3104.807	3231.9602	3241.7987	3284.9537	3807.6828
OC1C2C1C1=CN=NN21	O[C@H]1[C@H]2[C@@H]1c1cnnn21	
InChI=1S/C5H5N3O/c9-5-3-2-1-6-7-8(2)4(3)5/h1,3-5,9H	InChI=1S/C5H5N3O/c9-5-3-2-1-6-7-8(2)4(3)5/h1,3-5,9H/t3-,4+,5+/m0/s1
