21
gdb 119211	2.13131	1.22442	0.90425	1.1032	87.25	-0.2361	0.0518	0.2878	1385.8871	0.179346	-387.034694	-387.024194	-387.023249	-387.070128	38.239	
C	-0.0392524021	 1.4692799759	-0.9173001151	-0.229515
O	-0.045560081	 0.0966094473	-1.2344124399	-0.233053
C	 0.7511546153	-0.6669865628	-0.3545769436	-0.148882
C	 0.6942540589	-2.1536728243	-0.7046666063	 0.1134
C	-0.4397103492	-2.6813142093	-1.5751168745	-0.320817
C	 0.9605776805	-2.6718301642	-2.120640203	-0.021753
C	 1.3832926039	-1.7694728691	-3.259032125	-0.425625
C	 1.1595815564	-2.980205808	 0.377316287	 0.254572
C	 1.5615009966	-3.6461382399	 1.2958653953	-0.440812
H	-0.4260105768	 1.6514457762	 0.0973221937	 0.109863
H	 0.9726172022	 1.8986701908	-0.9811475677	 0.108326
H	-0.6851109557	 1.9739702621	-1.6394599437	 0.129364
H	 1.7966367871	-0.3160473657	-0.382086017	 0.098744
H	 0.3953481321	-0.5388215448	 0.6802492723	 0.103088
H	-0.8907549313	-3.6258674734	-1.2946115526	 0.117058
H	-1.1250348921	-1.9277281348	-1.9445845071	 0.134336
H	 1.450482735	-3.6416972687	-2.1229065862	 0.093954
H	 0.8695393861	-0.8084127796	-3.2173853655	 0.140836
H	 2.4629275223	-1.5831137406	-3.2331998809	 0.113881
H	 1.1546824722	-2.2433523719	-4.2203053577	 0.114961
H	 1.9127314095	-4.2442452053	 2.0994328775	 0.188073
80.1514	90.8397	129.557	148.2903	183.33	196.6644	234.2473	250.9169	325.1315	367.0786	431.1712	451.195	530.3422	541.357	574.4224	649.016	715.0457	768.7419	877.1063	908.7201	945.0889	996.9284	1028.4732	1062.4604	1088.8399	1101.6221	1134.1352	1157.5914	1187.0166	1196.914	1219.0435	1255.4219	1278.1283	1305.8059	1393.2381	1417.2693	1429.9887	1473.7996	1485.5439	1486.3486	1498.8124	1503.3593	1507.8662	1527.6619	2230.2684	2957.1093	2977.167	2990.5613	3022.3346	3032.2768	3084.4832	3118.0433	3136.4859	3143.5873	3154.3139	3237.7562	3504.5358
COCC1(CC1C)C#C	COC[C@]1(C[C@H]1C)C#C	
InChI=1S/C8H12O/c1-4-8(6-9-3)5-7(8)2/h1,7H,5-6H2,2-3H3	InChI=1S/C8H12O/c1-4-8(6-9-3)5-7(8)2/h1,7H,5-6H2,2-3H3/t7-,8-/m1/s1
