16
gdb 35526	3.2536	1.49848	1.40595	4.8729	67.29	-0.272	0.0103	0.2822	953.7444	0.127103	-437.899482	-437.892716	-437.891772	-437.930804	26.544	
N	-0.1289619648	-1.1612622688	-0.139293161	-0.326976
C	-0.0742362076	-0.0114191518	-0.042414277	 0.290598
C	 0.0045544565	 1.4534093168	 0.0313888812	-0.012407
O	-0.5738810192	 1.9363666348	 1.2582951173	-0.274233
C	 0.4585689064	 2.7135927902	 1.8758000781	 0.213018
C	 1.135733234	 3.3987608818	 0.6880267805	-0.263876
C	 1.4497772619	 2.0213921665	 0.0666812859	-0.108112
C	 2.1764657043	 1.3628341418	 1.2533578071	-0.088293
O	 1.4544187054	 1.8674910065	 2.4017382872	-0.260171
H	-0.5568643389	 1.8604630119	-0.8200207653	 0.128369
H	 0.0133827764	 3.2973374386	 2.6782363824	 0.10734
H	 0.4571838963	 4.0154943238	 0.0961927912	 0.11862
H	 2.0267664507	 3.9634452807	 0.9670572012	 0.121741
H	 1.9727530873	 1.985596016	-0.887240687	 0.10216
H	 2.126630643	 0.2701827501	 1.2406399365	 0.14152
H	 3.2264239381	 1.6724175612	 1.3125767018	 0.110701
105.3352	160.7644	260.3087	370.718	457.7429	489.9298	536.0302	564.3518	608.307	796.2977	830.473	855.0584	898.913	907.334	926.6632	951.7075	955.3035	975.4813	1028.6386	1050.0088	1084.2258	1095.6522	1142.7808	1185.2332	1217.1168	1266.8653	1285.8391	1308.7145	1317.7003	1342.7094	1363.3052	1389.899	1490.8047	1530.2886	2361.4504	3019.9778	3035.096	3082.481	3091.6048	3142.3141	3143.9878	3164.3547
N#CC1OC2CC1CO2	N#C[C@H]1O[C@@H]2C[C@H]1CO2	
InChI=1S/C6H7NO2/c7-2-5-4-1-6(9-5)8-3-4/h4-6H,1,3H2	InChI=1S/C6H7NO2/c7-2-5-4-1-6(9-5)8-3-4/h4-6H,1,3H2/t4-,5+,6+/m0/s1
