14
gdb 35078	4.07222	1.36849	1.29327	6.6629	71.61	-0.2534	-0.0818	0.1716	965.6798	0.10129	-395.589652	-395.583036	-395.582092	-395.620744	26.101	
N	-0.1026272293	-1.1778346128	-0.0988028979	-0.318737
C	-0.0866400712	-0.0266438442	-0.0060976742	 0.320112
C	-0.0234802018	 1.4369557415	 0.0426920447	-0.150774
N	-0.515723703	 1.8889810023	 1.3785838273	-0.145214
C	 0.2623747188	 2.8488397729	 1.6866020257	 0.138629
N	 1.2786222859	 2.5584411569	 2.7108618807	-0.328709
C	 2.1232304578	 2.4956237884	 1.391280732	-0.013865
C	 1.4157956072	 2.022109612	 0.0474883177	-0.055092
C	 1.2531085185	 3.3930932046	 0.6056831084	-0.185762
H	-0.5812662699	 1.8278111397	-0.8216813021	 0.135123
H	 1.6269799767	 3.428290872	 3.1299115068	 0.233152
H	 3.2035563281	 2.4580522666	 1.4890225198	 0.130554
H	 2.0964329143	 1.8115574524	-0.7731347094	 0.119045
H	 1.3737765981	 4.3762745577	 0.1716437305	 0.121538
100.5458	167.1959	330.8016	392.1717	486.2902	503.6547	545.592	622.073	680.0881	695.385	764.797	776.175	827.4468	860.1769	906.4252	941.2942	962.1232	1001.0099	1039.6872	1053.5126	1066.6903	1113.5241	1143.5273	1193.3138	1215.1419	1234.5467	1277.8991	1322.8827	1347.1325	1615.5446	2365.2543	2995.2886	3160.5022	3172.2774	3206.9723	3374.0991
N#CC1N=C2NC3C1C23	N#C[C@H]1[N][C]2N[C@H]3[C@@H]1[C@@H]23	
InChI=1S/C6H5N3/c7-1-2-3-4-5(3)9-6(4)8-2/h2-5H,(H,8,9)	InChI=1S/C6H5N3/c7-1-2-3-4-5(3)9-6(4)8-2/h2-5H,(H,8,9)/t2-,3+,4-,5+/m1/s1
