13
gdb 131113	3.35402	1.17148	1.01882	5.9512	63.54	-0.2853	-0.0301	0.2552	1126.2175	0.090755	-448.922927	-448.915233	-448.914289	-448.956473	27.259	
O	 0.0189144184	 1.4353062532	 0.0149187295	-0.399686
C	 0.0184970352	 0.0314459921	-0.0250439571	-0.113893
C	 0.690783586	-0.4763612885	-1.2506809504	 0.260415
N	 1.2039946891	-0.880409254	-2.2035631987	-0.317926
C	 0.6693765521	-0.5545797145	 1.2040712735	 0.325622
C	 0.5005664333	-1.7450919401	 1.8674360706	-0.175242
N	 1.3890077485	-1.6666187707	 2.8855525357	-0.144484
N	 2.0675696775	-0.5078511913	 2.8702279241	-0.098255
N	 1.6312301318	 0.1637150305	 1.8457230947	-0.256707
H	 0.8410044538	 1.7017967457	 0.4515241177	 0.311948
H	-1.0276970327	-0.2916113723	-0.0805999863	 0.145106
H	-0.1380119541	-2.5973506735	 1.7091472771	 0.16805
H	 1.5785234611	-2.3377065466	 3.6139866097	 0.295054
29.8998	104.5076	195.08	227.8762	310.4242	411.7701	440.3646	476.3091	599.3178	607.9251	690.2399	738.2733	784.2678	819.5782	930.0846	994.9866	1036.2408	1061.5028	1092.4159	1135.3279	1238.2992	1273.3221	1321.1578	1337.9186	1370.1316	1442.5333	1490.077	1589.1965	2355.6829	3048.9501	3288.7441	3651.446	3742.9255
OC(C#N)C1=CNN=N1	O[C@@H](C#N)c1c[nH]nn1	
InChI=1S/C4H4N4O/c5-1-4(9)3-2-6-8-7-3/h2,4,9H,(H,6,7,8)	InChI=1S/C4H4N4O/c5-1-4(9)3-2-6-8-7-3/h2,4,9H,(H,6,7,8)/t4-/m0/s1
