15
gdb 15741	3.10258	2.00349	1.27493	1.5563	65.39	-0.2424	-0.0109	0.2315	915.9561	0.119694	-395.980822	-395.973148	-395.972204	-396.013239	27.409	
N	 0.4543924135	 1.4988146315	 1.0029034652	-0.536213
C	 0.1026700092	 0.3434173764	 0.5894819659	 0.398681
N	-1.2829869672	 0.1122373733	 0.5180358394	-0.314725
C	-2.0094863043	-1.0097832263	 0.1990988544	 0.167306
O	-1.5892680649	-2.0763800115	-0.1793326899	-0.298932
N	 0.9161111015	-0.7427190044	 0.29421384	-0.081122
C	 1.0516329269	-1.3176923793	-1.0328674061	-0.202389
C	 2.1816992011	-0.5722400206	-0.3973579802	-0.246339
H	 1.4685917499	 1.577026201	 1.0334181193	 0.222692
H	-1.805362914	 0.9205342415	 0.8260443536	 0.267192
H	-3.0905742387	-0.8045666491	 0.3296739902	 0.088508
H	 1.0446561564	-2.4007547788	-1.0696422408	 0.145453
H	 0.5319868548	-0.8271503616	-1.8513799931	 0.132204
H	 2.4145361313	 0.4159786589	-0.7892355967	 0.125588
H	 3.0230675346	-1.1096972608	 0.0293739687	 0.132096
75.4772	118.3131	181.6739	218.2041	271.9102	287.392	423.2092	549.8726	668.1177	690.273	742.6077	812.2762	831.796	853.7116	947.4509	966.0273	1031.1645	1047.7839	1073.2696	1126.4135	1139.2855	1169.4532	1176.1884	1196.1533	1313.1495	1420.2194	1459.1107	1486.4542	1493.3228	1522.1341	1706.0354	1823.354	2938.2641	3104.6652	3127.0732	3194.7659	3223.8323	3518.6272	3610.6336
N=C(NC=O)N1CC1	N=C(NC=O)N1CC1	
InChI=1S/C4H7N3O/c5-4(6-3-8)7-1-2-7/h3H,1-2H2,(H2,5,6,8)	InChI=1S/C4H7N3O/c5-4(6-3-8)7-1-2-7/h3H,1-2H2,(H2,5,6,8)
