19
gdb 109749	2.06806	1.41609	1.09991	5.2992	72.92	-0.2366	0.0241	0.2608	1193.0143	0.160336	-456.350143	-456.340953	-456.340009	-456.384233	33.982	
C	-0.6397121473	 1.1965124497	-0.2474927675	-0.328732
N	 0.4673256304	 0.2919440501	 0.0710169448	-0.320271
H	 1.1637528759	 0.754818786	 0.6470772453	 0.248512
H	-0.1709004227	-1.2005814977	 0.6561195291	 0.313847
C	 1.1070760182	-0.285024628	-1.0885299616	-0.02153
C	 2.1639247642	-1.3101921398	-0.845731694	-0.024608
N	 2.6159817936	-1.5866585224	 0.4932567221	-0.530264
C	 0.8078530094	-1.7528593339	-1.4310204333	-0.219451
C	-0.1097601204	-2.6205133314	-0.6217817136	 0.411132
O	-0.5034426818	-3.6848199579	-1.023999934	-0.34356
O	-0.4318853669	-2.1626799582	 0.605554337	-0.399125
H	-0.3435563593	 2.0137836574	-0.9216610822	 0.119045
H	-1.4407743449	 0.628823674	-0.7297671336	 0.148511
H	-1.0343964431	 1.6278893068	 0.6756236193	 0.134532
H	 1.2343730315	 0.3836356918	-1.9410673518	 0.094299
H	 2.9830935287	-1.3160335188	-1.5573170587	 0.114589
H	 1.8392851863	-1.8441996398	 1.0952856556	 0.244989
H	 3.2376192234	-2.3890910648	 0.4776671222	 0.244404
H	 0.803209395	-2.0226011632	-2.4800190252	 0.113681
75.8004	116.7831	143.0481	197.7935	209.5291	249.6542	298.5125	342.8706	400.2201	446.8887	524.8263	592.1572	691.4573	743.1614	790.2096	800.3526	836.2892	884.1859	927.1251	974.5687	1019.7129	1039.8762	1052.9223	1069.6371	1126.8475	1143.9652	1163.7421	1198.3116	1248.0952	1267.237	1286.5525	1346.5318	1382.2583	1449.6553	1458.7512	1478.4978	1492.9575	1509.5936	1515.8474	1672.9206	1845.5517	2996.4362	3081.2469	3086.702	3124.2644	3128.1486	3164.7998	3191.6385	3501.2605	3515.1497	3574.7783
C[NH2+]C1C(N)C1C([O-])=O	CN[C@H]1[C@@H](N)[C@H]1C(=O)O	
InChI=1S/C5H10N2O2/c1-7-4-2(3(4)6)5(8)9/h2-4,7H,6H2,1H3,(H,8,9)	InChI=1S/C5H10N2O2/c1-7-4-2(3(4)6)5(8)9/h2-4,7H,6H2,1H3,(H,8,9)/t2-,3+,4-/m1/s1
