19
gdb 117896	3.64803	0.75807	0.67884	4.0462	79.27	-0.2612	-0.0569	0.2043	1648.3088	0.155169	-423.000237	-422.989402	-422.988458	-423.037401	37.568	
C	-0.096218951	 1.4286365904	-0.2324386238	-0.405677
C	 0.0231647714	-0.0872538177	 0.0373500967	-0.104777
C	 0.7955829598	-0.4263728235	 1.317521574	-0.16752
C	 2.2696818001	-0.0419990664	 1.2635522224	-0.094741
O	 2.8729756827	-0.5142089383	 2.4582426703	-0.417911
C	-1.372753949	-0.7077213416	 0.0715428822	 0.221955
O	-1.8550125536	-1.223249638	 1.0557915209	-0.291395
C	-2.1175440596	-0.6472573542	-1.1805980789	 0.261673
C	-2.7229002035	-0.6122917431	-2.2207697585	-0.396456
H	 0.8886262448	 1.8729266671	-0.3964054133	 0.126791
H	-0.7031695671	 1.6254900531	-1.1200467913	 0.132611
H	-0.5605818488	 1.9359445374	 0.619763456	 0.131014
H	 0.5299959742	-0.5367292306	-0.8298960908	 0.098384
H	 0.3254975985	 0.0635852412	 2.1765491625	 0.118078
H	 0.7303773834	-1.501738396	 1.5097034884	 0.121339
H	 2.740259021	-0.4945848457	 0.3737599227	 0.081712
H	 2.3830980249	 1.0491116115	 1.1711423794	 0.086138
H	 3.7956881067	-0.2437885949	 2.4572890438	 0.285747
H	-3.2720213249	-0.5887380905	-3.1307670928	 0.213036
35.2377	55.8393	95.3092	111.2288	179.5729	192.2553	241.4792	262.4328	283.7102	336.2018	358.4304	383.8094	534.8438	611.0809	644.4342	700.2076	727.7549	777.4901	800.428	890.7364	969.3886	1015.6035	1050.6285	1077.465	1093.3448	1125.0399	1184.8741	1241.9047	1243.7551	1304.8778	1308.6311	1324.29	1381.5423	1407.0596	1464.0641	1484.1524	1500.0115	1505.3295	1527.4091	1768.1834	2208.0534	2952.8801	2990.4427	2999.2706	3042.4051	3056.8564	3099.3391	3114.7576	3123.0341	3493.9351	3830.1645
CC(CCO)C(=O)C#C	C[C@@H](CCO)C(=O)C#C	
InChI=1S/C7H10O2/c1-3-7(9)6(2)4-5-8/h1,6,8H,4-5H2,2H3	InChI=1S/C7H10O2/c1-3-7(9)6(2)4-5-8/h1,6,8H,4-5H2,2H3/t6-/m0/s1
