21
gdb 60548	3.06414	1.09228	1.07349	1.5813	78.3	-0.261	0.0797	0.3407	1261.6757	0.181306	-424.189918	-424.18059	-424.179646	-424.223954	35.631	
C	 0.0053260484	 1.5084268704	 0.3759150329	-0.480855
C	 0.0022218144	 0.0168618249	 0.0987528835	 0.381852
C	 0.9645795431	-0.533708934	-0.9295226314	-0.310414
C	 1.194765223	-0.7910277091	 0.5408494427	-0.317235
C	-1.3588081055	-0.6684263197	 0.1904314131	 0.025105
O	-1.9315797185	-0.5623718524	 1.4819731919	-0.445591
C	-2.3332041355	-0.1335923002	-0.8540065247	 0.05441
C	-3.781115054	-0.3041393495	-0.7079746125	-0.189551
O	-3.1555271675	 0.9541409301	-0.4029247769	-0.249037
H	 1.0184573574	 1.914376397	 0.2996697062	 0.111554
H	-0.6301072364	 2.056748234	-0.3276171101	 0.128973
H	-0.3592373099	 1.7143035638	 1.3878350457	 0.121964
H	 0.6450424303	-1.3681086804	-1.5468889107	 0.105578
H	 1.6189642669	 0.1649225789	-1.4399203995	 0.110058
H	 2.008961881	-0.2673385668	 1.0301656759	 0.110159
H	 1.0243147791	-1.7939151765	 0.9181425576	 0.114391
H	-1.2135559836	-1.7406413537	 0.0013736219	 0.0848
H	-2.4120278614	 0.2775651708	 1.4870736076	 0.292146
H	-1.922891914	 0.0010294138	-1.8542732861	 0.101946
H	-4.4178766755	-0.2966668547	-1.5902577601	 0.119772
H	-4.1637782716	-0.8443938268	 0.1544078729	 0.129975
68.5439	97.9175	167.4143	231.0126	241.5002	281.2321	299.6145	324.8772	344.0385	453.4393	508.4146	519.4421	672.9136	763.0303	780.8707	795.8917	875.4792	880.5622	910.8562	942.7878	955.0987	984.902	1011.6604	1042.4637	1072.3874	1079.2244	1101.3942	1118.6222	1133.4395	1162.2148	1172.7836	1187.3088	1259.2926	1273.9377	1295.2528	1326.5269	1380.7941	1415.025	1427.2575	1441.537	1470.6205	1493.667	1502.9619	1511.7678	1517.1903	3019.5869	3033.039	3097.8532	3099.6119	3104.9421	3121.3402	3123.5392	3131.088	3194.795	3201.3311	3216.9685	3743.035
CC1(CC1)C(O)C1CO1	CC1(CC1)[C@@H](O)[C@H]1CO1	
InChI=1S/C7H12O2/c1-7(2-3-7)6(8)5-4-9-5/h5-6,8H,2-4H2,1H3	InChI=1S/C7H12O2/c1-7(2-3-7)6(8)5-4-9-5/h5-6,8H,2-4H2,1H3/t5-,6+/m1/s1
