17
gdb 38024	3.5582	1.64562	1.3092	1.8412	77.69	-0.2371	0.002	0.2392	968.1547	0.138322	-384.676927	-384.670444	-384.6695	-384.707623	26.776	
C	-0.060654296	 1.4748503121	 0.1107095754	-0.363276
C	 1.411362636	 1.8651372979	 0.0254136528	-0.067262
C	 2.1667372033	 0.9236509224	-0.5474108856	-0.075292
C	 1.3237251955	-0.2486653009	-1.0041637453	-0.12955
C	 1.630326499	-1.7111131436	-0.6952012195	 0.007162
O	 1.7589752889	-2.0621108134	 0.6780204345	-0.253943
C	 0.4681686472	-2.2515470187	 0.0407694926	 0.011075
C	-0.4533290601	-1.1072095708	 0.326359102	-0.234501
C	 0.0444643028	 0.0078558782	-0.2116295434	 0.296808
H	-0.5063316518	 1.67009274	 1.0918888467	 0.118527
H	-0.6549560733	 2.0371010143	-0.6258955313	 0.115769
H	 1.7727465028	 2.8235957478	 0.3814123804	 0.09812
H	 3.2318104452	 1.0016660288	-0.7315064225	 0.100384
H	 1.1571609238	-0.1800884086	-2.0924859068	 0.089755
H	 2.2151605069	-2.3096213148	-1.3886855032	 0.09097
H	 0.1405308051	-3.284728721	-0.0215919374	 0.0964
H	-1.2895613954	-1.1727290397	 1.0120209804	 0.098854
151.3615	182.4864	355.012	385.309	480.6834	490.376	641.3946	663.7464	691.2696	763.552	783.6173	828.6086	838.8214	868.1573	898.6867	919.6511	935.693	964.3197	972.1698	1004.5439	1043.1979	1075.9777	1113.4781	1118.8325	1144.5184	1169.509	1234.3509	1251.1407	1265.8375	1296.8236	1305.887	1327.5842	1369.1565	1404.8787	1475.5575	1661.4771	1711.2816	2960.3302	2990.9491	3064.6286	3144.7682	3164.1124	3186.598	3204.0785	3211.8279
C1C=CC2C3OC3C=C12	C1C=C[C@H]2[C@H]3O[C@H]3[CH][C]12	
InChI=1S/C8H8O/c1-2-5-4-7-8(9-7)6(5)3-1/h1,3-4,6-8H,2H2	InChI=1S/C8H8O/c1-2-5-4-7-8(9-7)6(5)3-1/h1,3-4,6-8H,2H2/t6-,7+,8-/m1/s1
