18
gdb 98705	2.2918	1.33138	0.94332	3.3299	80.1	-0.2365	0.0147	0.2512	1265.6785	0.145953	-401.934411	-401.924621	-401.923677	-401.970196	34.922	
C	 0.6318960749	 1.4473409415	 0.502632644	-0.330833
N	 0.9141540242	 0.0681372075	 0.8538334462	-0.330662
C	-0.0814628353	-0.8598580989	 0.9224439351	 0.401803
O	-1.2401229163	-0.6219205835	 0.6213827207	-0.386736
C	 0.2983466219	-2.2618082793	 1.3306447121	-0.107881
C	 1.4548709337	-3.0021989248	 0.7065870423	-0.296088
C	 1.5000127802	-2.6898671788	 2.1864018509	-0.204626
C	 2.4642821187	-1.7726417707	 2.7204175644	 0.308734
C	 3.287871415	-1.0266270055	 3.1849140967	-0.440462
H	 1.4414790039	 1.8538357664	-0.110682276	 0.120461
H	-0.2995412975	 1.4662083863	-0.0634428532	 0.165925
H	 0.5098901739	 2.0832795619	 1.388765337	 0.124638
H	 1.7930113155	-0.1353173921	 1.3063567887	 0.250351
H	-0.5991362099	-2.8421034166	 1.5074638235	 0.123087
H	 1.3074202512	-4.0334321473	 0.4071645505	 0.132097
H	 2.1173547144	-2.4302483132	 0.0671761952	 0.136479
H	 1.2785985461	-3.5198551794	 2.8513791901	 0.127852
H	 4.0141807953	-0.3747630735	 3.6040982318	 0.205859
42.6694	49.1459	110.0995	142.1717	200.1827	211.0188	285.0298	323.13	415.2148	514.0652	534.9897	550.708	587.3192	651.6895	662.6956	762.6363	768.1948	820.8681	868.3562	935.1955	984.6933	1000.6215	1075.1155	1122.4643	1127.6505	1150.4945	1164.0391	1176.1937	1213.144	1303.0621	1365.5936	1383.7793	1439.1331	1482.5963	1491.4523	1505.2179	1577.9377	1765.9326	2226.8153	3021.3455	3085.3606	3142.3467	3147.4211	3156.4791	3191.7876	3234.8112	3500.0336	3594.8599
CNC(=O)C1CC1C#C	CNC(=O)[C@H]1C[C@H]1C#C	
InChI=1S/C7H9NO/c1-3-5-4-6(5)7(9)8-2/h1,5-6H,4H2,2H3,(H,8,9)	InChI=1S/C7H9NO/c1-3-5-4-6(5)7(9)8-2/h1,5-6H,4H2,2H3,(H,8,9)/t5-,6+/m1/s1
