15
gdb 127449	4.04732	1.10816	0.8748	3.2526	79.14	-0.2171	0.0006	0.2177	1257.699	0.111821	-416.79521	-416.786411	-416.785467	-416.82907	31.79	
C	-0.0247173946	 1.3992639966	-0.0590478339	-0.325914
N	-0.0085753452	-0.0458329076	 0.01450213	-0.022084
N	-0.0311655902	-0.7915591528	-1.1157110227	-0.339667
C	 0.0434765545	-2.0568140646	-0.6875304708	 0.239712
C	 0.1224406497	-2.1314075052	 0.728781665	-0.490911
C	 0.0885578229	-0.8132443867	 1.1264472392	 0.460915
O	 0.1323203929	-0.1994147988	 2.3294421189	-0.439078
C	 0.0339875012	-3.1459101938	-1.5952538078	 0.270547
C	 0.0295537917	-4.0952879693	-2.3349823766	-0.423301
H	 0.9898699224	 1.8048594876	-0.134085213	 0.143996
H	-0.5907379152	 1.6848743761	-0.9457763456	 0.160243
H	-0.5035976716	 1.8011391694	 0.8352149936	 0.151972
H	 0.1867616571	-3.0124086538	 1.3449002748	 0.11049
H	 0.147609547	-0.8706009071	 3.0186850749	 0.315182
H	 0.0239108275	-4.9237589801	-2.9986878063	 0.187898
50.7731	124.0971	143.5873	186.3127	263.2479	284.2867	316.3125	422.0779	485.0134	531.9856	573.1761	592.1853	659.4611	666.5183	672.6415	715.5392	760.6327	826.0585	1012.8983	1063.786	1132.1772	1149.8321	1177.8094	1288.5427	1309.993	1399.8026	1446.763	1467.8937	1486.9139	1505.2531	1567.7968	1606.7525	2238.3656	3045.4301	3122.9797	3164.6486	3271.2247	3505.5138	3845.2752
CN1N=C(C=C1O)C#C	Cn1nc(cc1O)C#C	
InChI=1S/C6H6N2O/c1-3-5-4-6(9)8(2)7-5/h1,4,9H,2H3	InChI=1S/C6H6N2O/c1-3-5-4-6(9)8(2)7-5/h1,4,9H,2H3
