20
gdb 88466	3.04821	1.15819	1.10892	3.1882	74.94	-0.244	0.0585	0.3025	1205.902	0.170722	-440.236284	-440.227422	-440.226477	-440.270055	33.62	
C	-0.2591373224	 1.4878488148	-0.116588646	-0.414966
C	 0.0668860625	 0.021729715	 0.046872157	 0.014613
N	 1.4710540141	-0.4062403401	-0.1118421179	-0.367022
C	 0.8111380078	-0.5726187036	 1.1936395176	-0.100837
C	 1.4346251274	 0.2351576346	 2.324804887	 0.355765
O	 2.22241117	 1.2806654177	 1.8334215223	-0.475245
C	 0.4455714738	 0.6359719927	 3.443989601	-0.111039
O	 0.9345096284	-0.4134296964	 4.3042770891	-0.277221
C	 2.0670101103	-0.645471827	 3.4422184042	-0.124639
H	-0.2857988317	 1.7560335237	-1.178172416	 0.119771
H	-1.24643251	 1.7029611425	 0.3063015403	 0.119616
H	 0.4758927944	 2.1173098886	 0.3860496476	 0.146905
H	-0.6731734191	-0.6454193113	-0.3947169151	 0.089683
H	 1.5529416427	-1.2826384795	-0.6167734438	 0.239944
H	 0.5089765904	-1.5757888256	 1.4873618873	 0.094468
H	 2.4876443997	 1.0046131613	 0.9392343448	 0.289715
H	 0.6559966625	 1.6369695419	 3.8420799739	 0.106877
H	-0.6257793032	 0.5352046965	 3.2353861746	 0.098379
H	 2.221285013	-1.7123086726	 3.240174469	 0.092759
H	 2.9907376192	-0.2027616934	 3.8361396431	 0.102473
67.1267	94.1452	169.4167	210.434	243.5847	296.0687	352.4668	383.7686	411.3432	488.8792	563.8571	622.8719	734.1014	778.8088	794.9027	863.7515	903.8211	948.4466	964.7497	1001.6352	1007.694	1023.118	1026.0214	1056.5615	1087.6719	1136.3363	1142.5284	1150.3054	1167.7497	1179.2169	1244.4694	1271.1017	1295.1734	1296.5537	1360.6921	1387.1365	1415.1003	1454.0685	1467.5023	1498.963	1499.5606	1505.0344	1528.1945	3006.1172	3018.507	3038.2728	3063.1148	3068.2582	3096.5747	3103.5944	3130.3994	3149.384	3527.0761	3642.1186
CC1NC1C1(O)COC1	C[C@H]1N[C@H]1C1(O)COC1	
InChI=1S/C6H11NO2/c1-4-5(7-4)6(8)2-9-3-6/h4-5,7-8H,2-3H2,1H3	InChI=1S/C6H11NO2/c1-4-5(7-4)6(8)2-9-3-6/h4-5,7-8H,2-3H2,1H3/t4-,5-/m1/s1
