23
gdb 60405	3.29634	0.77362	0.68983	1.5998	83.12	-0.2403	0.0753	0.3157	1726.0749	0.202953	-425.404809	-425.394027	-425.393083	-425.441431	39.291	
C	-0.0295301111	 0.7835179183	-0.6444313653	-0.397932
C	 0.0907302607	-0.2025420946	 0.5134074654	 0.107111
O	 0.5359481772	 0.4223411632	 1.7124447825	-0.429861
C	-1.2164099497	-0.9508677773	 0.785741979	-0.071307
O	-1.5748791654	-1.6821369621	-0.3738966415	-0.250826
C	-2.7698612335	-2.3881076731	-0.2374845045	 0.137467
C	-2.9998014169	-3.5015689231	-1.208684981	-0.32859
C	-2.7549447775	-3.8190257625	 0.2563049214	-0.022299
C	-1.4630741548	-4.4859437361	 0.6732060223	-0.405515
H	 0.927923817	 1.2787139581	-0.8268684975	 0.120871
H	-0.3481574663	 0.2683054165	-1.5537659125	 0.138408
H	-0.7784306843	 1.5540679105	-0.4168597182	 0.099832
H	 0.8606870402	-0.9462491075	 0.2775888563	 0.098606
H	-0.0364006479	 1.1799049296	 1.8769608313	 0.277575
H	-1.0815615675	-1.6151190391	 1.650225862	 0.102835
H	-2.0115031675	-0.2268734906	 1.0414731853	 0.072676
H	-3.618626389	-1.7620548014	 0.0430241693	 0.079349
H	-3.9902343986	-3.6340162899	-1.6295838043	 0.110328
H	-2.1842271611	-3.707862729	-1.8941945076	 0.121384
H	-3.6304790631	-4.1206367222	 0.8260917876	 0.081635
H	-0.6143102008	-4.0543677111	 0.1359863066	 0.127985
H	-1.2777746156	-4.3642576923	 1.746194587	 0.115071
H	-1.4873750845	-5.5602665443	 0.4607157665	 0.115195
40.1053	56.4325	123.6826	135.8808	211.7998	228.3737	250.1072	272.5643	283.9459	322.5152	376.974	429.6917	448.0668	521.0428	586.1247	777.431	800.2441	849.7466	852.4998	915.9012	930.6045	965.1095	999.78	1038.0653	1074.1145	1079.4979	1105.8847	1124.6152	1140.0167	1143.4784	1168.6593	1188.8909	1192.4992	1242.6176	1247.845	1299.8707	1353.0333	1373.5643	1394.6857	1397.4868	1414.5857	1416.8082	1433.4743	1485.6611	1489.9408	1496.804	1498.8552	1504.2968	1517.2349	2943.155	3021.0771	3026.7746	3031.91	3053.4929	3082.5269	3088.0087	3100.2336	3113.3662	3132.4824	3133.9816	3138.1455	3220.2446	3799.3435
CC(O)COC1CC1C	C[C@@H](O)CO[C@H]1C[C@H]1C	
InChI=1S/C7H14O2/c1-5-3-7(5)9-4-6(2)8/h5-8H,3-4H2,1-2H3	InChI=1S/C7H14O2/c1-5-3-7(5)9-4-6(2)8/h5-8H,3-4H2,1-2H3/t5-,6-,7+/m1/s1
