13
gdb 124062	3.8914	1.63116	1.15771	1.6988	66.05	-0.2372	-0.0274	0.2098	948.9994	0.092131	-452.742043	-452.735697	-452.734753	-452.773805	23.652	
C	 0.0035330172	 1.4830121243	 0.1135401399	-0.167913
O	 1.2611115017	 2.0418019343	-0.3360261893	-0.235776
C	 2.277044527	 1.2617382942	-0.7633716786	 0.121312
N	 2.3493559013	-0.008350689	-0.8568516526	-0.359377
C	 1.193539551	-0.6686366393	-0.4510261167	 0.136797
C	 0.8501901628	-1.9840474321	-0.3884470862	-0.016085
O	-0.4040510647	-2.1035267406	 0.08287088	-0.168882
N	-0.9271556109	-0.8315653138	 0.3479679362	-0.220145
C	 0.0313001257	-0.0078676206	 0.0257365493	 0.301369
H	-0.1530527211	 1.829633506	 1.1404801229	 0.152937
H	-0.7827149192	 1.9153435826	-0.5143003147	 0.152929
H	 3.1171372569	 1.8876900861	-1.0507007032	 0.140253
H	 1.3612013924	-2.9018014023	-0.6305539668	 0.162582
34.7284	227.8871	281.0499	426.6118	485.0508	546.3439	605.4214	624.0184	719.4667	747.8785	837.1902	871.9059	894.4427	943.9523	952.1306	960.8527	1033.3149	1115.2001	1146.8875	1236.9641	1251.9942	1288.6763	1385.8984	1408.0177	1441.4283	1505.4102	1549.7544	1650.6621	1679.4827	3042.3726	3079.0223	3189.1679	3277.8676
C1OC=NC2=CON=C12	C1OC=Nc2conc12	
InChI=1S/C5H4N2O2/c1-5-4(2-9-7-5)6-3-8-1/h2-3H,1H2	InChI=1S/C5H4N2O2/c1-5-4(2-9-7-5)6-3-8-1/h2-3H,1H2
