18
gdb 120292	3.40508	1.03812	0.99281	2.6945	70.75	-0.2424	0.0136	0.256	1251.2116	0.148492	-439.067497	-439.059207	-439.058263	-439.10138	30.474	
O	-0.1199981116	 1.3708344689	 0.0540108588	-0.420256
C	-0.1722090316	-0.0206086516	 0.3284900014	-0.06387
C	-1.4164934677	-0.5795065872	-0.3558203856	-0.212044
C	-1.5435650729	-2.0766752382	-0.1850235933	-0.077628
C	-1.9043606265	-2.7471426899	 1.1130618148	 0.038905
O	-2.5806271003	-1.9470823618	 2.0783180778	-0.206669
C	-3.764338368	-1.6122767849	 1.4970468862	 0.092752
N	-4.0297788987	-2.0618795597	 0.337853231	-0.247705
C	-2.8686512522	-2.8225691025	-0.0638210622	-0.061492
H	 0.6409477383	 1.7395532533	 0.5115217156	 0.285777
H	 0.7269398875	-0.5354579401	-0.0493860965	 0.07932
H	-0.2323999488	-0.2162665937	 1.4101423466	 0.09665
H	-2.2941407585	-0.0607599266	 0.0387327835	 0.124435
H	-1.371243187	-0.3379455778	-1.4237274779	 0.112618
H	-0.8078172541	-2.6554222295	-0.7398606553	 0.098249
H	-1.3296633388	-3.5465886013	 1.5629864916	 0.110936
H	-4.3991238604	-0.9721598839	 2.0973080792	 0.146261
H	-3.0533495889	-3.6994872838	-0.6720839359	 0.10376
51.6588	87.7554	125.547	229.687	258.063	280.5749	378.6795	475.6565	574.9803	683.8165	730.4323	752.661	804.4821	811.4958	877.961	936.6765	944.1683	987.8594	1010.2595	1024.8575	1041.9293	1071.8397	1087.037	1107.0926	1128.3966	1143.1183	1204.5483	1236.6641	1248.2338	1289.9159	1308.7482	1319.6652	1338.0153	1365.6215	1425.5771	1461.9448	1495.9708	1527.5116	1667.2302	2959.7163	2998.5162	3050.6946	3100.1037	3131.9953	3183.0201	3195.1004	3232.1344	3832.6388
OCCC1C2OC=NC12	OCC[C@H]1[C@H]2OC=N[C@@H]12	
InChI=1S/C6H9NO2/c8-2-1-4-5-6(4)9-3-7-5/h3-6,8H,1-2H2	InChI=1S/C6H9NO2/c8-2-1-4-5-6(4)9-3-7-5/h3-6,8H,1-2H2/t4-,5+,6-/m1/s1
