18
gdb 22894	2.79781	1.33076	0.94224	2.5123	77.6	-0.2304	-0.0654	0.165	1234.0406	0.146917	-439.076895	-439.068091	-439.067147	-439.11055	32.836	
C	-0.4184237421	 1.4781153208	-0.0503954873	-0.404028
C	 0.0838784595	 0.0385715665	-0.0141567117	-0.08252
C	 0.9302113944	-0.4363777619	-1.2104864967	-0.23468
C	 1.704268689	-1.6629859286	-0.6781283565	-0.298263
C	 1.9648577836	-1.3146356165	 0.7690647957	 0.2962
N	 2.9267072701	-1.8578969728	 1.4150493764	-0.208706
O	 3.0420134212	-1.4293988211	 2.7218723808	-0.347775
C	 0.9703412617	-0.2635298226	 1.2033780942	 0.335853
O	 0.8794292033	 0.2592003736	 2.2864516082	-0.311532
H	 0.4120317353	 2.1760260827	-0.2011805906	 0.120668
H	-1.1373908464	 1.6261670296	-0.8614798533	 0.113201
H	-0.8996066342	 1.7346557011	 0.8968209399	 0.139419
H	-0.7783902945	-0.6410405806	 0.0867368176	 0.10472
H	 0.3284051992	-0.6687933984	-2.0922884977	 0.106557
H	 1.6355886031	 0.3547081419	-1.4927338909	 0.110378
H	 1.0726418439	-2.5595203178	-0.7369551867	 0.120698
H	 2.6237743776	-1.878294344	-1.2257716914	 0.125496
H	 3.8083054249	-1.9260150319	 3.0322996702	 0.314313
55.8567	145.7744	191.8215	197.1104	261.8497	289.9703	305.4788	390.4223	430.2754	499.6007	528.6072	552.8508	634.5304	691.1674	758.4397	840.3914	904.5724	950.3509	972.8151	988.1974	1042.3343	1063.0381	1113.9221	1130.5365	1178.2819	1210.0816	1235.5988	1304.4271	1306.8961	1319.3167	1357.3745	1407.7305	1421.9724	1479.3187	1493.1106	1497.7242	1501.9372	1695.9046	1821.8972	2978.4117	3021.3952	3037.7227	3041.0433	3099.2695	3106.8343	3110.4688	3124.5344	3797.729
CC1CCC(=NO)C1=O	C[C@H]1CCC(=NO)C1=O	
InChI=1S/C6H9NO2/c1-4-2-3-5(7-9)6(4)8/h4,9H,2-3H2,1H3	InChI=1S/C6H9NO2/c1-4-2-3-5(7-9)6(4)8/h4,9H,2-3H2,1H3/t4-/m0/s1
