20
gdb 81988	2.35463	1.42794	1.28495	4.0735	82.66	-0.274	0.0385	0.3125	1121.0316	0.170627	-366.006041	-365.997103	-365.996159	-366.039085	34.429	
C	-0.4431834658	 1.5181202489	 0.3963319867	-0.415039
C	-0.1196105422	 0.0434224302	 0.1981788693	-0.033572
C	 0.2911482107	-0.455990432	-1.1942379911	-0.043123
C	 1.6178467265	 0.1071584538	-1.6138120864	-0.309018
C	 1.5905020521	-1.0383058551	-0.642698165	-0.06388
C	 1.2465904216	-0.550994956	 0.7857523594	 0.117193
C	 2.2388385546	 0.3909031587	 1.4794070064	-0.447191
C	 0.9613372406	-1.6835681149	 1.6643325211	 0.247359
N	 0.739035042	-2.5780855692	 2.3631851408	-0.351255
H	 0.3410011382	 2.1749072048	 0.0094166271	 0.117481
H	-1.3709686773	 1.7685859434	-0.1290747429	 0.125142
H	-0.5885267866	 1.7539383248	 1.4556678846	 0.124941
H	-0.9460001253	-0.5598394269	 0.5809708047	 0.103542
H	-0.3918753491	-0.8976115557	-1.9091149553	 0.094281
H	 1.9361696402	-0.1644268916	-2.6150855407	 0.121871
H	 1.9331825974	 1.1017105032	-1.3129209871	 0.111007
H	 2.0587204257	-1.9911215034	-0.8543826191	 0.106081
H	 2.4896823263	 1.237709517	 0.8380201206	 0.122605
H	 1.822669229	 0.7789740518	 2.4135081451	 0.134911
H	 3.1645596715	-0.1410806817	 1.7173809817	 0.136666
124.6731	157.4914	199.2368	201.4162	208.8829	243.4708	297.3336	358.1726	441.8003	499.2514	540.3924	560.1752	627.5441	712.214	789.1474	807.7437	860.3124	912.8274	937.3074	961.5901	1000.3211	1012.3918	1042.997	1069.2859	1087.2979	1102.0242	1120.8837	1144.0114	1161.5964	1204.7021	1215.2177	1266.2338	1307.3153	1361.2082	1373.2194	1408.7443	1418.226	1484.9289	1486.1259	1488.6614	1501.2429	1507.3004	2347.1181	3036.7084	3049.0382	3077.9991	3100.2001	3114.1459	3117.2047	3124.9257	3135.1289	3185.4601	3194.7934	3208.9548
CC1C2CC2C1(C)C#N	C[C@H]1[C@H]2C[C@H]2[C@]1(C)C#N	
InChI=1S/C8H11N/c1-5-6-3-7(6)8(5,2)4-9/h5-7H,3H2,1-2H3	InChI=1S/C8H11N/c1-5-6-3-7(6)8(5,2)4-9/h5-7H,3H2,1-2H3/t5-,6+,7+,8+/m0/s1
