13
gdb 25331	3.84758	1.24756	0.94209	1.2272	71.33	-0.2532	-0.0993	0.1539	1137.6185	0.090111	-452.774604	-452.767342	-452.766398	-452.806864	26.32	
N	-0.3076891574	 1.3787891168	-0.2418556614	-0.513804
C	-0.1214034171	 0.117445467	-0.187355636	 0.329742
C	-1.2174253579	-0.8207451409	 0.0403648106	-0.154588
C	-0.9694027257	-2.1315395755	 0.0892766002	 0.040628
O	 0.2891605749	-2.6466329557	-0.0672081049	-0.200376
C	 1.2741476367	-1.7426814198	-0.2763536341	 0.308809
C	 2.6328952961	-2.3640656505	-0.441557294	 0.110362
O	 2.8383241672	-3.5461906593	-0.3944340808	-0.229339
N	 1.1600983405	-0.4744997138	-0.3428446275	-0.33518
H	 0.5882906119	 1.8421777844	-0.4081324204	 0.226098
H	-2.2218953296	-0.4401293988	 0.1672105091	 0.139327
H	-1.6964005931	-2.9157103858	 0.2510242197	 0.155999
H	 3.4167189536	-1.6020430981	-0.6112248505	 0.122321
92.1642	121.9469	193.3304	242.4302	388.8039	406.4706	492.6672	522.3347	591.2041	685.4098	748.9048	794.8682	849.7105	906.8054	923.7462	951.3252	972.7063	1030.6253	1034.3869	1133.1293	1244.557	1262.4916	1366.494	1384.925	1419.8785	1633.7758	1696.7342	1726.2129	1829.015	2970.3148	3227.4587	3246.3351	3463.0634
N=C1C=COC(C=O)=N1	[NH]C1=CCOC(=N1)C=O	
InChI=1S/C5H4N2O2/c6-4-1-2-9-5(3-8)7-4/h1-3,6H	InChI=1S/C5H5N2O2/c6-4-1-2-9-5(3-8)7-4/h1,3,6H,2H2
