21
gdb 92655	2.4209	1.63644	1.36409	2.3562	77.36	-0.2341	0.0773	0.3114	1061.4687	0.184827	-424.216695	-424.208682	-424.207737	-424.249491	31.423	
C	 0.4815034879	 1.4671635651	-0.3040027136	-0.410071
C	 0.0539022232	 0.0621052642	 0.0722516018	 0.156319
O	 0.5673922619	-0.9156943654	-0.8629504975	-0.307864
C	 1.2832354453	-1.6221638989	 0.1676911301	 0.123808
C	 2.7892624981	-1.589766268	-0.0550734574	-0.106331
O	 3.3696197448	-0.3600516429	 0.3425828996	-0.235312
C	 3.2184845502	-0.1718488201	 1.7391481417	-0.072911
C	 1.757394625	 0.1069803715	 2.1349277253	-0.245194
C	 0.7416426169	-0.6652752147	 1.2696222979	-0.097539
H	 1.571089392	 1.5374466617	-0.3565278112	 0.137428
H	 0.0726469284	 1.7164750172	-1.2883819527	 0.123676
H	 0.1032475739	 2.2035651948	 0.4138440359	 0.109128
H	-1.042557287	 0.0052378065	 0.1185946153	 0.070188
H	 0.9410035882	-2.6632237911	 0.2420943321	 0.069684
H	 3.2664521027	-2.4208350193	 0.493208363	 0.080619
H	 2.9946141721	-1.7118957673	-1.1227577821	 0.11967
H	 3.5917588034	-1.0652928179	 2.2677977111	 0.086323
H	 3.8626840789	 0.6681034104	 2.013429209	 0.108093
H	 1.626905487	-0.1438560754	 3.1928993578	 0.098004
H	 1.5587905074	 1.1794379676	 2.0495666778	 0.111875
H	 0.0022972095	-1.1557976383	 1.9042923061	 0.080408
61.6642	104.501	253.0201	283.6803	301.2451	383.2948	407.8587	446.3898	488.4221	541.0547	679.6546	748.7053	788.8572	818.9442	874.3636	885.7611	926.0673	936.1524	980.9799	1045.7773	1057.7669	1064.6499	1086.0736	1096.7444	1131.3923	1151.1417	1167.9868	1221.2756	1255.9636	1267.2971	1281.9604	1323.1292	1334.1741	1350.8629	1356.5307	1368.7147	1387.6038	1395.6548	1407.8025	1424.9289	1472.855	1482.7088	1491.5833	1504.1299	1509.9682	2952.6613	2961.7758	2998.1958	3009.8291	3033.8398	3045.7678	3076.2441	3088.1144	3090.3707	3095.2286	3102.5176	3125.9659
CC1OC2COCCC12	C[C@H]1O[C@H]2COCC[C@@H]12	
InChI=1S/C7H12O2/c1-5-6-2-3-8-4-7(6)9-5/h5-7H,2-4H2,1H3	InChI=1S/C7H12O2/c1-5-6-2-3-8-4-7(6)9-5/h5-7H,2-4H2,1H3/t5-,6+,7+/m1/s1
