16
gdb 69341	3.30106	1.26734	1.10104	4.6506	69.76	-0.2723	0.0063	0.2785	1119.4218	0.121792	-437.857815	-437.849168	-437.848224	-437.890854	32.295	
C	 0.0794487962	 1.5577720099	-0.0115822512	-0.504137
C	-0.0864275277	 0.081940858	 0.127144493	 0.421078
C	-1.3718305554	-0.7570239248	 0.0090868666	-0.351887
C	-0.7185362943	-1.8033400592	 0.997989969	 0.258044
O	-1.2880479115	-1.8141281388	 2.28482235	-0.46372
C	-0.5415668577	-3.1636504218	 0.4730669444	 0.239162
N	-0.4428566786	-4.2458155339	 0.0794274847	-0.334688
C	 0.5419054042	-0.9112241206	 1.0161694595	-0.075723
O	 0.9741216992	-0.7781125745	-0.3317268827	-0.270983
H	 1.0950214874	 1.8532663485	 0.2637315984	 0.143141
H	-0.0994096142	 1.8713826983	-1.0459058623	 0.139248
H	-0.6297556137	 2.0886837262	 0.6308578074	 0.133638
H	-2.241917274	-0.304104592	 0.4893165865	 0.1216
H	-1.6169199894	-1.1019505242	-0.9970875859	 0.12738
H	-2.1166306583	-2.3060932619	 2.2536309138	 0.297418
H	 1.2676506878	-0.8391532894	 1.8177658388	 0.120429
93.4158	139.7516	192.8416	199.7097	284.9925	313.7948	337.5353	353.6486	431.8685	459.9557	520.9445	593.1283	646.5173	678.9615	778.8825	873.0241	877.1057	928.5877	1001.7175	1014.3738	1020.8669	1052.7146	1090.9793	1144.8177	1191.2333	1228.2511	1234.0072	1268.5896	1365.6114	1405.1954	1445.8687	1472.6876	1485.3558	1497.4966	2352.5194	3039.1602	3073.7231	3103.5858	3126.8938	3141.5393	3195.9196	3802.9004
CC12CC(O)(C#N)C1O2	C[C@]12C[C@@](O)(C#N)[C@H]1O2	
InChI=1S/C6H7NO2/c1-5-2-6(8,3-7)4(5)9-5/h4,8H,2H2,1H3	InChI=1S/C6H7NO2/c1-5-2-6(8,3-7)4(5)9-5/h4,8H,2H2,1H3/t4-,5-,6+/m0/s1
