19
gdb 106646	2.66419	1.30502	1.04973	4.3891	76.39	-0.2642	0.0081	0.2723	1221.3887	0.157463	-423.042816	-423.033582	-423.032638	-423.076928	33.9	
C	-0.1539934983	 1.5119557863	 0.0883772704	-0.377957
C	 0.1291231895	 0.0080210249	-0.0339896114	-0.291243
C	 0.739100592	-0.5636117892	 1.2038651311	 0.450984
C	 0.0994808306	-1.0278221932	 2.4637073008	-0.372733
C	 1.0397969802	-1.9701781854	 1.6825563972	 0.012596
C	 0.6723035185	-3.3438243892	 1.2063282389	-0.493783
C	 2.4339267899	-1.4329949358	 1.8856051608	 0.43771
O	 3.5106320725	-1.8536422346	 2.1618493619	-0.331725
O	 2.1004933751	-0.129675511	 1.540416028	-0.307119
H	 0.7680878362	 2.0622261728	 0.2950903464	 0.14285
H	-0.5830605483	 1.9008011092	-0.8392987839	 0.117794
H	-0.8579379914	 1.7153136582	 0.9013071246	 0.122002
H	-0.7995327894	-0.537112964	-0.240268767	 0.109737
H	 0.8035394859	-0.1787399009	-0.8778470275	 0.118858
H	 0.4022235258	-0.6048992478	 3.4164424064	 0.132923
H	-0.9467941673	-1.3148670125	 2.3964919332	 0.124821
H	-0.3784399791	-3.3852895839	 0.9034333813	 0.124045
H	 1.2857085771	-3.6459154765	 0.3520483827	 0.137358
H	 0.8186737806	-4.0828278974	 2.000842366	 0.142883
78.1045	117.8201	141.4665	158.5363	210.2838	241.8231	269.218	358.2542	407.7805	473.8863	530.0536	633.9939	689.423	725.3322	771.2134	789.2792	841.3517	894.7638	950.9612	979.0554	997.91	1001.5689	1054.283	1082.7553	1104.1923	1108.5701	1175.5476	1204.0729	1303.7157	1336.9461	1364.5571	1409.2455	1414.605	1431.1499	1471.1943	1483.7107	1496.6385	1497.805	1504.0743	1515.8156	1935.3035	3033.4973	3037.2576	3043.6752	3071.7881	3102.5317	3109.4395	3115.1348	3116.9698	3123.2262	3208.3923
CCC12CC1(C)C(=O)O2	CC[C@@]12C[C@]1(C)C(=O)O2	
InChI=1S/C7H10O2/c1-3-7-4-6(7,2)5(8)9-7/h3-4H2,1-2H3	InChI=1S/C7H10O2/c1-3-7-4-6(7,2)5(8)9-7/h3-4H2,1-2H3/t6-,7-/m1/s1
