21
gdb 108217	2.20722	1.47738	1.16157	3.0024	78.92	-0.2356	0.0593	0.2948	1172.4965	0.181407	-424.192186	-424.182548	-424.181603	-424.226422	36.47	
C	-0.0343016158	 1.5511422274	 0.1118402091	-0.509043
C	 0.1149871915	 0.0597419543	 0.0354070627	 0.249514
C	 0.5700463086	-0.7318380787	-1.198170603	-0.289297
C	 1.3229893006	-1.7411112826	-0.2690976838	-0.291534
C	 0.8574283482	-0.9454281522	 0.9544032064	 0.269996
C	 1.6031130536	-0.7330535413	 2.2459803191	-0.176616
O	 1.3074969411	-1.7253068367	 3.2214561493	-0.426925
C	-0.6451422512	-0.8888006704	 0.9335571698	-0.001129
O	-1.1860973347	-0.3750054458	 2.1239697912	-0.439591
H	 0.8880833549	 2.0630910244	-0.184008546	 0.120714
H	-0.8309258262	 1.9011647888	-0.5577186066	 0.115209
H	-0.2852178011	 1.8703854356	 1.1274883773	 0.124661
H	-0.2301843587	-1.1421299254	-1.8248573292	 0.091906
H	 1.2517334858	-0.1649493029	-1.8373836035	 0.104171
H	 1.0024041623	-2.7873048301	-0.3138923027	 0.098654
H	 2.4063152889	-1.7039864515	-0.4082372816	 0.104576
H	 2.6823608302	-0.7955596665	 2.0680976367	 0.10113
H	 1.3934599145	 0.2733304122	 2.6349177795	 0.093551
H	 0.3689877412	-1.6276486339	 3.4195218074	 0.292414
H	-1.2179889971	-1.7157279104	 0.5027050781	 0.074312
H	-2.0018361565	 0.0926341859	 1.9171713898	 0.293328
55.6908	125.3383	191.8599	197.0653	251.0735	261.1095	283.323	302.8875	327.5777	398.9168	445.8345	485.6202	557.098	644.2465	712.4562	778.4261	783.7821	855.4938	917.723	945.0377	964.7238	999.0796	1033.7592	1063.4037	1081.1832	1121.0203	1149.9444	1162.5301	1206.3005	1229.4366	1236.1753	1242.0099	1273.0213	1278.9052	1342.0576	1364.4995	1390.4891	1419.0253	1429.2819	1451.2185	1481.153	1491.7201	1497.0674	1499.4276	1508.861	3000.9787	3017.4735	3033.5474	3043.5275	3046.526	3065.9622	3074.2613	3087.3131	3106.5443	3108.1703	3799.7079	3807.6611
CC12CCC1(CO)C2O	C[C@@]12CC[C@]1(CO)[C@H]2O	
InChI=1S/C7H12O2/c1-6-2-3-7(6,4-8)5(6)9/h5,8-9H,2-4H2,1H3	InChI=1S/C7H12O2/c1-6-2-3-7(6,4-8)5(6)9/h5,8-9H,2-4H2,1H3/t5-,6-,7-/m0/s1
