17
gdb 45602	2.54912	1.73446	1.41967	3.7254	66.58	-0.2551	-0.0046	0.2505	964.0543	0.138152	-458.990723	-458.983322	-458.982378	-459.023336	27.85	
O	 0.1232605642	 0.5135809251	 1.0552891286	-0.321487
C	 0.1340897779	 1.4725305861	 0.3549389968	 0.399911
O	-0.9415331819	 2.1051801548	-0.2272297638	-0.259062
C	-0.1077914816	 3.1918155159	-0.7667053569	 0.089604
C	-0.3225924816	 4.5190513903	-0.0611954901	-0.216432
C	-0.0146727517	 4.3854573677	 1.4378778458	-0.253586
C	 1.4020182169	 3.8189420354	 1.704425981	-0.077423
O	 2.0149231467	 3.1972902196	 0.5651889227	-0.251194
C	 1.1591504214	 2.4695156557	-0.2513744221	-0.056936
H	-0.2407034332	 3.2485275248	-1.8485581327	 0.096582
H	 0.346262293	 5.2504849947	-0.5312430824	 0.118737
H	-1.3473822545	 4.8715511167	-0.213743569	 0.119592
H	-0.1123128886	 5.3579171602	 1.9281670065	 0.110944
H	-0.767963683	 3.7336867143	 1.8895248407	 0.134827
H	 2.0965139502	 4.6170600695	 1.9780003755	 0.118263
H	 1.3732094992	 3.0992164417	 2.5329254938	 0.121421
H	 1.7709590066	 2.0019771575	-1.0263657441	 0.126237
49.1376	112.2027	217.234	271.1274	335.3633	458.8448	505.8196	539.7276	625.1621	704.7997	787.0776	806.0265	848.6765	862.4799	881.0319	924.6432	960.2581	997.5644	1050.7434	1069.2223	1113.2922	1123.5736	1177.7819	1199.3306	1221.8369	1252.4041	1292.1946	1320.2459	1356.9853	1361.3705	1383.0427	1388.9987	1424.0838	1472.1345	1498.8681	1516.4741	1934.0227	3020.4912	3039.1254	3061.4902	3083.77	3089.8304	3091.4348	3103.253	3108.6837
O=C1OC2CCCOC12	O=C1O[C@H]2CCCO[C@@H]12	
InChI=1S/C6H8O3/c7-6-5-4(9-6)2-1-3-8-5/h4-5H,1-3H2	InChI=1S/C6H8O3/c7-6-5-4(9-6)2-1-3-8-5/h4-5H,1-3H2/t4-,5+/m0/s1
