16
gdb 71513	3.08919	1.62014	1.44721	4.1049	70.26	-0.2468	0.0218	0.2686	939.7768	0.125755	-437.853058	-437.846201	-437.845257	-437.884082	27.787	
O	-0.0489311189	 1.3736022508	-0.0183609306	-0.464835
C	 0.0366145876	 0.0021806971	-0.0244958904	 0.37986
C	 0.5976068914	-0.9522066844	-1.1089811013	-0.328328
C	 0.0104428874	-1.878844508	-0.0204908488	-0.085329
C	 0.5828095	-0.9568353968	 1.086522512	 0.036277
O	-0.3022545659	-0.9396001473	 2.2098166072	-0.263992
C	-1.5455037936	-0.9088364899	 1.6064544186	 0.4274
N	-2.6651263473	-0.8929104614	 2.181752106	-0.561196
C	-1.2235699354	-0.9122220233	 0.1431459299	-0.160688
H	 0.8378095273	 1.7449168515	-0.0844264455	 0.289877
H	 0.0789860731	-0.9468690883	-2.0694855139	 0.113443
H	 1.6838372539	-0.9745192492	-1.2418352492	 0.095141
H	-0.0232938157	-2.9648438988	-0.0082352928	 0.100832
H	 1.6232972277	-0.9831955996	 1.4047017177	 0.094986
H	-2.5490370502	-0.8985520627	 3.1968479288	 0.224848
H	-2.0332590411	-0.8956438797	-0.5807747778	 0.101704
143.6332	217.2218	278.6644	341.5114	360.02	476.5377	497.7262	618.6625	638.6419	713.2499	744.0772	806.2832	835.0268	896.0594	898.8224	922.2454	931.8923	989.569	992.0256	1010.5103	1050.3294	1069.1973	1082.4309	1109.9507	1124.0411	1189.7225	1203.8823	1214.8743	1236.0935	1285.4363	1311.5689	1343.0143	1400.4165	1522.8205	1806.4695	3052.2282	3124.4495	3146.6037	3161.6604	3173.9242	3470.839	3807.86
OC12CC3C1OC(=N)C23	O[C@@]12C[C@H]3[C@@H]1O[C]([NH])[C@@H]23	
InChI=1S/C6H7NO2/c7-5-3-2-1-6(3,8)4(2)9-5/h2-4,7-8H,1H2	InChI=1S/C6H7NO2/c7-5-3-2-1-6(3,8)4(2)9-5/h2-4,7-8H,1H2/t2-,3+,4+,6-/m1/s1
