17
gdb 49178	3.81777	1.17684	0.98728	3.0883	77.32	-0.2538	-0.0653	0.1885	1174.2002	0.13688	-421.840065	-421.832551	-421.831607	-421.872206	28.852	
O	-0.1311114425	-0.0045316074	 0.0643096964	-0.273206
C	-0.020068621	 1.199487302	 0.1210212269	 0.095039
C	 1.2588951917	 1.9260109825	 0.0307972865	 0.197733
C	 1.2481324916	 3.2697961525	 0.0530325725	-0.125446
C	 2.4981229873	 4.0502743096	-0.0626728859	 0.000175
O	 3.5881614496	 3.6684361448	 0.8087248275	-0.248134
C	 3.6999864302	 3.3539161994	-0.573951032	 0.055683
C	 3.5824548791	 1.8962420014	-0.9595017604	-0.257754
C	 2.5436081879	 1.1504620454	-0.0988468815	-0.317942
H	-0.9115751022	 1.8554174617	 0.2412721289	 0.069964
H	 0.3076512446	 3.8099690879	 0.1328111407	 0.105145
H	 2.4055462783	 5.1251764836	-0.1977737514	 0.100562
H	 4.4380923334	 3.9460090466	-1.1161939069	 0.098294
H	 3.3024884048	 1.8529315384	-2.0201792649	 0.113646
H	 4.5576776432	 1.4057160315	-0.8708239013	 0.117066
H	 2.9605843112	 0.9886066763	 0.9012681527	 0.138581
H	 2.3279905926	 0.1617301538	-0.5112547079	 0.130592
93.8169	171.9067	214.9743	241.9625	343.0041	362.7752	471.0398	476.1319	611.2782	647.8229	711.279	773.4934	797.697	827.2844	872.2686	921.0681	958.555	983.1408	1031.6862	1048.4505	1057.0963	1078.0324	1140.1217	1175.5198	1219.4524	1259.494	1274.3089	1324.2397	1351.9142	1381.2254	1399.393	1428.6368	1444.6548	1475.8658	1484.7275	1693.191	1787.5279	2877.5861	3029.3989	3049.9893	3076.0026	3105.8627	3106.7801	3140.952	3161.9025
O=CC1=CC2OC2CC1	O=CC1=C[C@H]2O[C@H]2CC1	
InChI=1S/C7H8O2/c8-4-5-1-2-6-7(3-5)9-6/h3-4,6-7H,1-2H2	InChI=1S/C7H8O2/c8-4-5-1-2-6-7(3-5)9-6/h3-4,6-7H,1-2H2/t6-,7+/m0/s1
