19
gdb 112668	3.30986	1.06594	0.85716	3.4302	72.04	-0.2702	0.0042	0.2744	1361.7835	0.158948	-460.217184	-460.208187	-460.207242	-460.251234	33.248	
C	 0.0916653631	 1.5915737848	-0.0219741524	-0.390131
C	-0.0461619279	 0.0669214266	-0.0225815926	-0.186109
C	 0.6393518368	-0.6042390861	-1.2020523927	 0.125384
C	 0.540219031	-2.138751519	-1.2467046911	-0.273323
C	 0.5876385959	-2.4150120129	-2.7472706557	 0.012264
O	-0.0575631129	-3.5898667415	-3.1546797941	-0.43733
C	-0.098857196	-1.1722823328	-3.3124703973	 0.405238
O	-0.6717773755	-1.1077278802	-4.3653608868	-0.359239
O	 0.0021639033	-0.1543857274	-2.4372451845	-0.228267
H	 1.1434194838	 1.8941275036	 0.0278259574	 0.116301
H	-0.3390981716	 2.0200933271	-0.9305899823	 0.143177
H	-0.4222501432	 2.0287717445	 0.8386560628	 0.119054
H	 0.3873481554	-0.354601427	 0.8932796775	 0.106917
H	-1.1044506035	-0.2202720968	-0.0313883171	 0.11222
H	 1.6884285565	-0.283654706	-1.256544332	 0.093465
H	 1.3348318863	-2.6232046487	-0.6769374478	 0.119632
H	-0.4269318384	-2.4729901788	-0.856089402	 0.125194
H	 1.6351657771	-2.3934181592	-3.0983384545	 0.098577
H	-0.4818744801	-3.3807518003	-3.9993826549	 0.296974
75.5515	106.352	125.4276	198.0684	244.18	258.2729	350.4384	391.3668	423.5993	442.002	539.8084	582.4555	637.4574	715.2919	794.4836	815.965	880.6484	961.0928	986.0146	1013.2312	1027.4769	1081.1821	1117.6644	1132.5983	1168.321	1195.148	1213.5356	1266.826	1279.3054	1297.185	1338.3692	1367.5861	1393.324	1410.6978	1413.651	1425.7317	1473.0751	1494.2817	1498.2213	1508.3864	1869.4348	2943.7715	3016.8669	3028.8821	3040.1776	3059.6232	3068.8086	3107.7541	3125.2916	3126.2888	3738.8479
CCC1CC(O)C(=O)O1	CC[C@H]1C[C@@H](O)C(=O)O1	
InChI=1S/C6H10O3/c1-2-4-3-5(7)6(8)9-4/h4-5,7H,2-3H2,1H3	InChI=1S/C6H10O3/c1-2-4-3-5(7)6(8)9-4/h4-5,7H,2-3H2,1H3/t4-,5+/m0/s1
