18
gdb 106897	2.95273	1.25552	1.05852	4.5899	72.72	-0.2275	-0.0266	0.2009	1181.115	0.146445	-439.054361	-439.045449	-439.044505	-439.088204	33.049	
C	-0.262524515	 1.4905004959	-0.0708216174	-0.378087
C	 0.0940868246	 0.0018219382	 0.0622199133	-0.323146
C	 0.8669237236	-0.5056631747	-1.1179783202	 0.333954
N	 0.2524463385	-0.8105994469	-2.4185253336	-0.388128
C	 1.0056787593	-1.8971278384	-1.6824761105	-0.273383
C	 2.4489847922	-1.6298049116	-2.0366834418	 0.422576
O	 3.3618557167	-2.3010007956	-2.4160868626	-0.307198
C	 2.3221210891	-0.1485963834	-1.5050491635	-0.023886
O	 2.5261570513	 0.9365314606	-2.3571738104	-0.429049
H	 0.6373301804	 2.0960184597	-0.2127142251	 0.142514
H	-0.9155426015	 1.6634421618	-0.9320543229	 0.122926
H	-0.7800206836	 1.8477034469	 0.8238245365	 0.1188
H	 0.6906208005	-0.1560749135	 0.9692079559	 0.114797
H	-0.819262573	-0.5954093315	 0.1845355512	 0.100419
H	-0.7385609793	-1.0012330683	-2.2656542095	 0.239018
H	 0.5076890078	-2.8185413116	-1.4082476358	 0.118947
H	 2.9737757851	-0.0209364005	-0.6336038071	 0.112505
H	 1.8916510734	 0.8291073432	-3.0785489163	 0.296424
72.8296	95.0235	157.4903	192.8368	228.9927	262.8125	332.6926	386.1453	480.5656	507.786	545.5999	594.8877	698.5417	718.5704	788.4503	829.531	853.0247	932.5656	939.6092	980.0182	1020.0817	1030.2179	1085.5013	1100.2857	1122.0361	1142.3603	1169.6725	1247.0063	1262.534	1304.5903	1345.7597	1351.2484	1410.1703	1419.7032	1445.7565	1479.472	1497.0824	1507.6181	1899.4992	3017.6742	3042.3614	3054.6473	3066.2589	3112.671	3120.6899	3202.6616	3461.4342	3764.8805
CCC12NC1C(=O)C2O	CC[C@]12N[C@H]1C(=O)[C@H]2O	
InChI=1S/C6H9NO2/c1-2-6-4(7-6)3(8)5(6)9/h4-5,7,9H,2H2,1H3	InChI=1S/C6H9NO2/c1-2-6-4(7-6)3(8)5(6)9/h4-5,7,9H,2H2,1H3/t4-,5+,6-/m0/s1
