17
gdb 51006	3.60898	0.97834	0.86439	2.2571	68.57	-0.2527	-0.0311	0.2216	1321.7251	0.132843	-458.917281	-458.908353	-458.907408	-458.952125	31.512	
O	-0.3071482036	-0.0273627549	 0.3091322024	-0.242517
C	-0.2579560172	 1.1158845822	-0.066053267	 0.147167
C	 0.9144935416	 2.0415218253	 0.2007044097	-0.364404
C	 1.353084979	 2.8609183226	-1.0050379459	 0.353022
C	 1.1884664733	 2.371008561	-2.3796198388	-0.225159
O	 0.2952490658	 3.3539864742	-1.8366624298	-0.271701
C	 2.4321119723	 3.862361823	-0.7030144409	 0.008008
C	 3.8551031046	 3.5313788838	-0.8641551363	-0.174607
O	 3.1784200264	 4.3729726854	-1.7997846618	-0.222921
H	-1.0942553882	 1.5828290545	-0.6258902579	 0.108294
H	 0.5950053074	 2.7383012311	 0.9914519827	 0.13362
H	 1.7456829134	 1.4529306621	 0.6001249779	 0.133376
H	 1.8564465474	 2.7393080907	-3.1533622034	 0.142389
H	 0.7522191903	 1.3871002706	-2.549810498	 0.122564
H	 2.1569698808	 4.6115749477	 0.0417275886	 0.106506
H	 4.5983450402	 4.024908664	-0.2409141852	 0.12588
H	 4.1354651465	 2.5489980166	-1.2411360663	 0.120484
57.8807	65.139	90.4705	170.1661	235.2263	256.3534	344.2242	357.8117	447.4433	508.2048	580.201	694.3695	796.548	839.6654	881.8431	891.2043	932.1368	956.7036	1031.4235	1051.4614	1095.673	1099.2393	1134.4473	1155.4746	1167.1687	1177.6266	1192.2732	1223.1915	1286.0554	1324.3938	1407.8912	1417.3696	1433.4083	1454.4472	1518.4002	1528.7357	1830.6858	2927.5566	3002.3459	3089.2538	3090.9945	3095.2053	3096.9871	3179.9325	3194.0899
O=CCC1(CO1)C1CO1	O=CC[C@]1(CO1)[C@H]1CO1	
InChI=1S/C6H8O3/c7-2-1-6(4-9-6)5-3-8-5/h2,5H,1,3-4H2	InChI=1S/C6H8O3/c7-2-1-6(4-9-6)5-3-8-5/h2,5H,1,3-4H2/t5-,6+/m1/s1
