13
gdb 29023	2.73427	1.6047	1.01123	3.0983	68.8	-0.2624	-0.0814	0.1809	1061.8265	0.091272	-452.820433	-452.813346	-452.812402	-452.852297	25.892	
O	 0.1076104041	 1.3322768563	 0.0588401003	-0.395644
C	 0.0741991067	-0.004305613	 0.0409082696	 0.390488
N	 0.081821652	-0.6035241563	-1.1465198607	-0.349205
C	 0.0479256812	-1.9358856097	-1.1362124635	 0.087981
N	 0.0072927423	-2.7361320527	-0.0689058231	-0.267454
C	 0.0005255331	-2.1098551559	 1.1091674613	-0.0106
C	 0.0329009527	-0.7222101924	 1.2482264038	 0.023247
C	 0.0234477007	-0.0833255453	 2.5819423016	 0.089052
O	-0.0120357287	-0.7088096998	 3.6174624794	-0.268712
H	 0.1326173435	 1.6201266619	-0.8661212212	 0.310199
H	 0.0544200999	-2.4212886346	-2.1090538187	 0.134668
H	-0.0321340908	-2.7218149652	 2.0064922256	 0.153091
H	 0.0515604232	 1.0233858366	 2.5762422455	 0.102888
117.5031	157.3247	199.3353	271.5417	364.3794	406.1892	515.7469	565.3207	587.1362	603.2827	664.1663	818.1586	830.4985	915.1271	979.9635	1029.1832	1053.4319	1112.9554	1188.3919	1233.5439	1281.1373	1337.7478	1369.2561	1428.8009	1444.4168	1494.3374	1612.3527	1641.2016	1790.2234	2950.0041	3171.6086	3183.0379	3746.4775
OC1=NC=NC=C1C=O	Oc1ncncc1C=O	
InChI=1S/C5H4N2O2/c8-2-4-1-6-3-7-5(4)9/h1-3H,(H,6,7,9)	InChI=1S/C5H4N2O2/c8-2-4-1-6-3-7-5(4)9/h1-3H,(H,6,7,9)
