17
gdb 87018	2.13538	1.56737	1.0561	0.7307	74.57	-0.2674	0.007	0.2744	1156.6237	0.135158	-418.057354	-418.047938	-418.046994	-418.091541	34.245	
C	-0.1272084173	 1.5403832549	 0.1103830823	-0.422066
C	-0.0186852392	 0.0351717814	 0.0665079258	-0.015637
C	 1.2390395034	-0.6508589401	-0.3246062079	-0.305585
C	 0.7833957324	-0.7306691763	 1.1389898109	 0.044574
C	 1.5121460874	 0.0160598836	 2.1230032039	 0.228509
N	 2.0850541623	 0.5817400037	 2.9559387158	-0.370098
C	 0.1930793098	-2.0636538956	 1.5632002364	 0.397446
N	 0.3897115931	-2.4110906329	 2.8582942566	-0.5656
O	-0.4173763289	-2.7507982175	 0.7652674774	-0.373447
H	 0.8118007668	 2.0051079038	 0.4237293599	 0.138666
H	-0.3793619466	 1.9244251174	-0.883394261	 0.131643
H	-0.910051975	 1.8617461101	 0.8041819146	 0.134516
H	-0.9254657916	-0.5032641922	-0.1910429697	 0.13275
H	 1.1678349075	-1.5890089252	-0.8615072925	 0.155369
H	 2.1198126171	-0.0490436431	-0.5187708241	 0.13713
H	 0.9063411881	-1.8338513392	 3.5001193379	 0.283134
H	 0.0143711506	-3.2899047928	 3.1739591739	 0.268696
66.008	137.7686	151.9519	176.4577	192.6668	248.5642	270.4618	341.4124	402.7561	430.3376	513.4399	558.1386	576.6379	615.6536	661.7316	734.3993	825.816	886.5307	914.9152	929.3588	1030.824	1060.5069	1091.9686	1101.9558	1135.3763	1202.8123	1212.9181	1305.2578	1364.7053	1396.9413	1424.5069	1469.8685	1489.0251	1499.4717	1619.9814	1790.1134	2335.7136	3040.0507	3106.1761	3116.4079	3144.9587	3172.219	3245.3128	3600.8889	3734.3683
CC1CC1(C#N)C(N)=O	C[C@H]1C[C@]1(C#N)C(=O)N	
InChI=1S/C6H8N2O/c1-4-2-6(4,3-7)5(8)9/h4H,2H2,1H3,(H2,8,9)	InChI=1S/C6H8N2O/c1-4-2-6(4,3-7)5(8)9/h4H,2H2,1H3,(H2,8,9)/t4-,6+/m0/s1
