13
gdb 131909	4.33076	1.1786	0.93185	5.6775	68.08	-0.2728	-0.0974	0.1754	1168.818	0.088532	-489.827704	-489.820082	-489.819138	-489.860703	26.614	
C	 0.1679196202	 1.4229328424	 0.0591440645	-0.494548
C	-0.0290957381	-0.0428578014	-0.0310429866	 0.331198
C	-1.0979574247	-0.86363582	-0.2458264829	-0.176063
N	-0.6862502054	-2.182101307	-0.2270829611	-0.274695
C	 0.5805220324	-2.0917315879	-0.0070184537	 0.499929
O	 1.0672356941	-0.8461438745	 0.1249131615	-0.167121
N	 1.5295758268	-3.1821124506	 0.112705725	 0.346192
O	 1.0817742647	-4.3096725792	-0.0080098962	-0.332279
O	 2.69429125	-2.8713664304	 0.3241128699	-0.351262
H	 0.8686120248	 1.7757543464	-0.7047496624	 0.160533
H	-0.7875747641	 1.9310384354	-0.0850571325	 0.152742
H	 0.5702885299	 1.7088809092	 1.0365277995	 0.160514
H	-2.1288579608	-0.5938761023	-0.4113915048	 0.14486
59.7472	128.3896	162.6567	190.0447	294.2467	343.4636	429.9084	549.7264	648.7499	661.0439	679.9959	780.996	844.1472	863.4236	979.2709	995.6784	1033.7147	1065.0456	1154.3073	1217.4834	1272.9936	1349.6928	1396.3235	1422.7691	1470.0544	1483.2099	1558.0717	1625.0121	1651.1955	3042.2223	3099.6806	3139.1407	3268.4968
CC1=CN=C(O1)N(=O)=O	Cc1cnc(o1)N(=O)=O	
InChI=1S/C4H4N2O3/c1-3-2-5-4(9-3)6(7)8/h2H,1H3	InChI=1S/C4H4N2O3/c1-3-2-5-4(9-3)6(7)8/h2H,1H3
