16
gdb 16693	4.40844	1.66479	1.53819	1.6859	65.85	-0.2365	0.0052	0.2417	874.527	0.130622	-383.696308	-383.689413	-383.688469	-383.72712	27.144	
C	-0.0476130556	 1.4384917664	 0.0858480762	-0.516676
C	-0.0254066184	-0.047632156	 0.0021803385	 0.356787
C	-0.0319466269	-0.8985289473	-1.0350075698	-0.199512
C	 0.0543879224	-2.2481388452	-0.3423520075	-0.03492
O	-0.8758942348	-2.0891750778	 0.7934094396	-0.312347
C	 0.061388653	-1.0217026297	 1.1768310908	-0.09581
C	 1.2124498855	-1.9889511234	 0.6964911886	 0.199237
O	 1.5200748745	-3.039034461	 1.5493894735	-0.44468
H	 0.8337291187	 1.8223470605	 0.6149015679	 0.132321
H	-0.0682307216	 1.8931603488	-0.9083097198	 0.130582
H	-0.9245954689	 1.7934392084	 0.6414395914	 0.135636
H	-0.0496840769	-0.7054120835	-2.0978268034	 0.107838
H	-0.06037513	-3.1800135721	-0.8942246413	 0.083261
H	-0.0415288006	-0.67408831	 2.2048670919	 0.080103
H	 2.1445927756	-1.5508781988	 0.3342653231	 0.091205
H	 0.6694203241	-3.3961425594	 1.8417691403	 0.286976
159.481	161.7498	257.0664	297.9024	383.9264	497.4587	544.4386	573.3867	587.2092	682.6231	773.8979	804.7115	844.739	863.1568	915.5546	925.0953	932.3178	1009.1335	1038.7545	1060.4402	1123.4501	1131.0232	1184.1693	1197.688	1205.1828	1240.1343	1293.5974	1299.5362	1310.6767	1414.3875	1431.0705	1478.5096	1485.9443	1675.8322	3019.3668	3066.1368	3105.4789	3110.95	3127.1202	3138.3267	3237.0265	3747.9583
CC1=CC2OC1C2O	CC1=C[C@@H]2O[C@H]1[C@H]2O	
InChI=1S/C6H8O2/c1-3-2-4-5(7)6(3)8-4/h2,4-7H,1H3	InChI=1S/C6H8O2/c1-3-2-4-5(7)6(3)8-4/h2,4-7H,1H3/t4-,5-,6+/m0/s1
