21
gdb 112047	2.28983	1.56785	1.06951	0.9279	84.83	-0.2437	0.0172	0.2608	1203.1247	0.182447	-387.075301	-387.066456	-387.065512	-387.109408	33.599	
C	 0.0841633812	 1.4410563198	-0.0073703273	-0.232672
O	-0.2055644994	 0.0760300926	-0.1893613778	-0.242118
C	 0.6051316957	-0.5616461135	-1.178554036	 0.00153
C	 2.0134970473	-0.8432146694	-0.7017471547	-0.087957
C	 2.2478196075	-2.1467542924	-0.565759517	-0.063293
C	 1.0618751234	-2.994569941	-0.9445420574	-0.345746
C	 0.0568162307	-1.965246431	-1.4765107957	 0.343049
C	-1.4257247636	-2.213545887	-1.4552696556	-0.294479
C	-0.6877628583	-2.2120874026	-2.767915538	-0.315059
H	 1.0849436156	 1.6085737771	 0.4183071549	 0.103526
H	 0.0175733526	 2.0027392549	-0.9536933296	 0.098628
H	-0.6578029156	 1.8393144643	 0.6897342624	 0.12461
H	 0.5981346138	 0.0757937641	-2.0793243922	 0.060955
H	 2.7229665564	-0.0537208181	-0.4821202272	 0.093614
H	 3.1791877572	-2.5793734535	-0.2151078126	 0.095384
H	 1.3209906511	-3.7483908978	-1.6991136301	 0.105382
H	 0.6799215536	-3.5476685641	-0.0749433603	 0.111581
H	-1.7701561346	-3.1647052408	-1.0620656405	 0.105926
H	-2.0619412869	-1.3697980024	-1.2167346225	 0.123553
H	-0.8369783881	-1.3716934724	-3.4389365578	 0.108312
H	-0.5278764496	-3.1604085567	-3.271624065	 0.105274
39.7326	91.171	190.5004	193.9522	272.6307	289.9927	301.7085	390.3528	466.7732	509.2175	556.4507	728.1061	777.0957	785.1588	831.6063	876.2077	913.2793	939.5795	976.7894	980.6038	989.0612	1003.7273	1017.5821	1038.6703	1057.3779	1080.2505	1123.3223	1144.623	1182.4404	1189.171	1193.0868	1217.1614	1267.4168	1278.3108	1296.1262	1361.2376	1380.7767	1387.7051	1468.3047	1476.1246	1484.5745	1490.2499	1502.477	1510.5403	1689.1067	2945.6512	2967.9185	3007.3449	3015.6573	3036.8882	3106.7485	3118.1222	3134.5354	3178.6454	3199.7431	3206.5693	3226.8437
COC1C=CCC11CC1	CO[C@H]1C=CCC21CC2	
InChI=1S/C8H12O/c1-9-7-3-2-4-8(7)5-6-8/h2-3,7H,4-6H2,1H3	InChI=1S/C8H12O/c1-9-7-3-2-4-8(7)5-6-8/h2-3,7H,4-6H2,1H3/t7-/m0/s1
