21
gdb 89639	3.63194	1.14569	1.029	1.4216	83.5	-0.2222	0.083	0.3052	1264.5948	0.182002	-387.042294	-387.033662	-387.032718	-387.075573	33.697	
C	-0.0376418874	 1.5083156888	-0.053163131	-0.407486
C	 0.1933661812	 0.0119542051	-0.0150745712	 0.149513
O	 1.3692547312	-0.412985426	-0.7753433683	-0.346067
C	 1.8321355141	-1.1896891092	 0.3414748956	 0.498262
C	 2.1670907848	-0.2822856276	 1.4834080695	-0.350745
C	 0.7202875968	-0.6803001197	 1.2402272419	-0.213077
C	 2.4098447891	-2.5215521611	 0.0508758362	-0.111008
C	 1.8502192758	-3.3684078705	-1.0657059715	-0.269645
C	 3.2029469868	-2.7212055628	-1.2207344364	-0.265396
H	 0.8006561836	 2.0553999011	 0.3857604041	 0.121819
H	-0.1640142606	 1.8458306237	-1.0868941558	 0.126766
H	-0.9478360219	 1.761770287	 0.5010414967	 0.117137
H	-0.6844427919	-0.5179492315	-0.4077602601	 0.08058
H	 2.6159425072	-0.7647955816	 2.3466465757	 0.111738
H	 2.5186407649	 0.7276523393	 1.2911144811	 0.111258
H	 0.1184674795	-1.1946156797	 1.9776088424	 0.095118
H	 2.7678425852	-3.0423428829	 0.9338001904	 0.082483
H	 1.8000272347	-4.4412024658	-0.916395224	 0.106219
H	 1.03482058	-2.9468762742	-1.6419025182	 0.122597
H	 3.2726779366	-1.8764880502	-1.8960649612	 0.131472
H	 4.0891159502	-3.3442482721	-1.175896946	 0.108463
76.5429	125.1111	150.2203	214.4199	241.5062	297.102	385.0961	422.1077	496.7896	538.5479	637.8372	710.2837	788.5802	808.4247	830.3251	856.831	874.2893	906.0194	936.3782	954.4638	981.919	996.0028	1016.6625	1042.14	1062.3205	1071.2809	1084.9055	1088.9681	1112.1021	1125.2248	1149.1422	1201.4186	1203.649	1219.121	1277.5109	1316.8956	1324.8735	1385.7438	1409.2651	1441.6225	1458.3704	1483.9232	1488.7565	1493.9473	1515.2252	3015.0369	3039.0386	3105.5296	3112.7536	3124.4337	3137.5195	3140.8826	3154.238	3195.7829	3204.7382	3221.7559	3235.864
CC1OC2(CC12)C1CC1	C[C@H]1O[C@]2(C[C@@H]12)C1CC1	
InChI=1S/C8H12O/c1-5-7-4-8(7,9-5)6-2-3-6/h5-7H,2-4H2,1H3	InChI=1S/C8H12O/c1-5-7-4-8(7,9-5)6-2-3-6/h5-7H,2-4H2,1H3/t5-,7+,8-/m1/s1
