20
gdb 105115	3.39595	1.08256	0.93624	4.029	74.29	-0.2351	0.0571	0.2922	1284.6988	0.171075	-440.223009	-440.213836	-440.212892	-440.25749	33.425	
O	-0.0414617598	 1.490409949	 0.2356388553	-0.42303
C	 0.0093009436	 0.0788638439	 0.3716535975	-0.158024
C	-1.3469618921	-0.5047947536	 0.00924606	 0.300544
C	-2.5629370181	 0.2767209354	 0.3425901255	-0.281109
N	-2.1130956308	 0.145996356	-1.0599758161	-0.347279
C	-1.362599915	-2.0163683122	 0.0149611516	-0.103544
C	-2.6194928838	-2.7619269696	-0.485736371	-0.09605
O	-1.8388788203	-3.5385727254	-1.4195232407	-0.274538
C	-0.6602709298	-2.7583958789	-1.1496807823	-0.080128
H	 0.8430538814	 1.8428547954	 0.3640428105	 0.296803
H	 0.7750952455	-0.3506606717	-0.2947870752	 0.098096
H	 0.2678055581	-0.2151581258	 1.4015966621	 0.098151
H	-3.4920512884	-0.2372938293	 0.5750403246	 0.111736
H	-2.4288481037	 1.236112147	 0.8312539364	 0.128165
H	-1.6337505759	 1.0051883784	-1.3214707939	 0.240957
H	-1.0303708748	-2.3807165226	 0.9925853149	 0.076687
H	-3.1365798417	-3.3965636105	 0.2429483707	 0.095184
H	-3.3415710255	-2.1191863814	-1.0015863034	 0.121699
H	-0.3982271447	-2.1083684234	-1.9957879745	 0.10038
H	 0.200997566	-3.3874778807	-0.8949687019	 0.095301
67.1821	90.552	118.5645	167.3305	212.4531	257.7674	279.3705	348.4696	386.4649	452.138	578.0466	664.621	794.0826	861.3252	881.0461	892.6011	939.0329	961.5535	989.9706	1003.9283	1032.4601	1041.5801	1077.377	1096.0835	1118.1871	1128.022	1143.4022	1170.4676	1186.0502	1212.8345	1251.8742	1265.5079	1288.173	1302.2664	1315.8038	1368.2954	1396.3303	1412.9842	1457.7215	1500.6523	1506.655	1517.395	1529.562	2963.0104	2991.5499	3002.4582	3025.3042	3043.0053	3058.9842	3077.9671	3113.0361	3206.6686	3496.7781	3848.149
OCC1(CN1)C1COC1	OC[C@]1(CN1)C1COC1	
InChI=1S/C6H11NO2/c8-4-6(3-7-6)5-1-9-2-5/h5,7-8H,1-4H2	InChI=1S/C6H11NO2/c8-4-6(3-7-6)5-1-9-2-5/h5,7-8H,1-4H2/t6-/m1/s1
