12
gdb 27508	2.1407	2.03436	1.04309	4.4949	61.76	-0.2622	-0.0278	0.2345	1029.0223	0.07769	-506.017524	-506.00967	-506.008725	-506.050952	27.559	
N	 0.0393340413	 1.307634543	 0.094655072	-0.558948
C	-0.099522199	-0.0192820367	-0.034455249	 0.518262
N	-1.2140798613	-0.627157288	 0.1379340498	-0.354725
C	-1.2464286678	-1.9817656032	-0.0182754686	 0.437853
N	-2.2692362434	-2.6997716733	 0.1201959564	-0.513525
O	-0.0084279635	-2.6247504701	-0.3689942208	-0.259584
C	 1.1423258112	-1.9725145653	-0.5439688179	 0.484397
O	 2.1684187361	-2.4913226984	-0.8328136245	-0.33183
O	 1.0912559731	-0.6013349515	-0.3672362723	-0.245871
H	 0.9326053619	 1.7433763107	-0.0488142238	 0.289438
H	-0.7676947798	 1.8540937455	 0.3391188478	 0.294071
H	-2.0478441787	-3.6796679726	-0.0469624392	 0.240462
61.5111	90.9121	119.9945	183.0349	346.4694	386.6904	527.1315	532.7129	535.1262	600.0985	666.8319	702.9039	744.9718	766.354	857.3694	868.2633	950.1106	972.484	1094.527	1115.891	1212.5615	1335.2236	1423.0012	1609.5237	1755.5441	1787.4916	1931.0293	3524.1551	3631.7145	3768.3278
NC1=NC(=N)OC(=O)O1	N[C]1N=C([NH])OC(=O)O1	
InChI=1S/C3H3N3O3/c4-1-6-2(5)9-3(7)8-1/h(H3,4,5,6)	InChI=1S/C3H3N3O3/c4-1-6-2(5)9-3(7)8-1/h(H3,4,5,6)
