14
gdb 43237	4.32044	1.71992	1.54556	3.737	72.8	-0.2241	-0.0813	0.1428	830.1505	0.101737	-399.423194	-399.417402	-399.416458	-399.453128	24.268	
O	-0.0294223696	-0.070611214	 0.000568673	-0.323389
C	-0.0616160571	 1.1303443738	-0.0679760387	 0.382416
C	-1.2318473306	 2.0651848499	 0.1363638349	-0.308698
C	-0.6180673575	 3.2740974669	 0.0801796888	 0.213848
C	 0.6029449997	 3.3673889628	-0.8008574129	-0.138593
C	 1.1853710425	 4.3123942138	 0.2833187945	-0.044896
C	 1.2960035104	 3.1162366328	 1.1528461296	-0.040743
C	 1.162870131	 2.0970792036	-0.0473046616	-0.151571
N	 0.0177358397	 4.0291725637	 1.1504621877	-0.171577
H	-2.0035081062	 1.7720989493	 0.83755884	 0.12952
H	 0.599324148	 3.4492722256	-1.8825498546	 0.109668
H	 1.7213477863	 5.2507399348	 0.2578381685	 0.11769
H	 1.7788540027	 2.9768824615	 2.1110528234	 0.127019
H	 2.1267416207	 1.6722390255	-0.3359583925	 0.099306
149.634	368.776	410.9334	506.021	575.5917	582.1812	659.9599	714.8952	760.6482	767.9141	798.9268	826.658	846.7366	874.0843	902.7109	913.4402	945.6861	1012.5439	1031.047	1035.6517	1068.6148	1071.6104	1143.2448	1178.629	1192.2669	1210.5188	1239.2917	1278.252	1310.3223	1539.6693	1811.131	3104.3059	3179.6621	3209.8078	3210.7621	3225.1147
O=C1C=C2C3C4C(C13)N24	O=C1[CH][C]2[C@H]3[C@@H]4[C@H]([C@@H]13)N24	
InChI=1S/C7H5NO/c9-3-1-2-4-5(3)7-6(4)8(2)7/h1,4-7H	InChI=1S/C7H5NO/c9-3-1-2-4-5(3)7-6(4)8(2)7/h1,4-7H/t4-,5+,6-,7+,8?/m1/s1
