21
gdb 119639	4.33224	1.03746	0.99019	0.7157	82.52	-0.2309	0.0885	0.3194	1305.2828	0.182397	-387.035524	-387.027133	-387.026189	-387.068915	32.671	
C	-0.0862757539	 1.5130927003	 0.0115784158	-0.38526
C	-0.0304452629	-0.0045313578	-0.0103395653	-0.069108
O	-1.3620541636	-0.4994952294	 0.0301854361	-0.305882
C	-1.4550539846	-1.8751356868	 0.0153396466	 0.437555
C	-1.0713256198	-2.7208979566	-1.2406338558	-0.29419
C	-2.1455722332	-3.6916884194	-0.7536514369	-0.063197
C	-2.0895141099	-3.7122196949	 0.7838543021	-0.063247
C	-0.9818656036	-2.7535787183	 1.2171709085	-0.294181
C	-2.8436863358	-2.626799593	 0.0559373424	-0.15459
H	 0.9239109758	 1.9323263705	-0.0186347241	 0.114082
H	-0.6449118858	 1.8886307812	-0.8504161928	 0.126974
H	-0.5822940988	 1.8653705762	 0.9204266289	 0.126972
H	 0.4772553623	-0.3604962212	-0.9201536409	 0.0954
H	 0.5398099354	-0.3838118283	 0.8517322905	 0.09542
H	-1.3822724662	-2.2129725094	-2.1579523926	 0.100893
H	-0.0374510402	-3.0735660866	-1.3336722316	 0.084159
H	-2.6021066329	-4.5045449809	-1.3030331411	 0.085427
H	-2.5055937156	-4.5398988288	 1.3431439674	 0.085428
H	 0.0557218257	-3.107499741	 1.2254216406	 0.084161
H	-1.224898941	-2.2706018641	 2.1678705102	 0.100896
H	-3.8667818314	-2.2849667418	 0.0978174621	 0.092287
68.0086	79.9036	144.5284	247.4404	336.6737	346.8969	358.2047	452.7852	453.4228	672.1621	712.4743	752.5955	781.1586	797.729	822.0814	892.4451	901.8346	931.0772	955.1378	956.5733	984.2797	1009.0864	1023.0484	1042.5438	1076.7742	1093.8746	1104.8718	1137.5597	1156.7942	1161.7682	1169.4992	1187.7733	1236.0032	1237.4762	1294.7096	1301.446	1330.659	1362.6256	1401.7285	1431.9523	1483.7365	1486.2006	1500.3716	1504.2341	1527.2179	2977.4863	3006.0642	3024.8562	3032.5087	3044.8546	3096.2905	3098.8742	3119.3636	3122.1629	3194.8578	3202.2306	3233.9312
CCOC12CC3C(C1)C23	CCO[C@@]12C[C@H]3[C@@H](C1)[C@@H]23	
InChI=1S/C8H12O/c1-2-9-8-3-5-6(4-8)7(5)8/h5-7H,2-4H2,1H3	InChI=1S/C8H12O/c1-2-9-8-3-5-6(4-8)7(5)8/h5-7H,2-4H2,1H3/t5-,6+,7-,8-
