22
gdb 70440	2.60884	1.40829	1.2018	1.3197	85.95	-0.2202	0.0803	0.3005	1163.074	0.194399	-367.151002	-367.142261	-367.141317	-367.184384	34.156	
C	 0.43996521	 1.4659434933	-0.441116972	-0.500763
C	 0.2305077588	-0.0079576144	-0.2208286755	 0.334261
C	-0.9855080836	-0.5460863154	 0.4986183949	-0.32515
C	 0.3695177119	-0.8312616185	 1.0705496102	-0.096969
C	 0.996686673	-2.001280125	 0.3058577066	-0.25646
C	 0.9764791811	-1.128744942	-0.9887543123	 0.000072
N	 0.4978331484	-1.7535398869	-2.2136798936	-0.084459
C	-0.8342755418	-1.451830162	-2.7274781485	-0.223248
C	 0.3812575557	-0.9279962347	-3.4090708221	-0.225608
H	 1.5019564895	 1.700994942	-0.5791468461	 0.114856
H	-0.0966355211	 1.8277667289	-1.3268755899	 0.11823
H	 0.0801356057	 2.0484112006	 0.4143720439	 0.116123
H	-1.5696954806	 0.2106435683	 1.013862959	 0.10643
H	-1.5810243688	-1.359116079	 0.0904089474	 0.108424
H	 0.6687587488	-0.4826146411	 2.051592837	 0.083623
H	 2.0066596604	-2.2730112335	 0.6189312723	 0.100077
H	 0.3855550472	-2.9081392041	 0.263864391	 0.100058
H	 1.9958998498	-0.7847188333	-1.1961170233	 0.078894
H	-1.3808958423	-2.294672756	-3.1426105316	 0.111478
H	-1.4436581735	-0.7276116895	-2.1946368404	 0.119579
H	 0.5741522536	 0.1402311225	-3.3216268743	 0.108638
H	 0.7397175277	-1.3781452502	-4.3314439526	 0.111914
61.7623	134.8069	166.9889	212.828	259.6847	299.7287	336.1547	395.3102	430.8943	541.1379	616.7275	706.9412	763.788	796.6243	819.9805	872.0883	889.4722	908.4436	953.783	964.9418	987.5044	1016.676	1025.9819	1043.6755	1073.8379	1086.7848	1105.011	1112.8195	1121.5244	1133.0795	1164.7708	1173.9966	1188.9247	1231.7251	1243.8515	1264.0933	1293.6496	1329.6309	1370.4202	1398.442	1420.8534	1482.8965	1486.4365	1489.7931	1499.7429	1504.464	1519.7377	3015.3177	3039.8126	3053.9064	3072.7562	3086.5546	3090.8664	3105.4654	3108.9114	3112.7508	3171.5088	3180.8612	3193.0046	3197.1189
CC12CC1CC2N1CC1	C[C@]12C[C@H]1C[C@H]2N1CC1	
InChI=1S/C8H13N/c1-8-5-6(8)4-7(8)9-2-3-9/h6-7H,2-5H2,1H3	InChI=1S/C8H13N/c1-8-5-6(8)4-7(8)9-2-3-9/h6-7H,2-5H2,1H3/t6-,7-,8+/m1/s1
