18
gdb 14399	3.32322	2.53397	2.01582	1.6106	70.38	-0.2372	0.0885	0.3258	759.375	0.155787	-347.769256	-347.762998	-347.762054	-347.799132	26.183	
C	 0.022916423	 1.5522609927	-0.0272111569	-0.513456
C	 0.0042814946	 0.0477044824	-0.0798745168	 0.328701
C	 0.4028186878	-0.8139203866	-1.2932254136	-0.295761
C	-0.3189891832	-1.9595947272	-0.5376878183	-0.088338
C	 0.6216057912	-2.1700989872	 0.6671814969	-0.208365
C	 0.3418771551	-0.7704499485	 1.2425825964	 0.030036
O	-1.0814607689	-0.8739424874	 1.5555619443	-0.296848
C	-1.2486836235	-0.8384453765	 0.1354021659	 0.072029
H	 1.0491170081	 1.9373204245	-0.0015198814	 0.116852
H	-0.4719182597	 1.9872098703	-0.9023507469	 0.115397
H	-0.4936129662	 1.9124127251	 0.8687575583	 0.131027
H	-0.1383213487	-0.4850399848	-2.186353581	 0.096154
H	 1.4607602291	-0.9530533376	-1.537673621	 0.091034
H	-0.72158312	-2.8299647752	-1.0519024331	 0.067069
H	 0.3036043961	-2.9439634067	 1.3687731902	 0.105873
H	 1.658348922	-2.3446202988	 0.3662236831	 0.093896
H	 0.9431286198	-0.3706960783	 2.0589582235	 0.075036
H	-2.2609327666	-0.6542974603	-0.2232076897	 0.079663
227.3952	237.9456	271.0236	410.945	462.7098	516.8068	614.3221	684.8987	731.0031	786.2675	849.1012	855.5413	885.547	912.714	926.3324	935.8155	969.9408	985.2682	1016.2344	1024.9073	1063.7418	1091.1889	1129.6517	1163.5148	1192.563	1197.0958	1211.5977	1233.0779	1245.3684	1259.2958	1302.0294	1327.9314	1362.5825	1409.7191	1480.3323	1492.8271	1494.1158	1505.757	3024.541	3040.9721	3063.0317	3086.3265	3093.5525	3099.187	3120.2852	3122.6393	3126.0015	3139.1431
CC12CC3CC1OC23	C[C@@]12C[C@H]3C[C@@H]1O[C@@H]23	
InChI=1S/C7H10O/c1-7-3-4-2-5(7)8-6(4)7/h4-6H,2-3H2,1H3	InChI=1S/C7H10O/c1-7-3-4-2-5(7)8-6(4)7/h4-6H,2-3H2,1H3/t4-,5+,6-,7-/m1/s1
