18
gdb 8857	3.81909	1.20274	1.02484	2.6991	75.09	-0.2597	-0.0555	0.2043	1189.7545	0.150318	-347.792585	-347.782936	-347.781992	-347.82748	33.949	
C	-0.0268455221	 1.5750767125	 0.0956146591	-0.403004
C	 0.0632136235	 0.04642929	 0.0740681825	-0.168291
C	 0.670438986	-0.521906417	-1.2170361809	-0.078148
C	 2.1557275228	-0.1521316782	-1.4127279694	-0.403569
C	 0.5161858274	-2.0401469973	-1.2673165273	 0.219866
O	 0.1652008073	-2.7115601398	-0.3213351551	-0.294824
C	 0.8204440252	-2.6618636168	-2.5508497347	 0.263234
C	 1.0537562176	-3.1683583062	-3.617970796	-0.400595
H	 0.9591655625	 2.0489508869	 0.0609168447	 0.117989
H	-0.60694161	 1.9525238964	-0.7544115058	 0.113317
H	-0.5205612568	 1.9179666802	 1.0099098556	 0.11816
H	 0.6495191018	-0.309792134	 0.9286229791	 0.110113
H	-0.9361675502	-0.381345467	 0.2052660321	 0.110113
H	 0.1170215695	-0.1308794689	-2.08402498	 0.09604
H	 2.5595354519	-0.6007504026	-2.3241673121	 0.131292
H	 2.274536854	 0.9311199646	-1.4909458469	 0.12748
H	 2.7546156252	-0.5007405566	-0.564609485	 0.128244
H	 1.2571501744	-3.6321961961	-4.5526361699	 0.212583
44.844	67.7441	129.2485	189.2479	212.6933	224.8849	254.3767	300.1595	356.2671	376.1595	482.8513	604.2219	643.2775	699.9471	729.6304	761.8746	799.102	854.3124	971.4438	984.519	1025.5688	1080.869	1101.6499	1147.7273	1199.5416	1287.0957	1311.7682	1334.7074	1386.7804	1403.345	1413.7944	1479.369	1495.215	1500.9358	1505.6944	1510.9482	1765.1209	2207.6641	2999.5464	3032.1197	3042.0871	3045.457	3074.9712	3100.5524	3107.1496	3114.8393	3125.9774	3494.4973
CCC(C)C(=O)C#C	CC[C@@H](C)C(=O)C#C	
InChI=1S/C7H10O/c1-4-6(3)7(8)5-2/h2,6H,4H2,1,3H3	InChI=1S/C7H10O/c1-4-6(3)7(8)5-2/h2,6H,4H2,1,3H3/t6-/m1/s1
