14
gdb 130115	2.41728	1.87859	1.06077	4.4991	67.91	-0.2286	-0.0225	0.2061	1034.7394	0.102484	-470.028581	-470.020923	-470.019979	-470.060414	29.43	
N	 0.1514267853	 1.3644619466	-0.174769182	-0.593599
C	 0.0809572033	-0.0359869292	-0.0628777311	 0.27045
N	-1.1165590261	-0.608677332	 0.0264436298	-0.282125
N	-1.207407648	-1.9371600074	 0.0785454942	-0.218645
C	-0.1064504486	-2.6771302479	 0.0592801144	-0.054667
C	 1.1831333242	-2.1412577213	-0.057544736	 0.304477
O	 2.264640451	-2.9462791237	-0.1197282382	-0.432334
C	 1.2739635089	-0.7640075659	-0.1328565136	 0.20581
O	 2.4955988915	-0.1758824132	-0.2863030627	-0.465057
H	 0.6741216013	 1.7910300611	 0.5839566416	 0.254172
H	-0.7877230502	 1.7487536697	-0.1908777558	 0.261874
H	-0.2397231939	-3.7525210214	 0.1194070401	 0.127036
H	 3.0443128511	-2.390687186	-0.2521232485	 0.314225
H	 2.3496890701	 0.6938512706	-0.6854961521	 0.308385
148.2234	196.7699	254.7677	278.3793	299.7062	312.8853	470.794	497.1519	534.3115	538.2908	593.9544	600.3209	615.9457	711.7347	782.0534	841.9745	892.9959	921.973	1045.6471	1099.772	1158.3151	1217.6791	1280.4092	1296.6736	1319.3434	1389.8113	1444.899	1528.6083	1603.8138	1639.5971	1667.1279	3186.8777	3501.9835	3593.0931	3742.9975	3776.4257
NC1=NN=CC(O)=C1O	Nc1nncc(O)c1O	
InChI=1S/C4H5N3O2/c5-4-3(9)2(8)1-6-7-4/h1H,(H,6,9)(H3,5,7,8)	InChI=1S/C4H5N3O2/c5-4-3(9)2(8)1-6-7-4/h1H,(H,6,9)(H3,5,7,8)
