16
gdb 34407	2.67692	1.60611	1.3196	4.2765	68.39	-0.2785	0.0095	0.288	992.1268	0.125359	-437.882772	-437.875303	-437.874359	-437.915119	28.089	
N	 0.0573134211	-1.2109072681	-0.4826326559	-0.335836
C	 0.0359134316	-0.090705146	-0.1999127898	 0.245873
C	 0.0382200535	 1.337223745	 0.0898167983	 0.250038
C	-0.4860073274	 2.2901251623	-1.0329478016	-0.280346
C	 0.8209606428	 3.1290536711	-0.9376800102	-0.263088
C	 1.4056480307	 2.1199131873	 0.0934762282	 0.049293
O	 1.556446381	 2.5550517805	 1.4223539359	-0.240149
C	 0.2588320738	 2.6205354496	 1.9633665381	 0.001562
O	-0.4907524051	 1.5637834465	 1.3822840416	-0.287931
H	-0.629255649	 1.7859746759	-1.9897620965	 0.133483
H	-1.4130924923	 2.7941412451	-0.7544336517	 0.127629
H	 1.3940314481	 3.2010503249	-1.863289635	 0.12187
H	 0.6975374011	 4.1336088598	-0.5280212537	 0.121796
H	 2.3070951411	 1.5852329953	-0.2034156855	 0.118438
H	 0.311029236	 2.466251218	 3.0433767898	 0.13889
H	-0.2161949873	 3.5895671728	 1.7373303582	 0.098478
68.6456	155.2159	181.4963	229.8323	364.5029	406.4614	513.4786	541.4708	569.6214	657.4666	729.3974	743.0199	816.8102	880.1361	929.7982	951.6401	981.8909	1026.2884	1044.0693	1087.0914	1107.4159	1149.0115	1177.1481	1186.6153	1222.3859	1234.1169	1238.7696	1265.4666	1296.6557	1351.1991	1425.6452	1465.2033	1482.7056	1542.7673	2360.2799	2966.3714	3079.4927	3083.9228	3109.5004	3123.2453	3132.7188	3147.1802
N#CC12CCC1OCO2	N#C[C@]12CC[C@H]1OCO2	
InChI=1S/C6H7NO2/c7-3-6-2-1-5(6)8-4-9-6/h5H,1-2,4H2	InChI=1S/C6H7NO2/c7-3-6-2-1-5(6)8-4-9-6/h5H,1-2,4H2/t5-,6-/m1/s1
