14
gdb 129295	2.61515	1.84517	1.12636	2.5404	76.15	-0.2639	-0.0947	0.1692	1007.4682	0.101851	-432.82341	-432.816035	-432.815091	-432.855957	27.421	
N	 0.1737448868	 0.9204671055	-0.8830055314	-0.474814
C	-0.0206303175	 0.0821436831	 0.041102917	 0.322073
O	 0.8542789935	-0.0171601716	 1.0994654493	-0.262962
N	 1.4938242275	-1.2631973716	 1.4010945309	-0.127244
C	 0.726004667	-2.2168305931	 1.7772647159	 0.048534
C	-0.7188205752	-2.3093101587	 1.8873595905	-0.104064
C	-1.6148751474	-1.6219112537	 1.1622904941	-0.072841
C	-1.3351568286	-0.6602908122	 0.0950397248	 0.228838
N	-2.2640690712	-0.4233749923	-0.7498256614	-0.461081
H	 1.0794707882	 1.3773677862	-0.7704415624	 0.246963
H	 1.2997666059	-3.0966161139	 2.0690768583	 0.143501
H	-1.0785709059	-3.069832965	 2.5740867799	 0.12331
H	-2.6720680734	-1.8383321392	 1.278653436	 0.136429
H	-1.9201079597	 0.2586050165	-1.4350183416	 0.253358
49.8381	106.3027	257.8754	332.0693	368.6896	411.0651	435.441	513.08	585.9291	681.8542	690.9216	751.9129	842.5231	864.0191	889.883	927.2715	959.3488	977.2433	1006.513	1029.5867	1052.5837	1105.0204	1233.0412	1281.1696	1351.9031	1394.9088	1445.5251	1656.3488	1662.8434	1695.8903	1724.4907	3139.0866	3173.5573	3195.9379	3419.2063	3494.6535
N=C1ON=CC=CC1=N	[NH]C1=C(C=CC=NO1)[NH]	
InChI=1S/C5H5N3O/c6-4-2-1-3-8-9-5(4)7/h1-3,6-7H	InChI=1S/C5H5N3O/c6-4-2-1-3-8-9-5(4)7/h1-3,6-7H
