19
gdb 65195	2.89762	1.08022	0.97571	2.6924	78.14	-0.2433	-0.0201	0.2232	1284.161	0.157353	-423.003278	-422.994233	-422.993289	-423.037587	34.108	
O	 0.2292344439	 1.3618820124	 0.3543455673	-0.466478
C	 0.1209415213	-0.0165377598	 0.1024279135	 0.391635
C	 1.2116694438	-0.6634388142	-0.7130711833	-0.326262
C	 1.1614070446	-0.8610582791	 0.7881412141	-0.292293
C	-1.2789499641	-0.5570986959	 0.0221490552	-0.049798
C	-2.4186076185	 0.072576355	 0.7428550515	-0.316408
C	-2.4243873952	 0.0824483128	-0.7828724788	-0.118161
C	-2.2944817415	 1.3687451688	-1.5018784335	 0.136391
O	-2.7113666542	 1.5630029478	-2.6193033508	-0.271469
H	 0.2933811651	 1.8186837907	-0.4911314127	 0.288262
H	 0.9506854388	-1.4950241258	-1.3586856187	 0.120256
H	 1.9880764735	-0.0139385127	-1.1030714637	 0.117807
H	 1.888802047	-0.3258201339	 1.386565657	 0.127731
H	 0.8719871471	-1.8315353427	 1.175709685	 0.116692
H	-1.2969217546	-1.6416213608	-0.0423282208	 0.097951
H	-3.1501583453	-0.5503315606	 1.2442111757	 0.124136
H	-2.2180410404	 1.0254179525	 1.2213725335	 0.14132
H	-3.0760795212	-0.6188145085	-1.2937054025	 0.106599
H	-1.79964149	 2.182746134	-0.9280078081	 0.072088
46.0165	76.3438	187.3568	216.3132	272.9671	304.3446	332.0224	350.1166	391.7925	477.2769	496.9287	582.9176	701.9694	771.0414	823.9842	851.3014	867.4994	909.6577	925.4754	944.2485	987.7559	1002.2672	1053.7342	1056.8081	1078.599	1080.9296	1088.64	1136.9275	1188.9612	1192.4129	1207.023	1266.6128	1287.2848	1341.6414	1359.8707	1422.6247	1440.808	1456.0096	1480.7717	1498.1931	1807.5475	2889.0624	3131.5364	3138.5271	3140.0801	3146.6747	3171.7072	3216.8805	3229.343	3235.7057	3805.3035
OC1(CC1)C1CC1C=O	OC1(CC1)[C@H]1C[C@H]1C=O	
InChI=1S/C7H10O2/c8-4-5-3-6(5)7(9)1-2-7/h4-6,9H,1-3H2	InChI=1S/C7H10O2/c8-4-5-3-6(5)7(9)1-2-7/h4-6,9H,1-3H2/t5-,6-/m0/s1
