19
gdb 61282	4.38153	0.70419	0.67809	6.7695	76.53	-0.2591	0.0168	0.2759	1653.3799	0.157598	-419.26854	-419.257978	-419.257034	-419.305439	36.726	
C	 0.1465999524	 1.6272547871	-0.0545583401	-0.409268
C	 0.0033975027	 0.1023674	 0.0003260493	 0.046568
C	 0.6126242777	-0.575503838	-1.2501147952	-0.35837
C	-0.0180120153	-0.1511502702	-2.4986004918	 0.266449
N	-0.5243220027	 0.1899341546	-3.4798901326	-0.311994
C	 0.6482281975	-0.4877480736	 1.2620403131	-0.33274
C	-0.1224978332	-0.1238486449	 2.5340155104	 0.413067
N	 0.6098112969	-0.1831645762	 3.6827135826	-0.52237
O	-1.3014630734	 0.1727459934	 2.527022045	-0.355525
H	 1.2026518329	 1.9247875863	-0.0615258138	 0.106824
H	-0.3222632146	 2.0330065313	-0.9552181314	 0.143356
H	-0.3359910305	 2.084214584	 0.8122317431	 0.143441
H	-1.0624819712	-0.1423588495	 0.0401551953	 0.124694
H	 1.6857830065	-0.3549085632	-1.3165067505	 0.144975
H	 0.5192583926	-1.6652725259	-1.1749845959	 0.146629
H	 0.6605552046	-1.5848875447	 1.2032212545	 0.126052
H	 1.6955822325	-0.1702287049	 1.3478297822	 0.104407
H	 1.5769472887	-0.4541164753	 3.6949258156	 0.259499
H	 0.139111136	-0.0212790802	 4.5579809702	 0.264307
34.2624	58.0459	97.9517	118.1265	140.8777	204.6588	250.6581	283.5469	343.4771	392.052	400.9997	442.3563	512.6997	563.1649	626.5236	667.1964	837.3246	847.8457	892.4172	912.1361	952.5008	978.43	1070.4656	1112.4157	1118.1255	1141.9808	1210.7433	1265.9707	1270.8776	1312.2187	1357.2615	1377.2226	1405.1892	1416.4883	1456.3306	1468.7248	1497.0464	1510.0169	1618.1173	1796.6375	2361.0198	3013.2873	3029.0906	3030.764	3050.4777	3065.4513	3080.9351	3106.2373	3132.0716	3603.767	3741.169
CC(CC#N)CC(N)=O	C[C@@H](CC#N)CC(=O)N	
InChI=1S/C6H10N2O/c1-5(2-3-7)4-6(8)9/h5H,2,4H2,1H3,(H2,8,9)	InChI=1S/C6H10N2O/c1-5(2-3-7)4-6(8)9/h5H,2,4H2,1H3,(H2,8,9)/t5-/m0/s1
