21
gdb 120269	3.08396	1.06768	0.9359	2.5848	79.16	-0.2406	0.0809	0.3215	1358.7941	0.180426	-424.180485	-424.170961	-424.170017	-424.215376	34.827	
C	-0.10350861	 1.5171877701	-0.0613015902	-0.38461
C	 0.132070807	 0.0189170718	 0.0194071461	-0.041266
O	 0.4879696585	-0.4468723869	-1.2723484522	-0.250147
C	 0.7112254828	-1.8227711191	-1.3476511352	 0.124478
C	 0.7892302414	-2.3875761232	-2.7638353811	-0.018976
O	 1.9742401043	-1.8862046153	-3.3902396356	-0.23732
C	 2.1067141772	-2.9914419204	-2.4935811661	 0.022993
C	 2.1689751716	-2.4086782787	-1.0716151579	-0.074502
C	 3.2963229846	-1.4254653558	-0.7914193673	-0.400866
H	 0.8042758372	 2.030182648	-0.3906677692	 0.130456
H	-0.9008730528	 1.7409105333	-0.775553028	 0.127938
H	-0.3910213085	 1.9114482513	 0.9180205441	 0.113425
H	 0.9279231887	-0.2069521128	 0.7457815599	 0.092241
H	-0.7779055318	-0.4996337189	 0.365536428	 0.086542
H	-0.0335224998	-2.3759969119	-0.755233834	 0.067402
H	-0.019585407	-2.6988868242	-3.4149670982	 0.101516
H	 2.5440828275	-3.9029466473	-2.884386693	 0.10147
H	 2.1237377054	-3.1946125529	-0.3111406284	 0.071032
H	 3.3107010153	-0.6406634263	-1.5499485839	 0.145304
H	 3.1791855114	-0.9543515293	 0.189518096	 0.1122
H	 4.266060427	-1.9352428317	-0.8000591037	 0.11069
59.5391	93.2503	104.5386	193.0118	208.9122	214.5484	249.5903	295.514	371.584	440.5983	595.369	616.3219	725.2596	792.5686	821.5005	849.235	861.3115	891.9999	912.2618	932.955	1007.4915	1027.7564	1047.8495	1068.3982	1081.4042	1135.6881	1150.6099	1174.8892	1187.4762	1205.5224	1242.1589	1249.1257	1292.9165	1296.9441	1351.2813	1367.6888	1384.6939	1404.0691	1408.3995	1443.6056	1482.7017	1489.3871	1499.0424	1500.8243	1528.3034	2961.795	2986.2397	2998.1087	3037.4052	3045.7029	3060.3941	3096.7922	3119.7531	3123.8434	3138.6559	3178.1592	3193.0272
CCOC1C2OC2C1C	CCO[C@H]1[C@H]2O[C@H]2[C@H]1C	
InChI=1S/C7H12O2/c1-3-8-5-4(2)6-7(5)9-6/h4-7H,3H2,1-2H3	InChI=1S/C7H12O2/c1-3-8-5-4(2)6-7(5)9-6/h4-7H,3H2,1-2H3/t4-,5+,6-,7+/m0/s1
