19
gdb 41755	2.22315	2.09407	1.79843	1.597	79.18	-0.2293	0.0012	0.2305	908.9203	0.162797	-385.894187	-385.887248	-385.886304	-385.925198	28.715	
C	 0.0973739212	 1.5839277884	-0.1001219975	-0.056982
O	 1.3769735398	 2.0972563217	 0.2493507306	-0.268356
C	 2.3804456846	 1.1076975938	 0.5182737915	 0.014026
C	 1.8561916312	 0.1028324362	 1.5247336601	-0.064218
C	 0.6544055803	-0.4096408459	 1.2723801502	-0.076772
C	-0.0179873019	 0.0448291795	-0.0010860923	-0.103679
C	 0.5934701409	-0.6482052867	-1.2440705071	-0.253558
C	 2.0479006602	-0.3539028227	-1.5065567085	-0.038101
C	 2.8400989407	 0.4110288663	-0.7562542755	-0.067172
H	-0.6345168834	 2.0415215958	 0.5781489497	 0.098215
H	-0.1481096144	 1.9057523042	-1.1227557054	 0.091095
H	 3.2126403368	 1.6776387186	 0.9380706013	 0.07781
H	 2.4484134212	-0.1496872207	 2.3978925058	 0.096662
H	 0.1632221585	-1.1197568485	 1.9299749156	 0.090459
H	-1.0849629975	-0.2014610243	 0.0184965058	 0.07195
H	 0.4580526776	-1.7376593726	-1.1657405796	 0.105294
H	 0.0100081268	-0.3474899594	-2.1267210569	 0.107651
H	 2.4609951249	-0.8227383433	-2.3980105873	 0.087406
H	 3.8754849623	 0.5601788598	-1.0500114005	 0.088268
109.6573	263.0741	295.2243	340.9012	368.3895	458.7994	535.6048	581.2779	613.2709	699.5192	729.1005	771.265	809.9221	868.4793	882.4457	927.4299	957.2645	970.6582	978.0262	994.7529	998.654	1023.9786	1045.2652	1095.3313	1110.2995	1175.5915	1215.4931	1223.4806	1248.8259	1303.804	1329.9812	1347.6027	1360.3494	1372.2392	1392.0729	1414.3087	1418.689	1465.9542	1518.4779	1702.4522	1718.6683	2990.6965	2991.9159	3015.1578	3030.4659	3050.8507	3079.4349	3135.5851	3167.3639	3168.3175	3193.1924
C1OC2C=CC1CC=C2	C1O[C@H]2C=C[C@@H]1CC=C2	
InChI=1S/C8H10O/c1-2-7-4-5-8(3-1)9-6-7/h1,3-5,7-8H,2,6H2	InChI=1S/C8H10O/c1-2-7-4-5-8(3-1)9-6-7/h1,3-5,7-8H,2,6H2/t7-,8+/m0/s1
