19
gdb 61277	2.19253	1.06599	0.81993	3.1549	78.05	-0.2442	0.0476	0.2918	1444.9588	0.157125	-419.220376	-419.209833	-419.208889	-419.256898	38.097	
C	-0.0186565703	 1.5606251294	 0.0331422523	-0.400013
C	-0.0195570138	 0.0270579149	 0.0094035272	 0.062671
C	 0.745205492	-0.551447792	 1.219594884	-0.387932
C	 0.867253889	-2.003616967	 1.2071188692	 0.311681
C	 0.9721212857	-3.2005616474	 1.1896305586	-0.440096
N	-1.3656506788	-0.5278613392	-0.0293721674	-0.329563
C	-2.0659158174	-0.5790964712	-1.2126630564	 0.459505
N	-3.3853569001	-1.0014561163	-1.0667826836	-0.570389
O	-1.5900605897	-0.2641538988	-2.2885077804	-0.396617
H	 1.0034741925	 1.9532085381	 0.017006991	 0.114636
H	-0.5464271578	 1.9390528519	-0.8448370936	 0.147049
H	-0.5156270104	 1.9423293217	 0.9328874959	 0.10464
H	 0.465977468	-0.309225824	-0.9100311977	 0.128157
H	 1.7431290771	-0.097659648	 1.2434277446	 0.137647
H	 0.2501426871	-0.2290722489	 2.1473645738	 0.120992
H	 1.0696082114	-4.2576253519	 1.172575528	 0.195211
H	-1.8944814559	-0.5131861632	 0.8293981639	 0.235898
H	-3.5694220411	-1.6853964429	-0.3470417609	 0.247507
H	-3.8039757675	-1.2325688752	-1.9556013485	 0.259016
32.2718	55.6111	105.9655	145.751	185.7836	244.2437	293.1911	342.9267	347.7452	379.8185	420.9157	447.4823	495.0683	538.8434	578.4153	619.2279	636.0772	660.748	781.3607	860.6418	887.5138	925.8595	983.0184	1041.954	1085.2076	1104.8038	1126.1925	1173.3247	1243.2664	1301.2763	1323.9258	1362.0664	1396.5289	1404.8679	1467.6734	1486.0294	1501.0418	1537.1397	1627.212	1797.455	2241.214	3004.4833	3029.1935	3055.0153	3085.9872	3104.5187	3132.6466	3507.2362	3567.1153	3614.2883	3679.6085
CC(CC#C)NC(N)=O	C[C@@H](CC#C)NC(=O)N	
InChI=1S/C6H10N2O/c1-3-4-5(2)8-6(7)9/h1,5H,4H2,2H3,(H3,7,8,9)	InChI=1S/C6H10N2O/c1-3-4-5(2)8-6(7)9/h1,5H,4H2,2H3,(H3,7,8,9)/t5-/m0/s1
