22
gdb 104909	2.0828	1.4335	1.00731	4.1718	87.52	-0.2729	0.0375	0.3104	1294.8695	0.192109	-367.234325	-367.223833	-367.222889	-367.269333	38.836	
C	 0.2745644386	 1.5433546273	 0.2076739427	-0.387394
C	-0.1537434626	 0.1074499593	-0.1163007924	-0.259216
C	 0.6124158449	-0.4940063299	-1.2956092897	 0.141741
C	 1.9923653288	-1.1106238611	-1.0685218453	-0.35063
C	 0.849063735	-2.0099477762	-1.4474049346	 0.270202
C	 0.2737392214	-2.9534886572	-0.405676499	-0.455428
C	 0.8410351898	-2.59889066	-2.8474820044	-0.456487
C	 0.4359520464	 0.2564684692	-2.5162574447	 0.260824
N	 0.2714454857	 0.8746474721	-3.4813238757	-0.370438
H	 1.3373202407	 1.5880172873	 0.4673769811	 0.119392
H	 0.1100905209	 2.2077620857	-0.6455974195	 0.144907
H	-0.2972826388	 1.9329299291	 1.0549100722	 0.116673
H	-0.0017812717	-0.5227500246	 0.7633759941	 0.103683
H	-1.2272606533	 0.0818758855	-0.3376790111	 0.115296
H	 2.7654105187	-0.9119694031	-1.8023901868	 0.131006
H	 2.3395500832	-1.1197699428	-0.0400156327	 0.119138
H	 0.3705928419	-2.5761941084	 0.6140042452	 0.120697
H	-0.7864161621	-3.1540979682	-0.5957599049	 0.125868
H	 0.8032082618	-3.9117967529	-0.4498754747	 0.124565
H	 1.4427158114	-3.5142595778	-2.8706273697	 0.117936
H	-0.1770193203	-2.860364969	-3.1565364602	 0.125663
H	 1.2458230097	-1.9077173641	-3.58963111	 0.142001
74.8513	117.5388	149.5222	164.9535	189.6992	214.5409	229.173	277.9315	322.1522	368.1793	373.0469	405.8566	463.944	576.1061	584.1649	648.6691	733.1578	792.4238	877.9049	902.4267	929.4705	963.6527	973.9886	1000.1157	1040.3859	1061.8455	1075.2911	1103.9183	1147.5466	1180.5723	1224.0756	1298.7927	1317.42	1355.7462	1377.0481	1411.4983	1416.3948	1428.9074	1474.2001	1484.0136	1486.0442	1491.8293	1497.576	1503.3069	1507.4997	1512.524	2339.5237	3031.2269	3035.4788	3039.349	3042.035	3089.8459	3091.1066	3093.9589	3110.3396	3118.9708	3126.8612	3127.8745	3130.761	3218.7997
CCC1(CC1(C)C)C#N	CC[C@]1(CC1(C)C)C#N	
InChI=1S/C8H13N/c1-4-8(6-9)5-7(8,2)3/h4-5H2,1-3H3	InChI=1S/C8H13N/c1-4-8(6-9)5-7(8,2)3/h4-5H2,1-3H3/t8-/m0/s1
