16
gdb 85507	2.24953	1.67889	1.1738	5.2984	66.83	-0.2601	-0.0491	0.211	1066.2986	0.123245	-475.0482	-475.039861	-475.038917	-475.081825	30.013	
C	 0.0567874409	 1.5752889363	-0.1223484623	-0.428387
C	-0.0139035136	 0.0683242721	 0.0442700735	 0.09564
O	 0.6915421542	-0.5679341793	-1.0260512987	-0.234963
C	 1.2512838549	-1.7191163833	-0.5829003884	 0.501981
N	 1.7618737738	-2.5666352193	-1.3521288068	-0.572633
O	 1.1525867694	-1.7955162807	 0.7824063468	-0.237705
C	 0.6749571808	-0.5595802205	 1.2860750319	-0.028402
C	 1.8166158866	 0.283034336	 1.8495983958	 0.142683
O	 2.978503121	 0.0552350638	 1.657679025	-0.220671
H	 1.0934831397	 1.9218804968	-0.1417836578	 0.151143
H	-0.4160740698	 1.861208128	-1.064787348	 0.150426
H	-0.474403029	 2.0784863405	 0.6914035518	 0.129384
H	-1.0593089526	-0.2661037019	 0.0160150975	 0.106964
H	 2.1703789511	-3.3284660145	-0.8163211461	 0.237337
H	-0.0451805335	-0.7525726084	 2.0889548663	 0.118538
H	 1.476905336	 1.1451078143	 2.4673736994	 0.088666
72.9726	90.8642	113.0372	242.9772	265.8728	283.8736	314.1066	478.5511	498.1465	629.6493	685.1354	714.8721	765.3249	807.3556	825.0513	889.8857	927.3665	973.8091	998.4028	1033.0508	1101.0836	1125.929	1140.1333	1163.7415	1251.0062	1283.5158	1358.8183	1378.3566	1397.8446	1417.2962	1420.7809	1483.8563	1503.5033	1812.6639	1849.5449	2876.2255	3017.3768	3048.5577	3058.7544	3123.9182	3133.351	3541.6141
CC1OC(=N)OC1C=O	C[C@H]1O[C]([NH])O[C@H]1C=O	
InChI=1S/C5H7NO3/c1-3-4(2-7)9-5(6)8-3/h2-4,6H,1H3	InChI=1S/C5H7NO3/c1-3-4(2-7)9-5(6)8-3/h2-4,6H,1H3/t3-,4+/m1/s1
