16
gdb 52063	2.61788	1.26195	1.00616	3.8586	70.06	-0.2659	0.0001	0.2661	1178.2398	0.124848	-434.074843	-434.066063	-434.065119	-434.108888	31.298	
O	 0.8741399685	 0.5776462968	-1.3655048971	-0.328916
C	 0.3751045007	 1.3263413556	-0.5463135119	 0.169424
N	 1.0006256528	 1.7604444249	 0.5773006338	-0.260289
C	 2.3499167394	 1.3290916834	 0.908333962	-0.266725
C	 3.4371693437	 2.123779866	 0.1919635628	 0.151224
C	 4.6404395284	 1.393760645	-0.3186350318	-0.263902
N	 3.6492595296	 1.9147845823	-1.2514024719	-0.320416
C	 3.5609194215	 3.4950346443	 0.6460109859	 0.267092
N	 3.6273533192	 4.5723031972	 1.0605711003	-0.335216
H	-0.6551788846	 1.7155125998	-0.6366557232	 0.101355
H	 0.5380207401	 2.4352924439	 1.1648910562	 0.267961
H	 2.4806578227	 1.4029675917	 1.9913246028	 0.135849
H	 2.4413974761	 0.2785118569	 0.6194096203	 0.142423
H	 5.6009922236	 1.8991449932	-0.3324014031	 0.143031
H	 4.6840993383	 0.3256419118	-0.1181570839	 0.1282
H	 3.0010236201	 1.1931962571	-1.5678790513	 0.268906
57.4427	105.2972	145.9728	195.3598	239.054	258.3138	307.8938	363.8107	453.2757	510.6639	570.8056	591.9247	717.893	759.4934	858.498	906.9437	934.8071	980.3796	1002.5429	1033.4845	1049.7279	1114.3949	1154.8369	1207.805	1262.046	1278.4294	1314.784	1381.6384	1404.5358	1423.3258	1458.2486	1511.0887	1525.5686	1782.8873	2355.1863	2975.8954	3062.4088	3110.0146	3116.9461	3203.1222	3470.7111	3644.5175
O=CNCC1(CN1)C#N	O=CNC[C@]1(CN1)C#N	
InChI=1S/C5H7N3O/c6-1-5(3-8-5)2-7-4-9/h4,8H,2-3H2,(H,7,9)	InChI=1S/C5H7N3O/c6-1-5(3-8-5)2-7-4-9/h4,8H,2-3H2,(H,7,9)/t5-/m0/s1
