20
gdb 22193	1.62472	1.16685	0.69052	0.0832	84.33	-0.2454	0.0135	0.2588	1627.0177	0.166916	-403.082657	-403.071891	-403.070947	-403.119484	38.526	
C	 0.2655488758	 1.4900999026	-0.0477502837	-0.389156
C	-0.0719338463	-0.0020686456	-0.1004297957	-0.16508
C	 0.9727795195	-0.8028955726	-0.8805910261	-0.248412
C	 0.7149236073	-2.2822965253	-0.9798567256	 0.33747
C	 1.6849349697	-3.1852950538	-1.7320655313	-0.440016
C	 2.8370960975	-2.5201878866	-2.3231562901	 0.283746
C	 3.7954293283	-1.9911666168	-2.819038623	-0.433892
N	-0.332017056	-2.7522306983	-0.4194000586	-0.166552
O	-0.4386192069	-4.1438269742	-0.5961750419	-0.403134
H	 1.2328662343	 1.6646368453	 0.4370714294	 0.112763
H	 0.318871123	 1.9239379819	-1.0528153914	 0.112765
H	-0.4915019969	 2.0463397855	 0.5134841257	 0.111896
H	-0.1531831944	-0.4061209935	 0.9142460752	 0.108429
H	-1.0560197006	-0.1499260314	-0.5577697466	 0.108425
H	 1.0713646754	-0.4065934844	-1.9012497117	 0.121388
H	 1.9689981945	-0.6612318153	-0.4378624485	 0.121386
H	 2.0155700853	-3.9736209802	-1.0432908907	 0.162071
H	 1.118191594	-3.719057406	-2.506080153	 0.162073
H	 4.642496852	-1.5247714289	-3.2575843952	 0.196398
H	-1.2563210155	-4.3444864124	-0.1294837571	 0.307432
36.9296	80.4374	93.3472	103.7502	175.6351	250.4134	260.5256	284.7874	335.9571	346.6032	370.5272	394.7049	520.5947	568.2783	618.777	636.6613	652.9893	736.3579	801.8208	855.0204	918.9227	930.3027	990.8422	1004.3407	1051.0651	1115.2145	1117.7478	1203.2634	1215.041	1261.0231	1307.7866	1319.7717	1322.1339	1392.4808	1410.267	1415.0015	1440.8379	1462.4637	1487.1861	1501.6436	1508.1978	1724.8066	2241.8909	3010.7781	3026.7556	3027.7824	3031.238	3048.042	3048.7975	3074.0057	3099.5587	3102.4674	3505.9688	3825.7755
CCCC(CC#C)=NO	CCCC(=NO)CC#C	
InChI=1S/C7H11NO/c1-3-5-7(8-9)6-4-2/h1,9H,4-6H2,2H3	InChI=1S/C7H11NO/c1-3-5-7(8-9)6-4-2/h1,9H,4-6H2,2H3
