17
gdb 63868	2.32135	1.61362	1.28917	1.063	75.67	-0.2442	0.0154	0.2596	1048.4486	0.132439	-421.755023	-421.746154	-421.74521	-421.788004	34.159	
C	-0.0560521439	 1.5479521349	 0.058236745	-0.454725
C	 0.033764046	 0.037650668	-0.0670285429	 0.290531
O	-1.1875545249	-0.556098084	-0.45194724	-0.463579
C	 1.1678706561	-0.5705971493	-0.962322624	-0.28151
C	 1.7218860121	-1.2787639285	 0.2759154481	-0.070587
O	 2.0337033787	-0.271598013	 1.2447237268	-0.294936
C	 0.6697031687	-0.7155705336	 1.1491545976	 0.292202
C	-0.0215138314	-1.2041634176	 2.2900610389	 0.178702
C	-0.6787854187	-1.5743297826	 3.2276865641	-0.408198
H	 0.9027064554	 1.9622737708	 0.3787818357	 0.138255
H	-0.3341521403	 1.990815136	-0.902935913	 0.125526
H	-0.8162439554	 1.8292020657	 0.7968384461	 0.112069
H	-1.8290680041	-0.3920786074	 0.2496569715	 0.282498
H	 0.7360705195	-1.250304745	-1.6983687048	 0.127961
H	 1.8536567165	 0.1312933364	-1.4410427401	 0.111714
H	 2.2521910201	-2.2204570342	 0.3557187243	 0.118177
H	-1.2377853744	-1.9183406865	 4.0628082469	 0.195902
108.5899	125.1469	182.4033	247.5641	268.5923	300.5052	359.2373	369.6352	443.8805	484.148	515.7208	572.6839	604.2984	616.3264	661.3033	676.6303	803.3911	866.1886	897.1079	939.3003	953.5501	968.5154	1018.1731	1099.5169	1104.5419	1135.1778	1188.0716	1252.6836	1264.4594	1270.0694	1365.9165	1399.7969	1421.3562	1466.4045	1486.6004	1497.8091	2233.7794	3031.0289	3077.8507	3099.7037	3130.5466	3144.7413	3192.8437	3499.4309	3788.6901
CC1(O)CC2OC12C#C	C[C@@]1(O)C[C@H]2O[C@@]12C#C	
InChI=1S/C7H8O2/c1-3-7-5(9-7)4-6(7,2)8/h1,5,8H,4H2,2H3	InChI=1S/C7H8O2/c1-3-7-5(9-7)4-6(7,2)8/h1,5,8H,4H2,2H3/t5-,6-,7-/m1/s1
