14
gdb 66289	2.07901	1.68955	1.41877	3.4726	62.13	-0.2798	-0.0706	0.2093	974.318	0.099752	-473.836236	-473.828093	-473.827149	-473.869157	29.487	
O	 0.1733349073	 1.4561175794	 0.2903639755	-0.446727
C	-0.0112337512	 0.0915882361	 0.0648986621	 0.147257
C	-1.4784648254	-0.3144869093	-0.1764135916	-0.126961
O	-1.3937249737	-1.5104961282	-0.9451901956	-0.244924
C	-0.3623679287	-1.3576805094	-1.9032729714	-0.180682
C	 0.5931467606	-0.3331897013	-1.3111147318	 0.328938
O	 1.5596777275	 0.186550911	-1.7903670561	-0.293472
C	 0.6006159412	-0.7410566994	 1.1190814265	 0.253768
N	 1.0993854555	-1.3920479991	 1.933684175	-0.321722
H	 1.0248578098	 1.6923590244	-0.1091445365	 0.304714
H	-2.036927624	-0.5391310564	 0.7317569107	 0.149909
H	-1.9695500439	 0.5030827206	-0.7243843334	 0.123262
H	 0.122560389	-2.3223302316	-2.0791108539	 0.16377
H	-0.736767394	-0.9748742569	-2.8656971498	 0.14287
81.4991	129.213	163.7065	238.423	256.0624	339.3444	396.2777	427.9101	498.3107	547.6392	585.5552	637.2949	664.0373	717.7485	877.4468	946.3128	982.4366	1048.8473	1080.4519	1097.9044	1154.3742	1197.994	1219.6136	1252.7547	1322.8656	1374.6551	1389.5735	1469.2645	1508.4365	1876.4848	2347.0251	2993.9633	3009.3644	3092.963	3142.6395	3717.6207
OC1(COCC1=O)C#N	O[C@]1(COCC1=O)C#N	
InChI=1S/C5H5NO3/c6-2-5(8)3-9-1-4(5)7/h8H,1,3H2	InChI=1S/C5H5NO3/c6-2-5(8)3-9-1-4(5)7/h8H,1,3H2/t5-/m0/s1
