15
gdb 133046	5.10205	1.00553	0.8456	3.562	73.74	-0.2131	-0.0453	0.1678	1276.005	0.113483	-458.142539	-458.134691	-458.133747	-458.175262	28.813	
C	 0.0602939894	 1.4369109854	 0.0902400004	-0.326515
N	-0.047662315	 0.010581966	-0.1168496289	-0.350767
C	-1.2309199557	-0.6748256397	-0.0397749004	 0.398019
N	-1.1434611959	-2.015652147	-0.0024215441	-0.310924
C	-2.2780944269	-2.7030357539	 0.0367408626	-0.138266
C	-3.5077004582	-2.0510579239	 0.0434703466	 0.288839
F	-4.6320745582	-2.7655072247	 0.0820143667	-0.076125
N	-3.6210712416	-0.7440351072	 0.019528437	-0.277002
C	-2.4901172508	-0.0419434689	-0.0196690168	-0.098155
H	 1.1123786338	 1.7212301636	 0.0316786684	 0.135751
H	-0.4752882392	 1.9905414841	-0.6900187107	 0.138031
H	-0.3311097826	 1.7606839895	 1.0662564529	 0.125898
H	 0.7641961661	-0.5603147106	 0.0552706657	 0.250409
H	-2.2199689702	-3.7871834081	 0.0672267256	 0.12724
H	-2.5851240051	 1.0385197853	-0.0364466049	 0.113567
78.8491	133.8592	189.6341	205.0071	370.1847	396.6114	415.0217	449.5874	494.789	554.6471	567.1683	660.0436	770.2703	794.8224	888.2184	898.0912	943.2958	1031.2267	1094.3143	1158.0887	1175.8327	1257.7982	1283.9621	1329.9337	1347.0622	1408.692	1468.8418	1475.6505	1485.0444	1523.2656	1559.6179	1597.4026	1635.4115	2991.7144	3054.5495	3130.0844	3172.8814	3182.8961	3639.0924
CNC1=NC=C(F)N=C1	CNc1ncc(F)nc1	
InChI=1S/C5H6FN3/c1-7-5-3-8-4(6)2-9-5/h2-3H,1H3,(H,7,9)	InChI=1S/C5H6FN3/c1-7-5-3-8-4(6)2-9-5/h2-3H,1H3,(H,7,9)
