16
gdb 51061	4.23234	1.30193	1.21978	3.3312	72.83	-0.2305	0.0211	0.2516	1030.9058	0.124163	-400.654492	-400.647272	-400.646328	-400.686886	27.91	
O	-0.011529784	 0.3427305131	 1.2402375893	-0.303472
C	 0.036299382	 1.3140115411	 0.5239126993	 0.129908
N	 1.1491804779	 1.756893951	-0.1447999168	-0.448159
C	 2.3837268969	 1.0867322495	-0.1367400109	 0.443103
C	 2.9770885147	-0.1065386287	-0.9673956799	-0.154641
C	 3.8273757193	-0.495328935	 0.2316301113	-0.07129
C	 4.3692539404	 0.486226071	-0.7968368133	-0.089189
C	 3.7811617317	 1.6727182415	 0.0250709453	-0.179158
C	 3.2369982585	 0.6873523712	 1.053161689	-0.109304
H	-0.8332458319	 1.9764558602	 0.3347464515	 0.071768
H	 1.026646548	 2.5380784493	-0.7729847292	 0.246284
H	 2.5768822452	-0.7236340231	-1.7606270917	 0.090916
H	 4.1936849255	-1.4692646713	 0.5251613717	 0.091985
H	 5.2335615104	 0.410976682	-1.4426305363	 0.08922
H	 4.0774752598	 2.7061811472	 0.148002666	 0.089571
H	 3.0275569758	 0.8233452611	 2.104223835	 0.10246
43.6417	119.9409	206.4884	306.302	390.6843	546.2615	553.7387	653.465	741.5393	758.6749	779.6504	788.1896	831.8571	847.7949	851.8143	892.4804	939.8611	947.4231	973.8725	989.8252	1009.5251	1026.3764	1031.6651	1060.4696	1102.1283	1136.5874	1171.8253	1216.1115	1254.751	1260.5503	1323.4776	1415.3728	1443.2467	1505.723	1821.2508	2923.7732	3193.7589	3200.6062	3205.3112	3216.4656	3227.7882	3590.8281
O=CNC12C3C4C3C1C24	O=CN[C@@]12[C@@H]3[C@H]4[C@@H]3[C@@H]1[C@@H]24	
InChI=1S/C7H7NO/c9-1-8-7-4-2-3(4)6(7)5(2)7/h1-6H,(H,8,9)	InChI=1S/C7H7NO/c9-1-8-7-4-2-3(4)6(7)5(2)7/h1-6H,(H,8,9)/t2-,3+,4-,5+,6-,7-
