15
gdb 25810	4.17654	1.12433	0.89077	2.9759	71.66	-0.245	-0.0386	0.2064	1249.3003	0.11285	-454.022724	-454.014164	-454.01322	-454.056434	30.345	
C	 0.1287234408	 1.436650064	-0.0279635354	-0.495208
C	-0.0452038366	-0.0349728261	 0.0316817946	 0.326868
C	-1.1020881717	-0.8707786537	 0.2248273971	-0.196138
N	-0.6641796697	-2.1812852807	 0.1795256045	-0.313446
C	 0.6143095014	-2.0876839361	-0.0348901244	 0.310245
O	 1.0615759579	-0.8162526398	-0.1358537376	-0.180688
C	 1.6013712459	-3.1961807909	-0.1756571737	 0.315829
N	 1.0184849461	-4.4177311675	-0.0534248382	-0.532469
O	 2.7832902334	-3.0004805269	-0.3760201207	-0.356212
H	 0.8207289026	 1.7868698953	 0.7453750003	 0.152012
H	 0.5312092688	 1.7505201047	-0.9970258226	 0.15201
H	-0.8344649577	 1.9289654236	 0.1217889504	 0.14357
H	-2.1371865735	-0.6177163648	 0.3915411197	 0.12843
H	 0.0290271671	-4.4957956511	 0.1130725295	 0.278548
H	 1.5941268352	-5.2382278898	-0.1313176032	 0.266648
62.652	129.9151	148.5965	164.1108	214.4515	285.0469	319.6716	394.9582	525.4129	571.3191	636.8676	651.736	684.3269	708.125	804.7558	850.361	975.6785	995.937	1033.7768	1066.5421	1093.3903	1157.9352	1218.0986	1255.0743	1322.0086	1409.2568	1423.6121	1471.6964	1489.1588	1558.5817	1601.9639	1630.8067	1802.3788	3038.3952	3093.4312	3133.895	3262.885	3602.5047	3746.1829
CC1=CN=C(O1)C(N)=O	Cc1cnc(o1)C(=O)N	
InChI=1S/C5H6N2O2/c1-3-2-7-5(9-3)4(6)8/h2H,1H3,(H2,6,8)	InChI=1S/C5H6N2O2/c1-3-2-7-5(9-3)4(6)8/h2H,1H3,(H2,6,8)
