17
gdb 79971	2.59403	1.66354	1.39098	2.9675	72.27	-0.2395	-0.0306	0.209	981.0936	0.136114	-417.990434	-417.982496	-417.981552	-418.023007	29.556	
C	-0.0827543171	 1.5495652054	 0.2163511969	-0.433741
C	-0.0113665219	 0.0636742435	-0.0451328421	 0.009421
C	 0.6793502207	-0.5929498619	-1.1910106496	-0.093863
C	 1.7751715209	 0.1468866315	-1.9901793571	-0.090552
C	 1.2513058255	 1.3183756499	-2.8088507781	 0.162604
O	 1.4420160918	 2.4806416336	-2.5724559703	-0.233268
N	 2.7954009421	 0.5176064271	-1.0017119685	-0.185689
C	 2.4220598588	 0.0313439818	 0.1127954297	 0.033927
N	 1.2307685068	-0.7475673965	 0.1797899676	-0.137886
H	 0.79025854	 2.0928901996	-0.1452453892	 0.168001
H	-0.9641989264	 1.9634028724	-0.284410188	 0.131105
H	-0.1957046757	 1.7341081423	 1.2898187798	 0.1264
H	-0.8785746086	-0.4794150622	 0.326045283	 0.107269
H	 0.2411944261	-1.4832830693	-1.6300292102	 0.107559
H	 2.2117997897	-0.556878135	-2.7150077413	 0.112839
H	 0.6328470682	 0.9987299762	-3.679582106	 0.082324
H	 2.994552479	 0.1540115615	 1.0276704634	 0.133549
89.9221	135.6571	177.2701	241.6532	263.2858	271.5112	390.7112	504.9419	548.336	692.9675	726.2638	745.7583	756.5208	844.0857	876.152	938.8836	972.974	975.995	1024.0019	1036.5811	1067.2566	1079.5477	1102.5748	1143.8538	1175.6325	1259.2644	1286.3692	1319.5687	1321.8771	1359.9503	1414.6608	1427.9414	1432.2395	1494.6251	1505.8651	1674.4278	1838.7921	2862.3315	2996.3615	3042.4827	3100.0079	3121.5853	3156.0124	3161.1657	3189.3243
CC1C2C(C=O)N=CN12	C[C@H]1[C@H]2[C@@H](C=O)N=CN12	
InChI=1S/C6H8N2O/c1-4-6-5(2-9)7-3-8(4)6/h2-6H,1H3	InChI=1S/C6H8N2O/c1-4-6-5(2-9)7-3-8(4)6/h2-6H,1H3/t4-,5+,6-,8?/m0/s1
