15
gdb 129758	3.15954	1.40219	1.05012	3.9812	71.02	-0.2139	-0.0308	0.1831	1103.6507	0.112952	-450.063224	-450.055336	-450.054391	-450.096422	28.98	
N	 0.077304952	 1.4287226583	 0.0573729401	-0.601663
C	 0.0243677334	 0.0455891262	-0.0412916538	 0.19345
C	-1.0439108563	-0.7895445436	-0.2024439975	 0.401857
O	-0.5626933076	-2.0458542982	-0.3287071475	-0.217903
N	 0.8423299341	-1.9574286168	-0.2225467233	-0.028049
N	 1.1484591559	-0.7369284285	-0.0627812235	-0.172203
N	-2.399674437	-0.4956161216	-0.235730927	-0.207408
C	-3.2219364032	-1.084178148	-1.3169344374	-0.223982
C	-3.3612730401	-1.5660565258	 0.0791631704	-0.222803
H	 0.8540026515	 1.7468625496	 0.6219066664	 0.26005
H	-0.7972371826	 1.822322173	 0.3792728768	 0.258419
H	-3.9569822251	-0.407984077	-1.7411824774	 0.133576
H	-2.7154107406	-1.7342495653	-2.0236753378	 0.145103
H	-2.9580549981	-2.5452483709	 0.3161913798	 0.149965
H	-4.2033018263	-1.2453629014	 0.6845328318	 0.131593
39.9989	156.5348	170.3178	221.7421	298.4991	309.0732	447.0878	512.8218	586.2787	668.1954	691.95	725.6567	765.5364	780.5293	826.0989	835.939	914.1439	1011.916	1040.135	1085.0987	1111.5	1137.3932	1162.3962	1185.095	1221.1909	1232.6434	1347.8481	1420.2607	1456.1597	1486.8859	1512.6784	1628.5201	1710.6243	3123.4939	3126.6561	3212.4144	3226.9563	3545.3822	3644.6532
NC1=C(ON=N1)N1CC1	Nc1c(onn1)N1CC1	
InChI=1S/C4H6N4O/c5-3-4(8-1-2-8)9-7-6-3/h1-2,5H2	InChI=1S/C4H6N4O/c5-3-4(8-1-2-8)9-7-6-3/h1-2,5H2
