19
gdb 92133	2.90977	1.74206	1.55227	1.5093	72.52	-0.2238	0.0812	0.305	947.5086	0.161978	-423.023244	-423.016261	-423.015317	-423.054701	28.582	
C	 0.3044968218	 1.5405703235	 0.0229506258	-0.395087
C	-0.0363864679	 0.0449794784	 0.0048470747	 0.017871
C	 0.4857632861	-0.6542664048	-1.2886460878	-0.241906
C	 1.4005541005	-1.8171775828	-0.9142113743	 0.167869
O	 0.6894630275	-2.7382864332	-0.0953948997	-0.263131
C	 0.7475934556	-2.1602553787	 1.1897485627	 0.029446
C	 1.9277676248	-1.2349557547	 1.1751516962	 0.044731
O	 2.4795345202	-1.3302083948	-0.1201645772	-0.26465
C	 0.5240007994	-0.6593820447	 1.2367788703	-0.129763
H	 1.3893820681	 1.688591893	 0.000858466	 0.127171
H	-0.1240727959	 2.0493764698	-0.8471332992	 0.112514
H	-0.0855870886	 2.0276937966	 0.9232898256	 0.108622
H	-1.1275637527	-0.0553392157	 0.0371902418	 0.080664
H	-0.34029306	-1.036375007	-1.8956317812	 0.106207
H	 1.0538757387	 0.0474959392	-1.9080641544	 0.104127
H	 1.8086247407	-2.351482433	-1.7748618132	 0.093204
H	 0.4683229721	-2.8441279505	 1.9799795656	 0.108592
H	 2.6729612246	-1.122874667	 1.9512073264	 0.107437
H	 0.2187907051	-0.2554402036	 2.1984737918	 0.08608
67.8046	250.9336	281.6151	346.7544	383.1216	425.1353	565.8384	593.8619	693.0029	731.4092	748.2714	781.522	818.7833	849.6501	876.2532	933.077	944.6536	977.9089	999.6832	1017.5409	1047.0903	1071.7584	1074.2484	1105.0172	1117.353	1126.6849	1161.7931	1178.7316	1234.2759	1274.6882	1294.9424	1314.2091	1347.5983	1362.1003	1373.7115	1385.1522	1405.9805	1419.1834	1479.2184	1495.3266	1500.1233	3024.8145	3026.6388	3047.4259	3091.5214	3096.4624	3097.9674	3103.9395	3143.3359	3201.3156	3210.5389
CC1CC2OC3C(O2)C13	C[C@H]1C[C@@H]2O[C@H]3[C@@H](O2)[C@@H]13	
InChI=1S/C7H10O2/c1-3-2-4-8-6-5(3)7(6)9-4/h3-7H,2H2,1H3	InChI=1S/C7H10O2/c1-3-2-4-8-6-5(3)7(6)9-4/h3-7H,2H2,1H3/t3-,4-,5+,6-,7+/m0/s1
