18
gdb 122039	2.44707	0.88244	0.678	2.8908	74.35	-0.2729	-0.0543	0.2186	1640.8023	0.144227	-439.096621	-439.086225	-439.085281	-439.13383	34.628	
C	 0.0310820114	 1.4599653894	-0.0175007599	-0.38694
C	 0.1150761572	-0.0558381638	-0.0088309721	-0.035686
O	 0.7268032625	-0.4779405311	-1.2175319377	-0.24798
C	 0.8585616291	-1.8708829185	-1.3156869878	-0.054976
C	 1.4595354984	-2.1770519264	-2.6929774959	-0.263578
C	 1.8698388639	-3.6511458428	-2.8438132045	 0.157565
O	 1.9299687867	-4.4135768127	-1.9196521924	-0.224506
C	 0.5761470025	-1.797058873	-3.7956622071	 0.273406
N	-0.1196276564	-1.5482904315	-4.6838381251	-0.308577
H	 1.0296440448	 1.9002241783	-0.0878466959	 0.128555
H	-0.5582156084	 1.805542088	-0.8711748374	 0.135907
H	-0.4426324474	 1.8179804597	 0.9011218734	 0.120068
H	 0.7036276753	-0.4106873399	 0.8531482772	 0.092659
H	-0.8888384379	-0.5021862848	 0.0772403787	 0.097019
H	 1.5281879608	-2.2771221186	-0.5443745369	 0.118515
H	-0.1121950254	-2.3794322159	-1.2112185782	 0.113899
H	 2.3837787712	-1.5880324184	-2.7985694986	 0.164557
H	 2.1257224217	-3.9533033479	-3.8799310497	 0.120093
40.0506	66.9035	78.8763	114.9731	129.5334	177.1068	225.3979	247.1095	263.8264	366.0869	443.9255	512.9385	572.8471	646.5273	797.3433	820.3292	890.2241	898.8824	1030.6811	1055.7336	1085.9706	1120.705	1158.3217	1169.5358	1188.319	1238.554	1245.999	1297.1866	1319.0212	1381.8505	1406.7367	1420.5013	1447.4252	1483.752	1499.2561	1513.3338	1534.3708	1839.1241	2361.3866	2930.7422	2965.1506	2989.1705	2994.6304	3009.2124	3031.9046	3047.8669	3122.8544	3126.2042
CCOCC(C=O)C#N	CCOC[C@@H](C=O)C#N	
InChI=1S/C6H9NO2/c1-2-9-5-6(3-7)4-8/h4,6H,2,5H2,1H3	InChI=1S/C6H9NO2/c1-2-9-5-6(3-7)4-8/h4,6H,2,5H2,1H3/t6-/m1/s1
