14
gdb 20448	6.22369	1.38017	1.21861	4.0345	63.12	-0.2462	-0.0089	0.2374	951.1238	0.109271	-378.681534	-378.675074	-378.67413	-378.712836	23.709	
C	 0.0307232144	 1.5563757784	-0.0045994831	-0.224837
N	 1.2512059019	 0.739710305	 0.0126690455	-0.309461
C	-0.0567952508	 0.0655556484	 0.02712547	-0.172741
C	-0.3878641897	-0.6775691517	 1.2599024939	 0.189707
C	 0.3745317358	-0.8517433152	 2.3734423905	-0.001731
O	-0.2799748105	-1.5819426446	 3.287950172	-0.163404
N	-1.5297904752	-1.9244610746	 2.7841724813	-0.132687
C	-1.5797977363	-1.3853496199	 1.5915414228	-0.059552
H	-0.1556816375	 2.1151628809	 0.9076499271	 0.127297
H	-0.250812242	 2.0654670209	-0.9227563729	 0.11769
H	 1.6609017523	 0.6929486854	-0.9157840954	 0.239261
H	-0.3919815271	-0.4046766412	-0.8954825085	 0.09484
H	 1.3677188178	-0.5241891064	 2.633834498	 0.165816
H	-2.471923183	-1.5181359855	 0.9948974388	 0.129802
64.842	161.2435	181.8019	391.8207	454.7937	621.6057	645.9332	683.2014	855.3632	871.1737	890.8061	898.5493	905.1941	922.7047	940.7652	970.4513	1026.3493	1103.8464	1118.5419	1145.4133	1175.6952	1198.5505	1237.4561	1281.4087	1293.1823	1350.5493	1450.9071	1483.525	1511.4971	1656.6524	3109.9897	3121.7008	3201.5407	3238.2369	3283.4108	3515.6158
C1NC1C1=CON=C1	C1N[C@H]1c1conc1	
InChI=1S/C5H6N2O/c1-4(3-8-7-1)5-2-6-5/h1,3,5-6H,2H2	InChI=1S/C5H6N2O/c1-4(3-8-7-1)5-2-6-5/h1,3,5-6H,2H2/t5-/m1/s1
