18
gdb 69406	3.11589	1.24678	1.19355	1.6939	83.43	-0.2278	0.0036	0.2314	1138.3205	0.14651	-364.75746	-364.749131	-364.748187	-364.790068	32.633	
C	 0.0829049395	 1.5202441095	 0.0527539134	-0.47945
C	-0.0203481475	 0.0163252683	-0.008527849	 0.306271
C	-0.8742329939	-0.7687842525	 0.9339799826	-0.276092
N	 0.5868572922	-0.7943523628	 1.0794795982	-0.133812
C	 1.2397891074	-1.9701181592	 0.4390355394	-0.213867
C	 0.953007295	-1.8251575019	-1.0519011138	-0.097671
C	 0.2738081753	-0.704963147	-1.2843289156	-0.133536
C	 2.6751945734	-2.0040764234	 0.7256439754	 0.339225
C	 3.8583175751	-2.0500080696	 0.9300815135	-0.439146
H	 1.0678693081	 1.8586477297	-0.2849341917	 0.128396
H	-0.6752741589	 1.9871400418	-0.5859907826	 0.116989
H	-0.0662422959	 1.8736981714	 1.0758519301	 0.130696
H	-1.3909046503	-0.2689859224	 1.7502049988	 0.112759
H	-1.3777214531	-1.6499531198	 0.5415248816	 0.110622
H	 0.7877600347	-2.887478445	 0.8422608143	 0.114927
H	 1.2704694258	-2.5614954187	-1.779348019	 0.113334
H	-0.0461152771	-0.3408914869	-2.253400257	 0.105566
H	 4.9020941203	-2.0831468814	 1.1225412414	 0.194789
92.5819	144.0644	182.6815	249.2041	282.4489	343.4446	423.9645	439.9757	500.1372	575.196	609.5372	614.9038	656.8246	748.9461	755.674	781.8836	803.382	893.6722	930.9258	951.9633	960.5357	981.1986	1023.6799	1056.3932	1104.3619	1116.4712	1127.9775	1157.8168	1229.9104	1275.292	1326.5925	1342.845	1368.5968	1415.5068	1484.5069	1493.9997	1495.5256	1673.1859	2237.7507	3004.7921	3034.2427	3090.9029	3097.7407	3123.3259	3179.3	3198.178	3224.2783	3504.1415
CC12CN1C(C=C2)C#C	C[C@]12CN1[C@@H](C=C2)C#C	
InChI=1S/C8H9N/c1-3-7-4-5-8(2)6-9(7)8/h1,4-5,7H,6H2,2H3	InChI=1S/C8H9N/c1-3-7-4-5-8(2)6-9(7)8/h1,4-5,7H,6H2,2H3/t7-,8+,9?/m1/s1
