17
gdb 54284	2.3573	1.44049	1.04641	2.8396	74.57	-0.2522	0.0116	0.2638	1156.594	0.135358	-417.983312	-417.974256	-417.973312	-418.017224	34.029	
N	 0.5316827394	 0.8867808597	-0.4993265374	-0.543129
C	 0.0071145516	 0.0381756396	 0.4316641515	 0.352385
O	 0.5356925197	-0.1605624079	 1.5132454088	-0.378718
C	-1.2582731372	-0.704122172	 0.0479566708	 0.232764
C	-1.9909508092	-0.3861270109	-1.2533726878	-0.45228
C	-2.3932883849	 1.0102475132	-1.4042778564	 0.289579
C	-2.6889805226	 2.168623899	-1.5350086591	-0.440515
C	-1.3082340014	-2.1079293069	 0.5606598715	-0.258482
N	-2.1190244989	-1.0654042468	 1.1853832133	-0.333118
H	 1.3024620361	 1.452175489	-0.1759776812	 0.260885
H	-0.0668914776	 1.2989103537	-1.1990661825	 0.266451
H	-1.3633212898	-0.6781319629	-2.1055982818	 0.139786
H	-2.8820570973	-1.021265684	-1.2887808516	 0.153517
H	-2.9810638626	 3.1843912852	-1.6408759028	 0.205047
H	-1.8620803402	-2.8515462035	-0.0067292741	 0.116188
H	-0.4312022365	-2.4656368495	 1.0896160517	 0.140103
H	-1.6402760486	-0.7578335551	 2.0320820271	 0.249537
68.3055	82.6271	134.8712	257.1065	301.0161	331.1166	338.5752	358.0065	435.201	466.0056	484.7762	578.3386	621.5897	635.863	649.3588	714.6722	779.7662	828.64	904.0079	931.0813	974.1069	997.9199	1013.9291	1106.0755	1127.2562	1137.691	1213.0973	1279.4998	1306.1785	1321.2032	1378.0149	1408.2386	1458.4288	1492.9531	1633.3161	1775.3667	2233.1565	3026.1468	3076.9479	3112.7373	3213.0017	3474.0033	3502.6182	3564.9918	3687.488
NC(=O)C1(CC#C)CN1	NC(=O)[C@@]1(CC#C)CN1	
InChI=1S/C6H8N2O/c1-2-3-6(4-8-6)5(7)9/h1,8H,3-4H2,(H2,7,9)	InChI=1S/C6H8N2O/c1-2-3-6(4-8-6)5(7)9/h1,8H,3-4H2,(H2,7,9)/t6-/m1/s1
