18
gdb 84815	3.16681	1.15561	0.90671	1.2617	77.78	-0.2475	0.0192	0.2667	1277.7081	0.146918	-401.931636	-401.922736	-401.921792	-401.966063	32.701	
C	-0.0274772407	 1.5510617984	-0.1635992194	-0.3918
C	 0.0275399256	 0.0341606171	 0.0096697878	 0.008175
N	 0.6520011213	-0.6123861341	-1.1651001693	-0.270692
C	 1.494202482	-1.4363202893	-0.7032487046	 0.113708
O	 1.671038611	-1.5520996239	 0.6334768193	-0.222255
C	 0.8370336935	-0.5221580766	 1.2299146746	 0.080095
C	 1.7462502147	 0.4733875887	 1.9685384388	-0.384691
C	 2.4581623379	-0.1358067094	 3.0846066039	 0.294368
C	 3.0291932259	-0.6430978133	 4.0118703509	-0.415012
H	 0.9713449568	 1.9830662815	-0.2706258591	 0.12341
H	-0.5880645473	 1.7851148818	-1.0717176867	 0.132641
H	-0.5298614221	 2.0333517903	 0.6809094821	 0.114965
H	-1.0042110798	-0.3340159255	 0.0744341709	 0.094906
H	 2.1203514672	-2.0962711809	-1.2938227425	 0.141777
H	 0.1883986148	-1.0191727055	 1.9549732137	 0.10552
H	 2.4617465771	 0.9036116859	 1.2580105026	 0.141213
H	 1.1310855531	 1.3036578131	 2.3357448056	 0.137111
H	 3.5419296491	-1.0906767485	 4.8267494515	 0.196561
42.336	75.5944	124.8558	237.4615	249.7538	308.6447	347.817	365.0014	445.8005	516.2456	573.8972	621.305	642.6628	718.527	816.9716	845.6824	865.4565	943.2171	957.0728	967.3181	1007.8749	1028.9933	1086.8141	1124.4602	1133.4828	1156.8867	1233.0197	1280.8303	1313.9538	1319.6458	1360.1433	1368.8546	1391.8044	1409.4807	1457.0682	1489.135	1501.2578	1709.1036	2243.3348	3016.7249	3031.4189	3044.0279	3066.7026	3087.1365	3114.7242	3126.0464	3213.5426	3507.3598
CC1N=COC1CC#C	C[C@H]1N=CO[C@H]1CC#C	
InChI=1S/C7H9NO/c1-3-4-7-6(2)8-5-9-7/h1,5-7H,4H2,2H3	InChI=1S/C7H9NO/c1-3-4-7-6(2)8-5-9-7/h1,5-7H,4H2,2H3/t6-,7+/m1/s1
