19
gdb 74022	2.7694	1.51634	1.0438	3.7283	85.11	-0.231	-0.0328	0.1981	1158.3951	0.159613	-385.913781	-385.905441	-385.904497	-385.947061	31.496	
C	-0.0778074251	 1.4772327009	 0.0017976781	-0.495558
C	-0.0676045022	-0.011296394	 0.1287419182	 0.036155
C	-1.0671623305	-0.9000411227	 0.1843441724	 0.218412
C	-2.4564931392	-1.1874055081	-0.3265501178	-0.31639
C	-1.8170966984	-2.5137768673	-0.897097758	-0.241904
C	-0.6439095466	-2.3409328222	 0.1342248874	-0.041057
C	 0.8598973499	-2.2865706079	-0.1413181369	-0.374181
C	 1.2117186392	-0.7882011972	 0.0835161471	 0.335358
O	 2.3277645661	-0.3238344502	 0.1105716472	-0.327751
H	 0.533385364	 1.800859217	-0.8474527995	 0.138499
H	-1.091530642	 1.8675255407	-0.1199396496	 0.117955
H	 0.362975423	 1.9414193771	 0.8915557645	 0.142955
H	-3.1762006048	-1.4082851396	 0.4683930273	 0.12176
H	-2.9027225053	-0.475415149	-1.024253716	 0.11798
H	-2.4170038658	-3.4237720085	-0.8277272062	 0.107797
H	-1.4774164231	-2.3734570734	-1.9260799661	 0.115263
H	-0.8829753224	-2.8903828501	 1.0514630627	 0.090362
H	 1.4773356798	-2.9338504329	 0.4859617397	 0.122996
H	 1.0951109333	-2.5251808826	-1.1851784545	 0.131348
70.1787	101.5555	147.6906	221.4524	257.2674	327.0065	384.6286	496.0063	554.1532	585.8481	634.2829	680.9552	711.0971	795.8296	821.9393	877.5545	890.9157	928.9743	1010.7415	1033.7894	1046.2322	1075.3481	1084.0753	1101.8255	1128.1137	1174.5226	1200.53	1215.1781	1231.3319	1243.0586	1272.4653	1300.816	1336.6357	1411.5183	1451.6828	1471.0536	1474.0061	1482.842	1487.6374	1733.8438	1809.6333	3033.6225	3042.168	3050.3984	3053.2006	3065.2468	3086.4779	3108.2223	3110.2391	3118.0938	3130.0551
CC1=C2CCC2CC1=O	C[C]1[C]2CC[C@H]2CC1=O	
InChI=1S/C8H10O/c1-5-7-3-2-6(7)4-8(5)9/h6H,2-4H2,1H3	InChI=1S/C8H10O/c1-5-7-3-2-6(7)4-8(5)9/h6H,2-4H2,1H3/t6-/m0/s1
