17
gdb 10972	2.70061	2.46575	1.84353	3.3056	67.81	-0.237	-0.0081	0.2289	806.4368	0.143293	-363.857909	-363.85079	-363.849846	-363.888922	27.614	
C	 0.0333771667	 1.5479577009	 0.0573175478	-0.495305
C	 0.0220567432	 0.0446231996	 0.030838655	 0.202333
C	 0.5419377235	-0.7128367797	-1.2240804595	-0.263316
C	 0.3915141719	-2.1897133366	-0.7180909889	-0.236668
C	-0.1752977113	-1.8975751357	 0.6946036173	-0.122493
N	 0.6174636095	-0.7224652433	 1.1885152422	-0.350947
C	-1.2242653222	-0.8190329327	 0.3510032553	 0.45378
O	-2.4057032548	-0.6767913633	 0.3889046106	-0.319083
H	 1.0451463563	 1.9409671247	-0.0932593661	 0.117897
H	-0.6013089861	 1.9449307431	-0.7413705961	 0.131676
H	-0.3425303286	 1.9202909287	 1.0135669774	 0.138319
H	-0.0512981269	-0.5047326418	-2.1194360125	 0.114426
H	 1.5800943888	-0.4408223175	-1.4398608595	 0.102788
H	-0.2849024753	-2.7886823329	-1.3344652575	 0.116524
H	 1.3484880016	-2.7161834352	-0.6596887691	 0.105979
H	-0.3576501956	-2.7230541575	 1.380002425	 0.090745
H	 1.6227492693	-0.8657293206	 1.0771452287	 0.213346
151.1366	172.1977	219.0263	247.6223	314.0684	460.1051	483.7297	591.921	663.801	736.9404	759.7258	807.0622	850.9935	861.1645	887.7288	900.8355	955.0279	997.3609	1047.7887	1056.2917	1097.5242	1119.4511	1139.3638	1184.1762	1227.6928	1258.9462	1283.0755	1294.7706	1320.8184	1359.8045	1414.7529	1481.4269	1490.8555	1492.4698	1505.6483	1929.7035	3035.2675	3045.1529	3057.5433	3087.3944	3099.788	3106.0282	3123.2624	3143.7527	3435.3001
CC12CCC(N1)C2=O	C[C@@]12CC[C@@H](N1)C2=O	
InChI=1S/C6H9NO/c1-6-3-2-4(7-6)5(6)8/h4,7H,2-3H2,1H3	InChI=1S/C6H9NO/c1-6-3-2-4(7-6)5(6)8/h4,7H,2-3H2,1H3/t4-,6+/m1/s1
