17
gdb 13307	5.49563	1.19575	1.03005	4.2023	74.02	-0.2524	0.0118	0.2643	1116.0598	0.143737	-326.759269	-326.751717	-326.750773	-326.791727	27.727	
N	-0.0545930046	-1.2016374571	-0.0320794714	-0.312756
C	-0.0459873141	-0.0459024733	-0.0429070577	 0.262672
C	-0.0042523747	 1.4149675286	-0.0538382937	-0.352058
C	 1.4362567261	 1.9741507709	 0.012387234	-0.016648
C	 1.4694638653	 3.5259092411	-0.0322974844	-0.23621
C	 2.6082799219	 3.9487338564	 0.9303681702	-0.256133
C	 2.7972661148	 2.7225010596	 1.7913571584	-0.06548
C	 2.1701543702	 1.6572579131	 1.2974692175	-0.067628
H	-0.5028854982	 1.7687899511	-0.9636713616	 0.149984
H	-0.5864757654	 1.787883847	 0.7969385622	 0.150071
H	 1.9863629903	 1.5502273089	-0.8395968603	 0.099684
H	 1.5993445054	 3.9124426604	-1.0461465239	 0.105378
H	 0.5156549833	 3.9155369913	 0.3416833484	 0.104518
H	 3.5341034597	 4.1847569012	 0.3875685265	 0.112486
H	 2.3569403283	 4.8449802869	 1.5081676769	 0.108157
H	 3.4145405156	 2.7248105675	 2.6830012216	 0.099053
H	 2.193451056	 0.6567214964	 1.7148279475	 0.11491
69.3024	94.9975	145.7333	279.89	318.9794	399.1599	450.814	526.7082	643.4996	750.4123	765.5647	845.3492	846.1229	918.8536	927.3735	940.009	980.243	991.4623	1052.169	1069.6953	1088.6331	1139.6298	1176.247	1213.4909	1231.5047	1279.4208	1312.979	1321.3587	1338.9939	1356.2292	1390.0258	1465.3938	1483.5938	1500.3883	1687.7889	2359.5453	3001.8888	3013.6273	3036.1834	3041.3483	3061.3445	3080.1949	3100.5625	3185.8329	3210.5109
N#CCC1CCC=C1	N#CC[C@H]1CCC=C1	
InChI=1S/C7H9N/c8-6-5-7-3-1-2-4-7/h1,3,7H,2,4-5H2	InChI=1S/C7H9N/c8-6-5-7-3-1-2-4-7/h1,3,7H,2,4-5H2/t7-/m1/s1
