15
gdb 128220	5.45534	0.92743	0.79877	5.9631	73.83	-0.2199	-0.0621	0.1579	1363.0635	0.112723	-450.126406	-450.118058	-450.117114	-450.159798	29.496	
C	 0.0123730112	 1.4103745892	 0.1695055749	-0.329805
N	-0.1596517143	-0.0036775475	-0.0971249764	-0.368254
C	 0.534087873	-0.5824556897	-1.1286520691	 0.370109
C	 1.1546754249	-0.0403426316	-2.2237357193	-0.185304
N	 1.6225419198	-1.1403192445	-2.9160437771	-0.000112
C	 2.3379442319	-1.1362665022	-4.1277364405	 0.195165
O	 2.733577265	-2.1121384656	-4.6925625081	-0.245445
N	 1.3068781126	-2.2872290207	-2.2597535824	-0.099124
N	 0.6590142944	-1.9566323108	-1.1956824357	-0.241163
H	 1.0599330212	 1.6943831843	 0.3562814436	 0.119583
H	-0.3526683192	 1.9979006052	-0.6805656012	 0.135147
H	-0.5850465176	 1.6854485688	 1.0406714227	 0.137908
H	-0.2332824143	-0.6050499627	 0.7098588425	 0.255709
H	 1.3046959939	 0.9661873653	-2.569913548	 0.150167
H	 2.4830034673	-0.1002039874	-4.4844842859	 0.105419
86.5443	118.5856	151.391	181.2741	232.2048	246.9156	364.933	439.6547	491.1208	545.5036	643.8097	683.4027	748.689	751.7308	804.2883	987.9863	1023.6751	1036.1478	1094.3625	1152.992	1163.7222	1198.055	1238.5785	1277.6037	1374.7516	1416.9156	1450.3645	1466.8172	1484.7011	1510.1318	1527.8102	1669.6921	1853.8752	2973.3593	2982.0881	3061.4332	3129.572	3299.7102	3615.2324
CNC1=CN(C=O)N=N1	CNc1cn(C=O)nn1	
InChI=1S/C4H6N4O/c1-5-4-2-8(3-9)7-6-4/h2-3,5H,1H3	InChI=1S/C4H6N4O/c1-5-4-2-8(3-9)7-6-4/h2-3,5H,1H3
