17
gdb 31645	3.57499	1.07859	0.8373	0.8657	71.76	-0.1938	0.0539	0.2476	1331.2682	0.135831	-455.179403	-455.169952	-455.169008	-455.214674	33.043	
C	-0.0180351059	 1.4899638249	 0.0218581691	-0.345753
N	 0.0164816044	 0.0432901373	-0.026983035	-0.055262
C	 0.0095184574	-0.7645594961	-1.1654559191	-0.203958
C	 0.052627302	-2.0471129611	-0.7075185518	 0.268411
C	 0.06532618	-3.3126815856	-1.4985322601	-0.18303
O	 0.0197841423	-2.9796013017	-2.8776217071	-0.419883
N	 0.0866379384	-2.0723588308	 0.6792237297	-0.439074
C	 0.063372777	-0.811998469	 1.0242491607	 0.432161
O	 0.0815914962	-0.3290641193	 2.2815902129	-0.432245
H	 0.8519651087	 1.91778368	-0.4866721075	 0.140086
H	-0.9266810176	 1.8736630491	-0.453082356	 0.140136
H	-0.0061418065	 1.8051814591	 1.0653187681	 0.162051
H	-0.0249180425	-0.3504835918	-2.1574713959	 0.134032
H	 0.9714832959	-3.8905029041	-1.2519812798	 0.100113
H	-0.7944041938	-3.9375062968	-1.2048747374	 0.100165
H	 0.0328331554	-3.7979757962	-3.3807160738	 0.289093
H	 0.1142949286	-1.1003134381	 2.8607378431	 0.312957
45.4998	57.1296	143.4388	165.1021	188.9112	242.7947	289.0876	333.7186	381.7195	396.2766	523.4579	644.0765	654.1336	683.7504	697.1627	729.9453	835.4897	1012.8413	1048.8116	1064.8774	1088.6101	1154.4514	1165.5027	1184.783	1229.8121	1231.8707	1292.7046	1328.3535	1365.6623	1454.8576	1470.6018	1490.3597	1510.816	1516.0081	1591.7824	1600.5279	1630.7495	2959.8812	2977.189	3038.0226	3094.0898	3155.8122	3295.8591	3811.5753	3844.6551
CN1C=C(CO)N=C1O	Cn1cc(CO)nc1O	
InChI=1S/C5H8N2O2/c1-7-2-4(3-8)6-5(7)9/h2,8H,3H2,1H3,(H,6,9)	InChI=1S/C5H8N2O2/c1-7-2-4(3-8)6-5(7)9/h2,8H,3H2,1H3,(H,6,9)
