19
gdb 117900	2.37024	0.9545	0.72688	3.0304	80.25	-0.2705	-0.072	0.1985	1572.4202	0.155501	-423.010767	-423.000342	-422.999398	-423.046953	37.043	
C	-0.0840797006	 1.5817646715	 0.0704820862	-0.385217
C	 0.0348933072	 0.0577384267	-0.0040962601	-0.164158
C	 0.6690546608	-0.5482084431	 1.2520838257	-0.189136
C	 0.8351459711	-2.0760920563	 1.1362579217	 0.018437
O	 1.6444018315	-2.4203536853	 0.045161556	-0.435022
C	 1.4334284443	-2.6657814832	 2.4119557509	 0.208311
O	 2.5027470069	-3.2445143129	 2.3756975049	-0.317278
C	 0.6799460762	-2.5143460299	 3.6354360957	 0.289781
C	 0.0301554462	-2.3945180533	 4.6415403675	-0.406929
H	 0.8996594738	 2.0506221628	 0.1839587885	 0.116613
H	-0.5424019396	 1.9876235127	-0.8366340788	 0.114797
H	-0.6986052399	 1.8938233123	 0.9225483267	 0.111502
H	-0.9593780919	-0.3842184557	-0.1531554978	 0.093388
H	 0.6353769152	-0.2315514283	-0.8723813932	 0.124369
H	 1.6602673821	-0.1071117415	 1.4190351296	 0.104299
H	 0.0581091889	-0.3183473104	 2.13336429	 0.103997
H	-0.1670189062	-2.5243916538	 1.0170992712	 0.09559
H	 2.4037516422	-2.8936197556	 0.4223184353	 0.294825
H	-0.5327539481	-2.2942187367	 5.5381148101	 0.221831
52.6035	86.5455	94.7287	119.5662	162.3836	235.5964	250.3182	300.2228	331.6914	351.8086	426.4507	450.1064	529.5333	613.7229	653.6892	700.9964	717.226	751.5883	847.0691	877.9653	916.5036	978.3314	1049.7109	1098.3129	1110.942	1124.0735	1188.661	1249.7924	1265.5606	1303.6968	1329.276	1363.1318	1385.8253	1412.5019	1435.7142	1474.7144	1494.1297	1500.1022	1510.1255	1747.4019	2214.7785	2955.2595	3017.9845	3026.1657	3030.1525	3064.5985	3080.2515	3101.408	3103.3048	3491.8059	3678.9377
CCCC(O)C(=O)C#C	CCC[C@@H](O)C(=O)C#C	
InChI=1S/C7H10O2/c1-3-5-7(9)6(8)4-2/h2,7,9H,3,5H2,1H3	InChI=1S/C7H10O2/c1-3-5-7(9)6(8)4-2/h2,7,9H,3,5H2,1H3/t7-/m1/s1
