23
gdb 101477	3.30768	0.98283	0.80354	1.1017	82.62	-0.2505	0.0904	0.3409	1509.7147	0.205275	-425.438644	-425.428557	-425.427613	-425.474578	36.326	
C	 0.1558067535	 1.5092604669	 0.0591223021	-0.392124
C	-0.0081287412	-0.0122148859	-0.0076324653	-0.175642
C	-1.4701174952	-0.4925898702	 0.0515535724	 0.00664
C	-2.3023881527	-0.0412837306	-1.1564756872	-0.406561
C	-1.515491965	-2.0116813769	 0.1772371502	 0.226535
O	-0.8111290446	-2.4530048971	 1.332197945	-0.273575
C	-1.5326196343	-3.5364482528	 1.908746703	-0.088673
C	-2.7340391584	-3.724125459	 0.9640300194	-0.111143
O	-2.8430125438	-2.4601714898	 0.3333832028	-0.253231
H	 1.215030087	 1.7841226075	 0.078386107	 0.111607
H	-0.2966589454	 2.0123740684	-0.8009121451	 0.116201
H	-0.3085046233	 1.9164884703	 0.9644546486	 0.113917
H	 0.456349336	-0.3906301451	-0.9291633576	 0.088317
H	 0.5369541836	-0.4705428168	 0.8233048543	 0.118293
H	-1.9300747337	-0.1029823027	 0.9695250027	 0.078442
H	-3.3244759379	-0.4205572975	-1.0878677427	 0.133096
H	-2.3481026753	 1.0488979842	-1.2199507566	 0.115169
H	-1.8663764182	-0.4106691384	-2.0927973522	 0.109348
H	-1.066481627	-2.4899450247	-0.7164869957	 0.055226
H	-0.9007757706	-4.4305609642	 1.9656766252	 0.103805
H	-1.845183221	-3.2622742053	 2.9236478976	 0.107847
H	-2.5381024816	-4.5156261903	 0.2245090141	 0.098483
H	-3.6729584606	-3.9419238901	 1.4772213982	 0.118022
47.9043	71.5703	90.8978	150.3523	186.0379	211.745	238.1813	285.9395	329.8258	400.2812	420.3897	527.9546	686.6417	736.6264	781.009	850.4167	882.1446	905.5187	948.9637	972.0107	979.9584	1006.8958	1023.7604	1056.23	1070.8856	1129.9882	1145.6491	1160.6993	1188.0949	1192.7488	1225.8037	1247.0827	1284.2737	1305.3197	1336.1526	1354.6623	1379.1613	1379.5016	1393.1839	1409.8767	1416.507	1433.5535	1488.6071	1496.5921	1501.7839	1509.618	1512.9595	1515.0635	1532.4562	2898.196	2988.1791	3011.1218	3022.2027	3025.9267	3033.9053	3036.1647	3060.4973	3077.4032	3098.7268	3103.4187	3109.595	3109.6893	3128.8734
CCC(C)C1OCCO1	CC[C@@H](C)C1OCCO1	
InChI=1S/C7H14O2/c1-3-6(2)7-8-4-5-9-7/h6-7H,3-5H2,1-2H3	InChI=1S/C7H14O2/c1-3-6(2)7-8-4-5-9-7/h6-7H,3-5H2,1-2H3/t6-/m1/s1
