22
gdb 120766	3.58417	0.7895	0.70699	1.5011	85.34	-0.2321	0.086	0.3181	1681.6783	0.192901	-404.284392	-404.274558	-404.273614	-404.320187	35.511	
C	-0.0366102593	 1.3585026811	 0.2651087857	-0.222268
O	-0.0730799149	-0.0440968506	 0.3405322389	-0.232366
C	-1.2282775477	-0.5907268712	-0.2694184311	-0.072991
C	-1.1547501046	-2.0907724788	-0.1748724448	-0.048045
C	-1.5884246163	-2.7893820428	 1.093665011	-0.305362
C	-2.4100966696	-2.9298353648	-0.1587359883	 0.041923
N	-3.686353604	-2.2679909826	-0.1997230866	-0.06287
C	-4.4841494687	-2.46416261	-1.4069582058	-0.223217
C	-4.8636270888	-3.1280933125	-0.1289220933	-0.220574
H	 0.8813810194	 1.6913293139	 0.7564070745	 0.122524
H	-0.0290141326	 1.7151083907	-0.7782662104	 0.098107
H	-0.8984683415	 1.8210057376	 0.7735176104	 0.100034
H	-2.1418216535	-0.2239177731	 0.2206628116	 0.101707
H	-1.278625056	-0.274899858	-1.3266326585	 0.078043
H	-0.3058750281	-2.5225483473	-0.6973340667	 0.08866
H	-1.0198307706	-3.6429010881	 1.4448905685	 0.109684
H	-2.0059656823	-2.1651292303	 1.8759216628	 0.12234
H	-2.3559459586	-3.8892266426	-0.6822662172	 0.069297
H	-5.0288289908	-1.5938166622	-1.7616895375	 0.116572
H	-4.0710559228	-3.0949549211	-2.1923655912	 0.110862
H	-4.7029618756	-4.2026474488	-0.0597750022	 0.111039
H	-5.6902209628	-2.7514724886	 0.4667572201	 0.116902
55.5712	76.7359	89.7966	112.8689	194.669	232.651	262.5367	301.3004	338.1373	431.3541	487.9321	588.7814	723.8957	815.5233	831.6982	855.384	898.2338	918.8574	955.9445	985.2378	1015.3701	1054.517	1055.7273	1071.3352	1110.7725	1117.4444	1119.8026	1135.0224	1151.0202	1174.8199	1176.837	1196.7039	1208.7328	1224.6095	1236.9043	1270.7575	1325.9238	1367.5635	1411.7557	1438.6279	1480.5802	1484.0758	1489.0272	1490.7692	1505.481	1518.9049	1528.9925	2945.1801	2962.4832	3000.9298	3016.6295	3043.4881	3094.9676	3099.3428	3107.995	3137.6543	3150.1042	3177.3336	3191.9277	3226.5459
COCC1CC1N1CC1	COC[C@H]1C[C@H]1N1CC1	
InChI=1S/C7H13NO/c1-9-5-6-4-7(6)8-2-3-8/h6-7H,2-5H2,1H3	InChI=1S/C7H13NO/c1-9-5-6-4-7(6)8-2-3-8/h6-7H,2-5H2,1H3/t6-,7-/m1/s1
