19
gdb 6909	4.07586	1.36317	1.24988	0.9192	77.7	-0.2256	0.04	0.2656	1055.3957	0.162512	-327.86451	-327.855358	-327.854414	-327.897702	34.212	
C	 1.0043836965	 0.5566698158	-1.9351559189	-0.47057
C	 0.4034371205	-0.4207097395	-0.9420833033	 0.343587
C	-1.112314659	-0.3841656783	-0.8798349778	-0.432074
C	 1.1115829059	-1.7031034465	-0.6485633847	-0.292382
N	 1.0327632478	-0.6551660074	 0.3665935757	-0.122872
C	 2.2352999943	 0.0693278223	 0.800894825	-0.285868
C	 3.4844563841	-0.1349314715	 0.060825455	 0.30691
C	 4.5194789442	-0.3336516235	-0.5196513619	-0.466944
H	 2.0914523695	 0.4849681757	-1.9870970843	 0.138578
H	 0.6020189123	 0.36750487	-2.9362971448	 0.119093
H	 0.7396621437	 1.5879359967	-1.6708176626	 0.114446
H	-1.5481385714	-0.6572963268	-1.8477430027	 0.111196
H	-1.4844343583	-1.0760943982	-0.120826556	 0.123078
H	-1.4682091258	 0.6211173628	-0.6253108524	 0.112448
H	 0.5518723197	-2.6099739361	-0.4292347055	 0.105309
H	 2.0706807962	-1.86656134	-1.1352105224	 0.119315
H	 1.9954065787	 1.1394527905	 0.8229248041	 0.135595
H	 2.4169457195	-0.2207005399	 1.8439088686	 0.140903
H	 5.4353896517	-0.495660536	-1.032445891	 0.200251
75.2774	132.115	193.4244	204.1443	222.6643	260.2221	328.2084	358.5878	382.8202	408.255	468.2903	602.1993	612.5116	661.0584	697.8473	740.2295	884.1285	916.312	934.6811	964.2076	993.5388	1015.0377	1033.5763	1112.4821	1138.2668	1143.0169	1190.686	1272.4877	1298.8279	1350.5191	1392.5017	1407.7213	1421.7831	1466.5894	1480.8934	1488.8593	1500.9247	1506.4697	1517.5764	2222.878	3019.2948	3025.3898	3030.759	3051.3325	3082.3541	3087.6976	3092.3966	3122.9796	3142.142	3176.7984	3501.7578
CC1(C)CN1CC#C	CC1(C)CN1CC#C	
InChI=1S/C7H11N/c1-4-5-8-6-7(8,2)3/h1H,5-6H2,2-3H3	InChI=1S/C7H11N/c1-4-5-8-6-7(8,2)3/h1H,5-6H2,2-3H3
