17
gdb 73397	2.77022	2.07727	1.56005	1.7245	71.8	-0.2306	0.0013	0.2318	875.3956	0.137891	-421.794468	-421.787992	-421.787047	-421.824787	27.74	
O	 0.1618590871	 1.3849364182	 0.1591545329	-0.477575
C	 0.0376402075	 0.0200781367	 0.0470279377	 0.371644
C	 0.8831361335	-0.7796410425	 1.025950982	-0.122614
O	 0.5270063624	-2.1248865522	 0.6496272838	-0.273947
C	-0.3891886715	-1.9014074473	-0.3974306954	 0.132779
C	-1.3597899265	-0.7429258369	 0.0490157431	-0.161513
C	-2.001677326	-0.3147941213	-1.2483072764	-0.128606
C	-0.9928284681	-0.333656429	-2.1350883629	-0.128633
C	 0.202279175	-0.7722824756	-1.324106655	-0.161508
H	-0.4186884922	 1.773393477	-0.509754049	 0.283681
H	 1.958628705	-0.6183539286	 0.8933559854	 0.113741
H	 0.617469353	-0.5931200437	 2.0723299853	 0.11374
H	-0.7661148879	-2.8382907139	-0.806188781	 0.091763
H	-1.95404563	-0.8297107337	 0.9586548304	 0.068043
H	-3.0476009958	-0.0896564221	-1.4007028646	 0.105481
H	-1.0052780923	-0.1278659017	-3.1959194988	 0.105479
H	 1.1784498466	-0.8885863235	-1.7949356373	 0.068044
244.6285	270.2428	343.8958	400.7486	412.878	460.3048	562.9597	603.88	632.7529	670.6724	739.2436	778.5971	787.1874	906.6445	922.1773	922.3501	933.5539	959.6868	986.0364	1004.7146	1043.8982	1051.2214	1074.8986	1116.0826	1134.1154	1177.2812	1180.4473	1184.9768	1240.7694	1242.2456	1276.7923	1289.7735	1339.8253	1377.4574	1419.9089	1515.7063	1609.1054	3035.8278	3080.0557	3119.9674	3121.1538	3139.0848	3221.1039	3246.2038	3746.2957
OC12COC3C1C=CC23	O[C@@]12CO[C@H]3[C@@H]1C=C[C@@H]23	
InChI=1S/C7H8O2/c8-7-3-9-6-4(7)1-2-5(6)7/h1-2,4-6,8H,3H2	InChI=1S/C7H8O2/c8-7-3-9-6-4(7)1-2-5(6)7/h1-2,4-6,8H,3H2/t4-,5+,6-,7-
