17
gdb 38631	3.48996	2.02	1.69576	1.2116	70.12	-0.2246	0.0683	0.2929	826.7027	0.138893	-421.752851	-421.747166	-421.746222	-421.782503	25.077	
C	-0.0592650095	 1.5415183769	 0.0885027318	-0.346819
C	 1.5061198856	 1.3133582986	-0.0134156314	 0.03618
O	 1.8614607943	 0.6883088988	 1.2193414748	-0.263368
C	 1.054922405	-0.469699337	 1.0600023184	 0.058317
C	 1.5277817804	-1.2794768683	-0.1760002648	-0.154722
C	 0.2159485404	-2.0719253633	-0.4818406588	-0.103569
O	-0.8403575699	-1.0677717722	-0.2903515621	-0.344715
C	-0.0189767643	 0.0218192289	 0.0093871026	 0.419626
C	 1.238044945	 0.0452397522	-0.9112369217	-0.087795
H	-0.4418945888	 2.0336378458	 0.985438868	 0.111357
H	-0.4513382168	 2.0038437909	-0.820132118	 0.116356
H	 2.1919521962	 2.1149336619	-0.277269836	 0.090646
H	 0.7961154638	-0.9344516699	 2.0099444522	 0.085561
H	 2.4575166304	-1.8493889697	-0.2165225925	 0.075753
H	 0.1652112645	-2.44873629	-1.5085876874	 0.113849
H	 0.0542881462	-2.9008292325	 0.2152142738	 0.113862
H	 1.1494050275	 0.148528909	-1.9907728789	 0.079481
287.9473	372.6212	415.0498	447.8163	504.3303	623.3936	661.17	718.1061	752.0521	791.7586	856.9876	870.608	904.8797	923.3431	931.4588	935.1278	944.1524	996.6551	1008.9745	1028.8807	1056.355	1076.6186	1110.7721	1135.2951	1151.8366	1164.1711	1185.6283	1215.8804	1223.5381	1250.707	1256.9339	1281.1353	1304.7819	1339.2497	1380.2658	1481.4304	1514.6699	3039.0166	3067.8199	3086.2994	3102.3048	3135.3961	3137.53	3140.6261	3153.5093
C1C2OC3C4COC13C24	C1[C@H]2O[C@@H]3[C@H]4CO[C@@]13[C@@H]24	
InChI=1S/C7H8O2/c1-4-5-3-2-8-7(1,5)6(3)9-4/h3-6H,1-2H2	InChI=1S/C7H8O2/c1-4-5-3-2-8-7(1,5)6(3)9-4/h3-6H,1-2H2/t3-,4+,5+,6+,7+/m0/s1
