21
gdb 101009	2.31265	1.3343	1.0429	1.633	74.7	-0.2458	0.0674	0.3132	1248.332	0.179419	-461.326099	-461.31577	-461.314826	-461.361786	37.062	
C	-0.0585259127	 1.3989231132	-0.0181488409	-0.235318
O	-0.0673873801	 0.0076114629	 0.2034464847	-0.247728
C	-1.3218022565	-0.6254092942	 0.0044308847	 0.099925
C	-1.6624494423	-0.7935920452	-1.4779336769	-0.411186
C	-1.2445313496	-1.9695581662	 0.7346990703	 0.329002
O	-2.5037339964	-2.5819240863	 0.5624281326	-0.489255
C	 0.0013480481	-2.8502434787	 0.4509331794	-0.123926
O	 0.4173558458	-2.7802842579	 1.828408459	-0.27174
C	-0.6972084909	-1.9390353101	 2.1837419645	-0.127835
H	 0.9312684318	 1.7614724851	 0.2697180212	 0.130889
H	-0.2322979824	 1.660357498	-1.0714894703	 0.110508
H	-0.8163106033	 1.911458741	 0.5946221592	 0.105206
H	-2.1145426421	-0.0348901454	 0.4945061389	 0.07388
H	-0.8754221855	-1.3578733191	-1.9886950177	 0.120566
H	-2.6057790775	-1.3321171467	-1.5844207258	 0.141734
H	-1.7620210101	 0.1759070353	-1.9733706077	 0.113309
H	-2.4902571148	-3.4341559019	 1.0099100934	 0.285923
H	-0.2350417624	-3.8756362528	 0.1340707929	 0.087248
H	 0.7460964694	-2.4176342467	-0.2250465803	 0.113911
H	-0.374175354	-0.9596097069	 2.5499341318	 0.109415
H	-1.3622232946	-2.4112909376	 2.9204296769	 0.085474
63.5892	77.7759	82.0852	182.3151	193.329	208.5548	258.8305	291.5258	328.2071	354.5722	388.9131	432.5137	477.4285	531.7876	683.7087	842.8722	870.3838	908.3854	925.1938	990.8804	1005.3941	1037.8097	1051.5212	1084.6418	1135.0081	1140.7165	1156.0839	1159.425	1182.0227	1186.2203	1214.0076	1243.984	1302.8151	1337.9747	1368.0556	1383.4843	1399.0506	1422.2593	1477.2801	1483.9309	1493.142	1494.3189	1502.1307	1512.0838	1522.4017	2961.0066	2980.3501	2998.3407	3009.2217	3031.4167	3047.6182	3074.192	3078.2396	3113.3143	3115.3735	3141.8075	3816.2188
COC(C)C1(O)COC1	CO[C@@H](C)C1(O)COC1	
InChI=1S/C6H12O3/c1-5(8-2)6(7)3-9-4-6/h5,7H,3-4H2,1-2H3	InChI=1S/C6H12O3/c1-5(8-2)6(7)3-9-4-6/h5,7H,3-4H2,1-2H3/t5-/m0/s1
