20
gdb 41410	3.27196	1.84696	1.50576	1.6119	80.99	-0.2283	0.0876	0.3159	941.6723	0.174543	-365.971447	-365.964797	-365.963853	-366.002052	28.368	
C	-0.0608800547	 1.4676201742	 0.0201095742	-0.229479
C	 1.4963248584	 1.5550518037	-0.0861006545	-0.318496
C	 1.5412014609	 0.0399673512	-0.2838920921	 0.377815
C	 2.5056358598	-1.0019138059	 0.2287764698	-0.308357
C	 1.836328613	-2.2972079037	-0.3146878242	-0.246791
C	 0.970252051	-1.7809097812	-1.469365399	-0.027053
C	-0.1330794093	-0.8003087163	-1.2402922144	-0.05016
C	 0.0206303074	-0.0933678747	 0.0816800701	-0.092185
N	 1.2362897325	-0.3526841446	-1.7312415938	-0.176057
H	-0.483620212	 1.9320586229	 0.9131669821	 0.099678
H	-0.5955152297	 1.8472045016	-0.8537662253	 0.108673
H	 1.9152519979	 2.1497082547	-0.9011250247	 0.108327
H	 1.9564605864	 1.8650147491	 0.8567451714	 0.099737
H	 3.5030671393	-0.86208984	-0.204216577	 0.107216
H	 2.6023161324	-0.9936388675	 1.318324511	 0.099099
H	 2.5711692438	-3.0212171003	-0.6760756602	 0.105708
H	 1.2390811906	-2.7977572071	 0.4540394536	 0.107081
H	 0.8872062197	-2.3869164999	-2.3665024106	 0.090003
H	-0.9997896627	-0.7627663612	-1.8975100032	 0.083544
H	-0.3567703946	-0.5604237849	 0.9952218667	 0.061698
168.7608	210.7538	310.2364	354.4618	430.3225	504.9252	658.9033	668.932	720.8161	729.9263	763.5183	789.4094	821.8969	866.0914	879.5101	911.1437	921.5847	944.5324	979.5659	994.3963	1035.1829	1059.0278	1079.3751	1106.456	1122.6365	1150.9566	1163.0353	1173.4225	1205.2632	1220.3882	1231.2573	1247.0482	1269.1417	1289.6405	1297.4226	1305.9993	1355.8582	1364.2622	1390.6999	1467.5807	1479.8334	1487.749	1500.5075	3037.443	3051.9886	3055.3041	3061.8127	3069.7222	3086.7827	3100.9325	3107.636	3124.8862	3125.9105	3160.6097
C1CC23CCC4C(C12)N34	C1C[C@@]23CC[C@H]4[C@@H]([C@H]12)N34	
InChI=1S/C8H11N/c1-3-8-4-2-6-7(5(1)8)9(6)8/h5-7H,1-4H2	InChI=1S/C8H11N/c1-3-8-4-2-6-7(5(1)8)9(6)8/h5-7H,1-4H2/t5-,6-,7+,8+,9?/m0/s1
