16
gdb 48663	2.53641	1.31984	1.12954	3.1995	73.15	-0.2619	-0.0623	0.1996	1117.8198	0.122878	-437.865904	-437.857643	-437.856699	-437.899122	30.072	
O	-0.5917762365	 0.7781922561	 0.5618309493	-0.255325
C	 0.2325875669	 0.9637441058	-0.2998816568	 0.097277
C	 1.4015044368	 1.8508955971	-0.121704591	 0.173337
C	 1.7426984191	 2.6668401268	 1.1291319254	-0.297802
C	 2.1694025696	 3.8697384311	 0.2300996113	-0.297794
C	 1.829118262	 3.0563038393	-1.0226197806	 0.173327
N	 2.4913876191	 1.7688936923	-1.0724683629	-0.382375
C	 1.1524676381	 3.556749707	-2.2378775253	 0.09727
O	 0.800058906	 4.7032622665	-2.3715588224	-0.255323
H	 0.1749046578	 0.4805446585	-1.2977867608	 0.091839
H	 0.8567716143	 2.8745314004	 1.7295904159	 0.145635
H	 2.5112079346	 2.2239913711	 1.7691733711	 0.112728
H	 1.5173784577	 4.7368215963	 0.3377258158	 0.145636
H	 3.2110913255	 4.1970021719	 0.2945761082	 0.112719
H	 3.4076097726	 1.7766137991	-0.6272677699	 0.247028
H	 0.9922051464	 2.7858784809	-3.0206269672	 0.091822
75.1702	143.2922	179.246	182.3934	231.2066	265.003	399.1239	462.7225	503.4516	509.7337	663.4174	735.8832	775.6049	780.5175	810.2522	949.1986	979.8412	1026.9923	1048.3883	1069.5805	1083.7627	1105.4196	1109.812	1203.987	1226.5474	1256.1407	1261.7936	1355.6609	1379.9882	1398.8169	1460.3107	1478.8357	1497.2747	1800.1201	1810.5772	2912.2074	2922.6379	3062.2258	3069.2894	3132.9954	3146.6025	3471.1072
O=CC12CCC1(N2)C=O	O=C[C@]12CC[C@]1(N2)C=O	
InChI=1S/C6H7NO2/c8-3-5-1-2-6(5,4-9)7-5/h3-4,7H,1-2H2	InChI=1S/C6H7NO2/c8-3-5-1-2-6(5,4-9)7-5/h3-4,7H,1-2H2/t5-,6+
