21
gdb 26245	3.78967	1.02294	0.86657	1.6589	89.15	-0.1693	0.0535	0.2228	1418.5079	0.182474	-383.300797	-383.290964	-383.29002	-383.335654	36.227	
C	 0.0748980493	 1.2234956247	 0.5528254931	-0.32963
N	-0.0603295938	 0.0805662919	-0.3497874288	-0.1593
C	 1.1929445752	-0.6366973479	-0.51823267	-0.322367
C	-1.1650049057	-0.7490725466	-0.0923801783	 0.336889
C	-1.2763947742	-2.0506598358	 0.3445362624	-0.228327
C	-2.668306322	-2.3715277358	 0.3635048819	-0.223517
C	-3.3710891949	-1.2665347468	-0.0504172299	 0.305798
C	-4.8357627941	-1.0335650324	-0.214426423	-0.503955
N	-2.4409673675	-0.2814349634	-0.3246592449	-0.355575
H	 0.8098652508	 1.9253183534	 0.1452599904	 0.116845
H	-0.8801175781	 1.7454614272	 0.6454769583	 0.116017
H	 0.4000258114	 0.927944192	 1.5657380406	 0.105425
H	 1.5669200474	-1.0836012378	 0.4202862459	 0.10203
H	 1.0613808632	-1.436197386	-1.2507885018	 0.131402
H	 1.9572432034	 0.0555192412	-0.8859496442	 0.115106
H	-0.4606145748	-2.6943566877	 0.6327031994	 0.083948
H	-3.106812765	-3.3120454596	 0.6626274684	 0.083174
H	-5.2039849776	-0.2224878746	 0.427392418	 0.121443
H	-5.1070713456	-0.7772612102	-1.2472084861	 0.120121
H	-5.3851918668	-1.9394759448	 0.0524830401	 0.134757
H	-2.6408621908	 0.602502839	-0.7603360016	 0.249717
44.0867	120.0448	135.3303	173.8412	218.0844	238.8826	263.3459	312.9505	361.2661	394.7918	460.4124	485.6384	591.8579	636.799	674.8392	705.0259	771.904	809.3814	927.8957	988.5667	1002.6441	1027.582	1062.918	1063.5775	1069.7662	1120.7287	1179.2616	1181.5396	1217.9844	1260.9803	1273.956	1336.7319	1417.1722	1424.5811	1441.9434	1448.2834	1467.0798	1479.0478	1479.2967	1492.1744	1500.5328	1502.7502	1512.6902	1567.4049	1639.7662	2945.7965	2954.8991	3007.5458	3047.8544	3063.4024	3066.9116	3118.1635	3118.3235	3121.8964	3236.706	3258.1298	3671.8931
CN(C)C1=CC=C(C)N1	CN(C)c1ccc(C)[nH]1	
InChI=1S/C7H12N2/c1-6-4-5-7(8-6)9(2)3/h4-5,8H,1-3H3	InChI=1S/C7H12N2/c1-6-4-5-7(8-6)9(2)3/h4-5,8H,1-3H3
