19
gdb 117734	2.05919	1.15362	0.92224	3.4578	77.7	-0.2538	-0.0499	0.2039	1370.7019	0.15611	-419.217062	-419.206389	-419.205445	-419.253652	36.963	
C	-0.1074097805	 1.612652763	 0.1430460722	-0.390368
C	 0.035827973	 0.1068225175	-0.0539605915	-0.129747
N	-1.2768742655	-0.5401675152	 0.0654128582	-0.324819
C	-1.3282785173	-2.0011049773	-0.0778337685	 0.012721
C	-0.7565361404	-2.8144088714	 1.0956053467	-0.422417
C	-2.8493277212	-2.2699996304	-0.2634951758	 0.159969
O	-3.5253101691	-2.8215530718	 0.5579573369	-0.23575
C	-0.6782333917	-2.3919322758	-1.3395783949	 0.289935
N	-0.1934060842	-2.7355034216	-2.3307276849	-0.335462
H	 0.8605239548	 2.1069118279	 0.0219866533	 0.125865
H	-0.808667372	 2.0318786741	-0.5834959019	 0.134764
H	-0.4765589586	 1.8486649833	 1.1478765151	 0.116074
H	 0.4211496848	-0.1022514707	-1.0570443695	 0.138761
H	 0.7737564216	-0.2927261743	 0.6613151581	 0.093161
H	-1.6956090475	-0.3045712239	 0.9608064576	 0.229296
H	-1.336048047	-2.5960809402	 1.9955481608	 0.137882
H	-0.8288237562	-3.8873120014	 0.9011293412	 0.147097
H	 0.2919074173	-2.5611857558	 1.2649921837	 0.13599
H	-3.2591970304	-1.8361346257	-1.1963209167	 0.117052
47.9164	62.5354	93.4195	135.446	174.076	201.1209	237.089	260.3996	274.6286	349.1937	375.566	396.3466	515.3407	560.6329	645.205	737.4696	753.7862	818.6994	881.6499	931.3191	975.2038	1000.7075	1073.7408	1115.9182	1138.5833	1163.7165	1185.0545	1239.1039	1304.2845	1381.6472	1397.2256	1411.5031	1414.0853	1476.4179	1478.3142	1490.4006	1497.895	1507.5289	1524.3831	1841.414	2355.3492	2950.8714	2964.3029	3035.917	3057.2524	3073.6663	3105.8958	3126.2405	3134.4641	3143.0165	3508.4934
CCNC(C)(C=O)C#N	CCN[C@@](C)(C=O)C#N	
InChI=1S/C6H10N2O/c1-3-8-6(2,4-7)5-9/h5,8H,3H2,1-2H3	InChI=1S/C6H10N2O/c1-3-8-6(2,4-7)5-9/h5,8H,3H2,1-2H3/t6-/m1/s1
