17
gdb 126568	6.50823	0.76028	0.68942	5.7156	70.77	-0.254	0.0021	0.2561	1599.4139	0.135793	-455.181507	-455.172727	-455.171783	-455.216223	31.272	
C	 0.0005145042	 1.6101347517	-0.0300910155	-0.390497
C	-0.0093996725	 0.0808532266	 0.0153850331	-0.159805
C	 0.6895103084	-0.5346200368	-1.2028927179	-0.318241
C	 0.7041279942	-2.0280240783	-1.2004390382	 0.433132
N	 0.1903547087	-2.7683839575	-0.2739791209	-0.174748
O	 0.4336588593	-4.1076801637	-0.6790272154	-0.234899
C	 1.1049516081	-4.1285766651	-1.8721349406	 0.508381
O	 1.4522665917	-5.1077233297	-2.4668091768	-0.392201
N	 1.2716538562	-2.7879761783	-2.1919615595	-0.426327
H	 1.0231071197	 2.00350198	-0.0465593724	 0.117305
H	-0.5147842349	 1.9875199204	-0.9204604161	 0.117282
H	-0.5018276958	 2.0290217784	 0.8462567083	 0.124324
H	 0.4818394507	-0.2748880201	 0.9265472635	 0.126492
H	-1.0378755474	-0.2907555134	 0.0627255055	 0.1263
H	 0.204437751	-0.1960229532	-2.1290464898	 0.12914
H	 1.7278333174	-0.1796907723	-1.2631805883	 0.129344
H	 1.737699361	-2.4710579988	-3.0242487891	 0.285019
35.7428	73.2741	126.5605	178.0292	250.2603	318.4261	332.9119	345.992	466.562	537.9487	645.658	700.0095	744.9097	770.6969	772.1009	881.4201	909.5121	923.7813	971.2943	1028.4579	1057.19	1113.327	1130.2942	1196.6264	1237.5809	1256.9428	1316.8217	1324.3087	1393.7836	1416.8291	1465.919	1488.1017	1494.414	1502.0463	1509.4306	1657.2822	1905.0441	3011.372	3031.5462	3038.6153	3056.8454	3081.9126	3107.0658	3112.3	3687.1176
CCCC1=NOC(=O)N1	CCCc1noc(=O)[nH]1	
InChI=1S/C5H8N2O2/c1-2-3-4-6-5(8)9-7-4/h2-3H2,1H3,(H,6,7,8)	InChI=1S/C5H8N2O2/c1-2-3-4-6-5(8)9-7-4/h2-3H2,1H3,(H,6,7,8)
