16
gdb 128393	6.35362	0.82181	0.731	4.7318	83.62	-0.2059	-0.0224	0.1834	1496.2895	0.124827	-434.070868	-434.062118	-434.061174	-434.105821	30.158	
C	 0.0782848841	 1.4117290806	 0.2599536991	-0.312658
N	-0.0709612877	 0.0601193633	-0.2470578093	-0.28184
C	-1.2520455271	-0.5857306991	-0.2632294328	 0.104994
N	-2.3280210379	-0.0266954139	 0.1794711252	-0.394741
C	-3.5044535242	-0.7176505403	 0.1448482986	 0.54083
C	-4.7577517442	-0.3428840882	 0.5504801602	-0.370151
C	-5.5558836194	-1.4741142832	 0.2630076424	 0.044874
N	-4.8728249699	-2.459539666	-0.2692473948	-0.161091
O	-3.5572325733	-1.9812140062	-0.3476971579	-0.230086
H	 1.1237046909	 1.70989862	 0.1669456743	 0.127215
H	-0.5490322068	 2.109784779	-0.3033788278	 0.149459
H	-0.2222496775	 1.4676478706	 1.3109499411	 0.149663
H	 0.7352310814	-0.4198677156	-0.6049634077	 0.261558
H	-1.2118781869	-1.5970773984	-0.6744349711	 0.13652
H	-5.0437232894	 0.5993057971	 0.9843216116	 0.111913
H	-6.6164699421	-1.6103251797	 0.4256212589	 0.123541
44.5307	56.3969	111.5226	130.722	231.1462	234.6268	352.596	455.5182	472.8319	579.3834	637.7043	730.2876	798.8771	830.5982	920.2031	927.7354	931.4249	984.1548	1001.7008	1010.3179	1056.0087	1159.8744	1169.0309	1219.34	1251.1207	1291.373	1357.2124	1398.2383	1457.0741	1472.8624	1508.2912	1518.2021	1549.4822	1647.5145	1699.1272	3040.882	3097.3684	3105.16	3142.0109	3235.4836	3290.2627	3684.5263
CNC=NC1=CC=NO1	CNC=Nc1ccno1	
InChI=1S/C5H7N3O/c1-6-4-7-5-2-3-8-9-5/h2-4H,1H3,(H,6,7)	InChI=1S/C5H7N3O/c1-6-4-7-5-2-3-8-9-5/h2-4H,1H3,(H,6,7)
