18
gdb 71521	2.60022	1.52402	1.4269	1.3349	83.45	-0.2398	0.0327	0.2725	1028.896	0.146439	-364.690442	-364.682395	-364.681451	-364.722607	31.875	
C	 0.0167008948	 1.4952955593	-0.0214059718	-0.518935
C	-0.0058387889	-0.0007135868	-0.0910945646	 0.322914
C	 0.573631496	-0.9348172079	-1.1616805924	-0.307125
C	 0.0565100794	-1.849552344	-0.0543942216	-0.040897
N	 0.5740508823	-0.8969261284	 1.0500153368	-0.205547
C	-0.7948583374	-0.9409730984	 1.7117256625	-0.24132
C	-1.2113169506	-0.9744405899	 0.2400552492	 0.220497
C	-2.5084959799	-1.0276377585	-0.3708420933	 0.03736
C	-3.5970573118	-1.062418561	-0.88378453	-0.361458
H	 1.0475922555	 1.8613272501	-0.0624409647	 0.134842
H	-0.5353630191	 1.9240543198	-0.8641210381	 0.132366
H	-0.4387724494	 1.8613441986	 0.9042406418	 0.127966
H	 0.0504950205	-0.9714613182	-2.1199654551	 0.108703
H	 1.6594266503	-0.9003180194	-1.2859249682	 0.10787
H	 0.136650263	-2.9307147625	 0.0676514819	 0.0886
H	-0.9635368896	-1.8461342204	 2.3033318515	 0.10578
H	-1.0382180791	-0.0492253121	 2.2969719029	 0.105457
H	-4.5577227759	-1.0964699703	-1.335269007	 0.182927
119.3993	137.104	194.1556	274.6143	288.2963	382.0402	437.194	503.5479	518.8922	557.5833	626.9088	645.051	652.3954	709.3482	783.892	865.3571	876.6804	899.9046	928.8393	950.1298	1007.3752	1019.7362	1078.7825	1088.7149	1111.9054	1140.7808	1162.7183	1179.5482	1211.4323	1236.9402	1261.0626	1302.0919	1326.0097	1409.9684	1481.3619	1484.6617	1489.5629	1519.0017	2223.5323	3034.9425	3044.6018	3058.8743	3103.3346	3107.3558	3108.3499	3108.8577	3126.8185	3499.6254
CC12CC3N1CC23C#C	C[C@@]12C[C@H]3N1C[C@@]23C#C	
InChI=1S/C8H9N/c1-3-8-5-9-6(8)4-7(8,9)2/h1,6H,4-5H2,2H3	InChI=1S/C8H9N/c1-3-8-5-9-6(8)4-7(8,9)2/h1,6H,4-5H2,2H3/t6-,7+,8-/m1/s1
