18
gdb 30263	4.54996	1.2925	1.04657	3.0398	78.85	-0.179	0.0535	0.2325	1143.5651	0.149926	-401.985588	-401.978014	-401.97707	-402.017676	29.556	
C	-0.6178188042	 1.4056603429	-0.0304282087	-0.407818
C	 0.1991960321	 0.1310283548	 0.0230055052	 0.118097
C	 1.1153151978	-0.1243668502	-1.2083123849	-0.217285
N	 2.2573148695	-0.7187391573	-0.5511389601	-0.032707
C	 3.4791515807	-1.2738217728	-0.8855777479	-0.15326
C	 4.1913016309	-1.3882045774	 0.2848923307	-0.127278
C	 3.4035138525	-0.8674215026	 1.3681689382	-0.343358
C	 2.2328042308	-0.4607829774	 0.7874952068	 0.420362
O	 1.095088671	 0.1810689937	 1.1624562635	-0.292152
H	 0.033478349	 2.2751347345	-0.1581904235	 0.132747
H	-1.3230447501	 1.3692155123	-0.866932293	 0.123115
H	-1.1883243986	 1.5321284253	 0.8931475382	 0.138209
H	-0.4555528757	-0.7397043747	 0.1634106872	 0.096268
H	 0.6453548502	-0.7972850991	-1.9307612964	 0.125475
H	 1.3812248941	 0.8107840997	-1.7203449679	 0.117028
H	 3.7093461638	-1.5668745486	-1.8961137045	 0.112402
H	 5.1751879401	-1.8234841781	 0.3760066903	 0.092027
H	 3.6702088761	-0.811294285	 2.4100057168	 0.098128
82.1486	150.0563	224.1512	263.28	301.5934	445.6929	474.8483	583.9463	597.4841	636.8461	681.9847	736.5635	745.8588	790.367	813.1182	841.7363	906.9102	931.7063	956.0668	1032.9091	1069.5424	1094.8279	1131.0246	1152.2266	1182.9334	1219.9243	1245.6781	1293.3475	1325.0629	1354.3465	1389.2446	1409.6785	1419.943	1482.2463	1485.3222	1497.4295	1511.1129	1536.5627	1627.0973	3004.4017	3014.3258	3044.2617	3085.3647	3117.2424	3128.0803	3242.2514	3271.5735	3277.5586
CC1CN2C=CC=C2O1	C[C@H]1Cn2cccc2O1	
InChI=1S/C7H9NO/c1-6-5-8-4-2-3-7(8)9-6/h2-4,6H,5H2,1H3	InChI=1S/C7H9NO/c1-6-5-8-4-2-3-7(8)9-6/h2-4,6H,5H2,1H3/t6-/m0/s1
