14
gdb 25589	4.59714	0.90413	0.811	3.429	65.38	-0.2624	-0.0247	0.2377	1336.0236	0.101313	-473.866113	-473.858292	-473.857348	-473.900388	26.708	
O	 0.4835108623	 0.1250859316	 0.5801297087	-0.265739
C	 0.5436114802	 1.3154829856	 0.6062987494	 0.180755
O	 0.7912130771	 2.0541411813	-0.4969919919	-0.171558
C	 0.8958126503	 3.4795376432	-0.3314747105	-0.230082
C	 2.3065463638	 3.9270696091	-0.2708603021	 0.351471
C	 3.1330210708	 4.612176901	-1.0985893438	-0.184125
N	 4.3809554208	 4.7432972812	-0.5045063619	-0.251226
C	 4.2515398952	 4.1374813595	 0.6296074124	 0.082897
O	 3.0248740088	 3.6163863143	 0.8573089034	-0.175538
H	 0.3957557915	 1.9329421945	 1.5136023622	 0.083021
H	 0.4090818022	 3.9289844364	-1.198913027	 0.148378
H	 0.3492762257	 3.785736841	 0.5695720468	 0.132709
H	 2.9219145864	 5.0195415721	-2.0747638913	 0.138084
H	 4.989092455	 3.9975558992	 1.4042216356	 0.160952
40.8279	54.3528	126.4062	188.7351	279.1871	369.0664	389.8554	626.1441	665.1753	683.0742	767.7706	852.1365	877.8809	939.5747	941.5678	1004.0174	1022.4127	1042.2221	1122.548	1141.9162	1148.177	1241.9494	1259.7247	1307.1189	1363.5723	1391.1359	1431.9793	1483.0049	1544.6016	1641.4603	1872.9684	2950.5973	3031.3058	3122.5224	3266.3526	3279.962
O=COCC1=CN=CO1	O=COCc1cnco1	
InChI=1S/C5H5NO3/c7-4-8-2-5-1-6-3-9-5/h1,3-4H,2H2	InChI=1S/C5H5NO3/c7-4-8-2-5-1-6-3-9-5/h1,3-4H,2H2
