18
gdb 7149	7.31707	0.75163	0.69337	2.1213	66.03	-0.2471	-0.0122	0.2349	1598.0336	0.150026	-422.06938	-422.059314	-422.05837	-422.106172	33.167	
C	-0.1282835198	 1.4177280709	 0.0113928358	-0.226084
O	 0.0086930501	 0.0159351972	 0.001822291	-0.210434
C	-1.2166444644	-0.6480304975	 0.010434433	-0.146069
C	-1.0041160756	-2.1605691919	-0.000058119	 0.340623
O	 0.0951998718	-2.6574033123	-0.0132791381	-0.28001
C	-2.2793460876	-2.9880432405	 0.0074271489	-0.290171
C	-2.0143706183	-4.486398983	-0.0025648036	-0.075165
O	-3.2783239655	-5.133917737	 0.0056999426	-0.425452
H	 0.8788607124	 1.8402015318	 0.0037054775	 0.13478
H	-0.6748765104	 1.782243287	-0.8729806599	 0.105111
H	-0.6568894937	 1.7718059976	 0.9108119097	 0.105113
H	-1.8203992588	-0.3887975701	 0.9006095184	 0.105018
H	-1.8381582511	-0.378960785	-0.8644640468	 0.105004
H	-2.8794725222	-2.7224199727	 0.8877022796	 0.130767
H	-2.8953173568	-2.7136105009	-0.8590988406	 0.130807
H	-1.4260220172	-4.750039794	-0.8926142462	 0.104114
H	-1.4099035857	-4.7589810796	 0.873895323	 0.104082
H	-3.1258460872	-6.0832391401	-0.0006044854	 0.287967
26.9168	59.1057	88.5993	106.5753	112.9804	232.9614	237.1681	275.3001	314.5768	377.0852	426.3192	476.5388	707.5101	757.4983	895.8775	926.0499	957.6583	1042.8539	1062.0111	1105.8991	1109.646	1174.9507	1182.7966	1206.3789	1241.6465	1255.4373	1264.0627	1307.8671	1346.9721	1408.9845	1450.0704	1467.2695	1471.7605	1486.7393	1492.0616	1516.6815	1523.3845	1823.3554	2929.9562	2948.2429	2969.6851	2999.2	3013.4064	3027.2185	3029.6183	3064.8698	3120.8355	3831.2975
COCC(=O)CCO	COCC(=O)CCO	
InChI=1S/C5H10O3/c1-8-4-5(7)2-3-6/h6H,2-4H2,1H3	InChI=1S/C5H10O3/c1-8-4-5(7)2-3-6/h6H,2-4H2,1H3
