18
gdb 77107	3.35537	1.11092	0.93075	1.753	79.87	-0.242	0.0448	0.2868	1265.3203	0.146398	-401.870983	-401.862132	-401.861188	-401.904428	33.834	
O	 0.3360606073	 0.7964688703	-0.6066663246	-0.427484
C	-0.0921909175	-0.4706316287	-0.1899978547	 0.043998
C	-0.0506148055	-0.838324061	 1.3410344589	-0.207214
C	-1.4805622173	-1.4615115302	 1.1710897525	-0.315105
C	-1.6033649878	-0.6609200931	-0.1259674113	 0.336221
C	-2.5865201482	 0.3875969841	-0.4683543804	-0.297118
N	-2.5392462199	-0.8912598883	-1.2122421992	-0.385194
C	 1.0327182162	-1.6648190811	 1.8228746538	 0.293339
C	 1.9408395989	-2.3643929649	 2.1887872197	-0.441949
H	 1.2895830645	 0.7736521229	-0.7364583865	 0.293072
H	 0.3837820396	-1.2739357399	-0.7711808691	 0.082784
H	-0.1182067548	 0.0944629982	 1.9096018916	 0.111339
H	-1.4349535612	-2.5386825397	 0.9937155151	 0.12126
H	-2.1989695515	-1.2540010045	 1.9651897625	 0.116779
H	-3.4719405686	 0.5221989105	 0.1474448859	 0.117564
H	-2.2120230504	 1.2864890391	-0.9488427158	 0.131126
H	-2.0764717471	-0.7526247783	-2.1085418942	 0.232769
H	 2.7377128436	-2.9802505051	 2.5248257158	 0.193812
68.5547	130.0775	192.5126	223.9598	257.0786	290.3668	339.6254	376.2352	452.3001	504.5278	547.706	580.4454	623.466	624.431	734.9744	836.8422	844.7663	902.2357	945.6597	950.7708	984.844	1026.4791	1052.7499	1068.7246	1111.2325	1125.6535	1144.7249	1193.0159	1218.6679	1230.3441	1262.6614	1275.7608	1297.5101	1352.6339	1411.646	1450.8021	1491.1765	1515.4361	2231.0663	2997.3043	3062.9774	3074.4502	3111.0856	3133.8111	3202.7896	3484.4477	3504.4934	3818.2095
OC1C(CC11CN1)C#C	O[C@H]1[C@@H](C[C@]21CN2)C#C	
InChI=1S/C7H9NO/c1-2-5-3-7(4-8-7)6(5)9/h1,5-6,8-9H,3-4H2	InChI=1S/C7H9NO/c1-2-5-3-7(4-8-7)6(5)9/h1,5-6,8-9H,3-4H2/t5-,6+,7-/m1/s1
