14
gdb 131237	4.9763	0.86721	0.78642	1.3611	65.65	-0.2387	-0.0508	0.188	1365.5594	0.100316	-470.002236	-469.994147	-469.993202	-470.036344	28.418	
O	 0.4338615797	 1.3057033655	-0.2532265681	-0.422478
C	 0.1614503785	-0.0056065715	-0.148514081	 0.378437
C	 0.2721731704	-0.9744316202	-1.1200289293	-0.203545
N	-0.1393851317	-2.104798982	-0.4770753533	 0.077259
C	-0.1754043436	-3.4606857438	-0.9730475572	-0.243849
C	 1.2159558961	-4.0901663222	-1.0493740184	 0.147441
O	 1.4954244198	-4.9667049861	-1.8192288684	-0.217095
N	-0.4663948019	-1.8490967624	 0.7973143902	-0.148522
N	-0.2875637078	-0.5670746432	 0.9979463402	-0.278183
H	 0.2452835407	 1.6997104562	 0.6083400025	 0.311091
H	 0.5761477865	-0.9546052409	-2.1513813184	 0.156155
H	-0.7740164452	-4.0383027843	-0.2606102594	 0.177024
H	-0.6551026563	-3.5100046893	-1.9537270242	 0.156134
H	 1.9423303747	-3.6800518857	-0.3141838752	 0.110133
44.7203	66.8586	106.2752	274.5323	301.989	390.8971	410.7687	426.0781	454.4555	656.9515	682.6672	706.4773	740.4676	754.5408	834.318	1028.5585	1046.5447	1050.7765	1056.1156	1167.2406	1182.5138	1220.4787	1282.5233	1327.5945	1363.3706	1407.1359	1418.0095	1441.9892	1508.6768	1655.5595	1846.4795	2904.9765	3063.6193	3122.438	3296.5797	3790.6201
OC1=CN(CC=O)N=N1	Oc1cn(CC=O)nn1	
InChI=1S/C4H5N3O2/c8-2-1-7-3-4(9)5-6-7/h2-3,9H,1H2	InChI=1S/C4H5N3O2/c8-2-1-7-3-4(9)5-6-7/h2-3,9H,1H2
