21
gdb 64376	2.06843	1.81599	1.35142	1.4347	77.57	-0.242	0.0647	0.3067	1065.5091	0.181859	-424.215259	-424.206173	-424.205228	-424.248791	35.185	
C	 0.2710673621	 1.5889997962	-0.1641662223	-0.443302
C	-0.0229606698	 0.1001482021	 0.0369920922	 0.281038
O	-1.4176147998	-0.1307257445	 0.171603575	-0.476451
C	 0.6233746579	-0.7510594153	-1.0757439393	-0.118873
O	 1.9933776255	-0.8454917076	-0.7207524454	-0.263175
C	 2.0883696239	-0.8928465439	 0.7074813167	-0.146024
C	 0.7217740321	-0.4760773888	 1.2484253141	 0.321662
C	 0.5260715254	 0.0308337121	 2.6476578645	-0.336264
C	 0.0004447372	-1.3295029559	 2.2575273286	-0.313996
H	 1.3427115445	 1.7529142339	-0.3065349863	 0.137599
H	-0.2411727674	 1.9666099121	-1.0585180902	 0.102577
H	-0.0614758281	 2.1726917494	 0.6984195195	 0.122129
H	-1.8759895547	 0.4475624667	-0.445650652	 0.28034
H	 0.1306661617	-1.7355135204	-1.0996209183	 0.094309
H	 0.5659562513	-0.2998152039	-2.0716159964	 0.094029
H	 2.3618065743	-1.9051856082	 1.0379065299	 0.097095
H	 2.8923771555	-0.2099182874	 1.0087117937	 0.102875
H	 1.3932576211	 0.0878002682	 3.2984205277	 0.108637
H	-0.2016590249	 0.8209420153	 2.8040533221	 0.115286
H	-1.0708494063	-1.4406554157	 2.1464020205	 0.135306
H	 0.5196790884	-2.2059867645	 2.6327558857	 0.105202
52.1088	168.4619	219.6743	229.9262	241.5099	266.9584	308.204	341.3112	388.0346	432.1104	518.8896	542.6491	612.4414	704.2732	786.8167	855.881	889.679	923.401	938.5637	947.394	972.2222	988.8529	998.2432	1063.7166	1080.2389	1091.4177	1107.185	1121.6996	1184.4469	1197.1184	1203.1102	1222.4187	1241.6079	1269.6574	1318.3326	1360.7226	1367.9766	1402.2161	1425.8421	1459.9678	1490.1239	1493.2689	1502.7588	1514.5	1528.9967	2984.9066	2995.3356	3022.9551	3037.908	3074.7728	3095.4531	3121.1723	3125.8948	3132.8974	3203.1	3233.6276	3823.9994
CC1(O)COCC11CC1	C[C@@]1(O)COCC21CC2	
InChI=1S/C7H12O2/c1-6(8)4-9-5-7(6)2-3-7/h8H,2-5H2,1H3	InChI=1S/C7H12O2/c1-6(8)4-9-5-7(6)2-3-7/h8H,2-5H2,1H3/t6-/m1/s1
