19
gdb 118394	1.5907	1.28831	0.74409	2.5335	79.	-0.249	-0.0351	0.2139	1517.2488	0.154299	-422.992826	-422.982147	-422.981203	-423.029862	36.917	
C	 0.1570527004	 1.7991459135	 0.2054636728	-0.38509
C	 0.7000169451	 0.3820742088	 0.1495271667	-0.046369
O	 0.2280288684	-0.3143422714	 1.2993977719	-0.266508
C	 0.4806353749	-1.6961366663	 1.3358957695	 0.017163
C	 1.8842063107	-2.0883595898	 1.8503321548	-0.358688
C	 2.9460231056	-1.9837881004	 0.8594398317	 0.284158
C	 3.8182525174	-1.9173487513	 0.0344197603	-0.439493
C	-0.6079158676	-2.2912934133	 2.2307196797	 0.152347
O	-0.5018846235	-3.3221091711	 2.8403280279	-0.244602
H	 0.5052968949	 2.3085343352	 1.1084480945	 0.129708
H	 0.4966595915	 2.3681904381	-0.6649741112	 0.11895
H	-0.9366226241	 1.7943689135	 0.2143844857	 0.125072
H	 0.3533908108	-0.1343155044	-0.7600834993	 0.091124
H	 1.7966158754	 0.3831553272	 0.1262266236	 0.11706
H	 0.33142029	-2.1434240108	 0.3358995165	 0.105916
H	 2.108588215	-1.460007598	 2.720501532	 0.141943
H	 1.8116783057	-3.119406139	 2.2161358167	 0.159344
H	 4.5939756004	-1.8594095279	-0.6883884046	 0.197871
H	-1.530316161	-1.6726889027	 2.2538246807	 0.100092
46.7654	67.4269	83.0544	97.3985	146.4538	194.7126	240.2705	249.1506	338.6492	349.3322	402.598	452.3209	513.993	617.0529	636.5922	642.9748	811.2647	820.7937	857.8479	928.2555	982.8711	1047.551	1063.4863	1079.7268	1145.8155	1156.9738	1185.626	1240.2566	1267.9154	1298.4323	1340.1947	1351.1402	1388.098	1403.8953	1438.9212	1461.081	1483.0964	1499.1562	1529.4476	1838.0113	2236.4758	2915.176	2943.834	2978.5505	3035.9308	3045.4915	3049.5742	3077.0125	3120.954	3122.6187	3504.9958
CCOC(CC#C)C=O	CCO[C@@H](CC#C)C=O	
InChI=1S/C7H10O2/c1-3-5-7(6-8)9-4-2/h1,6-7H,4-5H2,2H3	InChI=1S/C7H10O2/c1-3-5-7(6-8)9-4-2/h1,6-7H,4-5H2,2H3/t7-/m0/s1
