19
gdb 113717	2.12897	1.36015	1.06154	3.6663	76.57	-0.2417	0.0349	0.2766	1220.1658	0.157813	-419.180913	-419.17109	-419.170146	-419.216011	35.257	
C	-1.0846985448	 1.3934535965	 0.8647715554	-0.389825
C	-0.7052543507	-0.0032588305	 0.3529529816	-0.099345
C	-0.1428917151	 0.0727534257	-1.0061926889	 0.291883
N	 0.2775877224	 0.1162871147	-2.0818080256	-0.339228
N	 0.3004207261	-0.5905259638	 1.2474212144	-0.097333
C	-0.195295564	-1.3934225427	 2.3690586008	-0.254248
C	 0.532206949	-2.0375246075	 1.2422357527	 0.00925
C	-0.1462465271	-3.0123587011	 0.3012038646	-0.130928
O	-1.561386148	-2.9185898079	 0.4069437083	-0.408558
H	-0.1964575311	 2.02465428	 0.9365147622	 0.144256
H	-1.8094074851	 1.8668497255	 0.1976235431	 0.131283
H	-1.5313997326	 1.3026006772	 1.8584490482	 0.127364
H	-1.607339374	-0.6263950288	 0.279560436	 0.13282
H	 0.2949002608	-1.2214820705	 3.3231820413	 0.118085
H	-1.2642738	-1.5844329996	 2.4219039123	 0.135302
H	 1.5835421223	-2.2843921694	 1.3817563163	 0.102992
H	 0.1867127825	-2.814317672	-0.7281261806	 0.12588
H	 0.1992241758	-4.023449354	 0.568792197	 0.103755
H	-1.9493984362	-3.4009998317	-0.3291223392	 0.296593
41.3034	116.3922	137.2658	185.5359	214.127	226.9196	247.7989	264.4406	306.9425	389.1072	455.1193	529.7037	567.6638	646.3777	751.501	772.8318	852.1901	930.2719	966.1751	992.9022	1039.2951	1049.8418	1103.4664	1109.3947	1122.7646	1128.8068	1169.7814	1174.7856	1235.778	1281.7417	1327.4357	1330.8427	1367.7895	1404.6198	1420.1577	1457.4257	1486.5722	1495.13	1506.6652	1515.1912	2356.755	2977.8515	3016.4025	3018.1828	3052.1722	3108.1248	3120.9203	3128.6297	3141.2268	3196.672	3832.7761
CC(C#N)N1CC1CO	C[C@@H](C#N)N1C[C@H]1CO	
InChI=1S/C6H10N2O/c1-5(2-7)8-3-6(8)4-9/h5-6,9H,3-4H2,1H3	InChI=1S/C6H10N2O/c1-5(2-7)8-3-6(8)4-9/h5-6,9H,3-4H2,1H3/t5-,6-,8?/m0/s1
