13
gdb 131769	2.77699	1.51001	0.98495	1.2829	66.19	-0.2789	-0.1034	0.1754	1090.1782	0.086938	-485.957544	-485.9494	-485.948456	-485.991071	28.795	
O	 0.113373806	 1.4009405891	-0.1299119554	-0.412193
C	 0.0526182243	 0.0061976943	-0.0300393605	-0.108829
C	-1.3513225608	-0.5362907719	 0.0290973886	 0.309437
N	-2.3054026215	 0.3203339541	 0.1374966409	-0.137671
O	-3.5929460193	-0.1403442143	 0.2231108953	-0.242708
N	-3.8926017623	-1.5503528258	 0.1693086438	 0.075464
N	-2.9764376383	-2.35943809	 0.0673505203	-0.160129
C	-1.6023057198	-1.9675807457	 0.0025476048	 0.320788
N	-0.670011162	-2.8274396107	-0.0735825057	-0.474295
H	-0.6984423544	 1.7647004021	 0.2451971453	 0.302513
H	 0.5587028149	-0.4385692447	-0.8957987543	 0.14823
H	 0.5851076691	-0.3772308449	 0.857597755	 0.131347
H	-1.0644281057	-3.7721067918	-0.0776540781	 0.248045
49.9735	103.6534	165.9829	223.6805	264.5265	341.9689	405.1881	486.4198	491.3985	532.9876	552.5885	623.1879	770.6047	778.6153	901.2493	938.2193	980.1532	1013.5458	1066.5125	1119.2152	1209.9117	1239.4534	1324.0341	1395.0228	1447.2538	1486.1296	1612.7659	1663.9147	1726.8179	2966.5192	3053.2005	3451.5603	3775.1979
OCC1=NON=NC1=N	OCC1=NO[N]N=C1[NH]	
InChI=1S/C3H4N4O2/c4-3-2(1-8)6-9-7-5-3/h4,8H,1H2	InChI=1S/C3H4N4O2/c4-3-2(1-8)6-9-7-5-3/h4,8H,1H2
