15
gdb 9012	6.82243	0.82506	0.76097	3.7634	71.	-0.2608	0.0081	0.2689	1440.2934	0.116245	-362.645991	-362.636493	-362.635549	-362.682012	31.515	
C	 0.0052581213	 1.4973895444	-0.0103848098	-0.498538
C	 0.0050228873	 0.0426396574	 0.0334097474	 0.118954
C	 0.008929392	-1.1602517605	 0.0672612979	 0.033222
C	-0.004927183	-2.6146866246	 0.114937142	-0.383358
C	-1.4259401352	-3.1958080853	-0.1055324153	-0.007399
O	-2.0008673469	-2.8246831463	-1.3367981889	-0.396354
C	-1.3899590353	-4.6672210293	 0.048461754	 0.255498
N	-1.3377346086	-5.8177447507	 0.1424840324	-0.313687
H	 0.8447926808	 1.8759154644	-0.6035588388	 0.151626
H	-0.9176878639	 1.8782173478	-0.4609336995	 0.154502
H	 0.0873047048	 1.9267694336	 0.9939768688	 0.151097
H	 0.6636424156	-3.0373204436	-0.6474050825	 0.136141
H	 0.3690531679	-2.9774296662	 1.0805739939	 0.150678
H	-2.0927192927	-2.7895142713	 0.6615007376	 0.151647
H	-1.4402319643	-3.1542553397	-2.0490218491	 0.295972
21.3367	53.5807	78.9293	169.7775	213.3087	227.9874	281.3406	323.998	381.7161	384.0466	475.6336	550.4349	589.9768	776.1913	858.7053	934.69	1019.091	1052.3925	1054.6822	1100.8051	1173.6226	1192.2015	1279.8738	1323.9978	1360.0197	1414.4522	1421.6767	1466.9577	1477.1703	1477.9472	2354.6745	2378.6876	3015.7986	3029.321	3051.961	3078.3659	3091.0981	3092.032	3797.35
CC#CCC(O)C#N	CC#CC[C@@H](O)C#N	
InChI=1S/C6H7NO/c1-2-3-4-6(8)5-7/h6,8H,4H2,1H3	InChI=1S/C6H7NO/c1-2-3-4-6(8)5-7/h6,8H,4H2,1H3/t6-/m1/s1
