19
gdb 10708	2.47228	1.97543	1.37098	2.4939	71.57	-0.236	-0.0128	0.2232	991.09	0.163687	-365.064381	-365.055257	-365.054312	-365.098289	32.957	
C	 0.9903059266	 0.3573570819	-0.5542181733	-0.386395
C	 0.0536107001	-0.8440302242	-0.3739175922	-0.259993
C	-1.322301336	-0.4620684382	 0.1438066996	 0.222387
C	-2.0084848254	-1.3921813297	 1.0994383647	-0.280832
N	-1.4985697214	-0.1049731571	 1.570031073	-0.344489
C	-2.1877943216	 0.31467791	-0.8243075888	 0.354828
C	-3.3355740171	 1.1297860876	-0.2636217226	-0.478736
O	-1.9461568047	 0.2800850091	-2.0122743509	-0.315042
H	 1.9757730924	 0.030063511	-0.8984662819	 0.115602
H	 0.589664649	 1.0532590284	-1.2956508712	 0.141397
H	 1.1301508743	 0.9031489297	 0.3855943094	 0.109705
H	-0.0704098254	-1.3559422783	-1.3327581511	 0.126527
H	 0.5004217426	-1.5647833351	 0.3222312045	 0.08512
H	-3.0903114676	-1.4901555493	 1.0982751174	 0.123812
H	-1.4740679922	-2.3033982698	 1.3559403585	 0.121833
H	-0.6154893914	-0.234515952	 2.0587912049	 0.236166
H	-2.9368530886	 1.9378865865	 0.3574663142	 0.155077
H	-3.9161263045	 1.5405275081	-1.0901937876	 0.134419
H	-3.9800695488	 0.5353117612	 0.3900362736	 0.138615
64.2652	98.213	107.4511	190.5534	216.3198	264.0585	292.6064	351.3791	439.2574	469.3111	512.9149	613.3552	660.6472	766.383	829.4102	853.8849	921.818	955.532	986.8455	994.6683	1041.9591	1054.4307	1099.0272	1112.7936	1139.3023	1175.3398	1254.0709	1284.1842	1324.2496	1374.2606	1384.4442	1397.4475	1410.0647	1452.4069	1467.5755	1471.4571	1497.6003	1510.3928	1514.7283	1789.9685	3029.8338	3037.0441	3052.8641	3085.4849	3105.3317	3108.4705	3115.8375	3125.4438	3157.5103	3193.4533	3494.2236
CCC1(CN1)C(C)=O	CC[C@]1(CN1)C(=O)C	
InChI=1S/C6H11NO/c1-3-6(4-7-6)5(2)8/h7H,3-4H2,1-2H3	InChI=1S/C6H11NO/c1-3-6(4-7-6)5(2)8/h7H,3-4H2,1-2H3/t6-/m0/s1
