18
gdb 50574	3.57192	1.19665	0.98407	3.8368	72.01	-0.2511	-0.0269	0.2242	1188.2272	0.148392	-439.06656	-439.058598	-439.057654	-439.099737	29.878	
O	-0.8784168522	 1.0852302177	 0.3082174923	-0.247898
C	 0.2499584707	 0.7214990731	 0.1041372871	 0.137103
C	 1.4439806477	 1.6604596718	 0.0371682136	 0.032566
C	 1.3433676497	 2.8321399363	 1.0238637833	-0.204513
C	 2.6833649294	 3.543090138	 1.1497298891	-0.057195
N	 3.6624125719	 2.9088743382	 2.0545720911	-0.320675
C	 3.9128497614	 2.8976352012	 0.6097641245	-0.039644
C	 3.7937862186	 1.5535188743	-0.0790423601	-0.083314
O	 2.5973565128	 0.8717050798	 0.2511012902	-0.256822
H	 0.5139931437	-0.3449706553	-0.0672421905	 0.095558
H	 1.4616162475	 2.0625273553	-0.9958723541	 0.088599
H	 0.5673774914	 3.519299287	 0.6767377607	 0.115951
H	 1.0355416751	 2.4592380876	 2.0051354075	 0.12605
H	 2.6478998304	 4.6296037759	 1.1427749713	 0.089088
H	 4.2357593692	 3.6178102659	 2.5037565225	 0.231949
H	 4.6978598523	 3.5381919186	 0.2117592717	 0.086677
H	 3.8511549807	 1.7086200285	-1.1708440139	 0.088063
H	 4.6123309998	 0.890017176	 0.2166983735	 0.118455
54.2466	106.1939	187.9666	216.2644	336.3829	367.259	426.4391	437.1735	527.0225	605.9278	730.0058	773.9329	788.6434	860.6316	875.8786	898.5149	960.879	996.1137	1011.5669	1075.7752	1080.5137	1106.7565	1130.1038	1142.8536	1169.4061	1213.3961	1238.7958	1259.384	1281.61	1308.5628	1354.31	1370.0218	1385.0712	1407.1679	1413.6765	1461.726	1471.0073	1487.6491	1838.3228	2900.6732	2907.2618	2955.6094	3061.9947	3079.5475	3108.6923	3122.0373	3137.5569	3506.2252
O=CC1CC2NC2CO1	O=C[C@H]1C[C@H]2N[C@H]2CO1	
InChI=1S/C6H9NO2/c8-2-4-1-5-6(7-5)3-9-4/h2,4-7H,1,3H2	InChI=1S/C6H9NO2/c8-2-4-1-5-6(7-5)3-9-4/h2,4-7H,1,3H2/t4-,5-,6+/m1/s1
