18
gdb 100402	2.5848	1.10127	0.85826	2.9559	75.47	-0.2505	0.0277	0.2782	1371.4318	0.146321	-435.291926	-435.28177	-435.280826	-435.327386	35.867	
C	-0.5311014502	 1.0552151407	-0.0598267245	-0.226463
O	 0.2031716024	-0.1702825424	-0.0573314267	-0.250148
C	 0.8630120638	-0.4768205481	-1.1893343226	 0.486361
N	 1.4270795935	-1.7273180676	-1.0882316107	-0.570454
N	 0.8689692862	 0.3250311956	-2.1851209618	-0.354528
C	 1.5029168671	-0.0913923269	-3.4251009328	-0.095248
C	 1.2634908233	 0.9710002776	-4.5071119355	-0.38162
C	 2.9545689368	-0.3356337937	-3.2591902862	 0.268308
N	 4.073357928	-0.5657625477	-3.0735358891	-0.345672
H	 0.1374402701	 1.9065860133	-0.2085566861	 0.141339
H	-1.280820828	 1.0567520044	-0.8550173674	 0.136635
H	-1.0090349977	 1.1084518857	 0.9190753099	 0.129256
H	 1.437915458	-2.1011975266	-0.1508552485	 0.264071
H	 2.2900007778	-1.8693738152	-1.5936724391	 0.279224
H	 1.0818595961	-1.0490352936	-3.7746105463	 0.12433
H	 1.6905644312	 1.926766639	-4.1950732184	 0.139879
H	 1.7095072702	 0.672737351	-5.4595444382	 0.125244
H	 0.1866811115	 1.0997662645	-4.6371692459	 0.129486
52.0361	103.6076	139.4011	151.0142	184.5724	205.2981	229.3272	299.5775	317.605	353.1991	432.2698	511.3239	550.1787	577.7063	600.4357	680.8424	744.6713	805.2916	871.9028	961.5661	1041.9328	1092.0318	1130.3305	1139.0245	1175.5134	1183.1981	1230.0236	1320.7318	1330.6673	1390.4062	1406.2635	1475.8764	1483.9277	1484.5843	1495.5699	1502.2106	1648.2076	1726.7906	2335.8231	2964.6037	3050.9301	3053.1437	3126.6152	3134.3314	3139.5154	3153.0607	3566.8034	3673.5665
COC(N)=NC(C)C#N	COC(=N[C@@H](C)C#N)N	
InChI=1S/C5H9N3O/c1-4(3-6)8-5(7)9-2/h4H,1-2H3,(H2,7,8)	InChI=1S/C5H9N3O/c1-4(3-6)8-5(7)9-2/h4H,1-2H3,(H2,7,8)/t4-/m0/s1
