17
gdb 92408	2.45891	1.50899	1.34063	4.338	73.25	-0.2564	0.0131	0.2695	1025.8341	0.137634	-417.977085	-417.969325	-417.968381	-418.009287	30.179	
O	 0.1640530687	 1.3266564442	-0.2752193204	-0.419669
C	 0.0937175869	-0.0370842698	 0.0095620441	 0.076474
C	 0.2356988667	-0.4336221335	 1.5118522481	-0.249247
C	-1.278607491	-0.6708646597	 1.5767144682	-0.040182
N	-2.0412104349	 0.6128090921	 1.560576016	-0.349568
C	-2.4967210076	 0.3895339756	 0.1624135806	-0.228502
C	-1.3840153774	-0.6650042902	 0.0069947807	 0.175105
C	-1.5945206026	-1.8313503729	-0.8032859586	 0.172142
N	-1.7463169035	-2.7771159047	-1.4533374813	-0.344815
H	-0.3233758496	 1.7838578042	 0.4243128526	 0.295289
H	 0.7697600595	-0.5441545993	-0.6800774512	 0.113027
H	 0.8028781494	-1.361329116	 1.6331722717	 0.118656
H	 0.6430192752	 0.3348466303	 2.1730218381	 0.110559
H	-1.6887882333	-1.4722303882	 2.1949060012	 0.088958
H	-2.7792425511	 0.6848006945	 2.2501172778	 0.234354
H	-3.4915022114	-0.0623607059	 0.0750857722	 0.121048
H	-2.4317048441	 1.2672956292	-0.4869776499	 0.12637
110.4007	144.4273	171.1751	274.9557	358.8506	391.1673	461.8226	516.3156	539.0125	563.0278	585.4266	660.6498	728.5234	817.0213	842.4799	892.4093	930.7949	1004.4684	1011.1532	1022.9722	1064.0261	1083.3402	1094.9691	1142.7764	1173.6133	1178.7087	1206.4023	1244.7113	1270.9623	1303.112	1324.0968	1362.3321	1376.1119	1444.5773	1463.9854	1511.5105	2342.7088	3031.8827	3058.1405	3088.9234	3091.74	3107.6309	3122.2705	3554.4729	3744.4777
OC1CC2NCC12C#N	O[C@H]1C[C@H]2NC[C@@]12C#N	
InChI=1S/C6H8N2O/c7-2-6-3-8-4(6)1-5(6)9/h4-5,8-9H,1,3H2	InChI=1S/C6H8N2O/c7-2-6-3-8-4(6)1-5(6)9/h4-5,8-9H,1,3H2/t4-,5+,6-/m1/s1
