20
gdb 74144	2.40454	1.47985	1.15102	4.0277	84.89	-0.2359	-0.0197	0.2162	1166.3148	0.169604	-403.197837	-403.188464	-403.18752	-403.231405	35.567	
C	-0.0283592057	 1.4933533135	 0.0127910339	-0.503671
C	-0.0060643836	 0.001425299	-0.039856227	 0.316191
C	-0.0166224245	-0.7940057994	-1.1126468902	-0.290691
C	 0.0149008621	-2.1950945907	-0.6888217535	 0.383944
N	 0.0151287216	-3.221006135	-1.4335557265	-0.559077
O	 0.0448919381	-2.2162045306	 0.6837604251	-0.274278
C	 0.0347081712	-0.866936524	 1.2085200337	 0.246526
C	 1.3178364515	-0.6720437346	 2.0255580048	-0.414728
C	-1.2175642015	-0.712526797	 2.0802610449	-0.414721
H	 0.8574516089	 1.8873588598	 0.5253202499	 0.138651
H	-0.0588087961	 1.9228557872	-0.9911104893	 0.137675
H	-0.9008258644	 1.8597669527	 0.5669442435	 0.13858
H	-0.043777534	-0.5049596171	-2.153553106	 0.121429
H	 0.0409249707	-4.0700495668	-0.8666819333	 0.216902
H	 2.1990408539	-0.8101668696	 1.3937115525	 0.129853
H	 1.3534328776	 0.3300463253	 2.4633027788	 0.117983
H	 1.3549949657	-1.4023263119	 2.8385263259	 0.130796
H	-1.1963933946	-1.4432630025	 2.8933952378	 0.130799
H	-1.2661019338	 0.2881075025	 2.5200817319	 0.117979
H	-2.1203515232	-0.8788916409	 1.4868610131	 0.129856
101.3493	141.3269	189.2746	216.4427	224.2201	246.211	257.7228	312.0855	356.6742	419.0068	517.2985	576.8428	580.4124	621.7461	705.1138	725.3776	858.9376	888.1263	902.2729	931.9443	943.8777	973.0855	1009.9521	1016.7559	1068.4436	1081.1822	1147.4035	1187.7199	1202.5808	1232.809	1330.869	1355.5218	1392.2898	1411.7862	1418.0535	1471.6749	1480.8316	1483.4601	1486.4548	1496.7701	1504.3683	1702.9865	1755.8809	3027.3039	3040.8134	3046.0907	3075.9299	3114.6505	3120.4339	3123.5534	3125.1548	3127.505	3242.8279	3476.1948
CC1=CC(=N)OC1(C)C	C[C]1C=C([NH])OC1(C)C	
InChI=1S/C7H11NO/c1-5-4-6(8)9-7(5,2)3/h4,8H,1-3H3	InChI=1S/C7H11NO/c1-5-4-6(8)9-7(5,2)3/h4,8H,1-3H3
