14
gdb 6660	7.02081	0.83696	0.76698	7.2456	60.1	-0.2619	-0.0009	0.261	1377.457	0.105215	-415.877507	-415.868543	-415.867599	-415.91295	29.556	
N	-0.0771777884	 1.2936782598	-0.1503111648	-0.525058
C	 0.0406055173	-0.0249369268	 0.1909243032	 0.38142
O	 1.0705716229	-0.5296429958	 0.5704133781	-0.320741
C	-1.2883777907	-0.7912278655	 0.1323942577	-0.158305
O	-1.0066826354	-2.1534021583	-0.0617914379	-0.211774
C	-2.1564548871	-2.9548687878	 0.0377182924	-0.180733
C	-1.793017639	-4.3552688051	-0.1973894477	 0.270377
N	-1.5508653706	-5.4687479648	-0.3808250526	-0.287743
H	 0.7656825261	 1.8457803191	-0.159284506	 0.268532
H	-0.8761131131	 1.646757389	-0.6481890798	 0.259842
H	-1.8161737431	-0.6246811514	 1.0871279893	 0.124819
H	-1.9369842368	-0.4017295769	-0.6705779257	 0.097117
H	-2.6212505659	-2.8736701956	 1.0342434451	 0.143349
H	-2.9221918664	-2.6666023198	-0.7017897714	 0.138898
24.1933	74.536	92.2116	107.839	236.3195	250.3669	325.5886	385.4022	415.7691	501.5159	563.3636	612.482	687.1446	851.1452	965.0841	1007.9756	1038.4408	1054.1398	1102.9294	1183.8963	1251.4646	1262.7191	1304.1095	1393.9504	1443.9225	1484.8078	1510.2339	1620.5214	1831.7071	2376.83	2953.2035	2968.5087	2983.4548	2993.6415	3596.3934	3728.3155
NC(=O)COCC#N	NC(=O)COCC#N	
InChI=1S/C4H6N2O2/c5-1-2-8-3-4(6)7/h2-3H2,(H2,6,7)	InChI=1S/C4H6N2O2/c5-1-2-8-3-4(6)7/h2-3H2,(H2,6,7)
