21
gdb 62877	2.72393	1.5591	1.13591	2.0071	78.64	-0.2496	0.0694	0.319	1136.62	0.179907	-424.155298	-424.146013	-424.145069	-424.18886	36.388	
C	-0.1705007981	 1.6969588709	 0.3480860357	-0.451963
C	-0.1546957578	 0.1663026029	 0.4176914032	 0.359951
C	-1.5810171522	-0.3562465181	 0.1986497935	-0.4912
C	 1.0597351136	-0.5271416647	-0.2676614989	-0.094423
O	 1.9508653301	 0.1434968568	 0.7241950501	-0.339054
C	 0.810203359	-0.4013916747	 1.5187664995	-0.093035
C	 1.0325150135	-1.7459829752	 0.7401567957	 0.498083
C	 0.0377535983	-2.9006441545	 0.7445502185	-0.48899
O	 2.2911766574	-2.3303012858	 0.9278564412	-0.482687
H	 0.807117938	 2.1262099919	 0.5608290651	 0.138922
H	-0.4899728926	 2.0283293586	-0.6464659214	 0.112196
H	-0.8958572067	 2.094738991	 1.0673992147	 0.111228
H	-1.6308881282	-1.3467837212	-0.2490551542	 0.128664
H	-2.1430029944	-0.3790468797	 1.1391086477	 0.122762
H	-2.1139109645	 0.3245296953	-0.47250001	 0.117868
H	 1.3829035662	-0.5006552916	-1.3113813519	 0.088233
H	 0.8253453354	-0.2037799827	 2.5935438056	 0.088238
H	-0.1268782994	-3.292748809	-0.2637413218	 0.126662
H	 0.475153002	-3.7026842292	 1.3432344901	 0.137658
H	-0.9257752702	-2.6422490067	 1.1794597824	 0.12687
H	 2.9077777305	-1.5822787142	 0.9317660053	 0.284015
71.3693	132.5951	163.1995	219.7626	249.2437	308.4591	336.3677	363.022	422.1188	463.5773	468.9372	583.5486	604.0134	651.3757	661.6319	741.6943	750.0826	773.2	857.6625	862.6032	936.7817	967.8895	982.0716	1013.2021	1077.3031	1091.6566	1105.3455	1125.5445	1137.2114	1151.1575	1183.2171	1216.6758	1246.482	1275.5949	1319.0729	1396.5048	1400.7264	1422.1135	1430.5041	1483.7317	1485.5031	1497.3467	1505.7054	1509.8017	1527.5107	3030.32	3041.4764	3055.7581	3082.6954	3085.345	3092.7118	3094.3204	3121.4434	3151.9822	3159.5966	3168.0811	3713.0429
CC1(C)C2OC1C2(C)O	CC1(C)[C@H]2O[C@@H]1[C@]2(C)O	
InChI=1S/C7H12O2/c1-6(2)4-7(3,8)5(6)9-4/h4-5,8H,1-3H3	InChI=1S/C7H12O2/c1-6(2)4-7(3,8)5(6)9-4/h4-5,8H,1-3H3/t4-,5+,7-
