21
gdb 120382	3.45038	1.03681	0.88461	1.7721	80.99	-0.2482	0.0151	0.2633	1388.3877	0.182136	-424.230233	-424.220886	-424.219941	-424.265028	34.761	
C	 0.0447531449	 1.5216478837	 0.2534578033	-0.388215
C	-0.1856978921	 0.0647761053	 0.6141924085	-0.048528
O	 1.082159765	-0.5797205167	 0.7093822118	-0.273793
C	 1.0074648408	-1.9724197884	 0.9845498113	 0.053685
C	 2.3254483126	-2.635105666	 0.6821884282	-0.097554
C	 2.7129973536	-3.4435875243	 1.6657002312	-0.063601
C	 1.7329875083	-3.4635925184	 2.8121087802	-0.273566
C	 0.7909698704	-2.2694802953	 2.5126839647	 0.110052
O	 1.1499439914	-1.1386998413	 3.2832381227	-0.447803
H	 0.5876917333	 1.6025719091	-0.6924057245	 0.128192
H	-0.9120451935	 2.0424668886	 0.1522681638	 0.118918
H	 0.629544236	 2.0255093467	 1.0286094094	 0.127757
H	-0.7249501107	-0.0183639219	 1.568468102	 0.1096
H	-0.7917292261	-0.4364385353	-0.1566688406	 0.09492
H	 0.1938149394	-2.4096542538	 0.383220235	 0.075048
H	 2.8435094107	-2.4613171885	-0.253339313	 0.099805
H	 3.6125279045	-4.0497116347	 1.6532515601	 0.097216
H	 1.1812149556	-4.4131542451	 2.8409389563	 0.10221
H	 2.2032492941	-3.3357412175	 3.7924943465	 0.119289
H	-0.2532043156	-2.51889536	 2.735431223	 0.067015
H	 1.4914701673	-0.4878639063	 2.65400475	 0.289353
58.7205	70.4644	101.1961	170.3846	242.9937	310.7743	323.0478	346.5525	402.2154	456.7905	475.5733	599.1936	720.8525	766.6529	810.4825	821.5105	845.5912	884.8312	913.0856	959.5884	980.1796	1010.9174	1049.4802	1052.4168	1103.2987	1112.3619	1141.9968	1148.3355	1186.6208	1201.2956	1224.3761	1298.9762	1307.6024	1315.092	1344.3047	1348.7339	1389.5432	1403.9195	1431.4866	1439.1302	1474.3007	1484.1574	1498.6781	1523.4973	1689.4267	2964.2309	2981.9068	3013.6588	3023.8284	3034.9745	3044.7281	3075.9343	3118.3334	3122.4044	3185.5101	3214.5239	3727.9105
CCOC1C=CCC1O	CCO[C@H]1C=CC[C@H]1O	
InChI=1S/C7H12O2/c1-2-9-7-5-3-4-6(7)8/h3,5-8H,2,4H2,1H3	InChI=1S/C7H12O2/c1-2-9-7-5-3-4-6(7)8/h3,5-8H,2,4H2,1H3/t6-,7+/m1/s1
