17
gdb 71688	2.73729	2.32625	1.69659	1.4954	69.44	-0.2347	0.0699	0.3047	828.5641	0.138239	-421.765354	-421.759313	-421.758369	-421.795308	26.401	
O	 0.0482166974	 1.3371344555	 0.0043890109	-0.49331
C	 0.0300875376	-0.046513583	-0.0445233819	 0.439415
C	-1.3001645157	-0.8021059161	-0.2199573954	-0.292668
C	-0.3904920858	-1.940775381	-0.7325706444	-0.069942
C	 0.6708907394	-2.2221437848	 0.3768900902	-0.087329
C	 1.8314041889	-1.5855089507	-0.438036859	 0.08076
O	 2.2052431284	-0.6938925465	 0.6393239127	-0.312685
C	 0.8131852677	-0.813374434	 1.0425136551	 0.001439
C	 0.6714046183	-0.9026723626	-1.2260431906	-0.153461
H	 0.9612343649	 1.5988442287	 0.1796223448	 0.285118
H	-1.9178144423	-0.9684192286	 0.6691601678	 0.095451
H	-1.9091413522	-0.3723240358	-1.0198120995	 0.111743
H	-0.7581896359	-2.7699583673	-1.3320707968	 0.074133
H	 0.7404246555	-3.1290151363	 0.9738071357	 0.07895
H	 2.667170316	-2.0829595258	-0.9276883034	 0.083318
H	 0.6325933242	-0.5790152807	 2.0913427395	 0.083086
H	 0.7270475634	-0.4791367109	-2.2255796355	 0.075983
242.9143	303.4837	393.0742	428.2397	498.625	530.7107	613.7096	712.3462	741.8293	807.7222	816.3563	835.3451	846.4981	866.5844	875.9363	924.1942	938.6117	956.962	982.5322	1009.5819	1010.1749	1064.3818	1095.9801	1101.0894	1116.3544	1169.9955	1178.6461	1200.1833	1216.6211	1228.2414	1239.9724	1266.2383	1286.4953	1320.0366	1348.2717	1391.3757	1500.2652	3043.2996	3106.8364	3124.4692	3128.8991	3138.7268	3146.0304	3156.9322	3774.9966
OC12CC3C4C(OC14)C23	O[C@]12C[C@@H]3[C@H]4[C@H](O[C@@H]14)[C@H]23	
InChI=1S/C7H8O2/c8-7-1-2-3-5(4(2)7)9-6(3)7/h2-6,8H,1H2	InChI=1S/C7H8O2/c8-7-1-2-3-5(4(2)7)9-6(3)7/h2-6,8H,1H2/t2-,3+,4-,5+,6-,7+/m1/s1
