13
gdb 25865	4.23056	1.13259	0.89341	0.9374	63.52	-0.233	-0.034	0.199	1180.7718	0.090039	-489.974289	-489.966325	-489.96538	-490.007166	28.802	
N	-0.1539976767	 1.3173994469	 0.0003255187	-0.543291
C	 0.0423629193	-0.0287554322	-0.0041659496	 0.321654
O	 1.1361444092	-0.5671329158	-0.0134930384	-0.370098
C	-1.19486739	-0.8274385387	 0.0046138957	 0.269877
C	-1.3576790873	-2.1606688013	 0.002905177	-0.162422
N	-2.7215292231	-2.3916546215	 0.0146727643	-0.363858
C	-3.4167867686	-1.1950196341	 0.0229017685	 0.478864
O	-4.596117841	-0.9901366739	 0.0342076602	-0.387575
O	-2.4398223512	-0.2146028791	 0.0168309955	-0.261135
H	 0.6523572629	 1.91848384	-0.0016930611	 0.268633
H	-1.0771974348	 1.7157864287	 0.0121076303	 0.278015
H	-0.6166264473	-2.940483379	-0.0051542875	 0.184628
H	-3.1897483014	-3.2810018901	 0.0169027465	 0.286708
87.0732	137.3341	160.9512	189.6651	272.0746	385.0088	432.4441	469.6655	559.0893	570.3145	620.4309	655.0218	747.1312	766.9989	772.5841	833.1133	939.8834	952.5883	1069.4894	1087.4645	1125.0862	1200.4609	1329.0575	1404.4385	1416.1901	1610.9766	1690.5157	1780.9103	1907.0019	3301.9134	3608.6044	3691.7605	3747.1224
NC(=O)C1=CNC(=O)O1	NC(=O)c1c[nH]c(=O)o1	
InChI=1S/C4H4N2O3/c5-3(7)2-1-6-4(8)9-2/h1H,(H2,5,7)(H,6,8)	InChI=1S/C4H4N2O3/c5-3(7)2-1-6-4(8)9-2/h1H,(H2,5,7)(H,6,8)
