19
gdb 104076	2.75791	1.29615	1.14979	2.4072	72.63	-0.223	0.0594	0.2823	1167.6453	0.15889	-456.372188	-456.362947	-456.362003	-456.405991	34.654	
C	 0.0721975381	 1.406557743	 0.1372762796	-0.254381
O	 0.0156793436	-0.0039369659	-0.0050021188	-0.262534
C	 0.6103642251	-0.5487150875	-1.1503979637	 0.44112
C	 2.0868281701	-0.2076089186	-1.2993034383	-0.457808
C	 0.2604635399	-2.061459473	-1.1595512306	-0.217181
N	-0.7790378578	-2.2212291268	-2.1732523184	-0.347525
C	-0.8739241361	-1.0892936305	-2.7484458252	 0.456444
N	-1.6592102954	-0.7782933535	-3.8276479506	-0.582962
O	-0.0808836395	-0.0590398078	-2.3320824337	-0.278141
H	 1.0844486468	 1.7600250664	 0.3722298973	 0.111998
H	-0.2855563421	 1.9155435673	-0.7648451867	 0.122867
H	-0.5854060724	 1.6566320394	 0.9726325855	 0.130135
H	 2.6312912163	-0.5299414579	-0.4070724499	 0.130303
H	 2.499428962	-0.7226707241	-2.1696384936	 0.132651
H	 2.2415152348	 0.8649342496	-1.4382740077	 0.127548
H	 1.1370241732	-2.6761663911	-1.3986450223	 0.101424
H	-0.0986240227	-2.3549754353	-0.1689520836	 0.120033
H	-2.3968520606	-1.4462194536	-3.9918617229	 0.266642
H	-1.9496821335	 0.1861613498	-3.8796422563	 0.259364
72.1079	118.1832	185.4018	200.5044	237.011	289.2771	313.1431	361.3165	381.3334	413.0579	469.4541	548.4254	574.8326	635.6587	719.0478	744.044	822.3506	869.8094	930.6588	966.6268	976.3251	1017.4299	1097.094	1121.1792	1161.9688	1177.6051	1183.8487	1206.79	1254.4231	1265.112	1332.8203	1409.4015	1423.5896	1470.6731	1484.6916	1487.7643	1494.9166	1507.5711	1512.8218	1619.2972	1765.2608	3012.8273	3027.265	3052.9408	3077.4934	3083.6835	3123.8362	3129.2422	3133.7955	3584.4495	3696.3086
COC1(C)CN=C(N)O1	CO[C@@]1(C)CN=C(N)O1	
InChI=1S/C5H10N2O2/c1-5(8-2)3-7-4(6)9-5/h3H2,1-2H3,(H2,6,7)	InChI=1S/C5H10N2O2/c1-5(8-2)3-7-4(6)9-5/h3H2,1-2H3,(H2,6,7)/t5-/m1/s1
