17
gdb 52230	2.75176	1.08891	0.89128	4.7068	70.66	-0.2661	-0.0425	0.2236	1299.7723	0.134047	-458.980007	-458.970856	-458.969912	-459.01546	31.589	
O	-0.1747080888	 1.3621556297	 1.6428779182	-0.276643
C	 0.014760469	 2.1881641912	 0.8016082189	 0.159602
O	 1.0745346525	 2.1395651048	-0.0314859263	-0.187236
C	 1.2118191572	 3.1741695616	-1.0167466647	-0.115422
C	 2.5355704494	 3.8711194157	-0.8450509114	-0.014612
C	 2.7384562019	 5.2561424597	-1.3503628813	-0.294466
C	 2.7238639729	 5.0258559291	 0.1545530172	-0.101239
C	 1.5753316171	 5.5300377802	 0.9408924887	 0.141245
O	 0.4598944053	 5.7076080408	 0.5004700582	-0.276536
H	-0.6372635628	 3.0625173476	 0.6191547371	 0.099497
H	 1.1779695477	 2.6887137211	-1.9980046855	 0.125115
H	 0.3833881357	 3.8843225631	-0.9450426834	 0.147511
H	 3.389962313	 3.2025557419	-0.8916173964	 0.118091
H	 3.6852046123	 5.5191428701	-1.806950408	 0.131489
H	 1.8712229765	 5.7806080977	-1.7380593915	 0.145664
H	 3.6741527601	 5.0373618675	 0.6765520896	 0.104889
H	 1.7993829212	 5.7426348784	 2.0078342205	 0.093049
42.9204	51.8427	121.9715	164.0733	177.7807	253.6229	264.0013	374.9551	384.3726	457.3624	664.3588	717.7158	747.1374	799.8874	868.7164	931.6192	1001.64	1006.0873	1038.6045	1045.5898	1058.5399	1089.4441	1104.9272	1131.6637	1145.1323	1207.323	1238.3443	1315.079	1368.2744	1394.908	1419.5822	1432.4194	1445.6999	1480.5322	1501.1004	1791.2428	1863.4287	2907.2286	2972.7231	3046.0246	3101.6248	3139.2551	3159.7167	3177.9544	3233.1931
O=COCC1CC1C=O	O=COC[C@H]1C[C@H]1C=O	
InChI=1S/C6H8O3/c7-2-5-1-6(5)3-9-4-8/h2,4-6H,1,3H2	InChI=1S/C6H8O3/c7-2-5-1-6(5)3-9-4-8/h2,4-6H,1,3H2/t5-,6+/m0/s1
