13
gdb 130998	7.67369	0.7632	0.69718	3.0675	60.66	-0.2718	-0.0447	0.2271	1467.4084	0.088925	-486.037496	-486.029558	-486.028614	-486.071932	26.436	
O	-0.1915118475	 0.2153601877	 0.5108637401	-0.230033
C	 0.0658521869	 1.1422313407	-0.2077325147	 0.140099
C	 1.3890584361	 1.8840869199	-0.1480976183	-0.158238
O	 1.3371761192	 2.9128739596	-1.1372965555	-0.254967
C	 2.4161260209	 3.6810742265	-1.2408805368	 0.514474
N	 2.481909818	 4.669846569	-2.125679473	-0.308275
N	 3.7028286966	 5.1292728115	-1.8606269412	-0.053146
N	 4.3507999889	 4.4976288848	-0.9035651155	-0.108604
N	 3.5358368191	 3.5551357086	-0.4874545963	-0.27975
H	-0.6412847404	 1.5306874293	-0.9720498937	 0.10725
H	 1.5388909078	 2.3064942186	 0.8524717656	 0.161329
H	 2.2173292648	 1.1923802162	-0.3418253585	 0.161333
H	 4.1063339996	 5.9089093576	-2.3585142621	 0.308528
45.6679	55.4695	112.5435	121.7447	305.1068	349.6918	409.0811	575.7999	585.2114	723.9816	733.4572	778.9655	786.1795	1028.7348	1040.6355	1059.98	1107.6684	1108.4468	1159.6563	1197.7769	1237.4054	1278.9476	1341.4185	1369.9256	1410.1188	1469.3742	1507.023	1602.5576	1849.3115	2910.7991	3038.7256	3082.5312	3649.58
O=CCOC1=NNN=N1	O=CCOc1n[nH]nn1	
InChI=1S/C3H4N4O2/c8-1-2-9-3-4-6-7-5-3/h1H,2H2,(H,4,5,6,7)	InChI=1S/C3H4N4O2/c8-1-2-9-3-4-6-7-5-3/h1H,2H2,(H,4,5,6,7)
