23
gdb 121017	3.07918	0.91221	0.75936	1.2863	86.84	-0.2362	0.0277	0.2639	1552.4386	0.205913	-388.300138	-388.290335	-388.289391	-388.335056	36.709	
C	-0.1101622045	 1.5855375957	-0.1616308551	-0.388075
C	-0.0075660254	 0.0589630812	 0.0161098014	-0.051571
C	 0.7410955555	-0.5694864485	-1.1404180962	-0.062621
C	 1.9613663083	-0.9750077795	-0.7950594304	-0.073475
C	 2.2403847016	-0.7337885992	 0.6690366965	-0.262561
C	 0.8308586051	-0.4259482023	 1.2456898183	 0.016626
C	 0.8082150612	 0.487476781	 2.472752206	-0.194522
C	 1.5044907777	-0.1183832763	 3.6858598725	-0.079314
O	 1.3666973137	 0.7934193475	 4.7665497775	-0.422978
H	 0.8803166595	 2.047936167	-0.2257972433	 0.116562
H	-0.6441258053	 1.8246143456	-1.0874436715	 0.108143
H	-0.6534995666	 2.0538739033	 0.6647921007	 0.116168
H	-1.0306095669	-0.3323754167	 0.0904562317	 0.069514
H	 0.3276382438	-0.6071444892	-2.143175989	 0.086537
H	 2.6951610439	-1.4034852274	-1.4693470667	 0.088045
H	 2.712829578	-1.5919854992	 1.1607773701	 0.099
H	 2.9317302423	 0.1123297147	 0.8033335611	 0.101847
H	 0.3986626552	-1.3923459725	 1.5381450451	 0.072968
H	 1.2831697521	 1.4497994801	 2.2488376832	 0.105001
H	-0.2274619827	 0.7089742739	 2.7590099083	 0.102429
H	 1.0474499643	-1.0929639439	 3.9269259862	 0.081656
H	 2.5662582332	-0.3049435309	 3.4594541022	 0.08682
H	 1.822426796	 0.4261286255	 5.5293535615	 0.2838
76.6019	102.5417	112.8079	136.7891	250.8831	265.6086	268.1444	276.9751	339.8973	377.9274	473.8209	536.7125	671.6605	735.3477	764.584	793.0772	803.4278	878.4199	941.7581	963.3787	974.9226	976.6118	1014.1376	1044.3221	1067.984	1083.5962	1095.3218	1115.8594	1136.0836	1144.6842	1190.4176	1238.0549	1243.2376	1286.9032	1305.814	1315.6058	1319.4817	1331.7541	1363.272	1373.776	1385.1821	1405.1566	1461.0177	1486.8409	1490.5055	1497.3065	1502.6662	1527.5946	1687.1006	2957.5103	2987.2942	2991.5394	3001.9099	3018.3454	3028.085	3032.3548	3050.8925	3074.8906	3097.6961	3106.0489	3173.4352	3199.9267	3830.0665
CC1C=CCC1CCO	C[C@H]1C=CC[C@H]1CCO	
InChI=1S/C8H14O/c1-7-3-2-4-8(7)5-6-9/h2-3,7-9H,4-6H2,1H3	InChI=1S/C8H14O/c1-7-3-2-4-8(7)5-6-9/h2-3,7-9H,4-6H2,1H3/t7-,8-/m0/s1
