16
gdb 11439	3.52987	1.60097	1.23594	3.751	60.34	-0.2716	0.0065	0.2781	968.9881	0.131385	-420.923779	-420.916268	-420.915324	-420.956091	27.472	
O	 0.1689505104	 1.2041293168	 0.4140838872	-0.418033
C	 0.0086423617	-0.1729155645	 0.1653664801	-0.059219
C	-1.4300190095	-0.5181790958	-0.2112261833	 0.088805
C	-1.7098978525	-2.0288373443	-0.3434870183	-0.256221
C	-2.270897036	-2.4030428068	 1.032768034	-0.35717
C	-2.7708416376	-1.0834580275	 1.6103770886	 0.429006
O	-3.4619426721	-0.9020685339	 2.5680252548	-0.328058
O	-2.2921217892	-0.0520007727	 0.8538517462	-0.239589
H	-0.5048032561	 1.4494823275	 1.0595287489	 0.296299
H	 0.6713319643	-0.4286356562	-0.6687892483	 0.115549
H	 0.3145123084	-0.7851475384	 1.031786586	 0.086699
H	-1.7134214311	 0.0484202673	-1.102008304	 0.105873
H	-2.4518077691	-2.2073738108	-1.1256182699	 0.124597
H	-0.8074888392	-2.5845386232	-0.6096233161	 0.119779
H	-3.0836106737	-3.1303167771	 1.0118658478	 0.145607
H	-1.5041768387	-2.7945366804	 1.7096127862	 0.146076
85.2227	113.5639	146.4203	229.4509	375.2012	430.6763	466.4641	509.0948	548.5353	658.8077	716.26	800.9426	822.8951	913.3297	961.6146	981.1817	1035.9752	1068.5989	1097.5407	1099.4633	1162.6337	1181.1347	1227.6864	1240.0079	1289.6344	1319.5916	1340.5378	1376.8634	1402.8312	1437.7901	1464.4887	1498.3905	1500.4289	1887.5811	2956.7418	3064.189	3067.4891	3069.1142	3086.8673	3111.4571	3130.7249	3793.9358
OCC1CCC(=O)O1	OC[C@H]1CCC(=O)O1	
InChI=1S/C5H8O3/c6-3-4-1-2-5(7)8-4/h4,6H,1-3H2	InChI=1S/C5H8O3/c6-3-4-1-2-5(7)8-4/h4,6H,1-3H2/t4-/m1/s1
