17
gdb 110190	2.50674	1.20451	0.88938	1.8346	71.69	-0.2376	-0.0361	0.2015	1289.9475	0.132533	-458.962077	-458.952723	-458.951779	-458.99724	32.332	
C	 0.4191654671	 1.5676768402	 0.2151752261	-0.253187
O	-0.1619051809	 0.2886815419	 0.4350315045	-0.240916
C	 0.6748541575	-0.5858731658	 1.1161027226	 0.026823
C	 0.0675114865	-2.009733234	 1.4010202167	-0.130546
C	 1.3903383248	-2.6774139491	 0.9378416433	-0.36551
C	 1.787199966	-1.3310609083	 0.3268893377	 0.369283
O	 2.5259990058	-0.9870524608	-0.5488690503	-0.293865
C	-0.351990089	-2.2252932836	 2.8299488002	 0.130515
O	 0.3328144596	-2.768778484	 3.6600631917	-0.241139
H	 1.3213732618	 1.4949146512	-0.4019784799	 0.145604
H	-0.3305943116	 2.1685589718	-0.3030378834	 0.134855
H	 0.6743330583	 2.0545118872	 1.1685545492	 0.111295
H	 1.0875301514	-0.1353569949	 2.036736556	 0.098495
H	-0.7707829929	-2.1681111231	 0.7176570401	 0.114483
H	 2.0086603478	-2.950088756	 1.7997198324	 0.159174
H	 1.3318282082	-3.5254483508	 0.2538881368	 0.140875
H	-1.3477253503	-1.805848092	 3.0933566863	 0.093761
59.79	79.1915	99.2718	160.8034	207.8799	214.4102	248.184	292.9055	397.2468	438.8732	586.641	644.4308	677.4757	756.9623	820.5523	905.9703	976.4321	1011.3736	1015.8124	1054.1094	1082.3109	1146.4048	1165.5737	1178.8111	1185.4197	1204.1477	1230.3613	1249.7969	1345.2759	1362.8465	1417.735	1442.1964	1479.291	1486.1543	1512.6732	1819.7419	1888.7544	2894.579	2946.2589	2992.9507	3064.5989	3074.842	3090.01	3132.9667	3133.1139
COC1C(CC1=O)C=O	CO[C@H]1[C@@H](CC1=O)C=O	
InChI=1S/C6H8O3/c1-9-6-4(3-7)2-5(6)8/h3-4,6H,2H2,1H3	InChI=1S/C6H8O3/c1-9-6-4(3-7)2-5(6)8/h3-4,6H,2H2,1H3/t4-,6-/m0/s1
