15
gdb 34787	2.37989	1.549	1.10997	4.1536	77.43	-0.2666	-0.0028	0.2638	1081.9899	0.112838	-379.57327	-379.565606	-379.564662	-379.605531	29.378	
C	-0.0946488197	-1.2823763708	-0.0724225711	-0.407914
C	-0.047727019	-0.0814987452	-0.0310611549	 0.283955
C	 0.0005529565	 1.3623090734	 0.0149068219	-0.218115
C	 0.112169594	 2.1379368808	 1.3759474364	-0.050621
C	 1.5707390578	 1.6376996796	 1.5223839265	-0.246051
C	 1.3803893394	 2.1319058459	 0.0608453931	 0.236492
N	 0.6842245654	 3.3442251837	 0.6512930946	-0.338978
C	 2.3568929992	 2.2291894606	-0.9965444225	 0.167844
N	 3.1277312948	 2.2919102694	-1.8555866813	-0.340956
H	-0.1333922701	-2.3432912555	-0.1132211762	 0.206849
H	-0.7075709135	 1.814068108	-0.6870875043	 0.112884
H	-0.6527687843	 2.2362608379	 2.1438450858	 0.109014
H	 2.2200215068	 2.2657091887	 2.130016044	 0.131229
H	 1.7256539161	 0.5696967239	 1.6618341117	 0.134446
H	-0.0010487635	 3.7016253698	-0.0233262938	 0.219921
94.3334	166.6156	174.1598	210.3282	417.1245	427.2332	501.9398	524.7788	563.671	574.2247	636.7305	646.9124	660.5869	765.6191	837.5389	904.654	929.6176	942.2673	966.3431	1054.4286	1062.8397	1096.6512	1125.0343	1162.0128	1208.2419	1211.6028	1260.0428	1265.9184	1297.0389	1376.0268	1495.0467	2232.7756	2355.8116	3062.4125	3107.4551	3142.7382	3191.1229	3378.7772	3499.5196
C#CC1C2CC1(N2)C#N	C#C[C@H]1[C@H]2C[C@@]1(N2)C#N	
InChI=1S/C7H6N2/c1-2-5-6-3-7(5,4-8)9-6/h1,5-6,9H,3H2	InChI=1S/C7H6N2/c1-2-5-6-3-7(5,4-8)9-6/h1,5-6,9H,3H2/t5-,6+,7+/m0/s1
