14
gdb 123701	4.21735	1.63762	1.28783	5.7029	66.75	-0.219	-0.0069	0.212	914.8311	0.104375	-432.825859	-432.819848	-432.818904	-432.856151	24.317	
C	 0.0006427795	 1.4851990022	 0.0942306709	-0.318082
C	 1.2966092046	 0.7375339828	 0.0348429062	 0.094629
O	 1.9883173263	 0.4277468114	 1.2429190829	-0.258361
C	 1.1464573826	-0.4057122323	 1.9135683477	 0.388712
C	 0.0102305389	-0.7471665074	 1.2320038407	 0.298455
N	-0.6164750517	-1.5754166522	 2.0941271086	-0.336278
N	 0.1154223927	-1.7275041512	 3.2305563865	-0.12909
N	 1.2020031427	-0.9886777278	 3.1190018689	-0.297177
C	-0.0412670018	-0.0355783861	-0.0545856972	-0.228978
H	-0.3207296334	 1.9148358153	 1.0361546496	 0.139844
H	-0.246651095	 2.0681138384	-0.7864915467	 0.128981
H	 1.9759273814	 0.8618911835	-0.7982476309	 0.121817
H	-1.485537982	-2.0772172109	 2.0125304416	 0.282313
H	-0.4007630349	-0.4916436659	-0.9690409488	 0.113216
154.7345	279.3047	384.7285	458.1297	462.5603	541.7431	624.3519	700.6578	707.4586	746.8587	770.1373	796.4718	826.6158	933.353	968.911	1021.1571	1027.4531	1039.653	1062.4222	1079.1011	1134.9143	1178.5636	1185.9739	1216.0654	1288.1739	1358.5916	1380.3027	1438.5228	1463.2529	1550.8473	1613.5605	3137.2631	3181.179	3204.8125	3230.932	3666.4575
C1C2OC3=C(NN=N3)C12	C1[C@H]2Oc3c([nH]nn3)[C@@H]12	
InChI=1S/C5H5N3O/c1-2-3(1)9-5-4(2)6-8-7-5/h2-3H,1H2,(H,6,7,8)	InChI=1S/C5H5N3O/c1-2-3(1)9-5-4(2)6-8-7-5/h2-3H,1H2,(H,6,7,8)/t2-,3+/m0/s1
