14
gdb 34530	3.99853	1.33028	1.25259	4.0751	72.07	-0.2458	-0.0664	0.1794	990.6679	0.102799	-399.534179	-399.527716	-399.526772	-399.565105	25.738	
N	 0.0818200968	-1.1394839893	 0.032822711	-0.339659
C	-0.01441644	 0.0159351232	 0.0073510133	 0.186224
C	-0.0729197566	 1.4226306377	-0.0262157412	 0.261635
C	-1.1248499555	 2.2468451049	-0.0044405617	-0.198007
C	-0.5114894663	 3.6681341575	 0.0212367011	-0.035409
O	 0.6469626276	 3.4501750516	-0.7968812837	-0.221502
C	 1.170145809	 2.3780237348	-0.010511137	-0.108644
C	 1.2061934706	 3.0374384072	 1.3882308262	-0.073686
C	 0.1523396603	 3.8465951779	 1.4099261557	-0.075796
H	-2.1757542906	 2.0035640742	 0.0465483045	 0.143001
H	-1.1276705589	 4.4803603221	-0.358163471	 0.100333
H	 2.0953462091	 1.9801093131	-0.4201979807	 0.10783
H	 1.9216352996	 2.8083867257	 2.1638606545	 0.128805
H	-0.2356373252	 4.4593333294	 2.2099874291	 0.124874
119.8062	161.5715	399.6497	422.8802	489.6314	500.477	581.8765	606.4989	670.7451	720.0166	766.2359	834.9574	838.3778	868.0272	889.5706	901.0857	909.8066	925.8076	972.9241	1042.9209	1097.5873	1160.8233	1206.3763	1224.1071	1239.6956	1263.8425	1294.1124	1324.6449	1629.6375	1667.2019	2330.2722	3151.5082	3160.751	3236.5792	3251.0596	3262.439
N#CC1=CC2OC1C=C2	N#CC1=C[C@@H]2O[C@H]1C=C2	
InChI=1S/C7H5NO/c8-4-5-3-6-1-2-7(5)9-6/h1-3,6-7H	InChI=1S/C7H5NO/c8-4-5-3-6-1-2-7(5)9-6/h1-3,6-7H/t6-,7+/m1/s1
