15
gdb 123459	5.26235	0.94656	0.83055	3.8582	66.67	-0.2683	-0.0386	0.2297	1306.2006	0.112304	-453.896086	-453.888447	-453.887503	-453.929758	27.293	
C	 0.1292763299	 1.2900615759	 0.6971888728	-0.351084
C	-0.077107316	-0.0661900059	 0.0583626856	 0.092161
C	-1.385691671	-0.505657252	-0.4367403385	-0.179658
O	-0.3741713847	-0.0536561907	-1.3421358407	-0.237713
C	 1.4048718276	 1.9320109613	 0.2470956043	 0.247625
C	 1.9768407309	 2.0236285535	-0.984253885	-0.031395
O	 3.1189412823	 2.6971766102	-0.8861849763	-0.159075
N	 3.2606741625	 3.0443512887	 0.4932101949	-0.006595
N	 2.2623399332	 2.5886174912	 1.1066344697	-0.175897
H	-0.7258504824	 1.9323567667	 0.4553206978	 0.128182
H	 0.1574739589	 1.18916935	 1.7869745603	 0.136202
H	 0.6470965616	-0.8294784302	 0.3457988048	 0.106476
H	-1.6165499312	-1.5681110687	-0.4890655264	 0.123371
H	-2.2469908032	 0.152761027	-0.3328708997	 0.120429
H	 1.6848012516	 1.663312753	-1.9565499236	 0.186971
38.2047	73.5028	131.6965	290.5867	310.0644	363.2328	461.626	630.0341	640.141	702.1876	747.9291	794.1305	861.3299	879.3418	937.0959	955.8788	990.645	1046.7817	1095.4893	1103.7099	1145.6117	1163.4374	1169.5459	1219.343	1259.2439	1295.0688	1318.4715	1363.5853	1441.8966	1460.2822	1470.8305	1531.3338	1609.1895	3037.336	3087.1735	3089.2738	3109.9576	3177.0017	3293.6691
C(C1CO1)C1=CON=N1	C([C@H]1CO1)c1conn1	
InChI=1S/C5H6N2O2/c1(5-3-8-5)4-2-9-7-6-4/h2,5H,1,3H2	InChI=1S/C5H6N2O2/c1(5-3-8-5)4-2-9-7-6-4/h2,5H,1,3H2/t5-/m0/s1
