16
gdb 127848	3.11953	1.47122	1.00596	4.0285	81.31	-0.1889	-0.0213	0.1676	1129.3384	0.12535	-434.070744	-434.062406	-434.061462	-434.10393	31.001	
C	-0.084158058	 1.468011199	-0.1361798832	-0.306323
N	 0.0064583288	 0.0243561747	-0.0143565057	-0.338196
C	 0.5800975008	-0.5702955058	 0.9688462478	 0.228774
C	 0.6214417345	-2.0229467789	 1.0047367035	-0.171899
C	 1.2139095022	-2.6898572539	 2.0198569513	 0.0261
N	 1.7944797943	-2.0138947912	 3.0473794626	-0.245841
N	 1.8171639166	-0.6622685103	 3.1196433697	-0.305231
C	 1.257726965	 0.005585257	 2.1620243946	 0.357401
O	 1.2996600001	 1.3512716177	 2.2673500459	-0.399578
H	 0.8975961741	 1.9554282728	-0.1854450811	 0.115626
H	-0.6202021219	 1.6976707863	-1.062178458	 0.106045
H	-0.6302850573	 1.9337735279	 0.6936716535	 0.115616
H	 0.1582881855	-2.5554868665	 0.1851970631	 0.11372
H	 1.2655557611	-3.7702072141	 2.083164773	 0.130514
H	 2.2427704353	-2.4783210015	 3.8166622702	 0.275034
H	 1.7698240687	 1.5483449268	 3.0903275529	 0.298238
56.013	112.2561	221.1807	255.1436	295.5595	321.9419	366.8517	447.3445	451.917	541.7704	576.0338	581.5354	612.4978	703.5025	766.1011	831.7008	912.5062	948.623	1029.6736	1048.5477	1095.9006	1101.3474	1168.3776	1207.9983	1252.1501	1305.6655	1416.8604	1429.0822	1437.8726	1485.8721	1503.5714	1530.7066	1634.4837	1660.7448	1688.2553	3005.036	3059.8438	3082.7796	3204.6986	3232.3117	3683.7251	3754.4908
CN=C1C=CNN=C1O	C[N]C1=CCNN=C1O	
InChI=1S/C5H7N3O/c1-6-4-2-3-7-8-5(4)9/h2-3H,1H3,(H,6,7)(H,8,9)	InChI=1S/C5H8N3O/c1-6-4-2-3-7-8-5(4)9/h2,7H,3H2,1H3,(H,8,9)
