19
gdb 38758	2.41686	2.27872	1.85541	2.4959	72.7	-0.2508	0.0781	0.3289	857.5774	0.163698	-423.0344	-423.028213	-423.027269	-423.064576	26.768	
C	-0.0538379724	 1.5275963431	-0.0904200856	-0.240456
C	 1.4935307816	 1.5478012071	 0.0558803075	-0.046531
C	 1.9895644292	 1.798332345	 1.4802777155	-0.088403
O	 1.4326670816	 0.8983798627	 2.4411807346	-0.270061
C	 1.155306697	-0.4053327359	 1.9698579962	 0.198702
C	 2.1224195903	-0.821822907	 0.8548432147	-0.269478
C	 1.5212269186	 0.0110067535	-0.2735506233	-0.065896
C	-0.0118954718	-0.0148455979	 0.0168657348	 0.110701
O	-0.1246822794	-0.4824790405	 1.3604557095	-0.263402
H	-0.6434245059	 2.0405279771	 0.673084905	 0.111162
H	-0.374456243	 1.8574342086	-1.0827977722	 0.0973
H	 2.0332908782	 2.203562914	-0.6324828697	 0.070204
H	 3.088228446	 1.7311936422	 1.5025330225	 0.09221
H	 1.7169218615	 2.8045091228	 1.8161165824	 0.109844
H	 1.1232008205	-1.0452584225	 2.8528263243	 0.090038
H	 3.1637799871	-0.5851582506	 1.0858964942	 0.10986
H	 2.0384266092	-1.8943294021	 0.6586018815	 0.108384
H	 1.8347994966	-0.2462642643	-1.2845135403	 0.071414
H	-0.6919506348	-0.5997873553	-0.6055986116	 0.074409
186.3119	336.3141	355.1111	422.9034	455.7466	522.7548	589.744	636.5751	769.368	794.9529	806.5747	852.077	873.121	886.0276	901.9769	933.8265	954.1087	973.7116	1003.4268	1033.0353	1056.2285	1080.5653	1090.6833	1101.8306	1134.0686	1181.3215	1199.7525	1228.0012	1248.2379	1260.0232	1274.6118	1292.2188	1319.0165	1332.2146	1341.8866	1364.866	1385.4164	1412.3223	1468.343	1483.5887	1517.0489	2983.1572	3055.5829	3063.9495	3064.6805	3072.7632	3087.9275	3112.4763	3115.1925	3117.83	3121.8041
C1C2COC3CC2C1O3	C1[C@H]2CO[C@@H]3C[C@H]2[C@H]1O3	
InChI=1S/C7H10O2/c1-4-3-8-7-2-5(4)6(1)9-7/h4-7H,1-3H2	InChI=1S/C7H10O2/c1-4-3-8-7-2-5(4)6(1)9-7/h4-7H,1-3H2/t4-,5+,6-,7-/m0/s1
