16
gdb 50458	4.43345	1.00286	0.85809	1.9932	74.21	-0.2423	-0.0699	0.1724	1275.6953	0.124136	-437.906843	-437.898623	-437.897679	-437.940942	29.596	
O	-0.1893558317	 0.1207575468	 0.4347122049	-0.238163
C	 0.0043953747	 1.1745831312	-0.1065277191	 0.135239
C	 1.3645874893	 1.8950238861	-0.1122885884	-0.092375
N	 1.4055054377	 2.8246095956	-1.2264162073	-0.33147
C	 2.4488391612	 3.8444877538	-1.1588274177	-0.280564
C	 2.3434255756	 4.6480433738	 0.1335542406	 0.399715
O	 2.6988191061	 5.8055191413	 0.1996697873	-0.321744
C	 1.8784042044	 3.8866092637	 1.3089467292	-0.177859
C	 1.4978438154	 2.6084880359	 1.2061813974	-0.03338
H	-0.7907989903	 1.739246198	-0.639617991	 0.103765
H	 2.1319513698	 1.0969075419	-0.1406461439	 0.10443
H	 1.4633299843	 2.3227747655	-2.1048761922	 0.232946
H	 3.4775787445	 3.4361698964	-1.1973054334	 0.109379
H	 2.3410091068	 4.5323228623	-2.0006100222	 0.135365
H	 1.9310081835	 4.3960795723	 2.2658785335	 0.119204
H	 1.2457872687	 2.0188129154	 2.0830705822	 0.135513
37.1431	64.2278	160.4596	215.1119	292.9441	362.6194	413.4792	475.7144	498.3706	562.7756	625.8353	688.4735	750.8228	799.432	883.5149	946.2113	980.4613	1006.4138	1026.388	1056.8748	1079.1141	1145.0989	1187.0743	1227.1623	1247.6423	1267.8209	1303.3663	1364.3999	1390.1995	1398.1006	1482.3802	1496.0983	1678.2751	1791.3219	1838.4616	2907.7286	2913.221	2917.3197	3102.2523	3172.7138	3194.3159	3537.9988
O=CC1NCC(=O)C=C1	O=C[C@H]1NCC(=O)C=C1	
InChI=1S/C6H7NO2/c8-4-5-1-2-6(9)3-7-5/h1-2,4-5,7H,3H2	InChI=1S/C6H7NO2/c8-4-5-1-2-6(9)3-7-5/h1-2,4-5,7H,3H2/t5-/m0/s1
