19
gdb 120569	3.96342	0.73812	0.69112	3.2404	78.17	-0.2688	0.0166	0.2854	1638.2512	0.157848	-419.193303	-419.183141	-419.182197	-419.22912	35.797	
C	 0.0687383789	 1.5282212472	-0.1998313932	-0.454255
C	-0.0055701353	 0.0360349773	 0.0604288477	 0.151193
N	 1.2742677167	-0.7087020863	 0.0723667032	-0.353233
C	 0.4972215091	-0.6259140077	 1.3150507701	-0.05003
C	 1.0988742744	 0.1286603172	 2.4759478011	-0.197709
C	 2.1052404393	-0.7276335855	 3.2405671899	-0.068552
O	 2.5879292449	 0.0509229754	 4.3222678365	-0.419535
C	-1.1331011687	-0.6231501128	-0.5677485273	 0.238002
N	-2.025655078	-1.1487081003	-1.0836126468	-0.339919
H	 0.9768584207	 1.9426476873	 0.2382241528	 0.143125
H	 0.0909962163	 1.722025089	-1.275992387	 0.141941
H	-0.8000460027	 2.04064951	 0.2234116178	 0.13807
H	 1.1667185986	-1.6172569616	-0.3714439535	 0.249692
H	-0.0558202866	-1.520101068	 1.6012166494	 0.106709
H	 1.608395509	 1.0315180326	 2.1311861095	 0.119217
H	 0.3045766708	 0.4404851946	 3.1641427131	 0.118054
H	 1.6166524269	-1.6498287283	 3.5973204331	 0.084968
H	 2.9174417061	-1.0262340461	 2.5603419951	 0.103504
H	 3.2563511096	-0.4596959141	 4.7881452786	 0.288757
56.8177	85.1634	101.5729	156.7895	161.0049	203.9668	255.4994	263.0135	331.5436	380.146	412.2354	496.0334	586.3677	606.87	681.1947	794.989	822.0833	877.4287	958.1258	998.5232	1015.2612	1074.9852	1089.5058	1094.4016	1110.5215	1126.1136	1209.0059	1239.3809	1256.909	1284.9065	1313.3785	1328.7338	1339.5807	1415.9887	1455.822	1461.8586	1477.2721	1487.2091	1497.5497	1529.1216	2345.5245	2961.0131	3001.9547	3049.2491	3053.2672	3104.3289	3118.7273	3119.9073	3154.2914	3509.4517	3832.491
CC1(NC1CCO)C#N	C[C@]1(N[C@H]1CCO)C#N	
InChI=1S/C6H10N2O/c1-6(4-7)5(8-6)2-3-9/h5,8-9H,2-3H2,1H3	InChI=1S/C6H10N2O/c1-6(4-7)5(8-6)2-3-9/h5,8-9H,2-3H2,1H3/t5-,6-/m0/s1
