21
gdb 96183	2.3123	1.75572	1.1489	1.7225	77.56	-0.2414	0.0715	0.313	1117.6413	0.184381	-424.216695	-424.208557	-424.207613	-424.249372	31.767	
C	-0.0702107266	 1.5426983705	-0.0960042867	-0.408493
C	 0.0238774979	 0.0247600693	-0.0178529653	 0.10348
O	 0.6586416241	-0.4295641569	-1.2064761501	-0.254387
C	 0.7084671067	-1.8443962318	-1.2700128251	-0.085155
C	 1.6953368023	-2.4085109916	-0.2455799491	-0.223548
C	 1.4188055058	-1.8760420662	 1.1729185343	 0.095391
O	 2.6189584224	-1.3476992331	 1.7915509958	-0.289582
C	 2.1811733433	 0.0095152706	 1.5621845521	-0.101051
C	 0.7544397903	-0.4715916502	 1.2287255108	-0.04164
H	 0.9270371903	 1.9913232119	-0.130806053	 0.127413
H	-0.6086723218	 1.8407197802	-0.9993228388	 0.126207
H	-0.6005621512	 1.9400678665	 0.7747246239	 0.114996
H	-0.9989719905	-0.3942347502	 0.0060592532	 0.062015
H	-0.3010866987	-2.2623634075	-1.1141462176	 0.084376
H	 1.0187495671	-2.1006015201	-2.2871870547	 0.108448
H	 1.6760438759	-3.5034970993	-0.2666463356	 0.096784
H	 2.7064709064	-2.0948910325	-0.5221223869	 0.121275
H	 0.9599953104	-2.6425042541	 1.8065139271	 0.076188
H	 2.3078715404	 0.6387738647	 2.4490615315	 0.103305
H	 2.7083368647	 0.4678961654	 0.7142484308	 0.103795
H	 0.0973497011	-0.3791609957	 2.0977774532	 0.080184
94.7119	126.1675	211.026	224.0317	304.6024	319.6428	416.939	436.2451	464.1119	568.6137	660.324	691.1176	791.7918	853.4404	887.5581	890.5179	943.7019	961.4209	998.0081	1004.6095	1023.8652	1081.5174	1096.4131	1108.6755	1123.6196	1152.0272	1171.3837	1188.1644	1222.4949	1257.0205	1273.1463	1295.2319	1335.0096	1346.9528	1355.3668	1374.9059	1382.1531	1394.6318	1407.1333	1422.7175	1479.8523	1483.5268	1499.0376	1504.8197	1520.0085	2929.0296	2959.1024	3007.5469	3036.9941	3043.8773	3048.0109	3062.3911	3078.499	3082.5985	3097.0332	3117.1301	3123.4699
CC1OCCC2OCC12	C[C@H]1OCC[C@H]2OC[C@@H]12	
InChI=1S/C7H12O2/c1-5-6-4-9-7(6)2-3-8-5/h5-7H,2-4H2,1H3	InChI=1S/C7H12O2/c1-5-6-4-9-7(6)2-3-8-5/h5-7H,2-4H2,1H3/t5-,6+,7-/m1/s1
