15
gdb 126237	2.03214	1.64338	0.96355	6.8054	73.99	-0.2719	-0.0312	0.2407	1178.8953	0.114113	-413.011802	-413.003606	-413.002662	-413.045733	29.	
C	-0.3193258968	 1.572747091	-0.0628878258	-0.377449
C	 0.0975735071	 0.0956704363	 0.0611670996	-0.322051
C	 0.7996197762	-0.4253894697	-1.1492480312	 0.265096
C	 2.1137516673	-0.8003562214	-1.3772742037	 0.149004
N	 2.2541052702	-1.1970706499	-2.6845402928	-0.249387
N	 1.1102531592	-1.0896261759	-3.2744178358	-0.101167
N	 0.2279211438	-0.6240356575	-2.3568274308	-0.228578
C	 3.1799862249	-0.7950819318	-0.4434185422	 0.23566
N	 4.0224311831	-0.7752045846	 0.3502380811	-0.342573
H	 0.5517371222	 2.2112990066	-0.2322242236	 0.144677
H	-1.0164100366	 1.7267302255	-0.8926761404	 0.118883
H	-0.8130861729	 1.9020388429	 0.8550084623	 0.135266
H	 0.7703644038	-0.0293114304	 0.914264843	 0.152666
H	-0.7844793692	-0.5233834027	 0.2656387147	 0.129952
H	-0.7315089623	-0.4780704385	-2.6314218344	 0.290001
34.3136	131.2494	155.6934	183.984	218.5154	329.2251	382.1119	532.165	556.6473	603.8507	611.6891	679.2992	721.1975	767.172	794.4247	971.9853	1019.2527	1038.0811	1081.0778	1083.877	1178.4118	1245.0033	1297.9424	1310.3498	1359.4271	1388.0259	1416.3042	1476.5115	1491.6856	1498.6967	1504.3932	1602.8727	2354.6477	3037.8998	3044.8527	3092.5927	3118.4102	3129.2456	3646.8609
CCC1=C(N=NN1)C#N	CCc1c(nn[nH]1)C#N	
InChI=1S/C5H6N4/c1-2-4-5(3-6)8-9-7-4/h2H2,1H3,(H,7,8,9)	InChI=1S/C5H6N4/c1-2-4-5(3-6)8-9-7-4/h2H2,1H3,(H,7,8,9)
