20
gdb 96043	2.50488	1.23996	0.96703	2.7972	77.33	-0.2607	0.0257	0.2864	1289.4884	0.171241	-440.301045	-440.29178	-440.290836	-440.335932	33.209	
C	-0.6185699121	 1.3701173736	-0.0094360387	-0.412887
C	 0.0615734986	 0.0058847682	-0.0685943942	-0.013643
C	 1.3657577382	-0.0592183775	-0.8879903334	-0.248203
C	 2.0547731465	-1.3157868372	-0.3325190903	-0.083148
O	 1.4541825267	-1.5755978462	 0.9542150488	-0.25831
C	 0.550533786	-0.5605984341	 1.2673463397	 0.20701
O	 1.1879480533	 0.5018919824	 1.9862591518	-0.202379
C	 1.5978518751	 0.2123941157	 3.2385234254	 0.128343
N	 2.2526449783	 1.0654624691	 3.8992194637	-0.445069
H	 0.0544591143	 2.1238600627	 0.4049573356	 0.145839
H	-0.9243785445	 1.6892901513	-1.0106397573	 0.115132
H	-1.516037871	 1.3387253188	 0.6170895279	 0.116237
H	-0.6402641262	-0.7370348726	-0.4682147698	 0.08552
H	 1.1879214937	-0.1216200304	-1.9637906055	 0.106297
H	 1.9678661527	 0.8326625385	-0.692028549	 0.126425
H	 1.8826797689	-2.1978025097	-0.959738856	 0.107476
H	 3.1344910551	-1.189170871	-0.2063605811	 0.115721
H	-0.2332226184	-0.9960109441	 1.8981413963	 0.087286
H	 1.2992571453	-0.7874658881	 3.5782221043	 0.09491
H	 2.4632420097	 0.6957338706	 4.8242422118	 0.227442
61.7544	93.4592	115.901	136.1729	171.186	217.5581	272.8973	346.1011	450.5227	534.5344	578.9503	649.017	762.0439	826.5011	828.601	897.3677	937.6719	951.3574	962.0349	978.3234	1010.5228	1043.9286	1065.5761	1093.6994	1138.4891	1149.6894	1171.5547	1216.6764	1236.2332	1292.6139	1308.9131	1326.5122	1350.4626	1379.1152	1382.7989	1406.2108	1416.272	1431.9326	1492.0491	1498.4	1502.057	1529.9684	1746.9579	3027.1945	3035.7212	3038.112	3041.5726	3051.8764	3064.1553	3078.8066	3102.3627	3117.7155	3133.1096	3512.841
CC1CCOC1OC=N	C[C@H]1CCO[C@H]1O[CH][NH]	
InChI=1S/C6H11NO2/c1-5-2-3-8-6(5)9-4-7/h4-7H,2-3H2,1H3	InChI=1S/C6H11NO2/c1-5-2-3-8-6(5)9-4-7/h4-7H,2-3H2,1H3/t5-,6-/m0/s1
