17
gdb 34337	2.98237	1.60834	1.3181	1.962	78.16	-0.245	0.0135	0.2585	999.753	0.135543	-384.589736	-384.582348	-384.581404	-384.621261	29.91	
C	-0.0437365075	-1.1563468544	-0.0763059208	-0.368974
C	-0.0085218883	 0.0450532074	-0.0361055857	 0.224988
C	 0.0390656888	 1.48191628	 0.0398556219	 0.249489
O	-0.4292001358	 2.1632829649	-1.1627252663	-0.336488
C	 0.8250856861	 2.8850657373	-1.3004132948	-0.115518
C	 1.3457651948	 2.3219720733	 0.0329359437	-0.132361
C	 0.8980859366	 2.9923835183	 1.3506371772	-0.065617
C	-0.4668426273	 3.6158387685	 1.2544115374	-0.297027
C	-0.371753697	 2.1272750177	 1.3922280673	-0.095103
H	-0.076488963	-2.2168479592	-0.1231645657	 0.193158
H	 1.3801806323	 2.5408201012	-2.1810235981	 0.109278
H	 0.6745125289	 3.9682509494	-1.3643730733	 0.105186
H	 2.3220663055	 1.8429126398	 0.0553136045	 0.09449
H	 1.5740851898	 3.2347279049	 2.1606717928	 0.092918
H	-0.789605047	 4.1313552279	 2.153149147	 0.11378
H	-0.8371539423	 4.0495683924	 0.3326633809	 0.134002
H	-0.8142472546	 1.5765559905	 2.2124954519	 0.0938
135.2958	144.3156	238.3336	311.7255	389.9464	468.3349	501.6243	514.8261	595.7957	612.6431	667.0314	689.609	757.2577	794.6676	867.8556	914.0604	928.8914	933.0988	972.9359	993.6579	1013.5895	1030.045	1052.518	1071.1112	1083.8994	1110.3768	1123.4774	1162.3475	1182.89	1226.2949	1293.8399	1307.6841	1330.976	1357.1425	1486.1312	1519.6393	2233.7183	3024.143	3072.3774	3136.9369	3139.9723	3187.3474	3196.6986	3220.7066	3500.9392
C#CC12OCC1C1CC21	C#C[C@]12OC[C@H]1[C@H]1C[C@@H]21	
InChI=1S/C8H8O/c1-2-8-6-3-5(6)7(8)4-9-8/h1,5-7H,3-4H2	InChI=1S/C8H8O/c1-2-8-6-3-5(6)7(8)4-9-8/h1,5-7H,3-4H2/t5-,6+,7-,8+/m0/s1
