17
gdb 91242	2.62156	1.62002	1.42762	4.0199	66.86	-0.2538	-0.004	0.2498	980.0319	0.136836	-458.995879	-458.988291	-458.987346	-459.028114	28.879	
C	 0.7887885003	 1.192554503	 0.4268747704	-0.404515
C	 0.0241231819	-0.0330615674	-0.0709822278	 0.103265
C	 0.6357825711	-0.7104394838	-1.3242716006	-0.262673
C	 1.4626073334	-1.8595311357	-0.7671442138	 0.089308
O	 2.7964351957	-1.4631741781	-0.2926956384	-0.264182
C	 2.4339595795	-1.5848766347	 1.0318640486	 0.42779
O	 3.1099849176	-1.3930561981	 1.9879339958	-0.32036
C	 0.9786903707	-2.0106805296	 0.6909405664	-0.073992
O	-0.0348560813	-1.0749853813	 0.9288603256	-0.259576
H	 1.853033282	 0.9900783131	 0.570261706	 0.147791
H	 0.6965725614	 2.0054715005	-0.3012612	 0.117784
H	 0.3696162234	 1.5336028505	 1.3770085421	 0.133613
H	-1.0175399213	 0.2505066898	-0.2494712839	 0.094049
H	-0.1533703456	-1.1215798445	-1.9608534764	 0.118762
H	 1.2384970923	-0.0262148463	-1.9255822449	 0.130066
H	 1.5414187907	-2.7390381842	-1.4049839338	 0.104983
H	 0.6788462883	-2.9855540631	 1.0784955948	 0.117888
97.2878	122.8425	218.1155	239.338	341.4328	360.449	428.2554	476.9217	635.0537	697.872	757.5185	781.8235	823.6085	845.6446	873.1798	887.3355	937.5013	981.9009	1022.0157	1046.9883	1084.6964	1098.2622	1132.4748	1149.2471	1204.8203	1218.038	1265.3646	1308.7051	1328.5884	1347.6639	1370.9377	1390.3098	1413.7867	1471.0023	1493.3195	1495.0138	1940.7122	3044.6142	3055.5752	3068.4836	3108.5971	3114.7836	3120.5198	3128.4018	3134.973
CC1CC2OC(=O)C2O1	C[C@H]1C[C@H]2OC(=O)[C@H]2O1	
InChI=1S/C6H8O3/c1-3-2-4-5(8-3)6(7)9-4/h3-5H,2H2,1H3	InChI=1S/C6H8O3/c1-3-2-4-5(8-3)6(7)9-4/h3-5H,2H2,1H3/t3-,4+,5-/m0/s1
