18
gdb 32826	3.17055	1.27232	0.94265	4.4805	74.69	-0.1737	0.0497	0.2234	1222.8628	0.149557	-439.115702	-439.107593	-439.106649	-439.148717	31.217	
N	-0.1672093119	 0.4824861973	 1.1483491764	-0.508948
H	-0.8956531378	 0.0875886758	 2.6690879501	 0.315897
H	 0.8477831062	 0.5132906892	 1.1664515948	 0.247792
H	-0.4257612771	-0.216367077	 0.4565719296	 0.245312
C	-0.720253455	 1.7995218383	 0.7636431143	-0.163451
C	-2.2523243988	 1.8024849279	 0.8489392769	-0.320358
C	-2.8348252354	 1.7213936281	 2.2342920697	 0.07587
C	-2.4469665475	 0.9384408607	 3.2935047335	 0.338004
O	-1.4697778703	 0.0608609588	 3.4863326845	-0.425861
O	-3.251996782	 1.1215113719	 4.3612365575	-0.162777
C	-4.1999130008	 2.0471760237	 3.9957624007	-0.030617
C	-3.9869564598	 2.4404980236	 2.7191029855	-0.261566
H	-0.3118436825	 2.5426014609	 1.4559968733	 0.124291
H	-0.4118057732	 2.0870480566	-0.2520983609	 0.095372
H	-2.6058499295	 2.727090518	 0.3785672922	 0.109934
H	-2.6294686604	 0.9897441	 0.2062703395	 0.099926
H	-4.9200249524	 2.2984033339	 4.7547434828	 0.125438
H	-4.5717662317	 3.1596046023	 2.1643215496	 0.095742
48.7084	168.2075	245.5935	251.7768	287.7662	331.2033	353.8088	476.8432	486.4165	608.0431	647.2355	658.6746	723.4023	740.0271	811.44	858.2721	895.1367	906.856	926.008	989.3271	1034.0619	1060.1852	1076.5397	1114.3365	1147.1719	1192.4553	1235.4591	1285.2414	1312.9881	1321.8175	1372.6685	1416.6691	1437.917	1479.3435	1506.7481	1559.455	1571.7762	1646.8639	1659.4789	2966.9417	2993.8359	3058.6727	3080.5446	3112.6019	3238.2415	3294.3576	3488.8612	3568.0412
[NH3+]CCC1=C([O-])OC=C1	NCCc1c(O)occ1	
InChI=1S/C6H9NO2/c7-3-1-5-2-4-9-6(5)8/h2,4,8H,1,3,7H2	InChI=1S/C6H9NO2/c7-3-1-5-2-4-9-6(5)8/h2,4,8H,1,3,7H2
