18
gdb 112987	3.58728	1.00923	0.83789	5.6193	75.91	-0.2541	-0.0373	0.2168	1379.3211	0.146644	-439.133528	-439.124291	-439.123347	-439.168253	32.38	
C	 0.013867523	 1.5782829439	 0.0702242972	-0.386467
C	 0.0225313667	 0.0576486928	-0.1188068087	-0.1981
C	-1.378625643	-0.5482322415	-0.0331402132	-0.140766
C	-1.504953439	-2.1013078783	-0.0199564084	-0.212101
N	-2.1232006455	-1.9952317506	 1.3171245406	-0.127612
C	-2.598975204	-2.9715297492	 2.1732267609	 0.153584
O	-3.082493438	-2.7706470205	 3.2557292993	-0.267761
C	-2.016160426	-0.584258021	 1.3715371541	 0.441266
O	-2.3020594153	 0.2113547822	 2.21370001	-0.318658
H	 1.030681923	 1.9799652933	 0.039684508	 0.117459
H	-0.5639574071	 2.0694284292	-0.7202840087	 0.117335
H	-0.4356583536	 1.8486746177	 1.0294037248	 0.153772
H	 0.4584319703	-0.2004926168	-1.0918251553	 0.105892
H	 0.6621224198	-0.4093452811	 0.64107811	 0.108391
H	-2.048250724	-0.0767491309	-0.7594951524	 0.112613
H	-2.1667055001	-2.5297222006	-0.7766770877	 0.128094
H	-0.549850819	-2.6341219816	-0.0136051098	 0.12731
H	-2.4788174083	-3.9812480369	 1.7292851494	 0.085748
54.7035	101.9522	138.2256	180.3087	190.9029	201.8482	255.2549	314.5812	356.5941	485.2119	532.869	681.6951	746.3969	775.7742	830.5455	871.107	970.1148	992.7334	1012.2232	1033.102	1094.6257	1106.2044	1143.1176	1153.3011	1185.94	1229.6858	1267.6614	1289.0265	1339.2811	1354.9449	1384.6551	1415.7837	1434.9518	1489.7598	1499.447	1510.8943	1518.0401	1808.3047	1908.5655	2923.0666	3021.5455	3039.5121	3052.4929	3056.1535	3071.7341	3106.6302	3111.4111	3126.5865
CCC1CN(C=O)C1=O	CC[C@H]1CN(C=O)C1=O	
InChI=1S/C6H9NO2/c1-2-5-3-7(4-8)6(5)9/h4-5H,2-3H2,1H3	InChI=1S/C6H9NO2/c1-2-5-3-7(4-8)6(5)9/h4-5H,2-3H2,1H3/t5-/m0/s1
