19
gdb 97605	4.46526	0.53716	0.50419	2.9417	83.03	-0.2455	-0.0262	0.2193	2132.8121	0.155129	-422.998666	-422.987572	-422.986628	-423.037778	37.084	
C	-0.0632978802	 1.4850978852	-0.271347907	-0.383857
C	-0.0347802466	-0.0215304246	 0.0570724874	-0.183528
C	 0.737364147	-0.3018355467	 1.3721328565	-0.267117
C	 2.2074124074	 0.0336153023	 1.2552544838	 0.155439
O	 2.8322464554	 0.6976507232	 2.0404468475	-0.23729
C	-1.3836640941	-0.5796781972	 0.1176159884	 0.050135
C	-2.4968767331	-1.0338378507	 0.1789212306	 0.13243
C	-3.8496929655	-1.5705245921	 0.259410797	-0.21673
O	-3.9560279966	-2.724638742	-0.565905005	-0.408817
H	 0.9530708553	 1.8838531988	-0.3506458055	 0.125598
H	-0.580228822	 1.6644388758	-1.216992564	 0.130916
H	-0.5854927895	 2.0391928821	 0.5142405864	 0.131661
H	 0.5006347447	-0.53542608	-0.7550717055	 0.113844
H	 0.306773386	 0.2511513205	 2.2114164764	 0.128175
H	 0.6659634536	-1.3741389862	 1.5983610719	 0.133748
H	 2.7033154041	-0.4058328517	 0.3558881496	 0.071888
H	-4.0796638598	-1.8101504627	 1.3106187341	 0.116499
H	-4.5645139886	-0.7909807742	-0.0514316028	 0.11693
H	-4.8591213977	-3.0491478297	-0.4888662399	 0.290076
12.5183	58.144	59.7002	94.2877	121.1513	195.8475	227.2747	233.5285	276.208	290.7328	356.8492	445.2651	526.4677	547.1512	556.5454	737.2653	785.0205	899.5177	946.0954	1001.0017	1028.3457	1038.4354	1072.8111	1111.5665	1126.6019	1178.1463	1225.0976	1247.0232	1258.6273	1266.7726	1332.5502	1359.0845	1412.9722	1428.7679	1458.405	1459.9815	1489.6326	1501.0035	1504.2151	1837.3541	2370.8313	2839.9555	2962.1236	2979.8256	2996.3498	3029.9076	3041.7711	3106.5262	3113.0196	3127.4027	3818.1135
CC(CC=O)C#CCO	C[C@@H](CC=O)C#CCO	
InChI=1S/C7H10O2/c1-7(4-6-9)3-2-5-8/h6-8H,4-5H2,1H3	InChI=1S/C7H10O2/c1-7(4-6-9)3-2-5-8/h6-8H,4-5H2,1H3/t7-/m1/s1
