16
gdb 55240	3.09473	1.28474	1.04326	0.6347	64.34	-0.257	0.0004	0.2574	1126.0755	0.12518	-475.109154	-475.100907	-475.099963	-475.142894	30.28	
N	 0.6475173162	-0.3192632376	 0.4913704145	-0.519185
C	-0.2170067997	 0.206027925	-0.409663959	 0.368433
O	 0.0673367658	 1.0617183516	-1.2252471645	-0.363423
C	-1.6527560377	-0.343491598	-0.3295177788	 0.003977
C	-2.1964561609	-0.7734232548	-1.7047208342	-0.242682
C	-1.9048888774	-2.2764436573	-1.7150531775	-0.360025
C	-1.8407473634	-2.6551998796	-0.2408990817	 0.428712
O	-1.86013063	-3.7363187983	 0.2646120282	-0.323944
O	-1.7310604953	-1.5097964469	 0.5102138832	-0.241112
H	 1.5883306639	 0.0368073232	 0.5246654417	 0.268132
H	 0.34130223	-1.0036537952	 1.1618196056	 0.281904
H	-2.2664906817	 0.4329842807	 0.1350501346	 0.131088
H	-3.2723805198	-0.5885014031	-1.7542178842	 0.119673
H	-1.7099920061	-0.2092704767	-2.4997591543	 0.150346
H	-2.6484109275	-2.8882627611	-2.226847192	 0.146239
H	-0.9293580962	-2.5071775919	-2.1581899915	 0.151866
53.2726	80.6295	114.6955	260.5022	326.8427	343.2493	431.1137	500.7156	508.9021	544.5231	607.5905	671.361	705.6407	747.9443	803.7005	859.182	880.5898	968.8125	1009.7175	1063.1553	1074.2467	1100.0497	1148.7414	1160.0577	1216.2584	1284.5117	1309.3629	1335.6442	1354.4581	1383.6426	1462.1046	1502.0696	1602.3727	1801.8243	1893.4204	3057.6794	3073.4968	3085.5835	3131.6004	3147.9835	3601.4326	3739.1368
NC(=O)C1CCC(=O)O1	NC(=O)[C@H]1CCC(=O)O1	
InChI=1S/C5H7NO3/c6-5(8)3-1-2-4(7)9-3/h3H,1-2H2,(H2,6,8)	InChI=1S/C5H7NO3/c6-5(8)3-1-2-4(7)9-3/h3H,1-2H2,(H2,6,8)/t3-/m1/s1
