17
gdb 52122	3.96357	0.96551	0.88115	5.3419	70.2	-0.2518	0.0103	0.2621	1318.1266	0.13469	-458.933631	-458.925192	-458.924248	-458.968051	30.178	
O	 0.5515935144	 0.1027643189	-0.1953956524	-0.273328
C	 0.6913832426	 1.2550530615	-0.4728148908	 0.177902
O	 0.544584486	 2.2398296346	 0.4407233872	-0.176704
C	 0.7771248886	 3.5851470896	-0.010116733	-0.224254
C	 2.2203704707	 3.947291762	 0.0648019442	 0.482103
C	 3.0029718981	 4.299389963	 1.2910859349	-0.322099
C	 2.9760916205	 5.2590998987	 0.1174609525	-0.190734
C	 3.8066508546	 4.6703102695	-1.0175687605	-0.085964
O	 3.0879989387	 3.4057325907	-0.9413040134	-0.324513
H	 0.94280367	 1.6353351251	-1.4801381138	 0.09252
H	 0.4078504327	 3.7039870964	-1.0359107203	 0.12279
H	 0.1890726019	 4.2258398207	 0.6506978473	 0.131957
H	 2.4176768362	 4.6150221246	 2.148935115	 0.124668
H	 3.9016254306	 3.7359268148	 1.5249734101	 0.126692
H	 2.6181489883	 6.2771408282	 0.1886644772	 0.109423
H	 3.6353158652	 5.1487832113	-1.9877668688	 0.115143
H	 4.8820492311	 4.5467122402	-0.8474875654	 0.114399
51.0161	54.7728	124.333	191.5594	263.9357	310.6546	389.2921	411.0666	445.3285	654.4312	727.7929	746.9118	851.7668	908.3365	925.9923	955.1967	976.6028	995.5764	1012.3619	1029.2314	1036.4272	1046.151	1074.0699	1124.914	1139.1333	1168.5776	1203.112	1274.0189	1314.3157	1347.7149	1374.3041	1417.7888	1436.0376	1482.3459	1487.4955	1518.7393	1868.133	2973.5133	3031.7387	3038.0756	3082.5051	3114.8981	3121.6391	3204.4809	3215.6728
O=COCC12CC1CO2	O=COC[C@]12C[C@H]1CO2	
InChI=1S/C6H8O3/c7-4-8-3-6-1-5(6)2-9-6/h4-5H,1-3H2	InChI=1S/C6H8O3/c7-4-8-3-6-1-5(6)2-9-6/h4-5H,1-3H2/t5-,6+/m0/s1
