22
gdb 101921	1.88927	1.41059	0.96256	2.4481	82.92	-0.2371	-0.0096	0.2274	1334.1043	0.191434	-404.339189	-404.328685	-404.32774	-404.375441	37.601	
C	-0.4835197985	 1.927006022	-1.0300923099	-0.39688
C	-0.6097264802	 0.4030881517	-0.9523050246	-0.177919
C	 0.5935719346	-0.3739050747	-1.5275473592	-0.057197
N	 1.8114312063	-0.1085166912	-0.7661603071	-0.071552
C	 3.0727112131	-0.4376663175	-1.4320950852	-0.232671
C	 2.6652067616	 0.9779318967	-1.2394907114	-0.219543
C	 0.2387553959	-1.8697357499	-1.5013510795	 0.3775
C	 0.6856352911	-2.6866671281	-0.3059426346	-0.470908
O	-0.4119713613	-2.3466004133	-2.4028456722	-0.311419
H	 0.3463127087	 2.2953462232	-0.4215843372	 0.129773
H	-0.3249938075	 2.2617034775	-2.0612459846	 0.11415
H	-1.3992562364	 2.4023603479	-0.6651284818	 0.116438
H	-0.7535657354	 0.1008094403	 0.0920137415	 0.104665
H	-1.496890438	 0.078043209	-1.5064071547	 0.118914
H	 0.7037837192	-0.106669775	-2.5933142598	 0.075412
H	 3.8364050407	-0.8836138625	-0.8014623376	 0.118225
H	 3.0268945432	-0.8341573802	-2.4453870789	 0.119948
H	 2.349664018	 1.5272830128	-2.1242934708	 0.117317
H	 3.1275319535	 1.5861755757	-0.4673422577	 0.12019
H	 0.4900389958	-2.1561523433	 0.6301491291	 0.144388
H	 0.1800491328	-3.6530679899	-0.3193930807	 0.133737
H	 1.768961793	-2.8422325509	-0.349019903	 0.147433
41.334	89.2905	108.6629	120.5407	170.3319	175.7483	219.5054	279.3736	318.9363	339.3431	452.5818	474.1146	555.4655	587.1683	730.8204	797.7708	817.3761	880.4125	890.5346	902.0981	990.7157	1006.0125	1017.1252	1040.8741	1070.5629	1112.7081	1114.808	1124.3493	1131.07	1175.6429	1201.8511	1239.3474	1278.7022	1302.7399	1315.8157	1366.6127	1376.4845	1382.9406	1409.8135	1454.2309	1467.4486	1479.8006	1489.2997	1498.3091	1507.7404	1517.3739	1808.5116	2946.5641	3034.4499	3036.8905	3047.3119	3078.1772	3094.9686	3100.1782	3102.0937	3110.6057	3121.042	3154.4048	3178.263	3192.7648
CCC(N1CC1)C(C)=O	CC[C@@H](N1CC1)C(=O)C	
InChI=1S/C7H13NO/c1-3-7(6(2)9)8-4-5-8/h7H,3-5H2,1-2H3	InChI=1S/C7H13NO/c1-3-7(6(2)9)8-4-5-8/h7H,3-5H2,1-2H3/t7-/m1/s1
