21
gdb 53536	3.4396	0.80852	0.77217	2.0243	86.9	-0.2421	0.0502	0.2923	1599.77	0.180215	-387.051247	-387.04079	-387.039846	-387.088641	36.552	
C	 0.0985281988	 1.4698704628	-0.2247603235	-0.497913
C	 0.0384443644	 0.0235568916	-0.0644462466	 0.08611
C	 0.0032512555	-1.1731265213	 0.0695351319	 0.048021
C	-0.0670272818	-2.6235603887	 0.2174064975	-0.415089
C	-1.5031640407	-3.1834384679	 0.1311107312	 0.296857
C	-2.3918431888	-2.6670062857	 1.2539096839	-0.465256
C	-2.0746720318	-3.1216496321	-1.3080072794	-0.104855
O	-1.8342532507	-4.5303470083	-1.5103224565	-0.275763
C	-1.5086487478	-4.7129841925	-0.1190710778	-0.119448
H	 0.8042405794	 1.7543886889	-1.0130906864	 0.148429
H	-0.88033109	 1.8818952176	-0.4940554782	 0.147298
H	 0.4200880037	 1.9609791418	 0.7003845149	 0.147567
H	 0.5425057947	-3.1000622713	-0.561514007	 0.132823
H	 0.37408171	-2.9236949227	 1.1781027226	 0.121683
H	-2.4482390931	-1.574375212	 1.2343564361	 0.132415
H	-3.4073409234	-3.0658105406	 1.16740789	 0.115088
H	-1.9973510623	-2.9619493321	 2.2334594485	 0.114479
H	-3.1448176479	-2.8785928571	-1.3608713149	 0.091996
H	-1.5299826575	-2.4981857327	-2.0258781921	 0.107793
H	-0.556618656	-5.2413886493	 0.0181861049	 0.097305
H	-2.2981314449	-5.2552610284	 0.4198970813	 0.090462
20.7138	56.0096	73.9144	94.52	207.4557	228.3025	249.4875	301.6126	334.1363	375.8835	390.4717	396.8146	494.153	680.1111	772.0886	847.9698	890.0505	912.1043	919.8874	982.9815	1011.5385	1015.3397	1034.5402	1053.6541	1053.8156	1155.4733	1158.1685	1162.7294	1168.323	1184.2281	1274.2292	1301.5429	1310.0015	1342.5658	1386.1683	1414.5685	1416.0743	1470.3124	1478.9074	1479.2992	1492.6751	1499.331	1513.7461	1537.7546	2369.4604	2993.5974	3005.6232	3008.3483	3026.6243	3029.5118	3040.9921	3045.0612	3063.4378	3086.9535	3087.0939	3094.0481	3110.6714
CC#CCC1(C)COC1	CC#CCC1(C)COC1	
InChI=1S/C8H12O/c1-3-4-5-8(2)6-9-7-8/h5-7H2,1-2H3	InChI=1S/C8H12O/c1-3-4-5-8(2)6-9-7-8/h5-7H2,1-2H3
