23
gdb 117544	2.03088	1.12872	0.76577	0.72	89.1	-0.2601	0.0398	0.2999	1577.4721	0.201522	-388.260058	-388.248618	-388.247673	-388.296942	41.184	
C	-0.3554542463	 1.4147631617	 1.1955310148	-0.385492
C	-0.6894692478	-0.0631057394	 1.3030165775	-0.040668
O	-0.9500231719	-0.5540292823	-0.0021091419	-0.248903
C	-1.2515595977	-1.9390178449	-0.0644228758	-0.044556
C	-2.5491222463	-2.2290248817	 0.565433136	 0.334616
C	-3.6139251709	-2.4444601844	 1.0812224731	-0.46461
C	-1.2112333535	-2.3613135232	-1.5506561579	 0.020476
C	 0.1517048142	-2.0200491332	-2.1654066589	-0.396827
C	-1.5375020829	-3.8501709374	-1.7156940916	-0.400433
H	-0.145101171	 1.8288563952	 2.1862527293	 0.114982
H	 0.5224444359	 1.5682895762	 0.5613526546	 0.124308
H	-1.1936101239	 1.9658985122	 0.7599083192	 0.128749
H	 0.1502744491	-0.6206572194	 1.7509641967	 0.084172
H	-1.5660004831	-0.2177853928	 1.9488580455	 0.102139
H	-0.4722767562	-2.5075038893	 0.4759217499	 0.085371
H	-4.5528810343	-2.6388708313	 1.5380482317	 0.196654
H	-1.984103308	-1.7710285977	-2.0586326832	 0.090691
H	 0.9512472971	-2.5973676686	-1.6846693434	 0.106092
H	 0.1613065823	-2.267164676	-3.2316410648	 0.107826
H	 0.3818901615	-0.959823284	-2.0503097361	 0.132069
H	-2.5209938282	-4.0971839543	-1.3085450578	 0.129081
H	-1.5269134521	-4.125186629	-2.7747881103	 0.113228
H	-0.7932246962	-4.4742052666	-1.2060085766	 0.111033
57.2972	72.4146	93.9135	145.2621	146.003	213.2153	224.3457	247.2059	263.7442	309.3269	325.3185	398.1081	420.1024	446.3105	525.1143	621.3927	626.9497	665.9352	822.6332	847.8313	883.6454	916.7961	936.4521	964.7249	1003.9835	1035.7447	1115.0992	1136.628	1141.0603	1184.5225	1188.8471	1195.6913	1291.635	1297.2311	1339.8425	1351.046	1373.1133	1396.2968	1401.5068	1418.6033	1434.1756	1483.3487	1488.6774	1492.3442	1500.2612	1501.8831	1515.2433	1528.5349	2225.9894	2931.2894	2964.7045	3015.3427	3027.4444	3029.0453	3037.9461	3044.2707	3091.3809	3098.7312	3118.1069	3121.4396	3122.2999	3138.6663	3501.7936
CCOC(C#C)C(C)C	CCO[C@@H](C#C)C(C)C	
InChI=1S/C8H14O/c1-5-8(7(3)4)9-6-2/h1,7-8H,6H2,2-4H3	InChI=1S/C8H14O/c1-5-8(7(3)4)9-6-2/h1,7-8H,6H2,2-4H3/t8-/m0/s1
