17
gdb 91260	3.73562	1.17487	0.96792	4.2269	77.07	-0.2341	-0.0407	0.1935	1188.5335	0.13631	-421.83105	-421.823242	-421.822298	-421.863532	29.982	
O	 0.1759453911	 1.4267863634	-0.1413323663	-0.41719
C	 0.0840011008	 0.0345207046	-0.0496704325	 0.054209
C	-1.3759340175	-0.5511163326	-0.0441663397	-0.269853
C	-0.8562170222	-1.7521466247	-0.9079156157	-0.058318
C	-1.4112128068	-2.2332692785	-2.251537213	-0.365714
C	-0.3663617942	-1.7326778721	-3.293906629	 0.392036
O	-0.3510590718	-2.0295230283	-4.4636127323	-0.327647
C	 0.5198597078	-0.7549169022	-2.5941552446	-0.346514
C	 0.2673179456	-0.8201387048	-1.2848067188	 0.248417
H	 1.0856288552	 1.6923519932	 0.025356327	 0.292545
H	 0.6428785558	-0.3642682691	 0.8090958034	 0.089566
H	-1.816310665	-0.7696086585	 0.9305259982	 0.111355
H	-2.0295356319	 0.1106639415	-0.6172603718	 0.129267
H	-0.5462902877	-2.5769251959	-0.2588536844	 0.093438
H	-1.5548329155	-3.3130901136	-2.3335607561	 0.125433
H	-2.3687409727	-1.7581489397	-2.493680153	 0.135451
H	 1.1493202289	-0.0574299427	-3.1304606813	 0.113519
94.0345	130.6091	207.1372	215.6346	314.367	393.7593	446.363	521.0382	550.455	611.0207	645.9416	684.7981	793.0562	821.382	863.2061	874.1678	901.1572	961.6103	984.1568	1035.1613	1063.9521	1083.3566	1141.3396	1145.8328	1189.1714	1204.899	1220.2367	1237.2584	1241.9863	1280.6827	1294.2544	1335.6197	1428.8204	1450.6391	1476.5683	1690.2131	1817.2959	2998.8154	3053.6367	3057.5215	3069.922	3112.0822	3137.7985	3226.2498	3825.8126
OC1CC2CC(=O)C=C12	O[C@H]1C[C@H]2CC(=O)[CH][C]12	
InChI=1S/C7H8O2/c8-5-1-4-2-7(9)6(4)3-5/h3-4,7,9H,1-2H2	InChI=1S/C7H8O2/c8-5-1-4-2-7(9)6(4)3-5/h3-4,7,9H,1-2H2/t4-,7+/m1/s1
