22
gdb 95691	2.69139	1.31093	1.01631	2.4679	82.95	-0.2567	0.0135	0.2702	1254.733	0.195856	-404.369563	-404.360581	-404.359637	-404.403238	34.411	
C	 0.1624608972	 1.6052259683	-0.0298166395	-0.401283
C	-0.0097495324	 0.0799946021	 0.0123976769	 0.046181
C	 0.6715306196	-0.5730084785	-1.2115523841	-0.227007
C	 0.0775594616	-1.9188982682	-1.636568021	-0.092777
O	-0.2843430609	-2.7635945742	-0.5391351217	-0.257695
C	 0.6312677082	-2.8690727889	 0.4913794356	 0.362615
N	 1.6104130511	-3.6686418484	 0.5004234061	-0.481054
C	 0.2910569975	-1.959704623	 1.6401519196	-0.254879
C	 0.5593061707	-0.4701363393	 1.3370854765	-0.194502
H	 1.2237855246	 1.8809793963	-0.013699952	 0.115529
H	-0.276523249	 2.0292920134	-0.9387847132	 0.110651
H	-0.3169424667	 2.0841885357	 0.8301155851	 0.112627
H	-1.0848251216	-0.1443612774	-0.0260835461	 0.079395
H	 0.605740576	 0.0928716449	-2.0805361985	 0.097681
H	 1.7422960104	-0.689359401	-1.0006850303	 0.111143
H	-0.8586661041	-1.771594605	-2.183237625	 0.115193
H	 0.7754239345	-2.4444675015	-2.3041916392	 0.098515
H	 1.6411973248	-4.1950433363	-0.3764561093	 0.218268
H	-0.774847643	-2.09706087	 1.8577386889	 0.116544
H	 0.8640162118	-2.26590789	 2.517978764	 0.120938
H	 1.6440984449	-0.2991461639	 1.3404196334	 0.106734
H	 0.154002675	 0.1163348249	 2.1696858736	 0.097181
80.3055	109.2435	163.748	194.8085	235.9274	301.8779	342.3639	371.6181	432.4444	459.7283	539.5779	559.4667	703.5093	777.8013	810.4653	826.1753	877.0461	903.9839	946.7143	966.7417	997.5166	1002.9731	1028.7739	1060.1393	1086.3339	1129.375	1132.4571	1150.8921	1218.5023	1244.639	1269.5479	1287.7147	1311.7397	1330.0871	1334.7225	1368.5863	1388.264	1398.9169	1416.4051	1420.6448	1471.464	1479.5765	1495.4761	1499.9175	1502.4794	1510.2181	1746.5328	2999.3586	3008.4698	3019.5966	3023.4664	3030.3619	3039.4858	3055.7628	3066.2634	3085.3737	3092.4613	3100.4688	3114.3891	3447.9189
CC1CCOC(=N)CC1	C[C@H]1CCO[C]([NH])CC1	
InChI=1S/C7H13NO/c1-6-2-3-7(8)9-5-4-6/h6,8H,2-5H2,1H3	InChI=1S/C7H13NO/c1-6-2-3-7(8)9-5-4-6/h6,8H,2-5H2,1H3/t6-/m1/s1
