17
gdb 34596	3.58436	1.31423	1.13021	5.1068	80.01	-0.2425	-0.0449	0.1976	1087.2036	0.139456	-380.867678	-380.86066	-380.859716	-380.899094	28.003	
N	 0.0634220974	-1.1474067119	-0.0079858236	-0.342478
C	-0.0038937671	 0.0095593196	 0.0068339333	 0.183321
C	-0.0345094534	 1.4307966717	 0.0162538208	 0.253267
C	-1.1695105944	 2.1447443581	 0.0570046548	-0.14058
C	-1.0807671569	 3.6497030382	 0.0454159896	-0.234774
C	 0.3897722566	 4.0834265934	-0.0517543544	-0.01425
C	 1.1426954667	 3.2926235285	-1.1538589362	-0.22466
C	 1.2680057528	 2.2238128567	-0.0352952791	-0.123239
N	 1.1412874988	 3.3101263217	 1.0093246855	-0.321355
H	-2.1422135154	 1.6659573395	 0.0999635813	 0.119477
H	-1.6642362668	 4.0562219138	-0.7917580853	 0.117968
H	-1.5285653115	 4.0534642178	 0.962579815	 0.131462
H	 0.4968462682	 5.169463709	-0.0104429291	 0.076162
H	 0.6271552522	 3.0266421642	-2.0810267812	 0.104899
H	 2.1081333023	 3.7527644876	-1.3794005157	 0.103754
H	 2.1529721129	 1.5911831062	 0.0280241838	 0.090306
H	 2.0610822776	 3.7410220861	 1.1006603405	 0.220719
117.2625	159.4212	294.2195	351.2749	418.086	429.9134	460.892	558.6216	633.5843	657.382	750.9114	822.8439	838.2346	866.7403	890.2007	908.5862	939.2308	962.237	991.6148	1019.1231	1071.9448	1098.595	1112.9695	1165.4533	1174.0721	1218.7587	1224.2663	1258.5168	1311.4363	1315.2954	1361.8579	1376.5501	1401.9655	1457.1971	1490.7741	1682.5685	2332.423	3019.0243	3050.6153	3051.9786	3087.1475	3112.1428	3120.3752	3189.4126	3458.268
N#CC1=CCC2CC1N2	N#CC1=CC[C@@H]2C[C@H]1N2	
InChI=1S/C7H8N2/c8-4-5-1-2-6-3-7(5)9-6/h1,6-7,9H,2-3H2	InChI=1S/C7H8N2/c8-4-5-1-2-6-3-7(5)9-6/h1,6-7,9H,2-3H2/t6-,7-/m1/s1
