21
gdb 108202	3.07436	1.40865	1.28269	1.4351	76.96	-0.2388	0.0804	0.3191	1089.958	0.184417	-424.226749	-424.21869	-424.217746	-424.259182	31.883	
C	 0.0037270797	 1.373422641	 0.0285561326	-0.260982
O	-0.0627255273	-0.0382754054	 0.0000405177	-0.309083
C	-1.352574523	-0.5842962975	-0.0001403561	 0.402909
C	-2.2527094138	-0.2690022498	-1.2263755077	-0.268802
C	-3.3312890089	-1.3964012901	-1.1473223082	-0.221384
C	-2.8776533068	-2.1892705055	 0.095779843	 0.102825
C	-1.3522591085	-2.1250825641	-0.0011513538	-0.282371
O	-3.162770139	-1.3974205915	 1.2639341895	-0.279262
C	-2.1964837542	-0.3352112467	 1.2757562929	-0.117456
H	 1.0636984505	 1.6378485375	 0.0208549021	 0.129237
H	-0.4777836554	 1.8299373672	-0.8473140197	 0.111301
H	-0.4535384345	 1.794011995	 0.9355775494	 0.111185
H	-2.6911984194	 0.7313827159	-1.1804448336	 0.098187
H	-1.6576071726	-0.3334605092	-2.1421294922	 0.1031
H	-4.3436714532	-1.0113817851	-1.0074453542	 0.10796
H	-3.3287831643	-2.0238283699	-2.0438927591	 0.099115
H	-3.3444343616	-3.1652510604	 0.2290231083	 0.074479
H	-0.9433100033	-2.546436065	-0.9228093157	 0.100947
H	-0.842974853	-2.5520363395	 0.8653459371	 0.107546
H	-1.5712002463	-0.3993874903	 2.176751099	 0.098487
H	-2.713338085	 0.6322634932	 1.2743058389	 0.092062
90.8932	161.6038	204.8094	213.6924	328.554	363.3421	404.1402	447.6091	484.4206	565.0328	599.8795	774.2245	782.8251	819.539	873.9891	916.4823	937.3969	953.9919	971.3058	981.4323	1020.7811	1035.6098	1062.8461	1071.8171	1139.2077	1175.5483	1182.2801	1188.0364	1215.7431	1224.5096	1251.8597	1257.4848	1263.26	1279.0453	1312.4984	1331.9463	1341.154	1386.2374	1478.9556	1485.202	1489.2954	1493.6313	1506.9817	1509.2071	1530.4121	2991.2946	3003.4835	3041.3583	3046.668	3050.895	3059.8828	3071.625	3093.4681	3115.353	3117.0009	3119.9753	3129.7767
COC12CCC(C1)OC2	CO[C@@]12CC[C@@H](C1)OC2	
InChI=1S/C7H12O2/c1-8-7-3-2-6(4-7)9-5-7/h6H,2-5H2,1H3	InChI=1S/C7H12O2/c1-8-7-3-2-6(4-7)9-5-7/h6H,2-5H2,1H3/t6-,7-/m0/s1
