19
gdb 102871	2.1469	0.95731	0.68995	3.3925	81.65	-0.2662	0.003	0.2692	1655.1349	0.156339	-419.216018	-419.205427	-419.204482	-419.252969	36.062	
C	-0.1651633069	 1.5246092412	 0.0768504007	-0.399389
C	 0.0295363285	 0.0080176649	 0.0394488003	-0.190092
C	 0.768375099	-0.4520023888	-1.2231703959	-0.03923
O	 2.0709508273	 0.1224267656	-1.1998939632	-0.206209
C	 2.7658153001	 0.1071930409	-2.3699710952	 0.134378
N	 3.9164524078	 0.6005417756	-2.4190475456	-0.19875
C	 4.6100391652	 0.5668287937	-3.6902201368	-0.318478
C	 0.8462381837	-1.9255010037	-1.2924619031	 0.279881
N	 0.8979667377	-3.0780194969	-1.3525797321	-0.309978
H	 0.7964075555	 2.0418321728	 0.0464250655	 0.150473
H	-0.765976044	 1.8691146289	-0.7720467026	 0.11834
H	-0.6840420074	 1.8177197265	 0.9933002496	 0.126675
H	 0.6039534415	-0.3308917623	 0.9074384754	 0.136697
H	-0.9346895018	-0.5100653917	 0.0695382998	 0.124951
H	 0.2229340679	-0.1061169618	-2.1134197798	 0.127727
H	 2.2306832919	-0.3563194658	-3.212188005	 0.091252
H	 4.8682941488	 1.5880053376	-3.9913302945	 0.132863
H	 5.5522769177	 0.0201997819	-3.5752590785	 0.136883
H	 4.0334944975	 0.0982994114	-4.5037430888	 0.102008
41.8584	61.8639	101.5909	129.6832	158.3102	199.5079	220.7053	238.8182	303.9261	315.922	372.7676	448.1082	509.0609	563.3204	635.8299	791.0145	878.3681	965.6476	970.8692	987.25	1055.4727	1063.2723	1122.3503	1140.9836	1153.3013	1159.6167	1224.0455	1285.3325	1316.6075	1359.3278	1384.2662	1410.1991	1415.3323	1449.5191	1477.6812	1480.1363	1495.7435	1503.9176	1508.3139	1786.6152	2358.3711	2975.5238	3000.0132	3011.0323	3042.0367	3054.4271	3066.8289	3086.7848	3093.8367	3113.8481	3135.7394
CCC(OC=NC)C#N	CC[C@@H](OC=NC)C#N	
InChI=1S/C6H10N2O/c1-3-6(4-7)9-5-8-2/h5-6H,3H2,1-2H3	InChI=1S/C6H10N2O/c1-3-6(4-7)9-5-8-2/h5-6H,3H2,1-2H3/t6-/m1/s1
