14
gdb 131098	3.35777	1.21412	0.94864	3.6505	68.27	-0.2602	-0.005	0.2552	1168.1456	0.100734	-432.815592	-432.807385	-432.806441	-432.849294	29.676	
O	-0.0197425052	 1.4477540772	-0.0038499134	-0.412111
C	 0.0655189401	 0.0236712174	 0.0069659697	-0.144633
C	 0.6750098063	-0.4949485785	-1.2199735581	 0.311548
C	 1.1957124922	-0.8688979055	-2.2357818743	-0.45335
C	 0.7863685187	-0.4525764691	 1.2469060802	 0.300977
C	 1.1850286801	 0.2952940204	 2.3283032753	-0.167425
N	 1.7394320456	-0.6188322725	 3.1587022281	-0.158024
N	 1.6895530456	-1.8581693012	 2.637126723	-0.107036
N	 1.1104755392	-1.756367215	 1.4759819506	-0.25089
H	 0.8073634317	 1.7787240636	-0.3717243246	 0.289555
H	-0.9750584108	-0.3229424241	 0.0537128386	 0.14249
H	 1.6489742115	-1.2189078138	-3.1304334601	 0.205839
H	 1.1102204989	 1.3429547658	 2.5592652885	 0.158692
H	 2.159501096	-0.4819151247	 4.0642427863	 0.284368
36.1925	109.2127	182.2769	221.4438	269.5317	297.5523	414.9348	472.6307	579.9114	587.3741	635.5375	664.8212	681.837	724.0891	789.1613	835.3657	936.4555	984.53	1042.5485	1054.4506	1066.8629	1126.6684	1245.5043	1269.2155	1294.5041	1331.4425	1345.2826	1409.6681	1486.1366	1585.3771	2240.1761	3027.177	3301.8821	3502.2207	3657.8078	3807.1458
OC(C#C)C1=CNN=N1	O[C@@H](C#C)c1c[nH]nn1	
InChI=1S/C5H5N3O/c1-2-5(9)4-3-6-8-7-4/h1,3,5,9H,(H,6,7,8)	InChI=1S/C5H5N3O/c1-2-5(9)4-3-6-8-7-4/h1,3,5,9H,(H,6,7,8)/t5-/m0/s1
