19
gdb 58662	1.87181	1.51365	1.15053	3.3943	76.77	-0.2428	0.024	0.2668	1177.7662	0.158163	-419.202331	-419.192326	-419.191382	-419.23714	36.756	
C	 0.0708470206	 1.4695497013	-0.1818603664	-0.415638
C	-0.0150429483	-0.0188693288	 0.1528268342	 0.057995
O	 0.5881857254	-0.3194073926	 1.4049992061	-0.432963
C	-1.4439358921	-0.564057119	 0.1034141669	 0.139722
C	-1.9964626266	-1.1582130945	-1.1892906708	-0.340261
C	-1.6481551726	-2.0902634894	-0.0782716689	-0.007127
N	-0.5591880364	-3.0102523558	-0.1912878963	-0.51382
C	-2.3574517402	 0.1000422048	 0.9913690765	 0.230743
N	-3.0577538676	 0.6397513494	 1.7403144281	-0.358156
H	 1.1108430317	 1.8013101052	-0.1283222587	 0.128977
H	-0.3112648671	 1.6691353979	-1.187878536	 0.122497
H	-0.5202428922	 2.0627332226	 0.5244066506	 0.138124
H	 0.5745304881	-0.5840194316	-0.5758658642	 0.077725
H	 0.1284729385	 0.1871207175	 2.0855117968	 0.29298
H	-3.0394371994	-0.986755646	-1.4270845245	 0.142378
H	-1.3312511586	-1.1200734737	-2.0474741061	 0.124807
H	-2.4861450024	-2.4845859204	 0.4898207776	 0.123173
H	 0.0386478252	-2.8026277071	-0.981657269	 0.235966
H	 0.016306564	-2.9973292298	 0.6451531341	 0.252878
54.7498	131.2437	145.4204	149.4167	219.5291	240.5581	255.1084	326.1001	344.3583	389.5572	404.6372	488.6595	512.4634	582.5418	603.2314	697.4392	797.7515	835.5717	886.133	907.0997	929.0204	958.7453	1025.1655	1075.2778	1092.6587	1116.884	1127.9365	1175.0845	1241.6064	1278.7758	1298.2032	1312.6206	1357.2656	1408.7908	1421.2499	1430.2475	1483.3826	1491.8386	1496.5435	1662.968	2331.5792	3037.7324	3061.7891	3108.9926	3124.7403	3129.5817	3147.969	3223.6578	3513.4114	3601.5474	3788.4853
CC(O)C1(CC1N)C#N	C[C@@H](O)[C@]1(C[C@H]1N)C#N	
InChI=1S/C6H10N2O/c1-4(9)6(3-7)2-5(6)8/h4-5,9H,2,8H2,1H3	InChI=1S/C6H10N2O/c1-4(9)6(3-7)2-5(6)8/h4-5,9H,2,8H2,1H3/t4-,5-,6+/m1/s1
