17
gdb 33603	5.03583	1.27697	1.2641	0.9471	84.47	-0.2219	0.0391	0.2609	1031.569	0.136857	-347.450259	-347.443553	-347.442608	-347.481069	28.181	
C	 0.1088458891	-1.2079613598	 0.0831711815	-0.370954
C	 0.0387262801	-0.0058666069	 0.0382939786	-0.010683
C	-0.058905667	 1.4006983696	-0.0291963218	 0.358491
C	-0.0517280171	 2.4793743811	 1.0525796599	-0.136119
C	 1.0019759082	 2.4998366877	-0.0452661967	-0.13612
C	 0.2747779919	 3.3482515594	-1.1142683422	-0.053474
C	-0.4648673364	 4.4826462494	-0.3613953897	-0.248127
C	-1.1653850935	 3.3202868743	 0.3862280972	-0.053474
C	-0.9468362481	 2.385719245	-0.8630647174	-0.13261
H	 0.1729757323	-2.2665100461	 0.1249693456	 0.171792
H	 0.1854010652	 2.3583153122	 2.1008211518	 0.097887
H	 2.0611671188	 2.3947422122	 0.146475391	 0.097887
H	 0.7498928411	 3.4855573266	-2.0840881684	 0.070824
H	 0.1244177271	 5.2004618249	 0.2175728185	 0.09503
H	-1.1599945529	 5.0150384978	-1.0186507719	 0.100066
H	-2.1172000121	 3.429885318	 0.9031168469	 0.070824
H	-1.7060344468	 2.1294023448	-1.596513503	 0.078761
138.7321	147.6011	389.736	439.9614	491.6123	520.2827	556.1967	593.2914	652.8873	710.0809	764.4677	790.8886	823.515	836.6099	855.2177	874.3901	884.3868	936.9548	939.8507	991.143	1001.8109	1017.624	1033.6508	1060.054	1096.1471	1106.0039	1169.8848	1175.4782	1190.3844	1222.0693	1228.3807	1246.6999	1274.7594	1299.2291	1410.7847	1488.863	2226.7834	3043.8696	3100.4194	3129.4591	3130.0996	3160.4497	3204.1453	3214.0128	3504.3959
C#CC12C3C1C1CC3C21	C#C[C@@]12[C@H]3[C@@H]1[C@@H]1C[C@H]3[C@H]21	
InChI=1S/C9H8/c1-2-9-6-4-3-5(6)8(9)7(4)9/h1,4-8H,3H2	InChI=1S/C9H8/c1-2-9-6-4-3-5(6)8(9)7(4)9/h1,4-8H,3H2/t4-,5+,6-,7+,8-,9+
