17
gdb 35253	3.32569	1.0086	0.86829	1.7204	74.5	-0.2512	0.0134	0.2646	1326.1692	0.134217	-421.737781	-421.729087	-421.728143	-421.772671	31.082	
C	-0.3275595342	-1.1879500513	 0.3404068586	-0.426916
C	-0.1582200992	-0.0076157453	 0.1878184698	 0.33893
C	 0.0054592143	 1.4059192366	-0.0221449387	-0.167522
O	 0.6110661351	 2.1725266333	 1.033089754	-0.247376
C	 1.3351870444	 2.0392393882	-0.1882800964	 0.063857
C	 2.6206157319	 1.2671803154	-0.1462091755	-0.079396
C	 3.3286227437	 1.0567814118	-1.5064232339	-0.083714
O	 4.4639400886	 1.8417783008	-1.0953929375	-0.270718
C	 3.8914170729	 2.0785208519	 0.2066491973	-0.082003
H	-0.4759191008	-2.2300963949	 0.4832053361	 0.206856
H	-0.8462137206	 1.899601975	-0.4897949459	 0.12003
H	 1.3637334287	 2.9532218494	-0.787240152	 0.103899
H	 2.4880558766	 0.3587145978	 0.4413912093	 0.102407
H	 3.6013204596	 0.0204078593	-1.7379003056	 0.107545
H	 2.8202360569	 1.4911458095	-2.3777539643	 0.10049
H	 3.7319000266	 3.1470505348	 0.4001479631	 0.106139
H	 4.5074427055	 1.6598806375	 1.0110844915	 0.107491
40.9213	55.1863	110.1742	166.9313	237.3164	306.514	340.1055	447.176	549.0028	601.2304	631.8523	674.82	770.4283	834.8897	840.9595	888.3935	911.459	972.3992	979.7778	1040.9126	1048.2242	1072.9831	1086.2053	1149.3955	1155.9407	1164.1223	1210.6754	1250.3895	1279.3727	1310.5941	1312.0649	1380.8704	1389.2223	1469.2763	1512.7994	1538.2289	2239.7415	3005.0878	3017.5332	3053.3897	3058.5134	3077.7432	3112.4394	3117.7897	3501.5039
C#CC1OC1C1COC1	C#C[C@H]1O[C@H]1C1COC1	
InChI=1S/C7H8O2/c1-2-6-7(9-6)5-3-8-4-5/h1,5-7H,3-4H2	InChI=1S/C7H8O2/c1-2-6-7(9-6)5-3-8-4-5/h1,5-7H,3-4H2/t6-,7+/m1/s1
