16
gdb 32362	4.77809	1.01264	0.84573	1.5257	78.98	-0.2029	-0.0538	0.1491	1301.4168	0.126558	-434.091363	-434.083388	-434.082444	-434.124229	29.992	
O	 0.3565558797	 0.8397275112	-0.9313269743	-0.407894
C	-0.0340613117	 0.2448199886	 0.2954542609	-0.147027
C	-1.3596023575	-0.4737590235	 0.2104134553	 0.211095
C	-1.9388243139	-0.811328416	-0.9702624041	-0.042231
N	-3.1325979868	-1.4693205908	-0.9821359073	-0.319724
C	-3.8187622109	-1.8368763277	 0.1740333685	 0.344193
N	-4.9410402343	-2.4500125379	 0.0664383808	-0.560098
C	-3.0958917644	-1.4303054781	 1.3845640273	-0.07554
N	-1.9674312769	-0.8010789702	 1.4064915629	-0.27432
H	-0.2414610598	 1.5756208735	-1.1001066771	 0.284596
H	 0.7664274831	-0.4606069365	 0.5500318877	 0.130075
H	-0.0800946664	 0.9735963483	 1.1177218859	 0.111686
H	-1.4870251135	-0.5846302477	-1.9266743804	 0.14523
H	-3.5776892829	-1.7217506548	-1.8529731483	 0.268019
H	-5.3209109251	-2.6535821384	 0.9890923282	 0.214993
H	-3.5625061885	-1.6815423999	 2.336762664	 0.116948
71.9846	108.2289	190.9054	270.1346	348.9997	375.3568	409.5465	453.7989	484.156	552.0131	642.8993	682.9382	752.5666	783.2838	792.5214	840.8925	901.333	942.4198	988.2652	996.6361	1072.9439	1098.8327	1192.6355	1205.3728	1245.723	1312.2011	1373.9488	1383.2852	1406.2145	1412.4617	1479.011	1499.9644	1572.779	1668.5856	1702.0131	3001.9719	3050.7551	3132.7661	3229.7037	3501.5738	3612.189	3808.6918
OCC1=CNC(=N)C=N1	OCC1=NC=C(NC1)[NH]	
InChI=1S/C5H7N3O/c6-5-2-7-4(3-9)1-8-5/h1-2,9H,3H2,(H2,6,8)	InChI=1S/C5H8N3O/c6-5-2-7-4(3-9)1-8-5/h2,6,8-9H,1,3H2
