13
gdb 131204	3.5773	1.61144	1.11459	5.1891	67.67	-0.1923	-0.0189	0.1734	976.2783	0.09173	-448.910085	-448.90311	-448.902166	-448.941196	26.864	
O	-0.0430384082	 1.3940119885	 0.1374305187	-0.426464
C	 0.0287939574	 0.0437969086	-0.0300506053	 0.176695
C	 0.0113573799	-0.7897968534	-1.1263605131	 0.270133
N	 0.0133549058	-0.9284801652	-2.4853418262	-0.413985
N	-0.0013473304	-2.2617526824	-2.8192247212	-0.097695
N	 0.0147713096	-2.9812620917	-1.7542256546	-0.297045
C	 0.0234688421	-2.1358895074	-0.6625441479	 0.27688
C	 0.032853881	-2.127019611	 0.7227357459	-0.209034
N	 0.0371759759	-0.7977954081	 1.068975935	-0.266162
H	 0.8292818904	 1.7848812783	 0.0070023296	 0.306163
H	-0.0762325123	-0.2492562537	-3.2199608607	 0.272594
H	 0.0301424305	-2.9069965802	 1.4634918569	 0.137938
H	 0.0111024783	-0.4457748123	 2.0122887028	 0.269982
196.588	222.0591	276.0493	285.8707	298.1312	387.47	532.5491	555.1128	606.1109	615.3799	658.1998	686.017	716.0059	766.6981	844.3184	983.6652	1013.3271	1087.1292	1122.0323	1202.6121	1241.7303	1298.6604	1320.2802	1335.2311	1395.8575	1455.2492	1496.2563	1561.002	1704.5083	3289.4321	3659.7655	3693.3476	3758.3531
OC1=C2NN=NC2=CN1	Oc1c2[nH]nnc2c[nH]1	
InChI=1S/C4H4N4O/c9-4-3-2(1-5-4)6-8-7-3/h1,5,9H,(H,6,7)	InChI=1S/C4H4N4O/c9-4-3-2(1-5-4)6-8-7-3/h1,5,9H,(H,6,7)
