21
gdb 112022	3.35332	1.23945	1.0932	1.4265	83.02	-0.2289	0.0223	0.2512	1183.4631	0.18491	-387.079237	-387.071239	-387.070294	-387.1116	32.098	
O	-0.1126666661	 1.4985703023	 0.0683986716	-0.423317
C	 0.0337248276	 0.0848198967	 0.0572645755	-0.091734
C	-1.3645977221	-0.5314499796	-0.052695445	-0.013165
C	-2.0583031587	-0.1437453181	-1.3433032048	-0.064796
C	-2.5507097031	-1.0983883366	-2.1335589867	-0.077266
C	-2.3911151489	-2.5427479269	-1.7052048587	-0.048164
C	-2.7593062632	-2.6438592363	-0.1922854999	-0.228489
C	-1.3390628204	-2.0688081283	 0.0811177499	-0.037007
C	-0.9117894446	-2.7491119445	-1.2559245817	-0.220233
H	 0.7631688127	 1.8930568318	 0.032789469	 0.286691
H	 0.6569230564	-0.2429382361	-0.7885492853	 0.087899
H	 0.5153599822	-0.2698008971	 0.9835446495	 0.080718
H	-1.9371244803	-0.1189173691	 0.7923282011	 0.086671
H	-2.123748029	 0.9115431827	-1.5846178687	 0.099907
H	-3.0556598067	-0.8685907258	-3.067099916	 0.08303
H	-2.8347923735	-3.2519940185	-2.4055042813	 0.055402
H	-3.6241158597	-2.0728062441	 0.155391142	 0.093838
H	-2.8395289476	-3.6822131454	 0.1415926514	 0.091165
H	-0.8288203786	-2.3764471938	 0.9984245566	 0.05482
H	-0.6762439772	-3.8052857487	-1.0978990437	 0.091842
H	-0.1321566293	-2.2832131046	-1.8631958846	 0.092188
100.4015	151.065	196.5304	249.1258	341.3612	372.6353	388.7324	431.4986	537.734	593.8761	669.5991	746.636	811.5174	818.0293	852.6684	893.2678	914.4771	936.2964	957.745	987.4715	995.7373	1036.0616	1055.1407	1075.8824	1094.7553	1102.8574	1119.296	1127.3307	1141.83	1183.5207	1227.1471	1244.5771	1248.9717	1264.8411	1271.9493	1323.014	1330.8564	1334.27	1363.183	1402.5656	1452.1737	1475.5821	1504.1787	1520.2829	1697.1075	2960.1896	2983.2925	3005.8945	3048.0211	3050.9046	3064.6418	3093.0055	3108.3951	3111.8853	3165.1148	3196.7598	3834.4173
OCC1C=CC2CC1C2	OC[C@H]1C=C[C@@H]2C[C@H]1C2	
InChI=1S/C8H12O/c9-5-7-2-1-6-3-8(7)4-6/h1-2,6-9H,3-5H2	InChI=1S/C8H12O/c9-5-7-2-1-6-3-8(7)4-6/h1-2,6-9H,3-5H2/t6-,7-,8+/m1/s1
