17
gdb 55308	2.52731	1.53525	1.11082	2.2838	68.5	-0.2392	0.0226	0.2617	1093.3088	0.136303	-455.127173	-455.118686	-455.117741	-455.160715	31.478	
N	 0.7860742008	 0.026315066	-0.4216781148	-0.518702
C	-0.3799224324	 0.6098542944	-0.0635767214	 0.368399
O	-0.532559776	 1.7912499203	 0.1948835025	-0.381226
C	-1.5565185297	-0.3512554729	 0.0303981886	-0.032211
O	-1.2371652462	-1.740751208	-0.2109455951	-0.311012
C	-1.7406681891	-2.1471577471	 1.0924890251	-0.133331
C	-2.0253680233	-0.6929719361	 1.4492653445	 0.275372
C	-1.837249802	 0.0783280387	 2.691888344	-0.300598
N	-3.1893767711	-0.2033328237	 2.1561428152	-0.363503
H	 1.6195486572	 0.5839252858	-0.5028098466	 0.264241
H	 0.8039052215	-0.9641689888	-0.6023070739	 0.274876
H	-2.3517307993	 0.0093637882	-0.6351454937	 0.111669
H	-2.6315062517	-2.7787913477	 1.0044936906	 0.121269
H	-0.9746125368	-2.662544226	 1.6824220939	 0.113031
H	-1.6013679227	-0.4353595343	 3.6200384028	 0.119897
H	-1.4359580711	 1.0825444382	 2.5931678932	 0.149051
H	-3.5606337982	 0.624484143	 1.694424585	 0.242779
64.7757	90.7481	151.7634	249.2853	296.2321	314.1011	333.0646	407.4983	459.1475	526.284	594.8716	647.0635	725.5062	820.9957	861.6661	911.1303	932.7452	954.1126	977.3079	1002.8322	1043.6839	1059.8379	1090.0499	1095.9287	1131.8091	1150.3753	1236.9684	1263.7362	1281.4775	1315.2648	1327.5175	1380.5114	1437.8862	1514.9552	1517.2117	1593.0168	1791.6415	3024.9591	3032.1874	3082.1176	3112.1403	3206.7042	3491.8857	3592.3573	3734.6277
NC(=O)C1OCC11CN1	NC(=O)[C@H]1OC[C@]21CN2	
InChI=1S/C5H8N2O2/c6-4(8)3-5(1-7-5)2-9-3/h3,7H,1-2H2,(H2,6,8)	InChI=1S/C5H8N2O2/c6-4(8)3-5(1-7-5)2-9-3/h3,7H,1-2H2,(H2,6,8)/t3-,5+/m1/s1
