21
gdb 79959	2.49808	1.5833	1.36322	1.216	83.47	-0.2279	0.0131	0.241	1077.3098	0.181815	-387.088386	-387.07944	-387.078496	-387.121127	35.538	
C	-0.1138377533	 1.5693575177	-0.1093026221	-0.401186
C	 0.0473928965	 0.0732783187	 0.0421712367	-0.011494
C	 1.3408004326	-0.6959814455	-0.2039408917	-0.11549
C	 2.6101351351	 0.0820668901	-0.1090857847	-0.082417
C	 2.8119450844	 0.549655612	 1.122766209	-0.140261
C	 1.7199516893	 0.1131619461	 2.0956138049	 0.345338
C	 2.2692578085	-0.8044985562	 3.1950159291	-0.43583
O	 1.0500735071	 1.231334871	 2.6965431558	-0.463698
C	 0.734694766	-0.6330859262	 1.1888421581	-0.078994
H	 0.7892599602	 2.1113063899	 0.1707565627	 0.125968
H	-0.3634743467	 1.8196746957	-1.1469351717	 0.100245
H	-0.9232868003	 1.9321194324	 0.5313542687	 0.120868
H	-0.8256231165	-0.4795876228	-0.3008474151	 0.082084
H	 1.3050028386	-1.593711489	-0.811881851	 0.082065
H	 3.2504432795	 0.2685495394	-0.9647973705	 0.095157
H	 3.6284814607	 1.1927328238	 1.4368597972	 0.083935
H	 3.0404776372	-0.2900121976	 3.7813395134	 0.099596
H	 1.4625269918	-1.1009297894	 3.8732646469	 0.121223
H	 2.7217447044	-1.7038651168	 2.7669874012	 0.123633
H	 1.6777611137	 1.6653926707	 3.2845932421	 0.27284
H	 0.2349488714	-1.4948939343	 1.6172087511	 0.076418
132.1887	166.8031	192.2459	252.0659	256.7549	268.2483	290.8695	359.583	389.0188	458.5791	530.9075	601.656	633.9346	731.8923	745.5315	767.3935	803.429	855.5724	911.4981	942.363	960.0672	963.3626	966.4967	1023.3249	1049.0334	1085.7624	1090.9598	1107.8628	1126.3058	1139.0178	1164.0316	1201.5596	1230.7591	1301.3278	1347.7569	1367.6918	1392.2468	1400.1433	1414.998	1430.4207	1487.1246	1489.5857	1490.2166	1496.2579	1673.6658	3022.6252	3034.9473	3091.0924	3096.0536	3114.1511	3114.7329	3149.4869	3157.9727	3168.0762	3170.3207	3196.8465	3800.8377
CC1C2C=CC(C)(O)C12	C[C@H]1[C@H]2C=C[C@@](C)(O)[C@@H]12	
InChI=1S/C8H12O/c1-5-6-3-4-8(2,9)7(5)6/h3-7,9H,1-2H3	InChI=1S/C8H12O/c1-5-6-3-4-8(2,9)7(5)6/h3-7,9H,1-2H3/t5-,6+,7-,8+/m0/s1
