19
gdb 86160	2.76091	1.40372	0.98349	3.2538	79.65	-0.2315	-0.055	0.1766	1216.6683	0.1582	-423.061916	-423.053054	-423.05211	-423.095466	33.272	
C	-0.0668854621	 1.5188203157	-0.0573780066	-0.404271
C	 0.0167856892	-0.0048366065	 0.0099883194	 0.088344
O	 0.6292356859	-0.4406416477	-1.1890170432	-0.270944
C	 0.9141302147	-1.8334290127	-1.2415096452	 0.012383
C	 1.5062916985	-2.1458089137	-2.6051234082	-0.400475
C	 1.8416052647	-2.2435940129	-0.0880263293	 0.35919
O	 2.6129658263	-3.1770673533	-0.1784283371	-0.330366
C	 1.6597010927	-1.4767617607	 1.1595779555	-0.166898
C	 0.7691778549	-0.4813831749	 1.2235637668	-0.058713
H	 0.9366937319	 1.9516836414	-0.0908495085	 0.13381
H	-0.6047182346	 1.8185835685	-0.9598758787	 0.13326
H	-0.5945142586	 1.9159069316	 0.8145772641	 0.118264
H	-1.0131727588	-0.4119267145	 0.068010338	 0.083428
H	-0.0232932333	-2.4069428638	-1.1036936331	 0.086255
H	 2.3973366442	-1.5351980477	-2.7754621165	 0.129673
H	 1.7950802747	-3.1971184941	-2.6486694371	 0.141215
H	 0.7796559883	-1.9314347309	-3.3921508704	 0.118342
H	 2.2338539495	-1.8075609104	 2.0192980018	 0.113811
H	 0.556926322	 0.0235663067	 2.1635226682	 0.113693
65.0655	133.5377	194.521	220.4361	241.8097	260.6837	335.6338	389.0234	421.7993	450.2882	532.5546	538.3148	653.8109	739.986	802.4023	816.5363	860.552	890.5944	976.3585	1014.9858	1047.816	1074.8334	1094.8146	1129.5721	1134.0276	1162.1522	1205.6409	1239.3047	1320.2118	1331.3995	1348.8878	1374.2194	1400.3007	1406.1917	1409.7964	1482.0694	1483.7365	1495.9636	1499.8951	1682.5712	1782.6031	2897.6598	2915.6518	3047.8946	3056.4535	3124.4274	3129.135	3132.0462	3150.5366	3153.8704	3189.2116
CC1OC(C)C(=O)C=C1	C[C@H]1O[C@@H](C)C(=O)C=C1	
InChI=1S/C7H10O2/c1-5-3-4-7(8)6(2)9-5/h3-6H,1-2H3	InChI=1S/C7H10O2/c1-5-3-4-7(8)6(2)9-5/h3-6H,1-2H3/t5-,6+/m1/s1
