18
gdb 73213	2.53159	1.82653	1.37756	1.9763	71.34	-0.2411	0.0272	0.2683	974.3742	0.148794	-439.082153	-439.074357	-439.073413	-439.114459	30.335	
O	-0.0260511926	 1.245334891	-0.5664209402	-0.481797
C	 0.0557069238	-0.0479118972	 0.0103280786	 0.354415
C	 0.2946638668	-1.1604402731	-1.0579876774	-0.282157
C	-1.2445180874	-1.3490310107	-1.1592919417	-0.23584
C	-1.3996798446	-0.5630956789	 0.1660754502	 0.097663
O	-1.592807711	-1.4504760592	 1.2743355282	-0.243999
C	-0.5544635485	-1.7107972133	 2.1054974004	 0.130908
N	 0.5874842302	-1.1757348758	 2.1824425806	-0.26884
C	 0.8828149146	-0.0621534319	 1.288321362	-0.241142
H	 0.8461572604	 1.4730249642	-0.9072529936	 0.280927
H	 0.8213733077	-0.8372831317	-1.9590883241	 0.09623
H	 0.8029463709	-2.0330268708	-0.6394579738	 0.118031
H	-1.6804691352	-0.808930375	-2.0015922537	 0.118093
H	-1.6329383332	-2.3681673362	-1.1383830436	 0.111255
H	-2.1699050983	 0.2079721435	 0.2230211667	 0.100552
H	-0.8346112535	-2.5140113487	 2.7847478021	 0.123575
H	 1.955614419	-0.07987397	 1.054442445	 0.099239
H	 0.6929159009	 0.8781349238	 1.8228824343	 0.122886
76.7214	129.4897	265.1084	274.9394	330.4487	381.5886	413.628	484.9908	491.5389	531.2106	652.899	716.5175	801.6973	858.005	881.0815	926.1905	955.3997	961.0064	983.1462	1000.4438	1002.8135	1080.8616	1122.5382	1150.9258	1173.6052	1201.3309	1216.8803	1243.3688	1269.1859	1272.3168	1296.5961	1334.9251	1352.195	1399.4593	1414.3033	1461.758	1479.5899	1484.8823	1734.0461	3009.3161	3043.0079	3060.6951	3079.5544	3098.5749	3114.6868	3141.8025	3158.0785	3799.5359
OC12CCC1OC=NC2	O[C@]12CC[C@H]1OC=NC2	
InChI=1S/C6H9NO2/c8-6-2-1-5(6)9-4-7-3-6/h4-5,8H,1-3H2	InChI=1S/C6H9NO2/c8-6-2-1-5(6)9-4-7-3-6/h4-5,8H,1-3H2/t5-,6+/m1/s1
