22
gdb 82483	3.2271	1.45884	1.35869	1.4941	85.15	-0.1992	0.0803	0.2796	1081.7941	0.195219	-367.161159	-367.153062	-367.152118	-367.193091	33.077	
C	-0.3294190543	 1.5693747286	 0.0218266043	-0.421044
C	 0.0088190591	 0.0915541446	-0.0420098933	 0.076977
C	 0.6117101378	-0.5618809502	-1.3063928461	-0.073317
C	 1.8718700519	 0.1588537935	-1.8551206724	-0.288141
C	 2.7303616123	-0.4051187445	-0.6858585057	 0.348168
C	 4.1533732749	-0.8265460749	-0.9688009529	-0.502592
C	 2.4052302183	 0.3208503081	 0.6377615158	-0.221887
N	 1.1239939547	-0.440368084	 0.8324930995	-0.167201
C	 1.5321851174	-1.3512277123	-0.3236960575	-0.042102
H	 0.4749068957	 2.2085390858	-0.3520828029	 0.11738
H	-1.220954871	 1.7758520583	-0.5800805008	 0.11723
H	-0.5438961078	 1.8648126913	 1.054714278	 0.126497
H	-0.8819444712	-0.4796722731	 0.2497461895	 0.078524
H	-0.070509052	-1.0080371396	-2.0321221613	 0.061762
H	 2.1812138812	-0.2918508678	-2.8038165485	 0.097977
H	 1.8389616131	 1.2455495685	-1.9879223014	 0.089816
H	 4.783701369	 0.0448526985	-1.1867913917	 0.116637
H	 4.5936452211	-1.3468342195	-0.1106655567	 0.116098
H	 4.2096206779	-1.4966136309	-1.8341171404	 0.113055
H	 3.101030286	 0.0466928396	 1.4393572705	 0.098889
H	 2.3171511696	 1.4122804077	 0.6228721803	 0.094019
H	 1.5659050664	-2.4303395976	-0.1715376462	 0.063258
152.2335	186.6629	209.812	232.898	289.6107	331.0768	393.3859	421.8163	541.8082	548.2613	622.5716	697.5486	772.575	789.8208	849.8816	868.7916	893.8107	911.4462	933.4567	955.5683	963.7066	985.079	1009.1104	1062.991	1098.375	1112.073	1146.1535	1161.4936	1174.7978	1191.8414	1203.0405	1218.9386	1239.7558	1252.4142	1266.1472	1301.3934	1326.9034	1355.429	1385.1422	1405.0827	1411.779	1477.9798	1484.827	1491.3606	1492.5892	1502.0236	1513.7051	3011.433	3015.9709	3024.9701	3033.8163	3037.1266	3073.8089	3078.5815	3080.6266	3086.9385	3090.0342	3099.3375	3108.0046	3113.4789
CC1C2CC3(C)CN1C23	C[C@H]1[C@H]2C[C@@]3(C)CN1[C@@H]23	
InChI=1S/C8H13N/c1-5-6-3-8(2)4-9(5)7(6)8/h5-7H,3-4H2,1-2H3	InChI=1S/C8H13N/c1-5-6-3-8(2)4-9(5)7(6)8/h5-7H,3-4H2,1-2H3/t5-,6+,7-,8-/m0/s1
