16
gdb 64522	3.53159	1.4626	1.2872	1.5099	68.2	-0.2417	-0.0513	0.1904	981.5581	0.123936	-437.810933	-437.803683	-437.802738	-437.842615	28.505	
O	 0.0436178333	 1.3793648371	-0.0291925396	-0.493134
C	 0.0116960615	-0.0205409175	-0.032887994	 0.352029
C	 0.8137029772	-0.5460801838	 1.136547505	 0.084176
O	 1.3475103524	 0.2035127964	 1.9220885392	-0.271497
C	-1.435678532	-0.5257609891	-0.2352348311	-0.105094
C	-1.2896953417	-0.4442596323	-1.7064097804	-0.039018
C	 0.2660542361	-0.5859629415	-1.4730638741	-0.145556
C	-0.0269224507	-2.0880920224	-1.3618263051	-0.171076
N	-1.4669585009	-1.7746091846	-1.0644118655	-0.148872
H	 0.5686480341	 1.6216391611	 0.7501288292	 0.295184
H	 0.881250471	-1.6430581697	 1.2571232342	 0.105301
H	-2.2936485135	-0.3195442085	 0.390625149	 0.113161
H	-1.913791382	-0.0464469921	-2.4938200579	 0.109946
H	 1.0790234569	-0.1593361562	-2.0561884853	 0.092723
H	 0.0153111211	-2.6002006929	-2.3265585379	 0.120551
H	 0.4928337072	-2.6943830339	-0.6117707057	 0.101176
88.6163	180.5567	245.2086	334.8386	369.852	442.4053	470.034	478.6659	524.8276	743.8457	771.9273	790.1335	823.8001	842.126	897.3528	922.2001	947.0391	969.3351	997.2012	1020.8304	1038.9765	1071.67	1110.5297	1147.4202	1160.3309	1184.8255	1203.0065	1208.8651	1260.81	1300.0555	1328.0928	1384.9869	1445.1221	1521.87	1796.5679	2963.6383	3042.5691	3100.7318	3148.0528	3208.1204	3225.3156	3689.1681
OC1(C=O)C2C3C1CN23	O[C@@]1(C=O)[C@H]2[C@H]3[C@@H]1CN23	
InChI=1S/C6H7NO2/c8-2-6(9)3-1-7-4(3)5(6)7/h2-5,9H,1H2	InChI=1S/C6H7NO2/c8-2-6(9)3-1-7-4(3)5(6)7/h2-5,9H,1H2/t3-,4+,5+,6+,7?/m0/s1
