15
gdb 129547	3.27867	1.2924	0.96508	1.9773	71.18	-0.2547	0.0023	0.2569	1156.9787	0.114573	-412.966773	-412.958555	-412.957611	-413.000453	29.869	
N	-0.3996323831	 1.6033060396	-0.2177791618	-0.497565
C	 0.0108952945	 0.1968933901	-0.0844904632	-0.303997
C	-1.1158860618	-0.638937916	 0.3369370945	 0.341387
C	-2.0375769467	-1.3442081723	 0.647958584	-0.436725
C	 0.6574745195	-0.3646345184	-1.3351527333	 0.40456
N	 1.6363547333	 0.2196297967	-2.0062671219	-0.332311
C	 1.8601358084	-0.6469750014	-3.0322558027	 0.023325
N	 1.0891827899	-1.7225719702	-3.0411533253	-0.215765
N	 0.3244724024	-1.5195807142	-1.9419205352	-0.242686
H	 0.3974616526	 2.1162230672	-0.5886658475	 0.253199
H	-1.1275416087	 1.6667266089	-0.9254557378	 0.23567
H	 0.7715147068	 0.170030659	 0.70804487	 0.146567
H	-2.8558787635	-1.9500038545	 0.9523125158	 0.211163
H	 2.6095391421	-0.4813015014	-3.7917313757	 0.12922
H	-0.3858683459	-2.1815493931	-1.6721051398	 0.283958
34.3559	126.108	164.9331	210.2752	262.4069	327.0386	393.7969	487.7258	556.7664	607.1826	643.8667	673.3087	687.902	705.9719	800.9598	912.2597	916.6093	942.7021	982.9835	1054.714	1120.317	1135.0578	1199.4535	1211.3495	1274.1052	1300.3978	1309.5029	1391.2233	1427.391	1491.7639	1569.8753	1659.9502	2241.94	3016.0435	3261.6381	3477.6412	3498.5205	3557.9131	3655.7642
NC(C#C)C1=NC=NN1	N[C@@H](C#C)c1ncn[nH]1	
InChI=1S/C5H6N4/c1-2-4(6)5-7-3-8-9-5/h1,3-4H,6H2,(H,7,8,9)	InChI=1S/C5H6N4/c1-2-4(6)5-7-3-8-9-5/h1,3-4H,6H2,(H,7,8,9)/t4-/m0/s1
