18
gdb 88043	2.35887	1.41627	1.12075	5.6412	77.24	-0.2439	0.0158	0.2597	1154.5457	0.147561	-398.07756	-398.068824	-398.06788	-398.111234	32.152	
C	-0.2044224525	 1.3719443304	-0.1015144029	-0.322268
N	 0.1163937391	-0.0446300813	-0.008111412	-0.098381
C	 1.5168334898	-0.4427529446	-0.1336695972	-0.319988
C	 0.8022207399	-0.5258584584	 1.1605842945	 0.344799
C	 1.0787849023	 0.1966476756	 2.4867162726	-0.24943
N	 0.3557509025	-0.892166751	 3.1934549985	-0.306797
C	 0.3417144697	-1.7515241448	 1.9835169393	-0.234018
C	-0.9591981868	-2.3400700551	 1.6606030776	 0.329185
N	-1.9774898595	-2.8206422094	 1.4022807796	-0.327693
H	 0.57720446	 2.0333112874	 0.3071894937	 0.10189
H	-0.3524668749	 1.6290763975	-1.1540635655	 0.133669
H	-1.1390409221	 1.5660852747	 0.4326836472	 0.139823
H	 1.7081270566	-1.3331855496	-0.7276834376	 0.125905
H	 2.2695651041	 0.3413981644	-0.2259346356	 0.111237
H	 2.1479641754	 0.2744739239	 2.7233917535	 0.106057
H	 0.6182257612	 1.1813342928	 2.6194187496	 0.121577
H	 0.8399239547	-1.2951544299	 3.986848199	 0.23094
H	 1.0934613605	-2.5530541427	 1.9799780356	 0.113493
71.8169	102.4763	164.6983	203.8193	221.6834	262.3938	348.5504	414.8555	442.6181	520.0815	567.3381	576.3837	696.7818	779.836	845.6294	892.8168	926.6243	971.53	1015.6493	1044.3935	1058.7421	1090.2118	1114.8932	1129.4299	1144.7278	1166.2162	1202.5486	1218.3742	1228.4044	1304.7874	1352.7979	1388.7624	1427.256	1450.4312	1491.3525	1495.0927	1514.5018	1517.2908	2361.3827	2969.0148	3005.7794	3013.2848	3064.1	3077.5576	3079.2344	3116.7107	3169.2566	3549.4625
CN1CC11CNC1C#N	CN1C[C@]21CN[C@H]2C#N	
InChI=1S/C6H9N3/c1-9-4-6(9)3-8-5(6)2-7/h5,8H,3-4H2,1H3	InChI=1S/C6H9N3/c1-9-4-6(9)3-8-5(6)2-7/h5,8H,3-4H2,1H3/t5-,6+,9?/m0/s1
