19
gdb 88644	4.47805	0.8269	0.75754	2.7671	77.11	-0.2453	-0.0221	0.2232	1501.1591	0.156882	-423.017006	-423.007938	-423.006994	-423.051972	33.165	
C	 0.0208612379	 1.4377343258	-0.4165758773	-0.423443
C	-0.0889788907	 0.0146873724	 0.0676645031	 0.072507
O	 1.1037145713	-0.7803235437	 0.0702503123	-0.266195
C	 0.4778528874	-0.5011203063	 1.3269275751	 0.051117
C	 1.2544553046	 0.3082995691	 2.3261092572	-0.009323
C	 0.4830866375	 0.7399123828	 3.6163391496	-0.367089
C	 1.6636542528	 0.1958198887	 4.439376308	 0.402019
O	 2.0029037861	 0.3171739463	 5.5791841505	-0.284816
C	 2.2861865404	-0.4749930899	 3.2048572398	-0.356596
H	 0.8965228526	 1.9446726595	-0.0067829198	 0.12946
H	 0.1023177904	 1.4563982204	-1.5083038063	 0.133818
H	-0.8747147345	 2.0042319328	-0.1391269881	 0.124377
H	-0.9599096089	-0.5200812298	-0.3186077945	 0.089627
H	-0.020994025	-1.3707756775	 1.7671196694	 0.083702
H	 1.7312442355	 1.1611656757	 1.8419181175	 0.087328
H	 0.2407499419	 1.797266976	 3.7459092286	 0.132153
H	-0.4266012372	 0.1519791366	 3.7881968199	 0.130865
H	 2.1130443242	-1.5574145229	 3.2043968094	 0.13467
H	 3.3500868637	-0.295450886	 3.0347318458	 0.135817
44.4684	52.9878	133.7271	178.2158	206.5177	310.0483	379.0279	394.3978	425.9946	469.7504	542.3853	667.3174	683.8188	754.8031	784.893	862.3277	920.4161	928.7192	974.3581	994.7459	1009.0479	1036.0933	1089.648	1112.9079	1130.0731	1169.0794	1175.7234	1193.7835	1216.8917	1234.1977	1251.8147	1299.7735	1319.568	1404.2177	1422.4613	1426.8511	1446.4707	1471.2501	1490.4453	1513.226	1897.9354	3040.5557	3044.6016	3050.6654	3052.4428	3081.2254	3099.7039	3101.4114	3115.4299	3120.7117	3136.2303
CC1OC1C1CC(=O)C1	C[C@H]1O[C@H]1C1CC(=O)C1	
InChI=1S/C7H10O2/c1-4-7(9-4)5-2-6(8)3-5/h4-5,7H,2-3H2,1H3	InChI=1S/C7H10O2/c1-4-7(9-4)5-2-6(8)3-5/h4-5,7H,2-3H2,1H3/t4-,7-/m1/s1
