15
gdb 43056	3.40576	2.00011	1.76302	3.682	67.39	-0.2387	-0.0197	0.219	796.0395	0.11569	-416.750587	-416.744844	-416.7439	-416.780547	23.889	
O	 0.0578170377	 0.0460157868	 0.3150430474	-0.321225
C	-0.0400372472	 1.2070599569	 0.056122119	 0.438143
C	-1.1191091607	 2.238651664	-0.1199413164	-0.147087
C	-0.0296193801	 3.2146152359	-0.6172350355	-0.027847
C	-0.3941511845	 4.172138697	 0.5210911783	-0.047288
C	 0.1355464396	 3.4638604003	 1.6910601821	-0.038331
C	 1.3517065252	 2.6366963787	 1.2846425867	-0.21709
N	 0.9957003196	 2.219986976	-0.0891311266	-0.166085
N	-1.2331498695	 3.1033121168	 1.1773359315	-0.166733
H	-2.1112346565	 2.0637509351	-0.531795927	 0.103012
H	 0.1290017038	 3.5319386485	-1.6438462982	 0.099575
H	-0.7040168759	 5.2075762003	 0.4555533331	 0.109141
H	 0.0817229257	 3.9130850797	 2.6770555935	 0.116551
H	 2.259083291	 3.2512502328	 1.3106394421	 0.118717
H	 1.5186276217	 1.7440597812	 1.89241429	 0.146547
151.6479	303.5804	427.3476	489.6644	609.1335	652.1138	666.6593	707.5143	773.2014	820.6425	832.0638	853.5287	876.6561	900.9344	931.8547	938.7236	972.5763	1021.665	1045.696	1079.3918	1084.4041	1107.4753	1177.1963	1194.3709	1210.2015	1226.6446	1240.3805	1266.5535	1291.9685	1315.0783	1386.4091	1508.0889	1902.5511	3039.2366	3110.237	3134.6774	3157.6113	3178.7123	3195.7058
O=C1C2C3C4C(CN13)N24	O=C1[C@@H]2[C@H]3[C@@H]4[C@H](CN13)N24	
InChI=1S/C6H6N2O/c9-6-5-4-3-2(8(3)5)1-7(4)6/h2-5H,1H2	InChI=1S/C6H6N2O/c9-6-5-4-3-2(8(3)5)1-7(4)6/h2-5H,1H2/t2-,3-,4+,5-,8?/m0/s1
