17
gdb 95667	3.10373	1.30739	1.03666	4.9469	72.53	-0.2666	-0.0479	0.2187	1157.5925	0.136403	-458.997695	-458.989627	-458.988683	-459.030659	30.146	
C	 1.0202038117	 1.3797326947	 0.0256141865	-0.397731
C	-0.0334916295	 0.281528771	-0.1335624652	 0.06358
O	 0.3720852722	-0.5128498832	-1.2401032823	-0.240631
C	-0.3669174804	-1.6708700951	-1.4443772439	 0.006288
O	 0.2307038964	-2.8134450791	-0.8487750527	-0.220488
C	 0.3549247323	-2.9090926986	 0.5011453098	 0.404328
O	 0.8047626364	-3.9226762316	 0.9697793117	-0.330465
C	-0.0780532831	-1.7927723744	 1.3846746589	-0.206126
C	-0.2293708506	-0.4880450005	 1.1394112533	-0.057804
H	 1.9874566423	 0.939323101	 0.2805906913	 0.141288
H	 1.1206799689	 1.9282325831	-0.9138847995	 0.136459
H	 0.7315482706	 2.0806755581	 0.813272923	 0.123303
H	-0.9997317379	 0.7622458551	-0.3735651967	 0.093296
H	-1.4006115843	-1.5579957124	-1.0891291408	 0.106679
H	-0.3560943623	-1.8912087011	-2.5130472594	 0.133692
H	-0.2230453649	-2.1490439186	 2.3993746209	 0.128494
H	-0.529773178	 0.1423923716	 1.9752796152	 0.115837
66.9229	119.8771	225.3007	248.6757	305.3018	316.0292	366.3737	422.4249	514.1619	538.2655	673.3454	681.9975	753.5817	805.1276	832.5758	860.8058	924.5019	1021.3921	1037.3482	1065.717	1094.1752	1109.3655	1148.1617	1190.8964	1210.8695	1301.705	1316.8663	1339.508	1380.7841	1400.9969	1415.8654	1457.6422	1483.7115	1497.3792	1509.8152	1706.4592	1814.9462	2934.1782	3010.5929	3051.5563	3121.8091	3130.2722	3135.7478	3141.0001	3189.8202
CC1OCOC(=O)C=C1	C[C@H]1OCOC(=O)C=C1	
InChI=1S/C6H8O3/c1-5-2-3-6(7)9-4-8-5/h2-3,5H,4H2,1H3	InChI=1S/C6H8O3/c1-5-2-3-6(7)9-4-8-5/h2-3,5H,4H2,1H3/t5-/m1/s1
