19
gdb 107068	3.91622	1.09608	0.9747	2.7882	70.92	-0.2399	0.0579	0.2978	1231.401	0.159065	-460.137091	-460.128309	-460.127365	-460.170603	33.293	
O	-0.0337984749	 1.4014561186	 0.3267162147	-0.417492
C	-0.0260678282	 0.0584950084	-0.1251809121	-0.139114
C	-1.3840550622	-0.575694254	-0.02134121	 0.422427
C	-1.9133221027	-1.2091079633	 1.2344481235	-0.345576
C	-1.6879797213	-2.0455798251	-0.0180598227	-0.130767
C	-2.8883010008	-2.223986803	-0.9233421719	 0.080267
O	-3.8605811136	-3.0726890173	-0.3331003849	-0.426209
C	-3.4015562222	-0.7680826896	-1.1125907076	-0.135957
O	-2.3109378874	 0.1047546002	-0.8491809742	-0.309294
H	-0.7481874717	 1.8423185532	-0.1469831569	 0.29292
H	 0.3200391693	-0.0076289906	-1.1692157737	 0.089315
H	 0.6876097659	-0.4840710194	 0.5023263936	 0.107101
H	-1.2107215377	-1.3497232881	 2.0483031634	 0.120026
H	-2.9310146988	-1.0109267143	 1.5503480155	 0.127258
H	-0.9111963953	-2.8008557932	-0.0287283202	 0.093092
H	-2.5511690351	-2.6415511162	-1.8832142464	 0.075087
H	-4.5365405035	-3.2608310346	-0.9919855	 0.28528
H	-3.7653693795	-0.5581345026	-2.1230898083	 0.105294
H	-4.2262266304	-0.6041529889	-0.4049217819	 0.106345
76.7093	106.785	165.5655	216.4753	260.7427	316.8768	355.6907	398.2422	403.4479	438.5187	548.9392	637.894	688.4514	715.6193	831.2219	889.6611	926.1215	942.2565	985.9712	999.1259	1010.8193	1045.1248	1066.8401	1076.4837	1079.6778	1103.0977	1141.0667	1181.7375	1231.43	1238.3894	1269.4394	1282.4255	1342.5238	1359.7492	1378.6086	1399.7264	1434.1697	1447.2025	1491.272	1495.5505	1526.743	2977.0245	2992.7138	3010.0368	3079.8877	3083.6712	3140.9995	3181.1538	3227.6833	3805.2316	3816.8369
OCC12CC1C(O)CO2	OC[C@]12C[C@H]1[C@@H](O)CO2	
InChI=1S/C6H10O3/c7-3-6-1-4(6)5(8)2-9-6/h4-5,7-8H,1-3H2	InChI=1S/C6H10O3/c7-3-6-1-4(6)5(8)2-9-6/h4-5,7-8H,1-3H2/t4-,5-,6+/m0/s1
