17
gdb 51319	3.74017	1.12351	0.89201	2.3923	74.32	-0.2412	-0.0205	0.2206	1257.6388	0.137789	-455.177792	-455.169775	-455.168831	-455.210833	29.595	
O	 0.3778912227	 2.5218053015	-1.0242619368	-0.30403
C	 0.0675088114	 1.7653674148	-0.1320605187	 0.156902
N	 0.8965200553	 0.8787700325	 0.5029554813	-0.342429
C	 2.2641272592	 0.631948162	 0.2961784865	 0.369493
N	 2.7756326948	-0.2837348217	 1.0146741982	-0.302174
C	 4.1827753235	-0.6073466122	 0.8106663358	-0.148353
C	 4.7175353162	-0.1083736739	-0.526192949	-0.094748
O	 4.3844400887	 1.261074003	-0.6862764903	-0.243287
C	 2.991379479	 1.4622429667	-0.7453540454	-0.16095
H	-0.9584595208	 1.7069111528	 0.2789032242	 0.094978
H	 0.4967635267	 0.2858746378	 1.2192233933	 0.259035
H	 4.7623236499	-0.1698532588	 1.6343961204	 0.119612
H	 4.2988891734	-1.6951860042	 0.8892166827	 0.108722
H	 5.8077287739	-0.1752713544	-0.5746285044	 0.113514
H	 4.2979580346	-0.7053562337	-1.353093222	 0.093282
H	 2.5850367658	 1.227065068	-1.7423024323	 0.126815
H	 2.8047201257	 2.5246512399	-0.5797860135	 0.153618
65.4192	135.2561	189.9445	231.5625	287.9198	347.9534	355.3184	468.1662	491.9169	547.2124	637.7418	695.5256	818.1026	835.5161	900.8262	917.6545	1009.2293	1014.4895	1031.7858	1086.7207	1121.9927	1136.3201	1158.8012	1239.0845	1267.5205	1288.5681	1311.2607	1369.0475	1386.9446	1425.2419	1444.979	1454.644	1479.4576	1496.9876	1505.4231	1734.1899	1808.7235	2954.9995	2970.3991	2986.7148	3020.2892	3054.3256	3093.8954	3120.0874	3584.0943
O=CNC1=NCCOC1	O=CNC1=NCCOC1	
InChI=1S/C5H8N2O2/c8-4-7-5-3-9-2-1-6-5/h4H,1-3H2,(H,6,7,8)	InChI=1S/C5H8N2O2/c8-4-7-5-3-9-2-1-6-5/h4H,1-3H2,(H,6,7,8)
