17
gdb 75077	2.31078	1.80392	1.02581	1.0234	79.23	-0.2341	-0.0175	0.2166	1125.172	0.137492	-414.227883	-414.219551	-414.218607	-414.260858	30.902	
C	-0.4269689762	 1.3602681162	 0.2677562708	-0.460151
C	-0.1804718826	-0.1006296619	 0.1079889108	 0.373688
N	-0.169855877	-0.6998751628	-1.0213861885	-0.284182
C	 0.1025554225	-2.1117132949	-0.7737503445	-0.280786
C	 0.2570629314	-2.2595827927	 0.7330325451	 0.356975
N	 0.4974430657	-3.2475774181	 1.4909579159	-0.541663
N	 0.065479688	-0.9505683279	 1.2204050282	-0.134993
C	 0.1293533455	-0.6611422972	 2.5785320118	 0.090239
N	-0.0386465219	 0.5071175446	 3.0492465864	-0.465152
H	 0.4174572481	 1.8477549554	 0.7604609719	 0.15648
H	-0.5865808268	 1.7848557516	-0.7239598743	 0.139308
H	-1.2949814057	 1.5429132094	 0.9054692835	 0.156464
H	-0.7160608294	-2.7366391364	-1.1505743131	 0.142258
H	 1.012283018	-2.4289423703	-1.2976043807	 0.142258
H	 0.603618734	-4.1031601485	 0.948548916	 0.228808
H	 0.3395759413	-1.5711185687	 3.1457160245	 0.14583
H	 0.051951155	 0.4822953923	 4.0633502862	 0.234618
82.1729	150.8955	193.744	226.4421	247.8223	258.8816	328.2676	414.6349	527.8711	560.18	621.7471	635.7155	725.1405	739.2529	828.3726	841.5151	963.8273	993.6407	1002.8361	1068.648	1069.2302	1091.514	1098.4841	1196.6925	1197.8054	1244.9615	1311.9147	1335.676	1409.4023	1417.8982	1431.0858	1453.578	1459.9908	1469.7183	1707.9393	1723.1101	1752.0423	3035.6647	3064.6779	3065.2087	3109.8913	3129.9609	3161.162	3499.9638	3502.9842
CC1=NCC(=N)N1C=N	CC1=NC[C]([NH])N1[CH][NH]	
InChI=1S/C5H8N4/c1-4-8-2-5(7)9(4)3-6/h3,6-7H,2H2,1H3	InChI=1S/C5H8N4/c1-4-8-2-5(7)9(4)3-6/h3,6-7H,2H2,1H3
