16
gdb 9921	3.28792	1.48786	1.44531	2.26	67.9	-0.2283	0.0367	0.265	950.4023	0.127134	-383.67997	-383.671008	-383.670064	-383.713071	32.982	
C	-0.0226658622	 1.5537716611	-0.0081433237	-0.449377
C	 0.0099056209	 0.0339697946	-0.0139328232	 0.030565
C	-1.1602523241	-0.6207739937	-0.5291418152	 0.266906
C	-2.1302863443	-1.1812947057	-0.9695345924	-0.438606
C	 1.3557682284	-0.6902669409	-0.263690206	 0.067556
O	 2.5155694758	 0.0534650606	-0.4218389601	-0.428349
C	 0.7323626014	-0.7146672963	 1.1036115138	-0.001888
O	 1.3621414434	 0.0939754315	 2.0657966391	-0.430965
H	 0.9570970324	 1.9675384079	 0.2311849059	 0.122834
H	-0.3141310317	 1.9196932341	-0.9961794767	 0.130805
H	-0.7452617082	 1.9254289296	 0.7236459914	 0.128648
H	-2.9904427113	-1.6664828169	-1.3589747643	 0.190573
H	 1.3333011521	-1.5751414119	-0.8909028196	 0.114415
H	 2.7122704716	 0.4338224758	 0.4464443703	 0.287988
H	 0.2656199402	-1.6183528878	 1.4865571585	 0.107909
H	 1.9162889455	-0.475571522	 2.6107604923	 0.300986
88.0871	133.5321	151.2509	201.8633	229.7208	264.1979	301.0476	424.7671	458.5338	499.1911	531.7964	543.487	576.7036	645.2988	658.6578	699.9737	833.843	856.7922	971.1479	1024.1724	1067.6418	1087.1518	1142.1348	1170.2479	1217.4314	1252.8479	1292.8754	1324.5772	1405.4824	1415.424	1459.7467	1482.0738	1498.0746	2228.7135	3053.4915	3118.1992	3138.2408	3149.0044	3169.1505	3504.1795	3728.216	3806.4156
CC1(C#C)C(O)C1O	C[C@@]1(C#C)[C@@H](O)[C@H]1O	
InChI=1S/C6H8O2/c1-3-6(2)4(7)5(6)8/h1,4-5,7-8H,2H3	InChI=1S/C6H8O2/c1-3-6(2)4(7)5(6)8/h1,4-5,7-8H,2H3/t4-,5+,6+
