23
gdb 80850	2.48128	1.5532	1.23008	0.3802	91.12	-0.2096	0.028	0.2376	1162.2989	0.20523	-351.140516	-351.131309	-351.130365	-351.173547	36.541	
C	-0.211289735	 1.5130378137	-0.0277874176	-0.437665
C	 0.0186983584	 0.0064809729	-0.0098055504	 0.027968
C	 1.2185620638	-0.5902600631	-0.8397300814	-0.080487
C	 2.1363681299	-0.1950889368	 0.3624168812	-0.257616
C	 0.8639848108	-0.6190308	 1.1803146902	 0.246055
C	 0.653759505	-0.2293796355	 2.626288418	-0.516161
C	 0.7882408664	-2.1123225956	 0.7740473302	 0.310317
C	 0.5048562853	-3.2489911408	 1.6944868967	-0.519203
C	 1.0222524205	-2.0799343062	-0.543384297	-0.205966
H	 0.7003071494	 2.0959639008	 0.1284386497	 0.115875
H	-0.6376075171	 1.8198331065	-0.9896295756	 0.114864
H	-0.9268636379	 1.8022836116	 0.7506079336	 0.114932
H	-0.931759857	-0.5085149359	-0.184852426	 0.058327
H	 1.4281168254	-0.2793143637	-1.8636444445	 0.05126
H	 3.0407780385	-0.7903827079	 0.5110463467	 0.086021
H	 2.3717501931	 0.8711056152	 0.4267542543	 0.086767
H	 0.707451199	 0.8565819082	 2.75518639	 0.115553
H	-0.3258386717	-0.5572160589	 2.9933736631	 0.114139
H	 1.4161167929	-0.6756611649	 3.275196083	 0.115853
H	-0.4696443826	-3.1393891119	 2.1882498799	 0.123549
H	 0.5024239022	-4.2009314531	 1.1554405677	 0.122765
H	 1.2504477971	-3.3184095248	 2.4973656621	 0.123735
H	 1.0565064535	-2.8925944098	-1.2564339836	 0.089118
139.2989	178.8943	187.5326	198.4986	209.929	229.1776	309.5881	342.8888	401.3225	502.4012	506.5478	572.6733	606.5769	642.1836	758.5328	766.4937	803.3456	833.7644	861.6018	903.6212	937.2608	995.4492	1005.2337	1036.5303	1054.4344	1057.8381	1082.7934	1100.1293	1116.6848	1162.7972	1180.2843	1200.1355	1232.43	1243.8364	1252.4957	1275.6894	1323.0229	1374.2739	1408.1301	1409.1845	1416.3492	1475.7026	1481.1255	1488.9051	1492.3114	1496.2591	1499.1514	1512.5656	1687.6885	3010.2897	3023.4764	3028.7855	3044.9087	3052.7615	3053.3812	3084.2014	3085.338	3094.2393	3102.4135	3106.7704	3109.6823	3117.4365	3218.3854
CC1C2CC1(C)C(C)=C2	C[C@H]1[C@H]2C[C@]1(C)C(=C2)C	
InChI=1S/C9H14/c1-6-4-8-5-9(6,3)7(8)2/h4,7-8H,5H2,1-3H3	InChI=1S/C9H14/c1-6-4-8-5-9(6,3)7(8)2/h4,7-8H,5H2,1-3H3/t7-,8+,9+/m0/s1
