21
gdb 93623	1.88986	1.60968	1.33233	1.8067	83.13	-0.2469	0.0509	0.2979	1130.9788	0.181825	-387.070674	-387.061081	-387.060137	-387.104994	36.462	
C	-0.463009913	 1.4601809665	-0.034810561	-0.411114
C	 0.0454595031	 0.0220613685	-0.0260027927	 0.023965
C	 0.9410543644	-0.371930584	-1.2258045695	 0.120904
O	 1.6923028332	 0.7678907432	-1.6259090155	-0.42608
C	 1.8464948281	-1.5266275275	-0.7061769007	-0.236783
C	 1.4447859331	-1.7706685013	 0.7641038425	-0.218702
C	 0.8526453892	-0.4175728599	 1.2316549607	-0.190237
C	 1.8894670234	 0.5277913701	 1.6354730727	 0.376982
C	 2.7494148712	 1.2867096769	 1.9971694215	-0.509519
H	 0.3665488764	 2.1671198013	 0.0103646443	 0.148217
H	-1.0325913358	 1.6645517812	-0.9468079945	 0.110245
H	-1.1212150021	 1.6412548478	 0.8214232141	 0.103883
H	-0.8179937442	-0.6559554614	-0.0574807165	 0.072511
H	 0.3118406025	-0.7062626656	-2.0641777865	 0.057881
H	 2.302990545	 0.4925116535	-2.3161267363	 0.280419
H	 1.7627959217	-2.4337438846	-1.3113350033	 0.094249
H	 2.8853781299	-1.1867262385	-0.7601155444	 0.110641
H	 0.6583447185	-2.5311114916	 0.8251446073	 0.097429
H	 2.27787273	-2.105550594	 1.3854388594	 0.108202
H	 0.1733611133	-0.5617115031	 2.0800465658	 0.094743
H	 3.505267052	 1.9661632722	 2.3038948424	 0.192164
54.1456	102.2773	145.8226	211.2865	244.0667	257.8582	271.646	323.6656	415.0054	447.4099	507.8631	549.4724	616.0411	628.4748	647.8699	688.3123	814.8575	820.4832	843.2913	904.2155	950.7524	961.1429	1013.1562	1025.5677	1061.8555	1076.56	1126.9676	1166.8466	1198.2412	1206.847	1221.581	1269.2226	1302.2015	1320.2841	1331.6795	1342.2376	1372.5956	1384.1021	1410.4626	1428.4648	1478.3756	1492.3445	1497.4133	1499.9416	2230.3348	2975.6303	3014.4565	3033.064	3041.7501	3047.9367	3052.594	3095.9079	3101.1692	3112.6378	3143.962	3505.3201	3824.4593
CC1C(O)CCC1C#C	C[C@H]1[C@@H](O)CC[C@H]1C#C	
InChI=1S/C8H12O/c1-3-7-4-5-8(9)6(7)2/h1,6-9H,4-5H2,2H3	InChI=1S/C8H12O/c1-3-7-4-5-8(9)6(7)2/h1,6-9H,4-5H2,2H3/t6-,7-,8+/m1/s1
