14
gdb 11447	3.94673	1.57774	1.24143	3.9435	53.56	-0.2849	0.0336	0.3185	931.8257	0.107916	-456.858232	-456.851003	-456.850059	-456.890619	25.464	
O	 0.074614381	 1.3798652633	 0.1131302209	-0.414544
C	 0.0433458626	-0.0239638056	 0.0269121358	-0.06888
C	-1.3830522384	-0.5533748248	-0.0888459446	 0.065137
C	-1.4961525179	-2.0872839895	-0.0315259591	-0.124857
O	-1.9567521746	-2.3474402991	 1.2962226674	-0.238941
C	-2.3669126112	-1.1975554133	 1.8872340388	 0.502028
O	-2.8675749628	-1.125173099	 2.9618087657	-0.366147
O	-2.1229123401	-0.1346659251	 1.0723986591	-0.263146
H	-0.4602797224	 1.6295199289	 0.8758234299	 0.299585
H	 0.6046058516	-0.303364155	-0.8719598292	 0.12037
H	 0.5328198586	-0.5059432308	 0.8903062371	 0.102816
H	-1.8738615799	-0.1189302003	-0.9629156393	 0.116743
H	-2.2202873342	-2.487308752	-0.747070554	 0.134326
H	-0.5352556621	-2.5892684178	-0.1735292085	 0.13551
56.0903	131.0549	154.826	228.857	369.0702	421.7421	467.6841	547.8197	712.2039	763.0685	776.8807	851.0036	910.1508	955.743	1020.8559	1072.4278	1098.5393	1112.6705	1139.2723	1149.5963	1215.4386	1248.479	1320.0443	1364.0144	1393.8928	1414.1637	1434.6104	1494.6795	1522.5594	1931.0462	2968.0273	3055.639	3069.0765	3091.5967	3106.5806	3800.0762
OCC1COC(=O)O1	OC[C@H]1COC(=O)O1	
InChI=1S/C4H6O4/c5-1-3-2-7-4(6)8-3/h3,5H,1-2H2	InChI=1S/C4H6O4/c5-1-3-2-7-4(6)8-3/h3,5H,1-2H2/t3-/m0/s1
