16
gdb 49929	5.31544	0.89769	0.81163	3.2457	81.04	-0.2207	-0.0112	0.2095	1359.8205	0.124019	-400.744593	-400.736197	-400.735253	-400.778341	30.654	
O	-0.0935594398	-0.0474430817	 0.4184285902	-0.326566
C	-0.026102332	 1.1526395449	 0.2579116001	 0.145153
N	 1.1318753934	 1.846273744	 0.0544080702	-0.063991
C	 1.2312112474	 3.2910284276	-0.2021014768	-0.196549
C	 2.767083788	 3.5822097056	-0.1158129481	-0.210358
C	 3.3654348994	 2.1791102363	-0.1627646041	-0.170449
C	 2.4044440406	 1.2663794847	-0.0332086174	 0.009655
C	 3.2348844716	 4.4798480258	-1.1658735556	 0.316231
C	 3.6187468494	 5.21826542	-2.032753283	-0.459931
H	-0.9090509133	 1.8205362613	 0.2660113013	 0.076178
H	 0.8605077925	 3.528337577	-1.2043731864	 0.137182
H	 0.6564236109	 3.8625080208	 0.5293005749	 0.133237
H	 3.0024203633	 4.0435765475	 0.8546590526	 0.122137
H	 4.4242437153	 1.9889228123	-0.2468384432	 0.123459
H	 2.4678906699	 0.1901533992	 0.0232149427	 0.162052
H	 3.9617763132	 5.8696568049	-2.7981822272	 0.20256
38.8806	126.173	151.6832	222.8575	238.8491	282.1291	418.1128	444.2099	533.5733	585.6901	626.4786	648.5055	696.8183	753.1098	790.5905	859.6052	911.0901	946.446	1003.8945	1022.2903	1031.6196	1064.7386	1116.3954	1211.4746	1242.9889	1273.9616	1308.5875	1309.0826	1352.5241	1437.1538	1442.025	1512.366	1682.25	1791.3582	2239.7924	2946.9187	2987.1194	3049.8534	3110.2392	3250.6248	3272.864	3503.1664
O=CN1CC(C=C1)C#C	O=CN1C[C@@H](C=C1)C#C	
InChI=1S/C7H7NO/c1-2-7-3-4-8(5-7)6-9/h1,3-4,6-7H,5H2	InChI=1S/C7H7NO/c1-2-7-3-4-8(5-7)6-9/h1,3-4,6-7H,5H2/t7-/m1/s1
