20
gdb 10394	2.35944	1.96577	1.35907	2.3902	70.28	-0.2452	0.0727	0.3179	1006.4553	0.17648	-386.125787	-386.11698	-386.116036	-386.159178	32.528	
C	 0.5576585531	-1.0425920459	-1.7536545661	-0.395085
C	 0.1433596835	-0.2765352365	-0.4926763639	-0.228472
C	-1.3189413543	-0.4603420035	-0.101433245	 0.409113
C	-2.3024329145	 0.2038320947	-1.069115232	-0.095054
O	-2.1508432308	 1.608212465	-1.0371174179	-0.422506
C	-1.7554917814	-1.8552016046	 0.4091664775	-0.339195
C	-2.1162161458	-1.1183980677	 1.7124803246	-0.072087
O	-1.5657342699	 0.1243795069	 1.2220094379	-0.337151
H	 1.6304856041	-0.9297908198	-1.9346397321	 0.119658
H	 0.3502303074	-2.114756343	-1.6617616425	 0.114244
H	 0.0366312887	-0.676989094	-2.6436897343	 0.125701
H	 0.7566681436	-0.5956924491	 0.3574416856	 0.095436
H	 0.3200841503	 0.7958469864	-0.628974188	 0.116685
H	-2.1274560241	-0.119970528	-2.1003893894	 0.107774
H	-3.3284840315	-0.0942930903	-0.7978896934	 0.077581
H	-2.1832336701	 1.8430786886	-0.0999991379	 0.291158
H	-2.5816454121	-2.3254401651	-0.1280451622	 0.108995
H	-0.9363795728	-2.5699439887	 0.5062217193	 0.111342
H	-3.1904089804	-1.0374336064	 1.9200319776	 0.103955
H	-1.6063549433	-1.4549712189	 2.6217904922	 0.107909
79.1446	104.819	143.0362	201.3395	219.5261	262.5145	335.8324	383.2463	417.6525	516.3134	532.2137	689.7878	778.5203	791.0102	854.0525	888.0237	941.2871	965.537	991.8038	1016.6758	1026.7419	1044.9253	1078.2365	1116.0736	1163.6243	1200.8353	1207.2531	1225.1151	1251.9557	1288.7697	1322.2502	1343.0538	1363.6919	1393.893	1413.6807	1436.2196	1481.2327	1492.5366	1495.6009	1505.525	1509.7538	1531.7737	2967.9866	3019.828	3034.5699	3041.0781	3063.8541	3073.371	3074.9347	3078.9953	3103.3179	3111.0523	3128.5705	3763.3016
CCC1(CO)CCO1	CC[C@@]1(CO)CCO1	
InChI=1S/C6H12O2/c1-2-6(5-7)3-4-8-6/h7H,2-5H2,1H3	InChI=1S/C6H12O2/c1-2-6(5-7)3-4-8-6/h7H,2-5H2,1H3/t6-/m0/s1
