18
gdb 71762	3.39721	1.88778	1.58331	0.7624	73.94	-0.2188	0.0644	0.2833	879.2286	0.150452	-401.873178	-401.866945	-401.866001	-401.903258	27.225	
O	-0.0436322433	 1.430702669	 0.0566969189	-0.481502
C	 0.0612318133	 0.0491212076	 0.0162320431	 0.377773
C	 1.0443654332	-0.820860989	 0.8050914532	-0.246171
N	 0.6823564858	-1.9318337819	-0.1517738645	-0.140696
C	-0.7522022389	-2.2019302583	 0.1895175886	-0.000916
C	-1.3953844325	-2.6018449061	-1.1503997018	-0.246032
C	-1.1512237929	-1.1233053391	-1.5049056219	-0.051842
C	-1.2883998967	-0.7289071169	 0.0111401642	-0.088018
C	 0.3502977547	-0.8644729616	-1.2256586513	-0.08982
H	 0.8285022314	 1.8080921284	-0.1010300665	 0.282709
H	 2.0914829186	-0.5338505212	 0.6598307085	 0.095399
H	 0.8610408254	-1.0396064606	 1.8626925432	 0.099804
H	-0.8696975411	-2.7874872621	 1.1010891136	 0.069604
H	-0.8982813559	-3.382529465	-1.7326756716	 0.102648
H	-2.461234712	-2.821158081	-1.0440679548	 0.100921
H	-1.6330072211	-0.5990968045	-2.3281785881	 0.073372
H	-2.1967685392	-0.3716671369	 0.4900104064	 0.072918
H	 1.1254549713	-0.7233531209	-1.9777377992	 0.069848
253.3377	296.1748	354.4414	383.8611	466.7743	496.6697	583.4879	693.2412	708.4746	788.7993	816.8221	823.3266	841.7891	860.3648	913.7894	928.2171	937.9976	959.1231	994.3869	1015.7366	1025.4803	1068.5256	1081.2487	1103.7778	1107.0816	1140.6134	1152.3961	1181.041	1196.7571	1222.1377	1226.3529	1244.9346	1252.0541	1288.4571	1307.2326	1323.4677	1390.3796	1487.2319	1503.9988	3033.7714	3055.9156	3089.9718	3115.0345	3117.1971	3119.8318	3134.4914	3151.1278	3803.3459
OC12CN3C4CC(C14)C23	O[C@@]12CN3[C@@H]4C[C@@H]([C@H]14)[C@@H]23	
InChI=1S/C7H9NO/c9-7-2-8-4-1-3(5(4)7)6(7)8/h3-6,9H,1-2H2	InChI=1S/C7H9NO/c9-7-2-8-4-1-3(5(4)7)6(7)8/h3-6,9H,1-2H2/t3-,4+,5-,6-,7-/m0/s1
