19
gdb 71930	2.84071	1.93991	1.48288	1.8631	78.57	-0.2322	0.0024	0.2346	942.3593	0.160892	-385.868098	-385.86109	-385.860146	-385.898956	29.318	
C	 0.0317126119	 1.5634868419	 0.0205874298	-0.484054
C	-0.0065992101	 0.0428109347	 0.0210860181	 0.295244
C	 0.2579167862	-0.6553328664	-1.3786223391	-0.289714
C	-1.0312268351	-1.4925584278	-1.1979890967	 0.124193
O	-0.8468433277	-2.6961464694	-0.4219610626	-0.321115
C	-1.1125801665	-1.9801989252	 0.8377823684	 0.065423
C	 0.14620091	-1.70439928	 1.6208581118	-0.090811
C	 0.7544472255	-0.6127281374	 1.1530732525	-0.118831
C	-1.3979491771	-0.6772550288	 0.0605841782	-0.145093
H	 1.0519478915	 1.9310304971	-0.1408443305	 0.117005
H	-0.5979046569	 1.9762234544	-0.774962435	 0.113401
H	-0.3221634891	 1.9688570048	 0.975076463	 0.118031
H	 0.1647867409	 0.0549246379	-2.2069119021	 0.095465
H	 1.1869679258	-1.2185853327	-1.4842731384	 0.106332
H	-1.67432588	-1.6589382706	-2.065316015	 0.074326
H	-1.9177684251	-2.4761947742	 1.3867453213	 0.073771
H	 0.5276825997	-2.3635547271	 2.391741745	 0.099992
H	 1.7174187001	-0.2382376992	 1.4876631275	 0.096185
H	-2.3105594641	-0.1062599519	 0.2227373438	 0.070252
204.0393	225.1395	254.0186	297.1648	359.4733	415.0113	534.8132	565.6537	667.759	713.7952	775.9286	800.9273	811.718	853.4118	875.0714	907.4073	936.4132	942.1042	955.9158	968.6433	976.2988	981.1098	1017.6046	1098.4696	1116.8636	1135.2282	1180.5553	1193.341	1218.9751	1231.052	1255.6473	1278.1357	1287.8516	1320.6918	1339.7987	1374.304	1411.6257	1463.6835	1492.3995	1495.9719	1663.8131	3021.8807	3047.2421	3067.6006	3078.3573	3087.9167	3093.7386	3120.3805	3127.815	3171.9135	3208.7534
CC12CC3OC(C=C1)C23	C[C@@]12C[C@H]3O[C@@H](C=C1)[C@@H]23	
InChI=1S/C8H10O/c1-8-3-2-5-7(8)6(4-8)9-5/h2-3,5-7H,4H2,1H3	InChI=1S/C8H10O/c1-8-3-2-5-7(8)6(4-8)9-5/h2-3,5-7H,4H2,1H3/t5-,6+,7+,8-/m0/s1
