15
gdb 26601	2.36784	1.8825	1.05552	3.5065	71.71	-0.2239	-0.0335	0.1904	1058.0838	0.114436	-454.036553	-454.028596	-454.027652	-454.069895	29.224	
C	-0.0048406349	 1.5396792049	 0.0024993301	-0.486333
C	 0.0096502254	 0.0392290648	-0.0273044527	 0.027904
C	-0.0486276549	-0.7081758337	-1.1756213699	 0.355781
O	-0.1245909944	-0.1041819368	-2.3768129514	-0.407298
N	-0.0372965926	-2.0780901209	-1.2362147939	-0.37095
C	 0.0350481736	-2.7004021144	-0.1016260399	 0.106991
N	 0.0970294214	-2.0732110784	 1.088177277	-0.343217
C	 0.090070341	-0.6578083854	 1.2331947329	 0.37542
O	 0.1491911246	-0.1685446802	 2.3475626963	-0.387122
H	 0.8970914984	 1.924229928	 0.4907972926	 0.13947
H	-0.0669760773	 1.9534676593	-1.0041405263	 0.135938
H	-0.8531893919	 1.9054038785	 0.5910223992	 0.139455
H	-0.1549354409	-0.8131499128	-3.0332290842	 0.302236
H	 0.0478226022	-3.7868393518	-0.0838914053	 0.14295
H	 0.1526410704	-2.5958474611	 1.9519063157	 0.268775
33.373	130.3259	194.3599	266.978	275.6573	368.4316	501.2488	510.0251	519.944	544.2683	559.4581	675.7352	693.2791	752.3239	792.2358	887.6621	940.9232	956.1235	1061.8289	1086.7493	1104.691	1192.6495	1280.249	1291.5846	1378.0028	1412.2009	1447.3703	1475.3875	1480.8929	1486.8657	1618.1311	1692.9546	1785.3459	3040.1478	3087.4496	3150.9538	3173.7291	3603.764	3778.4658
CC1=C(O)N=CNC1=O	Cc1c(O)nc[nH]c1=O	
InChI=1S/C5H6N2O2/c1-3-4(8)6-2-7-5(3)9/h2H,1H3,(H2,6,7,8,9)	InChI=1S/C5H6N2O2/c1-3-4(8)6-2-7-5(3)9/h2H,1H3,(H2,6,7,8,9)
