22
gdb 57097	2.88059	1.07798	0.82638	4.0556	85.84	-0.3101	0.0376	0.3477	1425.8561	0.195576	-367.25523	-367.245704	-367.244759	-367.290727	34.934	
C	 0.1111535536	 1.6009829972	-0.0374231273	-0.399593
C	 0.0363952648	 0.060957573	-0.0278538663	-0.163708
C	 0.670483502	-0.4756531253	-1.2388708073	 0.277848
N	 1.1827565686	-0.8909049854	-2.1884778485	-0.33631
C	 0.6622081	-0.5715112751	 1.2345347227	 0.058929
C	-0.0262190143	-0.143266166	 2.5512667155	-0.227074
C	 0.2556540308	-1.287946788	 3.5667499668	-0.21134
C	 0.9313466486	-2.4233993042	 2.7531904795	-0.209532
C	 0.5993151356	-2.1076567926	 1.2872022477	-0.219923
H	 1.1503962083	 1.9377556068	 0.0189147616	 0.135283
H	-0.3292223355	 2.0088537284	-0.950550276	 0.13604
H	-0.4316210604	 2.0074740887	 0.8189957633	 0.129798
H	-1.0206293083	-0.2376993947	-0.0653574042	 0.120433
H	 1.7181443001	-0.27010246	 1.2694621195	 0.084927
H	 0.3252100508	 0.8278489242	 2.9088595716	 0.103884
H	-1.1057645779	-0.0448265727	 2.3818169239	 0.097356
H	 0.8943064759	-0.9519083417	 4.3879142214	 0.102554
H	-0.6780855257	-1.6320149499	 4.0206174221	 0.103751
H	 2.0175311402	-2.3946069493	 2.8957003312	 0.10278
H	 0.5979326409	-3.4184923821	 3.0589497302	 0.09906
H	-0.4207610346	-2.4392205516	 1.0484792184	 0.095529
H	 1.2734579363	-2.5883529197	 0.5739793641	 0.11931
28.7618	81.839	122.8291	149.8002	208.6897	239.7367	267.9613	369.8045	395.4664	464.7545	572.6812	595.2322	640.12	775.5701	813.9611	847.8633	874.7655	897.9217	945.8927	955.9447	976.2905	999.2723	1042.207	1054.9883	1077.8231	1116.2367	1137.6409	1205.7748	1212.2215	1218.1423	1272.7063	1281.3406	1300.4715	1322.5146	1328.8812	1344.8534	1346.1993	1352.6284	1385.2541	1412.8699	1487.0488	1494.0738	1495.2778	1496.3249	1499.4205	1518.5359	2353.076	3005.5551	3014.86	3022.6786	3032.6207	3041.9487	3049.8953	3059.1467	3080.5313	3093.0581	3101.1996	3108.1024	3124.1409	3132.4001
CC(C#N)C1CCCC1	C[C@@H](C#N)C1CCCC1	
InChI=1S/C8H13N/c1-7(6-9)8-4-2-3-5-8/h7-8H,2-5H2,1H3	InChI=1S/C8H13N/c1-7(6-9)8-4-2-3-5-8/h7-8H,2-5H2,1H3/t7-/m0/s1
