17
gdb 78739	4.62958	1.11362	1.02564	2.6884	74.01	-0.2486	-0.0236	0.225	1151.7795	0.13569	-421.7802	-421.772559	-421.771615	-421.812293	29.683	
O	 0.1611789295	 1.2941018081	 0.1719811403	-0.442187
C	 0.0757851676	-0.0965209732	-0.0212840894	 0.16377
C	-1.3600221901	-0.62148179	-0.1291399616	-0.164562
C	-1.3280504409	-0.52385671	-1.6243572345	-0.15149
C	 0.2546074095	-0.5788540659	-1.4939701368	-0.11226
C	 0.1767645558	-2.1222961048	-1.3895446863	-0.29868
C	-1.278229458	-1.9150441521	-0.9784055733	 0.263424
C	-2.3714428584	-2.8904835589	-0.9779264168	 0.049744
O	-2.2304564281	-4.0703230344	-1.1990963405	-0.267427
H	-0.4668411919	 1.7171878573	-0.4261309599	 0.281679
H	 0.7399730082	-0.54286425	 0.7250068938	 0.092474
H	-2.1895917622	-0.4521055088	 0.546718718	 0.103495
H	-2.0243707104	-0.1430903035	-2.3576736017	 0.109125
H	 0.9712639871	-0.0760727452	-2.1397939414	 0.084933
H	 0.2351751931	-2.6186154572	-2.3606867169	 0.118939
H	 0.8563926491	-2.6122748399	-0.6846997956	 0.105294
H	-3.3773160599	-2.4574688915	-0.7646509074	 0.063728
98.1579	153.8925	235.0112	274.8743	310.1767	376.1388	404.2781	436.355	548.8341	691.1512	761.5942	775.9332	828.0505	854.7621	884.8411	916.7267	929.0044	944.26	1001.3721	1020.325	1025.7209	1049.5278	1095.7912	1122.8159	1137.653	1161.5049	1185.0799	1227.1017	1243.4413	1277.2569	1285.2923	1320.7592	1371.6345	1433.9785	1437.854	1505.2544	1804.0991	2850.5095	3049.5192	3071.3911	3114.4395	3145.5125	3192.887	3223.1275	3783.3152
OC1C2C3C1CC23C=O	O[C@H]1[C@H]2[C@H]3[C@@H]1C[C@@]23C=O	
InChI=1S/C7H8O2/c8-2-7-1-3-4(7)5(7)6(3)9/h2-6,9H,1H2	InChI=1S/C7H8O2/c8-2-7-1-3-4(7)5(7)6(3)9/h2-6,9H,1H2/t3-,4+,5+,6+,7-/m0/s1
