14
gdb 20403	4.8889	2.06444	1.49051	4.0836	63.09	-0.2207	0.004	0.2248	792.2293	0.110881	-378.710798	-378.70493	-378.703986	-378.740677	22.982	
C	 0.0036618806	 1.4403295895	 0.1136412447	-0.165224
C	 1.4684223004	 1.9450834673	-0.1124946494	-0.360951
C	 2.2357241316	 0.6595933574	-0.0190016531	 0.153808
C	 3.4290250445	 0.0411961952	 0.0983361067	-0.078582
O	 3.2622577965	-1.3005223265	 0.0885721457	-0.188754
N	 1.8801463359	-1.6076912915	-0.0442363935	-0.283289
C	 1.3243318139	-0.4275210626	-0.1082528832	 0.434841
N	 0.0249984223	 0.0103923973	-0.2764720543	-0.392006
H	-0.2699387149	 1.5581466495	 1.1716138118	 0.110939
H	-0.7232307054	 1.9910166504	-0.488649042	 0.117696
H	 1.568923244	 2.3994374286	-1.1049674807	 0.129952
H	 1.7466392007	 2.7021109084	 0.6244301988	 0.124334
H	 4.4501120895	 0.3749777743	 0.2024892663	 0.145762
H	-0.7204108297	-0.5728921074	 0.0747732324	 0.251475
161.8275	256.5914	317.704	465.1878	520.4857	563.2977	649.4373	704.9504	738.5079	807.4769	836.8351	864.4755	872.9352	933.9838	956.7597	1039.4155	1077.5386	1117.7955	1155.835	1195.3038	1229.3414	1287.3592	1316.8358	1318.3261	1406.2698	1464.6013	1491.9134	1520.2039	1598.6522	1700.9328	3002.7238	3039.5097	3089.3233	3100.6039	3259.3152	3608.7145
C1CC2=CON=C2N1	C1Cc2conc2N1	
InChI=1S/C5H6N2O/c1-2-6-5-4(1)3-8-7-5/h3H,1-2H2,(H,6,7)	InChI=1S/C5H6N2O/c1-2-6-5-4(1)3-8-7-5/h3H,1-2H2,(H,6,7)
