17
gdb 86872	2.79768	1.32408	1.07939	4.9777	70.	-0.243	-0.0427	0.2003	1145.5889	0.136358	-455.200568	-455.19188	-455.190936	-455.234471	30.823	
C	-0.0480388898	 1.3931484263	 0.0077135704	-0.341328
N	-0.0358342558	-0.0463221626	 0.1086393709	-0.099329
C	-1.2083282711	-0.8510380349	-0.1485434355	-0.191284
C	-0.643694727	-2.2874718445	-0.0013111638	-0.088856
N	 0.7614874438	-2.1039642642	-0.2932430717	-0.350474
C	 1.1320045841	-0.7732877985	-0.0509684699	 0.455083
O	 2.2606355756	-0.3416387824	-0.0041967167	-0.411556
C	-0.8962373567	-2.8745927172	 1.3846349442	 0.159801
O	-0.0274663133	-3.2957000658	 2.1000854248	-0.235267
H	 0.9812570625	 1.7372929465	 0.1219282494	 0.169476
H	-0.4323472716	 1.7320221456	-0.9654502356	 0.11707
H	-0.6668022228	 1.8353327355	 0.7963747689	 0.123964
H	-2.0154417602	-0.6459201594	 0.5660466352	 0.116503
H	-1.608314039	-0.6859081797	-1.1604791602	 0.114491
H	-1.1360664803	-2.9615500982	-0.7168149572	 0.114653
H	 1.3994029808	-2.7878413915	 0.0913404519	 0.261389
H	-1.9703436891	-2.9134899651	 1.679595755	 0.085664
67.3146	123.1896	143.4127	157.0037	197.5368	274.2368	304.7872	345.4539	506.9276	559.2237	650.2835	695.2696	723.2537	767.2334	823.7358	855.7799	936.9959	996.2025	1046.5719	1094.2709	1143.3936	1162.3468	1169.3568	1224.2081	1276.4719	1299.4084	1316.8471	1350.347	1400.3281	1415.0854	1435.7632	1456.7897	1491.8503	1513.8335	1541.1285	1836.289	1844.7654	2870.0174	2983.0104	2998.5677	3009.1461	3034.7594	3064.4821	3144.2395	3603.0302
CN1CC(NC1=O)C=O	CN1C[C@@H](NC1=O)C=O	
InChI=1S/C5H8N2O2/c1-7-2-4(3-8)6-5(7)9/h3-4H,2H2,1H3,(H,6,9)	InChI=1S/C5H8N2O2/c1-7-2-4(3-8)6-5(7)9/h3-4H,2H2,1H3,(H,6,9)/t4-/m1/s1
