21
gdb 82177	2.704	1.65387	1.30787	2.1919	81.72	-0.2167	0.0737	0.2904	1070.5036	0.18374	-383.231022	-383.222777	-383.221833	-383.263153	33.259	
C	-0.0577303164	 1.5553906721	-0.0463033438	-0.392461
C	 0.0437827192	 0.0331197822	 0.0010440232	 0.036991
C	 0.660681488	-0.6172306128	-1.2390842634	-0.045376
N	 2.0619278478	-0.2267153574	-1.4907653962	-0.343467
C	 1.7663566433	-1.4959570991	-0.7874532701	-0.108619
C	 1.8367426569	-1.4175331536	 0.7284166229	 0.351518
C	 2.002873627	-2.7145057893	 1.4820517598	-0.488083
C	 2.2241478593	-0.0979832795	 1.293985356	-0.297133
N	 0.7986731411	-0.4651894933	 1.1824428726	-0.153942
H	 0.9153029706	 2.0056470766	-0.2569693924	 0.132143
H	-0.7523610057	 1.8683518253	-0.8326557425	 0.108774
H	-0.4259385066	 1.9423094068	 0.9079595563	 0.123118
H	-0.9674280735	-0.3814786626	 0.1088236308	 0.080016
H	 0.022931055	-0.8653787131	-2.0833476272	 0.083897
H	 2.3012464443	-0.425001649	-2.4594328092	 0.230946
H	 2.0011735053	-2.4369486547	-1.2739097775	 0.082625
H	 3.0006274629	-3.1383467938	 1.3198864612	 0.115218
H	 1.8690398149	-2.5500349938	 2.5538278018	 0.12925
H	 1.2642315539	-3.4584370755	 1.1609853745	 0.115197
H	 2.5795689205	-0.0359356737	 2.3202773852	 0.100245
H	 2.6451976324	 0.6280091883	 0.608307458	 0.139145
155.4751	188.4554	196.2062	222.5198	266.9498	301.4249	382.281	439.2614	508.8763	541.1731	599.5468	702.1447	726.1778	777.1225	798.2747	839.4219	877.7705	901.3839	909.7182	943.4516	963.444	1013.9214	1055.8312	1073.3617	1103.0109	1105.273	1122.1128	1129.6238	1137.7316	1174.0623	1187.1748	1249.7486	1253.5903	1335.4585	1358.2608	1365.2635	1378.4291	1404.1476	1411.4924	1430.6506	1484.8789	1490.1514	1494.3836	1499.0805	1503.2899	3012.5552	3026.1448	3043.2017	3084.7426	3106.1626	3109.5422	3122.0837	3129.9408	3141.571	3166.8777	3212.8776	3494.7414
CC1C2NC2C2(C)CN12	C[C@H]1[C@H]2N[C@H]2[C@@]2(C)CN12	
InChI=1S/C7H12N2/c1-4-5-6(8-5)7(2)3-9(4)7/h4-6,8H,3H2,1-2H3	InChI=1S/C7H12N2/c1-4-5-6(8-5)7(2)3-9(4)7/h4-6,8H,3H2,1-2H3/t4-,5+,6+,7+,9?/m0/s1
