21
gdb 89742	2.41927	1.54475	1.13418	1.6944	82.98	-0.2513	0.0724	0.3237	1167.886	0.181472	-387.049211	-387.040396	-387.039452	-387.082599	34.226	
C	-0.8551556258	 1.1296750825	-0.0593698722	-0.417314
C	 0.1112510518	-0.0442792353	-0.0260673734	-0.050307
C	 1.4673725427	 0.073685256	-0.8024099756	-0.351404
C	 2.1893326528	-0.4988759837	 0.4271785054	 0.295888
C	 3.0357033479	-1.7399432849	 0.475391875	-0.309694
C	 3.6242731705	-0.4002929151	 0.8482373539	-0.340901
C	 0.9335611073	-0.3059834132	 1.2480646585	 0.392432
C	 0.7697942935	 0.2507430468	 2.5926413717	-0.271046
O	 0.5350278118	-1.1417523785	 2.3198259004	-0.279575
H	-0.3553112153	 2.0613916328	 0.2276562235	 0.113285
H	-1.2700907968	 1.2685574761	-1.0634866334	 0.117424
H	-1.6952058938	 0.972336818	 0.6260426348	 0.12148
H	-0.4035343655	-0.9692193505	-0.3078537107	 0.08867
H	 1.5462988995	-0.4997659521	-1.7290195465	 0.102657
H	 1.7345203006	 1.1155873282	-1.0073894396	 0.100493
H	 2.8277813523	-2.4442563272	 1.2739900778	 0.127792
H	 3.3361049965	-2.189952621	-0.4654443476	 0.11061
H	 4.3224733494	 0.063662511	 0.1586660308	 0.112798
H	 3.8410888891	-0.2103830246	 1.895102777	 0.112704
H	 1.6470584475	 0.4651777809	 3.2020151085	 0.111137
H	-0.1179531861	 0.831494644	 2.8404368116	 0.112872
57.9697	179.9286	203.3933	214.6458	220.1033	241.4662	326.098	398.8216	447.8762	511.4605	562.8617	599.4356	765.0854	783.9874	845.5314	861.635	872.9265	905.7738	920.4697	934.2222	958.0483	983.1197	1053.53	1057.5835	1075.5201	1104.5031	1123.0379	1131.6261	1150.2462	1158.5403	1176.077	1191.6492	1229.869	1253.7701	1268.8418	1362.6983	1369.1461	1407.9293	1437.3538	1461.1172	1490.5817	1494.0433	1497.514	1501.814	1537.0001	3026.2618	3046.5522	3049.7459	3078.3381	3094.4333	3096.07	3104.7497	3120.8827	3127.5159	3163.5769	3200.4414	3219.4582
CC1CC2(CC2)C11CO1	C[C@H]1CC2(CC2)[C@]21CO2	
InChI=1S/C8H12O/c1-6-4-7(2-3-7)8(6)5-9-8/h6H,2-5H2,1H3	InChI=1S/C8H12O/c1-6-4-7(2-3-7)8(6)5-9-8/h6H,2-5H2,1H3/t6-,8+/m0/s1
