16
gdb 33058	6.53738	0.78469	0.70684	5.8632	67.92	-0.2136	0.0285	0.2421	1532.0674	0.123596	-475.059314	-475.050469	-475.049524	-475.094015	30.729	
C	-0.0015054197	 1.4131622515	-0.017559246	-0.22797
O	-0.0004131374	 0.0032852151	 0.0035189161	-0.226328
C	 0.6380841478	-0.5591019173	-1.1122199539	-0.170898
C	 0.5796692111	-2.0422361548	-0.9833545174	 0.27245
C	 0.0485213431	-2.8220123165	-0.0345526423	-0.093954
O	 0.2420954449	-4.1529209263	-0.3519685683	-0.209405
C	 0.922993117	-4.2242992224	-1.5508083394	 0.488061
O	 1.2463702262	-5.2411319788	-2.0999925935	-0.402548
N	 1.125991818	-2.9126646947	-1.9304422337	-0.439476
H	 1.0213707377	 1.8202208509	-0.01757968	 0.111969
H	-0.5310587701	 1.8058622644	-0.8992244292	 0.111964
H	-0.5170091571	 1.7482330019	 0.8846641693	 0.13786
H	 0.1500764841	-0.2379396626	-2.0517662905	 0.105464
H	 1.6899818092	-0.2226480149	-1.1782645138	 0.105391
H	-0.4717940673	-2.5984941652	 0.8778182849	 0.163354
H	 1.6076736925	-2.6731734303	-2.7788342122	 0.274066
47.7599	67.5722	122.5456	173.2257	221.4974	263.2604	343.5233	353.1617	407.0226	543.8129	602.769	719.4895	728.3026	772.4884	772.6875	926.7106	999.2858	1017.4158	1052.3446	1094.9169	1165.145	1174.8512	1183.7866	1216.4954	1238.2227	1246.5986	1323.0221	1395.6136	1458.8366	1484.2107	1485.2312	1502.072	1526.1272	1720.0857	1897.8976	2923.4846	2936.2847	2977.6378	3024.8465	3126.5556	3321.5845	3693.9278
COCC1=COC(=O)N1	COCc1coc(=O)[nH]1	
InChI=1S/C5H7NO3/c1-8-2-4-3-9-5(7)6-4/h3H,2H2,1H3,(H,6,7)	InChI=1S/C5H7NO3/c1-8-2-4-3-9-5(7)6-4/h3H,2H2,1H3,(H,6,7)
