19
gdb 37741	3.26478	1.90295	1.46038	2.1103	77.44	-0.2261	0.078	0.3041	924.2776	0.161953	-385.808519	-385.802144	-385.8012	-385.838836	27.547	
C	 0.0267611936	 1.4926331335	 0.0835504304	-0.200409
C	 1.4390671491	 2.1351946406	 0.0049476145	-0.218876
C	 2.3360094703	 1.4643207328	-1.0572017802	-0.073505
C	 1.5437626298	 0.692341972	-2.1440877656	-0.12792
C	 2.4853334218	-0.5406232861	-2.1651572241	 0.019854
O	 1.4141343703	-1.511363601	-1.8388182927	-0.387585
C	 1.1201862069	-0.3338298563	-1.0396456684	 0.506308
C	 0.0150667097	-0.0579218091	-0.0734699487	-0.352232
C	 2.6097284202	-0.0154919158	-0.7132788038	-0.10025
H	-0.4694660473	 1.7849666007	 1.0135781745	 0.098634
H	-0.576343445	 1.9064091611	-0.7321898489	 0.109788
H	 1.32070889	 3.2032578615	-0.2087368478	 0.098843
H	 1.9423074509	 2.0730436896	 0.9790027556	 0.09915
H	 3.1804915401	 2.0842896889	-1.3701323801	 0.063246
H	 0.9221049513	 1.0562571077	-2.9626085734	 0.076943
H	 3.2420638104	-0.8511475333	-2.8843818337	 0.091603
H	 0.1943768111	-0.5690453655	 0.8790742604	 0.107952
H	-0.9568332075	-0.3917276049	-0.4514499138	 0.113676
H	 3.1915739142	-0.4493936763	 0.101066086	 0.074779
203.0994	243.3475	353.8745	386.7144	465.9359	542.6091	578.488	679.3435	748.4322	758.93	779.1379	825.3897	836.8997	880.539	889.6878	904.2649	917.9467	934.6303	975.536	1001.9791	1059.9549	1061.1429	1073.9951	1102.5789	1116.7839	1149.0748	1163.5559	1189.3173	1201.1406	1215.6124	1246.0231	1262.5754	1290.6365	1329.677	1344.0333	1361.9037	1380.7368	1403.4577	1484.2396	1490.8957	1503.8348	3019.2326	3037.7744	3039.4577	3060.9142	3070.8334	3078.4753	3092.5593	3108.0932	3111.8658	3132.1702
C1CC2C3C4OC3(C1)C24	C1C[C@@H]2[C@H]3[C@@H]4O[C@@]3(C1)[C@H]24	
InChI=1S/C8H10O/c1-2-4-5-7-6(4)8(5,3-1)9-7/h4-7H,1-3H2	InChI=1S/C8H10O/c1-2-4-5-7-6(4)8(5,3-1)9-7/h4-7H,1-3H2/t4-,5+,6-,7+,8-
