18
gdb 39063	2.63662	1.98931	1.35592	1.9535	75.98	-0.2414	0.0259	0.2673	962.2158	0.150204	-401.933569	-401.926616	-401.925672	-401.9648	28.165	
C	 0.1957273121	 1.4978758109	 0.0577349577	-0.3987
C	 1.367515496	 0.5624586595	-0.1104643289	 0.054309
O	 2.2392415924	 0.3290569152	 0.9759514034	-0.226706
C	 1.8850882196	-0.6211747944	 1.8848716146	 0.121679
N	 0.7979027236	-1.250844847	 2.0261151211	-0.26903
C	-0.28725049	-0.9560518418	 1.1188219813	-0.019229
C	-0.6351646003	-2.0363190808	 0.0427714527	-0.219469
C	-0.7099234183	-0.9113680443	-1.0337034969	-0.323125
C	-0.0155127493	 0.0142374631	-0.0345364228	 0.292706
H	 0.0600662192	 1.9719238801	 1.0254748599	 0.124588
H	-0.0624595388	 2.1192030053	-0.7943246579	 0.11914
H	 1.9204470802	 0.5707580021	-1.0442171527	 0.107452
H	 2.7201778998	-0.792702924	 2.5609311071	 0.124298
H	-1.1707288075	-0.6882316704	 1.7100690791	 0.08384
H	 0.2089682706	-2.7109144197	-0.1141221686	 0.112914
H	-1.5374377997	-2.6254522192	 0.2135895724	 0.104889
H	-0.2039004356	-1.0935694654	-1.9854000665	 0.102276
H	-1.7380782241	-0.5988378791	-1.239688085	 0.108169
113.6583	189.8875	269.9744	324.4465	428.6682	502.7129	517.1682	554.459	584.4114	712.8544	773.6991	801.4118	856.7318	890.2306	905.519	934.7788	953.5644	960.987	1021.155	1031.18	1053.2596	1066.0324	1103.7334	1115.7363	1127.4151	1177.3276	1198.7566	1232.0945	1242.7298	1269.2007	1278.7103	1331.6987	1355.6793	1403.7948	1422.4237	1476.7971	1484.4648	1497.654	1718.1024	3031.8581	3051.7531	3077.0574	3098.3916	3120.2794	3136.5651	3159.4956	3164.6233	3208.9419
C1C2OC=NC3CCC123	C1[C@H]2OC=N[C@@H]3CC[C@]123	
InChI=1S/C7H9NO/c1-2-7-3-6(7)9-4-8-5(1)7/h4-6H,1-3H2	InChI=1S/C7H9NO/c1-2-7-3-6(7)9-4-8-5(1)7/h4-6H,1-3H2/t5-,6-,7-/m1/s1
