18
gdb 23067	4.44399	1.11709	1.04255	1.7605	80.7	-0.2227	0.0301	0.2528	1191.8004	0.147082	-401.858068	-401.85002	-401.849076	-401.890319	31.664	
C	-0.003438321	 1.4400941747	 0.0354403888	-0.504619
C	-0.0254818562	-0.0581197104	-0.0280076406	 0.331209
C	-1.2423512775	-0.9623810581	-0.2638130481	-0.27795
C	-0.3368806427	-2.1403044583	 0.2062065012	-0.17054
C	 0.5996201546	-1.0581645039	 0.8984535749	-0.121076
C	 1.2165127675	-0.8620106328	-0.4948960996	-0.208314
C	 0.7226178599	-2.2026265118	-0.8846347711	 0.496158
N	 1.1884465893	-3.0664537182	-1.6846319018	-0.314847
O	 0.4454104035	-4.2726750141	-1.6078526305	-0.405274
H	 0.9741619698	 1.8103433029	 0.3617117404	 0.12241
H	-0.2169776481	 1.88154561	-0.9444904538	 0.127008
H	-0.753640674	 1.8122874268	 0.742107632	 0.122208
H	-2.0330184852	-0.7467479537	 0.4615109386	 0.100155
H	-1.666520385	-1.0290744943	-1.2718379402	 0.101813
H	-0.7414840471	-3.04331159	 0.6511465124	 0.097657
H	 1.0674826276	-0.9995355537	 1.8701505727	 0.102776
H	 2.1435157107	-0.3717352095	-0.7572543553	 0.098714
H	 0.913335594	-4.8293118356	-2.2384657897	 0.302511
106.377	172.2677	209.544	276.1533	293.1863	300.7551	375.4917	455.5019	478.997	621.8498	660.5471	711.648	741.6642	786.4022	816.6777	869.6479	890.8839	915.3821	926.2397	959.003	990.8806	1018.7204	1027.1104	1090.1533	1098.1649	1144.8483	1151.0749	1167.5206	1202.7546	1229.0018	1269.0885	1292.7798	1395.0568	1412.8309	1428.0076	1486.715	1495.672	1501.8628	1795.4921	3025.548	3036.4628	3088.3541	3094.5342	3097.059	3179.5985	3218.5233	3229.3875	3826.001
CC12CC3C1C2C3=NO	C[C@]12C[C@@H]3[C@H]1[C@H]2C3=NO	
InChI=1S/C7H9NO/c1-7-2-3-4(7)5(7)6(3)8-9/h3-5,9H,2H2,1H3	InChI=1S/C7H9NO/c1-7-2-3-4(7)5(7)6(3)8-9/h3-5,9H,2H2,1H3/t3-,4+,5+,7+/m1/s1
