17
gdb 65592	3.58587	1.24939	1.21758	2.7023	72.14	-0.2443	0.0128	0.2572	1065.1996	0.137027	-417.995856	-417.988025	-417.987081	-418.027889	30.574	
O	-0.378842463	 1.0321794901	-0.5396129431	-0.44449
C	 0.0085066825	-0.2261464607	 0.0059950807	 0.173948
C	-1.2726945498	-1.0842847293	 0.1486521969	-0.242001
C	-1.3230950995	-1.9051380327	-1.1306230634	-0.029977
C	-1.1193272408	-1.2062157322	-2.4256594612	-0.247435
N	 0.0021346488	-1.9168741704	-1.7826199395	-0.099394
C	 0.8847201046	-1.0716604329	-0.9762970251	-0.19477
C	 0.6956152709	-0.0090275498	 1.2923341881	 0.249528
N	 1.2659102176	 0.1791165926	 2.2800409975	-0.334936
H	 0.4146457926	 1.564571664	-0.6700396809	 0.293677
H	-1.1872011752	-1.74535648	 1.0151143378	 0.132084
H	-2.1366248046	-0.4329194157	 0.2989886408	 0.139749
H	-1.8577538927	-2.8498404994	-1.0988907171	 0.100037
H	-1.4643036688	-1.6756189442	-3.3422109138	 0.118091
H	-1.1216452041	-0.12177338	-2.4261125138	 0.139109
H	 1.5016973281	-0.4221813077	-1.6059250973	 0.115108
H	 1.5524855633	-1.7249681619	-0.4055611066	 0.131674
126.1299	149.5196	223.1063	276.4807	328.6125	379.0612	405.2313	406.863	522.9098	553.248	613.963	669.0181	754.328	802.6383	835.5288	888.2071	908.5793	937.454	1022.6459	1041.9017	1048.3643	1072.6711	1113.5425	1127.3254	1138.7003	1182.47	1214.6405	1263.0151	1285.3597	1317.527	1338.1339	1361.4582	1400.222	1473.0488	1482.1782	1505.8763	2350.214	3045.8853	3071.5081	3093.3572	3121.4433	3122.6834	3153.2852	3219.7003	3799.9458
OC1(CC2CN2C1)C#N	O[C@]1(C[C@H]2CN2C1)C#N	
InChI=1S/C6H8N2O/c7-3-6(9)1-5-2-8(5)4-6/h5,9H,1-2,4H2	InChI=1S/C6H8N2O/c7-3-6(9)1-5-2-8(5)4-6/h5,9H,1-2,4H2/t5-,6+,8?/m0/s1
