21
gdb 113859	2.89928	1.03916	0.84017	1.8856	79.2	-0.2409	0.0705	0.3114	1410.9132	0.181705	-424.171091	-424.161694	-424.16075	-424.206417	33.73	
C	 0.1596541462	 1.0392417432	-0.3019216904	-0.241592
O	-0.3905070096	-0.0230583992	 0.4526144971	-0.232629
C	 0.5239960804	-0.5926081197	 1.3349543335	 0.121611
C	 0.1931193972	-1.9564620397	 1.8432775109	-0.342742
C	 1.3686072051	-1.7736481974	 0.8940088679	-0.060728
C	 1.2805781769	-2.3129232214	-0.5056495357	-0.033173
C	 2.4241109083	-1.9824830171	-1.4962519451	-0.090923
O	 2.6585387265	-3.3778473175	-1.7662907479	-0.27334
C	 1.7161624927	-3.7793354666	-0.7511090739	-0.08613
H	 0.999244676	 0.7061492986	-0.9286572193	 0.113631
H	-0.6360131755	 1.4232179035	-0.9443085639	 0.129795
H	 0.5154810864	 1.8521861259	 0.3487972402	 0.109834
H	 0.9794863251	 0.1210399281	 2.0236316458	 0.083828
H	 0.3826747697	-2.1886471793	 2.884980693	 0.115044
H	-0.7013003067	-2.4120129468	 1.4313154009	 0.12585
H	 2.3576367738	-1.8406831325	 1.342908021	 0.084423
H	 0.2956648085	-2.0960242761	-0.9235626581	 0.091696
H	 2.1498422549	-1.4283245673	-2.4021452425	 0.098731
H	 3.2987656732	-1.4996254405	-1.0368278758	 0.091861
H	 2.2133542219	-4.2549767574	 0.1057830549	 0.094452
H	 0.9542670488	-4.4629183908	-1.1439520229	 0.100502
60.9393	69.0115	92.8119	149.8434	171.1879	217.8535	294.8126	340.4785	379.2636	488.2376	592.192	726.5218	783.0303	832.0919	860.2684	894.5973	938.8312	967.715	1001.7694	1032.8939	1039.0828	1050.2592	1066.5356	1096.6682	1112.7557	1132.0205	1159.8239	1160.8608	1163.0065	1183.6164	1209.8057	1237.686	1259.7987	1271.4855	1299.1013	1307.4977	1377.3807	1394.9206	1434.6678	1474.6622	1486.4954	1493.8841	1506.8799	1511.158	1537.3717	2984.8244	2990.8679	3004.5641	3035.8485	3043.5688	3051.0112	3084.2101	3094.9823	3120.7511	3127.0101	3135.9149	3224.0293
COC1CC1C1COC1	CO[C@H]1C[C@H]1C1COC1	
InChI=1S/C7H12O2/c1-8-7-2-6(7)5-3-9-4-5/h5-7H,2-4H2,1H3	InChI=1S/C7H12O2/c1-8-7-2-6(7)5-3-9-4-5/h5-7H,2-4H2,1H3/t6-,7-/m0/s1
