19
gdb 77869	2.426	1.43677	1.27659	0.8945	76.9	-0.2198	0.0152	0.2351	1105.0505	0.158056	-423.019846	-423.011041	-423.010097	-423.052618	34.397	
C	 0.013615486	 1.4917440603	 0.1190481622	-0.49844
C	 0.0255211308	-0.0026309829	 0.0269763173	 0.32897
C	 0.090202779	-0.7499227471	-1.086374949	-0.207991
C	 0.0369427396	-2.2332734894	-0.7964969359	-0.338772
C	 0.0122685389	-2.3077290608	 0.7345959962	 0.326724
O	-0.7937037898	-3.2691965601	 1.3464184004	-0.465838
C	 1.2123253355	-1.7612991781	 1.4529096977	 0.05075
O	 2.4415631403	-1.5373100697	 0.8376642279	-0.426492
C	-0.0116344923	-0.8678580425	 1.2443652901	-0.24721
H	 0.8643507265	 1.8616504991	 0.704202189	 0.132835
H	 0.0470769216	 1.956478892	-0.8699704598	 0.124273
H	-0.8912486986	 1.8435639776	 0.6301061737	 0.131492
H	 0.1562396729	-0.3522666873	-2.093632706	 0.091709
H	-0.8679373529	-2.6996801725	-1.2064340258	 0.118588
H	 0.8964441518	-2.7734737058	-1.2157656657	 0.111868
H	-0.2871253357	-4.0864834856	 1.4092406645	 0.28393
H	 1.3500454161	-2.1169085339	 2.4697350292	 0.10729
H	 2.2811152042	-0.9720517997	 0.0696900549	 0.283795
H	-0.5845665239	-0.5731384434	 2.1172107091	 0.092519
127.5652	180.4438	203.3723	227.8772	262.2705	277.5189	316.3586	367.2779	393.4902	463.5497	528.3153	552.4824	631.6697	661.35	738.6028	810.1384	816.04	907.3996	938.823	963.0542	972.0781	1000.4805	1024.8802	1064.2393	1080.1877	1120.8518	1150.121	1175.8374	1211.0516	1240.3008	1283.7317	1304.2555	1317.7035	1363.5585	1379.8808	1415.3657	1450.6331	1477.051	1479.1209	1489.9502	1691.0755	3015.9312	3021.7853	3049.846	3070.134	3112.9045	3158.9841	3171.1584	3186.882	3736.7588	3794.2628
CC1=CCC2(O)C(O)C12	CC1=CC[C@@]2(O)[C@@H](O)[C@@H]12	
InChI=1S/C7H10O2/c1-4-2-3-7(9)5(4)6(7)8/h2,5-6,8-9H,3H2,1H3	InChI=1S/C7H10O2/c1-4-2-3-7(9)5(4)6(7)8/h2,5-6,8-9H,3H2,1H3/t5-,6+,7+/m1/s1
