16
gdb 12905	3.34748	1.79854	1.50802	0.6894	70.92	-0.2342	0.049	0.2832	883.0922	0.129286	-346.537043	-346.529426	-346.528482	-346.568479	29.635	
O	-0.0726533591	 1.4253796539	-0.0249736868	-0.456125
C	-0.0150142571	 0.046929567	-0.0641781935	 0.38424
C	 0.685794496	-0.7749129593	-1.1532165699	-0.303146
C	-0.5093068602	-1.7869297857	-1.1021821952	-0.228637
C	-1.178954604	-0.9172197137	-0.0323854523	-0.117288
C	-0.2611049014	-0.7867436218	 1.1869838792	-0.291459
C	 0.6075300219	-1.8292860414	 1.6489937489	 0.344599
C	 1.3497969927	-2.6995091511	 2.0250093207	-0.465606
H	 0.7264253047	 1.7521672904	 0.4042881481	 0.288779
H	 0.7220670898	-0.2294659419	-2.0983763457	 0.111096
H	 1.679640753	-1.1620625609	-0.9127099851	 0.106183
H	-1.0713128247	-1.8173454562	-2.0372604214	 0.107228
H	-0.2633315332	-2.8059356557	-0.7941879733	 0.114764
H	-2.2390192792	-0.7205791149	 0.0713317342	 0.098165
H	-0.7178971164	-0.1846986572	 1.9688058771	 0.113746
H	 1.9982836773	-3.4679146415	 2.3658113449	 0.193461
135.9738	145.0594	229.8856	281.433	350.0626	381.013	388.036	531.0049	558.3179	579.0291	630.7512	652.9674	744.4408	792.5402	815.8332	896.8871	919.7741	958.8741	978.4015	1022.3314	1064.2437	1092.5223	1132.0675	1196.7397	1215.6305	1228.8729	1239.908	1294.7179	1308.3638	1327.512	1447.8915	1473.9962	1504.5343	2226.8695	3061.5417	3071.0462	3114.2225	3131.0801	3142.9962	3190.3606	3503.5943	3788.5733
OC12CCC1C2C#C	O[C@]12CC[C@H]1[C@H]2C#C	
InChI=1S/C7H8O/c1-2-5-6-3-4-7(5,6)8/h1,5-6,8H,3-4H2	InChI=1S/C7H8O/c1-2-5-6-3-4-7(5,6)8/h1,5-6,8H,3-4H2/t5-,6+,7+/m1/s1
