23
gdb 63144	2.18421	1.91272	1.53338	1.3051	83.19	-0.2547	0.0654	0.3201	1025.8645	0.208546	-388.318881	-388.310685	-388.309741	-388.350663	34.368	
C	-0.1161394382	 1.5332510822	-0.0154004757	-0.474587
C	 0.0423230898	 0.0123950469	-0.0051890549	 0.4414
O	-1.2543259513	-0.580143303	-0.0825941037	-0.49588
C	 1.0449085688	-0.5811474852	-1.0385664384	-0.058526
C	 2.3994014863	-0.0425164131	-0.5277605412	-0.21853
C	 2.2173649143	-0.0496619249	 1.0279779574	-0.220531
C	 0.7848580285	-0.5954576349	 1.2110736381	-0.025877
C	 0.7937225073	-2.0986214354	 0.8485103118	-0.209667
C	 0.9682028839	-2.0881564587	-0.7061249307	-0.202492
H	 0.8273709521	 2.0720875008	 0.0917019611	 0.120669
H	-0.5702632211	 1.8593043133	-0.9599370441	 0.101583
H	-0.7815917336	 1.8393547879	 0.7973585769	 0.123669
H	-1.683473811	-0.2436063017	-0.8759963641	 0.272138
H	 0.8360847515	-0.3409611865	-2.0851536943	 0.042147
H	 3.2290858644	-0.675877958	-0.8543306738	 0.094886
H	 2.6035451	 0.9643025652	-0.9026856024	 0.092746
H	 2.951459938	-0.6849777134	 1.5312322465	 0.094714
H	 2.3262792203	 0.9539330012	 1.4485302035	 0.093441
H	 0.3380578777	-0.372603282	 2.182236928	 0.055798
H	 1.6028870001	-2.6271782407	 1.3612610715	 0.083829
H	-0.1471075181	-2.5733498847	 1.1305796995	 0.108353
H	 0.109320055	-2.5533149968	-1.1933077696	 0.095797
H	 1.8665255052	-2.6175810085	-1.0372194812	 0.08492
181.1045	222.5183	237.5189	252.043	282.2919	337.1151	377.6552	427.8391	428.6208	531.8737	592.8139	622.0742	731.4967	788.797	806.93	844.4954	875.7109	886.7221	896.5014	949.7693	955.671	960.0164	999.422	1021.4461	1027.857	1086.5438	1099.5995	1109.1917	1143.1815	1153.4609	1190.0901	1217.604	1239.633	1244.2397	1284.5661	1287.1032	1292.3726	1307.5676	1324.6097	1344.2595	1348.9988	1391.5907	1408.3463	1479.5977	1487.6891	1491.6812	1501.3018	1506.3349	1520.6649	3025.5392	3048.2963	3051.8595	3056.7681	3061.2633	3071.7813	3080.4243	3091.2716	3093.1645	3100.0395	3101.3617	3120.8568	3130.0671	3810.0008
CC1(O)C2CCC1CC2	C[C@@]1(O)[C@H]2CC[C@@H]1CC2	
InChI=1S/C8H14O/c1-8(9)6-2-3-7(8)5-4-6/h6-7,9H,2-5H2,1H3	InChI=1S/C8H14O/c1-8(9)6-2-3-7(8)5-4-6/h6-7,9H,2-5H2,1H3/t6-,7+,8-
