17
gdb 29706	2.38639	1.64211	0.98578	2.0494	72.36	-0.1691	0.0565	0.2256	1157.5339	0.137153	-451.358957	-451.34947	-451.348526	-451.392789	34.62	
C	 0.0212370817	 1.4598850077	-0.0292498532	-0.349646
N	 0.0233729812	 0.0158212478	 0.0050628003	-0.047281
C	 0.0890750503	-0.8284179195	-1.0490833403	 0.370078
N	 0.2034670043	-0.3690102569	-2.3610876905	-0.598111
N	 0.1223894035	-2.098973186	-0.683840045	-0.419675
C	 0.0782317692	-2.0666963982	 0.683188215	 0.29975
O	 0.0989995687	-3.2077353307	 1.4167610333	-0.448849
C	 0.0060726432	-0.7915801858	 1.1698566248	 0.099118
N	-0.0615475053	-0.2129482681	 2.4491372868	-0.618125
H	 0.83068453	 1.8276322889	-0.6672564469	 0.141733
H	-0.9301521742	 1.858302953	-0.4041251815	 0.121702
H	 0.162880777	 1.8147589436	 0.9925629057	 0.161046
H	-0.5117051952	 0.300347502	-2.6220100208	 0.246897
H	 0.1828994694	-1.1568454023	-2.9966653314	 0.257355
H	 0.1505007355	-3.9296371875	 0.779390974	 0.294859
H	 0.735516832	-0.4603829725	 3.0256159884	 0.24552
H	-0.8995860312	-0.4804241756	 2.9549282614	 0.24363
99.16	127.6658	190.3736	198.0209	247.1593	272.8948	279.8983	288.2333	319.8427	356.065	359.3699	588.6931	619.9432	637.8753	671.3364	720.0689	747.3046	764.2281	805.8417	933.1087	1076.3125	1133.5658	1155.1729	1188.3905	1211.365	1236.3663	1335.0732	1366.7487	1434.9121	1437.0119	1494.829	1511.7087	1548.0439	1574.1633	1646.7283	1663.3785	1709.3616	3017.9934	3083.1528	3146.7595	3496.9057	3520.7031	3556.3246	3621.6923	3809.4201
CN1C(N)=NC(O)=C1N	Cn1c(N)nc(O)c1N	
InChI=1S/C4H8N4O/c1-8-2(5)3(9)7-4(8)6/h9H,5H2,1H3,(H2,6,7)	InChI=1S/C4H8N4O/c1-8-2(5)3(9)7-4(8)6/h9H,5H2,1H3,(H2,6,7)
