19
gdb 52846	2.88314	1.02614	0.93542	1.4594	86.74	-0.2379	0.0124	0.2503	1384.7891	0.156962	-385.870979	-385.861229	-385.860285	-385.906961	34.743	
C	-0.0358421164	 1.3600712751	 0.2289356737	-0.498645
C	-0.0018203939	-0.0862312899	 0.0673311633	-0.006925
C	 0.0334497436	-1.2838060433	-0.0561372	 0.142171
C	 0.0651150457	-2.7473413781	-0.2194512232	 0.14561
C	 0.7485913691	-3.1267306066	-1.5420442435	-0.408686
O	 0.8064946053	-3.3577398464	 0.857655742	-0.286951
C	-0.0663746256	-4.0798466204	 1.7198966025	-0.129021
C	-1.3955746137	-4.0839521817	 1.0193994519	-0.097676
C	-1.3280598762	-3.3347582412	-0.0720208951	-0.104471
H	 0.6542642227	 1.6836843975	 1.0160014837	 0.151599
H	 0.2535476442	 1.8723091829	-0.6953277052	 0.147414
H	-1.0376457915	 1.7088343959	 0.5032620926	 0.146984
H	 1.7806298199	-2.7675823247	-1.5399613277	 0.132518
H	 0.7488267678	-4.2140461833	-1.6551243145	 0.117065
H	 0.2251344509	-2.675407059	-2.3897670676	 0.11806
H	 0.339497092	-5.0897235236	 1.8770447402	 0.108156
H	-0.1261202058	-3.5955437228	 2.708568043	 0.106293
H	-2.2622639713	-4.6155133483	 1.3917062612	 0.107357
H	-2.1191757067	-3.114382242	-0.7761992473	 0.10915
26.4392	64.2315	101.8135	132.5086	235.103	245.4178	289.6841	328.5435	349.3614	441.5921	481.2353	534.6467	603.2775	734.4054	769.8054	809.2365	855.7246	907.0133	955.6939	958.9406	1037.5184	1045.4044	1051.5892	1054.0569	1058.9985	1104.7057	1147.5127	1183.0299	1197.368	1241.6975	1343.9862	1376.3363	1397.0956	1413.6742	1477.3785	1478.8136	1480.9069	1486.9287	1517.7147	1693.3704	2363.7299	2968.3657	3007.8676	3026.6813	3044.349	3086.9875	3088.4524	3123.8955	3131.1057	3208.3469	3235.6322
CC#CC1(C)OCC=C1	CC#C[C@@]1(C)OCC=C1	
InChI=1S/C8H10O/c1-3-5-8(2)6-4-7-9-8/h4,6H,7H2,1-2H3	InChI=1S/C8H10O/c1-3-5-8(2)6-4-7-9-8/h4,6H,7H2,1-2H3/t8-/m1/s1
