15
gdb 16652	3.42883	2.22483	1.50992	3.9633	61.67	-0.2426	0.0067	0.2493	823.6678	0.119788	-399.815773	-399.808742	-399.807798	-399.847062	25.729	
C	-0.0464350733	 1.4015153202	-0.1236412429	-0.342992
N	-0.0115817668	-0.0357181347	 0.0037698979	-0.090875
C	-1.2196198208	-0.8451814274	 0.0381230357	-0.196849
C	-0.6930813854	-2.2704628513	 0.0061701151	 0.037267
O	 0.0604112441	-2.5555323596	-1.1689601971	-0.244508
C	 0.7718197414	-2.2120453064	 0.0354786608	-0.099443
C	 1.1621013922	-0.7470796226	 0.0603694153	 0.437498
O	 2.2820374153	-0.2854493425	 0.1219909931	-0.394202
H	 0.985134098	 1.75739161	-0.1126161661	 0.16834
H	-0.5257080316	 1.7073017727	-1.0621965902	 0.127177
H	-0.5936254031	 1.8600850462	 0.709345622	 0.123629
H	-1.7997545402	-0.659378643	 0.9532892918	 0.113873
H	-1.8674500467	-0.6357571822	-0.8232797665	 0.124924
H	-1.27542204	-3.0875016536	 0.4196244387	 0.113583
H	 1.4353828368	-2.9645566658	 0.4455430425	 0.122577
129.5971	149.973	181.2527	288.3878	302.2504	405.739	456.5816	635.436	662.6644	777.9253	800.1429	845.6119	874.6235	941.872	961.1407	1048.5754	1059.4912	1103.7966	1152.5395	1158.6393	1222.6731	1247.114	1276.5768	1304.9955	1325.4179	1414.4863	1431.8856	1451.4577	1491.9689	1501.3576	1531.6881	1815.1769	3002.09	3014.4871	3040.32	3062.7232	3143.9833	3171.2387	3194.7999
CN1CC2OC2C1=O	CN1C[C@H]2O[C@H]2C1=O	
InChI=1S/C5H7NO2/c1-6-2-3-4(8-3)5(6)7/h3-4H,2H2,1H3	InChI=1S/C5H7NO2/c1-6-2-3-4(8-3)5(6)7/h3-4H,2H2,1H3/t3-,4-/m1/s1
