25
gdb 117996	3.21069	0.7644	0.64956	0.6577	95.85	-0.2573	0.0574	0.3148	1819.6341	0.225746	-352.337533	-352.325859	-352.324915	-352.374657	42.736	
C	 0.0085076007	 1.606852604	-0.0658960736	-0.379994
C	 0.0356256089	 0.0851331362	 0.1069654383	-0.179814
C	-1.3620009644	-0.542336204	 0.0110697483	-0.174072
C	-1.3847387611	-2.0828034542	 0.0306304729	 0.031728
C	-0.7312181863	-2.6463970296	 1.3008529921	-0.404783
C	-2.8358128166	-2.6358625238	-0.1265088481	-0.148968
C	-3.5823004546	-2.0980135285	-1.3671369503	-0.40219
C	-2.8390559481	-4.0997051796	-0.1657181093	 0.323912
C	-2.8484237917	-5.3003134041	-0.2391680855	-0.469145
H	 1.0129001574	 2.0352141694	 0.0091584275	 0.110911
H	-0.4021789983	 1.8885283577	-1.0420022467	 0.112901
H	-0.6132104647	 2.0812849065	 0.7017788638	 0.113413
H	 0.6841380394	-0.358826999	-0.6604255408	 0.094629
H	 0.4944652692	-0.1580053467	 1.0716164051	 0.101234
H	-1.9857901691	-0.1622704807	 0.8341835	 0.087748
H	-1.8266671881	-0.182512919	-0.913652013	 0.095075
H	-0.8138292126	-2.4420474376	-0.8376999804	 0.077484
H	-0.8005020007	-3.7363440672	 1.3253954903	 0.13039
H	 0.3261516226	-2.3769070913	 1.3610515886	 0.114396
H	-1.2262409891	-2.2565247075	 2.1992639135	 0.107189
H	-3.3993858152	-2.3247047665	 0.7661617085	 0.099903
H	-3.004469077	-2.2864498497	-2.2776798788	 0.123065
H	-4.5471259056	-2.6001699088	-1.4728703529	 0.125072
H	-3.7669888565	-1.0244358056	-1.2885801188	 0.119165
H	-2.8600632185	-6.3608153905	-0.2891368007	 0.190751
47.4263	70.9707	102.6089	121.3943	180.8564	210.4057	216.0939	243.5386	258.1747	302.9469	334.3301	377.2513	416.0399	429.6239	554.1668	571.056	622.4269	631.3869	745.9458	799.9324	853.6898	872.2288	907.1664	939.6757	980.656	1009.1874	1038.2856	1062.4395	1072.1408	1109.2812	1146.2794	1177.7323	1187.7503	1248.8724	1287.5462	1315.0268	1327.92	1329.739	1362.0533	1365.5362	1391.8181	1407.9694	1411.1314	1414.8901	1479.6545	1493.1976	1495.1339	1497.5469	1500.054	1503.9793	1508.4788	1511.6215	2228.8669	2987.7732	2995.3883	3008.7807	3020.4269	3028.3314	3031.2046	3044.1115	3051.7895	3070.3817	3096.0562	3101.1406	3104.3937	3117.1125	3126.9865	3128.4515	3504.7434
CCCC(C)C(C)C#C	CCC[C@@H](C)[C@@H](C)C#C	
InChI=1S/C9H16/c1-5-7-9(4)8(3)6-2/h2,8-9H,5,7H2,1,3-4H3	InChI=1S/C9H16/c1-5-7-9(4)8(3)6-2/h2,8-9H,5,7H2,1,3-4H3/t8-,9+/m0/s1
