17
gdb 44629	3.05088	1.71701	1.54425	2.2826	72.16	-0.2261	0.0071	0.2331	916.4017	0.138235	-417.94445	-417.937704	-417.93676	-417.975683	27.016	
N	 0.3145967344	 1.0152063573	 0.3876103123	-0.538395
C	 0.0987166621	-0.1527233558	-0.0122627681	 0.422115
O	 0.9420866122	-1.0543227399	-0.6527027697	-0.26488
C	-0.1291268583	-2.0388094831	-0.7709284284	 0.074539
C	-0.2301893897	-3.0183168371	 0.4190366536	 0.011678
C	 0.8031220559	-2.9324672556	 1.5648240084	-0.260482
C	-0.1709897773	-1.9301246065	 2.2525618926	-0.175104
N	-1.1720528729	-2.0807084998	 1.1380697686	-0.14407
C	-1.0880011871	-1.0950095423	-0.0017124271	-0.125681
H	 1.2754742862	 1.3060044638	 0.1958292675	 0.231088
H	-0.2376243929	-2.3892574133	-1.7963598659	 0.098637
H	-0.6279537497	-4.0040991895	 0.159649382	 0.082855
H	 0.9496690082	-3.8712470129	 2.1012314699	 0.110873
H	 1.7739664437	-2.5259548007	 1.2781721758	 0.124843
H	-0.5914969948	-2.27397327	 3.2013301062	 0.109599
H	 0.2044043656	-0.9127020311	 2.3858414823	 0.133489
H	-2.0493533056	-0.7103843136	-0.3395294099	 0.108896
94.876	175.9976	255.8483	363.7691	430.4622	504.3392	627.8522	667.8119	733.5927	770.6985	790.4362	824.9471	860.4538	877.2451	905.1458	926.5161	935.2442	987.5108	995.39	1007.4861	1032.5534	1077.0446	1102.5859	1174.2812	1183.4561	1202.4055	1221.5962	1225.1731	1250.8782	1262.3229	1268.5588	1308.8745	1325.4064	1344.667	1476.9766	1508.5702	1813.2694	3055.7354	3059.2817	3083.2063	3106.2872	3119.5495	3129.8153	3140.6207	3469.4105
N=C1OC2C3CCN3C12	[NH][C]1O[C@H]2[C@H]3CCN3[C@@H]12	
InChI=1S/C6H8N2O/c7-6-4-5(9-6)3-1-2-8(3)4/h3-5,7H,1-2H2	InChI=1S/C6H8N2O/c7-6-4-5(9-6)3-1-2-8(3)4/h3-5,7H,1-2H2/t3-,4-,5+/m1/s1
