17
gdb 35584	2.79031	1.56603	1.31928	5.2682	71.32	-0.245	0.0043	0.2493	1002.7319	0.138697	-418.000457	-417.993038	-417.992094	-418.032634	28.431	
N	 0.183154354	-1.136173011	 0.3799165805	-0.32957
C	 0.1445795541	 0.0055160635	 0.2064332564	 0.311987
C	 0.0816474792	 1.4487663848	-0.0230794036	-0.028106
O	-0.3274392202	 2.1947858649	 1.1379312234	-0.300266
C	 0.8289048196	 3.0733960537	 1.0578552282	 0.120471
C	 1.8026052322	 2.8977045156	 2.2151917162	-0.231247
C	 2.5502704441	 1.5914199515	 1.854422504	-0.191567
N	 2.5993083504	 1.5358406635	 0.3785393526	-0.274429
C	 1.4305296414	 2.2338293665	-0.1121458473	-0.078482
H	-0.5859393969	 1.638331374	-0.873717113	 0.121958
H	 0.5241636221	 4.1060856794	 0.8672813056	 0.083551
H	 2.493021741	 3.7494609802	 2.2323988515	 0.101137
H	 1.2875416283	 2.8538240497	 3.1781271419	 0.123363
H	 3.5591946148	 1.5370495537	 2.2683976546	 0.110972
H	 1.9953883364	 0.7237928623	 2.2248349375	 0.139575
H	 3.4371749669	 1.9865094673	 0.0316161305	 0.228179
H	 1.6106709327	 2.7041444303	-1.0779441988	 0.092474
77.738	136.9199	218.2505	242.8143	367.8494	376.3782	528.6957	572.4361	644.0799	657.0064	727.0857	788.9861	842.0236	848.4409	898.0368	922.4785	953.5227	974.0312	1002.9279	1026.2471	1058.9915	1098.9875	1145.9808	1173.1948	1191.0038	1212.545	1252.5765	1287.7585	1313.9382	1328.4725	1351.4619	1366.0565	1391.93	1460.9044	1469.4598	1511.0898	2358.3275	3022.9756	3040.6725	3062.0264	3074.6307	3108.1509	3118.0371	3124.2261	3551.5136
N#CC1OC2CCNC12	N#C[C@H]1O[C@H]2CCN[C@@H]12	
InChI=1S/C6H8N2O/c7-3-5-6-4(9-5)1-2-8-6/h4-6,8H,1-2H2	InChI=1S/C6H8N2O/c7-3-5-6-4(9-5)1-2-8-6/h4-6,8H,1-2H2/t4-,5+,6+/m0/s1
