18
gdb 78575	4.9756	1.07832	1.01988	1.9816	83.52	-0.2318	0.0428	0.2747	1213.6071	0.146656	-364.678161	-364.670276	-364.669332	-364.710342	31.022	
C	-0.2062500237	 1.6213743763	-0.0519760502	-0.419423
C	-0.0606653657	 0.1139009111	-0.0900821036	 0.059411
C	 0.8885923848	-0.5774451571	-1.0713922355	-0.097042
C	 2.0947148282	-0.2223036297	-0.1522977766	-0.01902
C	 2.5951964583	-1.6798286904	-0.0741536793	-0.21619
C	 3.3486281395	-2.1125080579	 1.0841148276	 0.311494
C	 3.9975669669	-2.4866228014	 2.0244496255	-0.431488
C	 1.0546505648	-1.7350096636	-0.0455689662	-0.00938
N	 0.9612978638	-0.4929186331	 0.878077951	-0.161571
H	 0.7523996894	 2.132096691	-0.1830481368	 0.117781
H	-0.8800808804	 1.961923498	-0.8454979422	 0.118902
H	-0.62889393	 1.9370873626	 0.9073489372	 0.131103
H	-1.0384803482	-0.3710601007	 0.0272409969	 0.072094
H	 0.8720099404	-0.6441324012	-2.1652566291	 0.064772
H	 2.6869910103	 0.6915288892	-0.1152407696	 0.093668
H	 3.0376747959	-2.0498583429	-1.0052137778	 0.100588
H	 4.5587736726	-2.8088067667	 2.8661993614	 0.193595
H	 0.399978053	-2.5932021036	 0.1134699773	 0.090707
111.3954	142.1977	193.7569	240.198	275.8114	376.8878	475.6749	509.9354	571.4617	628.6812	633.6544	720.3931	757.2943	832.7805	835.8853	852.7519	872.0257	913.8912	918.6901	1024.1882	1039.7452	1044.504	1062.9032	1074.1048	1117.7962	1128.4697	1136.6398	1172.6593	1182.9943	1198.8715	1258.4384	1267.2511	1298.7403	1367.4645	1401.7213	1417.2998	1492.151	1493.2937	2237.1281	3022.3741	3035.2187	3038.8779	3051.713	3102.2672	3106.8444	3110.6837	3122.2651	3504.5826
CC1C2C3C(C#C)C2N13	C[C@H]1[C@H]2[C@@H]3[C@@H](C#C)[C@H]2N13	
InChI=1S/C8H9N/c1-3-5-7-6-4(2)9(7)8(5)6/h1,4-8H,2H3	InChI=1S/C8H9N/c1-3-5-7-6-4(2)9(7)8(5)6/h1,4-8H,2H3/t4-,5-,6+,7+,8-/m0/s1
