17
gdb 84638	2.24509	1.84689	1.38704	2.6051	73.34	-0.2434	-0.0364	0.2071	990.4761	0.136232	-421.835561	-421.82777	-421.826826	-421.867824	29.871	
C	-0.3299537736	 1.487401959	 0.0266790402	-0.404291
C	 0.040257282	-0.0181860643	-0.0287405266	-0.155045
C	 0.8147782816	-0.3546028373	-1.2797931903	-0.086968
C	 2.134472409	-0.5424394266	-1.3046520237	-0.055877
C	 2.9566016324	-0.3877270219	-0.0785640378	-0.010908
O	 2.8309211627	 0.8659427542	 0.6115204576	-0.23995
C	 2.2772681908	-0.2943693343	 1.2389686868	-0.062571
C	 0.7805047138	-0.4181194695	 1.2482662	 0.394539
O	 0.2017664615	-0.8490425468	 2.2199988383	-0.3242
H	 0.5731357139	 2.0995026302	 0.0652433745	 0.150434
H	-0.9044501261	 1.7669607163	-0.861467976	 0.120733
H	-0.9411588302	 1.6909238699	 0.9104023559	 0.134566
H	-0.8946319159	-0.5896137286	-0.0150160719	 0.109915
H	 0.2379992954	-0.4199591138	-2.1989969671	 0.107826
H	 2.6506352388	-0.7835302397	-2.2282819385	 0.101328
H	 3.9721345284	-0.7777508269	-0.0950378736	 0.108992
H	 2.7734917353	-0.6272291899	 2.1481674922	 0.111477
84.6053	169.5916	213.8951	238.5478	298.592	341.0164	445.661	482.0397	543.2386	590.5619	671.0912	742.2961	770.7461	814.6791	847.6063	882.41	929.0144	977.0949	988.6217	1007.9433	1042.6675	1074.5368	1101.3659	1129.4069	1187.2892	1248.5493	1262.3063	1302.5474	1336.0225	1356.634	1386.0506	1411.7358	1431.6062	1491.8833	1506.3654	1709.5608	1803.5951	3043.8794	3048.2473	3115.5735	3134.8545	3142.8923	3146.7786	3157.3831	3187.861
CC1C=CC2OC2C1=O	C[C@H]1C=C[C@H]2O[C@H]2C1=O	
InChI=1S/C7H8O2/c1-4-2-3-5-7(9-5)6(4)8/h2-5,7H,1H3	InChI=1S/C7H8O2/c1-4-2-3-5-7(9-5)6(4)8/h2-5,7H,1H3/t4-,5+,7+/m0/s1
