16
gdb 106915	4.19916	1.12913	1.00417	4.7974	71.36	-0.2343	-0.0566	0.1777	1161.5403	0.124439	-437.870997	-437.863006	-437.862062	-437.903735	29.989	
O	-0.0281488866	 1.3346972084	 0.4208187564	-0.414764
C	 0.0389554112	-0.0015395947	-0.0545570304	-0.193552
C	-1.3597720247	-0.543144222	-0.1058890716	 0.313956
N	-2.0352501632	-1.0468249625	 1.1195072587	-0.349382
C	-1.6980549177	-1.9787002014	 0.0015972386	-0.25421
C	-2.8797329839	-2.2192806902	-0.9294626871	 0.432891
O	-3.3865377249	-3.2846885399	-1.1854289808	-0.328806
C	-3.2343227886	-0.8803413256	-1.4841199299	-0.20573
C	-2.3754808935	 0.0481752426	-1.0448999013	-0.084035
H	 0.8374560033	 1.7396141411	 0.3111806515	 0.294228
H	 0.4830755837	-0.0450482259	-1.0611065435	 0.103307
H	 0.6518750554	-0.6376330984	 0.6047513146	 0.089024
H	-1.3355706712	-1.1734162213	 1.8531440663	 0.23547
H	-0.9690496223	-2.7647289032	 0.1599425181	 0.108311
H	-4.0910204867	-0.7295124333	-2.1278239952	 0.121175
H	-2.3959109702	 1.1076838563	-1.2684533644	 0.132116
78.6473	118.5047	214.8888	244.0742	272.7227	360.588	400.6477	420.5091	481.2361	643.0419	677.6474	725.6112	767.4081	831.2645	852.302	873.9749	922.9607	981.6389	994.3976	1033.3984	1061.9068	1078.0563	1087.6212	1121.8491	1181.8795	1237.5767	1245.5196	1288.7754	1321.2708	1376.0282	1405.8535	1472.4641	1511.628	1637.3812	1824.3471	2965.5967	3000.4676	3188.1882	3210.0384	3234.1678	3447.0926	3829.3776
OCC12NC1C(=O)C=C2	OC[C@]12N[C@H]1C(=O)C=C2	
InChI=1S/C6H7NO2/c8-3-6-2-1-4(9)5(6)7-6/h1-2,5,7-8H,3H2	InChI=1S/C6H7NO2/c8-3-6-2-1-4(9)5(6)7-6/h1-2,5,7-8H,3H2/t5-,6-/m0/s1
