16
gdb 49488	5.99022	0.81669	0.76278	1.323	73.18	-0.2516	-0.0392	0.2124	1419.895	0.122712	-437.85899	-437.850726	-437.849782	-437.892734	29.437	
O	-0.1870751422	 0.0186408275	 0.0711436654	-0.245974
C	-0.004749563	 1.2010234181	 0.1999420383	 0.157163
C	 1.327467794	 1.886442904	 0.0453316501	-0.100305
C	 1.237556935	 3.1470379605	-0.9093529273	-0.275814
C	 1.5821116723	 4.0530426665	 0.2775933143	-0.024711
C	 1.6578393504	 2.8611042012	 1.1989874437	-0.074824
N	 2.8522389342	 3.5961896677	 0.8053728713	-0.074921
C	 3.6212676862	 4.344986801	 1.6841329011	 0.136189
O	 3.8217078345	 5.5304137923	 1.587276074	-0.287218
H	-0.8486620121	 1.8897672182	 0.4435961141	 0.076686
H	 2.0998332278	 1.1506135471	-0.1813585642	 0.110238
H	 1.9392920641	 3.1618936357	-1.7445531854	 0.132943
H	 0.2217423893	 3.3064611733	-1.2798100323	 0.12362
H	 1.2568836974	 5.0657230454	 0.4766968315	 0.131955
H	 1.3887283702	 2.7723088776	 2.2453003526	 0.123267
H	 4.1029085319	 3.7048104339	 2.4472987729	 0.091707
66.8413	78.1986	150.956	180.3557	249.9194	314.2695	364.926	406.7941	482.8935	671.3644	754.7754	800.0509	828.2388	873.5788	915.3504	960.0725	969.8644	1005.0428	1033.907	1040.1029	1070.7493	1113.1802	1151.5013	1181.099	1218.7644	1231.8702	1259.174	1282.0034	1299.5894	1414.0956	1419.3549	1435.5472	1475.0994	1798.0506	1834.3179	2848.8061	2958.8408	3072.1271	3114.578	3135.6224	3186.8442	3215.7988
O=CC1CC2C1N2C=O	O=C[C@H]1C[C@H]2[C@@H]1N2C=O	
InChI=1S/C6H7NO2/c8-2-4-1-5-6(4)7(5)3-9/h2-6H,1H2	InChI=1S/C6H7NO2/c8-2-4-1-5-6(4)7(5)3-9/h2-6H,1H2/t4-,5+,6-,7?/m1/s1
