16
gdb 29087	3.08622	1.44433	0.98996	4.1977	78.09	-0.2045	-0.031	0.1735	1150.9469	0.125699	-434.099091	-434.090939	-434.089995	-434.131885	30.811	
C	-0.1625321269	 1.5270445365	 0.0542410706	-0.492259
C	-0.0260269763	 0.0402996003	-0.0434133775	 0.305123
C	 0.2494066146	-0.6112050205	-1.1759304838	-0.080668
O	 0.3690019463	-1.9866465603	-1.2335634262	-0.238568
C	 0.2084143619	-2.7506450512	-0.1148597437	 0.341655
N	 0.3135116436	-4.0112522687	-0.1435212612	-0.513622
C	-0.1032823732	-2.0660563299	 1.1914057772	 0.312333
N	-0.2720948088	-2.6764006897	 2.2954834024	-0.523426
N	-0.199561231	-0.6923753079	 1.1238534225	-0.404841
H	 0.5700326857	 1.9465529839	 0.7543303759	 0.139843
H	-0.0061933419	 1.992263561	-0.9205590283	 0.143216
H	-1.1598857541	 1.8101833603	 0.4118302747	 0.139881
H	 0.403225279	-0.1485845811	-2.1375318379	 0.132324
H	 0.5254891873	-4.3381221012	-1.0866721039	 0.231891
H	-0.1604631168	-3.6772699379	 2.1320686136	 0.246438
H	-0.4071144394	-0.2269150538	 1.9943854857	 0.260681
87.0495	109.8955	184.8964	284.9955	301.4341	366.3544	399.7259	463.3529	516.5136	531.2679	575.4333	589.5095	662.0166	743.1951	775.5844	799.2455	872.2686	901.2606	983.5672	1026.3833	1048.8684	1068.5354	1147.9166	1190.2211	1244.9414	1276.6184	1376.5851	1420.4697	1441.2869	1474.1047	1481.4997	1505.2817	1721.1913	1731.6776	1755.0056	3025.187	3074.9772	3135.4981	3266.1798	3491.8098	3495.7752	3628.1091
CC1=COC(=N)C(=N)N1	CC1=COC(=C([NH])N1)[NH]	
InChI=1S/C5H7N3O/c1-3-2-9-5(7)4(6)8-3/h2,7H,1H3,(H2,6,8)	InChI=1S/C5H7N3O/c1-3-2-9-5(7)4(6)8-3/h2,7H,1H3,(H2,6,8)
