16
gdb 32279	2.53218	1.52491	0.9574	3.9097	74.25	-0.2406	-0.0022	0.2384	1160.472	0.12572	-437.938432	-437.930326	-437.929382	-437.971469	30.148	
O	-0.0077826813	 1.4513402454	 0.0470827203	-0.418438
C	 0.014680233	 0.0372267388	-0.0098047345	-0.165678
C	-1.3982488712	-0.4859393902	-0.0020110899	 0.142171
C	-2.5147191609	 0.3436501994	 0.0523921525	-0.050036
N	-3.784209195	-0.0835770862	 0.0612645112	-0.290887
C	-3.9746859979	-1.4018004722	 0.0138031477	 0.010086
C	-2.9429027273	-2.3333172451	-0.0430434984	-0.257536
C	-1.6327608219	-1.8645911825	-0.0509359298	 0.332333
O	-0.5476185603	-2.6821858868	-0.1044351445	-0.435447
H	 0.9007803251	 1.7635621127	 0.0401681822	 0.293005
H	 0.5278506677	-0.322398647	-0.916665889	 0.108079
H	 0.5636487808	-0.3926928278	 0.8439181683	 0.108099
H	-2.3630167473	 1.4165852555	 0.0914114814	 0.130944
H	-5.0076045575	-1.7425811721	 0.0211069957	 0.105793
H	-3.1554754204	-3.3980100225	-0.0802086971	 0.085741
H	-0.8399297257	-3.5996417894	-0.1348235661	 0.301771
57.218	172.1237	201.7759	215.0137	268.9899	332.4047	404.7546	444.2451	520.2451	524.2458	585.1897	621.6518	766.1273	792.544	828.4095	866.2471	952.2464	984.5593	1048.8062	1071.7557	1088.979	1158.6862	1199.2766	1232.4565	1234.0521	1251.2067	1317.2307	1330.956	1362.4028	1448.7423	1463.2093	1509.1028	1532.2093	1623.672	1648.5661	2963.9869	2980.9999	3149.211	3170.3199	3200.0729	3814.0734	3846.7842
OCC1=CN=CC=C1O	OCc1cnccc1O	
InChI=1S/C6H7NO2/c8-4-5-3-7-2-1-6(5)9/h1-3,8H,4H2,(H,7,9)	InChI=1S/C6H7NO2/c8-4-5-3-7-2-1-6(5)9/h1-3,8H,4H2,(H,7,9)
