21
gdb 108963	3.68927	1.232	1.12723	0.3112	87.64	-0.209	0.0243	0.2333	1191.251	0.18434	-349.934345	-349.926535	-349.92559	-349.966739	31.508	
C	-0.2467087924	 1.5303200673	-0.0176854744	-0.370717
C	 0.1007300223	 0.0311732161	 0.0101463413	-0.297954
C	 0.8231364282	-0.4309024916	-1.218901764	 0.341028
C	 2.0457011457	-0.9716201723	-1.3124844245	-0.210925
C	 2.329375901	-1.3561321557	-2.7240849745	-0.068051
C	 1.2552123264	-2.1583866997	-3.5079440837	-0.065664
C	-0.1131945349	-2.0698682945	-2.8450194918	-0.228671
C	 0.1626606905	-0.5330196078	-2.5851753009	-0.151493
C	 1.338473761	-0.6526172581	-3.609875225	-0.074943
H	 0.6605572697	 2.1382915392	-0.0874675486	 0.119908
H	-0.8796618714	 1.7789679397	-0.8757631087	 0.117159
H	-0.7854977503	 1.8233600068	 0.8888843907	 0.110056
H	 0.7116684229	-0.1854344755	 0.8938696212	 0.100107
H	-0.8294524997	-0.5429234696	 0.1303299598	 0.100979
H	 2.7228915195	-1.1601865932	-0.4875636697	 0.086031
H	 3.3451021786	-1.502339107	-3.073703502	 0.078512
H	 1.5686367462	-2.9099927334	-4.2230403527	 0.081774
H	-0.9025207482	-2.1985466094	-3.5902218698	 0.100045
H	-0.326119034	-2.694294447	-1.9702151468	 0.088557
H	-0.6642338586	 0.1464898218	-2.7881335976	 0.063381
H	 1.5731836474	-0.0030074662	-4.4445611083	 0.080881
74.0954	130.3063	198.2056	262.4763	327.8337	386.6341	496.2378	559.662	610.3158	719.039	744.9302	766.9946	789.7992	790.6857	830.9058	862.4433	879.5691	912.0384	953.9866	966.6851	977.4187	995.5911	1016.1733	1048.1309	1062.2763	1072.2626	1086.8077	1097.8882	1133.2395	1177.9323	1196.456	1228.0787	1252.1154	1268.977	1286.33	1317.7989	1351.6294	1355.1486	1376.1474	1408.2221	1477.4595	1488.1761	1497.7343	1506.1429	1686.6745	3002.1403	3035.2795	3035.5288	3056.424	3097.4629	3103.8206	3109.3197	3115.92	3172.3783	3173.2764	3187.6926	3199.2139
CCC1=CC2C3CC1C23	CCC1=C[C@H]2[C@H]3C[C@@H]1[C@@H]23	
InChI=1S/C9H12/c1-2-5-3-7-8-4-6(5)9(7)8/h3,6-9H,2,4H2,1H3	InChI=1S/C9H12/c1-2-5-3-7-8-4-6(5)9(7)8/h3,6-9H,2,4H2,1H3/t6-,7-,8+,9-/m0/s1
