16
gdb 23174	2.46018	1.62581	1.05456	2.0584	76.68	-0.2269	-0.038	0.189	1103.6029	0.12391	-437.834885	-437.827034	-437.82609	-437.867451	29.919	
O	-0.0626636438	 1.3098361291	 0.0047792437	-0.390477
N	 0.0328635673	-0.0840194647	-0.0863034195	-0.238352
C	-1.1166644544	-0.6407501302	-0.027651478	 0.319575
C	-2.4557712269	-0.0712720581	 0.0946648516	-0.148557
C	-3.3766876788	-1.0467856465	 0.0793594171	-0.084094
C	-2.7710305852	-2.4207056725	-0.0580530448	-0.361668
C	-1.265798345	-2.137639668	-0.0940202397	 0.359722
C	-0.2587458495	-3.0233947667	-0.6901863223	-0.23804
O	-0.4109817006	-2.9401391507	 0.7264856359	-0.265739
H	 0.8605158239	 1.5813953121	-0.0352618618	 0.309502
H	-2.6392327546	 0.9897688236	 0.180889382	 0.127314
H	-4.4470973699	-0.8913179126	 0.1501189891	 0.111908
H	-3.0140866534	-3.0734211521	 0.7885263713	 0.136721
H	-3.1232791579	-2.9303657759	-0.9635524344	 0.12265
H	-0.5735019883	-3.9634901564	-1.1434503862	 0.110139
H	 0.6539611872	-2.5822084706	-1.0864839739	 0.129395
69.0208	175.8578	193.7433	299.092	312.7014	333.4238	405.573	456.7593	508.6358	544.0736	654.2383	737.2209	801.8925	812.8566	833.9917	892.3996	945.0216	964.836	986.1928	988.5079	1023.0369	1103.1496	1130.6172	1153.0109	1170.3233	1178.2775	1268.6027	1282.8667	1362.302	1400.5961	1429.8669	1469.4439	1517.9364	1641.2778	1726.7133	3029.8106	3064.9253	3077.8533	3174.3033	3201.2435	3250.4161	3817.7924
ON=C1C=CCC11CO1	ON=C1C=CC[C@]21CO2	
InChI=1S/C6H7NO2/c8-7-5-2-1-3-6(5)4-9-6/h1-2,8H,3-4H2	InChI=1S/C6H7NO2/c8-7-5-2-1-3-6(5)4-9-6/h1-2,8H,3-4H2/t6-/m1/s1
