16
gdb 67636	2.48518	1.95453	1.60924	2.0061	66.75	-0.2226	0.0627	0.2854	888.1327	0.124368	-437.803298	-437.79616	-437.795216	-437.834325	29.063	
O	-0.1609156921	 1.3834066136	-0.0674581611	-0.461337
C	-0.0077548021	 0.0201021495	-0.0283867193	 0.333138
C	 0.9061892253	-0.8456292451	-0.9580070078	-0.139564
C	-0.1221355732	-1.9187901274	-0.9841100482	-0.139574
N	 1.1471243339	-2.1231018086	-0.2589630263	-0.117365
C	 0.9127405947	-1.9339029376	 1.1841999499	-0.170935
C	-0.1813392957	-0.8853959671	 1.1889453677	-0.256829
C	-1.0486478164	-1.0661187452	-0.0548558659	 0.333151
O	-2.4159102721	-0.96978828	-0.124775008	-0.461339
H	 0.5307856321	 1.7866449809	 0.4698590874	 0.288749
H	 1.5946883318	-0.4926072832	-1.7157299284	 0.098626
H	-0.4267415116	-2.602218788	-1.7670133676	 0.098614
H	 0.6078933165	-2.8854163004	 1.6326654918	 0.104283
H	 1.8390858284	-1.6007348282	 1.6640869252	 0.104271
H	-0.6407291815	-0.4668090586	 2.0765880947	 0.097366
H	-2.8020595379	-1.6913968446	 0.385062096	 0.288746
184.9403	245.5425	269.262	285.8637	357.1956	371.5533	426.2542	583.6841	602.9849	660.4665	748.8075	756.1882	770.9445	793.0575	844.4733	896.2127	900.3723	929.2336	955.0963	1005.5429	1029.8562	1066.8507	1081.7802	1133.539	1170.7474	1214.2572	1216.8325	1220.6633	1268.2614	1292.9454	1302.3831	1336.2833	1365.8515	1500.744	1532.5119	3042.381	3085.7339	3186.0218	3196.5616	3198.5254	3780.3678	3780.4673
OC12C3C4N3CC1C24O	O[C@@]12[C@@H]3[C@H]4N3C[C@@H]1[C@@]24O	
InChI=1S/C6H7NO2/c8-5-2-1-7-3(5)4(7)6(2,5)9/h2-4,8-9H,1H2	InChI=1S/C6H7NO2/c8-5-2-1-7-3(5)4(7)6(2,5)9/h2-4,8-9H,1H2/t2-,3-,4+,5+,6-,7?
