16
gdb 30379	3.19535	1.40786	1.10297	2.3552	84.28	-0.2357	-0.0755	0.1602	1106.7686	0.12527	-396.934812	-396.926877	-396.925933	-396.967634	29.071	
C	-0.1188044198	 1.3226516932	 0.4492080169	-0.331117
N	-0.0982244868	-0.1164175366	 0.2424603414	-0.284509
C	-1.1040357232	-0.6796746868	-0.2915506004	 0.298577
C	-1.0558947181	-2.1580783756	-0.5059388301	-0.011344
N	-1.9333149941	-2.9928412511	-0.0981887254	-0.182742
C	-3.1256484401	-2.637863509	 0.4868314649	 0.00425
C	-3.8633588994	-1.5259175506	 0.2327457831	-0.112911
C	-3.4253604229	-0.4250735823	-0.5910215345	-0.008851
N	-2.2199552738	-0.0448936781	-0.8407893728	-0.249589
H	 0.8897680999	 1.7139879113	 0.2845015023	 0.125662
H	-0.83061175	 1.8509000507	-0.1958604482	 0.129224
H	-0.3772260131	 1.5379531482	 1.4937112429	 0.129147
H	-0.1937452834	-2.5468523686	-1.049439858	 0.140872
H	-3.5508511951	-3.4201198471	 1.1110020285	 0.124135
H	-4.8884124011	-1.4973681919	 0.59112576	 0.108972
H	-4.2142702289	 0.1691182744	-1.0591051104	 0.120224
77.4991	101.3859	193.5436	234.8406	285.3116	335.1866	417.4449	439.077	521.5344	598.2465	656.7159	749.3878	807.5642	885.8405	887.1273	933.1552	969.62	992.473	995.1483	1041.5867	1062.2136	1118.089	1147.2816	1228.1567	1258.3211	1377.2208	1420.9023	1427.2009	1459.8016	1486.3344	1492.8923	1568.8344	1666.1107	1682.2521	1729.1581	3013.4966	3072.587	3095.6903	3097.4497	3125.8776	3156.5291	3177.8723
CN=C1C=NC=CC=N1	CN=c1cncccn1	
InChI=1S/C6H7N3/c1-7-6-5-8-3-2-4-9-6/h2-5H,1H3	InChI=1S/C6H7N3/c1-7-6-5-8-3-2-4-9-6/h2-5H,1H3
