17
gdb 34494	4.3691	1.00397	0.87361	1.756	87.31	-0.2303	-0.0294	0.201	1308.2097	0.135095	-384.656113	-384.647878	-384.646934	-384.689358	31.321	
C	 0.0453266708	-1.1896698862	 0.0423402261	-0.402573
C	-0.0233049112	 0.0135725985	 0.0286812727	 0.210112
C	-0.0446932284	 1.4276322202	 0.0228041689	 0.174562
C	-1.1227606125	 2.2151892791	-0.1218033147	-0.261046
C	-0.7540796967	 3.6494690925	-0.1003461861	 0.450004
C	-1.4658095232	 4.6802395476	-0.877017584	-0.252421
O	-1.6468386483	 4.579000917	 0.5348080797	-0.279956
C	 0.7331955875	 3.7084689977	 0.2626828163	-0.322656
C	 1.2337363825	 2.2468533313	 0.1556916415	-0.332973
H	 0.0887983821	-2.2505341005	 0.0532916628	 0.194358
H	-2.1425675955	 1.8753571535	-0.2500713639	 0.111734
H	-0.9172423145	 5.557635702	-1.2202449185	 0.113383
H	-2.3304009043	 4.4096678835	-1.4832235331	 0.11305
H	 1.2933423844	 4.3921742832	-0.3791942537	 0.11048
H	 0.8189360359	 4.0773578409	 1.2888757947	 0.129851
H	 1.8231490794	 1.9313947325	 1.0221693877	 0.121812
H	 1.869258462	 2.0934113771	-0.7242755562	 0.122278
57.123	108.4499	140.3946	280.8051	331.7299	342.4726	467.996	503.9328	529.836	544.1627	566.6258	605.7584	637.1824	767.9494	828.446	848.7434	893.0227	897.5305	919.4419	961.9377	990.9928	1054.2973	1127.7197	1135.8222	1163.789	1177.3433	1222.5593	1247.1132	1277.9777	1295.7958	1330.555	1412.5514	1479.6688	1498.805	1523.6496	1666.6076	2221.3003	3039.9124	3064.1123	3069.6195	3077.4209	3110.8789	3156.3067	3218.7972	3502.8385
C#CC1=CC2(CO2)CC1	C#CC1=C[C@]2(CO2)CC1	
InChI=1S/C8H8O/c1-2-7-3-4-8(5-7)6-9-8/h1,5H,3-4,6H2	InChI=1S/C8H8O/c1-2-7-3-4-8(5-7)6-9-8/h1,5H,3-4,6H2/t8-/m0/s1
