19
gdb 85007	2.16154	1.65941	1.0089	4.9794	79.72	-0.2595	-0.0281	0.2315	1205.629	0.15769	-423.103977	-423.094432	-423.093488	-423.13842	34.355	
C	-0.0596999798	 1.5548790928	 0.0097342755	-0.398118
C	 0.0641948889	 0.0325021067	 0.0226794109	 0.02687
O	 0.8650960998	-0.3904152374	-1.0867684306	-0.240221
C	 1.9264084167	-1.1292671192	-0.6337797256	 0.394544
O	 2.7497426948	-1.6007044432	-1.3693661828	-0.353485
C	 1.8384240504	-1.2161293648	 0.8457373499	 0.035364
C	 2.8718502045	-1.9712145008	 1.613242641	-0.4943
C	 0.7492855513	-0.5440033658	 1.2415930962	 0.200611
C	 0.200943194	-0.338622351	 2.6146218033	-0.50312
H	 0.9221612505	 2.0186893123	 0.1407665609	 0.130615
H	-0.4783982072	 1.8866683129	-0.9434380647	 0.139772
H	-0.7206087943	 1.8942319623	 0.8129641191	 0.12137
H	-0.9328097844	-0.4151588257	-0.1014649483	 0.10387
H	 2.9327808535	-3.0050235436	 1.2571202131	 0.148532
H	 3.8633273864	-1.5327122623	 1.4561142457	 0.147517
H	 2.6646780886	-1.9826071177	 2.6856728553	 0.121094
H	 0.7749578771	-0.8839200126	 3.3666119303	 0.138111
H	 0.2073995763	 0.7231818642	 2.8892284587	 0.142559
H	-0.8423856471	-0.6719602371	 2.6743841422	 0.138415
80.2113	111.7873	136.6807	143.4333	209.5576	246.3813	259.9776	292.3709	341.4525	415.3564	541.2206	557.0937	598.6754	659.379	723.2461	778.1557	851.0311	928.2737	976.6603	1014.1646	1058.9603	1071.0682	1077.1678	1114.3932	1126.8485	1149.3205	1203.3255	1328.5562	1346.946	1355.8287	1403.3973	1414.89	1419.6172	1472.7672	1478.3365	1481.5759	1486.0604	1490.2428	1496.1849	1738.9937	1858.9645	3001.6248	3026.1815	3039.4667	3044.7298	3073.6727	3092.7364	3120.0563	3123.764	3127.1622	3129.7953
CC1OC(=O)C(C)=C1C	C[C@H]1OC(=O)C(=C1C)C	
InChI=1S/C7H10O2/c1-4-5(2)7(8)9-6(4)3/h6H,1-3H3	InChI=1S/C7H10O2/c1-4-5(2)7(8)9-6(4)3/h6H,1-3H3/t6-/m1/s1
