19
gdb 64652	3.2017	1.26458	1.12788	5.2909	79.84	-0.2406	0.0334	0.274	1141.0731	0.16003	-381.997	-381.988653	-381.987709	-382.030672	31.766	
C	-0.1670167526	 1.5234243451	-0.2591602598	-0.486465
C	-0.0030334596	 0.0184511142	-0.0443314836	 0.378769
C	-1.4112467191	-0.541644909	 0.2830284138	-0.431563
C	-1.8951413684	-0.1295805686	 1.600253675	 0.288474
N	-2.2897753052	 0.1996578035	 2.6351388144	-0.314598
C	 0.9343716767	-0.8391951629	-0.9535444184	-0.119359
C	 2.0927372145	-0.1066320832	-0.2429791547	-0.179871
N	 1.1381003169	-0.4146929212	 0.9328648283	-0.162494
C	 1.0481272061	-1.7967633478	 0.2544456762	-0.180819
H	 0.7588985324	 2.0559507905	-0.465694541	 0.12933
H	-0.8443690074	 1.703168687	-1.1012097193	 0.12252
H	-0.6163429054	 1.9752526187	 0.630650847	 0.157238
H	-2.1124087389	-0.1598395116	-0.4680019793	 0.151174
H	-1.4702731869	-1.6289226346	 0.2236847452	 0.149886
H	 0.8194838122	-1.0773287329	-2.0178715227	 0.067493
H	 3.0401092962	-0.642784546	-0.1594888101	 0.108069
H	 2.2719994529	 0.948579391	-0.4318405917	 0.108257
H	 0.2028422675	-2.4080971845	 0.5640923772	 0.105243
H	 1.972888788	-2.3697058576	 0.3466259935	 0.108716
35.8235	116.3015	133.0488	212.8794	365.2887	372.6511	409.5527	436.6643	480.3376	566.1051	639.2202	691.3958	764.5996	783.199	830.153	896.0177	906.0832	918.9938	934.4795	966.8578	1008.5319	1054.0732	1061.8488	1099.4112	1109.1101	1149.3116	1177.1249	1192.0429	1206.322	1224.4131	1238.1505	1269.3845	1295.2421	1338.9756	1418.5767	1464.2913	1491.4788	1500.6271	1539.7049	1576.5299	2362.1763	3028.8192	3044.7902	3055.1482	3083.1784	3091.5001	3105.2447	3117.4959	3151.274	3155.1724	3175.4973
CC1(CC#N)C2CN1C2	C[C@@]1(CC#N)[C@H]2CN1C2	
InChI=1S/C7H10N2/c1-7(2-3-8)6-4-9(7)5-6/h6H,2,4-5H2,1H3	InChI=1S/C7H10N2/c1-7(2-3-8)6-4-9(7)5-6/h6H,2,4-5H2,1H3/t7-/m1/s1
