23
gdb 61298	4.23336	0.67009	0.65254	0.7332	92.31	-0.2569	0.0551	0.312	1816.3725	0.203645	-351.116087	-351.105632	-351.104688	-351.152142	38.888	
C	-0.2387213921	 1.5819851744	-0.0034335039	-0.394106
C	 0.0584605647	 0.0791075848	 0.0550405925	 0.041057
C	 0.7832287938	-0.3954515166	-1.2302013478	-0.363345
C	 0.0007905115	-0.2226388168	-2.4481326326	 0.300169
C	-0.663313283	-0.0809553957	-3.4405768838	-0.44279
C	 0.894690598	-0.3121276546	 1.2885197487	-0.211569
C	 0.2293327705	-0.0287153213	 2.6195406605	 0.021197
C	-0.7935045687	-0.9878474126	 3.1779496087	-0.254918
C	 0.5626328038	-0.8648154431	 3.8290840775	-0.27763
H	 0.6909365235	 2.1648289067	 0.0006625397	 0.107917
H	-0.7884975832	 1.8332078047	-0.9145175446	 0.129299
H	-0.8398138654	 1.904453888	 0.8510190358	 0.115979
H	-0.8966230401	-0.4592489272	 0.108612808	 0.086374
H	 1.7339242149	 0.1474193805	-1.3277575203	 0.124852
H	 1.0495193884	-1.4551409764	-1.1239830542	 0.12381
H	-1.240688068	 0.0411105572	-4.3230765506	 0.191633
H	 1.1239161326	-1.3851814102	 1.234394052	 0.086316
H	 1.8630011963	 0.2080025689	 1.2446202255	 0.092636
H	 0.0444937627	 1.0224092023	 2.8218416728	 0.085051
H	-1.6553125632	-0.585725985	 3.6989589214	 0.110146
H	-1.0015832722	-1.8910096323	 2.6127489192	 0.109077
H	 1.2620573095	-1.6848205793	 3.7006365085	 0.108844
H	 0.6286556456	-0.3751214963	 4.794438427	 0.110002
55.4423	59.4948	109.0923	116.0284	192.6067	232.045	286.8553	334.4857	350.6326	366.1877	411.0323	430.579	562.1207	612.0949	633.3897	774.6036	802.0749	823.3618	846.0458	879.3852	894.3731	923.4918	936.3565	982.2839	995.9119	1051.0073	1072.8661	1078.2351	1110.5897	1129.815	1141.9498	1190.2509	1199.0787	1226.891	1236.2329	1276.8824	1289.3352	1343.0789	1365.1219	1379.5364	1410.142	1421.8378	1466.4801	1470.2968	1482.9994	1496.7805	1505.1926	1508.9872	2234.9889	2995.6969	3007.506	3020.7937	3029.0362	3035.4461	3048.7065	3099.0735	3118.3856	3127.0124	3131.8201	3146.5552	3204.4016	3219.8429	3506.8659
CC(CC#C)CC1CC1	C[C@@H](CC#C)CC1CC1	
InChI=1S/C9H14/c1-3-4-8(2)7-9-5-6-9/h1,8-9H,4-7H2,2H3	InChI=1S/C9H14/c1-3-4-8(2)7-9-5-6-9/h1,8-9H,4-7H2,2H3/t8-/m0/s1
