15
gdb 24573	2.25287	2.05741	1.24759	0.8799	77.74	-0.2096	-0.0467	0.1628	978.547	0.113	-416.768695	-416.761109	-416.760165	-416.801164	28.19	
O	 0.5547376312	 1.1121414588	 0.6056709859	-0.23039
C	 1.3361075983	 2.0845262293	 0.0645611053	 0.045566
C	 1.256368347	 2.7870960108	-1.0737454559	-0.081793
N	 0.3737559237	 2.7667712091	-2.146624011	-0.184163
C	 0.2911315329	 1.8295352055	-3.0036334376	-0.028977
C	 1.0523353177	 0.5550435709	-3.0072374796	-0.028979
N	 0.915725341	-0.4191223773	-2.1997451099	-0.184159
C	-0.0344547472	-0.4856676136	-1.1882084857	-0.081784
C	-0.1886710293	 0.1658871593	-0.0274331135	 0.045556
H	 2.0562055888	 2.4076416097	 0.8075483166	 0.121141
H	 1.938551399	 3.6333789907	-1.1187518983	 0.119571
H	-0.3888490397	 1.9853749248	-3.8472505759	 0.123848
H	 1.7857737929	 0.43577026	-3.8110966644	 0.123851
H	-0.7111343743	-1.3280965108	-1.3147481493	 0.119572
H	-0.954899302	-0.1887591772	 0.6523433632	 0.12114
67.2377	129.2202	191.7659	236.3054	321.2105	390.9135	483.3931	540.102	633.3279	641.4728	753.9163	762.35	815.2911	846.5252	860.8587	873.2897	908.7284	913.8817	943.4921	964.7446	1039.1842	1073.2749	1185.5352	1329.4878	1371.977	1397.8896	1401.9266	1431.4059	1453.1614	1679.5713	1681.3876	1691.9518	1734.6408	3068.6452	3079.7541	3148.7023	3149.3152	3201.0523	3204.2265
O1C=CN=CC=NC=C1	o1ccnccncc1	
InChI=1S/C6H6N2O/c1-2-8-4-6-9-5-3-7-1/h1-6H/b5-3-,6-4-,7-1-,8-2-	InChI=1S/C6H6N2O/c1-2-8-4-6-9-5-3-7-1/h1-6H/b5-3-,6-4-,7-1-,8-2-
