19
gdb 62127	2.35091	1.04992	0.80735	3.298	74.14	-0.2467	0.0163	0.2629	1436.9534	0.158017	-456.297129	-456.287204	-456.286259	-456.333609	34.622	
O	 0.9268908831	 1.8875293925	 0.4167303491	-0.424687
C	 0.4865703607	 0.626497537	-0.0710278043	 0.081007
C	 1.3198062262	 0.2377022915	-1.3030398322	-0.11048
O	 0.7281462037	-0.8640235711	-1.9873733997	-0.177791
C	-0.0200324793	-0.5901526133	-3.0765100339	 0.127137
N	-0.761131522	-1.4823711789	-3.5714179516	-0.44065
C	 0.5082911534	-0.4320244392	 1.0116548109	-0.005089
C	-0.7171344951	-0.7355376561	 1.7913795013	-0.242913
N	-0.1757466935	-1.7173928169	 0.8419797886	-0.307342
H	 1.7123714051	 1.7447363643	 0.9559843171	 0.287624
H	-0.5481313228	 0.780078174	-0.4045755504	 0.091246
H	 1.4074278072	 1.1104445633	-1.9617674977	 0.114566
H	 2.3270291517	-0.0762105573	-1.0081932072	 0.115334
H	 0.114492423	 0.4353235796	-3.4496716799	 0.091994
H	-1.2243851432	-1.1281297147	-4.4055742251	 0.231995
H	 1.4792160222	-0.5228200748	 1.5053201993	 0.081542
H	-0.6440409136	-1.0208692295	 2.8369889264	 0.120069
H	-1.622510364	-0.1910915356	 1.5332732828	 0.115863
H	-0.6995667528	-1.727994245	-0.0292880734	 0.250574
35.9716	60.0971	85.119	116.5911	197.909	211.7607	254.002	324.2675	358.4612	370.1319	469.6812	527.4731	665.6857	790.4035	824.3372	867.1095	914.616	946.7512	954.6468	987.6022	1042.7976	1053.4477	1072.4784	1107.6211	1133.1453	1136.6022	1154.9782	1188.0194	1228.8533	1247.8872	1274.7647	1303.7354	1329.3287	1336.7023	1397.3699	1401.529	1420.024	1441.8058	1497.88	1513.1598	1743.9205	3014.6655	3027.7819	3030.1146	3071.5626	3085.9845	3105.7768	3190.604	3518.6298	3520.5019	3807.3228
OC(COC=N)C1CN1	O[C@@H](CO[CH][NH])[C@H]1CN1	
InChI=1S/C5H10N2O2/c6-3-9-2-5(8)4-1-7-4/h3-8H,1-2H2	InChI=1S/C5H10N2O2/c6-3-9-2-5(8)4-1-7-4/h3-8H,1-2H2/t4-,5+/m1/s1
