21
gdb 81431	3.24067	1.39842	1.32626	1.7459	81.4	-0.2445	0.0929	0.3374	1091.6431	0.18325	-387.053555	-387.04561	-387.044666	-387.085345	32.547	
C	-0.1395942411	 1.5476724393	 0.0121433827	-0.442433
C	-0.0078275521	 0.0297388063	 0.0294877682	 0.066034
C	 1.0715236121	-0.6080799546	-0.9022230883	-0.090765
C	 2.1135803565	-0.2713487535	 0.221720434	-0.235067
C	 0.885797464	-0.6022235215	 1.1415956239	-0.12565
C	 0.7773075863	-2.1259282973	 0.8477388945	 0.426483
C	 1.2876867765	-3.1511112897	 1.8150601086	-0.490576
O	-0.3365007693	-2.5080992599	 0.0134358248	-0.300436
C	 0.9001317698	-2.1184943355	-0.6119425334	-0.026972
H	 0.8126336718	 2.0778694865	 0.0999098997	 0.113855
H	-0.6140857928	 1.8755870379	-0.9195146748	 0.116399
H	-0.778404034	 1.8808955893	 0.8377493713	 0.116252
H	-0.9960778625	-0.4204952811	-0.0587417327	 0.094438
H	 1.2032073659	-0.2958682757	-1.9388431844	 0.059003
H	 2.9911782791	-0.920659959	 0.3018251418	 0.09058
H	 2.4281900974	 0.7723996788	 0.2469904262	 0.099962
H	 0.8317764197	-0.2836330894	 2.183858216	 0.055108
H	 0.6361161005	-3.215670523	 2.6939067194	 0.127056
H	 1.3265106717	-4.1385633274	 1.3478717835	 0.128952
H	 2.2917217605	-2.8874275106	 2.164616562	 0.123077
H	 1.3949237699	-2.8815196899	-1.2049702231	 0.094702
185.7763	198.897	203.4942	225.9275	294.6504	329.6179	423.7244	458.7449	514.1041	557.1803	632.8047	726.8473	782.2377	829.3686	844.1786	858.2752	870.8	899.2366	917.7222	975.8972	1004.1917	1012.2379	1037.9257	1066.4371	1087.706	1104.3471	1108.0154	1115.9873	1127.2452	1194.7773	1217.7997	1241.343	1261.273	1265.8086	1276.5562	1294.3444	1378.7234	1410.829	1414.9949	1453.732	1485.7205	1493.3715	1498.1722	1499.2104	1517.7265	3031.3518	3032.3053	3055.5745	3088.7591	3092.7021	3096.9909	3101.5064	3106.7513	3119.2894	3120.5405	3131.5144	3162.1204
CC1C2CC1C1(C)OC21	C[C@H]1[C@H]2C[C@@H]1[C@@]1(C)O[C@@H]21	
InChI=1S/C8H12O/c1-4-5-3-6(4)8(2)7(5)9-8/h4-7H,3H2,1-2H3	InChI=1S/C8H12O/c1-4-5-3-6(4)8(2)7(5)9-8/h4-7H,3H2,1-2H3/t4-,5+,6-,7-,8+/m0/s1
