19
gdb 36770	6.68743	0.59119	0.56581	1.6051	78.45	-0.2502	0.0489	0.2992	1909.4622	0.15694	-422.955318	-422.945641	-422.944697	-422.991497	33.81	
C	-0.0127365603	-1.1461052317	-0.3401191866	-0.445599
C	 0.0154656897	 0.0194149864	-0.0489422783	 0.285515
C	 0.0852577231	 1.4334496885	 0.2922976942	-0.350573
C	 1.4618288635	 2.0340642429	-0.010768573	-0.062938
O	 1.4185352727	 3.398658539	 0.3560092684	-0.24897
C	 2.6310376653	 4.0729961415	 0.1660969761	 0.090706
C	 2.965212393	 4.5829145627	-1.25889547	-0.09394
O	 3.0279451929	 5.9444648053	-0.7869011493	-0.271838
C	 2.5562428156	 5.5648309694	 0.5227904808	-0.098904
H	-0.0529428514	-2.1765861683	-0.5927459527	 0.198276
H	-0.6726223889	 1.9981000191	-0.2634365586	 0.142482
H	-0.1340981497	 1.5815123392	 1.3562710301	 0.141805
H	 2.2413838474	 1.5030251829	 0.5573471792	 0.104525
H	 1.694370505	 1.9178007914	-1.080012982	 0.106601
H	 3.457542847	 3.5297443861	 0.6449087469	 0.078495
H	 3.9129893627	 4.2587861604	-1.7034059791	 0.103879
H	 2.1474666558	 4.4268784188	-1.9753941209	 0.102699
H	 1.528405414	 5.8983970771	 0.7126105996	 0.111585
H	 3.2156153224	 5.9235786394	 1.3204127252	 0.106196
43.3186	64.7088	83.808	102.7805	143.075	212.4104	316.6806	354.5635	395.4003	461.2092	539.7139	625.2331	651.8389	742.281	798.9776	872.149	887.7967	966.2412	991.6344	1023.8375	1039.5419	1066.5778	1073.2767	1090.7404	1138.4514	1157.0817	1165.5637	1210.8588	1229.9541	1275.8913	1301.4957	1303.9008	1308.0002	1348.2854	1394.6986	1442.4607	1477.5243	1498.907	1524.3368	1527.1986	2242.8583	2980.0283	3005.1018	3007.2272	3015.4699	3024.9459	3036.4776	3066.2576	3074.5072	3076.5833	3507.033
C#CCCOC1COC1	C#CCCOC1COC1	
InChI=1S/C7H10O2/c1-2-3-4-9-7-5-8-6-7/h1,7H,3-6H2	InChI=1S/C7H10O2/c1-2-3-4-9-7-5-8-6-7/h1,7H,3-6H2
