18
gdb 37546	3.87682	1.71402	1.46568	2.0647	80.84	-0.2164	0.0076	0.224	922.3991	0.149798	-364.693537	-364.687299	-364.686355	-364.7237	26.837	
C	-0.0682239123	 1.630889983	-0.0842124108	-0.259899
C	 1.4024678764	 1.2086905961	-0.0383636142	-0.024818
N	 1.114234015	 0.1442147758	 1.0455574305	-0.197858
C	-0.074550788	 0.1043770682	 0.0138539543	-0.112058
C	 1.190500427	-0.0828037914	-0.8996594351	 0.327641
C	 1.8890874915	-0.329202173	-2.2256807493	-0.424758
C	 3.2687832519	-0.6890722003	-1.6402931791	-0.037921
C	 3.2700039222	-0.9328941824	-0.317771269	-0.138374
C	 1.8447778404	-0.9106795887	 0.1741787573	 0.002857
H	-0.4369990716	 2.1665378591	 0.7941251022	 0.107979
H	-0.4387152019	 2.0680800938	-1.0143509288	 0.098238
H	 2.3005971151	 1.8247083693	 0.0194199552	 0.082122
H	-0.9002711474	-0.5943059001	 0.1581211811	 0.083775
H	 1.4782954835	-1.1674765071	-2.8046805435	 0.11351
H	 1.9277463365	 0.5411675092	-2.889345452	 0.109635
H	 4.1468421798	-0.7523437357	-2.275550589	 0.097929
H	 4.1432763791	-1.230224046	 0.2518790215	 0.097042
H	 1.4581781528	-1.9148444599	 0.3935731887	 0.074957
214.5261	271.3581	298.7085	409.3786	493.8821	541.8088	675.1164	696.0859	709.7504	786.7815	821.5384	845.037	876.1368	892.6499	907.185	921.5582	930.0989	968.2069	994.1662	1011.5096	1023.5242	1035.2367	1070.6905	1084.7732	1124.3572	1136.6834	1168.3723	1174.4775	1196.444	1213.2263	1230.4686	1263.0956	1277.3724	1314.3519	1352.9269	1360.6486	1473.1784	1489.4074	1617.561	3015.5015	3018.0555	3059.6967	3069.3047	3104.048	3110.4841	3125.9465	3176.3987	3202.2075
C1C2N3C1C21CC=CC31	C1[C@H]2N3[C@@H]1[C@]12CC=C[C@@H]31	
InChI=1S/C8H9N/c1-2-5-8(3-1)6-4-7(8)9(5)6/h1-2,5-7H,3-4H2	InChI=1S/C8H9N/c1-2-5-8(3-1)6-4-7(8)9(5)6/h1-2,5-7H,3-4H2/t5-,6-,7+,8-/m1/s1
