15
gdb 79226	2.67986	1.66852	1.33001	3.657	69.65	-0.2742	-0.0084	0.2658	962.6855	0.113676	-416.756986	-416.749739	-416.748795	-416.788583	27.992	
O	-0.0899859515	 1.503255896	-0.0637654807	-0.424705
C	-0.0442949025	 0.1075716948	-0.0720434175	 0.091336
C	-1.36261771	-0.6202398482	-0.1578849467	-0.072203
C	-1.7448703609	-0.7504318257	-1.5925048697	-0.039027
C	-0.6894029262	-0.0774561107	-2.45144936	-0.276328
C	 0.2885297824	-0.6462796829	-1.4015344493	 0.174068
C	 1.6412337288	-1.0096151377	-1.7262745367	 0.162493
N	 2.7407928053	-1.2713237986	-1.9720846601	-0.332136
N	-0.7692707713	-1.7321559023	-0.9971223434	-0.179876
H	 0.7777964091	 1.8449590898	 0.175735752	 0.298685
H	 0.5664076361	-0.302495844	 0.7403961918	 0.107805
H	-2.0463066187	-0.8392150261	 0.6525642109	 0.111923
H	-2.7359728546	-1.0706924449	-1.8890520877	 0.114976
H	-0.5746127919	-0.5854122126	-3.4104585456	 0.1331
H	-0.7065295842	 1.006836683	-2.5773902272	 0.129889
130.9347	163.6324	224.7047	296.587	311.1932	436.0933	492.5791	541.9296	579.2176	625.5882	724.6586	777.4549	813.0624	829.8096	868.0291	963.7032	1002.2686	1007.7687	1039.2842	1043.0923	1088.0235	1103.0114	1148.0113	1176.443	1213.2671	1241.6181	1258.2581	1309.4126	1339.0375	1375.9299	1447.7028	1485.8171	2350.1744	3050.3874	3077.827	3141.4026	3194.8741	3206.78	3818.5477
OC1C2C3CC1(C#N)N23	O[C@H]1[C@H]2[C@H]3C[C@]1(C#N)N23	
InChI=1S/C6H6N2O/c7-2-6-1-3-4(5(6)9)8(3)6/h3-5,9H,1H2	InChI=1S/C6H6N2O/c7-2-6-1-3-4(5(6)9)8(3)6/h3-5,9H,1H2/t3-,4-,5+,6-,8?/m1/s1
