17
gdb 11428	4.59577	1.35071	1.20771	4.6836	65.33	-0.238	0.0385	0.2765	1027.0657	0.142882	-401.035107	-401.027177	-401.026232	-401.067836	28.713	
C	 0.2822059473	 1.0358368603	-0.3119712107	-0.239975
O	-0.0817110574	-0.2705940314	 0.0703851792	-0.24155
C	-1.476092568	-0.4740181307	 0.1998005591	 0.124405
C	-2.1609023792	-0.7059658283	-1.176930972	-0.186297
N	-2.1118568539	-2.145408122	-1.3238447862	-0.297899
C	-1.8767616673	-2.8464213228	-0.170894064	 0.412684
O	-1.8549241662	-4.0515097692	-0.0603754521	-0.379987
C	-1.6797691768	-1.8030685588	 0.9332470957	-0.353774
H	 1.3737961836	 1.0721040677	-0.331172493	 0.134841
H	-0.0913983688	 1.3063355187	-1.3111963938	 0.104825
H	-0.0872945269	 1.7845052951	 0.4062937043	 0.107851
H	-1.929509483	 0.3793310913	 0.7224640958	 0.070348
H	-3.1922561745	-0.3242415495	-1.1724260219	 0.104285
H	-1.6176221839	-0.1972097671	-1.9794318925	 0.116274
H	-2.3436189078	-2.629792163	-2.1758689836	 0.251372
H	-0.8262807413	-2.0506225986	 1.5649294244	 0.144428
H	-2.5780827161	-1.7878530117	 1.5588610012	 0.128167
68.1956	115.6804	146.6484	205.2091	294.6286	366.7221	413.0187	468.7008	507.512	591.1875	684.0869	768.0014	825.7267	883.0298	889.0686	956.2515	1032.1954	1068.6539	1093.8581	1142.2352	1177.773	1185.9266	1208.5024	1257.5207	1259.4538	1264.9645	1304.9093	1370.4861	1387.969	1447.3555	1449.4933	1479.9923	1491.8883	1508.9805	1519.8558	1836.8065	2974.2367	2991.9186	3011.1412	3021.3914	3068.2856	3071.443	3119.0181	3139.6604	3648.5096
COC1CNC(=O)C1	CO[C@H]1CNC(=O)C1	
InChI=1S/C5H9NO2/c1-8-4-2-5(7)6-3-4/h4H,2-3H2,1H3,(H,6,7)	InChI=1S/C5H9NO2/c1-8-4-2-5(7)6-3-4/h4H,2-3H2,1H3,(H,6,7)/t4-/m1/s1
