19
gdb 26227	3.73734	1.06741	0.88641	2.5608	79.63	-0.1956	0.0256	0.2212	1347.8353	0.159334	-419.25155	-419.242188	-419.241244	-419.286109	34.37	
C	-0.033300786	 1.2348661031	-0.4667940383	-0.386803
C	 0.0099673466	-0.1870040774	 0.1283734287	-0.091233
C	 0.7084676248	-0.2115133706	 1.4922549599	-0.376543
C	-1.3643015617	-0.7687488195	 0.2311530161	 0.40197
N	-2.0414296151	-1.1210097867	 1.2702508425	-0.304803
C	-3.269552738	-1.5657009354	 0.7795710804	-0.200881
C	-3.2579799811	-1.4607434928	-0.5740360798	 0.332099
N	-4.1142219365	-1.8203130446	-1.6032633805	-0.597893
O	-2.0513728612	-0.9552133619	-0.94990539	-0.213986
H	 0.9819153202	 1.6192256931	-0.6063717283	 0.113753
H	-0.5387434396	 1.2432510771	-1.4361359748	 0.121891
H	-0.5669832314	 1.9171121273	 0.2032398573	 0.122757
H	 0.5782801022	-0.8179960954	-0.5697486567	 0.094983
H	 0.1628339194	 0.3993155248	 2.2167936054	 0.131179
H	 0.761432916	-1.2266669646	 1.8924403055	 0.127282
H	 1.7247971235	 0.1830648489	 1.3998983192	 0.105149
H	-4.0525387753	-1.9234672665	 1.4277267251	 0.105619
H	-5.0562924991	-1.9887426701	-1.2775950687	 0.258147
H	-4.1177175678	-1.1526714289	-2.3649954129	 0.257314
36.2694	130.2127	168.3934	184.4028	219.0825	251.6921	287.8004	311.0705	370.9807	436.276	493.8213	633.5049	661.6737	702.5512	729.0512	762.1535	779.2831	886.6527	932.6471	963.1291	975.5026	1012.3278	1098.01	1108.0592	1116.7582	1149.4162	1173.987	1223.9984	1288.4325	1335.9627	1361.9596	1394.7788	1418.6799	1426.3963	1485.7303	1487.8814	1498.3793	1510.9462	1619.9492	1634.1255	1676.2494	3004.3536	3035.6529	3046.5464	3106.1343	3117.89	3118.2428	3127.4872	3267.5916	3537.762	3639.497
CC(C)C1=NC=C(N)O1	CC(C)c1ncc(N)o1	
InChI=1S/C6H10N2O/c1-4(2)6-8-3-5(7)9-6/h3-4H,7H2,1-2H3	InChI=1S/C6H10N2O/c1-4(2)6-8-3-5(7)9-6/h3-4H,7H2,1-2H3
