20
gdb 10296	2.10348	1.72104	1.21222	1.3248	76.52	-0.2607	0.0532	0.3139	1107.517	0.173959	-348.972911	-348.962814	-348.96187	-349.0076	36.563	
C	 0.7190568374	-0.3476781927	 1.3115384493	-0.40006
C	 0.1016315602	-0.1379793471	-0.0762025387	 0.041252
C	 0.979100581	-0.7586481122	-1.170182537	-0.397966
C	-1.3671466127	-0.6574364201	-0.1052981518	-0.153099
C	-2.1355981507	-0.2343579711	-1.3701611107	-0.099449
O	-2.1216348127	 1.1831279613	-1.4277625466	-0.419374
C	-1.460260785	-2.1062433645	 0.0628134289	 0.332504
C	-1.5395444249	-3.3008522556	 0.1782378958	-0.480355
H	 1.7285317545	 0.0736463078	 1.3539643437	 0.108656
H	 0.1215469565	 0.1359446331	 2.0919226268	 0.108675
H	 0.788238208	-1.413391393	 1.5544706417	 0.124485
H	 0.026955607	 0.9380625214	-0.2642595481	 0.09755
H	 1.0337857971	-1.8468206287	-1.061187791	 0.124709
H	 0.6035906262	-0.5371350108	-2.1737693232	 0.111313
H	 1.9976284804	-0.3621643022	-1.1090432677	 0.109744
H	-1.8877262599	-0.1819033439	 0.7379302472	 0.109221
H	-1.668099343	-0.6818324692	-2.2588767861	 0.099755
H	-3.1619218364	-0.6238542718	-1.3060343579	 0.098468
H	-2.571288226	 1.456865024	-2.2320689642	 0.290429
H	-1.6127367169	-4.3538590346	 0.2937727797	 0.193542
53.594	116.7317	142.0799	176.3785	214.4887	224.9663	242.4133	267.656	332.8644	356.9791	407.0018	483.9559	532.2989	604.1665	623.7173	644.5461	744.3763	904.7363	932.8217	964.7838	970.4623	1026.5443	1042.3256	1080.0024	1117.433	1170.9644	1199.0975	1232.9102	1251.7739	1299.7642	1328.7273	1358.221	1381.7365	1402.5081	1421.4213	1449.4599	1488.8228	1493.3158	1503.5477	1511.1825	1527.3823	2230.0636	2991.0031	3005.1641	3027.8144	3030.165	3036.6511	3057.4008	3097.3151	3100.5986	3103.7576	3109.9977	3504.1502	3836.9518
CC(C)C(CO)C#C	CC(C)[C@@H](CO)C#C	
InChI=1S/C7H12O/c1-4-7(5-8)6(2)3/h1,6-8H,5H2,2-3H3	InChI=1S/C7H12O/c1-4-7(5-8)6(2)3/h1,6-8H,5H2,2-3H3/t7-/m1/s1
