19
gdb 84840	2.3103	1.84509	1.23845	2.2034	76.03	-0.2521	0.014	0.2661	1055.7813	0.159422	-423.028932	-423.020646	-423.019702	-423.061409	32.548	
C	-0.4820587133	 1.3350750403	 0.1175428089	-0.476257
C	 0.1083684478	-0.0488669599	-0.0016763138	 0.359442
O	-0.5598077254	-1.0694090058	 0.7696763294	-0.306399
C	 0.7754130443	-0.6980979901	 1.1389477276	 0.00496
C	 1.8484023711	-1.7446933509	 0.958767597	-0.303902
C	 1.9520860449	-2.2577991966	-0.4490340722	-0.067028
C	 1.3288693841	-1.7090561116	-1.4884478913	-0.076179
C	 0.4149842865	-0.5160169187	-1.4198103215	 0.021525
O	-0.8103830754	-0.7789439327	-2.1061629424	-0.43895
H	 0.25156418	 2.0963924604	-0.1692464208	 0.119761
H	-1.3456907987	 1.4284357004	-0.5474097678	 0.141844
H	-0.8047334649	 1.5284136515	 1.1434488357	 0.124426
H	 0.8251591776	-0.1398832097	 2.0754062181	 0.08509
H	 2.8108676961	-1.3172747016	 1.2763066338	 0.118038
H	 1.6575073913	-2.5772123434	 1.6501864721	 0.12213
H	 2.5840010758	-3.1296690102	-0.5999309415	 0.093268
H	 1.4391836025	-2.1314838538	-2.4837966188	 0.097203
H	 0.8650330861	 0.3194911677	-1.9724082511	 0.091395
H	-1.2595332705	-1.4550306152	-1.5826145014	 0.289633
87.8961	192.2278	234.7288	241.5491	263.7054	325.3892	387.9903	445.3214	459.9515	515.9069	520.9708	616.8958	695.6672	757.5418	792.993	874.4504	882.243	902.5818	943.9838	998.334	1009.5294	1035.6404	1061.8526	1071.4824	1100.8168	1129.3813	1194.1871	1218.5779	1252.0836	1261.504	1329.0051	1369.3602	1375.213	1405.1475	1412.5931	1426.8851	1462.0838	1470.2979	1488.5088	1504.7684	1732.5024	3004.5672	3022.3733	3030.7584	3039.28	3094.3691	3107.5288	3127.8673	3149.3199	3173.4194	3776.9969
CC12OC1CC=CC2O	C[C@]12O[C@H]1CC=C[C@H]2O	
InChI=1S/C7H10O2/c1-7-5(8)3-2-4-6(7)9-7/h2-3,5-6,8H,4H2,1H3	InChI=1S/C7H10O2/c1-7-5(8)3-2-4-6(7)9-7/h2-3,5-6,8H,4H2,1H3/t5-,6+,7-/m1/s1
