18
gdb 115691	1.95011	1.74702	1.09483	4.921	68.15	-0.2472	0.0139	0.2611	1134.3174	0.147715	-476.223103	-476.214262	-476.213318	-476.257478	31.84	
C	-0.4853201921	 1.2074841197	-0.2837728511	-0.263538
O	 0.3600861927	 0.1276668835	 0.0974658229	-0.237487
C	 0.9558526611	-0.5307292308	-0.9748589512	 0.136698
C	 2.0284103098	-1.5442793311	-0.5180094185	-0.196582
N	 1.1867832638	-2.6792847039	-0.9926370807	-0.342395
H	 1.6396232997	-3.3056973747	-1.6475109929	 0.235674
H	-0.345916801	-3.2756933206	-0.0333760994	 0.304721
C	 0.183142057	-1.7591799094	-1.5893284215	-0.19198
C	-1.2253280286	-2.000691317	-1.0432327062	 0.454961
O	-1.2775488913	-2.9703980944	-0.1277877495	-0.362968
O	-2.185914388	-1.3716504949	-1.4059491322	-0.352302
H	 0.08271385	 1.966847092	-0.8418968071	 0.103774
H	-1.3286072994	 0.8618653437	-0.8902829432	 0.153972
H	-0.8603547808	 1.6517428078	 0.6402489174	 0.132673
H	 1.294430828	 0.183674855	-1.7363214679	 0.078876
H	 2.9886296813	-1.4433892626	-1.0329881721	 0.112219
H	 2.1949912667	-1.5526693078	 0.562439743	 0.130314
H	 0.1368384609	-1.7456632144	-2.6821440697	 0.103371
42.3704	118.4211	139.852	164.5903	200.2404	276.2342	294.2125	402.7879	466.5266	512.1516	602.0885	687.1821	769.8862	795.3512	832.0893	873.9294	937.4406	969.9927	1001.9795	1024.0964	1046.1164	1096.1139	1143.735	1156.1577	1186.9292	1207.3488	1234.7096	1255.9375	1271.7893	1289.7628	1336.7916	1372.4406	1397.3487	1438.8275	1482.5418	1491.8665	1504.8668	1515.3797	1858.2782	2993.1538	3015.2828	3049.2217	3071.515	3084.6215	3104.8007	3135.01	3438.4666	3549.1173
COC1C[NH2+]C1C([O-])=O	CO[C@H]1CN[C@H]1C(=O)O	
InChI=1S/C5H9NO3/c1-9-3-2-6-4(3)5(7)8/h3-4,6H,2H2,1H3,(H,7,8)	InChI=1S/C5H9NO3/c1-9-3-2-6-4(3)5(7)8/h3-4,6H,2H2,1H3,(H,7,8)/t3-,4+/m0/s1
