23
gdb 72642	1.9513	1.8702	1.55981	0.1155	89.79	-0.2339	0.0284	0.2623	1065.6772	0.206263	-351.171054	-351.162332	-351.161388	-351.20351	35.479	
C	 0.3242942446	 1.4441539411	-0.2945506136	-0.481198
C	-0.0261934626	-0.0059743168	 0.0068961153	 0.320827
C	 0.6496874735	-1.0288039832	-0.9624763721	-0.264766
C	 1.6202852074	-1.4754121934	 0.161353954	-0.264577
C	 0.7439299678	-0.7133213617	 1.2025200442	 0.279005
C	 1.4894467319	 0.1143080661	 2.2452864821	-0.47144
C	-0.3425962906	-1.5689608703	 1.8064661195	-0.123235
C	-1.5512680946	-1.3255040583	 1.3010566524	-0.073854
C	-1.5335821589	-0.2495258896	 0.2415883484	-0.331123
H	 1.4008440784	 1.5808539854	-0.4449470008	 0.1103
H	-0.1773403066	 1.7781029465	-1.2107233836	 0.112356
H	 0.0124212106	 2.1119911891	 0.5162736358	 0.112397
H	-0.0318409962	-1.822840569	-1.278416894	 0.098156
H	 1.1116420063	-0.5974894367	-1.8549093302	 0.090745
H	 1.7390802481	-2.5516393373	 0.3140418655	 0.09149
H	 2.6156198915	-1.0307816433	 0.0619981677	 0.09155
H	 2.2246752601	 0.7793139074	 1.780316936	 0.110438
H	 0.8031494538	 0.7278037388	 2.8391325892	 0.1139
H	 2.0312505659	-0.5394537995	 2.9394541898	 0.11155
H	-0.1279707079	-2.2942106726	 2.5864864731	 0.084963
H	-2.464715004	-1.8232501277	 1.6104900314	 0.08808
H	-2.0543732964	 0.6562069605	 0.586347751	 0.095625
H	-2.0414387923	-0.5580198454	-0.6822271412	 0.098808
109.8667	212.7252	233.9329	239.0192	267.9608	276.0995	336.1977	349.9198	445.8444	466.8223	540.8668	635.6876	651.6542	741.3341	759.8503	767.0696	869.3956	890.4186	914.457	943.3357	959.0011	963.952	975.8904	978.4892	985.8358	1037.133	1089.1514	1121.2813	1166.9542	1169.8036	1193.2697	1223.7104	1234.7299	1246.8469	1253.5289	1276.8931	1284.1363	1342.8439	1375.5958	1403.3982	1413.7715	1476.3322	1483.0947	1487.3455	1488.846	1495.1401	1501.4603	1502.9455	1682.2019	2995.1189	3019.4093	3022.8145	3028.901	3043.4468	3054.4406	3082.0341	3085.2359	3088.7502	3090.8683	3097.7615	3109.6843	3162.6301	3191.7214
CC12CCC1(C)C=CC2	C[C@@]12CC[C@]1(C)C=CC2	
InChI=1S/C9H14/c1-8-4-3-5-9(8,2)7-6-8/h3-4H,5-7H2,1-2H3	InChI=1S/C9H14/c1-8-4-3-5-9(8,2)7-6-8/h3-4H,5-7H2,1-2H3/t8-,9+/m0/s1
