19
gdb 110715	2.60806	1.46543	1.18478	1.9739	76.31	-0.2237	0.017	0.2406	1114.2842	0.158959	-422.973507	-422.96517	-422.964226	-423.006392	32.198	
C	 0.1202316596	 1.3311357986	 0.2179124067	-0.244166
O	-0.3341273646	 0.0614621527	-0.1920156312	-0.247767
C	 0.4604219747	-0.5171905208	-1.1764795358	 0.196065
C	 1.8235401183	-1.2370200783	-0.8196984099	-0.194946
C	 1.3605589942	-2.2739873049	 0.1928333872	-0.08279
C	 0.2191582906	-2.7398625284	-0.328612455	-0.07804
C	 0.065126912	-1.9525822305	-1.6302901272	-0.15262
C	 1.5431728397	-2.0659060803	-2.1474095697	 0.14638
O	 1.7474470868	-1.4162004948	-3.376324944	-0.440634
H	 1.1062104562	 1.2777292578	 0.7037904539	 0.105551
H	 0.1919549779	 2.0315198333	-0.6291339022	 0.104101
H	-0.6045771416	 1.7198202352	 0.9372033654	 0.126002
H	 0.5906085258	 0.1646666872	-2.0260685406	 0.084665
H	 2.7586802535	-0.7003366149	-0.6593574327	 0.054394
H	 1.8715031932	-2.5590773347	 1.1013354547	 0.097253
H	-0.4524539406	-3.5025107603	 0.0375005367	 0.100098
H	-0.7866951174	-2.1445069712	-2.2808379351	 0.068205
H	 1.9555827494	-3.0812751397	-2.1399912148	 0.072754
H	 2.6795987022	-1.490070166	-3.6037025061	 0.285497
74.6772	166.0912	181.4634	247.4637	275.2761	296.0096	331.7299	410.246	512.0845	555.7367	587.4859	718.4185	775.0005	823.3702	864.0267	884.3516	909.1709	927.0303	934.4896	961.8861	995.7733	1054.5009	1091.1478	1098.9846	1131.4424	1154.2971	1179.4862	1180.5698	1194.6085	1220.2707	1242.8931	1256.9418	1260.5581	1287.6009	1340.055	1400.3552	1421.7051	1483.8195	1489.3794	1509.2181	1619.5058	2974.0038	3021.3114	3036.9149	3041.4792	3114.1604	3116.3433	3133.6421	3221.2689	3248.2444	3818.5317
COC1C2C=CC1C2O	CO[C@H]1[C@H]2C=C[C@@H]1[C@H]2O	
InChI=1S/C7H10O2/c1-9-7-4-2-3-5(7)6(4)8/h2-8H,1H3	InChI=1S/C7H10O2/c1-9-7-4-2-3-5(7)6(4)8/h2-8H,1H3/t4-,5+,6-,7-
