18
gdb 47642	2.50052	1.5372	1.08987	4.1232	82.88	-0.2318	-0.0411	0.1908	1126.8661	0.150336	-401.985698	-401.977795	-401.976851	-402.018257	30.565	
O	 0.0717169628	-0.0032087005	-0.3127246566	-0.380623
C	 0.0148041169	 1.1993716546	-0.1097693659	 0.371736
N	-1.1692885531	 1.8335013641	 0.1340582194	-0.301016
C	-1.4114722721	 3.2629257629	 0.2036778741	-0.180875
C	-1.421427505	 3.8099974118	 1.6321534062	-0.250524
C	-0.1256394712	 3.757508693	 2.3888416212	-0.041263
C	 1.1151424731	 3.4132514284	 2.0164317316	-0.08295
C	 1.6954140477	 2.9154153771	 0.763876091	-0.082041
C	 1.2570409948	 2.0239390906	-0.1377361428	-0.182998
H	-1.9636013528	 1.2102170665	 0.1486203859	 0.244924
H	-0.6572681761	 3.780642995	-0.3934002551	 0.13489
H	-2.3809953506	 3.4674495744	-0.2634650055	 0.110899
H	-1.7593419161	 4.8575168851	 1.6058653249	 0.113053
H	-2.1877630316	 3.2791164148	 2.2148169915	 0.113221
H	-0.2230766625	 4.1113166622	 3.4143966523	 0.095604
H	 1.8805589777	 3.5654997455	 2.7772528134	 0.096916
H	 2.713721025	 3.2726501509	 0.6085938725	 0.103076
H	 1.9326020631	 1.7193490535	-0.9312124182	 0.117971
82.163	116.888	232.1581	283.2662	317.9546	362.6053	418.5996	482.7553	548.9969	582.1056	617.1054	674.3412	750.285	771.9354	808.1081	838.2163	892.7505	899.6983	960.9602	1015.9157	1021.4517	1038.2158	1083.6583	1123.929	1243.6522	1255.614	1264.893	1316.8722	1349.4892	1407.5285	1409.9985	1431.7254	1455.508	1458.7222	1480.4016	1492.8382	1681.2394	1712.139	1763.9828	2994.8354	3021.6268	3048.6612	3109.3903	3110.4996	3123.0044	3142.4646	3181.2279	3609.6461
O=C1NCCC=CC=C1	O=C1NCCC=CC=C1	
InChI=1S/C7H9NO/c9-7-5-3-1-2-4-6-8-7/h1-3,5H,4,6H2,(H,8,9)/b2-1-,5-3-	InChI=1S/C7H9NO/c9-7-5-3-1-2-4-6-8-7/h1-3,5H,4,6H2,(H,8,9)/b2-1-,5-3-
