19
gdb 74544	3.22987	1.50604	1.3589	1.7979	81.75	-0.2154	0.0132	0.2286	1032.1884	0.159384	-385.765426	-385.75805	-385.757106	-385.796803	30.316	
C	 0.0363843617	 1.4751969655	-0.0045072454	-0.518947
C	 0.0296413285	-0.0137957704	 0.0047939266	 0.372638
C	 0.0582954168	-0.9174241574	-0.9758618721	-0.215388
C	 0.0341974112	-2.2867868545	-0.2708287388	 0.168787
C	-1.0725944341	-3.1833778766	-0.8862357026	-0.187667
O	-2.0722174022	-2.3724969906	-0.1479804791	-0.314071
C	-0.9918167965	-2.0728492658	 0.7974192227	 0.161058
C	-0.0301324114	-0.8959014261	 1.2508285278	-0.209269
C	 1.093747238	-2.0094814606	 0.8848985161	-0.309359
H	 0.8952517483	 1.8817849984	 0.5450919637	 0.124203
H	 0.0730262739	 1.864269565	-1.0259348197	 0.126903
H	-0.8622275187	 1.8791686322	 0.4791323782	 0.130946
H	 0.1019881274	-0.7791260493	-2.0481343954	 0.090101
H	-1.2337488665	-3.1232900032	-1.9663454707	 0.113051
H	-1.0935938752	-4.2246210008	-0.5440187946	 0.106516
H	-1.0272254822	-2.8392869626	 1.5823388756	 0.077641
H	-0.0686104322	-0.4327277762	 2.2387407291	 0.066929
H	 1.1992819341	-2.8019737452	 1.6305984174	 0.10697
H	 2.0655783791	-1.6095511621	 0.5884136614	 0.108959
147.3095	178.0604	260.6177	315.3071	328.2725	400.2437	488.6018	538.6736	569.718	646.4943	730.1436	769.4058	794.83	821.216	853.6847	881.8994	895.0608	916.3483	971.9371	976.4001	1001.4532	1009.0855	1062.3007	1068.7682	1106.4044	1121.283	1139.1322	1182.0672	1193.6523	1197.4075	1228.402	1261.798	1283.7187	1322.4915	1396.4124	1413.6028	1477.5221	1482.5667	1487.4746	1500.7768	1704.7559	3014.0684	3015.1977	3030.5203	3058.6155	3059.1381	3099.9087	3100.2567	3107.4167	3134.319	3216.9292
CC1=CC23COC2C1C3	CC1=C[C@]23CO[C@@H]2[C@H]1C3	
InChI=1S/C8H10O/c1-5-2-8-3-6(5)7(8)9-4-8/h2,6-7H,3-4H2,1H3	InChI=1S/C8H10O/c1-5-2-8-3-6(5)7(8)9-4-8/h2,6-7H,3-4H2,1H3/t6-,7+,8-/m0/s1
