23
gdb 97916	4.43791	0.55173	0.51502	1.2329	92.41	-0.238	0.0548	0.2928	2253.8118	0.202631	-388.275787	-388.26402	-388.263075	-388.315611	40.923	
C	 0.6600421715	 0.9139818806	-0.5471945875	-0.362977
C	-0.3905437476	 0.4308362129	 0.4693760564	-0.313885
C	 0.1978365537	-0.2390854134	 1.624778973	 0.128196
C	 0.7107369766	-0.7885308348	 2.5658788379	 0.023636
C	 1.3168278741	-1.4727970227	 3.7013512017	-0.394951
C	 1.9672768207	-2.8269309573	 3.3392784476	 0.149772
O	 2.9553119457	-2.6797097442	 2.3289601687	-0.421144
C	 2.5272729035	-3.5273047742	 4.5848128876	-0.180509
C	 3.1235976254	-4.902646771	 4.2783121333	-0.385697
H	 1.2499782281	 0.0736466164	-0.9227028186	 0.131788
H	 0.1741993568	 1.4036696643	-1.3966979398	 0.110701
H	 1.3476274272	 1.6276728663	-0.0850006861	 0.124205
H	-0.9917750635	 1.2847731775	 0.8080547227	 0.124373
H	-1.0929360214	-0.2504490157	-0.0282322023	 0.126297
H	 2.083336373	-0.8313334433	 4.1628821801	 0.111039
H	 0.5633095193	-1.6430305872	 4.4817810855	 0.125131
H	 1.2018637909	-3.4647212521	 2.8807268532	 0.095569
H	 3.616227221	-2.0562284716	 2.6512184207	 0.27639
H	 3.2933627144	-2.8788442357	 5.0356193574	 0.084047
H	 1.7280584431	-3.6191686253	 5.3312851918	 0.095153
H	 3.567454691	-5.3510605409	 5.1721032524	 0.108556
H	 2.355620046	-5.5892290167	 3.9053422041	 0.115001
H	 3.8961495104	-4.8218206319	 3.5094870904	 0.129312
7.3335	46.4496	67.1162	111.8141	139.7115	193.0132	220.0127	241.0969	267.8826	302.145	313.5572	341.4633	409.9281	457.8477	513.9199	562.7375	745.4167	780.1352	785.492	853.0233	909.4663	960.3139	992.6734	1015.1738	1071.2752	1079.9072	1104.5422	1110.1084	1139.4525	1168.1188	1193.7391	1267.3168	1286.2146	1288.9503	1349.824	1354.6702	1361.0759	1384.589	1406.3727	1407.8694	1424.1263	1463.7689	1476.0134	1482.8237	1494.1805	1495.626	1506.0189	1509.6444	2369.2276	2988.917	2999.2731	3016.0128	3032.1521	3037.7516	3039.6762	3042.0388	3042.653	3057.2006	3102.0082	3115.023	3123.1673	3123.6796	3792.0707
CCC#CCC(O)CC	CCC#CC[C@@H](O)CC	
InChI=1S/C8H14O/c1-3-5-6-7-8(9)4-2/h8-9H,3-4,7H2,1-2H3	InChI=1S/C8H14O/c1-3-5-6-7-8(9)4-2/h8-9H,3-4,7H2,1-2H3/t8-/m0/s1
