16
gdb 124423	3.33786	1.14552	0.97761	4.7867	74.45	-0.2581	0.0049	0.263	1206.4104	0.126205	-396.970424	-396.962162	-396.961217	-397.004472	29.886	
C	-0.0262859663	 1.5664886951	 0.0223089527	-0.389363
C	 0.0925871687	 0.0234627578	 0.0070385115	-0.238679
C	 0.7011140376	-0.4292275394	-1.2497050874	 0.276057
N	 1.1880132205	-0.7618303256	-2.2435600705	-0.332469
C	 0.8572683342	-0.4993370195	 1.1988798879	 0.347655
N	 0.1896456734	-0.8264203635	 2.3033313147	-0.29217
N	 1.1471570987	-1.1923635661	 3.1746072429	-0.183427
C	 2.3962233173	-1.1142391683	 2.6573411889	-0.012835
C	 2.2517584345	-0.6615044925	 1.3639861546	-0.279066
H	 0.9627987869	 2.0295512462	-0.0172246956	 0.137636
H	-0.6108073346	 1.9189396952	-0.8313644155	 0.134702
H	-0.5207249464	 1.8755305789	 0.9459070964	 0.139304
H	-0.9160493445	-0.4013983985	 0.0574057765	 0.14494
H	 0.8763380579	-1.5002853697	 4.0931351908	 0.279889
H	 3.2674266314	-1.3861757604	 3.2317972633	 0.141154
H	 3.0297727107	-0.4904852396	 0.6383501488	 0.126671
26.1144	115.0044	169.5178	204.1589	235.439	348.7949	384.8854	482.594	522.3014	568.4449	665.3013	708.0391	738.0339	780.1219	855.5251	866.8433	949.2971	976.6655	1008.6102	1072.0067	1078.1993	1106.784	1121.398	1199.5826	1290.708	1304.453	1321.9099	1403.4746	1410.5327	1470.539	1491.0113	1493.0869	1499.7035	1570.8356	2359.6878	3051.0742	3058.0631	3131.3333	3138.2342	3261.9059	3281.3072	3675.9165
CC(C#N)C1=NNC=C1	C[C@@H](C#N)c1n[nH]cc1	
InChI=1S/C6H7N3/c1-5(4-7)6-2-3-8-9-6/h2-3,5H,1H3,(H,8,9)	InChI=1S/C6H7N3/c1-5(4-7)6-2-3-8-9-6/h2-3,5H,1H3,(H,8,9)/t5-/m0/s1
