18
gdb 34948	3.47885	1.52965	1.32805	4.2526	79.12	-0.2896	0.034	0.3236	987.4751	0.15127	-364.796395	-364.789835	-364.788891	-364.827222	27.232	
N	-0.0443668975	-1.1347620883	-0.0693239477	-0.340062
C	-0.0028475318	 0.0188387835	-0.000228307	 0.262317
C	 0.0484552598	 1.4744869401	 0.0636978445	-0.125227
C	-0.3551388404	 2.0903148075	 1.4330528003	-0.058929
C	 0.6702896714	 1.4382241981	 2.3970254202	-0.251997
C	 1.6798902807	 2.2977508481	 1.6246523025	-0.017136
C	 0.5786170712	 3.3816615782	 1.3938088394	-0.031093
C	 1.1039580913	 3.6090760185	-0.0304439918	-0.252501
C	 1.472779692	 2.1049646856	 0.0572063937	-0.052936
H	-0.5530233609	 1.8645092345	-0.7631892563	 0.117573
H	-1.4186543116	 2.139960431	 1.6601975796	 0.079842
H	 0.5548338818	 1.8086001992	 3.4194333549	 0.104308
H	 0.7573168046	 0.3488250571	 2.4043124742	 0.125225
H	 2.6874522119	 2.5278118637	 1.9668938386	 0.075611
H	 0.3554932763	 4.1751865441	 2.1053111625	 0.077146
H	 0.4284540166	 3.9319268378	-0.8294109323	 0.095463
H	 1.9891185426	 4.2509892381	-0.0156198037	 0.106227
H	 2.221814762	 1.6450984731	-0.5844603016	 0.086169
145.9429	159.8206	366.2556	426.7166	431.9446	488.5036	554.8857	678.5227	721.2219	782.7315	828.0092	834.9281	838.4704	872.6719	926.7765	936.7966	972.1203	997.9321	1006.3678	1009.1268	1037.5332	1062.5386	1073.098	1082.8852	1122.5258	1153.7115	1186.248	1198.665	1213.2841	1242.024	1252.664	1271.5107	1282.135	1295.835	1314.8027	1361.0599	1498.6308	1499.8926	2352.3246	3043.6749	3060.2079	3063.9124	3103.4881	3116.0578	3124.6566	3130.111	3135.2365	3141.5922
N#CC1C2CC3C2CC13	N#C[C@H]1[C@H]2C[C@@H]3[C@H]2C[C@H]13	
InChI=1S/C8H9N/c9-3-8-6-1-4-5(6)2-7(4)8/h4-8H,1-2H2	InChI=1S/C8H9N/c9-3-8-6-1-4-5(6)2-7(4)8/h4-8H,1-2H2/t4-,5-,6+,7+/m1/s1
