19
gdb 89011	3.25022	1.06154	0.87833	4.9347	73.39	-0.2346	-0.034	0.2006	1355.4648	0.155797	-460.14777	-460.138083	-460.137139	-460.183103	35.027	
C	-0.0121049333	 0.925889201	 0.6129657574	-0.478048
C	-0.1713901325	-0.5184157396	 0.1828798147	 0.368992
O	 0.6337672512	-1.3678222032	 0.494182284	-0.287978
C	-1.4091691233	-0.8105393075	-0.6681923816	-0.179026
O	-1.6130067143	-2.1426059004	-1.0298664885	-0.228676
C	-2.1818764583	-2.9502729697	-0.0314199985	 0.08105
C	-2.3468294995	-4.40286717	-0.3627556771	-0.345263
C	-1.3199415517	-3.9819800429	 0.6666408688	 0.093751
O	 0.009647771	-4.104193308	 0.3053748285	-0.433451
H	 0.9959264091	 1.088300759	 0.9954929423	 0.155558
H	-0.2196299555	 1.6154163696	-0.2115870968	 0.141977
H	-0.7340015641	 1.148680788	 1.4077257507	 0.153904
H	-2.2860487173	-0.3822111922	-0.1509308776	 0.111096
H	-1.2942698696	-0.2395824642	-1.5999900524	 0.138927
H	-2.9706161869	-2.4520339076	 0.5337786741	 0.080049
H	-3.2552852395	-4.9096480343	-0.0570129436	 0.10929
H	-1.9272982285	-4.7186745007	-1.3113197403	 0.134502
H	-1.5432587306	-4.1822822023	 1.7163697668	 0.07644
H	 0.3866196037	-3.208717825	 0.2972143691	 0.306907
57.0193	69.0498	90.3525	153.4887	197.0581	257.9479	279.186	342.5435	408.275	460.5652	483.5159	543.4504	624.2083	643.514	763.663	793.2394	804.5959	856.0227	864.743	961.3588	999.7833	1044.178	1078.095	1101.6567	1116.4335	1139.8556	1161.3795	1173.805	1209.4461	1250.8231	1313.0546	1370.5117	1383.4988	1391.7817	1405.5538	1434.7341	1450.3371	1463.3889	1475.2499	1477.4353	1810.1797	2958.7838	3037.0968	3041.3665	3073.81	3090.9803	3101.7577	3137.9211	3156.5779	3233.6464	3649.9779
CC(=O)COC1CC1O	CC(=O)CO[C@H]1C[C@H]1O	
InChI=1S/C6H10O3/c1-4(7)3-9-6-2-5(6)8/h5-6,8H,2-3H2,1H3	InChI=1S/C6H10O3/c1-4(7)3-9-6-2-5(6)8/h5-6,8H,2-3H2,1H3/t5-,6+/m1/s1
