23
gdb 113784	3.261	0.94135	0.8758	1.3308	86.99	-0.2415	0.0746	0.3162	1478.493	0.204586	-388.263079	-388.253168	-388.252224	-388.298037	37.933	
C	-0.0902978237	 1.6421989971	-0.1769462048	-0.375228
C	 0.0523140012	 0.1577391836	 0.1820979005	-0.217025
C	-1.2800882226	-0.5688047919	 0.1426673897	 0.008443
C	-1.7497527072	-1.2916930251	-1.1005393249	-0.30994
C	-1.4567519401	-2.074205198	 0.1558590927	-0.068943
C	-0.34329166	-3.0840485234	 0.2208749806	 0.3986
O	 0.7812407498	-2.8295874507	-0.5862558852	-0.466617
C	-0.1012873254	-3.8313241925	 1.5111999753	-0.327031
C	-0.7043811361	-4.5394489639	 0.3136386348	-0.29216
H	 0.8773208699	 2.1531604507	-0.1508834625	 0.108281
H	-0.5094192003	 1.7626350578	-1.1812142295	 0.121292
H	-0.7574498846	 2.1553610087	 0.5244510961	 0.113175
H	 0.749974523	-0.3100747227	-0.5192700212	 0.099485
H	 0.4969493866	 0.0700290735	 1.1833678529	 0.090593
H	-2.0590625003	-0.038442131	 0.6884624193	 0.076387
H	-2.7777225099	-1.1846709329	-1.429531906	 0.103464
H	-1.0253566056	-1.3946505049	-1.9019766878	 0.124461
H	-2.3292743544	-2.4101973652	 0.7113129874	 0.076403
H	 1.3591954064	-2.2311744108	-0.1021387244	 0.283145
H	 0.9270742232	-4.0695047808	 1.7610522323	 0.109884
H	-0.7373448522	-3.6139540367	 2.3627652513	 0.110953
H	-1.7536114118	-4.8117610981	 0.3439925252	 0.111643
H	-0.0667316958	-5.2269649625	-0.2293399718	 0.120733
50.7265	85.3053	137.4919	191.4804	231.8527	249.7443	285.9042	333.4543	358.9724	405.4769	412.5419	502.6471	601.619	698.277	761.8045	773.8885	811.3508	845.7562	874.6479	909.6013	920.795	961.3614	967.6619	987.2076	996.955	1048.1513	1051.3964	1073.779	1075.0081	1096.8464	1128.4036	1148.2705	1189.0213	1201.6972	1233.663	1256.6868	1300.3824	1303.3542	1337.3607	1361.4655	1407.0462	1417.9337	1432.9676	1453.6131	1485.0806	1496.3292	1497.9154	1503.037	1512.2667	3008.8847	3031.186	3071.7472	3099.4023	3105.3687	3113.	3127.3385	3129.1328	3132.1152	3139.6394	3214.0189	3217.419	3232.865	3812.7012
CCC1CC1C1(O)CC1	CC[C@H]1C[C@H]1C1(O)CC1	
InChI=1S/C8H14O/c1-2-6-5-7(6)8(9)3-4-8/h6-7,9H,2-5H2,1H3	InChI=1S/C8H14O/c1-2-6-5-7(6)8(9)3-4-8/h6-7,9H,2-5H2,1H3/t6-,7+/m0/s1
