17
gdb 84641	2.77347	1.81837	1.17892	3.7819	76.	-0.2122	-0.008	0.2041	1027.8691	0.137386	-418.023741	-418.01577	-418.014826	-418.056699	29.63	
C	-0.1368767199	 1.4996627282	-0.0270186174	-0.346596
N	-0.0777363354	 0.0439732738	-0.0102750334	-0.13513
C	-0.0205640742	-0.6494645699	-1.2242450414	 0.027122
C	 0.0680502336	-1.9783863261	-1.3055730997	-0.160836
C	 0.0567250919	-2.7678088495	-0.0570157802	-0.061147
C	 1.2303673763	-2.8067576847	 0.8768623232	-0.25284
N	 0.0443849246	-2.0076509529	 1.1992352616	-0.159974
C	 0.1459988116	-0.5955315272	 1.2043637248	 0.437393
O	 0.3648520824	 0.0140419389	 2.2258541275	-0.366161
H	 0.8258543861	 1.941410403	-0.311944813	 0.130936
H	-0.9019384966	 1.8287537085	-0.7361974376	 0.127813
H	-0.3899434981	 1.8432263638	 0.9742995138	 0.170761
H	-0.0417070018	-0.0113046215	-2.1002263757	 0.118901
H	 0.1010166182	-2.4745458212	-2.2666573772	 0.103422
H	-0.6071952944	-3.6317601423	-0.039767232	 0.108143
H	 1.3936397105	-3.6664181072	 1.5201912196	 0.128789
H	 2.128139735	-2.2766033336	 0.5709673372	 0.129405
74.6602	83.3864	154.7326	255.4615	303.1112	352.5281	448.1644	518.869	546.4793	559.6022	678.1873	727.9332	785.2906	805.113	863.6992	890.4068	939.8669	982.7054	1034.5582	1059.2603	1092.6051	1109.9568	1128.935	1155.6425	1165.3969	1198.1214	1256.8119	1330.1314	1354.2688	1396.8988	1430.725	1463.1176	1494.8276	1503.2214	1514.5592	1725.9962	1799.0171	3026.4085	3090.7047	3103.4942	3110.6921	3171.8375	3194.1854	3203.6604	3220.3613
CN1C=CC2CN2C1=O	CN1C=C[C@H]2CN2C1=O	
InChI=1S/C6H8N2O/c1-7-3-2-5-4-8(5)6(7)9/h2-3,5H,4H2,1H3	InChI=1S/C6H8N2O/c1-7-3-2-5-4-8(5)6(7)9/h2-3,5H,4H2,1H3/t5-,8?/m0/s1
