12
gdb 130806	8.30008	0.6654	0.61602	4.7029	80.19	-0.262	-0.0775	0.1845	1640.5664	0.078171	-431.641345	-431.633701	-431.632756	-431.674847	26.059	
O	-0.1291031546	-0.0109973917	 2.2194*^-6	-0.233172
C	-0.0233713923	 1.1954256265	 0.0083566282	-0.000358
C	 1.2283656312	 1.9007323322	-0.0004173854	 0.148991
C	 2.2683961557	 2.5196032739	-0.0074144864	 0.009811
C	 3.4859362595	 3.2222361878	-0.0156596912	 0.186148
C	 4.7741399801	 2.7172920623	-0.0341299829	-0.181961
N	 5.5513646775	 3.8141190087	-0.0344080284	-0.153952
N	 4.8121163475	 4.9497817352	-0.0171754452	-0.101844
N	 3.569456605	 4.5995735837	-0.0058759087	-0.247439
H	-0.9122365845	 1.8576185767	 0.0237420564	 0.106117
H	 5.1585026601	 1.7119499586	-0.046306626	 0.172162
H	 6.5574183046	 3.8806187162	-0.0452829298	 0.295498
67.0298	74.2086	116.0813	208.5557	265.5963	417.2293	520.5994	524.7046	599.017	697.6442	707.7344	740.8077	830.7925	967.0797	976.8948	1018.9145	1022.0273	1066.7564	1131.0455	1263.0841	1305.0632	1366.9613	1420.1961	1489.6204	1567.6421	1757.2818	2317.5213	2926.6282	3294.106	3652.1941
O=CC#CC1=CNN=N1	O=CC#Cc1c[nH]nn1	
InChI=1S/C5H3N3O/c9-3-1-2-5-4-6-8-7-5/h3-4H,(H,6,7,8)	InChI=1S/C5H3N3O/c9-3-1-2-5-4-6-8-7-5/h3-4H,(H,6,7,8)
