16
gdb 26634	3.24334	1.26245	0.91832	5.9079	79.16	-0.2223	-0.0014	0.2209	1208.9619	0.125507	-396.991012	-396.981885	-396.980941	-397.02641	32.244	
C	-0.0788508237	 1.4952784862	 0.0584778146	-0.515139
C	-0.0104828801	 0.0015557954	 0.0262903278	 0.136701
C	 0.0103792041	-0.8049883228	-1.0902412761	 0.186055
N	-0.0133199071	-0.5513534307	-2.4795103132	-0.614762
N	 0.0754484705	-2.1188139487	-0.665275851	-0.251806
C	 0.0957535911	-2.1810994713	 0.6892711906	-0.17489
C	 0.0454530815	-0.8789203325	 1.1606210697	 0.089009
C	 0.0457616788	-0.4883472781	 2.5207653855	 0.196324
N	 0.0444272081	-0.1439085098	 3.6277930816	-0.363039
H	 0.8056220164	 1.9317511758	 0.5357757376	 0.141969
H	-0.1481255189	 1.9015834856	-0.9547931462	 0.107289
H	-0.9497595919	 1.8471940444	 0.6221095577	 0.143039
H	 0.7332006584	 0.0724929188	-2.7653822119	 0.250824
H	-0.8901978231	-0.1391293849	-2.7808395176	 0.250244
H	 0.1113188834	-2.896841398	-1.3025139384	 0.270917
H	 0.1431403124	-3.1145589893	 1.2245739194	 0.147265
16.8178	96.1536	127.7286	133.2786	250.7104	261.3258	292.3866	416.5212	509.1968	513.2825	577.3295	592.3192	653.5616	693.289	697.1126	758.7717	764.765	788.3682	946.8011	1064.3377	1101.2871	1114.3853	1204.1312	1216.8536	1243.0664	1351.9374	1408.324	1423.9994	1473.5612	1484.1442	1494.1642	1542.2227	1624.1734	1662.495	2337.886	3030.9231	3084.0411	3107.2057	3277.7795	3507.259	3575.3275	3672.1722	16.8135	96.1537	127.7287	133.2786	250.7105	261.3258	292.3866	416.5212	509.1967	513.2826	577.3293	592.3191	653.5615	693.2885	697.1124	758.7716	764.7663	788.3681	946.801	1064.3375	1101.2873	1114.3851	1204.1309	1216.8534	1243.0665	1351.9375	1408.3239	1423.9992	1473.5613	1484.1439	1494.164	1542.2227	1624.173	1662.4948	2337.8856	3030.9231	3084.0412	3107.2057	3277.7796	3507.2591	3575.3276	3672.1723
CC1=C(N)NC=C1C#N	Cc1c(N)[nH]cc1C#N	
InChI=1S/C6H7N3/c1-4-5(2-7)3-9-6(4)8/h3,9H,8H2,1H3	InChI=1S/C6H7N3/c1-4-5(2-7)3-9-6(4)8/h3,9H,8H2,1H3
