18
gdb 69868	2.6757	1.6561	1.18925	1.7605	83.59	-0.2044	0.0362	0.2405	1064.3335	0.146025	-364.701308	-364.693003	-364.692059	-364.733608	33.188	
C	-0.0796503107	 1.5316992334	 0.0883060711	-0.522029
C	 0.0713185075	 0.04623516	 0.0372571356	 0.278787
N	-0.84436148	-0.8927114439	 0.7257376889	-0.377738
C	 0.6228567797	-0.9376518506	 0.9872308115	-0.114392
C	 1.3051291465	-1.7362004664	-0.1531086321	-0.11606
C	 0.3384396121	-2.1882118068	-1.2016131126	-0.339879
C	 0.7356337052	-0.7227394949	-1.1716426472	 0.145807
C	 1.4033205855	-0.0601849743	-2.232912158	 0.194641
C	 1.962792557	 0.5296270076	-3.1227442224	-0.419076
H	 0.8310473269	 2.0252920178	-0.2640761763	 0.140801
H	-0.9060267708	 1.8668110648	-0.5494297683	 0.133258
H	-0.2800804139	 1.8676911965	 1.1113254053	 0.11465
H	-1.2687172836	-0.3789730758	 1.4978436536	 0.227067
H	 1.0198844584	-0.801976629	 1.9849046612	 0.096242
H	 2.3289572396	-2.0813814459	-0.1040783905	 0.10602
H	 0.7824526515	-2.7405553828	-2.0227860335	 0.122494
H	-0.6710921682	-2.468720701	-0.9311970686	 0.147785
H	 2.4545789076	 1.0399389913	-3.9128305777	 0.181622
124.8051	133.9258	205.8763	238.4027	296.9328	401.2761	431.9055	473.4297	507.8267	528.6829	542.1699	592.3297	639.6289	654.8433	775.5051	793.3642	840.7613	861.9489	891.9167	932.4698	940.5504	991.8258	999.9977	1022.3062	1046.2156	1102.1809	1112.3538	1127.1476	1182.7483	1252.4085	1272.0503	1324.3375	1344.2112	1408.6155	1445.8155	1460.3271	1478.6476	1500.138	2222.2498	3027.167	3090.1657	3108.1889	3146.5573	3195.5586	3210.7051	3242.5366	3470.3383	3504.2768
CC12NC1C1CC21C#C	C[C@]12N[C@H]1[C@H]1C[C@@]21C#C	
InChI=1S/C8H9N/c1-3-8-4-5(8)6-7(8,2)9-6/h1,5-6,9H,4H2,2H3	InChI=1S/C8H9N/c1-3-8-4-5(8)6-7(8,2)9-6/h1,5-6,9H,4H2,2H3/t5-,6+,7+,8-/m1/s1
