17
gdb 30257	2.67165	1.56198	1.0345	1.6878	78.85	-0.1746	0.041	0.2156	1127.6757	0.137543	-417.99141	-417.983179	-417.982235	-418.024242	31.278	
N	-0.0873194686	 1.4228445567	 0.2080728235	-0.610152
C	-0.011271219	 0.0342403806	-0.0034191707	 0.074206
C	-1.0269761626	-0.8513540498	-0.3131519243	 0.288058
C	-2.4556477029	-1.3386228972	-0.3151110652	-0.079746
O	-3.2127253947	-0.9623553944	-1.4439029815	-0.424511
C	-1.8164577542	-2.7937568518	-0.3252268219	-0.198476
N	-0.5057384662	-2.1235716221	-0.352096254	 0.008546
C	 0.8127171557	-2.1193143243	-0.0373294588	-0.147683
C	 1.1562708508	-0.7812882556	 0.138207035	-0.195966
H	 0.7891564441	 1.8873741909	 0.0074311425	 0.238979
H	-0.816370368	 1.8553626136	-0.3443436397	 0.244319
H	-3.0125738455	-1.1372807418	 0.6103541189	 0.084869
H	-4.1288744329	-1.2156053999	-1.2891885736	 0.282534
H	-1.9939449048	-3.3899751711	 0.5754055327	 0.117389
H	-2.0356264255	-3.3780157916	-1.2233127884	 0.119047
H	 1.4224438098	-3.0082624355	-0.0151079202	 0.115858
H	 2.1561929845	-0.4144525765	 0.3237229955	 0.082727
92.1586	122.9024	189.0719	213.0846	289.9422	320.1157	382.482	455.3007	533.2673	616.225	633.1566	665.3618	706.9909	754.0569	762.5068	785.6685	802.8401	850.9911	1005.2331	1034.5646	1046.8335	1086.4195	1122.5024	1153.3929	1181.1095	1215.8309	1246.3557	1263.3159	1297.7544	1347.0412	1411.6354	1428.5136	1455.7388	1489.4385	1508.1414	1640.0839	1659.0379	3003.1003	3044.0662	3104.7615	3226.168	3263.0291	3535.3457	3622.9535	3805.9115
NC1=C2C(O)CN2C=C1	Nc1c2[C@@H](O)Cn2cc1	
InChI=1S/C6H8N2O/c7-4-1-2-8-3-5(9)6(4)8/h1-2,5,9H,3,7H2	InChI=1S/C6H8N2O/c7-4-1-2-8-3-5(9)6(4)8/h1-2,5,9H,3,7H2/t5-/m0/s1
