12
gdb 29118	3.12992	1.51092	1.02017	5.0383	60.73	-0.2329	-0.0658	0.1671	1042.2863	0.076367	-509.782632	-509.774929	-509.773985	-509.815476	27.734	
O	 0.0211291104	 1.3617719347	 0.3285169477	-0.407872
C	-0.059823111	 0.0378495024	 0.1231522079	 0.350586
C	-1.1546416642	-0.5993876205	-0.2749728583	-0.118997
O	-1.1929138742	-1.979726174	-0.3751043548	-0.198986
C	-0.0875652392	-2.7308525606	-0.1527075477	 0.389654
O	-0.1294843166	-3.9192620281	-0.25014012	-0.280244
C	 1.184613535	-1.9858795436	 0.2232536114	 0.246853
N	 2.2601562886	-2.6175717537	 0.3815670646	-0.446661
O	 1.1092736981	-0.6173074247	 0.4005996655	-0.247799
H	 0.9453713493	 1.6288061512	 0.2481756016	 0.314258
H	-2.085605364	-0.1180536718	-0.5220252041	 0.158526
H	 3.0222966778	-1.9859641114	 0.6353494961	 0.240682
64.0619	107.1416	170.2014	329.9406	337.7274	379.139	435.2344	468.7503	495.9844	598.7638	618.8837	676.8011	749.9566	790.2455	812.7742	918.0295	965.4575	1049.0171	1142.1323	1154.5085	1245.043	1309.337	1332.5528	1383.0689	1749.1382	1809.0653	1868.6551	3281.012	3480.9344	3797.706
OC1=COC(=O)C(=N)O1	OC1=COC(=O)[C]([NH])O1	
InChI=1S/C4H3NO4/c5-3-4(7)8-1-2(6)9-3/h1,5-6H	InChI=1S/C4H3NO4/c5-3-4(7)8-1-2(6)9-3/h1,5-6H
