17
gdb 105158	2.1585	1.3339	0.94999	3.1743	75.14	-0.2865	-0.0657	0.2208	1246.0537	0.134469	-418.009087	-417.99979	-417.998846	-418.04358	32.893	
C	 0.569052432	 1.5124359441	 0.4217602079	-0.387925
C	-0.1148825299	 0.1838275879	 0.0763180956	-0.274604
C	 0.390272279	-0.3937722586	-1.228432045	 0.222686
N	 1.7365858575	-0.9673576441	-1.2491697059	-0.334844
C	 0.6097489349	-1.8825753914	-1.4325251774	-0.235388
C	 0.3303638874	-2.8179583935	-0.370564152	 0.343492
N	 0.0728336043	-3.5689141128	 0.4697579034	-0.329434
C	-0.0348825424	 0.2947165691	-2.4956328948	 0.105886
O	 0.5562788592	 0.1658793957	-3.5404761408	-0.262963
H	 1.6507281828	 1.3739797053	 0.5028633108	 0.14409
H	 0.3826731971	 2.2765011629	-0.3413389165	 0.117832
H	 0.200311647	 1.8999876581	 1.3751265672	 0.127576
H	 0.0529045444	-0.5412919446	 0.8769612866	 0.140278
H	-1.2014225215	 0.3201323491	 0.0001040499	 0.110917
H	 2.144318413	-0.7865681066	-2.168578096	 0.25935
H	 0.4188990536	-2.2648642741	-2.4316893397	 0.150815
H	-0.9376877684	 0.9338689936	-2.4121839033	 0.102235
76.8682	108.1982	122.4472	160.612	206.5826	232.5867	265.7393	330.8309	357.8221	424.3933	570.874	591.1399	639.6819	763.0404	779.4047	807.6964	920.4529	960.4118	985.9668	998.5788	1038.3242	1088.1254	1110.577	1122.0357	1239.4971	1243.0002	1316.6609	1330.6502	1379.0566	1411.4798	1417.86	1439.971	1480.711	1498.088	1506.8719	1804.6908	2360.2655	2927.9909	3033.4938	3037.6403	3091.6546	3111.1195	3125.2346	3154.3532	3452.343
CCC1(NC1C#N)C=O	CC[C@]1(N[C@H]1C#N)C=O	
InChI=1S/C6H8N2O/c1-2-6(4-9)5(3-7)8-6/h4-5,8H,2H2,1H3	InChI=1S/C6H8N2O/c1-2-6(4-9)5(3-7)8-6/h4-5,8H,2H2,1H3/t5-,6-/m0/s1
