20
gdb 59606	3.02024	1.10782	1.00297	4.7909	75.01	-0.2594	0.0556	0.3149	1282.6918	0.171679	-440.349762	-440.340633	-440.339689	-440.383963	33.819	
C	-0.090320104	 1.5392766072	 0.0805609337	-0.39727
C	 0.039702592	 0.0161029486	-0.0689617577	 0.005946
C	 0.6111792344	-0.351112634	-1.4458264379	-0.398172
C	 0.8566879345	-0.5615010246	 1.0918177403	 0.143652
C	 0.9061608821	-2.1019877443	 1.2089223547	-0.218337
N	 2.2658100193	-2.2804148176	 1.6782932638	-0.364076
C	 3.057229952	-1.1966543746	 1.3599174619	 0.470387
O	 4.2525278079	-1.1145235099	 1.4049668526	-0.390796
O	 2.2389159412	-0.1687687128	 0.9796595655	-0.253506
H	 0.89395284	 2.0152625113	 0.0338908389	 0.141154
H	-0.7079436475	 1.9573177308	-0.7198965389	 0.113964
H	-0.5501696658	 1.8094062949	 1.0370223617	 0.11187
H	-0.9634943032	-0.4253682469	 0.0251710026	 0.078297
H	 1.6210429837	 0.0514777188	-1.5629550325	 0.142812
H	 0.6584406439	-1.432571333	-1.6064271301	 0.111405
H	-0.0165757538	 0.0690843736	-2.2370780608	 0.117007
H	 0.4797783611	-0.1446373707	 2.0351024949	 0.091607
H	 0.1681446838	-2.4705017534	 1.9271668016	 0.120809
H	 0.7263932658	-2.5960533741	 0.2449255046	 0.11188
H	 2.7132593828	-3.1819950293	 1.7037710312	 0.261366
66.2688	85.2794	161.9614	207.2717	228.3612	254.4996	293.8161	343.5511	433.496	485.4982	516.8712	590.1991	659.7306	733.4703	773.0762	825.4448	900.915	929.4273	956.7679	967.8097	1013.1456	1025.7307	1070.7709	1090.7521	1141.564	1156.554	1207.4883	1220.1932	1228.4303	1315.6577	1337.9436	1350.2001	1387.7196	1402.2694	1404.9199	1427.1741	1439.249	1487.6664	1496.1718	1505.4453	1515.046	1535.7768	1892.3109	2999.0034	3012.3027	3018.8459	3035.7126	3043.6788	3078.0845	3103.4438	3106.7366	3114.6453	3123.5666	3656.2538
CC(C)C1CNC(=O)O1	CC(C)[C@H]1CNC(=O)O1	
InChI=1S/C6H11NO2/c1-4(2)5-3-7-6(8)9-5/h4-5H,3H2,1-2H3,(H,7,8)	InChI=1S/C6H11NO2/c1-4(2)5-3-7-6(8)9-5/h4-5H,3H2,1-2H3,(H,7,8)/t5-/m1/s1
