20
gdb 106665	2.75636	1.18647	1.00762	0.6872	75.2	-0.2459	0.0664	0.3124	1249.7499	0.169777	-440.240425	-440.230855	-440.229911	-440.274843	35.78	
C	 0.0877021352	 1.5113223128	 0.0598156302	-0.485722
C	-0.0294029909	 0.0227570568	 0.1847950136	 0.227962
N	 1.1390645169	-0.828042337	-0.039846166	-0.410291
C	 0.4131079399	-0.9760670817	 1.2304779266	 0.262727
C	 1.2233060611	-0.8319751138	 2.4851433245	-0.160052
O	 2.1134598841	-1.9240483346	 2.6653160465	-0.417143
C	-0.8421563668	-1.8318278637	 1.0078279316	-0.341955
C	-1.3130045343	-0.8035740491	-0.0772128858	 0.094516
O	-2.5309053346	-0.149122226	 0.1881409365	-0.42736
H	 1.0037617435	 1.8725509026	 0.5339108491	 0.130804
H	 0.1163235505	 1.806702385	-0.9953724844	 0.128577
H	-0.7704302624	 2.0116843378	 0.5187028133	 0.116093
H	 0.9534530101	-1.592457679	-0.6887070063	 0.224765
H	 1.7659034434	 0.1251479737	 2.4582257245	 0.093241
H	 0.5712704249	-0.8235273783	 3.365118846	 0.10352
H	 2.670667516	-1.9450689062	 1.8785723056	 0.28871
H	-0.6743669108	-2.8693956428	 0.7003777107	 0.10281
H	-1.5324740813	-1.8312115866	 1.8577209769	 0.101693
H	-1.4056574434	-1.1852233769	-1.1001755387	 0.086521
H	-2.5249367908	 0.1423964771	 1.1067584257	 0.280585
63.4106	108.7881	147.3727	169.6569	226.6183	263.9516	314.9148	319.4432	414.6257	440.5248	471.5126	491.1972	506.3608	616.9917	754.385	773.4731	829.5959	857.4848	919.2032	944.5544	1002.644	1037.5721	1062.7415	1081.6523	1095.2101	1113.92	1134.3824	1174.3195	1203.5545	1238.6312	1248.638	1275.0529	1294.0949	1339.4475	1373.5525	1403.5549	1427.4102	1428.7045	1464.2772	1477.9699	1489.4579	1492.3379	1495.6327	2989.6807	3034.891	3038.8812	3049.1627	3072.9184	3091.6181	3096.2126	3122.4197	3444.9099	3796.1755	3797.956
CC12NC1(CO)CC2O	C[C@@]12N[C@]1(CO)C[C@H]2O	
InChI=1S/C6H11NO2/c1-5-4(9)2-6(5,3-8)7-5/h4,7-9H,2-3H2,1H3	InChI=1S/C6H11NO2/c1-5-4(9)2-6(5,3-8)7-5/h4,7-9H,2-3H2,1H3/t4-,5+,6+/m1/s1
