16
gdb 129750	3.03338	1.34418	0.99961	3.5391	74.24	-0.2102	-0.0138	0.1964	1157.0832	0.125995	-434.023039	-434.014943	-434.013999	-434.056553	29.582	
N	 0.1506875157	 1.3728514546	 0.5878143383	-0.613354
C	 0.0433197287	 0.0741698855	 0.0741083638	 0.022654
C	-1.0645470486	-0.6461536979	-0.2794326223	 0.412032
O	-0.6877272301	-1.9026733794	-0.633301131	-0.23898
N	 0.6875418159	-2.0236668048	-0.5266425969	-0.142646
C	 1.1070547441	-0.8565939335	-0.1060791019	 0.004506
C	-2.4973624261	-0.333029261	-0.3150034931	-0.119041
C	-3.4056697934	-1.0171200027	-1.2800328576	-0.235722
N	-3.4967723966	-1.31951113	 0.1535101097	-0.317491
H	 0.9651831199	 1.8645893631	 0.2430491571	 0.251839
H	-0.6712293038	 1.9376277298	 0.4196829897	 0.250028
H	 2.1643128816	-0.7032808615	 0.0624389233	 0.128809
H	-2.7299598977	 0.6875437871	-0.0213307739	 0.09073
H	-4.2526709996	-0.4745451585	-1.6905140266	 0.123358
H	-2.9602811239	-1.7532963651	-1.9422016717	 0.135366
H	-3.0204946661	-2.1990821454	 0.3432750131	 0.247912
46.0248	120.7439	162.1966	171.7979	285.969	307.2724	430.7892	496.67	617.2756	646.6928	688.5936	724.4008	757.332	814.3343	878.2222	894.5572	944.8449	964.4231	968.2828	1010.7924	1067.4255	1107.9395	1130.8161	1169.8979	1198.2849	1229.8268	1270.3139	1286.3133	1306.6324	1404.99	1454.898	1504.2297	1527.3609	1652.698	1697.1448	3114.8728	3136.3969	3207.3085	3237.2741	3499.8442	3540.8915	3628.9852
NC1=C(ON=C1)C1CN1	Nc1c(onc1)[C@H]1CN1	
InChI=1S/C5H7N3O/c6-3-1-8-9-5(3)4-2-7-4/h1,4,7H,2,6H2	InChI=1S/C5H7N3O/c6-3-1-8-9-5(3)4-2-7-4/h1,4,7H,2,6H2/t4-/m1/s1
