17
gdb 94479	3.52282	0.86473	0.7664	1.5597	77.99	-0.2446	0.0136	0.2582	1493.7459	0.134888	-417.949956	-417.94057	-417.939626	-417.985866	33.306	
N	 0.0807939403	 1.3944037835	 0.2427586264	-0.508612
C	-0.0449355184	-0.0299752466	 0.0364186857	-0.123175
C	-1.456701089	-0.5862812887	-0.2684868134	-0.08242
O	-0.9508535128	-1.2420628191	-1.4731426524	-0.267638
C	 0.3004614491	-0.6722412803	-1.3070018196	 0.442153
N	 1.3045488112	-0.6663566178	-2.0543396585	-0.331308
C	 1.2183625187	-1.363169837	-3.3430675172	-0.321275
C	 1.6322805515	-0.4955123686	-4.4439868671	 0.323506
C	 1.9610833643	 0.2092283157	-5.3595066354	-0.459937
H	 1.0492231106	 1.6291634598	 0.4368945685	 0.246714
H	-0.1659354268	 1.8956746125	-0.6065167776	 0.237555
H	 0.4354415799	-0.5521236216	 0.8684842049	 0.116661
H	-1.8762847557	-1.3119978327	 0.4310490299	 0.125274
H	-2.1971828944	 0.1782550566	-0.5193704563	 0.123607
H	 1.8915695536	-2.2297277007	-3.3020763019	 0.140032
H	 0.2117059942	-1.7533526944	-3.5454424138	 0.143086
H	 2.2555904039	 0.8310548792	-6.1680460125	 0.195777
16.9109	78.7366	120.2563	190.8045	204.7052	245.5681	288.8695	325.5846	400.4184	478.428	584.2231	606.2663	652.6396	677.2002	752.5169	827.7405	873.8771	938.8999	962.5674	968.8621	999.679	1006.6609	1046.8076	1134.7989	1151.3077	1172.2315	1229.798	1254.4537	1260.4446	1335.3068	1366.7117	1429.8062	1475.9996	1514.3354	1669.689	1830.8842	2242.8999	3008.1917	3039.8099	3062.863	3078.9573	3127.7079	3494.1717	3507.316	3573.0106
NC1COC1=NCC#C	N[C@H]1COC1=NCC#C	
InChI=1S/C6H8N2O/c1-2-3-8-6-5(7)4-9-6/h1,5H,3-4,7H2	InChI=1S/C6H8N2O/c1-2-3-8-6-5(7)4-9-6/h1,5H,3-4,7H2/t5-/m0/s1
