19
gdb 106358	3.31864	1.22178	1.08208	4.273	75.57	-0.2304	-0.0016	0.2289	1156.8263	0.159953	-423.031223	-423.023129	-423.022185	-423.063911	31.562	
O	-0.0725332408	 1.4020532015	-0.1571548709	-0.423873
C	-0.000845897	-0.0054888688	 0.0250154427	-0.193552
C	-1.4083662364	-0.5416479678	 0.0274569842	 0.356099
C	-2.3060816797	-0.5022074687	-1.2482694105	-0.263171
C	-3.0952121239	-1.6291896281	-0.5020912871	-0.129764
C	-1.7003421074	-2.0721705144	 0.0556263126	-0.294109
C	-3.6216222591	-0.8413983736	 0.6901888882	 0.433882
O	-4.7148771555	-0.8551650983	 1.1876496379	-0.336585
C	-2.3827043702	-0.0171118529	 1.1038950596	-0.371303
H	 0.821438412	 1.7557527601	-0.143108901	 0.291395
H	 0.5743013691	-0.4842766483	-0.7843886186	 0.083518
H	 0.4941485002	-0.2622553046	 0.9765829963	 0.087233
H	-2.8276705634	 0.4276363046	-1.4871262985	 0.112178
H	-1.790063615	-0.8864916356	-2.1315871619	 0.103362
H	-3.7863654945	-2.3095262485	-0.9943047258	 0.080742
H	-1.1255030378	-2.623671984	-0.6928155928	 0.105557
H	-1.6670331324	-2.591616014	 1.0179222019	 0.103633
H	-2.0758291339	-0.250380164	 2.1291052053	 0.116645
H	-2.5659262643	 1.0580331056	 1.0353449185	 0.138111
91.2912	122.2873	185.9695	242.8538	301.9014	370.1085	441.9082	465.0168	496.7341	557.4074	619.5246	685.3557	766.814	814.4551	819.1584	895.4882	940.1216	945.6978	966.0347	1004.8183	1024.6251	1046.1023	1068.7472	1077.5996	1127.3818	1140.8825	1171.7992	1191.1266	1208.2404	1226.2645	1232.5555	1263.9167	1278.238	1305.6706	1344.618	1462.0821	1467.7407	1488.774	1515.2286	1524.9387	1869.911	2957.0746	2986.06	3050.2935	3055.3627	3062.2688	3111.6005	3112.7149	3123.197	3149.8944	3833.4246
OCC12CC(C1)C(=O)C2	OC[C@@]12C[C@@H](C1)C(=O)C2	
InChI=1S/C7H10O2/c8-4-7-1-5(2-7)6(9)3-7/h5,8H,1-4H2	InChI=1S/C7H10O2/c8-4-7-1-5(2-7)6(9)3-7/h5,8H,1-4H2/t5-,7-
