18
gdb 93564	3.55856	1.10181	0.8811	1.7979	74.92	-0.2224	-0.0268	0.1956	1311.996	0.149111	-435.326563	-435.317638	-435.316693	-435.360377	33.053	
C	-0.1070913041	 1.5535388017	 0.0086444356	-0.389342
C	 0.089384791	 0.0420118295	 0.0236177025	 0.05683
C	 0.90076264	-0.5136159202	-1.1900758024	-0.194633
N	 1.692903105	-1.5599163273	-0.541441334	-0.33765
C	 1.6869241233	-1.2719045518	 0.7992922742	 0.2872
N	 0.8347398758	-0.4111685168	 1.2202535205	-0.340698
C	 2.6793074437	-1.9827284723	 1.6801620117	 0.353353
N	 2.4872636543	-1.7455381393	 2.9966440987	-0.52553
O	 3.5555372649	-2.6830760962	 1.2025299382	-0.375005
H	 0.8595705266	 2.0675637242	-0.0014717355	 0.11794
H	-0.6721514124	 1.8651376742	-0.8763904868	 0.112447
H	-0.654722666	 1.8770722379	 0.8978041061	 0.126805
H	-0.8976977738	-0.4421558715	 0.0521508598	 0.08944
H	 0.2630635203	-0.9175910838	-1.9803525011	 0.114631
H	 1.5418713787	 0.2662763971	-1.6286288798	 0.101128
H	 2.5462946116	-1.9242350885	-0.9383146047	 0.259307
H	 1.7643881644	-1.09920857	 3.2716059354	 0.278695
H	 3.1364170765	-2.1183021571	 3.6680797015	 0.265084
70.6279	111.5934	160.1161	179.6499	239.1916	306.2819	331.2285	377.6444	437.9251	493.015	545.0809	594.8607	645.099	669.4741	694.0107	818.9829	846.8144	903.0301	942.6601	989.5535	1046.6332	1095.117	1104.5046	1128.2635	1146.8585	1214.3771	1223.2755	1292.943	1319.2076	1361.6936	1393.2477	1406.7672	1488.2289	1491.8716	1498.6394	1529.0472	1599.5107	1684.5916	1796.295	2985.0395	2995.2698	3035.4157	3086.2417	3104.7743	3119.7697	3589.0529	3623.2218	3735.6843
CC1CNC(=N1)C(N)=O	C[C@H]1CN[C]([N]1)C(=O)N	
InChI=1S/C5H9N3O/c1-3-2-7-5(8-3)4(6)9/h3H,2H2,1H3,(H2,6,9)(H,7,8)	InChI=1S/C5H9N3O/c1-3-2-7-5(8-3)4(6)9/h3H,2H2,1H3,(H2,6,9)(H,7,8)/t3-/m0/s1
