16
gdb 50180	2.20856	1.87154	1.26286	1.988	74.29	-0.2403	-0.0263	0.214	1002.7943	0.122374	-400.666391	-400.658206	-400.657262	-400.699234	30.573	
O	-0.3987579135	 0.5338203573	-1.0921186024	-0.251279
C	 0.0948886927	 0.9626570696	-0.0809880833	 0.145272
C	 1.1926577303	 2.0023351287	-0.0743983131	-0.032648
C	 1.1348655259	 3.2256121861	-1.0224945384	-0.284455
C	 1.2859749436	 4.0662567574	 0.2439884179	-0.022262
C	 0.1946334464	 3.8085537301	 1.2167885766	-0.198545
C	-1.1438498855	 3.4641717794	 0.8326367104	 0.331293
C	-2.2765935672	 3.1929676855	 0.5309937613	-0.430054
N	 1.3509237989	 2.8587447683	 1.1603441723	-0.177755
H	-0.1825985741	 0.5774405256	 0.9250621795	 0.092332
H	 2.1331614998	 1.4495224941	-0.1890938558	 0.124495
H	 1.9867734142	 3.2909738555	-1.6990983269	 0.120431
H	 0.2092844362	 3.3607795924	-1.5856783005	 0.136264
H	 1.9602197852	 4.9072465973	 0.3696214127	 0.108226
H	 0.2578538998	 4.3875360996	 2.1348763687	 0.126853
H	-3.2703592127	 2.9366509329	 0.2564271009	 0.211831
95.7557	124.2544	146.3957	195.443	240.8584	352.5959	412.3099	528.6065	547.269	600.3364	620.0534	675.0921	752.0439	765.2093	775.5136	838.3266	898.3975	947.6254	982.7787	1005.284	1059.966	1066.8488	1111.5757	1113.0282	1148.3026	1223.6109	1239.9859	1263.9827	1322.3299	1348.5732	1398.8261	1406.1593	1489.6325	1824.54	2231.4952	2890.8591	3038.3728	3083.3379	3141.0902	3142.2134	3167.6934	3499.2554
O=CC1CC2C(C#C)N12	O=C[C@H]1C[C@H]2[C@@H](C#C)N12	
InChI=1S/C7H7NO/c1-2-6-7-3-5(4-9)8(6)7/h1,4-7H,3H2	InChI=1S/C7H7NO/c1-2-6-7-3-5(4-9)8(6)7/h1,4-7H,3H2/t5-,6-,7+,8?/m1/s1
