21
gdb 114688	3.76908	1.07049	0.9826	2.7468	78.09	-0.2346	0.0833	0.3179	1287.8661	0.182612	-424.216576	-424.207651	-424.206707	-424.250338	34.32	
C	-0.3517225804	 1.4112900268	 0.2089892447	-0.482082
C	 0.116925297	-0.0051414927	-0.0231342628	 0.324939
C	-0.5837653238	-1.1657754677	 0.6683724393	-0.36919
C	 0.8453623997	-0.817097238	 1.0055616927	 0.075937
O	 1.8697888922	-1.5767259258	 0.421926531	-0.289599
C	 1.8641683258	-1.4062930867	-1.0119244362	 0.102189
C	 1.6241693341	-2.773133221	-1.6507584395	-0.061475
O	 2.5388610604	-3.731478243	-1.1670036543	-0.423595
C	 0.7935247606	-0.3410212826	-1.3518631997	-0.339531
H	 0.4599253931	 2.1298070564	 0.0454567351	 0.118174
H	-1.1722144181	 1.6752949044	-0.468552713	 0.121036
H	-0.716626624	 1.545502411	 1.2321184195	 0.117416
H	-1.347082874	-0.9151612519	 1.3988235279	 0.110853
H	-0.7734865275	-2.0803246868	 0.1166502761	 0.115828
H	 1.1129101159	-0.4433013328	 1.9883680863	 0.098844
H	 2.8713126025	-1.0726103507	-1.2902209831	 0.088995
H	 0.5800776742	-3.0839014028	-1.474638674	 0.081622
H	 1.7669518788	-2.7030359309	-2.7353844225	 0.104942
H	 2.5265920595	-3.6350093444	-0.2063410106	 0.289874
H	 0.0846468053	-0.7130716782	-2.100833354	 0.107156
H	 1.2592816586	 0.5583357276	-1.7656409729	 0.107666
51.4175	134.079	160.4838	208.0222	260.5734	300.495	343.6524	397.6648	432.8837	477.7524	498.8835	599.0494	694.6451	736.2489	798.4598	860.9767	874.5044	907.842	940.0619	979.7834	1021.6637	1030.4003	1038.254	1050.7566	1070.8922	1095.6224	1101.039	1141.4494	1155.7655	1202.6574	1243.3831	1261.3435	1294.559	1317.8174	1323.8823	1357.9644	1394.2212	1408.8403	1421.7334	1441.604	1477.6676	1490.1768	1496.0804	1501.3173	1506.5017	2959.3187	3022.2409	3027.7753	3036.712	3064.1009	3081.5123	3083.1454	3098.846	3123.154	3166.2371	3212.1965	3778.9458
CC12CC1OC(CO)C2	C[C@]12C[C@H]1O[C@@H](CO)C2	
InChI=1S/C7H12O2/c1-7-2-5(4-8)9-6(7)3-7/h5-6,8H,2-4H2,1H3	InChI=1S/C7H12O2/c1-7-2-5(4-8)9-6(7)3-7/h5-6,8H,2-4H2,1H3/t5-,6-,7+/m1/s1
