20
gdb 93929	3.43588	1.09731	0.93362	5.3503	73.95	-0.2452	0.019	0.2642	1289.8975	0.172979	-440.334365	-440.325697	-440.324753	-440.368662	32.518	
C	 0.5756975634	 1.482587397	-0.1710411669	-0.395641
C	-0.1062442877	 0.1511580795	 0.1667241606	 0.026868
C	 0.0981392214	-0.9042557905	-0.9396197079	-0.190223
N	 1.4100579926	-1.5276227462	-0.6694888401	-0.324766
H	 1.4498019277	-3.3940378642	-0.4667980633	 0.303662
H	 2.1472564083	-0.9706106869	-1.0850645734	 0.234663
C	 1.5548555552	-1.5513780989	 0.8044824912	-0.140027
C	 0.5243092814	-0.54538917	 1.397376818	-0.23679
C	 1.3375257566	-2.9839967258	 1.3305321044	 0.428105
O	 1.3520266259	-3.911808503	 0.3660118563	-0.368967
O	 1.1855072939	-3.2387455066	 2.4956347793	-0.343726
H	 1.6474884961	 1.3490942316	-0.361955276	 0.105797
H	 0.1336915048	 1.9408997697	-1.0619994627	 0.117082
H	 0.4798182101	 2.193950623	 0.654921664	 0.12387
H	-1.1733598474	 0.3322379022	 0.3304918414	 0.081399
H	-0.6742934449	-1.6799413396	-0.8719935417	 0.116379
H	 0.0728636715	-0.4967364362	-1.9537237225	 0.108859
H	 2.5805158024	-1.2868706402	 1.0785930875	 0.113583
H	 1.0006904666	 0.1702565014	 2.0710794238	 0.109876
H	-0.2212264279	-1.0863394964	 1.984137898	 0.129996
35.2003	86.6087	152.7085	215.7929	236.7717	337.7768	367.9776	380.6934	490.836	569.8295	679.5431	700.6533	745.7492	794.3762	821.081	832.084	900.8896	923.9775	929.2428	950.9496	984.988	1008.2896	1037.8946	1092.1491	1117.0835	1136.5007	1194.1752	1219.3605	1237.0105	1256.9766	1286.7582	1322.7316	1339.2826	1362.3623	1373.4473	1412.4487	1431.5041	1451.3448	1494.4056	1497.8804	1500.4186	1511.8948	1867.2527	3025.9196	3032.7653	3055.5125	3066.2522	3077.2394	3091.4121	3099.3414	3105.9077	3118.4493	3425.7347	3541.6983
CC1C[NH2+]C(C1)C([O-])=O	C[C@H]1CN[C@@H](C1)C(=O)O	
InChI=1S/C6H11NO2/c1-4-2-5(6(8)9)7-3-4/h4-5,7H,2-3H2,1H3,(H,8,9)	InChI=1S/C6H11NO2/c1-4-2-5(6(8)9)7-3-4/h4-5,7H,2-3H2,1H3,(H,8,9)/t4-,5+/m1/s1
