20
gdb 123123	6.57167	0.47697	0.45245	5.2357	74.12	-0.2459	0.0273	0.2732	2338.7426	0.167883	-477.430964	-477.419674	-477.41873	-477.469869	37.832	
N	-0.0581984406	 1.278664383	 0.1467624711	-0.524234
C	 0.0395635296	-0.0434633801	-0.2001051329	 0.372133
O	 1.0589107632	-0.5458889517	-0.612854327	-0.327412
C	-1.2914068264	-0.7985892119	-0.0954319649	-0.155736
O	-1.0348872832	-2.1667242175	-0.0030492625	-0.221012
C	-2.2060258333	-2.9559622699	-0.0385669245	-0.051627
C	-1.799241174	-4.4187387099	 0.0614190764	-0.183321
C	-2.9941346724	-5.3620888134	 0.0172774666	-0.072312
O	-2.5009710728	-6.6872546654	 0.1325392625	-0.418112
H	 0.7927309545	 1.8180789791	 0.1459686396	 0.262428
H	-0.8334322978	 1.6274151794	 0.6839329556	 0.255801
H	-1.8726574071	-0.4360481477	 0.7719206374	 0.085035
H	-1.884946973	-0.5571406769	-0.9959345569	 0.112837
H	-2.8790311788	-2.6818084412	 0.7934235006	 0.082231
H	-2.7616552936	-2.7676268875	-0.9742648447	 0.085873
H	-1.1165667149	-4.6602664479	-0.7595181471	 0.124627
H	-1.2487317032	-4.5788710203	 0.9942165067	 0.119448
H	-3.6913347855	-5.1241810977	 0.8382662383	 0.08291
H	-3.5469750468	-5.2234127663	-0.9267916509	 0.084832
H	-3.2485230939	-7.2907190662	 0.0946779867	 0.285612
24.9933	43.6421	75.0014	85.2034	122.703	139.2163	200.3081	254.0385	264.312	278.364	361.5717	461.1391	488.5376	525.5718	609.0599	676.8859	779.1474	860.0554	890.1228	1008.6473	1020.4676	1052.3453	1064.0719	1092.3194	1112.7628	1177.7154	1194.0827	1230.0303	1244.8721	1261.3135	1298.4387	1303.9874	1305.5256	1320.3145	1408.5762	1449.9739	1467.7368	1493.8663	1499.9874	1525.5233	1535.6963	1618.3848	1828.0156	2930.3893	2942.7472	2954.9541	2957.6198	2963.4684	2978.3203	3055.2462	3102.052	3594.9208	3726.6553	3831.1191	24.9969	43.6447	75.0016	85.2031	122.7045	139.2171	200.3083	254.0369	264.3134	278.3639	361.5717	461.139	488.5372	525.5717	609.06	676.886	779.1476	860.0555	890.1226	1008.6473	1020.4679	1052.3453	1064.0718	1092.3196	1112.7629	1177.7147	1194.0826	1230.0295	1244.8718	1261.3143	1298.4391	1303.9859	1305.5246	1320.3139	1408.5763	1449.974	1467.7365	1493.8664	1499.9866	1525.5226	1535.6953	1618.3855	1828.0163	2930.3893	2942.7472	2954.9542	2957.6198	2963.4684	2978.3203	3055.2462	3102.0521	3594.9206	3726.6551	3831.1193
NC(=O)COCCCO	NC(=O)COCCCO	
InChI=1S/C5H11NO3/c6-5(8)4-9-3-1-2-7/h7H,1-4H2,(H2,6,8)	InChI=1S/C5H11NO3/c6-5(8)4-9-3-1-2-7/h7H,1-4H2,(H2,6,8)
