17
gdb 45138	2.85553	1.60035	1.08948	5.5251	77.47	-0.2111	-0.0094	0.2016	1075.4303	0.139525	-418.026146	-418.018718	-418.017774	-418.058042	29.299	
O	-0.0469857607	-0.1807691945	-0.0191873876	-0.386778
C	 0.0197532127	 1.0374430163	-0.0943343362	 0.353714
N	-0.9364550749	 1.8159048624	 0.5577182539	-0.333002
C	-1.4363282584	 3.0824671279	 0.1366323124	 0.009032
C	-1.3772824218	 4.2565422634	 1.0922539684	-0.321926
C	-0.5037337743	 4.2215983742	-0.1393258273	 0.016733
N	 0.9114912068	 4.0426663024	-0.0359206253	-0.296815
C	 1.5783900833	 2.9804553102	-0.5944364285	-0.005327
C	 1.1633095999	 1.7034040286	-0.7259650431	-0.193069
H	-1.6201952506	 1.2198834157	 1.0073447362	 0.239051
H	-2.3022423225	 3.0442583881	-0.5243051643	 0.102999
H	-2.2045428812	 4.9562171632	 1.1231059776	 0.117569
H	-0.8789182556	 4.0644045022	 2.0347698812	 0.131664
H	-0.8103931531	 4.8665431594	-0.9625698338	 0.102383
H	 1.4314808026	 4.9057052561	-0.0140092246	 0.247127
H	 2.5812547261	 3.2316134082	-0.9333484719	 0.111551
H	 1.8414192516	 1.0062993261	-1.2013237573	 0.105096
113.4705	122.4624	270.7499	329.2781	385.623	397.2805	451.5981	512.1708	536.2681	641.8015	696.3541	736.5996	762.3954	820.7253	849.3711	855.8217	868.0803	940.6137	978.3435	1015.8423	1049.641	1069.782	1087.6463	1147.1146	1162.4365	1201.9532	1255.3667	1318.2971	1339.5466	1400.5639	1423.6	1445.7682	1451.6615	1486.0837	1542.7249	1691.9631	1752.3835	3088.1916	3101.1972	3144.0095	3149.5348	3216.9512	3242.6776	3570.4095	3619.9679
O=C1NC2CC2NC=C1	O=C1N[C@H]2C[C@H]2NC=C1	
InChI=1S/C6H8N2O/c9-6-1-2-7-4-3-5(4)8-6/h1-2,4-5,7H,3H2,(H,8,9)	InChI=1S/C6H8N2O/c9-6-1-2-7-4-3-5(4)8-6/h1-2,4-5,7H,3H2,(H,8,9)/t4-,5+/m1/s1
