15
gdb 130302	3.22177	1.5933	1.08347	3.0844	68.21	-0.2091	0.0053	0.2144	1049.2561	0.11487	-453.917802	-453.910463	-453.909519	-453.949755	27.805	
N	 0.01277099	 1.4002854335	-0.1658256307	-0.597164
C	 0.0472183014	 0.0251095508	-0.029564059	 0.277467
N	-1.065856595	-0.6968894634	-0.0031453404	-0.234762
O	-0.6722785202	-2.0579592971	 0.0479649113	-0.23508
C	 0.6634188583	-2.0744018991	 0.0749523466	 0.308889
C	 1.1755301088	-0.8353470141	 0.026913248	 0.208962
O	 2.5369712997	-0.7579387337	 0.011653562	-0.300846
C	 2.972033055	-2.1369147094	 0.2403026282	-0.095195
C	 1.7433645158	-3.1045632832	 0.0612371468	-0.377834
H	 0.748917086	 1.8824843801	 0.3298533652	 0.260582
H	-0.8984923184	 1.7925747056	 0.0305424249	 0.26198
H	 3.7835833974	-2.3436403504	-0.4592529186	 0.129186
H	 3.3581171408	-2.1946939828	 1.2631171087	 0.12457
H	 1.692080704	-3.8346577674	 0.874143679	 0.134322
H	 1.7820706363	-3.6602387693	-0.8833559621	 0.134922
96.197	152.1301	240.8689	269.9828	313.6471	403.232	505.5038	595.4076	605.4152	627.4572	667.5987	733.9021	761.7278	809.3337	835.1907	916.1812	932.5643	964.1933	1072.8081	1097.6831	1131.9119	1189.1482	1235.2693	1266.4106	1275.9037	1372.6979	1391.1946	1490.2844	1511.6605	1514.2946	1580.3277	1645.4676	1716.3446	3032.3035	3050.8243	3081.55	3122.6396	3555.3188	3657.6116
NC1=NOC2=C1OCC2	Nc1noc2c1OCC2	
InChI=1S/C5H6N2O2/c6-5-4-3(9-7-5)1-2-8-4/h1-2H2,(H2,6,7)	InChI=1S/C5H6N2O2/c6-5-4-3(9-7-5)1-2-8-4/h1-2H2,(H2,6,7)
