18
gdb 78464	3.49144	1.53841	1.50025	1.6656	74.7	-0.2255	0.0143	0.2398	962.6066	0.149071	-401.890037	-401.883208	-401.882264	-401.920818	28.515	
C	-0.0636341704	 1.4848728102	-0.0050656765	-0.318707
N	 0.0208348185	 0.0279195245	 0.0209059851	-0.086248
C	 1.3631843843	-0.5222031735	-0.2009456158	-0.031016
C	 0.7673908945	-0.5326159951	 1.1532542016	-0.031016
C	 0.6022604855	-2.069383084	 1.4260488219	-0.033495
O	 1.796297396	-2.5615334371	 0.7821393234	-0.246934
C	 1.4614304909	-2.054371626	-0.5267561215	-0.033498
C	 0.0537153034	-2.6112440032	-0.7122208135	-0.056095
C	-0.4824474506	-2.6206014248	 0.506410084	-0.056098
H	 0.8311931038	 1.9928219246	 0.3926442539	 0.098958
H	-0.2143344149	 1.8149680919	-1.0376120561	 0.125121
H	-0.9286375952	 1.8024952468	 0.5854514289	 0.125121
H	 2.1772078489	 0.1399959721	-0.4765790536	 0.09175
H	 1.1104501205	 0.12135351	 1.94808112	 0.091751
H	 0.5872940144	-2.354914679	 2.4765117309	 0.074055
H	 2.2273294366	-2.326260135	-1.2511178288	 0.074055
H	-0.4163491057	-2.8271801134	-1.6609070606	 0.106149
H	-1.4981932604	-2.846064339	 0.7979945067	 0.106149
203.5737	208.5152	271.0185	312.5576	371.297	512.5865	518.091	606.673	724.4043	732.8886	760.9703	780.5338	852.2232	874.8991	878.8712	901.058	910.2884	920.385	949.4592	953.5874	981.3752	1014.7233	1070.4558	1093.1347	1131.6027	1148.5933	1154.0514	1222.5861	1240.421	1254.3489	1256.011	1275.2114	1323.749	1335.7676	1379.2643	1453.4451	1493.1162	1499.3409	1644.7999	2961.7629	3068.6029	3106.5579	3134.1809	3136.7819	3162.8225	3172.9419	3224.8747	3250.1268
CN1C2C1C1OC2C=C1	CN1[C@H]2[C@@H]1[C@@H]1O[C@H]2C=C1	
InChI=1S/C7H9NO/c1-8-6-4-2-3-5(9-4)7(6)8/h2-7H,1H3	InChI=1S/C7H9NO/c1-8-6-4-2-3-5(9-4)7(6)8/h2-7H,1H3/t4-,5+,6+,7-,8?
