21
gdb 57390	2.6803	1.3868	1.26535	1.8309	78.02	-0.2322	0.0672	0.2994	1126.5316	0.17999	-424.188546	-424.179072	-424.178128	-424.22229	36.618	
C	-0.1819242663	 1.4617003402	-0.0881653615	-0.401534
C	 0.0320133169	-0.0491490184	 0.0291660772	 0.227364
C	 0.8471069735	-0.4019926483	 1.2785529947	-0.429756
O	-1.272846554	-0.6321921414	 0.0975041104	-0.453944
C	 0.7239741789	-0.5608509671	-1.2190169634	 0.497243
C	 0.0836339236	-0.8436308907	-2.5390444188	-0.33666
C	 0.8834171191	-1.9330273717	-1.8437133702	-0.221791
C	 2.3626226701	-1.5783973639	-1.9228765788	-0.089771
O	 2.115144424	-0.2437119575	-1.3992887833	-0.339987
H	 0.773717943	 1.9689578258	-0.2459855295	 0.131956
H	-0.8380983911	 1.6813384206	-0.934250175	 0.125572
H	-0.645516046	 1.8514663252	 0.822349766	 0.114789
H	 0.3419721759	-0.0293157338	 2.1738919233	 0.117951
H	 0.9600302032	-1.4892077959	 1.3696466356	 0.10021
H	 1.8483123939	 0.0311124178	 1.2230506824	 0.138063
H	-1.1651818702	-1.5543397014	 0.3552378987	 0.278012
H	-0.9905556987	-0.9848616515	-2.4998654589	 0.12756
H	 0.4693769583	-0.3693899428	-3.4378502	 0.109426
H	 0.468823682	-2.8963928335	-1.5772565915	 0.09315
H	 2.9950507701	-2.1487597751	-1.2331504563	 0.107314
H	 2.8279370938	-1.5527875766	-2.9156588111	 0.104833
62.1965	151.3988	187.8873	215.7404	256.2448	295.2029	316.5585	322.8757	344.6941	398.9167	439.9699	480.7397	520.4673	616.6412	753.7036	819.5457	862.6278	887.678	933.7552	954.2342	963.8381	978.1049	991.0257	996.9846	1014.6946	1027.1508	1072.8203	1121.1336	1128.6123	1146.6386	1167.5755	1209.1903	1223.07	1284.3259	1340.0557	1358.7375	1394.4019	1400.1556	1412.3311	1479.1262	1480.2643	1482.2604	1495.1524	1510.875	1517.8421	3021.2681	3030.0203	3046.4126	3069.5713	3101.4081	3116.6607	3122.3163	3127.816	3135.4664	3192.8208	3222.444	3802.6763
CC(C)(O)C12CC1CO2	CC(C)(O)[C@]12C[C@H]1CO2	
InChI=1S/C7H12O2/c1-6(2,8)7-3-5(7)4-9-7/h5,8H,3-4H2,1-2H3	InChI=1S/C7H12O2/c1-6(2,8)7-3-5(7)4-9-7/h5,8H,3-4H2,1-2H3/t5-,7-/m0/s1
