19
gdb 83112	2.63306	1.57799	1.24694	1.2132	83.4	-0.2145	-0.0286	0.1859	1063.191	0.160907	-385.879775	-385.87171	-385.870766	-385.912622	31.432	
O	 0.3909776191	 1.1955620812	-0.0091781346	-0.416077
C	 0.0607057164	-0.1601492833	 0.0678226952	 0.087602
C	-1.3987630985	-0.5626626309	 0.1649006691	-0.081834
C	-2.45255422	 0.5312948094	 0.2259660007	-0.291579
C	-3.4939978459	 0.5274436358	-0.8634905871	-0.068559
C	-3.2510433108	 0.4999169348	-2.1815133567	-0.071717
C	-1.9540576675	 0.4090210491	-2.8457503734	-0.073356
C	-0.818847415	-0.1449096411	-2.3873157851	-0.126832
C	-0.6112300174	-0.8508847897	-1.1004211866	-0.120094
H	 0.3387446553	 1.4655657824	-0.933270724	 0.287094
H	 0.7946687985	-0.7238903141	 0.636917485	 0.096205
H	-1.6141386262	-1.4362518126	 0.7726259976	 0.086093
H	-2.9461315824	 0.481149787	 1.2013532538	 0.103511
H	-1.9325522183	 1.4994042646	 0.2068040132	 0.133753
H	-4.5294375053	 0.6208223543	-0.5439975406	 0.090905
H	-4.1017975665	 0.5906046064	-2.8540002228	 0.085833
H	-1.9304775597	 0.811007155	-3.8576884722	 0.089564
H	 0.0390155013	-0.1582260828	-3.0599980796	 0.092834
H	-0.3042037271	-1.8876195355	-1.2333750121	 0.096653
50.0728	146.4636	194.6945	264.4073	313.728	349.8324	384.3358	479.6858	579.0477	591.7492	689.9725	700.4171	757.6392	803.3341	806.0054	865.7203	888.5107	925.7409	938.6085	974.0667	1000.4418	1013.3355	1050.2298	1075.9565	1097.2753	1122.4397	1147.4294	1226.0229	1242.0823	1259.4878	1265.0666	1333.05	1344.5183	1371.0294	1380.756	1419.6072	1437.0944	1460.4857	1476.7527	1677.0202	1705.9199	3016.7522	3072.056	3104.0486	3115.045	3132.6069	3138.9949	3144.4693	3152.9145	3161.9901	3781.1859
OC1C2CC=CC=CC12	O[C@H]1[C@H]2CC=CC=C[C@@H]12	
InChI=1S/C8H10O/c9-8-6-4-2-1-3-5-7(6)8/h1-4,6-9H,5H2	InChI=1S/C8H10O/c9-8-6-4-2-1-3-5-7(6)8/h1-4,6-9H,5H2/t6-,7+,8-/m1/s1
