19
gdb 113234	2.99985	1.07238	0.95649	2.6274	72.16	-0.2485	0.0613	0.3098	1292.8584	0.157701	-460.113885	-460.104653	-460.103709	-460.148475	34.381	
O	 0.1736679097	 0.6462636749	 0.9004660346	-0.421533
C	-0.1791235141	 0.1612815288	-0.3863603482	-0.07793
C	-1.5265690476	-0.5236303798	-0.3962359426	-0.105351
C	-1.8044209386	-1.6116558103	-1.4180421419	-0.355936
C	-1.6273266142	-1.9786670354	 0.022823741	 0.403019
O	-0.449420217	-2.6627476739	 0.3557102007	-0.479397
C	-2.8052611231	-2.4308574201	 0.8304786158	 0.009278
C	-2.9573556749	-3.8281395718	 1.2506714246	-0.189577
O	-2.4741683685	-2.8318925587	 2.170167435	-0.255048
H	 0.2805941365	-0.1242264787	 1.4676512418	 0.280939
H	-0.2016249485	 1.0397468161	-1.0399932806	 0.109628
H	 0.5843523539	-0.5248541231	-0.777435236	 0.098801
H	-2.360421466	 0.1166494887	-0.1184767036	 0.091153
H	-2.7917763486	-1.6829489018	-1.8618584353	 0.115267
H	-0.9904699739	-1.8878008715	-2.0804586832	 0.128852
H	-0.4990823618	-2.7958843543	 1.3140732208	 0.291344
H	-3.696782302	-1.8093701955	 0.7512256055	 0.102852
H	-3.9472236788	-4.2186583289	 1.4774883872	 0.123767
H	-2.2174588325	-4.5596413446	 0.9354670141	 0.129872
49.4825	80.2617	133.4361	185.4741	266.4896	297.5151	333.289	344.2509	417.3223	445.1117	540.794	554.6977	588.2113	729.2426	804.3832	838.7583	875.2899	902.1597	934.6499	964.3747	1014.7281	1030.5514	1061.1097	1072.7968	1088.0652	1103.838	1150.4217	1156.8229	1170.6981	1201.1222	1230.5047	1272.4082	1324.3822	1346.8802	1383.9779	1404.8052	1423.2287	1454.1309	1493.9245	1503.6278	1521.4939	3013.4976	3073.3057	3100.4237	3119.6605	3128.8586	3139.9709	3195.0125	3216.7816	3723.3883	3816.9183
OCC1CC1(O)C1CO1	OC[C@H]1C[C@]1(O)[C@H]1CO1	
InChI=1S/C6H10O3/c7-2-4-1-6(4,8)5-3-9-5/h4-5,7-8H,1-3H2	InChI=1S/C6H10O3/c7-2-4-1-6(4,8)5-3-9-5/h4-5,7-8H,1-3H2/t4-,5-,6-/m1/s1
