18
gdb 16757	5.07101	1.36553	1.18734	1.5043	73.64	-0.2147	0.0298	0.2444	1035.5908	0.154637	-347.796374	-347.78881	-347.787866	-347.828313	28.873	
O	-0.009000137	 1.4168747099	-0.0070188558	-0.414046
C	-0.0279713724	 0.0006012279	-0.0317321208	-0.173718
C	-1.4364114351	-0.49061786	 0.0438972004	 0.294349
C	-2.5476360134	 0.2504588533	 0.0929165616	-0.163296
C	-3.7786619349	-0.5910221676	 0.0740379426	-0.06786
C	-3.9728077234	-1.4160169848	-1.184788915	-0.274755
C	-3.2780760193	-2.0248596688	 0.0058225102	-0.03494
C	-1.7511054526	-1.9776769292	 0.0580908552	-0.32295
H	 0.9076525617	 1.7034070114	-0.0432625408	 0.288367
H	 0.4471852022	-0.3902631938	-0.9499562588	 0.09187
H	 0.5493215417	-0.4227718951	 0.8108505378	 0.090547
H	-2.5611181357	 1.3326158799	 0.1013918118	 0.105574
H	-4.6493927722	-0.3034423631	 0.6532462203	 0.081775
H	-4.9731764737	-1.7760828196	-1.4037755182	 0.104877
H	-3.3862380806	-1.1462466261	-2.0576556757	 0.107625
H	-3.7902768307	-2.8183149533	 0.5368676801	 0.081735
H	-1.2860792756	-2.508489775	-0.7840843737	 0.103359
H	-1.3654258789	-2.455471886	 0.9701437986	 0.101488
76.1776	156.7053	200.7051	231.0845	329.4475	381.6677	428.7341	489.2356	652.451	693.596	789.1206	807.6271	847.7416	877.2577	902.6691	936.0554	980.0655	1006.7584	1034.4479	1060.3914	1063.9847	1081.1803	1095.62	1104.0069	1177.1997	1185.3543	1210.7061	1216.1789	1252.4754	1284.9827	1321.0868	1349.8984	1376.114	1466.8432	1473.324	1484.3211	1509.6148	1710.6088	2931.0728	2940.9222	3001.39	3028.2462	3118.8341	3164.4714	3178.001	3208.2522	3221.7408	3839.3675
OCC1=CC2CC2C1	OCC1=C[C@H]2C[C@H]2C1	
InChI=1S/C7H10O/c8-4-5-1-6-3-7(6)2-5/h1,6-8H,2-4H2	InChI=1S/C7H10O/c8-4-5-1-6-3-7(6)2-5/h1,6-8H,2-4H2/t6-,7+/m0/s1
