16
gdb 129688	3.00568	1.34327	0.9875	3.1971	72.71	-0.2038	0.0135	0.2173	1160.1066	0.126322	-434.052118	-434.043976	-434.043032	-434.085376	29.76	
N	 0.1234325932	 1.5059149008	 0.3838236981	-0.616429
C	 0.0584131331	 0.1252280647	 0.0956053799	 0.049703
C	-1.0932038638	-0.6138727767	-0.1248475726	 0.35832
N	-0.6817697787	-1.897152928	-0.3200499456	-0.258872
N	 0.6440060872	-2.0555720684	-0.2073928847	-0.229386
C	 1.1027648592	-0.8265851309	 0.0274977954	-0.058627
C	-2.5135199546	-0.2332598217	-0.1560953642	-0.054838
C	-3.3901953487	-0.4992579932	-1.315265035	-0.176121
O	-3.4425402902	-1.3267826539	-0.1518008511	-0.241503
H	 1.0746054995	 1.7988166953	 0.569452613	 0.243179
H	-0.2360146187	 2.0795956517	-0.3705691422	 0.243967
H	-1.2862984672	-2.6953648067	-0.4224389516	 0.278196
H	 2.1637311701	-0.6600288793	 0.1510797752	 0.102495
H	-2.7779166627	 0.5987025338	 0.4967194377	 0.117033
H	-4.2676429979	 0.1240417284	-1.4821867095	 0.122807
H	-2.96686785	-0.965916406	-2.2030613228	 0.120076
75.0764	118.8624	151.1879	161.9852	278.8721	308.8491	424.8783	511.2819	537.0013	623.0246	699.4189	707.8779	732.681	804.8708	847.4699	859.7974	901.4755	957.842	1009.1529	1092.5136	1097.5197	1147.5964	1152.281	1172.0725	1212.9588	1257.4308	1267.5766	1312.6454	1395.5455	1402.7413	1459.1537	1519.833	1541.8271	1640.9055	1659.0441	3084.2752	3113.7691	3177.6564	3234.5374	3519.5897	3604.8759	3670.9895
NC1=C(NN=C1)C1CO1	Nc1c([nH]nc1)[C@H]1CO1	
InChI=1S/C5H7N3O/c6-3-1-7-8-5(3)4-2-9-4/h1,4H,2,6H2,(H,7,8)	InChI=1S/C5H7N3O/c6-3-1-7-8-5(3)4-2-9-4/h1,4H,2,6H2,(H,7,8)/t4-/m1/s1
