18
gdb 9716	3.5508	1.5687	1.51602	2.8194	73.68	-0.2365	-0.0262	0.2102	937.6302	0.153222	-347.831725	-347.823656	-347.822712	-347.864396	29.816	
C	-0.011123126	 1.5861379483	 0.0109752862	-0.440658
C	 0.0042915915	 0.0555646719	 0.0355575658	 0.175217
C	 0.7280207261	-0.5939035941	-1.1909858259	-0.270405
C	 1.5681778953	-1.7778958593	-0.6429848894	-0.257632
C	 1.6019410505	-1.515806888	 0.8421896972	-0.065654
C	 0.7800108608	-0.5335048711	 1.2051465958	-0.104283
C	-1.4185145748	-0.4933421131	 0.1252068492	 0.138174
O	-2.4108208031	 0.1632350386	 0.3064045971	-0.255869
H	 1.0103268504	 1.9772953732	 0.0024243833	 0.110935
H	-0.5340420541	 1.956133966	-0.8761894324	 0.123349
H	-0.5325967805	 1.9861002188	 0.8842859655	 0.129345
H	 0.0259526954	-0.9044183473	-1.9709213952	 0.106122
H	 1.3831650979	 0.1598382089	-1.636767515	 0.113357
H	 1.1034138569	-2.7491823632	-0.8585755235	 0.112812
H	 2.5698666025	-1.8188235468	-1.0862528383	 0.109262
H	 2.2273379717	-2.0847136394	 1.5219009925	 0.100474
H	 0.6196870797	-0.1830575393	 2.2190718965	 0.102939
H	-1.4742018701	-1.6024706139	 0.0212415804	 0.072514
77.0028	78.4671	212.5401	237.3527	257.0438	322.111	370.6933	443.2403	499.5313	670.963	738.1582	763.2265	794.9228	837.5764	900.1269	922.5187	949.7438	976.2154	990.1224	1015.5512	1036.8857	1113.4	1128.1398	1172.5212	1198.899	1229.4018	1263.708	1310.1291	1322.4125	1376.5444	1406.3897	1426.9477	1481.8996	1489.9513	1491.8882	1500.8967	1680.9395	1825.3185	2856.2356	3019.0607	3042.4526	3049.199	3056.5385	3096.1528	3113.3756	3123.4352	3180.8224	3205.9434
CC1(CCC=C1)C=O	C[C@]1(CCC=C1)C=O	
InChI=1S/C7H10O/c1-7(6-8)4-2-3-5-7/h2,4,6H,3,5H2,1H3	InChI=1S/C7H10O/c1-7(6-8)4-2-3-5-7/h2,4,6H,3,5H2,1H3/t7-/m0/s1
