19
gdb 91485	2.49745	1.61811	1.23096	1.5912	75.73	-0.248	-0.0309	0.2171	1062.7093	0.159094	-423.01668	-423.008554	-423.00761	-423.049462	31.301	
C	-0.1261033131	 1.5135727009	-0.1698080413	-0.417227
C	 0.0524369204	 0.015909771	 0.0131119378	 0.110443
O	 0.9275753361	-0.5387276799	-1.0007709124	-0.294301
C	 1.9110700106	-1.2290607432	-0.2137726355	 0.101858
C	 1.06304391	-1.9588575552	 0.8553130935	-0.283698
C	 0.8079667573	-0.4618071089	 1.2831597213	 0.19496
C	 2.2891405529	-0.2014336698	 0.8787239266	-0.277194
C	 0.2381607632	-0.1354255207	 2.6199776485	 0.041812
O	 0.8331604825	 0.4362047579	 3.5002453348	-0.24792
H	 0.8109915856	 2.0578199305	-0.0302528916	 0.128694
H	-0.4905640221	 1.7180521225	-1.1805552593	 0.133536
H	-0.8628331307	 1.9011036386	 0.5422091951	 0.119895
H	-0.9276164193	-0.4764947519	-0.0582146875	 0.079478
H	 2.6257378802	-1.7271641916	-0.8663463807	 0.087577
H	 0.2116530345	-2.5467976894	 0.5054543815	 0.108834
H	 1.6526629971	-2.5073397938	 1.5911585693	 0.115318
H	 2.986257993	-0.5833382954	 1.6248491489	 0.11673
H	 2.5787290645	 0.7976882406	 0.5519720582	 0.110353
H	-0.8119004128	-0.4813834924	 2.7710885827	 0.070852
67.9675	162.1116	210.2181	216.4985	241.0538	328.6489	438.0155	484.9832	508.2653	530.03	657.2789	713.2479	796.3595	838.8583	852.0618	897.2882	924.6223	959.722	968.9646	980.0638	1032.0461	1036.3418	1089.3737	1100.2844	1126.4454	1150.4106	1173.6976	1208.9586	1224.5519	1237.4458	1259.7811	1306.4972	1349.5578	1390.22	1414.4922	1429.7032	1473.0648	1486.9203	1495.8402	1514.4133	1817.1781	2850.6113	3000.7203	3042.0634	3072.5936	3091.4068	3111.3224	3128.2232	3142.6308	3144.853	3156.315
CC1OC2CC1(C2)C=O	C[C@H]1O[C@@H]2C[C@]1(C2)C=O	
InChI=1S/C7H10O2/c1-5-7(4-8)2-6(3-7)9-5/h4-6H,2-3H2,1H3	InChI=1S/C7H10O2/c1-5-7(4-8)2-6(3-7)9-5/h4-6H,2-3H2,1H3/t5-,6-,7+/m1/s1
