15
gdb 21214	3.49739	1.88287	1.23955	1.1769	64.24	-0.1906	0.0193	0.2099	939.1288	0.121232	-392.156299	-392.148186	-392.147242	-392.188833	28.675	
C	-0.0842096181	 1.4685858058	 0.0012440264	-0.315232
N	 0.0128318717	 0.0204581079	 0.1245263104	-0.394193
C	-1.1654928366	-0.7064928145	 0.0502136114	 0.342151
N	-2.3853358976	-0.1770016289	 0.0886149078	-0.29452
N	-3.1820900742	-1.2503015664	 0.043953421	-0.108078
N	-2.5746958911	-2.4355915094	-0.0278567231	-0.271181
C	-1.2857618409	-2.1180092577	-0.022807506	 0.240457
N	-0.2404710088	-3.0399891083	-0.1442468344	-0.608039
H	 0.9180122073	 1.8970898005	 0.076077516	 0.116817
H	-0.5475230767	 1.7966396077	-0.9407934719	 0.118711
H	-0.692350414	 1.8596106009	 0.8208270705	 0.145735
H	 0.7325151333	-0.3851259055	-0.4603797451	 0.240654
H	-4.1822539464	-1.1648839638	 0.0236741426	 0.284346
H	-0.5956689217	-3.9887148278	-0.1614391551	 0.253116
H	 0.4331968938	-2.9503712806	 0.6092580295	 0.249256
87.8144	160.5148	176.1222	186.8626	235.574	286.5804	312.3427	394.3936	535.115	601.5667	673.8725	696.2167	751.0883	807.4316	843.2591	973.7522	1075.3078	1118.8011	1143.4334	1161.7682	1187.31	1244.9177	1278.7224	1417.7057	1452.3053	1469.0671	1480.4225	1492.76	1517.892	1594.3936	1613.6235	1650.0156	2998.0005	3087.2729	3128.8584	3509.1985	3559.7478	3606.2076	3704.4239
CNC1=NNN=C1N	CNc1n[nH]nc1N	
InChI=1S/C3H7N5/c1-5-3-2(4)6-8-7-3/h1H3,(H4,4,5,6,7,8)	InChI=1S/C3H7N5/c1-5-3-2(4)6-8-7-3/h1H3,(H4,4,5,6,7,8)
