12
gdb 130844	2.7593	1.34238	0.90305	1.8654	66.89	-0.2863	-0.117	0.1694	1154.4122	0.076475	-472.626352	-472.618828	-472.617884	-472.659114	25.89	
O	 0.0255382721	-0.0516974194	-0.0024200138	-0.234084
C	 0.003986877	 1.1523927442	 0.0086693623	 0.086486
C	 1.2137392798	 1.9993469118	 0.0028882292	 0.281507
C	 1.37577818	 3.3666199912	 0.0135809596	-0.020255
C	 0.3732617487	 4.4377295571	 0.0345835906	 0.071561
O	 0.6652072835	 5.6105683489	 0.0419179619	-0.253266
C	 2.7922882146	 3.5222030606	-0.0009087397	-0.012668
N	 3.4089595577	 2.3702073499	-0.0182019101	-0.101319
O	 2.409852213	 1.4016911408	-0.0159149661	-0.190258
H	-0.9424534318	 1.7290301749	 0.0246448782	 0.106171
H	-0.6856905147	 4.1073585524	 0.0433393084	 0.090106
H	 3.3590049001	 4.4414609175	 0.0011306094	 0.176019
100.0353	147.7548	148.0661	223.1584	224.6164	303.9715	415.7114	552.0307	652.6553	680.6834	740.97	800.7328	932.7212	935.3734	959.9147	1011.1996	1031.1893	1130.2947	1193.989	1292.5908	1414.2452	1417.3595	1428.7126	1500.1621	1619.5699	1791.4476	1803.2595	2914.5604	2936.352	3265.3432
O=CC1=C(C=O)C=NO1	O=Cc1c(C=O)cno1	
InChI=1S/C5H3NO3/c7-2-4-1-6-9-5(4)3-8/h1-3H	InChI=1S/C5H3NO3/c7-2-4-1-6-9-5(4)3-8/h1-3H
