25
gdb 122175	2.90499	0.76351	0.68179	0.9182	90.86	-0.2489	0.0872	0.336	1808.6102	0.226511	-389.47567	-389.464395	-389.463451	-389.512607	40.697	
C	 0.0912529855	 1.336948952	-0.2623713397	-0.226898
O	 0.0124468028	-0.019030334	 0.0989278876	-0.229316
C	-1.2859243689	-0.5542774229	-0.0536731585	-0.049755
C	-1.247919248	-2.0198555309	 0.3729927412	-0.283427
C	-2.5608568041	-2.7564750257	 0.1519459607	 0.358283
C	-3.7279580375	-2.2433044442	 0.9805465116	-0.460444
C	-2.8737008518	-3.2666737402	-1.2411676602	-0.329068
C	-2.5505667837	-4.2467226039	-0.1364566482	-0.039175
C	-1.3037411661	-5.1035534066	-0.1773057483	-0.413439
H	 1.1247629961	 1.6588239893	-0.1108318739	 0.124262
H	-0.1785081807	 1.4969038426	-1.319043396	 0.100494
H	-0.5701309821	 1.9661924471	 0.3553241189	 0.100484
H	-2.0041913175	 0.0202440658	 0.5544708648	 0.083692
H	-1.6153470692	-0.472106307	-1.1041143524	 0.085333
H	-0.438385534	-2.4958474026	-0.1876982041	 0.104472
H	-0.9629717233	-2.0667238237	 1.4320371859	 0.100096
H	-3.981341909	-1.2060022494	 0.7348623458	 0.115626
H	-4.6257097694	-2.8458802559	 0.8106029951	 0.111002
H	-3.4982622928	-2.2828417986	 2.0523946388	 0.113275
H	-3.8936848709	-3.200286301	-1.6062198038	 0.102888
H	-2.1202188864	-3.1217755988	-2.0102234478	 0.104422
H	-3.4118226406	-4.7716818912	 0.2719787205	 0.077239
H	-0.4641530266	-4.5944596102	-0.6580570249	 0.118763
H	-0.9829036773	-5.3963038771	 0.8289822513	 0.115827
H	-1.4913862343	-6.022129803	-0.7446037743	 0.115363
51.1867	75.5884	107.7359	120.8446	172.6446	198.4847	225.0497	237.4108	249.7356	293.6996	363.0137	406.3635	427.3375	442.0403	529.0373	722.5162	775.1512	802.6947	878.4666	910.4227	934.3298	976.5689	1006.8213	1019.7971	1025.8171	1060.6568	1077.1412	1120.1619	1133.0131	1152.205	1162.6589	1181.4607	1193.5584	1224.9415	1237.2156	1286.2998	1304.4446	1327.8332	1356.5471	1408.9283	1417.2327	1424.915	1431.3819	1479.7128	1480.555	1484.6514	1491.1988	1493.5532	1498.5465	1502.1009	1506.1436	1509.1726	1533.4085	2948.7717	2966.0276	2979.9736	3004.8076	3021.3641	3027.734	3031.5645	3081.633	3084.5759	3088.8697	3096.6202	3107.1231	3109.3611	3118.2479	3127.0543	3200.5507
COCCC1(C)CC1C	COCC[C@@]1(C)C[C@H]1C	
InChI=1S/C8H16O/c1-7-6-8(7,2)4-5-9-3/h7H,4-6H2,1-3H3	InChI=1S/C8H16O/c1-7-6-8(7,2)4-5-9-3/h7H,4-6H2,1-3H3/t7-,8+/m1/s1
