20
gdb 115650	2.7585	1.25736	1.01694	3.0308	75.58	-0.2251	0.0669	0.292	1240.8693	0.170357	-440.219822	-440.210805	-440.209861	-440.254174	32.804	
C	 0.0974657135	 1.3850392572	 0.0394423148	-0.238052
O	-0.2791951779	 0.0685104557	-0.2999929796	-0.239894
C	 0.5898461108	-0.5442002387	-1.2123655945	 0.065365
C	 1.8859162734	-1.1692633435	-0.619923772	-0.201751
N	 1.2668446732	-2.5093603805	-0.7454891908	-0.358977
C	 0.1488073357	-1.9916052688	-1.5408158096	 0.257981
C	-1.2959275222	-2.4644035726	-1.3090247918	-0.115603
O	-1.5017399793	-2.6542682833	-2.7297223983	-0.275576
C	-0.1133180389	-2.4091037644	-3.0061825065	-0.135577
H	 1.0773226472	 1.4194691918	 0.5381297208	 0.110114
H	 0.1388601053	 2.0339875276	-0.8493131271	 0.107441
H	-0.6593563498	 1.7707733104	 0.7261070352	 0.132474
H	 0.746368622	 0.1022054935	-2.0884135888	 0.067735
H	 2.7755037039	-1.0008604345	-1.2402564499	 0.09366
H	 2.1148059615	-0.8867724462	 0.4135108553	 0.106616
H	 1.8305999751	-3.2260491052	-1.188292331	 0.216572
H	-1.3556019648	-3.4068590794	-0.7495190266	 0.098942
H	-1.9828899149	-1.7286503407	-0.8815756947	 0.120327
H	 0.0327762479	-1.6436695264	-3.7797538781	 0.099743
H	 0.4195988484	-3.3250889319	-3.3057810069	 0.088462
75.0577	84.7056	114.7284	165.5334	199.7356	273.4439	313.8512	356.0236	451.7681	486.8426	530.732	656.4267	826.9146	846.8915	897.3546	924.3426	945.6584	988.4287	999.6007	1024.4334	1032.4137	1055.2585	1121.431	1147.3385	1151.3091	1157.5661	1180.4691	1184.1104	1217.9173	1229.3342	1236.6957	1264.6718	1297.0563	1323.1368	1369.3336	1388.8455	1392.4312	1481.29	1488.316	1499.5264	1507.2054	1508.7012	1527.0071	2976.4376	2976.881	2989.7729	3014.617	3021.0371	3027.5299	3034.0798	3064.3316	3094.9569	3119.9856	3534.7469
COC1CNC11COC1	CO[C@H]1CNC21COC2	
InChI=1S/C6H11NO2/c1-8-5-2-7-6(5)3-9-4-6/h5,7H,2-4H2,1H3	InChI=1S/C6H11NO2/c1-8-5-2-7-6(5)3-9-4-6/h5,7H,2-4H2,1H3/t5-/m0/s1
