14
gdb 128622	3.08953	1.40408	0.97126	3.7073	69.58	-0.2514	-0.0806	0.1708	1136.2156	0.100726	-469.980962	-469.973124	-469.97218	-470.01395	28.158	
C	-0.0511254781	 1.3797299038	 0.074150264	-0.246073
O	 0.0207534438	-0.052723882	-0.0327225267	-0.250843
C	 0.6330382394	-0.5395675513	-1.1046582325	 0.429528
N	 1.142062779	 0.2104236922	-2.0118723422	-0.379563
C	 1.7559297328	-0.404184402	-3.0851442502	 0.456312
N	 2.2873545945	 0.2407622493	-4.0303596259	-0.511485
O	 1.7910910026	-1.822810367	-3.1272593454	-0.275292
N	 1.2379241864	-2.6046643088	-2.1419595523	-0.02863
C	 0.678408357	-1.9926968517	-1.1647209567	-0.043414
H	 0.9528374315	 1.8091460281	 0.0994224808	 0.157121
H	-0.5922941127	 1.7970756798	-0.7778679978	 0.157128
H	-0.5815896597	 1.5722007247	 1.0057902795	 0.143507
H	 2.6834635816	-0.3978290167	-4.7194314503	 0.234174
H	 0.2414222819	-2.6071101486	-0.3864925342	 0.15753
68.6074	141.5132	156.294	211.948	229.5946	415.8729	423.5842	479.9577	584.0446	601.9196	713.693	719.1522	757.3402	851.0109	860.0683	899.5079	947.1567	1003.5948	1024.6565	1113.8275	1177.2821	1212.1531	1265.221	1313.5368	1397.9876	1478.6591	1485.592	1494.861	1640.0843	1696.5903	1758.6844	3059.3702	3139.1077	3171.6316	3211.9805	3507.357
COC1=NC(=N)ON=C1	CO[C]1N=C([NH])ON=C1	
InChI=1S/C4H5N3O2/c1-8-3-2-6-9-4(5)7-3/h2,5H,1H3	InChI=1S/C4H5N3O2/c1-8-3-2-6-9-4(5)7-3/h2,5H,1H3
