20
gdb 65675	3.40727	1.12878	1.10585	3.4674	79.82	-0.2432	0.0295	0.2727	1205.455	0.170976	-403.144401	-403.135595	-403.134651	-403.177954	33.545	
C	 0.1255478201	 1.5668134494	-0.2941493784	-0.466307
C	 0.0785408917	 0.0815663336	 0.0092909891	 0.34597
N	-1.151721669	-0.5503942193	-0.4194525553	-0.333949
C	-2.3458055731	-0.3763184109	 0.2130658026	 0.151641
O	-2.5110408732	 0.2327545146	 1.2475551469	-0.325778
C	 1.2476968816	-0.8679641634	-0.1090642889	-0.117857
C	 2.5632665532	-0.2037912565	 0.3124825294	-0.24892
C	 1.9353585238	 0.1135947244	 1.7107012452	-0.242393
C	 0.6321602044	-0.5553801127	 1.2615981089	-0.053628
H	 1.0583270854	 2.0295934407	 0.0336567862	 0.121934
H	 0.025012314	 1.7432470414	-1.3710232164	 0.107295
H	-0.7009159359	 2.0687592776	 0.216670242	 0.148296
H	-1.1706720506	-0.9862603566	-1.3294153072	 0.24383
H	-3.171126865	-0.878836294	-0.3327877278	 0.072173
H	 1.1654579656	-1.7697221605	-0.7067897281	 0.077736
H	 3.382586491	-0.9216282669	 0.3871876683	 0.107636
H	 2.9026726638	 0.6422571733	-0.2929713162	 0.098982
H	 2.4288243779	-0.4397268474	 2.5122077051	 0.108029
H	 1.8694341556	 1.1639827943	 2.0090242476	 0.104298
H	-0.0110045113	-1.1646432413	 1.882540757	 0.101012
55.4004	135.9915	197.7057	204.9866	244.9486	276.4216	308.6696	420.076	436.0026	478.4234	529.4876	655.7068	717.0914	786.8007	807.7246	843.0427	911.1794	932.0437	950.8256	977.5819	1008.8117	1016.6814	1033.3609	1037.318	1096.4337	1098.3703	1127.508	1176.8293	1218.0149	1223.6765	1256.0101	1261.0381	1283.5732	1291.8155	1409.9836	1415.246	1431.5278	1474.1258	1491.9756	1500.072	1509.4343	1511.2009	1807.7732	2918.276	3038.0733	3052.665	3061.3431	3101.0718	3106.1795	3118.8268	3131.7246	3160.0067	3204.3736	3606.2316
CC1(NC=O)C2CCC12	C[C@@]1(NC=O)[C@H]2CC[C@@H]12	
InChI=1S/C7H11NO/c1-7(8-4-9)5-2-3-6(5)7/h4-6H,2-3H2,1H3,(H,8,9)	InChI=1S/C7H11NO/c1-7(8-4-9)5-2-3-6(5)7/h4-6H,2-3H2,1H3,(H,8,9)/t5-,6+,7+
