21
gdb 121793	2.58486	0.90595	0.82695	3.965	79.96	-0.2534	0.0263	0.2797	1501.8755	0.18096	-420.408191	-420.397553	-420.396608	-420.444377	38.564	
C	 0.1835813609	 1.5376803309	 0.0684417988	-0.406008
C	-0.0365933293	 0.0054289661	 0.0718188165	 0.103205
C	 0.7063036552	-0.645099423	 1.2576333228	-0.39248
N	-1.4580114293	-0.3981106639	 0.0717457335	-0.326497
C	-2.3136927485	 0.1165859058	 1.1464677658	-0.168498
C	-3.6018732667	-0.7097361039	 1.1564198522	-0.055422
O	-3.3271090696	-2.0806068138	 1.3289836801	-0.416639
C	 0.5331202966	-0.5414387385	-1.178486377	 0.271925
N	 0.9792718048	-0.9465140127	-2.1641755121	-0.333979
H	 1.2478405077	 1.7781798166	-0.0006931957	 0.138161
H	-0.3280642541	 2.0022420159	-0.7792094963	 0.129105
H	-0.2066110774	 1.9707508213	 0.993229846	 0.128883
H	 0.3741762241	-0.2098451209	 2.2031543881	 0.128581
H	 0.5183949276	-1.7203436291	 1.2785888606	 0.143825
H	 1.7815766856	-0.4740613317	 1.1681126003	 0.137774
H	-1.866583426	-0.1532812078	-0.8257008654	 0.231621
H	-1.8032313718	-0.0321836334	 2.1021542143	 0.120611
H	-2.5509330211	 1.1884341587	 1.0542784951	 0.091988
H	-4.2421795593	-0.3912622134	 1.985826963	 0.109112
H	-4.161008935	-0.5220039292	 0.2217015958	 0.080858
H	-2.5765582344	-2.2597732739	 0.7455489635	 0.283875
39.5833	73.0514	127.4308	171.5711	190.2594	234.0562	252.2658	266.4516	283.0138	364.8102	398.0247	437.7182	491.5933	521.9645	585.5092	595.2954	721.3607	772.0603	862.2017	902.0394	928.4858	934.8742	987.6302	1024.0334	1086.232	1097.143	1121.5978	1171.7543	1214.7155	1221.1751	1260.0722	1285.2949	1375.4568	1381.8098	1396.0771	1418.1979	1443.0216	1476.7067	1479.197	1493.655	1495.5968	1505.4755	1506.4743	1521.3298	2359.4454	2940.7136	2976.8857	3044.7888	3057.1371	3071.3954	3092.2475	3122.8164	3124.9541	3133.1138	3143.9914	3506.0575	3742.3788
CC(C)(NCCO)C#N	CC(C)(NCCO)C#N	
InChI=1S/C6H12N2O/c1-6(2,5-7)8-3-4-9/h8-9H,3-4H2,1-2H3	InChI=1S/C6H12N2O/c1-6(2,5-7)8-3-4-9/h8-9H,3-4H2,1-2H3
