15
gdb 79421	2.69175	1.72522	1.30586	2.6907	67.41	-0.2461	-0.0438	0.2023	955.5893	0.110576	-457.612106	-457.604636	-457.603692	-457.644021	28.826	
O	 0.1610391213	 1.4827386762	 0.1908313478	-0.404469
C	 0.0514366547	 0.0919311986	 0.0763214624	-0.05469
C	-1.3615465067	-0.5694295544	 0.1247818374	-0.047622
C	-2.7590603933	-0.2213659921	-0.474505985	-0.002204
C	-2.1181794896	 0.6926661135	-1.5111465442	-0.253215
C	-1.3228786932	-0.6602253521	-1.4107540469	 0.238921
O	-2.6125067551	-1.385239617	-1.4588628071	-0.377557
C	 0.210494744	-0.5722108467	-1.4081228143	 0.289929
O	 1.1449079923	-0.9491139864	-2.0372788428	-0.280018
H	 1.0718135911	 1.7297299495	-0.0065728743	 0.301752
H	 0.7317192835	-0.4267950409	 0.766034205	 0.113555
H	-1.3318064541	-1.5318985907	 0.6362494523	 0.105921
H	-3.7298480522	-0.1812004764	 0.0232478923	 0.105561
H	-2.6677007021	 0.794999674	-2.445980368	 0.120086
H	-1.6323342305	 1.6035530548	-1.1707670047	 0.14405
88.6549	204.8169	229.0914	278.4651	291.8053	370.8449	470.6993	548.4154	568.3278	603.9646	688.9347	764.8218	770.4997	828.269	849.1604	912.6463	949.8253	995.8305	1010.2276	1051.5765	1073.2533	1119.3714	1135.4913	1160.8693	1191.2799	1201.5482	1211.7946	1238.7832	1274.025	1345.8477	1407.6543	1489.4231	1891.0608	3007.5956	3095.1029	3107.0976	3115.4581	3194.2527	3800.6056
OC1C2C3CC2(O3)C1=O	O[C@H]1[C@H]2[C@H]3C[C@@]2(O3)C1=O	
InChI=1S/C6H6O3/c7-4-3-2-1-6(3,9-2)5(4)8/h2-4,7H,1H2	InChI=1S/C6H6O3/c7-4-3-2-1-6(3,9-2)5(4)8/h2-4,7H,1H2/t2-,3-,4+,6+/m1/s1
