21
gdb 64217	2.78627	1.22105	1.10497	0.6521	78.27	-0.2528	0.078	0.3308	1210.7502	0.181055	-424.195919	-424.186661	-424.185716	-424.229683	35.443	
C	 0.0104345384	 1.5714993088	 0.0190638306	-0.448618
C	 0.0161353413	 0.046664115	-0.014262891	 0.388835
O	-1.2750613501	-0.4633318119	-0.2974274869	-0.479931
C	 1.1988242003	-0.5505131417	-0.8396437854	-0.281044
C	 1.9580471705	-0.8132793966	 0.4881310612	-0.257865
C	 0.6160863155	-0.6465302948	 1.2492640523	-0.013858
C	 0.5856579187	 0.0611790495	 2.57517607	 0.046083
C	 1.6876638303	-0.0272907489	 3.5423659017	-0.18367
O	 1.4941815954	 1.1550726397	 2.7637400408	-0.234186
H	 0.9827992946	 1.9720034565	 0.3149580757	 0.142393
H	-0.2305376869	 1.9664662153	-0.9763576614	 0.09972
H	-0.7383155569	 1.9405946412	 0.7264697745	 0.122439
H	-1.6451306894	 0.0412155847	-1.0300032808	 0.273119
H	 0.8852374014	-1.4783935865	-1.3241319309	 0.104319
H	 1.6768864348	 0.0999954523	-1.5770337844	 0.091178
H	 2.4714342543	-1.7711733127	 0.589061947	 0.097971
H	 2.6537191797	-0.0075679136	 0.7346510982	 0.119772
H	 0.1091506785	-1.6119247522	 1.3553304787	 0.088493
H	-0.4125282333	 0.2539976713	 2.9728822342	 0.096522
H	 1.4859804101	 0.0764798737	 4.6075195044	 0.113908
H	 2.5740276829	-0.6083751091	 3.2920294515	 0.114421
87.9447	108.4518	165.3517	224.3636	263.492	268.1483	278.1353	327.6022	353.1969	426.5094	517.9538	596.6437	617.5446	723.0404	779.9014	837.0102	884.0115	901.3273	907.329	945.9974	955.7503	984.0308	1004.0793	1047.7201	1093.8298	1119.7633	1147.2702	1163.642	1167.3334	1181.7009	1190.5146	1216.4675	1248.1	1268.9345	1281.7099	1302.9977	1367.8669	1377.3501	1411.2824	1425.9356	1477.3062	1487.8159	1497.1191	1500.5144	1525.7732	3022.7389	3053.47	3057.519	3069.6503	3083.8617	3092.8608	3095.3926	3110.3458	3127.0842	3131.1364	3170.8175	3800.5306
CC1(O)CCC1C1CO1	C[C@@]1(O)CC[C@H]1[C@H]1CO1	
InChI=1S/C7H12O2/c1-7(8)3-2-5(7)6-4-9-6/h5-6,8H,2-4H2,1H3	InChI=1S/C7H12O2/c1-7(8)3-2-5(7)6-4-9-6/h5-6,8H,2-4H2,1H3/t5-,6+,7+/m0/s1
