18
gdb 56562	2.8448	1.0403	0.94783	3.3243	74.92	-0.2251	0.0303	0.2553	1296.3638	0.147557	-435.248239	-435.238065	-435.237121	-435.283469	37.227	
N	-0.5678224518	 1.0796759022	-0.1376597327	-0.521631
C	 0.0392759301	-0.2583566589	 0.0207435721	-0.184296
C	 0.7686802502	-0.7044911237	-1.1700882267	 0.332283
C	 1.3542102679	-1.0586899654	-2.1587677134	-0.444017
C	 0.9620802205	-0.2561226115	 1.2739370634	-0.04624
N	 1.8825983263	 0.8916815729	 1.2088396705	-0.527506
C	 0.1831635504	-0.3014171342	 2.6044879057	 0.34323
N	-0.8121598898	 0.6237656969	 2.7093481275	-0.513162
O	 0.4979117425	-1.0615161725	 3.5012178807	-0.371308
H	 0.1842212637	 1.7251005671	-0.3695813428	 0.249286
H	-1.1976477621	 1.0724635108	-0.9341854561	 0.242443
H	-0.7774501103	-0.9660399871	 0.2114746488	 0.120149
H	 1.8743853317	-1.3740345763	-3.0293111372	 0.198175
H	 1.5498094293	-1.1741830121	 1.2538006045	 0.117023
H	 1.492368524	 1.6729115101	 1.7271569331	 0.237313
H	 2.7558327861	 0.6562844094	 1.6668211396	 0.247299
H	-1.1248185769	 1.110811021	 1.8753683873	 0.26841
H	-1.373604682	 0.6150601712	 3.5458130955	 0.25255
55.8937	84.0769	133.3194	157.5451	216.2672	236.2574	283.4599	297.4938	357.6251	386.0561	427.2438	482.6749	564.0187	580.5588	629.9825	650.1748	696.3264	728.2605	791.7982	843.5933	859.6772	907.3304	962.6604	1016.5901	1068.9995	1119.5007	1152.0311	1160.5784	1234.5286	1291.9025	1345.3029	1357.4086	1389.784	1408.3026	1607.6981	1641.6716	1664.5958	1796.6327	2229.7845	3032.2892	3116.9418	3472.4907	3486.77	3503.2992	3508.1422	3566.1758	3588.5882	3677.7264
NC(C#C)C(N)C(N)=O	N[C@@H](C#C)[C@@H](N)C(=O)N	
InChI=1S/C5H9N3O/c1-2-3(6)4(7)5(8)9/h1,3-4H,6-7H2,(H2,8,9)	InChI=1S/C5H9N3O/c1-2-3(6)4(7)5(8)9/h1,3-4H,6-7H2,(H2,8,9)/t3-,4+/m0/s1
