17
gdb 117605	2.21397	1.14041	0.95214	4.6477	74.83	-0.2441	-0.0171	0.227	1314.0416	0.135235	-414.180555	-414.170504	-414.169559	-414.215664	35.246	
C	-0.0423115316	 1.4773459419	 0.0180913553	-0.318274
N	-0.0268134905	 0.02371251	-0.0591036923	-0.276228
C	 0.7738746746	-0.4932352062	-1.1399023008	-0.12558
C	 0.708408048	-2.0453050555	-1.1426495806	-0.103682
N	 1.2657138083	-2.5400006838	 0.1242927138	-0.512248
C	-0.69494153	-2.4961589519	-1.2441525768	 0.34053
N	-1.7753979052	-2.8883659679	-1.3464443858	-0.31807
C	 1.4521929327	-2.5517752757	-2.3246182611	 0.278787
N	 2.0952467075	-2.9360676994	-3.2042510024	-0.320891
H	 0.958429448	 1.9356513658	 0.1083681957	 0.099504
H	-0.5168701694	 1.8890620473	-0.8794536999	 0.131368
H	-0.6388082722	 1.7851247702	 0.8806264994	 0.131788
H	 0.2822728364	-0.3881303841	 0.8141294715	 0.237529
H	 0.3859319855	-0.1230076565	-2.0948561335	 0.13944
H	 1.846976144	-0.2198676093	-1.1014245766	 0.097669
H	 1.1252519307	-3.5423905254	 0.2080958204	 0.263432
H	 2.2687953031	-2.3735611495	 0.1311885737	 0.254925
76.3078	116.6411	126.025	137.2317	190.9418	226.1691	239.3541	291.8784	305.4532	350.9371	404.982	486.4357	527.6919	579.757	627.0573	731.5406	795.5463	869.2293	959.0599	983.1697	1033.9389	1050.766	1126.8846	1150.6185	1184.5698	1215.3272	1271.0149	1347.0605	1378.2766	1461.4382	1486.3066	1491.1102	1510.2515	1517.4002	1654.7965	2352.775	2374.3837	2910.0424	2950.6304	3062.6473	3071.4129	3115.6939	3494.0514	3544.573	3579.7498
CNCC(N)(C#N)C#N	CNCC(N)(C#N)C#N	
InChI=1S/C5H8N4/c1-9-4-5(8,2-6)3-7/h9H,4,8H2,1H3	InChI=1S/C5H8N4/c1-9-4-5(8,2-6)3-7/h9H,4,8H2,1H3
