19
gdb 98463	2.33048	1.28536	0.94498	2.9073	72.04	-0.2515	-0.0359	0.2156	1295.4773	0.156327	-460.157334	-460.147465	-460.146521	-460.192779	35.356	
C	 0.4445011358	 1.6420281857	 0.0440844657	-0.382388
C	 0.8351393568	 0.166802046	 0.0046261599	-0.288254
C	 0.2534376975	-0.5713242736	-1.1846954041	 0.327897
O	-0.5354801865	-0.0550046445	-1.9525861065	-0.335425
C	 0.6313271898	-2.0217066938	-1.3862917041	 0.285927
C	-0.3222857747	-2.8288761946	-2.2555053567	-0.130659
O	-1.6752840571	-2.6735741173	-1.892591016	-0.421334
C	 2.0560142854	-2.416525281	-1.3339420499	-0.226699
O	 1.1955964519	-2.6736627386	-0.2362168359	-0.253451
H	 0.8106147115	 2.1710035852	-0.8400073532	 0.128165
H	-0.6417898028	 1.7571667156	 0.0645028729	 0.135601
H	 0.8617765075	 2.1240196068	 0.9321547143	 0.114203
H	 1.9247489172	 0.0406572429	 0.0120424382	 0.124538
H	 0.4936990273	-0.3669685538	 0.9012508682	 0.150878
H	-0.1492011061	-2.5559956957	-3.3074129523	 0.102773
H	-0.0747915472	-3.8877730845	-2.1337442246	 0.118841
H	-1.9023322239	-1.7594489278	-2.103281915	 0.298778
H	 2.3662227159	-3.2903719769	-1.9067294532	 0.128372
H	 2.8316572816	-1.6703889499	-1.1716711778	 0.122237
53.4976	65.7346	115.1775	171.6958	195.3694	222.8918	289.8511	301.9833	328.6777	436.1515	500.6403	507.1691	544.793	589.9584	729.406	798.2037	808.6384	892.049	953.3841	978.3878	997.144	1029.29	1085.5549	1097.0074	1112.6702	1135.8454	1165.5969	1218.198	1269.7109	1296.9042	1354.1174	1384.3032	1400.1594	1416.2454	1436.5282	1438.1055	1480.2568	1494.5723	1498.8639	1525.3472	1773.6216	2993.2297	3037.0477	3052.7041	3061.6645	3082.6772	3088.8287	3122.8037	3130.2122	3170.5919	3786.2547
CCC(=O)C1(CO)CO1	CCC(=O)[C@@]1(CO)CO1	
InChI=1S/C6H10O3/c1-2-5(8)6(3-7)4-9-6/h7H,2-4H2,1H3	InChI=1S/C6H10O3/c1-2-5(8)6(3-7)4-9-6/h7H,2-4H2,1H3/t6-/m1/s1
