20
gdb 99814	1.93387	1.40509	1.12178	1.8633	79.46	-0.262	-0.0326	0.2294	1230.3618	0.167351	-403.193636	-403.182831	-403.181887	-403.229848	38.239	
C	 0.0917058093	 1.3616021552	-0.3882506355	-0.412468
C	-0.1867906692	-0.1213780668	-0.1345649232	-0.189123
C	-1.6584524737	-0.4605490167	 0.2754444732	-0.028691
C	-2.0395398737	 0.1780023204	 1.6276051872	-0.413252
C	-2.5768495984	 0.005860474	-0.7692500854	 0.279804
N	-3.2997775022	 0.3795305114	-1.5909833545	-0.356565
C	-1.7034149331	-2.016561322	 0.4096155087	 0.385886
C	-2.1892845748	-2.8276701343	-0.7688239127	-0.493444
O	-1.3099830902	-2.5216341955	 1.4315946472	-0.299732
H	 1.1277287683	 1.4927194213	-0.7139535701	 0.12583
H	-0.5596824668	 1.7616625374	-1.1709656649	 0.1458
H	-0.0478961037	 1.9647263317	 0.5129870243	 0.12798
H	 0.0625953491	-0.6935871509	-1.0356959793	 0.113997
H	 0.4514489465	-0.5019197189	 0.6692726199	 0.128372
H	-1.9469815275	 1.2645153445	 1.5871879675	 0.13378
H	-3.0708445513	-0.0662105704	 1.894212353	 0.136325
H	-1.3816960758	-0.2195248939	 2.4018407791	 0.14894
H	-3.2638422253	-2.6669442151	-0.9090940616	 0.168292
H	-1.7072729962	-2.5051022733	-1.6972207	 0.152288
H	-1.9954649714	-3.8848307881	-0.5865433829	 0.145979
34.0375	91.2009	149.2931	155.6904	166.0734	196.7564	218.1289	245.1333	286.5966	321.5267	351.4684	410.707	508.5642	572.5949	578.1874	607.2152	662.9597	790.0891	835.3026	902.0684	957.6952	1011.2341	1026.8292	1033.3399	1083.2718	1140.1935	1148.6372	1217.4997	1222.4106	1326.4226	1361.992	1387.4947	1404.5603	1416.7641	1454.8156	1470.6068	1480.8424	1487.518	1496.3666	1504.3737	1508.4002	1816.6516	2345.7252	3038.0432	3045.4523	3046.2379	3061.862	3084.8498	3106.7814	3115.003	3122.9135	3135.5499	3155.4166	3159.139
CCC(C)(C#N)C(C)=O	CC[C@@](C)(C#N)C(=O)C	
InChI=1S/C7H11NO/c1-4-7(3,5-8)6(2)9/h4H2,1-3H3	InChI=1S/C7H11NO/c1-4-7(3,5-8)6(2)9/h4H2,1-3H3/t7-/m0/s1
