20
gdb 72141	2.58475	1.99434	1.79917	0.8868	76.99	-0.2066	0.0892	0.2957	903.4365	0.174077	-403.133237	-403.126421	-403.125477	-403.163838	29.205	
C	 0.0428782838	 1.4918679453	 0.0095872474	-0.490238
C	 0.0051670737	-0.0146298289	-0.0623946075	 0.329199
C	 0.8023846197	-0.7402692449	-1.1388110159	-0.281116
C	 0.382071732	-2.1253435856	-0.6342598574	 0.07635
C	 0.860992409	-2.0433366472	 0.8262803231	-0.182231
N	 0.3311696403	-0.7215128189	 1.2796047796	-0.168533
C	-1.153714259	-0.8829203687	 1.4882702421	-0.197728
C	-1.3609421954	-0.7755715546	-0.0241871824	 0.068907
O	-1.0542593966	-2.0361409557	-0.6422816723	-0.286985
H	 1.0625426152	 1.8381406952	 0.204728546	 0.126957
H	-0.2959336432	 1.9326889939	-0.9341675128	 0.117234
H	-0.5959356767	 1.8756185737	 0.810671396	 0.122307
H	 0.4369268114	-0.5291799278	-2.1467510172	 0.106241
H	 1.8777568475	-0.5522990515	-1.0815758913	 0.105093
H	 0.6804398379	-3.0018661247	-1.2097595813	 0.076683
H	 0.4752810617	-2.8483552448	 1.4564867577	 0.105966
H	 1.955529386	-2.0544597932	 0.8862367427	 0.098629
H	-1.4595903345	-1.8187080669	 1.9635086842	 0.103468
H	-1.5509468959	-0.0360594138	 2.0568282787	 0.101754
H	-2.2825382169	-0.3787247007	-0.4599285995	 0.068042
209.3361	244.324	283.5955	365.9662	411.8916	462.6499	500.8684	571.0617	618.3327	656.8463	775.0337	800.1414	837.7912	860.7818	897.9086	905.5364	919.2429	946.9589	963.1235	969.5769	997.631	1020.8135	1064.1979	1081.7298	1118.6481	1158.4196	1185.0098	1189.1771	1222.4844	1238.8324	1247.726	1284.5841	1294.7727	1305.0733	1321.1798	1333.4065	1370.9814	1417.7652	1473.7712	1483.8749	1491.7907	1494.2507	1511.1981	3033.8113	3034.778	3042.812	3063.5063	3067.2471	3098.9288	3103.3893	3104.8118	3108.4895	3120.9365	3123.8973
CC12CC3CN1CC2O3	C[C@@]12C[C@H]3CN1C[C@@H]2O3	
InChI=1S/C7H11NO/c1-7-2-5-3-8(7)4-6(7)9-5/h5-6H,2-4H2,1H3	InChI=1S/C7H11NO/c1-7-2-5-3-8(7)4-6(7)9-5/h5-6H,2-4H2,1H3/t5-,6-,7-/m0/s1
