23
gdb 107023	2.83199	1.25275	1.04276	0.8744	85.63	-0.2392	0.0793	0.3185	1278.7228	0.203992	-388.256499	-388.246514	-388.24557	-388.290963	37.613	
C	-0.0656083524	 0.7080752502	 1.0204878592	-0.256348
O	-0.1897952383	-0.4384135983	 0.1972633398	-0.285184
C	-1.4959935813	-0.7958519601	-0.0724298391	 0.450591
C	-2.3518951759	-1.4989961035	 0.9452623491	-0.351129
C	-2.0018892821	-2.1962123811	-0.3550768605	-0.161906
C	-2.8656978061	-1.6757919458	-1.514351243	 0.012758
C	-4.3635852665	-1.9600106994	-1.4953021258	-0.404017
C	-2.3317356116	-0.2113878421	-1.2262652191	-0.072092
C	-3.3144381183	 0.9214312356	-0.9508165246	-0.415524
H	 1.000929848	 0.8520841204	 1.2091358596	 0.124523
H	-0.4624742854	 1.608940427	 0.531773867	 0.11079
H	-0.586888529	 0.573166572	 1.9785897409	 0.109299
H	-1.7958889148	-1.8668518482	 1.8019619825	 0.113614
H	-3.3682206668	-1.1886430402	 1.1728729452	 0.101937
H	-1.4469332205	-3.1267554152	-0.354195004	 0.089374
H	-2.4542541841	-2.0203307098	-2.4681747695	 0.074369
H	-4.8306599696	-1.6748425041	-0.547702292	 0.113063
H	-4.8807177122	-1.4196971622	-2.2958841963	 0.112102
H	-4.5516254296	-3.0291066162	-1.6433842927	 0.11427
H	-1.6542938875	 0.0819256149	-2.034492275	 0.077589
H	-3.9708025825	 0.7004679027	-0.1037704166	 0.114317
H	-2.7850414832	 1.8531449385	-0.7233242878	 0.113763
H	-3.9515656101	 1.1118957448	-1.8217392574	 0.11384
78.5651	116.2571	171.7321	187.747	209.8096	215.7383	224.8733	273.0744	326.6216	391.0259	432.6119	495.0762	567.5923	637.6306	680.7246	754.1433	828.4422	869.3864	933.7407	952.1638	967.4491	1005.4103	1020.7477	1049.2155	1064.2794	1072.7804	1085.4603	1110.6219	1150.0979	1162.8743	1180.3946	1205.45	1219.3188	1237.6647	1264.2052	1304.4212	1358.3973	1362.9479	1393.1514	1406.7048	1414.8153	1473.4608	1486.1253	1489.9883	1490.6774	1497.338	1501.9532	1506.8409	1507.8121	2992.1438	3028.4546	3031.9359	3042.3922	3045.1389	3060.3104	3088.7275	3092.7256	3101.2142	3107.8841	3113.7853	3116.6443	3181.7366	3201.5471
COC12CC1C(C)C2C	CO[C@]12C[C@H]1[C@@H](C)[C@H]2C	
InChI=1S/C8H14O/c1-5-6(2)8(9-3)4-7(5)8/h5-7H,4H2,1-3H3	InChI=1S/C8H14O/c1-5-6(2)8(9-3)4-7(5)8/h5-7H,4H2,1-3H3/t5-,6+,7-,8-/m0/s1
