22
gdb 63678	3.69215	0.70671	0.69393	3.8223	85.55	-0.2445	0.0353	0.2798	1738.9926	0.192833	-404.37138	-404.360968	-404.360023	-404.407868	37.769	
C	 0.0886353055	 1.4682656533	-0.4018533612	-0.453771
C	-0.0152362828	 0.0174437728	 0.0346991132	 0.337248
C	-1.3533635008	-0.618344466	-0.2986772426	-0.44669
C	 1.2158878919	-0.8565196137	-0.0559896612	-0.340843
C	 0.6640073719	-0.4608202163	 1.30135334	-0.034166
C	 1.4454014952	 0.4417758579	 2.2308209779	-0.191948
N	 2.4358059095	-0.3098287116	 2.9922156671	-0.269307
C	 2.5228039012	-0.275363723	 4.3476141907	 0.154021
O	 1.8336437097	 0.4022085541	 5.0812409428	-0.324394
H	 1.0791335367	 1.892512512	-0.2209495303	 0.114992
H	-0.1114756414	 1.5546513073	-1.4761840231	 0.116235
H	-0.6447674094	 2.0938682929	 0.1202423594	 0.119702
H	-1.5424924547	-0.5900753115	-1.3783438029	 0.114864
H	-1.3918943824	-1.6647096835	 0.0195665812	 0.112882
H	-2.1757084972	-0.0882187961	 0.1959445321	 0.118249
H	 1.1060241013	-1.8851066928	-0.3838454329	 0.109062
H	 2.1397801816	-0.3847786792	-0.3795573874	 0.103773
H	 0.1331634502	-1.2465989555	 1.8340722912	 0.08901
H	 1.9402773851	 1.244354547	 1.6716765068	 0.105415
H	 0.7947332349	 0.913389981	 2.9716315041	 0.149318
H	 3.0454892261	-0.936096503	 2.4900729345	 0.246048
H	 3.3169236777	-0.9524468362	 4.7222314807	 0.0703
27.5076	59.1064	125.6843	184.1878	205.5703	222.9312	254.6919	269.8031	326.1998	365.3604	390.0406	439.1933	498.7072	546.7682	696.2043	749.7558	855.6943	874.7471	909.1864	921.0048	969.8581	978.3608	1008.8327	1032.1757	1049.9199	1059.0423	1096.6473	1134.8247	1154.7382	1178.5132	1208.9514	1258.6709	1296.3482	1331.8553	1366.2025	1411.7929	1424.8745	1430.7776	1433.1041	1481.6919	1487.3035	1493.1493	1500.5251	1503.1954	1513.9769	1530.946	1805.4146	2928.0477	3021.0766	3026.9596	3036.436	3080.8436	3083.9818	3099.4101	3106.069	3114.1749	3118.2517	3132.9255	3201.7372	3630.0007
CC1(C)CC1CNC=O	CC1(C)C[C@H]1CNC=O	
InChI=1S/C7H13NO/c1-7(2)3-6(7)4-8-5-9/h5-6H,3-4H2,1-2H3,(H,8,9)	InChI=1S/C7H13NO/c1-7(2)3-6(7)4-8-5-9/h5-6H,3-4H2,1-2H3,(H,8,9)/t6-/m0/s1
