15
gdb 44750	2.68637	1.88213	1.33595	5.7208	65.48	-0.2566	-0.0748	0.1818	933.3268	0.113933	-457.794715	-457.787888	-457.786944	-457.8261	26.619	
O	-0.0288353654	 0.1023609083	 0.5100144488	-0.293405
C	-0.0251621312	 1.22204556	 0.0955723168	 0.32075
O	-1.1767234778	 1.8587552872	-0.242519736	-0.232306
C	-1.0719299567	 3.2105944356	-0.733413034	 0.119089
C	 0.0189662232	 3.3052628846	-1.8208780922	-0.260929
C	 1.0303901284	 3.4489928282	-0.6343879492	-0.133366
C	-0.1599059566	 4.0483192127	 0.1874522346	-0.260915
C	 1.28252925	 2.0617026646	-0.0987472961	 0.299964
O	 2.3504098752	 1.5879024318	 0.1722481866	-0.279347
H	-2.0941583942	 3.5230601807	-0.9400577401	 0.104741
H	 0.1228812806	 2.4594790325	-2.5044985856	 0.129813
H	-0.0525835868	 4.2352321221	-2.3886109963	 0.127668
H	 1.9563127716	 4.0091192822	-0.7591420159	 0.100738
H	-0.2652870163	 5.1187321632	-0.0006804807	 0.127676
H	-0.2124822039	 3.8526486164	 1.2609670292	 0.12983
89.9046	178.6414	341.2486	373.6874	418.465	436.664	485.7829	540.9719	568.6988	679.1266	798.3878	820.4675	887.898	889.1884	901.4489	956.5747	987.1228	992.4311	1069.522	1076.6061	1112.84	1148.3232	1158.5013	1244.7557	1246.1635	1272.2361	1275.5472	1318.9018	1385.8547	1470.8411	1498.3177	1848.0438	1868.8436	3070.1432	3072.9342	3126.1562	3131.1987	3132.2985	3136.066
O=C1OC2CC(C2)C1=O	O=C1O[C@@H]2C[C@@H](C2)C1=O	
InChI=1S/C6H6O3/c7-5-3-1-4(2-3)9-6(5)8/h3-4H,1-2H2	InChI=1S/C6H6O3/c7-5-3-1-4(2-3)9-6(5)8/h3-4H,1-2H2/t3-,4+
