23
gdb 106969	3.26113	1.04912	0.97205	1.4251	86.19	-0.2434	0.0758	0.3191	1366.4186	0.204114	-388.275232	-388.265446	-388.264502	-388.309332	38.125	
C	 0.0877544841	 1.517904881	 0.2605891053	-0.371755
C	 0.0058956045	 0.0268604031	-0.0951570093	-0.297433
C	-1.4049207084	-0.4951411418	-0.1095311226	 0.399544
C	-2.1265036958	-0.9683425797	 1.1222953517	-0.336749
C	-1.9224649995	-1.9361398239	-0.0125116719	-0.139833
C	-2.9358550576	-1.6745025456	-1.125261879	 0.416683
C	-2.6600807141	-2.466988341	-2.3983198002	-0.45159
O	-4.2697559168	-1.8778534477	-0.6829657789	-0.476203
C	-2.4449502859	-0.1800632648	-1.1971483803	-0.365956
H	 1.1235729041	 1.871284226	 0.2516225204	 0.108841
H	-0.4781918707	 2.1257137511	-0.4536090825	 0.117362
H	-0.3266008316	 1.7059922086	 1.2563711393	 0.119082
H	 0.4684615914	-0.1380361983	-1.0780858294	 0.091333
H	 0.5974025971	-0.554791799	 0.6233767192	 0.094645
H	-1.4961643519	-1.1467555426	 1.9885885689	 0.103325
H	-3.1275588265	-0.618699754	 1.357097616	 0.116747
H	-1.3680167861	-2.8604639087	 0.1102162283	 0.074577
H	-2.87196148	-3.5285260585	-2.2348393505	 0.12257
H	-3.2931163908	-2.1127485639	-3.2217798138	 0.102452
H	-1.6171506031	-2.3655375311	-2.7133149894	 0.118602
H	-4.8607869644	-1.6594071192	-1.4117629678	 0.272523
H	-3.19859381	 0.5708872653	-0.9394706806	 0.089182
H	-2.003609288	 0.0711903245	-2.166371803	 0.092051
81.5529	101.6896	178.1185	226.0893	254.5277	266.5733	291.2465	333.4676	345.4774	394.3768	418.4802	445.0195	529.3619	604.4045	684.7049	787.7522	797.1995	845.9626	879.2943	916.5457	937.7129	963.3318	972.2836	990.7595	1003.7909	1030.2873	1058.7153	1081.0187	1089.0644	1112.9359	1155.1999	1169.6688	1227.9755	1236.8405	1244.0746	1274.1585	1324.1801	1346.6584	1384.2613	1404.8906	1406.7449	1415.2867	1475.218	1479.5581	1489.4001	1495.8942	1498.6022	1504.922	1508.0754	3007.8726	3020.9199	3032.8969	3039.0251	3044.2208	3088.9281	3093.1158	3101.1895	3105.9213	3111.9178	3117.5059	3165.4196	3202.4353	3801.1751
CCC12CC1C(C)(O)C2	CC[C@]12C[C@H]1[C@@](C)(O)C2	
InChI=1S/C8H14O/c1-3-8-4-6(8)7(2,9)5-8/h6,9H,3-5H2,1-2H3	InChI=1S/C8H14O/c1-3-8-4-6(8)7(2,9)5-8/h6,9H,3-5H2,1-2H3/t6-,7-,8+/m0/s1
