17
gdb 92742	2.47304	1.53536	1.13306	3.1982	71.4	-0.2334	-0.0071	0.2264	1092.018	0.139226	-451.3761	-451.367766	-451.366822	-451.408852	31.984	
N	 0.0348753256	 1.4648376801	 0.0878796998	-0.515469
C	-0.0197967463	-0.0015686624	 0.0156839814	-0.084991
C	-1.4765192503	-0.4765661351	-0.0345285999	-0.175881
N	-2.1308691457	-0.2266088431	-1.3161333784	-0.309401
C	-1.410098156	-0.3838209737	-2.3548294942	 0.418681
N	-1.952067666	-0.371514575	-3.6321297169	-0.568011
N	-0.033136937	-0.6408880255	-2.3388108891	-0.366442
C	 0.7481723816	-0.5266788234	-1.1989813359	 0.388506
O	 1.9361935602	-0.7648159046	-1.2173476816	-0.36584
H	 0.9934412838	 1.7833050689	-0.0214988845	 0.239713
H	-0.5073643034	 1.8685538322	-0.6711164369	 0.234804
H	 0.4820096341	-0.4024356504	 0.901158065	 0.10591
H	-1.5146239067	-1.552770662	 0.1913229362	 0.110059
H	-2.0380356792	 0.0373735727	 0.7509721577	 0.119731
H	-2.9249609273	-0.0970001374	-3.6118492551	 0.263625
H	-1.4206236397	 0.1384595675	-4.3253467308	 0.250222
H	 0.4349682123	-0.9569452787	-3.1770471168	 0.254783
96.0665	123.927	223.0997	268.941	307.4186	341.791	358.2362	392.2148	489.4283	514.022	564.4021	599.128	648.4661	705.6035	754.3525	769.9618	857.3888	885.411	902.3107	958.9115	1027.2944	1050.992	1111.2249	1181.0039	1203.8749	1252.4464	1287.8712	1308.3378	1334.3826	1381.3893	1398.6887	1479.4802	1487.0908	1626.7855	1646.9205	1750.4209	1812.2839	2998.0768	3073.31	3081.2567	3486.9539	3547.2083	3572.619	3598.0307	3654.3341
NC1CN=C(N)NC1=O	N[C@H]1CN=C(N)NC1=O	
InChI=1S/C4H8N4O/c5-2-1-7-4(6)8-3(2)9/h2H,1,5H2,(H3,6,7,8,9)	InChI=1S/C4H8N4O/c5-2-1-7-4(6)8-3(2)9/h2H,1,5H2,(H3,6,7,8,9)/t2-/m0/s1
