21
gdb 104236	2.19868	1.3482	1.07966	2.2921	81.92	-0.2237	0.0329	0.2566	1265.0462	0.181044	-420.389915	-420.379548	-420.378603	-420.425428	36.86	
C	 0.0168788711	 1.4824958834	 0.1675091986	-0.333868
N	-0.0549055799	 0.0339852998	-0.0304614338	-0.327478
C	-1.4003750091	-0.533123786	-0.0446162116	 0.124046
C	-2.3309346104	-0.0301749539	-1.15286044	-0.456583
C	-1.3705042356	-2.0717624967	 0.1552674002	-0.111386
O	-1.9839379452	-1.9329415214	 1.4718024309	-0.270345
C	-2.02923439	-0.5565602182	 1.3463812571	 0.487172
N	-2.4605388645	 0.320383564	 2.1272270447	-0.338856
C	-3.0051074054	-0.0823169168	 3.4180269009	-0.342168
H	 1.0673207437	 1.7708587059	 0.2691567717	 0.116129
H	-0.4231094905	 2.0825869703	-0.6452824487	 0.096018
H	-0.5029550364	 1.7383521742	 1.0936012027	 0.160301
H	 0.4112563328	-0.2158291555	-0.8981887413	 0.213618
H	-1.8859081227	-0.2136678321	-2.1378581526	 0.109356
H	-3.3016382642	-0.5342565085	-1.1168601016	 0.123273
H	-2.5107328377	 1.0427185872	-1.04874995	 0.141303
H	-2.006224741	-2.6619949622	-0.5099805197	 0.110559
H	-0.3696935258	-2.501407505	 0.2331737971	 0.118216
H	-4.0292140131	 0.2962737237	 3.5071901867	 0.125473
H	-3.0143103065	-1.1659483634	 3.5818661591	 0.127432
H	-2.4197265096	 0.3880054013	 4.2157551994	 0.127787
75.3188	101.7883	105.0498	125.3396	179.8748	208.3269	244.3297	248.8595	298.6549	331.181	388.2532	419.9021	571.1319	670.684	707.4759	762.074	786.3035	904.092	913.3976	955.7796	982.9238	1038.2989	1082.1107	1101.3905	1126.6821	1131.9847	1152.5141	1166.0267	1177.7184	1212.3914	1232.2417	1280.8681	1359.9747	1404.3365	1438.4084	1454.6717	1468.3938	1484.6812	1494.471	1496.4274	1496.8523	1503.9101	1509.4823	1524.5517	1841.9877	2972.0953	3018.7636	3031.2964	3059.843	3075.6031	3083.6332	3089.551	3099.8508	3123.5708	3127.1056	3130.2734	3496.3797
CNC1(C)COC1=NC	CN[C@@]1(C)COC1=NC	
InChI=1S/C6H12N2O/c1-6(8-3)4-9-5(6)7-2/h8H,4H2,1-3H3	InChI=1S/C6H12N2O/c1-6(8-3)4-9-5(6)7-2/h8H,4H2,1-3H3/t6-/m0/s1
