20
gdb 88567	3.4253	1.15352	1.09789	1.1467	78.87	-0.2333	0.0656	0.2989	1197.124	0.170932	-403.076583	-403.067974	-403.06703	-403.110373	32.986	
O	 0.2054779553	 1.3100240458	 0.8713556441	-0.427318
C	 0.0925833634	 0.0385209115	 0.3022483219	 0.139494
C	-0.5457456363	-1.1030278085	 1.0396727499	-0.341275
C	-1.240385606	-0.502780726	-0.1747070022	-0.176462
C	-2.4587304847	 0.3398238784	-0.0660109868	 0.34769
C	-3.1490037836	 0.72926031	 1.19071925	-0.305764
N	-3.8516117504	-0.1915560172	 0.2817503012	-0.164924
C	-4.4123057776	 0.6857973432	-0.8066440887	-0.151587
C	-3.0056777808	 1.1750901887	-1.2310890488	-0.308513
H	-0.6732477013	 1.6012939534	 1.1352284592	 0.288902
H	 0.9670696775	-0.1694359199	-0.3054925549	 0.106501
H	-0.1272493436	-2.09890716	 0.9432014125	 0.116517
H	-0.957641975	-0.888157779	 2.019647376	 0.115551
H	-1.2109705948	-1.1002778214	-1.0829589048	 0.088762
H	-2.8462735616	 0.2507244469	 2.1163675945	 0.127442
H	-3.5297143744	 1.743299773	 1.312221282	 0.107963
H	-4.9149483349	 0.0733374986	-1.5573383711	 0.113747
H	-5.1140514991	 1.440617238	-0.4360794265	 0.104636
H	-2.7956041033	 2.2483987973	-1.2058031166	 0.104503
H	-2.7001256287	 0.785312447	-2.204340631	 0.114133
39.8271	115.13	171.5204	207.5845	220.4084	350.0288	371.0541	435.9802	489.8283	521.0842	678.554	748.9768	775.1781	791.2431	800.0436	815.1436	876.0486	933.5433	940.6559	983.2793	1003.7715	1009.1084	1056.3695	1073.0035	1087.4648	1107.8175	1118.6943	1134.7052	1141.7628	1194.7428	1206.8394	1220.105	1231.2324	1265.639	1307.4463	1328.4929	1362.1964	1416.0467	1437.2367	1483.8171	1488.7762	1494.7304	1518.6179	3045.7578	3057.5205	3088.598	3103.2872	3121.2078	3128.2823	3134.3224	3166.0977	3193.0077	3220.6566	3817.9997
OC1CC1C12CN1CC2	O[C@H]1C[C@H]1[C@]12CN1CC2	
InChI=1S/C7H11NO/c9-6-3-5(6)7-1-2-8(7)4-7/h5-6,9H,1-4H2	InChI=1S/C7H11NO/c9-6-3-5(6)7-1-2-8(7)4-7/h5-6,9H,1-4H2/t5-,6+,7+,8?/m1/s1
