15
gdb 67415	2.80987	1.55795	1.29976	3.0728	70.66	-0.2437	0.0089	0.2525	984.7627	0.113011	-416.744838	-416.737139	-416.736195	-416.777196	29.099	
N	-0.1312015044	 1.4392722875	-0.0315985881	-0.637608
C	 0.0317527971	 0.0478392898	-0.0224963416	 0.235093
C	 0.13715948	-1.0802390398	-0.9949246048	 0.008734
O	 1.2364712985	-1.7121110314	-0.3842329835	-0.277698
C	 0.9164648276	-0.9774829936	 0.8318124515	 0.019518
C	-0.3803677174	-1.6556709354	 1.331308195	-0.290555
C	-1.024462578	-1.0654153202	 0.0748166195	 0.133248
C	-2.3908015274	-0.9612973678	-0.2922274988	 0.161729
N	-3.502338482	-0.8416411454	-0.5981926584	-0.353233
H	 0.3751288267	 1.9004444468	-0.7772623538	 0.251405
H	-1.102311049	 1.7249273256	-0.0493767361	 0.259568
H	-0.0435884546	-1.189403419	-2.0562560099	 0.134674
H	 1.7752473064	-0.7815065133	 1.4677880017	 0.105461
H	-0.3506205931	-2.7426313143	 1.4395683248	 0.121921
H	-0.7702355505	-1.1802976594	 2.2336430426	 0.127742
95.5001	116.6175	159.4798	271.8336	323.9443	452.4239	466.1594	536.4784	558.658	581.4791	668.0456	684.1856	710.4731	793.6887	844.1391	921.9788	936.7148	969.7274	992.8455	1043.959	1055.4637	1119.0821	1135.9895	1165.5142	1224.2319	1237.4457	1242.0165	1287.3383	1332.0798	1466.6902	1493.3834	1651.8871	2334.0736	3068.4262	3134.9157	3168.4055	3216.9645	3529.1663	3614.5726
NC12C3OC1CC23C#N	N[C@@]12[C@H]3O[C@@H]1C[C@@]23C#N	
InChI=1S/C6H6N2O/c7-2-5-1-3-6(5,8)4(5)9-3/h3-4H,1,8H2	InChI=1S/C6H6N2O/c7-2-5-1-3-6(5,8)4(5)9-3/h3-4H,1,8H2/t3-,4+,5+,6-/m1/s1
