14
gdb 27339	3.38855	1.42076	1.00217	6.8928	68.64	-0.2133	-0.0143	0.199	1088.2593	0.103577	-470.077396	-470.069905	-470.068961	-470.109097	29.155	
N	 0.0156904674	 1.3535941293	 0.1306967308	-0.571117
C	 0.0026558664	-0.0231746727	 0.0369642662	 0.470216
N	-1.1415107298	-0.6511257541	 0.0263948293	-0.383142
C	-1.1454394643	-2.0258233231	 0.0164520726	 0.320299
O	-2.1632747696	-2.7147026303	 0.0228920189	-0.415723
C	 0.1531478855	-2.7344700872	-0.0231591825	 0.242803
O	 0.0675650251	-4.0721555204	-0.0605872237	-0.428567
C	 1.3003904426	-2.0325126327	-0.021139059	-0.126781
N	 1.2128936471	-0.6401017734	 0.009126701	-0.346975
H	 0.7400558774	 1.8417723384	-0.3756687528	 0.254962
H	-0.9052540585	 1.7437084218	-0.0101554658	 0.275811
H	-0.9021984132	-4.2211563862	-0.0446985389	 0.305056
H	 2.2922336148	-2.4603941758	-0.0479398898	 0.137089
H	 2.0528657292	-0.1004694636	 0.1395717137	 0.266068
120.9601	205.6564	314.6877	332.7484	355.7599	363.635	412.8638	473.2929	488.4341	552.3451	603.1961	626.6451	696.4768	746.8314	763.967	811.4924	823.0354	828.109	982.169	1122.0415	1177.0949	1253.2389	1295.1023	1308.7528	1379.1017	1471.6955	1566.2358	1610.1707	1658.0148	1722.0682	1747.6651	3235.0477	3527.052	3567.3826	3646.2044	3675.9472
NC1=NC(=O)C(O)=CN1	Nc1nc(=O)c(O)c[nH]1	
InChI=1S/C4H5N3O2/c5-4-6-1-2(8)3(9)7-4/h1,8H,(H3,5,6,7,9)	InChI=1S/C4H5N3O2/c5-4-6-1-2(8)3(9)7-4/h1,8H,(H3,5,6,7,9)
