21
gdb 120036	2.15117	1.27305	0.91079	1.9001	75.07	-0.2459	0.058	0.304	1351.428	0.181051	-461.340375	-461.330519	-461.329575	-461.375554	36.53	
C	 0.1594413456	 1.4841301645	 0.1495451019	-0.390665
C	 0.1663723201	-0.0277922303	 0.0123689048	-0.051308
O	 0.6463971413	-0.589542975	 1.2330865657	-0.291974
C	 0.6857990507	-2.0076714224	 1.2528181693	 0.030408
C	 2.1460674617	-2.5139911881	 1.0240548762	 0.14094
O	 2.9752438547	-1.7137306669	 0.223875088	-0.434409
C	 2.3549222247	-2.5154644154	 2.5661436926	-0.314763
C	 0.8071767094	-2.4571114582	 2.7386016814	 0.143966
O	 0.2469725125	-1.6050723742	 3.6956169228	-0.439186
H	 1.1687224919	 1.8649162577	 0.3322370764	 0.124469
H	-0.2196218883	 1.9431760961	-0.7681508798	 0.12438
H	-0.4800302982	 1.7938107522	 0.9811754688	 0.129176
H	-0.8481934168	-0.4049602461	-0.186773379	 0.101361
H	 0.8090924753	-0.3459914078	-0.8192105435	 0.113325
H	-0.124060868	-2.424530058	 0.6428038766	 0.063493
H	 2.1687479125	-3.5198337394	 0.5966365039	 0.09069
H	 2.8635676619	-0.8112182351	 0.5468885847	 0.282435
H	 2.8945786269	-3.3525032781	 3.0133601603	 0.10285
H	 2.8118927779	-1.5779728478	 2.8985730937	 0.101627
H	 0.3812187639	-3.4537236068	 2.8876802021	 0.087111
H	 0.2676063303	-0.723238791	 3.3000263731	 0.286073
64.0038	87.1805	93.9495	155.7209	228.226	256.9978	276.327	380.4445	390.2499	419.7414	431.2252	475.442	528.9304	629.2304	677.8408	778.0467	823.8671	844.4994	890.9109	931.4547	977.9916	1051.1185	1060.738	1071.8795	1117.3283	1130.3436	1144.4665	1167.3076	1175.077	1188.031	1238.7182	1261.2346	1280.7032	1296.1601	1316.3688	1344.8947	1354.7927	1404.0281	1431.102	1437.2769	1453.1879	1476.0436	1484.0174	1499.9394	1529.8839	2990.109	3032.1769	3037.7032	3044.4714	3058.3475	3066.8643	3081.3786	3118.1279	3121.873	3123.1047	3755.4925	3785.5596
CCOC1C(O)CC1O	CCO[C@H]1[C@@H](O)C[C@H]1O	
InChI=1S/C6H12O3/c1-2-9-6-4(7)3-5(6)8/h4-8H,2-3H2,1H3	InChI=1S/C6H12O3/c1-2-9-6-4(7)3-5(6)8/h4-8H,2-3H2,1H3/t4-,5+,6-
