17
gdb 57766	2.90637	0.7023	0.64903	1.5606	79.66	-0.2616	0.0051	0.2667	1770.4423	0.131718	-421.744662	-421.733992	-421.733048	-421.781813	37.448	
C	 0.190983518	 1.4358029819	 0.3494614586	-0.386575
C	-0.1097011856	-0.0310447292	 0.0087628523	-0.020593
O	-1.5093572278	-0.2687771743	-0.112864394	-0.41195
C	 0.6203823745	-0.4629077148	-1.1886636028	 0.067445
C	 1.193633598	-0.7884007827	-2.1969710047	 0.068571
C	 1.8907193065	-1.236584805	-3.4110142032	-0.233213
O	 2.2799106987	-2.6044264208	-3.3413035396	-0.38847
C	 1.0834939797	-0.9521779203	-4.6083589871	 0.328564
C	 0.4249935193	-0.7497764075	-5.5923721641	-0.453283
H	 1.2585546155	 1.5820082749	 0.5373360611	 0.127838
H	-0.1016950697	 2.0891435393	-0.4787910439	 0.119694
H	-0.3728833713	 1.7221959703	 1.2408371554	 0.128171
H	 0.2005516055	-0.6585252876	 0.8531331546	 0.122924
H	-1.8048981477	 0.1557751042	-0.926181398	 0.284633
H	 2.8393313347	-0.6904908262	-3.4948666568	 0.150212
H	 1.4749794464	-3.125683997	-3.2382979794	 0.291218
H	-0.1526760549	-0.5660087153	-6.4646477283	 0.204815
22.2224	65.468	88.289	172.7885	197.5302	208.8986	253.1355	276.1989	314.8325	351.2193	375.7455	465.4798	512.2698	552.7447	594.5644	625.6325	641.9405	674.4606	760.6292	876.1702	929.6047	1020.0788	1041.4455	1071.3337	1098.6002	1169.747	1259.8886	1283.6181	1307.7619	1337.8481	1400.2608	1413.1211	1418.4016	1488.443	1491.5269	2237.8394	2356.2233	3030.0688	3038.7345	3042.3643	3115.933	3129.318	3501.9935	3800.146	3803.1642
CC(O)C#CC(O)C#C	C[C@@H](O)C#C[C@@H](O)C#C	
InChI=1S/C7H8O2/c1-3-7(9)5-4-6(2)8/h1,6-9H,2H3	InChI=1S/C7H8O2/c1-3-7(9)5-4-6(2)8/h1,6-9H,2H3/t6-,7+/m1/s1
