15
gdb 112502	2.53092	1.13864	0.93207	4.2797	67.48	-0.2697	-0.0596	0.2101	1246.7842	0.111924	-453.933035	-453.924339	-453.923395	-453.967533	30.683	
O	 0.086964134	 1.1986670735	-0.528087245	-0.413129
C	 0.0803384573	-0.1264641915	-0.045953453	-0.056383
C	-1.3604198823	-0.5813172999	 0.2152679876	-0.118712
N	-2.202139152	-0.5109211208	-1.0183363533	-0.33377
C	-2.6277598899	-1.9327670204	-0.9265801912	-0.255816
C	-2.4013987374	-2.7368280136	-2.1200911702	 0.315837
N	-2.2037736617	-3.3873273287	-3.0546368916	-0.311037
C	-1.6171984552	-2.0903960971	 0.2655416719	 0.383476
O	-1.2236709542	-3.0094625076	 0.9051096997	-0.254865
H	-0.3764236686	 1.1793931033	-1.3745068559	 0.294027
H	 0.5612734997	-0.8190553162	-0.7520295469	 0.107246
H	 0.651441428	-0.1409200825	 0.8866915684	 0.130305
H	-1.7737966758	-0.046316315	 1.0795764868	 0.11813
H	-2.9778369038	 0.1373245353	-0.9584215912	 0.244541
H	-3.6558775182	-2.0891964386	-0.5730096161	 0.150151
43.4704	94.3726	128.3943	155.5009	231.2804	300.6725	373.105	440.0942	464.8364	524.1717	545.3445	637.7741	649.0355	794.066	866.2748	892.7286	965.1079	1019.2722	1033.8901	1069.6408	1085.9925	1112.4843	1127.3301	1196.1525	1249.9083	1289.1138	1354.4323	1375.8007	1399.176	1417.4841	1498.229	1930.4509	2357.8839	3000.6369	3024.0503	3036.708	3097.5986	3560.0101	3786.3589
OCC1NC(C#N)C1=O	OC[C@H]1N[C@@H](C#N)C1=O	
InChI=1S/C5H6N2O2/c6-1-3-5(9)4(2-8)7-3/h3-4,7-8H,2H2	InChI=1S/C5H6N2O2/c6-1-3-5(9)4(2-8)7-3/h3-4,7-8H,2H2/t3-,4+/m0/s1
