18
gdb 10783	3.02577	1.90142	1.61139	1.1289	63.11	-0.2579	0.0576	0.3155	878.2557	0.153768	-422.062272	-422.054178	-422.053234	-422.094166	31.31	
C	 0.0326416054	 1.6337498905	 0.088948776	-0.410441
C	 0.1202585118	 0.1161616951	 0.0588593688	-0.019034
C	 1.1561838973	-0.5866796596	-0.8604672722	 0.052088
O	 2.3652584528	 0.1612292753	-0.9014709547	-0.44742
C	 1.2873006078	-1.6979148797	 0.2304239283	 0.10511
O	 2.5909980395	-2.1626900991	 0.4694505608	-0.448307
C	 0.7323567461	-0.6642344192	 1.2611008189	 0.06631
O	 1.8013607542	-0.0047625798	 1.9227767955	-0.449823
H	 1.0102262463	 2.0922715801	 0.2539685147	 0.126263
H	-0.3534744572	 2.0166764518	-0.8611099292	 0.120963
H	-0.6377401713	 1.9684508543	 0.8868685773	 0.120515
H	-0.8660230847	-0.3139491493	-0.1509058837	 0.081936
H	 0.8391985688	-0.8735967033	-1.8704694789	 0.065653
H	 3.0697436022	-0.5022531578	-0.8452320385	 0.289518
H	 0.6104821597	-2.540058874	 0.0563868908	 0.082823
H	 2.8852888061	-1.6815762082	 1.259125571	 0.291514
H	 0.0582914844	-1.0237834154	 2.0416872113	 0.083051
H	 2.2814785209	 0.4838445482	 1.2375555136	 0.28928
131.6775	179.5034	213.0429	242.1036	259.3386	271.6694	442.876	451.7567	483.4612	514.3647	567.2542	646.8693	739.452	766.855	813.2953	857.111	881.9341	943.8682	996.3397	1009.029	1104.4857	1132.1764	1138.7087	1155.1824	1165.7182	1228.8163	1250.0407	1253.3656	1305.5246	1328.6352	1346.8789	1372.5902	1400.6727	1411.2372	1418.6455	1457.0544	1492.0843	1499.8385	3024.193	3040.7919	3045.795	3063.9737	3089.3091	3105.2226	3125.4053	3688.7074	3713.7431	3725.6439
CC1C(O)C(O)C1O	C[C@H]1[C@@H](O)[C@@H](O)[C@H]1O	
InChI=1S/C5H10O3/c1-2-3(6)5(8)4(2)7/h2-8H,1H3	InChI=1S/C5H10O3/c1-2-3(6)5(8)4(2)7/h2-8H,1H3/t2-,3+,4-,5+
