17
gdb 41790	2.65893	2.03274	1.52714	1.5295	74.31	-0.2283	-0.0425	0.1858	901.7577	0.139348	-421.831229	-421.824619	-421.823675	-421.862072	26.822	
C	 0.0987848706	 1.5847809767	 0.1035992046	-0.126339
O	 1.4364203619	 1.8789467826	-0.2969137223	-0.247827
C	 2.1572286502	 0.6841926015	-0.0568940675	 0.12026
O	 1.2989102173	-0.3501663109	-0.4670404714	-0.23063
C	 0.0063476743	 0.021626706	 0.0214947439	-0.000406
C	-0.2783853493	-0.6439394889	 1.342139429	-0.089511
C	 0.5999802263	-0.6630033339	 2.3561448923	-0.069443
C	 1.9107320532	-0.0176531221	 2.39167991	-0.084907
C	 2.5831540345	 0.5768017934	 1.391977169	-0.077118
H	-0.0956678827	 1.935736386	 1.1228165744	 0.113964
H	-0.580139382	 2.0894175231	-0.5884621618	 0.117182
H	 3.0302446503	 0.6776541137	-0.7169191348	 0.096288
H	-0.7184974439	-0.2988770022	-0.7309191137	 0.090499
H	-1.2338665859	-1.1485891517	 1.4523923114	 0.097623
H	 0.3141091414	-1.1785122787	 3.2694143421	 0.095704
H	 2.3826239416	-0.0073500685	 3.3719774116	 0.095277
H	 3.5370850321	 1.047129614	 1.6165475933	 0.099384
131.9187	225.0993	276.7318	358.4368	451.3526	461.6745	592.703	651.1893	709.2678	733.5377	799.8417	815.0078	833.5823	875.6903	917.1031	941.5213	959.7076	983.3216	988.6836	1003.4762	1035.9121	1067.3701	1091.7029	1141.5168	1222.7615	1237.5516	1259.6718	1288.7753	1323.8525	1355.0616	1368.8765	1391.4156	1413.4886	1450.1068	1517.4925	1658.2859	1701.9168	3040.8762	3072.0374	3076.4839	3100.9895	3138.9749	3155.1725	3167.8423	3178.7048
C1OC2OC1C=CC=C2	C1O[C@@H]2O[C@H]1C=CC=C2	
InChI=1S/C7H8O2/c1-2-4-7-8-5-6(3-1)9-7/h1-4,6-7H,5H2	InChI=1S/C7H8O2/c1-2-4-7-8-5-6(3-1)9-7/h1-4,6-7H,5H2/t6-,7+/m0/s1
