22
gdb 99891	2.20263	1.32641	1.16566	0.704	88.14	-0.2352	0.0447	0.2799	1239.9631	0.191119	-367.152311	-367.141967	-367.141023	-367.186965	39.131	
C	-0.8376589996	 1.3057072859	-0.0972335431	-0.399825
C	-0.403832592	-0.1561052132	-0.2198756486	-0.178277
C	 0.7734799448	-0.428732705	-1.191754517	 0.091106
C	 0.4225413714	-0.0287305488	-2.6371496327	-0.402152
C	 1.9683086693	 0.3156025506	-0.7536469613	 0.356352
C	 2.9575014527	 0.8993561206	-0.3933065132	-0.523368
N	 0.9630002292	-1.8979405506	-1.1970941915	-0.083235
C	 2.2479155882	-2.4635870641	-1.5889318979	-0.233408
C	 1.7864279994	-2.5298539092	-0.1733814518	-0.23115
H	-0.003619466	 1.9434309096	 0.2107137979	 0.127735
H	-1.2308508447	 1.6960533363	-1.0407533717	 0.117119
H	-1.6292196797	 1.4027092125	 0.6519718061	 0.113837
H	-0.1118562785	-0.5353473739	 0.7658125735	 0.10263
H	-1.2384028529	-0.7784710506	-0.5602419866	 0.106415
H	 0.2507854332	 1.0463619243	-2.7206801672	 0.123893
H	 1.2407470436	-0.2950934253	-3.3113178561	 0.122829
H	-0.4762404161	-0.5656025029	-2.9528267307	 0.122658
H	 3.8246696821	 1.4261428957	-0.0786220284	 0.198167
H	 2.1946280448	-3.3359107467	-2.2343067576	 0.112871
H	 3.0699080147	-1.781877237	-1.7961812165	 0.12128
H	 2.3097412212	-1.889781444	 0.5333223055	 0.121707
H	 1.3882892252	-3.4517999141	 0.2409373789	 0.112816
94.3499	104.3801	151.633	162.2222	203.4485	226.0711	248.5975	286.2049	318.442	382.1912	402.3041	454.8615	566.0894	583.2541	622.6302	650.5336	654.755	778.0061	806.3747	833.7784	901.5539	921.0949	972.4929	1009.3951	1023.5588	1036.7683	1075.8398	1114.469	1126.1585	1149.3873	1168.6804	1179.2648	1203.5902	1227.6575	1307.8402	1314.8214	1358.1422	1402.275	1413.1497	1479.6873	1480.5474	1484.9821	1496.9884	1505.791	1509.227	1510.1528	2213.6875	3039.4147	3041.3645	3049.4811	3078.3411	3101.9373	3104.269	3107.6577	3115.7332	3123.7742	3135.7108	3182.7442	3196.2438	3497.6389
CCC(C)(C#C)N1CC1	CC[C@@](C)(C#C)N1CC1	
InChI=1S/C8H13N/c1-4-8(3,5-2)9-6-7-9/h1H,5-7H2,2-3H3	InChI=1S/C8H13N/c1-4-8(3,5-2)9-6-7-9/h1H,5-7H2,2-3H3/t8-/m1/s1
