17
gdb 102268	2.18108	1.16323	0.79335	6.5731	69.6	-0.2573	0.0095	0.2668	1369.5667	0.13652	-455.19061	-455.181373	-455.180428	-455.225456	32.791	
N	-1.3019542205	 1.9079218221	-0.0479615413	-0.522105
H	-1.7820693036	 1.0229934709	-0.1699576518	 0.260035
H	-0.9508970735	 2.1808053844	-0.9615965559	 0.260082
H	-2.2323354394	 3.3135535329	 0.4052957751	 0.319885
C	-0.1995719024	 1.777454077	 0.9162368859	-0.17253
C	 0.1353341397	 3.1435686944	 1.5682024582	-0.166761
C	-1.0029637955	 3.7249153148	 2.4619020768	-0.339669
C	-2.002717539	 4.6641870571	 1.768880608	 0.384125
O	-2.5649029236	 4.2205815172	 0.6418454739	-0.37854
O	-2.2762918659	 5.7384231757	 2.2362866213	-0.320194
C	 1.356801307	 2.9767827352	 2.3614512507	 0.276147
N	 2.3141704101	 2.8186420697	 2.9889518889	-0.311029
H	-0.5115824332	 1.0871802139	 1.7054549571	 0.140772
H	 0.7092986192	 1.3625330833	 0.4639730675	 0.131062
H	 0.368990548	 3.8612683037	 0.7705745596	 0.143892
H	-1.5568503238	 2.8940491144	 2.9160805162	 0.133959
H	-0.5713006237	 4.3062762233	 3.2760082398	 0.160868
66.086	76.699	127.4292	155.7941	245.103	246.3537	312.6593	321.7073	421.8783	450.484	499.0687	552.396	632.4002	694.9736	855.3174	878.4019	893.7801	945.4553	965.913	999.1422	1025.9487	1078.8275	1098.9567	1146.8317	1243.5702	1274.3578	1309.0095	1328.3207	1337.1027	1367.133	1418.3467	1470.9109	1485.3128	1502.4611	1655.5293	1855.8691	2359.7494	3027.8365	3030.7618	3046.6287	3096.1966	3140.3239	3192.61	3505.7637	3585.798
[NH3+]CC(CC([O-])=O)C#N	NC[C@@H](CC(=O)O)C#N	
InChI=1S/C5H8N2O2/c6-2-4(3-7)1-5(8)9/h4H,1-2,6H2,(H,8,9)	InChI=1S/C5H8N2O2/c6-2-4(3-7)1-5(8)9/h4H,1-2,6H2,(H,8,9)/t4-/m1/s1
