14
gdb 27009	3.26673	1.18601	0.90746	2.2004	68.35	-0.2144	0.0121	0.2265	1194.624	0.102571	-432.920815	-432.9128	-432.911855	-432.954466	28.882	
O	-0.5405576913	 1.3509497429	 0.2952248874	-0.438583
C	-0.1880381778	 0.0588740292	 0.1182226791	 0.276733
C	 0.1372252565	-0.5320824324	-1.0767199348	 0.223069
C	 0.1767392208	 0.008080984	-2.471560419	-0.454417
C	 1.2860303099	-0.5449290343	-3.2547616042	 0.25458
N	 2.1449535453	-1.0345914722	-3.8530004291	-0.309885
N	 0.4023454445	-1.8524147361	-0.7352075416	-0.304563
C	 0.2425228981	-1.9683861807	 0.6046738477	 0.014959
N	-0.1256664726	-0.8258345296	 1.1530772503	-0.337569
H	-0.6769856361	 1.4708485685	 1.2429098522	 0.305511
H	-0.7520426984	-0.1913170977	-3.0257847517	 0.164974
H	 0.2770853879	 1.0973084444	-2.4221159931	 0.183496
H	 0.7441512682	-2.5609400943	-1.3644600865	 0.280294
H	 0.4072015351	-2.8953757616	 1.1316067132	 0.141402
31.6975	105.1175	214.8395	240.9154	328.6618	361.2282	378.901	429.5641	508.3571	537.6269	652.7306	679.4238	729.8474	794.6186	800.4117	932.0467	935.2194	962.5068	1089.4882	1144.639	1197.1236	1259.7252	1274.3851	1337.3967	1352.9162	1406.3402	1460.3434	1496.2783	1523.6049	1690.0618	2360.9584	3002.6814	3082.4901	3262.2253	3653.8429	3805.182
OC1=C(CC#N)NC=N1	Oc1c(CC#N)[nH]cn1	
InChI=1S/C5H5N3O/c6-2-1-4-5(9)8-3-7-4/h3,9H,1H2,(H,7,8)	InChI=1S/C5H5N3O/c6-2-1-4-5(9)8-3-7-4/h3,9H,1H2,(H,7,8)
