14
gdb 44922	3.21854	1.51512	1.48881	1.009	61.94	-0.2567	-0.043	0.2136	913.1026	0.102584	-473.84776	-473.841242	-473.840298	-473.878834	25.516	
N	-0.0502515129	 1.2620597544	 0.0009409266	-0.546354
C	-0.0148856654	 0.0068925036	-0.0059236882	 0.450869
O	 1.1036193875	-0.7997064913	-0.009998636	-0.256316
C	 0.5765496857	-2.1502919207	-0.0134536479	 0.047108
O	-0.6186010794	-2.0605179019	-0.7372404471	-0.2405
C	-1.1814840255	-0.9642026604	 0.0308156244	-0.042877
C	-1.235845099	-1.562561575	 1.4537194603	-0.357186
C	 0.0643228692	-2.3914001024	 1.4285139171	 0.438155
O	 0.5542566892	-3.0635430104	 2.2883077325	-0.299694
H	 0.8894807206	 1.6619824476	 0.0053228834	 0.236644
H	 1.2953152127	-2.8436888676	-0.4406903635	 0.128854
H	-2.1078607719	-0.6112975098	-0.4100679383	 0.130226
H	-1.2388135118	-0.8284847927	 2.2615014464	 0.158551
H	-2.0980105189	-2.2248709033	 1.5674724403	 0.152519
106.6802	187.9801	307.4152	404.1714	440.3596	528.9801	562.5435	605.3099	711.2671	722.4593	762.7344	843.1006	845.0376	892.9706	917.5075	945.8197	960.1618	975.2062	1035.6463	1094.7065	1136.1276	1146.8502	1224.0191	1242.3041	1252.7444	1298.7	1314.6534	1348.3317	1446.4764	1816.4681	1886.7369	3077.8746	3136.1577	3182.2439	3189.873	3479.3591
N=C1OC2OC1CC2=O	[NH][C]1O[C@@H]2O[C@H]1CC2=O	
InChI=1S/C5H5NO3/c6-4-3-1-2(7)5(8-3)9-4/h3,5-6H,1H2	InChI=1S/C5H5NO3/c6-4-3-1-2(7)5(8-3)9-4/h3,5-6H,1H2/t3-,5-/m0/s1
