18
gdb 34032	3.24395	1.31684	1.13168	2.1017	78.4	-0.2404	0.0374	0.2778	1116.8002	0.14901	-401.891972	-401.884064	-401.88312	-401.924206	31.085	
C	-0.0310930282	-1.1939721297	 0.0226748959	-0.398349
C	 0.0176343762	 0.0073332618	 0.0427236014	 0.279257
C	 0.0394425473	 1.4453869797	 0.0085463593	 0.079804
C	-1.1072535338	 2.0758742405	-0.7828357448	-0.180759
O	-0.9642491137	 3.4763971091	-0.8902056728	-0.245053
C	 0.2352702158	 3.820562008	-1.571439588	-0.079081
C	 1.4739008769	 3.5133197504	-0.7206812491	-0.249238
C	 1.3343166379	 2.2061010608	 0.0482151283	-0.048641
N	 0.4739744467	 2.1415090652	 1.2389014094	-0.35789
H	-0.0635010255	-2.2553752639	 0.0247191967	 0.192801
H	-1.1587886426	 1.6097871166	-1.7794028984	 0.106101
H	-2.0575813183	 1.8951950152	-0.270913278	 0.124888
H	 0.2831885811	 3.2685001482	-2.5234026435	 0.097648
H	 0.1666897159	 4.8867271528	-1.8024877667	 0.113225
H	 2.355491616	 3.4681920706	-1.3692558177	 0.110763
H	 1.653326383	 4.3258372382	-0.0056452309	 0.116444
H	 2.2451516145	 1.6236860442	 0.1576892241	 0.103429
H	-0.0595906391	 3.0093757821	 1.3002986948	 0.23465
115.6265	138.9874	175.2812	289.5198	366.4888	394.6772	412.0881	509.423	522.1603	564.6562	594.4051	613.7143	657.0428	736.2162	801.4225	853.3777	893.3923	930.2385	976.6515	1017.8039	1039.3036	1067.8039	1108.6298	1124.6395	1162.3796	1194.9531	1246.1921	1270.2772	1302.3981	1318.8728	1339.578	1364.3408	1368.4771	1421.3993	1440.0076	1484.3788	1491.9672	1506.7193	2237.8187	2981.7976	2986.9089	3029.0997	3073.7707	3081.4147	3094.7799	3142.9076	3461.3431	3502.5377
C#CC12COCCC1N2	C#C[C@]12COCC[C@H]1N2	
InChI=1S/C7H9NO/c1-2-7-5-9-4-3-6(7)8-7/h1,6,8H,3-5H2	InChI=1S/C7H9NO/c1-2-7-5-9-4-3-6(7)8-7/h1,6,8H,3-5H2/t6-,7+/m1/s1
