14
gdb 129490	4.37853	1.16739	0.92234	3.3611	66.53	-0.2286	-0.0226	0.2059	1172.1601	0.10338	-466.256987	-466.248934	-466.24799	-466.289756	29.579	
N	-0.1289872217	 1.3242673424	 0.0183885611	-0.566294
C	 0.0541719421	-0.0130445819	 0.0214315535	 0.517367
O	 1.1074624533	-0.6084003239	 0.0368334443	-0.379409
N	-1.1801419287	-0.7232791347	 0.0060220295	-0.04728
C	-1.3492454548	-2.0655615861	-0.0006135951	 0.048725
N	-2.625225175	-2.3728970773	-0.0189449995	-0.333986
C	-3.2333318882	-1.1396751006	-0.0239741097	 0.428649
N	-4.5978013296	-1.0213471812	-0.0991114883	-0.578553
N	-2.4098622093	-0.1041469059	-0.0045091606	-0.354617
H	 0.6826003175	 1.9154357743	 0.0098227575	 0.275299
H	-1.0612668181	 1.7033850973	-0.0146809831	 0.285826
H	-0.5125808248	-2.7454523209	 0.0089946467	 0.175963
H	-5.0961076039	-1.8316678288	 0.2354102068	 0.26662
H	-4.9710988489	-0.1428170427	 0.2256517769	 0.261691
85.4352	127.7828	191.5137	211.6293	321.4585	355.7099	398.4061	422.3751	540.9099	561.7054	595.6685	622.3875	674.9532	764.2024	766.3898	787.9566	906.2637	1002.9626	1025.5905	1096.8047	1122.9461	1178.5069	1283.779	1340.3563	1402.5916	1445.7841	1522.9874	1587.2394	1604.4887	1659.7827	1841.682	3285.1649	3587.181	3604.484	3697.3954	3754.259
NC(=O)N1C=NC(N)=N1	NC(=O)n1cnc(N)n1	
InChI=1S/C3H5N5O/c4-2-6-1-8(7-2)3(5)9/h1H,(H2,4,7)(H2,5,9)	InChI=1S/C3H5N5O/c4-2-6-1-8(7-2)3(5)9/h1H,(H2,4,7)(H2,5,9)
