16
gdb 64703	4.74877	0.82023	0.78961	2.0583	71.16	-0.2743	-0.0572	0.2172	1413.8235	0.120995	-437.888881	-437.879563	-437.878619	-437.923731	32.578	
C	-0.2246364936	 1.6466880337	 0.2772786953	-0.47279
C	-0.0113289486	 0.1629697494	 0.0745616956	 0.376576
C	-1.2225238265	-0.6129870175	-0.4545614134	-0.394588
C	-1.7275973814	-0.0704875637	-1.7158147892	 0.273495
N	-2.1242027281	 0.3739500928	-2.7055690475	-0.30159
O	 1.2268595368	-0.2408113843	-0.4901361995	-0.262982
C	 0.9664597876	-0.6307139858	 0.86554003	-0.107498
C	 1.8326850686	-0.0119184405	 1.9175061978	 0.135191
O	 1.969188583	-0.4950782837	 3.011671195	-0.237732
H	 0.6963492553	 2.141939409	 0.5857932236	 0.139591
H	-0.5622713861	 2.1040911676	-0.6573637125	 0.163864
H	-0.9912608498	 1.8254662917	 1.0380712772	 0.138033
H	-0.9464957645	-1.660507365	-0.6057050779	 0.167238
H	-2.0306294524	-0.5862963235	 0.2856952651	 0.164153
H	 0.7642633957	-1.6893073179	 1.0274335132	 0.117722
H	 2.3524265241	 0.9184535376	 1.6065010371	 0.101317
48.9592	96.077	106.659	181.2392	184.4553	269.7534	334.3523	380.3206	383.8259	411.7141	420.4468	513.5092	583.4387	744.1856	845.4522	900.8453	911.4806	953.675	991.4851	1035.0015	1097.0675	1114.5048	1117.4097	1210.5332	1241.6695	1303.1218	1333.9728	1392.7025	1419.4053	1445.4375	1449.0891	1486.2026	1504.191	1824.9027	2365.339	2917.2114	3048.5219	3051.6643	3101.6804	3115.7856	3122.925	3150.3311
CC1(CC#N)OC1C=O	C[C@@]1(CC#N)O[C@H]1C=O	
InChI=1S/C6H7NO2/c1-6(2-3-7)5(4-8)9-6/h4-5H,2H2,1H3	InChI=1S/C6H7NO2/c1-6(2-3-7)5(4-8)9-6/h4-5H,2H2,1H3/t5-,6-/m0/s1
