19
gdb 13601	4.19125	1.22432	1.14492	3.2941	74.45	-0.2425	0.0328	0.2753	1145.8471	0.16501	-365.091907	-365.082754	-365.08181	-365.125993	32.716	
C	 0.0309010938	 1.4389327145	 0.1385117048	-0.332721
N	 0.1355845964	 0.0031649433	-0.0224554234	-0.325764
C	 0.1334371724	-0.6045452859	-1.2471862913	 0.437553
O	 0.0339248215	 0.0241073858	-2.2919467776	-0.393647
C	 0.2597564188	-2.0950232932	-1.1944482376	-0.143499
C	-0.2440720244	-2.8893152992	-2.3829108029	-0.283871
C	 1.2285930277	-2.8269313744	-2.1264079252	 0.015538
C	 2.1740897827	-2.1015575368	-3.0577227688	-0.417593
H	-0.0934638807	 1.8666602404	-0.8568606212	 0.171674
H	-0.8331564577	 1.7088886365	 0.7560875664	 0.122651
H	 0.9330757155	 1.8605144164	 0.5971159342	 0.122799
H	 0.2402073778	-0.569290862	 0.7980483892	 0.243008
H	 0.1302602387	-2.539960384	-0.2120807203	 0.071124
H	-0.7831661417	-3.8095612717	-2.1877728598	 0.107995
H	-0.6281999254	-2.2852358803	-3.1978431426	 0.1395
H	 1.6535839334	-3.716740262	-1.6674935604	 0.085773
H	 1.7166461943	-1.1918315901	-3.4493185284	 0.15927
H	 3.1001135853	-1.8242785399	-2.5415787727	 0.108908
H	 2.4446022914	-2.7489144375	-3.8992983625	 0.111303
56.1037	94.4315	131.9632	182.2731	197.7556	244.3669	302.9425	363.016	400.3609	430.6567	473.8487	669.1987	743.5303	788.765	840.0935	868.5543	901.8548	952.3162	1005.3502	1076.7216	1079.6933	1100.9692	1114.488	1147.7147	1154.8631	1172.492	1201.9841	1230.0763	1242.5044	1390.3763	1411.5629	1423.6002	1438.5627	1475.4806	1494.2734	1500.9326	1501.5685	1506.6253	1561.8081	1755.6507	3023.8595	3032.2109	3074.1117	3086.4239	3124.1031	3134.1603	3142.3674	3148.7302	3154.0164	3228.2029	3653.6132
CNC(=O)C1CC1C	CNC(=O)[C@H]1C[C@H]1C	
InChI=1S/C6H11NO/c1-4-3-5(4)6(8)7-2/h4-5H,3H2,1-2H3,(H,7,8)	InChI=1S/C6H11NO/c1-4-3-5(4)6(8)7-2/h4-5H,3H2,1-2H3,(H,7,8)/t4-,5+/m1/s1
