19
gdb 112295	2.99802	1.26936	0.99121	5.0651	75.76	-0.2524	0.0333	0.2857	1226.6928	0.16073	-419.231458	-419.223051	-419.222107	-419.264758	31.78	
C	-0.0810207262	 1.6115301315	 0.0371878427	-0.392539
C	-0.1314909376	 0.0814088763	-0.0130858262	-0.179198
C	 0.6870918893	-0.5196981297	-1.1619290051	 0.024925
N	 2.1199117472	-0.3015569107	-1.057823751	-0.329784
C	 2.8961028154	-1.4105347937	-1.3023361543	 0.40486
O	 4.0965652222	-1.4496928685	-1.3675813482	-0.366753
N	 2.0213163191	-2.5531466678	-1.4723776829	-0.154445
C	 1.3064838015	-2.8582171097	-0.2076658644	-0.251339
C	 0.651463154	-2.0465715367	-1.2590450743	-0.043069
H	 0.9344166225	 1.974820899	 0.2293453194	 0.117583
H	-0.4230547925	 2.0525838729	-0.9057559828	 0.120297
H	-0.7196088615	 1.9987682429	 0.8361687749	 0.124623
H	 0.2218272069	-0.3380638742	 0.9352135676	 0.104443
H	-1.1708270889	-0.2471768827	-0.1377389536	 0.105588
H	 0.303542468	-0.106819617	-2.1086161116	 0.08637
H	 2.5472879632	 0.6092125625	-1.0348607214	 0.257401
H	 1.0342854482	-3.9019252165	-0.0874529062	 0.131266
H	 1.6583692187	-2.3666665701	 0.6948728944	 0.134094
H	-0.1228615593	-2.4909234277	-1.8754378369	 0.105677
88.0465	97.4224	154.9783	214.9199	251.9523	326.6339	399.6646	448.7561	484.4822	520.9614	658.6151	696.2321	773.4402	791.9289	815.7353	849.5034	869.5537	934.1977	984.3189	1010.427	1032.0184	1069.1924	1086.9603	1114.4603	1141.68	1155.2876	1165.1508	1211.5633	1284.8588	1290.7077	1303.3882	1353.455	1398.7133	1403.3151	1413.8024	1432.2254	1478.0848	1500.7927	1503.6224	1506.9792	1864.2142	2969.9815	3030.5488	3033.0294	3071.6389	3099.9431	3109.3179	3119.4379	3165.3813	3209.5712	3661.1117
CCC1NC(=O)N2CC12	CC[C@H]1NC(=O)N2C[C@@H]12	
InChI=1S/C6H10N2O/c1-2-4-5-3-8(5)6(9)7-4/h4-5H,2-3H2,1H3,(H,7,9)	InChI=1S/C6H10N2O/c1-2-4-5-3-8(5)6(9)7-4/h4-5H,2-3H2,1H3,(H,7,9)/t4-,5+,8?/m1/s1
