15
gdb 126888	6.26038	0.83099	0.75013	1.9903	67.01	-0.2407	0.0188	0.2595	1473.3767	0.111376	-491.067885	-491.05942	-491.058475	-491.102262	30.018	
C	-0.2005690219	 0.9820887249	 0.9717262358	-0.364941
C	 0.2637743402	 0.3066741702	-0.316137962	-0.138892
N	 1.1097074854	-0.8434716387	-0.0047068139	-0.36536
C	 2.0073212761	-1.1775247381	-0.7974091659	 0.557525
O	 2.3735088806	-0.6359029528	-1.9976291725	-0.260193
N	 3.4944871903	-1.3708561506	-2.5117900722	-0.255463
C	 3.6808370393	-2.267679434	-1.6141681529	 0.497179
O	 4.5995609947	-3.2153708113	-1.6063996486	-0.383129
O	 2.8576530016	-2.2524973633	-0.5593111157	-0.207398
H	-0.7328673341	 0.2695093431	 1.6080051387	 0.127145
H	 0.6530224652	 1.3668555629	 1.5376957304	 0.120927
H	-0.8696986952	 1.8183926438	 0.7464905515	 0.109908
H	-0.6093230278	-0.0488615755	-0.8796380797	 0.114476
H	 0.7810048505	 1.0305990077	-0.9601699414	 0.113014
H	 5.1273223351	-3.1295765483	-2.4127290919	 0.335203
27.2697	103.2899	134.929	209.5856	282.0013	320.727	350.7021	387.8233	446.6872	556.9019	679.0984	701.3829	734.9817	760.3244	802.2403	881.8057	921.859	963.164	1028.8251	1108.5884	1120.3581	1146.6845	1178.6984	1229.9767	1307.549	1391.6965	1413.7101	1487.1808	1489.3864	1507.6856	1528.7604	1722.6996	1854.7593	3005.7249	3038.8241	3041.8408	3113.8881	3120.8853	3786.0543
CCN=C1ON=C(O)O1	CCN=c1onc(O)o1	
InChI=1S/C4H6N2O3/c1-2-5-4-8-3(7)6-9-4/h2H2,1H3,(H,6,7)	InChI=1S/C4H6N2O3/c1-2-5-4-8-3(7)6-9-4/h2H2,1H3,(H,6,7)
