19
gdb 64732	3.18084	1.16443	1.07371	1.0702	81.56	-0.2408	0.0234	0.2642	1196.9835	0.157962	-385.870023	-385.861182	-385.860238	-385.903447	34.396	
O	 0.1145641068	 1.5358312576	-0.2501319223	-0.482243
C	-0.000334686	 0.1637501748	 0.0815759545	 0.405344
C	 0.7679433158	-0.6949716032	-0.9608333197	-0.390182
C	 2.1749925815	-0.322999168	-1.0475253712	 0.265871
C	 3.319295572	 0.0468125339	-1.0932268865	-0.429277
C	 0.4812465554	-0.1705754363	 1.5277073113	-0.316837
C	-0.5632374851	-1.13111445	 2.0364621066	-0.05829
C	-1.6380167594	-1.1593878737	 1.2490364384	-0.065644
C	-1.5017285131	-0.2237868736	 0.0751126368	-0.303761
H	 1.0538864686	 1.727345543	-0.3659822822	 0.280158
H	 0.668117121	-1.7550764106	-0.6987346114	 0.135609
H	 0.2942794233	-0.5553588381	-1.93965822	 0.134684
H	 4.3380209009	 0.3417938771	-1.1494780945	 0.199499
H	 1.4994504744	-0.5754316025	 1.5455777003	 0.107594
H	 0.4964997101	 0.7525318671	 2.1217907996	 0.113075
H	-0.4429884829	-1.6963077841	 2.9542078398	 0.091918
H	-2.5306330108	-1.7493657934	 1.424658633	 0.092307
H	-2.1042201229	 0.6836797715	 0.2081210534	 0.122135
H	-1.8126070095	-0.6689370316	-0.8774881459	 0.098041
74.7138	99.0948	136.9791	283.0131	324.6328	364.7738	384.8546	397.8057	408.5312	440.4473	517.1113	622.3057	639.598	653.4094	707.2821	766.5437	797.9068	883.6622	917.8384	953.6622	964.0436	977.0977	980.1108	987.8292	1066.0496	1100.3037	1110.6379	1135.7819	1159.0629	1243.6716	1269.2089	1289.9017	1302.5277	1329.8222	1366.6823	1407.8641	1461.0849	1481.2371	1489.7787	1686.7338	2227.711	3021.8709	3025.0155	3030.6808	3056.8631	3062.0246	3071.458	3180.5362	3205.7952	3503.9526	3767.9816
OC1(CC#C)CC=CC1	O[C@@]1(CC#C)CC=CC1	
InChI=1S/C8H10O/c1-2-5-8(9)6-3-4-7-8/h1,3-4,9H,5-7H2	InChI=1S/C8H10O/c1-2-5-8(9)6-3-4-7-8/h1,3-4,9H,5-7H2
