16
gdb 5244	6.66146	1.0682	0.97649	1.2833	67.33	-0.2155	0.0204	0.2359	1168.0363	0.131044	-383.764511	-383.756765	-383.755821	-383.797441	27.787	
O	-0.0756866474	 1.4328493508	-0.1494647047	-0.419013
C	 0.038622085	 0.0194339748	-0.1189346198	-0.067795
C	-1.3594066375	-0.5444029247	 0.1515718272	-0.295097
C	-1.3907773168	-2.0312870364	 0.1982731245	 0.356294
C	-1.6329220762	-2.9370479997	 1.1851217225	-0.274824
C	-1.5022626673	-4.2370236177	 0.5937666607	-0.168843
C	-1.1884351357	-4.0238778358	-0.7087785177	-0.021275
O	-1.1155940295	-2.689939101	-0.9683866193	-0.180175
H	 0.7908208228	 1.8007300911	-0.3448915157	 0.287329
H	 0.4132838412	-0.3780740922	-1.0737207195	 0.101033
H	 0.7272282836	-0.315032894	 0.6727090405	 0.090916
H	-1.7210564574	-0.1534947067	 1.1071041157	 0.121814
H	-2.0345734183	-0.1686264112	-0.626826696	 0.124791
H	-1.8785313062	-2.7066652046	 2.2101887961	 0.106117
H	-1.6287239174	-5.1934583259	 1.0762274908	 0.10901
H	-0.995193643	-4.6740466467	-1.5459243754	 0.129719
58.9032	92.7543	119.0321	251.7065	312.971	349.8238	373.1218	615.4928	661.4945	740.865	760.1289	794.5909	807.8263	848.2814	902.6821	946.0665	1007.0906	1027.0318	1054.3882	1080.2814	1117.1882	1183.0322	1207.7088	1232.6115	1244.1471	1263.0527	1312.1106	1337.6275	1417.3554	1454.6943	1478.0213	1529.194	1542.5268	1640.0425	2977.4203	3012.7965	3038.9585	3098.7384	3249.9308	3261.4147	3285.547	3833.2229
OCCC1=CC=CO1	OCCc1ccco1	
InChI=1S/C6H8O2/c7-4-3-6-2-1-5-8-6/h1-2,5,7H,3-4H2	InChI=1S/C6H8O2/c7-4-3-6-2-1-5-8-6/h1-2,5,7H,3-4H2
