16
gdb 42706	3.21983	1.90399	1.80904	3.1864	70.22	-0.2349	-0.0307	0.2041	821.3246	0.126949	-400.676479	-400.670623	-400.669679	-400.706571	24.597	
O	 0.0181889049	 0.0386340095	 0.0919051189	-0.317437
C	-0.011400665	 1.2338186291	 0.0758421561	 0.458837
C	-1.1012259221	 2.3016904811	-0.0184501778	-0.14069
C	-1.1177938091	 3.195428703	 1.2767697668	-0.064345
C	-0.011477134	 2.7768655014	 2.2797058192	-0.257452
C	 1.0380009323	 3.2483037781	 1.239823439	-0.064345
C	-0.0735527863	 4.0994002594	 0.5503333301	 0.026307
N	-0.0735377276	 3.2311836462	-0.6913074541	-0.173522
C	 1.0209095422	 2.3537405626	-0.0548194939	-0.14069
H	-2.0461152637	 2.0953640021	-0.5215306425	 0.097773
H	-2.0922469286	 3.5172690499	 1.6388889025	 0.083788
H	-0.0132449242	 3.4510428773	 3.1413879291	 0.110413
H	 0.0199388614	 1.7412159065	 2.630656917	 0.119081
H	 2.0073380321	 3.617819147	 1.568630737	 0.083788
H	-0.1015909745	 5.1852390442	 0.4683419456	 0.080722
H	 1.956992072	 2.1935490128	-0.5901367731	 0.097773
134.4963	315.884	402.7479	469.5575	563.5688	647.2165	677.1204	753.5668	797.3839	822.1811	829.7601	844.6498	882.1965	899.867	932.8332	964.3171	976.2774	994.3156	1018.9296	1022.1122	1092.2152	1101.1588	1120.5457	1155.7063	1181.014	1187.8333	1212.2754	1213.8299	1234.323	1255.881	1276.5845	1293.5977	1310.7966	1489.4185	1892.0953	3048.9499	3104.3937	3112.8192	3112.9617	3114.8183	3129.2186	3134.7964
O=C1C2C3CC4C3N2C14	O=C1[C@H]2[C@H]3C[C@@H]4[C@H]3N2[C@H]14	
InChI=1S/C7H7NO/c9-7-5-2-1-3-4(2)8(5)6(3)7/h2-6H,1H2	InChI=1S/C7H7NO/c9-7-5-2-1-3-4(2)8(5)6(3)7/h2-6H,1H2/t2-,3+,4-,5+,6-
