16
gdb 12131	4.08346	1.69631	1.67961	0.7599	64.15	-0.2271	0.0661	0.2932	849.9375	0.128438	-383.659917	-383.652591	-383.651647	-383.69085	28.968	
C	-0.1126931395	 1.5146754261	 0.0469728372	-0.503391
C	 0.1407897696	 0.045864012	-0.0084050276	 0.429911
O	-0.7621139691	-0.8444089769	 0.6797868783	-0.281989
C	 0.6457721638	-0.9282269463	 0.954978689	-0.140451
C	 1.3456071759	-1.7374047173	-0.196211292	 0.359382
O	 2.6448859722	-2.191601576	-0.0896801299	-0.453901
C	 0.3593854978	-2.1855106024	-1.237146508	-0.349786
C	 0.8108171122	-0.7351261261	-1.1930107346	-0.194593
H	 0.7887079002	 2.0717027208	-0.2287352354	 0.129269
H	-0.9097414946	 1.7989827578	-0.6496109133	 0.131793
H	-0.4147791452	 1.8102887172	 1.055094595	 0.13477
H	 0.9788389189	-0.835902163	 1.9831785183	 0.104509
H	 2.6213971501	-3.0970311995	 0.2410501239	 0.288606
H	 0.8140693714	-2.7500269235	-2.0456147756	 0.112899
H	-0.6563765795	-2.4576164194	-0.9789765174	 0.133352
H	 1.3268539857	-0.2576102133	-2.0151584481	 0.099619
165.4931	201.988	270.5863	290.4391	327.3308	379.7906	425.4768	480.603	537.1561	588.7815	655.4475	758.6388	817.4728	847.697	874.8264	911.3102	957.2557	986.9431	991.6599	1000.9952	1060.4931	1089.6883	1107.0514	1167.4934	1170.0213	1220.7902	1272.0843	1298.7181	1397.3443	1405.7339	1465.2241	1480.1157	1485.5947	1501.4734	3033.0919	3095.3834	3122.2392	3136.4169	3177.1116	3207.9319	3232.9137	3780.7906
CC12OC1C1(O)CC21	C[C@]12O[C@H]1[C@@]1(O)C[C@@H]21	
InChI=1S/C6H8O2/c1-5-3-2-6(3,7)4(5)8-5/h3-4,7H,2H2,1H3	InChI=1S/C6H8O2/c1-5-3-2-6(3,7)4(5)8-5/h3-4,7H,2H2,1H3/t3-,4+,5+,6+/m0/s1
