18
gdb 36223	3.52205	1.0703	0.95499	3.9471	81.63	-0.2404	0.0016	0.242	1264.7018	0.149132	-364.829941	-364.82203	-364.821086	-364.862983	30.23	
N	-0.1076805714	-1.0590723674	 0.5797340818	-0.312907
C	-0.0574642429	 0.047040799	 0.249474249	 0.264949
C	 0.0226203226	 1.4539654142	-0.1567941391	-0.449672
C	 1.4344755867	 1.9843626793	-0.1284032582	 0.347067
C	 2.0790271976	 2.5612888688	-1.1467161183	-0.19519
C	 3.4808003682	 2.9886289804	-0.768581879	-0.266521
C	 3.561651035	 2.6694559769	 0.7252561008	-0.03191
C	 2.6001393779	 3.3599664025	 1.6553201453	-0.282129
C	 2.2627816464	 1.9822201206	 1.1157934559	-0.13428
H	-0.4054109329	 1.5533350122	-1.1594847925	 0.155647
H	-0.6175276984	 2.030592348	 0.5248781327	 0.159793
H	 1.6587295833	 2.7331428285	-2.1318916411	 0.09411
H	 4.2312231756	 2.4273233342	-1.3412550523	 0.114606
H	 3.6623329821	 4.0499710386	-0.9820143332	 0.112844
H	 4.5060825809	 2.3328753131	 1.1351281309	 0.092141
H	 2.8911857448	 3.4301883716	 2.6981653598	 0.114724
H	 2.0236798683	 4.2035373101	 1.2877819946	 0.109863
H	 2.2214329562	 1.1369628495	 1.7937387029	 0.106862
54.2719	101.2825	204.4415	280.8646	317.5761	367.3692	388.938	457.5499	582.7886	664.3356	728.3386	775.6928	813.4131	827.0097	851.9449	897.836	929.9542	936.3483	979.2817	991.5504	1007.4897	1055.5496	1072.1734	1098.0064	1103.4618	1172.0232	1186.9162	1206.6193	1211.5891	1275.892	1313.0072	1329.4644	1374.7835	1385.0291	1453.1538	1471.9455	1483.7123	1704.2426	2361.8103	3016.2118	3021.4576	3043.4784	3082.9233	3121.4543	3172.9862	3183.8338	3189.7445	3211.6771
N#CCC1=CCC2CC12	N#CCC1=CC[C@H]2C[C@@H]12	
InChI=1S/C8H9N/c9-4-3-6-1-2-7-5-8(6)7/h1,7-8H,2-3,5H2	InChI=1S/C8H9N/c9-4-3-6-1-2-7-5-8(6)7/h1,7-8H,2-3,5H2/t7-,8-/m0/s1
