22
gdb 104361	2.15011	1.47267	1.28859	2.8012	82.49	-0.2547	0.0325	0.2872	1161.3965	0.194652	-404.383828	-404.37438	-404.373436	-404.417713	35.882	
C	-0.2711966018	 1.3598809358	 0.1532560242	-0.39324
C	-0.0352125069	-0.1237122524	-0.1440261857	-0.208944
C	 0.9068828141	-0.4371282983	-1.3437747374	 0.191188
C	 2.2778157889	 0.2219198644	-1.1681366995	-0.439716
C	 0.9882677089	-1.9669771961	-1.556616211	-0.267463
C	-0.2103573064	-2.2554481977	-2.4650722653	-0.097728
O	-0.4052597431	-1.0529830387	-3.2291453411	-0.247083
C	 0.2389799504	-0.0004145302	-2.6440543072	 0.407354
N	 0.2615951543	 1.1683859572	-3.1256213682	-0.542143
H	 0.6433994025	 1.8533947976	 0.4944642235	 0.117256
H	-0.6235458	 1.8904760234	-0.7344788251	 0.147129
H	-1.0190013025	 1.4706743282	 0.9448221372	 0.106783
H	 0.3952479133	-0.6114747322	 0.7402999109	 0.095088
H	-1.0026425492	-0.6117049709	-0.3183553605	 0.097288
H	 2.7240495046	-0.0626192871	-0.2088861212	 0.106428
H	 2.9609409413	-0.0827799414	-1.9666445758	 0.113907
H	 2.1914898894	 1.3090927538	-1.2080796667	 0.148159
H	 1.9190846715	-2.2253319383	-2.0715199978	 0.108598
H	 0.9511235366	-2.532297965	-0.6221661125	 0.106219
H	-0.0442928526	-3.0752854605	-3.1681362075	 0.118424
H	-1.1249358877	-2.4663562966	-1.8981819513	 0.113518
H	-0.2734332854	 1.2085170249	-3.995098352	 0.218981
89.4116	113.549	179.3799	198.6871	208.7915	250.6371	282.0412	302.4458	362.8783	409.7724	491.1523	598.617	671.0098	695.4491	707.7278	783.4814	831.194	889.8085	905.2138	929.3351	964.173	1013.8792	1018.1408	1030.7936	1036.6207	1081.2839	1099.0805	1188.63	1196.9099	1208.4592	1243.0994	1249.8575	1287.6926	1318.3311	1362.2504	1366.6217	1405.8107	1413.7238	1415.5798	1477.7025	1487.8684	1493.073	1495.7878	1504.197	1512.7404	1527.8292	1762.6464	3013.9318	3033.1069	3037.0775	3043.9835	3048.9962	3052.867	3095.4609	3101.9105	3106.2288	3109.8262	3130.0158	3138.3883	3467.1749
CCC1(C)CCOC1=N	CC[C@@]1(C)CCO[C]1[NH]	
InChI=1S/C7H13NO/c1-3-7(2)4-5-9-6(7)8/h8H,3-5H2,1-2H3	InChI=1S/C7H13NO/c1-3-7(2)4-5-9-6(7)8/h8H,3-5H2,1-2H3/t7-/m0/s1
