14
gdb 28643	5.86816	1.0253	0.87751	2.9438	79.14	-0.2698	-0.0723	0.1975	1242.9892	0.10243	-395.806218	-395.798425	-395.797481	-395.840015	27.439	
C	-0.011534406	 1.4947842836	 0.015624385	-0.46173
C	 0.0055085995	-0.0046266471	 0.0137245136	 0.369472
N	 0.114059791	-0.6107053677	-1.1807751175	-0.275598
C	 0.1297151838	-1.9352626641	-1.1872939049	-0.037633
C	 0.0381572344	-2.6908183075	-0.0102305031	 0.085157
C	-0.0712533123	-1.9602750803	 1.1775744351	-0.038307
N	-0.0878837859	-0.6323431946	 1.1951093502	-0.274234
C	 0.0555169779	-4.1153334134	-0.0237670035	 0.214824
N	 0.0696903621	-5.2729130638	-0.0354877616	-0.319942
H	 0.9061593609	 1.8802513006	-0.4399218427	 0.151595
H	-0.8436985014	 1.8606742365	-0.5941297772	 0.151563
H	-0.1051630293	 1.8743634702	 1.0326070274	 0.145531
H	 0.217425734	-2.4287038059	-2.1520486175	 0.144539
H	-0.1468613385	-2.4709058363	 2.1342109867	 0.144763
22.8093	92.8276	149.5127	239.2497	361.8742	406.5849	446.4563	454.1049	560.1504	585.3459	661.9651	718.4779	775.5133	854.7758	976.333	1001.0367	1007.1524	1054.8922	1070.5483	1232.9157	1242.0703	1298.6095	1315.3816	1405.4486	1407.9746	1464.0818	1476.0709	1485.0194	1563.9277	1629.1457	2346.1007	3049.479	3106.5322	3162.8561	3167.2386	3168.9183
CC1=NC=C(C=N1)C#N	Cc1ncc(cn1)C#N	
InChI=1S/C6H5N3/c1-5-8-3-6(2-7)4-9-5/h3-4H,1H3	InChI=1S/C6H5N3/c1-5-8-3-6(2-7)4-9-5/h3-4H,1H3
