22
gdb 110352	2.17006	1.37769	1.29132	1.9015	82.	-0.2228	0.0594	0.2822	1179.6152	0.19343	-404.298675	-404.289004	-404.28806	-404.332684	36.612	
C	 0.4470201737	 1.0398849591	 0.7570641038	-0.375699
C	 0.3221776963	-0.2400857628	-0.0779094505	-0.228502
C	-1.0967053818	-0.7764276912	-0.108789122	 0.036165
C	-1.5442962608	-2.1619705586	-0.3523823708	-0.081567
C	-0.7076161637	-3.2175226849	 0.3538892934	 0.060328
O	 0.6313412447	-3.30105143	-0.096047306	-0.419864
C	-1.048645737	-2.4798688	 1.688117434	 0.039105
C	 0.0233556782	-2.0444774039	 2.6727740894	-0.418658
N	-1.8726011135	-1.4382178058	 0.9658745009	-0.177742
H	 1.461689207	 1.4463885067	 0.702423448	 0.10946
H	-0.2419042707	 1.8135419169	 0.4003371617	 0.113682
H	 0.2136895791	 0.8543498673	 1.8098597937	 0.122234
H	 0.5909219318	-0.0179590865	-1.1194735245	 0.098693
H	 1.0282626865	-1.0021509792	 0.2486075076	 0.127332
H	-1.771173838	-0.0566569077	-0.577017429	 0.092529
H	-2.3192098252	-2.3976244347	-1.0754511241	 0.089668
H	-1.1841510095	-4.2046830182	 0.3132454596	 0.077673
H	 1.0527140894	-4.0405075427	 0.3536317249	 0.284975
H	-1.7838539533	-3.0810627124	 2.2338140339	 0.081889
H	 0.8936310065	-1.5917655288	 2.1978762682	 0.130657
H	-0.3971184273	-1.3224650906	 3.3806226767	 0.129641
H	 0.3696475376	-2.9083443219	 3.251983641	 0.108
104.798	137.0358	165.2998	178.1769	194.4483	219.8741	269.0014	281.2092	341.0533	378.0734	503.8853	552.8739	630.9859	677.5805	759.5472	774.6662	809.7218	812.1336	872.1706	928.6195	955.1104	1008.4519	1015.8717	1051.1522	1078.7537	1107.3387	1122.7493	1139.3216	1170.7726	1188.614	1209.1378	1268.1667	1283.0396	1296.6121	1313.7526	1345.3599	1372.0513	1386.0536	1402.783	1409.4598	1436.9577	1461.248	1482.5689	1490.9632	1498.4663	1503.0069	1513.0012	3017.7672	3024.3168	3034.0472	3035.0005	3045.8178	3084.5919	3094.092	3095.712	3109.8828	3140.1316	3151.5016	3155.4518	3815.834
CCC1C2C(O)C(C)N12	CC[C@H]1[C@H]2[C@@H](O)[C@@H](C)N12	
InChI=1S/C7H13NO/c1-3-5-6-7(9)4(2)8(5)6/h4-7,9H,3H2,1-2H3	InChI=1S/C7H13NO/c1-3-5-6-7(9)4(2)8(5)6/h4-7,9H,3H2,1-2H3/t4-,5+,6+,7+,8?/m1/s1
