18
gdb 42319	3.24518	1.10314	0.89864	3.905	77.06	-0.2906	-0.0816	0.209	1289.4485	0.148527	-401.988808	-401.980133	-401.979189	-402.023817	31.08	
O	-0.0118954042	-0.1474427318	 0.3397695773	-0.268835
C	-0.0956536169	 1.0328533069	 0.1111312029	 0.277096
C	 1.1070563308	 1.7733525968	-0.3459217643	 0.234593
N	 2.0378660498	 2.3639538697	-0.6953218668	-0.304219
C	-1.3410409625	 1.8816251695	 0.2169211401	-0.085797
C	-1.7774646513	 2.4015798382	-1.1968694351	-0.226878
C	-3.3131668295	 2.393669932	-1.1314094696	-0.200651
C	-3.6262257541	 1.1275150355	-0.3216856468	-0.196802
C	-2.5665573518	 1.1286310811	 0.7998743752	-0.242209
H	-1.0748413962	 2.7458741831	 0.8369106588	 0.112297
H	-1.3481442004	 3.3778375064	-1.4303460725	 0.122347
H	-1.4419870349	 1.7044151509	-1.973867485	 0.118188
H	-3.6686434164	 3.2821274698	-0.5949790197	 0.104581
H	-3.7722184149	 2.4028188639	-2.1237981286	 0.105718
H	-4.648103995	 1.1029071518	 0.0653892303	 0.102784
H	-3.497879988	 0.2438027321	-0.9576626353	 0.109261
H	-2.293013472	 0.1224557305	 1.1219968104	 0.131603
H	-2.9373516327	 1.6663540435	 1.6771576388	 0.106923
36.8324	39.5024	126.7814	203.4659	255.7539	288.6613	320.7913	442.0053	521.0583	581.8336	646.4624	700.0614	765.9926	835.9798	870.7329	902.3427	911.6819	929.519	963.3134	1028.3546	1044.227	1059.4241	1118.8177	1155.0325	1186.9324	1232.0563	1261.1325	1289.6226	1321.2883	1330.7315	1344.4541	1350.9783	1370.2297	1487.0894	1491.3839	1492.6166	1510.878	1794.6062	2335.3195	3032.1489	3034.9811	3040.9371	3043.8063	3064.6254	3094.6231	3099.8597	3112.806	3123.9126
O=C(C#N)C1CCCC1	O=C(C#N)C1CCCC1	
InChI=1S/C7H9NO/c8-5-7(9)6-3-1-2-4-6/h6H,1-4H2	InChI=1S/C7H9NO/c8-5-7(9)6-3-1-2-4-6/h6H,1-4H2
