18
gdb 98530	3.75136	1.14045	1.02089	2.0364	73.75	-0.2424	0.0017	0.2442	1217.8908	0.147907	-439.040621	-439.032151	-439.031207	-439.074951	30.675	
C	-0.3622050253	 1.3010993167	 0.3796935483	-0.242101
O	-0.3222294912	-0.1256050986	 0.5216687736	-0.235534
C	 0.86886585	-0.6328771635	 0.8894088333	 0.293691
O	 1.8528019273	 0.027373371	 1.1083313636	-0.375373
C	 0.7954143624	-2.1232875113	 1.0275664527	 0.269965
C	 1.9349859288	-3.1480943041	 0.820938947	-0.223373
C	 0.6366713685	-3.9341426995	 1.1391465518	-0.029433
C	 0.3554621767	-2.931876463	 2.2907429361	-0.260722
N	-0.0689965524	-3.0140596351	 0.1491034577	-0.345477
H	 0.3466987582	 1.6298121415	-0.3842192286	 0.144847
H	-1.3828444273	 1.5412329867	 0.0825749213	 0.135063
H	-0.1116078254	 1.7891143123	 1.3249326198	 0.141601
H	 2.3003937015	-3.2341753424	-0.2020946671	 0.114351
H	 2.7283197711	-3.1623455268	 1.56786957	 0.107747
H	 0.4812105983	-5.0126658514	 1.1243823355	 0.089638
H	 1.0256445986	-2.9280876421	 3.1557050658	 0.105663
H	-0.6917558536	-2.8128563526	 2.5826932361	 0.100338
H	-1.0478893161	-2.9029663278	 0.431799003	 0.209108
31.7622	108.9503	126.5162	140.4543	254.7101	305.1682	374.7324	449.6469	548.0405	602.8916	717.0735	790.9035	800.7787	817.4535	903.4968	934.6265	937.5047	965.5838	992.997	1018.3536	1052.4898	1096.869	1130.9297	1149.0402	1169.452	1178.2317	1180.4468	1213.0018	1223.921	1227.3012	1277.5337	1297.6449	1356.3216	1473.4348	1481.7476	1481.8958	1496.4037	1525.7681	1819.6583	3042.9405	3053.0608	3090.5991	3115.2743	3119.7458	3128.3196	3161.6173	3169.6878	3388.8267
COC(=O)C12CC(C1)N2	COC(=O)[C@@]12C[C@@H](C1)N2	
InChI=1S/C6H9NO2/c1-9-5(8)6-2-4(3-6)7-6/h4,7H,2-3H2,1H3	InChI=1S/C6H9NO2/c1-9-5(8)6-2-4(3-6)7-6/h4,7H,2-3H2,1H3/t4-,6+
