14
gdb 8831	3.1237	1.55293	1.16617	2.8521	59.9	-0.2692	-0.0083	0.2609	1016.0887	0.103959	-419.662043	-419.653132	-419.652187	-419.696179	30.471	
C	-0.0669790714	 1.352087366	-0.0217414954	-0.245271
O	-0.0404327655	-0.0836916358	-0.1061120017	-0.219155
C	 0.6640839335	-0.5885745162	-1.1150105467	 0.430151
O	 1.2399376268	 0.0526328252	-1.9592892373	-0.37001
C	 0.6833108853	-2.1274268909	-1.1050898878	-0.135984
O	 1.136532439	-2.5907434505	-2.3513117927	-0.405836
C	 1.5103120421	-2.5916884877	 0.0176260292	 0.33656
C	 2.1987101255	-2.9739474316	 0.9246728821	-0.474405
H	 0.9446508098	 1.742987295	 0.1085548388	 0.150235
H	-0.5014193372	 1.7781738697	-0.9288436389	 0.149449
H	-0.6832125674	 1.5834558342	 0.8460479638	 0.144253
H	-0.3464752572	-2.4768297032	-0.9553169838	 0.136051
H	 1.6433899163	-1.85737464	-2.7323113773	 0.298698
H	 2.8048464103	-3.3197307841	 1.7255180477	 0.205264
51.8593	97.713	110.6228	175.216	215.0189	245.0616	332.1508	389.7427	417.4834	428.6545	586.0849	634.8678	667.8707	673.8873	792.6192	904.3327	970.4074	1016.7706	1111.3957	1177.1991	1207.0222	1231.8543	1301.1843	1331.2208	1438.4123	1475.7862	1482.6998	1494.1747	1817.1731	2235.7878	3031.359	3058.5461	3137.5081	3170.5043	3502.6827	3717.9351
COC(=O)C(O)C#C	COC(=O)[C@@H](O)C#C	
InChI=1S/C5H6O3/c1-3-4(6)5(7)8-2/h1,4,6H,2H3	InChI=1S/C5H6O3/c1-3-4(6)5(7)8-2/h1,4,6H,2H3/t4-/m0/s1
