19
gdb 90260	3.47555	1.52481	1.25954	0.8371	74.79	-0.2293	0.0539	0.2833	1043.7785	0.159426	-422.971753	-422.964129	-422.963185	-423.003636	30.302	
C	-0.0821305497	 1.5204433776	-0.0134531842	-0.400827
C	 0.0690962605	 0.0187261172	 0.0737880696	 0.100741
O	 1.054538698	-0.5251343241	-0.8739304972	-0.352598
C	 1.8617129379	-0.9928233609	 0.1868251501	 0.437823
C	 2.7865116424	-2.1968657925	 0.2393914334	-0.343309
C	 3.5925361213	-1.4385566066	 1.355906125	-0.248088
C	 2.8366803398	-0.115852019	 1.010762392	 0.042622
O	 1.7977704711	 0.2774267231	 1.941960065	-0.305364
C	 0.8555963906	-0.5854838297	 1.2735776916	-0.023486
H	 0.8471679535	 2.0228227834	 0.2633602492	 0.134936
H	-0.3568888215	 1.8108045864	-1.0315966474	 0.126938
H	-0.8710839789	 1.8600818913	 0.6661148368	 0.120793
H	-0.8911742245	-0.4871960162	-0.0869226671	 0.082812
H	 2.3480640934	-3.167942791	 0.4829179686	 0.105461
H	 3.3718914945	-2.2951961221	-0.6797474419	 0.11946
H	 3.3808310284	-1.7787562487	 2.371025319	 0.119485
H	 4.6727149939	-1.4069699876	 1.2052988906	 0.111186
H	 3.4230282014	 0.7273418106	 0.6411977298	 0.085901
H	 0.3145429978	-1.2436124612	 1.956426637	 0.085514
105.1885	197.6535	214.0996	222.2659	332.8545	389.4724	425.0098	494.8406	582.4299	673.0128	714.7497	786.6733	821.9255	853.3075	862.5787	886.7462	903.7783	935.758	966.2523	1011.2386	1052.3808	1083.5088	1097.3658	1108.9703	1120.3398	1150.0715	1164.2984	1189.6885	1218.6517	1242.1316	1270.2048	1293.3904	1306.623	1334.3197	1353.3833	1378.866	1409.2859	1468.5547	1485.595	1489.6392	1492.2926	3024.5872	3044.0086	3056.7198	3079.5208	3090.3827	3099.3961	3106.2839	3111.6842	3136.7124	3141.2113
CC1OC23CCC2OC13	C[C@H]1O[C@@]23CC[C@@H]2O[C@@H]13	
InChI=1S/C7H10O2/c1-4-6-7(9-4)3-2-5(7)8-6/h4-6H,2-3H2,1H3	InChI=1S/C7H10O2/c1-4-6-7(9-4)3-2-5(7)8-6/h4-6H,2-3H2,1H3/t4-,5+,6+,7+/m1/s1
