19
gdb 59453	2.65585	1.07262	0.96842	3.3444	73.	-0.2503	-0.0276	0.2227	1333.5431	0.15505	-460.157298	-460.14698	-460.146036	-460.193444	36.358	
C	-0.1417057428	 1.5555779439	-0.5115515214	-0.41766
C	 0.0888467387	 0.2303761339	 0.2111235053	 0.090461
O	 0.7419490601	 0.401338042	 1.4665896286	-0.431892
C	-1.22128453	-0.5053361907	 0.4243614555	 0.044642
O	-1.8276906636	-1.1194171531	-0.7005032386	-0.234158
C	-1.3691749788	-1.9798111628	 0.339785385	-0.056569
C	-0.1919267669	-2.8762605195	 0.0429400971	 0.380796
C	 0.0192103134	-4.0023829082	 1.0349005836	-0.489757
O	 0.5302749487	-2.6937411439	-0.9092017778	-0.300171
H	 0.8084838199	 2.0768523083	-0.6545244012	 0.128959
H	-0.6010934757	 1.3834674023	-1.4890729923	 0.143583
H	-0.8106055612	 2.2078251597	 0.0656195949	 0.103041
H	 0.7490127241	-0.4010535193	-0.3867840515	 0.132386
H	 0.2968622348	 1.1138749561	 1.938626941	 0.279321
H	-1.9219301006	 0.0080148191	 1.0913660735	 0.087462
H	-2.1611724339	-2.4349093623	 0.9362381535	 0.099016
H	-0.8268723792	-4.698886014	 1.0022054643	 0.143955
H	 0.9402648485	-4.5348942221	 0.7972530919	 0.148644
H	 0.0691589545	-3.6067814093	 2.0559109886	 0.147942
42.8282	62.5048	116.5579	129.1398	174.714	246.2212	259.6668	274.4893	338.5217	346.7944	380.6133	488.44	498.5645	608.1653	632.7805	779.1245	862.3806	900.424	912.7834	952.5101	985.7965	1008.7375	1064.8234	1085.0962	1101.8843	1135.1332	1182.3124	1194.1835	1273.2864	1284.324	1339.3792	1376.8844	1399.4373	1402.8886	1417.0891	1461.3516	1466.6598	1473.6751	1493.5847	1496.3748	1812.0964	3021.383	3033.5162	3053.5749	3092.1279	3093.437	3103.2471	3115.8371	3127.4696	3157.2584	3798.8969
CC(O)C1OC1C(C)=O	C[C@@H](O)[C@H]1O[C@H]1C(=O)C	
InChI=1S/C6H10O3/c1-3(7)5-6(9-5)4(2)8/h3,5-7H,1-2H3	InChI=1S/C6H10O3/c1-3(7)5-6(9-5)4(2)8/h3,5-7H,1-2H3/t3-,5-,6+/m1/s1
