23
gdb 103184	1.90751	1.49854	1.28096	2.2376	81.91	-0.2414	0.076	0.3174	1205.2704	0.202581	-425.412505	-425.401896	-425.400952	-425.447848	39.172	
C	-0.2789348565	 1.0951997356	 0.3940412572	-0.252577
O	-0.1102488558	-0.2899340347	 0.1662758119	-0.280504
C	 0.4703500292	-0.6749278708	-1.0624769751	 0.323596
C	-0.1847424175	-0.0207105458	-2.2735116462	-0.471837
C	 2.0369269311	-0.7147008156	-1.0947490823	 0.115767
C	 2.8219970004	-0.2218760525	 0.1053400896	-0.411129
O	 2.022008676	-2.1591859128	-1.1700990619	-0.315615
C	 0.5773539511	-2.2239779588	-1.1397939139	 0.115197
C	 0.0509962972	-3.05569068	 0.0125241201	-0.395827
H	 0.6521285779	 1.6604726851	 0.2524266624	 0.10932
H	-1.0535660509	 1.5327005891	-0.2495584982	 0.113263
H	-0.5937403533	 1.2011251003	 1.435149607	 0.129196
H	 0.0014965063	 1.0571893649	-2.310802097	 0.118893
H	 0.217450899	-0.4547627902	-3.1929922758	 0.128238
H	-1.2676024638	-0.1848640514	-2.2615321811	 0.123749
H	 2.4514681845	-0.288377202	-2.0196741867	 0.05995
H	 2.3316153632	-0.5071781746	 1.038813189	 0.129349
H	 3.8216324751	-0.6672856946	 0.085395447	 0.125591
H	 2.9378571569	 0.8671038213	 0.0840785726	 0.108854
H	 0.1935208134	-2.6191632624	-2.0912565379	 0.065167
H	 0.3745714074	-2.6506648379	 0.9725902065	 0.12911
H	-1.0433982841	-3.080698778	-0.001185644	 0.114233
H	 0.4207540033	-4.0814889043	-0.0837100733	 0.118016
43.4332	128.9821	155.3235	193.5292	210.9502	234.8705	237.8955	241.3563	282.108	331.3114	343.4677	418.5655	440.9507	505.1626	559.7418	656.1347	762.2014	829.7131	876.8088	922.8415	929.4204	1004.8584	1014.9409	1077.6819	1103.565	1111.2522	1127.354	1130.6542	1175.9246	1180.3268	1189.8945	1240.1602	1253.4675	1275.6397	1346.5848	1364.061	1397.4372	1399.9836	1407.2504	1416.1319	1474.6766	1481.0355	1485.7054	1486.612	1487.1732	1492.8159	1496.1081	1504.0166	1512.3864	2991.0771	2996.5998	3000.078	3035.5784	3038.2925	3043.6209	3054.1182	3104.1227	3105.2701	3109.1465	3113.5506	3116.0072	3130.5703	3142.3117
COC1(C)C(C)OC1C	CO[C@@]1(C)[C@@H](C)O[C@H]1C	
InChI=1S/C7H14O2/c1-5-7(3,8-4)6(2)9-5/h5-6H,1-4H3	InChI=1S/C7H14O2/c1-5-7(3,8-4)6(2)9-5/h5-6H,1-4H3/t5-,6+,7+
