16
gdb 13357	7.57813	0.94273	0.85183	2.0639	81.31	-0.2202	-0.016	0.2042	1333.9813	0.129669	-346.588478	-346.580025	-346.57908	-346.623749	28.56	
C	-0.0773061718	 1.4555341454	-0.035398447	-0.507101
C	-0.0000704042	 0.003677731	-0.0202323657	 0.181338
C	 0.082864517	-1.2008822743	-0.0112692514	-0.110123
C	 0.1035199638	-2.6123512031	 0.0135047827	 0.204024
C	 1.1355913434	-3.445362257	-0.1620866263	-0.230046
C	 0.6752379882	-4.8668685684	-0.0474172395	-0.103752
O	-0.7238097374	-4.7921320464	 0.2120775866	-0.266244
C	-1.1457042595	-3.4362257901	 0.2631737623	-0.16888
H	 0.5702746145	 1.8956528708	 0.7314105385	 0.152965
H	 0.2367097075	 1.8597492767	-1.0044612798	 0.152972
H	-1.0993170842	 1.8014093987	 0.153810975	 0.152155
H	 2.1603733761	-3.1605644451	-0.3589885891	 0.106323
H	 0.8555653661	-5.4424736748	-0.9701049091	 0.107767
H	 1.1801859941	-5.4072439529	 0.7700227253	 0.107772
H	-1.5912794752	-3.212251394	 1.2441454577	 0.110417
H	-1.9163629083	-3.2476754564	-0.4994185301	 0.110412
12.5944	87.3354	95.1786	108.7923	260.5634	297.096	395.1559	445.9811	518.3801	538.029	768.6841	833.3981	864.631	921.7047	977.0398	987.9684	1023.6169	1048.7622	1053.0796	1062.5535	1120.0553	1170.5106	1221.9981	1264.583	1283.4549	1358.4272	1391.1583	1413.4147	1475.2934	1475.3844	1515.3153	1528.9993	1690.7533	2351.2161	2964.309	2977.5157	2984.0892	3005.4556	3024.8669	3083.8914	3089.1188	3227.7478
CC#CC1=CCOC1	CC#CC1=CCOC1	
InChI=1S/C7H8O/c1-2-3-7-4-5-8-6-7/h4H,5-6H2,1H3	InChI=1S/C7H8O/c1-2-3-7-4-5-8-6-7/h4H,5-6H2,1H3
