19
gdb 78022	2.63183	1.53059	1.32759	2.7433	70.94	-0.2207	0.0522	0.2729	1049.1368	0.158719	-460.141252	-460.132608	-460.131664	-460.173895	33.638	
C	-0.0989713848	 1.4792000563	-0.0676555849	-0.46698
C	 0.0152856848	-0.0149530234	 0.0238312646	 0.40973
O	-1.1708554974	-0.6660444199	-0.3646718572	-0.290163
C	-1.2638607112	-1.9362715727	 0.2625285556	-0.104609
C	-0.2116264687	-1.9901520114	 1.4082656584	 0.054419
O	 0.5935124318	-3.1777364046	 1.3724169517	-0.433771
C	 0.6625699095	-0.7834872596	 1.1590300683	-0.199974
C	 1.3151547862	-0.7462432588	-0.2164632378	 0.037187
O	 1.353489906	-1.8814981428	-1.0233631797	-0.430137
H	 0.8458957043	 1.9563444349	 0.2063462836	 0.118669
H	-0.3476235672	 1.7769143822	-1.0913692842	 0.134658
H	-0.8841343401	 1.8532533284	 0.5972851088	 0.121595
H	-2.2900409523	-2.0576791077	 0.6293305227	 0.097936
H	-1.0437373421	-2.7355679993	-0.4545464973	 0.1062
H	-0.6950863494	-1.9139738681	 2.3907428482	 0.083263
H	 0.0185901221	-3.9409993189	 1.4930444759	 0.28913
H	 1.1473990875	-0.3060848169	 2.0024024887	 0.090238
H	 2.2032930848	-0.1173927474	-0.2888481161	 0.087763
H	 1.4549412061	-2.6423072205	-0.4351005192	 0.294845
141.9423	179.8711	194.1233	215.1708	239.7492	283.1097	323.1559	383.2141	442.1762	470.135	557.3719	601.5416	637.1455	718.4377	735.3037	805.0573	844.4958	919.0226	952.4199	992.1777	1008.9836	1051.229	1068.8587	1106.3008	1116.8439	1128.3685	1165.3916	1221.7872	1237.5619	1246.3626	1263.4731	1332.0499	1346.6021	1367.2736	1399.0007	1411.0218	1426.9654	1458.1587	1477.6536	1502.6198	1511.7096	3012.8401	3024.4861	3037.26	3067.2428	3092.6297	3103.7616	3118.8906	3176.8628	3742.0892	3809.7489
CC12OCC(O)C1C2O	C[C@]12OC[C@@H](O)[C@H]1[C@H]2O	
InChI=1S/C6H10O3/c1-6-4(5(6)8)3(7)2-9-6/h3-5,7-8H,2H2,1H3	InChI=1S/C6H10O3/c1-6-4(5(6)8)3(7)2-9-6/h3-5,7-8H,2H2,1H3/t3-,4+,5-,6+/m1/s1
