18
gdb 74537	4.71439	1.47234	1.31105	1.6229	81.52	-0.2136	0.0007	0.2143	1004.1078	0.148494	-364.692784	-364.685978	-364.685034	-364.723569	28.273	
C	-0.096195776	 1.5051759131	 0.0065421515	-0.506068
C	 0.0171390042	 0.0192430412	-0.0060689384	 0.35929
C	-0.0411065593	-0.8541436223	-1.0259614239	-0.362749
C	 0.1122814561	-2.168549393	-0.2963649128	 0.324178
C	 0.0940029914	-3.6994731526	-0.1758843896	-0.342385
C	 0.2331119665	-3.1486312517	 1.2725963331	-0.04252
C	 1.1616935705	-1.9904147157	 0.8528627588	-0.050356
C	 0.1865741642	-0.8660811973	 1.2504633366	-0.143797
N	-0.7903175793	-2.0316180052	 0.9640495085	-0.156524
H	 0.7908128078	 1.9706537346	 0.4552017736	 0.127377
H	-0.2151502494	 1.9070657749	-1.0033424615	 0.126945
H	-0.9557326626	 1.8315147012	 0.605751444	 0.134894
H	-0.1838046856	-0.6743944329	-2.081099697	 0.11207
H	-0.8528365267	-4.1922722945	-0.4116910577	 0.113799
H	 0.9500485748	-4.2400832642	-0.586617074	 0.103139
H	 0.2018118812	-3.7058736857	 2.2088734188	 0.08042
H	 2.2544303905	-1.9739104089	 0.76290112	 0.062512
H	 0.1522192316	-0.3860004611	 2.23130388	 0.059777
162.6841	177.5185	265.3314	400.3781	449.8631	458.1843	554.4825	566.1239	704.2735	753.0853	766.7743	789.473	836.5808	850.9679	874.0932	877.1398	930.6828	935.5157	1004.8632	1014.4078	1022.8294	1058.0712	1081.4038	1094.4705	1119.27	1157.1892	1163.0865	1177.6524	1203.4366	1213.7459	1253.3492	1279.7351	1289.2188	1322.2772	1413.0463	1477.6879	1484.8509	1487.4908	1658.0362	3016.2111	3032.3064	3059.4844	3061.5937	3087.7433	3110.3049	3114.4288	3127.9467	3242.1459
CC1=CC23CC4C2C1N34	CC1=C[C@@]23C[C@H]4[C@@H]2[C@@H]1N34	
InChI=1S/C8H9N/c1-4-2-8-3-5-6(8)7(4)9(5)8/h2,5-7H,3H2,1H3	InChI=1S/C8H9N/c1-4-2-8-3-5-6(8)7(4)9(5)8/h2,5-7H,3H2,1H3/t5-,6+,7+,8+/m0/s1
