15
gdb 54928	5.12809	0.89227	0.81033	3.07	66.4	-0.2567	-0.0138	0.2429	1335.7431	0.11255	-453.967876	-453.959244	-453.9583	-454.002452	30.506	
N	 0.2940910621	-0.05055262	 0.980610505	-0.517176
C	-0.2291354167	 0.5454617276	-0.1174983424	 0.360587
O	 0.1292648779	 1.609551635	-0.5824748399	-0.364453
C	-1.3512852099	-0.2434728176	-0.7864596467	 0.047242
C	-1.0074531535	-0.8427516017	-2.1671884577	-0.301558
C	-1.2140230475	-2.2102463978	-1.4638283525	-0.002891
O	-1.5728278812	-1.5657353756	-0.2212582081	-0.299928
C	-2.287117629	-3.0590729722	-1.9837687718	 0.280756
N	-3.1264722566	-3.7283086078	-2.4109845958	-0.308633
H	 1.0067207457	 0.4266781884	 1.5072764416	 0.268461
H	-0.0885610125	-0.9216811399	 1.3088050532	 0.276378
H	-2.2627911651	 0.361127659	-0.7555147966	 0.13112
H	-1.724599958	-0.6259272005	-2.9568011582	 0.147862
H	 0.0042590627	-0.6504095026	-2.521188198	 0.147317
H	-0.3070225384	-2.8156657344	-1.3542847322	 0.134915
40.551	58.5818	124.1403	203.7326	254.3154	306.8791	343.6339	441.2467	503.4183	533.4611	597.916	633.7806	713.4276	760.2906	794.3123	890.2074	971.8132	1002.6433	1015.122	1044.1581	1081.7705	1094.3403	1142.722	1243.914	1255.9749	1284.1941	1326.8216	1364.0571	1386.4655	1494.6832	1597.4391	1807.0662	2359.9753	3045.9745	3071.1664	3109.9202	3171.7212	3596.1016	3735.6711
NC(=O)C1CC(O1)C#N	NC(=O)[C@H]1C[C@@H](O1)C#N	
InChI=1S/C5H6N2O2/c6-2-3-1-4(9-3)5(7)8/h3-4H,1H2,(H2,7,8)	InChI=1S/C5H6N2O2/c6-2-3-1-4(9-3)5(7)8/h3-4H,1H2,(H2,7,8)/t3-,4-/m1/s1
