13
gdb 42166	2.34691	1.35837	0.93628	2.7096	77.06	-0.2637	-0.0705	0.1933	1197.0574	0.08363	-382.181644	-382.172104	-382.17116	-382.21675	33.686	
O	 0.123990987	-0.0382257299	 0.541237623	-0.258068
C	 0.0107261591	 1.1061547711	 0.1875407332	 0.245602
C	 1.1400970432	 1.9283527923	-0.194506456	 0.26471
C	 2.0817392168	 2.6218550694	-0.4776587098	-0.39622
C	-1.3663388337	 1.8431998381	 0.1281892693	-0.462642
C	-1.6269678217	 2.2766224658	-1.2466782916	 0.338828
C	-1.8218293024	 2.6169450387	-2.381216423	-0.449707
C	-2.4452231367	 1.0271730654	 0.6766473291	 0.348753
C	-3.3349943353	 0.369181047	 1.139308941	-0.42516
H	 2.9202944417	 3.2236234115	-0.7331480037	 0.220235
H	-1.2401432153	 2.7419845801	 0.7519807924	 0.160243
H	-2.003373566	 2.9190745207	-3.3832073813	 0.208797
H	-4.1202134665	-0.22017198	 1.5445426774	 0.204628
31.5965	108.4246	126.0817	146.638	184.0165	243.6889	328.9351	363.4173	421.2809	476.8812	555.9514	592.9946	633.1306	646.1973	657.7097	660.0391	661.9336	696.0541	714.2409	852.491	940.7604	1037.2062	1102.7188	1230.434	1297.8597	1797.2475	2215.1233	2242.6568	2253.5969	2990.3085	3493.1983	3502.4008	3504.077
O=C(C#C)C(C#C)C#C	O=C(C#C)C(C#C)C#C	
InChI=1S/C8H4O/c1-4-7(5-2)8(9)6-3/h1-3,7H	InChI=1S/C8H4O/c1-4-7(5-2)8(9)6-3/h1-3,7H
