13
gdb 25425	7.24826	0.86596	0.77355	2.7151	80.18	-0.2358	-0.0575	0.1783	1354.164	0.088224	-419.433734	-419.425989	-419.425045	-419.466284	28.134	
O	 0.0008323848	-0.0614470366	-0.0030610638	-0.270735
C	 0.0086429071	 1.1489252469	 0.0076157929	 0.069899
C	 1.2241041627	 1.9678032139	 0.0009996093	 0.174148
C	 2.5125914053	 1.4980669795	-0.0176535789	-0.075629
O	 3.3915705592	 2.5094304132	-0.0187341102	-0.164195
C	 2.6679536331	 3.6860218335	-0.0002819383	 0.251211
C	 1.3339069303	 3.3956400284	 0.0121156876	-0.423644
C	 3.3851305849	 4.8933332829	 0.002187065	 0.249217
C	 3.9897888145	 5.9345713196	 0.004459836	-0.398971
H	-0.9390225856	 1.7303614285	 0.0230845571	 0.075457
H	 2.9193399354	 0.5004402681	-0.030928387	 0.1737
H	 0.5303045748	 4.1148571695	 0.0273922789	 0.136523
H	 4.5227328035	 6.8532777025	 0.0064634114	 0.203019
87.2956	126.097	179.9554	214.3743	270.3827	423.9848	453.9623	535.2682	560.1027	618.8796	638.2511	687.338	696.9822	769.4435	822.8749	849.3854	943.1661	1015.1989	1040.2275	1149.1281	1193.7411	1203.1745	1306.6747	1364.5936	1452.5402	1537.6604	1609.6003	1793.8382	2235.7461	2892.6575	3265.1431	3286.37	3501.7122
O=CC1=COC(=C1)C#C	O=Cc1coc(c1)C#C	
InChI=1S/C7H4O2/c1-2-7-3-6(4-8)5-9-7/h1,3-5H	InChI=1S/C7H4O2/c1-2-7-3-6(4-8)5-9-7/h1,3-5H
