18
gdb 36266	4.64555	0.96307	0.9041	1.0181	81.52	-0.2246	0.0482	0.2728	1306.7163	0.147056	-364.671446	-364.663424	-364.66248	-364.704395	31.422	
C	-0.0241858988	-0.7243680409	-1.7672306408	-0.400479
C	-0.1067512961	 0.1969240545	-0.9997409593	 0.26122
C	-0.1771807299	 1.3208111338	-0.070799684	-0.426685
C	 1.176485871	 2.0503848011	 0.0364280867	-0.005867
C	 1.5161743275	 3.4799878473	-0.269331042	-0.107607
C	 0.645444293	 4.5217532892	 0.4605100417	-0.037344
C	-0.3718999133	 4.0122957853	 1.4100153883	-0.24669
N	 1.0441346358	 4.0105720832	 1.8184182761	-0.139381
C	 1.809707877	 2.912129223	 1.1103466697	-0.048711
H	 0.0339471736	-1.5402165755	-2.444186306	 0.19375
H	-0.9586753661	 2.006623078	-0.4128545123	 0.145011
H	-0.4913626805	 0.9493780109	 0.9130320493	 0.143471
H	 1.9717314799	 1.412496708	-0.3460909378	 0.114258
H	 2.2046221271	 3.770525994	-1.052502195	 0.097167
H	 0.7296034219	 5.5799531872	 0.2343264612	 0.10307
H	-0.9368993349	 4.7712804611	 1.9458764744	 0.121837
H	-0.9097947219	 3.0874200665	 1.2714277467	 0.128733
H	 2.7495556747	 2.6304104733	 1.5691301932	 0.104247
49.4572	132.9908	189.4282	236.9106	348.2075	402.7062	444.3084	484.3952	613.3243	639.4602	654.8477	677.1761	712.6265	733.0774	779.0114	876.1745	890.1188	910.1728	962.4234	973.6051	997.8958	1018.8104	1024.8217	1059.9725	1074.0968	1099.7356	1117.8451	1142.5058	1202.2561	1243.8284	1251.1917	1280.1724	1302.9752	1337.6343	1365.1844	1438.7364	1477.3929	1510.5332	2238.4438	3023.0595	3070.4336	3124.8054	3131.658	3159.2752	3181.7196	3195.0357	3262.873	3506.8716
C#CCC1C2C3CN3C12	C#CC[C@H]1[C@H]2[C@H]3CN3[C@@H]12	
InChI=1S/C8H9N/c1-2-3-5-7-6-4-9(6)8(5)7/h1,5-8H,3-4H2	InChI=1S/C8H9N/c1-2-3-5-7-6-4-9(6)8(5)7/h1,5-8H,3-4H2/t5-,6+,7-,8-,9?/m0/s1
