18
gdb 13681	5.65513	0.92201	0.87103	3.658	70.76	-0.2448	0.0355	0.2803	1335.8489	0.154155	-381.123602	-381.114802	-381.113858	-381.158302	30.887	
C	 0.1331510793	 1.3678645808	-0.5263501683	-0.394762
C	-0.1066503499	 0.0746702702	 0.2159384249	 0.003451
N	 0.9991311048	-0.8996714029	 0.2636002115	-0.350862
C	 0.5116059912	-0.2925930973	 1.5195906537	-0.018837
C	 1.513263962	 0.5614369923	 2.2644551019	-0.169083
N	 2.5853687458	-0.2591200339	 2.8053350491	-0.267524
C	 2.8857482289	-0.3289510133	 4.1275100902	 0.153637
O	 2.3355830231	 0.2980830344	 5.0092129038	-0.326466
H	 1.1641417729	 1.7100525827	-0.4168360709	 0.129079
H	-0.0553264617	 1.2290210182	-1.5962028888	 0.123044
H	-0.5373690041	 2.1554853829	-0.1662044206	 0.121403
H	-1.1033367367	-0.3382085029	 0.0617704959	 0.08696
H	 0.6465558339	-1.8474729954	 0.1653416614	 0.232659
H	-0.0850496423	-0.9289603222	 2.1716377882	 0.093068
H	 1.9322142955	 1.3269549257	 1.6039960525	 0.111328
H	 1.0448155824	 1.0641256315	 3.1136560198	 0.147589
H	 3.0825472585	-0.8499457382	 2.156983436	 0.254108
H	 3.7149205565	-1.0390892226	 4.3200487899	 0.071208
38.0043	50.9953	134.5091	188.9982	201.8918	278.1621	319.5	402.5327	464.0622	527.414	578.2326	744.101	775.9937	849.2333	890.465	946.4874	980.0868	1006.3832	1034.1877	1036.8473	1063.1995	1099.4873	1160.6775	1197.4836	1216.4501	1257.889	1278.0341	1295.4761	1357.2404	1405.8997	1429.4425	1430.2891	1468.2507	1486.1458	1492.1314	1504.8717	1529.8218	1803.3164	2931.2197	3038.479	3056.611	3098.3149	3102.146	3114.9916	3125.5458	3135.1725	3507.9832	3631.3697
CC1NC1CNC=O	C[C@H]1N[C@H]1CNC=O	
InChI=1S/C5H10N2O/c1-4-5(7-4)2-6-3-8/h3-5,7H,2H2,1H3,(H,6,8)	InChI=1S/C5H10N2O/c1-4-5(7-4)2-6-3-8/h3-5,7H,2H2,1H3,(H,6,8)/t4-,5+/m1/s1
