17
gdb 38413	4.08522	1.35608	1.24319	2.8642	71.64	-0.2387	0.026	0.2647	1021.0644	0.138055	-417.971136	-417.964104	-417.963159	-418.002893	27.586	
C	 0.0917972802	 1.6752624917	 0.0662859017	-0.295573
C	 1.5989683734	 1.4732832476	-0.1275235526	-0.038897
N	 2.0472355584	 0.6569836658	 1.0275932515	-0.338435
C	 1.4387942863	-0.0034937644	-0.1546315309	-0.134146
C	-0.0763301794	 0.1187294177	 0.0696030958	 0.435252
C	-0.7500469144	-0.6349335001	 1.2361367614	-0.247957
N	-1.7416227897	-1.5253552454	 0.6064031876	-0.262936
C	-1.6882807593	-1.2646679628	-0.630272081	 0.100087
O	-0.8173782604	-0.3293676521	-1.0911207726	-0.268681
H	-0.2101930156	 2.2058252309	 0.9727891442	 0.108921
H	-0.4025256381	 2.1003479238	-0.8092952311	 0.122508
H	 2.2923043605	 2.1092740379	-0.6622316519	 0.099312
H	 3.0567138404	 0.5381477354	 0.945586252	 0.233724
H	 1.957414551	-0.772040353	-0.7142863138	 0.100181
H	-0.0249788888	-1.2108402213	 1.8182628944	 0.129953
H	-1.2558151285	 0.0436052471	 1.9316138579	 0.120116
H	-2.294612106	-1.7255981089	-1.4023130525	 0.136571
74.4374	141.4486	242.4875	378.2467	403.9458	438.5724	520.6735	529.0335	747.0998	801.6782	825.961	837.854	855.8922	896.3199	920.2452	944.2996	959.5694	966.7208	982.7241	1002.0444	1071.1535	1081.5939	1116.0919	1121.5438	1145.6877	1168.4419	1194.9417	1221.9182	1248.0702	1296.7667	1320.5151	1333.9259	1340.3263	1379.3939	1464.9391	1493.3973	1710.8832	3046.5343	3066.1671	3087.5696	3134.2218	3191.0874	3205.7494	3214.6121	3474.5511
C1C2NC2C11CN=CO1	C1[C@H]2N[C@H]2[C@]21CN=CO2	
InChI=1S/C6H8N2O/c1-4-5(8-4)6(1)2-7-3-9-6/h3-5,8H,1-2H2	InChI=1S/C6H8N2O/c1-4-5(8-4)6(1)2-7-3-9-6/h3-5,8H,1-2H2/t4-,5-,6+/m1/s1
