13
gdb 25261	3.47046	1.66896	1.13506	3.5766	65.44	-0.2548	-0.0356	0.2192	966.1559	0.093183	-452.81381	-452.807519	-452.806575	-452.844627	24.037	
O	-0.0637878341	-0.0484319577	 0.0045186346	-0.363413
C	 0.0330174533	 1.1458608993	 0.0102203427	 0.415711
O	-1.0709499528	 1.9845674521	 0.0285711255	-0.255475
C	-0.7077511436	 3.3863684919	 0.0306852659	-0.188695
C	 0.7851700143	 3.3475058352	 0.0103871677	 0.265687
C	 1.1785691526	 2.0452464645	-0.0014038143	 0.129587
N	 2.5490608986	 2.0682007214	-0.0206038534	-0.397972
C	 2.8928679173	 3.3936494205	-0.018246626	 0.007236
N	 1.8447320035	 4.2043085014	 0.0003627144	-0.340799
H	-1.1533726224	 3.8602024082	-0.850313414	 0.145697
H	-1.1294790143	 3.851310183	 0.9280285412	 0.145665
H	 3.1765142594	 1.2808575816	-0.0334169949	 0.288053
H	 3.9250674281	 3.7118099487	-0.0307780492	 0.148718
153.5423	216.9044	265.6053	311.6956	545.0935	549.4153	633.1271	648.7497	664.3455	673.6571	764.9621	786.5063	842.8982	968.8926	1010.228	1023.7689	1033.3532	1087.6085	1140.8292	1185.5038	1265.1301	1322.9612	1381.7285	1415.2143	1450.3028	1495.9096	1535.9891	1601.2181	1875.0049	3047.0315	3086.882	3254.3849	3664.0176
O=C1OCC2=C1NC=N2	O=C1OCc2c1[nH]cn2	
InChI=1S/C5H4N2O2/c8-5-4-3(1-9-5)6-2-7-4/h2H,1H2,(H,6,7)	InChI=1S/C5H4N2O2/c8-5-4-3(1-9-5)6-2-7-4/h2H,1H2,(H,6,7)
