18
gdb 91706	2.60877	1.86687	1.66359	1.6646	70.29	-0.2532	0.014	0.2672	912.9945	0.150668	-439.113351	-439.106344	-439.1054	-439.144531	28.232	
C	-0.2164298722	 1.5317121322	-0.0643135656	-0.401802
C	 0.0373338752	 0.0403629389	 0.0392065332	 0.144269
O	 0.8083804045	-0.4119718275	-1.1153035968	-0.274708
C	 1.8268715873	-1.253920171	-0.672448118	 0.218305
C	 1.3456513322	-1.8124608681	 0.6637319302	-0.28239
C	 0.8667229531	-0.4685069736	 1.2346849103	-0.027029
N	 2.029621091	 0.3957299174	 1.4932877529	-0.268057
C	 2.9834855754	 0.2863251664	 0.66422941	 0.122052
O	 3.0449141546	-0.4946148569	-0.4416478403	-0.23743
H	 0.7171715372	 2.0947353202	-0.0155132952	 0.136818
H	-0.7186835761	 1.7584559524	-1.0087369549	 0.125732
H	-0.8628287495	 1.859613441	 0.7559971175	 0.118624
H	-0.9229740343	-0.49637034	 0.0260112733	 0.078992
H	 2.0872130864	-1.9614307845	-1.4588591377	 0.099823
H	 0.5234236677	-2.5169660368	 0.5120108027	 0.113238
H	 2.1355640282	-2.2854466293	 1.2488419191	 0.120619
H	 0.2701406248	-0.5479192452	 2.1450339734	 0.083274
H	 3.9041905845	 0.8530017743	 0.7875940259	 0.129669
125.648	217.1432	239.4385	340.9634	420.158	428.2435	479.8653	505.0269	628.4418	704.2951	757.6967	812.6923	835.37	864.1646	899.8794	915.3206	961.7991	975.0757	990.4372	1049.7586	1054.3794	1092.3743	1121.5843	1150.2521	1154.3185	1188.4105	1237.6738	1304.8803	1311.2483	1352.2558	1358.5342	1376.1674	1389.4059	1402.8169	1414.6506	1485.6108	1490.7299	1492.4124	1705.0243	2992.7391	3049.0753	3070.391	3098.7037	3116.654	3131.8599	3134.6148	3142.9473	3164.5913
CC1OC2CC1N=CO2	C[C@H]1O[C@@H]2C[C@H]1N=CO2	
InChI=1S/C6H9NO2/c1-4-5-2-6(9-4)8-3-7-5/h3-6H,2H2,1H3	InChI=1S/C6H9NO2/c1-4-5-2-6(9-4)8-3-7-5/h3-6H,2H2,1H3/t4-,5-,6-/m1/s1
