16
gdb 83409	2.87231	1.32082	1.13392	3.2877	65.52	-0.2457	0.0114	0.2571	1094.1676	0.123702	-475.000698	-474.992246	-474.991302	-475.033983	31.561	
N	 0.1204956883	 1.2123853285	 0.5348845417	-0.54399
C	 0.0370023155	 0.0280912307	-0.1498882714	 0.301284
O	 0.9731740293	-0.4335830792	-0.778865078	-0.373248
C	-1.2632208459	-0.6771698987	-0.055879536	 0.124099
C	-2.4213190717	-0.5257761589	 0.9241258472	-0.181358
O	-2.6493939253	-1.9666889804	 0.9415178056	-0.302393
C	-1.5029169406	-2.1850121211	 0.1084716373	-0.008086
C	-1.7436265483	-1.5728543467	-1.2144307659	 0.083484
O	-3.0194051181	-1.4709816416	-1.7444018059	-0.432062
H	 0.9454592621	 1.7687983479	 0.3729113458	 0.263399
H	-0.7056731846	 1.6917584265	 0.8508038791	 0.259182
H	-2.1247662045	-0.1833156658	 1.9212039057	 0.121712
H	-3.3022153469	 0.0261223603	 0.5774293453	 0.117979
H	-0.8271318208	-2.9934721118	 0.362208225	 0.126115
H	-0.966229246	-1.7148463534	-1.9578983434	 0.144604
H	-3.6180241727	-1.8528466062	-1.0875808821	 0.29928
59.2115	149.5555	172.9204	231.5451	257.2093	306.775	367.4076	441.6305	469.578	498.5058	567.9229	645.0893	660.953	743.6882	786.8859	849.8875	910.793	949.4475	989.7759	1024.6934	1049.3619	1070.0608	1083.9238	1135.3269	1166.5612	1192.4282	1223.8111	1290.0644	1320.0362	1364.4309	1404.9643	1462.6591	1510.928	1619.4171	1776.5413	3029.769	3082.9448	3182.9058	3190.6988	3588.7427	3719.2587	3750.5
NC(=O)C12COC1C2O	NC(=O)[C@]12CO[C@H]1[C@H]2O	
InChI=1S/C5H7NO3/c6-4(8)5-1-9-3(5)2(5)7/h2-3,7H,1H2,(H2,6,8)	InChI=1S/C5H7NO3/c6-4(8)5-1-9-3(5)2(5)7/h2-3,7H,1H2,(H2,6,8)/t2-,3+,5+/m1/s1
