18
gdb 30433	2.29764	1.51606	0.92555	3.8736	79.76	-0.1641	0.0526	0.2167	1259.3621	0.146543	-435.279092	-435.269012	-435.268068	-435.315407	34.636	
C	-0.0305699316	 1.4082594457	 0.0760163281	-0.314337
N	 0.0208176487	-0.0398429724	 0.0003057275	-0.397179
C	 0.6398792878	-0.6632355905	 0.9112951071	 0.511191
O	 1.2648873319	-0.0928633118	 2.0166720978	-0.239959
C	 1.7713003576	-1.1116296819	 2.7950532914	 0.325076
N	 2.5094185838	-0.6960572234	 3.8935547721	-0.591659
C	 1.5018489072	-2.2946655184	 2.2252993054	-0.215943
N	 0.8287985781	-2.0200587595	 1.0171889766	-0.121838
C	 0.2511615241	-2.981352959	 0.1116938915	-0.342601
H	 0.9646432254	 1.8706618625	-0.0030752148	 0.108683
H	-0.638880386	 1.7864265115	-0.7501968845	 0.111484
H	-0.477025171	 1.7698714771	 1.0143863494	 0.103897
H	 2.0309600912	 0.0203105492	 4.4295641593	 0.25698
H	 2.7641905047	-1.4673357394	 4.4963620575	 0.253828
H	 1.7389964869	-3.2973319995	 2.5332419597	 0.129395
H	-0.583263799	-3.5267587604	 0.5720872451	 0.123947
H	-0.1225120993	-2.4300433354	-0.7520720536	 0.173207
H	 1.0040874195	-3.7055256843	-0.2183703952	 0.125827
32.8564	58.4802	98.4253	162.7019	179.9728	193.4067	214.0419	274.4087	298.3567	385.3229	568.14	611.5683	629.3482	643.4131	644.9279	719.2173	757.4766	845.1901	977.9409	1041.3674	1086.8365	1099.5631	1123.0242	1124.1281	1157.0907	1173.769	1218.8174	1350.1019	1375.6441	1429.8683	1447.1345	1466.0933	1492.2552	1494.6133	1500.3494	1516.8135	1630.3237	1742.9474	1806.8003	2978.7198	3010.4403	3020.0903	3067.023	3091.3557	3149.585	3293.205	3515.9811	3625.7987
CN=C1OC(N)=CN1C	CN=c1oc(N)cn1C	
InChI=1S/C5H9N3O/c1-7-5-8(2)3-4(6)9-5/h3H,6H2,1-2H3	InChI=1S/C5H9N3O/c1-7-5-8(2)3-4(6)9-5/h3H,6H2,1-2H3
