15
gdb 115135	2.66937	1.44095	1.09426	4.8787	62.68	-0.2495	-0.0927	0.1567	1096.9867	0.111498	-494.925653	-494.917248	-494.916303	-494.959471	29.408	
C	-0.2716802131	 1.2686879809	-0.0599328797	-0.250534
O	 0.0805664044	-0.1081822432	-0.0143724351	-0.249451
C	 0.8523188513	-0.5437285754	-1.1208657681	-0.010008
C	 1.2826849289	-1.9848818117	-0.8562655219	-0.107611
O	 0.2921704262	-2.8534290109	-1.4589229236	-0.221578
C	-0.5001764497	-2.1958974908	-2.3344940466	 0.373594
O	-1.3503232652	-2.7113295536	-2.9942891576	-0.311281
C	-0.0936034523	-0.705597365	-2.3134088734	 0.257864
O	-0.5098585212	 0.1344773206	-3.0601857282	-0.270473
H	 0.6270132285	 1.9019518228	-0.0760628017	 0.11619
H	-0.8869596183	 1.508947759	-0.9345514741	 0.145529
H	-0.8399161629	 1.4696082417	 0.8499965409	 0.141583
H	 1.6907104772	 0.1340674963	-1.3250489125	 0.103695
H	 2.2533865289	-2.2119566224	-1.3062169534	 0.133071
H	 1.3093775474	-2.1982421982	 0.212985095	 0.149411
51.4506	122.9467	149.1467	170.6241	235.9496	295.8438	327.4465	405.393	464.0158	565.5285	622.7505	728.9918	738.8577	841.9768	856.3569	976.3898	1047.3627	1057.0163	1090.1706	1126.2327	1186.2237	1215.7171	1221.3013	1240.8998	1276.1786	1349.8872	1401.9694	1476.1423	1486.7225	1502.05	1511.6502	1865.7954	1885.5558	3000.9153	3031.5707	3067.9004	3073.7611	3136.3339	3136.7522
COC1COC(=O)C1=O	CO[C@H]1COC(=O)C1=O	
InChI=1S/C5H6O4/c1-8-3-2-9-5(7)4(3)6/h3H,2H2,1H3	InChI=1S/C5H6O4/c1-8-3-2-9-5(7)4(3)6/h3H,2H2,1H3/t3-/m0/s1
