21
gdb 51878	3.70231	0.88604	0.75855	3.2572	79.61	-0.2498	-0.0235	0.2263	1501.4882	0.182991	-424.247492	-424.238585	-424.237641	-424.282015	33.04	
O	-0.1270306759	-0.0915727742	 0.020297819	-0.239991
C	-0.0242285571	 1.107420673	-0.0080383982	 0.158978
C	 1.2796898672	 1.8710888036	-0.0754022773	-0.29431
C	 1.3123303289	 2.896449967	-1.2217432506	-0.000598
C	 2.5211068045	 3.8413583865	-1.1174507953	-0.21086
C	 2.5885263121	 4.7710652338	-2.3372260565	-0.213942
C	 2.513169713	 3.9537443495	-3.628140959	-0.065332
O	 1.3564360131	 3.1337733263	-3.6595764177	-0.243928
C	 1.3288588705	 2.2040573639	-2.5947764103	-0.074479
H	-0.9301552044	 1.7596032469	 0.0192268978	 0.072322
H	 1.3845066138	 2.4086446686	 0.8787581758	 0.119034
H	 2.1042469625	 1.1542646111	-0.1471653213	 0.119929
H	 0.3971558445	 3.5043507073	-1.1751508974	 0.083172
H	 2.473380817	 4.4200754006	-0.1877981731	 0.095571
H	 3.4398951415	 3.2397473162	-1.0658102747	 0.097992
H	 1.7479667447	 5.4753655319	-2.315277695	 0.10529
H	 3.5104535311	 5.3634625028	-2.3249370542	 0.096926
H	 2.451553497	 4.6009253598	-4.507608696	 0.107438
H	 3.4188111858	 3.3297730332	-3.7298944769	 0.084434
H	 2.2028731866	 1.5297697322	-2.6510782603	 0.087915
H	 0.4321364136	 1.5941327599	-2.743895379	 0.11444
54.2695	67.4757	134.4249	202.856	240.1825	316.0788	352.2106	405.3014	443.4938	466.6085	515.2054	593.0085	770.4765	830.9653	863.1277	883.5116	916.7947	931.7785	988.4872	1013.9974	1029.9912	1046.6425	1104.4449	1120.1942	1144.1995	1170.2894	1199.4108	1213.4562	1235.9604	1284.0573	1305.7086	1328.9256	1348.7819	1349.4276	1375.2234	1380.2047	1404.9313	1425.2829	1430.0512	1458.9004	1478.806	1488.1365	1490.7089	1504.6607	1835.6458	2845.4618	2943.3419	2953.7089	3001.6405	3008.2579	3012.2176	3029.8694	3058.9198	3075.3328	3076.3357	3086.6413	3087.6664
O=CCC1CCCOC1	O=CC[C@H]1CCCOC1	
InChI=1S/C7H12O2/c8-4-3-7-2-1-5-9-6-7/h4,7H,1-3,5-6H2	InChI=1S/C7H12O2/c8-4-3-7-2-1-5-9-6-7/h4,7H,1-3,5-6H2/t7-/m1/s1
