18
gdb 99789	2.42685	0.95379	0.8492	3.6147	81.51	-0.2641	0.0158	0.2799	1470.7525	0.144554	-401.936691	-401.925875	-401.924931	-401.97383	37.256	
C	 0.0103448454	 1.4714745734	 0.0043101413	-0.501042
C	 0.007237026	 0.0161358445	 0.0058403356	 0.091863
C	 0.0057154237	-1.1871231954	 0.0225324738	 0.071547
C	-0.0039595553	-2.6505741741	-0.0191245108	-0.132485
C	-1.4463213207	-3.2126318681	 0.0348263155	-0.403799
C	 0.7117912653	-3.1357279664	-1.3285262859	-0.073057
O	 0.7818583692	-4.5364609322	-1.4183878979	-0.414911
C	 0.7733549906	-3.1955694856	 1.1129124481	 0.275414
N	 1.4053576132	-3.675739135	 1.9534414049	-0.348293
H	 1.0185183433	 1.863759455	 0.174490264	 0.157791
H	-0.3447063775	 1.8661652021	-0.9536282454	 0.154393
H	-0.6402218395	 1.8682514738	 0.7908852151	 0.15719
H	-2.0277823345	-2.7736619962	-0.7797139952	 0.131577
H	-1.4205286161	-4.2969479081	-0.0868623926	 0.148209
H	-1.9256921096	-2.9614088521	 0.9825920191	 0.139464
H	 0.1147232995	-2.7895292329	-2.1765120559	 0.128005
H	 1.6996673317	-2.6609598561	-1.3840633362	 0.11687
H	 1.4062410754	-4.8510290864	-0.7538631375	 0.301264
22.6065	81.1309	95.0638	116.9365	177.0701	210.157	238.2742	274.8679	300.8462	330.0893	385.3333	422.5712	458.3741	500.1866	539.5371	593.9623	695.4857	843.188	919.1142	948.6129	1052.243	1052.548	1054.7544	1094.7918	1115.0106	1150.0339	1242.0664	1270.011	1381.4264	1403.676	1413.2341	1415.5267	1475.7124	1476.7327	1486.8066	1492.5724	1500.8101	2349.8816	2374.9496	3024.8292	3032.6146	3057.8164	3096.0031	3096.9881	3103.3777	3138.6533	3151.7157	3793.8489
CC#CC(C)(CO)C#N	CC#C[C@@](C)(CO)C#N	
InChI=1S/C7H9NO/c1-3-4-7(2,5-8)6-9/h9H,6H2,1-2H3	InChI=1S/C7H9NO/c1-3-4-7(2,5-8)6-9/h9H,6H2,1-2H3/t7-/m1/s1
