16
gdb 44986	3.60993	1.19213	1.03178	2.8633	73.71	-0.2628	-0.0386	0.2241	1136.6308	0.124964	-400.787537	-400.779905	-400.778961	-400.819923	29.171	
O	 0.0174955528	 0.0481912255	-0.3105067694	-0.289959
C	-0.0001157764	 1.2029066774	 0.0165867541	 0.380549
C	-1.2635897239	 2.0529059696	 0.2343073891	-0.337145
C	-0.8065819317	 3.2840961881	 0.9852967259	-0.075732
C	-0.0595284039	 3.0801725902	 2.2688235516	-0.319182
C	 0.7338949289	 3.3087693328	 0.9913002666	 0.1816
C	 1.2464433094	 2.0668820639	 0.2775419578	-0.395521
C	 1.4448839863	 4.5435349094	 0.8304307314	 0.203699
N	 2.0237119259	 5.5363143366	 0.6942384482	-0.341956
H	-1.6717435978	 2.3144392761	-0.7498705446	 0.145126
H	-2.0249252268	 1.4634180591	 0.7531633497	 0.143737
H	-1.3406878565	 4.2161330307	 0.8495231169	 0.121751
H	-0.0674689191	 3.8876206344	 2.990905009	 0.146854
H	-0.0166428446	 2.085402095	 2.7036951587	 0.133446
H	 1.9910559674	 1.4994849357	 0.8419861326	 0.148265
H	 1.69633324	 2.3245383154	-0.6883726177	 0.15447
78.4104	142.7243	165.0017	303.0559	374.3358	435.5974	465.8903	488.144	561.3603	578.205	625.0895	695.5762	775.2694	808.8687	830.9233	897.0523	942.5651	959.4281	1030.8957	1065.5956	1076.8605	1092.6196	1142.0608	1165.1596	1204.2523	1233.6471	1266.0926	1288.3459	1313.0013	1392.635	1450.3466	1456.6378	1490.7804	1856.3757	2350.8004	3043.4916	3052.7172	3096.3174	3104.9264	3129.5285	3194.3494	3228.0057
O=C1CC2CC2(C1)C#N	O=C1C[C@H]2C[C@]2(C1)C#N	
InChI=1S/C7H7NO/c8-4-7-2-5(7)1-6(9)3-7/h5H,1-3H2	InChI=1S/C7H7NO/c8-4-7-2-5(7)1-6(9)3-7/h5H,1-3H2/t5-,7-/m0/s1
