22
gdb 57397	2.91285	1.21727	1.07399	1.2978	83.36	-0.2397	0.0323	0.272	1265.3362	0.193489	-404.383702	-404.373804	-404.372859	-404.418664	36.495	
C	-0.1144216572	 1.5468356288	 0.022669945	-0.397328
C	 0.0225306633	 0.0174728464	-0.00541453	 0.151506
C	 0.7959507984	-0.4699246662	 1.2402228704	-0.408196
C	-1.375007142	-0.6408728747	-0.035483803	-0.408194
C	 0.7816949329	-0.4053819446	-1.2409777753	 0.43324
N	 1.2531130818	 0.3504707562	-2.1464032913	-0.32744
C	 1.9032395956	-0.5195425797	-3.1359255276	-0.188576
C	 1.6973313086	-1.9569087604	-2.590303115	-0.112619
O	 0.962668084	-1.7558967063	-1.3661072575	-0.269746
H	 0.8652493216	 2.0305008314	 0.0341029848	 0.123771
H	-0.6506405677	 1.911119146	-0.856855374	 0.123823
H	-0.6651126237	 1.8510247245	 0.9189120955	 0.101504
H	 0.2502673432	-0.1933396951	 2.1480063941	 0.112009
H	 0.9204186582	-1.5553557744	 1.2284705391	 0.128263
H	 1.7887244393	-0.0113009353	 1.2900212427	 0.117603
H	-1.948155847	-0.3053454343	-0.9057296537	 0.117626
H	-1.2980071821	-1.7300373326	-0.0753699641	 0.128245
H	-1.9347282936	-0.3656181253	 0.8641216917	 0.112018
H	 1.4454473332	-0.3747197207	-4.1203781667	 0.11492
H	 2.9616834658	-0.2540518874	-3.2302922453	 0.11492
H	 1.1015432169	-2.5950361343	-3.2495710982	 0.116325
H	 2.6317124505	-2.4732477318	-2.3512830718	 0.116327
46.5626	85.5274	149.4548	202.3429	208.022	260.5731	265.7929	314.0042	326.3652	332.1046	396.1303	478.0445	588.5991	733.175	759.8312	825.6021	832.1607	918.6182	937.7918	946.6657	965.2434	969.9421	1006.4384	1013.1134	1046.6597	1057.7506	1121.4792	1158.3309	1213.4853	1230.43	1246.5471	1248.9254	1294.0163	1348.5185	1380.6999	1392.3393	1400.4864	1430.766	1473.4937	1484.0917	1490.0778	1496.4894	1500.8999	1503.6738	1522.5571	1528.195	1731.1022	3035.2828	3037.0336	3038.2749	3044.2893	3051.3713	3064.8929	3097.4385	3103.1059	3105.0201	3115.2541	3122.3482	3126.54	3127.9695
CC(C)(C)C1=NCCO1	CC(C)(C)C1=NCCO1	
InChI=1S/C7H13NO/c1-7(2,3)6-8-4-5-9-6/h4-5H2,1-3H3	InChI=1S/C7H13NO/c1-7(2,3)6-8-4-5-9-6/h4-5H2,1-3H3
