21
gdb 99021	3.27468	0.91374	0.85526	3.2718	75.88	-0.2656	0.0074	0.273	1466.4831	0.178423	-461.409104	-461.398293	-461.397349	-461.444867	39.254	
C	-0.0385143317	 1.5737596826	 0.0619533764	-0.418444
C	 0.0571638276	 0.0459029658	 0.0538262978	 0.360754
C	 0.7096191693	-0.5047562611	 1.3245052343	-0.418435
C	-1.3160751737	-0.5863494804	-0.1732647685	-0.399601
O	 0.8172257748	-0.4005583266	-1.1317829053	-0.286611
C	 2.0877534103	-0.0596151025	-1.3227230467	 0.416298
O	 2.7760987778	 0.6271846871	-0.5991335979	-0.385626
C	 2.6373893821	-0.6470954096	-2.615464467	-0.135954
O	 3.9738848944	-0.2774973961	-2.7987464127	-0.420765
H	 0.9390207485	 2.0323956408	 0.2108906626	 0.152212
H	-0.4609684298	 1.9346215978	-0.8806958065	 0.119813
H	-0.7015252305	 1.8910487258	 0.8727708274	 0.118578
H	 0.0763938295	-0.2732038277	 2.1865317834	 0.11857
H	 0.8096909591	-1.5925440607	 1.2613547619	 0.119817
H	 1.6945186869	-0.067108612	 1.4873749271	 0.152209
H	-1.7568635198	-0.2267360845	-1.1069187014	 0.124084
H	-1.2355539751	-1.6754023372	-0.2262990259	 0.124073
H	-1.9876243513	-0.3275536702	 0.650017825	 0.120571
H	 2.5243400064	-1.7406671196	-2.5706710098	 0.121587
H	 2.005718567	-0.2991990017	-3.4464824315	 0.121627
H	 4.1957728482	 0.26875991	-2.0293270628	 0.295243
70.8094	77.7731	119.2673	152.7611	196.1793	246.2992	262.6962	284.6179	314.3981	340.6937	357.4794	377.4015	424.576	451.4094	492.4636	591.1004	724.1529	752.9502	855.4175	925.1848	925.6805	941.9401	967.1388	1040.4634	1051.7829	1060.3563	1130.4691	1197.0568	1242.0786	1268.5833	1275.5741	1283.885	1325.7531	1396.8384	1400.0186	1426.5128	1466.3634	1468.0691	1487.7156	1488.7774	1494.61	1499.3072	1502.3803	1525.0861	1787.3889	2996.4156	3017.3736	3044.385	3045.0902	3052.069	3109.9371	3112.229	3124.1172	3126.3207	3153.268	3156.2356	3709.5853
CC(C)(C)OC(=O)CO	CC(C)(C)OC(=O)CO	
InChI=1S/C6H12O3/c1-6(2,3)9-5(8)4-7/h7H,4H2,1-3H3	InChI=1S/C6H12O3/c1-6(2,3)9-5(8)4-7/h7H,4H2,1-3H3
