21
gdb 103845	3.2318	1.06306	0.90528	3.8732	79.28	-0.2269	0.0593	0.2862	1347.4976	0.182745	-420.35159	-420.341957	-420.341013	-420.385886	35.815	
C	-0.0662691966	 1.7977008662	 0.3819249991	-0.468412
C	-0.0485025287	 0.3056171254	 0.1243996563	 0.304854
C	-1.2015640236	-0.1570635101	-0.7530190221	-0.14844
O	-1.0374161972	-1.5331147613	-1.062349257	-0.421764
N	 1.2675025536	-0.3110025381	-0.1213032868	-0.386907
C	 0.5192977369	-0.664801509	 1.1025884323	-0.071903
C	 1.1544110039	-0.2592693603	 2.4022200378	-0.018788
C	 2.4874263063	-0.8060369234	 2.7604022566	-0.237856
N	 2.3365513806	 0.6131018129	 2.3959234301	-0.320069
H	 0.7260472148	 2.0950862732	 1.0693022208	 0.155786
H	 0.0647222018	 2.3518280769	-0.5545238051	 0.11603
H	-1.0243857085	 2.1011238183	 0.8201799648	 0.113523
H	-2.1522712424	 0.0234662727	-0.2267770644	 0.098227
H	-1.2131929819	 0.4517834923	-1.6718678502	 0.094797
H	-1.7285029763	-1.7931959686	-1.6769964946	 0.296443
H	 1.1593558051	-1.0586816673	-0.803012062	 0.241011
H	 0.044915674	-1.6437794236	 1.1128564235	 0.100316
H	 0.4512091196	-0.0495975289	 3.2066377729	 0.088456
H	 2.7422131438	-0.9951306295	 3.7995169496	 0.111196
H	 2.9645205026	-1.4684154425	 2.0422324088	 0.110544
H	 2.619339772	 0.7117970245	 1.4199785496	 0.242958
110.7989	114.3244	145.2015	167.1912	195.5891	217.0165	241.9671	325.6083	336.4769	384.2054	474.8362	566.4883	620.8222	711.6745	772.2724	857.2737	858.4937	914.4485	954.955	966.9725	999.9299	1011.059	1050.0636	1067.6057	1082.8743	1106.8046	1122.5636	1144.6341	1148.2763	1197.8393	1205.1186	1230.4239	1263.9024	1294.5699	1317.8536	1328.1598	1357.8786	1402.2822	1425.1477	1452.5531	1463.843	1497.8505	1500.4558	1507.2383	1520.402	2964.7774	2995.0738	3031.1698	3086.6425	3105.1449	3117.219	3136.3325	3147.6416	3191.6002	3457.1253	3498.8937	3848.2615
CC1(CO)NC1C1CN1	C[C@@]1(CO)N[C@H]1[C@H]1CN1	
InChI=1S/C6H12N2O/c1-6(3-9)5(8-6)4-2-7-4/h4-5,7-9H,2-3H2,1H3	InChI=1S/C6H12N2O/c1-6(3-9)5(8-6)4-2-7-4/h4-5,7-9H,2-3H2,1H3/t4-,5+,6+/m1/s1
