18
gdb 49269	2.45685	1.69324	1.10015	3.5808	81.28	-0.2308	-0.0636	0.1672	1099.7385	0.148716	-401.953218	-401.9452	-401.944256	-401.986035	30.388	
O	-0.095445565	 0.0061075726	-0.3470893683	-0.288867
C	 0.0029564008	 1.2043655184	-0.1699953036	 0.068187
C	 1.2684819255	 1.9217456905	-0.0164055589	 0.195474
C	 1.3489003219	 3.2557286329	 0.1224924722	-0.160676
C	 2.7695043034	 3.731473359	 0.2590372579	-0.273152
C	 3.6117048914	 2.4734601245	-0.0854014605	-0.290374
C	 2.6275346354	 1.2973930986	-0.0090426884	 0.247684
C	 2.9048905866	 0.0262139778	 0.7192409299	-0.289836
N	 2.9494885791	 0.0696114059	-0.7499528459	-0.370898
H	-0.9028389056	 1.8477538683	-0.1230450958	 0.082933
H	 0.4917141814	 3.9208167051	 0.1599167196	 0.11304
H	 2.9861377708	 4.5867950264	-0.3904471201	 0.120321
H	 2.9478638523	 4.080426397	 1.2858589286	 0.124958
H	 3.9966049796	 2.5385846219	-1.1075127232	 0.123533
H	 4.4696814663	 2.3459170618	 0.5783182009	 0.109595
H	 3.8684904648	-0.0967478772	 1.2077194218	 0.113516
H	 2.0747399328	-0.4906278328	 1.1910752453	 0.125633
H	 2.0867561186	-0.3405425006	-1.1023683614	 0.24893
71.2064	120.791	196.3941	255.8955	286.5575	344.2069	361.9881	434.3604	573.452	598.5408	693.3082	742.2073	791.8231	842.9069	879.5153	906.1433	929.9255	949.7157	996.972	1012.0969	1032.4175	1055.5663	1081.8345	1117.6264	1161.11	1191.819	1244.2107	1262.043	1290.1463	1296.9339	1328.6063	1368.3827	1403.8063	1428.0999	1470.7803	1494.108	1500.4913	1667.6735	1766.6843	2891.1997	3014.6412	3055.7274	3066.345	3106.624	3109.3233	3186.5573	3199.8917	3498.144
O=CC1=CCCC11CN1	O=CC1=CCC[C@]21CN2	
InChI=1S/C7H9NO/c9-4-6-2-1-3-7(6)5-8-7/h2,4,8H,1,3,5H2	InChI=1S/C7H9NO/c9-4-6-2-1-3-7(6)5-8-7/h2,4,8H,1,3,5H2/t7-/m1/s1
