17
gdb 84518	2.72696	1.827	1.44024	2.4254	71.97	-0.236	-0.0137	0.2223	941.8818	0.136373	-421.771799	-421.764515	-421.763571	-421.803155	29.38	
O	 0.2144834974	 1.4197441851	-0.1285355281	-0.416932
C	 0.0518977612	 0.0099281317	-0.0799006206	-0.017366
C	 0.7611582284	-0.6300600094	 1.1170674898	-0.115919
C	-0.0815846988	-1.2191127485	 1.9814059421	-0.182573
C	-1.4603388694	-1.1678009727	 1.4332859551	 0.273811
C	-2.8136946178	-0.527359226	 1.7982941419	-0.294029
C	-2.7251629387	 0.2889296843	 0.4527848931	-0.292899
C	-1.3917603677	-0.4271638428	 0.1609737148	 0.269061
O	-1.6186922969	-1.8298477916	 0.1584332778	-0.290203
H	 0.1149340826	 1.7519177726	 0.7705073776	 0.280405
H	 0.4441218855	-0.3656401	-1.03077125	 0.111212
H	 1.8424869982	-0.610135527	 1.2062107897	 0.109287
H	 0.2042069597	-1.707769835	 2.9054911297	 0.111908
H	-3.6474314326	-1.2242839532	 1.9038344214	 0.115791
H	-2.7618787892	 0.1130772862	 2.6813760268	 0.110684
H	-3.5137143581	 0.1278900238	-0.2852626921	 0.115222
H	-2.5989154139	 1.3600733325	 0.6202516709	 0.112542
131.5348	200.4581	244.9522	316.4687	340.1361	433.2377	474.0882	524.0984	581.6526	681.697	711.0182	747.0433	761.3434	787.4017	838.9177	866.6996	928.8474	941.4504	947.789	960.0976	1053.5903	1077.6197	1107.8233	1129.3165	1173.6519	1213.8925	1222.5639	1236.0773	1260.2064	1269.5553	1296.0267	1366.5893	1390.3486	1412.9184	1464.8538	1483.1396	1619.1941	3062.8962	3069.7886	3075.9728	3121.6079	3138.2593	3184.0151	3209.1682	3802.6725
OC1C=CC23CCC12O3	O[C@H]1C=C[C@@]23CC[C@@]12O3	
InChI=1S/C7H8O2/c8-5-1-2-6-3-4-7(5,6)9-6/h1-2,5,8H,3-4H2	InChI=1S/C7H8O2/c8-5-1-2-6-3-4-7(5,6)9-6/h1-2,5,8H,3-4H2/t5-,6+,7+/m0/s1
