19
gdb 80524	2.26113	1.41811	1.23188	2.9971	77.4	-0.2449	-0.0274	0.2175	1129.1383	0.15761	-423.008319	-422.999242	-422.998298	-423.041785	33.928	
C	-0.2271090352	 1.5939474474	-0.1853439702	-0.41639
C	 0.0355886021	 0.1006998602	-0.0262825232	-0.043115
C	 1.1787382094	-0.5817909109	-0.8489374033	-0.253456
C	 1.752263249	-1.1925015511	 0.4331706129	-0.149501
C	 2.1253124311	-0.1442360218	 1.4153658267	 0.059061
O	 2.615228343	 1.1094848747	 1.0346046647	-0.419209
C	 0.6556696311	-0.424261298	 1.2818981698	 0.192201
C	-0.0978086754	-0.9891562077	 2.4143047084	 0.059409
O	 0.3997357588	-1.5006613776	 3.3923035975	-0.275729
H	 0.6863291854	 2.1709123784	-0.0330563083	 0.145468
H	-0.6181192896	 1.8114012213	-1.1856548702	 0.109265
H	-0.9722636406	 1.9364832451	 0.5416207896	 0.113016
H	-0.8939130808	-0.4535539033	-0.2021339657	 0.07821
H	 0.8165920227	-1.3218226945	-1.5637203729	 0.107742
H	 1.8577802019	 0.1058431717	-1.360699087	 0.104578
H	 2.0339766042	-2.2296729355	 0.5733063329	 0.109026
H	 2.5184807971	-0.5278593083	 2.3564866769	 0.120725
H	 3.5374991692	 0.9996484394	 0.7781989067	 0.291001
H	-1.2052432932	-0.9362182796	 2.2989496547	 0.067699
101.6631	162.7445	179.4491	209.2578	210.1237	243.1582	268.3833	286.2677	374.2459	471.9713	524.6904	609.2899	665.7736	734.0486	765.6663	855.5729	866.6743	909.6366	954.3686	996.0835	1009.82	1063.2321	1086.9829	1112.2043	1122.2	1153.7634	1172.7591	1221.0427	1240.7289	1263.5526	1294.768	1302.0965	1342.2379	1375.7633	1406.5655	1429.6448	1461.1004	1487.2459	1493.9012	1507.0002	1792.4325	2861.3713	3029.193	3035.1978	3063.6534	3089.4008	3122.3729	3123.5461	3142.7887	3185.5374	3801.7448
CC1CC2C(O)C12C=O	C[C@H]1C[C@H]2[C@@H](O)[C@@]12C=O	
InChI=1S/C7H10O2/c1-4-2-5-6(9)7(4,5)3-8/h3-6,9H,2H2,1H3	InChI=1S/C7H10O2/c1-4-2-5-6(9)7(4,5)3-8/h3-6,9H,2H2,1H3/t4-,5-,6+,7-/m0/s1
