13
gdb 25329	4.12065	1.18794	0.92211	0.4061	73.27	-0.2597	-0.0953	0.1644	1155.6916	0.090303	-452.777925	-452.770727	-452.769783	-452.810092	26.114	
N	-0.0767923649	 1.3050784605	 0.1548484841	-0.508428
C	-0.021028196	 0.041473538	-0.0173879108	 0.349461
C	-1.2352348503	-0.7648971425	-0.0761184182	-0.203071
C	-1.1523037814	-2.0929510754	-0.2585157402	 0.276113
O	 0.0533541831	-2.7247011956	-0.3933776	-0.209773
C	 1.1525655438	-1.9297065702	-0.3317258186	 0.124641
N	 1.1960184633	-0.6727221913	-0.1641760905	-0.311181
C	-2.3299963935	-2.984233222	-0.3305144465	 0.097966
O	-2.2724272923	-4.1760993425	-0.4936933137	-0.250544
H	 0.87375415	 1.6825806948	 0.1663431705	 0.230205
H	-2.1987938773	-0.2812635369	 0.0286477492	 0.144825
H	 2.0518777335	-2.5269756557	-0.449487116	 0.158307
H	-3.289848558	-2.4382895011	-0.2173343693	 0.101478
95.4655	129.4124	189.2252	255.756	392.5913	437.0496	453.1459	551.3803	560.749	699.9375	747.1822	816.5444	881.3224	904.7079	935.814	955.4916	980.5868	1021.0605	1075.9487	1173.3973	1176.1814	1300.553	1402.9516	1417.7008	1422.958	1647.5363	1692.0518	1719.264	1810.6324	2919.3497	3194.9574	3218.0277	3459.3137
N=C1C=C(OC=N1)C=O	[NH]C1=C[C@H](OC=N1)C=O	
InChI=1S/C5H4N2O2/c6-5-1-4(2-8)9-3-7-5/h1-3,6H	InChI=1S/C5H5N2O2/c6-5-1-4(2-8)9-3-7-5/h1-4,6H/t4-/m0/s1
