18
gdb 93337	2.33762	1.61206	1.08274	6.4345	75.62	-0.2361	-0.0003	0.2358	1130.1543	0.148988	-435.307585	-435.298981	-435.298037	-435.340992	31.883	
C	 0.2565789877	 1.5965244583	-0.0141030476	-0.389632
C	 0.0154015848	 0.0855174272	 0.0507795238	 0.014451
C	 0.6146430216	-0.6707522239	-1.1500749034	-0.189944
N	 1.9466591594	-0.9881602359	-0.6503892371	-0.354222
C	 1.9276755037	-1.1551266989	 0.739325956	 0.428681
N	 2.7804287797	-1.6930201246	 1.5077545664	-0.538126
N	 0.7286469854	-0.5450319141	 1.1736752243	-0.096946
C	 0.2211553974	-0.5060824098	 2.458827132	 0.155092
O	 0.7179374772	-0.9580502596	 3.4552648566	-0.276573
H	 1.3198998453	 1.8099102382	-0.1563840571	 0.142642
H	-0.3031877747	 2.0355050186	-0.8463126632	 0.121204
H	-0.0705566489	 2.0828129068	 0.9093217504	 0.13
H	-1.0557299665	-0.1158477248	 0.1422507402	 0.101645
H	 0.0248191033	-1.5688722341	-1.384057441	 0.110128
H	 0.6607302936	-0.0422453431	-2.0435990567	 0.11847
H	 2.5062382302	-1.6519991169	-1.1634778414	 0.245054
H	 3.5541488943	-2.0785263745	 0.9673563674	 0.208427
H	-0.7617733535	 0.011829881	 2.4568630203	 0.069649
67.6481	136.3937	181.3757	222.1461	240.8134	248.0092	329.1237	433.207	470.0882	488.2761	520.9172	710.362	724.788	753.1747	796.6751	815.3173	872.0119	960.0265	1007.7391	1027.1738	1049.7875	1086.5205	1133.8697	1146.1071	1192.9658	1225.2382	1255.3294	1302.6293	1342.8031	1376.3772	1408.8232	1429.4892	1442.1029	1464.7584	1491.7087	1495.4628	1527.9997	1743.691	1843.9366	2899.3571	2994.6028	3039.7173	3066.8727	3083.8646	3112.9315	3124.1646	3488.6218	3623.1818
CC1CNC(=N)N1C=O	C[C@H]1CN[C]([NH])N1C=O	
InChI=1S/C5H9N3O/c1-4-2-7-5(6)8(4)3-9/h3-4H,2H2,1H3,(H2,6,7)	InChI=1S/C5H9N3O/c1-4-2-7-5(6)8(4)3-9/h3-4H,2H2,1H3,(H2,6,7)/t4-/m0/s1
