18
gdb 31549	3.24167	1.15719	0.86454	1.9242	78.21	-0.1692	0.0454	0.2146	1343.3769	0.147846	-435.306046	-435.296317	-435.295373	-435.340668	34.572	
C	-0.1191615346	 1.3694197613	 0.0279031721	-0.318809
N	 0.1171818901	-0.0641372587	 0.0085712614	-0.388512
C	 0.7113099056	-0.6485611592	 1.0889650633	 0.493699
N	 1.3558337346	-0.0616182453	 2.0543142966	-0.398584
C	 1.8077211899	-1.123810985	 2.8359657738	 0.172593
N	 2.6096015897	-0.855025458	 3.9467919623	-0.601993
C	 1.403954609	-2.3068271195	 2.3102955623	 0.260905
C	 1.5609355845	-3.7388319319	 2.6532958866	-0.501292
O	 0.6721359429	-1.9901419792	 1.1506447799	-0.245529
H	 0.8173467096	 1.8793178112	 0.2617742058	 0.160143
H	-0.4553143495	 1.6847869659	-0.9622700056	 0.123917
H	-0.8649666862	 1.6743459002	 0.7752762676	 0.121074
H	-0.5864357211	-0.6356430681	-0.4329986841	 0.250422
H	 2.4639789629	 0.0931519309	 4.268501864	 0.249013
H	 2.4781687023	-1.5066828743	 4.7086070905	 0.240835
H	 0.6028617711	-4.2330891943	 2.8626305759	 0.124857
H	 2.0514510556	-4.3058823026	 1.8515998034	 0.131812
H	 2.1858485436	-3.8337332435	 3.5461687244	 0.125451
94.6033	104.2492	130.1643	177.7383	182.4066	214.7941	244.9948	256.8344	361.2172	369.2049	483.3246	536.0239	641.2618	659.0039	689.5945	743.3863	774.1911	818.3555	969.5169	1001.3738	1066.0376	1068.1427	1138.9642	1154.4692	1180.1525	1185.289	1279.3576	1333.3754	1397.9623	1429.1821	1454.3488	1466.986	1484.649	1497.5203	1510.4574	1544.7189	1635.5544	1669.6237	1732.1678	3005.8782	3007.3903	3047.1852	3097.753	3106.0146	3141.9055	3544.0198	3626.0032	3639.7013
CNC1=NC(N)=C(C)O1	CNc1nc(N)c(C)o1	
InChI=1S/C5H9N3O/c1-3-4(6)8-5(7-2)9-3/h6H2,1-2H3,(H,7,8)	InChI=1S/C5H9N3O/c1-3-4(6)8-5(7-2)9-3/h6H2,1-2H3,(H,7,8)
