17
gdb 112313	2.92065	1.416	1.06592	3.7875	68.89	-0.2658	0.0083	0.2741	1128.2483	0.136307	-458.990391	-458.982386	-458.981442	-459.023344	29.627	
C	 0.1549560228	 1.3199563918	 0.1240034601	-0.245972
O	 0.1220064701	-0.0983660661	 0.0322056972	-0.227257
C	 0.5671263784	-0.5978373925	-1.1762108464	 0.203342
O	 1.9835782728	-0.3466505783	-1.3392735653	-0.25628
C	 2.6707198176	-1.4802586767	-1.6916187451	 0.44145
O	 3.81374928	-1.4496829901	-2.0398578023	-0.340007
C	 1.7572329739	-2.6588665637	-1.5718255907	-0.186815
C	 1.1614925517	-2.8568583448	-0.1891340721	-0.278472
C	 0.3974777377	-2.1049637201	-1.2326555569	-0.086879
H	 1.1820131948	 1.6978963248	 0.0810264107	 0.140625
H	-0.4303532479	 1.7824097914	-0.6838776469	 0.112743
H	-0.2917022932	 1.5823999936	 1.0845131434	 0.134601
H	 0.0680422996	-0.0882796705	-2.0145819024	 0.083985
H	 1.9339418008	-3.5063114403	-2.2191488944	 0.121832
H	 0.8292454738	-3.8614198235	 0.0443790151	 0.1276
H	 1.5772972211	-2.304761686	 0.645372393	 0.146356
H	-0.517735454	-2.5043353492	-1.6489367369	 0.109148
93.5239	120.1403	162.2796	182.5158	240.1842	343.1237	433.1695	502.0488	533.4565	618.0928	742.7481	772.5597	812.4572	847.8999	860.8385	948.7505	957.3248	1009.3185	1021.4387	1031.253	1071.9697	1094.7063	1101.7499	1163.3436	1179.741	1190.503	1196.7515	1238.4615	1330.6387	1370.2732	1387.1571	1404.4861	1480.7443	1485.6324	1489.8964	1510.0229	1886.6992	2990.3661	3002.452	3079.0699	3136.6204	3147.1229	3202.1559	3219.7527	3238.4254
COC1OC(=O)C2CC12	CO[C@H]1OC(=O)[C@H]2C[C@@H]12	
InChI=1S/C6H8O3/c1-8-6-4-2-3(4)5(7)9-6/h3-4,6H,2H2,1H3	InChI=1S/C6H8O3/c1-8-6-4-2-3(4)5(7)9-6/h3-4,6H,2H2,1H3/t3-,4+,6-/m0/s1
