18
gdb 78815	2.67006	1.67459	1.2508	1.3529	80.3	-0.2497	0.036	0.2857	1035.5529	0.147862	-364.717989	-364.710175	-364.709231	-364.750038	30.857	
C	-0.2109085655	 1.5612393991	-0.0419709488	-0.435281
C	 0.06362712	 0.0640033074	-0.0267794919	 0.038962
C	 0.8406603496	-0.6431548952	-1.1249369036	-0.060021
C	 2.2874693814	-0.7215256658	-0.7573012096	-0.069825
C	 2.516028707	-0.0814964975	 0.6072216608	-0.149158
C	 2.9112661823	 1.30566234	 0.7801630189	 0.281769
C	 3.2945669043	 2.4341879626	 0.9430469166	-0.431083
C	 1.0894403823	-0.6240132022	 0.9067372101	-0.065888
N	 1.3183504393	-1.7187039211	-0.1876441567	-0.1694
H	 0.6903657603	 2.1447314497	-0.2331920632	 0.139068
H	-0.9450968678	 1.7980677239	-0.8200274996	 0.113338
H	-0.6298780175	 1.8893586931	 0.9155281608	 0.116686
H	-0.8783389774	-0.4832040406	 0.1005262184	 0.090758
H	 0.5050473165	-0.8891006462	-2.1268983939	 0.094652
H	 3.0495062721	-1.0188633473	-1.4687201644	 0.102189
H	 3.2203466145	-0.7216108049	 1.1515757128	 0.11976
H	 3.6148168492	 3.4373206876	 1.0812050395	 0.196177
H	 0.8249473993	-0.9189214126	 1.9203480738	 0.087295
125.6117	139.1639	201.9251	242.7264	274.4222	397.1044	468.996	534.3545	594.9734	627.0967	647.1323	710.1101	754.2294	772.6149	798.7504	814.2809	907.0772	923.1859	942.3422	995.9946	1037.3238	1053.0139	1082.3054	1086.9352	1123.3153	1129.5458	1145.8861	1176.3018	1187.1648	1249.5577	1273.0704	1346.0803	1362.1983	1383.4447	1400.7773	1416.6792	1496.7399	1502.0979	2229.6756	3033.5958	3039.4707	3040.793	3093.3944	3138.4401	3146.1742	3170.3209	3186.1768	3501.4422
CC1C2C3C(C#C)C1N23	C[C@H]1[C@H]2[C@H]3[C@@H](C#C)[C@@H]1N23	
InChI=1S/C8H9N/c1-3-5-6-4(2)7-8(5)9(6)7/h1,4-8H,2H3	InChI=1S/C8H9N/c1-3-5-6-4(2)7-8(5)9(6)7/h1,4-8H,2H3/t4-,5+,6-,7+,8-,9?/m1/s1
