17
gdb 83472	3.06285	1.1044	0.98358	3.2932	68.86	-0.2451	-0.0292	0.2159	1228.1108	0.133754	-458.91664	-458.907947	-458.907003	-458.951157	31.436	
O	 0.0542610524	 1.4044054235	 0.0975813762	-0.435037
C	 0.0398647469	 0.0147512402	 0.0743780138	 0.089087
C	-0.3505560028	-0.8385898093	 1.2739090645	-0.239629
C	-1.5048796623	-0.1486807271	 1.9830280844	-0.105366
O	-2.2387551576	 0.0058356678	 0.7283779605	-0.340087
C	-1.2358367487	-0.7606043623	 0.0292732454	 0.376464
C	-1.7156201349	-1.7421205173	-0.9996194527	-0.3925
C	-2.3698987362	-1.0547789145	-2.188470357	 0.160863
O	-2.1324200116	-1.3225240472	-3.3370286381	-0.234633
H	-0.870021691	 1.6834773894	 0.1504611226	 0.296522
H	 0.8607385795	-0.3943304988	-0.508126526	 0.115866
H	 0.258117454	-1.6423664775	 1.6666586345	 0.105771
H	-2.0644418487	-0.7936968379	 2.666911769	 0.12047
H	-1.2957885811	 0.8152405541	 2.4589593426	 0.119428
H	-0.8906638135	-2.3600360006	-1.3640053477	 0.132098
H	-2.4669515111	-2.4015179194	-0.5414634966	 0.133053
H	-3.1118313232	-0.2722133929	-1.9172898753	 0.097629
46.0489	58.5161	133.5474	226.5491	242.4254	285.0886	343.1719	426.9195	448.2158	528.031	605.3103	720.1386	789.107	792.7742	821.4233	915.259	950.5353	968.781	984.9404	991.9301	1035.7073	1070.4366	1105.5566	1121.7541	1163.3415	1167.9195	1223.4193	1250.0918	1299.9832	1310.3132	1333.6106	1381.8463	1425.7686	1441.3087	1480.6417	1514.9723	1835.0386	2897.6891	3014.1706	3041.4204	3094.5262	3107.0998	3159.9507	3200.907	3754.9111
OC1C2COC12CC=O	O[C@H]1[C@H]2CO[C@@]12CC=O	
InChI=1S/C6H8O3/c7-2-1-6-4(3-9-6)5(6)8/h2,4-5,8H,1,3H2	InChI=1S/C6H8O3/c7-2-1-6-4(3-9-6)5(6)8/h2,4-5,8H,1,3H2/t4-,5+,6-/m1/s1
