20
gdb 126423	2.84596	1.22666	0.93095	2.9708	82.79	-0.2002	0.0399	0.2401	1311.3039	0.171477	-399.362694	-399.35263	-399.351686	-399.398014	36.129	
C	-0.0441462118	 1.4900086756	 0.079548769	-0.371613
C	-0.0601594651	-0.0420608973	-0.0643488875	-0.280585
C	 0.7360379004	-0.5331829833	-1.2375942865	 0.277794
N	 0.1316815272	-0.7907520214	-2.3929402108	-0.306152
N	 1.1372826067	-1.1672758475	-3.2224363536	-0.248529
C	 2.3528809464	-1.1497278796	-2.6206982097	 0.28787
N	 3.5015518643	-1.567952076	-3.3067658567	-0.610569
C	 2.14347381	-0.7358899074	-1.3161144895	 0.094277
C	 3.1768303975	-0.55343428	-0.2470681144	-0.528301
H	 0.974420462	 1.8694187444	 0.2116104635	 0.113831
H	-0.4607564549	 1.9619788435	-0.815189099	 0.126503
H	-0.636419548	 1.8092022642	 0.9432902892	 0.107529
H	 0.3217496348	-0.4992949877	 0.8565266281	 0.0954
H	-1.0927062011	-0.3838905283	-0.1856872394	 0.115882
H	 0.9216495795	-1.5009288573	-4.1458701429	 0.264307
H	 3.7104087348	-0.9936335375	-4.116713977	 0.248444
H	 4.3102401502	-1.5726320344	-2.6985639678	 0.250046
H	 4.1792689333	-0.4367790921	-0.6762163071	 0.104797
H	 2.9845856486	 0.3419320679	 0.3528900611	 0.131261
H	 3.2221994851	-1.4012153159	 0.4486507911	 0.127808
61.1599	73.5193	116.7498	159.8023	194.8731	224.5699	253.8769	292.9893	308.6228	393.538	456.338	497.9121	580.4301	669.099	694.7466	743.4768	768.8033	792.525	798.651	957.2101	974.936	1054.4717	1059.4902	1083.7384	1109.0274	1142.4689	1181.2666	1244.947	1286.3151	1343.1207	1350.6235	1403.1259	1421.3484	1435.0976	1479.0583	1482.7413	1491.8354	1495.7937	1504.1243	1516.1273	1547.094	1626.4858	1663.9223	3013.8739	3032.6553	3033.9342	3061.9577	3080.0347	3088.8432	3103.3573	3114.0551	3513.2741	3612.907	3678.5562
CCC1=NNC(N)=C1C	CCc1n[nH]c(N)c1C	
InChI=1S/C6H11N3/c1-3-5-4(2)6(7)9-8-5/h3H2,1-2H3,(H3,7,8,9)	InChI=1S/C6H11N3/c1-3-5-4(2)6(7)9-8-5/h3H2,1-2H3,(H3,7,8,9)
