16
gdb 74514	4.2036	1.18432	1.04147	2.8965	70.93	-0.2471	-0.0294	0.2177	1146.0402	0.123149	-437.904554	-437.896498	-437.895554	-437.937255	29.797	
C	 0.0405878097	 1.5263393851	-0.3883410223	-0.481176
C	-0.1065290861	 0.0704220582	-0.1234868313	 0.383944
N	-1.1624736825	-0.6353819	-0.252238491	-0.351485
C	-0.8018946796	-1.9895669552	 0.0688225769	 0.216666
C	 0.277272664	-2.6387714443	-0.7948391537	-0.344423
C	 0.6984948951	-1.9296721887	 0.437109692	 0.038325
O	 1.0287950574	-0.5641862007	 0.3145751662	-0.240005
C	-1.781094576	-2.8429956806	 0.7789498782	 0.081275
O	-1.5685363852	-3.9898981276	 1.0952902907	-0.275691
H	 0.7176935197	 1.6956593673	-1.2317876601	 0.151332
H	-0.9346072556	 1.9539135453	-0.6191246712	 0.158582
H	 0.471482857	 2.0283630248	 0.4830132508	 0.150946
H	 0.2947700647	-3.7215325081	-0.7399334621	 0.15313
H	 0.4718990205	-2.1913605592	-1.763404023	 0.131759
H	 1.1558935184	-2.4230028477	 1.2846023659	 0.135377
H	-2.7387115513	-2.3312023685	 1.0108121941	 0.091444
105.4765	134.2079	157.7071	213.379	237.9438	334.7509	403.9158	455.3412	498.7617	644.3537	660.8966	715.2387	747.6257	786.7814	891.0927	915.9166	956.7131	992.6126	1037.5696	1043.424	1067.0556	1073.7104	1101.5097	1137.4701	1230.728	1251.3466	1312.1272	1376.2688	1411.792	1416.211	1451.6228	1472.6513	1476.6657	1707.0281	1807.6146	2917.727	3051.6096	3109.8503	3136.0076	3166.1822	3207.5936	3239.4624
CC1=NC2(CC2O1)C=O	CC1=N[C@]2(C[C@H]2O1)C=O	
InChI=1S/C6H7NO2/c1-4-7-6(3-8)2-5(6)9-4/h3,5H,2H2,1H3	InChI=1S/C6H7NO2/c1-4-7-6(3-8)2-5(6)9-4/h3,5H,2H2,1H3/t5-,6-/m1/s1
