16
gdb 86478	2.36988	1.34303	0.99051	4.934	75.28	-0.2539	-0.0141	0.2399	1202.9677	0.123953	-396.919013	-396.910284	-396.90934	-396.952636	31.276	
C	-0.0404203311	 1.5486851371	 0.0967708659	-0.332641
N	-0.0367987543	 0.102397781	 0.1366163252	-0.061672
C	-1.2637056333	-0.597311663	 0.5336268602	-0.191934
C	-0.3729213305	-1.6758931415	 1.2535340513	-0.030871
C	 0.7478211333	-0.5745971582	 1.1751640592	-0.191937
C	-0.7946313573	-2.07657087	 2.5899921433	 0.253267
N	-1.1322610516	-2.3562446531	 3.6585582613	-0.32046
C	-0.0916283621	-2.8368883026	 0.4128396316	 0.284796
N	 0.1340168868	-3.7456083623	-0.263169612	-0.318655
H	 0.9623267963	 1.9107749238	-0.1496396214	 0.137773
H	-0.7225786705	 1.8917526336	-0.6869972531	 0.137773
H	-0.3508627706	 2.0065962152	 1.0539665597	 0.104559
H	-1.875905063	-0.0581260999	 1.2728611641	 0.120226
H	-1.8937306636	-0.9551589048	-0.2840671592	 0.144779
H	 1.7420810978	-0.9141050407	 0.8755084756	 0.144775
H	 0.8078348937	-0.0278656144	 2.1288192882	 0.120224
77.0601	133.4779	172.3819	176.7394	231.5381	253.311	334.7193	341.3681	472.3467	506.2321	508.3222	595.55	597.8571	732.9871	875.0381	952.7293	961.8466	992.8251	1032.6663	1095.1878	1119.23	1132.0571	1190.1605	1242.1897	1245.0969	1273.0583	1303.3492	1350.2247	1454.6829	1487.0239	1498.5041	1500.9628	1526.6506	2364.5674	2369.1283	2942.0926	2985.7668	2994.6124	3071.4859	3099.7729	3100.6106	3113.4978
CN1CC(C1)(C#N)C#N	CN1CC(C1)(C#N)C#N	
InChI=1S/C6H7N3/c1-9-4-6(2-7,3-8)5-9/h4-5H2,1H3	InChI=1S/C6H7N3/c1-9-4-6(2-7,3-8)5-9/h4-5H2,1H3
