17
gdb 68145	4.00952	1.22644	1.10773	1.5445	75.22	-0.2422	0.025	0.2672	1104.8163	0.134837	-421.763711	-421.755802	-421.754858	-421.795599	31.866	
O	-0.0561051072	 1.401055842	-0.0536133966	-0.476283
C	-0.0131647956	 0.0168767886	 0.018993165	 0.317747
C	 0.339869261	-0.7965921521	 1.3109173391	-0.334092
C	-0.3859962161	-1.9042592233	 0.4940090477	 0.317879
C	-1.3381336204	-0.7853618034	-0.0264568701	-0.300516
O	 0.5104864045	-2.1136199611	-0.6295504147	-0.318313
C	 0.8098283576	-0.7631279499	-1.0240752347	-0.134735
C	-0.8446781278	-3.1434183291	 1.059878452	 0.144061
C	-1.2461411662	-4.1614635422	 1.5557175697	-0.338154
H	 0.8450153992	 1.7411320197	-0.0206751367	 0.284966
H	 1.3886352991	-0.9806999105	 1.5548134871	 0.103453
H	-0.227512217	-0.4655511926	 2.180980762	 0.116903
H	-2.0557977051	-0.45532292	 0.7247983475	 0.118726
H	-1.8141982574	-0.9548355805	-0.9940006507	 0.1111
H	 0.4782676666	-0.5746871323	-2.0517643304	 0.108208
H	 1.8893384305	-0.5743572543	-0.9520448979	 0.092782
H	-1.5965790555	-5.0655472589	 1.9890573318	 0.186269
142.0834	142.4979	256.498	304.9276	343.8915	376.9744	466.4226	492.4029	515.8232	538.2379	559.6315	593.4314	622.9438	675.9242	684.0308	828.8632	869.4799	926.4776	945.0852	960.4161	999.7142	1030.694	1066.9968	1106.0319	1119.4955	1146.2739	1158.4817	1176.2483	1215.906	1275.9414	1311.0687	1349.225	1393.4751	1471.0271	1505.9077	1533.6409	2248.1059	3009.6996	3060.0794	3072.2447	3082.1746	3148.4741	3156.1867	3501.9522	3801.3016
OC12CC(C1)(OC2)C#C	O[C@@]12C[C@@](C1)(OC2)C#C	
InChI=1S/C7H8O2/c1-2-7-3-6(8,4-7)5-9-7/h1,8H,3-5H2	InChI=1S/C7H8O2/c1-2-7-3-6(8,4-7)5-9-7/h1,8H,3-5H2/t6-,7-
