17
gdb 131169	2.97804	1.30934	0.98029	1.462	76.35	-0.1993	0.0232	0.2226	1193.8781	0.137377	-418.006674	-417.998295	-417.997351	-418.0405	30.967	
O	 0.3298833142	 1.4060368574	-0.0526922855	-0.452001
C	 0.1452113137	 0.0534622157	-0.0047808239	 0.143863
C	-0.0881479041	-0.7336735195	-1.1191020929	 0.323616
N	-0.2113966347	-2.0007733475	-0.6239897143	-0.284573
N	-0.0763636081	-2.083658172	 0.7108428841	-0.227888
C	 0.1431904545	-0.8272854673	 1.0968545899	-0.114531
C	-0.1906867762	-0.3519326839	-2.5358791233	-0.089345
C	 0.3265948667	-1.2449882696	-3.6472056915	-0.272169
C	-1.154229819	-1.0387851868	-3.4844998566	-0.272241
H	 0.473183517	 1.7299548333	 0.8409309489	 0.299349
H	-0.3869194101	-2.8441473126	-1.1419770085	 0.268798
H	 0.2907135888	-0.5986248969	 2.1430275038	 0.101644
H	-0.0579792768	 0.7143008122	-2.6795822504	 0.108836
H	 0.8274772665	-0.7729605228	-4.4849331574	 0.121836
H	 0.7481614253	-2.2044845053	-3.3654398816	 0.111507
H	-1.7491577884	-1.8567627817	-3.0911494205	 0.111463
H	-1.6755856595	-0.4244059327	-4.2099009803	 0.121837
37.213	135.5975	148.7118	167.4359	280.0779	307.788	413.7806	458.8576	501.5081	596.2378	686.4067	709.6817	718.73	791.0828	816.9469	837.8531	906.9608	911.3337	953.7385	1058.6473	1067.0633	1073.309	1107.4387	1134.6124	1150.7696	1200.6531	1209.0086	1238.1066	1275.1157	1316.3243	1393.9207	1414.9854	1461.548	1472.1658	1503.8667	1547.3105	1665.7699	3129.4945	3134.3413	3177.9148	3208.6915	3225.2999	3232.0095	3676.6902	3846.3268
OC1=C(NN=C1)C1CC1	Oc1c([nH]nc1)C1CC1	
InChI=1S/C6H8N2O/c9-5-3-7-8-6(5)4-1-2-4/h3-4,9H,1-2H2,(H,7,8)	InChI=1S/C6H8N2O/c9-5-3-7-8-6(5)4-1-2-4/h3-4,9H,1-2H2,(H,7,8)
