16
gdb 7432	3.3864	1.6957	1.14617	0.7723	64.33	-0.236	-0.031	0.205	1012.0369	0.129667	-417.119409	-417.110231	-417.109287	-417.154422	31.539	
C	 0.3967933731	 1.2604264602	 0.0867711732	-0.343942
N	 0.0662535751	-0.1530179565	-0.0482865883	-0.102416
C	 0.0988280586	-0.9034928779	 1.2021292393	-0.35867
C	-0.2307580095	-0.6223001585	-1.2849445799	 0.342
O	-0.2320184839	 0.0914127873	-2.2851804004	-0.405144
C	-0.5922958059	-2.1283486308	-1.4909070462	 0.312394
N	-0.8454387676	-2.3460757048	-2.7974618579	-0.492521
O	-0.6456379827	-2.9911966026	-0.6314107681	-0.372144
H	 1.4057528494	 1.3716540855	 0.5015690554	 0.127753
H	 0.3469383577	 1.7332404785	-0.8911883094	 0.170824
H	-0.3090556639	 1.7470436892	 0.770456499	 0.127762
H	-0.1567121549	-1.9425542676	 1.0260084619	 0.20048
H	 1.1011796266	-0.8358669553	 1.643459958	 0.122107
H	-0.6100964332	-0.4606481525	 1.9130022098	 0.122097
H	-0.7746103717	-1.5661414929	-3.4319104288	 0.283678
H	-1.0952842274	-3.2705706813	-3.1025977074	 0.265743
23.3111	78.2438	115.5347	141.9362	259.5506	271.886	349.5549	351.1702	390.4655	443.617	516.9004	528.8636	642.3864	692.1096	700.3596	827.6235	958.7028	1077.9676	1098.1392	1131.9821	1169.8657	1184.7607	1268.2754	1344.6493	1430.5729	1438.4541	1465.2043	1493.9842	1495.7267	1511.7249	1545.2269	1560.9065	1722.9705	1793.7858	3013.0577	3024.3657	3059.9135	3072.4218	3182.1461	3208.1515	3589.1148	3741.5322
CN(C)C(=O)C(N)=O	CN(C)C(=O)C(=O)N	
InChI=1S/C4H8N2O2/c1-6(2)4(8)3(5)7/h1-2H3,(H2,5,7)	InChI=1S/C4H8N2O2/c1-6(2)4(8)3(5)7/h1-2H3,(H2,5,7)
