18
gdb 76018	2.70571	1.18507	1.07007	1.3539	87.57	-0.2278	0.0143	0.2421	1219.131	0.142884	-364.712162	-364.702017	-364.701073	-364.746662	37.423	
C	-0.2686714947	 1.4642212912	-0.0110042851	-0.320421
N	 0.0374972284	 0.0406398279	 0.0540984386	-0.120507
C	 1.3815024312	-0.4354440102	-0.2934289362	-0.267004
C	 2.4420127182	 0.4630933712	-0.6542322621	 0.354449
C	 3.3270088418	 1.2052952805	-0.9926557032	-0.446721
C	 0.8694450693	-0.4873494619	 1.1432280196	 0.065802
C	 1.482242741	 0.4145302189	 2.2030976964	-0.466008
C	 0.4386316471	-1.772504812	 1.6465164445	 0.295447
C	 0.1073417217	-2.840462643	 2.0881870218	-0.40259
H	 0.5800548567	 2.1334966108	 0.1767011017	 0.119238
H	-0.6542494946	 1.6816368148	-1.0115871751	 0.132791
H	-1.0601028963	 1.6817193302	 0.7119824459	 0.129553
H	 1.376385804	-1.3694839331	-0.8508705786	 0.123631
H	 4.1148731198	 1.8525840726	-1.2898603551	 0.202
H	 1.9306659917	 1.3090573644	 1.7704476751	 0.136184
H	 0.7223793559	 0.7110487991	 2.9326234595	 0.131543
H	 2.264033403	-0.1312333512	 2.7381373443	 0.138588
H	-0.197811964	-3.7836200702	 2.4688957979	 0.194025
107.0939	123.8878	139.1976	155.2615	169.3519	178.9997	267.5608	318.5515	357.5904	423.7152	456.6136	533.9101	561.15	603.9918	615.33	617.3169	647.2975	661.7423	691.167	745.258	863.1984	942.0919	1037.6043	1049.4813	1097.2415	1141.1429	1148.7249	1168.1184	1249.3043	1328.9935	1370.0491	1406.4627	1449.6532	1480.311	1482.612	1494.3193	1507.9226	2226.3036	2237.3207	3016.8208	3050.7329	3086.6696	3112.2148	3115.5147	3129.1131	3148.7096	3500.9817	3502.0661
CN1C(C#C)C1(C)C#C	CN1[C@@H](C#C)[C@]1(C)C#C	
InChI=1S/C8H9N/c1-5-7-8(3,6-2)9(7)4/h1-2,7H,3-4H3	InChI=1S/C8H9N/c1-5-7-8(3,6-2)9(7)4/h1-2,7H,3-4H3/t7-,8-,9?/m0/s1
