27
gdb 104714	2.2901	1.08939	0.88305	0.09	95.96	-0.2716	0.0775	0.3492	1526.2805	0.250842	-353.564485	-353.553541	-353.552597	-353.600169	41.636	
C	 0.7269257103	-0.1318950641	 1.2867076708	-0.390327
C	 0.0006021249	-0.0545448736	-0.0613621156	-0.246425
C	-1.4170159739	-0.6407829635	-0.064776785	 0.38072
C	-2.3701464127	 0.0555516399	 0.9236994722	-0.229254
C	-2.5431374855	 1.5642000661	 0.7152140839	-0.394581
C	-2.0564299127	-0.8003942962	-1.4841649489	-0.290893
C	-2.4586154771	-2.2599801627	-1.133277048	 0.061517
C	-2.2347318887	-3.3441456624	-2.1770557702	-0.406801
C	-1.4954244466	-2.196511337	 0.0850978374	-0.283257
H	 1.7637731801	 0.2053266556	 1.1910060172	 0.11011
H	 0.2486177227	 0.4935791549	 2.0469771985	 0.117269
H	 0.7464905375	-1.1588880854	 1.6680700096	 0.117016
H	-0.0311976525	 0.9883543749	-0.4027073151	 0.093113
H	 0.5902937991	-0.5949222111	-0.8130485915	 0.085165
H	-3.3530663703	-0.42771684	 0.8527827264	 0.090263
H	-2.0231529727	-0.1319337692	 1.9479355137	 0.09337
H	-1.6167849331	 2.1126440969	 0.9122060172	 0.117888
H	-2.8528342295	 1.7967802183	-0.3094939338	 0.116377
H	-3.3082211134	 1.962951615	 1.3887902466	 0.110355
H	-2.8623986987	-0.1102498098	-1.7507959827	 0.089181
H	-1.3019673632	-0.7651771242	-2.2776924473	 0.087084
H	-3.4988606111	-2.2947303266	-0.7925259387	 0.068131
H	-1.1994499334	-3.3329982337	-2.5376182729	 0.108001
H	-2.4328474382	-4.3410197587	-1.7666330845	 0.111094
H	-2.8900935369	-3.205582297	-3.044665014	 0.111069
H	-0.5353352716	-2.6783925776	-0.1310646486	 0.086572
H	-1.8669231028	-2.5849991791	 1.0383294434	 0.087243
66.6222	88.8633	129.3022	180.9996	190.3254	223.0382	233.5868	271.5336	309.7216	321.9727	348.9965	389.3506	429.3942	497.678	599.194	715.4349	773.3076	796.0294	834.7489	847.4869	902.3128	904.7124	943.05	948.7161	965.1417	1020.9218	1036.9148	1044.3997	1055.1113	1095.6048	1104.7027	1135.7905	1175.5762	1199.7561	1221.2538	1238.1803	1269.8874	1280.2621	1290.8718	1321.3174	1336.5502	1364.5152	1371.1984	1386.0825	1406.0693	1408.658	1409.5547	1471.2902	1481.7055	1489.9072	1492.4792	1496.4524	1497.5097	1500.7643	1501.8015	1502.4841	1514.0452	3014.9767	3017.2574	3018.9428	3031.2282	3032.8876	3033.5095	3037.665	3040.4767	3045.4205	3047.367	3083.2839	3085.4547	3087.0327	3093.7438	3098.0522	3098.6441	3102.7795	3105.0115
CCC1(CC)CC(C)C1	CCC1(CC)CC(C)C1	
InChI=1S/C9H18/c1-4-9(5-2)6-8(3)7-9/h8H,4-7H2,1-3H3	InChI=1S/C9H18/c1-4-9(5-2)6-8(3)7-9/h8H,4-7H2,1-3H3
