23
gdb 36786	7.54941	0.46278	0.45422	0.8466	93.14	-0.2568	0.059	0.3158	2417.8583	0.204027	-351.115966	-351.10544	-351.104496	-351.152738	38.283	
C	-0.0688838776	-1.2149330417	 0.0076877983	-0.438527
C	-0.042677834	-0.0161666244	 0.0942576402	 0.293255
C	 0.023834462	 1.4369276001	 0.191829751	-0.356272
C	 1.4311594175	 1.9999538885	-0.0932155174	-0.17487
C	 1.4876261026	 3.5260362465	 0.0160808621	-0.168882
C	 2.8823474719	 4.1008690543	-0.2646463829	-0.213778
C	 2.9364482235	 5.6106258387	-0.1616585226	 0.037019
C	 3.1306337117	 6.2783819068	 1.1776293339	-0.254372
C	 4.2316359894	 6.3168701062	 0.1449017911	-0.277675
H	-0.1045454634	-2.2733265921	-0.0660142501	 0.191642
H	-0.695737378	 1.8827343249	-0.5077890467	 0.127849
H	-0.2974662618	 1.750212794	 1.1940897031	 0.128058
H	 2.1424942593	 1.5472525022	 0.6079119725	 0.107553
H	 1.7438871114	 1.6834470347	-1.0953596448	 0.107955
H	 0.7660569106	 3.9688810757	-0.6847786199	 0.092504
H	 1.1653950483	 3.8367385824	 1.0188799119	 0.097994
H	 3.6039059119	 3.6658597222	 0.4404648033	 0.090995
H	 3.209671729	 3.7874751838	-1.2656842482	 0.09572
H	 2.271195146	 6.1270085722	-0.8503950465	 0.07868
H	 2.588422389	 7.1936259623	 1.3881613098	 0.109072
H	 3.2742097638	 5.6402871428	 2.0441038867	 0.107708
H	 5.1114547402	 5.7060881922	 0.3205246797	 0.108967
H	 4.4393912868	 7.2581886676	-0.3519539143	 0.109405
44.2919	64.0345	80.4148	120.5123	138.7839	166.0837	278.3224	295.4364	350.809	392.7342	445.9359	535.2598	614.0631	632.9758	734.4901	770.7791	776.6143	818.119	835.2186	894.7607	926.1291	947.5375	975.926	1023.5794	1038.7088	1057.497	1063.8594	1076.2311	1090.3271	1138.0646	1142.0136	1198.3493	1217.3677	1230.2203	1249.9703	1282.9054	1318.3303	1323.8548	1331.2618	1370.8741	1395.0866	1419.1933	1469.2156	1472.9754	1481.5767	1490.1088	1507.3333	1510.077	2238.2474	3003.1779	3009.8497	3013.9515	3029.6991	3034.8335	3040.2272	3050.8623	3080.4018	3126.4812	3127.3763	3132.7342	3204.1088	3219.4262	3507.98
C#CCCCCC1CC1	C#CCCCCC1CC1	
InChI=1S/C9H14/c1-2-3-4-5-6-9-7-8-9/h1,9H,3-8H2	InChI=1S/C9H14/c1-2-3-4-5-6-9-7-8-9/h1,9H,3-8H2
