23
gdb 102693	3.12441	0.69232	0.59692	2.9394	84.45	-0.2454	-0.0166	0.2288	1895.7468	0.201924	-425.432609	-425.421102	-425.420158	-425.470834	39.384	
C	-0.7586780662	 1.9926659857	-0.6175487895	-0.393907
C	-0.3376904586	 0.522019588	-0.58305283	-0.168588
C	-1.4994406752	-0.4565474081	-0.3711892321	 0.12134
C	-1.0100638888	-1.9110310067	-0.3727403324	-0.200802
C	-2.1443431643	-2.9294915817	-0.1804194862	-0.281248
C	-1.6200646021	-4.3358636262	-0.0236997247	 0.158184
O	-1.9514252459	-5.2805842943	-0.6930079268	-0.241238
O	-2.1350588094	-0.1966506084	 0.8814949605	-0.253031
C	-3.4531392698	 0.3023741163	 0.8015660352	-0.238894
H	 0.107579418	 2.6433501105	-0.7703319815	 0.114339
H	-1.466909156	 2.1887369715	-1.430628374	 0.110709
H	-1.2323985363	 2.2831704948	 0.3241346636	 0.129916
H	 0.1708058214	 0.2566796837	-1.5184713477	 0.094782
H	 0.3887331422	 0.3662352789	 0.224311185	 0.104292
H	-2.2321409769	-0.3272299221	-1.1832990124	 0.068298
H	-0.4837020931	-2.1087177111	-1.3139116353	 0.107842
H	-0.2749695714	-2.0252277488	 0.4344092847	 0.109296
H	-2.6781669756	-2.6680189768	 0.7434169899	 0.132484
H	-2.8558107498	-2.9126023602	-1.0117583239	 0.113619
H	-0.8650637391	-4.4505583337	 0.7908429683	 0.068869
H	-3.5010556397	 1.2750259484	 0.2920667949	 0.10971
H	-4.1270374095	-0.3936693985	 0.280118796	 0.106824
H	-3.8095747238	 0.4288737788	 1.8275302883	 0.127205
52.2017	56.2881	79.3104	94.2935	117.6869	143.4567	169.1909	246.2418	250.1074	291.7746	330.9303	359.4638	470.3052	524.9708	549.7502	757.1927	763.375	829.2644	889.353	940.2233	993.0782	1007.4403	1050.7625	1059.7392	1114.0477	1123.2415	1135.6948	1169.3091	1181.0825	1195.5047	1233.1024	1251.6147	1296.6729	1313.3563	1326.8053	1378.0863	1390.1574	1398.7856	1408.6486	1431.2672	1463.4441	1474.3374	1480.7008	1486.8471	1488.0793	1498.6983	1506.853	1516.1554	1835.1583	2845.9578	2975.5465	2988.1704	3020.5616	3024.9478	3030.4164	3033.3513	3036.6294	3059.387	3071.348	3098.1053	3100.2623	3107.9495	3117.8262
CCC(CCC=O)OC	CC[C@@H](CCC=O)OC	
InChI=1S/C7H14O2/c1-3-7(9-2)5-4-6-8/h6-7H,3-5H2,1-2H3	InChI=1S/C7H14O2/c1-3-7(9-2)5-4-6-8/h6-7H,3-5H2,1-2H3/t7-/m0/s1
