20
gdb 119835	4.34151	0.83208	0.77223	0.9436	77.9	-0.2437	0.0377	0.2814	1551.9389	0.170671	-440.306864	-440.297481	-440.296536	-440.341778	34.193	
C	 0.308882311	 1.427446156	 0.0159365223	-0.391137
C	 0.1737458826	-0.0821922959	-0.0294026273	-0.037685
O	 0.6143489602	-0.5971045663	 1.2402300791	-0.268217
C	 0.5873913515	-1.9240440139	 1.377262897	 0.430678
N	 0.2028897148	-2.7482245721	 0.4849406368	-0.31379
C	 0.3088883795	-4.0935453086	 1.0545751001	-0.177803
C	 1.1524249727	-3.9822295697	 2.3567963171	 0.112148
O	 2.534368988	-4.2275052469	 2.1244285644	-0.43786
C	 1.0216000586	-2.4941697355	 2.7073935152	-0.327784
H	 1.3486219528	 1.7211091062	 0.1857339424	 0.128973
H	-0.0207118982	 1.8583046042	-0.9341637348	 0.120543
H	-0.3032709847	 1.8508226867	 0.8174028524	 0.127103
H	-0.8605799368	-0.3995644064	-0.200070186	 0.117472
H	 0.7836887909	-0.5280988881	-0.8219466116	 0.121678
H	-0.6955899344	-4.4890172002	 1.2594712669	 0.099843
H	 0.7804635102	-4.7780739138	 0.3381816585	 0.094153
H	 0.7740239741	-4.6389731942	 3.1520203417	 0.063821
H	 2.6209972403	-5.1147366814	 1.7614691647	 0.281447
H	 1.9653786662	-2.0780600315	 3.0665681424	 0.136273
H	 0.2561341108	-2.3070775788	 3.4685222986	 0.120144
48.1326	79.2016	137.8597	156.569	243.1525	267.7838	292.5806	338.2967	393.0577	409.9348	478.4859	557.8704	724.2086	784.2406	807.5488	835.5212	884.1864	904.0574	929.9282	974.9832	1023.1275	1050.9717	1070.5578	1088.2413	1140.2649	1179.6938	1184.1401	1208.6376	1236.6177	1279.8994	1287.9264	1324.7143	1342.9399	1362.6102	1405.2313	1416.5041	1433.2918	1461.9679	1485.3456	1487.7639	1496.4405	1520.2357	1713.432	2998.6467	3015.0965	3045.3433	3045.5534	3045.9601	3056.5235	3082.3919	3116.7906	3120.1826	3124.3301	3817.0257
CCOC1=NCC(O)C1	CCO[C]1[N]C[C@@H](O)C1	
InChI=1S/C6H11NO2/c1-2-9-6-3-5(8)4-7-6/h5,8H,2-4H2,1H3	InChI=1S/C6H11NO2/c1-2-9-6-3-5(8)4-7-6/h5,8H,2-4H2,1H3/t5-/m0/s1
