14
gdb 11238	4.54537	1.47848	1.25285	3.1796	63.31	-0.2706	-0.0034	0.2671	953.9676	0.107708	-378.755457	-378.748	-378.747056	-378.787893	26.109	
C	-0.1768771687	 1.3882748996	 0.1641106538	-0.474016
C	 0.008768736	-0.074481372	-0.0346479377	 0.413651
N	-0.1897590836	-0.7370274748	-1.0965123612	-0.289166
C	 0.1264524731	-2.1339994846	-0.8070205156	-0.204932
C	 0.5383353173	-2.1333411489	 0.705595238	-0.04777
O	 0.4512103655	-0.7469175324	 1.0806995945	-0.248628
C	-0.3433956444	-2.935574558	 1.5588030101	 0.274222
N	-1.035686119	-3.5949012545	 2.2073177781	-0.310412
H	 0.7647265315	 1.849568418	 0.4773065094	 0.152082
H	-0.5186062128	 1.8427071934	-0.7648118093	 0.159559
H	-0.909104183	 1.5702973511	 0.9566490117	 0.156635
H	-0.7397670284	-2.7735926993	-0.9958027252	 0.144602
H	 0.9457957661	-2.4823362119	-1.4428089265	 0.132014
H	 1.5690268003	-2.4652059457	 0.8595276899	 0.14216
51.273	135.622	169.9491	240.8433	266.2625	341.8208	500.2245	558.618	601.0934	677.6514	757.3553	829.4609	924.4633	968.4938	994.1275	1031.4601	1053.4992	1071.3939	1094.6468	1207.6613	1241.2511	1296.1962	1334.5442	1373.7654	1416.3819	1473.9359	1474.9599	1501.9777	1757.332	2362.2993	3054.3819	3057.901	3072.2624	3101.5609	3113.2038	3170.6414
CC1=NCC(O1)C#N	CC1=NC[C@@H](O1)C#N	
InChI=1S/C5H6N2O/c1-4-7-3-5(2-6)8-4/h5H,3H2,1H3	InChI=1S/C5H6N2O/c1-4-7-3-5(2-6)8-4/h5H,3H2,1H3/t5-/m0/s1
