17
gdb 46199	3.17037	1.6631	1.25704	3.7449	73.45	-0.2395	0.0148	0.2543	990.4329	0.137836	-417.940385	-417.933155	-417.932211	-417.972063	28.204	
O	-0.089501795	-0.0059353427	-0.0146801782	-0.367374
C	-0.064153018	 1.1971825813	-0.0018507937	 0.375664
N	-1.0454298785	 2.1570211202	-0.0261751937	-0.346093
C	-0.15226466	 3.3192649641	-0.0030709852	-0.269239
C	 1.019244453	 2.3030840129	 0.0577480762	 0.241659
C	 2.2554091803	 2.3324375722	 0.9723758101	-0.133449
C	 2.8272006413	 1.3133647425	-0.0408193514	-0.180038
N	 2.1554732696	 2.3514321617	-0.9717256522	-0.180521
C	 2.7754073973	 3.3943174226	-0.0186638868	-0.174359
H	-2.0486613092	 2.0819308844	-0.0958811181	 0.255239
H	-0.1755728964	 3.9230618588	-0.9156963151	 0.127403
H	-0.2708865819	 3.9601242121	 0.8768175198	 0.115927
H	 2.2914765713	 2.3216887692	 2.0665416112	 0.075208
H	 3.912873863	 1.2804797217	-0.161125302	 0.100562
H	 2.3711884086	 0.3252649314	-0.0923079436	 0.148392
H	 2.282608027	 4.3697570376	-0.0510066049	 0.104573
H	 3.8577085076	 3.4935649699	-0.1389886325	 0.106443
109.4424	171.106	205.2453	249.7209	368.2033	450.5586	482.2605	601.7658	658.9694	686.7476	779.5662	788.418	793.3084	859.2994	904.7517	926.377	986.8675	1001.5825	1041.8635	1051.5013	1091.1271	1103.6846	1114.8103	1163.3705	1169.6222	1182.013	1201.5733	1215.1733	1226.6167	1269.8449	1283.8191	1308.9513	1391.6983	1512.1656	1518.9458	1546.7552	1881.9275	3037.8363	3045.9219	3056.6951	3072.0593	3088.7475	3116.929	3160.4542	3624.7427
O=C1NCC11C2CN1C2	O=C1NC[C@]21[C@H]1CN2C1	
InChI=1S/C6H8N2O/c9-5-6(3-7-5)4-1-8(6)2-4/h4H,1-3H2,(H,7,9)	InChI=1S/C6H8N2O/c9-5-6(3-7-5)4-1-8(6)2-4/h4H,1-3H2,(H,7,9)/t6-/m1/s1
