18
gdb 75191	3.6496	0.92744	0.78074	1.5974	74.11	-0.2483	-0.0281	0.2202	1438.7745	0.146327	-439.121581	-439.112393	-439.111449	-439.157187	31.91	
C	 0.1274050862	 1.3560776488	 0.290245407	-0.472245
C	-0.0207700477	-0.0995708867	 0.0108742407	 0.404308
N	 0.2768003253	-0.7002316573	-1.0669708052	-0.298823
C	-0.0618989257	-2.1141014859	-0.8715388089	-0.204992
C	-0.5530975473	-2.2116013156	 0.6002406878	 0.073215
C	 0.3490685489	-3.048240844	 1.5135404143	-0.291957
C	-0.1003620391	-3.0297027077	 2.9608647694	 0.154096
O	-0.3468255284	-4.0167145205	 3.6056758671	-0.236964
O	-0.54028905	-0.8319493656	 1.0435123193	-0.265055
H	 0.7799241951	 1.5134427915	 1.1546840193	 0.145158
H	 0.5464638334	 1.8554648533	-0.5823895163	 0.155316
H	-0.8454940666	 1.7945528912	 0.5335440387	 0.148334
H	-0.8334631219	-2.4159780364	-1.5878094547	 0.12025
H	 0.8156754001	-2.7441881239	-1.0549984766	 0.116546
H	-1.5870843803	-2.5629443861	 0.6707552835	 0.10415
H	 0.375190923	-4.0863718942	 1.1688876988	 0.127458
H	 1.3664566662	-2.6362505086	 1.4601728344	 0.12736
H	-0.1951539412	-2.0137959823	 3.4008842914	 0.093846
40.5684	60.7688	87.8484	139.0095	184.5227	243.5931	323.5537	348.4969	442.3167	508.863	609.3736	658.7285	753.1021	809.787	853.4577	940.2869	947.5665	976.5007	989.0274	1049.0948	1065.7521	1076.099	1102.6152	1120.8923	1198.672	1241.6356	1251.4795	1283.2786	1328.5899	1355.0842	1387.0267	1416.6614	1424.7912	1452.372	1475.2828	1476.1577	1501.171	1748.7635	1831.4075	2907.2207	3021.3358	3036.7548	3051.6336	3055.9832	3074.7339	3101.8647	3108.9478	3167.5261
CC1=NCC(CC=O)O1	CC1=NC[C@@H](CC=O)O1	
InChI=1S/C6H9NO2/c1-5-7-4-6(9-5)2-3-8/h3,6H,2,4H2,1H3	InChI=1S/C6H9NO2/c1-5-7-4-6(9-5)2-3-8/h3,6H,2,4H2,1H3/t6-/m1/s1
