21
gdb 110886	2.29141	1.36988	1.15593	3.038	77.32	-0.2449	0.0638	0.3087	1175.7995	0.183807	-424.21263	-424.203693	-424.202749	-424.246405	34.281	
O	 0.8353670687	-0.0679317278	 1.2088648413	-0.426388
C	 0.2918588757	-0.1793991135	-0.106986751	-0.114447
C	-1.1602951023	-0.5961231901	-0.0664552871	-0.031255
C	-1.9419814456	-1.2094813718	-1.206532086	-0.077847
C	-1.2274161382	-1.8282604563	-2.4027369509	-0.230008
C	-0.3495047587	-2.9919205647	-1.877020571	 0.104819
O	 1.0187849165	-2.6527029817	-2.0998080968	-0.412889
C	-0.7106433186	-3.1779891226	-0.3717847737	-0.258893
C	-1.6372234078	-2.034177186	 0.0280887467	-0.069479
H	 0.713505109	-0.9219690204	 1.6359668425	 0.276611
H	 0.3763842303	 0.8244903581	-0.5382992541	 0.103736
H	 0.8900871523	-0.8549399025	-0.7278356959	 0.118353
H	-1.7520641202	 0.0861691362	 0.5407571648	 0.087819
H	-2.9403691791	-0.8212985294	-1.37828125	 0.081447
H	-1.9748781929	-2.2082116714	-3.1061621894	 0.100754
H	-0.5959931225	-1.1268390083	-2.9564417815	 0.120358
H	-0.5724977533	-3.9152909869	-2.4290287723	 0.074906
H	 1.5628975594	-3.3720657802	-1.7636502265	 0.281896
H	-1.2320828441	-4.1295084443	-0.2221575399	 0.101391
H	 0.2089663534	-3.2271168758	 0.2254267409	 0.087807
H	-2.4131925823	-2.2558400804	 0.7532355197	 0.081307
81.3195	95.7707	127.1917	215.8597	262.6899	307.8231	335.7833	407.1554	423.1823	489.7496	510.7879	668.6345	700.1747	745.3065	803.877	807.3019	896.051	902.2608	955.9257	980.1994	1001.7406	1013.3589	1048.4517	1055.344	1079.6784	1097.5539	1121.5708	1129.4342	1194.3533	1207.0992	1229.3405	1248.2569	1262.1837	1289.2212	1321.5294	1326.6511	1352.7772	1371.6688	1390.1454	1417.2476	1427.2081	1460.469	1481.0659	1492.1618	1524.297	2993.7489	3022.3001	3039.4776	3052.4575	3067.2954	3080.6061	3092.0139	3125.677	3153.4973	3165.3084	3813.1664	3816.3955
OCC1C2CC(O)CC12	OC[C@H]1[C@H]2C[C@@H](O)C[C@@H]12	
InChI=1S/C7H12O2/c8-3-7-5-1-4(9)2-6(5)7/h4-9H,1-3H2	InChI=1S/C7H12O2/c8-3-7-5-1-4(9)2-6(5)7/h4-9H,1-3H2/t4-,5+,6-,7+
