17
gdb 19516	3.8722	1.70828	1.60834	1.503	66.89	-0.24	0.0154	0.2554	880.7476	0.143566	-363.859043	-363.851897	-363.850953	-363.890857	26.862	
C	 0.0107427898	 1.4087742571	-0.2887395552	-0.373163
C	-0.0081709831	-0.0048933204	 0.304997564	-0.207787
C	-1.3664958845	-0.6630313461	 0.1892761434	-0.051624
C	-1.9176166472	-1.2373554679	-1.0859175377	 0.040649
O	-0.9707250476	-1.5959074881	-2.0884537695	-0.207469
C	-0.2212593034	-2.5857039756	-1.5333309842	 0.093812
N	-0.5018308497	-2.9878026887	-0.3603330399	-0.250692
C	-1.6039000399	-2.1645957779	 0.0843747623	-0.063707
H	 0.9964730741	 1.8699544427	-0.1731234479	 0.113115
H	-0.2286310124	 1.3863099251	-1.3566066455	 0.12579
H	-0.7206251108	 2.0587677923	 0.2040945803	 0.111719
H	 0.7543672404	-0.6185418335	-0.1830333193	 0.114773
H	 0.2707527317	 0.0311164467	 1.3652361593	 0.103772
H	-2.1446393139	-0.1732472534	 0.7720951979	 0.095187
H	-2.8848316998	-0.9819220494	-1.4995313472	 0.109889
H	 0.5750449182	-2.9595710824	-2.1653531769	 0.143905
H	-2.3367767021	-2.6449667105	 0.7212658561	 0.101829
55.3366	158.2325	199.8564	265.8843	319.4718	455.7415	570.1526	671.5811	707.492	751.4312	796.7924	809.7742	871.7183	906.8115	937.8069	966.7021	1001.6879	1020.8145	1040.9388	1071.037	1100.8602	1114.5477	1129.9355	1151.6105	1220.2929	1289.5647	1291.5634	1324.6297	1344.0198	1372.9125	1409.385	1429.902	1488.9185	1499.6027	1508.5843	1667.9133	3033.3079	3035.3802	3081.0344	3103.901	3109.4766	3127.4651	3180.1027	3194.3319	3229.7496
CCC1C2OC=NC12	CC[C@H]1[C@H]2OC=N[C@@H]12	
InChI=1S/C6H9NO/c1-2-4-5-6(4)8-3-7-5/h3-6H,2H2,1H3	InChI=1S/C6H9NO/c1-2-4-5-6(4)8-3-7-5/h3-6H,2H2,1H3/t4-,5+,6-/m1/s1
