18
gdb 38778	2.89607	1.99176	1.67715	0.5825	72.98	-0.2307	0.0697	0.3004	872.4125	0.151303	-401.894286	-401.888018	-401.887073	-401.924526	26.644	
C	 0.0014687689	 1.59239922	-0.0895705586	-0.269461
C	 1.5211728825	 1.4881116069	-0.0566495165	-0.041328
C	 2.0468118122	 0.6822635698	 1.0688992021	-0.031991
C	 1.438973486	 0.5050363671	 2.4299392251	 0.035539
O	 0.252324675	 1.230146794	 2.784933124	-0.25558
C	 0.144841724	-0.1801799963	 2.5590022658	 0.04583
C	-0.5625804337	-0.6182908637	 1.2988070326	-0.251379
C	-0.0075509777	 0.0394439058	 0.0328964882	 0.018356
N	 1.5028075189	-0.0302959746	-0.1193583382	-0.170175
H	-0.4779787336	 2.183660411	 0.6881172596	 0.128958
H	-0.3549879142	 1.9122893345	-1.0711946494	 0.103649
H	 2.197159429	 2.0655316548	-0.6806878816	 0.093501
H	 3.1310010313	 0.5993080842	 1.0836989332	 0.091295
H	 2.1610018492	 0.4275574815	 3.2413552251	 0.094013
H	-0.0595813434	-0.76205224	 3.4574100743	 0.093744
H	-0.4570787997	-1.7077282482	 1.212552118	 0.11345
H	-1.6368175566	-0.4090971317	 1.3758552582	 0.114452
H	-0.4557467082	-0.439552805	-0.8395304019	 0.087128
219.4393	252.5972	350.2714	369.0458	467.2336	491.5686	636.419	706.5685	726.3658	757.3412	797.7157	822.7612	828.2275	855.2735	895.5277	933.8136	978.7986	997.8492	1023.136	1031.1264	1069.4113	1086.9931	1104.2845	1116.764	1143.2197	1170.3864	1227.6736	1238.3174	1275.0079	1284.3445	1308.1934	1317.8954	1360.6577	1380.9027	1400.0283	1439.6729	1460.4165	1474.879	1491.8035	3022.8245	3061.5386	3075.65	3088.5175	3109.4179	3119.879	3138.5256	3151.5239	3154.7249
C1C2C3C4OC4CC1N23	C1[C@H]2[C@H]3[C@H]4O[C@H]4C[C@@H]1N23	
InChI=1S/C7H9NO/c1-3-2-5-7(9-5)6-4(1)8(3)6/h3-7H,1-2H2	InChI=1S/C7H9NO/c1-3-2-5-7(9-5)6-4(1)8(3)6/h3-7H,1-2H2/t3-,4+,5+,6+,7+,8?/m1/s1
