16
gdb 126037	3.10942	1.58726	1.10444	4.9759	69.95	-0.2463	-0.0061	0.2402	1057.7702	0.126104	-437.874593	-437.867328	-437.866384	-437.906708	27.49	
C	-0.0037820812	 1.5938581702	-0.0664835754	-0.399642
C	-0.0126214374	 0.0665142873	 0.052881271	-0.17553
C	 0.7767489279	-0.6369020448	-1.1112517366	-0.100217
O	 1.5711191547	-1.7240396689	-0.5555963557	-0.264707
C	 1.5806571306	-1.5323118022	 0.7728084547	 0.467011
N	 2.2605538898	-2.1452111152	 1.7002407241	-0.273232
O	 1.8151208124	-1.4971254196	 2.8790800604	-0.183716
C	 0.9047113576	-0.5456698703	 2.5675563733	-0.078839
C	 0.7115451942	-0.5141176012	 1.2310940441	 0.119001
H	 1.0190602302	 1.9814948474	-0.0322397991	 0.128851
H	-0.4621388869	 1.9146881892	-1.007758664	 0.123317
H	-0.567869736	 2.0518118355	 0.7511162434	 0.127143
H	-1.05327804	-0.2811544554	 0.0410301824	 0.105935
H	 0.1257329256	-1.0671554708	-1.8743679087	 0.129312
H	 1.4668105771	 0.0684834751	-1.5883362834	 0.122917
H	 0.5084564013	 0.0008222936	 3.4094910397	 0.152396
69.5328	164.9881	223.3428	262.4373	334.4401	437.165	512.4862	570.4356	621.6226	662.8808	744.1039	759.7793	840.2145	880.4533	900.181	938.1109	954.2749	986.2544	1042.5563	1106.0927	1115.1476	1140.3072	1176.4717	1234.5997	1283.806	1307.9322	1340.9001	1377.1351	1412.9013	1470.6661	1494.5118	1497.6083	1510.0595	1584.3335	1695.3169	3020.8719	3035.9671	3042.0135	3106.9716	3113.9597	3119.3671	3261.0202
CC1COC2=NOC=C12	C[C@H]1COc2nocc12	
InChI=1S/C6H7NO2/c1-4-2-8-6-5(4)3-9-7-6/h3-4H,2H2,1H3	InChI=1S/C6H7NO2/c1-4-2-8-6-5(4)3-9-7-6/h3-4H,2H2,1H3/t4-/m0/s1
