18
gdb 126920	6.70851	0.77918	0.70762	3.7738	78.41	-0.1976	0.0359	0.2335	1594.9517	0.148242	-435.264376	-435.255206	-435.254262	-435.298817	33.663	
C	 0.0769925535	 1.4551550211	 0.1085408617	-0.398379
C	-0.0392083268	-0.0374650509	-0.1792676779	-0.121531
N	-1.4071633941	-0.4944615355	 0.0565047653	-0.411006
C	-1.7200512478	-1.8245305719	 0.0483050238	 0.573723
C	-2.9118313039	-2.4925397005	-0.049119843	-0.479696
C	-2.5259042586	-3.8540637109	 0.0941804575	 0.441579
N	-3.3724757722	-4.9515952101	 0.1483851661	-0.591318
N	-1.2265517645	-4.0096465416	 0.2417578153	-0.253692
O	-0.7082195166	-2.6831493149	 0.218774991	-0.230729
H	 1.1024535494	 1.7949013963	-0.0597590426	 0.12764
H	-0.5764544752	 2.0397311319	-0.549913967	 0.114903
H	-0.1979491327	 1.6755999361	 1.1438904266	 0.132969
H	 0.2860916482	-0.2531049644	-1.2086170863	 0.106804
H	 0.6181118802	-0.6053487073	 0.4837266675	 0.142856
H	-2.1288656751	 0.0976125724	-0.3264452576	 0.244565
H	-3.900768272	-2.0828293748	-0.1642549473	 0.096051
H	-4.1523974255	-4.8971074551	-0.4912553218	 0.249475
H	-2.8735353562	-5.8259942298	 0.0469769989	 0.255787
51.3498	75.3252	132.9257	207.2765	260.7858	290.7783	336.3585	344.9443	385.0457	469.0184	526.7453	637.492	672.149	696.2367	704.8815	764.0182	790.1398	812.511	912.6937	932.6798	1008.3964	1037.5894	1073.9294	1135.3427	1144.2384	1161.5061	1220.6157	1292.8761	1352.3774	1385.2357	1415.967	1464.1146	1494.0349	1499.0969	1519.8364	1531.9451	1575.8853	1646.7155	1674.1382	2986.8596	3034.2237	3089.5443	3110.1772	3125.2362	3272.8274	3551.2225	3612.8173	3650.4942
CCNC1=CC(N)=NO1	CCNc1cc(N)no1	
InChI=1S/C5H9N3O/c1-2-7-5-3-4(6)8-9-5/h3,7H,2H2,1H3,(H2,6,8)	InChI=1S/C5H9N3O/c1-2-7-5-3-4(6)8-9-5/h3,7H,2H2,1H3,(H2,6,8)
