22
gdb 61876	2.32911	0.97007	0.79056	3.5531	83.86	-0.2471	0.0344	0.2815	1545.3647	0.193408	-404.368816	-404.358612	-404.357668	-404.405609	36.844	
C	 0.1135075503	 1.687495881	-0.1624979936	-0.395497
C	 0.1269181264	 0.1566630743	-0.0709588048	 0.046767
C	 0.9537183254	-0.4814258655	-1.2006103753	-0.222266
C	 0.8561251724	-1.990177939	-1.2582668781	 0.037364
C	-0.2739551139	-2.648327744	-2.0096972879	-0.250915
C	 1.1356859185	-2.7239191607	-2.5446795866	-0.279201
N	 0.6198850851	-0.2837107984	 1.2336069812	-0.272978
C	-0.1829270725	-0.7428007867	 2.2305265613	 0.154337
O	-1.3851223197	-0.887257702	 2.1583163701	-0.325245
H	 1.1279046422	 2.097358911	-0.087843095	 0.107244
H	-0.3093372514	 2.0141944413	-1.1178512186	 0.11871
H	-0.4881696337	 2.1154404074	 0.6436866812	 0.131294
H	-0.9003901626	-0.214468075	-0.1224768191	 0.127284
H	 0.6142737848	-0.0586214762	-2.1543269961	 0.097799
H	 2.0049655059	-0.1729002174	-1.0919992336	 0.086376
H	 1.1702309908	-2.4930638291	-0.3481490386	 0.083512
H	-0.719407823	-3.5449722117	-1.5941110715	 0.11666
H	-0.9775343917	-2.0061099382	-2.5301352347	 0.109604
H	 1.3752776208	-2.1335151375	-3.4234824308	 0.107959
H	 1.6563930749	-3.6739610296	-2.4959524581	 0.111022
H	 1.5992022048	-0.1561543953	 1.4406281985	 0.240798
H	 0.3993194862	-0.9868986985	 3.14245075	 0.069372
21.9395	61.1676	97.8854	146.8334	191.5783	214.3016	248.273	313.4336	341.9903	400.4594	454.1573	508.046	536.9282	753.9143	777.6694	802.636	835.2176	859.9682	900.9448	930.8477	942.7387	993.8938	1028.9514	1042.376	1062.2971	1079.8273	1121.4356	1144.7784	1151.9725	1169.6122	1198.543	1212.4146	1230.6932	1275.9276	1307.9543	1367.7815	1371.8041	1409.2356	1421.3579	1432.4763	1469.5501	1479.8876	1489.9394	1497.3395	1507.6267	1529.9428	1804.6964	2924.0694	2992.1163	3029.4943	3049.0357	3083.4768	3103.5898	3119.7041	3127.4896	3133.5997	3148.6587	3205.9386	3221.9217	3613.9287
CC(CC1CC1)NC=O	C[C@@H](CC1CC1)NC=O	
InChI=1S/C7H13NO/c1-6(8-5-9)4-7-2-3-7/h5-7H,2-4H2,1H3,(H,8,9)	InChI=1S/C7H13NO/c1-6(8-5-9)4-7-2-3-7/h5-7H,2-4H2,1H3,(H,8,9)/t6-/m0/s1
