20
gdb 112584	3.29049	0.96211	0.90203	4.3392	80.17	-0.273	0.0136	0.2866	1402.7295	0.169087	-403.159663	-403.149905	-403.148961	-403.194693	35.514	
C	 0.15514118	 1.4191106426	 0.3883001137	-0.383139
C	 0.0754830664	-0.0746306533	 0.0590136077	-0.194028
C	-1.3411504083	-0.5298413272	-0.2311714874	 0.166893
C	-1.6391141542	-2.0413656456	-0.308214394	-0.358661
C	-2.6792102037	-1.7545388926	 0.8112869524	 0.274077
C	-2.5528149721	-2.5186544221	 2.1222028439	-0.43752
O	-2.2187559719	-0.390501558	 0.9263951458	-0.318915
C	-4.0721623525	-1.7908597026	 0.3226286822	 0.258276
N	-5.159544009	-1.8288664875	-0.0672444608	-0.337826
H	 1.1817005582	 1.7169439165	 0.6196345698	 0.11631
H	-0.1896243613	 2.0289032097	-0.4537536132	 0.118898
H	-0.4721556298	 1.6550151862	 1.2524788051	 0.139987
H	 0.6936078389	-0.3067651298	-0.8186419735	 0.102791
H	 0.4717874968	-0.6667649902	 0.8931743754	 0.098156
H	-1.7566615698	 0.0323136954	-1.0786053576	 0.089187
H	-2.0317104248	-2.4231608256	-1.2497667865	 0.132437
H	-0.8187273688	-2.6745516923	 0.03621108	 0.117753
H	-1.5142931763	-2.4879777343	 2.4605584419	 0.12841
H	-3.186158049	-2.0632135469	 2.8881827672	 0.148477
H	-2.8587614688	-3.5610160824	 1.991692578	 0.138436
46.4343	99.3492	133.6864	175.592	211.44	230.7522	249.0973	327.6693	355.3927	404.9428	444.6061	546.7105	590.642	628.0783	746.0119	790.5945	871.5365	906.0015	919.1548	948.0372	962.0325	1002.9859	1032.4211	1081.0509	1107.8134	1145.0798	1194.2585	1207.1014	1252.7276	1259.8774	1280.2071	1315.4777	1346.1103	1404.4279	1408.8998	1416.4225	1472.8976	1478.1341	1483.5973	1490.3295	1498.1738	1508.4356	2350.8604	3011.7263	3019.8574	3039.6627	3046.0629	3060.3889	3081.1907	3107.7759	3121.1179	3125.2404	3132.2621	3150.3598
CCC1CC(C)(O1)C#N	CC[C@H]1C[C@@](C)(O1)C#N	
InChI=1S/C7H11NO/c1-3-6-4-7(2,5-8)9-6/h6H,3-4H2,1-2H3	InChI=1S/C7H11NO/c1-3-6-4-7(2,5-8)9-6/h6H,3-4H2,1-2H3/t6-,7+/m0/s1
