15
gdb 54811	3.04127	0.9414	0.78111	1.0397	66.96	-0.1954	0.0257	0.2211	1400.9967	0.110016	-453.93496	-453.925382	-453.924438	-453.972672	31.961	
O	 0.2518860191	-0.308780433	 0.639757637	-0.31269
C	 0.4126678189	 0.7164879623	 1.1701461179	 0.588069
O	 0.5972541825	 1.7196992081	 1.7243974659	-0.285683
C	-1.0434083799	 2.0681524967	-1.3976660087	-0.272853
C	-2.0034752901	 3.2325614451	-1.3207907511	-0.045437
C	-3.147012105	 3.0431829663	-2.2508950056	-0.22152
N	-3.1161973661	 2.2571753501	-0.9785381454	-0.177602
C	-2.0856355604	 1.2388215611	-1.1750096842	 0.354289
N	-2.3912334713	-0.095619224	-1.1879000193	-0.594637
H	-3.199524722	-0.3300207171	-0.6282370724	 0.25917
H	-1.6086295343	-0.7114546188	-1.0159564215	 0.266028
H	-0.0153510821	 1.9627900158	-1.7053495446	 0.095161
H	-1.8932125159	 4.1277605371	-0.7176041982	 0.106945
H	-3.9403952099	 3.7887606496	-2.2600959952	 0.11813
H	-2.9861370634	 2.5098479407	-3.1843416647	 0.122632
26.8469	28.7055	61.0982	81.8212	101.0541	223.4085	344.9435	392.9578	474.6089	596.0153	652.7095	668.9358	686.1452	695.9275	728.7301	785.88	796.979	929.0375	970.5982	1020.5001	1032.5591	1085.1579	1116.5813	1142.959	1199.2058	1241.9004	1296.3244	1347.9969	1375.7247	1481.7168	1627.101	1715.1596	2431.076	3096.4962	3170.6292	3196.6187	3248.7669	3558.5555	3659.9406
[O-]C(=O)C1C2CN2C1=[NH2+]	O=C=O.C1=C(N2[C@@H]1C2)N	
InChI=1S/C5H6N2O2/c6-4-3(5(8)9)2-1-7(2)4/h2-3,6H,1H2,(H,8,9)	InChI=1S/C4H6N2.CO2/c5-4-1-3-2-6(3)4;2-1-3/h1,3H,2,5H2;/t3-,6?;/m0./s1
