23
gdb 122969	6.38639	0.50679	0.48454	3.2955	80.25	-0.2575	0.0749	0.3324	2307.5524	0.203281	-462.553402	-462.542021	-462.541076	-462.591169	39.842	
C	 0.0746453878	 1.3913621233	-0.1723812183	-0.382687
C	 0.0913808333	-0.1288392753	 0.0053357792	-0.185502
C	 0.7622314168	-0.5529591776	 1.3042288699	-0.0317
O	 0.7319102658	-1.9646856194	 1.3962898168	-0.266373
C	 1.3530417194	-2.4797218116	 2.5585705465	-0.084723
C	 1.3504366895	-3.9959006352	 2.4170318924	 0.093075
O	 1.9999304439	-4.3741063684	 1.2084472592	-0.455401
C	 2.0987044429	-4.7113549993	 3.5363482648	-0.048353
O	 2.1048475365	-6.1080247686	 3.328048042	-0.428555
H	 1.0896267995	 1.803408882	-0.1873534741	 0.118401
H	-0.4102008385	 1.6706321402	-1.1119394629	 0.120444
H	-0.4705341875	 1.8825214013	 0.6410592542	 0.118562
H	-0.9305585331	-0.5246872779	-0.0043585857	 0.109583
H	 0.6188047792	-0.6030192098	-0.8306665495	 0.104623
H	 1.8049276352	-0.1934035958	 1.3360073946	 0.08887
H	 0.2416093921	-0.1076056856	 2.168911283	 0.088702
H	 2.3883756182	-2.1090530064	 2.6345308394	 0.093062
H	 0.8094260651	-2.1691938869	 3.4656378363	 0.091291
H	 0.3061343465	-4.3468888125	 2.4083666668	 0.079422
H	 1.6274515022	-3.8142072115	 0.5170355379	 0.293034
H	 3.1237135635	-4.3086540246	 3.5943434304	 0.086386
H	 1.6072834605	-4.5288990706	 4.497981034	 0.103765
H	 2.3620111913	-6.2320825699	 2.406252553	 0.294075
41.4799	64.447	79.7201	109.6007	146.7305	166.0645	199.4404	232.3116	264.9967	312.3651	387.4448	409.6107	454.6681	474.1781	504.3877	591.1817	766.6764	873.435	901.1495	912.2654	933.7909	990.0101	1046.3954	1067.7957	1083.0115	1116.9024	1134.8489	1154.6983	1162.6305	1191.5317	1211.5835	1262.6536	1272.1186	1281.3724	1316.1619	1325.5284	1345.7224	1380.1106	1402.1846	1414.6288	1431.2143	1447.6845	1456.9865	1492.4378	1498.1395	1500.402	1504.1446	1510.3181	1531.9372	2952.0029	2963.4904	2968.9903	2981.2691	2982.3426	3007.4728	3033.3727	3038.1749	3071.7066	3073.4424	3101.271	3110.9562	3790.5185	3796.0382
CCCOCC(O)CO	CCCOC[C@@H](O)CO	
InChI=1S/C6H14O3/c1-2-3-9-5-6(8)4-7/h6-8H,2-5H2,1H3	InChI=1S/C6H14O3/c1-2-3-9-5-6(8)4-7/h6-8H,2-5H2,1H3/t6-/m0/s1
