17
gdb 71166	2.76623	1.87138	1.49427	1.541	71.34	-0.2536	0.079	0.3326	919.329	0.13595	-421.747316	-421.74027	-421.739325	-421.778336	29.098	
O	 0.1636377053	 1.3947286056	 0.0052107119	-0.475706
C	-0.0041279231	 0.035002445	-0.0308650428	 0.321353
C	 0.4383262032	-0.7895462941	-1.2538200812	-0.278964
C	-0.566400305	-1.8412487954	-0.7624495123	-0.077723
C	-0.5388730425	-1.854134486	 0.7791547078	-0.176515
C	-1.3666180067	-0.8373058383	 0.0131851277	-0.171642
C	 0.4532983561	-0.7975590337	 1.1725143787	 0.428917
C	 1.6677075136	-0.7149320736	 1.9745670411	-0.290218
O	 0.4157185049	-0.1453918087	 2.4374560199	-0.310646
H	 0.1212378838	 1.6477914705	 0.9394889968	 0.291862
H	 0.0994451235	-0.334294123	-2.1882328325	 0.11102
H	 1.5013706036	-1.0477422388	-1.3234200335	 0.091975
H	-0.9346654906	-2.701185981	-1.3057174513	 0.095245
H	-0.8836538309	-2.7019209267	 1.3548793412	 0.098829
H	-2.4184439603	-0.5968617589	 0.0483337177	 0.101143
H	 2.0104391613	-1.5787629026	 2.5416169018	 0.121363
H	 2.4383722136	 0.0127395596	 1.7242013992	 0.119708
162.9381	203.3751	255.5223	339.6559	417.1438	443.9067	489.1851	541.3374	617.8654	673.132	733.3385	790.8493	802.3555	804.9557	877.4633	880.7706	915.3322	951.1802	983.6358	996.2565	1008.5019	1024.8634	1046.8997	1087.7931	1113.4302	1132.5187	1140.4714	1162.8225	1196.4556	1235.2693	1263.4387	1337.1227	1356.0349	1408.9544	1458.7159	1501.6848	1541.4668	3035.2237	3086.0471	3104.3018	3173.619	3203.9549	3213.9545	3235.623	3725.9386
OC12CC3C(C13)C21CO1	O[C@]12C[C@H]3[C@H]([C@@H]13)[C@]12CO1	
InChI=1S/C7H8O2/c8-6-1-3-4(6)5(3)7(6)2-9-7/h3-5,8H,1-2H2	InChI=1S/C7H8O2/c8-6-1-3-4(6)5(3)7(6)2-9-7/h3-5,8H,1-2H2/t3-,4+,5-,6-,7+/m1/s1
