18
gdb 51033	2.21589	1.45169	1.14843	3.4405	78.45	-0.2489	0.0198	0.2687	1146.9819	0.146221	-401.924545	-401.915397	-401.914453	-401.958794	33.823	
O	-0.2336764751	 0.1162871447	-0.6093687382	-0.317962
C	-0.1542317027	 1.119199887	 0.0648021469	 0.149335
N	 1.0016638653	 1.7802168171	 0.3575007811	-0.338114
C	 2.3230349931	 1.2579286561	 0.0256269416	 0.141539
C	 2.5576779341	 0.8641621058	-1.4707609523	-0.224391
C	 3.9209620707	 1.6001398879	-1.4202072636	-0.21986
C	 3.4269467889	 2.3529112789	-0.1573701022	-0.268833
C	 2.7414249818	 0.2109516527	 0.9563563356	 0.359768
C	 3.1061440983	-0.6335157327	 1.7303558099	-0.494135
H	-1.0375395185	 1.6332604527	 0.4958028974	 0.077262
H	 0.9593709305	 2.5044785279	 1.0593981123	 0.246482
H	 2.5397461881	-0.2003049097	-1.697051005	 0.126566
H	 1.8339638175	 1.3787248445	-2.1048516104	 0.119436
H	 4.7457854138	 0.921884037	-1.1907020696	 0.119047
H	 4.1953819514	 2.2080236362	-2.2837132161	 0.1051
H	 2.9597601895	 3.308368185	-0.4117504912	 0.106438
H	 4.1211232025	 2.4920498434	 0.6727147282	 0.112501
H	 3.4115006508	-1.3924966545	 2.4075754355	 0.19982
49.972	116.5818	145.1486	169.4965	187.2547	264.2457	323.4828	420.2223	499.6606	511.3448	549.8025	598.3301	619.2414	656.1217	689.4196	773.9769	838.9625	870.1321	914.4853	940.3377	965.5874	1029.1879	1058.1627	1067.7496	1112.8667	1185.967	1202.2909	1222.5267	1254.9429	1272.3322	1279.1498	1297.0017	1429.4472	1467.4008	1481.0782	1496.9028	1500.7956	1807.7194	2230.8062	2925.3752	3062.6455	3075.0738	3093.9329	3120.7872	3134.3053	3161.6768	3501.2722	3608.5888
O=CNC1(CCC1)C#C	O=CNC1(CCC1)C#C	
InChI=1S/C7H9NO/c1-2-7(8-6-9)4-3-5-7/h1,6H,3-5H2,(H,8,9)	InChI=1S/C7H9NO/c1-2-7(8-6-9)4-3-5-7/h1,6H,3-5H2,(H,8,9)
