17
gdb 82018	2.57563	1.46041	1.30235	1.6537	74.29	-0.2524	0.0206	0.2731	1047.485	0.133971	-421.75427	-421.745614	-421.74467	-421.787153	33.595	
O	 0.0535657719	 1.3897018514	 0.178416223	-0.438971
C	-0.0676741822	 0.0011210408	 0.085147643	 0.06605
C	-1.4603477089	-0.639792096	 0.0447283961	-0.056992
C	-2.2192865201	-0.1779557499	-1.1614854967	-0.308319
C	-1.1670307161	-1.2354473066	-1.3415054403	-0.069225
C	 0.2245056244	-0.5999601235	-1.3636668405	 0.16999
O	 0.3592349938	 0.4138921545	-2.3593255556	-0.47315
C	 1.3282675544	-1.5420473537	-1.4071180161	 0.233307
C	 2.2629406012	-2.298157979	-1.4432185799	-0.419619
H	-0.0024649404	 1.7212706093	-0.7291747954	 0.287093
H	 0.5713861542	-0.4564860263	 0.8440802861	 0.093856
H	-1.9464770168	-1.1136999254	 0.8878171794	 0.088882
H	-3.2388547882	-0.5414846098	-1.2345357322	 0.116602
H	-2.0763921327	 0.8191513937	-1.563834291	 0.120703
H	-1.3860552143	-2.222401914	-1.7268141261	 0.096323
H	 1.3003960308	 0.5495032661	-2.5163295809	 0.292377
H	 3.082992769	-2.9726677017	-1.473828143	 0.201093
101.0631	144.5582	158.223	226.4399	270.1549	292.5467	409.8646	466.2105	481.7643	500.11	555.2164	608.3908	618.1286	648.3951	671.5823	769.1124	797.4729	852.0248	933.7948	950.3495	996.2378	1007.9779	1054.0279	1058.9219	1073.8621	1081.3731	1137.0151	1151.9334	1196.5733	1220.4152	1276.8184	1323.8307	1352.9649	1383.4488	1430.4019	1497.834	2231.3572	3084.6366	3134.0096	3192.9603	3203.264	3217.1148	3499.4927	3733.6103	3810.8029
OC1C2CC2C1(O)C#C	O[C@H]1[C@H]2C[C@H]2[C@]1(O)C#C	
InChI=1S/C7H8O2/c1-2-7(9)5-3-4(5)6(7)8/h1,4-6,8-9H,3H2	InChI=1S/C7H8O2/c1-2-7(9)5-3-4(5)6(7)8/h1,4-6,8-9H,3H2/t4-,5+,6-,7+/m0/s1
