15
gdb 13741	3.10591	1.67044	1.36802	3.5329	68.33	-0.244	0.0166	0.2606	938.1586	0.117768	-362.650747	-362.642539	-362.641595	-362.683548	30.34	
N	 0.1086266552	 1.0620871268	 0.6156991594	-0.536111
C	 0.0646637007	 0.0126493801	-0.2644445771	 0.415239
O	 0.9790638463	-0.2434888129	-1.0226991614	-0.360129
C	-1.2171086122	-0.770071769	-0.2323250206	-0.129657
C	-1.485347831	-1.7108136077	-1.3717253556	-0.287206
C	-1.1500751269	-2.2944406542	-0.0211409629	-0.191902
C	 0.0868759296	-2.9740876616	 0.2262234158	 0.361237
C	 1.0978824335	-3.5783000214	 0.4668893216	-0.46996
H	 0.9976564974	 1.5238934388	 0.7256397554	 0.260976
H	-0.5443492493	 1.1251460049	 1.3780945636	 0.256233
H	-2.0648527258	-0.2832430174	 0.239083065	 0.090103
H	-2.5025253187	-1.813289101	-1.7305815245	 0.119029
H	-0.7029017579	-1.7496366796	-2.1201010243	 0.158133
H	-1.9924143394	-2.6874010441	 0.5419210589	 0.117364
H	 2.0033973885	-4.0981769518	 0.6578994668	 0.19665
55.9624	110.8107	182.2644	258.0547	271.5008	321.423	419.9267	493.672	519.5089	580.9106	600.5669	629.7179	650.1517	743.285	768.8565	810.0891	855.5889	918.3281	1010.7088	1050.9439	1086.1856	1115.1405	1123.8879	1148.0835	1221.4537	1282.7096	1384.2204	1432.3432	1471.351	1619.7335	1796.9371	2241.9929	3140.1052	3146.4537	3160.5783	3247.4618	3507.3745	3592.4701	3723.6093
NC(=O)C1CC1C#C	NC(=O)[C@H]1C[C@H]1C#C	
InChI=1S/C6H7NO/c1-2-4-3-5(4)6(7)8/h1,4-5H,3H2,(H2,7,8)	InChI=1S/C6H7NO/c1-2-4-3-5(4)6(7)8/h1,4-5H,3H2,(H2,7,8)/t4-,5+/m1/s1
