18
gdb 120721	3.05558	0.83373	0.77022	2.3147	68.76	-0.2524	0.0099	0.2623	1509.332	0.146306	-476.227917	-476.218209	-476.217265	-476.263361	34.741	
N	 0.710416099	-0.3095620189	 0.4476485294	-0.518327
C	-0.1470054214	 0.5765722876	-0.1309061286	 0.35552
O	 0.1829598103	 1.6272901607	-0.6431116016	-0.35649
C	-1.5978393158	 0.152343758	-0.0926608307	-0.052137
O	-1.9137956807	-1.1175269822	 0.4885135022	-0.267922
C	-2.3864297999	 0.0669224937	 1.1531160229	 0.073628
C	-1.8596857887	 0.3661182841	 2.533188924	-0.254816
C	-2.4672954004	-0.5628414804	 3.5928334793	-0.056963
O	-2.0657875378	-0.2209573298	 4.9074693416	-0.415238
H	 1.699564926	-0.1486138869	 0.3505512682	 0.264952
H	 0.3721320588	-1.2249944586	 0.6955236801	 0.271403
H	-2.1250017469	 0.3936618023	-1.0141532792	 0.122213
H	-3.4627930699	 0.2100681314	 1.0372640447	 0.105607
H	-0.7682800166	 0.2787507735	 2.5448797682	 0.105592
H	-2.108433613	 1.4028844994	 2.7892850425	 0.123974
H	-3.5595743579	-0.4765019557	 3.5848249589	 0.114327
H	-2.223887049	-1.6086926388	 3.3512748954	 0.101711
H	-1.1154744461	-0.3589174595	 4.9729065028	 0.282967
61.1817	76.8756	100.4285	130.7355	200.9638	261.3181	304.07	360.0225	362.5269	446.5359	459.9066	511.7415	546.767	641.2278	746.192	781.1112	816.1811	848.4159	938.6812	999.3905	1025.9333	1072.8274	1087.6473	1093.0165	1121.6202	1143.0227	1204.5828	1270.5557	1297.7038	1321.3668	1343.3225	1389.6977	1403.6421	1423.8347	1469.0771	1481.9472	1515.0119	1596.489	1807.258	2991.9518	3042.4875	3064.5879	3084.7273	3101.7761	3136.3762	3590.6215	3729.04	3816.6586
NC(=O)C1OC1CCO	NC(=O)[C@H]1O[C@H]1CCO	
InChI=1S/C5H9NO3/c6-5(8)4-3(9-4)1-2-7/h3-4,7H,1-2H2,(H2,6,8)	InChI=1S/C5H9NO3/c6-5(8)4-3(9-4)1-2-7/h3-4,7H,1-2H2,(H2,6,8)/t3-,4-/m0/s1
