15
gdb 133485	2.76043	0.97257	0.84175	1.263	62.53	-0.2562	0.0365	0.2927	1372.1928	0.107447	-548.287234	-548.277377	-548.276433	-548.32425	33.627	
C	 0.0114192669	 1.4823679935	 0.0214408273	-0.4998
C	 0.0185265577	 0.0275694099	 0.0064303146	 0.084886
C	 0.0267910759	-1.1748773984	-0.0015676649	 0.104563
C	 0.0236911194	-2.6345605146	-0.0248776851	-0.30819
N	-1.3222550853	-3.1661493692	 0.1829158599	-0.502929
C	 0.6701894079	-3.1457857062	-1.3282105099	 0.270603
F	 1.9262556596	-2.7131214476	-1.4693695759	-0.067162
F	 0.7014472274	-4.4919816744	-1.321420504	-0.084746
F	-0.0264173661	-2.7670968228	-2.4071869629	-0.076772
H	 0.8773394863	 1.8760607539	 0.5643239575	 0.154461
H	 0.0409607506	 1.8889740181	-0.9950525428	 0.154714
H	-0.8909065481	 1.8662233918	 0.5093058254	 0.15513
H	 0.6661277359	-3.0163717078	 0.7798784368	 0.134095
H	-1.9358635311	-2.8165979102	-0.5474395245	 0.241402
H	-1.299640937	-4.178595296	 0.0982113885	 0.239747
15.0067	59.8783	80.7563	146.6562	227.2902	250.3683	291.6526	314.8004	357.4156	400.007	429.9549	522.1763	533.5608	596.8721	689.6682	787.9627	824.4003	922.7762	1052.5255	1053.4008	1074.9099	1152.6874	1188.5644	1199.5462	1223.4686	1272.5565	1359.9336	1406.7697	1413.9361	1476.0411	1476.887	1656.9627	2383.6761	3027.706	3031.3085	3094.521	3094.9575	3493.0051	3579.0972
CC#CC(N)C(F)(F)F	CC#C[C@@H](N)C(F)(F)F	
InChI=1S/C5H6F3N/c1-2-3-4(9)5(6,7)8/h4H,9H2,1H3	InChI=1S/C5H6F3N/c1-2-3-4(9)5(6,7)8/h4H,9H2,1H3/t4-/m1/s1
