22
gdb 96086	2.52416	1.51013	1.1569	1.2843	83.47	-0.2013	0.0848	0.2861	1172.6852	0.194005	-404.323445	-404.31444	-404.313496	-404.356735	35.068	
C	 0.0722066896	 1.4182926868	-0.1168124254	-0.326221
N	-0.0475440701	-0.0128084178	 0.0702880029	-0.064095
C	-1.4081670141	-0.5218987486	 0.0220531615	-0.154642
C	-1.355769489	-2.0444884272	 0.039446723	-0.082809
O	-0.8023850516	-2.5463710659	 1.2462390097	-0.300274
C	 0.3019407148	-1.8565119026	 1.7715842433	 0.413329
C	 0.3621326055	-2.0904554601	 3.2615749548	-0.436741
C	 1.5984032565	-1.7205088715	 1.0040253744	-0.363466
C	 0.6861005935	-0.5115779169	 1.2105257842	-0.048738
H	 1.1290170487	 1.6957460734	-0.18205213	 0.122921
H	-0.4117575344	 1.7084990975	-1.0553672644	 0.115616
H	-0.3855491622	 2.0120601768	 0.6978127066	 0.092282
H	-2.0375827419	-0.1642155138	 0.8600575313	 0.080345
H	-1.8774023931	-0.1895056237	-0.9112072687	 0.098925
H	-2.3607066706	-2.471959173	-0.0266485923	 0.105297
H	-0.7751629771	-2.3900787079	-0.8294778698	 0.096017
H	 0.4590711584	-3.1610244799	 3.4708990512	 0.12509
H	 1.2191602822	-1.5761102098	 3.7045189697	 0.112127
H	-0.551474794	-1.7304739803	 3.7452008489	 0.118811
H	 2.529735684	-1.7957283547	 1.5561933525	 0.103604
H	 1.634666448	-2.0925486297	-0.0136010424	 0.115307
H	 0.993454057	 0.2480376989	 1.9295477389	 0.077316
77.4215	146.7718	211.0322	217.162	259.5487	280.0081	354.8864	374.8558	396.6552	412.1227	486.8627	517.4977	617.1299	706.3991	761.8536	849.2996	885.5989	900.1471	922.8099	974.2826	1008.0626	1032.7997	1047.5467	1093.1866	1100.8923	1106.6337	1123.0319	1130.2832	1160.6169	1199.6569	1246.3033	1274.4554	1291.2528	1301.9064	1331.7203	1378.5188	1407.2353	1414.0097	1425.7227	1457.9487	1474.223	1479.7251	1485.118	1499.721	1501.6515	1507.0202	1509.8884	2913.4448	2922.9357	2989.341	3035.637	3053.9583	3056.7253	3083.0017	3089.5974	3101.3616	3102.2523	3118.3328	3127.587	3222.862
CN1CCOC2(C)CC12	CN1CCO[C@@]2(C)C[C@@H]12	
InChI=1S/C7H13NO/c1-7-5-6(7)8(2)3-4-9-7/h6H,3-5H2,1-2H3	InChI=1S/C7H13NO/c1-7-5-6(7)8(2)3-4-9-7/h6H,3-5H2,1-2H3/t6-,7+/m1/s1
