15
gdb 25965	4.96392	0.96049	0.92088	4.0688	68.19	-0.247	-0.0053	0.2418	1277.4828	0.112567	-454.003485	-453.994971	-453.994027	-454.038803	29.222	
C	-0.0734875354	 1.5015174062	 0.0532375013	-0.503562
C	-0.0484125397	 0.0346871002	-0.3393860714	 0.3807
O	 0.7675730024	-0.4535623231	-1.0844626798	-0.323713
N	-1.056798483	-0.7206617454	 0.2503378779	-0.459031
C	-1.1608710434	-2.0932763838	 0.0804434169	 0.391625
C	-2.0129609081	-2.9007220351	-0.5949837549	-0.150878
N	-1.6605719563	-4.2255136396	-0.3826585326	-0.258967
C	-0.6246225275	-4.1516606739	 0.3895922867	 0.090911
O	-0.2550603783	-2.9012612176	 0.7302845325	-0.15465
H	 0.5976530721	 2.0506691318	-0.6058740197	 0.158783
H	-1.0814974538	 1.9226196339	-0.0140151958	 0.134602
H	 0.2713977889	 1.6191622833	 1.0863095311	 0.150046
H	-1.6870231126	-0.2665340154	 0.8936253469	 0.259997
H	-2.8469989173	-2.6209057082	-1.2181855967	 0.130173
H	-0.0266977882	-4.9589886033	 0.7830014377	 0.153964
28.4001	52.6798	82.8644	108.173	313.8908	348.5042	386.4187	423.9935	579.2177	609.0256	657.0711	672.7888	801.7534	847.1142	874.3137	933.3675	946.8168	987.155	1005.0898	1052.3044	1128.8188	1146.5544	1232.2607	1245.149	1282.6559	1346.439	1387.8612	1462.6366	1483.6599	1490.7795	1542.386	1662.2104	1821.632	3043.8152	3106.8538	3165.7554	3268.22	3273.9356	3608.8045
CC(=O)NC1=CN=CO1	CC(=O)Nc1cnco1	
InChI=1S/C5H6N2O2/c1-4(8)7-5-2-6-3-9-5/h2-3H,1H3,(H,7,8)	InChI=1S/C5H6N2O2/c1-4(8)7-5-2-6-3-9-5/h2-3H,1H3,(H,7,8)
