16
gdb 111194	2.90659	1.17036	0.95125	3.5192	69.74	-0.2655	0.0107	0.2762	1216.5511	0.123612	-437.812792	-437.804614	-437.80367	-437.846079	30.045	
O	-0.0020175657	 1.3927561497	-0.3602088857	-0.423925
C	 0.079155924	 0.0420879145	 0.076212727	-0.127451
C	-1.3349412046	-0.4943358602	 0.0826435382	 0.017095
C	-1.9875812781	-0.8537530534	-1.2795431799	 0.045253
O	-1.0829586646	-2.0180788885	-1.3943230049	-0.306211
C	-1.558111637	-2.0281534726	 0.0038725233	 0.017147
C	-3.0006219953	-1.7954004287	-0.551179878	-0.14332
C	-4.0497753383	-1.2587638073	 0.2967221991	 0.26973
N	-4.8882993096	-0.8378037578	 0.9724109144	-0.333067
H	 0.8890334992	 1.7529328638	-0.3912190811	 0.292119
H	 0.7008144958	-0.5664387992	-0.5921061758	 0.112407
H	 0.4967653841	-0.026110332	 1.0934504071	 0.091299
H	-1.973053256	 0.0522288633	 0.78127256	 0.11591
H	-2.1524353843	-0.2420677172	-2.1645362109	 0.121976
H	-1.2145382506	-2.8314476264	 0.6552512603	 0.114469
H	-3.3550535189	-2.613756278	-1.1782738532	 0.136569
75.6053	119.9167	158.0324	212.4844	235.888	305.7291	401.6976	478.7556	535.0333	540.5074	656.3142	745.7338	798.5031	863.6357	896.1351	902.6906	908.1218	1031.4987	1042.1365	1061.7711	1074.934	1107.3509	1131.1245	1148.2225	1183.1234	1185.7102	1231.6421	1258.4584	1261.2688	1271.4296	1343.6085	1403.0508	1465.0578	1522.7695	2354.2453	2976.4264	3044.6724	3094.8989	3121.3478	3129.106	3147.7723	3832.9816
OCC1C2OC1C2C#N	OC[C@H]1[C@H]2O[C@@H]1[C@H]2C#N	
InChI=1S/C6H7NO2/c7-1-3-5-4(2-8)6(3)9-5/h3-6,8H,2H2	InChI=1S/C6H7NO2/c7-1-3-5-4(2-8)6(3)9-5/h3-6,8H,2H2/t3-,4-,5-,6+
