20
gdb 116731	3.01266	0.6144	0.51981	3.3007	88.	-0.2409	0.0254	0.2662	2138.8117	0.167937	-403.116047	-403.104832	-403.103887	-403.154883	37.262	
C	-0.2934718574	 1.0819379967	-0.1858115584	-0.363135
C	-0.2741344873	-0.4165236665	-0.5403472228	-0.314184
C	 0.7400198387	-0.7514153934	-1.5361366486	 0.040683
C	 1.5953482743	-0.9855900924	-2.3532148157	 0.051871
C	 2.6269159986	-1.2907794137	-3.3513704518	-0.26418
N	 2.4588486632	-2.483002581	-4.1751250066	-0.241751
C	 1.4478134877	-3.2127338209	-4.0054786771	 0.146157
O	 1.2845798968	-4.3175984486	-4.7611045171	-0.196418
C	 0.1095588871	-5.0710489641	-4.4905812221	-0.249764
H	 0.6719271084	 1.3971556732	 0.2190124467	 0.129801
H	-0.5014316685	 1.687802135	-1.071759498	 0.129323
H	-1.0651785538	 1.2865348603	 0.5621906767	 0.114839
H	-0.1029917535	-1.0055025783	 0.3699233292	 0.128373
H	-1.2629801136	-0.7159319695	-0.9110432627	 0.126528
H	 2.7318445905	-0.4356551607	-4.0328914413	 0.138182
H	 3.6003910885	-1.3759455495	-2.8495166584	 0.138038
H	 0.6526116538	-3.0308189778	-3.2715492613	 0.088674
H	 0.096148962	-5.4401213573	-3.4576576784	 0.126374
H	-0.797823956	-4.4827160304	-4.6745834956	 0.12619
H	 0.1263945805	-5.9221054412	-5.1725331767	 0.144399
27.3829	46.6606	57.4947	108.8395	141.7169	155.5404	185.8389	217.2345	264.6572	283.0571	374.6605	409.2712	487.5279	514.0144	621.5743	765.9408	787.8121	954.3039	955.4713	1007.4611	1019.5669	1067.0416	1078.9861	1105.2596	1149.9394	1177.6033	1178.1648	1265.1723	1279.8498	1286.394	1347.2309	1351.1715	1405.6366	1409.015	1469.6493	1477.7655	1486.961	1494.2996	1494.5956	1501.4444	1506.0281	1776.5826	2354.8056	3011.2314	3011.569	3018.8777	3028.4476	3044.0838	3045.1107	3045.619	3074.9505	3118.6322	3124.9875	3142.8446
CCC#CCN=COC	CCC#CCN=COC	
InChI=1S/C7H11NO/c1-3-4-5-6-8-7-9-2/h7H,3,6H2,1-2H3	InChI=1S/C7H11NO/c1-3-4-5-6-8-7-9-2/h7H,3,6H2,1-2H3
