20
gdb 79153	4.2744	1.23549	1.13819	1.0884	78.76	-0.2309	0.0745	0.3054	1136.4416	0.1723	-403.090063	-403.082348	-403.081404	-403.12183	31.255	
C	-0.1088424288	 1.5309915046	 0.0033734786	-0.402492
C	 0.0431640128	 0.0147533838	-0.0081278439	 0.078382
C	 0.9107076531	-0.5566695623	-1.1686702378	-0.284406
C	 1.947564956	-1.2850662229	-0.325225636	-0.004349
C	 1.1943107121	-1.8903520661	 0.904452419	-0.058608
C	 2.4095919138	-1.6424675183	 1.8026471479	 0.136034
O	 3.4961355485	-2.5040271416	 1.5898356789	-0.438994
C	 2.2462553618	-0.3855308788	 0.9147523644	-0.090352
N	 0.7472602316	-0.4640386979	 1.2150289172	-0.146095
H	 0.8681751003	 2.0271183588	-0.009245097	 0.112251
H	-0.6647634466	 1.8704583295	-0.8764441544	 0.113023
H	-0.643376225	 1.8591678866	 0.8992744599	 0.123774
H	-0.9522421112	-0.4444759383	-0.0024221652	 0.073434
H	 0.3559408264	-1.2305165045	-1.829120806	 0.097846
H	 1.3542468316	 0.2292784053	-1.7898246283	 0.095999
H	 2.7487905373	-1.8404215388	-0.8116721983	 0.079928
H	 0.4875788984	-2.7230237102	 0.9247112965	 0.075548
H	 2.1805879707	-1.4920590712	 2.8631068117	 0.080254
H	 4.2338226305	-2.1943083182	 2.1237381912	 0.287423
H	 2.7887605568	 0.5618253507	 0.9539182517	 0.071399
136.8026	207.8655	229.1508	255.9702	290.8272	319.0043	411.4237	490.6317	554.2923	688.7112	723.9071	751.0976	805.0273	823.7489	843.0399	915.3413	922.6925	936.1936	954.6662	968.1582	1003.6731	1052.4146	1085.4698	1089.22	1106.5531	1121.6341	1149.3222	1156.4836	1183.7414	1195.1979	1220.2945	1236.9952	1255.8196	1285.2215	1296.5069	1320.4866	1337.0072	1375.2514	1409.6788	1436.7484	1491.7335	1496.4251	1503.0333	3031.4224	3034.7227	3043.308	3052.5505	3084.3025	3084.4673	3092.3029	3100.4721	3115.0774	3127.5455	3827.1786
CC1CC2C3C(O)C2N13	C[C@H]1C[C@@H]2[C@H]3[C@@H](O)[C@@H]2N13	
InChI=1S/C7H11NO/c1-3-2-4-5-7(9)6(4)8(3)5/h3-7,9H,2H2,1H3	InChI=1S/C7H11NO/c1-3-2-4-5-7(9)6(4)8(3)5/h3-7,9H,2H2,1H3/t3-,4-,5+,6-,7-/m0/s1
