16
gdb 47700	2.26429	1.66247	1.04807	5.7347	66.35	-0.2573	-0.0066	0.2507	1098.0101	0.125552	-475.082736	-475.074679	-475.073735	-475.116227	29.447	
O	 0.0997078892	-0.0726791407	-0.1074446757	-0.345025
C	 0.033646344	 1.1358499586	-0.0351799289	 0.366926
C	-1.2963057763	 1.8717322205	 0.1492512705	-0.430514
C	-1.5402293271	 2.6485223205	 1.4418398176	 0.387606
O	-2.5328347446	 2.4807044414	 2.0924619204	-0.292395
O	-0.692604957	 3.6458626181	 1.8098855211	-0.227101
C	 0.6972806779	 3.7528152789	 1.4880630805	-0.051844
C	 1.1171335632	 3.3761463882	 0.070579319	-0.203624
N	 1.1265027704	 1.9453970394	-0.1648945325	-0.290915
H	-1.425469519	 2.578099344	-0.6810189285	 0.145868
H	-2.0843556456	 1.1245289419	 0.090303177	 0.166041
H	 0.9298587942	 4.8067667088	 1.6663332194	 0.130677
H	 1.268800419	 3.1493006839	 2.2041726559	 0.125006
H	 0.4857940313	 3.8963727378	-0.6616031894	 0.131293
H	 2.1357719691	 3.744301075	-0.0783841891	 0.131733
H	 2.0070615714	 1.4639070538	-0.2666208473	 0.256268
57.4004	97.1446	108.622	306.4908	316.4326	392.1048	437.1509	458.6611	515.9397	548.5984	599.8473	638.6849	672.0959	824.0496	865.2904	905.9482	963.2946	982.9729	1063.7512	1100.8839	1145.754	1155.1311	1231.2346	1275.0311	1296.0124	1309.2709	1361.9744	1404.8153	1429.7021	1454.6517	1463.2848	1492.0574	1498.9005	1808.4993	1841.7016	3024.0992	3034.5144	3040.2183	3094.2997	3100.5614	3168.2559	3625.5759
O=C1CC(=O)OCCN1	O=C1CC(=O)OCCN1	
InChI=1S/C5H7NO3/c7-4-3-5(8)9-2-1-6-4/h1-3H2,(H,6,7)	InChI=1S/C5H7NO3/c7-4-3-5(8)9-2-1-6-4/h1-3H2,(H,6,7)
