16
gdb 49340	2.30949	1.7859	1.02919	2.0867	74.26	-0.2574	-0.0337	0.2237	1104.9574	0.125593	-434.11808	-434.109958	-434.109014	-434.151463	29.522	
N	 0.1228002801	 1.2692158576	 0.2078987478	-0.394383
C	 0.0139503655	 0.0473077974	-0.0976133482	 0.062347
N	-1.1913429081	-0.6621694798	 0.0145274279	-0.154888
C	-1.2211850423	-2.0752869598	 0.0946454404	 0.385598
N	-0.2664532503	-2.8835019126	 0.2931980556	-0.525561
C	-2.6602565875	-2.513760375	-0.0925840387	-0.291688
C	-3.4858475263	-1.2380703052	 0.1034139138	-0.342245
C	-2.4939267837	-0.0903401704	-0.0490336708	 0.416717
O	-2.7417532055	 1.07069015	-0.200941682	-0.310173
H	 1.0696765886	 1.591925936	 0.0093645256	 0.239141
H	 0.8166112262	-0.5860158953	-0.4924126831	 0.111265
H	 0.6327647287	-2.4226373394	 0.4278394003	 0.219947
H	-2.7734912046	-2.9095945911	-1.107272583	 0.143798
H	-2.8980060919	-3.321568522	 0.5996676666	 0.144535
H	-4.303761677	-1.1077656149	-0.6064577777	 0.14532
H	-3.9147905519	-1.1733235357	 1.1092064955	 0.150268
70.0048	103.5226	120.1333	200.765	244.5662	374.9556	472.0735	531.0923	545.4467	576.1576	624.5637	684.2686	724.3622	815.7648	837.5138	877.0302	972.1277	1020.543	1034.9752	1061.5988	1081.627	1138.9626	1158.8398	1199.7494	1235.1305	1279.4606	1302.9748	1321.3247	1388.6827	1429.0272	1463.8312	1482.2583	1722.2784	1747.1153	1876.009	3047.6133	3060.8801	3063.1695	3125.0772	3134.7507	3488.1066	3490.6154
N=CN1C(=N)CCC1=O	[NH][CH]N1[C]([NH])CCC1=O	
InChI=1S/C5H7N3O/c6-3-8-4(7)1-2-5(8)9/h3,6-7H,1-2H2	InChI=1S/C5H7N3O/c6-3-8-4(7)1-2-5(8)9/h3,6-7H,1-2H2
