21
gdb 106961	3.35904	1.03472	0.96295	2.2549	78.96	-0.2434	0.069	0.3124	1320.1203	0.180545	-424.193266	-424.183643	-424.182699	-424.227374	36.954	
C	-0.1154145069	 1.5750574099	 0.1268628811	-0.45243
C	 0.062769827	 0.0671770868	 0.0122530783	 0.421464
O	-1.192301769	-0.5725052881	-0.1802900651	-0.479734
C	 1.1473993217	-0.4832216634	-0.9876999455	-0.370315
C	 1.7801013521	-1.2813922542	 0.1681687715	 0.354853
C	 2.2909922738	-2.687330271	 0.0645820528	-0.189796
O	 3.5774242599	-2.77918075	-0.5411276687	-0.413932
C	 2.2241977327	-0.3225740806	 1.2347529841	-0.338402
C	 0.7661855906	-0.6830549068	 1.1489745532	-0.127345
H	 0.8306285106	 2.0823946737	 0.3346623794	 0.118397
H	-0.5100546292	 1.9890553597	-0.8101285743	 0.10441
H	-0.821571479	 1.8116635157	 0.928690429	 0.125656
H	-1.6163730514	-0.1640015745	-0.9430953072	 0.272785
H	 0.6699807719	-1.1171838558	-1.7394830368	 0.098823
H	 1.7956051502	 0.2493178739	-1.4817840504	 0.086111
H	 2.4074695457	-3.1140275234	 1.0668923273	 0.107301
H	 1.5595366501	-3.3122036148	-0.4728618827	 0.089359
H	 3.5025255131	-2.4315854354	-1.435522898	 0.281674
H	 2.7566203844	-0.7707852806	 2.0679555859	 0.116799
H	 2.5743964994	 0.6741243059	 0.9769071818	 0.103187
H	 0.2320294223	-1.1629957473	 1.9606608844	 0.091133
71.359	102.42	184.5916	237.8381	252.9201	270.4488	297.1557	334.2117	355.2576	404.087	426.0448	455.4218	493.0649	626.8198	716.9667	796.9712	845.9412	893.6187	900.861	927.5701	950.3	968.5182	993.9307	1019.299	1037.5877	1054.6187	1084.6917	1108.3393	1120.9686	1160.2995	1174.0996	1225.6044	1250.6265	1260.7269	1310.7419	1371.9333	1380.2926	1395.0324	1407.3449	1427.8008	1468.2919	1487.741	1492.4396	1494.6917	1507.164	2973.9477	3021.6811	3032.3097	3066.0594	3089.8823	3100.3529	3107.9697	3118.5806	3181.9824	3196.9701	3797.5387	3816.0173
CC1(O)CC2(CO)CC12	C[C@@]1(O)C[C@@]2(CO)C[C@@H]12	
InChI=1S/C7H12O2/c1-6(9)3-7(4-8)2-5(6)7/h5,8-9H,2-4H2,1H3	InChI=1S/C7H12O2/c1-6(9)3-7(4-8)2-5(6)7/h5,8-9H,2-4H2,1H3/t5-,6+,7+/m0/s1
