21
gdb 63585	3.04933	1.27991	1.09384	1.2882	78.88	-0.2405	0.082	0.3225	1200.5124	0.18158	-424.215617	-424.206396	-424.205452	-424.249713	34.582	
C	-0.0127636151	 1.512815843	-0.0395351185	-0.454582
C	-0.0274948722	-0.0022224314	 0.0536865408	 0.234155
C	-1.3018405004	-0.6487278187	-0.4570964311	-0.447478
C	 1.2887088588	-0.742963853	-0.1731414595	-0.399415
C	 0.6805429268	-0.6513514683	 1.2044007197	 0.382819
C	 1.354814107	 0.0683279158	 2.3790994284	-0.158749
O	 1.2849024466	-0.8714125817	 3.4493834916	-0.250556
C	 0.9343258486	-2.1062971402	 2.8681655086	 0.011696
O	 0.1066126747	-1.8102861207	 1.770708551	-0.27134
H	 0.9273068085	 1.940241446	 0.3226699956	 0.114441
H	-0.1393651551	 1.8321442101	-1.0803550827	 0.118986
H	-0.8289686048	 1.9545894274	 0.5438380177	 0.119967
H	-1.4431349093	-0.4266601485	-1.5210013673	 0.111947
H	-1.2810016323	-1.7324088081	-0.3285519471	 0.132585
H	-2.1758697492	-0.2670795564	 0.0827918322	 0.11681
H	 1.2420509031	-1.7078923443	-0.6670368625	 0.11653
H	 2.1809665505	-0.1606511687	-0.3864859121	 0.105124
H	 2.3974777682	 0.3273632358	 2.1519385555	 0.102566
H	 0.8267282313	 0.9760056057	 2.6896849824	 0.114512
H	 1.837086671	-2.6521694421	 2.5370547133	 0.081619
H	 0.3724386334	-2.7016169216	 3.592788234	 0.118364
46.1444	157.5817	167.4196	195.5546	210.0725	239.6474	288.0519	358.7794	403.7085	425.7384	486.4173	552.5979	706.791	745.9241	811.4018	888.8334	908.8146	928.2331	963.4986	974.1287	986.8199	1031.8675	1040.2143	1044.2521	1098.296	1111.706	1156.192	1166.8359	1184.0669	1210.9331	1225.8036	1239.0213	1300.6433	1356.3568	1400.3201	1410.2118	1423.6383	1435.0443	1480.8022	1483.5746	1490.5245	1501.5206	1515.0228	1526.4131	1541.2497	2932.1006	3009.7298	3023.4798	3030.5771	3062.2945	3083.9905	3087.4862	3094.6074	3099.6885	3116.8775	3131.9502	3210.7684
CC1(C)CC11COCO1	CC1(C)C[C@]21COCO2	
InChI=1S/C7H12O2/c1-6(2)3-7(6)4-8-5-9-7/h3-5H2,1-2H3	InChI=1S/C7H12O2/c1-6(2)3-7(6)4-8-5-9-7/h3-5H2,1-2H3/t7-/m1/s1
