19
gdb 62584	3.30522	1.53311	1.36309	2.5149	74.1	-0.2362	0.0497	0.2859	1009.6351	0.159788	-422.960089	-422.952596	-422.951652	-422.99146	30.932	
C	-0.0057452398	 1.4928220751	-0.0207875047	-0.424944
C	 0.0112758724	-0.0225923204	 0.0031602771	 0.398996
O	-1.1622981251	-0.4864993871	 0.6091243156	-0.483288
C	 0.683212111	-0.6485755537	-1.1972455213	-0.135531
C	 1.3563757888	-0.646445077	 0.225361331	-0.160034
C	 1.3187570715	-2.1848871703	 0.194274082	 0.098596
O	 0.1216763906	-2.845532331	 0.7299765784	-0.329952
C	-0.4214040254	-3.0181035747	-0.6218286831	-0.121471
C	 0.7319123134	-2.1931937658	-1.2225992579	-0.084542
H	 0.8758542074	 1.9012865613	-0.5222953526	 0.111621
H	-0.8996615156	 1.8417607515	-0.546521358	 0.128485
H	-0.0416851992	 1.8809358521	 1.0012648442	 0.124726
H	-0.9407513943	-1.3288364893	 1.0346078652	 0.29697
H	 0.9452189826	-0.0438691261	-2.0586268766	 0.086325
H	 2.2035383821	-0.0769535415	 0.5936313367	 0.082319
H	 2.23474336	-2.703009083	 0.4843356789	 0.089573
H	-0.4002628795	-4.0769695744	-0.9016845807	 0.108448
H	-1.4352529262	-2.6218456611	-0.7087667602	 0.129312
H	 1.279022935	-2.6131000146	-2.0649600442	 0.084392
182.2895	212.9105	226.8358	266.6327	339.1346	387.7161	402.4526	554.4146	590.1104	665.5651	672.2493	708.3752	757.3097	813.4892	868.8172	872.5191	896.0134	911.2459	948.9347	973.157	990.6193	1013.3819	1025.9449	1062.4736	1068.1991	1113.5842	1120.8046	1167.6754	1196.5344	1225.3837	1267.0901	1272.7531	1296.8404	1309.1491	1349.2875	1387.9769	1415.5889	1459.4826	1481.2583	1502.8722	1507.5069	3040.3711	3042.258	3091.0252	3112.1673	3113.1516	3121.1483	3126.0227	3157.3507	3169.9364	3680.9665
CC1(O)C2C1C1OCC21	C[C@@]1(O)[C@H]2[C@@H]1[C@H]1OC[C@@H]21	
InChI=1S/C7H10O2/c1-7(8)4-3-2-9-6(3)5(4)7/h3-6,8H,2H2,1H3	InChI=1S/C7H10O2/c1-7(8)4-3-2-9-6(3)5(4)7/h3-6,8H,2H2,1H3/t3-,4+,5+,6-,7+/m0/s1
