17
gdb 79888	2.48406	1.75625	1.43748	2.4397	67.58	-0.2306	0.058	0.2886	959.9795	0.13516	-458.875395	-458.867552	-458.866608	-458.907269	30.824	
O	 0.0371829067	 1.3910171623	-0.1487075835	-0.412236
C	-0.0938200594	 0.005359343	-0.0075989763	 0.022637
C	-0.4475907663	-0.7523896675	 1.2487974789	-0.199219
C	-1.5667863628	-0.1174367526	 2.0999639108	-0.080732
C	-1.8130927397	 1.4154036832	 2.1137731227	-0.088133
O	-2.6548390076	 1.3291146626	 0.9324456924	-0.293231
C	-2.497743847	-0.1007416923	 0.8827172519	 0.054361
C	-1.3919416848	-0.7140142788	-0.009291005	 0.31637
O	-1.6667397566	-1.7270192234	-0.9116320442	-0.456194
H	 0.9039660958	 1.6353481578	 0.1939964268	 0.286597
H	 0.6343399944	-0.5619977478	-0.5943703182	 0.095739
H	 0.1949571857	-1.5500371299	 1.6045625234	 0.094748
H	-1.8168623727	-0.6719847194	 3.0026039154	 0.084206
H	-2.3955447166	 1.7541665349	 2.9790655729	 0.09616
H	-0.9539007842	 2.0701200462	 1.9590292603	 0.100267
H	-3.4410260374	-0.6515094163	 0.8285246639	 0.086553
H	-1.6472634474	-1.355841332	-1.8010804623	 0.292107
154.9641	186.3346	226.4207	270.0593	297.5249	320.6294	361.0684	377.0352	525.2314	595.9957	663.4245	718.1332	775.7506	833.624	867.7555	882.8856	910.2374	963.631	984.992	993.5699	1016.3176	1048.9896	1092.3601	1130.8592	1155.5081	1189.2119	1199.1793	1222.0329	1252.3901	1273.8285	1295.0772	1314.1444	1337.625	1354.0699	1362.1888	1496.6081	1507.4895	3027.6235	3065.8739	3074.6244	3111.8171	3126.4898	3175.2617	3790.4815	3799.2637
OC1C2C3COC3C12O	O[C@H]1[C@H]2[C@H]3CO[C@H]3[C@@]12O	
InChI=1S/C6H8O3/c7-4-3-2-1-9-5(2)6(3,4)8/h2-5,7-8H,1H2	InChI=1S/C6H8O3/c7-4-3-2-1-9-5(2)6(3,4)8/h2-5,7-8H,1H2/t2-,3-,4+,5-,6+/m1/s1
