17
gdb 82412	2.45284	1.8426	1.21309	4.6381	67.97	-0.2676	0.0119	0.2795	1022.8526	0.136174	-458.985824	-458.977912	-458.976968	-459.018586	29.592	
C	-0.0943253112	 1.5679763807	-0.0617483732	-0.39168
C	 0.3159896787	 0.0945793187	 0.043677719	-0.195479
C	 0.9500492416	-0.4238971607	-1.2276312886	 0.061313
O	 2.3698259144	-0.2354257216	-1.3516914708	-0.249543
C	 1.8676376671	-1.5534732237	-1.1375434624	 0.016321
C	 2.1166313748	-2.1559911561	 0.2218343457	-0.107366
O	 2.0160743771	-1.2238695126	 1.2963424729	-0.231422
C	 1.2157857691	-0.128698866	 1.2645794292	 0.437228
O	 1.2200490818	 0.6088801415	 2.2103462681	-0.320918
H	 0.7786996679	 2.1932634536	-0.2680473662	 0.141254
H	-0.8164993686	 1.7025470573	-0.8727703723	 0.109709
H	-0.5401925271	 1.9088890975	 0.8728786551	 0.145954
H	-0.5863056172	-0.5121350631	 0.2215899749	 0.115493
H	 0.3912329511	-0.2505079155	-2.1467928415	 0.102383
H	 1.9817756267	-2.2431650189	-1.9738119854	 0.107141
H	 1.4094717814	-2.9824015863	 0.3806905756	 0.121036
H	 3.1290367921	-2.5658313149	 0.2894192799	 0.138578
62.9859	142.1381	203.5249	224.5136	293.5439	324.4627	440.4301	465.9269	538.5392	565.4391	666.1921	738.2867	785.1452	836.1351	884.9907	918.8952	949.9493	1017.537	1036.3757	1064.3884	1106.8563	1130.5741	1137.9538	1151.4019	1208.2654	1255.9767	1285.7281	1312.1969	1332.3242	1377.2	1408.8054	1425.7087	1489.4075	1494.5155	1500.869	1507.6051	1844.8875	2991.5759	3013.752	3049.8034	3082.2359	3112.0595	3118.8076	3124.0981	3151.6671
CC1C2OC2COC1=O	C[C@H]1[C@H]2O[C@H]2COC1=O	
InChI=1S/C6H8O3/c1-3-5-4(9-5)2-8-6(3)7/h3-5H,2H2,1H3	InChI=1S/C6H8O3/c1-3-5-4(9-5)2-8-6(3)7/h3-5H,2H2,1H3/t3-,4-,5+/m0/s1
