18
gdb 100420	4.69687	0.71121	0.62541	8.1766	73.48	-0.2322	0.028	0.2602	1724.4499	0.147025	-472.44852	-472.4384	-472.437456	-472.484786	35.409	
C	 0.0811925796	 1.4140099983	-0.1780994647	-0.33471
N	-0.0908700662	 0.0368803543	 0.2536893094	-0.331506
C	-1.2725241239	-0.6558373194	 0.1051191747	 0.452475
N	-2.4117733232	 0.1217526887	 0.0430361685	-0.555966
N	-1.2406901954	-1.9383085754	 0.0171462485	-0.356213
H	-0.4170051311	-3.5704574272	-0.004023375	 0.298579
C	-2.4693051506	-2.6977595414	-0.0318100926	-0.320147
C	-2.1494312305	-4.2025603021	-0.044801984	 0.416008
O	-0.8386246452	-4.4615628667	-0.0255031756	-0.361039
O	-2.9992833037	-5.0522564671	-0.0717268514	-0.347895
H	 1.1402124103	 1.6666733688	-0.1007489257	 0.14301
H	-0.245400644	 1.5907525557	-1.2115466289	 0.136961
H	-0.4561371322	 2.1103307716	 0.4768900134	 0.12785
H	 0.7042433878	-0.5697669179	 0.1258455754	 0.251166
H	-2.378858966	 1.0252369665	 0.488679568	 0.259492
H	-3.2810048418	-0.3658458514	 0.1891279358	 0.269828
H	-3.1310766861	-2.5275091899	 0.8332317559	 0.121098
H	-3.0704310978	-2.4969892054	-0.9321151217	 0.13101
47.6394	68.467	84.4585	121.8225	156.4953	217.1099	278.8659	301.2767	384.6849	401.644	506.915	531.7023	583.9179	588.4384	625.6037	683.136	742.5349	829.2662	878.4332	925.5094	1006.63	1033.0075	1123.4544	1145.0081	1155.3035	1221.5495	1226.1859	1231.9742	1339.049	1426.4211	1454.4372	1464.1616	1467.3594	1490.8351	1500.8148	1520.1292	1648.6875	1739.2892	1874.6126	2967.8964	3003.9803	3008.8409	3058.9637	3130.3039	3417.8192	3593.5255	3630.5188	3697.9404
CNC(N)=[NH+]CC([O-])=O	CNC(=NCC(=O)O)N	
InChI=1S/C4H9N3O2/c1-6-4(5)7-2-3(8)9/h2H2,1H3,(H,8,9)(H3,5,6,7)	InChI=1S/C4H9N3O2/c1-6-4(5)7-2-3(8)9/h2H2,1H3,(H,8,9)(H3,5,6,7)
