17
gdb 106488	2.66572	1.68055	1.27484	3.8902	67.7	-0.2411	-0.0306	0.2105	1006.3536	0.136126	-458.951334	-458.943674	-458.94273	-458.983481	29.821	
O	 0.0535708123	 1.4123363125	-0.1888646096	-0.417275
C	 0.0349464888	 0.0047983439	-0.1005404743	-0.187619
C	-1.3589734304	-0.5599526685	-0.0164187154	 0.284249
C	-1.7149235743	-2.0546246324	 0.186802912	-0.294765
C	-3.0035172353	-1.5419071348	-0.4924121748	 0.071369
C	-3.6630479182	-0.6308951346	 0.5615336998	-0.336653
C	-2.3719806238	 0.1288567948	 0.9188456068	 0.427721
O	-2.1848723361	 1.0403161894	 1.6822183921	-0.352016
O	-2.1879300943	-0.577663419	-1.2372892922	-0.323635
H	-0.4154849404	 1.7458048277	 0.5872166221	 0.300544
H	 0.5332032714	-0.3823130617	-0.9949143833	 0.124069
H	 0.5945444868	-0.3660452158	 0.7756851349	 0.097028
H	-1.1247781437	-2.6923504215	-0.4733151718	 0.125745
H	-1.7666254608	-2.4617667794	 1.2004573627	 0.110317
H	-3.6354294495	-2.1680393075	-1.1196752576	 0.096669
H	-4.4123765502	 0.0349470634	 0.1272041227	 0.144767
H	-4.0959730822	-1.1422506467	 1.4262154957	 0.129487
105.8127	136.2019	187.0794	266.7069	391.6633	414.9118	446.9098	497.0746	532.1041	614.9119	646.0294	684.1263	762.7642	827.6026	858.2775	883.2742	927.9319	971.7604	995.6393	1020.0948	1041.364	1076.1731	1095.6645	1127.4551	1141.9352	1203.5549	1247.0551	1265.5576	1276.9431	1301.9908	1343.1938	1393.5444	1447.4829	1449.1313	1484.0509	1488.7201	1856.7761	2961.3703	3062.4961	3068.9907	3081.4846	3122.888	3136.0369	3140.8507	3766.8747
OCC12CC(CC1=O)O2	OC[C@@]12C[C@@H](CC1=O)O2	
InChI=1S/C6H8O3/c7-3-6-2-4(9-6)1-5(6)8/h4,7H,1-3H2	InChI=1S/C6H8O3/c7-3-6-2-4(9-6)1-5(6)8/h4,7H,1-3H2/t4-,6+/m1/s1
