16
gdb 78843	2.88113	1.82988	1.38147	3.9938	68.54	-0.242	-0.0001	0.2419	923.9691	0.12482	-437.838283	-437.831104	-437.83016	-437.869859	28.037	
O	 0.1702058497	 1.4537100089	-0.5564785413	-0.456551
C	 0.0064054011	 0.0926456125	-0.2967528251	 0.188848
C	-1.3977202339	-0.5289032916	-0.1952917913	-0.147281
C	-0.8685740753	-1.832927021	-0.767587256	-0.104337
C	-1.7751890765	-0.9963721672	-1.6142151092	-0.041933
N	-0.680640074	-0.5928871998	-2.4932700862	-0.037861
C	-0.5881989677	 0.4858158564	-3.3147217086	 0.132671
O	 0.4333215419	 1.1257342717	-3.4994145269	-0.343116
C	 0.2749111556	-0.9592981309	-1.4101675162	-0.120684
H	 0.4632802847	 1.5699915247	-1.4710072049	 0.306032
H	 0.5707625865	-0.1841821134	 0.6023529954	 0.090633
H	-2.1399940837	-0.3896102841	 0.5794105029	 0.102127
H	-0.9129311714	-2.8594248739	-0.4395709604	 0.112468
H	-2.7860198503	-1.1703132414	-1.9561756645	 0.120672
H	-1.5338433838	 0.688158488	-3.8536309877	 0.091173
H	 1.2728910472	-1.2601993788	-1.7154488898	 0.107138
117.4541	148.0248	233.5292	298.338	334.455	408.813	543.2962	593.9932	632.9771	735.2273	774.4233	799.347	808.4749	844.1531	874.2805	918.4792	968.8165	1006.5018	1022.2879	1030.5682	1040.1164	1060.6017	1120.9871	1136.2573	1161.5855	1174.28	1211.8902	1245.4213	1295.1709	1336.576	1358.539	1392.6496	1417.1524	1424.0276	1755.7435	2953.4473	3037.7272	3168.1342	3209.1818	3218.2495	3245.6542	3732.806
OC1C2C3C2N(C=O)C13	O[C@H]1[C@@H]2[C@H]3[C@@H]2N(C=O)[C@@H]13	
InChI=1S/C6H7NO2/c8-1-7-4-2-3(4)6(9)5(2)7/h1-6,9H	InChI=1S/C6H7NO2/c8-1-7-4-2-3(4)6(9)5(2)7/h1-6,9H/t2-,3+,4-,5+,6-/m0/s1
