18
gdb 85749	3.10063	1.3171	1.1071	2.9625	78.15	-0.2429	0.0397	0.2825	1145.2841	0.147078	-401.888714	-401.880374	-401.87943	-401.921601	32.128	
C	 0.2716625707	 1.5500576039	-0.1512782107	-0.403618
C	 0.0933483528	 0.0477780746	-0.0018107125	 0.14757
O	 0.7062683259	-0.5901151219	-1.129610864	-0.282498
C	 1.2055374169	-1.8765591358	-0.7590850447	-0.046377
C	 2.3666581531	-2.2163032001	-1.5743698648	 0.323788
C	 3.3141816761	-2.5477573404	-2.2334766072	-0.43637
C	 1.4724800298	-1.7830866874	 0.7407355983	-0.07404
N	 2.2334750212	-0.5754843788	 1.0998917964	-0.322223
C	 0.7607188191	-0.5793541825	 1.2117763959	-0.073217
H	 1.3341949515	 1.7997741332	-0.1084943079	 0.144138
H	-0.1328703049	 1.8859676885	-1.1096321449	 0.126674
H	-0.2552261794	 2.0793991864	 0.6493762721	 0.107048
H	-0.9799709187	-0.2065919532	 0.0319504274	 0.067054
H	 0.4278584081	-2.6451095881	-0.9126906005	 0.095468
H	 4.1578307759	-2.8227287756	-2.816798725	 0.19583
H	 1.5674724868	-2.6930229051	 1.3223424756	 0.10153
H	 2.6439745008	-0.7029833915	 2.0215883889	 0.23515
H	 0.2823362643	-0.5235451162	 2.1838729679	 0.094093
81.5155	130.3629	183.3964	228.8509	264.5236	327.5333	380.2634	486.266	522.5955	554.1204	616.5317	646.8249	665.057	768.7808	811.6322	830.9701	878.9823	895.7387	927.9167	946.0549	1028.7018	1039.461	1057.351	1086.1634	1112.77	1135.7992	1153.4788	1172.2201	1253.9554	1302.3933	1341.52	1349.7323	1364.4581	1383.073	1405.5796	1434.8114	1484.9508	1499.1767	2245.069	2947.0355	2955.6443	3044.8371	3115.7429	3137.93	3167.8467	3182.0882	3504.5567	3505.3522
CC1OC(C#C)C2NC12	C[C@H]1O[C@@H](C#C)[C@H]2N[C@@H]12	
InChI=1S/C7H9NO/c1-3-5-7-6(8-7)4(2)9-5/h1,4-8H,2H3	InChI=1S/C7H9NO/c1-3-5-7-6(8-7)4(2)9-5/h1,4-8H,2H3/t4-,5+,6+,7-/m1/s1
