21
gdb 56644	2.30235	1.22085	1.01777	4.4818	82.72	-0.2566	0.0245	0.2811	1293.3298	0.181442	-383.270678	-383.260344	-383.259399	-383.305675	38.104	
C	-0.027183577	 1.4767093257	-0.2836462795	-0.42229
C	 0.1447448223	-0.0113885959	-0.069646838	-0.015298
C	 1.5092813346	-0.6616329376	-0.0402632619	-0.36124
C	 0.6645862141	-0.6200551355	 1.2162261731	 0.34911
C	 1.0967253712	 0.2537340801	 2.3777703502	-0.485217
C	 0.0301044578	-1.9619549345	 1.6221406486	-0.195699
N	 0.8710678755	-2.8849112072	 2.3913507595	-0.512563
C	-1.219018568	-1.7242308222	 2.3684935021	 0.307935
N	-2.1899038826	-1.4973989047	 2.9522945906	-0.329632
H	 0.7855883813	 2.0560350955	 0.1624251156	 0.117591
H	-0.0413474095	 1.7078572238	-1.3541903563	 0.123006
H	-0.9687176177	 1.8342733566	 0.1466057897	 0.130452
H	-0.6282264989	-0.6015174412	-0.5583715346	 0.089456
H	 1.6481720828	-1.6090771457	-0.5530663723	 0.108268
H	 2.3780659666	-0.011519332	-0.0757569809	 0.113575
H	 1.5682556978	 1.1764522912	 2.034687459	 0.123938
H	 0.2433056425	 0.5263609753	 3.0081736167	 0.143357
H	 1.8286967361	-0.2644653963	 3.0076581996	 0.11018
H	-0.2541245534	-2.4858533196	 0.7001677467	 0.12499
H	 1.748417977	-3.0127167837	 1.8944316783	 0.237782
H	 1.0999043276	-2.4812779922	 3.2946054537	 0.242301
62.4124	114.6307	169.6853	184.7649	197.0438	203.5814	250.1475	283.1175	299.2105	354.3688	368.5792	432.4665	506.2508	546.2866	599.1911	731.9539	786.5029	848.7767	874.1779	888.6241	917.1181	960.9991	996.1668	1026.4432	1055.001	1093.3789	1127.2477	1130.2326	1139.1897	1193.3871	1201.1586	1262.5822	1277.0013	1368.7006	1401.2746	1410.0961	1421.3391	1427.7726	1486.4168	1491.6955	1495.4151	1500.2471	1514.5323	1655.8338	2360.4226	3026.8156	3032.1718	3036.1167	3090.6275	3095.0404	3105.307	3116.2243	3125.4552	3130.3888	3200.1996	3492.13	3577.7394
CC1CC1(C)C(N)C#N	C[C@H]1C[C@]1(C)[C@@H](N)C#N	
InChI=1S/C7H12N2/c1-5-3-7(5,2)6(9)4-8/h5-6H,3,9H2,1-2H3	InChI=1S/C7H12N2/c1-5-3-7(5,2)6(9)4-8/h5-6H,3,9H2,1-2H3/t5-,6-,7-/m0/s1
