22
gdb 11619	4.92466	0.92832	0.87588	0.8981	79.41	-0.2429	0.0882	0.3312	1429.2902	0.198296	-350.189808	-350.180181	-350.179237	-350.224782	35.076	
C	 0.3442656979	 1.375207449	 0.337115802	-0.380071
C	 0.0078560581	-0.0657761781	-0.0655040656	 0.022331
C	-1.4959573372	-0.2523246356	-0.300462716	-0.392694
C	 0.7921125878	-0.4915730252	-1.3057666305	-0.043212
O	 2.1800824147	-0.4390231745	-1.0164155564	-0.253362
C	 2.9850813993	-0.7776168958	-2.0991901806	 0.152039
C	 3.3392378038	 0.2793260448	-3.1158270488	-0.287785
C	 4.3642861055	-0.2060530182	-2.1078495501	-0.288514
H	 1.4200629084	 1.4961828297	 0.4828061882	 0.128258
H	 0.0259335737	 2.0806333371	-0.4406653531	 0.105061
H	-0.1647537621	 1.6532493748	 1.2656572269	 0.106655
H	 0.3190040698	-0.732622907	 0.7497568285	 0.082343
H	-1.8483720011	 0.3800648942	-1.1241838988	 0.112737
H	-1.7408080452	-1.2907617128	-0.5482930414	 0.110777
H	-2.0667699539	 0.0221329226	 0.5920537315	 0.114091
H	 0.5092684414	-1.5153646408	-1.6025856297	 0.08062
H	 0.5557222186	 0.1712967104	-2.1549289741	 0.084408
H	 2.8465019913	-1.798805961	-2.4586534521	 0.080016
H	 3.4484058363	-0.0077594445	-4.1559376815	 0.110807
H	 2.9259029348	 1.2688335637	-2.9554930893	 0.118508
H	 4.6105721386	 0.4654086197	-1.2933370084	 0.124332
H	 5.1829317194	-0.8300074026	-2.4481333807	 0.112657
48.1411	62.1002	132.0765	153.2939	221.2242	246.7235	280.7271	311.2146	386.2516	413.4044	475.8335	489.9218	757.4174	814.2923	822.4199	847.6194	919.2375	929.4699	954.0838	970.426	979.9133	987.3876	1046.9088	1071.1478	1092.6883	1128.416	1154.6501	1190.4343	1193.4389	1198.119	1210.0092	1243.8891	1273.2147	1327.9912	1370.6974	1380.874	1395.8065	1413.9799	1438.844	1453.049	1489.3184	1489.9415	1498.0419	1503.461	1513.0561	1520.1198	2955.9331	2985.7378	3020.6619	3024.8198	3030.1563	3084.0187	3088.1858	3093.5444	3102.7375	3125.8895	3134.7375	3141.2736	3219.1757	3233.8876
CC(C)COC1CC1	CC(C)COC1CC1	
InChI=1S/C7H14O/c1-6(2)5-8-7-3-4-7/h6-7H,3-5H2,1-2H3	InChI=1S/C7H14O/c1-6(2)5-8-7-3-4-7/h6-7H,3-5H2,1-2H3
