21
gdb 117931	2.89482	0.76567	0.63882	2.0418	76.3	-0.2581	-0.027	0.2311	1770.2792	0.179336	-461.3808	-461.369791	-461.368847	-461.418043	38.558	
C	 0.0096832826	 1.54824872	-0.0146542611	-0.380474
C	-0.1529846801	 0.0521807357	 0.2522751275	-0.284741
C	 0.7056853451	-0.4533301161	 1.3938776325	 0.363644
O	 1.262019372	 0.2948418319	 2.1721201759	-0.328247
C	 0.8928841555	-1.9646387449	 1.5730370293	 0.035366
O	 1.7496409618	-2.2057004736	 2.6584074571	-0.440553
C	-0.4458480506	-2.6981958498	 1.7679962106	-0.220347
C	-0.251558378	-4.2084295007	 1.9334600896	-0.067636
O	-1.4849040957	-4.8966520269	 2.0745029058	-0.42004
H	 1.0369605777	 1.7855251836	-0.3045153645	 0.13058
H	-0.657454974	 1.868775258	-0.8190900558	 0.115936
H	-0.2193262267	 2.128739544	 0.8816274297	 0.139375
H	-1.1966671882	-0.1831497148	 0.5035398463	 0.140241
H	 0.0660381445	-0.5454848876	-0.6416455504	 0.124862
H	 1.3568440321	-2.3368372713	 0.6407566065	 0.087686
H	 1.9833085712	-1.3235436265	 2.9932388098	 0.292742
H	-0.9397478593	-2.2924104041	 2.6612397035	 0.096081
H	-1.1073027958	-2.522443724	 0.9127062682	 0.106378
H	 0.2182687011	-4.6206806116	 1.0328972254	 0.108699
H	 0.4252501845	-4.403109217	 2.7747296366	 0.118282
H	-1.8433018596	-4.6827573844	 2.9415236674	 0.282164
49.8011	63.2173	102.0201	104.7596	125.1269	194.5659	215.757	277.0152	293.8859	350.597	360.4892	406.8382	479.7068	493.7481	587.6786	688.7029	775.7433	792.0001	853.1388	945.1658	990.3151	1011.8874	1039.7507	1072.1305	1076.4278	1099.4337	1126.1825	1162.4186	1192.1484	1249.7746	1284.3961	1303.9617	1314.7873	1363.6256	1377.6468	1398.292	1413.7907	1416.3092	1440.7707	1452.2547	1474.8662	1493.7993	1499.6855	1514.2593	1787.2378	2935.8411	3018.4279	3023.9505	3027.438	3053.1116	3055.731	3064.4105	3088.5761	3122.9737	3134.5752	3658.2384	3820.0477
CCC(=O)C(O)CCO	CCC(=O)[C@@H](O)CCO	
InChI=1S/C6H12O3/c1-2-5(8)6(9)3-4-7/h6-7,9H,2-4H2,1H3	InChI=1S/C6H12O3/c1-2-5(8)6(9)3-4-7/h6-7,9H,2-4H2,1H3/t6-/m0/s1
