15
gdb 54902	3.619	1.19178	0.98016	6.7162	68.24	-0.2458	-0.0376	0.2082	1155.9071	0.113335	-454.020761	-454.012382	-454.011437	-454.054749	30.349	
N	 0.0139883234	 1.2887673346	 0.2821619038	-0.520258
C	 0.0844286938	-0.0271905144	-0.0552318325	 0.399205
O	 1.1132830487	-0.5819899347	-0.3762551958	-0.34761
C	-1.2731953112	-0.7717154999	-0.02891785	-0.145672
N	-1.1221899663	-2.1634117268	-0.3666382144	-0.315606
C	-1.450834265	-2.9965780748	 0.6995202922	 0.392674
O	-1.2790314534	-4.1922255197	 0.753257654	-0.367485
C	-2.0438924981	-2.0941547935	 1.7340302507	-0.175371
C	-1.9255591303	-0.8279068212	 1.3370838824	-0.083298
H	 0.8521403635	 1.8435692321	 0.2204060119	 0.271559
H	-0.8566707465	 1.752622253	 0.4734104306	 0.26431
H	-1.9359158001	-0.2516662343	-0.740501957	 0.117486
H	-0.3536502043	-2.4301915485	-0.9649863407	 0.264491
H	-2.4649216231	-2.4709468793	 2.6549263949	 0.12968
H	-2.252202601	 0.0597599173	 1.8634840698	 0.115894
36.0249	95.5235	147.1467	179.9613	287.823	371.4943	400.3869	475.4532	520.2009	541.7784	625.2795	672.5222	686.4103	708.4393	819.1944	830.8653	906.5766	926.5564	967.7937	987.7549	1081.4407	1100.5961	1156.7095	1218.2696	1261.5446	1300.3539	1352.4479	1369.2941	1404.858	1621.5923	1654.5886	1810.7095	1832.0457	2968.9537	3212.5988	3252.8333	3602.663	3623.632	3736.1867
NC(=O)C1NC(=O)C=C1	NC(=O)[C@H]1NC(=O)C=C1	
InChI=1S/C5H6N2O2/c6-5(9)3-1-2-4(8)7-3/h1-3H,(H2,6,9)(H,7,8)	InChI=1S/C5H6N2O2/c6-5(9)3-1-2-4(8)7-3/h1-3H,(H2,6,9)(H,7,8)/t3-/m0/s1
