19
gdb 120773	3.33302	0.91657	0.79728	2.0762	73.12	-0.25	0.0687	0.3187	1478.3649	0.156917	-460.096156	-460.086727	-460.085783	-460.131585	32.983	
C	-0.3330412429	 1.3051756	-0.3720877843	-0.223614
O	-0.183918639	-0.0928027048	-0.3176888024	-0.236319
C	 0.8457742366	-0.563506064	-1.1632557426	-0.101465
C	 0.8880889439	-2.062381572	-1.0227810086	 0.050057
O	 0.1611577741	-2.8536871003	-1.9747065694	-0.252098
C	 1.5783444773	-2.9735847489	-1.9523967886	 0.019634
C	 2.3379653291	-2.5641517021	-3.1790924332	 0.043743
C	 1.7170466254	-2.6237244167	-4.5105012973	-0.172334
O	 1.9581018574	-1.3728230313	-3.8594983379	-0.226441
H	 0.5847252336	 1.8274230225	-0.0559070203	 0.101141
H	-0.5893159181	 1.6505932657	-1.3858699173	 0.108059
H	-1.1441074779	 1.5741271831	 0.3089851691	 0.126712
H	 0.6720578641	-0.289891692	-2.2103591866	 0.127469
H	 1.8179287208	-0.1351973373	-0.8590371663	 0.08616
H	 0.7654369455	-2.3990483157	 0.0079382801	 0.101237
H	 1.9472635943	-3.9164771329	-1.53904409	 0.092602
H	 3.4159764671	-2.7157417884	-3.1014847831	 0.099567
H	 2.3310609614	-2.8183883387	-5.3877895393	 0.118251
H	 0.6699315073	-2.9083612662	-4.5795552221	 0.137638
62.4121	74.2946	96.5413	115.042	216.4265	225.4259	233.5055	335.305	359.1919	477.4248	554.6141	659.8321	742.7453	836.056	864.8948	917.7876	950.6421	980.0157	994.8673	1042.7172	1089.6172	1105.2767	1132.7673	1153.1078	1168.358	1170.4638	1172.0901	1188.4712	1229.4971	1262.2904	1280.8484	1301.5556	1360.5588	1416.6203	1430.7812	1477.5773	1485.0162	1497.4987	1500.9408	1519.1486	1523.324	2946.3124	2968.8801	3012.8113	3063.7866	3068.5485	3095.114	3102.0003	3107.0039	3113.7215	3194.8976
COCC1OC1C1CO1	COC[C@H]1O[C@H]1[C@H]1CO1	
InChI=1S/C6H10O3/c1-7-2-5-6(9-5)4-3-8-4/h4-6H,2-3H2,1H3	InChI=1S/C6H10O3/c1-7-2-5-6(9-5)4-3-8-4/h4-6H,2-3H2,1H3/t4-,5-,6+/m1/s1
