20
gdb 55285	2.32071	1.45301	1.14758	5.4722	74.9	-0.2497	0.0205	0.2702	1146.8602	0.171115	-440.314476	-440.305351	-440.304407	-440.348051	35.118	
C	-0.0241795582	 1.5390592232	-0.0832251904	-0.425846
C	 0.0232858092	 0.0104223097	-0.0640068012	 0.276799
N	-1.3395363545	-0.4981714228	-0.1560053271	-0.570191
H	-1.8675959693	-0.030067633	-0.8869964661	 0.232526
H	-1.3450297838	-1.4914047625	-0.3700141938	 0.231257
H	-1.2422311152	-0.0488101438	 2.1203182777	 0.306476
C	 1.199601738	-0.5333712932	-0.9470948123	-0.269546
C	 2.0833585249	-0.5955374873	 0.333815039	-0.25493
C	 0.7838756505	-0.5878485058	 1.1632798814	-0.12949
C	 0.6301857087	 0.1353914672	 2.4772106736	 0.400434
O	 1.5193497855	 0.5616733032	 3.1606704188	-0.327775
O	-0.6722288197	 0.2872681995	 2.8353754753	-0.38385
H	 0.9637391513	 1.9721672945	 0.0911101998	 0.13739
H	-0.3706796831	 1.8873537745	-1.0632811856	 0.112213
H	-0.7050719377	 1.9245730933	 0.6803455012	 0.135981
H	 0.9782037885	-1.5351166175	-1.3297866245	 0.094313
H	 1.5366874931	 0.0946594735	-1.7757962265	 0.1003
H	 2.7388825867	-1.4588235796	 0.4517610418	 0.108945
H	 2.6701344185	 0.3114619772	 0.4914526924	 0.128008
H	 0.4262207366	-1.6157190606	 1.3050528766	 0.096984
87.6813	115.9411	159.4479	239.4744	245.6793	291.5406	332.3559	360.8465	408.6197	435.9577	482.7715	574.8662	634.4615	713.8393	723.6511	765.8028	808.5927	862.4524	899.1008	903.6808	944.8912	993.4529	998.4097	1037.9829	1079.3761	1104.1201	1150.4647	1178.1252	1201.4571	1206.8756	1234.937	1260.5366	1301.2486	1348.9816	1354.7625	1393.4695	1415.8481	1478.8213	1493.2084	1498.9289	1504.4363	1655.4181	1871.9853	3028.9463	3034.7408	3047.6682	3084.9264	3103.1166	3104.1176	3129.0744	3138.9187	3484.9746	3567.2142	3632.5128
CC1([NH3+])CCC1C([O-])=O	C[C@@]1(N)CC[C@H]1C(=O)O	
InChI=1S/C6H11NO2/c1-6(7)3-2-4(6)5(8)9/h4H,2-3,7H2,1H3,(H,8,9)	InChI=1S/C6H11NO2/c1-6(7)3-2-4(6)5(8)9/h4H,2-3,7H2,1H3,(H,8,9)/t4-,6+/m0/s1
