19
gdb 114840	3.3004	1.32647	1.2547	2.2438	70.05	-0.2498	0.0802	0.33	1084.4815	0.161043	-460.156016	-460.148329	-460.147384	-460.188399	29.599	
C	-0.0264994455	 1.3861829669	-0.1230095566	-0.237457
O	-0.0199520287	 0.0149443345	 0.2056045145	-0.246716
C	-1.2772142187	-0.6058419754	 0.0849138802	 0.14141
C	-1.7381293763	-0.9290653432	-1.376374821	-0.273844
C	-1.8790217567	-2.4587442505	-1.2743884089	 0.186292
O	-0.5856391049	-3.0496106977	-1.2837475182	-0.275787
C	-0.0712592931	-2.8110077314	 0.0413453484	-0.084495
C	-1.230705701	-2.0316731408	 0.6853640735	-0.013816
O	-2.3583289185	-2.6492064414	 0.0492101022	-0.253084
H	 0.9843172791	 1.7643689664	 0.0462534796	 0.13046
H	-0.2969784189	 1.5579788681	-1.1751083133	 0.112006
H	-0.7291358855	 1.9494637717	 0.5105624815	 0.107688
H	-2.0386002037	-0.0111699555	 0.6089149116	 0.073639
H	-2.690272096	-0.4563949342	-1.6292671316	 0.104066
H	-0.9844049601	-0.6423825783	-2.1124799222	 0.117637
H	-2.5187338413	-2.9616957729	-1.9990122587	 0.091792
H	 0.1063336313	-3.7685479902	 0.5426838215	 0.103218
H	 0.8530988463	-2.2316660459	-0.0040107132	 0.126294
H	-1.3129028576	-2.0953817403	 1.7685284608	 0.0907
101.4142	122.5461	190.7859	223.3697	335.52	373.0482	443.7932	491.5287	572.9882	645.7321	792.8201	815.2349	835.9254	869.0965	893.1974	965.8844	971.1864	987.5576	1027.2318	1038.2857	1051.2423	1077.3534	1098.8178	1145.9539	1181.8148	1186.2801	1199.84	1229.1464	1245.6612	1267.2882	1309.796	1317.9021	1330.4996	1352.2524	1379.1897	1390.4473	1471.9634	1482.1225	1488.1693	1508.5947	1516.8124	2978.6991	3001.2275	3029.4177	3043.2989	3068.9313	3114.6909	3118.0535	3126.6933	3132.9751	3147.3938
COC1CC2OCC1O2	CO[C@H]1C[C@H]2OC[C@@H]1O2	
InChI=1S/C6H10O3/c1-7-4-2-6-8-3-5(4)9-6/h4-6H,2-3H2,1H3	InChI=1S/C6H10O3/c1-7-4-2-6-8-3-5(4)9-6/h4-6H,2-3H2,1H3/t4-,5-,6-/m0/s1
