17
gdb 6405	3.30052	1.22371	0.9388	3.9023	61.06	-0.2363	0.033	0.2693	1190.8864	0.141041	-438.162444	-438.153239	-438.152295	-438.196831	33.095	
N	 0.4123925397	 0.3254587061	 0.7604931297	-0.513524
C	 0.072240225	-0.1245545751	-0.4801860193	 0.364268
O	 0.6256758667	 0.2469072761	-1.4972568663	-0.361701
C	-1.0985817905	-1.1127521407	-0.5110903992	-0.295165
C	-1.1158451568	-2.1765469047	 0.5914758104	 0.058681
O	-1.3422438859	-1.6245674974	 1.895179317	-0.423949
C	-2.1509895832	-3.277714995	 0.3162361718	-0.083457
O	-1.9443658328	-3.9414349267	-0.9158910581	-0.403545
H	 1.208252384	 0.9372503574	 0.8370005627	 0.254081
H	-0.0036757593	-0.081330293	 1.5849776578	 0.265402
H	-2.0367832405	-0.5399122441	-0.4661409321	 0.109178
H	-1.0760202768	-1.604959308	-1.4848376248	 0.146792
H	-0.1239946122	-2.6414300738	 0.6643339378	 0.097282
H	-2.2167129385	-1.2165794676	 1.8931107195	 0.287267
H	-2.1579037284	-3.9715559123	 1.1690727868	 0.103651
H	-3.1500009866	-2.8269557897	 0.2499855521	 0.103632
H	-1.144431464	-4.4720200814	-0.8420450857	 0.291109
43.8308	96.6526	133.0518	191.0714	250.8971	305.9358	312.0839	362.2951	419.2802	432.0623	480.6591	500.7973	558.1911	623.0706	741.0462	847.7536	880.0417	925.2972	1017.9271	1038.4724	1099.3221	1113.5772	1132.9837	1176.8512	1183.884	1297.4556	1309.4365	1360.9933	1374.3842	1385.4138	1414.996	1419.9963	1465.2085	1502.115	1614.8989	1800.3079	3000.5866	3010.2989	3030.7999	3057.2415	3128.0848	3558.6778	3709.6586	3785.6479	3816.8182
NC(=O)CC(O)CO	NC(=O)C[C@@H](O)CO	
InChI=1S/C4H9NO3/c5-4(8)1-3(7)2-6/h3,6-7H,1-2H2,(H2,5,8)	InChI=1S/C4H9NO3/c5-4(8)1-3(7)2-6/h3,6-7H,1-2H2,(H2,5,8)/t3-/m1/s1
