18
gdb 113748	3.58589	0.8563	0.74803	3.4606	73.37	-0.2733	0.0095	0.2828	1482.7168	0.146019	-439.065239	-439.055338	-439.054394	-439.10088	34.983	
O	-0.1326432211	 1.4009744399	-0.5968687547	-0.422215
C	 0.0170178225	 0.1374987964	 0.0344551784	-0.094332
C	-1.34538504	-0.5072066623	 0.0774957351	-0.004882
C	-1.8719334388	-1.3071682495	-1.0842208865	-0.286421
C	-1.5349719834	-2.0001250967	 0.2157626491	-0.045644
C	-0.3441200444	-2.9375234572	 0.3051995638	-0.037982
O	 0.3827314481	-2.8215762164	 1.5183972115	-0.412169
C	-0.7828816403	-4.3352836003	 0.0887290557	 0.265072
N	-1.1423150692	-5.4247477802	-0.0495110046	-0.316094
H	 0.7081246147	 1.8646628257	-0.539274022	 0.288141
H	 0.7285487275	-0.4962992793	-0.5171584128	 0.08168
H	 0.4075406019	 0.2435956757	 1.0576348367	 0.101028
H	-2.0755829721	 0.0963610023	 0.6091717518	 0.101276
H	-2.9146683749	-1.2130444291	-1.363009015	 0.126083
H	-1.2009584587	-1.4676070963	-1.9226620627	 0.123486
H	-2.3754006768	-2.3183024294	 0.8272592072	 0.101636
H	 0.3791177673	-2.6985324121	-0.4802129625	 0.13761
H	-0.2194091224	-3.0073610812	 2.2483124116	 0.293727
45.3093	81.0406	102.0914	160.1108	209.6689	237.3992	261.6887	288.3833	341.8244	354.8142	449.4949	515.3441	576.916	619.9461	805.1635	838.664	871.8106	910.378	947.4705	1012.7178	1040.6382	1058.3668	1073.2665	1077.8377	1138.169	1150.4083	1177.5954	1231.1421	1253.1862	1268.3958	1288.1591	1302.5955	1381.9541	1417.6951	1424.9204	1474.2764	1496.6897	1515.7494	2354.8362	2977.0325	3006.8407	3076.1863	3134.7393	3139.6553	3153.2264	3222.4271	3801.4113	3827.3132
OCC1CC1C(O)C#N	OC[C@H]1C[C@H]1[C@@H](O)C#N	
InChI=1S/C6H9NO2/c7-2-6(9)5-1-4(5)3-8/h4-6,8-9H,1,3H2	InChI=1S/C6H9NO2/c7-2-6(9)5-1-4(5)3-8/h4-6,8-9H,1,3H2/t4-,5-,6+/m1/s1
