23
gdb 79446	3.04327	1.49059	1.25158	0.0783	89.03	-0.265	0.096	0.361	1129.9804	0.208195	-351.128988	-351.121099	-351.120155	-351.160737	32.87	
C	-0.1470040606	 1.5275024131	 0.0523066637	-0.424488
C	-0.0109158297	 0.0082486505	 0.0474734529	 0.017904
C	 0.7660428119	-0.5591101472	-1.1545417449	-0.022178
C	 2.1216468178	-0.3134018207	-0.4132279279	-0.028409
C	 2.6544465496	-1.6347174602	-0.9824991229	-0.246224
C	 1.1733632912	-2.0762074455	-0.870023959	-0.06917
C	 0.9319791914	-2.1073486379	 0.6620498602	 0.06558
C	 1.784425839	-3.0638855736	 1.4945155471	-0.437122
C	 1.1847700013	-0.5899043953	 0.849780087	-0.056329
H	 0.7997828432	 2.0290944878	-0.1705737742	 0.114796
H	-0.8779762308	 1.8559787573	-0.6952203736	 0.111458
H	-0.4906065715	 1.8846856995	 1.0294670422	 0.110843
H	-0.9856989887	-0.4435301216	 0.2705670203	 0.054081
H	 0.5889105295	-0.2674979947	-2.1908386512	 0.057697
H	 2.6760705798	 0.6225140777	-0.4472177907	 0.06361
H	 2.9546201876	-1.4971809366	-2.0263742412	 0.092406
H	 3.4277409601	-2.204257255	-0.4613364839	 0.087863
H	 0.7763449889	-2.9016936785	-1.4621304075	 0.053635
H	-0.1203358569	-2.333797225	 0.8699344631	 0.062928
H	 2.8491607379	-2.8179387469	 1.4707249726	 0.11884
H	 1.470276496	-3.0339344198	 2.543540132	 0.110501
H	 1.6722786866	-4.0972434081	 1.1463927561	 0.110636
H	 1.4389171065	-0.2313741195	 1.8487828299	 0.05114
172.0187	210.4302	219.5789	232.734	264.7368	320.6133	448.7553	476.0522	517.3146	638.1154	717.4316	793.2399	804.0266	819.4738	833.4913	849.6921	906.7008	928.2831	935.4743	969.8441	1005.4713	1007.1548	1033.0896	1039.9325	1060.4023	1073.8718	1093.5771	1101.3478	1131.5679	1135.3857	1168.4592	1187.9825	1202.4577	1214.079	1247.8741	1253.8079	1270.3229	1281.329	1300.37	1327.2402	1383.2905	1399.2836	1411.3175	1414.3419	1492.08	1496.0872	1497.4305	1499.9847	1520.9611	3012.2501	3027.3515	3028.6459	3032.3226	3050.9338	3087.538	3088.5333	3096.3698	3098.0218	3098.3122	3102.5776	3108.4126	3116.1908	3131.2757
CC1C2C3CC2C(C)C13	C[C@H]1[C@H]2[C@@H]3C[C@H]2[C@@H](C)[C@H]13	
InChI=1S/C9H14/c1-4-6-3-7-8(4)5(2)9(6)7/h4-9H,3H2,1-2H3	InChI=1S/C9H14/c1-4-6-3-7-8(4)5(2)9(6)7/h4-9H,3H2,1-2H3/t4-,5-,6+,7-,8-,9-/m1/s1
