15
gdb 75860	3.20712	1.30172	0.95539	2.3832	77.29	-0.2444	-0.0372	0.2072	1161.2744	0.110577	-420.618865	-420.610451	-420.609506	-420.652098	31.339	
O	 0.1779493666	 1.3006438565	-0.4086310124	-0.426561
C	 0.0207209336	-0.0535110267	-0.0815376898	-0.059787
C	 0.5558970308	-0.3725429981	 1.3242178629	 0.36058
O	 1.4669733412	 0.2287079766	 1.8307377307	-0.310583
C	-0.3465229452	-1.427422657	 1.9604231338	-0.367286
C	-1.589380641	-1.3042234743	 1.1188370745	-0.182208
C	-1.4198412557	-0.5314150252	 0.0298059968	 0.152426
C	-2.3901722673	-0.2193680565	-0.9484731354	 0.231071
C	-3.1923926556	 0.064184989	-1.8009934043	-0.40305
H	 0.90774987	 1.6214992287	 0.1406980002	 0.296036
H	 0.5548811076	-0.6921616831	-0.8104598439	 0.104144
H	 0.1227828803	-2.4193624321	 1.8847527755	 0.146407
H	-0.4945803345	-1.232406038	 3.0280695725	 0.145534
H	-2.5200332544	-1.7962665304	 1.3731255977	 0.115393
H	-3.9036540964	 0.3160198706	-2.5481655587	 0.197883
58.8388	130.7254	168.6924	258.3248	269.6302	339.101	387.3906	433.0031	476.8797	543.1554	604.3383	617.9947	638.5099	647.9803	694.3361	789.8364	849.128	876.2659	972.9822	990.3211	1071.3301	1136.9719	1177.2725	1200.6762	1221.0432	1284.9139	1304.6491	1343.4576	1406.6916	1448.3048	1657.8521	1852.7926	2227.054	2923.1093	3010.8589	3071.815	3212.2161	3503.1013	3736.3195
OC1C(=O)CC=C1C#C	O[C@H]1C(=O)CC=C1C#C	
InChI=1S/C7H6O2/c1-2-5-3-4-6(8)7(5)9/h1,3,7,9H,4H2	InChI=1S/C7H6O2/c1-2-5-3-4-6(8)7(5)9/h1,3,7,9H,4H2/t7-/m1/s1
