17
gdb 27094	2.92409	1.2116	0.92871	2.2484	77.07	-0.2189	-0.0272	0.1917	1241.0168	0.134681	-421.871242	-421.862379	-421.861435	-421.906219	31.24	
C	 0.1157887902	 1.5208912732	-0.1230468426	-0.51331
C	 0.0470801063	 0.0280608138	-0.0140939239	 0.176546
C	-0.0197863149	-0.8740424717	-1.0376770737	 0.238185
C	-0.0094603034	-0.7254596613	-2.5246317462	-0.383639
C	 1.3806074606	-0.3288668978	-3.0040796777	 0.162247
O	 1.6353226165	 0.7036993464	-3.5669674554	-0.240843
O	-0.067494356	-2.1496564348	-0.546003648	-0.17719
C	-0.0430838674	-2.0540913901	 0.8088406869	-0.019362
C	 0.0243210224	-0.7546889749	 1.1917982793	-0.259481
H	 0.9725950457	 1.9193705042	 0.4311697473	 0.134107
H	 0.2185023991	 1.8431078059	-1.1622641309	 0.142601
H	-0.7823064442	 1.9944417578	 0.290391956	 0.131605
H	-0.2767784494	-1.6895615416	-2.972064445	 0.139133
H	-0.7211016417	 0.0310909011	-2.8662783443	 0.134687
H	 2.1745506661	-1.0694251614	-2.759242815	 0.087392
H	-0.0828382152	-2.9881237988	 1.3446776206	 0.135851
H	 0.0559169152	-0.3842837201	 2.2051540326	 0.111469
39.5722	58.5223	114.0338	155.436	243.1479	253.2179	351.7752	384.9969	467.0143	622.0461	634.2615	680.5689	712.5493	752.7525	830.0724	845.1947	910.1957	971.2199	997.5284	1052.0597	1065.1658	1074.2499	1127.9414	1183.0381	1204.7728	1254.395	1283.2099	1302.9366	1417.7567	1420.5882	1436.332	1450.7629	1488.4425	1498.3981	1539.0448	1658.6739	1828.3279	2886.2139	3031.1357	3047.65	3082.2276	3108.6257	3120.0966	3248.8726	3283.0697
CC1=C(CC=O)OC=C1	Cc1c(CC=O)occ1	
InChI=1S/C7H8O2/c1-6-3-5-9-7(6)2-4-8/h3-5H,2H2,1H3	InChI=1S/C7H8O2/c1-6-3-5-9-7(6)2-4-8/h3-5H,2H2,1H3
