18
gdb 87614	2.6706	1.54249	1.14723	3.5669	80.37	-0.2234	-0.0226	0.2008	1106.062	0.147112	-401.945955	-401.937732	-401.936788	-401.978734	31.402	
C	-0.1388071115	 1.4658824923	-0.0919557544	-0.31346
N	 0.0286334803	 0.0229108808	 0.0305314566	-0.108101
C	 1.3518176399	-0.5120909085	-0.196088908	-0.288786
C	 0.7855286984	-0.4859935852	 1.1944265224	 0.204294
C	 1.298699993	 0.3353146632	 2.3179442256	-0.152503
C	 1.1245933353	-0.2789046549	 3.4929968808	-0.0996
C	 0.471393803	-1.6291496384	 3.3519118521	-0.386567
C	 0.2633373975	-1.7612998547	 1.8348676398	 0.35059
O	-0.2011217677	-2.7043525974	 1.2511855089	-0.309676
H	 0.7666564544	 2.0504253238	 0.1343139777	 0.100866
H	-0.4350930034	 1.6881390609	-1.1217252318	 0.132609
H	-0.9413001845	 1.7968930682	 0.5737936116	 0.130777
H	 1.3943318108	-1.4668818144	-0.7142137733	 0.135521
H	 2.1656123729	 0.1820724745	-0.4071191553	 0.109365
H	 1.7569900731	 1.3073003893	 2.1872384442	 0.107717
H	 1.4231776994	 0.1278105844	 4.4518944864	 0.105983
H	 1.0927167808	-2.4567056908	 3.716318867	 0.140165
H	-0.4877099116	-1.711842023	 3.8788384898	 0.140805
80.3724	152.0274	179.8972	221.9855	254.5113	328.8907	406.2106	473.057	511.723	559.8148	609.9843	665.2613	726.2575	759.9861	789.4818	884.8696	922.1624	963.2476	968.4158	983.5575	1013.8883	1065.5304	1118.0304	1134.7731	1149.0949	1152.0125	1165.865	1205.6067	1263.9299	1282.2807	1336.0164	1415.4615	1440.7237	1450.5425	1485.4855	1497.3043	1502.2633	1662.1737	1853.4015	2979.6166	3031.927	3061.0207	3074.1399	3081.8864	3111.045	3180.7792	3196.6574	3221.3469
CN1CC11C=CCC1=O	CN1C[C@]21C=CCC2=O	
InChI=1S/C7H9NO/c1-8-5-7(8)4-2-3-6(7)9/h2,4H,3,5H2,1H3	InChI=1S/C7H9NO/c1-8-5-7(8)4-2-3-6(7)9/h2,4H,3,5H2,1H3/t7-,8?/m1/s1
