19
gdb 26232	3.18138	1.06472	0.95597	1.8517	79.77	-0.2115	0.0165	0.228	1327.4722	0.158025	-423.067098	-423.057648	-423.056704	-423.101782	34.488	
C	-0.0892406639	 1.5382186899	 0.3673855685	-0.398058
C	-0.0549650146	 0.0455437559	 0.0147054506	 0.010834
O	 0.7169845501	-0.6866800483	 0.9691269021	-0.429417
C	-1.4228260195	-0.5358552142	-0.1444851207	 0.363556
C	-2.0916805282	-1.1340582885	-1.1632561276	-0.282103
C	-3.3855566917	-1.4849641698	-0.6521038949	-0.25651
C	-3.4145564835	-1.0828426279	 0.6463289778	 0.347558
C	-4.4375556797	-1.1557966563	 1.7218558317	-0.492758
O	-2.2219405755	-0.4963170229	 0.9687945348	-0.233395
H	 0.9304670155	 1.9085997751	 0.5011140084	 0.121848
H	-0.5780272565	 2.116588464	-0.422907081	 0.118304
H	-0.6452722003	 1.6990162332	 1.2966842376	 0.119961
H	 0.4676102695	-0.0899967264	-0.9378141973	 0.09974
H	 0.2057773479	-0.7095264932	 1.785773919	 0.283422
H	-1.7106323296	-1.3079192065	-2.1576509546	 0.109493
H	-4.1868267838	-1.9768995285	-1.1815210654	 0.106883
H	-4.0799265617	-1.7349036624	 2.5811730153	 0.136781
H	-4.7088662689	-0.1595449076	 2.0897935899	 0.137138
H	-5.3410742456	-1.6362137956	 1.3401615257	 0.136722
47.4036	112.8771	134.4431	154.3625	233.4274	246.1325	288.9766	331.5131	365.3952	420.7769	511.7126	627.1858	635.3128	697.6807	725.8808	800.6138	833.0905	894.7274	955.6202	977.4711	1001.713	1033.7212	1042.3515	1064.4813	1084.2358	1094.7215	1212.2295	1234.643	1253.7248	1286.5242	1338.7198	1390.6351	1399.4563	1416.0171	1420.6725	1472.5543	1488.4311	1491.0217	1494.3868	1601.4177	1659.4423	3028.5575	3037.7556	3064.6957	3077.6949	3111.4728	3123.5552	3129.5645	3248.1495	3261.5264	3806.1937
CC(O)C1=CC=C(C)O1	C[C@@H](O)c1ccc(C)o1	
InChI=1S/C7H10O2/c1-5-3-4-7(9-5)6(2)8/h3-4,6,8H,1-2H3	InChI=1S/C7H10O2/c1-5-3-4-7(9-5)6(2)8/h3-4,6,8H,1-2H3/t6-/m1/s1
