20
gdb 69726	3.6038	1.63075	1.4269	1.3706	81.91	-0.2269	0.0991	0.326	985.2212	0.173228	-365.943277	-365.936374	-365.935429	-365.974064	29.34	
C	 0.0619334405	 1.476742124	 0.0179621698	-0.474469
C	-0.0682867129	-0.0250303383	 0.000038413	 0.314527
C	-0.6431826747	-0.7865975697	 1.1435515216	-0.294718
N	 0.8108199944	-0.8380313379	 0.8754463711	-0.155403
C	 1.1922626165	-1.9066161004	-0.0657302226	 0.028883
C	 0.037778169	-2.3050697533	-1.0550509294	-0.080026
C	 1.0901699417	-2.5124517391	-2.1658998309	-0.264923
C	 1.5498254663	-1.2387972472	-1.4303174517	-0.049789
C	 0.0452597692	-0.7686129117	-1.3266744064	-0.072766
H	 0.9223472274	 1.8029802913	-0.5769898916	 0.118467
H	-0.8339146277	 1.9527827819	-0.3969700321	 0.114947
H	 0.2007590199	 1.8413421497	 1.0391302072	 0.126606
H	-0.9060830743	-0.2519240177	 2.0526386662	 0.110139
H	-1.2424155182	-1.6725651948	 0.9575430702	 0.1115
H	 1.8368394659	-2.6741290068	 0.36439593	 0.072926
H	-0.8309472376	-2.932341783	-0.8528610512	 0.071527
H	 1.73302373	-3.3929223797	-2.0760748335	 0.092406
H	 0.7430828176	-2.3869506886	-3.1949395126	 0.093069
H	 2.4180482197	-0.6112977971	-1.6367904134	 0.074059
H	-0.459857673	-0.3698623714	-2.2078604936	 0.063039
183.2753	205.0578	261.8324	354.4828	406.7578	455.0447	526.9776	584.3339	672.4628	761.5548	791.1375	811.9845	822.2702	883.0942	897.8996	910.4544	923.848	947.147	968.4076	989.1775	996.5522	1036.512	1067.2271	1081.9626	1106.7542	1114.8221	1118.0845	1128.9123	1146.4761	1176.1776	1186.5289	1211.9164	1230.6355	1244.1884	1267.9299	1317.7186	1324.7678	1375.256	1416.585	1485.4811	1493.451	1508.7671	1518.9273	3028.4468	3048.4503	3088.7157	3097.7035	3100.4493	3105.9996	3108.685	3112.7091	3116.108	3120.0679	3197.948
CC12CN1C1C3CC1C23	C[C@]12CN1[C@H]1[C@@H]3C[C@H]1[C@H]23	
InChI=1S/C8H11N/c1-8-3-9(8)7-4-2-5(7)6(4)8/h4-7H,2-3H2,1H3	InChI=1S/C8H11N/c1-8-3-9(8)7-4-2-5(7)6(4)8/h4-7H,2-3H2,1H3/t4-,5+,6-,7+,8-,9?/m1/s1
