18
gdb 55975	3.31553	0.93627	0.82226	2.6083	75.67	-0.2441	-0.027	0.2171	1434.2289	0.145813	-439.130176	-439.120625	-439.119681	-439.166365	33.453	
C	 0.2921243102	 1.4775871063	 0.0458624269	-0.493809
C	 0.1324119682	-0.0208196589	 0.2375342159	 0.409591
O	 0.9893317533	-0.7183287242	 0.7452005478	-0.361133
N	-1.0561815615	-0.537362764	-0.2210229406	-0.33066
C	-1.2976514221	-1.9452699061	-0.2769454547	-0.033504
C	-2.4277680172	-2.6412834855	 0.5609308764	-0.259721
C	-2.7830995638	-3.5276847147	-0.670685594	-0.335343
C	-2.0026318859	-2.5128107426	-1.5223485015	 0.364653
O	-2.0826197973	-2.1310467025	-2.6540235864	-0.298936
H	 0.9474197847	 1.8639367593	 0.8269566241	 0.154373
H	 0.7677632695	 1.6688249064	-0.9221046172	 0.154786
H	-0.662414791	 2.0106579337	 0.0686091159	 0.123095
H	-1.6779429716	 0.0649161026	-0.7377230115	 0.250403
H	-0.3426649018	-2.4507700702	-0.0993219077	 0.147938
H	-2.1003656225	-3.1518979191	 1.4662704633	 0.123046
H	-3.2321150599	-1.9437100566	 0.8053128307	 0.114794
H	-2.2919111609	-4.5052868816	-0.6505674394	 0.137728
H	-3.8340034904	-3.6634139325	-0.9320589879	 0.132699
35.5254	57.0885	76.6991	112.2714	160.3912	238.1529	337.6329	382.8608	455.9247	474.9588	570.6778	599.0915	623.3579	701.8048	753.1718	807.1853	899.7335	927.8216	944.2147	1000.2953	1015.1209	1049.3677	1051.6467	1090.8683	1184.9813	1198.5	1217.9288	1227.6161	1264.3299	1269.7847	1353.2996	1392.6144	1446.9402	1467.786	1486.4248	1491.539	1525.9752	1787.9056	1884.9129	3046.5694	3066.5728	3073.548	3080.9632	3112.9344	3128.3929	3147.3232	3154.9398	3626.8424
CC(=O)NC1CCC1=O	CC(=O)N[C@H]1CCC1=O	
InChI=1S/C6H9NO2/c1-4(8)7-5-2-3-6(5)9/h5H,2-3H2,1H3,(H,7,8)	InChI=1S/C6H9NO2/c1-4(8)7-5-2-3-6(5)9/h5H,2-3H2,1H3,(H,7,8)/t5-/m0/s1
