17
gdb 113118	2.35308	1.17013	0.8977	5.1772	79.06	-0.3002	-0.0122	0.288	1326.0851	0.135126	-380.88918	-380.879875	-380.878931	-380.923702	33.173	
C	 0.1829332255	 1.5124207108	 0.1594464499	-0.383136
C	-0.205599363	 0.0611717058	-0.148834776	-0.215705
C	 0.5884905746	-0.4959168583	-1.3106231042	-0.022355
C	 1.9232053544	-1.1277167944	-1.1222044721	-0.299985
C	 0.7313376217	-2.0240314663	-1.5084405806	 0.007254
C	 0.1959973982	-2.9054981288	-0.5012506963	 0.253331
N	-0.2304838209	-3.594843936	 0.3230269544	-0.334979
C	 0.6821280341	-2.5252555946	-2.8591404739	 0.245924
N	 0.6526305489	-2.8955249678	-3.9538699442	-0.325874
H	 1.241142304	 1.592051186	 0.4283533566	 0.124684
H	 0.007292152	 2.1634076951	-0.703360286	 0.125064
H	-0.4070170179	 1.8989198192	 0.9949076876	 0.129326
H	-0.0517306724	-0.5643151623	 0.7369121788	 0.12794
H	-1.2741640832	 0.0030528401	-0.3858574887	 0.124881
H	 0.4460040677	 0.0244592334	-2.2537461464	 0.130709
H	 2.6874470246	-1.0072417524	-1.8803410527	 0.157625
H	 2.2900675917	-1.2629478194	-0.1107945462	 0.155296
69.8465	113.5562	130.0986	139.0368	209.0231	237.2358	260.531	360.0962	400.91	486.6827	518.9508	598.624	608.9612	663.7368	774.5658	804.3322	867.6343	935.6716	958.4748	971.8322	1055.4563	1085.8669	1089.2232	1125.5277	1199.2387	1246.7137	1280.7843	1306.6335	1351.4413	1409.7134	1422.7437	1479.356	1490.2823	1498.6154	1507.3257	2358.2651	2361.6807	3037.6914	3042.7456	3077.8991	3108.7385	3117.3033	3148.5907	3157.4035	3244.2357
CCC1CC1(C#N)C#N	CC[C@H]1CC1(C#N)C#N	
InChI=1S/C7H8N2/c1-2-6-3-7(6,4-8)5-9/h6H,2-3H2,1H3	InChI=1S/C7H8N2/c1-2-6-3-7(6,4-8)5-9/h6H,2-3H2,1H3/t6-/m0/s1
