16
gdb 66877	3.1373	1.96936	1.77187	3.86	72.97	-0.2047	-0.0432	0.1615	825.9142	0.125489	-396.784376	-396.777789	-396.776845	-396.814858	27.743	
N	 0.0836608001	 1.4506620269	 0.0069605612	-0.631883
C	 0.0376161506	 0.0402934964	 0.0088291324	 0.322719
C	-0.1673122018	-0.8287356292	-1.2823604941	-0.070306
N	 0.8634856186	-1.8055563989	-1.3316903201	-0.136656
C	 0.8472256801	-2.3221367115	-0.1544291065	 0.078798
N	 1.9056748873	-1.8268130738	 0.7441240412	-0.342052
C	 0.7027044107	-0.892719523	 1.1116582153	-0.045445
C	-0.3754277201	-1.9294685702	 0.7509654657	-0.106228
C	-1.1368767563	-0.9393885595	-0.101688846	-0.15774
H	 0.483292926	 1.8462364947	-0.8340158078	 0.243219
H	-0.8011456862	 1.895629251	 0.2093224436	 0.238662
H	-0.4592315074	-0.3038635135	-2.1856608784	 0.096167
H	 1.985832559	-2.4272003491	 1.5712752518	 0.222815
H	 0.7855910976	-0.4348775055	 2.0972898946	 0.105233
H	-0.7977479877	-2.6438019533	 1.4509006372	 0.085265
H	-2.2011352806	-0.7606410015	-0.1690751701	 0.097433
145.5762	245.0067	307.3254	417.9139	511.4191	538.4374	596.0337	636.3563	673.2094	684.904	706.6082	735.4514	753.9137	808.287	857.3524	871.7132	903.2518	916.6667	940.2849	984.6163	1025.0358	1065.4456	1074.9291	1094.4969	1109.7884	1156.1183	1181.9938	1218.0761	1236.0182	1257.443	1289.9624	1312.5477	1401.4194	1554.0217	1652.6206	3123.9503	3161.842	3179.0101	3212.7537	3384.8772	3535.952	3620.4599
NC12C3N=C4NC1C4C23	N[C@@]12[C@H]3[N][C]4N[C@@H]1[C@H]4[C@@H]23	
InChI=1S/C6H7N3/c7-6-2-1-3(6)8-5(1)9-4(2)6/h1-4H,7H2,(H,8,9)	InChI=1S/C6H7N3/c7-6-2-1-3(6)8-5(1)9-4(2)6/h1-4H,7H2,(H,8,9)/t1-,2-,3-,4+,6-/m1/s1
