20
gdb 85335	1.78763	1.68284	0.89744	5.6117	85.63	-0.2138	-0.0167	0.1972	1301.1346	0.171952	-403.20746	-403.198558	-403.197614	-403.240686	34.639	
C	-0.0001086442	 1.5617407964	 0.0270151728	-0.399611
C	 0.0210412063	 0.031225527	 0.0016032126	 0.001483
C	 0.7136801221	-0.5206547547	-1.2502854433	-0.305563
C	 0.7841957322	-2.0493362331	-1.2757540798	 0.367472
O	 0.7984640037	-2.6579349193	-2.3339163364	-0.366792
C	 0.8574589058	-2.7158232827	 0.0152816486	-0.277085
C	 0.8418033042	-2.0453786551	 1.1956392079	 0.366123
N	 1.0270075621	-2.6614805066	 2.4050810444	-0.562297
C	 0.6944202859	-0.5441594326	 1.2555131456	-0.28836
H	 1.0174362196	 1.9699987772	 0.0306638677	 0.114407
H	-0.5142902392	 1.9601022445	-0.8531816342	 0.119549
H	-0.5155316152	 1.9407555082	 0.9165589578	 0.108561
H	-1.017255595	-0.328239298	-0.0056611039	 0.083813
H	 0.2165820268	-0.1930089548	-2.1676849508	 0.114811
H	 1.7449189333	-0.1389418326	-1.2957852389	 0.110896
H	 0.9515556259	-3.7980238418	-0.007925945	 0.076145
H	 0.9989518081	-3.6687743635	 2.4333551555	 0.260047
H	 0.6842655131	-2.203142649	 3.2335592235	 0.254867
H	 1.6922819293	-0.0982751347	 1.3804352549	 0.124947
H	 0.1258314852	-0.2665229049	 2.153319361	 0.096586
109.2377	141.9487	172.7317	236.0126	265.0294	322.9461	379.1112	412.635	436.5831	436.9654	476.0617	531.7057	551.9491	597.061	631.3532	848.7151	866.1303	879.0941	892.2811	904.756	958.5531	981.124	1075.1143	1094.2735	1103.6088	1158.0867	1174.8652	1257.4595	1269.6402	1280.6203	1295.4357	1334.4722	1375.7142	1381.147	1413.9521	1423.5204	1458.4335	1472.4204	1496.5924	1499.6205	1640.7532	1675.5079	1750.3911	2998.7973	3002.3035	3013.9159	3025.6195	3038.6611	3089.2637	3092.3001	3102.662	3166.659	3585.5352	3699.0415
CC1CC(=O)C=C(N)C1	C[C@H]1CC(=O)C=C(N)C1	
InChI=1S/C7H11NO/c1-5-2-6(8)4-7(9)3-5/h4-5H,2-3,8H2,1H3	InChI=1S/C7H11NO/c1-5-2-6(8)4-7(9)3-5/h4-5H,2-3,8H2,1H3/t5-/m1/s1
