21
gdb 78781	2.57996	1.74259	1.3339	1.4601	81.73	-0.2449	0.0749	0.3198	1052.8401	0.181881	-387.045489	-387.037	-387.036056	-387.077665	34.524	
C	-0.0496644103	 1.6261501887	 0.041538435	-0.43026
C	 0.1117635931	 0.1103863415	-0.0051296552	 0.040545
C	 0.8342257053	-0.6076366449	-1.1504226106	-0.103286
C	 1.2552696604	-1.7302699872	-0.2413446897	-0.08139
C	 2.3131936403	-0.7888051017	-0.7713328244	-0.100886
C	 2.5351528641	-0.2138590783	 0.6164057011	 0.431839
C	 3.5759940925	-0.9899080489	 1.4243353463	-0.446937
O	 2.8466819685	 1.1698442669	 0.6395145143	-0.479321
C	 1.0730004723	-0.6860601941	 0.9337288938	-0.162789
H	 0.8933197113	 2.1415805848	-0.1338834862	 0.142533
H	-0.7754140621	 1.9464434994	-0.7152409346	 0.101458
H	-0.4381063744	 1.9439841414	 1.016792537	 0.099461
H	-0.8764515084	-0.356809371	 0.0935322387	 0.067348
H	 0.5297777148	-0.682462352	-2.187485605	 0.080717
H	 1.1544487197	-2.8030798903	-0.3034089405	 0.087839
H	 3.0654999113	-0.9931271223	-1.5233973861	 0.080299
H	 4.5782739769	-0.8109087143	 1.0223974719	 0.120782
H	 3.568602891	-0.6620227587	 2.4720044385	 0.100972
H	 3.3815039753	-2.0651831791	 1.4116511213	 0.123992
H	 3.0455920759	 1.4214057906	 1.5475681504	 0.271988
H	 0.7876175726	-0.9130754102	 1.961147494	 0.055098
164.274	178.372	237.3662	252.0345	269.156	278.1036	325.0114	381.467	405.3977	559.0035	594.9036	633.3166	695.1327	774.8737	795.7535	806.6619	857.4407	875.9379	898.1025	929.7123	963.2959	996.8947	1020.205	1031.4647	1033.3929	1049.7295	1101.4718	1117.7405	1133.0699	1142.7965	1164.4553	1181.3186	1193.2104	1217.0294	1259.5975	1309.8004	1360.8386	1391.9238	1400.8159	1406.9549	1413.2041	1490.8765	1491.819	1497.4606	1509.3407	3018.0901	3020.8505	3029.4443	3078.2612	3087.7559	3111.9321	3121.7906	3162.5487	3183.6607	3192.6379	3231.8747	3806.946
CC1C2C3C2C(C)(O)C13	C[C@H]1[C@@H]2[C@H]3[C@@H]2[C@@](C)(O)[C@@H]13	
InChI=1S/C8H12O/c1-3-4-5-6(3)8(2,9)7(4)5/h3-7,9H,1-2H3	InChI=1S/C8H12O/c1-3-4-5-6(3)8(2,9)7(4)5/h3-7,9H,1-2H3/t3-,4+,5+,6-,7+,8-/m0/s1
