15
gdb 126820	2.07649	1.79107	1.02498	3.6544	74.09	-0.2816	-0.0575	0.2241	1121.4819	0.114686	-413.029522	-413.021506	-413.020561	-413.063036	28.274	
C	 0.086655206	 1.5787065518	-0.0245006779	-0.381091
C	-0.0668806495	 0.0643503097	 0.1039104686	-0.161654
N	 0.6407379096	-0.4637416851	 1.2672824445	-0.018794
N	 1.982898002	-0.4802140554	 1.3147841282	-0.224113
C	 2.2345078328	-0.99671834	 2.513434375	 0.02223
N	 1.140738754	-1.3134949332	 3.2429692937	-0.307842
C	 0.1499024971	-0.9645862591	 2.4310341313	 0.286158
C	-1.2411694986	-1.0823090781	 2.6939665529	 0.251462
N	-2.3825126002	-1.1598009187	 2.8675576131	-0.338901
H	 1.1415672407	 1.8497166707	-0.1065722783	 0.153758
H	-0.4343353321	 1.9243459736	-0.9214986449	 0.134378
H	-0.3412012858	 2.0908085441	 0.8417890652	 0.138465
H	-1.1154534073	-0.2213563178	 0.2157148901	 0.154603
H	 0.33410272	-0.4458227491	-0.7757412461	 0.14833
H	 3.2435616213	-1.1501905335	 2.8645586844	 0.143012
45.5772	135.7339	151.103	184.1101	227.4412	351.395	390.7343	515.1193	565.7273	602.9436	688.6985	707.3663	747.3667	800.9878	911.2202	979.3187	992.6141	1075.5139	1106.3958	1178.4495	1221.005	1273.6963	1313.6678	1341.5459	1391.9191	1407.7088	1414.0393	1466.7554	1487.9797	1490.7107	1506.9331	1525.7331	2356.4584	3052.1703	3073.5241	3117.901	3129.7228	3144.1693	3268.0672
CCN1N=CN=C1C#N	CCn1ncnc1C#N	
InChI=1S/C5H6N4/c1-2-9-5(3-6)7-4-8-9/h4H,2H2,1H3	InChI=1S/C5H6N4/c1-2-9-5(3-6)7-4-8-9/h4H,2H2,1H3
