23
gdb 113970	3.8473	0.62874	0.57675	0.8807	93.05	-0.2541	0.059	0.3131	1991.1973	0.203682	-351.117185	-351.10653	-351.105586	-351.153836	38.91	
C	-0.1012006216	 1.5605523182	-0.4748155555	-0.372376
C	-0.0353526947	 0.1933927089	 0.2167361349	-0.194956
C	-1.3758814514	-0.5149547717	 0.2194745513	-0.003642
C	-1.816808979	-1.3600858825	-0.9535511826	-0.293257
C	-1.5346174457	-2.0097104711	 0.383688121	-0.010415
C	-0.3667739159	-2.9560275595	 0.5638571702	-0.205317
C	-0.7229880913	-4.3961168874	 0.1309552126	-0.348059
C	 0.3830087107	-5.3308732436	 0.2962538883	 0.291435
C	 1.3140579694	-6.0774808079	 0.4416865475	-0.438243
H	 0.8728503002	 2.0595419192	-0.4634106969	 0.109639
H	-0.4168641381	 1.4571188799	-1.5181910417	 0.117885
H	-0.8198056897	 2.2206975402	 0.0234843598	 0.112954
H	 0.7175251684	-0.4265461527	-0.2826528293	 0.096638
H	 0.3136558113	 0.323353767	 1.2497686788	 0.096612
H	-2.1649552368	 0.0722154398	 0.6858102461	 0.078746
H	-2.840814982	-1.2922797936	-1.304478933	 0.107591
H	-1.0892091479	-1.5217852953	-1.7446346053	 0.107096
H	-2.4174815885	-2.3099369316	 0.9453644782	 0.079145
H	 0.4983846258	-2.6229152982	-0.017434419	 0.109163
H	-0.0471230569	-2.972199286	 1.6127235359	 0.108919
H	-1.5878378479	-4.7468675543	 0.7095537857	 0.126683
H	-1.0456441305	-4.3867901474	-0.9178952689	 0.132474
H	 2.1278880822	-6.7476688404	 0.5660463118	 0.191284
56.4754	66.281	81.4931	98.1705	171.3491	212.8026	245.4926	279.6546	340.0509	360.9417	433.2846	498.4246	563.2163	614.2691	633.6614	746.2993	770.8808	797.6597	828.0702	867.7143	922.6474	942.2111	971.884	992.2767	1023.824	1046.6557	1060.1795	1075.5236	1117.3803	1143.9423	1150.138	1200.4222	1226.6393	1250.9633	1281.025	1297.307	1314.6322	1344.578	1367.09	1403.928	1411.4462	1434.3643	1472.2092	1482.7678	1490.9165	1497.2081	1500.0579	1507.7898	2237.6184	3017.5316	3019.7036	3031.1012	3036.2948	3048.6645	3059.4423	3085.8745	3099.1292	3104.7424	3113.4356	3118.9159	3125.6183	3204.0736	3507.8613
CCC1CC1CCC#C	CC[C@H]1C[C@H]1CCC#C	
InChI=1S/C9H14/c1-3-5-6-9-7-8(9)4-2/h1,8-9H,4-7H2,2H3	InChI=1S/C9H14/c1-3-5-6-9-7-8(9)4-2/h1,8-9H,4-7H2,2H3/t8-,9+/m0/s1
