16
gdb 54182	3.37466	1.1107	0.9834	2.8122	67.2	-0.2567	-0.0567	0.2001	1200.5552	0.121375	-475.045943	-475.036629	-475.035685	-475.08018	33.334	
C	-0.189543699	 1.6542447513	 0.4154699774	-0.478945
C	-0.076201372	 0.194874685	 0.0620152334	 0.277076
O	 1.1776476706	-0.2738012259	-0.4319306704	-0.268279
C	 0.7686311566	-0.7708204082	 0.8388031829	-0.089253
C	 1.5443868767	-0.3427071224	 2.0466884432	 0.145106
O	 2.3152874378	 0.5810251583	 2.0805171853	-0.242295
C	-1.3071369256	-0.4042716963	-0.6134155843	 0.342883
N	-1.0210745893	-1.3664134745	-1.5296480713	-0.528086
O	-2.4274742887	-0.0427263966	-0.3135461312	-0.359231
H	 0.6825479009	 1.9888405137	 0.9765435621	 0.158717
H	-0.2645355731	 2.2450252809	-0.5029434671	 0.136996
H	-1.1030896277	 1.8169517588	 0.9906189094	 0.154451
H	 0.4519211276	-1.8144950607	 0.8484853249	 0.115015
H	 1.3341414544	-0.9640990661	 2.945269161	 0.091387
H	-0.0709858194	-1.4888712333	-1.8394563704	 0.276991
H	-1.7794139596	-1.752858464	-2.0669762351	 0.267466
74.4783	107.6683	142.4685	177.4188	219.8033	234.9336	297.4015	355.0647	367.6213	399.0912	514.9026	540.6839	618.5643	689.7675	746.1942	755.7739	843.7563	883.1642	919.6303	974.3174	1054.2183	1098.1853	1108.7454	1113.4252	1210.0195	1312.685	1372.8644	1406.5505	1420.5844	1427.4643	1483.5193	1498.5176	1595.0313	1803.3568	1827.6831	2890.5771	3057.6011	3111.1723	3127.7442	3168.4739	3594.6117	3731.595
CC1(OC1C=O)C(N)=O	C[C@]1(O[C@H]1C=O)C(=O)N	
InChI=1S/C5H7NO3/c1-5(4(6)8)3(2-7)9-5/h2-3H,1H3,(H2,6,8)	InChI=1S/C5H7NO3/c1-5(4(6)8)3(2-7)9-5/h2-3H,1H3,(H2,6,8)/t3-,5+/m0/s1
