17
gdb 89608	3.92442	1.11849	0.95391	1.6873	69.57	-0.256	-0.0338	0.2222	1219.8845	0.133374	-458.942383	-458.933583	-458.932639	-458.97629	32.274	
C	 0.4027551253	 0.5741589359	-1.0555491879	-0.486076
C	-0.1309867744	 0.3220644174	 0.3376477884	 0.275172
O	 0.4404086037	 0.6775116996	 1.345244673	-0.301589
C	-1.427997825	-0.4018042353	 0.447990624	 0.325199
C	-2.3072231267	-0.6062451919	 1.6803235941	-0.348301
C	-2.7322288055	-2.0057909518	 1.0880084161	 0.138622
O	-4.0784277298	-2.2331453815	 0.7908774794	-0.429796
C	-1.8064350927	-1.7304894403	-0.1130249049	-0.085528
O	-2.2787151345	-0.5253693359	-0.710706791	-0.288356
H	 1.4098770765	 0.986234331	-0.9863840698	 0.142492
H	 0.4082835392	-0.3439206465	-1.6512779281	 0.140934
H	-0.2528204442	 1.2788050881	-1.5780832832	 0.156509
H	-1.7311752157	-0.686827203	 2.6027182882	 0.137306
H	-3.1114685318	 0.1224650571	 1.8015894569	 0.113079
H	-2.389582457	-2.8370812891	 1.7077346697	 0.106009
H	-4.3367521495	-1.5552782241	 0.1535368784	 0.290364
H	-1.2503812179	-2.4139838596	-0.7460300135	 0.11396
73.2713	100.3713	120.8512	154.0914	229.2043	316.1079	392.7219	427.0632	469.0456	491.9903	572.2808	620.6133	661.7639	730.0929	809.8005	863.0063	894.1652	937.1146	959.3823	985.2561	1017.705	1041.8202	1108.7163	1111.0047	1144.7613	1198.1446	1215.9765	1259.0312	1290.1213	1326.5784	1383.162	1411.9564	1437.5457	1456.1724	1470.2061	1472.357	1794.0479	3046.4158	3080.8979	3098.9498	3108.2635	3148.9573	3157.2943	3178.2081	3778.1189
CC(=O)C12CC(O)C1O2	CC(=O)[C@]12C[C@@H](O)[C@H]1O2	
InChI=1S/C6H8O3/c1-3(7)6-2-4(8)5(6)9-6/h4-5,8H,2H2,1H3	InChI=1S/C6H8O3/c1-3(7)6-2-4(8)5(6)9-6/h4-5,8H,2H2,1H3/t4-,5-,6-/m1/s1
