17
gdb 56355	5.99068	0.64856	0.61092	3.6629	73.36	-0.2452	-0.0203	0.2249	1745.7806	0.133437	-455.129473	-455.119943	-455.118999	-455.165849	33.209	
N	-0.1841329603	 1.3354940575	-0.1298007844	-0.562376
C	 0.0028528109	 0.0234023598	 0.2314686317	 0.367779
N	 1.1031565322	-0.5819670842	 0.4661362906	-0.319535
C	 2.3373251707	 0.1553825829	 0.3265681019	-0.251162
C	 3.5307699205	-0.749684139	 0.6061799354	 0.149928
O	 4.6767434055	-0.3959434315	 0.5176087968	-0.247857
C	-1.2678092472	-0.7462652113	 0.4202788584	 0.021195
C	-2.3776718647	-0.2106272635	 1.2274557383	-0.173114
O	-2.4391061196	-0.2023833044	-0.2007955456	-0.24352
H	 0.6048984403	 1.8538120316	-0.4793889742	 0.26164
H	-1.0735652439	 1.5368556703	-0.5645889857	 0.270332
H	 2.4815124082	 0.5776563413	-0.684058669	 0.120766
H	 2.4059036325	 1.0097261429	 1.0216944381	 0.130741
H	 3.242333015	-1.7812423466	 0.9058688123	 0.092722
H	-1.143107576	-1.8225735997	 0.3423308915	 0.121891
H	-3.0592378322	-0.9022626577	 1.7185315637	 0.131341
H	-2.2711985418	 0.7656929716	 1.6952016804	 0.129227
19.3663	64.073	105.027	115.1045	191.0172	275.03	311.0603	343.3297	383.7947	457.5518	565.3387	581.0777	635.0449	691.9504	737.4614	823.4013	861.4747	927.7822	1005.2932	1047.5223	1058.4853	1079.4035	1096.4007	1152.0508	1159.9599	1169.6866	1233.1727	1262.0731	1328.9781	1355.5296	1396.2319	1425.5846	1434.8017	1520.4826	1623.21	1745.8212	1841.0428	2900.6339	2945.3188	2979.047	3097.2054	3164.4211	3192.0515	3571.8665	3696.8898
NC(=NCC=O)C1CO1	NC(=NCC=O)[C@H]1CO1	
InChI=1S/C5H8N2O2/c6-5(4-3-9-4)7-1-2-8/h2,4H,1,3H2,(H2,6,7)	InChI=1S/C5H8N2O2/c6-5(4-3-9-4)7-1-2-8/h2,4H,1,3H2,(H2,6,7)/t4-/m1/s1
