22
gdb 10721	2.38723	1.68818	1.37827	1.283	77.78	-0.2614	0.0742	0.3355	1065.3301	0.198783	-350.191466	-350.181844	-350.1809	-350.225415	36.152	
C	 1.4198428158	-1.1419041547	-1.0738294589	-0.386103
C	 0.3727916107	-0.4047157671	-0.2203457997	-0.033068
C	-1.0408156306	-0.7648576715	-0.6964631934	-0.412387
C	 0.6202905886	-0.637321325	 1.2784734612	 0.399504
C	 1.7757862916	 0.1664221439	 1.837693842	-0.154554
O	 1.4395158849	 1.5486396073	 1.7673820927	-0.421914
C	-0.5093852777	-0.882711573	 2.2526394908	-0.308135
C	 0.4218284449	-2.0090880186	 1.8818348235	-0.320787
H	 1.3088281292	-2.2280970739	-0.9788416041	 0.11019
H	 1.3065918104	-0.8866539032	-2.1327186562	 0.106887
H	 2.4436806474	-0.8877152207	-0.7831073349	 0.108063
H	 0.5048560068	 0.672306451	-0.379551164	 0.091145
H	-1.2801661328	-1.8187379493	-0.5105666301	 0.110489
H	-1.8035266877	-0.1517327322	-0.2089013008	 0.118926
H	-1.1256729074	-0.60093141	-1.7755789077	 0.108848
H	 1.9627561815	-0.1386611899	 2.8796142878	 0.078217
H	 2.6963059429	-0.0381353117	 1.2693000269	 0.084365
H	 2.2294992063	 2.0594337149	 1.9664118838	 0.285294
H	-0.4199326025	-0.4426771589	 3.240068532	 0.109815
H	-1.5258259866	-0.9262347857	 1.8820033008	 0.110435
H	 0.0321610317	-2.7918467906	 1.2395762313	 0.109966
H	 1.1362381427	-2.3625460111	 2.6185255669	 0.104802
59.1412	105.8178	199.8569	215.9092	239.6227	252.3203	259.8579	297.1824	352.9814	391.1846	421.503	452.8035	578.8411	662.6743	782.9079	854.0041	913.1811	920.7213	930.0117	940.9638	958.5638	971.193	1037.6358	1058.3725	1067.7289	1081.3582	1115.1285	1141.3802	1183.7361	1189.3643	1234.5289	1243.5823	1287.5828	1355.73	1360.8485	1381.7001	1400.5767	1419.0622	1456.3032	1468.2117	1487.5407	1494.3371	1500.4301	1510.0049	1514.7471	1519.3792	2966.5031	2996.6683	3027.0333	3029.9508	3036.8355	3089.3445	3097.3832	3101.491	3111.0244	3126.7453	3140.6186	3204.6425	3226.5125	3830.3977
CC(C)C1(CO)CC1	CC(C)C1(CO)CC1	
InChI=1S/C7H14O/c1-6(2)7(5-8)3-4-7/h6,8H,3-5H2,1-2H3	InChI=1S/C7H14O/c1-6(2)7(5-8)3-4-7/h6,8H,3-5H2,1-2H3
