20
gdb 95852	2.36769	1.37608	1.10941	3.7424	78.88	-0.2136	0.0266	0.2402	1187.0696	0.173707	-399.337645	-399.329004	-399.32806	-399.370765	33.253	
C	 0.034763351	 1.5817138215	 0.0147424743	-0.407681
C	 0.0168800773	 0.0579072004	-0.0433739742	 0.03969
C	 0.7305144244	-0.4937293534	-1.2927251549	-0.163586
N	 0.8479679958	-1.9546122045	-1.3110172703	-0.285466
C	 1.4314197349	-2.4738555634	-0.0842044555	-0.174022
C	 0.7296105714	-1.9433345771	 1.1978089786	-0.146701
N	 0.5895296371	-0.4816364431	 1.2050897686	-0.292708
C	-0.598585137	-2.5698961109	 1.3294356153	 0.298811
N	-1.6269518725	-3.0943354113	 1.3859682656	-0.330917
H	 1.0640324863	 1.9612161923	 0.0376212126	 0.11102
H	-0.4562395684	 2.0103377517	-0.8639170771	 0.121777
H	-0.4788146889	 1.9382138609	 0.9112823575	 0.132831
H	-1.0278589681	-0.2829232921	-0.0725488938	 0.099696
H	 0.2119995199	-0.1750970964	-2.2038408651	 0.105057
H	 1.7467942797	-0.0734276891	-1.3370544839	 0.094441
H	-0.0659370756	-2.3736966792	-1.4578427125	 0.230842
H	 1.4197961034	-3.568021749	-0.1081080806	 0.121023
H	 2.4807013505	-2.1526841954	-0.0333588431	 0.104774
H	 1.3119178296	-2.229892828	 2.0821741932	 0.123305
H	 1.5113642492	-0.078487494	 1.3537730555	 0.217814
102.697	110.494	200.3173	226.002	274.5659	304.9983	346.258	414.9761	427.7194	466.0505	533.0029	611.0047	714.5378	743.8676	792.0184	793.2399	874.353	906.3531	926.1866	958.7711	995.517	1013.6689	1099.5586	1118.6187	1148.0063	1168.5017	1172.0816	1224.7414	1278.0101	1310.9089	1322.1724	1358.0266	1375.6005	1380.7012	1399.0157	1411.4048	1465.6165	1476.1744	1479.0399	1491.3128	1500.8871	1506.3027	2354.7367	2994.0969	3013.1159	3016.554	3030.1871	3039.9018	3067.5775	3084.1233	3097.9791	3123.859	3494.0853	3508.9378
CC1CNCC(N1)C#N	C[C@H]1CNC[C@@H](N1)C#N	
InChI=1S/C6H11N3/c1-5-3-8-4-6(2-7)9-5/h5-6,8-9H,3-4H2,1H3	InChI=1S/C6H11N3/c1-5-3-8-4-6(2-7)9-5/h5-6,8-9H,3-4H2,1H3/t5-,6-/m0/s1
