21
gdb 75033	2.54275	1.41718	1.01178	0.6524	97.15	-0.2044	-0.0282	0.1762	1245.2198	0.184241	-349.972509	-349.964006	-349.963062	-350.005375	33.417	
C	 0.1546685962	 1.4923929959	 0.0763893443	-0.456821
C	-0.0065311509	-0.0080764487	-0.0107769131	 0.277291
C	-0.0562582515	-0.5796265133	-1.2300520418	-0.136859
C	-0.1816696438	-1.9402863642	-1.753915141	-0.096749
C	 0.3316619682	-3.1228613762	-1.3578038654	-0.107581
C	 1.0724727507	-3.4212735535	-0.1423696717	-0.078022
C	 0.7602345525	-2.9785730441	 1.081388669	-0.05626
C	-0.4440814069	-2.1464295757	 1.4114609718	-0.273392
C	-0.180747256	-0.6342352845	 1.3520668685	-0.272893
H	 1.0435588555	 1.7569484249	 0.6641352005	 0.122614
H	 0.2505859455	 1.9549031477	-0.9087323253	 0.118818
H	-0.6998337956	 1.9526001905	 0.5906678162	 0.120624
H	-0.0155914214	 0.1374049744	-2.0516777507	 0.076522
H	-0.6720019048	-1.9550639194	-2.727300953	 0.086261
H	 0.2203317377	-3.9533867599	-2.0538404183	 0.087674
H	 1.9185842045	-4.0980318778	-0.2533367875	 0.08665
H	 1.4034936875	-3.2559441152	 1.914377977	 0.085012
H	-1.2643990407	-2.3904934861	 0.7286875118	 0.117082
H	-0.7826718452	-2.3908355609	 2.4250546198	 0.094379
H	 0.7004178474	-0.3964595403	 1.9644652646	 0.106834
H	-1.0109553088	-0.1033611234	 1.8446069042	 0.098815
81.9212	159.8096	205.5645	253.1582	283.7618	292.2404	346.2364	409.9048	437.8175	529.9867	580.5838	631.0604	719.5098	763.4721	792.6914	838.3692	867.2684	902.0078	928.7538	970.3588	995.5361	1003.4122	1009.4161	1044.4259	1060.3937	1083.4756	1107.7641	1167.1582	1201.1079	1260.5894	1273.0151	1295.8193	1349.7559	1376.6597	1409.6157	1418.2052	1429.0006	1465.7136	1475.1485	1477.4178	1488.9659	1494.1316	1664.2422	1701.0273	1707.4606	2981.0768	3010.3155	3015.5978	3033.7097	3054.1727	3080.7249	3095.1516	3113.7257	3116.7097	3125.8333	3138.9251	3152.6717
CC1=CC=CC=CCC1	CC1=CC=CC=CCC1	
InChI=1S/C9H12/c1-9-7-5-3-2-4-6-8-9/h2-5,7H,6,8H2,1H3/b4-2-,5-3-,9-7-	InChI=1S/C9H12/c1-9-7-5-3-2-4-6-8-9/h2-5,7H,6,8H2,1H3/b4-2-,5-3-,9-7-
