15
gdb 124682	3.99236	1.0883	1.00851	2.5505	67.35	-0.2777	-0.0493	0.2284	1171.8236	0.112389	-450.117465	-450.109265	-450.108321	-450.151686	28.168	
C	-0.1842638487	 1.4175340877	-0.0223960362	-0.397255
C	 0.0190503625	-0.0960761291	 0.02442892	-0.049698
C	 0.732115048	-0.6389356476	-1.2221868637	 0.163892
O	 0.6618599045	-0.1038921836	-2.2932159298	-0.227978
N	 0.7386375363	-0.5299131147	 1.2157410999	 0.125228
N	 0.1626246168	-1.1163931124	 2.2600055174	-0.239237
C	 1.2045177723	-1.2905602497	 3.0636245091	 0.076563
N	 2.3607620386	-0.8341229767	 2.5309281431	-0.200612
N	 2.0477853735	-0.3520160318	 1.3544510555	-0.119103
H	 0.7790526838	 1.9301832755	 0.027145024	 0.155991
H	-0.6671081949	 1.6792520844	-0.9654493349	 0.155104
H	-0.8086866296	 1.7465494056	 0.8108973139	 0.137739
H	-0.9469401268	-0.6115475873	 0.0808783234	 0.153378
H	 1.2908108777	-1.5840584422	-1.0613673333	 0.111719
H	 1.131742856	-1.7504672781	 4.0355472516	 0.154267
35.947	83.6567	126.7974	197.9607	233.1857	262.2978	403.1287	417.7048	566.5559	712.9494	730.6623	745.4181	856.5363	903.2759	926.9544	1020.0137	1029.4686	1059.623	1113.9127	1135.1743	1156.3235	1195.818	1256.6612	1306.7555	1318.7894	1368.2388	1386.3341	1405.0353	1419.3748	1485.5476	1488.8733	1499.7562	1845.5617	2927.3246	3060.939	3063.4106	3143.7766	3152.9578	3290.1649
CC(C=O)N1N=CN=N1	C[C@@H](C=O)n1ncnn1	
InChI=1S/C4H6N4O/c1-4(2-9)8-6-3-5-7-8/h2-4H,1H3	InChI=1S/C4H6N4O/c1-4(2-9)8-6-3-5-7-8/h2-4H,1H3/t4-/m0/s1
