22
gdb 118165	2.72864	0.68131	0.57376	4.1723	84.23	-0.2407	0.0203	0.2611	1971.9708	0.191034	-441.472061	-441.460559	-441.459615	-441.510352	39.358	
C	 0.4219520231	 1.0316976228	-0.6441592049	-0.250288
O	-0.4436150088	 0.4625091402	 0.3291332916	-0.19482
C	-1.1559292623	-0.6102558775	-0.0824489473	 0.123852
N	-1.9699777333	-1.1580501077	 0.7014415626	-0.229843
C	-2.7401944279	-2.3334740489	 0.3065343728	 0.055916
C	-2.5120298787	-2.8731541185	-1.1122444511	-0.416347
C	-2.5121648862	-3.4363070739	 1.3589366511	-0.182626
C	-2.9132152756	-3.0299175809	 2.778132936	-0.065424
O	-2.7608044352	-4.096803934	 3.7070958862	-0.423235
H	 0.9485733129	 1.8478289629	-0.1479953902	 0.146025
H	 1.1561717287	 0.3023914165	-1.0087772019	 0.124489
H	-0.1387793956	 1.434387959	-1.4968583027	 0.125915
H	-0.9414833038	-0.9131871338	-1.1154391576	 0.074729
H	-3.7961877988	-2.0322223468	 0.3812147624	 0.089911
H	-3.1791873064	-3.7199642689	-1.2965904499	 0.117965
H	-2.7212230177	-2.1165146902	-1.8755938714	 0.113577
H	-1.4831839158	-3.225154853	-1.2500901455	 0.114912
H	-3.0826255311	-4.3291083061	 1.0777632728	 0.098107
H	-1.4491891584	-3.7178776523	 1.3467255589	 0.081862
H	-2.3537377115	-2.1381541379	 3.0856371933	 0.113948
H	-3.9777274282	-2.7696889138	 2.8022205722	 0.103514
H	-1.8183395394	-4.2670447571	 3.8002261827	 0.277861
37.8315	59.9727	77.2072	105.1836	146.963	153.1599	188.7953	223.6238	286.5757	292.5052	328.9119	368.1931	399.3588	500.5585	532.272	580.2219	794.2762	862.3028	935.2347	975.3227	987.6286	1015.0794	1058.104	1072.221	1100.7811	1123.9433	1133.5238	1176.5793	1185.172	1197.0802	1273.3815	1293.3228	1312.2468	1353.9309	1367.3844	1394.0467	1399.4494	1417.2727	1420.7714	1478.2825	1484.3678	1494.9599	1496.0268	1501.1639	1503.6941	1515.042	1776.1172	2985.9583	3007.5763	3008.7357	3026.5056	3029.5061	3037.5112	3057.8157	3072.2666	3081.8096	3095.8202	3109.5763	3143.0953	3817.991
COC=NC(C)CCO	COC=N[C@@H](C)CCO	
InChI=1S/C6H13NO2/c1-6(3-4-8)7-5-9-2/h5-6,8H,3-4H2,1-2H3	InChI=1S/C6H13NO2/c1-6(3-4-8)7-5-9-2/h5-6,8H,3-4H2,1-2H3/t6-/m0/s1
