15
gdb 132514	3.0503	1.29059	0.912	2.4546	71.89	-0.237	-0.0114	0.2256	1188.7861	0.111334	-469.945823	-469.937949	-469.937005	-469.979378	29.138	
C	-0.0119124784	 1.5238256235	 0.0131022908	-0.492966
C	 0.0020921551	 0.0148547974	-0.004551317	 0.328929
C	-0.0588300546	-0.6977790962	-1.2022921023	-0.197629
C	-0.0414500039	-2.0925053003	-1.215945532	-0.234297
C	 0.0371696006	-2.7861187351	-0.0219375517	 0.150347
F	 0.0549742498	-4.1197794222	-0.001743621	-0.06308
C	 0.0981059373	-2.0872014979	 1.1825508276	 0.18212
F	 0.172660035	-2.7727008738	 2.324350796	-0.063498
C	 0.0808639865	-0.7042289146	 1.1945049622	-0.33691
H	 0.9163787636	 1.9274371563	 0.4331319585	 0.135435
H	-0.1253052836	 1.9300847217	-0.9950422148	 0.126363
H	-0.8349572539	 1.9093040093	 0.6247950976	 0.134431
H	-0.1210855309	-0.1605613191	-2.1426959706	 0.100634
H	-0.0889084142	-2.6516967554	-2.1431205252	 0.118205
H	 0.1294853514	-0.1975391537	 2.1525120321	 0.111915
25.1157	146.8836	225.8545	278.7423	296.5446	362.747	437.9657	464.6865	506.1312	587.1472	601.9474	700.5767	730.3956	793.7923	830.6558	886.3068	932.4266	954.8216	1022.3313	1062.3086	1144.6006	1165.1768	1238.1123	1287.7269	1326.3816	1339.2168	1414.6128	1452.6528	1484.622	1499.4777	1558.7781	1639.0555	1659.1031	3032.1271	3085.2056	3117.7723	3182.7368	3189.3712	3205.7405
CC1=CC=C(F)C(F)=C1	Cc1ccc(F)c(F)c1	
InChI=1S/C7H6F2/c1-5-2-3-6(8)7(9)4-5/h2-4H,1H3	InChI=1S/C7H6F2/c1-5-2-3-6(8)7(9)4-5/h2-4H,1H3
