18
gdb 38686	2.70842	2.04343	1.75278	1.4766	73.63	-0.2359	0.0184	0.2542	865.7607	0.151697	-401.921109	-401.914792	-401.913848	-401.951389	27.042	
C	 0.0036391551	 1.5189374623	 0.0889054756	-0.226976
C	 1.4221841315	 2.0760109428	-0.0417203005	-0.004119
N	 2.3917179635	 1.8434163979	 1.0423287645	-0.326117
C	 2.5640915753	 1.1396973381	-0.243632333	-0.058238
C	 2.174144012	-0.3494379887	-0.3034844613	 0.017458
O	 0.9249281166	-0.4305164133	-1.0044697283	-0.252403
C	-0.0220007107	-0.0313201807	-0.0109906391	 0.022816
C	 0.5194719558	-0.6915497244	 1.2507078896	-0.079197
C	 1.8192139524	-0.8881030883	 1.0746499647	-0.052673
H	-0.4651652149	 1.8574084015	 1.0201563681	 0.104164
H	-0.5865517016	 1.923046188	-0.7407157791	 0.102494
H	 1.4796214017	 3.0383693355	-0.545524524	 0.083699
H	 3.0399504531	 2.62540895	 1.0940699395	 0.227428
H	 3.3777740609	 1.4511297499	-0.8929009271	 0.082226
H	 2.9101599515	-0.9342183407	-0.8603330682	 0.074027
H	-1.0104161867	-0.3842695587	-0.3188628407	 0.078985
H	-0.065857955	-0.8695952642	 2.1429603729	 0.101498
H	 2.5441980094	-1.2467066771	 1.7917675663	 0.104927
192.5787	252.999	365.0873	427.7779	460.5261	474.5634	623.2642	681.0258	726.3527	750.7931	806.7566	829.9408	848.3722	883.4212	891.1117	917.3546	932.8131	943.4673	962.6075	993.1442	1017.9198	1033.6002	1063.4901	1107.8226	1134.3427	1165.6732	1193.2656	1217.3063	1253.1787	1284.2676	1294.5363	1322.9549	1331.2568	1361.7937	1370.5656	1393.5689	1449.7354	1471.9257	1677.2233	3034.2837	3067.1238	3078.3766	3081.5179	3122.1619	3142.9169	3215.754	3242.7355	3494.0107
C1C2NC2C2OC1C=C2	C1[C@H]2N[C@H]2[C@@H]2O[C@H]1C=C2	
InChI=1S/C7H9NO/c1-2-6-7-5(8-7)3-4(1)9-6/h1-2,4-8H,3H2	InChI=1S/C7H9NO/c1-2-6-7-5(8-7)3-4(1)9-6/h1-2,4-8H,3H2/t4-,5+,6+,7+/m0/s1
