19
gdb 125608	2.05871	1.61445	0.95709	1.4037	79.03	-0.2267	0.0232	0.2498	1241.1167	0.159545	-419.239647	-419.230001	-419.229056	-419.274263	34.69	
C	 0.1376153844	 1.4823557803	 0.0121702616	-0.513386
C	 0.0904682979	-0.0063227123	-0.1066884948	 0.308677
C	 0.0114417015	-0.8329911606	-1.2188931941	 0.010614
C	-0.0166795944	-0.4035643569	-2.6540133939	-0.185264
O	 1.0500694317	 0.4841432345	-3.0008041909	-0.411485
C	-0.0131319775	-2.1537123614	-0.6925415779	 0.273127
C	-0.0986402077	-3.4511499204	-1.4353017921	-0.495996
N	 0.0450792666	-2.1471025806	 0.6369478557	-0.296227
N	 0.1060821432	-0.8371510847	 0.9632837872	-0.25974
H	 0.7918135746	 1.8012311814	 0.8307757285	 0.12455
H	 0.5180058194	 1.9062121289	-0.9188782232	 0.164093
H	-0.8559937433	 1.9074980012	 0.1995112166	 0.137611
H	-0.0141369409	-1.2916159095	-3.3035359069	 0.094837
H	-0.9289118999	 0.1562712036	-2.8906050311	 0.113751
H	 1.8651739862	 0.0736265033	-2.6926671111	 0.278271
H	 0.7003715047	-3.5467348474	-2.1791376588	 0.122456
H	-0.0133026603	-4.2816858511	-0.7315198278	 0.140287
H	-1.0501563515	-3.5527302021	-1.9693282286	 0.127742
H	 0.1771470554	-0.5811037864	 1.9338082914	 0.266084
75.7436	114.4833	132.1131	148.2649	185.8748	233.5165	261.9048	334.3038	358.3982	403.6121	481.6035	508.4425	588.493	675.8604	700.5497	740.1831	788.4072	954.0065	994.7447	1013.0087	1027.1978	1062.7394	1066.4529	1092.6444	1175.742	1215.1242	1234.962	1309.3974	1361.3076	1404.7383	1412.6112	1423.3132	1432.1253	1471.2223	1482.9832	1488.4751	1500.6722	1506.1572	1512.1855	1532.1184	1616.721	2993.6528	3027.7659	3032.0414	3051.6462	3080.8878	3081.6541	3131.2466	3139.0116	3665.7773	3806.1123
CC1=C(CO)C(C)=NN1	Cc1c(CO)c(C)n[nH]1	
InChI=1S/C6H10N2O/c1-4-6(3-9)5(2)8-7-4/h9H,3H2,1-2H3,(H,7,8)	InChI=1S/C6H10N2O/c1-4-6(3-9)5(2)8-7-4/h9H,3H2,1-2H3,(H,7,8)
