19
gdb 93054	2.49092	1.58643	1.02093	3.2952	86.37	-0.2387	-0.0692	0.1695	1169.3638	0.16032	-385.929917	-385.921559	-385.920615	-385.963041	31.936	
C	-0.0386692859	 1.6332855006	-0.0152041091	-0.390222
C	 0.1560054589	 0.1148450545	 0.0052273874	-0.103842
C	 0.6237530304	-0.419433433	-1.3670934984	-0.27006
C	 0.314122382	-1.8684828184	-1.6115520321	-0.074019
C	 0.5732273824	-2.8747741436	-0.7626203258	-0.072621
C	 1.2563380402	-2.7804815118	 0.5168853226	-0.068171
C	 1.5221170574	-1.7077339107	 1.2906955907	-0.148954
C	 1.1078059028	-0.297080208	 1.1343388853	 0.352023
O	 1.5024083816	 0.5221542602	 1.9453981125	-0.33145
H	 0.8932066144	 2.1415836447	-0.2823750311	 0.123061
H	-0.8033671082	 1.9087588332	-0.748036181	 0.102825
H	-0.339316714	 2.0032871238	 0.9660956107	 0.133736
H	-0.8080389414	-0.3655807745	 0.2327988068	 0.100451
H	 0.1529936384	 0.1820624025	-2.1506459489	 0.110973
H	 1.7078123022	-0.2510335159	-1.4718096972	 0.124567
H	-0.1430195021	-2.1151226296	-2.5665313149	 0.102478
H	 0.3158600855	-3.883894419	-1.0735597861	 0.095758
H	 1.6242347184	-3.7343383343	 0.8917535598	 0.105814
H	 2.0988941771	-1.8568268907	 2.1992530887	 0.107653
57.5912	132.129	203.8805	246.0516	307.7748	334.3025	353.9849	376.9296	473.8999	533.6563	610.9895	688.5551	701.6074	762.3161	847.8036	864.8121	890.5844	923.6822	925.0436	1003.2668	1036.2865	1045.3599	1061.8663	1094.1404	1136.4775	1183.1283	1208.2774	1260.316	1270.6543	1308.793	1340.1627	1385.3071	1410.3449	1417.228	1455.0824	1468.4436	1489.019	1495.8185	1644.12	1698.1168	1745.2926	2982.5695	2997.7725	3043.5125	3071.8651	3108.6269	3135.2407	3139.5375	3151.6096	3171.641	3177.0191
CC1CC=CC=CC1=O	C[C@H]1CC=CC=CC1=O	
InChI=1S/C8H10O/c1-7-5-3-2-4-6-8(7)9/h2-4,6-7H,5H2,1H3	InChI=1S/C8H10O/c1-7-5-3-2-4-6-8(7)9/h2-4,6-7H,5H2,1H3/t7-/m0/s1
