18
gdb 13440	3.59425	1.19612	1.08911	4.0207	68.83	-0.2405	-0.0146	0.2259	1144.408	0.15108	-384.929392	-384.920194	-384.91925	-384.96428	32.218	
C	 0.0449419664	 1.6309115286	-0.0328868808	-0.415702
C	 0.0934819466	 0.1182628368	-0.0186879132	-0.073281
C	 1.4115033887	-0.6222223053	-0.1308710037	 0.080191
O	 2.6103783139	 0.0971241314	-0.101617207	-0.41162
C	 0.6422809813	-0.6666090081	 1.1631739089	-0.061615
C	 1.1807005924	 0.0083099506	 2.4099781807	-0.297506
C	 1.9261860179	-0.9602475256	 3.3092703087	 0.171273
O	 2.9008487305	-0.6844234555	 3.9574931211	-0.241024
H	 0.9808751116	 2.0666852155	 0.3231702802	 0.130947
H	-0.128709768	 2.0011187771	-1.0494965921	 0.114285
H	-0.7670089725	 2.0111451884	 0.5961802742	 0.121241
H	-0.7440403834	-0.3563272076	-0.5244804749	 0.085659
H	 1.4434723168	-1.528029363	-0.7360632237	 0.086188
H	 2.7301153479	 0.519769111	-0.9585374105	 0.292045
H	 0.1333803982	-1.6066022845	 1.3660614429	 0.087454
H	 1.8479490875	 0.8403457348	 2.1835841596	 0.143159
H	 0.3436225228	 0.4031531831	 3.006729556	 0.12232
H	 1.4823456114	-1.9842962477	 3.3522831336	 0.065985
41.2628	56.8818	128.5587	172.1557	198.8582	256.6032	285.0429	302.911	460.2986	473.2384	582.84	596.8174	714.4923	769.7078	809.6159	909.4552	955.4969	988.504	1031.5635	1046.2101	1087.8626	1119.2161	1152.0692	1167.7437	1180.9623	1233.0827	1251.5198	1281.6809	1295.9271	1381.2272	1393.3352	1416.9788	1432.4469	1444.3862	1465.0657	1500.2639	1507.1668	1839.7112	2839.5957	2998.9343	3034.3898	3087.8489	3095.8724	3117.9493	3126.3445	3135.3572	3142.7674	3806.2476
CC1C(O)C1CC=O	C[C@H]1[C@@H](O)[C@H]1CC=O	
InChI=1S/C6H10O2/c1-4-5(2-3-7)6(4)8/h3-6,8H,2H2,1H3	InChI=1S/C6H10O2/c1-4-5(2-3-7)6(4)8/h3-6,8H,2H2,1H3/t4-,5+,6-/m1/s1
