21
gdb 111523	3.43225	1.13096	1.03824	1.4646	83.2	-0.2237	0.0777	0.3015	1274.4506	0.181574	-387.032425	-387.023705	-387.022761	-387.065964	33.846	
C	-0.2838236959	 1.4368379481	 0.1403781355	-0.374106
C	 0.2158795423	 0.0106037812	-0.1184805347	-0.208515
C	 0.840983564	-0.6086643078	 1.1136424114	-0.024986
C	 0.0692021475	-1.3543963029	 2.1607894607	 0.073826
O	-1.0238963779	-2.0923553462	 1.5923902685	-0.314833
C	-0.0859275367	-2.9009756061	 0.8593241697	 0.474821
C	-0.2328530363	-4.3841951861	 0.80944895	-0.348355
C	-0.4320078958	-3.537270781	-0.4438717931	-0.332426
C	 1.0984024927	-2.0944723438	 1.3293926529	-0.263736
H	 0.5324937539	 2.0946507073	 0.4599614986	 0.10892
H	-0.7259986097	 1.8706498501	-0.7618877949	 0.110206
H	-1.045994208	 1.4473728105	 0.9263942408	 0.122298
H	-0.6180425789	-0.6140752896	-0.4497425633	 0.120007
H	 0.9500793346	 0.0169602137	-0.9340741646	 0.092112
H	 1.6392723055	-0.0136514396	 1.5584545943	 0.08402
H	 0.0121859437	-1.1169193269	 3.2166606224	 0.100933
H	 0.6610511152	-4.9949223746	 0.887546316	 0.114248
H	-1.117977082	-4.8075086207	 1.2713946027	 0.125647
H	-1.4499204964	-3.4120325409	-0.7973876342	 0.124957
H	 0.3196110143	-3.572840649	-1.2253303947	 0.117483
H	 2.063088664	-2.5022567956	 1.6013084458	 0.097477
65.6432	100.7722	171.6408	230.5657	245.6222	286.3208	310.795	407.0218	544.4512	572.1845	622.186	724.2213	754.0465	788.7763	815.1932	861.7844	874.0782	887.9716	918.0573	951.0029	973.5347	994.9818	1019.4637	1047.5254	1050.4179	1059.8667	1065.9161	1069.5007	1091.4306	1130.3881	1187.0022	1198.7746	1205.7391	1268.9578	1298.5162	1318.0077	1359.2835	1400.42	1407.8983	1444.6104	1448.0834	1483.067	1498.404	1504.031	1506.4528	3028.1957	3030.0085	3083.3803	3101.6592	3105.6667	3114.7308	3127.841	3131.597	3178.0633	3198.0675	3211.8613	3225.9371
CCC1C2OC3(CC3)C12	CC[C@H]1[C@H]2OC3(CC3)[C@@H]12	
InChI=1S/C8H12O/c1-2-5-6-7(5)9-8(6)3-4-8/h5-7H,2-4H2,1H3	InChI=1S/C8H12O/c1-2-5-6-7(5)9-8(6)3-4-8/h5-7H,2-4H2,1H3/t5-,6+,7-/m1/s1
