21
gdb 81238	2.84679	1.52104	1.39595	1.3884	82.45	-0.237	0.088	0.325	1060.3017	0.184382	-387.021124	-387.0134	-387.012455	-387.053247	31.292	
C	-0.0476682911	 1.6510657296	-0.0031698227	-0.448591
C	 0.0449242735	 0.135141443	-0.0902749703	-0.000259
C	 1.2247876659	-0.5909127912	-0.7909392667	-0.121827
C	 2.1383349283	-0.2225547409	 0.4495607982	-0.312588
C	 0.7793549643	-0.7322084008	 1.0026908615	 0.427198
O	 0.2371938956	-1.1406043917	 2.2122527031	-0.326201
C	-0.5592716404	-2.3166089452	 1.8942067208	-0.08057
C	-0.4484290403	-2.620131328	 0.3498258222	-0.327798
C	 0.8588393607	-1.892522795	 0.0221289366	-0.003592
H	 0.8928492709	 2.1377072132	 0.2644152104	 0.117865
H	-0.3733686039	 2.0709071666	-0.9617375007	 0.114343
H	-0.7917783227	 1.9392084038	 0.7475519444	 0.12239
H	-0.9332132382	-0.260163568	-0.3750132052	 0.060134
H	 1.5175333987	-0.5159476177	-1.836953557	 0.077292
H	 3.0001624934	-0.8727631012	 0.6175064392	 0.097273
H	 2.4036810067	 0.8259179445	 0.5796280821	 0.099156
H	-0.1715939973	-3.149750396	 2.4913907622	 0.108507
H	-1.5944617957	-2.1305166661	 2.1979692174	 0.109007
H	-0.3960432045	-3.6961773719	 0.1688808608	 0.102822
H	-1.324471509	-2.2418638355	-0.1796010148	 0.116833
H	 1.7204606151	-2.5481983914	 0.1812741384	 0.068605
84.3578	152.7785	205.9331	260.0521	366.3182	394.1855	472.4333	533.8764	592.248	635.9849	720.1677	752.3069	776.882	820.3474	836.6327	886.5378	902.9014	917.8271	970.698	987.7452	1011.736	1041.076	1049.7341	1073.7461	1098.1132	1115.4636	1143.064	1156.5977	1177.537	1201.5916	1203.9752	1214.6336	1221.6731	1233.7751	1257.9057	1285.2533	1382.6745	1402.3039	1408.0466	1421.1339	1493.1022	1495.4794	1503.0714	1518.7806	1533.8073	3033.1641	3033.8848	3052.2974	3065.8593	3073.5196	3075.4727	3080.4523	3087.8923	3118.5376	3123.6961	3128.13	3147.0979
CC1C2CC11OCCC21	C[C@H]1[C@H]2C[C@]31OCC[C@@H]23	
InChI=1S/C8H12O/c1-5-6-4-8(5)7(6)2-3-9-8/h5-7H,2-4H2,1H3	InChI=1S/C8H12O/c1-5-6-4-8(5)7(6)2-3-9-8/h5-7H,2-4H2,1H3/t5-,6+,7-,8+/m0/s1
