17
gdb 49161	4.00933	1.20652	1.07874	3.1237	75.76	-0.2483	-0.0633	0.1849	1119.8562	0.137349	-421.826538	-421.819394	-421.81845	-421.858234	28.025	
O	-0.052568733	-0.0074344031	-0.077504891	-0.272934
C	 0.010091425	 1.2019250714	-0.0636484362	 0.085511
C	 1.2644971343	 1.9638861228	-0.0193205687	 0.22641
C	 1.2633307227	 3.3056912321	 0.0157734247	-0.143571
C	 2.6190439631	 3.9751686764	 0.044848382	 0.04447
C	 3.4674323254	 3.3365849254	 1.1734313713	-0.24469
C	 3.7201761109	 2.2811422709	 0.0715799256	 0.075909
C	 2.5962563332	 1.2392691456	-0.0118310021	-0.309619
O	 3.4673428513	 3.308948301	-0.936578296	-0.290317
H	-0.9097537772	 1.8293615182	-0.0805594463	 0.067624
H	 0.3435104827	 3.883863632	 0.0300002506	 0.109025
H	 2.5969816227	 5.0580765462	-0.0856266497	 0.084392
H	 4.3657417895	 3.9189001938	 1.3828664631	 0.117086
H	 2.9680290524	 3.0380559082	 2.0968419717	 0.107315
H	 4.7168865084	 1.8448875634	-0.0259413412	 0.084556
H	 2.6435593011	 0.5361433867	 0.8281887629	 0.125169
H	 2.7002072474	 0.6372198189	-0.9216020907	 0.133663
96.1401	196.4869	213.1648	328.7777	371.5568	427.9846	488.872	542.6299	584.5039	695.5845	797.1746	837.3356	850.4515	871.7958	877.8313	928.6176	949.1093	986.534	995.4843	1042.9373	1066.6177	1080.1699	1100.8748	1173.1899	1209.3005	1219.5133	1249.0969	1302.3648	1316.1962	1322.8381	1355.9662	1392.3995	1422.6684	1460.4447	1486.5548	1685.6236	1785.5366	2876.0092	3041.7558	3074.663	3076.4886	3088.6757	3104.9695	3143.3004	3171.2316
O=CC1=CC2CC(C1)O2	O=CC1=C[C@H]2C[C@@H](C1)O2	
InChI=1S/C7H8O2/c8-4-5-1-6-3-7(2-5)9-6/h1,4,6-7H,2-3H2	InChI=1S/C7H8O2/c8-4-5-1-6-3-7(2-5)9-6/h1,4,6-7H,2-3H2/t6-,7+/m0/s1
