16
gdb 22124	3.18127	0.9983	0.90791	1.3982	75.5	-0.2466	-0.0009	0.2457	1300.7868	0.12047	-437.789883	-437.78065	-437.779706	-437.824197	34.531	
O	-0.3570735931	 1.2614188305	 0.6846222121	-0.393056
N	-0.1381075452	-0.1193936733	 0.5249581583	-0.233009
C	-1.0986670118	-0.6584592465	-0.0973764666	 0.442433
C	-2.427998404	-0.1978074117	-0.6518283266	-0.364352
C	-2.8052972723	-1.702896253	-0.8649198841	 0.231834
O	-3.1505993776	-1.9393627289	-2.2153796432	-0.457134
C	-1.3276292942	-2.1069102708	-0.4615536479	-0.376953
C	-3.8168611984	-2.2157328909	 0.0504976556	 0.305786
C	-4.6502002342	-2.675136528	 0.7856154172	-0.497035
H	 0.4230799134	 1.5346848348	 1.1790667548	 0.307437
H	-3.0641694473	 0.381206747	 0.0193805434	 0.139502
H	-2.3481125457	 0.3188315668	-1.6129319375	 0.143291
H	-3.4742947133	-2.8442173187	-2.2871595004	 0.286309
H	-0.769722014	-2.4294450814	-1.3460522104	 0.130237
H	-1.2164385816	-2.8432777814	 0.3365638762	 0.129514
H	-5.3898599006	-3.0671054943	 1.4395601991	 0.205195
33.9805	159.7897	171.1579	197.5779	252.5175	288.2891	351.2043	364.0016	408.9238	447.3117	477.1657	537.2158	587.0637	625.5208	649.341	671.514	751.0632	816.2339	868.0644	926.3156	968.5637	979.0142	1039.395	1087.471	1116.2172	1189.757	1216.811	1244.0848	1261.35	1366.877	1404.4315	1436.9826	1454.4167	1792.6323	2231.0665	3057.6493	3068.0032	3124.7087	3131.1807	3499.6301	3807.3533	3818.2384
ON=C1CC(O)(C1)C#C	ON=C1C[C@@](O)(C1)C#C	
InChI=1S/C6H7NO2/c1-2-6(8)3-5(4-6)7-9/h1,8-9H,3-4H2	InChI=1S/C6H7NO2/c1-2-6(8)3-5(4-6)7-9/h1,8-9H,3-4H2/t6-
