20
gdb 22507	2.53145	0.73165	0.57562	2.0642	75.3	-0.2397	0.0187	0.2584	1868.884	0.167468	-477.365882	-477.354759	-477.353815	-477.403179	38.592	
O	 0.1402722844	 1.2787908177	 0.1181495622	-0.422515
C	-0.0000935054	-0.1189371231	 0.3254684996	-0.081173
C	-1.4302044308	-0.5039803551	-0.0286017568	-0.166413
C	-1.6808017174	-1.9998205626	 0.1626818677	-0.266127
C	-3.0762025136	-2.4578187483	-0.1685238712	 0.33207
C	-3.4313916609	-3.9188569101	-0.0149678593	-0.157116
O	-2.2989650759	-4.6346134552	 0.4461620127	-0.423974
N	-3.9246450824	-1.5931420302	-0.5723371056	-0.164897
O	-5.1744667928	-2.1906564763	-0.83582394	-0.413018
H	 1.0415344073	 1.5263594771	 0.3435807487	 0.283545
H	 0.7067349184	-0.6870976476	-0.3024584438	 0.080958
H	 0.2114696468	-0.3887509444	 1.3738421803	 0.080968
H	-2.1202863342	 0.078301504	 0.5898329105	 0.116013
H	-1.6314817191	-0.2151797817	-1.0648516719	 0.116055
H	-0.980533072	-2.5913418208	-0.4424493348	 0.122727
H	-1.4650726924	-2.3005450572	 1.1968285332	 0.122685
H	-4.2822215391	-3.9991133731	 0.6792876585	 0.120224
H	-3.7902925195	-4.2937044368	-0.986084203	 0.120232
H	-2.549610861	-5.5578660853	 0.5363654894	 0.293015
H	-5.7002779004	-1.437941941	-1.1245452165	 0.306741
58.3304	80.4446	85.4249	100.0859	139.502	207.7596	231.2323	264.8821	266.0032	290.4736	328.0589	391.4418	436.2982	522.4036	552.4599	642.8922	749.6256	813.0092	856.455	987.4273	1000.6401	1029.6652	1050.5153	1083.9164	1106.8731	1124.0366	1168.1905	1209.0125	1233.0234	1246.8788	1263.4395	1298.3241	1307.7946	1313.838	1385.1897	1412.2174	1446.88	1464.8343	1466.4388	1494.5626	1495.0326	1528.3488	1735.0127	2952.8916	2977.002	2980.9791	3002.9002	3021.7963	3041.9156	3060.0864	3102.6393	3826.8948	3830.4587	3843.2983
OCCCC(CO)=NO	OCCCC(=NO)CO	
InChI=1S/C5H11NO3/c7-3-1-2-5(4-8)6-9/h7-9H,1-4H2	InChI=1S/C5H11NO3/c7-3-1-2-5(4-8)6-9/h7-9H,1-4H2
