25
gdb 94727	2.50853	1.4165	1.20107	0.1341	91.57	-0.2705	0.0804	0.3508	1217.5448	0.230412	-352.376075	-352.366992	-352.366048	-352.409276	36.581	
C	-0.0808989182	 1.6105752719	-0.074711947	-0.411471
C	 0.1148735068	 0.0951081448	-0.1022305883	 0.040741
C	 1.0711445789	-0.4235655357	-1.1962953923	-0.223604
C	 1.3301194474	-1.8843543564	-0.787354814	-0.269914
C	 1.4008007245	-1.869176381	 0.7547035818	 0.379428
C	 0.9433259713	-3.1713306082	 1.3962794417	-0.479663
C	 2.7373879547	-1.2916356931	 1.3206859542	-0.269725
C	 2.0137272233	 0.0163604679	 1.7395676157	-0.227167
C	 0.6674488796	-0.5409653989	 1.1884426876	-0.04783
H	 0.8636946335	 2.1373662067	 0.0972406405	 0.113884
H	-0.4878661004	 1.9702482972	-1.0260350026	 0.109968
H	-0.7765750611	 1.9090531319	 0.7171315948	 0.109423
H	-0.866114517	-0.3681267067	-0.2848843295	 0.065816
H	 0.6549556882	-0.3266112481	-2.2038880731	 0.089457
H	 2.0057426479	 0.1529183557	-1.1813020232	 0.094005
H	 0.4862792597	-2.5081747368	-1.1094209411	 0.088255
H	 2.2328161035	-2.3086890822	-1.2404332448	 0.088424
H	 1.582256548	-4.0089913648	 1.0902393836	 0.110613
H	 0.9796262337	-3.1129057243	 2.4899576589	 0.10738
H	-0.0857101261	-3.4177511474	 1.108876721	 0.107929
H	 3.1463528122	-1.8686467306	 2.1548045729	 0.091679
H	 3.5310867303	-1.1652154372	 0.5779487318	 0.090495
H	 2.0109622796	 0.2098871353	 2.8148756936	 0.095069
H	 2.3790199744	 0.9188150068	 1.2426757379	 0.095144
H	-0.1068554648	-0.6531487968	 1.9526012497	 0.051662
76.9278	180.3458	211.2557	229.0386	244.8612	250.693	330.1739	347.5586	394.9762	496.6604	541.3015	562.0741	617.3021	735.3237	786.2612	810.6492	863.0535	868.1751	923.0073	939.144	956.0224	962.8058	969.3883	985.4436	1000.3812	1038.0117	1072.2676	1092.8174	1128.5669	1167.6271	1174.7875	1209.7394	1232.1044	1233.4313	1243.4335	1269.1722	1277.0372	1281.1766	1314.9569	1323.4141	1352.8229	1357.6716	1378.5491	1409.9015	1410.6522	1476.2144	1486.5783	1487.9316	1494.4367	1495.8812	1498.3784	1499.7749	1507.5807	2989.1627	3013.7233	3020.031	3024.4053	3028.7442	3044.434	3056.4175	3063.363	3068.2719	3078.1486	3080.3226	3085.1896	3088.4317	3092.023	3097.4415	3111.5077
CC1CCC2(C)CCC12	C[C@H]1CC[C@@]2(C)CC[C@@H]12	
InChI=1S/C9H16/c1-7-3-5-9(2)6-4-8(7)9/h7-8H,3-6H2,1-2H3	InChI=1S/C9H16/c1-7-3-5-9(2)6-4-8(7)9/h7-8H,3-6H2,1-2H3/t7-,8-,9-/m0/s1
