17
gdb 62572	2.52416	1.47517	1.18685	3.6412	70.25	-0.2374	-0.0081	0.2293	1075.0912	0.133035	-458.948267	-458.939489	-458.938545	-458.981089	33.95	
C	-0.0502709016	 1.5665632446	 0.0000732655	-0.462395
C	 0.0753918946	 0.0651321123	 0.1276816698	 0.307283
O	-1.0974108592	-0.6249993458	-0.2465008175	-0.481249
C	 1.3490337984	-0.7254535623	-0.2531890493	-0.348458
C	 2.5619588045	-0.0986517803	 0.3334766334	 0.420909
O	 3.6660807084	 0.1172435421	-0.0872563595	-0.326753
C	 1.9704473791	-0.0300538297	 1.7686305263	-0.431367
C	 0.7158987079	-0.695826334	 1.2224293352	 0.410368
O	 0.0692618782	-1.6647305111	 1.9285520774	-0.450792
H	 0.8484833271	 2.0804197282	 0.3478619234	 0.139643
H	-0.2022501192	 1.8461279658	-1.0492804709	 0.119411
H	-0.907313123	 1.9267893431	 0.5774851121	 0.133549
H	-1.2302276556	-0.5274169643	-1.1953862921	 0.295743
H	 1.3071752066	-1.4397748837	-1.0678907802	 0.105622
H	 2.5260648581	-0.7100141982	 2.4213411681	 0.145753
H	 1.8718466312	 0.9426478098	 2.258242949	 0.119003
H	-0.7544207255	-1.8497855465	 1.4549606792	 0.303729
103.6365	201.7699	207.4269	233.6354	252.882	300.8142	339.1118	375.6125	455.9348	476.3004	501.7925	516.7024	557.5365	615.9706	674.4599	697.6667	823.6482	854.7984	902.5769	978.7166	992.0073	1046.065	1092.5605	1113.3893	1118.6915	1172.0656	1206.6963	1208.6142	1233.5632	1314.3374	1415.4942	1432.5437	1453.954	1475.5855	1491.2831	1509.5947	1867.4994	3032.889	3059.5438	3098.0093	3113.753	3131.8087	3183.2857	3750.341	3811.106
CC1(O)C2C(=O)CC12O	C[C@@]1(O)[C@H]2C(=O)C[C@@]12O	
InChI=1S/C6H8O3/c1-5(8)4-3(7)2-6(4,5)9/h4,8-9H,2H2,1H3	InChI=1S/C6H8O3/c1-5(8)4-3(7)2-6(4,5)9/h4,8-9H,2H2,1H3/t4-,5-,6+/m1/s1
