15
gdb 24490	3.86943	1.69923	1.18934	1.2819	81.48	-0.2364	-0.0489	0.1875	971.6227	0.116665	-379.74095	-379.734866	-379.733921	-379.771237	24.727	
C	-0.0582737924	 1.4982138381	 0.0104535285	-0.388779
C	 1.4043574468	 1.8823903445	-0.0010275724	-0.080314
C	 2.2006570436	 0.7973991179	-0.0146371451	-0.169417
C	 1.3673609406	-0.4032164682	-0.0136700982	 0.324677
N	 1.7433541599	-1.6780735231	-0.0244280071	-0.344825
C	 0.7216581007	-2.5496735495	-0.0198294104	-0.032243
C	-0.6134461076	-2.1565057547	-0.0051160327	-0.039084
N	-0.991913024	-0.8637358778	 0.0057708308	-0.327424
C	 0.0106146792	-0.0058459975	 0.0012762188	 0.317237
H	-0.5847150804	 1.8799305116	 0.894719807	 0.144152
H	-0.6011333317	 1.8899054659	-0.8594039378	 0.144152
H	 1.7375245182	 2.9123333226	 0.0017080968	 0.112686
H	 3.2825214691	 0.7820491422	-0.0248324598	 0.116155
H	 0.9800166071	-3.6052542208	-0.0282446353	 0.11134
H	-1.4063751192	-2.8987182513	-0.001918613	 0.111687
195.5951	224.7585	401.6091	433.2254	441.6696	556.2041	581.3484	632.3882	731.334	731.524	805.1756	843.4381	878.1333	903.8629	950.6647	954.698	976.3109	983.4305	1078.5525	1090.8145	1135.6459	1177.5076	1226.5545	1238.2541	1291.889	1332.8238	1384.2895	1395.3318	1429.8473	1493.0762	1594.2822	1603.6757	1629.1037	3034.2593	3062.8152	3159.6233	3179.8091	3212.1343	3234.3516
C1C=CC2=NC=CN=C12	C1C=Cc2nccnc12	
InChI=1S/C7H6N2/c1-2-6-7(3-1)9-5-4-8-6/h1-2,4-5H,3H2	InChI=1S/C7H6N2/c1-2-6-7(3-1)9-5-4-8-6/h1-2,4-5H,3H2
