23
gdb 123138	4.23386	0.50842	0.50501	3.3307	80.01	-0.2575	0.0735	0.331	2265.5474	0.202873	-462.548856	-462.537309	-462.536365	-462.587183	40.102	
C	 0.0323488176	 1.5559275472	 0.160108457	-0.391745
C	-0.0730388249	 0.0415827035	-0.0420985081	 0.132919
O	-1.4240823627	-0.3739885277	-0.1839448632	-0.439682
C	 0.7404120329	-0.4461892957	-1.2419050188	-0.077989
O	 0.1319225864	 0.0905009697	-2.4023997513	-0.263165
C	 0.7043913016	-0.3617406911	-3.6123315752	-0.05094
C	-0.0581627002	 0.26215058	-4.772020715	-0.185667
C	 0.493735457	-0.1540928969	-6.1293255809	-0.071791
O	-0.292107888	 0.4814116189	-7.1248784133	-0.418721
H	 1.0608434019	 1.852299893	 0.3943171539	 0.105156
H	-0.2772190104	 2.0847713765	-0.7460080314	 0.125008
H	-0.6149229201	 1.8650158876	 0.984533369	 0.121619
H	 0.3058580716	-0.4708334591	 0.8506204168	 0.082184
H	-1.6725690873	-0.1423799868	-1.0875251675	 0.284261
H	 1.7916458295	-0.1234141791	-1.1662840608	 0.085964
H	 0.7207488031	-1.5467633817	-1.2792775015	 0.092814
H	 1.7708243395	-0.081021104	-3.6522055979	 0.088198
H	 0.6603470419	-1.4632691089	-3.6630238068	 0.089322
H	-1.1130005593	-0.0264118116	-4.7114591649	 0.115053
H	-0.017867129	 1.3533377021	-4.688193582	 0.117796
H	 1.5532897358	 0.1404877449	-6.2095489026	 0.086208
H	 0.4540016678	-1.2513973908	-6.2302932389	 0.086543
H	 0.047363055	 0.2230638699	-7.9865793567	 0.286657
44.382	47.6157	83.0738	104.3981	121.7264	170.3546	191.2852	241.3988	269.2961	295.892	366.2185	386.6334	422.7855	443.626	500.4289	654.6078	778.7565	827.4678	888.9593	934.7056	949.1765	988.8902	1029.0244	1059.4749	1069.0863	1103.198	1121.3781	1154.5116	1169.5898	1181.3572	1231.5915	1244.2432	1265.3162	1302.8539	1305.53	1306.9795	1321.1615	1367.3561	1385.7353	1401.6389	1433.535	1447.2649	1468.1542	1489.0713	1497.3492	1500.8729	1505.7644	1526.3112	1536.7123	2947.74	2958.6392	2969.1112	2974.9082	2983.1493	3005.6109	3036.9236	3040.7371	3049.9555	3096.5552	3108.5365	3127.5779	3782.9132	3831.8589
CC(O)COCCCO	C[C@@H](O)COCCCO	
InChI=1S/C6H14O3/c1-6(8)5-9-4-2-3-7/h6-8H,2-5H2,1H3	InChI=1S/C6H14O3/c1-6(8)5-9-4-2-3-7/h6-8H,2-5H2,1H3/t6-/m1/s1
