23
gdb 115713	2.73118	1.07024	0.92499	1.6255	81.58	-0.2495	0.07	0.3195	1412.6009	0.20465	-425.415978	-425.405794	-425.40485	-425.451319	37.617	
C	-0.1640492836	 1.7462837016	-0.0008977595	-0.388883
C	-0.0827159112	 0.2646264276	 0.3825926985	-0.205495
C	-1.3665163175	-0.4904665351	 0.0511593817	-0.033977
C	-1.6886509703	-0.766514644	-1.4336519552	-0.086773
O	-1.7701362413	-2.1944863697	-1.2059758522	-0.312207
C	-1.4243015138	-2.0379295247	 0.1985851672	 0.100016
C	-0.151183186	-2.8348714189	 0.5086780892	 0.115593
C	-0.4591962565	-4.3245341503	 0.6907479638	-0.406416
O	 0.8099217518	-2.6379058145	-0.5195300105	-0.433719
H	 0.7636696095	 2.2697752593	 0.2487327849	 0.116182
H	-0.3333606067	 1.8724734073	-1.0763259285	 0.116464
H	-0.9838637396	 2.2506368408	 0.5232822059	 0.112146
H	 0.7604015476	-0.2156951712	-0.122736137	 0.128925
H	 0.1125517607	 0.1813389985	 1.4597962047	 0.094537
H	-2.2089063378	-0.0171129794	 0.5658689852	 0.074717
H	-2.6358078089	-0.3672541318	-1.8131409286	 0.104887
H	-0.8860196428	-0.5149300901	-2.1388956572	 0.100629
H	-2.2424311641	-2.3880963549	 0.8415764918	 0.072333
H	 0.2985201169	-2.4395927937	 1.4278860161	 0.087423
H	-0.9717796752	-4.7186174857	-0.193698067	 0.126524
H	 0.4702504649	-4.8828094613	 0.8277891606	 0.122653
H	-1.1019332808	-4.494757734	 1.5611411143	 0.109202
H	 0.3139732147	-2.7539870657	-1.342135098	 0.285239
73.4253	85.1482	109.5531	134.849	214.2134	234.071	259.231	284.9138	299.3547	390.9217	423.0558	495.5804	538.362	633.5112	753.2684	784.1651	816.8323	878.3752	911.5288	960.1385	961.8418	972.1938	1009.6428	1031.3695	1051.2146	1067.0452	1093.9904	1137.6947	1146.1015	1166.0012	1198.8588	1258.1396	1263.4607	1281.426	1310.8254	1322.4497	1342.7889	1362.7028	1390.0289	1398.3684	1402.2923	1414.3348	1430.3708	1492.6631	1494.2474	1498.0495	1502.1087	1509.7665	1524.4045	3010.5369	3015.5765	3021.9449	3028.0485	3033.3758	3039.6325	3045.8102	3066.7765	3079.4062	3099.4937	3102.6138	3105.8855	3122.4033	3744.4747
CCC1COC1C(C)O	CC[C@H]1CO[C@H]1[C@@H](C)O	
InChI=1S/C7H14O2/c1-3-6-4-9-7(6)5(2)8/h5-8H,3-4H2,1-2H3	InChI=1S/C7H14O2/c1-3-6-4-9-7(6)5(2)8/h5-8H,3-4H2,1-2H3/t5-,6+,7+/m1/s1
