19
gdb 22979	2.10408	1.13446	0.85813	2.4536	81.15	-0.2209	-0.102	0.1188	1387.58	0.157167	-456.260294	-456.250008	-456.249064	-456.296251	36.334	
O	-1.4798650896	-0.3718142239	 2.2336776102	-0.406541
C	-2.0463979168	 0.288746845	 1.0999829338	-0.154604
C	-1.470950691	-0.2346960053	-0.1860151262	 0.255935
N	-0.1395827179	 0.2949431128	-0.3982909264	-0.036798
O	 0.3795358531	 0.0554368326	-1.468847302	-0.239737
C	-1.9810236804	-1.1741425923	-0.9994356671	-0.071648
C	-3.2499147845	-1.9378603593	-0.8398597821	-0.273868
C	-3.0183813869	-3.2821985271	-0.0651715024	-0.139939
N	-2.7969470034	-3.179518724	 1.3649750233	-0.500468
H	-3.6321632147	-2.8378116061	 1.8298916944	 0.223642
H	-2.0574349909	-2.5201115068	 1.5948396139	 0.244114
H	-0.5336431792	-0.1840541934	 2.2219247861	 0.29615
H	-3.1225285558	 0.1142275162	 1.1520945474	 0.117836
H	-1.8733359822	 1.3717571614	 1.165290397	 0.114656
H	-1.341719518	-1.4510640392	-1.8377495202	 0.124459
H	-4.0141514532	-1.3620398982	-0.3078059078	 0.106544
H	-3.6480227867	-2.1781073408	-1.832980132	 0.114326
H	-3.898172556	-3.9128744027	-0.2325537967	 0.111566
H	-2.169011456	-3.8052306287	-0.5203796333	 0.114373
61.1617	77.0731	115.1157	130.5601	153.478	186.7992	257.9731	316.0175	344.7584	369.9167	419.464	447.2946	504.5155	578.5356	728.7594	768.047	846.0784	867.3328	886.0481	941.7189	954.9424	1013.1473	1033.1929	1073.5176	1073.5611	1136.2796	1192.412	1219.3452	1255.0267	1314.9767	1358.4896	1378.4189	1388.1358	1395.1991	1422.9391	1483.3855	1487.999	1499.1932	1573.23	1677.3484	1708.6245	3014.8041	3030.4845	3033.9758	3076.0253	3083.7634	3117.2209	3140.5993	3490.4701	3566.4066	3794.7762
OCC(=N[O-])C1CC[NH2+]1	OCC(=CCCN)N=O	
InChI=1S/C5H10N2O2/c8-3-5(7-9)4-1-2-6-4/h4,6,8-9H,1-3H2	InChI=1S/C5H10N2O2/c6-3-1-2-5(4-8)7-9/h2,8H,1,3-4,6H2
