20
gdb 96170	2.58146	1.50211	1.03796	0.9898	75.03	-0.229	0.0655	0.2944	1159.9545	0.172614	-440.244222	-440.236133	-440.235188	-440.276476	32.096	
O	-0.0496303582	 1.4433304882	 0.0904417224	-0.428364
C	-0.0058679043	 0.0254952954	-0.0331617017	 0.097808
C	 0.704528261	-0.5555688273	 1.2054375388	-0.100358
O	 0.8785734594	-1.957634281	 1.2214646999	-0.240786
C	-0.3332222068	-2.6915455977	 1.3250809418	-0.108907
C	-0.9843888222	-2.8953927762	-0.0260942622	 0.005355
C	-2.4549624425	-2.7350774746	-0.2124515501	-0.262234
N	-1.5290693366	-1.7621553818	-0.7776446834	-0.082547
C	-1.4603301253	-0.4340872134	-0.1699651361	-0.169677
H	 0.8546245785	 1.7720951025	 0.1148613175	 0.286714
H	 0.534842191	-0.2809106835	-0.9410908768	 0.086137
H	 1.7159827801	-0.1351128047	 1.2634385865	 0.093709
H	 0.1518738229	-0.2193234398	 2.0990471467	 0.094309
H	-0.0652152473	-3.6658380813	 1.7476156371	 0.110371
H	-1.0170765915	-2.20100019	 2.0331960478	 0.09151
H	-0.4562976113	-3.6059592716	-0.6600768797	 0.095656
H	-2.9935227394	-3.3543527243	-0.9248571889	 0.117578
H	-3.0383800408	-2.4372078139	 0.6587700581	 0.108669
H	-1.9567722805	-0.3725538609	 0.8124102557	 0.087091
H	-1.9779325862	 0.2679289061	-0.8312900134	 0.117965
136.8578	171.8146	260.4926	261.9202	309.9896	342.3741	358.6533	397.5622	447.1548	474.3305	541.8084	584.6848	791.2995	803.4286	909.0436	916.386	930.6634	965.6519	998.5585	1044.6161	1076.8879	1085.5718	1099.2412	1114.3542	1125.662	1143.3871	1170.9261	1186.9346	1233.8615	1255.6486	1280.394	1323.8576	1335.0521	1346.9751	1357.6568	1381.0944	1404.6775	1430.4381	1447.7659	1486.0721	1491.0635	1503.8616	1520.987	2961.1297	2966.7123	2997.5827	3001.9045	3052.4626	3069.2181	3072.3041	3086.618	3117.5852	3174.8393	3818.6238
OC1COCC2CN2C1	O[C@H]1COC[C@H]2CN2C1	
InChI=1S/C6H11NO2/c8-6-2-7-1-5(7)3-9-4-6/h5-6,8H,1-4H2	InChI=1S/C6H11NO2/c8-6-2-7-1-5(7)3-9-4-6/h5-6,8H,1-4H2/t5-,6-,7?/m1/s1
