20
gdb 111042	1.98781	1.67256	1.11651	2.221	81.4	-0.228	-0.0367	0.1913	1169.1501	0.169629	-403.078693	-403.069852	-403.068908	-403.112779	33.136	
C	 0.6215220094	-0.5874228334	 1.4160092503	-0.380155
C	-0.1684862359	-0.2072543635	 0.1647746966	-0.142068
N	 0.6267228937	-0.4595650944	-1.0408706246	-0.138155
C	-0.0629509073	-0.3602842046	-2.3943332727	-0.018753
C	 1.1369386102	-1.1660950886	-2.949830712	-0.249449
C	 0.6401277133	-1.8688846571	-1.6432088822	 0.265502
C	-0.8106909034	-1.7082931054	-2.1702083435	-0.287629
C	 1.2936265366	-3.032201739	-0.9744667965	 0.030166
O	 0.8146805551	-4.1373204867	-0.9222371731	-0.249271
H	 0.7876631745	-1.6690594331	 1.4683259487	 0.12248
H	 1.5970774835	-0.0934310339	 1.4194035731	 0.126161
H	 0.0767826182	-0.2962609786	 2.3192988255	 0.116031
H	-1.1485200625	-0.7080361185	 0.186182346	 0.088882
H	-0.369754787	 0.8713940049	 0.172172594	 0.104606
H	-0.4617069576	 0.5880507996	-2.7577048013	 0.08754
H	 0.9866690741	-1.7160075547	-3.8794528772	 0.107164
H	 2.1078719205	-0.6773802631	-2.874324885	 0.112275
H	-1.614421648	-1.7299938626	-1.4365409779	 0.112726
H	-1.0791186873	-2.2852808097	-3.0576945413	 0.107196
H	 2.28977541	-2.8017121977	-0.5341202969	 0.084752
57.1085	73.4816	178.8739	185.4896	228.6294	278.5517	339.5817	392.0519	496.5997	543.4116	574.4594	682.4286	734.1207	784.5575	810.9259	846.2658	896.5384	934.1009	953.1501	995.3132	999.925	1016.7823	1072.6013	1083.4458	1114.6102	1125.8533	1154.4615	1166.284	1181.0412	1213.7295	1223.7674	1229.1021	1304.1615	1311.65	1381.7278	1408.1979	1410.3966	1475.9944	1488.9021	1492.6132	1506.4456	1532.6578	1817.9743	2881.7817	2980.4693	3036.1613	3042.1897	3080.4614	3084.8581	3103.2585	3106.75	3120.7106	3154.8618	3169.1293
CCN1C2CC1(C2)C=O	CCN1[C@H]2C[C@@]1(C2)C=O	
InChI=1S/C7H11NO/c1-2-8-6-3-7(8,4-6)5-9/h5-6H,2-4H2,1H3	InChI=1S/C7H11NO/c1-2-8-6-3-7(8,4-6)5-9/h5-6H,2-4H2,1H3/t6-,7+
