16
gdb 49503	3.99503	1.22022	1.15177	2.5899	71.31	-0.2651	-0.0471	0.2179	1071.6326	0.125292	-437.878336	-437.871124	-437.870179	-437.910335	27.638	
N	-0.0892719441	 1.2779496219	 0.3934587158	-0.570951
C	-0.1666005991	 0.0403859813	 0.1894299691	 0.448056
O	 0.8311172234	-0.7864839637	-0.3111502297	-0.260544
C	 0.1624810431	-2.0749526455	-0.3257331847	 0.072335
C	-1.2154543353	-1.7350905346	-0.9227747158	-0.250554
C	-1.3132720116	-0.9130060945	 0.4129795938	-0.130463
C	-0.5148401986	-2.0845079778	 1.0923708945	-0.095502
C	-1.2733622941	-3.3256495961	 1.4783513547	 0.112384
O	-2.4323684871	-3.5484740099	 1.2311338519	-0.237355
H	 0.8326910731	 1.6322490326	 0.1309758309	 0.227769
H	 0.8452593985	-2.840172791	-0.6880589989	 0.104018
H	-1.2156686211	-1.1812633191	-1.863063316	 0.121372
H	-1.9132113387	-2.5690086499	-0.9427869131	 0.147044
H	-2.2401148216	-0.516380173	 0.8137266849	 0.113703
H	 0.1738890603	-1.8182044218	 1.9009424278	 0.107812
H	-0.660158957	-4.063877159	 2.0428366147	 0.090877
82.9644	158.4278	185.2348	278.7047	380.0059	435.0228	486.8037	621.9766	682.6318	718.5717	808.6625	825.6275	859.1626	868.3467	895.6784	928.4479	946.2532	971.552	1015.1092	1028.3117	1049.0828	1095.3511	1100.85	1126.7207	1192.3428	1218.1814	1230.4035	1242.445	1273.7918	1337.9034	1368.2203	1426.8929	1497.8447	1813.1747	1819.1824	2878.968	3064.8987	3094.1871	3152.583	3180.184	3187.6379	3468.5795
N=C1OC2CC1C2C=O	[NH][C]1O[C@@H]2C[C@H]1[C@H]2C=O	
InChI=1S/C6H7NO2/c7-6-3-1-5(9-6)4(3)2-8/h2-5,7H,1H2	InChI=1S/C6H7NO2/c7-6-3-1-5(9-6)4(3)2-8/h2-5,7H,1H2/t3-,4+,5+/m0/s1
