18
gdb 52146	5.93805	0.6839	0.67784	1.4463	73.99	-0.235	-0.0306	0.2043	1635.5461	0.146225	-438.99784	-438.989337	-438.988392	-439.032489	30.881	
O	-0.2805699049	-0.0542322103	 0.1230617173	-0.234434
C	 0.0161401756	 1.1104159586	 0.0860177147	 0.150444
C	 1.3524346422	 1.6424406714	-0.4076892036	-0.228896
N	 1.1833746462	 2.9374530538	-1.0488109678	-0.333241
C	 2.3770271818	 3.7218368706	-1.1852527904	 0.090778
C	 3.4502077876	 3.5950662947	-2.3377464491	 0.021277
C	 2.4432829709	 4.1993322317	-3.3434778812	-0.237575
C	 2.3939662564	 5.021771207	-2.0302727478	 0.006306
O	 3.8713901163	 4.9674731314	-1.9865518092	-0.297625
H	-0.6776639071	 1.9125512293	 0.425325674	 0.086974
H	 1.9770548363	 1.7863067232	 0.4865954279	 0.137448
H	 1.8408902048	 0.8661675999	-1.0166139742	 0.116277
H	 0.6911526673	 2.8402196826	-1.9289822632	 0.227282
H	 2.8532797385	 3.8545547843	-0.2103809831	 0.096569
H	 4.2365766135	 2.8576048217	-2.5018844214	 0.094733
H	 2.8968281741	 4.7176255378	-4.188860905	 0.116311
H	 1.5695577111	 3.6129884129	-3.6421441875	 0.089117
H	 1.9175854993	 5.9821458095	-1.8306764603	 0.098254
49.346	69.3213	86.0533	151.2746	280.3431	338.9492	360.0978	514.3317	560.9369	633.9901	697.0454	744.5842	780.7745	818.8455	857.7791	885.075	917.9048	943.559	1005.1411	1033.3826	1048.3798	1071.4828	1093.6062	1131.5315	1148.4341	1165.3537	1188.2422	1203.1881	1221.7827	1245.1266	1269.1331	1284.7063	1319.8217	1373.2532	1405.3466	1471.0228	1493.4547	1512.0017	1840.8039	2886.0992	2985.9755	3032.0575	3057.0303	3088.1489	3112.9814	3119.9332	3144.0981	3543.8397
O=CCNC1C2CC1O2	O=CCN[C@H]1[C@H]2C[C@@H]1O2	
InChI=1S/C6H9NO2/c8-2-1-7-6-4-3-5(6)9-4/h2,4-7H,1,3H2	InChI=1S/C6H9NO2/c8-2-1-7-6-4-3-5(6)9-4/h2,4-7H,1,3H2/t4-,5+,6+
