20
gdb 111041	1.94447	1.60159	1.0715	1.7809	80.28	-0.2257	-0.0369	0.1888	1203.5325	0.170366	-403.075495	-403.066593	-403.065649	-403.110035	32.84	
C	 0.2323990636	 0.8475246871	 0.8194093124	-0.38587
C	-0.2008186533	 0.3263811927	-0.5570832939	-0.237995
C	-1.5016852557	-0.4513359541	-0.4790793556	 0.048032
N	-2.0484064496	-1.1405289797	-1.7538465316	-0.166664
C	-1.0423851193	-2.2741745625	-1.4507224879	-0.219174
C	-1.5932988734	-1.9568365024	-0.0483124698	 0.209345
C	-2.9650799619	-1.891553678	-0.7716486917	-0.211722
C	-1.2502560285	-2.5767449429	 1.2664508666	 0.029234
O	-0.3853816189	-3.4045500508	 1.4187643542	-0.249082
H	 1.138744349	 1.4543738245	 0.7400757792	 0.122618
H	-0.546116759	 1.4695704497	 1.2745566897	 0.117868
H	 0.4465838835	 0.0228533956	 1.5078737823	 0.127835
H	-0.3662912782	 1.1691941049	-1.2401229195	 0.117293
H	 0.6077028588	-0.2671899237	-0.9918087451	 0.109558
H	-2.2724922763	 0.1880206523	-0.0317721328	 0.074459
H	-1.3278544346	-3.2296815837	-1.8960171843	 0.110596
H	-0.0061604942	-2.0356006262	-1.6828939897	 0.11488
H	-3.7530325968	-1.2684981676	-0.3407523157	 0.106954
H	-3.3619788609	-2.8262793172	-1.1745572839	 0.111515
H	-1.8560838245	-2.2106134679	 2.1288713472	 0.070319
44.2247	68.9145	146.9037	185.911	224.0285	263.7504	345.7594	384.3617	481.5834	564.8751	603.7274	693.623	731.8681	779.3975	830.4579	869.5188	898.5121	916.012	969.5659	1002.4342	1020.8856	1051.878	1066.1127	1087.4473	1129.9668	1153.2713	1164.4601	1181.3845	1191.4615	1198.7922	1260.1325	1292.4748	1311.1344	1343.8874	1413.1764	1422.1465	1440.4957	1483.3627	1501.6376	1505.4637	1516.5559	1555.0218	1813.0508	2850.7724	3027.7583	3033.8268	3036.7937	3056.2816	3079.805	3085.9555	3105.5186	3111.4586	3127.153	3157.0704
CCC1N2CC1(C2)C=O	CC[C@H]1N2C[C@@]1(C2)C=O	
InChI=1S/C7H11NO/c1-2-6-7(5-9)3-8(6)4-7/h5-6H,2-4H2,1H3	InChI=1S/C7H11NO/c1-2-6-7(5-9)3-8(6)4-7/h5-6H,2-4H2,1H3/t6-/m1/s1
