23
gdb 111501	2.63388	1.32284	1.10197	1.7791	84.26	-0.2516	0.0792	0.3308	1235.7801	0.206547	-388.29465	-388.285662	-388.284718	-388.32792	35.236	
C	 0.0149956589	 1.5219588875	 0.1983824029	-0.386066
C	 0.005703454	-0.0031996922	 0.0486461422	-0.192051
C	 0.6213579624	-0.4996955521	-1.2664540451	 0.004295
C	 0.8628235544	-1.9983817507	-1.3207100181	 0.033707
O	-0.2904552211	-2.7806114515	-1.6750381307	-0.261986
C	 0.6792945836	-2.4775885779	-2.691770145	 0.047318
C	 0.2988170483	-1.3086219172	-3.5771846302	-0.254757
C	-0.1599521708	-0.1912914816	-2.5921122583	-0.008533
C	-1.6893202766	-0.1635307827	-2.4551951374	-0.401002
H	 1.0369919283	 1.9146925962	 0.1463669312	 0.111085
H	-0.5650603651	 2.0132626076	-0.5893515253	 0.119939
H	-0.4088305362	 1.8269769217	 1.1602381888	 0.112587
H	 0.5737669591	-0.4422715139	 0.8793172204	 0.090109
H	-1.0150157821	-0.3877765159	 0.147596422	 0.111659
H	 1.6187774026	-0.0401189823	-1.3554684776	 0.068698
H	 1.5390022373	-2.4713307998	-0.6108696866	 0.086258
H	 1.2096820724	-3.3372654381	-3.0944946894	 0.089129
H	 1.1862992529	-1.0011431127	-4.1445240321	 0.097753
H	-0.4794306839	-1.5621856832	-4.3044838442	 0.104608
H	 0.1588440287	 0.7833946622	-2.9747715537	 0.070807
H	-2.0675766759	-1.1174376913	-2.0823851337	 0.142543
H	-2.0279486967	 0.6309624186	-1.7835733523	 0.109956
H	-2.1449238743	 0.0246815794	-3.4336673276	 0.103945
107.8836	130.8746	183.5103	211.7312	244.6536	283.3099	306.9535	364.4529	387.0199	458.5686	503.3693	657.8219	728.053	753.2948	806.7217	823.3077	874.5954	881.7976	896.387	947.3373	971.892	996.6038	1037.2572	1039.6712	1048.421	1077.4122	1099.5589	1122.6342	1155.3728	1165.9856	1235.3743	1243.925	1265.9203	1283.35	1309.4299	1322.9407	1344.2258	1359.4789	1371.1754	1392.9306	1402.5548	1414.9178	1448.1254	1481.2911	1487.5714	1499.5388	1504.0317	1505.2571	1518.052	2977.9244	3022.163	3028.3951	3031.1024	3038.2778	3050.9084	3068.2376	3077.6671	3096.5112	3100.0859	3105.0468	3127.9701	3136.9185	3145.7678
CCC1C2OC2CC1C	CC[C@H]1[C@H]2O[C@H]2C[C@H]1C	
InChI=1S/C8H14O/c1-3-6-5(2)4-7-8(6)9-7/h5-8H,3-4H2,1-2H3	InChI=1S/C8H14O/c1-3-6-5(2)4-7-8(6)9-7/h5-8H,3-4H2,1-2H3/t5-,6-,7+,8-/m1/s1
