18
gdb 17756	2.89616	2.64397	1.81658	0.2696	75.29	-0.2122	0.0879	0.3001	812.4817	0.152698	-310.568814	-310.561543	-310.560599	-310.599675	28.913	
C	-0.0275716917	 1.490801893	 0.0630200134	-0.526494
C	 0.017946757	-0.000331286	-0.0025154074	 0.30514
C	 0.2793536568	-0.9810714156	-1.1918131256	-0.151927
C	-0.6230159475	-2.0183499475	-0.541912085	-0.082642
C	 0.8646233416	-2.0009455923	-0.226928135	-0.151928
C	 0.6060929213	-1.0252218546	 0.967115678	 0.305138
C	 1.3114472569	-0.8425280764	 2.2705506584	-0.526494
C	-0.8882472165	-1.0479674865	 0.6446517686	-0.204945
H	 0.9257209742	 1.9383773024	-0.2438110494	 0.118394
H	-0.8112354788	 1.8981897066	-0.5872666939	 0.120469
H	-0.2387896843	 1.8295136939	 1.0834968501	 0.118895
H	 0.5023015876	-0.8157409113	-2.238126065	 0.080473
H	-1.2213876303	-2.7948582	-0.9997183638	 0.082083
H	 1.6176247904	-2.7592709297	-0.3993874997	 0.080473
H	 2.3631113947	-0.5662044555	 2.1260369736	 0.118394
H	 0.8391866893	-0.049498021	 2.8611306016	 0.118896
H	 1.2877284179	-1.7590388948	 2.872557076	 0.12047
H	-1.7344665685	-0.9078851647	 1.3060117452	 0.075603
173.4904	203.617	211.2509	250.1071	282.3167	332.0293	565.7407	629.4691	673.2091	753.5061	769.1869	777.8576	780.4515	849.4397	849.8592	905.6445	912.4413	946.9273	977.2896	978.2326	1003.6604	1028.9208	1098.1966	1100.5257	1142.5348	1159.344	1185.1614	1204.3467	1258.7739	1321.1663	1345.6464	1410.5069	1412.6967	1456.7525	1478.6939	1485.3708	1494.561	1505.542	3013.4205	3015.9929	3070.2631	3071.2758	3085.7452	3089.0372	3182.0477	3186.0713	3192.621	3205.7071
CC12C3C4C3C1(C)C24	C[C@@]12[C@@H]3[C@H]4[C@@H]3[C@]1(C)[C@@H]24	
InChI=1S/C8H10/c1-7-4-3-5(4)8(7,2)6(3)7/h3-6H,1-2H3	InChI=1S/C8H10/c1-7-4-3-5(4)8(7,2)6(3)7/h3-6H,1-2H3/t3-,4+,5-,6+,7-,8+
