19
gdb 67710	2.23956	1.98295	1.69648	2.6769	73.46	-0.2199	0.0868	0.3067	937.5018	0.161048	-423.012306	-423.00493	-423.003986	-423.043872	29.292	
C	-0.0192805334	 1.4964386085	-0.0055054697	-0.50386
C	 0.000202857	-0.0086922925	-0.0051830896	 0.227593
C	-0.2551630328	-0.9178657296	-1.1823405383	 0.020013
O	 0.7022603733	-1.9386604607	-1.2682104764	-0.255495
C	 1.7176231441	-1.6675423547	-0.2997214975	-0.07386
C	 1.0384744339	-0.8348350071	 0.7996601191	-0.135297
C	 0.1421188292	-1.6874936277	 1.7122397884	-0.073861
O	-1.0389413105	-1.9607306321	 0.9553547008	-0.255494
C	-1.1950302991	-0.9297768344	 0.0178968713	 0.020011
H	 0.9203119052	 1.908914859	-0.3911852329	 0.120867
H	-0.8289120937	 1.8780622553	-0.6356319077	 0.121997
H	-0.1721988185	 1.8950684926	 1.004162624	 0.120866
H	-0.6057658099	-0.5515804852	-2.1428237227	 0.094161
H	 2.1106550165	-2.6253613277	 0.0551018726	 0.108577
H	 2.5406518178	-1.1005525045	-0.7617910842	 0.091022
H	 1.7452101305	-0.2178032369	 1.3591999095	 0.079001
H	 0.590052559	-2.6446099375	 1.9969756124	 0.108577
H	-0.1145410853	-1.1341668052	 2.6289281843	 0.091022
H	-2.2150481234	-0.5719725995	-0.0877201733	 0.094161
139.4405	188.5173	225.7182	241.2631	266.3989	383.5571	559.3506	560.1402	592.9406	722.0101	755.9433	766.1112	835.1433	872.5006	896.1249	950.3523	952.0443	976.2675	1006.5072	1020.621	1031.8323	1069.6911	1088.7895	1114.7939	1146.5749	1155.2379	1186.9261	1222.8417	1233.6574	1257.1352	1273.4877	1305.7206	1318.6856	1380.7243	1384.3528	1417.5753	1451.7558	1490.095	1498.105	1506.793	1521.431	2982.6966	2982.8036	3021.9431	3076.534	3081.9972	3083.0521	3091.2598	3098.1736	3148.1997	3157.9328
CC12C3OCC1COC23	C[C@@]12[C@H]3OC[C@@H]1CO[C@@H]23	
InChI=1S/C7H10O2/c1-7-4-2-8-5(7)6(7)9-3-4/h4-6H,2-3H2,1H3	InChI=1S/C7H10O2/c1-7-4-2-8-5(7)6(7)9-3-4/h4-6H,2-3H2,1H3/t4-,5+,6-,7+
