15
gdb 33314	7.05682	0.7144	0.69703	1.1789	89.33	-0.2426	-0.0243	0.2183	1563.6783	0.111217	-383.359381	-383.351578	-383.350633	-383.392155	29.719	
C	-0.0286228119	-3.8587184626	-0.0971084818	-0.565881
C	-0.0181352068	-2.6513720186	-0.0657387016	 0.295286
C	-0.0046292618	-1.2921155034	-0.0288086845	-0.219438
C	 0.007221377	-0.0808755847	 0.0039273322	 0.388588
C	 0.0139810704	 1.3600258774	 0.0359281767	-0.233146
C	 0.1219706011	 2.15247614	 1.3859769869	 0.054106
C	 1.5938984868	 1.7076135231	 1.5434996988	-0.235435
C	 1.353526044	 2.1754808612	 0.0900178933	 0.054107
O	 0.5819226433	 3.3217475864	 0.6104659476	-0.303593
H	-0.039987517	-4.9199146821	-0.1267223539	 0.19341
H	-0.7129052389	 1.8058053467	-0.6469218357	 0.118409
H	-0.6526411521	 2.3097351473	 2.1359970793	 0.107876
H	 2.2106694294	 2.3782899957	 2.1415252062	 0.115651
H	 1.799488727	 0.6507963624	 1.7201136376	 0.122186
H	 2.0600894595	 2.3604054113	-0.718595101	 0.107876
79.951	84.8824	219.4317	233.7229	407.5876	436.1368	461.5289	533.0972	555.7218	577.503	600.0784	607.7356	722.0886	816.4815	840.2717	877.9485	883.6698	910.82	935.1312	1003.8253	1058.79	1083.8685	1132.6407	1169.199	1185.2547	1200.0405	1210.1251	1251.8329	1269.3268	1349.117	1487.9343	2179.6075	2352.9924	3083.5943	3091.8155	3124.6312	3130.7426	3164.4839	3504.9298
C#CC#CC1C2CC1O2	C#CC#C[C@H]1[C@H]2C[C@@H]1O2	
InChI=1S/C8H6O/c1-2-3-4-6-7-5-8(6)9-7/h1,6-8H,5H2	InChI=1S/C8H6O/c1-2-3-4-6-7-5-8(6)9-7/h1,6-8H,5H2/t6-,7+,8-
