17
gdb 54325	2.75113	1.20239	0.90097	1.6562	70.82	-0.2614	-0.0302	0.2312	1263.1361	0.132296	-458.985356	-458.975971	-458.975027	-459.020235	33.276	
C	-0.22379852	 1.4543769057	-0.2050532373	-0.480358
C	-0.0642991189	-0.0425999387	-0.0905536799	 0.338964
O	 1.0077783704	-0.6007710906	-0.1760496476	-0.314964
C	-1.3068078984	-0.8674966913	 0.1398494472	 0.309809
C	-1.329122798	-2.2409958515	-0.4963537112	-0.302762
C	-1.1410411835	-2.1096603699	 0.9889515417	-0.302907
O	-2.4553810685	-0.038977561	 0.211503321	-0.241558
C	-3.6938412197	-0.5283045247	 0.413310891	 0.149646
O	-4.6499956345	 0.1856536099	 0.4710153824	-0.270033
H	 0.7546380164	 1.9044669538	-0.3724757495	 0.141257
H	-0.9052211127	 1.7043576815	-1.0244099185	 0.155459
H	-0.680235636	 1.8596251545	 0.7036848533	 0.155455
H	-2.2800270282	-2.6042894369	-0.869579359	 0.131571
H	-0.4623780528	-2.4928939673	-1.0961077386	 0.154119
H	-0.1473976532	-2.2727134888	 1.3895827451	 0.154158
H	-1.9615499534	-2.3826404395	 1.6429392387	 0.131577
H	-3.7374400389	-1.6244723051	 0.5172865111	 0.090566
55.9023	92.9305	129.5952	153.0815	160.2158	262.5394	284.8172	354.437	427.1851	428.2122	473.839	605.3404	612.7143	743.9814	782.4041	869.8469	871.0352	959.4655	968.3075	1012.7384	1036.5972	1053.3378	1067.7405	1091.9597	1157.3554	1178.203	1201.4282	1280.2471	1339.7583	1388.7418	1434.6077	1446.3886	1454.677	1466.5148	1478.6182	1798.78	1856.2084	3008.253	3048.9998	3110.6909	3141.8588	3143.8857	3162.6411	3232.265	3243.0625
CC(=O)C1(CC1)OC=O	CC(=O)C1(CC1)OC=O	
InChI=1S/C6H8O3/c1-5(8)6(2-3-6)9-4-7/h4H,2-3H2,1H3	InChI=1S/C6H8O3/c1-5(8)6(2-3-6)9-4-7/h4H,2-3H2,1H3
