21
gdb 68686	2.6593	1.74539	1.47989	1.4356	81.77	-0.2401	0.0069	0.247	1002.1146	0.18524	-387.104788	-387.097309	-387.096365	-387.135953	31.562	
C	 0.0224848571	 1.5396356695	 0.0303961382	-0.470741
C	-0.015677095	 0.0156530268	-0.0035494074	 0.268812
C	 0.6798406468	-0.6301777728	-1.2276374264	-0.239013
C	 0.1025209553	-2.0496583009	-1.1335243364	 0.073231
O	 0.756162501	-2.7467953316	-0.0594313555	-0.278537
C	 0.546946441	-2.1573009904	 1.2215720138	-0.06803
C	 0.669480028	-0.6182264348	 1.2396579474	-0.245499
C	-1.3569323314	-1.7482585861	-0.8053580499	-0.110981
C	-1.4150509443	-0.5881008886	-0.1502864047	-0.096536
H	 1.0533983994	 1.9064990194	 0.0849578669	 0.113646
H	-0.4374392731	 1.9642865455	-0.8686266504	 0.113845
H	-0.5149062186	 1.9326749051	 0.9013048564	 0.110075
H	 0.3634348018	-0.1408201773	-2.1544210949	 0.090875
H	 1.7718904681	-0.6239960311	-1.1678434024	 0.091683
H	 0.2615820923	-2.6736455663	-2.0150516914	 0.072247
H	-0.4444821422	-2.4378268006	 1.6026165582	 0.09277
H	 1.2926205631	-2.6128068077	 1.8798282807	 0.102366
H	 1.7239354315	-0.3163822728	 1.2419522396	 0.099623
H	 0.2261444244	-0.2461829953	 2.171897316	 0.090911
H	-2.1752906188	-2.4347219828	-0.9856082346	 0.096375
H	-2.2988692064	-0.139999237	 0.2919570768	 0.092879
220.71	226.7841	269.9519	290.7658	334.9464	389.9406	395.6877	464.4651	563.5134	599.1861	627.8206	762.1899	775.7031	798.008	830.7149	883.8356	886.4349	906.2647	952.1692	964.6665	988.56	997.2408	1019.0777	1051.4559	1073.4184	1099.3866	1145.8568	1182.2772	1196.0836	1232.5777	1269.7273	1275.2678	1298.5366	1306.5509	1331.7167	1366.9568	1378.2059	1411.6331	1414.7818	1473.766	1489.3955	1494.4442	1496.5755	1504.8667	1656.4638	3007.0972	3019.7041	3023.6496	3046.9528	3062.1379	3082.4052	3088.4276	3094.087	3095.0766	3102.6431	3179.1159	3211.2136
CC12CC(OCC1)C=C2	C[C@@]12C[C@@H](OCC1)C=C2	
InChI=1S/C8H12O/c1-8-3-2-7(6-8)9-5-4-8/h2-3,7H,4-6H2,1H3	InChI=1S/C8H12O/c1-8-3-2-7(6-8)9-5-4-8/h2-3,7H,4-6H2,1H3/t7-,8-/m0/s1
