16
gdb 29139	3.14586	1.37751	0.96442	4.1007	78.73	-0.199	-0.0358	0.1632	1176.604	0.124917	-437.955562	-437.947396	-437.946451	-437.987999	31.292	
C	-0.0055750557	 1.5441047487	-0.0120683754	-0.489474
C	-0.0040077826	 0.0397196538	 0.0009047654	 0.216365
C	-0.0332327547	-0.6747355789	-1.1408991902	-0.033951
O	-0.0264958889	-2.0355673327	-1.1581805928	-0.211613
C	 0.0079551812	-2.7869138227	-0.0176262715	 0.418131
O	 0.0382793972	-3.9944287574	-0.0964822734	-0.374943
C	 0.0177686148	-2.0464831668	 1.2516258391	 0.147392
N	-0.0170549548	-2.8577225054	 2.3616342877	-0.57427
C	 0.0250996364	-0.6837462789	 1.2397943675	-0.235426
H	 0.88817703	 1.9460196983	 0.4791615079	 0.132214
H	-0.0310137838	 1.9334148768	-1.0331058052	 0.127903
H	-0.8746096981	 1.9444264509	 0.5227061179	 0.133722
H	-0.0610714118	-0.2657146127	-2.1417795429	 0.128768
H	 0.2192918046	-3.8201951465	 2.1648295759	 0.270767
H	 0.3451663098	-2.486609788	 3.2249026742	 0.252797
H	 0.0455042463	-0.1303546886	 2.1747785658	 0.091618
116.2868	155.8013	193.3265	274.4966	336.0584	343.6876	386.1463	437.0205	471.5745	505.9006	538.6734	584.3196	604.3531	675.71	790.0474	814.2731	816.5739	888.9588	992.1731	1009.9065	1066.4141	1107.3827	1141.0962	1185.1919	1221.6784	1335.8653	1392.182	1419.3395	1450.8591	1479.2443	1496.0053	1594.7149	1641.4511	1698.7544	1796.0682	3027.6808	3079.2741	3115.8397	3162.4775	3226.7755	3567.5998	3690.904
CC1=COC(=O)C(N)=C1	Cc1coc(=O)c(N)c1	
InChI=1S/C6H7NO2/c1-4-2-5(7)6(8)9-3-4/h2-3H,7H2,1H3	InChI=1S/C6H7NO2/c1-4-2-5(7)6(8)9-3-4/h2-3H,7H2,1H3
