20
gdb 66845	2.56653	2.03317	1.78971	1.5198	80.68	-0.2276	0.0866	0.3142	906.8526	0.173629	-365.966013	-365.959194	-365.95825	-365.996649	29.038	
C	-0.0037236148	 1.5278477001	 0.0206555954	-0.522284
C	 0.0013194052	 0.0221673358	-0.0127101664	 0.363915
C	 0.6310024884	-0.7728266126	-1.1961876468	-0.13066
C	 1.1792519621	-1.7661151195	-0.2109503554	-0.064488
C	 0.7953028922	-0.870114578	 0.9969111645	-0.082256
C	-0.5018452064	-1.2372410277	 1.7417199185	-0.245213
C	-1.2680855983	-0.8090742735	 0.4589475285	-0.103282
C	-1.3014352594	-1.9852879156	-0.5257917004	-0.157073
N	 0.0512170031	-2.0991322248	-1.0976044417	-0.102417
H	 0.9990820235	 1.9316372066	-0.1595977437	 0.118816
H	-0.6695570545	 1.9395659232	-0.747730624	 0.117823
H	-0.3435533912	 1.9074508523	 0.9905727873	 0.118203
H	 1.0083389513	-0.3965172316	-2.141288472	 0.083717
H	 2.0510962972	-2.4085842167	-0.2705047398	 0.09002
H	 1.6626139115	-0.4844722451	 1.5369828976	 0.064742
H	-0.6405222848	-2.2688302248	 2.0816616123	 0.090305
H	-0.6786393087	-0.5599684392	 2.5825019977	 0.095083
H	-2.2247961732	-0.2950382895	 0.5733412688	 0.062711
H	-1.5925911321	-2.9265858459	-0.0480618029	 0.102713
H	-1.9891497713	-1.8002040635	-1.3590048677	 0.099625
216.2797	216.4995	248.3969	320.7993	411.5167	482.0072	577.7838	621.0516	664.5815	738.8265	749.9818	816.1456	845.904	857.3649	874.7792	892.9923	919.9556	948.2008	967.9547	992.9298	1017.6241	1035.2342	1049.327	1096.7652	1102.3084	1139.0008	1145.5381	1167.9693	1183.0638	1199.2568	1239.4446	1251.7134	1254.6989	1296.7616	1310.6885	1328.7674	1343.0102	1369.8449	1414.0426	1485.7434	1491.0487	1493.4011	1501.7761	3018.6489	3033.8837	3038.4723	3079.7024	3080.1929	3083.4783	3085.6341	3088.7078	3094.1269	3158.929	3171.5632
CC12C3C4C1CC2CN34	C[C@@]12[C@H]3[C@H]4[C@@H]1C[C@@H]2CN34	
InChI=1S/C8H11N/c1-8-4-2-5(8)6-7(8)9(6)3-4/h4-7H,2-3H2,1H3	InChI=1S/C8H11N/c1-8-4-2-5(8)6-7(8)9(6)3-4/h4-7H,2-3H2,1H3/t4-,5+,6-,7-,8+,9?/m1/s1
