18
gdb 31981	2.9358	1.11705	0.83495	3.1049	78.01	-0.1746	0.0449	0.2195	1362.0454	0.147379	-439.09829	-439.088986	-439.088042	-439.133601	33.462	
C	-0.3007412443	 1.414771248	 0.400080028	-0.259403
O	-0.1009835223	 0.0324492007	 0.1793563589	-0.259936
C	-1.1985376573	-0.7184370847	-0.0720202924	 0.417644
C	-1.2377939021	-2.031549277	-0.4755893568	-0.281178
C	-2.6167433488	-2.3942800934	-0.5422466276	-0.241539
C	-3.3668810015	-1.2992123312	-0.1961304575	 0.320739
C	-4.8306931145	-1.0510285162	-0.1495818852	-0.208496
O	-5.1171174438	-0.2817130044	 1.0242109552	-0.427735
N	-2.4849503866	-0.2618937959	 0.0705414573	-0.374104
H	 0.6911968739	 1.8600588465	 0.4896594267	 0.141954
H	-0.8344810143	 1.8852654692	-0.4365281323	 0.123235
H	-0.8535502527	 1.6034864493	 1.3317931623	 0.118727
H	-0.3790992832	-2.6461400994	-0.6903723976	 0.095098
H	-3.0106384907	-3.3557086878	-0.8366911123	 0.089401
H	-5.1742095023	-0.4971483757	-1.0406812814	 0.091611
H	-5.3556234906	-2.0172318208	-0.1452052142	 0.104043
H	-6.0271445435	 0.0248124423	 0.960796719	 0.286521
H	-2.7750467354	 0.5873420805	 0.5235416497	 0.263417
27.7282	73.0285	133.8103	182.1572	222.8904	289.2789	300.3277	334.2859	435.5376	462.1408	507.8136	605.1912	647.1371	663.08	732.3049	757.1264	813.4972	986.6112	997.1244	1022.7534	1031.4486	1057.719	1089.0693	1175.7802	1192.2117	1217.7265	1228.934	1245.7463	1273.8651	1308.2849	1424.9709	1447.5369	1459.2294	1478.3493	1491.5054	1510.5095	1513.0682	1577.3813	1647.2044	2939.0951	2989.734	3009.5085	3047.2216	3135.1172	3239.7525	3267.0565	3682.7657	3817.157
COC1=CC=C(CO)N1	COc1ccc(CO)[nH]1	
InChI=1S/C6H9NO2/c1-9-6-3-2-5(4-8)7-6/h2-3,7-8H,4H2,1H3	InChI=1S/C6H9NO2/c1-9-6-3-2-5(4-8)7-6/h2-3,7-8H,4H2,1H3
