19
gdb 59696	2.20135	1.47482	1.03039	4.6811	76.4	-0.2347	0.0003	0.2351	1203.6389	0.158327	-419.174586	-419.165242	-419.164297	-419.2089	33.608	
C	 0.0091341028	 1.4138768323	-0.1344325301	-0.325336
N	 0.0316016314	-0.0281098465	 0.076804565	-0.056754
C	 0.7055700911	-0.3718604741	 1.323579603	-0.331459
C	-1.2890436765	-0.5957647833	 0.0067127869	 0.012251
C	-2.041784762	-0.4940288411	-1.3352614174	-0.108406
O	-2.3258112149	-1.9143802613	-1.3218999532	-0.268739
C	-1.4247829211	-2.134960206	-0.2235291751	-0.054141
C	-0.2055596516	-2.8423282176	-0.6350726463	 0.301862
N	 0.7398274194	-3.4310407912	-0.9434121244	-0.329398
H	 1.0349246323	 1.7927431494	-0.14688736	 0.131033
H	-0.4471599336	 1.6499692471	-1.1001073308	 0.126441
H	-0.546770611	 1.9584020786	 0.6521163357	 0.097564
H	 0.1915965703	 0.0366455082	 2.2142664979	 0.095079
H	 0.7731573039	-1.4576819564	 1.4289755698	 0.13527
H	 1.7246469215	 0.0238538129	 1.306024182	 0.130803
H	-1.9335059004	-0.2962747105	 0.8535193731	 0.073053
H	-2.9586117249	 0.1013163092	-1.354861516	 0.119024
H	-1.3948641617	-0.2233632183	-2.1776812363	 0.122974
H	-1.9034674949	-2.7004481513	 0.5832507063	 0.128877
74.9286	103.2392	131.7283	213.5189	222.5615	244.0207	252.0085	314.9478	353.6463	404.4513	472.9909	543.9187	610.5917	733.1463	827.2398	903.2806	933.8757	999.8564	1025.1203	1043.7909	1069.7006	1077.7429	1125.2339	1126.9782	1175.6309	1185.8819	1228.7514	1247.9826	1290.7166	1321.9817	1337.7927	1355.2102	1391.9642	1446.7171	1480.4895	1483.3932	1494.1549	1498.8018	1511.2943	1514.9755	2355.1879	2924.0296	2928.9117	2938.9161	3035.3064	3054.7463	3071.2767	3078.7756	3099.1888	3114.4226	3122.322
CN(C)C1COC1C#N	CN(C)[C@H]1CO[C@H]1C#N	
InChI=1S/C6H10N2O/c1-8(2)5-4-9-6(5)3-7/h5-6H,4H2,1-2H3	InChI=1S/C6H10N2O/c1-8(2)5-4-9-6(5)3-7/h5-6H,4H2,1-2H3/t5-,6-/m0/s1
