16
gdb 16038	3.54087	1.74637	1.44044	4.7839	70.3	-0.2541	-0.0012	0.2529	904.5826	0.13128	-342.754762	-342.747378	-342.746434	-342.78621	27.757	
C	-0.0660317045	 1.5810574989	 0.0198168357	-0.429629
C	 0.0424715503	 0.0773156155	 0.1123124324	-0.015858
N	 1.2060949261	-0.7247493536	-0.3009274518	-0.169881
C	 2.4525358332	 0.0309924672	 0.0923704981	-0.153945
C	 2.0754573395	 0.0332136557	 1.5925511674	-0.314473
C	 0.7755794714	-0.6652251529	 1.1765245904	 0.182587
C	 0.2026978523	-1.7780314701	 1.8725366245	 0.21301
N	-0.2607631409	-2.6564258497	 2.4667302911	-0.339442
H	 0.7795979525	 2.1084942067	 0.4643893484	 0.128828
H	-0.146066596	 1.8882540486	-1.0282344056	 0.139035
H	-0.9728111992	 1.9124775048	 0.5347955329	 0.138928
H	-0.8634988514	-0.4352948228	-0.205287635	 0.12091
H	 3.3247076869	-0.5821337418	-0.1364068789	 0.127837
H	 2.558454581	 0.998127045	-0.4054764124	 0.116249
H	 2.7184962201	-0.6130557537	 2.1900560409	 0.137497
H	 1.9630778587	 0.9922561921	 2.1044553119	 0.118348
139.711	164.0081	176.9025	251.1937	302.8288	378.3928	498.8925	537.1488	556.3818	605.6728	728.9517	765.418	795.4216	859.0546	939.6149	970.0467	975.352	1051.1641	1107.8463	1115.4715	1139.2339	1190.6538	1219.7286	1229.3386	1267.492	1310.149	1319.9038	1409.7794	1441.4689	1480.1479	1499.1161	1500.5198	1519.3058	2344.9981	3046.1875	3068.7066	3075.3065	3107.7227	3124.0963	3126.4267	3140.9774	3144.5472
CC1N2CCC12C#N	C[C@H]1N2CC[C@@]12C#N	
InChI=1S/C6H8N2/c1-5-6(4-7)2-3-8(5)6/h5H,2-3H2,1H3	InChI=1S/C6H8N2/c1-5-6(4-7)2-3-8(5)6/h5H,2-3H2,1H3/t5-,6-,8?/m1/s1
