17
gdb 5571	3.19437	1.76321	1.22893	0.547	70.84	-0.209	0.0255	0.2346	1000.5512	0.142694	-363.894761	-363.886529	-363.885584	-363.928004	29.857	
C	-0.4206939606	 1.5310813064	-0.0132339489	-0.365222
C	 0.0733815728	 0.0777301023	 0.0802843639	-0.303724
C	 0.7561490565	-0.3994112849	-1.1661188628	 0.257201
C	 2.0805170028	-0.6910527858	-1.3037607565	 0.186685
N	 3.12828482	-0.6439523928	-0.3792061155	-0.594951
O	 2.3486130022	-1.0955901834	-2.5934463972	-0.167207
C	 1.1712397786	-1.0555879749	-3.2693472579	-0.012914
C	 0.1679125981	-0.636819721	-2.4583694902	-0.279513
H	 0.4144117891	 2.2160530957	-0.1902902147	 0.11684
H	-1.1323994436	 1.6575965229	-0.8356796253	 0.1147
H	-0.9198555485	 1.8344019165	 0.9126494664	 0.10925
H	 0.7741308891	-0.020347022	 0.9152696154	 0.117145
H	-0.7802783314	-0.5751400804	 0.3043987876	 0.100503
H	 3.8165249799	 0.0656457328	-0.6130270892	 0.244824
H	 3.6160841129	-1.5322307124	-0.3139707501	 0.244437
H	 1.212462194	-1.356376585	-4.3036387974	 0.128726
H	-0.8692106419	-0.5163835841	-2.7327011776	 0.10322
44.1676	111.5634	160.3147	201.738	258.458	288.2677	375.7715	462.8624	617.4876	626.9234	689.4508	733.3375	749.9743	788.1905	801.0825	828.4237	910.1631	963.6845	1032.4892	1064.596	1086.6927	1122.0908	1181.7789	1214.2554	1231.7328	1276.5555	1312.3374	1364.1709	1406.5006	1437.2606	1483.3137	1497.0325	1506.2847	1550.449	1648.0331	1698.1785	3021.0386	3033.7007	3077.7933	3104.6058	3109.2148	3244.3267	3275.8285	3489.4022	3553.7963
CCC1=C(N)OC=C1	CCc1c(N)occ1	
InChI=1S/C6H9NO/c1-2-5-3-4-8-6(5)7/h3-4H,2,7H2,1H3	InChI=1S/C6H9NO/c1-2-5-3-4-8-6(5)7/h3-4H,2,7H2,1H3
