14
gdb 24978	4.87336	1.27398	1.023	2.3287	65.29	-0.2209	0.0227	0.2436	1080.7803	0.102233	-473.81309	-473.806055	-473.805111	-473.845048	25.92	
N	-0.0904699166	 1.2410104099	 0.0544987121	-0.563933
C	-0.0101927707	-0.0071916548	 0.0184890949	 0.457008
O	 1.1447622396	-0.7901206069	-0.0097801358	-0.261041
C	 0.6894540828	-2.0875088237	-0.0445073324	 0.225282
C	-0.6253147942	-2.1049036091	-0.038364979	 0.240534
C	-1.1590896598	-3.4906204096	-0.0756386818	-0.171229
O	 0.0598383215	-4.2663952351	-0.1040161511	-0.282698
C	 1.2582170327	-3.4600082958	-0.0869741936	-0.170505
O	-1.1222006742	-0.8256769832	 0.0006661647	-0.233908
H	 0.8318908968	 1.6676103902	 0.0619786737	 0.243779
H	-1.7487517392	-3.766738972	 0.8091932894	 0.130004
H	-1.757587126	-3.7154468352	-0.9690216943	 0.129999
H	 1.8540364836	-3.6699702656	-0.9859616622	 0.128351
H	 1.8631856138	-3.721260489	 0.7922385955	 0.128357
87.8588	125.6385	238.7156	248.8489	313.1147	529.7553	549.0517	607.3313	724.3729	726.2357	765.5177	773.9464	862.4691	882.3893	906.6933	945.2672	1024.0438	1042.4198	1074.5351	1099.1182	1141.6444	1203.6983	1249.5656	1304.9912	1326.2281	1404.1373	1423.842	1523.9314	1532.245	1792.4242	1829.9952	2999.8009	3004.521	3026.4461	3030.4144	3553.9959
N=C1OC2=C(COC2)O1	[NH][C@@H]1OC2=C(COC2)O1	
InChI=1S/C5H5NO3/c6-5-8-3-1-7-2-4(3)9-5/h6H,1-2H2	InChI=1S/C5H6NO3/c6-5-8-3-1-7-2-4(3)9-5/h5-6H,1-2H2
