21
gdb 86423	2.44706	1.57282	1.14237	0.5177	77.11	-0.2486	0.0638	0.3124	1135.8628	0.183635	-424.223158	-424.214642	-424.213698	-424.256015	33.177	
C	-0.1967809001	 1.5321911768	 0.0976006758	-0.407364
C	 0.1071339163	 0.0408547859	-0.0342830448	 0.014108
C	 1.1110545081	-0.3320885029	-1.1413412091	-0.26492
C	 1.5640788537	-1.7594738609	-0.7771485093	 0.125262
O	 2.7377117159	-2.209844863	-1.426084833	-0.43859
C	 1.6232903357	-1.7661418704	 0.7679581282	-0.095337
C	 2.7692041065	-0.9560221324	 1.400593391	-0.084833
O	 1.897104325	 0.1563168856	 1.6842073378	-0.295523
C	 0.7337865174	-0.5796278252	 1.2226741116	 0.116173
H	 0.7097853223	 2.0805800508	 0.3684769217	 0.134762
H	-0.5811249573	 1.9413427788	-0.842072584	 0.111256
H	-0.9466713819	 1.7170088528	 0.8742833501	 0.111699
H	-0.8303029489	-0.5043713306	-0.2190662356	 0.072508
H	 0.6941255507	-0.270284897	-2.1496335846	 0.101826
H	 1.9727162743	 0.3485030853	-1.0990546062	 0.098394
H	 0.7892924187	-2.4698010384	-1.0890630646	 0.091114
H	 3.4254953698	-1.5499305009	-1.2883925102	 0.277543
H	 1.451252245	-2.7532343447	 1.1963679189	 0.077575
H	 3.1872550715	-1.389807627	 2.3173997838	 0.104633
H	 3.6038482526	-0.6703334797	 0.7447266883	 0.081871
H	 0.0201710146	-0.7356571531	 2.0396130542	 0.067843
109.1931	139.7912	220.2311	227.2506	244.6275	269.4509	311.875	413.9309	482.4362	524.5313	574.4746	589.677	791.2077	827.8889	867.7199	893.4701	914.5503	930.8478	953.5056	996.5659	1009.5911	1028.1635	1064.7842	1096.1658	1108.6478	1129.6554	1141.7117	1166.0331	1196.9716	1226.906	1250.2472	1253.6406	1298.4002	1317.8801	1325.9254	1339.0495	1358.1845	1370.4609	1379.0929	1406.3295	1430.3194	1488.7273	1495.7695	1505.5582	1527.7875	2995.9088	2996.9265	3021.6488	3034.8767	3039.7086	3041.1812	3042.5853	3098.718	3099.6335	3113.6047	3118.1732	3804.4584
CC1CC(O)C2COC12	C[C@H]1C[C@@H](O)[C@H]2CO[C@@H]12	
InChI=1S/C7H12O2/c1-4-2-6(8)5-3-9-7(4)5/h4-8H,2-3H2,1H3	InChI=1S/C7H12O2/c1-4-2-6(8)5-3-9-7(4)5/h4-8H,2-3H2,1H3/t4-,5+,6+,7-/m0/s1
