15
gdb 48094	3.33971	1.12332	0.85206	1.2932	70.41	-0.2485	-0.0705	0.178	1256.0774	0.110831	-453.947022	-453.938501	-453.937556	-453.981225	29.863	
N	 0.0865902588	 1.4454734727	 0.5386004976	-0.513778
C	 0.0929500826	 0.1845912093	 0.2885306165	 0.268633
C	-1.2650582005	-0.4671960132	 0.3058294192	 0.150026
O	-1.4711206831	-1.6361955127	 0.0958607528	-0.263815
N	 1.1625091879	-0.6189721729	 0.0455654199	-0.114339
C	 1.2856266235	-1.9796667778	-0.516283407	-0.285984
C	 2.771471408	-1.6446771488	-0.7502363825	 0.387387
O	 3.712716322	-2.2361313822	-1.1747605334	-0.261951
C	 2.5464722776	-0.2132167088	-0.207197313	-0.316221
H	 1.0257807453	 1.847826985	 0.5215592644	 0.21954
H	-2.0643807856	 0.262601099	 0.5347014362	 0.123132
H	 1.0884774501	-2.7932815298	 0.1877217846	 0.158323
H	 0.7131393194	-2.1620088878	-1.4319295615	 0.156021
H	 2.6636794672	 0.5779203589	-0.9613614036	 0.144225
H	 3.1287879267	 0.0503303892	 0.6842186097	 0.148802
49.9322	94.2771	156.3305	163.8831	181.3833	271.7375	425.0422	449.0298	494.9453	550.5297	579.2259	690.5775	731.5087	778.6255	867.8571	922.5483	1026.9872	1045.7942	1048.3119	1061.4305	1103.954	1142.1664	1159.9033	1228.9688	1261.1046	1299.0101	1376.0123	1458.003	1464.9394	1487.7564	1674.0966	1816.0814	1937.1083	2972.7636	3007.8293	3050.7691	3059.6505	3098.8945	3460.4234
N=C(C=O)N1CC(=O)C1	[NH][C](C=O)N1CC(=O)C1	
InChI=1S/C5H6N2O2/c6-5(3-8)7-1-4(9)2-7/h3,6H,1-2H2	InChI=1S/C5H6N2O2/c6-5(3-8)7-1-4(9)2-7/h3,6H,1-2H2
