20
gdb 23318	2.94886	1.27099	1.09121	0.8729	81.43	-0.2381	0.0142	0.2522	1179.8428	0.172993	-403.114185	-403.106053	-403.105109	-403.146906	32.246	
O	-0.029835535	 1.3367559026	-0.1986779499	-0.400126
N	 0.0540077562	-0.0679411247	-0.1597189492	-0.204281
C	-1.0827962937	-0.6236518608	 0.0148487559	 0.368206
C	-2.4212916835	 0.0527915257	 0.1358562749	-0.289217
C	-3.3303089746	-0.3382303464	-1.0533210174	-0.228034
C	-3.2674406913	-1.8250604088	-1.409013294	-0.019259
C	-2.1702658513	-2.3410643802	-2.3126326794	-0.284729
C	-2.168592078	-2.7127046135	-0.8543234518	-0.020293
C	-1.1166821769	-2.1280887769	 0.0815103654	-0.288316
H	 0.8924173723	 1.5849739042	-0.3182297388	 0.304055
H	-2.8879378621	-0.2964094792	 1.0665034259	 0.106972
H	-2.3102229975	 1.1346592218	 0.1997044348	 0.130253
H	-4.3612170505	-0.0629895567	-0.8088650598	 0.100465
H	-3.0502871874	 0.2640021011	-1.9250108609	 0.113526
H	-4.2351447731	-2.3010312609	-1.5328409439	 0.082224
H	-2.411261317	-3.1038962665	-3.044906996	 0.105915
H	-1.4252155509	-1.6232205721	-2.6449378105	 0.118883
H	-2.4479764254	-3.7354709023	-0.6188027121	 0.081894
H	-0.1225326788	-2.5299209661	-0.1354639204	 0.115531
H	-1.3679793214	-2.4165587002	 1.1126889072	 0.106331
76.1077	112.2868	268.0029	285.356	333.2344	368.1397	376.7328	407.5411	480.4831	558.8868	587.8198	720.456	752.0264	784.8041	799.2905	849.1259	856.7278	927.7412	959.3864	968.4331	1016.1732	1023.9562	1065.2504	1073.9937	1107.3287	1135.6355	1138.3029	1191.5541	1226.6273	1236.9644	1240.218	1270.5594	1326.3747	1339.0245	1364.6152	1380.3021	1405.651	1422.0336	1473.6115	1484.7169	1492.4411	1502.3118	1739.0896	3001.3051	3021.9333	3036.2604	3074.9241	3082.6273	3122.0858	3138.4748	3141.1255	3152.6117	3208.4367	3825.856
ON=C1CCC2CC2C1	ON=C1CC[C@H]2C[C@H]2C1	
InChI=1S/C7H11NO/c9-8-7-2-1-5-3-6(5)4-7/h5-6,9H,1-4H2	InChI=1S/C7H11NO/c9-8-7-2-1-5-3-6(5)4-7/h5-6,9H,1-4H2/t5-,6-/m0/s1
