20
gdb 66562	2.30223	2.20108	1.57859	1.8993	81.28	-0.2094	0.0763	0.2858	952.6359	0.171283	-365.928637	-365.920977	-365.920033	-365.960101	31.282	
C	 0.0118696284	 1.4599489601	 0.0359625721	-0.521777
C	-0.039479414	-0.0361474899	 0.0502099334	 0.312887
C	 0.3993133208	-1.046589289	-1.0054642008	-0.17425
C	 1.1576389647	-0.9567911032	 0.2892737664	-0.076385
N	 0.5613280088	-2.1864502436	 0.897592275	-0.161871
C	-0.4896405909	-1.650386897	 1.8395623453	-0.224827
C	-1.152865873	-0.969530916	 0.6227227295	 0.260727
C	-2.596987467	-0.5506201493	 0.5367538233	-0.517781
C	-0.4634300028	-2.0787301028	-0.2509595942	-0.056609
H	 0.9321670462	 1.8135542665	-0.4420900445	 0.122064
H	-0.8305201483	 1.8932713284	-0.5158114945	 0.11991
H	-0.0085912633	 1.8713737792	 1.0525577409	 0.119928
H	 0.716529691	-0.9385017364	-2.0339628303	 0.090386
H	 2.1640628848	-0.6171268703	 0.5014168719	 0.086228
H	-1.0777576901	-2.4838072691	 2.2386468296	 0.099925
H	-0.1098708362	-1.0335097796	 2.6609751073	 0.094623
H	-2.8025108062	 0.307206631	 1.1879620641	 0.119701
H	-2.8636104542	-0.258855942	-0.485698991	 0.119428
H	-3.2657894066	-1.3641599138	 0.8380336934	 0.117154
H	-0.9314179221	-2.9888474933	-0.6236203668	 0.07054
192.7599	198.8309	205.2836	232.8164	276.1957	338.7594	440.9379	568.1563	587.8604	616.9264	754.8705	759.982	818.6243	836.5925	854.364	856.9342	876.8391	903.6457	904.9632	929.9313	985.0827	1015.0689	1034.1476	1058.1865	1105.3175	1123.8382	1146.1237	1165.5483	1177.7902	1198.937	1204.6626	1230.2617	1242.202	1280.1011	1341.5674	1402.2863	1413.2408	1425.7383	1483.7587	1491.9013	1493.19	1497.3014	1500.9129	3016.6527	3021.1811	3035.5611	3074.183	3083.4442	3087.596	3090.0736	3093.8883	3121.9166	3184.173	3203.419
CC12C3C1N1CC2(C)C31	C[C@@]12[C@H]3[C@@H]1N1C[C@]2(C)[C@@H]31	
InChI=1S/C8H11N/c1-7-3-9-5(7)4-6(9)8(4,7)2/h4-6H,3H2,1-2H3	InChI=1S/C8H11N/c1-7-3-9-5(7)4-6(9)8(4,7)2/h4-6H,3H2,1-2H3/t4-,5-,6+,7-,8-/m1/s1
