14
gdb 132374	2.00914	1.86633	0.96842	4.9141	68.98	-0.2265	0.005	0.2315	1111.7286	0.103022	-474.239378	-474.231804	-474.23086	-474.271125	29.604	
N	 0.029267138	 1.3596278616	 0.1546344783	-0.569205
C	-0.0178499599	-0.0028953082	 0.0517448872	 0.413414
C	-1.222945348	-0.7071505333	 0.0032524446	-0.282488
C	-1.1295087803	-2.0994300185	-0.0557461536	 0.413386
N	-2.2315427233	-2.9029424175	-0.1500262515	-0.569121
N	 0.0586999245	-2.7363390494	-0.062019094	-0.39596
C	 1.1054794768	-1.9408081371	-0.015590272	 0.333888
F	 2.2753955368	-2.560656243	-0.0250623361	-0.06683
N	 1.176419081	-0.6282554399	 0.038751206	-0.395958
H	 0.9279106607	 1.7755395639	-0.0323735578	 0.263967
H	-0.7773047319	 1.8931547373	-0.1222654133	 0.2564
H	-2.1800796222	-0.2000298055	 0.0110028555	 0.078154
H	-3.1222245651	-2.5369934621	 0.1408103853	 0.256392
H	-2.0685858872	-3.8811707082	 0.0287605114	 0.263963
181.762	220.011	225.8424	324.8858	350.5245	384.3342	398.7267	468.127	490.1787	534.6226	569.4901	595.0065	647.7311	712.7951	726.0779	789.1845	827.7651	989.9785	1021.341	1053.6624	1100.7092	1164.672	1257.4043	1346.0178	1450.2855	1498.9905	1514.9793	1609.3884	1628.1584	1646.8086	1660.0954	3194.3063	3597.4474	3598.6581	3720.5891	3720.9788
NC1=CC(N)=NC(F)=N1	Nc1cc(N)nc(F)n1	
InChI=1S/C4H5FN4/c5-4-8-2(6)1-3(7)9-4/h1H,(H4,6,7,8,9)	InChI=1S/C4H5FN4/c5-4-8-2(6)1-3(7)9-4/h1H,(H4,6,7,8,9)
