17
gdb 81098	2.03614	1.59658	1.21751	3.8149	70.01	-0.2424	-0.0289	0.2135	1079.2947	0.134342	-458.908012	-458.899429	-458.898485	-458.941294	32.167	
O	 0.1586868142	 1.4120664027	-0.1861957868	-0.43982
C	 0.0533899011	 0.0350910724	-0.0356272858	 0.147907
C	 0.0178181799	-0.6448892953	 1.3689711103	-0.1681
C	-1.4526933334	-0.1528731009	 1.5212784398	-0.304637
C	-1.3716146485	-0.6750574908	 0.0607875023	 0.178182
C	-2.4410481823	-0.6832141458	-0.9699003771	 0.017598
O	-3.5013250112	-0.1175552605	-0.8459332435	-0.252994
C	-0.5927257499	-1.8881240302	 0.6410206358	 0.106623
O	 0.1653706148	-2.6220414291	-0.281822503	-0.43778
H	-0.4082685398	 1.8591882519	 0.4506527889	 0.289039
H	 0.7340836433	-0.4102873247	-0.7572533933	 0.114731
H	 0.7977518518	-0.6384751284	 2.1318436126	 0.079436
H	-2.0967199758	-0.7169479849	 2.2003057221	 0.108824
H	-1.6195561309	 0.9161911558	 1.6602471077	 0.099315
H	-2.1888612858	-1.2421280427	-1.8984058288	 0.085516
H	-1.1978267301	-2.5394540946	 1.2837855297	 0.083524
H	 0.7050321227	-3.2553517049	 0.2014685289	 0.292637
68.939	148.1047	198.4698	236.8885	251.1983	272.1064	309.9121	386.2167	435.0689	515.5441	556.8044	640.739	706.0295	749.2587	831.0745	859.4739	903.3243	939.7448	1001.6869	1010.602	1040.1975	1085.4755	1128.093	1144.1511	1156.9769	1179.1594	1194.3848	1221.1108	1231.2333	1277.2894	1288.4224	1333.6636	1420.1197	1431.4616	1458.7349	1536.6951	1805.4734	2886.019	3029.4977	3072.0902	3105.7404	3126.6672	3155.307	3815.814	3824.4183
OC1C2CC1(C=O)C2O	O[C@H]1[C@H]2C[C@]1(C=O)[C@H]2O	
InChI=1S/C6H8O3/c7-2-6-1-3(4(6)8)5(6)9/h2-5,8-9H,1H2	InChI=1S/C6H8O3/c7-2-6-1-3(4(6)8)5(6)9/h2-5,8-9H,1H2/t3-,4-,5-,6-/m0/s1
