16
gdb 49186	4.05434	1.33544	1.18516	2.607	76.46	-0.2271	-0.0581	0.169	1035.1295	0.1257	-400.704365	-400.697636	-400.696691	-400.735622	26.635	
O	-0.0710211338	-0.0156909387	 0.1644901198	-0.281708
C	-0.0177582182	 1.1928595692	 0.0698458557	 0.057782
C	 1.2187490051	 1.9555621165	-0.0262807929	 0.246903
C	 1.3406657781	 3.296880769	-0.0433305134	-0.152329
N	 2.7119843555	 3.7239117216	-0.0813741438	-0.167042
C	 3.2478508829	 3.3953331928	 1.3329822336	-0.181761
C	 3.680220066	 2.0296739231	 0.8412920258	-0.088802
C	 3.4751245681	 2.5013117153	-0.5684427876	-0.024703
C	 2.6013347811	 1.3939255144	-0.0856684348	-0.165878
H	-0.9430631322	 1.8103535554	 0.0513839502	 0.067756
H	 0.5622389493	 4.0411795286	 0.0782092142	 0.126031
H	 4.0941539693	 4.0513400552	 1.545952483	 0.126811
H	 2.5006234538	 3.4747498161	 2.1295778713	 0.111983
H	 4.4661733958	 1.4088480663	 1.2508525687	 0.105154
H	 4.1094782346	 2.5459711863	-1.4451718858	 0.102708
H	 2.7790815148	 0.3686802889	-0.3810557838	 0.117095
106.8175	174.731	241.4926	358.2594	456.9433	501.6088	546.7812	685.2224	754.7617	763.1016	782.143	798.8808	831.0917	864.346	920.6908	933.7038	988.8485	1000.6029	1027.2359	1034.1861	1045.4835	1059.5553	1095.1447	1104.9212	1176.2731	1218.3329	1228.4558	1254.5653	1295.7143	1347.8353	1388.6312	1419.8538	1500.9192	1638.0139	1773.6851	2883.1537	3045.6472	3114.7001	3184.3252	3202.6925	3206.5351	3219.9212
O=CC1=CN2CC3C2C13	O=CC1=CN2C[C@@H]3[C@H]2[C@H]13	
InChI=1S/C7H7NO/c9-3-4-1-8-2-5-6(4)7(5)8/h1,3,5-7H,2H2	InChI=1S/C7H7NO/c9-3-4-1-8-2-5-6(4)7(5)8/h1,3,5-7H,2H2/t5-,6+,7-/m0/s1
