19
gdb 24168	4.9874	0.92307	0.83053	4.1526	80.98	-0.2188	0.0335	0.2523	1396.5038	0.161891	-382.091116	-382.083074	-382.082129	-382.125042	30.132	
C	-0.008888078	 1.4693189773	-0.2788506787	-0.204497
C	-0.0720380513	-0.0323737812	-0.1048305756	 0.030397
C	-0.3393293843	-0.6414231853	 1.2486554002	-0.255079
C	-1.3989552847	-0.6891544078	 0.1769345239	-0.273054
N	 1.3264739117	 2.0188243856	-0.0911626103	 0.026191
C	 2.046189079	 2.0859772721	 1.0837274428	-0.127053
C	 3.2473038383	 2.6541789036	 0.7496644491	-0.088252
N	 3.2919956084	 2.9384518636	-0.5952432518	-0.276282
C	 2.1294137076	 2.5445867887	-1.0622887811	 0.002486
H	-0.3263298614	 1.7489103053	-1.2887732897	 0.124666
H	-0.7000241202	 1.9556891361	 0.4202411944	 0.117378
H	 0.6114262365	-0.5757278502	-0.7510578963	 0.099438
H	 0.1777026074	-1.5578319262	 1.5088274066	 0.122266
H	-0.5037858544	 0.027355311	 2.0876722142	 0.114147
H	-2.267222417	-0.0489210301	 0.2963878342	 0.115382
H	-1.612470319	-1.6379199454	-0.3016218812	 0.120576
H	 1.6410961772	 1.7300676563	 2.0160444481	 0.123623
H	 4.0792246946	 2.877490585	 1.4005248241	 0.105198
H	 1.8003306897	 2.6142142814	-2.0893432631	 0.122468
34.7466	88.3371	104.9174	271.6542	287.8161	349.9348	413.5203	635.5988	678.6015	727.6461	731.0611	777.7581	809.8185	814.8593	846.7212	854.3005	904.6108	916.8227	957.4833	1012.2518	1047.2524	1061.9798	1084.6039	1100.1794	1137.3349	1145.1399	1160.5957	1198.7568	1226.8113	1247.9703	1267.8818	1305.4599	1352.7394	1390.3583	1417.5639	1424.1444	1469.7388	1483.4255	1507.8965	1533.218	1544.6031	3031.873	3080.4002	3131.4158	3136.0324	3152.1197	3210.9837	3225.6114	3239.1974	3245.9455	3282.2269
C(C1CC1)N1C=CN=C1	C(C1CC1)n1ccnc1	
InChI=1S/C7H10N2/c1-2-7(1)5-9-4-3-8-6-9/h3-4,6-7H,1-2,5H2	InChI=1S/C7H10N2/c1-2-7(1)5-9-4-3-8-6-9/h3-4,6-7H,1-2,5H2
