19
gdb 105649	2.03717	1.42226	1.27637	2.3303	78.09	-0.2497	0.0313	0.281	1146.2225	0.156517	-422.967025	-422.957405	-422.95646	-423.001138	36.009	
C	-0.0007223262	 1.2501644902	 0.168823442	-0.253382
O	-0.0119247265	-0.1437421437	-0.0802529113	-0.299707
C	 0.6745122454	-0.5764004231	-1.2492111971	 0.177983
C	 2.2200324793	-0.6474551209	-1.0267192149	-0.278379
C	 2.0486599408	-2.0807259205	-0.4590826063	-0.272377
C	 0.6601845911	-2.148406952	-1.1564161731	 0.130897
O	-0.4274470695	-2.7352473431	-0.5194137614	-0.43054
C	 0.1766545176	 0.0558246816	-2.4611733005	 0.272507
C	-0.216203558	 0.558845663	-3.4809328223	-0.447612
H	 1.019765902	 1.6349373135	 0.3001823821	 0.111687
H	-0.4845368097	 1.8046188368	-0.6441484271	 0.129491
H	-0.5577769911	 1.4043152453	 1.095435448	 0.130377
H	 2.7559736009	-0.6262111475	-1.9778407042	 0.117444
H	 2.6388010309	 0.1138638743	-0.3663574853	 0.110862
H	 2.786844526	-2.8332374669	-0.7414653919	 0.102516
H	 1.9357267012	-2.0776878091	 0.6273972404	 0.109711
H	 0.739839182	-2.5836531014	-2.1558496048	 0.099435
H	-0.6844497093	-2.1249070488	 0.1845790668	 0.292931
H	-0.5684301569	 0.9977248924	-4.3818456491	 0.196156
102.3465	114.4704	141.28	166.3837	193.536	213.2816	321.0199	368.5401	403.9586	433.5326	487.8975	527.782	605.2025	609.0601	621.6562	667.1831	708.2904	781.0365	877.6493	928.9143	958.6991	1016.8675	1081.1069	1096.0159	1137.5216	1153.9676	1167.3387	1184.7875	1213.8629	1222.5199	1236.3168	1258.1909	1292.8813	1343.8649	1441.3467	1466.5641	1479.4691	1485.9399	1489.6205	1511.4805	2225.3244	3006.2378	3068.4658	3073.0662	3078.4549	3084.1154	3124.7742	3125.376	3139.7551	3499.3546	3766.7222
COC1(CCC1O)C#C	CO[C@]1(CC[C@H]1O)C#C	
InChI=1S/C7H10O2/c1-3-7(9-2)5-4-6(7)8/h1,6,8H,4-5H2,2H3	InChI=1S/C7H10O2/c1-3-7(9-2)5-4-6(7)8/h1,6,8H,4-5H2,2H3/t6-,7+/m1/s1
