16
gdb 26013	4.41542	0.90719	0.90276	3.1589	70.66	-0.2297	0.0061	0.2358	1301.5097	0.125024	-437.947492	-437.939074	-437.93813	-437.982176	30.49	
N	 0.8094931216	-0.0407911543	 0.4222262732	-0.512276
C	-0.3984919627	 0.2995324283	-0.1064772279	 0.394235
O	-0.8088675385	 1.4419002143	-0.1457770925	-0.361325
C	-1.1974874496	-0.8632449692	-0.7235745577	-0.423541
C	-0.9603503431	-2.2238931476	-0.1428896962	 0.212142
C	-0.3008803119	-3.268032658	-0.7186762207	-0.100217
O	-0.2842090571	-4.3500390005	 0.1040701285	-0.139026
C	-0.9470202426	-3.9917605115	 1.2352691055	 0.009614
C	-1.3808591313	-2.7096052575	 1.1477561841	-0.278985
H	 1.3571495197	 0.6814767871	 0.8595477419	 0.25983
H	 1.079429722	-1.0025371911	 0.5349722327	 0.262153
H	-2.2484190422	-0.573502815	-0.6419638818	 0.140819
H	-0.9599773673	-0.8672311067	-1.7939229129	 0.134004
H	 0.1777098677	-3.3975051983	-1.6760452875	 0.140286
H	-1.0224579865	-4.753399373	 1.9936842912	 0.140935
H	-1.9364289182	-2.1643242869	 1.8952411599	 0.121351
30.5732	51.3608	113.4046	245.7398	298.4731	321.1638	388.3248	509.5674	547.5466	623.0519	647.5834	666.5784	740.8106	763.6337	795.3536	839.197	866.8196	891.4149	934.4746	994.9018	1057.7741	1095.6644	1102.9133	1178.1632	1211.5606	1265.7008	1280.7766	1319.8623	1349.8405	1408.0571	1462.48	1537.5736	1607.7943	1630.2271	1804.2596	3048.5066	3101.2154	3252.0076	3270.3456	3285.8439	3601.5341	3736.9207
NC(=O)CC1=COC=C1	NC(=O)Cc1cocc1	
InChI=1S/C6H7NO2/c7-6(8)3-5-1-2-9-4-5/h1-2,4H,3H2,(H2,7,8)	InChI=1S/C6H7NO2/c7-6(8)3-5-1-2-9-4-5/h1-2,4H,3H2,(H2,7,8)
