16
gdb 67514	2.37878	1.73817	1.31766	3.3144	69.54	-0.2201	0.0056	0.2257	986.4714	0.122824	-437.790435	-437.782748	-437.781804	-437.82254	30.025	
O	-0.0941229873	 1.4038957932	 0.0598906897	-0.459582
C	-0.0424976462	 0.0300833949	 0.0104348027	 0.392876
C	 0.6655002289	-0.7355748768	-1.1525253358	-0.130087
N	 0.8351393204	-2.1415771108	-0.7264906107	-0.326595
C	-0.473576718	-1.6719736911	-1.2384340157	-0.045423
C	-1.2088499857	-0.9430156974	-0.0782733448	-0.161318
C	-0.3586900296	-0.8734001139	 1.1764501903	-0.192268
C	 0.5320989167	-1.9460782408	 1.7529481239	 0.164358
O	 1.516278819	-1.6837274938	 2.4013396174	-0.289846
H	 0.6494330704	 1.7139121062	 0.5905993959	 0.296324
H	 1.2765663205	-0.2845737665	-1.9230775036	 0.107588
H	 1.3193939273	-2.657454053	-1.4598359901	 0.23991
H	-0.942828378	-2.1316521872	-2.0977110359	 0.105002
H	-2.2705824188	-0.7362297802	-0.0772609433	 0.103809
H	-0.8583331303	-0.3008546424	 1.9571062441	 0.121047
H	 0.1654052006	-2.9849018302	 1.6343740761	 0.074207
100.0903	135.6498	240.2966	314.1048	322.6717	354.1925	415.908	482.4941	573.1864	588.898	686.7279	744.8502	785.189	821.6098	838.8761	888.4313	912.8822	929.0729	957.0463	974.6241	1001.419	1042.6576	1077.184	1091.1338	1110.0055	1179.7046	1210.6955	1246.7583	1296.2867	1310.78	1317.7606	1348.6194	1412.3612	1463.9672	1796.4857	2923.3093	3130.9107	3199.2128	3208.1376	3214.7963	3483.1201	3781.1896
OC12C3NC3C1C2C=O	O[C@]12[C@H]3N[C@H]3[C@H]1[C@H]2C=O	
InChI=1S/C6H7NO2/c8-1-2-3-4-5(7-4)6(2,3)9/h1-5,7,9H	InChI=1S/C6H7NO2/c8-1-2-3-4-5(7-4)6(2,3)9/h1-5,7,9H/t2-,3-,4+,5+,6+/m1/s1
