19
gdb 37723	3.08225	2.08196	1.68649	1.4774	77.15	-0.2266	0.0907	0.3173	866.6521	0.164121	-385.864202	-385.858237	-385.857293	-385.894243	26.12	
C	 0.011865578	 1.6415930392	 0.0645507302	-0.225386
C	 1.5497014318	 1.3548224444	-0.0023513546	-0.098777
C	 1.7799270383	 0.6307205062	 1.3357173314	-0.062412
C	 1.9814107807	-0.8641812064	 1.2780883144	-0.082193
C	 2.4926012234	-1.5282461333	 0.0236071513	-0.086857
O	 1.9988363735	-0.9076693242	-1.1581407735	-0.28574
C	 1.1480477935	 0.181193412	-0.9426785605	 0.159761
C	-0.0796967047	 0.0794928801	 0.0087672607	-0.098778
C	 0.5792078165	-0.3090782957	 1.3439127484	-0.062412
H	-0.3607541503	 2.1255562054	 0.9700222647	 0.094972
H	-0.3825254512	 2.13770482	-0.8270705636	 0.0941
H	 2.2750614766	 2.1093715067	-0.3062652919	 0.061915
H	 2.0835415405	 1.1945199839	 2.2098220187	 0.083241
H	 2.3465714067	-1.3227402705	 2.1933859825	 0.084832
H	 3.5919336489	-1.4956511806	-0.0014811603	 0.096991
H	 2.1966704891	-2.5876833411	 0.0080369292	 0.096991
H	 0.8621232377	 0.5378607657	-1.9334223212	 0.084596
H	-0.988921615	-0.4453468881	-0.2839927863	 0.061915
H	-0.0335944141	-0.4625503838	 2.2242708901	 0.083241
150.8351	363.9551	414.0349	486.9747	498.8054	585.2267	681.3505	749.5594	763.7265	773.6239	823.3782	824.0836	857.1103	920.4474	923.7513	929.6562	973.7792	1000.8682	1005.3427	1035.2381	1048.9696	1068.3203	1085.3743	1091.1385	1111.4285	1123.7485	1135.161	1187.1371	1194.8134	1216.7864	1236.7356	1262.9817	1274.123	1288.0337	1324.8192	1343.2676	1393.1632	1430.7492	1442.1139	1495.662	1527.5445	2983.1533	3006.5765	3055.6558	3100.9236	3114.3045	3117.6879	3121.4238	3142.8645	3171.7949	3182.4226
C1C2C3C4COC2C1C34	C1[C@H]2[C@@H]3[C@@H]4CO[C@H]2[C@H]1[C@H]34	
InChI=1S/C8H10O/c1-3-6-5-2-9-8(3)4(1)7(5)6/h3-8H,1-2H2	InChI=1S/C8H10O/c1-3-6-5-2-9-8(3)4(1)7(5)6/h3-8H,1-2H2/t3-,4+,5-,6+,7-,8+
