17
gdb 52205	3.80826	0.82088	0.77258	3.7428	74.57	-0.2619	0.0162	0.2781	1466.0837	0.136133	-418.034614	-418.025439	-418.024494	-418.070066	32.098	
O	 0.162843329	 1.731985747	-1.083375824	-0.325664
C	 0.1577082714	 1.6359617614	 0.1267732483	 0.153579
N	 1.1807120313	 1.1250685381	 0.8589433293	-0.263774
C	 2.3987658988	 0.6294245748	 0.2308441952	-0.20644
C	 3.2862620268	 1.74562445	-0.2860044628	 0.00507
C	 4.212266914	 2.486238227	 0.6275562661	-0.285074
C	 4.7903603145	 1.54031835	-0.4177873929	-0.178203
C	 5.3922213399	 0.3090833812	 0.012398972	 0.285889
N	 5.8678552405	-0.6850809101	 0.3660578036	-0.342835
H	-0.6940106992	 1.9544626742	 0.7595253284	 0.081739
H	 1.1071842729	 1.1268838556	 1.8629178407	 0.254455
H	 2.9339238522	 0.0158487001	 0.9598291084	 0.128841
H	 2.1130372555	-0.0178325922	-0.6039238064	 0.148057
H	 2.8367605294	 2.312600108	-1.0935956306	 0.135749
H	 4.3730450902	 3.5466017695	 0.4724132143	 0.135239
H	 4.2795973815	 2.1637920646	 1.6609647235	 0.13363
H	 5.2704230413	 1.9861783407	-1.2819196332	 0.139741
33.6082	68.4117	103.1067	158.7007	209.2273	252.6282	294.4004	367.7778	430.9673	496.508	557.9479	623.695	762.5598	776.4417	820.9716	883.4425	917.97	943.4846	990.6207	1032.3785	1040.5675	1079.6656	1122.9169	1136.1435	1178.1258	1218.1162	1226.9159	1299.9308	1360.4064	1390.2035	1421.035	1428.5534	1467.4383	1490.6736	1521.9215	1799.6352	2350.2192	2942.7575	3062.02	3113.7529	3141.8822	3172.9762	3185.2024	3231.9618	3647.5842
O=CNCC1CC1C#N	O=CNC[C@H]1C[C@H]1C#N	
InChI=1S/C6H8N2O/c7-2-5-1-6(5)3-8-4-9/h4-6H,1,3H2,(H,8,9)	InChI=1S/C6H8N2O/c7-2-5-1-6(5)3-8-4-9/h4-6H,1,3H2,(H,8,9)/t5-,6+/m0/s1
