23
gdb 85941	2.51547	1.32176	1.14947	2.661	81.11	-0.2464	0.0576	0.304	1220.5689	0.205587	-425.45232	-425.442805	-425.441861	-425.485893	37.981	
C	 0.0552569389	 1.6076654025	 0.0394637621	-0.402585
C	 0.0515411306	 0.0814343582	 0.063017516	 0.016708
C	 0.6756532135	-0.5886003789	-1.1946881733	-0.25062
C	 1.5029408112	-1.8038348114	-0.6974484694	 0.380917
C	 1.3683257998	-3.0528610376	-1.5621568006	-0.453757
O	 2.8828936725	-1.3543567562	-0.7177219977	-0.470188
C	 1.0531550001	-1.9841186096	 0.7687586318	-0.277364
C	 0.8258099721	-0.5435670411	 1.2542908269	 0.128512
O	 2.046461138	 0.1197277931	 1.5414318805	-0.448804
H	 1.0803529444	 1.987317466	 0.026502931	 0.125196
H	-0.4690245562	 1.9903144009	-0.8425504829	 0.104261
H	-0.4374650446	 2.0182859525	 0.9271743124	 0.110417
H	-0.9863563276	-0.2660676356	 0.153325297	 0.064207
H	-0.0945422335	-0.9022006484	-1.9044748329	 0.096046
H	 1.3464374015	 0.0913626707	-1.7273778179	 0.114523
H	 1.7135647366	-2.8510800956	-2.5806110909	 0.126414
H	 1.9653220183	-3.8792229752	-1.1569476067	 0.10504
H	 0.3274052029	-3.3875305331	-1.6077762637	 0.118344
H	 3.4287398211	-2.0726963831	-0.3770392009	 0.279016
H	 0.1112621794	-2.5445548917	 0.8031609216	 0.095845
H	 1.7894554083	-2.525293938	 1.3724703161	 0.087207
H	 0.2390552369	-0.4986344685	 2.1773539461	 0.068285
H	 2.6493807958	-0.09201602	 0.8132335452	 0.282381
68.0015	191.7071	218.404	235.7523	254.151	267.6369	322.5166	349.1522	390.4074	403.4161	432.32	461.8515	508.2128	603.2659	635.9974	694.7914	787.7907	822.9545	863.9687	890.3281	917.2556	927.9684	943.0617	991.4286	1002.7534	1059.4478	1069.9224	1101.2343	1123.3163	1162.7075	1197.913	1204.437	1247.7173	1276.1072	1291.4595	1313.7395	1332.16	1363.1195	1368.1953	1378.5602	1408.8285	1412.0444	1467.1661	1480.3625	1487.6473	1491.7978	1493.0148	1494.7289	1500.6182	3007.5312	3024.2138	3034.086	3035.0012	3057.8694	3063.3346	3082.6719	3091.5816	3096.4992	3103.3977	3114.5488	3120.321	3706.7509	3793.1366
CC1CC(C)(O)CC1O	C[C@H]1C[C@@](C)(O)C[C@H]1O	
InChI=1S/C7H14O2/c1-5-3-7(2,9)4-6(5)8/h5-6,8-9H,3-4H2,1-2H3	InChI=1S/C7H14O2/c1-5-3-7(2,9)4-6(5)8/h5-6,8-9H,3-4H2,1-2H3/t5-,6+,7+/m0/s1
