20
gdb 23375	2.5801	1.05275	0.84562	1.6698	78.13	-0.246	0.0105	0.2566	1411.1867	0.167635	-440.226674	-440.21635	-440.215406	-440.262682	36.878	
C	 0.5290184207	 1.4105948343	 0.4752177434	-0.404684
C	-0.1280872527	 0.1069702711	-0.0254637296	-0.103548
C	-1.5803392899	 0.3588429779	-0.3758033194	 0.113057
C	-2.6357105604	-0.6076709056	-0.0673029843	-0.181474
O	-2.4496199457	 0.5561289934	 0.7450171176	-0.253664
C	 0.6585568225	-0.4996310191	-1.1685009933	 0.358697
C	 2.0465332506	-1.0245985601	-0.9106110689	-0.472347
N	 0.092841735	-0.528837069	-2.3141750148	-0.167145
O	 0.9285502989	-1.0918931676	-3.2932947361	-0.406964
H	 1.5641221198	 1.2475948431	 0.7883881287	 0.11718
H	 0.5296124972	 2.1691984311	-0.3144434167	 0.124105
H	-0.0313993399	 1.800099845	 1.329097008	 0.140051
H	-0.112939713	-0.6126223558	 0.8053984073	 0.087476
H	-1.749060886	 1.0511503375	-1.1990672861	 0.10177
H	-3.5480223813	-0.6238458819	-0.6615106786	 0.11452
H	-2.3763727154	-1.553446482	 0.4073886559	 0.108849
H	 2.1441439633	-2.0373893111	-1.3120094322	 0.150081
H	 2.7946460906	-0.4127044929	-1.4261123324	 0.148051
H	 2.2785773071	-1.0351896305	 0.1560676069	 0.120984
H	 0.3684867985	-1.0649762577	-4.0760901353	 0.305007
48.7236	72.132	96.1223	154.276	185.5667	233.466	243.2023	298.8499	331.5419	384.5733	413.3757	424.7879	485.7466	569.8007	664.9192	795.52	828.5195	872.0797	937.7434	966.2705	974.4736	1018.8702	1022.9552	1059.2258	1101.0476	1109.0702	1152.8761	1168.2765	1178.3169	1225.88	1290.1855	1314.4434	1328.6359	1391.8608	1399.8888	1406.1294	1450.9165	1473.6756	1482.3438	1498.7747	1504.0023	1532.4479	1727.1277	3009.811	3039.4538	3043.8874	3082.3359	3102.9439	3109.9792	3123.5099	3127.0589	3135.1105	3168.5965	3821.9428
CC(C1CO1)C(C)=NO	C[C@@H]([C@H]1CO1)C(=NO)C	
InChI=1S/C6H11NO2/c1-4(5(2)7-8)6-3-9-6/h4,6,8H,3H2,1-2H3	InChI=1S/C6H11NO2/c1-4(5(2)7-8)6-3-9-6/h4,6,8H,3H2,1-2H3/t4-,6-/m1/s1
