19
gdb 125617	5.18479	0.74103	0.6896	2.1536	79.31	-0.2303	0.0292	0.2595	1650.5929	0.159754	-419.234225	-419.224639	-419.223695	-419.269941	33.887	
C	-0.0478889535	 1.5051417722	-0.1372227737	-0.490435
C	-0.007658236	 0.0193260457	 0.036376973	 0.355447
N	 0.0210249524	-0.7847791868	-1.025269261	-0.288251
N	 0.0530608478	-2.0298879292	-0.5052231857	-0.255609
C	 0.0377584727	-2.0542001419	 0.8534455772	 0.375811
C	 0.103770702	-3.3260646561	 1.636758873	-0.305664
C	 1.5387044719	-3.7323129878	 1.9896910501	-0.061202
O	 1.4676250329	-4.9493932379	 2.712299279	-0.416954
C	 0.0013222824	-0.728262317	 1.2394024544	-0.379203
H	 0.824269855	 1.9865924004	 0.3190439983	 0.125038
H	-0.0608177118	 1.7543485558	-1.2003892402	 0.137829
H	-0.9384576099	 1.9395228081	 0.3302312893	 0.125969
H	 0.058240247	-2.8188444161	-1.1295680013	 0.266727
H	-0.4633018553	-3.2196676183	 2.5664290445	 0.128591
H	-0.3598227123	-4.1480405991	 1.0787096759	 0.112208
H	 2.1283443763	-3.8433006184	 1.0657278439	 0.088843
H	 2.0078321969	-2.9322101613	 2.5820363662	 0.09776
H	 2.359780196	-5.2043206401	 2.9645775905	 0.289005
H	-0.0227290345	-0.354169882	 2.2510978466	 0.094091
35.1086	86.9424	93.8471	103.64	241.4959	254.4135	263.8708	341.8366	387.004	398.8913	504.3748	637.776	693.9919	706.9523	785.5903	794.6859	811.0335	989.105	1003.5644	1010.3618	1042.4059	1050.5222	1066.4253	1080.7556	1166.7515	1186.7412	1209.0176	1239.2131	1289.5471	1314.4783	1339.5884	1407.2426	1429.9018	1453.5221	1470.5892	1484.7982	1489.072	1489.3305	1512.6273	1527.236	1612.1976	2972.4523	3005.7594	3033.9294	3042.8909	3084.255	3093.6222	3131.1801	3253.7304	3668.0174	3831.5542
CC1=NNC(CCO)=C1	Cc1n[nH]c(CCO)c1	
InChI=1S/C6H10N2O/c1-5-4-6(2-3-9)8-7-5/h4,9H,2-3H2,1H3,(H,7,8)	InChI=1S/C6H10N2O/c1-5-4-6(2-3-9)8-7-5/h4,9H,2-3H2,1H3,(H,7,8)
