17
gdb 36215	4.77837	0.96368	0.88768	4.4597	78.35	-0.2314	-0.0097	0.2217	1295.4575	0.137353	-380.863942	-380.856175	-380.85523	-380.896913	29.289	
N	-0.1671863294	-1.0495739204	 0.5309119055	-0.307823
C	-0.0861746624	 0.0541842991	 0.199498802	 0.266922
C	 0.0300713783	 1.4585504352	-0.2108125675	-0.447846
C	 1.449695063	 1.9601164121	-0.1763946154	 0.307717
C	 2.11666781	 2.546727983	-1.1720731507	-0.189924
C	 3.456707288	 2.9918744676	-0.7040957172	-0.055137
C	 3.4445238352	 3.9988789875	 0.3969800431	-0.233598
N	 3.5849252716	 2.576151295	 0.7160441618	-0.096114
C	 2.3200754025	 1.8952805591	 1.0666866435	-0.258029
H	-0.3893461234	 1.5652327585	-1.2164639737	 0.160395
H	-0.6054053688	 2.0518605415	 0.4612409052	 0.160918
H	 1.7517155202	 2.7019818115	-2.1803153024	 0.106799
H	 4.3266128674	 2.8787753257	-1.3451659253	 0.103317
H	 4.3308553818	 4.5919277011	 0.6057814344	 0.121083
H	 2.4971462142	 4.4937947825	 0.6030363083	 0.108648
H	 1.8543807872	 2.3751381408	 1.9378052348	 0.116023
H	 2.5318641544	 0.8570174802	 1.3533079135	 0.136648
52.6501	98.6267	187.4783	300.4198	362.9114	384.4493	401.9545	479.6665	522.8232	670.8201	720.4515	774.4862	816.7595	854.3787	876.6265	929.29	935.2022	949.119	1006.324	1036.0109	1055.0295	1080.5828	1110.4203	1152.7363	1185.5226	1210.7491	1225.946	1263.9415	1296.6328	1324.6941	1354.4583	1363.0896	1451.9112	1486.7457	1500.0394	1708.0246	2363.0653	3015.8854	3020.2858	3045.2585	3081.8173	3094.5007	3146.5477	3185.8374	3206.8047
N#CCC1=CC2CN2C1	N#CCC1=C[C@H]2CN2C1	
InChI=1S/C7H8N2/c8-2-1-6-3-7-5-9(7)4-6/h3,7H,1,4-5H2	InChI=1S/C7H8N2/c8-2-1-6-3-7-5-9(7)4-6/h3,7H,1,4-5H2/t7-,9?/m0/s1
