17
gdb 43042	2.53812	2.27626	1.66065	2.9239	75.45	-0.2183	-0.0179	0.2004	858.3456	0.139291	-384.695008	-384.688908	-384.687964	-384.725172	26.093	
O	 0.0041877455	 0.0694749835	 0.0978460253	-0.34387
C	-0.0393176854	 1.2660044233	 0.025381731	 0.453622
C	-1.2352138895	 2.2094772521	-0.0010809409	-0.156785
C	-0.8723059783	 3.0239707899	 1.2844284157	-0.253875
C	 0.2957232829	 3.5376257661	 0.406651017	-0.031965
C	-0.6468312071	 3.438956665	-0.831261696	-0.050736
C	 0.2496622825	 3.1008430931	-1.996280393	-0.101237
C	 1.3287180124	 2.4741187375	-1.513991538	-0.091263
C	 1.135569603	 2.289360321	-0.0142190318	-0.178287
H	-2.2156700789	 1.7779030086	-0.1838346338	 0.085848
H	-1.6038666206	 3.8087751049	 1.4898373149	 0.108726
H	-0.6518792769	 2.4686699128	 2.2000309264	 0.109763
H	 0.8514444706	 4.4489293983	 0.6304408069	 0.07497
H	-1.3725970218	 4.2432898045	-0.9529348659	 0.076729
H	 0.0257404919	 3.3095074294	-3.0344465011	 0.105
H	 2.1433797048	 2.0348270965	-2.074652744	 0.111851
H	 2.0080917148	 2.0113033934	 0.5746029173	 0.081507
160.2424	321.9186	370.8264	436.5089	493.5389	578.6222	655.9196	717.0368	743.0864	773.8533	790.1537	823.5037	839.328	883.9673	899.2796	934.5292	936.4884	962.859	987.7052	1011.5392	1013.474	1069.7145	1076.8733	1115.3381	1132.5783	1158.7419	1183.633	1219.1508	1226.382	1250.7059	1274.3604	1290.7979	1314.987	1349.6485	1507.8153	1636.5652	1869.4329	3059.6692	3106.3142	3113.886	3118.9351	3134.2711	3158.4482	3206.8881	3231.9745
O=C1C2CC3C2C=CC13	O=C1[C@H]2C[C@@H]3[C@H]2C=C[C@H]13	
InChI=1S/C8H8O/c9-8-5-2-1-4-6(5)3-7(4)8/h1-2,4-7H,3H2	InChI=1S/C8H8O/c9-8-5-2-1-4-6(5)3-7(4)8/h1-2,4-7H,3H2/t4-,5+,6-,7+/m1/s1
