16
gdb 129922	2.44496	1.82788	1.04892	3.4205	81.27	-0.1701	-0.0134	0.1566	1078.1469	0.127777	-430.259593	-430.251542	-430.250598	-430.29157	32.06	
N	 0.0468121118	 1.3675705665	-0.1199126296	-0.593033
C	 0.0014341812	-0.0122589558	-0.0039999023	 0.26562
C	-1.1452859815	-0.7486753901	 0.0667301831	-0.080036
N	-1.0903466844	-2.1000242288	 0.2431054549	-0.23719
N	 0.0417947305	-2.8111204223	 0.324990977	-0.28959
C	 1.1642811445	-2.1401751435	 0.2921775387	 0.305392
N	 2.3449876943	-2.8677450023	 0.4410228782	-0.564103
C	 1.2771460296	-0.6899590251	 0.1391018005	 0.198925
N	 2.3676859152	 0.0141473824	 0.1074482858	-0.599358
H	 0.9865511999	 1.6763302252	-0.342582098	 0.266564
H	-0.673062134	 1.7966546885	-0.6807214354	 0.239465
H	-2.1380394491	-0.3201186369	 0.0053033744	 0.115607
H	-1.9290179425	-2.6522835464	 0.2799680903	 0.27262
H	 2.1791052826	-3.8644390542	 0.3831261408	 0.250196
H	 3.0731538441	-2.5802659117	-0.2016969376	 0.245661
H	 3.1904000878	-0.5569542555	 0.2900442891	 0.20326
108.5255	254.374	308.4047	317.2588	340.2998	356.482	358.4259	368.5721	484.1152	516.8664	543.5501	561.8072	575.6993	652.7152	716.1808	739.8485	779.7277	814.174	830.2831	904.2289	995.9786	1040.3021	1129.3267	1167.3338	1266.6954	1313.1783	1371.1402	1400.1478	1463.1021	1547.284	1590.815	1599.2504	1618.8254	1658.3765	1679.6752	3205.6837	3497.3274	3525.4738	3526.204	3629.6707	3656.8386	3673.5706
NC1=CNN=C(N)C1=N	NC1=C(C(=NNC1)N)[NH]	
InChI=1S/C4H7N5/c5-2-1-8-9-4(7)3(2)6/h1H,(H2,6,8)(H4,5,7,9)	InChI=1S/C4H8N5/c5-2-1-8-9-4(7)3(2)6/h6,8H,1,5H2,(H2,7,9)
