20
gdb 47731	2.47226	1.64254	1.12566	2.6017	78.98	-0.2109	-0.0154	0.1955	1118.8257	0.173098	-403.159887	-403.151766	-403.150822	-403.192697	31.922	
O	 0.0204196925	 0.0487285472	 0.4688489356	-0.328071
C	 0.0162986925	 1.2093511216	 0.1150611704	 0.307598
C	-1.3054519609	 1.9554554303	-0.1081413045	-0.274935
N	-1.2774881673	 3.1051153237	-1.0087314157	-0.283611
C	-0.1408662746	 3.9864255892	-0.7378639078	-0.168714
C	 1.2086248391	 3.2709944396	-0.8834634109	-0.299311
C	 1.2767599071	 2.0178577047	-0.0190830497	 0.251438
C	 2.1077910618	 2.0420162996	 1.2695763106	-0.283204
C	 2.5758207603	 1.2540941607	 0.0889300304	-0.303168
H	-2.0545460031	 1.2307274329	-0.4375026787	 0.129008
H	-1.6257593384	 2.3021974685	 0.8869732909	 0.131745
H	-1.2240448385	 2.7787752568	-1.9693626154	 0.218104
H	-0.1931040922	 4.8455838287	-1.4146204623	 0.102649
H	-0.2540632373	 4.3751292926	 0.283111328	 0.10683
H	 1.3408401023	 2.9934104706	-1.9391897511	 0.097716
H	 2.0382899812	 3.9448521807	-0.6356071265	 0.095008
H	 2.6050682602	 2.9759671968	 1.510061247	 0.11575
H	 1.717536588	 1.4941073284	 2.1196427262	 0.132629
H	 2.4910679652	 0.1752112266	 0.1423433617	 0.140256
H	 3.4134868723	 1.6349861408	-0.4856196281	 0.112281
61.4253	125.1471	244.3022	280.7881	289.9404	366.9583	382.7707	451.0577	502.7511	567.3478	628.6386	677.9625	785.261	790.8207	817.4398	856.1688	891.9598	920.985	960.2019	989.4603	1004.9999	1018.289	1059.3641	1088.4242	1114.0479	1138.6228	1158.1713	1193.5555	1206.4709	1228.389	1293.7302	1325.7665	1340.69	1346.537	1379.0534	1390.1017	1446.4149	1452.5516	1477.7909	1485.1908	1489.074	1497.0012	1786.3751	2994.2018	3000.7454	3020.4128	3048.2188	3075.7253	3100.6951	3131.8677	3137.3153	3220.8001	3236.567	3502.5839
O=C1CNCCC11CC1	O=C1CNCCC21CC2	
InChI=1S/C7H11NO/c9-6-5-8-4-3-7(6)1-2-7/h8H,1-5H2	InChI=1S/C7H11NO/c9-6-5-8-4-3-7(6)1-2-7/h8H,1-5H2
