21
gdb 106834	2.85475	1.19877	0.99468	1.7387	80.47	-0.2329	0.0977	0.3306	1298.3837	0.180284	-424.170544	-424.160814	-424.15987	-424.205416	35.497	
C	 0.0787493603	 1.1844836324	 0.389161936	-0.25614
O	-0.0157737427	-0.0789566217	-0.247309749	-0.2777
C	-1.2807267647	-0.6148000474	-0.2255206911	 0.368962
C	-1.8758663333	-1.2390083213	 1.0244718547	-0.413503
C	-1.6884511616	-2.0733261212	-0.2305353066	 0.368983
C	-2.8181450078	-1.7825805246	-1.2282119253	-0.292556
C	-2.3955336368	-0.2713455577	-1.2232152528	-0.292541
O	-0.8846973318	-3.1872965145	-0.2580717261	-0.2777
C	-1.4601026433	-4.3205949616	 0.3703009273	-0.256142
H	 1.1240980433	 1.4946389554	 0.3267192697	 0.128236
H	-0.5465719367	 1.9393605632	-0.108273183	 0.111135
H	-0.219667089	 1.1239484248	 1.4450380674	 0.111434
H	-1.1302039742	-1.4501370451	 1.7852587241	 0.118639
H	-2.8612389304	-0.9648365304	 1.3976080693	 0.096952
H	-2.6425687605	-2.2548190785	-2.1973061136	 0.111633
H	-3.8361263507	-2.006756609	-0.8943214088	 0.093933
H	-3.1501885712	 0.4462830015	-0.8862934341	 0.093923
H	-1.9987378415	 0.0472469377	-2.1896726589	 0.111647
H	-0.7271578473	-5.1275636975	 0.3036562652	 0.128236
H	-1.6852968936	-4.1208718829	 1.4271788572	 0.111433
H	-2.3855884265	-4.6384105716	-0.1304736115	 0.111136
65.8054	92.2704	124.0025	175.3056	185.7105	195.5517	289.7997	297.5752	379.9917	399.7834	466.3712	536.7304	650.0601	703.6189	753.0615	799.4108	910.022	928.5331	929.6441	979.0062	997.9434	1050.0164	1061.9647	1096.5534	1138.1957	1151.1015	1179.2924	1179.4757	1201.2123	1210.3355	1211.1576	1217.526	1242.7038	1250.4856	1331.9594	1393.5516	1465.0717	1476.4034	1480.5419	1486.1129	1488.2177	1488.4392	1505.191	1505.3995	1531.127	2991.3577	2992.0349	3043.6281	3045.2824	3046.9299	3053.8512	3093.239	3102.6734	3120.5485	3122.0073	3122.2854	3199.4017
COC12CC1(CC2)OC	CO[C@]12C[C@]1(CC2)OC	
InChI=1S/C7H12O2/c1-8-6-3-4-7(6,5-6)9-2/h3-5H2,1-2H3	InChI=1S/C7H12O2/c1-8-6-3-4-7(6,5-6)9-2/h3-5H2,1-2H3/t6-,7+
