17
gdb 23212	2.54695	1.31104	0.95155	2.2307	74.14	-0.2356	-0.0119	0.2237	1213.665	0.134735	-455.054699	-455.045897	-455.044953	-455.088294	32.916	
O	-0.0844646789	 1.3291361989	 0.4614310456	-0.387926
N	-0.0299031007	-0.0727605765	 0.5200447663	-0.26007
C	-1.0685794261	-0.598483747	 0.0191645084	 0.352046
C	-2.3962531575	-0.1356057805	-0.5516947274	-0.383553
C	-2.898757117	-1.6217619972	-0.430573435	 0.078689
O	-3.505518178	-2.2231773006	-1.5411414988	-0.428282
C	-1.4570696647	-2.0349441581	-0.0613889259	 0.233415
C	-0.6442807146	-3.1555947038	-0.6112279125	-0.302443
N	-1.05210234	-3.1384215246	 0.7996999116	-0.365794
H	 0.7390202217	 1.5852982766	 0.8908805326	 0.308168
H	-2.9306584402	 0.6204982142	 0.0275786015	 0.135682
H	-2.3264879822	 0.2065199582	-1.5899981403	 0.122331
H	-3.5875267995	-1.7591475252	 0.4061255502	 0.112546
H	-2.8903765705	-2.1756645248	-2.2814419044	 0.280697
H	-1.1366865458	-3.9142845981	-1.2140825907	 0.129722
H	 0.39005739	-2.9445641288	-0.8688249012	 0.128198
H	-0.277701056	-2.8295374728	 1.3852953499	 0.246574
70.4552	149.7137	154.4931	199.4632	251.7694	308.6512	351.6905	380.2664	419.881	468.2043	516.5215	572.6063	619.0572	746.3095	798.2718	844.6087	926.0369	950.4377	965.9284	983.1392	999.4534	1048.7938	1087.4091	1108.8721	1133.8687	1139.4662	1196.7911	1239.2033	1271.9974	1280.027	1312.3317	1383.0591	1425.4507	1433.9469	1457.327	1500.2771	1778.6979	3053.0551	3092.989	3105.8172	3116.8264	3199.2464	3484.8596	3800.18	3814.3154
ON=C1CC(O)C11CN1	ON=C1C[C@@H](O)[C@]21CN2	
InChI=1S/C5H8N2O2/c8-4-1-3(7-9)5(4)2-6-5/h4,6,8-9H,1-2H2	InChI=1S/C5H8N2O2/c8-4-1-3(7-9)5(4)2-6-5/h4,6,8-9H,1-2H2/t4-,5-/m1/s1
