12
gdb 48107	2.945	1.13146	1.0196	3.3232	61.03	-0.2757	-0.1249	0.1509	1146.9483	0.074553	-472.608138	-472.599753	-472.598809	-472.642495	28.15	
O	-0.7611599267	 1.2022470784	 1.0526757561	-0.213844
C	 0.2291010407	 0.8362342062	 0.4759611757	 0.086621
C	 1.1684425012	 1.7987459039	-0.2573944232	 0.287537
O	 2.1530988652	 1.3762181182	-0.8089408659	-0.257857
C	 0.772051839	 3.2505055933	-0.2426904293	-0.04795
O	 1.8070483064	 4.1852133822	-0.5190908301	-0.20164
C	 0.7984716007	 4.0473718416	-1.5021143411	-0.101212
C	 1.1713781133	 3.4634563811	-2.7728516829	 0.326154
N	 1.4192984802	 3.0400691261	-3.8185832189	-0.313069
H	 0.5571555055	-0.2207882194	 0.4162161477	 0.129096
H	 0.0511152365	 3.5430158525	 0.5163972543	 0.147964
H	 0.1021988981	 4.8808178657	-1.5809148624	 0.158198
36.8612	107.2441	129.077	171.1119	224.3534	266.1757	294.3527	491.9678	533.2635	572.0439	632.2756	640.5755	772.7402	886.5772	910.6443	964.6471	1029.4068	1082.6183	1132.2255	1165.3213	1262.1581	1361.1707	1378.2904	1432.3779	1813.5674	1818.8967	2367.3709	2951.4975	3133.551	3162.7767
O=CC(=O)C1OC1C#N	O=CC(=O)[C@H]1O[C@H]1C#N	
InChI=1S/C5H3NO3/c6-1-4-5(9-4)3(8)2-7/h2,4-5H	InChI=1S/C5H3NO3/c6-1-4-5(9-4)3(8)2-7/h2,4-5H/t4-,5+/m0/s1
