13
gdb 131408	3.17263	1.50031	1.01861	2.6946	65.55	-0.2426	-0.0482	0.1944	1058.6408	0.090378	-486.053175	-486.045667	-486.044723	-486.085572	28.145	
O	-0.0648771483	 1.3086738131	-0.1929751731	-0.402558
C	 0.0532598249	-0.0184583339	-0.0382078659	 0.545724
N	 1.1858487854	-0.5156340535	 0.3068749372	-0.253113
O	 1.2122495221	-1.9339732562	 0.4459933926	-0.287349
C	 0.1200125427	-2.7185496428	 0.2306134114	 0.372463
N	 0.1669678903	-3.9763689088	 0.3599119797	-0.512873
C	-1.1741236332	-2.0753922635	-0.1707020157	 0.327968
N	-2.260970107	-2.6833759516	-0.4009564795	-0.507494
N	-1.1008602643	-0.695350581	-0.2796626161	-0.388591
H	 0.801147795	 1.6951355952	-0.000419963	 0.324885
H	 1.1001528652	-4.2853413902	 0.6349018703	 0.240527
H	-2.1067952798	-3.6841826115	-0.2672023932	 0.256253
H	-1.9342581729	-0.1909406152	-0.5464953046	 0.284159
75.3562	102.2657	280.3022	339.2914	370.6953	424.4439	474.1784	478.3023	516.8669	571.6637	591.1031	684.2911	688.83	769.2165	817.7811	875.6941	922.7585	931.936	1061.3621	1090.1927	1148.932	1238.3538	1291.0022	1343.4515	1431.1097	1565.4204	1718.5915	1741.151	1752.4224	3485.3602	3491.6725	3619.3603	3777.8299
OC1=NOC(=N)C(=N)N1	OC1=NOC(=C([NH])N1)[NH]	
InChI=1S/C3H4N4O2/c4-1-2(5)9-7-3(8)6-1/h5H,(H3,4,6,7,8)	InChI=1S/C3H4N4O2/c4-1-2(5)9-7-3(8)6-1/h5H,(H3,4,6,7,8)
