16
gdb 105286	2.49181	1.15867	0.94741	4.1365	72.25	-0.2645	-0.0433	0.2212	1257.7384	0.12142	-437.876087	-437.866773	-437.865829	-437.91071	32.493	
C	 0.2114718674	 1.3353740527	 0.1950874454	-0.265505
O	-0.2107783077	 0.032748211	-0.2022187168	-0.274573
C	 0.5585357244	-0.5275516706	-1.2112870274	 0.277033
C	 1.8586480539	-1.1973698035	-0.8515957397	-0.349183
C	 0.6520677268	-2.0493009977	-1.2132456345	-0.176682
C	-0.0342350408	-2.8146438977	-0.1310628193	 0.175164
O	-0.5234103046	-3.9008992089	-0.3046687524	-0.253333
C	 0.457099017	 0.1302185251	-2.5013538078	 0.259671
N	 0.3747053945	 0.675863642	-3.5174795802	-0.338037
H	 1.2456423395	 1.3234038141	 0.5628105269	 0.120491
H	 0.1331993976	 2.047439536	-0.6353771659	 0.144241
H	-0.4586090787	 1.6413534684	 0.9994196505	 0.146234
H	 2.6862985221	-1.1654846765	-1.5492946397	 0.155125
H	 2.1261352358	-1.1514157263	 0.1991529202	 0.145416
H	 0.644718134	-2.537632252	-2.180481505	 0.140004
H	-0.0463758811	-2.3154307362	 0.8588880255	 0.093934
81.5254	102.0735	112.1628	160.6593	187.1651	206.4747	290.8655	330.613	401.7838	439.8154	478.5924	578.0477	641.9204	678.7095	850.0252	899.348	920.9363	961.6147	1031.5542	1062.125	1073.9132	1095.3561	1170.4389	1182.6188	1210.4485	1227.443	1278.8347	1354.0244	1436.6525	1463.9588	1479.2947	1488.2213	1505.3631	1824.3596	2350.285	2930.1049	3011.3413	3076.3199	3140.749	3145.1648	3196.0912	3240.0978
COC1(CC1C=O)C#N	CO[C@]1(C[C@H]1C=O)C#N	
InChI=1S/C6H7NO2/c1-9-6(4-7)2-5(6)3-8/h3,5H,2H2,1H3	InChI=1S/C6H7NO2/c1-9-6(4-7)2-5(6)3-8/h3,5H,2H2,1H3/t5-,6+/m0/s1
