21
gdb 108211	2.89638	1.45825	1.28628	2.2179	76.39	-0.2593	0.0703	0.3296	1081.5121	0.18561	-424.246862	-424.239007	-424.238062	-424.279028	31.76	
O	 0.0014685434	 1.3835321697	 0.0665943434	-0.421339
C	-0.0084289863	-0.0290553338	-0.0170653964	-0.150562
C	-1.4200637822	-0.5806683286	-0.0852722212	 0.378892
C	-2.3140921282	-0.0438058099	-1.2307426841	-0.255335
C	-3.7329836387	-0.1608349503	-0.6008536179	-0.21935
C	-3.3922573779	-0.7570368523	 0.7826859927	 0.076199
C	-2.9952054497	-2.2431439853	 0.6374753766	-0.216556
C	-1.5746689975	-2.116196569	 0.006418917	-0.266861
O	-2.136363221	-0.1348415137	 1.0905536451	-0.308915
H	-0.6117896411	 1.6078617945	 0.7768892278	 0.29129
H	 0.5452859619	-0.3004872582	-0.9222300541	 0.108536
H	 0.5090226293	-0.4849421399	 0.8420987832	 0.090547
H	-2.0481142772	 0.9924446205	-1.4457396864	 0.11695
H	-2.2011308438	-0.6249604834	-2.1494516064	 0.095342
H	-4.2026515126	 0.8197120936	-0.4915876381	 0.103951
H	-4.412642604	-0.796640368	-1.1741951897	 0.09704
H	-4.1111606246	-0.5432822429	 1.5741755667	 0.073871
H	-2.9511057922	-2.7260113214	 1.6164025722	 0.105542
H	-3.6956764505	-2.8063671877	 0.0155273995	 0.098879
H	-1.4926439865	-2.6017735455	-0.9690108147	 0.100179
H	-0.8091972308	-2.5426593283	 0.6608035149	 0.101701
116.1579	129.1754	209.5678	280.6047	350.7369	374.0206	436.0326	455.2894	559.9843	586.33	669.8946	764.6187	813.7761	823.6225	835.0677	864.4644	882.9831	932.1531	944.0296	974.2119	990.8651	1015.3441	1034.6658	1059.4168	1087.6152	1108.6664	1181.3613	1187.7504	1199.7667	1223.6913	1228.5787	1251.4429	1271.8051	1304.4437	1319.8571	1332.2257	1340.4779	1359.3666	1385.6353	1441.3569	1478.789	1492.	1495.7689	1500.6797	1515.7434	2979.528	3055.1588	3060.9994	3067.1756	3071.9826	3074.6475	3097.083	3102.9854	3115.1477	3118.8174	3127.8557	3791.7555
OCC12CCC(CC1)O2	OC[C@@]12CC[C@@H](CC1)O2	
InChI=1S/C7H12O2/c8-5-7-3-1-6(9-7)2-4-7/h6,8H,1-5H2	InChI=1S/C7H12O2/c8-5-7-3-1-6(9-7)2-4-7/h6,8H,1-5H2/t6-,7+
