18
gdb 23607	3.36293	1.0546	0.90942	2.8504	76.26	-0.2376	-0.0033	0.2343	1300.5501	0.148202	-435.162406	-435.153787	-435.152843	-435.196237	31.897	
O	-0.246381599	 1.3620765691	-0.1933793783	-0.389867
N	-0.0026297008	-0.0075722355	 0.0038266305	-0.233261
C	-1.0789304544	-0.6667589103	-0.0116694179	 0.41733
C	-2.5545626542	-0.4006647454	-0.2010361108	-0.263735
N	-2.7640947082	-1.8802076585	-0.2481786306	-0.332395
C	-1.3462566924	-2.1551275452	 0.1444062311	-0.113102
C	-0.6156123804	-3.117663419	-0.7693196827	 0.020135
C	-1.3116423999	-4.3275571019	-1.265694019	-0.241434
N	-0.9945817929	-3.2151921814	-2.1808460104	-0.315568
H	 0.6433174899	 1.7315775576	-0.185317974	 0.310445
H	-3.015133574	 0.1116364091	 0.6537609671	 0.123957
H	-2.8441321912	 0.1233795209	-1.1178318076	 0.136139
H	-3.4486602584	-2.219366039	 0.4167004287	 0.228625
H	-1.2264949921	-2.4803626671	 1.1886773883	 0.092758
H	 0.4560831926	-3.1586700539	-0.5864678601	 0.102661
H	-0.7579501597	-5.2459590825	-1.4383626248	 0.115916
H	-2.3508758563	-4.4630849436	-0.976398501	 0.10614
H	-1.8489493285	-2.6713875334	-2.3056790984	 0.235257
65.8905	113.9787	118.044	204.7986	249.9191	293.6198	347.0196	379.5653	483.2202	580.637	612.4812	690.7624	778.9451	796.9028	858.0346	897.962	949.3882	966.2064	975.3727	999.2453	1011.5624	1029.2423	1081.8774	1113.1659	1124.2202	1145.7831	1178.3111	1190.7555	1232.1298	1284.9722	1293.8277	1321.3428	1345.2844	1373.0747	1406.0014	1412.5984	1491.8995	1503.281	1806.3133	2990.3784	3020.303	3070.8225	3107.0206	3133.6036	3193.5084	3462.3467	3551.4977	3816.1852
ON=C1CNC1C1CN1	ON=C1CN[C@H]1[C@H]1CN1	
InChI=1S/C5H9N3O/c9-8-4-2-7-5(4)3-1-6-3/h3,5-7,9H,1-2H2	InChI=1S/C5H9N3O/c9-8-4-2-7-5(4)3-1-6-3/h3,5-7,9H,1-2H2/t3-,5+/m1/s1
