14
gdb 80215	2.30911	1.61767	1.19613	2.3968	71.38	-0.2467	-0.0006	0.2461	1037.3102	0.098952	-436.608941	-436.600959	-436.600015	-436.641349	30.459	
O	 0.0024651328	 1.3967299345	-0.0030276626	-0.411394
C	-0.0716894449	 0.0238331577	 0.010965685	 0.085806
C	-0.4977062218	-0.7530395642	 1.1891575606	-0.03391
O	-1.4913667873	 0.0221456582	 1.9018870374	-0.295565
C	-2.39291564	-0.1126578342	 0.8285189294	 0.381514
N	-3.5950013512	 0.2093873851	 0.7428348208	-0.538254
C	-1.4077108395	-0.800833979	-0.0622469049	 0.007166
C	-1.6531507912	-1.7960899063	-1.039416911	 0.164369
C	-1.8412361332	-2.6370468021	-1.8784750325	-0.38228
H	-0.4509609818	 1.723626439	 0.7854344506	 0.305496
H	 0.6907789371	-0.4293516321	-0.614912041	 0.143109
H	 0.0055028406	-1.5402985151	 1.7352697327	 0.140426
H	-3.9343285361	 0.649453217	 1.5990216774	 0.238952
H	-2.0223605833	-3.3784748885	-2.6168344719	 0.194564
126.1722	131.981	156.7636	247.2058	365.6869	377.7151	413.833	483.7548	501.6131	585.4822	612.9721	642.4602	674.9009	704.2128	754.185	826.2396	861.1351	888.1934	915.1473	960.6585	1006.6013	1031.5413	1100.4259	1168.4682	1224.9904	1289.0158	1301.8196	1388.1851	1462.163	1840.3921	2241.081	3178.438	3208.5806	3491.4454	3501.6744	3769.9917
OC1C2OC(=N)C12C#C	O[C@H]1[C@H]2O[C]([NH])[C@@]12C#C	
InChI=1S/C6H5NO2/c1-2-6-3(8)4(6)9-5(6)7/h1,3-4,7-8H	InChI=1S/C6H5NO2/c1-2-6-3(8)4(6)9-5(6)7/h1,3-4,7-8H/t3-,4+,6-/m0/s1
