12
gdb 16380	3.14633	2.54193	1.76623	4.2002	54.8	-0.2304	-0.0887	0.1417	720.9804	0.084063	-418.459408	-418.453393	-418.452449	-418.489641	22.616	
O	-0.0306321891	 0.0210613955	 0.0138949257	-0.291372
C	-0.0618933731	 1.2155725754	 0.0115755633	 0.352368
C	-1.2268222955	 2.2122800879	 0.0266437483	-0.038445
C	-0.8311463618	 3.2527766632	-1.0463526688	-0.262707
C	 0.2590667096	 3.5333181524	 0.0134789542	-0.038446
O	-0.6900778937	 3.1151200097	 1.0626752884	-0.29195
C	 1.1124254194	 2.2596076217	 0.0011718595	 0.352368
O	 2.2950378466	 2.0887123889	-0.0067209846	-0.291373
H	-2.2373205821	 1.8509070608	 0.2016369156	 0.119324
H	-0.5299490199	 2.9041134264	-2.0378295147	 0.131007
H	-1.5553277234	 4.0666746166	-1.1118611367	 0.139904
H	 0.7379070628	 4.4960500814	 0.1752782097	 0.119324
129.5982	214.0541	285.3509	452.6379	484.6567	556.9984	618.4214	684.9896	782.1135	790.709	859.7535	874.3183	921.1883	971.6488	989.6269	1011.4841	1093.5963	1175.1342	1183.9828	1225.4018	1262.5008	1270.954	1272.5286	1479.1707	1883.8971	1900.4966	3066.6642	3136.961	3160.2973	3160.2999
O=C1C2CC(O2)C1=O	O=C1[C@@H]2C[C@@H](O2)C1=O	
InChI=1S/C5H4O3/c6-4-2-1-3(8-2)5(4)7/h2-3H,1H2	InChI=1S/C5H4O3/c6-4-2-1-3(8-2)5(4)7/h2-3H,1H2/t2-,3+
