17
gdb 39914	4.14868	1.47123	1.33974	2.4526	80.45	-0.2212	-0.0459	0.1754	974.9877	0.136266	-384.562159	-384.555552	-384.554608	-384.592871	27.573	
C	-0.1316524953	 1.4672777037	 0.136466603	-0.258267
O	 1.1436749659	 0.8599786661	-0.0765223482	-0.279378
C	-0.0081164421	 0.0071962503	 0.0269743582	 0.443121
C	-0.3150583751	-0.9424806826	 1.1477940353	-0.213136
C	-0.5165786577	-2.1610181709	 0.5995036164	 0.059722
C	-1.9446715328	-2.5449211723	 0.206745469	-0.264069
C	-1.4745890045	-1.9617300204	-1.1833975198	-0.078195
C	-0.0368481602	-2.2269461111	-0.862255355	-0.116713
C	-0.3741727824	-0.8176114713	-1.1988844393	-0.122683
H	-0.2749642693	 1.930913704	 1.1124710549	 0.11395
H	-0.5325792142	 2.0319190047	-0.7059353084	 0.111015
H	-0.8536719848	-0.5941989836	 2.0242202705	 0.101052
H	-2.1495537197	-3.6123444516	 0.070521949	 0.113173
H	-2.7570564424	-2.0667287494	 0.7608403914	 0.105729
H	-1.9798947211	-2.1859434773	-2.1198554847	 0.095737
H	 0.6860059249	-2.895476393	-1.3091301514	 0.099054
H	-0.1832589792	-0.4111112354	-2.1891637708	 0.089888
125.7161	264.3981	314.2846	362.2848	446.6416	491.7088	571.6432	646.3656	708.7466	759.0319	790.5086	801.2781	806.7473	859.4738	892.2961	904.981	926.1292	969.5746	982.9334	989.0249	1038.4211	1048.8172	1053.4584	1087.605	1122.3856	1128.8969	1159.4045	1205.1913	1213.7123	1218.4227	1275.7558	1280.1384	1329.141	1416.7539	1498.3779	1525.2198	1576.2446	3037.1503	3068.9866	3101.3096	3137.3416	3149.1545	3154.3042	3167.1477	3206.8621
C1OC11C=C2CC3C2C13	C1O[C@]21[CH][C]1C[C@@H]3[C@H]1[C@H]23	
InChI=1S/C8H8O/c1-4-2-8(3-9-8)7-5(1)6(4)7/h2,5-7H,1,3H2	InChI=1S/C8H8O/c1-4-2-8(3-9-8)7-5(1)6(4)7/h2,5-7H,1,3H2/t5-,6+,7-,8+/m1/s1
