19
gdb 109959	2.66068	1.27687	0.97178	2.9262	71.38	-0.2494	0.0484	0.2978	1222.771	0.157894	-460.117188	-460.108146	-460.107202	-460.151188	34.011	
O	 0.2734034442	 1.2332316984	-0.4643722239	-0.428265
C	 0.2152240313	-0.1515461283	-0.1886977513	-0.064257
C	-1.2172437735	-0.625224555	 0.0747661437	-0.142517
C	-2.138965469	-0.6180054997	-1.1843860779	 0.10986
O	-1.5994407364	 0.1301394888	-2.2609256839	-0.435728
C	-2.045672879	-2.1722491651	-1.268123237	-0.349887
C	-1.396979275	-2.1505500801	 0.1196421692	 0.432481
C	-0.6587908527	-3.1836853086	 0.8468189702	-0.263703
O	-1.989128577	-2.8068672632	 1.2299447621	-0.271443
H	-0.2404186392	 1.3578746278	-1.2720918434	 0.291874
H	 0.663596041	-0.7441119187	-1.0014059421	 0.085866
H	 0.8223845452	-0.3207912254	 0.7073305234	 0.10535
H	-1.625279746	-0.0947768077	 0.9385927339	 0.092575
H	-3.1534695576	-0.2783417935	-0.9452223208	 0.084661
H	-2.2210631425	 0.1189788145	-2.9946553647	 0.293368
H	-2.9821765189	-2.7288511442	-1.3465077883	 0.114553
H	-1.3583402027	-2.4903821351	-2.0576839562	 0.112931
H	-0.5606229286	-4.1800494628	 0.4167181494	 0.114149
H	 0.1244861263	-2.904613532	 1.5505662378	 0.11813
50.4573	137.5831	159.5832	223.2927	241.3332	292.3664	313.7227	360.7734	399.039	471.0446	494.7022	521.5694	630.9691	754.3279	813.1128	831.5237	895.7511	908.3929	959.5708	981.7814	1030.8664	1079.3052	1087.5999	1113.5056	1128.3799	1134.243	1156.9165	1187.0093	1198.8584	1222.314	1242.8209	1249.0992	1317.4958	1331.2246	1392.3458	1416.3073	1433.9531	1447.1696	1466.0155	1502.5898	1534.4191	2982.2951	3030.4725	3058.019	3062.8651	3078.1929	3087.7215	3121.5912	3163.4333	3779.5589	3830.1549
OCC1C(O)CC11CO1	OC[C@H]1[C@@H](O)C[C@]21CO2	
InChI=1S/C6H10O3/c7-2-4-5(8)1-6(4)3-9-6/h4-5,7-8H,1-3H2	InChI=1S/C6H10O3/c7-2-4-5(8)1-6(4)3-9-6/h4-5,7-8H,1-3H2/t4-,5-,6+/m0/s1
