18
gdb 55047	4.10879	0.84169	0.77935	4.0335	80.18	-0.2459	-0.0242	0.2217	1494.8772	0.144718	-401.905398	-401.895658	-401.894714	-401.940857	34.928	
C	 0.3361724173	 1.2217454452	-0.8230204247	-0.487675
C	 0.0193590032	 0.2591141741	 0.3064682427	 0.416079
O	 0.8343190188	-0.0327082151	 1.1520792481	-0.304479
C	-1.3847298421	-0.2844778111	 0.3101797091	-0.158669
N	-1.6022100073	-1.604687558	 0.9350168497	-0.300133
C	-2.1868733395	-0.4408950649	 1.5754029586	-0.007433
C	-1.6492052081	-0.0652796199	 2.9485206082	-0.364658
C	-2.3845952768	-0.7416658444	 4.0113375242	 0.297205
C	-3.0132449416	-1.3002739183	 4.8699613897	-0.444029
H	-0.3801339225	 2.0516528381	-0.8325318761	 0.139835
H	 1.349145164	 1.6080982198	-0.7085108248	 0.14572
H	 0.2429409409	 0.7124568109	-1.7896503571	 0.142586
H	-1.9641111137	-0.044650226	-0.5793628027	 0.087476
H	-2.2969868675	-2.1259309079	 0.4071834342	 0.240807
H	-3.2578008383	-0.2800001555	 1.4582376135	 0.100971
H	-0.5869899755	-0.32095047	 2.9861712778	 0.177
H	-1.7256880848	 1.0216657349	 3.0837726652	 0.125647
H	-3.5505525065	-1.7969370019	 5.6391301844	 0.193749
46.4189	70.0277	107.3845	142.4386	178.7471	239.0293	327.6644	342.9613	384.9682	407.8568	512.5428	606.7814	612.5011	628.7237	642.9342	769.8566	840.9655	862.7678	926.1215	956.9977	971.3218	977.2973	1014.567	1051.9557	1108.9857	1181.2004	1186.762	1198.4727	1250.2002	1272.5706	1322.6845	1378.7465	1418.6489	1459.6185	1466.8592	1469.3061	1475.0324	1807.5657	2239.6613	3026.762	3031.6784	3090.4055	3099.4308	3116.3353	3126.845	3155.8336	3507.6466	3509.8542
CC(=O)C1NC1CC#C	CC(=O)[C@H]1N[C@H]1CC#C	
InChI=1S/C7H9NO/c1-3-4-6-7(8-6)5(2)9/h1,6-8H,4H2,2H3	InChI=1S/C7H9NO/c1-3-4-6-7(8-6)5(2)9/h1,6-8H,4H2,2H3/t6-,7+/m0/s1
