15
gdb 20980	4.75371	1.66902	1.26057	1.787	63.93	-0.2192	-0.0092	0.21	929.918	0.119567	-395.975536	-395.967858	-395.966914	-396.007824	26.716	
C	-0.0928655195	 1.4286367996	-0.015176827	-0.34368
N	 0.1886319395	 0.0032085346	-0.0294920561	-0.154564
C	 0.0627679061	-0.7127057843	 1.2276824327	-0.334624
C	 0.0355425571	-0.7024715799	-1.1823824533	 0.492241
N	-0.0894567277	-2.0181750394	-1.2162674543	-0.250549
O	-0.1349538835	-2.290418922	-2.6053763195	-0.162802
C	-0.0584993707	-1.1155739676	-3.2142086486	 0.117882
N	 0.043910729	-0.0942010873	-2.4286514455	-0.344022
H	 0.5510218445	 1.915674973	 0.7239824284	 0.125274
H	 0.1119901099	 1.8486048434	-0.9988297117	 0.167346
H	-1.1402947909	 1.6417519818	 0.2478675471	 0.117433
H	-0.9870012888	-0.8783670444	 1.5124444664	 0.12262
H	 0.5504460901	-1.6853733473	 1.1450676798	 0.161888
H	 0.5499976165	-0.13232218	 2.0161402121	 0.12358
H	-0.0865590118	-1.1158705903	-4.2946824405	 0.161977
97.4434	123.4613	155.1848	189.8869	242.0492	337.96	369.8263	520.6964	604.4735	620.1112	774.2769	906.2077	908.5394	941.4888	978.1011	1036.6906	1090.5947	1131.9694	1172.3546	1179.97	1239.1405	1285.6842	1324.2223	1407.0523	1447.8864	1464.1277	1484.2138	1493.0134	1503.5523	1509.6411	1590.1758	1646.0534	2988.9579	2998.0701	3074.6651	3083.9573	3140.4825	3163.8811	3257.828
CN(C)C1=NOC=N1	CN(C)c1nocn1	
InChI=1S/C4H7N3O/c1-7(2)4-5-3-8-6-4/h3H,1-2H3	InChI=1S/C4H7N3O/c1-7(2)4-5-3-8-6-4/h3H,1-2H3
