18
gdb 114149	4.2276	0.98511	0.88089	4.8268	78.46	-0.2592	-0.0032	0.256	1340.6853	0.146894	-401.924194	-401.915571	-401.914627	-401.957698	32.087	
C	-0.0857487751	 1.5006985966	-0.1730161929	-0.381654
C	 0.0032833995	 0.0162201068	 0.1980368025	-0.207216
C	-1.3379492443	-0.6814401954	 0.0936825029	 0.142305
O	-1.9109241842	-0.6579661445	-1.2595656007	-0.332109
C	-2.1518110008	-2.0615134147	-1.1983326356	 0.356753
C	-0.8601813017	-2.8253293333	-1.1053897982	-0.335454
C	-1.4427363123	-2.208079749	 0.141932435	-0.203234
C	-3.3900433159	-2.5831141822	-1.6811805189	 0.214542
N	-4.3877019047	-3.0201816497	-2.071582091	-0.346259
H	 0.8935226353	 1.981668671	-0.0995640897	 0.118217
H	-0.4496120871	 1.6190408501	-1.197316561	 0.142426
H	-0.7730352755	 2.0351213024	 0.4916061716	 0.118947
H	 0.730829147	-0.4891126107	-0.4462054419	 0.104099
H	 0.3597000221	-0.0983121951	 1.2301165688	 0.106514
H	-2.0645010842	-0.2230309261	 0.7766722288	 0.097936
H	-0.9505969899	-3.9052510627	-1.1550510659	 0.143635
H	 0.0119579804	-2.4060285139	-1.5966039228	 0.134956
H	-1.7343397087	-2.7948869995	 1.0016217288	 0.125596
89.7254	105.379	131.6819	216.0684	217.2104	276.5536	382.1737	453.0612	472.5884	532.4605	576.3727	620.395	720.1648	785.7088	854.6772	881.9692	897.2653	949.1086	956.8099	1009.9599	1016.4042	1032.5265	1074.7556	1096.3403	1109.1523	1161.3049	1175.2369	1277.6221	1283.1976	1297.0998	1345.991	1364.9216	1409.2403	1418.3427	1471.5605	1479.5355	1498.1777	1509.1269	2350.0129	3026.1561	3029.2299	3040.5098	3074.2523	3109.5082	3123.4459	3132.2178	3216.1923	3227.6893
CCC1OC2(CC12)C#N	CC[C@H]1O[C@]2(C[C@@H]12)C#N	
InChI=1S/C7H9NO/c1-2-6-5-3-7(5,4-8)9-6/h5-6H,2-3H2,1H3	InChI=1S/C7H9NO/c1-2-6-5-3-7(5,4-8)9-6/h5-6H,2-3H2,1H3/t5-,6+,7+/m0/s1
