18
gdb 8413	3.54989	1.61825	1.44159	3.0717	68.2	-0.2387	0.0644	0.3031	942.0588	0.152133	-384.898306	-384.890043	-384.889098	-384.930682	30.957	
C	-0.0407312557	 1.5449854684	-0.0635783789	-0.449499
C	 0.0132640719	 0.0359691952	 0.0000582751	 0.340418
O	-1.15201127	-0.6099601283	-0.4461720241	-0.461868
C	 1.3278627111	-0.6929620622	-0.2022733277	-0.425552
C	 0.6643013518	-0.6608483249	 1.1488601825	 0.264856
C	 1.1540929857	-0.1010898127	 2.4797683667	-0.141809
O	 0.5453547825	-1.2009620035	 3.1886686845	-0.278388
C	 0.0911165954	-1.8161748022	 1.958887417	-0.13056
H	 0.8688215227	 1.9948295833	 0.3451499995	 0.120032
H	-0.1409629336	 1.8872807019	-1.1008562927	 0.111139
H	-0.8987247202	 1.9231870438	 0.5014309909	 0.130353
H	-1.2188844814	-0.4795933954	-1.3986812079	 0.28279
H	 1.2964175974	-1.632434414	-0.7457995795	 0.114714
H	 2.2313227974	-0.1077236625	-0.3487267291	 0.110529
H	 2.2444710208	-0.0794561762	 2.6129948769	 0.097913
H	 0.7368183562	 0.8678980791	 2.784671926	 0.099886
H	-0.9986093553	-1.9249879143	 1.9246428076	 0.117313
H	 0.5607925331	-2.7946734956	 1.7936794732	 0.097733
95.9138	164.6645	170.6859	219.3687	262.3779	293.2341	378.6764	414.7704	443.6406	468.4223	594.1277	700.9316	851.6314	881.5385	891.9895	911.6667	966.9291	995.4875	997.3528	1027.8509	1039.9762	1083.5524	1129.6028	1150.579	1163.792	1192.6874	1195.6304	1277.8866	1301.5834	1310.6297	1369.5622	1411.0164	1431.5545	1482.1341	1486.9468	1511.881	1517.3386	1537.1988	2995.4493	3013.2572	3025.7487	3037.0415	3065.4755	3089.1277	3111.9024	3116.144	3205.7798	3794.0981
CC1(O)CC11COC1	C[C@@]1(O)CC21COC2	
InChI=1S/C6H10O2/c1-5(7)2-6(5)3-8-4-6/h7H,2-4H2,1H3	InChI=1S/C6H10O2/c1-5(7)2-6(5)3-8-4-6/h7H,2-4H2,1H3/t5-/m1/s1
