16
gdb 28686	3.50262	1.03142	0.84011	2.9911	77.39	-0.192	0.027	0.219	1325.5929	0.125933	-396.977682	-396.969031	-396.968087	-397.011902	31.506	
N	 0.2833683606	 1.3266787586	-0.1833701496	-0.609649
C	 0.0005889098	-0.0438335908	-0.0454860271	 0.293676
C	-1.1360763191	-0.7318774666	 0.3190678951	-0.20846
C	-0.8004105975	-2.1174043833	 0.3478173078	-0.225197
C	 0.5214470949	-2.2365188587	-0.0025228364	 0.311052
C	 1.3976766022	-3.4487049415	-0.1057147498	-0.456384
C	 2.1707336036	-3.4954235607	-1.3529459638	 0.25523
N	 2.7958627476	-3.49275464	-2.324915202	-0.31229
N	 1.0040264736	-0.9620312556	-0.2268730586	-0.319705
H	 0.4567508258	 1.5943120016	-1.1480819188	 0.24797
H	-0.4873292106	 1.8857524611	 0.1602478989	 0.250035
H	-2.1008188588	-0.2930323709	 0.5220051649	 0.087018
H	-1.4617211875	-2.9368718972	 0.5864926853	 0.095157
H	 2.1136706779	-3.5164964381	 0.7265268901	 0.157665
H	 0.771162822	-4.3440320528	-0.0456072798	 0.167815
H	 1.9495209956	-0.7259922452	-0.4781430062	 0.266067
35.6475	93.2131	155.1054	208.6179	264.921	314.4949	380.5952	415.9584	466.1843	482.9547	622.7644	650.4806	677.5694	747.5638	759.4922	813.9871	825.4477	926.9511	928.6078	1001.4661	1022.1807	1061.7157	1141.8724	1203.5857	1220.5173	1287.8545	1298.9782	1333.2428	1442.3338	1458.9797	1478.502	1556.2316	1634.2567	1660.1511	2359.1271	3000.0729	3086.8331	3239.215	3254.7512	3495.1644	3603.8801	3666.5737
NC1=CC=C(CC#N)N1	Nc1ccc(CC#N)[nH]1	
InChI=1S/C6H7N3/c7-4-3-5-1-2-6(8)9-5/h1-2,9H,3,8H2	InChI=1S/C6H7N3/c7-4-3-5-1-2-6(8)9-5/h1-2,9H,3,8H2
