15
gdb 43451	3.01512	1.46336	1.0614	1.6084	68.63	-0.2653	-0.0199	0.2455	1074.9294	0.113502	-453.977351	-453.969834	-453.96889	-454.00995	28.437	
N	-0.1354745081	 1.2995057157	 0.0658133764	-0.525698
C	-0.0310781761	 0.0379135265	 0.0421484682	 0.333252
N	 1.1012131778	-0.7709808653	-0.043021714	-0.379374
C	 0.8637082298	-2.1415515754	-0.0215776694	 0.416261
O	 1.7168318056	-2.9895133323	-0.0740473609	-0.344788
C	-0.6485028091	-2.3254575028	 0.0877358811	-0.45584
C	-1.2063964004	-0.9114648686	 0.1104436583	 0.381754
C	-2.4804201084	-0.4918876335	 0.7062500424	-0.232133
O	-2.3281685989	-0.597951491	-0.7087929827	-0.25467
H	 0.7676895971	 1.7693959683	-0.0052673738	 0.218823
H	 2.0438339232	-0.4132570218	-0.1023856107	 0.263858
H	-1.0171938579	-2.8863666516	-0.7751673993	 0.163715
H	-0.8778594303	-2.9058991879	 0.9853329804	 0.15026
H	-3.1193032668	-1.243572485	 1.1684414199	 0.119096
H	-2.5658535675	 0.5235218046	 1.0864809341	 0.145484
49.4424	135.4543	270.1913	282.3127	358.032	359.383	496.7148	533.2417	578.8911	632.5401	640.2895	706.4976	734.8021	839.1773	871.5586	875.2331	917.4799	950.1567	1021.5632	1086.33	1131.375	1160.0383	1175.6551	1182.3899	1250.2225	1269.2497	1351.8619	1371.6807	1431.0664	1453.4964	1516.4144	1769.8458	1859.7721	3073.2136	3087.1606	3117.6742	3189.2237	3473.0329	3619.1706
N=C1NC(=O)CC11CO1	[NH][C]1NC(=O)C[C@]21CO2	
InChI=1S/C5H6N2O2/c6-4-5(2-9-5)1-3(8)7-4/h1-2H2,(H2,6,7,8)	InChI=1S/C5H6N2O2/c6-4-5(2-9-5)1-3(8)7-4/h1-2H2,(H2,6,7,8)/t5-/m1/s1
