14
gdb 20777	3.27483	1.89509	1.29156	2.6353	59.04	-0.291	-0.0405	0.2505	904.5478	0.106698	-415.821851	-415.814233	-415.813289	-415.854227	26.782	
C	 0.110617465	 1.5012252183	 0.0251312806	-0.500875
C	 0.0643058674	 0.0106498684	 0.0658382474	 0.270388
N	 0.0687968467	-0.7339803687	-1.006116093	-0.136655
O	 0.0204290279	-2.0326052363	-0.567850789	-0.156719
N	-0.005554069	-2.0914098034	 0.7951682719	-0.141419
C	 0.0143155234	-0.8540335506	 1.2083478806	 0.237557
C	 0.0354049084	-0.4864832336	 2.6613449028	-0.178798
O	 1.1759931474	 0.29620595	 2.9889120027	-0.407471
H	 0.8776640129	 1.8712953763	 0.7100381315	 0.158665
H	 0.3196901897	 1.8483457104	-0.9877809242	 0.1539
H	-0.8461448505	 1.9277800853	 0.3463944965	 0.145343
H	-0.8290895239	 0.139898176	 2.9042947557	 0.132166
H	-0.0334539249	-1.4006309541	 3.2639717698	 0.129482
H	 1.9560298893	-0.2539928379	 2.8586976667	 0.294435
77.4784	123.2217	159.4173	233.705	276.0155	366.3396	395.2448	451.9161	643.8498	656.8054	704.1616	774.905	908.5706	936.1858	966.9183	1014.4521	1063.4138	1072.385	1076.6628	1201.1019	1244.9582	1371.9892	1411.1692	1416.9851	1435.0428	1477.2713	1490.3068	1497.1925	1524.2965	1629.0387	3032.1584	3046.4736	3084.245	3109.7442	3151.3742	3810.1315
CC1=NON=C1CO	Cc1nonc1CO	
InChI=1S/C4H6N2O2/c1-3-4(2-7)6-8-5-3/h7H,2H2,1H3	InChI=1S/C4H6N2O2/c1-3-4(2-7)6-8-5-3/h7H,2H2,1H3
