20
gdb 93372	2.77295	1.49137	1.13631	3.082	78.73	-0.2114	-0.0098	0.2016	1119.1992	0.172987	-403.155902	-403.147704	-403.14676	-403.188529	32.351	
C	-0.3496638841	 1.5606024383	 0.0106829695	-0.363549
C	 0.040460411	 0.0770656587	-0.017480944	-0.00376
N	 0.7178814467	-0.2488801397	-1.2844486783	-0.292014
C	 2.1710855452	-0.0524534135	-1.2637388515	-0.289144
C	 2.8449171165	-0.9477309349	-0.2215122899	 0.393633
O	 3.7878897505	-1.6619437996	-0.4891592291	-0.336041
C	 2.2051229173	-0.9390829983	 1.1229097323	-0.126364
C	 1.9745019686	 0.42094791	 1.7799270904	-0.296166
C	 0.8065033764	-0.3495277256	 1.252456303	-0.039048
H	 0.5285329841	 2.2113734432	-0.0461417034	 0.11421
H	-0.9943483022	 1.7929028054	-0.8403087405	 0.123321
H	-0.8804005718	 1.8041845097	 0.9365765954	 0.113285
H	-0.8889362112	-0.5026186276	-0.0273590882	 0.083753
H	 0.5358349406	-1.2203662192	-1.514346455	 0.223746
H	 2.5943366713	-0.2936335968	-2.2418399717	 0.126922
H	 2.3874340386	 1.0047336321	-1.0661722612	 0.119781
H	 2.5016222976	-1.7612503125	 1.7642885817	 0.102944
H	 2.1194130441	 0.4735223356	 2.8529648523	 0.124959
H	 2.3152845964	 1.3010700854	 1.2466692682	 0.123485
H	 0.1843212044	-0.8138549407	 2.01228212	 0.096047
76.8124	162.4825	215.8463	224.7493	301.8325	379.8515	403.6489	428.5249	470.2706	546.5802	603.6638	711.5043	716.7582	781.273	805.2288	839.4326	877.1199	905.1249	945.6309	974.0093	1016.8931	1045.8046	1062.6602	1078.9336	1097.423	1129.1023	1133.4416	1174.7232	1217.4994	1235.9615	1262.1943	1319.9503	1339.3055	1363.2955	1382.2415	1400.3445	1404.778	1464.805	1483.2764	1492.8906	1498.2031	1500.765	1797.1976	3033.5471	3041.1705	3041.6908	3105.8146	3107.3862	3125.3945	3140.8357	3143.7681	3178.8494	3225.206	3516.7643
CC1NCC(=O)C2CC12	C[C@H]1NCC(=O)[C@H]2C[C@@H]12	
InChI=1S/C7H11NO/c1-4-5-2-6(5)7(9)3-8-4/h4-6,8H,2-3H2,1H3	InChI=1S/C7H11NO/c1-4-5-2-6(5)7(9)3-8-4/h4-6,8H,2-3H2,1H3/t4-,5+,6+/m1/s1
