19
gdb 16064	3.63214	1.63426	1.40194	1.9765	70.97	-0.2304	0.0805	0.311	964.4633	0.165767	-365.015807	-365.007667	-365.006723	-365.048182	30.857	
C	-0.0312021021	 1.4914272864	-0.2098644556	-0.428881
C	 0.0533714313	 0.0271897741	 0.1561327786	-0.024154
N	 1.2468899531	-0.8299635075	-0.0532111395	-0.203847
C	 2.4591351344	-0.006077636	 0.3011020237	-0.151763
C	 1.9727953914	 0.2225997488	 1.7513748185	-0.306504
C	 0.7047866153	-0.5399493905	 1.3566039844	 0.289
C	 0.1327721848	-1.6666856534	 2.1695570061	-0.157195
O	 1.113101355	-2.6522123539	 2.4551439769	-0.418022
H	 0.7706957248	 2.0945369514	 0.2199438143	 0.125107
H	-0.0054258225	 1.6172535106	-1.2978180426	 0.129202
H	-0.980241326	 1.9032656767	 0.1487017159	 0.124975
H	-0.8294559349	-0.5293967076	-0.1560640367	 0.092236
H	 3.3518725528	-0.6300904752	 0.2285619997	 0.109657
H	 2.6003016049	 0.8758220341	-0.3308143428	 0.104277
H	 2.5609163242	-0.3342057295	 2.4819227386	 0.125078
H	 1.8446025189	 1.2503508639	 2.1034361436	 0.09906
H	-0.2228128951	-1.2982232763	 3.1391372699	 0.11111
H	-0.7304404796	-2.1016686346	 1.642206717	 0.090297
H	 1.4714032294	-2.9204957717	 1.60013825	 0.290368
77.5159	157.9324	170.0519	254.8159	276.9582	305.2939	339.5756	456.1744	507.5073	578.0877	634.5013	712.5495	773.7814	803.7025	847.3827	927.1448	949.324	974.6304	1001.0725	1047.1715	1066.9231	1114.0027	1117.4256	1144.1627	1187.2179	1199.2744	1223.471	1247.1104	1284.0439	1316.771	1329.8107	1388.3341	1411.0987	1423.8249	1460.641	1479.5985	1489.5497	1499.8961	1504.0637	1517.0408	2984.1886	3039.6216	3053.3937	3059.2304	3061.1555	3097.8569	3106.5482	3112.5367	3131.1675	3134.3895	3783.8497
CC1N2CCC12CO	C[C@H]1N2CC[C@@]12CO	
InChI=1S/C6H11NO/c1-5-6(4-8)2-3-7(5)6/h5,8H,2-4H2,1H3	InChI=1S/C6H11NO/c1-5-6(4-8)2-3-7(5)6/h5,8H,2-4H2,1H3/t5-,6-,7?/m1/s1
