23
gdb 58264	2.89505	0.94657	0.87938	2.529	81.23	-0.244	0.0598	0.3038	1465.1105	0.204288	-425.405058	-425.394647	-425.393702	-425.441038	37.908	
C	-0.1563974791	 1.5466159128	 0.1537739066	-0.41359
C	-0.0257449817	 0.0253591116	-0.0206581721	 0.0294
C	-1.4074107281	-0.6425195658	-0.0042084774	-0.396044
C	 0.742036845	-0.3696879071	-1.3035338643	 0.119926
O	 0.1146302829	 0.132825676	-2.4832238235	-0.442119
C	 2.2227607727	 0.0022987231	-1.287117884	-0.066744
C	 3.1471301092	-0.8417979197	-0.3793132395	-0.08581
O	 3.8282998356	-1.405959711	-1.5153903562	-0.273013
C	 3.062757365	-0.5974673231	-2.4354071754	-0.086675
H	 0.8137655701	 2.052794211	 0.1837316932	 0.114674
H	-0.7488549312	 1.9894464973	-0.6556847061	 0.113175
H	-0.6739133723	 1.7795938418	 1.0892363489	 0.12099
H	 0.5551145108	-0.3639096563	 0.8274652636	 0.075642
H	-1.9857874274	-0.3399563653	-0.8824697952	 0.129585
H	-1.3209358905	-1.7340121318	-0.0215028304	 0.111383
H	-1.9711380072	-0.3638802158	 0.8916859419	 0.106662
H	 0.6738162307	-1.4606360988	-1.4097777005	 0.086916
H	 0.2046679659	 1.0918172212	-2.4789113027	 0.280388
H	 2.3451233366	 1.0827576224	-1.1663458546	 0.070403
H	 3.8259777956	-0.2708878076	 0.2670918507	 0.097579
H	 2.6500381004	-1.6113501348	 0.2268317369	 0.098797
H	 2.5024914616	-1.2024954137	-3.1575379539	 0.113443
H	 3.6987150253	 0.1109968838	-2.9809536359	 0.095032
51.3245	70.3748	94.5944	154.1794	218.4608	243.5405	251.5392	279.6089	302.882	324.4325	391.9875	443.5695	466.6508	615.3998	790.6046	826.855	874.1663	892.4702	925.2826	944.5845	967.4436	984.9532	1011.86	1042.5345	1048.557	1072.6503	1108.4965	1120.1925	1154.9018	1165.0039	1182.404	1203.1338	1251.6369	1274.635	1303.1707	1310.823	1344.4715	1362.7572	1379.8357	1398.6466	1405.7858	1418.4947	1429.213	1489.0589	1496.4055	1509.7683	1515.3557	1516.0403	1541.1132	3000.1693	3007.2465	3016.1196	3023.4512	3028.8	3035.4945	3039.2843	3058.5929	3071.5666	3093.7518	3100.4965	3104.5385	3113.264	3807.572
CC(C)C(O)C1COC1	CC(C)[C@@H](O)C1COC1	
InChI=1S/C7H14O2/c1-5(2)7(8)6-3-9-4-6/h5-8H,3-4H2,1-2H3	InChI=1S/C7H14O2/c1-5(2)7(8)6-3-9-4-6/h5-8H,3-4H2,1-2H3/t7-/m1/s1
