21
gdb 73301	3.03917	1.49852	1.31085	1.1634	81.3	-0.2428	0.0779	0.3206	1068.4299	0.183308	-387.075829	-387.067759	-387.066815	-387.107557	33.398	
C	-0.0141452848	 1.4985179888	 0.0107460902	-0.486177
C	 0.0450863107	-0.0158200452	 0.0164982839	 0.320934
C	-1.2861236227	-0.7716978386	 0.3776178779	-0.282471
C	-0.4841781752	-1.6554460095	 1.3270402509	-0.129512
C	 0.7331080508	-0.741665777	 1.21354587	-0.160817
C	 0.8069549535	-2.1338418604	 0.6730643887	 0.424865
O	 1.5626147541	-3.0549718762	 1.4005550162	-0.484441
C	 0.9031125215	-2.1382097019	-0.854341883	-0.30841
C	 0.6767316759	-0.6532498277	-1.2381271501	-0.239391
H	 0.9848960007	 1.9332941801	-0.1105280769	 0.113324
H	-0.6376859559	 1.8628120433	-0.8142962204	 0.113317
H	-0.4373004108	 1.885264209	 0.9437700306	 0.113985
H	-1.9766206222	-0.1202967298	 0.9216099791	 0.097037
H	-1.8289245883	-1.2499684448	-0.4471519409	 0.082989
H	-0.8510999954	-2.1651496942	 2.2113899849	 0.077688
H	 1.3828764918	-0.3321304554	 1.9758843911	 0.085363
H	 1.1184260349	-3.9084126296	 1.3527209952	 0.280808
H	 1.8925383845	-2.4955379099	-1.1536539277	 0.10445
H	 0.1633168198	-2.8044161583	-1.313668353	 0.090646
H	 0.0430501309	-0.5295772939	-2.1229812262	 0.091159
H	 1.6361649164	-0.1670177087	-1.4501863104	 0.094653
191.1598	210.3676	234.4642	257.289	300.0707	353.2746	381.7444	398.0842	448.9577	546.0089	586.2286	625.1547	710.6825	793.1386	834.3812	862.2639	878.6772	900.1404	915.3542	961.2925	985.8097	993.2366	999.1401	1007.9943	1046.6711	1113.077	1117.7682	1145.5455	1169.9412	1217.3869	1226.6874	1240.897	1248.4427	1266.603	1290.7138	1300.8306	1327.9882	1361.9172	1411.496	1432.506	1483.3625	1491.8158	1494.5853	1496.7217	1511.2058	3018.8952	3021.7519	3029.0619	3035.6467	3071.5077	3081.8093	3084.4174	3090.9449	3093.7031	3166.635	3201.1709	3796.0878
CC12CC3C1C3(O)CC2	C[C@]12C[C@@H]3[C@H]1[C@]3(O)CC2	
InChI=1S/C8H12O/c1-7-2-3-8(9)5(4-7)6(7)8/h5-6,9H,2-4H2,1H3	InChI=1S/C8H12O/c1-7-2-3-8(9)5(4-7)6(7)8/h5-6,9H,2-4H2,1H3/t5-,6-,7+,8+/m1/s1
