20
gdb 105493	1.94201	1.54589	1.20496	3.6877	74.89	-0.2238	-0.023	0.2007	1161.2332	0.16867	-440.262283	-440.252253	-440.251309	-440.297834	35.54	
C	 0.727992627	-0.1429707476	 1.3766147843	-0.337587
N	 0.0723865334	-0.0457031975	 0.0743867168	-0.330922
C	-1.2301647795	-0.6901633209	-0.0076055458	 0.149187
C	-1.7750637914	-0.7875915004	-1.4585959587	-0.115009
O	-1.7686973925	-2.2200228354	-1.4174202584	-0.267665
C	-1.1854305767	-2.2309291195	-0.0944131375	-0.098207
C	-2.2694360835	-0.1360932588	 0.9810556561	 0.339513
C	-2.4639866955	 1.3740118751	 0.971084291	-0.496823
O	-2.8957925422	-0.8487741482	 1.730359727	-0.298807
H	 1.6995400807	 0.3555889516	 1.3244566557	 0.127462
H	 0.1632467915	 0.2916278014	 2.2186230642	 0.106462
H	 0.9083366789	-1.1967553777	 1.6126357269	 0.137173
H	 0.0044478867	 0.9240953818	-0.2166172231	 0.221492
H	-2.7801595898	-0.3822424509	-1.6342134184	 0.1011
H	-1.0769017852	-0.3816950083	-2.2021918672	 0.102695
H	-0.1708996266	-2.6439875931	-0.0986696226	 0.100936
H	-1.8159229073	-2.7532570961	 0.6290858604	 0.127655
H	-2.4643544342	 1.7797180363	-0.0460143087	 0.1326
H	-3.4019452219	 1.6199225083	 1.4702816731	 0.150405
H	-1.6450073618	 1.8575142999	 1.5158176449	 0.14834
52.255	79.501	122.7887	130.6792	176.902	206.3559	220.7196	279.8115	357.904	399.4723	471.0674	530.0117	579.5378	643.6551	739.3997	803.069	870.0685	935.7433	968.3894	980.6677	1009.1477	1047.4599	1063.25	1082.8501	1118.2217	1160.3239	1167.3815	1174.472	1196.2294	1262.9135	1268.9429	1313.4146	1375.9573	1379.6778	1458.7974	1463.3047	1470.433	1479.6169	1495.5711	1497.8921	1517.9091	1521.4678	1805.2016	2963.4812	3001.041	3037.771	3039.4587	3050.0656	3068.9985	3099.7135	3109.5595	3114.2788	3150.9571	3523.6549
CNC1(COC1)C(C)=O	CNC1(COC1)C(=O)C	
InChI=1S/C6H11NO2/c1-5(8)6(7-2)3-9-4-6/h7H,3-4H2,1-2H3	InChI=1S/C6H11NO2/c1-5(8)6(7-2)3-9-4-6/h7H,3-4H2,1-2H3
