21
gdb 36944	4.41484	0.91208	0.86308	0.7471	79.21	-0.2499	0.0889	0.3388	1435.7441	0.183511	-424.217319	-424.208671	-424.207726	-424.251754	32.372	
C	 0.18562804	 1.5706431419	 0.3499621628	-0.289928
C	 1.0047986327	 0.4057036919	-0.1731170405	-0.286426
C	-0.4713869989	 0.2549122026	 0.0958186588	 0.137862
O	-0.8791379457	-0.4573892794	 1.2296485295	-0.266236
C	-0.9717068889	-1.8520800528	 1.0172253341	 0.229046
C	-1.3484308633	-2.5032831237	 2.3644178716	-0.263187
C	-2.7626099348	-3.0767021548	 2.1231748443	-0.210149
C	-3.203710662	-2.338231745	 0.8542391152	-0.088584
O	-1.9991048762	-2.1769183875	 0.1047343272	-0.250906
H	 0.3284280268	 1.8452830091	 1.3888691881	 0.122556
H	-0.0367671997	 2.3981243922	-0.3141832324	 0.113157
H	 1.3482473413	 0.4245410106	-1.2014812265	 0.113047
H	 1.6838547452	-0.0680034068	 0.5270569274	 0.116081
H	-1.1408155773	 0.155855564	-0.7543155686	 0.101218
H	-0.0382320941	-2.2163567782	 0.5710223967	 0.072988
H	-0.6297072511	-3.2742072283	 2.6489078815	 0.107601
H	-1.3419813406	-1.7313148998	 3.1363816794	 0.122062
H	-2.7170001539	-4.1526122014	 1.9312214961	 0.108319
H	-3.4391785146	-2.9125510316	 2.9651602047	 0.103868
H	-3.909424223	-2.8946797195	 0.233067282	 0.106165
H	-3.641610552	-1.3592385136	 1.0954060886	 0.101446
53.9724	69.1373	100.9507	170.4266	218.4267	320.6148	396.4688	462.3217	585.0085	618.9785	742.4993	756.0514	808.2362	821.6193	857.1489	874.7444	921.3975	931.7614	958.0017	975.2842	986.261	1030.6685	1051.4565	1057.22	1072.5829	1090.4226	1136.8197	1142.5209	1194.0463	1195.327	1211.7452	1230.5281	1237.3833	1257.8715	1309.1496	1321.4486	1358.2301	1366.5189	1397.3666	1416.4163	1453.6147	1482.2613	1496.7422	1499.0638	1519.1513	3005.964	3033.466	3059.7772	3079.8896	3100.2339	3109.1846	3131.1378	3135.2821	3139.3355	3146.629	3219.2973	3233.8738
C1CC1OC1CCCO1	C1CC1O[C@H]1CCCO1	
InChI=1S/C7H12O2/c1-2-7(8-5-1)9-6-3-4-6/h6-7H,1-5H2	InChI=1S/C7H12O2/c1-2-7(8-5-1)9-6-3-4-6/h6-7H,1-5H2/t7-/m0/s1
