17
gdb 53995	2.08571	1.38794	1.2194	3.005	69.63	-0.254	-0.0655	0.1886	1130.0421	0.130328	-458.996101	-458.985748	-458.984803	-459.032294	35.298	
C	 0.0751388745	 1.5389863507	 0.0447271189	-0.495064
C	 0.1199838239	 0.0348554295	-0.0924571666	 0.380015
O	 1.13436905	-0.5546236311	-0.3850335677	-0.299812
C	-1.1910427532	-0.7491093794	 0.1164823776	-0.062443
C	-2.1012551545	-0.2189815074	 1.2522319782	-0.446764
C	-2.0335288922	-0.6821219523	-1.1732110572	 0.152613
O	-1.7959410792	 0.0236092642	-2.1144961559	-0.239661
C	-0.9078120429	-2.2407388257	 0.3572917938	 0.128162
O	-1.7797502417	-3.0143273938	 0.6634974615	-0.265388
H	 1.0575507446	 1.949131414	-0.1907086425	 0.149118
H	-0.6730267735	 1.9457811309	-0.6431353204	 0.163215
H	-0.212421203	 1.8335080388	 1.0593223486	 0.142378
H	-2.4692195087	 0.786912637	 1.0373327761	 0.136601
H	-2.9529568432	-0.8918070637	 1.3722819701	 0.158093
H	-1.5552074799	-0.1958632409	 2.1996656328	 0.141137
H	-2.9191807691	-1.3511557663	-1.1367185214	 0.120875
H	 0.140712708	-2.5481047647	 0.202940244	 0.136928
42.6965	61.7949	99.8044	155.3415	169.8149	217.1407	226.8193	286.5231	303.1016	328.346	380.2866	455.6464	513.3212	589.3074	666.4592	727.4307	876.6143	906.6602	965.4781	968.6563	1030.2751	1045.6232	1124.4361	1153.1726	1170.4584	1252.8536	1378.1223	1381.1455	1397.2748	1412.5054	1460.8711	1476.5497	1496.3334	1501.5754	1795.857	1805.1578	1837.4783	2918.8725	2997.2976	3044.9563	3050.1854	3112.7592	3124.4283	3140.3562	3157.7537
CC(=O)C(C)(C=O)C=O	CC(=O)C(C)(C=O)C=O	
InChI=1S/C6H8O3/c1-5(9)6(2,3-7)4-8/h3-4H,1-2H3	InChI=1S/C6H8O3/c1-5(9)6(2,3-7)4-8/h3-4H,1-2H3
