25
gdb 100038	2.83513	1.00143	0.93891	1.6235	89.17	-0.2532	0.0752	0.3284	1454.4486	0.226289	-389.481325	-389.470271	-389.469327	-389.517131	41.424	
C	-0.1458823593	 1.2616873314	 1.7155285783	-0.410835
C	-0.2577061646	-0.2052854568	 1.2865564225	-0.171982
C	-1.6849444043	-0.7486664222	 0.9798587394	 0.224643
C	-2.5628258941	-0.665936578	 2.2378493031	-0.436537
C	-2.3367255894	 0.039847894	-0.1730870313	-0.415954
C	-1.4598736318	-2.1772178587	 0.4781566836	 0.06981
O	-1.1454990082	-3.2173543487	 1.4105438982	-0.277044
C	-2.2919577633	-3.3936914372	 0.5645204373	 0.065654
C	-3.6410795005	-3.5846563455	 1.2119312263	-0.428891
H	 0.9048668216	 1.5234853858	 1.8756976711	 0.114747
H	-0.5380371947	 1.9445828486	 0.9554601576	 0.116096
H	-0.6741911754	 1.4640506934	 2.6519079189	 0.119274
H	 0.3597379164	-0.3517056671	 0.3905191802	 0.089496
H	 0.1819694724	-0.8435597616	 2.0625620266	 0.111534
H	-2.5384244331	 0.3441021682	 2.65556459	 0.110707
H	-3.6085855795	-0.8894983625	 2.0135062228	 0.112306
H	-2.2128208645	-1.3627974637	 3.0040713704	 0.129396
H	-1.7048681714	 0.0364124444	-1.0685995891	 0.1097
H	-3.3041164096	-0.3958187173	-0.4443607739	 0.112923
H	-2.5118589611	 1.0826419563	 0.1067578998	 0.117221
H	-0.7803736295	-2.1725156684	-0.3817030963	 0.076662
H	-2.1111779663	-4.114199503	-0.2391278513	 0.082608
H	-3.7634560375	-2.9820763097	 2.1094654901	 0.133856
H	-4.442366552	-3.3364404477	 0.5068352646	 0.119963
H	-3.7642043403	-4.6366309041	 1.4914779911	 0.124645
55.8542	80.6564	135.1273	189.0724	210.7662	227.6482	243.1144	271.9278	300.9337	335.943	345.1428	388.9265	398.0361	413.7144	524.623	597.041	721.8689	774.5753	784.4074	806.235	912.1637	934.7538	950.3711	992.699	1005.4203	1027.4002	1036.1342	1070.9363	1081.4087	1100.5779	1175.0297	1189.418	1205.4055	1232.4658	1263.3198	1321.2059	1346.2661	1375.0411	1395.3432	1402.321	1409.867	1419.183	1434.6115	1470.5476	1481.9356	1487.4045	1487.8366	1498.0117	1503.6537	1507.954	1511.3303	1516.5885	1528.0993	3015.6353	3027.6659	3034.6119	3039.4304	3041.4837	3048.769	3056.5534	3059.8248	3092.3456	3093.6346	3101.94	3106.183	3112.6577	3116.989	3125.637	3175.8537
CCC(C)(C)C1OC1C	CCC(C)(C)[C@H]1O[C@H]1C	
InChI=1S/C8H16O/c1-5-8(3,4)7-6(2)9-7/h6-7H,5H2,1-4H3	InChI=1S/C8H16O/c1-5-8(3,4)7-6(2)9-7/h6-7H,5H2,1-4H3/t6-,7-/m0/s1
