16
gdb 16993	3.78835	2.32988	2.11716	1.562	68.07	-0.2241	0.0092	0.2334	720.9277	0.132286	-346.549566	-346.543587	-346.542643	-346.57919	24.706	
C	-0.0058299762	 1.4507129023	-0.0248020382	-0.358363
C	 1.2763541023	 0.6945457156	 0.0392479203	 0.385877
C	 2.0258235972	 0.4001975797	 1.325313958	-0.35195
C	 1.0166498717	-0.476081374	 2.0690129896	-0.057754
C	-0.0791242775	-0.756074262	 1.3463996477	-0.167126
C	-0.0312283075	-0.0747367596	 0.0244790603	 0.114514
C	 0.493429021	-0.6323327182	-1.3075829126	-0.133957
O	 1.6863125967	 0.2059974427	-1.2480869052	-0.323842
H	-0.3324306233	 1.9470988663	 0.8819970181	 0.123238
H	-0.2630247715	 1.9539743949	-0.952042377	 0.119664
H	 2.9559884909	-0.1409705346	 1.1133882272	 0.127154
H	 2.3006602208	 1.295871249	 1.894700875	 0.114409
H	 1.184753494	-0.8030844581	 3.0910991338	 0.096026
H	-0.9018548545	-1.3732660602	 1.6914063552	 0.096843
H	 0.7604991448	-1.6934454235	-1.2589189439	 0.110507
H	-0.096984329	-0.4380779005	-2.2106330282	 0.104759
222.771	247.5029	360.0767	414.5179	473.6645	561.0912	638.6894	704.0408	767.0916	777.2761	840.3481	869.0728	911.3834	925.1768	944.5815	948.6794	970.0385	987.0373	1006.4759	1064.7872	1108.5767	1132.4023	1152.1516	1172.7046	1226.2206	1267.0086	1296.7064	1331.0088	1368.7958	1378.1932	1464.5566	1475.1103	1512.4487	1635.9945	3023.7957	3031.3276	3064.1	3077.4333	3125.3287	3169.5889	3195.1425	3224.1216
C1C23CC=CC12CO3	C1[C@@]23CC=C[C@@]12CO3	
InChI=1S/C7H8O/c1-2-6-4-7(6,3-1)8-5-6/h1-2H,3-5H2	InChI=1S/C7H8O/c1-2-6-4-7(6,3-1)8-5-6/h1-2H,3-5H2/t6-,7-/m0/s1
