25
gdb 101474	3.52483	0.8789	0.84684	1.418	89.11	-0.2374	0.0814	0.3188	1554.9308	0.22915	-389.510765	-389.500419	-389.499475	-389.547192	37.947	
C	-0.1450358543	 1.5439446222	 0.0645749853	-0.394221
C	 0.0152851043	 0.0238593499	-0.033773814	-0.165357
C	 0.8546983871	-0.4652266587	-1.2321222006	 0.01924
C	 2.3095433741	 0.0179102256	-1.1501796146	-0.400394
C	 0.7505262211	-1.9957802977	-1.3479124099	 0.158811
C	 1.359744491	-2.6518659594	-2.5947605679	-0.253605
C	 1.6615012061	-4.0694987194	-2.0893283068	-0.232191
C	 2.0814397373	-3.8021573442	-0.6369510534	-0.05618
O	 1.4066647273	-2.6123183451	-0.2308232557	-0.280987
H	 0.8079366219	 2.0494271379	 0.2479379368	 0.117483
H	-0.5686406419	 1.959066766	-0.8576296321	 0.108458
H	-0.8174542579	 1.810904734	 0.886151997	 0.110392
H	 0.4610570441	-0.3671898338	 0.8885186161	 0.11201
H	-0.9814965515	-0.4309030021	-0.104063843	 0.086788
H	 0.3985594303	-0.0583375478	-2.1477181731	 0.062989
H	 2.3600467077	 1.10785633	-1.0848940407	 0.111488
H	 2.7987752112	-0.4024902959	-0.2668913015	 0.129176
H	 2.8911951925	-0.2747573249	-2.0294947298	 0.106844
H	-0.3206493917	-2.2596929304	-1.3065975117	 0.056584
H	 0.6771357846	-2.6305542811	-3.4479936012	 0.099811
H	 2.2853671826	-2.1474751902	-2.8893567552	 0.104587
H	 0.7557670071	-4.6847016969	-2.1183338276	 0.105831
H	 2.4352152001	-4.5846180071	-2.6639440235	 0.101397
H	 1.8098778014	-4.6190902107	 0.0418853676	 0.098838
H	 3.1677893757	-3.6478553002	-0.5591185306	 0.092206
33.0652	64.3761	81.3922	156.8889	194.7973	204.2022	250.7018	286.0282	319.3704	347.7156	443.2443	570.9228	622.6894	662.2876	775.7065	808.7696	855.2465	878.3713	894.0527	930.8016	937.0877	968.2845	973.0262	1016.7169	1036.1706	1053.4187	1074.3624	1104.836	1137.7274	1170.3802	1190.0805	1201.839	1210.6301	1256.3524	1284.6443	1305.8615	1316.7629	1332.9529	1348.5357	1370.0457	1377.7832	1392.7186	1403.1566	1414.1314	1420.4639	1484.5685	1487.2853	1495.1436	1499.7367	1503.6345	1509.0437	1515.4381	1532.6281	2939.6601	2989.8611	2992.1054	3019.5361	3030.0397	3040.7052	3045.5023	3055.8637	3059.3306	3061.4681	3095.0026	3100.6199	3103.8619	3109.1201	3113.4528	3123.0661
CCC(C)C1CCCO1	CC[C@@H](C)[C@H]1CCCO1	
InChI=1S/C8H16O/c1-3-7(2)8-5-4-6-9-8/h7-8H,3-6H2,1-2H3	InChI=1S/C8H16O/c1-3-7(2)8-5-4-6-9-8/h7-8H,3-6H2,1-2H3/t7-,8-/m1/s1
