17
gdb 43085	2.63566	2.03592	1.72906	3.7517	70.15	-0.2252	-0.0238	0.2014	858.6639	0.13943	-421.839832	-421.833684	-421.832739	-421.870181	25.767	
O	-0.055006633	 0.0221460002	-0.0680243339	-0.330255
C	-0.0481984967	 1.2216934072	-0.0111701557	 0.440603
C	-1.2683786823	 2.1715410325	 0.0073212337	-0.006904
O	-1.3942732167	 2.6114428875	 1.3866071645	-0.300603
C	-0.3981704295	 3.6362997005	 1.1210055232	 0.101796
C	 1.0048400762	 3.0384711238	 1.3206624269	-0.235557
C	 1.1588325251	 2.1717870343	 0.036194426	-0.144617
C	 0.7231648433	 3.1852609936	-1.0522953221	-0.249311
C	-0.632687171	 3.5216527981	-0.4190170396	-0.076105
H	-2.1921126301	 1.7718997288	-0.4125714112	 0.093289
H	-0.605914428	 4.5575751226	 1.6677388274	 0.085206
H	 1.7753269991	 3.8183867173	 1.3365432085	 0.104079
H	 1.0621811426	 2.4696208317	 2.2515825326	 0.12449
H	 2.1164737218	 1.6689673995	-0.0875024418	 0.086071
H	 1.393429969	 4.0475209999	-1.1195257198	 0.10858
H	 0.6301983714	 2.7365118154	-2.0465223775	 0.113842
H	-1.2754680811	 4.2576896273	-0.8958910412	 0.085396
143.5519	286.2875	387.8262	436.9923	457.6144	527.4307	613.1937	702.9791	761.9152	812.1275	838.5019	850.9445	876.7969	894.3816	911.133	944.2631	959.229	978.8009	997.0451	1019.2034	1051.6083	1110.0835	1123.6348	1149.2484	1188.5784	1199.7501	1232.1803	1248.4229	1269.7211	1283.9108	1303.6512	1320.4267	1333.938	1348.6935	1474.7239	1499.6274	1866.3107	3039.6121	3050.6823	3098.6614	3099.9891	3111.5042	3113.7431	3136.128	3147.6053
O=C1C2OC3CC1CC23	O=C1[C@H]2O[C@H]3C[C@@H]1C[C@@H]23	
InChI=1S/C7H8O2/c8-6-3-1-4-5(2-3)9-7(4)6/h3-5,7H,1-2H2	InChI=1S/C7H8O2/c8-6-3-1-4-5(2-3)9-7(4)6/h3-5,7H,1-2H2/t3-,4+,5-,7-/m0/s1
