18
gdb 62570	2.49184	1.53623	1.20807	2.3374	74.96	-0.2503	0.0211	0.2714	1089.0612	0.145081	-439.064137	-439.055087	-439.054143	-439.097196	34.56	
C	 0.0083044677	 1.5659648585	-0.0041916679	-0.466994
C	 0.0563897433	 0.0579776174	 0.0308847486	 0.326757
O	-1.0986833387	-0.5748134727	-0.4451580658	-0.461628
C	 1.3348962147	-0.774647286	-0.276024161	-0.333113
C	 2.4902479641	-0.1359980639	 0.4017546308	 0.434026
N	 3.6585978374	 0.1846268358	 0.0791623093	-0.564231
O	 1.8370773375	-0.0230813813	 1.6346181996	-0.304207
C	 0.6917892961	-0.7541759376	 1.1086004731	 0.406895
C	 0.0712844668	-1.791375754	 1.9789012098	-0.496258
H	 0.8893422161	 2.0076379819	 0.4625245075	 0.150293
H	-0.044735656	 1.9236255582	-1.0391497127	 0.116614
H	-0.8828140434	 1.9173945635	 0.5251211134	 0.131459
H	-1.2176472694	-0.3252890037	-1.3685750964	 0.291029
H	 1.3476542565	-1.526248365	-1.0517529935	 0.118414
H	 4.1604894975	 0.5883701123	 0.871891088	 0.228177
H	-0.3215854104	-1.3337206358	 2.8933598584	 0.136562
H	-0.7563055011	-2.2658839913	 1.4482357779	 0.152292
H	 0.8031400414	-2.5529369961	 2.2631296508	 0.133914
129.2026	177.1724	192.3274	196.5992	228.8959	277.5796	303.887	314.9479	393.1807	458.452	498.7313	511.218	608.0165	657.635	716.1983	777.6743	852.7609	879.9062	898.2199	933.5979	969.9626	973.1777	1029.0047	1079.6033	1116.8256	1141.6042	1161.7023	1181.9875	1240.7498	1288.1451	1319.6834	1407.958	1413.9201	1473.223	1481.2023	1483.1587	1490.7758	1520.5223	1826.2795	3035.5231	3042.1141	3098.8642	3105.7614	3143.3059	3148.3602	3229.5697	3477.6217	3796.3068
CC1(O)C2C(=N)OC12C	C[C@@]1(O)[C@H]2[C]([NH])O[C@@]12C	
InChI=1S/C6H9NO2/c1-5(8)3-4(7)9-6(3,5)2/h3,7-8H,1-2H3	InChI=1S/C6H9NO2/c1-5(8)3-4(7)9-6(3,5)2/h3,7-8H,1-2H3/t3-,5-,6-/m1/s1
