23
gdb 114318	2.04222	1.36839	1.19997	1.6505	85.68	-0.2266	0.0717	0.2983	1251.7124	0.204155	-388.260762	-388.250797	-388.249853	-388.295342	37.492	
C	-0.158468265	 1.1800733969	 0.6168228813	-0.386601
C	-0.3859379445	 0.531212943	-0.7535120681	-0.21285
C	-1.584745754	-0.4038841536	-0.7512531941	 0.113812
O	-1.9318407737	-0.960084986	-2.0539538758	-0.313582
C	-2.1138472245	-2.2523517308	-1.4636518024	 0.033909
C	-0.8113017576	-2.8077330308	-0.9774582892	-0.071172
C	 0.5041050298	-2.6210513477	-1.7047845962	-0.425725
C	-1.5778351603	-1.8027001784	-0.116908039	 0.220331
C	-2.0298122851	-2.1004030512	 1.2847255483	-0.497278
H	 0.6773161939	 1.8847377503	 0.5819192879	 0.117791
H	-1.0447914765	 1.7314701219	 0.9500187907	 0.116259
H	 0.0727920619	 0.4306588235	 1.3811766148	 0.121251
H	-0.5732293298	 1.3076452019	-1.5061939861	 0.106369
H	 0.5141479669	-0.0015706269	-1.068473642	 0.104716
H	-2.4616563379	 0.145968616	-0.373045286	 0.072599
H	-2.9924480456	-2.8179362613	-1.7563017666	 0.095272
H	-0.9412442426	-3.80305826	-0.5524435831	 0.082891
H	 0.4548505313	-1.7651619925	-2.3801500545	 0.139835
H	 1.3413809491	-2.4759427102	-1.0135604335	 0.111697
H	 0.7250064465	-3.507923262	-2.3087516379	 0.111666
H	-1.2437183561	-1.8850973395	 2.0185551168	 0.121896
H	-2.9085874399	-1.5031494571	 1.5547604361	 0.117668
H	-2.2979985063	-3.1559647154	 1.3975200887	 0.119246
62.5986	133.6916	167.1242	180.1566	209.053	225.9465	251.3114	295.7998	310.0748	331.7742	418.9895	541.2985	579.6791	663.8185	700.542	759.872	807.5029	882.8384	905.8006	935.8102	948.265	998.0618	1006.2016	1028.0757	1072.6884	1079.6048	1090.571	1111.0637	1131.0997	1163.7476	1168.6583	1245.779	1254.0084	1284.1118	1302.3654	1332.0872	1352.0598	1404.3434	1407.9063	1416.2809	1419.1782	1473.1304	1485.9454	1486.5295	1496.5371	1501.573	1502.9144	1506.3361	1509.8885	2969.6711	3019.3246	3032.8037	3033.0103	3035.1329	3076.4536	3086.984	3089.8288	3093.1986	3108.2026	3110.485	3115.1868	3136.0495	3164.4848
CCC1OC2C(C)C12C	CC[C@H]1O[C@H]2[C@@H](C)[C@@]12C	
InChI=1S/C8H14O/c1-4-6-8(3)5(2)7(8)9-6/h5-7H,4H2,1-3H3	InChI=1S/C8H14O/c1-4-6-8(3)5(2)7(8)9-6/h5-7H,4H2,1-3H3/t5-,6-,7+,8+/m1/s1
