18
gdb 10761	3.64001	1.4547	1.33148	2.3298	63.35	-0.2571	0.0731	0.3302	988.1969	0.152061	-422.051917	-422.043324	-422.04238	-422.084603	32.292	
C	-0.160349635	 1.6606227778	-0.0059878124	-0.408343
C	-0.040811051	 0.1392936145	-0.0516363643	 0.294717
O	 0.6170661052	-0.2773041219	 1.1479706983	-0.480328
C	-1.4309772555	-0.5347122088	-0.0761162756	-0.076832
O	-2.1310342485	-0.2865371614	 1.1224635089	-0.426117
C	 0.7704334772	-0.3179302229	-1.2559796244	 0.040709
C	 2.2346123653	-0.3695637411	-1.2295661044	-0.187067
O	 1.4523055214	-1.5676540724	-1.0772420873	-0.2575
H	 0.8179400247	 2.1145832473	 0.1692903437	 0.121081
H	-0.5635191703	 2.0446312864	-0.9485354955	 0.114137
H	-0.8388665567	 1.9511722433	 0.7989792889	 0.140081
H	 0.9650396542	-1.1618534276	 0.9571992314	 0.291431
H	-2.0385323159	-0.1396736973	-0.8981861788	 0.102096
H	-1.2944784781	-1.6156915414	-0.2490504849	 0.090293
H	-1.4838004821	-0.4349859527	 1.8252582631	 0.285884
H	 0.2728459998	-0.21461541	-2.2209632165	 0.100489
H	 2.7938335414	-0.3035719586	-2.1603153782	 0.124236
H	 2.7598275339	-0.0497501831	-0.333216372	 0.131031
102.9578	140.3989	182.8088	215.1759	257.2854	293.7845	348.8874	381.993	413.288	493.2805	519.9737	592.1767	647.9001	759.8545	837.9032	883.1965	923.6044	945.6573	962.5573	1014.9943	1083.7284	1095.5533	1137.0467	1159.3334	1169.5834	1187.5807	1198.6144	1253.8331	1286.7478	1352.2906	1382.4851	1415.4472	1439.2219	1443.7257	1485.3458	1498.2122	1508.076	1517.0542	2963.4469	3046.9671	3063.9115	3101.3292	3110.1974	3119.6488	3138.2431	3196.6309	3717.5998	3757.7208
CC(O)(CO)C1CO1	C[C@@](O)(CO)[C@H]1CO1	
InChI=1S/C5H10O3/c1-5(7,3-6)4-2-8-4/h4,6-7H,2-3H2,1H3	InChI=1S/C5H10O3/c1-5(7,3-6)4-2-8-4/h4,6-7H,2-3H2,1H3/t4-,5-/m1/s1
