20
gdb 111613	2.79245	1.535	1.31967	1.211	77.96	-0.2186	0.0758	0.2944	1060.935	0.172388	-403.086826	-403.078886	-403.077942	-403.11927	31.028	
C	 0.3103521318	 1.2494798751	-0.208320151	-0.243704
O	-0.3943011131	 0.180526325	 0.3989160697	-0.236546
C	 0.3941823621	-0.5430941346	 1.2868270423	 0.117015
C	-0.0284366142	-1.9009872555	 1.7491172686	-0.122908
C	-0.988912977	-2.7249783653	 0.8816809682	-0.259879
C	-0.171854961	-3.1563256543	-0.3411977625	-0.016539
C	 0.2222478577	-2.1403570012	-1.3488459569	-0.253488
N	 1.1696757998	-2.5431327228	-0.2866576394	-0.110909
C	 1.2555157393	-1.7527993738	 0.9337490041	-0.062797
H	 1.1500410639	 0.8875359563	-0.8173713089	 0.121985
H	-0.3993167909	 1.7798708601	-0.8472193537	 0.128801
H	 0.7017340734	 1.946264856	 0.5473374353	 0.113392
H	 0.8403384914	 0.0883641569	 2.060466958	 0.082322
H	-0.0204258565	-2.0997133778	 2.8156501862	 0.088482
H	-1.3197931696	-3.603244857	 1.4424643036	 0.106756
H	-1.8838873463	-2.1600539291	 0.6027126279	 0.121667
H	-0.2082140177	-4.2054396569	-0.6261194569	 0.085987
H	 0.5226298965	-2.4619135851	-2.343021744	 0.105504
H	-0.2534338528	-1.1718648593	-1.2954069948	 0.142677
H	 2.2339284533	-1.8068340567	 1.4004607543	 0.092182
103.0852	129.1361	172.2076	243.8345	287.9004	311.5241	416.3444	540.3999	650.3232	663.5079	688.0436	737.3444	763.4941	823.5713	843.9505	869.9204	903.2153	947.8588	1015.2973	1034.2637	1053.6581	1093.8531	1103.1044	1115.6073	1123.3884	1127.2155	1128.9231	1166.8112	1184.7928	1210.3467	1214.4023	1264.5417	1294.2122	1299.8197	1321.2512	1361.4919	1388.7648	1426.553	1482.1516	1484.8145	1486.5173	1500.5256	1511.5443	2990.8515	3046.0084	3055.8983	3056.2806	3095.0773	3118.587	3121.8187	3129.6342	3151.2435	3161.735	3252.7467
COC1C2CC3CN3C12	CO[C@H]1[C@H]2C[C@H]3CN3[C@@H]12	
InChI=1S/C7H11NO/c1-9-7-5-2-4-3-8(4)6(5)7/h4-7H,2-3H2,1H3	InChI=1S/C7H11NO/c1-9-7-5-2-4-3-8(4)6(5)7/h4-7H,2-3H2,1H3/t4-,5-,6+,7-,8?/m0/s1
