22
gdb 96040	2.76223	1.16079	0.92394	3.648	83.09	-0.2449	0.0324	0.2773	1333.926	0.195626	-404.397899	-404.388479	-404.387535	-404.433241	34.946	
C	-0.0311987741	 1.4741538835	 0.2976855271	-0.414488
C	 0.1440588732	-0.0297251389	 0.1053728648	 0.040988
C	 0.8136649313	-0.4631410384	-1.2093851484	-0.210311
C	 1.1427888797	-1.9413628697	-0.9590110859	-0.204216
C	 1.6508733259	-1.9623159402	 0.498094229	-0.237039
C	 0.9718742202	-0.7594554322	 1.2166745506	 0.038687
N	 1.9629791178	 0.0782768848	 1.883137362	-0.275196
C	 1.7531194144	 0.6680324606	 3.0887831741	 0.153499
O	 0.7324704146	 0.5893962264	 3.741470736	-0.330733
H	 0.9279821975	 1.9987689458	 0.2391678046	 0.102222
H	-0.6846490478	 1.8883675973	-0.4768928463	 0.109086
H	-0.4733701491	 1.6975692941	 1.2729854656	 0.139741
H	-0.8514662925	-0.4942576822	 0.1255544256	 0.07811
H	 0.178390864	-0.3005473129	-2.0850881288	 0.096329
H	 1.7375307264	 0.111315671	-1.3693957508	 0.084935
H	 0.2292817592	-2.5404772507	-1.0518400935	 0.102515
H	 1.8711465105	-2.3546174456	-1.6621676905	 0.095307
H	 1.4496339985	-2.9091618596	 1.0051400404	 0.110592
H	 2.7388467234	-1.8285926624	 0.5175031474	 0.093078
H	 0.3019263934	-1.0823331211	 2.0147872837	 0.114099
H	 2.8498327289	 0.2375182578	 1.4311441437	 0.241693
H	 2.6423880644	 1.2378098925	 3.4269062094	 0.071102
30.8827	51.5437	182.0849	202.1715	216.3103	240.2816	288.8519	333.3535	391.5181	520.8867	533.0591	561.0355	622.797	719.7879	822.9002	832.8394	894.6637	913.6226	928.7926	960.8721	992.0439	1014.7952	1028.7509	1039.2544	1066.9826	1137.727	1158.8798	1180.831	1210.2925	1225.5811	1243.3745	1297.0763	1317.1389	1328.518	1340.2267	1350.3483	1376.6753	1388.7338	1413.7406	1430.1218	1487.6725	1491.4494	1497.4946	1502.1584	1508.1388	1523.5804	1799.0082	2925.7375	3001.1138	3013.8846	3036.0164	3036.5254	3039.4214	3083.8712	3087.5652	3096.0377	3100.8303	3110.6204	3113.9571	3625.4848
CC1CCCC1NC=O	C[C@H]1CCC[C@H]1NC=O	
InChI=1S/C7H13NO/c1-6-3-2-4-7(6)8-5-9/h5-7H,2-4H2,1H3,(H,8,9)	InChI=1S/C7H13NO/c1-6-3-2-4-7(6)8-5-9/h5-7H,2-4H2,1H3,(H,8,9)/t6-,7+/m0/s1
