16
gdb 44256	2.94342	1.50434	1.20871	1.3371	68.51	-0.2259	-0.043	0.1829	1018.5906	0.124681	-437.903066	-437.895504	-437.89456	-437.935797	28.48	
O	 0.1203379323	-0.0381208444	-0.335513017	-0.288404
C	 0.0147009723	 1.1299989738	-0.1019128078	 0.384416
C	-1.1581183036	 2.0430861517	 0.2969874164	-0.361167
C	-0.0976555329	 3.1283046215	 0.6914621331	-0.154065
C	 1.0486840692	 2.2808769379	 0.0769920741	-0.110963
N	 2.0705981447	 2.1203551525	 1.1107099741	-0.309009
C	 1.4272756897	 2.2220964014	 2.4216120192	-0.286342
C	 0.2191180908	 3.1374655436	 2.1866049481	 0.416579
O	-0.3813343446	 3.7413397933	 3.0345297761	-0.305329
H	-1.7631645571	 2.338025624	-0.566059339	 0.145698
H	-1.8269241238	 1.6737020677	 1.0792224128	 0.145131
H	-0.2821590359	 4.134175028	 0.3179944261	 0.111287
H	 1.483050321	 2.6260828402	-0.866456143	 0.106352
H	 2.590640949	 1.2585993634	 0.9908220842	 0.240085
H	 1.0465799846	 1.2674490561	 2.8265920001	 0.125788
H	 2.0942502444	 2.6540374695	 3.1731679526	 0.139943
52.9093	110.5738	202.7768	223.5704	419.5708	435.4771	515.342	537.7812	566.0302	634.9601	697.132	736.8455	800.4076	817.7525	892.8282	903.546	949.7742	1003.1577	1008.2557	1066.6738	1089.7794	1134.1186	1161.638	1173.6171	1197.3147	1208.3404	1239.0487	1274.699	1279.9931	1342.781	1431.2685	1440.4429	1489.6471	1854.759	1891.3719	2951.4317	3057.3198	3061.5514	3081.8582	3112.831	3133.9409	3545.3473
O=C1CC2C1NCC2=O	O=C1C[C@@H]2[C@H]1NCC2=O	
InChI=1S/C6H7NO2/c8-4-1-3-5(9)2-7-6(3)4/h3,6-7H,1-2H2	InChI=1S/C6H7NO2/c8-4-1-3-5(9)2-7-6(3)4/h3,6-7H,1-2H2/t3-,6+/m0/s1
