20
gdb 52686	3.41948	0.79222	0.68684	2.4852	85.39	-0.2392	0.0376	0.2767	1700.5211	0.168277	-403.093614	-403.082686	-403.081742	-403.131461	37.747	
C	 0.2361933234	 1.4423021042	 0.0451030074	-0.499446
C	 0.07716287	-0.0041409355	 0.00721087	 0.075796
C	-0.043175508	-1.2028830555	-0.0007897727	 0.046643
C	-0.2293870026	-2.654510368	-0.0691547952	-0.05324
O	-1.6121989467	-3.0148006682	-0.0293862144	-0.420805
C	 0.4512558864	-3.2317071847	-1.3033801657	-0.029165
N	 1.8628799725	-3.6154207101	-1.1617265	-0.336107
C	 0.8526529749	-4.6588401487	-1.4169610222	-0.000766
C	 0.6323872779	-5.699344566	-0.3452207562	-0.389726
H	 1.1785485768	 1.7206761651	 0.5295611703	 0.153676
H	 0.2414205993	 1.8730468335	-0.9622008701	 0.146591
H	-0.5765306199	 1.9165734111	 0.6061604035	 0.15084
H	 0.2180000346	-3.1168931231	 0.8158468569	 0.11952
H	-2.080064808	-2.4187160198	-0.6239253987	 0.281068
H	 0.1513309192	-2.7370446653	-2.227133727	 0.076645
H	 2.3837137839	-3.3901834344	-2.0041753606	 0.231047
H	 0.812368811	-5.0565769528	-2.4311475814	 0.07966
H	 0.752351341	-5.2759738087	 0.6540064012	 0.128022
H	-0.3734068266	-6.1245837349	-0.4212831607	 0.125918
H	 1.3578282308	-6.5132790084	-0.4491158044	 0.113831
25.8357	40.9249	77.7481	127.4276	153.0597	200.6617	221.3213	241.4628	313.5227	330.7335	390.1161	424.5735	486.5782	512.5547	593.6005	789.5367	796.987	852.6622	920.7344	960.3172	1011.6535	1028.3742	1046.6567	1051.7276	1055.3566	1094.7244	1152.2743	1165.9947	1196.3045	1245.7901	1260.7613	1275.5696	1304.571	1399.5793	1405.105	1414.7767	1428.3688	1468.4314	1477.1128	1478.6191	1491.438	1503.6832	2365.5865	3027.962	3039.9004	3068.5323	3088.6211	3090.366	3096.1222	3102.0044	3109.3194	3134.1458	3512.4982	3812.6985
CC#CC(O)C1NC1C	CC#C[C@@H](O)[C@H]1N[C@H]1C	
InChI=1S/C7H11NO/c1-3-4-6(9)7-5(2)8-7/h5-9H,1-2H3	InChI=1S/C7H11NO/c1-3-4-6(9)7-5(2)8-7/h5-9H,1-2H3/t5-,6+,7-/m0/s1
