21
gdb 103951	3.16897	1.08174	0.96843	2.2983	78.81	-0.2551	0.065	0.3201	1302.0738	0.181316	-424.197387	-424.188159	-424.187214	-424.23111	36.069	
O	 0.2346190038	 0.9226552602	-0.8352526213	-0.428626
C	-0.0863641555	-0.374180841	-0.3758417293	-0.072113
C	-1.4935006649	-0.4265123014	 0.2087046115	 0.390735
O	-1.4714407977	 0.4942366901	 1.2865850664	-0.500022
C	-2.6132240087	-0.2601996136	-0.860739043	-0.375979
C	-2.8011898715	-1.7829046003	-0.8185545587	 0.399116
C	-3.9854264589	-2.5925963889	-1.2460316282	-0.339212
C	-2.6742232259	-2.7105319452	-1.9929215623	-0.312821
C	-1.9937070115	-1.8762771449	 0.4837256999	-0.372768
H	 0.008829303	 1.5151133788	-0.1077671678	 0.287671
H	-0.0108717219	-1.0507275866	-1.232319651	 0.10988
H	 0.6222429811	-0.71912542	 0.3950578929	 0.089245
H	-2.3769606936	 0.6616632158	 1.5650031085	 0.279849
H	-3.4801025559	 0.2788941905	-0.4580631107	 0.084039
H	-2.3166637424	 0.2060455687	-1.8035316792	 0.118283
H	-4.2911816998	-3.4239474491	-0.6183866982	 0.111467
H	-4.8072735034	-2.0797883899	-1.7361395101	 0.111708
H	-2.6115800985	-2.2751043049	-2.9852534668	 0.114613
H	-2.0966273567	-3.6211864754	-1.8677237907	 0.111951
H	-1.2310939262	-2.6578887489	 0.5619751751	 0.100292
H	-2.6278731748	-1.9143764841	 1.376503183	 0.09269
65.377	130.1553	183.5577	247.5414	280.7181	298.1424	311.9283	355.217	373.3382	436.9379	460.774	493.894	586.9567	723.4524	777.8628	815.1792	838.6897	879.9695	896.3799	928.6852	934.8264	971.4638	996.4657	1051.9027	1070.8125	1076.7776	1078.3766	1098.1788	1107.338	1153.8307	1178.9578	1187.6845	1216.6543	1227.0927	1253.306	1303.4778	1369.0639	1383.9314	1397.3213	1442.1964	1463.6897	1469.2303	1492.0909	1499.4528	1505.9207	2973.3596	3024.0685	3034.8548	3084.7294	3088.9456	3100.8098	3119.6421	3123.6204	3197.4591	3212.4642	3788.1714	3825.8131
OCC1(O)CC2(CC2)C1	OCC1(O)CC2(CC2)C1	
InChI=1S/C7H12O2/c8-5-7(9)3-6(4-7)1-2-6/h8-9H,1-5H2	InChI=1S/C7H12O2/c8-5-7(9)3-6(4-7)1-2-6/h8-9H,1-5H2
