17
gdb 104358	1.86238	1.71366	1.63667	1.6995	63.5	-0.2629	0.	0.2629	993.782	0.134807	-496.136392	-496.12747	-496.126525	-496.17002	32.191	
C	-0.1917940041	 1.6716806893	 0.0602884727	-0.436425
C	 0.0314342498	 0.1654759183	-0.0155563753	 0.18941
C	-1.2875622366	-0.5976165225	-0.2385375979	-0.098102
O	-1.1158039296	-2.0029678454	-0.1508625392	-0.425472
O	 0.9721771106	-0.1354889057	-1.0483820032	-0.287393
C	 1.837361862	-1.1348030331	-0.5733212501	 0.022979
O	 1.8060562681	-1.0802594044	 0.8557720944	-0.221764
C	 0.713976064	-0.3837892979	 1.2411018709	 0.405794
O	 0.3615904844	-0.2661626909	 2.379733751	-0.356775
H	 0.7668621933	 2.1941759714	 0.0913395045	 0.135722
H	-0.7463920813	 2.0194564249	-0.8161099239	 0.129996
H	-0.7577474296	 1.9178996262	 0.9620714863	 0.144976
H	-2.0427372012	-0.2331119523	 0.4698182353	 0.112959
H	-1.6324802957	-0.3821855319	-1.2545371559	 0.126869
H	-1.1588762502	-2.2528068154	 0.7781707624	 0.301595
H	 1.5152373612	-2.1355867136	-0.8843327347	 0.127941
H	 2.8571859949	-0.9252606471	-0.9088583273	 0.12769
90.5903	117.5275	173.4003	185.6567	201.8828	241.7297	297.6111	347.7981	372.0223	517.1357	529.7448	599.6921	722.3268	751.6734	773.5638	864.5924	924.5078	970.2365	1016.1226	1073.734	1077.9575	1129.981	1151.0881	1179.2985	1208.4096	1221.733	1229.502	1294.3709	1393.8638	1401.0766	1408.6947	1449.3256	1477.6878	1485.1752	1495.1239	1541.3034	1880.0303	3023.8988	3033.3609	3050.1229	3093.6815	3095.0513	3125.4296	3138.0844	3817.6085
CC1(CO)OCOC1=O	C[C@@]1(CO)OCOC1=O	
InChI=1S/C5H8O4/c1-5(2-6)4(7)8-3-9-5/h6H,2-3H2,1H3	InChI=1S/C5H8O4/c1-5(2-6)4(7)8-3-9-5/h6H,2-3H2,1H3/t5-/m0/s1
