15
gdb 79507	2.22062	1.89755	1.23735	2.6837	65.75	-0.2442	-0.0412	0.203	987.4584	0.110537	-457.658874	-457.651212	-457.650268	-457.691504	28.503	
O	 0.1505190319	 1.401406805	-0.2686007055	-0.431869
C	 0.0397561233	 0.0173601839	-0.1021335429	 0.081411
C	 0.0769116558	-0.607029318	 1.3063212016	-0.15112
C	-1.45398133	-0.3555370084	 1.5497188074	 0.025933
O	-1.7352471082	-1.7418490069	 1.9048207053	-0.313579
C	-0.7609720148	-1.8334567411	 0.8361979407	 0.044074
C	-1.3709042682	-0.6321326666	 0.0104510274	 0.164288
C	-2.4856173757	-0.6765869688	-0.9715076474	 0.020254
O	-3.5921796543	-0.2479562496	-0.7548104707	-0.238891
H	-0.4105085329	 1.8465320605	 0.3759523185	 0.291513
H	 0.7081787853	-0.4330436233	-0.8404676849	 0.102714
H	 0.864804808	-0.6080881817	 2.0583096688	 0.097983
H	-1.9753690279	 0.4303646862	 2.0928224621	 0.114905
H	-0.4367005318	-2.8121856797	 0.4860865762	 0.113071
H	-2.2240395805	-1.1352574114	-1.9520073565	 0.079313
61.696	162.7712	197.3922	213.4391	267.6465	339.8972	501.005	545.7491	577.5061	706.2314	744.6568	779.7193	807.7007	856.4124	885.8513	922.3148	942.8098	967.2594	1054.9432	1059.9139	1089.1437	1114.3628	1135.9703	1149.0785	1176.7412	1218.8197	1260.5674	1287.465	1294.3858	1342.437	1422.988	1448.0115	1806.679	2873.2172	3085.5109	3129.6225	3137.1954	3146.3998	3806.6497
OC1C2C3OC2C13C=O	O[C@H]1[C@H]2[C@@H]3O[C@H]2[C@]13C=O	
InChI=1S/C6H6O3/c7-1-6-3(8)2-4(6)9-5(2)6/h1-5,8H	InChI=1S/C6H6O3/c7-1-6-3(8)2-4(6)9-5(2)6/h1-5,8H/t2-,3-,4-,5+,6+/m0/s1
