20
gdb 56672	2.41384	1.2555	1.12212	3.4027	78.16	-0.2593	0.0301	0.2894	1202.3323	0.169759	-403.147421	-403.137776	-403.136832	-403.182044	35.044	
C	 0.1335597248	 1.4777821456	-0.0691854057	-0.412479
C	-0.0402945421	-0.0474266615	 0.0686983291	-0.190904
C	 0.6590559219	-0.5358898144	 1.2638156428	 0.276188
N	 1.1926480184	-0.9211273836	 2.2142952241	-0.330001
C	-1.5181206828	-0.5219528589	 0.0824203152	 0.29207
C	-2.3370394941	 0.0747218918	 1.2201490607	-0.484164
C	-2.1420093096	-0.4704403163	-1.3377723497	-0.126002
O	-1.9777002725	-1.8892136208	-1.511117822	-0.273529
C	-1.6248857672	-2.0566337456	-0.1227811334	-0.118641
H	 1.1897691727	 1.7335655111	-0.1814880795	 0.141573
H	-0.4007320264	 1.838030697	-0.9526911541	 0.129028
H	-0.2490900318	 2.00444521	 0.8076789263	 0.142895
H	 0.4396031028	-0.5284674085	-0.7935701472	 0.136036
H	-2.4284834496	 1.1613693151	 1.1267174152	 0.124401
H	-3.348626354	-0.3415261629	 1.2201889838	 0.125088
H	-1.8825845452	-0.1434320291	 2.1921760309	 0.145616
H	-3.1994379596	-0.1728740254	-1.3461769649	 0.099972
H	-1.6060363119	 0.1027942886	-2.1038887023	 0.102864
H	-0.7073084922	-2.6417794345	 0.0055966333	 0.117192
H	-2.4329293615	-2.5278737877	 0.4519390373	 0.102796
72.0678	84.0624	137.2854	198.2596	206.9869	235.0395	262.0681	314.5878	353.3577	383.074	436.333	521.0449	578.4702	700.0426	787.6982	863.8109	896.2328	907.6175	981.3803	988.5592	995.8205	1037.2628	1038.6047	1084.5939	1113.8958	1160.2067	1167.513	1185.1021	1206.8774	1282.846	1311.7959	1334.6631	1344.4737	1386.0123	1409.8266	1420.3595	1489.9195	1490.8839	1496.3669	1507.4891	1514.1475	1537.3993	2352.9868	3001.8166	3015.1645	3029.0984	3038.1404	3051.6655	3054.5004	3066.9846	3107.7263	3109.6376	3126.9841	3136.7266
CC(C#N)C1(C)COC1	C[C@@H](C#N)C1(C)COC1	
InChI=1S/C7H11NO/c1-6(3-8)7(2)4-9-5-7/h6H,4-5H2,1-2H3	InChI=1S/C7H11NO/c1-6(3-8)7(2)4-9-5-7/h6H,4-5H2,1-2H3/t6-/m0/s1
