24
gdb 101572	4.24472	0.66153	0.65339	3.2586	87.79	-0.2417	0.0368	0.2785	1888.5816	0.215279	-405.597713	-405.585968	-405.585024	-405.636505	40.936	
C	 0.0413733973	 1.5740043348	 0.1634152185	-0.391044
C	 0.0294465983	 0.0551145457	-0.0372017781	-0.177533
C	 0.8440736475	-0.4382798354	-1.2463340081	 0.071126
C	 2.3433743157	-0.1374272264	-1.1127831964	-0.399061
C	 0.6073541499	-1.9409261495	-1.4728154905	-0.328631
C	 1.127538065	-2.4234336492	-2.8260485117	 0.415829
O	 1.0634562558	-1.736054706	-3.8317014827	-0.380174
N	 1.6415948484	-3.6887641613	-2.8267114354	-0.312471
C	 2.1244343659	-4.3375048122	-4.0294964807	-0.333354
H	 1.0417948596	 1.9504753953	 0.3968695032	 0.117998
H	-0.3069134694	 2.0922709973	-0.7370336454	 0.116904
H	-0.6168631388	 1.8633691065	 0.9887520461	 0.110149
H	 0.3977418463	-0.4373819193	 0.8742997856	 0.08671
H	-1.0104186281	-0.2755094042	-0.1591027674	 0.089385
H	 0.4757653899	 0.070019072	-2.1457222207	 0.100491
H	 2.89048078	-0.4908517406	-1.9914406776	 0.128348
H	 2.5332455058	 0.9353528474	-1.0211089651	 0.115767
H	 2.7656487885	-0.6274001924	-0.2260469753	 0.101161
H	 1.0463317542	-2.5268709447	-0.6543973161	 0.085829
H	-0.4713217264	-2.1469196829	-1.4601809839	 0.121288
H	 1.6649634938	-4.1973290503	-1.9590208426	 0.243036
H	 2.0294173926	-3.617641682	-4.8432007844	 0.171539
H	 3.1757321421	-4.6299252789	-3.9302470655	 0.12335
H	 1.534858036	-5.2296031339	-4.2707346659	 0.12336
19.04	57.0619	82.5008	86.0293	120.8026	170.1117	214.7334	249.5513	265.3676	285.0303	330.2765	380.8078	419.2005	451.3025	504.6508	628.0545	715.8249	773.8817	837.655	889.0088	903.921	929.8023	976.5457	1016.362	1042.5835	1067.9487	1125.7962	1149.9355	1155.6435	1172.39	1177.0617	1219.6981	1262.5592	1285.841	1308.5882	1368.16	1380.573	1392.2266	1409.4764	1413.025	1437.1375	1459.5341	1483.5847	1492.5362	1496.5648	1498.2859	1501.0592	1507.4921	1514.4415	1559.4101	1772.9057	3002.135	3012.3372	3024.1924	3025.2495	3032.7701	3034.3259	3043.0121	3057.8679	3076.1699	3097.7126	3099.0865	3106.312	3117.3889	3153.6524	3652.4357
CCC(C)CC(=O)NC	CC[C@@H](C)CC(=O)NC	
InChI=1S/C7H15NO/c1-4-6(2)5-7(9)8-3/h6H,4-5H2,1-3H3,(H,8,9)	InChI=1S/C7H15NO/c1-4-6(2)5-7(9)8-3/h6H,4-5H2,1-3H3,(H,8,9)/t6-/m1/s1
