18
gdb 92896	2.32037	1.74599	1.22322	3.531	75.74	-0.2384	-0.0171	0.2213	1059.7596	0.149446	-435.279015	-435.270519	-435.269575	-435.311943	31.924	
C	-0.3205588121	 1.375055427	-0.0260055024	-0.366641
N	 0.0299838193	-0.0342106816	 0.0256289324	-0.097966
C	 0.2721412267	-0.7376886314	-1.1527440591	 0.078155
N	 0.4076853397	-1.9954540123	-1.2872258074	-0.276806
C	 0.2443748889	-2.791120523	-0.0674863068	-0.20613
C	 0.7709826476	-2.0582697111	 1.1632676994	 0.049612
O	 2.1852948746	-1.9023308402	 1.1039518729	-0.439039
C	 0.1068634115	-0.6916258467	 1.2616200277	 0.37856
N	-0.261625029	-0.2321577931	 2.3893963873	-0.53029
H	 0.3132882289	 1.9541413049	 0.653406249	 0.149344
H	-0.1690964514	 1.7432045125	-1.0423170059	 0.142403
H	-1.3696490213	 1.5431508194	 0.2454933405	 0.143112
H	 0.3400782935	-0.0966939889	-2.0320086786	 0.117119
H	-0.8207730858	-3.032416659	 0.0613454765	 0.120473
H	 0.7787087621	-3.7383364298	-0.1886755085	 0.119888
H	 0.5525758418	-2.5958314046	 2.0875411484	 0.11389
H	 2.4235384983	-1.7496106897	 0.1817633686	 0.291836
H	-0.6597968434	 0.7052202274	 2.322120236	 0.21248
96.9892	144.7669	173.6487	206.7763	280.1561	333.897	345.1394	353.0747	430.6818	500.0457	546.8844	625.8524	712.2216	757.9758	841.0441	880.2656	887.5886	932.319	962.7766	1003.2243	1065.326	1087.5315	1119.4284	1152.7242	1221.7934	1227.2485	1261.2593	1318.5844	1330.1516	1349.4012	1385.9479	1420.9382	1424.8294	1468.0756	1475.2936	1483.6459	1523.5354	1715.1909	1724.7846	3010.1173	3024.6123	3078.5688	3083.9574	3109.2817	3126.5661	3135.2436	3471.9802	3787.8705
CN1C=NCC(O)C1=N	CN1C=NC[C@@H](O)[C]1[NH]	
InChI=1S/C5H9N3O/c1-8-3-7-2-4(9)5(8)6/h3-4,6,9H,2H2,1H3	InChI=1S/C5H9N3O/c1-8-3-7-2-4(9)5(8)6/h3-4,6,9H,2H2,1H3/t4-/m1/s1
