21
gdb 12070	3.46697	1.60767	1.43409	1.6966	77.37	-0.228	0.0803	0.3083	997.573	0.188709	-329.086108	-329.077803	-329.076859	-329.118364	32.336	
C	 0.0983391583	 1.5391386154	-0.126724975	-0.388185
C	 0.0075516281	 0.0302695922	 0.133296041	-0.23843
C	-1.4118272915	-0.546985169	 0.0478582355	 0.340484
C	-2.3295343812	 0.0160958503	 1.1370838251	-0.452546
C	-2.1187986343	-0.5588675192	-1.3452537599	-0.216237
N	-2.3626992524	-2.0454159573	-1.2878800619	-0.12746
C	-1.0219687416	-2.6557734274	-1.271972558	-0.253403
C	-1.5312023953	-2.0789883247	-0.0139047305	-0.068797
H	 1.1410067196	 1.8711584118	-0.1229087129	 0.114353
H	-0.3273301302	 1.8005210917	-1.1021115015	 0.117222
H	-0.4331515355	 2.1196403613	 0.63305791	 0.119549
H	 0.6503006153	-0.4898196755	-0.5860014858	 0.092211
H	 0.4202420496	-0.1966242109	 1.1258527927	 0.093504
H	-2.4723445982	 1.0953182	 1.0252225257	 0.116859
H	-3.3162246368	-0.4559547844	 1.096279971	 0.125154
H	-1.9110781021	-0.165860775	 2.1341141301	 0.110948
H	-3.0670000681	-0.0172422411	-1.3695958313	 0.10649
H	-1.5142132507	-0.2551919559	-2.2076348372	 0.095487
H	-1.0481620114	-3.7372409832	-1.3691637642	 0.118691
H	-0.2157939007	-2.1747459216	-1.8219531992	 0.10825
H	-1.8190513109	-2.7029102876	 0.8285614463	 0.085855
88.162	177.4854	192.4906	246.1526	259.6849	305.3832	358.2455	419.4342	445.3249	509.7345	621.5432	744.6591	775.7471	784.4542	844.109	902.7048	919.3198	950.7124	973.4769	1003.4386	1015.4796	1043.2138	1057.2313	1080.5858	1109.0984	1119.0281	1190.4664	1193.422	1219.5651	1231.6111	1265.8732	1290.2176	1315.9898	1366.3788	1381.0386	1408.5	1414.9461	1480.2362	1490.1778	1495.2761	1499.8562	1503.6708	1511.1897	1513.5262	3015.7424	3026.7915	3032.6868	3035.5883	3058.4431	3092.5568	3098.8011	3102.0152	3103.3621	3105.5512	3112.1582	3139.3181	3191.6051
CCC1(C)CN2CC12	CC[C@@]1(C)CN2C[C@@H]12	
InChI=1S/C7H13N/c1-3-7(2)5-8-4-6(7)8/h6H,3-5H2,1-2H3	InChI=1S/C7H13N/c1-3-7(2)5-8-4-6(7)8/h6H,3-5H2,1-2H3/t6-,7-,8?/m0/s1
