16
gdb 18200	4.21313	1.75159	1.43102	4.5661	67.89	-0.2537	0.0241	0.2778	873.7271	0.133128	-342.781334	-342.774617	-342.773673	-342.812244	25.824	
N	-0.5426934395	-0.9258079572	-0.9543060289	-0.323249
C	-0.279209554	 0.0971375338	-0.4862237162	 0.291123
C	 0.0375628045	 1.384415435	 0.1360792871	-0.109306
C	-0.3772888802	 1.4537784285	 1.6361241015	-0.251602
C	 0.6413349923	 2.4465340053	 2.230341532	-0.235139
C	 1.8598273839	 2.3088267655	 1.3310311896	-0.005344
C	 2.3193695136	 0.9431793287	 0.9755135552	-0.248567
N	 1.479541218	 1.7051230435	 0.033305981	-0.096837
H	-0.4893811237	 2.164099741	-0.4259438741	 0.132696
H	-1.4131306424	 1.7773640755	 1.7517893815	 0.124025
H	-0.29291516	 0.4695032234	 2.1013326171	 0.132001
H	 0.2640351099	 3.4733076033	 2.1737857896	 0.115871
H	 0.8598954675	 2.236497247	 3.2812721204	 0.118436
H	 2.5554135461	 3.1409032604	 1.2771280683	 0.101101
H	 3.3357994857	 0.7870324554	 0.6292026823	 0.129169
H	 1.8888795784	 0.0908264608	 1.4943870437	 0.125623
110.2341	163.3629	255.9936	324.8451	403.8854	514.0706	538.0553	628.131	651.8411	746.1058	834.1841	853.0263	865.6822	936.8281	959.5875	990.7189	1024.9109	1042.3673	1092.3663	1109.5627	1112.9973	1167.3623	1182.3533	1214.5839	1268.3114	1292.7729	1323.9167	1332.3549	1360.6046	1389.0317	1489.8267	1496.3584	1521.1033	2362.0879	3044.1291	3049.0901	3080.459	3094.0903	3119.2633	3129.3218	3155.7187	3204.7833
N#CC1CCC2CN12	N#C[C@H]1CC[C@H]2CN12	
InChI=1S/C6H8N2/c7-3-5-1-2-6-4-8(5)6/h5-6H,1-2,4H2	InChI=1S/C6H8N2/c7-3-5-1-2-6-4-8(5)6/h5-6H,1-2,4H2/t5-,6+,8?/m1/s1
