17
gdb 70131	2.37443	1.97938	1.26065	2.2965	73.55	-0.2323	-0.0323	0.2	998.6392	0.136064	-418.007774	-417.999749	-417.998805	-418.040551	30.239	
C	 0.0865112995	 1.5174798255	-0.1814350985	-0.455724
C	 0.027211245	 0.012037845	-0.0556704416	 0.204442
C	 0.3523342624	-0.6317453947	 1.258429275	-0.278477
N	 1.3264777039	-0.6705197124	 0.159309388	-0.159185
C	 1.4924001915	-1.9470045116	-0.4486263911	 0.049665
N	 0.6716617487	-2.6264658317	-1.1310291286	-0.202836
C	-0.6840563064	-2.1277611255	-1.3140301099	-0.271844
C	-0.9638669227	-0.6735676235	-0.9491658264	 0.326582
O	-1.9153349758	-0.0815658447	-1.4070211342	-0.314938
H	 0.8374582683	 1.9251312606	 0.4986588258	 0.125071
H	 0.3466863556	 1.8095248787	-1.2027166065	 0.135061
H	-0.8895610537	 1.9496554862	 0.0508437207	 0.143737
H	 0.6116547707	 0.012907155	 2.0930916191	 0.137417
H	-0.1401358199	-1.563052362	 1.52624099	 0.134935
H	 2.4939217533	-2.3475323441	-0.2888021882	 0.127029
H	-0.9843899381	-2.2625657347	-2.3587617221	 0.151258
H	-1.3648647725	-2.7691451262	-0.7360049615	 0.147808
57.4225	144.4953	181.7021	246.3927	307.5591	356.5352	433.0279	477.3265	485.5979	558.3588	604.0879	644.4913	739.0397	805.2882	880.1338	927.2398	952.5679	974.6264	992.8836	1013.5118	1069.8026	1089.2194	1122.2827	1134.2383	1170.5317	1237.6063	1319.8478	1337.5601	1354.8227	1398.6087	1410.682	1441.8539	1478.4577	1492.5338	1503.4171	1729.5708	1802.014	3016.1774	3053.6745	3070.8988	3109.5844	3125.1587	3131.356	3140.5131	3202.6105
CC12CN1C=NCC2=O	C[C@]12CN1C=NCC2=O	
InChI=1S/C6H8N2O/c1-6-3-8(6)4-7-2-5(6)9/h4H,2-3H2,1H3	InChI=1S/C6H8N2O/c1-6-3-8(6)4-7-2-5(6)9/h4H,2-3H2,1H3/t6-,8?/m1/s1
