19
gdb 92151	2.94448	1.49954	1.43378	1.194	74.14	-0.2266	0.0732	0.2998	1013.9059	0.159798	-422.994198	-422.986403	-422.985459	-423.025968	31.374	
C	-0.2533889473	 1.5483206709	 0.0282651743	-0.395355
C	 0.040647872	 0.0513887153	-0.0335484574	 0.115076
O	 0.7154091261	-0.304559784	-1.2604065592	-0.284916
C	 2.0125871728	-0.7802841971	-0.9322771999	 0.008285
C	 2.8993086858	 0.3331240901	-0.2868882947	-0.24789
C	 2.4403356082	-0.1787518071	 1.0810353027	-0.131395
C	 0.9329873564	-0.5085882698	 1.0673083747	-0.162497
C	 1.91805523	-1.4586795061	 0.4697792537	 0.376802
O	 2.1768468863	-2.7640092839	 0.8231484866	-0.465712
H	 0.6628893089	 2.1379548146	 0.109298162	 0.121584
H	-0.7923477191	 1.8643841519	-0.8695742415	 0.123678
H	-0.8798089663	 1.7707053954	 0.8992787367	 0.110011
H	-0.9193355788	-0.4867431846	-0.0273151297	 0.072261
H	 2.4143691125	-1.3346627504	-1.7795741531	 0.084861
H	 3.9656196108	 0.1397197583	-0.4385865373	 0.104306
H	 2.668350652	 1.359060228	-0.5851898247	 0.098478
H	 2.9489141811	-0.044992079	 2.0284444417	 0.09199
H	 0.5048913594	-0.7460182031	 2.0346226587	 0.091564
H	 1.395560289	-3.2940747695	 0.6282203664	 0.28887
150.772	203.7643	213.1375	245.1208	305.3499	346.6534	416.331	449.6056	532.4678	604.6452	653.1064	696.6159	775.0163	824.1524	833.2765	897.3033	910.9441	931.7194	954.2093	1005.5668	1010.9369	1027.2792	1064.9438	1104.1543	1110.9592	1132.5296	1157.2553	1165.1549	1176.1151	1224.2964	1275.1659	1301.4158	1310.9222	1329.3633	1358.2616	1386.1752	1405.1775	1469.7093	1486.1738	1493.688	1504.615	2982.2244	3038.8985	3050.2748	3103.2588	3107.4872	3128.3777	3129.7231	3180.795	3189.9506	3788.0612
CC1OC2CC3C1C23O	C[C@H]1O[C@H]2C[C@H]3[C@@H]1[C@@]23O	
InChI=1S/C7H10O2/c1-3-6-4-2-5(9-3)7(4,6)8/h3-6,8H,2H2,1H3	InChI=1S/C7H10O2/c1-3-6-4-2-5(9-3)7(4,6)8/h3-6,8H,2H2,1H3/t3-,4+,5+,6-,7+/m1/s1
