18
gdb 13077	4.28798	1.26502	1.05335	2.3286	73.78	-0.2428	0.0545	0.2974	1135.3965	0.152028	-347.752471	-347.743767	-347.742823	-347.786565	31.33	
C	-0.2223055904	 1.5564230701	-0.1075576512	-0.406467
C	-0.0060901079	 0.050198389	-0.034818348	-0.058382
C	 1.2608798582	-0.5046868422	-0.7239484072	-0.07386
O	 1.7949402867	-0.9835957715	 0.5264406441	-0.284619
C	 0.6162162059	-0.5734410579	 1.2489062982	 0.147935
C	 0.9442025757	 0.3335118548	 2.4399042496	-0.375864
C	 1.6245954995	-0.3821464582	 3.5118378436	 0.29609
C	 2.175018582	-0.9898902631	 4.3901474	-0.425333
H	 0.68395387	 2.1131148529	 0.1510947152	 0.123451
H	-0.506777161	 1.8486095373	-1.1239958799	 0.118676
H	-1.0235683268	 1.8829871981	 0.5637232646	 0.120285
H	-0.9210470135	-0.4658090536	-0.3371695205	 0.081807
H	 1.0947788064	-1.320197786	-1.4390302548	 0.100201
H	 1.9153693078	 0.2448904487	-1.1880501992	 0.099119
H	 0.0628854507	-1.4481997674	 1.6160146628	 0.082897
H	 1.5653584156	 1.1693742878	 2.0994915212	 0.132102
H	 0.007710434	 0.7643111459	 2.819386159	 0.128075
H	 2.6704621272	-1.5215731645	 5.1639781126	 0.193886
40.4813	68.9924	119.73	210.3492	253.1559	335.8306	346.6228	365.6363	473.8199	507.7421	617.1189	636.7298	741.9913	830.8077	881.0413	900.0057	922.4776	955.3397	1014.4829	1019.8005	1056.2807	1116.7814	1139.1323	1156.4847	1188.6334	1224.9095	1261.1612	1285.3033	1314.2022	1361.6246	1381.8274	1396.5543	1415.4947	1455.0334	1496.729	1501.5086	1529.9958	2241.4565	3004.6501	3011.5306	3019.9287	3032.8253	3045.7528	3069.4162	3070.8804	3096.9217	3107.251	3508.1717
CC1COC1CC#C	C[C@H]1CO[C@H]1CC#C	
InChI=1S/C7H10O/c1-3-4-7-6(2)5-8-7/h1,6-7H,4-5H2,2H3	InChI=1S/C7H10O/c1-3-4-7-6(2)5-8-7/h1,6-7H,4-5H2,2H3/t6-,7-/m0/s1
