15
gdb 33622	3.5132	1.64658	1.44425	5.2572	73.01	-0.2574	0.0118	0.2692	902.4024	0.115342	-379.597177	-379.591015	-379.590071	-379.627682	25.252	
N	 0.0142096992	-1.172308776	 0.0052849655	-0.347433
C	-0.0043343294	-0.0151592679	 0.0138294949	 0.125671
C	-0.0449269346	 1.4111741479	 0.0539334355	 0.30317
C	-0.6995528269	 2.3402012414	 1.127038844	-0.173112
C	-0.9402345211	 3.3398612193	 0.0241271947	-0.084299
C	 0.3696466287	 3.3550875756	 0.8100550161	-0.084302
C	 1.200090603	 2.374892642	-0.0783249319	-0.089032
N	 0.8760911901	 2.5823637246	-1.5036042557	-0.299294
C	-0.5303028546	 2.354839403	-1.1166285244	-0.089041
H	-1.2406756417	 2.1125242722	 2.0333285837	 0.114067
H	-1.6331276694	 4.1687644337	-0.004424989	 0.103142
H	 0.7066345849	 4.1959702887	 1.3994211441	 0.103142
H	 2.2199709406	 2.1116003639	 0.1946329738	 0.099405
H	 1.0773871601	 3.5176855172	-1.8571371395	 0.218511
H	-1.2463807189	 2.0714219844	-1.8853233817	 0.099405
149.2656	162.6856	438.6724	501.6245	510.51	564.6703	572.0704	749.5931	751.1707	805.1619	807.3599	825.3208	850.6739	904.5131	917.5797	931.5227	962.5033	986.0057	1017.8835	1027.9609	1041.7404	1052.7283	1095.1493	1129.6073	1168.7997	1203.592	1205.3107	1253.7245	1270.3588	1323.7004	1340.0302	1345.4114	2347.421	3144.341	3145.8271	3214.5529	3217.8332	3234.3522	3458.0679
N#CC12C3C4C3C1NC24	N#C[C@@]12[C@@H]3[C@H]4[C@@H]3[C@@H]1N[C@@H]24	
InChI=1S/C7H6N2/c8-1-7-4-2-3(4)6(7)9-5(2)7/h2-6,9H	InChI=1S/C7H6N2/c8-1-7-4-2-3(4)6(7)9-5(2)7/h2-6,9H/t2-,3+,4-,5-,6+,7+
