19
gdb 37473	2.92848	1.73339	1.44659	1.9203	73.6	-0.2418	0.0831	0.3249	962.501	0.162318	-422.990671	-422.983727	-422.982783	-423.021973	28.235	
C	 0.0111403379	 1.469101331	-0.0983203072	-0.281799
C	 1.3158301217	 0.7433988295	 0.0636101106	-0.070329
C	-0.0102979332	-0.0270088613	 0.0410705968	-0.058236
C	 0.3725388281	-0.6772207097	-1.288570177	 0.081797
O	-0.4981492621	-0.3498320468	-2.3630316278	-0.25527
C	 0.1699790304	 0.1292107738	-3.5010342424	 0.013371
O	 0.9556877336	 1.256784961	-3.2278382258	-0.227301
C	 2.1159341845	 0.8955364318	-2.4798753141	-0.118687
C	 1.7599095108	 0.0712245972	-1.2399796434	-0.04971
H	-0.3203694122	 2.010059974	 0.7820285756	 0.108958
H	-0.2550963235	 1.9279481481	-1.0437430511	 0.135277
H	 1.9713475294	 0.9227718151	 0.9074177243	 0.085355
H	-0.5263550299	-0.5281852357	 0.8498345599	 0.086562
H	 0.4795319946	-1.7664628322	-1.2277373657	 0.07593
H	 0.8003442175	-0.6627923612	-3.949250463	 0.07258
H	-0.6046666794	 0.4341341823	-4.2075208635	 0.11665
H	 2.7929284454	 0.3202804729	-3.1325459212	 0.091446
H	 2.6161931338	 1.8307306835	-2.2117547589	 0.11439
H	 2.5570732125	-0.6504332133	-1.0421037761	 0.079017
122.8548	145.0535	280.5672	355.1606	421.7612	454.5564	540.3046	574.2142	656.0905	754.8449	780.9979	807.6253	823.659	906.9649	927.6292	953.7948	974.4177	1006.3952	1025.8988	1034.7836	1047.138	1066.2571	1084.6654	1096.1496	1117.4129	1156.6435	1186.0268	1197.5071	1218.7378	1274.4085	1281.7003	1307.5053	1333.2867	1348.4132	1357.8718	1374.9583	1404.3817	1442.7024	1489.1686	1492.4606	1513.7903	2917.2093	2969.1939	3028.9579	3069.6614	3083.1936	3110.3767	3135.4564	3178.1288	3194.7716	3223.7165
C1C2C1C1OCOCC21	C1[C@H]2[C@@H]1[C@H]1OCOC[C@@H]21	
InChI=1S/C7H10O2/c1-4-5(1)7-6(4)2-8-3-9-7/h4-7H,1-3H2	InChI=1S/C7H10O2/c1-4-5(1)7-6(4)2-8-3-9-7/h4-7H,1-3H2/t4-,5+,6-,7+/m0/s1
