23
gdb 100999	2.58656	1.05943	0.9859	0.7719	81.23	-0.2508	0.0578	0.3087	1377.0556	0.203385	-425.409597	-425.399078	-425.398134	-425.445311	38.651	
C	-0.0149192273	 1.5511479595	 0.1813462472	-0.394432
C	-0.0421874938	 0.0241505929	 0.0596428775	-0.176545
C	-1.4536921045	-0.5749599056	-0.1022310926	 0.019551
C	-2.1081002471	-0.1706985497	-1.4320313419	-0.409635
C	-1.4179166665	-2.1013859114	 0.0441849762	 0.342533
O	-0.6065046572	-2.6083884269	-0.9908047964	-0.481911
C	-1.1375336547	-2.6252437786	 1.4805622685	-0.136413
O	-2.5050246385	-3.048414459	 1.6356646471	-0.271829
C	-2.7999196051	-2.7816602146	 0.2520269399	-0.136812
H	 1.0054434242	 1.9083659001	 0.3524261464	 0.112436
H	-0.3842467215	 2.0426736478	-0.7237770211	 0.119141
H	-0.6308910807	 1.8947718036	 1.0204494875	 0.11172
H	 0.5741550229	-0.2962611616	-0.7871999108	 0.113388
H	 0.427320899	-0.4054811645	 0.9536703293	 0.0907
H	-2.0798750389	-0.2051498714	 0.7223341937	 0.076429
H	-3.1136099105	-0.5929534501	-1.5290510232	 0.109724
H	-2.203889554	 0.9149983569	-1.5132333684	 0.114042
H	-1.5119941523	-0.5290840707	-2.2756662139	 0.132929
H	-0.5782795781	-3.5679995954	-0.9188077137	 0.280897
H	-0.4327367979	-3.4698610204	 1.5072867057	 0.087138
H	-0.8442554867	-1.8927230314	 2.2410293346	 0.105151
H	-3.6954382404	-2.1613434929	 0.1328947302	 0.105299
H	-2.9238328803	-3.7045042767	-0.3345318419	 0.086499
56.8606	84.0677	99.2195	174.1087	199.648	220.5373	271.7673	297.944	307.1873	327.9175	349.9031	450.2486	478.8296	491.2967	721.913	772.507	805.2175	857.1242	910.7551	938.8554	970.9912	991.3683	1001.6281	1021.1914	1034.1473	1067.0832	1068.7638	1115.6319	1151.8088	1161.0183	1162.3917	1191.2547	1222.4797	1289.6243	1294.9717	1329.4698	1355.3259	1364.9126	1376.9854	1408.1296	1414.4354	1416.1321	1483.3278	1494.4155	1500.6002	1503.2961	1507.9349	1510.5114	1529.2923	2982.6878	2994.7863	3006.1348	3024.8434	3031.2744	3043.8397	3058.0083	3060.1255	3070.4662	3098.3311	3103.5396	3109.3324	3125.4972	3811.738
CCC(C)C1(O)COC1	CC[C@@H](C)C1(O)COC1	
InChI=1S/C7H14O2/c1-3-6(2)7(8)4-9-5-7/h6,8H,3-5H2,1-2H3	InChI=1S/C7H14O2/c1-3-6(2)7(8)4-9-5-7/h6,8H,3-5H2,1-2H3/t6-/m1/s1
