18
gdb 52970	4.61119	0.9038	0.84306	1.6642	87.74	-0.1996	0.0413	0.2409	1425.8226	0.14672	-364.702822	-364.694235	-364.693291	-364.73781	32.121	
C	-0.0217721009	 1.4691390637	-0.0207569716	-0.507663
C	-0.0140497586	 0.0138667172	-0.0176977959	 0.23979
C	-0.0099188518	-1.1929910532	-0.024054587	-0.186305
C	 0.0195365008	-2.6119404262	 0.0014302767	 0.19962
C	-0.340759501	-3.5017212615	-1.1741156774	-0.335289
C	-1.1530903377	-3.6163048245	 0.0795388286	-0.119316
C	-0.4013190003	-4.3698870357	 1.2113869229	-0.047819
N	 0.9145281408	-4.8294379038	 0.6923276678	-0.340228
C	 0.7274256268	-3.4287441899	 1.1384770414	-0.128525
H	 0.7414396588	 1.8683487957	 0.65698363	 0.146449
H	 0.18482148	 1.8705987781	-1.0195458641	 0.145968
H	-0.9895837986	 1.8692053995	 0.3034347347	 0.144127
H	-0.8304747473	-2.9704888007	-1.9830332204	 0.119146
H	 0.3298287704	-4.2984937122	-1.468895465	 0.145057
H	-2.2059443826	-3.3733332244	 0.1275016662	 0.101753
H	-0.8664172755	-4.8413072852	 2.066554658	 0.096884
H	 1.3805062602	-5.3241910539	 1.4523428398	 0.231467
H	 1.3341105567	-2.9856895929	 1.916843155	 0.094885
14.2103	92.2248	99.5454	251.8577	290.9839	361.4599	411.7804	432.8215	502.1179	521.0524	601.1446	734.5948	771.468	787.7503	830.552	841.6303	899.6841	912.4961	934.291	962.3432	1007.3208	1040.1413	1050.8716	1053.7932	1060.6087	1102.0636	1104.1421	1115.2151	1188.693	1233.2283	1287.2698	1310.1449	1351.6641	1395.0583	1417.2754	1462.9789	1476.3298	1480.1929	2355.5894	3020.3285	3077.179	3081.4776	3145.0572	3196.4037	3205.9428	3212.7508	3239.882	3477.0099
CC#CC12CC1C1NC21	CC#C[C@]12C[C@H]1[C@H]1N[C@@H]21	
InChI=1S/C8H9N/c1-2-3-8-4-5(8)6-7(8)9-6/h5-7,9H,4H2,1H3	InChI=1S/C8H9N/c1-2-3-8-4-5(8)6-7(8)9-6/h5-7,9H,4H2,1H3/t5-,6+,7+,8-/m0/s1
