19
gdb 35260	3.01255	1.05007	0.87291	4.6509	80.85	-0.2718	0.0171	0.289	1356.5059	0.160482	-382.045379	-382.03683	-382.035886	-382.07957	31.647	
N	-0.1842257313	-1.2020395927	 0.4223085519	-0.339861
C	-0.1147132903	-0.0552966285	 0.2918765163	 0.335102
C	-0.0356140846	 1.3713373129	 0.0871335644	-0.198505
N	 0.5860739701	 2.1636627748	 1.1677248758	-0.319934
C	 1.2786551937	 2.0678934601	-0.1194304229	-0.043243
C	 2.5907826482	 1.3409907507	-0.1501562296	 0.062432
C	 3.1710352963	 0.9121983122	-1.5288171378	-0.238433
C	 4.5807018718	 1.3079090771	-1.0117860872	-0.209746
C	 3.8956031135	 2.1548244585	 0.0948760112	-0.236666
H	-0.8999117248	 1.7834267849	-0.4268354498	 0.130036
H	 0.0938819378	 3.0482408407	 1.2619834592	 0.245179
H	 1.2205647379	 2.9326863031	-0.7817761397	 0.092925
H	 2.5439195704	 0.4870772344	 0.5309926019	 0.09952
H	 3.0049752211	-0.1192499737	-1.8462390049	 0.112948
H	 2.8339443047	 1.5811069079	-2.3281494961	 0.096149
H	 5.1118174044	 0.4491518282	-0.5923228839	 0.110136
H	 5.2484984	 1.8238598246	-1.7048756436	 0.09896
H	 3.7782956067	 3.1996881106	-0.2128236289	 0.095041
H	 4.3191228046	 2.1352402544	 1.1010587038	 0.107959
48.1927	87.3676	132.3463	170.0999	246.9904	315.2133	363.6604	439.6673	575.9814	596.7589	654.1669	757.3494	785.8301	818.4545	868.7641	899.7108	921.3717	934.0075	955.7776	965.1802	979.1725	1042.2263	1060.3581	1099.3464	1143.8946	1200.8187	1205.0415	1216.8577	1234.6368	1256.2877	1258.5702	1269.3793	1282.5028	1286.6909	1336.6079	1404.5083	1466.6302	1478.4179	1486.4008	1509.8462	2358.8206	3045.1651	3048.5675	3063.3587	3074.7763	3100.8014	3106.2018	3110.4855	3123.928	3147.2645	3509.1696
N#CC1NC1C1CCC1	N#C[C@H]1N[C@H]1C1CCC1	
InChI=1S/C7H10N2/c8-4-6-7(9-6)5-2-1-3-5/h5-7,9H,1-3H2	InChI=1S/C7H10N2/c8-4-6-7(9-6)5-2-1-3-5/h5-7,9H,1-3H2/t6-,7+/m1/s1
