17
gdb 96772	3.29528	1.53063	1.31505	2.3853	74.38	-0.2313	0.0075	0.2388	1008.3849	0.137035	-417.951122	-417.943748	-417.942804	-417.983055	28.27	
C	 0.0089938524	 1.4134283297	 0.0422332313	-0.336643
N	-0.0343522599	-0.0384169065	 0.0411672409	-0.307207
C	-1.1479737636	-0.6074838357	-0.004595709	 0.401213
C	-2.652512272	-0.2613433073	-0.0499158877	-0.046351
O	-3.0883095098	-0.1304033223	-1.3955129013	-0.257866
C	-2.6931690757	-1.3430836933	-2.0502585759	-0.103897
C	-2.4559940971	-2.3494433598	-0.931071155	-0.060913
C	-2.850661484	-1.742996362	 0.3402818564	-0.056033
N	-1.3731546778	-2.0422374071	 0.0773457616	-0.188627
H	 0.6177415842	 1.7499540417	-0.8038570109	 0.134337
H	-0.97338206	 1.9018538564	-0.0217347967	 0.11008
H	 0.5139547843	 1.7569243243	 0.9519141228	 0.131874
H	-3.0621756507	 0.5497545387	 0.5487621113	 0.103691
H	-3.5030627671	-1.6633464593	-2.7135983466	 0.119948
H	-1.7872083167	-1.1794433209	-2.64860218	 0.121415
H	-2.5569625527	-3.410959023	-1.1218867323	 0.119263
H	-3.3899022038	-2.1814213137	 1.1681933908	 0.115714
100.0765	150.8224	199.1167	257.1266	285.8277	408.3006	511.049	589.9663	667.6794	714.3451	747.6494	816.6461	836.4766	845.9687	899.3897	937.0219	967.8372	1021.2343	1044.8289	1060.6378	1064.1642	1077.4314	1103.6721	1131.3609	1164.8598	1195.6034	1220.7084	1240.1315	1264.4602	1306.7048	1348.5632	1393.0708	1443.5608	1484.1695	1499.4318	1509.713	1824.2407	2999.4027	3020.6832	3073.3973	3078.0114	3086.6213	3144.2879	3194.9786	3220.0134
CN=C1C2OCC3C2N13	CN=C1[C@H]2OC[C@@H]3[C@H]2N13	
InChI=1S/C6H8N2O/c1-7-6-5-4-3(2-9-5)8(4)6/h3-5H,2H2,1H3	InChI=1S/C6H8N2O/c1-7-6-5-4-3(2-9-5)8(4)6/h3-5H,2H2,1H3/t3-,4-,5+,8?/m1/s1
