19
gdb 88296	3.87832	0.98144	0.91447	3.2287	79.51	-0.2391	-0.0246	0.2145	1340.9061	0.158841	-423.022066	-423.013463	-423.012519	-423.055944	32.779	
O	-0.0011097921	 1.346238137	-0.2346966119	-0.418715
C	-0.0324359942	-0.0216997036	-0.0840479914	 0.157198
C	-0.3530535039	-0.6794237846	 1.2037891806	-0.324863
C	-1.3854270307	-0.774477704	 0.0699876157	-0.206656
C	-2.5879315337	 0.0747040974	 0.1555037153	 0.426836
O	-2.5458877039	 1.1880755708	 0.6800345561	-0.409097
C	-3.8455980239	-0.4351347737	-0.449942611	-0.111701
C	-5.1592549709	 0.0332204815	 0.161855615	-0.250379
C	-4.7408758391	 0.5781012904	-1.157226373	-0.245932
H	-0.7882476275	 1.6968166541	 0.2208434057	 0.305458
H	 0.682809741	-0.5026680806	-0.7437072256	 0.115229
H	 0.1515707183	-1.5994675609	 1.4771815502	 0.121004
H	-0.6356269235	-0.0343344238	 2.0292239068	 0.137299
H	-1.490869756	-1.7274173416	-0.4349784522	 0.092367
H	-3.8135105599	-1.4383285698	-0.8580484231	 0.090444
H	-5.9656809336	-0.6897308898	 0.2026869531	 0.119628
H	-5.0638649806	 0.683311352	 1.0235986122	 0.140864
H	-4.3645732801	 1.5939485451	-1.1829692941	 0.140482
H	-5.2479251757	 0.2406995843	-2.0536697284	 0.120532
51.762	78.4929	176.743	221.2889	271.4605	308.5375	337.4821	447.2603	479.5686	595.6001	671.2548	719.6129	767.1541	788.0838	804.4784	827.5855	834.4278	876.3637	914.6022	939.2099	1014.2609	1047.5234	1065.3048	1078.259	1096.2317	1104.942	1122.036	1126.1894	1131.5667	1144.9369	1211.1086	1221.4964	1238.4153	1358.2456	1373.4238	1431.9572	1451.3831	1454.4133	1485.9162	1491.1867	1707.4849	3132.2256	3143.5756	3145.1286	3165.9185	3174.8001	3184.4823	3228.7961	3231.7358	3246.0806	3603.3338
OC1CC1C(=O)C1CC1	O[C@H]1C[C@H]1C(=O)C1CC1	
InChI=1S/C7H10O2/c8-6-3-5(6)7(9)4-1-2-4/h4-6,8H,1-3H2	InChI=1S/C7H10O2/c8-6-3-5(6)7(9)4-1-2-4/h4-6,8H,1-3H2/t5-,6+/m1/s1
