16
gdb 18949	7.05539	1.3524	1.32009	3.1445	70.04	-0.2419	-0.0224	0.2195	937.4309	0.130879	-346.532176	-346.525768	-346.524824	-346.562958	24.76	
O	-0.0376236286	-0.1166404944	-0.2933308381	-0.259766
C	 0.0019825409	 1.059435609	-0.0259923239	 0.14758
C	 1.2513342106	 1.8848086675	-0.0042472175	-0.104282
C	 1.2017298143	 3.299988437	-0.6451448338	-0.053177
C	 0.4622937285	 3.9476337487	 0.5794116901	-0.046353
C	 1.5026770798	 5.0779227932	 0.7000041131	-0.267976
C	 2.3266426951	 3.8387198276	 0.3019689742	-0.036113
C	 1.4478489821	 2.8794745848	 1.1741320215	-0.053284
H	-0.9306989367	 1.6145021045	 0.2291801616	 0.066322
H	 2.1166557638	 1.2676270968	-0.2640250121	 0.083024
H	 1.061893563	 3.5560905075	-1.6962358149	 0.083054
H	-0.6150031347	 3.9969590848	 0.7365306273	 0.082763
H	 1.4402677213	 5.8853610486	-0.0364390673	 0.098133
H	 1.6754885983	 5.4836040233	 1.7018773858	 0.098154
H	 3.3997113168	 3.7390238559	 0.1337267342	 0.078846
H	 1.5931407355	 2.6481147152	 2.2301876998	 0.083076
85.1792	168.0539	268.9436	416.6512	435.1904	476.6365	734.075	790.4123	832.13	851.8818	852.2665	873.9707	911.8322	949.5689	967.9778	1001.833	1025.7234	1032.4007	1077.433	1100.6884	1123.654	1136.9136	1149.2164	1160.5729	1185.7367	1187.1549	1222.9141	1243.6798	1264.4082	1306.0586	1334.6235	1441.6453	1510.3897	1821.4471	2860.1534	3040.7059	3074.1173	3098.1902	3099.8972	3104.8991	3109.2842	3120.6991
O=CC1C2C3CC2C13	O=C[C@H]1[C@H]2[C@@H]3C[C@H]2[C@H]13	
InChI=1S/C7H8O/c8-2-5-6-3-1-4(6)7(3)5/h2-7H,1H2	InChI=1S/C7H8O/c8-2-5-6-3-1-4(6)7(3)5/h2-7H,1H2/t3-,4+,5-,6-,7+
