20
gdb 86347	2.04277	1.71688	1.04764	1.6821	74.82	-0.2453	0.0684	0.3137	1167.1642	0.170986	-440.232078	-440.223275	-440.222331	-440.265716	33.903	
O	 0.2502353848	 0.4993284966	-1.1895160083	-0.436938
C	 0.0426340691	-0.3981568835	-0.1325283196	 0.151253
C	 0.2167081467	 0.0919960135	 1.3321569395	-0.314603
C	-1.0495370788	-0.7244966211	 1.7137084574	 0.151267
O	-1.9884847234	-0.1701251412	 2.595145121	-0.436893
C	-1.4286134451	-0.8059480388	 0.2001126122	-0.054642
N	-2.3269172001	 0.2891812048	-0.1380379037	-0.112173
C	-3.0089901223	 0.1873375233	-1.4308199456	-0.221114
C	-3.7556121774	-0.0347536217	-0.166368935	-0.221056
H	-0.389245869	 1.2112265466	-1.0667165147	 0.286654
H	 0.6580867131	-1.2762761383	-0.3447448169	 0.090149
H	 1.1531813077	-0.1331111215	 1.8464260886	 0.102215
H	 0.0196663622	 1.1662793987	 1.4052715979	 0.099273
H	-0.7945633995	-1.7104442032	 2.110983409	 0.090189
H	-2.3046818684	 0.639455266	 2.1763680025	 0.286646
H	-1.7860936613	-1.7743541686	-0.1824608767	 0.047884
H	-3.1243036018	 1.117440258	-1.9792816336	 0.12055
H	-2.784923862	-0.6800869854	-2.0468315715	 0.125387
H	-4.0416129744	-1.0539601857	 0.0816002371	 0.125414
H	-4.4219328501	 0.7314291315	 0.2185500602	 0.120538
75.9713	94.6108	149.5393	202.3699	301.8916	328.1653	383.723	421.9493	448.6606	458.3361	497.4688	643.3556	649.9914	755.521	791.2941	828.1016	892.079	899.6638	946.0621	978.791	1040.952	1049.5488	1060.1763	1091.2126	1110.5156	1119.6669	1125.5958	1162.7955	1166.1649	1181.9871	1189.568	1246.0818	1265.5467	1281.4572	1316.5139	1319.8275	1334.9952	1367.6494	1433.6803	1454.5693	1476.0956	1492.3516	1518.382	2973.1432	3057.5046	3076.6933	3080.8818	3109.0548	3112.7603	3121.6573	3189.459	3203.5383	3787.4874	3789.275
OC1CC(O)C1N1CC1	O[C@H]1C[C@@H](O)[C@H]1N1CC1	
InChI=1S/C6H11NO2/c8-4-3-5(9)6(4)7-1-2-7/h4-6,8-9H,1-3H2	InChI=1S/C6H11NO2/c8-4-3-5(9)6(4)7-1-2-7/h4-6,8-9H,1-3H2/t4-,5+,6-
