18
gdb 66834	2.69106	1.96922	1.48348	2.505	74.84	-0.2127	0.0703	0.2829	934.9843	0.147864	-401.852456	-401.845081	-401.844137	-401.883748	30.01	
C	-0.0766453865	 1.4097097244	 0.0168240197	-0.516279
C	-0.0124733403	-0.0815409394	 0.0372407841	 0.314716
C	 0.1720235025	-0.9921406542	-1.215480822	-0.232217
C	 0.9761462245	-2.1262108396	-0.546770583	-0.069096
C	 1.9085069704	-1.4216257195	 0.4586222262	-0.188262
N	 0.6721251469	-0.8610846555	 1.120453267	-0.180039
C	-0.1179211715	-2.0700897346	 0.57632202	-0.103193
C	-1.0209636141	-1.1325489352	-0.2748122738	 0.3209
O	-2.3742409854	-1.0039528026	-0.4417251346	-0.455835
H	 0.9227389685	 1.8485345174	-0.0834298346	 0.120318
H	-0.6836702329	 1.754988937	-0.825787222	 0.12585
H	-0.5241744226	 1.7918549273	 0.9395944797	 0.133917
H	 0.2320197732	-0.5877422861	-2.2172542366	 0.089414
H	 1.2426784423	-3.0124247275	-1.1232178905	 0.065262
H	 2.4028914541	-2.1132988603	 1.1471614431	 0.104947
H	 2.6251915756	-0.6783945344	 0.0955794249	 0.099566
H	-0.3918494236	-2.8693326305	 1.2629336449	 0.079837
H	-2.6740539411	-1.6792798567	-1.0608673423	 0.290194
171.4934	183.977	249.8365	288.5121	300.4188	363.8252	470.8554	576.3708	629.1107	654.3316	723.2042	767.6268	793.4486	830.2621	847.1267	880.3123	901.7793	913.2367	931.9281	977.8829	1012.5938	1049.7858	1055.327	1112.6365	1125.3865	1143.9235	1163.4417	1187.2156	1197.8459	1210.7999	1251.7628	1281.4329	1293.3767	1339.8369	1413.491	1475.6873	1490.8418	1500.0452	1525.6352	3029.4722	3046.0068	3093.1304	3104.0362	3109.6411	3110.2616	3131.5141	3205.8672	3788.4699
CC12C3C4CN1C4C23O	C[C@@]12[C@H]3[C@H]4CN1[C@H]4[C@@]23O	
InChI=1S/C7H9NO/c1-6-4-3-2-8(6)5(3)7(4,6)9/h3-5,9H,2H2,1H3	InChI=1S/C7H9NO/c1-6-4-3-2-8(6)5(3)7(4,6)9/h3-5,9H,2H2,1H3/t3-,4-,5-,6+,7-/m1/s1
