19
gdb 91169	2.37382	1.80878	1.49614	1.8519	74.49	-0.2323	0.024	0.2564	968.5181	0.161182	-423.026073	-423.018382	-423.017438	-423.05765	31.446	
O	-0.0325407825	 1.4308516035	-0.0635709095	-0.444021
C	 0.0335754758	 0.0166609441	 0.029492489	 0.149942
C	 0.6399587918	-0.5308292616	 1.3601150622	-0.241618
C	-0.5354668688	-1.3650986116	 1.966045833	-0.112187
C	-1.6354192646	-0.3924224536	 2.3360389328	-0.085291
C	-2.1484910472	 0.0919942854	 1.1989764635	-0.060399
C	-1.4144842164	-0.5611893345	 0.0443034869	-0.101784
C	-1.1579169417	-1.9527591814	 0.6626503779	 0.136429
O	-0.2913113382	-2.7227391956	-0.1454711096	-0.444858
H	 0.8672949454	 1.7641811707	-0.1287975035	 0.279432
H	 0.5750473286	-0.3978742231	-0.8288956757	 0.079261
H	 1.5056396521	-1.1682350263	 1.1634991098	 0.093873
H	 0.9418942799	 0.2857567665	 2.020251622	 0.093316
H	-0.2392426938	-2.0795281422	 2.7370622388	 0.04983
H	-1.8843745728	-0.0959303145	 3.3474326964	 0.091759
H	-2.8946854185	 0.8673471875	 1.0902773491	 0.099295
H	-1.9073776432	-0.5380945909	-0.9272520589	 0.065737
H	-2.0969117901	-2.4834326082	 0.8648399673	 0.06756
H	-0.1537405458	-3.5721481542	 0.2848258683	 0.283723
148.0587	239.4123	256.1647	272.8085	291.7262	334.6226	406.4246	486.3328	522.7843	572.9913	676.5264	739.7093	753.1589	819.5788	842.9099	850.638	898.965	944.6016	960.3651	976.5628	992.5284	1014.4795	1036.8219	1087.1546	1106.6733	1124.1136	1165.6605	1179.8413	1190.6259	1220.1953	1244.9285	1284.1039	1290.585	1314.8395	1317.5795	1347.863	1367.5049	1411.5486	1428.0168	1471.2564	1643.238	3027.1557	3028.076	3061.5741	3089.3748	3114.3908	3120.8013	3199.2222	3229.2054	3822.5094	3824.4274
OC1CC2C=CC1C2O	O[C@H]1C[C@H]2C=C[C@@H]1[C@H]2O	
InChI=1S/C7H10O2/c8-6-3-4-1-2-5(6)7(4)9/h1-2,4-9H,3H2	InChI=1S/C7H10O2/c8-6-3-4-1-2-5(6)7(4)9/h1-2,4-9H,3H2/t4-,5+,6+,7+/m1/s1
