18
gdb 49786	3.16072	1.32273	1.03504	3.6268	78.05	-0.2281	-0.0243	0.2038	1151.5188	0.149151	-401.943671	-401.935799	-401.934855	-401.976916	29.779	
O	-0.3756052111	 0.1998259407	-0.0526584608	-0.254462
C	-0.0272341285	 1.346860286	 0.0619401445	 0.148562
C	 1.428444644	 1.8115978388	 0.0409629344	-0.115988
C	 1.6943087798	 2.5155507761	-1.2704081367	-0.070685
C	 2.2532122964	 3.7172862469	-1.389925712	-0.055809
C	 2.7302287056	 4.5654781521	-0.2445519064	-0.264963
C	 2.3460668469	 4.0221611376	 1.1147933998	-0.029151
N	 0.9047113144	 3.9066900554	 1.3824809514	-0.332091
C	 1.7189632442	 2.68055197	 1.2544079105	-0.069244
H	-0.7569931722	 2.175068148	 0.1775113262	 0.101506
H	 2.0399961401	 0.9017021786	 0.0911086493	 0.099015
H	 1.4032389016	 1.9658395079	-2.1618640782	 0.101801
H	 2.4118407196	 4.1272540983	-2.3844599249	 0.094188
H	 3.8249585712	 4.6531528702	-0.2981201423	 0.113589
H	 2.3453522432	 5.5887697996	-0.3525337341	 0.11823
H	 2.9757313927	 4.3520499043	 1.9383154162	 0.087216
H	 0.7080362042	 4.0958778804	 2.361126812	 0.234466
H	 1.9274218377	 2.1254607992	 2.165983801	 0.093819
46.7646	79.7548	213.0364	259.4067	338.0687	393.9722	420.9746	479.1095	532.6436	640.9787	711.475	779.034	816.1548	874.0204	881.8153	897.3503	947.3472	972.2505	1004.1511	1018.6851	1028.993	1076.3087	1091.2965	1127.3245	1171.8261	1187.7141	1226.8669	1239.5938	1244.1055	1275.1286	1339.6693	1368.8815	1390.2811	1405.759	1428.8775	1461.0971	1466.6027	1726.4035	1825.3544	2923.2599	3005.8782	3031.112	3032.0117	3124.0954	3136.1967	3147.2709	3170.0718	3510.9254
O=CC1C=CCC2NC12	O=C[C@H]1C=CC[C@H]2N[C@@H]12	
InChI=1S/C7H9NO/c9-4-5-2-1-3-6-7(5)8-6/h1-2,4-8H,3H2	InChI=1S/C7H9NO/c9-4-5-2-1-3-6-7(5)8-6/h1-2,4-8H,3H2/t5-,6-,7+/m1/s1
