20
gdb 62027	4.0067	0.64969	0.6305	3.9537	78.2	-0.2406	-0.0233	0.2173	1819.7992	0.167741	-440.333177	-440.322303	-440.321359	-440.371428	36.623	
C	-0.258215015	 1.3931280686	-0.0093260961	-0.349892
N	 0.0122589116	-0.033222294	-0.053241768	-0.030624
C	 0.0195139837	-0.7896086996	 1.1857148755	-0.181071
C	-1.3776674687	-0.9985483365	 1.7835168486	-0.307475
C	-1.3495389811	-1.8288045166	 3.0616105502	 0.385243
C	-2.6885519119	-2.0956986236	 3.7231081786	-0.47274
O	-0.3110381393	-2.2516567687	 3.5170015102	-0.288775
C	 0.2905003115	-0.6294263936	-1.2489677199	 0.149582
O	 0.3063590702	-0.0769167346	-2.3288674467	-0.342414
H	 0.4270842145	 1.8919332917	 0.6864012387	 0.125302
H	-0.1123863031	 1.7882730348	-1.0147569287	 0.171027
H	-1.2865355756	 1.6027436386	 0.3081772968	 0.122903
H	 0.4769916001	-1.7639330723	 0.9948333515	 0.13451
H	 0.6599255579	-0.2881683158	 1.9204993128	 0.125067
H	-1.8632287876	-0.0398200198	 2.0075216537	 0.126691
H	-2.0347984822	-1.4930939267	 1.0555694533	 0.130465
H	-3.1853974807	-1.1523770707	 3.9761817611	 0.140426
H	-3.3538101314	-2.6289349458	 3.034663974	 0.142464
H	-2.5436127307	-2.6890848388	 4.6264482169	 0.147451
H	 0.5100174879	-1.7081007167	-1.1231322722	 0.071861
24.1359	53.1164	71.8389	100.1363	119.5756	144.1964	204.4575	282.8012	336.5496	354.3663	378.3476	437.8266	479.3184	572.1525	703.6935	742.7073	842.493	883.3982	926.9022	945.1128	1029.855	1063.6941	1088.2714	1095.2962	1157.5841	1177.6071	1193.574	1281.1915	1305.8055	1328.3599	1384.5931	1403.2136	1430.9173	1439.4984	1442.6631	1452.526	1464.8579	1476.8841	1482.1898	1499.7239	1521.2655	1795.5143	1808.8823	2936.9894	3019.8788	3025.3294	3038.2306	3043.2991	3057.2152	3070.7346	3098.0333	3103.4153	3153.8011	3155.6888
CN(CCC(C)=O)C=O	CN(CCC(=O)C)C=O	
InChI=1S/C6H11NO2/c1-6(9)3-4-7(2)5-8/h5H,3-4H2,1-2H3	InChI=1S/C6H11NO2/c1-6(9)3-4-7(2)5-8/h5H,3-4H2,1-2H3
