18
gdb 71584	2.7551	1.81687	1.66762	1.8905	74.83	-0.244	0.0143	0.2583	913.8714	0.150121	-401.92472	-401.917792	-401.916848	-401.955696	28.168	
C	-0.0172560235	 1.490186276	 2.3356*^-6	-0.521357
C	 0.0211786207	-0.0120578319	-0.032222446	 0.26802
C	 0.6654998741	-0.9581674489	-1.078505372	-0.274288
C	 0.0481580479	-1.9167498215	-0.0337221868	-0.121416
C	 0.6136130894	-0.9655302813	 1.0502737013	 0.115683
O	-0.018299932	-0.9711595424	 2.3288484947	-0.246762
C	-1.3684566061	-0.9892409093	 2.2482563707	 0.114021
N	-2.0370280471	-1.000812263	 1.1723074382	-0.292665
C	-1.213382433	-0.9922018002	-0.019723883	 0.011737
H	 0.9929270166	 1.9120551078	 0.043469592	 0.12027
H	-0.5131358219	 1.889288147	-0.8911539114	 0.124847
H	-0.5687387161	 1.8452731976	 0.8769327487	 0.132768
H	 0.1994164681	-0.9641430108	-2.0669007739	 0.101201
H	 1.7571119971	-0.9421300749	-1.1509311152	 0.093969
H	 0.0583275341	-3.0053877956	-0.0213672878	 0.083129
H	 1.688895979	-0.9496874302	 1.2329558274	 0.087356
H	-1.8308765188	-0.995084816	 3.2317917311	 0.129064
H	-1.8290130486	-1.0002054426	-0.9211869237	 0.074423
180.1597	191.5332	213.2653	350.294	401.2704	427.7033	564.2147	569.3275	593.2141	696.6301	781.4932	799.7047	829.6364	886.4105	911.731	940.427	960.1848	974.7889	1015.3262	1027.7594	1081.312	1086.4323	1104.062	1113.0639	1151.1709	1170.6194	1197.4562	1215.782	1234.0317	1235.9536	1328.3304	1343.5602	1385.5697	1409.2776	1418.3053	1488.4612	1489.8554	1518.9525	1706.107	3028.9751	3050.4405	3090.964	3095.6923	3101.07	3108.664	3115.8185	3131.2401	3179.1685
CC12CC3C1OC=NC23	C[C@@]12C[C@H]3[C@@H]1O[CH][N][C@@H]23	
InChI=1S/C7H9NO/c1-7-2-4-5(7)8-3-9-6(4)7/h3-6H,2H2,1H3	InChI=1S/C7H9NO/c1-7-2-4-5(7)8-3-9-6(4)7/h3-6H,2H2,1H3/t4-,5-,6+,7+/m1/s1
