19
gdb 92566	2.49767	1.82498	1.75123	1.8364	73.	-0.2361	0.0688	0.3049	914.635	0.162287	-423.021176	-423.014053	-423.013109	-423.052719	28.994	
O	 0.0119914314	 1.4327671677	-0.0549719646	-0.429626
C	 0.053991609	 0.0075171524	-0.0073528033	 0.091373
C	 0.750436743	-0.5749048851	 1.2523135119	-0.245977
C	-0.3837317349	-0.9691376357	 2.2186282564	 0.083858
O	-0.8301626113	 0.1570124145	 2.9719540777	-0.273552
C	-1.857610501	 0.8429959975	 2.2518100871	-0.092895
C	-2.3173305959	-0.1020934036	 1.152454511	-0.0656
C	-1.3655660875	-0.5449435527	 0.0525512562	-0.052213
C	-1.5481011491	-1.3815342743	 1.3001737676	-0.09983
H	 0.9192532989	 1.7534840707	-0.0713963245	 0.281672
H	 0.5496027462	-0.3664204166	-0.9150841188	 0.063963
H	 1.3074690458	-1.4750954051	 0.9671647922	 0.093558
H	 1.4516721881	 0.1276018837	 1.7126493586	 0.097508
H	-0.0814326289	-1.7393444388	 2.9327742341	 0.076484
H	-2.6801510094	 1.0547067045	 2.9463877525	 0.092673
H	-1.4735808035	 1.7870426484	 1.8544457636	 0.118518
H	-3.3729300418	-0.1184557551	 0.9061275009	 0.090301
H	-1.8308541638	-0.8423218102	-0.8805859288	 0.083501
H	-1.9886058354	-2.3697515025	 1.3247903002	 0.086286
73.6263	206.8721	291.2325	310.9221	372.3035	409.1198	537.296	606.4137	693.0085	723.5861	768.4849	785.7017	812.675	833.2447	885.6629	931.2176	960.4832	974.5255	1002.1358	1010.6261	1020.6083	1034.2399	1055.4822	1080.3041	1104.4786	1135.363	1163.0306	1201.8695	1228.0597	1236.9786	1261.7955	1286.3957	1320.9851	1332.7175	1355.6105	1361.7155	1382.0354	1417.3657	1428.6869	1463.7604	1518.4793	2983.1594	3024.3427	3037.7381	3079.5184	3082.6414	3093.2229	3166.3329	3176.3264	3196.0416	3817.5039
OC1CC2OCC3C1C23	O[C@H]1C[C@H]2OC[C@H]3[C@@H]1[C@@H]23	
InChI=1S/C7H10O2/c8-4-1-5-7-3(2-9-5)6(4)7/h3-8H,1-2H2	InChI=1S/C7H10O2/c8-4-1-5-7-3(2-9-5)6(4)7/h3-8H,1-2H2/t3-,4-,5+,6-,7+/m0/s1
