23
gdb 63748	3.58807	1.04989	0.9553	2.0352	85.26	-0.2412	0.0603	0.3015	1345.1286	0.204568	-388.266742	-388.257308	-388.256364	-388.301175	36.095	
C	-0.2874019564	 1.5199101993	-0.0142181327	-0.440443
C	-0.0660421005	 0.0057172739	 0.0080102465	 0.361501
C	-1.381470452	-0.7406801045	-0.1889457904	-0.452811
C	 1.1145741254	-0.4309542801	-0.9195113468	-0.340755
C	 2.0461786287	-0.5110061106	 0.3128486714	 0.319835
C	 3.1513925736	-1.5700062365	 0.4671368177	-0.138952
O	 4.1722803595	-0.5635061861	 0.6230399032	-0.275866
C	 3.2045826213	 0.4954121617	 0.4886493296	-0.126453
C	 0.8010718506	-0.4452524228	 1.2284909704	-0.340743
H	 0.6500649594	 2.0691594647	 0.1262616731	 0.114655
H	-0.7180956892	 1.8394059392	-0.9701563625	 0.112709
H	-0.9739454584	 1.8277373442	 0.7828345252	 0.11271
H	-1.8438353501	-0.48117336	-1.1487552376	 0.112376
H	-1.2299290499	-1.8253572698	-0.1740488127	 0.107065
H	-2.0993564493	-0.4928279551	 0.6019828799	 0.112376
H	 0.9465378387	-1.4158704903	-1.3681153457	 0.0939
H	 1.4055143652	 0.2648203293	-1.7130454061	 0.095706
H	 3.0683265084	-2.2131936639	 1.3541475317	 0.09589
H	 3.3267158957	-2.2012403927	-0.4150124066	 0.095885
H	 3.4134585893	 1.134499002	-0.3803055353	 0.095901
H	 3.1550300104	 1.1229029604	 1.3891711468	 0.095907
H	 0.8517606933	 0.2395659696	 2.081074586	 0.095708
H	 0.5137063763	-1.4356104019	 1.5974805349	 0.093899
56.7314	61.8976	200.2334	226.5092	256.0038	299.9189	304.801	313.0661	361.2256	421.4178	432.6776	470.8873	682.057	814.7322	840.7894	859.7672	878.063	890.7061	916.6182	940.5407	961.5651	967.0258	991.5598	1003.9783	1037.3201	1040.1071	1103.668	1150.8116	1159.1386	1160.1187	1192.5167	1237.1848	1237.5228	1241.061	1280.0702	1305.8401	1309.4673	1314.6697	1384.4752	1403.4087	1421.1498	1468.2192	1482.8387	1483.5914	1493.8211	1503.1326	1505.7009	1506.5844	1532.247	2986.1624	2998.7705	3016.3402	3021.0927	3031.244	3033.7182	3035.4909	3039.7058	3081.3363	3084.3389	3086.7292	3089.4475	3090.9473	3092.1026
CC1(C)CC2(COC2)C1	CC1(C)CC2(COC2)C1	
InChI=1S/C8H14O/c1-7(2)3-8(4-7)5-9-6-8/h3-6H2,1-2H3	InChI=1S/C8H14O/c1-7(2)3-8(4-7)5-9-6-8/h3-6H2,1-2H3
