22
gdb 9377	4.92337	0.77608	0.69859	0.7563	85.19	-0.2565	0.0588	0.3154	1668.2686	0.197662	-313.050976	-313.040598	-313.039654	-313.08667	37.248	
C	-0.0173977595	 1.5709967518	-0.116172368	-0.380559
C	 0.0210950192	 0.0422516065	-0.0430567967	-0.16723
C	 0.6820225198	-0.4838167996	 1.2366056996	-0.171782
C	 0.7152358265	-2.0144362937	 1.3020015933	-0.173987
C	 1.4672809832	-2.5881550958	 2.5287300826	-0.161989
C	 0.7885166482	-2.2409275054	 3.8697552678	-0.385089
C	 1.6202604363	-4.0369376196	 2.3953207077	 0.319605
C	 1.7215867	-5.2298309443	 2.282002824	-0.46544
H	 0.9927165892	 1.9947182055	-0.0864490519	 0.113473
H	-0.4950081484	 1.9150149149	-1.0389111331	 0.11178
H	-0.576732021	 1.9944579661	 0.7256290794	 0.113265
H	-1.0006558612	-0.3542004776	-0.1103850512	 0.096168
H	 0.5566940811	-0.3539816133	-0.9158000643	 0.096154
H	 1.7080374019	-0.0938915006	 1.3005614058	 0.091397
H	 0.1476125004	-0.0774347109	 2.1045381477	 0.09739
H	-0.307711295	-2.4124494466	 1.3004342257	 0.102468
H	 1.1950195516	-2.4027532159	 0.3959695867	 0.104983
H	 2.4741631924	-2.1454724713	 2.5359747669	 0.102377
H	 1.3358198652	-2.6856059735	 4.7048013636	 0.125277
H	 0.75347626	-1.1591249034	 4.0227196079	 0.117235
H	-0.2351881842	-2.6276348763	 3.8927368484	 0.123687
H	 1.8234919344	-6.2818721172	 2.1825278282	 0.190816
51.1492	83.3565	100.2478	138.3595	180.3872	212.2879	244.7777	266.3261	304.3384	366.0452	416.2233	533.1552	556.065	623.5549	630.5082	735.8962	783.581	824.1445	904.5881	916.6377	926.3715	1015.725	1027.4445	1055.6032	1067.2433	1123.5234	1134.292	1190.0509	1243.4796	1269.9207	1309.4073	1329.1877	1333.6097	1344.8556	1375.5286	1396.9368	1407.4173	1412.4299	1480.6281	1486.077	1495.8577	1497.8643	1499.6093	1502.1537	1512.8438	2232.8973	2996.2175	3004.8652	3015.3709	3027.4495	3028.8595	3034.7633	3044.1453	3052.1407	3073.9937	3095.1549	3101.2374	3116.7711	3123.6921	3506.2434
CCCCC(C)C#C	CCCC[C@@H](C)C#C	
InChI=1S/C8H14/c1-4-6-7-8(3)5-2/h2,8H,4,6-7H2,1,3H3	InChI=1S/C8H14/c1-4-6-7-8(3)5-2/h2,8H,4,6-7H2,1,3H3/t8-/m0/s1
