17
gdb 131806	6.16294	0.65204	0.59618	4.0462	70.21	-0.2674	-0.0357	0.2318	1756.8348	0.134985	-455.117126	-455.108176	-455.107232	-455.15258	31.079	
O	 0.1678792867	 1.1633496995	-0.7684548406	-0.421597
C	 0.0060214909	 0.0450244336	 0.0877747412	-0.076469
C	-1.2896985058	-0.652300303	-0.3061078955	-0.176172
C	-1.5775611627	-1.8863019891	 0.5536730244	-0.317487
C	-2.8452325799	-2.5854083456	 0.1833181538	 0.256437
C	-3.7839881484	-2.3349852485	-0.767061787	-0.038499
O	-4.7409526874	-3.259962367	-0.6972885558	-0.167316
N	-4.3667707577	-4.1361725455	 0.3647487846	-0.005741
N	-3.2819287314	-3.7202833685	 0.8424107374	-0.179027
H	 0.9837048093	 1.6124666871	-0.5292359515	 0.288786
H	 0.8497980643	-0.6582241038	-0.0062880704	 0.08982
H	-0.0443288037	 0.3527741432	 1.1451867424	 0.089827
H	-2.1103593481	 0.069841041	-0.2207286875	 0.114559
H	-1.2228765287	-0.9335255399	-1.3637961504	 0.114537
H	-0.7472500955	-2.6003728117	 0.4781257202	 0.129391
H	-1.6285099645	-1.6038938151	 1.6132249766	 0.1294
H	-3.8924291975	-1.5737119266	-1.5212129619	 0.169551
31.884	82.6301	98.3063	112.5308	265.4004	270.7181	280.776	323.6793	495.0427	632.9223	640.1149	699.138	729.3259	762.0039	841.0942	881.574	985.6376	1021.7871	1045.9253	1053.02	1086.8283	1126.3783	1146.1533	1207.4713	1215.1818	1247.4318	1298.0381	1302.5884	1315.9782	1331.3658	1392.3381	1466.1878	1469.6071	1484.1568	1502.2741	1528.7621	1623.3115	2959.8622	2985.8232	3021.1612	3035.5589	3046.2021	3081.2014	3290.8348	3833.3311
OCCCC1=CON=N1	OCCCc1conn1	
InChI=1S/C5H8N2O2/c8-3-1-2-5-4-9-7-6-5/h4,8H,1-3H2	InChI=1S/C5H8N2O2/c8-3-1-2-5-4-9-7-6-5/h4,8H,1-3H2
