16
gdb 93309	2.11183	1.93019	1.2442	3.9513	64.66	-0.2574	-0.0093	0.2481	1007.4908	0.124919	-475.026207	-475.018199	-475.017255	-475.059228	29.69	
O	 0.0960780922	 1.4706080415	-0.0206657541	-0.419382
C	 0.025937059	 0.0545312023	 0.001260161	 0.004278
C	 0.5899374556	-0.5639362895	 1.2978074899	-0.118771
O	-0.535743986	-0.8443674108	 2.1495937036	-0.234894
C	-1.6893304893	-0.9151344596	 1.4251038863	 0.43621
O	-2.738652358	-1.2296236965	 1.9023545298	-0.341804
C	-1.3927386236	-0.4905556562	 0.009041949	 0.113388
C	-2.4755205635	 0.0138248166	-0.8730258779	-0.277334
N	-1.9612696513	-1.3443030678	-1.0579403702	-0.337761
H	-0.471302476	 1.8164616702	 0.6780256716	 0.290394
H	 0.5989502325	-0.27080581	-0.8711603206	 0.102674
H	 1.1257742086	-1.4997804123	 1.104486675	 0.125448
H	 1.2512851435	 0.1318821506	 1.8173270658	 0.133787
H	-3.4816406344	 0.061079721	-0.4676570945	 0.14992
H	-2.2056235	 0.789290129	-1.5842800349	 0.133863
H	-1.3104339794	-1.3615512686	-1.8412956599	 0.239985
50.086	154.3626	209.8492	245.2713	261.6513	297.3422	360.7423	479.2727	526.6845	582.2144	716.4461	729.7322	755.0659	862.4474	887.726	919.5062	956.5313	986.9433	1010.4552	1044.4206	1068.7168	1104.2302	1141.0008	1149.1168	1222.3152	1256.4543	1271.8478	1295.0728	1320.2212	1372.3213	1406.3102	1433.5387	1496.8173	1508.1725	1889.2731	3045.7937	3081.3225	3117.4648	3121.6516	3214.4973	3482.1303	3798.0837
OC1COC(=O)C11CN1	O[C@H]1COC(=O)[C@]21CN2	
InChI=1S/C5H7NO3/c7-3-1-9-4(8)5(3)2-6-5/h3,6-7H,1-2H2	InChI=1S/C5H7NO3/c7-3-1-9-4(8)5(3)2-6-5/h3,6-7H,1-2H2/t3-,5+/m0/s1
