19
gdb 68457	2.35613	1.9701	1.32667	2.593	74.27	-0.2261	-0.0169	0.2092	1007.7233	0.15966	-423.047011	-423.038964	-423.03802	-423.079475	31.35	
C	-0.2241367947	 1.50330656	 0.0837408479	-0.47973
C	 0.0142824937	 0.0190788195	-0.0030852949	 0.297695
C	 0.7186452522	-0.6207483784	-1.2293576161	-0.292407
C	-0.3373216065	-1.7200744032	-1.0119460626	 0.099309
C	 0.137761256	-2.7837652079	-0.0194865025	-0.233268
C	 0.428143941	-2.1100927375	 1.3477994232	-0.301409
C	 0.666379324	-0.6022821235	 1.2395531853	 0.370825
O	 1.305768903	 0.0324362688	 2.04270317	-0.322984
O	-1.1824923342	-0.7682128842	-0.2984462751	-0.329327
H	 0.7093957179	 2.0152187579	 0.3303060847	 0.141526
H	-0.6132276925	 1.8853413824	-0.8632897945	 0.118049
H	-0.9464617333	 1.726226682	 0.8748917121	 0.134771
H	 0.5425357761	-0.0355148772	-2.1341883826	 0.114323
H	 1.775715726	-0.8866995959	-1.1496502232	 0.109902
H	-0.8399796914	-2.1400247709	-1.8868156	 0.081616
H	-0.6280767165	-3.555918038	 0.0987637967	 0.111567
H	 1.0321737315	-3.2780622177	-0.4151694088	 0.108062
H	-0.4496093851	-2.2169041971	 1.9957160455	 0.145812
H	 1.2673787526	-2.5617541692	 1.8811153649	 0.125668
77.7449	159.4072	189.2332	258.9625	296.243	374.2374	406.8231	452.8856	496.7906	571.2587	609.7613	687.2374	775.8731	799.2552	832.933	864.596	914.7535	936.7047	965.048	986.3429	1022.2221	1052.8642	1084.5502	1119.0441	1129.7727	1176.8349	1227.8164	1230.8653	1250.8218	1280.9252	1316.1411	1326.0484	1348.7977	1370.7552	1406.186	1450.3793	1474.1538	1483.6394	1488.4841	1497.2002	1823.6758	3042.1792	3048.4442	3049.4874	3063.3238	3078.5738	3088.0274	3113.6628	3120.1808	3126.2109	3135.1039
CC12CC(CCC1=O)O2	C[C@@]12C[C@@H](CCC1=O)O2	
InChI=1S/C7H10O2/c1-7-4-5(9-7)2-3-6(7)8/h5H,2-4H2,1H3	InChI=1S/C7H10O2/c1-7-4-5(9-7)2-3-6(7)8/h5H,2-4H2,1H3/t5-,7-/m1/s1
