23
gdb 58267	2.74616	1.06824	0.8184	2.7809	81.39	-0.2376	0.0635	0.3011	1453.0428	0.204069	-425.405972	-425.395642	-425.394698	-425.441431	38.057	
C	 0.0401541049	 1.5759079406	 0.1012040569	-0.419122
C	-0.0260812389	 0.0492843971	 0.0354412855	 0.14035
O	 0.688333576	-0.5238011849	 1.132463331	-0.427056
C	-1.4601489514	-0.5158124939	-0.0592187044	-0.026776
C	-2.1831522907	-0.0237642171	-1.3236450093	-0.409224
C	-1.4450411927	-2.0440908652	-0.0189695411	 0.018571
C	-1.1576195602	-2.7898455539	 1.3015077876	-0.08805
O	-2.3295159182	-3.6181303393	 1.1360680119	-0.277345
C	-2.789747336	-2.8057332137	 0.0399931034	-0.103332
H	 1.0773474577	 1.8908738905	 0.2443818988	 0.12677
H	-0.3368083347	 2.0456804251	-0.8108941443	 0.123388
H	-0.5527584954	 1.9562572678	 0.9432822902	 0.107585
H	 0.5289974764	-0.2915193957	-0.8489687656	 0.087157
H	 0.3290282216	-0.1481487124	 1.9439299135	 0.277239
H	-2.0199254071	-0.1569666653	 0.8199380033	 0.059972
H	-1.6196865334	-0.2905489547	-2.2258161237	 0.117087
H	-3.1750069089	-0.4782534081	-1.4082239941	 0.122266
H	-2.3212478222	 1.0604025592	-1.3228567743	 0.118592
H	-0.8140685049	-2.4233338834	-0.8300965559	 0.07717
H	-0.2359287823	-3.3760968486	 1.3582759979	 0.109983
H	-1.2338568292	-2.1620058082	 2.199753785	 0.075994
H	-3.6479754697	-2.1791569018	 0.3290609854	 0.08791
H	-3.0712203409	-3.4068848442	-0.8322515777	 0.100871
57.7907	101.9256	116.0549	155.3279	207.3263	227.8735	276.5911	296.2941	305.3851	344.6306	369.0902	449.6335	480.5788	517.6871	729.5856	823.5202	874.7422	897.7493	926.8149	957.5435	981.576	998.1732	1016.2506	1031.0022	1058.4745	1082.8996	1109.5705	1126.3037	1157.7556	1169.3527	1174.1424	1208.9573	1256.064	1270.5375	1300.7552	1306.8249	1329.6924	1364.8846	1382.6054	1401.7621	1407.1286	1411.3126	1420.8277	1493.0316	1495.1199	1497.6914	1507.6856	1509.9366	1533.9956	2970.8753	2977.7812	3007.3673	3019.3215	3028.3261	3032.4977	3042.0474	3057.2504	3082.4439	3097.986	3100.0184	3113.4403	3126.3325	3799.9572
CC(O)C(C)C1COC1	C[C@@H](O)[C@@H](C)C1COC1	
InChI=1S/C7H14O2/c1-5(6(2)8)7-3-9-4-7/h5-8H,3-4H2,1-2H3	InChI=1S/C7H14O2/c1-5(6(2)8)7-3-9-4-7/h5-8H,3-4H2,1-2H3/t5-,6-/m1/s1
