17
gdb 9788	2.92783	1.83991	1.3414	3.5384	67.86	-0.2939	0.0135	0.3074	946.6177	0.140957	-363.860817	-363.852274	-363.851329	-363.893586	31.553	
C	-0.1768917106	 1.4970444851	 0.3030785525	-0.461162
C	 0.026156674	 0.0259648253	-0.0090058116	 0.316663
C	 1.4110439508	-0.4506943806	-0.3930350889	-0.313234
C	 0.8316556183	-0.807495763	 0.9549520153	-0.30852
C	-1.1772556543	-0.5860902836	-0.7244548616	-0.073295
O	-1.4339006927	 0.0327432947	-1.9743608807	-0.404564
C	-1.0584118339	-2.0517856457	-0.8928237599	 0.265035
N	-0.9524549126	-3.1919149525	-1.0492294086	-0.333252
H	 0.7238319451	 1.9254636884	 0.7510244518	 0.118809
H	-0.4128512725	 2.0617074503	-0.603221488	 0.132973
H	-1.0020819405	 1.6386283319	 1.0110415658	 0.121204
H	 1.5057888621	-1.2546818374	-1.1159187691	 0.131007
H	 2.2016885707	 0.289887629	-0.4406992465	 0.118906
H	 1.2201935023	-0.3037144141	 1.8332549789	 0.116831
H	 0.5496511094	-1.8413903979	 1.1181172448	 0.140564
H	-2.0791333221	-0.4007360242	-0.1282057073	 0.138242
H	-0.6303429633	-0.0404416657	-2.5037576569	 0.293791
70.5603	151.5418	196.7255	226.8822	249.8222	313.7268	337.4609	351.1071	386.5505	476.498	545.1272	607.7727	736.4031	794.7667	874.7719	882.5447	946.0824	956.8163	1001.5477	1039.9918	1065.9001	1071.3524	1094.1418	1126.3952	1191.9845	1254.49	1274.8633	1333.8191	1359.9947	1413.9807	1420.098	1467.2928	1487.7108	1500.4004	1510.5629	2353.4002	3032.1188	3046.0636	3097.8156	3119.6096	3132.1322	3138.9407	3214.0305	3228.5031	3790.8857
CC1(CC1)C(O)C#N	CC1(CC1)[C@@H](O)C#N	
InChI=1S/C6H9NO/c1-6(2-3-6)5(8)4-7/h5,8H,2-3H2,1H3	InChI=1S/C6H9NO/c1-6(2-3-6)5(8)4-7/h5,8H,2-3H2,1H3/t5-/m0/s1
