16
gdb 17092	4.72398	1.69824	1.60845	4.7431	68.12	-0.2522	0.0195	0.2716	831.9103	0.13398	-342.760541	-342.754326	-342.753381	-342.790836	24.625	
N	-0.0484294348	-1.1419389083	-0.0757159225	-0.327829
C	-0.0008618426	 0.0120374163	-0.0356668478	 0.291211
C	 0.0328194272	 1.4710768023	 0.0387573882	-0.11644
C	-0.5046039091	 2.0523997654	 1.4076243654	-0.250302
C	 0.7742035381	 2.8167272046	 1.7883129643	-0.022909
C	 1.1713912486	 3.4267207102	 0.4222067735	-0.177679
N	 1.4359861232	 1.9956050531	-0.019238918	-0.122408
C	 1.8622041578	 1.7762366847	 1.4258463681	-0.187508
H	-0.5216842531	 1.8668628403	-0.816205383	 0.127953
H	-1.3714500743	 2.7012751353	 1.2628068729	 0.114016
H	-0.7676743477	 1.2702155462	 2.1224303604	 0.128442
H	 0.7650135043	 3.3805223798	 2.7219609309	 0.075188
H	 0.4200910225	 3.9636407908	-0.1650918515	 0.104845
H	 2.110772993	 3.9818687698	 0.4336207475	 0.119289
H	 2.8846638818	 2.1330261433	 1.5593897018	 0.118932
H	 1.7676955049	 0.7486883062	 1.7864942797	 0.125198
135.7301	174.9811	337.8286	439.4389	496.1105	525.5085	574.9647	696.9205	809.6986	829.3613	849.424	859.2135	880.2727	934.6287	957.86	971.9635	1028.5838	1040.82	1056.7433	1093.713	1104.9808	1144.5301	1205.8755	1230.69	1248.3541	1261.9418	1263.9874	1302.4021	1313.3025	1361.7405	1499.6543	1501.6737	1538.7523	2360.6496	3056.2142	3069.9536	3071.5083	3078.9739	3110.7919	3125.113	3129.5036	3136.2663
N#CC1CC2CN1C2	N#C[C@H]1C[C@@H]2CN1C2	
InChI=1S/C6H8N2/c7-2-6-1-5-3-8(6)4-5/h5-6H,1,3-4H2	InChI=1S/C6H8N2/c7-2-6-1-5-3-8(6)4-5/h5-6H,1,3-4H2/t6-/m1/s1
