21
gdb 90457	3.60582	1.18294	1.14886	1.0262	78.64	-0.2372	0.0932	0.3304	1204.5206	0.180756	-424.218522	-424.209222	-424.208278	-424.252213	35.221	
C	-0.2763391896	 1.4490960721	-0.0467955996	-0.396754
C	 0.0608013084	-0.0342664275	-0.0095353146	 0.21003
O	 0.8650201527	-0.4252088861	-1.1209604274	-0.26829
C	 2.2037801977	-0.3827950611	-0.6872590788	 0.002383
C	 2.1582318121	-0.355529983	 0.8094217722	 0.002318
O	 0.7955342016	-0.3836762624	 1.1621799056	-0.268277
C	 2.7241950069	-1.5788500914	 0.0996370776	 0.246727
C	 1.9643432086	-2.8854392879	 0.1002768869	-0.451634
C	 4.2355653498	-1.7042878302	 0.1477982638	-0.455209
H	 0.6392464964	 2.0476219219	-0.0297906224	 0.12316
H	-0.8331296038	 1.6836711072	-0.9583721352	 0.124885
H	-0.8873213763	 1.7160449111	 0.820068493	 0.124883
H	-0.8456262182	-0.6495769114	-0.0259308776	 0.093984
H	 2.8634157711	 0.2239859692	-1.3000489001	 0.095968
H	 2.7800176272	 0.2738839277	 1.4387341587	 0.095972
H	 0.8863036955	-2.7284695091	 0.0647955625	 0.1357
H	 2.247067863	-3.4937869202	-0.7660785882	 0.114386
H	 2.1935057433	-3.4617033039	 1.0035970464	 0.11438
H	 4.554852462	-2.2328861519	 1.0531276982	 0.121444
H	 4.6088338029	-2.262664562	-0.7181574179	 0.121445
H	 4.7252188685	-0.7244592411	 0.146249557	 0.112497
88.3686	122.6533	167.6555	203.6522	240.3817	241.9261	259.6685	330.2037	377.797	439.7314	484.9356	546.3578	711.1307	750.5878	762.44	826.3644	844.9839	869.3823	901.3029	973.0348	985.6871	1019.6178	1063.9594	1066.1614	1089.1787	1092.4568	1100.2459	1129.828	1156.2286	1182.8882	1235.614	1283.5527	1319.45	1366.2072	1383.0231	1401.9622	1408.7028	1414.3249	1432.0054	1479.6616	1485.3565	1485.7398	1488.8263	1500.0132	1508.8285	3022.9019	3034.5521	3043.9686	3052.2865	3087.4874	3089.8395	3092.3707	3124.9181	3124.936	3145.366	3146.6702	3155.4257
CC1OC2C(O1)C2(C)C	C[C@H]1O[C@H]2[C@@H](O1)C2(C)C	
InChI=1S/C7H12O2/c1-4-8-5-6(9-4)7(5,2)3/h4-6H,1-3H3	InChI=1S/C7H12O2/c1-4-8-5-6(9-4)7(5,2)3/h4-6H,1-3H3/t4-,5-,6+
