17
gdb 127640	2.77477	1.53878	1.00217	1.7385	78.07	-0.2551	-0.0512	0.2039	1149.6646	0.136364	-418.056968	-418.0483	-418.047356	-418.090701	31.049	
C	 0.0474461674	 1.4498808605	 0.0054850036	-0.309527
N	-0.0223125522	-0.0022140297	 0.0640313698	-0.035904
N	-0.1310528699	-0.6906419944	-1.0757451172	-0.241932
C	-0.1732768141	-1.9785460043	-0.7171559666	-0.002767
C	-0.0908351495	-2.122495539	 0.6707256213	-0.312188
C	 0.0069010313	-0.8226548517	 1.1610404682	 0.29803
C	 0.120676887	-0.3271484794	 2.5407800012	 0.304843
C	 0.1391032082	-1.3765954712	 3.6380488794	-0.487275
O	 0.1962031121	 0.8616254436	 2.7959483669	-0.337392
H	 0.9772703302	 1.8071069309	 0.4506107219	 0.154109
H	-0.0016968776	 1.7182041903	-1.0491046097	 0.149601
H	-0.7830894066	 1.8960849192	 0.5547428561	 0.153805
H	-0.260964365	-2.7408986469	-1.4764634504	 0.12026
H	-0.0996596377	-3.0328628142	 1.2476776253	 0.113949
H	 0.9814333461	-2.0630032138	 3.5027395518	 0.144184
H	 0.2256643749	-0.8764621054	 4.6028864441	 0.144032
H	-0.7768990446	-1.9760966544	 3.6154862942	 0.144172
70.4242	129.597	132.1068	175.5571	201.6422	236.0959	327.8777	414.5574	503.1245	559.1372	636.6235	669.3976	704.3259	730.0158	809.2415	893.6065	941.8984	947.071	1041.7293	1043.9606	1062.7964	1118.8817	1152.3839	1211.1715	1273.6438	1331.9041	1353.3085	1379.871	1419.3923	1458.3954	1468.246	1475.3235	1478.2942	1482.0168	1494.9845	1550.5686	1759.9003	3042.9833	3070.7672	3106.7072	3142.5334	3156.9285	3174.146	3250.8702	3272.8601
CN1N=CC=C1C(C)=O	Cn1nccc1C(=O)C	
InChI=1S/C6H8N2O/c1-5(9)6-3-4-7-8(6)2/h3-4H,1-2H3	InChI=1S/C6H8N2O/c1-5(9)6-3-4-7-8(6)2/h3-4H,1-2H3
