18
gdb 81574	3.23291	1.20334	1.02536	3.8918	72.81	-0.2368	0.0277	0.2645	1182.6593	0.147825	-439.060499	-439.051815	-439.050871	-439.094588	32.535	
N	-0.0822080002	 1.3928777678	 0.0297641036	-0.527048
C	 0.1026809656	 0.0399986984	-0.0567689833	 0.371746
O	 1.2156423498	-0.4526893414	-0.1120349513	-0.365292
C	-1.1934919749	-0.7477918038	-0.0797212944	-0.079689
C	-1.8297955888	-1.1803626253	-1.452173549	-0.120279
C	-0.7044361078	-2.2430449624	-1.5819538257	-0.238767
C	-1.1567371752	-2.3060959914	-0.0911242392	-0.075453
C	-2.6065003716	-2.2652366668	-0.6345261031	 0.140855
O	-3.5987965836	-1.8872009318	 0.2856858651	-0.440789
H	 0.7318313291	 1.981687167	 0.0939728008	 0.25782
H	-0.9894367408	 1.8036768081	 0.1604388315	 0.256637
H	-1.9201485596	-0.3184377848	 0.6133498202	 0.089767
H	-2.2201821368	-0.5196257911	-2.2287790735	 0.068317
H	-0.9372421694	-3.1183827747	-2.1957541065	 0.085288
H	 0.3040811902	-1.8784009587	-1.7527673063	 0.14091
H	-0.766315496	-2.9515268019	 0.6948386208	 0.082586
H	-2.9109333471	-3.1458295883	-1.2150091582	 0.067996
H	-4.4236128529	-1.767772549	-0.1948390716	 0.285395
33.0223	119.0106	163.5777	185.3437	275.1604	289.7538	361.0889	413.8187	476.4794	561.9272	589.2571	657.9537	707.5986	765.3903	846.4354	866.7057	889.7804	903.6672	934.68	1005.186	1028.6982	1048.456	1057.498	1087.5424	1112.0694	1127.0498	1156.1573	1190.0966	1202.4835	1214.441	1238.164	1258.5764	1298.7122	1310.7082	1418.2992	1436.6126	1520.9138	1614.5888	1782.1453	3019.0414	3060.4028	3086.7825	3094.2624	3124.8722	3185.0384	3603.4813	3741.7141	3823.1398
NC(=O)C1C2CC1C2O	NC(=O)[C@H]1[C@H]2C[C@@H]1[C@H]2O	
InChI=1S/C6H9NO2/c7-6(9)4-2-1-3(4)5(2)8/h2-5,8H,1H2,(H2,7,9)	InChI=1S/C6H9NO2/c7-6(9)4-2-1-3(4)5(2)8/h2-5,8H,1H2,(H2,7,9)/t2-,3+,4+,5+
