20
gdb 116110	2.47966	1.29917	0.89735	2.7403	77.02	-0.261	0.0165	0.2775	1300.0523	0.172533	-440.307703	-440.298993	-440.298049	-440.341404	33.066	
O	 0.011115944	 1.4023920205	 0.0953575539	-0.423198
C	 0.0341159829	-0.0081540349	 0.0764033603	-0.065159
C	-1.3619964415	-0.6015706467	-0.071077258	 0.108159
C	-1.3900057377	-2.1230838102	-0.1241582752	-0.218052
C	-2.8377299816	-2.6180320519	-0.0719357379	-0.229291
C	-3.511738688	-2.0812639697	 1.1965281429	-0.258091
C	-3.3349076861	-0.5920815348	 1.3761145025	 0.378538
N	-4.2394288194	 0.1264306751	 1.8918451329	-0.493271
O	-2.1053385458	-0.0753186997	 1.0561485629	-0.28782
H	-0.6282614968	 1.6508269949	 0.7730085003	 0.290553
H	 0.6471997429	-0.3074304354	-0.7800985655	 0.11084
H	 0.4987432731	-0.4211903347	 0.986790691	 0.091706
H	-1.8224897453	-0.1900763211	-0.9813234454	 0.091561
H	-0.8909089254	-2.4527810687	-1.0417630284	 0.108604
H	-0.8226035484	-2.5320981595	 0.7219672908	 0.106111
H	-3.3784099958	-2.2680166761	-0.9603912701	 0.109906
H	-2.8790093427	-3.7112487986	-0.0853346525	 0.105874
H	-4.5801938795	-2.2985578595	 1.2279210753	 0.133055
H	-3.0564918995	-2.565929671	 2.0713665026	 0.125526
H	-3.9186881994	 1.094970172	 1.9619591574	 0.214447
90.4148	93.8928	129.7463	197.919	268.9515	363.0876	421.4992	424.3932	436.0925	475.3194	529.9115	546.8562	643.69	763.8186	859.427	888.8549	910.2516	928.5625	937.3176	970.0944	1048.8042	1069.4966	1098.5792	1103.9982	1115.3775	1123.4147	1188.2445	1217.1269	1239.5992	1281.9329	1307.1617	1316.8964	1359.3557	1375.3182	1380.507	1398.7424	1404.6165	1441.8962	1468.3836	1482.1912	1496.4613	1501.0011	1750.3344	2973.436	3003.6132	3020.142	3026.4287	3033.9745	3074.791	3082.3117	3085.7085	3125.484	3456.2662	3801.6694
OCC1CCCC(=N)O1	OC[C@H]1CCC[C]([NH])O1	
InChI=1S/C6H11NO2/c7-6-3-1-2-5(4-8)9-6/h5,7-8H,1-4H2	InChI=1S/C6H11NO2/c7-6-3-1-2-5(4-8)9-6/h5,7-8H,1-4H2/t5-/m1/s1
