19
gdb 126251	2.04283	1.49592	0.9485	2.6425	78.28	-0.2236	0.0306	0.2541	1282.3699	0.159734	-419.219523	-419.210077	-419.209133	-419.254882	33.372	
C	-0.4393434907	 1.341691497	 0.0663674081	-0.364288
C	 0.4339939896	 0.0770744291	 0.1253545057	-0.311347
C	 0.9389144676	-0.3616156375	-1.2175344129	 0.105678
C	 2.2512085989	-0.3958221764	-1.6505051859	 0.331353
N	 2.2416275088	-0.8323547563	-2.9389085073	-0.253258
N	 0.9955717634	-1.0803589213	-3.3926585528	-0.234576
C	 0.2141511334	-0.801616299	-2.3531574433	-0.077943
O	 3.4075401535	-0.0501854444	-1.0377486733	-0.268976
C	 4.0283319913	-1.098369168	-0.2870940124	-0.251943
H	 0.1215185182	 2.1832276627	-0.3513552698	 0.122539
H	-1.3195366357	 1.1842035199	-0.5649391409	 0.119185
H	-0.7877366812	 1.6233532607	 1.0652354796	 0.108851
H	 1.2926362213	 0.2637174764	 0.7801712246	 0.102611
H	-0.1402209118	-0.7325497494	 0.5941363818	 0.105353
H	 3.0314528004	-0.9211436464	-3.5558458146	 0.272232
H	-0.8559151434	-0.9235485582	-2.4493165932	 0.106279
H	 4.931473518	-0.6707991821	 0.1519791511	 0.137034
H	 3.3665044083	-1.4580684806	 0.5087363456	 0.130028
H	 4.29980267	-1.9411974362	-0.93442052	 0.121189
44.3693	59.5408	148.8183	160.2486	171.4157	200.2751	278.2794	340.8266	416.4514	486.1967	517.2478	631.4858	685.2256	701.1025	763.4575	791.6702	885.1502	940.0055	980.5072	1030.2613	1063.8423	1087.2077	1129.0117	1174.7445	1190.683	1223.8634	1241.5051	1282.5915	1300.599	1365.2116	1387.8614	1410.1674	1439.1155	1468.0835	1483.7159	1486.6661	1497.5806	1502.8581	1505.531	1526.9956	1641.8443	3016.1692	3019.4093	3035.7996	3060.9509	3083.6134	3105.9106	3112.5419	3137.2461	3231.0994	3670.3395
CCC1=C(NN=C1)OC	CCc1c([nH]nc1)OC	
InChI=1S/C6H10N2O/c1-3-5-4-7-8-6(5)9-2/h4H,3H2,1-2H3,(H,7,8)	InChI=1S/C6H10N2O/c1-3-5-4-7-8-6(5)9-2/h4H,3H2,1-2H3,(H,7,8)
