12
gdb 133465	3.53995	1.17405	1.04195	2.0127	52.38	-0.2496	-0.005	0.2446	1069.2305	0.074985	-567.019113	-567.011973	-567.011028	-567.052098	25.859	
F	 0.3264631118	 0.1107447424	 0.1073964589	-0.075983
C	-0.0325071348	 1.4025229562	 0.0115617071	 0.220189
F	 1.0909948843	 2.0937062183	-0.2465942839	-0.076024
F	-0.8362734191	 1.5215567151	-1.0564790584	-0.076151
C	-0.7051076959	 1.8826970042	 1.247405508	 0.074608
C	-1.9671313744	 2.379497212	 1.332304108	-0.087975
O	-2.2498418629	 2.7179413711	 2.6103109174	-0.142311
C	-1.1462330354	 2.4315020194	 3.3555314093	 0.014153
C	-0.1639071707	 1.9162724426	 2.5760128518	-0.299133
H	-2.7433845438	 2.5444688937	 0.6050200007	 0.163792
H	-1.2227886486	 2.6505794054	 4.4072421766	 0.150195
H	 0.8173859794	 1.5987130795	 2.8895032546	 0.134642
33.0273	143.3442	172.3102	371.1693	391.7105	410.5726	546.906	582.7273	624.2097	690.0386	740.0779	749.162	818.1335	839.5388	895.1963	954.7384	1043.9335	1103.7327	1153.1045	1171.6868	1179.7158	1216.6077	1262.2282	1365.3417	1418.9822	1542.2344	1640.5444	3266.6602	3291.0465	3295.8151
FC(F)(F)C1=COC=C1	FC(F)(F)c1cocc1	
InChI=1S/C5H3F3O/c6-5(7,8)4-1-2-9-3-4/h1-3H	InChI=1S/C5H3F3O/c6-5(7,8)4-1-2-9-3-4/h1-3H
