21
gdb 116557	3.07908	0.92514	0.82231	2.4891	83.27	-0.23	0.0266	0.2566	1519.2846	0.180825	-420.401063	-420.390655	-420.389711	-420.437486	37.319	
C	-0.3970914093	 1.3388388349	-0.2113505404	-0.366948
C	 0.7897082139	 0.4679009626	 0.1934199124	-0.131712
N	 1.5143697093	 0.0058951606	-0.9855401654	-0.34579
C	 2.2931044365	-0.98100657	-0.8661876096	 0.372344
N	 2.7071237447	-1.8443603731	 0.1388543972	-0.358803
C	 3.2044790919	-2.8715103655	-0.8120441259	 0.018169
C	 2.3259488037	-4.1007434389	-0.9710192343	-0.385247
C	 3.0384305788	-1.7756496406	-1.9310291296	 0.022225
O	 2.2835866582	-2.1140941763	-3.062544072	-0.430259
H	-0.0557864945	 2.1971206232	-0.7972183918	 0.124414
H	-1.0993416206	 0.7705367974	-0.8290263893	 0.115126
H	-0.9322674979	 1.7077527175	 0.6694791388	 0.104047
H	 1.4679150535	 1.0482382163	 0.8366700653	 0.104243
H	 0.4331314922	-0.3780875451	 0.806921631	 0.075248
H	 2.2320522162	-2.0214685197	 1.0135684624	 0.240994
H	 4.2414889367	-3.1553569112	-0.6047193563	 0.081251
H	 1.302375718	-3.820835439	-1.23275482	 0.124134
H	 2.7123627724	-4.7410334004	-1.7695271123	 0.133485
H	 2.3072426136	-4.6866033445	-0.0456667435	 0.11017
H	 3.9998235876	-1.3344750603	-2.2216046057	 0.09551
H	 1.5500701651	-1.4869818479	-3.092307991	 0.297397
24.2131	81.4721	111.9994	159.2539	200.8627	230.8532	246.7764	274.9841	292.9735	354.4247	396.0117	453.6639	525.5304	574.9517	684.0035	794.1202	804.6656	810.064	886.6132	903.1112	938.1188	1036.1709	1067.6697	1094.9422	1112.5884	1117.7618	1139.2644	1165.427	1209.2726	1214.8074	1289.0573	1300.7351	1348.7578	1365.7007	1379.9365	1386.3919	1395.4547	1410.5664	1413.2755	1479.9349	1486.0851	1488.0102	1490.6744	1505.1709	1809.476	2943.0887	3001.6417	3027.5556	3037.9069	3038.214	3051.1614	3106.8152	3109.2641	3116.3184	3126.1618	3583.8265	3775.3862
CCN=C1NC(C)C1O	CCN=C1N[C@@H](C)[C@H]1O	
InChI=1S/C6H12N2O/c1-3-7-6-5(9)4(2)8-6/h4-5,9H,3H2,1-2H3,(H,7,8)	InChI=1S/C6H12N2O/c1-3-7-6-5(9)4(2)8-6/h4-5,9H,3H2,1-2H3,(H,7,8)/t4-,5+/m0/s1
