21
gdb 70724	2.53717	1.56863	1.20803	1.1015	85.29	-0.2243	0.0255	0.2497	1126.0294	0.183568	-387.081717	-387.073399	-387.072455	-387.114118	33.201	
C	 0.2814818595	 1.3697244504	-0.2707496549	-0.455092
C	-0.0838517533	-0.0683404592	 0.0662729423	 0.262652
C	-0.8337757816	-0.2957430917	 1.3811463782	-0.345192
C	 0.6063505888	-0.6918188963	 1.2557057414	 0.06099
O	 0.9027672812	-2.0507713384	 1.2936147746	-0.248921
C	 1.750191366	-2.4738167994	 0.2333716964	-0.088386
C	 0.939740979	-3.0044533024	-0.9464176477	-0.251521
C	-0.0694840971	-2.0648374843	-1.5474625895	-0.053293
C	-0.4924490122	-0.8736691021	-1.1189347824	-0.120152
H	 1.1408781172	 1.4109715779	-0.9491940056	 0.118382
H	-0.5554006991	 1.880803585	-0.7611367742	 0.11746
H	 0.5332777982	 1.9384767494	 0.6297631552	 0.113404
H	-1.095038403	 0.5647669189	 1.9882862461	 0.106937
H	-1.5444787744	-1.1137322777	 1.4035566697	 0.12382
H	 1.3506141411	-0.0693510294	 1.7566473135	 0.07826
H	 2.4064897269	-1.6516940548	-0.0837808295	 0.095445
H	 2.3849272935	-3.2732261785	 0.6320278401	 0.10196
H	 1.6374141622	-3.3357364485	-1.7293929917	 0.101304
H	 0.4128020362	-3.9147766339	-0.6238629239	 0.117772
H	-0.5401399277	-2.450625202	-2.4509979822	 0.083772
H	-1.2517642617	-0.3775352232	-1.7252000556	 0.080399
110.3632	171.407	220.4144	256.0214	279.8236	326.2873	375.9133	415.9904	444.2776	490.24	575.9098	653.3789	755.7094	774.1185	813.2106	841.6121	886.7879	912.9991	921.549	976.6447	1009.8066	1021.3689	1042.2515	1056.9621	1076.0673	1110.4485	1119.1829	1122.9038	1191.1586	1241.9856	1246.1401	1266.3028	1306.5183	1352.1352	1388.1413	1397.1827	1410.0894	1423.4257	1443.0928	1458.8242	1478.4312	1489.61	1501.0972	1504.1352	1734.0063	2998.6155	3005.5195	3022.6311	3028.2102	3066.4334	3074.5364	3085.1081	3100.3795	3105.0631	3131.8966	3136.8521	3227.9444
CC12CC1OCCC=C2	C[C@]12C[C@H]1OCCC=C2	
InChI=1S/C8H12O/c1-8-4-2-3-5-9-7(8)6-8/h2,4,7H,3,5-6H2,1H3	InChI=1S/C8H12O/c1-8-4-2-3-5-9-7(8)6-8/h2,4,7H,3,5-6H2,1H3/t7-,8+/m1/s1
