14
gdb 26913	3.13208	1.48154	1.00999	3.8643	71.39	-0.2086	-0.0514	0.1572	1089.0646	0.10185	-470.029764	-470.021775	-470.020831	-470.06257	29.547	
N	 0.0651154576	 1.4641628913	-0.0505025937	-0.603982
C	 0.0092526055	 0.0442654138	-0.012569184	 0.017557
C	-1.132184472	-0.6926635618	-0.1015264098	 0.455688
O	-2.3481318759	-0.1541777524	-0.2045514905	-0.403743
O	-1.1363495038	-2.0216101463	-0.1428696465	-0.239129
C	 0.0759686189	-2.7554660554	 0.0036370883	 0.424506
N	-0.0934240472	-4.0072957349	 0.0504493118	-0.530883
N	 1.2515476665	-2.0418887079	 0.0590839785	-0.328829
C	 1.1976205505	-0.742423781	 0.0373574689	 0.024922
H	-0.7848501017	 1.8512526603	-0.4439852456	 0.250224
H	 0.1805874067	 1.8658685473	 0.8751362708	 0.247421
H	-2.9898322317	-0.8741302297	-0.282603385	 0.320452
H	 0.8213290076	-4.4460637507	 0.1381117968	 0.23703
H	 2.1463097091	-0.2055211429	 0.0624477699	 0.128766
74.0179	117.5476	189.4012	277.6432	300.958	360.0238	426.8274	455.1121	486.7488	538.1057	593.9169	704.8777	735.0188	756.4805	811.2437	834.1177	848.0011	904.1832	989.9573	1009.0376	1151.0046	1173.9371	1246.8011	1299.2544	1336.6659	1415.3328	1436.9869	1576.5735	1660.6086	1720.489	1753.4612	3133.8497	3498.5434	3526.0622	3588.4295	3775.9173
NC1=C(O)OC(=N)N=C1	NC1=CN=C(O[C@@H]1O)[NH]	
InChI=1S/C4H5N3O2/c5-2-1-7-4(6)9-3(2)8/h1,6,8H,5H2	InChI=1S/C4H6N3O2/c5-2-1-7-4(6)9-3(2)8/h1,3,6,8H,5H2/t3-/m0/s1
