17
gdb 66088	2.61001	1.23213	1.19021	3.4575	69.58	-0.2523	-0.0441	0.2082	1127.2793	0.132233	-458.952425	-458.943105	-458.942161	-458.987518	32.223	
C	-0.0343222958	 1.6952577049	-0.1336800879	-0.483523
C	-0.0256431234	 0.1711451078	-0.0202144315	 0.120441
C	 1.2044213917	-0.5562164215	-0.6443412036	-0.102687
O	 1.4951609321	-1.2206088257	 0.5934990114	-0.262198
C	 0.4671074229	-0.5124010279	 1.294218753	 0.00531
C	 0.9791977849	 0.4239709969	 2.364716433	 0.136625
O	 2.1364252928	 0.6910486169	 2.5504901988	-0.240857
C	-1.3316384464	-0.3993964229	-0.5340321194	 0.125498
O	-2.0506565446	-1.1514823741	 0.0694033405	-0.241956
H	 0.925059562	 2.1136144623	 0.1818232924	 0.153633
H	-0.207212655	 1.9972527088	-1.1726595818	 0.131044
H	-0.8235812978	 2.1437373614	 0.4782990627	 0.137764
H	 0.9945482009	-1.2622860056	-1.4571322773	 0.114941
H	 2.0099348144	 0.1225422557	-0.9509972223	 0.117773
H	-0.2872906617	-1.1834066485	 1.7273034332	 0.121505
H	 0.1653281962	 0.8711405793	 2.9834662597	 0.078527
H	-1.5878123032	-0.0606853378	-1.5648218609	 0.08816
52.1497	74.2879	85.9976	189.2902	218.1793	238.3145	273.8449	304.0724	330.0646	417.3514	564.3717	644.4682	767.5574	796.3922	885.6195	905.3133	934.002	961.2814	989.0352	1034.997	1040.707	1106.437	1155.4806	1170.9719	1193.0812	1221.5135	1284.9414	1334.1291	1368.6417	1407.1797	1416.3605	1422.1169	1494.0984	1497.8253	1522.4426	1828.2512	1839.1219	2851.833	2866.2617	3012.9365	3027.8597	3034.1201	3061.4413	3100.1122	3119.3163
CC1(COC1C=O)C=O	C[C@]1(CO[C@H]1C=O)C=O	
InChI=1S/C6H8O3/c1-6(3-8)4-9-5(6)2-7/h2-3,5H,4H2,1H3	InChI=1S/C6H8O3/c1-6(3-8)4-9-5(6)2-7/h2-3,5H,4H2,1H3/t5-,6+/m0/s1
