18
gdb 41214	3.95798	1.47338	1.44343	0.9938	78.74	-0.2197	0.0323	0.252	967.6077	0.147222	-401.717694	-401.710886	-401.709942	-401.748314	28.912	
C	 0.0818445639	 1.5864032467	-0.2820598019	-0.20139
C	 1.5777380157	 1.41152923	 0.1760056579	-0.318376
C	 1.0637554508	 0.1107709266	 0.8460558424	 0.221996
C	 0.9368545908	-1.4048691076	 0.9926198319	-0.302017
C	-0.5252411749	-0.7534875014	 1.1180166607	 0.217024
C	-1.3645216337	-1.3000252395	 2.2976224928	-0.185933
O	-0.364536084	-0.6385836836	 3.1715349632	-0.313595
C	-0.0043485284	 0.2546460232	 2.0499514211	 0.071619
N	-0.0818862963	 0.0776360933	-0.1504716853	-0.20964
H	-0.5006983491	 2.2264368689	 0.3872660163	 0.11404
H	-0.0897166866	 1.9013135892	-1.3129132318	 0.115073
H	 2.2533708077	 1.2442787072	-0.6652383682	 0.124951
H	 1.9901296189	 2.1660358777	 0.8478758673	 0.113211
H	 1.1099059413	-1.9714786324	 0.0781200893	 0.109372
H	 1.3056492484	-1.8868357863	 1.8965384496	 0.120319
H	-2.3540692231	-0.8499307766	 2.4343953753	 0.116902
H	-1.3972638952	-2.3820954641	 2.4513767982	 0.123218
H	-0.4837333962	 1.2238080384	 2.1880651314	 0.083225
221.3117	241.8572	292.3771	357.7193	367.1756	463.2622	477.8483	608.0446	667.1293	699.0881	764.2908	784.2267	809.912	824.524	852.0324	890.0959	919.3787	939.9704	960.0773	963.9266	1034.912	1039.4002	1099.3791	1105.0333	1114.8452	1133.6785	1148.128	1179.4695	1192.6208	1214.0649	1230.9822	1262.6331	1275.0529	1281.257	1352.2491	1469.4176	1477.3999	1497.3207	1506.5027	3036.2038	3051.8492	3075.5509	3094.4199	3102.2973	3109.0416	3115.4495	3140.3466	3179.1121
C1CC23CC4(COC24)N13	C1C[C@@]23C[C@]4(CO[C@@H]24)N13	
InChI=1S/C7H9NO/c1-2-8-6(1)3-7(8)4-9-5(6)7/h5H,1-4H2	InChI=1S/C7H9NO/c1-2-8-6(1)3-7(8)4-9-5(6)7/h5H,1-4H2/t5-,6+,7+/m0/s1
