18
gdb 90796	2.43879	2.00093	1.38983	2.9536	75.47	-0.2	-0.0017	0.1983	966.5684	0.149024	-401.931167	-401.923796	-401.922852	-401.962906	29.084	
C	-0.1303673315	 1.4906634975	-0.011368699	-0.328867
N	 0.0484077972	 0.0485978812	-0.0175825262	-0.049328
C	 0.7592917186	-0.484231755	-1.1915428235	-0.198645
C	 1.4765523181	-1.7154428765	-0.652161714	-0.05508
C	 1.0832768901	-1.9569090313	 0.7560650513	-0.076569
C	 2.5417317208	-1.5140225016	 0.4387899373	-0.209119
C	 2.2673290711	-0.2445635684	 1.1809259816	 0.437741
O	 2.9667122588	 0.5575114502	 1.7377923649	-0.341233
C	 0.7248997061	-0.5068264502	 1.1539730717	-0.15935
H	 0.8183678428	 2.0552673599	-0.0197346055	 0.114514
H	-0.7118524661	 1.7886557656	-0.8897709714	 0.120849
H	-0.6933432584	 1.7866179035	 0.8795100685	 0.122455
H	 0.0474892407	-0.7468261944	-1.9844193656	 0.107613
H	 1.4763984354	 0.2382656044	-1.613943055	 0.098482
H	 1.6644795508	-2.5556097064	-1.3109515628	 0.104163
H	 0.7498278134	-2.8764969226	 1.2128464702	 0.112309
H	 3.4569846216	-2.0929375959	 0.4411250946	 0.109163
H	 0.1861695005	-0.3073594199	 2.0813400729	 0.090902
116.5017	125.8187	236.5928	336.1925	346.0759	375.3918	454.3608	537.5277	627.0754	700.6658	736.074	786.5829	839.9043	843.5857	874.8846	905.272	947.6762	960.2918	1019.2483	1031.1371	1037.8563	1072.628	1105.3288	1118.7228	1152.2212	1174.1135	1182.7045	1221.4071	1240.0321	1249.7723	1295.0047	1318.5172	1364.8684	1389.0671	1461.1367	1488.88	1506.35	1522.2155	1864.652	2956.5186	2969.6367	3032.1607	3061.7796	3102.4629	3111.6299	3181.6211	3198.3431	3233.6533
CN1CC2C3C2C(=O)C13	CN1C[C@@H]2[C@H]3[C@@H]2C(=O)[C@@H]13	
InChI=1S/C7H9NO/c1-8-2-3-4-5(3)7(9)6(4)8/h3-6H,2H2,1H3	InChI=1S/C7H9NO/c1-8-2-3-4-5(3)7(9)6(4)8/h3-6H,2H2,1H3/t3-,4+,5-,6+/m1/s1
