18
gdb 34411	2.64855	1.5294	1.2842	4.4822	75.67	-0.244	0.0214	0.2654	1040.623	0.151198	-398.121075	-398.113483	-398.112538	-398.153113	29.802	
N	-0.0169185055	-1.1515284651	-0.3495078142	-0.350346
C	-0.0262514174	-0.0111906222	-0.1561068745	 0.252795
C	-0.0033123466	 1.4336338406	 0.060007897	 0.170348
C	-0.8057305034	 2.2072108586	-1.0072328712	-0.277817
C	-0.0151518842	 3.5271772766	-1.1871695819	-0.192414
N	 1.4000196268	 3.2011783702	-0.9528283882	-0.272483
C	 1.4116896154	 2.174207875	 0.0666622861	-0.061519
C	 1.0316170488	 2.6624528681	 1.488634702	-0.168719
N	-0.1847489323	 1.8147345945	 1.4766965937	-0.349136
H	-0.8113843569	 1.636523082	-1.9414573249	 0.123103
H	-1.8470211542	 2.3574266811	-0.7061221502	 0.114751
H	-0.1484166067	 3.9731683356	-2.1749354498	 0.116627
H	-0.3409606182	 4.2709780995	-0.4512701042	 0.115765
H	 1.8119069261	 2.8369702173	-1.8059556034	 0.22915
H	 2.3006912249	 1.5483941803	 0.0049974655	 0.101437
H	 1.7313974407	 2.3920739342	 2.2856074692	 0.11607
H	 0.8599873513	 3.7438542739	 1.5265686712	 0.109193
H	-1.0618681187	 2.2762630098	 1.6885667178	 0.223197
107.0797	149.7229	196.3821	251.9534	356.3439	410.8183	509.0065	544.1788	569.6559	579.2916	649.1943	714.8027	795.0809	827.1675	850.8793	892.7472	931.8989	966.8929	999.1424	1014.6018	1039.9377	1054.8996	1096.1556	1142.2208	1149.5437	1183.1753	1214.0686	1231.2743	1245.8416	1311.5264	1335.1352	1350.9788	1371.7759	1387.7771	1467.7351	1482.3671	1504.9688	1523.8763	2345.9065	3033.4655	3044.4915	3051.9014	3077.9884	3097.7457	3113.6743	3131.2547	3521.5701	3540.0959
N#CC12CCNC1CN2	N#C[C@]12CCN[C@H]1CN2	
InChI=1S/C6H9N3/c7-4-6-1-2-8-5(6)3-9-6/h5,8-9H,1-3H2	InChI=1S/C6H9N3/c7-4-6-1-2-8-5(6)3-9-6/h5,8-9H,1-3H2/t5-,6+/m0/s1
