18
gdb 47447	2.79511	1.34078	1.00852	3.3064	71.34	-0.2506	0.0049	0.2555	1178.9185	0.14959	-439.099645	-439.091577	-439.090632	-439.133192	29.67	
O	-0.1381614429	-0.0383810717	-0.3299395981	-0.340237
C	-0.028951313	 1.1489137879	-0.2354236839	 0.43771
O	-1.1025912464	 1.9820874728	-0.1943074067	-0.216153
C	-0.6939567959	 3.350028877	-0.0256553065	-0.079242
C	 0.7884942944	 3.3992065976	-0.4312601836	-0.261162
C	 1.2648425212	 1.9699621297	-0.1240922427	-0.177767
C	 1.8698066295	 1.7989358369	 1.2585277235	 0.02802
C	 2.7232228649	 0.6277916503	 1.5590682418	-0.237427
N	 3.3144524649	 1.9780329582	 1.4689348877	-0.330862
H	-1.3400333735	 3.9700275296	-0.6502496092	 0.128487
H	-0.8479058227	 3.6322275131	 1.0221232965	 0.122424
H	 0.8772349706	 3.6082251476	-1.5009610014	 0.119784
H	 1.3428172721	 4.1667859759	 0.1127729761	 0.125867
H	 1.9711206965	 1.5872657653	-0.8664522118	 0.099896
H	 1.2687325305	 2.214091246	 2.0665508711	 0.098036
H	 2.7222314313	 0.1933565657	 2.5539236416	 0.126368
H	 2.9028420561	-0.0809842617	 0.7555734487	 0.12718
H	 3.7851068726	 2.0862518397	 0.5728663368	 0.229078
65.7071	79.8815	154.28	184.4731	273.7948	322.5953	400.8228	525.287	660.8116	683.307	696.0644	792.9297	839.274	880.2692	891.5051	921.49	959.5198	963.5092	1005.2614	1034.9079	1068.2096	1093.4766	1131.2204	1160.2001	1172.8126	1190.2856	1221.223	1244.8249	1253.0167	1269.8763	1283.8929	1320.709	1339.7153	1402.1253	1426.4462	1493.099	1517.3226	1525.5765	1879.1569	3041.8376	3061.3256	3073.2214	3108.322	3114.1352	3119.4662	3122.55	3204.9387	3487.7232
O=C1OCCC1C1CN1	O=C1OCC[C@H]1[C@H]1CN1	
InChI=1S/C6H9NO2/c8-6-4(1-2-9-6)5-3-7-5/h4-5,7H,1-3H2	InChI=1S/C6H9NO2/c8-6-4(1-2-9-6)5-3-7-5/h4-5,7H,1-3H2/t4-,5+/m0/s1
