25
gdb 104071	3.31431	0.97253	0.93541	0.2591	94.71	-0.2244	0.0359	0.2603	1459.9975	0.228144	-352.389175	-352.378984	-352.37804	-352.42375	39.315	
C	-0.0450626288	 1.5211962723	 0.1812169761	-0.393765
C	 0.0024865415	 0.0034385194	-0.0282536892	-0.223523
C	 0.7354868619	-0.4775132934	-1.295483763	 0.34042
C	 0.065025732	 0.0666077898	-2.5697863593	-0.430785
C	 2.2513913099	-0.0930040482	-1.3064461036	-0.291046
C	 2.9328662858	-1.3147819462	-1.8655932982	-0.168661
C	 2.1303404601	-2.3800695627	-1.9050828235	 0.340824
C	 2.475419976	-3.7638857021	-2.357120453	-0.493364
C	 0.757075474	-2.0361782561	-1.3715542052	-0.348221
H	 0.9597786777	 1.9561327057	 0.2065585188	 0.117005
H	-0.6060098785	 2.0270485239	-0.6104277098	 0.11706
H	-0.5318121695	 1.7632748233	 1.1313132465	 0.110047
H	 0.4858310063	-0.4593076763	 0.8423734837	 0.089086
H	-1.0238149475	-0.3884160703	-0.0461845631	 0.088949
H	 0.117002036	 1.1583797234	-2.6232795309	 0.110613
H	 0.5609665688	-0.3313073045	-3.4614140445	 0.114828
H	-0.9909745343	-0.2238950634	-2.6139412858	 0.105185
H	 2.4421201516	 0.8107192494	-1.8984534863	 0.094167
H	 2.6178887893	 0.1265724813	-0.292543714	 0.095516
H	 3.9761287788	-1.3172233455	-2.1661910281	 0.078447
H	 3.5142980064	-3.8332642625	-2.6917840841	 0.120339
H	 2.3297091266	-4.4934352268	-1.5495874882	 0.122002
H	 1.8283643041	-4.0858741205	-3.1833518202	 0.121743
H	 0.6090505582	-2.491277282	-0.3806166648	 0.092837
H	-0.0510817664	-2.4258548979	-2.0049208606	 0.090297
70.177	109.7487	169.1437	192.6109	231.6647	240.2152	290.5554	299.2265	333.7118	352.3592	408.1566	437.3589	450.2523	578.699	642.2943	770.3779	789.0995	820.9624	874.3099	909.5213	924.7465	932.9055	950.2687	990.2229	1017.4678	1022.8741	1037.1795	1057.8519	1077.7411	1140.2997	1153.1238	1182.6273	1200.7774	1225.5203	1274.7435	1292.5001	1326.8292	1330.0398	1353.308	1369.993	1405.2055	1413.8689	1415.2947	1478.703	1479.3408	1481.5023	1488.8423	1490.3633	1497.8314	1499.4581	1507.4376	1512.1871	1727.7916	2990.7149	2992.9109	3007.2961	3013.6462	3025.1398	3028.6868	3035.0436	3037.7477	3040.727	3057.4453	3092.2888	3099.5534	3100.602	3106.7213	3109.0729	3176.6324
CCC1(C)CC=C(C)C1	CC[C@@]1(C)CC=C(C)C1	
InChI=1S/C9H16/c1-4-9(3)6-5-8(2)7-9/h5H,4,6-7H2,1-3H3	InChI=1S/C9H16/c1-4-9(3)6-5-8(2)7-9/h5H,4,6-7H2,1-3H3/t9-/m0/s1
