19
gdb 91076	3.55055	1.29284	1.21003	2.7634	73.69	-0.251	0.072	0.3231	1080.9524	0.160739	-422.991482	-422.984066	-422.983121	-423.023241	30.028	
O	-0.0248008397	 1.4231729075	-0.048807293	-0.4328
C	 0.0023767523	 0.0111922778	 0.0488492705	 0.146198
C	 0.6030285797	-0.5361699113	 1.3669982811	-0.273179
C	 0.022119168	-1.9528459131	 1.4704561736	-0.049298
C	-0.8447153147	-2.3300149958	 2.6907219827	 0.012439
O	-1.8301192802	-1.3036292587	 2.8546406935	-0.23699
C	-2.0753253775	-2.3272553704	 1.8829492892	 0.012222
C	-1.2996025249	-1.9513838327	 0.6025396009	-0.051609
C	-1.436054405	-0.5376282145	 0.0224804646	-0.240868
H	 0.8831831806	 1.7401058493	-0.0774222711	 0.280538
H	 0.5621187738	-0.4176107035	-0.8004985289	 0.05852
H	 1.6971548146	-0.5085567388	 1.3722878078	 0.083488
H	 0.2345514423	 0.0896653532	 2.1856970866	 0.121485
H	 0.7213380416	-2.7453261047	 1.1955817438	 0.07322
H	-0.5734362156	-2.8947952662	 3.5756727277	 0.100889
H	-2.9966396243	-2.8895691176	 1.985926313	 0.101313
H	-1.3270166733	-2.7455110503	-0.1466609242	 0.073422
H	-2.0430950991	 0.0921107609	 0.6801425187	 0.124607
H	-1.8698958185	-0.5084477311	-0.9797461764	 0.096404
105.5449	168.9971	266.2362	286.5754	328.7868	450.3636	459.2126	512.5177	616.426	639.9984	704.2944	818.5798	832.3427	852.3096	865.6669	876.3159	921.2776	947.7956	984.7116	1020.256	1032.4153	1045.5552	1057.2222	1079.0361	1111.0835	1151.6333	1159.9439	1214.1451	1231.4078	1236.4569	1263.3881	1269.9576	1287.4668	1303.7532	1329.633	1336.3558	1374.0859	1389.6356	1431.6444	1477.2633	1492.7783	2945.7672	3047.4551	3061.2872	3079.2848	3089.1408	3103.3067	3114.9796	3172.5835	3188.202	3821.0125
OC1CC2C3OC3C2C1	O[C@H]1C[C@H]2[C@H]3O[C@H]3[C@H]2C1	
InChI=1S/C7H10O2/c8-3-1-4-5(2-3)7-6(4)9-7/h3-8H,1-2H2	InChI=1S/C7H10O2/c8-3-1-4-5(2-3)7-6(4)9-7/h3-8H,1-2H2/t3-,4+,5-,6+,7-
