18
gdb 105935	3.71334	1.43765	1.34329	2.144	73.66	-0.2341	0.0716	0.3057	1002.0095	0.149417	-401.859064	-401.852052	-401.851108	-401.890656	28.236	
O	 0.1273299082	 1.133610254	-0.628099199	-0.41703
C	-0.0414228723	 0.0682048718	 0.2931472163	-0.193404
C	-1.4552878058	-0.4115491468	 0.3260417406	 0.336975
C	-1.9254333005	-1.8181059918	 0.4638914343	-0.102317
C	-3.3973215489	-1.6039420883	 0.8744235804	-0.078497
C	-3.4179570353	-0.3932792496	 1.8429337255	-0.251497
C	-2.7459017228	 0.3673934913	 0.6720871604	-0.125496
C	-3.3874573903	-0.6276189586	-0.3476674456	 0.026171
N	-2.0366281128	-1.1303503901	-0.8708077232	-0.233953
H	-0.2203527693	 0.8147650039	-1.4696072122	 0.291144
H	 0.622150299	-0.7794408794	 0.0574483567	 0.093138
H	 0.255408689	 0.458276162	 1.2735202652	 0.112611
H	-1.281938733	-2.6773023778	 0.6117307784	 0.096171
H	-4.0515093443	-2.4671322105	 0.9753528126	 0.077897
H	-4.4377212905	-0.0392521741	 2.0247003403	 0.10318
H	-2.8768871326	-0.4746765764	 2.7906644793	 0.097815
H	-2.7433282935	 1.4501765867	 0.5726489343	 0.085352
H	-4.2082659845	-0.4279125464	-1.0328032143	 0.08174
80.5408	149.8396	251.7004	358.2121	418.2621	440.1809	588.296	655.4986	737.0199	741.9787	807.5569	817.5371	857.8971	861.935	868.052	904.0786	949.9998	963.0434	976.5129	989.4145	1001.1959	1061.816	1069.9004	1079.7812	1107.6887	1167.6723	1179.8137	1197.5026	1215.9343	1219.9128	1233.6867	1255.4421	1283.8954	1308.9254	1370.0051	1407.5083	1442.1495	1484.9078	1488.8214	2976.2588	3044.5683	3063.8193	3102.4036	3135.172	3143.845	3151.8761	3184.6624	3789.9625
OCC12C3C4CC1C4N23	OC[C@@]12[C@H]3[C@H]4C[C@@H]1[C@H]4N23	
InChI=1S/C7H9NO/c9-2-7-4-1-3-5(4)8(7)6(3)7/h3-6,9H,1-2H2	InChI=1S/C7H9NO/c9-2-7-4-1-3-5(4)8(7)6(3)7/h3-6,9H,1-2H2/t3-,4+,5-,6+,7-,8?/m0/s1
