21
gdb 113394	2.92555	0.91504	0.79216	2.8438	75.91	-0.2471	0.0564	0.3035	1487.6317	0.180981	-461.3279	-461.317478	-461.316534	-461.363463	37.934	
O	-0.2492782522	 1.3694057096	-0.6043008209	-0.418702
C	-0.0325438248	 0.1106422033	 0.0217888087	-0.110077
C	-1.3592379942	-0.6050584067	 0.0527828227	-0.047454
C	-1.8169203084	-1.4716300657	-1.0906339236	-0.304234
C	-1.5038059421	-2.1027833675	 0.2460147448	 0.297156
C	-0.2939662023	-3.0220505626	 0.3538058861	-0.128464
O	-0.4861251002	-4.2601029251	-0.3035876827	-0.429797
C	-2.672681931	-2.5402331365	 1.1001483491	-0.155759
O	-3.0802663742	-3.8507762267	 0.6854283145	-0.422659
H	 0.5818544969	 1.8534496307	-0.5937916605	 0.285629
H	 0.713604822	-0.478507821	-0.5306816312	 0.089317
H	 0.3480862935	 0.2435993686	 1.0479571377	 0.08563
H	-2.1289416793	-0.0024131182	 0.5302019337	 0.086922
H	-2.8520837568	-1.4135493824	-1.4090705553	 0.113065
H	-1.1138644879	-1.6568642309	-1.8961070032	 0.121809
H	 0.585777666	-2.565315618	-0.108391328	 0.096195
H	-0.0533213452	-3.1705975372	 1.4220794425	 0.073253
H	-1.370790601	-4.5588693435	-0.0535097113	 0.288994
H	-2.3736029472	-2.5556813585	 2.1597326491	 0.093487
H	-3.5071026705	-1.8313467207	 0.9964847949	 0.092361
H	-3.6595796312	-4.2202559307	 1.3582573929	 0.293329
70.0092	89.0836	126.7546	145.0324	200.3842	235.8449	259.8224	269.0796	325.7437	340.9344	378.3555	395.8527	474.5485	531.739	633.6931	745.4185	858.6999	887.1071	935.005	955.0028	973.574	993.5724	1032.0854	1057.5951	1065.3053	1080.1388	1096.9041	1115.8621	1169.0485	1211.6317	1236.2393	1247.7278	1260.7376	1274.1514	1311.0272	1349.9985	1376.4692	1413.9061	1453.7776	1468.7726	1479.5549	1500.6078	1504.3905	1517.93	1526.2618	2936.8335	2963.7017	2976.3341	3006.4035	3014.5256	3080.4728	3131.0786	3133.1849	3216.1573	3749.302	3825.761	3832.502
OCC1CC1(CO)CO	OC[C@H]1CC1(CO)CO	
InChI=1S/C6H12O3/c7-2-5-1-6(5,3-8)4-9/h5,7-9H,1-4H2	InChI=1S/C6H12O3/c7-2-5-1-6(5,3-8)4-9/h5,7-9H,1-4H2/t5-/m1/s1
