25
gdb 103924	3.01849	1.09962	1.02115	0.2387	93.06	-0.2401	0.0847	0.3248	1367.865	0.22769	-352.344194	-352.334141	-352.333196	-352.378347	39.376	
C	-0.1454618238	 1.541741934	-0.0665821031	-0.387217
C	 0.1242252409	 0.0320130118	-0.0789071058	-0.231346
C	 0.7432120418	-0.5258911459	 1.2104528505	 0.361733
C	 2.1301705997	 0.066090259	 1.4765009888	-0.448919
C	-0.1465528121	-0.4920326725	 2.5105591727	-0.349081
C	 0.0050052623	-2.0160849854	 2.6496868038	 0.385082
C	 0.2299356134	-2.7349416053	 3.9491482664	-0.498998
C	-0.5819356292	-2.6746810667	 1.4328411776	-0.349915
C	 0.7917200705	-2.064118385	 1.3359294589	-0.134195
H	 0.777582308	 2.1242554017	 0.0107345949	 0.115982
H	-0.6522453815	 1.8527120878	-0.9855790844	 0.110106
H	-0.7867809736	 1.8241153026	 0.7756716607	 0.115976
H	-0.8181925716	-0.4903405474	-0.2790153603	 0.090773
H	 0.788149025	-0.2137178328	-0.919290057	 0.088959
H	 2.0851936212	 1.1469963542	 1.6431510284	 0.112666
H	 2.5835569837	-0.3878188366	 2.3639652437	 0.110569
H	 2.8030869576	-0.1166615142	 0.629838581	 0.107414
H	 0.3228773197	 0.0708322162	 3.3221378365	 0.094212
H	-1.1748417788	-0.1321477078	 2.3910325963	 0.086251
H	-0.6751533888	-2.7293779271	 4.5696439992	 0.116652
H	 0.5054387837	-3.7815051294	 3.780403589	 0.114621
H	 1.0315788584	-2.2681103472	 4.5335284942	 0.112964
H	-0.5936411081	-3.760689222	 1.4555207024	 0.104055
H	-1.4342605881	-2.239950262	 0.9155081141	 0.100284
H	 1.6593724197	-2.6669247001	 1.0851033516	 0.071371
89.4971	128.1827	159.2418	205.5173	227.0889	250.7674	295.2125	312.2106	333.3518	363.0643	420.031	429.5686	493.3643	576.1228	669.0777	779.4234	795.0306	813.4931	874.4552	888.1067	932.858	948.9192	973.424	982.1208	1000.997	1015.4654	1022.8974	1063.9776	1066.9982	1080.9184	1096.3441	1144.7852	1186.3274	1198.1019	1234.0873	1264.8602	1277.8144	1293.5017	1332.3335	1369.8092	1391.9179	1406.5989	1412.8177	1424.1944	1478.1248	1481.3501	1486.1706	1491.6202	1497.8107	1499.3983	1503.5348	1509.4237	1510.9925	3013.0467	3015.341	3022.8954	3032.0233	3034.9952	3055.4744	3071.6853	3085.2465	3090.5052	3092.4913	3097.8873	3098.8385	3102.5745	3108.2583	3152.3862	3187.4712
CCC1(C)CC2(C)CC12	CC[C@@]1(C)C[C@@]2(C)C[C@@H]12	
InChI=1S/C9H16/c1-4-8(2)6-9(3)5-7(8)9/h7H,4-6H2,1-3H3	InChI=1S/C9H16/c1-4-8(2)6-9(3)5-7(8)9/h7H,4-6H2,1-3H3/t7-,8-,9+/m0/s1
