17
gdb 55839	4.46397	0.8929	0.77865	1.3937	71.03	-0.2485	0.0136	0.262	1407.359	0.136048	-455.1831	-455.174331	-455.173387	-455.217674	32.085	
N	 0.0885903508	 0.4885860335	-0.8808454485	-0.508867
C	 0.0171046554	 0.0788530989	 0.4163248663	 0.368709
O	 0.6967390291	 0.5522672974	 1.3050449659	-0.354563
C	-1.0280118585	-1.012900986	 0.6840665532	-0.309898
C	-0.9167524518	-2.2368158944	-0.2079674887	 0.116101
C	-2.0666400156	-3.2670298842	-0.1644875291	-0.382672
C	-2.2961076706	-2.8577625405	-1.6028639723	 0.444632
N	-3.0996354148	-3.1872972801	-2.5031385793	-0.530735
O	-1.2548496064	-1.9412549253	-1.6163283798	-0.274232
H	 0.79127597	 1.1685041328	-1.1212701628	 0.259924
H	-0.4096004895	 0.0052942853	-1.6112308175	 0.273055
H	-0.9007180352	-1.3153270091	 1.7264794739	 0.139723
H	-2.0316947588	-0.5830049548	 0.5770475904	 0.127313
H	 0.0854571839	-2.6724394105	-0.1693458134	 0.111031
H	-1.7742296768	-4.3088823567	-0.0275488602	 0.145803
H	-2.8876972882	-3.0260081827	 0.513374986	 0.143486
H	-2.9286814731	-2.6748279435	-3.3697009542	 0.231189
38.3649	79.0764	115.0969	172.454	305.0363	343.0982	363.1324	449.3763	479.859	498.9722	552.8585	598.1614	702.3709	732.8235	836.0541	864.0226	868.6312	882.3155	945.7021	974.8498	1010.6597	1042.2659	1091.5102	1118.6966	1144.3312	1212.8212	1231.94	1243.7639	1282.1937	1340.9922	1366.709	1395.2977	1457.4722	1465.3653	1626.0224	1806.1476	1832.8602	3039.6979	3077.8583	3088.89	3115.1065	3144.5886	3481.4544	3580.0913	3719.3721
NC(=O)CC1CC(=N)O1	NC(=O)C[C@H]1C[C]([NH])O1	
InChI=1S/C5H8N2O2/c6-4(8)1-3-2-5(7)9-3/h3,7H,1-2H2,(H2,6,8)	InChI=1S/C5H8N2O2/c6-4(8)1-3-2-5(7)9-3/h3,7H,1-2H2,(H2,6,8)/t3-/m0/s1
