18
gdb 13992	5.5707	1.09431	1.02434	1.7075	67.94	-0.2472	0.077	0.3242	1170.1396	0.153015	-384.898349	-384.890197	-384.889253	-384.931416	29.966	
O	 0.1269744795	 1.4390290541	 0.1590195767	-0.417251
C	 0.0463931978	 0.02353592	 0.1438630932	-0.059724
C	-1.3624975396	-0.4801791497	-0.2010477729	-0.336605
C	-1.4356175155	-1.972965857	-0.271617177	 0.433551
C	-0.8667236514	-2.9235686941	-1.3466591584	-0.288465
C	-2.0022368566	-3.9432562419	-0.9822798301	-0.236548
C	-2.4916438436	-2.9436477316	 0.073354021	-0.047843
O	-1.3953985759	-2.7063640823	 0.9672301962	-0.294359
H	-0.4105975941	 1.7559456616	 0.8918310214	 0.282168
H	 0.758805545	-0.3052310249	-0.620395997	 0.115135
H	 0.3686163185	-0.4138211518	 1.1001325905	 0.108286
H	-2.0705227617	-0.1297395255	 0.5606478415	 0.099097
H	-1.6675883173	-0.0444007699	-1.15964383	 0.110462
H	-0.9644602106	-2.5338522732	-2.3630364602	 0.1067
H	 0.1619868414	-3.2502965188	-1.1782419386	 0.109505
H	-2.7108965339	-4.0911661351	-1.8005788535	 0.105684
H	-1.6893364482	-4.9133393847	-0.5894306061	 0.11199
H	-3.4902621339	-2.7961350553	 0.4706136433	 0.098216
67.9699	96.8052	123.8485	248.2561	296.9745	329.5817	355.1456	416.8632	493.6544	718.3615	727.1459	771.7878	784.9533	875.3529	919.1467	923.9061	958.1747	984.6653	1014.9513	1041.3269	1070.7466	1087.4763	1126.9995	1157.4809	1212.4041	1218.0182	1221.7005	1254.3252	1280.8952	1309.0209	1324.5652	1396.3591	1419.7816	1450.397	1463.4575	1473.8962	1493.6934	1512.6459	3001.2886	3025.5601	3062.4299	3063.117	3070.2873	3084.6289	3113.8384	3130.3417	3176.148	3815.6365
OCCC12CCC1O2	OCC[C@]12CC[C@H]1O2	
InChI=1S/C6H10O2/c7-4-3-6-2-1-5(6)8-6/h5,7H,1-4H2	InChI=1S/C6H10O2/c7-4-3-6-2-1-5(6)8-6/h5,7H,1-4H2/t5-,6-/m1/s1
