22
gdb 20120	3.28516	1.42137	1.08272	0.1478	81.76	-0.2655	0.0868	0.3523	1169.7225	0.200094	-313.047335	-313.038516	-313.037572	-313.080818	33.544	
C	-0.0458578225	 1.5032398924	 0.1910265826	-0.389725
C	 0.0483686851	-0.0122520101	-0.0486718587	-0.013918
C	 0.7267979651	-0.3071960889	-1.3769373822	 0.054732
C	 0.4113498598	-1.5525710457	-2.1635836041	-0.272542
C	-0.0354529065	-0.2028994514	-2.6737156035	-0.279026
C	 0.7647081157	-0.6972711432	 1.1042175152	 0.054733
C	 0.0419589853	-0.9993942623	 2.3925863871	-0.279026
C	 0.4670183407	-2.1253834659	 1.4799230567	-0.272542
H	 0.954168587	 1.9498077758	 0.2459562845	 0.108716
H	-0.5856336348	 1.9989978861	-0.6216690013	 0.111227
H	-0.5588367186	 1.7232414805	 1.1323341694	 0.111227
H	-0.9740595805	-0.4163540746	-0.0965810955	 0.058191
H	 1.7634664855	 0.0229503199	-1.4168622802	 0.074521
H	 1.2190508771	-2.0589716527	-2.6805928924	 0.107573
H	-0.3500530481	-2.2204825376	-1.7748492059	 0.107567
H	-1.0946181061	 0.029630548	-2.6204915762	 0.106847
H	 0.46490267	 0.2147767838	-3.5404801553	 0.107468
H	 1.8036431006	-0.3904383684	 1.2125695452	 0.074521
H	 0.5698911284	-0.8654189193	 3.3303646998	 0.107468
H	-1.0172200685	-0.7667139081	 2.4448705145	 0.106847
H	-0.3087607978	-2.6453965902	 0.9279194717	 0.107567
H	 1.287392223	-2.7621810283	 1.7923278786	 0.107573
73.8138	86.0819	154.9542	226.116	230.3819	239.4112	342.5717	399.4402	417.7528	503.6956	745.6205	776.7634	817.6087	818.5655	831.2199	833.1579	919.4637	935.8595	953.6644	967.6494	983.9012	1030.8369	1053.1381	1059.9073	1075.6709	1075.6976	1103.5815	1135.545	1141.5355	1187.5076	1196.484	1200.1373	1223.6637	1224.112	1233.7226	1290.8048	1324.0914	1402.3841	1416.2828	1424.0815	1468.8263	1471.3277	1496.2955	1497.5556	1505.1274	1509.6436	2994.0983	3028.1406	3092.9374	3107.1781	3116.2781	3121.9274	3125.9587	3126.67	3132.0572	3134.2987	3203.1617	3204.1856	3218.5167	3220.1148
CC(C1CC1)C1CC1	CC(C1CC1)C1CC1	
InChI=1S/C8H14/c1-6(7-2-3-7)8-4-5-8/h6-8H,2-5H2,1H3	InChI=1S/C8H14/c1-6(7-2-3-7)8-4-5-8/h6-8H,2-5H2,1H3
