19
gdb 121550	5.79875	0.45524	0.45321	1.0316	88.13	-0.2489	0.0318	0.2807	2454.709	0.155128	-385.813726	-385.802785	-385.801841	-385.852275	37.208	
C	-0.5084962815	 1.3989663886	-0.3603159339	-0.38658
C	 0.0410240984	 0.0183077203	-0.0466026725	-0.016604
O	 0.6959530398	-0.4742154533	-1.199809845	-0.240862
C	 1.2460735384	-1.7608712933	-0.9992604935	-0.205954
C	 1.9024017415	-2.2233189899	-2.214972412	 0.002781
C	 2.4475467636	-2.6282763268	-3.2068485679	 0.165992
C	 3.1145082801	-3.105803599	-4.419095316	-0.495165
C	 2.4701162787	-4.2717113685	-5.0272651297	 0.318002
C	 1.9523855954	-5.2289312474	-5.5339131354	-0.444456
H	 0.3010801358	 2.0786863767	-0.6402440203	 0.129069
H	-1.2169275173	 1.3490585591	-1.1918165083	 0.129972
H	-1.0237234175	 1.8111283934	 0.5124374995	 0.11486
H	 0.7462595405	 0.0639864184	 0.8012002817	 0.085721
H	-0.7726920687	-0.6656065543	 0.250221064	 0.08662
H	 1.9714422981	-1.7437547956	-0.1666833483	 0.113084
H	 0.4572014539	-2.477486377	-0.7101426586	 0.116376
H	 3.1539887261	-2.2891939251	-5.1532973114	 0.165725
H	 4.162080977	-3.3479100072	-4.1924536316	 0.160982
H	 1.4895668178	-6.0744702392	-5.9791245209	 0.200439
13.738	60.0376	76.3706	97.1445	118.3482	219.1995	238.602	252.5666	314.345	326.8278	371.6164	402.6811	512.2381	571.198	622.6885	649.6402	808.4462	821.6229	907.7344	932.5764	949.0918	1029.1257	1032.9344	1131.6825	1147.7272	1176.796	1188.5522	1231.2457	1256.9455	1293.6771	1335.7954	1380.1341	1405.9697	1447.8116	1450.8136	1482.9794	1497.0405	1501.7815	1531.8686	2247.7847	2383.4052	2941.9729	2954.0897	2961.104	2974.4697	3009.223	3033.8296	3046.1451	3120.3796	3123.9576	3507.1506
CCOCC#CCC#C	CCOCC#CCC#C	
InChI=1S/C8H10O/c1-3-5-6-7-8-9-4-2/h1H,4-5,8H2,2H3	InChI=1S/C8H10O/c1-3-5-6-7-8-9-4-2/h1H,4-5,8H2,2H3
