17
gdb 21177	3.46721	1.88125	1.24084	3.4429	71.84	-0.1961	0.0416	0.2377	971.4209	0.143765	-360.056019	-360.047854	-360.04691	-360.088821	29.188	
C	-0.0614844436	 1.4175189881	 0.0374436659	-0.323002
N	-0.076436406	-0.0363020789	-0.0241924483	-0.396158
C	 0.6067171784	-0.6242540617	-1.0830134729	 0.439368
C	 1.2366012377	-0.084616608	-2.1937349781	-0.32128
C	 1.671802535	-1.2118428346	-2.9225967256	-0.000083
N	 1.355453097	-2.3549038134	-2.3300705476	-0.280377
N	 0.6876206017	-1.9769987652	-1.2039843428	-0.028328
C	 0.1702584875	-2.9690543357	-0.2935701379	-0.34013
H	 0.9511738102	 1.8453355334	 0.0957902921	 0.117707
H	-0.5491914401	 1.8222106023	-0.854357515	 0.142085
H	-0.6307052478	 1.7418479494	 0.9115861836	 0.125573
H	 0.1328543448	-0.4632104363	 0.8687600082	 0.238033
H	 1.3629377369	 0.95773423	-2.4327816683	 0.094379
H	 2.2094663786	-1.230364504	-3.8598696217	 0.103277
H	 0.7943829197	-3.0710531655	 0.6039903191	 0.126073
H	-0.8473152486	-2.705240855	 0.0112005316	 0.140673
H	 0.1584889386	-3.9231252051	-0.8198406723	 0.162191
72.4838	120.6596	178.1034	191.1927	206.8613	305.6556	312.6128	494.3328	572.6608	646.8713	657.9473	707.11	748.2577	792.0075	879.7626	943.055	1010.6722	1063.1003	1093.5722	1143.831	1150.2297	1162.1134	1219.9749	1248.1346	1310.8463	1374.2545	1421.7654	1454.4737	1456.5068	1470.9791	1485.7494	1489.8643	1510.5901	1520.601	1559.2563	1607.4513	2986.3774	3014.9012	3079.173	3084.1539	3124.3634	3159.8954	3236.7739	3275.8735	3560.2878
CNC1=CC=NN1C	CNc1ccnn1C	
InChI=1S/C5H9N3/c1-6-5-3-4-7-8(5)2/h3-4,6H,1-2H3	InChI=1S/C5H9N3/c1-6-5-3-4-7-8(5)2/h3-4,6H,1-2H3
