15
gdb 21070	6.59021	1.27121	1.09256	1.5331	64.42	-0.245	0.0018	0.2468	1053.5855	0.119792	-395.979081	-395.971032	-395.970088	-396.013127	27.14	
C	 0.0793591024	 1.4104679783	 0.0304940532	-0.310038
N	-0.0337508872	-0.0326890028	 0.0058938897	 0.155888
N	-0.177945815	-0.7110732855	-1.1260520882	-0.229619
C	-0.1710268633	-1.9858373212	-0.7305837023	-0.120643
C	-0.0102611687	-2.0231687503	 0.6627652928	 0.311142
C	 0.0298961024	-3.2018642437	 1.5814086346	-0.183481
O	 0.4712800096	-4.3219710361	 0.8287278701	-0.416331
N	 0.0821950194	-0.7675439809	 1.1075778805	-0.31553
H	 1.1276706877	 1.7158871702	 0.1046832132	 0.148895
H	-0.3478262723	 1.7941033729	-0.8951140964	 0.16124
H	-0.468365727	 1.7961256117	 0.8913716062	 0.154909
H	-0.2726948867	-2.7958394217	-1.432808414	 0.133091
H	 0.6980559293	-2.9796615944	 2.4264524709	 0.111753
H	-0.9732619646	-3.3807508761	 2.0015135257	 0.106528
H	 0.3688050542	-5.1060243405	 1.3754860241	 0.292197
32.7945	45.6959	156.3262	196.1464	241.5097	297.5589	355.9287	481.0583	664.1181	675.8624	715.3755	758.1851	880.1993	1014.2386	1036.1195	1042.6068	1063.1414	1103.4081	1146.7034	1186.6286	1236.0036	1246.2352	1342.2579	1353.185	1418.7979	1446.6155	1450.0694	1460.197	1483.0033	1507.1952	1515.9382	1567.5341	2968.0088	3007.6984	3053.8028	3130.6814	3175.5177	3288.4936	3837.7917
CN1N=CC(CO)=N1	Cn1ncc(CO)n1	
InChI=1S/C4H7N3O/c1-7-5-2-4(3-8)6-7/h2,8H,3H2,1H3	InChI=1S/C4H7N3O/c1-7-5-2-4(3-8)6-7/h2,8H,3H2,1H3
