22
gdb 115613	2.05075	1.42262	1.03303	1.9871	82.62	-0.2312	0.0578	0.289	1272.7883	0.193891	-404.312472	-404.302837	-404.301893	-404.346916	36.298	
C	-0.1141777686	 1.2380114372	-0.2654361319	-0.393109
C	-0.0853601326	-0.2278450219	 0.0905142799	-0.074495
N	 1.2222682053	-0.9132976261	-0.0347268342	-0.396424
C	 0.6226513751	-0.7512885872	 1.285475633	 0.353691
C	 1.2383751978	 0.0301631453	 2.4511016864	-0.293825
C	 0.4039144445	-0.8604963421	 3.4189769997	-0.250567
C	 0.1249856071	-1.8471829812	 2.2444085683	-0.071378
C	-1.2784186407	-2.4009452767	 2.0703040106	-0.09629
O	-1.4317065174	-3.109811096	 0.8424712257	-0.415768
H	 0.8004975204	 1.7368771791	 0.0655578449	 0.124438
H	-0.1937538577	 1.3716430568	-1.3497111632	 0.119025
H	-0.9715496308	 1.7387975571	 0.1985975989	 0.10964
H	-0.9539701955	-0.801013488	-0.2266526999	 0.103324
H	 1.0739196683	-1.8668086965	-0.3596372051	 0.221498
H	 2.3144449006	-0.1474827815	 2.5363906894	 0.107953
H	 1.0581429466	 1.1071876307	 2.4877194825	 0.102043
H	 0.917399267	-1.2656556216	 4.2927711868	 0.100315
H	-0.5112957234	-0.3616656596	 3.7517664661	 0.102939
H	 0.8435835562	-2.6796601816	 2.2693471077	 0.062375
H	-1.5526229149	-3.0319824755	 2.9306913971	 0.091056
H	-2.0018808764	-1.5797712635	 2.0263427358	 0.11061
H	-0.881978831	-3.898726297	 0.8884845317	 0.282949
69.7835	119.1024	150.1614	179.2225	188.8353	216.5565	295.1395	333.1767	386.2136	438.7821	455.8785	513.6783	577.4781	693.1037	785.8536	811.4609	852.8396	904.7488	933.8902	950.3123	997.2565	1020.3308	1036.425	1050.1251	1068.8671	1084.6631	1106.3879	1112.4697	1136.955	1199.4425	1208.0021	1236.3683	1249.1113	1258.2377	1269.9305	1297.5477	1350.7887	1358.6715	1388.9921	1410.2247	1414.4949	1465.7006	1478.626	1491.0411	1495.3519	1500.3499	1507.0314	2978.4047	2995.6346	3031.036	3055.9441	3059.259	3072.6769	3091.9472	3103.6534	3113.7669	3120.471	3139.4477	3482.5279	3813.914
CC1NC11CCC1CO	C[C@H]1N[C@]21CC[C@H]2CO	
InChI=1S/C7H13NO/c1-5-7(8-5)3-2-6(7)4-9/h5-6,8-9H,2-4H2,1H3	InChI=1S/C7H13NO/c1-5-7(8-5)3-2-6(7)4-9/h5-6,8-9H,2-4H2,1H3/t5-,6+,7+/m1/s1
