18
gdb 31742	4.76945	0.85889	0.74266	2.7618	76.06	-0.1838	0.0542	0.238	1498.2059	0.147788	-439.101967	-439.092737	-439.091793	-439.136389	33.553	
C	 0.5390832382	 0.6725062078	 0.2343178098	-0.243838
O	-0.8217315622	 0.8994189909	-0.0901857667	-0.259384
C	-1.6136898922	-0.1919735878	-0.0143457218	 0.435526
C	-1.3963234416	-1.5070496737	 0.3274141385	-0.422277
C	-2.66357072	-2.1711228303	 0.2173827105	 0.230673
C	-2.9418843412	-3.6232567207	 0.4747071985	-0.157768
O	-4.3002839955	-3.8736522217	 0.8108875665	-0.414031
C	-3.5891743038	-1.2379158003	-0.1781959704	-0.180946
N	-2.9344117335	-0.0273424163	-0.3190427583	-0.336536
H	 1.0485613749	 1.630732833	 0.1243363619	 0.13494
H	 0.6443958975	 0.3160461709	 1.2669003327	 0.126646
H	 0.9884998715	-0.0638715136	-0.4438581403	 0.12763
H	-0.4593090139	-1.9503416367	 0.6227908674	 0.092839
H	-2.7539055482	-4.2295170886	-0.4205109175	 0.116671
H	-2.2585933136	-3.9996905116	 1.2541575212	 0.086269
H	-4.5222746854	-3.2677471199	 1.526387931	 0.275698
H	-4.6414279662	-1.3343417372	-0.3844506525	 0.125871
H	-3.3456351548	 0.8521267761	-0.5779612005	 0.262015
56.81	97.2127	148.6027	182.2665	215.6437	256.4589	309.7686	354.9502	428.3807	446.0018	488.9777	623.0791	658.5747	677.1749	703.6104	735.3544	754.8845	975.2232	993.4959	1003.8454	1061.4382	1088.5232	1118.775	1176.2033	1184.5965	1205.0272	1229.4375	1255.7315	1307.4244	1363.8568	1411.2552	1438.5124	1469.7888	1483.6864	1491.3091	1509.0935	1511.2595	1576.6819	1634.9124	2962.8001	3009.1118	3035.3309	3068.0077	3140.2016	3258.3902	3281.4171	3686.9999	3801.1477
COC1=CC(CO)=CN1	COc1cc(CO)c[nH]1	
InChI=1S/C6H9NO2/c1-9-6-2-5(4-8)3-7-6/h2-3,7-8H,4H2,1H3	InChI=1S/C6H9NO2/c1-9-6-2-5(4-8)3-7-6/h2-3,7-8H,4H2,1H3
