15
gdb 39786	3.1083	1.90653	1.54258	1.7013	63.19	-0.253	0.0579	0.3109	860.4201	0.11272	-457.657289	-457.651011	-457.650067	-457.687724	25.724	
C	 0.0120832356	 1.4919109185	 0.0092468811	-0.296347
O	 1.2585217835	 0.7527306949	-0.0076877299	-0.260047
C	 0.0673693421	 0.0394497719	 0.0017248538	 0.540479
C	-0.525348477	-0.9740511458	 0.995452696	-0.104516
O	-1.6151482254	-1.121180409	 0.0142882068	-0.295456
C	-0.5466922154	-0.9645874165	-0.9886454872	-0.104516
C	 0.2762989138	-2.2524619529	-0.7441591166	 0.043884
O	 1.4978489833	-2.0418090566	-0.0235945521	-0.234444
C	 0.2920656428	-2.2594488056	 0.7210473537	 0.043882
H	-0.1967350428	 2.0252232582	 0.9347317569	 0.124922
H	-0.216542724	 2.034002751	-0.9064037492	 0.124922
H	-0.8593869518	-0.7423525159	 2.004888042	 0.091702
H	-0.9023454867	-0.7233037463	-1.9884046535	 0.091702
H	 0.2203573651	-3.1258180392	-1.3832986605	 0.116915
H	 0.2497997769	-3.1388656067	 1.3528855187	 0.116915
184.5077	250.3373	296.6231	377.8551	470.2129	507.4044	607.8227	682.8939	737.0189	799.5225	838.4974	839.5044	858.5844	901.5043	911.5524	912.1941	935.4815	989.1387	1021.4945	1072.3031	1073.2427	1112.789	1141.3269	1166.4568	1168.0684	1219.4068	1228.1524	1234.8106	1287.0457	1288.1779	1392.4212	1467.1308	1558.788	3091.7447	3146.9005	3148.6069	3180.7115	3183.0066	3195.089
C1OC11C2OC1C1OC21	C1O[C@]21[C@H]1O[C@@H]2[C@H]2O[C@@H]12	
InChI=1S/C6H6O3/c1-6(7-1)4-2-3(8-2)5(6)9-4/h2-5H,1H2	InChI=1S/C6H6O3/c1-6(7-1)4-2-3(8-2)5(6)9-4/h2-5H,1H2/t2-,3+,4+,5-,6-
