17
gdb 109479	2.1906	1.60067	0.96563	1.5631	68.74	-0.2615	-0.0487	0.2128	1188.8207	0.134972	-459.028776	-459.020127	-459.019183	-459.062936	31.086	
C	-0.2268755601	 1.6147220821	 0.0802620137	-0.397531
C	-0.0277068409	 0.1037875933	-0.0588587036	-0.182279
C	 0.8045101091	-0.5103619062	 1.0799345138	-0.293694
C	 0.7647154191	-2.0285531776	 1.1495628044	 0.373178
O	-0.1856361262	-2.7468143256	 0.9978168412	-0.296496
C	 2.1933047715	-2.4916195031	 1.4332899648	-0.192605
O	 3.0200100929	-1.3344690571	 1.3035388569	-0.219385
C	 2.2967757215	-0.2013902244	 1.0475628964	 0.446482
O	 2.835157533	 0.8450142409	 0.8377603501	-0.321948
H	 0.7333225962	 2.1342143931	 0.1048024118	 0.155507
H	-0.8113552283	 2.0019972047	-0.7593912151	 0.118073
H	-0.7677873654	 1.8551402128	 1.0024969761	 0.114476
H	-0.9912801457	-0.4166010218	-0.0649268521	 0.127768
H	 0.4575133841	-0.1249334748	-1.014718086	 0.112849
H	 0.4227972943	-0.1376210005	 2.0430316022	 0.147731
H	 2.2785357974	-2.9009676788	 2.4465322643	 0.1519
H	 2.5110699474	-3.2573754669	 0.7190533109	 0.155974
44.2262	106.9379	165.6861	170.9524	221.2304	281.2925	314.6494	417.5183	508.2536	569.3431	593.92	658.4854	703.9135	760.9882	807.2354	889.5058	941.0628	969.309	1044.4063	1083.0172	1093.6028	1116.7724	1128.9217	1195.6129	1216.4049	1228.4104	1266.7925	1329.7993	1356.5493	1366.6461	1414.6409	1482.1914	1490.2613	1496.5632	1513.54	1853.4472	1893.5808	3005.0364	3037.6928	3042.0229	3045.0653	3081.1177	3096.1006	3105.2753	3137.9239
CCC1C(=O)COC1=O	CC[C@H]1C(=O)COC1=O	
InChI=1S/C6H8O3/c1-2-4-5(7)3-9-6(4)8/h4H,2-3H2,1H3	InChI=1S/C6H8O3/c1-2-4-5(7)3-9-6(4)8/h4H,2-3H2,1H3/t4-/m0/s1
