23
gdb 91914	2.28611	1.58667	1.06638	1.1429	85.6	-0.2426	0.0811	0.3237	1228.0067	0.206648	-388.300272	-388.291358	-388.290414	-388.33343	35.302	
C	 0.0915506254	 1.524801449	 0.0858227545	-0.40467
C	 0.0372781411	 0.0059429683	 0.017751703	 0.154108
C	 0.6278366901	-0.5551101828	-1.2857840934	-0.231691
C	 0.9670385647	-2.04019598	-1.1792084623	-0.049488
C	 2.2403657408	-2.4622742742	-0.4828293726	-0.285735
C	 0.9103055441	-2.7129157597	 0.1759520574	-0.020281
C	 0.5001757506	-1.878405093	 1.3783306909	 0.113637
C	 1.237523348	-2.2633503304	 2.654641964	-0.398646
O	 0.7433197094	-0.4959294476	 1.1488843627	-0.274513
H	 1.1312252443	 1.866541015	 0.0655575275	 0.122601
H	-0.4342416543	 1.9676859076	-0.7658452548	 0.111861
H	-0.3700001335	 1.886471892	 1.0085266778	 0.119067
H	-1.0137273911	-0.3240189732	 0.0952010314	 0.059449
H	-0.0949697613	-0.3949570314	-2.0936028823	 0.095822
H	 1.5242870293	 0.0195899898	-1.5510774215	 0.098257
H	 0.6684056685	-2.6456272935	-2.0290638722	 0.080631
H	 2.7939883816	-3.3084714443	-0.8745864407	 0.103279
H	 2.8552221703	-1.6685641832	-0.0699889684	 0.117677
H	 0.5553928808	-3.7393029124	 0.2066189659	 0.078366
H	-0.5850376016	-2.0186968013	 1.536880724	 0.058405
H	 2.3163174998	-2.1384600608	 2.5256864738	 0.123441
H	 0.911619875	-1.6328000082	 3.4865194749	 0.118161
H	 1.0387193979	-3.3089160758	 2.9094238304	 0.11026
85.2195	174.7575	208.7696	221.7657	237.7105	255.2414	352.0622	369.9255	440.712	459.1731	479.7429	590.1997	674.7595	749.2478	807.8056	831.8276	855.364	888.1131	894.4846	961.5796	979.378	988.0025	1031.8551	1071.369	1081.9573	1098.6822	1118.8022	1128.1417	1140.4535	1151.8585	1165.7557	1202.7109	1227.4083	1261.5268	1318.8977	1353.3209	1357.9867	1378.3232	1385.691	1402.3023	1404.8506	1410.4307	1426.2376	1478.9066	1481.5434	1483.8962	1491.9954	1497.0892	1500.953	2927.4073	2943.8061	3021.3253	3040.4704	3042.8847	3065.2484	3112.8679	3116.2708	3120.025	3122.1953	3127.1195	3141.3203	3153.5915	3214.5858
CC1CC2CC2C(C)O1	C[C@H]1C[C@H]2C[C@H]2[C@@H](C)O1	
InChI=1S/C8H14O/c1-5-3-7-4-8(7)6(2)9-5/h5-8H,3-4H2,1-2H3	InChI=1S/C8H14O/c1-5-3-7-4-8(7)6(2)9-5/h5-8H,3-4H2,1-2H3/t5-,6+,7-,8-/m0/s1
