21
gdb 55455	3.26326	1.04165	0.90517	2.9344	79.1	-0.2395	-0.0126	0.2269	1353.2403	0.182848	-424.259701	-424.250599	-424.249655	-424.294323	33.773	
C	-0.0334799483	 1.5070674477	-0.0458637335	-0.482544
C	 0.0723885634	-0.0070267662	-0.0048216878	 0.375372
O	 1.1419953906	-0.5725808109	-0.0130273799	-0.304814
C	-1.2447464963	-0.7819590339	 0.0301793282	-0.087174
C	-1.7444974661	-1.0223638529	-1.4159185201	-0.209741
C	-2.9996627175	-1.8995884175	-1.4003527448	-0.078271
O	-2.7767492558	-3.1293722803	-0.7397120197	-0.238376
C	-2.397780079	-2.9458493466	 0.6144456088	-0.088227
C	-1.1084700527	-2.1337537247	 0.7459946244	-0.202951
H	 0.9429026949	 1.9467995055	-0.2525266525	 0.142435
H	-0.7611069429	 1.8347467328	-0.7958531154	 0.135507
H	-0.3946589185	 1.8706013478	 0.9240591052	 0.142877
H	-1.9963081908	-0.1652324868	 0.5438271001	 0.070846
H	-1.9636206232	-0.0757049437	-1.9234717008	 0.096102
H	-0.9583765445	-1.5309645695	-1.9857873084	 0.123015
H	-3.8291298044	-1.3525412696	-0.9169830247	 0.081972
H	-3.3114905905	-2.1490782049	-2.4189840569	 0.109292
H	-3.2151624041	-2.4492644344	 1.1677028205	 0.080223
H	-2.2729817282	-3.9482608516	 1.033907116	 0.1096
H	-0.2732955512	-2.6841868765	 0.3032429585	 0.128396
H	-0.871165605	-1.9864682438	 1.8058220528	 0.096462
36.6501	111.7078	125.3551	182.0609	237.9013	281.9735	305.8292	381.9618	454.8129	474.662	557.7256	587.7398	614.341	809.7282	823.1909	856.7772	905.4768	910.9055	959.5414	996.449	1017.8488	1022.938	1052.0749	1105.1279	1140.9145	1154.2682	1183.251	1194.9934	1265.8475	1282.463	1303.2456	1322.9578	1342.3102	1364.089	1379.044	1384.4552	1396.8011	1425.6201	1462.0811	1472.1256	1476.3622	1486.7774	1493.6482	1504.9557	1808.8381	2943.6372	2949.9675	3002.5483	3032.5723	3034.3225	3045.4476	3078.5619	3083.5645	3084.7139	3094.4927	3101.7724	3151.5801
CC(=O)C1CCOCC1	CC(=O)C1CCOCC1	
InChI=1S/C7H12O2/c1-6(8)7-2-4-9-5-3-7/h7H,2-5H2,1H3	InChI=1S/C7H12O2/c1-6(8)7-2-4-9-5-3-7/h7H,2-5H2,1H3
