16
gdb 20782	4.69135	1.88929	1.45404	2.9532	71.38	-0.2326	0.0347	0.2672	863.7988	0.133022	-342.777039	-342.770312	-342.769368	-342.808131	25.413	
C	-0.3318341485	 1.6278850875	-0.1537753584	-0.400372
C	 0.0596471997	 0.1712818277	 0.0074513312	 0.05417
C	 0.8200472483	-0.5390079005	-1.1935309	-0.401922
C	 1.9706844045	-0.7083475247	-0.2100034937	 0.37683
C	 3.177413924	-1.1127756826	 0.3311217371	-0.39004
C	 3.0810274976	-0.6446836809	 1.6717736096	 0.012077
N	 1.9238778061	-0.0174599259	 1.9510732615	-0.315221
N	 1.3025209321	-0.081271828	 0.7672426259	 0.091414
H	 0.5015416966	 2.21470302	-0.5513062166	 0.131133
H	-1.1807681239	 1.7150937717	-0.8393438446	 0.126138
H	-0.6260696355	 2.0566620018	 0.8086509016	 0.142883
H	-0.7761614973	-0.4228936789	 0.391128454	 0.10713
H	 0.351874138	-1.4614116392	-1.544989809	 0.128188
H	 1.0122997271	 0.1167868556	-2.0465409304	 0.125624
H	 3.9974414296	-1.6428906182	-0.1229814889	 0.103596
H	 3.8246139816	-0.7410007254	 2.4502514207	 0.108373
73.8029	191.5023	223.0631	288.4246	421.9891	487.2171	646.4548	671.8048	702.3482	735.537	780.2206	843.2201	872.5587	915.328	959.1485	1019.9766	1041.8245	1065.9366	1096.0229	1109.5224	1180.0949	1192.6198	1215.5449	1257.8168	1299.3635	1341.0222	1369.6239	1407.0959	1411.7318	1473.2983	1486.4002	1496.9988	1512.296	1564.1848	3040.5531	3057.3966	3066.6747	3114.7973	3116.6299	3121.5733	3239.3831	3279.061
CC1CC2=CC=NN12	C[C@H]1Cc2ccnn12	
InChI=1S/C6H8N2/c1-5-4-6-2-3-7-8(5)6/h2-3,5H,4H2,1H3	InChI=1S/C6H8N2/c1-5-4-6-2-3-7-8(5)6/h2-3,5H,4H2,1H3/t5-/m0/s1
