21
gdb 86251	2.88134	1.13668	0.87403	3.3972	88.29	-0.246	-0.0532	0.1927	1373.4453	0.18194	-387.131319	-387.121978	-387.121033	-387.165457	34.893	
C	-0.1193080557	 1.5762718465	 0.011515829	-0.40017
C	 0.040440353	 0.0516122356	 0.0391114991	-0.020322
C	 0.7886009732	-0.5418322696	-1.1836743615	-0.233116
C	 1.6002084602	-1.7583279177	-0.6613308905	-0.089792
C	 2.9408929629	-1.9586528875	-1.3765504567	-0.405719
C	 1.6940432251	-1.4579496112	 0.8276801628	 0.231741
C	 2.5094373424	-2.1981743592	 1.7945315276	 0.072625
O	 3.1934623407	-3.1661947311	 1.5388594773	-0.276059
C	 0.8524447006	-0.4788693894	 1.1925974938	-0.152298
H	 0.8568592673	 2.070843412	-0.0338365328	 0.120168
H	-0.6959138894	 1.8895202694	-0.8646487791	 0.120992
H	-0.6415719227	 1.9402202437	 0.9025366428	 0.115773
H	-0.9669342679	-0.3894722264	 0.1101118902	 0.091942
H	 0.1170318141	-0.8010887649	-2.0064745289	 0.09994
H	 1.4897769522	 0.2113795828	-1.5645417346	 0.100516
H	 1.0120662795	-2.6795812719	-0.7835158106	 0.088695
H	 3.5779276584	-1.0741374275	-1.2629512944	 0.107921
H	 3.4750807382	-2.8181348846	-0.9680719042	 0.147568
H	 2.7809203114	-2.1200939828	-2.4479130504	 0.108287
H	 2.4488439627	-1.8033726681	 2.834557986	 0.066552
H	 0.7247092639	-0.1276854281	 2.213292495	 0.104756
78.8422	92.6809	179.8999	215.0605	235.8697	242.3696	274.4095	308.5932	379.1915	431.1769	473.4256	577.6825	588.9652	725.8674	772.1115	855.0157	882.5209	897.9279	918.4452	954.0447	1006.5074	1034.2455	1052.9437	1070.7745	1116.7281	1122.187	1165.5862	1193.3348	1239.2117	1277.319	1305.4005	1315.2544	1343.3783	1344.3871	1371.8299	1406.0971	1409.2304	1427.2307	1489.0855	1494.6808	1498.6569	1499.6951	1508.2162	1672.0323	1780.5828	2866.9536	2972.3732	2996.8381	3028.4972	3031.2156	3034.6583	3091.7858	3095.6395	3101.271	3104.4481	3139.5502	3170.4138
CC1CC(C)C(C=O)=C1	C[C@H]1C[C@@H](C)C(=C1)C=O	
InChI=1S/C8H12O/c1-6-3-7(2)8(4-6)5-9/h4-7H,3H2,1-2H3	InChI=1S/C8H12O/c1-6-3-7(2)8(4-6)5-9/h4-7H,3H2,1-2H3/t6-,7+/m0/s1
