16
gdb 72298	2.77874	2.41622	1.63157	2.4476	73.21	-0.2109	-0.0488	0.1621	821.4002	0.124563	-400.604803	-400.59841	-400.597466	-400.634947	27.23	
O	-0.130845149	 1.300893942	 0.1470797988	-0.484731
C	 0.0919851501	-0.0636608496	-0.0289417342	 0.426081
C	 1.3547062688	-0.6728360724	 0.7002941368	-0.330148
C	 1.2066772187	-2.1139021645	 0.236153347	-0.110927
C	 0.4088280533	-2.100861021	-0.8534279163	 0.043133
C	-1.1066940362	-2.1468579389	-0.7593862228	-0.091202
C	-1.2925958459	-0.8042854117	-0.0522653964	-0.083837
N	-1.3234629416	-0.9179841418	-1.5580685026	-0.160179
C	 0.1912611	-0.7006549075	-1.4374144279	-0.110499
H	 0.6959414378	 1.767879582	-0.019405549	 0.282585
H	 2.2435539575	-0.111026859	 0.3722693027	 0.103007
H	 1.3321239151	-0.6203223927	 1.7944656293	 0.119629
H	 1.2084345317	-2.9269367447	 0.9557165643	 0.10431
H	-1.8359648879	-2.9481858089	-0.7057597504	 0.104282
H	-2.1761565616	-0.5209546278	 0.509979925	 0.103799
H	 0.753868039	-0.2867635635	-2.2724063242	 0.084695
258.1683	287.1985	349.225	354.3678	385.9414	506.6477	557.9757	620.5851	660.5489	755.2451	773.3809	795.3803	815.5702	839.807	876.4513	899.3056	945.1293	972.5743	1007.9004	1023.0584	1034.6894	1058.3119	1077.2693	1107.5165	1130.5855	1160.2905	1188.9674	1209.5981	1234.6376	1268.3372	1295.4042	1310.4172	1374.5556	1466.6327	1581.4899	2980.0394	3069.6777	3133.0923	3168.1026	3169.527	3179.0551	3794.158
OC12CC=C3C4C1N4C23	O[C@@]12C[CH][C]3[C@H]4[C@@H]1N4[C@@H]23	
InChI=1S/C7H7NO/c9-7-2-1-3-4-6(7)8(4)5(3)7/h1,4-6,9H,2H2	InChI=1S/C7H7NO/c9-7-2-1-3-4-6(7)8(4)5(3)7/h1,4-6,9H,2H2/t4-,5+,6-,7+,8?/m0/s1
