21
gdb 64269	2.77438	1.46871	1.32795	1.0199	77.42	-0.2473	0.0816	0.3289	1081.5617	0.182434	-424.221627	-424.213149	-424.212205	-424.253905	33.991	
C	-0.120340494	 1.6095486667	 0.0246887369	-0.435551
C	-0.0221575273	 0.0749106347	-0.0108967145	 0.353078
C	-1.4199944112	-0.5395723791	 0.0828114967	-0.410229
C	 0.6909130444	-0.43571654	-1.2881374541	-0.261243
C	 2.1988857083	-0.3559238946	-1.2209403958	 0.051825
O	 2.7870429955	 0.9038583644	-0.8785869502	-0.252607
C	 2.8611248205	-0.1668804384	 0.0766482793	 0.028722
C	 2.0052352639	-0.0293309419	 1.3218555038	-0.110604
O	 0.6614194839	-0.4381602307	 1.1434910963	-0.292124
H	 0.8513393876	 2.0825720143	-0.1206736113	 0.143805
H	-0.78352817	 1.9581402423	-0.7736195451	 0.10996
H	-0.5419755109	 1.9315397315	 0.9818574999	 0.114352
H	-2.0103378251	-0.2952266437	-0.8055900118	 0.110742
H	-1.3495038796	-1.6274031627	 0.1695886707	 0.118212
H	-1.9441816804	-0.1584349888	 0.963749463	 0.118641
H	 0.4313626187	-1.4908463786	-1.4394258431	 0.103558
H	 0.326638952	 0.1108210703	-2.1663627404	 0.107588
H	 2.7315194599	-0.890432119	-2.0083174238	 0.091347
H	 3.8702447261	-0.5495698536	 0.2261609632	 0.094514
H	 2.4019892518	-0.6811239469	 2.1071726908	 0.110322
H	 2.0679664858	 1.0070387838	 1.6878262294	 0.105693
148.9931	188.8131	226.1729	254.769	288.6472	324.5406	342.1817	387.5123	397.7011	454.3233	491.3467	566.8892	708.1065	759.73	795.7259	827.9176	882.0939	904.6208	929.7133	944.1594	977.9857	991.0421	1024.0008	1055.4403	1085.1198	1126.4371	1155.9957	1189.2462	1212.8747	1239.7426	1289.4089	1293.3122	1296.6076	1365.5735	1374.8315	1392.8053	1404.6472	1410.8038	1464.0806	1472.4939	1483.3508	1487.1976	1489.646	1498.9431	1523.1419	2989.1078	3027.3568	3038.7428	3044.9978	3067.871	3071.1986	3100.7351	3106.241	3117.412	3118.6702	3119.1983	3148.9922
CC1(C)CC2OC2CO1	CC1(C)C[C@H]2O[C@H]2CO1	
InChI=1S/C7H12O2/c1-7(2)3-5-6(9-5)4-8-7/h5-6H,3-4H2,1-2H3	InChI=1S/C7H12O2/c1-7(2)3-5-6(9-5)4-8-7/h5-6H,3-4H2,1-2H3/t5-,6+/m1/s1
