17
gdb 91104	3.2082	1.81461	1.40784	2.7532	71.58	-0.2483	-0.0273	0.221	922.1821	0.139213	-417.960505	-417.953928	-417.952984	-417.99118	27.117	
O	 0.2314715592	 1.387792041	-0.0450772699	-0.430402
C	 0.0547092256	 0.0111792969	 0.0453939057	 0.101821
C	-1.386670198	-0.5187453354	-0.3762010036	-0.267127
C	-1.1280894405	-1.9205785394	-0.9807836083	-0.056995
C	-0.3501539512	-2.2787608508	-2.2419199711	-0.048975
C	 0.3417828009	-1.2659819514	-3.1563372497	-0.189071
N	 0.8677199487	-0.2624790943	-2.2030311334	-0.24984
C	 0.7281237942	-0.7815569078	-1.0469869127	 0.164818
N	 0.341162004	-2.1700544483	-0.9467722618	-0.124687
H	 0.4102894413	 1.5677688899	-0.9807993943	 0.292913
H	 0.2991163793	-0.3107816985	 1.0598926958	 0.1129
H	-2.0518275131	-0.6031552025	 0.4864863567	 0.119113
H	-1.8216749852	 0.1983617899	-1.0763911604	 0.12209
H	-1.7356045454	-2.7311516007	-0.5851127257	 0.105252
H	-0.501205396	-3.2878313145	-2.6167724541	 0.10237
H	 1.132638113	-1.7590975727	-3.7373399508	 0.1236
H	-0.3174884068	-0.7551589515	-3.8660032323	 0.122218
161.2132	231.4516	301.7791	400.7662	425.9068	488.1499	522.6371	615.5735	663.7933	707.2686	769.547	795.3309	834.343	888.1721	906.5105	948.8526	964.1011	998.2815	1001.3975	1032.2478	1080.1232	1109.912	1129.6414	1155.3316	1177.1696	1210.0901	1217.2612	1224.3288	1288.2779	1318.5297	1334.8951	1353.6546	1378.1173	1453.301	1479.4609	1492.4562	1672.7368	3021.2418	3067.905	3070.3036	3094.3303	3120.3991	3134.8995	3152.3348	3713.3802
OC1CC2C3CN=C1N23	O[C@H]1C[C@H]2[C@H]3C[N][C]1N23	
InChI=1S/C6H8N2O/c9-5-1-3-4-2-7-6(5)8(3)4/h3-5,9H,1-2H2	InChI=1S/C6H8N2O/c9-5-1-3-4-2-7-6(5)8(3)4/h3-5,9H,1-2H2/t3-,4+,5-,8?/m0/s1
