23
gdb 105028	2.09235	1.25748	1.05288	2.5946	85.49	-0.2487	-0.026	0.2228	1313.5574	0.203253	-388.292384	-388.281894	-388.280949	-388.328332	38.607	
C	 0.5713376106	-0.1117348941	 1.3482737388	-0.384086
C	 0.0012378859	-0.2403028021	-0.0695108402	-0.257971
C	-1.4182991106	-0.7972981084	-0.1286959901	 0.371269
C	-1.8030919402	-1.5345853757	-1.3931328064	-0.325052
C	-1.5420241714	-2.3024928557	-0.1180978636	-0.30995
C	-2.4825414776	 0.0419708194	 0.6063426737	-0.123656
C	-2.5396003103	 1.496136644	 0.1085003198	-0.421226
C	-3.8704333781	-0.5707887165	 0.4894109199	 0.141713
O	-4.3326793016	-1.3803160496	 1.2522524218	-0.255789
H	 1.614876712	 0.216249242	 1.3182988122	 0.113182
H	 0.0169081026	 0.6179942775	 1.9469842946	 0.118549
H	 0.5340340758	-1.0703590373	 1.8760629609	 0.122937
H	 0.0464291464	 0.7321922034	-0.5750585371	 0.09788
H	 0.6459403743	-0.9074561393	-0.6544443887	 0.095158
H	-2.8255127198	-1.4751787642	-1.7515265076	 0.111415
H	-1.0684418561	-1.5922080798	-2.189519354	 0.109125
H	-0.6247634796	-2.8781196129	-0.0512992945	 0.106702
H	-2.3866334839	-2.7513728537	 0.3912360321	 0.137143
H	-2.2442169596	 0.0233612799	 1.6762714369	 0.102168
H	-2.722514523	 1.533968148	-0.9709382751	 0.124894
H	-3.342541515	 2.0498070905	 0.6064851588	 0.121035
H	-1.6048696541	 2.0243925708	 0.3087941571	 0.129776
H	-4.4698693866	-0.2037233362	-0.3772144592	 0.074784
39.3238	72.5538	105.9509	187.6507	192.5179	228.8765	257.7894	274.021	329.199	377.4118	390.5912	396.4679	515.116	552.0714	674.3086	782.5765	791.5401	866.5442	902.8516	914.1387	933.3961	941.649	968.6476	1017.2483	1051.6533	1061.2798	1084.431	1093.1772	1100.2281	1129.1281	1158.6217	1187.9203	1257.7577	1270.6955	1320.9207	1328.709	1343.8047	1379.5304	1406.6451	1412.7513	1432.8603	1474.516	1486.0174	1493.9722	1500.0445	1503.5591	1508.3849	1516.1363	1826.3026	2848.77	3024.827	3035.9985	3036.2493	3045.2361	3054.6474	3099.9942	3104.7073	3106.4506	3123.674	3128.3407	3136.4663	3205.8741	3224.9936
CCC1(CC1)C(C)C=O	CCC1(CC1)[C@@H](C)C=O	
InChI=1S/C8H14O/c1-3-8(4-5-8)7(2)6-9/h6-7H,3-5H2,1-2H3	InChI=1S/C8H14O/c1-3-8(4-5-8)7(2)6-9/h6-7H,3-5H2,1-2H3/t7-/m0/s1
