25
gdb 113073	2.03931	1.10003	0.88523	1.3204	88.76	-0.2591	0.0769	0.336	1493.6703	0.227962	-389.481607	-389.470884	-389.46994	-389.517348	39.875	
C	-0.0324947642	 1.3786513374	-0.6459578158	-0.382488
C	-0.0834795844	-0.1439535385	-0.4790300374	-0.184242
C	-1.3886386995	-0.6201065092	 0.1615255417	 0.024587
C	-2.6434122179	-0.5805630859	-0.7639081524	-0.239271
C	-2.6513921791	-2.1336355612	-0.8349686321	 0.018653
C	-2.2204183922	-2.7032972677	-2.1765177847	-0.093801
O	-3.2571785744	-2.4202851113	-3.1081648461	-0.423688
C	-1.5956895806	-2.1675934501	 0.3197973261	-0.009542
C	-0.4041691629	-3.1178824442	 0.251656312	-0.414045
H	 0.9053103506	 1.6980496061	-1.1113687661	 0.108367
H	-0.8546158781	 1.7390588952	-1.2734980247	 0.119433
H	-0.1131684156	 1.8825047016	 0.3237672842	 0.112599
H	 0.0539996098	-0.619124667	-1.4587843178	 0.092136
H	 0.7643377435	-0.4688208014	 0.1378540671	 0.091951
H	-1.5184796362	-0.0775600622	 1.1051322345	 0.057254
H	-3.5306499951	-0.1653680083	-0.2801828226	 0.094107
H	-2.5173182445	-0.0759622175	-1.7262304526	 0.100713
H	-3.6102231029	-2.5953301425	-0.5799754105	 0.07029
H	-1.2697508216	-2.252726094	-2.5033190859	 0.082928
H	-2.0524116718	-3.7890417796	-2.0883533317	 0.082583
H	-2.9821824676	-2.7452372692	-3.9703534628	 0.284069
H	-2.122623385	-2.3534178883	 1.2619510234	 0.069994
H	 0.1830248171	-2.9939318352	-0.6630363333	 0.113626
H	 0.2718777979	-2.9553404227	 1.0985807984	 0.112264
H	-0.7340520055	-4.1618595244	 0.2948720591	 0.111522
60.6594	109.0511	123.8823	169.1263	179.0919	219.0037	232.3741	260.0591	279.2182	302.997	368.1647	429.285	489.2351	498.1916	693.7327	768.3678	801.2919	832.6231	852.6814	924.6849	934.5086	950.9686	971.8919	1008.4698	1035.3885	1057.5205	1067.9909	1098.9848	1125.6911	1161.5112	1169.4583	1181.449	1216.4134	1249.6168	1259.7163	1268.5922	1279.734	1297.3258	1312.5532	1336.4267	1366.9455	1371.22	1390.3951	1407.5424	1411.6516	1460.5924	1481.3364	1491.4813	1497.3944	1498.652	1501.3128	1507.8337	1521.7814	2962.6959	2988.6662	3014.5451	3020.7979	3029.1397	3030.0235	3037.9016	3050.4655	3054.4772	3062.3362	3087.4529	3096.851	3101.1087	3104.342	3107.9229	3828.737
CCC1CC(CO)C1C	CC[C@H]1C[C@@H](CO)[C@H]1C	
InChI=1S/C8H16O/c1-3-7-4-8(5-9)6(7)2/h6-9H,3-5H2,1-2H3	InChI=1S/C8H16O/c1-3-7-4-8(5-9)6(7)2/h6-9H,3-5H2,1-2H3/t6-,7-,8-/m0/s1
