22
gdb 57892	2.96552	1.01143	0.96006	1.5729	84.59	-0.225	-0.0243	0.2006	1395.8899	0.19174	-404.342101	-404.331641	-404.330697	-404.377983	37.88	
C	 0.4203746219	 1.2071113976	 0.1748746763	-0.394247
C	 0.1265879903	-0.2891828445	-0.0697202993	-0.074554
C	 0.6355328907	-0.7519995124	-1.4352652922	-0.389805
C	 0.7380140623	-1.1087620395	 1.0668627149	 0.384057
O	 1.7414612991	-1.7766116436	 0.9108275243	-0.337924
C	 0.0379941369	-1.0102404744	 2.392134914	-0.096369
C	 0.2214581738	-2.1290278562	 3.3779306171	-0.239102
N	 0.7712001938	-0.828202511	 3.6638201129	-0.084079
C	 2.2238462568	-0.6684941117	 3.6595598335	-0.326815
H	 1.4982260756	 1.3963389704	 0.1358589742	 0.13029
H	-0.0579052499	 1.8162815579	-0.5978606659	 0.123011
H	 0.0519331249	 1.5457459179	 1.1477384176	 0.127786
H	-0.96293358	-0.4258874395	-0.015921532	 0.088104
H	 1.7225358796	-0.6531759159	-1.4939232888	 0.13295
H	 0.3933103709	-1.80312299	-1.6144342843	 0.120358
H	 0.1868549227	-0.1532593176	-2.2337771834	 0.106591
H	-0.9115186494	-0.4809273245	 2.3739349981	 0.090711
H	-0.6258695883	-2.439952354	 3.9842120172	 0.117612
H	 0.9012397156	-2.9197876322	 3.0651136568	 0.132799
H	 2.7437149676	-1.2861708095	 2.9191402244	 0.145671
H	 2.4621517296	 0.3835235503	 3.4737017565	 0.119764
H	 2.5853385056	-0.9247093077	 4.6602656083	 0.12319
44.7213	57.1398	169.1901	181.2622	187.2085	220.6155	239.9452	277.8852	300.0389	315.5327	380.4213	418.0543	436.4264	645.413	716.3678	743.8787	814.4529	851.7435	898.7317	932.838	971.6441	996.3074	1026.0718	1049.9452	1090.0474	1107.5127	1124.5148	1133.5973	1145.1971	1171.7774	1201.7943	1215.8519	1310.0008	1330.8727	1360.4165	1395.2916	1402.939	1419.9748	1443.466	1484.287	1485.1805	1486.6427	1492.4274	1501.1812	1509.8658	1512.0887	1775.2947	3007.1281	3026.2032	3035.8313	3045.0147	3092.9737	3099.2493	3104.2964	3108.0945	3110.8926	3114.6256	3124.3271	3133.7691	3185.7976
CC(C)C(=O)C1CN1C	CC(C)C(=O)[C@H]1CN1C	
InChI=1S/C7H13NO/c1-5(2)7(9)6-4-8(6)3/h5-6H,4H2,1-3H3	InChI=1S/C7H13NO/c1-5(2)7(9)6-4-8(6)3/h5-6H,4H2,1-3H3/t6-,8?/m1/s1
