19
gdb 8886	3.68858	1.19691	0.97408	4.0418	69.5	-0.2539	0.023	0.2769	1243.2594	0.163929	-402.239166	-402.229325	-402.228381	-402.2745	34.215	
C	-0.0252499812	 1.5690102053	 0.0592130455	-0.381884
C	-0.0572959782	 0.0422673798	-0.028292371	-0.175317
C	 0.7486293172	-0.4845613974	-1.2327069074	 0.03625
O	 2.0835047248	-0.0551902273	-1.1735738725	-0.4368
C	 0.741707966	-2.0226052963	-1.2773580319	 0.392995
O	 1.7720041035	-2.6381568355	-1.0357329747	-0.397408
N	-0.4375300962	-2.6158162793	-1.5779485475	-0.308249
C	-0.6088084469	-4.0560384987	-1.638169946	-0.336797
H	 1.0075284488	 1.9214914948	 0.1100239223	 0.144154
H	-0.4939836932	 2.0259123881	-0.8199010836	 0.109135
H	-0.5583360255	 1.9239674439	 0.9462567321	 0.109479
H	 0.3693783269	-0.3966249631	 0.8818659879	 0.108404
H	-1.0942166852	-0.3123299938	-0.0959954585	 0.078491
H	 0.2888038668	-0.1025635889	-2.1596057142	 0.076335
H	 2.5908721075	-0.8696047594	-1.0102245161	 0.292106
H	-1.2260967139	-2.0261870843	-1.7882067466	 0.252227
H	-0.92619754	-4.3752560341	-2.636613067	 0.130992
H	 0.3555487969	-4.5098223818	-1.4090127914	 0.175023
H	-1.348916618	-4.3991727421	-0.9071676597	 0.130864
55.0571	74.1935	99.0637	112.4871	196.2367	234.6385	244.9688	320.3376	380.9845	399.1284	482.1319	496.36	524.8706	677.5785	762.5379	788.4558	883.1312	933.3361	1002.2214	1054.6264	1076.1035	1123.829	1154.4964	1168.9348	1172.3473	1242.397	1287.4969	1289.3352	1345.7014	1381.8458	1407.0884	1441.5169	1451.4891	1475.6192	1495.4752	1498.2869	1499.1581	1510.435	1574.606	1764.0443	2963.5592	3018.6317	3032.5545	3035.777	3062.2154	3086.4821	3101.1821	3130.5632	3159.3118	3638.8225	3644.9127
CCC(O)C(=O)NC	CC[C@@H](O)C(=O)NC	
InChI=1S/C5H11NO2/c1-3-4(7)5(8)6-2/h4,7H,3H2,1-2H3,(H,6,8)	InChI=1S/C5H11NO2/c1-3-4(7)5(8)6-2/h4,7H,3H2,1-2H3,(H,6,8)/t4-/m1/s1
