19
gdb 62142	5.82945	0.58033	0.55391	1.8105	78.57	-0.2483	-0.0346	0.2137	1910.7183	0.15676	-419.207425	-419.197129	-419.196185	-419.244209	35.086	
C	 0.0552197986	 1.4942634871	-0.1599203606	-0.343335
N	-0.0339206001	 0.0474009125	 0.0192256566	-0.068809
C	 0.6700529537	-0.4283586101	 1.2082319362	-0.142545
C	 2.1913060609	-0.2383978624	 1.1120717115	-0.291346
C	 2.916371238	-1.0768081541	 2.1432109257	 0.156791
O	 3.6947176541	-0.6497999485	 2.9542590208	-0.227586
C	-1.4192878048	-0.4085876824	 0.0265539503	-0.279607
C	-2.0773310988	-0.1895735717	-1.2672855505	 0.27549
N	-2.6090809406	-0.0143867641	-2.2774357502	-0.304194
H	 1.0985765376	 1.7931058118	-0.2756115078	 0.13549
H	-0.4765262437	 1.7830310582	-1.0696894078	 0.153091
H	-0.3757756838	 2.0564793349	 0.6893721376	 0.102171
H	 0.2977252086	 0.0564977337	 2.1312692811	 0.099705
H	 0.4589138625	-1.5004713549	 1.3087178908	 0.10694
H	 2.5112277838	-0.5789896938	 0.1174812795	 0.136917
H	 2.4960546436	 0.8019693781	 1.2422979851	 0.129988
H	 2.674215067	-2.1654777514	 2.0986046223	 0.07548
H	-1.4393903127	-1.4840161947	 0.2343769725	 0.153978
H	-2.0366786439	 0.0785811619	 0.8065109268	 0.131382
43.6548	60.6143	78.7269	114.6754	134.6324	221.3444	247.1512	303.5585	354.9626	370.4294	394.4994	422.5676	538.2152	598.6013	792.8851	855.0046	865.3231	938.596	991.675	1018.2917	1059.7973	1082.7519	1109.9102	1154.7482	1186.5486	1214.5728	1245.419	1297.6646	1300.6712	1339.3625	1377.3627	1426.7421	1430.8591	1464.141	1468.3867	1474.3478	1497.8306	1502.7777	1509.4877	1840.7458	2367.1943	2850.2045	2915.9432	2923.755	2940.6355	3027.5841	3038.1594	3066.9035	3093.1007	3119.8802	3136.8243
CN(CCC=O)CC#N	CN(CCC=O)CC#N	
InChI=1S/C6H10N2O/c1-8(5-3-7)4-2-6-9/h6H,2,4-5H2,1H3	InChI=1S/C6H10N2O/c1-8(5-3-7)4-2-6-9/h6H,2,4-5H2,1H3
