19
gdb 55688	3.1609	1.08211	1.06657	2.3565	71.67	-0.2523	0.0077	0.2601	1245.982	0.156489	-460.183254	-460.173623	-460.172679	-460.218378	34.217	
C	 1.107190382	 1.4280978608	-1.5401937711	-0.476158
C	 1.1735036404	-0.0728209123	-1.6820936339	 0.415933
O	 2.08132375	-0.6907744291	-2.1807758507	-0.356053
O	 0.0597273169	-0.6490416581	-1.1777305403	-0.28916
C	-0.0181254405	-2.084766016	-1.2295395705	 0.376308
C	 0.8579165655	-2.7195574733	-0.163341955	-0.456546
C	-1.4826511582	-2.560828216	-1.2511425443	-0.120304
O	-1.2357063027	-3.3612378107	-2.4235672739	-0.277317
C	 0.0478252286	-2.7291304342	-2.6311357238	-0.107263
H	 0.22307321	 1.8144427641	-2.055113574	 0.151939
H	 1.0128939324	 1.7008248304	-0.485240086	 0.151177
H	 2.0082009392	 1.8722808287	-1.9611027712	 0.150136
H	 0.5908947744	-2.3358227287	 0.8264342723	 0.121747
H	 0.7095676164	-3.8033149968	-0.1645686098	 0.132442
H	 1.9120076226	-2.51131099	-0.356768522	 0.149573
H	-1.8225551295	-3.1602513022	-0.3995640811	 0.105147
H	-2.193261774	-1.7461714551	-1.4409863738	 0.104811
H	 0.0223926939	-2.0047241979	-3.4527332958	 0.106886
H	 0.8495939625	-3.4523774336	-2.8038958051	 0.116702
61.6369	87.5897	105.7454	126.2636	166.4272	248.0315	304.7107	322.8022	375.3526	415.1003	449.6947	588.9508	612.7353	726.7718	842.3713	882.7969	922.7636	930.2355	952.898	1004.125	1010.756	1025.0105	1038.229	1064.3546	1148.8027	1161.7117	1205.1106	1221.8826	1269.2887	1286.3567	1302.9711	1377.8681	1395.6635	1406.1938	1468.6954	1475.9763	1484.5737	1498.7717	1504.826	1526.4832	1814.9008	3015.1935	3038.8578	3044.9961	3057.661	3073.0807	3096.9695	3115.7169	3122.5984	3139.7133	3170.3501
CC(=O)OC1(C)COC1	CC(=O)OC1(C)COC1	
InChI=1S/C6H10O3/c1-5(7)9-6(2)3-8-4-6/h3-4H2,1-2H3	InChI=1S/C6H10O3/c1-5(7)9-6(2)3-8-4-6/h3-4H2,1-2H3
