19
gdb 107811	3.37113	1.54178	1.32579	0.9189	79.13	-0.2249	0.0163	0.2412	1021.5024	0.159867	-385.847113	-385.839609	-385.838665	-385.878823	30.401	
C	 0.0444849692	 1.3534011267	 0.1447794583	-0.263797
O	-0.0021302666	-0.0387923703	-0.0873137594	-0.31286
C	-1.284298275	-0.5863211742	-0.1049846131	 0.412783
C	-2.1185098572	-0.5845566551	 1.2472598765	-0.285198
C	-2.4280825299	-2.0542948419	 0.9897545949	-0.078866
C	-2.7609624602	-2.3357434234	-0.5032494391	-0.087022
C	-3.1242768575	-1.1886494593	-1.3817124609	-0.076476
C	-2.2461747246	-0.1949742181	-1.2132237542	-0.177856
C	-1.3400470751	-2.1459522863	-0.0489384538	-0.135492
H	 1.0992856918	 1.6303986514	 0.207475504	 0.127878
H	-0.4200605441	 1.9265894023	-0.6699845446	 0.110238
H	-0.4505787078	 1.6277024373	 1.0876215692	 0.111329
H	-1.4288254355	-0.4978977046	 2.0915153366	 0.108692
H	-2.9407639635	 0.1310211705	 1.3495802247	 0.087162
H	-2.7127310413	-2.7797854153	 1.7424959404	 0.087831
H	-3.1273410237	-3.3358678553	-0.7037894771	 0.085448
H	-4.0062943269	-1.1689090352	-2.0100456694	 0.097613
H	-2.3004776382	 0.7951972255	-1.6474293404	 0.096197
H	-0.512990184	-2.8320891346	-0.1808029225	 0.092395
97.4398	185.5814	208.277	313.485	369.5449	394.5678	431.7325	556.4314	616.7148	709.8476	718.954	742.8049	764.9713	788.3252	830.2002	902.2418	929.2081	941.6899	975.9053	980.9138	1002.9322	1019.7577	1052.028	1073.1617	1088.4802	1111.2719	1133.8767	1172.9578	1182.2883	1207.3966	1219.6309	1251.7625	1277.1776	1306.7003	1368.2118	1374.9501	1476.1432	1485.0228	1492.0472	1507.4382	1643.0751	2989.4671	3037.8303	3041.4368	3104.5131	3117.5855	3176.2926	3181.4813	3196.826	3199.7092	3223.2699
COC12CC3C(C=C1)C23	CO[C@@]12C[C@H]3[C@@H](C=C1)[C@@H]23	
InChI=1S/C8H10O/c1-9-8-3-2-5-6(4-8)7(5)8/h2-3,5-7H,4H2,1H3	InChI=1S/C8H10O/c1-9-8-3-2-5-6(4-8)7(5)8/h2-3,5-7H,4H2,1H3/t5-,6+,7-,8-/m1/s1
