16
gdb 11021	4.41099	1.73052	1.44995	1.9449	65.94	-0.2292	0.0173	0.2466	887.0132	0.131287	-379.923347	-379.916045	-379.915101	-379.954388	28.331	
C	 0.0471869114	 1.5069098099	-0.0428871092	-0.489418
C	-0.0632372531	 0.0189522998	 0.1305235127	 0.413478
C	-1.3496874424	-0.747184866	-0.1873727266	-0.215632
N	-1.3387369695	-1.975695481	 0.6165777856	-0.302132
C	-0.3048962523	-1.9576267077	 1.3739342908	 0.395711
N	-0.0507836923	-2.8844532774	 2.3562905492	-0.579607
C	 0.6111246285	-0.784727216	 1.1639224547	-0.157356
O	 1.1040283024	-0.7576970592	-0.1902715603	-0.288643
H	 1.0302437655	 1.8612779475	 0.2768116927	 0.131211
H	-0.0862395096	 1.7821156245	-1.0949027919	 0.132403
H	-0.7220334977	 2.024398831	 0.5392649941	 0.127209
H	-2.2346950406	-0.145508469	 0.0594818048	 0.104409
H	-1.41333766	-0.9928901125	-1.2542037182	 0.116289
H	-0.6403994482	-3.7042997999	 2.310577178	 0.257949
H	 0.9201237047	-3.0914033635	 2.5362231063	 0.255517
H	 1.279172263	-0.3997145705	 1.9298387572	 0.098612
154.6173	187.1885	263.3441	265.2898	361.2614	404.9675	416.4762	443.2642	563.2709	605.8201	672.6349	721.4608	790.4236	839.9971	896.2706	923.0526	971.0295	984.9426	1013.803	1060.3183	1104.1234	1174.7695	1215.5567	1231.3768	1247.7903	1319.0097	1402.6278	1422.5085	1451.3163	1475.766	1484.6363	1496.1181	1627.781	1715.3749	3018.3203	3037.2425	3057.9065	3099.8858	3124.1305	3150.1065	3560.4646	3672.0817
CC12CN=C(N)C1O2	C[C@]12CN=C(N)[C@H]1O2	
InChI=1S/C5H8N2O/c1-5-2-7-4(6)3(5)8-5/h3H,2H2,1H3,(H2,6,7)	InChI=1S/C5H8N2O/c1-5-2-7-4(6)3(5)8-5/h3H,2H2,1H3,(H2,6,7)/t3-,5+/m1/s1
