17
gdb 66439	2.57398	1.72095	1.36202	1.1406	72.13	-0.2158	0.0669	0.2827	988.4613	0.133232	-421.70868	-421.700437	-421.699493	-421.740806	32.544	
C	-0.1090244837	 1.5002435618	-0.0222329708	-0.526271
C	-0.0154705369	 0.0115253349	 0.0385928567	 0.198823
C	-0.0682166837	-1.0257018397	-1.1015715997	-0.237113
C	 0.8354214128	-1.983869985	-0.2792883959	-0.136217
C	-0.2096070091	-2.0291551816	 0.8488420042	-0.292361
C	 0.901202774	-0.9838382326	 0.8493527465	 0.345267
O	 1.9381891243	-0.77498604	 1.7215037084	-0.448339
C	-1.1036346424	-1.0390343836	 0.0229053002	 0.330643
O	-2.4537448521	-0.8008179429	 0.0213534232	-0.45221
H	 0.8253913333	 1.9496554191	-0.3761815866	 0.125209
H	-0.9099126437	 1.8017729703	-0.7053694963	 0.130774
H	-0.3375873746	 1.9299770783	 0.9601058253	 0.118667
H	-0.1687554847	-0.8424980501	-2.164309036	 0.085091
H	 1.5386362741	-2.753306373	-0.5692774124	 0.091096
H	-0.4174495928	-2.830269025	 1.5464220787	 0.08989
H	 1.5717775896	-0.5408793373	 2.5822086585	 0.288903
H	-2.8885693144	-1.5093455435	-0.4677850041	 0.288149
162.9309	181.228	186.6938	219.5272	309.7696	316.9964	369.747	403.6368	455.3491	539.9387	630.8868	643.7236	705.8454	758.6944	799.8758	813.8985	857.5028	864.3329	888.7376	897.562	915.6128	986.6077	1040.4367	1093.4058	1101.2115	1117.4078	1180.05	1206.5088	1223.7265	1284.5497	1299.6801	1345.7796	1412.4598	1453.6138	1477.5572	1486.5928	1501.7129	3022.9478	3080.727	3098.4781	3185.9591	3196.7632	3205.8441	3775.9938	3781.7964
CC12C3C4C(C14O)C23O	C[C@@]12[C@H]3[C@@H]4[C@@H]([C@]14O)[C@@]23O	
InChI=1S/C7H8O2/c1-5-3-2-4(6(2,5)8)7(3,5)9/h2-4,8-9H,1H3	InChI=1S/C7H8O2/c1-5-3-2-4(6(2,5)8)7(3,5)9/h2-4,8-9H,1H3/t2-,3-,4+,5-,6+,7-/m1/s1
