18
gdb 71523	2.51733	1.58076	1.4453	2.0454	83.78	-0.2317	0.0227	0.2544	1021.293	0.146358	-364.687944	-364.679881	-364.678937	-364.720109	31.914	
C	 0.0031345289	 1.5235458767	-0.0108433368	-0.523888
C	 0.0303675916	 0.0194057204	-0.040051607	 0.27156
C	 0.5144283004	-0.944986984	-1.1193693676	-0.231447
N	 0.029655017	-1.9435470192	-0.0747185192	-0.184349
C	 0.5290363429	-0.9911649527	 1.0445961371	-0.065627
C	-0.8123046159	-1.062447086	 1.7736476969	-0.311316
C	-1.1565171624	-0.9786804743	 0.277372613	 0.232731
C	-2.4267329498	-1.0560581549	-0.3748980679	 0.100054
C	-3.4984381442	-1.0944999229	-0.920941791	-0.3639
H	 1.0124253099	 1.9342748619	-0.124680867	 0.124469
H	-0.6142799808	 1.9166930009	-0.8256340371	 0.131484
H	-0.407871365	 1.897663237	 0.9331126533	 0.123304
H	-0.0433957343	-0.9918367113	-2.0599662907	 0.10865
H	 1.5923748311	-1.0059104614	-1.3040250597	 0.097634
H	 1.5425525264	-1.0973546527	 1.4330054038	 0.085539
H	-1.0491455592	-2.0130090879	 2.2574996859	 0.116456
H	-1.0973025876	-0.2075630261	 2.3908110129	 0.104576
H	-4.444446799	-1.1387591735	-1.4015523191	 0.184072
119.1695	142.4326	195.5075	252.4177	286.5749	390.1927	431.2241	506.7142	517.9689	574.6265	627.9568	637.3741	656.3029	700.9259	783.331	873.4423	879.7843	889.4413	924.5943	940.4143	994.7869	1021.2242	1039.6861	1086.5854	1132.7693	1152.3752	1161.2348	1189.6341	1223.2575	1238.5953	1260.468	1291.3489	1334.4125	1407.9447	1484.5589	1486.7664	1492.8293	1517.6904	2228.627	3027.551	3037.9986	3064.1157	3095.7484	3098.2942	3099.2505	3113.6099	3131.4255	3500.6044
CC12CN3C1CC23C#C	C[C@@]12CN3[C@@H]1C[C@@]23C#C	
InChI=1S/C8H9N/c1-3-8-4-6-7(8,2)5-9(6)8/h1,6H,4-5H2,2H3	InChI=1S/C8H9N/c1-3-8-4-6-7(8,2)5-9(6)8/h1,6H,4-5H2,2H3/t6-,7-,8+/m1/s1
