18
gdb 10119	3.06147	1.15264	0.90571	3.3274	69.77	-0.2576	-0.0386	0.219	1274.7392	0.149896	-384.961657	-384.951959	-384.951015	-384.997768	32.438	
C	-0.0820618285	 1.5873057001	 0.1557312307	-0.394986
C	-0.0033869264	 0.0638422743	 0.0201568679	-0.194048
C	 0.7441102827	-0.4071244625	-1.2468585244	-0.06721
C	 0.9278254255	-1.942700247	-1.234082909	-0.3056
C	 1.8617978506	-2.4433447856	-2.3168428502	 0.155881
O	 2.7617625228	-3.2192888554	-2.1267150887	-0.23555
C	-0.0480123368	 0.0061164325	-2.4749041047	 0.164986
O	 0.3313057956	 0.7511468387	-3.3395688608	-0.246991
H	 0.9180957155	 2.0302950959	 0.2031353064	 0.127659
H	-0.6034232736	 2.0454708761	-0.690807516	 0.132379
H	-0.6164507077	 1.8673523231	 1.0680508639	 0.121937
H	 0.5044298732	-0.3610468152	 0.8933958205	 0.112118
H	-1.0141438674	-0.3668603236	 0.0176132946	 0.10527
H	 1.7202756474	 0.087592386	-1.3027586253	 0.104819
H	 1.3084663454	-2.2835506092	-0.2672578979	 0.129747
H	-0.050361269	-2.4240875672	-1.3900858361	 0.125578
H	 1.6592772189	-2.0409032455	-3.3357298095	 0.090876
H	-1.0691290783	-0.4485239656	-2.5142515313	 0.073135
47.3284	59.1094	64.8977	105.074	159.5874	220.2723	272.119	335.3088	354.4792	389.4825	478.2306	567.7642	770.1319	786.35	879.3922	917.0028	983.9163	1004.4269	1032.0023	1045.9285	1113.539	1136.014	1157.8927	1214.121	1263.6599	1279.6913	1337.6776	1351.5446	1371.0642	1420.1826	1422.9486	1436.4009	1457.5535	1488.2034	1499.9026	1504.2279	1834.5207	1836.4163	2826.9128	2875.4301	3000.6293	3018.6593	3039.4761	3053.6814	3064.7732	3097.4348	3108.0782	3113.2164
CCC(CC=O)C=O	CC[C@@H](CC=O)C=O	
InChI=1S/C6H10O2/c1-2-6(5-8)3-4-7/h4-6H,2-3H2,1H3	InChI=1S/C6H10O2/c1-2-6(5-8)3-4-7/h4-6H,2-3H2,1H3/t6-/m0/s1
