22
gdb 90483	3.78065	1.02668	0.97213	1.0476	87.82	-0.2332	0.0908	0.324	1349.0135	0.194608	-367.150806	-367.142187	-367.141243	-367.184252	33.579	
C	-0.2717096103	 1.4132801399	 0.2677539188	-0.40902
C	 0.0099833132	-0.068782575	 0.0562534235	 0.045363
C	 1.0653260373	-0.373540305	-1.0581172002	-0.242706
C	 2.0010025225	-0.9739796144	-0.0021196571	-0.100294
C	 0.9617650679	-0.6827716399	 1.0985250072	-0.105358
C	 1.3283655401	-2.0915253935	 0.7397285362	 0.05087
N	 0.3914241928	-2.9683597486	 0.0905286254	-0.06022
C	 0.8408247552	-4.3350322581	-0.1519252164	-0.22331
C	-0.1654087246	-4.0423114347	 0.9063568915	-0.223058
H	 0.658540949	 1.9782551512	 0.3995987026	 0.110699
H	-0.8038797866	 1.8380211194	-0.5905859461	 0.110844
H	-0.8888102839	 1.5771430558	 1.158708505	 0.109038
H	-0.9286508573	-0.6189799416	-0.0589733612	 0.075415
H	 0.7528256602	-1.0488384643	-1.8584612851	 0.101654
H	 1.4646759276	 0.5446632599	-1.4971484481	 0.092482
H	 3.0788064274	-0.8578903574	 0.0203298777	 0.077625
H	 1.1081479247	-0.2973383931	 2.1023980363	 0.074942
H	 1.9805757655	-2.5676911429	 1.4803207131	 0.066751
H	 0.5375831265	-4.77389507	-1.0983469047	 0.115267
H	 1.8436892915	-4.6057583197	 0.1750544745	 0.108905
H	 0.1640233023	-4.1170889735	 1.9415738962	 0.108913
H	-1.2171116209	-4.2631647242	 0.7470301108	 0.115198
66.7516	112.286	159.7443	235.4391	256.6628	291.2454	313.3933	402.6569	512.3098	584.5342	707.2082	746.9859	792.3876	807.752	857.2334	873.8163	889.8692	905.5785	940.0004	986.3438	995.5511	1002.4561	1019.4069	1049.2734	1075.082	1085.6994	1112.9836	1116.2659	1121.0896	1143.1369	1150.5983	1174.9334	1201.8672	1220.478	1253.3684	1262.3325	1297.1309	1326.9091	1330.1549	1368.1534	1408.8166	1439.8755	1481.434	1492.2467	1493.695	1499.799	1520.4808	3020.1743	3034.3206	3054.3452	3057.7789	3087.2261	3091.9754	3092.6332	3096.9057	3109.526	3157.3289	3171.8668	3174.494	3189.0385
CC1CC2C1C2N1CC1	C[C@H]1C[C@H]2[C@@H]1[C@H]2N1CC1	
InChI=1S/C8H13N/c1-5-4-6-7(5)8(6)9-2-3-9/h5-8H,2-4H2,1H3	InChI=1S/C8H13N/c1-5-4-6-7(5)8(6)9-2-3-9/h5-8H,2-4H2,1H3/t5-,6-,7+,8-/m0/s1
