19
gdb 65783	3.17158	1.03156	0.99499	3.1568	72.08	-0.2684	0.0019	0.2703	1271.9542	0.158459	-460.189416	-460.180462	-460.179517	-460.223948	32.628	
C	-0.0194161624	 1.6156240708	-0.0343040257	-0.438718
C	-0.0043490407	 0.089426075	 0.0174394534	 0.373631
C	 0.7452206568	-0.5286598772	-1.1926990613	-0.285382
C	 1.9083889525	-1.3104177056	-0.5545920349	-0.083545
O	 2.1007183527	-0.7134183636	 0.7242397894	-0.242544
C	 0.8038469409	-0.4678321343	 1.2230791731	-0.130945
O	-1.3611017633	-0.4253383082	-0.021016106	-0.232431
C	-2.1519744093	-0.2498809689	 1.0514964518	 0.158795
O	-3.2855635047	-0.628854759	 1.0817439163	-0.277693
H	 1.0095333513	 1.9873463699	-0.0239872848	 0.138089
H	-0.507174641	 1.9634882043	-0.9493678961	 0.135901
H	-0.5447070815	 2.0473680645	 0.8232805305	 0.121311
H	 0.0686491047	-1.1632071446	-1.7668058518	 0.132651
H	 1.1148668416	 0.2597373559	-1.8520853498	 0.114218
H	 1.6524427781	-2.3753650779	-0.4424582966	 0.101841
H	 2.8485463972	-1.2354569546	-1.1046179051	 0.11656
H	 0.8901875574	 0.2285505339	 2.0608707932	 0.114806
H	 0.3285700753	-1.398341158	 1.5754955025	 0.10239
H	-1.6555966656	 0.2686983377	 1.892902842	 0.081066
35.2227	100.6238	164.8841	177.9793	250.1648	280.2182	340.818	356.5793	392.0608	455.5782	514.6133	649.4596	708.6266	793.2775	845.0374	940.0329	947.4018	966.4161	978.9124	1002.9109	1038.7526	1047.5337	1112.0853	1160.5827	1177.0489	1189.7164	1217.5874	1246.0054	1264.0087	1294.3026	1333.3925	1361.839	1396.6161	1412.0807	1437.6242	1485.0891	1491.6927	1494.2705	1503.629	1521.7577	1859.2424	2959.5494	2970.8588	2988.345	3039.2681	3076.7916	3097.734	3108.5628	3112.3603	3121.6012	3134.6062
CC1(CCOC1)OC=O	C[C@]1(CCOC1)OC=O	
InChI=1S/C6H10O3/c1-6(9-5-7)2-3-8-4-6/h5H,2-4H2,1H3	InChI=1S/C6H10O3/c1-6(9-5-7)2-3-8-4-6/h5H,2-4H2,1H3/t6-/m1/s1
