18
gdb 37400	2.87283	2.19469	1.77525	2.9157	73.06	-0.2157	0.0636	0.2793	830.804	0.153615	-398.041662	-398.035895	-398.034951	-398.07137	25.725	
N	-0.0290251812	 1.4796504805	 0.0454947069	-0.354399
C	 1.2916472897	 0.8011760786	-0.0342319834	-0.04606
C	 0.0354420835	 0.0102629344	-0.0258070785	-0.027342
C	-0.1542567986	-0.7272453258	-1.3440723229	-0.042932
N	 1.0184950564	-1.6561241236	-1.4695771406	-0.310531
C	 1.7458212483	-0.5943047579	-2.1642381279	 0.000396
C	 1.9303892969	 0.8306009189	-1.4261648737	-0.043506
N	 0.9840980522	 1.3925600463	-2.4236530392	-0.305653
C	 0.4301012807	 0.0542374909	-2.6137376974	-0.002523
H	-0.2099859958	 1.7578157557	 1.00638747	 0.234358
H	 1.9350366862	 0.8282975051	 0.8395703435	 0.085179
H	-0.2482411144	-0.5500923937	 0.8634148247	 0.088312
H	-1.1275004453	-1.2127572412	-1.4497995347	 0.066285
H	 1.4081701909	-1.961895767	-0.5785177487	 0.204083
H	 2.5627582106	-0.8866231659	-2.8239865926	 0.080951
H	 2.9258936277	 1.2814222467	-1.4306560701	 0.062428
H	 0.3431402484	 2.0667744317	-2.0123913011	 0.231792
H	-0.0828767062	-0.1584074538	-3.5526308843	 0.079163
284.4217	343.5343	397.1679	484.1196	546.9185	622.9492	653.5451	700.5882	730.8087	784.1816	817.266	828.2529	854.9709	898.0613	915.0136	934.6244	984.6458	1004.6212	1013.6139	1015.5409	1024.545	1073.7461	1084.1505	1117.9996	1126.6945	1153.7721	1177.3111	1202.2114	1226.2547	1237.4787	1258.0307	1294.5159	1312.581	1318.8663	1336.7845	1356.7681	1386.0169	1406.1567	1439.0998	3068.5764	3070.1134	3099.3506	3113.5812	3116.8577	3157.5957	3452.412	3495.7462	3506.9531
N1C2C1C1NC3C2NC13	N1[C@H]2[C@@H]1[C@@H]1N[C@@H]3[C@H]2N[C@H]13	
InChI=1S/C6H9N3/c7-1-2(7)4-6-5(9-4)3(1)8-6/h1-9H	InChI=1S/C6H9N3/c7-1-2(7)4-6-5(9-4)3(1)8-6/h1-9H/t1-,2+,3-,4-,5+,6+/m0/s1
