15
gdb 50067	2.6241	1.39423	1.18673	3.9147	69.94	-0.2558	-0.0718	0.184	1066.35	0.110453	-453.925424	-453.916781	-453.915837	-453.959395	30.194	
N	 0.2469266118	 1.5138804454	-0.4878029215	-0.478828
C	 0.2019469471	 0.3082304803	-0.0771988889	 0.271092
C	-1.1350157601	-0.3781765168	-0.2092085849	 0.161355
O	-1.3528110866	-1.5198678095	 0.1048376616	-0.256213
N	 1.1888083208	-0.4075569132	 0.5927797224	-0.091364
C	 1.5598836791	-1.7696403529	 0.3626535269	-0.2179
C	 2.5535924158	-0.6394579332	 0.1442244491	-0.133836
C	 2.9291354756	-0.3710125775	-1.2791685073	 0.136661
O	 2.1404839708	-0.3716024243	-2.1915410856	-0.249638
H	 1.177947215	 1.9207085488	-0.3749518937	 0.223432
H	-1.8999843244	 0.2947231863	-0.6414563654	 0.117788
H	 1.6638344489	-2.3945506553	 1.2445577271	 0.140679
H	 1.19349346	-2.2585291584	-0.5344160716	 0.161449
H	 3.3284135073	-0.4605784285	 0.8852262043	 0.117204
H	 4.0115450691	-0.1820959613	-1.4438196326	 0.098118
54.9769	130.9162	134.5974	162.3924	197.1427	266.1342	317.6172	348.3338	482.6908	562.2496	644.6419	668.0631	772.9941	835.0964	901.4395	922.7599	962.7899	1003.0107	1046.3539	1055.6698	1080.9011	1108.9563	1132.9014	1158.5589	1300.1185	1359.8105	1378.8275	1418.0432	1427.8103	1499.3365	1691.7796	1813.091	1819.517	2905.2354	2966.8979	3122.165	3149.0708	3222.1823	3458.1231
N=C(C=O)N1CC1C=O	[NH][C](C=O)N1C[C@H]1C=O	
InChI=1S/C5H6N2O2/c6-5(3-9)7-1-4(7)2-8/h2-4,6H,1H2	InChI=1S/C5H6N2O2/c6-5(3-9)7-1-4(7)2-8/h2-4,6H,1H2/t4-,7?/m0/s1
