18
gdb 117069	4.64551	0.75478	0.65731	0.8673	72.37	-0.2414	-0.0615	0.1799	1701.1049	0.144615	-476.252231	-476.241655	-476.240711	-476.289112	35.179	
C	-0.0231062819	 1.4388974128	-0.0201585978	-0.335171
N	 0.1384814662	 0.0024454857	 0.04547169	-0.305872
C	 0.6316563527	-0.6397728949	 1.1234103678	 0.323621
O	 1.0030771076	-0.1287971827	 2.1682003608	-0.376415
C	 0.6905626929	-2.1680833684	 0.9121203963	 0.263999
O	 0.3229833359	-2.6722744628	-0.1209337294	-0.292685
C	 1.2382521032	-2.9345023075	 2.0960006421	-0.149049
O	 1.2530686202	-4.299478935	 1.8132420999	-0.220255
C	 1.7548474775	-5.070298133	 2.8818719881	-0.226334
H	 0.5713055767	 1.8671031712	-0.8345083096	 0.134715
H	-1.0727384788	 1.7127195612	-0.1724746725	 0.13472
H	 0.3199240002	 1.8538536855	 0.9288254737	 0.16953
H	-0.118458543	-0.5888635909	-0.7325749734	 0.26755
H	 2.2415427813	-2.5338807325	 2.3254178388	 0.130104
H	 0.6199346438	-2.6864324033	 2.97683417	 0.130113
H	 2.7932438403	-4.7992567714	 3.1285186323	 0.108664
H	 1.1443047913	-4.9543483406	 3.7909141172	 0.108665
H	 1.7262413036	-6.1153229234	 2.5659811654	 0.1341
52.2049	83.8536	93.842	100.6881	117.4044	144.309	233.9538	234.2956	302.2534	346.785	387.8782	430.0882	522.2052	630.5254	720.9899	762.3475	864.9845	951.1004	1002.5778	1037.8875	1149.1292	1152.2245	1173.6132	1182.6932	1183.505	1232.7953	1241.9302	1261.999	1409.3685	1444.0105	1454.4458	1486.8441	1488.1417	1494.5069	1497.2866	1511.746	1573.1552	1780.2393	1820.3136	2957.8917	2975.4959	2976.0641	3020.3949	3031.1633	3085.2802	3121.7869	3148.4346	3604.139
CNC(=O)C(=O)COC	CNC(=O)C(=O)COC	
InChI=1S/C5H9NO3/c1-6-5(8)4(7)3-9-2/h3H2,1-2H3,(H,6,8)	InChI=1S/C5H9NO3/c1-6-5(8)4(7)3-9-2/h3H2,1-2H3,(H,6,8)
