18
gdb 74245	3.17599	1.26622	1.04142	2.1	84.06	-0.2289	0.0144	0.2433	1191.5709	0.147324	-364.7604	-364.752019	-364.751075	-364.793212	32.416	
C	-0.107219291	 1.5298339315	 0.1075296373	-0.500329
C	-0.037243251	 0.0388020247	 0.0232931617	 0.364548
C	 0.0876719113	-0.7153601	-1.0718778822	-0.190897
C	 0.1148652519	-2.2122112249	-0.7670025458	-0.208036
C	 1.2364667717	-2.9262982564	-1.3703152685	 0.348809
C	 2.1444683697	-3.5223511118	-1.884594157	-0.481158
C	 0.0965322511	-2.2343346355	 0.7700681084	-0.054137
N	 1.2466858818	-1.5653334202	 1.4019723115	-0.320436
C	-0.0440798462	-0.8348420314	 1.2416813544	-0.156862
H	 0.7378322504	 1.9286071282	 0.6824314944	 0.136683
H	-0.0941403526	 1.990026418	-0.8838269738	 0.126524
H	-1.0198532305	 1.8568856052	 0.6218158094	 0.123607
H	 0.1967041153	-0.3457832589	-2.084796864	 0.101845
H	-0.8151720511	-2.6757306397	-1.1310210454	 0.108005
H	 2.9569446644	-4.0425711806	-2.3276130923	 0.191624
H	-0.3683872864	-3.0729488874	 1.2757252024	 0.0938
H	 1.3181469383	-1.903458318	 2.360594468	 0.229174
H	-0.6092824569	-0.5622985428	 2.1274824018	 0.087236
96.0781	128.4057	182.5917	201.8768	299.0562	323.0936	363.0932	481.8183	544.3872	575.1513	600.1198	617.4244	632.7445	754.812	811.9886	834.8137	848.4829	874.9542	908.8536	940.5449	1005.1625	1020.7678	1054.776	1060.5049	1075.7337	1131.2634	1163.9215	1193.7658	1243.0375	1270.8981	1287.4362	1316.7036	1379.3073	1411.7968	1415.949	1479.0043	1488.0753	1710.4035	2237.6356	2982.3774	3019.2372	3066.8356	3114.4219	3158.9142	3176.0815	3202.1107	3475.8499	3505.6087
CC1=CC(C#C)C2NC12	CC1=C[C@@H](C#C)[C@H]2N[C@@H]12	
InChI=1S/C8H9N/c1-3-6-4-5(2)7-8(6)9-7/h1,4,6-9H,2H3	InChI=1S/C8H9N/c1-3-6-4-5(2)7-8(6)9-7/h1,4,6-9H,2H3/t6-,7+,8-/m1/s1
