23
gdb 96101	2.56887	1.3163	1.00209	1.4659	85.38	-0.2571	0.0776	0.3347	1270.3444	0.207669	-388.302742	-388.294108	-388.293164	-388.335469	35.094	
O	-0.1077971718	 1.43150638	 0.0203932473	-0.440239
C	 0.0049376277	 0.0130126799	 0.0092381115	 0.133112
C	 0.8094784103	-0.5120962623	 1.2048036866	-0.214118
C	 0.825681861	-2.0476455272	 1.2414019159	-0.207055
C	-0.6034707191	-2.6133101648	 1.2474243175	-0.267277
C	-1.4124893759	-2.0679689489	 0.080545461	 0.397147
C	-1.3940632161	-2.8359899219	-1.2228029092	-0.301914
C	-2.6404607071	-2.8138218555	-0.3678896978	-0.336175
C	-1.4180814503	-0.5489250376	 0.0229270808	-0.270699
H	 0.7816846531	 1.7990445051	 0.0379711276	 0.276444
H	 0.5008351154	-0.3196300734	-0.9191984855	 0.061285
H	 1.8344696009	-0.1200721019	 1.1642495135	 0.077212
H	 0.3535275382	-0.1172140016	 2.1225139361	 0.099911
H	 1.3603726895	-2.4282708851	 0.3610372562	 0.096742
H	 1.3782294838	-2.398702618	 2.1197158143	 0.091857
H	-0.5811707896	-3.7085081439	 1.2150490614	 0.086973
H	-1.0970554133	-2.3372082655	 2.1904589083	 0.092927
H	-1.403747551	-2.2762063094	-2.1524394904	 0.108374
H	-0.8243189967	-3.7586699884	-1.2687307494	 0.105935
H	-2.9102315655	-3.7212833198	 0.1629131319	 0.106448
H	-3.4899366057	-2.2370574451	-0.7193069323	 0.108792
H	-1.9355363249	-0.1394557005	 0.9014621658	 0.099138
H	-1.959551443	-0.1911622142	-0.8592233911	 0.09518
125.6689	136.7112	243.469	261.0599	283.4406	334.5732	353.2151	390.2166	432.65	448.1315	486.0154	544.5056	721.8316	784.3088	818.3792	856.6093	884.3732	893.4748	919.9539	953.1368	958.5545	974.7056	996.1016	1047.5986	1054.0636	1078.6802	1080.6113	1093.7741	1112.1051	1135.9712	1186.8414	1204.0223	1229.0519	1250.3071	1283.2497	1304.6485	1332.2572	1339.6948	1360.5309	1371.6221	1389.7294	1406.3773	1435.5911	1466.5308	1480.4959	1483.3444	1489.6636	1501.4984	1508.069	2947.8359	3003.6175	3009.7266	3018.2577	3020.4227	3051.5068	3059.1245	3069.54	3072.8032	3122.18	3126.8064	3199.2806	3213.8654	3813.5856
OC1CCCC2(CC2)C1	O[C@H]1CCCC2(CC2)C1	
InChI=1S/C8H14O/c9-7-2-1-3-8(6-7)4-5-8/h7,9H,1-6H2	InChI=1S/C8H14O/c9-7-2-1-3-8(6-7)4-5-8/h7,9H,1-6H2/t7-/m0/s1
