21
gdb 122834	2.93589	0.69782	0.6239	2.9651	76.41	-0.2547	-0.0302	0.2245	1858.4407	0.178948	-461.368303	-461.35739	-461.356446	-461.406186	37.624	
C	 0.3028884015	 0.5002901621	 0.6389881338	-0.384391
C	 1.270422152	-0.1019270371	-0.3830423449	-0.185959
C	 0.5612900366	-0.9837241291	-1.399863851	-0.049083
O	 1.5246206636	-1.47628612	-2.3224048094	-0.23716
C	 0.9872198322	-2.3119373457	-3.3167894682	-0.177358
C	 0.8836212689	-3.7792465909	-2.9111137938	 0.322068
O	 0.1623263631	-4.5523987821	-3.5045835751	-0.315198
C	 1.7692995603	-4.2876117412	-1.7841143413	-0.129894
O	 1.607310974	-5.6625989548	-1.6025268235	-0.422417
H	-0.4542420827	 1.1251730391	 0.1528642242	 0.119339
H	-0.2221598759	-0.2796054191	 1.2014020273	 0.120111
H	 0.8359955202	 1.1261894298	 1.3598464827	 0.122489
H	 1.7993858607	 0.6916027829	-0.922843334	 0.11223
H	 2.036789244	-0.6992210891	 0.124113426	 0.110664
H	 0.0466259239	-1.8164899636	-0.8921796686	 0.091839
H	-0.2092211725	-0.4100021424	-1.9405099277	 0.096299
H	 0.0020431678	-1.9747269553	-3.6686857449	 0.124346
H	 1.6699872375	-2.273040918	-4.1764449562	 0.141987
H	 2.8126384058	-4.0256823901	-2.026402698	 0.123734
H	 1.5299824045	-3.7308029483	-0.8650010811	 0.122937
H	 0.9567241244	-5.9314874271	-2.2711438963	 0.293417
40.6113	45.0454	65.9935	113.6749	145.6632	193.641	205.7993	229.753	325.7521	376.0966	394.5066	405.0665	475.294	561.6194	616.4951	764.985	813.0252	836.5515	901.6522	912.46	989.1009	1054.4813	1072.5907	1115.5168	1138.2364	1154.3484	1184.6854	1194.385	1239.9411	1267.1533	1285.6648	1314.6733	1318.0448	1339.2588	1363.1018	1413.7087	1432.7934	1451.6949	1459.8537	1477.5716	1491.4645	1500.0372	1506.4185	1523.7788	1798.0488	2958.6901	2982.486	2990.1341	3003.1783	3007.5064	3033.5516	3040.8236	3053.8087	3074.1602	3102.0372	3111.9106	3680.3742
CCCOCC(=O)CO	CCCOCC(=O)CO	
InChI=1S/C6H12O3/c1-2-3-9-5-6(8)4-7/h7H,2-5H2,1H3	InChI=1S/C6H12O3/c1-2-3-9-5-6(8)4-7/h7H,2-5H2,1H3
