14
gdb 28839	3.50737	1.35637	0.98037	5.3159	83.9	-0.2194	-0.0871	0.1324	1114.2001	0.101836	-432.887014	-432.879249	-432.878304	-432.920167	28.738	
N	 0.0173844853	 1.386824026	-0.1271539593	-0.527821
C	-0.0377905402	 0.026825816	-0.0249831816	 0.378323
C	-1.2714672642	-0.6131338072	 0.0215489428	-0.055749
N	-1.5736898819	-1.9210261679	 0.048445176	-0.223197
C	-0.7782835703	-2.9459838481	 0.0059373156	-0.083691
C	 0.681558917	-3.0175323484	-0.0713953891	 0.297272
O	 1.2672453785	-4.0896668584	-0.173536281	-0.350673
C	 1.508018848	-1.7798241233	 0.0198418847	-0.040536
N	 1.2191977673	-0.5278443085	 0.0261832784	-0.296882
H	 0.9079955788	 1.8193450772	 0.0519243942	 0.272074
H	-0.8126357653	 1.9397348809	-0.0000927548	 0.269384
H	-2.1418470543	 0.0428189369	 0.0384983713	 0.097242
H	-1.2484525481	-3.9299624891	 0.0286631531	 0.124756
H	 2.5713103794	-2.0245328462	 0.0822740895	 0.139498
29.5439	122.4096	295.9393	330.6816	345.0718	377.5262	410.9924	430.3878	480.7858	513.4441	625.7777	672.5694	741.528	748.3571	865.7594	876.3955	903.8513	943.5701	998.6764	1046.553	1206.9474	1306.1869	1343.954	1377.9023	1417.5511	1443.8384	1516.3702	1617.1794	1633.0641	1676.3198	1704.9987	3108.1221	3115.0109	3124.6473	3609.8661	3739.1976
NC1=CN=CC(=O)C=N1	Nc1cncc(=O)cn1	
InChI=1S/C5H5N3O/c6-5-3-7-1-4(9)2-8-5/h1-3H,6H2	InChI=1S/C5H5N3O/c6-5-3-7-1-4(9)2-8-5/h1-3H,6H2
