16
gdb 73655	2.69914	1.60838	1.3245	2.8561	63.6	-0.251	0.0015	0.2525	983.1322	0.125492	-475.033715	-475.025869	-475.024925	-475.066335	28.961	
N	-0.1118008121	 1.4332348303	-0.1233205107	-0.594034
C	-0.0057526927	-0.0001345633	-0.0320154413	 0.101674
C	 0.7539150543	-0.7732001623	-1.1521565816	-0.151482
O	-0.2453858627	-1.4291622895	-1.9165095318	-0.246776
C	-1.251082608	-1.8880835935	-1.0167688743	-0.109464
C	-1.2810781198	-0.8727469987	 0.1227621857	 0.083755
O	-0.7596038768	-1.3925895567	 1.4034619138	-0.262776
C	 0.3008782443	-0.5286730743	 1.3738603225	 0.434461
O	 1.1121707247	-0.3208418648	 2.2178373709	-0.332658
H	 0.6266935917	 1.8692287113	 0.4198621576	 0.252729
H	-0.022228913	 1.7543731383	-1.0815131056	 0.23851
H	 1.3020029738	-0.0962918685	-1.8126651728	 0.116825
H	 1.4662296466	-1.498523533	-0.7290005297	 0.113476
H	-2.1904191632	-1.9414313405	-1.5722107248	 0.122861
H	-1.0131767733	-2.8854171788	-0.6174577338	 0.115915
H	-2.2209719339	-0.349624306	 0.2896348956	 0.116984
100.7727	134.542	150.8243	202.7547	281.0154	327.7612	396.4066	502.5961	651.2309	678.3308	695.7109	743.4169	817.6985	820.8134	868.1003	920.2226	943.124	1003.344	1004.6674	1061.3885	1099.7143	1118.7186	1140.5978	1205.5937	1215.729	1264.8056	1294.1037	1331.0926	1343.023	1363.8705	1396.9568	1499.5772	1513.0112	1651.2239	1936.4839	2982.7982	3000.3891	3092.9459	3100.9888	3140.0643	3502.9458	3585.2532
NC12COCC1OC2=O	N[C@]12COC[C@H]1OC2=O	
InChI=1S/C5H7NO3/c6-5-2-8-1-3(5)9-4(5)7/h3H,1-2,6H2	InChI=1S/C5H7NO3/c6-5-2-8-1-3(5)9-4(5)7/h3H,1-2,6H2/t3-,5-/m1/s1
