19
gdb 86254	3.03396	1.21907	0.9174	2.7939	81.13	-0.2193	-0.0654	0.1539	1287.4046	0.158961	-419.231996	-419.222744	-419.221799	-419.266258	33.167	
C	-0.3132517247	 1.4988745337	-0.0409708974	-0.38963
C	 0.0233036852	 0.0115437402	-0.0806129327	 0.046253
C	 1.0459026562	-0.392293498	-1.1776752163	-0.199968
N	 1.8766760779	-1.3744420266	-0.4763169391	-0.118199
C	 3.1437414475	-1.7780383526	-1.0553649159	-0.352417
C	 1.6218772781	-1.197686473	 0.8662275459	 0.269429
C	 2.3684749664	-1.8538912639	 1.9779507761	 0.117628
O	 3.2884125514	-2.6271179928	 1.8611988743	-0.267633
N	 0.6189527142	-0.454573255	 1.1864448773	-0.302272
H	 0.5925523504	 2.0941262375	 0.1127688525	 0.119352
H	-0.7794911006	 1.8174241887	-0.9792096789	 0.114122
H	-1.0038284067	 1.7114252374	 0.7790908054	 0.131847
H	-0.9086071241	-0.5558601195	-0.2188419775	 0.094766
H	 0.5833507328	-0.825387611	-2.0698195189	 0.113549
H	 1.6585258202	 0.467896573	-1.4978219455	 0.095297
H	 3.8042496243	-0.9146373645	-1.2356005532	 0.111619
H	 3.6451322074	-2.4746488202	-0.386578011	 0.175704
H	 2.9649065143	-2.27033766	-2.0170279587	 0.125473
H	 1.9650698898	-1.5485792633	 2.9623746637	 0.115081
75.387	98.7289	149.455	204.9277	213.3765	223.773	260.0793	303.9573	371.8376	443.9782	494.2428	590.5788	654.5069	756.1453	785.1822	862.3277	920.8074	944.6789	1019.3812	1030.9908	1091.9589	1125.5867	1138.495	1166.3108	1195.6529	1234.2317	1263.6262	1294.1643	1326.6691	1371.9448	1392.5144	1405.2778	1441.493	1466.8984	1488.0921	1496.6729	1497.9264	1512.4483	1537.4416	1645.1897	1806.1657	2957.4239	2961.8661	2978.1675	2994.5926	3037.3303	3067.7228	3069.5186	3106.879	3123.6396	3175.3668
CC1CN(C)C(C=O)=N1	C[C@H]1CN(C)[C](C=O)[N]1	
InChI=1S/C6H10N2O/c1-5-3-8(2)6(4-9)7-5/h4-5H,3H2,1-2H3	InChI=1S/C6H10N2O/c1-5-3-8(2)6(4-9)7-5/h4-5H,3H2,1-2H3/t5-/m0/s1
