17
gdb 87105	2.92937	1.19031	0.99648	4.6418	75.86	-0.2536	-0.0883	0.1652	1219.2076	0.133062	-417.993863	-417.984285	-417.983341	-418.028795	33.98	
C	-0.0889829013	 1.4835643818	-0.1954686816	-0.319395
N	 0.0924356013	 0.042991574	-0.0730457294	-0.084616
C	 1.4314058687	-0.4911516223	-0.1154944063	-0.263055
C	 0.6633111166	-0.5102010437	 1.1788422962	 0.167527
C	 1.0779903823	 0.3681734127	 2.342354098	-0.491934
C	 0.0153807818	-1.8281233582	 1.5143565046	 0.295542
O	-0.2294636275	-2.6913399976	 0.7099446252	-0.273736
C	-0.3271662066	-2.045312869	 2.9389575782	 0.223605
N	-0.6038159957	-2.2186693935	 4.0484567243	-0.318614
H	 0.7586658864	 2.0872772072	 0.1601144877	 0.108027
H	-0.2416714117	 1.7091725612	-1.2551599149	 0.141214
H	-0.988699923	 1.7860948189	 0.3478624357	 0.135947
H	 1.5528363423	-1.4188191747	-0.6673891255	 0.142584
H	 2.2698661666	 0.2044314717	-0.1575676844	 0.115078
H	 1.6153322506	 1.2529773783	 1.9994333918	 0.129566
H	 0.2136210822	 0.6969937793	 2.9279848872	 0.146081
H	 1.744141897	-0.1779213662	 3.0170114131	 0.146182
31.4094	140.1403	157.4324	172.7787	187.5941	249.6283	276.5064	306.1409	352.1487	417.5236	440.4839	462.7573	586.4081	675.1057	693.7508	803.1072	821.9484	933.3659	969.1699	1041.4292	1066.4782	1091.5076	1130.5488	1142.1821	1182.0536	1210.3905	1288.4141	1361.0072	1420.4339	1447.175	1482.6051	1485.4489	1491.1861	1498.8045	1506.6442	1784.7111	2334.0524	2993.7241	3048.6732	3080.4799	3085.6439	3108.6663	3115.1337	3143.0556	3189.7376
CN1CC1(C)C(=O)C#N	CN1C[C@]1(C)C(=O)C#N	
InChI=1S/C6H8N2O/c1-6(4-8(6)2)5(9)3-7/h4H2,1-2H3	InChI=1S/C6H8N2O/c1-6(4-8(6)2)5(9)3-7/h4H2,1-2H3/t6-,8?/m1/s1
