12
gdb 132139	3.09739	1.48049	1.0017	3.2886	65.77	-0.217	-0.0728	0.1442	1047.8272	0.076381	-513.919747	-513.912447	-513.911503	-513.951653	27.313	
O	 0.0762439899	 1.3357678195	 0.0072736437	-0.383716
C	-0.0228992578	 0.0067217254	 0.0009861637	 0.306377
C	-1.1818412932	-0.6914714425	 0.0034499681	 0.162068
F	-2.3549666315	-0.0603979451	 0.0127875676	-0.061841
N	-1.2001451892	-2.0401932353	-0.0033664336	-0.246763
C	-0.0834519718	-2.6903615761	-0.0125218517	-0.054193
C	 1.2229353776	-2.0471983884	-0.0160277748	 0.357574
N	 2.3311795402	-2.6579518424	-0.0249474204	-0.517286
O	 1.1611392802	-0.6391152165	-0.0084939663	-0.260918
H	 1.0133540173	 1.5722762344	 0.003591044	 0.317735
H	-0.0904777049	-3.7748780394	-0.0180368494	 0.15092
H	 3.1235377033	-2.0169442037	-0.0257942008	 0.230042
97.9806	188.1941	291.24	310.5436	342.2253	352.1026	458.9609	477.5098	514.8596	602.1036	641.8716	722.4095	727.1835	801.2385	826.7778	898.9374	909.4156	1044.3241	1125.1549	1231.0835	1272.7875	1334.9384	1387.7641	1418.8063	1585.3046	1709.6775	1760.0292	3197.749	3505.9332	3790.0659
OC1=C(F)N=CC(=N)O1	OC1=C(F)[N]C=C([NH])O1	
InChI=1S/C4H3FN2O2/c5-3-4(8)9-2(6)1-7-3/h1,6,8H	InChI=1S/C4H3FN2O2/c5-3-4(8)9-2(6)1-7-3/h1,6,8H
