18
gdb 91286	2.8578	1.44939	1.27483	3.86	71.31	-0.2443	0.0296	0.2739	1041.4813	0.149644	-439.119757	-439.111994	-439.11105	-439.152435	30.347	
O	-0.2399139107	 1.3875084699	 0.8214593013	-0.425119
C	-0.0502262943	 0.1537807536	 0.1695867024	 0.127039
C	 0.5561538419	-0.9967245345	 1.0259327851	-0.271199
C	-0.8257772375	-1.7055600625	 1.0386217616	-0.014422
N	-1.6766488798	-1.3637341379	 2.157479973	-0.301833
C	-2.7636426037	-0.5630899979	 1.8842605291	 0.376406
O	-3.6130869206	-0.239870008	 2.682886116	-0.369377
C	-2.6717835222	-0.1637802965	 0.4047004734	-0.353452
C	-1.3357917292	-0.7250204802	-0.0682022538	-0.048867
H	-0.5580548279	 1.2212799217	 1.7155087687	 0.2899
H	 0.4992279865	 0.3915709176	-0.7439544685	 0.093961
H	 1.3162208963	-1.5688232593	 0.486796714	 0.109163
H	 0.9614540506	-0.7035990694	 1.9985361628	 0.102735
H	-0.8281542246	-2.78059167	 0.8327276707	 0.079986
H	-1.5927691842	-1.7900322667	 3.0677992704	 0.249529
H	-3.5290722892	-0.5901166326	-0.1246770225	 0.129736
H	-2.7321699197	 0.9236254715	 0.3162303273	 0.145659
H	-1.3608607816	-1.1534173988	-1.0704700511	 0.080155
65.4051	85.8501	241.1325	339.4098	371.5727	401.1348	468.7982	481.8106	530.4176	607.9864	642.8909	654.5786	748.4072	810.691	847.1562	863.5223	924.3774	927.6336	978.1824	1022.7209	1038.1923	1056.4479	1120.338	1135.6082	1164.1719	1188.1905	1239.3145	1248.8682	1261.7494	1268.667	1292.0262	1308.2375	1338.2987	1373.8654	1423.1423	1435.0729	1457.8572	1467.7866	1828.9877	3046.2264	3058.0252	3066.0259	3082.9419	3106.4959	3113.9862	3116.1328	3628.218	3807.3971
OC1CC2NC(=O)CC12	O[C@H]1C[C@H]2NC(=O)C[C@@H]12	
InChI=1S/C6H9NO2/c8-5-2-4-3(5)1-6(9)7-4/h3-5,8H,1-2H2,(H,7,9)	InChI=1S/C6H9NO2/c8-5-2-4-3(5)1-6(9)7-4/h3-5,8H,1-2H2,(H,7,9)/t3-,4-,5+/m1/s1
