20
gdb 18805	2.89332	2.80626	2.25057	0.0341	76.7	-0.2594	0.0879	0.3473	754.8353	0.181809	-311.854645	-311.848811	-311.847867	-311.884003	25.812	
C	-0.0552981553	 1.4936352755	 0.2109253227	-0.236603
C	 1.4832367098	 1.4484926203	-0.0291404256	-0.019395
C	 2.200642281	 1.1900977667	 1.302210124	-0.208112
C	 1.4623746072	 0.0470897854	 2.0450404103	-0.208111
C	 0.8078634416	-0.8682199635	 1.0020864253	-0.019396
C	 1.8249342151	-1.1630561828	-0.1404536805	-0.236603
C	 1.2806176185	 0.0980836047	-0.8324911331	-0.011543
C	-0.0498064922	-0.0255125366	-0.0295528363	-0.011542
H	-0.4133435885	 1.8936133551	 1.1658877866	 0.08554
H	-0.5811288103	 2.0053111416	-0.6012161267	 0.092234
H	 1.9310740077	 2.2783673716	-0.5807382831	 0.056251
H	 3.24512636	 0.9168719575	 1.1151535408	 0.097002
H	 2.2203293684	 2.1022812321	 1.9092039179	 0.090171
H	 2.1561407033	-0.5234712459	 2.6727800123	 0.090172
H	 0.6971845348	 0.4540489563	 2.7154564713	 0.097002
H	 0.3082260463	-1.7228992161	 1.4640346569	 0.056251
H	 2.8865930721	-1.2261185015	 0.1222942782	 0.08554
H	 1.5523853216	-2.0570255147	-0.7100319927	 0.092233
H	 1.3173819006	 0.1992248275	-1.9188728489	 0.054454
H	-0.9363667119	-0.5335640533	-0.4138716393	 0.054454
290.7031	339.9518	380.9185	388.6703	509.2406	582.7373	675.0599	753.1385	791.5423	803.2067	831.0066	848.2629	862.5704	936.9941	945.1111	958.4413	969.9957	974.863	1032.7968	1056.0518	1062.1081	1072.6627	1095.3891	1101.9276	1144.7991	1166.0367	1215.9826	1221.3178	1240.9071	1247.9953	1269.9235	1287.5985	1306.8323	1311.9889	1320.2268	1325.0036	1362.9607	1375.5055	1482.5042	1482.7051	1498.4884	1514.3875	3028.452	3033.1313	3035.5072	3039.7484	3059.422	3069.0106	3072.7543	3077.9057	3082.9729	3084.1207	3087.5249	3095.7101
C1C2CCC3CC2C13	C1[C@H]2CC[C@@H]3C[C@H]2[C@H]13	
InChI=1S/C8H12/c1-2-6-4-7-5(1)3-8(6)7/h5-8H,1-4H2	InChI=1S/C8H12/c1-2-6-4-7-5(1)3-8(6)7/h5-8H,1-4H2/t5-,6-,7-,8-/m1/s1
