20
gdb 69769	3.05223	1.60819	1.4323	1.5912	76.71	-0.2358	0.0722	0.308	1000.4543	0.173527	-403.113882	-403.106595	-403.105651	-403.145055	30.42	
C	-0.0947124928	 1.4966193194	 0.089126654	-0.450552
C	 0.0051238846	-0.0119002314	 0.0441273293	 0.340998
C	-1.225867676	-0.7403882684	-0.5163768055	-0.305146
C	-1.4832144103	-2.0666264979	 0.216893928	 0.100069
C	-0.2449877508	-2.9823532179	 0.2608005344	-0.271908
C	 0.093742374	-2.0937800478	 1.4736311233	 0.078112
O	-1.3397735565	-1.8421559301	 1.6499163439	-0.293428
C	 0.7452847368	-0.7656191984	 1.0986055527	-0.074719
N	 1.3620818239	-0.5262359579	-0.2198325848	-0.375296
H	 0.8328329731	 1.9284045506	 0.472618351	 0.126129
H	-0.2676790692	 1.9072382607	-0.9128679426	 0.114615
H	-0.9237718444	 1.8132634854	 0.7311162013	 0.119294
H	-2.1018708619	-0.0994797009	-0.3702183992	 0.11259
H	-1.1345019254	-0.9074472491	-1.5982594553	 0.100263
H	-2.4537109245	-2.5003367103	-0.0380755881	 0.077766
H	-0.5072168527	-3.9912905777	 0.582125	 0.117095
H	 0.4270335332	-3.0381151021	-0.5982680009	 0.096342
H	 0.538147404	-2.5533517523	 2.3588282691	 0.077914
H	 1.2217770033	-0.2278942407	 1.9147568458	 0.088609
H	 1.3395338916	-1.3641179831	-0.7931520263	 0.221255
173.8061	216.5282	237.8941	339.7738	369.1715	421.0126	451.3186	484.7312	565.9286	596.0957	713.0924	789.2018	828.2684	845.094	867.0927	901.4353	918.7526	929.1352	965.3355	983.5578	1021.1018	1035.2448	1071.1984	1093.2816	1104.6773	1107.6673	1120.1298	1167.9144	1204.5838	1241.7121	1251.1908	1278.4443	1302.4193	1330.4241	1342.6294	1353.6729	1379.2231	1413.4197	1437.3021	1475.8919	1489.5369	1496.3817	1501.617	3020.1917	3028.2318	3067.5449	3072.323	3079.4747	3089.5418	3090.3869	3122.8294	3129.3844	3136.5034	3516.285
CC12CC3CC(O3)C1N2	C[C@]12C[C@H]3C[C@H](O3)[C@H]1N2	
InChI=1S/C7H11NO/c1-7-3-4-2-5(9-4)6(7)8-7/h4-6,8H,2-3H2,1H3	InChI=1S/C7H11NO/c1-7-3-4-2-5(9-4)6(7)8-7/h4-6,8H,2-3H2,1H3/t4-,5+,6-,7+/m1/s1
