17
gdb 74501	3.58946	1.17976	1.00012	3.9724	80.55	-0.2486	-0.0118	0.2368	1201.7758	0.136803	-380.87631	-380.868286	-380.867342	-380.90876	30.679	
C	 0.0703464463	 1.5003920372	 0.0632351384	-0.487281
C	-0.0201647675	 0.0104708255	-0.0080680334	 0.313474
C	-0.1254233307	-0.739765467	-1.1100410666	-0.241781
C	-0.0906346643	-2.1945876941	-0.7720594532	 0.214077
N	 1.1945818117	-2.6088239951	-0.1171279453	-0.359614
C	 0.0369853717	-2.2753922702	 0.7228007011	-0.099067
C	 0.0371715799	-0.8465907835	 1.2484775617	-0.307953
C	-0.8198614538	-3.1659503257	-1.536317906	 0.193004
N	-1.3950782043	-3.9484566439	-2.1656960991	-0.343349
H	 1.0292823628	 1.8157771402	 0.4927790293	 0.136394
H	-0.0253154643	 1.9569532231	-0.9249375554	 0.132231
H	-0.7133433806	 1.9123817497	 0.7113784464	 0.130416
H	-0.1829046965	-0.3772230937	-2.1282406952	 0.112319
H	 1.2781513244	-3.623900552	-0.1705703796	 0.245607
H	-0.4507773988	-3.0667672912	 1.2806961052	 0.115155
H	 0.9372902217	-0.6398199406	 1.839513821	 0.129107
H	-0.8258749277	-0.6582639586	 1.9000007408	 0.117261
118.3382	146.4495	181.8631	196.0504	316.9691	366.0898	420.3601	476.0729	493.5723	549.7299	596.7503	637.1151	745.7737	797.5274	856.2687	882.6293	904.1907	936.2323	985.9419	1013.134	1040.7214	1078.7125	1084.1776	1155.9489	1166.0712	1197.6249	1256.4637	1283.3665	1340.6682	1346.0435	1407.5794	1415.0519	1463.9621	1478.3437	1485.7008	1703.2111	2348.9616	3021.174	3027.9066	3065.1268	3070.0403	3118.8808	3180.001	3218.0603	3474.5378
CC1=CC2(NC2C1)C#N	CC1=C[C@]2(N[C@H]2C1)C#N	
InChI=1S/C7H8N2/c1-5-2-6-7(3-5,4-8)9-6/h3,6,9H,2H2,1H3	InChI=1S/C7H8N2/c1-5-2-6-7(3-5,4-8)9-6/h3,6,9H,2H2,1H3/t6-,7-/m0/s1
