16
gdb 7057	4.96368	0.8235	0.72873	4.0401	71.08	-0.2435	-0.0238	0.2197	1505.8032	0.126469	-383.718727	-383.70885	-383.707906	-383.755398	32.487	
C	 0.0084521898	 1.485479197	-0.036531209	-0.500313
C	 0.0439641496	 0.0306192873	-0.0186757196	 0.106622
C	 0.0836331625	-1.1729598028	 0.0130130763	 0.029195
C	 0.0863674106	-2.6351910558	 0.0092835988	-0.073905
O	-1.1696791129	-3.1781768547	 0.4169866195	-0.417398
C	 0.5054422759	-3.1869071433	-1.3745227522	-0.277016
C	 0.6015164714	-4.6994084442	-1.3892468176	 0.14752
O	 1.4877306742	-5.3126662105	-1.9280030843	-0.242719
H	 0.9325363618	 1.9056805066	 0.37486569	 0.15666
H	-0.1090665537	 1.8710056708	-1.0549546011	 0.152282
H	-0.8245617041	 1.8668319201	 0.5638603975	 0.154916
H	 0.800719097	-2.9969129565	 0.7598072987	 0.126489
H	-1.8591022797	-2.665606419	-0.0196934002	 0.286175
H	-0.2606602495	-2.8868421696	-2.1035112865	 0.122093
H	 1.4595651014	-2.7635825748	-1.6990157925	 0.13164
H	-0.2260899343	-5.2185934004	-0.8614943976	 0.097757
28.6972	58.9578	70.0012	93.4125	155.3993	228.3462	278.869	303.3043	344.3981	404.5885	441.9088	540.6112	563.2207	775.6583	807.7597	898.8815	1029.8324	1051.4819	1054.2577	1070.3578	1089.4438	1163.9103	1202.7157	1263.2055	1291.2604	1352.0229	1411.1136	1414.9937	1422.132	1448.6166	1475.783	1477.6123	1829.2141	2367.092	2916.6803	3018.0495	3030.8252	3035.1489	3093.4749	3094.2065	3109.548	3806.5629
CC#CC(O)CC=O	CC#C[C@@H](O)CC=O	
InChI=1S/C6H8O2/c1-2-3-6(8)4-5-7/h5-6,8H,4H2,1H3	InChI=1S/C6H8O2/c1-2-3-6(8)4-5-7/h5-6,8H,4H2,1H3/t6-/m1/s1
