25
gdb 118473	1.75882	1.17878	0.75755	1.2017	86.28	-0.2434	0.0755	0.3188	1611.1259	0.225038	-426.628984	-426.616907	-426.615963	-426.667193	42.814	
C	 0.3810878641	 1.5031898131	-0.1292070829	-0.387582
C	 0.6490275592	 0.0205370981	 0.0702520446	-0.037295
O	 0.6794787257	-0.5990321738	-1.2033339797	-0.270226
C	 0.8974835009	-2.0090904675	-1.2022748279	 0.132666
C	-0.2907941878	-2.7071050857	-1.8691059294	-0.17108
C	-1.6081911379	-2.5126712736	-1.116027527	-0.394764
C	 2.2194019732	-2.3000070401	-1.9336179762	 0.122148
C	 3.4152935167	-1.5766464805	-1.318388003	-0.416178
O	 2.3912574206	-3.7154194395	-1.8862257866	-0.43843
H	 1.1685659928	 1.9586180741	-0.7368022954	 0.12386
H	-0.5738498951	 1.6548140891	-0.6405965778	 0.126339
H	 0.3452594513	 2.0175700604	 0.8359151604	 0.1132
H	 1.6056563127	-0.1271878588	 0.5960744343	 0.086083
H	-0.1373038728	-0.4294450356	 0.6963363712	 0.090608
H	 1.0004809221	-2.3748461984	-0.1690126015	 0.070471
H	-0.3861290893	-2.310372354	-2.8881436255	 0.094349
H	-0.0525438796	-3.7705389282	-1.9617977031	 0.11675
H	-1.8554102781	-1.4503293772	-1.0319044005	 0.122751
H	-2.4344192232	-3.0088684271	-1.634445587	 0.109047
H	-1.5552712724	-2.9299297415	-0.1037469744	 0.108115
H	 2.0982887389	-1.9642209839	-2.9771063339	 0.068102
H	 4.3308064758	-1.8052059462	-1.8769028658	 0.099981
H	 3.2686060705	-0.4943412665	-1.3465564372	 0.131231
H	 3.5652652709	-1.8928248641	-0.2807054616	 0.117422
H	 3.2215863107	-3.9276079824	-2.3229557241	 0.28243
44.2174	58.8396	72.2989	93.0559	176.0319	184.9645	238.8083	246.7726	252.4052	258.1622	278.7766	331.1096	360.3564	418.9564	475.3933	492.4692	542.3311	770.0135	818.1886	868.4164	885.8712	899.4886	965.9801	995.5043	1040.4665	1070.885	1081.4958	1109.5782	1121.2202	1140.6289	1151.8899	1182.9892	1185.8384	1251.7376	1294.1116	1299.6688	1308.02	1355.1124	1370.7018	1387.3919	1396.9483	1401.2526	1404.7165	1425.8116	1438.5893	1481.1646	1482.1231	1492.2406	1496.3412	1498.4807	1502.4782	1509.7295	1529.1721	2962.2356	2968.7047	2993.8702	2998.2	3028.7383	3029.8502	3033.1265	3042.9657	3088.2037	3092.3275	3098.9686	3114.3076	3117.3243	3119.182	3128.1898	3824.6955
CCOC(CC)C(C)O	CCO[C@@H](CC)[C@@H](C)O	
InChI=1S/C7H16O2/c1-4-7(6(3)8)9-5-2/h6-8H,4-5H2,1-3H3	InChI=1S/C7H16O2/c1-4-7(6(3)8)9-5-2/h6-8H,4-5H2,1-3H3/t6-,7+/m1/s1
