16
gdb 43484	2.45998	1.92731	1.17935	1.5506	71.13	-0.2497	0.001	0.2508	1007.5866	0.127693	-434.106471	-434.099297	-434.098353	-434.138354	27.545	
N	-0.097873982	 1.3512320954	-0.1277823442	-0.542672
C	-0.0047892054	 0.0880961072	-0.0692413616	 0.381014
N	 1.1012789095	-0.7530997928	-0.1373144798	-0.386897
C	 0.8023050842	-2.1055569233	 0.0979834401	 0.416365
O	 1.6028218487	-2.9731692526	 0.3391282992	-0.377104
N	-0.5883781145	-2.2201419342	 0.0304381782	-0.139996
C	-1.3151415134	-2.6379800176	 1.2682308862	-0.180056
C	-1.789566868	-1.1704547533	 1.4751254813	-0.249921
C	-1.1792127168	-0.8594584689	 0.0752370585	-0.039207
H	 0.8124610527	 1.8005710844	-0.2375957167	 0.214422
H	 2.0586042999	-0.4409796865	-0.1801056256	 0.266141
H	-2.1151181286	-3.3466724491	 1.0427059018	 0.125796
H	-0.6570703433	-3.0667452478	 2.0270603508	 0.138776
H	-2.8643904466	-1.0118806285	 1.5643450341	 0.123762
H	-1.2809808763	-0.6521001951	 2.2899410548	 0.12912
H	-1.92107131	-0.6759194671	-0.7053645072	 0.120458
96.8798	139.0556	230.1043	248.0264	372.3645	501.2157	543.8248	609.2898	654.7496	672.1636	726.1243	770.5861	791.0314	821.9508	865.8174	903.4817	938.377	1015.6986	1055.0418	1088.8934	1107.2502	1116.6143	1184.2118	1201.915	1230.3912	1255.4225	1262.4709	1314.308	1334.0636	1357.5733	1387.1328	1487.5792	1517.5535	1769.109	1857.9559	3069.6338	3085.1989	3086.1228	3121.2998	3148.0261	3463.6678	3648.717
N=C1NC(=O)N2CCC12	[NH][C]1NC(=O)N2CC[C@@H]12	
InChI=1S/C5H7N3O/c6-4-3-1-2-8(3)5(9)7-4/h3H,1-2H2,(H2,6,7,9)	InChI=1S/C5H7N3O/c6-4-3-1-2-8(3)5(9)7-4/h3H,1-2H2,(H2,6,7,9)/t3-/m0/s1
