17
gdb 116886	5.34891	0.51216	0.48449	2.5639	75.65	-0.2572	-0.0431	0.2141	2169.8883	0.132295	-458.928578	-458.918068	-458.917124	-458.967225	35.257	
O	-0.1852380574	 1.5200005851	 0.2022645416	-0.414097
C	-0.1768025996	 0.133016249	 0.4889035627	-0.064357
C	-0.9117515878	-0.5597209185	-0.6651365417	-0.326051
C	-0.9703608489	-2.0057726026	-0.5046235719	 0.00404
C	-1.0042811627	-3.1976907687	-0.3328869193	 0.113447
C	-1.0667198336	-4.6540877098	-0.1689289815	-0.112655
O	-1.8790965882	-5.0708772673	 0.8948307463	-0.41038
C	-1.5736254901	-5.2481705861	-1.488472994	 0.145775
O	-2.5664822067	-5.9282533193	-1.5236827354	-0.25083
H	 0.2475906978	 1.9816946444	 0.9260259783	 0.291238
H	 0.8466532417	-0.2642281335	 0.5608884829	 0.099501
H	-0.6889368304	-0.0935053934	 1.4354491972	 0.105214
H	-1.9231730264	-0.1419916955	-0.7350911842	 0.144251
H	-0.4046532046	-0.3029178035	-1.6031638896	 0.141776
H	-0.0415412975	-5.0384325561	-0.0235975762	 0.121835
H	-2.6214878068	-5.5402227633	 0.4805491245	 0.296812
H	-0.9853590088	-4.9990927608	-2.3918422897	 0.114482
8.6993	55.2967	75.4381	104.0937	143.4854	212.4439	237.0446	305.3429	327.5134	358.2969	409.6569	455.4447	486.0926	572.2539	716.3307	792.8417	799.7485	879.9731	999.2032	1016.8282	1082.7501	1087.1784	1117.7609	1167.5145	1221.1246	1238.554	1239.939	1303.8431	1326.0768	1330.722	1388.5639	1431.4948	1455.0859	1474.6045	1528.1764	1821.3815	2359.8311	2949.3941	2965.1201	2985.5257	3017.6069	3033.4141	3071.6939	3682.03	3835.4543
OCCC#CC(O)C=O	OCCC#C[C@@H](O)C=O	
InChI=1S/C6H8O3/c7-4-2-1-3-6(9)5-8/h5-7,9H,2,4H2	InChI=1S/C6H8O3/c7-4-2-1-3-6(9)5-8/h5-7,9H,2,4H2/t6-/m1/s1
