21
gdb 65136	2.89719	1.40098	1.26033	1.6839	81.48	-0.2427	0.0863	0.3289	1117.1679	0.182328	-387.03947	-387.030936	-387.029992	-387.072855	33.227	
C	 0.0874020893	 1.292244803	-1.0070283708	-0.456634
C	-0.0011825036	 0.1011536059	-0.0762769615	 0.382515
C	 1.1435960553	-0.8184702292	 0.0369586461	-0.222087
O	 0.8892283498	 0.1601263672	 1.0481363906	-0.268101
C	-1.3977821547	-0.4177265273	 0.1507790499	-0.055823
C	-1.9488083974	-1.1565875091	 1.3404834413	-0.10001
C	-1.4451603368	-0.6233974822	 2.6915816022	-0.215902
C	-1.9269442216	 0.8077947462	 2.2929908677	-0.230841
C	-2.4721734148	 0.2438837482	 0.9699539722	-0.085999
H	 1.1261374507	 1.6064672443	-1.1357848379	 0.123362
H	-0.3299080561	 1.0490181535	-1.9903464143	 0.118342
H	-0.4829859911	 2.1349938728	-0.6028567956	 0.130189
H	 0.9726912917	-1.8508072746	 0.3386030151	 0.112293
H	 2.0385905711	-0.6477325534	-0.5603291649	 0.107046
H	-1.8062905896	-0.8136219228	-0.7799119332	 0.087337
H	-2.4384643685	-2.1147872424	 1.2047070628	 0.079172
H	-2.0375742844	-1.0255583565	 3.5171889086	 0.092704
H	-0.3858006149	-0.7488336465	 2.9116540394	 0.117473
H	-2.7173948744	 1.1795491769	 2.9484886685	 0.098131
H	-1.1547735381	 1.5765871109	 2.20703119	 0.108312
H	-3.4239403519	 0.5158642451	 0.5276498037	 0.078522
43.2712	147.4544	188.7284	201.4315	278.2203	323.0555	344.0707	386.0266	492.2573	561.2955	720.5418	737.4054	774.3927	792.3064	797.3733	864.984	887.6746	922.4286	957.3069	958.5261	963.3262	1014.8115	1019.3413	1036.0168	1077.0028	1093.259	1125.4144	1134.2677	1145.4393	1154.4449	1174.7351	1230.0016	1243.4512	1262.4411	1268.3047	1306.7508	1353.534	1384.3744	1411.9563	1452.981	1475.3303	1481.9279	1494.4068	1500.2188	1526.3064	3034.8983	3061.2811	3071.1925	3079.2645	3098.0899	3103.1972	3110.1502	3122.2414	3141.456	3161.1716	3167.3399	3173.827
CC1(CO1)C1C2CCC12	C[C@]1(CO1)[C@H]1[C@H]2CC[C@@H]12	
InChI=1S/C8H12O/c1-8(4-9-8)7-5-2-3-6(5)7/h5-7H,2-4H2,1H3	InChI=1S/C8H12O/c1-8(4-9-8)7-5-2-3-6(5)7/h5-7H,2-4H2,1H3/t5-,6+,7-,8-/m0/s1
