16
gdb 34379	2.69897	1.66056	1.33546	1.7478	74.37	-0.2552	0.0076	0.2629	987.2802	0.124715	-400.715329	-400.707836	-400.706892	-400.747409	29.041	
C	 0.03646735	-1.1914358898	-0.1260974724	-0.425311
C	 0.0009296966	 0.0058580212	-0.0251715832	 0.264967
C	-0.0065881994	 1.4522918947	 0.0607154842	 0.118265
C	-0.421974142	 2.2482466583	-1.2193853314	-0.263298
C	 0.8692590707	 3.1146719884	-1.1004850425	-0.24702
C	 1.3563133554	 2.2395585283	 0.0765362451	 0.044371
O	 1.3721148949	 2.9065866192	 1.3521895277	-0.225594
C	 0.1408610085	 2.6839766667	 1.8786350939	 0.106875
N	-0.6922425515	 1.9352704244	 1.2827517918	-0.295539
H	 0.0556103132	-2.2504923412	-0.2030668121	 0.196329
H	-0.4546355622	 1.622808192	-2.112842216	 0.11876
H	-1.3719375242	 2.7736848187	-1.1107152494	 0.121761
H	 1.5202225922	 3.1027861903	-1.9766703843	 0.114978
H	 0.7012250419	 4.1521590679	-0.8050083142	 0.119468
H	 2.292383944	 1.6963901148	-0.0444220523	 0.105142
H	-0.0390675981	 3.1888084262	 2.8214140651	 0.145847
81.198	149.4822	175.2401	293.4006	376.0025	490.7606	493.3505	565.389	581.9956	624.5807	649.866	671.0735	739.8436	822.0349	857.4112	870.1395	940.816	949.4974	967.0492	1021.9186	1039.2922	1096.5566	1121.7188	1135.4314	1181.4867	1225.0703	1236.51	1268.6838	1295.9344	1316.985	1357.378	1468.6018	1483.8685	1682.3799	2237.4047	3075.951	3081.9672	3121.8044	3131.9303	3146.117	3216.4339	3501.1337
C#CC12CCC1OC=N2	C#C[C@]12CC[C@H]1OC=N2	
InChI=1S/C7H7NO/c1-2-7-4-3-6(7)9-5-8-7/h1,5-6H,3-4H2	InChI=1S/C7H7NO/c1-2-7-4-3-6(7)9-5-8-7/h1,5-6H,3-4H2/t6-,7+/m1/s1
