25
gdb 59573	2.96131	1.13868	0.96253	0.1023	92.04	-0.2586	0.0771	0.3357	1374.6509	0.229372	-352.339172	-352.329676	-352.328732	-352.373604	36.953	
C	 0.0012318656	 1.5112858315	-0.1375422399	-0.38946
C	 0.0377028452	-0.0170116884	 0.0065393125	 0.017863
C	 0.8376704556	-0.4363826609	 1.2474427418	-0.390557
C	-1.3773706187	-0.5936549422	 0.0423853887	 0.072202
C	-2.2880960114	-0.4830475463	-1.2213096876	-0.273888
C	-2.7261963608	-1.9660954119	-1.0401644956	-0.00878
C	-1.9861268473	-2.9763679931	-1.9457238135	-0.219708
C	-0.7973178297	-2.9994361832	-0.9368281125	-0.231213
C	-1.6198715276	-2.1291892818	 0.0638676176	-0.051342
H	 1.012125532	 1.9262201376	-0.2107263173	 0.106936
H	-0.5518452836	 1.8180134472	-1.0312113491	 0.114103
H	-0.4851283651	 1.9737762345	 0.7299311609	 0.108955
H	 0.5497844565	-0.4196408263	-0.8790696582	 0.066772
H	 0.895197059	-1.5258053938	 1.3389353448	 0.115677
H	 1.8611771113	-0.0484670874	 1.209784984	 0.107045
H	 0.3707436917	-0.0498723313	 2.1616627961	 0.10897
H	-1.9035331152	-0.155859433	 0.9013427367	 0.061373
H	-3.0871109649	 0.2596837279	-1.1612573551	 0.096291
H	-1.7369089023	-0.3085137196	-2.1524662504	 0.090378
H	-3.7878818412	-2.1294477094	-0.849139845	 0.057927
H	-2.4962574439	-3.941851207	-2.007363257	 0.095989
H	-1.7670770419	-2.6418532621	-2.9648497842	 0.09062
H	-0.5456363678	-3.9937515612	-0.5605537192	 0.098622
H	 0.126042093	-2.5404948341	-1.2994672531	 0.098991
H	-1.8088481785	-2.5890311157	 1.0354536845	 0.056235
57.4422	79.9614	153.4633	220.2646	228.5001	254.515	304.4009	351.3199	366.0856	442.3644	492.2559	625.8045	728.3662	742.7603	760.4918	843.0861	874.4502	887.6814	897.9326	925.8869	932.8739	955.2424	965.6276	1004.1269	1018.5182	1040.0168	1059.0286	1082.6689	1136.8433	1145.3609	1159.3406	1191.8824	1208.2975	1222.8369	1234.9636	1250.7581	1262.0983	1278.4451	1294.2792	1300.6262	1316.5102	1329.3033	1349.5094	1393.0925	1398.0411	1420.5625	1475.3836	1482.2298	1487.6822	1492.1695	1496.3137	1504.2767	1510.4463	2995.9715	3012.035	3022.0388	3026.8626	3036.6715	3042.7124	3061.977	3078.1754	3085.8299	3088.2433	3089.3837	3092.1235	3098.0099	3100.1374	3102.2392	3114.0309
CC(C)C1CC2CCC12	CC(C)[C@H]1C[C@H]2CC[C@@H]12	
InChI=1S/C9H16/c1-6(2)9-5-7-3-4-8(7)9/h6-9H,3-5H2,1-2H3	InChI=1S/C9H16/c1-6(2)9-5-7-3-4-8(7)9/h6-9H,3-5H2,1-2H3/t7-,8-,9-/m1/s1
