15
gdb 12607	3.21994	2.26204	1.35385	2.9742	64.65	-0.2415	0.0029	0.2443	865.1793	0.12082	-396.042576	-396.035026	-396.034082	-396.074471	27.343	
C	-0.0069295186	 1.4492777717	-0.0106726611	-0.336996
N	 0.0180596701	 0.0005750208	-0.0145117979	-0.111879
C	 0.0667371702	-0.758352591	-1.1887102048	 0.433494
N	 0.0107936068	-0.2207875922	-2.3395122678	-0.574772
N	 0.2099895751	-2.0862320083	-0.7966724815	-0.364041
C	 0.0180331104	-2.2276302017	 0.6378272393	-0.294923
C	-0.0062086083	-0.7763286562	 1.122511189	 0.413111
O	-0.0429588201	-0.3857366626	 2.2647686041	-0.37058
H	 0.8778087893	 1.8444165604	-0.5158446266	 0.148614
H	-0.8934450404	 1.8157364276	-0.5340792375	 0.148881
H	-0.0231437367	 1.7690462217	 1.0317618518	 0.158588
H	 0.0788108142	-0.9185434533	-3.0777766218	 0.212748
H	-0.1501641289	-2.7902739199	-1.4202181518	 0.250961
H	-0.927953347	-2.7139512028	 0.9087237205	 0.140727
H	 0.832575434	-2.7728444542	 1.1256028561	 0.146067
101.8981	136.0046	199.9394	203.4282	282.1304	377.6101	421.0662	570.9757	590.1755	612.5048	713.8882	726.1507	752.5824	792.7846	977.3205	1010.511	1058.073	1111.8099	1128.5479	1162.0229	1197.433	1222.9397	1299.6653	1354.8075	1415.227	1430.1901	1483.6003	1485.6149	1504.5903	1515.6776	1754.7965	1846.0774	3027.6119	3056.713	3074.4421	3122.4433	3161.0337	3509.051	3642.2975
CN1C(=N)NCC1=O	CN1[C]([NH])NCC1=O	
InChI=1S/C4H7N3O/c1-7-3(8)2-6-4(7)5/h2H2,1H3,(H2,5,6)	InChI=1S/C4H7N3O/c1-7-3(8)2-6-4(7)5/h2H2,1H3,(H2,5,6)
