23
gdb 119160	3.25926	0.90938	0.79048	1.7341	85.6	-0.2553	0.0895	0.3448	1565.8984	0.204601	-388.261873	-388.251943	-388.250999	-388.297605	36.908	
C	-0.2288641254	 1.6018217857	 0.089793978	-0.385742
C	-0.0387871075	 0.0942605663	-0.0994315449	-0.184659
C	-1.3702915769	-0.6627318947	-0.1339475467	-0.239619
C	-1.2858142601	-2.1837009628	-0.0805754732	 0.395029
C	-0.0786045718	-2.8988720025	-0.5227036945	-0.238507
O	-0.336858606	-2.70861489	 0.8695851522	-0.275946
C	-2.6339638779	-2.8463776731	-0.0924061818	-0.045823
C	-3.2678273814	-3.2875408288	-1.3932607492	-0.261538
C	-2.8429889195	-4.3093738095	-0.3707297332	-0.28081
H	 0.7326280501	 2.1243700982	 0.1011333555	 0.111855
H	-0.8321397509	 2.0331506336	-0.7171652763	 0.111809
H	-0.7381088104	 1.8208005164	 1.0348773796	 0.115721
H	 0.5144477204	-0.0824151995	-1.0299192347	 0.093765
H	 0.5737235594	-0.3112261561	 0.7130025048	 0.120139
H	-1.9818991072	-0.3436446924	 0.7223771271	 0.101409
H	-1.942124387	-0.3833198687	-1.0285179681	 0.103283
H	-0.142454326	-3.9273936921	-0.8732936169	 0.107794
H	 0.7658834352	-2.34066466	-0.9219371338	 0.109415
H	-3.3173214168	-2.4111916303	 0.6332031339	 0.085512
H	-4.3257288102	-3.1037453516	-1.5440754643	 0.113038
H	-2.6676477035	-3.2014206488	-2.293181625	 0.111936
H	-1.9841110612	-4.93132844	-0.592428844	 0.117582
H	-3.6122876253	-4.8169148996	 0.2003542357	 0.114356
36.5789	78.632	99.5543	147.868	215.2057	246.0094	274.9165	323.8014	352.4442	387.7986	487.9372	544.8142	692.2797	752.5361	781.0855	812.3486	831.3741	865.8114	892.0346	926.4958	939.1465	953.3562	977.8633	1054.4942	1060.0686	1079.6907	1102.47	1107.7383	1130.9308	1139.3969	1154.5189	1174.0034	1184.9198	1196.9026	1238.5687	1269.8053	1319.9864	1331.589	1389.4559	1412.2425	1414.4429	1425.2425	1469.551	1479.2804	1496.8638	1499.633	1507.642	1512.7557	1538.9168	3005.9987	3027.9888	3031.2338	3044.373	3073.8258	3092.8883	3099.4401	3102.3372	3129.918	3132.4162	3145.2268	3171.4991	3212.2019	3229.1444
CCCC1(CO1)C1CC1	CCC[C@]1(CO1)C1CC1	
InChI=1S/C8H14O/c1-2-5-8(6-9-8)7-3-4-7/h7H,2-6H2,1H3	InChI=1S/C8H14O/c1-2-5-8(6-9-8)7-3-4-7/h7H,2-6H2,1H3/t8-/m0/s1
