18
gdb 74880	2.78853	1.71046	1.21987	3.2297	77.69	-0.2383	0.0007	0.239	1041.2811	0.149114	-401.914354	-401.906918	-401.905974	-401.946028	29.62	
C	-0.0159867283	 1.5067841974	 0.0708777596	-0.487267
C	 0.0025472138	 0.0056571552	-0.0051860583	 0.372168
C	-0.0108130478	-0.6596205925	-1.1698892837	-0.182252
C	-0.00179174	-2.1346465703	-1.2671616127	-0.001149
O	 1.1883418981	-2.8406475002	-0.8473972589	-0.237998
C	 0.0374290517	-2.9383606221	-0.0265257231	 0.043973
C	 0.0455988678	-2.2191895345	 1.2936691855	-0.072796
N	 1.2543038231	-1.4680823051	 1.6493483309	-0.31845
C	 0.0204241109	-0.7235274555	 1.289835671	-0.158593
H	 0.8912809588	 1.8838026977	 0.5594604134	 0.137049
H	-0.0830339991	 1.9601892613	-0.9213435249	 0.123977
H	-0.8650153903	 1.8628130786	 0.6685423413	 0.122846
H	-0.0408312292	-0.1037200253	-2.1035958221	 0.086179
H	-0.4580214746	-2.5630187922	-2.1585355044	 0.088364
H	-0.4435667805	-3.9165846263	-0.02189017	 0.086971
H	-0.5009488439	-2.7216083013	 2.0879058142	 0.082032
H	 1.3600779911	-1.4661032911	 2.6614220423	 0.232901
H	-0.5009145716	-0.2267973338	 2.1062684399	 0.082043
129.5941	177.9397	212.32	272.1575	324.9252	438.0611	463.4833	528.3459	569.7948	658.5112	724.1479	754.1596	825.7103	847.191	856.3775	880.6128	908.2324	928.8005	968.8495	1007.6387	1051.6354	1066.3323	1072.7386	1097.219	1139.7107	1163.02	1185.0905	1212.5069	1240.7557	1283.6223	1339.5514	1382.2056	1412.0559	1420.6338	1436.9367	1468.3097	1477.4434	1490.7824	1710.241	3017.3427	3065.7269	3101.8495	3114.1362	3117.7564	3118.4639	3140.5623	3157.8663	3492.0786
CC1=CC2OC2C2NC12	CC1=C[C@H]2O[C@H]2[C@H]2N[C@@H]12	
InChI=1S/C7H9NO/c1-3-2-4-7(9-4)6-5(3)8-6/h2,4-8H,1H3	InChI=1S/C7H9NO/c1-3-2-4-7(9-4)6-5(3)8-6/h2,4-8H,1H3/t4-,5+,6+,7-/m1/s1
