25
gdb 118689	1.98445	1.1818	1.05676	0.9525	90.	-0.2321	0.0795	0.3116	1403.7533	0.225787	-389.484613	-389.47321	-389.472265	-389.520813	41.728	
C	 3.7194863222	 0.3197650285	-0.7335607641	-0.386263
C	 2.9151149453	-0.9668491398	-0.6471662599	-0.047758
O	 2.3010963695	-1.0165322723	 0.6338623384	-0.291308
C	 1.6813770184	-2.2322961193	 0.9606765565	 0.416723
C	 0.5134747932	-2.615123715	 0.0753873711	-0.460046
C	 2.549377511	-3.3176347173	 1.5801413856	-0.078186
C	 4.051787143	-3.1801061601	 1.7064374035	-0.416035
C	 1.5975116432	-2.4953650456	 2.4433105337	-0.086176
C	 2.0867615375	-1.4895467739	 3.4635277697	-0.405873
H	 4.5087706368	 0.3366790567	 0.0236694584	 0.123188
H	 4.1828868816	 0.4143310249	-1.7203781225	 0.112882
H	 3.0719430709	 1.186054526	-0.5702299217	 0.127075
H	 2.1530186189	-0.9879249583	-1.4402423915	 0.092266
H	 3.5633171413	-1.8431575425	-0.7936240418	 0.091676
H	 0.8274450663	-2.8485751588	-0.9478260828	 0.11518
H	 0.0096958336	-3.5007281791	 0.4724382013	 0.115993
H	-0.215919374	-1.7986895428	 0.0303073627	 0.120142
H	 2.2193043397	-4.3350206688	 1.3806158343	 0.073025
H	 4.3595236593	-2.1328036709	 1.7327142163	 0.129436
H	 4.4161947312	-3.6598703546	 2.6219571063	 0.112879
H	 4.5621873947	-3.6570289527	 0.862454813	 0.111159
H	 0.6979279191	-3.0226397631	 2.7535385601	 0.075544
H	 2.8862914053	-0.8635628794	 3.0654175538	 0.131014
H	 1.2712117503	-0.8228758733	 3.7640833486	 0.114194
H	 2.4542239717	-1.9903593985	 4.3661759911	 0.109267
63.5793	109.7329	125.5268	149.5334	183.7172	204.6446	210.4472	237.9312	254.3127	270.2956	279.4495	341.9277	427.5801	501.7313	513.0028	591.0974	707.8306	780.7874	796.4079	822.9032	888.7487	947.4185	981.2521	993.0985	1035.1984	1042.4517	1087.8064	1110.7007	1126.8492	1143.4802	1150.8324	1163.7608	1181.0102	1187.5048	1248.9842	1295.1874	1300.6277	1367.3641	1398.9349	1409.3578	1409.7871	1418.5091	1424.0397	1455.5354	1482.9686	1485.9801	1489.3153	1493.0013	1500.389	1501.8483	1506.8166	1515.7465	1528.4639	2987.3877	3017.7787	3030.3331	3030.6395	3035.2341	3042.8721	3082.221	3087.3164	3091.5342	3110.9629	3111.9337	3116.4483	3119.38	3123.423	3131.2882	3144.9906
CCOC1(C)C(C)C1C	CCO[C@@]1(C)[C@@H](C)[C@H]1C	
InChI=1S/C8H16O/c1-5-9-8(4)6(2)7(8)3/h6-7H,5H2,1-4H3	InChI=1S/C8H16O/c1-5-9-8(4)6(2)7(8)3/h6-7H,5H2,1-4H3/t6-,7+,8-
