16
gdb 82129	3.43837	1.18443	1.0175	4.9353	67.9	-0.27	0.037	0.3071	1146.5823	0.123961	-437.85304	-437.84494	-437.843996	-437.886382	29.955	
O	 0.1919401385	 1.3559943785	-0.0862960381	-0.41998
C	 0.0458504447	-0.0319145852	-0.0445338759	 0.116176
C	 0.3407352408	-0.7027914758	 1.306163985	-0.021465
O	-0.5946302567	-0.1054325148	 2.2237732906	-0.259828
C	-1.0374361594	-1.2072789878	 1.4137121051	 0.002444
C	-1.4260155662	-0.6370815251	 0.0467698802	-0.076092
C	-2.6095617256	 0.3342293755	 0.012508273	-0.349984
C	-2.8242008574	 0.9101460854	-1.313476226	 0.268837
N	-3.001796692	 1.3391305876	-2.3713743526	-0.308451
H	-0.0782596016	 1.6899867254	 0.7786417322	 0.2952
H	 0.6029136288	-0.4495682704	-0.885158192	 0.108052
H	 1.2703813728	-1.0736086704	 1.7210016968	 0.118047
H	-1.4230470385	-2.0759584999	 1.9340920169	 0.117484
H	-1.5553383455	-1.4286924209	-0.6959345761	 0.103533
H	-3.5269629093	-0.184673755	 0.3150692682	 0.152407
H	-2.4504895235	 1.1421323729	 0.7325359627	 0.153619
56.7409	95.9083	165.872	231.346	261.2869	385.9937	427.8144	478.9623	493.0316	599.9363	653.6305	721.0313	786.1467	854.6426	866.162	901.1727	939.8699	956.1289	969.1839	1020.122	1058.651	1105.4695	1119.4107	1169.8428	1219.5342	1234.6139	1240.7984	1264.5763	1303.5799	1309.9438	1366.2692	1388.6149	1437.0625	1466.5114	2365.2822	3046.5619	3079.3526	3099.1951	3106.5719	3187.6751	3202.3787	3775.7719
OC1C2OC2C1CC#N	O[C@H]1[C@H]2O[C@H]2[C@H]1CC#N	
InChI=1S/C6H7NO2/c7-2-1-3-4(8)6-5(3)9-6/h3-6,8H,1H2	InChI=1S/C6H7NO2/c7-2-1-3-4(8)6-5(3)9-6/h3-6,8H,1H2/t3-,4+,5-,6+/m0/s1
