19
gdb 80120	2.48171	1.48957	1.22067	3.0947	81.92	-0.2396	-0.0165	0.2231	1101.4472	0.159285	-385.907867	-385.899617	-385.898673	-385.940488	31.826	
C	-0.131950063	 1.5242510752	 0.0356127526	-0.421417
C	 0.0593746848	 0.0254185526	 0.0558114619	-0.06106
C	 1.3501350683	-0.6830726538	-0.2536286951	-0.138674
C	 2.6291740624	 0.0726853849	-0.1368018232	-0.077044
C	 2.8511424425	 0.5084667354	 1.1058993318	-0.072635
C	 1.7643388711	 0.0819995401	 2.0668031322	-0.354248
C	 0.780576142	-0.692424987	 1.1923405816	 0.233845
C	 0.1715461416	-1.9283811055	 1.7173940021	 0.083109
O	 0.3526788592	-2.3747969231	 2.8255694995	-0.275066
H	 0.787037452	 2.0581806307	 0.2855055673	 0.131392
H	-0.4488042324	 1.8514917473	-0.9603851283	 0.122408
H	-0.9076671865	 1.8253053603	 0.7475651195	 0.124081
H	-0.8150693265	-0.5249936844	-0.2892639662	 0.092126
H	 1.3066968567	-1.5727134946	-0.8745163246	 0.097079
H	 3.2765740307	 0.2416985035	-0.9896193606	 0.101318
H	 3.6946974509	 1.1157168069	 1.4146005225	 0.100551
H	 2.1377426269	-0.5682150415	 2.8663608428	 0.137385
H	 1.2950795043	 0.9412585345	 2.5635868655	 0.114818
H	-0.4956265349	-2.4505243313	 0.9910509588	 0.062031
96.5705	183.1315	202.8477	221.4978	234.8808	268.0452	383.9548	430.5229	512.1353	562.4235	655.9707	697.9414	749.448	763.7187	841.7578	866.4557	942.6673	953.9735	962.9237	978.6238	1028.0563	1032.8175	1062.6287	1073.6101	1098.5642	1128.3056	1145.7791	1174.5052	1243.1667	1270.4039	1332.771	1338.6866	1381.085	1410.816	1427.4471	1441.1544	1478.1298	1497.4671	1501.9481	1668.0041	1804.1993	2847.2751	3026.9123	3038.1772	3064.2914	3095.9218	3110.6651	3131.8326	3155.6577	3187.1318	3211.2447
CC1C2C=CCC12C=O	C[C@H]1[C@H]2C=CC[C@@]12C=O	
InChI=1S/C8H10O/c1-6-7-3-2-4-8(6,7)5-9/h2-3,5-7H,4H2,1H3	InChI=1S/C8H10O/c1-6-7-3-2-4-8(6,7)5-9/h2-3,5-7H,4H2,1H3/t6-,7+,8+/m0/s1
