17
gdb 52223	4.2205	0.63334	0.58099	0.9535	71.88	-0.2612	-0.0505	0.2107	1810.2931	0.132128	-458.953397	-458.943827	-458.942883	-458.990006	32.299	
O	-0.2707052007	 0.2853858976	 0.5643233855	-0.22917
C	 0.3011093973	 0.7606359023	-0.3811988609	 0.155108
C	 1.4281134896	 1.7658618264	-0.2955948635	-0.269084
C	 1.1095109285	 3.0507015118	-1.0852410126	-0.248566
C	 2.2872277729	 3.9978319573	-1.0752925618	 0.073721
O	 3.395375352	 3.6813238126	-1.9049809129	-0.243056
C	 2.6793911375	 4.888988447	-2.1966265882	-0.053904
C	 1.9310529741	 4.9131312683	-3.4906424012	 0.13885
O	 1.6078904611	 5.9333568817	-4.0422587235	-0.238698
H	 0.0193884826	 0.478289052	-1.4233687551	 0.075549
H	 1.6282780825	 1.9783028112	 0.7585621267	 0.126915
H	 2.3245884285	 1.304421207	-0.7327289375	 0.140206
H	 0.8382663583	 2.7928037659	-2.1132561699	 0.115134
H	 0.2456485749	 3.5584837506	-0.6398280769	 0.129899
H	 2.572789313	 4.3516619402	-0.0818676372	 0.111882
H	 3.1948607001	 5.8185415344	-1.9589119779	 0.122177
H	 1.7097144179	 3.9106396135	-3.9156599833	 0.093037
41.9023	58.3479	75.8275	87.6296	145.3193	251.8661	280.7423	332.1725	430.1606	462.0001	515.6881	545.8232	759.0071	810.8403	851.706	884.0014	962.0503	1007.8666	1023.2395	1034.6303	1088.7012	1103.0663	1150.5649	1172.1634	1211.7583	1260.3045	1275.4996	1312.4499	1340.4765	1365.5943	1410.6385	1428.5309	1460.8689	1468.8546	1482.6488	1825.4038	1839.4391	2852.4546	2904.9077	3023.4511	3044.0605	3080.1072	3092.0767	3108.6346	3134.1051
O=CCCC1OC1C=O	O=CCC[C@H]1O[C@H]1C=O	
InChI=1S/C6H8O3/c7-3-1-2-5-6(4-8)9-5/h3-6H,1-2H2	InChI=1S/C6H8O3/c7-3-1-2-5-6(4-8)9-5/h3-6H,1-2H2/t5-,6+/m1/s1
