15
gdb 34773	2.21866	1.83442	1.22904	3.2242	74.18	-0.2619	0.0063	0.2682	1008.5912	0.112437	-379.592773	-379.584915	-379.583971	-379.62526	29.54	
C	-0.14531586	-1.2638990601	-0.1987434728	-0.429785
C	-0.0646159093	-0.0694119019	-0.0955877822	 0.315204
C	 0.018885733	 1.3716165825	 0.028474126	-0.200006
C	-0.1986151473	 2.0828061469	 1.4065982425	-0.194905
N	 1.0864820274	 2.8617820751	 1.266151264	-0.139357
C	 2.1870164333	 1.8633049148	 1.2508674179	-0.15609
C	 2.1671562736	 0.6755938715	 2.067133263	 0.313764
N	 2.1841939455	-0.2474057384	 2.7635571873	-0.338606
C	 1.3868510213	 2.0667028228	 0.0172827456	-0.047716
H	-0.2016321887	-2.321920393	-0.2734353944	 0.206613
H	-0.6216464734	 1.8443781802	-0.7219618622	 0.126316
H	-1.0448604251	 2.7691432943	 1.4145969112	 0.130371
H	-0.2332901765	 1.4368578563	 2.2858023102	 0.148078
H	 3.1561742304	 2.3548924953	 1.24960322	 0.14771
H	 1.8443510957	 2.5145432038	-0.8592242065	 0.118408
91.8342	127.3426	169.905	211.6895	317.3399	393.8341	487.1816	503.5823	571.6783	606.3248	633.4438	659.1644	737.485	767.3032	770.845	869.8321	917.4047	973.8785	1001.1344	1023.7957	1069.2954	1093.1343	1114.4422	1179.8679	1220.8595	1228.8367	1288.0373	1342.625	1354.1295	1408.1938	1500.9312	2240.4812	2354.894	3063.8266	3086.2335	3150.5742	3153.1066	3167.4335	3502.436
C#CC1CN2C(C#N)C12	C#C[C@H]1CN2[C@@H](C#N)[C@@H]12	
InChI=1S/C7H6N2/c1-2-5-4-9-6(3-8)7(5)9/h1,5-7H,4H2	InChI=1S/C7H6N2/c1-2-5-4-9-6(3-8)7(5)9/h1,5-7H,4H2/t5-,6-,7+,9?/m0/s1
