21
gdb 38897	2.59472	1.73526	1.45881	1.225	80.08	-0.2183	0.0689	0.2873	1009.4258	0.185625	-387.061936	-387.054557	-387.053613	-387.093486	30.547	
C	-0.2097025255	 1.4023395991	 0.1503698135	-0.345847
C	 1.2078668468	 0.8689421039	-0.0056750362	-0.058689
C	 2.185757935	 0.8081461103	 1.1549440573	-0.243752
C	 1.606632902	 0.2254359066	 2.4523548409	-0.026636
C	 0.750266901	 1.1417142403	 3.381011408	-0.238591
C	-0.4509554633	 0.1599609413	 3.2601211071	-0.245544
C	 0.3875162694	-0.7504231542	 2.3127599318	 0.120828
O	-0.1358958233	-1.0153919146	 1.026225903	-0.267442
C	 0.0450034711	-0.0785449858	 0.0026773097	 0.132276
H	-0.5156778795	 1.7955475368	 1.110104979	 0.119034
H	-0.6520546083	 1.9200832881	-0.6945191306	 0.110269
H	 1.6798449282	 1.0517145696	-0.9670209351	 0.082952
H	 3.0267730306	 0.1792569462	 0.8365375609	 0.102186
H	 2.6087726803	 1.8007161257	 1.3590006503	 0.100249
H	 2.4202012389	-0.2488275061	 3.0072280233	 0.073471
H	 1.1506843397	 1.2542813442	 4.3911821365	 0.09653
H	 0.5689388017	 2.1440783679	 2.9844577232	 0.101979
H	-0.7423973612	-0.3261397662	 4.1944458083	 0.097629
H	-1.3513209366	 0.565904175	 2.7954154737	 0.111043
H	 0.5795045961	-1.7407074374	 2.7339592622	 0.081154
H	-0.2550943133	-0.5423859909	-0.9309489971	 0.096902
124.899	148.6029	259.4261	320.9153	357.8542	399.9051	504.6673	559.8531	652.1645	715.7981	730.06	755.1035	768.4224	813.7855	853.0771	872.3668	927.8707	950.8409	962.5354	996.6073	998.8593	1038.4936	1048.7227	1080.7285	1116.263	1130.3372	1138.5008	1150.9792	1191.2318	1221.0336	1225.91	1248.1382	1263.2244	1266.3811	1287.2375	1306.5691	1323.4918	1368.7543	1388.0385	1401.2583	1428.9632	1475.6484	1481.7789	1492.2115	1506.413	3009.6618	3040.1655	3054.9242	3060.6177	3065.7183	3074.591	3104.2156	3125.5069	3136.707	3144.7544	3165.2626	3243.9555
C1C2CC3CCC3OC12	C1[C@H]2C[C@H]3CC[C@H]3O[C@@H]12	
InChI=1S/C8H12O/c1-2-7-5(1)3-6-4-8(6)9-7/h5-8H,1-4H2	InChI=1S/C8H12O/c1-2-7-5(1)3-6-4-8(6)9-7/h5-8H,1-4H2/t5-,6-,7-,8+/m1/s1
