18
gdb 61875	4.67045	0.6981	0.63321	1.1552	69.97	-0.2433	-0.0318	0.2115	1679.2913	0.145049	-476.264592	-476.254454	-476.25351	-476.301061	35.612	
N	 0.5166285133	 0.2360854364	 0.8570767188	-0.512463
C	-0.0668229749	 0.1929525669	-0.371080284	 0.368199
O	 0.2504694402	 0.9232186544	-1.2900488023	-0.359542
C	-1.2034118865	-0.8285831821	-0.5197516212	-0.302207
C	-0.9741710708	-2.2002754957	 0.1310191829	 0.082304
O	-0.9016978317	-2.120626147	 1.5616667456	-0.421527
C	-2.0422161674	-3.2211167065	-0.2842947777	-0.301918
C	-1.8274798852	-4.5546553206	 0.40337939	 0.166758
O	-2.6671308476	-5.1371157947	 1.0372037022	-0.235303
H	 1.2934813301	 0.8629336001	 0.9879756188	 0.257152
H	 0.2792292914	-0.4450602355	 1.5626875246	 0.268462
H	-2.121803516	-0.3884075747	-0.1068549286	 0.11819
H	-1.3635371363	-0.9431790822	-1.594376921	 0.134127
H	 0.0128418065	-2.5777938149	-0.1620806652	 0.112801
H	-1.7837012478	-1.9169696525	 1.896204363	 0.292476
H	-3.0503000437	-2.8615327706	-0.0478038492	 0.118413
H	-1.9862682263	-3.3786828591	-1.3698707331	 0.1342
H	-0.8041672475	-4.9766923117	 0.2754234663	 0.079879
44.9645	54.4733	78.4262	121.5051	155.193	267.0127	296.649	317.269	368.1728	427.2798	445.8502	490.4969	541.4279	565.0057	635.4417	741.5523	787.5265	867.2654	878.8802	943.8199	1008.9374	1042.3241	1064.4659	1108.9744	1143.1067	1185.6363	1188.3093	1263.1337	1319.1304	1335.3961	1364.901	1378.0565	1417.1265	1429.2849	1452.9344	1466.0957	1613.119	1800.9289	1840.6768	2870.2315	3021.5025	3026.5632	3047.7695	3084.102	3111.8345	3558.8761	3710.0648	3787.6268
NC(=O)CC(O)CC=O	NC(=O)C[C@@H](O)CC=O	
InChI=1S/C5H9NO3/c6-5(9)3-4(8)1-2-7/h2,4,8H,1,3H2,(H2,6,9)	InChI=1S/C5H9NO3/c6-5(9)3-4(8)1-2-7/h2,4,8H,1,3H2,(H2,6,9)/t4-/m0/s1
