21
gdb 83279	2.70403	1.41339	1.28694	1.5369	78.4	-0.2445	0.0814	0.3259	1122.9463	0.182909	-424.222232	-424.213544	-424.2126	-424.255221	33.563	
C	-0.2615761569	 1.5178419826	 0.1015770574	-0.414245
C	-0.016526838	 0.0289083188	-0.0037654423	-0.040694
C	 0.7077662409	-0.6043705454	-1.1787449545	-0.109198
C	 1.3678813542	 0.2049678321	-2.2809572151	-0.107053
O	 2.3213231071	 1.1429419962	-1.7885454864	-0.245151
C	 3.1614494733	 0.5784822451	-0.811397412	 0.22068
C	 4.2507365682	 1.5733858396	-0.4770518356	-0.410408
O	 2.4413527899	 0.3049994932	 0.3742057012	-0.25406
C	 1.3592435843	-0.5665399614	 0.1853733119	 0.074064
H	 0.5789722764	 2.0872617864	-0.2960397882	 0.144706
H	-1.1616896688	 1.8023499809	-0.4542597019	 0.110268
H	-0.4092630185	 1.8109743901	 1.1464738899	 0.11632
H	-0.8198807293	-0.5847344418	 0.3978635183	 0.082012
H	 0.3364778865	-1.5676084526	-1.5160350356	 0.089563
H	 1.8671180205	-0.4888326703	-2.9767253002	 0.095704
H	 0.6416216683	 0.7892069709	-2.8548165091	 0.113916
H	 3.5813787567	-0.3666720333	-1.2040218959	 0.057694
H	 3.8007698495	 2.4972251363	-0.1054400429	 0.135355
H	 4.9065382885	 1.1628780952	 0.2939596026	 0.12628
H	 4.8381510014	 1.7973869645	-1.3702013717	 0.124388
H	 1.461601526	-1.4856092871	 0.75796713	 0.089858
109.3448	155.6314	172.4794	206.7067	242.0692	248.1996	311.72	424.5678	485.3218	502.0488	575.2157	591.7392	750.6822	764.4603	783.6061	836.0156	873.2234	906.3068	961.4826	985.5189	1026.9685	1050.4874	1081.9862	1099.2184	1123.9572	1137.9376	1149.4286	1159.1185	1177.6952	1197.0878	1247.4615	1287.619	1353.7984	1367.5852	1383.841	1389.4574	1407.7914	1418.3579	1430.2233	1449.8394	1482.0313	1488.811	1497.3544	1501.6009	1506.9424	2926.1423	2973.4967	3036.4508	3058.3412	3071.278	3090.3125	3119.1272	3127.2735	3139.4644	3141.6691	3148.0935	3153.2791
CC1C2COC(C)OC12	C[C@H]1[C@H]2CO[C@@H](C)O[C@@H]12	
InChI=1S/C7H12O2/c1-4-6-3-8-5(2)9-7(4)6/h4-7H,3H2,1-2H3	InChI=1S/C7H12O2/c1-4-6-3-8-5(2)9-7(4)6/h4-7H,3H2,1-2H3/t4-,5+,6+,7-/m0/s1
