17
gdb 35104	2.19376	1.77629	1.15451	2.8363	77.31	-0.2588	-0.0036	0.2552	1069.223	0.13754	-380.866486	-380.858673	-380.857728	-380.899644	29.65	
N	 0.0305132334	-1.2415089431	 0.5589422445	-0.335106
C	 0.0378843551	-0.111432513	 0.3144433383	 0.277812
C	 0.0495390418	 1.3208902244	-0.0041483862	-0.281043
C	-0.7467844792	 2.1399740628	 0.997395102	-0.07013
C	 0.0162971345	 3.0160081182	 1.6449420612	-0.064272
C	 1.461009125	 2.9612557307	 1.229283187	-0.318618
C	 1.4639467917	 1.9600335154	 0.0676206895	 0.320056
C	 2.6710650107	 1.2367433375	-0.3909892616	-0.282893
N	 2.1428407015	 2.3755104831	-1.165901286	-0.348182
H	-0.3640118735	 1.425021257	-1.017405598	 0.128184
H	-1.8083436906	 1.9811271484	 1.1382114222	 0.119109
H	-0.3450247668	 3.7020095407	 2.4026980544	 0.111103
H	 1.8470928332	 3.9297954862	 0.8931786064	 0.131932
H	 2.1014460885	 2.6328114176	 2.0584311085	 0.123117
H	 3.6234731235	 1.4196401381	 0.0994934928	 0.123901
H	 2.5483029579	 0.2296922415	-0.7806885197	 0.133463
H	 1.6436801032	 2.0359311945	-1.9853249652	 0.231566
32.2742	143.356	171.1398	303.7518	348.9031	386.6199	408.7396	483.9371	536.881	584.172	719.8675	775.7161	800.6562	838.2229	916.1339	920.7464	965.9209	975.431	981.0942	992.0005	1023.3035	1032.9945	1089.2075	1133.5394	1142.5479	1186.2037	1229.9636	1257.7055	1279.0521	1292.8772	1307.1576	1368.7948	1396.4899	1478.006	1517.0594	1692.527	2351.1008	3004.2912	3023.6122	3069.0174	3108.7722	3195.1591	3195.9725	3224.3443	3487.9413
N#CC1C=CCC11CN1	N#C[C@H]1C=CC[C@]21CN2	
InChI=1S/C7H8N2/c8-4-6-2-1-3-7(6)5-9-7/h1-2,6,9H,3,5H2	InChI=1S/C7H8N2/c8-4-6-2-1-3-7(6)5-9-7/h1-2,6,9H,3,5H2/t6-,7-/m1/s1
