18
gdb 99313	5.48184	0.67677	0.63199	0.7581	70.85	-0.2522	0.0585	0.3108	1754.1948	0.146313	-476.236241	-476.226376	-476.225432	-476.27322	33.351	
C	 0.0373921583	 1.1190118453	-0.2782725622	-0.231542
O	-0.2357334105	-0.1603350793	 0.2968829329	-0.266016
C	 0.6812639363	-0.5782215285	 1.2059184235	 0.524408
O	 1.6653903141	 0.051988102	 1.5269459375	-0.41788
N	 0.3204796668	-1.7955128282	 1.6961675715	-0.365219
C	 1.1318683973	-2.5199372194	 2.6516047853	-0.186754
C	 1.6310058035	-3.8269122502	 2.0838282585	 0.090687
C	 1.7349743551	-5.0364590319	 2.906194508	-0.17708
O	 0.6539019087	-4.8710850781	 1.9868763982	-0.240673
H	 0.9956169644	 1.1144884707	-0.8043150731	 0.137853
H	-0.777674328	 1.3074710721	-0.9778308449	 0.12935
H	 0.0643512069	 1.8950926064	 0.4910694641	 0.138315
H	-0.5034168687	-2.2339450151	 1.3179511384	 0.262281
H	 1.9707095402	-1.8677329786	 2.9083695185	 0.151405
H	 0.5582688336	-2.7217135262	 3.5649505859	 0.109309
H	 2.271929203	-3.737501095	 1.2058406116	 0.103765
H	 2.4603209361	-5.8049766442	 2.6447432997	 0.12095
H	 1.4623000128	-4.9959013219	 3.9601367364	 0.116842
26.8399	58.6093	79.0747	93.4645	150.0614	206.4348	260.966	304.7321	375.9693	448.6557	490.818	569.8079	694.0209	781.0856	796.2568	862.4595	909.2006	949.5774	1015.7902	1052.505	1099.0031	1139.7657	1161.024	1172.7106	1179.2058	1183.0656	1215.3873	1245.708	1284.699	1298.4135	1363.2868	1452.6002	1468.2009	1472.7512	1480.8949	1501.1603	1530.2073	1551.8992	1813.9011	3028.0445	3049.0302	3085.8934	3105.8552	3117.0563	3122.2201	3152.446	3172.8461	3650.3129
COC(=O)NCC1CO1	COC(=O)NC[C@H]1CO1	
InChI=1S/C5H9NO3/c1-8-5(7)6-2-4-3-9-4/h4H,2-3H2,1H3,(H,6,7)	InChI=1S/C5H9NO3/c1-8-5(7)6-2-4-3-9-4/h4H,2-3H2,1H3,(H,6,7)/t4-/m0/s1
