18
gdb 83828	2.76313	1.57952	1.25816	1.5976	72.22	-0.2395	0.0162	0.2557	1030.9615	0.1492	-439.062769	-439.054994	-439.05405	-439.094985	30.277	
O	 0.0965140515	 1.3703482763	-0.3197150079	-0.421411
C	-0.014984809	 0.0294263462	 0.035621855	 0.078311
C	-1.3955759864	-0.5677042185	 0.2485893732	-0.094853
C	-2.6449835941	 0.2703607756	 0.098553345	-0.249878
C	-3.6470322356	-0.3755508422	-0.8659996836	-0.143734
N	-3.2961704836	-0.3628131815	-2.2766190555	-0.238196
C	-2.1456557752	-0.3242270717	-2.7732701899	 0.122617
O	-0.8787903198	-0.3177215311	-2.2262135247	-0.249596
C	-0.5963678563	-0.9184250642	-0.9809169484	 0.027688
H	 0.0502882602	 1.4119899518	-1.28371862	 0.297718
H	 0.8025230465	-0.3177561546	 0.6621147403	 0.10128
H	-1.4558560636	-1.3698655266	 0.9798003464	 0.093406
H	-3.119003154	 0.4035776782	 1.0778146726	 0.103326
H	-2.3806198439	 1.2713174476	-0.2568869394	 0.120425
H	-3.8360892182	-1.4172773337	-0.5696426425	 0.112502
H	-4.613823382	 0.1354926716	-0.7842392927	 0.111386
H	-2.0286517218	-0.2424504978	-3.8541250433	 0.122553
H	-0.1826969446	-1.9162062552	-1.0977280646	 0.106457
92.1403	153.468	230.269	284.3252	310.0372	356.1345	369.0082	483.5236	579.2391	606.7005	632.2613	753.4292	779.0478	807.9478	847.5881	881.2912	948.7365	968.1603	975.6727	1014.4518	1062.9768	1083.0382	1100.9302	1125.1264	1145.3772	1170.8316	1224.3187	1257.3007	1290.0594	1335.3641	1348.8034	1363.1499	1384.2046	1402.4644	1432.1419	1439.3121	1485.6965	1488.2672	1775.547	3008.7225	3036.5372	3050.3729	3087.1842	3134.0285	3134.7108	3137.3668	3150.3443	3763.5879
OC1C2CCN=COC12	O[C@H]1[C@H]2CCN=CO[C@@H]12	
InChI=1S/C6H9NO2/c8-5-4-1-2-7-3-9-6(4)5/h3-6,8H,1-2H2	InChI=1S/C6H9NO2/c8-5-4-1-2-7-3-9-6(4)5/h3-6,8H,1-2H2/t4-,5+,6-/m1/s1
