14
gdb 27809	2.10208	1.81345	0.97946	4.6163	69.44	-0.2455	-0.0563	0.1892	1124.6551	0.099838	-473.901765	-473.893641	-473.892697	-473.935533	29.295	
C	-0.0165115777	 1.494815507	 0.0047526249	-0.47396
C	 0.0025406097	-0.0084542631	 0.0142024288	 0.346875
N	-0.0237870379	-0.6092990602	-1.1587209077	-0.394163
C	-0.0099244553	-1.9577526145	-1.2479975067	 0.447004
O	-0.0287331707	-2.6665139366	-2.2024285055	-0.318593
O	 0.0366454382	-2.702588503	 0.0498384018	-0.273178
C	 0.0613882177	-2.0510001569	 1.1889675381	 0.517779
O	 0.1019336231	-2.8259976704	 2.2676429373	-0.385766
C	 0.0464967143	-0.6877393218	 1.2542616531	-0.350605
H	 0.871772066	 1.8899135172	 0.5097760845	 0.144752
H	-0.0466831363	 1.8627148757	-1.0203171683	 0.15515
H	-0.8887206521	 1.8674984395	 0.5530707762	 0.144956
H	 0.1048884117	-3.7486338916	 1.973701501	 0.319781
H	 0.0675917092	-0.1779982812	 2.2052934525	 0.119968
33.0589	112.9045	171.0386	215.1129	293.2192	334.8506	482.7303	497.192	517.7413	568.7871	607.3438	613.5787	728.1364	732.9211	787.6624	802.7033	954.8046	993.5019	1035.1787	1053.9707	1118.2642	1218.3662	1227.8752	1390.4394	1424.639	1459.5244	1479.6798	1479.9797	1559.6355	1702.3973	1912.5181	3040.8282	3096.867	3161.7233	3248.4218	3766.2322
CC1=NC(=O)OC(O)=C1	Cc1nc(=O)oc(O)c1	
InChI=1S/C5H5NO3/c1-3-2-4(7)9-5(8)6-3/h2,7H,1H3	InChI=1S/C5H5NO3/c1-3-2-4(7)9-5(8)6-3/h2,7H,1H3
