18
gdb 82709	2.35266	1.95911	1.50328	2.7515	74.48	-0.2439	-0.0305	0.2135	951.3047	0.148814	-401.911925	-401.904586	-401.903641	-401.943603	28.924	
C	-0.1998761914	 1.5958399788	 0.1159188771	-0.423798
C	 0.0492335382	 0.1006114441	-0.0059250544	 0.018789
C	 0.7872391353	-0.5109748861	-1.2205858839	-0.009304
C	 2.1051442751	 0.165934498	-1.6453674119	-0.259322
C	 2.782104839	-0.570842001	-0.4659158743	-0.123409
N	 1.5493130414	-1.4774751923	-0.2979863172	-0.161239
C	 1.098724623	-0.611149472	 0.8912321243	-0.157287
C	 2.4641894375	 0.0745370756	 0.8821450896	 0.430272
O	 3.0850475481	 0.7276742851	 1.6703882035	-0.312858
H	 0.7247947549	 2.174684031	 0.0306553421	 0.129377
H	-0.8873341843	 1.9391556219	-0.6647021156	 0.122073
H	-0.6491775515	 1.8380046648	 1.0845715003	 0.129553
H	-0.8949010867	-0.441869837	 0.1105160562	 0.097013
H	 0.1672477506	-0.9311608797	-2.0147894911	 0.080041
H	 2.4587463737	-0.229873041	-2.6000107021	 0.124364
H	 2.1614895287	 1.2570675617	-1.6750277377	 0.117207
H	 3.7702367936	-1.0125067419	-0.6062645382	 0.100665
H	 0.7702834049	-1.0810471599	 1.8204013533	 0.097862
117.8842	163.1306	198.8775	252.9473	354.3791	443.1876	511.2708	546.6584	595.4424	691.5296	750.3592	819.4415	837.2214	882.6176	893.0659	922.7717	943.0021	951.0488	994.496	1008.2864	1052.273	1099.6069	1113.0558	1122.3425	1151.7121	1163.5932	1178.0725	1213.0324	1235.1758	1255.0706	1287.3093	1321.3072	1350.2509	1366.042	1417.7418	1480.0099	1494.5641	1500.2638	1886.0029	3034.5063	3048.3959	3062.6074	3086.8081	3096.5542	3100.8315	3100.9522	3108.4133	3117.6387
CC1C2CC3N2C1C3=O	C[C@H]1[C@H]2C[C@@H]3N2[C@H]1C3=O	
InChI=1S/C7H9NO/c1-3-4-2-5-7(9)6(3)8(4)5/h3-6H,2H2,1H3	InChI=1S/C7H9NO/c1-3-4-2-5-7(9)6(3)8(4)5/h3-6H,2H2,1H3/t3-,4+,5-,6+/m0/s1
