19
gdb 106610	2.5855	1.54199	1.31342	3.1187	74.51	-0.2397	-0.0115	0.2283	1050.6813	0.160845	-423.030337	-423.022334	-423.02139	-423.062848	31.172	
O	 0.0278020012	 1.3827245432	-0.2592379495	-0.424082
C	 0.0334042421	 0.0194985134	 0.1371327744	-0.184673
C	-1.3713001137	-0.5395608935	 0.1194611514	 0.206523
C	-1.7474619937	-2.0634157468	 0.0450771515	-0.305013
C	-3.0885244679	-1.5523373016	-0.5928421154	-0.137669
C	-3.7061385035	-0.7671937908	 0.589544987	-0.227208
C	-2.4309495633	-0.0126142988	 1.114456802	-0.257995
C	-2.176922916	-0.4737685646	-1.189310745	 0.421438
O	-2.0107095075	 0.0675545104	-2.2474723178	-0.355349
H	-0.3374193491	 1.4065619567	-1.1529941301	 0.298072
H	 0.6817770247	-0.586176879	-0.5160734418	 0.090904
H	 0.4657274121	-0.0114233991	 1.1436697997	 0.108118
H	-1.1239260449	-2.6298117756	-0.649486202	 0.117547
H	-1.8411546483	-2.5862006005	 1.0001487651	 0.108999
H	-3.7360993907	-2.1840395404	-1.1968550061	 0.086234
H	-4.4981871317	-0.0863920601	 0.267694159	 0.115271
H	-4.1265195137	-1.4438569032	 1.3379623663	 0.109164
H	-2.1796627738	-0.2848350196	 2.1437340455	 0.104788
H	-2.5227757421	 1.0741555097	 1.0639830658	 0.124929
93.0234	142.1321	177.0609	243.7981	267.3577	401.6776	427.7316	478.2856	498.4009	597.9099	674.2731	748.4513	786.2339	803.3211	858.6965	873.6909	900.8649	925.8009	966.0125	995.4519	1020.5859	1033.71	1054.0631	1099.4872	1123.4613	1137.1217	1172.656	1212.3557	1220.9429	1249.5887	1256.8279	1278.2346	1317.7855	1355.5919	1388.9361	1438.3519	1490.0365	1497.5475	1505.9421	1518.6345	1874.5805	2976.3124	3055.511	3060.1097	3063.4831	3065.9565	3101.6316	3120.0398	3131.3412	3147.7473	3773.8508
OCC12CC(CC1)C2=O	OC[C@@]12C[C@@H](CC1)C2=O	
InChI=1S/C7H10O2/c8-4-7-2-1-5(3-7)6(7)9/h5,8H,1-4H2	InChI=1S/C7H10O2/c8-4-7-2-1-5(3-7)6(7)9/h5,8H,1-4H2/t5-,7+/m1/s1
