12
gdb 132035	2.43155	1.89822	1.06602	5.4127	62.62	-0.2265	-0.0398	0.1867	996.1457	0.077246	-513.920665	-513.913268	-513.912324	-513.952726	27.084	
O	 0.0444808599	 1.3375537299	 0.0078233361	-0.395741
C	-0.0384389319	 0.0049693557	 0.0009076732	 0.338075
C	-1.1843047651	-0.6992965969	 0.0031282606	 0.071132
F	-2.3500753736	-0.063509378	 0.012873231	-0.042136
C	-1.1623829482	-2.1539245506	-0.0050332934	 0.26294
N	-2.2324902984	-2.8457832841	-0.0031148472	-0.521908
N	 0.1385289755	-2.7288077371	-0.0151322954	-0.303253
C	 1.1586156631	-1.9846164935	-0.0164889823	 0.115821
O	 1.1778039142	-0.6174020666	-0.009022168	-0.223969
H	 0.9765383477	 1.5883712475	 0.004330379	 0.317263
H	-1.9844250406	-3.8365753598	-0.0098930724	 0.2257
H	 2.1729455073	-2.3698387566	-0.0239635611	 0.156077
100.8612	173.0746	231.5793	279.81	317.4445	337.2872	504.4402	507.804	520.4749	558.4841	614.6181	696.9334	752.3978	883.8924	896.0019	948.7681	983.0494	1037.3186	1161.2581	1245.1399	1301.8923	1319.1024	1413.4164	1438.5403	1690.9835	1712.0973	1792.1214	3203.1146	3475.0732	3810.0354
OC1=C(F)C(=N)N=CO1	O[C@H]1C(=C([NH])N=CO1)F	
InChI=1S/C4H3FN2O2/c5-2-3(6)7-1-9-4(2)8/h1,6,8H	InChI=1S/C4H4FN2O2/c5-2-3(6)7-1-9-4(2)8/h1,4,6,8H/t4-/m1/s1
