22
gdb 113148	3.34017	0.7469	0.67734	1.5826	94.37	-0.2237	0.0465	0.2703	1799.3734	0.19156	-367.178097	-367.166866	-367.165922	-367.216274	39.328	
C	 0.3150099037	 1.5265790546	 0.1674431126	-0.374735
C	-0.2350926336	 0.1247106411	-0.1227953986	-0.192561
C	 0.4470445692	-0.5049039801	-1.3168562235	-0.022931
N	 1.7638290205	-1.1202498906	-1.0995636133	-0.369321
C	 0.6272413046	-1.9823428173	-1.5272505492	 0.126157
C	 0.170770119	-3.0149841823	-0.5116129972	-0.457566
C	 0.6210937333	-2.4421187704	-2.8964906507	 0.012899
C	 0.6248728313	-2.851151188	-4.0307447046	 0.088514
C	 0.6261816336	-3.3394796226	-5.4022607871	-0.501015
H	 1.3888071233	 1.4809810854	 0.3736419197	 0.130155
H	 0.1644814403	 2.1976524595	-0.6856721051	 0.11088
H	-0.179755819	 1.9742394467	 1.0346297441	 0.111041
H	-0.0990359433	-0.5080758108	 0.7585311311	 0.104612
H	-1.3142245807	 0.1777767407	-0.3161181514	 0.097942
H	 0.3251342444	 0.0628154477	-2.2392921984	 0.082935
H	 2.3743368497	-0.9463871194	-1.8937635865	 0.232577
H	 0.2768525648	-2.6359173951	 0.5057551086	 0.127869
H	-0.8742164362	-3.2915845219	-0.682982276	 0.121002
H	 0.7795040473	-3.9198066326	-0.6007867473	 0.126304
H	 0.1879040124	-4.341711168	-5.4644628221	 0.149998
H	 0.0475439019	-2.683939514	-6.0627232618	 0.14729
H	 1.6439734335	-3.4000554926	-5.8039330934	 0.147953
16.2573	61.4276	88.3468	99.3721	155.0003	202.5799	210.4097	262.8002	287.6815	315.8668	346.7538	395.3884	458.2827	544.3809	562.9333	644.6614	763.1174	808.1159	837.2026	902.0548	956.4326	1009.0533	1046.8882	1051.2978	1052.8926	1071.2213	1097.4088	1104.1091	1116.1304	1148.5669	1239.273	1297.5642	1310.7895	1336.9034	1347.8222	1405.7461	1413.0428	1415.2838	1454.5945	1475.2922	1477.3602	1479.0229	1486.5361	1497.7826	1498.9918	1509.0352	2361.1832	3024.6522	3029.3374	3032.4066	3044.6606	3081.5776	3083.563	3086.6699	3100.2176	3108.2602	3109.4754	3113.529	3141.2831	3506.826
CCC1NC1(C)C#CC	CC[C@H]1N[C@]1(C)C#CC	
InChI=1S/C8H13N/c1-4-6-8(3)7(5-2)9-8/h7,9H,5H2,1-3H3	InChI=1S/C8H13N/c1-4-6-8(3)7(5-2)9-8/h7,9H,5H2,1-3H3/t7-,8-/m1/s1
