20
gdb 18382	3.17906	2.11089	1.42421	0.2176	79.38	-0.232	0.028	0.26	925.0641	0.180219	-311.869029	-311.862011	-311.861067	-311.89983	28.717	
C	-0.0896736551	 1.5022212872	 0.0182685794	-0.327641
C	 1.3048993531	 0.9303553172	 0.1178562578	 0.024807
C	 2.0503973866	 0.85235206	 1.4336518635	-0.232283
C	 2.8626186445	-0.4468263366	 1.5618913228	-0.236018
C	 2.0748071126	-1.734563358	 1.6046355005	-0.023854
C	 0.7764501963	-1.9541818467	 1.3834182853	-0.060686
C	-0.2871732575	-0.9414548092	 1.0022093543	-0.284434
C	 0.1317954423	 0.0126120805	-0.1074030266	 0.017669
H	-0.5529797938	 1.8655413959	 0.9310869068	 0.105559
H	-0.3575113224	 2.067879029	-0.8676925586	 0.10643
H	 1.9485546129	 1.0935280636	-0.7437396756	 0.075605
H	 2.7264560607	 1.7108679985	 1.5312224354	 0.091069
H	 1.3498669138	 0.9245967825	 2.2729536248	 0.098241
H	 3.5861370914	-0.5050020216	 0.7333647182	 0.103591
H	 3.4816728405	-0.3985648495	 2.4691021445	 0.098099
H	 2.6804108899	-2.6026934363	 1.864537099	 0.078879
H	 0.4239999404	-2.9773271834	 1.4998657585	 0.079531
H	-1.1936637566	-1.474199215	 0.6935673072	 0.097291
H	-0.5846885239	-0.3689046874	 1.890318752	 0.108833
H	 0.0421051743	-0.4054420105	-1.106235239	 0.079313
138.9858	208.7952	283.2216	330.029	375.0129	408.1658	440.9741	586.3012	653.8582	726.4648	765.8481	817.3294	830.8721	866.9567	915.6639	920.7225	940.7481	977.9698	1009.5458	1027.2431	1046.015	1067.5902	1075.2409	1116.5021	1138.9912	1147.7451	1222.392	1242.306	1249.5837	1252.8922	1285.9018	1335.6457	1352.9993	1386.06	1398.1274	1422.3661	1433.4727	1471.9457	1481.0106	1493.3004	1505.6247	1725.8849	2986.0032	3012.6904	3018.6073	3031.4667	3053.5801	3068.2542	3117.2121	3121.8266	3125.1653	3142.048	3146.9626	3206.6745
C1C2CCC=CCC12	C1[C@H]2CCC=CC[C@@H]12	
InChI=1S/C8H12/c1-2-4-7-6-8(7)5-3-1/h1-2,7-8H,3-6H2	InChI=1S/C8H12/c1-2-4-7-6-8(7)5-3-1/h1-2,7-8H,3-6H2/t7-,8+/m0/s1
