12
gdb 21589	3.58517	2.35315	1.42101	3.0296	61.84	-0.2283	-0.0527	0.1756	784.6617	0.086015	-410.853965	-410.847396	-410.846451	-410.884528	24.603	
N	 0.0135626183	 1.3738065416	 0.0864346938	-0.579379
C	-0.0438642016	 0.0253240081	 0.0297425899	 0.216064
C	-1.1620735138	-0.7700702907	 0.0128652304	-0.06342
N	-1.1228649002	-2.1370379575	-0.0125007148	-0.194878
N	-0.0163258553	-2.7644610951	-0.0274125955	-0.072823
N	 1.1244644677	-2.0131698452	-0.0207197088	-0.292925
C	 1.2580769628	-0.643213557	 0.0021594932	 0.443572
O	 2.3348044614	-0.0639992566	-0.0059768714	-0.40335
H	 0.9284945542	 1.7829183883	-0.0294086108	 0.283191
H	-0.8016019784	 1.9426410085	-0.0573054057	 0.269315
H	-2.1615295973	-0.3479206493	 0.0225743633	 0.115061
H	 1.973091322	-2.5638175751	-0.0413428237	 0.279573
150.4606	228.1651	253.2223	303.1165	446.0961	460.9088	540.9011	567.0944	612.2051	637.8041	748.9831	763.27	796.7633	896.948	946.6564	1043.5851	1071.623	1186.1157	1263.1248	1343.2236	1383.9199	1461.9895	1522.8446	1600.0365	1652.3576	1771.9725	3182.0037	3589.3111	3600.3479	3730.9844
NC1=CN=NNC1=O	Nc1cnn[nH]c1=O	
InChI=1S/C3H4N4O/c4-2-1-5-7-6-3(2)8/h1H,(H2,4,7)(H,5,6,8)	InChI=1S/C3H4N4O/c4-2-1-5-7-6-3(2)8/h1H,(H2,4,7)(H,5,6,8)
