22
gdb 59384	3.9723	0.81176	0.71459	4.4122	85.4	-0.2378	0.0282	0.266	1626.236	0.19319	-404.368889	-404.358767	-404.357823	-404.405126	36.143	
C	-0.2712345247	 1.4245140189	 0.0541205606	-0.392543
C	 0.043584056	-0.0770950884	 0.0119647844	 0.017798
C	 0.6887114317	-0.465779432	-1.3253500021	-0.393039
C	 0.9339355123	-0.4844198589	 1.1854149126	 0.028916
C	 0.3177674497	-0.39509582	 2.6189727094	-0.21419
N	 0.6236096197	-1.8162512305	 2.7887119802	-0.033931
C	 1.1408567406	-2.0116381953	 1.4364304196	-0.200249
C	 0.3827867257	-2.7133515086	 3.7668680287	 0.131198
O	 0.6380754669	-3.8989725341	 3.693088022	-0.334185
H	 0.6454400488	 2.0183938481	-0.04261353	 0.115321
H	-0.9376992027	 1.7079594384	-0.7665286504	 0.116965
H	-0.7580912282	 1.712734217	 0.9915561906	 0.115222
H	-0.9038099272	-0.6284510487	 0.1075071914	 0.07645
H	 1.6386336333	 0.0628599473	-1.4685062934	 0.115062
H	 0.8922728997	-1.5398456085	-1.3815364553	 0.120363
H	 0.0356366877	-0.2067193808	-2.1646005755	 0.116307
H	 1.8877200187	 0.0488272128	 1.1248690975	 0.080598
H	 0.8320296947	 0.2677359287	 3.3230662134	 0.116086
H	-0.755660825	-0.1673444219	 2.6378550569	 0.112103
H	 0.5135510599	-2.6721589158	 0.8261952369	 0.11877
H	 2.1709227153	-2.3789632934	 1.4033164685	 0.123088
H	-0.0731955429	-2.2379823643	 4.6608763841	 0.063889
26.4872	86.3315	97.3096	149.1869	219.2474	226.5743	245.8414	301.0131	316.4562	339.8248	431.9581	444.4487	560.4075	731.8355	808.3096	888.8536	891.8162	929.9783	949.8471	959.8287	997.072	1000.0785	1034.9222	1046.8154	1141.2656	1147.1816	1165.6417	1189.2557	1196.0792	1230.4938	1268.0113	1287.9691	1301.4163	1332.7661	1351.1412	1388.4	1401.7692	1407.3135	1423.1591	1453.9555	1486.3656	1492.6674	1505.5334	1506.278	1510.3135	1524.5386	1790.719	2911.8964	2993.7821	3015.4631	3025.9745	3029.8658	3033.3402	3053.8505	3068.8594	3084.3814	3091.7229	3097.017	3102.1617	3105.4484
CC(C)C1CN(C1)C=O	CC(C)C1CN(C1)C=O	
InChI=1S/C7H13NO/c1-6(2)7-3-8(4-7)5-9/h5-7H,3-4H2,1-2H3	InChI=1S/C7H13NO/c1-6(2)7-3-8(4-7)5-9/h5-7H,3-4H2,1-2H3
