18
gdb 93555	2.61554	1.41699	1.10981	2.5443	73.9	-0.2426	-0.0024	0.2402	1120.9288	0.149494	-439.122169	-439.113887	-439.112943	-439.155117	31.805	
O	 0.1841090178	 1.3895054416	 0.21552748	-0.43243
C	 0.0597262981	-0.0211460647	 0.0456620283	 0.09087
C	-1.4113224101	-0.4492774367	 0.1028924441	-0.205974
N	-2.2008126162	 0.1007448483	-0.9863224566	-0.298218
C	-2.170003692	-0.320218271	-2.2883785094	 0.383027
O	-2.9158741555	 0.1334580481	-3.1329013612	-0.358411
C	-1.1344383423	-1.4043134325	-2.6009982127	-0.372611
C	 0.3008179013	-1.0382911324	-2.2919818705	-0.071476
C	 0.7963867859	-0.4684852796	-1.1917128688	-0.07582
H	-0.1787112631	 1.7942161683	-0.5814110225	 0.283065
H	 0.5577478073	-0.4493088704	 0.9254501558	 0.094924
H	-1.4808869315	-1.5447430305	 0.1246639205	 0.114545
H	-1.835179827	-0.0778824202	 1.0385096684	 0.122887
H	-2.9197649915	 0.7773705027	-0.7804823999	 0.252199
H	-1.4206172373	-2.3224190223	-2.066971152	 0.133294
H	-1.2448011172	-1.6170470336	-3.6646768691	 0.135454
H	 1.002577512	-1.2726926404	-3.0889703911	 0.104931
H	 1.8617771313	-0.2509846547	-1.1628232631	 0.099746
75.5222	112.9433	218.7203	255.076	322.6633	346.5942	374.262	447.5258	480.9088	524.8107	542.0896	607.543	709.8935	717.4492	797.9757	831.2197	887.3103	930.3546	951.0373	969.5849	1013.5126	1060.7712	1077.3811	1152.2062	1187.3542	1245.4669	1254.3468	1287.3263	1329.4124	1343.7051	1364.5431	1403.621	1410.0055	1432.5315	1458.3112	1467.9263	1490.8782	1720.4386	1800.0704	3004.9568	3019.0667	3032.2736	3108.0202	3123.8956	3144.0167	3165.872	3626.8121	3791.8658
OC1CNC(=O)CC=C1	O[C@H]1CNC(=O)CC=C1	
InChI=1S/C6H9NO2/c8-5-2-1-3-6(9)7-4-5/h1-2,5,8H,3-4H2,(H,7,9)	InChI=1S/C6H9NO2/c8-5-2-1-3-6(9)7-4-5/h1-2,5,8H,3-4H2,(H,7,9)/t5-/m1/s1
