18
gdb 37592	2.85901	2.37578	2.01866	0.2243	72.31	-0.2317	0.0902	0.3219	788.8365	0.153201	-401.94112	-401.935726	-401.934782	-401.970485	24.434	
C	 0.0027627409	 1.550600081	 0.0901887001	-0.232211
C	 1.4849501022	 1.8314872128	-0.0300843974	-0.036046
C	 2.4538432724	 0.8252812494	 0.500617121	-0.05748
C	 1.9280173665	-0.5231268758	 1.0367378878	 0.065319
C	 1.9621707009	-1.3828977982	-0.2444212469	-0.214715
C	 1.1583382502	-0.3179813278	-1.0067039872	-0.040346
C	 0.012221969	 0.0267916733	 0.0106425508	 0.07107
O	 0.5240626928	-0.4402144728	 1.2764428252	-0.277127
N	 2.09850352	 0.8538986832	-0.9565910472	-0.128398
H	-0.4496290411	 1.890798596	 1.0245041455	 0.11529
H	-0.529032771	 2.0109872953	-0.7511347061	 0.10106
H	 1.8198902074	 2.8584626828	-0.150865195	 0.08989
H	 3.4640743415	 1.1325666396	 0.7556808938	 0.090801
H	 2.4234700566	-0.8949520111	 1.932664201	 0.079634
H	 2.9561614226	-1.5237225632	-0.6735320422	 0.111445
H	 1.4547262893	-2.3409645537	-0.1126121172	 0.104126
H	 0.8411343437	-0.5349235164	-2.0256473888	 0.078776
H	-0.9539115941	-0.4432406345	-0.1821952573	 0.078912
331.6593	415.9864	459.8479	533.261	588.3436	641.7894	738.1377	747.1003	778.782	819.5657	831.133	871.8555	880.5148	908.7992	939.9872	950.7954	964.7258	987.5184	997.9304	1023.1721	1038.3028	1058.8107	1080.6132	1116.7635	1139.9043	1178.759	1204.0167	1218.1342	1248.1657	1272.6524	1278.2514	1281.5643	1301.2782	1326.9492	1352.9262	1365.2204	1406.323	1479.3327	1480.457	3039.8357	3074.5857	3094.6844	3108.1035	3129.0146	3132.4859	3137.2724	3140.2322	3151.9219
C1C2C3C4CC(C1O4)N23	C1[C@H]2[C@H]3[C@@H]4C[C@@H]([C@H]1O4)N23	
InChI=1S/C7H9NO/c1-3-5-2-4-7(8(3)4)6(1)9-5/h3-7H,1-2H2	InChI=1S/C7H9NO/c1-3-5-2-4-7(8(3)4)6(1)9-5/h3-7H,1-2H2/t3-,4-,5-,6-,7-,8?/m0/s1
