15
gdb 43187	2.33073	2.14656	1.29067	2.6593	65.51	-0.2437	-0.0472	0.1965	939.3124	0.112616	-457.699403	-457.692476	-457.691532	-457.730939	26.482	
O	 0.0382071294	-0.0153218404	-0.0475597936	-0.290462
C	 0.0004115695	 1.1783903903	-0.0178134702	 0.414241
C	-1.1333758799	 2.2131011127	 0.1056122436	-0.278104
C	-1.6290737051	 2.8536605256	-1.2303729788	-0.116118
O	-0.7133962044	 3.9777172313	-1.1015573795	-0.314639
C	-0.0928035083	 3.3577878237	-0.0028961766	 0.418353
C	 0.6333367262	 3.9520756031	 1.1834882142	-0.168288
O	 1.4386773398	 2.7410542636	 1.2635382777	-0.285532
C	 1.064386896	 2.3045011233	-0.0752933531	-0.09547
H	-1.8769956961	 2.1078424179	 0.8946699715	 0.111461
H	-1.4451503129	 2.2777188967	-2.1429690474	 0.128985
H	-2.6688782214	 3.1887476948	-1.206180471	 0.132361
H	 1.2543580932	 4.8242065483	 0.9412902258	 0.122659
H	 0.062497779	 4.1396583163	 2.0979806662	 0.121029
H	 1.9071141549	 2.2727742228	-0.7701923689	 0.099523
97.2769	193.5332	239.1579	298.9028	340.7725	437.2941	493.1062	615.5082	704.4489	725.3723	805.3763	860.3107	896.082	948.7147	953.1456	979.4505	986.2964	1015.8769	1045.823	1097.2561	1108.5603	1138.0792	1155.4061	1174.895	1226.7833	1247.7892	1258.3102	1287.3281	1336.1554	1367.6738	1511.0028	1517.9358	1889.0281	3022.4727	3048.7547	3087.8637	3088.8569	3105.6997	3126.3977
O=C1C2COC22COC12	O=C1[C@@H]2CO[C@]32CO[C@@H]13	
InChI=1S/C6H6O3/c7-4-3-1-9-6(3)2-8-5(4)6/h3,5H,1-2H2	InChI=1S/C6H6O3/c7-4-3-1-9-6(3)2-8-5(4)6/h3,5H,1-2H2/t3-,5-,6-/m0/s1
