19
gdb 72235	2.47916	1.96166	1.36042	0.725	74.29	-0.2125	0.0665	0.279	991.5529	0.159333	-422.997954	-422.99003	-422.989086	-423.029725	31.888	
C	-0.014504893	 1.4714207817	-0.0142463156	-0.51267
C	-0.0253366849	-0.0190921168	 0.0255351343	 0.411479
O	 0.829655582	-0.7369315523	-0.873558087	-0.345863
C	-0.0848570573	-1.8858635419	-0.8037909928	 0.083852
C	 0.5147290109	-2.8994798221	 0.1681547736	-0.208376
C	 0.6075375713	-2.0922987646	 1.4932275417	-0.289836
C	-0.3030757478	-0.8832543098	 1.2559757698	 0.322269
O	-0.9575555492	-0.2852777031	 2.3328935492	-0.474845
C	-1.1135655344	-1.0585326716	-0.0121806176	-0.255215
H	 0.9907167398	 1.8541475363	 0.1981678368	 0.126038
H	-0.3155279076	 1.8423032148	-0.9988365449	 0.130397
H	-0.7035201761	 1.8677457294	 0.7361290778	 0.131825
H	-0.3404705474	-2.2511786107	-1.7999928512	 0.079818
H	-0.1561764955	-3.7600550724	 0.2713617853	 0.100423
H	 1.4847514586	-3.264058238	-0.1803113812	 0.107558
H	 0.2383443334	-2.6595896492	 2.3522322151	 0.105142
H	 1.6380544949	-1.7915969931	 1.7079996434	 0.101993
H	-0.3085062898	 0.2217973693	 2.8332176403	 0.285637
H	-2.1892328879	-0.9992037559	-0.1051562171	 0.100373
187.5181	192.6319	202.1789	240.3818	308.9158	348.692	383.8132	417.7943	476.1896	599.8106	611.1269	731.5962	738.7951	767.7335	838.5156	872.5423	896.3897	900.1971	936.6201	969.3392	981.2843	1013.5917	1048.0931	1101.8614	1124.7808	1151.8174	1175.159	1189.7921	1212.8477	1263.4997	1283.1197	1292.1398	1321.9162	1340.2434	1363.4992	1406.6598	1458.092	1473.2836	1481.3608	1496.5101	1503.2861	3031.8819	3040.7254	3049.7463	3088.7976	3094.6052	3098.9591	3105.5269	3124.2602	3208.2013	3792.8682
CC12OC3CCC1(O)C23	C[C@@]12O[C@H]3CC[C@]1(O)[C@@H]23	
InChI=1S/C7H10O2/c1-6-5-4(9-6)2-3-7(5,6)8/h4-5,8H,2-3H2,1H3	InChI=1S/C7H10O2/c1-6-5-4(9-6)2-3-7(5,6)8/h4-5,8H,2-3H2,1H3/t4-,5+,6-,7-/m0/s1
