21
gdb 86264	1.79954	1.6389	1.13043	1.0726	85.32	-0.2513	0.0347	0.286	1218.2196	0.179425	-387.054239	-387.04404	-387.043096	-387.088651	38.7	
C	-0.6017472512	 0.8684538466	-1.6201882601	-0.428736
C	 0.3760196559	-0.1899813791	-1.1406166607	 0.005555
C	 1.8971445227	 0.0019362225	-1.3815498878	-0.271047
C	 2.16865525	-0.59766289	 0.0243793362	 0.013535
C	 3.2782872858	-0.0302753242	 0.8928424429	-0.411872
C	 0.6825857442	-0.2776604964	 0.4025653442	 0.185751
O	 0.6523237258	 0.9993198377	 1.0310437865	-0.463068
C	-0.0629551995	-1.261600286	 1.1747218297	 0.268017
C	-0.7056119046	-2.066474646	 1.7971820614	-0.454871
H	-0.3347434716	 1.8517077465	-1.2216558255	 0.122515
H	-0.5944773562	 0.9339951562	-2.7134081452	 0.11824
H	-1.6279226604	 0.6377695796	-1.3109036852	 0.113805
H	 0.0662847451	-1.1817071356	-1.4852410964	 0.07931
H	 2.3391878207	-0.5065824575	-2.2412877173	 0.093438
H	 2.1649267455	 1.062216808	-1.4212796734	 0.106475
H	 2.2651445818	-1.6848806271	-0.0541077643	 0.082406
H	 3.1612934428	 1.0480263608	 1.0225930489	 0.132497
H	 3.2803014249	-0.4910428015	 1.8862537181	 0.119158
H	 4.2542823259	-0.2199063765	 0.4327401308	 0.109344
H	-0.2639168604	 1.1925083099	 1.256435673	 0.285232
H	-1.2615192772	-2.7809324478	 2.3525816042	 0.194315
89.9274	113.4762	161.9921	203.2297	212.0996	240.3665	262.9251	276.9496	331.7785	342.1584	469.0292	473.8251	523.3814	572.9967	579.3807	620.6115	656.8545	695.7336	832.4106	885.0054	909.5394	920.8978	965.5009	981.0533	1044.3181	1079.53	1110.0379	1150.9225	1167.1421	1179.0805	1198.8347	1255.6449	1263.6879	1304.2213	1334.042	1360.9945	1390.6624	1401.1799	1408.3469	1488.1301	1490.1345	1493.5158	1499.3126	1504.8159	2224.0432	3027.9095	3035.0367	3054.8374	3056.601	3061.8367	3090.8356	3096.4635	3109.2327	3114.1858	3127.9755	3499.9142	3813.8855
CC1CC(C)C1(O)C#C	C[C@H]1C[C@@H](C)[C@]1(O)C#C	
InChI=1S/C8H12O/c1-4-8(9)6(2)5-7(8)3/h1,6-7,9H,5H2,2-3H3	InChI=1S/C8H12O/c1-4-8(9)6(2)5-7(8)3/h1,6-7,9H,5H2,2-3H3/t6-,7+,8-
