19
gdb 54247	2.52237	1.45478	1.27559	2.6462	77.1	-0.2241	-0.0205	0.2036	1096.3907	0.156747	-423.054559	-423.045261	-423.044316	-423.088949	34.18	
C	-0.1455738047	 1.2787043017	-0.6664678013	-0.477154
C	-0.0806599178	 0.050993019	 0.2143915005	 0.355593
O	 0.9108264748	-0.2653504871	 0.8304582912	-0.31691
C	-1.3458477624	-0.8435964848	 0.2836315152	 0.233522
C	-1.6409394979	-1.2093806437	 1.7432619609	-0.413347
O	-2.4740448976	-0.1718218157	-0.292104458	-0.302359
C	-2.9605411555	-0.8751677155	-1.4341164552	-0.135697
C	-2.0469210672	-2.0588058057	-1.5783432683	-0.100991
C	-1.1366634451	-2.0447144894	-0.6125547884	-0.106264
H	 0.8154322503	 1.7937041464	-0.6415883401	 0.133939
H	-0.391674403	 0.99342933	-1.694872402	 0.140348
H	-0.9481156929	 1.9414728151	-0.3306830763	 0.153124
H	-1.9276763762	-0.3133536869	 2.3015658882	 0.12502
H	-2.4629426077	-1.9280711828	 1.7902705439	 0.115675
H	-0.750511066	-1.6378379282	 2.207191472	 0.140862
H	-4.0098496085	-1.1680824935	-1.2750811136	 0.111582
H	-2.9404328827	-0.2158992181	-2.3159486719	 0.107506
H	-2.1533927248	-2.7987927537	-2.3613730896	 0.112981
H	-0.3362557151	-2.7519074072	-0.4419033973	 0.122568
46.1029	89.5551	170.5981	184.5051	225.7554	249.3429	278.531	346.8192	401.536	458.04	520.541	591.4382	630.5135	740.2314	774.9611	822.5103	864.6142	905.9528	953.8879	963.3199	975.9112	1019.2706	1046.1149	1047.9954	1112.0365	1119.8145	1171.5923	1187.7065	1202.9701	1245.2412	1339.0912	1376.6973	1380.1795	1391.9535	1454.9475	1466.8683	1485.5765	1490.2814	1521.9915	1686.3272	1805.4648	2978.5229	2996.0063	3047.0835	3048.0053	3112.0828	3121.647	3144.6923	3156.1949	3212.4119	3240.5457
CC(=O)C1(C)OCC=C1	CC(=O)[C@@]1(C)OCC=C1	
InChI=1S/C7H10O2/c1-6(8)7(2)4-3-5-9-7/h3-4H,5H2,1-2H3	InChI=1S/C7H10O2/c1-6(8)7(2)4-3-5-9-7/h3-4H,5H2,1-2H3/t7-/m0/s1
