15
gdb 49368	2.51363	1.37116	0.96781	4.3631	75.36	-0.2609	-0.0304	0.2305	1177.4622	0.111397	-416.789217	-416.780672	-416.779728	-416.822991	30.684	
N	-0.0596328209	 1.1684337299	 0.9972236009	-0.532965
C	-0.080717596	 0.1052765737	 0.3297604039	 0.407806
C	-1.1824477305	-0.6941811864	-0.3556084757	-0.340781
C	-0.0673859902	-1.7260476545	-0.7635212965	-0.17635
C	 0.1630393016	-1.9400673164	-2.1802920203	 0.328699
C	 0.3520210281	-2.1258583895	-3.3521396905	-0.433873
N	 0.9009754131	-0.8303992594	-0.0822359605	-0.088123
C	 2.2583525094	-0.8727279807	 0.0842110455	 0.141947
O	 2.8851411178	-0.0354400162	 0.6938193374	-0.300754
H	 0.8919183561	 1.3891234002	 1.2954108389	 0.253172
H	-1.9511632354	-1.0898546453	 0.3088805103	 0.145555
H	-1.6461976789	-0.1868286735	-1.2016506746	 0.152514
H	-0.1673674644	-2.6849109113	-0.2442622146	 0.129206
H	 0.51962857	-2.2857627004	-4.3891218176	 0.213957
H	 2.7160123303	-1.7549414402	-0.4019526665	 0.099989
74.8465	80.1531	160.0984	189.8406	235.1002	255.6843	400.638	477.568	486.6778	517.0994	591.6928	641.2245	674.2361	751.2245	795.4656	866.2552	915.4493	989.6736	1000.2014	1027.0766	1045.316	1121.5966	1141.0505	1232.8299	1235.7418	1275.6117	1359.531	1380.8379	1427.6371	1463.2603	1761.3417	1825.4771	2241.8506	2960.0337	3052.203	3098.5413	3158.7212	3485.8474	3500.0162
N=C1CC(C#C)N1C=O	[NH][C]1C[C@@H](C#C)N1C=O	
InChI=1S/C6H6N2O/c1-2-5-3-6(7)8(5)4-9/h1,4-5,7H,3H2	InChI=1S/C6H6N2O/c1-2-5-3-6(7)8(5)4-9/h1,4-5,7H,3H2/t5-/m1/s1
