17
gdb 55671	2.28465	1.15623	0.92585	1.6445	72.49	-0.2493	-0.0386	0.2106	1290.5086	0.133947	-455.188954	-455.179312	-455.178368	-455.224692	33.379	
C	 1.0349151665	-0.0983413606	 0.2000560919	-0.484416
C	-0.4138466338	 0.1155426411	 0.5748260034	 0.373388
O	-0.8849699959	 1.2034308269	 0.8038889045	-0.284092
C	-1.3142135884	-1.1240037952	 0.7243607033	-0.285635
N	-0.9990516449	-2.2626340682	-0.13259162	-0.065687
C	-0.1991512427	-3.3022663432	 0.3378992149	 0.08984
N	 0.3303858334	-3.2524003759	 1.4921427545	-0.467753
C	-1.5494431515	-2.3487759732	-1.4040937701	 0.160034
O	-1.3508866011	-3.2463445009	-2.1858430198	-0.307085
H	 1.5622311827	 0.8552471545	 0.2311901349	 0.144685
H	 1.4932930298	-0.8182226986	 0.8859692231	 0.165877
H	 1.111882672	-0.5269363033	-0.8053386171	 0.144589
H	-1.2215807138	-1.4654818974	 1.760220256	 0.177629
H	-2.3451533816	-0.8054068938	 0.5563193114	 0.143643
H	-0.1136046892	-4.1049926189	-0.3952415959	 0.151514
H	 0.8616137408	-4.1013537678	 1.6746151527	 0.239598
H	-2.2035527522	-1.4848858953	-1.6223625976	 0.103874
38.1295	59.2223	115.9522	174.4413	209.2339	241.836	250.0092	318.4147	342.4096	416.4074	466.7518	530.1335	579.9449	745.0201	779.9701	839.8705	855.0213	895.5486	1006.8868	1036.1233	1064.059	1083.6705	1155.0547	1197.6899	1240.6236	1338.9117	1346.7917	1374.6945	1385.9261	1414.1005	1430.2996	1462.0159	1465.8503	1473.1361	1710.2667	1813.5403	1818.7754	2971.5141	3042.8591	3065.269	3106.3334	3125.1658	3135.7778	3159.9184	3512.2973
CC(=O)CN(C=N)C=O	CC(=O)CN(C=N)C=O	
InChI=1S/C5H8N2O2/c1-5(9)2-7(3-6)4-8/h3-4,6H,2H2,1H3	InChI=1S/C5H8N2O2/c1-5(9)2-7(3-6)4-8/h3-4,6H,2H2,1H3
