16
gdb 84189	3.96063	1.06423	0.84773	2.579	85.79	-0.2057	-0.0284	0.1773	1305.0035	0.123242	-400.770636	-400.761908	-400.760964	-400.804092	31.975	
C	 0.0040639761	 1.4762295518	 0.0268419835	-0.353249
N	 0.0090918198	 0.0302931749	-0.0246744707	-0.081023
C	 0.0347455009	-0.7470869665	-1.1797475032	-0.105413
C	 0.0333121778	-2.0686879187	-0.9056384439	 0.092024
C	 0.0036715462	-2.2185999477	 0.6028158971	-0.473435
C	-0.0117905562	-0.7741072946	 1.1121610029	 0.416297
O	-0.0350773124	-0.3708356922	 2.2520612706	-0.375173
C	 0.055293919	-3.1346904576	-1.8212116741	 0.225271
C	 0.0735065049	-4.0800116718	-2.5705289101	-0.43203
H	 0.903634191	 1.8930329206	-0.4388393443	 0.136451
H	-0.8779189103	 1.8880956157	-0.4754283521	 0.136439
H	-0.0183622202	 1.757705847	 1.0808414188	 0.172572
H	 0.0528828732	-0.26564629	-2.1470103029	 0.137146
H	-0.8816267013	-2.7510046593	 0.9657113945	 0.157041
H	 0.87748051	-2.744794187	 1.0009251431	 0.157118
H	 0.0896886315	-4.9039657346	-3.2394806593	 0.189964
103.5084	118.1252	138.7404	161.9158	223.4315	296.8772	426.7396	436.9753	494.3613	501.4049	537.287	570.3366	590.464	653.5532	657.0245	803.0973	880.5801	909.8026	951.4952	1036.3984	1105.8322	1149.0179	1155.5658	1170.0042	1227.6975	1298.8809	1331.0113	1403.0813	1434.1666	1458.1603	1495.2157	1509.8837	1659.5014	1823.6289	2218.4927	3029.6852	3058.7826	3086.3295	3095.3223	3147.9205	3241.6188	3505.0223
CN1C=C(CC1=O)C#C	CN1C=C(CC1=O)C#C	
InChI=1S/C7H7NO/c1-3-6-4-7(9)8(2)5-6/h1,5H,4H2,2H3	InChI=1S/C7H7NO/c1-3-6-4-7(9)8(2)5-6/h1,5H,4H2,2H3
