19
gdb 67251	3.04849	1.53317	1.28647	1.3053	79.66	-0.2296	0.0747	0.3043	1042.7358	0.159661	-385.812245	-385.804745	-385.803801	-385.843717	31.058	
O	-0.1005540737	 1.4519002331	-0.0679775294	-0.452768
C	 0.0258847802	 0.0907385175	-0.0015878987	 0.382867
C	 0.0200599385	-1.0179423093	-1.0237061081	-0.163086
C	 1.259962918	-1.672057959	-0.4163278489	-0.225668
C	 0.9135213813	-0.9080505835	 0.8940375654	-0.240233
C	-0.4100321986	-1.5476056736	 1.3414684267	 0.455164
C	-0.643841262	-2.8502524706	 2.0398306935	-0.344448
C	-0.973758029	-1.5324971477	 2.7256318402	-0.349876
C	-1.0505999353	-0.9436331288	 0.114733592	-0.213265
H	 0.6572708059	 1.8077353342	-0.5462472564	 0.289123
H	-0.2919299151	-0.9764559298	-2.0599097614	 0.085573
H	 1.2935911181	-2.7646476563	-0.3463070974	 0.09328
H	 2.1782752804	-1.3027527715	-0.882638657	 0.088564
H	 1.6807966394	-0.6394196112	 1.6183034598	 0.068631
H	-1.4700994468	-3.4736551564	 1.7130295158	 0.109817
H	 0.2166049053	-3.4068385504	 2.3990805346	 0.107329
H	-0.3328658035	-1.210906145	 3.540764192	 0.109383
H	-2.0197274634	-1.2737827907	 2.8575185938	 0.11136
H	-2.1007351498	-0.8360744709	-0.1253762165	 0.088253
131.5945	225.1786	267.3866	276.5463	326.4404	374.0597	476.3294	486.9337	571.4059	637.4123	718.4817	761.8712	785.7803	841.1912	887.5342	908.9435	915.9806	933.4233	952.4045	957.9271	988.7444	995.7115	1019.6121	1047.081	1059.0469	1074.4618	1097.6018	1110.4342	1138.0637	1177.956	1183.3726	1202.8609	1236.0054	1265.0367	1283.5143	1308.639	1414.0125	1463.5606	1482.3887	1498.0818	1513.2069	3038.6393	3092.7683	3118.8649	3122.9889	3130.5595	3192.1624	3195.8416	3202.3494	3210.5735	3781.9432
OC12C3CC1C1(CC1)C23	O[C@@]12[C@H]3C[C@@H]1C1(CC1)[C@@H]23	
InChI=1S/C8H10O/c9-8-4-3-5(8)7(1-2-7)6(4)8/h4-6,9H,1-3H2	InChI=1S/C8H10O/c9-8-4-3-5(8)7(1-2-7)6(4)8/h4-6,9H,1-3H2/t4-,5+,6-,8-/m0/s1
