18
gdb 66011	2.31571	1.5089	1.36344	1.8174	72.05	-0.2641	0.0174	0.2815	1054.9435	0.147151	-439.063507	-439.054864	-439.053919	-439.096929	32.432	
O	 0.2186493365	 1.4005937138	-0.2745862769	-0.466789
C	 0.0594801612	 0.0168437697	-0.0423025704	 0.256833
C	 1.0009297537	-0.7941873118	-0.9625095503	-0.108276
O	 1.7416695399	-1.2776421589	 0.2064578325	-0.256099
C	 0.9597903619	-0.543361424	 1.0639506733	 0.38934
N	 1.0141770352	-0.3888378284	 2.3078669383	-0.557726
C	-1.3942712528	-0.3809912732	-0.0065190412	-0.07418
C	-1.8782458226	-1.6201252967	 0.7024913027	-0.278778
C	-2.1869527374	-0.2611203439	 1.2763177911	-0.282192
H	-0.2563203707	 1.8619805759	 0.4266376324	 0.290993
H	 0.5534947563	-1.6247667942	-1.5111458713	 0.122567
H	 1.6352356864	-0.1800500116	-1.6036058899	 0.131549
H	 1.7938753391	-0.9039907697	 2.7212209142	 0.229812
H	-1.9139706376	-0.1109992129	-0.9222475606	 0.095931
H	-2.6787840303	-2.1830714867	 0.2361643554	 0.113503
H	-1.152160474	-2.2272009214	 1.2314647362	 0.130051
H	-1.6464039311	 0.0217116442	 2.1727965397	 0.149542
H	-3.2026051938	 0.1121736898	 1.2110298648	 0.113919
76.4935	115.6434	149.2875	205.9469	222.5437	318.1986	344.6909	382.1885	453.0296	530.6518	652.8057	706.0463	762.2221	796.3704	837.3855	866.6942	890.7382	938.1818	950.2203	961.4417	985.5425	1025.3875	1060.6172	1077.7031	1095.5439	1139.9747	1151.171	1194.8486	1203.1712	1215.0922	1232.1511	1262.0984	1338.5777	1390.9278	1408.257	1464.0806	1498.0622	1503.9192	1817.0896	3076.5394	3137.6755	3138.4513	3143.5855	3146.604	3220.1109	3233.8739	3469.428	3800.7678
OC1(COC1=N)C1CC1	O[C@]1(CO[C]1[NH])C1CC1	
InChI=1S/C6H9NO2/c7-5-6(8,3-9-5)4-1-2-4/h4,7-8H,1-3H2	InChI=1S/C6H9NO2/c7-5-6(8,3-9-5)4-1-2-4/h4,7-8H,1-3H2/t6-/m1/s1
