15
gdb 31182	2.80756	1.32437	0.90506	5.0515	72.86	-0.2188	-0.0274	0.1914	1216.8627	0.111914	-457.795292	-457.786972	-457.786028	-457.828956	29.317	
C	 0.02490606	 1.4208508507	-0.0628755863	-0.253886
O	 0.0196048371	-0.0113809372	-0.0341673492	-0.257072
C	 0.5952317887	-0.6502588671	-1.0411966363	 0.420936
C	 0.7293689473	-2.0035246965	-1.2609033768	 0.009529
C	 0.2545855969	-3.0776860729	-0.4106709608	 0.063356
O	 0.3999391537	-4.2595107405	-0.651945624	-0.297859
C	 1.4411024995	-2.1035905518	-2.5138148159	-0.259286
C	 1.6724701087	-0.8468185364	-2.93874494	-0.026197
O	 1.1507927148	 0.0677424061	-2.0297033593	-0.198626
H	 1.0484563881	 1.8060371716	-0.064031354	 0.145833
H	-0.5043192702	 1.7941237492	-0.9441376553	 0.145817
H	-0.4918638054	 1.7307482175	 0.8446666863	 0.150257
H	-0.2697268221	-2.7400445262	 0.5093848112	 0.068435
H	 1.7237926961	-3.0230774803	-3.0002508934	 0.142787
H	 2.1541907766	-0.4069799962	-3.7942337364	 0.145977
58.4851	146.1799	153.4582	165.1484	240.188	253.2845	333.0591	401.9675	576.2443	614.7435	676.5102	679.9301	736.6445	796.1141	862.087	904.389	1021.1354	1035.3099	1036.4363	1119.5502	1162.4618	1175.6627	1204.6559	1292.885	1313.0972	1429.7172	1448.1492	1486.8758	1496.5492	1505.011	1585.6323	1642.0747	1773.9508	2893.7586	3045.0451	3118.7381	3164.5022	3272.2627	3302.6455
COC1=C(C=O)C=CO1	COc1c(C=O)cco1	
InChI=1S/C6H6O3/c1-8-6-5(4-7)2-3-9-6/h2-4H,1H3	InChI=1S/C6H6O3/c1-8-6-5(4-7)2-3-9-6/h2-4H,1H3
