16
gdb 132733	2.32582	1.78144	1.01592	3.6417	75.48	-0.2255	-0.0052	0.2203	1102.8441	0.125296	-442.099228	-442.091279	-442.090334	-442.131331	30.696	
C	-0.002582924	 1.5236708197	 0.032436947	-0.521199
C	 0.0015731958	 0.0193559549	 0.0029474411	 0.21468
C	 0.0587100284	-0.673322662	-1.2194708212	 0.135981
N	 0.1588668461	-0.042014316	-2.4438330809	-0.593526
C	 0.0648282297	-2.0691879074	-1.144706752	 0.190139
F	 0.1079147668	-2.7605492005	-2.3002709409	-0.096045
C	 0.019691289	-2.7255673817	 0.0675981374	-0.099746
N	-0.0331926735	-2.0728190104	 1.2327479374	-0.296409
C	-0.0414440358	-0.7396397994	 1.1718326396	-0.063174
H	 0.879845125	 1.9392706131	-0.4692980299	 0.137395
H	-0.8860543305	 1.9425192592	-0.4689000919	 0.124189
H	-0.0090076005	 1.8917790032	 1.0610352189	 0.136085
H	-0.2301972119	 0.8855561997	-2.5050174775	 0.256493
H	-0.0501361368	-0.6229874925	-3.2413522362	 0.26166
H	 0.023778474	-3.8122607963	 0.0874340509	 0.115646
H	-0.0842698517	-0.2207681136	 2.1279523082	 0.09783
144.725	180.3422	244.4876	285.9592	297.5366	300.7191	380.4058	475.9804	498.7154	528.3451	547.3089	587.9645	611.852	684.3807	772.2482	858.9357	915.7937	946.7018	961.1075	1020.2946	1063.4991	1170.6518	1195.7189	1268.1517	1312.9825	1330.7075	1342.078	1415.0282	1461.729	1484.0568	1496.6603	1533.1476	1614.0054	1633.5064	1662.0831	3010.0768	3060.2829	3118.6556	3140.9839	3165.4938	3584.0011	3691.3116
CC1=C(N)C(F)=CN=C1	Cc1c(N)c(F)cnc1	
InChI=1S/C6H7FN2/c1-4-2-9-3-5(7)6(4)8/h2-3H,1H3,(H2,8,9)	InChI=1S/C6H7FN2/c1-4-2-9-3-5(7)6(4)8/h2-3H,1H3,(H2,8,9)
