21
gdb 63213	2.07432	1.86353	1.3711	1.6842	82.79	-0.2437	0.0228	0.2666	1064.8666	0.181455	-387.08859	-387.07975	-387.078806	-387.121538	34.859	
C	 0.3034321543	 1.5066501687	-0.2525786559	-0.413833
C	-0.0102922113	 0.0153165414	-0.0011073134	 0.145739
C	-1.5190347981	-0.1769359658	 0.2108883367	-0.414824
C	 0.5278339718	-0.8241474322	-1.1469641529	-0.080419
C	 1.611881838	-1.5259169437	-0.8237795672	-0.095762
C	 2.0141794965	-1.3172392783	 0.6146461091	-0.337859
C	 0.825980743	-0.5351817135	 1.1829625096	 0.39633
C	 0.8163117521	 0.03957351	 2.5300969206	-0.24951
O	 0.1165290779	-1.1763743897	 2.2514010826	-0.26721
H	 1.3808588316	 1.6782416728	-0.3398527286	 0.11439
H	-0.1634009983	 1.8456637411	-1.1837648338	 0.112509
H	-0.0792655966	 2.1348122142	 0.5589210865	 0.11066
H	-2.0704856629	 0.1849746911	-0.663705181	 0.104102
H	-1.7668733509	-1.2288647434	 0.367459078	 0.128262
H	-1.8710133281	 0.3819699905	 1.0836614609	 0.114646
H	 0.0637174075	-0.8012772061	-2.1278081575	 0.090525
H	 2.1699534821	-2.1644322493	-1.4993526462	 0.094654
H	 2.1511355744	-2.2492321772	 1.1742663505	 0.122123
H	 2.9558589199	-0.7565238543	 0.6937679736	 0.109839
H	 1.6947792599	-0.0604676066	 3.1677365986	 0.107758
H	 0.1845945871	 0.8987057403	 2.7548276899	 0.107881
69.1811	214.6198	230.7804	238.0857	251.1774	272.7094	328.8951	345.7632	431.8172	441.992	526.9131	552.6435	628.1451	746.1237	761.5287	819.5626	856.9154	916.7026	944.0732	952.0718	961.7766	975.2357	979.0278	1010.5368	1037.2749	1105.5279	1124.2761	1157.3075	1167.4293	1176.5521	1199.3144	1233.6499	1263.0444	1289.6631	1371.0367	1398.512	1408.8139	1428.1709	1472.7631	1478.9863	1486.0969	1500.3134	1502.6279	1532.616	1687.1318	3012.5742	3026.921	3037.0021	3064.2803	3072.007	3093.8441	3100.9557	3103.0996	3127.6252	3154.1388	3176.1337	3203.6059
CC1(C)C=CCC11CO1	CC1(C)C=CC[C@]21CO2	
InChI=1S/C8H12O/c1-7(2)4-3-5-8(7)6-9-8/h3-4H,5-6H2,1-2H3	InChI=1S/C8H12O/c1-7(2)4-3-5-8(7)6-9-8/h3-4H,5-6H2,1-2H3/t8-/m1/s1
