21
gdb 61634	3.25535	0.78298	0.68991	4.1362	80.03	-0.2414	-0.0157	0.2257	1647.2441	0.179746	-424.216759	-424.20642	-424.205476	-424.253219	37.051	
C	-0.1015339131	 1.5717137792	 0.2007033695	-0.406993
C	-0.0148470707	 0.0522879387	-0.021831647	-0.061555
C	 0.7900464933	-0.6814960165	 1.0765511546	-0.21203
C	 2.2502034367	-0.2786872725	 1.138321541	-0.022539
C	 2.7331272391	 0.8244746844	 2.0658827547	-0.323525
C	 3.0758648758	-0.6169764652	 2.3462002622	 0.083809
O	 2.4210077036	-1.2925656593	 3.3814125067	-0.4174
C	-1.4159668746	-0.5253119982	-0.054857071	 0.15779
O	-1.9021473061	-1.1303148876	-0.974878088	-0.250494
H	 0.8954073804	 2.0162859528	 0.2340618956	 0.135981
H	-0.6636268073	 2.054924147	-0.6044320632	 0.12576
H	-0.6028071572	 1.8034875149	 1.1477904691	 0.116735
H	 0.434062034	-0.1548141825	-0.9999011413	 0.090784
H	 0.3239329717	-0.5202314925	 2.0546336872	 0.109114
H	 0.7313804187	-1.7609749775	 0.8874616954	 0.115924
H	 2.7727185369	-0.3584976221	 0.1879167688	 0.089698
H	 3.5140491692	 1.4982336369	 1.7296090941	 0.111737
H	 1.9908813362	 1.2765691362	 2.7159136478	 0.114358
H	 4.1042996587	-0.935350534	 2.1758282063	 0.087707
H	 2.7692539261	-0.9653866253	 4.2171145303	 0.289613
H	-1.9974435815	-0.346026587	 0.8829519474	 0.065527
45.32	57.5651	82.7443	131.4925	217.8948	227.9782	265.4627	301.4798	320.699	357.0068	390.6622	466.7759	516.7786	604.3068	768.901	828.6083	852.6343	885.0777	891.7832	924.305	962.3898	991.1584	1007.8769	1051.0556	1094.7736	1114.8751	1138.1459	1155.2101	1177.6614	1180.5886	1240.3797	1247.7678	1285.3758	1301.0301	1349.5569	1354.9767	1400.7775	1407.3572	1426.0373	1430.8462	1484.9478	1489.5264	1499.2393	1502.1858	1835.6195	2830.962	3026.7692	3034.291	3049.1659	3076.2839	3096.9633	3100.4898	3127.6594	3127.8989	3135.7431	3216.8266	3809.3742
CC(CC1CC1O)C=O	C[C@@H](C[C@H]1C[C@H]1O)C=O	
InChI=1S/C7H12O2/c1-5(4-8)2-6-3-7(6)9/h4-7,9H,2-3H2,1H3	InChI=1S/C7H12O2/c1-5(4-8)2-6-3-7(6)9/h4-7,9H,2-3H2,1H3/t5-,6-,7+/m0/s1
