12
gdb 133325	2.39327	1.8668	1.04912	4.386	63.01	-0.2347	-0.0658	0.1689	1000.966	0.076706	-513.914654	-513.907228	-513.906284	-513.946532	27.722	
N	 0.0258103564	 1.3562469568	-0.0225304188	-0.582967
C	-0.0306158105	 0.0043401425	 0.0102111807	 0.068262
C	-1.1466344471	-0.767610224	 0.0629840394	 0.17303
F	-2.3646950551	-0.211470766	 0.0463753047	-0.074182
C	-1.0323925473	-2.1774292588	 0.1390673553	-0.047117
N	 0.0826449693	-2.8344904128	 0.1582695404	-0.089616
O	 1.242623619	-2.0575092374	 0.0902353474	-0.256005
C	 1.2630752073	-0.6938035729	 0.0106361135	 0.448022
O	 2.3193103565	-0.113414375	-0.0618540245	-0.35545
H	 0.9305490906	 1.7525413577	-0.2267823251	 0.286197
H	-0.7998903575	 1.8861692282	-0.2410791553	 0.275693
H	-1.9264479318	-2.7911582983	 0.1888839524	 0.154134
121.9003	190.4652	261.0208	284.9781	318.0118	352.1648	472.8698	505.2503	535.8401	537.3743	568.9059	633.1201	685.931	770.1165	871.6611	919.9317	929.1921	989.2799	1155.3486	1234.2145	1282.911	1383.5239	1409.0811	1588.8854	1626.163	1724.4197	1806.3196	3191.8914	3591.4331	3727.7449
NC1=C(F)C=NOC1=O	Nc1c(F)cnoc1=O	
InChI=1S/C4H3FN2O2/c5-2-1-7-9-4(8)3(2)6/h1H,6H2	InChI=1S/C4H3FN2O2/c5-2-1-7-9-4(8)3(2)6/h1H,6H2
