18
gdb 11636	3.11016	1.88721	1.46401	0.6527	79.61	-0.2543	0.0459	0.3002	927.2864	0.153663	-310.590295	-310.582744	-310.5818	-310.621749	29.877	
C	-0.150017949	 1.5801731196	-0.0027811922	-0.445406
C	 0.0263150775	 0.0713930306	 0.0081735595	 0.030682
C	 1.1949727295	-0.6473926385	-0.7408882324	-0.08746
C	 2.1644949128	-0.1606725737	 0.3738036365	-0.262964
C	 0.8784173429	-0.6494638319	 1.1230946931	 0.261636
C	 0.9088816693	-1.8825231745	 0.1591696608	-0.255075
C	 0.6311192267	-0.6462475362	 2.5360003132	 0.056247
C	 0.412671433	-0.6321928549	 3.7195120031	-0.369033
H	 0.785404822	 2.1307683999	 0.121604223	 0.119591
H	-0.6003026974	 1.9016157037	-0.9484610576	 0.118089
H	-0.8249578794	 1.8872470899	 0.8034017104	 0.127352
H	-0.9441216145	-0.4146594763	-0.1459186003	 0.068483
H	 1.3807865556	-0.6515025135	-1.8148778093	 0.073632
H	 3.0608673075	-0.7644788266	 0.5360503886	 0.097039
H	 2.3972945459	 0.9029105319	 0.4255816933	 0.099767
H	-0.042418985	-2.3993834018	 0.0082254468	 0.095659
H	 1.7333572001	-2.5836256957	 0.3088294014	 0.095768
H	 0.2219743423	-0.6231256021	 4.7639253221	 0.175995
120.9433	157.0519	186.0161	285.8368	335.4129	485.2473	499.5924	550.0341	555.4229	597.2785	629.9973	630.7541	765.5545	799.7644	811.004	907.7755	945.7856	949.3617	1000.9389	1005.6721	1052.3467	1081.7406	1118.9664	1130.2063	1147.5966	1160.0663	1175.4494	1217.0659	1239.571	1242.7214	1283.6908	1403.8612	1421.0018	1488.9611	1494.3409	1510.4091	1541.9857	2229.7413	3032.8322	3038.2915	3055.6526	3069.8471	3093.7002	3115.3704	3117.9509	3125.0456	3140.592	3501.8482
CC1C2CC1(C2)C#C	C[C@H]1[C@H]2C[C@@]1(C2)C#C	
InChI=1S/C8H10/c1-3-8-4-7(5-8)6(8)2/h1,6-7H,4-5H2,2H3	InChI=1S/C8H10/c1-3-8-4-7(5-8)6(8)2/h1,6-7H,4-5H2,2H3/t6-,7-,8+/m0/s1
