23
gdb 57908	3.2012	0.90685	0.89506	2.4968	86.67	-0.2347	-0.0098	0.2249	1497.0219	0.204478	-388.309615	-388.299326	-388.298382	-388.346072	37.262	
C	-0.3089990023	 1.394622335	 0.0338630066	-0.390352
C	 0.0236051467	-0.1113615799	-0.0380436038	-0.063525
C	 0.6202755672	-0.4890194823	-1.3959924902	-0.387804
C	 0.9779705792	-0.4485500003	 1.1108972347	 0.368522
O	 2.1801452452	-0.4676263309	 0.9554921217	-0.32699
C	 0.3443659856	-0.7822017134	 2.4452520998	-0.06289
C	 0.0594578153	-2.3110268471	 2.6796660163	-0.223775
C	 0.5824808955	-2.1417968668	 4.1306238316	-0.208872
C	 1.2448107644	-0.8050081032	 3.7051477909	-0.233796
H	 0.5949505297	 1.9919313635	-0.1229080931	 0.133263
H	-1.0321145604	 1.660526786	-0.7431093452	 0.120496
H	-0.7375057368	 1.67656954	 1.0008737417	 0.117961
H	-0.9078709508	-0.6692417837	 0.1281277045	 0.079701
H	 1.5809946399	 0.0113561374	-1.5403595457	 0.136801
H	 0.7963482463	-1.5664651677	-1.4671963142	 0.115376
H	-0.0533310044	-0.1982056776	-2.2080589882	 0.105685
H	-0.5732368144	-0.2042159791	 2.5907943719	 0.074975
H	-0.9676492477	-2.6545773688	 2.5390939745	 0.101454
H	 0.7272443491	-2.9318012462	 2.0758429109	 0.116176
H	-0.2364215677	-1.9873792114	 4.8389572256	 0.101892
H	 1.2336541088	-2.9273442815	 4.520540599	 0.101674
H	 2.2886664282	-0.9301537426	 3.4086438999	 0.127498
H	 1.1663057436	 0.0426353808	 4.3893635606	 0.09653
30.3241	52.2035	108.7448	164.2028	191.6829	206.9926	235.3233	282.2173	320.26	328.9788	423.2951	579.6306	662.2116	728.7288	757.7388	790.5926	843.471	885.8691	923.3843	931.696	938.0609	955.5658	971.6257	999.5874	1017.043	1069.3309	1110.8931	1137.8894	1140.8936	1199.0813	1209.0841	1232.8032	1251.7724	1260.2494	1279.4884	1279.9689	1315.2579	1352.6918	1385.6966	1396.8091	1417.0505	1477.0703	1485.5697	1486.5665	1487.6426	1501.256	1507.261	1510.5753	1794.3552	3014.9387	3033.7886	3042.1225	3056.4276	3059.3988	3059.8733	3070.0879	3102.0392	3104.5527	3108.1967	3109.8343	3118.0164	3126.6621	3130.7442
CC(C)C(=O)C1CCC1	CC(C)C(=O)C1CCC1	
InChI=1S/C8H14O/c1-6(2)8(9)7-4-3-5-7/h6-7H,3-5H2,1-2H3	InChI=1S/C8H14O/c1-6(2)8(9)7-4-3-5-7/h6-7H,3-5H2,1-2H3
