16
gdb 36256	5.46901	1.01169	0.97457	1.1444	73.99	-0.2329	0.032	0.2649	1201.5085	0.12223	-400.576986	-400.569516	-400.568572	-400.60932	29.074	
C	 0.0214777341	-1.2767214493	 0.0322446091	-0.438433
C	-0.0091208981	-0.0799658839	-0.0681788994	 0.318989
C	-0.0467322002	 1.3755419111	-0.1639779691	-0.31849
N	 1.30262863	 1.9533660793	-0.0697271287	-0.125602
C	 1.8892827913	 1.9740155327	 1.3037712089	-0.067296
C	 2.6988960976	 3.26277722	 0.984486929	 0.08484
O	 2.2830409185	 3.9773827734	 2.1805462045	-0.325118
C	 1.0901597829	 3.2386510119	 1.7998416696	 0.074268
C	 1.3349884686	 3.4116845072	 0.2524570977	-0.070589
H	 0.0468380297	-2.3355151103	 0.1092808342	 0.199709
H	-0.4661613445	 1.6698843859	-1.1343976658	 0.136501
H	-0.7362557441	 1.7655158351	 0.6070369728	 0.113837
H	 2.1906951015	 1.0796039994	 1.8475150409	 0.10523
H	 3.7133139976	 3.3814144937	 0.6096633757	 0.11054
H	 0.2025099146	 3.3512107726	 2.4213757073	 0.105675
H	 0.9938525204	 4.1944892214	-0.4259719466	 0.095937
60.8716	124.0312	225.5948	292.0944	343.2533	447.3966	541.5676	593.9173	616.0158	661.3552	744.788	760.4415	777.5091	806.362	818.3751	883.4624	909.4871	948.0241	970.7572	997.5333	1040.3976	1052.0039	1090.6288	1102.885	1152.8315	1158.8665	1164.1907	1181.8257	1188.0524	1263.643	1285.0842	1340.1455	1377.024	1481.6378	2243.0013	2935.2386	3038.5412	3113.181	3125.1489	3135.609	3153.7329	3506.1406
C#CCN1C2C3OC2C13	C#CCN1[C@H]2[C@@H]3O[C@H]2[C@H]13	
InChI=1S/C7H7NO/c1-2-3-8-4-6-5(8)7(4)9-6/h1,4-7H,3H2	InChI=1S/C7H7NO/c1-2-3-8-4-6-5(8)7(4)9-6/h1,4-7H,3H2/t4-,5+,6-,7+
