17
gdb 54711	4.74762	1.15331	1.0522	3.4705	72.76	-0.2372	-0.0224	0.2148	1147.778	0.134295	-421.745714	-421.737953	-421.737009	-421.779107	29.211	
C	-0.0196428971	 1.5828232478	 0.1889124314	-0.483648
C	 0.0678615064	 0.0908676327	-0.0628266629	 0.384825
O	 1.1271406637	-0.4686752301	-0.2509339199	-0.314383
C	-1.2373685037	-0.6805548689	-0.0700257182	-0.167576
C	-1.4316091368	-1.7251498349	-1.2047522532	-0.083668
C	-0.5481232968	-2.7938723162	-0.4875894829	 0.098561
O	-1.5592307588	-3.8466865082	-0.5697948871	-0.329841
C	-2.3129857386	-2.635370188	-0.2971286193	 0.075555
C	-1.2562653482	-2.0406749758	 0.6820879776	-0.083637
H	 0.9754783804	 2.0281896018	 0.1692663063	 0.142827
H	-0.6547134163	 2.0568248327	-0.5689035797	 0.141319
H	-0.4940150356	 1.7744626482	 1.1587366235	 0.14139
H	-2.0999355369	-0.0339534525	 0.1180333887	 0.072057
H	-1.5318591398	-1.5622813388	-2.2773880905	 0.091838
H	 0.4961156175	-3.0518425825	-0.6276636318	 0.124144
H	-3.3973524471	-2.6908366314	-0.2056925518	 0.098402
H	-1.1575894824	-2.2357662459	 1.7494711098	 0.091835
26.1707	149.3615	157.9418	193.112	327.1933	373.5713	521.7029	598.4709	607.9258	756.8619	782.3345	796.6428	838.0487	845.654	882.5365	889.5976	924.0895	954.4639	968.897	995.7959	1026.3095	1046.928	1103.4711	1134.0716	1140.3383	1155.6729	1168.5926	1169.9208	1199.7939	1225.8693	1264.5498	1321.2419	1373.3373	1392.7329	1461.0044	1473.3986	1798.2689	3031.0587	3061.9409	3089.6478	3118.3815	3125.893	3134.5938	3153.5184	3187.9162
CC(=O)C1C2C3OC2C13	CC(=O)[C@H]1[C@H]2[C@@H]3O[C@H]2[C@H]13	
InChI=1S/C7H8O2/c1-2(8)3-4-6-5(3)7(4)9-6/h3-7H,1H3	InChI=1S/C7H8O2/c1-2(8)3-4-6-5(3)7(4)9-6/h3-7H,1H3/t3-,4-,5+,6-,7+
