20
gdb 92027	2.26619	2.00069	1.42918	1.1844	77.43	-0.2145	0.077	0.2915	995.3639	0.172304	-403.090667	-403.082957	-403.082013	-403.122434	31.469	
C	-0.2690826563	 1.6003446808	 0.0111249475	-0.39916
C	 0.0394568323	 0.0996269742	 0.0250839753	 0.104657
O	 0.5336467767	-0.3356188508	-1.2527232605	-0.274596
C	 1.903053322	-0.4775687758	-1.4615888388	 0.138143
C	 2.9019908817	 0.6020040415	-1.1301206434	-0.359519
C	 2.843074134	-0.6803191815	-0.3057415802	-0.028347
N	 2.2845329102	-0.7803342574	 1.0187236747	-0.088604
C	 1.9880369426	 0.397484825	 1.8179455594	-0.251675
C	 0.8796560113	-0.3948629868	 1.2056051896	-0.045408
H	 0.6284828362	 2.2204076229	-0.0460989627	 0.118095
H	-0.8964726639	 1.8340308009	-0.8536707098	 0.126151
H	-0.8123330153	 1.8778972707	 0.9205829123	 0.116941
H	-0.9217600456	-0.4191429268	 0.1029051167	 0.094008
H	 2.0551728826	-1.0601491034	-2.3638974521	 0.102723
H	 3.756693779	 0.7315398144	-1.7855796126	 0.114532
H	 2.5381862274	 1.5231356761	-0.6943226898	 0.115092
H	 3.6659500055	-1.3749173492	-0.4454149189	 0.098826
H	 2.1996900259	 0.3012429387	 2.8799527674	 0.114237
H	 2.2084058821	 1.3790790022	 1.4070810536	 0.108873
H	 0.3423942917	-1.0835418156	 1.8538984526	 0.095033
105.4908	208.8156	232.7623	299.8469	321.9758	392.3656	434.9731	462.0496	532.8503	582.6816	672.9946	727.3727	748.6748	793.6483	823.1633	869.3074	912.0958	927.0344	999.5272	1003.7171	1016.2913	1048.4197	1062.2243	1072.1414	1108.0863	1121.6526	1132.1934	1140.8371	1165.1868	1167.8373	1205.4569	1248.6545	1345.3103	1368.3306	1374.3172	1382.4898	1400.9907	1409.4342	1419.7452	1470.8762	1487.5208	1493.5267	1517.0901	3041.2494	3043.5104	3103.6932	3113.2906	3119.2977	3127.0329	3139.8688	3144.9453	3167.2495	3184.743	3238.0015
CC1OC2CC2N2CC12	C[C@H]1O[C@H]2C[C@H]2N2C[C@@H]12	
InChI=1S/C7H11NO/c1-4-6-3-8(6)5-2-7(5)9-4/h4-7H,2-3H2,1H3	InChI=1S/C7H11NO/c1-4-6-3-8(6)5-2-7(5)9-4/h4-7H,2-3H2,1H3/t4-,5-,6+,7+,8?/m1/s1
