14
gdb 128915	7.14244	0.73763	0.69271	4.1067	67.25	-0.3089	-0.0415	0.2674	1501.3133	0.10209	-432.885512	-432.877704	-432.876759	-432.919343	26.944	
N	 0.0284429238	-1.1695386663	 0.1156096818	-0.297956
C	 0.0117598542	-0.0148786224	 0.1509395003	 0.259597
C	 0.0106498938	 1.4448998163	 0.189496082	-0.339359
C	 1.3679656421	 2.0375664181	-0.2552818882	-0.309247
C	 1.3697408485	 3.5258254501	-0.1374110679	 0.370399
N	 1.6315034799	 4.3131910304	-1.1471095283	-0.168451
O	 1.5338402504	 5.5970012944	-0.5946390871	-0.14716
C	 1.2164341902	 5.4240089622	 0.6872899779	 0.111134
N	 1.0963260741	 4.186351234	 1.0460227354	-0.306505
H	-0.7925762608	 1.8142912496	-0.457178509	 0.163612
H	-0.2182543311	 1.7767501432	 1.2071919835	 0.179275
H	 2.1604441028	 1.6287822346	 0.3800343316	 0.1542
H	 1.5908343379	 1.7590879429	-1.2871162947	 0.15608
H	 1.0938821341	 6.3123768228	 1.2895413426	 0.174382
55.9392	67.9524	103.8571	196.9017	318.8001	377.9989	404.4469	511.9938	634.3998	711.4381	766.2716	794.4019	909.911	910.2363	957.656	984.8674	993.2221	1026.3618	1045.3983	1149.9049	1191.8101	1284.5284	1300.9687	1308.1472	1362.0711	1385.0786	1469.125	1480.607	1524.8373	1604.8753	2366.0017	3052.8605	3065.5372	3096.1667	3129.3183	3268.2281
N#CCCC1=NOC=N1	N#CCCc1nocn1	
InChI=1S/C5H5N3O/c6-3-1-2-5-7-4-9-8-5/h4H,1-2H2	InChI=1S/C5H5N3O/c6-3-1-2-5-7-4-9-8-5/h4H,1-2H2
