14
gdb 19809	4.17331	2.0755	1.83886	3.7769	60.32	-0.2375	-0.0237	0.2138	735.91	0.106791	-382.48905	-382.482963	-382.482018	-382.519298	23.891	
O	 0.0006069378	 0.0101661615	 0.0686846135	-0.294171
C	-0.0112151188	 1.2037578277	 0.072350967	 0.429954
C	-1.1353916288	 2.2656362076	 0.0992252186	-0.361668
C	-0.0462378576	 3.3724682641	-0.0004767412	-0.072589
C	 0.5526212729	 3.8746745959	 1.3405387741	 0.022223
O	 0.5356265233	 2.7783007271	 2.2622812943	-0.235707
C	 1.6066375934	 2.8484426887	 1.3123989605	 0.026088
C	 1.091047521	 2.2869159319	-0.0405379247	-0.202589
H	-1.7793238576	 2.1972843734	-0.7831535027	 0.13013
H	-1.7534694795	 2.2552193685	 0.9991853973	 0.142416
H	-0.1334643314	 4.11403582	-0.7915522534	 0.08812
H	 0.5355996755	 4.87299299	 1.7626004893	 0.111138
H	 2.6163054251	 2.8312728876	 1.7049312737	 0.116754
H	 1.8223471547	 2.214147466	-0.8451383763	 0.099901
95.2722	249.8893	331.309	428.617	491.827	592.7638	642.8939	742.2653	777.8435	796.0612	829.9927	874.3586	887.8177	912.2633	974.7194	991.3999	1011.9074	1039.0115	1058.8577	1093.6655	1126.5394	1188.1627	1195.1049	1218.8425	1237.3516	1260.9084	1288.6191	1380.1016	1423.3699	1897.6176	3063.3206	3124.9076	3128.2271	3143.2976	3180.0481	3196.542
O=C1CC2C3OC3C12	O=C1C[C@H]2[C@H]3O[C@H]3[C@@H]12	
InChI=1S/C6H6O2/c7-3-1-2-4(3)6-5(2)8-6/h2,4-6H,1H2	InChI=1S/C6H6O2/c7-3-1-2-4(3)6-5(2)8-6/h2,4-6H,1H2/t2-,4-,5-,6+/m1/s1
