18
gdb 115229	4.47971	0.99195	0.84901	4.4833	70.91	-0.2479	0.0425	0.2904	1342.1971	0.147738	-476.216824	-476.20791	-476.206965	-476.251496	31.503	
C	-0.0883131211	 1.4485473314	 0.0098300652	-0.244425
O	-0.0411880494	 0.0408277692	 0.144453775	-0.244418
C	-1.289283103	-0.6026059696	 0.034337139	 0.078031
C	-1.697602266	-0.8507042942	-1.4158157426	-0.099924
O	-2.8943966545	-1.6243070367	-1.4667529974	-0.234275
C	-3.0135063946	-2.7267222771	-0.6932488561	 0.470852
N	-3.854079637	-3.6084859812	-1.0198883984	-0.542051
O	-2.2896288164	-2.7912602887	 0.4598510459	-0.271697
C	-1.1405049304	-1.9699235865	 0.6829275131	-0.096992
H	 0.9266731873	 1.8159244094	 0.1750279487	 0.138417
H	-0.4164275574	 1.764493456	-0.9900606016	 0.116274
H	-0.7579471336	 1.9007480703	 0.7558995354	 0.116708
H	-2.0800333413	-0.029823665	 0.5428849595	 0.089271
H	-1.9261221398	 0.0711486906	-1.9540095789	 0.12449
H	-0.8810439594	-1.3663742874	-1.9398371167	 0.12011
H	-3.8706966241	-4.3392396074	-0.3115399295	 0.226718
H	-0.2471335542	-2.4603436859	 0.2744695657	 0.12408
H	-1.0274543452	-1.8924885273	 1.7660776937	 0.128831
59.2984	70.8016	105.3389	167.0376	175.3502	280.5934	358.4882	409.8113	436.4869	505.4048	560.8555	688.4412	735.8936	814.8003	832.2366	917.667	944.0783	990.256	1020.7138	1123.9058	1134.9899	1140.1205	1161.6593	1181.5992	1189.287	1223.8593	1237.6245	1279.6622	1290.4435	1340.241	1383.8835	1421.1398	1433.264	1482.4507	1492.7201	1507.92	1511.8173	1522.9247	1762.0537	2987.6989	2994.4906	3018.3327	3030.4958	3043.8274	3111.9984	3114.8429	3125.4395	3527.1321
COC1COC(=N)OC1	CO[C@H]1CO[C]([NH])OC1	
InChI=1S/C5H9NO3/c1-7-4-2-8-5(6)9-3-4/h4,6H,2-3H2,1H3	InChI=1S/C5H9NO3/c1-7-4-2-8-5(6)9-3-4/h4,6H,2-3H2,1H3/t4-
