20
gdb 87860	3.30137	1.26622	1.16502	2.2355	77.87	-0.2312	0.0802	0.3113	1146.4006	0.171536	-403.116408	-403.10832	-403.107376	-403.148945	31.812	
C	-0.288176408	 1.5178441023	 0.4073101466	-0.422616
C	-0.1904535126	 0.0151234126	 0.3815771413	-0.005853
O	 0.9557527545	-0.5528551772	-0.271291213	-0.308443
C	 0.8054205066	-0.7737008176	 1.1290753141	 0.409265
C	 1.8429907818	-0.1986083753	 2.0939044798	-0.322553
C	 1.7027131159	-1.0771004563	 3.3241348342	-0.013101
C	 0.3326827611	-1.2990258283	 3.8541387738	-0.245784
N	 0.9590072458	-2.3184170822	 2.9992486783	-0.099492
C	 0.5575795525	-2.2171555147	 1.5890709429	-0.24499
H	 0.6781934213	 1.9765571067	 0.6281605521	 0.129751
H	-0.6253620769	 1.8916372424	-0.5650866383	 0.132004
H	-1.0140598028	 1.8443991524	 1.1604353627	 0.121377
H	-1.1244836811	-0.4954108732	 0.1333676316	 0.086312
H	 2.84153465	-0.3072877611	 1.6557189277	 0.121582
H	 1.6909582679	 0.8624215782	 2.3090459709	 0.111598
H	 2.5605562771	-1.1908700894	 3.980182193	 0.093317
H	 0.1916547659	-1.6007619104	 4.8878135668	 0.116918
H	-0.4793521098	-0.7008443382	 3.4442461015	 0.110267
H	-0.4810497458	-2.5358751173	 1.4572688949	 0.109834
H	 1.1923704566	-2.8896223235	 1.0004064792	 0.12061
82.9589	160.5849	196.8875	234.6932	313.2039	369.4599	391.4348	451.2135	473.4494	540.706	656.9562	757.942	767.4492	796.9729	831.8688	895.4662	907.8879	941.3937	982.2818	1004.0528	1025.488	1036.102	1084.6743	1110.2878	1118.602	1129.0644	1160.2493	1170.6214	1196.6689	1220.7191	1235.3203	1272.9392	1299.2017	1321.3926	1357.825	1394.5322	1409.9651	1466.2036	1482.8518	1489.6057	1493.5607	1508.0952	1510.2852	3036.7062	3038.8394	3047.7073	3074.0942	3086.814	3094.1691	3098.6108	3098.8954	3130.4105	3151.3515	3186.8891
CC1OC11CC2CN2C1	C[C@H]1O[C@]21C[C@H]1CN1C2	
InChI=1S/C7H11NO/c1-5-7(9-5)2-6-3-8(6)4-7/h5-6H,2-4H2,1H3	InChI=1S/C7H11NO/c1-5-7(9-5)2-6-3-8(6)4-7/h5-6H,2-4H2,1H3/t5-,6+,7-,8?/m1/s1
