19
gdb 74114	2.31128	1.74497	1.10496	4.1086	82.9	-0.2269	-0.0366	0.1903	1122.8361	0.160232	-385.92747	-385.919338	-385.918394	-385.960534	30.914	
C	 0.1878735119	 1.4244119101	 0.0084825062	-0.49145
C	 0.0263191386	-0.0592670941	-0.0516265302	 0.325303
C	-0.009893224	-0.8300286657	-1.15340682	-0.292768
C	-0.1487830111	-2.2625622186	-0.8127137218	 0.388946
O	-0.1925255391	-3.1991472075	-1.5797441094	-0.348342
C	-0.1866499387	-2.3469364319	 0.7144492536	-0.140499
C	 1.1904293804	-2.6667047647	 1.3872870462	-0.221931
C	 1.2688555749	-1.2111671018	 1.9249341218	-0.229214
C	-0.0883541698	-0.8821001858	 1.2081857146	-0.115897
H	 1.0654259009	 1.6945138247	 0.6092170409	 0.13921
H	 0.2984521625	 1.8676321124	-0.9838205317	 0.134191
H	-0.6766005551	 1.8866947816	 0.5014311123	 0.137925
H	 0.0677654054	-0.4849822444	-2.1776127956	 0.105262
H	-1.0220219019	-2.9578347173	 1.0581423883	 0.092438
H	 1.1315987553	-3.4296552649	 2.1654024643	 0.112189
H	 1.9762498957	-2.9554264447	 0.6859549049	 0.116304
H	 1.2136103926	-1.1373106461	 3.0131092154	 0.107304
H	 2.1254468923	-0.624270841	 1.5841007118	 0.102897
H	-0.8722428308	-0.5078238403	 1.8730419283	 0.078132
59.6075	142.054	174.128	208.9872	236.9693	302.6103	447.4232	554.6045	566.2559	591.6179	720.9987	737.4471	776.7284	814.3289	816.4832	896.5175	918.8922	960.6454	970.65	1006.8454	1013.2188	1024.8154	1063.4416	1105.7992	1155.5798	1186.9166	1201.3141	1220.8272	1228.2354	1256.5695	1265.4505	1281.2563	1297.5922	1348.4053	1410.1315	1477.3041	1477.8214	1479.6719	1494.3741	1668.2764	1803.2242	3023.1021	3059.6907	3064.0275	3071.4937	3073.9043	3105.8705	3110.6587	3122.5188	3130.679	3207.8778
CC1=CC(=O)C2CCC12	CC1=CC(=O)[C@H]2CC[C@@H]12	
InChI=1S/C8H10O/c1-5-4-8(9)7-3-2-6(5)7/h4,6-7H,2-3H2,1H3	InChI=1S/C8H10O/c1-5-4-8(9)7-3-2-6(5)7/h4,6-7H,2-3H2,1H3/t6-,7-/m0/s1
