17
gdb 20865	6.63293	1.06799	0.97978	3.0679	71.05	-0.2506	-0.0062	0.2444	1209.6609	0.142761	-363.870733	-363.862941	-363.861997	-363.903779	27.922	
C	-0.1329645876	 1.5720926048	 0.063687011	-0.383796
C	-0.063800599	 0.0447668974	 0.0141534275	-0.162306
C	 0.8265175442	-0.5389933092	 1.1292648629	-0.302774
C	 0.8920268204	-2.0282141486	 1.1118249848	 0.437979
C	 1.8870685222	-2.9258123544	 0.8674280936	-0.34188
C	 1.2441150995	-4.1842343546	 1.0029676894	 0.035918
N	-0.0253211462	-4.0646563992	 1.3014131882	-0.141865
O	-0.252141003	-2.6904329149	 1.3719640326	-0.211057
H	 0.8599876226	 2.0203730843	-0.0537477706	 0.115481
H	-0.7709994608	 1.9632174847	-0.7342785985	 0.118877
H	-0.5424251833	 1.9198294341	 1.0185291164	 0.118935
H	-1.0685412476	-0.3812130133	 0.1064026744	 0.122689
H	 0.32314464	-0.2827475173	-0.9580372129	 0.105747
H	 1.8458503304	-0.149455768	 1.0385753147	 0.115827
H	 0.4456630923	-0.2085253511	 2.1041636165	 0.126234
H	 2.9175418023	-2.7208708223	 0.6303937847	 0.115892
H	 1.6640284836	-5.1745200325	 0.8941317653	 0.130099
53.7753	91.6026	118.9871	245.2147	304.2834	322.7154	373.277	648.337	664.5742	742.4119	756.9792	808.1263	869.8435	898.665	917.3347	926.8541	945.93	1013.818	1045.2411	1054.4352	1094.9333	1112.0454	1212.933	1237.4849	1276.0573	1307.5174	1324.9882	1377.8888	1390.9765	1414.8173	1475.5196	1493.5914	1499.785	1509.8579	1515.0087	1634.6205	3026.7518	3030.917	3041.4947	3067.0643	3085.0938	3103.6063	3107.7253	3241.7171	3279.8261
CCCC1=CC=NO1	CCCc1ccno1	
InChI=1S/C6H9NO/c1-2-3-6-4-5-7-8-6/h4-5H,2-3H2,1H3	InChI=1S/C6H9NO/c1-2-3-6-4-5-7-8-6/h4-5H,2-3H2,1H3
