23
gdb 70016	3.16476	1.39045	1.19186	0.2728	88.49	-0.2325	0.0824	0.315	1161.1466	0.208351	-351.146437	-351.138436	-351.137492	-351.178439	33.114	
C	 0.0013181304	 1.5679047024	 0.0508843298	-0.499884
C	 0.0260423155	 0.0658427683	 0.0341866744	 0.359031
C	-0.8684021053	-0.7746519247	 0.9028164394	-0.340171
C	 0.62273166	-0.9302555394	 1.0402552302	-0.119783
C	 1.2081232475	-1.7783589071	-0.1058047782	 0.011522
C	 0.6492149197	-3.1714853487	-0.4564431371	-0.239494
C	 0.2247146716	-3.0388530925	-1.9388329077	-0.186007
C	-0.3105917141	-1.5925982014	-2.0788375661	-0.243708
C	 0.5936591783	-0.7730553276	-1.1370107663	-0.054311
H	 0.9659325244	 1.9878447934	-0.2582238346	 0.112268
H	-0.7626865702	 1.9621079615	-0.6313148718	 0.116614
H	-0.2240923087	 1.9511212456	 1.0518605934	 0.11399
H	-1.343814788	-0.2331992611	 1.7156007725	 0.104894
H	-1.4885115667	-1.5699904864	 0.4977788443	 0.101663
H	 1.1239464449	-0.7266221144	 1.9801667427	 0.07637
H	 2.30047249	-1.7659330581	-0.1013408814	 0.06449
H	 1.374751626	-3.9757224775	-0.3033869786	 0.089669
H	-0.2221780286	-3.4064838494	 0.1644582646	 0.098492
H	 1.1048787279	-3.1638773158	-2.5820841194	 0.095211
H	-0.5036222554	-3.7965256023	-2.2453807999	 0.090235
H	-0.2847311727	-1.2404799022	-3.1141846295	 0.089941
H	-1.3556660114	-1.5458401108	-1.7527903642	 0.097782
H	 1.3549919848	-0.2129627819	-1.6866628464	 0.061189
144.4736	164.5362	203.4144	237.1975	297.8394	347.9453	453.5759	499.428	535.3079	586.6979	668.8914	710.2086	765.6214	828.5567	855.7077	859.7084	903.6481	908.8304	926.1016	966.61	979.4052	980.4564	1014.5556	1037.8526	1042.7804	1074.9935	1089.6383	1102.2566	1111.507	1161.4609	1176.9862	1185.9095	1236.1094	1252.4675	1264.9839	1284.0253	1303.9597	1321.6575	1334.7968	1337.7534	1352.5316	1398.6091	1421.8744	1485.0061	1486.801	1493.9226	1497.9154	1501.482	1513.1623	3014.2743	3026.5268	3041.863	3044.0054	3058.0256	3069.6226	3070.6209	3079.8108	3087.6024	3090.372	3096.3506	3111.4235	3165.8248	3190.1573
CC12CC1C1CCCC21	C[C@]12C[C@H]1[C@H]1CCC[C@@H]21	
InChI=1S/C9H14/c1-9-5-8(9)6-3-2-4-7(6)9/h6-8H,2-5H2,1H3	InChI=1S/C9H14/c1-9-5-8(9)6-3-2-4-7(6)9/h6-8H,2-5H2,1H3/t6-,7+,8-,9+/m0/s1
