22
gdb 87248	3.82997	0.79458	0.76061	3.6924	84.66	-0.2466	0.0337	0.2803	1594.9847	0.19288	-404.371686	-404.361251	-404.360307	-404.407892	37.783	
C	-0.0512448114	 1.626050688	 0.2249350972	-0.413665
C	 0.1136924496	 0.1433137593	-0.0293754802	-0.030031
C	 1.4722393545	-0.4733621152	-0.2742052867	-0.341381
C	 0.6975364533	-0.8182263991	 0.9846954698	 0.339597
C	 1.2040182753	-0.3167999682	 2.3239741135	-0.460909
C	 0.0559876633	-2.1968108295	 1.0376584194	-0.228042
N	 0.99687719	-3.2435873345	 1.4124449181	-0.267192
C	 0.8218087827	-4.0671397945	 2.4799474502	 0.153499
O	-0.1326739558	-4.0581784579	 3.2285159349	-0.323913
H	 0.792775753	 2.0465933248	 0.7780391658	 0.117308
H	-0.1236003382	 2.1711458946	-0.7225974907	 0.119676
H	-0.9617051963	 1.8346853614	 0.7976689066	 0.120675
H	-0.690033942	-0.2776647473	-0.6303302922	 0.081822
H	 1.569128233	-1.2191262423	-1.0579768564	 0.100797
H	 2.3416218597	 0.168347916	-0.1677913365	 0.108709
H	 1.7319503599	 0.6351645001	 2.2337575975	 0.114204
H	 0.3789623787	-0.1800771042	 3.0323504816	 0.124999
H	 1.899297174	-1.0375058123	 2.7667301187	 0.119958
H	-0.7421827599	-2.2315020916	 1.7842481118	 0.146509
H	-0.3899817621	-2.4342873765	 0.0630964232	 0.101011
H	 1.845528423	-3.3359105699	 0.8763021842	 0.245841
H	 1.6707260455	-4.7712820412	 2.5943934602	 0.070526
33.0135	64.5613	144.7992	173.4382	175.3265	222.5481	232.7044	276.2972	314.5687	372.6581	386.1862	436.6201	534.2136	548.1964	697.3416	773.5394	794.2628	880.5702	903.0238	934.1111	959.7277	992.0827	1007.8076	1033.113	1052.4063	1059.2864	1107.6334	1134.4128	1145.0084	1193.5105	1207.9039	1255.4049	1277.4606	1350.5697	1387.5259	1411.2662	1422.3494	1427.9912	1431.6646	1481.68	1488.3823	1493.6816	1498.7611	1500.5761	1514.8436	1529.0695	1805.679	2927.8425	3016.7229	3031.434	3035.8501	3089.3953	3093.3605	3103.8813	3105.573	3115.6413	3120.491	3127.8995	3199.5264	3629.0914
CC1CC1(C)CNC=O	C[C@H]1C[C@]1(C)CNC=O	
InChI=1S/C7H13NO/c1-6-3-7(6,2)4-8-5-9/h5-6H,3-4H2,1-2H3,(H,8,9)	InChI=1S/C7H13NO/c1-6-3-7(6,2)4-8-5-9/h5-6H,3-4H2,1-2H3,(H,8,9)/t6-,7+/m0/s1
