25
gdb 59420	3.30752	0.97124	0.88063	0.1452	93.63	-0.2504	0.0848	0.3352	1487.3864	0.228538	-352.338048	-352.328109	-352.327164	-352.372928	38.277	
C	 1.066891145	-0.4785413291	-0.9503395766	-0.402252
C	 0.0067467865	 0.1853669822	-0.0607362919	 0.019958
C	-0.1598301707	 1.6622902995	-0.4553936761	-0.380238
C	-1.3550875243	-0.5073897091	-0.0559806017	-0.065766
C	-1.8691394692	-1.3864619899	-1.1796780478	-0.358125
C	-1.5752535705	-1.9742878465	 0.1739635389	 0.366269
C	-0.5779895376	-3.1084915073	 0.4717932075	-0.2842
C	-1.7513976185	-3.9138402184	 1.1030934934	-0.217268
C	-2.6214691446	-2.6233521901	 1.0941656401	-0.28896
H	 2.0287791172	 0.030976579	-0.8318088618	 0.108649
H	 1.2193214204	-1.5324429487	-0.7045241095	 0.120423
H	 0.7919812902	-0.4142824151	-2.0088430197	 0.115207
H	 0.3821826264	 0.1613485866	 0.9736007523	 0.071683
H	-0.5497482197	 1.7491585642	-1.4761398724	 0.114859
H	-0.8579830286	 2.1782573142	 0.2121587735	 0.107507
H	 0.7973230475	 2.1930660837	-0.4152674934	 0.104891
H	-2.1226536837	 0.1135630364	 0.4055667086	 0.072724
H	-2.9054037627	-1.2804042863	-1.4869585508	 0.102014
H	-1.1912941367	-1.6335063517	-1.9907943166	 0.107283
H	-0.0724997443	-3.566140809	-0.3831096898	 0.097433
H	 0.1798172917	-2.8265890194	 1.2105778835	 0.098857
H	-2.1382706182	-4.6786873739	 0.4252866561	 0.103131
H	-1.5638587526	-4.3752869569	 2.0750751141	 0.095426
H	-2.6740109309	-2.1446395748	 2.0780807727	 0.095766
H	-3.6379199319	-2.7143894296	 0.7000928276	 0.094731
50.1564	97.6232	142.004	172.8316	236.9473	259.1068	284.6449	294.9527	348.0165	384.0642	430.6374	531.792	616.7516	705.7591	746.7334	799.6184	861.6111	876.2236	890.5703	911.5035	927.5002	940.4325	946.9322	962.7995	969.1242	1032.0637	1056.4391	1069.1778	1098.2207	1133.0021	1149.5712	1166.0336	1191.9745	1211.1441	1221.5215	1231.5974	1256.915	1275.113	1278.9709	1330.4295	1350.1538	1368.979	1396.1182	1409.9861	1430.4014	1478.0115	1480.0271	1489.4221	1493.1688	1494.8243	1505.1621	1507.0286	1513.9672	2984.8255	3024.7618	3036.437	3036.9162	3040.9789	3064.0889	3083.8751	3089.1472	3092.1931	3094.627	3098.679	3103.0329	3117.8667	3119.2968	3121.2579	3200.646
CC(C)C1CC11CCC1	CC(C)[C@H]1CC21CCC2	
InChI=1S/C9H16/c1-7(2)8-6-9(8)4-3-5-9/h7-8H,3-6H2,1-2H3	InChI=1S/C9H16/c1-7(2)8-6-9(8)4-3-5-9/h7-8H,3-6H2,1-2H3/t8-/m1/s1
