21
gdb 26370	2.50142	1.34303	1.08751	3.8994	84.66	-0.2089	0.0382	0.247	1232.9874	0.182888	-383.325956	-383.31647	-383.315526	-383.360507	35.197	
C	-0.0451695864	 1.560213261	 0.0278508634	-0.380626
C	 0.0440860704	 0.029276393	-0.0007623013	 0.021629
C	 0.7003335081	-0.4889944328	-1.2865703662	-0.380599
N	 0.733390468	-0.481403337	 1.1863647845	-0.021269
C	 2.0470172543	-0.2273262382	 1.5359491739	-0.137644
C	 2.2574548123	-0.9020398686	 2.7058616995	-0.104673
N	 1.1172660626	-1.5648999401	 3.0908239633	-0.3146
C	 0.2188904365	-1.2967612998	 2.163803346	 0.337913
C	-1.1827993074	-1.8137094939	 2.1735248013	-0.502058
H	 0.9489641905	 2.0142595739	-0.0301519215	 0.124894
H	-0.6300756692	 1.9203197153	-0.8238312737	 0.120326
H	-0.5230957559	 1.9063435164	 0.9482126722	 0.129826
H	-0.9712221681	-0.3734207858	 0.0512235062	 0.100777
H	 1.7204961008	-0.106475195	-1.3903580967	 0.124897
H	 0.7456799214	-1.5813429582	-1.2889104924	 0.129824
H	 0.1279972977	-0.1633132135	-2.1603673599	 0.12032
H	 2.6870592252	 0.3939527176	 0.9319253582	 0.119543
H	 3.1625814152	-0.94894929	 3.2924961843	 0.101211
H	-1.9272473661	-1.0096771579	 2.2106054536	 0.128004
H	-1.4087844477	-2.4327060387	 1.2972672526	 0.128001
H	-1.302780362	-2.4299075477	 3.0654592926	 0.154304
40.9034	118.276	158.7	199.56	224.5767	249.7528	256.638	295.5631	385.8233	420.0654	508.7166	616.5685	654.9605	690.4071	720.0968	729.9448	847.2307	886.816	931.169	931.5025	949.8766	997.1759	1061.6639	1083.0032	1099.2669	1145.0987	1153.2343	1186.5917	1208.4022	1295.0474	1338.0249	1348.7828	1401.3268	1406.0527	1420.0831	1433.4357	1447.1509	1483.542	1486.1187	1486.2902	1486.8922	1497.8523	1508.7366	1526.7914	1567.5064	3025.5333	3039.932	3043.9144	3072.9707	3073.0352	3110.367	3119.3071	3120.6493	3123.3382	3145.9763	3243.0203	3275.1904
CC(C)N1C=CN=C1C	CC(C)n1ccnc1C	
InChI=1S/C7H12N2/c1-6(2)9-5-4-8-7(9)3/h4-6H,1-3H3	InChI=1S/C7H12N2/c1-6(2)9-5-4-8-7(9)3/h4-6H,1-3H3
