18
gdb 113012	3.29783	0.95972	0.84167	1.9896	68.96	-0.2489	-0.0396	0.2093	1363.7566	0.146331	-476.18681	-476.177371	-476.176426	-476.222363	33.684	
O	 0.154253546	 1.273568917	-0.1810135728	-0.419693
C	 0.0867017637	-0.07004188	 0.2619281684	-0.067619
C	-1.3421127372	-0.590073061	 0.153314419	-0.010045
N	-1.9134896013	-0.4230332592	-1.2104552825	-0.35918
C	-2.5531612131	-1.7572359748	-1.1613854166	-0.109679
C	-2.397477215	-2.5873217554	-2.417272068	 0.166529
O	-3.1386269962	-3.4799168134	-2.7337390373	-0.240056
C	-1.6177118314	-2.1232772778	 0.0509626623	 0.100894
O	-0.526993563	-2.9656267249	-0.2177898994	-0.415677
H	-0.13166194	 1.2624104583	-1.1025824718	 0.2866
H	 0.77499673	-0.708095119	-0.3133737497	 0.07075
H	 0.424327784	-0.0824104047	 1.3027321351	 0.118844
H	-1.9592299254	-0.1299658714	 0.9362672369	 0.079242
H	-2.5562303696	 0.3532391486	-1.320632126	 0.231601
H	-3.6083542869	-1.7661834899	-0.8620768602	 0.093952
H	-1.5160782689	-2.3021750223	-3.0372500625	 0.070731
H	-2.1337378513	-2.5701759997	 0.900317474	 0.111549
H	-0.0028648344	-2.5878370804	-0.9321355488	 0.291257
36.2425	70.0294	85.1906	179.5245	208.8655	270.9593	310.713	378.6106	431.0004	445.8324	460.7631	538.7786	574.3972	723.2265	804.1554	838.8412	889.3377	971.7463	999.1528	1033.2066	1046.9196	1078.1305	1098.9219	1130.966	1148.8659	1172.6455	1210.6204	1237.0131	1249.4279	1298.6424	1320.724	1362.9897	1377.0215	1394.5905	1413.982	1429.3443	1442.4743	1496.8276	1834.7157	2864.7363	2981.9885	3016.3098	3035.7471	3086.2568	3121.434	3534.9833	3784.1944	3810.7942
OCC1NC(C=O)C1O	OC[C@H]1N[C@@H](C=O)[C@H]1O	
InChI=1S/C5H9NO3/c7-1-3-5(9)4(2-8)6-3/h1,3-6,8-9H,2H2	InChI=1S/C5H9NO3/c7-1-3-5(9)4(2-8)6-3/h1,3-6,8-9H,2H2/t3-,4+,5+/m0/s1
