21
gdb 121411	4.15536	0.84492	0.73669	2.6943	75.59	-0.2565	0.0798	0.3363	1560.7385	0.183225	-461.34877	-461.339668	-461.338724	-461.383199	33.184	
C	-0.0411256975	 1.3734991473	 0.0075020181	-0.2275
O	-0.0260996623	-0.0337982645	-0.0127344474	-0.235515
C	 0.6738980613	-0.5623589353	-1.1182317871	-0.07437
C	 0.6189717923	-2.0822813826	-1.0473291682	-0.029205
C	-0.821569836	-2.6103333029	-1.1043451381	-0.084676
O	-0.8348672346	-4.0312769172	-1.1454827347	-0.234988
C	-0.0877656985	-4.5139723476	-2.2271188847	 0.015525
O	 1.2652059494	-4.1431223328	-2.1655094872	-0.236574
C	 1.4112081949	-2.7313770776	-2.1902200458	-0.099969
H	 0.9766247109	 1.7914791434	 0.061753819	 0.105408
H	-0.5348117119	 1.7903031407	-0.8847981583	 0.104751
H	-0.5974014726	 1.6822525401	 0.8956898812	 0.130108
H	 0.2243485774	-0.2041771807	-2.0623110402	 0.084479
H	 1.7226235728	-0.2164413949	-1.1119254169	 0.088171
H	 1.0609602116	-2.4059527622	-0.0981460121	 0.099572
H	-1.388708549	-2.309806675	-0.2226480416	 0.128966
H	-1.3302362364	-2.2038225325	-1.997314433	 0.08093
H	-0.1222143017	-5.6042084589	-2.183352254	 0.117198
H	-0.5284117284	-4.1531336098	-3.1781242965	 0.070238
H	 1.062622328	-2.3353972295	-3.1612604291	 0.084851
H	 2.4824793302	-2.5267201174	-2.1073354534	 0.112602
72.7096	95.8138	115.8473	187.4556	235.1642	260.1275	323.291	347.6442	395.7194	450.1156	475.1181	555.7427	685.9507	871.027	915.1275	939.6349	950.4626	986.4013	996.5386	1067.0667	1085.0583	1125.3306	1140.363	1165.6127	1181.7195	1189.6535	1212.5565	1228.3743	1238.1972	1257.7055	1302.7718	1321.7813	1334.3711	1358.6134	1387.8023	1422.2228	1424.4611	1444.2326	1481.3089	1486.1163	1494.8515	1496.1629	1502.9039	1511.6116	1527.684	2903.8068	2934.559	2942.7838	2952.4693	2963.3942	2971.2437	3014.3513	3054.9003	3084.3687	3114.574	3116.5372	3124.8798
COCC1COCOC1	COCC1COCOC1	
InChI=1S/C6H12O3/c1-7-2-6-3-8-5-9-4-6/h6H,2-5H2,1H3	InChI=1S/C6H12O3/c1-7-2-6-3-8-5-9-4-6/h6H,2-5H2,1H3
