17
gdb 75462	2.38662	1.55005	1.25145	0.3029	70.54	-0.2383	-0.0457	0.1925	1053.5016	0.136516	-455.175811	-455.1674	-455.166456	-455.208691	32.043	
N	 0.0109913433	 1.3195836371	 0.0991647609	-0.562448
C	-0.0588612992	-0.0445206792	 0.0089287234	 0.316267
N	-1.1211936216	-0.7496093512	 0.0139055049	-0.280606
C	-0.742728658	-2.1659580528	-0.0407655568	-0.166531
C	 0.7615286634	-2.2187227385	-0.4133006108	-0.295241
C	 1.2745185181	-0.809227336	-0.0266275863	 0.236755
O	 2.1889902561	-0.2299082263	-0.9207173504	-0.485893
C	 1.8895739032	-0.8211496542	 1.3650083303	 0.124152
O	 3.0116124263	-0.4221871096	 1.5639207276	-0.277896
H	 0.8256434941	 1.7154004151	-0.3490995534	 0.262442
H	-0.8526220588	 1.8075692031	-0.0897975613	 0.260478
H	-0.9339193499	-2.6410771474	 0.9306549814	 0.105354
H	-1.3684967657	-2.6915415983	-0.7696320095	 0.112421
H	 1.3030982006	-3.0325632685	 0.0769386355	 0.107363
H	 0.9058471464	-2.3193958411	-1.4921863496	 0.133247
H	 3.0027493964	-0.092759723	-0.4061887115	 0.295185
H	 1.2580047952	-1.2307641194	 2.1766780255	 0.114952
91.0675	117.626	225.0728	247.9722	279.6403	301.0484	358.0925	451.7544	478.3918	513.8556	551.1547	619.0838	654.3927	701.9433	720.109	821.9693	829.8396	934.7989	947.5081	967.2509	993.8083	1087.8791	1105.7037	1161.7405	1180.3899	1234.4704	1239.8396	1304.1019	1331.1328	1376.3669	1390.1565	1433.2724	1484.5014	1514.2826	1620.3193	1745.8352	1806.8906	2955.8424	3016.5903	3060.1479	3065.9153	3113.7961	3560.6816	3655.694	3671.452
NC1=NCCC1(O)C=O	N[C]1[N]CC[C@]1(O)C=O	
InChI=1S/C5H8N2O2/c6-4-5(9,3-8)1-2-7-4/h3,9H,1-2H2,(H2,6,7)	InChI=1S/C5H8N2O2/c6-4-5(9,3-8)1-2-7-4/h3,9H,1-2H2,(H2,6,7)/t5-/m0/s1
