27
gdb 118069	3.11616	0.76225	0.64916	0.9381	93.89	-0.2454	0.0851	0.3305	1883.2488	0.248889	-390.702235	-390.690054	-390.68911	-390.740391	43.797	
C	-0.1368264327	 1.539607483	-0.0046956294	-0.38416
C	-0.0201730078	 0.0258035619	 0.0737868272	-0.037512
O	-1.3190858382	-0.5241369821	 0.0004893237	-0.260024
C	-1.3833327798	-1.9495819195	 0.0124986691	 0.147463
C	-1.2952578829	-2.465222287	 1.452804006	-0.41106
C	-2.6855952848	-2.3370994175	-0.7194650241	 0.037355
C	-2.6648810474	-1.7956238184	-2.1566579456	-0.403676
C	-2.9428510519	-3.8558048568	-0.6767106507	-0.179405
C	-4.2465779998	-4.2975924663	-1.3517601771	-0.390306
H	 0.8534277987	 2.0023435457	 0.0469710983	 0.111979
H	-0.6134125482	 1.8404323307	-0.9421396284	 0.124749
H	-0.7418739612	 1.9203498618	 0.8231093007	 0.125416
H	 0.6007051473	-0.3570607637	-0.7538918822	 0.08397
H	 0.48278549	-0.2632862766	 1.0106703094	 0.085222
H	-0.5304552047	-2.3490507716	-0.5646387971	 0.05722
H	-2.1891676424	-2.1802709592	 2.0175423158	 0.119056
H	-1.1917971772	-3.552719764	 1.4887912651	 0.117493
H	-0.4251314889	-2.0398589203	 1.9609316051	 0.113716
H	-3.5018475523	-1.8371134293	-0.1771594464	 0.074767
H	-3.6364555465	-1.9087597892	-2.644594851	 0.109957
H	-2.406237371	-0.7356473834	-2.1565700209	 0.127551
H	-1.923178943	-2.3294402375	-2.7646989309	 0.101488
H	-2.0961457255	-4.3771517051	-1.1461803159	 0.08939
H	-2.9672667014	-4.1908519585	 0.3653234417	 0.09703
H	-5.1084016957	-3.7680179329	-0.9296846183	 0.113332
H	-4.2377019521	-4.1106240417	-2.429183744	 0.119554
H	-4.4132062308	-5.3696112927	-1.20622036	 0.109434
48.1806	54.6205	79.6604	94.6892	158.8494	208.8904	218.0969	238.6182	242.9322	265.2766	311.5969	334.7243	356.4009	395.337	456.2869	516.2395	529.1079	772.2625	818.1527	823.4209	847.4145	893.9402	951.787	967.8555	991.0886	995.4863	1038.3472	1065.4771	1109.3145	1129.9962	1144.6524	1167.0315	1181.0226	1187.7828	1206.834	1280.4579	1296.3926	1311.1992	1346.2452	1359.499	1375.5776	1386.8355	1401.221	1402.6368	1408.0103	1411.2408	1436.7276	1483.1743	1483.619	1491.0269	1494.49	1498.3279	1499.9018	1501.8721	1508.8495	1516.7229	1530.6823	2942.4229	2959.103	2985.008	2997.8072	3011.307	3029.616	3033.3183	3041.0189	3043.3965	3065.5808	3096.7622	3101.3662	3110.441	3112.2053	3117.3997	3118.7168	3119.8944	3138.2143
CCOC(C)C(C)CC	CCO[C@@H](C)[C@@H](C)CC	
InChI=1S/C8H18O/c1-5-7(3)8(4)9-6-2/h7-8H,5-6H2,1-4H3	InChI=1S/C8H18O/c1-5-7(3)8(4)9-6-2/h7-8H,5-6H2,1-4H3/t7-,8-/m0/s1
