25
gdb 86061	2.21061	1.37131	0.95646	0.1639	96.03	-0.2151	0.0375	0.2526	1378.332	0.227901	-352.394448	-352.383909	-352.382965	-352.429244	39.981	
C	-0.9139365495	 1.0758204066	-0.0001357195	-0.41183
C	 0.128489141	-0.0410519587	 0.0088302579	 0.03236
C	 1.2318640811	 0.0917134997	-1.0649950061	-0.304375
C	 2.3984749864	-0.6694514503	-0.4699261631	 0.219813
C	 3.5632151597	-1.0541879813	-1.3286780629	-0.498908
C	 2.2189968951	-0.8804192555	 0.8420045922	 0.231433
C	 3.1355651688	-1.576999812	 1.8013428423	-0.503803
C	 0.9186765763	-0.258503144	 1.3349813833	-0.078235
C	 1.1790659556	 1.0211124066	 2.1526457489	-0.39366
H	-0.4595822324	 2.0577781162	 0.1671045547	 0.114479
H	-1.4298800097	 1.1131103664	-0.9658242584	 0.108755
H	-1.6749632824	 0.9233805625	 0.7732447235	 0.108955
H	-0.3897084184	-0.9874739269	-0.1918951478	 0.071632
H	 0.9159119603	-0.3072284345	-2.0375500784	 0.090693
H	 1.5023314285	 1.1444877116	-1.2444750672	 0.093366
H	 4.0235042077	-0.1676654216	-1.7851644357	 0.121793
H	 4.3417285029	-1.5845057335	-0.7749272608	 0.119328
H	 3.2442818542	-1.6965807372	-2.1600214684	 0.120871
H	 4.0263051765	-1.9801356367	 1.3135674847	 0.119673
H	 3.4730030467	-0.9020954269	 2.5983981526	 0.123785
H	 2.6211804294	-2.409387832	 2.2995319836	 0.120503
H	 0.3742115864	-0.9566111617	 1.9864749693	 0.058786
H	 1.7051522639	 1.7756974588	 1.5579637963	 0.113701
H	 0.2452339556	 1.4635949534	 2.5133376782	 0.111362
H	 1.7974559463	 0.8035958608	 3.0293579408	 0.109523
86.9629	136.1574	141.4331	166.2781	230.2452	243.0524	245.1035	272.3298	290.9162	293.4033	376.932	421.1309	475.3232	554.1662	576.451	616.3153	734.5154	773.5094	877.0523	903.5817	938.9055	975.6457	994.4167	1014.1466	1025.6441	1053.9586	1070.3825	1096.0422	1113.3465	1136.7955	1183.1435	1194.7327	1208.4858	1237.9755	1308.3254	1325.4578	1344.0887	1362.2725	1375.1255	1401.5469	1408.735	1415.4994	1420.9076	1477.3021	1480.9572	1486.0183	1491.3902	1491.9422	1493.7779	1495.1307	1506.3886	1510.1561	1739.0296	2980.3298	2993.5787	3011.7589	3015.589	3016.1771	3028.4119	3032.2722	3037.4501	3053.2522	3056.5939	3090.0314	3097.9163	3102.4983	3103.1268	3108.9719	3116.3511
CC1CC(C)=C(C)C1C	C[C@H]1CC(=C(C)[C@H]1C)C	
InChI=1S/C9H16/c1-6-5-7(2)9(4)8(6)3/h6,8H,5H2,1-4H3	InChI=1S/C9H16/c1-6-5-7(2)9(4)8(6)3/h6,8H,5H2,1-4H3/t6-,8-/m0/s1
