20
gdb 9383	4.76036	0.8602	0.76321	1.2662	78.72	-0.2516	0.0413	0.2929	1533.7088	0.17335	-348.966476	-348.956277	-348.955333	-349.002579	35.712	
C	-0.0760917489	 1.5058041681	-0.0278777328	-0.383868
C	 0.0839640004	-0.0162333625	-0.0078311752	-0.1815
C	 0.6824275862	-0.5201753244	 1.2986820955	-0.033832
O	 0.7937865365	-1.9291700529	 1.2213936491	-0.258118
C	 1.4316868697	-2.5356999906	 2.3391020798	-0.035934
C	 0.4710027024	-2.7106758067	 3.5270565594	-0.394206
C	 1.9704190972	-3.8260664498	 1.9054561079	 0.3212
C	 2.4120348503	-4.8960786612	 1.5849811206	-0.444344
H	 0.8885112733	 2.0113325169	 0.092713516	 0.116303
H	-0.5096104212	 1.8419069632	-0.9740584911	 0.118453
H	-0.7332229418	 1.8499421326	 0.7785285492	 0.115771
H	-0.8867225799	-0.5031154696	-0.1551632502	 0.108675
H	 0.7261477697	-0.3445285815	-0.832705983	 0.109825
H	 1.6764175464	-0.069255824	 1.4642727598	 0.084968
H	 0.0454832103	-0.2153715676	 2.1450860073	 0.085766
H	 2.2766971092	-1.9019030822	 2.6583390412	 0.093066
H	 0.9832277593	-3.1984670338	 4.3608976272	 0.127184
H	 0.1015667143	-1.740695636	 3.870813752	 0.118094
H	-0.3791912772	-3.3280685321	 3.2270930079	 0.135665
H	 2.8060750839	-5.8368481359	 1.2893519092	 0.196831
32.3807	59.8472	110.4756	140.2422	185.7646	216.8483	230.6365	261.4485	347.7604	379.872	427.6103	543.1284	583.1387	621.6703	667.25	764.6704	829.605	901.3515	908.8089	920.9302	1037.7924	1054.7031	1091.9167	1112.0012	1146.5697	1153.3106	1190.9899	1267.0669	1314.8412	1328.404	1343.3047	1361.4992	1398.5682	1412.73	1438.5286	1489.3832	1490.3257	1492.8175	1500.69	1507.2453	1526.7344	2243.0553	2948.891	2956.6626	2983.1751	3031.5653	3041.7749	3048.4945	3074.0784	3100.5884	3108.7151	3122.5546	3134.1721	3505.1847
CCCOC(C)C#C	CCCO[C@@H](C)C#C	
InChI=1S/C7H12O/c1-4-6-8-7(3)5-2/h2,7H,4,6H2,1,3H3	InChI=1S/C7H12O/c1-4-6-8-7(3)5-2/h2,7H,4,6H2,1,3H3/t7-/m0/s1
