18
gdb 109463	2.64582	1.34546	0.99049	4.4047	73.13	-0.2497	0.0219	0.2716	1197.95	0.147281	-439.083208	-439.074528	-439.073583	-439.116645	32.703	
O	 0.0123958713	 1.4154305935	-0.2627455019	-0.424048
C	 0.0603811105	 0.0645032778	 0.1456495612	-0.066657
C	-1.3488409617	-0.5285725008	 0.1736694568	-0.297223
C	-1.9440421406	-0.612662978	-1.2496083334	 0.461517
O	-2.0900143629	 0.1750107081	-2.1529759396	-0.387549
N	-2.1481417092	-1.964085297	-1.1293316	-0.395295
C	-1.5365293369	-2.0582214996	 0.1911057772	 0.407899
C	-0.5981749219	-3.129168921	 0.6501975137	-0.328007
C	-1.9689141499	-2.9640395739	 1.2952931025	-0.329171
H	-0.4912475242	 1.4433018696	-1.0883503333	 0.300168
H	 0.7007650474	-0.5433285828	-0.5144484391	 0.091351
H	 0.5126397305	 0.0497174479	 1.1434214748	 0.107112
H	-1.9820973843	 0.0152257553	 0.8788353906	 0.111481
H	-2.3636436186	-2.6660965916	-1.8232426886	 0.251786
H	-0.4460883296	-3.9882749893	 0.0047050549	 0.120089
H	 0.2799604652	-2.8410046991	 1.2186745063	 0.12861
H	-2.0208520858	-2.5615036003	 2.3015377108	 0.126716
H	-2.7215824094	-3.7135951887	 1.073949507	 0.121222
91.9493	119.9161	137.8869	202.9469	241.2002	306.3917	384.4681	409.6253	497.8085	508.1872	523.6792	553.5466	722.6579	765.3766	811.3978	848.8284	882.0305	911.3026	961.8954	980.6921	1051.8173	1059.1535	1075.8384	1081.9853	1112.7049	1151.1096	1176.9299	1184.0422	1225.6537	1261.1159	1311.0915	1327.9968	1383.7414	1425.4674	1453.801	1458.3986	1510.8932	1514.7628	1869.2929	2970.1733	3060.4923	3093.0448	3127.1406	3130.4946	3206.7115	3221.0545	3597.7029	3744.6571
OCC1C(=O)NC11CC1	OC[C@H]1C(=O)NC21CC2	
InChI=1S/C6H9NO2/c8-3-4-5(9)7-6(4)1-2-6/h4,8H,1-3H2,(H,7,9)	InChI=1S/C6H9NO2/c8-3-4-5(9)7-6(4)1-2-6/h4,8H,1-3H2,(H,7,9)/t4-/m0/s1
