18
gdb 56597	3.58281	0.98235	0.90961	5.7045	72.01	-0.251	0.0304	0.2814	1304.1063	0.147893	-435.232909	-435.223392	-435.222448	-435.267609	34.513	
N	-0.1502303492	 1.5628554298	-0.0383134713	-0.510502
C	-0.0053794713	 0.1089783478	-0.0565367427	-0.123369
C	-1.3084134696	-0.5160984237	 0.2212549923	 0.308044
N	-2.3149507219	-1.0428556821	 0.4297282802	-0.324178
C	 0.5796668866	-0.4867719797	-1.3816311598	-0.026866
N	-0.1761528895	 0.0385159734	-2.5104910978	-0.517499
C	 2.0760220508	-0.1940735971	-1.4400287851	 0.071546
C	 2.8261772098	-0.1069896666	-2.6958689832	-0.194729
O	 2.4448690758	 1.0794161565	-1.987488128	-0.23866
H	 0.755744312	 1.9916164677	-0.2055033628	 0.248546
H	-0.7543074994	 1.8343866106	-0.809774723	 0.246729
H	 0.6600410253	-0.17203648	 0.7705997883	 0.124341
H	 0.4536594213	-1.5751026483	-1.3390639058	 0.107
H	 0.2804582404	 0.8711788615	-2.8700954581	 0.243808
H	-0.2482554847	-0.6347366393	-3.2624347384	 0.24319
H	 2.6346078472	-0.4630703279	-0.5412777845	 0.10158
H	 3.8929161087	-0.3212954105	-2.7002176753	 0.129055
H	 2.3110076376	-0.2633497022	-3.641274415	 0.111964
62.9054	71.4059	143.9589	197.3726	239.1928	268.5677	271.0256	304.4742	355.6688	394.5474	433.0713	580.8243	635.8077	704.4946	780.7777	815.6746	847.4136	875.12	910.1316	950.5332	976.5944	1029.0971	1089.3766	1094.6821	1146.1804	1165.0673	1169.1367	1192.5467	1225.2694	1288.2237	1296.2705	1322.0561	1403.2799	1418.0836	1424.8865	1519.0678	1649.8068	1665.6495	2365.0961	3027.9079	3046.3438	3092.2502	3097.8472	3185.8353	3489.3722	3511.5861	3573.738	3609.1324
NC(C#N)C(N)C1CO1	N[C@@H](C#N)[C@@H](N)[C@H]1CO1	
InChI=1S/C5H9N3O/c6-1-3(7)5(8)4-2-9-4/h3-5H,2,7-8H2	InChI=1S/C5H9N3O/c6-1-3(7)5(8)4-2-9-4/h3-5H,2,7-8H2/t3-,4+,5+/m0/s1
