17
gdb 126058	3.0552	1.60517	1.11042	4.577	74.39	-0.2248	-0.0013	0.2235	1065.7984	0.139335	-414.17519	-414.167706	-414.166762	-414.207252	28.614	
C	 0.0333774043	 1.6059390348	-0.0668740746	-0.370867
C	-0.0146166487	 0.0792145963	 0.0503481094	-0.096966
N	 0.7107231088	-0.5731279835	-1.0794708279	-0.324948
C	 1.5310376143	-1.7364667961	-0.6381907049	-0.283014
C	 1.5893869305	-1.5020724915	 0.8372120706	 0.290966
C	 0.7346684046	-0.5053693193	 1.2031466616	 0.365783
N	 0.8801208563	-0.4188221176	 2.5383640218	-0.342323
N	 1.7965837497	-1.332115661	 2.9741408267	-0.125308
N	 2.225101187	-1.9907226391	 1.9298991144	-0.289298
H	 1.0700780693	 1.9510206322	-0.0874946092	 0.131093
H	-0.453654148	 1.9280983177	-0.9919336885	 0.120826
H	-0.4879142915	 2.0821801028	 0.7714731436	 0.103794
H	-1.0731469516	-0.2325384234	 0.0918875213	 0.083859
H	 0.0762570047	-0.8241422844	-1.8257326536	 0.222824
H	 1.0664092183	-2.7051001668	-0.8793367482	 0.108893
H	 2.5142018526	-1.7175344788	-1.1236250261	 0.126074
H	 0.4466116794	 0.1887425177	 3.2142332736	 0.278611
93.492	155.1725	233.7474	242.6871	291.8078	441.1218	470.3101	547.9898	555.9476	655.1814	687.4398	712.7451	738.6014	784.6696	932.0301	984.137	1002.7588	1033.5544	1046.0462	1058.5738	1091.4798	1107.7785	1179.4893	1185.6279	1223.1823	1267.6277	1329.8853	1359.098	1372.6822	1404.3274	1420.3718	1439.7547	1488.0993	1494.3665	1522.6585	1537.1321	1614.8499	2934.8223	2979.2047	3033.6809	3037.9683	3103.7706	3128.4047	3571.7756	3664.9675
CC1NCC2=C1NN=N2	C[C@H]1NCc2c1[nH]nn2	
InChI=1S/C5H8N4/c1-3-5-4(2-6-3)7-9-8-5/h3,6H,2H2,1H3,(H,7,8,9)	InChI=1S/C5H8N4/c1-3-5-4(2-6-3)7-9-8-5/h3,6H,2H2,1H3,(H,7,8,9)/t3-/m1/s1
