18
gdb 115556	2.73388	1.08404	1.02324	2.4068	72.87	-0.246	0.0196	0.2656	1245.13	0.148561	-435.236848	-435.227531	-435.226587	-435.271318	33.987	
N	 0.0182214566	 1.5247966473	-0.0222550834	-0.543699
C	-0.000043749	 0.0666943123	-0.0573562285	 0.110277
C	-0.0076255766	-0.5539288569	 1.3734229171	-0.183724
N	-1.4488887852	-0.8722660525	 1.2449013047	-0.333554
C	-1.4356455895	-0.5627903988	-0.2091915336	 0.004185
C	-2.6087924358	 0.3284378773	-0.6079287086	-0.07824
O	-3.8176424063	-0.287590899	-0.2000638107	-0.42091
C	 1.0042503771	-0.4968760596	-0.9676469196	 0.225499
N	 1.803122451	-0.9067265761	-1.6974713478	-0.342884
H	 0.9127723329	 1.8444244911	 0.3399008879	 0.24485
H	-0.062870292	 1.9042163323	-0.9619659209	 0.246494
H	 0.6524507172	-1.4221983177	 1.4667371772	 0.121116
H	 0.2198511331	 0.1646286971	 2.1671957151	 0.121159
H	-1.6714770003	-1.8377802904	 1.4552914054	 0.232663
H	-1.4104751667	-1.4556748796	-0.8438696906	 0.090769
H	-2.4868549254	 1.3198510711	-0.1553070294	 0.111101
H	-2.6608609944	 0.442243836	-1.6961002493	 0.107436
H	-3.7562816067	-0.3564100539	 0.7612019651	 0.287461
64.2474	85.8895	151.6659	176.2461	206.7642	252.7517	309.6154	371.9212	408.529	470.2529	487.7775	537.0729	608.3531	621.845	768.4226	835.9501	887.5889	917.849	955.2823	968.0485	1020.1393	1037.627	1065.638	1098.7865	1148.0637	1175.2742	1213.7448	1228.7961	1280.4827	1295.5706	1327.1377	1362.472	1379.8992	1399.6816	1429.8186	1502.4718	1509.9681	1658.6866	2338.3737	3028.2127	3036.6158	3041.6321	3084.9316	3089.0709	3486.1101	3546.725	3563.7239	3774.9943
NC1(CNC1CO)C#N	N[C@]1(CN[C@H]1CO)C#N	
InChI=1S/C5H9N3O/c6-2-5(7)3-8-4(5)1-9/h4,8-9H,1,3,7H2	InChI=1S/C5H9N3O/c6-2-5(7)3-8-4(5)1-9/h4,8-9H,1,3,7H2/t4-,5-/m0/s1
