23
gdb 117157	3.776	0.66299	0.63374	1.2131	82.88	-0.2388	-0.0089	0.2299	1894.9371	0.20231	-425.451869	-425.44024	-425.439296	-425.490013	40.418	
C	-0.0260395302	 1.5873171823	 0.0796464481	-0.3865
C	-0.1112813607	 0.0592621072	 0.0751748172	-0.16089
C	 0.758000733	-0.5854389424	 1.1541259066	-0.287249
C	 0.7422693766	-2.1068669055	 1.1424573038	 0.366495
O	 0.2231667335	-2.7371626254	 0.2464296996	-0.320827
C	 1.4060275358	-2.8077826062	 2.3264253107	-0.0677
C	 0.371330606	-3.0101042072	 3.4526154772	-0.396482
C	 2.0150721053	-4.1399119499	 1.8863530144	-0.077878
O	 2.6916966326	-4.6957148147	 3.0057701348	-0.42739
H	 0.999919815	 1.9302174886	-0.0965764218	 0.112615
H	-0.6588254006	 2.0203595037	-0.7010605864	 0.115349
H	-0.351342145	 2.0042183317	 1.0396155824	 0.112171
H	-1.1500842717	-0.2600413475	 0.2163450106	 0.107675
H	 0.187498096	-0.3356793415	-0.9011087909	 0.115697
H	 1.8094235404	-0.2779479634	 1.0416995028	 0.12224
H	 0.4741074259	-0.2391954279	 2.1577783664	 0.117231
H	 2.2120992064	-2.1704618279	 2.7113257189	 0.085884
H	-0.4786103522	-3.5961825775	 3.0878213034	 0.127783
H	 0.8361613991	-3.551315157	 4.2787971985	 0.143622
H	-0.008625154	-2.0563035896	 3.8308228824	 0.113186
H	 1.2161393795	-4.7988994264	 1.5213667177	 0.107847
H	 2.7074670154	-3.970760865	 1.0474317951	 0.088591
H	 2.991111794	-5.5772227085	 2.7664389787	 0.28853
31.6411	65.5429	84.4051	93.1828	138.769	213.2283	221.9963	243.3787	247.1013	253.7318	298.2685	337.0086	369.0803	477.4737	574.5485	691.5024	747.0802	832.2651	870.1397	877.2292	915.8477	932.3698	1025.4185	1042.4989	1054.058	1059.5024	1090.2314	1137.8763	1142.9452	1164.9933	1248.3365	1248.8832	1265.0413	1307.3022	1320.353	1343.5355	1357.8849	1392.2429	1397.4281	1414.2576	1447.9452	1454.5999	1487.1195	1492.483	1501.0997	1505.1097	1507.9893	1520.1486	1795.9248	2983.3463	3000.4698	3026.0162	3027.4703	3033.8618	3040.0379	3043.9644	3047.565	3075.5566	3099.9988	3103.1085	3108.6431	3136.8055	3836.0019
CCCC(=O)C(C)CO	CCCC(=O)[C@@H](C)CO	
InChI=1S/C7H14O2/c1-3-4-7(9)6(2)5-8/h6,8H,3-5H2,1-2H3	InChI=1S/C7H14O2/c1-3-4-7(9)6(2)5-8/h6,8H,3-5H2,1-2H3/t6-/m0/s1
