19
gdb 119365	3.43646	1.01712	0.90165	2.421	77.44	-0.2409	0.0132	0.254	1348.8196	0.158417	-422.981347	-422.972549	-422.971604	-423.015643	32.022	
C	-0.2470947626	 1.4662123582	-0.71920695	-0.22081
O	-0.281064638	 0.0762013313	-0.9435623458	-0.240182
C	 0.7798876496	-0.6066929985	-0.3091956381	-0.211818
C	 0.658580075	-2.0694452591	-0.6045415672	 0.192137
C	-0.5268422215	-3.0401649872	-0.2561139578	-0.259587
C	 0.4914792525	-3.974630482	-0.9951570264	-0.178219
C	 0.684127815	-2.7885626635	-2.0013743166	-0.259673
C	 1.5487373095	-3.2443560401	-0.156010233	 0.419894
O	 2.5275804379	-3.4535028282	 0.4919848351	-0.332153
H	-0.3266737453	 1.7092377511	 0.3522219457	 0.106336
H	 0.6798756493	 1.9197485429	-1.1044135878	 0.106329
H	-1.0994217086	 1.9029260091	-1.2450561277	 0.128615
H	 1.7545402276	-0.2319228341	-0.6666358017	 0.098752
H	 0.7537289531	-0.4414446249	 0.7817573939	 0.098777
H	-0.7252569202	-3.2385030747	 0.7989868291	 0.110688
H	-1.4420233806	-2.8375984527	-0.8156854452	 0.117112
H	 0.3857047053	-5.032441031	-1.2210882868	 0.095972
H	-0.1883264047	-2.5771921438	-2.6225602336	 0.117135
H	 1.6139976364	-2.7524671527	-2.5723285261	 0.110696
61.7022	89.7772	105.4415	192.5209	231.0942	268.8115	316.7768	344.1573	515.4291	558.6486	668.8647	740.4493	766.0539	807.7872	835.4087	891.9819	920.2629	986.692	1002.6966	1004.831	1033.3692	1048.2914	1080.3563	1144.0005	1145.8148	1165.1602	1185.4158	1186.2056	1197.8342	1225.8571	1233.6599	1272.6397	1341.6052	1431.1595	1481.632	1485.5907	1495.8312	1500.6659	1520.1969	1533.3208	1910.2915	2950.3786	2972.4863	2977.6916	3015.8663	3067.7952	3068.2382	3116.1443	3140.629	3141.4428	3158.0318
COCC12CC(C1)C2=O	COC[C@@]12C[C@@H](C1)C2=O	
InChI=1S/C7H10O2/c1-9-4-7-2-5(3-7)6(7)8/h5H,2-4H2,1H3	InChI=1S/C7H10O2/c1-9-4-7-2-5(3-7)6(7)8/h5H,2-4H2,1H3/t5-,7+
