23
gdb 70741	2.37688	1.57378	1.17583	1.2616	85.42	-0.2306	0.0862	0.3169	1166.7734	0.207408	-388.291153	-388.282614	-388.28167	-388.323594	34.643	
C	-0.0725202859	 1.5096521728	 0.0651387578	-0.462355
C	-0.0118446952	-0.0040677007	-0.0116657551	 0.323143
C	-0.8116297971	-0.7943015866	 1.0124676317	-0.375502
C	 0.683048793	-0.7343951684	 1.1147255318	 0.078489
O	 1.3840361322	-1.911162806	 0.8546738422	-0.248266
C	 2.6186095688	-1.6955655192	 0.175580421	-0.066051
C	 2.4656812594	-1.6942547416	-1.3468470326	-0.183327
C	 1.5943579157	-0.5701715131	-1.9287601298	-0.19123
C	 0.141394513	-0.5799776401	-1.4162933266	-0.266383
H	 0.7888907359	 1.9736797549	-0.4294833076	 0.114724
H	-0.9785197346	 1.8925815049	-0.419782815	 0.115396
H	-0.0820381739	 1.8569439259	 1.1033863054	 0.112018
H	-1.4015559152	-0.2574352871	 1.7483132643	 0.105813
H	-1.2331123326	-1.7422396896	 0.6962344453	 0.118213
H	 1.1198520142	-0.1281886935	 1.9117135661	 0.07396
H	 3.0811869736	-0.7581818931	 0.5211612303	 0.085817
H	 3.277333	-2.518095219	 0.4759748839	 0.10107
H	 3.4710655437	-1.6417786352	-1.7857966182	 0.08922
H	 2.0461869621	-2.6643484081	-1.6436697892	 0.102357
H	 2.0554446269	 0.4038154291	-1.7170912187	 0.092865
H	 1.5905379709	-0.6704011451	-3.0209427699	 0.090531
H	-0.2347483193	-1.6081295518	-1.4450163261	 0.099946
H	-0.4936754054	-0.0019858196	-2.0994314607	 0.089552
149.1943	159.4322	215.9728	247.0477	308.2374	334.1592	348.1139	369.2511	421.5513	456.4293	517.2127	569.7514	712.3189	779.2911	808.701	849.9058	882.9207	899.8981	915.3214	945.0677	972.5519	995.8264	1028.3941	1053.7425	1084.3313	1095.824	1099.3098	1118.7631	1129.6248	1191.9688	1195.7172	1247.6379	1269.6401	1302.9507	1313.0218	1335.7636	1375.6786	1381.4627	1391.8907	1404.1567	1416.455	1427.9657	1470.1587	1477.6841	1484.6871	1491.7863	1493.9074	1500.8628	1503.7831	2987.2377	3012.0773	3016.1334	3018.5381	3024.8688	3050.655	3057.5361	3065.6901	3070.1415	3072.9827	3079.	3094.4678	3129.0126	3218.0066
CC12CC1OCCCC2	C[C@]12C[C@H]1OCCCC2	
InChI=1S/C8H14O/c1-8-4-2-3-5-9-7(8)6-8/h7H,2-6H2,1H3	InChI=1S/C8H14O/c1-8-4-2-3-5-9-7(8)6-8/h7H,2-6H2,1H3/t7-,8+/m1/s1
