21
gdb 122562	5.09884	0.67987	0.65537	2.6306	79.56	-0.2514	0.0857	0.3371	1762.6242	0.181166	-424.171954	-424.162576	-424.161631	-424.207215	33.85	
C	-0.1073418406	 1.3524354987	 0.0035602134	-0.227121
O	 0.0795145592	-0.0394306098	-0.0601532291	-0.227844
C	 0.6305112355	-0.5754066432	 1.122792139	-0.049548
C	 0.7817264231	-2.0812035021	 0.9497620232	-0.218063
C	 1.3769699931	-2.7629489751	 2.1752678903	-0.014579
C	 0.5168917316	-2.8639453896	 3.4970713467	-0.271309
C	 0.6399852384	-4.3894059021	 3.4026597514	 0.035541
O	 0.0779156215	-4.7795662452	 2.1434754073	-0.243621
C	 1.4281141361	-4.3025863645	 2.1638759337	 0.006932
H	 0.8432909702	 1.8877505248	 0.1606397496	 0.100319
H	-0.5366824422	 1.6706563407	-0.9497376563	 0.125926
H	-0.7958762822	 1.6376607946	 0.8155564403	 0.101201
H	 1.6109903175	-0.110719939	 1.3329987708	 0.077853
H	-0.0202058197	-0.3476036093	 1.9855224083	 0.084965
H	-0.1976012491	-2.519045904	 0.7320308436	 0.122737
H	 1.4177118846	-2.2670995649	 0.0752580361	 0.103008
H	 2.366230341	-2.3531679884	 2.4085285376	 0.075127
H	 1.0230522938	-2.4334493185	 4.3641155051	 0.105151
H	-0.5076188313	-2.4859623895	 3.4460373948	 0.110755
H	 0.6418265239	-5.1308071049	 4.1931392784	 0.103581
H	 2.1882542157	-4.9574488188	 1.7522456057	 0.098988
58.5413	78.3732	99.1989	129.234	196.5935	235.0745	280.0349	329.4819	433.6116	448.7256	589.2425	725.9664	787.0759	822.0756	843.2317	875.9273	897.0521	933.4967	976.2945	985.8825	1010.6703	1042.6785	1075.7659	1094.2415	1119.0595	1164.09	1174.1603	1192.923	1209.8735	1228.0531	1239.4726	1241.4834	1246.1887	1275.8935	1300.7719	1312.7146	1376.5464	1394.1527	1427.1679	1471.3343	1480.8632	1485.448	1493.8845	1505.2745	1531.6372	2935.4706	2961.7019	2965.8821	3005.5787	3034.8043	3044.1995	3063.7725	3092.1578	3111.4383	3121.0662	3174.8173	3192.3531
COCCC1CC2OC12	COCC[C@H]1C[C@H]2O[C@@H]12	
InChI=1S/C7H12O2/c1-8-3-2-5-4-6-7(5)9-6/h5-7H,2-4H2,1H3	InChI=1S/C7H12O2/c1-8-3-2-5-4-6-7(5)9-6/h5-7H,2-4H2,1H3/t5-,6+,7-/m0/s1
