21
gdb 53560	3.55091	0.81902	0.75682	1.5631	87.61	-0.2452	0.0573	0.3025	1615.1771	0.180207	-387.052545	-387.041817	-387.040873	-387.08947	37.985	
C	-0.0036448106	 1.1075338473	 0.7490515504	-0.498172
C	-0.0464046614	-0.2471039079	 0.2138366947	 0.059457
C	-0.0691675375	-1.3577985786	-0.2547771394	 0.057679
C	-0.1317068764	-2.7218991557	-0.7851049329	-0.380467
C	-1.4373717421	-3.4219336042	-0.4186415819	-0.06167
C	-1.4793913043	-4.8549554373	 0.0916538789	-0.054372
C	-0.2466506555	-5.7208042239	 0.2356521885	-0.407383
C	-1.7335007593	-3.7050021475	 1.0355073251	 0.091404
O	-0.7429310742	-3.4236616008	 1.9811953751	-0.424664
H	 0.8295720844	 1.2357088662	 1.4488039412	 0.148398
H	 0.121206623	 1.8449699666	-0.0515366792	 0.14986
H	-0.926783409	 1.3554889794	 1.2845128227	 0.14782
H	-0.0229696034	-2.7000488142	-1.8765630346	 0.127333
H	 0.7253250761	-3.2891185041	-0.4098280116	 0.137281
H	-2.2830815013	-3.1016274048	-1.0204367107	 0.087941
H	-2.3706100197	-5.4016964581	-0.2058397666	 0.083917
H	 0.5530067825	-5.1934489607	 0.7589431915	 0.137258
H	-0.4816931257	-6.6130514762	 0.8253994163	 0.117643
H	 0.1287941943	-6.0555774649	-0.7376429469	 0.110436
H	-2.7517317889	-3.5492417824	 1.3916515069	 0.079139
H	-0.5314172109	-2.4844076882	 1.9041876126	 0.291161
42.9947	45.7359	76.6217	146.4806	189.4008	191.7158	217.3563	275.7307	295.4264	378.1557	421.2199	437.1824	479.3533	571.3206	610.613	758.4425	772.14	798.0548	876.3016	918.3135	983.3413	1005.35	1053.1157	1054.7217	1073.493	1111.4349	1132.6651	1148.259	1158.8055	1181.7709	1241.5927	1258.1968	1319.61	1338.4782	1370.8513	1389.0803	1415.4795	1417.0294	1447.7251	1470.3823	1479.3231	1479.747	1494.1785	1508.4776	2362.4907	3027.0319	3030.8877	3035.7771	3077.8609	3087.3199	3088.0858	3090.896	3093.9088	3126.2898	3138.1499	3149.4486	3757.8643
CC#CCC1C(C)C1O	CC#CC[C@H]1[C@@H](C)[C@H]1O	
InChI=1S/C8H12O/c1-3-4-5-7-6(2)8(7)9/h6-9H,5H2,1-2H3	InChI=1S/C8H12O/c1-3-4-5-7-6(2)8(7)9/h6-9H,5H2,1-2H3/t6-,7+,8-/m1/s1
