16
gdb 67077	2.7165	1.56747	1.34485	3.8823	74.78	-0.2399	0.0066	0.2465	991.7189	0.126324	-396.869731	-396.862327	-396.861383	-396.901397	29.369	
N	-0.1819472046	 1.4684745635	 0.1482899156	-0.621172
C	-0.0372964737	 0.0921768108	 0.000701827	 0.289101
C	-1.0510659944	-1.0279750789	-0.0707778276	-0.12679
C	-0.4121919366	-1.6455702837	-1.3055885468	-0.273015
C	 0.9084141459	-0.9436534151	-0.8611343997	 0.130069
N	 1.3048087357	-1.5526694134	 0.4375444334	-0.334151
C	 0.077112388	-1.0023739121	 1.0062909334	-0.054355
C	 1.9417946394	-0.6181697967	-1.8049109364	 0.180184
N	 2.7443487327	-0.309610963	-2.5794999561	-0.343604
H	 0.6656652888	 1.9244525613	 0.4675181518	 0.252931
H	-0.515907351	 1.930786287	-0.6897418993	 0.246818
H	-2.0980290949	-0.9789414255	 0.196621085	 0.101939
H	-0.363232393	-2.7368009025	-1.3950025749	 0.101545
H	-0.8068347878	-1.2133589638	-2.2277430933	 0.121999
H	 1.3295200274	-2.5734975533	 0.3921814622	 0.21772
H	-0.1228652518	-0.9737187646	 2.0689838857	 0.110782
113.034	163.0234	234.3078	314.5462	386.7039	431.6414	514.3805	528.5298	545.5878	561.0032	665.2437	710.0216	747.4317	778.0372	839.8671	898.5009	915.7893	962.3417	977.7844	1000.3	1013.9375	1053.5109	1077.2733	1108.6956	1130.1979	1220.9411	1250.7312	1264.1206	1271.6119	1307.0966	1350.6405	1489.9421	1508.5013	1659.8759	2344.3321	3040.1946	3115.0451	3209.9132	3218.1479	3422.688	3511.7487	3592.8003
NC12C3CC1(NC23)C#N	N[C@@]12[C@H]3C[C@@]1(N[C@@H]23)C#N	
InChI=1S/C6H7N3/c7-2-5-1-3-4(9-5)6(3,5)8/h3-4,9H,1,8H2	InChI=1S/C6H7N3/c7-2-5-1-3-4(9-5)6(3,5)8/h3-4,9H,1,8H2/t3-,4+,5+,6+/m0/s1
