17
gdb 99733	3.09999	0.63111	0.53961	1.9894	70.06	-0.1914	0.0455	0.2369	1929.3764	0.132604	-492.329865	-492.318383	-492.317439	-492.370441	37.787	
N	 0.0683324437	 1.8937067127	 0.5010909104	-0.556647
C	 0.1720523271	 0.5010351255	 0.4064973633	 0.337993
N	 1.1229871945	 0.0137788308	 1.3125603705	-0.549521
H	 1.9907018936	 0.5367299612	 1.2912688774	 0.242777
H	 1.2947352784	-0.9767354835	 1.2104157533	 0.248329
C	-0.5189193643	-0.2939868952	-0.4327472353	-0.138852
C	-1.6905276288	 0.0997931714	-1.2613903952	-0.151766
O	-2.8256104902	-0.6936346881	-0.8757923032	-0.413751
C	-2.8793381061	-3.4672258033	-1.0886588779	 0.587908
O	-1.8298456212	-3.6600440714	-0.6271552134	-0.297346
O	-3.9331671669	-3.3284178121	-1.5625360603	-0.312846
H	 0.0287988078	 2.2089856631	 1.4631296959	 0.245473
H	-0.6888683634	 2.2863604658	-0.0392827493	 0.243472
H	-0.232895562	-1.3390604601	-0.4933174511	 0.075187
H	-1.9277582336	 1.1696358729	-1.1419024421	 0.068397
H	-1.486847802	-0.0563209356	-2.333662926	 0.089095
H	-3.5172504566	-0.5686006039	-1.534632657	 0.282096
18.2332	26.7011	44.8912	63.1963	103.3642	119.8821	154.0584	264.123	352.6929	372.0918	379.8785	425.4866	497.0951	544.8205	584.6587	665.0679	691.5669	715.4939	761.6867	808.5561	879.687	1002.0393	1014.2172	1095.3112	1141.4622	1182.8763	1238.7188	1262.2885	1331.9655	1377.0116	1415.6321	1460.8891	1509.7076	1632.2995	1635.1416	1749.9055	2431.7744	2953.9292	2973.5582	3176.2779	3527.9547	3533.1661	3638.9888	3644.0382	3803.8235
NC(=[NH2+])C(CO)C([O-])=O	[NH2]=C(N)[CH]CO.C(=O)=O	
InChI=1S/C4H8N2O3/c5-3(6)2(1-7)4(8)9/h2,7H,1H2,(H3,5,6)(H,8,9)	InChI=1S/C3H8N2O.CO2/c4-3(5)1-2-6;2-1-3/h1,6H,2,4-5H2;
