25
gdb 64356	1.79001	1.74157	1.4263	1.6695	86.95	-0.2376	0.0667	0.3043	1151.5753	0.227834	-389.506351	-389.496081	-389.495137	-389.540639	39.97	
C	 0.3583331614	 1.4813479297	-0.2954556917	-0.436791
C	-0.0319343825	 0.0222076614	 0.015276941	 0.251727
C	-1.5605329439	-0.0697105888	 0.1000338304	-0.455175
C	 0.5403061538	-0.9000614187	-1.0813154206	-0.091942
O	 1.8783005813	-1.2198336075	-0.7117392678	-0.275289
C	 2.1083943492	-0.8417408005	 0.6421848179	-0.091957
C	 0.734670841	-0.534577304	 1.2742119029	 0.251772
C	 0.8506822633	 0.4497998173	 2.4445554138	-0.455193
C	 0.1106749591	-1.8461019816	 1.7924470139	-0.436818
H	 1.4409047097	 1.6100445389	-0.3812185503	 0.123541
H	-0.0842319356	 1.7873774395	-1.2492483154	 0.1109
H	-0.0067068065	 2.1703344999	 0.4716002853	 0.113222
H	-2.0173287719	 0.3294048255	-0.8124181725	 0.11309
H	-1.9101896756	-1.0981013992	 0.2191228921	 0.116796
H	-1.9480191827	 0.519623783	 0.938562408	 0.114125
H	-0.0509400758	-1.8237085707	-1.1730751175	 0.084001
H	 0.5514230537	-0.4164942817	-2.0656842452	 0.094169
H	 2.6268174784	-1.6610264178	 1.1550167572	 0.09413
H	 2.7675098633	 0.0389293408	 0.6752204685	 0.084033
H	 1.3783625884	 1.3657882943	 2.1678788828	 0.116799
H	-0.1369682916	 0.7297767787	 2.8276494383	 0.11412
H	 1.400041697	-0.0082929315	 3.2745456812	 0.113097
H	 0.7465601366	-2.274431158	 2.5743748301	 0.110905
H	-0.8783507954	-1.6792981213	 2.2287401028	 0.113233
H	 0.0123703454	-2.5968321879	 1.0033898646	 0.123508
63.7611	139.4601	191.6967	200.2881	248.362	273.0168	286.3954	303.8266	356.5118	363.5485	368.2814	371.5146	464.0868	469.3089	568.6668	624.3714	707.5831	835.2267	893.9291	933.5981	941.1894	953.1223	955.103	967.9743	985.015	996.1566	1040.6788	1040.7615	1100.5091	1171.8676	1180.2812	1211.5105	1230.3038	1238.3607	1254.324	1270.6464	1298.7969	1371.7984	1393.7309	1401.2265	1404.9444	1416.1563	1435.1963	1481.9249	1483.5958	1487.7385	1491.8081	1505.9753	1509.941	1510.2749	1517.2023	1532.895	1538.6616	2980.946	2986.8024	3029.2113	3029.6254	3036.4035	3038.5899	3043.6551	3044.6022	3087.2336	3088.0633	3100.191	3101.0116	3112.8125	3113.5811	3115.4386	3116.2405
CC1(C)COCC1(C)C	CC1(C)COCC1(C)C	
InChI=1S/C8H16O/c1-7(2)5-9-6-8(7,3)4/h5-6H2,1-4H3	InChI=1S/C8H16O/c1-7(2)5-9-6-8(7,3)4/h5-6H2,1-4H3
