20
gdb 47544	2.62733	1.50082	1.04239	3.8745	79.14	-0.2333	0.0333	0.2666	1161.948	0.174387	-403.179073	-403.171116	-403.170171	-403.211704	31.302	
O	-0.036564072	-0.0737419341	 0.2750768256	-0.37007
C	-0.0506932703	 1.1322616939	 0.0943972936	 0.373451
C	-1.364362556	 1.8745966783	-0.154457858	-0.327686
C	-1.3830362246	 2.7443426063	-1.3970726718	-0.002919
C	-2.0108712443	 4.1182766839	-1.3598757103	-0.325953
C	-0.5113804126	 3.9735134526	-1.426831665	 0.013525
C	 0.375108188	 4.241261821	-0.2279786848	-0.235836
C	 1.5134495065	 3.2241145985	-0.1208182522	-0.137543
N	 1.1215655943	 1.8454395996	 0.1742028727	-0.298181
H	-2.131970347	 1.0998861248	-0.2074318458	 0.126985
H	-1.5859402073	 2.4771268814	 0.7334344656	 0.113919
H	-1.4757473261	 2.192281491	-2.3276628773	 0.092756
H	-2.532746694	 4.4732575301	-2.2416530092	 0.114094
H	-2.4505924768	 4.4458986477	-0.4225797078	 0.111188
H	-0.0473109961	 4.20959674	-2.3811672338	 0.084884
H	 0.8289657473	 5.2358791971	-0.3087292302	 0.105138
H	-0.2062574865	 4.2484413975	 0.6994030943	 0.10767
H	 2.0862021927	 3.2471304152	-1.0610021036	 0.10599
H	 2.2026086015	 3.5445695687	 0.670698787	 0.107718
H	 1.8959020233	 1.2179820064	 0.3448069411	 0.24087
89.7149	103.031	222.5007	281.2158	329.1079	346.6244	430.888	493.4888	519.4997	584.7393	649.4939	694.9096	768.9317	818.1534	827.4203	872.0129	915.0129	922.6838	936.5424	990.4366	1041.6831	1048.7638	1072.9155	1112.5413	1141.0059	1144.7624	1162.291	1228.1258	1241.3623	1248.2678	1282.5583	1310.5851	1348.2744	1360.8851	1392.5201	1415.3583	1432.6725	1469.1833	1488.959	1499.0688	1500.9477	1529.8783	1769.8538	2980.4261	3028.5504	3043.1905	3050.6309	3081.8096	3111.886	3126.0277	3134.1663	3151.5707	3212.1143	3587.6386
O=C1CC2CC2CCN1	O=C1C[C@H]2C[C@H]2CCN1	
InChI=1S/C7H11NO/c9-7-4-6-3-5(6)1-2-8-7/h5-6H,1-4H2,(H,8,9)	InChI=1S/C7H11NO/c9-7-4-6-3-5(6)1-2-8-7/h5-6H,1-4H2,(H,8,9)/t5-,6-/m1/s1
