16
gdb 55309	2.59587	1.51275	1.09646	3.488	64.81	-0.2446	0.0223	0.2669	1084.7111	0.123356	-475.008054	-474.999651	-474.998706	-475.041598	30.826	
N	 0.7570931175	-0.0122942848	-0.5190177639	-0.517427
C	-0.3415226021	 0.6172730814	-0.0412403971	 0.359773
O	-0.3960061311	 1.7853299177	 0.2969033805	-0.372038
C	-1.5693147152	-0.2794497821	 0.0766329786	-0.042271
O	-1.3297516934	-1.6772711619	-0.2259712638	-0.308731
C	-1.7438376446	-2.1063466644	 1.0984175858	-0.155047
C	-1.9825702581	-0.6549232169	 1.5023720916	 0.362835
C	-1.8458489551	 0.0750047266	 2.7573658263	-0.254616
O	-3.1306528812	-0.1797716995	 2.1507387949	-0.2569
H	 1.6112288627	 0.5047493744	-0.6427811153	 0.264769
H	 0.6996033474	-0.9864409551	-0.7665508547	 0.274764
H	-2.3817046975	 0.1461215463	-0.523235518	 0.127464
H	-2.651222023	-2.7193437167	 1.0651972501	 0.127087
H	-0.9478687396	-2.6454377603	 1.6243448054	 0.117009
H	-1.656013667	-0.4679393915	 3.6817411468	 0.119479
H	-1.5155406997	 1.1102961569	 2.7251323328	 0.15385
60.2838	95.3855	146.498	258.7867	302.3902	317.0503	339.0735	409.9345	461.0371	524.6328	598.8136	646.723	723.7123	835.3081	864.5544	916.4452	919.8495	950.953	1002.8605	1035.7466	1090.6214	1093.5239	1129.0583	1151.8885	1162.1983	1188.9717	1233.049	1306.8954	1323.8456	1373.7469	1451.9909	1509.7171	1540.1744	1592.3281	1797.9206	3030.2485	3056.5772	3083.2034	3095.1285	3195.5163	3594.2214	3736.3279
NC(=O)C1OCC11CO1	NC(=O)[C@H]1OC[C@]21CO2	
InChI=1S/C5H7NO3/c6-4(7)3-5(1-8-3)2-9-5/h3H,1-2H2,(H2,6,7)	InChI=1S/C5H7NO3/c6-4(7)3-5(1-8-3)2-9-5/h3H,1-2H2,(H2,6,7)/t3-,5-/m1/s1
