21
gdb 8360	5.26683	1.09112	1.06751	2.0278	78.96	-0.2235	0.0786	0.3021	1220.673	0.189607	-329.055105	-329.046992	-329.046047	-329.088155	30.759	
C	-0.0135615585	 1.5779086295	 0.0030660236	-0.379422
C	-0.0010315382	 0.0474422471	-0.0196739005	-0.164159
C	-1.4077795648	-0.565398886	 0.0222461754	-0.33399
C	-1.4090827262	-2.0764339376	 0.0000651707	 0.334208
C	-0.7772706967	-3.0828286449	 0.9986579921	-0.200701
N	-1.421807055	-4.0288420165	-0.0282029008	-0.145206
C	-2.6092984915	-3.0530434011	 0.0314628172	-0.216838
C	-0.8563367424	-3.0523025838	-1.0729240037	-0.200681
H	 1.0012670173	 1.9865937302	-0.0275339534	 0.111993
H	-0.5617639856	 1.9817884721	-0.8554160414	 0.114539
H	-0.4981706047	 1.9560659013	 0.9101442037	 0.114538
H	 0.5184380236	-0.3022915949	-0.9210411814	 0.099446
H	 0.5817220337	-0.3278167372	 0.8313220168	 0.099466
H	-1.9312411524	-0.2211636625	 0.925183812	 0.095821
H	-1.9947694977	-0.1954048352	-0.8300191996	 0.095824
H	 0.3130002892	-3.1629939485	 1.0376404818	 0.096932
H	-1.2160135966	-3.1611803573	 1.998186107	 0.095364
H	-3.1894515557	-3.1282520856	 0.9563123186	 0.095287
H	-3.2582723171	-3.1017207282	-0.8483375993	 0.095292
H	-1.3700909584	-3.1016696199	-2.0379668431	 0.095364
H	 0.2276947376	-3.130080871	-1.1972517258	 0.096924
67.0197	82.7041	130.2893	243.7055	309.2284	312.6147	371.8552	583.2036	587.0104	672.421	737.2531	779.3958	798.5339	865.4854	882.0871	913.7517	943.9648	963.306	973.2043	987.9701	1025.5026	1048.9037	1075.0219	1098.3402	1165.026	1167.9837	1170.2594	1199.1719	1200.1337	1201.4464	1263.2377	1275.9714	1307.2108	1329.5833	1344.2887	1392.5022	1412.6723	1476.6695	1491.6359	1499.0224	1508.9027	1510.9102	1511.0152	1564.6835	3003.0495	3020.6736	3029.1926	3031.6908	3037.7822	3037.8046	3049.1614	3057.4587	3096.1119	3101.3699	3101.9468	3107.7066	3108.8157
CCCC12CN(C1)C2	CCC[C@@]12CN(C1)C2	
InChI=1S/C7H13N/c1-2-3-7-4-8(5-7)6-7/h2-6H2,1H3	InChI=1S/C7H13N/c1-2-3-7-4-8(5-7)6-7/h2-6H2,1H3
