18
gdb 29276	5.3968	0.97437	0.88762	1.174	80.68	-0.2193	0.0128	0.232	1350.0166	0.14844	-401.982448	-401.974192	-401.973248	-402.015787	30.712	
C	-0.2057268419	 1.4756364754	 0.0046708785	-0.491414
C	-0.018825662	-0.0032196858	-0.0234111604	 0.247269
C	 0.1883201181	-0.8304629269	-1.0738669664	-0.127389
O	 0.3008359435	-2.1139808056	-0.5973944032	-0.188096
C	 0.151766558	-1.9897181622	 0.7470729396	 0.401255
N	-0.0389643586	-0.7695077237	 1.1432501208	-0.366532
C	 0.2207096397	-3.2006423258	 1.5684535629	-0.100822
C	-0.3228312927	-4.519253881	 1.0484956564	-0.2633
C	 1.1572495815	-4.3355380296	 1.195096662	-0.263303
H	 0.5655863245	 1.954616511	 0.6170854355	 0.137974
H	-0.1579824729	 1.8985106445	-1.0021441956	 0.121598
H	-1.1741625367	 1.7380811843	 0.4436056921	 0.137961
H	 0.2782326794	-0.70447001	-2.1388880024	 0.137362
H	 0.0897497483	-2.9859248125	 2.6214473545	 0.114099
H	-0.8443231319	-5.1535761617	 1.756088367	 0.121003
H	-0.7351637021	-4.5185757789	 0.0463798749	 0.130662
H	 1.7427675442	-4.211012927	 0.2918149411	 0.130672
H	 1.6699577416	-4.8414896144	 2.0051269429	 0.121001
57.8469	133.4587	152.88	162.6035	269.6261	293.8406	412.411	449.3243	615.4269	647.6964	704.1459	733.3978	754.8267	793.2259	827.4442	908.6259	910.9192	965.5459	1001.0297	1026.7947	1058.3762	1067.3933	1069.3564	1087.2024	1127.7256	1131.8765	1204.9501	1214.6302	1235.0948	1292.8632	1353.128	1382.2159	1418.1948	1464.8741	1475.1988	1490.7877	1497.0456	1626.7994	1643.8549	3037.1602	3092.8025	3120.5052	3141.8285	3145.0934	3198.2786	3225.7567	3241.1425	3292.2904
CC1=COC(=N1)C1CC1	Cc1coc(n1)C1CC1	
InChI=1S/C7H9NO/c1-5-4-9-7(8-5)6-2-3-6/h4,6H,2-3H2,1H3	InChI=1S/C7H9NO/c1-5-4-9-7(8-5)6-2-3-6/h4,6H,2-3H2,1H3
