20
gdb 84650	2.69298	1.61637	1.22247	1.7321	79.6	-0.214	0.0099	0.224	1069.5435	0.171613	-403.118663	-403.110313	-403.109369	-403.151092	33.245	
C	-0.1392127058	 1.6628810143	-0.1042107378	-0.403482
C	-0.0048785594	 0.1387906516	-0.0351463821	 0.037189
C	 0.5140163994	-0.4540514428	-1.3624108971	 0.07447
O	-0.265507868	 0.1007438998	-2.4144936106	-0.433277
C	 1.9947092981	-0.1809387952	-1.5248507436	-0.110854
C	 2.8119729097	-0.2446837409	-0.4758422692	-0.075032
C	 2.2550340874	-0.5901131809	 0.8570408213	-0.05374
C	 1.7712440882	 0.4756060213	 1.7818269558	-0.244188
N	 0.8209296487	-0.3907218463	 1.0832235569	-0.117517
H	 0.7971188671	 2.1522279273	-0.3875897094	 0.118441
H	-0.8887777404	 1.9221154148	-0.8542916139	 0.134655
H	-0.4625502045	 2.0610820963	 0.8619751331	 0.113957
H	-1.0108528409	-0.2663235366	 0.1282878887	 0.086787
H	 0.3578823057	-1.5447987205	-1.3194894257	 0.084908
H	-0.0551144768	-0.3740337037	-3.2242024611	 0.284666
H	 2.3551757028	 0.0605636573	-2.5216472165	 0.087955
H	 3.882269876	-0.077346846	-0.5659206397	 0.094809
H	 2.6479504637	-1.5066467665	 1.3002256343	 0.093846
H	 1.8205663841	 0.3335979524	 2.8593063746	 0.110325
H	 1.8911138048	 1.5039876743	 1.4545238118	 0.116084
89.6985	192.7429	239.3588	263.5944	291.7629	319.7845	351.2289	422.2273	435.3485	496.4864	539.6237	627.2524	708.0484	731.8755	803.2923	836.36	840.8884	919.5827	976.2343	987.6137	1002.0224	1050.3641	1070.4071	1090.4705	1106.7146	1112.7081	1121.063	1142.8276	1161.9552	1185.9826	1248.5588	1298.8695	1319.2781	1337.9868	1382.0039	1390.1032	1397.7955	1413.7784	1423.865	1491.2444	1495.6988	1513.5175	1705.1601	2954.7503	3022.488	3045.2712	3083.0318	3102.4723	3113.4864	3135.4532	3148.2223	3171.3166	3192.3065	3825.2578
CC1C(O)C=CC2CN12	C[C@H]1[C@@H](O)C=C[C@H]2CN12	
InChI=1S/C7H11NO/c1-5-7(9)3-2-6-4-8(5)6/h2-3,5-7,9H,4H2,1H3	InChI=1S/C7H11NO/c1-5-7(9)3-2-6-4-8(5)6/h2-3,5-7,9H,4H2,1H3/t5-,6-,7-,8?/m0/s1
