16
gdb 98716	2.90161	1.13255	0.94957	4.9982	71.06	-0.2845	-0.0121	0.2724	1258.1236	0.123437	-437.919332	-437.910278	-437.909334	-437.954141	31.396	
C	-0.3063566469	 1.3728956118	 0.2899854546	-0.245359
O	-0.2299240171	-0.0578044435	 0.3874261585	-0.23987
C	 0.9236435752	-0.5343912706	 0.8863131335	 0.468852
O	 1.8541620314	 0.1512224141	 1.2293621462	-0.362138
C	 0.8910306752	-2.0251951391	 0.9560148109	-0.148673
C	 2.2096367834	-2.7456115073	 1.0189690331	-0.28484
C	 1.3458463204	-2.7093501438	 2.2531788917	-0.167866
C	 1.7297509296	-1.9511799888	 3.4125391318	 0.308792
N	 2.0186032747	-1.3897311436	 4.3810709001	-0.335236
H	 0.4768322905	 1.7540748739	-0.3697327366	 0.145091
H	-1.2924161866	 1.5881438304	-0.1206402389	 0.13733
H	-0.1905094029	 1.8293685093	 1.2756628561	 0.151868
H	 0.0546291327	-2.4956815879	 0.4554405347	 0.122755
H	 2.305080899	-3.6934352011	 0.5037693803	 0.136717
H	 3.0867648112	-2.1099538877	 1.0235205196	 0.167698
H	 0.8015151001	-3.6158073563	 2.4965586446	 0.14488
46.0541	98.9	116.3837	149.9982	195.5374	237.0015	301.5967	325.9281	411.8066	537.2355	566.7444	673.895	768.9045	798.2449	835.0043	867.2533	928.1314	979.4875	1034.7747	1070.931	1101.0791	1129.8385	1148.8642	1179.7052	1202.646	1212.3758	1233.3783	1381.7019	1410.9395	1471.3725	1478.5732	1481.2326	1496.8614	1816.5047	2361.5309	3056.1186	3133.2962	3153.2333	3165.1629	3169.6811	3201.6297	3253.2578
COC(=O)C1CC1C#N	COC(=O)[C@H]1C[C@H]1C#N	
InChI=1S/C6H7NO2/c1-9-6(8)5-2-4(5)3-7/h4-5H,2H2,1H3	InChI=1S/C6H7NO2/c1-9-6(8)5-2-4(5)3-7/h4-5H,2H2,1H3/t4-,5-/m0/s1
