21
gdb 88989	3.26529	0.84642	0.76141	2.1337	78.93	-0.2479	0.0795	0.3275	1548.8259	0.181203	-424.181497	-424.171824	-424.17088	-424.216775	36.288	
O	-0.0680773548	 1.4009320961	 0.0132626686	-0.416149
C	-0.0421566816	 0.0073221564	 0.1409244902	 0.08496
C	-0.7713615265	-0.6499078537	 1.287313982	-0.322795
C	-1.3261341413	-0.7232119236	-0.1241588353	-0.005613
C	-2.5859752297	 0.0285526029	-0.5078564577	-0.224752
C	-3.8487695653	-0.7633890184	-0.2288928832	-0.005547
C	-4.5220175197	-0.707964372	 1.1309113003	-0.322773
C	-5.1731657636	-0.0745429917	-0.0744111723	 0.084922
O	-5.1809089776	 1.3191619776	-0.2033713711	-0.41613
H	 0.4753641255	 1.7723107271	 0.7155438905	 0.286451
H	 0.8806081488	-0.4596014454	-0.2047500784	 0.080968
H	-0.3489413993	-1.5388273139	 1.7436094338	 0.105399
H	-1.2806826624	 0.0161118016	 1.9764153647	 0.109467
H	-1.2104454876	-1.683658147	-0.6218188599	 0.080124
H	-2.6227322754	 0.9882626879	 0.0109601296	 0.117512
H	-2.545375355	 0.2701921429	-1.5783110662	 0.101596
H	-3.8914119214	-1.7270868684	-0.7318608622	 0.080115
H	-4.9524754576	-1.6100675087	 1.5525098181	 0.105376
H	-4.0940225531	-0.0258665936	 1.8585107919	 0.109466
H	-6.0483243017	-0.5708015603	-0.4949168347	 0.080953
H	-5.7952448608	 1.672895014	 0.4477204314	 0.28645
44.9052	71.952	108.1418	203.8487	241.3636	279.6153	302.2233	304.8172	367.6787	445.134	464.9338	546.3104	580.9404	764.3003	774.6115	829.387	835.4484	874.0545	875.6975	914.5911	966.9918	991.8104	1006.1343	1040.754	1054.7273	1074.002	1104.1012	1132.0738	1139.0978	1175.1855	1181.3258	1190.0721	1237.0409	1241.9756	1247.9428	1302.1214	1302.6396	1322.3598	1387.7893	1405.6849	1425.5049	1428.4201	1484.3194	1486.3872	1497.6299	3023.9777	3089.898	3090.2272	3109.8428	3124.9027	3128.5673	3128.8598	3135.492	3214.7494	3216.6508	3809.7831	3809.8647
OC1CC1CC1CC1O	O[C@H]1C[C@H]1C[C@H]1C[C@H]1O	
InChI=1S/C7H12O2/c8-6-2-4(6)1-5-3-7(5)9/h4-9H,1-3H2	InChI=1S/C7H12O2/c8-6-2-4(6)1-5-3-7(5)9/h4-9H,1-3H2/t4-,5+,6+,7-
