16
gdb 33342	5.10462	0.75345	0.71854	5.6977	87.91	-0.2765	-0.0382	0.2383	1541.2322	0.12523	-363.571437	-363.56351	-363.562566	-363.60468	29.457	
N	-0.0005999492	-3.7784539277	-0.128706896	-0.340768
C	 0.0044392466	-2.6169683901	-0.0882768349	 0.205182
C	 0.0102730844	-1.2534942757	-0.0398677266	-0.005065
C	 0.013707256	-0.0442191351	 0.0007561053	 0.155156
C	 0.0303293965	 1.400990313	 0.0694869876	-0.211423
C	-0.2120289313	 2.0919456795	 1.4707036716	-0.247553
C	 1.1398989952	 2.7981113003	 1.3321641872	-0.034894
C	 2.2396973709	 1.7855931217	 1.1912376167	-0.277352
C	 1.3999046072	 2.1126991871	-0.0093347977	-0.047391
H	-0.6672546107	 1.8047750658	-0.6699616592	 0.122754
H	-1.0720142114	 2.7622272022	 1.4332219272	 0.119748
H	-0.3198993461	 1.4178623371	 2.3244688121	 0.11677
H	 1.3341145153	 3.8252047737	 1.6132457343	 0.097995
H	 3.2458475099	 2.1903692503	 1.1640668357	 0.12248
H	 2.1632655025	 0.8128598697	 1.6711071397	 0.122665
H	 1.8201028242	 2.5086072283	-0.924990443	 0.101696
67.599	86.2649	170.8686	224.3196	301.2251	398.5859	445.9222	515.9618	571.6939	589.7535	660.4595	738.626	784.4259	801.4634	899.24	927.241	961.3057	966.9099	1006.7539	1030.7847	1061.8992	1077.143	1090.7454	1134.1017	1186.5674	1203.5355	1211.4331	1259.4969	1290.9768	1335.0195	1364.3105	1482.3779	1498.237	2258.3477	2392.9026	3065.2419	3067.2853	3115.7844	3127.7247	3189.5262	3196.4764	3210.8722
N#CC#CC1CC2CC12	N#CC#C[C@H]1C[C@H]2C[C@@H]12	
InChI=1S/C8H7N/c9-3-1-2-6-4-7-5-8(6)7/h6-8H,4-5H2	InChI=1S/C8H7N/c9-3-1-2-6-4-7-5-8(6)7/h6-8H,4-5H2/t6-,7-,8-/m0/s1
