13
gdb 16104	4.80341	1.73853	1.48527	4.5903	63.65	-0.2729	-0.0331	0.2398	823.7475	0.096189	-361.458966	-361.452652	-361.451708	-361.489342	24.088	
N	 0.0285977786	-1.1641729089	-0.1232958261	-0.331143
C	 0.0474600641	-0.0125770891	-0.0270200654	 0.220086
C	 0.0410211185	 1.4198173707	 0.1260837852	 0.282865
O	 0.3839447351	 2.186901194	-1.052745793	-0.276655
C	 1.2569409962	 2.2705823553	 0.0699958365	-0.021231
C	 1.0176593952	 3.4702261631	 0.9772158273	-0.297685
C	-0.4005640153	 3.2586025987	 1.4671129465	-0.071583
C	-0.9297593103	 2.1144582477	 1.0289826564	-0.145374
H	 2.2508536493	 1.8594345046	-0.0795099598	 0.124533
H	 1.7381423111	 3.4902924409	 1.8038796659	 0.129618
H	 1.1312203789	 4.4127395981	 0.4288081906	 0.141093
H	-0.9176063253	 3.9898799592	 2.0770791677	 0.119346
H	-1.918084386	 1.7285040058	 1.2376976982	 0.126129
154.4273	162.8641	303.2445	385.7463	481.6045	521.9342	556.9561	602.9895	721.4306	740.6334	792.3768	875.3663	909.8862	934.1573	954.0478	984.618	993.8021	1061.0937	1137.6835	1185.9736	1204.9803	1284.2477	1310.4456	1347.1014	1413.1234	1456.0995	1660.5546	2362.7684	3038.0626	3074.3184	3166.2494	3205.1254	3238.0456
N#CC12OC1CC=C2	N#C[C@]12O[C@H]1CC=C2	
InChI=1S/C6H5NO/c7-4-6-3-1-2-5(6)8-6/h1,3,5H,2H2	InChI=1S/C6H5NO/c7-4-6-3-1-2-5(6)8-6/h1,3,5H,2H2/t5-,6-/m0/s1
