17
gdb 70036	3.4627	1.51709	1.30728	0.5214	66.75	-0.2489	0.0737	0.3226	981.9169	0.136738	-458.919304	-458.912028	-458.911084	-458.950851	28.726	
O	-0.0649690015	 1.4265269162	 0.0477272726	-0.462959
C	-0.0004901526	 0.0472470377	 0.0213857556	 0.377194
C	-0.2877874113	-0.7739913075	-1.1970802015	-0.354394
C	-1.176942171	-0.9369905305	 0.0136747555	-0.133873
C	-0.4687797514	-1.7959124892	 1.0699059888	 0.078271
O	 0.1134706349	-3.017143299	 0.6335552096	-0.262305
C	 1.4967193272	-2.8944712694	 0.9009231858	 0.019906
O	 1.8539896178	-1.5358938629	 0.7163565122	-0.266558
C	 0.708352729	-0.7900618287	 1.0996028911	-0.008456
H	 0.635848632	 1.7736028599	-0.515476537	 0.291263
H	-0.7466986673	-0.2079808786	-2.0011922917	 0.116907
H	 0.3714470957	-1.5768889573	-1.5086771251	 0.128335
H	-2.2397092538	-0.7368571782	-0.018685815	 0.098187
H	-1.0246861897	-1.9276028323	 2.0028450331	 0.083606
H	 1.7197131969	-3.2112296988	 1.9352927827	 0.088885
H	 2.0537562675	-3.5112683614	 0.189675306	 0.120285
H	 0.8634230175	-0.2438724298	 2.0352602974	 0.085705
130.0352	182.821	249.3569	278.7556	299.3991	383.8154	500.1158	535.0402	609.9058	708.8148	716.3663	795.2529	828.2298	892.4199	917.8548	948.8328	977.4063	985.9253	1005.5612	1022.4049	1053.5642	1070.2556	1085.263	1108.7734	1171.1993	1211.9846	1225.1713	1230.897	1233.2763	1288.0378	1322.6264	1328.3017	1340.1349	1413.1982	1426.2727	1492.5911	1540.4489	2944.5468	3057.6892	3069.0551	3086.9304	3132.6221	3204.0143	3222.6439	3793.2025
OC12CC1C1OCOC21	O[C@]12C[C@H]1[C@H]1OCO[C@@H]21	
InChI=1S/C6H8O3/c7-6-1-3(6)4-5(6)9-2-8-4/h3-5,7H,1-2H2	InChI=1S/C6H8O3/c7-6-1-3(6)4-5(6)9-2-8-4/h3-5,7H,1-2H2/t3-,4+,5+,6+/m0/s1
