14
gdb 127273	3.36699	1.43544	1.01286	6.0773	70.97	-0.2362	-0.0593	0.1769	1093.54	0.101499	-470.002954	-469.995375	-469.994431	-470.035195	27.992	
C	-0.0085007305	 1.4613639314	 0.0094706218	-0.327881
N	-0.0503690623	 0.0034557912	 0.0013413776	 0.008775
C	-1.2491893759	-0.6671623056	 0.0046400717	-0.065466
C	-1.2106872851	-2.0207296282	-0.0029844706	 0.217461
O	-2.2757655535	-2.8189078561	-0.0011414483	-0.408302
C	 0.0870682135	-2.6831792862	-0.0141966235	 0.368928
O	 0.1267386862	-3.9101078135	-0.0210315708	-0.401016
N	 1.2264016627	-1.8791942738	-0.0164099864	-0.280166
N	 1.1410487348	-0.598639795	-0.0088791924	-0.063019
H	 1.0403544822	 1.7527731087	 0.0034545507	 0.176874
H	-0.5105927736	 1.8598248679	-0.8768561054	 0.153818
H	-0.4974553663	 1.8496057358	 0.9076152034	 0.153847
H	-2.1538962393	-0.0734093771	 0.0131493335	 0.151431
H	-1.8791712729	-3.7172019196	-0.0083388015	 0.314717
101.5315	142.3342	192.2987	293.9766	345.0695	358.9919	407.5647	484.282	532.8349	596.191	625.0278	713.5754	738.878	811.1256	847.7717	862.4156	979.3161	1078.3523	1152.2863	1176.6668	1200.8596	1275.3183	1343.792	1378.5752	1433.9035	1465.2425	1484.9233	1498.0061	1517.6295	1703.0141	1730.8863	3047.8201	3114.037	3178.0624	3216.0321	3524.24
CN1C=C(O)C(=O)N=N1	Cn1cc(O)c(=O)nn1	
InChI=1S/C4H5N3O2/c1-7-2-3(8)4(9)5-6-7/h2,8H,1H3	InChI=1S/C4H5N3O2/c1-7-2-3(8)4(9)5-6-7/h2,8H,1H3
