18
gdb 94904	2.84173	1.67006	1.24559	4.4737	72.49	-0.2406	0.0321	0.2727	1023.9747	0.15031	-439.101957	-439.094487	-439.093543	-439.133828	29.183	
O	 0.1190795282	 1.433313761	-0.0636856329	-0.422074
C	 0.0871148815	 0.0206619433	 0.002819872	 0.053224
C	 0.4470228064	-0.5094987848	 1.4177672418	-0.10671
O	-0.755450103	-0.431904483	 2.2137817962	-0.256806
C	-1.7916845955	-0.2721749643	 1.365464242	 0.457456
N	-2.9782191546	 0.0680446151	 1.6339141519	-0.323543
C	-3.6423185961	 0.2294629843	 0.3209512349	-0.157203
C	-2.509092512	 0.3442440365	-0.7555782007	-0.266377
C	-1.3757410149	-0.4310411852	-0.0759931199	-0.104608
H	 1.0230829525	 1.7295645907	 0.0803575967	 0.289452
H	 0.7342564407	-0.4322062007	-0.7600945103	 0.074221
H	 0.7877151176	-1.5517766874	 1.3787808435	 0.113329
H	 1.2140711255	 0.0958849346	 1.9094692722	 0.114361
H	-4.2945346476	-0.6330220346	 0.1260016874	 0.101501
H	-4.2844946306	 1.1148750615	 0.3426000836	 0.110114
H	-2.8012149184	-0.0563866331	-1.7287595684	 0.096725
H	-2.2162433607	 1.3890571743	-0.8824799869	 0.132257
H	-1.3911193292	-1.4961133983	-0.3446566929	 0.094683
116.1905	154.0666	249.1238	272.6492	285.6023	375.4169	467.686	499.2328	621.5205	648.6321	718.2773	798.336	817.3418	848.7223	857.4302	921.4225	972.6635	982.5704	1003.1597	1015.4653	1064.6793	1107.3667	1140.6868	1178.2419	1182.8427	1214.5539	1232.8587	1254.4765	1288.2791	1300.9982	1322.9891	1325.8026	1363.2959	1399.1109	1433.5027	1488.538	1500.0288	1508.9016	1773.3582	3009.0715	3013.7326	3019.7365	3034.0244	3071.6115	3080.0869	3092.6359	3125.95	3825.6142
OC1COC2=NCCC12	O[C@H]1CO[C]2[N]CC[C@@H]12	
InChI=1S/C6H9NO2/c8-5-3-9-6-4(5)1-2-7-6/h4-5,8H,1-3H2	InChI=1S/C6H9NO2/c8-5-3-9-6-4(5)1-2-7-6/h4-5,8H,1-3H2/t4-,5-/m0/s1
