14
gdb 21149	3.55989	1.96672	1.28727	2.2606	62.84	-0.2338	-0.0366	0.1972	908.7032	0.105795	-411.989523	-411.981283	-411.980338	-412.023869	27.009	
C	-0.0762681433	 1.4169672152	 0.0487456601	-0.327314
N	-0.0289614345	-0.0363217732	-0.0094358399	-0.378987
C	 0.5537716365	-0.5875754243	-0.9783630342	 0.561686
O	 1.1906682298	-0.0410133314	-2.0626286674	-0.254316
N	 1.6565009343	-1.1243506641	-2.8790392852	-0.008993
N	 1.3362798663	-2.194489161	-2.3227837316	-0.040668
N	 0.6822621379	-1.9556003746	-1.1781611572	-0.090738
C	 0.1665105036	-3.0010562872	-0.3245323697	-0.326271
H	 0.7675379774	 1.8063329116	 0.6329147154	 0.127719
H	-0.0517588813	 1.8969676121	-0.9377257698	 0.125539
H	-0.9934000712	 1.7208456439	 0.5609691562	 0.126483
H	 0.4495675851	-3.9587955825	-0.7598737249	 0.16388
H	 0.5888982372	-2.9035304663	 0.6788623181	 0.161706
H	-0.922150638	-2.9262720983	-0.2543783899	 0.160276
31.5076	53.117	132.5866	181.1791	192.272	270.5046	300.3485	540.648	644.9499	650.2137	714.7702	726.9404	785.8871	991.4833	1062.6001	1080.9966	1119.3874	1138.2245	1159.925	1180.8953	1332.5673	1411.1392	1447.342	1454.8341	1471.2435	1492.0667	1503.6844	1515.0527	1523.0587	1815.422	3008.006	3054.7507	3062.7166	3098.1673	3119.6011	3170.7006
CN=C1ON=NN1C	CN=c1onnn1C	
InChI=1S/C3H6N4O/c1-4-3-7(2)5-6-8-3/h1-2H3	InChI=1S/C3H6N4O/c1-4-3-7(2)5-6-8-3/h1-2H3
