20
gdb 55860	3.02146	1.0374	0.98769	2.1785	75.92	-0.2533	0.0556	0.3089	1324.2166	0.168758	-440.325161	-440.315019	-440.314075	-440.360808	37.189	
C	-0.125038283	 1.4229392959	 0.4499813081	-0.458418
C	 0.0709469613	-0.0484346026	 0.1451351161	 0.319575
C	-1.1626444631	-0.7638474903	-0.3694806584	-0.450048
C	 1.4297338024	-0.4943907011	-0.3786938525	-0.373342
C	 1.0053408004	-0.8492772223	 1.0125771178	 0.112067
O	 1.7269329599	-0.2115525143	 2.0485048689	-0.264542
C	 1.118434591	-0.2319965907	 3.2677503509	 0.493554
N	 1.8900847294	 0.4419086618	 4.1730560921	-0.565426
O	 0.0518730097	-0.7473591755	 3.4996337115	-0.394615
H	 0.784351534	 1.8766921226	 0.8509364377	 0.120444
H	-0.4074421872	 1.9709025048	-0.456019025	 0.112034
H	-0.9228731603	 1.561591141	 1.1882720068	 0.126676
H	-1.5056927158	-0.324722416	-1.3136979513	 0.113153
H	-0.9662977726	-1.8254975229	-0.5501933356	 0.1112
H	-1.9822932262	-0.6941470653	 0.3540851022	 0.128337
H	 1.482776507	-1.2867945382	-1.1179219385	 0.111159
H	 2.2002236126	 0.2635753583	-0.4722658309	 0.117243
H	 0.7355081926	-1.8713427052	 1.2551244168	 0.108429
H	 2.8522439421	 0.6259024196	 3.9445912492	 0.264194
H	 1.6536940856	 0.3068300703	 5.1409306842	 0.268326
32.2679	78.375	115.6013	195.3232	218.9469	241.4842	292.6995	332.0334	358.1415	362.8367	403.0534	464.0988	505.5206	547.7451	664.5352	726.1405	782.3416	803.7628	861.5685	914.1048	950.5527	975.0977	1014.3839	1041.3361	1055.8933	1082.5116	1114.3793	1135.8545	1155.8399	1185.5706	1282.1262	1329.809	1357.2225	1406.5707	1421.4507	1422.6855	1482.2595	1485.6016	1490.4581	1502.5949	1514.0738	1611.359	1839.8583	3023.3469	3030.2976	3086.587	3089.1983	3099.2316	3119.5224	3129.4444	3167.2105	3217.2428	3613.3887	3742.4785
CC1(C)CC1OC(N)=O	CC1(C)C[C@H]1OC(=O)N	
InChI=1S/C6H11NO2/c1-6(2)3-4(6)9-5(7)8/h4H,3H2,1-2H3,(H2,7,8)	InChI=1S/C6H11NO2/c1-6(2)3-4(6)9-5(7)8/h4H,3H2,1-2H3,(H2,7,8)/t4-/m1/s1
