14
gdb 49838	1.95372	1.72084	1.10628	3.6345	68.87	-0.2571	-0.0452	0.2119	1079.2952	0.098562	-436.671593	-436.663046	-436.662102	-436.705429	30.43	
O	 0.0715749673	-0.1058197751	-0.0934662336	-0.240414
C	 0.0280843888	 1.0884568771	 0.0430459963	 0.159884
C	 1.2555083998	 1.9746164408	-0.0055066968	-0.072092
N	 2.4817022919	 1.311712614	-0.4279742144	-0.318752
C	 2.5919356149	 1.9596172471	-1.6380674523	 0.442772
O	 3.3188501824	 1.8367018709	-2.5772102526	-0.3313
C	 1.3859310143	 2.9071467287	-1.2723728492	-0.373091
C	 0.2824238582	 2.9565292209	-2.2017514907	 0.339165
C	-0.6348649784	 2.9812883495	-2.9779507095	-0.439812
H	-0.9216319874	 1.6267940565	 0.246411134	 0.097971
H	 1.3338584637	 2.5182079062	 0.9455293289	 0.115551
H	 2.79414548	 0.3827499038	-0.1820524221	 0.268556
H	 1.7348364704	 3.9100206206	-1.0105715918	 0.140508
H	-1.4385444158	 3.0027067892	-3.6722444364	 0.211054
72.6705	82.6736	128.1223	173.431	245.724	330.3937	370.2032	431.2159	485.4415	554.3341	630.7712	663.103	678.3926	716.5555	741.263	815.325	870.094	947.3328	1018.5752	1089.3272	1094.586	1130.6788	1174.8415	1244.2003	1314.579	1348.8424	1378.3303	1415.5606	1832.2593	1919.3367	2239.5515	2915.0301	3023.9474	3077.5438	3501.1719	3608.3994
O=CC1NC(=O)C1C#C	O=C[C@H]1NC(=O)[C@H]1C#C	
InChI=1S/C6H5NO2/c1-2-4-5(3-8)7-6(4)9/h1,3-5H,(H,7,9)	InChI=1S/C6H5NO2/c1-2-4-5(3-8)7-6(4)9/h1,3-5H,(H,7,9)/t4-,5+/m0/s1
