13
gdb 20337	5.75653	2.10883	1.77522	5.1866	63.19	-0.2508	-0.0139	0.2369	712.158	0.098123	-357.564652	-357.559234	-357.55829	-357.594114	21.221	
C	-0.076042031	 1.4057702786	-0.1105454885	-0.268866
C	 1.2990453171	 0.8351731476	 0.1058947938	-0.003638
C	 0.080111032	-0.0891857232	 0.1412683252	-0.210186
C	 0.6313135384	-0.7087608175	-1.1332198182	 0.248748
C	 0.6244130159	-1.2146275599	-2.4103115868	-0.174424
N	 1.7163395201	-0.6782790587	-3.0573462884	-0.178314
N	 2.3462015236	 0.1789023227	-2.2928300596	-0.167357
N	 1.7202373393	 0.0952335445	-1.1020413698	 0.078151
H	-0.4727859778	 1.9841051244	 0.720117481	 0.134458
H	-0.3624761614	 1.7602463164	-1.0951195867	 0.149488
H	 1.9996838162	 1.1120316015	 0.8798440553	 0.138717
H	-0.3422589021	-0.599373089	 0.9938230374	 0.1263
H	-0.0203811303	-1.9202001072	-2.9059748046	 0.126922
138.2997	296.3735	437.9964	489.4808	676.3988	706.5152	722.2484	784.0335	808.9798	837.416	861.2048	930.3506	993.4906	1005.7841	1010.0373	1042.0657	1091.6123	1096.4118	1111.6505	1165.5514	1201.8817	1247.725	1254.6826	1290.818	1322.1011	1434.1852	1473.7765	1549.3537	3122.6635	3215.187	3229.4251	3238.7887	3284.7207
C1C2C1C1=CN=NN21	C1[C@H]2[C@@H]1c1cnnn21	
InChI=1S/C5H5N3/c1-3-4(1)8-5(3)2-6-7-8/h2-4H,1H2	InChI=1S/C5H5N3/c1-3-4(1)8-5(3)2-6-7-8/h2-4H,1H2/t3-,4+/m1/s1
