20
gdb 107157	4.14642	0.99664	0.93245	2.2544	80.17	-0.2387	0.0739	0.3126	1313.1221	0.171286	-403.084144	-403.075575	-403.074631	-403.117407	33.254	
O	 0.1598263246	 1.35478398	 0.2095311461	-0.412866
C	 0.0571364337	-0.0331970921	-0.0843663364	-0.172063
C	-1.3627100397	-0.5107241944	-0.1211483777	 0.336909
C	-2.099126379	-0.9827912393	 1.1064255601	-0.342455
C	-1.9038508319	-1.9474839974	-0.0388332641	-0.208389
C	-2.8840301545	-1.6258839769	-1.1452178886	 0.38393
C	-3.3001165592	-2.5206810563	-2.2416464048	-0.318865
N	-4.282448628	-2.0377898359	-1.2445626673	-0.365504
C	-2.3788549434	-0.171660545	-1.2294622802	-0.361865
H	-0.3125514022	 1.5064946452	 1.0350465347	 0.281502
H	 0.5285677675	-0.1557466464	-1.0660777334	 0.109327
H	 0.6332266456	-0.6408513907	 0.6333358108	 0.08257
H	-1.4797533851	-1.1804064198	 1.9770122883	 0.109963
H	-3.0910209473	-0.6028963809	 1.3387888362	 0.117198
H	-1.3562986921	-2.8762111649	 0.0799093687	 0.088909
H	-3.4387802373	-2.1285917269	-3.2461645734	 0.118536
H	-2.9843236588	-3.5610431328	-2.2032354797	 0.10967
H	-4.4793287697	-2.7716029472	-0.5671224509	 0.228045
H	-3.1094869487	 0.6081132083	-0.9971810424	 0.106221
H	-1.9029685542	 0.0565210631	-2.1870786762	 0.109225
78.6424	97.1331	182.2282	269.5945	285.9011	333.5303	350.9553	400.9437	406.437	483.1067	570.4297	708.6778	789.175	817.6689	850.7611	889.2184	919.2391	934.1114	947.36	963.356	986.1871	1011.6756	1013.2155	1045.2805	1062.9435	1082.2064	1104.0664	1129.6667	1138.1851	1185.7342	1226.2931	1232.6074	1263.9277	1283.6483	1303.2602	1365.2477	1391.9819	1428.1995	1430.1757	1477.5975	1493.3958	1505.0191	1516.6368	2965.0927	3054.9797	3061.3931	3096.8917	3105.9921	3107.9113	3168.9448	3180.6358	3193.0162	3487.0687	3808.1648
OCC12CC1C1(CN1)C2	OC[C@]12C[C@H]1[C@]1(CN1)C2	
InChI=1S/C7H11NO/c9-4-6-1-5(6)7(2-6)3-8-7/h5,8-9H,1-4H2	InChI=1S/C7H11NO/c9-4-6-1-5(6)7(2-6)3-8-7/h5,8-9H,1-4H2/t5-,6-,7-/m1/s1
