16
gdb 49665	2.81037	1.70229	1.60703	4.599	67.93	-0.2459	0.0175	0.2635	900.8378	0.125363	-437.862161	-437.855229	-437.854285	-437.893539	26.97	
O	 0.2484266069	 0.3224803485	-0.734250439	-0.308887
C	 0.2515124065	 1.466639902	-0.3524029567	 0.165079
N	 1.285648959	 2.0334033036	 0.377935784	-0.057078
C	 2.7009822767	 1.9141943068	 0.158160723	-0.04599
C	 3.2053276242	 1.6545740638	-1.2644385414	-0.2734
C	 2.7757237568	 2.8650404149	-2.0855731153	 0.035997
O	 1.3591077394	 3.0663583838	-2.1884354773	-0.236527
C	 2.076969027	 3.8334348717	-1.2203092799	 0.027438
C	 2.0068244476	 3.2683054715	 0.1889104822	-0.094452
H	-0.6092486894	 2.151710084	-0.4484920241	 0.087718
H	 3.2813539807	 1.5382746192	 0.9965150553	 0.108365
H	 4.2984203946	 1.5906456992	-1.2583561748	 0.113796
H	 2.8100047984	 0.7199622992	-1.6714694738	 0.157416
H	 3.3383389696	 3.151813495	-2.9709651706	 0.107439
H	 2.0843181986	 4.9086268704	-1.3718835499	 0.10841
H	 2.0591190134	 3.9507540464	 1.0315373481	 0.104674
115.9914	152.3416	261.9761	319.0083	350.481	421.4563	553.357	632.677	715.7588	746.9412	781.7069	831.4438	857.7053	877.4303	900.2439	950.9217	1000.6202	1023.4647	1027.2461	1047.7494	1062.8828	1092.8072	1104.5378	1136.7932	1213.9878	1256.525	1292.8687	1312.3692	1326.6054	1350.59	1417.6276	1423.66	1442.7845	1468.1107	1796.3077	2977.93	3059.0046	3111.041	3141.202	3145.0128	3156.8711	3170.0361
O=CN1C2CC3OC3C12	O=CN1[C@H]2C[C@H]3O[C@H]3[C@@H]12	
InChI=1S/C6H7NO2/c8-2-7-3-1-4-6(9-4)5(3)7/h2-6H,1H2	InChI=1S/C6H7NO2/c8-2-7-3-1-4-6(9-4)5(3)7/h2-6H,1H2/t3-,4+,5-,6+,7?/m0/s1
