20
gdb 31607	2.72974	1.24052	0.91974	2.9381	84.06	-0.1758	0.0389	0.2146	1324.735	0.171813	-399.37547	-399.365663	-399.364719	-399.410551	35.524	
C	-0.1378220602	 1.5103239672	 0.0028950604	-0.373392
C	 0.0832287256	-0.0133960892	 0.0077954572	-0.295667
C	 0.7759192856	-0.5133617804	 1.2367163184	 0.334824
N	 2.0773947059	-0.7432742276	 1.3089448341	-0.358985
C	 2.3214678782	-1.1428322013	 2.5966129113	 0.274313
N	 3.6310317164	-1.406947567	 3.011323675	-0.599178
C	 1.1554942417	-1.1611424625	 3.3210518693	-0.21859
N	 0.1650338543	-0.7572046288	 2.4311702142	-0.022136
C	-1.2319571668	-0.6038009592	 2.7744329795	-0.341906
H	 0.8164890964	 2.0332047586	 0.1110319642	 0.13663
H	-0.6028521162	 1.8322957976	-0.9342420471	 0.112557
H	-0.7870391796	 1.8262185651	 0.8260751304	 0.11213
H	-0.8751948373	-0.5274813569	-0.1349038503	 0.100621
H	 0.716829744	-0.292035148	-0.8383745974	 0.130426
H	 4.220092257	-1.599540767	 2.2110892012	 0.24513
H	 3.6972894059	-2.1605941832	 3.682279395	 0.237442
H	 0.9283344925	-1.4132421639	 4.343075328	 0.105842
H	-1.3942596344	 0.2717136348	 3.4137064059	 0.138406
H	-1.8255655942	-0.4844976352	 1.8675664039	 0.143665
H	-1.5898140348	-1.4915122131	 3.305238087	 0.137867
54.3498	76.2844	137.3065	163.6358	211.4226	224.4897	290.3338	300.5142	321.061	400.1504	496.1135	605.4313	626.8532	635.3844	675.4657	729.1051	765.8006	784.2926	825.6864	972.7445	1029.0267	1065.7701	1076.5577	1084.7018	1108.846	1149.9453	1202.4632	1228.2464	1290.1356	1347.808	1361.6751	1406.7559	1417.927	1449.6085	1477.6557	1484.6135	1496.217	1498.9278	1505.3135	1528.3403	1541.6138	1620.9379	1649.5101	3029.6835	3032.3318	3036.7448	3087.3536	3090.9856	3108.4572	3120.6142	3145.4267	3270.7558	3539.9766	3635.8528
CCC1=NC(N)=CN1C	CCc1nc(N)cn1C	
InChI=1S/C6H11N3/c1-3-6-8-5(7)4-9(6)2/h4H,3,7H2,1-2H3	InChI=1S/C6H11N3/c1-3-6-8-5(7)4-9(6)2/h4H,3,7H2,1-2H3
