20
gdb 22407	5.96469	0.64161	0.61325	1.4783	81.16	-0.2409	0.0079	0.2488	1823.0161	0.168503	-440.220083	-440.210117	-440.209172	-440.25656	35.383	
C	-0.2491871028	 1.3649490156	 0.354916533	-0.226225
O	-0.1033296815	-0.0264697405	 0.2030062352	-0.232448
C	-1.3135648904	-0.6777578654	-0.1131595848	-0.064871
C	-1.0443787168	-2.1631189992	-0.23116052	 0.006684
C	-0.6775303095	-2.9050472971	 1.0984765516	-0.323101
C	-1.846929725	-3.8310092396	 0.8368768219	 0.423324
C	-2.3068363747	-3.0718702744	-0.3921153159	-0.352711
N	-2.2122090169	-4.8803522998	 1.4429762092	-0.228799
O	-3.3489939427	-5.4434753443	 0.8279934813	-0.39642
H	 0.734791947	 1.7735395638	 0.5974141287	 0.128021
H	-0.6139991007	 1.8412881187	-0.5690916187	 0.103659
H	-0.9489752262	 1.6172078036	 1.1676910288	 0.103768
H	-2.0685516414	-0.4905279965	 0.6724797266	 0.081336
H	-1.7301635842	-0.2872684263	-1.058679929	 0.086434
H	-0.3021775709	-2.3335388175	-1.0143668098	 0.087138
H	 0.3065572136	-3.3785908454	 1.1334967413	 0.124592
H	-0.7882237251	-2.282327011	 1.9922937254	 0.123429
H	-3.2625882632	-2.5531386043	-0.254949852	 0.122308
H	-2.3739984646	-3.6648656393	-1.3079304426	 0.128377
H	-3.506648234	-6.222113591	 1.3723412099	 0.305504
18.6326	78.0061	98.8468	155.9259	203.7501	230.036	248.9498	324.0853	359.8393	397.6398	455.3603	470.0705	533.5602	709.9465	786.4088	809.8079	906.7465	918.5518	955.0788	978.814	1008.9321	1051.8969	1085.5619	1123.0715	1159.3138	1177.6887	1182.8908	1207.4157	1217.7412	1228.2838	1255.6301	1263.6295	1285.248	1352.3481	1402.1027	1424.5873	1450.1489	1468.7011	1481.5622	1485.5128	1502.5249	1525.0703	1783.8368	2932.9504	2962.3283	2969.6631	3012.0701	3044.224	3055.0279	3080.9728	3101.4252	3108.2321	3114.2521	3819.5196
COCC1CC(C1)=NO	COC[C@H]1CC(=NO)C1	
InChI=1S/C6H11NO2/c1-9-4-5-2-6(3-5)7-8/h5,8H,2-4H2,1H3	InChI=1S/C6H11NO2/c1-9-4-5-2-6(3-5)7-8/h5,8H,2-4H2,1H3/t5-
