17
gdb 35514	3.20511	1.5203	1.41398	1.5913	72.95	-0.2431	0.0353	0.2784	973.2717	0.136992	-421.785122	-421.777916	-421.776971	-421.816708	28.819	
C	-0.1102505774	-1.2309820516	-0.1620621655	-0.43881
C	-0.0465899493	-0.0360889489	-0.0562168108	 0.347961
C	 0.0091097026	 1.4157619172	 0.0338293434	-0.098786
O	-0.5678484716	 1.8973141234	 1.27809569	-0.288306
C	 0.4680933819	 2.658346333	 1.9196541927	 0.073984
C	 1.5670548059	 1.6800798308	 2.3538271917	-0.082528
O	 2.1776560914	 1.3088402268	 1.0966474153	-0.273664
C	 1.4448052444	 2.0051866627	 0.0907302694	 0.074698
C	 1.1548405029	 3.36481977	 0.7416995515	-0.248243
H	-0.1574331448	-2.2886088433	-0.2459646966	 0.197593
H	-0.5551983075	 1.8530910765	-0.8021080671	 0.106749
H	 0.0209649218	 3.260851608	 2.7091520384	 0.089152
H	 2.3197871898	 2.1361458578	 3.0091962975	 0.100232
H	 1.1438070128	 0.7955026319	 2.8392438826	 0.119992
H	 1.9961799664	 1.9679552961	-0.8473311211	 0.094318
H	 0.4735210841	 4.0057387884	 0.1796769719	 0.112748
H	 2.0684551565	 3.9016176813	 1.0029754168	 0.112908
100.1131	147.5238	253.7781	346.2191	407.1919	460.599	514.9478	537.9636	621.1617	636.3406	667.3262	796.7655	823.1183	843.3686	862.3813	914.5403	936.8728	949.4965	971.4991	973.301	1018.786	1046.3854	1070.7492	1095.95	1141.9878	1194.4517	1222.5307	1262.8437	1282.6858	1292.3241	1310.3791	1337.2567	1359.2731	1379.3716	1482.6887	1511.9318	2241.2767	3000.9243	3022.5729	3081.7294	3086.2311	3135.1576	3142.9725	3144.2925	3503.3466
C#CC1OC2COC1C2	C#C[C@H]1O[C@H]2CO[C@@H]1C2	
InChI=1S/C7H8O2/c1-2-6-7-3-5(9-6)4-8-7/h1,5-7H,3-4H2	InChI=1S/C7H8O2/c1-2-6-7-3-5(9-6)4-8-7/h1,5-7H,3-4H2/t5-,6-,7-/m1/s1
