14
gdb 10128	2.99039	1.5034	1.17139	4.4845	56.	-0.276	-0.0496	0.2264	1005.449	0.104027	-456.829588	-456.821087	-456.820142	-456.863299	28.621	
O	 0.0984497079	 1.4170825071	 0.1255167677	-0.41219
C	 0.0662702675	 0.0156172957	-0.0181467992	-0.08222
C	-1.3710121603	-0.5055315909	 0.0077216992	-0.02033
O	-1.8845561114	-0.1970548768	 1.2981927746	-0.201328
C	-3.0952565461	-0.704999626	 1.6460804095	 0.188995
O	-3.6190416789	-0.4274249809	 2.6788615792	-0.266344
C	-2.2075577184	 0.149348248	-1.0904203375	 0.167989
O	-3.2943360858	 0.6237507593	-0.9054587611	-0.22798
H	-0.3428158317	 1.6289614247	 0.9569158217	 0.305017
H	 0.5214277164	-0.2182031928	-0.9861277933	 0.124141
H	 0.6432386907	-0.500901983	 0.7618537231	 0.117987
H	-1.3720425509	-1.5935898083	-0.1706706013	 0.114075
H	-3.4988436061	-1.4091909172	 0.8983687833	 0.09096
H	-1.7320203427	 0.128507331	-2.0947148859	 0.101227
87.9722	93.3205	111.0878	175.1061	203.4598	271.2161	287.5494	366.5899	434.5694	580.5519	649.4682	697.2552	846.8744	922.4599	950.1404	1030.5285	1063.656	1092.2739	1128.2961	1167.377	1234.4686	1276.8874	1341.778	1390.3872	1407.545	1423.6607	1433.3024	1496.4042	1842.9631	1877.4904	2905.8466	2981.4847	2994.6796	3013.2769	3085.2471	3797.4169
OCC(OC=O)C=O	OC[C@@H](OC=O)C=O	
InChI=1S/C4H6O4/c5-1-4(2-6)8-3-7/h1,3-4,6H,2H2	InChI=1S/C4H6O4/c5-1-4(2-6)8-3-7/h1,3-4,6H,2H2/t4-/m0/s1
