20
gdb 89915	4.34262	0.87801	0.81458	2.7183	80.95	-0.2128	-0.0233	0.1895	1449.0858	0.169189	-403.10718	-403.098019	-403.097075	-403.141869	33.613	
C	-0.3621923382	 1.4280048088	 0.0657910475	-0.324376
N	 0.04115947	 0.0343334498	 0.0742799989	-0.066686
C	 1.0600577252	-0.4302674268	-0.908644024	-0.234761
C	 1.8830097982	-1.0415060438	 0.2362517729	 0.323764
C	 2.5337538102	-2.398920976	 0.202600406	-0.396465
C	 3.8269873416	-2.3819836191	-0.5921636476	 0.165866
O	 4.0896447621	-3.132706946	-1.495226383	-0.237098
C	 2.2615856305	 0.0675697472	 1.1943644847	-0.345647
C	 0.8472466805	-0.460644297	 1.1854685908	-0.072722
H	 0.4729726955	 2.1455762428	 0.1537464348	 0.093085
H	-0.8972184812	 1.6454316185	-0.8644547952	 0.122365
H	-1.0510786038	 1.6088931098	 0.8975754729	 0.122377
H	 0.6459554041	-1.16124777	-1.6118690349	 0.113125
H	 1.5598914159	 0.3663188573	-1.4768297712	 0.096218
H	 2.7863030842	-2.7059831748	 1.2278163409	 0.120814
H	 1.8733140418	-3.1596869887	-0.2255217146	 0.124628
H	 4.5443586161	-1.5902431173	-0.2737197799	 0.076187
H	 2.8586140871	-0.2416069153	 2.0475842089	 0.112298
H	 2.4933017119	 1.0634122734	 0.8260379263	 0.111726
H	 0.3784948883	-0.8962587827	 2.0625216957	 0.095301
48.0473	73.2766	126.4485	204.5834	209.7519	265.8324	333.3888	365.2611	404.3054	476.1784	508.3068	639.1486	701.7395	808.2303	834.2088	856.9057	916.1302	960.4659	976.0586	992.9191	1005.6537	1051.5126	1066.8489	1071.6359	1097.4758	1133.1723	1170.4445	1178.9157	1212.2042	1232.4052	1270.9771	1282.105	1312.1719	1325.8615	1399.1676	1424.0803	1451.6515	1452.8079	1482.7672	1488.7156	1502.0463	1514.3511	1835.6646	2864.4607	2946.1797	3005.4571	3012.5791	3059.0927	3060.7461	3087.6276	3100.6661	3112.0025	3155.3902	3197.2768
CN1CC2(CC=O)CC12	CN1C[C@@]2(CC=O)C[C@@H]12	
InChI=1S/C7H11NO/c1-8-5-7(2-3-9)4-6(7)8/h3,6H,2,4-5H2,1H3	InChI=1S/C7H11NO/c1-8-5-7(2-3-9)4-6(7)8/h3,6H,2,4-5H2,1H3/t6-,7-/m1/s1
