12
gdb 21347	5.7368	1.37641	1.31188	3.4886	60.16	-0.2836	-0.0277	0.2559	906.015	0.086345	-373.709126	-373.702566	-373.701622	-373.741142	22.559	
N	-0.0380802653	-1.1620695234	-0.0058699281	-0.287116
C	 0.0000426156	-0.0084944007	 0.0012547761	 0.284385
C	 0.0219755976	 1.461013699	 0.0104125149	-0.270485
N	 1.3644601319	 2.0041844822	 0.0002656341	 0.155184
N	 2.0415473891	 2.2241561314	 1.1237866042	-0.217788
C	 3.2270816345	 2.6467036729	 0.6875492275	-0.049811
C	 3.2121951018	 2.6572152591	-0.7166686285	-0.049829
N	 2.017588999	 2.2411308278	-1.1339533692	-0.217776
H	-0.4992212816	 1.8375715397	-0.8723407979	 0.189446
H	-0.4813596136	 1.8261620928	 0.9082091634	 0.189408
H	 4.0066137911	 2.9223809949	 1.3792685924	 0.137192
H	 3.9769148599	 2.9433710643	-1.4205598489	 0.137191
38.1208	93.4084	262.9338	348.0608	366.3419	495.6716	680.3099	682.8672	792.5779	855.692	908.544	934.5503	956.6566	983.074	991.9007	1093.913	1167.31	1242.1219	1299.6491	1374.2602	1378.1778	1398.677	1440.8764	1446.5115	1513.1169	2373.293	3086.9919	3140.9732	3268.9191	3285.448
N#CCN1N=CC=N1	N#CCn1nccn1	
InChI=1S/C4H4N4/c5-1-4-8-6-2-3-7-8/h2-3H,4H2	InChI=1S/C4H4N4/c5-1-4-8-6-2-3-7-8/h2-3H,4H2
