21
gdb 65477	2.91212	1.12216	0.96207	2.9396	77.99	-0.2422	0.0588	0.301	1305.8204	0.179461	-424.189625	-424.179741	-424.178797	-424.22477	37.063	
C	 0.5156943808	 1.6648134377	 0.0722893547	-0.451007
C	 0.0308894703	 0.2341174736	 0.0142703476	 0.427093
C	-1.0847725234	-0.1727974727	 0.9689307348	-0.32319
C	-2.4471657564	 0.4261858429	 0.6825100244	 0.444917
O	-2.4297840474	 1.8130705236	 0.9283083292	-0.468059
C	-3.3028287371	-0.1160027714	-0.4316671589	-0.329123
C	-3.6878537971	-0.3556267043	 1.0216537223	-0.333106
C	 0.2440911542	-0.5576165826	-1.2078026761	-0.222471
O	 1.0865649716	-0.7423774384	-0.0693112684	-0.282345
H	 1.3422053414	 1.8146247211	-0.6269928774	 0.114164
H	-0.2956169557	 2.3572458988	-0.1605480921	 0.138025
H	 0.8726533264	 1.9020638428	 1.0805776979	 0.121191
H	-1.1644206847	-1.2631631727	 0.942400208	 0.107858
H	-0.7977222985	 0.1032996545	 1.9916820038	 0.112145
H	-3.2883581373	 2.1806313963	 0.6976906394	 0.281202
H	-3.8990762457	 0.5901832088	-1.0020602385	 0.107273
H	-2.9419920809	-0.9551525518	-1.0163088746	 0.118462
H	-3.5890285013	-1.3569737123	 1.4273081914	 0.118867
H	-4.534359588	 0.1988229139	 1.4155909641	 0.108168
H	-0.4139021248	-1.3943237213	-1.4420369761	 0.101985
H	 0.7194587136	-0.0962189064	-2.0729925156	 0.107952
35.2675	99.2296	143.9992	167.2669	208.8455	285.1587	299.6161	322.172	375.5175	407.4834	422.0912	448.9453	520.0859	735.2864	740.8113	767.2666	823.8873	871.9451	901.1692	924.2239	930.8235	960.2329	977.6342	989.1801	1041.6469	1052.5076	1065.5025	1108.0994	1135.1479	1151.1061	1172.7941	1183.4055	1187.5304	1285.5398	1328.5232	1348.6356	1398.8333	1422.9105	1436.4509	1461.8218	1469.8073	1483.0129	1500.2999	1503.6227	1533.2088	3032.2839	3043.1245	3074.2825	3094.5073	3109.7715	3122.0075	3126.5742	3142.2071	3155.9967	3201.4721	3216.2044	3827.0889
CC1(CC2(O)CC2)CO1	C[C@@]1(CC2(O)CC2)CO1	
InChI=1S/C7H12O2/c1-6(5-9-6)4-7(8)2-3-7/h8H,2-5H2,1H3	InChI=1S/C7H12O2/c1-6(5-9-6)4-7(8)2-3-7/h8H,2-5H2,1H3/t6-/m1/s1
