16
gdb 77197	3.69212	1.05509	0.8861	4.2242	76.38	-0.277	-0.0184	0.2586	1273.3378	0.122256	-400.704586	-400.695576	-400.694632	-400.738953	32.308	
C	-0.311457127	 1.3766489104	-0.0752591803	-0.42508
C	-0.0243007452	-0.0976895572	 0.1365492287	-0.065809
C	 0.958093152	-0.8087278461	-0.839999246	-0.037841
O	 1.7375753439	-1.3272142904	 0.2789641499	-0.287133
C	 0.9884028628	-0.5524251977	 1.2317884421	-0.019478
C	 1.7939146761	 0.5089991859	 1.8468243766	 0.286736
N	 2.414383642	 1.3551569728	 2.3314852186	-0.324901
C	 0.4285524735	-1.8408106365	-1.7072168347	 0.30789
C	-0.0305982461	-2.6840261668	-2.430085284	-0.424631
H	 0.6106504333	 1.9601272974	-0.1503317654	 0.145214
H	-0.8856831386	 1.5193372991	-0.9961301081	 0.132755
H	-0.8995651307	 1.7846311188	 0.7524300945	 0.136434
H	-0.9493908356	-0.6685195059	 0.2330692714	 0.112807
H	 1.5624090262	-0.0981885032	-1.4195346526	 0.118406
H	 0.5741659027	-1.1818688335	 2.0266641066	 0.134458
H	-0.4279840392	-3.4326843172	-3.0707273875	 0.210173
39.7933	115.9944	148.6953	180.9184	218.9949	248.5222	298.6433	380.2389	465.4039	479.4017	595.9361	611.2073	628.8505	685.8328	733.8131	807.1465	882.1299	948.7762	964.7392	1015.826	1055.1415	1097.1116	1116.9024	1141.5278	1234.1199	1244.1083	1285.8895	1336.5956	1368.2804	1390.9073	1419.5764	1493.8003	1494.5247	2238.1794	2353.3882	3017.9301	3041.5676	3053.3542	3096.5595	3111.2117	3122.1617	3500.3461
CC1C(OC1C#N)C#C	C[C@H]1[C@@H](O[C@H]1C#N)C#C	
InChI=1S/C7H7NO/c1-3-6-5(2)7(4-8)9-6/h1,5-7H,2H3	InChI=1S/C7H7NO/c1-3-6-5(2)7(4-8)9-6/h1,5-7H,2H3/t5-,6-,7-/m0/s1
