25
gdb 83249	1.73496	1.64707	1.44332	0.1103	92.03	-0.2482	0.0783	0.3265	1185.5636	0.229616	-352.370672	-352.360891	-352.359946	-352.404445	38.161	
C	-0.1509622076	 1.7036170428	-0.1582073813	-0.427845
C	 0.0864064505	 0.2090286074	-0.057776068	-0.043756
C	 1.3804454076	-0.5111005913	-0.3767532907	-0.105587
C	 2.6994581349	 0.2522355742	-0.3415717197	-0.226613
C	 2.7699778545	 0.9248920851	 1.0518276042	-0.244977
C	 1.7969691318	 0.1376302026	 1.9657015941	-0.004722
C	 1.1659458297	 0.9818613104	 3.0782074975	-0.409427
C	 0.8086152669	-0.5700151036	 1.0292494622	 0.32974
C	 0.1441688469	-1.8155026728	 1.5755398386	-0.481484
H	 0.7199145285	 2.3066418433	 0.0991498099	 0.120365
H	-0.4351482113	 1.9685273489	-1.18345593	 0.112929
H	-0.9732103363	 2.0145074194	 0.4964054262	 0.11571
H	-0.7814411295	-0.3431383081	-0.4167983591	 0.075243
H	 1.3239003678	-1.3745901816	-1.033624662	 0.070064
H	 3.5211324006	-0.4630019725	-0.4627391714	 0.097235
H	 2.7989659279	 0.9811100597	-1.1543287062	 0.094056
H	 3.7872622269	 0.9216034297	 1.4552356476	 0.092946
H	 2.4730784399	 1.9761734201	 0.9968535327	 0.101837
H	 2.3689291761	-0.6678792167	 2.4495136415	 0.064968
H	 0.5794020609	 1.8096604019	 2.6672456716	 0.116323
H	 0.5001045997	 0.3816357441	 3.7073460714	 0.111086
H	 1.9356280311	 1.4095571587	 3.7301666931	 0.108278
H	-0.526147195	-1.5825148709	 2.4119929464	 0.114058
H	-0.4545294131	-2.3179752835	 0.8092174804	 0.110355
H	 0.8879350008	-2.5342282374	 1.9416044308	 0.109218
121.3961	133.488	176.2305	200.9551	213.829	230.8955	249.8769	289.7376	329.7379	383.1939	488.5002	538.7017	551.3421	647.2727	683.8976	745.4686	828.1729	839.0422	874.5615	920.4854	948.0577	970.8362	986.3511	1019.7879	1042.2023	1061.0961	1088.9154	1102.1583	1123.7147	1136.0641	1144.0742	1157.8344	1207.7677	1235.689	1254.4925	1294.5286	1321.6813	1334.7962	1344.794	1370.0941	1372.1977	1408.1223	1413.5882	1420.6091	1461.5516	1486.5432	1490.2269	1493.487	1498.0898	1499.5849	1502.8423	1507.125	1518.7697	2986.7036	3015.7927	3028.9608	3030.0529	3030.7469	3054.2207	3059.0817	3070.9109	3078.3186	3089.5892	3092.0039	3093.5181	3103.6536	3105.4838	3140.9819	3145.1934
CC1C2CCC(C)C12C	C[C@H]1[C@H]2CC[C@@H](C)[C@@]12C	
InChI=1S/C9H16/c1-6-4-5-8-7(2)9(6,8)3/h6-8H,4-5H2,1-3H3	InChI=1S/C9H16/c1-6-4-5-8-7(2)9(6,8)3/h6-8H,4-5H2,1-3H3/t6-,7+,8-,9+/m1/s1
