17
gdb 64682	4.83632	0.86437	0.82264	4.6153	79.78	-0.2752	0.0076	0.2828	1384.1995	0.133816	-380.826909	-380.817477	-380.816533	-380.861384	34.332	
C	-0.095366472	 1.7103013313	 0.2181927713	-0.448733
C	-0.0935881739	 0.2026828967	 0.1033769454	 0.320509
C	-1.3866725092	-0.4194066211	-0.4310164102	-0.434211
C	-1.645487341	-0.0701203463	-1.824433531	 0.31018
C	-1.8387233022	 0.2203714197	-2.9741297773	-0.43691
N	 1.1799226562	-0.3964033995	-0.2945812867	-0.329161
C	 0.6812578538	-0.6395678036	 1.077396133	-0.256793
C	 1.4384957428	-0.0620160246	 2.1614953751	 0.33489
N	 2.0156763794	 0.3976353726	 3.0515709699	-0.33589
H	 0.8699314054	 2.0711781709	 0.5763396023	 0.152305
H	-0.2922382432	 2.1556659188	-0.7612413485	 0.141886
H	-0.874121439	 2.0450745346	 0.911270359	 0.126008
H	-1.3389430844	-1.5115630081	-0.3314485043	 0.129916
H	-2.2271489548	-0.0913759526	 0.1941111103	 0.147029
H	-2.0175946349	 0.4748283356	-3.9897476723	 0.2065
H	 1.0394897902	-1.2302394908	-0.8611267238	 0.244978
H	 0.2739188468	-1.6198979034	 1.3118280479	 0.127497
51.9558	97.7137	142.6019	176.6935	195.4373	312.9075	330.329	349.2305	382.6866	395.3263	461.8285	572.9813	634.9205	642.9568	657.9514	734.5871	816.8846	897.099	918.8892	941.1153	950.5918	1002.2809	1072.1392	1078.7309	1114.3019	1200.4564	1210.5591	1265.3374	1342.3216	1363.8912	1423.5785	1436.6365	1462.3493	1485.9714	1497.6418	2240.9397	2359.6234	3018.0741	3046.1623	3053.2775	3114.0078	3140.1428	3144.8153	3496.8345	3503.6198
CC1(CC#C)NC1C#N	C[C@@]1(CC#C)N[C@H]1C#N	
InChI=1S/C7H8N2/c1-3-4-7(2)6(5-8)9-7/h1,6,9H,4H2,2H3	InChI=1S/C7H8N2/c1-3-4-7(2)6(5-8)9-7/h1,6,9H,4H2,2H3/t6-,7-/m0/s1
