17
gdb 47465	3.10424	1.13548	0.89126	1.9292	74.59	-0.2458	-0.0343	0.2115	1279.1675	0.134326	-421.812375	-421.803653	-421.802709	-421.846552	31.892	
O	-0.0897813201	 0.0189718199	 0.4249052394	-0.30737
C	-0.0703130234	 1.1711942308	 0.0830370408	 0.375023
C	-1.2574188374	 2.0782897914	-0.2327411085	-0.336105
C	-0.6305719095	 3.4699548718	-0.1241034038	-0.09419
O	 0.7383915036	 3.3023829588	-0.5104302688	-0.256319
C	 1.1919239444	 2.0337340181	-0.07867993	 0.007468
C	 1.9865225879	 2.0776741273	 1.2484659543	-0.370547
C	 3.2397119219	 2.8079404504	 1.1328191385	 0.300674
C	 4.2752087186	 3.4065644711	 1.0193874582	-0.43276
H	-1.5823142594	 1.8704823102	-1.2592338423	 0.144678
H	-2.0964372623	 1.8850739077	 0.4377336075	 0.137626
H	-1.0680995346	 4.2111335402	-0.795545767	 0.123371
H	-0.7017797237	 3.8541295512	 0.9047340675	 0.104644
H	 1.835366087	 1.6140876027	-0.8601360195	 0.122901
H	 1.3613988698	 2.5266413852	 2.0308241463	 0.130531
H	 2.1699268744	 1.0397030217	 1.5518878914	 0.15359
H	 5.1905170826	 3.9364352119	 0.9264651961	 0.196785
52.355	91.8934	123.6663	181.6311	219.4967	340.3778	373.1763	430.7355	523.4954	552.1923	619.8438	639.5408	642.025	652.2842	822.2413	831.8885	862.1464	932.1901	969.7044	993.2707	1017.3693	1077.1441	1100.0562	1152.046	1205.2474	1230.2232	1237.9022	1253.1357	1282.783	1335.8001	1360.1123	1393.0071	1448.9381	1461.4169	1523.8022	1855.1408	2242.6162	2991.7503	3025.5247	3049.2474	3051.405	3069.3243	3108.9203	3127.7827	3507.6231
O=C1CCOC1CC#C	O=C1CCO[C@H]1CC#C	
InChI=1S/C7H8O2/c1-2-3-7-6(8)4-5-9-7/h1,7H,3-5H2	InChI=1S/C7H8O2/c1-2-3-7-6(8)4-5-9-7/h1,7H,3-5H2/t7-/m0/s1
