20
gdb 115165	2.71504	1.30113	0.92619	4.5385	76.61	-0.231	0.0391	0.2701	1261.5304	0.171379	-440.331558	-440.322094	-440.32115	-440.366057	34.281	
C	 0.1012524388	 1.4515079988	 0.026578606	-0.334671
N	 0.0436079362	 0.0123261134	-0.1424076958	-0.078971
C	-1.1873720805	-0.7588107075	-0.0135558686	 0.047531
C	-2.3104659173	-0.295938971	-0.9353263277	-0.088564
O	-2.8378035585	 0.9266386445	-0.4459322428	-0.420363
C	-0.7340842892	-2.1996104975	-0.3460394013	-0.244013
C	 0.7655672258	-2.2157642285	-0.0306868824	-0.337638
C	 1.1870719175	-0.7490549254	-0.1066405967	 0.403209
O	 2.3226165916	-0.3197209863	-0.1072382496	-0.394172
H	 1.1559554396	 1.7315787651	 0.0243753976	 0.155082
H	-0.4240820996	 1.9709031051	-0.7781232122	 0.12674
H	-0.3589562208	 1.7530194207	 0.9754620652	 0.122848
H	-1.5678618753	-0.6904383855	 1.0185715816	 0.084253
H	-1.9124535258	-0.1898749391	-1.9567000737	 0.094999
H	-3.083168385	-1.0815617243	-0.9543126121	 0.093205
H	-3.521854426	 1.2270738542	-1.0513762697	 0.291023
H	-1.310884152	-2.9407010723	 0.2107791583	 0.111147
H	-0.896387798	-2.3894268288	-1.4130211587	 0.109426
H	 0.9718489562	-2.5678393017	 0.9865998681	 0.129737
H	 1.3642991325	-2.8243176039	-0.7105559755	 0.129191
70.4303	129.354	133.2776	154.6789	187.0641	226.1684	255.6106	326.5303	384.1445	433.2885	522.0753	565.2894	613.1984	668.1165	716.5197	849.7855	927.226	956.164	1000.4663	1036.6414	1056.0604	1084.485	1107.3774	1137.4489	1158.7289	1165.7549	1233.0392	1247.1253	1258.9407	1280.2757	1300.8792	1316.8907	1347.0765	1377.7862	1419.2712	1448.3452	1460.5369	1470.6899	1493.6821	1497.9802	1510.7958	1517.1241	1806.6637	2965.8163	2970.3098	3006.9782	3028.9532	3044.8699	3051.9524	3098.332	3107.2808	3120.0337	3147.7705	3831.5529
CN1C(CO)CCC1=O	CN1[C@@H](CO)CCC1=O	
InChI=1S/C6H11NO2/c1-7-5(4-8)2-3-6(7)9/h5,8H,2-4H2,1H3	InChI=1S/C6H11NO2/c1-7-5(4-8)2-3-6(7)9/h5,8H,2-4H2,1H3/t5-/m1/s1
