17
gdb 66278	1.98341	1.67683	1.41146	2.6499	73.68	-0.2485	-0.0377	0.2107	1036.469	0.134345	-421.82135	-421.812659	-421.811715	-421.854586	33.059	
O	 0.2862791002	 1.5574266717	 0.296867249	-0.461521
C	-0.0123825983	 0.2090432419	 0.0364413018	 0.139059
C	-1.5078148082	-0.0475871681	-0.2240050947	-0.254236
C	-1.522135513	-1.3520609597	-1.0540216452	-0.227472
C	-0.2973658169	-1.2451174642	-1.9881311159	-0.319964
C	 0.6184294939	-0.2299391203	-1.3183844766	 0.367257
O	 1.6230564948	 0.2723642512	-1.74812737	-0.325398
C	 0.5124365498	-0.6918386556	 1.0731362879	 0.32828
C	 0.9573544534	-1.4443044955	 1.8994252592	-0.501277
H	 1.1558318244	 1.7133558659	-0.1032173129	 0.291184
H	-2.090418835	-0.1154775346	 0.6958963444	 0.121271
H	-1.8843560002	 0.7975248723	-0.8108292915	 0.116762
H	-1.4147145697	-2.2118096823	-0.3868855857	 0.124354
H	-2.4575047583	-1.4772058878	-1.6029801887	 0.111271
H	 0.2260575075	-2.1903266536	-2.1563604982	 0.142573
H	-0.5570586611	-0.8499896577	-2.9767789601	 0.143362
H	 1.3527762967	-2.0928980137	 2.6421219271	 0.204496
75.6096	124.1052	147.7339	223.578	268.0888	335.4849	402.3766	420.4889	481.3052	546.7038	565.3631	603.6746	624.6933	637.5338	673.0021	686.5394	807.1119	846.48	912.1595	955.1765	1008.7875	1033.3472	1057.8946	1097.5145	1170.682	1207.7301	1215.0924	1242.907	1294.4947	1327.0134	1346.7842	1397.7275	1443.961	1489.1292	1500.9338	1848.136	2220.0482	3053.6963	3055.1697	3068.5239	3099.1703	3116.7209	3127.0778	3498.663	3712.1546
OC1(CCCC1=O)C#C	O[C@]1(CCCC1=O)C#C	
InChI=1S/C7H8O2/c1-2-7(9)5-3-4-6(7)8/h1,9H,3-5H2	InChI=1S/C7H8O2/c1-2-7(9)5-3-4-6(7)8/h1,9H,3-5H2/t7-/m0/s1
