18
gdb 117318	4.27958	0.71	0.64204	2.6334	71.49	-0.2478	-0.032	0.2157	1727.1008	0.144903	-476.259015	-476.248902	-476.247958	-476.295589	35.011	
C	 0.2593707057	 1.1616123579	 0.0484735305	-0.229376
O	-0.0578179885	-0.0968552728	-0.5045304278	-0.212179
C	-1.0610327158	-0.7587226912	 0.1947765641	-0.147469
C	-1.3516206388	-2.1129975954	-0.4303191067	 0.35151
O	-0.7233649608	-2.5410108761	-1.3714206608	-0.298791
C	-2.4980462194	-2.880166009	 0.217636605	-0.414166
C	-2.2277802305	-4.3683462576	 0.5120487631	 0.385213
N	-1.6622456175	-5.0514233512	-0.5175533911	-0.508171
O	-2.5609260694	-4.8657272037	 1.5681007455	-0.35324
H	 1.0505154964	 1.5927844467	-0.568197985	 0.138376
H	-0.6079826545	 1.8400305501	 0.0433907044	 0.108788
H	 0.6216172589	 1.072190266	 1.0843633255	 0.110428
H	-0.789339112	-0.9358131715	 1.2536876086	 0.120492
H	-2.005735859	-0.1822271895	 0.2215816549	 0.113254
H	-2.8186412451	-2.4192214272	 1.153180066	 0.136582
H	-3.3419290622	-2.831316416	-0.4832669667	 0.16244
H	-1.2138640366	-4.5281405669	-1.2580042867	 0.277617
H	-1.373993961	-5.9995104926	-0.3344973728	 0.258693
35.6168	68.7773	89.012	108.6939	155.143	236.3307	249.4667	328.5558	383.8489	392.727	474.2633	492.4004	553.0238	573.0427	678.8359	748.971	838.2865	861.093	929.4256	1002.1244	1023.489	1087.3846	1145.4407	1171.7558	1179.043	1190.0105	1242.9628	1263.2846	1307.8883	1354.0016	1407.2966	1448.1262	1463.8758	1487.3815	1490.9716	1514.7723	1618.0496	1808.6513	1812.8994	2925.5466	2942.8766	2975.4641	3022.1809	3039.7835	3125.8789	3127.7383	3537.7986	3690.8533
COCC(=O)CC(N)=O	COCC(=O)CC(=O)N	
InChI=1S/C5H9NO3/c1-9-3-4(7)2-5(6)8/h2-3H2,1H3,(H2,6,8)	InChI=1S/C5H9NO3/c1-9-3-4(7)2-5(6)8/h2-3H2,1H3,(H2,6,8)
