21
gdb 50711	3.03913	1.09038	0.86408	2.8482	85.04	-0.2377	-0.0198	0.218	1358.8146	0.183375	-387.114151	-387.105251	-387.104307	-387.148534	33.268	
O	-0.1964631011	-0.0070009872	-0.161677209	-0.251515
C	-0.0555056096	 1.1776919839	-0.0004683437	 0.150262
C	 1.2716787513	 1.9097586682	 0.0125326598	-0.053714
C	 1.3283627992	 2.8189646563	-1.2349375003	-0.201851
C	 2.6704901251	 3.5178767379	-1.4920110544	-0.194997
C	 3.070560197	 4.5804333871	-0.4526082171	-0.247827
C	 3.488136466	 4.0340050195	 0.8916605239	-0.044184
C	 2.7737975419	 3.2131563572	 1.6608901961	-0.060445
C	 1.3956973908	 2.6767792823	 1.3526442749	-0.269184
H	-0.9414721416	 1.8421158122	 0.1513640494	 0.066123
H	 2.0575069254	 1.1494238103	-0.0502039489	 0.094493
H	 1.0840099212	 2.2100473666	-2.1140615837	 0.109159
H	 0.5358466123	 3.5775820456	-1.1580875468	 0.095183
H	 3.4665968675	 2.7672111224	-1.5663464588	 0.103286
H	 2.6082071775	 4.003804033	-2.4731868876	 0.096375
H	 3.8920989065	 5.1757461828	-0.8637814126	 0.101373
H	 2.2310421466	 5.2812324184	-0.3249803424	 0.10699
H	 4.46183615	 4.3523302565	 1.2571874607	 0.088071
H	 3.1995268229	 2.9000540774	 2.6110651294	 0.089869
H	 0.6652450851	 3.5000396712	 1.3498441426	 0.111742
H	 1.0902449562	 2.0095987083	 2.1661403284	 0.11079
46.9619	88.8875	106.0265	253.9914	264.0652	281.0572	348.7627	377.4495	427.8765	494.9812	546.6459	675.5034	713.5318	785.4288	846.2245	865.1639	886.9583	931.2261	978.835	997.3049	999.1724	1032.2769	1062.095	1096.2865	1105.4441	1118.4506	1172.2808	1223.4112	1243.5185	1275.5014	1278.4841	1304.3218	1344.9006	1361.8984	1368.6019	1381.8424	1398.4881	1422.6429	1431.2076	1477.5173	1479.8325	1484.0645	1494.0577	1725.4375	1834.1608	2831.4097	2992.3063	2995.915	3004.3391	3023.4971	3048.4027	3056.6477	3064.1488	3067.852	3069.9466	3140.386	3164.8472
O=CC1CCCC=CC1	O=C[C@H]1CCCC=CC1	
InChI=1S/C8H12O/c9-7-8-5-3-1-2-4-6-8/h1,3,7-8H,2,4-6H2	InChI=1S/C8H12O/c9-7-8-5-3-1-2-4-6-8/h1,3,7-8H,2,4-6H2/t8-/m1/s1
