21
gdb 60088	2.23367	1.18456	0.95871	2.0515	79.6	-0.2577	-0.0376	0.2201	1348.6803	0.179194	-424.223992	-424.213838	-424.212894	-424.259479	36.901	
C	 0.325444614	 1.6093538984	 0.0060864035	-0.383814
C	-0.0019542165	 0.1094782146	 0.0129784854	 0.030948
C	 0.5646984048	-0.57735781	-1.236735891	-0.39208
C	 0.5196887141	-0.6019842911	 1.2796533994	-0.283046
C	-0.1183311695	-0.1613538581	 2.5774549938	 0.302816
C	 0.6650636633	-0.0786652329	 3.834741429	-0.224641
O	 0.2872237674	 1.0996320977	 3.1480752731	-0.25687
C	-1.5819708951	-0.4222230119	 2.7788020857	 0.12518
O	-2.2450544515	-1.1599013868	 2.0954498697	-0.255589
H	 1.4098706852	 1.7725891696	 0.0248487552	 0.108506
H	-0.0649319931	 2.0824680378	-0.9009942671	 0.108484
H	-0.0984784739	 2.1284960626	 0.868912293	 0.130213
H	-1.0918554821	-0.0091141931	-0.0057748909	 0.097938
H	 1.6595796973	-0.5130407489	-1.2587513007	 0.10927
H	 0.2906832603	-1.6369276747	-1.2720592068	 0.113505
H	 0.1881744493	-0.1026425702	-2.1484754084	 0.111999
H	 0.3386829762	-1.678868788	 1.181785757	 0.116772
H	 1.604571233	-0.4617764179	 1.3584943493	 0.098749
H	 0.1819757308	-0.237996569	 4.7985090255	 0.123038
H	 1.7208408403	-0.341888464	 3.7906358682	 0.129675
H	-2.0088136244	 0.1375653358	 3.6411238969	 0.088948
42.9043	92.6497	139.207	155.349	223.0265	226.6225	268.2788	301.349	324.128	375.6522	390.7625	430.3112	488.0435	545.9026	779.1003	829.4782	845.1813	878.3104	900.7887	934.8843	955.2207	969.9643	982.6315	1038.692	1118.3726	1133.7998	1146.0652	1162.1053	1195.6062	1245.4105	1304.3443	1324.6077	1347.0359	1372.9694	1386.2529	1403.3056	1422.7268	1430.8676	1461.4292	1486.7715	1494.2752	1505.3014	1508.7146	1520.2534	1824.6316	2888.7518	3022.478	3027.5014	3029.5176	3042.2993	3075.0751	3080.4362	3087.447	3095.5929	3101.8405	3122.6979	3170.3508
CC(C)CC1(CO1)C=O	CC(C)C[C@]1(CO1)C=O	
InChI=1S/C7H12O2/c1-6(2)3-7(4-8)5-9-7/h4,6H,3,5H2,1-2H3	InChI=1S/C7H12O2/c1-6(2)3-7(4-8)5-9-7/h4,6H,3,5H2,1-2H3/t7-/m1/s1
