16
gdb 28481	3.09527	1.42337	0.98161	2.0639	76.48	-0.203	-0.0254	0.1776	1151.1733	0.125269	-434.138801	-434.130366	-434.129422	-434.171543	31.847	
C	 0.0218407674	 1.4854427526	 0.0105660806	-0.522691
C	 0.0500351049	-0.0202342257	 0.0154582109	 0.21737
N	 0.0289548513	-0.6469593894	-1.1626907328	-0.352256
C	 0.0537659374	-1.9867594202	-1.1477331066	 0.408025
N	 0.0964146643	-2.6219476535	-2.3672456337	-0.560048
N	 0.0774279645	-2.7651534606	-0.0561781111	-0.309607
C	 0.0983603855	-2.1286158895	 1.1110764197	-0.049927
C	 0.0928731005	-0.7420718333	 1.2134281742	 0.261809
O	 0.1171468439	-0.1726973849	 2.4567426398	-0.44388
H	 0.9173501791	 1.9073599464	 0.4852113494	 0.135065
H	-0.0200782217	 1.843058624	-1.0185216152	 0.152854
H	-0.8521040343	 1.8756529948	 0.5482386079	 0.133935
H	-0.2203145557	-2.0753518323	-3.1514763241	 0.255809
H	-0.1794096798	-3.5905719253	-2.3572768316	 0.257331
H	 0.1166350561	-2.7339750904	 2.0146239069	 0.117958
H	 0.1127597667	 0.7851369973	 2.3687985857	 0.298253
110.9227	132.4387	202.6243	238.9872	283.4028	330.7952	388.968	441.3791	455.8757	487.0918	495.6041	536.8775	585.295	648.6495	761.0313	794.4216	821.2627	957.0662	971.8684	1009.9937	1052.8039	1109.2768	1166.0812	1237.5712	1292.0828	1316.2073	1394.8473	1403.6579	1457.4092	1487.2432	1488.571	1496.2682	1608.4145	1627.3794	1654.3974	3015.3265	3064.3407	3148.0266	3158.1662	3596.836	3719.6696	3837.4684
CC1=NC(N)=NC=C1O	Cc1nc(N)ncc1O	
InChI=1S/C5H7N3O/c1-3-4(9)2-7-5(6)8-3/h2,9H,1H3,(H2,6,7,8)	InChI=1S/C5H7N3O/c1-3-4(9)2-7-5(6)8-3/h2,9H,1H3,(H2,6,7,8)
