18
gdb 19831	3.31439	2.49159	1.74098	0.4267	76.05	-0.2213	0.0253	0.2465	798.9679	0.157115	-310.657003	-310.650763	-310.649819	-310.686955	26.29	
C	 0.0289357606	 1.5733769014	-0.0794592798	-0.300081
C	 1.318048105	 0.7675087215	-0.0305620284	-0.063641
C	 2.1614953075	 0.7640778854	 1.1840373849	-0.074843
C	 1.8267267256	 0.1341353904	 2.3167901619	-0.074845
C	 0.5739347601	-0.6327388404	 2.487312591	-0.063638
C	-0.7643277115	 0.0806409618	 2.6046525523	-0.300082
C	-0.4105047373	-0.6329266542	 1.3287320241	-0.035028
C	-0.0335541733	 0.0764357659	 0.0532254407	-0.035024
H	-0.2092353333	 2.1859402382	 0.7825406796	 0.114865
H	-0.2572207138	 2.0091209499	-1.0308826817	 0.108236
H	 1.8601543576	 0.6987636762	-0.9697293558	 0.083538
H	 3.1074346972	 1.2969231812	 1.1278815359	 0.083564
H	 2.505174164	 0.1636387233	 3.1657410786	 0.083564
H	 0.6669562806	-1.5465721466	 3.067740773	 0.083539
H	-1.5198875428	-0.3669783661	 3.2416223375	 0.108236
H	-0.7521124102	 1.1644492659	 2.6192689069	 0.114864
H	-0.9312602474	-1.569695403	 1.1611944136	 0.083388
H	-0.3396288788	-0.4562717108	-0.8408287843	 0.083388
162.0653	235.3538	363.8971	453.3155	500.4689	512.6057	603.7397	703.2969	752.908	775.6142	797.2099	816.9883	841.4999	889.869	921.4629	931.9886	990.3919	996.6	1032.3633	1049.2934	1053.503	1066.832	1085.3786	1119.702	1120.3801	1126.3472	1132.0537	1206.453	1217.6868	1250.0782	1346.9988	1392.9723	1394.2563	1404.1683	1440.4773	1480.6879	1489.661	1697.7367	3129.0927	3133.3758	3134.3855	3137.3756	3146.9315	3152.2362	3166.274	3169.4345	3217.1097	3223.0397
C1C2C=CC3CC3C12	C1[C@H]2C=C[C@H]3C[C@H]3[C@@H]12	
InChI=1S/C8H10/c1-2-6-4-8(6)7-3-5(1)7/h1-2,5-8H,3-4H2	InChI=1S/C8H10/c1-2-6-4-8(6)7-3-5(1)7/h1-2,5-8H,3-4H2/t5-,6+,7+,8-
