19
gdb 94829	3.94106	1.15549	1.01093	1.6077	79.41	-0.228	0.014	0.2421	1209.1248	0.159376	-423.010159	-423.001898	-423.000954	-423.042828	32.479	
O	-0.0909808284	 1.4284338966	 0.0198546718	-0.431548
C	 0.0299032697	 0.0086026859	-0.0082896552	 0.058632
C	-1.3991999901	-0.5422759938	 0.0035133744	-0.105589
O	-1.3978010059	-1.939015593	-0.2433056338	-0.300487
C	-0.9239042358	-2.2668814028	-1.5222608073	 0.423891
C	-1.1020726322	-3.714737069	-1.8824723657	-0.325327
C	-1.9681747211	-2.6758452587	-2.5524812703	-0.322282
C	 0.2730860525	-1.5144425492	-1.9519459484	-0.102808
C	 0.7361451306	-0.4818633229	-1.2486664367	-0.138165
H	 0.7933128545	 1.8032243599	 0.0768979473	 0.284607
H	 0.5581584419	-0.3443938478	 0.8927437265	 0.078504
H	-1.8687998628	-0.3970083395	 0.9787452689	 0.110061
H	-1.9846735957	 0.0003363638	-0.7528774525	 0.105134
H	-0.3226032001	-4.2008721223	-2.4586731411	 0.115881
H	-1.5614814495	-4.3324468687	-1.1193165829	 0.129486
H	-3.0007277599	-2.6043814403	-2.2309312252	 0.125809
H	-1.7915480668	-2.4389807534	-3.5958807835	 0.114704
H	 0.7545076732	-1.8392561541	-2.870247063	 0.096291
H	 1.6275341059	 0.0554602893	-1.5643106833	 0.083205
72.7963	198.721	216.1393	224.9782	289.4679	344.9548	377.5067	401.3066	459.9962	546.2875	613.3228	659.7998	741.3803	772.3073	790.6165	884.2165	909.2528	921.7362	940.1461	977.767	984.2321	1041.2307	1057.5595	1073.9786	1077.0107	1093.2777	1117.6749	1167.431	1193.3527	1233.8041	1276.1798	1301.9171	1305.9728	1345.9471	1389.7176	1416.1847	1440.5852	1451.2963	1487.0797	1502.3557	1709.5412	2959.6074	3008.0042	3107.9846	3135.5803	3138.141	3146.0959	3172.5342	3221.7744	3236.1855	3822.9616
OC1COC2(CC2)C=C1	O[C@H]1COC2(CC2)C=C1	
InChI=1S/C7H10O2/c8-6-1-2-7(3-4-7)9-5-6/h1-2,6,8H,3-5H2	InChI=1S/C7H10O2/c8-6-1-2-7(3-4-7)9-5-6/h1-2,6,8H,3-5H2/t6-/m1/s1
