17
gdb 102236	2.39545	1.02044	0.86931	3.2784	70.77	-0.2645	0.0073	0.2718	1387.5098	0.134124	-455.186737	-455.176522	-455.175578	-455.223709	34.755	
C	-0.0302843509	 1.5017044005	-0.0823603111	-0.491434
C	-0.1105559876	-0.0087092571	 0.0397592739	 0.418109
O	-0.4187611505	-0.5782108851	 1.0689153499	-0.361228
N	 0.2213620916	-0.6948967821	-1.1024188395	-0.304648
C	 0.1885708056	-2.1394734878	-1.1569012692	-0.127907
C	-0.6526302786	-2.6136944374	-2.3608561633	-0.085618
O	-0.1565192901	-2.0774336516	-3.5716036493	-0.420289
C	 1.5485988088	-2.7036175677	-1.2760722079	 0.263187
N	 2.5990569276	-3.1554624783	-1.4445937422	-0.32057
H	 0.9729784791	 1.8311359869	 0.2075427139	 0.159348
H	-0.225802712	 1.8564175172	-1.0979284971	 0.126301
H	-0.7463067859	 1.9474772574	 0.6085913161	 0.157678
H	 0.4084659055	-0.2136376053	-1.967966232	 0.260884
H	-0.2562241915	-2.4779037151	-0.214994859	 0.167303
H	-0.6938278391	-3.7106020136	-2.376774124	 0.120504
H	-1.6676647675	-2.2264220513	-2.238701337	 0.134184
H	 0.6598158655	-2.5411033294	-3.7924948623	 0.304197
38.0978	50.0102	76.367	106.7184	136.6942	206.2442	254.2842	324.2633	392.4253	396.5732	446.9024	499.8802	577.5153	615.6223	645.8484	699.1195	837.474	909.5878	982.0917	995.6029	1027.4696	1053.3488	1096.9774	1137.5654	1229.6856	1237.5971	1284.9655	1352.7273	1390.3953	1394.9432	1414.6715	1465.1895	1485.5714	1491.1956	1515.2361	1785.8988	2352.0006	3024.1584	3049.2432	3077.8242	3105.7702	3116.3705	3156.2053	3639.9072	3797.2283
CC(=O)NC(CO)C#N	CC(=O)N[C@@H](CO)C#N	
InChI=1S/C5H8N2O2/c1-4(9)7-5(2-6)3-8/h5,8H,3H2,1H3,(H,7,9)	InChI=1S/C5H8N2O2/c1-4(9)7-5(2-6)3-8/h5,8H,3H2,1H3,(H,7,9)/t5-/m1/s1
