15
gdb 48732	3.21898	1.61606	1.3441	2.7576	65.	-0.253	-0.0447	0.2083	939.7951	0.112543	-457.702482	-457.695768	-457.694824	-457.733729	26.341	
O	-0.1051116821	 0.0376003735	 0.0885091348	-0.255763
C	 0.0253631145	 1.2278987729	-0.04957877	 0.088729
C	 1.3381409082	 1.9111435972	-0.0487741034	 0.311672
O	 1.3377319453	 3.321848282	 0.2672197572	-0.271101
C	 1.7537367379	 2.9318069385	-1.0344794415	-0.029373
C	 3.2493310163	 2.5267995021	-1.1640657466	 0.032456
C	 3.7098445508	 2.3361953354	 0.2983240243	-0.233097
C	 2.6935725818	 1.1841424597	 0.1373333215	-0.015147
O	 3.1244794143	 1.0676866292	-1.2659618406	-0.294831
H	-0.8367615207	 1.9166879833	-0.1806278687	 0.090794
H	 1.1535734668	 3.276455161	-1.870154538	 0.124914
H	 3.8453709967	 2.9822310697	-1.9530989522	 0.093861
H	 4.7274741561	 1.950547942	 0.3329290584	 0.122182
H	 3.5319054689	 3.119640629	 1.0320150633	 0.127722
H	 2.7006567552	 0.2481374144	 0.6897774914	 0.106982
112.281	173.0591	234.6961	403.8088	436.8157	498.0494	555.022	604.1063	661.0753	730.7735	811.4061	856.2683	863.8127	874.8823	917.6543	923.5012	945.2135	999.2686	1018.3198	1051.7268	1081.2583	1101.1232	1180.642	1210.6755	1234.2803	1259.2049	1282.4948	1291.1125	1303.8158	1375.4684	1431.0467	1478.9785	1815.5541	2907.8007	3107.8177	3141.2981	3166.439	3178.9459	3181.168
O=CC12OC1C1CC2O1	O=C[C@]12O[C@H]1[C@H]1C[C@@H]2O1	
InChI=1S/C6H6O3/c7-2-6-4-1-3(8-4)5(6)9-6/h2-5H,1H2	InChI=1S/C6H6O3/c7-2-6-4-1-3(8-4)5(6)9-6/h2-5H,1H2/t3-,4+,5+,6-/m1/s1
