21
gdb 100825	3.53404	0.68433	0.67401	3.2769	76.06	-0.2441	-0.0207	0.2234	1729.7007	0.17859	-461.36328	-461.352106	-461.351162	-461.400469	39.076	
C	-0.0275987297	 1.6155583618	-0.1486730422	-0.417948
C	 0.0358767867	 0.0879190029	-0.0147097014	 0.022959
C	 0.6402672631	-0.5480292734	-1.2702360383	-0.084285
O	-0.1770302609	-0.2016479906	-2.3793495767	-0.424698
C	 0.8049464221	-0.3923202739	 1.2334805494	 0.096309
O	 2.1796776137	-0.01081862	 1.2094818341	-0.435995
C	 0.1413918698	 0.0353174613	 2.556918974	-0.308156
C	 0.7778976201	-0.6348062069	 3.7569216394	 0.155582
O	 0.1602882563	-1.1141960024	 4.6736685758	-0.243717
H	 0.9757290051	 2.057806499	-0.1974539647	 0.101419
H	-0.5374884526	 1.8793311389	-1.0767447226	 0.148241
H	-0.5664562188	 2.0806185118	 0.6817870427	 0.116116
H	-0.9904882351	-0.2927009753	 0.0731929828	 0.089192
H	 1.6721915078	-0.1909858202	-1.400318025	 0.097455
H	 0.6852816335	-1.6413512587	-1.1403777756	 0.085504
H	 0.2555295632	-0.510762789	-3.1801705088	 0.288752
H	 0.8355118619	-1.4891888665	 1.2036268255	 0.097246
H	 2.2200271279	 0.9519090289	 1.2241773045	 0.282779
H	 0.2612898235	 1.1218375911	 2.6811474092	 0.116472
H	-0.9310786978	-0.1809087996	 2.5637354922	 0.124129
H	 1.8887185601	-0.6567431691	 3.7325667456	 0.092646
48.6148	73.7223	83.7292	111.7746	142.2224	236.4458	244.6149	254.2879	277.1235	306.3088	326.8482	339.333	428.5396	476.4677	542.265	652.1432	803.9705	825.1109	889.0095	923.9449	967.2245	1005.3377	1042.282	1053.4129	1094.3904	1105.085	1132.8798	1173.1952	1192.3079	1240.8113	1267.3468	1275.9404	1297.5814	1332.9681	1367.6227	1383.4035	1404.3411	1417.3552	1425.3383	1454.2515	1457.5355	1492.2917	1514.2754	1523.5373	1830.2654	2906.3464	2969.387	3008.5095	3011.5067	3024.3285	3029.636	3036.4034	3096.229	3096.9799	3137.9028	3800.9245	3836.237
CC(CO)C(O)CC=O	C[C@@H](CO)[C@@H](O)CC=O	
InChI=1S/C6H12O3/c1-5(4-8)6(9)2-3-7/h3,5-6,8-9H,2,4H2,1H3	InChI=1S/C6H12O3/c1-5(4-8)6(9)2-3-7/h3,5-6,8-9H,2,4H2,1H3/t5-,6-/m0/s1
