20
gdb 79801	2.53166	1.79769	1.38735	0.5709	86.17	-0.2042	-0.0304	0.1738	1034.2247	0.170213	-365.9055	-365.897285	-365.89634	-365.937586	32.744	
C	 0.2041849249	 1.5219089266	 0.2199427738	-0.413889
C	 0.0324234291	 0.0199432549	 0.1881937511	 0.065988
N	 0.5774275347	-0.7485912607	-1.0357380545	-0.210484
C	 2.020897781	-1.3464873594	-0.9094408034	-0.066575
C	 3.092475861	-0.9221665871	 0.1116288402	-0.268989
C	 2.1864237995	-0.4890202799	 1.2580556926	-0.123438
C	 0.9315077166	-0.9217897975	 1.003155021	-0.051503
C	 0.8926403033	-1.9164096731	-0.1676217826	 0.32546
C	 0.2181229027	-3.2488561946	-0.2540611727	-0.513247
H	 1.2534028048	 1.8117071727	 0.1223236779	 0.119656
H	-0.3589548357	 1.9729849363	-0.6033432739	 0.12763
H	-0.1819851818	 1.9343275418	 1.1581658394	 0.124351
H	-1.0319414815	-0.2408199201	 0.1998936229	 0.090793
H	 2.308106598	-1.7185274935	-1.8896352039	 0.095278
H	 3.7858127174	-1.7619922197	 0.2684749545	 0.113563
H	 3.7031146905	-0.0627939724	-0.1898751282	 0.114557
H	 2.3726880455	 0.4627435006	 1.7472243736	 0.09377
H	-0.8012170396	-3.2038963481	 0.1445891863	 0.12402
H	 0.1635148675	-3.580737884	-1.295206816	 0.127946
H	 0.7672404423	-4.0025998628	 0.3207518918	 0.125113
150.0416	190.9758	206.3955	217.7461	243.9833	297.5831	368.7499	478.1242	525.6561	547.9137	607.2177	672.476	694.9964	777.2448	795.6613	850.9048	886.058	901.4981	917.1541	933.3492	990.4106	997.5229	1059.3426	1067.9984	1082.8724	1106.0497	1147.3323	1169.0237	1207.9042	1236.3946	1242.837	1289.0634	1306.5782	1384.859	1403.3923	1408.2119	1441.2118	1471.0113	1483.2627	1486.1865	1489.5649	1493.3536	1580.5664	2994.3456	3030.6451	3036.5073	3040.5537	3055.9025	3093.7135	3105.4668	3110.4968	3121.953	3154.5524	3162.2458
CC1N2C3CC=C1C23C	C[C@H]1N2[C@H]3C[CH][C]1[C@@]23C	
InChI=1S/C8H11N/c1-5-6-3-4-7-8(6,2)9(5)7/h3,5,7H,4H2,1-2H3	InChI=1S/C8H11N/c1-5-6-3-4-7-8(6,2)9(5)7/h3,5,7H,4H2,1-2H3/t5-,7+,8-,9?/m1/s1
