24
gdb 118770	2.39531	1.19884	0.96955	2.0193	86.15	-0.221	0.0668	0.2877	1364.7423	0.215085	-405.530856	-405.519775	-405.518831	-405.566929	41.205	
C	 0.1228534393	 1.1722010604	-0.4556505264	-0.439838
C	 0.0198265448	-0.2102499752	 0.166287038	 0.290288
C	-1.1947843989	-0.9753440807	-0.3326763123	-0.468119
N	 1.2932223832	-0.9446320856	 0.2966996989	-0.422392
C	 0.5947300869	-0.4955872446	 1.526401203	 0.290976
C	 1.3423800311	 0.5741274505	 2.307272646	-0.448435
C	-0.0610254675	-1.5254879226	 2.4552403452	-0.282582
C	 0.7918890023	-2.7650786525	 2.7215107084	-0.074405
O	 0.7294971451	-3.5967809748	 1.5614266063	-0.411312
H	 1.0384247009	 1.6880516681	-0.1667086052	 0.121675
H	 0.1209268191	 1.0922584426	-1.5488024259	 0.112835
H	-0.7324094949	 1.7946229064	-0.1673128947	 0.10724
H	-1.1908880598	-0.9967101861	-1.4287391526	 0.115416
H	-1.2064301166	-2.0106300956	 0.0134662013	 0.130211
H	-2.1300309795	-0.4950749505	-0.0204942079	 0.112083
H	 1.1360238076	-1.9429481335	 0.173148207	 0.234169
H	 1.957035627	 1.1970895436	 1.6578243386	 0.126697
H	 0.6501009496	 1.2171174727	 2.8637203985	 0.10826
H	 2.0147985894	 0.1057156365	 3.0367127642	 0.108066
H	-0.2645123253	-1.0403667782	 3.4167698094	 0.098209
H	-1.0273893445	-1.8701210361	 2.0783985787	 0.111786
H	 1.8302661331	-2.4761931029	 2.9412423242	 0.099176
H	 0.4017735795	-3.3049057322	 3.597597293	 0.089446
H	 1.377542938	-4.30121215	 1.6551733641	 0.29055
33.0518	136.8748	145.0809	153.1555	184.9875	186.5905	238.5683	285.3912	301.4077	335.1847	371.4653	379.792	432.9212	446.9181	494.0478	557.8927	672.99	702.3738	844.5593	871.1537	901.2574	954.8339	977.9024	997.7013	1006.6732	1042.7127	1052.178	1086.1292	1100.871	1122.8609	1153.268	1171.4879	1222.2867	1261.1854	1278.0085	1312.9267	1327.6009	1377.9027	1408.471	1409.44	1421.4001	1425.9162	1448.1931	1475.4422	1477.4331	1486.1113	1488.5217	1505.811	1510.4071	1516.644	1520.9116	2979.5035	3013.3381	3023.2091	3023.9065	3031.6152	3048.1878	3076.2125	3078.4981	3085.4256	3096.6152	3125.8945	3138.2085	3152.5277	3490.4976	3831.0531
CC1(C)NC1(C)CCO	CC1(C)N[C@]1(C)CCO	
InChI=1S/C7H15NO/c1-6(2)7(3,8-6)4-5-9/h8-9H,4-5H2,1-3H3	InChI=1S/C7H15NO/c1-6(2)7(3,8-6)4-5-9/h8-9H,4-5H2,1-3H3/t7-/m1/s1
