21
gdb 40629	3.7967	1.07951	1.05823	1.8107	82.33	-0.2595	0.0914	0.3509	1244.2974	0.185236	-387.055261	-387.047726	-387.046782	-387.087606	30.303	
C	 0.9874676681	 1.1365463851	 0.1094517854	-0.189362
O	 1.6811445495	-0.0785101605	-0.1729292126	-0.242061
C	 0.2572312056	-0.1335998902	-0.0027172102	 0.049111
C	-0.226331871	-0.8667404383	 1.2155617244	 0.030655
C	-1.7687474108	-0.8600955848	 1.4878498101	-0.029676
C	-1.8707906949	-2.0383731844	 0.4762073734	-0.235904
C	-0.4803931642	-2.4053665939	 1.0711037767	-0.021279
C	-0.8523863672	-2.7830334686	 2.5187202405	-0.217924
C	-1.8366246986	-1.6039580261	 2.836989998	-0.215239
H	 1.1726467107	 1.5616247962	 1.0957202712	 0.108777
H	 0.9526170501	 1.8588621418	-0.7054679824	 0.111648
H	-0.2788510517	-0.3108314181	-0.9346944969	 0.090307
H	 0.407654496	-0.5768799119	 2.0616428915	 0.061934
H	-2.3651232353	 0.0474964361	 1.3833498967	 0.057737
H	-2.6868207599	-2.7546625806	 0.6131531131	 0.086879
H	-1.8337776243	-1.7272221754	-0.5682499937	 0.100905
H	 0.2243432419	-3.0502603874	 0.5456786568	 0.067279
H	-1.3355445427	-3.7623889594	 2.5787957206	 0.09603
H	 0.0176123963	-2.7960378679	 3.181260837	 0.098601
H	-1.4971479485	-0.9845638081	 3.6720714371	 0.095853
H	-2.8488386692	-1.9500483834	 3.0650123634	 0.09573
68.2857	157.4875	185.3455	307.9994	339.7557	435.1744	473.7902	500.3892	648.6863	820.0202	834.2528	840.9674	846.0053	869.6081	884.5815	899.8184	913.2296	941.8616	963.7821	982.1637	1016.1162	1025.7323	1063.0688	1082.7804	1091.4529	1109.4257	1133.5362	1155.476	1167.9013	1189.0921	1203.0323	1231.492	1239.2897	1258.7032	1268.3708	1286.3294	1297.3963	1307.4886	1312.4209	1349.8048	1462.4314	1494.5892	1503.7489	1524.7562	1530.8587	3036.5714	3049.3262	3055.1184	3059.5188	3077.4022	3086.7746	3103.2287	3105.2119	3109.5244	3113.8818	3131.1833	3162.9162
C1OC1C1C2CC1CC2	C1O[C@H]1[C@H]1[C@H]2C[C@@H]1CC2	
InChI=1S/C8H12O/c1-2-6-3-5(1)8(6)7-4-9-7/h5-8H,1-4H2	InChI=1S/C8H12O/c1-2-6-3-5(1)8(6)7-4-9-7/h5-8H,1-4H2/t5-,6+,7-,8+/m1/s1
