19
gdb 77545	3.13703	1.31434	1.10223	4.5814	82.35	-0.2344	0.0122	0.2466	1153.3001	0.158477	-382.017478	-382.008709	-382.007765	-382.050448	33.58	
C	-0.0358099513	 1.4907916445	-0.1717507441	-0.349805
N	 0.010571806	 0.0435183829	 0.0207995828	-0.148034
C	-0.6423552986	-0.5668760915	 1.2684275424	 0.32238
C	-2.1225205596	-0.5214626457	 1.4981882308	-0.517528
C	 0.2553190833	-1.8069400591	 0.9836559995	-0.277871
C	 1.1460747126	-0.5423873794	 0.8480395224	 0.247584
C	 0.5109911869	-0.0150361097	 2.1674903327	-0.316899
C	 2.5249634132	-0.4601642076	 0.4314408597	 0.164843
N	 3.6322092366	-0.3820110705	 0.1077174665	-0.351891
H	 0.7235638922	 1.7617393516	-0.9116283128	 0.141622
H	-1.0136444198	 1.7435614223	-0.5933472624	 0.12919
H	 0.121148871	 2.1157869251	 0.7197717683	 0.103492
H	-2.6541718035	-0.9686401656	 0.6526235667	 0.137934
H	-2.3873816104	-1.0750491514	 2.4045007027	 0.131411
H	-2.4724157785	 0.509048444	 1.6190767131	 0.129721
H	 0.4742885414	-2.4688222386	 1.8222968725	 0.107381
H	 0.0550790132	-2.3285192361	 0.0482545958	 0.119759
H	 0.5526613492	 1.059069389	 2.3424960288	 0.116704
H	 0.7444412362	-0.5686007043	 3.0801911842	 0.110007
125.4456	140.4735	177.5554	194.3543	209.0139	301.513	361.5338	368.5495	515.0135	528.2454	532.6763	561.893	610.5158	643.0955	722.865	794.7351	808.4949	928.3206	960.4318	989.6733	1033.7426	1069.0497	1099.4554	1129.1226	1140.3984	1164.7066	1167.1536	1174.7092	1195.8458	1202.932	1250.3864	1357.618	1415.4266	1442.0702	1471.8313	1482.6789	1488.6762	1496.5156	1499.09	1540.7378	2352.5529	2991.4188	3036.7402	3072.5689	3076.7277	3087.3086	3105.6055	3109.0118	3113.2595	3151.6498	3169.9324
CN1C2(C)CC1(C2)C#N	CN1[C@@]2(C)C[C@@]1(C2)C#N	
InChI=1S/C7H10N2/c1-6-3-7(4-6,5-8)9(6)2/h3-4H2,1-2H3	InChI=1S/C7H10N2/c1-6-3-7(4-6,5-8)9(6)2/h3-4H2,1-2H3/t6-,7+
