18
gdb 67301	3.06844	1.6438	1.35407	1.8536	77.09	-0.2472	0.0622	0.3094	995.269	0.147148	-401.830932	-401.823412	-401.822468	-401.862453	30.422	
O	-0.113921073	 1.4051969095	-0.0062984084	-0.467733
C	-0.0290495207	 0.0301133773	-0.0064593352	 0.248071
C	 0.8178708352	-0.9667578366	-0.8841491762	-0.059492
C	 1.9657347785	-1.0578962694	 0.1279697773	-0.283541
C	 0.6883348358	-0.9749689962	 0.9715666143	-0.059491
N	-0.0639976415	-1.9041889781	-0.0174576202	-0.200198
C	-1.1942928008	-0.910016334	-0.0919568884	 0.402803
C	-2.5135657035	-1.0147273059	 0.5821436741	-0.364765
C	-2.4070636197	-1.0079763299	-0.943687784	-0.364766
H	 0.7725946988	 1.7786045321	 0.0572167835	 0.286488
H	 0.821758738	-1.0700962088	-1.9698179299	 0.086417
H	 2.4985440027	-2.011409486	 0.1609425198	 0.113694
H	 2.6593533848	-0.2140351223	 0.1801212361	 0.089366
H	 0.5414182324	-1.0878652508	 2.0462946133	 0.086418
H	-2.7652378424	-1.956439042	 1.0587473698	 0.121657
H	-2.9174029766	-0.1337736489	 1.0701439607	 0.121707
H	-2.7397335083	-0.1225112913	-1.475280475	 0.121707
H	-2.5895078698	-1.9452990586	-1.4589073618	 0.121657
167.2057	189.9553	213.7209	251.4396	287.1466	375.3299	487.3438	535.5919	587.6739	636.212	742.6365	769.4072	838.7043	874.3834	885.1629	890.0834	895.498	917.8612	953.6273	987.2873	1014.4027	1025.7382	1038.4761	1044.471	1075.0017	1085.544	1133.1049	1162.2016	1178.8337	1184.7873	1225.291	1226.4041	1259.0993	1290.0622	1336.2598	1449.7482	1449.9037	1496.0297	1537.6799	3055.7156	3109.9442	3114.5985	3120.0253	3128.0564	3130.4164	3209.5857	3222.7763	3799.9238
OC12C3CC1N3C21CC1	O[C@@]12[C@H]3C[C@@H]1N3C12CC1	
InChI=1S/C7H9NO/c9-7-4-3-5(7)8(4)6(7)1-2-6/h4-5,9H,1-3H2	InChI=1S/C7H9NO/c9-7-4-3-5(7)8(4)6(7)1-2-6/h4-5,9H,1-3H2/t4-,5+,7+
