17
gdb 50105	2.75446	0.88262	0.723	4.9155	75.2	-0.2497	-0.0281	0.2216	1514.5356	0.135005	-417.999431	-417.990258	-417.989314	-418.034736	32.214	
O	 0.1475251805	-0.0219146385	 0.2076174378	-0.268281
C	 0.1238721447	 1.1748000875	 0.3654555085	 0.155349
C	 1.2945922046	 2.0566933233	 0.1345009017	-0.099698
C	 1.0483942461	 3.4699652553	-0.3815677272	-0.326336
C	 1.5275334406	 3.2864013466	 1.0149943281	 0.018445
N	 0.6014831881	 3.5545209274	 2.0784484824	-0.301495
C	 0.9679190477	 2.9117936452	 3.3387174391	-0.265678
C	 0.035204391	 3.2848927864	 4.4044832439	 0.253725
N	-0.6870861345	 3.6017058027	 5.2479262511	-0.290999
H	-0.7968875228	 1.6998539614	 0.6964472647	 0.091987
H	 2.1774358746	 1.5347042066	-0.2168651881	 0.112817
H	 1.7309382034	 3.8562288391	-1.1287785468	 0.135478
H	 0.0112451824	 3.7628587664	-0.5062343262	 0.138949
H	 2.5837356824	 3.4968576415	 1.20646102	 0.093991
H	 0.4957252413	 4.5545828113	 2.2134716857	 0.242472
H	 0.9311686973	 1.8240295769	 3.2045420644	 0.170467
H	 1.9903717225	 3.1515022707	 3.6810790008	 0.138808
43.6853	73.0029	119.5432	136.5292	214.1971	258.8948	304.82	387.9176	418.3574	455.8634	537.7593	577.5851	738.8007	792.0017	860.1326	868.2906	936.8145	982.529	1002.6358	1045.4039	1061.3696	1078.4243	1119.842	1138.736	1167.8288	1184.3326	1239.8301	1248.148	1341.0759	1365.6769	1416.7171	1437.7117	1470.1404	1490.1074	1498.5453	1812.6665	2370.7887	2914.0888	2951.5662	3052.1515	3058.2994	3142.3743	3184.1473	3234.9932	3526.1062
O=CC1CC1NCC#N	O=C[C@H]1C[C@H]1NCC#N	
InChI=1S/C6H8N2O/c7-1-2-8-6-3-5(6)4-9/h4-6,8H,2-3H2	InChI=1S/C6H8N2O/c7-1-2-8-6-3-5(6)4-9/h4-6,8H,2-3H2/t5-,6-/m1/s1
