17
gdb 51595	2.95124	0.99426	0.81664	5.3958	73.66	-0.2658	0.0066	0.2724	1370.0816	0.135955	-418.032119	-418.023076	-418.022132	-418.067048	31.995	
O	 0.4061385071	 1.1650754254	 1.446920699	-0.314708
C	 0.2577647024	 1.6461552137	 0.3455531267	 0.148876
N	 1.2446832706	 1.7727128856	-0.5904377522	-0.284805
C	 2.5314172062	 1.157010546	-0.4383659819	 0.011817
C	 3.7427096067	 1.8987402779	-0.9444240653	-0.323009
C	 3.5336002458	 1.7235010265	 0.537754161	 0.020978
C	 3.1731799592	 2.9076606645	 1.4185359884	-0.372531
C	 4.3532775164	 3.6715431106	 1.8251839544	 0.268268
N	 5.29204981	 4.2671295925	 2.1400866599	-0.306995
H	-0.7050027672	 2.0615228637	-0.0132495397	 0.084664
H	 0.9754708625	 2.0851310088	-1.511443135	 0.253704
H	 2.5279296371	 0.0738559414	-0.533510998	 0.115831
H	 4.5249531658	 1.3344940657	-1.4379515015	 0.131675
H	 3.5766306018	 2.8904689936	-1.3532696464	 0.125047
H	 4.1560611173	 0.9840167161	 1.0303509428	 0.116273
H	 2.4905737645	 3.5800246936	 0.8891833281	 0.147013
H	 2.6402316038	 2.5597463544	 2.3092397298	 0.177901
48.632	71.8924	116.6979	151.0777	227.2613	274.0428	313.0536	393.9844	419.6292	500.2213	543.0687	579.2961	765.3312	818.3126	854.6144	876.9808	888.942	953.2151	1027.9405	1037.7258	1043.4095	1076.6086	1113.6034	1137.813	1159.7818	1203.3882	1247.0643	1275.8179	1315.3945	1390.4193	1423.2008	1429.8442	1464.2699	1487.1596	1505.1334	1809.0086	2362.8449	2938.9199	3059.0564	3098.551	3130.2401	3137.181	3170.0861	3226.6621	3609.9132
O=CNC1CC1CC#N	O=CN[C@H]1C[C@H]1CC#N	
InChI=1S/C6H8N2O/c7-2-1-5-3-6(5)8-4-9/h4-6H,1,3H2,(H,8,9)	InChI=1S/C6H8N2O/c7-2-1-5-3-6(5)8-4-9/h4-6H,1,3H2,(H,8,9)/t5-,6+/m1/s1
