18
gdb 65730	3.70698	1.08599	0.9919	4.4323	72.61	-0.2508	0.0002	0.251	1224.0307	0.146199	-439.055007	-439.046557	-439.045613	-439.088045	31.798	
C	-0.0335476939	 1.6610367994	 0.0757379943	-0.448933
C	 0.0408252362	 0.1440805626	 0.0113313869	 0.382718
C	 1.0913865657	-0.5716711661	-0.8914125319	-0.229212
N	 1.6137677546	-1.3922067686	 0.2579100276	-0.120345
C	 2.1403791402	-0.4160412247	 1.2261500266	-0.251094
C	 0.6797225076	-0.615617607	 1.1715553422	-0.067059
O	-1.2882075027	-0.4045723676	-0.145983712	-0.232444
C	-1.9002239575	-0.2688796062	-1.3365117355	 0.159149
O	-3.0187786622	-0.642482767	-1.5301380052	-0.273462
H	 0.9435598171	 2.09024273	 0.3101361246	 0.127462
H	-0.3643834902	 2.0852252751	-0.8778291276	 0.126778
H	-0.7431237485	 1.9670354017	 0.8503217384	 0.141768
H	 0.6438052818	-1.2237094918	-1.6425284435	 0.129721
H	 1.8481844545	 0.0638633103	-1.3634260873	 0.109016
H	 2.6696241865	-0.8822514273	 2.0512820914	 0.133174
H	 2.5934556681	 0.5040550943	 0.8628168722	 0.114392
H	 0.1064297687	-1.0957259263	 1.9569091251	 0.11572
H	-1.268032336	 0.2101370992	-2.1071752463	 0.082651
92.2056	153.9101	191.3065	202.8433	227.7057	289.3629	376.9856	382.0288	467.92	470.4999	580.3329	715.4018	756.802	789.968	862.0712	875.7681	953.1163	974.8739	980.5015	1016.7417	1051.1146	1055.9256	1109.4177	1116.491	1159.1501	1175.6424	1193.1249	1212.4276	1225.2607	1264.5708	1295.7819	1370.783	1414.2089	1433.5818	1479.8221	1488.2861	1491.5516	1509.1585	1860.9668	2961.6207	3042.5521	3049.0804	3107.0191	3112.0688	3125.4278	3128.7509	3179.23	3200.792
CC1(CN2CC12)OC=O	C[C@]1(CN2C[C@@H]12)OC=O	
InChI=1S/C6H9NO2/c1-6(9-4-8)3-7-2-5(6)7/h4-5H,2-3H2,1H3	InChI=1S/C6H9NO2/c1-6(9-4-8)3-7-2-5(6)7/h4-5H,2-3H2,1H3/t5-,6+,7?/m0/s1
