19
gdb 68463	2.41272	1.91265	1.30231	2.9686	74.52	-0.2538	-0.0202	0.2336	1005.8637	0.160804	-423.055173	-423.04751	-423.046566	-423.087301	30.841	
O	-0.0294503151	 1.3931907418	-0.066102713	-0.493417
C	-0.0080331102	 0.0135565248	 0.0226239404	 0.344715
C	 0.1842353951	-0.6771441996	 1.4139577152	-0.284601
C	-0.6790924489	-1.8363108343	 0.8509938007	-0.020875
C	-1.3343682743	-0.7983079011	-0.1025490793	-0.291189
C	 0.2055266671	-2.8222625626	 0.0735787913	-0.21928
C	 1.0289133311	-2.1054078557	-1.0286709096	-0.31627
C	 1.0204622047	-0.586215944	-0.9189522708	 0.356796
O	 1.7622586508	 0.1343228441	-1.5520260156	-0.359318
H	 0.6862843236	 1.6239523454	-0.6820559288	 0.288434
H	 1.1994271673	-0.895813809	 1.7590446046	 0.098042
H	-0.3440850858	-0.0952228965	 2.1728568247	 0.116257
H	-1.3332641783	-2.3585803997	 1.5509182455	 0.073585
H	-2.1396248768	-0.2461972537	 0.3875158897	 0.117496
H	-1.6637077259	-1.1202103554	-1.0949398733	 0.096639
H	 0.8794710053	-3.3244750104	 0.7762721334	 0.108599
H	-0.4134128396	-3.6048289782	-0.3773402482	 0.104879
H	 2.0691316948	-2.4401741415	-1.0669213713	 0.13625
H	 0.6169817048	-2.3244931443	-2.0217027857	 0.14326
66.0572	152.5878	317.5646	338.4772	376.8168	395.9854	417.2338	486.0142	521.3966	559.3934	604.2236	672.6298	784.0245	810.9001	821.5205	871.8073	905.1237	944.3404	971.3941	982.37	1028.6052	1036.4163	1085.2953	1097.7959	1126.9266	1172.7769	1193.5821	1211.0521	1240.827	1245.699	1277.1898	1303.3153	1333.7333	1346.9627	1377.8844	1428.6018	1451.5391	1478.0463	1497.397	1513.9292	1797.4748	3035.8618	3042.1103	3049.7287	3054.623	3073.7017	3092.162	3097.1537	3114.2806	3117.3632	3663.0533
OC12CC(C1)CCC2=O	O[C@@]12C[C@@H](C1)CCC2=O	
InChI=1S/C7H10O2/c8-6-2-1-5-3-7(6,9)4-5/h5,9H,1-4H2	InChI=1S/C7H10O2/c8-6-2-1-5-3-7(6,9)4-5/h5,9H,1-4H2/t5-,7-
