19
gdb 87628	2.53598	1.46542	1.11821	1.9984	78.14	-0.236	0.0088	0.2448	1151.9998	0.158223	-423.019588	-423.010764	-423.00982	-423.053098	33.401	
C	-0.1433484511	 1.5763176264	 0.1088153388	-0.423755
C	-0.1774847309	 0.0766618706	 0.2504041996	 0.010415
O	 0.9610592842	-0.6548871697	-0.2271342869	-0.3181
C	 0.6774217385	-0.6843807337	 1.1809487548	 0.39095
C	 1.6506945261	-0.105482177	 2.1414167524	-0.151602
C	 1.6724262292	-0.7988189689	 3.2808804997	-0.079369
C	 0.6964725076	-1.9509204808	 3.268145933	-0.307644
C	 0.2502591151	-2.0299988847	 1.7824901234	 0.025626
O	-1.1371927301	-2.2482416359	 1.5939827646	-0.428274
H	 0.8301626406	 1.9869147209	 0.3861282112	 0.122219
H	-0.3497932028	 1.8627464265	-0.9278990313	 0.127998
H	-0.9103169593	 2.0357563753	 0.7416483123	 0.123923
H	-1.1277278753	-0.3934855703	-0.0006414147	 0.106443
H	 2.2466967732	 0.768797918	 1.9134687892	 0.104603
H	 2.2915243484	-0.5669672541	 4.1403692362	 0.100418
H	 1.134091405	-2.8865584745	 3.6349852646	 0.10167
H	-0.1805245516	-1.7393261257	 3.8937808146	 0.118836
H	 0.8326787601	-2.8043160286	 1.2628661195	 0.088041
H	-1.3185650468	-3.1796199439	 1.749952799	 0.287601
64.3506	157.402	163.4598	194.0711	241.0017	256.2001	333.1675	429.9555	458.0916	503.8272	525.7886	573.6411	685.3097	762.7898	780.1028	804.3152	893.9624	945.4382	963.2488	973.546	996.9056	1030.1912	1049.9984	1103.6245	1113.3494	1134.0366	1163.841	1182.1145	1225.7769	1243.3736	1290.1795	1320.1165	1326.2456	1391.3325	1408.0761	1432.1546	1464.7165	1484.4298	1487.2501	1506.0543	1675.9856	2999.4585	3022.906	3037.9807	3060.4839	3099.4046	3115.334	3134.1191	3190.1864	3222.4114	3830.3275
CC1OC11C=CCC1O	C[C@H]1O[C@]21C=CC[C@H]2O	
InChI=1S/C7H10O2/c1-5-7(9-5)4-2-3-6(7)8/h2,4-6,8H,3H2,1H3	InChI=1S/C7H10O2/c1-5-7(9-5)4-2-3-6(7)8/h2,4-6,8H,3H2,1H3/t5-,6-,7+/m1/s1
