22
gdb 107629	2.19078	1.48668	1.22557	2.9186	81.77	-0.2333	0.0725	0.3057	1178.4738	0.194569	-404.338703	-404.329541	-404.328597	-404.372466	35.	
C	 0.7837299415	-0.3664566458	-1.4329297861	-0.383528
C	 0.0564902032	-0.1299404282	-0.1018963694	-0.290623
C	-1.4103499338	-0.4950217321	-0.1092108188	 0.315296
N	-2.0974153007	-0.8533603656	 1.1544275095	-0.375376
C	-1.9306303977	-1.8671647429	 0.0896047555	-0.115159
C	-3.169965264	-1.999756473	-0.7669886763	-0.077939
O	-3.5336028226	-0.6711070663	-1.1171971	-0.274735
C	-2.3894444214	 0.1869254389	-1.0655893807	 0.106837
C	-2.8510973755	 1.5731980541	-0.6430490125	-0.406168
H	 1.8486880224	-0.1355530123	-1.3346326366	 0.116303
H	 0.6930888425	-1.4098669048	-1.7516689098	 0.119479
H	 0.3838879795	 0.2624782216	-2.233562561	 0.127309
H	 0.549960524	-0.7153851032	 0.6846753635	 0.093096
H	 0.1654631634	 0.9223387729	 0.1930174878	 0.108815
H	-1.3937409769	-1.0140287057	 1.8730069933	 0.223477
H	-1.2796579156	-2.7209308879	 0.249700429	 0.087122
H	-2.9420632467	-2.6079544362	-1.658445407	 0.085188
H	-4.021446209	-2.4498437707	-0.245509714	 0.110623
H	-1.9222275992	 0.2360152396	-2.0634440979	 0.062752
H	-3.2432490644	 1.5352871823	 0.3758078326	 0.140112
H	-2.0213331112	 2.2870166768	-0.6829499523	 0.104566
H	-3.6384487579	 1.9291122886	-1.3128395189	 0.122554
70.3644	133.7338	173.0017	202.9396	228.6835	253.3966	265.7815	363.6186	407.2984	458.3275	557.9471	569.7588	671.3613	759.2903	783.7051	848.9876	868.0772	887.0753	911.799	972.6589	979.716	1034.1691	1046.2295	1069.4669	1093.1116	1107.0111	1112.8499	1128.078	1146.7569	1167.539	1234.3959	1265.74	1300.6566	1325.2959	1356.5821	1363.1196	1389.5944	1395.9949	1405.0439	1413.9549	1451.6018	1481.4916	1487.6372	1499.5739	1499.9066	1508.0243	1510.2901	2957.5092	2967.0322	3013.7514	3039.9716	3041.8543	3045.528	3066.0596	3108.2695	3111.3171	3112.959	3136.3368	3162.6592	3481.0603
CCC12NC1COC2C	CC[C@]12N[C@H]1CO[C@H]2C	
InChI=1S/C7H13NO/c1-3-7-5(2)9-4-6(7)8-7/h5-6,8H,3-4H2,1-2H3	InChI=1S/C7H13NO/c1-3-7-5(2)9-4-6(7)8-7/h5-6,8H,3-4H2,1-2H3/t5-,6-,7+/m0/s1
