19
gdb 125644	3.0981	1.48753	1.0346	2.3342	82.3	-0.217	0.0329	0.25	1164.0668	0.162751	-382.111442	-382.103455	-382.102511	-382.143996	30.471	
C	-0.0186961172	 1.4994246546	-0.086135391	-0.496412
C	-0.0196927439	 0.0088981738	 0.0423930709	 0.180073
N	-0.0291425809	-0.7604000512	-1.0512358613	-0.29145
N	-0.0199395232	-2.0406845091	-0.5931516858	-0.338997
C	-0.0205119934	-2.0898550785	 0.7557052821	 0.365995
C	-0.0176510064	-0.7949289572	 1.2075462108	 0.183725
C	 0.0351561161	-0.7500093303	 2.70912332	-0.359592
C	-0.2754370415	-2.237443335	 3.090685056	-0.19199
C	 0.0325142385	-3.1227914363	 1.836162431	-0.350768
H	 0.8766732395	 1.9409414998	 0.3664146048	 0.123562
H	-0.0461342494	 1.7824959881	-1.1405096514	 0.138592
H	-0.8853057284	 1.9457559027	 0.4147595833	 0.123386
H	-0.0412008954	-2.7911825158	-1.2613370215	 0.265578
H	 1.0255479252	-0.4454196121	 3.0735463067	 0.105564
H	-0.6869285827	-0.0644130003	 3.1653956289	 0.105054
H	 0.2794991941	-2.5681209886	 3.9722910554	 0.100144
H	-1.3397150741	-2.3271840066	 3.32797033	 0.112143
H	-0.6909992489	-3.9369621855	 1.7216600856	 0.110299
H	 1.0255497221	-3.5872243523	 1.9014225257	 0.115095
108.2877	128.8609	167.729	239.3192	244.6637	335.6795	461.2585	483.1901	560.7756	616.1652	673.5352	692.3353	718.7146	796.2484	838.2621	899.735	905.5395	990.6165	1002.9995	1055.8368	1067.5443	1073.3917	1132.264	1155.8182	1196.0477	1212.8075	1222.7534	1284.2501	1309.1248	1337.5685	1349.9443	1408.5831	1419.9398	1482.9181	1483.8224	1488.584	1494.6967	1505.9402	1512.9219	1544.9573	1610.7662	3011.5635	3015.4511	3029.8163	3049.4594	3059.3253	3066.8637	3078.3276	3104.8358	3129.8462	3679.7044
CC1=NNC2=C1CCC2	Cc1n[nH]c2c1CCC2	
InChI=1S/C7H10N2/c1-5-6-3-2-4-7(6)9-8-5/h2-4H2,1H3,(H,8,9)	InChI=1S/C7H10N2/c1-5-6-3-2-4-7(6)9-8-5/h2-4H2,1H3,(H,8,9)
