15
gdb 81325	4.02895	1.13722	1.05461	3.7093	74.76	-0.2517	-0.0595	0.1923	1120.6593	0.115084	-416.774873	-416.767893	-416.766949	-416.806364	27.533	
O	 0.1786878322	 1.3167126857	-0.1825738605	-0.432406
C	 0.06788467	-0.0506496744	-0.0634154095	 0.214517
C	 0.0524986386	-0.6437879488	 1.4231680568	-0.108334
N	-1.3604066569	-0.1349716461	 1.4469661666	-0.325887
C	-1.4020064325	-0.6483407532	 0.0441299815	-0.174892
C	-1.0541868474	-2.1398072741	 0.1788500112	 0.234788
C	-0.0756875445	-2.1224835033	 1.1078133134	-0.191088
C	-1.5842859238	-3.2031735055	-0.57982533	 0.178897
N	-2.0508304503	-4.0547629508	-1.2134876256	-0.344858
H	-0.4405084067	 1.6928987523	 0.460376823	 0.294831
H	 0.7437343565	-0.5225802294	-0.776618322	 0.10823
H	 0.7383145972	-0.3073392499	 2.1987572502	 0.089967
H	-1.9671126516	-0.6496798182	 2.0867824332	 0.219493
H	-2.2227985111	-0.3463378633	-0.6039734091	 0.097172
H	 0.5352529003	-2.935367691	 1.4720377006	 0.139569
115.1433	155.5725	290.1098	340.8187	442.9545	478.5962	503.2565	576.0102	599.2001	620.797	643.7922	775.7062	796.3479	871.8366	893.7631	904.2838	941.9988	951.2954	1025.286	1073.0099	1098.5402	1157.1986	1171.9787	1196.681	1208.5005	1239.8819	1268.2205	1291.4069	1314.4182	1320.7811	1442.8292	1623.1645	2332.2253	3130.256	3141.7667	3145.6773	3247.8829	3448.1634	3736.801
OC1C2NC1C(=C2)C#N	O[C@H]1[C@H]2N[C@@H]1C(=C2)C#N	
InChI=1S/C6H6N2O/c7-2-3-1-4-6(9)5(3)8-4/h1,4-6,8-9H	InChI=1S/C6H6N2O/c7-2-3-1-4-6(9)5(3)8-4/h1,4-6,8-9H/t4-,5+,6-/m0/s1
