21
gdb 76573	2.69374	1.22232	1.15509	1.533	78.65	-0.2357	0.0751	0.3109	1214.8617	0.181865	-424.212839	-424.203486	-424.202542	-424.247431	34.355	
C	-0.0792906439	 0.9199479639	-2.0353025567	-0.416282
C	-0.0411511072	-0.2036210054	-1.0213440009	-0.107023
C	 1.2221429943	-0.6079289523	-0.257601638	-0.095432
C	 2.5601217498	 0.0707638537	-0.4546630041	-0.415783
C	 0.059832175	 0.0512052084	 0.4479252776	 0.378238
C	 0.1284732784	 1.4237029836	 1.1285995943	-0.166706
O	-0.5225630486	 1.2237150809	 2.3813658067	-0.248448
C	-0.5893914637	-0.1711650427	 2.5685455238	 0.011314
O	-0.7558647097	-0.7365013007	 1.2929395697	-0.2696
H	 0.554618451	 1.7642091687	-1.7495318345	 0.11722
H	 0.2601497856	 0.5735295833	-3.0173296929	 0.121241
H	-1.0990834085	 1.3023710948	-2.1525555734	 0.124917
H	-0.6906741238	-1.0405806941	-1.2656410583	 0.098601
H	 1.288761324	-1.6756576545	-0.0646744142	 0.094006
H	 2.4654493637	 1.1488429729	-0.6124526947	 0.117213
H	 3.2061143121	-0.0751425005	 0.4182067667	 0.120795
H	 3.0834190583	-0.3396201706	-1.3253298467	 0.120878
H	 1.1635618561	 1.758637752	 1.2783917912	 0.103353
H	-0.4148790033	 2.2026614083	 0.583806467	 0.114838
H	 0.3367695614	-0.5450844148	 3.0440809713	 0.078425
H	-1.458176351	-0.4116636047	 3.187140006	 0.118234
38.8017	146.2825	162.6011	173.925	200.3115	212.6043	246.5254	298.6844	429.1396	481.1176	520.7076	538.6013	742.4698	765.5985	804.8167	828.5719	906.068	965.5342	1008.8628	1014.1258	1019.3018	1037.5375	1083.7528	1102.9754	1110.8471	1141.823	1153.9264	1170.003	1180.6647	1212.1385	1232.5818	1240.7931	1308.9512	1360.6139	1369.6142	1412.7851	1417.053	1428.5199	1464.6788	1486.9889	1494.4366	1500.5602	1512.5974	1526.5116	1540.3658	2925.4869	3011.5514	3030.0482	3034.5016	3064.2239	3087.9866	3092.6395	3094.0171	3100.0852	3109.2411	3136.8704	3147.7003
CC1C(C)C11COCO1	C[C@H]1[C@@H](C)[C@]21COCO2	
InChI=1S/C7H12O2/c1-5-6(2)7(5)3-8-4-9-7/h5-6H,3-4H2,1-2H3	InChI=1S/C7H12O2/c1-5-6(2)7(5)3-8-4-9-7/h5-6H,3-4H2,1-2H3/t5-,6+,7+
