17
gdb 44701	2.94243	1.36392	1.1565	3.6948	71.63	-0.2471	-0.038	0.2091	1082.1411	0.13575	-421.86796	-421.860283	-421.859339	-421.901304	29.191	
O	 0.0713034053	 0.0816073162	-0.7223546762	-0.287516
C	 0.0035367698	 1.171793466	-0.2354414741	 0.40623
C	-1.1410627179	 2.0107394468	 0.3537505106	-0.362871
C	-0.1003672168	 3.1134439774	 0.7257116771	-0.037089
C	 0.2448672763	 3.2475846019	 2.2112867777	-0.331046
C	 1.3825510928	 2.253668685	 2.4911001203	 0.382705
O	 1.6952037871	 1.8335716282	 3.5728674043	-0.295716
C	 2.0663411603	 1.8949087289	 1.1628273074	-0.335124
C	 1.0571530039	 2.2565147704	 0.0672987291	-0.157728
H	-1.881826707	 2.308038253	-0.3949331543	 0.137545
H	-1.6716973186	 1.537045884	 1.1862279397	 0.135702
H	-0.296101912	 4.0732502445	 0.2488551501	 0.084521
H	 0.6350911158	 4.2484357549	 2.4374976271	 0.134661
H	-0.5909405753	 3.07357428	 2.893647624	 0.133847
H	 2.9786392214	 2.4985867094	 1.0814535376	 0.136453
H	 2.3727346824	 0.8461299491	 1.1580023099	 0.15139
H	 1.5202449125	 2.6637640742	-0.8342304304	 0.104036
38.796	64.443	197.5989	335.0854	425.2924	440.5715	457.8339	510.8929	565.3676	627.5016	707.7908	728.4355	774.9796	793.1189	833.7319	879.7865	939.081	969.1084	1024.7094	1057.5235	1065.6211	1112.2972	1137.3686	1141.1882	1159.5786	1215.1767	1221.5173	1252.9292	1263.7999	1276.1895	1307.9976	1343.5864	1430.4634	1446.5541	1455.2495	1848.7371	1891.797	3034.9091	3041.6945	3052.206	3087.2844	3100.8674	3103.053	3110.7873	3114.9188
O=C1CC2CC(=O)CC12	O=C1C[C@H]2CC(=O)C[C@@H]12	
InChI=1S/C7H8O2/c8-5-1-4-2-7(9)6(4)3-5/h4,6H,1-3H2	InChI=1S/C7H8O2/c8-5-1-4-2-7(9)6(4)3-5/h4,6H,1-3H2/t4-,6-/m1/s1
