24
gdb 119054	1.94299	1.0921	0.87124	1.9868	86.24	-0.2289	0.081	0.3099	1515.5507	0.215797	-405.519604	-405.50875	-405.507806	-405.555818	39.778	
C	-0.6820287296	 0.4574199911	-3.9882842986	-0.382187
C	-0.4196216285	-0.8702774233	-3.2718761691	-0.164455
C	 0.2995918206	-0.6827265382	-1.9268662706	-0.258503
C	 0.5557334924	-1.9841175554	-1.1834895283	 0.303243
C	-0.6663497726	-2.5911720668	-0.5088355361	-0.108892
O	-1.0376921157	-1.8341953901	 0.6311042142	-0.423544
C	 1.6681602997	-2.8914820992	-1.5924547037	-0.300008
N	 1.7391003792	-2.1740084564	-0.3216008129	-0.134297
C	 2.7511138228	-1.1356392358	-0.1913669518	-0.317427
H	-1.3095940128	 1.1173944237	-3.3794610715	 0.118046
H	 0.2538959281	 0.989257983	-4.19359192	 0.112398
H	-1.1919593225	 0.3005758654	-4.9438645757	 0.111886
H	-1.3723262778	-1.3906504772	-3.1166924423	 0.102286
H	 0.1826788877	-1.5249788971	-3.914437448	 0.095768
H	 1.2411894997	-0.1548298089	-2.1089551723	 0.091509
H	-0.3022367686	-0.0358893389	-1.2756312318	 0.112939
H	-1.5337499926	-2.5876010963	-1.1766336179	 0.104794
H	-0.4518170889	-3.6356491684	-0.239643358	 0.085457
H	-0.2554765251	-1.8307028901	 1.1966198612	 0.286142
H	 1.5626696701	-3.9725942062	-1.5342035216	 0.109981
H	 2.3185479271	-2.5463176624	-2.3965066818	 0.103171
H	 3.0461145788	-0.6570181993	-1.1375047094	 0.10491
H	 2.3943836507	-0.3560148804	 0.4896781451	 0.12218
H	 3.6495038777	-1.5823145229	 0.247203501	 0.124601
68.225	77.0681	96.3885	136.801	181.4866	207.418	249.8745	270.5062	281.4873	325.4992	388.4202	448.0538	470.3707	502.2029	564.0007	742.7441	747.9156	799.5815	876.907	884.1922	922.1815	939.4467	982.5	1038.8656	1050.2054	1071.1965	1079.5662	1117.7703	1125.7261	1152.8691	1171.575	1197.3731	1222.2094	1261.5814	1302.3492	1315.1933	1333.5705	1364.0837	1387.2457	1413.6405	1417.2039	1431.9677	1450.4406	1478.9355	1489.3682	1493.2918	1497.4416	1500.6157	1503.8754	1511.2999	1514.6149	2982.3667	2997.3257	3021.8024	3028.8381	3033.7119	3051.2098	3064.6399	3078.2768	3080.8863	3082.7377	3098.4234	3098.7287	3103.0904	3163.5737	3780.8765
CCCC1(CO)CN1C	CCC[C@@]1(CO)CN1C	
InChI=1S/C7H15NO/c1-3-4-7(6-9)5-8(7)2/h9H,3-6H2,1-2H3	InChI=1S/C7H15NO/c1-3-4-7(6-9)5-8(7)2/h9H,3-6H2,1-2H3/t7-,8?/m0/s1
