19
gdb 53940	2.13101	1.47122	1.21723	2.8746	72.	-0.2417	0.0077	0.2494	1128.1602	0.157938	-456.425104	-456.414912	-456.413968	-456.460118	37.967	
C	-0.0564968224	 1.4996127329	 0.4980924961	-0.400195
C	 0.104974217	-0.0002542458	 0.1383016795	 0.027189
C	 1.1237768004	-0.6530611887	 1.0812337467	-0.442259
C	-1.2779599194	-0.6919847655	 0.3623645247	 0.389229
N	-2.244008835	-0.3539068363	-0.526505258	-0.519859
O	-1.4646065316	-1.4252520726	 1.3158165096	-0.376752
C	 0.4915210733	-0.0667780552	-1.354250827	 0.418998
N	 1.6526015238	-0.6911329654	-1.6692791718	-0.529334
O	-0.2101388221	 0.4370439573	-2.2237532045	-0.401297
H	 0.9124376712	 2.0075953358	 0.453474936	 0.118485
H	-0.7379274978	 1.9957762862	-0.1935951082	 0.14139
H	-0.4475677135	 1.596917644	 1.5147629862	 0.130074
H	 0.770002541	-0.5735261452	 2.1095596918	 0.14707
H	 1.2423869214	-1.72164821	 0.8789087559	 0.124922
H	 2.0967175827	-0.1551344743	 1.0111902983	 0.105197
H	-1.9771050641	 0.1016318885	-1.3901380472	 0.280122
H	-3.1285083349	-0.8289887118	-0.4485121546	 0.254409
H	 2.2411291489	-1.1295924171	-0.9854185736	 0.267989
H	 1.9056503412	-0.7433588568	-2.6426612496	 0.264621
49.2798	62.4138	216.8431	232.2048	232.3555	257.7162	287.5267	302.9295	344.7395	361.1264	403.4992	435.811	468.7512	533.4303	593.348	616.1397	668.3274	696.1575	752.8416	794.6187	828.1215	940.6195	968.7698	1026.8189	1094.7979	1131.1667	1176.6858	1191.746	1229.0819	1335.2897	1364.5651	1394.5747	1423.8163	1484.8044	1486.6878	1501.3509	1509.1296	1602.9705	1614.5398	1749.8929	1791.1344	3037.7318	3042.9966	3106.9587	3110.8156	3143.3549	3149.7052	3523.1187	3610.8682	3692.3878	3752.0988
CC(C)(C(N)=O)C(N)=O	CC(C)(C(=O)N)C(=O)N	
InChI=1S/C5H10N2O2/c1-5(2,3(6)8)4(7)9/h1-2H3,(H2,6,8)(H2,7,9)	InChI=1S/C5H10N2O2/c1-5(2,3(6)8)4(7)9/h1-2H3,(H2,6,8)(H2,7,9)
