18
gdb 54710	4.52637	1.17251	1.07055	1.3475	76.7	-0.2341	-0.0202	0.2139	1160.8954	0.14685	-401.863017	-401.855122	-401.854178	-401.89631	29.697	
C	-0.0493780555	 1.5492776861	-0.2453312963	-0.481426
C	 0.1197827313	 0.0689883439	 0.0400332293	 0.362052
O	 1.2096440206	-0.4354364718	 0.2034333899	-0.307705
C	-1.151543237	-0.7492944574	 0.0898098204	-0.121763
C	-1.4689407696	-1.6551992199	-1.1246320192	-0.016147
C	-0.4620727429	-2.7725203353	-0.7164174777	-0.06105
C	-1.5970374424	-3.7865785536	-0.7935325788	-0.189295
N	-2.3498398631	-2.5763914803	-0.2433493221	-0.169443
C	-1.0898968464	-2.1976696285	 0.5885055747	-0.00702
H	 0.9254179197	 2.0196271795	-0.3785710105	 0.142625
H	-0.6673579069	 1.7028825901	-1.1373445306	 0.138967
H	-0.576298994	 2.0294154806	 0.5878895896	 0.144547
H	-2.0171248234	-0.1729678576	 0.4329248854	 0.09014
H	-1.7937556019	-1.3687562966	-2.1269099037	 0.087098
H	 0.5963026938	-2.8537086862	-0.9680059998	 0.093033
H	-1.9470289922	-4.1034287653	-1.7817317858	 0.101629
H	-1.579086765	-4.6361050728	-0.1029145463	 0.104079
H	-0.966089785	-2.5667145951	 1.6073231213	 0.089682
37.1013	136.8573	150.4118	168.5654	335.8753	377.4961	429.624	587.8268	603.6634	714.9761	793.4082	808.3826	847.6396	857.6268	891.3986	910.4987	923.89	959.1282	984.8627	1028.0224	1030.9676	1035.7819	1071.1727	1105.0172	1132.1344	1153.3539	1159.845	1184.0946	1192.2854	1217.1352	1256.2427	1273.635	1306.2735	1370.574	1389.8709	1461.6457	1474.1949	1518.4578	1799.2001	3032.7676	3036.5067	3062.3145	3092.325	3092.8335	3095.2501	3101.4999	3114.4255	3152.6679
CC(=O)C1C2C3CN2C13	CC(=O)[C@H]1[C@H]2[C@@H]3CN2[C@H]13	
InChI=1S/C7H9NO/c1-3(9)5-6-4-2-8(6)7(4)5/h4-7H,2H2,1H3	InChI=1S/C7H9NO/c1-3(9)5-6-4-2-8(6)7(4)5/h4-7H,2H2,1H3/t4-,5-,6+,7-
