18
gdb 38034	3.61373	1.59028	1.27061	3.7244	75.5	-0.2287	0.0214	0.2501	999.9747	0.151433	-401.953024	-401.946426	-401.945482	-401.983848	27.201	
C	 0.1297729301	 1.5042121185	-0.1160581425	-0.290877
C	 1.3809660907	 0.6690325389	-0.0367997376	 0.004844
N	 1.9630509238	 0.5987855562	 1.2951576464	-0.314599
C	 1.1361232383	-0.0689675368	 1.9886374331	 0.418565
O	 1.0792600427	-0.1726421338	 3.3293311166	-0.248791
C	-0.2300289296	-0.6965739372	 3.6713834448	-0.084413
C	-1.1193061479	-0.4810322577	 2.4233197363	-0.26701
C	-0.0760827805	-0.6808565164	 1.3141768443	-0.096962
C	-0.0055527343	-0.0016665799	-0.0356274769	-0.104347
H	-0.1094487369	 2.1188616194	 0.7463844971	 0.116408
H	-0.1256030947	 1.9507614765	-1.0715442756	 0.113657
H	 2.0658198332	 0.6224050608	-0.8749539866	 0.092426
H	-0.1304834636	-1.7612381857	 3.9158085778	 0.116386
H	-0.5709029601	-0.162370631	 4.5606360472	 0.126265
H	-1.9580247523	-1.1795644337	 2.3930810105	 0.111699
H	-1.5146700122	 0.539692755	 2.409297577	 0.120104
H	 0.0905823498	-1.760312945	 1.1857696331	 0.097717
H	-0.3726583466	-0.526007848	-0.9087811652	 0.088928
167.1924	183.6286	255.2513	433.1775	446.1592	493.6916	610.4213	649.1113	679.0757	726.5396	779.3694	808.3899	831.7055	863.481	924.1022	938.4816	960.8845	985.3231	1017.9915	1054.0547	1065.6672	1083.5614	1095.509	1122.369	1136.2685	1185.4505	1187.4854	1222.4341	1246.1026	1282.349	1312.6496	1313.7478	1363.3331	1374.2353	1413.2483	1472.6811	1493.8155	1519.6356	1740.2372	3001.4929	3034.1327	3060.0128	3109.2278	3120.6507	3123.1764	3182.1891	3189.132	3212.4991
C1C2N=C3OCCC3C12	C1[C@H]2[N][C]3OCC[C@H]3[C@@H]12	
InChI=1S/C7H9NO/c1-2-9-7-4(1)5-3-6(5)8-7/h4-6H,1-3H2	InChI=1S/C7H9NO/c1-2-9-7-4(1)5-3-6(5)8-7/h4-6H,1-3H2/t4-,5+,6+/m0/s1
