18
gdb 33934	3.20457	1.41079	1.24325	1.5568	82.28	-0.2296	0.0499	0.2794	1060.8361	0.148833	-364.749169	-364.741674	-364.74073	-364.780739	30.803	
C	 0.0565449623	-1.2052507455	 0.0063638469	-0.395729
C	 0.0480663854	-0.0014830333	 0.0195700719	 0.165639
C	 0.0212212399	 1.4276579151	 0.0560083894	 0.202192
C	 0.2995639156	 2.2472075417	-1.1972970799	-0.322654
C	 1.2912329569	 2.2854639885	-0.0724364225	-0.092135
C	 1.2361446417	 3.4030955158	 0.9734674324	-0.236497
C	-0.1155900498	 3.2748712179	 1.6696723518	-0.027937
N	-1.2802768036	 3.4684110465	 0.7807708664	-0.338906
C	-0.8400532296	 2.1005426222	 1.1196555589	-0.128829
H	 0.0681701673	-2.2663938767	-0.0134730644	 0.182107
H	 0.5810582027	 1.6874124399	-2.0818609929	 0.116965
H	-0.3439738912	 3.1025995806	-1.3604847117	 0.144745
H	 2.2422760916	 1.7899825611	-0.2313256477	 0.098703
H	 2.0336375488	 3.2530111589	 1.7092079152	 0.105901
H	 1.3759009508	 4.3968242138	 0.5345470411	 0.11419
H	-0.204163706	 3.5724535642	 2.7100694006	 0.088308
H	-2.0980902245	 3.7092191417	 1.3350867983	 0.231967
H	-1.4811112784	 1.4683342077	 1.7226287361	 0.091969
131.199	147.3973	268.019	310.9416	402.7655	468.2262	482.1532	507.2688	554.6179	595.836	648.677	688.3205	716.3413	799.6348	824.7688	853.072	877.8085	889.4453	911.6462	944.9466	970.4651	1036.1765	1053.7852	1082.0051	1090.1553	1104.7107	1137.8015	1169.8406	1211.1413	1227.1039	1246.0648	1270.8543	1326.5875	1342.3203	1401.3926	1418.9286	1470.9046	1481.7163	2232.1696	3043.0655	3082.316	3144.3761	3154.6234	3174.9749	3185.7164	3242.1591	3501.0808	3504.4614
C#CC12CC1CC1NC21	C#C[C@]12C[C@H]1C[C@H]1N[C@@H]21	
InChI=1S/C8H9N/c1-2-8-4-5(8)3-6-7(8)9-6/h1,5-7,9H,3-4H2	InChI=1S/C8H9N/c1-2-8-4-5(8)3-6-7(8)9-6/h1,5-7,9H,3-4H2/t5-,6-,7-,8+/m1/s1
