17
gdb 24587	4.69718	1.08144	1.01049	1.7127	76.08	-0.2223	0.0037	0.226	1203.5659	0.137575	-421.832368	-421.824847	-421.823902	-421.865413	27.863	
C	-0.1302325302	 1.1228648807	-0.2575048679	-0.057768
C	 1.3774967142	 1.4202357107	-0.1725182569	-0.300496
C	 1.4359702997	 0.1560961169	 0.7255200936	 0.028737
O	 0.0236650151	-0.1040878988	 0.4865649793	-0.289192
C	 2.3214529554	-0.9589438535	 0.327211485	 0.384317
C	 3.1615121125	-1.7717640789	 1.0268076215	-0.285293
C	 3.750662815	-2.6674365738	 0.0779170016	-0.170723
C	 3.2216979683	-2.3303326731	-1.1271530038	-0.014358
O	 2.3552586445	-1.2943035321	-0.9969375823	-0.1784
H	-0.7774321243	 1.8383303498	 0.265808483	 0.098413
H	-0.5355810497	 0.9436769868	-1.2596578354	 0.108079
H	 1.9149744646	 1.3094982272	-1.1142358136	 0.124212
H	 1.6670452327	 2.3548559451	 0.3091440564	 0.110964
H	 1.6167400547	 0.3699038768	 1.7868052168	 0.081957
H	 3.3346875688	-1.7382903489	 2.0913010903	 0.112423
H	 4.4652984676	-3.4521722836	 0.2695742924	 0.113155
H	 3.3485849611	-2.7109521411	-2.1274043399	 0.133974
67.1957	71.5257	142.7376	206.1661	390.8892	394.6604	614.409	658.2613	711.3984	757.989	790.4262	814.4357	840.7841	855.6698	900.8177	915.2667	946.0073	961.1686	1006.8339	1027.0211	1041.3296	1085.5475	1115.7011	1164.6058	1191.4782	1216.229	1238.4919	1256.6625	1260.6762	1278.1958	1353.5627	1364.7332	1421.9365	1487.4774	1527.8054	1538.4291	1635.9432	3014.2448	3024.1536	3060.7032	3089.7762	3150.022	3251.0136	3262.0286	3283.9691
C1CC(O1)C1=CC=CO1	C1C[C@@H](O1)c1ccco1	
InChI=1S/C7H8O2/c1-2-6(8-4-1)7-3-5-9-7/h1-2,4,7H,3,5H2	InChI=1S/C7H8O2/c1-2-6(8-4-1)7-3-5-9-7/h1-2,4,7H,3,5H2/t7-/m1/s1
