15
gdb 28557	2.47459	1.77212	1.03839	3.8469	71.01	-0.1959	-0.0359	0.16	1071.1867	0.113517	-453.9962	-453.98808	-453.987136	-454.02929	30.105	
N	 0.1723789687	 1.4093531746	 0.0236435646	-0.611848
C	-0.0298569674	 0.0142550949	-0.0123820082	 0.23817
C	-1.1189638236	-0.7980556902	-0.0383795678	-0.187154
C	-0.6899592953	-2.1740399638	-0.0703114061	-0.282218
C	 0.6713882011	-2.1725158754	-0.0630417243	 0.412266
O	 1.5436457862	-3.1844469675	-0.0836062939	-0.431718
N	 1.1111099452	-0.8377876843	-0.0274750724	-0.147336
C	 2.4238278605	-0.4459598231	-0.0104208962	 0.188562
O	 3.3595175681	-1.2298157606	-0.0259638668	-0.358225
H	-0.2110040075	 1.8793462023	-0.788670552	 0.251105
H	-0.2226880951	 1.8385271678	 0.8527559871	 0.251123
H	-2.144048401	-0.4581005018	-0.0353900131	 0.103023
H	-1.3140002658	-3.0519400203	-0.0954694277	 0.112953
H	 2.4410728327	-2.7909630929	-0.0686690934	 0.320131
H	 2.5398384431	 0.6449777001	 0.0167334602	 0.141168
51.6344	131.8807	205.9096	259.4623	287.2262	329.0346	341.7551	482.9064	557.9595	600.9166	638.0321	666.3023	685.834	727.0035	771.6415	774.1953	842.1565	843.7691	1024.5498	1058.3245	1072.0985	1204.4329	1210.0317	1251.4238	1307.0463	1342.9278	1370.927	1408.617	1487.8466	1618.136	1658.21	1675.7629	1767.8589	3071.0442	3243.7625	3271.644	3500.4056	3509.7932	3575.9436
NC1=CC=C(O)N1C=O	Nc1ccc(O)n1C=O	
InChI=1S/C5H6N2O2/c6-4-1-2-5(9)7(4)3-8/h1-3,9H,6H2	InChI=1S/C5H6N2O2/c6-4-1-2-5(9)7(4)3-8/h1-3,9H,6H2
