20
gdb 55394	3.32867	1.07982	0.94632	3.4103	80.73	-0.2341	0.026	0.26	1296.1459	0.172352	-403.207181	-403.198031	-403.197087	-403.242168	33.719	
N	 0.2699808733	 0.8982266851	-0.8420318629	-0.526925
C	 0.0168446634	 0.0694027917	 0.212702196	 0.3996
O	 0.8271267599	-0.112072786	 1.1028637084	-0.372215
C	-1.331927926	-0.6482035353	 0.1709478802	-0.095852
C	-1.1220101817	-2.1023413453	-0.3047746159	-0.190827
C	-2.4555396293	-2.8550938615	-0.4025615441	-0.270195
C	-3.3364244529	-2.6064215892	 0.79372388	-0.038979
C	-3.1162128093	-1.6298942216	 1.6726646342	-0.066704
C	-1.9891703294	-0.6385435272	 1.5613816394	-0.24345
H	 1.1546285759	 1.3782435374	-0.872827769	 0.258966
H	-0.4087106868	 1.0821241962	-1.5588151648	 0.257038
H	-1.9970460368	-0.1451289132	-0.543915405	 0.061334
H	-0.605838527	-2.1161448529	-1.2710919975	 0.092593
H	-0.4632270133	-2.6001695592	 0.4154948432	 0.12336
H	-2.9895874678	-2.5682296998	-1.3214489615	 0.102225
H	-2.262917688	-3.9306901027	-0.5047440284	 0.105549
H	-4.1852137358	-3.2728440364	 0.9277359428	 0.081771
H	-3.7773457146	-1.5165104141	 2.5287843763	 0.083524
H	-1.2125969102	-0.845405125	 2.3088633388	 0.138692
H	-2.3591199237	 0.3691624088	 1.7913688097	 0.100494
29.5902	91.4068	108.3606	185.6339	187.4247	297.9283	333.9147	399.7457	477.3596	516.0921	584.7175	619.3037	675.0009	734.5258	754.968	813.9816	872.2502	921.1945	931.6521	957.5935	997.9122	1006.4321	1055.8431	1074.3926	1087.0198	1097.705	1157.5337	1206.6151	1221.1978	1269.3392	1284.0519	1323.2116	1353.1579	1361.5171	1375.5688	1409.8723	1416.5507	1474.6398	1479.0785	1495.4482	1614.7642	1727.4858	1789.547	2991.2511	3007.8911	3020.3448	3032.0235	3042.816	3053.1963	3082.089	3141.2257	3165.054	3603.2535	3742.9534
NC(=O)C1CCC=CC1	NC(=O)[C@H]1CCC=CC1	
InChI=1S/C7H11NO/c8-7(9)6-4-2-1-3-5-6/h1-2,6H,3-5H2,(H2,8,9)	InChI=1S/C7H11NO/c8-7(9)6-4-2-1-3-5-6/h1-2,6H,3-5H2,(H2,8,9)/t6-/m1/s1
