18
gdb 80129	2.51262	1.80774	1.29037	3.4367	76.89	-0.2409	0.0023	0.2431	1017.3264	0.149361	-401.977984	-401.970305	-401.969361	-402.01017	29.518	
C	-0.4849047445	 1.5086395706	 0.1313299924	-0.404088
C	-0.0978614362	 0.041622701	 0.0046597936	-0.151151
C	 0.7414981849	-0.4437948614	-1.2250927221	-0.04472
C	 1.5741558055	 0.5260793638	-2.023615518	-0.08162
C	 2.8710596428	 0.3867446773	-1.7410164367	-0.070362
C	 3.1126050545	-0.6765626496	-0.6841312958	-0.238096
N	 1.7439408795	-1.0194684036	-0.2792446321	-0.10765
C	 1.1390250241	-0.3943693835	 0.8220147071	 0.392915
O	 1.5403401125	-0.2065534415	 1.9371536018	-0.348082
H	 0.3635116308	 2.1640028797	-0.0858205129	 0.127145
H	-1.2998755236	 1.7635704643	-0.5535066992	 0.117807
H	-0.8179772965	 1.7188582887	 1.1517031808	 0.139341
H	-0.9629352678	-0.6037578969	 0.1861596816	 0.102298
H	 0.2381747068	-1.1826272615	-1.8598236672	 0.089006
H	 1.1588878812	 1.1935086589	-2.7686626288	 0.107817
H	 3.6831253736	 0.9270359434	-2.2134481696	 0.10848
H	 3.653379172	-1.5422068281	-1.0888397503	 0.11899
H	 3.6701624902	-0.3146213814	 0.1865381054	 0.141971
96.5355	169.1845	192.962	217.8175	262.2406	371.1638	459.8981	561.9254	626.274	648.1366	720.6079	755.5006	802.8252	841.7542	850.6754	919.2937	937.4112	966.8572	1001.9252	1013.2295	1073.713	1076.7723	1100.3214	1123.1332	1152.5723	1194.8947	1212.7022	1243.0294	1291.1382	1313.4192	1333.5848	1342.3114	1367.3445	1409.7624	1494.0126	1498.4531	1499.3095	1663.2294	1878.1683	3018.0882	3032.0942	3040.3382	3064.5614	3073.9995	3110.2914	3118.4623	3197.9819	3222.1017
CC1C2C=CCN2C1=O	C[C@H]1[C@H]2C=CCN2C1=O	
InChI=1S/C7H9NO/c1-5-6-3-2-4-8(6)7(5)9/h2-3,5-6H,4H2,1H3	InChI=1S/C7H9NO/c1-5-6-3-2-4-8(6)7(5)9/h2-3,5-6H,4H2,1H3/t5-,6+/m0/s1
