19
gdb 77978	2.45379	1.55527	1.28673	1.3701	76.06	-0.2299	0.0057	0.2356	1064.7672	0.158219	-423.008294	-422.999417	-422.998473	-423.041101	34.458	
C	-0.1058435581	 1.5536202456	 0.1467915172	-0.406519
C	 0.0867127993	 0.0608568874	-0.0028705306	-0.063979
C	 0.7387822216	-0.6432106479	-1.1878783485	-0.117995
C	 1.6688979509	 0.1227329032	-2.121073081	 0.058686
O	 0.9761584756	 1.2102925719	-2.7368500022	-0.428667
C	 2.8065336917	 0.561556483	-1.2065541748	-0.112694
C	 2.6564281553	 0.0978800937	 0.033063684	-0.148718
C	 1.3905874989	-0.6934354501	 0.1751864237	 0.333399
O	 1.4200604364	-1.8858073697	 0.9035676284	-0.468902
H	 0.7714901518	 2.1149058639	-0.1756513096	 0.126231
H	-0.9508172059	 1.8922327692	-0.4601738661	 0.124481
H	-0.3161443812	 1.8098386919	 1.1919527517	 0.099689
H	-0.751799079	-0.5259394348	 0.3700960677	 0.086567
H	 0.2329806365	-1.5198341854	-1.572683578	 0.092389
H	 2.0474812249	-0.5542061134	-2.9045665407	 0.074949
H	 1.5936314185	 1.6561751943	-3.3257395919	 0.281142
H	 3.6075140203	 1.2068793954	-1.5532044267	 0.091669
H	 3.3279706631	 0.2719352313	 0.867279569	 0.095692
H	 1.2206675595	-1.6784501796	 1.8225177984	 0.28258
139.5491	175.6733	198.8433	211.91	266.2674	277.6093	285.0734	314.975	389.2749	463.3289	540.7652	574.9836	644.8742	717.7074	752.8521	763.8857	864.1624	884.8211	941.2354	952.3614	964.0709	1001.1946	1025.2522	1074.626	1098.5878	1105.5623	1125.9674	1147.1865	1216.7609	1231.4233	1255.9166	1325.3131	1330.728	1346.765	1369.0342	1415.1399	1418.398	1450.5354	1490.6794	1497.4818	1675.3134	2957.234	3033.4337	3095.6953	3114.6745	3146.1273	3172.1821	3189.7655	3198.4932	3804.2404	3812.3419
CC1C2C(O)C=CC12O	C[C@H]1[C@H]2[C@@H](O)C=C[C@@]12O	
InChI=1S/C7H10O2/c1-4-6-5(8)2-3-7(4,6)9/h2-6,8-9H,1H3	InChI=1S/C7H10O2/c1-4-6-5(8)2-3-7(4,6)9/h2-6,8-9H,1H3/t4-,5-,6-,7+/m0/s1
