20
gdb 62962	2.06572	1.90543	1.44431	2.594	78.78	-0.2309	0.0696	0.3004	1026.9773	0.16951	-403.084674	-403.076054	-403.07511	-403.117092	34.461	
C	-0.0891052959	 1.5822762599	-0.0805895346	-0.456826
C	 0.0355855275	 0.0674067921	 0.0018791114	 0.310406
O	-1.2351621648	-0.5486094714	-0.1477711827	-0.468578
C	 1.1204193842	-0.6325454047	-0.8404969978	-0.09523
C	 2.4849434027	-0.3301987213	-0.3658666619	-0.254474
N	 1.7025734122	-1.3472689217	 0.367146903	-0.167168
C	 0.7433929995	-0.5766209538	 1.2036849272	 0.364169
C	 1.0689689125	-0.025421303	 2.5573948608	-0.343672
C	 0.0940619913	-1.1770678142	 2.3981023781	-0.326556
H	 0.8723933182	 2.0816447846	 0.0613028529	 0.122242
H	-0.479646667	 1.8832893003	-1.060975191	 0.107221
H	-0.7836425313	 1.9437620986	 0.684490364	 0.126298
H	-1.6381451669	-0.2002270574	-0.9509754728	 0.275828
H	 0.9145646762	-1.166423481	-1.7633815223	 0.093439
H	 3.3138009896	-0.7549914893	-0.924688632	 0.119764
H	 2.7056462357	 0.6150073975	 0.1240078312	 0.113291
H	 2.0525629549	-0.2465456313	 2.9589888187	 0.11847
H	 0.6781721443	 0.9496899153	 2.8307750929	 0.111893
H	-0.9640022676	-0.9897866239	 2.5409519682	 0.125691
H	 0.4312327646	-2.1659403554	 2.6886452067	 0.123792
132.6722	201.1947	208.6713	234.2457	272.2482	292.0893	304.8354	379.5141	416.4064	511.6045	569.3247	582.7868	650.9372	755.4811	773.4498	793.2967	872.3453	902.1539	921.9107	961.3401	977.1946	1003.8711	1006.8728	1047.9369	1050.1817	1072.6538	1093.268	1113.5016	1149.9222	1178.018	1185.0159	1195.0766	1220.2552	1252.1233	1320.8848	1342.9949	1406.465	1413.7941	1455.2653	1485.6949	1489.3022	1498.6846	1507.1715	3024.9934	3092.2352	3107.9191	3123.0749	3125.5009	3139.6582	3157.1092	3196.1881	3208.7876	3231.4469	3796.6989
CC1(O)C2CN2C11CC1	C[C@@]1(O)[C@H]2CN2C21CC2	
InChI=1S/C7H11NO/c1-6(9)5-4-8(5)7(6)2-3-7/h5,9H,2-4H2,1H3	InChI=1S/C7H11NO/c1-6(9)5-4-8(5)7(6)2-3-7/h5,9H,2-4H2,1H3/t5-,6-,8?/m1/s1
