21
gdb 60364	2.8097	0.83007	0.66968	1.7892	81.68	-0.2658	0.0361	0.302	1696.9927	0.17813	-424.18402	-424.172914	-424.17197	-424.220817	39.855	
C	-0.1742666305	 0.9650591338	-0.4882830128	-0.398644
C	 0.1122562099	-0.2376881924	 0.4056873244	 0.110979
O	 0.7308880154	 0.1366914173	 1.6315768674	-0.429604
C	-1.1406150153	-1.0655957154	 0.70218352	-0.074626
O	-1.6644486717	-1.5481531721	-0.5211513605	-0.246993
C	-2.8371497894	-2.3386993205	-0.3943648254	-0.020872
C	-3.3747682997	-2.5715826368	-1.8071335225	-0.395438
C	-2.577619015	-3.6068808593	 0.303106223	 0.347364
C	-2.3636564423	-4.6473293295	 0.8658892161	-0.493231
H	 0.747143495	 1.5157991943	-0.6954291131	 0.121788
H	-0.6202586039	 0.6430950782	-1.4324658169	 0.135203
H	-0.8815923373	 1.6484025247	 0.000687957	 0.099233
H	 0.8365478422	-0.8938435892	-0.0901290809	 0.101483
H	 0.1840669644	 0.8174535078	 2.0391867501	 0.277492
H	-0.8764849175	-1.8924001274	 1.3744037594	 0.113042
H	-1.8901459625	-0.4369578853	 1.2181426668	 0.068918
H	-3.5882279536	-1.7774055904	 0.1880082807	 0.093218
H	-4.2983226287	-3.1542876248	-1.7719984698	 0.127363
H	-3.5739386863	-1.6089921172	-2.2846515475	 0.123769
H	-2.6371044767	-3.1157812649	-2.4015711526	 0.137712
H	-2.1744923765	-5.564967831	 1.3663326671	 0.201845
42.8964	62.6672	121.5311	142.8291	188.4357	215.54	249.2917	263.2553	280.3259	290.7133	329.2065	433.4569	441.1299	491.967	565.6089	602.8735	630.8743	676.7863	814.6066	850.6087	920.2451	932.0109	972.407	1044.2206	1079.7959	1100.2056	1131.2846	1140.1686	1165.0972	1177.2036	1246.9105	1300.6896	1337.3711	1354.9341	1368.2283	1397.5083	1401.7375	1416.0549	1429.314	1482.5717	1490.1971	1495.0193	1496.8564	1519.3558	2230.4398	2936.0568	2952.7723	3021.172	3038.2922	3053.3989	3057.3774	3100.4896	3133.1441	3134.3635	3137.9273	3502.1348	3798.6589
CC(O)COC(C)C#C	C[C@@H](O)CO[C@@H](C)C#C	
InChI=1S/C7H12O2/c1-4-7(3)9-5-6(2)8/h1,6-8H,5H2,2-3H3	InChI=1S/C7H12O2/c1-4-7(3)9-5-6(2)8/h1,6-8H,5H2,2-3H3/t6-,7+/m1/s1
