18
gdb 9375	3.42467	1.13099	0.88833	2.276	71.07	-0.2602	0.0311	0.2914	1290.2422	0.150637	-384.889731	-384.880181	-384.879237	-384.924827	33.85	
C	 0.1032685274	 1.445395074	 0.1497107601	-0.396602
C	-0.0579388627	-0.0753381185	 0.0037876083	-0.031724
O	-1.4274828022	-0.4705315957	 0.0168116709	-0.271036
C	-2.0408983458	-0.4965139052	 1.2972412902	-0.074851
C	-3.3277557351	-1.2924354183	 1.1331864013	-0.05705
O	-3.067060833	-2.6008431679	 0.6717029427	-0.420856
C	 0.5299008716	-0.5553725342	-1.2469417062	 0.314766
C	 1.0344333046	-0.9288245135	-2.2708562841	-0.43813
H	 1.1607694003	 1.7188600707	 0.1039347607	 0.13146
H	-0.4272937676	 1.9545352727	-0.6585384342	 0.13766
H	-0.2980454693	 1.784767194	 1.1084961078	 0.120797
H	 0.4612599551	-0.5690904028	 0.8424034035	 0.100337
H	-1.3809927264	-0.9972969179	 2.0228998347	 0.097752
H	-2.2582483492	 0.517447807	 1.6657007461	 0.092373
H	-3.8318545056	-1.3797742232	 2.1014065397	 0.107768
H	-3.9996843375	-0.7478141071	 0.4505464621	 0.095094
H	-2.4811956737	-2.4944521799	-0.087771269	 0.290879
H	 1.4764579392	-1.2679468043	-3.1751301447	 0.201363
40.858	62.8706	142.9226	167.361	200.0265	231.7844	282.6156	333.3249	416.5023	453.0075	495.4496	544.3654	578.1138	625.8338	674.3507	826.9452	861.6602	908.9228	952.7158	1054.9182	1077.1024	1099.1361	1111.0967	1141.152	1150.4182	1237.886	1260.0126	1345.2496	1353.2689	1387.0943	1399.7755	1416.4879	1440.1983	1487.8628	1490.7516	1499.807	1509.3058	2244.1047	2962.0895	2976.5322	2979.4028	3020.7999	3049.2776	3078.0043	3124.2045	3135.2851	3503.8267	3787.2999
CC(OCCO)C#C	C[C@@H](OCCO)C#C	
InChI=1S/C6H10O2/c1-3-6(2)8-5-4-7/h1,6-7H,4-5H2,2H3	InChI=1S/C6H10O2/c1-3-6(2)8-5-4-7/h1,6-7H,4-5H2,2H3/t6-/m1/s1
