21
gdb 90247	3.501	1.37804	1.31982	1.3556	83.	-0.2312	0.0733	0.3045	1063.4083	0.184851	-387.002692	-386.995345	-386.994401	-387.033907	31.369	
O	-0.151457334	 1.5159973973	 0.0221436428	-0.445424
C	-0.0191674094	 0.101783857	 0.0438431746	 0.145156
C	 0.4030542277	-0.4996302431	 1.4182679919	-0.279826
C	-0.8483321293	-1.3618549748	 1.7418093856	 0.307364
C	-0.4895747233	-2.774988255	 2.2997336424	-0.325288
C	-0.1832408866	-3.1699022607	 0.783671516	-0.30133
C	-1.1895565921	-2.0182376003	 0.422995968	 0.034882
C	-1.400111026	-0.5398153497	-0.0699134499	-0.09177
C	-1.980588371	-0.3253489816	 1.4110570877	-0.3233
H	 0.7200481037	 1.8977743357	 0.1642634995	 0.280199
H	 0.6453794482	-0.2271331657	-0.7677211137	 0.061086
H	 1.3317445975	-1.0731044576	 1.3675133899	 0.088908
H	 0.5375761305	 0.292521554	 2.1621193386	 0.091703
H	 0.3266183698	-2.8532456256	 3.0239161997	 0.095198
H	-1.3564021145	-3.3265510448	 2.6730355348	 0.106681
H	 0.8592322222	-2.9941133246	 0.5150632215	 0.111174
H	-0.4629692857	-4.1770277433	 0.4659969913	 0.097732
H	-2.1859464638	-2.4674524818	 0.4980219008	 0.076864
H	-1.9884066117	-0.2858854614	-0.9530329121	 0.066576
H	-2.9901488194	-0.7255980006	 1.5164790339	 0.099027
H	-1.9159126827	 0.6880720167	 1.8154691968	 0.104388
144.46	256.7574	284.199	312.6308	324.9518	453.1198	478.4067	500.2439	585.6815	635.458	676.2349	740.8484	790.0716	824.8589	847.5503	862.38	875.9624	921.5733	959.741	974.7978	984.9745	1015.4685	1042.0217	1066.422	1088.9317	1095.1644	1126.2376	1146.2033	1159.668	1188.7333	1204.6322	1210.6502	1227.1691	1231.9974	1248.9466	1259.9982	1268.8343	1317.9754	1343.7225	1403.2557	1429.3779	1473.1389	1484.9476	1491.1139	1512.0506	2991.9439	3032.2183	3048.3255	3051.9353	3064.9709	3072.4682	3098.3107	3106.8931	3108.9342	3133.9726	3136.7017	3822.0996
OC1CC23CCC2C1C3	O[C@H]1C[C@]23CC[C@@H]2[C@H]1C3	
InChI=1S/C8H12O/c9-7-4-8-2-1-6(8)5(7)3-8/h5-7,9H,1-4H2	InChI=1S/C8H12O/c9-7-4-8-2-1-6(8)5(7)3-8/h5-7,9H,1-4H2/t5-,6-,7+,8-/m1/s1
