17
gdb 9488	2.96524	1.66616	1.5586	4.4331	68.31	-0.2742	0.0096	0.2838	930.5266	0.14092	-363.863597	-363.855122	-363.854178	-363.896918	30.504	
C	-0.3389198177	 1.4592686825	-0.0282474033	-0.419287
C	 0.0506534447	-0.0098803901	-0.0667673837	-0.078184
C	 1.35120664	-0.3868095834	-0.8080679312	-0.082279
O	 1.9449088649	-0.9252304964	 0.3958689538	-0.301888
C	 0.7678971487	-0.6386729334	 1.1829329105	 0.256897
C	 1.0911502411	 0.2388866464	 2.3864241135	-0.435348
C	 0.1239306508	-1.888755207	 1.629420378	 0.260919
N	-0.4011017375	-2.8594164571	 1.973298687	-0.339037
H	 0.5048402683	 2.1028367313	 0.2369784044	 0.126552
H	-0.695159548	 1.7736307531	-1.0148334449	 0.130052
H	-1.1469731998	 1.641660177	 0.6871317259	 0.131141
H	-0.8039581488	-0.6129267305	-0.3786534949	 0.1076
H	 1.2536785102	-1.1482599972	-1.5893572593	 0.117705
H	 1.9321888983	 0.4577664952	-1.1972887358	 0.108552
H	 1.5803731781	 1.1589192001	 2.0612479585	 0.130164
H	 0.1837434265	 0.4895430327	 2.9435596673	 0.137358
H	 1.7704502602	-0.2962796233	 3.0551912242	 0.149083
36.2464	152.8879	187.1709	210.0804	225.8004	283.9441	342.4412	364.9325	442.4217	544.8285	568.008	635.4166	762.3367	888.0077	897.6882	917.4264	922.7143	1015.8944	1036.648	1108.6816	1125.3154	1152.831	1172.4168	1203.7357	1216.2597	1286.2206	1343.3192	1382.1927	1406.2375	1416.9402	1475.0942	1485.139	1498.1173	1504.6721	1527.2288	2349.7609	3025.8496	3038.4444	3051.4406	3071.2977	3091.2647	3104.6103	3116.9033	3126.6373	3141.1763
CC1COC1(C)C#N	C[C@H]1CO[C@]1(C)C#N	
InChI=1S/C6H9NO/c1-5-3-8-6(5,2)4-7/h5H,3H2,1-2H3	InChI=1S/C6H9NO/c1-5-3-8-6(5,2)4-7/h5H,3H2,1-2H3/t5-,6+/m0/s1
