22
gdb 6412	3.28011	0.99307	0.91817	2.0022	74.69	-0.2592	0.0684	0.3276	1384.1454	0.197686	-387.342606	-387.332121	-387.331177	-387.37835	37.856	
C	-1.9751492055	 1.6891728332	-1.1381796313	-0.401234
C	-1.951999775	 0.1687929271	-1.2984128837	 0.12784
O	-1.0374843914	-0.2263352951	-2.3216116751	-0.426579
C	-1.6535498271	-0.5465440764	 0.0287328968	-0.207123
C	-1.6254800737	-2.0837375971	-0.0498043246	 0.014912
C	-0.9206917155	-2.6958184298	 1.1667156785	-0.399079
C	-3.0382705207	-2.6672064221	-0.2014632061	-0.058571
O	-3.044084955	-4.0773296879	-0.3762036458	-0.420927
H	-2.1613575951	 2.1698753915	-2.1023251313	 0.123635
H	-2.7539904491	 2.0031406739	-0.435650439	 0.116589
H	-1.0143205305	 2.054145447	-0.7529405741	 0.105558
H	-2.9276592954	-0.1556439556	-1.6789073738	 0.091782
H	-0.1614290854	 0.0811686389	-2.061652585	 0.275268
H	-0.6770613025	-0.1909799314	 0.3901292905	 0.080481
H	-2.3850076759	-0.2244299489	 0.7832339588	 0.092881
H	-1.0614472869	-2.3490961109	-0.9551026546	 0.075504
H	-1.3996338828	-2.3727466895	 2.0994121862	 0.108267
H	-0.9695640962	-3.7867883816	 1.1283510853	 0.126306
H	 0.1312830215	-2.3951922474	 1.211834398	 0.102652
H	-3.6136189868	-2.4833037563	 0.7145607157	 0.104143
H	-3.573748395	-2.172730382	-1.025476482	 0.086131
H	-2.6011658562	-4.2670140498	-1.2097310032	 0.281563
34.1787	93.2126	113.0006	179.8434	231.149	240.3609	250.5334	298.5932	304.9629	329.7154	337.0482	416.6017	451.7276	488.1687	552.1954	820.8344	833.906	886.8023	911.1257	932.06	972.0539	1021.6113	1065.0135	1068.7233	1101.414	1116.4307	1147.917	1176.5417	1188.2692	1262.2562	1289.0445	1326.3397	1352.6398	1360.5619	1395.2759	1400.1904	1403.6166	1407.2291	1418.8333	1423.3874	1475.3718	1489.9778	1493.1849	1495.7373	1504.8231	1506.6898	2990.2903	2995.5207	3008.1976	3022.3276	3025.9128	3032.4071	3049.0487	3055.5685	3088.5833	3093.4943	3118.3344	3121.4606	3791.391	3812.3561
CC(O)CC(C)CO	C[C@@H](O)C[C@@H](C)CO	
InChI=1S/C6H14O2/c1-5(4-7)3-6(2)8/h5-8H,3-4H2,1-2H3	InChI=1S/C6H14O2/c1-5(4-7)3-6(2)8/h5-8H,3-4H2,1-2H3/t5-,6-/m1/s1
