18
gdb 28413	3.02485	1.31562	0.92308	2.0645	84.71	-0.1803	0.0086	0.189	1241.0037	0.148446	-402.022468	-402.013709	-402.012765	-402.055261	33.923	
C	 0.0237570491	 1.5065104836	 0.0417072947	-0.536095
C	 0.0456200664	-0.0023359045	 0.0199099258	 0.219696
C	 0.0268222484	-0.7052780242	-1.1849906942	-0.268738
C	 0.0452148921	-2.1026777232	-1.2310726022	 0.305811
N	 0.0947039854	-2.7831777626	-2.4610587763	-0.595525
C	 0.0811745868	-2.8010775634	-0.0195100362	-0.189105
C	 0.0997718152	-2.1187335392	 1.1899975528	-0.166704
C	 0.082973028	-0.7273320787	 1.2189223023	 0.262174
O	 0.1006245285	-0.1210722736	 2.4492317846	-0.448164
H	 0.915833865	 1.9245185467	 0.5279911669	 0.130358
H	-0.0085255338	 1.912440059	-0.9719578754	 0.131738
H	-0.8527450373	 1.8989831447	 0.5752742284	 0.129087
H	 0.0015071863	-0.1451797602	-2.1165381037	 0.073356
H	-0.3264678448	-2.2709381301	-3.2240781972	 0.239746
H	-0.2885480884	-3.7177271951	-2.4198974183	 0.240801
H	 0.0987189409	-3.8869727073	-0.0241435205	 0.081305
H	 0.1256564922	-2.6574175804	 2.130695994	 0.097946
H	 0.09378341	 0.8331064185	 2.3314347843	 0.292314
138.6741	159.4471	196.5383	236.966	268.931	286.9042	330.6178	368.9748	447.8741	452.294	499.5815	576.4039	581.7485	673.3163	727.8483	745.9275	786.5686	833.6329	864.7268	925.0467	957.6738	1006.7297	1054.2331	1109.2425	1136.9086	1174.646	1213.6664	1268.0791	1328.3704	1336.0244	1372.6353	1409.5857	1477.3891	1487.7293	1510.5211	1541.3246	1637.3024	1654.583	1672.1501	3004.059	3047.6732	3114.9739	3151.9033	3166.4343	3195.9259	3546.9421	3640.5433	3841.079
CC1=CC(N)=CC=C1O	Cc1cc(N)ccc1O	
InChI=1S/C7H9NO/c1-5-4-6(8)2-3-7(5)9/h2-4,9H,8H2,1H3	InChI=1S/C7H9NO/c1-5-4-6(8)2-3-7(5)9/h2-4,9H,8H2,1H3
