17
gdb 51325	4.86131	1.02062	0.97629	1.671	74.51	-0.2586	0.0207	0.2794	1228.7304	0.137232	-417.940349	-417.932865	-417.931921	-417.973642	27.981	
N	-0.0131085718	 1.3304442952	-0.0739028259	-0.44123
C	-0.0175532781	 0.0733501628	 0.0242010023	 0.120785
O	-1.1617295792	-0.6155404788	-0.1634405953	-0.202974
C	-1.1056628031	-2.0310089282	-0.1290603695	 0.170392
C	-2.2450477033	-2.7670625463	 0.5297556056	-0.098448
C	-3.3198165985	-2.9710121144	-0.4845235096	-0.028898
C	-2.9025357835	-2.3125040403	-1.788085362	-0.237753
C	-1.4994525037	-2.808296369	-1.3977113132	-0.064824
N	-2.1361683367	-3.8984209206	-0.4727395352	-0.168063
H	 0.9211860121	 1.6896739357	 0.1104370089	 0.230548
H	 0.8426806138	-0.5678770317	 0.2643332176	 0.087539
H	-0.1408525739	-2.3733013141	 0.2611825503	 0.097346
H	-2.3903009297	-2.9613519147	 1.5855031675	 0.102321
H	-4.3031911141	-3.3204773865	-0.1918449124	 0.103167
H	-3.2893304901	-2.8678226114	-2.6455679441	 0.115412
H	-3.0527739223	-1.2387976196	-1.9241529984	 0.126073
H	-0.7557730579	-3.0929385582	-2.1386991866	 0.088608
31.0303	115.2732	132.9816	296.0253	335.2174	438.8955	483.3823	682.1573	752.6249	769.4055	776.8386	817.8827	819.4556	839.2732	931.2658	964.6956	1001.3954	1013.5817	1033.1278	1040.7168	1044.7336	1062.9355	1076.6854	1118.8958	1144.3732	1150.8623	1195.5983	1231.9686	1267.2658	1274.6611	1289.7232	1356.6326	1378.3303	1394.8643	1432.7239	1490.9877	1746.8981	3013.5481	3052.7919	3067.2094	3124.9239	3145.8977	3183.5754	3197.2696	3519.1666
N=COC1C2C3CC1N23	[NH][CH]O[C@H]1[C@H]2[C@H]3C[C@@H]1N23	
InChI=1S/C6H8N2O/c7-2-9-6-4-1-3-5(6)8(3)4/h2-7H,1H2	InChI=1S/C6H8N2O/c7-2-9-6-4-1-3-5(6)8(3)4/h2-7H,1H2/t3-,4+,5-,6-,8?/m1/s1
