16
gdb 17107	5.16984	1.42015	1.34103	0.6885	65.16	-0.2313	0.0025	0.2338	942.3317	0.13114	-383.68086	-383.67397	-383.673025	-383.712152	26.466	
O	 0.1280556322	 1.3640174375	 0.054041842	-0.405079
C	 0.0014405408	-0.0440769874	 0.1162075902	-0.199759
C	-1.4118296773	-0.5151701229	 0.08176906	 0.331528
C	-2.5740186075	 0.1443650432	 0.1065465873	-0.209456
C	-3.5843166687	-1.0128702437	 0.0030177036	 0.02733
C	-3.0221623479	-2.0178884805	 1.0531909694	-0.214926
C	-1.9061350719	-1.9777095461	-0.0325051751	-0.043037
O	-2.9682223742	-1.8545028101	-1.0337081907	-0.284172
H	-0.3037799272	 1.6519847358	-0.7574980686	 0.285963
H	 0.5740135092	-0.5398010027	-0.6876986797	 0.102266
H	 0.4824290128	-0.3463582149	 1.0565268128	 0.126621
H	-2.7825077762	 1.2001657125	 0.1893079645	 0.112913
H	-4.6437080924	-0.8100154696	-0.1457747101	 0.082075
H	-2.7965101794	-1.6573157369	 2.0589122031	 0.099501
H	-3.5617311776	-2.9677914074	 1.0629746307	 0.108754
H	-1.1965866945	-2.7846646568	-0.2153828493	 0.079479
83.8897	182.872	192.633	330.4933	387.6864	499.0124	563.3968	626.1697	678.7163	780.4335	818.6699	834.4362	849.3233	891.7592	911.2395	936.4917	994.2246	1020.7352	1041.929	1075.777	1093.265	1152.5337	1170.2824	1206.0922	1210.3934	1233.8198	1260.5987	1280.837	1297.575	1381.5274	1420.5207	1485.1965	1489.7079	1682.4788	2948.4396	3028.1	3063.9385	3125.375	3136.1288	3139.373	3249.7369	3807.9103
OCC1=CC2CC1O2	OCC1=C[C@@H]2C[C@H]1O2	
InChI=1S/C6H8O2/c7-3-4-1-5-2-6(4)8-5/h1,5-7H,2-3H2	InChI=1S/C6H8O2/c7-3-4-1-5-2-6(4)8-5/h1,5-7H,2-3H2/t5-,6-/m1/s1
