13
gdb 46462	3.95342	1.25786	1.12785	3.666	63.24	-0.3028	-0.0262	0.2767	1032.5513	0.090263	-452.763328	-452.756224	-452.75528	-452.795191	26.067	
O	-0.0294290921	-0.0120743004	 0.0578721429	-0.317615
C	 0.0005098245	 1.1741316277	 0.04441521	 0.469261
O	-1.1116818548	 1.9594079286	 0.1649506419	-0.227006
C	-0.7988862003	 3.3440117026	 0.0334858459	-0.151413
C	 0.7307686331	 3.3823127685	 0.0053781248	 0.141667
C	 1.4489223079	 2.7508228795	 1.1449827848	-0.277626
N	 1.1896702567	 1.9799649504	-0.0925480528	-0.189024
C	 1.3665899601	 4.3766139037	-0.8202738064	 0.241023
N	 1.8460317708	 5.2102512039	-1.4606707359	-0.314348
H	-1.2144269615	 3.7251452394	-0.9035705713	 0.153808
H	-1.2340757856	 3.8908855107	 0.8736986201	 0.148341
H	 2.494153015	 2.9848445292	 1.3112695951	 0.165464
H	 0.8681869563	 2.5067339061	 2.0307372409	 0.157467
112.7534	148.3593	169.0388	277.3304	359.199	457.6191	506.4634	561.3261	611.728	698.3499	729.4898	812.1999	821.8648	877.1667	931.8358	973.0226	1055.572	1072.0148	1090.5746	1135.1412	1156.5545	1224.2636	1255.442	1340.4817	1403.6596	1500.6465	1522.5267	1921.6516	2366.9535	3062.7913	3113.7533	3122.9451	3227.9421
O=C1OCC2(CN12)C#N	O=C1OC[C@]2(CN12)C#N	
InChI=1S/C5H4N2O2/c6-1-5-2-7(5)4(8)9-3-5/h2-3H2	InChI=1S/C5H4N2O2/c6-1-5-2-7(5)4(8)9-3-5/h2-3H2/t5-,7?/m1/s1
