15
gdb 56357	6.01821	0.61129	0.55887	3.3808	75.9	-0.2775	-0.0555	0.222	1813.9157	0.111608	-413.014595	-413.004958	-413.004014	-413.050251	33.021	
N	-0.2083560553	 1.3107698598	-0.3065257305	-0.553937
C	-0.0133154572	 0.0769705815	 0.2647203175	 0.283241
N	 1.0782274	-0.4500279285	 0.6642248988	-0.280053
C	 2.2999815271	 0.3048884125	 0.479179994	-0.168573
C	 3.4760375291	-0.5065566243	 1.0510937666	-0.336838
C	 4.7516572908	 0.1860662304	 0.8932415331	 0.249141
N	 5.7475768412	 0.7552957758	 0.7546383754	-0.301325
C	-1.2393825176	-0.677413644	 0.4582836651	 0.274448
N	-2.232156	-1.2535636125	 0.5898761788	-0.310409
H	 0.5859127786	 1.8071984174	-0.6749476617	 0.277122
H	-1.0964335729	 1.5130539032	-0.735304296	 0.28212
H	 2.492236773	 0.5102822935	-0.5865819721	 0.122017
H	 2.2511203786	 1.2811708031	 0.9859379284	 0.13027
H	 3.2971403152	-0.7052954869	 2.1125271322	 0.166768
H	 3.5239640095	-1.478624971	 0.5501112702	 0.166009
50.5724	65.3894	82.446	161.1473	190.1769	257.1912	321.4218	335.9661	376.8187	402.2244	463.7519	469.582	569.8882	619.4851	723.0848	780.0208	847.6755	954.0297	1016.9795	1054.1992	1056.6212	1145.2573	1200.1931	1295.93	1312.2066	1348.2949	1396.2934	1465.0918	1481.7142	1637.992	1718.8293	2363.633	2364.9338	2965.8139	3004.3068	3061.3228	3103.7405	3604.131	3721.9034
NC(=NCCC#N)C#N	NC(=NCCC#N)C#N	
InChI=1S/C5H6N4/c6-2-1-3-9-5(8)4-7/h1,3H2,(H2,8,9)	InChI=1S/C5H6N4/c6-2-1-3-9-5(8)4-7/h1,3H2,(H2,8,9)
