22
gdb 110446	3.4987	1.17185	1.05661	1.6362	85.41	-0.2318	0.088	0.3197	1267.7606	0.194638	-367.153009	-367.144394	-367.14345	-367.186124	33.673	
C	 0.0246831608	 1.4791977612	-0.0976497208	-0.379521
C	-0.1235539178	-0.0428126556	 0.0140813435	-0.210373
C	 0.6562219439	-0.6044590024	 1.1940109833	 0.08989
C	 0.7630983249	-2.1135371363	 1.5006630484	-0.117539
C	 2.2346155567	-1.7669526072	 1.9572296674	-0.05599
C	 2.5926407947	-1.8479908784	 0.5225102838	-0.038949
C	 1.3764958086	-2.7250264082	 0.2077993927	 0.002855
C	 1.6755679667	-4.2172574362	 0.3146000449	-0.411958
N	 2.1629250647	-0.5341761764	 1.128485135	-0.16797
H	 1.0785223415	 1.7564231152	-0.1938993095	 0.137868
H	-0.5127426431	 1.8678622086	-0.9678726223	 0.107655
H	-0.3708499168	 1.9818917483	 0.7918634399	 0.111804
H	-1.1819110061	-0.3109668943	 0.136757318	 0.093892
H	 0.2101154619	-0.5088908436	-0.918490253	 0.102348
H	 0.3755022336	-0.0607633413	 2.1046818539	 0.073446
H	-0.0022175575	-2.6543555336	 2.05695828	 0.064849
H	 2.7943846114	-1.8502213361	 2.8792296235	 0.094431
H	 3.5712819182	-1.856196886	 0.059064285	 0.091882
H	 0.8382151875	-2.5227258749	-0.7246863812	 0.064563
H	 2.1894319486	-4.4532740371	 1.2528917171	 0.117994
H	 0.751574208	-4.8041407034	 0.2769400915	 0.114192
H	 2.3146780195	-4.5525638422	-0.5095676813	 0.114631
79.37	148.0238	178.3065	236.8542	246.1206	264.4119	281.8738	383.5348	534.7958	562.3198	696.2567	743.5591	787.409	799.9349	818.6585	839.1258	898.8417	903.7858	939.0911	949.8168	982.5621	1003.0651	1027.6671	1049.8226	1062.6326	1088.8089	1119.6415	1121.6683	1139.7607	1168.35	1174.7552	1205.7329	1233.9763	1263.0217	1278.9758	1301.4831	1325.1861	1348.7962	1379.7047	1407.4559	1412.2603	1422.0143	1480.0472	1494.4585	1497.1707	1500.6034	1507.9036	3019.497	3026.7978	3027.2154	3035.168	3038.7074	3075.1421	3092.6758	3099.1234	3103.1269	3115.2607	3117.1366	3190.4418	3206.2784
CCC1C2C3C(C2C)N13	CC[C@H]1[C@@H]2[C@H]3[C@@H]([C@H]2C)N13	
InChI=1S/C8H13N/c1-3-5-6-4(2)7-8(6)9(5)7/h4-8H,3H2,1-2H3	InChI=1S/C8H13N/c1-3-5-6-4(2)7-8(6)9(5)7/h4-8H,3H2,1-2H3/t4-,5-,6+,7+,8-,9?/m0/s1
