18
gdb 55803	4.30651	0.95694	0.90312	4.6812	72.55	-0.231	0.0265	0.2575	1311.2535	0.147119	-439.043559	-439.034884	-439.03394	-439.078687	31.779	
N	 0.9694364151	 0.5669685533	-0.4242336664	-0.520996
C	 0.0040497069	-0.0559653474	 0.3099088617	 0.417651
O	-0.2956755171	 0.3048157578	 1.432302725	-0.357385
C	-0.6988463281	-1.2234562604	-0.3852463928	-0.376786
C	-0.9197882044	-2.383829182	 0.5767577867	 0.065826
C	-1.8752731103	-2.2987334602	 1.7978842826	 0.060772
C	-3.1119904565	-2.373688942	 0.8708530438	-0.229697
C	-2.0681746426	-3.4221279136	 0.4156686385	 0.014436
O	-1.8709274896	-3.7864214142	 1.8350100478	-0.314384
H	 1.443349887	 1.3574175957	-0.0184991936	 0.262208
H	 1.232974792	 0.261806771	-1.3437164098	 0.259419
H	-1.6483608093	-0.8335179889	-0.7674638369	 0.131676
H	-0.1286630316	-1.5666808767	-1.256451004	 0.098087
H	 0.0223016166	-2.8681036272	 0.8468886946	 0.085827
H	-1.736452122	-1.765215704	 2.7347810537	 0.111823
H	-4.0022014866	-2.7975097714	 1.3361203839	 0.108891
H	-3.3447040861	-1.5265230259	 0.2227924371	 0.094978
H	-2.1684632334	-4.2380279239	-0.302053922	 0.087654
23.4287	56.499	129.8333	138.5164	284.7189	318.1196	394.6996	505.2485	557.8098	582.4306	627.4693	713.1934	735.8676	792.1013	834.3594	851.5263	881.478	917.7145	931.595	978.4135	1007.2495	1060.2666	1078.4804	1097.0623	1103.5797	1160.8115	1164.9595	1200.2501	1204.3569	1222.3516	1256.2012	1285.4682	1289.4435	1389.1997	1396.1548	1463.9044	1498.2401	1617.5218	1792.4203	3036.755	3068.9361	3075.1513	3090.8983	3105.0779	3149.4725	3159.5913	3604.6723	3744.0686
NC(=O)CC1C2CC1O2	NC(=O)C[C@H]1[C@H]2C[C@@H]1O2	
InChI=1S/C6H9NO2/c7-6(8)1-3-4-2-5(3)9-4/h3-5H,1-2H2,(H2,7,8)	InChI=1S/C6H9NO2/c7-6(8)1-3-4-2-5(3)9-4/h3-5H,1-2H2,(H2,7,8)/t3-,4+,5-
