23
gdb 58417	1.96374	1.31133	1.25317	2.0107	81.42	-0.2275	0.0539	0.2814	1237.7802	0.202924	-425.409334	-425.398515	-425.397571	-425.444588	40.818	
C	 0.22163763	 1.3728984656	 0.3192971876	-0.40598
C	-0.1324467653	-0.0770123818	-0.0458963309	 0.007074
C	-1.6476755716	-0.2719313543	-0.2088469455	-0.406724
C	 0.6438808497	-0.550814119	-1.2765250751	 0.265786
C	 0.3489794552	 0.1428644939	-2.5958410498	-0.472376
C	 2.0831644481	-1.0174647898	-1.0861955602	 0.043105
O	 2.6545615845	-1.0734284092	 0.1860632327	-0.435637
C	 0.9937555451	-2.0206871391	-1.3993793194	-0.030649
O	 0.6223516023	-2.8585224091	-0.3275693558	-0.430665
H	 1.2993152874	 1.4810165287	 0.4705055959	 0.128927
H	-0.0898311574	 2.0788939681	-0.4583494684	 0.107896
H	-0.2830963622	 1.6674447885	 1.2455461093	 0.105372
H	 0.1812615958	-0.7027299582	 0.7938627148	 0.076454
H	-2.0559486719	 0.3570205536	-1.007623956	 0.109256
H	-1.8867806001	-1.3144448945	-0.4395415104	 0.120713
H	-2.1695103746	-0.0023195797	 0.7155115697	 0.107038
H	 0.5291531856	 1.220639085	-2.5297606716	 0.123332
H	 0.9917133116	-0.2436575076	-3.393953107	 0.109923
H	-0.6886720477	-0.0095235181	-2.9117021612	 0.120223
H	 2.8157172942	-0.7565052009	-1.8456346753	 0.091313
H	 2.1991929654	-1.7882152691	 0.6525405353	 0.283912
H	 0.9301386681	-2.4892598433	-2.3799876584	 0.085443
H	 1.1131261179	-3.6827945597	-0.4177066004	 0.296263
46.7195	136.1766	180.1686	199.4889	224.1514	245.4218	257.8408	274.569	283.1487	297.9892	312.8121	361.5025	443.1718	499.368	545.7137	584.1356	658.6964	671.7718	821.5851	836.5193	899.0695	926.6801	966.6971	971.5767	1019.8668	1059.9362	1075.3436	1107.8675	1130.6936	1158.3139	1168.6224	1190.9207	1233.336	1250.7442	1311.8724	1333.8967	1342.3151	1383.4332	1394.5965	1409.1593	1413.5979	1421.1713	1467.6499	1485.7701	1490.3835	1500.5306	1505.4308	1509.4536	1511.4892	3027.6795	3028.9938	3034.8402	3067.0132	3088.5062	3091.6597	3099.629	3101.4368	3108.124	3110.6735	3115.2033	3139.0778	3736.3235	3802.741
CC(C)C1(C)C(O)C1O	CC(C)[C@@]1(C)[C@@H](O)[C@H]1O	
InChI=1S/C7H14O2/c1-4(2)7(3)5(8)6(7)9/h4-6,8-9H,1-3H3	InChI=1S/C7H14O2/c1-4(2)7(3)5(8)6(7)9/h4-6,8-9H,1-3H3/t5-,6+,7-
