18
gdb 117061	4.24549	0.84971	0.75781	1.5072	71.68	-0.2644	-0.0382	0.2263	1545.5056	0.145315	-476.249574	-476.239499	-476.238555	-476.286451	34.492	
C	-0.5073368627	 0.8838819559	 0.2681330082	-0.387616
C	 0.7371443084	 0.1571023139	-0.2186600442	-0.055856
O	 1.4388599653	-0.4757280732	 0.8739009353	-0.222664
C	 1.0066207908	-1.6879388442	 1.2262204123	 0.428594
O	 0.1003477881	-2.2885541641	 0.7085658002	-0.357748
C	 1.8179406894	-2.2427824165	 2.3910269738	 0.278526
N	 2.6880022708	-1.5370776458	 2.98133505	-0.503512
O	 1.4292979225	-3.5126472678	 2.6271344939	-0.205864
C	 2.0692264807	-4.1990279008	 3.6922460514	-0.266286
H	-0.2535297192	 1.6090750178	 1.0463314013	 0.131465
H	-0.9701169081	 1.4204845575	-0.5662605255	 0.1214
H	-1.2366253577	 0.1748074183	 0.6665883123	 0.144892
H	 0.4846077278	-0.602348733	-0.9625825789	 0.132414
H	 1.4669795051	 0.8518374833	-0.6397277053	 0.11845
H	 3.1441263733	-2.0340604161	 3.7461801008	 0.225366
H	 3.1487952959	-4.2871492588	 3.5186553636	 0.133929
H	 1.897194746	-3.6954936652	 4.6514640775	 0.134078
H	 1.6237369933	-5.1934440211	 3.7194650932	 0.15043
18.7431	64.7528	89.8451	142.0286	168.8268	225.1228	236.7211	319.1803	335.2506	373.2244	444.1712	504.3459	521.3648	727.8329	794.5989	821.5618	874.2955	880.3694	882.6047	990.2917	1052.3095	1116.7179	1132.8975	1175.6159	1193.7494	1219.8099	1238.0396	1330.2712	1364.6646	1401.2778	1422.5898	1473.5029	1485.3158	1487.8276	1493.311	1503.7156	1507.1148	1724.3907	1817.8231	3014.4409	3046.5837	3071.0701	3077.6658	3115.1014	3120.975	3142.2512	3150.9594	3490.8181
CCOC(=O)C(=N)OC	CCOC(=O)[C]([NH])OC	
InChI=1S/C5H9NO3/c1-3-9-5(7)4(6)8-2/h6H,3H2,1-2H3	InChI=1S/C5H9NO3/c1-3-9-5(7)4(6)8-2/h6H,3H2,1-2H3
