18
gdb 53049	3.55809	0.9884	0.8832	2.8064	82.56	-0.224	0.0236	0.2475	1383.3571	0.146912	-401.871354	-401.862408	-401.861464	-401.906969	32.075	
C	 0.0370155944	 1.5021483709	-0.0923987615	-0.505305
C	-0.0005214015	 0.049167685	-0.0339030523	 0.161063
C	-0.0289407061	-1.1542446447	 0.0261731898	-0.033211
C	-0.0650105014	-2.5908096773	 0.0758597033	 0.24326
C	 0.5417695153	-3.4179731627	-1.0899340109	-0.219591
N	-0.6041699702	-4.3738364349	-1.0297000307	-0.324997
C	-1.3141480455	-3.5293268499	-0.0407497245	-0.117287
C	-0.9785690416	-3.9329511928	 1.3995807467	-0.070503
O	 0.2464114211	-3.1548486668	 1.3758082815	-0.328436
H	 0.6966773376	 1.8531322204	-0.8935240501	 0.150723
H	-0.9598340431	 1.9190515875	-0.2742466552	 0.150303
H	 0.4049511643	 1.9224694181	 0.849976158	 0.156178
H	 0.6032266492	-2.843720957	-2.0209873517	 0.104576
H	 1.5139594367	-3.8689891392	-0.869465099	 0.116853
H	-1.0981975745	-4.445810195	-1.9105394102	 0.223636
H	-2.3255861027	-3.2066004548	-0.28847552	 0.083167
H	-1.6711078354	-3.5508716565	 2.1606950087	 0.099701
H	-0.7928783868	-5.0003114902	 1.553700808	 0.109869
15.2027	82.4492	98.7547	153.926	266.5004	306.697	351.0464	381.3258	468.2394	516.876	524.3677	671.1956	739.3723	828.9996	866.6686	928.2036	965.9793	993.4599	1020.2075	1025.0616	1047.748	1050.8949	1053.9136	1076.2186	1086.936	1146.385	1165.3206	1174.4964	1267.5599	1311.9248	1333.5325	1356.7972	1395.3043	1413.3787	1475.6173	1476.8466	1491.6998	1505.2644	2362.6251	3014.6289	3027.0734	3031.8404	3085.7603	3087.7247	3090.662	3091.1317	3108.815	3552.4124
CC#CC12CNC1CO2	CC#C[C@]12CN[C@H]1CO2	
InChI=1S/C7H9NO/c1-2-3-7-5-8-6(7)4-9-7/h6,8H,4-5H2,1H3	InChI=1S/C7H9NO/c1-2-3-7-5-8-6(7)4-9-7/h6,8H,4-5H2,1H3/t6-,7-/m0/s1
