19
gdb 77920	2.31251	1.43365	1.38302	2.8168	71.58	-0.2357	0.0657	0.3014	1069.1314	0.158171	-460.107914	-460.099015	-460.098071	-460.140642	34.922	
O	 0.0156210795	 1.4612719165	-0.0552686022	-0.457579
C	 0.0417402073	 0.0412982559	 0.0299026255	 0.091954
C	-0.0170247473	-0.6582374801	 1.4231075363	-0.232006
C	-1.4988355633	-0.1697817228	 1.5418018719	 0.152249
O	-1.8163154473	 1.1469144418	 1.8594438427	-0.456058
C	-1.3578345955	-0.6450265692	 0.0453552603	 0.221409
C	-2.3957344754	-0.6270434874	-1.0411560974	-0.527509
C	-0.6247311228	-1.871579024	 0.6498220264	 0.104703
O	 0.1685186927	-2.6003412351	-0.2559870321	-0.442082
H	 0.9167279884	 1.7867601818	 0.0344308614	 0.29135
H	 0.7619094494	-0.3692317158	-0.6805368995	 0.091725
H	 0.7493206907	-0.6808851948	 2.1997954718	 0.065486
H	-2.1438280491	-0.805449189	 2.1580550984	 0.072433
H	-1.2585491137	 1.707918174	 1.3010381741	 0.287048
H	-2.705294375	 0.4000490233	-1.2595902157	 0.131647
H	-2.0081179046	-1.0710658522	-1.964046448	 0.127787
H	-3.2863560866	-1.189640221	-0.7413360301	 0.119592
H	-1.2560074179	-2.53493128	 1.2546014908	 0.071126
H	 0.7093344405	-3.2161515619	 0.2478186351	 0.286723
165.1648	187.7905	196.0141	242.5814	261.9494	284.6813	293.5706	311.3849	383.3744	451.7726	522.5213	531.4255	612.3762	666.0247	695.9502	726.4179	834.462	845.52	909.9779	925.9098	976.8816	1051.5046	1060.7862	1087.0038	1116.594	1133.4902	1170.7678	1191.3767	1206.1822	1227.6521	1239.2695	1278.2274	1303.714	1339.4838	1357.7029	1408.042	1425.9987	1463.8026	1488.1325	1490.7909	1506.3284	3019.2967	3031.4688	3052.7105	3088.9506	3099.1874	3102.5595	3104.3195	3712.7723	3822.3943	3822.8583
OC1C2C(O)C1(C)C2O	O[C@H]1[C@H]2[C@@H](O)[C@]1(C)[C@H]2O	
InChI=1S/C6H10O3/c1-6-3(7)2(4(6)8)5(6)9/h2-5,7-9H,1H3	InChI=1S/C6H10O3/c1-6-3(7)2(4(6)8)5(6)9/h2-5,7-9H,1H3/t2-,3-,4-,5+,6+/m0/s1
