15
gdb 28918	2.38631	1.86273	1.05191	1.6074	70.76	-0.2326	-0.0036	0.229	1055.7929	0.115347	-454.019337	-454.011642	-454.010698	-454.051566	29.414	
N	-0.2486865938	 1.4376307644	-0.0779657448	-0.628203
C	-0.0717630299	 0.0135212404	-0.0582872296	 0.000702
C	-1.2279307188	-0.7735440802	-0.0624064117	 0.408787
O	-2.4300699001	-0.1788491669	-0.0841247226	-0.426576
C	-1.1107245108	-2.1685077778	-0.0437824255	-0.237913
C	 0.1657936059	-2.7013229991	-0.0218985411	 0.001969
N	 1.2928093848	-1.9731974001	-0.0173599097	-0.388595
C	 1.1550132342	-0.6534778007	-0.035322345	 0.375032
O	 2.2831207495	 0.0944019814	-0.0309984695	-0.425216
H	 0.2060059818	 1.8475541837	-0.8893554548	 0.253852
H	 0.1873618564	 1.8676403905	 0.7332573852	 0.253857
H	-2.2315511372	 0.7775855362	-0.0934382288	 0.29869
H	-1.9933781405	-2.7948728585	-0.0466160081	 0.105237
H	 0.3028418673	-3.7794999146	-0.0069456109	 0.11113
H	 3.0125979313	-0.5412108388	-0.014358453	 0.297246
84.6617	172.2285	251.5782	284.7522	292.5966	331.438	513.0307	536.5178	544.2439	546.801	570.8291	674.7615	721.2723	754.1042	793.0888	842.9402	861.144	886.2061	979.0001	1066.9222	1085.786	1193.1392	1209.1079	1250.0611	1308.9588	1326.5552	1378.0765	1411.8897	1489.8396	1538.5404	1625.0171	1662.382	1672.3659	3161.9557	3217.4409	3488.268	3548.4019	3592.3688	3763.1675
NC1=C(O)C=CN=C1O	Nc1c(O)ccnc1O	
InChI=1S/C5H6N2O2/c6-4-3(8)1-2-7-5(4)9/h1-2H,6H2,(H2,7,8,9)	InChI=1S/C5H6N2O2/c6-4-3(8)1-2-7-5(4)9/h1-2H,6H2,(H2,7,8,9)
