15
gdb 65425	4.22784	0.8417	0.79123	2.8499	71.39	-0.2996	-0.0051	0.2945	1394.0033	0.111413	-416.813979	-416.805054	-416.80411	-416.848304	31.842	
O	-0.0778452685	 1.3530816545	 0.0942951427	-0.44093
C	-0.0037066119	-0.0369461438	 0.0038046205	 0.219143
C	-0.6286971721	-0.8780245917	 1.1055767696	-0.328347
C	-1.3200804402	-0.7526193438	-0.2252456292	-0.044239
C	-2.5834926776	 0.0817730999	-0.3734188011	-0.37132
C	-3.7640169742	-0.6287115455	 0.1182981742	 0.269665
N	-4.6883624056	-1.1993402861	 0.5113758623	-0.300313
C	 1.1766716369	-0.5397288795	-0.6684430454	 0.252544
N	 2.1325927317	-0.9292969589	-1.1897280281	-0.331861
H	 0.5935560736	 1.6576152507	 0.7159497172	 0.30516
H	-0.1661774967	-1.8217247633	 1.3680309955	 0.150282
H	-1.0339927307	-0.3101616745	 1.936385756	 0.142052
H	-1.2722453296	-1.6206576842	-0.873495433	 0.138939
H	-2.476219906	 1.0234294882	 0.1716861657	 0.172752
H	-2.742265239	 0.3440368479	-1.425243907	 0.166473
47.0735	100.69	136.5458	194.7169	232.7491	317.8164	325.6975	388.2599	415.2398	445.1499	518.3196	579.541	620.594	701.9029	853.1207	870.3801	907.6795	928.7523	943.6824	1050.2424	1066.0766	1083.722	1150.2591	1229.1622	1246.2248	1269.3632	1322.2769	1353.2886	1419.3624	1466.1548	1480.9905	2351.5562	2365.9611	3057.6044	3106.648	3143.0758	3178.4235	3239.528	3796.7303
OC1(CC1CC#N)C#N	O[C@]1(C[C@H]1CC#N)C#N	
InChI=1S/C6H6N2O/c7-2-1-5-3-6(5,9)4-8/h5,9H,1,3H2	InChI=1S/C6H6N2O/c7-2-1-5-3-6(5,9)4-8/h5,9H,1,3H2/t5-,6-/m1/s1
