21
gdb 116865	3.97184	0.57773	0.56513	2.4151	86.26	-0.2501	0.0335	0.2837	2089.6941	0.177802	-424.185603	-424.174046	-424.173102	-424.223803	40.237	
C	-0.0500430769	 1.4274963756	-0.1424711307	-0.218791
O	 0.0137040976	 0.0232143331	-0.2307317467	-0.225635
C	-1.1691214853	-0.5918507844	 0.2411325584	-0.199925
C	-1.0630770627	-2.0407823008	 0.1352458544	-0.097356
C	-0.989009563	-3.2398974905	 0.0502966276	 0.21787
C	-0.9115770544	-4.7076140685	-0.0243042219	 0.165061
C	-2.3251441405	-5.2969393933	-0.1924168312	-0.397975
C	 0.0046210072	-5.1385213079	-1.1775960039	-0.383143
O	-0.3007011379	-5.2368075766	 1.1595722207	-0.441296
H	 0.8958483198	 1.8180233369	-0.5239013698	 0.132186
H	-0.8750751297	 1.8398893914	-0.7454036924	 0.104443
H	-0.182911722	 1.7678785092	 0.8971186949	 0.104549
H	-1.3564988044	-0.3080381783	 1.292113677	 0.113074
H	-2.0422486018	-0.238914209	-0.3361574618	 0.114242
H	-2.7930107876	-4.9436797006	-1.1157628525	 0.122236
H	-2.2596864007	-6.3882709729	-0.2179106329	 0.122314
H	-2.9656302571	-5.0044124461	 0.6454690916	 0.111201
H	 1.0029861389	-4.718837534	-1.0389842077	 0.135036
H	 0.080173863	-6.2296087009	-1.1879810946	 0.121133
H	-0.3936595091	-4.7974252174	-2.1359394964	 0.121141
H	-0.7539058334	-4.8519405851	 1.9173749878	 0.279632
21.0346	69.2511	71.2497	126.3452	171.8324	216.7023	230.23	258.4523	277.5871	295.8123	322.2486	362.1839	370.1634	409.8442	501.8005	566.0107	581.8326	689.4625	866.8671	930.4032	955.822	977.6457	1017.4611	1027.1029	1075.6891	1126.2533	1152.3444	1182.7796	1191.954	1220.4701	1251.0272	1257.798	1367.0517	1391.5309	1411.702	1411.9273	1475.4631	1477.4567	1479.301	1484.5135	1492.6651	1494.7098	1503.3709	1516.2962	2361.8007	2941.2202	2957.4661	2967.9275	3010.2335	3037.6224	3050.8469	3112.1304	3121.5089	3121.9758	3129.7742	3140.4082	3811.6901
COCC#CC(C)(C)O	COCC#CC(C)(C)O	
InChI=1S/C7H12O2/c1-7(2,8)5-4-6-9-3/h8H,6H2,1-3H3	InChI=1S/C7H12O2/c1-7(2,8)5-4-6-9-3/h8H,6H2,1-3H3
