15
gdb 24526	3.89586	1.70447	1.18571	5.1843	85.15	-0.2009	-0.0471	0.1538	967.5657	0.118075	-379.742793	-379.736787	-379.735843	-379.772918	24.982	
N	-0.0192855709	 1.3705540668	 0.0100990999	-0.396228
C	 1.1409417838	 2.0781155628	 0.0024619881	-0.022411
C	 2.3557247476	 1.4329028328	-0.0131560892	-0.132639
C	 2.4200178047	 0.0233095722	-0.0215468352	-0.194761
C	 1.2483935814	-0.7014346434	-0.0138918159	 0.292122
N	 1.039654794	-2.0473435563	-0.0191991778	-0.357648
C	-0.2927576171	-2.176886021	-0.006732665	-0.024951
C	-1.0211293633	-0.9563071658	 0.007261403	-0.329846
C	-0.0297709217	 0.0077948201	 0.0027071197	 0.354434
H	-0.8954486948	 1.8726652576	 0.0215720988	 0.270594
H	 1.0384168827	 3.1548301899	 0.0094044167	 0.132946
H	 3.2598526354	 2.0277885872	-0.0188633644	 0.108214
H	 3.3773519734	-0.4868321475	-0.0338583528	 0.118545
H	-0.740935821	-3.1652133892	-0.0077172114	 0.096092
H	-2.0926549442	-0.8285039764	 0.0186222355	 0.085537
222.2585	255.4873	402.5357	427.7682	555.8379	570.0746	607.6141	635.3664	690.0756	730.5515	755.8271	768.1356	787.2956	894.5469	896.0489	905.379	929.9378	973.4437	1041.2503	1050.4142	1115.4915	1204.8946	1212.6345	1262.5145	1309.0289	1326.6371	1382.0911	1425.6262	1477.7457	1500.0128	1530.863	1635.183	1667.6798	3188.4012	3192.6092	3213.8113	3231.048	3245.3943	3607.3133
N1C=CC=C2N=CC=C12	[nH]1cccc2nccc12	
InChI=1S/C7H6N2/c1-2-6-7(8-4-1)3-5-9-6/h1-5,8H	InChI=1S/C7H6N2/c1-2-6-7(8-4-1)3-5-9-6/h1-5,8H
