25
gdb 94433	2.27108	1.38968	1.17594	0.1195	92.2	-0.2601	0.0814	0.3415	1249.9176	0.228916	-352.345945	-352.33634	-352.335396	-352.37993	37.597	
C	-0.6270114608	 1.0218382008	-0.4278757847	-0.4196
C	 0.3403670304	-0.1486721763	-0.3322772789	-0.021491
C	 1.8519457881	 0.1095657003	-0.5847374481	-0.234315
C	 2.1762563558	-0.9091828143	 0.53642114	-0.287238
C	 0.7190333719	-0.7543072881	 1.0538028846	 0.382834
C	 0.5599632169	 0.0579432417	 2.3696356407	-0.285663
C	 0.30140421	-1.2767809318	 3.1184247534	-0.223775
C	 0.0221424168	-1.9612315445	 1.7474479009	-0.056693
C	-1.4617297518	-2.1326074745	 1.4295867889	-0.400752
H	-0.3150729843	 1.8499952563	 0.2179818673	 0.113285
H	-0.6723438137	 1.4043922204	-1.4539796982	 0.111344
H	-1.6440523582	 0.735999447	-0.1376792358	 0.113459
H	-0.000672266	-0.9606107935	-0.9874758038	 0.06612
H	 2.2433370423	-0.0888794509	-1.58581565	 0.090564
H	 2.1323100508	 1.1289258946	-0.2998948442	 0.096482
H	 2.354904353	-1.9128233506	 0.1357680477	 0.093668
H	 2.9858871761	-0.663881756	 1.230047603	 0.091838
H	 1.4134838999	 0.6625508393	 2.6894727565	 0.090759
H	-0.3272119707	 0.6977399925	 2.3597261371	 0.098045
H	 1.2028088181	-1.664182825	 3.600463048	 0.098074
H	-0.5128378679	-1.2884118105	 3.8486263364	 0.089842
H	 0.5371099804	-2.9165422162	 1.5933603575	 0.056576
H	-2.0224358187	-1.2080188123	 1.6074208703	 0.113791
H	-1.6196470054	-2.4214303703	 0.3847861311	 0.112092
H	-1.9051346432	-2.9115086281	 2.0598419203	 0.110754
84.3571	108.8122	154.3434	212.1303	230.8458	255.1525	289.2947	319.1792	351.9526	434.9606	466.7117	522.257	652.222	714.9214	783.5052	792.0628	878.8361	882.982	891.8069	894.8195	940.832	950.1535	956.3395	969.6581	1009.4831	1039.8133	1075.8646	1106.8291	1156.0595	1174.9983	1175.9033	1182.8987	1188.2649	1215.577	1238.4403	1255.5446	1261.6673	1271.8703	1273.4776	1300.5009	1302.2203	1354.3285	1367.793	1404.1488	1409.6581	1475.5164	1481.6973	1490.3528	1494.9048	1496.7978	1499.3	1501.0193	1501.6257	3017.5678	3023.942	3025.721	3027.5215	3038.1748	3046.0465	3048.0692	3055.5547	3085.1034	3087.6529	3089.1352	3091.3389	3093.2886	3094.9236	3104.2281	3109.7001
CC1CCC11CCC1C	C[C@H]1CC[C@]21CC[C@H]2C	
InChI=1S/C9H16/c1-7-3-5-9(7)6-4-8(9)2/h7-8H,3-6H2,1-2H3	InChI=1S/C9H16/c1-7-3-5-9(7)6-4-8(9)2/h7-8H,3-6H2,1-2H3/t7-,8+,9-/m1/s1
