20
gdb 51565	4.01243	0.77438	0.70284	3.8811	82.52	-0.2395	-0.0132	0.2262	1615.5463	0.169246	-403.107223	-403.097946	-403.097002	-403.142677	33.524	
O	-0.5373915306	 0.2715943649	 0.1531206841	-0.24454
C	-0.0106545186	 1.3548069349	 0.1385331727	 0.165576
C	 1.3698291042	 1.6418450565	-0.4086709034	-0.297731
C	 1.3711507889	 2.8150640818	-1.3702918276	-0.047028
C	 1.3040247371	 4.2386548434	-0.8514887169	-0.313916
C	 2.5716174649	 3.726888637	-1.4794359334	 0.041706
N	 3.6863732009	 3.4846889737	-0.6076572577	-0.063345
C	 4.9365815452	 3.0721178493	-1.240557393	-0.223532
C	 4.7879544717	 4.441312172	-0.6737182397	-0.220811
H	-0.5337851449	 2.2511064409	 0.5464986486	 0.070925
H	 2.0270143413	 1.8858666057	 0.4363603298	 0.138118
H	 1.7529125292	 0.7298005706	-0.876893284	 0.116196
H	 0.8470610064	 2.6304511034	-2.304156153	 0.096147
H	 0.7081793891	 4.9664586433	-1.3902872617	 0.115527
H	 1.3290122839	 4.3776325541	 0.2240374214	 0.122759
H	 2.8138185189	 4.0913648995	-2.4816512838	 0.075552
H	 5.5067106352	 2.3138920687	-0.7118684474	 0.121074
H	 4.9504839443	 2.9801691431	-2.3251982382	 0.113865
H	 4.7020865694	 5.2665248653	-1.3781539459	 0.113571
H	 5.2468425234	 4.6989775219	 0.2764148589	 0.119888
50.3795	60.5476	91.0779	132.2696	193.5148	274.6108	297.0312	369.1929	467.907	497.5341	581.4069	727.6418	772.5317	816.7191	829.825	848.241	897.983	931.8686	952.0599	1002.775	1033.839	1059.1855	1070.1107	1085.7737	1111.1186	1119.3771	1120.7802	1134.5581	1161.7614	1175.7923	1206.8718	1229.3487	1237.9059	1288.1436	1325.7603	1387.3101	1415.4863	1426.8167	1459.2654	1485.1411	1491.9697	1519.1487	1832.1045	2861.2873	3031.5721	3052.4757	3091.5997	3097.9171	3102.5758	3135.8865	3143.7018	3180.8291	3195.3769	3224.396
O=CCC1CC1N1CC1	O=CC[C@H]1C[C@H]1N1CC1	
InChI=1S/C7H11NO/c9-4-1-6-5-7(6)8-2-3-8/h4,6-7H,1-3,5H2	InChI=1S/C7H11NO/c9-4-1-6-5-7(6)8-2-3-8/h4,6-7H,1-3,5H2/t6-,7+/m0/s1
