16
gdb 19120	2.76789	2.00555	1.39784	1.976	70.94	-0.2461	0.047	0.2931	918.8538	0.128748	-346.529656	-346.521831	-346.520887	-346.56182	29.445	
C	 0.0159648997	-1.1947001804	 0.0819225033	-0.434696
C	-0.0110283692	 0.0076071677	 0.0608371264	 0.232258
C	-0.0416849586	 1.4451048243	 0.0470010482	 0.151315
C	 0.5403293002	 2.1848101622	 1.2485946261	-0.299691
C	 1.2903118713	 2.1837496977	-0.0468497696	-0.292657
C	-1.2200375384	 2.0910842659	-0.6293749676	 0.046312
O	-1.5937394258	 1.606541444	-1.9149978058	-0.235147
C	-2.5083613433	 1.4192610301	-0.8284484953	-0.202325
H	 0.0442043758	-2.2560379399	 0.0901163472	 0.192714
H	 0.0365175714	 3.0954401233	 1.5555302775	 0.12196
H	 0.9121728723	 1.5764887737	 2.0636232199	 0.13351
H	 2.183134241	 1.5760464172	-0.1262229151	 0.134617
H	 1.3040570152	 3.0918787947	-0.6398235485	 0.126106
H	-1.2181031812	 3.1801918327	-0.5458988194	 0.084874
H	-2.6253291911	 0.3898994981	-0.4970891451	 0.127986
H	-3.4219259493	 2.0102619688	-0.8778836622	 0.112864
76.9368	139.3327	199.5819	237.9025	258.4851	375.0722	442.6687	550.657	569.4392	590.3749	659.4249	670.841	778.6668	849.8446	871.9847	879.3501	943.4233	966.001	987.6462	1023.845	1068.6346	1085.2676	1102.6072	1159.8438	1171.488	1195.1214	1263.1975	1285.933	1345.7692	1434.3014	1466.3909	1495.5546	1523.5888	2236.4708	3081.4287	3090.7891	3139.0164	3143.7928	3183.4191	3226.3493	3240.4622	3502.8036
C#CC1(CC1)C1OC1	C#CC1(CC1)[C@H]1OC1	
InChI=1S/C7H8O/c1-2-7(3-4-7)6-5-8-6/h1,6H,3-5H2	InChI=1S/C7H8O/c1-2-7(3-4-7)6-5-8-6/h1,6H,3-5H2/t6-/m0/s1
