13
gdb 130673	4.50009	1.09542	0.93534	5.1265	60.57	-0.2609	-0.0236	0.2373	1166.9628	0.089667	-489.876023	-489.868826	-489.867882	-489.908349	26.155	
O	-0.0063072462	 0.3093253361	-0.9066329502	-0.38299
C	 0.0057767844	 1.3357954158	-0.2945578875	 0.514172
N	-0.658149784	 2.5319271589	-0.5398814936	-0.428956
C	-0.3477755787	 3.4007327331	 0.4684387124	 0.44077
N	 0.4720604987	 2.8888096234	 1.3256271374	-0.191666
O	 0.7235831747	 1.5786007813	 0.8525474887	-0.228322
C	-0.8827427899	 4.7727267796	 0.5436655542	-0.029814
C	-0.8626725086	 5.6593417344	-0.6342072404	-0.177147
O	-2.0614580502	 4.9947246383	-0.2340858027	-0.233086
H	-1.378337954	 2.6583122624	-1.2310759373	 0.296549
H	-0.8696335409	 5.2097960527	 1.5387206965	 0.141573
H	-0.8487274949	 6.7358121644	-0.4779073528	 0.144021
H	-0.4179146905	 5.3095289296	-1.5635957546	 0.134896
86.4442	133.287	153.793	257.8928	404.4431	444.1057	514.0423	534.3655	652.3589	703.1335	753.3811	774.7822	863.7821	894.3339	925.7448	956.6826	992.5102	1041.7155	1092.2562	1156.2564	1165.9459	1195.0207	1255.0375	1273.2581	1398.8374	1512.3573	1523.9866	1656.5813	1911.6219	3099.1438	3158.541	3193.993	3679.429
O=C1NC(=NO1)C1CO1	O=c1[nH]c(no1)[C@H]1CO1	
InChI=1S/C4H4N2O3/c7-4-5-3(6-9-4)2-1-8-2/h2H,1H2,(H,5,6,7)	InChI=1S/C4H4N2O3/c7-4-5-3(6-9-4)2-1-8-2/h2H,1H2,(H,5,6,7)/t2-/m1/s1
