18
gdb 117104	2.37795	1.09182	0.82078	4.2332	75.11	-0.2558	0.0129	0.2687	1421.8955	0.145034	-439.081568	-439.071356	-439.070412	-439.118257	36.252	
C	 0.1128931114	 1.0130208972	 0.6858452323	-0.373075
C	-0.3223334594	 0.2115040715	-0.5425575106	-0.151472
N	-1.5312485277	-0.5705914615	-0.3129280348	-0.311985
C	-1.5095580381	-1.8869573653	-0.0283529168	 0.403167
O	-0.5062081214	-2.583100892	 0.010293894	-0.397457
C	-2.8902498034	-2.5704573047	 0.1991688496	-0.121739
O	-2.6707381895	-3.8552034508	 0.7122952755	-0.418254
C	-3.7631963808	-1.7700077771	 1.0606569007	 0.31192
C	-4.48242835	-1.0869586281	 1.7400493833	-0.466526
H	 1.0134777713	 1.5924430973	 0.4601455869	 0.124019
H	-0.6675680699	 1.7133538172	 1.0016581534	 0.117078
H	 0.3329811115	 0.3453533998	 1.5233185396	 0.140699
H	-0.499068048	 0.8788264124	-1.3933280138	 0.112994
H	 0.4546169317	-0.4993729882	-0.8306195495	 0.1508
H	-2.405004515	-0.0851870408	-0.1715061572	 0.25515
H	-3.3631135449	-2.6322511599	-0.7978372283	 0.120511
H	-1.7063514192	-3.9747252781	 0.6347442059	 0.298439
H	-5.1234079485	-0.502938049	 2.3537811398	 0.205732
26.6029	58.8961	72.3629	139.8736	204.6926	236.8552	272.2024	351.6284	381.2675	414.2966	486.3114	501.8144	531.4877	590.4219	612.7279	625.6438	681.4965	755.6087	831.3721	900.5798	913.2386	983.4935	1062.081	1111.7014	1144.985	1178.2022	1242.9775	1265.9255	1325.9566	1348.6457	1394.2437	1412.2514	1444.4232	1481.7797	1492.8784	1502.093	1564.9397	1776.2631	2231.5914	2938.3025	3038.6995	3046.8973	3102.4542	3120.2781	3131.2904	3500.0628	3611.1545	3619.8109
CCNC(=O)C(O)C#C	CCNC(=O)[C@@H](O)C#C	
InChI=1S/C6H9NO2/c1-3-5(8)6(9)7-4-2/h1,5,8H,4H2,2H3,(H,7,9)	InChI=1S/C6H9NO2/c1-3-5(8)6(9)7-4-2/h1,5,8H,4H2,2H3,(H,7,9)/t5-/m0/s1
