18
gdb 103266	2.74135	1.40316	1.20361	4.7842	72.75	-0.2408	0.0092	0.25	1102.5208	0.146101	-439.066026	-439.057229	-439.056285	-439.099336	32.852	
C	 0.153717714	 1.0811071503	-0.3242198667	-0.253589
O	-0.0890486321	-0.1901118235	 0.2518770117	-0.270029
C	-1.3930242611	-0.6618250565	 0.0996957805	 0.43092
C	-2.445353506	 0.0565278622	 0.9196897417	-0.464807
C	-1.8223550671	-1.2561363225	-1.2190154118	-0.100754
N	-0.7151595437	-1.8900339495	-1.9344118899	-0.345185
C	-0.3798205761	-2.7022614698	-0.8295421929	 0.435711
O	 0.5010550991	-3.4927827615	-0.6628555025	-0.33754
C	-1.553065141	-2.1703572538	-0.0152196478	-0.317324
H	 1.2302910018	 1.2522663458	-0.2612833287	 0.138403
H	-0.155642194	 1.1130584652	-1.3789966431	 0.104939
H	-0.3619290673	 1.8881446228	 0.2131093743	 0.116341
H	-2.530921281	 1.1067536705	 0.6243593399	 0.127145
H	-3.4266459882	-0.4070398064	 0.7865808155	 0.127739
H	-2.1857726041	 0.0185162551	 1.9817320332	 0.139176
H	-2.7637784155	-1.0603670161	-1.7174346578	 0.108981
H	-0.0095412843	-1.3635333528	-2.4374915452	 0.242572
H	-2.2349360235	-2.7326819394	 0.6074222197	 0.117301
99.8902	123.518	175.466	202.0573	208.6786	282.5789	308.47	360.8548	463.7122	482.7752	563.5824	624.2219	693.4016	740.3542	783.0905	843.9127	868.5728	922.9972	950.9413	1028.5838	1031.2397	1054.2422	1101.6413	1112.128	1135.1429	1152.365	1178.363	1221.7086	1261.0438	1276.6355	1327.6739	1373.0274	1411.7955	1473.1399	1481.5653	1491.7597	1504.9615	1510.4528	1908.3516	2992.7309	3041.7196	3049.2668	3111.1058	3121.0255	3125.9224	3189.6267	3218.7534	3546.0033
COC1(C)C2NC(=O)C12	CO[C@@]1(C)[C@H]2NC(=O)[C@@H]12	
InChI=1S/C6H9NO2/c1-6(9-2)3-4(6)7-5(3)8/h3-4H,1-2H3,(H,7,8)	InChI=1S/C6H9NO2/c1-6(9-2)3-4(6)7-5(3)8/h3-4H,1-2H3,(H,7,8)/t3-,4-,6+/m0/s1
