14
gdb 19576	3.53204	2.49122	2.0965	4.0884	59.86	-0.2444	-0.0073	0.2371	688.2339	0.108357	-382.501496	-382.49584	-382.494896	-382.53104	22.982	
O	 0.0048994529	-0.001192493	 0.0842064858	-0.31491
C	-0.0141828071	 1.1808744698	-0.0497321346	 0.465954
C	-1.0881326416	 2.2916371995	 0.0194928885	-0.201509
C	-0.0266476057	 2.9775515746	 0.9660398266	-0.247226
C	 1.028357219	 2.3225514083	-0.0092089123	-0.201507
C	 0.6753328148	 3.0589915794	-1.3150780556	 0.047936
O	-0.0601011975	 2.2680077327	-2.265883989	-0.251099
C	-0.7923055262	 3.0375390546	-1.2951877228	 0.047933
H	-2.118745946	 2.1072984746	 0.3118899283	 0.0924
H	-0.0423724097	 4.0694018057	 0.9824796486	 0.115397
H	-0.0069741684	 2.572039726	 1.9797521258	 0.126284
H	 2.0714626704	 2.168502334	 0.2550644525	 0.0924
H	 1.2932581651	 3.8516553041	-1.7216523767	 0.113973
H	-1.4439187699	 3.8116468799	-1.684556115	 0.113973
168.3647	353.3052	354.4574	481.4379	537.9798	621.6935	664.6223	786.7739	810.2794	817.9668	823.2437	865.4572	904.68	941.532	979.7736	1005.5246	1006.0414	1053.1721	1069.1942	1079.112	1119.8442	1190.6427	1193.9655	1222.5849	1243.0888	1264.8979	1308.4424	1396.9269	1491.984	1921.1576	3070.8444	3138.0264	3156.5058	3157.629	3175.3473	3186.7364
O=C1C2CC1C1OC21	O=C1[C@H]2C[C@@H]1[C@H]1O[C@@H]21	
InChI=1S/C6H6O2/c7-4-2-1-3(4)6-5(2)8-6/h2-3,5-6H,1H2	InChI=1S/C6H6O2/c7-4-2-1-3(4)6-5(2)8-6/h2-3,5-6H,1H2/t2-,3+,5+,6-
