15
gdb 8263	6.594	0.93076	0.91201	3.2421	73.05	-0.2591	0.0163	0.2753	1292.5852	0.117686	-362.63783	-362.629532	-362.628588	-362.672688	28.531	
C	 0.3145285916	 1.6217783313	-0.24277173	-0.498288
C	 0.1051061938	 0.1871304347	-0.1268760694	 0.058071
C	-0.0756686807	-0.99955526	-0.0316093114	 0.109859
C	-0.2752679557	-2.4261790422	 0.0831520041	-0.059954
C	 0.1909766324	-3.1317001486	 1.3865627138	-0.365817
C	-1.2772494229	-3.4531622003	 1.5543777278	 0.441586
N	-1.9501430522	-4.0852860145	 2.4009396852	-0.537463
O	-1.6701120716	-2.7985618081	 0.4043262102	-0.252125
H	 1.0524942204	 1.9758106186	 0.4850620241	 0.154408
H	 0.6708923178	 1.8927391911	-1.2422857486	 0.154582
H	-0.6184158379	 2.1665176739	-0.0620536883	 0.159538
H	 0.0242195625	-2.9454203923	-0.8320661292	 0.118877
H	 0.8445731552	-3.9941752425	 1.2514578335	 0.140727
H	 0.6018787297	-2.4663911474	 2.1459647687	 0.14671
H	-2.9432197324	-4.0854829936	 2.1618174596	 0.22929
15.7901	63.694	111.6299	168.4078	297.6774	325.4595	430.7221	457.8317	495.791	541.6933	697.1692	762.9714	864.7747	908.2641	910.2531	970.59	1022.0796	1023.4665	1049.8462	1053.7905	1121.7571	1188.2426	1220.3185	1235.0757	1310.0538	1370.2532	1413.2527	1461.9914	1474.4077	1476.5693	1830.1616	2371.6609	3030.7788	3063.3123	3093.8304	3094.915	3096.1113	3155.618	3478.0177	15.7688	63.6942	111.6299	168.4077	297.6769	325.4591	430.722	457.8314	495.7911	541.6929	697.1691	762.9713	864.7746	908.264	910.253	970.5899	1022.0795	1023.4664	1049.8466	1053.7908	1121.7566	1188.2424	1220.3182	1235.0755	1310.0537	1370.253	1413.2532	1461.9907	1474.4085	1476.5701	1830.1616	2371.6609	3030.7788	3063.3122	3093.8303	3094.915	3096.1113	3155.6181	3478.0178
CC#CC1CC(=N)O1	CC#C[C@H]1C[C]([NH])O1	
InChI=1S/C6H7NO/c1-2-3-5-4-6(7)8-5/h5,7H,4H2,1H3	InChI=1S/C6H7NO/c1-2-3-5-4-6(7)8-5/h5,7H,4H2,1H3/t5-/m0/s1
