25
gdb 121917	3.8053	0.64458	0.61407	0.5574	86.8	-0.2466	0.0718	0.3184	1974.5011	0.225499	-426.628036	-426.616077	-426.615132	-426.666034	42.432	
C	-0.0578113998	 1.5161448237	 0.0307634026	-0.385025
C	-0.0202382895	-0.0030053353	 0.0229963246	-0.026415
O	-1.3462450996	-0.4874049046	 0.0168082732	-0.249626
C	-1.4279616649	-1.8976302313	-0.0056099841	-0.057617
C	-2.8996937479	-2.311414919	-0.0759546807	 0.005191
C	-3.5608357004	-1.7552830529	-1.3447979182	-0.413236
C	-3.0157426115	-3.8458968326	 0.0612844553	 0.133379
C	-4.4543132759	-4.342311954	 0.211603567	-0.418355
O	-2.3437567124	-4.5283072425	-0.9986981245	-0.437839
H	 0.9574932245	 1.9238486041	 0.0387541966	 0.11328
H	-0.5759958598	 1.8915374582	-0.8563705798	 0.124216
H	-0.5862710796	 1.8821364696	 0.9157259657	 0.125043
H	 0.5242288309	-0.3726982814	-0.8627196472	 0.08449
H	 0.5192551464	-0.380520207	 0.9087310326	 0.083336
H	-0.8820788685	-2.3064658046	-0.870629767	 0.096045
H	-0.9597708175	-2.3194835379	 0.9007237254	 0.078058
H	-3.3992029372	-1.8697626202	 0.7971122413	 0.077956
H	-3.1338039621	-2.2119067942	-2.2461295848	 0.102234
H	-4.6415793384	-1.9235965044	-1.3553696789	 0.110361
H	-3.383454244	-0.6802380526	-1.411602592	 0.138527
H	-2.4569627004	-4.1399628663	 0.9591078734	 0.084363
H	-5.0517756823	-4.1127966538	-0.6780901379	 0.111709
H	-4.4614415605	-5.4266275856	 0.3520498441	 0.123546
H	-4.9463030771	-3.8769868807	 1.0718811889	 0.116926
H	-2.8748883626	-4.4264052148	-1.7955021157	 0.279453
44.905	58.2729	85.2901	107.14	148.3237	217.7475	227.7683	244.2349	247.3182	285.0448	291.5019	303.589	328.5055	434.4969	469.6696	531.0411	618.1258	786.5615	819.0249	892.036	904.39	929.1758	945.3774	1006.5953	1028.203	1038.3981	1080.8236	1112.6064	1139.1566	1160.3264	1174.8467	1188.7528	1198.7629	1266.9265	1284.4041	1295.7728	1315.5955	1353.4067	1377.1884	1388.0865	1402.5991	1405.7977	1408.1725	1427.0495	1448.7708	1483.3349	1490.6994	1493.0759	1499.1226	1500.7218	1513.8357	1514.8252	1537.2078	2945.5269	2956.8034	2974.7352	2994.6601	3019.3213	3030.0679	3031.8312	3034.0859	3043.8404	3096.9312	3101.6403	3117.0901	3118.3465	3119.7888	3132.9176	3810.4403
CCOCC(C)C(C)O	CCOC[C@@H](C)[C@@H](C)O	
InChI=1S/C7H16O2/c1-4-9-5-6(2)7(3)8/h6-8H,4-5H2,1-3H3	InChI=1S/C7H16O2/c1-4-9-5-6(2)7(3)8/h6-8H,4-5H2,1-3H3/t6-,7-/m1/s1
