18
gdb 38513	2.62532	2.46425	2.3615	2.2296	78.35	-0.2114	-0.0406	0.1708	763.1116	0.151951	-364.734961	-364.729527	-364.728583	-364.76421	24.972	
C	-0.0807605171	 1.4874691267	 0.0794683016	-0.1995
C	 1.3857601636	 1.9370636182	-0.1520761968	-0.048042
C	 1.8913361669	 1.6622610937	-1.6501039487	-0.25759
C	 1.7022775402	 0.1560981653	-1.5225447186	 0.027288
C	 0.3899083017	-0.1951286614	-1.4653380948	-0.112037
C	 0.0328584916	-0.0858466853	 0.0015276791	-0.039516
N	 1.2821953912	-0.3672685849	 0.775818803	-0.122438
C	 2.1219585129	 0.8739294623	 0.6866559449	-0.041705
C	 2.3624588991	-0.2646109816	-0.2230847613	-0.056904
H	-0.381009428	 1.7584137498	 1.0989596691	 0.114607
H	-0.8039083931	 1.9173796355	-0.6207347428	 0.100187
H	 1.5694602068	 2.9666994979	 0.1615350212	 0.077225
H	 1.2523939546	 2.1364973272	-2.399368638	 0.105557
H	 2.9220888745	 2.0117318188	-1.7722445559	 0.10278
H	-0.3333064932	 0.147028782	-2.2026268645	 0.097622
H	-0.8235856117	-0.6206285919	 0.4170401659	 0.078884
H	 2.7171823122	 1.123999439	 1.5574751853	 0.088525
H	 3.1944162977	-0.9600243912	-0.1725304585	 0.085058
376.5146	393.0777	483.3921	556.9995	582.6679	647.5044	708.9424	734.176	760.9162	794.6385	815.5657	833.742	860.2473	889.0537	899.4041	920.6643	932.0835	955.0504	961.2686	997.4194	1031.7974	1046.1376	1084.8985	1089.3615	1105.9117	1133.2123	1175.6629	1207.2549	1214.4409	1255.2493	1265.5896	1277.6861	1288.115	1313.041	1320.8219	1353.1506	1466.8793	1486.7711	1543.9375	3037.2126	3041.1049	3088.2756	3092.1957	3098.0083	3109.2273	3144.7031	3150.6315	3174.1418
C1C2CC3=CC1N1C2C31	C1[C@@H]2C[C]3[CH][C@H]1N1[C@H]2[C@H]31	
InChI=1S/C8H9N/c1-4-2-6-3-5(1)8-7(4)9(6)8/h2,5-8H,1,3H2	InChI=1S/C8H9N/c1-4-2-6-3-5(1)8-7(4)9(6)8/h2,5-8H,1,3H2/t5-,6+,7-,8+,9?/m0/s1
