15
gdb 44995	3.66932	1.22292	1.05161	2.8923	70.24	-0.2581	-0.047	0.2111	1104.5925	0.112892	-416.81727	-416.809766	-416.808821	-416.849554	28.393	
O	 0.0071716866	 0.0902748251	-0.4379310373	-0.284029
C	 0.0059465812	 1.2169537694	-0.0276933647	 0.378623
C	-1.230876517	 2.1044343311	 0.1906233874	-0.27769
N	-0.8196154348	 3.3038364856	 0.9241787049	-0.117335
C	-0.2136580973	 3.0226813943	 2.2218905936	-0.268394
C	 0.6770765164	 3.2665980781	 1.0463086796	 0.163906
C	 1.2470412677	 2.0421572482	 0.353747703	-0.405337
C	 1.3725063529	 4.5217579525	 0.9064053104	 0.236005
N	 1.9650522679	 5.5084569486	 0.7989851625	-0.330462
H	-1.6326793353	 2.3968994039	-0.7866716067	 0.154209
H	-2.0148597157	 1.5569993031	 0.7215124164	 0.150883
H	-0.341792003	 3.8023608324	 2.9654794246	 0.150223
H	-0.2430356892	 2.0047200557	 2.6101320117	 0.129876
H	 1.9247773883	 1.4528222846	 0.975501187	 0.157025
H	 1.7868499615	 2.3116069075	-0.5603528623	 0.162499
76.8264	151.2132	167.5531	316.0483	400.8061	434.3495	458.4993	490.6331	562.6837	581.422	637.244	708.7911	773.5332	793.5301	837.0503	901.7919	949.3596	1014.2848	1048.0662	1121.7878	1140.4021	1156.4616	1184.7662	1208.3228	1233.3363	1278.7678	1308.7882	1350.7503	1452.5415	1458.7689	1508.6423	1862.159	2360.2513	3046.7503	3063.558	3094.6036	3102.1557	3116.1377	3201.0604
O=C1CN2CC2(C1)C#N	O=C1CN2C[C@]2(C1)C#N	
InChI=1S/C6H6N2O/c7-3-6-1-5(9)2-8(6)4-6/h1-2,4H2	InChI=1S/C6H6N2O/c7-3-6-1-5(9)2-8(6)4-6/h1-2,4H2/t6-,8?/m0/s1
