16
gdb 52028	2.93619	0.83239	0.68162	3.8196	73.35	-0.2446	-0.0449	0.1996	1569.2618	0.119639	-437.841421	-437.831373	-437.830429	-437.877964	33.991	
O	-0.3105348783	-0.0076950246	 0.2326246177	-0.235589
C	-0.0698685796	 1.1385712451	-0.0377449744	 0.151986
C	 1.3283298843	 1.6779850098	-0.3024508384	-0.236253
N	 1.2607814642	 2.8582869922	-1.1572947366	-0.290895
C	 2.4706463688	 3.6624240909	-1.1911992728	-0.243075
C	 3.655225745	 3.0049847298	-1.940175389	 0.156535
O	 3.5541729027	 1.96423028	-2.5302872966	-0.234773
C	 2.2507628007	 4.9658926177	-1.8210134872	 0.28154
C	 2.1197645037	 6.0123090736	-2.3968738682	-0.389812
H	-0.8644466405	 1.915778086	-0.1019417106	 0.089522
H	 1.723770958	 1.986313336	 0.6774149229	 0.132045
H	 1.9664027963	 0.8631119678	-0.6685341265	 0.140411
H	 1.0324527185	 2.5828277533	-2.1078804986	 0.237903
H	 2.8051072135	 3.827308721	-0.155131305	 0.129384
H	 4.6038162703	 3.5829503816	-1.9093698395	 0.102183
H	 1.9814329425	 6.94677403	-2.8830799172	 0.208889
54.1312	62.8337	87.1451	100.0103	135.9011	192.6315	243.4995	279.7758	368.607	448.5946	485.3982	574.5141	629.5576	669.1226	679.7571	726.9567	807.6663	830.8983	974.9147	1011.3824	1051.8821	1068.1521	1136.092	1178.2672	1244.1579	1254.3016	1304.3423	1354.4853	1398.3399	1407.4806	1468.4623	1509.1491	1836.3125	1842.1085	2235.2616	2888.1281	2905.777	2996.005	3003.0268	3049.2194	3501.0129	3520.3321
O=CCNC(C=O)C#C	O=CCN[C@@H](C=O)C#C	
InChI=1S/C6H7NO2/c1-2-6(5-9)7-3-4-8/h1,4-7H,3H2	InChI=1S/C6H7NO2/c1-2-6(5-9)7-3-4-8/h1,4-7H,3H2/t6-/m1/s1
