25
gdb 63395	3.85009	0.82131	0.81552	0.0391	93.88	-0.263	0.0823	0.3453	1603.8974	0.228375	-352.34443	-352.334602	-352.333658	-352.379025	38.398	
C	-0.1716272851	 1.5038618356	-0.0172512834	-0.433966
C	-0.0344069624	-0.0210342666	-0.0132552991	 0.356465
C	-1.3657144457	-0.6848970059	-0.3504752796	-0.448577
C	 1.2037123684	-0.4999713601	-0.838068777	-0.281982
C	 2.0280213636	-0.5960097657	 0.4782123527	 0.046577
C	 0.6899037484	-0.5406914342	 1.2704744921	-0.281984
C	 2.9353761016	-1.7787080804	 0.6764761787	 0.0188
C	 4.383087312	-1.719368417	 0.2536074219	-0.272298
C	 4.0260120203	-1.7476057866	 1.7194289083	-0.272301
H	 0.7764875519	 1.9966008121	 0.2233015209	 0.109948
H	-0.4937086477	 1.8663203387	-1.000447434	 0.10885
H	-0.9129913278	 1.8331033831	 0.7201544048	 0.10885
H	-1.7215580032	-0.3792094386	-1.3418936055	 0.109
H	-1.2771741098	-1.77660563	-0.3500074763	 0.104669
H	-2.1402970084	-0.4124355679	 0.3766883918	 0.109001
H	 1.0387007345	-1.4885947856	-1.2797316496	 0.088503
H	 1.5734052334	 0.17001892	-1.6199859001	 0.088795
H	 2.6017810787	 0.3244416634	 0.6358003853	 0.060004
H	 0.6526224001	 0.097030748	 2.1586606969	 0.088795
H	 0.3490541916	-1.5432572151	 1.5503972002	 0.088502
H	 2.4443397066	-2.7401979439	 0.5383398272	 0.072369
H	 4.8318105285	-2.6040217174	-0.1847554365	 0.108077
H	 4.7508413137	-0.7858150624	-0.1602134007	 0.107913
H	 4.1540593941	-0.8330104447	 2.289632238	 0.107913
H	 4.2307769626	-2.6515526386	 2.2825255629	 0.108077
67.7773	76.6479	155.2867	224.2061	262.1855	263.2202	288.5731	305.695	366.2575	389.0982	420.0828	473.5096	591.2863	713.3443	786.4214	826.012	831.1838	869.5792	875.9086	911.7534	922.1258	942.2439	961.3576	979.578	987.8886	1024.0537	1047.2111	1056.8182	1077.6617	1092.2347	1096.984	1137.8029	1197.8231	1212.8885	1219.9785	1226.7556	1237.8352	1249.3257	1274.4649	1299.1817	1304.7666	1329.4037	1401.66	1419.8121	1434.0443	1469.9466	1474.2223	1484.5671	1484.881	1500.4168	1502.5084	1505.9579	1507.1852	3014.9054	3020.3774	3031.5874	3037.0921	3043.6865	3078.2075	3085.4557	3086.858	3091.8761	3092.1316	3096.1162	3121.5522	3127.0569	3132.4606	3204.4173	3219.6418
CC1(C)CC(C1)C1CC1	CC1(C)CC(C1)C1CC1	
InChI=1S/C9H16/c1-9(2)5-8(6-9)7-3-4-7/h7-8H,3-6H2,1-2H3	InChI=1S/C9H16/c1-9(2)5-8(6-9)7-3-4-7/h7-8H,3-6H2,1-2H3
