17
gdb 19721	3.45703	2.5353	2.48572	0.6558	66.03	-0.2249	0.0956	0.3205	686.6387	0.146204	-363.826033	-363.82059	-363.819645	-363.855147	23.605	
C	 0.0568845994	 1.4812849487	-0.1044910631	-0.254358
C	 1.3016315634	 0.6891656461	-0.0129106888	-0.017628
C	 1.8693532024	 0.3937630757	 1.3824974475	 0.082273
C	 1.3796836495	-1.0575525275	 1.5512603754	-0.222802
C	-0.0864661826	-0.6024726935	 1.3692457568	-0.008399
C	-0.1537956119	 0.4395690223	 2.4847088722	-0.097428
O	 1.1252029975	 1.1038225262	 2.3864773232	-0.279616
N	-0.0291300008	 0.0095872768	-0.0014542736	-0.121762
H	-0.2000847755	 2.1161272689	 0.7347054696	 0.135211
H	-0.2611049038	 1.8593373277	-1.072407005	 0.114458
H	 1.9399548059	 0.5264900428	-0.8791776699	 0.088036
H	 2.9289752879	 0.6068415339	 1.5205267914	 0.080486
H	 1.7102809923	-1.72530691	 0.7536714407	 0.112287
H	 1.6024553456	-1.4880594287	 2.5308411603	 0.102646
H	-0.8595432588	-1.3698135953	 1.4097263625	 0.081332
H	-0.9626902773	 1.1671884479	 2.3604250104	 0.106206
H	-0.2628674434	-0.0279171322	 3.4728566904	 0.099057
289.7722	385.1714	417.7209	476.9667	559.6941	617.8254	710.4178	757.1607	803.6744	820.0076	880.0632	896.2827	910.1989	941.5619	959.3342	980.9188	999.1118	1014.0144	1057.8841	1082.6808	1099.5996	1113.1321	1144.5269	1152.4583	1190.3925	1212.3723	1246.1341	1275.6552	1284.8128	1308.3859	1321.2133	1369.3486	1380.6207	1486.9467	1496.6275	1537.0501	3009.7774	3063.6519	3071.6816	3117.9555	3118.9806	3125.3114	3133.0364	3135.0976	3220.9528
C1C2C3CC(CO3)N12	C1[C@H]2[C@@H]3C[C@@H](CO3)N12	
InChI=1S/C6H9NO/c1-4-3-8-6(1)5-2-7(4)5/h4-6H,1-3H2	InChI=1S/C6H9NO/c1-4-3-8-6(1)5-2-7(4)5/h4-6H,1-3H2/t4-,5-,6-,7?/m0/s1
