23
gdb 103974	2.42902	1.47388	1.15211	1.0871	85.8	-0.2391	0.0834	0.3226	1201.8357	0.204249	-388.257446	-388.247726	-388.246782	-388.291365	37.358	
C	-0.0294055432	 1.4207713591	 0.0573421346	-0.250022
O	-0.1393341381	 0.0226126058	-0.0966176291	-0.285075
C	 0.6231317083	-0.544332269	-1.1509374603	 0.426301
C	 0.1938033116	-0.0090140809	-2.5180588244	-0.44674
C	 2.1887434847	-0.5671933049	-0.9808382801	-0.310918
C	 2.141961906	-2.0976300087	-1.0620144997	-0.068398
C	 1.319445489	-2.6907277715	 0.0471985998	-0.006771
C	 1.2856843453	-2.2251298755	 1.488621336	-0.412806
C	 0.6027504872	-2.0740234594	-1.1258288455	-0.115821
H	 1.0190541805	 1.7499079575	 0.112664872	 0.104824
H	-0.5222182667	 1.9761467941	-0.75294148	 0.107458
H	-0.5232186093	 1.6757619592	 0.9986722761	 0.12456
H	 0.4329941869	 1.0524226702	-2.6343049428	 0.113127
H	 0.706312694	-0.5545537875	-3.315225153	 0.120506
H	-0.8855949653	-0.1386642131	-2.6498626297	 0.119827
H	 2.7095346525	-0.0969737579	-1.8181753706	 0.09753
H	 2.5784924102	-0.149561435	-0.0479697885	 0.096964
H	 2.8233334926	-2.696900798	-1.6540889847	 0.08001
H	 1.2911211965	-3.7772337939	-0.0355905588	 0.08184
H	 1.2859401082	-1.1393514121	 1.5762529851	 0.12961
H	 0.3779371782	-2.5863885575	 1.9837270976	 0.115342
H	 2.1469801662	-2.622099018	 2.038420721	 0.103931
H	-0.0608830955	-2.6615289628	-1.7515042349	 0.07472
105.3525	129.6643	159.2463	174.9877	203.018	256.4383	282.4284	318.6033	357.0807	385.8948	456.6123	466.2938	610.2343	626.2414	719.8109	780.243	823.1694	880.6361	915.9473	918.8164	945.7072	982.5992	1001.4397	1006.7071	1059.6128	1073.2975	1100.563	1117.5604	1145.2708	1179.148	1183.6445	1195.0328	1217.1445	1228.9454	1240.1413	1253.2137	1313.781	1359.5169	1401.2307	1414.7031	1446.0958	1474.5172	1480.8375	1487.1564	1491.0778	1491.8203	1505.1794	1505.6448	1512.6443	2985.2573	3032.4795	3033.3505	3038.8477	3054.7601	3088.0111	3104.2887	3106.011	3107.0399	3108.9935	3115.525	3155.1114	3160.4297	3179.863
COC1(C)CC2C(C)C12	CO[C@@]1(C)C[C@H]2[C@@H](C)[C@@H]12	
InChI=1S/C8H14O/c1-5-6-4-8(2,9-3)7(5)6/h5-7H,4H2,1-3H3	InChI=1S/C8H14O/c1-5-6-4-8(2,9-3)7(5)6/h5-7H,4H2,1-3H3/t5-,6+,7-,8+/m1/s1
