20
gdb 41278	2.90957	1.97722	1.79488	1.7617	81.86	-0.222	0.0872	0.3092	885.9022	0.174523	-365.914989	-365.908656	-365.907712	-365.945088	28.114	
C	 0.0162530273	 1.5730645801	-0.1310619665	-0.327493
C	 1.5832123125	 1.6094679948	 0.0120903551	-0.357507
C	 1.5513087385	 0.1904875873	 0.6540006502	 0.285377
C	 1.6330214316	-0.3894993615	 2.0506551048	-0.24824
N	 0.8887181724	-1.5892822795	 1.4795607855	-0.152701
C	-0.4540574278	-0.9340258216	 1.2109479531	-0.241159
C	 0.059485641	 0.0557872625	 0.1628347515	 0.270338
C	 0.5551388551	-0.9375067886	-0.9360966397	-0.284658
C	 1.6097386046	-1.2635598632	 0.1129468539	-0.031265
H	-0.4794835237	 2.1397872463	 0.6627809507	 0.105733
H	-0.4024908431	 1.8826355387	-1.0923150344	 0.100003
H	 2.1136291083	 1.6604708473	-0.9423619283	 0.109938
H	 1.9804475606	 2.3940230585	 0.6600107681	 0.108185
H	 2.6449722233	-0.6926326704	 2.3377340182	 0.102285
H	 1.1406756214	 0.0988448602	 2.8990452353	 0.094125
H	-1.1736006822	-1.6670856777	 0.8377341795	 0.097181
H	-0.8423567676	-0.4959103282	 2.1332057573	 0.099823
H	-0.1318362263	-1.7149247318	-1.2834314976	 0.096473
H	 1.0057174598	-0.4323828341	-1.7944627694	 0.102781
H	 2.4937355042	-1.8875445591	-0.0271481374	 0.07078
219.8002	297.4411	362.858	419.7415	498.2091	508.8113	599.2059	658.253	686.9491	720.339	763.6549	797.6124	833.8636	858.5853	879.7039	895.452	918.4795	944.8437	966.5711	977.5574	1014.3254	1033.2193	1057.8463	1090.7375	1133.4451	1164.2428	1180.8965	1186.5624	1194.126	1215.8559	1228.5913	1241.0551	1250.8747	1252.7322	1274.8112	1298.2108	1304.0292	1316.3895	1468.4104	1480.0541	1490.7035	1504.6915	1528.0689	3032.7473	3049.9071	3051.1504	3062.4147	3064.5957	3087.5833	3098.9878	3101.4576	3107.6126	3113.7951	3118.8239
C1CC23CN4CC12CC34	C1C[C@@]23CN4C[C@@]12C[C@@H]34	
InChI=1S/C8H11N/c1-2-8-5-9-4-7(1,8)3-6(8)9/h6H,1-5H2	InChI=1S/C8H11N/c1-2-8-5-9-4-7(1,8)3-6(8)9/h6H,1-5H2/t6-,7-,8-/m0/s1
