18
gdb 26424	2.89251	1.34157	0.94685	1.8446	79.57	-0.1976	-0.0353	0.1623	1219.9892	0.148021	-401.999925	-401.99138	-401.990436	-402.034208	31.672	
C	 0.5875958272	 1.6535808068	-0.3100290369	-0.399306
C	 0.042904165	 0.2610429579	 0.0739234701	-0.235349
C	-0.0368259296	-0.6044290003	-1.1702411937	 0.179246
O	 0.2682881789	-1.7686831846	-1.2734959709	-0.270926
C	 0.7591791943	-0.3334781109	 1.2537761399	 0.330963
C	 1.2073368873	 0.2717541163	 2.4130179343	-0.23935
C	 1.775902596	-0.7382130969	 3.2345954112	-0.147014
C	 1.6601812616	-1.9294527911	 2.5549822618	-0.096143
N	 1.0362112517	-1.6747612776	 1.3647208796	-0.293947
H	 1.6461808975	 1.5954942023	-0.5774819143	 0.138176
H	 0.0326594234	 2.072598073	-1.1558730024	 0.116339
H	 0.4881918824	 2.3444468646	 0.5291601431	 0.138775
H	-1.0268580682	 0.4060214153	 0.3205846626	 0.12363
H	-0.4587190657	-0.0610079841	-2.0456653603	 0.090438
H	 1.1277291268	 1.3214291867	 2.6515806459	 0.085721
H	 2.217526443	-0.6041382045	 4.2099836094	 0.089956
H	 1.9717647527	-2.9284986865	 2.8144283942	 0.113375
H	 0.8709389357	-2.3197335065	 0.6081430965	 0.275413
23.973	117.949	165.92	205.5637	236.8237	299.6356	362.1862	429.4115	572.4999	606.2819	645.6379	678.2937	698.9273	728.627	798.931	846.9543	894.6242	904.8797	916.0245	960.3654	1024.1652	1062.2576	1094.1879	1110.311	1144.605	1151.9722	1248.4151	1274.079	1298.7153	1330.6437	1406.1722	1429.7934	1445.8473	1460.4402	1484.3131	1495.8487	1506.2371	1600.5778	1811.9157	2881.0702	2924.0466	3043.511	3114.157	3135.351	3239.6924	3252.4634	3270.8814	3638.4984
CC(C=O)C1=CC=CN1	C[C@@H](C=O)c1ccc[nH]1	
InChI=1S/C7H9NO/c1-6(5-9)7-3-2-4-8-7/h2-6,8H,1H3	InChI=1S/C7H9NO/c1-6(5-9)7-3-2-4-8-7/h2-6,8H,1H3/t6-/m0/s1
