23
gdb 110877	2.57806	1.2236	1.06386	1.3031	85.55	-0.2318	0.0831	0.3149	1299.4926	0.206039	-388.290706	-388.281435	-388.28049	-388.325085	35.46	
C	 0.0477837494	 1.4523314205	 0.2889953668	-0.375498
C	 0.0297943859	 0.0036581855	-0.2139581269	-0.199256
C	-1.3507441436	-0.6097312326	-0.1271241419	-0.026312
C	-1.6380136583	-2.1060350855	-0.1595729435	-0.114411
C	-0.5131745348	-3.0931055312	 0.1484896551	-0.269629
C	-0.3943011175	-3.019072256	 1.6889826508	 0.171247
C	 0.9976944301	-3.2164186999	 2.261105797	-0.407976
O	-0.865058932	-1.7050780523	 2.0407182718	-0.274191
C	-1.8439681545	-1.3199997166	 1.1097759611	 0.070609
H	 1.0474080068	 1.8894005023	 0.2011634937	 0.107409
H	-0.6427600522	 2.0815984425	-0.2836184155	 0.109139
H	-0.2511940511	 1.4997039062	 1.3408010251	 0.12718
H	 0.381460624	-0.0329634218	-1.2532159424	 0.091441
H	 0.7348894944	-0.5855930222	 0.3783123799	 0.10689
H	-2.1192648178	-0.0211918212	-0.6271228424	 0.077712
H	-2.478899314	-2.4483376733	-0.7513066332	 0.0856
H	-0.7679967077	-4.1030562352	-0.1843962897	 0.101131
H	 0.4332511736	-2.8202520475	-0.3315550591	 0.1017
H	-1.0790879071	-3.760698571	 2.1327579158	 0.067201
H	 1.7027587812	-2.5004945826	 1.8269205229	 0.12287
H	 0.9919758536	-3.0780708783	 3.3458115135	 0.126333
H	 1.3553611349	-4.2284340425	 2.0460471806	 0.114761
H	-2.8197696532	-1.1106882071	 1.5390357805	 0.086049
51.4634	87.9009	154.0362	205.9275	225.8717	269.2349	297.9209	318.3327	457.3057	495.9738	552.4854	610.1629	725.4935	756.3586	782.9573	803.7851	831.9236	894.6954	908.0391	928.8507	970.9204	1007.2112	1024.2914	1053.2307	1058.709	1095.6117	1110.7258	1132.5101	1142.5163	1157.0178	1158.7483	1221.2228	1227.6851	1285.9743	1298.2749	1319.5845	1330.5417	1365.8603	1375.2228	1392.0407	1407.0165	1412.4842	1437.9494	1479.4782	1485.0623	1493.4672	1497.3155	1498.9477	1505.8614	2959.7539	3023.7532	3031.5515	3037.6889	3041.8729	3082.5422	3090.7962	3101.2963	3108.6924	3110.5235	3114.8649	3117.8023	3141.4777	3173.6954
CCC1C2CC(C)OC12	CC[C@H]1[C@H]2C[C@@H](C)O[C@@H]12	
InChI=1S/C8H14O/c1-3-6-7-4-5(2)9-8(6)7/h5-8H,3-4H2,1-2H3	InChI=1S/C8H14O/c1-3-6-7-4-5(2)9-8(6)7/h5-8H,3-4H2,1-2H3/t5-,6+,7-,8+/m1/s1
