21
gdb 73259	2.49954	1.67276	1.26071	1.1518	83.47	-0.2412	0.0195	0.2606	1082.0623	0.184135	-387.095592	-387.087468	-387.086523	-387.127826	32.955	
O	-0.0706382532	 1.3739504782	 0.0927580801	-0.490838
C	 0.0489531906	-0.0453951385	-0.0256591049	 0.410614
C	 0.2010611711	-0.4753336641	-1.5215830128	-0.274415
C	-1.3437364819	-0.6444384021	-1.5878176486	-0.2427
C	-1.3882486349	-0.6330646908	-0.0322645026	-0.016028
C	-1.4570505475	-2.0162547278	 0.6195218163	-0.222951
C	-0.7943606231	-2.0259182213	 2.0057324221	-0.263793
C	 0.6015810372	-1.4535367299	 1.9457846672	-0.054778
C	 0.9878412541	-0.5902459779	 1.0070799214	-0.143244
H	 0.8077470295	 1.7525215774	-0.0260956979	 0.271386
H	 0.6526067406	 0.2700227829	-2.1815483467	 0.089365
H	 0.737617739	-1.4214352902	-1.6321909673	 0.100074
H	-1.8355857386	 0.2269073989	-2.0239789486	 0.108616
H	-1.7212664087	-1.5449791963	-2.0788956151	 0.091309
H	-2.1148437575	 0.0459566668	 0.4225242096	 0.074593
H	-2.4986459743	-2.351163895	 0.6826044313	 0.093774
H	-0.9331645272	-2.7441307986	-0.0134852016	 0.096411
H	-1.4002190155	-1.4526638348	 2.7232513588	 0.112741
H	-0.7598026673	-3.048617189	 2.3992750638	 0.099611
H	 1.3087357828	-1.7788395339	 2.7054104846	 0.087318
H	 2.0123141046	-0.218050254	 0.987627161	 0.072936
93.6511	183.8086	236.7851	266.3798	301.4667	350.0456	409.4568	451.0524	474.3326	512.3295	617.6313	712.7424	720.1496	758.6211	800.9635	860.3571	893.5881	920.877	946.8215	976.8562	987.2614	993.8522	1005.1964	1041.4753	1077.1332	1113.7955	1125.4008	1160.5777	1196.8949	1204.9123	1229.1566	1250.2471	1261.669	1272.4499	1282.5077	1325.5765	1359.2151	1377.8963	1389.7142	1420.3796	1464.8632	1479.2749	1486.0442	1494.635	1714.8515	3000.4519	3020.6419	3050.817	3053.6993	3056.5406	3066.1902	3075.9307	3105.2176	3118.3762	3125.4318	3155.971	3793.9543
OC12CCC1CCC=C2	O[C@]12CC[C@H]1CCC=C2	
InChI=1S/C8H12O/c9-8-5-2-1-3-7(8)4-6-8/h2,5,7,9H,1,3-4,6H2	InChI=1S/C8H12O/c9-8-5-2-1-3-7(8)4-6-8/h2,5,7,9H,1,3-4,6H2/t7-,8-/m1/s1
