21
gdb 26181	3.79515	0.94394	0.91033	3.0288	86.48	-0.2057	0.0414	0.2471	1436.0031	0.182669	-383.33257	-383.322779	-383.321835	-383.36791	35.957	
C	 0.0257063027	 1.5546991809	 0.2367618654	-0.388619
C	-0.0438441566	 0.0315091176	 0.0211815517	-0.072143
C	 0.8062029336	-0.7189777216	 1.0631421093	-0.388572
C	-1.4600602856	-0.4664188768	-0.0108846947	 0.335475
N	-2.0487785826	-1.0433096772	-1.0369209414	-0.352278
C	-3.3370496796	-1.3386580831	-0.6335315812	 0.279411
C	-4.3096861673	-2.0072410429	-1.54971747	-0.488471
C	-3.5219475897	-0.9298175925	 0.6603495855	-0.191822
N	-2.3185596119	-0.3743491407	 1.0491260604	-0.281347
H	 1.0619174192	 1.9041463629	 0.1849470138	 0.115694
H	-0.5547190264	 2.0874209552	-0.5215924647	 0.128875
H	-0.3668116005	 1.8385762245	 1.220602542	 0.100756
H	 0.3513622755	-0.1945517871	-0.9740357993	 0.107971
H	 0.4469635112	-0.5329780002	 2.0824353281	 0.100775
H	 0.7793525771	-1.7984556392	 0.8905549428	 0.128902
H	 1.8492854725	-0.3895087539	 1.0187999485	 0.115664
H	-3.9362020268	-2.983456319	-1.8779440447	 0.129614
H	-5.2744650487	-2.1593948999	-1.0577008992	 0.112872
H	-4.4773706554	-1.4092448632	-2.4522245014	 0.12961
H	-4.36896764	-0.978117552	 1.3248315534	 0.118823
H	-2.1164988205	 0.0236934883	 1.9502851859	 0.258811
24.7499	115.444	132.1435	179.3859	228.9901	255.254	255.3868	285.1421	360.4539	398.1033	490.7142	520.66	622.014	664.3191	700.6644	719.0514	758.0398	886.6365	931.3237	963.0636	985.1437	1009.778	1019.0113	1065.4476	1065.6255	1112.9185	1120.3339	1185.8652	1253.3974	1293.2314	1327.313	1343.9552	1369.8167	1398.236	1415.9811	1421.4437	1460.5902	1476.5295	1484.4363	1492.5391	1495.7425	1501.9204	1506.5031	1568.3385	1614.9618	3025.6486	3029.2042	3031.9438	3063.7015	3085.1416	3088.4693	3099.2096	3112.6545	3113.7098	3115.6753	3267.7793	3668.7355
CC(C)C1=NC(C)=CN1	CC(C)c1nc(C)c[nH]1	
InChI=1S/C7H12N2/c1-5(2)7-8-4-6(3)9-7/h4-5H,1-3H3,(H,8,9)	InChI=1S/C7H12N2/c1-5(2)7-8-4-6(3)9-7/h4-5H,1-3H3,(H,8,9)
