21
gdb 118673	2.92106	0.77998	0.64199	4.5668	78.09	-0.2423	-0.0127	0.2296	1782.0977	0.1782	-461.342248	-461.330966	-461.330022	-461.380175	37.436	
C	 0.0356027394	 1.3624183078	 0.0618358599	-0.230411
O	 0.0309171662	-0.0454719749	 0.0199823209	-0.228342
C	 0.6057025442	-0.5647284753	-1.1544619871	-0.074039
C	 0.5620398958	-2.0921094389	-1.0729125691	-0.118692
C	 1.1534377125	-2.710107351	-2.3416805677	-0.074041
O	 1.0686250075	-4.109923495	-2.2292100681	-0.228342
C	 1.6056735856	-4.7872561403	-3.3412925666	-0.230411
C	 1.3567814291	-2.5593965005	 0.1381686735	 0.191342
O	 0.9165396457	-3.1835823714	 1.0629478896	-0.241525
H	 1.0584775931	 1.768893246	 0.0213654225	 0.106196
H	-0.5398132831	 1.7965095444	-0.7709459665	 0.106025
H	-0.4269134169	 1.6607352046	 1.0051590985	 0.135551
H	 0.0597177602	-0.2169685972	-2.0478314517	 0.094336
H	 1.6498274104	-0.2173565686	-1.2604277693	 0.088197
H	-0.4716584782	-2.4256992673	-0.9469988422	 0.113728
H	 0.6047583875	-2.3518273652	-3.2292229302	 0.094338
H	 2.2058090048	-2.3950390284	-2.465531988	 0.088198
H	 1.0749758684	-4.5283947868	-4.271031748	 0.106025
H	 2.6743149905	-4.5600490816	-3.48098946	 0.106196
H	 1.4925694377	-5.8574826655	-3.155293698	 0.135551
H	 2.4343531494	-2.2621940249	 0.0980968175	 0.060121
60.6081	77.8539	83.2826	92.8941	105.7538	106.6599	221.2864	232.159	242.6771	316.3827	322.569	335.325	384.3879	566.1163	569.2882	864.5354	930.8089	966.6836	985.6826	1003.8339	1099.3488	1121.5077	1148.0311	1157.3841	1173.2896	1182.6074	1190.253	1218.9009	1239.7721	1252.9894	1256.1595	1296.1286	1346.8464	1414.2157	1416.1902	1434.3124	1478.6109	1481.153	1486.0296	1486.0827	1500.0428	1503.0033	1525.1104	1531.413	1852.8381	2822.6421	2933.5337	2942.6218	2966.8311	2972.4559	2973.0003	2978.3458	3017.369	3017.506	3091.0782	3122.0626	3122.1717
COCC(COC)C=O	COCC(COC)C=O	
InChI=1S/C6H12O3/c1-8-4-6(3-7)5-9-2/h3,6H,4-5H2,1-2H3	InChI=1S/C6H12O3/c1-8-4-6(3-7)5-9-2/h3,6H,4-5H2,1-2H3
