16
gdb 128158	3.14999	1.23934	0.93234	1.1061	68.82	-0.1901	0.0379	0.228	1219.6247	0.124304	-471.204049	-471.19445	-471.193506	-471.239136	33.648	
C	-0.5327572231	 1.1966931761	 0.1962813316	-0.32823
N	 0.4983294075	 0.2045300998	-0.1335926088	-0.396581
C	 0.891444103	-0.6561567958	 0.8925165724	 0.337206
C	 0.7645226957	-2.0244095313	 1.0292587158	 0.095304
O	 0.1119146173	-2.8568522125	 0.1603308955	-0.47201
C	 1.4161304009	-2.3218829589	 2.2443678126	 0.325868
O	 1.5168601645	-3.5711010118	 2.7590144532	-0.449398
N	 1.9063739498	-1.2501655229	 2.8395961735	-0.339294
N	 1.5534248227	-0.2270540405	 2.0054078423	-0.273942
H	-0.1617437324	 1.8713051139	 0.9724588388	 0.128111
H	-0.7402496578	 1.7967619854	-0.6933318812	 0.126614
H	-1.4727595223	 0.7511006714	 0.5539259434	 0.119678
H	 0.2222797027	-0.3469498161	-0.9369628442	 0.247701
H	 0.3125978239	-3.7630222815	 0.415892182	 0.305254
H	 2.0038255568	-3.4997301665	 3.5891990813	 0.304248
H	 1.9820432409	 0.6720962414	 2.1331939219	 0.269471
31.6321	121.4372	147.4015	164.5002	226.8323	242.7298	254.9715	301.6728	324.3866	388.7538	464.2876	561.7098	578.4235	678.3984	713.2976	724.7875	792.9188	804.3222	1002.3781	1085.3136	1120.46	1151.4202	1157.4764	1220.0268	1278.7276	1313.7743	1331.6368	1456.7538	1460.4	1488.9918	1498.3708	1518.8004	1571.7962	1593.5537	1703.2326	2994.5937	3086.1217	3122.4916	3561.6005	3691.7899	3800.4573	3830.3151
CNC1=C(O)C(O)=NN1	CNc1c(O)c(O)n[nH]1	
InChI=1S/C4H7N3O2/c1-5-3-2(8)4(9)7-6-3/h8H,1H3,(H3,5,6,7,9)	InChI=1S/C4H7N3O2/c1-5-3-2(8)4(9)7-6-3/h8H,1H3,(H3,5,6,7,9)
