14
gdb 8743	4.07778	1.29935	1.21368	4.2303	63.75	-0.2769	0.0117	0.2886	999.7694	0.105857	-378.681563	-378.673012	-378.672068	-378.714593	30.654	
N	 0.3660095501	 1.5606706943	-0.0739559324	-0.528168
C	 0.1467536011	 0.1039245906	-0.0512784954	-0.208809
C	 0.7701127974	-0.5225678466	-1.2119367327	 0.349247
C	 1.2672915552	-1.0362835218	-2.1767088992	-0.432241
C	 0.8057996112	-0.4180572897	 1.2683059749	 0.003308
O	 2.1187963137	 0.0444524802	 1.3816065327	-0.404106
C	-0.0313064407	 0.0201813758	 2.4143089432	 0.259112
N	-0.6983709856	 0.3903739584	 3.2824928034	-0.323306
H	 0.3138840722	 1.9131047405	-1.0221304186	 0.253793
H	-0.3463510973	 2.0295462846	 0.4775525163	 0.25713
H	-0.9181751821	-0.1719940805	-0.0320049203	 0.121071
H	 1.7106035141	-1.4962956271	-3.0256541376	 0.210387
H	 0.8252282135	-1.5118602694	 1.2573621102	 0.143822
H	 2.0883402273	 0.9532182406	 1.0343040655	 0.29876
71.8199	120.5575	166.6777	223.2735	249.8948	266.9437	318.0016	398.4204	494.6386	545.7256	581.2131	607.9176	643.1337	677.0144	737.5991	854.4901	900.736	912.4482	973.4667	1072.4524	1113.1717	1205.8852	1257.9688	1305.322	1346.5088	1393.0194	1449.4455	1643.6294	2246.066	2350.1785	2990.0619	3079.8938	3501.0585	3511.0599	3605.1102	3651.045
NC(C#C)C(O)C#N	N[C@@H](C#C)[C@@H](O)C#N	
InChI=1S/C5H6N2O/c1-2-4(7)5(8)3-6/h1,4-5,8H,7H2	InChI=1S/C5H6N2O/c1-2-4(7)5(8)3-6/h1,4-5,8H,7H2/t4-,5-/m0/s1
