17
gdb 79087	2.97264	1.74644	1.2725	2.1737	71.79	-0.2208	0.0039	0.2246	975.231	0.135899	-421.75892	-421.751596	-421.750652	-421.790059	30.27	
O	-0.0293766752	 1.4386991713	-0.0772371213	-0.44704
C	 0.0356830421	 0.0322413799	 0.0028921481	 0.114312
C	 0.0234740228	-0.6343437682	 1.4023796055	-0.166882
C	-1.4829680113	-0.2121230648	 1.5829103482	-0.068793
C	-2.1829048526	-1.3471506421	 2.3154026978	-0.105335
C	-1.6553368672	-2.444972404	 1.776385434	-0.1918
C	-0.6639017692	-1.9015725376	 0.7482829592	 0.380506
O	 0.0414621389	-2.7794318904	-0.0737641276	-0.493246
C	-1.3353775135	-0.6594175018	 0.0742710309	-0.095595
H	 0.8667514871	 1.783133625	-0.0191133578	 0.282112
H	 0.7432924746	-0.3860879067	-0.7200882855	 0.079519
H	 0.7985022142	-0.6326336225	 2.174822463	 0.060949
H	-1.7169515055	 0.824943809	 1.8008111137	 0.085736
H	-2.9359675545	-1.2456086903	 3.0838455104	 0.105877
H	-1.8512189084	-3.4916434628	 1.9638599164	 0.102664
H	 0.5709391382	-3.3577660503	 0.4851109874	 0.282332
H	-2.1229625705	-0.6799382738	-0.6822017824	 0.074684
204.9995	256.4224	258.8888	293.0444	318.1759	354.4958	438.8033	538.1491	552.111	632.8877	678.0253	741.5961	761.3323	798.8736	840.5003	884.2952	902.5438	918.4052	934.0609	968.2993	1021.477	1048.4225	1069.8997	1084.9083	1121.5401	1142.2461	1166.0403	1176.9955	1194.9254	1241.5294	1257.5604	1280.6492	1306.0516	1329.7461	1358.1897	1436.8576	1640.1411	3054.6972	3070.6372	3097.0508	3176.5786	3218.4517	3246.4158	3810.1312	3825.9105
OC1C2C3C=CC2(O)C13	O[C@H]1[C@H]2[C@@H]3C=C[C@@]2(O)[C@H]13	
InChI=1S/C7H8O2/c8-6-4-3-1-2-7(4,9)5(3)6/h1-6,8-9H	InChI=1S/C7H8O2/c8-6-4-3-1-2-7(4,9)5(3)6/h1-6,8-9H/t3-,4+,5-,6-,7-
