20
gdb 67562	2.85131	1.99196	1.48287	1.5115	81.64	-0.2277	0.0905	0.3182	948.8946	0.173291	-365.940868	-365.934007	-365.933063	-365.971525	29.423	
C	 0.0546128711	 1.5240942804	-0.0337357157	-0.511632
C	 0.0747790865	 0.0133526138	 0.022286156	 0.368863
C	 0.5127998064	-0.7335860107	-1.2346402307	-0.102445
C	 1.688543425	-1.640470282	-1.1511030645	-0.251957
N	 0.3328961971	-2.152054037	-0.8697728087	-0.119371
C	-0.0743582297	-1.9823800816	 0.5359236932	 0.021985
C	 0.6340991183	-0.7798890905	 1.2569748818	-0.119563
C	-0.6751115628	-0.5240013885	 2.0356533274	-0.274885
C	-1.1353052196	-0.8427763583	 0.5994843684	-0.086444
H	 1.062566499	 1.9194450644	-0.2028036931	 0.121365
H	-0.5764234267	 1.873809896	-0.8588569446	 0.119387
H	-0.3280205748	 1.9708108689	 0.8881853633	 0.120295
H	 0.1305160011	-0.4091333011	-2.1997641819	 0.085445
H	 2.1268183139	-2.0271601386	-2.0669412791	 0.114213
H	 2.3887631596	-1.5277101015	-0.3289720288	 0.113631
H	-0.2371401568	-2.9179369572	 1.0714344422	 0.073786
H	 1.6491472885	-0.7415823675	 1.6557788115	 0.068412
H	-0.9337922536	-1.2575119348	 2.8043718309	 0.092304
H	-0.8444907315	 0.4899986858	 2.4034167212	 0.095237
H	-2.1520530911	-0.8814350999	 0.2043747713	 0.071374
203.4593	233.1983	301.8249	334.3547	369.179	439.5748	541.6257	615.8221	678.7563	680.1292	756.3423	807.0073	823.0024	852.3305	894.1435	904.6252	919.0009	932.8013	997.8844	1004.1729	1023.0836	1057.7147	1065.8388	1086.2149	1097.5943	1108.7371	1117.8359	1151.9153	1167.277	1181.5177	1200.2603	1217.802	1242.1913	1246.6267	1254.5573	1280.1023	1312.9306	1381.7245	1414.6221	1489.9234	1493.5439	1503.8983	1524.7461	3029.3155	3056.9271	3086.5411	3091.3758	3098.1154	3106.9032	3115.6945	3116.2257	3120.8411	3133.3687	3200.9441
CC12C3CN3C3C1CC23	C[C@@]12[C@H]3CN3[C@H]3[C@@H]1C[C@@H]23	
InChI=1S/C8H11N/c1-8-4-2-5(8)7(4)9-3-6(8)9/h4-7H,2-3H2,1H3	InChI=1S/C8H11N/c1-8-4-2-5(8)7(4)9-3-6(8)9/h4-7H,2-3H2,1H3/t4-,5+,6-,7-,8+,9?/m1/s1
