20
gdb 106537	2.13344	1.59867	1.12309	1.9469	80.16	-0.2398	0.0064	0.2462	1176.1611	0.17022	-403.107555	-403.098439	-403.097494	-403.141388	34.119	
C	-0.0101125719	 1.530168161	 0.0229919156	-0.396228
C	-0.0484195702	-0.0028693827	-0.0332705279	-0.325321
C	-1.4400914657	-0.5545635974	 0.0657545537	 0.201312
N	-2.5534404697	-0.234310498	-0.9533072693	-0.34823
C	-3.2394031389	-1.1830111693	 0.0276505835	-0.16456
C	-1.9381213436	-2.0409257404	-0.018475024	-0.002937
C	-1.6322424789	-2.8401457367	-1.2755330425	-0.43637
C	-2.5531124481	-0.3369007492	 1.1184767234	 0.412128
O	-2.792922828	 0.3045829437	 2.0969687496	-0.341334
H	 1.0202302738	 1.8951566457	-0.0079122349	 0.118564
H	-0.542123534	 1.9687971113	-0.827568773	 0.121468
H	-0.4758027292	 1.897894009	 0.9420830854	 0.143852
H	 0.4172231349	-0.3623308736	-0.9590103259	 0.114163
H	 0.5370180949	-0.4212934171	 0.7950385527	 0.114463
H	-2.8979636339	 0.7227110171	-0.8351950956	 0.229115
H	-4.273358889	-1.4952118046	-0.1061556615	 0.096923
H	-1.7532987661	-2.6226892959	 0.8893167817	 0.08281
H	-1.831030053	-2.2561889107	-2.1750816288	 0.144543
H	-0.5816434095	-3.1499757554	-1.2851287911	 0.117464
H	-2.2415701538	-3.7493506068	-1.3071490212	 0.118176
72.1554	133.4646	157.8141	201.267	220.7948	226.1145	276.9677	335.8043	407.3245	517.1253	546.9546	649.5161	705.0278	761.8158	784.3259	798.5753	823.8131	869.5514	896.6034	977.5571	1013.5176	1040.9945	1053.1268	1084.0891	1106.9381	1138.8528	1164.058	1185.0253	1199.5132	1238.4423	1266.2132	1298.7237	1317.2199	1381.1167	1399.6203	1412.3782	1418.152	1474.8112	1495.0119	1501.6415	1504.4051	1509.9111	1890.8655	3027.4863	3038.9597	3040.537	3061.9994	3070.127	3094.8777	3109.1682	3119.8715	3143.5234	3145.1863	3408.9694
CCC12NC(C1C)C2=O	CC[C@@]12N[C@@H]([C@H]1C)C2=O	
InChI=1S/C7H11NO/c1-3-7-4(2)5(8-7)6(7)9/h4-5,8H,3H2,1-2H3	InChI=1S/C7H11NO/c1-3-7-4(2)5(8-7)6(7)9/h4-5,8H,3H2,1-2H3/t4-,5+,7-/m1/s1
