18
gdb 9061	4.44926	0.87233	0.76894	2.3849	75.27	-0.2493	-0.0243	0.225	1442.6695	0.150147	-347.784625	-347.774918	-347.773974	-347.820268	33.566	
C	-0.1043751709	 1.5603242679	-0.0958717179	-0.413072
C	-0.0069139341	 0.0268843058	-0.0118751446	-0.061172
C	 0.7604555159	-0.466973569	 1.2336443548	-0.191237
C	 2.2515744306	-0.0673027377	 1.2409457046	-0.366684
C	 2.9637534486	-0.6112920604	 2.3905488566	 0.290733
C	 3.5255776524	-1.071604248	 3.3481271216	-0.427232
C	-1.4075352069	-0.5558452541	 0.0297420456	 0.156323
O	-1.8575457381	-1.3426818991	-0.7613707686	-0.24687
H	 0.8852964931	 2.0199861119	-0.1573064975	 0.130887
H	-0.6663865708	 1.8690900635	-0.9824673946	 0.132346
H	-0.6104750876	 1.9716723687	 0.7851106852	 0.124258
H	 0.4712532414	-0.3686762563	-0.9152006977	 0.096023
H	 0.2825618444	-0.0816283882	 2.1426032498	 0.11373
H	 0.69765323	-1.5592647965	 1.286634763	 0.125621
H	 2.7259153842	-0.4189084016	 0.3153433719	 0.135007
H	 2.3516816856	 1.0243114157	 1.2404604937	 0.134977
H	 4.034069574	-1.4739781138	 4.1888701545	 0.19673
H	-2.0222451119	-0.1904232588	 0.8882631196	 0.069632
45.1778	62.6274	82.1991	120.0211	203.4194	240.9891	301.7545	330.2777	358.7983	385.6773	484.8228	582.2269	621.0221	641.9338	762.447	873.7407	913.0935	946.0343	959.3852	970.7706	1037.3732	1114.9755	1127.9904	1157.1786	1216.366	1259.8296	1313.9125	1321.7085	1358.1389	1382.9229	1408.641	1428.787	1472.3566	1491.4291	1497.0568	1505.0839	1837.2961	2240.137	2837.2599	3021.6524	3034.8109	3035.7173	3051.0719	3056.1013	3084.6851	3104.3019	3116.5316	3507.2391
CC(CCC#C)C=O	C[C@@H](CCC#C)C=O	
InChI=1S/C7H10O/c1-3-4-5-7(2)6-8/h1,6-7H,4-5H2,2H3	InChI=1S/C7H10O/c1-3-4-5-7(2)6-8/h1,6-7H,4-5H2,2H3/t7-/m0/s1
