16
gdb 97350	7.58302	0.64854	0.59966	2.6441	75.69	-0.26	-0.022	0.2381	1803.3251	0.12284	-471.237936	-471.228278	-471.227334	-471.273594	32.564	
C	-0.127113433	 1.3217648382	 0.2672699596	-0.319007
N	 0.0346510183	-0.113039479	 0.1303940176	-0.199649
C	 0.5687032398	-0.529006545	-0.9240899481	 0.121771
O	 0.7344440769	-1.8832260723	-1.0805900423	-0.257047
C	 1.3263515499	-2.3130698661	-2.2540876933	 0.558101
O	 1.7037918447	-1.6044242918	-3.1401844503	-0.342385
N	 1.3811457532	-3.6884761161	-2.1754734706	-0.378874
C	 1.8922705498	-4.5828835072	-3.1141651014	 0.084088
N	 2.3996335357	-4.2392371727	-4.2205342873	-0.394611
H	 0.3952695327	 1.658756551	 1.1691334038	 0.134809
H	 0.2465962864	 1.9001412286	-0.5913813666	 0.108211
H	-1.1884901682	 1.5527706489	 0.4084341719	 0.134814
H	 0.9360422963	 0.0549977843	-1.7707797699	 0.138336
H	 1.0011380097	-4.0785619845	-1.3274856828	 0.272562
H	 1.7856948212	-5.6105658843	-2.746384996	 0.104405
H	 2.7015718064	-5.0662344421	-4.7326628642	 0.234475
49.0781	83.7402	104.9104	112.4308	189.7553	215.2391	226.8042	315.6753	326.7164	386.5038	549.7647	587.0109	598.3108	765.3518	824.6527	835.1174	963.0013	991.4274	1063.5252	1064.3057	1075.7977	1141.8537	1155.4507	1190.5355	1206.6379	1260.7548	1370.5624	1430.1781	1447.9437	1481.1244	1501.9919	1546.0486	1741.5347	1781.9225	1878.7833	2986.074	3045.702	3070.9782	3088.5173	3114.6144	3505.1815	3644.8556
CN=COC(=O)NC=N	CN=COC(=O)NC=N	
InChI=1S/C4H7N3O2/c1-6-3-9-4(8)7-2-5/h2-3H,1H3,(H2,5,7,8)	InChI=1S/C4H7N3O2/c1-6-3-9-4(8)7-2-5/h2-3H,1H3,(H2,5,7,8)
