21
gdb 91953	2.29957	1.73103	1.31475	2.6237	81.23	-0.2245	0.0644	0.2889	1071.5913	0.184561	-383.223144	-383.215026	-383.214081	-383.255553	32.482	
C	 0.715250846	 1.5591673749	-0.2638719385	-0.401178
C	 0.1561539578	 0.1695690691	 0.073704861	-0.104974
C	 0.3504702306	-0.8875181906	-1.0595885168	-0.173016
N	 1.327590057	-1.9085158324	-0.6338860814	-0.099313
C	 2.6379737972	-1.3617865616	-0.2580420355	-0.262136
C	 1.6260582084	-1.6582163365	 0.7884899549	-0.076201
C	 0.789312459	-0.5172774899	 1.2990435491	 0.346962
C	 1.0723110059	 0.1832826028	 2.5756756272	-0.293792
N	-0.0021562314	-0.8247282221	 2.5060867431	-0.362153
H	 1.7954469685	 1.5431824849	-0.4349970146	 0.124638
H	 0.2425267105	 1.9478757752	-1.1722761525	 0.117057
H	 0.5196860038	 2.2764598706	 0.5396190801	 0.114757
H	-0.9178781157	 0.2894985812	 0.2590045197	 0.077702
H	-0.591737733	-1.4087676651	-1.2558456055	 0.109873
H	 0.6737355356	-0.4299187746	-2.0006136083	 0.103621
H	 3.4704066297	-2.0432778977	-0.4099609487	 0.116007
H	 2.8636806165	-0.3230353189	-0.4835225027	 0.108957
H	 1.7286076452	-2.5193300862	 1.4418929212	 0.100497
H	 1.9319574739	-0.1048281757	 3.1754690189	 0.117945
H	 0.800680011	 1.2323092444	 2.6612721476	 0.108949
H	-0.9047662566	-0.3573041717	 2.4556415318	 0.225797
79.975	197.9076	202.9359	260.0771	295.2249	343.6638	373.4497	419.979	496.339	550.2436	681.8097	720.5447	767.6721	851.5288	858.7315	873.3145	900.2015	935.4323	943.0677	974.4804	992.5852	1017.0569	1053.0837	1061.3944	1098.9051	1108.4906	1120.0197	1133.5472	1144.6764	1180.3505	1245.4702	1250.3901	1266.8374	1279.843	1308.3171	1323.3205	1352.9382	1360.0714	1411.1989	1429.0625	1490.1437	1494.8085	1502.1277	1514.4974	1517.6488	3020.6157	3034.834	3043.9694	3082.3812	3097.6709	3103.272	3107.3287	3115.1556	3157.9705	3185.1509	3193.284	3488.0836
CC1CN2CC2C11CN1	C[C@H]1CN2C[C@H]2[C@]21CN2	
InChI=1S/C7H12N2/c1-5-2-9-3-6(9)7(5)4-8-7/h5-6,8H,2-4H2,1H3	InChI=1S/C7H12N2/c1-5-2-9-3-6(9)7(5)4-8-7/h5-6,8H,2-4H2,1H3/t5-,6-,7+,9?/m0/s1
