18
gdb 97220	2.5513	1.3869	0.9166	1.6981	79.85	-0.2237	0.0086	0.2323	1263.3951	0.148961	-435.290353	-435.281301	-435.280357	-435.325009	31.508	
C	 0.1912848032	 1.6382500963	-0.148975568	-0.328773
N	-0.0108419245	 0.2040881575	-0.0512895167	-0.373064
C	 0.596572419	-0.4518955822	 0.8338504831	 0.530538
O	 1.4338514595	 0.0395106979	 1.7945317688	-0.262749
C	 2.0836153696	-1.0460871983	 2.4753864706	-0.108494
C	 1.2116527395	-2.2770571792	 2.1902505782	-0.180248
N	 0.5075381189	-1.8353897006	 0.9999753678	-0.136211
C	-0.2747483723	-2.6607443583	 0.2284437574	 0.076722
N	-0.3771761164	-3.900733203	 0.5055899205	-0.476948
H	 1.0460164895	 2.0088374397	 0.4289417245	 0.120807
H	 0.3358535689	 1.9092436465	-1.2004052485	 0.12126
H	-0.7074611667	 2.1658270886	 0.1943932245	 0.122743
H	 3.0958691467	-1.1610776526	 2.0718549408	 0.124919
H	 2.1476588817	-0.7937482838	 3.5350834242	 0.130622
H	 1.7889300027	-3.1814693632	 1.9891073303	 0.145448
H	 0.509162876	-2.4984918381	 3.0025924215	 0.12968
H	-0.748894414	-2.1168293446	-0.5915807239	 0.136149
H	-0.982977731	-4.3589706526	-0.1720410849	 0.227598
64.3653	88.6566	127.3708	154.8699	179.9204	233.7379	256.8984	292.7269	422.935	590.4725	684.3594	700.411	712.997	805.1867	823.5362	882.2598	979.6411	1024.6482	1059.9535	1075.0113	1123.6268	1136.8728	1144.739	1159.9638	1183.1933	1217.3068	1245.3316	1291.8582	1368.824	1393.6158	1401.3149	1445.0206	1447.4	1495.2656	1501.6429	1520.6727	1530.4799	1708.9403	1810.8788	3011.57	3035.5361	3044.6916	3067.2171	3084.0632	3109.082	3115.3557	3122.1404	3509.8088
CN=C1OCCN1C=N	CN=C1OCCN1[CH][NH]	
InChI=1S/C5H9N3O/c1-7-5-8(4-6)2-3-9-5/h4,6H,2-3H2,1H3	InChI=1S/C5H9N3O/c1-7-5-8(4-6)2-3-9-5/h4,6H,2-3H2,1H3
