19
gdb 53249	3.90544	0.77581	0.75511	0.9483	94.83	-0.2267	0.0313	0.258	1607.3029	0.155569	-348.693109	-348.682582	-348.681637	-348.730113	37.553	
C	 0.0743007032	 1.4813989682	-0.01102898	-0.499987
C	 0.0314786307	 0.026677763	 0.0214083892	 0.109768
C	 0.0007767111	-1.1782085033	 0.0489339727	 0.055914
C	-0.0181750842	-2.6109715088	 0.0654827167	-0.24511
C	-0.5080586703	-3.3774451638	 1.2763458163	-0.309594
C	-1.3554342992	-3.3882836413	 0.0204277445	 0.132581
C	-2.6624564839	-2.6129623876	 0.0100324141	-0.455538
C	-1.3509743651	-4.5911074576	-0.7689042239	 0.271314
C	-1.3627324035	-5.5923782363	-1.436157318	-0.450346
H	 1.0386990517	 1.8387964499	-0.3889607245	 0.14992
H	-0.7067422829	 1.891548924	-0.6611612333	 0.147761
H	-0.0670496203	 1.9090325137	 0.9879318941	 0.146903
H	 0.784166394	-3.0873619125	-0.489382707	 0.121034
H	 0.0206031967	-4.2844793071	 1.5436207562	 0.126316
H	-0.8815708245	-2.7956223577	 2.1113812892	 0.124044
H	-2.5668362743	-1.6900254964	 0.5861680077	 0.127643
H	-2.9468013001	-2.3478506297	-1.0124749282	 0.130484
H	-3.4666208156	-3.2164998363	 0.441684767	 0.12512
H	-1.3711861535	-6.4766278705	-2.0235492628	 0.191771
14.9693	74.965	86.2979	163.9055	185.0471	202.0442	250.5111	295.9746	352.3124	354.7017	452.5995	507.8074	541.3364	561.2631	587.9876	644.3995	678.7127	728.7362	823.1923	918.6711	945.2157	963.6882	1034.3559	1051.5201	1054.01	1074.9436	1103.1731	1114.2154	1206.3768	1271.4395	1290.2367	1395.5539	1414.9199	1415.4932	1475.8031	1477.1168	1479.1069	1486.4181	1499.3819	2231.945	2364.6795	3024.2173	3043.2681	3083.2586	3085.7259	3110.3579	3129.8631	3141.1767	3153.7636	3235.875	3504.1854
CC#CC1CC1(C)C#C	CC#C[C@H]1C[C@]1(C)C#C	
InChI=1S/C9H10/c1-4-6-8-7-9(8,3)5-2/h2,8H,7H2,1,3H3	InChI=1S/C9H10/c1-4-6-8-7-9(8,3)5-2/h2,8H,7H2,1,3H3/t8-,9-/m0/s1
