15
gdb 42823	3.13836	1.52135	1.34333	3.0423	64.98	-0.2552	-0.0249	0.2303	963.1951	0.112366	-457.718026	-457.711094	-457.71015	-457.749517	26.978	
O	 0.0825859426	-0.013244927	 0.0146516904	-0.301413
C	 0.0279080557	 1.1700265019	 0.0946093593	 0.457086
C	-1.0412913686	 2.2909934984	 0.05589224	-0.050196
C	-0.8121797219	 3.0518930032	 1.375855074	-0.325185
C	 0.7316935052	 3.1003393038	 1.3085636718	 0.468307
C	 1.6136596494	 4.0881177626	 1.9239181711	-0.267721
O	 1.5191359868	 2.7465303265	 2.4335917219	-0.275804
C	 0.9750474642	 2.3943103341	-0.0237991848	-0.15055
O	-0.0964774158	 2.9596143996	-0.8506144504	-0.288774
H	-2.0451998846	 2.1691230138	-0.344036182	 0.111929
H	-1.2724045975	 4.0421850794	 1.3431258724	 0.127487
H	-1.1608184744	 2.5164664729	 2.2628503004	 0.135883
H	 2.5621637244	 4.3423713287	 1.4531922274	 0.123811
H	 1.1892549376	 4.8590421426	 2.565673045	 0.123693
H	 1.9643530469	 2.3868255694	-0.4741411165	 0.111448
97.4974	169.6653	268.2648	342.3223	401.2972	455.969	492.031	540.1328	636.0323	755.4178	774.7922	849.2829	867.7488	870.6742	906.5877	938.6575	941.6214	989.9676	1035.0804	1043.301	1118.7637	1135.8076	1147.8778	1171.5934	1192.3111	1214.1325	1238.991	1271.7464	1297.2824	1440.1696	1473.4978	1535.2793	1932.8108	3068.3927	3083.8775	3122.5875	3160.0373	3168.4178	3172.8958
O=C1C2CC3(CO3)C1O2	O=C1[C@H]2C[C@]3(CO3)[C@@H]1O2	
InChI=1S/C6H6O3/c7-4-3-1-6(2-8-6)5(4)9-3/h3,5H,1-2H2	InChI=1S/C6H6O3/c7-4-3-1-6(2-8-6)5(4)9-3/h3,5H,1-2H2/t3-,5-,6+/m1/s1
