19
gdb 122375	4.43812	0.84637	0.79276	0.6809	72.58	-0.244	0.0669	0.3109	1463.0087	0.158207	-460.070183	-460.061535	-460.06059	-460.10493	31.865	
O	 0.2187164735	 1.2407434459	-0.5233152052	-0.41959
C	-0.0401584651	 0.0165525159	 0.1338793529	-0.063387
C	-1.5218273244	-0.3225997706	 0.1307651093	-0.078089
O	-1.9200690295	-0.4230894712	-1.2319112853	-0.278017
C	-3.2588692153	-0.7662291034	-1.4082340103	 0.166696
C	-4.397698159	 0.3082586363	-1.387658918	 0.0093
C	-3.8378748009	 0.913683316	-2.6953751771	-0.223004
C	-3.8536707293	-0.6287228677	-2.826757173	-0.000762
O	-5.19131891	-0.6462366313	-2.1919671953	-0.306747
H	-0.181173667	 1.1633245603	-1.3967862255	 0.291046
H	 0.5173628807	-0.8150074615	-0.3255047489	 0.09598
H	 0.3080202188	 0.1255013683	 1.1661278793	 0.111595
H	-1.7047684792	-1.2724408962	 0.6571918962	 0.094815
H	-2.0927152325	 0.4705373786	 0.6357364528	 0.102918
H	-3.5297730404	-1.6962304104	-0.8942126741	 0.086024
H	-4.8984142365	 0.7933229162	-0.5499110751	 0.095899
H	-4.5710289458	 1.4349561189	-3.311507124	 0.110457
H	-2.8686173749	 1.4117923233	-2.6536880678	 0.106348
H	-3.7013312933	-1.2590700574	-3.7026265809	 0.098517
40.688	55.9947	119.1561	177.4041	284.6263	323.8305	390.9132	415.8833	479.963	558.8715	640.5088	745.1586	829.2016	870.4743	875.5363	896.737	901.1897	930.3298	952.9932	1015.607	1053.5536	1075.2467	1090.0409	1106.4608	1131.0625	1133.7231	1172.9997	1181.7083	1203.6291	1225.8484	1239.3752	1260.3775	1267.5417	1291.8696	1356.8571	1388.6296	1417.9202	1437.755	1479.3737	1496.8772	1507.232	2980.5792	2983.3841	3027.3252	3047.5302	3082.2201	3083.3343	3120.6116	3127.5331	3162.5465	3806.4278
OCCOC1C2CC1O2	OCCO[C@H]1[C@H]2C[C@@H]1O2	
InChI=1S/C6H10O3/c7-1-2-8-6-4-3-5(6)9-4/h4-7H,1-3H2	InChI=1S/C6H10O3/c7-1-2-8-6-4-3-5(6)9-4/h4-7H,1-3H2/t4-,5+,6+
