21
gdb 73840	2.32829	1.74635	1.32789	1.6163	84.07	-0.2211	0.0245	0.2457	1079.6989	0.183783	-387.105603	-387.097276	-387.096332	-387.138086	32.687	
C	 0.0115491741	 1.5051501584	 0.1177678349	-0.515456
C	-0.0692429065	 0.0184918671	-0.0039978386	 0.229496
C	-0.0904717112	-0.7618488632	-1.0994471485	 0.240692
C	-0.0289117287	-0.4047838553	-2.5477799107	-0.519143
C	-0.0131675052	-2.1958542372	-0.5840432623	 0.016798
C	-0.8364087062	-2.1085459933	 0.7059376668	-0.224484
C	 0.0185502626	-0.9150694702	 1.2010995582	-0.13923
C	 1.4226858132	-1.5841630407	 1.1084433179	-0.071405
O	 1.3367572728	-2.4011130589	-0.0656209131	-0.280255
H	 0.9439069256	 1.8146902383	 0.6084892785	 0.127186
H	-0.0315846354	 2.0020949109	-0.8549883011	 0.124343
H	-0.8074973175	 1.8980192428	 0.7339815588	 0.124452
H	-0.0501725428	 0.6764305294	-2.7095485067	 0.120948
H	 0.889972177	-0.7938628659	-3.0051115127	 0.135777
H	-0.8660387636	-0.8433232672	-3.1060407454	 0.122659
H	-0.2182659106	-2.9976923251	-1.2930334621	 0.065487
H	-1.8820661406	-1.8428445787	 0.5441658799	 0.098301
H	-0.7577274856	-3.0077492163	 1.3243440364	 0.095715
H	-0.2153431975	-0.4821890179	 2.1745721496	 0.061442
H	 2.2315460044	-0.851189264	 1.0028077977	 0.093115
H	 1.6317887416	-2.2174508829	 1.9804793924	 0.093561
153.6166	158.5353	171.9284	180.3659	260.9095	281.7938	364.6893	457.3584	524.9782	558.7151	606.0415	662.5682	763.4796	836.4185	857.2491	872.9187	904.4031	937.599	955.653	969.7069	997.8536	1014.6864	1054.001	1059.2463	1067.1613	1092.777	1143.6736	1187.8395	1197.7061	1206.7264	1246.1263	1277.6837	1288.5518	1295.0309	1354.0741	1364.7969	1409.9782	1418.4738	1479.0322	1480.6598	1486.3703	1488.5964	1491.3346	1525.0803	1720.4386	3009.5445	3012.7911	3015.5434	3050.0197	3055.4582	3059.6485	3060.4241	3105.9704	3108.8727	3111.5922	3124.8706	3130.0287
CC1=C(C)C2CC1CO2	CC1=C(C)[C@@H]2C[C@H]1CO2	
InChI=1S/C8H12O/c1-5-6(2)8-3-7(5)4-9-8/h7-8H,3-4H2,1-2H3	InChI=1S/C8H12O/c1-5-6(2)8-3-7(5)4-9-8/h7-8H,3-4H2,1-2H3/t7-,8-/m0/s1
