20
gdb 99055	3.51647	0.78563	0.71403	3.0421	83.6	-0.2449	0.0257	0.2706	1661.8466	0.167756	-403.157017	-403.146067	-403.145123	-403.194695	38.484	
C	 0.1541760192	 1.4353659621	-0.3915729993	-0.367534
C	-0.0411313574	-0.0088826206	 0.0705549947	-0.301767
C	-1.5063059055	-0.4369832199	 0.0199614788	 0.435047
O	-2.429675255	 0.3487374137	 0.1507123711	-0.381287
N	-1.7095109892	-1.7755512041	-0.1588774446	-0.328348
C	-3.0482183446	-2.364001695	-0.1228431068	-0.113523
C	-3.643539275	-2.5240257811	-1.5343947896	-0.384644
C	-3.0141367771	-3.636241282	 0.5984937367	 0.299521
C	-2.9725732246	-4.6979579367	 1.1600751421	-0.450171
H	 1.1870896295	 1.7571799084	-0.2329457748	 0.108877
H	-0.0778880524	 1.5439077129	-1.4552693062	 0.122023
H	-0.5140793334	 2.0983800247	 0.1612652956	 0.145919
H	 0.5756808563	-0.6996021122	-0.5163116775	 0.100478
H	 0.2852929984	-0.1160696957	 1.1137261424	 0.131415
H	-0.9221984596	-2.3982278471	-0.2379207607	 0.248656
H	-3.6646496791	-1.6446798583	 0.4275988547	 0.147466
H	-4.6550434326	-2.9351014692	-1.4761025086	 0.129022
H	-3.6852583021	-1.546036051	-2.0198021233	 0.138532
H	-3.0307549574	-3.1985512171	-2.1390859543	 0.119038
H	-2.9499253184	-5.6275336718	 1.6732720295	 0.201279
26.7206	40.3595	70.9321	137.9993	173.3581	204.8075	228.6341	260.3746	312.968	358.6268	405.3833	426.9591	541.7335	558.4588	594.1898	627.7683	663.7482	690.8102	808.764	832.933	917.3803	949.2336	1024.1757	1066.6199	1097.0952	1098.4791	1106.2034	1156.623	1217.6454	1287.6455	1323.774	1359.0742	1383.2211	1403.3253	1408.7994	1464.8973	1486.7616	1492.0685	1493.0642	1504.3479	1518.9318	1769.419	2238.5665	3024.2521	3045.8637	3049.2527	3059.8491	3061.5602	3115.5009	3124.1534	3134.3858	3139.8892	3503.3138	3645.3681
CCC(=O)NC(C)C#C	CCC(=O)N[C@@H](C)C#C	
InChI=1S/C7H11NO/c1-4-6(3)8-7(9)5-2/h1,6H,5H2,2-3H3,(H,8,9)	InChI=1S/C7H11NO/c1-4-6(3)8-7(9)5-2/h1,6H,5H2,2-3H3,(H,8,9)/t6-/m0/s1
