17
gdb 14921	4.47273	1.46232	1.17609	4.9675	68.82	-0.2715	0.0187	0.2902	1005.8535	0.144316	-363.886394	-363.879196	-363.878252	-363.917815	27.364	
N	-0.0122389525	-1.1480148795	-0.0649032307	-0.315984
C	 0.0155818214	 0.0056775035	-0.0264664117	 0.278374
C	-0.0068088472	 1.4738511407	 0.0370159845	-0.012391
C	-0.7663786478	 1.9739761257	 1.2806942117	-0.200544
C	-0.6942296332	 3.5061890118	 1.3411905119	-0.221893
C	 0.7627252349	 3.9757828914	 1.2252738328	-0.197045
C	 1.4202113198	 3.3471486102	-0.0031032518	-0.067564
O	 1.3354224746	 1.9249295245	 0.0229968211	-0.253901
H	-0.530226466	 1.8346343943	-0.8668804843	 0.110394
H	-1.8022148517	 1.6223828378	 1.2422433185	 0.117446
H	-0.2986356141	 1.5328625278	 2.167511265	 0.125111
H	-1.2821352473	 3.9302943551	 0.5157522875	 0.102509
H	-1.1490421229	 3.8673524651	 2.268650883	 0.108481
H	 0.8189552071	 5.0675045423	 1.1538008454	 0.102619
H	 1.3232259589	 3.6761568954	 2.1187837548	 0.112686
H	 0.947574881	 3.7295137972	-0.9241257614	 0.092507
H	 2.4878240751	 3.5748336869	-0.0527821662	 0.119197
112.4229	159.571	239.3679	277.8531	371.9427	409.5136	443.8691	541.6599	549.9832	566.1405	813.6765	845.9555	856.3484	910.0683	937.2135	955.1465	1050.3584	1062.1693	1069.9598	1110.1461	1138.8768	1198.5888	1227.8262	1282.6071	1292.8777	1324.474	1362.5898	1368.4161	1380.341	1387.9367	1412.0286	1473.6923	1481.9937	1489.5803	1501.1042	2369.2658	2945.2687	2963.9252	3019.0892	3035.7763	3047.945	3078.1973	3083.9421	3097.653	3099.9209
N#CC1CCCCO1	N#C[C@H]1CCCCO1	
InChI=1S/C6H9NO/c7-5-6-3-1-2-4-8-6/h6H,1-4H2	InChI=1S/C6H9NO/c7-5-6-3-1-2-4-8-6/h6H,1-4H2/t6-/m1/s1
