20
gdb 126797	3.39271	0.9827	0.85884	0.5289	82.85	-0.2442	0.0042	0.2483	1451.2104	0.171887	-399.353412	-399.343927	-399.342982	-399.391125	33.231	
C	 0.0504283679	 1.4784924217	 0.1109986272	-0.378328
C	-0.1231350727	-0.0279333888	-0.0828190396	-0.126873
N	 0.6191919776	-0.527722361	-1.2301829264	 0.149326
N	 0.0575033581	-0.6858522147	-2.4218410021	-0.22943
C	 1.0715409758	-1.0882290522	-3.1911710723	-0.140939
C	 2.2408617021	-1.1565624555	-2.4152529625	 0.306972
C	 3.6389637862	-1.5277603167	-2.8029083227	-0.287517
C	 4.5109340094	-0.3074268578	-3.1453601355	-0.368197
N	 1.9207936548	-0.7895845422	-1.1681663624	-0.301839
H	 1.1034595838	 1.725881641	 0.2680538201	 0.140835
H	-0.3103863701	 2.0244063489	-0.7650105222	 0.136969
H	-0.5183525621	 1.8102041279	 0.9847634569	 0.122205
H	 0.2319564355	-0.5773640727	 0.7923031921	 0.134835
H	-1.1686731614	-0.2861997127	-0.260212897	 0.138869
H	 0.919492	-1.3164753725	-4.2345674125	 0.117154
H	 4.098148118	-2.0838377968	-1.9790571151	 0.119252
H	 3.6022237668	-2.2063188666	-3.6623158739	 0.106331
H	 4.0892963016	 0.254741119	-3.9846263462	 0.118285
H	 4.5787471118	 0.3697072564	-2.2889949798	 0.129857
H	 5.5242838367	-0.6176010847	-3.4185964462	 0.112232
7.848	23.7451	98.4961	174.8451	192.7486	226.2152	299.2214	357.639	423.5818	442.2825	616.0012	696.6375	718.9552	749.8845	785.3367	797.8287	871.3421	969.8244	974.3689	1026.2309	1044.7309	1073.6316	1083.4204	1104.0784	1118.6767	1200.9141	1264.9853	1284.5861	1336.19	1359.4946	1386.7947	1389.1789	1404.9174	1406.6651	1418.3822	1450.9672	1475.0615	1481.7033	1489.098	1496.3877	1505.1385	1506.3218	1553.6927	3037.4891	3042.7476	3046.8151	3078.4553	3080.2315	3109.1131	3117.9627	3120.3994	3122.5971	3144.2625	3261.7369
CCN1N=CC(CC)=N1	CCn1ncc(CC)n1	
InChI=1S/C6H11N3/c1-3-6-5-7-9(4-2)8-6/h5H,3-4H2,1-2H3	InChI=1S/C6H11N3/c1-3-6-5-7-9(4-2)8-6/h5H,3-4H2,1-2H3
