22
gdb 54908	3.34477	0.94943	0.89526	4.053	84.77	-0.2313	0.0371	0.2684	1442.496	0.191798	-404.381549	-404.370937	-404.369993	-404.418932	37.572	
C	-0.0662878279	 1.4663795499	 0.4459526529	-0.488709
C	 0.0259461892	-0.0430356409	 0.2800105485	 0.364669
O	 1.0475908374	-0.6808839121	 0.4732706527	-0.371258
N	-1.1273738129	-0.6501102209	-0.1029061342	-0.055849
C	-2.4574680526	-0.192353758	-0.4959615415	-0.228628
C	-2.823993354	-1.6794723038	-0.8334747406	 0.321677
C	-3.8979257106	-2.2683582541	 0.0768063023	-0.445701
C	-3.132264878	-1.9227619503	-2.3076782776	-0.445943
C	-1.3605859043	-2.0552538846	-0.4139948053	-0.21375
H	 0.895310595	 1.8348450634	 0.8018700358	 0.146098
H	-0.3077301404	 1.9514517141	-0.5062142507	 0.133588
H	-0.8492440594	 1.7407777272	 1.1606879045	 0.132535
H	-3.0416104193	 0.2587682855	 0.3161521237	 0.105479
H	-2.4659653252	 0.4912110782	-1.3546366869	 0.104838
H	-4.8782351951	-1.8259363369	-0.1335144628	 0.116371
H	-3.9824720244	-3.350969284	-0.0691486895	 0.120028
H	-3.6670668398	-2.0899344939	 1.1320805118	 0.12057
H	-2.3559664759	-1.4986333225	-2.9527937322	 0.119799
H	-3.1955763107	-2.9955673913	-2.5212048939	 0.120269
H	-4.0895426322	-1.469797936	-2.5896365736	 0.116534
H	-0.7224097671	-2.4393045656	-1.2178622223	 0.113849
H	-1.270999802	-2.7219343433	 0.450881979	 0.113533
18.4621	50.959	81.7863	129.6921	152.6204	224.7768	261.0194	295.0105	322.1097	379.0548	408.7389	417.1167	547.2625	594.3202	618.392	710.7251	868.6613	907.415	923.9253	936.9989	963.7008	966.0766	989.3199	1049.4547	1058.0066	1106.9058	1141.3023	1162.2876	1190.4538	1227.9271	1252.5615	1294.2878	1300.5681	1346.2895	1381.4615	1405.6444	1424.3694	1451.6816	1473.3907	1483.3562	1483.8399	1487.7878	1500.8792	1503.5394	1513.591	1528.7318	1765.6891	3004.8984	3022.9208	3025.7986	3032.1704	3040.0372	3045.833	3070.9617	3090.4321	3095.1902	3098.1327	3100.0739	3100.1999	3160.759
CC(=O)N1CC(C)(C)C1	CC(=O)N1CC(C)(C)C1	
InChI=1S/C7H13NO/c1-6(9)8-4-7(2,3)5-8/h4-5H2,1-3H3	InChI=1S/C7H13NO/c1-6(9)8-4-7(2,3)5-8/h4-5H2,1-3H3
