16
gdb 108814	3.39779	1.08059	0.86113	2.9711	67.86	-0.2295	-0.0221	0.2074	1286.6958	0.123897	-475.051443	-475.042658	-475.041714	-475.085389	32.043	
O	 0.0432634144	 1.3910727228	 0.3409348164	-0.410813
C	 0.0295136631	 0.0232677674	-0.0458936975	-0.180151
C	-1.3544301672	-0.5416443932	-0.103025616	 0.329436
C	-1.9450974489	-1.3073234442	-1.0288087422	-0.260548
C	-3.3613419457	-1.5818370053	-0.6006700793	 0.00094
O	-3.6995296184	-2.9514037976	-0.5413918454	-0.431247
C	-3.4241146321	-0.9379502617	 0.8056525978	 0.381337
O	-4.3338227192	-1.0472104453	 1.5961221232	-0.377126
N	-2.2326401149	-0.2737160231	 0.9707954036	-0.369622
H	-0.4288371065	 1.89315417	-0.332268459	 0.291983
H	 0.5312528803	-0.148874253	-1.0075093756	 0.115263
H	 0.6113429697	-0.4961611604	 0.7254960726	 0.133897
H	-1.5032050819	-1.6391915551	-1.9559532123	 0.113861
H	-4.0697024169	-1.0322473657	-1.2478002288	 0.099001
H	-4.4327863201	-3.015105477	 0.0859950704	 0.294386
H	-1.9672033958	 0.2188207914	 1.8088330621	 0.269404
63.0434	114.7482	120.8397	224.0779	235.0125	296.9925	373.2188	391.2523	445.1866	519.2755	539.3804	573.8406	645.6427	702.7705	730.8961	784.0897	882.7625	968.0084	977.9852	1017.2209	1062.4192	1107.603	1180.7665	1193.5413	1217.8997	1233.787	1305.0769	1341.4207	1374.6284	1404.7478	1413.3762	1431.9826	1492.3398	1707.9335	1838.31	2932.9066	3016.7666	3060.2313	3250.5492	3649.1306	3755.4047	3807.6083
OCC1=CC(O)C(=O)N1	OCC1=C[C@@H](O)C(=O)N1	
InChI=1S/C5H7NO3/c7-2-3-1-4(8)5(9)6-3/h1,4,7-8H,2H2,(H,6,9)	InChI=1S/C5H7NO3/c7-2-3-1-4(8)5(9)6-3/h1,4,7-8H,2H2,(H,6,9)/t4-/m1/s1
