19
gdb 68815	2.84751	1.26278	1.05018	3.1483	76.81	-0.2417	-0.0337	0.208	1204.7071	0.155882	-423.001657	-422.99223	-422.991285	-423.035974	34.417	
C	 0.1198931461	 1.6061884555	 0.0810422766	-0.490586
C	 0.126239706	 0.1152270817	 0.0154656044	 0.435846
C	 1.2733220373	-0.7838889009	-0.331050297	-0.39242
C	 0.5120565138	-1.0002895223	 0.9728951471	 0.188573
C	 1.142432011	-1.0282884559	 2.3326843009	-0.494975
C	-0.8761267273	-1.5716677697	 0.6358707619	 0.000825
O	-1.1117896783	-0.5352146477	-0.3417505916	-0.339607
C	-0.9268966743	-2.97834378	 0.082425445	 0.132156
O	-1.0717996019	-3.9517535284	 0.7774936071	-0.24727
H	 1.08198959	 1.9789517857	 0.4437669744	 0.126041
H	-0.0514604618	 2.0310547948	-0.9145701672	 0.13774
H	-0.6708709476	 1.9676478631	 0.7455004236	 0.130928
H	 1.2012321427	-1.4684690647	-1.1705123747	 0.116401
H	 2.2601226242	-0.3543430919	-0.1837159574	 0.116896
H	 1.9928996301	-0.3408861524	 2.3840231727	 0.122689
H	 0.4276633386	-0.7399741793	 3.1112255152	 0.125022
H	 1.5137880958	-2.0305041412	 2.5752976188	 0.138341
H	-1.5701920893	-1.4885721997	 1.481302798	 0.104716
H	-0.7915003852	-3.0509049268	-1.0190734879	 0.088686
62.6991	119.7363	163.7457	179.9219	188.2422	204.7905	295.9677	327.6241	401.4909	440.491	486.5827	514.0468	615.7171	694.8354	761.1372	829.7913	892.3872	942.8685	966.016	972.7339	1022.8683	1042.9828	1060.3235	1089.3362	1107.5998	1118.5016	1192.8337	1200.6238	1236.0631	1311.2788	1314.6185	1393.7737	1406.7503	1417.0217	1437.4512	1473.0505	1485.115	1492.4727	1497.4913	1515.2635	1824.2478	2893.6763	3026.8285	3034.1204	3038.3163	3088.6671	3098.1221	3100.6031	3117.4215	3120.2719	3205.7706
CC12CC1(C)C(O2)C=O	C[C@@]12C[C@]1(C)[C@@H](O2)C=O	
InChI=1S/C7H10O2/c1-6-4-7(6,2)9-5(6)3-8/h3,5H,4H2,1-2H3	InChI=1S/C7H10O2/c1-6-4-7(6,2)9-5(6)3-8/h3,5H,4H2,1-2H3/t5-,6+,7+/m0/s1
