17
gdb 67094	2.65805	2.15838	1.79911	1.9383	75.58	-0.2236	-0.0071	0.2165	848.8902	0.135647	-384.558836	-384.552166	-384.551222	-384.589308	28.182	
C	-0.0494011935	 1.5238887261	-0.0787342125	-0.529897
C	-0.0972518414	 0.0278875742	-0.0901137288	 0.340111
C	 0.8174732961	-0.9607194882	-0.8567124044	-0.060104
O	 1.8849751971	-0.941454295	 0.2135731952	-0.39999
C	 0.6154572171	-0.9371269868	 0.9135455127	 0.402056
C	-0.144044141	-0.9112237464	 2.2200205507	-0.244966
C	-1.4048855018	-0.91215277	 1.7492178964	-0.077286
C	-1.3000103047	-0.940169321	 0.1999411014	-0.222902
C	-0.1023208268	-1.9059960201	-0.0606509233	-0.068322
H	 0.9905739978	 1.8661488136	-0.0790359961	 0.136751
H	-0.5497356154	 1.9492144394	-0.9551870717	 0.122448
H	-0.5449268949	 1.9141875767	 0.817141039	 0.126459
H	 1.1831094046	-0.982353767	-1.8818056811	 0.093067
H	 0.2260204717	-0.8877176298	 3.233059166	 0.122487
H	-2.3239603663	-0.8968967894	 2.3178223888	 0.108013
H	-2.2211766491	-0.9514282012	-0.3823112574	 0.066224
H	-0.0659017194	-2.9941088152	-0.007150085	 0.08585
210.1309	226.7561	241.9506	420.7393	446.4133	477.4894	582.5165	656.5495	682.4232	706.7748	746.6652	765.6828	786.1423	811.5635	836.3621	879.6987	883.9474	914.1951	926.5088	945.3426	1017.0392	1061.2524	1086.2439	1103.0135	1124.95	1144.7347	1172.8907	1196.37	1238.746	1246.7317	1285.1526	1313.5052	1353.2009	1405.3718	1486.5341	1488.8095	1571.6796	3029.0395	3094.9071	3105.1961	3113.1439	3122.5447	3139.1871	3230.6336	3263.3132
CC12C3OC11C=CC2C31	C[C@@]12[C@H]3O[C@]41C=C[C@@H]2[C@@H]34	
InChI=1S/C8H8O/c1-7-4-2-3-8(7)5(4)6(7)9-8/h2-6H,1H3	InChI=1S/C8H8O/c1-7-4-2-3-8(7)5(4)6(7)9-8/h2-6H,1H3/t4-,5+,6+,7-,8-/m1/s1
