16
gdb 125182	3.31314	1.49101	1.04943	2.8026	71.85	-0.2484	-0.0153	0.2331	1096.1335	0.12519	-437.876521	-437.868747	-437.867803	-437.909654	27.944	
C	 0.0812362326	 1.5144557003	 0.0587892098	-0.492968
C	-0.0825837439	 0.0360386606	 0.0653053968	 0.260264
C	-1.1319631917	-0.815150787	-0.0562601929	 0.070574
C	-2.6060751968	-0.9741016349	-0.2378426902	-0.196037
O	-2.7925270421	-2.395448475	-0.3825758491	-0.281522
C	-1.6087070723	-3.142066419	-0.0649699618	-0.175063
C	-0.5454748342	-2.094889486	 0.0444548221	 0.329094
N	 0.746251497	-2.0701753107	 0.2121228946	-0.244364
O	 1.0494486133	-0.6971622772	 0.2257762406	-0.219401
H	 0.7697336673	 1.8279845065	-0.7325188425	 0.155198
H	-0.8821621239	 2.0006665486	-0.1054714275	 0.139578
H	 0.4911589079	 1.8679418681	 1.0106571389	 0.154652
H	-3.1830726413	-0.6092920424	 0.6248177491	 0.115824
H	-3.002214889	-0.4859854891	-1.1365765889	 0.123186
H	-1.7415809839	-3.6927063553	 0.8772131566	 0.125938
H	-1.4242825487	-3.8702064273	-0.8627523756	 0.135048
70.2879	76.1349	161.8257	243.5975	249.7901	324.2675	504.0194	579.906	619.4537	630.1311	674.3606	786.6677	842.4703	893.286	905.3775	994.8233	1016.7975	1054.5833	1064.1925	1066.5206	1096.4718	1180.6761	1192.9171	1214.329	1272.622	1337.4012	1379.4818	1415.3879	1442.0969	1474.1562	1486.4322	1510.248	1523.8857	1581.9522	1709.9549	2990.7246	3004.6435	3039.8126	3043.2356	3059.1091	3100.3701	3137.6052
CC1=C2COCC2=NO1	Cc1c2COCc2no1	
InChI=1S/C6H7NO2/c1-4-5-2-8-3-6(5)7-9-4/h2-3H2,1H3	InChI=1S/C6H7NO2/c1-4-5-2-8-3-6(5)7-9-4/h2-3H2,1H3
