19
gdb 74912	2.91779	1.54457	1.2369	1.1534	80.37	-0.2104	0.023	0.2334	1069.5792	0.159734	-385.864979	-385.857261	-385.856317	-385.896627	31.581	
C	 0.0859477157	 1.4600527934	 0.0499185153	-0.502818
C	-0.029873268	-0.0281098932	-0.0276349328	 0.337662
C	-0.1316033806	-0.8072816523	-1.111726832	-0.196279
C	-0.0455138631	-2.2619786251	-0.6975305571	-0.096074
C	 1.4263729648	-2.5192006206	-0.1726197647	-0.295725
C	 0.9329756733	-2.1279523482	 1.2126047206	 0.389974
O	 1.5674791756	-2.4030021227	 2.4087856658	-0.46299
C	-0.5169358158	-2.2834143654	 0.7960659176	-0.165445
C	-0.0062625612	-0.912301815	 1.1837215912	-0.172955
H	 1.0427941887	 1.7611861929	 0.4951175847	 0.129678
H	 0.0129421318	 1.9203679944	-0.9391748185	 0.121879
H	-0.7000341273	 1.8894342814	 0.6844345363	 0.123467
H	-0.1088129294	-0.4729033521	-2.1423202834	 0.087038
H	-0.441998243	-3.0017035615	-1.3911922466	 0.067146
H	 1.6628105574	-3.5883731548	-0.1981736701	 0.08889
H	 2.2378069252	-1.9488897185	-0.637392493	 0.092014
H	 1.7458789351	-3.3496469165	 2.4434819137	 0.283527
H	-1.3609867773	-2.7972891809	 1.2397142989	 0.086604
H	-0.2366907621	-0.5270310656	 2.1711890642	 0.084407
162.6061	178.3237	224.2655	290.0514	340.4616	373.0954	426.5886	453.0136	572.4781	587.9505	601.6048	706.0743	759.0724	802.6873	849.7402	865.9375	886.7241	906.9677	945.8323	962.6024	973.2531	1010.4589	1027.0762	1051.6847	1068.5761	1108.0414	1150.6296	1152.2802	1191.865	1226.4546	1248.4442	1272.4398	1286.6201	1326.27	1357.0375	1413.6539	1423.1414	1478.6511	1488.5199	1494.7271	1693.0969	3015.9542	3031.7356	3060.898	3085.385	3109.3211	3120.7739	3176.1212	3187.5785	3199.0144	3789.1902
CC1=CC2CC3(O)C2C13	CC1=C[C@H]2C[C@]3(O)[C@H]2[C@H]13	
InChI=1S/C8H10O/c1-4-2-5-3-8(9)6(4)7(5)8/h2,5-7,9H,3H2,1H3	InChI=1S/C8H10O/c1-4-2-5-3-8(9)6(4)7(5)8/h2,5-7,9H,3H2,1H3/t5-,6-,7+,8+/m0/s1
