16
gdb 43300	3.10811	1.91449	1.43297	4.5192	74.21	-0.2296	-0.0553	0.1744	897.0955	0.126708	-400.728286	-400.721812	-400.720868	-400.759202	26.228	
O	 0.0404228783	 0.0390475326	 0.2071831557	-0.307782
C	 0.0477405031	 1.2246746255	-0.0142329299	 0.353802
C	-1.1515025604	 2.0803055493	 0.1334449383	-0.170793
C	-1.097133071	 3.3959412517	-0.124469394	-0.061222
C	 0.1112094842	 4.0226141717	-0.6971409256	-0.086671
C	 1.5137332503	 4.0283415302	-0.0509220363	-0.091662
C	 1.7218359574	 2.799715492	 0.8166566139	-0.204215
N	 1.2866165841	 1.9129366292	-0.3314152222	-0.17424
C	 1.1863432597	 3.1110704504	-1.2021156179	-0.047249
H	-2.0534617394	 1.5898712685	 0.4816253111	 0.115075
H	-1.9711951622	 4.02272163	 0.0344570641	 0.111774
H	-0.0558563838	 4.9182229048	-1.2879882032	 0.103334
H	 2.1014458106	 4.9369806253	-0.0400840184	 0.104093
H	 2.770596551	 2.6084446194	 1.057270092	 0.130719
H	 1.118425807	 2.7123227212	 1.727132415	 0.118446
H	 1.542377461	 3.0770994583	-2.2252738327	 0.106592
81.3793	283.3375	308.4137	403.3196	473.1687	503.2259	542.4438	673.7752	706.6573	774.0132	786.6514	811.6236	858.1186	879.7694	941.9395	952.0357	962.1878	1003.9151	1013.5879	1029.6461	1059.6535	1073.6586	1089.3266	1139.1973	1150.7749	1174.547	1221.5055	1254.4701	1309.5423	1329.8645	1389.3673	1429.9747	1498.2133	1666.378	1805.9707	3040.1287	3098.3911	3153.0378	3164.5036	3176.1737	3201.7002	3202.718
O=C1C=CC2C3CN1C23	O=C1C=C[C@H]2[C@H]3CN1[C@@H]23	
InChI=1S/C7H7NO/c9-6-2-1-4-5-3-8(6)7(4)5/h1-2,4-5,7H,3H2	InChI=1S/C7H7NO/c9-6-2-1-4-5-3-8(6)7(4)5/h1-2,4-5,7H,3H2/t4-,5+,7-/m0/s1
