16
gdb 92684	3.38466	1.16757	0.9586	4.1073	73.82	-0.2695	-0.0508	0.2186	1190.7915	0.123973	-437.900007	-437.891289	-437.890345	-437.933447	31.866	
O	-0.0140985076	 1.3984993151	-0.1122906871	-0.42144
C	-0.0187746149	 0.0044534923	 0.0567854856	 0.125318
C	 0.5840953848	-0.5234636806	 1.3843761403	-0.302332
C	-0.178334559	-1.8012785367	 1.5914362711	-0.147702
C	-1.2854575904	-1.8417706783	 0.834570195	 0.190967
C	-2.255561612	-2.8773959484	 0.8084517595	 0.187338
N	-3.0787883707	-3.6912477785	 0.7505501969	-0.334311
C	-1.4647282237	-0.5431637535	 0.0453509078	-0.024004
O	-2.3106868446	 0.3622525524	 0.7293796991	-0.410989
H	 0.8962883537	 1.6815741315	-0.2409433811	 0.288899
H	 0.5055728653	-0.4998761522	-0.7698709967	 0.082223
H	 1.668217923	-0.6725021226	 1.3381967991	 0.110233
H	 0.3818810543	 0.1869117262	 2.1962829738	 0.145749
H	 0.126715467	-2.5815085552	 2.2791806604	 0.128011
H	-1.8238643113	-0.7150993557	-0.9769486115	 0.086404
H	-3.2116253437	 0.0258949941	 0.6799725179	 0.295636
76.0609	135.0947	178.3377	232.9794	235.4232	262.0702	287.9502	378.0607	436.5608	463.0661	569.237	613.1157	653.7157	685.2079	840.6778	872.2272	894.2893	951.1077	1001.3031	1039.4888	1081.6698	1123.314	1165.6335	1180.5693	1227.0673	1259.8058	1284.7133	1296.0299	1326.792	1366.0969	1406.6265	1450.7478	1474.8103	1669.5972	2332.8659	2978.8905	3028.8818	3032.6079	3076.0322	3205.0676	3817.3634	3826.51
OC1CC=C(C#N)C1O	O[C@H]1CC=C(C#N)[C@H]1O	
InChI=1S/C6H7NO2/c7-3-4-1-2-5(8)6(4)9/h1,5-6,8-9H,2H2	InChI=1S/C6H7NO2/c7-3-4-1-2-5(8)6(4)9/h1,5-6,8-9H,2H2/t5-,6+/m0/s1
