18
gdb 114572	2.81698	1.18586	0.96968	3.109	77.79	-0.2616	0.0099	0.2715	1260.0066	0.147068	-401.92729	-401.918667	-401.917723	-401.960798	32.055	
C	 0.1380137939	 1.5203025777	 0.1054860556	-0.384225
C	-0.1846699089	 0.0336329679	-0.0818809505	-0.206525
C	 0.5917818433	-0.5760808136	-1.230724971	 0.097167
O	 2.0442237371	-0.535688191	-1.0634605957	-0.295605
C	 2.1517186968	-1.918381549	-1.35679338	 0.071063
C	 1.4699319561	-2.7538906196	-0.3341436634	-0.343302
C	 0.6338704649	-2.1030020164	-1.433744784	 0.10156
C	-0.1780154192	-2.8356642773	-2.340951272	 0.196045
N	-0.8513172506	-3.4181825206	-3.0815807205	-0.351161
H	 1.2041080592	 1.6603089443	 0.3044287132	 0.140131
H	-0.1162498185	 2.0971522431	-0.7901204693	 0.120799
H	-0.4248101799	 1.9384843742	 0.9444590436	 0.119613
H	 0.0306379551	-0.5161110656	 0.840561658	 0.104177
H	-1.2530433412	-0.1028070603	-0.2927102434	 0.116002
H	 0.3401418368	-0.0819659793	-2.1771160275	 0.102475
H	 2.9367009003	-2.2472276092	-2.0272293392	 0.132522
H	 1.5794705674	-3.8266121475	-0.453559775	 0.145397
H	 1.3900406473	-2.4010709279	 0.6888601809	 0.133866
82.3459	122.8608	164.9871	176.0672	216.9687	272.3984	372.2512	450.3957	479.3215	518.0766	569.3342	627.5156	727.3629	784.0524	830.0226	893.0409	900.5365	935.0917	988.6395	1004.5025	1033.4314	1053.7246	1095.3133	1100.2677	1127.6464	1153.5552	1216.2777	1250.242	1280.2024	1297.6031	1340.9093	1382.0851	1410.2725	1418.6936	1472.2069	1479.034	1498.5874	1509.1975	2344.6339	3033.7271	3035.1143	3041.2781	3077.74	3110.9063	3123.1257	3131.8361	3194.2061	3227.7307
CCC1OC2CC12C#N	CC[C@H]1O[C@H]2C[C@@]12C#N	
InChI=1S/C7H9NO/c1-2-5-7(4-8)3-6(7)9-5/h5-6H,2-3H2,1H3	InChI=1S/C7H9NO/c1-2-5-7(4-8)3-6(7)9-5/h5-6H,2-3H2,1H3/t5-,6+,7-/m1/s1
