18
gdb 122060	2.6406	1.04423	0.84513	1.9265	70.44	-0.2339	-0.0574	0.1765	1367.8057	0.144677	-476.21534	-476.205416	-476.204472	-476.251127	34.648	
O	-1.3128665291	 0.7722468233	 1.0246997474	-0.426958
C	-0.276614237	 0.3278329273	 0.1696635362	-0.073505
C	-0.7270549825	-0.7767253914	-0.7940601774	-0.164484
N	-1.8221337874	-0.4149561272	-1.6966260377	-0.305639
C	-3.1748194299	-0.5085782518	-1.205532621	-0.152277
C	-3.872128093	 0.8260399493	-0.9488447222	 0.152222
O	-3.2816738925	 1.8767327227	-0.8743464239	-0.267374
C	-4.0689194756	-1.3495764715	-2.1372351886	 0.138506
O	-5.2458631326	-1.5154569683	-1.9577131356	-0.242877
H	-1.8415185204	 1.4071360665	 0.5263302307	 0.302465
H	 0.1488623646	 1.164505696	-0.4072685259	 0.090179
H	 0.5270157793	-0.0622760873	 0.8063239249	 0.106711
H	 0.1365005314	-1.086174241	-1.3982506465	 0.102495
H	-1.0412154045	-1.655282206	-0.2192979518	 0.113347
H	-1.6617534731	 0.5015586426	-2.101530959	 0.227866
H	-3.2081762606	-1.0231658083	-0.2327875008	 0.158499
H	-4.9724336848	 0.7600793111	-0.855552067	 0.134302
H	-3.5113685724	-1.783904036	-2.994432652	 0.106521
45.8334	86.178	116.3076	139.6577	155.4683	222.8875	242.6853	300.9497	319.0811	413.8834	503.2109	538.5952	564.602	674.8542	700.1522	813.8644	851.0204	871.9844	898.7693	1037.1408	1043.7433	1081.851	1097.3251	1141.2073	1185.3636	1192.1762	1237.8199	1282.5508	1320.8772	1368.4167	1379.8862	1392.9462	1411.1402	1428.5597	1480.2103	1492.3917	1518.7857	1793.1712	1832.2575	2914.4685	2970.466	2979.3295	3011.2094	3017.3476	3054.2398	3074.1962	3526.4857	3780.3128
OCCNC(C=O)C=O	OCCNC(C=O)C=O	
InChI=1S/C5H9NO3/c7-2-1-6-5(3-8)4-9/h3-7H,1-2H2	InChI=1S/C5H9NO3/c7-2-1-6-5(3-8)4-9/h3-7H,1-2H2
