20
gdb 90184	4.02427	1.49781	1.34994	2.0769	82.35	-0.22	0.0812	0.3011	1016.5429	0.173021	-365.907072	-365.900137	-365.899193	-365.938038	29.161	
C	-0.1056565682	 1.5463638484	-0.0291137449	-0.403085
C	 0.0117134909	 0.023006497	 0.0334109779	 0.025857
C	 0.8777633925	-0.596829358	-1.1479949115	-0.384012
C	 1.884518142	-1.3105455549	-0.2665530297	 0.296575
C	 3.1127677935	-2.1890309792	 0.0293293527	-0.274199
N	 2.6541324564	-1.8462548203	 1.4577197056	-0.191585
C	 2.2538290653	-0.4353996828	 0.9579009527	-0.007739
C	 0.761484694	-0.4912614889	 1.3068066653	-0.084432
C	 1.1855375321	-1.9241901732	 0.9728133007	-0.0186
H	 0.8823408526	 2.0209614416	-0.0193577176	 0.115848
H	-0.6186148139	 1.8680785106	-0.9414262079	 0.115999
H	-0.6695398564	 1.9360149279	 0.8253501445	 0.114886
H	-0.9955457094	-0.4096493201	 0.0107402918	 0.073974
H	 0.2902654173	-1.2629301766	-1.7862133246	 0.101478
H	 1.3161913946	 0.1838294684	-1.7774550322	 0.10037
H	 3.052817701	-3.2573605546	-0.2027709383	 0.101647
H	 4.1039441677	-1.7942417535	-0.2165328929	 0.101661
H	 2.9659229144	 0.3909973466	 0.9906833039	 0.075488
H	 0.3579814767	-0.1931456574	 2.2766054861	 0.065334
H	 0.6249901971	-2.859910871	 1.0203027984	 0.074536
124.5055	238.4839	265.0356	358.2526	399.9568	451.8538	476.5667	641.2894	709.5917	768.6543	792.6058	816.6993	850.0297	856.9383	884.2152	897.3695	910.644	927.7278	946.2781	1004.5453	1015.6177	1037.9561	1061.8492	1092.981	1104.0495	1121.3088	1148.3367	1174.2869	1185.2586	1193.4043	1209.2651	1228.9365	1234.1339	1269.7209	1295.601	1317.6602	1339.3662	1361.2103	1411.8909	1494.377	1497.9048	1499.9991	1516.4204	3026.3916	3030.4047	3037.0637	3049.3205	3087.0104	3090.9633	3093.2815	3097.38	3098.2419	3099.278	3105.2122
CC1CC23CN4C2C1C34	C[C@H]1C[C@@]23CN4[C@@H]2[C@@H]1[C@@H]34	
InChI=1S/C8H11N/c1-4-2-8-3-9-6(8)5(4)7(8)9/h4-7H,2-3H2,1H3	InChI=1S/C8H11N/c1-4-2-8-3-9-6(8)5(4)7(8)9/h4-7H,2-3H2,1H3/t4-,5-,6-,7+,8-/m0/s1
