23
gdb 101701	2.64244	0.98981	0.84384	2.6489	82.2	-0.252	0.0769	0.3288	1491.483	0.202237	-425.404949	-425.394053	-425.393109	-425.441632	39.228	
C	 0.7246724544	 1.6411317407	-1.1331436973	-0.238042
O	 0.0636465403	 0.4931800128	-0.6532116819	-0.241289
C	 0.6487723849	-0.7452447032	-1.0439976703	 0.140173
C	 1.9371103252	-1.0328466692	-0.2657505343	-0.40233
C	-0.3945899142	-1.8442844971	-0.81438888	-0.281353
C	-1.6457806799	-1.7510599307	-1.6765788453	 0.424469
C	-2.7200892663	-0.779091592	-1.2453892984	-0.457774
C	-1.5628790909	-2.1771250024	-3.0833805064	-0.223705
O	-2.1519334056	-3.0316993996	-2.1030756283	-0.281492
H	 1.7226724243	 1.7727777294	-0.6913580049	 0.109208
H	 0.8336161419	 1.6188934475	-2.2289358294	 0.103863
H	 0.1111722817	 2.503068333	-0.8588766055	 0.127748
H	 0.8837692136	-0.6992070357	-2.1216384815	 0.063134
H	 2.3718248297	-1.9858110427	-0.5827119646	 0.117599
H	 2.6895825515	-0.2564766675	-0.4289787301	 0.115561
H	 1.7277918593	-1.0868505489	 0.8073649145	 0.124951
H	 0.0730448952	-2.8125784288	-1.0187678805	 0.11002
H	-0.6762951145	-1.8395928152	 0.2460756345	 0.10573
H	-2.3159330035	 0.2331357472	-1.1849807554	 0.139012
H	-3.5624675403	-0.8011095101	-1.9414462021	 0.114565
H	-3.0922419249	-1.0501155164	-0.250902279	 0.120343
H	-2.2514992032	-1.7579181899	-3.816554304	 0.107759
H	-0.6138421284	-2.5226883013	-3.4944011298	 0.101847
36.356	65.55	107.1784	148.7845	194.2786	201.4594	233.2755	274.6566	300.6698	347.7981	357.5867	400.7212	432.8947	482.5471	553.117	738.9869	805.2763	830.4202	890.7792	919.6876	925.5956	969.3435	1005.9245	1073.2067	1080.9044	1113.5378	1129.6767	1138.419	1164.8795	1171.3988	1182.1178	1196.5018	1251.6411	1289.9978	1323.404	1381.9441	1391.7423	1399.299	1404.6319	1420.9521	1468.58	1476.6714	1480.7261	1485.0959	1493.2772	1501.9245	1503.9094	1512.6024	1531.2426	2951.6946	2978.611	3029.403	3033.467	3040.7351	3042.3489	3070.9719	3089.1108	3107.8016	3110.3519	3113.1205	3115.8529	3143.963	3153.3317
COC(C)CC1(C)CO1	CO[C@@H](C)C[C@@]1(C)CO1	
InChI=1S/C7H14O2/c1-6(8-3)4-7(2)5-9-7/h6H,4-5H2,1-3H3	InChI=1S/C7H14O2/c1-6(8-3)4-7(2)5-9-7/h6H,4-5H2,1-3H3/t6-,7-/m0/s1
