18
gdb 8069	3.65138	1.63019	1.40436	1.5731	68.93	-0.2336	0.0797	0.3133	964.4336	0.151933	-384.866965	-384.858857	-384.857913	-384.899483	30.018	
C	 0.2113357231	 1.3986125382	 0.1766099595	-0.238767
O	-0.30664126	 0.1378163927	-0.1981729084	-0.250781
C	 0.4327353358	-0.487885698	-1.1992778335	 0.125465
C	 1.6692475493	-1.3841009395	-0.8716947237	 0.001561
C	 0.7380974756	-2.3996785104	-0.178941743	-0.263462
C	 0.0795414012	-1.9631928171	-1.5186843688	 0.358383
C	-1.1049803647	-2.5227856735	-2.2392225652	-0.518698
O	 1.4206258385	-2.0560835465	-2.1629862668	-0.341435
H	 1.214802682	 1.3140734742	 0.6185431416	 0.110827
H	 0.2685932743	 2.081982121	-0.6838530184	 0.111259
H	-0.4685949512	 1.8205156873	 0.9200271234	 0.130393
H	 0.5729983305	 0.1437977164	-2.0863338038	 0.076194
H	 2.6995413821	-1.1127028374	-0.6431300011	 0.08841
H	 1.1072756319	-3.4262913015	-0.163492959	 0.10072
H	 0.2462519605	-2.0949796282	 0.7457076954	 0.109118
H	-2.0152955759	-2.3272979978	-1.6641422234	 0.135965
H	-1.2096636677	-2.0569960432	-3.2238611696	 0.132442
H	-1.0024476153	-3.6037196669	-2.3730483153	 0.132406
75.381	156.5468	174.2245	197.5605	257.9591	293.4757	348.5289	459.0883	559.4942	580.5312	647.8604	724.1218	848.4008	873.6086	907.616	932.7082	976.1368	1019.2172	1040.8805	1054.4562	1091.0292	1154.2118	1159.4059	1180.4421	1187.7356	1210.1466	1225.8993	1241.4081	1267.7994	1319.8958	1381.4187	1414.9905	1475.9696	1477.7229	1486.9289	1488.1536	1492.3391	1507.5151	2983.4464	3031.0401	3034.3637	3040.563	3077.7839	3115.3885	3117.2357	3120.4359	3122.9695	3156.9709
COC1C2CC1(C)O2	CO[C@H]1[C@H]2C[C@]1(C)O2	
InChI=1S/C6H10O2/c1-6-3-4(8-6)5(6)7-2/h4-5H,3H2,1-2H3	InChI=1S/C6H10O2/c1-6-3-4(8-6)5(6)7-2/h4-5H,3H2,1-2H3/t4-,5+,6+/m1/s1
