18
gdb 67054	2.88499	1.75228	1.44373	2.4964	78.21	-0.2535	0.009	0.2625	961.8693	0.147259	-401.820777	-401.813323	-401.812379	-401.852178	30.446	
C	-0.0797692284	 1.510079433	-0.1968766989	-0.467748
C	-0.1060669153	-0.0072856307	-0.0576230952	 0.198656
C	-1.1692296577	-0.6681913917	 0.9162782737	-0.129507
C	-0.3359869503	-1.9588951866	 0.9031950043	-0.26682
C	 0.6593206882	-0.7752517594	 1.0004091939	 0.371243
C	-0.2164434265	-0.1642955233	 2.1277055211	-0.314308
O	 1.8676544212	-0.8739216145	 0.1832375687	-0.331391
C	 1.0175998658	-0.6169964834	-0.9370509844	 0.320696
N	 1.2658355779	-0.7411410879	-2.1557138749	-0.546305
H	 0.9390697268	 1.9091922876	-0.138023117	 0.130928
H	-0.4768909011	 1.7809386131	-1.1802196761	 0.140941
H	-0.694747528	 2.0093589154	 0.5559437633	 0.117784
H	-2.2569880118	-0.580364676	 0.9079551224	 0.092998
H	-0.4149765781	-2.6089949357	 1.7757663293	 0.098722
H	-0.3257445826	-2.5185265432	-0.033630251	 0.116726
H	-0.1490437552	 0.9079411389	 2.2994621034	 0.12076
H	-0.3131413468	-0.7228190941	 3.0616529658	 0.110755
H	 2.2139081319	-1.0890759014	-2.3135617985	 0.23587
139.7718	188.8657	252.9002	297.703	322.9755	422.2524	490.0267	531.0242	572.8184	593.0223	693.8584	720.1818	740.1402	822.3931	843.883	865.9617	881.3431	916.7663	947.0611	981.4614	996.1832	1041.3999	1061.1004	1089.9117	1113.1682	1130.8613	1161.1528	1168.6016	1191.0491	1208.1951	1223.421	1233.0255	1280.0788	1408.434	1483.8914	1491.7978	1506.6826	1536.1534	1807.684	3034.1884	3073.1948	3077.821	3098.3288	3100.227	3116.0312	3145.0147	3169.629	3467.683
CC12C3CC1(C3)OC2=N	C[C@]12[C@H]3C[C@@]1(C3)O[C]2[NH]	
InChI=1S/C7H9NO/c1-6-4-2-7(6,3-4)9-5(6)8/h4,8H,2-3H2,1H3	InChI=1S/C7H9NO/c1-6-4-2-7(6,3-4)9-5(6)8/h4,8H,2-3H2,1H3/t4-,6-,7-/m1/s1
