16
gdb 124401	3.30015	1.13016	0.98684	2.5705	75.65	-0.2653	-0.0133	0.252	1215.1355	0.123278	-400.711564	-400.703121	-400.702177	-400.745441	30.953	
C	-0.0251747316	 1.5667474529	 0.0566085849	-0.3908
C	-0.0217103241	 0.0184973581	 0.056793424	-0.26413
C	 0.7617866397	-0.5073154768	 1.1748546059	 0.321412
C	 1.4049407008	-0.9123098405	 2.1056633467	-0.466333
C	-1.4320016052	-0.5225820238	 0.0738091242	 0.398229
N	-1.9868977772	-0.9132446641	-1.0487168705	-0.205699
O	-3.2801616243	-1.3055249618	-0.7162808906	-0.165045
C	-3.4551395957	-1.1394731875	 0.6026535229	 0.083754
C	-2.3297624606	-0.6462863331	 1.1746023074	-0.327632
H	 0.9989736858	 1.9450392069	 0.0109320887	 0.131555
H	-0.5808884485	 1.9355045093	-0.8091538632	 0.134866
H	-0.4942248938	 1.9526332652	 0.9655711664	 0.129949
H	 0.4311116272	-0.320360102	-0.8823189192	 0.135351
H	 1.9794141919	-1.2839769091	 2.9178516516	 0.200569
H	-4.4243305947	-1.4187967487	 0.9861699379	 0.152771
H	-2.1459535396	-0.419068415	 2.2107728129	 0.131184
37.4757	110.2246	169.9312	193.8007	233.9278	326.019	378.5692	458.3216	539.8998	616.123	632.7507	644.8174	701.5301	737.8963	804.6766	866.9705	874.3374	913.6873	947.9945	989.0952	1008.1899	1072.5734	1080.692	1117.6695	1157.7113	1289.3535	1305.3138	1323.4204	1402.1411	1448.4728	1476.0443	1492.9348	1498.7888	1607.7733	2238.9689	3045.1949	3049.0278	3128.743	3132.5676	3263.3864	3292.1462	3503.5597
CC(C#C)C1=NOC=C1	C[C@@H](C#C)c1nocc1	
InChI=1S/C7H7NO/c1-3-6(2)7-4-5-9-8-7/h1,4-6H,2H3	InChI=1S/C7H7NO/c1-3-6(2)7-4-5-9-8-7/h1,4-6H,2H3/t6-/m0/s1
