16
gdb 22719	3.42517	1.05926	0.89456	2.6108	76.91	-0.2437	-0.0358	0.2079	1267.3986	0.122717	-437.824978	-437.816708	-437.815764	-437.858108	30.86	
O	-0.1198173804	 1.2884782371	 0.0057464386	-0.387329
N	 0.0133243985	-0.1084367384	 0.0707645912	-0.257098
C	-1.1130215733	-0.6744105675	-0.0546447702	 0.452657
C	-2.5671137973	-0.2223094131	-0.1165950828	-0.39833
C	-2.9668696978	-1.7009649129	 0.0198921969	 0.256736
C	-2.3602896963	-2.523086559	-1.0854812498	-0.33283
C	-1.4410866212	-2.1236923932	 0.0281374031	-0.184289
C	-3.9812917645	-2.2238761485	 0.9404020935	 0.063436
O	-4.7235239377	-1.5363115611	 1.6009023712	-0.263593
H	 0.7872494442	 1.5858755477	 0.134668817	 0.309965
H	-2.8464392018	 0.3734803735	 0.7556325955	 0.156843
H	-2.8989868798	 0.2916813843	-1.0227136105	 0.125959
H	-2.6339451108	-3.5744309369	-1.0912568194	 0.133579
H	-2.2617123674	-2.078992554	-2.0718882426	 0.133572
H	-0.9534582738	-2.8550563245	 0.6601868403	 0.122893
H	-4.0116093507	-3.3366202235	 1.001215548	 0.067829
74.3908	142.4896	163.2564	238.1489	280.2122	327.8569	380.3663	434.0186	481.0432	504.1614	559.7606	667.1744	745.7294	761.273	853.8637	919.4725	955.0224	961.5041	990.2314	998.2636	1043.5701	1079.8961	1097.5543	1107.3783	1169.767	1224.2262	1251.1754	1290.6094	1374.2646	1415.5742	1435.3919	1467.7194	1489.0551	1785.9363	1802.2185	2861.3303	3067.1537	3117.2682	3122.7963	3199.7186	3207.6198	3817.9234
ON=C1CC2(CC12)C=O	ON=C1C[C@]2(C[C@@H]12)C=O	
InChI=1S/C6H7NO2/c8-3-6-1-4(6)5(2-6)7-9/h3-4,9H,1-2H2	InChI=1S/C6H7NO2/c8-3-6-1-4(6)5(2-6)7-9/h3-4,9H,1-2H2/t4-,6+/m0/s1
