17
gdb 37171	3.603	1.72865	1.61805	2.6577	70.25	-0.2479	0.0611	0.309	877.7742	0.137795	-421.70979	-421.703735	-421.702791	-421.739782	26.302	
C	 0.041805005	 1.5660169177	 0.1268072652	-0.307331
C	 1.3504411203	 0.8367059651	-0.0886799486	-0.043383
C	 0.0321688902	 0.0577938115	 0.0603969939	-0.157468
C	 0.0870126495	-0.5457159375	-1.3293965863	 0.357881
C	-0.6312450375	-1.1940824558	-2.5018451965	-0.178748
O	 0.1642103838	-0.3700934038	-3.4084383394	-0.294055
C	 0.5470484767	 0.5274567539	-2.3357664252	 0.086801
C	 1.8208693966	 0.3257380094	-1.5013125742	 0.009448
O	 1.4801171019	-1.0805670317	-1.3792649775	-0.323135
H	-0.0844148285	 1.9915814142	 1.1183073032	 0.118714
H	-0.4259895712	 2.1579080468	-0.649350633	 0.120841
H	 2.088937851	 0.8368685521	 0.7035131648	 0.105418
H	-0.1824889839	-0.5459761911	 0.9329742027	 0.103129
H	-0.4536124936	-2.2626920812	-2.6442682574	 0.127042
H	-1.6991651599	-0.9575736888	-2.5870496831	 0.107445
H	 0.1300430026	 1.5217391274	-2.4908659688	 0.085094
H	 2.8526776068	 0.5260227618	-1.7945617397	 0.082307
259.0992	301.1314	380.8048	414.8661	449.8805	569.3403	605.4808	687.0871	732.9192	762.3751	800.2677	823.684	877.5688	881.2951	902.6103	928.1343	954.8522	973.0634	1006.9085	1025.1829	1046.1228	1080.0538	1092.0891	1098.0188	1119.8013	1159.4398	1178.6332	1203.2304	1220.5492	1250.0456	1262.7801	1305.8085	1315.7904	1366.9496	1374.8956	1488.9933	1497.8439	3026.4049	3103.1674	3108.8132	3112.1569	3135.2606	3188.1195	3194.7742	3218.5899
C1C2C1C13COC1C2O3	C1[C@H]2[C@@H]1[C@@]13CO[C@@H]1[C@@H]2O3	
InChI=1S/C7H8O2/c1-3-4(1)7-2-8-6(7)5(3)9-7/h3-6H,1-2H2	InChI=1S/C7H8O2/c1-3-4(1)7-2-8-6(7)5(3)9-7/h3-6H,1-2H2/t3-,4+,5+,6+,7-/m0/s1
