19
gdb 93970	2.76206	1.23743	0.91083	3.872	82.4	-0.2428	-0.0593	0.1835	1290.1962	0.157341	-423.056312	-423.046857	-423.045913	-423.09091	33.777	
C	 0.1594235172	 1.5620923186	-0.0966202354	-0.397803
C	 0.0045659348	 0.0503076583	 0.0811143043	 0.070488
O	 0.5386223537	-0.6224755728	-1.0555195775	-0.282322
C	 1.4355343065	-1.6545677727	-0.6524176003	-0.165142
C	 1.5574732402	-1.5039874476	 0.8415477238	 0.101598
C	 2.4442819983	-2.3516913484	 1.6318231905	 0.068598
O	 3.1411365894	-3.2205650288	 1.1491651634	-0.271247
C	 0.7360589367	-0.5308528842	 1.271220146	 0.186198
C	 0.4790006499	-0.0387100213	 2.657151389	-0.505647
H	 1.2172156527	 1.8399361805	-0.125818231	 0.123406
H	-0.3031131067	 1.865424881	-1.039302172	 0.13617
H	-0.3308403921	 2.1074365463	 0.7160480575	 0.114153
H	-1.0735502251	-0.1799145541	 0.1726793097	 0.085483
H	 1.0406278821	-2.6434712831	-0.9291562693	 0.116371
H	 2.3970734056	-1.5348829219	-1.1682678907	 0.12239
H	 2.4534133091	-2.1599965215	 2.7260469706	 0.067521
H	 1.0221068807	-0.605952322	 3.4145644169	 0.140498
H	 0.7626841753	 1.0160108887	 2.7534369058	 0.147055
H	-0.5917325784	-0.0953120252	 2.8896980687	 0.142232
58.0285	118.9853	151.5739	181.8917	188.1388	218.5102	251.0759	300.1493	358.7362	407.9301	501.8884	582.9779	614.1696	708.145	787.2075	870.1046	899.2758	982.9953	1023.4894	1035.0213	1057.9977	1074.4675	1094.5782	1118.5188	1126.2998	1191.7705	1216.4427	1284.0022	1356.8426	1360.8029	1387.0266	1401.9198	1412.3721	1429.588	1475.5248	1480.6002	1489.0126	1495.723	1523.0229	1707.8364	1770.3333	2896.9693	2923.4892	2995.3878	3028.3873	3033.3971	3040.5127	3075.7872	3115.387	3125.6442	3134.8154
CC1OCC(C=O)=C1C	C[C@H]1OCC(=C1C)C=O	
InChI=1S/C7H10O2/c1-5-6(2)9-4-7(5)3-8/h3,6H,4H2,1-2H3	InChI=1S/C7H10O2/c1-5-6(2)9-4-7(5)3-8/h3,6H,4H2,1-2H3/t6-/m1/s1
