16
gdb 10385	2.76973	1.94003	1.41063	3.3491	65.46	-0.2511	-0.0397	0.2114	909.524	0.128558	-383.745282	-383.737158	-383.736214	-383.778751	28.397	
O	-0.1509397546	 0.011241097	-0.3868433688	-0.254513
C	-0.0181647497	 1.1219558753	 0.0606631002	 0.116098
C	 1.2835052158	 1.8959431492	 0.0449166999	 0.118922
C	 2.4845702938	 1.109157171	-0.562144234	-0.265981
C	 2.2353751071	 1.7919665942	-1.9312849737	-0.20363
C	 1.3447553415	 2.8415075897	-1.2211810771	-0.270899
C	 1.5289246015	 2.6070739763	 1.3523645967	 0.10962
O	 0.7991621032	 2.5789788856	 2.3102624848	-0.249141
H	-0.8751245381	 1.6790781582	 0.4911433336	 0.103146
H	 3.4338681741	 1.4042571731	-0.1061217352	 0.106533
H	 2.3763181482	 0.0253900206	-0.5172305595	 0.137226
H	 3.1068642729	 2.1729103138	-2.4666840429	 0.107712
H	 1.6603917793	 1.1526463044	-2.6041079143	 0.128687
H	 0.3843970343	 3.1012673466	-1.6734712821	 0.12198
H	 1.8799409092	 3.7674903111	-0.9891738968	 0.115822
H	 2.4783650115	 3.1930055939	 1.3678758194	 0.078419
50.2752	75.5636	119.6263	230.5462	268.4708	295.4565	335.2748	446.7663	600.9857	688.5309	740.462	777.083	864.4114	873.7853	945.193	955.6866	969.1096	997.8728	1081.9476	1096.823	1163.9705	1209.9769	1223.0806	1260.6925	1280.5114	1285.0819	1307.888	1417.9216	1429.0646	1464.5877	1480.0691	1500.6051	1815.6993	1825.156	2852.6003	2929.4278	3051.7504	3064.7798	3076.9537	3104.5733	3128.858	3143.1151
O=CC1(CCC1)C=O	O=CC1(CCC1)C=O	
InChI=1S/C6H8O2/c7-4-6(5-8)2-1-3-6/h4-5H,1-3H2	InChI=1S/C6H8O2/c7-4-6(5-8)2-1-3-6/h4-5H,1-3H2
