15
gdb 125105	2.37117	1.87357	1.05344	1.9793	74.41	-0.2303	-0.0563	0.174	1070.5574	0.112577	-453.947555	-453.939548	-453.938604	-453.98057	29.555	
C	-0.0131940002	 1.5389217403	-0.0422198431	-0.50671
C	-0.0281074429	 0.0373971588	-0.0575141834	 0.125605
C	-1.1456972679	-0.7116447482	 0.0939743775	 0.265676
O	-2.3735464087	-0.2251341342	 0.2756682451	-0.410629
C	-1.0611431617	-2.1721096357	 0.0648837552	 0.361323
N	-2.1421379425	-2.8332914124	 0.2121846191	-0.580469
O	 0.1527801953	-2.7481484032	-0.1159249595	-0.277416
N	 1.3336275679	-1.9933682151	-0.2764159912	-0.109245
C	 1.1858793022	-0.7131090953	-0.2403100772	 0.004758
H	 0.6302335004	 1.9192033574	 0.7594448924	 0.140527
H	 0.3749392293	 1.9395803301	-0.9856972701	 0.140616
H	-1.0186439318	 1.933769282	 0.1093873441	 0.155667
H	-2.9440560627	-1.0197458869	 0.3483650054	 0.315077
H	-2.0016437715	-3.840534131	 0.1803301091	 0.239031
H	 2.1259685047	-0.1808799766	-0.3688486734	 0.136188
58.5028	128.2265	162.2887	268.5658	279.6202	334.1558	481.9173	502.2699	517.0413	567.0189	600.7842	671.5932	694.0356	777.1642	819.4138	871.7729	893.6869	937.2835	978.2859	1061.674	1066.5911	1086.0852	1257.2566	1295.0669	1344.6483	1377.0366	1411.0493	1461.5724	1487.7932	1490.5742	1616.1942	1697.1487	1743.0833	3032.3872	3082.4316	3144.7123	3163.2039	3523.5498	3530.0746
CC1=C(O)C(=N)ON=C1	C[C]1C(=C([NH])ON=C1)O	
InChI=1S/C5H6N2O2/c1-3-2-7-9-5(6)4(3)8/h2,6,8H,1H3	InChI=1S/C5H6N2O2/c1-3-2-7-9-5(6)4(3)8/h2,6,8H,1H3
