22
gdb 114322	2.27397	1.24636	1.11496	1.3042	83.08	-0.2274	0.0741	0.3014	1258.0488	0.192738	-404.295854	-404.285984	-404.28504	-404.330285	36.973	
C	-0.5364503031	 1.2103767919	-0.0545404808	-0.318817
N	-0.0778750337	-0.1379149572	 0.2348643807	-0.110417
C	 1.1918586412	-0.6709507288	-0.1965953328	-0.10129
C	 2.3495978068	 0.3367154978	-0.0558014034	-0.273675
C	 2.056666288	 0.4148013069	 1.4751358668	 0.003504
C	 1.9056848969	 1.7443594299	 2.1937248665	-0.114969
O	 3.2045689286	 2.3187059116	 2.2896241714	-0.422555
C	 0.8452727324	-0.5349731902	 1.2775046641	 0.280703
C	 0.3966835885	-1.549582411	 2.2910311769	-0.483122
H	 0.2543702408	 1.9580091366	-0.1995143669	 0.107844
H	-1.1356852862	 1.1810800858	-0.9711097904	 0.119699
H	-1.1857057398	 1.5509890242	 0.7584112964	 0.118424
H	 1.1970364224	-1.5556405213	-0.8263884744	 0.086556
H	 3.3256788072	-0.0990890444	-0.2757343121	 0.106706
H	 2.255658576	 1.2662622736	-0.6254965731	 0.100802
H	 2.8387136571	-0.1385688388	 2.0070527345	 0.085558
H	 1.2205345474	 2.4161726083	 1.6596448312	 0.085441
H	 1.4746055339	 1.5675637947	 3.193757885	 0.083338
H	 3.1213410234	 3.1836358235	 2.7016503843	 0.285013
H	-0.1268572256	-1.0704083371	 3.1276253435	 0.11644
H	-0.2929199716	-2.2627981785	 1.832476857	 0.129826
H	 1.2496123694	-2.0978439675	 2.7057616257	 0.114991
73.7565	134.1929	166.5566	181.9861	216.4269	243.7865	265.4394	269.9523	294.918	356.8986	436.4574	494.7357	574.1182	634.4298	714.3095	780.4678	841.0886	869.563	920.4936	947.9857	973.8585	1016.4913	1048.6564	1085.6496	1095.0745	1115.695	1145.2247	1148.6616	1164.0036	1180.5691	1205.5789	1225.4277	1253.4216	1264.3145	1276.7566	1286.2312	1372.2778	1401.1161	1429.3493	1455.705	1463.3952	1480.9927	1484.7991	1494.7302	1501.8139	1507.6883	1524.1456	2959.3183	3005.1581	3023.6994	3024.972	3049.4745	3056.1218	3068.9642	3081.9219	3096.8507	3115.3089	3119.7477	3153.5195	3827.8375
CN1C2CC(CO)C12C	CN1[C@H]2C[C@@H](CO)[C@@]12C	
InChI=1S/C7H13NO/c1-7-5(4-9)3-6(7)8(7)2/h5-6,9H,3-4H2,1-2H3	InChI=1S/C7H13NO/c1-7-5(4-9)3-6(7)8(7)2/h5-6,9H,3-4H2,1-2H3/t5-,6-,7+,8?/m0/s1
