16
gdb 128171	2.41329	1.23271	0.85867	2.9896	74.73	-0.2305	-0.0602	0.1704	1323.7027	0.121209	-471.188694	-471.178464	-471.177519	-471.225136	33.876	
C	-0.6046135943	 0.8245129189	 0.1718840926	-0.325804
N	 0.5338674645	-0.0758410812	 0.0085735176	-0.326082
C	 1.0024096137	-0.7593398157	 1.138977659	 0.025657
C	 0.8781233529	-2.1859574674	 1.4268193529	 0.460123
O	 0.2389935578	-2.8349381035	 0.4330972938	-0.236348
C	 0.0803090354	-4.2411188155	 0.6467168019	-0.236437
O	 1.2963997961	-2.717123421	 2.4339470655	-0.415275
N	 2.1053253965	 0.6211643564	 2.8431914146	-0.226297
N	 1.6017641078	-0.0607507385	 2.0932560583	 0.253123
H	-0.41026794	 1.6783121085	 0.8406057516	 0.110799
H	-0.8885465905	 1.2166448046	-0.808920987	 0.128454
H	-1.4517243448	 0.2613359877	 0.5733043821	 0.139716
H	 1.2681289701	 0.3208631101	-0.5640309785	 0.239376
H	-0.4390227612	-4.6160010983	-0.2354818778	 0.130748
H	 1.0520466112	-4.7298453479	 0.7553353024	 0.139543
H	-0.5083763551	-4.4335057272	 1.5476163409	 0.138703
43.718	80.1562	105.9737	126.1552	138.0266	167.4831	196.0415	248.4229	327.0204	379.6726	456.0893	480.8018	584.1611	608.9454	690.7184	763.2341	826.8005	1003.821	1048.8624	1143.9723	1168.0045	1179.4247	1185.4887	1216.686	1253.5379	1386.6818	1458.3268	1468.2448	1478.0114	1481.2203	1491.6535	1499.9363	1516.2998	1768.7471	2186.4891	2976.8291	3049.3222	3076.2909	3120.2351	3122.0555	3155.8615	3545.183
CNC1=C(OC)ON=N1	CN[C](C(=O)OC)[N][N]	
InChI=1S/C4H7N3O2/c1-5-3-4(8-2)9-7-6-3/h5H,1-2H3	InChI=1S/C4H7N3O2/c1-6-3(7-5)4(8)9-2/h1-2H3,(H,6,7)
