18
gdb 32911	4.416	0.82865	0.73066	0.8098	75.3	-0.2152	0.0264	0.2415	1559.4301	0.148021	-439.134429	-439.125643	-439.124698	-439.168704	32.016	
C	 0.0583980583	 1.5052943349	-0.1586895315	-0.38246
C	 0.0171307436	-0.0230085914	-0.1035094143	-0.161172
C	-1.4018231763	-0.5661971751	 0.1566876538	-0.307964
C	-1.4819972289	-2.0476303619	 0.2013833177	 0.335735
C	-1.7863076072	-2.9787611114	 1.1319666805	-0.203624
N	-1.6803646299	-4.2637778937	 0.588342938	-0.381814
C	-1.3196406358	-4.0297165189	-0.6289456542	 0.467151
O	-1.0720070032	-4.9009499722	-1.6056060395	-0.400172
O	-1.1715257283	-2.7421971477	-0.9678461968	-0.204617
H	 1.0736140267	 1.8674123882	-0.346521797	 0.116002
H	-0.5857204428	 1.8911066869	-0.9567659187	 0.116788
H	-0.2836490287	 1.9470339691	 0.7840842097	 0.114741
H	 0.3888978969	-0.4415357163	-1.0455419609	 0.11474
H	 0.6867811461	-0.3902924241	 0.6831881883	 0.103236
H	-1.7759127743	-0.1866530168	 1.1144256346	 0.115551
H	-2.0803616414	-0.1798544022	-0.6166687145	 0.115654
H	-2.0784695529	-2.8250262481	 2.1587652858	 0.120543
H	-1.2156915021	-5.7796614193	-1.2316517413	 0.321682
64.8181	85.7821	99.6882	239.3203	249.4796	291.9242	318.7738	392.9345	441.3083	479.2279	638.4238	697.9025	743.0849	750.4337	775.4274	846.0417	871.219	896.8003	981.6566	1012.8533	1042.8677	1100.5487	1111.4945	1137.1532	1223.5483	1227.2825	1248.3605	1286.2561	1315.0044	1329.62	1385.8369	1412.6956	1469.6303	1492.5048	1494.4822	1499.0721	1509.6018	1657.5407	1662.413	3010.4411	3029.3103	3037.13	3059.3337	3077.3676	3099.699	3105.6163	3262.7562	3809.093
CCCC1=CN=C(O)O1	CCCc1cnc(O)o1	
InChI=1S/C6H9NO2/c1-2-3-5-4-7-6(8)9-5/h4H,2-3H2,1H3,(H,7,8)	InChI=1S/C6H9NO2/c1-2-3-5-4-7-6(8)9-5/h4H,2-3H2,1H3,(H,7,8)
