19
gdb 82540	2.29575	1.60367	1.38627	0.9873	75.21	-0.2361	0.0681	0.3042	1042.5945	0.15781	-422.9685	-422.959659	-422.958715	-423.001535	34.153	
O	 0.0091758317	 1.3792929595	 0.0412080004	-0.434146
C	-0.0784263976	-0.0174873955	 0.0700248902	 0.04043
C	-0.4547776163	-0.832679489	 1.2876651274	-0.1601
C	-1.5455495261	-0.1082654144	 2.0880253892	-0.322824
C	-2.4269265695	-0.0899988659	 0.8210252032	 0.290424
C	-3.8789350907	-0.4238050234	 0.7410771667	-0.336953
C	-3.4040750598	 0.9532784992	 0.3283862082	-0.351124
C	-1.3497622328	-0.7957994128	 0.0185759467	 0.267556
O	-1.6397190678	-1.780992024	-0.9101441656	-0.455989
H	-0.8853023047	 1.730671334	 0.1110481402	 0.295883
H	 0.7344592305	-0.4605598599	-0.5015071722	 0.100721
H	 0.1873801064	-1.6197895633	 1.663510387	 0.09303
H	-1.971837947	-0.718782564	 2.8873665576	 0.110028
H	-1.2554983373	 0.8657772445	 2.4947117438	 0.102595
H	-4.1822775649	-1.1117416325	-0.0409175864	 0.12781
H	-4.4364954764	-0.5129178433	 1.6677940423	 0.113536
H	-3.6397840835	 1.7863472592	 0.9833870617	 0.116274
H	-3.4155559553	 1.1982733016	-0.7297285316	 0.111759
H	-1.3449351189	-1.48364028	-1.7766905488	 0.291089
103.4386	153.6238	175.2556	221.7916	236.3476	274.8999	299.9108	365.2838	411.7962	520.087	561.8834	612.5405	672.8058	784.4675	793.4977	834.5524	857.8337	894.5185	919.4195	943.7378	985.643	995.8751	1027.7109	1045.5625	1071.2159	1081.4927	1097.642	1159.2862	1166.8034	1191.797	1223.1904	1243.9197	1265.3428	1306.3781	1314.6224	1363.3132	1404.4951	1460.3564	1464.3939	1496.1342	1501.8238	3048.8985	3104.5235	3116.9744	3128.6654	3140.3568	3189.4004	3198.6371	3219.2489	3803.4723	3815.9256
OC1C2CC3(CC3)C12O	O[C@H]1[C@H]2CC3(CC3)[C@@]12O	
InChI=1S/C7H10O2/c8-5-4-3-6(1-2-6)7(4,5)9/h4-5,8-9H,1-3H2	InChI=1S/C7H10O2/c8-5-4-3-6(1-2-6)7(4,5)9/h4-5,8-9H,1-3H2/t4-,5+,7+/m1/s1
