18
gdb 74467	2.89223	1.48358	1.06927	3.4498	81.66	-0.2135	0.0025	0.216	1146.3069	0.148416	-398.159248	-398.150802	-398.149858	-398.192094	32.232	
C	-0.0247165873	 1.4693424795	-0.0091604584	-0.49546
C	-0.0502639197	-0.0222284919	-0.0043935332	 0.343718
N	-1.1033623779	-0.7504904575	-0.078402423	-0.339034
C	-0.6435663925	-2.1142564131	-0.0386884875	 0.301909
C	-1.4675683755	-3.1816034674	 0.6549695681	-0.29674
C	-1.3585589947	-3.188374169	-0.835011468	-0.296769
C	 0.8498301492	-2.1126270238	 0.0707890172	 0.325442
N	 1.6079795249	-3.133606189	 0.1307960934	-0.570493
N	 1.1406358007	-0.7488872474	 0.0860853611	-0.39531
H	 0.5603463032	 1.8504739266	-0.853964101	 0.137613
H	-1.0452978007	 1.8441391635	-0.0860513104	 0.160237
H	 0.4305666761	 1.85836694	 0.9087507048	 0.137624
H	-0.9012162932	-3.9192641461	 1.2123877627	 0.138873
H	-2.3951217178	-2.8458603455	 1.1030949754	 0.126911
H	-2.2108327191	-2.8574486857	-1.4164048959	 0.12691
H	-0.7176384891	-3.9307185043	-1.2973693845	 0.138874
H	 2.5935628784	-2.8806848341	 0.2019595622	 0.204034
H	 2.0643110951	-0.3558772747	 0.1522770969	 0.251661
106.6302	146.0576	157.6902	232.5111	239.2994	291.3252	349.8865	432.9664	485.4237	559.7932	623.4214	654.0387	705.1886	757.1742	790.2313	820.658	906.5584	913.3015	958.1797	980.8184	995.28	1032.2479	1060.4443	1063.6277	1087.2252	1087.9026	1205.5432	1209.5592	1265.7541	1293.0146	1378.4129	1403.9246	1437.8572	1442.8949	1479.2344	1479.8682	1485.5514	1698.3105	1753.5449	3035.3574	3088.2591	3140.6906	3141.0289	3157.6549	3232.5634	3246.6588	3471.9509	3661.6514
CC1=NC2(CC2)C(=N)N1	CC1=NC2(CC2)[C]([NH])N1	
InChI=1S/C6H9N3/c1-4-8-5(7)6(9-4)2-3-6/h2-3H2,1H3,(H2,7,8,9)	InChI=1S/C6H9N3/c1-4-8-5(7)6(9-4)2-3-6/h2-3H2,1H3,(H2,7,8,9)
