16
gdb 45389	2.13769	1.75228	1.25593	5.2558	74.2	-0.2629	-0.0462	0.2166	1034.58	0.124334	-400.756582	-400.748682	-400.747738	-400.789626	29.315	
O	 0.0300489839	 0.0451459683	-0.5600926078	-0.269865
C	-0.0373270626	 1.1638007994	-0.1570632673	 0.3635
C	-1.1512492647	 2.037203002	 0.4374994626	-0.353048
C	-0.1362386334	 3.1971648185	 0.6179337642	-0.082218
C	 0.6360870672	 3.1832878138	 1.9603682339	-0.220087
C	 1.7402111164	 2.2772392278	 1.3450632502	-0.278135
C	 1.0085422467	 2.3127120682	-0.0456815117	 0.07977
C	 1.7662732657	 2.6721790345	-1.213491866	 0.193717
N	 2.3641010905	 2.974259745	-2.1572201903	-0.338217
H	-1.9139829722	 2.2441005234	-0.3211788151	 0.152744
H	-1.6501843558	 1.6499373343	 1.330230113	 0.137973
H	-0.4219649902	 4.1605148939	 0.2012985393	 0.102577
H	 1.0107710444	 4.1660293969	 2.2518606785	 0.123465
H	 0.0855513494	 2.7625279426	 2.8052471597	 0.113399
H	 2.723406295	 2.7462126294	 1.298865992	 0.142429
H	 1.8529248398	 1.2756626419	 1.7643597747	 0.131997
53.7669	117.4917	165.2246	201.2765	324.4103	388.6948	487.6506	514.3244	553.0513	588.5077	629.5182	734.0982	774.9592	824.6893	873.7565	905.0143	957.0819	1002.9609	1015.7202	1038.8214	1055.4773	1108.4595	1126.1423	1184.3844	1219.2092	1232.3016	1245.1716	1279.3471	1291.5628	1313.4652	1432.0666	1478.9819	1494.9988	1902.8319	2344.1027	3054.1211	3069.9339	3082.6641	3108.0128	3117.5728	3140.1899	3144.5056
O=C1CC2CCC12C#N	O=C1C[C@H]2CC[C@@]12C#N	
InChI=1S/C7H7NO/c8-4-7-2-1-5(7)3-6(7)9/h5H,1-3H2	InChI=1S/C7H7NO/c8-4-7-2-1-5(7)3-6(7)9/h5H,1-3H2/t5-,7+/m1/s1
