16
gdb 16142	3.98149	1.7417	1.45678	2.9263	65.7	-0.2507	-0.0238	0.2269	871.79	0.131299	-383.743987	-383.737067	-383.736123	-383.775136	26.11	
O	-0.1700787477	 0.043022478	 0.1418592226	-0.268596
C	-0.0164366872	 1.2258819309	-0.0504400157	 0.074534
C	 1.2888450396	 1.90735816	-0.0522544087	 0.23436
C	 1.3674163955	 3.3910605868	 0.2810783325	-0.332337
C	 1.6284847198	 2.9570387123	-1.118790169	-0.100979
C	 3.0736541585	 2.660805887	-1.4877939892	-0.089402
O	 3.6094610265	 1.9289850678	-0.3934574611	-0.256295
C	 2.5700614664	 1.1160601037	 0.1494398987	-0.151675
H	-0.8858125334	 1.8966166241	-0.2456080313	 0.067303
H	 0.4295106423	 3.8970768457	 0.4850177745	 0.124854
H	 2.204772442	 3.7021005675	 0.8970963176	 0.13983
H	 0.9200737093	 3.1971284384	-1.903311712	 0.105585
H	 3.1067395452	 2.076898908	-2.4216125792	 0.100656
H	 3.6907663484	 3.5559522152	-1.6163673135	 0.117105
H	 2.8180931478	 0.9272555749	 1.1976434846	 0.119518
H	 2.4887794768	 0.1503742097	-0.3694523207	 0.115539
108.1113	196.9892	227.0048	263.3729	360.5084	395.2518	476.9525	640.1665	689.5429	765.1224	815.578	880.2292	922.642	941.1862	953.1611	1025.4001	1044.2467	1064.4262	1079.9761	1090.1929	1115.0649	1123.2118	1215.7711	1240.307	1264.6918	1304.4724	1351.9607	1376.4923	1409.8579	1437.1146	1474.6362	1509.126	1522.1777	1805.8379	2855.4785	2978.8708	3011.6395	3073.7365	3089.4575	3129.994	3182.8499	3220.7614
O=CC12CC1COC2	O=C[C@]12C[C@H]1COC2	
InChI=1S/C6H8O2/c7-3-6-1-5(6)2-8-4-6/h3,5H,1-2,4H2	InChI=1S/C6H8O2/c7-3-6-1-5(6)2-8-4-6/h3,5H,1-2,4H2/t5-,6-/m0/s1
