17
gdb 10715	2.55029	2.15649	1.34736	4.6717	64.62	-0.2496	0.0165	0.2661	928.167	0.141766	-401.019714	-401.011076	-401.010131	-401.053123	31.584	
N	 1.0605364724	-1.0926364372	 0.6522266458	-0.53915
C	-0.0865871027	-0.3650892155	 0.7561852207	 0.37703
O	-0.1000276271	 0.7022466706	 1.3588804716	-0.390105
C	-1.3245358598	-0.8890195955	 0.0805089589	 0.219187
C	-2.575697586	-0.103511012	 0.4552447858	-0.128398
O	-2.5078451813	 1.2518703405	 0.0780153422	-0.425708
C	-1.2038261162	-1.401083954	-1.3456379142	-0.282997
C	-1.4866300929	-2.3639495129	-0.2328971262	-0.326171
H	 1.8782203682	-0.7346669561	 1.1174125917	 0.265404
H	 1.0968128724	-2.0155256988	 0.2598654428	 0.260735
H	-3.437375633	-0.5381344093	-0.0640167712	 0.092034
H	-2.7524881803	-0.2139674536	 1.5368725573	 0.092352
H	-1.7382329862	 1.5954192048	 0.5553365308	 0.295594
H	-2.0074132388	-1.1383374837	-2.0245955822	 0.135608
H	-0.2188092586	-1.4052031121	-1.798759284	 0.119559
H	-0.7170341792	-3.0617404085	 0.0802154537	 0.107445
H	-2.4898028206	-2.7677883269	-0.1435545037	 0.127582
50.9524	115.7117	131.022	221.3779	255.59	303.1125	318.9139	411.3955	508.1329	531.7736	563.7018	614.6739	714.5485	761.0235	779.8511	858.3058	927.3339	951.7547	960.6595	1032.5214	1050.1292	1079.9851	1088.	1097.3939	1189.0353	1194.839	1268.2982	1327.6689	1389.2688	1408.39	1458.9212	1473.6498	1494.3786	1509.5181	1616.5689	1746.5637	2979.3977	3058.7648	3130.0293	3138.6971	3205.0434	3226.7361	3613.7721	3722.0661	3748.6723
NC(=O)C1(CO)CC1	NC(=O)C1(CO)CC1	
InChI=1S/C5H9NO2/c6-4(8)5(3-7)1-2-5/h7H,1-3H2,(H2,6,8)	InChI=1S/C5H9NO2/c6-4(8)5(3-7)1-2-5/h7H,1-3H2,(H2,6,8)
