14
gdb 128702	7.34046	0.8873	0.79559	1.6591	76.72	-0.247	-0.0421	0.2048	1363.3344	0.099735	-436.639883	-436.631747	-436.630803	-436.67279	29.46	
C	-0.0039970843	 1.4167648053	-0.0066844497	-0.247049
O	 0.0019432627	-0.0146246008	 0.0031925209	-0.268715
C	 0.5950108678	-0.5989783697	-1.0376954039	 0.492018
N	 1.1479667793	 0.0720023543	-2.0256451665	-0.235337
O	 1.6460528314	-0.8955751762	-2.8932583844	-0.229745
C	 1.3717641147	-2.1239640658	-2.3898521934	 0.333074
C	 0.7028438187	-2.0063602977	-1.2084293893	-0.484553
C	 1.7985763498	-3.2445576574	-3.1288328726	 0.244235
C	 2.1601263873	-4.2063467092	-3.7546754056	-0.37462
H	 1.0180618291	 1.8072948026	-0.0122495741	 0.145075
H	-0.5310368989	 1.794824772	-0.8878476415	 0.145077
H	-0.5214659624	 1.7166071486	 0.9045437296	 0.136152
H	 0.3435685878	-2.7872056103	-0.5617029818	 0.1377
H	 2.480338167	-5.0540880656	-4.3090352778	 0.206689
83.6492	135.376	161.0974	181.5637	246.3387	342.2316	425.9026	465.2619	535.5939	609.3866	610.1482	682.9829	689.5895	723.1178	731.1834	824.6841	962.9263	1005.1974	1031.1621	1065.0146	1166.1187	1180.0968	1225.3165	1259.6137	1448.8956	1474.0416	1480.1923	1500.6239	1553.6423	1629.2306	2241.8278	3041.1547	3112.5227	3156.4168	3295.8369	3500.8092
COC1=NOC(=C1)C#C	COc1noc(c1)C#C	
InChI=1S/C6H5NO2/c1-3-5-4-6(8-2)7-9-5/h1,4H,2H3	InChI=1S/C6H5NO2/c1-3-5-4-6(8-2)7-9-5/h1,4H,2H3
