15
gdb 6077	5.11121	1.04877	0.9006	2.2868	58.93	-0.2456	0.0201	0.2657	1216.0295	0.118951	-433.194491	-433.185566	-433.184622	-433.229089	31.296	
N	-0.113664664	 1.2309730368	-0.1659828532	-0.520791
C	-0.0237595491	-0.1231740426	-0.1053859609	 0.406438
O	 0.9831406986	-0.7366388898	-0.4116286639	-0.363514
C	-1.2786318102	-0.8276264932	 0.4135371333	-0.249964
N	-1.0520623825	-2.2520007183	 0.4172108414	-0.344639
C	-2.0753514086	-3.0910731634	 0.0288443785	 0.449172
N	-1.671118721	-4.3999465386	-0.189312565	-0.561748
O	-3.2257357518	-2.7197373227	-0.1239556154	-0.393637
H	 0.6644010175	 1.7464895562	-0.5431236879	 0.267567
H	-0.9785875419	 1.7154029441	 0.000812038	 0.267357
H	-1.5029684781	-0.4455252534	 1.419765503	 0.127783
H	-2.1464065399	-0.5913597697	-0.213424486	 0.151975
H	-0.1025875644	-2.4874867646	 0.1508955076	 0.253866
H	-0.8741124574	-4.7367098106	 0.329191515	 0.250683
H	-2.4437062371	-5.0463210303	-0.2326141942	 0.259453
35.8371	64.8854	118.2275	204.8741	216.6471	296.6988	364.3265	414.4525	491.9105	509.1102	527.0061	590.4845	625.2688	647.1701	680.5927	776.4799	854.4829	980.4472	1036.2684	1098.0675	1102.9437	1201.7457	1242.5493	1281.4309	1342.1481	1413.3747	1502.0041	1520.8521	1622.2911	1626.9256	1790.0802	1803.3802	3005.6477	3061.8519	3547.5611	3579.7566	3603.5322	3695.6017	3736.7082
NC(=O)CNC(N)=O	NC(=O)CNC(=O)N	
InChI=1S/C3H7N3O2/c4-2(7)1-6-3(5)8/h1H2,(H2,4,7)(H3,5,6,8)	InChI=1S/C3H7N3O2/c4-2(7)1-6-3(5)8/h1H2,(H2,4,7)(H3,5,6,8)
