18
gdb 71442	4.02086	1.37483	1.21595	3.0747	75.18	-0.2404	-0.0211	0.2193	1050.8788	0.148549	-401.943221	-401.93573	-401.934786	-401.974963	29.641	
C	-0.0338584385	 1.5027528883	 0.0259795564	-0.495028
C	 0.050995885	 0.0091251361	-0.0810336203	 0.346595
C	-0.7242246059	-0.8301404281	-1.0929725731	-0.316226
C	-0.7987392822	-1.9205591619	 0.0188623843	-0.108374
N	-0.3282421917	-0.9190758374	 1.0614245994	-0.187473
C	 1.0972798395	-0.790940081	 0.6143510551	-0.074278
C	 1.6255080485	-2.0927141415	 0.0541776541	-0.370381
C	 0.3411312668	-2.8993017345	-0.2024433529	 0.430976
O	 0.2639507703	-4.0529762325	-0.5293296654	-0.316014
H	 0.5257365042	 1.9831434416	-0.7852622355	 0.124546
H	-1.0736657185	 1.8416672241	-0.0331973067	 0.125561
H	 0.3818531115	 1.8500217406	 0.9763404968	 0.131723
H	-1.711974638	-0.4041718233	-1.2821049006	 0.122644
H	-0.2571251782	-1.0811410644	-2.0509813359	 0.110054
H	-1.7616886291	-2.3807579254	 0.2263477645	 0.100048
H	 1.713428918	-0.2455836901	 1.3219878477	 0.098751
H	 2.2062707656	-1.997615896	-0.8691700012	 0.136187
H	 2.2516902327	-2.6211023646	 0.7801350534	 0.140689
106.6414	178.2142	220.8021	264.4896	337.1912	427.3997	446.081	506.7616	605.8146	668.1785	692.1841	738.3846	782.8066	787.8183	846.7517	934.1146	941.0169	957.7356	975.363	1003.2265	1032.5256	1064.8053	1099.2707	1127.2848	1172.4801	1185.0651	1225.8964	1225.949	1262.9733	1275.8479	1298.4387	1322.221	1411.6906	1441.3663	1455.1513	1481.7416	1491.9791	1501.7874	1855.7921	3028.6823	3046.1992	3054.1458	3091.7587	3093.761	3109.4278	3111.9143	3150.9534	3165.3018
CC12CC3N1C2CC3=O	C[C@]12C[C@@H]3N1[C@H]2CC3=O	
InChI=1S/C7H9NO/c1-7-3-4-5(9)2-6(7)8(4)7/h4,6H,2-3H2,1H3	InChI=1S/C7H9NO/c1-7-3-4-5(9)2-6(7)8(4)7/h4,6H,2-3H2,1H3/t4-,6-,7+,8?/m0/s1
