14
gdb 127181	4.45055	1.13932	0.91232	0.6843	66.77	-0.2625	-0.038	0.2245	1178.7506	0.101592	-470.029042	-470.021153	-470.020208	-470.062184	27.404	
C	-0.0119711115	 1.4469177815	-0.0704446918	-0.36104
N	-0.0067844099	-0.016469336	-0.0140141256	-0.22778
C	-0.0131133382	-0.6713340098	 1.2207007362	 0.162794
O	-0.0229962448	-0.0894028508	 2.2752010264	-0.303621
C	 0.0045472452	-0.7473662525	-1.1708755179	 0.598195
N	 0.0101428344	-2.0466390821	-1.3088208607	-0.3697
C	 0.0209877496	-2.1648780177	-2.6730483867	 0.05341
N	 0.0220142123	-1.0501245467	-3.3493265705	-0.124037
O	 0.0108627778	-0.0711528027	-2.3223586338	-0.220865
H	 0.8802682169	 1.8121433281	-0.5842789975	 0.15552
H	-0.898139171	 1.8051469178	-0.5994504924	 0.155538
H	-0.0220713191	 1.7981126553	 0.9598568168	 0.179125
H	-0.0079688332	-1.7639867788	 1.1039871137	 0.147422
H	 0.0281641016	-3.1187366956	-3.1810399262	 0.155038
71.8963	130.1265	136.2035	190.4341	277.051	318.3025	359.7298	454.783	507.2541	636.9997	773.323	809.4597	886.6835	937.9761	952.7795	977.7326	1045.0306	1048.1728	1160.0595	1169.9104	1216.8188	1278.0725	1285.1005	1393.1297	1429.4791	1440.7954	1497.4797	1507.8688	1562.6207	1639.573	1814.8363	3055.4406	3061.3265	3128.7805	3179.8209	3258.7075
CN(C=O)C1=NC=NO1	CN(C=O)c1ncno1	
InChI=1S/C4H5N3O2/c1-7(3-8)4-5-2-6-9-4/h2-3H,1H3	InChI=1S/C4H5N3O2/c1-7(3-8)4-5-2-6-9-4/h2-3H,1H3
