19
gdb 71961	2.81485	1.88384	1.62374	2.4591	72.72	-0.2467	0.0762	0.323	906.62	0.162266	-423.033886	-423.027141	-423.026197	-423.064494	28.841	
O	-0.0622253723	 1.4241776668	 0.0304861726	-0.494306
C	 0.016674964	 0.0252092862	-0.0180234519	 0.399589
C	 0.2816470902	-0.6842600359	-1.370373513	-0.305032
C	-0.6960704927	-1.7931157862	-0.9041616322	-0.070468
C	-0.0381962553	-2.769849798	 0.0980314127	-0.217654
C	-0.0443891308	-1.9051487702	 1.378215267	 0.06254
C	 0.8115209523	-0.6421203901	 1.1343638328	-0.293871
O	-1.3762445604	-1.3686954401	 1.3790260885	-0.253731
C	-1.3301244787	-0.76356528	 0.1038477891	 0.066274
H	 0.8322774255	 1.7812549209	 0.018467528	 0.276117
H	-0.1338114355	-0.1000702956	-2.1963598335	 0.104372
H	 1.3100918099	-0.9744415266	-1.6083822741	 0.086276
H	-1.3247658675	-2.2732657318	-1.6524952305	 0.072234
H	-0.6591723342	-3.6564942118	 0.2505208741	 0.106322
H	 0.9621948598	-3.0908507109	-0.2064514379	 0.095406
H	 0.1412548122	-2.4316982476	 2.3143842968	 0.077025
H	 1.8531817627	-0.8585836407	 0.8792458966	 0.091375
H	 0.7781817053	 0.0042471749	 2.0157207588	 0.110453
H	-2.2580483645	-0.2534330633	-0.143300434	 0.087078
207.6523	254.7854	278.689	378.756	416.2216	444.6048	545.6619	554.9056	616.4993	714.6702	771.9827	816.8398	852.4604	866.3083	892.427	905.9415	928.9053	941.1458	959.4586	971.7361	1017.1235	1053.2216	1071.7212	1076.8413	1116.1431	1152.3953	1170.6059	1191.3298	1216.1219	1221.2206	1240.9234	1269.7531	1283.7351	1288.8873	1326.0947	1345.6734	1359.8514	1381.2479	1473.7561	1478.6144	1497.509	3042.5847	3053.5114	3058.6242	3101.3806	3105.9022	3110.2809	3118.9013	3122.5815	3157.1387	3803.0697
OC12CC3CC(C1)OC23	O[C@@]12C[C@H]3C[C@@H](C1)O[C@@H]23	
InChI=1S/C7H10O2/c8-7-2-4-1-5(3-7)9-6(4)7/h4-6,8H,1-3H2	InChI=1S/C7H10O2/c8-7-2-4-1-5(3-7)9-6(4)7/h4-6,8H,1-3H2/t4-,5+,6-,7+/m1/s1
