16
gdb 71148	2.90126	1.81864	1.38489	4.058	68.06	-0.2621	-0.0081	0.254	937.5379	0.12509	-437.881511	-437.874564	-437.87362	-437.912614	27.704	
C	 0.0764733627	 1.474899058	-0.1164192712	-0.488002
C	-0.0320869421	-0.0167170205	 0.0338398697	 0.366884
C	-1.3302445689	-0.712151611	 0.5110395322	-0.193841
N	-0.5469717055	-1.6632714811	 1.3693445881	-0.147397
C	 0.6384172479	-2.1478663185	 0.5727582703	-0.188545
C	 0.6630510343	-0.8048552964	 1.1820873354	-0.099002
C	 0.6688584766	-1.9729527259	-0.9192576646	 0.4498
O	 0.9471887041	-2.7727847059	-1.7635085509	-0.343432
O	 0.3684747124	-0.6661535776	-1.1927085177	-0.260861
H	 1.1057745238	 1.7617900722	-0.3507624899	 0.140426
H	-0.5697650865	 1.8260448182	-0.9259274997	 0.143335
H	-0.2234970314	 1.9728225266	 0.8098621653	 0.12988
H	-1.9335691481	-0.087632228	 1.1736435918	 0.123932
H	-1.9564774981	-1.1677727503	-0.2618317923	 0.123866
H	 1.1229352839	-3.0128474983	 1.0043437152	 0.130802
H	 1.2972904251	-0.4575024017	 1.9887755383	 0.112154
152.5884	215.4128	265.7377	279.5083	372.9469	466.2812	471.3361	595.3071	640.8021	685.3128	729.1425	788.0769	812.4602	881.1126	888.6398	904.0237	954.8375	977.3196	981.7744	1011.0681	1049.7812	1118.9399	1163.4645	1179.9452	1203.8044	1231.9521	1266.5479	1271.6369	1331.4946	1360.4352	1421.0073	1482.5674	1491.2255	1494.3015	1884.1636	3045.6684	3056.9229	3120.5312	3121.849	3125.5938	3189.2071	3223.3975
CC12CN3C(C13)C(=O)O2	C[C@]12CN3[C@H]([C@@H]13)C(=O)O2	
InChI=1S/C6H7NO2/c1-6-2-7-3(4(6)7)5(8)9-6/h3-4H,2H2,1H3	InChI=1S/C6H7NO2/c1-6-2-7-3(4(6)7)5(8)9-6/h3-4H,2H2,1H3/t3-,4+,6+,7?/m1/s1
