20
gdb 60891	3.46823	1.1509	1.01125	3.7744	81.4	-0.2386	0.031	0.2696	1231.5661	0.17164	-403.125541	-403.117025	-403.116081	-403.159274	32.116	
C	-0.0131148321	 1.4262521941	-0.0673921752	-0.37107
N	-0.0046542666	-0.0283396348	-0.0357222468	-0.192212
C	-0.0086680275	-0.6803222635	 1.1662170614	 0.129683
O	-0.0185591769	-0.1453769008	 2.2554133911	-0.344967
C	 0.0045508493	-0.7276400863	-1.2767195669	 0.435038
C	 1.0861428923	-0.6392153873	-2.4040713538	-0.2629
C	 0.0177028407	-1.6501579775	-2.9058436131	-0.043676
C	 0.0213939312	-2.2684820737	-1.4769452137	-0.268161
C	-1.0741276723	-0.6622740817	-2.4086904317	-0.262823
H	 0.8764446892	 1.8096325306	-0.5794773887	 0.128173
H	-0.9018003898	 1.7992862039	-0.5886112629	 0.128097
H	-0.0205520093	 1.7779647997	 0.9640151322	 0.169465
H	-0.0018394343	-1.7772500026	 1.0373392607	 0.080991
H	 1.1567223443	 0.3068763274	-2.9468678711	 0.095333
H	 2.072886817	-1.0429248967	-2.1623844894	 0.097266
H	 0.0254673615	-2.1922020887	-3.8485738868	 0.085194
H	 0.9311458787	-2.7922380912	-1.1718323572	 0.102002
H	-0.8781568384	-2.8117977176	-1.1758518286	 0.101996
H	-2.053033017	-1.0869321051	-2.1710916578	 0.097257
H	-1.16260543	 0.2821610818	-2.9517499317	 0.095314
46.7065	114.8566	144.4531	182.7732	307.2008	327.2851	398.7342	417.482	440.9254	549.7517	558.1044	787.2309	798.5311	803.7057	883.2604	934.9917	945.5196	960.2711	963.3219	997.2783	1027.8012	1028.7633	1096.5737	1099.0212	1140.8941	1143.4501	1156.2395	1159.581	1166.4515	1166.6323	1229.5313	1233.0445	1250.1348	1347.261	1386.017	1437.5244	1442.7062	1496.6788	1496.9255	1498.2736	1515.0793	1555.7765	1790.0469	2976.7147	3028.6066	3050.5378	3050.7606	3059.3743	3082.1854	3116.6564	3122.0453	3122.9435	3144.8177	3159.6843
CN(C=O)C12CC(C1)C2	CN(C=O)[C@@]12C[C@@H](C1)C2	
InChI=1S/C7H11NO/c1-8(5-9)7-2-6(3-7)4-7/h5-6H,2-4H2,1H3	InChI=1S/C7H11NO/c1-8(5-9)7-2-6(3-7)4-7/h5-6H,2-4H2,1H3/t6-,7-
