19
gdb 73956	2.54379	1.41196	0.94393	1.4315	88.3	-0.2235	-0.0142	0.2092	1243.5004	0.158593	-385.876111	-385.867164	-385.86622	-385.909495	33.869	
C	 0.0247932388	 1.556131	 0.1806162123	-0.502917
C	 0.0233741376	 0.0633746923	 0.031534451	 0.21375
C	 0.0154066375	-0.5666631834	-1.1590410918	 0.04219
C	 0.0558935949	-2.0859997538	-1.2544821975	-0.168189
O	 0.3848746456	-2.7225717131	-0.041018389	-0.241456
C	-0.3509420736	-2.2003938914	 1.0495497689	-0.091175
C	 0.0354649757	-0.7448774866	 1.3064997786	-0.28367
C	-0.0450258317	 0.1061112767	-2.4095279873	 0.21587
C	-0.0970409399	 0.6007531658	-3.5082601174	-0.421005
H	 0.8831779186	 1.8821909661	 0.7824455307	 0.126994
H	 0.0654781035	 2.0624179814	-0.785124751	 0.139696
H	-0.8733169773	 1.8941602613	 0.7138240413	 0.125861
H	-0.9151700347	-2.4491077753	-1.6365624054	 0.103198
H	 0.8189413286	-2.3874641576	-1.9793017954	 0.126666
H	-1.4334270111	-2.2731091242	 0.8519866841	 0.090844
H	-0.1216666958	-2.8334926219	 1.9110420616	 0.108094
H	 1.0338780857	-0.6961256483	 1.7639782935	 0.119826
H	-0.6545807942	-0.2981309399	 2.0348797662	 0.103882
H	-0.144300228	 1.0550527619	-4.4667072835	 0.191539
112.2868	137.4243	147.9179	161.6602	257.9649	317.1333	323.4994	417.3663	425.0607	481.0353	540.315	565.2423	604.7182	625.7317	646.8103	711.3141	860.5586	897.9641	971.7603	999.022	1022.6186	1042.9888	1095.0051	1107.6765	1156.1497	1165.693	1227.5866	1242.4988	1272.4033	1317.5382	1370.1194	1384.5077	1411.3289	1421.2888	1464.0219	1481.0722	1484.1716	1488.4716	1503.1009	1701.3987	2211.5403	2944.9335	2969.168	3006.2882	3017.1281	3040.9646	3060.4768	3071.9147	3089.3358	3135.33	3502.591
CC1=C(COCC1)C#C	CC1=C(COCC1)C#C	
InChI=1S/C8H10O/c1-3-8-6-9-5-4-7(8)2/h1H,4-6H2,2H3	InChI=1S/C8H10O/c1-3-8-6-9-5-4-7(8)2/h1H,4-6H2,2H3
