18
gdb 108798	3.2552	1.13454	0.88268	2.7302	75.9	-0.2396	-0.0071	0.2325	1302.1303	0.147823	-435.295965	-435.28682	-435.285876	-435.330092	33.382	
C	-0.0089317175	 1.5334068534	-0.0846067913	-0.380417
C	 0.0662301987	 0.0060398338	-0.0671991714	-0.042738
N	 0.841494575	-0.5300729636	-1.1996118882	-0.323727
C	 1.7776898099	-1.2449215844	-0.7054066679	 0.349531
C	 2.7821630206	-1.9567114678	-1.5670893838	-0.133884
O	 2.5508407109	-1.7012565478	-2.9231240074	-0.415763
N	 1.7936163568	-1.3229147741	 0.679902003	-0.393256
C	 0.7538425148	-0.5393197917	 1.1901615376	 0.385594
N	 0.4156118874	-0.2950495384	 2.3876424802	-0.548413
H	 0.9946555676	 1.9684811704	-0.071163488	 0.120236
H	-0.5212881582	 1.8756055576	-0.986998561	 0.126914
H	-0.5507555357	 1.8825560978	 0.7976230466	 0.142988
H	-0.9513567762	-0.4010864114	-0.1163925962	 0.121857
H	 3.7953893224	-1.6330125902	-1.2753234237	 0.111313
H	 2.7274994087	-3.0378053527	-1.3552221983	 0.113358
H	 1.7700387187	-1.1252964759	-2.951004926	 0.299
H	 2.4875845053	-1.7953796801	 1.2352578022	 0.258352
H	 1.0188334108	-0.7622863549	 3.0661389335	 0.209056
66.1438	110.9871	148.8445	189.1696	226.6016	249.4755	326.4094	370.8652	385.1923	414.8708	502.969	615.4526	654.6768	689.9113	718.2982	809.9197	854.4379	938.0114	996.2665	1037.2723	1048.2289	1093.1104	1114.2527	1123.6226	1128.0923	1204.5093	1249.2543	1271.3969	1305.6189	1321.0335	1339.2449	1399.7406	1434.6468	1487.6916	1495.1671	1498.0188	1509.921	1706.9475	1765.4591	2966.2936	2979.3083	3034.3341	3048.49	3123.7196	3137.6041	3459.7601	3653.8577	3681.8817
CC1N=C(CO)NC1=N	C[C@H]1N=C(CO)N[C]1[NH]	
InChI=1S/C5H9N3O/c1-3-5(6)8-4(2-9)7-3/h3,9H,2H2,1H3,(H2,6,7,8)	InChI=1S/C5H9N3O/c1-3-5(6)8-4(2-9)7-3/h3,9H,2H2,1H3,(H2,6,7,8)/t3-/m1/s1
