18
gdb 73642	2.3702	1.67597	1.4608	3.7496	71.58	-0.2453	0.0301	0.2753	996.0981	0.148774	-439.116662	-439.108646	-439.107702	-439.149012	30.614	
C	-0.045635439	 1.5309947973	-0.0028494054	-0.484605
C	-0.0043767165	 0.0146476859	 0.0206098933	 0.131496
C	-1.3654308638	-0.6932532655	-0.0551535663	-0.132177
O	-1.1814223701	-1.9710096986	 0.5423451305	-0.248521
C	-0.3112308979	-1.7786039995	 1.6481053832	-0.099813
C	 0.7259583781	-0.7561123277	 1.1812070319	-0.032116
N	 1.6792740054	-1.2340962357	 0.1736386902	-0.330137
C	 1.0459648083	-0.6628417734	-0.9051798868	 0.410039
O	 1.2422748586	-0.7005005518	-2.0894827312	-0.367872
H	 0.9506302073	 1.9594010848	 0.1410786855	 0.129983
H	-0.419032887	 1.8837205265	-0.9698080175	 0.141934
H	-0.7052534988	 1.9236686449	 0.7783711665	 0.119057
H	-2.1221077842	-0.1079807557	 0.4948989853	 0.088574
H	-1.7148140069	-0.8474454068	-1.0790838092	 0.132823
H	-0.8562951233	-1.3743929474	 2.5181265115	 0.093597
H	 0.1091529351	-2.7504251341	 1.9217423204	 0.111897
H	 1.1774981821	-0.1715892889	 1.9863475095	 0.087598
H	 2.3483271326	-1.9908377543	 0.2070422687	 0.248245
105.8664	183.1553	198.1498	232.4129	267.5163	285.5879	377.0325	434.0053	517.481	597.4758	654.1529	720.0238	753.783	788.0749	879.1267	882.106	949.7469	956.2562	1004.4621	1012.5971	1078.2259	1094.5538	1144.4938	1161.5577	1193.6797	1228.3111	1233.1702	1273.857	1282.0336	1350.3943	1355.3565	1370.6432	1401.4343	1415.6384	1491.0093	1493.1523	1497.3356	1509.9926	1894.2186	2958.1153	2966.4201	3033.1683	3083.5695	3089.9556	3100.2134	3102.675	3109.1613	3592.6963
CC12COCC1NC2=O	C[C@]12COC[C@H]1NC2=O	
InChI=1S/C6H9NO2/c1-6-3-9-2-4(6)7-5(6)8/h4H,2-3H2,1H3,(H,7,8)	InChI=1S/C6H9NO2/c1-6-3-9-2-4(6)7-5(6)8/h4H,2-3H2,1H3,(H,7,8)/t4-,6+/m1/s1
