18
gdb 15806	5.56036	1.01933	0.98438	3.6198	70.87	-0.2499	0.0203	0.2702	1252.4873	0.154469	-381.133398	-381.124623	-381.123679	-381.168056	30.875	
C	-0.2540866871	 1.3587122492	 0.1416657033	-0.372451
C	 0.3967043177	 0.0244708535	-0.2295476918	-0.146699
N	 1.1082622662	-0.5889643399	 0.8816923049	-0.330381
C	 0.6496631964	-1.6856888325	 1.5424482097	 0.442089
O	-0.3703306602	-2.2865155689	 1.23299861	-0.403289
C	 1.4970734098	-2.1387888541	 2.6981280334	-0.122914
C	 0.7661412734	-2.5482216545	 3.9340989755	-0.221509
N	 1.3815181978	-3.5541790641	 3.072818889	-0.305504
H	 0.4916195064	 2.0870612107	 0.4789749355	 0.111703
H	-0.7690540571	 1.7850048759	-0.7249793832	 0.122436
H	-0.9847316101	 1.2222967396	 0.9439872265	 0.134211
H	-0.3594998493	-0.6997234568	-0.5388810543	 0.152962
H	 1.0923552853	 0.1609103155	-1.0662525152	 0.108227
H	 1.9410342134	-0.1382395117	 1.2257635814	 0.245494
H	 2.4960706495	-1.7175269129	 2.7825756272	 0.085184
H	 1.2416998087	-2.4064011286	 4.9003270846	 0.119789
H	-0.3147424222	-2.4446273848	 3.9158283308	 0.132386
H	 0.6521135413	-3.9460300457	 2.4750418727	 0.248265
29.6518	65.0288	111.4713	183.9665	252.5581	281.5385	335.8327	364.097	467.6514	476.6434	678.3296	765.5139	782.4939	841.304	874.2637	903.7359	935.2962	986.492	1023.8024	1069.9664	1113.427	1123.9705	1135.3085	1169.4907	1188.1473	1240.2983	1293.5155	1318.9169	1328.5465	1388.5206	1409.4707	1415.0264	1483.5657	1492.846	1493.9969	1502.0923	1554.6817	1758.3471	3034.7077	3035.1295	3098.1317	3113.8676	3117.8897	3129.358	3133.4589	3208.1526	3459.3681	3634.2557
CCNC(=O)C1CN1	CCNC(=O)[C@H]1CN1	
InChI=1S/C5H10N2O/c1-2-6-5(8)4-3-7-4/h4,7H,2-3H2,1H3,(H,6,8)	InChI=1S/C5H10N2O/c1-2-6-5(8)4-3-7-4/h4,7H,2-3H2,1H3,(H,6,8)/t4-/m1/s1
