19
gdb 77825	2.39367	1.59781	1.36103	4.8456	75.55	-0.2452	0.0382	0.2834	1055.4214	0.159704	-419.238344	-419.229584	-419.22864	-419.271417	33.053	
C	-0.0472049023	 1.5337573221	-0.0489997773	-0.425965
C	 0.0157407333	 0.0313135079	 0.0966126857	-0.038759
N	 1.2545516235	-0.7589459986	-0.1672902211	-0.199775
C	 2.4507009488	 0.0444886519	-0.1704377453	 0.40226
O	 3.1060390372	 0.3082420374	-1.1460445485	-0.371704
N	 2.7176604659	 0.4265592288	 1.1231608766	-0.307912
C	 1.6908029349	 0.0761206299	 2.0798989562	-0.25192
C	 0.6955712241	-0.6984339394	 1.2025298946	 0.308881
C	 0.111499714	-1.9642777416	 1.7787063791	-0.480097
H	 0.7879298372	 2.0466552568	 0.431808631	 0.131756
H	-0.046916416	 1.8130264749	-1.1072821092	 0.145669
H	-0.9766265962	 1.9044670936	 0.3957044989	 0.123182
H	-0.8526261616	-0.4726712956	-0.3250268753	 0.098433
H	 3.5004363815	 1.0270665792	 1.3225538672	 0.255162
H	 2.0761647296	-0.574573535	 2.8749957446	 0.114885
H	 1.2436712146	 0.9582991343	 2.5585752771	 0.112526
H	-0.5113656951	-1.741756211	 2.6527447361	 0.120851
H	-0.5075775634	-2.4763818786	 1.0381548825	 0.134647
H	 0.9039341701	-2.6520153971	 2.0929112171	 0.12788
102.9315	157.9548	180.5624	193.4318	220.8605	243.3575	320.0616	418.7383	434.4371	514.7942	545.2848	583.0823	680.1359	707.7688	798.7625	820.6238	838.5161	935.7621	961.6182	997.958	1027.8769	1072.6093	1091.2174	1128.9609	1140.9369	1156.1835	1190.2402	1218.037	1302.9646	1332.652	1349.6014	1416.2501	1417.6228	1437.8903	1454.8596	1486.3162	1490.9389	1494.6021	1501.8613	1536.4655	1856.8479	3002.3635	3031.0755	3034.522	3043.9739	3094.2803	3104.6441	3112.6098	3123.4368	3136.7362	3656.9408
CC1N2C(=O)NCC12C	C[C@H]1N2C(=O)NC[C@@]12C	
InChI=1S/C6H10N2O/c1-4-6(2)3-7-5(9)8(4)6/h4H,3H2,1-2H3,(H,7,9)	InChI=1S/C6H10N2O/c1-4-6(2)3-7-5(9)8(4)6/h4H,3H2,1-2H3,(H,7,9)/t4-,6+,8?/m1/s1
