21
gdb 120988	3.79187	0.92993	0.86925	0.7569	79.05	-0.2413	0.0721	0.3133	1428.4431	0.182368	-424.175507	-424.166538	-424.165594	-424.210161	32.7	
C	-0.1565587921	 1.3409572885	-0.2641831268	-0.223051
O	-0.0908246957	-0.0613906959	-0.1810382032	-0.236774
C	 0.7660221792	-0.6284053528	-1.1526605448	-0.068214
C	 0.7123855394	-2.1346241228	-1.0055499682	-0.012376
C	-0.6307719064	-2.8646777416	-1.3304053648	-0.247957
C	 0.1149436832	-3.8077532422	-2.3176631018	-0.07746
C	 0.1995056839	-3.2711146103	-3.753302819	-0.074677
O	 1.3269801863	-2.4240108321	-3.4205220977	-0.293808
C	 1.4162611894	-2.9852313827	-2.0907615623	 0.091835
H	 0.8267506339	 1.8087142422	-0.0945506836	 0.101773
H	-0.5267584846	 1.6764724706	-1.2463094288	 0.102207
H	-0.8476554155	 1.6846614143	 0.5097439024	 0.123736
H	 0.4527965142	-0.3370204598	-2.167009359	 0.097083
H	 1.7996326445	-0.2638553796	-1.0167397319	 0.083079
H	 1.0745454507	-2.4142538059	-0.0105834812	 0.07839
H	-1.0822483808	-3.3673418381	-0.4734711294	 0.106244
H	-1.3937901575	-2.234736886	-1.79692699	 0.102634
H	 0.0266439755	-4.8830161052	-2.1708796515	 0.076307
H	 0.478989211	-4.0173359447	-4.5087102395	 0.099624
H	-0.661958696	-2.6972496135	-4.1175509179	 0.100186
H	 2.4117665871	-3.3889836323	-1.8842828608	 0.07122
60.2823	87.6533	98.4632	135.3	228.4299	265.1207	337.0383	360.9534	431.945	524.7035	690.288	769.0771	813.3072	847.9372	888.8345	912.2678	925.3144	972.7708	990.2265	1004.9315	1024.8276	1070.0584	1102.6831	1134.6617	1149.48	1156.6636	1175.1314	1185.4971	1196.9133	1216.9345	1227.5662	1255.4798	1263.383	1277.8498	1300.2262	1316.507	1355.3554	1361.2589	1421.7943	1480.007	1481.6528	1484.5455	1504.9379	1522.1616	1528.9418	2948.8214	2967.6646	3001.7318	3004.6516	3008.7736	3050.0486	3051.053	3061.1012	3066.6571	3109.7011	3113.9961	3126.56
COCC1CC2COC12	COC[C@H]1C[C@H]2CO[C@@H]12	
InChI=1S/C7H12O2/c1-8-3-5-2-6-4-9-7(5)6/h5-7H,2-4H2,1H3	InChI=1S/C7H12O2/c1-8-3-5-2-6-4-9-7(5)6/h5-7H,2-4H2,1H3/t5-,6+,7+/m1/s1
