15
gdb 26893	3.17801	1.41864	0.98641	7.1939	73.41	-0.2097	-0.0307	0.179	1119.0969	0.115465	-450.19201	-450.184065	-450.183121	-450.224261	30.459	
N	 0.0326745944	 1.3955450435	 0.0725850095	-0.572536
C	-0.0076913697	 0.0360439128	 0.0191050205	 0.454772
C	-1.2037264059	-0.6707784608	 0.0244325679	 0.094526
N	-2.4272002338	 0.0755037063	 0.0150043819	-0.623127
C	-1.0857600325	-2.0724538539	 0.0038611957	-0.013338
N	 0.0240776782	-2.7763362646	-0.0210935187	-0.351178
C	 1.2242552417	-2.106334517	-0.0104606195	 0.433171
O	 2.3277643469	-2.6080594038	-0.0134882278	-0.393135
N	 1.1421688063	-0.6750903728	 0.005234811	-0.41923
H	 0.8363441976	 1.8725346137	-0.3042895582	 0.261289
H	-0.8685600148	 1.8191341299	-0.1077634852	 0.27558
H	-2.9104095305	 0.0286961536	 0.907266641	 0.246846
H	-3.06980599	-0.2685514864	-0.6906029184	 0.245941
H	-2.0139371006	-2.6500435752	-0.0051931879	 0.103351
H	 2.0400011428	-0.2120023753	 0.0404665781	 0.257069
107.3377	169.5515	227.8515	293.9048	305.4205	363.0599	385.5423	448.2415	475.1059	557.4387	590.4158	625.3399	640.9087	743.1921	779.7473	804.4895	808.7532	849.2448	929.1065	1002.9805	1090.7876	1104.1673	1207.2993	1271.9407	1316.8874	1336.9323	1415.3039	1498.5245	1573.2163	1636.4784	1649.2437	1685.3179	1810.1144	3093.7899	3491.709	3550.7619	3562.7608	3599.2738	3680.9581
NC1=C(N)C=NC(=O)N1	Nc1c(N)cnc(=O)[nH]1	
InChI=1S/C4H6N4O/c5-2-1-7-4(9)8-3(2)6/h1H,5H2,(H3,6,7,8,9)	InChI=1S/C4H6N4O/c5-2-1-7-4(9)8-3(2)6/h1H,5H2,(H3,6,7,8,9)
