20
gdb 64191	2.24979	1.47296	1.36705	3.0015	75.23	-0.2295	-0.0199	0.2095	1091.9908	0.168007	-440.276995	-440.267136	-440.266191	-440.311075	36.935	
C	-0.1704234569	 1.5412153148	-0.0548863238	-0.457007
C	 0.0052007715	 0.0308574021	-0.0345678801	 0.356044
O	-1.2307295475	-0.6359347656	-0.2083181889	-0.475422
C	 1.2080160831	-0.4784018897	-0.8785777697	-0.223099
N	 2.0108296224	-0.5897117312	 0.3686469375	-0.34916
C	 0.7864271703	-0.5563078508	 1.1947389032	 0.174016
C	 0.8801217093	 0.2493916671	 2.4899981892	-0.463035
C	 0.2703807728	-1.9540151638	 1.532415336	 0.144956
O	 0.8792198968	-2.9623376354	 1.2759064975	-0.270153
H	 0.7842563058	 2.0522942905	 0.0936670296	 0.140525
H	-0.5626792005	 1.8538990053	-1.0311942652	 0.109066
H	-0.8743625238	 1.8675793048	 0.7161934237	 0.125969
H	-1.6659544251	-0.2792445428	-0.9901001399	 0.28101
H	 0.9724924554	-1.4377350694	-1.353501587	 0.109475
H	 1.6265748971	 0.209446055	-1.6213803094	 0.094142
H	 2.486094054	-1.4853172867	 0.4567446265	 0.22762
H	 1.2447141216	 1.2581837361	 2.2881600138	 0.13151
H	-0.0935067447	 0.3185714658	 2.9874752233	 0.122096
H	 1.5817261571	-0.2266086268	 3.183608031	 0.129518
H	-0.6947593086	-1.9843131495	 2.0784917928	 0.091929
89.0792	104.6473	185.3111	229.7977	244.8363	262.1149	279.8651	289.6565	316.4199	354.5445	364.8339	445.6148	488.2004	608.8409	616.8755	747.2448	795.5614	889.4042	900.7742	912.8474	967.2078	977.0943	990.1415	1027.045	1092.0641	1108.1446	1182.9807	1194.0605	1203.6621	1224.4955	1259.594	1299.9236	1366.8975	1389.213	1402.82	1405.4875	1413.5033	1479.8754	1487.0773	1493.0807	1502.2513	1508.92	1817.6692	2920.2527	3022.5417	3025.6295	3035.3621	3075.2921	3093.4873	3099.7574	3125.2975	3132.0194	3491.3222	3805.7488
CC1(O)CNC1(C)C=O	C[C@@]1(O)CN[C@]1(C)C=O	
InChI=1S/C6H11NO2/c1-5(4-8)6(2,9)3-7-5/h4,7,9H,3H2,1-2H3	InChI=1S/C6H11NO2/c1-5(4-8)6(2,9)3-7-5/h4,7,9H,3H2,1-2H3/t5-,6-/m1/s1
