22
gdb 119035	2.48749	0.99375	0.81124	1.1448	78.83	-0.2478	0.0657	0.3135	1495.0199	0.19286	-441.452138	-441.441516	-441.440572	-441.488031	38.587	
C	 2.4679967312	 0.4181928944	-0.6132109423	-0.405304
C	 1.4959557817	-0.6643872665	-0.2085976883	-0.042141
N	 1.9251546839	-1.6085489257	 0.8409120343	-0.384945
C	 0.7485936059	-0.7365714254	 1.0822254445	 0.290796
C	 1.0090699297	 0.2553217777	 2.210903192	-0.128693
O	 1.3949874056	-0.4196830858	 3.3974922335	-0.419479
C	-0.6291286913	-1.3768937438	 1.0712519907	-0.268555
C	-0.9610159785	-2.1754330142	 2.3316933083	-0.080171
O	-2.2446745425	-2.7511753995	 2.1285440781	-0.421551
H	 3.0669787842	 0.7611218526	 0.2324973628	 0.130116
H	 3.1595048101	 0.0352052271	-1.3714090159	 0.121969
H	 1.9422238908	 1.2778923843	-1.042734574	 0.119153
H	 0.9626383353	-1.1035118892	-1.0520628952	 0.08345
H	 1.6239457592	-2.5542675463	 0.6190817898	 0.230814
H	 1.7695583377	 0.990328714	 1.9163393844	 0.091705
H	 0.0940557283	 0.808609218	 2.4470573781	 0.106267
H	 2.0984957476	-1.0213653076	 3.1187773649	 0.289396
H	-1.3967515107	-0.6040363492	 0.9399153313	 0.109906
H	-0.7171811984	-2.0506062943	 0.2097058925	 0.097973
H	-0.1963055797	-2.9527426279	 2.4928456569	 0.080016
H	-0.9413286148	-1.524620188	 3.214976511	 0.11308
H	-2.5042987955	-3.1944117648	 2.9412134828	 0.286198
75.0682	87.0983	109.2422	131.8193	156.5226	233.5762	264.5509	268.942	300.5331	322.6907	370.2389	465.3477	496.257	526.5722	566.945	739.9952	800.0438	846.5497	877.1162	957.283	971.3726	993.2018	1021.9767	1055.2815	1064.8964	1069.9034	1097.6743	1112.0123	1132.5614	1203.9355	1219.8073	1238.2244	1252.4296	1300.6916	1310.0461	1352.9532	1361.9903	1384.6374	1407.8488	1438.3068	1461.093	1462.4809	1484.2615	1490.4669	1496.9873	1513.127	1522.4745	2969.6125	3015.2939	3022.778	3037.1258	3037.293	3066.9952	3074.9208	3095.6664	3100.6059	3133.4519	3494.7137	3757.3484	3832.7374
CC1NC1(CO)CCO	C[C@H]1N[C@]1(CO)CCO	
InChI=1S/C6H13NO2/c1-5-6(4-9,7-5)2-3-8/h5,7-9H,2-4H2,1H3	InChI=1S/C6H13NO2/c1-5-6(4-9,7-5)2-3-8/h5,7-9H,2-4H2,1H3/t5-,6+/m1/s1
