15
gdb 44006	3.64791	1.48252	1.41152	2.4269	63.8	-0.2526	-0.0046	0.2479	931.4439	0.113015	-457.737264	-457.730604	-457.72966	-457.768283	26.606	
O	 0.0428547201	 0.0957967108	-0.4483901304	-0.29891
C	-0.0186628377	 1.2077970823	-0.0350984232	 0.407981
C	-1.2877725599	 2.0856219902	 0.1882365378	-0.446205
C	-0.7503007064	 3.3320788517	 0.8174978091	 0.330022
C	 0.0047984195	 3.3401835372	 2.116328689	-0.376222
C	 0.7503902882	 3.1781119993	 0.8166766294	 0.25349
C	 0.7491060162	 4.4438658954	-0.0368637449	-0.143106
O	-0.6939915658	 4.5954042117	 0.1350106116	-0.317598
O	 1.1172282697	 1.9131543404	 0.359714058	-0.252957
H	-1.741855792	 2.2952849882	-0.7839427669	 0.163671
H	-2.0073609019	 1.5142768499	 0.7790150141	 0.153407
H	 0.0828758148	 4.2713103417	 2.6674168061	 0.136921
H	-0.0593609503	 2.4421032039	 2.7209582124	 0.141064
H	 1.3060894767	 5.3125121046	 0.328796107	 0.121048
H	 1.0041696589	 4.2430662126	-1.0826620988	 0.127396
104.6647	232.8528	346.0946	366.2892	419.1631	455.1411	554.8327	601.1148	610.0697	667.6533	766.2658	792.1058	828.2415	867.096	920.1421	941.0518	945.4628	987.6359	1026.582	1059.1002	1089.6582	1113.6132	1146.819	1200.786	1224.8212	1290.083	1294.9996	1350.9005	1368.9316	1449.6353	1462.5538	1512.6375	1908.1812	3038.6878	3077.6853	3095.5237	3124.0823	3134.868	3231.7057
O=C1CC23CC2(CO3)O1	O=C1C[C@@]23C[C@@]2(CO3)O1	
InChI=1S/C6H6O3/c7-4-1-5-2-6(5,9-4)3-8-5/h1-3H2	InChI=1S/C6H6O3/c7-4-1-5-2-6(5,9-4)3-8-5/h1-3H2/t5-,6+/m1/s1
