15
gdb 25478	4.40862	1.1471	0.91026	4.6937	79.04	-0.2312	-0.035	0.1962	1202.0775	0.116336	-413.039335	-413.031999	-413.031055	-413.071627	27.291	
N	-1.9850235993	-2.8723829566	-0.7808489278	-0.445899
C	-1.0508165397	-2.031163563	-0.579907742	 0.091141
N	-1.2565024677	-0.6926261931	-0.3353524935	-0.391135
C	-2.4513110809	 0.0224149737	-0.2493584379	 0.289537
C	-2.3937864575	 1.3955115327	 0.0191626893	-0.045374
N	-3.4727936032	 2.1606723889	 0.1192664471	-0.244008
C	-4.6447511871	 1.543045112	-0.0526025996	 0.062997
N	-4.8265234687	 0.2505761746	-0.3108435156	-0.241104
C	-3.7379206616	-0.5151001913	-0.4106449723	-0.042566
H	-1.5970720727	-3.7987825476	-0.9395408759	 0.230939
H	 0.0208154848	-2.2640569133	-0.5770705487	 0.098163
H	-0.4207827152	-0.1473758653	-0.193348789	 0.254558
H	-1.4282923548	 1.8852112576	 0.1571189233	 0.100449
H	-5.5364138847	 2.1589945724	 0.0268794755	 0.117167
H	-3.8682340217	-1.5684293517	-0.6201514629	 0.165136
64.3376	163.366	204.8636	278.0941	339.5823	429.8581	507.2198	522.3173	525.543	633.9792	751.1389	773.7903	804.318	850.1898	926.721	980.2162	1007.3549	1045.0739	1045.6034	1093.3863	1154.1381	1219.0888	1230.2114	1250.631	1318.2543	1371.6898	1425.0424	1449.6205	1473.4318	1559.5733	1602.3211	1620.338	1729.5352	3047.3359	3111.4285	3173.1765	3232.4015	3522.6839	3627.6138
N=CNC1=CN=CN=C1	N=CNc1cncnc1	
InChI=1S/C5H6N4/c6-3-9-5-1-7-4-8-2-5/h1-4H,(H2,6,9)	InChI=1S/C5H6N4/c6-3-9-5-1-7-4-8-2-5/h1-4H,(H2,6,9)
