13
gdb 42247	2.15848	1.60098	1.13481	6.5369	70.09	-0.2924	-0.0703	0.2221	1057.8975	0.089015	-411.768405	-411.760195	-411.759251	-411.801973	28.698	
N	 0.1162274111	 1.1086378513	 0.5028158641	-0.463404
C	 0.174341476	-0.0779945532	 0.0552897994	 0.221182
C	-1.0169612498	-0.9056813974	 0.0867751557	 0.336397
N	-1.9484661524	-1.5886838033	 0.0952253468	-0.307459
N	 1.2492181211	-0.6979951188	-0.603898555	-0.093577
C	 2.6205140464	-0.5503705891	-0.1795026309	-0.254862
C	 1.9361191103	-1.8938725517	-0.1168603789	-0.159559
C	 1.6255348997	-2.4418753516	 1.1826093056	 0.305798
N	 1.3846820576	-2.893894797	 2.218703194	-0.304826
H	 1.015655244	 1.5854916986	 0.4099212632	 0.239297
H	 3.3461861222	-0.366120715	-0.9653751847	 0.157644
H	 2.8115167502	-0.0564557881	 0.7707937566	 0.159411
H	 2.1469442435	-2.6370457847	-0.8800026159	 0.163956
59.6711	90.7501	149.2497	220.0106	255.2203	289.5898	343.3016	479.597	548.066	566.9546	608.5405	707.1577	744.3759	810.4422	903.0896	915.0776	957.4131	1038.4871	1066.7059	1120.0835	1134.7864	1158.8497	1273.3634	1367.041	1386.4523	1501.5942	1693.5916	2362.564	2366.2776	3112.8337	3163.5435	3211.2652	3467.0832
N=C(C#N)N1CC1C#N	[NH][C](C#N)N1C[C@H]1C#N	
InChI=1S/C5H4N4/c6-1-4-3-9(4)5(8)2-7/h4,8H,3H2	InChI=1S/C5H4N4/c6-1-4-3-9(4)5(8)2-7/h4,8H,3H2/t4-,9?/m1/s1
