19
gdb 115495	3.97897	0.86363	0.75165	4.0968	74.79	-0.2306	0.016	0.2466	1499.4751	0.158275	-460.152164	-460.142673	-460.141729	-460.18726	33.884	
O	 0.0337431172	 1.3742813021	-0.2775055302	-0.42375
C	 0.0630685616	-0.0207306535	-0.0579671494	-0.052604
C	-1.34132062	-0.5572458856	 0.2393756457	 0.060518
O	-2.2009739611	-0.1746183829	-0.8510244133	-0.294804
C	-2.7631266453	-1.3300028003	-1.4652630685	-0.160565
C	-2.237720312	-2.498511423	-0.6704018009	 0.284706
C	-2.6058541763	-3.9085041912	-0.9893333423	-0.179554
O	-1.9577385972	-4.7809374175	-0.0839871282	-0.411121
C	-1.4470771144	-2.0522462037	 0.300631471	-0.210478
H	-0.6698480857	 1.5185315573	-0.9223246789	 0.289579
H	 0.4726581498	-0.5629416291	-0.9259041008	 0.081263
H	 0.7247865234	-0.201116997	 0.7965713181	 0.103052
H	-1.7099088036	-0.0656332294	 1.1533156727	 0.089315
H	-3.8628802743	-1.2647498762	-1.4387556705	 0.105004
H	-2.4703080999	-1.3783631491	-2.5267020116	 0.103445
H	-3.7042059729	-4.0164157789	-0.9394521908	 0.100909
H	-2.3247035875	-4.1284796459	-2.034990502	 0.100576
H	-2.2176159308	-5.6816582604	-0.2966026796	 0.292694
H	-0.9349490411	-2.6634954558	 1.0304241996	 0.121816
67.0637	78.7758	117.8243	129.575	192.8626	232.1074	266.445	372.4324	421.5452	449.1646	471.3305	505.5505	671.2697	759.2163	832.9561	845.5729	925.6226	989.9803	995.5671	1018.6657	1067.7379	1074.8279	1081.9165	1090.4159	1109.8323	1193.1323	1195.706	1217.4015	1223.5911	1254.7901	1277.7218	1317.1892	1346.8767	1387.5743	1391.4752	1434.1635	1470.5788	1498.9963	1507.6831	1524.6096	1735.0576	2939.2701	2951.7036	2965.9569	2970.6503	2982.3843	2987.6972	3069.6168	3239.2351	3784.213	3839.1188
OCC1OCC(CO)=C1	OC[C@H]1OCC(=C1)CO	
InChI=1S/C6H10O3/c7-2-5-1-6(3-8)9-4-5/h1,6-8H,2-4H2	InChI=1S/C6H10O3/c7-2-5-1-6(3-8)9-4-5/h1,6-8H,2-4H2/t6-/m0/s1
