16
gdb 20967	4.71438	1.60883	1.22709	5.9136	67.9	-0.2059	0.0188	0.2247	958.9268	0.131681	-376.085535	-376.077654	-376.07671	-376.11811	28.092	
C	-0.0025729943	 1.3792023358	 0.1991649095	-0.348039
N	 0.0116701823	-0.0013734573	-0.2552258002	-0.164557
C	 1.2654226759	-0.7193454133	-0.0884367556	-0.336122
C	-1.1309128502	-0.7514235304	-0.0688431178	 0.455551
C	-1.3513515618	-2.1175522512	 0.0050364788	-0.174861
N	-2.6893151498	-2.3379489749	 0.137215989	-0.183698
N	-3.3234600004	-1.2104841204	 0.1627412498	-0.130647
N	-2.3803389188	-0.2299389849	 0.0398675975	-0.286894
H	 0.9324825599	 1.8588637091	-0.0986079922	 0.137678
H	-0.8140358716	 1.9340931858	-0.2831994747	 0.127218
H	-0.111641064	 1.4781534111	 1.2913156663	 0.124106
H	 1.4544421558	-1.021150753	 0.953951595	 0.12134
H	 1.2595792234	-1.6172205668	-0.7116236215	 0.145503
H	 2.0878179434	-0.0823664212	-0.4225482828	 0.129581
H	-0.6439093617	-2.9280284139	-0.026980362	 0.11179
H	-2.6726804481	 0.7320189554	 0.0394586108	 0.272052
55.2353	158.9677	174.9917	186.8203	253.5651	352.4698	386.8373	479.8477	490.2441	619.9928	700.6439	721.7131	779.3119	948.6665	995.6252	1023.1198	1061.6003	1080.7156	1128.5313	1143.7037	1169.2828	1219.5111	1253.4794	1306.0181	1362.4248	1407.5043	1447.8948	1450.2341	1480.3472	1489.4262	1495.9189	1500.7717	1516.6099	1639.2864	2974.9424	2983.5308	3066.5679	3084.8128	3119.1768	3126.7604	3282.8361	3681.3895
CN(C)C1=CN=NN1	CN(C)c1cnn[nH]1	
InChI=1S/C4H8N4/c1-8(2)4-3-5-7-6-4/h3H,1-2H3,(H,5,6,7)	InChI=1S/C4H8N4/c1-8(2)4-3-5-7-6-4/h3H,1-2H3,(H,5,6,7)
