19
gdb 66185	3.33095	1.19396	1.16866	1.5036	75.18	-0.2443	0.0174	0.2617	1141.7465	0.160528	-419.189805	-419.181398	-419.180454	-419.223547	31.488	
C	 0.1301033916	 1.4387421003	 0.3268277694	-0.454113
C	-0.0077342823	-0.0741496839	 0.1244619196	 0.251538
C	 0.694058413	-0.5533652258	-1.1896774176	-0.150921
O	 1.8028842637	-1.3653050025	-0.7363095009	-0.219233
C	 1.6887270163	-1.4020922922	 0.6109925626	 0.112204
N	 0.7635818202	-0.7624350875	 1.1928484949	-0.285952
C	-1.4428855315	-0.5895503982	 0.1713006684	 0.003808
C	-2.5506106385	 0.096543025	 0.8714163177	-0.245452
N	-2.530963109	 0.0311691641	-0.6045949015	-0.335136
H	 1.1759768981	 1.7327525628	 0.2027425894	 0.126842
H	-0.4613583062	 2.0081604694	-0.399345679	 0.11027
H	-0.1773892845	 1.7218931419	 1.3355316978	 0.140189
H	 0.0478802295	-1.175013082	-1.8155610249	 0.129487
H	 1.0961989464	 0.266375647	-1.7908516211	 0.117253
H	 2.442957517	-2.0053407478	 1.1049084475	 0.142522
H	-1.4765441659	-1.6774233345	 0.1371179369	 0.094754
H	-3.331845689	-0.4910841119	 1.3445666949	 0.121404
H	-2.3547116505	 1.0510641939	 1.3492964324	 0.114209
H	-2.2306369882	 0.9305348018	-0.9739322166	 0.226328
50.637	64.8112	209.1423	231.0892	273.1307	326.9724	361.5771	384.3821	479.6666	568.7753	641.6854	782.9778	833.6292	854.8041	872.9379	922.0022	950.5484	957.4238	963.6329	969.7668	975.348	1008.9908	1105.8647	1115.2195	1135.6756	1164.7139	1176.3674	1190.0508	1210.7781	1261.4157	1285.2005	1312.9251	1321.4764	1375.3639	1400.7848	1422.3881	1486.9661	1495.5339	1517.4354	1519.5023	1700.977	3036.0696	3055.4631	3103.206	3105.7564	3116.3236	3122.0373	3132.5523	3205.5392	3212.5659	3491.5645
CC1(COC=N1)C1CN1	C[C@]1(COC=N1)[C@H]1CN1	
InChI=1S/C6H10N2O/c1-6(5-2-7-5)3-9-4-8-6/h4-5,7H,2-3H2,1H3	InChI=1S/C6H10N2O/c1-6(5-2-7-5)3-9-4-8-6/h4-5,7H,2-3H2,1H3/t5-,6+/m1/s1
