15
gdb 32168	4.03398	1.17515	0.91519	3.9671	70.48	-0.2553	-0.0418	0.2136	1198.3852	0.114577	-450.194554	-450.186299	-450.185355	-450.228002	29.537	
N	 0.1331703537	 1.2886398444	 0.4289980206	-0.553431
C	 0.013237461	-0.0155454449	 0.1189196995	 0.453592
N	-1.2191808684	-0.5507391057	 0.1412459341	-0.338079
C	-1.2639784207	-1.8402272326	-0.1695887161	 0.33293
C	-2.6114275675	-2.5264267153	-0.1693628424	-0.116156
O	-2.5324457087	-3.8810507641	-0.5142024815	-0.427078
N	-0.2117139014	-2.6033952249	-0.4885351208	-0.328482
C	 0.9583585145	-1.958020691	-0.4773226617	 0.074273
N	 1.1483648392	-0.6825960755	-0.1880208277	-0.309501
H	 1.0388177335	 1.7215445826	 0.4002019292	 0.275149
H	-0.6892789546	 1.823981442	 0.642520696	 0.274594
H	-3.0522541356	-2.397342436	 0.8315915224	 0.119668
H	-3.2662340689	-1.9782365848	-0.8646812399	 0.119609
H	-1.59149629	-4.054283017	-0.6736659111	 0.293088
H	 1.8422809839	-2.5399725972	-0.7316707206	 0.129826
54.3724	126.5135	174.2262	185.9104	217.1845	367.4813	385.339	445.9501	476.0724	585.4521	595.0348	649.3384	669.3989	819.0066	840.4888	964.0359	1009.2906	1012.1639	1045.9333	1058.2569	1134.9479	1244.6785	1245.5278	1297.8754	1318.4937	1371.1729	1431.4583	1475.6488	1500.7267	1506.2967	1577.1689	1623.8643	1652.827	2985.9682	3001.9338	3156.8133	3629.6524	3687.4086	3769.5334
NC1=NC(CO)=NC=N1	Nc1nc(CO)ncn1	
InChI=1S/C4H6N4O/c5-4-7-2-6-3(1-9)8-4/h2,9H,1H2,(H2,5,6,7,8)	InChI=1S/C4H6N4O/c5-4-7-2-6-3(1-9)8-4/h2,9H,1H2,(H2,5,6,7,8)
