13
gdb 23989	5.00398	0.99892	0.83269	0.9283	92.62	-0.2141	-0.0443	0.1697	1285.9276	0.087698	-382.257674	-382.249856	-382.248912	-382.289992	29.564	
C	 0.2128969699	-1.1301476242	-0.006029426	-0.384642
C	 0.0721320431	 0.0661345156	 0.0024294693	 0.195362
C	-0.1122612154	 1.4584502143	 0.0125512357	 0.227465
C	-1.241860945	 2.2381433178	 0.0331590454	-0.261121
C	-0.8026044253	 3.5852295233	 0.0339606939	-0.261122
C	 0.5694874994	 3.5491986641	 0.0138025046	 0.227466
O	 0.9993975801	 2.2524937785	 0.0006236023	-0.201088
C	 1.5391871682	 4.5651966068	 0.0051199628	 0.195359
C	 2.3580877401	 5.4485577094	-0.0020779589	-0.384641
H	 0.338913975	-2.1845815709	-0.0135231722	 0.196923
H	-2.2566269271	 1.8744137329	 0.0459856658	 0.126557
H	-1.4079079677	 4.4772147245	 0.0475351435	 0.126558
H	 3.0814885647	 6.226001028	-0.0084503763	 0.196923
115.5633	121.262	195.4742	196.7822	425.601	457.5805	473.5846	533.9896	549.4948	551.4274	576.4616	650.0477	671.2297	690.2948	690.7121	697.4113	812.3222	860.5881	985.4569	987.3193	1045.5991	1221.0111	1226.8935	1250.625	1381.4602	1522.2893	1597.8722	2229.4276	2232.2532	3262.8628	3276.1978	3502.5002	3503.1752
C#CC1=CC=C(O1)C#C	C#Cc1ccc(o1)C#C	
InChI=1S/C8H4O/c1-3-7-5-6-8(4-2)9-7/h1-2,5-6H	InChI=1S/C8H4O/c1-3-7-5-6-8(4-2)9-7/h1-2,5-6H
