25
gdb 117934	3.26757	0.68665	0.64835	2.415	90.16	-0.2359	-0.0057	0.2302	1927.7972	0.225743	-389.529915	-389.518003	-389.517059	-389.569422	41.684	
C	-0.0030208802	 1.5545244961	-0.1736501342	-0.378988
C	 0.0264299847	 0.0359523139	 0.0255793124	-0.182562
C	-1.3778295576	-0.5780108237	 0.0491010749	-0.153199
C	-1.4109487712	-2.1146968751	 0.153586693	-0.083432
C	-0.7916076165	-2.645165719	 1.4623926025	-0.391356
C	-2.8589893422	-2.6118859055	 0.0854018703	 0.388036
O	-3.7303773228	-2.1021746353	 0.7545652387	-0.324138
C	-3.1383049799	-3.7851841925	-0.8425643835	-0.288151
C	-4.5695218935	-4.3084713247	-0.7658915792	-0.376952
H	 1.0071751062	 1.9754696451	-0.186805584	 0.110464
H	-0.4880599297	 1.8205774953	-1.1194447656	 0.113854
H	-0.5596227607	 2.0471697009	 0.6311107389	 0.117412
H	 0.6153665686	-0.4269584725	-0.7781139924	 0.090918
H	 0.55222197	-0.193447035	 0.9597419218	 0.100013
H	-1.9596700914	-0.1638061831	 0.8804357185	 0.116837
H	-1.9075685975	-0.2783101169	-0.8653802871	 0.089922
H	-0.8561236621	-2.5449453687	-0.6907165802	 0.069144
H	-0.8652487348	-3.7362418454	 1.5248080331	 0.113572
H	 0.2670013214	-2.3832923675	 1.5343351837	 0.12111
H	-1.3155695821	-2.2229075183	 2.3252294923	 0.135689
H	-2.8881996824	-3.4562184965	-1.8620997001	 0.122503
H	-2.4064599852	-4.5743925654	-0.6192198023	 0.119393
H	-4.7199123933	-5.1355649399	-1.4653952396	 0.108115
H	-4.8021136266	-4.6615388003	 0.2423281128	 0.128886
H	-5.2848372211	-3.5171429262	-1.0030688947	 0.132907
9.1086	64.3131	80.7413	95.912	131.778	189.1353	211.9087	236.9156	250.3939	259.025	302.622	328.4813	333.1265	505.8336	564.6961	650.3028	742.5101	792.1742	808.4571	850.3083	875.0505	928.8277	986.7789	999.5601	1027.9887	1032.505	1056.1464	1069.1213	1121.8761	1127.4199	1139.6113	1197.9629	1265.4679	1277.5793	1297.936	1326.771	1346.0913	1360.3746	1377.9154	1396.1474	1403.3875	1413.1443	1413.5417	1448.3533	1481.6175	1492.7112	1493.6828	1497.1409	1498.5228	1500.7592	1502.7515	1511.1519	1802.5743	3008.2857	3012.555	3017.1899	3019.4266	3029.9278	3035.6814	3037.7919	3050.6477	3051.217	3074.7371	3097.8294	3102.0761	3103.3669	3120.7635	3122.678	3127.3447
CCCC(C)C(=O)CC	CCC[C@@H](C)C(=O)CC	
InChI=1S/C8H16O/c1-4-6-7(3)8(9)5-2/h7H,4-6H2,1-3H3	InChI=1S/C8H16O/c1-4-6-7(3)8(9)5-2/h7H,4-6H2,1-3H3/t7-/m1/s1
