18
gdb 111368	2.25487	1.53395	1.10039	4.1155	76.08	-0.2371	0.0072	0.2443	1145.6741	0.148416	-398.077148	-398.068533	-398.067589	-398.110814	31.653	
C	 0.5824678322	 1.2363769164	 0.4535591427	-0.326316
N	-0.2879811161	 0.4376930475	-0.4014273796	-0.282124
C	 0.4008410095	-0.3390070416	-1.3903186917	 0.021638
C	 1.2236507066	-1.6015737126	-1.0597871243	-0.040776
C	 0.3729011825	-2.7203374143	-0.6168965404	-0.255464
N	 0.4527414057	-2.452951355	-2.0661555958	-0.128819
C	-0.4489277605	-1.2654622364	-2.3274454151	-0.170417
C	-1.8515340214	-1.4537914441	-1.9799695914	 0.313243
N	-2.9540165475	-1.6064553034	-1.6658220675	-0.336476
H	 1.326847001	 0.6515553082	 1.019678438	 0.105775
H	 1.1259964352	 1.9632329704	-0.1607250289	 0.126967
H	-0.0270068609	 1.7949598431	 1.1686741496	 0.130425
H	-0.9065375356	-0.1417922472	 0.1552481879	 0.231614
H	 0.9977284645	 0.3431141559	-2.0035987045	 0.10288
H	 2.3068742096	-1.6482820763	-1.0170055059	 0.104248
H	 0.87059832	-3.6448106126	-0.3432428414	 0.13605
H	-0.5654452646	-2.5469199796	-0.0951836627	 0.131379
H	-0.3751558201	-0.9814499786	-3.3786473189	 0.136173
75.9965	107.5181	128.7325	194.2934	217.8567	267.0632	376.4215	402.1738	517.6124	551.0309	621.5054	695.4843	750.3569	787.1951	799.68	834.999	949.2309	973.7325	1019.2249	1029.0064	1056.3753	1067.5143	1117.2103	1132.1515	1156.132	1161.8725	1197.8266	1213.6627	1259.5485	1265.7246	1339.1852	1353.2569	1377.9848	1459.6098	1488.953	1502.3831	1504.9956	1525.1411	2348.7929	2962.9353	3059.7427	3062.3059	3099.9985	3112.2195	3113.9356	3166.9448	3206.1077	3535.6739
CNC1C2CN2C1C#N	CN[C@H]1[C@H]2CN2[C@H]1C#N	
InChI=1S/C6H9N3/c1-8-6-4(2-7)9-3-5(6)9/h4-6,8H,3H2,1H3	InChI=1S/C6H9N3/c1-8-6-4(2-7)9-3-5(6)9/h4-6,8H,3H2,1H3/t4-,5+,6+,9?/m0/s1
