14
gdb 130016	5.17974	1.31281	1.05469	3.9399	70.96	-0.2097	-0.0029	0.2068	1047.9269	0.104901	-429.060696	-429.0538	-429.052856	-429.091694	26.878	
N	-0.0032479247	 1.2708766209	-0.1040872348	-0.562032
C	-0.0214053986	-0.0853091052	-0.0375362323	 0.377262
N	-1.1222506715	-0.7782273557	-0.0241176509	-0.368687
C	-0.6892386523	-2.107053683	-0.0198383561	 0.364973
N	-1.2734548199	-3.2951631817	-0.0038879544	-0.329057
N	-0.1993736544	-4.1127602338	 0.0025995916	-0.114902
N	 1.0165747465	-3.5419621789	-0.009119696	-0.316498
C	 0.7054233629	-2.2583146739	-0.0241067316	 0.301845
C	 1.303064528	-0.8893087627	-0.0391068903	-0.473522
H	 0.8271568074	 1.7645461983	 0.1752335429	 0.263664
H	-0.8810279628	 1.7422233676	 0.0516030694	 0.271365
H	-0.3060277425	-5.1125376594	 0.0085007891	 0.287683
H	 1.8977985433	-0.6612205141	-0.9299121076	 0.153286
H	 1.9152602687	-0.6515890784	 0.8381714909	 0.144618
152.232	249.3204	311.1327	333.4665	352.1298	389.5868	458.1007	543.942	565.852	589.3907	683.7309	744.4751	772.0656	829.275	859.445	956.7408	977.7023	1103.6898	1143.7207	1146.6298	1150.3464	1209.1438	1236.0091	1393.2681	1436.0321	1438.1447	1458.3059	1526.4582	1601.0771	1619.0597	1674.7247	3048.4786	3088.0727	3594.2284	3691.9319	3718.3242
NC1=NC2=NNN=C2C1	NC1=Nc2n[nH]nc2C1	
InChI=1S/C4H5N5/c5-3-1-2-4(6-3)8-9-7-2/h1H2,(H3,5,6,7,8,9)	InChI=1S/C4H5N5/c5-3-1-2-4(6-3)8-9-7-2/h1H2,(H3,5,6,7,8,9)
