19
gdb 68661	2.36071	1.8099	1.46215	2.7658	80.36	-0.2212	-0.005	0.2162	1000.5632	0.160091	-385.912291	-385.904428	-385.903483	-385.944186	31.262	
C	 0.0158709015	 1.582321768	 0.0264008517	-0.499253
C	 0.0269602259	 0.0696546764	-0.0371360618	 0.167157
C	 0.7217155394	-0.7012269999	-1.2123633099	-0.27064
C	-0.3513793289	-1.826923188	-1.0382261644	-0.154491
C	 0.0528264851	-2.774458782	 0.1142641509	-0.260637
C	 0.4844979835	-1.9583051701	 1.310412953	-0.082172
C	 0.4500528741	-0.6260995515	 1.2555667355	-0.082172
C	-1.2379595577	-0.6980053937	-0.4813831447	 0.414411
O	-2.4048244093	-0.4364828522	-0.5252510999	-0.330933
H	 1.0094888927	 1.9771186932	 0.2656065674	 0.118449
H	-0.3030473699	 2.0137039757	-0.9268931077	 0.122527
H	-0.6797006955	 1.9295706644	 0.7975983552	 0.132981
H	 0.6136484748	-0.1789757794	-2.1665747429	 0.107655
H	 1.7627513971	-0.9861128073	-1.0469276051	 0.104875
H	-0.7072363954	-2.3662132867	-1.9176157938	 0.086009
H	-0.8005873364	-3.4126801129	 0.3805059428	 0.12408
H	 0.8518986851	-3.4563105111	-0.2086209558	 0.111234
H	 0.8017522064	-2.4807482079	 2.208020406	 0.095977
H	 0.7072577375	-0.0042089449	 2.1082802435	 0.094941
136.0273	179.2887	209.0852	233.255	297.0135	366.9753	439.1062	445.6493	507.6528	610.0457	672.6787	691.8334	762.3855	794.4101	833.6078	880.5423	905.8986	913.8056	949.9105	975.0017	1012.3293	1018.9645	1048.3394	1093.9523	1110.9052	1149.8252	1175.2973	1208.8305	1230.2997	1254.3219	1273.6704	1287.3718	1362.5414	1395.3125	1411.0907	1476.3817	1486.2947	1490.1671	1493.1439	1693.7999	1885.4225	3006.3998	3031.76	3034.435	3059.7125	3098.0822	3101.7477	3109.9814	3125.0661	3159.0516	3182.9788
CC12CC(CC=C1)C2=O	C[C@@]12C[C@@H](CC=C1)C2=O	
InChI=1S/C8H10O/c1-8-4-2-3-6(5-8)7(8)9/h2,4,6H,3,5H2,1H3	InChI=1S/C8H10O/c1-8-4-2-3-6(5-8)7(8)9/h2,4,6H,3,5H2,1H3/t6-,8+/m1/s1
