27
gdb 122010	5.34943	0.48086	0.45848	1.3286	94.19	-0.2597	0.0724	0.3321	2549.1692	0.249656	-390.71021	-390.697999	-390.697054	-390.748769	43.468	
C	 0.0125423965	 1.5980725762	 0.1218061843	-0.378742
C	 0.0143335962	 0.0691202071	 0.0396852683	-0.16526
C	 0.6943921103	-0.4639930674	-1.2254806917	-0.156868
C	 0.6978142136	-1.9928788733	-1.3186464847	-0.20442
C	 1.4359332273	-2.5328804757	-2.550233808	 0.117007
O	 2.791006345	-2.0779172833	-2.5865746652	-0.428363
C	 1.3569748468	-4.0608818327	-2.6566616202	-0.182347
C	 2.0162809747	-4.6245097832	-3.919628767	-0.162318
C	 1.9847167844	-6.1534861702	-3.9835693449	-0.381862
H	 1.0337198088	 1.9951830455	 0.1159396585	 0.113865
H	-0.5161656221	 2.0393712347	-0.7304918989	 0.113088
H	-0.4767807642	 1.9503114194	 1.0354318618	 0.108812
H	 0.5185332937	-0.3441414978	 0.923788128	 0.090356
H	-1.0188570836	-0.3013482141	 0.0825722059	 0.091137
H	 0.1903704499	-0.0503628176	-2.1103617621	 0.089301
H	 1.7287171494	-0.1041879739	-1.2733523245	 0.104567
H	 1.163375993	-2.4184555913	-0.4158482207	 0.079567
H	-0.3338746963	-2.3690418519	-1.331142017	 0.092163
H	 0.9863075705	-2.0934290508	-3.4513503172	 0.082926
H	 3.2356805254	-2.437691959	-1.8101901967	 0.274092
H	 1.8299084571	-4.5003775252	-1.764321598	 0.079074
H	 0.3023583049	-4.3652195368	-2.6188105697	 0.091607
H	 1.5114506291	-4.2094188069	-4.8021301828	 0.09266
H	 3.0498494182	-4.2655827559	-3.9670059619	 0.107615
H	 2.5118169272	-6.5976697951	-3.1313870291	 0.110205
H	 0.9565622379	-6.5327334286	-3.9667299671	 0.110861
H	 2.4602937062	-6.524300932	-4.8970306491	 0.111278
46.2555	67.4651	74.2809	94.0359	117.3807	158.6401	186.1248	245.6387	248.8988	275.4503	296.4108	312.5546	347.5159	434.2311	499.8508	565.1263	735.302	746.6622	790.2655	849.2316	886.4284	897.8095	910.8713	953.703	1007.4009	1032.282	1041.6063	1064.5839	1081.3606	1092.3627	1113.7538	1139.577	1161.4832	1231.5506	1243.9392	1262.2963	1293.9445	1303.2574	1317.7834	1327.259	1348.5907	1365.7438	1383.2946	1396.8668	1399.9904	1412.1781	1412.7772	1419.9565	1471.7468	1481.9931	1486.0025	1493.8124	1499.0736	1500.0671	1500.226	1511.3073	1513.3683	2985.8784	2990.8139	3006.9454	3014.3025	3019.452	3023.6532	3027.1334	3028.7629	3032.7356	3036.3994	3046.0365	3070.2262	3072.8758	3095.4189	3095.8087	3100.0155	3100.058	3788.3935
CCCCC(O)CCC	CCCC[C@@H](O)CCC	
InChI=1S/C8H18O/c1-3-5-7-8(9)6-4-2/h8-9H,3-7H2,1-2H3	InChI=1S/C8H18O/c1-3-5-7-8(9)6-4-2/h8-9H,3-7H2,1-2H3/t8-/m0/s1
