13
gdb 21932	5.22996	1.66285	1.2716	3.6849	61.94	-0.2505	-0.0849	0.1656	884.0325	0.096723	-394.782809	-394.776097	-394.775153	-394.814262	23.986	
O	 0.3677088094	 0.8964569943	-0.778650244	-0.423076
C	-0.0139461949	 0.1227605158	 0.3234164854	-0.104819
C	-1.4179540495	-0.4211707177	 0.2128763473	 0.372185
N	-1.8844210332	-1.1785734028	 1.2188150714	-0.264555
C	-3.1194769283	-1.6188453654	 1.0522724489	-0.005647
C	-3.8482114675	-1.2967038144	-0.0981599117	 0.017907
N	-3.3288576345	-0.5421465977	-1.057965177	-0.160439
N	-2.0857412077	-0.0976454928	-0.8927180177	-0.254953
H	-0.3895622859	 0.9042126752	-1.3828054542	 0.299206
H	 0.6657749816	-0.7334503562	 0.4587316397	 0.124144
H	 0.0449798633	 0.7074396194	 1.2550999749	 0.124143
H	-3.5465332332	-2.2376134375	 1.8382191483	 0.137706
H	-4.8629094297	-1.6467943401	-0.2560306614	 0.138198
58.0489	171.7186	231.4085	328.429	385.477	454.3072	471.7219	633.7413	663.8777	796.2794	845.6844	888.0775	1009.4263	1037.7673	1041.3824	1082.8979	1123.8827	1133.6413	1192.7784	1246.6408	1292.254	1331.9866	1397.9799	1439.8005	1476.8346	1501.6668	1577.6884	1595.1851	2983.783	2999.5472	3159.0702	3195.3174	3708.3766
OCC1=NC=CN=N1	OCc1nccnn1	
InChI=1S/C4H5N3O/c8-3-4-5-1-2-6-7-4/h1-2,8H,3H2	InChI=1S/C4H5N3O/c8-3-4-5-1-2-6-7-4/h1-2,8H,3H2
