19
gdb 62715	3.80196	1.43444	1.21037	2.6509	74.58	-0.2336	0.073	0.3066	1052.52	0.159716	-422.98028	-422.972734	-422.97179	-423.011683	30.942	
C	-0.1609991019	 1.5597449938	-0.0299071502	-0.474212
C	 0.0061735194	 0.0476877402	-0.0102940652	 0.438603
O	-1.2439201689	-0.5811440898	-0.2541897323	-0.486302
C	 1.2400858118	-0.6020743495	-0.698654956	-0.168962
C	 2.1283053988	-0.1790998485	 0.5232274715	-0.07567
C	 3.1120005898	-1.3183015518	 0.7580058165	-0.109101
O	 2.2735824444	-2.4570687662	 0.517630984	-0.284709
C	 1.0321003516	-1.8574269469	 0.2072103138	 0.147042
C	 0.7626724329	-0.63675746	 1.1460165859	-0.135439
H	 0.7645320606	 2.0939597504	 0.19401863	 0.121804
H	-0.498604006	 1.8929146739	-1.0198890676	 0.107188
H	-0.9205295094	 1.8605440638	 0.6982888938	 0.128405
H	-1.6252150557	-0.1908336131	-1.0474181847	 0.275557
H	 1.5227832455	-0.5815981097	-1.7529915135	 0.065069
H	 2.487331272	 0.8420924292	 0.6365790299	 0.071816
H	 3.9558543598	-1.3130379133	 0.0563611869	 0.100825
H	 3.5062429746	-1.346305153	 1.7819113081	 0.101586
H	 0.2741898776	-2.6046964741	-0.0014767138	 0.10501
H	 0.4934044732	-0.6570669755	 2.2029427128	 0.07149
208.6639	218.569	233.0812	271.0965	287.5795	362.7164	388.9459	504.5344	535.889	591.7042	733.9843	767.2659	775.3977	791.6885	899.34	906.3442	947.325	972.529	976.6162	981.4301	983.1779	1043.9712	1052.5953	1093.8344	1113.4163	1139.2614	1148.4646	1153.5317	1180.0388	1186.5497	1216.3676	1223.6643	1264.307	1279.2212	1320.9851	1379.5495	1399.2168	1414.5646	1491.2052	1497.348	1522.7412	3013.6572	3024.819	3050.1251	3090.0364	3094.1157	3106.1756	3125.9972	3140.9724	3191.8228	3810.864
CC1(O)C2C3COC2C13	C[C@@]1(O)[C@H]2[C@@H]3CO[C@H]2[C@H]13	
InChI=1S/C7H10O2/c1-7(8)4-3-2-9-6(4)5(3)7/h3-6,8H,2H2,1H3	InChI=1S/C7H10O2/c1-7(8)4-3-2-9-6(4)5(3)7/h3-6,8H,2H2,1H3/t3-,4-,5+,6+,7+
