23
gdb 84125	2.34489	1.32286	1.0555	1.398	87.9	-0.2259	0.0303	0.2562	1287.5559	0.204016	-388.318477	-388.308484	-388.30754	-388.352451	38.939	
C	-0.201978671	 1.5826265432	 0.0127188936	-0.419262
C	 0.0411597604	 0.0708592678	 0.0122047175	-0.021211
C	 0.8447531274	-0.4564888097	-1.1527315414	-0.176734
C	 1.6432105727	-1.4717542479	-0.8144431699	 0.325023
C	 2.5342879132	-2.2714988943	-1.7105221706	-0.493761
C	 1.5032681249	-1.7789274118	 0.6611744879	-0.360111
C	 0.7985124282	-0.5181114111	 1.2434614009	 0.374031
C	 1.8398910274	 0.4410027613	 1.8293816564	-0.435168
O	-0.1841255728	-0.828993466	 2.2300363859	-0.480951
H	 0.7316723121	 2.150560816	-0.0471700326	 0.112534
H	-0.8154723164	 1.8672185352	-0.8486052882	 0.10922
H	-0.7371552955	 1.8916961211	 0.9161052418	 0.122732
H	-0.9453836761	-0.4171575046	 0.0171132809	 0.090916
H	 0.7345769727	-0.0640112784	-2.159341437	 0.079284
H	 2.4991527802	-1.9096854749	-2.7420441903	 0.121108
H	 3.5774427137	-2.2354196503	-1.3704623212	 0.121312
H	 2.2472032066	-3.331198239	-1.7125645324	 0.124353
H	 0.8637804257	-2.6583670566	 0.8201940156	 0.106265
H	 2.4637878313	-1.9906233258	 1.1494829783	 0.084415
H	 2.581689895	 0.7269524919	 1.0773311326	 0.122561
H	 1.3706519482	 1.3465978937	 2.2212865649	 0.122134
H	 2.3770073318	-0.0477143442	 2.6519193647	 0.099408
H	 0.2745842403	-1.0762819556	 3.0397893827	 0.271902
84.5355	148.1782	193.4988	243.7595	249.7043	274.2461	284.6436	302.0073	311.9337	354.6949	401.3619	447.2728	473.7118	517.5039	560.028	645.0115	722.6837	843.7224	872.8284	896.4731	921.9539	952.4324	964.7027	1013.7973	1026.6011	1049.9437	1070.6554	1102.0766	1126.1248	1142.0522	1189.7041	1198.9234	1227.9026	1284.4038	1313.6902	1324.872	1365.8716	1384.4998	1402.2271	1408.6185	1413.6794	1478.4221	1481.7795	1488.9937	1491.2161	1491.99	1504.5497	1511.3811	1722.1106	2985.9734	3004.6078	3013.849	3025.302	3033.4302	3038.9251	3057.7795	3091.3487	3098.2279	3106.3154	3108.2142	3125.1313	3173.5337	3807.2121
CC1C=C(C)CC1(C)O	C[C@H]1C=C(C)C[C@]1(C)O	
InChI=1S/C8H14O/c1-6-4-7(2)8(3,9)5-6/h4,7,9H,5H2,1-3H3	InChI=1S/C8H14O/c1-6-4-7(2)8(3,9)5-6/h4,7,9H,5H2,1-3H3/t7-,8-/m0/s1
