14
gdb 16480	3.04781	2.82366	1.78868	1.863	62.56	-0.2415	0.0156	0.257	731.0969	0.107895	-378.638018	-378.631679	-378.630735	-378.66819	25.048	
O	 0.0580459815	 1.3489532235	-0.1459862632	-0.455608
C	 0.1171253382	-0.0085997405	-0.0189787705	 0.34451
C	-0.0950632258	-0.9168872402	-1.2447680596	-0.122702
C	 0.6016761957	-2.2221010108	-0.8917257904	-0.186599
N	 0.055323484	-2.0682426558	 0.5276520769	-0.21545
C	-0.9809268647	-1.0897845726	-0.0511131823	-0.114507
C	 0.79875562	-0.8600880255	 0.9809863786	 0.31982
N	 1.5331505709	-0.6336681828	 1.9734323161	-0.575185
H	-0.0011073438	 1.7257443286	 0.7403813834	 0.305187
H	-0.3325823797	-0.4719219885	-2.2037156622	 0.111527
H	 0.1492059339	-3.0970032604	-1.3648170056	 0.119632
H	 1.6939964124	-2.2802686212	-0.9450324442	 0.116636
H	-2.0366742765	-1.0711564863	 0.1710068985	 0.122107
H	 1.6851765739	-1.4923602777	 2.5071842545	 0.230633
153.3712	234.8995	303.3545	353.2711	429.1518	488.9055	626.5633	678.0607	732.5299	771.8527	800.2219	855.2546	869.1986	888.5481	922.571	936.6381	961.8874	996.6747	1000.4128	1097.3519	1114.6473	1164.4898	1175.022	1231.179	1285.1013	1301.8084	1355.673	1462.1906	1507.3729	1818.1963	3046.794	3111.5023	3191.1413	3243.5209	3460.4149	3790.4841
OC12C3CN(C13)C2=N	O[C@]12[C@H]3CN([C@@H]13)[C]2[NH]	
InChI=1S/C5H6N2O/c6-4-5(8)2-1-7(4)3(2)5/h2-3,6,8H,1H2	InChI=1S/C5H6N2O/c6-4-5(8)2-1-7(4)3(2)5/h2-3,6,8H,1H2/t2-,3+,5+/m0/s1
