18
gdb 59285	2.58154	1.48472	0.9966	1.7271	72.36	-0.2714	-0.0292	0.2422	1179.8656	0.147258	-439.142437	-439.133794	-439.13285	-439.176041	31.877	
C	 0.0497446939	 1.5302750369	 0.0657851144	-0.390239
C	-0.0681961612	 0.0020888549	 0.0074016583	 0.024029
C	-1.5364606608	-0.4426336018	-0.0117222189	-0.400906
C	 0.6981300795	-0.5491341274	-1.2229377488	-0.14193
N	 2.0905584245	-0.0884452784	-1.2810864888	-0.249374
C	 2.7980532045	-1.1365278487	-1.310706871	 0.113357
O	 2.1729780326	-2.3584717328	-1.2975639371	-0.201887
C	 0.804336454	-2.0762813827	-1.2498669929	 0.435804
O	-0.0141297198	-2.9408126336	-1.2344825986	-0.311226
H	 1.0922782828	 1.850757785	 0.1039452959	 0.139694
H	-0.4128981519	 1.9893063194	-0.8159352097	 0.113734
H	-0.4691734521	 1.912757514	 0.9502075797	 0.113298
H	 0.4157081709	-0.4158521908	 0.9005674516	 0.085696
H	-2.0581512474	-0.0131026268	-0.8753206541	 0.113795
H	-1.636026078	-1.5282369111	-0.0644461143	 0.150201
H	-2.0444581107	-0.0893708483	 0.8907465459	 0.115531
H	 0.1743174449	-0.2195541469	-2.1303791643	 0.131933
H	 3.8796534545	-1.1852520807	-1.3505178473	 0.158491
65.066	105.3217	185.6791	229.0182	247.9664	274.7996	336.1842	352.7971	427.0718	525.5924	559.2471	665.1881	708.5864	857.6857	866.6898	868.0821	927.3144	940.1709	952.6114	969.8854	1041.8462	1066.5115	1137.1419	1141.8692	1158.3985	1194.2883	1265.407	1271.4647	1341.2423	1344.0293	1366.8774	1401.6516	1423.4248	1488.3413	1492.1397	1502.1582	1515.528	1700.5971	1908.4154	3011.4203	3030.1672	3032.1882	3038.5994	3095.685	3102.1631	3137.1728	3139.4738	3225.6493
CC(C)C1N=COC1=O	CC(C)[C@H]1N=COC1=O	
InChI=1S/C6H9NO2/c1-4(2)5-6(8)9-3-7-5/h3-5H,1-2H3	InChI=1S/C6H9NO2/c1-4(2)5-6(8)9-3-7-5/h3-5H,1-2H3/t5-/m1/s1
