17
gdb 75714	2.28589	1.68787	1.3513	3.3812	68.16	-0.235	-0.0383	0.1967	1014.3848	0.134363	-458.943028	-458.934665	-458.933721	-458.975971	31.429	
C	-0.4377999963	 1.34014107	-0.1307738198	-0.490027
C	 0.1439259541	-0.0416650425	-0.0322636932	 0.389789
O	-0.8668013865	-1.0917806976	 0.0073596739	-0.336466
C	-0.3444723462	-1.6148687903	 1.2539502984	-0.091743
C	 0.8834600828	-0.6830191372	 1.1924269935	-0.273512
C	 1.91651655	-1.2626554678	 0.2050162157	 0.358514
O	 2.8280760524	-2.0258878852	 0.3262711615	-0.292505
C	 1.2731474457	-0.5046128968	-1.0007452521	 0.003426
O	 0.8980648305	-1.175562769	-2.1593183887	-0.424239
H	 0.3527116632	 2.0960794335	-0.0888351329	 0.125596
H	-0.9680457398	 1.4539902221	-1.0822994967	 0.143239
H	-1.1472362334	 1.5295259184	 0.6798949463	 0.129285
H	-1.022253972	-1.3935726611	 2.086607827	 0.118192
H	-0.1559620227	-2.6925382868	 1.2150197677	 0.126738
H	 1.2177197043	-0.1756916818	 2.0953166563	 0.106412
H	 1.9277673277	 0.3331004881	-1.2790423857	 0.114205
H	 0.1427035464	-1.7261709961	-1.9074566412	 0.293095
69.6381	192.8831	202.611	214.067	230.1752	266.0996	327.5321	479.5688	488.9925	520.4732	592.8481	654.8594	665.2917	791.543	842.9357	894.8105	919.0791	956.0008	989.3776	1027.695	1052.6418	1101.3157	1118.0097	1142.3287	1162.3083	1183.5702	1194.8434	1230.7776	1298.5068	1319.7113	1342.9148	1412.1001	1427.6493	1479.4703	1488.9824	1527.0528	1894.5414	3025.0108	3028.0548	3037.1842	3082.1626	3107.7096	3115.1285	3138.858	3741.0823
CC12OCC1C(=O)C2O	C[C@]12OC[C@H]1C(=O)[C@H]2O	
InChI=1S/C6H8O3/c1-6-3(2-9-6)4(7)5(6)8/h3,5,8H,2H2,1H3	InChI=1S/C6H8O3/c1-6-3(2-9-6)4(7)5(6)8/h3,5,8H,2H2,1H3/t3-,5+,6-/m0/s1
