22
gdb 123102	6.37519	0.46996	0.44715	4.186	81.36	-0.2451	0.0343	0.2795	2442.483	0.191408	-441.520009	-441.508382	-441.507438	-441.559374	39.165	
C	-0.0818226316	 1.5100700546	 0.109332214	-0.384049
C	-0.0256698002	-0.002050987	-0.0291350909	-0.026753
O	-1.3398530371	-0.5111860717	 0.0504527762	-0.241578
C	-1.4057273651	-1.9139433566	-0.0661358038	-0.053997
C	-2.8635902921	-2.3410439171	 0.0300569234	-0.184123
C	-3.032174743	-3.8577379171	-0.0658081118	-0.31694
C	-4.5013149639	-4.2723928852	-0.1545960152	 0.408885
N	-4.7654123517	-5.5370550395	 0.2912762164	-0.522989
O	-5.3699955899	-3.5463991156	-0.5956644387	-0.354516
H	 0.9239383937	 1.9370048809	 0.0514048003	 0.112196
H	-0.6912140865	 1.9451272996	-0.6878132959	 0.127669
H	-0.5243807299	 1.790723093	 1.0693069905	 0.12628
H	 0.4354926822	-0.2853766458	-0.9912149392	 0.082545
H	 0.6020355499	-0.4403878532	 0.7662901408	 0.081274
H	-0.9729406897	-2.2416300256	-1.0288751119	 0.079641
H	-0.805919234	-2.3930682993	 0.7291894424	 0.076066
H	-3.2795711444	-1.9759776967	 0.9752763618	 0.112496
H	-3.4417524415	-1.8666755446	-0.7669527043	 0.135134
H	-2.5379549776	-4.2342059505	-0.973034719	 0.126134
H	-2.5479589572	-4.3643392265	 0.7782446559	 0.101364
H	-4.0393294499	-6.1643354762	 0.5885545303	 0.255678
H	-5.6967699406	-5.8990206297	 0.1673898887	 0.259582
23.1755	48.3194	71.4648	83.6986	113.5218	139.7352	152.057	201.9058	247.6286	259.368	367.7073	473.3732	485.4328	524.8733	615.5677	667.3553	764.482	821.046	848.6587	881.8138	901.8423	1038.5567	1056.9217	1070.3353	1090.1869	1119.2146	1148.99	1171.9314	1184.52	1221.839	1249.2623	1294.0224	1298.8373	1305.5455	1333.4076	1388.7542	1404.5853	1411.7786	1455.2707	1466.1221	1483.3724	1496.6686	1500.3097	1517.7542	1539.1679	1616.7937	1800.5899	2929.0883	2949.6336	2953.6153	2969.505	3011.4813	3044.264	3049.6849	3059.0529	3113.1195	3118.3375	3121.2355	3602.2827	3739.5224
CCOCCCC(N)=O	CCOCCCC(=O)N	
InChI=1S/C6H13NO2/c1-2-9-5-3-4-6(7)8/h2-5H2,1H3,(H2,7,8)	InChI=1S/C6H13NO2/c1-2-9-5-3-4-6(7)8/h2-5H2,1H3,(H2,7,8)
