18
gdb 75044	2.55879	1.65285	1.08668	2.8218	85.68	-0.2275	-0.0522	0.1754	1118.136	0.148963	-401.97084	-401.962729	-401.961785	-402.003506	31.175	
C	 0.1113876078	 1.3421345852	 0.3998121569	-0.460951
C	 0.066059993	-0.1156218132	 0.0183855832	 0.198623
C	-1.1256352807	-0.7492286472	-0.0910741224	-0.157886
C	-1.4141555262	-2.1295457635	-0.4352177117	-0.058066
C	-0.5738022679	-3.1506395066	-0.2232083951	-0.091327
C	 0.7694771048	-2.8979274825	 0.3848013776	-0.160574
O	 1.5786306167	-2.0337206234	-0.4302546676	-0.243604
C	 1.3837973082	-0.6865716972	-0.3688853299	 0.318666
N	 2.3229829957	 0.1060599231	-0.7069858094	-0.509084
H	 0.7453602559	 1.4967901943	 1.2791973946	 0.133538
H	 0.5602795842	 1.9324611284	-0.4036147419	 0.157814
H	-0.8899922801	 1.7209865222	 0.6176735181	 0.109189
H	-2.0058354029	-0.134391963	 0.0886058704	 0.09726
H	-2.403513298	-2.3241509321	-0.841718298	 0.099556
H	-0.8519869789	-4.1667707942	-0.4821047551	 0.10457
H	 0.6611850133	-2.446799358	 1.3816699611	 0.120516
H	 1.3519477974	-3.815756226	 0.483197464	 0.121746
H	 3.1542004277	-0.4361486661	-0.9500501949	 0.220015
72.1653	157.3056	188.738	282.8227	306.4661	343.9703	384.9722	418.5725	490.2389	532.4358	610.415	688.8213	750.1577	780.1832	784.9342	899.8445	919.1083	941.6963	953.1446	998.5205	1027.4111	1055.6175	1070.439	1100.002	1123.1308	1180.4528	1232.5962	1294.7481	1319.1323	1390.9468	1410.6058	1417.3601	1441.0831	1465.8101	1484.9509	1489.6903	1648.9618	1680.3277	1700.0943	3004.8417	3042.4272	3102.5111	3112.3563	3127.918	3138.7123	3159.3305	3190.9398	3470.1516
CC1=CC=CCOC1=N	CC1=CC=CCO[C]1[NH]	
InChI=1S/C7H9NO/c1-6-4-2-3-5-9-7(6)8/h2-4,8H,5H2,1H3	InChI=1S/C7H9NO/c1-6-4-2-3-5-9-7(6)8/h2-4,8H,5H2,1H3
