23
gdb 84784	2.60477	1.47364	1.18702	0.0877	89.75	-0.2349	0.0276	0.2625	1169.3278	0.207119	-351.161056	-351.152495	-351.151551	-351.193895	34.308	
C	 0.0709531787	 1.6500690111	-0.2983620647	-0.392572
C	 0.0133454892	 0.1172483422	-0.1584690481	-0.116357
C	 0.929409141	-0.5580773779	-1.1577889977	-0.063294
C	 2.0292820104	-1.039171802	-0.5812316564	-0.070961
C	 2.0258984908	-0.7976962654	 0.909003955	-0.314706
C	 0.5470346948	-0.4242487292	 1.1958089325	 0.375643
C	 0.3085660777	 0.3483460521	 2.5257708161	-0.280666
C	-0.0021896797	-1.0014182247	 3.2253260495	-0.215139
C	-0.2317131528	-1.6252233623	 1.8241766797	-0.261643
H	 1.086549985	 2.0233937778	-0.1297375401	 0.115632
H	-0.2313819541	 1.9582245469	-1.3048670813	 0.109896
H	-0.5970106092	 2.1447312669	 0.4139951753	 0.11181
H	-1.0313715328	-0.1922821065	-0.2968349891	 0.063768
H	 0.716883883	-0.575786051	-2.2218771731	 0.085764
H	 2.8541068297	-1.5174988122	-1.0983717199	 0.087537
H	 2.3551939593	-1.6673640143	 1.4902917763	 0.097982
H	 2.7119136788	 0.0217002083	 1.1714417514	 0.100131
H	 1.1367190216	 0.9482554914	 2.9139858125	 0.090016
H	-0.5812268141	 0.983297691	 2.4730925493	 0.09573
H	 0.8786690862	-1.4177733997	 3.7216610693	 0.101205
H	-0.8363086552	-1.0240177762	 3.930419651	 0.093252
H	-1.2899373786	-1.604960215	 1.5442695523	 0.092419
H	 0.1579244304	-2.6295326913	 1.6359880602	 0.094553
89.2693	147.4859	188.8729	228.612	253.4345	307.5249	363.3857	408.9096	490.8011	515.9471	671.7985	733.7358	737.0135	770.4452	796.4105	864.505	880.847	909.5704	933.0075	938.2065	966.7486	969.4815	975.6856	1021.3972	1028.4033	1071.0388	1088.2116	1113.8776	1128.1299	1141.209	1190.4971	1204.1781	1219.713	1257.7385	1260.0622	1274.4897	1292.2275	1295.4284	1331.133	1348.9523	1366.9615	1405.7615	1473.2562	1483.087	1491.6047	1494.5855	1497.8409	1509.4942	1684.7673	2994.0027	3006.9645	3029.5394	3041.966	3044.8111	3047.0855	3061.1766	3089.0539	3094.9424	3096.9513	3103.2525	3115.6779	3173.5835	3200.1022
CC1C=CCC11CCC1	C[C@H]1C=CCC21CCC2	
InChI=1S/C9H14/c1-8-4-2-5-9(8)6-3-7-9/h2,4,8H,3,5-7H2,1H3	InChI=1S/C9H14/c1-8-4-2-5-9(8)6-3-7-9/h2,4,8H,3,5-7H2,1H3/t8-/m0/s1
