17
gdb 81847	2.4404	1.593	1.25224	3.3332	68.68	-0.2444	-0.0415	0.2029	1030.877	0.134613	-458.932054	-458.923746	-458.922801	-458.964679	31.951	
O	 0.461667396	 1.2500318008	 0.1023569247	-0.434623
C	 0.1257891507	-0.0979220657	-0.0266216125	 0.140287
C	-1.3414114448	-0.5412606651	 0.034997521	-0.173043
C	-2.104077984	-0.0789727418	-1.189618061	-0.328666
C	-1.19469104	-1.2506361073	-1.3177172332	 0.393079
O	-1.6733443093	-2.4550681522	-1.780414802	-0.447152
C	 0.2922367554	-0.7980823218	-1.4387043454	-0.247051
C	 0.5929597378	 0.0563691929	-2.6290874357	 0.156448
O	 0.3516238751	 1.2458792702	-2.6809989108	-0.27631
H	 0.2557303417	 1.6818356643	-0.7397827051	 0.298556
H	 0.7176200959	-0.6425081545	 0.7155746518	 0.093958
H	-1.8595100729	-0.862110085	 0.9307142073	 0.094699
H	-3.1531948231	-0.3549471011	-1.1833210267	 0.127521
H	-1.8876739785	 0.8705667423	-1.6689802887	 0.132252
H	-1.2016208199	-3.1677641725	-1.3339862019	 0.288421
H	 0.9712977584	-1.6559145222	-1.4076551411	 0.08099
H	 1.0241291616	-0.4595005113	-3.5134358806	 0.100634
117.0736	128.9333	201.8344	244.9862	265.6599	350.8778	388.0657	408.1966	462.0244	513.7249	550.352	600.2848	691.691	765.8862	824.9763	833.8123	919.7743	931.7818	962.3603	1013.1276	1023.0345	1062.9638	1078.3471	1106.1868	1136.6513	1159.5383	1185.4955	1242.0922	1287.3293	1291.6684	1328.7662	1350.3384	1419.0549	1432.3711	1463.5027	1503.7918	1777.2106	2903.5199	3054.238	3068.2269	3131.302	3186.4801	3219.0858	3714.9365	3786.5031
OC1C2CC2(O)C1C=O	O[C@H]1[C@H]2C[C@@]2(O)[C@H]1C=O	
InChI=1S/C6H8O3/c7-2-4-5(8)3-1-6(3,4)9/h2-5,8-9H,1H2	InChI=1S/C6H8O3/c7-2-4-5(8)3-1-6(3,4)9/h2-5,8-9H,1H2/t3-,4+,5+,6+/m1/s1
