18
gdb 65062	2.19529	1.72219	1.14476	3.6104	76.35	-0.2656	0.0278	0.2934	1093.7629	0.146608	-401.932796	-401.924056	-401.923112	-401.966113	33.639	
O	 0.0662029655	 1.3505620958	-0.1084194592	-0.453919
C	 0.0785499518	-0.050506783	-0.0434619754	 0.310243
C	 1.1467621153	-0.7108015639	-0.8629162162	-0.297715
C	 1.2400914682	-0.7094011089	 0.6520716081	-0.339531
C	-1.3165673473	-0.6536068595	 0.0181560944	 0.158127
C	-2.4354585288	 0.1066582483	 0.7211854844	-0.302605
C	-2.4319044248	 0.0150842798	-0.7742721488	-0.287407
C	-1.3644542978	-2.0894913964	 0.1157623212	 0.219586
N	-1.386905824	-3.2440093706	 0.1949817297	-0.36082
H	 0.0580637732	 1.6924890486	 0.7919856394	 0.290239
H	 0.9160295247	-1.6475749461	-1.3570844639	 0.137965
H	 1.8067000715	-0.0465936047	-1.4078415937	 0.127663
H	 1.9723030661	-0.0505917948	 1.1063553503	 0.115525
H	 1.0734343752	-1.6437538838	 1.1758876142	 0.141426
H	-3.1583144277	-0.4754119197	 1.2796077896	 0.139938
H	-2.168374133	 1.0567641201	 1.1677205458	 0.116581
H	-2.136344813	 0.8974207933	-1.3282749173	 0.146981
H	-3.1582483951	-0.6259340146	-1.2584439626	 0.137725
55.0554	145.2127	204.6309	240.6594	258.2961	323.411	341.8325	387.6975	419.0912	500.6034	554.3501	578.5071	602.6596	772.7942	783.2823	830.2913	875.1344	912.1036	925.5251	934.4256	978.1815	983.3057	1004.6538	1058.3143	1072.9642	1086.4419	1097.0496	1190.6828	1192.7246	1198.2792	1259.1023	1306.8335	1350.416	1358.108	1451.3501	1453.4595	1484.7981	1496.334	2346.061	3135.4475	3144.8501	3149.4024	3153.233	3223.9859	3236.4094	3240.3298	3252.0011	3803.2588
OC1(CC1)C1(CC1)C#N	OC1(CC1)C1(CC1)C#N	
InChI=1S/C7H9NO/c8-5-6(1-2-6)7(9)3-4-7/h9H,1-4H2	InChI=1S/C7H9NO/c8-5-6(1-2-6)7(9)3-4-7/h9H,1-4H2
