19
gdb 37442	2.57091	1.94512	1.90225	1.1184	72.74	-0.2429	0.0819	0.3248	874.2365	0.163321	-423.010336	-423.00387	-423.002926	-423.040722	27.61	
C	-0.0567086739	 1.5170945603	-0.1012954358	-0.320736
C	 1.2935890486	 0.8460064547	 0.0240960618	-0.044145
C	 0.0225032221	 0.0220596465	 0.0135545906	-0.014896
C	-0.1343260398	-0.6361590641	 1.3823042979	 0.048298
C	 1.0932664537	-1.5357868851	 1.6029003414	-0.069312
O	 2.288192666	-0.7496875381	 1.5144330704	-0.283045
C	 1.9803383012	 0.6488920636	 1.3698045375	 0.07148
C	 1.0735565263	 1.0449767454	 2.5323003317	-0.096791
O	-0.1731296754	 0.3421365548	 2.421562449	-0.278321
H	-0.4684542123	 2.0789502169	 0.7273450441	 0.131302
H	-0.2963460385	 1.9194126501	-1.0793843061	 0.11083
H	 1.9445356229	 0.8386121136	-0.8431270746	 0.090349
H	-0.2197229803	-0.5946409709	-0.8460792623	 0.087342
H	-1.0601364979	-1.2098588199	 1.4716595902	 0.081607
H	 1.0398086618	-2.0027125017	 2.5953570256	 0.101107
H	 1.1322384348	-2.3314131659	 0.8468077937	 0.097192
H	 2.9390627463	 1.1683814744	 1.4358935276	 0.079412
H	 1.5620040928	 0.7780751694	 3.4784603866	 0.10537
H	 0.8707855615	 2.122852916	 2.5392442111	 0.102957
202.6193	301.5413	316.6505	347.6502	412.6698	503.2955	564.4707	589.77	687.6399	747.2676	819.2159	837.811	869.509	880.8175	886.2419	922.2477	964.119	986.2159	1030.7504	1038.7738	1064.0851	1072.0683	1085.1387	1102.6624	1114.8008	1123.2567	1160.8227	1202.5612	1234.0275	1240.6397	1300.8213	1326.6874	1331.0228	1342.5341	1362.8399	1389.2001	1403.8114	1411.1991	1489.2238	1513.4887	1520.941	3003.4722	3013.2708	3041.263	3052.3924	3081.7849	3087.3693	3146.3969	3156.8947	3170.1008	3235.5705
C1C2C1C1COC2CO1	C1[C@@H]2[C@H]1[C@H]1CO[C@@H]2CO1	
InChI=1S/C7H10O2/c1-4-5(1)7-3-9-6(4)2-8-7/h4-7H,1-3H2	InChI=1S/C7H10O2/c1-4-5(1)7-3-9-6(4)2-8-7/h4-7H,1-3H2/t4-,5+,6-,7-/m1/s1
