16
gdb 44292	3.72264	1.73968	1.49679	1.8333	69.67	-0.2334	-0.0237	0.2096	875.0921	0.12715	-400.714311	-400.708326	-400.707382	-400.744652	24.881	
O	-0.0066780194	-0.0357116415	 0.0400251856	-0.31667
C	-0.0423836639	 1.1661402903	 0.0139567094	 0.40893
C	-1.312750883	 2.0443455644	 0.0059133074	-0.355476
C	-0.7610135694	 3.4686975151	 0.0624970548	-0.047637
C	 0.0264955485	 3.8134635145	 1.3263580537	-0.048011
C	 1.2468688959	 2.9498562802	 1.2872171704	-0.05451
C	 1.1444298625	 2.1241952366	-0.0083718998	-0.149147
C	 0.654577278	 3.472162848	-0.5873992405	-0.021579
N	 1.2511007341	 4.2780347767	 0.5925210883	-0.170116
H	-1.865789254	 1.849606076	-0.9213418503	 0.132242
H	-1.9719711895	 1.7788566929	 0.837489732	 0.134198
H	-1.4266885741	 4.2624378591	-0.2752200582	 0.08819
H	-0.3157626855	 4.303853439	 2.2301825082	 0.101662
H	 1.8650096544	 2.7475422002	 2.1532422063	 0.109341
H	 2.0836746932	 1.7090859304	-0.3671288154	 0.09724
H	 0.8431556423	 3.7823713082	-1.612518682	 0.091343
112.4663	290.7406	393.7382	471.4156	573.0859	588.6782	665.4221	733.3708	782.7663	800.4977	820.4228	830.8975	856.6022	903.6217	927.6161	936.8122	987.0411	1011.6418	1027.8692	1045.3443	1048.1939	1113.8482	1134.5815	1142.0773	1156.657	1197.9989	1229.3711	1246.1722	1254.5572	1279.5752	1312.0701	1345.5714	1364.2867	1445.6749	1850.1909	3042.2363	3097.2797	3119.2544	3142.8369	3151.4208	3182.3581	3196.137
O=C1CC2C3C4C1C2N34	O=C1C[C@H]2[C@H]3[C@H]4[C@@H]1[C@@H]2N34	
InChI=1S/C7H7NO/c9-3-1-2-5-4(3)7-6(2)8(5)7/h2,4-7H,1H2	InChI=1S/C7H7NO/c9-3-1-2-5-4(3)7-6(2)8(5)7/h2,4-7H,1H2/t2-,4+,5-,6+,7-,8?/m1/s1
