18
gdb 56542	2.8985	1.0594	0.9278	4.3288	73.33	-0.2572	0.0082	0.2654	1295.5244	0.146111	-439.088321	-439.078519	-439.077575	-439.123186	35.919	
C	-0.045251936	 1.5145712703	 0.2615998939	-0.414859
C	-0.0499005313	-0.0081735374	 0.0190977966	-0.160366
C	-1.4052133034	-0.5528103759	 0.0625953566	 0.296531
C	-2.5253201286	-0.9910317319	 0.0513131177	-0.44618
C	 0.6288571151	-0.4159217546	-1.3177653641	-0.148662
N	 0.0207463615	 0.0913385567	-2.5526245865	-0.54079
H	-0.2207180934	 1.0739005085	-2.4558885618	 0.246914
H	 1.8570965842	 0.1474670939	-3.1294613744	 0.308281
H	-0.8424532834	-0.4040732709	-2.7491999149	 0.255062
C	 2.1329302061	-0.0713143022	-1.3076812794	 0.444552
O	 2.8043962664	-0.0680728351	-0.309960445	-0.340931
O	 2.6287886	 0.183800276	-2.5241095195	-0.37022
H	 0.9801383875	 1.8916476918	 0.2687513025	 0.147576
H	-0.6217466028	 2.0478610525	-0.5015410959	 0.113497
H	-0.5031049013	 1.7416455687	 1.2269506092	 0.137101
H	 0.5516528744	-0.4716275477	 0.8090375895	 0.140391
H	-3.5115536236	-1.3843897149	 0.0766610187	 0.198467
H	 0.5906103285	-1.5105869577	-1.3790986131	 0.133635
65.6444	76.6128	131.723	187.4786	220.034	257.0826	276.7041	327.0457	349.8851	415.228	484.0576	533.0488	561.2132	633.3647	649.324	659.5128	733.7878	812.3118	851.4104	858.8726	898.2567	983.9128	1016.3008	1079.531	1103.7476	1143.9237	1188.5303	1222.0461	1281.4228	1313.3672	1346.8299	1404.8622	1407.5703	1421.0972	1494.1502	1506.741	1662.47	1862.1248	2231.3207	3041.4298	3044.6096	3056.5099	3115.8802	3136.6593	3495.3975	3502.0385	3508.5345	3581.7567
CC(C#C)C([NH3+])C([O-])=O	C[C@@H](C#C)[C@@H](N)C(=O)O	
InChI=1S/C6H9NO2/c1-3-4(2)5(7)6(8)9/h1,4-5H,7H2,2H3,(H,8,9)	InChI=1S/C6H9NO2/c1-3-4(2)5(7)6(8)9/h1,4-5H,7H2,2H3,(H,8,9)/t4-,5+/m0/s1
