16
gdb 14814	2.48034	1.9816	1.22192	2.9606	71.09	-0.2459	-0.0225	0.2234	980.128	0.128816	-346.565641	-346.557568	-346.556624	-346.598622	29.264	
O	-0.0875179656	-0.0637286162	-0.2199429802	-0.254981
C	-0.0331310394	 1.1132339109	 0.0280194632	 0.176498
C	 1.2348494215	 1.9268622079	 0.0156513268	-0.106427
C	 1.0997419117	 3.2206103683	-0.8544301016	-0.244709
C	 0.8418196364	 4.0510963773	 0.427050332	-0.226351
C	 1.4038652243	 2.8656151033	 1.2744419814	-0.170544
C	 0.7488985014	 2.51210999	 2.5174409283	 0.305603
C	 0.1871820349	 2.218431595	 3.539590661	-0.439497
H	-0.9558496773	 1.690496625	 0.2663776255	 0.078164
H	 2.0725496812	 1.2626658941	-0.2005519292	 0.096397
H	 2.0475848874	 3.4683887557	-1.3370967818	 0.119246
H	 0.3150691248	 3.2193453599	-1.6145223372	 0.115626
H	 1.3560794595	 5.0085402585	 0.5274573613	 0.112996
H	-0.2227681848	 4.2033097583	 0.6171282249	 0.121399
H	 2.4748595222	 3.0086728309	 1.4495927102	 0.115657
H	-0.3026786181	 1.9555625311	 4.4444158154	 0.200923
63.6979	97.8543	142.3284	202.4686	307.2986	311.3049	438.7976	512.3385	527.2932	626.807	642.0395	665.0535	751.791	872.8243	878.7944	929.0956	954.7158	979.7829	1024.3136	1083.1987	1092.7097	1137.0945	1212.1966	1231.2658	1244.7597	1266.9105	1273.4077	1309.9463	1349.066	1438.893	1483.2475	1499.2636	1831.1957	2232.8904	2868.7563	3053.8474	3068.2963	3075.706	3107.3862	3116.2727	3134.8843	3503.8466
O=CC1CCC1C#C	O=C[C@H]1CC[C@H]1C#C	
InChI=1S/C7H8O/c1-2-6-3-4-7(6)5-8/h1,5-7H,3-4H2	InChI=1S/C7H8O/c1-2-6-3-4-7(6)5-8/h1,5-7H,3-4H2/t6-,7-/m1/s1
