14
gdb 123707	4.14668	1.61986	1.2693	3.0892	66.92	-0.2309	-0.0121	0.2188	925.3434	0.103259	-436.643521	-436.637555	-436.636611	-436.673754	24.389	
C	 0.0027909123	 1.4841351671	 0.0977685442	-0.317811
C	 1.2970744003	 0.7426960142	 0.006225105	 0.078243
O	 2.01989475	 0.4903416158	 1.2178695685	-0.272195
C	 1.2281789326	-0.3379149689	 1.9472866604	 0.211225
C	 1.2044776267	-0.987654839	 3.1314718121	-0.075824
O	 0.0663026399	-1.7387295035	 3.1704591831	-0.182261
N	-0.6747281978	-1.5660316453	 1.9931000955	-0.249443
C	 0.0359852937	-0.7269916613	 1.2909632455	 0.342908
C	-0.0202658992	-0.0412961365	-0.0147037544	-0.209774
H	-0.279200801	 1.9313050632	 1.0442902597	 0.142293
H	-0.303117742	 2.0380955818	-0.7826726217	 0.132758
H	 1.9605813849	 0.8475617651	-0.8419793976	 0.121774
H	 1.8453972927	-1.052387442	 3.9936047659	 0.154738
H	-0.4145395832	-0.5205603907	-0.9009722661	 0.12337
171.1719	270.9554	408.2367	453.1447	466.8772	577.4094	634.9399	701.4587	743.5671	775.0967	777.3092	791.0183	822.9643	886.1233	947.4233	962.52	973.3093	1031.9429	1057.7151	1081.7598	1089.3394	1120.2219	1178.1848	1186.9942	1280.7351	1307.924	1362.9195	1442.8645	1468.7842	1579.4241	1699.3257	3140.2048	3201.8732	3208.1281	3233.5016	3289.9945
C1C2OC3=CON=C3C12	C1[C@H]2Oc3conc3[C@@H]12	
InChI=1S/C6H5NO2/c1-3-4(1)9-5-2-8-7-6(3)5/h2-4H,1H2	InChI=1S/C6H5NO2/c1-3-4(1)9-5-2-8-7-6(3)5/h2-4H,1H2/t3-,4+/m0/s1
