20
gdb 113714	2.44023	1.02748	0.79919	2.9424	79.81	-0.2691	0.0343	0.3033	1460.7986	0.16964	-403.146041	-403.135912	-403.134968	-403.18187	36.189	
C	-0.2585455182	 1.4915665961	 0.1617571208	-0.394929
C	 0.063163705	 0.0078034848	-0.1074784857	-0.166203
C	 0.8075855316	-0.1389522783	-1.3667144014	 0.278489
N	 1.4003493907	-0.2559616927	-2.352277048	-0.330956
C	 0.8371963069	-0.6174005322	 1.0496583419	 0.000328
C	 0.1004770925	-1.2286474817	 2.2160232201	-0.306743
C	 0.9131717236	-2.1056416437	 1.2959420919	 0.01091
C	 0.2450933957	-3.1216919243	 0.4054590713	-0.109026
O	 0.0207924814	-4.2898027071	 1.1833235952	-0.419109
H	 0.6613119063	 2.0702924446	 0.2839505015	 0.137237
H	-0.82987346	 1.9275069902	-0.6614403205	 0.135031
H	-0.8439813259	 1.5750709422	 1.0810298015	 0.131024
H	-0.8832613224	-0.5293739484	-0.2381043494	 0.123363
H	 1.743260898	-0.0661308963	 1.2866455514	 0.100385
H	 0.4615840287	-1.0394679088	 3.22031695	 0.119859
H	-0.9803723593	-1.3047672601	 2.1398031779	 0.116012
H	 1.8620609572	-2.4584265429	 1.6896339442	 0.099398
H	-0.7046390312	-2.726568439	 0.0111904574	 0.079467
H	 0.890556299	-3.3375711584	-0.4594751243	 0.107773
H	-0.2760665796	-4.988255184	 0.5923314043	 0.287689
43.924	80.5637	111.3408	156.9009	210.1431	228.5056	251.7314	270.4156	304.6147	344.0455	430.1634	520.3964	545.5523	620.2273	776.5682	811.5931	851.0648	887.6648	915.2829	973.9716	1018.4258	1039.4055	1066.2004	1076.3791	1081.1715	1109.84	1142.1719	1175.1355	1193.8728	1239.182	1258.1873	1282.7658	1287.8616	1324.8915	1382.2093	1407.2892	1424.0026	1473.5536	1492.4529	1496.0828	1498.7419	1519.0923	2353.6301	2968.2599	3002.5388	3045.1974	3048.9137	3125.298	3128.3823	3130.0636	3140.8702	3154.3843	3215.4036	3826.6726
CC(C#N)C1CC1CO	C[C@@H](C#N)[C@H]1C[C@H]1CO	
InChI=1S/C7H11NO/c1-5(3-8)7-2-6(7)4-9/h5-7,9H,2,4H2,1H3	InChI=1S/C7H11NO/c1-5(3-8)7-2-6(7)4-9/h5-7,9H,2,4H2,1H3/t5-,6-,7+/m0/s1
