21
gdb 72956	2.53242	1.46924	1.17744	0.7933	89.94	-0.2355	0.0546	0.2901	1157.6495	0.180498	-349.901792	-349.892327	-349.891383	-349.935132	36.882	
C	-0.059086085	 1.5655398226	 0.0511932817	-0.499123
C	-0.0075755444	 0.0645538603	 0.0654122406	 0.307927
C	-1.2663820594	-0.819681472	-0.0071406874	-0.294432
C	-0.6238455306	-1.8060453775	 1.0194571	-0.250497
C	 0.6235442099	-0.9199535824	 1.0539014727	-0.124075
C	 1.2245710635	-0.7497592695	-0.3416252093	 0.091583
C	 1.2121871363	-1.8423902728	-1.4051629209	-0.476343
C	 2.4610684216	-0.0049523926	-0.3366049809	 0.257184
C	 3.5099180495	 0.5852198557	-0.3620273364	-0.436072
H	 0.9222285228	 2.0017496524	 0.2512632839	 0.135967
H	-0.3954938695	 1.9351597985	-0.9255184277	 0.11799
H	-0.7630192973	 1.9379158272	 0.8043524256	 0.112097
H	-2.1384358062	-0.3083331319	 0.4080627278	 0.103866
H	-1.5394521136	-1.2154407437	-0.9900110568	 0.097473
H	-1.1560257391	-1.8072331151	 1.9732634494	 0.105407
H	-0.4847069985	-2.8447594878	 0.7044408137	 0.099834
H	 1.2331664664	-0.7154448138	 1.9263802044	 0.091857
H	 0.2935032263	-2.4307229326	-1.3872664232	 0.120627
H	 1.3132662778	-1.4037021699	-2.4027793	 0.12552
H	 2.0532428089	-2.526262556	-1.2551066838	 0.126639
H	 4.4341756405	 1.1071977108	-0.3794018533	 0.18657
130.7755	153.8743	160.4517	189.5586	221.3039	261.7214	290.8917	331.8863	405.4337	428.455	517.5445	533.8365	577.2315	640.3054	643.455	671.9537	700.8092	790.9661	876.4472	921.0867	939.2235	962.2588	972.5748	1003.8171	1011.6519	1097.0905	1107.7406	1125.4204	1162.5232	1196.383	1218.8356	1231.4903	1250.8881	1278.8777	1303.021	1402.8609	1412.697	1423.8065	1472.1856	1490.163	1491.9562	1496.878	1498.7457	1507.8624	2226.8537	3022.5046	3043.7268	3048.5824	3055.6131	3076.2068	3092.8818	3104.3132	3111.3329	3123.1115	3134.6185	3179.688	3503.2335
CC12CCC1C2(C)C#C	C[C@]12CC[C@H]1[C@]2(C)C#C	
InChI=1S/C9H12/c1-4-8(2)7-5-6-9(7,8)3/h1,7H,5-6H2,2-3H3	InChI=1S/C9H12/c1-4-8(2)7-5-6-9(7,8)3/h1,7H,5-6H2,2-3H3/t7-,8-,9-/m0/s1
