19
gdb 83143	2.03285	1.84903	1.47139	3.566	76.09	-0.2309	0.022	0.253	1021.8829	0.159721	-419.226955	-419.218189	-419.217245	-419.259926	33.087	
C	-0.1985967111	 1.4884678359	-0.0078989982	-0.328128
N	 0.0789671282	 0.0595995414	 0.0614769757	-0.120745
C	 1.4007772735	-0.4880030232	-0.1798338511	-0.092665
C	 2.6172693733	 0.4312654143	-0.0916427827	-0.20311
N	 2.5735392368	 0.9119516582	 1.2778962276	-0.306682
C	 1.5995588709	 0.3574164666	 2.0674058133	 0.355435
O	 1.4293492062	 0.5706663272	 3.2490586896	-0.380654
C	 0.7798642603	-0.5716768711	 1.1849829901	 0.203357
C	 0.148555021	-1.7707485209	 1.8379928103	-0.474352
H	 0.6007137266	 2.144234229	 0.363550361	 0.114361
H	-0.4024921381	 1.7477240433	-1.0516967624	 0.123626
H	-1.1025746641	 1.6930624941	 0.5726790308	 0.135858
H	 1.452243476	-1.3333794273	-0.8600187468	 0.099177
H	 3.5346932856	-0.1352443543	-0.2963994752	 0.117914
H	 2.5675134908	 1.2578105211	-0.8128399246	 0.116418
H	 3.1863686028	 1.6242632853	 1.6423200343	 0.251519
H	-0.486681752	-1.4490709743	 2.6687690031	 0.142104
H	-0.4618643993	-2.3160418863	 1.1149833975	 0.124297
H	 0.9094041125	-2.4439067388	 2.2459347376	 0.122271
110.0827	167.1518	175.0746	221.4155	231.6682	246.7374	264.6646	390.6823	474.8242	487.6606	524.4267	592.2493	686.0344	700.4526	779.9362	795.253	839.064	924.6432	984.5378	1009.4753	1054.4072	1092.6199	1110.6887	1150.4512	1163.6562	1182.9478	1195.6214	1225.5636	1293.473	1311.1927	1347.6148	1404.3875	1426.4829	1443.8129	1464.7676	1482.5391	1492.6108	1493.2102	1503.3136	1525.046	1820.1356	3005.5111	3012.1394	3040.5907	3043.3771	3078.0486	3108.8619	3110.2763	3133.5107	3149.3191	3637.008
CN1C2CNC(=O)C12C	CN1[C@H]2CNC(=O)[C@@]12C	
InChI=1S/C6H10N2O/c1-6-4(8(6)2)3-7-5(6)9/h4H,3H2,1-2H3,(H,7,9)	InChI=1S/C6H10N2O/c1-6-4(8(6)2)3-7-5(6)9/h4H,3H2,1-2H3,(H,7,9)/t4-,6-,8?/m0/s1
