21
gdb 122889	4.23727	0.65285	0.58696	1.5397	82.43	-0.2645	0.0487	0.3131	1881.0449	0.179334	-424.181564	-424.170629	-424.169684	-424.218755	38.68	
C	-0.1042528406	 1.5768163054	-0.0721382571	-0.384619
C	 0.0221098847	 0.041367712	-0.0615541004	-0.167012
C	 0.7397177253	-0.4870697688	-1.314956384	-0.048353
O	-0.0217646487	-0.1359868463	-2.4506489899	-0.264574
C	 0.5308675305	-0.5988551806	-3.6708320736	-0.070413
C	-0.3254699142	-0.0310662646	-4.7909969721	-0.060799
O	-0.3088118209	 1.3823067488	-4.7938587896	-0.420739
C	 0.7159792629	-0.4321821592	 1.1338449862	 0.312565
C	 1.309981953	-0.8141003866	 2.1066254212	-0.468337
H	 0.8852212124	 2.0443356175	-0.0708651873	 0.125068
H	-0.6432193792	 1.9005496832	-0.9649533878	 0.124261
H	-0.645329405	 1.9249264289	 0.8109928818	 0.127044
H	-0.9884959832	-0.3886490414	-0.0720025094	 0.116291
H	 1.7525176809	-0.0568913247	-1.3766757557	 0.10031
H	 0.8471802283	-1.5802304167	-1.2473525091	 0.10143
H	 1.5690275754	-0.2460024599	-3.7764256246	 0.098299
H	 0.5368082604	-1.7007159065	-3.7034297976	 0.089733
H	 0.0682364096	-0.3612729436	-5.7578191141	 0.109567
H	-1.3502175055	-0.4232866807	-4.6913470655	 0.093953
H	-0.5117722688	 1.6496769264	-3.8902169465	 0.289363
H	 1.8220938427	-1.1543200724	 2.9723991853	 0.196962
34.5439	58.2075	101.2322	124.4646	162.9632	193.8776	217.4526	258.46	315.13	336.6206	404.3849	438.7965	501.2109	532.6617	578.084	631.0602	647.394	823.1755	875.8465	906.4619	934.1966	945.8413	1047.7002	1082.7096	1094.1014	1125.1069	1135.6831	1154.049	1171.5346	1236.7427	1258.722	1270.6194	1310.2704	1345.4093	1381.2784	1386.6563	1401.0534	1432.5096	1445.1826	1493.7625	1497.294	1498.2485	1501.9305	1527.0089	2237.0234	2965.2681	2976.0027	2979.5114	3007.3155	3011.8567	3025.8724	3048.8719	3080.4835	3121.305	3136.8473	3504.9492	3803.4772
CC(COCCO)C#C	C[C@@H](COCCO)C#C	
InChI=1S/C7H12O2/c1-3-7(2)6-9-5-4-8/h1,7-8H,4-6H2,2H3	InChI=1S/C7H12O2/c1-3-7(2)6-9-5-4-8/h1,7-8H,4-6H2,2H3/t7-/m1/s1
