20
gdb 65506	2.89964	1.41402	1.26363	2.7887	78.12	-0.2356	0.0862	0.3218	1090.5432	0.170511	-403.077025	-403.068702	-403.067758	-403.10969	32.5	
C	 0.0698809798	 1.7436391579	-0.3437770505	-0.450078
C	 0.0072284964	 0.2493700917	-0.0517012602	 0.303263
C	 0.9896991281	-0.7120186687	-0.7934048251	-0.31908
C	 1.5079260273	-1.0999270272	 0.5869625393	-0.005099
C	 1.9853146468	 0.0774864722	 1.3326440676	-0.246371
N	 0.5347259	-0.181292924	 1.3065400383	-0.151168
C	-1.4273385489	-0.2213081028	-0.2063478548	 0.050079
C	-2.1105009262	-1.08892766	 0.7597462308	-0.181634
O	-2.3872483219	 0.3154189445	 0.6978755335	-0.247779
H	 1.0864656939	 2.1411275907	-0.297955043	 0.112745
H	-0.31721421	 1.9469240709	-1.3484287389	 0.118081
H	-0.5526493165	 2.2824721575	 0.3760752098	 0.147764
H	 0.47328302	-1.5208825024	-1.3154419338	 0.110224
H	 1.7177351767	-0.2612413133	-1.4746942656	 0.102403
H	 1.6813677753	-2.1155534567	 0.9278937029	 0.093088
H	 2.4118319406	-0.0865453869	 2.3175786252	 0.123158
H	 2.4016013879	 0.9292695794	 0.8020200692	 0.112874
H	-1.7608280706	-0.2444228447	-1.2475556191	 0.087081
H	-2.9186699905	-1.7360596524	 0.4203038072	 0.10487
H	-1.5725048481	-1.4078656356	 1.6473391971	 0.135576
93.0007	169.9959	185.7509	213.2123	263.6376	289.4458	382.5036	450.3266	461.3518	542.335	631.1414	757.8217	764.2953	822.5308	856.7075	872.5065	893.7393	921.6689	962.3045	989.0227	1006.8901	1015.0979	1064.4084	1102.5252	1113.6617	1122.6919	1140.8238	1159.8632	1168.0788	1175.0646	1204.7494	1247.2175	1261.6188	1277.5195	1303.4464	1366.6963	1403.7979	1430.4431	1482.907	1489.3428	1490.9443	1508.9646	1516.8174	3039.2329	3050.7989	3069.8173	3091.8938	3104.9969	3106.9619	3116.5134	3126.9657	3161.1185	3199.1646	3201.552
CC1(CC2CN12)C1CO1	C[C@]1(C[C@H]2CN12)[C@H]1CO1	
InChI=1S/C7H11NO/c1-7(6-4-9-6)2-5-3-8(5)7/h5-6H,2-4H2,1H3	InChI=1S/C7H11NO/c1-7(6-4-9-6)2-5-3-8(5)7/h5-6H,2-4H2,1H3/t5-,6+,7-,8?/m0/s1
