14
gdb 18781	3.98793	2.47961	2.05032	2.9047	62.26	-0.2352	-0.012	0.2232	683.7112	0.109211	-378.641927	-378.636335	-378.635391	-378.671471	22.385	
N	-0.0637175947	 1.2437688031	-0.1849076731	-0.531133
C	-0.0255371043	 0.0002967477	-0.0175364646	 0.398306
C	-1.088153872	-1.0817328309	 0.08501136	 0.012279
O	-1.1331576857	-1.7918205766	-1.1899098489	-0.298686
C	 0.0627574805	-2.5435432361	-0.8787697174	 0.090578
C	 1.335087246	-1.7009064392	-1.1050546325	-0.197991
N	 1.0782985031	-0.9379443411	 0.1860854834	-0.203625
C	 0.0541901364	-2.0090244943	 0.5698508	-0.039761
H	 0.8836208056	 1.6315964697	-0.2158101804	 0.227495
H	-2.0780404626	-0.9065468178	 0.5058394573	 0.099019
H	 0.0011523731	-3.5757916835	-1.22703447	 0.093104
H	 2.2552711334	-2.2845687659	-1.0034799831	 0.121012
H	 1.3784578383	-1.0819450414	-2.0045069336	 0.12982
H	 0.1512646429	-2.5366953737	 1.5142446731	 0.099583
160.0088	280.9638	401.7671	437.8776	615.9442	682.0544	749.217	791.2064	830.4018	839.0154	867.2803	894.1041	927.4499	953.618	975.9712	987.7603	1013.5182	1022.4503	1079.3591	1163.8177	1171.3836	1187.6188	1211.4628	1245.9937	1256.3794	1284.4818	1310.7071	1319.8484	1481.8891	1803.2335	3051.2367	3101.1005	3119.0738	3121.2165	3161.6573	3437.1081
N=C1C2OC3CN1C23	[NH][C]1[C@H]2O[C@H]3CN1[C@@H]23	
InChI=1S/C5H6N2O/c6-5-4-3-2(8-4)1-7(3)5/h2-4,6H,1H2	InChI=1S/C5H6N2O/c6-5-4-3-2(8-4)1-7(3)5/h2-4,6H,1H2/t2-,3+,4-/m0/s1
