19
gdb 35424	3.20293	1.35627	1.304	1.0367	79.23	-0.2392	0.0486	0.2878	1056.3699	0.160976	-385.848165	-385.840575	-385.83963	-385.879993	30.74	
C	-0.2568224144	-1.2061427925	-0.4576480588	-0.512436
C	-0.127163984	-0.0344002009	-0.217474847	 0.356747
C	 0.0240287762	 1.3921402303	 0.064236993	-0.170381
C	-0.6804538882	 1.7827331959	 1.4103783128	-0.219335
C	 0.3398253062	 1.8713311509	 2.5426840735	 0.100089
C	 1.4633120195	 0.8198997207	 2.4234720149	-0.263067
C	 2.0664816699	 1.895196126	 1.4951049795	 0.100089
C	 1.5351647524	 1.813355399	 0.0661408589	-0.219338
O	 1.2929005328	 2.9161185212	 2.1903477482	-0.30085
H	-0.375320903	-2.238409591	-0.6761669228	 0.196638
H	-0.476911093	 1.9283327252	-0.7492142559	 0.111065
H	-1.148462938	 2.7670758928	 1.3096374166	 0.110661
H	-1.4689574038	 1.0595914831	 1.6385908308	 0.109974
H	-0.1242573793	 2.0473386614	 3.5170093034	 0.075109
H	 2.0281120254	 0.7291182565	 3.352322161	 0.108395
H	 1.228988561	-0.1631375664	 2.0148533576	 0.120898
H	 3.1412312735	 2.0924716153	 1.5358060629	 0.07511
H	 2.1161932527	 1.1091435719	-0.536556668	 0.109973
H	 1.6420099243	 2.8056433106	-0.3833710104	 0.110659
103.8116	155.3535	245.3992	304.3974	372.1864	381.8059	506.2418	507.0608	580.5877	617.4407	629.3634	686.7427	765.279	824.9431	847.6888	871.1361	873.5235	941.8785	942.1445	954.5468	978.3714	1044.0956	1068.8464	1089.4989	1104.6258	1113.0664	1184.6156	1214.3793	1221.8335	1259.4058	1269.4663	1322.1926	1340.1372	1346.7853	1353.6491	1365.2365	1384.6339	1469.5193	1476.358	1495.1369	2228.5299	3034.1398	3048.1754	3052.4145	3071.5858	3071.8723	3089.8018	3097.5682	3098.99	3150.6376	3503.0713
C#CC1CC2CC(C1)O2	C#C[C@H]1C[C@H]2C[C@@H](C1)O2	
InChI=1S/C8H10O/c1-2-6-3-7-5-8(4-6)9-7/h1,6-8H,3-5H2	InChI=1S/C8H10O/c1-2-6-3-7-5-8(4-6)9-7/h1,6-8H,3-5H2/t6-,7-,8+
