15
gdb 17084	5.36842	1.52311	1.4485	4.703	73.37	-0.2485	-0.0482	0.2003	880.272	0.12168	-325.514376	-325.508272	-325.507327	-325.544604	24.203	
N	 0.0515193208	-1.1057617072	-0.0377467277	-0.351586
C	-0.0031577456	 0.0524071256	-0.0165145777	 0.160226
C	-0.0290652252	 1.4614916376	 0.0095228968	 0.253147
C	-1.0673080783	 2.3159083869	 0.0178900512	-0.177754
C	-0.3963416432	 3.6870684016	 0.0481845751	-0.067727
C	 0.7397315302	 3.4665846936	-1.0150233835	-0.21067
C	 1.196739154	 2.4001768066	 0.0360781933	-0.119685
C	 0.723957099	 3.4270174801	 1.1191377672	-0.210669
H	-2.1261480589	 2.1029100235	 0.0061871404	 0.131747
H	-1.0293336151	 4.5724155318	 0.0599239755	 0.077161
H	 0.4457417411	 3.1102683887	-2.0045144239	 0.108142
H	 1.4244721165	 4.3158230839	-1.091141313	 0.106584
H	 2.186055119	 1.9472664901	 0.0349898712	 0.086357
H	 1.4072457582	 4.2726793985	 1.2367910983	 0.106585
H	 0.4154808877	 3.0343471984	 2.0902897668	 0.108141
133.9051	169.1562	434.869	470.5917	491.9841	563.2479	574.392	637.897	788.3454	805.9197	838.6605	870.2318	875.4588	886.5336	935.1322	1003.3601	1007.93	1065.3256	1075.0673	1107.7456	1109.2073	1182.2696	1219.2982	1227.3547	1232.9044	1245.0913	1270.9532	1308.9372	1482.8346	1519.213	1640.6297	2331.0705	3056.4173	3064.7769	3126.5944	3131.1943	3137.1636	3143.695	3246.0085
N#CC1=CC2CC1C2	N#CC1=C[C@@H]2C[C@H]1C2	
InChI=1S/C7H7N/c8-4-7-3-5-1-6(7)2-5/h3,5-6H,1-2H2	InChI=1S/C7H7N/c8-4-7-3-5-1-6(7)2-5/h3,5-6H,1-2H2/t5-,6+
