20
gdb 12145	5.48665	1.27567	1.26062	0.0002	80.09	-0.254	0.0866	0.3406	1066.2397	0.177152	-311.829618	-311.821936	-311.820991	-311.863009	30.317	
C	 0.3113181035	 1.5364639237	 0.007291963	-0.316821
C	 1.3893193791	 0.4751081792	-0.008761145	-0.320366
C	-0.0575592284	 0.082743819	 0.0030580694	 0.391269
C	-0.8052286004	-0.6776864998	 1.1134280878	-0.380486
C	-1.6135158469	-1.3845688093	 0.0101717834	 0.391269
C	-2.0900156238	-2.8060068148	 0.0071461058	-0.320366
C	-3.0863104809	-1.6675995107	 0.0228256584	-0.316821
C	-0.8265307402	-0.6658322965	-1.1007996888	-0.380486
H	 0.1621258149	 2.0998475404	 0.9234323422	 0.108608
H	 0.1445860002	 2.1096080875	-0.8997244612	 0.108608
H	 1.951344494	 0.3309437327	-0.9265482499	 0.108583
H	 1.9688827491	 0.3211840477	 0.8964473526	 0.108583
H	-0.1741998861	-1.34393559	 1.7119376133	 0.095964
H	-1.3930007644	-0.0511114985	 1.792869494	 0.096057
H	-1.983465104	-3.3796971933	-0.9085586053	 0.108583
H	-1.9659268508	-3.3894568792	 0.9144369994	 0.108583
H	-3.6355466345	-1.4814690092	 0.9407950044	 0.108608
H	-3.6530864365	-1.4717084591	-0.8823617966	 0.108608
H	-1.4272012334	-0.0320796537	-1.7620602418	 0.096057
H	-0.2072020654	-1.3255705711	-1.7184372377	 0.095964
9.3489	224.8465	236.0419	307.1738	316.7047	368.0217	401.7768	432.1449	657.1883	772.184	775.913	821.0141	835.8034	863.7571	869.6499	900.6927	907.3618	911.8516	974.8412	1006.5047	1007.5318	1047.1729	1054.2962	1073.3282	1074.5318	1102.5831	1123.8005	1186.9134	1188.0101	1207.0186	1213.1407	1230.7615	1240.1402	1276.4399	1366.1138	1389.9659	1464.1948	1464.2247	1475.1652	1491.8837	1499.1817	1508.1935	3026.1463	3030.7175	3074.2735	3074.2838	3116.1256	3116.3033	3120.3335	3120.4455	3193.3225	3193.5946	3208.8174	3208.8487	9.3449	224.8464	236.0417	307.1736	316.7046	368.0217	401.7766	432.1449	657.1882	772.1839	775.913	821.0141	835.8034	863.7571	869.6499	900.6928	907.3619	911.8517	974.8412	1006.5049	1007.5318	1047.1729	1054.2962	1073.3282	1074.5319	1102.5833	1123.8006	1186.9135	1188.0102	1207.0187	1213.1408	1230.7617	1240.1404	1276.4399	1366.1138	1389.966	1464.195	1464.2248	1475.1655	1491.8839	1499.1817	1508.1935	3026.1463	3030.7175	3074.2735	3074.2838	3116.1256	3116.3032	3120.3334	3120.4455	3193.3225	3193.5945	3208.8174	3208.8487
C1CC11CC2(CC2)C1	C1CC21CC1(CC1)C2	
InChI=1S/C8H12/c1-2-7(1)5-8(6-7)3-4-8/h1-6H2	InChI=1S/C8H12/c1-2-7(1)5-8(6-7)3-4-8/h1-6H2
