17
gdb 29591	2.89946	1.21936	0.96343	0.7006	79.27	-0.2199	0.0207	0.2406	1228.4809	0.134853	-384.688567	-384.67977	-384.678826	-384.722455	32.458	
C	-0.2608390587	 1.4685852086	 0.0843566914	-0.510267
C	-0.0668010354	-0.0141403359	 0.0182349695	 0.161778
C	 0.0439426984	-0.7869027227	-1.0939878362	-0.093926
O	 0.2145523696	-2.0981790903	-0.7694851057	-0.147587
C	 0.2114691126	-2.1630251797	 0.5862176441	-0.102276
C	 0.0445995779	-0.9296850636	 1.1302958925	 0.175495
C	-0.0008702047	-0.5925489738	 2.5983040989	-0.476592
C	-1.2908401985	-0.0594041802	 3.0388898012	 0.318802
C	-2.3505810772	 0.3814431487	 3.3952854251	-0.462661
H	 0.5784597808	 1.9628709038	 0.5884769362	 0.126164
H	-0.3446581563	 1.8992782765	-0.9171488426	 0.123214
H	-1.1654773487	 1.7254359902	 0.6450288887	 0.145231
H	 0.0217865079	-0.56382835	-2.1484170594	 0.13299
H	 0.3352327239	-3.14509571	 1.013452493	 0.134994
H	 0.2369698069	-1.489395798	 3.1828511897	 0.137828
H	 0.7835609394	 0.1382806117	 2.8394138793	 0.13933
H	-3.2882093379	 0.7644453947	 3.7137508041	 0.197483
54.5945	104.911	137.8853	217.7499	245.979	303.6572	334.555	384.6032	451.7951	617.06	620.6726	625.9524	639.3618	671.9822	731.9396	761.1149	784.7927	887.2808	937.8984	954.2486	1016.6423	1067.758	1086.9392	1164.5042	1184.2911	1217.0515	1265.4951	1305.13	1340.6337	1400.8206	1421.2684	1461.1387	1481.2245	1498.5366	1584.2448	1655.5985	2237.8424	3010.2556	3028.7284	3053.1292	3083.1712	3114.3795	3267.4813	3272.7733	3506.3541
CC1=COC=C1CC#C	Cc1cocc1CC#C	
InChI=1S/C8H8O/c1-3-4-8-6-9-5-7(8)2/h1,5-6H,4H2,2H3	InChI=1S/C8H8O/c1-3-4-8-6-9-5-7(8)2/h1,5-6H,4H2,2H3
