18
gdb 11755	5.12054	1.34592	1.2456	1.5926	68.32	-0.2389	0.0753	0.3142	1018.1785	0.152683	-384.89226	-384.884094	-384.88315	-384.924739	30.544	
C	-0.2667210461	 1.3068653189	-0.0384392407	-0.25602
O	 0.1706201581	-0.0353801362	 0.0904105563	-0.279495
C	 0.775042349	-0.5214189361	-1.0478340681	 0.448988
C	-0.0035015653	-1.0101279085	-2.2358942073	-0.334744
C	 0.8729861991	-1.9789513312	-1.46504025	-0.146234
C	 2.3323509276	-1.7765848347	-1.8537394414	 0.123905
O	 2.5990061243	-2.0737225902	-3.2075454079	-0.430458
C	 2.2385735708	-0.2632525341	-1.4304440089	-0.349885
H	 0.5724998284	 1.9917946055	-0.2261894942	 0.111062
H	-0.9943797141	 1.4145794326	-0.8548162673	 0.112055
H	-0.7413240725	 1.5803707697	 0.9065129662	 0.126354
H	-1.0644407158	-1.1397298315	-2.0481372083	 0.113155
H	 0.2573808701	-0.7273543736	-3.2513440171	 0.117165
H	 0.463017576	-2.8628271638	-0.9933458825	 0.092201
H	 3.0092622527	-2.3277952482	-1.188091814	 0.072755
H	 3.5201214435	-1.8586643555	-3.3854561363	 0.283185
H	 2.4198169632	 0.4668437973	-2.2256962926	 0.091505
H	 2.867387961	-0.0345996204	-0.5664959259	 0.104505
86.1825	116.3135	179.	231.4415	285.903	317.1037	391.2024	415.9294	440.6323	567.5728	637.6583	696.4289	832.4286	878.0475	910.1186	953.0033	970.6884	980.1521	1025.8483	1055.0407	1065.3281	1091.3829	1122.8428	1165.6177	1180.84	1203.8645	1211.3226	1231.1765	1243.6675	1283.5282	1329.0973	1382.8463	1419.1845	1468.0214	1476.8858	1488.0144	1505.4615	1509.1352	2991.2125	3010.4539	3043.6624	3046.6878	3110.2905	3121.3408	3121.9669	3194.2843	3214.3132	3816.8507
COC12CC1C(O)C2	CO[C@]12C[C@H]1[C@@H](O)C2	
InChI=1S/C6H10O2/c1-8-6-2-4(6)5(7)3-6/h4-5,7H,2-3H2,1H3	InChI=1S/C6H10O2/c1-8-6-2-4(6)5(7)3-6/h4-5,7H,2-3H2,1H3/t4-,5-,6-/m0/s1
