14
gdb 50930	2.20189	1.17352	0.80558	3.8943	64.24	-0.3033	-0.0281	0.2752	1329.4932	0.098301	-473.812195	-473.803272	-473.802328	-473.848126	29.633	
O	 0.1020111815	-0.0612844214	 0.3857634826	-0.245886
C	 0.0851367575	 1.1127941734	 0.201948094	 0.18076
O	 1.2129327577	 1.8703400875	 0.2769299433	-0.181926
C	 1.0828058841	 3.2745967855	 0.0400949	-0.077131
C	 0.9035376862	 3.9846102835	 1.3184155721	 0.294116
N	 0.7635711527	 4.5424416035	 2.3195651365	-0.296551
C	 2.3351037052	 3.7382602975	-0.6843616446	 0.076521
C	 2.3690848035	 3.7598757972	-2.1488226789	-0.176883
O	 2.1995560405	 4.9615142123	-1.3893538758	-0.21794
H	-0.8136309999	 1.7054658887	-0.053344457	 0.098737
H	 0.213585962	 3.4856981201	-0.5957990589	 0.14289
H	 3.2583148778	 3.6128291282	-0.1215642273	 0.135441
H	 3.3244323102	 3.6583255452	-2.6584760874	 0.140254
H	 1.497421751	 3.4379392389	-2.7165358686	 0.127598
23.2946	59.0982	129.4469	139.5096	163.911	245.1708	338.677	371.7749	426.9437	522.2786	542.7329	720.7183	856.543	882.2343	928.5491	1003.9854	1034.7141	1051.407	1098.7074	1119.865	1156.1452	1164.8512	1184.9333	1276.8941	1288.4185	1339.073	1429.3481	1443.597	1528.8063	1885.2787	2366.8243	2964.0893	3039.0958	3095.0267	3139.2241	3188.0397
O=COC(C#N)C1CO1	O=CO[C@@H](C#N)[C@H]1CO1	
InChI=1S/C5H5NO3/c6-1-4(9-3-7)5-2-8-5/h3-5H,2H2	InChI=1S/C5H5NO3/c6-1-4(9-3-7)5-2-8-5/h3-5H,2H2/t4-,5+/m0/s1
