25
gdb 109298	2.47908	1.09821	0.82898	0.1518	95.8	-0.2249	0.0342	0.259	1523.4798	0.229885	-352.393423	-352.383584	-352.38264	-352.428029	37.852	
C	-0.2055681442	 1.5645024862	 0.0050562631	-0.369976
C	 0.0508617132	 0.0469971145	 0.0300119063	-0.272074
C	 0.7808509895	-0.4693217893	-1.1887257616	 0.312795
C	 2.0619604481	-0.8441673556	-1.135762666	-0.141582
C	 2.8436151261	-1.3804590215	-2.3062136231	-0.262967
C	 1.9334118278	-1.7860566691	-3.4727129797	-0.189253
C	 0.8552508965	-0.7254437196	-3.7319261607	 0.036029
C	 0.0065331788	-1.0525952118	-4.9632258891	-0.402131
C	-0.0141292969	-0.5539260152	-2.4751808359	-0.286083
H	 0.7388420031	 2.1159053555	-0.0408127332	 0.117987
H	-0.8068758739	 1.8614393511	-0.8599571155	 0.116825
H	-0.7423551181	 1.883104144	 0.9043621596	 0.110517
H	 0.6257317227	-0.2026997511	 0.9288229995	 0.097037
H	-0.9136804169	-0.4723406151	 0.1234056348	 0.094166
H	 2.5957265273	-0.76451137	-0.1897648277	 0.069178
H	 3.5684906035	-0.6229254855	-2.6423207895	 0.102485
H	 3.4509038819	-2.2367410815	-1.9851641686	 0.097234
H	 2.5284691714	-1.9548265305	-4.3777884717	 0.085432
H	 1.441418936	-2.7400143065	-3.2375282542	 0.092264
H	 1.3676751001	 0.2311167229	-3.912603438	 0.070362
H	-0.501929477	-2.0169276334	-4.8439184804	 0.110533
H	-0.7629514327	-0.291370391	-5.1327377975	 0.107737
H	 0.6232780332	-1.1121285504	-5.8664031258	 0.108074
H	-0.7218737163	-1.3957194586	-2.4001339917	 0.098778
H	-0.6446707031	 0.3381485216	-2.5852243735	 0.096632
70.0021	93.4296	172.9695	200.4919	211.8557	238.1435	279.1895	315.799	373.3547	423.1872	441.6737	472.0993	529.8082	624.7324	780.7862	794.086	835.4295	856.5629	888.5494	911.3966	933.7975	964.0333	972.9319	994.78	1054.845	1066.9034	1084.5142	1108.125	1120.6454	1159.9085	1173.3885	1181.4531	1249.6613	1272.4567	1288.197	1318.0524	1330.4271	1353.3223	1370.868	1375.1718	1387.7238	1398.964	1407.8456	1411.9897	1470.8807	1479.3915	1482.2815	1494.2492	1496.5646	1499.4671	1500.9459	1507.3912	1736.2237	2975.3221	2988.1723	2993.6394	3005.7065	3012.5941	3022.9204	3031.0883	3034.3969	3036.8126	3058.3958	3059.6788	3088.55	3093.9618	3103.9538	3109.144	3132.5009
CCC1=CCCC(C)C1	CCC1=CCC[C@@H](C)C1	
InChI=1S/C9H16/c1-3-9-6-4-5-8(2)7-9/h6,8H,3-5,7H2,1-2H3	InChI=1S/C9H16/c1-3-9-6-4-5-8(2)7-9/h6,8H,3-5,7H2,1-2H3/t8-/m1/s1
