16
gdb 81283	2.86375	1.5957	1.28096	3.2916	71.05	-0.2307	-0.0614	0.1693	986.0397	0.126789	-437.877746	-437.870781	-437.869837	-437.908957	27.977	
O	 0.1404264771	 1.358322732	-0.1051390511	-0.444901
C	 0.0978412288	-0.0289133766	-0.0394862622	 0.19745
C	 0.1951995566	-0.634844901	 1.4121900389	-0.104837
N	-1.2753057199	-0.3770016913	 1.4994047551	-0.339472
C	-1.3548548645	-0.6302045077	 0.0275693362	-0.171585
C	-1.3058829542	-2.1204845417	-0.3123921157	 0.402609
O	-2.0052392982	-2.6378545003	-1.1573783477	-0.337613
C	-0.2677493558	-2.8412018943	 0.4696583591	-0.191547
C	 0.4969180965	-2.1069278417	 1.2942272164	-0.045707
H	-0.493758776	 1.6877362731	 0.5458543752	 0.295756
H	 0.7839475881	-0.4227250938	-0.7892712346	 0.107103
H	 0.8089851599	-0.1113169001	 2.1484505554	 0.081775
H	-1.7811823608	-1.0502883335	 2.0725906088	 0.2212
H	-2.1542317011	-0.120545871	-0.5145410717	 0.092674
H	-0.1512324893	-3.9080390298	 0.3148012307	 0.118942
H	 1.3289493126	-2.5322328724	 1.8476323271	 0.118155
133.6423	207.6748	301.798	350.8494	407.5368	443.8122	484.3989	511.052	521.1607	674.5069	718.1042	774.1691	810.2705	877.6469	903.8558	912.1231	969.9633	995.4957	1002.4159	1007.2082	1092.3908	1128.939	1142.6549	1159.7741	1210.5404	1219.6297	1236.5136	1268.8808	1309.6216	1338.9063	1348.6634	1383.8829	1441.279	1645.4511	1790.1835	3089.2644	3098.7094	3124.7749	3172.7983	3204.6342	3472.8766	3765.6779
OC1C2NC1C(=O)C=C2	O[C@H]1[C@H]2N[C@@H]1C(=O)C=C2	
InChI=1S/C6H7NO2/c8-4-2-1-3-6(9)5(4)7-3/h1-3,5-7,9H	InChI=1S/C6H7NO2/c8-4-2-1-3-6(9)5(4)7-3/h1-3,5-7,9H/t3-,5+,6-/m0/s1
