19
gdb 89722	2.57936	1.41554	1.05896	1.8273	78.14	-0.2434	0.0014	0.2448	1172.8427	0.158298	-423.021493	-423.012655	-423.011711	-423.055231	33.452	
C	-0.2171624773	 1.4613975562	 0.0530789831	-0.507625
C	-0.0969550308	-0.0262392372	-0.0313667522	 0.272492
C	-0.1736200725	-0.8050546611	-1.1158351824	-0.232639
C	 0.0360578712	-2.2702080423	-0.8120549915	 0.08515
O	 1.2534350629	-2.7662121525	-1.3728551729	-0.433036
C	-0.0067920049	-2.3226030357	 0.7382030894	-0.343044
C	 0.1078719617	-0.8686426774	 1.1901488718	 0.362538
C	 0.8564775944	-0.4154814617	 2.3761181571	-0.254364
O	-0.5696963701	-0.4759129028	 2.3953451469	-0.277499
H	 0.7371704572	 1.923878492	 0.3346491064	 0.128872
H	-0.5307508763	 1.8930414849	-0.9001493222	 0.128193
H	-0.9429154366	 1.738179907	 0.8251576699	 0.149023
H	-0.3093314972	-0.44921238	-2.1316956327	 0.098117
H	-0.7355939531	-2.9061865721	-1.2570792706	 0.090866
H	 1.944611632	-2.1278700695	-1.1635752625	 0.272711
H	-0.9643345523	-2.7181296438	 1.0902826394	 0.123943
H	 0.7847577491	-2.9695592164	 1.1233354648	 0.111131
H	 1.3658257103	-1.155778309	 2.9928830842	 0.115288
H	 1.2834802222	 0.5862174512	 2.4131960142	 0.109883
49.8397	127.9387	158.8077	240.9322	261.3603	318.0536	337.9435	354.5538	431.4556	474.6631	534.1055	600.5211	652.3052	753.8678	802.1404	862.3215	878.042	895.2784	938.5826	965.191	1011.4413	1051.6847	1062.5931	1072.9361	1108.1505	1129.9852	1164.0122	1180.9443	1237.3784	1270.9142	1276.1891	1329.7119	1341.6731	1405.3523	1409.2137	1429.6443	1473.5492	1474.5181	1490.5715	1525.7842	1707.9868	3027.2322	3055.689	3067.1019	3075.258	3083.4465	3112.4054	3124.5573	3160.5412	3190.1741	3796.4414
CC1=CC(O)CC11CO1	CC1=C[C@@H](O)C[C@]21CO2	
InChI=1S/C7H10O2/c1-5-2-6(8)3-7(5)4-9-7/h2,6,8H,3-4H2,1H3	InChI=1S/C7H10O2/c1-5-2-6(8)3-7(5)4-9-7/h2,6,8H,3-4H2,1H3/t6-,7-/m1/s1
