18
gdb 68550	2.42476	1.90786	1.52093	1.9073	76.	-0.2297	0.006	0.2357	952.3275	0.147609	-401.87232	-401.864712	-401.863767	-401.903894	30.615	
C	-0.0262039793	 1.5268219186	-0.0138644969	-0.526217
C	-0.0152808457	 0.0239073044	 0.0328894961	 0.177519
N	 0.3777335865	-0.7589110984	-1.2250064567	-0.342975
C	-0.3057400576	-1.9039200661	-0.4896476384	-0.179842
C	 0.6140654424	-2.0241976581	 0.7201566757	-0.064483
C	 0.8076667881	-0.7470783473	 1.0656950883	-0.09479
C	-1.3113969466	-0.8531153841	 0.0591377694	 0.491728
C	-2.5628466393	-0.8586699178	 0.801865033	-0.304342
O	-2.4913453618	-0.4780066263	-0.5996680892	-0.297603
H	 0.9440004105	 1.9059094696	-0.3492212963	 0.135827
H	-0.7976735686	 1.8859905415	-0.7019260931	 0.132237
H	-0.233194735	 1.947612736	 0.9756415639	 0.121799
H	-0.2683061269	-0.4603030357	-1.964172458	 0.217201
H	-0.6003710257	-2.7865758323	-1.0542153526	 0.077852
H	 0.9645179401	-2.9375634358	 1.1772262862	 0.109678
H	 1.3623337445	-0.316051674	 1.8867341097	 0.106444
H	-3.0834184625	-1.7951619968	 0.9946640768	 0.120685
H	-2.800274083	-0.0442538772	 1.4842958721	 0.119282
162.8453	183.9013	199.967	253.7539	322.7927	379.2704	456.9501	541.8539	571.1832	627.0975	644.6458	730.7088	738.1292	814.7917	836.9924	888.426	894.6131	907.5322	927.1388	948.747	1015.9456	1057.2981	1102.7483	1104.0916	1109.4891	1130.5127	1147.3333	1166.2967	1195.726	1250.5862	1280.0751	1317.2069	1376.1863	1413.2451	1431.5119	1486.8576	1494.2164	1537.6214	1618.0071	3036.9833	3087.7396	3105.688	3112.9808	3142.755	3175.4451	3226.1929	3253.2882	3385.6361
CC12NC(C=C1)C21CO1	C[C@@]12N[C@@H](C=C1)[C@]12CO1	
InChI=1S/C7H9NO/c1-6-3-2-5(8-6)7(6)4-9-7/h2-3,5,8H,4H2,1H3	InChI=1S/C7H9NO/c1-6-3-2-5(8-6)7(6)4-9-7/h2-3,5,8H,4H2,1H3/t5-,6+,7-/m0/s1
