16
gdb 30537	4.61829	0.92432	0.77412	4.5655	84.49	-0.192	-0.014	0.178	1428.2979	0.124718	-434.119975	-434.111298	-434.110354	-434.153629	31.289	
C	 0.0744101638	 1.4025962241	 0.2059573885	-0.488432
C	 0.0180243605	-0.0632271152	-0.027117955	 0.383091
N	-0.2469699748	-0.6956149179	-1.1254499208	-0.300348
C	-0.1683956021	-2.0404615425	-0.7890901801	-0.203315
C	 0.1489017196	-2.1682607672	 0.5276294309	 0.393809
O	 0.2726535183	-0.881714598	 1.0329528564	-0.225095
N	 0.3408233988	-3.2617164221	 1.3143176981	-0.35431
C	 0.648532347	-3.1336611935	 2.5524095629	 0.089014
N	 0.7787373353	-4.2151162392	 3.3702078679	-0.496211
H	 1.0643121368	 1.7123597467	 0.558580613	 0.138676
H	-0.1448932987	 1.91525952	-0.7310249789	 0.155135
H	-0.6550879098	 1.714242224	 0.96161763	 0.139532
H	-0.3427204775	-2.8262249645	-1.5054970647	 0.11642
H	 0.7874069805	-2.170696845	 3.0506795222	 0.122315
H	 1.2832793502	-4.1137514128	 4.2339122938	 0.263537
H	 0.8110105621	-5.1215508869	 2.9286647059	 0.266184
98.4694	123.5176	131.7593	140.4403	231.6802	317.0872	350.9019	395.8886	428.6046	501.2924	576.7178	672.941	686.5972	703.3881	789.3889	840.0773	954.8198	977.88	996.5457	1029.0659	1063.1726	1082.1796	1149.3318	1222.5655	1283.362	1299.9995	1346.9107	1396.6334	1410.6639	1474.7595	1481.8147	1607.8901	1624.8902	1660.9076	1730.2266	3036.8047	3087.8239	3097.4496	3154.2864	3273.4956	3590.7765	3722.0227
CC1=NC=C(O1)N=CN	Cc1ncc(o1)N=CN	
InChI=1S/C5H7N3O/c1-4-7-2-5(9-4)8-3-6/h2-3H,1H3,(H2,6,8)	InChI=1S/C5H7N3O/c1-4-7-2-5(9-4)8-3-6/h2-3H,1H3,(H2,6,8)
