14
gdb 129179	3.01664	1.30824	1.04486	5.8896	68.8	-0.2134	0.0008	0.2142	1108.7847	0.102617	-429.06139	-429.05335	-429.052406	-429.095201	28.635	
N	-0.0817244468	 1.3453943597	 0.1034669916	-0.61201
C	 0.0069419245	 0.0767757564	 0.0010053379	 0.465547
N	 1.0786774421	-0.8145040386	-0.1217744121	-0.364531
C	 0.5769981566	-2.0918626654	-0.2262867649	 0.062247
N	-0.7119190144	-2.1192734089	-0.1619822863	-0.225413
N	-1.0720671892	-0.7958617632	 0.0028235163	-0.035997
C	-2.4489843517	-0.3857928239	-0.0104280273	-0.280995
C	-3.0483679341	-0.3962103441	-1.3564744384	 0.273024
N	-3.5253846385	-0.4095444806	-2.4079212544	-0.300348
H	 0.8248742532	 1.8016568094	 0.1029473745	 0.214887
H	 2.0422841794	-0.5380897042	-0.1805145064	 0.276149
H	 1.1980032877	-2.9661307414	-0.3395396089	 0.159533
H	-3.0328182712	-1.0403173586	 0.6434086867	 0.169821
H	-2.4776230277	 0.6336314035	 0.3860076615	 0.198087
39.0643	63.6022	204.9189	242.1382	273.1343	364.6977	382.9858	453.1765	541.2873	634.3465	672.149	715.5166	724.1266	807.0828	832.2876	917.5378	934.3845	947.5419	1047.4369	1101.2533	1157.1537	1214.9937	1303.1855	1344.3264	1387.0619	1407.989	1430.7371	1448.1969	1629.9331	1757.2128	2366.4077	3063.4452	3116.0687	3274.114	3547.7527	3696.2324
N=C1NC=NN1CC#N	[NH][C@H]1NC=NN1CC#N	
InChI=1S/C4H5N5/c5-1-2-9-4(6)7-3-8-9/h3H,2H2,(H2,6,7,8)	InChI=1S/C4H6N5/c5-1-2-9-4(6)7-3-8-9/h3-4,6H,2H2,(H,7,8)/t4-/m0/s1
