19
gdb 32909	4.33082	0.8304	0.73026	2.0858	79.92	-0.1987	0.0319	0.2306	1583.4861	0.160146	-419.256709	-419.247556	-419.246612	-419.291223	33.542	
C	 0.1442031199	 1.4871414244	 0.1681202354	-0.381639
C	 0.1413388039	-0.0394588977	 0.0671109144	-0.158548
C	 0.5729001956	-0.5418728686	-1.324860697	-0.31008
C	 0.5963948705	-2.0205396166	-1.4539996656	 0.329292
C	-0.0746562163	-2.9455594102	-2.1735813055	-0.202156
N	 0.3699821234	-4.2312042655	-1.8582302873	-0.33778
C	 1.291138224	-4.0181075105	-0.9721164182	 0.444975
N	 2.116613221	-4.9377952333	-0.3704293113	-0.588045
O	 1.5024046885	-2.7204656068	-0.6586951585	-0.220348
H	 1.1418991712	 1.8958866821	-0.0276077345	 0.115717
H	-0.5436114137	 1.9348610331	-0.5581051229	 0.114868
H	-0.1619047975	 1.8198693329	 1.1645900522	 0.113858
H	 0.8139921483	-0.4648182782	 0.8207402802	 0.107433
H	-0.8585482172	-0.4302500806	 0.2904300223	 0.101976
H	-0.1121863533	-0.1541466015	-2.0875544976	 0.114044
H	 1.564166816	-0.1293384294	-1.5607837729	 0.111965
H	-0.8550280552	-2.7841342533	-2.9009575654	 0.113686
H	 1.755870984	-5.8784585485	-0.4343246487	 0.269228
H	 2.4150215069	-4.6878592019	 0.561303221	 0.261556
64.724	86.7341	98.672	237.9126	244.4267	271.499	301.4054	322.507	389.1679	452.3753	611.3836	638.2149	702.8716	744.7826	749.6242	787.0516	849.3419	870.1511	896.0605	979.4424	994.0613	1042.3598	1087.6936	1101.3095	1111.1467	1196.4381	1225.3451	1249.2588	1280.0287	1313.2069	1327.1519	1384.9894	1412.445	1440.2041	1470.1259	1492.53	1498.7883	1509.566	1603.43	1662.0364	1680.8448	3006.1802	3028.7891	3035.041	3057.2342	3075.5272	3098.5891	3104.0384	3257.66	3571.8469	3679.576
CCCC1=CN=C(N)O1	CCCc1cnc(N)o1	
InChI=1S/C6H10N2O/c1-2-3-5-4-8-6(7)9-5/h4H,2-3H2,1H3,(H2,7,8)	InChI=1S/C6H10N2O/c1-2-3-5-4-8-6(7)9-5/h4H,2-3H2,1H3,(H2,7,8)
