23
gdb 87160	3.34462	1.03398	0.92116	1.2702	86.03	-0.246	0.0744	0.3204	1395.0178	0.204931	-388.26798	-388.258287	-388.257342	-388.302424	37.178	
C	-0.1587075061	 1.3753710003	-0.3322198133	-0.405358
C	 0.2194985112	-0.0738323396	-0.1240835307	-0.034522
C	 1.6736400125	-0.4858396388	 0.0387255519	-0.364371
C	 0.7134370987	-0.5763314961	 1.2038741073	 0.374286
O	 0.8350236124	 0.4176028212	 2.1963311841	-0.470261
C	 0.2512613143	-1.8988478328	 1.7663540092	-0.003982
C	 0.0441471193	-3.1472657739	 0.8625469469	-0.24284
C	 0.6210121746	-4.0228553161	 2.0080714547	-0.215277
C	 1.2447986523	-2.7425329454	 2.6242440528	-0.241975
H	 0.4420258996	 2.0286079019	 0.3041065347	 0.130313
H	-0.0088434843	 1.6724458751	-1.3759810373	 0.109427
H	-1.2114933431	 1.5480684073	-0.0830916848	 0.114691
H	-0.3940584333	-0.7838519678	-0.6738980846	 0.08449
H	 2.0235907885	-1.388851945	-0.4504329176	 0.10542
H	 2.4052791807	 0.3143055945	 0.087938411	 0.106686
H	 1.5899524947	 0.18553293	 2.7478958858	 0.282324
H	-0.65902983	-1.7100033764	 2.3471035779	 0.078281
H	-0.971027225	-3.3573852925	 0.5176740978	 0.097241
H	 0.7102296116	-3.1404706657	-0.0052969197	 0.103417
H	-0.1702725947	-4.4321729596	 2.6423712101	 0.103569
H	 1.2974579726	-4.8349373687	 1.7320579931	 0.096272
H	 2.2770098047	-2.5980776798	 2.286579167	 0.097091
H	 1.2096456589	-2.6286760119	 3.7105953536	 0.095077
62.7572	112.7365	144.8586	188.9591	209.8131	253.2278	288.9769	305.1658	366.1186	439.6851	457.6091	571.8016	595.1075	708.9681	779.373	788.731	851.8238	884.0192	895.4526	929.716	937.3508	943.1205	959.5759	1005.6026	1010.5945	1043.3294	1050.8844	1107.5424	1140.0859	1143.8351	1188.8315	1202.8306	1230.2703	1246.5512	1255.5224	1262.0775	1274.5229	1281.7961	1292.6844	1335.4105	1375.9464	1407.7362	1425.8039	1475.4437	1485.3987	1489.5493	1496.7866	1507.0419	1509.7928	3033.1019	3037.0234	3043.1396	3053.9059	3059.9852	3088.8608	3095.9959	3102.613	3118.5012	3121.7515	3126.2702	3138.7973	3213.0533	3800.2928
CC1CC1(O)C1CCC1	C[C@H]1C[C@]1(O)C1CCC1	
InChI=1S/C8H14O/c1-6-5-8(6,9)7-3-2-4-7/h6-7,9H,2-5H2,1H3	InChI=1S/C8H14O/c1-6-5-8(6,9)7-3-2-4-7/h6-7,9H,2-5H2,1H3/t6-,8+/m0/s1
