21
gdb 70683	2.18991	1.80747	1.19797	3.1227	82.33	-0.2313	-0.0047	0.2266	1111.5643	0.183945	-387.124828	-387.116383	-387.115439	-387.157536	33.294	
C	-0.0070754918	 1.5410777735	 0.0211188631	-0.461825
C	 0.0548689648	 0.0287885707	-0.0150175738	 0.229189
C	-0.8385824987	-0.7470820712	 0.9513003801	-0.318676
C	 0.6412495783	-0.7359731637	 1.1766792528	-0.063418
C	 1.4612212767	-2.0117549649	 0.9746271402	-0.22606
C	 1.8594895871	-2.2594558184	-0.4878287985	-0.203532
C	 0.6745829338	-2.0240796666	-1.4411283074	-0.313535
C	 0.2461869872	-0.5632872113	-1.3768472192	 0.34315
O	 0.123885153	 0.1104921246	-2.3789633745	-0.32901
H	 0.9205659508	 1.9821862341	-0.3565672335	 0.124725
H	-0.8215888593	 1.9088029443	-0.6085411355	 0.135493
H	-0.1670584439	 1.8980368558	 1.0430331881	 0.104125
H	-1.4749205261	-0.148967202	 1.5948758006	 0.118736
H	-1.2963599315	-1.6691943381	 0.6086988582	 0.11629
H	 0.9839050562	-0.0908179851	 1.9802720326	 0.091954
H	 2.364082998	-1.9602132288	 1.5914991714	 0.10463
H	 0.8883208459	-2.8715672756	 1.3445246543	 0.103651
H	 2.6741699658	-1.5799929899	-0.7681028346	 0.109863
H	 2.2463774567	-3.2769887565	-0.6070453216	 0.101366
H	 0.9307226234	-2.2436689187	-2.4800205234	 0.120165
H	-0.1629955363	-2.6766991122	-1.1615223495	 0.112721
88.8948	169.5529	198.6651	209.4636	294.0255	318.0653	376.3343	437.3062	463.9833	487.631	554.7206	646.0379	719.0627	762.6358	837.4432	854.0987	875.0982	890.0902	917.0976	966.0208	984.3002	1038.2095	1055.3816	1069.9285	1096.3427	1124.2671	1130.7924	1142.7728	1187.2186	1211.9567	1277.4653	1284.3296	1331.6578	1358.0767	1365.4321	1376.334	1405.469	1416.2249	1471.0404	1481.4481	1487.3006	1496.2941	1499.334	1503.7896	1785.5309	3022.4305	3025.9153	3032.4179	3040.2182	3069.2223	3078.1242	3107.6182	3108.808	3118.0827	3130.213	3147.5275	3215.0093
CC12CC1CCCC2=O	C[C@]12C[C@H]1CCCC2=O	
InChI=1S/C8H12O/c1-8-5-6(8)3-2-4-7(8)9/h6H,2-5H2,1H3	InChI=1S/C8H12O/c1-8-5-6(8)3-2-4-7(8)9/h6H,2-5H2,1H3/t6-,8+/m1/s1
