23
gdb 68183	2.84343	1.32073	1.29343	1.3158	84.7	-0.2535	0.0785	0.332	1148.4487	0.206275	-388.290794	-388.282078	-388.281134	-388.323047	36.297	
C	-0.0538244563	 1.5122946601	-0.0010334473	-0.446131
C	 0.0267874768	-0.0213592212	 0.0163716861	 0.348801
C	-1.4026770641	-0.5733992137	-0.0873639299	-0.446103
C	 0.9890170828	-0.5980694251	-1.0858235542	-0.289286
C	 2.0240317962	-1.3046971046	-0.1931204764	 0.420107
O	 3.0346059883	-1.9284039919	-0.9204040776	-0.485087
C	 1.1252506745	-2.0353053165	 0.8484512707	-0.301955
C	 0.7945419651	-0.5693373477	 1.2588116632	-0.042533
C	 2.2813709018	-0.2483603094	 0.9224118999	-0.301921
H	 0.92807109	 1.9877253423	 0.0604234821	 0.112339
H	-0.53031501	 1.8619208684	-0.923692292	 0.11168
H	-0.655175292	 1.8784973789	 0.8394047624	 0.10754
H	-1.8820955453	-0.2285591203	-1.0103073608	 0.111682
H	-1.434586853	-1.6656043138	-0.0905958979	 0.112341
H	-2.015088663	-0.2240727844	 0.7522706055	 0.107538
H	 0.4932849494	-1.3039164544	-1.7589572679	 0.096828
H	 1.4538879128	 0.1810350469	-1.6973556425	 0.096839
H	 3.6395955831	-2.3465304107	-0.2992765668	 0.276202
H	 0.3284930176	-2.6878371052	 0.4863143648	 0.093001
H	 1.7133076698	-2.5529192133	 1.6122434442	 0.083869
H	 0.3741637642	-0.3379086516	 2.2379597289	 0.057379
H	 2.9656032659	-0.6173696156	 1.6923243805	 0.083875
H	 2.5623995654	 0.7649583127	 0.629223185	 0.092995
160.1842	212.7572	245.5954	253.794	288.9549	299.6904	369.5028	402.1031	424.1885	452.6249	473.1536	524.1864	545.4799	658.6524	736.8368	828.1342	836.9995	887.697	910.8105	925.4469	950.9942	953.7372	973.2782	988.3556	1005.484	1021.4419	1054.3648	1075.1127	1130.1922	1138.7365	1172.3551	1189.0596	1213.1806	1226.1843	1240.699	1249.712	1275.895	1300.9368	1343.9291	1392.8423	1401.7749	1423.9471	1477.9426	1486.0093	1494.235	1498.7097	1504.2857	1512.4563	1532.5698	3025.3243	3030.9507	3050.1962	3051.6214	3060.7022	3083.7198	3090.3634	3095.1401	3108.4321	3110.103	3112.6916	3121.9359	3123.3349	3814.4572
CC1(C)CC2(O)CC1C2	CC1(C)C[C@]2(O)C[C@H]1C2	
InChI=1S/C8H14O/c1-7(2)5-8(9)3-6(7)4-8/h6,9H,3-5H2,1-2H3	InChI=1S/C8H14O/c1-7(2)5-8(9)3-6(7)4-8/h6,9H,3-5H2,1-2H3/t6-,8-
