19
gdb 108450	2.3222	1.64141	1.19184	3.2875	75.29	-0.2447	-0.0282	0.2165	1091.1751	0.159037	-423.017009	-423.008494	-423.00755	-423.050501	32.178	
O	-0.0809707255	 1.4570875018	 0.1611912224	-0.423059
C	 0.0169980002	 0.0442748541	 0.2068562137	-0.17306
C	-1.3526392077	-0.5798856096	 0.0215145251	 0.224434
C	-2.399898575	-0.4421243255	 1.1769664517	-0.275969
C	-2.6837580121	-1.9719622802	 1.1187228575	-0.218691
C	-1.7470561692	-2.11299259	-0.1053572834	-0.107914
C	-2.4264473091	-1.8269884604	-1.4787202266	-0.356257
C	-1.9761801079	-0.362505608	-1.3506520342	 0.372431
O	-1.97520376	 0.5853985022	-2.0920783359	-0.326338
H	-0.5099081224	 1.6767677849	-0.676801757	 0.297454
H	 0.7134315138	-0.3394526347	-0.557415417	 0.087194
H	 0.4352501109	-0.2123846743	 1.1870673491	 0.105097
H	-1.9379704473	-0.1040004835	 2.10706859	 0.122007
H	-3.2464935375	 0.214757886	 0.9650695452	 0.114602
H	-2.3163098429	-2.5019107946	 2.0005773446	 0.109354
H	-3.7226280765	-2.2703474465	 0.9530662946	 0.102434
H	-1.0062787487	-2.912151541	-0.1014734706	 0.078667
H	-1.9581777043	-2.322129226	-2.3356101315	 0.13745
H	-3.5065209489	-1.9927222745	-1.5380447373	 0.130164
64.839	106.6485	135.5417	199.7342	275.5608	310.5531	412.141	461.972	496.918	515.0899	590.0917	698.5028	738.2776	780.206	829.2441	876.8401	911.0443	944.2661	966.9448	1014.4186	1030.2825	1047.8864	1054.9266	1075.2391	1119.7624	1143.712	1180.918	1214.7847	1222.0787	1238.8456	1257.0821	1278.8271	1307.1361	1324.8129	1375.8775	1430.3794	1441.8871	1478.0657	1493.8424	1510.8165	1854.0864	2963.4445	3051.942	3054.6297	3058.0551	3069.377	3100.6461	3102.1652	3116.2773	3124.4715	3758.0337
OCC12CCC1CC2=O	OC[C@]12CC[C@H]1CC2=O	
InChI=1S/C7H10O2/c8-4-7-2-1-5(7)3-6(7)9/h5,8H,1-4H2	InChI=1S/C7H10O2/c8-4-7-2-1-5(7)3-6(7)9/h5,8H,1-4H2/t5-,7+/m0/s1
