15
gdb 43282	2.83614	1.88854	1.49595	4.378	70.29	-0.2442	-0.064	0.1803	890.3921	0.113632	-420.583432	-420.576777	-420.575833	-420.614321	26.451	
O	 0.0109660647	-0.0049945064	-0.1972393708	-0.317138
C	-0.0206222867	 1.1881986802	-0.0340136826	 0.326932
C	-1.2427058867	 2.0498841678	 0.1374854783	-0.177369
C	-0.939258731	 3.3598587245	 0.0766263724	-0.161536
C	 0.5318412667	 3.5629061908	-0.0370046282	 0.104348
C	 1.4040071385	 3.1014936014	 1.1182678594	-0.358964
C	 1.1301113786	 2.1757818198	-0.0317716847	 0.266923
O	 1.9930129437	 2.4315437571	-1.1487928809	-0.312232
C	 1.3900897788	 3.7490273497	-1.3018969403	-0.134225
H	-2.2261771167	 1.617899761	 0.2804451691	 0.125734
H	-1.6590107061	 4.1688161517	 0.153136736	 0.122517
H	 2.416065393	 3.482518713	 1.2165385064	 0.136813
H	 0.8824950244	 2.9087497189	 2.0480394464	 0.139066
H	 0.797710409	 3.8030568015	-2.2209325399	 0.122391
H	 2.1396659498	 4.547264659	-1.2886676305	 0.116738
130.3929	223.2362	284.7913	360.6205	382.1491	464.3659	580.1115	601.6192	688.7232	741.2653	748.8883	805.6494	850.5117	866.011	924.4906	932.8929	976.1529	990.4739	999.3518	1046.7062	1072.9613	1108.2131	1119.3168	1158.4051	1234.2377	1263.6172	1319.8287	1346.8373	1371.494	1460.8748	1512.8592	1603.3338	1821.819	3035.3662	3091.1638	3131.7739	3178.1736	3215.6842	3234.3373
O=C1C=CC23CC12OC3	O=C1C=C[C@@]23C[C@@]12OC3	
InChI=1S/C7H6O2/c8-5-1-2-6-3-7(5,6)9-4-6/h1-2H,3-4H2	InChI=1S/C7H6O2/c8-5-1-2-6-3-7(5,6)9-4-6/h1-2H,3-4H2/t6-,7+/m0/s1
