14
gdb 28662	5.83361	1.01363	0.86358	3.603	83.84	-0.2248	-0.0337	0.1911	1245.9362	0.101556	-399.574377	-399.566884	-399.56594	-399.606207	28.974	
O	 0.0616452162	 1.3722730953	-0.1071910084	-0.433117
C	 0.0581083142	 0.0179745796	-0.0207117647	 0.36156
C	 0.0132805469	-0.7126936281	-1.216061818	-0.071708
N	 0.0052236693	-2.0362255804	-1.2651649921	-0.304928
C	 0.0420255613	-2.7209241659	-0.1051834551	 0.152614
C	 0.0880212275	-2.0736882577	 1.1357292289	-0.141465
C	 0.0962066921	-0.6869001219	 1.1795937749	-0.232941
C	 0.0327861174	-4.1485874244	-0.1739097172	 0.220358
C	 0.0262451753	-5.3520597989	-0.1952944515	-0.380392
H	 0.0938847398	 1.7523942715	 0.7772193478	 0.30248
H	-0.0167662137	-0.1741578948	-2.1602481211	 0.119112
H	 0.116726272	-2.6580894558	 2.0475813709	 0.115501
H	 0.13160998	-0.162396321	 2.1308694541	 0.100307
H	 0.0197765118	-6.4130807877	-0.2337772284	 0.192619
100.5441	149.9803	262.3945	365.18	389.7566	418.6241	439.6085	469.3318	539.7066	559.1704	597.1831	653.6947	661.7547	724.3537	786.2462	853.0799	859.7618	948.486	964.6546	1027.9627	1144.2974	1185.1992	1251.9858	1288.4015	1308.2279	1338.1035	1451.2737	1511.3527	1608.7441	1636.3291	2229.8181	3161.2422	3162.1571	3206.6905	3504.3629	3818.1942
OC1=CN=C(C=C1)C#C	Oc1cnc(cc1)C#C	
InChI=1S/C7H5NO/c1-2-6-3-4-7(9)5-8-6/h1,3-5,9H	InChI=1S/C7H5NO/c1-2-6-3-4-7(9)5-8-6/h1,3-5,9H
