19
gdb 92638	3.27429	1.3659	1.07936	1.8597	78.04	-0.2399	0.0109	0.2508	1145.7256	0.160132	-423.002098	-422.994179	-422.993234	-423.034435	30.691	
C	 0.1639912886	 1.5371733114	 0.0249425519	-0.399599
C	-0.0060253027	 0.0323138494	 0.0324913284	 0.079339
O	 0.9436091304	-0.6660357506	-0.8446207295	-0.329876
C	 1.2281899377	-1.6504250677	 0.1855096504	 0.08768
C	 2.6631840403	-1.8738815937	 0.6549211522	-0.124356
O	 2.5559761742	-2.4113392147	 1.9715531072	-0.256673
C	 2.0195594288	-1.5341043202	 2.9542137651	-0.09265
C	 0.9215808307	-0.6302087184	 2.4453004236	-0.248003
C	 0.5388126632	-0.7760793109	 1.1872638528	 0.208773
H	 1.1810112226	 1.8119616772	 0.3159830981	 0.123282
H	-0.0361659859	 1.9352768047	-0.974606911	 0.130767
H	-0.5415570495	 2.0007825508	 0.7227861048	 0.120241
H	-1.0331236665	-0.2391400307	-0.2547499684	 0.083647
H	 0.7443055787	-2.6086165837	-0.0455552271	 0.086242
H	 3.2142773213	-2.6171927547	 0.0734561811	 0.110568
H	 3.2120745965	-0.9209724131	 0.6358399077	 0.097069
H	 1.6784461402	-2.1825432333	 3.7702439754	 0.122997
H	 2.8204116329	-0.8950075719	 3.3676064824	 0.102874
H	 0.5827961384	 0.1736199101	 3.0927653749	 0.097679
109.081	151.4521	204.3884	264.4391	267.7032	354.9717	412.5069	440.9849	480.5234	557.9067	672.0475	765.0248	810.8859	831.5442	854.8209	894.0825	965.2596	979.1918	1007.7361	1029.4721	1069.6336	1073.9021	1092.9001	1124.7833	1138.0634	1162.9666	1231.3714	1244.2609	1281.4364	1290.7078	1314.3161	1356.5892	1366.1819	1394.7545	1399.7474	1407.3511	1482.721	1486.4571	1491.2423	1501.1117	1784.5901	2947.4015	2985.8913	3001.2024	3017.3015	3038.722	3045.862	3099.7206	3109.0415	3126.1399	3169.4029
CC1OC2COCC=C12	C[C@H]1O[C@H]2COC[CH][C]12	
InChI=1S/C7H10O2/c1-5-6-2-3-8-4-7(6)9-5/h2,5,7H,3-4H2,1H3	InChI=1S/C7H10O2/c1-5-6-2-3-8-4-7(6)9-5/h2,5,7H,3-4H2,1H3/t5-,7+/m1/s1
