13
gdb 25307	2.74368	1.34482	0.90247	1.7307	72.31	-0.268	-0.0973	0.1707	1169.8672	0.088767	-456.610162	-456.6026	-456.601656	-456.642805	26.671	
O	 0.0534551063	-0.0673378751	-0.0022765709	-0.263084
C	 0.0229409849	 1.1411053822	 0.0089625265	 0.075736
C	 1.2048882043	 2.0002162273	 0.0028817212	 0.200642
C	 1.3547053254	 3.3757970641	 0.0137394829	 0.08724
C	 0.3017857328	 4.3997156612	 0.0354747059	 0.072189
O	 0.5336394729	 5.5866996215	 0.043691555	-0.258794
C	 2.761768064	 3.6239539656	-0.0006229416	-0.267355
C	 3.3514345761	 2.3997283418	-0.0186539056	 0.011349
O	 2.4250111796	 1.4109913588	-0.0168393135	-0.153311
H	-0.9328811203	 1.7039964722	 0.025432468	 0.092511
H	-0.7406991915	 4.0201947899	 0.0444571748	 0.084752
H	 3.2398742619	 4.5896313959	 0.0025346403	 0.154783
H	 4.3784041837	 2.0723480345	-0.033706013	 0.163341
105.3646	155.07	156.5774	224.5362	229.3686	314.6225	420.7924	545.3345	629.3048	680.5358	751.4632	805.6854	817.3696	880.9367	912.3573	1009.2204	1028.0287	1062.1048	1088.9107	1174.88	1274.0764	1313.9131	1408.8247	1424.7795	1450.0898	1525.021	1601.9183	1785.1177	1790.3965	2907.123	2927.7232	3271.4499	3291.2261
O=CC1=C(C=O)C=CO1	O=Cc1c(C=O)cco1	
InChI=1S/C6H4O3/c7-3-5-1-2-9-6(5)4-8/h1-4H	InChI=1S/C6H4O3/c7-3-5-1-2-9-6(5)4-8/h1-4H
