12
gdb 20524	5.06826	1.59252	1.22085	1.4105	56.88	-0.2797	-0.0847	0.195	902.8514	0.082898	-414.637371	-414.630403	-414.629459	-414.66928	24.023	
C	-0.0339993513	 1.4961861898	 0.0093475851	-0.485616
C	 0.0356966261	-0.0106090205	 0.0029120776	 0.317287
O	 1.0706413586	-0.6392364986	-0.0092643269	-0.287808
C	-1.2549978886	-0.757974696	 0.0097635277	 0.24044
N	-2.4340991344	-0.1882633473	 0.0217742678	-0.139798
O	-3.3372294271	-1.1988261148	 0.0245868945	-0.139605
N	-2.7181504287	-2.4281217213	 0.0139454644	-0.058623
C	-1.4428712093	-2.1709530528	 0.0047655449	-0.090868
H	 0.9764894328	 1.9047043235	 0.0018044332	 0.148396
H	-0.5939432775	 1.8521040884	-0.8615988622	 0.160099
H	-0.5779498227	 1.845139043	 0.8931587227	 0.160035
H	-0.701729948	-2.9536021435	-0.0047682688	 0.17606
72.0036	123.451	179.5169	199.3483	363.3113	501.0011	565.7932	626.4827	654.9716	725.0716	859.3682	924.5864	949.7007	957.7318	1011.7844	1050.4412	1059.9105	1120.4739	1233.2458	1385.671	1439.9189	1457.155	1464.8221	1467.9861	1589.9536	1795.3297	3048.0122	3110.5681	3163.1334	3287.1735
CC(=O)C1=NON=C1	CC(=O)c1nonc1	
InChI=1S/C4H4N2O2/c1-3(7)4-2-5-8-6-4/h2H,1H3	InChI=1S/C4H4N2O2/c1-3(7)4-2-5-8-6-4/h2H,1H3
