18
gdb 72853	3.05865	1.26709	1.06541	5.1459	76.6	-0.2405	0.0221	0.2626	1162.2865	0.148487	-398.09139	-398.083031	-398.082086	-398.124447	31.766	
C	-0.5577006336	 1.5616575322	-0.0403058867	-0.461947
C	-0.0925410494	 0.1265602375	 0.0215810072	 0.343465
C	-1.1566999431	-0.9857657603	 0.2491969817	-0.219601
N	-0.2664873229	-1.6579829876	 1.2387350727	-0.315438
C	 0.7113345805	-0.5541171835	 1.1762803158	-0.092527
C	 1.814222183	-0.8879974041	 0.1241844401	-0.11773
N	 1.009758294	-0.2000658142	-0.9198996346	-0.360428
C	 3.1295721552	-0.2777807822	 0.332470788	 0.296365
N	 4.1602545278	 0.2038708881	 0.537729426	-0.327985
H	 0.2958681989	 2.244070674	-0.0191915758	 0.137472
H	-1.1087244831	 1.7440498826	-0.9709983191	 0.123445
H	-1.2237190071	 1.7988844707	 0.7956853864	 0.115177
H	-2.0901015218	-0.5968459752	 0.6742947914	 0.103454
H	-1.4050275676	-1.6082420918	-0.6189141843	 0.100957
H	-0.6855370005	-1.7808903866	 2.151764131	 0.229139
H	 1.0112615187	-0.0793012099	 2.1108321612	 0.093612
H	 1.9313660455	-1.9698946956	 0.0064165733	 0.126515
H	 0.7676982857	-0.7720701542	-1.7218198344	 0.226055
66.6907	150.3027	189.0827	206.549	268.1231	340.6042	377.9323	405.6178	476.2424	550.8177	603.1727	640.3553	688.0327	802.2392	856.8506	901.5351	936.5313	947.7989	971.6533	992.7605	1014.822	1029.4183	1049.6097	1129.2925	1142.1744	1166.5694	1191.7104	1238.9681	1256.7595	1292.5099	1317.2052	1367.2943	1383.2534	1395.0617	1413.2959	1483.9854	1490.399	1509.1458	2352.514	3013.7097	3029.4259	3058.0063	3060.2033	3093.6021	3111.7341	3121.4994	3533.0375	3560.3591
CC12CNC1C(N2)C#N	C[C@]12CN[C@H]1[C@@H](N2)C#N	
InChI=1S/C6H9N3/c1-6-3-8-5(6)4(2-7)9-6/h4-5,8-9H,3H2,1H3	InChI=1S/C6H9N3/c1-6-3-8-5(6)4(2-7)9-6/h4-5,8-9H,3H2,1H3/t4-,5-,6-/m0/s1
