20
gdb 81422	2.34417	2.05937	1.53688	2.0052	77.59	-0.2338	0.0879	0.3217	955.8921	0.172935	-403.097492	-403.09011	-403.089166	-403.128607	31.324	
C	 0.1121800776	 1.4368818849	-0.0621118559	-0.484817
C	-0.0458382924	-0.0650556383	-0.0538136484	 0.334193
C	-0.5759763058	-0.7635102447	 1.1474803118	-0.301069
N	 0.854127168	-0.9089379623	 0.8133831378	-0.179077
C	 1.169128961	-2.0102811566	-0.1597657604	-0.039093
C	-0.0954420465	-2.3028940083	-1.0066670736	-0.263094
C	 0.058856544	-0.8144824854	-1.3922594246	-0.148233
C	 1.6223299524	-1.1339699286	-1.3676460344	 0.184771
O	 2.5787354829	-0.1449434718	-1.1564632514	-0.446525
H	 0.9147456736	 1.744782071	-0.7382260123	 0.137597
H	-0.8149488845	 1.9144632072	-0.3991360045	 0.118762
H	 0.3376705571	 1.8101376481	 0.9412128573	 0.122057
H	-0.7423380439	-0.1626592177	 2.0381758063	 0.114323
H	-1.2371306849	-1.6187675518	 1.0763478431	 0.116941
H	 1.7890036636	-2.7904386443	 0.280940704	 0.075653
H	 0.1364183957	-2.9702143801	-1.8387208985	 0.106299
H	-1.0131078547	-2.640020173	-0.5285650843	 0.103273
H	-0.4360908726	-0.3754699446	-2.2577992583	 0.065435
H	 1.9268987345	-1.7144182547	-2.2414439001	 0.084229
H	 2.504472875	 0.1097952411	-0.2264835836	 0.298375
200.4512	220.1952	227.7979	325.366	366.9866	433.9683	488.3718	517.5334	536.0634	602.6521	660.1909	728.5767	749.0776	776.5163	799.0763	819.7321	908.0912	927.1035	937.2864	962.2835	1017.156	1027.5233	1040.5247	1069.5801	1093.5964	1112.3692	1124.3671	1136.293	1153.1045	1189.6047	1210.5957	1233.4126	1250.6754	1283.8798	1303.425	1332.9167	1360.1306	1412.0969	1448.7845	1484.5714	1493.3133	1507.246	1537.055	3033.7442	3084.309	3094.8277	3098.4819	3118.3793	3120.9804	3122.7773	3128.0859	3143.154	3207.1164	3748.0843
CC12CN1C1CC2C1O	C[C@]12CN1[C@H]1C[C@@H]2[C@H]1O	
InChI=1S/C7H11NO/c1-7-3-8(7)5-2-4(7)6(5)9/h4-6,9H,2-3H2,1H3	InChI=1S/C7H11NO/c1-7-3-8(7)5-2-4(7)6(5)9/h4-6,9H,2-3H2,1H3/t4-,5+,6-,7-,8?/m1/s1
