20
gdb 71585	2.66103	1.70861	1.59674	1.8705	83.73	-0.2191	0.0074	0.2265	980.6595	0.173211	-365.958839	-365.951513	-365.950569	-365.990092	30.298	
C	-0.0364028408	 1.5285061791	-0.056654443	-0.524477
C	 0.0125508716	 0.0216558887	-0.0394789389	 0.29536
C	 0.6513637955	-0.9620740665	-1.0364599506	-0.208752
N	 0.0564036146	-1.9283746327	-0.0058728111	-0.169241
C	 0.6119732887	-0.929352248	 1.0408124834	 0.010802
C	 0.007585173	-1.0272786209	 2.4346617628	-0.304234
C	-1.4927604218	-1.0574097573	 2.3689092827	-0.076349
C	-2.0626212852	-1.0401235079	 1.1665933051	-0.072453
C	-1.1819330299	-0.9839898165	-0.0393453348	-0.03642
H	 0.9697082882	 1.9578460787	 0.0078011313	 0.118302
H	-0.5006702268	 1.8982049411	-0.9776751215	 0.119201
H	-0.620520958	 1.9076434879	 0.7890172471	 0.124656
H	 0.1994051578	-1.0537221168	-2.0290370969	 0.092543
H	 1.7435034244	-1.005740893	-1.0909044582	 0.093043
H	 1.7064989056	-0.9615222887	 1.0822674259	 0.063287
H	 0.3891182178	-1.9306046462	 2.9305876708	 0.121686
H	 0.3571225312	-0.1833417638	 3.0468737562	 0.108851
H	-2.0663674481	-1.1015999138	 3.2897293095	 0.092359
H	-3.1389471911	-1.065279703	 1.0304362982	 0.090068
H	-1.7327878467	-1.0767532704	-0.9794192379	 0.061767
175.7991	189.5319	194.9442	313.8428	365.9822	469.6716	474.7672	542.7046	593.2936	605.2453	709.6986	770.7054	782.4467	796.6974	850.1156	902.9127	919.744	948.7134	970.4363	989.8837	1001.0199	1023.7178	1062.7987	1101.6632	1124.2527	1131.5992	1141.5583	1175.0497	1195.406	1208.6747	1216.4293	1264.2494	1322.8525	1339.14	1364.9113	1402.8036	1413.6426	1430.3904	1460.417	1487.6665	1490.0103	1531.5645	1715.3197	3004.3176	3024.8232	3030.1696	3037.9355	3044.7503	3068.7671	3092.7346	3096.0906	3103.6303	3165.7735	3189.6684
CC12CN3C1CC=CC23	C[C@@]12CN3[C@@H]1CC=C[C@@H]23	
InChI=1S/C8H11N/c1-8-5-9-6(8)3-2-4-7(8)9/h2-3,6-7H,4-5H2,1H3	InChI=1S/C8H11N/c1-8-5-9-6(8)3-2-4-7(8)9/h2-3,6-7H,4-5H2,1H3/t6-,7+,8-/m0/s1
