19
gdb 83888	2.14631	1.89089	1.36564	2.0911	69.76	-0.2481	0.0685	0.3165	1005.0732	0.160966	-460.140828	-460.132938	-460.131994	-460.172954	31.643	
O	 0.0212043412	 1.32328295	-0.2249674657	-0.433271
C	-0.0358865219	-0.0712262372	-0.1052094491	 0.077525
C	-0.461782653	-0.635538698	 1.225787679	 0.015238
O	-0.728309806	 0.326772993	 2.2063249306	-0.265567
C	-2.1257921588	 0.5280407472	 2.4398625744	-0.087213
C	-2.7932564247	 1.0836000833	 1.1873554118	-0.239686
C	-2.6608239173	 0.1208522895	-0.015507178	 0.133435
O	-2.7811055126	 0.8100139639	-1.2500198549	-0.445918
C	-1.3925827188	-0.7281298467	 0.030615404	-0.148249
H	 0.0497936826	 1.6670529566	 0.6801337607	 0.295328
H	 0.735919493	-0.579706096	-0.6759354796	 0.101567
H	 0.0091608313	-1.5342101977	 1.6170702012	 0.098428
H	-2.5894038478	-0.4188333028	 2.7540994543	 0.099688
H	-2.188691231	 1.2307618527	 3.2749943304	 0.113585
H	-3.8512140193	 1.2923160433	 1.3769349962	 0.105247
H	-2.3209332891	 2.0378737921	 0.9319690015	 0.103181
H	-3.5124848822	-0.5681721423	 0.0090708707	 0.088863
H	-1.9758088956	 1.3377510033	-1.3330506113	 0.292001
H	-1.4851208099	-1.7080880041	-0.4273700859	 0.09582
100.5276	170.9886	210.988	310.6107	345.5482	400.2587	425.9961	449.0247	494.8074	529.2587	611.3056	667.4006	721.9497	742.5277	784.4528	830.9373	905.6772	924.9754	992.2214	1035.4351	1047.5661	1067.9703	1080.756	1084.8157	1118.3507	1145.6325	1181.2594	1216.1236	1234.6524	1271.8498	1299.5572	1334.6939	1342.9048	1353.2001	1366.8149	1380.1446	1409.2298	1433.6083	1447.7481	1485.1385	1501.4624	3000.1784	3040.1898	3048.2447	3091.9057	3097.049	3127.0405	3145.2698	3158.6983	3721.6668	3767.3585
OC1C2OCCC(O)C12	O[C@H]1[C@H]2OCC[C@@H](O)[C@@H]12	
InChI=1S/C6H10O3/c7-3-1-2-9-6-4(3)5(6)8/h3-8H,1-2H2	InChI=1S/C6H10O3/c7-3-1-2-9-6-4(3)5(6)8/h3-8H,1-2H2/t3-,4+,5-,6+/m1/s1
