15
gdb 20049	5.71811	1.39895	1.23118	2.3848	62.69	-0.2452	0.0013	0.2465	973.678	0.119896	-399.785495	-399.778332	-399.777388	-399.8184	24.935	
C	 0.0500309855	 1.5122492193	-0.0183132972	-0.164783
O	 1.223797116	 0.7120263297	 0.0575279013	-0.218404
C	-0.0437084856	 0.0476129056	 0.0679104878	-0.027009
C	-0.4324707528	-0.6068544687	 1.3439343739	 0.425713
N	-0.43433089	-0.0745022136	 2.4953890482	-0.313789
C	-0.8487292172	-1.1246025071	 3.4367455096	-0.18521
C	-1.1538840403	-2.3560307826	 2.5423176716	-0.114733
O	-0.8079453238	-1.9083215679	 1.2107698527	-0.260854
H	-0.1736702091	 2.0932251111	 0.8731166566	 0.142598
H	-0.1302306428	 1.9971336577	-0.9766955536	 0.118435
H	-0.2628219441	-0.53694733	-0.8224281805	 0.111484
H	-0.0446689439	-1.3169969598	 4.1553364317	 0.122244
H	-1.7219116693	-0.7938349739	 4.0081637648	 0.119267
H	-0.5453631643	-3.2332916393	 2.7755021653	 0.124443
H	-2.2087833984	-2.6454061805	 2.5421767676	 0.120597
29.2962	97.4685	166.2566	197.017	366.0051	408.5922	659.5613	729.8367	757.2474	831.2046	862.3609	891.3048	927.0182	971.7744	988.7827	1006.6165	1067.8152	1102.2373	1120.3667	1160.9231	1171.1844	1213.0729	1215.9766	1246.9491	1284.2775	1332.193	1372.739	1454.1341	1502.8728	1515.7011	1526.8599	1740.6149	3041.7176	3056.8627	3071.6485	3091.5241	3107.5659	3147.4071	3193.4641
C1OC1C1=NCCO1	C1O[C@H]1C1=NCCO1	
InChI=1S/C5H7NO2/c1-2-7-5(6-1)4-3-8-4/h4H,1-3H2	InChI=1S/C5H7NO2/c1-2-7-5(6-1)4-3-8-4/h4H,1-3H2/t4-/m1/s1
