18
gdb 39639	4.2319	1.0899	0.96714	1.2203	73.09	-0.2452	0.0114	0.2566	1252.0276	0.149277	-439.07752	-439.069351	-439.068407	-439.111969	28.773	
C	-0.0411979496	 1.1087609766	-0.2079758517	-0.060117
C	 1.4229494765	 1.5219889861	 0.0432511627	-0.289902
C	 1.5135830171	 0.1992094019	 0.825133929	 0.042682
O	 0.124125308	-0.1123353969	 0.5521854667	-0.29144
C	 2.4250622888	-0.851164463	 0.262471151	 0.421301
N	 3.1614666427	-0.7383498038	-0.7661465044	-0.314814
C	 3.8528834777	-2.0278163065	-0.924739951	-0.185586
C	 3.277446861	-2.9214244888	 0.2047368938	-0.111289
O	 2.4181448299	-2.0252255305	 0.9455917995	-0.255523
H	-0.8058316543	 1.7568227782	 0.235776653	 0.104347
H	-0.3068703241	 0.90470801	-1.2515834345	 0.110244
H	 2.0638195901	 1.5561285105	-0.8361817717	 0.144004
H	 1.5609882766	 2.4201044148	 0.6457023735	 0.110848
H	 1.68925422	 0.2823310701	 1.9050408838	 0.094165
H	 3.6604408674	-2.435874382	-1.9218322384	 0.120245
H	 4.9349475201	-1.8800461057	-0.8374562466	 0.117878
H	 2.6680267317	-3.7508063221	-0.1660677667	 0.122454
H	 4.0333531405	-3.314697439	 0.889060892	 0.120506
42.6403	65.2044	100.1813	150.7823	204.7126	337.0779	416.4211	605.1355	748.9884	753.2599	801.2618	831.4947	833.7982	914.589	944.8656	956.0714	980.6719	998.9794	1007.5474	1026.4389	1064.3095	1108.1341	1120.9824	1163.8307	1209.4309	1213.7509	1222.5708	1246.5918	1265.8822	1278.7101	1327.8346	1355.8403	1368.6105	1421.9795	1487.9316	1500.8564	1525.2526	1530.3364	1734.4703	3022.8438	3029.7649	3041.1704	3055.7883	3066.4472	3073.6531	3097.6853	3106.8005	3163.6351
C1CC(O1)C1=NCCO1	C1C[C@@H](O1)C1=NCCO1	
InChI=1S/C6H9NO2/c1-3-8-5(1)6-7-2-4-9-6/h5H,1-4H2	InChI=1S/C6H9NO2/c1-3-8-5(1)6-7-2-4-9-6/h5H,1-4H2/t5-/m1/s1
