15
gdb 11225	4.47167	1.40062	1.21217	4.8919	67.94	-0.2612	-0.0068	0.2544	1000.3131	0.118717	-362.679876	-362.672214	-362.67127	-362.712204	27.296	
C	 0.0142737437	 1.5273261926	 0.0436702344	-0.494107
C	 0.0304080293	 0.0349184997	 0.0022293325	 0.302638
C	-0.104272094	-0.7745280529	-1.0441119765	-0.204818
C	-0.0435075223	-2.2142216633	-0.588068006	-0.046929
O	 0.2524960085	-2.1555928526	 0.8004402477	-0.258409
C	 0.1995347529	-0.7995069343	 1.2461792029	-0.154259
C	-1.3231377807	-2.9257638068	-0.8242366673	 0.265449
N	-2.319207909	-3.4751303947	-1.0267168133	-0.321246
H	 0.9506758173	 1.9203930291	 0.4576120044	 0.137785
H	-0.1273776671	 1.9553809236	-0.951164163	 0.137814
H	-0.7929525683	 1.8910562454	 0.6909855313	 0.1414
H	-0.26303354	-0.4968820754	-2.0773243978	 0.123511
H	 0.7444700204	-2.7896307128	-1.0955212221	 0.134039
H	 1.1280769459	-0.5696452117	 1.7873867757	 0.117962
H	-0.6360115967	-0.6585557961	 1.949817527	 0.119171
75.5511	131.6564	167.2732	219.7559	288.3214	311.9794	437.4435	505.6571	557.6185	616.1379	783.8263	833.1164	898.659	910.9926	962.59	982.605	1001.1376	1039.9462	1092.264	1101.7237	1203.1898	1211.4343	1276.2264	1310.5781	1353.0504	1385.6806	1416.6395	1480.0306	1486.8864	1517.6427	1731.7324	2354.3624	2984.0208	3000.624	3020.7701	3027.7289	3076.3926	3124.998	3230.3577
CC1=CC(OC1)C#N	CC1=C[C@@H](OC1)C#N	
InChI=1S/C6H7NO/c1-5-2-6(3-7)8-4-5/h2,6H,4H2,1H3	InChI=1S/C6H7NO/c1-5-2-6(3-7)8-4-5/h2,6H,4H2,1H3/t6-/m1/s1
