22
gdb 66163	3.46404	0.92652	0.87442	3.5965	83.37	-0.2493	0.0315	0.2808	1428.5147	0.193914	-404.370902	-404.361074	-404.36013	-404.406409	36.196	
C	-0.6110897182	 1.4810775061	 0.0708440942	-0.455604
C	-0.0206670512	 0.0782766178	-0.0085956123	 0.344436
C	-1.0936297853	-0.9659899123	-0.3610759947	-0.215526
N	-1.7420736476	-0.7447748404	-1.6447254285	-0.27349
C	-3.0262786345	-0.3142310008	-1.7688294827	 0.155412
O	-3.7792483049	-0.0716486946	-0.8492790164	-0.325314
C	 1.2749690779	-0.0851604699	-0.8716112438	-0.257823
C	 1.9190268954	-0.9100569763	 0.2739841486	-0.208221
C	 0.8041481806	-0.4052032186	 1.2287550609	-0.254955
H	 0.1547959655	 2.2079473438	 0.360273896	 0.104671
H	-1.0222665512	 1.793548176	-0.8945267267	 0.11652
H	-1.4232834329	 1.5291051751	 0.8043234601	 0.128498
H	-0.6524986504	-1.9705788817	-0.3553544321	 0.101016
H	-1.8888461404	-0.946809898	 0.3888251468	 0.144879
H	-1.2151527421	-0.8989712997	-2.4893792756	 0.246427
H	-3.3210817293	-0.2111456615	-2.8326678786	 0.071699
H	 1.174735256	-0.573811981	-1.8467354965	 0.077792
H	 1.7775483845	 0.8735716193	-1.0278425129	 0.100949
H	 1.8644802863	-1.9877341202	 0.0983060289	 0.102393
H	 2.948912933	-0.6637834014	 0.5407206696	 0.100195
H	 1.1321122944	 0.4340809693	 1.8481496951	 0.099574
H	 0.3272216745	-1.1444968711	 1.8794071705	 0.096472
37.4448	72.6493	111.7515	171.4795	221.8203	242.2154	275.3259	318.1478	379.3814	384.2777	478.2604	534.2554	634.5816	714.2382	760.2174	784.1131	858.1352	893.2306	904.8168	944.1287	966.5803	976.3864	997.7237	1010.6742	1031.9089	1077.3918	1158.4448	1192.8764	1205.9376	1213.1464	1217.534	1257.5636	1274.3228	1282.1087	1302.961	1341.473	1386.4877	1414.637	1431.443	1473.3021	1477.5194	1483.937	1491.4298	1497.8179	1508.4995	1534.1742	1805.1712	2929.0142	3026.3052	3030.1806	3038.611	3049.5578	3064.1641	3087.0152	3096.6011	3100.1808	3102.022	3107.6943	3118.5743	3636.7444
CC1(CNC=O)CCC1	CC1(CNC=O)CCC1	
InChI=1S/C7H13NO/c1-7(3-2-4-7)5-8-6-9/h6H,2-5H2,1H3,(H,8,9)	InChI=1S/C7H13NO/c1-7(3-2-4-7)5-8-6-9/h6H,2-5H2,1H3,(H,8,9)
