17
gdb 36159	4.22591	1.15955	1.11885	2.8996	74.99	-0.259	0.023	0.282	1109.8403	0.137584	-380.830786	-380.823408	-380.822463	-380.863155	28.405	
N	-0.0739087429	-1.1442916674	 0.0345337316	-0.307349
C	-0.0613929491	 0.010845556	 0.0118431208	 0.263492
C	-0.0112849244	 1.472046079	-0.0165604594	-0.449898
C	 1.4126870558	 1.9869850499	-0.0141623469	 0.337591
C	 2.324399147	 1.8824492675	 1.2275281553	-0.277315
C	 2.8864057435	 3.1984002808	 0.7223167372	-0.038111
C	 2.8995739595	 3.1689169502	-0.7717723489	-0.038109
C	 2.346120523	 1.8338531737	-1.2344881372	-0.277316
N	 1.6336604848	 3.5360450535	-0.0427807356	-0.19612
H	-0.5354635358	 1.8323975985	-0.9091502521	 0.160272
H	-0.5509980983	 1.8671562009	 0.8517313199	 0.160273
H	 1.7574321796	 2.0279338753	 2.1511585452	 0.114847
H	 2.9768712785	 1.0095999355	 1.3228467005	 0.113719
H	 3.4130201485	 3.9591580118	 1.2866389205	 0.102729
H	 3.4363086712	 3.9070045197	-1.3563041291	 0.10273
H	 2.9998755351	 0.9581548416	-1.2837668124	 0.11372
H	 1.7955812938	 1.9425755036	-2.1729953695	 0.114846
56.0157	109.3435	278.4734	296.1873	392.8168	426.6841	441.6531	452.9195	699.6037	730.7486	776.2642	804.3189	820.1872	894.5374	894.6902	926.8216	955.2064	997.044	1016.3775	1023.4986	1034.1141	1072.9506	1095.0882	1100.0415	1154.1807	1162.7375	1246.4872	1249.5565	1273.1258	1306.5235	1342.268	1342.4527	1376.3723	1462.8094	1488.1682	1506.9916	2363.6313	3043.125	3050.2179	3054.9408	3082.4887	3107.2388	3109.7052	3181.2041	3192.5893
N#CCC12CC3C(C1)N23	N#CC[C@@]12C[C@H]3[C@@H](C1)N23	
InChI=1S/C7H8N2/c8-2-1-7-3-5-6(4-7)9(5)7/h5-6H,1,3-4H2	InChI=1S/C7H8N2/c8-2-1-7-3-5-6(4-7)9(5)7/h5-6H,1,3-4H2/t5-,6+,7+,9?
