21
gdb 95734	2.75652	1.15454	0.85646	0.9526	95.31	-0.2226	-0.0114	0.2112	1389.886	0.182809	-349.955304	-349.946261	-349.945316	-349.988781	35.242	
C	-0.0541605837	 1.5728186747	-0.0213609398	-0.399501
C	 0.0103129657	 0.0369681506	-0.0161744615	-0.010072
C	 0.6798757699	-0.5112650117	-1.2866403917	-0.198234
C	 0.9847994032	-2.0062869183	-1.1537992638	-0.224357
C	 1.9562278237	-2.2661556192	 0.0040223858	-0.290172
C	 1.5809623335	-1.4838679158	 1.2519716016	 0.120177
C	 0.6977679973	-0.4715537232	 1.2253171771	-0.122524
C	 2.2177737012	-1.8758191582	 2.4640312616	 0.221556
C	 2.7844047643	-2.2466144222	 3.4613102098	-0.414535
H	 0.9519321138	 2.0061306794	-0.0282874348	 0.11947
H	-0.585108156	 1.9362204107	-0.9073781282	 0.112324
H	-0.5761721839	 1.9522246862	 0.8632312958	 0.113709
H	-1.0294595072	-0.3296898112	 0.0067234475	 0.085622
H	 0.0393556153	-0.3201667848	-2.1549297655	 0.090854
H	 1.6165183703	 0.0363921007	-1.4602461727	 0.096073
H	 0.049321872	-2.55131229	-0.9728234974	 0.100642
H	 1.4028666275	-2.4008684934	-2.0859246171	 0.093669
H	 1.98980461	-3.3336211779	 0.2485054915	 0.113334
H	 2.9808491359	-1.9971324316	-0.2881810518	 0.1152
H	 0.4576081072	 0.0340844881	 2.1577980562	 0.087339
H	 3.2747504702	-2.5591903529	 4.3493951972	 0.189427
97.1038	119.5325	147.8442	241.5943	269.2815	293.521	331.7226	404.8195	445.7375	508.6822	536.451	554.7058	571.2493	588.753	632.9753	766.9509	841.7429	867.2628	902.4135	908.1943	950.6341	989.6308	996.1517	1041.8476	1078.6947	1120.0264	1148.1509	1167.1442	1192.1762	1236.0478	1282.5189	1310.1664	1330.8531	1352.23	1373.355	1381.0701	1386.4674	1410.4502	1476.5659	1488.2147	1495.9097	1498.4158	1500.2549	1688.1474	2216.6469	2961.0648	3013.6392	3013.9203	3024.4628	3028.8867	3061.3977	3065.1409	3073.4696	3099.8697	3100.8815	3154.0264	3504.6525
CC1CCCC(=C1)C#C	C[C@H]1CCCC(=C1)C#C	
InChI=1S/C9H12/c1-3-9-6-4-5-8(2)7-9/h1,7-8H,4-6H2,2H3	InChI=1S/C9H12/c1-3-9-6-4-5-8(2)7-9/h1,7-8H,4-6H2,2H3/t8-/m0/s1
