15
gdb 75104	3.09432	1.45314	1.00009	1.391	71.85	-0.2383	-0.0514	0.1869	1110.3222	0.115033	-450.188073	-450.180107	-450.179163	-450.221068	29.981	
N	 0.0369746324	 1.349186037	 0.251341928	-0.540425
C	-0.0589093131	 0.0083915318	 0.0339614586	 0.281497
N	-1.1745376242	-0.604753901	-0.0581918442	-0.32282
C	-1.1917410916	-2.0243189619	-0.3278709707	-0.222282
C	 0.1079872712	-2.715220408	-0.7084583356	 0.379574
N	 0.092498943	-3.8920653249	-1.1844913187	-0.515661
N	 1.2638504528	-1.9670346157	-0.4556472113	-0.401033
C	 1.3018313995	-0.6417269511	-0.1006230131	 0.403277
O	 2.3405838555	-0.0416859832	 0.0899355583	-0.364725
H	 0.9429179408	 1.7001780031	 0.5167146751	 0.275032
H	-0.788975849	 1.8360865175	 0.555788431	 0.263741
H	-1.5864606971	-2.5446139045	 0.5568004445	 0.1464
H	-1.9140075816	-2.2332655049	-1.1237971278	 0.151791
H	 1.032230831	-4.2495271753	-1.3684954822	 0.209697
H	 2.1675164106	-2.3999692388	-0.6048122619	 0.255937
42.6826	137.1282	213.3745	322.1253	353.9899	375.7374	440.2679	455.7237	515.6483	530.6969	550.6075	595.217	669.6557	678.457	802.3728	819.9131	870.1605	911.263	986.9988	990.251	1127.292	1215.1354	1250.8679	1290.4918	1351.148	1365.35	1416.5267	1440.4527	1462.9056	1597.3525	1738.5585	1746.9558	1797.1047	3010.5896	3070.1431	3447.2791	3572.1368	3599.139	3731.9059
NC1=NCC(=N)NC1=O	NC1=NC[C]([NH])NC1=O	
InChI=1S/C4H6N4O/c5-2-1-7-3(6)4(9)8-2/h1H2,(H2,6,7)(H2,5,8,9)	InChI=1S/C4H6N4O/c5-2-1-7-3(6)4(9)8-2/h1H2,(H2,6,7)(H2,5,8,9)
