21
gdb 115926	2.95144	1.36046	1.15434	0.4571	78.1	-0.2321	0.085	0.3171	1160.7131	0.183809	-424.209254	-424.200759	-424.199814	-424.242478	32.791	
C	-0.0413987368	 1.1569335895	 0.6688588179	-0.241353
O	-0.2492253947	-0.2361565397	 0.5260682038	-0.238061
C	-1.3698446255	-0.5697473808	-0.2587094555	 0.222335
C	-1.2980242114	-2.0948331442	-0.4916965363	-0.274003
C	-2.6337878792	-2.8261789242	-0.2988099495	-0.213108
C	-3.3468301409	-2.3792990332	 0.9636814671	-0.055632
C	-2.561980263	-1.8683154766	 2.1672768423	-0.341247
C	-3.2554613705	-0.9100481899	 1.2384009998	 0.125845
O	-2.5732994281	-0.09660762	 0.3160280492	-0.262618
H	 0.8606335936	 1.2840030783	 1.2715089191	 0.123158
H	 0.1119205987	 1.6392649117	-0.3088948746	 0.102881
H	-0.8864347338	 1.6429227671	 1.1689861074	 0.12548
H	-1.3194055458	-0.0180470196	-1.2091349266	 0.071941
H	-0.9122934923	-2.2790696497	-1.4982610378	 0.104854
H	-0.5515043901	-2.491443474	 0.2010110293	 0.125083
H	-3.2943220331	-2.629921517	-1.1537349723	 0.103544
H	-2.4505347814	-3.9064509598	-0.2878201523	 0.101677
H	-4.2912961408	-2.8754061159	 1.166496361	 0.08157
H	-3.000424915	-2.0122986491	 3.1491795129	 0.107168
H	-1.4801160156	-1.9014828353	 2.1542034777	 0.135198
H	-4.1204213745	-0.3655068076	 1.6002124776	 0.09529
67.1285	130.9507	172.4226	200.2317	287.6171	312.3144	358.3914	413.9845	504.7245	535.6768	628.0641	668.1126	740.821	790.205	815.2701	880.4867	917.7647	937.0116	952.4482	995.1607	1038.1034	1054.1917	1089.7829	1113.728	1116.7038	1126.593	1131.4326	1180.7016	1183.4843	1202.4561	1233.1946	1246.5897	1268.8274	1342.1284	1360.3986	1378.8388	1397.3084	1407.1957	1432.3778	1475.1713	1483.0586	1487.9669	1493.1947	1507.5882	1514.357	2986.2537	2992.6758	3018.9266	3055.1655	3066.7668	3067.7979	3104.3731	3123.62	3139.7504	3146.8734	3171.8128	3234.6907
COC1CCC2CC2O1	CO[C@H]1CC[C@H]2C[C@H]2O1	
InChI=1S/C7H12O2/c1-8-7-3-2-5-4-6(5)9-7/h5-7H,2-4H2,1H3	InChI=1S/C7H12O2/c1-8-7-3-2-5-4-6(5)9-7/h5-7H,2-4H2,1H3/t5-,6+,7+/m0/s1
