16
gdb 81277	2.73788	1.50088	1.29326	2.0857	65.04	-0.2382	-0.0341	0.2041	1001.9187	0.125325	-474.994878	-474.987331	-474.986387	-475.026845	29.451	
O	 0.172539896	 1.3577184931	 0.1395763645	-0.446427
C	 0.0909866845	-0.0281167134	 0.0691213579	 0.198445
C	-1.3303680278	-0.6164821958	-0.1634370923	-0.080172
N	-1.1405030406	-0.2225948216	-1.6004060765	-0.354317
C	 0.2951018562	-0.630190066	-1.3848282366	-0.177282
C	 0.1860106447	-2.1044739858	-1.0677537071	 0.392972
O	 0.9192318184	-3.032208839	-1.2939498465	-0.342488
C	-1.0959183501	-2.1383530065	-0.1935875509	 0.033581
O	-0.8445888615	-2.7191069017	 1.0641230966	-0.439454
H	-0.3764640977	 1.7010889393	-0.5787402926	 0.295715
H	 0.6827263237	-0.4480799857	 0.8815636585	 0.114526
H	-2.2080311121	-0.2350324065	 0.3581793358	 0.091838
H	-1.6462313735	-0.8019408072	-2.2721631529	 0.225954
H	 1.0622549879	-0.2720195568	-2.068245576	 0.099402
H	-1.9285451994	-2.6412092287	-0.7126742771	 0.089993
H	-0.2735838586	-3.4834436875	 0.9122133953	 0.297717
100.2054	177.58	235.6454	313.1465	324.8641	355.9488	475.7542	510.7633	534.8206	552.1923	620.2462	731.0552	760.5097	820.5941	901.1781	917.5652	946.2143	971.4818	986.3806	1050.168	1108.0804	1117.3963	1134.1938	1160.6804	1176.9595	1216.5873	1222.7585	1263.467	1270.7653	1318.4412	1339.27	1345.6274	1394.1534	1451.5854	1856.6399	2967.3587	3122.4345	3135.9073	3151.2754	3442.4373	3759.5893	3769.3927
OC1C2NC1C(=O)C2O	O[C@H]1[C@H]2N[C@@H]1C(=O)[C@H]2O	
InChI=1S/C5H7NO3/c7-3-1-4(8)5(9)2(3)6-1/h1-4,6-8H	InChI=1S/C5H7NO3/c7-3-1-4(8)5(9)2(3)6-1/h1-4,6-8H/t1-,2+,3+,4+/m1/s1
