17
gdb 126567	6.37072	0.78	0.70394	2.9899	72.43	-0.2508	-0.0046	0.2462	1585.1781	0.135116	-455.147094	-455.138383	-455.137439	-455.181604	31.092	
C	 0.0378579002	 1.6064152575	 0.1165486674	-0.389278
C	-0.0050848428	 0.0807136744	 0.0086377418	-0.168022
C	 0.7098578168	-0.59650535	 1.1833794611	-0.317361
C	 0.6935697873	-2.0816664927	 1.1207877201	 0.443212
N	 0.1604421082	-2.8124092118	 0.2148280033	-0.18144
O	 0.4311148301	-4.1476551546	 0.6337350848	-0.246066
C	 1.1319687709	-4.1031921561	 1.803337779	 0.502541
N	 1.5719507515	-5.0356312631	 2.5143875576	-0.578653
O	 1.301553813	-2.7756882791	 2.1179401944	-0.208622
H	 1.0686265324	 1.9774560124	 0.12408857	 0.120039
H	-0.4765895527	 2.0708909055	-0.7292327963	 0.123816
H	-0.4476151021	 1.9557508495	 1.0344230868	 0.120039
H	-1.0427629778	-0.2666911248	-0.0283064619	 0.124451
H	 0.4572725534	-0.2452090257	-0.9288222245	 0.12446
H	 1.7587580581	-0.2765084487	 1.2392801832	 0.142775
H	 0.2595492656	-0.298024782	 2.1393297564	 0.142772
H	 1.3426713378	-5.9400783707	 2.1102830069	 0.245335
44.7464	75.1008	123.7893	172.8278	250.7485	303.1515	319.1483	339.7738	507.5908	629.2528	713.5272	729.207	747.7912	776.7316	784.4068	879.5608	904.2555	912.3374	945.1527	991.1666	1042.0198	1064.1821	1122.6081	1132.51	1240.5447	1255.819	1277.1713	1323.1516	1361.4234	1417.332	1424.7422	1468.5046	1490.55	1501.7932	1509.0991	1698.1818	1815.5732	3025.5247	3033.538	3052.71	3053.0875	3082.2977	3106.6719	3113.2768	3546.6354
CCCC1=NOC(=N)O1	CCCC1=NO[C@@H]([NH])O1	
InChI=1S/C5H8N2O2/c1-2-3-4-7-9-5(6)8-4/h6H,2-3H2,1H3	InChI=1S/C5H9N2O2/c1-2-3-4-7-9-5(6)8-4/h5-6H,2-3H2,1H3/t5-/m0/s1
