19
gdb 41750	3.59024	1.56299	1.43055	2.1081	73.59	-0.2218	0.0809	0.3027	966.0955	0.16309	-423.002265	-422.995769	-422.994825	-423.032799	27.329	
C	 0.0147705772	 1.5376508278	-0.0154395921	-0.098802
O	 1.4469506093	 1.7627577137	-0.0212711319	-0.282965
C	 1.9509628249	 0.4259135355	-0.0013096804	 0.08089
C	 1.0868045527	-0.3393631561	-1.0398049881	-0.025216
C	 1.418707493	-1.8337976155	-1.1062291056	-0.261042
C	 1.0833312489	-2.4838714987	 0.2400855317	-0.066296
O	 1.398429755	-1.6245652204	 1.3282946369	-0.283793
C	 1.0854425107	-0.2737560733	 1.0854908676	 0.138126
C	-0.0301268453	 0.0111932583	 0.0114099278	-0.130392
H	-0.4354350444	 2.0056583562	 0.8682727031	 0.103168
H	-0.4371317054	 1.9729597991	-0.9151389294	 0.101949
H	 3.0403948116	 0.4240167513	 0.0008899029	 0.080649
H	 1.0086192316	 0.124685358	-2.0269140891	 0.07045
H	 0.8436544853	-2.3255618382	-1.8990630237	 0.103057
H	 2.4796192168	-1.9631952358	-1.35244038	 0.107388
H	 0.0116595829	-2.7320804353	 0.2689095495	 0.095201
H	 1.6413842165	-3.409442405	 0.4042764345	 0.108783
H	 1.0113118841	 0.2278737221	 2.0535602642	 0.084073
H	-1.0114090654	-0.4625689038	 0.0282735622	 0.074772
222.2175	244.7574	327.1698	346.1059	364.9915	465.1207	535.3983	657.092	664.6786	804.8513	819.3756	900.8662	908.0505	931.6056	947.9261	954.043	967.5634	993.5635	1002.6262	1032.4684	1061.9761	1085.2651	1110.0345	1117.6878	1147.7824	1172.3325	1213.3206	1217.6371	1234.4379	1256.948	1262.8926	1276.5576	1284.2566	1332.7976	1354.53	1359.651	1403.3643	1415.5638	1488.7416	1514.1058	1529.0179	2988.2105	3017.8777	3027.8938	3055.6285	3065.7725	3073.0953	3084.1451	3090.979	3121.4848	3133.7251
C1OC2C3CCOC2C13	C1O[C@@H]2[C@H]3CCO[C@@H]2[C@@H]13	
InChI=1S/C7H10O2/c1-2-8-7-5-3-9-6(7)4(1)5/h4-7H,1-3H2	InChI=1S/C7H10O2/c1-2-8-7-5-3-9-6(7)4(1)5/h4-7H,1-3H2/t4-,5-,6+,7+/m0/s1
