19
gdb 108354	2.58957	1.64894	1.29756	2.6098	74.09	-0.2405	0.0665	0.307	1034.6895	0.159486	-422.952621	-422.944692	-422.943747	-422.984951	31.148	
O	-0.024923082	 1.4114122317	-0.1954250059	-0.418752
C	 0.0027575406	 0.018921359	 0.0839744112	-0.193131
C	-1.4093677207	-0.5052760746	 0.0419517887	 0.310732
C	-1.6174769747	-2.0315665734	-0.0761948413	-0.16479
O	-2.5114042678	-1.8628976798	-1.205704065	-0.301904
C	-2.3026540008	-0.4250087673	-1.2100566978	 0.071122
C	-3.3366542241	 0.4308062582	-0.4506837582	-0.047858
C	-3.8469174213	-0.299533579	 0.7567902842	-0.312638
C	-2.4764152005	 0.312425593	 0.818382306	-0.104105
H	 0.8758158661	 1.7447111868	-0.1504714457	 0.290799
H	 0.6147452291	-0.5233916218	-0.6548879712	 0.08994
H	 0.4384939944	-0.1785039211	 1.0790132715	 0.088433
H	-0.7157014508	-2.5880409426	-0.3654226235	 0.094864
H	-2.0975037075	-2.5402744183	 0.7676044057	 0.101648
H	-1.9611316181	-0.0438471352	-2.174817563	 0.079805
H	-3.8375088701	 1.2990414712	-0.8608109997	 0.085343
H	-4.6028934121	 0.2349458948	 1.3233318347	 0.110726
H	-4.0002434222	-1.3724218374	 0.7157241769	 0.12722
H	-2.2237200675	 1.0886373458	 1.5293940124	 0.092546
93.2859	157.1623	219.9804	237.1015	286.0068	334.6189	398.7768	466.3182	536.0635	630.0201	697.5528	766.3764	802.4159	856.9188	890.7435	915.8879	939.5885	970.0007	985.7467	987.8156	1008.7125	1043.1899	1060.6796	1073.3698	1084.6903	1100.4129	1150.5298	1175.1441	1186.6405	1190.3089	1233.953	1267.1091	1283.1436	1298.25	1315.4965	1341.7958	1389.0874	1465.1414	1489.6571	1513.4087	1523.0042	2948.6498	2982.5645	3004.7607	3058.253	3089.0977	3132.3979	3183.0421	3194.0945	3214.1376	3833.1457
OCC12COC1C1CC21	OC[C@]12CO[C@H]1[C@H]1C[C@@H]21	
InChI=1S/C7H10O2/c8-2-7-3-9-6(7)4-1-5(4)7/h4-6,8H,1-3H2	InChI=1S/C7H10O2/c8-2-7-3-9-6(7)4-1-5(4)7/h4-6,8H,1-3H2/t4-,5+,6-,7+/m0/s1
