18
gdb 109461	2.5795	1.33837	0.97524	2.2955	72.48	-0.2513	-0.0368	0.2145	1204.0422	0.146887	-439.054499	-439.045884	-439.04494	-439.088119	32.318	
O	-0.1852354927	 1.4980017027	-0.0425518967	-0.419791
C	-0.1086682501	 0.1461061023	 0.3558649637	-0.074004
C	-1.4341368738	-0.5706959388	 0.0777178648	-0.222396
C	-1.7472473468	-0.687122144	-1.4217794766	 0.405841
O	-1.6321706361	 0.0994111011	-2.3233561915	-0.316432
C	-2.0588969407	-2.1859518611	-1.3268628688	-0.411952
C	-1.5504990093	-2.1108548891	 0.1266734374	 0.322532
C	-0.6613384727	-3.0540602208	 0.8392593005	-0.301146
N	-2.0885716666	-2.9275522276	 1.2042378202	-0.361299
H	-0.4648858347	 1.5021923149	-0.9681309903	 0.298966
H	 0.7086660214	-0.3879380985	-0.1552758627	 0.091309
H	 0.120258323	 0.1419595212	 1.4273635458	 0.108326
H	-2.2446464487	-0.0645705842	 0.6174554952	 0.113522
H	-3.1306866964	-2.4020937268	-1.3944255966	 0.146838
H	-1.523685735	-2.8292406785	-2.0306066118	 0.13771
H	-0.3913829532	-4.0003245699	 0.37792563	 0.125748
H	 0.0892683051	-2.6497876759	 1.5139006144	 0.120826
H	-2.1842053126	-2.3767841572	 2.0546522528	 0.235402
62.7185	123.8655	143.6507	206.9789	266.5641	318.4026	380.6219	418.8202	472.8969	500.2197	521.8127	588.2969	746.7889	802.7031	819.3485	885.4927	921.2051	941.7295	972.5458	1007.8088	1039.8487	1072.5223	1080.9502	1099.9606	1122.0749	1138.6196	1183.8252	1199.9399	1231.9439	1263.8766	1280.4055	1314.2119	1379.1355	1406.4892	1434.3696	1448.3619	1513.7217	1516.759	1869.178	2972.8836	3036.6566	3053.6198	3061.6882	3105.8151	3110.1589	3190.393	3491.3115	3754.5334
OCC1C(=O)CC11CN1	OC[C@H]1C(=O)C[C@]21CN2	
InChI=1S/C6H9NO2/c8-2-4-5(9)1-6(4)3-7-6/h4,7-8H,1-3H2	InChI=1S/C6H9NO2/c8-2-4-5(9)1-6(4)3-7-6/h4,7-8H,1-3H2/t4-,6+/m0/s1
