18
gdb 40022	3.30151	1.46468	1.23943	2.5034	77.56	-0.2314	0.0018	0.2333	1039.072	0.149688	-401.914372	-401.907199	-401.906255	-401.945882	29.137	
C	 0.3056743944	 1.5494151443	-0.0512355886	-0.218274
O	 1.3205571469	 0.549106298	-0.0077437855	-0.294253
C	-0.0542369159	 0.1198932524	-0.0101391964	 0.412887
C	-0.5113504988	-0.5220043776	 1.2948535014	-0.30313
C	-1.9300694349	-1.0441656676	 1.2248721262	-0.039371
N	-2.9258671482	-0.1865295634	 0.5724537199	-0.334245
C	-2.4804244096	-1.44315338	-0.1016926294	-0.092094
C	-1.6192807324	-1.2836427765	-1.2980204017	-0.035917
C	-0.5026696016	-0.5539930126	-1.2531249402	-0.144424
H	 0.1903350354	 2.1484011553	 0.8520157282	 0.111338
H	 0.2284355548	 2.1009220375	-0.9873716022	 0.111983
H	 0.1566444835	-1.3672975999	 1.5041940359	 0.117651
H	-0.3975649833	 0.1879152519	 2.1205626303	 0.10852
H	-2.2467580455	-1.6262272087	 2.0880263058	 0.086927
H	-3.8400751701	-0.3370816646	 0.9928915244	 0.230554
H	-3.1933462158	-2.2623512264	-0.1267066923	 0.085066
H	-1.9276468601	-1.7682562381	-2.2193586165	 0.094189
H	 0.1272060713	-0.4133645341	-2.1261726093	 0.102591
87.4736	220.2731	332.6815	337.7053	356.9569	375.4504	457.5277	551.3141	623.338	676.6267	735.9382	783.2218	815.8846	826.1445	882.8165	917.4115	921.8301	940.0138	970.9829	984.2586	1003.1223	1039.1436	1108.937	1131.1355	1151.491	1157.1616	1163.5546	1199.4195	1222.4599	1261.6604	1289.5868	1340.5772	1367.8494	1399.4594	1437.9772	1456.71	1479.2627	1526.1008	1704.6599	3030.7096	3075.2372	3076.2979	3124.177	3147.045	3164.1276	3168.167	3188.9587	3492.7973
C1OC11CC2NC2C=C1	C1O[C@]21C[C@H]1N[C@H]1C=C2	
InChI=1S/C7H9NO/c1-2-7(4-9-7)3-6-5(1)8-6/h1-2,5-6,8H,3-4H2	InChI=1S/C7H9NO/c1-2-7(4-9-7)3-6-5(1)8-6/h1-2,5-6,8H,3-4H2/t5-,6+,7-/m0/s1
