19
gdb 103191	3.17899	1.41499	1.3112	2.9785	73.64	-0.2281	0.0701	0.2982	1042.1254	0.15827	-422.948541	-422.940329	-422.939385	-422.980963	32.245	
C	 0.0339245117	 1.5655474063	-0.0281203857	-0.472739
C	 0.0177972132	 0.0412539621	-0.0379230305	 0.335483
C	-1.3890363015	-0.5156973528	 0.156644614	-0.132315
O	-1.8394360273	-0.1255387328	 1.4503119393	-0.426579
C	 0.7657177589	-0.6957282191	-1.1591371421	-0.177951
C	 2.2247185212	-0.7779591132	-0.6665633405	 0.070158
O	 2.3169097823	-0.0917681681	 0.5807923908	-0.290082
C	 1.0327097878	-0.6953778965	 0.9037840779	 0.037015
C	 1.2402466811	-1.7923148998	-0.2085080985	-0.151635
H	 1.0600536577	 1.9364741456	-0.0185498849	 0.130869
H	-0.4698862779	 1.9588984914	-0.9191958121	 0.102039
H	-0.4922006807	 1.948036919	 0.8508039595	 0.129733
H	-2.053291629	-0.1192628294	-0.627776993	 0.08492
H	-1.3770286002	-1.6117793209	 0.0581994396	 0.086225
H	-2.7568136134	-0.396470099	 1.5452887605	 0.28819
H	 0.5010021236	-0.7819574648	-2.206561041	 0.084255
H	 3.0945223535	-0.8317137454	-1.3075824211	 0.110305
H	 0.8542062976	-0.816651521	 1.9688872492	 0.093714
H	 1.2021186915	-2.8717871116	-0.2381211215	 0.098396
104.4253	179.8499	202.2646	229.7845	252.9902	284.543	346.5241	437.6149	560.2841	584.3845	654.0454	772.7609	777.1852	795.559	820.8656	860.2919	898.0235	930.8426	947.8803	969.374	989.062	1026.7152	1038.958	1055.8238	1065.7002	1081.9501	1137.7706	1151.4782	1176.8956	1199.0969	1223.8914	1224.8318	1271.3003	1284.6107	1345.4169	1369.3128	1395.1897	1452.3207	1489.8905	1504.6141	1517.5536	2969.0924	3003.9115	3034.8899	3103.9743	3141.3732	3162.0151	3183.2558	3205.5088	3220.7523	3836.0406
CC1(CO)C2C3OC1C23	C[C@@]1(CO)[C@H]2[C@H]3O[C@@H]1[C@@H]23	
InChI=1S/C7H10O2/c1-7(2-8)4-3-5(4)9-6(3)7/h3-6,8H,2H2,1H3	InChI=1S/C7H10O2/c1-7(2-8)4-3-5(4)9-6(3)7/h3-6,8H,2H2,1H3/t3-,4+,5-,6+,7+/m0/s1
