21
gdb 91920	2.43446	1.45808	1.02487	2.0171	77.51	-0.2587	0.0777	0.3364	1212.9035	0.183565	-424.228933	-424.220376	-424.219431	-424.261798	33.726	
C	 0.0324861389	 1.5863777945	-0.0250611413	-0.403295
C	-0.0019249628	 0.0558757017	 0.0094697583	 0.020819
C	 0.6706232309	-0.546945489	-1.2404571992	-0.225943
C	 0.9513468825	-2.0345233865	-1.1272014839	 0.03083
O	 2.1026010007	-2.4125634944	-0.3552242226	-0.266364
C	 0.8019112829	-2.7525042209	 0.1492492421	 0.020938
C	 0.4084794412	-2.0207753261	 1.4147179351	 0.107028
O	 1.0850792692	-2.5737492837	 2.5373187454	-0.442381
C	 0.6338905905	-0.508952453	 1.2889110675	-0.227496
H	 1.0640771354	 1.9552042166	 0.0144515392	 0.11661
H	-0.4243912417	 1.9745769053	-0.9417735966	 0.111286
H	-0.5073760315	 2.0137122089	 0.8261315933	 0.113783
H	-1.0563425619	-0.2590053341	 0.0002651703	 0.072455
H	 0.042955162	-0.3682579058	-2.1210735948	 0.099907
H	 1.6246778202	-0.0380620171	-1.431562838	 0.113003
H	 0.8496275713	-2.6124420841	-2.0461406821	 0.092151
H	 0.5854017026	-3.8211507812	 0.1433347271	 0.092847
H	-0.6557499655	-2.2137513444	 1.6029359292	 0.088599
H	 2.0291865767	-2.5143775736	 2.3483255507	 0.286004
H	 1.7135062675	-0.3115108178	 1.2816394202	 0.099072
H	 0.221730951	-0.0199515455	 2.1774831302	 0.100146
98.6102	152.4829	216.8725	246.2045	267.466	352.6137	371.2616	398.056	428.5026	443.0094	460.7843	636.2462	649.7463	778.155	831.4109	862.1903	876.8246	903.742	948.1256	965.9416	1015.3275	1038.1378	1060.8862	1076.9882	1110.2756	1140.7586	1166.1975	1178.857	1182.4411	1263.59	1281.3024	1289.7045	1321.7183	1328.5158	1368.2889	1373.1923	1380.2029	1396.6264	1411.9689	1431.4869	1459.9621	1477.5635	1488.4272	1497.9775	1500.9701	2988.3929	3021.8306	3025.2275	3028.5216	3035.3799	3064.7259	3081.7134	3093.3446	3099.876	3101.1592	3114.6285	3791.1393
CC1CC2OC2C(O)C1	C[C@H]1C[C@H]2O[C@H]2[C@@H](O)C1	
InChI=1S/C7H12O2/c1-4-2-5(8)7-6(3-4)9-7/h4-8H,2-3H2,1H3	InChI=1S/C7H12O2/c1-4-2-5(8)7-6(3-4)9-7/h4-8H,2-3H2,1H3/t4-,5+,6-,7+/m1/s1
