19
gdb 84955	2.22678	1.66415	1.05514	4.4014	79.46	-0.2226	-0.0544	0.1682	1163.2414	0.15931	-419.250696	-419.241458	-419.240514	-419.285331	33.533	
C	 0.1186729799	 1.5898295793	 0.0037575458	-0.393965
C	 0.0153581673	 0.0593447804	 0.0223885073	 0.016483
C	 0.7005895447	-0.6021706476	-1.1934226137	-0.361951
C	 1.9452885619	-1.2698518304	-0.6277051057	 0.345821
O	 2.855942654	-1.7704968046	-1.2340153086	-0.306693
C	 1.845106733	-1.2175978446	 0.8832621102	 0.267909
N	 2.6595503777	-1.7168713759	 1.7306044507	-0.562769
N	 0.6942966689	-0.5396690511	 1.1745703229	-0.061764
C	 0.2562239821	-0.3077435218	 2.5303088779	-0.344979
H	 1.1642971123	 1.9074474665	-0.0702106278	 0.127742
H	-0.4279876762	 1.9959654394	-0.8531265775	 0.124279
H	-0.3078751038	 2.0276796232	 0.9107655816	 0.126032
H	-1.0470648324	-0.2156021142	 0.0653873469	 0.086401
H	 0.0704341963	-1.3770035063	-1.6427897087	 0.147036
H	 0.9606400657	 0.1045106211	-1.9849285025	 0.141025
H	 3.4019613763	-2.1915590538	 1.2136101559	 0.229899
H	 0.7282253933	-1.0547815921	 3.1711599874	 0.170691
H	 0.540035845	 0.6870057484	 2.8990365517	 0.128072
H	-0.8338714059	-0.4022915461	 2.5945971363	 0.120731
43.0952	97.8215	112.8655	155.6835	265.1006	292.4919	320.8222	339.266	420.3251	428.4407	545.484	575.3493	655.6832	671.6008	708.8857	834.1449	871.2719	914.0533	936.4797	1021.8839	1055.6751	1075.9683	1110.99	1143.0105	1154.52	1207.5331	1227.6172	1252.4055	1313.6958	1334.292	1381.2027	1407.0657	1438.6874	1450.7809	1466.5732	1488.685	1491.0407	1503.26	1518.9653	1724.4243	1850.7741	3005.6835	3010.5387	3035.4283	3061.267	3064.9876	3109.9736	3111.5506	3116.0339	3138.2308	3467.352
CC1CC(=O)C(=N)N1C	C[C@H]1CC(=O)[C]([NH])N1C	
InChI=1S/C6H10N2O/c1-4-3-5(9)6(7)8(4)2/h4,7H,3H2,1-2H3	InChI=1S/C6H10N2O/c1-4-3-5(9)6(7)8(4)2/h4,7H,3H2,1-2H3/t4-/m0/s1
