19
gdb 67476	2.52897	1.68568	1.55924	0.8358	73.77	-0.2192	0.0699	0.2891	973.211	0.161348	-422.994418	-422.98713	-422.986186	-423.025643	30.069	
O	-0.0884790631	 1.4198335611	-0.1503451067	-0.455366
C	-0.0043503039	 0.0510489913	-0.0078023954	 0.295766
C	-1.2005111225	-0.8431953693	-0.0944843716	-0.08366
C	-1.3587143885	-1.8578372076	-1.216544888	-0.23021
C	-0.041774215	-2.5451312139	-1.633552692	-0.195992
C	 1.1637804696	-1.5889027964	-1.6404878207	-0.223264
C	 1.2235358997	-0.8245379565	-0.3235484985	 0.037348
O	 0.9209616624	-1.6888532269	 0.8199344616	-0.300912
C	-0.259297299	-0.936184797	 1.1057439336	-0.01293
H	 0.6114433059	 1.8244511744	 0.3755000316	 0.286266
H	-2.111056928	-0.3135140299	 0.182256461	 0.092544
H	-2.0960916042	-2.619877175	-0.9383012231	 0.099144
H	-1.7805176694	-1.3237128032	-2.0787749892	 0.101738
H	 0.1778706886	-3.3541576905	-0.9324567214	 0.120548
H	-0.1644762954	-3.0003488656	-2.6216740944	 0.088065
H	 2.0869037381	-2.1571262249	-1.8000532505	 0.100738
H	 1.0932854079	-0.8564267384	-2.4558781123	 0.104403
H	 2.1801193175	-0.3134127563	-0.1619276562	 0.070098
H	-0.5718588206	-0.8545623653	 2.1403066123	 0.105675
176.9192	205.4825	273.2184	326.4901	345.2767	387.7071	419.1598	487.9236	623.0247	641.2535	689.299	717.9058	786.6393	855.3622	866.4045	897.2521	934.7323	941.7867	954.2533	998.2806	1016.6927	1058.0315	1082.154	1092.2277	1113.545	1172.7037	1178.9137	1214.8659	1248.6159	1261.6133	1289.6311	1322.9643	1342.1881	1349.9204	1372.0636	1382.0407	1392.9577	1478.2298	1481.3081	1496.6896	1507.4029	3012.7995	3020.7416	3037.6279	3047.9692	3055.5158	3067.7075	3102.8208	3129.4142	3183.3884	3782.5733
OC12C3CCCC1OC23	O[C@@]12[C@H]3CCC[C@@H]1O[C@@H]23	
InChI=1S/C7H10O2/c8-7-4-2-1-3-5(7)9-6(4)7/h4-6,8H,1-3H2	InChI=1S/C7H10O2/c8-7-4-2-1-3-5(7)9-6(4)7/h4-6,8H,1-3H2/t4-,5-,6+,7-/m0/s1
