13
gdb 132441	3.24439	1.4017	0.98472	1.9312	65.98	-0.2485	-0.0786	0.1699	1088.7131	0.087732	-497.90036	-497.892829	-497.891884	-497.932687	27.519	
C	-0.031951228	 1.5053463492	-0.0012911779	-0.462501
C	-0.0090320744	 0.0078734357	-0.0525938957	 0.178376
N	-0.0437875716	-0.6244234127	-1.1819445851	-0.258608
C	-0.0217391933	-1.9973365064	-1.2037077999	-0.252268
C	 0.0361269963	-2.6808805857	-0.0444664917	 0.367568
F	 0.0619062554	-3.9872661233	 0.0544471449	-0.026895
O	 0.0740568697	-2.0974895984	 1.1441415707	-0.211557
C	 0.0547015721	-0.6859528067	 1.2467582848	 0.386302
O	 0.0903351775	-0.2003651006	 2.3383013324	-0.303517
H	 0.8603279924	 1.8882672031	 0.505679138	 0.149703
H	-0.0806547321	 1.904813605	-1.014462888	 0.143727
H	-0.891304755	 1.8589882286	 0.5785427402	 0.14972
H	-0.0515069191	-2.5047464178	-2.1574700226	 0.13995
104.1686	137.3418	177.2075	283.8964	352.7832	355.8981	456.8254	477.038	522.019	580.8336	681.1824	721.2037	768.6407	779.882	843.6069	951.6185	1002.2038	1051.554	1051.5729	1222.8751	1245.519	1329.0285	1405.3539	1416.6366	1468.2504	1468.8793	1589.482	1684.5075	1856.0788	3041.8398	3094.9183	3156.1098	3230.9024
CC1=NC=C(F)OC1=O	Cc1ncc(F)oc1=O	
InChI=1S/C5H4FNO2/c1-3-5(8)9-4(6)2-7-3/h2H,1H3	InChI=1S/C5H4FNO2/c1-3-5(8)9-4(6)2-7-3/h2H,1H3
