18
gdb 83725	2.4865	1.78701	1.30458	1.2137	70.55	-0.2222	-0.0357	0.1865	1000.9119	0.148838	-439.077253	-439.069506	-439.068562	-439.109876	29.888	
O	 0.3177745423	 1.2315698765	 0.5168668307	-0.432514
C	 0.0395733441	-0.0799671752	 0.10065357	 0.039016
C	-1.458133153	-0.4310400784	-0.0355449192	-0.019866
C	-2.4016036696	 0.7262765224	-0.4252519041	-0.234432
C	-2.3122439363	 0.2076252011	-1.8801348596	-0.177563
N	-1.6511698902	-1.0479962476	-1.4074265925	-0.102101
C	-0.3423197661	-1.323502342	-1.9999998907	-0.285455
C	 0.5961085205	-0.3365188923	-1.3108838075	 0.340917
O	 1.5364348085	 0.2699049157	-1.7596680219	-0.316314
H	 1.0830028688	 1.5134044556	-0.0084426731	 0.291976
H	 0.5229684108	-0.8111357272	 0.7732210112	 0.093769
H	-1.793576282	-1.0814293099	 0.7759861649	 0.081087
H	-3.394576426	 0.6353786603	 0.016554279	 0.111018
H	-2.0066307006	 1.7236503538	-0.2375585961	 0.130647
H	-3.2526700145	 0.0245752584	-2.4080528764	 0.109471
H	-1.6712132133	 0.8287654027	-2.5211565145	 0.103313
H	-0.0258113429	-2.3534055672	-1.7809566509	 0.128765
H	-0.3431691105	-1.1947089068	-3.0846590394	 0.138265
63.3648	101.2496	244.057	260.4731	356.6219	403.3236	428.2346	511.5565	569.6361	616.815	666.1203	702.0571	775.7156	782.1133	862.5825	903.1378	954.3171	972.2753	991.7946	1043.6736	1059.6483	1105.966	1149.7154	1176.4196	1195.519	1215.245	1217.4744	1253.5664	1262.4592	1270.0225	1294.8829	1322.0464	1358.4498	1367.6989	1410.2537	1461.1898	1485.6643	1521.2174	1839.6627	2939.4389	3003.7405	3010.0352	3065.8895	3073.4534	3095.1262	3112.8656	3155.797	3699.5563
OC1C2CCN2CC1=O	O[C@H]1[C@H]2CCN2CC1=O	
InChI=1S/C6H9NO2/c8-5-3-7-2-1-4(7)6(5)9/h4,6,9H,1-3H2	InChI=1S/C6H9NO2/c8-5-3-7-2-1-4(7)6(5)9/h4,6,9H,1-3H2/t4-,6+/m1/s1
