21
gdb 40815	3.86036	1.01674	0.8522	2.0132	84.8	-0.2401	0.0237	0.2638	1383.9262	0.184277	-387.086632	-387.078348	-387.077404	-387.119911	32.016	
C	-0.4129816008	 0.9902030826	-0.6340921283	-0.18323
O	 0.5228052661	 1.6165347382	 0.2467437888	-0.244908
C	 0.4800567016	 0.1879668084	 0.2101568896	 0.081646
C	-0.0009695501	-0.5126337022	 1.4662174615	-0.044259
C	-0.4046948048	-1.9670575926	 1.1649099948	-0.212667
C	-0.5873468472	-2.7715441521	 2.4570747766	-0.212527
C	 0.7184200626	-2.8205054582	 3.263667691	-0.237643
C	 1.3917567294	-1.4737509144	 3.3232440544	-0.068545
C	 1.0595345707	-0.4465396948	 2.5424374392	-0.049915
H	-1.4604553171	 1.0968474378	-0.3531352922	 0.110405
H	-0.2046403843	 1.1047430571	-1.6969156319	 0.113033
H	 1.3550979146	-0.2652335747	-0.2611464647	 0.090941
H	-0.8845461095	 0.0447469953	 1.8127711358	 0.082491
H	-1.3199679506	-1.9832339794	 0.5631891552	 0.093543
H	 0.3797357883	-2.4382692872	 0.5563856532	 0.09616
H	-1.369410853	-2.2996395577	 3.0655824452	 0.100682
H	-0.933253548	-3.7857377999	 2.2309946364	 0.091623
H	 0.5226183101	-3.1816227648	 4.2812528026	 0.102387
H	 1.408877277	-3.5559582751	 2.8234272792	 0.106595
H	 2.1843771448	-1.3523456996	 4.0584604748	 0.084817
H	 1.5650948202	 0.5099351634	 2.6511170888	 0.099371
79.2282	85.8611	171.547	245.3513	290.5297	315.9793	410.6879	465.5877	493.4934	553.4027	676.7384	740.7537	813.1087	844.9406	868.661	885.2553	910.5455	928.1591	971.3317	990.856	1015.7298	1061.4321	1072.572	1089.3023	1107.3083	1134.8761	1156.6019	1162.583	1176.3788	1216.4234	1248.7449	1274.006	1280.5546	1296.9272	1328.6071	1364.548	1372.6312	1378.5973	1418.8309	1440.0853	1474.8775	1489.6353	1497.01	1528.3386	1722.4894	2986.909	2994.5072	3012.8432	3023.2534	3040.998	3066.0554	3072.3185	3079.2539	3087.0555	3141.5593	3165.6803	3166.8806
C1OC1C1CCCC=C1	C1O[C@H]1[C@H]1CCCC=C1	
InChI=1S/C8H12O/c1-2-4-7(5-3-1)8-6-9-8/h2,4,7-8H,1,3,5-6H2	InChI=1S/C8H12O/c1-2-4-7(5-3-1)8-6-9-8/h2,4,7-8H,1,3,5-6H2/t7-,8-/m1/s1
