24
gdb 100831	2.81248	0.86701	0.74299	3.6514	87.34	-0.2475	0.0346	0.2821	1639.1311	0.215415	-405.589624	-405.578246	-405.577302	-405.627492	40.712	
C	 0.1594279209	 1.5634538318	 0.1109908757	-0.392474
C	-0.0473127809	 0.0545426545	-0.0654851749	-0.176218
C	 0.6946895691	-0.5587774644	-1.2705214762	 0.03599
C	 2.2054135546	-0.2902955769	-1.2023220892	-0.395508
C	 0.4140885892	-2.0783770067	-1.4037980973	 0.036887
C	-1.0759289276	-2.4489315394	-1.4234715061	-0.407339
N	 1.0608129478	-2.6123412551	-2.6034337161	-0.274206
C	 1.9455114091	-3.644133874	-2.5940261745	 0.151286
O	 2.3463250838	-4.2219030842	-1.6051563086	-0.326551
H	 1.1938121777	 1.8131686265	 0.3622013458	 0.122518
H	-0.102378829	 2.1083580985	-0.8034798339	 0.112118
H	-0.4748655918	 1.9465761063	 0.9163714186	 0.113371
H	 0.2680945271	-0.4667375556	 0.8492802157	 0.098423
H	-1.120988043	-0.1314042093	-0.168385448	 0.098366
H	 0.3005616266	-0.0755206466	-2.1802119672	 0.056831
H	 2.7307413971	-0.7683766003	-2.0320618916	 0.116744
H	 2.4231141025	 0.7797291279	-1.2441770106	 0.113949
H	 2.6288772092	-0.6836507957	-0.2707587084	 0.121397
H	 0.8981890613	-2.6011961386	-0.5727381567	 0.122784
H	-1.187312805	-3.5208096068	-1.6070772913	 0.127521
H	-1.5638432485	-2.2195954195	-0.4736522488	 0.127462
H	-1.6101492967	-1.9100282369	-2.2157719989	 0.106653
H	 0.7801719877	-2.2428733465	-3.4993636875	 0.240563
H	 2.2770436388	-3.9058959993	-3.6195070898	 0.069434
20.6614	53.7979	82.6417	165.6131	187.257	206.3837	207.9261	234.5802	275.3217	331.3155	350.3989	387.5118	416.9071	491.2282	506.0219	537.0223	744.3146	784.4124	833.6764	872.8951	913.6607	964.4749	989.5601	1001.2311	1029.3605	1041.1346	1071.2818	1128.7094	1159.3244	1179.7191	1187.0097	1209.9264	1281.1322	1310.412	1348.0872	1357.6813	1374.2858	1384.7758	1405.3815	1410.6012	1413.7641	1432.038	1482.2826	1492.2436	1494.5403	1499.0753	1502.0621	1507.2385	1516.2355	1527.6002	1802.7786	2924.3743	2963.3459	3015.1634	3030.3963	3033.4853	3039.6972	3068.4903	3075.2624	3097.3209	3106.4528	3108.1446	3114.6834	3127.2287	3128.7905	3615.7056
CCC(C)C(C)NC=O	CC[C@@H](C)[C@@H](C)NC=O	
InChI=1S/C7H15NO/c1-4-6(2)7(3)8-5-9/h5-7H,4H2,1-3H3,(H,8,9)	InChI=1S/C7H15NO/c1-4-6(2)7(3)8-5-9/h5-7H,4H2,1-3H3,(H,8,9)/t6-,7-/m1/s1
