19
gdb 94641	4.02103	0.79317	0.71138	5.6063	77.12	-0.2335	0.0282	0.2617	1568.487	0.159143	-419.189174	-419.17977	-419.178826	-419.22425	33.938	
O	-0.2009682578	 1.4773739522	 0.1145265225	-0.440049
C	 0.0417426512	 0.0808295485	 0.0621988038	 0.092993
C	 0.1612376971	-0.5582725213	 1.4726853312	-0.251352
C	-1.3775102273	-0.7715878991	 1.4730982739	-0.245401
C	-1.3268332018	-0.6284070146	-0.0889247439	 0.068559
N	-2.3193525792	 0.086655115	-0.8526223729	-0.308499
C	-3.6559074392	-0.4772131954	-0.7425227802	-0.265273
C	-4.6199603919	 0.2828469405	-1.54429985	 0.258157
N	-5.3891142976	 0.8892556726	-2.1563172456	-0.300614
H	 0.6109002711	 1.9177649769	 0.3826472293	 0.290846
H	 0.8142725446	-0.1562120239	-0.6796461243	 0.070394
H	 0.7129414016	-1.5021757191	 1.4453451923	 0.106415
H	 0.5851273001	 0.0782663757	 2.2530700644	 0.099423
H	-1.7624406998	-1.703496119	 1.8924056306	 0.097848
H	-1.8978081674	 0.073451029	 1.9315209938	 0.11042
H	-1.1773788412	-1.6184044111	-0.5371863372	 0.085964
H	-2.3116255664	 1.0650845065	-0.58386824	 0.245634
H	-3.6382492302	-1.508768121	-1.1182302523	 0.151226
H	-4.0470276259	-0.5307337226	 0.2898585345	 0.13331
51.6497	94.9305	97.3489	155.8533	221.7338	232.4668	288.6396	385.3737	397.8441	430.175	480.6153	607.8011	702.4668	746.4229	795.8402	874.6833	893.243	916.9122	957.211	961.3622	1002.3557	1027.0717	1073.2025	1099.6787	1154.3293	1181.4395	1201.3185	1209.0634	1248.307	1259.1133	1267.0456	1282.5229	1322.9198	1342.796	1392.4364	1421.3816	1469.2001	1488.1222	1490.9575	1502.2828	2368.2812	2938.3611	3019.5989	3034.5408	3037.7831	3059.9921	3065.7139	3109.5468	3126.3026	3537.778	3829.8467
OC1CCC1NCC#N	O[C@H]1CC[C@H]1NCC#N	
InChI=1S/C6H10N2O/c7-3-4-8-5-1-2-6(5)9/h5-6,8-9H,1-2,4H2	InChI=1S/C6H10N2O/c7-3-4-8-5-1-2-6(5)9/h5-6,8-9H,1-2,4H2/t5-,6+/m1/s1
