20
gdb 99035	5.06856	0.74536	0.65926	0.8039	82.19	-0.2193	0.0003	0.2196	1737.3859	0.169755	-436.523193	-436.512556	-436.511612	-436.559861	37.53	
C	-0.4915115401	 1.2265809106	 0.3610291233	-0.370977
C	 0.6366162683	 0.2548969283	 0.0235058478	-0.308297
C	 0.4916573591	-0.3533778557	-1.3682919416	 0.447508
O	-0.5014305857	-0.1759658756	-2.0595008864	-0.383229
N	 1.5616500416	-1.1166110301	-1.7539378189	-0.385965
C	 1.777357018	-1.8146324833	-2.9627868715	 0.461445
N	 0.69960135	-1.8866531682	-3.7984186254	-0.566275
N	 2.9381197525	-2.3300022441	-3.1037395186	-0.331331
C	 3.183827343	-3.0820033331	-4.3171041555	-0.333235
H	-0.501856441	 2.0714401644	-0.3321897546	 0.131849
H	-1.462879561	 0.7328122645	 0.2882782053	 0.138507
H	-0.3699705587	 1.6135751072	 1.3763715967	 0.11168
H	 1.6143718102	 0.7483219077	 0.0921749922	 0.123715
H	 0.6666830265	-0.5705505622	 0.7470538664	 0.132634
H	 2.3647810103	-1.1779461875	-1.1455702224	 0.260758
H	-0.0703800725	-1.2593621907	-3.5963114157	 0.281529
H	 0.8806670708	-2.1366642488	-4.7550875256	 0.256386
H	 4.1932223907	-3.5001210646	-4.2851951218	 0.122231
H	 2.4808054498	-3.9204952326	-4.4488574064	 0.109953
H	 3.1225890183	-2.4592412661	-5.2263856773	 0.101115
30.3911	78.2751	94.3127	146.4603	151.249	199.0274	248.0661	263.8676	344.0131	353.9359	398.6115	413.5189	551.8073	611.6072	640.0531	672.7199	694.286	733.0112	814.9682	904.7037	944.5092	1011.4706	1046.1075	1099.3153	1101.3448	1115.7622	1140.0013	1199.0119	1220.698	1287.1172	1370.1966	1406.6053	1415.7345	1440.1064	1464.7987	1491.6628	1493.3903	1499.2795	1505.3226	1510.6583	1618.4649	1749.1109	1765.1761	2950.001	2994.3341	3025.3874	3054.5764	3057.8213	3095.9826	3124.9775	3135.373	3509.7928	3623.7337	3701.1209
CCC(=O)NC(N)=NC	CCC(=O)NC(=NC)N	
InChI=1S/C5H11N3O/c1-3-4(9)8-5(6)7-2/h3H2,1-2H3,(H3,6,7,8,9)	InChI=1S/C5H11N3O/c1-3-4(9)8-5(6)7-2/h3H2,1-2H3,(H3,6,7,8,9)
