17
gdb 49304	3.37522	1.1811	0.90056	3.1741	81.07	-0.238	-0.0648	0.1732	1246.2188	0.136345	-421.839287	-421.83127	-421.830326	-421.872891	29.643	
O	-0.1354312161	-0.0334963729	 0.1048763331	-0.270129
C	-0.0286292243	 1.1688876063	 0.0515610223	 0.105805
C	 1.2598364516	 1.9094555882	 0.0089609484	 0.190306
C	 1.1605060295	 3.2514992264	-0.057804833	-0.160247
C	 2.2750636856	 4.2541417901	-0.0791514338	-0.148546
O	 3.4679544609	 3.8516867922	 0.5488527384	-0.229715
C	 4.2585509524	 2.8999601181	-0.1363611451	-0.150689
C	 3.7424242951	 1.4876543041	-0.105455797	-0.08597
C	 2.4703694435	 1.0877036824	-0.0083575089	-0.117832
H	-0.9280731076	 1.82457096	 0.03106397	 0.07109
H	 0.1587717077	 3.6804594992	-0.0915059283	 0.102699
H	 2.4576320262	 4.5731553695	-1.1220078979	 0.113045
H	 1.9505184895	 5.1511706622	 0.4621373761	 0.129306
H	 4.4324483576	 3.2168316275	-1.1799864241	 0.106191
H	 5.2338102844	 2.9314923364	 0.3627747903	 0.1247
H	 4.5157106697	 0.7237643491	-0.1581489392	 0.101427
H	 2.2612106341	 0.0226391311	 0.0248186786	 0.11856
31.0823	111.0181	224.6476	260.7492	294.3364	352.0779	371.579	406.8538	555.1867	577.0722	689.5859	749.7768	769.9176	824.4233	865.0858	906.5628	950.1357	1007.1508	1024.3761	1037.6438	1057.494	1074.7391	1143.0625	1204.8502	1247.4816	1265.9485	1332.8572	1354.3735	1393.2674	1412.4371	1427.3204	1453.2938	1461.7906	1477.1599	1686.9257	1715.4667	1799.3487	2877.2737	2935.9973	2951.1838	3051.1841	3059.2291	3126.4811	3147.0951	3183.0544
O=CC1=CCOCC=C1	O=CC1=CCOCC=C1	
InChI=1S/C7H8O2/c8-6-7-2-1-4-9-5-3-7/h1-3,6H,4-5H2	InChI=1S/C7H8O2/c8-6-7-2-1-4-9-5-3-7/h1-3,6H,4-5H2
