21
gdb 95847	2.36308	1.32389	1.08286	3.0631	82.27	-0.2462	0.0332	0.2794	1225.7808	0.185309	-383.302063	-383.29333	-383.292385	-383.335246	33.735	
C	 2.947*^-7	 1.5858063418	 0.0021090378	-0.406126
C	 0.0311225022	 0.0561392569	-0.0397348174	 0.02916
C	 0.7665762791	-0.473486871	-1.2822780742	-0.170244
C	 0.8393666332	-2.0019735175	-1.2772966704	-0.184115
N	 1.4867490696	-2.4616624713	-0.0425718949	-0.280325
C	 0.7772843331	-2.0627201571	 1.1702777211	-0.145087
C	 0.6781623701	-0.5250971393	 1.2272149384	-0.185567
C	-0.5677594741	-2.6856343002	 1.2845548148	 0.265939
N	-1.6000061772	-3.2048629917	 1.339149181	-0.338627
H	 1.0145103591	 1.9986985597	 0.0509829456	 0.114585
H	-0.4825508497	 1.9943925668	-0.891778808	 0.115036
H	-0.5508069527	 1.9493920559	 0.8760123981	 0.114831
H	-1.0054988485	-0.3077413964	-0.0817096019	 0.092385
H	 0.262565468	-0.1325836587	-2.1935851663	 0.095729
H	 1.786180377	-0.0673417871	-1.3013036059	 0.100415
H	-0.1762258146	-2.4178594738	-1.3980075029	 0.104633
H	 1.4396332044	-2.3598858587	-2.1194683814	 0.104496
H	 1.6036691751	-3.4688102111	-0.0604392239	 0.23086
H	 1.3573400497	-2.4132522948	 2.0314055342	 0.122591
H	 1.7012051586	-0.144259799	 1.3273883496	 0.108903
H	 0.1216783729	-0.2255778335	 2.1211804166	 0.110529
98.8162	118.0672	198.1375	233.0603	267.6045	301.6102	337.6352	393.9958	410.5507	446.7412	526.1428	604.0653	687.185	770.9933	794.8069	808.5646	891.5259	897.8507	932.1015	970.7702	999.8104	1006.5573	1067.6804	1111.7288	1134.1317	1138.7906	1169.9657	1207.5309	1251.6042	1284.9404	1301.4745	1336.0358	1338.3432	1346.6041	1385.3999	1398.5991	1406.923	1415.0551	1469.5731	1484.0565	1490.6312	1497.7938	1500.7017	1508.4635	2337.5904	2953.9555	3005.6756	3023.8205	3027.2476	3037.9688	3050.3261	3072.516	3074.4934	3087.1786	3094.6234	3100.2349	3532.9669
CC1CCNC(C1)C#N	C[C@H]1CCN[C@@H](C1)C#N	
InChI=1S/C7H12N2/c1-6-2-3-9-7(4-6)5-8/h6-7,9H,2-4H2,1H3	InChI=1S/C7H12N2/c1-6-2-3-9-7(4-6)5-8/h6-7,9H,2-4H2,1H3/t6-,7-/m0/s1
