14
gdb 35148	2.49622	1.32363	1.02715	3.7199	80.38	-0.2609	-0.0122	0.2487	1153.6845	0.09796	-362.338476	-362.329631	-362.328686	-362.371943	32.646	
C	-0.0351694955	-1.207883335	 0.0319120708	-0.425326
C	-0.0404305844	-0.0071409094	 0.0326076344	 0.26455
C	-0.0433232697	 1.4322942887	 0.0378204884	-0.016736
C	 0.4804637061	 2.146802055	 1.278609197	-0.301853
C	 1.3293931398	 2.1709847846	 0.0362751953	-0.215209
C	 2.5451650397	 1.4130794069	-0.0319014854	 0.308183
N	 3.5336268047	 0.8159918285	-0.0927996756	-0.327819
C	-1.0930263098	 2.0736057667	-0.7133261298	 0.250214
C	-1.9634479884	 2.6207925026	-1.3347468558	-0.417902
H	-0.0236835175	-2.2700412892	 0.0249047327	 0.208116
H	-0.0132057888	 3.0684453501	 1.5601062984	 0.150285
H	 0.8056678189	 1.5123141586	 2.0931925105	 0.160448
H	 1.337618869	 3.0902266109	-0.5379672545	 0.156323
H	-2.7374603742	 3.092897911	-1.8882546064	 0.206726
99.3313	108.1911	130.8418	197.7449	236.9818	264.6898	428.4403	448.9519	470.9544	555.9484	564.9817	601.9908	615.8959	625.635	670.035	672.9527	676.5797	780.1577	852.2198	934.7814	976.7955	1042.631	1092.1971	1128.8609	1230.3583	1282.9603	1379.9796	1471.3498	2244.4056	2248.4589	2359.2396	3157.4193	3186.5508	3258.7447	3500.5395	3501.6168
C#CC1(CC1C#N)C#C	C#CC1(C[C@H]1C#N)C#C	
InChI=1S/C8H5N/c1-3-8(4-2)5-7(8)6-9/h1-2,7H,5H2	InChI=1S/C8H5N/c1-3-8(4-2)5-7(8)6-9/h1-2,7H,5H2/t7-/m0/s1
