13
gdb 19007	5.64866	1.95713	1.73667	3.1565	56.87	-0.2481	-0.0095	0.2386	723.2172	0.098087	-398.5604	-398.555136	-398.554191	-398.589709	21.157	
O	-0.0788598775	-0.005550855	-0.0388799095	-0.331638
C	 0.0088905123	 1.1825245263	-0.0047006496	 0.455971
O	-1.0750292713	 2.0388816128	 0.0064214885	-0.246118
C	-0.4682843374	 3.3273015002	 0.0492771021	 0.130436
C	 0.7917111355	 3.3619597828	-0.8538626876	-0.055551
N	 1.3977719737	 4.3587193697	 0.0995766544	-0.334992
C	 0.7704276391	 3.3109562955	 0.9819097552	-0.05556
C	 1.1919710507	 2.1266392053	 0.0351763603	-0.218647
H	-1.1983895253	 4.1303611811	 0.0631111659	 0.123174
H	 0.8564948898	 3.4561321355	-1.9380069026	 0.104972
H	 2.4139758763	 4.242189753	 0.1081205028	 0.221351
H	 0.8100183882	 3.3447547606	 2.0708193613	 0.104971
H	 2.1988069459	 1.7165673723	 0.0354410289	 0.101631
179.4868	389.0384	422.2415	516.7928	632.6899	688.0125	736.6562	795.0417	856.7686	866.0612	889.4666	908.3132	921.6025	961.7351	1004.1372	1053.8796	1113.7717	1124.0165	1134.1077	1150.4188	1156.3415	1174.9544	1220.9739	1257.8365	1296.2567	1320.1998	1361.649	1913.8186	3120.3249	3121.4143	3164.122	3188.2207	3414.7496
O=C1OC2C3NC2C13	O=C1O[C@@H]2[C@H]3N[C@@H]2[C@@H]13	
InChI=1S/C5H5NO2/c7-5-1-2-4(8-5)3(1)6-2/h1-4,6H	InChI=1S/C5H5NO2/c7-5-1-2-4(8-5)3(1)6-2/h1-4,6H/t1-,2-,3+,4+
