15
gdb 19240	3.22296	2.01203	1.58117	4.653	65.18	-0.2419	0.0261	0.268	827.6956	0.120904	-358.802771	-358.795676	-358.794732	-358.834054	26.915	
N	-0.1330527726	 1.4672657598	 0.2242592117	-0.507481
C	-0.0197243214	 0.0589572963	 0.0080090825	 0.019353
C	-1.3419357065	-0.7097875496	 0.0318672253	-0.039391
N	-2.119049036	-0.1945370868	-1.1193646961	-0.329367
C	-1.1289006998	-1.2696589868	-1.3289033622	-0.05804
C	 0.2346667789	-0.582311192	-1.4680013666	-0.217639
C	 0.4265235804	 0.3466967127	-2.5641588858	 0.300563
N	 0.5992881572	 1.1217260118	-3.4051786576	-0.337577
H	 0.7425211574	 1.9490253192	 0.050412585	 0.239414
H	-0.8324689112	 1.8527977282	-0.4034349103	 0.255243
H	 0.7177450501	-0.3689072333	 0.6911299736	 0.097154
H	-1.8386310204	-1.1344863417	 0.894710456	 0.107164
H	-3.0428077403	-0.622416625	-1.090591628	 0.240828
H	-1.4120195316	-2.2285889204	-1.7423850973	 0.110933
H	 1.0615853458	-1.2954902723	-1.4333083003	 0.118843
118.2423	126.9561	221.3887	334.0551	348.4911	396.5305	533.1098	554.8063	646.0943	707.4942	760.867	828.6501	846.7296	886.1226	900.0116	934.471	968.3293	1028.5276	1046.5857	1081.916	1097.6851	1135.6977	1163.5918	1210.1335	1254.7586	1290.4761	1320.0267	1346.7994	1379.9666	1430.152	1652.3299	2350.2112	3081.3483	3093.708	3196.4526	3209.5833	3495.0928	3505.5931	3587.6223
NC1C2NC2C1C#N	N[C@H]1[C@H]2N[C@H]2[C@H]1C#N	
InChI=1S/C5H7N3/c6-1-2-3(7)5-4(2)8-5/h2-5,8H,7H2	InChI=1S/C5H7N3/c6-1-2-3(7)5-4(2)8-5/h2-5,8H,7H2/t2-,3+,4-,5+/m0/s1
