17
gdb 55319	2.01004	1.63818	1.11838	3.1194	74.	-0.2527	-0.0234	0.2293	1129.9506	0.13285	-421.784208	-421.774852	-421.773907	-421.819413	33.055	
C	 0.1000943124	 1.1983768502	 0.7102312813	-0.485014
C	 0.0859037463	 0.0742939696	-0.3049921167	 0.380627
O	 1.0066675456	-0.1319938	-1.0601705616	-0.288498
C	-1.1717769336	-0.786187991	-0.3312738277	-0.182428
C	-1.1876788895	-1.9572498409	-1.3236401176	-0.087967
O	-1.291513384	-2.9322610496	-0.2580299597	-0.272038
C	-1.2981206328	-1.9121811882	 0.7609387395	-0.048726
C	-0.2265202607	-2.0536183351	 1.7337401736	 0.34527
C	 0.651790049	-2.1701442254	 2.5463435296	-0.454236
H	 1.0501179767	 1.7313452342	 0.6606547815	 0.1448
H	-0.7243389562	 1.8940255475	 0.5152856065	 0.136261
H	-0.0465887797	 0.7942455083	 1.7174396657	 0.151722
H	-2.0542147665	-0.1419797861	-0.3503997708	 0.100276
H	-2.0503801615	-1.9992941876	-1.9969041775	 0.104498
H	-0.2588016072	-2.0644426654	-1.8904930159	 0.136966
H	-2.2642465928	-1.8874652895	 1.2821393647	 0.10899
H	 1.4335450045	-2.282686861	 3.2569985852	 0.209494
52.3839	55.5853	113.7064	127.5351	204.9382	225.9778	288.0188	374.4025	482.1169	529.4598	574.1375	603.4153	637.6063	680.1356	723.6136	802.2983	892.0417	940.2054	963.8578	982.781	1022.198	1060.5763	1080.0584	1101.4795	1168.618	1186.6035	1196.1437	1258.2172	1339.8838	1349.1362	1372.8209	1385.5347	1462.6909	1478.2894	1520.7268	1813.3685	2232.4978	3011.3705	3036.9355	3040.6704	3081.6045	3101.8107	3104.4233	3154.5695	3500.0125
CC(=O)C1COC1C#C	CC(=O)[C@H]1CO[C@H]1C#C	
InChI=1S/C7H8O2/c1-3-7-6(4-9-7)5(2)8/h1,6-7H,4H2,2H3	InChI=1S/C7H8O2/c1-3-7-6(4-9-7)5(2)8/h1,6-7H,4H2,2H3/t6-,7+/m1/s1
