20
gdb 81391	3.94203	1.11981	1.06412	4.381	83.06	-0.3003	0.0353	0.3356	1205.673	0.173414	-366.025319	-366.017387	-366.016443	-366.05759	31.353	
C	-0.1769684737	 1.526817508	 0.013466557	-0.439834
C	 0.018042923	 0.0159202545	 0.023821302	 0.042914
C	 1.1260050293	-0.587933283	-0.9012643446	-0.01736
C	 2.1434865583	-0.2505335164	 0.2266748817	-0.24523
C	 0.932436605	-0.5837058852	 1.1422188961	-0.020643
C	 0.7448795831	-2.1032251126	 0.8795730553	-0.151304
C	 0.9150859857	-2.0984149023	-0.6923324292	-0.242405
C	 1.7108797015	-2.9449554392	 1.5758348322	 0.265327
N	 2.4816780383	-3.6067903158	 2.1284408294	-0.335589
H	 0.7598025183	 2.0825344134	 0.1056488645	 0.122647
H	-0.6573747089	 1.8426408868	-0.9188348951	 0.120868
H	-0.8267897372	 1.8362724786	 0.8391001707	 0.120779
H	-0.9628636953	-0.4676808154	-0.0689383575	 0.062287
H	 1.2652645749	-0.2484205302	-1.9281606656	 0.065696
H	 3.0366826371	-0.8743644604	 0.3168836219	 0.113489
H	 2.4275773633	 0.8002313616	 0.2595341123	 0.108618
H	 0.8737109474	-0.2609573645	 2.1816758025	 0.07746
H	-0.257803691	-2.4311822289	 1.170294071	 0.11899
H	 0.0207219183	-2.4801945543	-1.1908190171	 0.109358
H	 1.7707010527	-2.6964105447	-1.0128086376	 0.12393
114.0198	140.8689	198.5048	269.2458	285.336	330.1576	445.0419	462.2214	532.1813	576.9855	673.1858	780.6967	816.6698	834.0225	838.5546	875.5852	935.156	961.6723	968.365	1007.4824	1017.6255	1034.9839	1075.3253	1084.7023	1094.3428	1117.9344	1131.8914	1177.6867	1215.0241	1233.1538	1248.4951	1269.9226	1274.4127	1292.636	1315.1246	1347.425	1398.915	1417.139	1491.6985	1498.0297	1501.8643	1521.2551	2351.8257	3015.5472	3036.3232	3061.151	3069.4768	3073.4211	3094.5112	3110.9373	3114.2909	3118.9086	3119.6114	3148.2536
CC1C2CC1C(C2)C#N	C[C@H]1[C@H]2C[C@@H]1[C@@H](C2)C#N	
InChI=1S/C8H11N/c1-5-6-2-7(4-9)8(5)3-6/h5-8H,2-3H2,1H3	InChI=1S/C8H11N/c1-5-6-2-7(4-9)8(5)3-6/h5-8H,2-3H2,1H3/t5-,6+,7-,8-/m0/s1
