21
gdb 78290	2.79576	1.2953	1.0837	1.0651	83.23	-0.2021	0.0804	0.2824	1228.5689	0.180498	-387.022814	-387.013627	-387.012683	-387.055847	36.178	
C	-0.0737253066	 1.4600285406	 0.0286952828	-0.422302
C	 0.0248820725	-0.0521869457	-0.0046951452	-0.028125
C	 0.7350047842	-0.6595698454	-1.1894756398	-0.112372
C	 1.3946192104	-0.6506127675	 0.1823713624	-0.137855
C	 1.4390455515	-2.2080910714	 0.1460948421	 0.34469
O	 2.5623768976	-2.9070408494	 0.5530155957	-0.459216
C	 0.0953136195	-2.8655275146	-0.0476236099	-0.432574
C	 0.8078354266	-2.2189896302	-1.2249357502	 0.284325
C	 1.1837792398	-2.9627129232	-2.4723192644	-0.492708
H	 0.8182860652	 1.9253355572	-0.4043466652	 0.116113
H	-0.9420851716	 1.810426626	-0.5396227651	 0.118137
H	-0.1742106012	 1.8254509732	 1.0563735767	 0.117239
H	-0.8425726302	-0.5474755119	 0.4201257957	 0.078088
H	 1.002220593	-0.0615876223	-2.0532274601	 0.081165
H	 2.2499307565	-0.0672637684	 0.5014928056	 0.086216
H	 2.4668209575	-3.1133862908	 1.49007606	 0.283073
H	 0.1702385583	-3.9497729176	-0.066305485	 0.10903
H	-0.8360006725	-2.5022370356	 0.3740914376	 0.107338
H	 0.3532387897	-2.98871478	-3.1885381871	 0.116511
H	 2.0376984602	-2.4902755056	-2.9717168604	 0.119001
H	 1.4627291296	-3.9954573173	-2.2428513862	 0.124225
159.9948	190.3511	194.0294	203.7551	215.3012	252.8925	275.6767	334.7692	394.0819	416.8912	499.2924	542.81	554.3351	731.8742	749.815	782.7074	814.9324	864.6896	871.5087	918.2685	968.2887	975.6031	1015.9265	1019.8687	1038.9878	1058.34	1090.2969	1109.7857	1144.0638	1162.2295	1188.2927	1196.7979	1237.2012	1274.1334	1287.2323	1321.6788	1388.7605	1413.6548	1416.4492	1443.876	1484.4232	1495.5461	1497.7977	1500.8576	1520.4107	3019.1372	3027.5182	3074.6433	3092.8945	3094.6393	3103.5494	3115.74	3150.4057	3171.0907	3186.9401	3197.7165	3776.5975
CC1C2C1C1(O)CC21C	C[C@H]1[C@H]2[C@@H]1[C@@]1(O)C[C@@]21C	
InChI=1S/C8H12O/c1-4-5-6(4)8(9)3-7(5,8)2/h4-6,9H,3H2,1-2H3	InChI=1S/C8H12O/c1-4-5-6(4)8(9)3-7(5,8)2/h4-6,9H,3H2,1-2H3/t4-,5-,6+,7-,8-/m0/s1
