17
gdb 75817	3.16854	1.32025	1.10327	3.0106	68.4	-0.2653	-0.0014	0.2639	1114.7137	0.135072	-458.974432	-458.965978	-458.965034	-459.008101	30.876	
O	 0.1493754787	 1.2622728977	-0.425608293	-0.423387
C	 0.1342827793	-0.0992501495	-0.0923872896	-0.139027
C	 0.1494427297	-0.4463466957	 1.4025857827	 0.408613
O	 0.8472344261	-0.2253098693	 2.3412384435	-0.335191
O	-1.0333931897	-1.1262152653	 1.3571950565	-0.275966
C	-1.2569296307	-0.770066978	-0.0549044284	 0.439799
C	-2.5108859366	 0.0337698549	-0.4251909473	-0.283826
C	-2.6262510719	-0.8501037748	-1.7021122477	-0.215995
C	-1.6601519398	-1.8754486538	-1.0388942796	-0.298119
H	 0.86838411	 1.6791665003	 0.0628409979	 0.305595
H	 0.8726869711	-0.6782476301	-0.6656728885	 0.104739
H	-3.3155030135	-0.1633730966	 0.2877521276	 0.121962
H	-2.379536973	 1.1094548182	-0.5451866517	 0.128836
H	-3.6207698971	-1.2108842344	-1.96717237	 0.110764
H	-2.1813183797	-0.368280465	-2.5754728606	 0.118424
H	-0.8701116326	-2.3224266186	-1.6474501379	 0.10698
H	-2.2019562303	-2.66972611	-0.5187894738	 0.125798
68.976	99.0532	108.23	215.3805	253.5374	297.6107	362.4312	441.6185	484.1132	564.2628	697.1517	725.5184	784.3474	811.11	844.3223	895.3919	921.8938	927.598	944.4962	1038.6548	1086.5616	1093.7773	1165.2017	1181.4269	1187.1975	1205.7348	1222.4903	1247.3858	1275.3069	1287.4898	1310.1792	1335.994	1402.0222	1468.052	1482.3289	1502.4289	1932.4464	3003.1667	3063.1784	3076.5058	3077.95	3114.4985	3131.8091	3145.2534	3805.8306
OC1C(=O)OC11CCC1	O[C@H]1C(=O)OC21CCC2	
InChI=1S/C6H8O3/c7-4-5(8)9-6(4)2-1-3-6/h4,7H,1-3H2	InChI=1S/C6H8O3/c7-4-5(8)9-6(4)2-1-3-6/h4,7H,1-3H2/t4-/m0/s1
