15
gdb 48292	2.12831	1.11173	0.88105	3.0481	72.14	-0.271	-0.0617	0.2093	1325.3508	0.109739	-416.765726	-416.75601	-416.755066	-416.80246	32.943	
O	-0.2637351255	 0.2625795075	-0.6614743691	-0.224113
C	 0.0419917078	 1.2109302377	 0.0035338324	 0.163043
C	 1.2352337861	 2.124893212	-0.3536309924	-0.190021
N	 0.6496324704	 3.3675908697	-0.8678320168	-0.296004
C	 1.6292737502	 4.4029760404	-1.2405449907	-0.325014
C	 2.5697019321	 4.0028357532	-2.2908058146	 0.304648
C	 3.3143652586	 3.625001534	-3.1559289795	-0.450632
C	 2.0184392925	 2.3866813592	 0.8591680189	 0.293999
N	 2.6238803052	 2.5631555212	 1.8272184645	-0.312163
H	-0.5327116059	 1.5422896464	 0.8908954401	 0.121418
H	 1.8729026619	 1.5925482939	-1.0752949491	 0.141015
H	 0.1033379861	 3.124886301	-1.6898692593	 0.245173
H	 1.0619916725	 5.2838144602	-1.5595016065	 0.149265
H	 2.1765613326	 4.6952103338	-0.3374868403	 0.169109
H	 3.9825790753	 3.3091394997	-3.9191153777	 0.210278
26.4072	39.4259	78.5123	143.6306	197.407	235.2218	273.1067	338.1536	360.6455	467.7678	521.1251	575.2326	604.9289	636.8454	678.8193	779.1412	905.1068	930.991	948.4195	1008.4953	1043.8359	1110.4272	1122.134	1247.8832	1280.42	1345.4938	1359.0502	1407.0032	1467.6596	1504.7186	1845.8786	2230.5211	2360.8078	2945.956	3003.6602	3047.5379	3083.728	3502.2233	3511.4121
O=CC(NCC#C)C#N	O=C[C@@H](NCC#C)C#N	
InChI=1S/C6H6N2O/c1-2-3-8-6(4-7)5-9/h1,5-6,8H,3H2	InChI=1S/C6H6N2O/c1-2-3-8-6(4-7)5-9/h1,5-6,8H,3H2/t6-/m0/s1
