18
gdb 15527	3.01424	1.86428	1.23176	0.5948	79.93	-0.2337	0.0258	0.2596	1002.2536	0.153276	-310.657529	-310.649354	-310.64841	-310.68992	30.878	
C	-0.0061121531	 1.50305766	-0.0010883841	-0.494456
C	 0.0387080759	 0.0099771174	-0.0391006932	 0.337659
C	-0.0046605798	-0.7872549789	-1.1067720476	-0.16968
C	-0.0009089342	-2.2538947654	-0.7552656477	-0.259837
C	 0.4136695579	-2.2502982383	 0.734718613	-0.216965
C	 0.066576738	-0.820651975	 1.2488870596	-0.245399
C	 0.9820218423	-0.3275296755	 2.272241259	 0.325304
C	 1.7443649536	 0.0770479006	 3.1099478339	-0.473994
H	 0.8603420778	 1.9084074878	 0.5335828824	 0.139252
H	-0.0261102193	 1.9278824514	-1.0080784078	 0.12056
H	-0.8952567451	 1.858195588	 0.5365410079	 0.124194
H	-0.0831540466	-0.4313028467	-2.1290932428	 0.08664
H	-0.9991048668	-2.6920618476	-0.8999935209	 0.104716
H	 0.6841560075	-2.8442730896	-1.3740817667	 0.104108
H	-0.0701081204	-3.0307229938	 1.3263576711	 0.103113
H	 1.4941976601	-2.3941444129	 0.8179583451	 0.117656
H	-0.947558713	-0.8156058828	 1.6803944366	 0.104417
H	 2.4146547152	 0.4316249113	 3.853053652	 0.19271
86.0574	138.3492	179.9732	220.8175	248.4275	315.2201	419.517	489.111	544.6769	584.5647	615.9975	631.8082	659.7159	795.2297	837.1239	868.7678	927.7784	947.2729	989.9713	1037.2815	1044.0022	1064.7604	1075.8648	1154.5294	1194.5518	1234.1937	1262.9276	1294.0695	1311.166	1329.6265	1354.7768	1413.9932	1476.4636	1484.9035	1489.039	1500.9668	1726.2626	2231.5375	2968.1165	3002.4018	3019.7528	3051.7348	3068.9366	3072.2425	3114.5244	3115.0309	3181.9416	3504.569
CC1=CCCC1C#C	CC1=CCC[C@H]1C#C	
InChI=1S/C8H10/c1-3-8-6-4-5-7(8)2/h1,5,8H,4,6H2,2H3	InChI=1S/C8H10/c1-3-8-6-4-5-7(8)2/h1,5,8H,4,6H2,2H3/t8-/m1/s1
