20
gdb 105838	2.09001	1.57416	1.23109	2.1326	80.21	-0.2258	-0.018	0.2079	1146.9423	0.169149	-403.126406	-403.117009	-403.116064	-403.160785	34.59	
C	-0.0293524963	 1.5461350546	-0.2565834595	-0.386287
C	 0.0055677386	 0.0547570652	 0.1080380721	-0.291463
C	-1.370553739	-0.5430039351	 0.1795800184	 0.220579
C	-1.9233014323	-1.9667870906	 0.0152462235	-0.113123
C	-2.9672862931	-1.7737031524	 1.1281080235	-0.378476
C	-2.3817050206	-0.3462426939	 1.298392488	 0.364449
O	-2.5311667261	 0.5087386001	 2.1256217899	-0.311137
N	-2.0494007395	-0.9939749119	-1.0353937856	-0.116565
C	-3.3290365105	-0.4586832547	-1.4927065326	-0.328059
H	 0.9811709549	 1.9642508778	-0.2856990173	 0.113344
H	-0.4844248854	 1.6958062222	-1.2408557383	 0.121173
H	-0.6112828875	 2.1097165973	 0.4783387949	 0.141186
H	 0.5874382077	-0.5036867247	-0.6330123355	 0.110478
H	 0.5009859636	-0.0757334097	 1.0778615346	 0.106461
H	-1.3498481181	-2.868714482	-0.1691303098	 0.10796
H	-4.021246638	-1.8808026085	 0.8603849354	 0.123823
H	-2.7678763004	-2.3626019439	 2.0286193045	 0.133142
H	-4.0760261625	-0.2749606533	-0.7094725881	 0.119134
H	-3.1400676036	 0.4872393938	-2.0075954953	 0.134592
H	-3.7554597021	-1.1590286703	-2.2175253128	 0.128789
63.7845	103.5722	139.5149	145.2712	200.0543	276.4126	295.0915	314.1623	402.5202	467.4963	521.6209	591.124	662.2485	711.0512	742.6336	780.1658	850.8297	909.6849	959.135	974.1597	985.9284	1005.0882	1037.7611	1099.0189	1117.2593	1143.6364	1164.0185	1180.2039	1205.6298	1251.2215	1267.7192	1309.9275	1347.1828	1404.5363	1419.775	1448.0322	1465.4208	1473.5811	1494.974	1499.1015	1500.8195	1509.7645	1870.2765	3012.5196	3032.2042	3039.7061	3062.1845	3074.669	3083.3955	3109.418	3112.84	3114.2535	3119.883	3175.1297
CCC12C(CC1=O)N2C	CC[C@@]12[C@@H](CC1=O)N2C	
InChI=1S/C7H11NO/c1-3-7-5(8(7)2)4-6(7)9/h5H,3-4H2,1-2H3	InChI=1S/C7H11NO/c1-3-7-5(8(7)2)4-6(7)9/h5H,3-4H2,1-2H3/t5-,7-,8?/m1/s1
