18
gdb 87579	2.66759	1.42183	1.22128	2.7869	71.73	-0.2376	0.0594	0.297	1094.8126	0.146673	-439.013917	-439.005543	-439.004599	-439.046838	32.049	
C	-0.016235948	 1.5576604635	-0.0468128513	-0.414977
C	-0.0631900244	 0.0602404586	 0.0986399179	-0.023205
O	 1.1805055281	-0.6562269347	-0.1003699005	-0.311479
C	 0.5956450213	-0.6559053136	 1.1862240811	 0.437116
C	 1.3034271847	-0.1683050951	 2.435396772	-0.178388
N	 0.2332348152	-0.1697170903	 3.4769931983	-0.362497
C	 0.9511565751	-1.4262484504	 3.1541139923	-0.08569
C	 0.212748038	-1.9784776672	 1.9179556302	 0.047882
O	-1.1364089342	-2.3128345025	 2.0646533744	-0.43462
H	 0.8551787208	 1.973869253	 0.4650481269	 0.121659
H	 0.0362396066	 1.8427690615	-1.1026204399	 0.12963
H	-0.9189326012	 2.0075516387	 0.3800526269	 0.127448
H	-0.9177377135	-0.4356365943	-0.3639592488	 0.101272
H	 2.1818959177	 0.4573693381	 2.5205733566	 0.109007
H	 0.6368987975	 0.2056299179	 4.3340710967	 0.237674
H	 1.4963329415	-1.9723730905	 3.9133294675	 0.100806
H	 0.7253505406	-2.8258871675	 1.4552391318	 0.107464
H	-1.5268188258	-1.5927452451	 2.578261208	 0.290898
100.3844	135.7121	175.6389	178.5426	255.1668	302.8855	435.8123	470.0466	481.9883	529.2731	601.4246	659.7849	746.8176	791.8348	838.8025	844.7492	896.6096	939.54	958.9214	979.8147	1028.1916	1033.1429	1082.2721	1089.6219	1115.7502	1127.9812	1153.2257	1169.458	1202.2531	1262.8238	1300.6321	1314.4215	1347.9074	1373.287	1409.6317	1438.1323	1475.5122	1489.5319	1533.8832	3038.0395	3092.4711	3100.9096	3102.914	3126.2224	3195.295	3211.6015	3483.7103	3759.6508
CC1OC11C2NC2C1O	C[C@H]1O[C@]21[C@H]1N[C@H]1[C@H]2O	
InChI=1S/C6H9NO2/c1-2-6(9-2)4-3(7-4)5(6)8/h2-5,7-8H,1H3	InChI=1S/C6H9NO2/c1-2-6(9-2)4-3(7-4)5(6)8/h2-5,7-8H,1H3/t2-,3-,4+,5-,6-/m1/s1
