18
gdb 59928	2.26867	1.11211	0.78237	4.6263	77.73	-0.2684	-0.0186	0.2499	1439.7462	0.14586	-398.137151	-398.126986	-398.126042	-398.173277	35.73	
C	 0.1951813359	 1.3729732804	-0.9312733631	-0.394028
C	-0.1411299353	 0.197162797	-0.0107174267	 0.054484
C	 0.4706155383	-1.1131090859	-0.5305686311	-0.393206
N	 0.2559188774	 0.5757073214	 1.3567695495	-0.273339
C	-0.2348772063	-0.234338762	 2.4532223929	-0.254493
C	 0.4941251386	-1.5074845782	 2.7055845585	 0.293526
N	 1.0917697605	-2.4835086393	 2.8635338081	-0.313535
C	-0.245687464	 0.5586517645	 3.701104192	 0.314136
N	-0.2564882031	 1.1878977445	 4.6684653137	-0.300039
H	 1.2792249704	 1.5318170809	-0.9767019287	 0.119182
H	-0.1512894283	 1.1748585921	-1.9493697334	 0.124408
H	-0.2697397527	 2.293538885	-0.5710703331	 0.132503
H	-1.233969684	 0.086440623	 0.0189221909	 0.091973
H	 1.5641886501	-1.0459161867	-0.5566697629	 0.121487
H	 0.2034919908	-1.9724275674	 0.0893392436	 0.136049
H	 0.1227670781	-1.3145422738	-1.5487766887	 0.12233
H	 1.256714696	 0.7244763451	 1.4328263209	 0.239779
H	-1.2771825524	-0.4989775907	 2.2310261176	 0.178784
26.4042	88.0454	135.4171	140.4628	209.719	223.3372	259.4219	271.7256	350.6935	375.8279	414.534	452.1279	513.2599	590.3817	614.5504	680.2916	839.0566	899.6215	927.709	949.2479	955.8617	994.869	1127.7541	1142.0783	1183.6652	1193.317	1291.171	1295.4789	1345.7024	1383.6499	1403.2709	1423.4415	1481.7045	1483.1007	1489.6565	1507.5906	1514.4223	2352.2042	2373.3476	3012.3271	3033.7053	3037.4776	3038.6509	3100.3584	3107.9354	3123.4417	3131.2177	3536.0727
CC(C)NC(C#N)C#N	CC(C)NC(C#N)C#N	
InChI=1S/C6H9N3/c1-5(2)9-6(3-7)4-8/h5-6,9H,1-2H3	InChI=1S/C6H9N3/c1-5(2)9-6(3-7)4-8/h5-6,9H,1-2H3
