22
gdb 101302	2.90738	0.85954	0.76017	3.1924	84.14	-0.2475	-0.0264	0.2211	1591.9906	0.192158	-404.340481	-404.330071	-404.329127	-404.376622	37.479	
C	-0.0469178765	 1.0085501325	 1.9396947746	-0.394862
C	 0.1545871483	-0.4384551422	 1.4797828862	-0.169301
C	-0.0892907324	-0.6726704807	-0.024186301	 0.031884
C	 0.9074260114	 0.0747026246	-0.9213869308	-0.402287
C	-0.0334172389	-2.1630350432	-0.31033596	-0.009334
N	-1.2040902448	-2.9693951038	-0.0010881135	-0.3409
C	-0.7859973834	-2.8544402193	-1.4165717013	-0.137035
C	-1.7278021628	-2.1286001918	-2.3124169878	 0.172704
O	-1.7286609273	-2.2436284311	-3.5131330947	-0.262535
H	 0.6688958961	 1.6920023674	 1.4730449939	 0.118935
H	-1.0544793858	 1.3631722342	 1.6951818949	 0.117546
H	 0.0792960789	 1.0926606312	 3.0234986815	 0.114594
H	 1.1731452523	-0.7661622622	 1.7322469907	 0.088659
H	-0.5277340486	-1.0913395214	 2.0369376518	 0.108358
H	-1.103015302	-0.3221039834	-0.2525078636	 0.079071
H	 0.8530247121	 1.155515417	-0.7684550964	 0.121751
H	 1.9367843506	-0.2398005562	-0.7107615309	 0.112712
H	 0.7097732625	-0.1216624085	-1.9799463055	 0.126158
H	 0.9432613175	-2.6078053714	-0.1086095165	 0.090586
H	-0.9489580152	-3.8827424841	 0.3633998672	 0.242298
H	-0.2852394145	-3.6921689293	-1.896153503	 0.103732
H	-2.4487150372	-1.4687100983	-1.7834333859	 0.087264
53.1874	68.7698	91.3208	152.9571	202.1982	211.4108	243.0562	281.3935	314.5736	363.8364	394.3255	462.1509	497.4133	550.6632	773.8984	807.072	834.4293	885.136	921.4564	951.5904	977.0142	992.6743	1002.5739	1039.0399	1051.2645	1077.465	1142.3701	1155.4844	1181.936	1208.0658	1229.9008	1255.4242	1293.8063	1307.1746	1351.2412	1363.8244	1380.0616	1410.2464	1416.5005	1422.183	1467.9354	1484.7593	1496.6036	1501.7634	1505.5857	1512.2588	1818.8854	2902.8126	3007.8574	3029.7108	3034.8896	3036.8055	3057.5036	3085.9635	3097.0683	3100.4882	3107.5708	3119.1767	3145.7941	3515.0847
CCC(C)C1NC1C=O	CC[C@@H](C)[C@H]1N[C@H]1C=O	
InChI=1S/C7H13NO/c1-3-5(2)7-6(4-9)8-7/h4-8H,3H2,1-2H3	InChI=1S/C7H13NO/c1-3-5(2)7-6(4-9)8-7/h4-8H,3H2,1-2H3/t5-,6+,7-/m1/s1
