21
gdb 82042	2.65004	1.5039	1.25846	1.3863	81.77	-0.2324	0.077	0.3094	1110.1907	0.182761	-387.046892	-387.038531	-387.037587	-387.079809	32.692	
C	-0.0660314313	 1.6434135838	-0.3010959491	-0.419489
C	 0.0670158356	 0.1372198147	-0.1197400198	-0.043637
C	 1.115946949	-0.6398754683	-0.9336881148	-0.064211
C	 2.5061479459	-0.3080833222	-0.471953908	-0.291892
C	 1.674946414	-1.2603532331	 0.3467151058	-0.119175
C	 0.6813099129	-0.4659845905	 1.1909225901	 0.448996
C	 1.0926241112	 0.3399752465	 2.4422464203	-0.356273
C	 0.1057843282	-0.5771865428	 3.1861469342	-0.077963
O	-0.2472635443	-1.2580861494	 1.9640596492	-0.326746
H	 0.8936792591	 2.1574323971	-0.1841477876	 0.113043
H	-0.4473252651	 1.881713515	-1.3000648412	 0.116526
H	-0.7645675043	 2.0689595005	 0.4280049827	 0.115174
H	-0.911424419	-0.3420408217	-0.2272994147	 0.09059
H	 0.9342123225	-1.1151008742	-1.8902416213	 0.083791
H	 3.3101999631	-0.7667508774	-1.038639768	 0.112703
H	 2.7505530539	 0.6802291347	-0.0890062993	 0.106082
H	 1.9744533457	-2.2811384854	 0.5505778668	 0.090948
H	 2.1423878907	 0.2432192802	 2.725691526	 0.110445
H	 0.8216242217	 1.397424159	 2.4242087383	 0.109393
H	 0.5501640928	-1.2600643216	 3.9205615032	 0.100677
H	-0.7604022621	-0.0828788448	 3.6418962571	 0.101019
79.024	124.8836	205.1092	219.6571	245.7091	280.4514	401.7988	446.0874	528.2591	537.8902	702.2022	780.0118	787.8608	810.6548	857.7217	887.2092	918.7979	937.4484	954.6238	980.895	995.78	1020.8286	1027.9599	1060.6214	1084.2057	1096.2962	1108.5213	1141.2763	1160.0007	1167.291	1185.2016	1218.0778	1223.5863	1241.1112	1270.5957	1314.8249	1350.6054	1355.6002	1369.8766	1410.3405	1485.4875	1489.5945	1496.5351	1502.019	1532.3915	3016.5076	3028.0895	3055.5894	3058.2998	3075.0765	3092.3182	3098.6358	3110.	3128.7879	3176.7857	3187.3801	3200.3058
CC1C2CC2C11CCO1	C[C@H]1[C@H]2C[C@H]2[C@]21CCO2	
InChI=1S/C8H12O/c1-5-6-4-7(6)8(5)2-3-9-8/h5-7H,2-4H2,1H3	InChI=1S/C8H12O/c1-5-6-4-7(6)8(5)2-3-9-8/h5-7H,2-4H2,1H3/t5-,6+,7+,8+/m0/s1
