21
gdb 75364	2.6589	1.66098	1.3475	1.5317	83.33	-0.2277	0.0284	0.2561	1055.3197	0.185422	-387.119605	-387.111935	-387.11099	-387.151386	31.127	
C	-0.0292280977	 1.5230517395	 0.0371270585	-0.495564
C	-0.0212288796	 0.0235960611	-0.0516582041	 0.338342
C	-0.0561301769	-0.6479735654	-1.2068122055	-0.151839
C	-0.0120931921	-2.1554079049	-1.2813701266	-0.255878
C	 0.1397684048	-2.7759751378	 0.1172527887	 0.107306
C	-0.7642540318	-2.0514573088	 1.1196483483	-0.240931
C	 0.0597772903	-0.7575705691	 1.2527334538	-0.130917
C	 1.4649811439	-1.3684829158	 1.4282398543	-0.063971
O	 1.4678348043	-2.5435323942	 0.6116577851	-0.277552
H	 0.8623120288	 1.8942947939	 0.5602216502	 0.122218
H	-0.0577255891	 1.9873258673	-0.952399865	 0.120409
H	-0.8942680015	 1.8832672254	 0.6095187743	 0.121263
H	-0.1113721436	-0.1040364004	-2.1476192823	 0.07602
H	-0.9167612357	-2.5441520791	-1.7730579805	 0.095748
H	 0.8340580456	-2.4828364871	-1.8990125647	 0.113027
H	-0.011473628	-3.8587960818	 0.081983149	 0.071468
H	-1.7768710733	-1.8809700225	 0.7482303123	 0.101972
H	-0.8139135177	-2.5964873236	 2.06743086	 0.097603
H	-0.2256480798	-0.1381466325	 2.1067442028	 0.063804
H	 2.2665832722	-0.697943454	 1.0989439897	 0.099884
H	 1.651790497	-1.6444848403	 2.4768079818	 0.087586
118.2663	196.9683	221.6714	287.3629	324.3267	361.3863	412.3066	456.8907	568.1909	624.6781	715.3352	776.3683	812.3139	832.4389	881.7198	892.5304	922.2767	935.8925	958.8732	991.1101	1013.9004	1038.1933	1055.1897	1073.4026	1088.194	1108.3363	1155.5355	1175.4147	1195.9671	1212.2181	1235.7321	1296.7771	1311.5849	1325.261	1353.1085	1374.4985	1383.8219	1392.231	1413.9141	1465.0227	1479.098	1489.2262	1490.919	1524.2321	1731.285	2988.3672	2995.746	3009.5977	3040.8284	3052.5377	3053.3972	3057.0921	3068.6905	3080.0582	3108.8914	3116.5543	3145.2231
CC1=CCC2CC1CO2	CC1=CC[C@@H]2C[C@H]1CO2	
InChI=1S/C8H12O/c1-6-2-3-8-4-7(6)5-9-8/h2,7-8H,3-5H2,1H3	InChI=1S/C8H12O/c1-6-2-3-8-4-7(6)5-9-8/h2,7-8H,3-5H2,1H3/t7-,8+/m0/s1
