18
gdb 42735	2.57669	1.90674	1.44838	1.943	76.16	-0.2208	-0.0114	0.2094	953.7374	0.149548	-401.915144	-401.908069	-401.907125	-401.946442	28.67	
O	 0.010174864	 0.0448279848	 0.0468606066	-0.35108
C	-0.0304386429	 1.2469042447	 0.022935815	 0.397322
C	-1.2226591764	 2.2052527648	 0.0033210247	-0.162109
C	-0.6857193002	 3.2668812033	 1.0109156863	-0.194522
N	 0.3960740002	 3.5481109348	-0.0229766898	-0.17755
C	-0.6849984677	 3.2257452473	-1.0455479511	-0.194517
C	 1.1003422645	 2.2516619562	 0.0031833857	 0.267248
C	 2.3830035837	 2.0602395556	 0.760455093	-0.335308
C	 2.3834709094	 2.0301208803	-0.7450350371	-0.335297
H	-2.2224259757	 1.7746572962	 0.0115812147	 0.086706
H	-1.3412168031	 4.1339658911	 1.1188571788	 0.117562
H	-0.3167021087	 2.9397046593	 1.9860852343	 0.118683
H	-0.315303057	 2.8598385343	-2.0065949254	 0.118685
H	-1.3404038331	 4.0878139182	-1.1885351318	 0.117562
H	 2.792209767	 2.9382682397	 1.2472676255	 0.129653
H	 2.5045251802	 1.1232144174	 1.2931343853	 0.133653
H	 2.5053129874	 1.0725439343	-1.2397384835	 0.133656
H	 2.7929875383	 2.8879844878	-1.2663186713	 0.129654
130.013	203.4288	218.653	256.0368	425.6053	491.154	528.6328	568.9932	675.3208	759.1046	780.3184	811.7723	828.2638	828.9671	860.3429	883.1709	937.4696	971.4018	987.2485	1007.4364	1024.9927	1029.5394	1060.9676	1085.2247	1111.4505	1129.0641	1180.8053	1193.6549	1198.2043	1235.2732	1241.0777	1264.9414	1300.6539	1363.5536	1445.5826	1485.6673	1498.2266	1531.5593	1863.8679	3060.943	3064.0705	3125.687	3126.6817	3135.3436	3136.4104	3137.3146	3223.3426	3236.7314
O=C1C2CN(C2)C11CC1	O=C1[C@H]2CN(C2)C21CC2	
InChI=1S/C7H9NO/c9-6-5-3-8(4-5)7(6)1-2-7/h5H,1-4H2	InChI=1S/C7H9NO/c9-6-5-3-8(4-5)7(6)1-2-7/h5H,1-4H2
