18
gdb 39055	2.56068	2.04128	1.38366	1.923	75.62	-0.2325	0.0037	0.2363	951.0222	0.150022	-401.914078	-401.907067	-401.906123	-401.945168	28.712	
C	 0.1021479128	 1.6173690032	 0.1047772001	-0.324346
C	 1.2770501647	 0.7203441701	-0.1282598343	 0.094521
O	 2.2762449137	 0.6690035352	 0.8607420876	-0.23956
C	 2.7006394416	-0.5964948914	 1.2193429606	 0.080719
N	 2.0361655808	-1.5513162453	 1.698207553	-0.212126
C	 0.6566341281	-1.5200076905	 2.0408670075	 0.025522
C	 0.0416043315	-0.3073752389	 2.7168692631	-0.326861
C	-0.4053346375	-0.6788402433	 1.3298830912	-0.049617
C	-0.0784723789	 0.1077981335	 0.1002664627	-0.048811
H	 0.0559003149	 2.1092531329	 1.0696970134	 0.129772
H	-0.2799362345	 2.2003694351	-0.7256563834	 0.116557
H	 1.6927723209	 0.65975278	-1.1312982095	 0.101885
H	 3.7801518812	-0.6940917727	 1.1050002718	 0.118509
H	 0.3192205327	-2.4852264654	 2.4041025325	 0.09648
H	-0.6419844255	-0.4858323151	 3.5393228173	 0.115529
H	 0.6808818654	 0.5575686588	 2.8418461001	 0.135745
H	-1.3798411575	-1.1563430872	 1.2784117559	 0.09214
H	-0.5263243243	-0.3067971791	-0.7986064295	 0.093942
146.0545	207.7562	295.4303	299.1571	351.7623	426.501	507.3518	593.6937	692.2183	728.18	756.4651	764.6483	809.6928	831.5019	859.1034	920.1607	946.8914	956.8664	1000.7576	1025.334	1054.9169	1061.0742	1070.0715	1106.3112	1123.888	1135.5765	1138.2712	1168.9095	1187.3567	1224.0667	1281.0383	1365.6601	1400.	1407.6716	1418.9893	1420.5422	1481.6259	1485.5266	1752.7977	3124.0665	3133.7817	3136.099	3139.3779	3144.0736	3147.5312	3156.5598	3230.2295	3236.6618
C1C2OC=NC3CC3C12	C1[C@H]2OC=N[C@H]3C[C@H]3[C@@H]12	
InChI=1S/C7H9NO/c1-4-5-2-7(5)9-3-8-6(1)4/h3-7H,1-2H2	InChI=1S/C7H9NO/c1-4-5-2-7(5)9-3-8-6(1)4/h3-7H,1-2H2/t4-,5+,6-,7+/m0/s1
