15
gdb 35305	6.05038	0.95836	0.90541	1.9416	80.61	-0.2478	0.0099	0.2578	1255.8399	0.109616	-383.377882	-383.369591	-383.368646	-383.410705	31.571	
C	 0.0703544862	-1.2604308369	-0.1151759082	-0.454093
C	 0.03914526	-0.0614271069	-0.0361590769	 0.336606
C	-0.0014233892	 1.3832833323	 0.0570424596	-0.209568
C	-0.2997792614	 2.0543717602	 1.4572348741	-0.325954
C	 1.0361851102	 2.8100219915	 1.3321211472	 0.291192
O	 2.0601255002	 1.7998727284	 1.2207080771	-0.264782
C	 1.3462148035	 2.1429535505	 0.0445045359	-0.058166
C	 1.3711714789	 4.0938818154	 1.8419715507	 0.184283
C	 1.6085896333	 5.1830922009	 2.2926076775	-0.38399
H	 0.1051460603	-2.3197099272	-0.1803239667	 0.199456
H	-0.6730581842	 1.7991370785	-0.7008666825	 0.114787
H	-1.1767781378	 2.702266273	 1.428491948	 0.124899
H	-0.3531708605	 1.3774595096	 2.3103001772	 0.130297
H	 1.9157362148	 2.4829432534	-0.8128792584	 0.120591
H	 1.8308892757	 6.1435713875	 2.6877550654	 0.194443
79.7246	108.3542	180.9545	204.8312	304.6238	408.9546	449.1124	490.664	531.4486	574.712	616.8024	624.8353	633.5234	656.0457	675.6245	726.1463	796.9294	887.0485	917.2771	962.4776	979.946	1027.9293	1077.5611	1131.5915	1160.7267	1196.1015	1245.6504	1261.5725	1334.0966	1419.6285	1472.0276	2238.6532	2242.9908	3059.1988	3088.267	3154.1142	3190.0085	3501.5506	3504.2017
C#CC1CC2(OC12)C#C	C#C[C@H]1C[C@]2(O[C@@H]12)C#C	
InChI=1S/C8H6O/c1-3-6-5-8(4-2)7(6)9-8/h1-2,6-7H,5H2	InChI=1S/C8H6O/c1-3-6-5-8(4-2)7(6)9-8/h1-2,6-7H,5H2/t6-,7-,8+/m0/s1
