18
gdb 17937	3.27396	2.31605	2.08976	0.5465	75.62	-0.2162	0.0214	0.2377	776.6948	0.15563	-310.646914	-310.640405	-310.639461	-310.67701	26.933	
C	-0.0302744092	 1.534484538	-0.0381835038	-0.519866
C	-0.009547886	 0.0379992945	 0.0180163012	 0.354339
C	 0.4558993863	-1.0135507865	-0.9644465695	-0.118114
C	 1.3001249494	-1.6951597692	 0.1004329426	-0.220845
C	 0.5032031538	-0.8760977331	 1.1944237713	-0.148458
C	-0.6912195324	-1.709932645	 1.594315875	-0.094092
C	-1.5375992971	-1.7771542534	 0.5598083262	-0.078849
C	-1.0395145721	-0.9086681861	-0.5424026938	-0.123475
H	 0.9656026991	 1.9585469291	 0.1369730212	 0.116854
H	-0.3696885839	 1.8813730975	-1.0201759395	 0.118685
H	-0.7076202688	 1.9529944485	 0.7157709019	 0.123067
H	 0.7153010489	-0.9028729866	-2.0115532329	 0.080414
H	 1.278163039	-2.786921737	 0.185871561	 0.088475
H	 2.335882288	-1.3506624705	 0.03925384	 0.099731
H	 1.0944649606	-0.4330066294	 1.9954677536	 0.063681
H	-0.7452920475	-2.2836212211	 2.5116971546	 0.090633
H	-2.4296113929	-2.3877263382	 0.4912041296	 0.091602
H	-1.7014545354	-0.5572500017	-1.3267705687	 0.076216
195.1999	207.7482	273.3183	356.774	424.137	543.1349	581.6467	689.8782	720.954	760.6263	793.3855	821.8012	855.8602	889.9239	892.3543	928.3516	952.234	973.9933	990.0405	1033.3297	1045.0753	1071.2767	1094.6813	1126.7964	1139.2851	1167.4288	1195.3373	1214.5656	1263.5764	1279.8709	1314.1667	1361.4991	1408.0279	1449.6943	1482.9807	1489.5085	1497.777	1640.1798	3018.317	3037.9612	3077.0328	3091.4493	3097.1861	3113.1342	3165.2919	3175.2882	3193.1882	3218.2772
CC12C3CC1C=CC23	C[C@@]12[C@H]3C[C@@H]1C=C[C@@H]23	
InChI=1S/C8H10/c1-8-5-2-3-6(8)7(8)4-5/h2-3,5-7H,4H2,1H3	InChI=1S/C8H10/c1-8-5-2-3-6(8)7(8)4-5/h2-3,5-7H,4H2,1H3/t5-,6+,7-,8+/m0/s1
