19
gdb 84908	2.63854	1.44892	1.07678	3.6357	77.73	-0.2492	-0.021	0.2282	1149.0022	0.158395	-423.036284	-423.027617	-423.026673	-423.069677	32.302	
C	-0.0376723954	 1.607929274	-0.1178795802	-0.395114
C	 0.0099841276	 0.0710193781	-0.0209028886	-0.054068
C	 0.6685649382	-0.5345182415	-1.2377974697	-0.073985
C	 1.9063201356	-1.0210751792	-1.202249315	-0.068453
C	 2.7399201009	-0.9876843818	 0.0478460331	-0.120544
O	 2.1693201968	-0.1992081084	 1.0777414245	-0.240831
C	 0.7895694965	-0.4213192827	 1.2247577309	 0.010071
C	 0.2957573049	 0.2363077382	 2.4981037933	 0.143296
O	 0.9668920398	 0.8611178776	 3.2724445327	-0.235963
H	 0.9735323906	 2.0175593667	-0.0498978963	 0.142924
H	-0.4704716038	 1.9215410432	-1.0725353984	 0.115208
H	-0.6412304623	 2.0459732378	 0.6837118422	 0.120774
H	-1.0179719054	-0.3103175033	 0.0498147793	 0.08162
H	 0.0953178418	-0.5415464378	-2.1614375222	 0.093907
H	 2.3645838078	-1.4681445352	-2.0803612258	 0.096424
H	 2.9203731826	-2.0172461167	 0.4086388665	 0.102225
H	 3.723640348	-0.5494354131	-0.156379157	 0.125263
H	 0.577946164	-1.5023383051	 1.343461953	 0.085903
H	-0.7968781782	 0.0768735393	 2.6628925277	 0.071344
83.5371	113.6341	187.275	221.6586	231.4795	265.972	279.1653	387.1875	470.4194	505.754	592.7624	696.7175	727.0465	760.5273	826.5096	905.5858	914.0211	954.6652	992.2884	999.3329	1013.6395	1050.7793	1100.2366	1117.0276	1127.0768	1142.009	1218.0546	1264.0806	1279.176	1330.5106	1333.7872	1371.0965	1396.1168	1402.9083	1415.8486	1429.0673	1489.5914	1494.4865	1500.3219	1724.4912	1849.2229	2845.2022	2915.6111	2937.5963	3012.7098	3038.288	3056.3613	3104.8051	3125.6456	3151.1	3175.1749
CC1C=CCOC1C=O	C[C@H]1C=CCO[C@H]1C=O	
InChI=1S/C7H10O2/c1-6-3-2-4-9-7(6)5-8/h2-3,5-7H,4H2,1H3	InChI=1S/C7H10O2/c1-6-3-2-4-9-7(6)5-8/h2-3,5-7H,4H2,1H3/t6-,7-/m0/s1
