21
gdb 101481	4.00012	0.90147	0.87839	0.7647	74.56	-0.2555	0.0768	0.3323	1429.192	0.182408	-461.36381	-461.354289	-461.353345	-461.398788	34.558	
C	-0.0676539583	 1.5878869461	 0.0305315592	-0.384885
C	 0.1282715318	 0.0732080381	-0.0543028021	-0.188722
C	 0.6379225897	-0.5367745357	 1.2586400837	 0.108631
O	-0.223813551	-0.2472329085	 2.350194636	-0.436536
C	 0.8370596436	-2.0545581146	 1.150979588	 0.103689
C	 1.5080591441	-2.7061400048	 2.3661936003	-0.134048
O	 0.8889500822	-3.985987748	 2.4248441372	-0.236088
C	-0.4412067799	-3.7629963999	 2.0534063298	 0.026381
O	-0.4535330394	-2.6861004532	 1.1205067853	-0.295429
H	 0.8821419909	 2.0992739275	 0.2245796064	 0.110973
H	-0.4766446445	 1.9865634861	-0.9025297309	 0.109659
H	-0.7518546659	 1.8406737393	 0.8443964144	 0.130714
H	-0.8164028004	-0.4190723939	-0.318788947	 0.107181
H	 0.8392240604	-0.1736965804	-0.85353485	 0.092428
H	 1.6039479646	-0.0801290269	 1.5151234379	 0.084813
H	-1.0059160738	-0.7966444229	 2.2066184407	 0.284271
H	 1.3775922904	-2.3027870327	 0.2274526768	 0.078713
H	 2.5834486496	-2.8514507643	 2.2496985984	 0.118562
H	 1.3045015135	-2.1214505613	 3.274148009	 0.114353
H	-0.8332894599	-4.6719202602	 1.5839898562	 0.117186
H	-1.0626786377	-3.4889107197	 2.9236929506	 0.088154
63.2521	78.6021	111.0821	159.6922	216.627	233.966	279.6491	306.7987	343.1484	463.7849	498.1544	638.5702	696.292	741.3747	787.5028	847.9937	902.5375	974.0388	981.6246	986.2687	1024.14	1027.5031	1075.1419	1099.5134	1124.5377	1134.3036	1160.5549	1174.66	1210.5133	1256.372	1266.935	1284.2726	1321.4512	1341.0719	1359.9186	1381.574	1401.3273	1411.7152	1422.7564	1443.1328	1485.2262	1495.9229	1509.7747	1510.0943	1550.3085	2948.6793	3007.1314	3017.8009	3019.3065	3023.7028	3035.9142	3059.8566	3063.1421	3100.9761	3119.1555	3124.1012	3764.2146
CCC(O)C1COCO1	CC[C@@H](O)[C@H]1COCO1	
InChI=1S/C6H12O3/c1-2-5(7)6-3-8-4-9-6/h5-7H,2-4H2,1H3	InChI=1S/C6H12O3/c1-2-5(7)6-3-8-4-9-6/h5-7H,2-4H2,1H3/t5-,6-/m1/s1
