21
gdb 113166	3.08645	0.97371	0.86382	2.4458	80.98	-0.2354	-0.0109	0.2245	1453.7005	0.17908	-424.241636	-424.231139	-424.230195	-424.277338	38.241	
C	 0.0789232062	 1.4822260601	-0.1929974329	-0.375023
C	-0.0346987509	 0.0606859262	 0.3706752934	-0.198713
C	-1.4130166115	-0.528875361	 0.1637034843	-0.001609
C	-1.7932561487	-1.1838952937	-1.1305648228	-0.33756
C	-1.6097799963	-2.03992879	 0.113053473	 0.223277
O	-0.4544346026	-2.8234964136	 0.2352918858	-0.459465
C	-2.852457975	-2.5665266165	 0.7740506761	 0.33789
C	-2.7247258285	-3.8718825294	 1.5332250914	-0.47863
O	-3.8998785976	-1.9568057968	 0.7024041123	-0.324974
H	 1.0793690399	 1.8924612919	-0.0240687191	 0.112084
H	-0.1145187771	 1.4962924778	-1.2707177109	 0.116898
H	-0.6428708497	 2.1563943605	 0.2806106434	 0.117012
H	 0.7107261072	-0.5921753808	-0.0932408817	 0.106956
H	 0.1951286674	 0.0713582174	 1.4434355576	 0.101625
H	-2.226727126	-0.0134975227	 0.6670357179	 0.110136
H	-2.8074511686	-1.0701058444	-1.4954214534	 0.135526
H	-1.0193615913	-1.286814728	-1.885430254	 0.111029
H	-0.4463458221	-3.4676645005	-0.4802129126	 0.287666
H	-1.9124201382	-3.8137481097	 2.2637114161	 0.150384
H	-3.6714804727	-4.0967986281	 2.0249800022	 0.137227
H	-2.4645652941	-4.6876694387	 0.8488872538	 0.128266
56.29	81.6445	142.8592	145.3016	151.6077	238.2878	257.1023	278.6458	305.8352	349.5321	402.9933	459.3406	502.1894	562.4012	625.9325	686.7947	777.6314	810.9789	852.2925	895.0186	947.7808	970.8927	982.4328	1041.4051	1058.5367	1064.193	1075.3828	1128.7183	1172.9301	1200.0464	1261.2381	1275.623	1298.819	1344.5256	1353.2818	1381.9801	1408.0047	1416.7631	1456.2891	1460.8281	1469.9652	1489.9266	1498.307	1509.0549	1786.5138	3032.0932	3033.3412	3041.1811	3079.4795	3104.3244	3104.8178	3105.3403	3126.9532	3152.605	3157.9233	3227.5398	3805.4435
CCC1CC1(O)C(C)=O	CC[C@H]1C[C@]1(O)C(=O)C	
InChI=1S/C7H12O2/c1-3-6-4-7(6,9)5(2)8/h6,9H,3-4H2,1-2H3	InChI=1S/C7H12O2/c1-3-6-4-7(6,9)5(2)8/h6,9H,3-4H2,1-2H3/t6-,7-/m0/s1
