21
gdb 77680	1.75442	1.71767	1.68482	1.3633	78.33	-0.2348	0.0814	0.3162	1072.741	0.180517	-424.221133	-424.211546	-424.210602	-424.254931	35.744	
C	-0.005915962	 1.5738647894	 0.0428547037	-0.409001
C	 0.0480472533	 0.0653229875	 0.0580115926	-0.13043
C	 1.3235037787	-0.7222954793	-0.2173549808	 0.333807
C	 1.4047670237	-1.871935584	-1.1820095546	-0.468404
O	 2.5176594506	 0.0429191204	-0.1193952512	-0.292845
C	 2.841734944	 0.0571159854	 1.256081587	 0.005144
O	 1.6218640796	 0.031827881	 1.96926237	-0.292889
C	 0.7306502572	-0.7295788324	 1.1648095037	 0.333831
C	 0.0922877671	-1.8881096591	 1.8783370897	-0.468402
H	 0.9135655828	 2.0069412557	 0.4379004669	 0.13329
H	-0.1447161576	 1.9469368357	-0.9773121975	 0.115217
H	-0.840531897	 1.938628573	 0.6507132504	 0.115246
H	-0.8454792637	-0.4239720367	-0.3278591885	 0.078634
H	 1.5773120234	-1.5060638079	-2.1996470376	 0.131549
H	 2.2258375667	-2.5481431297	-0.9218161087	 0.122206
H	 0.4728990562	-2.4444413295	-1.1846840695	 0.118701
H	 3.4570069085	-0.8234479518	 1.5153161989	 0.085669
H	 3.3801833284	 0.9796962848	 1.4918653928	 0.11622
H	-0.5270270855	-1.5320145659	 2.708316956	 0.131554
H	-0.5501841643	-2.4568502096	 1.200168267	 0.118698
H	 0.84940013	-2.5652866469	 2.2873893897	 0.122204
108.0238	171.6951	183.3608	187.0077	200.5474	203.1841	210.3081	252.184	362.3352	367.9657	526.5019	563.1066	580.0603	695.8381	736.0816	758.4454	802.7075	908.5041	936.57	964.6947	1014.6292	1029.4455	1084.4288	1100.2025	1112.4005	1126.3451	1147.9966	1168.318	1185.7853	1214.5129	1231.6298	1265.8726	1317.6625	1411.0556	1411.9791	1417.8003	1420.9941	1463.0556	1474.5955	1485.084	1488.0946	1494.2945	1497.4568	1512.2377	1538.7124	2936.8058	3032.2901	3034.6679	3038.9387	3085.7137	3093.754	3097.3432	3098.4222	3110.8215	3111.559	3118.8891	3145.0361
CC1C2(C)OCOC12C	C[C@H]1[C@@]2(C)OCO[C@@]12C	
InChI=1S/C7H12O2/c1-5-6(2)7(5,3)9-4-8-6/h5H,4H2,1-3H3	InChI=1S/C7H12O2/c1-5-6(2)7(5,3)9-4-8-6/h5H,4H2,1-3H3/t5-,6+,7-
