18
gdb 42083	3.87111	1.29643	1.26784	2.9081	71.06	-0.2519	0.0263	0.2782	1057.8276	0.150153	-439.117788	-439.110323	-439.109379	-439.150635	28.329	
C	 0.0103447487	 1.5285949699	 0.223251967	-0.219039
C	 1.4845612885	 1.8695436116	-0.0472465972	-0.092771
O	 1.9075856164	 0.9023375594	-1.0109159912	-0.260942
C	 1.3275148096	-0.3202585461	-0.6707571978	 0.473948
C	-0.0434270001	 0.0055168937	-0.0437922643	-0.30628
C	 1.4308269495	-1.3025073956	-1.8572393417	-0.253083
N	 2.4704663913	-2.2728679648	-1.4928234158	-0.264012
C	 2.7783502157	-1.9960395616	-0.2953498519	 0.106578
O	 2.1590983941	-0.9753409192	 0.3443445519	-0.259573
H	-0.2969038078	 1.7942447353	 1.2368863783	 0.110759
H	-0.6372106072	 2.0658202247	-0.4744302535	 0.113663
H	 1.6442683585	 2.8589207763	-0.4805837149	 0.112783
H	 2.0906102677	 1.7795117423	 0.8638784023	 0.110295
H	-0.1790425838	-0.5810521268	 0.8661659918	 0.126742
H	-0.8484833047	-0.2564080041	-0.7339033458	 0.116201
H	 0.485921098	-1.8247542469	-2.0417666443	 0.115623
H	 1.7031831113	-0.7584688571	-2.7654747753	 0.133107
H	 3.5125722243	-2.525039811	 0.3027276724	 0.136002
40.4601	102.6613	192.4761	276.0662	410.5362	428.5828	457.6537	564.1811	637.368	746.5475	784.6928	812.2314	864.1914	902.6859	907.5054	931.4533	954.4228	973.412	998.9816	1020.7407	1050.9041	1098.5057	1146.8607	1163.1747	1181.0841	1213.8784	1241.2097	1258.0928	1260.0808	1308.0644	1330.5182	1339.5588	1348.1058	1391.2735	1479.7826	1482.1859	1501.949	1521.7419	1705.9802	3021.2916	3048.2101	3066.173	3079.4121	3100.1813	3105.8061	3115.6459	3132.4691	3210.5242
C1COC2(C1)CN=CO2	C1CO[C@@]2(C1)CN=CO2	
InChI=1S/C6H9NO2/c1-2-6(8-3-1)4-7-5-9-6/h5H,1-4H2	InChI=1S/C6H9NO2/c1-2-6(8-3-1)4-7-5-9-6/h5H,1-4H2/t6-/m1/s1
