15
gdb 34547	4.38735	1.29798	1.19202	1.5525	79.69	-0.2274	-0.0342	0.1933	1029.9628	0.112664	-383.410867	-383.404101	-383.403157	-383.441888	27.636	
C	 0.0706350659	-1.1545724128	 0.1121597719	-0.417132
C	-0.013502033	 0.0451774091	 0.034360564	 0.21226
C	-0.0651637774	 1.4521112854	-0.0826412088	 0.240846
C	-1.1649385956	 2.2390054959	-0.1043304296	-0.219848
C	-0.7105684267	 3.6655721194	-0.0010779417	 0.0422
O	-0.1608847709	 3.7968574662	 1.3856056226	-0.292665
C	 1.1228999145	 3.5543497413	 0.8665973453	 0.107008
C	 0.7420167319	 3.6977528277	-0.5628255223	-0.159894
C	 1.1506714387	 2.3177915883	-0.1051033509	-0.228359
H	 0.1293741783	-2.2119048175	 0.1884067959	 0.19291
H	-2.1885540143	 1.9085112207	 0.0033909506	 0.113176
H	-1.4146887989	 4.4680455976	-0.2098969227	 0.089131
H	 1.9784735224	 3.8457130849	 1.4630165519	 0.117347
H	 1.1438327998	 4.2544696439	-1.3991747186	 0.105059
H	 2.1252276553	 1.9211860298	-0.3591169974	 0.09796
124.5317	156.2876	356.411	408.7599	494.815	509.4992	574.9081	595.9035	638.9613	658.623	705.2656	733.9432	785.1961	795.5843	819.5846	853.6134	882.9307	943.3796	951.7226	988.8097	1036.1557	1053.3412	1075.942	1108.496	1165.9769	1213.3046	1220.3804	1265.786	1304.7105	1335.6023	1372.2443	1617.4591	2222.4711	3144.4585	3191.0353	3199.5886	3210.4843	3234.0058	3503.4678
C#CC1=CC2OC3C2C13	C#CC1=C[C@H]2O[C@@H]3[C@H]2[C@H]13	
InChI=1S/C8H6O/c1-2-4-3-5-7-6(4)8(7)9-5/h1,3,5-8H	InChI=1S/C8H6O/c1-2-4-3-5-7-6(4)8(7)9-5/h1,3,5-8H/t5-,6+,7-,8+/m1/s1
