17
gdb 23463	3.17924	1.35576	1.04549	1.2387	77.79	-0.2282	0.0037	0.2319	1128.8909	0.137503	-417.953121	-417.945475	-417.94453	-417.985328	30.069	
O	-0.0251861496	 1.3115592108	-0.2215413263	-0.395625
N	 0.0299165169	-0.0905706009	-0.177860012	-0.216841
C	-1.1162908553	-0.6143420104	 0.0430340265	 0.428472
C	-2.3995690533	 0.1501960178	 0.2678234206	-0.367469
C	-3.3731601574	-0.5642150355	 1.1707552758	-0.077761
C	-3.3096534734	-1.8645609328	 1.4528518014	-0.025088
C	-2.2684614491	-2.7390067444	 0.8595251921	-0.086942
N	-2.2237071293	-2.7736797487	-0.624561848	-0.34029
C	-1.1412367707	-2.0937431917	 0.1221768036	-0.120174
H	 0.9001975943	 1.544572715	-0.3493004243	 0.306473
H	-2.1554050096	 1.1391088314	 0.6660655723	 0.140927
H	-2.8729778268	 0.337852827	-0.7076529497	 0.147316
H	-4.1688878331	 0.0444603884	 1.5913744773	 0.095828
H	-4.0397943885	-2.3243001707	 2.1121690812	 0.09003
H	-2.0512912857	-3.6658213545	 1.3834784397	 0.090264
H	-1.8826172831	-3.6807689298	-0.9359625614	 0.235327
H	-0.1606816862	-2.5582780609	 0.149781491	 0.095554
73.8732	175.9609	249.7841	286.8624	351.52	401.5843	430.4281	505.9387	534.1167	566.6399	635.6321	717.8268	753.5893	795.7679	871.076	892.486	924.5045	944.0695	964.6485	980.4966	993.6024	1010.8379	1083.3962	1152.8434	1170.8467	1195.2996	1209.1513	1255.5071	1286.645	1336.5173	1365.4554	1403.8386	1432.2604	1448.6128	1463.4175	1719.3822	1724.1215	3004.8287	3084.8283	3142.1757	3158.4249	3165.0209	3181.3914	3489.7466	3822.0528
ON=C1CC=CC2NC12	ON=C1CC=C[C@H]2N[C@@H]12	
InChI=1S/C6H8N2O/c9-8-5-3-1-2-4-6(5)7-4/h1-2,4,6-7,9H,3H2	InChI=1S/C6H8N2O/c9-8-5-3-1-2-4-6(5)7-4/h1-2,4,6-7,9H,3H2/t4-,6-/m1/s1
