17
gdb 66874	3.08801	1.95966	1.75857	3.7071	76.39	-0.208	-0.0457	0.1623	852.7116	0.136809	-380.741559	-380.734991	-380.734047	-380.772007	27.636	
C	-0.052872947	 1.5264175245	 0.0270839801	-0.515196
C	-0.0455718742	 0.0277270413	 0.0386874635	 0.325106
C	-0.2560168428	-0.821988446	-1.2568614068	-0.071829
N	 0.8085559388	-1.7617662595	-1.3520980846	-0.134494
C	 0.8454358918	-2.3040138437	-0.187210207	 0.072918
N	 1.9116211455	-1.7671116938	 0.6822857549	-0.340285
C	 0.6860954761	-0.8876613092	 1.1026063724	-0.069137
C	-0.358859257	-1.9634864198	 0.7616729854	-0.100481
C	-1.1844858501	-0.9900323095	-0.0520745562	-0.157328
H	 0.943928321	 1.9203987241	-0.2016814596	 0.137039
H	-0.7416847513	 1.9053287011	-0.7350146304	 0.125182
H	-0.3689992235	 1.9449427791	 0.9897314303	 0.119198
H	-0.5931862689	-0.3025162082	-2.1467834385	 0.100986
H	 2.0465482045	-2.3660265087	 1.5036409494	 0.222798
H	 0.7843439988	-0.4602659715	 2.1011644559	 0.10191
H	-0.7279737382	-2.6959966254	 1.4731361862	 0.085456
H	-2.2566022634	-0.8550275348	-0.082070085	 0.098154
189.3176	208.4168	270.036	403.139	511.4092	533.7201	586.165	669.4158	683.2062	708.2649	732.613	745.7902	801.5807	849.9813	858.7287	900.813	910.26	939.8622	978.8765	988.3929	1032.8526	1066.5485	1075.598	1094.9957	1113.6651	1156.1062	1178.9744	1192.6913	1218.1214	1259.2943	1282.0362	1315.6597	1387.654	1417.4614	1484.1463	1497.8959	1550.4176	3022.3192	3081.24	3097.5269	3114.0162	3160.6804	3184.1636	3213.9276	3384.1378
CC12C3N=C4NC1C4C23	C[C@@]12[C@H]3[N][C]4N[C@@H]1[C@H]4[C@@H]23	
InChI=1S/C7H8N2/c1-7-3-2-4(7)8-6(2)9-5(3)7/h2-5H,1H3,(H,8,9)	InChI=1S/C7H8N2/c1-7-3-2-4(7)8-6(2)9-5(3)7/h2-5H,1H3,(H,8,9)/t2-,3-,4-,5+,7+/m1/s1
