18
gdb 122767	5.80026	0.56038	0.51739	20.0245	81.43	-0.1708	-0.0374	0.1334	2048.8906	0.147487	-435.208865	-435.198707	-435.197763	-435.246045	34.037	
C	 0.0219591888	 1.4994648591	 0.0108068231	-0.347116
N	-0.0898167543	 0.0126764463	 0.0030119214	-0.244109
H	 0.3797497448	-0.3795583021	-0.8174881032	 0.316814
H	 0.3950006492	-0.3892256106	 0.8098481694	 0.316826
C	-1.5070356488	-0.5510293705	 0.0129380196	-0.187246
C	-1.4377603328	-2.0688172269	 0.0032159499	-0.133165
N	-2.7919882521	-2.5281348944	 0.0128733648	-0.40994
C	-2.8294973707	-3.8529780964	 0.0083040079	 0.257784
O	-1.8969736949	-4.6712993449	-0.0029987088	-0.463767
C	-4.2236005556	-4.3752642371	 0.0187837484	 0.219507
N	-5.2834075457	-4.8402919726	 0.0264075831	-0.371576
H	 1.0735167408	 1.7898575655	 0.0026773149	 0.178317
H	-0.4838108069	 1.8874284748	-0.873418872	 0.193787
H	-0.4670973145	 1.8768217768	 0.9089168871	 0.19379
H	-1.9954469212	-0.1686024434	 0.9111372632	 0.163894
H	-2.0121945525	-0.1579217098	-0.8712822359	 0.163897
H	-0.8566292927	-2.402855407	-0.8843207262	 0.076061
H	-0.840473401	-2.4136533465	 0.8757079934	 0.076241
28.2159	69.8464	74.4093	98.6838	178.4235	180.1236	227.4453	244.7142	359.0693	401.4256	410.2088	549.7308	619.2809	765.2132	781.918	823.6903	848.1599	922.2478	1008.5749	1018.9166	1059.8931	1073.7602	1145.3092	1166.9225	1244.7565	1292.7913	1296.0459	1351.4279	1361.3669	1364.7917	1391.1676	1459.1005	1475.342	1492.5056	1495.7142	1502.5646	1656.6992	1684.0014	2329.5036	2855.5804	2857.0492	3077.4623	3091.1113	3156.7154	3170.895	3179.377	3423.9918	3472.9618
C[NH2+]CC[N-]C(=O)C#N	C[NH2]CC[N]C(=O)C#N	
InChI=1S/C5H9N3O/c1-7-2-3-8-5(9)4-6/h7H,2-3H2,1H3,(H,8,9)	InChI=1S/C5H9N3O/c1-7-2-3-8-5(9)4-6/h2-3,7H2,1H3
