12
gdb 129409	2.96452	1.658	1.06767	5.2557	59.2	-0.2692	-0.065	0.2042	1007.1673	0.077425	-502.100592	-502.093039	-502.092095	-502.133329	27.392	
N	-0.0881553809	 1.298188806	 0.3166878889	-0.566833
C	 0.0911199881	-0.0198672017	-0.0282642674	 0.452736
N	 1.140898457	-0.6548515812	-0.3389726138	-0.489583
N	-1.1291949106	-0.7605902591	 0.0406118599	-0.157668
N	-2.317646175	-0.1271057367	 0.1903007392	-0.061592
N	-3.2471212862	-0.9612134741	 0.2150204323	 0.031026
O	-2.7108420355	-2.2425594871	 0.0808473591	-0.234858
C	-1.3332017244	-2.146716851	-0.031540632	 0.576964
O	-0.590141475	-3.0637666539	-0.1481489354	-0.327745
H	 0.6466224813	 1.9271009398	 0.0378201879	 0.26645
H	-1.0229129944	 1.675254765	 0.2920839683	 0.283555
H	 1.9585220854	-0.0486078059	-0.3375046971	 0.227548
48.0213	137.1712	218.3218	254.633	384.8071	392.3003	447.7649	455.4426	563.1596	658.9217	663.5986	698.6831	751.2168	776.528	814.7731	818.0005	1022.3266	1052.869	1090.927	1099.6265	1224.3399	1288.0361	1444.0666	1531.7616	1629.6374	1756.4531	1940.2625	3518.8128	3592.4986	3710.5509
NC(=N)N1N=NOC1=O	NC(=N)n1nnoc1=O	
InChI=1S/C2H3N5O2/c3-1(4)7-2(8)9-6-5-7/h(H3,3,4)	InChI=1S/C2H3N5O2/c3-1(4)7-2(8)9-6-5-7/h(H3,3,4)
