18
gdb 32756	3.13915	1.10128	0.85778	3.0408	75.72	-0.1799	0.0509	0.2307	1356.5381	0.14694	-439.103833	-439.094505	-439.093561	-439.138643	34.045	
C	-0.0330230581	 1.5060138522	 0.214740218	-0.386283
C	 0.545424686	 0.1050690005	 0.1578060719	-0.058597
O	-0.0141571862	-0.6531501176	 1.2482736868	-0.28849
C	 0.4530570177	-1.9241921663	 1.361883316	 0.206525
C	 1.4563769331	-2.4175536609	 2.1628577965	 0.250947
O	 2.2551976653	-1.7033325296	 3.0107905507	-0.459876
C	 1.5272984163	-3.821029504	 1.9515660067	-0.234914
C	 0.5591806504	-4.1402499428	 1.025359276	-0.085411
N	-0.0870823332	-2.9864175655	 0.660735865	-0.299549
H	 0.2194211277	 1.9902056922	 1.1624724642	 0.127213
H	 0.3674178817	 2.1134195929	-0.6022408017	 0.121655
H	-1.1226358648	 1.477627041	 0.1250145287	 0.129196
H	 0.2979100095	-0.3865942159	-0.7928598294	 0.097905
H	 1.6393518908	 0.116423164	 0.2494018379	 0.108745
H	 1.8778119072	-0.819255611	 3.0823185926	 0.293581
H	 2.2141464083	-4.5029573873	 2.4267564882	 0.099568
H	 0.2788528793	-5.0909960132	 0.6029658279	 0.116372
H	-0.9042547711	-2.9235081886	 0.079993904	 0.261415
54.303	60.853	115.9671	230.4373	261.9099	278.7299	328.6102	342.5299	370.0474	401.9359	501.1343	627.0766	653.2044	669.6052	708.7394	772.5488	806.5342	814.1447	892.3057	915.0636	1044.1812	1077.315	1098.7803	1131.9904	1150.4124	1179.6997	1254.4294	1262.4241	1286.7955	1363.7214	1396.0461	1418.3118	1449.4575	1482.5756	1498.4443	1500.9647	1524.7907	1537.7154	1668.6433	3005.9453	3044.7339	3045.8768	3121.1496	3122.8887	3256.501	3276.1925	3688.4335	3805.0707
CCOC1=C(O)C=CN1	CCOc1c(O)cc[nH]1	
InChI=1S/C6H9NO2/c1-2-9-6-5(8)3-4-7-6/h3-4,7-8H,2H2,1H3	InChI=1S/C6H9NO2/c1-2-9-6-5(8)3-4-7-6/h3-4,7-8H,2H2,1H3
