15
gdb 80715	2.50014	1.99473	1.58115	1.4512	64.23	-0.2362	-0.0376	0.1986	871.6333	0.113551	-457.76206	-457.755154	-457.75421	-457.793255	27.287	
O	 0.0871781215	 1.3889560828	 0.2402045264	-0.44112
C	-0.0087636189	 0.0014936995	 0.0586520572	 0.047874
C	-1.4485253897	-0.5411468521	-0.1548908194	-0.027799
O	-1.1290065863	-1.8323601639	-0.7037016591	-0.244359
C	-0.4712393735	-1.3727405442	-1.8907902102	-0.095505
C	-1.4529150567	-0.3329485775	-2.4338304841	-0.093424
C	-2.0483847516	 0.1846147712	-1.3582181598	-0.056727
C	 0.6203583888	-0.4706732885	-1.2722225338	 0.382777
O	 1.6728873609	-0.1020752244	-1.7212617469	-0.332476
H	 0.9131481593	 1.6686734507	-0.1764939421	 0.297019
H	 0.4584251947	-0.5540439053	 0.8860466848	 0.103622
H	-2.0612475066	-0.6436440886	 0.7387192753	 0.096286
H	-0.1476878107	-2.1889687795	-2.5317165642	 0.109252
H	-1.5260126093	-0.0312204349	-3.4686743461	 0.127262
H	-2.7532863017	 1.0012895548	-1.3040145882	 0.127318
116.7822	213.3317	234.6101	340.8527	399.6131	489.5405	518.158	544.9578	658.2474	682.9893	740.1827	777.3049	798.7981	859.4595	915.3052	929.7811	949.0191	955.6396	989.9914	1051.398	1055.9522	1135.6394	1159.5959	1172.0071	1201.5189	1250.4796	1290.703	1313.1169	1324.5987	1349.508	1392.0344	1633.0648	1856.7072	2991.4741	3140.1985	3161.7195	3233.0404	3257.2865	3758.3911
OC1C2OC(C=C2)C1=O	O[C@H]1[C@@H]2O[C@@H](C=C2)C1=O	
InChI=1S/C6H6O3/c7-5-3-1-2-4(9-3)6(5)8/h1-5,7H	InChI=1S/C6H6O3/c7-5-3-1-2-4(9-3)6(5)8/h1-5,7H/t3-,4+,5+/m1/s1
