14
gdb 27713	2.87722	1.34079	0.91608	6.3788	76.88	-0.1955	-0.007	0.1885	1183.3351	0.102419	-432.911322	-432.903069	-432.902125	-432.943927	31.044	
N	 0.1159487466	 1.3243009903	 0.2121431353	-0.599569
C	-0.0576866335	-0.0299339362	 0.0704446719	 0.397458
C	-1.1794928896	-0.8158451685	-0.0035855034	-0.323956
C	-0.7056514278	-2.160940308	-0.0646625929	 0.196745
N	-1.4769863958	-3.2920411424	-0.2160858528	-0.61494
C	 0.6720756152	-2.099114629	-0.0176247291	 0.179632
O	 1.0659458567	-0.7595291414	 0.0597636669	-0.213574
C	 1.6404542687	-3.1022879713	-0.0317186998	 0.186659
N	 2.4040539475	-3.9804084211	-0.0426927581	-0.373165
H	 1.0240540428	 1.6570601674	-0.0799530454	 0.269152
H	-0.6419066451	 1.8897844907	-0.1388594852	 0.266201
H	-2.2043635809	-0.482295836	-0.0220348345	 0.105174
H	-2.3979752016	-3.2449342843	 0.1924950881	 0.257023
H	-1.0076890434	-4.1618489203	-0.0072078909	 0.26716
128.2992	131.2331	206.3055	259.484	291.7521	333.9751	363.4487	427.2579	523.2273	544.6532	566.0554	581.2877	614.3517	643.4739	691.2486	697.5035	747.1605	818.8796	1019.2167	1054.0555	1088.9508	1177.9228	1230.1804	1290.4729	1399.4778	1509.7508	1592.0701	1633.2246	1663.8659	1675.7901	2300.3667	3261.23	3568.2536	3572.6463	3670.1132	3679.474
NC1=CC(N)=C(O1)C#N	Nc1cc(N)c(o1)C#N	
InChI=1S/C5H5N3O/c6-2-4-3(7)1-5(8)9-4/h1H,7-8H2	InChI=1S/C5H5N3O/c6-2-4-3(7)1-5(8)9-4/h1H,7-8H2
