21
gdb 99866	2.04216	1.38445	1.04031	5.1292	78.66	-0.2661	0.0247	0.2909	1263.895	0.180698	-420.419007	-420.408262	-420.407318	-420.454146	39.68	
C	 0.0546119847	 1.5993587087	 0.0883220841	-0.404741
C	-0.0714183942	 0.0808014126	-0.0581585721	-0.221253
C	 0.6613469332	-0.515033627	-1.2877441245	 0.049585
N	 0.1371558292	-0.0484558228	-2.5912916748	-0.545507
C	 2.0842267696	-0.1280782398	-1.2241791649	 0.316189
N	 3.1837287028	 0.2151172959	-1.1340327419	-0.347789
C	 0.6090208001	-2.0822887023	-1.3126015372	 0.156357
C	-0.8145908984	-2.6466874657	-1.2639562255	-0.427507
O	 1.2947382257	-2.5392386032	-2.4559367101	-0.435907
H	 1.0973380066	 1.9018567526	 0.2192197195	 0.150848
H	-0.3413612427	 2.1206607887	-0.7893423702	 0.109151
H	-0.5098888933	 1.9451444737	 0.9586172658	 0.12433
H	 0.3069743929	-0.4130351463	 0.8447100611	 0.118725
H	-1.1281879366	-0.1948606601	-0.1449203792	 0.106899
H	-0.871404119	 0.0553564428	-2.536973497	 0.241405
H	 0.5195762052	 0.8578028014	-2.8363488008	 0.254544
H	 1.1707510909	-2.4482501551	-0.4456625483	 0.100272
H	-0.7557994375	-3.7301252522	-1.3927586521	 0.137109
H	-1.3167843579	-2.442083507	-0.3140448957	 0.117082
H	-1.4292000488	-2.251569772	-2.0801510045	 0.112791
H	 0.9971988773	-1.962029313	-3.1762316217	 0.287416
87.8828	106.8176	153.8517	162.2895	209.2742	219.9897	241.3097	250.7022	303.0148	321.7447	366.849	415.1739	434.763	518.9377	544.2481	588.9998	630.6472	712.8719	795.8042	845.0738	899.501	943.8462	974.1149	1001.2537	1050.9675	1085.0094	1092.3472	1119.5174	1132.7685	1197.1817	1277.2669	1290.014	1336.5733	1360.0364	1379.4472	1403.0619	1415.9813	1438.0519	1481.8802	1491.7268	1500.4438	1501.1942	1507.974	1649.422	2358.3809	3033.887	3039.6691	3042.8945	3049.7085	3075.5843	3110.0123	3110.8105	3123.2406	3126.2817	3507.9026	3594.3999	3704.5253
CCC(N)(C#N)C(C)O	CC[C@@](N)(C#N)[C@@H](C)O	
InChI=1S/C6H12N2O/c1-3-6(8,4-7)5(2)9/h5,9H,3,8H2,1-2H3	InChI=1S/C6H12N2O/c1-3-6(8,4-7)5(2)9/h5,9H,3,8H2,1-2H3/t5-,6-/m1/s1
