22
gdb 109971	1.79917	1.50435	1.11637	3.9694	85.7	-0.2946	0.0315	0.3261	1256.0055	0.194044	-367.231061	-367.221252	-367.220308	-367.265776	36.36	
C	-0.3389690987	 1.8172206885	-0.2796775454	-0.388782
C	-0.1276474079	 0.3040585424	-0.4055305622	-0.206805
C	-1.3710202698	-0.5003861889	-0.0524583868	 0.037109
C	-1.3579913726	-2.0654353555	-0.0774243355	-0.011149
C	 0.0027075138	-2.7346580727	 0.1071028959	-0.40696
C	-2.2344101158	-2.0595752072	 1.2078975944	-0.238183
C	-1.8884284107	-0.5500139589	 1.4363536196	-0.181638
C	-0.8691757218	-0.3216149784	 2.4484048407	 0.291593
N	-0.050342754	-0.1421202821	 3.2463951034	-0.349657
H	 0.5642643992	 2.364502145	-0.5647096979	 0.119086
H	-1.1556019326	 2.1601558059	-0.9250916584	 0.111087
H	-0.5822743551	 2.1000378804	 0.7496463045	 0.129719
H	 0.160433036	 0.0573151506	-1.4357029604	 0.097126
H	 0.7101106661	-0.0004154801	 0.2310874745	 0.119871
H	-2.2092983626	-0.1449024442	-0.6623836448	 0.080652
H	-1.8510231877	-2.4904872765	-0.9566545694	 0.072477
H	 0.522977132	-2.3691115367	 0.9979837374	 0.140109
H	-0.123633393	-3.8167740667	 0.2201754788	 0.11605
H	 0.653951975	-2.5637116822	-0.7561058518	 0.118354
H	-3.2998005304	-2.1870781922	 1.005042869	 0.110807
H	-1.9412079613	-2.744846612	 2.0055201123	 0.120225
H	-2.7389513081	 0.0997158613	 1.656095462	 0.118909
69.1032	95.0875	142.5112	169.0343	208.0937	232.0275	259.0809	286.3833	357.6204	392.675	464.4726	522.2432	600.3929	708.7594	776.3668	794.2279	817.4236	845.8892	915.2422	946.3656	957.9513	1002.0459	1028.9415	1050.5188	1074.5823	1111.4755	1137.4061	1154.6313	1182.148	1214.3261	1258.0356	1265.3658	1277.7841	1298.904	1333.6138	1350.4375	1371.151	1398.4119	1413.7642	1416.8981	1483.1132	1484.739	1499.0524	1500.9462	1502.7007	1506.1351	2343.2825	3025.0628	3031.9282	3033.5487	3034.871	3055.3429	3071.0187	3071.5276	3081.8896	3098.7989	3101.7083	3109.0827	3110.0081	3129.3596
CCC1C(C)CC1C#N	CC[C@H]1[C@@H](C)C[C@H]1C#N	
InChI=1S/C8H13N/c1-3-8-6(2)4-7(8)5-9/h6-8H,3-4H2,1-2H3	InChI=1S/C8H13N/c1-3-8-6(2)4-7(8)5-9/h6-8H,3-4H2,1-2H3/t6-,7-,8-/m0/s1
