20
gdb 40338	3.75826	1.31404	1.24731	1.6216	82.59	-0.2307	0.092	0.3227	1099.7476	0.172905	-365.933391	-365.925971	-365.925027	-365.96554	29.843	
C	-0.3239976966	 1.2942893777	-0.2480329978	-0.263395
C	 1.1015737867	 1.2204131159	 0.2311226369	-0.267132
C	 0.2997629746	-0.0497609331	 0.0435613395	-0.186265
C	-0.1612860192	-0.8171463401	 1.2150665305	 0.394828
C	-1.4605722519	-1.4017651124	 1.6361194288	-0.086021
C	-0.8091434605	-2.7040986255	 2.0916795887	-0.241295
C	 0.5010322274	-1.8799513923	 2.1989460504	-0.133104
C	 0.1570143558	-0.8692726154	 3.3013369926	-0.148753
N	-0.8625029734	-0.2390534749	 2.3991757981	-0.19132
H	-1.0655639206	 1.6482946132	 0.4585281677	 0.135616
H	-0.5116729047	 1.5530328484	-1.2839101682	 0.10861
H	 1.8990224825	 1.4270790891	-0.4740660972	 0.109531
H	 1.3014214341	 1.5412687786	 1.2472877958	 0.11918
H	 0.5636001474	-0.6582830634	-0.8176640276	 0.084651
H	-2.4496342172	-1.2341479886	 1.2301270808	 0.096526
H	-1.1729030255	-3.1951144651	 3.001219026	 0.092768
H	-0.775989756	-3.4243526392	 1.2700895545	 0.104672
H	 1.4759881585	-2.3561865456	 2.1138069908	 0.072181
H	-0.2318763084	-1.2522286151	 4.2528671931	 0.092573
H	 0.946507047	-0.1383321022	 3.4928876066	 0.106148
67.2425	140.2335	174.5916	318.9506	385.2797	455.533	500.3272	608.7686	720.954	748.6567	791.6838	818.1198	837.5284	847.2165	895.3924	908.4264	932.7238	945.7508	973.9442	991.1754	993.531	1042.3778	1061.9355	1069.3844	1086.3685	1100.4821	1123.3964	1126.2913	1131.6084	1157.9154	1191.1983	1201.3315	1213.5997	1230.5594	1250.6368	1281.0674	1301.078	1363.3914	1458.556	1467.5407	1492.1411	1500.4377	1515.4367	3027.3448	3040.3286	3099.1825	3103.1543	3132.5519	3134.3722	3136.3884	3142.5255	3203.3659	3219.1019	3235.4244
C1CC1C12C3CC1CN23	C1CC1[C@@]12[C@H]3C[C@@H]1CN23	
InChI=1S/C8H11N/c1-2-5(1)8-6-3-7(8)9(8)4-6/h5-7H,1-4H2	InChI=1S/C8H11N/c1-2-5(1)8-6-3-7(8)9(8)4-6/h5-7H,1-4H2/t6-,7-,8+,9?/m1/s1
