20
gdb 106789	2.6559	1.47549	1.14155	1.5895	78.85	-0.2394	0.0197	0.2591	1153.6972	0.170437	-403.161753	-403.152921	-403.151977	-403.195036	33.671	
C	 0.2875414557	 1.5422919264	 0.1957282268	-0.371649
C	-0.1665888815	 0.1067866384	-0.0929188931	-0.271049
C	 0.5354472976	-0.4910230294	-1.2876656383	 0.298224
C	 1.9311876802	-1.0898724542	-1.1853987712	-0.382825
C	 0.7754832314	-1.9705932168	-1.5772261051	 0.347987
C	 0.327994059	-3.1827094631	-0.8171436129	-0.475602
O	 0.5841896335	-2.0938986606	-2.9917695617	-0.248086
C	 0.3075907693	-0.8392480416	-3.4259648587	 0.081849
N	 0.2395097472	 0.1066454167	-2.5796546047	-0.303017
H	 1.3587320948	 1.5776014964	 0.4202572023	 0.113945
H	 0.1060203261	 2.1810701497	-0.6726451412	 0.1413
H	-0.2519682768	 1.9601389096	 1.0510307995	 0.10662
H	 0.0167115088	-0.52738961	 0.7829567511	 0.092249
H	-1.248368677	 0.0899569855	-0.2726038862	 0.104268
H	 2.6711852886	-0.8204858712	-1.9319252656	 0.119313
H	 2.3192200036	-1.2412179817	-0.182994173	 0.115552
H	 0.4240679025	-3.0104340368	 0.2580895459	 0.127159
H	-0.717349345	-3.4200422682	-1.0373731176	 0.130577
H	 0.9396993313	-4.053886703	-1.0741930902	 0.133226
H	 0.1569716009	-0.7509095562	-4.4951908959	 0.139959
85.7136	142.8988	181.4251	192.9855	228.4187	272.9129	328.2265	393.2438	413.9351	473.4506	598.1151	606.7957	717.3347	768.759	797.2954	809.6268	903.0299	921.315	940.081	949.8858	970.8045	995.0343	1025.1751	1039.424	1100.8773	1103.4794	1141.6079	1185.4855	1215.6533	1287.8395	1306.9756	1341.5196	1361.2302	1395.0538	1407.1297	1424.7304	1470.1114	1477.6747	1480.7193	1494.8914	1500.2506	1510.1294	1668.9646	3026.236	3038.5831	3039.076	3062.1065	3103.2302	3105.8047	3120.7663	3122.9708	3124.03	3215.1495	3224.827
CCC12CC1(C)OC=N2	CC[C@@]12C[C@]1(C)OC=N2	
InChI=1S/C7H11NO/c1-3-7-4-6(7,2)9-5-8-7/h5H,3-4H2,1-2H3	InChI=1S/C7H11NO/c1-3-7-4-6(7,2)9-5-8-7/h5H,3-4H2,1-2H3/t6-,7+/m0/s1
