17
gdb 41408	2.56235	2.04485	1.43144	0.9404	66.9	-0.2556	0.0596	0.3152	921.1978	0.137417	-458.91922	-458.91233	-458.911386	-458.950583	26.939	
C	-0.054068193	 1.4036656908	 0.1708344855	-0.133316
O	 1.3951807748	 1.5207289726	 0.081031052	-0.320945
C	 1.5363481732	 0.1119450406	 0.0432128849	 0.347494
C	 2.6009732238	-0.687769183	-0.6969982772	-0.162701
O	 2.5798904567	-1.6708696243	 0.369735547	-0.295217
C	 1.8976165025	-0.7572418063	 1.265633761	 0.049115
C	 0.5774004927	-1.252103843	 1.8365115863	-0.117838
O	-0.419010797	-1.0624616506	 0.8212817152	-0.266022
C	 0.0303903686	-0.122746409	-0.1197121841	 0.025138
H	-0.4273098	 1.6549661162	 1.1701088762	 0.113397
H	-0.5523909402	 2.0233263387	-0.5803848845	 0.115448
H	 2.3375838183	-1.1175014195	-1.6690324353	 0.112467
H	 3.571005957	-0.1776012214	-0.7639507318	 0.113449
H	 2.5769500088	-0.3349053331	 2.0135067787	 0.08896
H	 0.5963914725	-2.3145302287	 2.0962225506	 0.127778
H	 0.3248292801	-0.6733860167	 2.7367880722	 0.102711
H	-0.3440888089	-0.4104067433	-1.1042906269	 0.100081
125.4821	154.0634	256.5316	296.2645	393.0782	421.1307	507.7731	634.867	738.1714	765.4239	817.3256	840.0578	906.6984	913.8078	958.9803	981.9042	992.63	1027.8347	1029.4284	1078.621	1108.2518	1133.6852	1142.3373	1161.9159	1184.1677	1208.4644	1231.107	1248.4721	1290.8055	1319.3311	1335.9396	1356.2135	1364.9998	1399.1262	1496.8515	1510.2555	1515.7777	3002.2994	3016.4222	3035.5816	3060.3433	3077.7675	3086.9038	3090.1931	3101.817
C1OC23COC2COC13	C1O[C@@]23CO[C@@H]2CO[C@@H]13	
InChI=1S/C6H8O3/c1-4-6(3-8-4)5(7-1)2-9-6/h4-5H,1-3H2	InChI=1S/C6H8O3/c1-4-6(3-8-4)5(7-1)2-9-6/h4-5H,1-3H2/t4-,5+,6+/m1/s1
