20
gdb 20094	4.2292	1.52886	1.38139	0.2516	79.15	-0.2292	0.0909	0.3202	990.7829	0.178335	-311.82693	-311.819518	-311.818574	-311.85869	29.436	
C	-0.0944503366	 1.4685299011	-0.1897581134	-0.276522
C	 1.2828690955	 0.9085263921	 0.0635359079	-0.267381
C	 0.0847213824	-0.01386116	 0.0360654051	-0.105936
C	-0.3854414592	-0.6903406631	 1.2753273776	 0.413215
C	-0.3722127825	-2.1889137468	 1.4258656592	-0.330735
C	-1.6847806441	-1.4640855048	 1.5588402772	-0.099738
C	-1.7849697925	-0.8321042857	 2.9490821622	-0.218305
C	-0.4535724576	-0.0566326647	 2.6765021583	-0.303092
H	-0.5533864748	 2.0580687535	 0.5965947881	 0.110282
H	-0.3398556885	 1.8042056913	-1.1914413128	 0.108622
H	 1.9892983969	 0.8664767717	-0.7581603947	 0.109227
H	 1.7361466878	 1.1116226407	 1.0281933712	 0.112925
H	-0.0068802197	-0.6305270873	-0.8547261209	 0.075841
H	-0.2378871538	-2.741893535	 0.5008616847	 0.105209
H	 0.0877446354	-2.6601197938	 2.2934211753	 0.097553
H	-2.5170649589	-1.6679926785	 0.8948754746	 0.080206
H	-2.6372175646	-0.1575631312	 3.0572538305	 0.100724
H	-1.7839338474	-1.5294708646	 3.7940217044	 0.092865
H	 0.3917400956	-0.2740886301	 3.3382152215	 0.092099
H	-0.6079589234	 1.0248207154	 2.659357284	 0.10294
67.0946	159.2001	193.982	283.2021	373.068	417.4095	466.5373	595.9765	711.0431	783.8425	789.155	809.9372	838.5057	856.8173	909.5836	922.4111	940.7291	958.7845	972.1091	1023.0383	1025.5754	1053.0523	1060.0919	1075.7105	1088.0601	1115.124	1133.4834	1147.6713	1197.5792	1217.1619	1224.3219	1231.4607	1242.7138	1270.6721	1318.1394	1348.7434	1440.9285	1467.0927	1482.2967	1484.9616	1503.6447	1516.9418	3036.9944	3045.6048	3090.9003	3091.4825	3110.0766	3129.9577	3130.6094	3135.7868	3172.4097	3188.4285	3207.4115	3222.426
C1CC1C12CC1CC2	C1CC1[C@]12C[C@H]1CC2	
InChI=1S/C8H12/c1-2-6(1)8-4-3-7(8)5-8/h6-7H,1-5H2	InChI=1S/C8H12/c1-2-6(1)8-4-3-7(8)5-8/h6-7H,1-5H2/t7-,8+/m1/s1
