22
gdb 6204	3.46913	1.44068	1.33375	0.3163	84.79	-0.2254	0.0342	0.2596	1089.8623	0.199577	-313.102844	-313.093851	-313.092907	-313.135706	34.601	
C	-0.0126698051	 1.5221909967	 0.0480638809	-0.48983
C	 0.0123781754	 0.026649519	 0.0084207301	 0.319514
C	-0.3203676007	-0.7653263579	-1.0119071597	-0.191948
C	-0.1174864979	-2.2428958793	-0.7315332708	 0.28897
C	-1.3342401027	-3.0888392378	-1.1400842615	-0.427102
C	 1.1357511981	-2.7566462488	-1.4721787952	-0.414989
C	 0.0978356441	-2.2384640803	 0.8142984537	-0.250768
C	 0.4948509482	-0.7914385846	 1.1899633896	-0.300882
H	 0.9868515396	 1.9298618161	 0.2489210111	 0.122346
H	-0.3684963192	 1.9475785949	-0.8943732465	 0.120536
H	-0.6619193807	 1.8873949168	 0.8543777133	 0.121887
H	-0.6611824889	-0.4121201026	-1.9815758235	 0.074753
H	-1.4902887243	-3.0617386334	-2.2246654719	 0.106254
H	-1.1972102537	-4.1377998794	-0.8525781067	 0.10789
H	-2.2476473422	-2.7228299467	-0.6601841152	 0.109628
H	 2.0311216031	-2.2096555974	-1.1598193474	 0.110193
H	 1.2996578547	-3.8220848931	-1.2723463416	 0.10626
H	 1.0320788267	-2.6326956307	-2.5559763486	 0.106979
H	-0.8450348782	-2.4950742167	 1.3084971153	 0.094675
H	 0.8373779036	-2.9800734016	 1.1308399326	 0.089659
H	 1.5811891063	-0.6756291909	 1.3166665512	 0.100137
H	 0.0472622336	-0.4662869324	 2.1373571508	 0.095839
91.517	143.4284	188.2678	232.6585	248.7789	286.2271	319.7156	335.593	396.2799	406.117	500.5757	569.1931	595.0086	757.5922	836.2175	869.7833	886.8082	920.4078	936.9276	958.078	976.3715	997.5367	1026.6229	1030.376	1060.1548	1139.3889	1151.8609	1201.1524	1227.7641	1255.6949	1268.9458	1299.8891	1327.961	1362.0026	1394.2757	1412.4135	1417.5556	1479.1164	1480.1717	1483.5055	1488.7361	1490.1288	1500.1853	1501.6132	1508.0824	1725.0666	2999.8423	3013.3031	3018.045	3022.4733	3034.3866	3048.2371	3057.2658	3082.2386	3087.0462	3089.0259	3096.666	3098.3582	3107.1933	3164.1839
CC1=CC(C)(C)CC1	CC1=CC(C)(C)CC1	
InChI=1S/C8H14/c1-7-4-5-8(2,3)6-7/h6H,4-5H2,1-3H3	InChI=1S/C8H14/c1-7-4-5-8(2,3)6-7/h6H,4-5H2,1-3H3
