18
gdb 131818	5.53079	0.67696	0.65945	3.0793	74.16	-0.2574	0.0001	0.2575	1687.9848	0.148803	-435.257636	-435.24881	-435.247866	-435.292899	31.047	
O	 0.1518480176	 1.3627618275	-0.3567373917	-0.414065
C	 0.0514694041	 0.0109651527	 0.0511855623	-0.056863
C	-1.3501515537	-0.5655056719	-0.1647419945	-0.207587
C	-1.4260200391	-2.0505342632	 0.2056431452	-0.16919
N	-2.767426272	-2.5954400066	 0.067656993	 0.083425
C	-3.3973342497	-3.0655943922	-1.035255425	-0.102768
C	-4.6601066208	-3.3807378535	-0.5945566127	-0.06574
N	-4.7419490119	-3.0909067559	 0.7323956607	-0.189391
N	-3.5971432033	-2.6132747283	 1.1314083158	-0.152006
H	-0.4206553599	 1.8881557627	 0.2115434088	 0.28564
H	 0.7811503304	-0.5353286584	-0.5577537655	 0.114162
H	 0.3521610528	-0.1173938213	 1.1037661314	 0.095461
H	-2.0765500845	-0.0169824844	 0.4476618033	 0.119581
H	-1.6366862017	-0.4218260251	-1.2123233297	 0.117175
H	-0.7506732093	-2.6445653846	-0.4184507563	 0.12708
H	-1.1420229719	-2.2039941453	 1.2497396002	 0.146672
H	-2.9116667673	-3.1371085612	-1.9939515548	 0.142785
H	-5.4925823698	-3.7963308711	-1.1386335804	 0.125628
34.6515	82.8299	86.6273	127.7509	227.9264	312.1873	329.7576	352.567	468.8767	658.8918	717.4756	752.5133	760.7247	784.5259	857.9581	859.275	961.4429	1021.3497	1040.8801	1054.2104	1072.8304	1089.2929	1100.3925	1141.329	1147.1052	1251.2004	1282.0832	1292.8871	1316.6489	1322.6626	1362.6414	1394.4699	1409.8152	1427.8972	1475.5209	1495.0807	1501.2165	1516.3497	1523.1418	2974.8973	3033.82	3057.1523	3060.3316	3084.6986	3118.3275	3268.1213	3289.2711	3815.4078
OCCCN1C=CN=N1	OCCCn1ccnn1	
InChI=1S/C5H9N3O/c9-5-1-3-8-4-2-6-7-8/h2,4,9H,1,3,5H2	InChI=1S/C5H9N3O/c9-5-1-3-8-4-2-6-7-8/h2,4,9H,1,3,5H2
