17
gdb 34965	3.18968	1.54432	1.48375	3.4985	74.56	-0.2238	0.0182	0.2419	943.2909	0.138932	-380.819769	-380.813058	-380.812114	-380.850911	26.86	
N	-0.024168902	-1.1946011551	-0.070864028	-0.337372
C	-0.0265764763	-0.0381970152	-0.0424042009	 0.279769
C	 0.0057269525	 1.4139481336	 0.0343116291	-0.156867
C	-0.2982907909	 2.1040460828	 1.4044482776	-0.069383
C	 0.5365285882	 1.5289663235	 2.5630297374	-0.182966
N	 1.769886468	 2.2741086482	 2.1298527724	-0.146281
C	 2.4135933491	 1.5716281957	 0.9652861019	-0.182967
C	 1.3881394561	 2.1423764163	-0.0310285567	-0.069374
C	 0.9109449418	 3.0559217415	 1.1416243948	 0.000063
H	-0.6559023747	 1.8285314549	-0.7319176637	 0.127066
H	-1.3303978897	 2.4044503297	 1.5819325954	 0.086866
H	 0.2051584434	 1.9082012647	 3.5345475871	 0.115729
H	 0.6464018016	 0.4416010928	 2.6282050599	 0.125484
H	 3.4151728374	 1.9811600692	 0.8022079954	 0.115729
H	 2.4890548734	 0.4834805922	 1.0597538546	 0.125489
H	 1.719885337	 2.4737811019	-1.0144433259	 0.086869
H	 0.905833055	 4.1441588536	 1.1646799596	 0.082147
116.001	146.3438	323.2073	336.1227	434.6352	528.5677	561.899	611.7299	690.2184	770.9533	801.5865	839.1576	866.1174	901.0068	922.8455	972.3989	979.098	988.2111	996.4592	1050.1211	1061.7669	1105.7673	1146.3627	1172.1894	1183.7363	1200.9927	1203.8512	1219.3516	1232.3544	1291.0954	1292.8482	1317.6098	1326.0417	1346.2737	1495.0889	1508.7175	2347.9449	3040.6135	3044.9568	3068.6385	3091.8992	3094.5195	3110.4032	3111.9407	3132.4265
N#CC1C2CN3CC1C23	N#C[C@H]1[C@H]2CN3C[C@@H]1[C@@H]23	
InChI=1S/C7H8N2/c8-1-4-5-2-9-3-6(4)7(5)9/h4-7H,2-3H2	InChI=1S/C7H8N2/c8-1-4-5-2-9-3-6(4)7(5)9/h4-7H,2-3H2/t4-,5+,6-,7+
