21
gdb 89498	2.95323	1.33215	1.12852	1.3945	85.65	-0.2307	0.0081	0.2388	1186.4029	0.18231	-387.076027	-387.067295	-387.066351	-387.108952	34.491	
C	-0.1458613003	 1.5460610473	 0.0306772882	-0.399734
C	 0.0165061821	 0.0232836251	 0.0494284429	-0.003205
C	 0.758552444	-0.5378491723	-1.2106580372	-0.277357
C	 1.4870168427	-1.7802036071	-0.6803931292	 0.387263
O	 0.7275495631	-2.9298550221	-1.0396197049	-0.493758
C	 3.0428180819	-2.0260889816	-0.6914180386	-0.288718
C	 3.0010750406	-2.1541472915	 0.8827401589	-0.341611
C	 1.6432782008	-1.4900067357	 0.7939488317	 0.243683
C	 0.8953495716	-0.4727161523	 1.2046772453	-0.23886
H	 0.8296997945	 2.0446665827	-0.0055114646	 0.111755
H	-0.7198074287	 1.8677526725	-0.8448195008	 0.114523
H	-0.6717048552	 1.9028677992	 0.9228404289	 0.111024
H	-0.9854705248	-0.4243807121	 0.1145166716	 0.087186
H	 0.0858062391	-0.775671216	-2.0386435859	 0.104752
H	 1.4799166585	 0.2108506046	-1.5567679584	 0.092676
H	 0.9718066677	-3.6536234507	-0.4529645764	 0.273945
H	 3.3749624676	-2.9065749923	-1.2479560896	 0.098971
H	 3.6109208072	-1.1511001544	-1.0151396881	 0.107696
H	 2.9744222048	-3.2013171288	 1.2049881166	 0.105166
H	 3.773337485	-1.6409646803	 1.4603093025	 0.114206
H	 0.9303305277	 0.0334129557	 2.1645821269	 0.090398
87.5077	166.5804	207.7218	239.0758	250.0497	283.2044	331.5109	373.2831	446.6288	505.6609	543.2325	606.373	700.6492	764.2261	794.3926	823.9897	856.805	885.9057	902.5899	919.1377	939.5585	992.7304	1023.9684	1035.6316	1078.1037	1103.7669	1119.8594	1143.9353	1155.2616	1190.7598	1218.8329	1232.8026	1250.9265	1272.2539	1302.0856	1315.7996	1355.0983	1375.2085	1408.7439	1464.5173	1473.6784	1485.5134	1496.964	1498.7278	1730.972	2998.7067	3024.636	3039.0228	3044.211	3059.8656	3092.2869	3096.909	3100.8099	3105.8131	3126.286	3176.486	3805.7401
CC1CC2(O)CCC2=C1	C[C@H]1C[C@@]2(O)CC[C]2[CH]1	
InChI=1S/C8H12O/c1-6-4-7-2-3-8(7,9)5-6/h4,6,9H,2-3,5H2,1H3	InChI=1S/C8H12O/c1-6-4-7-2-3-8(7,9)5-6/h4,6,9H,2-3,5H2,1H3/t6-,8+/m1/s1
