22
gdb 112180	2.37139	1.23228	1.02657	2.681	83.87	-0.257	0.035	0.2919	1317.7677	0.192401	-404.36903	-404.358795	-404.357851	-404.404059	37.721	
C	-0.0937795143	 1.6303835176	-0.1047213441	-0.386517
C	-0.0636197599	 0.1614291158	 0.331558038	-0.200537
C	-1.3489411538	-0.5648336343	-0.0107263952	 0.122055
O	-1.5430798745	-0.6789570719	-1.4678546627	-0.281743
C	-1.6391514376	-2.0493505493	-1.3924734432	 0.425114
N	-1.8147359864	-2.9085225385	-2.2899017705	-0.556462
C	-1.4674456091	-2.1185696207	 0.1170711744	 0.121592
C	-0.2345729487	-2.8969338781	 0.5768188999	-0.444368
C	-2.7267038214	-2.5913959696	 0.8478196831	-0.441155
H	 0.8478622315	 2.1311940068	 0.1376147365	 0.116003
H	-0.2531316033	 1.7079080886	-1.183961547	 0.138488
H	-0.9021581461	 2.1761048205	 0.3941795184	 0.116265
H	 0.7817497822	-0.348565375	-0.1420529332	 0.107964
H	 0.090123234	 0.0917160941	 1.4162755462	 0.103847
H	-2.2102337576	-0.0381948945	 0.4172598719	 0.082857
H	-1.8957298258	-2.475186385	-3.2115023758	 0.223623
H	 0.6706110135	-2.5962968762	 0.0440376204	 0.124393
H	-0.0642525985	-2.7621982073	 1.6503495172	 0.115232
H	-0.3869058706	-3.9635322919	 0.3881081836	 0.137984
H	-2.8993358332	-3.6542250802	 0.6554320823	 0.137591
H	-2.6211375432	-2.4509775787	 1.92931901	 0.114762
H	-3.6132598871	-2.0425546823	 0.5160334298	 0.123013
74.1202	89.8637	160.2043	175.6352	207.5296	215.6991	226.7951	276.6878	307.562	316.8541	396.2492	468.7627	561.5497	657.1095	693.4345	738.4915	788.9033	849.2922	868.3094	900.0883	960.1976	964.8013	997.6923	1017.7736	1027.3417	1062.7038	1094.9799	1138.7975	1195.4309	1211.3354	1246.2986	1266.0932	1292.9119	1322.7498	1364.8206	1399.9447	1407.0856	1413.6109	1422.8605	1471.441	1481.9699	1487.0304	1498.0489	1501.2286	1508.3195	1508.5386	1818.3304	3028.7013	3030.9293	3035.407	3038.2252	3041.2619	3075.8071	3101.8713	3106.6983	3108.8895	3115.4214	3119.8396	3124.0009	3471.8156
CCC1OC(=N)C1(C)C	CC[C@H]1O[C]([NH])C1(C)C	
InChI=1S/C7H13NO/c1-4-5-7(2,3)6(8)9-5/h5,8H,4H2,1-3H3	InChI=1S/C7H13NO/c1-4-5-7(2,3)6(8)9-5/h5,8H,4H2,1-3H3/t5-/m1/s1
