20
gdb 47722	2.46143	1.64706	1.12936	2.9193	79.2	-0.2486	-0.0226	0.226	1119.4744	0.173399	-403.168479	-403.160499	-403.159555	-403.20097	31.425	
O	 0.0641765648	 0.0286573161	 0.3540062231	-0.336088
C	 0.0086691889	 1.2151694706	 0.1021696803	 0.331211
C	-1.313607856	 1.946927012	-0.0671226819	-0.299144
C	-1.2649262051	 3.09541902	-1.087846058	-0.20652
C	-0.0755408901	 4.0250549041	-0.818091296	-0.203573
C	 1.244456528	 3.2500612342	-0.9133176684	-0.277945
C	 1.266178004	 2.0451553907	 0.0120595283	 0.243756
C	 2.0699885293	 2.0410196805	 1.2820375412	-0.26354
N	 2.527131017	 1.3060374697	 0.1067585748	-0.353542
H	-2.0859956663	 1.2083277251	-0.2970029492	 0.123789
H	-1.5559896525	 2.3610684828	 0.9232269408	 0.127644
H	-1.1788852548	 2.6818600686	-2.1011792173	 0.107132
H	-2.2084695535	 3.6500791478	-1.0576698299	 0.102538
H	-0.071288928	 4.8544130614	-1.532927346	 0.100026
H	-0.1763239032	 4.4703521796	 0.1809414344	 0.09744
H	 1.3827003549	 2.8969225196	-1.9439708619	 0.110016
H	 2.1014561285	 3.8932845811	-0.6911342618	 0.105947
H	 2.6445129433	 2.9294676605	 1.5330985073	 0.119871
H	 1.6826568204	 1.4810562518	 2.1292308955	 0.125052
H	 2.2853453303	 0.3206431738	 0.2237301848	 0.245931
86.1598	124.1587	253.7026	278.9611	310.485	363.9927	389.0525	433.75	501.6056	573.7177	636.4742	673.9381	802.0159	849.1454	857.2899	877.2711	915.7172	941.1625	972.9057	981.2921	1011.2269	1067.5469	1085.148	1113.201	1115.0942	1148.9867	1151.2201	1197.9225	1258.2589	1278.5704	1301.0172	1338.8655	1347.5575	1356.7977	1370.5661	1378.6489	1397.2831	1456.1357	1485.8107	1491.7318	1500.6666	1504.5462	1783.3457	3007.3217	3016.7803	3022.8909	3028.1841	3073.1984	3074.9841	3080.0986	3098.6737	3101.405	3192.773	3454.2528
O=C1CCCCC11CN1	O=C1CCCC[C@]21CN2	
InChI=1S/C7H11NO/c9-6-3-1-2-4-7(6)5-8-7/h8H,1-5H2	InChI=1S/C7H11NO/c9-6-3-1-2-4-7(6)5-8-7/h8H,1-5H2/t7-/m1/s1
