15
gdb 131612	2.86034	1.36086	0.95545	1.3521	62.53	-0.2674	-0.0401	0.2274	1152.8794	0.112771	-491.068745	-491.060547	-491.059603	-491.10276	29.227	
O	-0.0300001888	 0.495086235	 1.1758846023	-0.413862
C	-0.1381703177	 0.2939744753	-0.2091605914	-0.084198
C	-1.4224492946	-0.4698267249	-0.6057687009	-0.03419
O	-1.6496971138	-0.471754052	-1.9959703422	-0.404432
C	-1.3990426337	-1.8642990345	-0.0310488372	 0.422317
N	-0.8888299311	-2.2413810438	 1.1092908127	-0.338574
C	-1.1354674853	-3.5915130612	 1.1014274777	 0.043744
N	-1.7465893512	-4.0344433349	 0.0394409584	-0.110805
O	-1.9263158882	-2.8722772829	-0.7277066722	-0.187935
H	-0.0274045202	-0.3799584249	 1.5911934204	 0.300647
H	-0.188213942	 1.2772264627	-0.6853859638	 0.126542
H	 0.7341874927	-0.2375386115	-0.6287540972	 0.082098
H	-2.272515953	 0.0611818459	-0.1607415123	 0.144947
H	-0.9436825963	-0.9668661076	-2.4270404235	 0.294099
H	-0.8501147968	-4.2552253708	 1.9043741893	 0.159603
26.8537	149.1453	176.3578	193.3078	240.7728	289.1874	389.1342	441.0486	539.3699	558.9501	634.9933	658.9843	782.0227	904.3659	932.7541	983.7178	986.1868	1027.675	1048.0696	1101.5737	1122.4805	1183.4094	1214.5256	1247.5205	1264.0759	1317.3538	1335.9092	1386.9992	1410.7296	1451.9371	1502.1026	1514.1153	1603.217	2951.6224	3053.0774	3093.7684	3265.0606	3716.1458	3802.0626
OCC(O)C1=NC=NO1	OC[C@@H](O)c1ncno1	
InChI=1S/C4H6N2O3/c7-1-3(8)4-5-2-6-9-4/h2-3,7-8H,1H2	InChI=1S/C4H6N2O3/c7-1-3(8)4-5-2-6-9-4/h2-3,7-8H,1H2/t3-/m1/s1
