17
gdb 92528	2.87572	1.53682	1.15325	2.5659	67.36	-0.2591	-0.0401	0.2191	1051.0795	0.136478	-458.964201	-458.956486	-458.955542	-458.996979	29.175	
O	 0.4634259357	 0.9010555489	 0.9242336672	-0.438226
C	 0.0572698518	-0.2000088998	 0.1668523333	 0.064086
C	-1.4678055174	-0.415872939	 0.0652301898	-0.268355
C	-1.6841609801	-1.1214004733	-1.2952828858	 0.113321
O	-2.3924666638	-0.302886064	-2.2583335741	-0.286354
C	-1.2670628336	-0.284944528	-3.1614515043	-0.080188
C	-0.3805182728	-1.0052054613	-2.1258466743	-0.194259
C	 0.5040212292	-0.0985005699	-1.290924551	 0.348261
O	 1.3577188632	 0.6669677909	-1.6673760437	-0.328658
H	 1.1275948629	 1.3588134511	 0.3858070923	 0.292746
H	 0.512041535	-1.1315478844	 0.5574811376	 0.093864
H	-1.8589907191	-0.9865811599	 0.9092872418	 0.113832
H	-1.9713457295	 0.5542583047	 0.04096069	 0.13693
H	-2.1408141971	-2.1121566207	-1.2084925224	 0.084016
H	-1.4622323247	-0.869463728	-4.0683091631	 0.109959
H	-0.9606976292	 0.728861433	-3.4401764561	 0.125104
H	 0.1420161994	-1.9052239703	-2.4541216772	 0.113921
70.4024	84.7254	214.1437	285.184	352.6795	389.2434	397.0897	500.7239	575.3681	628.0459	645.6794	763.3868	832.7879	879.3668	902.9679	951.9545	968.4377	1012.8424	1028.7787	1048.9511	1073.5956	1104.0622	1145.4673	1156.8774	1182.8164	1208.8798	1233.9475	1253.8732	1294.1699	1305.7669	1335.2411	1356.8078	1375.2806	1419.0087	1485.5469	1528.2481	1834.4417	2912.8929	3025.7979	3054.0974	3074.1459	3077.6048	3104.0034	3127.742	3703.9412
OC1CC2OCC2C1=O	O[C@H]1C[C@H]2OC[C@H]2C1=O	
InChI=1S/C6H8O3/c7-4-1-5-3(2-9-5)6(4)8/h3-5,7H,1-2H2	InChI=1S/C6H8O3/c7-4-1-5-3(2-9-5)6(4)8/h3-5,7H,1-2H2/t3-,4+,5-/m1/s1
