20
gdb 94172	2.33537	1.4113	1.20462	2.4818	74.64	-0.2306	0.0344	0.2651	1152.638	0.169441	-440.31498	-440.305074	-440.304129	-440.350157	36.37	
C	-0.3878504057	 1.3122366592	-0.1602465144	-0.422445
C	 0.1561304821	-0.1054111009	-0.0727225292	-0.062639
C	 1.5507216396	-0.380746116	-0.6716757287	-0.089002
O	 2.0592527999	-0.8715148317	 0.5897935499	-0.3367
C	 0.7941768112	-0.6108040435	 1.2645562732	 0.317755
C	 0.9580249696	 0.3650672103	 2.4186202381	-0.437983
C	 0.1292425172	-1.8971844085	 1.7706705262	 0.342973
N	 0.8603877489	-3.0183477123	 1.5600886371	-0.524228
O	-0.9695557505	-1.8703884039	 2.295925705	-0.388786
H	 0.3513758745	 2.0564929985	 0.1508402801	 0.120173
H	-0.6742783118	 1.5431870582	-1.1919967514	 0.119582
H	-1.2775282519	 1.4313661879	 0.4656236159	 0.135763
H	-0.6006253315	-0.8066600125	-0.4320347377	 0.096679
H	 1.6027662415	-1.1422677466	-1.4582515358	 0.103728
H	 2.0979928777	 0.5112281026	-1.0016882683	 0.103478
H	 1.3659883964	 1.3191080002	 2.0781691765	 0.11553
H	-0.0066895453	 0.5289107802	 2.904000025	 0.148156
H	 1.6479969163	-0.0552047775	 3.1575237943	 0.126442
H	 1.7721519825	-2.9367844029	 1.1412520957	 0.271666
H	 0.5121339894	-3.9037513709	 1.8867679685	 0.259858
42.3923	59.3028	168.3906	208.4405	220.006	255.2017	285.4394	317.0258	334.0618	370.3838	406.8123	484.551	542.6544	651.7149	661.0524	741.7678	785.2735	887.3081	895.6447	907.438	919.2586	1013.208	1036.1827	1089.5893	1107.5103	1133.6909	1152.008	1170.2054	1208.2366	1215.763	1277.4616	1341.0188	1370.0123	1387.9203	1398.8361	1413.1104	1479.1705	1485.5191	1500.2706	1506.2131	1525.1403	1584.2574	1792.0149	3016.1951	3035.9287	3047.7874	3058.7196	3079.655	3101.4934	3113.6592	3118.6271	3142.9078	3593.0599	3736.5376
CC1COC1(C)C(N)=O	C[C@H]1CO[C@]1(C)C(=O)N	
InChI=1S/C6H11NO2/c1-4-3-9-6(4,2)5(7)8/h4H,3H2,1-2H3,(H2,7,8)	InChI=1S/C6H11NO2/c1-4-3-9-6(4,2)5(7)8/h4H,3H2,1-2H3,(H2,7,8)/t4-,6-/m0/s1
