16
gdb 36593	2.5654	1.19021	1.00988	3.411	73.21	-0.2633	0.0028	0.2661	1203.0125	0.12414	-396.924089	-396.915186	-396.914241	-396.958541	32.023	
N	 0.3148360083	-0.05176916	 1.5611876206	-0.309642
C	 0.1240171004	 0.5447680628	 0.589540076	 0.262372
C	-0.05027349	 1.3047022271	-0.6665739189	-0.308181
N	 1.0729709905	 2.1559948847	-1.0350762384	-0.333469
C	 1.2890696854	 3.3232347646	-0.2157018556	 0.172885
C	 1.8985927141	 3.2570016376	 1.1883824937	-0.290758
C	 2.7084332067	 3.7809868584	 0.0383454522	-0.312133
C	 0.2906019526	 4.3481683744	-0.4385180179	 0.285914
N	-0.5286285079	 5.1488144081	-0.5982516267	-0.342201
H	-0.231649823	 0.58991364	-1.4755151618	 0.163684
H	-0.9502631993	 1.9232049664	-0.5847902163	 0.182303
H	 1.9260366493	 1.6231802243	-1.1465112034	 0.242666
H	 1.5366214274	 3.9602646261	 1.9289208248	 0.146874
H	 2.1165458124	 2.2656591417	 1.5659108336	 0.155598
H	 3.493967445	 3.1534016572	-0.3702815424	 0.133154
H	 2.9092448081	 4.8434759967	-0.0220054996	 0.150934
37.0562	96.3019	144.6843	212.3107	221.6609	251.3278	354.0565	388.6943	411.2365	569.2629	571.065	605.2794	653.6196	693.4096	775.0343	884.9092	894.8063	909.214	955.0371	979.8672	1041.1601	1067.9406	1095.0764	1116.5117	1192.0229	1248.5108	1285.8132	1340.4081	1369.1031	1459.2583	1465.5867	1494.497	1500.6362	2349.356	2353.0286	3057.3965	3098.3188	3141.8299	3153.8829	3230.802	3249.8529	3571.4029
N#CCNC1(CC1)C#N	N#CCNC1(CC1)C#N	
InChI=1S/C6H7N3/c7-3-4-9-6(5-8)1-2-6/h9H,1-2,4H2	InChI=1S/C6H7N3/c7-3-4-9-6(5-8)1-2-6/h9H,1-2,4H2
