18
gdb 63788	3.45933	1.27844	1.21975	4.516	72.2	-0.2377	0.0115	0.2492	1091.9183	0.146561	-439.088658	-439.080238	-439.079294	-439.121348	32.319	
C	-0.0214108982	 1.5559603114	 0.0092439997	-0.438003
C	 0.0330986993	 0.0404486838	 0.0598165877	 0.390932
C	-1.3077303877	-0.6132414884	-0.2471862896	-0.421759
O	 1.0546709703	-0.4882218042	-0.8533893607	-0.335365
C	 1.7007548116	-1.2246412608	 0.1993173815	-0.039335
C	 0.7491461914	-0.636218074	 1.2708322755	-0.091819
N	 1.9023429719	 0.056343629	 1.8356780649	-0.32698
C	 2.816328487	-0.3778874527	 0.8840168473	 0.411101
O	 3.9714148484	-0.1249718518	 0.692245519	-0.347096
H	 0.9492332484	 1.9943464619	 0.2520484279	 0.126495
H	-0.2961299437	 1.8833328736	-0.9983386925	 0.134677
H	-0.7706691765	 1.9424916007	 0.7083991441	 0.116483
H	-1.6339955287	-0.3489300173	-1.257248152	 0.131692
H	-1.2339330133	-1.7033456598	-0.1889089119	 0.122617
H	-2.0719323974	-0.2795828951	 0.4632893939	 0.116591
H	 1.8705483443	-2.2778597227	-0.0254969007	 0.105222
H	 0.1465159945	-1.209593	 1.9747042919	 0.093932
H	 1.9456535486	 0.8643902666	 2.441773494	 0.250613
91.3732	180.289	191.5051	238.3211	243.6526	322.5544	362.1498	398.2333	449.168	507.906	520.7966	629.6128	736.2487	765.1647	820.7905	851.7958	903.6722	932.7396	951.9939	982.7377	989.2327	1019.3044	1045.3196	1134.8918	1165.3648	1174.2871	1202.69	1229.2341	1279.1754	1291.4325	1335.4843	1362.2974	1401.7272	1415.1151	1472.8283	1482.1602	1494.1611	1504.6256	1899.6511	3033.9558	3040.8326	3105.0739	3109.9479	3110.9861	3116.7319	3121.2717	3126.3532	3588.0936
CC1(C)OC2C1NC2=O	CC1(C)O[C@@H]2[C@H]1NC2=O	
InChI=1S/C6H9NO2/c1-6(2)4-3(9-6)5(8)7-4/h3-4H,1-2H3,(H,7,8)	InChI=1S/C6H9NO2/c1-6(2)4-3(9-6)5(8)7-4/h3-4H,1-2H3,(H,7,8)/t3-,4-/m1/s1
