20
gdb 6161	3.38263	1.40353	1.28028	2.6287	77.08	-0.239	-0.0098	0.2292	1082.5603	0.174542	-349.029619	-349.020316	-349.019372	-349.063213	34.365	
C	-0.094884041	 1.4699084401	 0.1797083519	-0.482464
C	 0.0577735917	-0.0134494184	-0.1101256141	 0.387297
O	 1.1406776793	-0.4985435405	-0.3737854346	-0.328751
C	-1.1956319589	-0.8177675631	-0.0496245554	-0.155108
C	-1.2529177343	-2.1510626265	-0.7790004704	-0.320733
C	-1.2617528002	-2.1595523634	 0.7140137013	 0.343641
C	-0.0442905986	-2.6676931957	 1.460876419	-0.466145
C	-2.5806483538	-2.4401596727	 1.4112791333	-0.444109
H	 0.87905186	 1.9588031614	 0.1411318727	 0.138865
H	-0.767143583	 1.93058245	-0.5535570873	 0.13841
H	-0.5498211351	 1.6217627674	 1.1652615761	 0.137222
H	-2.1095337932	-0.2332896959	-0.011528801	 0.078907
H	-2.1663637127	-2.3869624204	-1.3149204303	 0.109767
H	-0.3323312946	-2.4321247887	-1.2796300904	 0.134791
H	 0.88115852	-2.40631844	 0.9472912756	 0.156627
H	-0.0049670135	-2.2534504587	 2.4752424659	 0.108965
H	-0.0955186124	-3.7587913181	 1.5537571166	 0.112455
H	-2.7189615219	-3.519138687	 1.547978838	 0.120435
H	-2.6108952211	-1.9751570849	 2.4032464417	 0.117468
H	-3.4322933368	-2.0648595548	 0.8355532016	 0.11246
69.7831	139.5512	152.7351	184.6096	220.3684	250.5998	316.5488	334.7141	369.555	410.7946	421.3247	593.6147	604.5502	694.1679	772.8392	839.3071	923.4505	941.4403	963.6319	973.475	984.7352	1046.988	1062.1034	1079.7623	1096.2604	1124.4445	1148.6183	1194.1654	1289.3966	1336.2763	1375.879	1410.3877	1415.1492	1426.6732	1464.2553	1474.8523	1476.6746	1486.0782	1491.266	1509.6875	1512.1746	1782.4107	3022.6376	3029.0206	3032.9245	3080.0855	3085.5192	3092.7697	3101.0432	3128.6245	3148.5796	3151.7239	3155.4148	3221.4726
CC(=O)C1CC1(C)C	CC(=O)[C@H]1CC1(C)C	
InChI=1S/C7H12O/c1-5(8)6-4-7(6,2)3/h6H,4H2,1-3H3	InChI=1S/C7H12O/c1-5(8)6-4-7(6,2)3/h6H,4H2,1-3H3/t6-/m1/s1
