16
gdb 46136	4.56762	1.03021	0.87834	1.6241	71.56	-0.2565	-0.0052	0.2513	1249.3061	0.126581	-434.074762	-434.066794	-434.06585	-434.107696	29.411	
N	-0.0593847694	 1.3058455742	-0.2583927562	-0.492915
C	-0.0117899979	 0.0765000834	 0.0235293338	 0.375378
C	-1.2721382708	-0.7628325701	 0.1088896765	-0.249621
N	-1.2215174523	-1.8837391444	 1.0508068602	-0.298157
C	 0.0223196572	-2.6319100398	 0.8673865849	-0.132532
C	 1.25861007	-1.7270787729	 1.0117802877	-0.082453
O	 1.1801429769	-0.5940995015	 0.1457059325	-0.252365
C	 0.1067150529	-3.7480633933	 1.8138617132	 0.272024
N	 0.2085679298	-4.6079395805	 2.5780371421	-0.303946
H	 0.8845534047	 1.6933282296	-0.3282509234	 0.225842
H	-2.1099031184	-0.1102080151	 0.3546423072	 0.151218
H	-1.463481776	-1.1727416329	-0.8926064826	 0.142168
H	-1.2704508313	-1.541706695	 2.0070145748	 0.236932
H	 0.0092797848	-3.0468823043	-0.1497360387	 0.143731
H	 1.3426082432	-1.3904012008	 2.0540914324	 0.123333
H	 2.1774076466	-2.2530906267	 0.7414309957	 0.141364
68.5845	148.223	166.8389	183.7814	328.1789	390.0862	422.1742	463.8761	512.823	547.8354	576.0278	698.8618	774.4046	829.281	893.2109	926.8958	968.9554	1009.081	1032.6378	1079.7523	1100.4325	1145.3548	1150.1504	1240.423	1278.4496	1294.9152	1333.385	1348.7798	1367.8648	1423.934	1463.7768	1488.531	1504.1611	1760.8367	2367.5406	3014.9378	3021.1505	3031.1756	3106.5813	3137.6484	3458.181	3502.7629
N=C1CNC(CO1)C#N	[NH][C]1CN[C@@H](CO1)C#N	
InChI=1S/C5H7N3O/c6-1-4-3-9-5(7)2-8-4/h4,7-8H,2-3H2	InChI=1S/C5H7N3O/c6-1-4-3-9-5(7)2-8-4/h4,7-8H,2-3H2/t4-/m1/s1
