16
gdb 5123	3.3786	2.02138	1.2833	0.4295	68.24	-0.1757	0.0517	0.2274	920.701	0.130842	-379.942715	-379.934129	-379.933185	-379.975782	30.763	
C	 0.0026877878	 1.454296269	-0.0190249537	-0.339792
N	 0.0732994329	 0.0092628269	-0.0070422552	-0.001689
C	 0.139964459	-0.7981808892	-1.1053405257	-0.091374
C	 0.1387216024	-2.1158494148	-0.6916008614	-0.305694
C	 0.0570636099	-2.0937284529	 0.723473753	 0.25788
O	 0.0328463424	-3.1449912697	 1.6030314624	-0.45882
C	 0.0132867921	-0.7779385877	 1.1365679288	 0.162852
N	-0.0262640211	-0.1920917307	 2.4204115227	-0.614378
H	 0.6979187293	 1.8556899861	-0.7613451782	 0.12944
H	-1.0072450301	 1.811216432	-0.2554538977	 0.126428
H	 0.2769068931	 1.818469482	 0.9717854873	 0.159088
H	 0.176085597	-0.3769789208	-2.097397989	 0.109826
H	 0.1952202954	-2.9852383055	-1.3299346969	 0.084881
H	 0.145927303	-3.9577835796	 1.10299936	 0.29325
H	 0.6418650483	-0.6402366401	 3.0389042368	 0.246699
H	-0.9389407415	-0.2895234951	 2.8566795967	 0.241402
64.0071	125.6922	158.1452	208.2743	253.5233	274.4246	300.7427	318.5298	529.0161	583.942	609.8804	657.2458	698.0727	749.7572	752.1649	756.2071	823.3531	1023.9809	1071.5336	1108.263	1152.7419	1166.7481	1218.8362	1263.1143	1309.5061	1387.5791	1415.3236	1446.0155	1488.8431	1493.4794	1519.9085	1535.3268	1650.5918	1674.2148	3023.7943	3091.698	3148.8459	3231.9708	3261.0587	3484.8869	3553.252	3848.5636
CN1C=CC(O)=C1N	Cn1ccc(O)c1N	
InChI=1S/C5H8N2O/c1-7-3-2-4(8)5(7)6/h2-3,8H,6H2,1H3	InChI=1S/C5H8N2O/c1-7-3-2-4(8)5(7)6/h2-3,8H,6H2,1H3
