22
gdb 5813	2.41059	1.75904	1.72898	0.	73.74	-0.2567	0.0675	0.3242	976.1461	0.195513	-387.35237	-387.341734	-387.34079	-387.386325	40.467	
C	-0.0265713709	 1.5518852896	 0.0482497667	-0.434002
C	 0.0193656022	 0.015892797	 0.0244421269	 0.371409
C	 0.737202956	-0.4933417804	 1.2843398436	-0.433991
O	-1.3139991235	-0.5107243872	-0.0230083511	-0.478775
C	 0.700966774	-0.5174643921	-1.2792139745	 0.371409
C	 0.7468749979	-2.0534574114	-1.3030384223	-0.434002
C	-0.0168542882	-0.0082033114	-2.5391100624	-0.433991
O	 2.0343411725	 0.0091277663	-1.2317503592	-0.478776
H	 0.9745207667	 1.9727504921	-0.067210395	 0.136692
H	-0.6673248126	 1.9392949574	-0.7464127588	 0.118195
H	-0.4346057425	 1.8971782276	 1.0053000748	 0.095076
H	 0.2890952115	-0.0407122787	 2.176522108	 0.095075
H	 0.6458851393	-1.5772492485	 1.3789168846	 0.118193
H	 1.7962715638	-0.2277300113	 1.2626956077	 0.136688
H	-1.7740083947	-0.2058436094	 0.7654492773	 0.275441
H	-0.254225277	-2.4743049626	-1.1875826162	 0.136693
H	 1.1549020338	-2.3987476265	-2.2600928438	 0.095076
H	 1.3876215115	-2.4408880877	-0.5083807308	 0.118194
H	 0.0744792062	 1.0757043054	-2.6336708465	 0.118194
H	 0.4312543194	-0.4608264824	-3.4312951217	 0.095075
H	-1.0759267112	-0.2738005872	-2.5174774982	 0.136687
H	 2.4943528358	-0.2957615187	-2.020203319	 0.275441
79.5786	183.5357	218.7405	224.8026	226.7565	239.7686	249.0118	279.0205	299.0648	337.3372	352.9756	376.8244	391.7508	439.6189	505.4139	510.5017	512.2979	669.6185	822.6731	898.7087	919.7584	923.2756	962.8066	978.116	999.8883	1018.5449	1103.9724	1160.1406	1163.9693	1199.4173	1230.3971	1244.2968	1330.3031	1388.0752	1389.9215	1395.4696	1405.6324	1414.7218	1473.4916	1480.9994	1491.1941	1495.7521	1496.2409	1502.6502	1510.4276	1527.9996	3033.7512	3035.3448	3039.5593	3043.1817	3102.4622	3108.8161	3109.7892	3114.0617	3138.5958	3142.1082	3143.9601	3145.7314	3818.0424	3819.6392
CC(C)(O)C(C)(C)O	CC(C)(O)C(C)(C)O	
InChI=1S/C6H14O2/c1-5(2,7)6(3,4)8/h7-8H,1-4H3	InChI=1S/C6H14O2/c1-5(2,7)6(3,4)8/h7-8H,1-4H3
