21
gdb 59271	2.68386	1.28122	1.17219	2.724	77.94	-0.244	0.0711	0.3151	1180.6478	0.183084	-424.214335	-424.205409	-424.204465	-424.248218	33.929	
C	 0.0207476617	 1.5190227409	-0.1087605266	-0.400944
C	 0.0637020274	 0.0140637571	 0.1631302173	 0.110866
O	 0.6411893098	-0.2629423628	 1.4418044282	-0.436367
C	-1.3150664753	-0.614334232	 0.0468407229	-0.036384
C	-1.8989389982	-1.2167022281	-1.2143761872	-0.090601
C	-0.9528676779	-1.6340535028	-2.3259962595	-0.095988
O	 0.0935875245	-2.3773305664	-1.7074619967	-0.2534
C	-0.3998374654	-2.9732751635	-0.5060539708	-0.095983
C	-1.5517239205	-2.1023281111	-0.038170443	-0.091246
H	 1.0171315257	 1.9540202944	 0.0064464075	 0.122558
H	-0.3378701677	 1.7265530879	-1.1223774647	 0.11651
H	-0.6558906478	 2.0237824569	 0.5930606668	 0.100197
H	 0.7439386591	-0.4625466626	-0.5456609694	 0.1148
H	 0.0573131473	 0.1083438792	 2.1127663491	 0.271171
H	-2.0594318212	-0.0925409934	 0.6497021812	 0.072707
H	-2.9259581651	-0.9936988746	-1.4803682094	 0.08809
H	-1.4995365653	-2.2488467297	-3.0595253109	 0.093711
H	-0.4830654851	-0.8037155968	-2.8653808811	 0.107334
H	-0.7578898178	-3.9979553856	-0.693074641	 0.090382
H	 0.4368745188	-3.0181890687	 0.1979816574	 0.125257
H	-2.3154559871	-2.5569760785	 0.5821746701	 0.087329
47.2589	129.8414	168.7279	230.3426	241.0133	277.5252	287.2147	362.7571	414.8204	504.962	526.0435	716.3246	728.264	775.9088	807.7783	882.6232	915.3364	918.5482	966.3997	981.8118	992.3427	1022.9966	1059.519	1089.4404	1094.115	1101.2008	1125.595	1129.3173	1133.0844	1215.5745	1226.0494	1246.185	1287.1222	1326.3062	1333.1774	1358.8125	1363.3352	1399.3095	1405.2111	1440.4534	1454.258	1490.0261	1494.7521	1513.3567	1524.6897	2970.7508	2980.6222	3020.4407	3055.2896	3078.2128	3082.3254	3092.1328	3111.0136	3118.4483	3170.6026	3180.8753	3794.3301
CC(O)C1C2COCC12	C[C@@H](O)[C@H]1[C@H]2COC[C@@H]12	
InChI=1S/C7H12O2/c1-4(8)7-5-2-9-3-6(5)7/h4-8H,2-3H2,1H3	InChI=1S/C7H12O2/c1-4(8)7-5-2-9-3-6(5)7/h4-8H,2-3H2,1H3/t4-,5-,6+,7-/m1/s1
