19
gdb 63691	3.65347	0.84752	0.80662	2.6234	73.56	-0.2573	0.0039	0.2612	1458.4154	0.156353	-460.166668	-460.156799	-460.155855	-460.202443	35.394	
C	 1.1487381612	 1.0224102601	-0.2295061779	-0.467039
C	 0.1300252342	 0.0037392704	 0.228508782	 0.410016
O	-1.0461299515	-0.0131216995	-0.5454662892	-0.465697
C	 0.5642186569	-1.3191635119	 0.8240626172	-0.361653
C	-0.1493197494	-0.2839653788	 1.6751667064	-0.052527
C	 0.5047401209	 0.4119370109	 2.8498514394	-0.1336
O	 1.9359022379	 0.4346506061	 2.7571505461	-0.172554
C	 2.6478466545	-0.2896257269	 3.6424196508	 0.177221
O	 3.8392561291	-0.3518779171	 3.6144828077	-0.273895
H	 2.0249033529	 1.0400283795	 0.4199232679	 0.151284
H	 1.4849601997	 0.7888227925	-1.2474465241	 0.107748
H	 0.70344697	 2.0226882796	-0.2474861905	 0.122961
H	-0.8042762746	-0.2867905585	-1.4376176621	 0.280245
H	 0.0063751431	-2.2053348155	 0.5436246632	 0.115047
H	 1.6248580723	-1.4709046436	 0.9931741557	 0.129131
H	-1.1985052721	-0.4936665696	 1.8652784681	 0.107209
H	 0.1819308155	 1.4560038381	 2.9197177754	 0.130062
H	 0.2124976702	-0.0909338684	 3.7814298231	 0.11523
H	 2.0080718491	-0.8027564074	 4.3867688409	 0.08081
35.8295	56.5583	136.4465	187.4424	194.4949	249.0942	283.0624	314.3104	356.6366	390.6928	412.0915	483.9315	568.9183	669.4468	701.1038	782.6421	907.4677	921.4885	926.8224	987.8881	1028.7293	1039.4831	1044.6156	1070.6004	1094.4913	1123.358	1146.6283	1179.3369	1232.3163	1293.1939	1320.3124	1357.2063	1396.3168	1413.042	1422.5743	1430.9043	1484.2972	1495.5531	1502.0261	1516.5852	1866.6868	2947.9341	3015.6461	3027.5029	3072.5532	3087.1261	3136.2772	3148.4546	3151.4928	3229.3751	3789.9714
CC1(O)CC1COC=O	C[C@@]1(O)C[C@H]1COC=O	
InChI=1S/C6H10O3/c1-6(8)2-5(6)3-9-4-7/h4-5,8H,2-3H2,1H3	InChI=1S/C6H10O3/c1-6(8)2-5(6)3-9-4-7/h4-5,8H,2-3H2,1H3/t5-,6+/m0/s1
