14
gdb 125502	2.63481	1.46727	0.94798	3.9703	67.39	-0.2605	-0.0464	0.2141	1159.9612	0.101126	-470.057119	-470.049067	-470.048123	-470.089985	28.764	
C	-0.0308840682	 1.4405174199	 0.0266391717	-0.480573
C	 0.0165455305	-0.0467725583	 0.0092667317	 0.371214
N	-0.0448527704	-0.7439947336	-1.100309769	-0.273024
N	 0.0322113945	-2.0469759178	-0.6445605385	-0.097586
C	 0.0060150808	-3.1759747713	-1.4764820039	 0.180608
O	-0.0857867953	-3.1353932992	-2.6685349393	-0.256099
C	 0.1347942035	-2.0129046206	 0.7220422074	 0.481979
O	 0.2248299216	-3.1413274759	 1.4229564211	-0.412654
N	 0.1292952715	-0.794152299	 1.1737209951	-0.409249
H	 0.8734998736	 1.846157362	 0.4909189929	 0.145599
H	-0.1174427255	 1.8238329236	-0.9906642237	 0.15197
H	-0.8833236802	 1.7886874394	 0.6184297617	 0.145627
H	 0.0815259737	-4.0983145173	-0.876754007	 0.123568
H	 0.2874313399	-2.8923467419	 2.3551086397	 0.32862
112.3258	137.9763	184.6639	206.2376	229.8487	294.1808	399.045	419.549	451.1502	585.6926	641.3832	691.4849	715.6578	746.6475	898.3885	995.7124	1028.4361	1044.3276	1068.7318	1145.3564	1210.4654	1324.919	1348.9444	1414.8697	1444.4997	1474.7828	1475.1315	1506.3785	1601.375	1638.8858	1846.9686	3009.1985	3048.4833	3105.3449	3153.8914	3788.3786
CC1=NN(C=O)C(O)=N1	Cc1nn(C=O)c(O)n1	
InChI=1S/C4H5N3O2/c1-3-5-4(9)7(2-8)6-3/h2H,1H3,(H,5,6,9)	InChI=1S/C4H5N3O2/c1-3-5-4(9)7(2-8)6-3/h2H,1H3,(H,5,6,9)
