22
gdb 111143	2.77567	1.34095	1.08263	1.9669	84.18	-0.2016	0.0736	0.2752	1217.0548	0.192436	-404.26054	-404.251082	-404.250138	-404.294681	36.628	
C	-0.5324220898	 0.8390846059	-0.2227261006	-0.376848
C	-0.5266263054	-0.6554976179	 0.0916439283	-0.13748
N	 0.354237196	-0.9463663449	 1.2222970017	-0.093614
C	 1.8341959455	-0.6106223221	 1.3299629413	-0.119781
C	 1.8217797201	-1.5682949819	 2.5549789066	-0.207312
C	 1.04655785	-2.2722807119	 1.4002546789	-0.095235
C	 2.223394148	-1.8583248411	 0.4441416814	 0.464359
C	 2.1350939183	-1.7940959802	-1.0770541452	-0.488099
O	 3.4161819134	-2.5554579271	 0.7773219922	-0.473313
H	 0.4261008884	 1.1659603826	-0.6407291184	 0.112614
H	-1.3135657533	 1.0791330262	-0.9499721211	 0.11349
H	-0.7164159191	 1.4171599364	 0.6878972901	 0.12672
H	-1.5321095776	-0.9526837904	 0.4188734112	 0.098499
H	-0.3374913073	-1.2291138539	-0.8260203131	 0.081825
H	 2.2013670683	 0.4167721665	 1.2784075875	 0.070727
H	 2.7694040792	-1.9998378398	 2.862134849	 0.11593
H	 1.1861653029	-1.2362394738	 3.374053267	 0.096264
H	 0.4986721172	-3.2169313338	 1.4272832104	 0.074874
H	 1.3892675631	-1.102737787	-1.4591712111	 0.133545
H	 3.1033107402	-1.4535336582	-1.4689260038	 0.100806
H	 1.9475227891	-2.7875031294	-1.4968654123	 0.128252
H	 4.1231818227	-2.2308601742	 0.2105570702	 0.273777
51.4995	115.0033	153.9115	224.8923	247.7232	261.7987	324.6378	351.226	403.2814	423.6425	465.6597	549.4758	636.6196	663.1545	713.2075	784.8494	804.8102	809.0763	889.055	902.8959	942.0008	973.1697	1023.8078	1028.1252	1072.9824	1085.3601	1100.9838	1137.6066	1148.8665	1157.2144	1170.6773	1178.1426	1204.5325	1221.4301	1241.6197	1271.0029	1301.0719	1369.1179	1379.101	1406.4753	1415.9134	1475.1161	1487.7941	1489.4166	1496.1107	1503.583	1548.6606	3001.1916	3017.7785	3019.0893	3034.767	3086.6651	3087.1177	3090.4623	3100.8799	3114.54	3115.6709	3183.1978	3202.2119	3809.8134
CCN1C2CC1C2(C)O	CCN1[C@H]2C[C@@H]1[C@]2(C)O	
InChI=1S/C7H13NO/c1-3-8-5-4-6(8)7(5,2)9/h5-6,9H,3-4H2,1-2H3	InChI=1S/C7H13NO/c1-3-8-5-4-6(8)7(5,2)9/h5-6,9H,3-4H2,1-2H3/t5-,6+,7+
