17
gdb 27289	3.26927	1.53677	1.07332	3.265	75.07	-0.1883	0.0361	0.2244	1084.0602	0.139999	-418.058732	-418.051499	-418.050555	-418.090357	28.207	
O	 0.1305179477	 1.3760201167	 0.0109689916	-0.439469
C	 0.1157979275	 0.022751292	-0.0540450172	 0.193115
C	 0.0693201892	-0.757446422	-1.181607737	 0.247222
C	-0.016670034	-0.7624224732	-2.6747513882	-0.358516
C	 0.3545336483	-2.2387256267	-3.0089246939	-0.209924
C	-0.02402313	-3.0587126924	-1.7488533228	-0.181083
N	 0.0810835799	-2.0558144927	-0.6988937156	-0.005123
C	 0.1260372545	-2.0047612932	 0.6503214933	-0.030556
N	 0.1555654163	-0.7475437551	 1.0733993616	-0.360939
H	 0.1793107802	 1.5940500084	 0.9496282877	 0.296657
H	-1.028052081	-0.5220035831	-3.0286990552	 0.116677
H	 0.6648668978	-0.0547154822	-3.1544089319	 0.124575
H	-0.1452539583	-2.6129245415	-3.9049028308	 0.110422
H	 1.4334049843	-2.3131457638	-3.1726315432	 0.1216
H	-1.0487159499	-3.4458873571	-1.8067698103	 0.122953
H	 0.6496011398	-3.9003602656	-1.5681634279	 0.125468
H	 0.1474629976	-2.8808665085	 1.2795141899	 0.126919
128.5272	175.1299	231.7375	277.7444	355.328	371.7178	521.6849	576.8231	625.8641	646.8619	709.5817	727.0038	767.037	820.3152	866.8366	897.0495	918.1819	1000.7654	1067.0405	1095.1633	1116.045	1180.1815	1223.0247	1229.7679	1242.8751	1275.5593	1309.7126	1329.9604	1347.8025	1383.7215	1395.9218	1461.2522	1489.7599	1500.8006	1509.353	1528.9557	1689.9505	3013.7698	3028.5445	3062.2288	3083.6013	3092.3017	3118.0357	3257.0236	3801.8774
OC1=C2CCCN2C=N1	Oc1c2CCCn2cn1	
InChI=1S/C6H8N2O/c9-6-5-2-1-3-8(5)4-7-6/h4,9H,1-3H2	InChI=1S/C6H8N2O/c9-6-5-2-1-3-8(5)4-7-6/h4,9H,1-3H2
