20
gdb 61647	3.2524	0.84875	0.78902	4.2401	77.22	-0.237	0.0357	0.2727	1507.6967	0.169707	-440.285748	-440.275788	-440.274843	-440.321774	35.505	
C	-0.4704267581	 1.2640746622	-0.22382307	-0.346132
N	 0.062619918	-0.050469347	 0.0832498819	-0.016998
C	 0.1178316413	-0.4801565303	 1.4704826321	-0.219372
C	-1.2439508483	-0.6656229639	 2.1169939335	-0.020595
C	-2.112470007	-1.8415650242	 1.7146241912	-0.321596
C	-1.4637054139	-1.8056828771	 3.0736352654	 0.094477
O	-0.3642761364	-2.6308026092	 3.3344951111	-0.415784
C	 0.4960114943	-0.8561597215	-0.9273239863	 0.153166
O	 0.4744530428	-0.585578336	-2.1104590231	-0.347724
H	 0.0687224783	 2.037721015	 0.3365434593	 0.120559
H	-0.3450189265	 1.4323159978	-1.2934840769	 0.167496
H	-1.5353570963	 1.3334163325	 0.027036469	 0.126142
H	 0.6634564104	-1.4255755981	 1.5142209712	 0.133291
H	 0.6974026104	 0.25134896	 2.0505364176	 0.108912
H	-1.7664327057	 0.2536578693	 2.3641814405	 0.093914
H	-3.184955244	-1.7036771756	 1.6338449039	 0.116457
H	-1.688143627	-2.5329483448	 0.9930004637	 0.120601
H	-2.09895324	-1.6138511235	 3.9379863849	 0.092125
H	-0.6787170316	-3.5393820261	 3.3825641627	 0.292587
H	 0.8896444394	-1.8165392894	-0.5392304517	 0.068474
39.9572	58.7725	103.7281	142.6665	208.4016	239.178	304.0249	323.9993	342.3323	377.9195	413.2043	480.312	530.1466	722.8444	772.7938	833.8889	881.3024	895.5075	910.8113	988.715	1027.9985	1045.8434	1062.4394	1088.8211	1133.4033	1143.4361	1159.4172	1177.1714	1237.8831	1257.3033	1278.7675	1303.8685	1366.9385	1402.9246	1423.9938	1432.8564	1439.6757	1443.4513	1480.7268	1493.8885	1497.9033	1520.6419	1793.2903	2933.639	3009.9768	3020.0504	3069.8303	3101.917	3106.1675	3129.8095	3152.2534	3155.2778	3218.4892	3812.0042
CN(CC1CC1O)C=O	CN(C[C@H]1C[C@H]1O)C=O	
InChI=1S/C6H11NO2/c1-7(4-8)3-5-2-6(5)9/h4-6,9H,2-3H2,1H3	InChI=1S/C6H11NO2/c1-7(4-8)3-5-2-6(5)9/h4-6,9H,2-3H2,1H3/t5-,6-/m1/s1
