12
gdb 129746	3.44706	1.14835	0.88841	4.3202	60.42	-0.2413	-0.0396	0.2017	1186.1824	0.075743	-505.92964	-505.921579	-505.920635	-505.963128	28.236	
N	-0.1510169012	 1.3100426811	 0.3034089645	-0.590552
C	-0.0671221495	-0.0243406675	 0.0675282609	 0.396109
C	-1.0384076903	-0.9511960458	-0.2481852511	 0.223218
O	-2.3524931854	-0.7040354265	-0.5241436681	-0.230759
C	-3.2888462195	-1.3373605273	 0.2600737831	 0.162548
O	-4.4519877992	-1.2004165712	 0.0664937268	-0.243846
N	-0.4376308648	-2.1622979397	-0.3293423789	-0.137948
N	 0.7890302642	-2.0978617201	-0.0888705275	-0.039415
O	 1.0853846313	-0.6495272134	 0.1776188819	-0.223213
H	 0.7052621059	 1.8365061219	 0.224501001	 0.283024
H	-0.9726734376	 1.7694039377	-0.0587199521	 0.284874
H	-2.8198280839	-1.9572227393	 1.0422864593	 0.11596
48.8124	131.221	146.4155	249.4588	272.1394	354.6876	412.0824	430.527	483.0731	502.8185	587.6472	667.188	714.0177	745.0597	875.6575	975.7456	1035.9503	1079.6373	1092.6659	1258.3547	1338.8691	1406.3243	1457.4398	1492.0189	1621.9974	1684.1377	1888.3444	3010.9357	3586.2385	3697.7701
NC1=C(OC=O)N=NO1	Nc1c(OC=O)nno1	
InChI=1S/C3H3N3O3/c4-2-3(8-1-7)5-6-9-2/h1H,4H2	InChI=1S/C3H3N3O3/c4-2-3(8-1-7)5-6-9-2/h1H,4H2
