14
gdb 44654	2.59823	1.83459	1.23038	5.7609	68.09	-0.2526	-0.0685	0.1841	960.8464	0.102476	-436.732117	-436.72521	-436.724266	-436.763709	26.383	
O	-0.0993944082	 0.020651021	 0.1121240134	-0.329863
C	-0.0554550996	 1.2125105523	 0.0243237309	 0.418915
N	-1.0251332504	 2.18578467	-0.1062370933	-0.331366
C	-0.0863384299	 3.3223197361	-0.0012153854	-0.027848
C	-0.0092444083	 3.9803634748	 1.358722035	-0.072632
C	 1.0276502361	 3.5406731892	 2.0802442552	-0.166149
C	 1.8073290281	 2.5120873141	 1.3326115113	 0.388755
O	 2.8151982941	 1.9594739403	 1.6948762622	-0.313504
C	 1.0744462972	 2.2976556015	 0.005241597	-0.310045
H	-2.0103772339	 2.1338910168	 0.1135159656	 0.254969
H	-0.1571908286	 4.0262545826	-0.8341601057	 0.105557
H	-0.7435501081	 4.7074960533	 1.689478916	 0.124555
H	 1.2949373113	 3.8380465114	 3.0867263608	 0.12896
H	 1.7437081202	 2.2393275368	-0.8516598128	 0.129698
98.472	138.6106	254.9802	373.2262	417.848	464.4548	478.141	595.5568	637.1786	709.8454	724.7609	811.9319	824.0313	863.5919	922.3289	953.497	986.8359	1007.2072	1015.7039	1100.5522	1131.7173	1157.2484	1176.9779	1218.1978	1262.0344	1327.3921	1357.0212	1366.5684	1647.9976	1821.5642	1908.261	3080.1987	3141.5924	3188.6573	3223.9076	3593.6601
O=C1NC2C=CC(=O)C12	O=C1N[C@H]2C=CC(=O)[C@@H]12	
InChI=1S/C6H5NO2/c8-4-2-1-3-5(4)6(9)7-3/h1-3,5H,(H,7,9)	InChI=1S/C6H5NO2/c8-4-2-1-3-5(4)6(9)7-3/h1-3,5H,(H,7,9)/t3-,5-/m0/s1
