18
gdb 42914	2.85291	1.51208	1.16912	3.5168	76.43	-0.2299	0.0147	0.2446	1085.6527	0.148171	-401.919753	-401.911889	-401.910945	-401.953161	30.057	
O	-0.1790516698	 0.2056566162	-1.0629902878	-0.371555
C	-0.14979831	 1.3240093598	-0.6237791463	 0.415754
C	-1.135979673	 2.2605176325	 0.0768789321	-0.218781
C	-0.5389205474	 2.661382609	 1.4264765035	-0.290149
C	 0.0118725999	 3.2421434013	 0.1599660078	-0.003677
N	 0.8694403386	 2.2781670498	-0.5398071758	-0.099157
C	 2.2913184756	 2.1588723722	-0.5031007437	 0.024644
C	 3.017761849	 1.6144060655	 0.7129207011	-0.276416
C	 2.922160564	 0.7953161732	-0.5495172053	-0.273246
H	-2.169252705	 2.4324815474	-0.1855585883	 0.119105
H	-1.1710114696	 3.3112619638	 2.0262070904	 0.125144
H	 0.0446910773	 1.9466384096	 1.9978772033	 0.127247
H	 0.0206792433	 4.2914418676	-0.1037413473	 0.115758
H	 2.7960308642	 2.9506977982	-1.0506959508	 0.097601
H	 3.9691099045	 2.0640976943	 0.9756413592	 0.115257
H	 2.418624304	 1.3023578751	 1.5602255242	 0.117734
H	 2.2504322654	-0.0534147367	-0.5594070279	 0.157248
H	 3.809126649	 0.6799087013	-1.1618553284	 0.117488
28.9793	116.4824	182.7913	217.3694	342.0345	392.2991	447.4536	530.8039	667.5753	696.9729	755.9516	783.8092	813.4035	830.7657	849.478	895.6376	921.2393	946.5402	955.7863	1006.8302	1041.6212	1050.8765	1065.7505	1076.5611	1084.8716	1114.0316	1138.8733	1143.2431	1193.804	1197.5256	1220.7443	1258.25	1296.6412	1396.33	1404.9747	1466.6112	1480.4952	1502.0548	1868.5999	3118.9451	3130.3196	3138.9628	3150.9877	3202.2132	3208.4121	3224.4148	3234.4697	3246.9029
O=C1C2CC2N1C1CC1	O=C1[C@H]2C[C@H]2N1C1CC1	
InChI=1S/C7H9NO/c9-7-5-3-6(5)8(7)4-1-2-4/h4-6H,1-3H2	InChI=1S/C7H9NO/c9-7-5-3-6(5)8(7)4-1-2-4/h4-6H,1-3H2/t5-,6+/m0/s1
