17
gdb 53588	4.81997	0.66058	0.613	4.9146	83.16	-0.2527	0.0124	0.2651	1795.8282	0.134683	-380.832451	-380.822634	-380.82169	-380.869993	33.399	
C	-0.068268558	 1.450756384	-0.2220479774	-0.497189
C	-0.0231026295	 0.0107162774	-0.0121121632	 0.101971
C	 0.029813773	-1.180042676	 0.1557593266	 0.034507
C	 0.0619189379	-2.6241752362	 0.363659482	-0.366103
C	-1.3243117262	-3.2402875822	 0.2745887978	 0.00319
N	-1.7815169148	-3.6529164573	-1.0469742865	-0.301284
C	-1.5346569519	-4.6931802902	-0.0265754368	-0.205291
C	-0.4277954899	-5.5883827608	-0.2655381146	 0.332413
N	 0.4582469584	-6.3144485112	-0.4222696253	-0.334895
H	 0.927687995	 1.8961944879	-0.1227722375	 0.151414
H	-0.442081776	 1.6959812683	-1.2221911163	 0.149913
H	-0.7232933103	 1.9408942722	 0.5067115595	 0.146449
H	 0.7080277234	-3.1056374268	-0.378823103	 0.155838
H	 0.488755201	-2.8548401569	 1.3486876219	 0.13745
H	-2.0565489934	-2.8035385623	 0.9511318178	 0.109768
H	-2.7820133322	-3.5144883607	-1.1602931582	 0.24838
H	-2.3875170464	-5.1747051193	 0.4443549032	 0.13347
12.5606	43.4161	68.951	125.1805	208.387	220.4609	272.1784	341.1872	381.3615	387.9131	492.0767	570.9588	605.0322	773.8329	802.844	839.5723	889.03	931.1953	994.0503	1011.9795	1052.5848	1054.0566	1108.2695	1169.0982	1182.5739	1210.3429	1245.2985	1272.3905	1329.7167	1400.0919	1415.2698	1456.5598	1460.6648	1478.1515	1479.1907	2359.2582	2376.8301	3024.6647	3027.8492	3071.0887	3088.1407	3089.587	3130.4659	3149.1901	3515.2917
CC#CCC1NC1C#N	CC#CC[C@H]1N[C@H]1C#N	
InChI=1S/C7H8N2/c1-2-3-4-6-7(5-8)9-6/h6-7,9H,4H2,1H3	InChI=1S/C7H8N2/c1-2-3-4-6-7(5-8)9-6/h6-7,9H,4H2,1H3/t6-,7+/m1/s1
