19
gdb 65396	3.28272	1.0059	0.90197	3.1851	77.76	-0.2494	-0.0314	0.218	1334.8219	0.158047	-419.159306	-419.150148	-419.149204	-419.193516	33.74	
C	-0.0635991324	 1.7179858194	 0.4240118395	-0.447378
C	-0.0296605134	 0.2654960659	-0.014091265	 0.283797
N	 0.8651229326	-0.0451698099	-1.1177885496	-0.36816
C	 1.1856739342	-0.6040859471	 0.2163581606	-0.16221
C	 2.4329740438	-0.1013558388	 0.8551557875	 0.167776
O	 3.0039162715	-0.6806676789	 1.7452930341	-0.258195
C	-1.376894263	-0.4084803673	 0.0985288682	-0.042119
C	-2.3030224831	-0.444004328	-1.0640386584	-0.244272
N	-1.6989698305	-1.6841859364	-0.5421814712	-0.321668
H	 0.9015170809	 2.2028665562	 0.2718492984	 0.133677
H	-0.8124968939	 2.2644642244	-0.158623335	 0.129211
H	-0.3337870868	 1.7986871997	 1.4819002211	 0.1301
H	 0.5015465805	-0.7738211614	-1.728693357	 0.226776
H	 0.9831753777	-1.6542209668	 0.4138739238	 0.11173
H	 2.8102771297	 0.8578876878	 0.4396374083	 0.08609
H	-1.8121254986	-0.3117230241	 1.091505158	 0.106209
H	-3.3756188903	-0.3581378187	-0.9187058941	 0.127888
H	-1.9374328427	-0.0459906049	-2.007547197	 0.119366
H	-0.9473386563	-1.9978905611	-1.1532907121	 0.221381
76.5567	99.4983	124.1843	191.7068	231.0889	257.5343	287.9344	354.7285	412.2514	465.9738	533.39	559.9189	660.8546	794.278	825.1007	875.9094	929.4648	951.5433	959.5001	990.9128	997.3727	1034.4529	1074.7855	1079.7329	1098.0111	1126.252	1156.1549	1172.581	1214.4114	1240.5206	1272.6761	1296.7963	1311.8529	1385.288	1416.1916	1416.7967	1445.6904	1487.2803	1502.2518	1513.0166	1819.6211	2902.3595	3042.1902	3104.104	3109.5585	3124.444	3142.1209	3146.4134	3197.3705	3473.5189	3488.378
CC1(NC1C=O)C1CN1	C[C@]1(N[C@H]1C=O)[C@H]1CN1	
InChI=1S/C6H10N2O/c1-6(4-2-7-4)5(3-9)8-6/h3-5,7-8H,2H2,1H3	InChI=1S/C6H10N2O/c1-6(4-2-7-4)5(3-9)8-6/h3-5,7-8H,2H2,1H3/t4-,5+,6+/m1/s1
