19
gdb 117793	2.56764	1.04282	0.87636	5.0254	72.81	-0.2598	0.0259	0.2857	1392.7608	0.157981	-456.337165	-456.326904	-456.32596	-456.372538	36.702	
C	 0.0022074193	 1.3951923507	 0.3438766775	-0.31908
N	-0.0657367635	-0.0361589967	 0.0617323488	-0.308981
C	-1.4061897462	-0.5288021274	-0.2343902174	-0.188072
C	-1.3896418768	-2.0695853308	-0.1313769935	 0.163799
O	-0.7984915949	-2.4483887768	 1.0952990818	-0.454029
C	-2.800688065	-2.6785984376	-0.1408595824	-0.071562
O	-2.7609076723	-4.0723595745	 0.0278894247	-0.414672
C	-0.5884515811	-2.6093241156	-1.2640397266	 0.274824
N	 0.0659015658	-2.9654108652	-2.1477328968	-0.345194
H	 1.0421371474	 1.6778537536	 0.5273890087	 0.132911
H	-0.3901220455	 2.0282104984	-0.4682368481	 0.110921
H	-0.5715335628	 1.6158335459	 1.2499401373	 0.132136
H	 0.5527761753	-0.2628575343	-0.7118072977	 0.243761
H	-2.0838240292	-0.1546072562	 0.5409820511	 0.11892
H	-1.8006461522	-0.2119069037	-1.2127125782	 0.110634
H	-0.1062169111	-1.7814429062	 1.2498385372	 0.29143
H	-3.3708436658	-2.1800240696	 0.6585827071	 0.098492
H	-3.2934643317	-2.4799129397	-1.0972484108	 0.122567
H	-2.2303531695	-4.2407361941	 0.8161634974	 0.301194
74.2065	104.4475	123.2525	142.8181	176.7824	203.0209	248.0578	285.6558	347.538	387.6433	405.7582	452.7944	465.4469	589.4716	595.0067	702.4823	734.4241	827.9317	902.1852	963.003	987.662	1051.3823	1086.5786	1112.5248	1131.2483	1160.6404	1175.2783	1210.4472	1253.4232	1308.3703	1354.1886	1387.4094	1419.5733	1434.91	1461.0232	1484.8683	1491.867	1493.4906	1505.6951	1519.5212	2348.3068	2977.1336	2982.3985	2986.327	3070.0862	3071.1293	3091.3347	3116.1043	3511.1647	3635.7947	3793.8476
CNCC(O)(CO)C#N	CNC[C@@](O)(CO)C#N	
InChI=1S/C5H10N2O2/c1-7-3-5(9,2-6)4-8/h7-9H,3-4H2,1H3	InChI=1S/C5H10N2O2/c1-7-3-5(9,2-6)4-8/h7-9H,3-4H2,1H3/t5-/m1/s1
