22
gdb 65081	3.05336	1.3251	1.18326	1.9668	85.51	-0.2248	0.0752	0.3001	1162.0932	0.194976	-367.123481	-367.115081	-367.114137	-367.156583	33.492	
C	-0.0269446018	 1.4574716302	 0.3621620621	-0.475957
C	 0.0055782988	-0.0214852645	 0.0228866747	 0.196796
C	 1.0405927938	-0.5057248844	-0.9676462143	-0.303585
C	 1.1864691336	-0.8385076693	 0.4970925897	-0.303593
C	-1.3392969844	-0.6845470888	 0.0060962591	 0.30443
C	-2.383838304	-0.8169078195	 1.1480424758	-0.21175
N	-3.0977126142	-1.5308256263	-0.0111385499	-0.147462
C	-2.5833622515	-0.3613059857	-0.8659405753	-0.211715
C	-1.7210361218	-2.1574025817	-0.2892691762	-0.222505
H	 0.9807996243	 1.8840623347	 0.3585760452	 0.113904
H	-0.6286482657	 2.0186630955	-0.362008427	 0.118434
H	-0.4573388915	 1.6283869352	 1.3556167565	 0.118444
H	 0.7687493034	-1.3077981626	-1.6455056407	 0.109557
H	 1.7130737745	 0.229656682	-1.3967392626	 0.10988
H	 1.9582503453	-0.3296488053	 1.0650322371	 0.10988
H	 1.012702859	-1.8643228447	 0.8040437029	 0.109566
H	-2.1478849405	-1.4772351331	 1.9876759935	 0.09708
H	-2.9006293199	 0.0860756366	 1.4855646297	 0.097437
H	-3.11547733	 0.5766695651	-0.6831008541	 0.097436
H	-2.5364512014	-0.5899330872	-1.9346859335	 0.097079
H	-1.6124503033	-2.5260161645	-1.3135524422	 0.098322
H	-1.4387181127	-2.922593742	 0.4398342194	 0.098322
49.4365	169.0781	173.691	220.2779	287.6068	321.4364	397.7612	462.0023	510.5844	593.7068	596.7458	781.2895	795.6925	801.7763	806.0488	867.0488	898.3567	923.6375	934.3361	955.2832	970.648	987.3991	1001.9557	1026.2473	1041.1356	1066.9833	1079.6262	1118.9196	1152.1368	1152.4161	1168.0579	1170.3216	1187.2514	1191.8186	1198.6122	1199.0699	1292.2222	1323.1205	1398.2315	1415.0204	1465.5687	1490.3844	1498.1052	1506.2959	1508.8746	1511.0031	1563.3417	3024.0386	3039.081	3041.5164	3051.4795	3084.8409	3100.0111	3104.397	3110.7063	3112.892	3127.7831	3131.7894	3205.5748	3219.9453
CC1(CC1)C12CN(C1)C2	CC1(CC1)[C@@]12CN(C1)C2	
InChI=1S/C8H13N/c1-7(2-3-7)8-4-9(5-8)6-8/h2-6H2,1H3	InChI=1S/C8H13N/c1-7(2-3-7)8-4-9(5-8)6-8/h2-6H2,1H3
