20
gdb 91670	3.20996	1.23764	1.10144	4.3863	83.2	-0.2947	0.0353	0.33	1176.7736	0.17346	-366.026533	-366.018657	-366.017713	-366.058691	31.306	
C	-0.1025652307	 1.5325318554	 0.0203450011	-0.420828
C	 0.0646932193	 0.0143374181	 0.0322965092	 0.035144
C	 1.0070401883	-0.566777192	-1.0823198084	-0.247862
C	 1.986479893	-1.3652078959	-0.2023281905	-0.013991
C	 1.0326166949	-2.0450528289	 0.8213752826	-0.250702
C	 0.7818874647	-0.5770748522	 1.2680925162	-0.018923
C	 2.2940137495	-0.3160992692	 0.9249447045	-0.146938
C	 3.239430735	-0.7520682099	 1.9376361216	 0.261151
N	 4.0015980389	-1.0835314643	 2.742265438	-0.337286
H	 0.8566223505	 2.0555709239	 0.0988399242	 0.11775
H	-0.5774817547	 1.862833557	-0.90940193	 0.120545
H	-0.7319730762	 1.8663662084	 0.85211234	 0.11914
H	-0.929112713	-0.4410766397	-0.0414151127	 0.078124
H	 0.4788047432	-1.2096840014	-1.7913978331	 0.104964
H	 1.507791976	 0.2217390266	-1.6530985985	 0.102288
H	 2.7948950834	-1.9056575479	-0.6930341989	 0.082114
H	 0.1807141005	-2.6057999463	 0.4274944649	 0.096166
H	 1.5629635112	-2.6353302298	 1.5700716344	 0.129749
H	 0.3847411963	-0.3280389889	 2.2518974052	 0.079565
H	 2.56619317	 0.6905037068	 0.5963856101	 0.109828
130.6281	156.8267	207.1713	222.0174	287.643	391.1432	447.7758	475.5562	523.6179	542.6972	630.7095	795.2258	834.0575	847.4846	873.1563	892.0791	920.7994	945.1192	955.755	994.0086	1033.1911	1050.2084	1050.4798	1066.5233	1087.5636	1130.6756	1146.8874	1191.1869	1208.6427	1237.465	1238.1479	1270.4522	1278.2913	1308.1068	1316.152	1355.2467	1379.8426	1417.2328	1494.632	1498.6965	1500.5459	1514.6544	2349.9566	3030.9345	3036.6533	3052.0553	3065.5	3074.6288	3096.125	3099.187	3102.139	3122.312	3127.458	3134.9356
CC1CC2CC1C2C#N	C[C@H]1C[C@@H]2C[C@H]1[C@H]2C#N	
InChI=1S/C8H11N/c1-5-2-6-3-7(5)8(6)4-9/h5-8H,2-3H2,1H3	InChI=1S/C8H11N/c1-5-2-6-3-7(5)8(6)4-9/h5-8H,2-3H2,1H3/t5-,6+,7+,8-/m0/s1
