27
gdb 119046	1.76237	1.10535	0.84839	0.065	96.53	-0.2535	0.081	0.3345	1608.1839	0.250519	-353.561339	-353.549909	-353.548965	-353.598033	42.422	
C	 0.2856002521	 1.2959053092	 1.1632277254	-0.380824
C	 0.1459209348	-0.1926130209	 0.8319667041	-0.163715
C	-1.1478327527	-0.5101696989	 0.0664399752	-0.260231
C	-1.3757509654	-1.9948892095	-0.1928468078	 0.378062
C	-0.3182194466	-2.6956793404	-1.041738618	-0.248041
C	-0.1977442479	-2.153070109	-2.4714155033	-0.381952
C	-2.0001776585	-2.8148626219	 0.917849924	-0.347024
C	-2.7904203737	-2.5286759554	-0.3389534558	-0.034807
C	-4.0400381345	-1.6743216462	-0.3145245709	-0.416478
H	 1.2155144762	 1.5005372326	 1.7032026709	 0.109308
H	 0.2886515912	 1.9064327807	 0.2530733766	 0.11217
H	-0.5453147728	 1.6428684884	 1.7879916466	 0.111568
H	 1.0161474495	-0.5137430097	 0.2470451426	 0.097642
H	 0.1678588654	-0.7814700718	 1.7579192218	 0.097313
H	-1.9899108776	-0.1068686345	 0.6396215676	 0.088839
H	-1.1467005773	 0.0405584307	-0.8842267107	 0.09209
H	 0.6583502018	-2.6348254318	-0.5446324425	 0.094661
H	-0.5621169266	-3.7642136009	-1.0853539227	 0.088737
H	 0.5315905498	-2.7304297037	-3.0483326147	 0.109045
H	-1.1583496052	-2.2064527602	-2.995149719	 0.115075
H	 0.1283402991	-1.1082767631	-2.4834956276	 0.116638
H	-1.6367090032	-3.822421649	 1.0943370086	 0.101044
H	-2.2988320012	-2.2909020849	 1.8215938979	 0.100487
H	-2.8686335466	-3.369137023	-1.0262270955	 0.075461
H	-3.9868233836	-0.8789387454	 0.4336998055	 0.116133
H	-4.2253238613	-1.2033556911	-1.2868703184	 0.11419
H	-4.9164185151	-2.2861003203	-0.0719610401	 0.114607
58.0803	81.9956	110.2754	127.3493	175.9372	191.137	220.7687	244.434	276.4179	294.744	327.2907	404.2263	425.715	462.2915	522.0237	707.6352	742.3123	774.0852	805.169	872.8757	888.6586	890.5403	912.8028	940.6409	984.6741	1020.5936	1046.8975	1052.2553	1063.6112	1065.1419	1105.0045	1133.9277	1136.6694	1152.9177	1193.4725	1246.7722	1274.8049	1293.6148	1308.5014	1335.106	1351.1373	1368.279	1396.0722	1409.9252	1411.4142	1413.5529	1432.112	1479.1581	1489.9222	1491.3733	1492.9432	1495.6195	1499.648	1502.2691	1505.974	1508.1094	1513.7372	3012.591	3019.4638	3025.7704	3027.223	3028.488	3034.4701	3046.7775	3050.995	3067.531	3082.3159	3094.2845	3099.2525	3101.3454	3102.5997	3104.3229	3115.397	3122.3012	3197.2445
CCCC1(CC)CC1C	CCC[C@@]1(CC)C[C@H]1C	
InChI=1S/C9H18/c1-4-6-9(5-2)7-8(9)3/h8H,4-7H2,1-3H3	InChI=1S/C9H18/c1-4-6-9(5-2)7-8(9)3/h8H,4-7H2,1-3H3/t8-,9+/m1/s1
