20
gdb 80501	2.14267	1.46387	1.2127	1.8607	87.24	-0.2257	0.0191	0.2448	1169.5285	0.169223	-365.937576	-365.928212	-365.927267	-365.97116	35.773	
C	-0.1858629984	 1.5220413031	-0.1871012127	-0.431582
C	 0.024117773	 0.0435170951	 0.0514259398	-0.011113
N	 1.2319709864	-0.7195271216	-0.2966347852	-0.186035
C	 2.4242505451	 0.1090151598	 0.1097034912	-0.1937
C	 2.0442785546	 0.0612909439	 1.6122130172	-0.03344
C	 2.014626567	 1.2985008113	 2.5015591439	-0.427741
C	 0.7369731347	-0.6255168363	 1.1779563405	 0.098322
C	 0.1617460611	-1.717515018	 1.8934350415	 0.233022
C	-0.31449433	-2.6150974802	 2.5392469602	-0.405506
H	 0.6620231051	 2.1457033675	 0.0936341524	 0.126331
H	-0.3909304923	 1.694407759	-1.249605738	 0.128756
H	-1.0568675477	 1.867049626	 0.3793827567	 0.130002
H	-0.8456123899	-0.5377551487	-0.2529411025	 0.103957
H	 3.3411064092	-0.429695444	-0.1338101983	 0.113483
H	 2.4650865723	 1.0950483306	-0.3626919381	 0.103818
H	 2.6633064866	-0.6989024848	 2.0971199159	 0.095475
H	 1.4190564247	 2.1117386457	 2.0805200561	 0.119806
H	 1.5920693312	 1.0511890618	 3.4813718568	 0.127734
H	 3.0297027512	 1.6764393224	 2.6654621002	 0.118248
H	-0.735885324	-3.4138766523	 3.0975577424	 0.190165
116.9998	135.5834	142.3684	182.015	222.8854	249.5341	308.8109	337.5926	418.2071	502.591	522.6166	531.3068	586.3627	645.8286	654.5965	687.2916	712.2907	834.6213	870.4326	911.5674	933.0773	964.1962	1062.6443	1091.8513	1116.1071	1126.2538	1143.6473	1155.0038	1198.873	1231.7408	1263.7972	1308.5715	1328.6763	1386.0818	1403.94	1411.5659	1450.5887	1487.2524	1493.2478	1498.5971	1505.1783	1516.9342	2226.0766	3036.5836	3041.0462	3058.2062	3062.7909	3096.8267	3098.1346	3114.5387	3116.0995	3122.8331	3153.0539	3502.5927
CC1N2CC(C)C12C#C	C[C@H]1N2C[C@@H](C)[C@@]12C#C	
InChI=1S/C8H11N/c1-4-8-6(2)5-9(8)7(8)3/h1,6-7H,5H2,2-3H3	InChI=1S/C8H11N/c1-4-8-6(2)5-9(8)7(8)3/h1,6-7H,5H2,2-3H3/t6-,7-,8+,9?/m1/s1
