17
gdb 114502	2.7739	1.43285	1.1135	5.0183	68.56	-0.2652	0.0086	0.2738	1112.6085	0.135485	-458.957985	-458.949912	-458.948968	-458.991193	29.607	
C	 0.0960054962	 1.4717546796	-0.0649947512	-0.241012
O	-0.3725408073	 0.1859212416	-0.4156406658	-0.227498
C	 0.5320474287	-0.5467786458	-1.1833162787	 0.136103
C	 1.762404584	-1.2114597481	-0.4687606268	-0.28319
C	 1.2239333722	-2.5920217923	-0.8883709623	 0.10696
O	 0.3506434881	-3.1595389656	 0.1371565459	-0.256182
C	-0.7798620751	-2.641198245	-0.4650609552	 0.473433
O	-1.9079099002	-2.7932748828	-0.1334022038	-0.318277
C	-0.0031507926	-1.9508583164	-1.585760575	-0.286388
H	 1.0050833394	 1.4235504945	 0.5520228512	 0.11299
H	 0.3132943991	 2.0777231792	-0.9580392615	 0.109013
H	-0.6958364951	 1.9554564305	 0.5100618664	 0.139855
H	 0.8476308499	 0.0250355919	-2.068687346	 0.07971
H	 2.7253118392	-0.9481618979	-0.9116816566	 0.112184
H	 1.8039409666	-1.0761930747	 0.6134616973	 0.12955
H	 1.8752931597	-3.3484332922	-1.3209701056	 0.102861
H	-0.3380711026	-2.1163513965	-2.6069162623	 0.109888
81.0294	113.3103	122.4778	192.1029	277.6937	367.3971	415.8138	455.8636	488.6885	628.091	732.7744	782.5776	825.3479	874.2813	883.9305	925.6493	967.5997	1022.8613	1033.7968	1051.6464	1097.192	1121.391	1164.5525	1176.1871	1183.807	1200.2491	1230.8618	1251.0206	1271.5153	1311.5786	1320.7495	1385.2975	1456.6392	1480.9303	1488.0365	1507.3803	1945.8521	2979.3168	2989.3318	3032.076	3075.3034	3128.4997	3135.3632	3142.1565	3152.8035
COC1CC2OC(=O)C12	CO[C@H]1C[C@H]2OC(=O)[C@@H]12	
InChI=1S/C6H8O3/c1-8-3-2-4-5(3)6(7)9-4/h3-5H,2H2,1H3	InChI=1S/C6H8O3/c1-8-3-2-4-5(3)6(7)9-4/h3-5H,2H2,1H3/t3-,4+,5-/m0/s1
