22
gdb 110832	3.21667	1.15056	1.04261	1.8269	82.25	-0.227	0.0635	0.2905	1282.9076	0.192979	-404.306291	-404.296762	-404.295818	-404.340131	36.817	
C	 0.7930809523	 1.2684934741	-0.6373303209	-0.374816
C	 0.0143375875	 0.0447166975	-0.1383949469	-0.222793
C	 0.6868087354	-0.6074372917	 1.0528152808	 0.017779
C	 0.6403310343	-2.0287162987	 1.4554715371	-0.090954
N	 1.9543601049	-1.3732861691	 1.011840323	-0.155867
C	 1.9150998588	-2.2330116126	-0.2247692493	-0.236889
C	 0.676639027	-3.0220098749	 0.2983120934	 0.391352
C	 1.0161310447	-4.4380946023	 0.7518014236	-0.451201
O	-0.5077196659	-3.013860648	-0.4834165379	-0.471561
H	 1.79197263	 0.9881465613	-0.9874890914	 0.123288
H	 0.2697184248	 1.7571473287	-1.4648064004	 0.110262
H	 0.9232878391	 2.0083465691	 0.1601378306	 0.114769
H	-0.9887399578	 0.3521020132	 0.1834470885	 0.100454
H	-0.1444574517	-0.6730758202	-0.9443825575	 0.121952
H	 0.7238611413	 0.0587354259	 1.9160083734	 0.090825
H	 0.4759936174	-2.3262984107	 2.4880155664	 0.084304
H	 1.7748060412	-1.6839972435	-1.1591593295	 0.104149
H	 2.8288164657	-2.8282562015	-0.2915501002	 0.102039
H	 1.8932934744	-4.4451636934	 1.4047629934	 0.134701
H	 0.1717003238	-4.8738589162	 1.2953875036	 0.125265
H	 1.2380559433	-5.0771920183	-0.1123392153	 0.107271
H	-0.4564342703	-3.7412206685	-1.1132190845	 0.275672
80.2299	124.2579	178.6665	227.1697	239.5602	266.8839	275.0907	304.0858	385.7464	420.1584	432.9571	519.4386	609.3214	638.5181	703.3979	773.7391	813.769	870.5243	878.4625	927.5221	935.869	970.4098	984.3888	1012.0944	1049.917	1072.9692	1116.9928	1125.7518	1140.0469	1182.0522	1202.1221	1233.1767	1257.0506	1282.4467	1296.4296	1322.4849	1346.1279	1406.4568	1407.849	1413.0695	1457.9587	1482.9673	1490.6272	1496.0932	1498.0059	1503.7154	1514.5358	3022.0464	3032.4135	3035.1804	3060.1793	3091.199	3092.6845	3095.5101	3106.2121	3111.9202	3119.1328	3129.2183	3141.4562	3799.7014
CCC1C2N1CC2(C)O	CC[C@H]1[C@@H]2N1C[C@]2(C)O	
InChI=1S/C7H13NO/c1-3-5-6-7(2,9)4-8(5)6/h5-6,9H,3-4H2,1-2H3	InChI=1S/C7H13NO/c1-3-5-6-7(2,9)4-8(5)6/h5-6,9H,3-4H2,1-2H3/t5-,6-,7-,8?/m0/s1
