21
gdb 119926	2.53051	0.95357	0.8628	1.0167	85.63	-0.2465	0.0379	0.2845	1486.2839	0.179546	-387.046527	-387.035955	-387.035011	-387.082839	38.264	
C	-0.1482406511	 1.5254178557	 0.0487387841	-0.382101
C	-0.1982630528	 0.0106980941	-0.1648111238	-0.16005
C	 0.9367141447	-0.5020194334	-1.0617347623	-0.189834
C	 0.8962019034	-2.0041382044	-1.2312786317	-0.065286
C	 0.0283594377	-2.6382204228	-2.2814906958	 0.109321
O	-0.7045753373	-1.827251072	-3.1423234418	-0.422595
C	 1.5482184565	-2.7042565948	-2.4334835064	-0.286461
C	 2.1294054186	-1.9557719847	-3.5047299397	 0.302248
C	 2.5502508403	-1.3354122429	-4.4483240615	-0.445342
H	 0.7914056264	 1.8296403593	 0.5239160427	 0.111138
H	-0.2241503543	 2.0613681391	-0.9038945787	 0.11579
H	-0.9691257744	 1.8657178817	 0.6876872923	 0.110226
H	-0.1547452749	-0.4986468644	 0.8072712913	 0.088656
H	-1.1560673927	-0.2700471272	-0.6182829879	 0.114275
H	 0.868312976	-0.0217171146	-2.0421678432	 0.107584
H	 1.9070292806	-0.2100175008	-0.6389235587	 0.094133
H	 0.9888189678	-2.5688174344	-0.3061575736	 0.09041
H	-0.4766595407	-3.5722075575	-2.0445279983	 0.099568
H	-0.1747355551	-1.6690214592	-3.9346977364	 0.292218
H	 2.015043025	-3.6649018604	-2.2382840944	 0.115413
H	 2.9646604364	-0.7845481963	-5.2561467863	 0.20069
47.2472	78.1189	84.4074	127.681	181.584	209.3115	242.2293	253.7753	340.0616	369.2927	392.4732	564.1927	592.1666	616.1	646.2203	660.0274	744.1495	774.9868	779.9426	867.8315	890.1564	916.8546	986.7804	1027.4806	1044.6896	1063.8135	1115.0863	1128.4027	1140.9416	1179.3096	1236.2919	1266.8656	1300.1525	1328.0436	1353.352	1361.9424	1379.9352	1401.0629	1412.288	1431.9218	1477.4191	1490.9578	1500.3128	1507.8793	2222.3548	3016.6383	3023.5468	3028.6146	3058.3823	3087.1215	3097.8573	3101.1214	3123.2841	3134.1305	3153.805	3502.0804	3748.8133
CCCC1C(O)C1C#C	CCC[C@H]1[C@@H](O)[C@H]1C#C	
InChI=1S/C8H12O/c1-3-5-7-6(4-2)8(7)9/h2,6-9H,3,5H2,1H3	InChI=1S/C8H12O/c1-3-5-7-6(4-2)8(7)9/h2,6-9H,3,5H2,1H3/t6-,7+,8-/m0/s1
