14
gdb 29020	2.68486	1.56022	0.98678	2.9446	73.77	-0.2517	-0.0782	0.1734	1098.1353	0.102298	-436.75292	-436.745592	-436.744648	-436.784864	27.389	
O	 0.0979247102	 1.3634452435	 0.0956376496	-0.429349
C	 0.0690531368	 0.008992528	 0.0406220103	 0.26244
C	 0.0728208656	-0.6910981503	-1.1730042838	-0.089363
N	 0.0451102762	-2.0149116138	-1.2590535539	-0.257842
C	 0.0116926653	-2.7177323499	-0.1183609524	-0.006489
C	 0.0051096323	-2.1195434529	 1.1320391516	-0.176948
C	 0.0341084671	-0.7258276156	 1.233434149	 0.104159
C	 0.0274647847	-0.0709815633	 2.565811816	 0.094726
O	-0.0024519923	-0.6871580597	 3.6066311257	-0.264413
H	 0.1198384771	 1.7212767372	-0.7991878458	 0.30826
H	 0.0998171096	-0.1355448102	-2.1116772104	 0.102017
H	-0.0104387223	-3.7985680487	-0.219644472	 0.117845
H	-0.022102994	-2.7033189864	 2.0450637725	 0.133528
H	 0.0519446338	 1.0348605121	 2.5519743737	 0.101428
117.5236	170.074	208.1741	267.2677	347.0168	391.2912	468.0294	505.2152	568.6161	568.9828	654.708	764.7995	827.3412	864.0532	865.2517	927.7444	996.3609	1048.4772	1073.8277	1144.2946	1221.6442	1236.0843	1269.4541	1335.2135	1347.9679	1434.559	1455.0323	1519.2229	1617.2317	1632.4997	1791.5259	2960.5301	3112.8966	3174.8236	3209.3816	3806.4615
OC1=CN=CC=C1C=O	Oc1cnccc1C=O	
InChI=1S/C6H5NO2/c8-4-5-1-2-7-3-6(5)9/h1-4,9H	InChI=1S/C6H5NO2/c8-4-5-1-2-7-3-6(5)9/h1-4,9H
