20
gdb 105426	2.64445	0.95798	0.79473	2.9049	80.04	-0.2527	0.0179	0.2706	1518.2101	0.168186	-440.257595	-440.247496	-440.246552	-440.293267	36.284	
C	 2.2072978349	-2.8551582726	-2.4634835808	-0.315582
N	 1.4757422169	-2.2363066789	-1.377469515	-0.206479
C	 1.546918478	-2.7827184283	-0.2484382068	 0.10945
O	 0.8512945779	-2.2764689378	 0.8014291989	-0.257398
C	 1.177270309	-2.7919332106	 2.0833157828	 0.378301
C	 2.4047288702	-2.1225004731	 2.6584620079	-0.10725
O	 2.2316453959	-0.7265841422	 2.7901886515	-0.417121
C	-0.0043876008	-3.0930889211	 2.9461559993	-0.302428
C	 0.8362290818	-4.2257918402	 2.389758176	-0.32858
H	 2.7754916178	-3.7527058439	-2.1690441385	 0.096789
H	 1.5113993428	-3.1359578573	-3.2622401588	 0.1303
H	 2.9072017858	-2.1298421375	-2.8935052194	 0.129821
H	 2.1272838755	-3.6859380642	-0.0116144247	 0.08626
H	 2.6062070497	-2.5159341321	 3.6598841792	 0.10949
H	 3.2788244616	-2.3604052757	 2.028431012	 0.086641
H	 1.9007670389	-0.4056144101	 1.942908965	 0.295984
H	 0.0662443668	-2.8548488607	 4.0010837716	 0.127198
H	-0.9813236231	-2.939013732	 2.5037734219	 0.134369
H	 0.4031326095	-4.8185295241	 1.5920161709	 0.127201
H	 1.4863970009	-4.7775407875	 3.0603223271	 0.123034
50.2665	90.9958	110.2248	143.8229	201.3172	215.9618	298.8691	300.6488	324.0001	369.5644	404.5578	445.1496	536.6718	590.7809	769.2457	780.4674	910.7983	915.1374	947.5074	979.29	995.3225	1040.5849	1055.1905	1078.062	1080.5886	1087.585	1141.545	1145.8224	1186.2877	1198.9394	1220.895	1290.7334	1347.491	1373.4552	1391.138	1438.5452	1450.0057	1456.7675	1480.5137	1494.2803	1503.8767	1504.4137	1775.5431	2960.3103	2968.9474	3015.8319	3060.3607	3079.3844	3079.6689	3136.2137	3146.5314	3220.8444	3239.3206	3794.9684
CN=COC1(CO)CC1	CN=COC1(CO)CC1	
InChI=1S/C6H11NO2/c1-7-5-9-6(4-8)2-3-6/h5,8H,2-4H2,1H3	InChI=1S/C6H11NO2/c1-7-5-9-6(4-8)2-3-6/h5,8H,2-4H2,1H3
