15
gdb 131413	5.72536	0.99646	0.90932	3.5612	68.63	-0.253	-0.016	0.237	1247.7544	0.113785	-453.942623	-453.935148	-453.934204	-453.975168	27.904	
O	-0.1271545288	 1.2803281434	-0.0716510494	-0.400587
C	 0.0272928793	-0.0431523233	-0.062760628	 0.430659
N	 0.2533943146	-0.7141152726	-1.1628258214	-0.204752
O	 0.344047033	-2.0396154469	-0.6750232162	-0.218517
C	 0.1607941881	-1.9879470675	 0.6487485234	 0.462035
N	-0.040967248	-0.7785814402	 1.0936669815	-0.415775
C	 0.2032398799	-3.2282659303	 1.4199570815	-0.119409
C	-0.324858191	-4.5190468472	 0.8120399746	-0.260672
C	 1.147095189	-4.3476419667	 1.0071226933	-0.26071
H	-0.2812016283	 1.5505192568	 0.841924087	 0.318906
H	 0.0440049758	-3.0660693824	 2.4781112167	 0.120652
H	-0.8677259963	-5.1814252739	 1.4759799224	 0.129363
H	-0.7130096931	-4.4591533279	-0.197645402	 0.144711
H	 1.7578590163	-4.1714816988	 0.1298260762	 0.144745
H	 1.6360866695	-4.8899172526	 1.8078051705	 0.129349
56.1664	153.3164	167.8816	307.1874	340.1479	399.4813	424.438	514.4297	628.0798	720.0821	759.7449	786.3539	795.5379	829.5838	910.2296	912.6682	933.9353	1032.7957	1061.1283	1063.9128	1079.65	1094.2914	1129.1365	1206.7549	1217.6425	1222.6672	1343.4299	1361.2877	1450.8588	1466.3755	1497.5989	1614.7716	1673.1131	3146.7547	3149.49	3202.0646	3232.8174	3247.6491	3812.4156
OC1=NOC(=N1)C1CC1	Oc1noc(n1)C1CC1	
InChI=1S/C5H6N2O2/c8-5-6-4(9-7-5)3-1-2-3/h3H,1-2H2,(H,7,8)	InChI=1S/C5H6N2O2/c8-5-6-4(9-7-5)3-1-2-3/h3H,1-2H2,(H,7,8)
