22
gdb 109960	1.79989	1.46781	0.89034	2.2041	85.78	-0.2439	0.0341	0.278	1404.2965	0.192703	-404.359854	-404.349467	-404.348523	-404.395581	37.101	
C	-0.0823045855	 1.6815556754	-0.0851924554	-0.386832
C	 0.1150097068	 0.1686441222	 0.0625436191	-0.195311
C	 0.7580174935	-0.4469168565	-1.1806304557	-0.170602
C	 0.9277284929	-1.9898747718	-1.3094900914	 0.119231
C	 0.3698823928	-2.9093953126	-0.2449262085	-0.402
O	 0.085236851	-1.9781652107	-2.512947761	-0.284566
C	-0.1125245333	-0.610661323	-2.4101664994	 0.471181
N	-0.8011551164	 0.1641992943	-3.1124404098	-0.333012
C	-1.5439547265	-0.3746070424	-4.2437997348	-0.339477
H	 0.8788815216	 2.1938746095	-0.2051581184	 0.111283
H	-0.6914084421	 1.9029344312	-0.9655695525	 0.154488
H	-0.5764755158	 2.0995919226	 0.7969702036	 0.108706
H	 0.7469447003	-0.0454317513	 0.9338456085	 0.096695
H	-0.853091102	-0.3074659545	 0.2534998268	 0.10325
H	 1.6872814878	 0.0841936879	-1.4129237258	 0.098731
H	 1.9421848945	-2.2929618886	-1.588710992	 0.089716
H	-0.6558441147	-2.6414354052	 0.0203976034	 0.129497
H	 0.3706363152	-3.9422630693	-0.6057667827	 0.131163
H	 0.9873090815	-2.8649803719	 0.6583117095	 0.12371
H	-1.4795710762	-1.4643867979	-4.3441787767	 0.124787
H	-2.5979005004	-0.0915066683	-4.147753334	 0.123937
H	-1.174488425	 0.0837230609	-5.1682817928	 0.125424
76.3567	92.4639	102.5287	134.733	166.5756	198.6459	242.9039	245.6462	283.8037	352.9609	400.9904	463.613	548.0429	668.046	731.9052	785.1492	812.7657	870.6222	889.8722	977.4124	1029.8889	1035.7057	1048.0156	1070.6107	1102.6773	1126.8428	1134.1112	1161.5529	1167.1225	1200.6532	1238.6191	1287.9635	1313.1841	1347.7797	1382.1895	1389.4548	1411.9541	1416.036	1440.1517	1481.1646	1490.8992	1495.7067	1496.6909	1498.7116	1499.7235	1512.8526	1837.34	3015.9672	3024.6856	3035.2427	3042.6946	3044.8813	3058.013	3069.9002	3079.3186	3086.3352	3101.9599	3111.8093	3125.8819	3127.6398
CCC1C(C)OC1=NC	CC[C@H]1[C@@H](C)OC1=NC	
InChI=1S/C7H13NO/c1-4-6-5(2)9-7(6)8-3/h5-6H,4H2,1-3H3	InChI=1S/C7H13NO/c1-4-6-5(2)9-7(6)8-3/h5-6H,4H2,1-3H3/t5-,6+/m1/s1
