20
gdb 112983	3.95657	0.92579	0.83968	1.9623	75.01	-0.2457	0.06	0.3058	1411.3369	0.171645	-440.233585	-440.224705	-440.223761	-440.268021	32.786	
O	-0.0434988434	 1.406098777	 0.3474664194	-0.4194
C	-0.1408325774	 0.1527770748	-0.2958343042	-0.06613
C	-1.3752065591	-0.5960993503	 0.1782951879	 0.126277
C	-1.4068973944	-2.1198427308	-0.0384565993	-0.32847
C	-1.2098210112	-2.2084652939	 1.4954615377	 0.111683
O	-1.3144349208	-0.7652741765	 1.6267447154	-0.328238
C	-2.2569364188	-2.9323027841	 2.3018069395	-0.007238
C	-2.6924699182	-2.3947647101	 3.6113302271	-0.239612
N	-3.6009553957	-2.3599017584	 2.4464610147	-0.321299
H	-0.1146453499	 1.221595208	 1.2924406045	 0.292194
H	-0.2045535809	 0.3422444595	-1.3734314036	 0.110823
H	 0.7541975942	-0.4664607085	-0.1157989662	 0.083074
H	-2.2791309146	-0.0428749003	-0.1010086879	 0.089307
H	-2.3637028488	-2.5120688703	-0.3855051932	 0.125343
H	-0.6000041783	-2.5275531687	-0.6503073263	 0.112501
H	-0.2106594549	-2.556396476	 1.7907571229	 0.086231
H	-2.2439027301	-4.0117414057	 2.1555511363	 0.093845
H	-2.9861714337	-3.0720516165	 4.4077993069	 0.118124
H	-2.2531612423	-1.456365402	 3.9368338201	 0.125256
H	-3.5786911417	-1.4116366373	 2.0732747383	 0.23573
59.8575	92.6222	102.5129	158.762	224.0723	260.6796	372.0711	440.193	461.3191	510.7168	612.2826	697.9555	802.098	846.1169	855.2374	898.3753	917.5697	963.3616	969.0146	1010.1352	1011.577	1028.2961	1081.0974	1098.0975	1114.075	1134.2715	1146.0649	1171.3897	1191.5839	1224.8623	1256.2266	1266.008	1280.7759	1302.6325	1314.9555	1346.0543	1374.9191	1400.6368	1417.5717	1436.7496	1487.4482	1498.2792	1503.757	2963.7488	3010.1301	3042.6014	3069.7383	3079.6371	3114.5426	3119.0957	3137.3307	3205.3802	3477.1846	3781.618
OCC1CC(O1)C1CN1	OC[C@H]1C[C@@H](O1)[C@H]1CN1	
InChI=1S/C6H11NO2/c8-3-4-1-6(9-4)5-2-7-5/h4-8H,1-3H2	InChI=1S/C6H11NO2/c8-3-4-1-6(9-4)5-2-7-5/h4-8H,1-3H2/t4-,5-,6-/m1/s1
