17
gdb 126867	4.23607	1.00909	0.87261	1.6389	84.5	-0.2167	-0.0435	0.1732	1329.8118	0.137535	-414.16358	-414.155228	-414.154283	-414.197652	30.372	
C	-0.0280176291	 1.4813496166	-0.078612137	-0.364816
C	-0.0717679985	-0.0305668103	 0.1827231811	-0.144881
N	-1.4255738527	-0.5431624064	 0.0620816969	-0.310927
C	-1.8217426701	-1.0738340105	-1.0400378808	 0.219053
C	-1.0968110799	-1.2718435069	-2.2990463291	-0.04356
N	-1.6133468665	-1.8538587345	-3.3389730209	-0.184261
N	-2.8694406283	-2.2858948456	-3.2320676509	-0.096659
N	-3.6927950984	-2.1509881302	-2.1789732226	-0.199554
C	-3.1917091302	-1.5715047545	-1.1356595426	 0.019779
H	 0.9734121749	 1.8789401286	 0.1145802883	 0.111933
H	-0.2933689346	 1.7091566151	-1.1163318861	 0.113799
H	-0.740094165	 1.998285494	 0.5707353091	 0.130369
H	 0.6548017686	-0.5398053922	-0.4695005318	 0.085212
H	 0.2547773684	-0.2185078972	 1.2124675823	 0.10521
H	-0.0787555701	-0.9251414607	-2.4294574546	 0.129503
H	-3.2653016913	-2.7118636783	-4.0527269598	 0.292298
H	-3.8459323173	-1.4553706569	-0.2773783615	 0.137503
34.7899	84.391	149.2277	210.8051	286.3569	334.2436	405.1159	473.2199	513.8846	574.024	578.1078	638.5746	763.5997	782.0558	819.8712	909.4532	916.7277	960.7035	989.8142	1042.0805	1102.8505	1124.7062	1136.0253	1176.0346	1292.1315	1302.3211	1358.9266	1365.8856	1389.6429	1401.7897	1455.9679	1488.7757	1497.7477	1524.3094	1611.1166	1639.1527	1689.9231	2977.5659	3034.9412	3042.2619	3105.4716	3118.4414	3190.3948	3204.7387	3672.836
CCN=C1C=NNN=C1	CCN=c1cn[nH]nc1	
InChI=1S/C5H8N4/c1-2-6-5-3-7-9-8-4-5/h3-4H,2H2,1H3,(H,6,9)	InChI=1S/C5H8N4/c1-2-6-5-3-7-9-8-4-5/h3-4H,2H2,1H3,(H,6,9)
