17
gdb 49270	2.44947	1.69413	1.09734	4.0906	77.16	-0.2542	-0.0613	0.1929	1090.1194	0.135604	-421.832754	-421.824769	-421.823825	-421.86562	29.807	
O	-0.1303542704	-0.0296073493	-0.0595263597	-0.269888
C	-0.0012220337	 1.17219235	-0.1273201742	 0.075749
C	 1.2698410094	 1.8999888104	-0.0276998069	 0.191841
C	 1.3535051526	 3.2398990908	-0.0336458153	-0.153654
C	 2.7680513584	 3.7393066102	 0.0733629062	-0.27426
C	 3.5894461996	 2.4556654173	 0.3597851436	-0.309351
C	 2.6368929418	 1.2935634581	 0.0543272266	 0.327485
C	 2.9303773258	-0.1128467552	 0.3555568588	-0.252497
O	 3.0023426897	 0.3775472251	-0.9880937652	-0.273705
H	-0.886273449	 1.8337727566	-0.2639273254	 0.075298
H	 0.4996567866	 3.9048561959	-0.1224635361	 0.116264
H	 3.0652440159	 4.2315385164	-0.8624085024	 0.131544
H	 2.8766804192	 4.4953278469	 0.8588168717	 0.122274
H	 4.4940909196	 2.3748836551	-0.2461029928	 0.12661
H	 3.8880260204	 2.4274071439	 1.4122238074	 0.117071
H	 3.8906625699	-0.3581950757	 0.8103858655	 0.105777
H	 2.1128152742	-0.7998393867	 0.5521684183	 0.143441
71.6611	119.8802	185.5337	251.9472	281.1395	327.5143	379.7315	438.3201	581.574	598.6633	707.4191	736.9446	782.7414	831.5094	879.212	912.1705	932.0723	971.4952	1020.798	1034.3043	1050.3328	1120.8139	1131.6883	1169.7695	1179.4363	1219.1608	1245.8537	1293.1965	1326.2316	1359.0484	1413.4842	1438.8994	1466.3949	1485.9565	1514.1288	1670.6701	1788.6533	2875.1909	3024.2812	3054.8007	3067.6426	3082.5144	3118.5995	3184.1396	3197.5948
O=CC1=CCCC11CO1	O=CC1=CCC[C@]21CO2	
InChI=1S/C7H8O2/c8-4-6-2-1-3-7(6)5-9-7/h2,4H,1,3,5H2	InChI=1S/C7H8O2/c8-4-6-2-1-3-7(6)5-9-7/h2,4H,1,3,5H2/t7-/m1/s1
