19
gdb 92379	2.12986	1.66144	1.25319	3.4169	80.33	-0.2436	0.0105	0.2541	1094.2777	0.160497	-382.052328	-382.04396	-382.043015	-382.085168	32.099	
C	-0.8095737855	 1.239953687	 0.0784313773	-0.416905
C	-0.0189718904	-0.0418376889	-0.1071841979	 0.000915
C	 1.2158741414	-0.0528318296	-1.0650511497	-0.258252
C	 2.0713838086	-0.7805251804	 0.0112016369	-0.094937
C	 2.9601305866	 0.1313452222	 0.8778555537	-0.170526
N	 1.7509267455	 0.6054959555	 1.6036752544	-0.356383
C	 0.9222400997	-0.501849581	 1.0494314359	 0.221877
C	 0.4397511751	-1.4722382484	 2.0089879032	 0.186096
N	 0.0526142083	-2.2417111064	 2.7822733664	-0.344843
H	-0.15338516	 2.0399781379	 0.4314820176	 0.135508
H	-1.2650831012	 1.5521876078	-0.8672582762	 0.116919
H	-1.6147169803	 1.1085544468	 0.8094252937	 0.122329
H	-0.6827816439	-0.8754574914	-0.3595888804	 0.088651
H	 1.0703327057	-0.6029154548	-1.9963606773	 0.109711
H	 1.5943054532	 0.9444562506	-1.3060741608	 0.111506
H	 2.4220409231	-1.7832885571	-0.2218672793	 0.096436
H	 3.6603878859	-0.4394226997	 1.5006832583	 0.108332
H	 3.5095522035	 0.9269547869	 0.3624760757	 0.107968
H	 1.8215846646	 0.6174089631	 2.6139810684	 0.235599
100.1378	127.1112	178.1923	225.8176	243.2599	333.7859	351.0949	465.4055	509.3222	552.7003	590.3324	612.3217	686.7066	796.18	830.7764	877.3588	924.7884	970.2186	986.6812	996.4559	1032.7482	1033.9204	1102.1841	1117.3642	1130.3176	1150.8727	1179.8582	1187.7341	1208.793	1265.0931	1284.3694	1313.1319	1324.5853	1356.3714	1396.9112	1406.3844	1484.5938	1488.6743	1504.8343	1515.4029	2337.3229	3016.1724	3034.3339	3052.8606	3064.1117	3066.3777	3098.1087	3118.3709	3122.5867	3142.3738	3554.83
CC1CC2CNC12C#N	C[C@H]1C[C@H]2CN[C@@]12C#N	
InChI=1S/C7H10N2/c1-5-2-6-3-9-7(5,6)4-8/h5-6,9H,2-3H2,1H3	InChI=1S/C7H10N2/c1-5-2-6-3-9-7(5,6)4-8/h5-6,9H,2-3H2,1H3/t5-,6-,7-/m0/s1
