16
gdb 49792	2.63477	1.56332	1.02447	1.7104	74.2	-0.2628	-0.0403	0.2225	1111.5349	0.126519	-434.10953	-434.101887	-434.100942	-434.14194	28.528	
N	-0.1116041903	 1.3238010024	 0.1297211006	-0.492037
C	-0.0420161327	 0.0615765394	 0.0301034381	 0.37418
C	-1.2715737544	-0.800083259	-0.0505653029	-0.285432
C	-1.1344855904	-1.8028729778	-1.2073462243	-0.168759
N	 0.1199977262	-2.5463813827	-1.1797669047	-0.252794
C	 1.1186261784	-2.004615633	-0.6257976892	 0.106693
N	 1.1537958527	-0.713741524	-0.0337049219	-0.164781
C	 2.3407576985	-0.2843605629	 0.5623013233	 0.155728
O	 3.3846623279	-0.8828861237	 0.5080293749	-0.294118
H	 0.8007096552	 1.7797311412	 0.1169628266	 0.225799
H	-1.3720376593	-1.358456399	 0.8891066821	 0.131081
H	-2.1437466169	-0.1555655148	-0.1640484684	 0.138977
H	-1.9592226854	-2.520959582	-1.1810171426	 0.12574
H	-1.2039684658	-1.286891222	-2.1748927454	 0.130027
H	 2.0819871739	-2.5020507801	-0.5750817262	 0.162525
H	 2.2089284223	 0.6588816279	 1.11766694	 0.10717
88.8259	162.7275	189.1713	237.636	291.8456	378.7949	437.6931	505.3321	546.0843	587.7292	664.5481	764.6757	815.0959	871.5326	902.6216	914.2771	968.1981	1024.9897	1031.6409	1061.0928	1085.2736	1195.5545	1212.1124	1249.8136	1259.4493	1306.5644	1336.3276	1384.1328	1411.9854	1442.6194	1471.2021	1488.1841	1738.8192	1746.5194	1814.3711	2997.0064	3020.1364	3035.2944	3080.5866	3134.425	3198.1758	3482.1416
N=C1CCN=CN1C=O	[NH][C]1CCN=CN1C=O	
InChI=1S/C5H7N3O/c6-5-1-2-7-3-8(5)4-9/h3-4,6H,1-2H2	InChI=1S/C5H7N3O/c6-5-1-2-7-3-8(5)4-9/h3-4,6H,1-2H2
