21
gdb 92728	3.22112	1.29632	1.03146	1.6876	84.53	-0.2289	0.0107	0.2397	1236.0987	0.182741	-387.099693	-387.090965	-387.090021	-387.132698	33.883	
C	 0.1860922339	 1.5928436403	 0.0506863877	-0.401459
C	 0.010791202	 0.0693806282	 0.0074984227	-0.016725
C	 0.5760480452	-0.525641995	-1.301201717	-0.264645
C	 0.696352451	-2.0266119869	-1.2808726214	-0.191231
C	 0.9489718408	-2.7206648268	-0.167120346	 0.362131
C	 1.0995369063	-4.2161698657	-0.1275847888	-0.495169
C	 1.0906159625	-1.9878865206	 1.1240685852	-0.067958
O	 2.0264810337	-0.8822949106	 1.1690731658	-0.263142
C	 0.6295622272	-0.594427081	 1.2203422854	 0.060045
H	 1.2490331477	 1.8565992923	 0.0556605651	 0.128855
H	-0.2764548053	 2.0675581129	-0.8206917404	 0.112795
H	-0.2712242289	 2.0223270345	 0.9482382307	 0.11109
H	-1.0639913826	-0.1614749494	 0.0531933279	 0.077878
H	-0.0523167693	-0.2072618193	-2.1405133939	 0.098439
H	 1.567128812	-0.0873893614	-1.4819604231	 0.124189
H	 0.6089519773	-2.5498810702	-2.2302629745	 0.083414
H	 0.9501278062	-4.6589656089	-1.1156807242	 0.121932
H	 2.0965555088	-4.5051515133	 0.2287921335	 0.130785
H	 0.3776217255	-4.6740417313	 0.5610853703	 0.123059
H	 1.1072095826	-2.5967513319	 2.0274105612	 0.083312
H	 0.2812291834	-0.2290197257	 2.188727394	 0.082406
86.0477	180.9428	188.9146	236.1379	253.8059	277.8541	313.9388	347.5439	405.9395	519.2922	562.6553	614.676	672.725	756.2303	803.9545	852.1478	879.9808	898.0092	946.7254	953.8956	997.2179	1038.3062	1055.3513	1069.4446	1099.6171	1107.2249	1136.7745	1170.9183	1182.853	1243.0201	1281.2407	1314.3836	1335.7611	1346.6022	1371.3855	1400.5136	1412.0272	1413.5914	1461.8803	1474.6108	1478.5279	1492.2758	1497.9785	1502.2389	1730.6094	2996.1692	3015.1127	3015.7184	3030.8569	3059.6909	3061.2847	3085.1992	3100.1082	3104.2981	3112.3087	3116.7437	3150.6952
CC1CC=C(C)C2OC12	C[C@H]1CC=C(C)[C@H]2O[C@@H]12	
InChI=1S/C8H12O/c1-5-3-4-6(2)8-7(5)9-8/h3,6-8H,4H2,1-2H3	InChI=1S/C8H12O/c1-5-3-4-6(2)8-7(5)9-8/h3,6-8H,4H2,1-2H3/t6-,7+,8-/m0/s1
