15
gdb 87028	2.21009	1.5245	1.08442	5.6177	66.84	-0.2711	-0.0195	0.2516	1122.7992	0.11069	-453.970973	-453.961853	-453.960909	-454.004944	32.701	
C	 0.1037242518	 1.321256347	-0.2661259764	-0.433125
C	 0.267032953	-0.1351247565	 0.0646823837	 0.053428
O	 1.596162306	-0.626849255	 0.2638429029	-0.280962
C	 0.7179617078	-0.6272524277	 1.3970796261	 0.123729
C	 1.0276366824	 0.3280420425	 2.4416097296	 0.285698
N	 1.2903371971	 1.1043437303	 3.2553483129	-0.334318
C	 0.2257021672	-1.9828852474	 1.8963115756	 0.334803
N	 0.5862579394	-3.0101552069	 1.0861980717	-0.53315
O	-0.4522319699	-2.0703455312	 2.8957395236	-0.33809
H	 0.7382397969	 1.946018219	 0.3651637695	 0.16046
H	 0.3682228891	 1.4941682688	-1.3139181439	 0.142556
H	-0.9395180382	 1.6201882872	-0.125463842	 0.145817
H	-0.3702790228	-0.8280035532	-0.4854178379	 0.118593
H	 1.2939221097	-2.8647499357	 0.3844311593	 0.280328
H	 0.3549579104	-3.9459124311	 1.3774386253	 0.274232
68.958	142.5113	154.7222	169.0754	187.887	253.0871	340.0085	388.5073	404.3383	446.4913	499.1487	587.9006	600.9679	614.1852	660.7856	743.9332	817.0955	913.8632	983.4927	1003.7926	1093.5222	1120.9032	1147.3454	1206.4543	1315.4214	1372.713	1408.3181	1436.0346	1482.0347	1494.1251	1599.4702	1819.1198	2367.8581	3048.2873	3113.3832	3115.5228	3146.7177	3591.7421	3727.4502
CC1OC1(C#N)C(N)=O	C[C@H]1O[C@]1(C#N)C(=O)N	
InChI=1S/C5H6N2O2/c1-3-5(2-6,9-3)4(7)8/h3H,1H3,(H2,7,8)	InChI=1S/C5H6N2O2/c1-3-5(2-6,9-3)4(7)8/h3H,1H3,(H2,7,8)/t3-,5+/m1/s1
