15
gdb 13030	4.0584	1.43046	1.11414	2.6107	67.59	-0.2608	0.0216	0.2824	1025.5106	0.118013	-362.622791	-362.614981	-362.614036	-362.65553	28.212	
N	-0.0495045752	 1.1951177375	-0.3586937823	-0.528588
C	-0.0142443733	-0.015928531	-0.0442907379	 0.436344
O	 1.0258537133	-0.790334288	 0.4368412947	-0.252153
C	 0.1646084768	-1.9644868084	 0.5375083499	-0.107966
C	-1.0247197858	-1.1519342472	-0.0198887701	-0.124089
C	-2.2487403169	-0.990127927	 0.8954823719	-0.373966
C	-3.2836643199	-0.1360346385	 0.3281745806	 0.314577
C	-4.1421808976	 0.5512634794	-0.1544219604	-0.433306
H	 0.8579431031	 1.6433347114	-0.2196465015	 0.229594
H	 0.5359605164	-2.780709287	-0.0862936131	 0.12319
H	 0.0711869926	-2.2926435444	 1.5769498155	 0.119796
H	-1.3399042223	-1.457608016	-1.0198368026	 0.122123
H	-2.6668593826	-1.9860560012	 1.0933347714	 0.135225
H	-1.9261957812	-0.592227858	 1.8659605974	 0.139302
H	-4.8909572974	 1.1750340385	-0.5758312935	 0.199915
62.9996	96.8296	159.6392	219.9612	327.4216	341.737	457.7947	470.59	624.3531	647.2893	661.7566	751.909	799.7849	865.5332	887.7512	957.4206	976.0492	998.9902	1014.0225	1079.1198	1123.2617	1160.0456	1194.7284	1228.0591	1260.3431	1313.31	1360.6719	1379.3556	1470.4674	1517.1269	1828.0565	2245.8164	3017.1615	3050.8181	3056.3153	3094.9898	3117.8467	3475.3659	3507.039
N=C1OCC1CC#C	[NH][C]1OC[C@H]1CC#C	
InChI=1S/C6H7NO/c1-2-3-5-4-8-6(5)7/h1,5,7H,3-4H2	InChI=1S/C6H7NO/c1-2-3-5-4-8-6(5)7/h1,5,7H,3-4H2/t5-/m1/s1
