23
gdb 109384	3.18545	1.07703	0.90354	0.0976	95.26	-0.2147	-0.0083	0.2064	1411.5173	0.207472	-351.177321	-351.168188	-351.167244	-351.21119	35.35	
C	-0.0324323176	 1.631006309	 0.1872679416	-0.370812
C	 0.0159431023	 0.1214254405	-0.1076097414	-0.282405
C	-1.3465245746	-0.5399563658	-0.0772062042	 0.302658
C	-1.9639678059	-0.942668536	-1.2028380316	-0.168483
C	-3.3877763465	-1.4439655809	-1.2452628862	-0.239149
C	-3.632507384	-2.8263471661	-0.6023791617	-0.18202
C	-2.8172764251	-3.0160248299	 0.6966058039	-0.246036
C	-2.7007989262	-1.7941837377	 1.5756749249	-0.066264
C	-1.9971932221	-0.7047063404	 1.2313367502	-0.132831
H	 0.9716960836	 2.0655163044	 0.1534614347	 0.111586
H	-0.6541353951	 2.1503469533	-0.5487568386	 0.118997
H	-0.4475206613	 1.8381581383	 1.1787741648	 0.119289
H	 0.466466269	-0.0362382363	-1.0938565728	 0.099111
H	 0.6793081613	-0.3623230973	 0.6213350412	 0.10071
H	-1.4408809234	-0.8342729533	-2.1510247222	 0.076273
H	-4.0110680997	-0.7229765934	-0.7003884927	 0.110721
H	-3.7498960524	-1.4544158339	-2.2783927158	 0.090739
H	-4.7069494579	-2.9289195984	-0.4058762288	 0.092806
H	-3.3635924333	-3.6326031601	-1.2959218591	 0.09296
H	-3.2262373245	-3.8555594906	 1.2674996843	 0.091831
H	-1.8005449099	-3.3027390705	 0.3972413789	 0.112978
H	-3.1543548769	-1.8359544083	 2.562952985	 0.085909
H	-1.8621589595	 0.0898475337	 1.9631876256	 0.081433
64.1375	114.3331	165.7083	214.5044	232.304	278.3594	317.5592	381.1297	385.4624	477.1404	565.0745	632.6135	677.554	747.913	765.0455	797.4338	835.8174	877.4904	890.545	913.6636	954.9934	990.7442	998.2705	1032.2032	1058.3735	1077.8838	1087.8046	1118.9527	1175.1033	1199.9056	1234.207	1255.424	1280.2848	1302.4455	1332.9019	1343.4147	1357.4294	1365.4533	1386.722	1407.286	1438.9109	1476.5878	1483.9655	1486.907	1497.5045	1498.9732	1507.3651	1658.8018	1697.7145	3015.2995	3016.8551	3018.083	3022.9534	3035.2008	3056.7386	3062.222	3074.0259	3077.867	3103.4955	3109.2036	3133.2792	3142.4548	3161.6651
CCC1=CCCCC=C1	CCC1=CCCCC=C1	
InChI=1S/C9H14/c1-2-9-7-5-3-4-6-8-9/h5,7-8H,2-4,6H2,1H3	InChI=1S/C9H14/c1-2-9-7-5-3-4-6-8-9/h5,7-8H,2-4,6H2,1H3
