19
gdb 58490	2.24315	1.26598	1.07283	1.4167	78.31	-0.2587	0.0206	0.2792	1236.8682	0.154918	-422.973274	-422.963063	-422.962119	-423.008064	37.806	
C	 0.2077103441	 1.227810147	-0.4670875014	-0.421682
C	 0.0302455085	-0.0274762158	 0.3863722117	 0.049424
O	 0.3602285271	 0.1964151349	 1.7538518785	-0.428589
C	-1.381341944	-0.6069819552	 0.2601890527	 0.405739
C	-2.4932011877	 0.1405753879	 0.9631122254	-0.48888
O	-1.6943456888	-1.0818847922	-1.0535539698	-0.287007
C	-1.5608994478	-2.0580527796	-0.0008167931	-0.234786
C	-0.4735323555	-2.9941626737	-0.0916120726	 0.344523
C	 0.4089560141	-3.8082066333	-0.1549513766	-0.415351
H	 1.2396420835	 1.5822282933	-0.3981228736	 0.1262
H	-0.0240686089	 1.0126830355	-1.5134625343	 0.143684
H	-0.4536526027	 2.0374725696	-0.1340350035	 0.107127
H	 0.7325815062	-0.7916721341	 0.0417947095	 0.108683
H	-0.0058906103	 1.0485045509	 2.0126781522	 0.281664
H	-2.56796146	 1.1690513343	 0.5940491381	 0.12719
H	-3.4544160554	-0.3470982346	 0.7860272959	 0.132847
H	-2.3088918011	 0.171186748	 2.0406199679	 0.134321
H	-2.5096891637	-2.4994950466	 0.3053682347	 0.112091
H	 1.1947255625	-4.5207323461	-0.2104715814	 0.202803
62.4961	118.0745	143.3703	200.9477	222.2089	251.3925	267.0191	295.0164	305.1431	343.0988	418.0173	452.148	511.6899	562.5208	601.687	626.7106	671.1687	706.5427	807.7307	883.8941	924.2762	968.3481	1025.3949	1053.5938	1064.7878	1093.7924	1102.2988	1135.2684	1270.071	1291.798	1315.7389	1374.9399	1399.0407	1403.743	1415.0188	1447.275	1484.7235	1496.7864	1497.7875	1504.2476	2238.6408	3028.5729	3043.3728	3075.9185	3103.4811	3105.1935	3110.8822	3129.9424	3130.6527	3502.1837	3812.4702
CC(O)C1(C)OC1C#C	C[C@@H](O)[C@@]1(C)O[C@H]1C#C	
InChI=1S/C7H10O2/c1-4-6-7(3,9-6)5(2)8/h1,5-6,8H,2-3H3	InChI=1S/C7H10O2/c1-4-6-7(3,9-6)5(2)8/h1,5-6,8H,2-3H3/t5-,6+,7-/m1/s1
