22
gdb 113580	4.17931	0.90272	0.83207	1.5448	82.55	-0.2373	0.0747	0.312	1478.1967	0.19514	-404.331689	-404.322526	-404.321582	-404.366357	34.23	
C	-0.4025051949	 1.5566984984	 0.3279207157	-0.376188
C	 0.2429572864	 0.2353509005	-0.1040451122	-0.184433
C	 0.941214373	-0.4603482209	 1.0425199546	-0.06508
N	 0.0890767328	-1.2384531707	 1.9658010475	-0.37071
C	 1.1018830419	-1.9303574286	 1.1524699368	 0.306038
C	 0.6183957464	-2.9745320784	 0.1393049455	-0.301614
C	 1.6739342539	-4.0907649417	 0.2689044533	-0.08282
O	 2.2364669483	-3.9433692027	 1.5681769565	-0.242355
C	 2.3503656163	-2.5487759006	 1.7851208405	-0.152015
H	 0.3467215544	 2.2600308786	 0.7088145229	 0.109557
H	-0.917137528	 2.039724337	-0.5081524937	 0.111207
H	-1.1338334855	 1.3814883737	 1.1228818493	 0.130518
H	-0.5241227553	-0.4327187898	-0.5092358531	 0.105791
H	 0.9670698863	 0.4165373518	-0.9094849006	 0.093167
H	 1.7376343685	 0.1318149995	 1.499365935	 0.073186
H	 0.4108455444	-1.1361510342	 2.9257335074	 0.223829
H	-0.3747078012	-3.3244638816	 0.4306616804	 0.123595
H	 0.5558821133	-2.5864112887	-0.880692407	 0.105267
H	 1.2622403762	-5.0998994716	 0.1955472469	 0.111869
H	 2.4565749026	-3.9791665309	-0.4996761966	 0.087746
H	 3.2628089876	-2.1546657659	 1.3036522314	 0.089357
H	 2.4266376627	-2.371106163	 2.8627791397	 0.10409
44.3099	82.217	135.3165	171.4276	241.596	266.1242	297.5091	381.4445	425.5508	468.7738	580.1074	673.031	749.1588	781.127	812.8362	869.9735	898.9737	935.6567	952.5122	976.2872	982.6275	1017.1719	1056.2366	1066.661	1090.2387	1106.5875	1124.044	1139.6128	1217.1659	1221.601	1235.742	1266.2268	1288.1115	1294.5366	1305.572	1330.0484	1345.9951	1363.3703	1406.2174	1408.6509	1476.8002	1482.0843	1489.555	1499.2446	1501.5547	1508.6358	1519.8099	2945.6306	2967.9779	3022.9526	3032.5676	3065.2279	3067.9219	3070.0699	3081.4765	3098.4271	3102.0157	3113.0411	3115.4822	3485.6852
CCC1NC11CCOC1	CC[C@H]1N[C@]21CCOC2	
InChI=1S/C7H13NO/c1-2-6-7(8-6)3-4-9-5-7/h6,8H,2-5H2,1H3	InChI=1S/C7H13NO/c1-2-6-7(8-6)3-4-9-5-7/h6,8H,2-5H2,1H3/t6-,7-/m1/s1
