17
gdb 7888	3.51048	1.73037	1.23782	3.5359	71.22	-0.2104	0.0049	0.2153	992.4449	0.141914	-363.924846	-363.916665	-363.915721	-363.957227	30.224	
C	-0.1432482572	 1.5689615337	 0.0342179682	-0.387649
C	 0.0124348785	 0.0422024968	-0.0297801886	-0.153419
C	 0.7948353856	-0.5010871219	-1.199350028	-0.227757
C	 1.8253336323	-1.2305776395	-0.7529897899	 0.358174
C	 2.8801381497	-1.9757846727	-1.4972570703	-0.498461
N	 1.8294920434	-1.2480193055	 0.6576615439	-0.374516
C	 0.8016439712	-0.4894881835	 1.1848200861	 0.409903
O	 0.5920520903	-0.2865422288	 2.3590810259	-0.379457
H	 0.8290998272	 2.0641126768	-0.0472194839	 0.12081
H	-0.7779913785	 1.9301718817	-0.7800887141	 0.113856
H	-0.5960779956	 1.8542247474	 0.9876218979	 0.139836
H	-0.9886769626	-0.4096893894	 0.0205602081	 0.113923
H	 0.5526109077	-0.3329455741	-2.2385895198	 0.097303
H	 3.8823548712	-1.610521346	-1.2411622596	 0.13485
H	 2.8549468874	-3.0461653284	-1.2592447034	 0.136404
H	 2.7392706239	-1.8609760604	-2.5737032918	 0.141318
H	 2.5334796956	-1.6805034759	 1.2332830093	 0.254883
98.3294	151.5304	182.7414	214.3849	231.6484	287.5966	364.3767	458.5823	512.5564	589.5308	605.5068	658.7043	713.9115	756.657	805.9867	922.6588	989.1258	1008.552	1031.2123	1065.7635	1090.7761	1100.3598	1195.455	1201.7363	1277.4437	1297.0541	1334.4867	1400.6526	1408.7573	1422.9351	1475.7254	1491.5873	1493.1102	1499.2569	1714.9464	1833.407	3009.4475	3024.236	3040.7726	3072.7555	3112.5702	3123.4889	3132.0511	3236.2941	3654.4904
CC1C=C(C)NC1=O	C[C@H]1C=C(C)NC1=O	
InChI=1S/C6H9NO/c1-4-3-5(2)7-6(4)8/h3-4H,1-2H3,(H,7,8)	InChI=1S/C6H9NO/c1-4-3-5(2)7-6(4)8/h3-4H,1-2H3,(H,7,8)/t4-/m0/s1
