16
gdb 97289	1.91613	1.17824	0.77708	3.5761	76.08	-0.2669	-0.0384	0.2285	1436.0902	0.122701	-434.096103	-434.086457	-434.085513	-434.131987	32.42	
C	 0.1488954057	 1.4187417075	-0.0507796068	-0.317272
N	-0.0529219937	-0.0150937631	-0.0427601023	-0.222771
C	 0.6222377118	-0.7104582645	-0.8492416901	 0.124779
N	 0.5245410411	-2.1083833456	-0.9158792325	-0.119709
C	 1.2496008221	-2.832315031	-1.9525883237	-0.315732
C	 2.7052265486	-2.6826947881	-1.8401849632	 0.268564
N	 3.849331461	-2.543475155	-1.7652946724	-0.294878
C	-0.2533825249	-2.8431447833	-0.0274472528	 0.173819
O	-0.367913965	-4.044979756	-0.0822865749	-0.31476
H	 0.8827174753	 1.7577338454	-0.7985032394	 0.107806
H	-0.8060828581	 1.9194920835	-0.2438986892	 0.1372
H	 0.4856748962	 1.7444298641	 0.9394658556	 0.140297
H	 1.3481943883	-0.3029762059	-1.5651641978	 0.113548
H	 0.9755744961	-3.8849075466	-1.8375881302	 0.204793
H	 0.9366926941	-2.5050117397	-2.9505365404	 0.168254
H	-0.7406405384	-2.1963706916	 0.71282308	 0.146063
41.9531	68.6085	104.2253	164.2851	199.5458	200.5555	288.7462	303.5246	372.977	377.5589	397.4295	449.6707	629.9681	742.5663	894.1165	956.5204	974.7745	992.7528	1043.6671	1053.7661	1141.4475	1156.5061	1229.398	1261.0037	1351.5717	1385.2785	1419.0205	1429.6252	1449.1876	1468.7928	1477.4194	1503.4591	1764.4337	1797.6786	2365.9095	2981.5937	3031.8066	3048.0178	3070.0142	3075.6169	3087.7221	3106.9915
CN=CN(CC#N)C=O	CN=CN(CC#N)C=O	
InChI=1S/C5H7N3O/c1-7-4-8(5-9)3-2-6/h4-5H,3H2,1H3	InChI=1S/C5H7N3O/c1-7-4-8(5-9)3-2-6/h4-5H,3H2,1H3
