18
gdb 8461	3.9101	1.75872	1.58827	1.7064	67.	-0.2479	0.0743	0.3222	862.2058	0.154884	-384.927366	-384.920161	-384.919217	-384.958205	29.236	
O	-0.0555259692	 1.3942232013	-0.0426619896	-0.442858
C	-0.0250658259	-0.0214159462	 0.02608901	 0.143589
C	 0.4818778449	-0.5966256737	 1.3909901182	-0.319494
C	-0.8096521545	-1.3178278646	 1.8342333921	 0.422325
O	-0.7860640207	-2.0616958395	 3.0124974787	-0.485323
C	-1.2371203764	-2.0296334952	 0.5283309555	-0.264239
C	-1.46276505	-0.5652870022	 0.0504085858	-0.031576
C	-1.9068068684	-0.2530717662	 1.5065372842	-0.287997
H	 0.8513320281	 1.7145007722	-0.0165859629	 0.281144
H	 0.5418281488	-0.4331339522	-0.8209899477	 0.063388
H	 1.3237630408	-1.2880569289	 1.291070484	 0.097452
H	 0.7650651098	 0.2126879779	 2.0732150098	 0.086133
H	-0.4628612048	-1.4966060553	 3.7224918188	 0.277227
H	-0.494976215	-2.6444258663	 0.0095900078	 0.088483
H	-2.1733588579	-2.5784353251	 0.6462898841	 0.105497
H	-2.0877339217	-0.326908864	-0.8080058757	 0.069704
H	-2.9084487828	-0.626066122	 1.7289377034	 0.097914
H	-1.7760506651	 0.7687346199	 1.8691533233	 0.09863
162.1631	232.5134	270.9259	292.9105	357.0865	408.5786	457.0615	478.7992	524.6013	618.9774	679.0568	814.3839	841.6974	843.7239	906.8642	934.2128	956.8399	978.3924	1006.0275	1016.9849	1036.6271	1103.973	1121.2117	1130.7397	1151.0898	1196.4491	1209.4579	1229.3618	1239.4683	1255.1128	1287.6362	1322.2795	1346.05	1384.7263	1423.9106	1482.1392	1485.0912	1527.8076	2993.549	3039.0239	3052.8026	3070.5335	3093.4545	3123.9308	3134.5921	3137.6051	3804.45	3821.1895
OC1CC2(O)CC1C2	O[C@H]1C[C@]2(O)C[C@H]1C2	
InChI=1S/C6H10O2/c7-5-3-6(8)1-4(5)2-6/h4-5,7-8H,1-3H2	InChI=1S/C6H10O2/c7-5-3-6(8)1-4(5)2-6/h4-5,7-8H,1-3H2/t4-,5-,6-/m0/s1
