21
gdb 119530	4.04717	0.92326	0.84131	1.3531	83.34	-0.2248	0.0234	0.2482	1419.2265	0.18308	-387.08374	-387.074955	-387.074011	-387.11741	33.83	
O	-0.1318432446	 1.4636835109	-0.131048221	-0.420274
C	-0.0242774623	 0.0499555479	-0.2120005472	-0.068681
C	-1.3631046904	-0.5442827831	 0.2171460523	-0.28584
C	-1.384644085	-2.0555536453	 0.1682215053	 0.362302
C	-1.6736355804	-2.7464556986	-1.1434445938	-0.320146
C	-2.6798624588	-2.8391282511	-0.0097311412	-0.137643
C	-2.544001089	-4.0451777823	 0.8554364921	-0.067224
C	-1.3647361151	-4.072863322	 1.4805272615	-0.087211
C	-0.5363476071	-2.8407615774	 1.1811856654	-0.328365
H	 0.7103811526	 1.8451086845	-0.3947513909	 0.284327
H	 0.2118635839	-0.2768609953	-1.2374625866	 0.086656
H	 0.7793360688	-0.3251227261	 0.442190655	 0.0859
H	-1.5875478883	-0.1943958675	 1.2328142262	 0.10349
H	-2.1429801408	-0.1344025603	-0.4352329329	 0.101189
H	-1.9265456311	-2.1075985953	-1.9845510807	 0.106221
H	-1.1274285504	-3.6472470522	-1.4056717719	 0.106934
H	-3.6388697607	-2.343649095	-0.1206377221	 0.084427
H	-3.3098531044	-4.8098203453	 0.921426095	 0.093167
H	-1.007711752	-4.8738669024	 2.1179471987	 0.090867
H	 0.456629049	-3.096573012	 0.7889503692	 0.106067
H	-0.3612996538	-2.2480185321	 2.0910925076	 0.103837
77.4634	105.2601	124.2172	245.1193	263.1148	321.3569	334.0321	371.5804	415.7809	494.9287	664.7018	724.7293	748.8103	777.4785	800.7329	865.2717	886.1609	929.963	950.1802	962.1718	980.0023	999.7703	1015.7994	1042.3672	1066.1905	1073.4169	1079.6289	1094.5198	1142.6699	1175.7011	1211.9218	1240.7733	1247.3039	1279.0669	1306.3675	1329.2744	1343.97	1372.5465	1401.0342	1461.1613	1471.2468	1481.958	1495.1026	1527.5363	1669.7451	2964.2829	2990.0508	2999.462	3026.3871	3035.2306	3070.3221	3115.9747	3159.613	3184.5318	3204.623	3209.4206	3830.9938
OCCC12CC1C=CC2	OCC[C@]12C[C@H]1C=CC2	
InChI=1S/C8H12O/c9-5-4-8-3-1-2-7(8)6-8/h1-2,7,9H,3-6H2	InChI=1S/C8H12O/c9-5-4-8-3-1-2-7(8)6-8/h1-2,7,9H,3-6H2/t7-,8-/m1/s1
