23
gdb 121963	2.15796	0.84642	0.64162	1.3306	88.6	-0.2486	0.058	0.3066	1827.0124	0.201732	-388.260528	-388.249034	-388.248089	-388.298489	40.676	
C	-0.0166645709	 1.5266100369	 0.0836822549	-0.383231
C	-0.0368420914	 0.0042566674	-0.0715995336	-0.180286
C	 0.8181030224	-0.473447369	-1.2381043064	-0.040926
O	 0.7328623586	-1.8827357154	-1.306347988	-0.254424
C	 1.3839418407	-2.4793482249	-2.4141888278	 0.143956
C	 2.8856959387	-2.6477431721	-2.1681894779	-0.40448
C	 0.6978092291	-3.8395098054	-2.6399620694	-0.362864
C	-0.693042069	-3.7206110889	-3.0577602849	 0.310199
C	-1.8331069507	-3.6175000844	-3.4235107612	-0.446429
H	 0.9987083586	 1.8977636806	 0.2625148532	 0.114636
H	-0.3974443609	 2.0252465837	-0.8146404941	 0.116171
H	-0.6377155953	 1.8437664035	 0.9263225076	 0.117093
H	 0.3252581573	-0.4764152724	 0.8445306588	 0.105008
H	-1.0614977511	-0.351475974	-0.2267249311	 0.11116
H	 0.4614597954	-0.0264883713	-2.1817647886	 0.086923
H	 1.860993338	-0.1428967716	-1.0988121957	 0.082288
H	 1.2268049631	-1.8580965113	-3.3102739666	 0.07512
H	 3.0595478177	-3.2917915385	-1.3000733364	 0.123373
H	 3.3761427241	-3.0951347696	-3.0387142088	 0.11475
H	 3.3632052799	-1.6828326147	-1.9772442946	 0.119665
H	 1.2630211408	-4.4038395232	-3.3916508459	 0.124729
H	 0.7607072071	-4.4075064462	-1.7032783077	 0.1363
H	-2.8435938022	-3.5300639089	-3.7366986257	 0.191271
42.1999	44.6786	87.4698	120.6762	142.3933	165.5848	225.8533	232.2961	286.0159	317.5127	344.606	399.8466	424.2706	499.2579	558.2358	610.5045	636.5865	765.5085	844.8214	886.1665	901.7354	913.0815	915.3691	985.2905	1046.9181	1074.8452	1112.8223	1117.8482	1148.9038	1163.8232	1192.0106	1256.0172	1268.3281	1310.9996	1315.3953	1332.593	1375.4151	1378.5372	1405.5952	1413.7333	1441.4056	1457.6716	1490.1533	1491.9931	1496.6638	1501.1203	1507.7338	1527.3282	2241.2353	2952.3171	2978.9609	2980.6548	3027.5164	3031.1679	3038.9112	3040.368	3065.6608	3073.0107	3099.7251	3107.679	3109.9062	3116.745	3508.3218
CCCOC(C)CC#C	CCCO[C@@H](C)CC#C	
InChI=1S/C8H14O/c1-4-6-8(3)9-7-5-2/h1,8H,5-7H2,2-3H3	InChI=1S/C8H14O/c1-4-6-8(3)9-7-5-2/h1,8H,5-7H2,2-3H3/t8-/m0/s1
