16
gdb 74253	3.25275	1.3454	1.11106	3.9685	73.84	-0.2641	-0.0161	0.248	1098.5409	0.12528	-396.930491	-396.92265	-396.921706	-396.963001	29.167	
C	-0.0312905878	 1.4707109569	 0.0496892495	-0.472644
C	 0.0063032546	-0.0173366601	-0.022509986	 0.338324
N	 0.0673099863	-0.6862378819	-1.1083420154	-0.248095
C	 0.0699329976	-2.1191398491	-0.7460099826	-0.151614
C	 1.1910838379	-2.8284192558	-1.3749907608	 0.29813
N	 2.0772243024	-3.4042225178	-1.8414273681	-0.324872
C	 0.1022404616	-2.1431178263	 0.7918616071	-0.041937
C	 1.2220779449	-1.4547464588	 1.4701480511	-0.251723
N	-0.0614552035	-0.7404529027	 1.2185621299	-0.146284
H	 0.7911177485	 1.8383017375	 0.672910431	 0.145643
H	 0.0424799925	 1.9015107352	-0.9484351676	 0.154406
H	-0.9610228007	 1.7960076536	 0.5272643804	 0.153592
H	-0.8574084425	-2.5789705841	-1.1100178728	 0.141025
H	-0.4847085738	-2.8886474461	 1.3152788835	 0.120526
H	 1.4251774784	-1.6629587022	 2.515169639	 0.137495
H	 2.0823095638	-1.1610387081	 0.8745575119	 0.148027
98.2267	139.7315	165.0894	210.1807	321.1349	344.4287	371.9777	511.2591	557.2019	629.7362	650.3143	742.1719	795.3312	839.638	865.8888	929.7587	985.8534	1015.4045	1044.0972	1061.3799	1071.9873	1096.5238	1114.9128	1159.0645	1215.6623	1275.3857	1291.6991	1326.906	1371.9256	1409.2575	1469.1743	1474.561	1500.6867	1704.5369	2363.845	3033.9	3046.9811	3103.5775	3119.7996	3163.2953	3182.9614	3216.3098
CC1=NC(C#N)C2CN12	CC1=N[C@@H](C#N)[C@H]2CN12	
InChI=1S/C6H7N3/c1-4-8-5(2-7)6-3-9(4)6/h5-6H,3H2,1H3	InChI=1S/C6H7N3/c1-4-8-5(2-7)6-3-9(4)6/h5-6H,3H2,1H3/t5-,6+,9?/m0/s1
