16
gdb 9217	7.99525	0.77477	0.72946	3.3529	63.45	-0.255	-0.0246	0.2304	1485.7457	0.127379	-420.920642	-420.911342	-420.910398	-420.956519	30.252	
C	 0.072605379	 1.3818779248	 0.0069287536	-0.241784
O	-0.0378887356	-0.041500291	 0.1522226752	-0.23118
C	-1.2644232839	-0.5495968702	-0.0638662775	 0.456828
O	-2.2291135863	 0.1163860589	-0.3441557757	-0.354491
C	-1.2511974974	-2.0619258047	 0.0663410668	-0.343535
C	-2.6501916206	-2.6309024332	 0.3276003621	-0.266589
C	-2.7184294325	-4.1154076612	 0.0568191217	 0.16034
O	-3.1614762423	-4.9390969896	 0.8132343068	-0.236349
H	 1.1152414413	 1.6202559587	 0.2159536891	 0.136926
H	-0.1949929024	 1.6871776433	-1.0076639507	 0.142792
H	-0.5868982082	 1.8921178393	 0.7130519972	 0.144721
H	-0.8487098112	-2.4566908624	-0.8773889817	 0.139683
H	-0.5376114495	-2.3504514376	 0.8427771208	 0.142789
H	-2.9850424144	-2.438123547	 1.3497649427	 0.130592
H	-3.3510133695	-2.1294624589	-0.3534978944	 0.149798
H	-2.3194586765	-4.4124497192	-0.9435342958	 0.069459
40.0761	56.162	74.8785	111.4835	157.4981	183.9312	298.4817	301.9847	408.9704	521.1213	603.3768	697.9541	781.7903	858.8998	895.4855	1006.6641	1036.7288	1093.2875	1097.2655	1178.6125	1190.926	1204.2565	1220.3973	1264.9886	1316.2395	1384.0117	1430.4654	1457.4516	1470.5862	1474.2442	1481.4166	1496.6424	1820.0675	1840.8511	2839.5955	3023.4176	3035.7939	3054.0992	3095.2539	3115.2375	3129.7948	3162.6877
COC(=O)CCC=O	COC(=O)CCC=O	
InChI=1S/C5H8O3/c1-8-5(7)3-2-4-6/h4H,2-3H2,1H3	InChI=1S/C5H8O3/c1-8-5(7)3-2-4-6/h4H,2-3H2,1H3
