25
gdb 101225	3.47524	0.77179	0.6862	1.3984	89.83	-0.2616	0.0794	0.3409	1750.8073	0.227605	-389.487071	-389.476308	-389.475364	-389.523044	39.984	
C	 0.0531877335	 1.5189928947	-0.1134460263	-0.396421
C	 0.0842538888	-0.0014150655	 0.0884664635	 0.012985
C	 0.7678430357	-0.3691496171	 1.4060806825	-0.077612
O	 2.1095352496	 0.0992542533	 1.3651081794	-0.424468
C	-1.3144483927	-0.6105613325	 0.0189802549	 0.055017
C	-2.1048361109	-0.5314481913	-1.3178792629	-0.255964
C	-2.6479978724	-1.9620584745	-1.0442588733	 0.051869
C	-2.7955325605	-2.933746009	-2.204485525	-0.406695
C	-1.483036018	-2.1568758685	-0.0336036268	-0.257173
H	 1.0599214973	 1.9363052672	-0.041899797	 0.130992
H	-0.36249948	 1.7802319459	-1.091462826	 0.110424
H	-0.567792509	 2.0004051874	 0.6524078984	 0.103231
H	 0.6901759848	-0.4450879334	-0.715060531	 0.072414
H	 0.2141701833	 0.0866064204	 2.2449014686	 0.078447
H	 0.7383224928	-1.4608278195	 1.5479889288	 0.085828
H	 2.5247258546	-0.1027673122	 2.2081904984	 0.284816
H	-1.9299686146	-0.2006939204	 0.8309466428	 0.061548
H	-2.8277319852	 0.278350552	-1.4457218861	 0.092418
H	-1.4235833291	-0.5281569604	-2.1772576383	 0.093348
H	-3.5956254162	-1.8927000518	-0.4972570652	 0.068354
H	-1.8576885585	-3.0209142863	-2.7652529669	 0.109444
H	-3.0682638673	-3.9360752943	-1.8546826428	 0.111572
H	-3.5719596474	-2.6040773659	-2.9043562243	 0.112138
H	-0.6190110613	-2.6307661868	-0.5152181286	 0.093581
H	-1.6952047471	-2.6888927016	 0.8977433933	 0.089908
62.2848	76.9091	119.3981	142.8392	225.5454	226.7353	247.2633	255.5876	301.6805	318.9259	365.9644	418.9197	433.9249	498.57	621.6414	777.3905	811.0704	872.3372	897.1576	912.3882	928.3937	954.2395	966.9475	984.5834	1024.5404	1060.7995	1078.707	1110.3488	1130.8372	1144.8945	1170.6952	1194.685	1225.5005	1232.4539	1260.2319	1265.5264	1268.8131	1275.8397	1302.8801	1315.7665	1360.9612	1372.0554	1397.3677	1403.2047	1412.3071	1457.4063	1475.436	1493.0112	1493.9007	1496.0325	1503.3451	1505.3395	1520.2823	2953.5198	2987.96	3003.168	3017.4733	3020.2314	3029.1555	3030.1909	3030.9278	3039.8157	3086.8304	3087.5284	3091.8084	3093.6584	3099.2402	3128.2192	3833.5429
CC(CO)C1CC(C)C1	C[C@@H](CO)[C@H]1C[C@@H](C)C1	
InChI=1S/C8H16O/c1-6-3-8(4-6)7(2)5-9/h6-9H,3-5H2,1-2H3	InChI=1S/C8H16O/c1-6-3-8(4-6)7(2)5-9/h6-9H,3-5H2,1-2H3/t6-,7-,8+/m0/s1
