20
gdb 56273	4.49503	0.71189	0.66594	3.0522	76.68	-0.2285	0.0573	0.2858	1706.7443	0.171313	-436.470866	-436.460943	-436.459998	-436.507187	35.643	
N	 0.1567796034	 1.0604133215	 0.1431290662	-0.564049
C	-0.2987220721	-0.2447321539	 0.3105260865	 0.445516
O	-0.1814681196	-0.8533897582	 1.3592635024	-0.39329
N	-0.8633838695	-0.7931530307	-0.8171665386	-0.335384
C	-1.2064003285	-2.209149886	-0.8389504842	-0.159126
C	-2.589251425	-2.4752798906	-0.2363728255	-0.130692
N	-2.8719728105	-3.9050465854	-0.2592070973	-0.069202
C	-2.4123402613	-4.6581243911	 0.9079889141	-0.223427
C	-3.8591952216	-4.3756075247	 0.7064645818	-0.220651
H	 0.3499767134	 1.5099722018	 1.0255275085	 0.259702
H	-0.3449217077	 1.6473186565	-0.5070581723	 0.245028
H	-0.6869274328	-0.3422938912	-1.6992830277	 0.241812
H	-1.1842828603	-2.5572585794	-1.874948351	 0.107233
H	-0.4558102578	-2.7719555118	-0.2746769575	 0.131189
H	-2.6137668224	-2.0542340886	 0.7824026723	 0.105831
H	-3.3551529069	-1.9605987866	-0.8288431271	 0.093795
H	-2.0108005841	-5.646575646	 0.7042152625	 0.11402
H	-1.9008399146	-4.1084765569	 1.696374038	 0.128435
H	-4.3176239593	-3.6397310813	 1.3653134996	 0.109638
H	-4.5311338326	-5.1534179377	 0.3547522993	 0.113622
36.5266	55.4882	82.7985	109.75	205.7128	272.9991	313.8063	337.1941	402.7698	424.5143	429.2795	523.9147	569.8934	670.0204	774.1525	784.6978	794.7587	843.7709	898.8733	924.8208	1016.1257	1037.1849	1070.5428	1089.1759	1113.1624	1119.7463	1136.0257	1157.4926	1177.6568	1204.3897	1270.3367	1318.9957	1329.2395	1330.0085	1352.8375	1422.2145	1472.6917	1491.0747	1499.2638	1525.8229	1532.5303	1627.8918	1797.8183	2969.9786	3049.7184	3055.6213	3095.0556	3100.873	3108.9566	3177.3894	3192.5724	3571.1104	3644.5201	3683.8956
NC(=O)NCCN1CC1	NC(=O)NCCN1CC1	
InChI=1S/C5H11N3O/c6-5(9)7-1-2-8-3-4-8/h1-4H2,(H3,6,7,9)	InChI=1S/C5H11N3O/c6-5(9)7-1-2-8-3-4-8/h1-4H2,(H3,6,7,9)
