15
gdb 52214	3.64623	0.83234	0.79536	4.9673	69.15	-0.2766	-0.0033	0.2733	1426.4491	0.109378	-457.717394	-457.708361	-457.707417	-457.752618	31.3	
O	 0.2859187737	 0.4269323398	-0.9929657926	-0.268705
C	 0.3660405962	 1.5641271564	-0.6428076945	 0.177894
O	 0.8005961308	 1.9091622695	 0.5919394836	-0.182575
C	 0.9099847523	 3.3084601281	 0.8752964097	-0.139975
C	 2.2763748154	 3.8144775625	 0.4940691183	 0.062782
O	 2.4845993462	 4.0667232737	-0.8932519648	-0.236198
C	 2.4894724235	 5.1934080372	 0.0008261924	-0.146835
C	 1.4216256187	 6.1499870496	-0.1218237267	 0.329247
C	 0.555438355	 6.9778903679	-0.2161197344	-0.421594
H	 0.0941806919	 2.43801922	-1.2626833849	 0.094723
H	 0.1374891018	 3.8768551655	 0.3477511682	 0.133821
H	 0.7478041977	 3.4108751002	 1.9515405878	 0.135092
H	 3.1110111913	 3.3210481638	 0.9928624587	 0.119168
H	 3.4771217932	 5.6266896987	 0.1542890811	 0.130054
H	-0.2118834677	 7.7074950372	-0.3054984318	 0.213104
42.076	65.543	112.6534	143.8465	202.5196	264.5975	339.7851	360.0314	461.3902	554.0493	576.3843	639.8796	680.6833	684.9794	816.8487	823.8618	928.2802	1018.764	1031.2377	1042.0054	1063.1441	1116.4729	1137.6344	1185.8126	1280.0283	1302.7913	1362.2126	1397.8148	1428.3605	1461.4838	1489.5139	1870.6108	2241.3437	2976.5538	3058.4822	3107.2384	3117.4766	3125.9392	3499.1602
O=COCC1OC1C#C	O=COC[C@H]1O[C@H]1C#C	
InChI=1S/C6H6O3/c1-2-5-6(9-5)3-8-4-7/h1,4-6H,3H2	InChI=1S/C6H6O3/c1-2-5-6(9-5)3-8-4-7/h1,4-6H,3H2/t5-,6+/m0/s1
