22
gdb 58285	2.92578	0.85129	0.76148	2.074	79.01	-0.2441	0.036	0.2801	1586.4792	0.191417	-441.529844	-441.518568	-441.517624	-441.567088	40.699	
C	 0.080442227	 1.5446816196	 0.0205910128	-0.414092
C	-0.0285047098	 0.0195279839	 0.0598320691	 0.126417
O	 0.5393900083	-0.4844816342	 1.2719929992	-0.432565
C	-1.465835197	-0.5056145046	-0.1354651019	 0.033497
C	-2.1065747277	-0.0227004209	-1.4441530636	-0.414393
C	-1.4898829301	-2.0379992684	-0.0446622422	-0.325532
C	-2.8811003174	-2.5962785939	 0.2413426986	 0.405915
N	-3.0566622664	-3.904224286	-0.1180822627	-0.523231
O	-3.7716629206	-1.9442169696	 0.7543270929	-0.364537
H	 1.1019586037	 1.8441632972	 0.2696410772	 0.122974
H	-0.1654573683	 1.9493181889	-0.9645797402	 0.121904
H	-0.5996480901	 2.0029467542	 0.7500794874	 0.108974
H	 0.6112233837	-0.4014721957	-0.7278877527	 0.081646
H	 0.0438600287	-0.098372114	 2.0035480355	 0.277119
H	-2.0759866168	-0.1305962211	 0.6975765476	 0.089359
H	-3.1037037591	-0.456247775	-1.557734686	 0.133948
H	-2.2189396857	 1.0641576978	-1.4697406594	 0.116592
H	-1.5047414724	-0.3195699943	-2.3124200632	 0.106069
H	-1.0875707239	-2.4876048422	-0.9619807819	 0.095974
H	-0.8312674482	-2.3541808745	 0.7727100639	 0.139923
H	-2.2867005996	-4.4759939246	-0.4190734736	 0.256434
H	-3.906183328	-4.3606939824	 0.1725558331	 0.257604
30.6849	63.1996	80.1844	149.4716	205.0575	220.0708	237.9008	263.0695	321.2127	331.3573	347.6827	369.0504	457.1582	465.4849	514.1564	530.2127	619.0459	654.9208	819.6191	855.1461	893.938	917.9104	948.5026	978.2024	1069.332	1078.5567	1085.3888	1106.373	1155.8775	1171.805	1220.0682	1250.6207	1294.6868	1327.1211	1351.8343	1378.576	1398.1649	1403.9374	1408.0693	1419.9542	1466.0291	1492.2136	1493.3566	1496.1503	1513.5158	1617.566	1790.9164	3012.0013	3019.4591	3024.2577	3028.2726	3035.5105	3071.6826	3099.9686	3101.9579	3118.9617	3126.2666	3597.1245	3732.5189	3791.0141
CC(O)C(C)CC(N)=O	C[C@@H](O)[C@@H](C)CC(=O)N	
InChI=1S/C6H13NO2/c1-4(5(2)8)3-6(7)9/h4-5,8H,3H2,1-2H3,(H2,7,9)	InChI=1S/C6H13NO2/c1-4(5(2)8)3-6(7)9/h4-5,8H,3H2,1-2H3,(H2,7,9)/t4-,5+/m0/s1
