21
gdb 114990	2.46662	1.29654	0.90631	2.2915	80.84	-0.2488	0.0166	0.2655	1320.6188	0.182745	-424.237266	-424.228209	-424.227265	-424.270996	34.64	
C	-0.0200847699	 1.4753116846	-0.1611706298	-0.398312
C	 0.0058516733	-0.0476121548	-0.0517641768	 0.098046
O	 0.6566170153	-0.5359600588	-1.2190638335	-0.294296
C	 0.9876093014	-1.9232650667	-1.162843041	 0.102171
C	 1.4544335109	-2.2820002266	-2.568409861	-0.068582
O	 0.4553536421	-2.0098879275	-3.5282221027	-0.42684
C	 2.0291695673	-2.1768468383	-0.0718600413	-0.270758
C	 1.6327722746	-1.4630762771	 1.1939280899	-0.082073
C	 0.6946707573	-0.5196392676	 1.2040331869	-0.058921
H	 0.9985166445	 1.8732704289	-0.1554365682	 0.127874
H	-0.5084577026	 1.7778144725	-1.0915073037	 0.12175
H	-0.5714802349	 1.9098186972	 0.6779078054	 0.116004
H	-1.0379833591	-0.4149146033	-0.0440581588	 0.076457
H	 0.0748048285	-2.4991228272	-0.9372745934	 0.07404
H	 2.3837221469	-1.7284515813	-2.7835935526	 0.087879
H	 1.6798662004	-3.3522696725	-2.6242462228	 0.104867
H	 0.1501399621	-1.1161559139	-3.3292985573	 0.286867
H	 2.1161502081	-3.2551461625	 0.1129554195	 0.108254
H	 3.0205459208	-1.840586435	-0.4078510769	 0.112594
H	 2.129761122	-1.7542863582	 2.1155454172	 0.092351
H	 0.3895662511	-0.0401344519	 2.1304859708	 0.090628
89.0765	131.6629	138.7884	197.7649	229.3743	289.2751	352.5741	400.1595	460.5065	464.9481	475.6828	522.9854	578.9074	687.6778	786.7229	837.5535	861.4407	916.6674	955.5115	980.765	997.4839	1056.279	1066.77	1085.5566	1097.3676	1107.5681	1130.9242	1163.9029	1207.1779	1213.8914	1256.0284	1297.7868	1339.4339	1341.0382	1372.1858	1391.0263	1395.7743	1409.0039	1420.6974	1445.3981	1469.6396	1484.584	1497.3643	1498.7662	1724.4701	2919.0635	2963.0509	2976.4296	3008.026	3043.6966	3047.162	3075.6926	3119.8053	3124.0588	3150.9654	3173.9264	3785.82
CC1OC(CO)CC=C1	C[C@H]1O[C@@H](CO)CC=C1	
InChI=1S/C7H12O2/c1-6-3-2-4-7(5-8)9-6/h2-3,6-8H,4-5H2,1H3	InChI=1S/C7H12O2/c1-6-3-2-4-7(5-8)9-6/h2-3,6-8H,4-5H2,1H3/t6-,7-/m1/s1
