21
gdb 112551	2.40804	1.23459	1.05457	2.9188	74.62	-0.2435	0.0546	0.2981	1258.9437	0.179813	-461.347239	-461.33697	-461.336026	-461.382294	37.984	
C	 0.4955520441	 1.2635327909	-0.2699362623	-0.422146
C	 0.0687046969	-0.1678506576	 0.0186734103	 0.404714
C	-1.4191313877	-0.3864118922	-0.2189372852	-0.429925
O	 0.8485398246	-1.1226435782	-0.774337828	-0.357488
C	 1.44217685	-1.7188834991	 0.4065574018	 0.079996
C	 2.9545813479	-1.5532712204	 0.3689304607	-0.074127
O	 3.4639285859	-2.0937463204	-0.8360773374	-0.425938
C	 0.6196357597	-0.789200974	 1.332935915	-0.015212
O	 1.3192601975	 0.1291121122	 2.1416147683	-0.42028
H	 1.5585970171	 1.4103236318	-0.0741731343	 0.132297
H	 0.2958752264	 1.4946224782	-1.3211694958	 0.118397
H	-0.0649858744	 1.9676341645	 0.3522657448	 0.121459
H	-1.6774278809	-0.1459537786	-1.2550189647	 0.12561
H	-1.6938149525	-1.428965791	-0.0339287532	 0.117434
H	-2.0139352473	 0.2540762212	 0.4410969422	 0.118844
H	 1.1857170937	-2.784561774	 0.465620721	 0.074522
H	 3.217879671	-0.4926305283	 0.4832465817	 0.098537
H	 3.4215531959	-2.1051450558	 1.1930958717	 0.097173
H	 2.924459207	-1.7074371686	-1.5379206013	 0.29109
H	-0.1493050449	-1.3153063573	 1.9111596914	 0.073163
H	 1.5471602502	-0.3027400934	 2.9702524334	 0.291878
56.9946	107.6302	160.8965	176.4095	219.584	236.5265	250.2929	262.6763	325.0836	361.8802	402.2843	461.8829	472.0254	545.7273	553.5932	696.2638	824.2849	838.8642	874.86	931.6832	943.1767	981.5963	998.6127	1043.161	1081.9328	1117.6861	1133.5126	1172.1278	1182.7222	1217.5234	1257.5571	1273.2218	1281.3752	1322.6824	1342.1962	1394.2319	1400.7608	1411.4778	1433.514	1444.3255	1472.8038	1476.6809	1495.4628	1502.2505	1506.5231	3008.3197	3016.821	3030.8351	3034.9177	3045.9334	3066.5242	3105.8891	3112.5616	3115.1479	3141.2302	3773.8598	3830.1151
CC1(C)OC(CO)C1O	CC1(C)O[C@@H](CO)[C@H]1O	
InChI=1S/C6H12O3/c1-6(2)5(8)4(3-7)9-6/h4-5,7-8H,3H2,1-2H3	InChI=1S/C6H12O3/c1-6(2)5(8)4(3-7)9-6/h4-5,7-8H,3H2,1-2H3/t4-,5+/m0/s1
