17
gdb 6870	2.88187	1.66773	1.46389	3.9875	69.82	-0.269	0.0265	0.2955	949.4949	0.140085	-363.870037	-363.861112	-363.860168	-363.902996	32.429	
C	-0.123110067	 1.5709954034	-0.0134765525	-0.449925
C	-0.009490921	 0.0602415668	-0.0174511933	 0.269053
C	-1.2277921961	-0.67243128	-0.5456193601	-0.451344
C	 1.3311866477	-0.5614436865	-0.2576366624	 0.074022
O	 2.3996346691	 0.2898183189	-0.4932137631	-0.407139
C	 0.7206939962	-0.6303386713	 1.1508263789	-0.289493
C	 1.334340598	 0.1301820894	 2.1966154314	 0.296829
N	 1.8517423269	 0.7303926425	 3.0407520663	-0.348473
H	 0.7886289742	 2.0467293515	 0.3475440515	 0.154263
H	-0.3130837502	 1.931756723	-1.029936104	 0.123033
H	-0.9575168403	 1.8897833139	 0.6195696758	 0.123996
H	-1.4393745317	-0.3665460309	-1.5760362359	 0.129053
H	-1.0865361821	-1.7577812481	-0.5406541318	 0.117395
H	-2.1114863979	-0.4459331446	 0.0604768625	 0.129738
H	 1.3619048373	-1.5085027862	-0.7975815213	 0.098911
H	 3.1642255939	-0.0186195998	 0.0060498596	 0.302792
H	 0.3303284629	-1.5909873222	 1.4714415683	 0.127289
109.7719	138.7052	168.3179	201.4384	229.5262	266.3474	285.8062	341.9821	378.7344	406.2172	510.6484	556.7248	650.9352	700.668	821.0553	828.9728	964.6099	975.2549	995.1993	1019.3064	1076.3377	1111.8632	1151.9295	1172.4379	1253.0328	1287.3051	1334.9611	1362.0208	1411.0465	1422.1098	1453.2506	1480.2677	1487.2705	1498.928	1512.2601	2346.1451	3029.1448	3041.5788	3092.7046	3096.7	3101.0589	3103.0924	3152.4952	3161.4862	3800.3957
CC1(C)C(O)C1C#N	CC1(C)[C@@H](O)[C@H]1C#N	
InChI=1S/C6H9NO/c1-6(2)4(3-7)5(6)8/h4-5,8H,1-2H3	InChI=1S/C6H9NO/c1-6(2)4(3-7)5(6)8/h4-5,8H,1-2H3/t4-,5+/m1/s1
