17
gdb 49620	3.10767	1.27219	1.0813	4.5716	73.83	-0.2412	-0.0203	0.2209	1133.636	0.135031	-421.777888	-421.770096	-421.769152	-421.810504	29.685	
O	-0.0058010288	-0.006323457	-0.1601001911	-0.268848
C	 0.0254216158	 1.1250004143	 0.2621980074	 0.145983
C	 1.2315254607	 1.9905005951	 0.1562492606	-0.113762
C	 1.2178209372	 3.4705313856	-0.1745433195	-0.073693
C	-0.0150339718	 4.1904937138	 0.3974717327	-0.341999
C	 0.4344011483	 3.7067760993	 1.7929968563	 0.450639
C	 0.2987421874	 4.3827551366	 3.0812500056	-0.268754
O	-0.4146525008	 3.1699617123	 2.7917440153	-0.268598
C	 1.6430609092	 3.0070140667	 1.215339348	-0.167176
H	-0.8559180427	 1.5700512126	 0.7659738446	 0.098099
H	 2.0746579931	 1.4615458092	-0.2792986484	 0.112657
H	 1.8442010379	 3.8494469879	-0.9714353786	 0.107518
H	 0.0526276231	 5.276638415	 0.2976036904	 0.119905
H	-0.9980619524	 3.8642182647	 0.0502234882	 0.121352
H	 1.0849272928	 4.2910531996	 3.8298463877	 0.121518
H	-0.3150140942	 5.2794217314	 3.1582800722	 0.119986
H	 2.6276398553	 2.956090343	 1.6638362185	 0.105171
75.7305	125.8548	204.7083	265.3454	309.258	366.2499	418.0427	457.1967	529.3708	607.818	786.7062	790.8493	810.5978	853.5259	883.8424	923.0873	958.3237	987.8118	1001.597	1022.0572	1050.3786	1076.4998	1095.3857	1120.3089	1144.5635	1167.4441	1182.1307	1198.5313	1239.2519	1284.5007	1308.6	1369.9878	1440.7912	1462.0867	1488.0098	1537.5326	1809.4261	2935.351	3066.1893	3079.8857	3116.2132	3160.7162	3167.0997	3188.452	3204.5125
O=CC1C2CC3(CO3)C12	O=C[C@H]1[C@H]2C[C@]3(CO3)[C@@H]12	
InChI=1S/C7H8O2/c8-2-5-4-1-7(3-9-7)6(4)5/h2,4-6H,1,3H2	InChI=1S/C7H8O2/c8-2-5-4-1-7(3-9-7)6(4)5/h2,4-6H,1,3H2/t4-,5+,6-,7+/m1/s1
