20
gdb 91067	3.33338	1.38746	1.3311	2.2095	77.84	-0.2261	0.0762	0.3023	1065.912	0.172919	-403.107805	-403.100254	-403.09931	-403.139947	30.405	
C	 0.2010515356	 1.5482866425	 0.0780039946	-0.400489
C	 0.1088559613	 0.035794587	-0.0254467324	 0.161125
C	 0.8399709145	-0.5822318747	-1.2436694131	-0.261242
C	 1.2935652795	-1.9514486795	-0.72332643	-0.055105
C	 2.8012685909	-2.2371781695	-0.5463217744	-0.063943
N	 3.3784250385	-1.0375340436	 0.0959887921	-0.327587
C	 2.7128983316	-2.0625040686	 0.9329365284	-0.085612
C	 1.1947904178	-1.8185643288	 0.8313330653	 0.12167
O	 0.7145638578	-0.5378107081	 1.1432637068	-0.272349
H	 1.2499951096	 1.8559671583	 0.1184246409	 0.132558
H	-0.2741140148	 2.0203656396	-0.7880621737	 0.108632
H	-0.3007573776	 1.9051648614	 0.9819189845	 0.120014
H	-0.9527876869	-0.2645000865	-0.0526440871	 0.059221
H	 0.1817087806	-0.6462207833	-2.1140132413	 0.091275
H	 1.7053425836	 0.0335422053	-1.4991259493	 0.11948
H	 0.7395160573	-2.7964237604	-1.1340764305	 0.072472
H	 3.4163422498	-2.9116988683	-1.1290092952	 0.091363
H	 4.3818009289	-1.1931422144	 0.183786954	 0.230497
H	 3.2502890624	-2.558049043	 1.7318580283	 0.089785
H	 0.6136310896	-2.6066587855	 1.3262737219	 0.068237
63.453	170.7656	236.1788	295.3674	308.5482	450.5502	455.2935	574.1047	610.9355	644.9078	721.0525	816.6388	825.4259	854.4322	861.468	888.0237	911.4831	915.5009	959.5352	982.6701	1020.4151	1037.8275	1073.5565	1093.1428	1105.3505	1126.8765	1140.0134	1153.9032	1178.8521	1215.8509	1249.5145	1264.6324	1284.9748	1314.5356	1339.7475	1353.9046	1375.9926	1378.2655	1392.044	1409.5836	1479.5687	1483.9538	1499.5911	2946.975	3023.5833	3039.1313	3063.9918	3098.6644	3111.7441	3117.7347	3122.6423	3183.0746	3196.596	3480.089
CC1CC2C3NC3C2O1	C[C@H]1C[C@H]2[C@H]3N[C@H]3[C@H]2O1	
InChI=1S/C7H11NO/c1-3-2-4-5-6(8-5)7(4)9-3/h3-8H,2H2,1H3	InChI=1S/C7H11NO/c1-3-2-4-5-6(8-5)7(4)9-3/h3-8H,2H2,1H3/t3-,4-,5+,6+,7-/m0/s1
