15
gdb 66642	3.53102	1.87355	1.70164	1.4756	61.31	-0.2527	0.0706	0.3233	810.2157	0.114682	-457.722052	-457.716217	-457.715273	-457.751949	24.923	
O	-0.0946301715	 1.3907225093	 0.1041770549	-0.465654
C	 0.0303292603	 0.0245370621	 0.0389007913	 0.405705
C	-1.0490544566	-1.0197325517	 0.0815840952	-0.153908
C	-0.1883746317	-0.8632366644	-1.1715293273	-0.194735
C	 0.8945255756	-1.9779712968	-1.0621938297	 0.134709
O	 0.3106506485	-2.942624916	-0.1945583745	-0.234712
C	-0.1214494408	-2.0187020041	 0.7957348039	 0.038979
C	 1.0371091311	-0.9024190972	 0.7592505635	-0.075921
O	 1.9111203528	-1.3927509524	-0.2488817144	-0.237221
H	 0.6126609877	 1.7872550483	-0.4172942728	 0.293594
H	-2.127753376	-0.9439628073	 0.1023235059	 0.104257
H	-0.5951642247	-0.4893824749	-2.0996932818	 0.102178
H	 1.3063684046	-2.4330579476	-1.9581415752	 0.097314
H	-0.402437294	-2.5122983264	 1.7210121502	 0.092484
H	 1.5648142547	-0.593455501	 1.6569250107	 0.092931
247.6771	287.3273	335.387	517.7931	564.8504	623.4972	651.4663	708.837	770.634	783.9306	796.2073	851.1044	865.1599	882.577	889.9584	905.9597	940.496	969.8184	995.9045	1008.2183	1037.9336	1097.5474	1125.4451	1140.4503	1186.0652	1208.9771	1225.7218	1253.529	1277.9548	1299.4076	1321.1582	1331.2253	1470.7323	3170.9914	3176.2688	3182.1273	3210.4895	3233.0674	3793.8274
OC12C3C1C1OC3C2O1	O[C@@]12[C@H]3[C@@H]1[C@@H]1O[C@H]3[C@H]2O1	
InChI=1S/C6H6O3/c7-6-1-2(6)5-8-3(1)4(6)9-5/h1-5,7H	InChI=1S/C6H6O3/c7-6-1-2(6)5-8-3(1)4(6)9-5/h1-5,7H/t1-,2+,3+,4+,5+,6-/m0/s1
