19
gdb 26390	4.12652	0.96044	0.93574	1.2643	78.96	-0.2002	0.0299	0.2302	1354.1213	0.158129	-423.056403	-423.047371	-423.046426	-423.091453	33.282	
C	 0.0832727717	 1.5176634809	-0.0067260564	-0.39255
C	 0.0291746037	-0.0016265093	-0.0152288123	 0.126056
C	 0.3542924515	-0.6270352147	 1.3372832984	-0.393877
O	-1.3277297877	-0.3435295484	-0.4112664029	-0.28898
C	-1.556124325	-1.6069199838	-0.775688777	 0.432177
C	-2.5360790652	-2.481808358	-0.4248469087	-0.309244
C	-2.3232000036	-3.6488439444	-1.2354872792	-0.166455
C	-1.2322371676	-3.396674802	-1.9986515868	-0.020218
O	-0.7501032019	-2.1411454005	-1.7356812546	-0.185028
H	 1.0887709615	 1.8585942985	 0.2562909169	 0.118096
H	-0.1748096001	 1.9170557651	-0.9907534571	 0.128617
H	-0.6221651177	 1.9215104636	 0.7261010634	 0.126498
H	 0.7099748495	-0.3927001221	-0.7793948033	 0.102778
H	 0.2450608867	-1.7147242754	 1.3023820618	 0.131829
H	 1.3858710361	-0.3977442419	 1.6220040001	 0.118252
H	-0.314859031	-0.2373315745	 2.1108826521	 0.124243
H	-3.3038527262	-2.3103811923	 0.3110042107	 0.108927
H	-2.9073782748	-4.5558621201	-1.2356320834	 0.108673
H	-0.6824126399	-3.9603725506	-2.7328961319	 0.130205
25.6206	61.1658	133.4773	212.4223	247.384	291.192	320.1105	421.9545	455.2036	466.2311	612.3521	660.2792	701.0154	744.8792	787.9931	836.726	840.1988	895.4299	919.2448	933.3788	948.8346	981.3234	1028.55	1100.2194	1138.0529	1156.0442	1181.0487	1199.5328	1239.4686	1277.2383	1370.098	1375.1572	1402.7189	1416.1174	1417.2678	1480.3286	1485.59	1492.1052	1508.8081	1557.9142	1657.1687	3038.767	3045.2333	3051.1147	3111.9197	3117.0518	3121.5781	3126.3648	3253.5509	3274.3401	3290.9885
CC(C)OC1=CC=CO1	CC(C)Oc1ccco1	
InChI=1S/C7H10O2/c1-6(2)9-7-4-3-5-8-7/h3-6H,1-2H3	InChI=1S/C7H10O2/c1-6(2)9-7-4-3-5-8-7/h3-6H,1-2H3
