21
gdb 53419	2.64376	1.02154	0.99119	0.2505	91.61	-0.2334	0.0324	0.2658	1388.0396	0.183358	-349.954059	-349.94472	-349.943775	-349.989283	34.373	
C	 0.0590650923	 1.5577037141	-0.1583639572	-0.496697
C	 0.0325981018	 0.1026336182	-0.096631911	 0.004446
C	 0.0071382046	-1.1011178873	-0.0521607952	 0.12955
C	-0.0166229148	-2.5632555273	 0.0093636476	-0.170249
C	 0.7672524877	-3.0909229319	 1.2350724707	-0.207624
C	 0.1202131254	-2.6395037237	 2.5500264865	-0.240229
C	-1.3729794073	-2.8358272822	 2.5363041198	-0.037979
C	-2.073524321	-3.053335979	 1.4241299798	-0.041091
C	-1.4651933229	-3.1146411726	 0.0473010132	-0.251843
H	 0.9573402717	 1.9619921213	 0.3217228396	 0.144532
H	 0.0510039912	 1.9140518262	-1.1946268053	 0.144797
H	-0.8096012736	 1.9941843786	 0.3473032206	 0.14608
H	 0.4671745115	-2.9467250929	-0.8982203711	 0.09395
H	 0.7701627549	-4.1867294132	 1.1862375237	 0.095832
H	 1.8086023447	-2.7591438347	 1.1851093643	 0.098982
H	 0.5623949817	-3.1888231952	 3.3905054476	 0.09707
H	 0.3477371556	-1.5797592744	 2.7321594018	 0.117594
H	-1.8866385899	-2.7848788702	 3.4935918273	 0.079671
H	-3.1496948965	-3.1989931708	 1.4844716385	 0.080254
H	-2.0869514554	-2.5587181453	-0.6634872916	 0.110297
H	-1.4594770518	-4.1552614377	-0.3086603295	 0.102657
33.4732	75.4014	97.7281	171.8314	222.3315	297.4946	311.749	396.949	406.2061	465.7038	572.2305	576.1274	655.1297	714.8083	787.9914	834.2575	885.6708	910.6299	957.9231	995.4857	1004.28	1044.5821	1049.2765	1053.5562	1054.3563	1088.2662	1149.3479	1152.0581	1202.141	1226.1186	1259.3979	1301.8778	1342.1839	1353.7811	1381.0197	1388.0767	1415.6234	1420.1133	1470.1609	1474.5733	1479.9027	1480.0713	1490.2677	1727.254	2366.3089	2998.7616	3011.7311	3015.7175	3024.469	3031.2814	3047.6327	3056.7356	3083.6719	3084.2132	3084.5669	3139.1129	3163.1153
CC#CC1CCC=CC1	CC#C[C@H]1CCC=CC1	
InChI=1S/C9H12/c1-2-6-9-7-4-3-5-8-9/h3-4,9H,5,7-8H2,1H3	InChI=1S/C9H12/c1-2-6-9-7-4-3-5-8-9/h3-4,9H,5,7-8H2,1H3/t9-/m1/s1
