19
gdb 94049	3.45328	0.97619	0.80711	0.8808	77.78	-0.2583	0.0502	0.3085	1426.4704	0.157497	-423.000264	-422.990901	-422.989957	-423.035382	33.907	
C	 0.1392903224	 1.564975107	 0.11166826	-0.40376
C	 0.1543131997	 0.0574580938	 0.0126149746	 0.23212
O	 0.9440083975	-0.3614858493	-1.0914490541	-0.265244
C	 1.5478747592	-1.5979182857	-0.7388369032	-0.115085
C	 1.178364759	-1.8035251222	 0.751260756	 0.108418
C	 2.3436551077	-2.2640360433	 1.6304765466	-0.387252
C	 1.9626969877	-2.5219814109	 3.0130708595	 0.307776
C	 1.6391682282	-2.7461657423	 4.1480447418	-0.435724
O	 0.7528143851	-0.5112023552	 1.1538518576	-0.255755
H	 1.1593798275	 1.9344689775	 0.2400746092	 0.130555
H	-0.2852329146	 1.9915381234	-0.8003794227	 0.129813
H	-0.4687060179	 1.8780265544	 0.9641294386	 0.129467
H	-0.8704125718	-0.3450908051	-0.1041819556	 0.059915
H	 1.169986618	-2.4137619352	-1.3677158399	 0.103469
H	 2.6323167834	-1.5172819387	-0.88581726	 0.104752
H	 0.345558992	-2.5169690403	 0.842583691	 0.08475
H	 2.7695227143	-3.1751362328	 1.1901601787	 0.13371
H	 3.1245913789	-1.4948940746	 1.588422784	 0.141272
H	 1.3565052738	-2.9355921906	 5.1537292479	 0.196804
43.87	73.7872	122.489	137.771	213.4959	271.4352	346.2748	353.005	399.8058	483.3631	514.1532	619.7703	644.1201	690.7581	713.7344	840.4449	863.4415	910.9009	930.136	961.4189	1056.8466	1062.8581	1091.9903	1117.6983	1126.6782	1152.5755	1168.8447	1216.1026	1261.4844	1303.681	1338.0457	1370.5068	1383.1246	1395.3156	1408.5294	1445.9698	1456.4743	1484.9699	1487.484	1528.1548	2244.0926	2915.6962	2988.3891	3013.5891	3023.4068	3052.7077	3055.5339	3064.1034	3135.9834	3140.5876	3507.7728
CC1OCC(CC#C)O1	C[C@H]1OC[C@@H](CC#C)O1	
InChI=1S/C7H10O2/c1-3-4-7-5-8-6(2)9-7/h1,6-7H,4-5H2,2H3	InChI=1S/C7H10O2/c1-3-4-7-5-8-6(2)9-7/h1,6-7H,4-5H2,2H3/t6-,7+/m0/s1
