19
gdb 99803	1.75763	1.48097	1.26646	2.2264	77.59	-0.2408	-0.018	0.2227	1164.8254	0.154437	-423.0083	-422.997534	-422.99659	-423.043828	38.924	
C	-0.1391880432	 1.4948625855	-0.0154031644	-0.495367
C	 0.0030189926	-0.0112400646	 0.0450160224	 0.400029
O	 0.0912265361	-0.6093925615	 1.0877067462	-0.300542
C	 0.0108964245	-0.7866704962	-1.3123500136	-0.074879
C	-0.0070015452	-2.3026148617	-1.0407054856	-0.421724
C	-1.2337416329	-0.3607382455	-2.1463524602	-0.092636
O	-2.435144736	-0.4316806456	-1.4043166125	-0.417297
C	 1.2145588224	-0.4135548835	-2.0523729477	 0.329936
C	 2.1951476033	-0.0967133485	-2.6729017629	-0.487584
H	 0.4586127257	 1.9274409379	-0.8214900245	 0.144392
H	-1.1914132352	 1.7341265709	-0.2063706614	 0.164582
H	 0.149480338	 1.9228036061	 0.9452652518	 0.14194
H	-0.9033208322	-2.5804800373	-0.478386722	 0.114701
H	 0.0171976828	-2.8550093881	-1.983988629	 0.117779
H	 0.8513438632	-2.5958043231	-0.4358556617	 0.147848
H	-1.1314688876	 0.6809004483	-2.4580339783	 0.125427
H	-1.27076233	-0.9763311922	-3.0559824523	 0.108358
H	-2.6275211666	-1.3558054431	-1.2172594814	 0.293056
H	 3.0674634003	 0.1756755524	-3.2143634528	 0.201981
60.2683	104.5179	129.4668	148.639	181.314	217.2243	227.857	275.5357	305.5688	353.4152	393.2261	414.1573	490.3443	539.4848	546.8138	602.2019	631.9107	640.7961	678.0094	858.773	918.8226	945.2287	976.0893	1039.9416	1075.8028	1108.526	1167.3059	1170.6336	1192.4948	1274.0008	1372.553	1376.9639	1405.1675	1413.8528	1470.3318	1476.9644	1480.8508	1491.8659	1507.4027	1821.4434	2225.1403	3010.4121	3046.4138	3047.8748	3109.7635	3117.759	3118.109	3149.5876	3155.3331	3499.2415	3824.7565
CC(=O)C(C)(CO)C#C	CC(=O)[C@@](C)(CO)C#C	
InChI=1S/C7H10O2/c1-4-7(3,5-8)6(2)9/h1,8H,5H2,2-3H3	InChI=1S/C7H10O2/c1-4-7(3,5-8)6(2)9/h1,8H,5H2,2-3H3/t7-/m1/s1
