14
gdb 43654	2.79315	1.32974	1.09425	4.3177	70.02	-0.2614	-0.073	0.1884	1100.152	0.099734	-436.672222	-436.664235	-436.66329	-436.705578	29.357	
N	 0.1053695979	 1.1566282291	-0.2767637511	-0.496382
C	 0.0759828418	-0.0659434302	 0.0292071768	 0.317882
O	 1.0623121697	-0.7623718348	 0.6589206386	-0.23381
C	 0.7693417685	-2.1920867096	 0.6952820096	-0.100415
C	-0.7498891115	-2.3119563033	 0.4588179795	-0.355016
C	-1.1058011739	-0.9902495112	-0.2112208265	 0.338643
O	-2.113236247	-0.7119409361	-0.796155709	-0.266973
C	 1.5645115005	-2.8900533822	-0.308123667	 0.357216
C	 2.206878459	-3.4750286266	-1.1372611533	-0.463056
H	 0.9990995014	 1.578784984	-0.0146306676	 0.236162
H	 1.0590992104	-2.5248549822	 1.6950226153	 0.134342
H	-1.0338817015	-3.1684262385	-0.1514924203	 0.16123
H	-1.2873025257	-2.3701594456	 1.411522645	 0.153549
H	 2.7804418704	-3.9888025126	-1.8695603701	 0.216626
47.1138	85.8819	190.1389	243.3349	330.3198	378.1502	448.3336	482.6525	583.4844	608.2126	642.3194	653.3589	686.2029	735.6249	763.3378	838.9676	904.8229	939.6259	1001.6412	1032.1783	1043.5903	1144.212	1170.971	1255.4661	1280.2593	1340.1041	1374.0175	1446.5592	1759.8971	1869.0989	2242.5199	3061.2827	3080.89	3148.0182	3465.6765	3499.8794
N=C1OC(CC1=O)C#C	[NH][C]1O[C@@H](CC1=O)C#C	
InChI=1S/C6H5NO2/c1-2-4-3-5(8)6(7)9-4/h1,4,7H,3H2	InChI=1S/C6H5NO2/c1-2-4-3-5(8)6(7)9-4/h1,4,7H,3H2/t4-/m1/s1
