19
gdb 110121	2.17749	1.32214	1.02655	2.5637	78.45	-0.2377	0.0379	0.2756	1244.9999	0.156603	-422.957514	-422.947527	-422.946583	-422.992539	36.185	
C	 0.44695929	 1.08164685	-0.3773545237	-0.239601
O	-0.3046396205	 0.1083681011	 0.3295380756	-0.229744
C	 0.4224944612	-0.525617142	 1.3192631079	 0.100009
C	-0.0133916789	-1.8913412129	 1.731163326	-0.106185
C	-1.1735799539	-2.5846334531	 1.0430086802	-0.085467
O	-0.9689059423	-3.9843546309	 0.9391652611	-0.426661
C	 1.3126707383	-1.7258702466	 0.9690908954	-0.273982
C	 1.4157574145	-2.201900938	-0.3772070447	 0.336444
C	 1.5091347687	-2.6340611454	-1.4979418313	-0.468607
H	 1.2988140318	 0.6277306225	-0.8984926682	 0.126946
H	-0.2270805392	 1.5325564369	-1.1084143164	 0.131985
H	 0.8179258265	 1.865819825	 0.2991546208	 0.107868
H	 0.819826022	 0.1434374662	 2.0854793048	 0.093697
H	 0.1017198945	-2.1397246539	 2.781926211	 0.102314
H	-2.0810239076	-2.4516880012	 1.6410093036	 0.110543
H	-1.3534533811	-2.1251161014	 0.065130802	 0.11655
H	-0.2531694467	-4.1105394011	 0.3054141916	 0.28753
H	 2.2184807494	-1.8307055135	 1.5594053058	 0.115751
H	 1.6000790731	-2.9922703318	-2.4934915113	 0.20061
82.0102	97.5003	111.8577	142.4323	176.6037	207.2105	255.2717	319.7961	382.9988	400.0713	418.4545	578.6957	610.8002	613.719	654.0623	663.2523	754.9941	798.8789	870.438	942.0279	994.8864	1046.8167	1063.9294	1081.787	1116.1996	1129.7323	1158.9657	1180.7229	1211.4461	1247.1852	1266.6854	1344.015	1366.1109	1398.426	1424.586	1434.2464	1485.9158	1487.292	1503.6949	1505.3385	2223.7739	2993.178	3043.7078	3060.6662	3077.0815	3085.7748	3129.0564	3143.9801	3159.5101	3501.8557	3792.9555
COC1C(CO)C1C#C	CO[C@H]1[C@@H](CO)[C@H]1C#C	
InChI=1S/C7H10O2/c1-3-5-6(4-8)7(5)9-2/h1,5-8H,4H2,2H3	InChI=1S/C7H10O2/c1-3-5-6(4-8)7(5)9-2/h1,5-8H,4H2,2H3/t5-,6+,7-/m1/s1
