14
gdb 20618	3.44514	2.00678	1.27824	1.0974	60.35	-0.1978	0.0317	0.2295	894.7561	0.106841	-415.879538	-415.871165	-415.870221	-415.912481	29.406	
C	-0.0617700972	 1.5178226685	 0.1330629831	-0.510778
C	 0.0152350905	 0.0382186171	-0.0313809571	 0.305154
C	 0.0549352655	-0.7383240715	-1.1718397151	 0.111115
O	 0.0307699817	-0.2886760358	-2.4603006385	-0.462939
C	 0.1249805113	-2.0689257128	-0.7072380148	 0.315721
O	 0.1801309957	-3.1506940265	-1.5222294504	-0.449531
N	 0.1302333811	-2.1440765191	 0.6117061439	-0.328355
N	 0.0627360768	-0.8471008127	 1.0060854327	-0.281743
H	 0.8084437189	 1.9183347214	 0.6663721545	 0.133283
H	-0.0965615127	 1.9885763872	-0.8516638518	 0.155886
H	-0.9588738575	 1.8239955738	 0.6839502866	 0.132999
H	 0.0634892477	-1.058094958	-3.0383702459	 0.305385
H	 0.221827664	-3.9341754449	-0.9608622336	 0.305281
H	 0.0533912742	-0.6394168366	 1.9882154063	 0.268522
50.4822	157.5102	210.5362	231.7543	241.218	267.9222	304.3557	339.0203	425.3135	538.5862	583.5672	646.1826	719.0814	739.1462	799.6993	995.6153	1035.0565	1061.2651	1140.9738	1223.2224	1292.0485	1293.0881	1336.3517	1417.7646	1473.4203	1484.5538	1496.5538	1546.4577	1594.9727	1693.1545	3025.7498	3074.0116	3131.1059	3695.7979	3805.4824	3826.793
CC1=C(O)C(O)=NN1	Cc1c(O)c(O)n[nH]1	
InChI=1S/C4H6N2O2/c1-2-3(7)4(8)6-5-2/h7H,1H3,(H2,5,6,8)	InChI=1S/C4H6N2O2/c1-2-3(7)4(8)6-5-2/h7H,1H3,(H2,5,6,8)
