12
gdb 5671	5.43705	2.28215	1.60744	3.2796	60.52	-0.2049	0.0111	0.2159	715.4535	0.087395	-377.550678	-377.54513	-377.544186	-377.58011	21.673	
N	-0.0568871291	 1.3377525139	 0.0102079379	-0.40914
C	 1.2579762784	 1.8212640988	 0.0001977502	-0.068727
C	 2.1522150238	 0.7732573386	-0.0145403111	-0.293933
C	 1.3569308367	-0.4128178527	-0.0132767617	 0.242124
C	 0.048572256	-0.0122766189	 0.0017262818	 0.393627
O	-0.7867181757	-1.0707154686	 0.0040415157	-0.216368
C	 0.1212876527	-2.1301459086	-0.0101136208	 0.030649
N	 1.3713040215	-1.8089038945	-0.0211550599	-0.335044
H	-0.8911899662	 1.8961636447	 0.0212214518	 0.274566
H	 1.4316865527	 2.8847830377	 0.004421958	 0.125997
H	 3.2261903583	 0.8669316805	-0.0246077597	 0.108828
H	-0.3259110492	-3.1107880708	-0.0109691022	 0.147421
187.0568	313.1322	368.2502	474.1366	596.8958	621.2325	683.8329	697.8965	749.201	760.5813	784.2286	825.5466	897.5652	953.425	1021.4171	1054.264	1090.4419	1166.5103	1267.3814	1312.1766	1343.5116	1461.9509	1491.5924	1542.5022	1583.1491	1593.9488	3259.4652	3278.6946	3286.9586	3695.0658
N1C=CC2=C1OC=N2	[nH]1ccc2c1ocn2	
InChI=1S/C5H4N2O/c1-2-6-5-4(1)7-3-8-5/h1-3,6H	InChI=1S/C5H4N2O/c1-2-6-5-4(1)7-3-8-5/h1-3,6H
