15
gdb 61330	4.1544	0.653	0.58261	1.5414	83.99	-0.2525	-0.0471	0.2053	1790.2494	0.109051	-420.578449	-420.568991	-420.568047	-420.613667	33.533	
O	 1.2812795003	 1.3114663772	 0.9909550362	-0.422823
C	 0.377757701	 0.8397004591	 0.0373270161	 0.051135
C	 1.0536669859	 0.8207662247	-1.3639972065	-0.413878
C	 0.1413933713	 0.490521864	-2.4449983277	 0.370503
C	-0.6391200116	 0.2168113733	-3.3289658335	-0.253382
C	-1.5133303029	-0.0924897574	-4.3247887213	 0.292488
C	-2.290489387	-0.3680025042	-5.206799407	-0.543216
C	-0.1222147941	-0.5418989305	 0.4195916175	 0.138213
O	 0.2463195655	-1.0769208807	 1.4376845808	-0.258734
H	 1.3343870193	 0.6154791205	 1.6666579997	 0.297328
H	-0.506785963	 1.4962093035	-0.0295786911	 0.112686
H	 1.4831594303	 1.8171466279	-1.5186377292	 0.162101
H	 1.8965158048	 0.1189634839	-1.3379784983	 0.149847
H	-2.9720740435	-0.6094964386	-5.9843985987	 0.195798
H	-0.8309143762	-1.0258623026	-0.278220607	 0.121934
49.2804	72.3748	124.9853	168.0747	200.3983	307.2553	329.6831	363.0228	384.6321	462.3432	486.8935	554.1406	556.31	601.0465	607.3063	720.348	760.2279	831.979	875.5996	1013.2907	1064.8128	1150.6445	1180.8421	1187.6431	1280.0773	1304.8067	1349.1419	1393.0577	1443.4646	1466.9103	1810.8587	2182.9236	2362.9097	2961.1136	2975.5003	3032.8071	3072.538	3504.1904	3674.3229
OC(CC#CC#C)C=O	O[C@@H](CC#CC#C)C=O	
InChI=1S/C7H6O2/c1-2-3-4-5-7(9)6-8/h1,6-7,9H,5H2	InChI=1S/C7H6O2/c1-2-3-4-5-7(9)6-8/h1,6-7,9H,5H2/t7-/m0/s1
