15
gdb 54046	2.44182	1.18596	0.82532	5.2657	71.92	-0.265	0.0028	0.2679	1305.8894	0.110719	-416.82304	-416.813533	-416.812588	-416.858246	33.733	
N	 0.0316428862	 1.2483638488	 0.3223311762	-0.539255
C	 0.0020465282	 0.0064676434	-0.2115283597	 0.437819
O	 0.9048855775	-0.4784951385	-0.8635438862	-0.360423
C	-1.3245486399	-0.7793046	 0.0008799869	-0.312745
C	-0.9837004015	-2.2890001567	 0.1057626188	-0.344744
C	-2.1597556047	-3.1413239774	-0.0284368272	 0.26883
N	-3.0934660553	-3.8120686631	-0.142817884	-0.303878
C	-2.134042638	-0.3047727722	 1.1154350338	 0.320309
C	-2.7891353194	 0.0889018489	 2.043677885	-0.43218
H	 0.8690133592	 1.7959918474	 0.2103500145	 0.269952
H	-0.6979763539	 1.5679411095	 0.9371768221	 0.273519
H	-1.8891949899	-0.6317839849	-0.9298054906	 0.161758
H	-0.2609904952	-2.5166975307	-0.6823329926	 0.185788
H	-0.4984211772	-2.4942102253	 1.0650698166	 0.161282
H	-3.3850535262	 0.4198872106	 2.8588452764	 0.213968
43.2341	65.4446	127.4549	168.998	213.8895	261.7463	326.7784	390.5708	400.9429	467.8331	487.9858	504.8341	600.4345	615.168	639.9284	668.7809	713.4596	842.2968	892.9989	965.7277	1028.2549	1072.5835	1118.8649	1203.3626	1244.974	1325.6846	1343.2627	1353.4708	1467.1299	1610.4555	1802.9425	2233.5038	2366.0875	3026.1659	3066.2446	3116.2271	3498.2869	3594.7077	3729.363
NC(=O)C(CC#N)C#C	NC(=O)[C@@H](CC#N)C#C	
InChI=1S/C6H6N2O/c1-2-5(3-4-7)6(8)9/h1,5H,3H2,(H2,8,9)	InChI=1S/C6H6N2O/c1-2-5(3-4-7)6(8)9/h1,5H,3H2,(H2,8,9)/t5-/m1/s1
