23
gdb 121246	2.82825	0.90265	0.74806	1.1924	83.61	-0.2429	0.0819	0.3248	1619.409	0.204136	-425.392857	-425.382424	-425.38148	-425.429045	37.004	
C	 0.3353336913	 1.3516058161	-0.1872851104	-0.224841
O	 0.1409009808	-0.0342279044	-0.054551724	-0.235674
C	 0.6990558	-0.5546410126	 1.1361983513	-0.052776
C	 0.4238498116	-2.0503365799	 1.1613118508	-0.0729
C	 1.2634021637	-2.8557379287	 0.1272331999	-0.223022
C	 2.2692297366	-3.2226433556	 1.255025813	-0.258356
C	 1.1776807553	-2.8073425535	 2.2837721984	 0.151359
O	 1.5358383444	-2.0180626049	 3.3880535414	-0.2423
C	 2.2475391837	-2.7289682155	 4.3751423296	-0.237135
H	 1.4051349997	 1.6159370928	-0.2103388596	 0.100033
H	-0.1236358541	 1.66006115	-1.1302022289	 0.123096
H	-0.1345823915	 1.9129564917	 0.6363953866	 0.101661
H	 1.7818459504	-0.3497972945	 1.1723723237	 0.084607
H	 0.254431035	-0.069605058	 2.0191962987	 0.096139
H	-0.6578741123	-2.2046188314	 1.1285867366	 0.074471
H	 0.7278643219	-3.7288049157	-0.2530862212	 0.100435
H	 1.6454338385	-2.2858799682	-0.7212706048	 0.110962
H	 2.6451142338	-4.2476377729	 1.2921550845	 0.093631
H	 3.1171616386	-2.5328225018	 1.2906297103	 0.108151
H	 0.6057090947	-3.6874484973	 2.6190097805	 0.063857
H	 1.6604798536	-3.5748191044	 4.7670853009	 0.103699
H	 3.2017391881	-3.1215589338	 3.9930586175	 0.108779
H	 2.4551609063	-2.0344721574	 5.1927922351	 0.126125
72.7614	85.6632	102.4995	117.7414	129.5037	197.9921	225.7015	242.3696	310.3574	337.0299	429.3155	484.6145	527.8678	689.5635	767.2242	861.4258	891.7142	935.8148	946.04	964.3543	991.2163	1044.0067	1085.7577	1107.4778	1153.4821	1160.1885	1169.4754	1184.1136	1185.1219	1204.2565	1224.1464	1232.1618	1241.3451	1259.6453	1261.2773	1285.2257	1311.2732	1351.0503	1388.4729	1423.5803	1479.5787	1481.405	1481.9723	1485.6071	1487.9227	1498.304	1505.84	1509.6774	1523.7426	2959.2806	2966.5798	2971.3655	2976.135	2999.1349	3006.9068	3022.6079	3059.8866	3067.4975	3077.5026	3108.3955	3110.2316	3113.8318	3129.0382
COCC1CCC1OC	COC[C@H]1CC[C@H]1OC	
InChI=1S/C7H14O2/c1-8-5-6-3-4-7(6)9-2/h6-7H,3-5H2,1-2H3	InChI=1S/C7H14O2/c1-8-5-6-3-4-7(6)9-2/h6-7H,3-5H2,1-2H3/t6-,7-/m1/s1
