17
gdb 37667	3.70622	2.06414	2.05075	1.9049	71.52	-0.2271	0.083	0.31	763.8278	0.140476	-384.640712	-384.635701	-384.634757	-384.669736	23.281	
O	-0.0745481066	 1.4721884756	-0.0443779369	-0.308196
C	 1.3757652332	 1.3962441217	 0.026651273	 0.077199
C	 1.2920156127	 0.0823223026	 0.8650976263	-0.077578
C	 2.2898269219	-0.9239078568	 0.3130956391	-0.084525
C	 2.8309495495	-0.3866431726	-1.0038684499	-0.090642
C	 1.7552629379	-1.4492031792	-1.0113529361	-0.090642
C	 0.6646243606	-0.3962535643	-1.308067712	-0.068642
C	-0.0168845537	 0.020589131	 0.0169408146	 0.077199
C	 1.7935641807	 0.7189118376	-1.3001988377	-0.068643
H	 1.856882226	 2.3180880486	 0.3542497796	 0.077202
H	 1.1799926775	 0.1881358829	 1.9412003545	 0.07488
H	 2.9075284636	-1.5536490448	 0.9393167556	 0.087501
H	 3.8670440156	-0.4431717757	-1.3124237432	 0.085533
H	 1.8012599312	-2.4837432755	-1.326796793	 0.085533
H	 0.0408157138	-0.5010390802	-2.1923264805	 0.07331
H	-0.9468433985	-0.4514225602	 0.3347014306	 0.077202
H	 1.9122185646	 1.3475330093	-2.1792819638	 0.073309
443.5689	485.7309	521.9767	647.9502	687.1607	748.8891	770.8651	795.12	815.8332	833.5799	859.0795	861.6588	873.6989	915.2052	927.7436	935.9993	953.1518	963.6851	990.1263	996.9363	1015.4691	1029.5546	1053.8347	1074.9132	1123.8158	1124.3589	1190.305	1206.6267	1226.7485	1227.1337	1241.6839	1265.4228	1282.4855	1284.7664	1306.7116	1326.1493	1377.9617	3116.5937	3118.4351	3144.373	3151.2706	3156.163	3185.5371	3193.8	3209.7804
O1C2C3C4C5C4C(C13)C25	O1[C@H]2[C@@H]3[C@@H]4[C@H]5[C@@H]4[C@@H]([C@H]13)[C@@H]25	
InChI=1S/C8H8O/c9-7-4-1-2-3(1)6(7)8(9)5(2)4/h1-8H	InChI=1S/C8H8O/c9-7-4-1-2-3(1)6(7)8(9)5(2)4/h1-8H/t1-,2+,3-,4+,5-,6+,7-,8+
