21
gdb 82227	2.33751	2.00102	1.453	1.3627	80.71	-0.2507	0.073	0.3238	987.1663	0.185998	-387.0701	-387.062851	-387.061907	-387.10123	30.925	
O	-0.0948377368	 1.4612915743	-0.0676811593	-0.439432
C	 0.0015455179	 0.0383628649	-0.04146405	 0.114324
C	-1.4045336597	-0.5470627569	 0.0475768635	-0.030707
C	-2.5073637052	-0.1208678667	-0.8949198618	-0.301573
C	-1.8301217975	-1.4489726623	-1.09572715	-0.017617
C	-0.755466007	-1.6674558461	-2.1532851612	-0.026314
C	-0.04780978	-0.3433200061	-2.5580899241	-0.233085
C	 0.7780439862	-0.5013714799	-1.2578480802	-0.040485
C	 0.5659186143	-2.0361744507	-1.4053660522	-0.23073
H	 0.800587998	 1.8135532235	-0.1160685513	 0.275045
H	 0.5469294379	-0.2793671807	 0.862630686	 0.059421
H	-1.7207553222	-0.8143778692	 1.0499806312	 0.081086
H	-3.5154834886	-0.1277891582	-0.4942111217	 0.104342
H	-2.3176814816	 0.6934563162	-1.5819990456	 0.126662
H	-2.3978871767	-2.339410509	-0.8401458945	 0.078713
H	-1.1021945741	-2.3237003789	-2.9548840899	 0.058868
H	 0.5747134589	-0.4967301308	-3.4438114137	 0.091325
H	-0.6326012179	 0.5674320296	-2.6926157804	 0.104353
H	 1.8057340285	-0.1218519485	-1.2468279352	 0.04408
H	 0.4805824839	-2.636964422	-0.4947830498	 0.089013
H	 1.3119031916	-2.4803458527	-2.0699651296	 0.092712
147.8368	221.0296	318.6443	329.7935	392.798	415.3537	439.8056	494.6955	577.9794	653.3764	730.0599	791.4921	821.3995	833.6206	867.3812	891.218	905.5603	937.1007	956.791	977.1098	1002.3231	1032.9521	1055.0438	1078.4723	1086.3936	1106.4071	1118.149	1128.0148	1135.2607	1141.1565	1161.3025	1219.8819	1245.5879	1249.5887	1270.0256	1271.4872	1331.2399	1342.9098	1363.9091	1373.9924	1409.4283	1438.3951	1474.6961	1497.9828	1519.5179	2955.4509	3036.6727	3049.5174	3063.5725	3077.2694	3105.2153	3120.8222	3138.7858	3144.3731	3160.9253	3232.8412	3801.1444
OC1C2CC2C2CC1C2	O[C@H]1[C@H]2C[C@H]2[C@H]2C[C@@H]1C2	
InChI=1S/C8H12O/c9-8-5-1-4(2-5)6-3-7(6)8/h4-9H,1-3H2	InChI=1S/C8H12O/c9-8-5-1-4(2-5)6-3-7(6)8/h4-9H,1-3H2/t4-,5+,6-,7-,8+/m0/s1
