16
gdb 98644	5.31261	0.872	0.84235	3.7984	68.15	-0.2683	-0.0144	0.2539	1380.1505	0.123149	-475.046639	-475.037742	-475.036797	-475.082086	30.675	
C	-0.5802357311	 1.4149529521	 0.1428249706	-0.244243
O	-0.3787876632	 0.0006229826	 0.2923747942	-0.233195
C	 0.8380458118	-0.3618775156	 0.7325343415	 0.437513
O	 1.724746001	 0.4003915173	 1.0120161251	-0.352535
C	 0.9534352995	-1.8749115	 0.7863295138	 0.006574
C	 2.0547289937	-2.4802073604	-0.1222804878	-0.374724
C	 2.6932926858	-2.8683981392	 1.1946302664	 0.454869
N	 3.7307833912	-3.47999869	 1.527821068	-0.533639
O	 1.6879855023	-2.3068806126	 1.965378864	-0.246146
H	 0.142374255	 1.8320687142	-0.5626938258	 0.145989
H	-1.5962670462	 1.5311200442	-0.232926059	 0.139849
H	-0.4652288955	 1.9192356625	 1.1050862668	 0.149661
H	-0.0270864753	-2.3496052992	 0.7355831235	 0.115221
H	 1.7435161927	-3.3131223974	-0.752996734	 0.145298
H	 2.6282992422	-1.7580262516	-0.7041786741	 0.154953
H	 3.822452136	-3.5439683269	 2.5427651568	 0.234558
22.3286	69.2522	109.8617	144.8691	228.2947	266.3475	316.2469	372.8998	458.3906	492.0993	685.7494	748.3279	765.7427	838.5597	862.1074	931.3773	970.4976	988.0413	1010.1239	1026.4881	1068.1664	1133.4015	1178.8379	1200.6339	1214.9321	1222.8201	1243.5147	1309.2736	1384.744	1456.5347	1474.0895	1481.7368	1495.3386	1835.5325	1841.8926	3056.2644	3097.3124	3111.5913	3133.2146	3158.0155	3166.5589	3484.2896
COC(=O)C1CC(=N)O1	COC(=O)[C@H]1C[C]([NH])O1	
InChI=1S/C5H7NO3/c1-8-5(7)3-2-4(6)9-3/h3,6H,2H2,1H3	InChI=1S/C5H7NO3/c1-8-5(7)3-2-4(6)9-3/h3,6H,2H2,1H3/t3-/m1/s1
