18
gdb 22427	2.79976	1.23791	1.0101	1.7581	77.58	-0.2273	0.0169	0.2442	1210.9721	0.145036	-439.014211	-439.004911	-439.003966	-439.047898	34.931	
C	-0.0301134173	 1.5811839464	-0.0142812782	-0.495423
C	-0.0613376564	 0.0822408747	 0.046226436	 0.18882
C	 1.1401735202	-0.7901220631	-0.3386381549	-0.388967
C	 0.5669879851	-0.9257552336	 1.0351904108	 0.35531
O	 1.2673353365	-0.6117766128	 2.1818581035	-0.45859
C	-0.7028977897	-1.8001098838	 1.0095725227	-0.397173
C	-1.2743788033	-0.7836948343	 0.0240929216	 0.404086
N	-2.4010411404	-0.5815899818	-0.5189553379	-0.270883
O	-3.3018726841	-1.6231051994	-0.2090075095	-0.394927
H	 0.9321479576	 1.9598747197	 0.3434374616	 0.12446
H	-0.1773040186	 1.9405709598	-1.0381925964	 0.130792
H	-0.8203566885	 2.0127021787	 0.6075902777	 0.130315
H	 1.0504902642	-1.5810742339	-1.0791226063	 0.113923
H	 2.0682498599	-0.2271764253	-0.3839835919	 0.117549
H	 2.0214550453	-1.2070128666	 2.2548900883	 0.28984
H	-0.6056296833	-2.8392390095	 0.6795296115	 0.111207
H	-1.2488908332	-1.7706147138	 1.9570123807	 0.134968
H	-4.102887114	-1.3347677015	-0.6590587191	 0.304691
96.7563	153.1934	169.9444	173.5891	224.744	239.5351	320.7949	367.6276	394.0297	432.7487	460.7311	531.6554	576.7785	598.0307	698.218	743.3358	814.9329	840.2813	953.5743	970.2262	977.5171	1006.7363	1053.3908	1085.6555	1096.3251	1116.7445	1179.3214	1211.2809	1230.5139	1303.3932	1348.4679	1397.6127	1411.3888	1427.2867	1464.9863	1480.6088	1498.9063	1507.9772	1785.6831	3035.0201	3049.5529	3099.0591	3105.0895	3106.1986	3110.9969	3197.8203	3794.9768	3819.9919
CC12CC1(O)CC2=NO	C[C@@]12C[C@]1(O)CC2=NO	
InChI=1S/C6H9NO2/c1-5-3-6(5,8)2-4(5)7-9/h8-9H,2-3H2,1H3	InChI=1S/C6H9NO2/c1-5-3-6(5,8)2-4(5)7-9/h8-9H,2-3H2,1H3/t5-,6+/m0/s1
