23
gdb 108231	2.10152	1.454	1.13027	1.7414	86.46	-0.2194	0.0788	0.2982	1254.0084	0.203754	-388.264612	-388.254446	-388.253502	-388.29936	37.934	
C	-0.3871256726	 1.931219848	-0.6513591779	-0.374196
C	-0.0969342914	 0.497307447	-0.1828705592	-0.293694
C	 0.5773305996	-0.3135066662	-1.2465718759	 0.438773
O	 1.8747093757	 0.143569964	-1.6737930807	-0.332752
C	 2.3315754206	-1.2280456052	-1.7979488835	-0.128317
C	 0.9531542998	-1.7744441618	-1.4395388907	 0.16683
C	 0.7180011215	-3.0273205609	-0.6456920045	-0.497999
C	-0.0526794843	-1.0975718289	-2.3715164721	-0.111312
C	-1.5108364013	-1.4992904893	-2.303401275	-0.432433
H	 0.5365868004	 2.424601303	-0.9659172006	 0.139228
H	-1.0765148074	 1.9361810171	-1.5016896531	 0.116671
H	-0.8350140778	 2.5224205133	 0.1528828879	 0.108202
H	 0.5469450235	 0.5238302531	 0.7048270392	 0.104307
H	-1.0271307746	 0.0021561827	 0.1162906208	 0.101059
H	 2.7259370308	-1.4485329233	-2.7983812042	 0.096279
H	 3.099573606	-1.4490624466	-1.0452071114	 0.098278
H	 1.3471514432	-3.0511438078	 0.2514261955	 0.119334
H	-0.3219144711	-3.1213510662	-0.3218941821	 0.122171
H	 0.9557759138	-3.9199320797	-1.2380291132	 0.120921
H	 0.2946381325	-0.8464945727	-3.3740003063	 0.078843
H	-1.8500009349	-1.6712042789	-1.2778706464	 0.118039
H	-2.1478145829	-0.7174490061	-2.7305174046	 0.122107
H	-1.6941720089	-2.4211572448	-2.8667690021	 0.11966
70.3322	113.3078	166.9056	171.7648	202.5136	230.0616	249.6554	269.425	288.0211	346.3151	408.8514	500.1444	507.5211	624.1209	704.496	733.08	779.3055	833.8818	928.098	955.9378	980.8062	986.6164	997.5806	1018.8733	1063.5074	1094.439	1113.9765	1122.9401	1130.3241	1157.253	1189.3247	1225.4775	1258.6471	1305.3557	1321.9963	1359.6644	1371.4534	1405.4782	1412.3771	1422.3389	1464.9746	1473.6633	1488.5676	1492.4384	1496.7124	1501.265	1507.0971	1513.8842	1523.0445	3003.8371	3021.3512	3029.0499	3032.0853	3040.0345	3049.8405	3071.0314	3074.7525	3088.6158	3092.0293	3107.0222	3108.5792	3114.1552	3121.4629
CCC12OCC1(C)C2C	CC[C@@]12OC[C@]1(C)[C@H]2C	
InChI=1S/C8H14O/c1-4-8-6(2)7(8,3)5-9-8/h6H,4-5H2,1-3H3	InChI=1S/C8H14O/c1-4-8-6(2)7(8,3)5-9-8/h6H,4-5H2,1-3H3/t6-,7-,8+/m1/s1
