19
gdb 36421	3.71261	1.0377	0.96032	4.1293	78.27	-0.2388	0.0293	0.2682	1261.0105	0.161461	-382.06742	-382.059323	-382.058379	-382.100639	30.723	
N	-0.2991805562	-0.9402234471	 0.4973758087	-0.306367
C	-0.1471975288	 0.2015758071	 0.4031148163	 0.262736
C	 0.0698874579	 1.641981881	 0.2780485845	-0.360827
C	 1.5214769405	 1.9919101794	-0.1317625386	-0.007957
C	 1.7503691531	 3.5226472646	-0.268563213	-0.264474
C	 2.6422540914	 3.9058840941	 0.9029924449	-0.003619
C	 2.2102183878	 3.5287403765	 2.2729408106	-0.251264
N	 3.1923707556	 2.7044158157	 1.5558368011	-0.085243
C	 2.6179029033	 1.5303313791	 0.8777601242	-0.17928
H	-0.6286477628	 2.0288719038	-0.4730997174	 0.153574
H	-0.2038350755	 2.1137931754	 1.2275118376	 0.153713
H	 1.6935270278	 1.5044108232	-1.0948002876	 0.102827
H	 2.2649422054	 3.7472481998	-1.2077026824	 0.114853
H	 0.8092713257	 4.0831713849	-0.2807473748	 0.108542
H	 3.3264263797	 4.7389706448	 0.7676920034	 0.09433
H	 2.6077410501	 4.0581761284	 3.1342022163	 0.121794
H	 1.2029365705	 3.1462575807	 2.4166171714	 0.10467
H	 2.2378498326	 0.8133338019	 1.6126751709	 0.124175
H	 3.4323971817	 1.0368340164	 0.3392026738	 0.117817
58.6772	113.3759	144.7014	256.7648	337.8586	350.84	390.2928	403.6231	525.3528	655.8881	721.2515	744.0386	812.1712	841.8794	867.6214	896.0339	927.0123	947.5347	1003.3184	1011.877	1023.4158	1062.4685	1102.6174	1109.5482	1131.7658	1164.4365	1205.0436	1223.3055	1248.4047	1264.1314	1294.3086	1313.853	1342.1284	1348.1646	1383.6105	1397.3989	1466.2579	1490.5068	1501.4169	1514.0939	2360.4964	3041.6439	3046.8225	3049.5556	3065.0838	3084.0378	3087.1387	3095.3305	3110.2595	3145.2977	3190.3734
N#CCC1CC2CN2C1	N#CC[C@H]1C[C@H]2CN2C1	
InChI=1S/C7H10N2/c8-2-1-6-3-7-5-9(7)4-6/h6-7H,1,3-5H2	InChI=1S/C7H10N2/c8-2-1-6-3-7-5-9(7)4-6/h6-7H,1,3-5H2/t6-,7-,9?/m0/s1
