21
gdb 40751	3.85221	1.05923	0.94759	1.7475	82.35	-0.2559	0.0775	0.3334	1304.7197	0.183593	-387.036749	-387.02862	-387.027676	-387.070278	31.394	
C	 0.1442291504	 1.5325138177	 0.0239604769	-0.184834
O	 1.116191128	 0.5266869795	-0.2588253489	-0.240058
C	-0.2309338954	 0.1115352107	 0.0019944854	 0.078816
C	-0.4668526084	-0.6695604105	 1.2613805826	 0.010709
C	-1.9381670417	-0.9209606234	 1.7207326071	-0.273249
C	-1.5951657936	-2.4114732344	 2.0165719789	-0.004807
C	-2.0265170861	-3.4048892836	 0.9146087539	-0.220235
C	-0.7436746778	-3.0482303288	 0.1030387709	-0.233874
C	-0.2113277405	-2.2025507812	 1.3012655225	-0.036363
H	 0.2617354895	 2.0401515965	 0.9811151936	 0.10973
H	-0.1208169669	 2.1784343953	-0.8123431914	 0.111485
H	-0.7547334668	-0.2452440505	-0.8866784561	 0.087361
H	 0.1046827033	-0.1955095063	 2.0660389348	 0.074427
H	-2.2635153486	-0.3231149905	 2.5748908522	 0.102246
H	-2.6800265816	-0.7999203893	 0.9237714074	 0.094899
H	-1.6898144368	-2.7227223407	 3.0577827127	 0.061528
H	-2.0226522326	-4.4428301965	 1.2588301547	 0.099272
H	-2.9909797237	-3.2089146838	 0.4352944162	 0.09213
H	-0.1152692602	-3.9044054697	-0.1510208308	 0.104768
H	-0.9197472849	-2.4868836907	-0.8180555652	 0.09981
H	 0.7409535146	-2.5292438899	 1.7204100728	 0.066239
54.1141	73.4126	166.0429	222.4551	313.5995	347.441	402.5648	512.4088	633.2225	727.3138	742.7352	763.8457	837.1097	856.5	882.5133	889.9899	900.4106	950.8114	959.4169	973.4332	1016.1407	1048.7156	1060.8072	1084.4471	1099.2771	1142.7153	1148.5308	1160.1227	1170.2568	1205.3367	1215.3425	1232.7108	1250.0402	1258.1152	1274.7278	1285.8807	1297.674	1299.9405	1321.2835	1327.1146	1455.1917	1477.0922	1482.7568	1497.0034	1528.8547	3042.6987	3044.8286	3048.8607	3065.2634	3077.3344	3084.5516	3092.0285	3095.1774	3098.6063	3107.6233	3118.734	3163.0785
C1OC1C1CC2CCC12	C1O[C@H]1[C@H]1C[C@H]2CC[C@@H]12	
InChI=1S/C8H12O/c1-2-6-5(1)3-7(6)8-4-9-8/h5-8H,1-4H2	InChI=1S/C8H12O/c1-2-6-5(1)3-7(6)8-4-9-8/h5-8H,1-4H2/t5-,6-,7+,8-/m1/s1
