21
gdb 57393	2.78198	1.32901	1.20645	1.9468	77.7	-0.255	0.0788	0.3338	1156.851	0.180068	-424.197204	-424.187773	-424.186829	-424.231045	36.56	
C	 1.1007845101	 0.9203581884	 0.5799651873	-0.431458
C	-0.0633013758	 0.1164430864	-0.0164090558	 0.223301
C	-0.5403970977	-0.9658454095	 0.9523778781	-0.409393
O	-1.1947896089	 0.9711746308	-0.2261279001	-0.462402
C	 0.3162018971	-0.4749911479	-1.3569983653	 0.446335
C	-0.3505542176	-1.6081358528	-2.1620251101	-0.304481
C	 1.023837436	-1.8393950986	-2.8847913086	-0.240658
C	 1.5996838464	-0.6858183975	-2.0558589348	-0.064419
O	 0.7947635941	 0.4681932898	-2.3403144249	-0.309643
H	 1.9340181952	 0.2691592799	 0.8626691519	 0.110327
H	 1.4684694791	 1.6541818877	-0.1424764616	 0.125617
H	 0.7529757203	 1.4484894018	 1.4714484958	 0.120697
H	-0.8172394636	-0.50799934	 1.9057245425	 0.124052
H	-1.4199954386	-1.4775862903	 0.5545341707	 0.127161
H	 0.2470549923	-1.7028768967	 1.1350771076	 0.112137
H	-0.9408305712	 1.6040967887	-0.9083180274	 0.288594
H	-0.6480885178	-2.4637981285	-1.5530530947	 0.109767
H	-1.1903647803	-1.2920581025	-2.7837317669	 0.113725
H	 1.4670145784	-2.8081729205	-2.6425938885	 0.10631
H	 1.0481100771	-1.6853938284	-3.9658571645	 0.113027
H	 2.6219450255	-0.5040569803	-1.7431745006	 0.101404
51.6801	151.2529	201.6143	220.8867	249.0791	280.9215	326.9305	339.0464	357.5137	401.0347	476.8796	501.3139	516.2261	613.9496	734.371	774.4485	842.8872	883.7764	919.6672	933.2633	938.3319	946.7682	967.0864	1001.6353	1015.5851	1057.047	1105.6862	1147.0287	1159.695	1198.8457	1212.0956	1214.2692	1232.15	1272.2175	1295.2336	1370.3824	1391.1618	1415.3627	1438.1458	1464.4294	1478.1197	1486.651	1489.5223	1497.1967	1512.9694	3040.1122	3047.8977	3067.3034	3077.9178	3112.6935	3119.5725	3121.6729	3126.8942	3128.255	3138.1867	3182.1147	3793.8546
CC(C)(O)C12CCC1O2	CC(C)(O)[C@]12CC[C@H]1O2	
InChI=1S/C7H12O2/c1-6(2,8)7-4-3-5(7)9-7/h5,8H,3-4H2,1-2H3	InChI=1S/C7H12O2/c1-6(2,8)7-4-3-5(7)9-7/h5,8H,3-4H2,1-2H3/t5-,7+/m1/s1
