18
gdb 118382	3.27125	0.83159	0.70016	4.5411	79.07	-0.2721	0.0311	0.3032	1605.1404	0.144533	-401.914452	-401.904046	-401.903102	-401.950898	35.676	
C	-0.0741932606	 1.3838702677	 0.0156734459	-0.233832
O	 0.0377276367	-0.0219455994	-0.0240195046	-0.230107
C	 0.6583004723	-0.5592339364	 1.1120507457	-0.061707
C	 0.6088214181	-2.0907463011	 1.0016402189	-0.165814
C	 1.4254450841	-2.7580202503	 2.1416742493	-0.371937
C	 1.533352517	-4.2026397466	 2.0005041262	 0.293427
C	 1.6196818359	-5.3923595696	 1.8618952159	-0.412745
C	-0.7800978032	-2.5598271026	 1.0034106001	 0.300182
N	-1.8756196856	-2.9248645684	 1.034050027	-0.323365
H	 0.9127424465	 1.8694230046	 0.0664760673	 0.107716
H	-0.5748021669	 1.6930600309	-0.9039678083	 0.138907
H	-0.6706878021	 1.7179081969	 0.8779315392	 0.11464
H	 1.7125945056	-0.2401772121	 1.1776428624	 0.095241
H	 0.1536354451	-0.2314916917	 2.0359794188	 0.104878
H	 1.0544854727	-2.3696437568	 0.0406175105	 0.148675
H	 2.4267528247	-2.3104225945	 2.1437241872	 0.140438
H	 0.9671243409	-2.5084415676	 3.1061114257	 0.150441
H	 1.688155479	-6.4461972532	 1.7495298528	 0.204961
52.2882	77.2469	84.1994	108.941	159.7135	217.1673	228.787	252.7294	338.7594	356.247	387.045	475.8435	561.6398	632.2852	644.3201	660.7825	794.8998	924.6628	942.6704	1005.6484	1052.9909	1091.0677	1096.0752	1168.6289	1182.6036	1209.7703	1232.9399	1255.0061	1281.7877	1350.9843	1374.684	1416.6934	1472.21	1480.3923	1486.387	1501.2146	1526.6354	2247.2364	2364.0725	2954.1555	2979.0602	2989.7791	3027.0481	3029.4103	3058.7318	3073.7764	3127.391	3506.1405
COCC(CC#C)C#N	COC[C@@H](CC#C)C#N	
InChI=1S/C7H9NO/c1-3-4-7(5-8)6-9-2/h1,7H,4,6H2,2H3	InChI=1S/C7H9NO/c1-3-4-7(5-8)6-9-2/h1,7H,4,6H2,2H3/t7-/m0/s1
