19
gdb 60812	2.73115	1.07448	0.93673	0.9851	73.47	-0.2422	0.0134	0.2555	1305.2126	0.157582	-456.405071	-456.39462	-456.393675	-456.441099	36.816	
C	 0.641350327	 1.8120854406	-0.2412870954	-0.390194
C	 0.2152324202	 0.3593725208	-0.008777296	-0.106737
N	 0.6193916746	-0.5495903913	-1.0771729187	-0.049276
C	 2.0297070489	-0.6598397687	-1.4324357617	-0.35707
C	-0.3139263066	-1.1641061578	-1.8693197451	 0.146611
O	-0.0733068554	-1.8760671294	-2.8198251372	-0.338026
C	 0.6591446995	-0.1205306326	 1.3957845547	 0.399403
N	 0.7921425269	-1.4669536702	 1.5320749297	-0.523347
O	 0.825841447	 0.6616619034	 2.3102875571	-0.360008
H	 1.7293768377	 1.9116598039	-0.2702714212	 0.130244
H	 0.22849502	 2.1808142497	-1.1840015176	 0.117641
H	 0.2797771895	 2.4282437404	 0.5822402635	 0.15323
H	-0.8822777687	 0.3245863717	 0.0164496946	 0.121519
H	 2.6306577499	-0.8770640659	-0.5445266832	 0.133781
H	 2.1245310524	-1.4726331944	-2.1523999881	 0.168477
H	 2.4013654892	 0.2626259996	-1.8912435077	 0.137814
H	-1.3454410711	-0.947767186	-1.5269205564	 0.078505
H	 0.648178863	-2.0954044322	 0.7616821497	 0.270688
H	 1.023552256	-1.8351997117	 2.439633049	 0.266748
43.9624	63.4537	128.1684	149.1927	208.5077	247.211	256.862	261.725	321.6037	323.8807	382.1001	417.2753	481.0519	512.9978	620.7753	666.6703	749.1073	821.845	856.9158	994.7448	1029.4588	1066.8168	1074.3659	1112.6658	1124.3519	1157.0331	1270.8098	1289.3944	1310.628	1356.7121	1404.4341	1427.1335	1441.3139	1445.5534	1487.0643	1493.3472	1503.8406	1521.4732	1597.7682	1796.6206	1800.2813	2934.7022	3025.773	3038.7907	3057.2917	3098.4926	3127.5436	3156.0207	3158.9339	3608.4243	3745.2412
CC(N(C)C=O)C(N)=O	C[C@@H](N(C)C=O)C(=O)N	
InChI=1S/C5H10N2O2/c1-4(5(6)9)7(2)3-8/h3-4H,1-2H3,(H2,6,9)	InChI=1S/C5H10N2O2/c1-4(5(6)9)7(2)3-8/h3-4H,1-2H3,(H2,6,9)/t4-/m1/s1
