12
gdb 132128	3.02329	1.42975	0.9707	1.2711	63.84	-0.2196	-0.0589	0.1607	1067.0968	0.076162	-521.889869	-521.882818	-521.881873	-521.921646	26.493	
F	 0.116856242	 0.0625236989	 0.0020485438	-0.018595
C	-0.0433859447	 1.3628581503	 0.0108329592	 0.276316
C	-1.2364051545	 1.9849254025	 0.0306806833	-0.006995
F	-2.380323033	 1.2964862034	 0.0432549807	-0.057497
C	-1.2475931275	 3.4138613906	 0.0380359746	-0.162219
C	-0.086458174	 4.1042519485	 0.0252459964	-0.163994
C	 1.1932656144	 3.4276417096	 0.0038608425	 0.399832
N	 2.3220984761	 3.9995185422	-0.0089955445	-0.527658
O	 1.1198156028	 2.0099789007	-0.0022208728	-0.251476
H	-2.2089325622	 3.9149290284	 0.0540444231	 0.140892
H	-0.0506418391	 5.184762378	 0.030213456	 0.139245
H	 3.0865698096	 3.3259584869	-0.0230908822	 0.23215
102.814	191.405	281.5316	315.7879	346.7448	438.3427	463.3547	503.237	590.3606	626.8471	698.1264	729.8847	788.2112	812.5338	843.6375	906.063	986.1488	1026.0735	1145.0183	1191.5673	1258.0766	1288.5329	1384.9604	1456.8493	1610.3641	1715.8951	1774.6887	3204.144	3240.0478	3510.024
FC1=C(F)C=CC(=N)O1	FC1=C(F)CC=C([NH])O1	
InChI=1S/C5H3F2NO/c6-3-1-2-4(8)9-5(3)7/h1-2,8H	InChI=1S/C5H4F2NO/c6-3-1-2-4(8)9-5(3)7/h2,8H,1H2
