22
gdb 109725	1.91695	1.14777	0.86447	1.6286	92.8	-0.2126	0.0432	0.2558	1496.747	0.191412	-367.167585	-367.156514	-367.15557	-367.205151	38.822	
C	 2.5333708309	 1.498486332	 0.1916986467	-0.372242
C	 2.2341891366	 0.0086672317	 0.341440956	-0.113651
N	 1.7397646627	-0.5279776774	-0.9252714959	-0.104747
C	 1.0741482556	-1.8231076018	-0.9703771052	 0.006499
C	 0.8707790644	-2.7064316157	 0.2401556621	-0.41974
C	 0.2816112344	-0.5560210907	-1.1775021555	-0.222781
C	-0.6661851616	-0.1101274544	-0.1926568449	 0.123837
C	-1.4709933656	 0.298195172	 0.6077368899	 0.038337
C	-2.4490717992	 0.7849091766	 1.5700783341	-0.499744
H	 3.2354808542	 1.669835079	-0.6290783003	 0.122134
H	 1.6156274755	 2.054687945	-0.0226878889	 0.124083
H	 2.9658086129	 1.8999312102	 1.1136918411	 0.1059
H	 3.1541522688	-0.5373880843	 0.5821190059	 0.098014
H	 1.536630558	-0.1403286181	 1.1774458873	 0.095708
H	 1.3163218526	-2.3790438448	-1.8766613028	 0.089584
H	 0.4503719156	-2.1624352713	 1.0874843809	 0.133207
H	 0.1791642643	-3.5175986973	-0.0100250056	 0.121931
H	 1.8165429954	-3.1633407686	 0.5517895944	 0.12075
H	 0.0214067102	-0.2827421438	-2.1986677336	 0.105025
H	-2.6529915616	 1.8521768763	 1.4286592561	 0.149415
H	-3.4008101763	 0.2500429968	 1.4756772394	 0.149588
H	-2.0951308778	 0.6494025988	 2.5980506291	 0.148893
25.6198	59.1943	97.0372	109.9339	153.2497	196.1597	214.5377	243.9356	280.9562	320.1135	386.6362	402.2412	501.5355	546.0537	597.426	697.5252	783.0858	794.6527	811.8972	922.9641	968.0764	1003.8661	1051.936	1052.9861	1059.2861	1075.7099	1114.0366	1145.1214	1170.3539	1183.1436	1207.2929	1310.1356	1332.1256	1368.4302	1385.6465	1404.9803	1412.1482	1417.1175	1419.6006	1476.6536	1479.1349	1487.0515	1490.1993	1495.0243	1498.1411	1509.4478	2357.1971	3003.1646	3025.7199	3038.5715	3039.7033	3051.7336	3085.2797	3087.5655	3091.5074	3095.7093	3110.7155	3113.389	3119.4027	3138.0599
CCN1C(C)C1C#CC	CCN1[C@@H](C)[C@H]1C#CC	
InChI=1S/C8H13N/c1-4-6-8-7(3)9(8)5-2/h7-8H,5H2,1-3H3	InChI=1S/C8H13N/c1-4-6-8-7(3)9(8)5-2/h7-8H,5H2,1-3H3/t7-,8+,9?/m0/s1
