20
gdb 76468	2.82961	1.47024	1.19457	2.4699	79.98	-0.2204	0.0794	0.2998	1117.1232	0.169304	-403.036423	-403.027721	-403.026776	-403.069501	33.248	
C	-0.1142943375	 1.6234597622	 0.2419037046	-0.41726
C	-0.0159561802	 0.1164767659	 0.1230152767	-0.128344
N	 1.2411094231	-0.5866935303	-0.2437888895	-0.180437
C	 2.4684654885	 0.1453464592	-0.5240337103	-0.323066
C	 0.7635950843	-0.6840805305	 1.0919338106	 0.474749
C	 1.436638954	-0.3952468836	 2.4523709613	-0.056347
C	 0.1984899843	-1.0066444382	 3.1538065204	-0.219951
C	 0.6048497849	-1.9300849315	 1.9795404148	-0.060854
O	 2.026311573	-1.757226852	 2.3874469936	-0.316914
H	 0.7192790048	 2.0563594915	 0.7996031899	 0.121414
H	-0.1452146599	 2.0955565695	-0.7462339168	 0.126463
H	-1.0377430581	 1.8947880632	 0.764543079	 0.124973
H	-0.8880185882	-0.3422994001	-0.3433159074	 0.091756
H	 2.6168273962	 1.0477553245	 0.0869671747	 0.09896
H	 3.3129121532	-0.525220523	-0.3419398754	 0.139789
H	 2.4834718046	 0.438778654	-1.5781763018	 0.120577
H	 2.0862206003	 0.4176245292	 2.7762294984	 0.096695
H	 0.4032673939	-1.4194323736	 4.1418638549	 0.109096
H	-0.753196007	-0.4727947871	 3.09167925	 0.098145
H	 0.2702141057	-2.9355185693	 1.7268412925	 0.100557
127.4974	142.7809	164.5723	174.6797	184.0326	266.6534	328.827	421.501	507.5263	521.3695	574.6875	669.6921	756.0786	766.4849	805.7676	867.1619	888.7928	915.5468	925.1345	1014.3485	1027.0506	1050.5122	1079.5459	1101.0309	1112.497	1121.2691	1155.1325	1161.3766	1170.9219	1187.7561	1203.5893	1215.1599	1249.4177	1262.9023	1366.3298	1407.5032	1442.038	1473.9041	1484.0948	1489.7974	1499.7919	1504.4631	1525.0674	2992.6957	3036.0969	3064.8353	3074.9855	3093.7854	3095.606	3112.835	3121.0091	3124.7661	3132.2145	3152.7624
CC1N(C)C11C2CC1O2	C[C@H]1N(C)[C@]21[C@H]1C[C@@H]2O1	
InChI=1S/C7H11NO/c1-4-7(8(4)2)5-3-6(7)9-5/h4-6H,3H2,1-2H3	InChI=1S/C7H11NO/c1-4-7(8(4)2)5-3-6(7)9-5/h4-6H,3H2,1-2H3/t4-,5-,6+,7-,8?/m1/s1
