20
gdb 52714	3.85987	0.65677	0.60032	3.5622	85.12	-0.2397	0.0354	0.2751	1898.5314	0.168969	-403.090146	-403.07954	-403.078596	-403.127786	36.789	
C	-0.0285692724	 1.466462146	-0.0112396922	-0.500157
C	 0.0435610079	 0.0125821921	-0.0242736568	 0.103262
C	 0.111175032	-1.1903216268	-0.0150082315	 0.026191
C	 0.1475620997	-2.6539750967	-0.0488458231	-0.057062
O	-1.1020612469	-3.2253936163	 0.3400717848	-0.419069
C	 0.5911266355	-3.1743360203	-1.4346594784	-0.227139
C	 0.740107998	-4.6773786429	-1.4628623308	 0.038265
C	 1.6660168951	-5.3250652004	-2.4216151556	-0.255766
N	 1.9802194929	-5.3142254903	-0.9798469717	-0.318039
H	 0.9319647022	 1.9056661004	 0.2796347708	 0.152849
H	-0.2906653028	 1.8645936453	-0.9975579696	 0.148853
H	-0.7820294514	 1.8185765978	 0.7017640563	 0.153097
H	 0.8602741144	-3.0188448183	 0.7015585294	 0.119394
H	-1.792418757	-2.7479838077	-0.133399044	 0.282029
H	-0.152966731	-2.851161204	-2.1749707458	 0.100812
H	 1.5392246083	-2.6955022718	-1.7111329761	 0.098439
H	-0.1547498554	-5.2172995265	-1.164948121	 0.106055
H	 1.434733577	-6.3036688652	-2.8328172314	 0.118095
H	 2.2415557248	-4.6829956232	-3.0846227408	 0.106547
H	 2.6819569891	-4.5997043212	-0.7951977124	 0.223341
26.0941	58.1467	79.5352	82.2163	154.3965	184.1127	276.1278	290.6192	333.843	346.8052	409.5319	449.4406	537.9763	556.4234	768.7762	814.9383	821.2958	882.5577	935.2529	963.4012	1007.6235	1046.0553	1052.2728	1054.4314	1078.8372	1124.1537	1132.276	1164.5839	1181.4048	1244.4814	1253.9867	1280.8699	1294.5516	1311.4265	1362.5982	1413.0743	1417.8019	1428.4414	1468.9986	1476.7455	1478.6819	1513.6889	2365.6967	3015.2207	3028.8534	3032.602	3061.8541	3090.1433	3091.3436	3103.9173	3149.3647	3188.456	3477.519	3805.3367
CC#CC(O)CC1CN1	CC#C[C@@H](O)C[C@H]1CN1	
InChI=1S/C7H11NO/c1-2-3-7(9)4-6-5-8-6/h6-9H,4-5H2,1H3	InChI=1S/C7H11NO/c1-2-3-7(9)4-6-5-8-6/h6-9H,4-5H2,1H3/t6-,7+/m0/s1
