21
gdb 101639	3.85453	0.74227	0.64825	3.0055	81.67	-0.2498	0.0451	0.2949	1742.5173	0.179378	-424.191507	-424.180836	-424.179892	-424.227376	39.305	
C	-0.0787465499	 1.5626314671	-0.005820514	-0.383277
C	 0.0303744326	 0.0357279898	-0.003299139	-0.19608
C	 0.7102231862	-0.5228577083	 1.2505733584	 0.119128
O	 0.0166660833	-0.1042389102	 2.442343852	-0.431654
C	 0.8747375764	-2.0468540107	 1.2039006009	-0.229615
C	 1.6551008422	-2.617144257	 2.4106682111	-0.070906
O	 0.9646669354	-2.4290873302	 3.6351635589	-0.439978
C	 1.9081849381	-4.0477078919	 2.230378347	 0.348185
C	 2.1189235009	-5.2155368643	 2.044164085	-0.446733
H	 0.91327816	 2.0271466643	-0.0021409458	 0.118303
H	-0.6108556295	 1.9174783523	-0.8930827761	 0.114789
H	-0.6120637746	 1.9165417576	 0.8801887844	 0.127745
H	-0.9695551648	-0.4147368581	-0.0885583902	 0.091892
H	 0.5900632376	-0.3046534981	-0.882759077	 0.105289
H	 1.7012146694	-0.0608748727	 1.3535475863	 0.094686
H	-0.8908835877	-0.4265460961	 2.3766096941	 0.286667
H	-0.1096826424	-2.5311104645	 1.1667376449	 0.105647
H	 1.4034329531	-2.3193422093	 0.2837805688	 0.112934
H	 2.6350707891	-2.1059479122	 2.4433755821	 0.089441
H	 0.6744083665	-1.5042381622	 3.6283451244	 0.288364
H	 2.3101892083	-6.2495591054	 1.8962577638	 0.195172
62.9006	83.2599	111.787	137.0777	196.8625	225.2053	262.9036	307.858	311.6197	337.4441	388.2763	460.5115	517.6374	564.9753	587.3142	624.0801	649.2898	667.0397	778.8781	853.6818	862.158	947.1176	972.9509	1009.6394	1026.484	1066.4869	1092.3594	1118.1622	1142.1941	1191.9834	1260.4797	1275.0158	1309.947	1341.1791	1350.0459	1370.2271	1390.6814	1409.152	1420.1132	1460.6495	1476.528	1483.783	1496.8513	1508.4986	2242.9162	2926.2251	3002.9701	3023.3708	3034.6863	3040.656	3056.9278	3083.4991	3106.1594	3124.1846	3504.9651	3697.0608	3782.9735
CCC(O)CC(O)C#C	CC[C@@H](O)C[C@@H](O)C#C	
InChI=1S/C7H12O2/c1-3-6(8)5-7(9)4-2/h1,6-9H,4-5H2,2H3	InChI=1S/C7H12O2/c1-3-6(8)5-7(9)4-2/h1,6-9H,4-5H2,2H3/t6-,7+/m0/s1
