16
gdb 34989	2.77684	1.72863	1.48983	4.9301	72.36	-0.2445	0.0143	0.2587	923.7911	0.126789	-396.881658	-396.874712	-396.873768	-396.912999	27.348	
N	-0.3771541546	-1.2020733789	-0.2242335136	-0.360005
C	-0.1615960529	-0.0879568636	 0.0017124309	 0.329623
C	-0.0194383198	 1.344864982	 0.0877309355	-0.1629
C	 0.5462666736	 2.124894668	 1.2361936715	-0.034837
C	 1.3747120649	 1.4720700442	 2.3119503994	-0.062052
N	 1.5940659165	 0.0299156617	 2.1297327283	-0.314698
C	 2.6204225884	 0.9720688256	 1.6640806042	-0.034489
C	 2.52082288	 1.2848958209	 0.1744722955	-0.183097
N	 1.2701200252	 2.0599655965	-0.0482055134	-0.12125
H	-0.8063204841	 1.8364011134	-0.4827391607	 0.138095
H	 0.0746226557	 3.0726624313	 1.4826554439	 0.103711
H	 1.3603776145	 1.8982095081	 3.3085065782	 0.099437
H	 1.8690215913	-0.4021101619	 3.0079168109	 0.241065
H	 3.5852079329	 1.0025457713	 2.1607645792	 0.099599
H	 3.3514917958	 1.9254470764	-0.1360555823	 0.120317
H	 2.5312550627	 0.381248105	-0.4419660775	 0.141482
112.0894	164.3027	241.2491	327.2027	386.5607	454.3573	597.7717	618.2408	684.3788	703.8951	759.7433	773.9937	838.0935	861.6639	873.7856	892.7628	949.6249	989.2132	1022.9659	1047.1496	1085.8464	1105.4044	1125.394	1140.88	1159.9296	1230.6595	1231.3521	1284.2224	1325.4931	1359.4696	1378.4471	1393.2439	1429.2606	1487.9764	2347.0981	3057.3409	3103.0922	3115.9383	3142.4328	3160.4307	3182.4304	3508.7493
N#CC1C2C3NC3CN12	N#C[C@H]1[C@H]2[C@H]3N[C@H]3CN12	
InChI=1S/C6H7N3/c7-1-4-6-5-3(8-5)2-9(4)6/h3-6,8H,2H2	InChI=1S/C6H7N3/c7-1-4-6-5-3(8-5)2-9(4)6/h3-6,8H,2H2/t3-,4-,5-,6-,9?/m0/s1
