17
gdb 111743	2.27772	1.38155	1.06986	3.7545	70.85	-0.2511	-0.0329	0.2182	1161.564	0.134425	-458.915094	-458.906459	-458.905515	-458.949096	31.31	
O	 0.1838821034	 0.6967307178	 0.8783583011	-0.415879
C	-0.1609860853	 0.2296077323	-0.4138708081	-0.09141
C	-1.5059985946	-0.4668871123	-0.4161022204	-0.108832
C	-1.9664264782	-1.4889931982	-1.4130049562	-0.201594
C	-0.840402071	-2.4578398998	-1.769733059	-0.104685
O	-0.519397771	-2.6857445138	-0.370877879	-0.305822
C	-1.6430904654	-1.9134987044	 0.0309522543	 0.353379
C	-2.53273055	-2.3572586279	 1.1115290579	 0.063201
O	-2.3507299068	-3.3257470821	 1.8060805431	-0.262884
H	 0.3510862469	-0.0746094749	 1.430505393	 0.293074
H	-0.2107259674	 1.1173608565	-1.052982215	 0.118094
H	 0.6133363105	-0.4320709836	-0.820294963	 0.109118
H	-2.3206870129	 0.158006162	-0.0550375256	 0.112667
H	-2.9317134148	-1.4435961459	-1.8994312117	 0.119833
H	-1.2076722693	-3.3812424866	-2.2286497989	 0.127478
H	 0.0123341357	-2.0726480931	-2.3379496832	 0.118624
H	-3.4157706501	-1.689607416	 1.2415364808	 0.075636
58.1348	81.9623	176.6599	198.5916	245.1641	269.9423	331.3392	401.0251	443.2863	492.4238	602.76	730.7624	753.1807	816.7017	887.6697	935.2375	971.1628	982.691	1000.9465	1031.9158	1047.7562	1070.1424	1082.3676	1120.1154	1165.8955	1182.9832	1213.3139	1285.9208	1313.2433	1348.7836	1375.2588	1411.2455	1424.7238	1461.3186	1492.9767	1519.539	1812.0273	2864.0197	3029.3889	3042.8685	3079.8509	3093.2932	3141.0247	3204.4871	3811.6571
OCC1C2COC12C=O	OC[C@H]1[C@H]2CO[C@@]12C=O	
InChI=1S/C6H8O3/c7-1-4-5-2-9-6(4,5)3-8/h3-5,7H,1-2H2	InChI=1S/C6H8O3/c7-1-4-5-2-9-6(4,5)3-8/h3-5,7H,1-2H2/t4-,5+,6-/m0/s1
