19
gdb 126479	2.02783	1.49938	0.92583	3.9404	78.59	-0.2066	0.0042	0.2107	1296.9237	0.159385	-419.198977	-419.189738	-419.188794	-419.233366	33.574	
C	 0.1353616501	 1.5190468076	 0.1475899256	-0.380025
C	-0.0433877352	 0.0054643028	-0.0669124729	-0.303211
C	 0.6997868519	-0.5110900452	-1.2609514522	 0.324424
N	 0.0764401475	-0.7682530096	-2.3863629272	-0.205052
O	 1.0371350376	-1.2126276207	-3.2753872795	-0.177538
C	 2.2424269598	-1.2016828362	-2.6606265956	-0.009596
C	 2.1059834438	-0.7732565796	-1.3744942827	 0.107391
N	 3.0489467328	-0.677420216	-0.354924648	-0.392379
C	 4.4449002416	-0.8282483079	-0.7285966697	-0.33045
H	 1.1880956736	 1.7924147755	 0.2811141824	 0.108784
H	-0.2418993795	 2.0772239525	-0.7137874114	 0.138045
H	-0.4083727455	 1.8498015177	 1.0373900789	 0.120799
H	 0.2959872054	-0.5376326421	 0.823683985	 0.11352
H	-1.1043155336	-0.2236575138	-0.2000917121	 0.131847
H	 3.0782344788	-1.5339076359	-3.2532405616	 0.137168
H	 2.8876705845	 0.1119341769	 0.2544433437	 0.239257
H	 5.0723411836	-0.6896732817	 0.154589239	 0.127699
H	 4.6138835223	-1.8435224705	-1.1042297713	 0.136114
H	 4.7704108304	-0.1205398039	-1.5085606306	 0.113201
72.2046	96.0012	148.4653	171.6014	204.8271	226.2901	291.5378	321.4608	435.3674	489.7871	559.2981	602.5939	640.2142	735.9353	758.1458	776.7053	793.5834	921.6229	955.7924	980.7906	1070.41	1077.8454	1092.6411	1137.0848	1150.6781	1169.8816	1229.6937	1285.079	1310.1684	1353.8181	1409.1311	1424.961	1459.9021	1477.9971	1483.6495	1491.4376	1497.719	1506.1398	1520.289	1546.5131	1675.8628	2971.3734	3035.1886	3036.1755	3063.2808	3087.8786	3107.3752	3121.2934	3122.3016	3280.5356	3583.4511
CCC1=NOC=C1NC	CCc1nocc1NC	
InChI=1S/C6H10N2O/c1-3-5-6(7-2)4-9-8-5/h4,7H,3H2,1-2H3	InChI=1S/C6H10N2O/c1-3-5-6(7-2)4-9-8-5/h4,7H,3H2,1-2H3
