19
gdb 14479	3.84901	2.1261	2.10031	1.7504	72.83	-0.2316	0.0791	0.3107	775.1709	0.168811	-327.932331	-327.926012	-327.925068	-327.962177	26.71	
C	-0.0091790599	 1.4848743667	 0.0202112104	-0.486201
C	 0.0169769474	-0.0302102801	 0.014944484	 0.271074
C	 0.6691753077	-0.7406408522	-1.1984493405	-0.255364
C	 0.3883412304	-2.1673740023	-0.7452660477	-0.034384
C	 0.4208937569	-2.1719922952	 0.7449622097	-0.034384
C	 0.72141618	-0.7480556021	 1.1942959935	-0.255365
N	-0.8820035624	-2.1895958008	 0.0278881448	-0.129222
C	-1.3343155446	-0.7783356959	 0.042127031	-0.174793
H	 1.0027392321	 1.9038155229	 0.001099164	 0.115361
H	-0.5451194394	 1.8748579578	-0.8523003606	 0.114897
H	-0.5094072939	 1.8693335261	 0.9160735756	 0.114897
H	 0.1839264573	-0.4854182184	-2.1466475835	 0.096865
H	 1.7404032522	-0.5303999259	-1.2878135319	 0.096399
H	 0.60981779	-3.0360393342	-1.3535308182	 0.086357
H	 0.6685948251	-3.0443813144	 1.3375824484	 0.086358
H	 1.7955471166	-0.538191486	 1.2380634092	 0.096398
H	 0.2780947134	-0.4988063135	 2.1643610164	 0.096867
H	-1.9203556032	-0.580452635	 0.9458772171	 0.097119
H	-1.9592729659	-0.5749680376	-0.8339058818	 0.097122
214.0557	275.4853	284.567	430.3953	443.923	451.6208	600.4393	671.0082	683.6835	792.402	807.9019	841.2739	895.84	914.3726	931.2067	941.5103	958.2562	970.3136	1026.124	1026.6883	1055.5826	1067.8864	1142.4281	1142.7835	1173.9778	1181.0048	1214.7179	1247.1248	1260.0923	1262.0504	1286.1517	1316.8703	1340.4284	1389.5209	1416.6522	1483.9461	1488.0583	1495.1817	1498.5427	1516.1101	3025.0083	3038.2036	3038.248	3047.5068	3082.1331	3086.4732	3088.2474	3091.9212	3092.3087	3179.4661	3189.9252
CC12CC3C(C1)N3C2	C[C@@]12C[C@H]3[C@@H](C1)N3C2	
InChI=1S/C7H11N/c1-7-2-5-6(3-7)8(5)4-7/h5-6H,2-4H2,1H3	InChI=1S/C7H11N/c1-7-2-5-6(3-7)8(5)4-7/h5-6H,2-4H2,1H3/t5-,6+,7+,8?
