13
gdb 21122	5.32134	1.65742	1.27846	1.751	68.58	-0.235	-0.0679	0.1671	894.67	0.096144	-390.898753	-390.891594	-390.89065	-390.931018	24.971	
C	-0.0026295996	 1.4251938268	 0.0512737162	-0.335466
N	 0.1248849866	-0.0201056441	 0.0337811031	-0.291981
C	 0.64817441	-0.6093029477	-0.967611088	 0.357506
C	 0.7916429391	-2.059349437	-0.9748640793	 0.005593
N	 1.1590966204	-2.718870023	-2.0194801884	-0.176734
N	 1.406234625	-1.9430344529	-3.1039526783	-0.108831
N	 1.5183152294	-0.6035650025	-3.1296954912	-0.045829
N	 1.1659872227	 0.0652125357	-2.118635234	-0.249814
H	 0.5339402538	 1.8103776915	 0.9267795431	 0.130938
H	 0.3668458046	 1.9303334282	-0.8459083741	 0.137922
H	-1.0588046599	 1.6788604624	 0.2011925162	 0.129909
H	 0.5917521655	-2.6213526989	-0.0681105783	 0.150511
H	 1.7955351523	-2.4112145186	-3.9068649969	 0.296276
52.382	81.4858	212.9336	244.4322	393.3642	460.0813	493.1786	582.4133	602.9082	665.4542	769.3003	796.4391	950.2308	976.2895	1017.6655	1074.3227	1117.9953	1124.8059	1153.6313	1269.5825	1351.4685	1409.6651	1428.6042	1485.3945	1493.0008	1573.5813	1658.8633	1722.703	3019.4572	3070.9665	3105.7192	3191.1228	3652.7173
CN=C1C=NNN=N1	C[N]c1cn[nH]nn1	
InChI=1S/C3H5N5/c1-4-3-2-5-7-8-6-3/h2H,1H3,(H,4,6,7)	InChI=1S/C3H10N5/c1-4-3-2-5-7-8-6-3/h3,5-8H,2H2,1H3
