19
gdb 78078	3.23166	1.27999	1.08991	1.544	81.87	-0.2436	0.0409	0.2845	1165.7493	0.157306	-385.827906	-385.818749	-385.817805	-385.861177	35.137	
C	 0.0007803114	 1.5933770012	 0.1159713858	-0.500696
C	-0.0080454	 0.0947565216	 0.0293655425	 0.308241
C	-1.2770447751	-0.7617580694	-0.0995710921	-0.300426
C	-0.6667131867	-1.8095085074	 0.9033571703	-0.167533
C	-0.55660999	-3.2059661029	 0.5065282649	 0.306541
C	-0.4431565928	-4.3599660492	 0.1813047075	-0.462496
C	 0.6268511684	-0.9759156705	 0.9559785412	-0.185987
C	 1.1629016334	-0.7263311562	-0.4236366378	 0.071649
O	 1.0694054251	-1.6309670801	-1.4849528159	-0.432792
H	 1.0031472018	 1.9719701453	 0.3413647543	 0.119568
H	-0.3159888118	 2.042274548	-0.8333712637	 0.126634
H	-0.6774014317	 1.9570960447	 0.8966669506	 0.11547
H	-2.1709016596	-0.2849607769	 0.3071636561	 0.104189
H	-1.4823603184	-1.1358611004	-1.1042152844	 0.119835
H	-1.1943147053	-1.7502015076	 1.8596081982	 0.10886
H	-0.3608554052	-5.3812219106	-0.0984718008	 0.199626
H	 1.2421733756	-0.868484595	 1.8426045099	 0.087166
H	 2.1041771898	-0.1757492188	-0.4213495061	 0.088648
H	 1.0431981609	-2.5261142958	-1.1278849303	 0.293504
114.8527	124.5932	191.776	211.7398	234.4552	264.1819	287.1916	309.1323	440.5933	487.3847	532.8231	575.7754	625.1264	629.3652	660.87	749.5259	796.0066	836.7977	898.487	955.819	969.9873	975.2747	1015.2258	1042.5257	1072.5456	1110.6451	1137.9319	1174.4777	1219.7997	1235.3824	1254.7285	1301.8094	1326.9697	1335.3829	1365.0142	1416.1102	1456.4223	1482.9928	1490.0568	1499.8756	2220.631	3019.7257	3060.6583	3074.1801	3077.8449	3094.5043	3102.9734	3132.0696	3167.9394	3500.6973	3788.3268
CC12CC(C#C)C1C2O	C[C@]12C[C@@H](C#C)[C@H]1[C@H]2O	
InChI=1S/C8H10O/c1-3-5-4-8(2)6(5)7(8)9/h1,5-7,9H,4H2,2H3	InChI=1S/C8H10O/c1-3-5-4-8(2)6(5)7(8)9/h1,5-7,9H,4H2,2H3/t5-,6+,7-,8+/m1/s1
