20
gdb 54212	2.75106	1.30294	1.19639	3.2738	79.16	-0.2377	0.027	0.2646	1143.7794	0.170705	-403.200958	-403.191531	-403.190587	-403.235823	35.16	
C	 0.1882449021	 1.336007762	 0.0487752723	-0.430602
C	-0.0771508515	-0.1839004925	 0.0133173716	 0.196731
C	 0.6655362619	-0.8231769998	-1.210349085	-0.314288
C	 1.9054491347	-1.4271013278	-0.5996250303	-0.065638
C	 1.8490471878	-1.4452813498	 0.7301646669	-0.061292
C	 0.5683273395	-0.8574405562	 1.2594022669	-0.294987
C	-1.5951840343	-0.418831331	-0.0176003158	 0.363335
N	-2.2106798358	-0.0805293889	-1.1908564509	-0.522423
O	-2.2268449606	-0.8418977317	 0.9321836442	-0.368582
H	 1.2661215465	 1.5192856377	 0.1069376609	 0.125193
H	-0.1943992296	 1.8387103283	-0.8451511563	 0.104902
H	-0.2851053546	 1.7942523898	 0.9226525234	 0.129418
H	 0.0575136805	-1.5969716805	-1.6992673738	 0.11035
H	 0.8948630134	-0.0768676652	-1.9829059175	 0.093723
H	 2.7137140283	-1.8245490042	-1.2035293763	 0.090958
H	 2.6115326445	-1.8583702259	 1.3815802026	 0.092031
H	 0.7336617897	-0.1348192388	 2.0671939533	 0.099927
H	-0.0976324265	-1.623374822	 1.6716656205	 0.133464
H	-1.7022063738	 0.2002675883	-2.0100557408	 0.258761
H	-3.2027683021	-0.2339192019	-1.264966216	 0.259019
29.5646	90.3131	117.2745	214.4472	243.4904	275.994	332.3948	352.1313	398.7576	428.0721	497.1036	569.3513	633.7957	694.7568	770.5175	773.6451	786.7063	891.1701	932.2358	942.1366	961.4006	980.3453	989.8197	1001.1792	1082.8556	1098.832	1127.1204	1151.8809	1156.1554	1211.2739	1254.7793	1296.4419	1330.2698	1354.0198	1368.1911	1409.1667	1485.4313	1489.3163	1496.2728	1501.8311	1615.519	1693.5195	1785.6029	3002.932	3029.2845	3031.2626	3036.6652	3069.7126	3103.0339	3108.2931	3180.523	3205.9866	3605.53	3742.4817
CC1(CC=CC1)C(N)=O	C[C@]1(CC=CC1)C(=O)N	
InChI=1S/C7H11NO/c1-7(6(8)9)4-2-3-5-7/h2-3H,4-5H2,1H3,(H2,8,9)	InChI=1S/C7H11NO/c1-7(6(8)9)4-2-3-5-7/h2-3H,4-5H2,1H3,(H2,8,9)
