20
gdb 118922	2.54568	1.07788	0.97965	3.1007	76.05	-0.2454	0.0185	0.264	1344.087	0.169061	-440.310017	-440.299733	-440.298789	-440.34605	36.385	
C	 0.0183342194	 1.5595283132	 0.0160965231	-0.385182
C	 0.0100671562	 0.0295020088	-0.0175689892	-0.171482
C	-1.4055485558	-0.5519969639	 0.0850991048	-0.212987
C	-1.4372464916	-2.0768035945	 0.0579760944	 0.262449
O	-0.7275030969	-2.5606024762	 1.1720447076	-0.472766
C	-2.8609247021	-2.7010952291	-0.1950370246	-0.21975
N	-2.3568816594	-3.1362569742	-1.5006135137	-0.324367
C	-1.0632428968	-2.7217919411	-1.3186719454	 0.348184
O	-0.0555442311	-2.851913874	-1.9644429163	-0.366439
H	 1.038144728	 1.9509964005	-0.0494472524	 0.113314
H	-0.5527823515	 1.9811029605	-0.8190438195	 0.110659
H	-0.4247176445	 1.9402267598	 0.9435917026	 0.110946
H	 0.4793393954	-0.3291338208	-0.9405736704	 0.121701
H	 0.6098636683	-0.3675400822	 0.8073974196	 0.112671
H	-1.8780592785	-0.2232560284	 1.0207510903	 0.103519
H	-2.0301649863	-0.1746202871	-0.7344395231	 0.098102
H	-0.3349418013	-3.4113718346	 0.9511405088	 0.294135
H	-3.0969690945	-3.5188465971	 0.4926979319	 0.111825
H	-3.6948547237	-1.9943340399	-0.2429514256	 0.112087
H	-2.7845081036	-3.6652391198	-2.245865903	 0.25338
49.6291	77.7704	100.7006	121.2124	169.9579	214.444	249.0089	287.1802	322.9407	340.8577	415.2734	496.2191	556.7901	725.308	755.714	764.2223	782.0901	873.5428	889.7708	942.4951	955.4308	998.7158	1051.42	1069.2825	1130.8976	1139.6764	1154.3366	1179.6413	1222.9285	1266.5319	1288.3621	1318.372	1336.8923	1374.6326	1391.886	1399.6371	1412.8644	1473.1778	1495.4506	1500.4637	1512.2529	1523.5959	1880.3093	3013.8015	3026.5298	3042.13	3049.363	3053.6519	3077.7849	3095.9837	3101.778	3103.5537	3614.1279	3818.8122
CCCC1(O)CNC1=O	CCC[C@@]1(O)CNC1=O	
InChI=1S/C6H11NO2/c1-2-3-6(9)4-7-5(6)8/h9H,2-4H2,1H3,(H,7,8)	InChI=1S/C6H11NO2/c1-2-3-6(9)4-7-5(6)8/h9H,2-4H2,1H3,(H,7,8)/t6-/m1/s1
