16
gdb 90220	3.10836	1.82355	1.62669	1.9413	68.18	-0.2152	0.0421	0.2573	864.2754	0.123979	-437.689842	-437.683131	-437.682187	-437.720622	27.733	
O	 0.1624158706	 1.2589788699	-0.3617473459	-0.416303
C	 0.0772570159	-0.092117225	-0.016840335	 0.046699
C	 0.1813448794	-0.3972447525	 1.5401492889	-0.361481
C	-1.3571260019	-0.4848719604	 1.5765049357	 0.302353
O	-2.1217771657	 0.7768187878	 1.5355751894	-0.357675
C	-2.7306945389	-0.042645861	 0.491381848	 0.044157
C	-2.5683991279	-1.4193547029	 1.2566027538	-0.120138
N	-1.9129546526	-2.0709352327	 0.0675450414	-0.380444
C	-1.3909182619	-0.6551204961	 0.0407279792	 0.174096
H	-0.4942667501	 1.7234492211	 0.1755291397	 0.293007
H	 0.7730566138	-0.6397903968	-0.6574619964	 0.107272
H	 0.6619861864	-1.3562827667	 1.7504027923	 0.124577
H	 0.6361194309	 0.3782799503	 2.1603722288	 0.133405
H	-3.5901835998	 0.361434641	-0.0492001518	 0.105028
H	-3.2786308237	-1.9446591158	 1.9023119842	 0.091901
H	-1.1840768945	-2.7100336103	 0.3984588176	 0.213547
128.4692	231.3827	333.1908	395.7291	452.6522	473.1934	524.1418	544.7418	642.0488	716.1859	756.6447	769.0773	811.6944	816.5623	881.6525	904.1168	924.459	951.2868	1007.2555	1040.9721	1066.7172	1093.4836	1111.3293	1130.6108	1161.3582	1196.0875	1203.4728	1234.8782	1243.7907	1257.1316	1294.3261	1303.6038	1342.48	1439.7505	1450.8779	3066.5606	3068.0632	3082.546	3092.2521	3131.0669	3395.1274	3749.6221
OC1CC23OC4C2NC134	O[C@H]1C[C@]23O[C@@H]4[C@H]2N[C@]134	
InChI=1S/C6H7NO2/c8-2-1-5-3-4(9-5)6(2,5)7-3/h2-4,7-8H,1H2	InChI=1S/C6H7NO2/c8-2-1-5-3-4(9-5)6(2,5)7-3/h2-4,7-8H,1H2/t2-,3+,4+,5-,6-/m0/s1
