16
gdb 13355	5.48004	1.13057	1.05238	3.2946	62.31	-0.2631	0.0038	0.267	1104.8052	0.130715	-420.89964	-420.891955	-420.891011	-420.93343	26.591	
O	 0.6862541689	-0.0620244285	-0.1451677339	-0.273256
C	 0.4031330951	 1.0838001077	 0.0325035127	 0.16741
O	 1.1779867542	 2.1008399419	-0.3879422994	-0.192212
C	 0.7652993665	 3.4485192749	-0.0964766725	 0.074947
C	 1.8279087581	 4.1445204995	 0.7659927073	-0.228992
C	 2.7328360936	 4.7689001967	-0.3000923841	-0.0793
O	 1.8282375987	 5.2224187475	-1.2995357083	-0.248883
C	 0.7763142606	 4.2739087711	-1.4062627347	-0.082992
H	-0.5141636053	 1.428829243	 0.5497725861	 0.077727
H	-0.2208413774	 3.4220520369	 0.3772417728	 0.092748
H	 1.3582954168	 4.9310076368	 1.3645011162	 0.116557
H	 2.3319943555	 3.4428358006	 1.4329558007	 0.121066
H	 3.3059430189	 5.6308032523	 0.0491357637	 0.115843
H	 3.4308913591	 4.0202779056	-0.7054290069	 0.108681
H	 0.9344492968	 3.5902581152	-2.2510711473	 0.118135
H	-0.15843091	 4.8206763487	-1.5655992823	 0.112523
36.6032	47.6221	153.9048	216.955	281.7293	367.6404	425.0257	594.1797	659.776	735.6956	869.4369	908.9017	926.6987	944.8307	989.1828	1009.3468	1044.0453	1074.3542	1117.5578	1134.0701	1195.5433	1198.3087	1236.8723	1256.6978	1288.6321	1326.4387	1359.2887	1376.2731	1407.9153	1441.7606	1471.3461	1506.3968	1521.3751	1867.0098	2940.6651	2991.0063	3018.9162	3053.8615	3066.6435	3080.778	3104.9703	3129.1653
O=COC1CCOC1	O=CO[C@H]1CCOC1	
InChI=1S/C5H8O3/c6-4-8-5-1-2-7-3-5/h4-5H,1-3H2	InChI=1S/C5H8O3/c6-4-8-5-1-2-7-3-5/h4-5H,1-3H2/t5-/m0/s1
