20
gdb 59907	4.41445	0.70051	0.65546	1.1724	79.33	-0.275	-0.0222	0.2527	1766.9489	0.16817	-440.33191	-440.321452	-440.320508	-440.368675	36.499	
C	-0.0991478835	 1.504149283	 0.0066311106	-0.39661
C	 0.0390109528	-0.0146608653	 0.1718997375	 0.045857
C	 0.6564753466	-0.3709397194	 1.5311232286	-0.390972
C	-1.3233613862	-0.6950633624	-0.0236283742	-0.32706
C	-1.2473801537	-2.1934244482	-0.1901043609	 0.464879
O	-0.2568185902	-2.8490222333	-0.3667103372	-0.336492
O	-2.5150325055	-2.7296239042	-0.1356150747	-0.207091
C	-2.6528230044	-4.0852619245	-0.3004030134	 0.115209
N	-3.8134150974	-4.5680669942	-0.2571360619	-0.419098
H	 0.8708224393	 1.997683088	 0.1221203943	 0.116271
H	-0.4948531396	 1.768403093	-0.9799149404	 0.11192
H	-0.7756816174	 1.92438116	 0.7605219394	 0.114677
H	 0.706630116	-0.3914993084	-0.6121577853	 0.095507
H	 1.6366781266	 0.101992504	 1.6475427688	 0.114844
H	 0.0201429702	-0.0209813665	 2.3532540884	 0.109403
H	 0.7908849267	-1.450433979	 1.6353680573	 0.132094
H	-2.0070415371	-0.4770857782	 0.8056643295	 0.136428
H	-1.826479698	-0.3109219799	-0.921477507	 0.138253
H	-1.7007361981	-4.5936333031	-0.4534287197	 0.142529
H	-3.7705819972	-5.5773773214	-0.3918629697	 0.239448
28.4617	80.353	109.1855	120.096	141.104	229.0024	243.7141	259.6426	308.029	353.3762	414.8541	437.2905	538.2599	577.24	742.3344	836.8117	853.6897	894.976	930.6849	939.2627	970.5206	972.9142	1031.6912	1073.1748	1124.4749	1133.9751	1173.2597	1200.4193	1252.3755	1266.9388	1319.8971	1364.021	1386.6613	1398.6093	1402.6212	1424.0947	1448.1701	1488.9561	1494.5141	1506.4846	1513.9467	1746.0743	1836.9618	3024.8567	3027.3817	3030.2875	3038.9622	3069.5244	3089.8766	3096.8342	3103.8373	3122.6303	3139.0347	3505.5276
CC(C)CC(=O)OC=N	CC(C)CC(=O)O[CH][NH]	
InChI=1S/C6H11NO2/c1-5(2)3-6(8)9-4-7/h4-5,7H,3H2,1-2H3	InChI=1S/C6H11NO2/c1-5(2)3-6(8)9-4-7/h4-5,7H,3H2,1-2H3
