18
gdb 60654	2.97115	1.12185	0.87601	3.2515	68.13	-0.2515	0.0086	0.26	1290.573	0.146864	-476.227293	-476.217886	-476.216942	-476.262761	33.441	
N	-0.0075510851	 1.2662489781	-0.1649212044	-0.516041
C	 0.0358471909	-0.082769188	-0.0411277556	 0.375982
O	 1.0749698636	-0.7135006398	 0.0630000733	-0.374193
C	-1.3121304778	-0.8213992696	 0.0153375539	 0.005293
O	-1.0694520129	-2.1941497506	-0.1437484169	-0.433463
C	-2.0225049681	-0.5657353775	 1.3498980289	-0.02373
C	-2.8200376817	 0.7445971344	 1.5396306259	-0.094487
O	-4.0490406122	 0.0271362818	 1.7352668495	-0.272173
C	-3.3993613992	-1.2455199794	 1.5101264954	-0.084933
H	 0.8618347419	 1.7712014932	-0.230033837	 0.270283
H	-0.8631261491	 1.7510050404	-0.3730590142	 0.267539
H	-1.9571817247	-0.4703674195	-0.8060965807	 0.084923
H	-0.1056260377	-2.2856933463	-0.0449228074	 0.294394
H	-1.3325233115	-0.7851023203	 2.1682197666	 0.092661
H	-2.5497542715	 1.3558104638	 2.4086881206	 0.108256
H	-2.8730586336	 1.4005207995	 0.6560196063	 0.076347
H	-3.77312458	-1.7487224258	 0.6104261632	 0.114427
H	-3.5085656113	-1.9184338646	 2.3673220824	 0.108913
50.6377	54.7771	87.5203	139.6884	261.956	265.2901	296.0255	341.733	394.6389	477.4075	522.3222	558.925	663.2931	694.6661	821.9567	857.4699	884.3758	904.4178	973.1171	1030.6738	1046.8689	1088.4891	1100.3577	1138.0359	1145.7293	1162.5912	1176.5769	1257.7574	1261.4216	1300.8425	1309.6381	1358.0669	1375.5925	1396.1643	1466.3504	1507.0814	1534.2591	1619.6711	1787.1416	2965.1789	2981.0067	3026.9972	3045.0091	3069.6291	3088.5883	3598.2762	3645.576	3732.264
NC(=O)C(O)C1COC1	NC(=O)[C@@H](O)C1COC1	
InChI=1S/C5H9NO3/c6-5(8)4(7)3-1-9-2-3/h3-4,7H,1-2H2,(H2,6,8)	InChI=1S/C5H9NO3/c6-5(8)4(7)3-1-9-2-3/h3-4,7H,1-2H2,(H2,6,8)/t4-/m0/s1
