17
gdb 62815	2.33639	1.55099	1.36764	5.3011	74.01	-0.2486	-0.0063	0.2422	1032.9603	0.135291	-417.9434	-417.935045	-417.934101	-417.975956	32.413	
C	-0.1556744739	 1.5980379963	-0.0942880339	-0.476286
C	-0.0184154165	 0.0861125907	-0.0202843113	 0.314569
N	-1.3122358283	-0.5212161805	-0.1451679451	-0.560355
C	 1.2266298893	-0.6511579362	-0.6681581587	-0.030271
C	 2.1662723021	-0.0922635417	 0.4201255689	-0.272796
C	 0.8687272207	-0.5946680739	 1.0963533686	 0.289058
O	 0.946220672	-1.8030953112	 0.2366385759	-0.341092
C	 0.5769934865	-0.7565252047	 2.4990260341	 0.184987
N	 0.3353378116	-0.8345067673	 3.6265881401	-0.342209
H	 0.7870431395	 2.1324130951	 0.0193538441	 0.126953
H	-0.5785900236	 1.8799861993	-1.0654827341	 0.124345
H	-0.8486060235	 1.9397277522	 0.6793403852	 0.152286
H	-1.8101948862	-0.1687824881	-0.9544471873	 0.230591
H	-1.2189095345	-1.5282673855	-0.220399884	 0.247026
H	 1.4391534239	-0.8880872933	-1.7100835626	 0.105351
H	 3.0271349303	-0.7255676519	 0.6286908937	 0.131531
H	 2.4030337508	 0.9699180306	 0.4480398565	 0.116311
121.58	133.0032	166.3455	259.0544	338.4639	346.2951	363.5571	408.6925	506.7255	521.4942	551.2454	589.9736	629.037	702.0881	750.0793	786.2718	851.4187	898.7429	948.9388	975.7023	991.68	1025.9096	1046.0151	1098.09	1115.8343	1182.1273	1207.4159	1213.4582	1270.6409	1287.9066	1363.8752	1418.1888	1484.7711	1489.3712	1507.819	1638.5585	2356.2316	3043.6774	3101.3366	3109.066	3132.7336	3152.3303	3180.6004	3514.8708	3604.6883
CC1(N)C2CC1(O2)C#N	C[C@@]1(N)[C@H]2C[C@@]1(O2)C#N	
InChI=1S/C6H8N2O/c1-5(8)4-2-6(5,3-7)9-4/h4H,2,8H2,1H3	InChI=1S/C6H8N2O/c1-5(8)4-2-6(5,3-7)9-4/h4H,2,8H2,1H3/t4-,5-,6-/m1/s1
