14
gdb 21955	7.06199	1.06627	0.99462	1.3936	58.8	-0.2706	-0.0288	0.2418	1118.6723	0.108877	-412.020443	-412.013037	-412.012092	-412.053597	25.449	
O	 0.1279863281	 1.4035794803	-0.0380132504	-0.411901
C	 0.0747639889	-0.0084031159	 0.0154750862	-0.063386
C	-1.366378616	-0.5404090558	-0.1135807528	-0.305527
C	-1.4212245238	-2.0290212221	-0.0725264405	 0.377535
N	-1.5096653389	-2.8100279291	-1.1464553348	-0.258794
N	-1.4851179806	-4.0137021454	-0.5899699003	-0.066108
N	-1.3896725503	-4.014846455	 0.7304473556	-0.099027
N	-1.3455283893	-2.7556156764	 1.0770461057	-0.249777
H	-0.2707945157	 1.7479262188	 0.7675206923	 0.285669
H	 0.6726868014	-0.3667793892	-0.8285345872	 0.124285
H	 0.5306925422	-0.4035368679	 0.9349039119	 0.110791
H	-1.9686292213	-0.1453623926	 0.7123525353	 0.119451
H	-1.7977762115	-0.1819945114	-1.0511761247	 0.134563
H	-1.5472122233	-4.8663041482	-1.1262552563	 0.302226
32.7478	98.8531	120.7057	302.3725	349.536	360.2206	382.0967	583.1196	733.1709	744.3504	783.9833	819.8847	1012.068	1025.0941	1049.6405	1067.6547	1081.5858	1126.0178	1152.3014	1194.0767	1269.3737	1293.8822	1308.8414	1363.822	1397.7853	1414.1263	1466.1284	1485.3447	1511.8018	1543.8171	3002.8427	3048.2722	3081.8776	3118.2874	3648.828	3816.8088
OCCC1=NNN=N1	OCCc1n[nH]nn1	
InChI=1S/C3H6N4O/c8-2-1-3-4-6-7-5-3/h8H,1-2H2,(H,4,5,6,7)	InChI=1S/C3H6N4O/c8-2-1-3-4-6-7-5-3/h8H,1-2H2,(H,4,5,6,7)
