16
gdb 42716	2.51989	2.1607	1.75057	4.1833	71.66	-0.2357	0.0016	0.2373	842.6351	0.127047	-400.732465	-400.726227	-400.725283	-400.762695	26.353	
O	 0.0028503419	 0.0788016687	 0.1318602404	-0.321561
C	-0.0154803156	 1.2588023293	-0.0100829136	 0.440511
C	-1.1901328905	 2.2920536237	-0.0128974768	-0.182441
C	-0.6970385537	 3.0726448569	 1.1927868297	-0.086424
C	 0.6495143283	 3.0912429632	 1.1737002821	-0.086424
C	 1.1296067246	 2.3241288975	-0.045801635	-0.182438
C	 0.6798632866	 3.1096236245	-1.2934779423	-0.027429
N	-0.0615530221	 2.2762963698	-2.2665568739	-0.346349
C	-0.7978473848	 3.089181578	-1.2725242996	-0.027427
H	-2.2002811274	 1.8894175901	 0.0244389089	 0.08567
H	-1.3415780627	 3.497771341	 1.9508788408	 0.108688
H	 1.3032939012	 3.5343053736	 1.9133861502	 0.108687
H	 2.1511522407	 1.9495867805	-0.0372918001	 0.085671
H	 1.2451850706	 3.9713130832	-1.6296997033	 0.097884
H	-0.0807213428	 2.7288608662	-3.1767118471	 0.235498
H	-1.3960889643	 3.9347743241	-1.5922472404	 0.097885
183.1787	294.392	336.2368	416.4845	494.4087	506.3208	606.1244	671.6646	702.0547	773.8729	787.1224	824.753	848.9505	861.9603	889.7425	919.047	940.5988	961.6927	963.8976	977.1744	1035.1122	1084.9544	1116.7476	1119.0798	1122.5855	1193.6353	1203.0274	1212.4806	1259.7049	1284.6319	1313.5154	1359.4321	1399.6383	1602.3798	1913.4154	3142.1451	3143.2797	3171.7522	3182.4459	3206.719	3229.2602	3511.5808
O=C1C2C=CC1C1NC21	O=C1[C@H]2C=C[C@@H]1[C@H]1N[C@@H]21	
InChI=1S/C7H7NO/c9-7-3-1-2-4(7)6-5(3)8-6/h1-6,8H	InChI=1S/C7H7NO/c9-7-3-1-2-4(7)6-5(3)8-6/h1-6,8H/t3-,4+,5-,6+
