20
gdb 119918	2.60383	1.02393	0.89969	2.7412	82.76	-0.2346	0.0268	0.2614	1385.5105	0.168607	-403.079288	-403.069277	-403.068333	-403.114626	36.781	
C	-0.1735285435	 1.4737942503	-0.0340550461	-0.426926
C	 0.0685722234	-0.0040598628	 0.1689203421	 0.003953
C	 1.4156664055	-0.6342894081	-0.0882669835	-0.217717
C	 2.5421032033	 0.1710240786	-0.4711086315	 0.35248
C	 3.5066022107	 0.8152392915	-0.7915861863	-0.468536
N	 0.8526347447	-0.5546813274	 1.2712040029	-0.124279
C	 1.4714657354	 0.3105472394	 2.2777226069	-0.152277
C	 0.637767119	 0.2033226057	 3.5555183241	-0.048531
O	 0.5219907422	-1.1366187526	 3.9828775606	-0.421525
H	 0.7476323541	 2.0576946473	 0.0026615228	 0.141639
H	-0.6266285019	 1.6330984957	-1.0176218117	 0.129483
H	-0.8678450244	 1.8631443242	 0.7183190624	 0.128182
H	-0.7912948735	-0.6266244658	-0.0758187315	 0.099339
H	 1.4391172054	-1.6463409212	-0.4885089217	 0.116195
H	 4.3577428679	 1.3826444736	-1.0771835057	 0.202749
H	 2.4776102108	-0.0767246592	 2.4686753059	 0.120245
H	 1.5706287518	 1.35968357	 1.9709999874	 0.097796
H	 1.1200436133	 0.7673377463	 4.3614528315	 0.1033
H	-0.3534951491	 0.6579187941	 3.3831454608	 0.079811
H	 0.3558894448	-1.6405415898	 3.1744363808	 0.284619
46.3355	105.3336	133.9024	142.6391	168.4512	221.4664	270.1764	329.9724	356.0014	474.0285	491.998	516.5373	591.0003	605.7061	638.6372	665.5092	715.0925	780.2637	837.5489	897.6312	948.2692	980.7709	1044.2678	1049.2693	1095.5223	1117.2327	1130.7985	1158.433	1178.9262	1231.7897	1271.9097	1331.1179	1363.4054	1370.4817	1382.7114	1408.2715	1419.9766	1445.6454	1480.8012	1494.7431	1498.2786	1509.7395	2230.7289	2952.0847	3021.7216	3041.7885	3066.3087	3083.7416	3101.4847	3105.767	3118.6374	3137.9764	3501.8356	3747.0679
CC1C(C#C)N1CCO	C[C@H]1[C@@H](C#C)N1CCO	
InChI=1S/C7H11NO/c1-3-7-6(2)8(7)4-5-9/h1,6-7,9H,4-5H2,2H3	InChI=1S/C7H11NO/c1-3-7-6(2)8(7)4-5-9/h1,6-7,9H,4-5H2,2H3/t6-,7+,8?/m0/s1
