20
gdb 22483	3.23156	0.73276	0.64044	0.7424	85.4	-0.2441	0.0065	0.2506	1757.0647	0.167736	-403.082515	-403.071844	-403.0709	-403.119002	38.271	
C	 1.1028312336	 0.5264129518	-1.0749523656	-0.376143
C	 0.0493492488	 0.0130450342	-0.074456092	-0.26664
C	 0.6874502675	-0.6025676977	 1.1476213355	 0.350581
C	 0.834037457	-2.1001655663	 1.2400635046	-0.266896
C	-0.5117490288	-2.8066154663	 1.5479438604	-0.352132
C	-0.3879354871	-4.2581308056	 1.5691061434	 0.295669
C	-0.2559824734	-5.4528097247	 1.5789627565	-0.43872
N	 1.1463998415	 0.0615606318	 2.1398757789	-0.172499
O	 0.9692486498	 1.4475053058	 1.9755710209	-0.400288
H	 1.7604381661	-0.2818348205	-1.410799104	 0.117962
H	 0.6172425414	 0.9529282677	-1.9576869338	 0.115856
H	 1.7195847463	 1.2997884165	-0.6119900936	 0.141741
H	-0.5869525277	 0.8461926318	 0.2369390525	 0.129353
H	-0.5895858533	-0.7293941951	-0.5638820472	 0.098027
H	 1.2272398338	-2.490897866	 0.2939097432	 0.116989
H	 1.5527391943	-2.3429164094	 2.0255988678	 0.130018
H	-0.8830274366	-2.4500860951	 2.516255378	 0.142706
H	-1.2651574706	-2.5167788625	 0.8047115221	 0.132977
H	-0.1533154318	-6.5094262053	 1.5924971562	 0.195078
H	 1.3457437294	 1.795093545	 2.7906226761	 0.306361
54.1096	71.6332	84.062	116.6325	187.8137	220.4042	238.143	322.2663	335.7431	352.3546	390.9456	431.5895	473.8678	613.44	618.9336	640.7933	697.8117	767.3754	788.6233	809.9979	961.3383	967.1744	986.7653	1007.7952	1031.2214	1084.1721	1099.5624	1188.0084	1247.8184	1284.5938	1295.4923	1309.392	1353.0892	1363.0093	1404.9439	1410.5629	1469.935	1484.7828	1485.4951	1498.7789	1509.296	1726.3534	2239.3094	3025.1784	3041.0951	3042.3662	3047.4318	3060.9773	3093.2878	3110.073	3115.9521	3134.4531	3507.4519	3823.9986
CCC(CCC#C)=NO	CCC(=NO)CCC#C	
InChI=1S/C7H11NO/c1-3-5-6-7(4-2)8-9/h1,9H,4-6H2,2H3	InChI=1S/C7H11NO/c1-3-5-6-7(4-2)8-9/h1,9H,4-6H2,2H3
