23
gdb 57553	3.77756	0.67391	0.66077	1.2577	88.9	-0.2519	0.056	0.3079	1828.4163	0.200845	-388.263023	-388.251505	-388.250561	-388.300715	41.78	
C	-0.115535979	 1.5651955413	 0.1053736837	-0.414296
C	 0.0198602071	 0.0350069266	 0.057922704	 0.370036
C	 0.6540424223	-0.5009168409	 1.3512454566	-0.414206
C	-1.3525593174	-0.6090077415	-0.1623758181	-0.396025
O	 0.7704000292	-0.3817388238	-1.0963617392	-0.284913
C	 2.1084058074	 0.0435005548	-1.2203088156	-0.065612
C	 2.6350012165	-0.5523768025	-2.5332957126	-0.342615
C	 4.0217880804	-0.1886576253	-2.7891517056	 0.287259
C	 5.1665919199	 0.1270268094	-2.9747722139	-0.452543
H	 0.8398321221	 2.0582712211	 0.3075109697	 0.115851
H	-0.5047195197	 1.9415579498	-0.8454747444	 0.119363
H	-0.8085004213	 1.8589177744	 0.8998065054	 0.115009
H	-0.0020732339	-0.3028761909	 2.2044149563	 0.114984
H	 0.8064411312	-1.5820547508	 1.2796207975	 0.11935
H	 1.6176906135	-0.0292352613	 1.5648317324	 0.115834
H	-1.7918665589	-0.2508240327	-1.0974951752	 0.11803
H	-1.2533511997	-1.6960815193	-0.2268637052	 0.118059
H	-2.033153201	-0.3677177798	 0.6591468674	 0.10881
H	 2.1915575738	 1.1386078068	-1.2591068124	 0.099495
H	 2.731985559	-0.307314137	-0.3861643677	 0.099475
H	 2.5281900647	-1.6426520619	-2.4893704876	 0.137118
H	 1.9931259531	-0.2106994176	-3.3538390829	 0.137113
H	 6.1776889106	 0.3979780711	-3.1517261923	 0.194423
23.0979	55.5597	94.7472	128.5685	200.3032	216.3218	244.5476	258.0681	302.5312	335.9502	336.527	357.3728	434.2304	451.8824	484.5261	550.848	620.7283	646.377	750.7035	799.0951	882.6909	908.1562	920.4862	953.7897	982.6127	1035.815	1038.8974	1068.9133	1092.2972	1120.3057	1224.2622	1225.3441	1252.455	1274.4175	1304.1115	1306.8304	1390.913	1393.2199	1415.6308	1424.2579	1470.9432	1476.5351	1483.1039	1485.7696	1498.3166	1498.8541	1515.9626	1530.2628	2240.823	2997.426	3028.9844	3035.6622	3038.1424	3038.9121	3046.1971	3074.2646	3105.4337	3110.3377	3112.2908	3113.8374	3120.6083	3122.6774	3507.9842
CC(C)(C)OCCC#C	CC(C)(C)OCCC#C	
InChI=1S/C8H14O/c1-5-6-7-9-8(2,3)4/h1H,6-7H2,2-4H3	InChI=1S/C8H14O/c1-5-6-7-9-8(2,3)4/h1H,6-7H2,2-4H3
