20
gdb 59400	2.76511	0.99809	0.95417	4.006	80.58	-0.274	0.036	0.3099	1360.6407	0.168854	-403.157319	-403.147129	-403.146185	-403.192378	37.255	
C	-0.0092837075	 1.530306406	-0.1220272633	-0.403481
C	 0.0167045792	 0.0186108058	 0.1132695557	 0.113308
O	 0.6825035029	-0.3123502358	 1.3287187334	-0.42844
C	-1.3820617544	-0.5695224504	 0.0670079176	-0.047783
C	-1.9606550479	-1.1712625355	-1.1817696114	-0.323309
C	-1.6000668692	-2.0789302683	-0.0117808985	 0.148004
C	-0.4295787627	-3.0463390062	-0.1178477966	-0.453866
C	-2.7066585086	-2.5798637378	 0.7679488258	 0.236337
N	-3.5874295829	-2.9847109248	 1.4001238432	-0.349706
H	 1.0051818866	 1.9345777699	-0.078490323	 0.129261
H	-0.4438759028	 1.7710718268	-1.0973179434	 0.123616
H	-0.6118225505	 2.0315278563	 0.645439131	 0.112266
H	 0.6317662346	-0.4457367607	-0.6649087502	 0.090006
H	 0.1870020388	 0.0804384329	 2.0562708388	 0.280842
H	-2.093608795	-0.0477668856	 0.7038605104	 0.102288
H	-3.0079575198	-1.0078230395	-1.4055783901	 0.137082
H	-1.3186367981	-1.2514839068	-2.0533748755	 0.12465
H	 0.3284339318	-2.6673758629	-0.8059271551	 0.124699
H	 0.0428874064	-3.1920927594	 0.8563450521	 0.150287
H	-0.7701190411	-4.015757394	-0.4923437911	 0.13394
67.6881	100.0296	129.2154	168.066	214.0734	244.6866	265.2246	282.238	328.1623	349.0689	373.1142	489.9515	499.0475	578.1302	592.4057	693.714	794.8705	865.3134	900.0659	931.7557	964.5345	980.4266	1049.5383	1070.7711	1085.1132	1098.9483	1114.5892	1122.5748	1194.4365	1251.7783	1294.8487	1304.7671	1335.4999	1401.0135	1415.6096	1421.1727	1429.5698	1485.0787	1489.3269	1490.7015	1494.6382	1497.6184	2347.3466	3028.4065	3050.4442	3056.4429	3098.9761	3124.1677	3124.5745	3130.4515	3134.3934	3137.4858	3227.5057	3798.5784
CC(O)C1CC1(C)C#N	C[C@@H](O)[C@H]1C[C@]1(C)C#N	
InChI=1S/C7H11NO/c1-5(9)6-3-7(6,2)4-8/h5-6,9H,3H2,1-2H3	InChI=1S/C7H11NO/c1-5(9)6-3-7(6,2)4-8/h5-6,9H,3H2,1-2H3/t5-,6-,7-/m1/s1
