23
gdb 77676	1.73485	1.64071	1.62351	1.3623	85.44	-0.2255	0.0812	0.3067	1125.9155	0.204765	-388.296	-388.286256	-388.285312	-388.329793	37.185	
C	-0.3671113037	 1.4847934731	 0.1067866104	-0.418142
C	-0.108805936	 0.0032849076	-0.0463488735	-0.113129
C	 0.5726266647	-0.631510968	-1.2602924586	 0.256118
C	-0.0102759288	-1.8818613702	-1.8779017411	-0.485551
C	 1.3708780367	 0.3120162557	-2.1694874571	-0.308597
C	 2.661433799	 0.5608534163	-1.3657280246	-0.075488
O	 2.332402438	 0.3408467322	 0.0067307329	-0.300426
C	 1.276794223	-0.5992478869	 0.0772259444	 0.380164
C	 1.5896193139	-1.7809839552	 0.9550611248	-0.464349
H	-1.157171581	 1.8309797068	-0.5693646923	 0.110064
H	-0.6860657824	 1.7112984719	 1.1298355836	 0.115745
H	 0.5347522779	 2.0700122848	-0.0858524739	 0.127929
H	-0.8983296658	-0.6251930384	 0.3638563854	 0.072304
H	-0.7840672918	-1.6324067049	-2.613719928	 0.118097
H	 0.7578780437	-2.4705617103	-2.3936246806	 0.113194
H	-0.4739972354	-2.5261426527	-1.1247031207	 0.115022
H	 1.5835306881	-0.1598454587	-3.1333863141	 0.099403
H	 0.8347120137	 1.2442774399	-2.3742581866	 0.105944
H	 3.4527454988	-0.1382487939	-1.6786496154	 0.090821
H	 3.051582961	 1.5789790386	-1.4574199184	 0.103371
H	 1.7925313701	-1.4523437983	 1.9798900615	 0.126909
H	 0.7499359668	-2.4809214364	 0.9869774435	 0.113733
H	 2.4736907695	-2.3175222229	 0.5936819186	 0.116864
118.4295	153.4101	184.1987	191.8668	197.9208	219.4965	226.7751	262.1267	347.8623	367.0828	508.4358	540.0622	570.0667	628.9807	696.1876	744.8882	785.7915	868.4972	916.7594	931.9736	966.8538	987.5502	1021.1506	1053.1079	1058.8686	1099.8293	1114.3469	1127.5692	1155.0354	1178.4612	1212.6406	1219.8319	1242.9661	1277.3905	1321.2748	1330.031	1386.7695	1408.3291	1409.7544	1420.7403	1458.4065	1476.9626	1488.2823	1492.8318	1493.4578	1499.3254	1506.8596	1510.689	1521.6064	2978.5433	3019.463	3031.0907	3031.9814	3046.8638	3076.1431	3076.3779	3086.1293	3091.531	3093.907	3098.1887	3107.7989	3114.1648	3127.6167
CC1C2(C)CCOC12C	C[C@H]1[C@@]2(C)CCO[C@@]12C	
InChI=1S/C8H14O/c1-6-7(2)4-5-9-8(6,7)3/h6H,4-5H2,1-3H3	InChI=1S/C8H14O/c1-6-7(2)4-5-9-8(6,7)3/h6H,4-5H2,1-3H3/t6-,7+,8-/m0/s1
