25
gdb 121530	4.83802	0.44092	0.43398	0.1998	100.49	-0.2387	0.0607	0.2993	2714.8925	0.226406	-352.351343	-352.339354	-352.33841	-352.391237	42.023	
C	-0.6018181892	 1.450691402	 0.1078036606	-0.385168
C	 0.063677859	 0.0840576331	-0.0748168973	-0.160229
C	 0.6725181946	-0.4624668079	 1.2197760321	-0.147811
C	 1.3411430152	-1.8389930808	 1.0300049914	-0.35656
C	 1.925578481	-2.3708289745	 2.2570184096	-0.02729
C	 2.3969627121	-2.7797791168	 3.2882550654	 0.15736
C	 2.9799300872	-3.3047369931	 4.5242411433	-0.120812
C	 2.3019128821	-4.6246265735	 4.9425972357	-0.372003
C	 4.505862696	-3.4787969844	 4.3898456177	-0.372011
H	 0.1183268845	 2.1973327741	 0.4604093545	 0.115002
H	-1.0277770935	 1.8166171077	-0.8316223998	 0.11162
H	-1.4117506374	 1.4010254551	 0.8439916745	 0.115
H	-0.6722670968	-0.633883007	-0.4610843918	 0.094788
H	 0.8465936233	 0.1565967221	-0.8416591393	 0.094789
H	 1.4159640444	 0.2434054053	 1.6096121352	 0.103695
H	-0.1033196541	-0.547059278	 1.9904055073	 0.103692
H	 0.600266469	-2.5487938501	 0.6369333821	 0.121816
H	 2.1173170038	-1.7595104185	 0.2564119993	 0.121814
H	 2.7979683255	-2.5700918325	 5.321694924	 0.100031
H	 2.46335633	-5.3969762868	 4.1840538027	 0.121614
H	 2.7165056901	-4.982505317	 5.8907550108	 0.108643
H	 1.2237757108	-4.4912302159	 5.0645786044	 0.120879
H	 4.986949141	-2.5347510784	 4.1208054573	 0.12088
H	 4.934373816	-3.8295029399	 5.3344922439	 0.108646
H	 4.7420987852	-4.2122380142	 3.6125171562	 0.121615
8.4741	61.0792	64.2635	112.2423	130.8965	160.9572	229.5235	234.6615	244.8736	265.6655	311.812	347.2941	380.6848	495.4713	521.0004	538.0455	712.2338	734.4241	791.0726	882.0537	907.3814	929.9261	932.5981	962.9187	1001.3607	1060.3253	1068.929	1118.6281	1120.6039	1131.7771	1152.5509	1209.3879	1241.3337	1277.0413	1311.6238	1326.3173	1327.3544	1348.7961	1360.6486	1393.8692	1394.1739	1413.3429	1416.2528	1474.2826	1485.3144	1485.7626	1489.0855	1497.9016	1498.0755	1499.7246	1510.0431	1512.069	2361.5347	2998.7986	3004.7545	3010.8744	3028.0329	3030.083	3032.5345	3033.4255	3037.0977	3037.5375	3074.0253	3096.8224	3101.3529	3103.7586	3108.9913	3116.507	3118.4606
CCCCC#CC(C)C	CCCCC#CC(C)C	
InChI=1S/C9H16/c1-4-5-6-7-8-9(2)3/h9H,4-6H2,1-3H3	InChI=1S/C9H16/c1-4-5-6-7-8-9(2)3/h9H,4-6H2,1-3H3
