21
gdb 52602	2.03664	0.87501	0.71162	0.2717	97.08	-0.2367	0.0458	0.2825	1753.227	0.177805	-349.915986	-349.903901	-349.902957	-349.956113	40.97	
C	-0.1159501156	 1.4925579545	 0.0154630083	-0.497654
C	-0.0573444598	 0.0375104551	 0.0132152781	-0.000197
C	-0.0015444822	-1.1649473802	 0.0235115105	 0.145989
C	 0.0469317179	-2.636658405	 0.0036858654	-0.12682
C	-1.3993604982	-3.2002122044	 0.0307315661	-0.389983
C	 0.7629863766	-3.1112115591	-1.289430862	-0.389984
C	 0.7850026184	-3.1280382189	 1.179471478	 0.145986
C	 1.3836102364	-3.5588453296	 2.1308907876	-0.000193
C	 2.1104511696	-4.0639797526	 3.2872402123	-0.497654
H	 0.3959410125	 1.9085579257	 0.890372696	 0.148424
H	 0.3606259227	 1.9127334687	-0.877228545	 0.146003
H	-1.1513401488	 1.8504331111	 0.036999023	 0.145997
H	-1.9550088791	-2.8425809428	-0.8408217106	 0.117977
H	-1.3736719007	-4.29350782	 0.0135548111	 0.117978
H	-1.9203377372	-2.876889716	 0.9342914648	 0.128877
H	 1.7834655638	-2.7244437569	-1.3269660764	 0.128876
H	 0.8015166254	-4.2039785768	-1.314446298	 0.117978
H	 0.2201804327	-2.7530502843	-2.1688240144	 0.117978
H	 1.4787118118	-4.7133707737	 3.9034933147	 0.145997
H	 2.9874653673	-4.6467437321	 2.984250578	 0.146003
H	 2.4619553794	-3.2441938303	 3.923597857	 0.148423
18.6859	19.0254	60.1748	103.3596	122.9476	153.7654	240.8074	276.7002	278.0922	283.8603	309.9203	314.074	338.5788	450.7851	496.1073	496.1862	570.8249	625.7261	766.7893	906.9955	936.655	1033.6838	1051.9842	1053.2554	1053.5311	1055.2803	1066.3746	1085.1695	1138.3504	1232.2341	1281.949	1388.4826	1411.3493	1413.401	1415.4798	1477.8553	1478.7571	1478.995	1479.1426	1479.4775	1481.8563	1491.9954	1505.7598	2368.1715	2373.3602	3025.1462	3025.5208	3040.4647	3044.2235	3085.3602	3085.4009	3086.0149	3086.0561	3116.6144	3121.7867	3131.6212	3133.1805
CC#CC(C)(C)C#CC	CC#CC(C)(C)C#CC	
InChI=1S/C9H12/c1-5-7-9(3,4)8-6-2/h1-4H3	InChI=1S/C9H12/c1-5-7-9(3,4)8-6-2/h1-4H3
