19
gdb 111603	3.89788	1.1913	1.14407	0.4592	73.57	-0.2433	0.064	0.3073	1121.2194	0.161295	-422.970531	-422.963213	-422.962269	-423.002519	29.35	
O	 0.6510288334	 0.0577717486	 1.4240675779	-0.418574
C	 0.1511824886	 0.1099675155	 0.0929686413	-0.107833
C	-1.2192027039	-0.5443831399	-0.0183094056	 0.009705
C	-2.0181916319	-0.6296728704	-1.3526228181	-0.131564
C	-1.0718139617	-1.4081099072	-2.2893047023	-0.214715
C	-1.1186764163	-2.6852305663	-1.4277083937	 0.067091
O	-2.526622777	-3.0510716148	-1.5679978463	-0.293496
C	-2.7541016647	-1.9186117321	-0.7269819454	 0.113569
C	-1.4093254429	-2.0759824275	 0.0086732946	-0.111078
H	 0.7538826439	-0.8697255375	 1.6603912055	 0.282331
H	 0.0780613299	 1.1757324035	-0.1515560952	 0.111568
H	 0.8707929161	-0.3348595562	-0.6090470592	 0.085332
H	-1.85556643	-0.1141751522	 0.7648493939	 0.083482
H	-2.5622317015	 0.2267151673	-1.7467209991	 0.069163
H	-1.4954016741	-1.6097802887	-3.2750247558	 0.110737
H	-0.0870010086	-0.952615346	-2.4031396407	 0.100219
H	-0.4301157092	-3.5082746653	-1.6119904447	 0.081664
H	-3.745545662	-1.8355907248	-0.2854452821	 0.088085
H	-1.271970228	-2.718753446	 0.8772767752	 0.074314
79.6345	179.7198	186.8591	294.2114	366.5084	487.6448	520.9864	549.4409	667.2183	722.6768	759.3744	828.3536	845.5967	854.3552	898.6212	920.9965	938.3521	966.145	991.5165	1003.5672	1021.5861	1044.3371	1061.8438	1080.3098	1117.0407	1134.3168	1155.9145	1166.0028	1197.709	1215.2648	1221.8186	1248.5838	1263.0354	1307.4918	1316.4793	1334.058	1358.1511	1403.2416	1426.1587	1491.2548	1505.551	2999.766	3038.6879	3066.2886	3081.6164	3122.065	3131.2088	3133.2556	3136.8062	3144.6585	3814.0508
OCC1C2CC3OC2C13	OC[C@H]1[C@H]2C[C@@H]3O[C@H]2[C@H]13	
InChI=1S/C7H10O2/c8-2-4-3-1-5-6(4)7(3)9-5/h3-8H,1-2H2	InChI=1S/C7H10O2/c8-2-4-3-1-5-6(4)7(3)9-5/h3-8H,1-2H2/t3-,4+,5+,6-,7-/m1/s1
