23
gdb 96186	2.16142	1.7226	1.10562	1.4094	84.7	-0.256	0.0755	0.3315	1174.3626	0.208944	-388.298012	-388.289781	-388.288837	-388.330363	33.638	
O	 0.0122573314	 1.4302832151	-0.1369359349	-0.442505
C	 0.0358846918	 0.0119024833	-0.0074869767	 0.100129
C	 0.8615901682	-0.4534245037	 1.1978566167	-0.225908
C	 0.7135611725	-1.9662617134	 1.4119113536	-0.205598
C	-0.7463307191	-2.3081469606	 1.7379717149	-0.196625
C	-1.7208952826	-1.8739876202	 0.6283889815	-0.0196
C	-3.0507661949	-1.2822790914	 1.1821814987	-0.23213
C	-2.4236027525	 0.1358184175	 1.0681874993	-0.223828
C	-1.412597238	-0.4563322939	 0.0485160059	 0.05023
H	 0.9235854707	 1.7398007493	-0.1639213394	 0.27688
H	 0.4930908528	-0.4383674782	-0.9073975956	 0.055995
H	 1.9142208771	-0.1838794433	 1.0393478458	 0.077125
H	 0.5287903642	 0.0851548103	 2.0944491131	 0.100869
H	 1.0349400441	-2.5010575336	 0.5069929217	 0.091991
H	 1.3709887851	-2.3022077438	 2.221244528	 0.091757
H	-0.8625908979	-3.3811971196	 1.9274565872	 0.091058
H	-1.0084376586	-1.8047016163	 2.6778730093	 0.093686
H	-1.8148788223	-2.6708430241	-0.1158348869	 0.057683
H	-3.8795106512	-1.4124102509	 0.4803102914	 0.096041
H	-3.3733963714	-1.6250027533	 2.1694202543	 0.089881
H	-3.059515075	 0.9521243798	 0.7211416277	 0.09889
H	-1.9427547776	 0.4499911818	 1.9982874091	 0.102403
H	-1.8447944566	-0.3698873009	-0.9538397848	 0.071577
121.1086	162.0071	221.5327	282.491	293.612	348.3894	372.2313	413.4418	442.1905	554.5919	594.9716	659.331	750.5066	789.0438	851.3249	882.4183	904.4402	909.7866	934.2608	955.6148	972.2789	1007.0702	1044.4456	1067.5857	1091.2203	1101.406	1128.5413	1137.2801	1168.1364	1200.1105	1217.5845	1246.8598	1254.2179	1259.2854	1267.9677	1281.6654	1303.9161	1341.8361	1344.2465	1365.7421	1370.5801	1386.2798	1408.3634	1437.8227	1483.3488	1488.3962	1490.8482	1498.6107	1509.536	2926.8954	3009.7099	3013.8227	3018.4889	3038.6213	3046.9682	3054.2598	3054.321	3065.1238	3068.5107	3070.7245	3098.5486	3122.0162	3809.1656
OC1CCCC2CCC12	O[C@H]1CCC[C@H]2CC[C@@H]12	
InChI=1S/C8H14O/c9-8-3-1-2-6-4-5-7(6)8/h6-9H,1-5H2	InChI=1S/C8H14O/c9-8-3-1-2-6-4-5-7(6)8/h6-9H,1-5H2/t6-,7+,8-/m0/s1
