18
gdb 37648	3.19549	2.30586	2.05052	1.7923	75.34	-0.2228	0.0728	0.2956	776.4655	0.152382	-364.743589	-364.73832	-364.737376	-364.772787	24.212	
C	-0.0687609864	 1.5669268692	 0.0470045601	-0.241242
C	 1.4895227561	 1.5263663728	-0.0023809072	-0.063002
C	 2.061955099	 1.2768640211	 1.3838894742	-0.033417
C	 1.3505303366	 0.2466506984	 2.1770176729	-0.055964
C	 0.5857770666	-0.683844162	 1.2172861272	-0.061822
C	-0.0405750895	 0.0275170222	-0.0376043383	-0.047096
C	 1.4184696147	 0.0848153562	-0.6161854946	-0.040272
C	 1.9497827152	-0.8489024772	 0.4983749362	-0.004215
N	 2.7016156366	-0.0515425358	 1.5526844778	-0.166657
H	-0.5307806033	 2.0408514587	 0.9189293168	 0.093234
H	-0.4932695557	 1.9972103862	-0.8645822175	 0.098874
H	 2.015530811	 2.3081961493	-0.5515436168	 0.0695
H	 2.5640888821	 2.0812796747	 1.9115581872	 0.090165
H	 1.2203738511	 0.3002922901	 3.2530347208	 0.088352
H	 0.0538540435	-1.5173066277	 1.6724063865	 0.071842
H	-0.859310198	-0.5097754909	-0.5175717388	 0.063295
H	 1.6769781699	-0.0517929812	-1.6655167262	 0.0659
H	 2.4054997207	-1.806681794	 0.2540232896	 0.072524
333.5147	400.1765	552.9356	622.8725	657.9275	679.2136	741.4721	767.8098	782.9779	810.373	830.8187	860.3274	870.5091	916.1926	929.3495	944.8444	951.7089	977.1282	992.4869	1021.0092	1040.8407	1063.6531	1071.2974	1095.7583	1118.0254	1139.9842	1182.5935	1192.0775	1213.439	1227.4661	1233.7849	1251.9503	1265.9551	1285.1421	1289.2998	1323.0195	1340.4441	1390.3147	1486.517	3042.8936	3092.8726	3097.8048	3100.9265	3116.6586	3122.8945	3134.1157	3155.3689	3169.1401
C1C2C3C4C5C1C2C5N34	C1[C@H]2[C@H]3[C@H]4[C@H]5[C@@H]1[C@@H]2[C@H]5N34	
InChI=1S/C8H9N/c1-2-4-3(1)6-8-5(2)7(4)9(6)8/h2-8H,1H2	InChI=1S/C8H9N/c1-2-4-3(1)6-8-5(2)7(4)9(6)8/h2-8H,1H2/t2-,3+,4-,5-,6-,7+,8+,9?/m0/s1
