23
gdb 62916	2.55274	1.6299	1.50766	0.1558	89.3	-0.2286	0.0218	0.2504	1053.9837	0.207502	-351.158664	-351.150424	-351.149479	-351.190459	34.527	
C	-0.0460788922	 1.5017999443	 0.0116353743	-0.446917
C	-0.0415984838	-0.0335180249	 0.0098517282	 0.349272
C	-1.4786378907	-0.5115725364	 0.2113112706	-0.461466
C	 0.8011654438	-0.6227317962	-1.1818672452	-0.045045
C	 2.0648643471	-0.4228350014	-0.2976031823	-0.235489
C	 1.1087903354	-0.6274506833	 0.9194022601	-0.084752
C	 0.9233593296	-2.1222667759	 1.0745518033	-0.06502
C	 0.6777141466	-2.8423859096	-0.0213383958	-0.064168
C	 0.5497449636	-2.1345116453	-1.353435943	-0.270159
H	 0.9435566357	 1.9418222709	-0.1288028215	 0.111716
H	-0.6917250091	 1.8814211005	-0.7890818708	 0.109742
H	-0.4443824596	 1.8812429065	 0.9597748269	 0.109807
H	-2.1150774431	-0.1593804647	-0.6095012559	 0.10586
H	-1.5636135492	-1.5973301356	 0.2667463753	 0.120337
H	-1.8921439548	-0.0990190245	 1.1394944556	 0.105999
H	 0.7483051124	-0.0974579567	-2.1405812919	 0.05073
H	 2.8717751627	-1.1511950175	-0.4044034693	 0.090756
H	 2.4770139108	 0.583930727	-0.3647759953	 0.096461
H	 1.3302351768	-0.1193027841	 1.8607228137	 0.049866
H	 1.0074949233	-2.5774603346	 2.05673781	 0.083024
H	 0.5514327236	-3.9208813065	 0.0115347144	 0.083799
H	-0.4450216705	-2.3156541751	-1.784864958	 0.103579
H	 1.2656623015	-2.550354537	-2.0765792236	 0.102067
174.8906	207.1859	224.6382	251.9227	290.4388	376.2858	393.4898	419.9079	463.5314	500.1718	542.3654	610.4778	703.1057	739.0893	818.7943	849.2109	858.4402	897.4761	934.6068	947.8159	953.5053	971.9912	976.0423	980.675	1025.395	1063.9017	1076.5495	1093.0903	1126.498	1165.9425	1173.5407	1207.4924	1227.7857	1239.9281	1251.6724	1296.0732	1299.286	1330.205	1361.217	1396.0028	1400.4107	1421.3303	1473.6159	1480.7704	1490.1919	1498.8247	1514.4271	1519.6677	1696.2121	3001.6719	3022.7552	3024.2905	3029.2647	3052.9081	3071.9158	3076.0646	3079.8805	3084.1872	3116.0016	3135.252	3136.1041	3156.0152	3180.6186
CC1(C)C2CC1C=CC2	CC1(C)[C@H]2C[C@@H]1C=CC2	
InChI=1S/C9H14/c1-9(2)7-4-3-5-8(9)6-7/h3-4,7-8H,5-6H2,1-2H3	InChI=1S/C9H14/c1-9(2)7-4-3-5-8(9)6-7/h3-4,7-8H,5-6H2,1-2H3/t7-,8+/m0/s1
