17
gdb 30876	2.64332	1.28986	0.91393	0.5938	72.67	-0.1586	0.0676	0.2262	1253.5503	0.135229	-455.150466	-455.140773	-455.139829	-455.184905	35.009	
C	 0.3165755171	 0.991361177	 0.3582890144	-0.248592
O	-0.2543364577	 0.2009970497	-0.689782802	-0.279371
C	-1.320071754	-0.5532858649	-0.3109382592	 0.260436
C	-1.3834945246	-1.8491814274	 0.123290068	 0.186538
N	-0.2882936883	-2.7020113284	 0.3798597135	-0.619115
C	-2.7689827593	-2.150467257	 0.3691219435	-0.379726
C	-3.4776495418	-1.0125533692	 0.0739771716	 0.388651
O	-4.8047639399	-0.7198903932	 0.0844828844	-0.438014
N	-2.6175531123	-0.0240216698	-0.3024625037	-0.362157
H	 1.1731821064	 1.5151111258	-0.0728693155	 0.123881
H	-0.4043482788	 1.7259951685	 0.7382471527	 0.114523
H	 0.6486318531	 0.3589699693	 1.1899111339	 0.127731
H	 0.5396118885	-2.3655336889	-0.0996221817	 0.239683
H	-0.4706809468	-3.6471108081	 0.06102961	 0.236721
H	-3.1692997489	-3.0791186496	 0.746319756	 0.081325
H	-5.283682931	-1.5149316134	 0.3367481571	 0.304785
H	-2.8945456718	 0.8220027095	-0.7700247431	 0.262699
68.1165	131.1731	153.6415	212.4573	220.5729	228.9842	262.584	272.6046	316.1259	387.4029	436.6433	532.8637	599.9512	643.7834	653.1698	679.3299	710.7612	808.4166	846.3327	1007.7617	1035.6268	1073.5028	1169.5554	1172.3073	1190.0544	1204.0373	1237.4972	1252.6772	1358.641	1450.7974	1484.2702	1494.0481	1504.3268	1538.8861	1604.8523	1647.402	1691.0177	3010.514	3077.2861	3122.2752	3241.2894	3506.6701	3592.8438	3678.8437	3846.7919
COC1=C(N)C=C(O)N1	COc1c(N)cc(O)[nH]1	
InChI=1S/C5H8N2O2/c1-9-5-3(6)2-4(8)7-5/h2,7-8H,6H2,1H3	InChI=1S/C5H8N2O2/c1-9-5-3(6)2-4(8)7-5/h2,7-8H,6H2,1H3
