23
gdb 120501	4.45748	0.70634	0.65971	1.7562	88.32	-0.2444	0.0139	0.2583	1790.7636	0.205714	-388.307783	-388.297929	-388.296985	-388.343239	36.805	
C	 0.0343069391	 1.6375600412	 0.0382182225	-0.379815
C	 0.0082028141	 0.1066200914	 0.0122490556	-0.171107
C	 0.6707593305	-0.5233957621	 1.2429010071	-0.173671
C	 0.6874040861	-2.0611631062	 1.2400702731	-0.027073
C	 1.5080251141	-2.683621591	 2.3999939327	-0.2684
C	 0.7523960907	-3.9659801702	 2.8355325301	 0.109793
O	 0.7776032156	-4.2147621827	 4.2357594005	-0.434233
C	-0.6298226046	-3.7468543592	 2.2640848723	-0.13256
C	-0.6654205395	-2.7222047656	 1.4142685158	-0.063346
H	 1.0621334791	 2.0145961884	 0.083242956	 0.114057
H	-0.4372161385	 2.0611618294	-0.8540451132	 0.111412
H	-0.4979019004	 2.0278011638	 0.912911104	 0.114099
H	-1.03113316	-0.2359975674	-0.0673051388	 0.097474
H	 0.5154313434	-0.2533564717	-0.892857569	 0.095197
H	 1.7065707805	-0.1635428281	 1.3115014618	 0.093124
H	 0.1659190156	-0.1731819073	 2.1542453778	 0.088886
H	 1.1146500464	-2.3841542565	 0.2776178071	 0.078634
H	 2.5516423931	-2.8718061652	 2.1362470577	 0.100266
H	 1.5107707083	-1.9936374831	 3.2535509259	 0.0923
H	 1.2121486154	-4.863886413	 2.4024304243	 0.092393
H	 0.3104162611	-3.4872790519	 4.6619868003	 0.271314
H	-1.4603710896	-4.3945615112	 2.5235176329	 0.095947
H	-1.5436875107	-2.4007998318	 0.8640382836	 0.095308
47.1412	78.6983	99.8251	162.4783	227.5021	247.7665	304.7545	308.8676	349.0934	424.1267	446.8471	577.7821	613.1029	732.6525	755.6098	783.758	841.1811	867.8003	885.8329	907.9971	977.0573	982.2254	1012.8207	1022.7895	1051.5899	1076.0301	1090.7513	1131.458	1136.2348	1152.6316	1182.2863	1245.38	1259.3309	1277.3857	1293.7298	1315.3394	1324.1507	1338.8291	1352.1427	1385.2096	1393.4911	1412.5891	1428.7297	1481.0601	1486.0701	1493.603	1499.8784	1510.1203	1680.1094	2975.1955	3003.0379	3018.3224	3022.4178	3029.1509	3032.0406	3033.4523	3057.2204	3096.0464	3099.607	3101.43	3177.0274	3203.4383	3793.8929
CCCC1CC(O)C=C1	CCC[C@H]1C[C@@H](O)C=C1	
InChI=1S/C8H14O/c1-2-3-7-4-5-8(9)6-7/h4-5,7-9H,2-3,6H2,1H3	InChI=1S/C8H14O/c1-2-3-7-4-5-8(9)6-7/h4-5,7-9H,2-3,6H2,1H3/t7-,8+/m1/s1
