20
gdb 99753	1.94565	1.50172	1.07411	3.8026	71.56	-0.2447	0.0104	0.255	1208.3814	0.169613	-477.436319	-477.426273	-477.425329	-477.471344	36.424	
C	 0.3566609749	 1.3541233251	 0.2432701112	-0.341875
N	-0.1862054551	 0.0742927079	 0.6965612158	-0.091046
H	 0.2430732624	-1.6929176978	 0.1287659185	 0.301564
C	-0.1789075509	-0.0219025702	 2.1573345157	-0.331946
C	-1.498811583	-0.3048524682	 0.153793247	-0.112993
C	-1.7629825346	 0.1774974025	-1.288242904	-0.11515
O	-0.760795516	-0.2050650312	-2.2112633615	-0.419116
C	-1.5979826419	-1.8440853052	 0.1203271265	 0.405813
O	-0.3962601688	-2.4363837389	 0.019934953	-0.367732
O	-2.6365667198	-2.446545671	 0.0912080946	-0.341734
H	 1.339226242	 1.4940560654	 0.7027913956	 0.124241
H	 0.4850207698	 1.3417562023	-0.8390888844	 0.15994
H	-0.2712117883	 2.215117788	 0.5288740229	 0.103478
H	-0.8324429888	 0.730038507	 2.6312863683	 0.112782
H	-0.5181527696	-1.0132208651	 2.47128481	 0.141047
H	 0.8389421578	 0.1233890498	 2.5298257648	 0.128364
H	-2.3326851297	 0.0652543462	 0.7702781538	 0.094568
H	-2.7535716223	-0.2000790742	-1.5738869893	 0.129565
H	-1.8014815284	 1.2692443095	-1.317455087	 0.121427
H	-0.7575995096	-1.1658503518	-2.2861401717	 0.298802
54.0209	116.1332	139.2582	174.2819	207.1244	250.7071	266.6712	302.1244	337.0533	347.2338	392.5944	403.823	497.3278	584.6546	647.9326	762.4056	842.5965	874.869	895.5055	955.5016	998.7404	1061.6994	1076.9287	1100.5894	1127.447	1166.0779	1196.75	1225.2696	1248.0853	1297.4192	1320.8833	1333.0008	1394.3	1409.5073	1428.5808	1445.7146	1481.7837	1490.5976	1495.5326	1503.6006	1510.9164	1522.9033	1870.9618	2962.7619	2969.2991	2990.1293	3027.7658	3075.7405	3084.6135	3099.8924	3117.7254	3148.6417	3410.1206	3805.8064
C[NH+](C)C(CO)C([O-])=O	CN(C)[C@@H](CO)C(=O)O	
InChI=1S/C5H11NO3/c1-6(2)4(3-7)5(8)9/h4,7H,3H2,1-2H3,(H,8,9)	InChI=1S/C5H11NO3/c1-6(2)4(3-7)5(8)9/h4,7H,3H2,1-2H3,(H,8,9)/t4-/m0/s1
