17
gdb 84728	2.58778	1.73006	1.15515	1.6513	77.11	-0.2281	-0.0456	0.1825	1046.972	0.137384	-421.806614	-421.799031	-421.798087	-421.838996	29.58	
O	-0.1824178795	 1.4550408178	 0.1975518697	-0.427269
C	 0.0719429713	 0.0598383301	-0.0015193919	 0.027634
C	 0.9072561152	-0.4617967513	 1.1351042244	-0.101102
C	 0.9741377442	-1.6764047214	 1.6979007912	-0.074228
C	 0.2419109182	-2.892793893	 1.3842889052	-0.093773
C	-0.8608969784	-3.0449492474	 0.6357600454	-0.079692
C	-1.6713278012	-1.9913391483	-0.0039257788	 0.007021
O	-2.1177879101	-0.8664487056	 0.79310263	-0.261704
C	-1.2541662608	-0.6075187022	-0.3082075365	 0.017812
H	-0.7424761456	 1.5233865922	 0.9803901182	 0.29025
H	 0.6732508466	 0.0287432731	-0.9223840162	 0.108099
H	 1.5866476255	 0.3032486381	 1.5040199596	 0.10639
H	 1.719065936	-1.7966709826	 2.4816914292	 0.09315
H	 0.6580440961	-3.7947399734	 1.8272417944	 0.097921
H	-1.2470576708	-4.05140258	 0.500035707	 0.096261
H	-2.4665627078	-2.379936904	-0.6405457521	 0.093313
H	-1.750194089	-0.1234661019	-1.1538044587	 0.099917
49.1386	207.2673	224.8911	309.429	356.3996	389.8544	420.5343	472.7591	551.0792	629.8466	699.0949	733.5205	783.4901	825.7475	854.6514	869.3143	919.1485	939.5244	991.4111	999.6609	1019.143	1041.7828	1088.8383	1145.2013	1157.2387	1246.8267	1254.443	1269.1051	1308.1919	1369.3905	1392.0417	1411.4415	1439.1527	1457.4249	1484.2915	1681.0262	1718.4223	3001.4387	3075.6581	3105.1153	3136.2158	3149.753	3163.6951	3173.4918	3788.4708
OC1C=CC=CC2OC12	O[C@H]1C=CC=C[C@H]2O[C@@H]12	
InChI=1S/C7H8O2/c8-5-3-1-2-4-6-7(5)9-6/h1-8H	InChI=1S/C7H8O2/c8-5-3-1-2-4-6-7(5)9-6/h1-8H/t5-,6+,7-/m0/s1
