14
gdb 97500	4.23778	0.69811	0.60162	1.3155	71.34	-0.2476	-0.0842	0.1635	1734.5165	0.098116	-473.823569	-473.81361	-473.812666	-473.860263	33.317	
N	-0.0211544364	 1.2956957466	 0.0078511286	-0.535387
C	 0.087535087	-0.0501922965	 0.0000563201	 0.349467
O	 1.116972624	-0.6932276396	-0.0128724631	-0.350848
C	-1.3023344753	-0.7300700148	 0.0096547563	 0.088427
O	-2.3211443401	-0.0679037302	 0.0227394332	-0.301492
C	-1.2792032139	-2.1647611779	 0.0019901371	 0.057193
C	-1.2912952381	-3.3716424767	-0.004185982	 0.200364
C	-1.2433040517	-4.8242903809	-0.0121567135	-0.227075
O	-2.5562810351	-5.3565363363	-0.0026684171	-0.402793
H	 0.8065100728	 1.86659989	 0.0033475336	 0.270041
H	-0.9392427559	 1.7100986227	 0.0189271938	 0.280729
H	-0.6764214447	-5.1417972202	-0.9030743079	 0.13731
H	-0.6599451864	-5.1509459583	 0.8647120219	 0.13731
H	-2.4799938661	-6.3161980878	-0.0088661209	 0.296754
34.8895	58.9774	64.468	142.4582	170.4276	224.01	297.693	304.3354	377.1519	397.2	435.1941	481.1642	557.6383	636.9951	654.8952	684.0346	839.4512	937.8692	1005.3357	1070.1798	1092.0485	1200.565	1243.2977	1256.9609	1368.5269	1455.5219	1484.5676	1587.2654	1748.6324	1811.9364	2334.2341	2965.9734	2985.7132	3596.7552	3739.225	3822.364
NC(=O)C(=O)C#CCO	NC(=O)C(=O)C#CCO	
InChI=1S/C5H5NO3/c6-5(9)4(8)2-1-3-7/h7H,3H2,(H2,6,9)	InChI=1S/C5H5NO3/c6-5(9)4(8)2-1-3-7/h7H,3H2,(H2,6,9)
