21
gdb 38444	3.76179	1.25331	1.16399	1.8697	81.27	-0.2372	0.0811	0.3183	1139.7304	0.184566	-387.062752	-387.054897	-387.053953	-387.095491	30.899	
C	 0.1412569358	 1.5304082605	 0.1488051245	-0.290882
C	 1.4092082705	 0.7425805199	-0.0088709224	-0.03277
C	 1.7378607648	 0.0053155337	 1.2948355386	-0.2964
C	 0.3543352777	-0.738093338	 1.1986646117	 0.340106
C	 0.4702478566	-2.2614501648	 1.0526512118	-0.30592
C	 0.4587330922	-2.7295692711	 2.5133104475	-0.066809
O	-0.2690642848	-1.742392113	 3.2490667079	-0.266937
C	-0.6004033855	-0.6539012575	 2.3914663565	-0.119944
C	 0.0489918662	 0.0448058282	-0.0817919167	-0.121684
H	-0.1229705006	 1.9669370087	 1.1089509829	 0.106594
H	-0.1366606781	 2.1414299034	-0.7042241938	 0.111213
H	 2.109729432	 0.943153517	-0.8098698673	 0.085299
H	 2.5830142212	-0.6822448579	 1.2083427524	 0.10093
H	 1.8940561275	 0.6388755568	 2.1745894198	 0.096581
H	-0.4082504008	-2.6457183548	 0.5201431516	 0.101463
H	 1.3599376225	-2.5819191626	 0.5047017857	 0.101891
H	-0.0213751971	-3.7070514895	 2.6417126001	 0.098388
H	 1.4776521473	-2.8006761946	 2.920366813	 0.095209
H	-0.5052048204	 0.2735319082	 2.9653754586	 0.099108
H	-1.645441768	-0.7346435541	 2.04842643	 0.084587
H	-0.4648597793	-0.3657702185	-0.9441168726	 0.079977
64.7318	127.3438	140.6802	243.5963	375.9519	395.4042	423.5569	493.592	665.1628	701.3594	765.7453	792.3069	844.013	857.9527	910.5956	917.0732	929.6109	953.7853	968.9472	989.1506	1001.6578	1023.1309	1037.2701	1064.2242	1081.4407	1089.1146	1140.3081	1148.4497	1178.5661	1191.5797	1200.5436	1219.0777	1250.045	1258.4613	1285.048	1303.8128	1318.9451	1364.8286	1368.3551	1403.4673	1478.7457	1491.8957	1498.1528	1519.6935	1534.0912	2962.3896	2997.1186	3030.352	3041.3511	3049.1932	3064.0062	3095.2206	3101.8436	3109.9342	3166.252	3185.3945	3200.677
C1C2CC3(CCOC3)C12	C1[C@H]2C[C@]3(CCOC3)[C@@H]12	
InChI=1S/C8H12O/c1-2-9-5-8(1)4-6-3-7(6)8/h6-7H,1-5H2	InChI=1S/C8H12O/c1-2-9-5-8(1)4-6-3-7(6)8/h6-7H,1-5H2/t6-,7-,8-/m0/s1
