23
gdb 57489	2.886	1.20807	1.0558	1.9003	81.44	-0.2478	0.0753	0.3232	1273.7188	0.205174	-425.447112	-425.437306	-425.436362	-425.481645	37.453	
C	 0.0127993198	 1.530774813	 0.0041973798	-0.421549
C	 0.0039812981	-0.0066457979	 0.0170601651	 0.342982
C	 0.645478773	-0.5404369938	 1.2971773861	-0.412035
O	-1.3404225847	-0.4835599057	 0.002932139	-0.472526
C	 0.7262465388	-0.5454838596	-1.2380456228	 0.135921
C	 0.8374714693	-2.0689959433	-1.3521994443	-0.243362
C	 0.8665440251	-2.277771785	-2.8721410274	-0.240467
C	-0.0836717236	-1.1785298441	-3.365286784	-0.06413
O	-0.0538553465	-0.1414885754	-2.3782741548	-0.29959
H	 1.0317347381	 1.9240592754	 0.0888296813	 0.104917
H	-0.4190642928	 1.9079459669	-0.926695774	 0.125741
H	-0.5767034005	 1.9094802309	 0.8436973928	 0.115315
H	 0.1393314449	-0.1176282536	 2.1696097193	 0.122237
H	 0.5617070652	-1.6284697639	 1.3530543816	 0.122024
H	 1.7037762207	-0.2656383466	 1.3483870139	 0.109537
H	-1.6714484766	-0.2670183691	-0.878796221	 0.279165
H	 1.7236212132	-0.0821543557	-1.305353164	 0.060835
H	 1.7202493962	-2.4672261922	-0.8476929196	 0.102838
H	-0.0543788508	-2.5263578118	-0.912155713	 0.119017
H	 1.8769901131	-2.112543902	-3.2609079951	 0.106816
H	 0.5482148934	-3.2761800187	-3.1816639985	 0.105684
H	 0.2135748478	-0.7586485936	-4.3329090125	 0.103624
H	-1.1129624411	-1.5509241242	-3.460023228	 0.097008
53.9052	105.251	175.9461	196.5044	210.611	249.2227	296.3234	324.699	350.556	383.9198	482.2101	490.4805	571.6132	588.9866	668.4345	805.1649	853.887	879.4464	896.7259	932.0932	936.8456	954.5844	973.5047	979.7388	1011.7289	1049.3493	1090.7348	1120.9111	1160.3014	1192.4216	1196.2548	1222.4133	1252.1343	1258.7445	1309.6828	1331.4146	1345.068	1374.3807	1387.8871	1395.7792	1407.0713	1420.4112	1477.97	1485.8635	1489.5897	1499.4351	1500.4703	1510.4803	1530.4913	2971.0516	3005.4347	3035.7133	3044.4008	3044.7646	3058.9717	3060.3793	3104.8468	3106.3229	3114.6371	3119.563	3123.9649	3125.3003	3763.9491
CC(C)(O)C1CCCO1	CC(C)(O)[C@H]1CCCO1	
InChI=1S/C7H14O2/c1-7(2,8)6-4-3-5-9-6/h6,8H,3-5H2,1-2H3	InChI=1S/C7H14O2/c1-7(2,8)6-4-3-5-9-6/h6,8H,3-5H2,1-2H3/t6-/m1/s1
