19
gdb 39438	2.48253	1.94484	1.33423	1.9026	74.37	-0.2217	0.0726	0.2943	990.416	0.161124	-422.988281	-422.981069	-422.980125	-423.01967	29.302	
C	-0.0270545541	 1.4632624605	-0.0512721332	-0.402138
C	 1.2933065807	 0.712782801	 0.0442860077	 0.012424
O	 1.9779350348	 0.7084709332	 1.2647935818	-0.255456
C	 2.0802424424	-0.6137208479	 1.7920030671	-0.076981
C	 0.7091568168	-1.1257764937	 2.2528602698	-0.236211
C	-0.3505210007	-0.9883371735	 1.1509589138	-0.116621
C	-0.4369611652	-2.0025852213	-0.0181931968	-0.1024
O	-0.3913016859	-0.9334676969	-0.9993543621	-0.312197
C	-0.0073997302	-0.0228341284	 0.025030777	 0.434209
H	-0.3703594716	 2.0210685161	 0.8143050194	 0.122729
H	-0.2495347189	 1.9151549077	-1.0125052489	 0.125985
H	 1.9269907516	 0.6974894609	-0.8421279233	 0.094863
H	 2.523266299	-1.2856363667	 1.0408483691	 0.093965
H	 2.7713825259	-0.5528875933	 2.6370593074	 0.110053
H	 0.7880849768	-2.1661433773	 2.5909074546	 0.100265
H	 0.4028868374	-0.5323465137	 3.121284646	 0.110777
H	-1.3403975265	-0.8060655031	 1.5780504789	 0.087099
H	 0.4338593722	-2.6662944754	-0.1062830664	 0.09988
H	-1.3553146444	-2.5907266782	-0.1019682118	 0.109754
134.6874	182.4784	253.7659	352.2179	363.8649	423.4994	473.6182	476.6767	569.3993	646.8087	751.2004	803.1019	857.1166	863.7767	901.2778	931.5603	976.1079	987.0555	1003.2643	1023.8057	1034.3127	1057.4235	1088.181	1111.2297	1135.2131	1154.6254	1165.771	1206.5783	1231.379	1277.8451	1286.3651	1320.4697	1331.0267	1363.8011	1389.6056	1394.1893	1417.2474	1474.2643	1478.6748	1500.8981	1525.5925	2988.6306	3012.4769	3032.8436	3060.7876	3075.0786	3087.6471	3093.8319	3108.2975	3126.9732	3218.8907
C1C2OCCC3COC123	C1[C@H]2OCC[C@@H]3CO[C@]123	
InChI=1S/C7H10O2/c1-2-8-6-3-7(6)5(1)4-9-7/h5-6H,1-4H2	InChI=1S/C7H10O2/c1-2-8-6-3-7(6)5(1)4-9-7/h5-6H,1-4H2/t5-,6-,7+/m1/s1
