25
gdb 119965	2.79735	0.76739	0.71008	1.3296	89.71	-0.2586	0.0756	0.3342	1760.2045	0.227329	-389.479405	-389.46807	-389.467126	-389.5165	40.841	
C	-0.6726256606	 2.2648932349	 2.2155270321	-0.376703
C	-0.1508680595	 1.3080232482	 1.1359806226	-0.189966
C	 0.6361622272	 0.1498917193	 1.7203048442	-0.031853
C	-0.001257729	-1.1521215235	 2.1692568392	-0.016035
C	-1.4882626991	-1.423147924	 2.0694864115	-0.409632
C	 0.9206955613	-1.1309635979	 0.9613671077	-0.053789
C	 0.4425485888	-1.3733566005	-0.456167155	-0.194083
C	 0.437688725	-2.8552657242	-0.818500357	-0.068957
O	 0.028814292	-2.9720978974	-2.1735000352	-0.423277
H	 0.1510054707	 2.6697868494	 2.8141408339	 0.11231
H	-1.2090473953	 3.11000692	 1.7724263525	 0.108393
H	-1.3564229911	 1.753163836	 2.9007014263	 0.117799
H	-0.9924160727	 0.9477754545	 0.5363160338	 0.095685
H	 0.4934265763	 1.8630086746	 0.4409952005	 0.096195
H	 1.4567634187	 0.4902170119	 2.3499967886	 0.073959
H	 0.4399694009	-1.5854187914	 3.0641363824	 0.076318
H	-1.9417344702	-0.9914911257	 1.1742184251	 0.119673
H	-1.6883903969	-2.5005980444	 2.0481047311	 0.113926
H	-2.0188543107	-1.0096966906	 2.9346556852	 0.115601
H	 1.9098160581	-1.5491590569	 1.1414471854	 0.074301
H	-0.5641689022	-0.9793502638	-0.620778984	 0.10317
H	 1.0955314666	-0.8507346355	-1.16658668	 0.103994
H	 1.4459286977	-3.2761167991	-0.6685753701	 0.081099
H	-0.2439170803	-3.4000621425	-0.145866196	 0.087892
H	 0.0197028445	-3.9050650113	-2.4055487749	 0.283981
63.3155	79.1208	87.9954	93.9779	156.6471	202.2462	232.2579	240.4684	263.806	282.0201	289.1336	391.0077	493.3509	538.3909	552.6192	739.0259	765.7512	800.3211	814.805	848.6122	943.7213	961.0761	999.1428	1018.8359	1052.7789	1055.8433	1069.263	1081.3379	1107.5304	1139.701	1157.894	1180.9115	1194.5034	1234.3167	1243.3141	1271.4874	1291.5495	1312.2184	1323.2798	1339.0511	1393.526	1402.4307	1411.4763	1421.6837	1459.4893	1460.9632	1479.5469	1493.7812	1497.802	1501.7901	1505.5986	1512.7738	1527.4683	2960.2658	2988.7809	3019.8782	3029.6471	3030.9539	3034.7508	3069.2328	3081.3014	3089.1365	3098.1616	3103.9079	3106.7217	3111.0342	3116.8247	3133.5474	3830.9653
CCC1C(C)C1CCO	CC[C@H]1[C@@H](C)[C@H]1CCO	
InChI=1S/C8H16O/c1-3-7-6(2)8(7)4-5-9/h6-9H,3-5H2,1-2H3	InChI=1S/C8H16O/c1-3-7-6(2)8(7)4-5-9/h6-9H,3-5H2,1-2H3/t6-,7+,8-/m1/s1
