18
gdb 57371	2.13926	1.58662	1.23181	2.5916	72.01	-0.2862	-0.0027	0.2835	1089.803	0.144493	-439.080694	-439.071132	-439.070187	-439.114503	35.774	
C	-0.2920346204	 1.4767774194	-0.1164074332	-0.438819
C	 0.0281608477	-0.016522513	 0.0406486039	 0.247911
C	 0.8782672062	-0.2919475373	 1.279927653	-0.411694
O	-1.1674796266	-0.7647663528	 0.1919065886	-0.457791
C	 0.7496095387	-0.5265437365	-1.228789874	 0.257942
C	 0.5506671136	-1.9072676114	-1.707058469	-0.218521
O	-0.1221577933	-0.8058244948	-2.3314624214	-0.283325
C	 1.9847165875	 0.1498432429	-1.5841712267	 0.264596
N	 2.9733421093	 0.6984451651	-1.824598952	-0.337301
H	 0.6171616804	 2.0792072615	-0.1968338808	 0.141629
H	-0.8925500296	 1.6482874322	-1.0161805111	 0.126369
H	-0.8630528	 1.8165979847	 0.7510398995	 0.130696
H	 0.3524225967	 0.0644404365	 2.1693558931	 0.133796
H	 1.0534536567	-1.3652742083	 1.3920695307	 0.126784
H	 1.8423870306	 0.2192366493	 1.2169463384	 0.139506
H	-1.6753341838	-0.6495677445	-0.621830257	 0.290303
H	 1.3215509644	-2.3782767912	-2.3117123734	 0.141647
H	-0.084350158	-2.5583381217	-1.1138948787	 0.146271
77.1697	143.5134	185.6186	213.5909	245.1425	263.7278	289.5734	314.2881	366.733	397.3854	446.7178	484.8272	493.8126	567.9963	614.9322	622.6489	830.0053	883.1032	896.0379	937.9788	951.6897	990.5503	1022.1838	1128.821	1135.9966	1160.2176	1181.0463	1226.5143	1261.1843	1356.4263	1385.6259	1403.8217	1424.1869	1478.6076	1485.4478	1499.0052	1501.6935	1505.6572	2355.6976	3040.0056	3050.8433	3111.9626	3112.8326	3126.1928	3128.4398	3133.6474	3217.5986	3774.3827
CC(C)(O)C1(CO1)C#N	CC(C)(O)[C@]1(CO1)C#N	
InChI=1S/C6H9NO2/c1-5(2,8)6(3-7)4-9-6/h8H,4H2,1-2H3	InChI=1S/C6H9NO2/c1-5(2,8)6(3-7)4-9-6/h8H,4H2,1-2H3/t6-/m1/s1
