25
gdb 115639	2.77114	1.10239	0.93815	0.0921	92.93	-0.264	0.0866	0.3505	1418.7885	0.229376	-352.344293	-352.334737	-352.333793	-352.378762	36.883	
C	 0.0088029828	 1.6806114193	-0.1988701866	-0.381391
C	-0.2822977277	 0.1998508412	-0.4678913641	-0.202291
C	 0.8568679681	-0.5097043469	-1.1879381219	-0.020356
C	 2.1927943205	-0.7685979907	-0.4347149684	-0.231279
C	 2.2857082617	-2.139868955	-1.1530929683	-0.284422
C	 0.769407034	-2.0346787717	-1.4777105483	 0.370209
C	-0.1628888725	-2.9768726822	-0.6597250916	-0.274012
C	-0.3104554811	-3.8624284529	-1.9263002514	-0.209812
C	 0.2022502696	-2.66522648	-2.7713241135	-0.292517
H	 0.9070504254	 1.8020383171	 0.4161377207	 0.118013
H	 0.1735773488	 2.2272442538	-1.1341951208	 0.112338
H	-0.8215886919	 2.1620571368	 0.3271495703	 0.109157
H	-0.4831554802	-0.3103950329	 0.4832538132	 0.09323
H	-1.2022921515	 0.1108861007	-1.0620029534	 0.090637
H	 1.0681987434	 0.010539883	-2.1327389301	 0.061562
H	 3.0125055642	-0.0614290554	-0.5826251687	 0.091842
H	 2.0254595285	-0.883917134	 0.6415361442	 0.096062
H	 2.8959671061	-2.0823430802	-2.0605406994	 0.09452
H	 2.6175830108	-3.0012387982	-0.5660664271	 0.091829
H	 0.2505829714	-3.4371835517	 0.2424973447	 0.090732
H	-1.1088135564	-2.4924721609	-0.3983837426	 0.097527
H	 0.3990740297	-4.6944529602	-1.9279796192	 0.101669
H	-1.3042462561	-4.2556312444	-2.1530747845	 0.093059
H	-0.6245067198	-2.0727692647	-3.1788992612	 0.094594
H	 0.9110320923	-2.8714369598	-3.5791308721	 0.089098
79.8215	96.4111	119.8318	162.4093	203.7346	247.9474	289.6012	346.5074	401.0926	455.3205	523.9154	666.5555	712.827	755.7563	787.3166	813.2349	867.1658	880.5194	900.856	931.9592	936.4162	941.089	960.1326	975.3743	1003.669	1028.0052	1074.8838	1111.3278	1156.823	1171.5976	1184.2958	1185.4486	1206.0958	1236.6957	1248.8682	1255.4717	1256.0102	1268.8951	1281.394	1291.7906	1301.2995	1303.4185	1341.0437	1391.1419	1409.1199	1472.6721	1478.0443	1483.0624	1486.5465	1497.5132	1499.0806	1506.1427	1506.9085	3002.1131	3008.2155	3029.2787	3035.5569	3039.7351	3043.1375	3045.2999	3048.3727	3059.4901	3083.931	3087.0697	3092.8869	3095.9684	3100.6466	3105.0488	3114.6566
CCC1CCC11CCC1	CC[C@H]1CCC21CCC2	
InChI=1S/C9H16/c1-2-8-4-7-9(8)5-3-6-9/h8H,2-7H2,1H3	InChI=1S/C9H16/c1-2-8-4-7-9(8)5-3-6-9/h8H,2-7H2,1H3/t8-/m0/s1
