18
gdb 45787	2.86065	1.41017	1.06308	3.176	79.44	-0.2336	-0.0156	0.2181	1137.8044	0.148781	-401.956414	-401.948627	-401.947683	-401.989033	30.359	
O	-0.0536207988	-0.1081535259	 0.057488526	-0.306047
C	-0.0528137611	 1.0940379778	-0.0535272209	 0.374372
C	-1.3452428013	 1.9059618853	-0.0806903575	-0.361607
C	-1.2567594088	 3.131683965	-0.9519812561	-0.089752
C	-0.1240741947	 3.5605136581	-1.5106058879	-0.109782
C	 1.1902259677	 2.9098326953	-1.2991474475	 0.306751
C	 2.0862610473	 2.7336762153	-2.4827701944	-0.276741
N	 2.4227102504	 3.7123006313	-1.4421805181	-0.360236
C	 1.2239209968	 1.9149893364	-0.1448742549	-0.368223
H	-2.156936957	 1.2429256994	-0.3988182467	 0.135874
H	-1.5828405714	 2.1903817156	 0.9566468544	 0.137138
H	-2.186125285	 3.6598095453	-1.1463162293	 0.100357
H	-0.134698569	 4.4301076323	-2.1651682001	 0.08681
H	 2.7421499753	 1.8682951537	-2.5298150708	 0.127867
H	 1.733741949	 3.0886039753	-3.4480119996	 0.114887
H	 2.1949545733	 4.6540044509	-1.754424269	 0.230935
H	 1.3089988352	 2.4902126738	 0.788165858	 0.129873
H	 2.0836580623	 1.2459881652	-0.2053751256	 0.127523
79.6398	85.618	263.1498	311.1717	349.8571	398.4944	411.3457	488.8424	521.8181	576.0145	642.5454	731.7877	771.166	812.1769	859.8564	922.5107	934.6212	950.197	969.796	976.5828	994.7104	1026.3715	1079.4682	1119.1792	1136.0643	1183.7879	1205.3043	1234.8215	1263.8326	1284.0377	1327.9618	1338.0772	1370.896	1428.448	1444.4722	1462.6218	1508.7352	1716.1299	1825.33	2994.267	3018.7531	3070.7661	3103.8432	3122.961	3140.1562	3171.0609	3190.5835	3487.4439
O=C1CC=CC2(CN2)C1	O=C1CC=C[C@]2(CN2)C1	
InChI=1S/C7H9NO/c9-6-2-1-3-7(4-6)5-8-7/h1,3,8H,2,4-5H2	InChI=1S/C7H9NO/c9-6-2-1-3-7(4-6)5-8-7/h1,3,8H,2,4-5H2/t7-/m1/s1
