19
gdb 91440	2.67485	1.61375	1.21751	3.0251	75.35	-0.2432	-0.0329	0.2104	1054.3156	0.159461	-423.003978	-422.995916	-422.994972	-423.036774	31.089	
O	 0.1865864251	 1.3033899614	-0.3041000472	-0.441184
C	 0.0448119557	-0.0706087972	-0.0452721384	 0.117251
C	 0.2425204806	-0.3705187806	 1.466291892	-0.23676
C	-1.2644438109	-0.6701313616	 1.5942931847	-0.012154
C	-2.1859539135	 0.5898917428	 1.6801748002	-0.270849
C	-2.5856859699	 0.3572206022	 0.1787972103	-0.062826
C	-2.8031335823	 1.5311461375	-0.7267689293	 0.146589
O	-2.1545471734	 1.8117488919	-1.7094807862	-0.271652
C	-1.421544552	-0.6422417293	 0.032447365	-0.09307
H	-0.2983664024	 1.5001957215	-1.1184697931	 0.296698
H	 0.6836478821	-0.6684915833	-0.7103369539	 0.067992
H	 0.8629023691	-1.2541507161	 1.6390121033	 0.099187
H	 0.6383845244	 0.4646515887	 2.0496322895	 0.106843
H	-1.5834288709	-1.5188599534	 2.2001455077	 0.066867
H	-3.0057202041	 0.5461353066	 2.3992704523	 0.105222
H	-1.6219904425	 1.5121719244	 1.8320463356	 0.127021
H	-3.5368007455	-0.1949924447	 0.1702515218	 0.102412
H	-3.672799116	 2.1652631542	-0.4384876459	 0.087135
H	-1.5973335236	-1.533838765	-0.5707852383	 0.065278
89.3485	93.3345	200.7664	214.4431	316.3655	329.7239	416.2848	482.2054	568.6178	600.1623	732.0616	740.3184	746.8372	803.9568	864.2635	876.6071	897.6433	961.3761	982.1183	991.0256	1020.5475	1047.7283	1065.5769	1121.8077	1137.5115	1154.1224	1196.5973	1216.2924	1235.2714	1250.9765	1259.5503	1287.45	1295.2223	1318.5158	1339.7677	1371.6273	1424.8071	1427.851	1469.1699	1481.0381	1801.5963	2872.0006	2990.4366	3006.2088	3057.6815	3072.1636	3092.7709	3103.0623	3114.5109	3133.094	3722.7856
OC1CC2CC(C=O)C12	O[C@H]1C[C@H]2C[C@@H](C=O)[C@@H]12	
InChI=1S/C7H10O2/c8-3-5-1-4-2-6(9)7(4)5/h3-7,9H,1-2H2	InChI=1S/C7H10O2/c8-3-5-1-4-2-6(9)7(4)5/h3-7,9H,1-2H2/t4-,5+,6+,7+/m1/s1
