21
gdb 89547	5.18827	0.84147	0.83449	3.0302	83.61	-0.2383	-0.0175	0.2207	1461.5464	0.180941	-387.09582	-387.08688	-387.085936	-387.130279	34.342	
C	-1.0908723195	 0.9552879589	 0.1207775969	-0.409599
C	 0.0766494431	-0.0176222374	 0.1549073582	 0.064878
C	 1.186793755	 0.0946929993	-0.928903487	-0.306885
C	 2.2412453462	-0.2118954096	 0.1617257366	 0.363012
C	 1.1839847385	 0.169210053	 1.2310654597	-0.298672
C	 2.8429744216	-1.6519519774	 0.2448926923	-0.410278
C	 4.2244892233	-1.009997091	 0.45032964	 0.409146
O	 5.2997536868	-1.4365487396	 0.7559083271	-0.29046
C	 3.6716816573	 0.3969212565	 0.1760182202	-0.432144
H	-0.7366183457	 1.9920433633	 0.0849011564	 0.110923
H	-1.7229523288	 0.7887888217	-0.7587384035	 0.11547
H	-1.7235711447	 0.8502341401	 1.0092851389	 0.115701
H	-0.2976493959	-1.0470039962	 0.1897038428	 0.074109
H	 1.1391089844	-0.5792370115	-1.7895369664	 0.094695
H	 1.2787054851	 1.1233918382	-1.2958278782	 0.097391
H	 1.2760447756	 1.2208738462	 1.5252852464	 0.097049
H	 1.1333628954	-0.4427224855	 2.136489932	 0.097424
H	 2.4991369864	-2.2993337216	 1.0573784523	 0.12678
H	 2.7880820955	-2.2160959337	-0.6933145147	 0.127233
H	 3.9994675157	 0.7875523389	-0.7945159458	 0.12811
H	 3.8894682445	 1.1489761176	 0.9408429257	 0.126119
28.0851	70.1841	219.3447	252.6656	266.3562	296.4967	382.1883	390.6496	417.4843	449.4788	501.2769	656.0432	672.5996	730.6042	831.6339	838.158	857.251	896.8982	908.1067	922.4692	953.9622	997.5895	1060.9235	1074.2009	1091.8029	1109.8178	1140.0366	1164.9999	1182.7282	1208.0483	1234.452	1240.8093	1245.4869	1273.0483	1289.9575	1302.1224	1376.9287	1411.4703	1421.1008	1439.1685	1472.6916	1493.0276	1495.8702	1499.3164	1892.8769	3021.5618	3031.9831	3034.2821	3038.0844	3039.911	3044.4374	3086.294	3088.3167	3090.6524	3094.6603	3095.5178	3097.6947
CC1CC2(C1)CC(=O)C2	CC1CC2(C1)CC(=O)C2	
InChI=1S/C8H12O/c1-6-2-8(3-6)4-7(9)5-8/h6H,2-5H2,1H3	InChI=1S/C8H12O/c1-6-2-8(3-6)4-7(9)5-8/h6H,2-5H2,1H3
