21
gdb 111923	2.1354	1.42204	0.94005	1.6302	80.31	-0.2187	0.0577	0.2763	1314.9054	0.183294	-420.44653	-420.437008	-420.436064	-420.480908	35.863	
C	 0.1387033595	 1.5875823489	 0.0048698769	-0.381099
C	 0.2030213065	 0.0603707076	 0.0910289603	-0.167707
C	 0.6760022603	-0.575278525	-1.225814399	 0.006997
N	 2.0441462521	-0.1438174499	-1.5551755858	-0.354424
C	 2.7761024797	-1.1825819761	-1.4467130781	 0.462713
N	 4.1427259747	-1.23137555	-1.5189946984	-0.579391
O	 2.199096891	-2.3830615811	-1.1767708424	-0.265051
C	 0.7678935584	-2.1369915094	-1.243044004	 0.096912
C	 0.0779951494	-2.9304724314	-0.1481402631	-0.408408
H	 1.1174401544	 1.9963840817	-0.2573668878	 0.139499
H	-0.5738720906	 1.9083449261	-0.763856407	 0.10718
H	-0.1788173589	 2.0243231461	 0.9568193794	 0.103097
H	 0.8856822537	-0.2340953472	 0.8977577319	 0.097046
H	-0.7863194211	-0.3372779234	 0.3501982317	 0.086502
H	-0.0072933757	-0.2470373081	-2.0196464316	 0.069849
H	 4.5569727883	-0.4081395026	-1.9274463881	 0.265691
H	 4.5256224759	-2.1049850591	-1.8461609341	 0.259775
H	 0.4360150054	-2.5058859866	-2.2224078315	 0.083735
H	 0.4114792211	-2.6189819001	 0.8446096411	 0.130521
H	-1.0064113957	-2.7970561286	-0.2090522547	 0.122623
H	 0.2936320615	-3.996515272	-0.2632960256	 0.12394
59.9352	111.6799	160.8729	192.6506	244.195	249.1418	279.1693	338.0598	404.3816	441.1422	483.8141	491.9502	556.7394	676.6369	718.9877	736.672	785.4057	842.4509	886.5214	950.853	966.336	994.1684	1031.4076	1061.8514	1092.1534	1104.9206	1159.8922	1165.7711	1193.7857	1275.552	1302.1681	1331.7223	1345.5625	1370.528	1395.083	1405.7116	1416.0016	1443.7805	1477.6096	1487.8498	1496.1099	1504.055	1510.1023	1617.6309	1750.8278	3002.1938	3019.5065	3023.2915	3033.5244	3047.3493	3060.0041	3096.624	3114.7716	3127.19	3130.2434	3588.1774	3701.914
CCC1N=C(N)OC1C	CC[C@H]1[N][C](N)O[C@H]1C	
InChI=1S/C6H12N2O/c1-3-5-4(2)9-6(7)8-5/h4-5H,3H2,1-2H3,(H2,7,8)	InChI=1S/C6H12N2O/c1-3-5-4(2)9-6(7)8-5/h4-5H,3H2,1-2H3,(H2,7,8)/t4-,5+/m0/s1
