21
gdb 96159	2.5607	1.54933	1.06261	0.4772	78.83	-0.2329	0.0854	0.3183	1177.5464	0.18364	-424.209425	-424.201169	-424.200224	-424.241858	32.835	
C	 0.0177502161	 1.5188113378	 0.0566588081	-0.398372
C	-0.011731506	-0.0044916964	 0.0039906026	 0.109075
C	 0.710627249	-0.5294245101	-1.2448731311	-0.067355
O	 0.6425927219	-1.9269655518	-1.4446044752	-0.248788
C	 1.3643351862	-2.6889881683	-0.4858698752	-0.104622
C	 0.5696581377	-2.9373672204	 0.7814841674	-0.051929
C	 1.2070188277	-2.6847115953	 2.1374970828	-0.332455
C	 0.1791037984	-1.737895638	 1.6044077213	 0.119694
O	 0.6231144797	-0.4791274997	 1.1986003947	-0.267675
H	 1.0508203578	 1.8804606601	 0.0825618433	 0.125641
H	-0.4796427343	 1.9521126442	-0.8160693181	 0.116106
H	-0.4873113876	 1.8736713659	 0.9582033391	 0.125505
H	-1.0524351565	-0.3602345967	-0.0173748106	 0.075625
H	 0.2573285685	-0.0790176643	-2.1351532634	 0.101704
H	 1.7628662541	-0.2013440888	-1.1939884503	 0.088431
H	 1.6019806753	-3.640314626	-0.9729316006	 0.105422
H	 2.313830712	-2.1878928493	-0.2490843227	 0.093899
H	-0.1621616472	-3.7372510604	 0.717771412	 0.089104
H	 0.9429712078	-3.3255536657	 2.9710215498	 0.114309
H	 2.2322860116	-2.3303559759	 2.1427112557	 0.123745
H	-0.810501422	-1.7348700608	 2.0630560305	 0.082936
128.8816	165.4269	207.0305	246.1225	300.5421	337.5103	373.6736	393.219	463.0452	467.9904	559.3582	651.6184	792.9252	819.6357	823.6845	874.5456	916.7079	932.0593	963.4022	976.0991	1029.6314	1047.9101	1076.3734	1096.0717	1127.709	1135.155	1151.9447	1158.8934	1183.5472	1188.6975	1247.9754	1284.2875	1322.3677	1335.6644	1356.956	1385.934	1402.126	1408.7894	1421.9388	1425.9946	1473.7069	1480.9298	1486.6705	1496.6396	1499.7813	2963.0614	2999.9263	3002.3414	3042.9991	3066.2361	3072.9563	3089.3692	3114.2011	3126.2194	3136.1271	3151.3535	3224.7029
CC1COCC2CC2O1	C[C@H]1COC[C@H]2C[C@H]2O1	
InChI=1S/C7H12O2/c1-5-3-8-4-6-2-7(6)9-5/h5-7H,2-4H2,1H3	InChI=1S/C7H12O2/c1-5-3-8-4-6-2-7(6)9-5/h5-7H,2-4H2,1H3/t5-,6+,7+/m0/s1
