16
gdb 29583	2.95997	1.31715	0.96808	2.4876	71.42	-0.2008	0.0207	0.2215	1176.2222	0.125025	-437.875379	-437.867315	-437.866371	-437.908598	29.93	
N	-0.1007860754	 1.4764610761	-0.0411350138	-0.609962
C	-0.0436008026	 0.0733622437	-0.0335589788	 0.085656
C	-1.0716756551	-0.821623872	-0.0439744912	-0.070981
O	-0.5930189567	-2.0987199512	 0.0732551819	-0.149607
C	 0.7525469737	-2.0092580651	 0.1490626748	-0.094129
C	 1.1604016342	-0.711123053	 0.0976694947	 0.209236
C	 2.5509528519	-0.2203114245	 0.1675073482	-0.058291
C	 3.384271196	-0.3716723231	 1.37571568	-0.164315
O	 3.5721642745	-1.2175927447	 0.2408913821	-0.231298
H	 0.6145042649	 1.8947320055	-0.6235942564	 0.244616
H	-1.003902205	 1.8254935854	-0.3362558513	 0.244612
H	-2.1414784141	-0.7189832133	-0.111323663	 0.123921
H	 1.2982771569	-2.9345161477	 0.221141547	 0.148675
H	 2.7978106383	 0.6128989924	-0.4944943155	 0.0873
H	 4.1912397504	 0.3337191707	 1.5708977961	 0.115209
H	 2.9517464281	-0.8529288492	 2.2507440452	 0.119358
55.0306	146.4596	154.9824	204.0918	290.7299	304.6504	444.4109	508.9824	609.2569	609.7681	655.3394	697.6253	736.0959	781.5116	793.0421	862.4579	883.7252	916.0959	1010.2023	1077.1092	1093.0403	1105.4857	1146.3974	1167.5744	1196.6406	1213.9098	1252.5461	1282.0983	1332.9553	1409.5327	1456.7079	1519.132	1588.0412	1647.6325	1677.2341	3074.3365	3084.3829	3178.5053	3279.2024	3289.3413	3527.3391	3615.8383
NC1=COC=C1C1CO1	Nc1cocc1[C@H]1CO1	
InChI=1S/C6H7NO2/c7-5-2-8-1-4(5)6-3-9-6/h1-2,6H,3,7H2	InChI=1S/C6H7NO2/c7-5-2-8-1-4(5)6-3-9-6/h1-2,6H,3,7H2/t6-/m1/s1
