21
gdb 121456	3.93449	0.71884	0.63952	2.3268	83.83	-0.2313	0.0261	0.2575	1809.0252	0.181284	-420.394955	-420.384594	-420.38365	-420.431873	36.575	
C	 0.3051984415	 1.5179130698	 0.1232779609	-0.382693
C	 0.2108124891	-0.0083874038	 0.0818612893	-0.157721
C	-0.2782682484	-0.5385096686	-1.2668168376	-0.139904
N	-0.3802064604	-1.9925957809	-1.245917606	-0.34702
C	-0.4003414806	-2.6156448013	-2.3428504699	 0.378916
N	-0.3534523814	-2.3106055498	-3.6979500834	-0.352793
C	 0.0178368954	-3.6879564134	-4.0882850642	-0.183304
C	-0.3224487715	-4.113967194	-2.6238046083	 0.039821
O	 0.6815092952	-4.7959020837	-1.9215037992	-0.437059
H	 1.0026744996	 1.896658452	-0.6328182161	 0.110144
H	-0.6691521869	 1.9827014205	-0.0663514703	 0.112899
H	 0.6543602394	 1.8680393131	 1.0992768684	 0.113688
H	 1.1888149483	-0.4544103534	 0.299520975	 0.095926
H	-0.4700086138	-0.3701028214	 0.8609438667	 0.105631
H	-1.2643161183	-0.1029388753	-1.4913596195	 0.101883
H	 0.4012019557	-0.186537546	-2.0640961875	 0.07257
H	-0.0073672611	-1.4556682448	-4.1100247398	 0.24577
H	-0.5950450747	-4.1062536261	-4.8908547551	 0.111046
H	 1.0815514246	-3.827417028	-4.3038810394	 0.119963
H	-1.2866178309	-4.6327754709	-2.5485480091	 0.095522
H	 0.8222393993	-4.2974833939	-1.1065808249	 0.296714
23.8459	75.4537	92.0166	120.0538	185.4358	225.6239	235.7327	255.6254	321.7422	377.5122	405.8724	481.242	561.2186	701.6308	751.8021	778.9238	864.4705	883.4656	903.0016	915.7443	987.7232	1034.9169	1059.7066	1073.4132	1129.6006	1145.2802	1150.8468	1169.7633	1195.7792	1210.5678	1263.4229	1293.2	1319.2762	1328.8471	1353.5565	1380.9239	1387.1951	1406.2063	1413.0842	1477.4757	1492.414	1500.0425	1510.6873	1514.9969	1814.9491	2933.8157	2992.7518	3024.5213	3026.8024	3033.7333	3048.574	3065.7653	3093.8118	3102.9535	3107.48	3593.9167	3776.1034
CCCN=C1NCC1O	CCCN=C1NC[C@H]1O	
InChI=1S/C6H12N2O/c1-2-3-7-6-5(9)4-8-6/h5,9H,2-4H2,1H3,(H,7,8)	InChI=1S/C6H12N2O/c1-2-3-7-6-5(9)4-8-6/h5,9H,2-4H2,1H3,(H,7,8)/t5-/m1/s1
