23
gdb 118161	3.51274	0.74368	0.64392	0.1954	82.53	-0.2555	0.0699	0.3254	1774.1665	0.204656	-425.408568	-425.398089	-425.397144	-425.444803	38.04	
O	-0.0774679571	 1.4666095004	-0.0325817886	-0.424604
C	 0.0339815798	 0.0521635845	 0.051084071	-0.078219
C	-1.3696454395	-0.5321375829	-0.0380401054	-0.18956
C	-1.3945828246	-2.059857369	 0.0723990256	 0.09471
O	-0.8120451426	-2.5109656936	 1.2982120305	-0.436066
C	-2.793332019	-2.6337182564	-0.1102588353	 0.042452
C	-3.4617158548	-2.5748517221	-1.5147344169	-0.232649
C	-4.0047767685	-4.0098251593	-1.2747144009	-0.215078
C	-2.9569463547	-4.1786580378	-0.1411772838	-0.229868
H	 0.8017084737	 1.8415089839	 0.0719848601	 0.284311
H	 0.6527190991	-0.3478540382	-0.7695280676	 0.081658
H	 0.501302765	-0.2629752756	 0.9943862055	 0.097549
H	-1.9846069996	-0.0960002696	 0.761614974	 0.092145
H	-1.8258975334	-0.2225346245	-0.9857700479	 0.110509
H	-0.7422422619	-2.4862219677	-0.7027335351	 0.078346
H	-1.3714230117	-2.1950291778	 2.0170837629	 0.275456
H	-3.4624516073	-2.1943125032	 0.6427684752	 0.056676
H	-4.1841605495	-1.7776380063	-1.7045105859	 0.097907
H	-2.7086406703	-2.5552115321	-2.3100344228	 0.099181
H	-5.0269016122	-3.9954896708	-0.8854052397	 0.100918
H	-3.9657076761	-4.7113942904	-2.1112398005	 0.096308
H	-2.0417203154	-4.6626186367	-0.4962216314	 0.10312
H	-3.2728770194	-4.6764250847	 0.7780715967	 0.094799
60.7085	84.0551	104.9751	107.0996	144.7075	218.7064	264.194	287.2313	308.6767	351.9444	381.8952	458.3201	560.4029	658.2262	779.6364	788.6413	803.6089	894.6223	925.0739	933.6038	957.8191	978.1977	1012.4201	1043.74	1069.9788	1073.6772	1101.221	1124.0601	1147.3271	1203.0178	1211.6872	1220.0868	1246.4559	1255.344	1261.2264	1269.5159	1288.7159	1295.0215	1307.0389	1322.2828	1367.097	1399.3899	1418.8824	1459.258	1477.3021	1484.5809	1486.9005	1509.6593	1531.3116	2963.	3002.0591	3010.8097	3019.4219	3024.5891	3045.0762	3055.2684	3058.7662	3071.0884	3096.9805	3105.4407	3118.6136	3792.5252	3830.2282
OCCC(O)C1CCC1	OCC[C@@H](O)C1CCC1	
InChI=1S/C7H14O2/c8-5-4-7(9)6-2-1-3-6/h6-9H,1-5H2	InChI=1S/C7H14O2/c8-5-4-7(9)6-2-1-3-6/h6-9H,1-5H2/t7-/m1/s1
