20
gdb 102516	2.15551	1.23479	0.83943	3.227	75.97	-0.2615	0.0098	0.2713	1390.4967	0.167917	-440.283753	-440.272836	-440.271892	-440.320166	37.977	
C	 0.6256519202	 1.0911368015	-0.4211689845	-0.399449
C	 0.1861373513	-0.3390864594	-0.1029756547	-0.174618
C	-1.3221149619	-0.4594148046	 0.1173774755	 0.087851
O	-2.0008463792	-0.1805152719	-1.093826177	-0.250124
C	-3.0557934891	 0.7638562118	-1.0107405205	-0.25165
C	-1.6987502324	-1.8979683839	 0.5630086836	-0.025683
O	-1.0318430106	-2.3135983056	 1.7398151536	-0.406881
C	-3.1615132207	-2.0334955573	 0.7124669808	 0.268855
N	-4.3002800503	-2.1175569999	 0.8919881272	-0.329293
H	 1.7024643302	 1.1359952226	-0.6074842341	 0.118808
H	 0.1127454306	 1.4647507164	-1.3117373857	 0.132042
H	 0.4042268283	 1.7709997947	 0.4094317985	 0.111602
H	 0.4568764905	-1.0056433034	-0.9315153026	 0.108303
H	 0.6979334284	-0.7150438872	 0.7882711594	 0.113388
H	-1.639149367	 0.2406587399	 0.9070690429	 0.072246
H	-3.4521591468	 0.878253553	-2.0222984122	 0.134001
H	-3.8637800547	 0.4231675897	-0.3521646471	 0.136095
H	-2.6929682156	 1.7405175218	-0.6603033477	 0.109623
H	-1.3739819805	-2.5834700312	-0.2268701256	 0.147997
H	-1.3813941105	-1.807848577	 2.4827801104	 0.296889
56.7874	87.8217	108.4617	126.4052	160.9976	209.9704	220.665	252.0685	270.7733	308.3625	333.1276	398.9669	445.1993	482.2367	581.7957	611.3561	769.6411	896.1273	911.5816	947.1749	1039.7113	1067.7832	1083.6118	1121.2117	1132.3256	1154.0115	1183.4603	1216.2147	1247.6162	1281.8876	1309.6913	1343.2392	1377.9088	1392.0556	1409.1756	1414.5909	1480.9527	1483.2152	1494.5545	1498.6166	1507.3414	1512.9751	2351.923	2977.6661	2999.4722	3034.0986	3037.8923	3066.7858	3071.8821	3086.6796	3104.3691	3120.9537	3122.9337	3800.5898
CCC(OC)C(O)C#N	CC[C@@H](OC)[C@@H](O)C#N	
InChI=1S/C6H11NO2/c1-3-6(9-2)5(8)4-7/h5-6,8H,3H2,1-2H3	InChI=1S/C6H11NO2/c1-3-6(9-2)5(8)4-7/h5-6,8H,3H2,1-2H3/t5-,6+/m0/s1
