19
gdb 18169	3.59413	1.62315	1.40742	1.5947	71.6	-0.2291	0.068	0.2971	973.7368	0.165229	-365.002756	-364.994585	-364.993641	-365.035242	30.351	
C	-0.099949717	 1.3889735867	 0.0525788908	-0.241181
O	 0.3215074296	 0.064267903	-0.1925278583	-0.241914
C	 0.8073519663	-0.5792092597	 0.9597097147	 0.138066
C	-0.172651182	-1.1829195268	 2.0063798221	-0.21113
N	 0.4787561895	-2.5367642173	 1.8945363528	-0.152097
C	 0.2945146404	-2.9980622915	 0.5034151374	 0.030861
C	-0.9643455309	-2.8231187466	-0.3175163449	-0.428144
C	 1.3439755601	-1.9837409837	 0.7504436144	-0.103371
H	 0.7214825253	 2.0074182421	 0.446998663	 0.10729
H	-0.4315165309	 1.8070314567	-0.9005841969	 0.129807
H	-0.935472053	 1.4307549613	 0.7673499544	 0.109486
H	 1.5538413775	 0.0589354723	 1.4547799944	 0.078418
H	-0.0419838344	-0.7933811658	 3.0176394148	 0.108735
H	-1.2352785448	-1.1673956429	 1.7488183559	 0.106822
H	 0.710834101	-4.0016363424	 0.4218318595	 0.095481
H	-1.261871669	-1.7808499891	-0.4228326452	 0.141291
H	-0.791234115	-3.215470298	-1.3249297537	 0.121887
H	-1.7903340751	-3.3937053321	 0.122384477	 0.118614
H	 2.4006446824	-2.2204829061	 0.6721576377	 0.091081
94.8093	133.7099	175.4166	188.9792	250.7652	304.0222	361.1143	440.7945	470.802	595.3323	704.9635	753.4486	773.8222	861.4062	908.7086	965.4184	1002.4659	1012.5695	1042.7745	1070.541	1093.0052	1118.6162	1141.6776	1162.9006	1183.8427	1197.0059	1232.3303	1257.6312	1274.4395	1299.0764	1363.1094	1399.6875	1412.0149	1443.5605	1480.3364	1486.9244	1491.548	1499.1094	1509.3295	1513.2882	2974.8503	2995.1617	3023.7395	3037.8825	3062.0424	3095.0195	3112.0188	3117.9438	3118.5378	3157.0881	3161.7035
COC1CN2C(C)C12	CO[C@H]1CN2[C@@H](C)[C@@H]12	
InChI=1S/C6H11NO/c1-4-6-5(8-2)3-7(4)6/h4-6H,3H2,1-2H3	InChI=1S/C6H11NO/c1-4-6-5(8-2)3-7(4)6/h4-6H,3H2,1-2H3/t4-,5-,6-,7?/m0/s1
