23
gdb 106679	2.59105	1.1984	1.03513	1.0619	86.43	-0.2373	0.0762	0.3135	1319.6426	0.204247	-388.272777	-388.262807	-388.261863	-388.30726	38.081	
C	 0.0764162274	 1.4872358317	-0.3072635346	-0.374917
C	 0.0189244339	 0.0163792285	 0.1276645962	-0.292471
C	-1.3797140089	-0.5341574127	 0.1743750778	 0.332201
C	-2.1147676379	-1.0131226676	-1.0667756451	-0.403968
C	-1.8969065292	-1.9625499688	 0.0789634173	 0.335331
O	-1.1437367368	-3.12019833	-0.0481709884	-0.465819
C	-2.9239374096	-1.7186331663	 1.1978410112	-0.040216
C	-2.6656495699	-2.5172064411	 2.4693442531	-0.395991
C	-2.4255785637	-0.231679414	 1.2606714346	-0.301591
H	 1.106997617	 1.8556709922	-0.3206777642	 0.109162
H	-0.3428467201	 1.6161198863	-1.3105636754	 0.116301
H	-0.4963745567	 2.1246071718	 0.3749823984	 0.116329
H	 0.6202313576	-0.596341301	-0.5550466605	 0.102941
H	 0.4812619474	-0.0888347915	 1.118352412	 0.095106
H	-3.1073268643	-0.6404411158	-1.3153307899	 0.09593
H	-1.4708294355	-1.1960041883	-1.9225076546	 0.106227
H	-1.5887477329	-3.7065127039	-0.6698448407	 0.284191
H	-3.9700181451	-1.8382655243	 0.8869624238	 0.055623
H	-1.624359465	-2.4151685922	 2.7931698625	 0.119111
H	-3.3119482598	-2.1713553813	 3.2831014446	 0.107925
H	-2.8557040956	-3.5839027858	 2.3135129203	 0.112064
H	-1.9777013298	 0.0044506553	 2.2308826619	 0.096815
H	-3.1626602626	 0.5402633188	 1.0157270601	 0.089714
75.7834	106.682	144.8417	215.5997	226.6218	233.5225	257.7545	291.9299	353.4095	392.6488	431.5758	489.0519	533.6326	596.8716	719.4866	740.2662	787.0879	822.5968	855.5934	905.9243	933.3341	965.1295	985.2246	1019.2673	1040.8666	1053.0729	1077.9952	1087.4606	1102.6416	1180.1328	1195.6969	1224.815	1242.2601	1254.3006	1276.4487	1321.8172	1327.693	1362.31	1365.865	1408.8592	1411.8409	1418.0761	1479.2319	1481.8657	1491.5413	1497.8837	1498.4319	1508.0123	1515.1646	3011.2873	3015.3958	3030.3009	3032.0333	3038.0071	3052.6903	3088.2164	3090.5896	3100.0806	3100.6819	3102.4479	3104.2078	3188.1319	3791.8934
CCC12CC1(O)C(C)C2	CC[C@@]12C[C@]1(O)[C@@H](C)C2	
InChI=1S/C8H14O/c1-3-7-4-6(2)8(7,9)5-7/h6,9H,3-5H2,1-2H3	InChI=1S/C8H14O/c1-3-7-4-6(2)8(7,9)5-7/h6,9H,3-5H2,1-2H3/t6-,7+,8-/m0/s1
