20
gdb 78471	2.78456	1.85357	1.63767	0.39	77.59	-0.2176	0.0894	0.307	933.9041	0.174388	-403.106242	-403.09936	-403.098415	-403.136995	29.249	
C	-0.0854568974	 1.5511840944	 0.0774454928	-0.445222
C	-0.006137479	 0.038563141	-0.0404029219	 0.020586
C	 0.3839547297	-0.7819428994	-1.2153523479	-0.052989
C	 1.4699541847	-0.3588093409	-2.2140836545	 0.078861
C	 2.6251874095	-1.246193317	-1.7034902174	-0.221476
C	 2.5421008026	-0.5705852913	-0.3132966611	-0.015306
C	 2.7454478486	 0.8792610485	-0.7493397537	-0.095398
O	 1.954882205	 0.9684683623	-1.9549693316	-0.27757
N	 1.1377642263	-0.9114409993	 0.0764495275	-0.146862
H	 0.4720552648	 2.0826210148	-0.6881990989	 0.159691
H	-1.1404602537	 1.8294739298	-0.0241056138	 0.115969
H	 0.2345412147	 1.8822920049	 1.0715853256	 0.120067
H	-0.8281259951	-0.4130776056	 0.5178783786	 0.096767
H	-0.2349552648	-1.6278942393	-1.5171479901	 0.083547
H	 1.1915755542	-0.4237251575	-3.2658820526	 0.079931
H	 2.3802161513	-2.3087877246	-1.6678175294	 0.112408
H	 3.5694668265	-1.0855205633	-2.2304490378	 0.100996
H	 3.2371763201	-0.9157367883	 0.4525767802	 0.07934
H	 2.4026368529	 1.6154658636	-0.0201554744	 0.108366
H	 3.8000598391	 1.0854387471	-0.9787914395	 0.098294
183.7119	233.6499	300.9735	350.087	359.824	474.2435	509.0067	586.9622	670.1518	679.8738	715.5015	799.7167	810.8627	856.3443	891.8235	912.7687	941.5005	955.2091	960.573	991.15	1002.5106	1041.4055	1062.8195	1091.1639	1115.0632	1139.2202	1146.6717	1164.6172	1193.5388	1215.6608	1267.675	1280.79	1307.3292	1310.8137	1325.5668	1379.9718	1384.368	1410.4072	1440.1282	1485.3795	1494.6237	1518.6663	1541.657	3009.1711	3036.5627	3070.1338	3077.6329	3085.8099	3092.5546	3107.0977	3114.1878	3125.0853	3136.7137	3188.7025
CC1C2C3CC(CO3)N12	C[C@H]1[C@H]2[C@@H]3C[C@@H](CO3)N12	
InChI=1S/C7H11NO/c1-4-7-6-2-5(3-9-6)8(4)7/h4-7H,2-3H2,1H3	InChI=1S/C7H11NO/c1-4-7-6-2-5(3-9-6)8(4)7/h4-7H,2-3H2,1H3/t4-,5-,6-,7-,8?/m0/s1
