15
gdb 28648	5.79628	1.013	0.86289	3.799	90.24	-0.2081	-0.0261	0.182	1271.4994	0.113906	-379.698302	-379.690507	-379.689563	-379.730305	30.405	
N	-0.0157047898	 1.4163305426	 0.1265372914	-0.592752
C	 0.0199616807	 0.0322195467	 0.0423842518	 0.300977
C	-1.1661941088	-0.7247407973	 0.034354734	-0.069424
N	-1.2107987489	-2.0476077221	 0.0110741968	-0.307101
C	-0.0485469639	-2.7267732678	-0.0066452257	 0.145018
C	 1.1877586939	-2.0654961988	-0.003108704	-0.14599
C	 1.2231962773	-0.6818730453	 0.0209240775	-0.158814
C	-0.1066310553	-4.1538724186	-0.0324447965	 0.222016
C	-0.1192641838	-5.3576530772	-0.0542604331	-0.389982
H	 0.7984943621	 1.8995391455	-0.2222646839	 0.252853
H	-0.8755597717	 1.8490029506	-0.1768805954	 0.254745
H	-2.126298318	-0.2090549557	 0.0486078289	 0.094251
H	 2.104580014	-2.6428708531	-0.0216000631	 0.109666
H	 2.1722471935	-0.1538980396	 0.0259094751	 0.095817
H	-0.1484825716	-6.4187296399	-0.0732588138	 0.188722
98.5157	149.4051	256.2134	313.8985	368.075	415.262	440.4864	463.5245	538.8449	541.1174	572.0939	587.3914	651.8045	662.7256	730.401	786.7189	856.8505	862.8249	929.159	973.8239	1028.1528	1086.5605	1159.8728	1249.4336	1285.874	1326.2988	1345.198	1445.2986	1512.4192	1595.394	1633.1949	1659.8854	2227.1687	3124.5165	3170.4823	3204.4981	3504.4789	3570.1383	3670.9186
NC1=CN=C(C=C1)C#C	Nc1cnc(cc1)C#C	
InChI=1S/C7H6N2/c1-2-7-4-3-6(8)5-9-7/h1,3-5H,8H2	InChI=1S/C7H6N2/c1-2-7-4-3-6(8)5-9-7/h1,3-5H,8H2
