22
gdb 89819	2.94221	1.20232	0.94644	1.8386	90.48	-0.2171	0.0262	0.2433	1328.5532	0.194409	-367.212211	-367.20305	-367.202105	-367.245893	35.474	
C	 0.03635474	 1.591884627	-0.0370562977	-0.402178
C	 0.0382243403	 0.060264507	 0.0335244653	-0.07039
C	 0.7099706008	-0.6141310941	-1.192498894	-0.329822
C	 1.4644606922	-1.8186526271	-0.6242919717	 0.339189
C	 1.3315783177	-3.1912512142	-1.1916664087	-0.290604
N	 2.5946282549	-2.4434672557	-1.3353064324	-0.36544
C	 1.5757445711	-1.5483003938	 0.8320334482	-0.236368
C	 0.8046240368	-0.5272933446	 1.2149343838	 0.320616
C	 0.6163800382	-0.0184530837	 2.6099397516	-0.495092
H	 1.0595183772	 1.9823939715	-0.0778338666	 0.116292
H	-0.4912543331	 1.938834574	-0.9318042386	 0.113593
H	-0.4602538297	 2.0360738085	 0.8314206113	 0.114208
H	-1.0097411136	-0.2704418103	 0.1070567384	 0.077526
H	-0.0028454815	-0.8813047941	-1.9779511919	 0.09683
H	 1.4348296753	 0.084937372	-1.6302436313	 0.101858
H	 1.3884854987	-4.0616225785	-0.5425741684	 0.112719
H	 0.6936753934	-3.3198366736	-2.0633807653	 0.105706
H	 2.6591351414	-2.0575795095	-2.275120598	 0.225142
H	 2.1949933957	-2.155702142	 1.4829044019	 0.092403
H	 1.1990407113	-0.6001169058	 3.3291787666	 0.123863
H	 0.9169657725	 1.0323588863	 2.7026370612	 0.127713
H	-0.4390296296	-0.0664451695	 2.9098690161	 0.122235
68.7269	133.1358	182.063	226.1453	250.7366	256.4514	319.3672	329.8896	430.4329	462.5003	478.3441	552.7527	600.3215	752.1948	797.827	845.3464	874.9278	905.1392	914.9793	937.7917	950.2937	982.613	1006.9998	1025.8302	1049.4623	1077.0734	1114.2644	1119.1765	1129.4886	1177.1441	1203.7525	1264.3242	1270.9968	1290.0146	1326.0214	1333.0485	1353.4366	1402.7018	1409.9206	1414.7735	1477.8126	1484.1955	1486.5725	1498.1364	1501.8759	1509.2124	1715.0854	2974.933	3015.0009	3018.5725	3028.299	3061.4656	3082.6153	3095.4431	3096.1835	3101.0141	3110.9573	3180.5429	3194.0342	3483.3743
CC1CC2(CN2)C=C1C	C[C@H]1C[C@]2(CN2)C=C1C	
InChI=1S/C8H13N/c1-6-3-8(5-9-8)4-7(6)2/h3,7,9H,4-5H2,1-2H3	InChI=1S/C8H13N/c1-6-3-8(5-9-8)4-7(6)2/h3,7,9H,4-5H2,1-2H3/t7-,8-/m0/s1
