19
gdb 37831	2.89491	1.89192	1.67216	1.6465	78.3	-0.22	0.0651	0.2851	904.3669	0.162407	-381.948769	-381.942061	-381.941117	-381.979639	28.164	
C	 0.000073135	 1.4919456039	 0.0884696182	-0.208188
C	 1.4647287656	 1.9937593385	-0.1615015951	-0.351786
C	 2.0443966674	 0.8681454358	-0.9766995659	 0.333481
N	 1.802372488	 0.5909353149	-2.4385147208	-0.384543
C	 2.0662864186	-0.7598326317	-1.8379616362	-0.10668
C	 3.1794911157	-0.1909220664	-0.8837554587	-0.084086
N	 2.6116884612	-0.7607447165	 0.3802092876	-0.383717
C	 1.3979852066	-0.4339487444	-0.453347844	 0.281602
C	 0.0315200687	-0.0843425884	 0.1148018419	-0.346255
H	-0.4189427392	 1.9100125603	 1.0077958808	 0.104965
H	-0.6455168179	 1.8303802504	-0.7292320655	 0.104605
H	 1.4962813866	 2.9736911302	-0.6446269966	 0.109304
H	 2.0084543059	 2.0586110617	 0.7862035662	 0.128832
H	 0.8042041022	 0.678506791	-2.6537344857	 0.203397
H	 2.0760429935	-1.6841602656	-2.4219153098	 0.075541
H	 4.2479473633	-0.0893257754	-1.0778493205	 0.086711
H	 2.7639722695	-1.7723700604	 0.4107901593	 0.206118
H	-0.0423846779	-0.4666084325	 1.1363483171	 0.122512
H	-0.8024529627	-0.5089438355	-0.4506617024	 0.108188
106.8918	227.9678	275.8421	422.735	455.7815	509.8323	578.3064	649.5825	705.9273	755.3903	783.0164	809.677	829.8364	858.182	872.5093	906.733	932.4277	948.7579	950.102	962.9129	984.1875	1067.2525	1079.8941	1133.6728	1142.5576	1154.0102	1187.5143	1197.6881	1224.142	1238.6402	1249.0964	1273.6789	1289.9103	1295.9943	1304.0356	1314.4136	1343.7312	1379.6238	1467.3574	1470.4642	1497.9394	3044.9633	3058.5815	3063.0199	3077.5102	3088.9259	3106.9344	3112.8613	3114.163	3384.5041	3398.8948
C1CC23NC4C2NC34C1	C1C[C@@]23N[C@H]4[C@@H]2N[C@@]34C1	
InChI=1S/C7H10N2/c1-2-6-4-5(8-6)7(6,3-1)9-4/h4-5,8-9H,1-3H2	InChI=1S/C7H10N2/c1-2-6-4-5(8-6)7(6,3-1)9-4/h4-5,8-9H,1-3H2/t4-,5-,6+,7+/m0/s1
