17
gdb 19725	3.93841	2.33819	2.16691	1.5099	65.83	-0.2346	0.0793	0.3139	711.0528	0.146649	-363.835483	-363.829957	-363.829013	-363.864719	23.769	
C	-0.0097627407	 1.5378837917	-0.0048456383	-0.067608
O	 1.3758272781	 1.9429249985	 0.0137729529	-0.283626
C	 2.1462000819	 0.7212076427	 0.0271862202	 0.100642
C	 1.3068134308	-0.2163521276	-0.8500641978	-0.23836
C	 0.0434013394	-0.0081902681	 0.014480122	-0.070044
C	 0.5553186498	-0.3432243535	 1.4207709887	-0.022696
N	 1.6755337021	-1.3078952974	 1.4793982154	-0.354451
C	 1.9587674332	 0.1456372748	 1.433920745	-0.039392
H	-0.5273440003	 1.9578550787	 0.8664817572	 0.094368
H	-0.4888441658	 1.9235248124	-0.9138434073	 0.096664
H	 3.1614910164	 0.9558701646	-0.2912886883	 0.073372
H	 1.1977938694	 0.1737321097	-1.8638480715	 0.097358
H	 1.6587108318	-1.2452607549	-0.8654647316	 0.131041
H	-0.8732101651	-0.5019886766	-0.3094578267	 0.06883
H	-0.1016867568	-0.232790983	 2.2771148228	 0.088865
H	 1.7749584321	-1.6229883531	 2.4414550989	 0.232064
H	 2.3966495838	 0.6473106711	 2.2890576484	 0.092973
271.5073	352.8317	384.616	481.8939	544.6318	596.6148	768.0365	791.4	833.1559	863.8141	886.5626	899.5457	901.2458	922.4179	945.2655	950.6526	968.0572	997.4055	1051.5863	1058.8503	1085.442	1099.0092	1148.4746	1156.5032	1191.2753	1229.0716	1236.0392	1284.5787	1290.3862	1296.128	1327.5971	1361.6403	1372.8523	1410.6395	1478.9715	1524.59	3012.2901	3049.8665	3089.4444	3111.6506	3124.8112	3164.7063	3168.147	3184.4185	3502.9555
C1OC2CC1C1NC21	C1O[C@@H]2C[C@H]1[C@H]1N[C@@H]21	
InChI=1S/C6H9NO/c1-3-2-8-4(1)6-5(3)7-6/h3-7H,1-2H2	InChI=1S/C6H9NO/c1-3-2-8-4(1)6-5(3)7-6/h3-7H,1-2H2/t3-,4-,5-,6+/m1/s1
