20
gdb 105114	2.86391	1.16049	1.0183	0.933	74.5	-0.2417	0.0566	0.2983	1251.4047	0.17116	-440.227465	-440.21829	-440.217346	-440.262339	33.527	
O	 0.0984046909	 1.3902649538	 0.0485655504	-0.416699
C	-0.0217458421	-0.0138998037	 0.2363355542	-0.179452
C	-1.458229147	-0.5082776524	 0.0958350392	 0.290735
C	-2.5653991332	 0.361141392	 0.5683286029	-0.284562
N	-2.3373091026	 0.1612853394	-0.8752333036	-0.354101
C	-1.6390335854	-2.0077864241	 0.12701394	 0.114453
C	-0.908967119	-2.8929068529	-0.9124001047	-0.29999
C	-0.3238329695	-3.6061382232	 0.3217292545	-0.062733
O	-0.9139252951	-2.6372766903	 1.2166755221	-0.301036
H	-0.0933659411	 1.8226684557	 0.8854058571	 0.292649
H	 0.5999896688	-0.4690831463	-0.5428983129	 0.112606
H	 0.3819401624	-0.3350765801	 1.203352071	 0.121796
H	-3.4749215719	-0.0849774948	 0.9613657617	 0.118104
H	-2.3191174558	 1.3312206912	 0.9914117254	 0.094097
H	-1.8371867985	 0.9763395135	-1.2284197989	 0.24032
H	-2.7120178279	-2.2317690283	 0.1866212035	 0.076946
H	-1.553681795	-3.4868026349	-1.5605212448	 0.115947
H	-0.1762633208	-2.3676996829	-1.5270932761	 0.113813
H	-0.7175873772	-4.6147107463	 0.501233836	 0.102813
H	 0.7682419002	-3.6318671954	 0.4105123329	 0.104293
44.1754	79.2959	99.3919	197.9217	217.3381	283.5529	311.0326	345.3245	364.1174	494.9707	569.7914	692.1944	773.1305	825.9937	852.0534	884.1635	939.8654	949.0475	976.7108	985.1339	1005.8142	1021.7812	1047.4309	1078.2605	1096.1264	1110.4697	1135.2062	1167.9908	1211.3971	1222.5957	1252.1743	1268.7946	1286.6013	1320.9911	1342.479	1356.7821	1394.6212	1413.8017	1435.0464	1492.2619	1503.0772	1509.9994	1531.0267	3012.2365	3019.3656	3032.709	3058.5953	3074.4475	3088.2712	3107.9127	3141.2619	3190.6273	3476.9251	3838.3372
OCC1(CN1)C1CCO1	OC[C@]1(CN1)[C@H]1CCO1	
InChI=1S/C6H11NO2/c8-4-6(3-7-6)5-1-2-9-5/h5,7-8H,1-4H2	InChI=1S/C6H11NO2/c8-4-6(3-7-6)5-1-2-9-5/h5,7-8H,1-4H2/t5-,6-/m1/s1
