19
gdb 96203	2.71916	1.35816	0.95387	0.8004	86.83	-0.2299	-0.019	0.2108	1233.1801	0.158759	-385.869771	-385.860964	-385.86002	-385.903048	33.669	
C	-0.06393961	 1.5485167759	-0.0207273633	-0.405835
C	 0.0261420709	 0.0174685959	 0.0216280214	-0.105002
C	 0.7301626835	-0.5148204369	-1.2325238609	-0.087802
O	 0.9790914689	-1.905820215	-1.1566228344	-0.246977
C	 1.9042339203	-2.2238095441	-0.1396101291	-0.122975
C	 1.6359680215	-1.5122356564	 1.1531211444	-0.175609
C	 0.758917307	-0.5012274237	 1.2565685998	 0.147026
C	 0.4785508529	 0.1027654566	 2.5149571652	 0.23908
C	 0.2122505699	 0.6260932469	 3.5677076361	-0.420809
H	 0.9335255974	 2.0012390395	-0.0354901511	 0.11908
H	-0.5982220637	 1.8755372422	-0.9188790533	 0.113298
H	-0.5935675949	 1.9357730447	 0.8523667806	 0.134166
H	-0.9952653741	-0.3872032479	 0.0406653607	 0.098419
H	 0.1062722498	-0.3618459295	-2.1179041592	 0.108711
H	 1.6738984497	 0.0371652437	-1.3841772778	 0.087007
H	 1.8399149869	-3.308881007	 0.0085728789	 0.123257
H	 2.9390881509	-2.0132170871	-0.4721041199	 0.101404
H	 2.1793611593	-1.858458524	 2.0272831451	 0.101078
H	-0.011521386	 1.0793252962	 4.5014255169	 0.192483
77.382	150.4886	172.6465	216.7323	284.8302	293.3804	329.6915	399.632	430.3556	487.2868	551.9912	580.695	627.7434	639.0079	698.2294	747.7285	851.2186	911.8497	916.0435	958.2444	1018.8131	1028.9359	1093.19	1111.3455	1128.4195	1173.7091	1199.1729	1247.3746	1301.3714	1317.3275	1327.1361	1364.1873	1379.2596	1407.8186	1424.0972	1481.4847	1492.0556	1499.0617	1501.4958	1687.5661	2215.6746	2920.6301	2959.3322	3011.1119	3035.6663	3045.0262	3084.2559	3100.4826	3126.5067	3176.6931	3502.8612
CC1COCC=C1C#C	C[C@H]1COCC=C1C#C	
InChI=1S/C8H10O/c1-3-8-4-5-9-6-7(8)2/h1,4,7H,5-6H2,2H3	InChI=1S/C8H10O/c1-3-8-4-5-9-6-7(8)2/h1,4,7H,5-6H2,2H3/t7-/m0/s1
