19
gdb 133655	2.40121	1.1276	1.07496	0.8751	64.	-0.2567	0.0707	0.3275	1234.9151	0.154918	-550.72478	-550.714809	-550.713865	-550.759763	36.622	
C	-0.5222128902	 1.2698554835	-0.2506960603	-0.413914
C	-0.0768838177	-0.1886361732	-0.0574088984	 0.04282
C	 0.5941842246	-0.7246447002	-1.3294646645	-0.402323
C	 0.8666971054	-0.3931533799	 1.1529714095	-0.129598
N	 2.0234509587	 0.4939873617	 1.104399646	-0.514005
C	 0.1389272899	-0.3169690365	 2.5009081341	 0.271372
F	-0.9271440269	-1.1301663845	 2.5523824022	-0.077043
F	 0.965709137	-0.6805663211	 3.4999290972	-0.085547
F	-0.2884541314	 0.9274191213	 2.7878296982	-0.084065
H	 0.3333857608	 1.915434934	-0.4768065399	 0.121615
H	-1.2107186094	 1.3386396171	-1.0983752463	 0.116336
H	-1.0321620161	 1.6685958807	 0.628850235	 0.125641
H	-0.9691821687	-0.7935241222	 0.14082877	 0.090189
H	 1.5328698484	-0.1964972322	-1.5197229852	 0.136173
H	 0.8188675422	-1.7931203959	-1.2429877759	 0.108512
H	-0.059626824	-0.5895750649	-2.1965487538	 0.110395
H	 1.2389678531	-1.4238006758	 1.1077622108	 0.105275
H	 1.7371176948	 1.4470972685	 1.3065566226	 0.238589
H	 2.6895202495	 0.2336860998	 1.8246503587	 0.239579
51.0152	97.8101	179.1589	221.6929	230.8672	249.7484	285.3641	302.0331	317.4684	320.8335	404.993	428.6101	521.3577	573.7545	611.1108	697.4986	792.6863	837.4972	906.3781	934.1817	956.7054	972.6731	1068.9284	1082.2568	1139.3929	1171.7179	1200.2994	1212.6339	1239.0669	1278.2268	1337.3912	1373.2174	1382.5396	1398.1919	1411.9063	1425.2795	1488.5223	1498.5658	1508.4577	1518.9106	1667.3089	3034.1623	3039.4482	3043.5865	3047.0316	3100.4451	3102.497	3119.1919	3130.6137	3505.3967	3582.7099
CC(C)C(N)C(F)(F)F	CC(C)[C@@H](N)C(F)(F)F	
InChI=1S/C5H10F3N/c1-3(2)4(9)5(6,7)8/h3-4H,9H2,1-2H3	InChI=1S/C5H10F3N/c1-3(2)4(9)5(6,7)8/h3-4H,9H2,1-2H3/t4-/m1/s1
