16
gdb 36497	4.22831	1.07782	0.94068	5.2483	68.9	-0.2746	0.0364	0.311	1205.9962	0.124751	-437.879497	-437.871747	-437.870803	-437.912495	28.401	
N	-0.1187749541	-1.1110508986	-0.1567787164	-0.305475
C	-0.0624933334	 0.0421087874	-0.1190171248	 0.26956
C	 0.0002958373	 1.4993256737	-0.0458614777	-0.351263
C	 1.4380259047	 2.0289612171	 0.066391365	 0.10799
O	 2.1382057187	 1.6550903134	-1.114520931	-0.264831
C	 3.0442753269	 2.6828387618	-1.5062531235	-0.107135
C	 2.5162272757	 3.9491911152	-0.8716669004	 0.028433
O	 1.1178484883	 4.1538697484	-1.1090399303	-0.246759
C	 1.5214784471	 3.5432835202	 0.121018324	-0.011638
H	-0.4528797696	 1.9330491394	-0.942233548	 0.173352
H	-0.5828558745	 1.8299461581	 0.8211976542	 0.14925
H	 1.9220155894	 1.6089261396	 0.9625312314	 0.095492
H	 4.0641073399	 2.484478934	-1.1414714029	 0.106835
H	 3.0621222504	 2.713595153	-2.6000665391	 0.130169
H	 3.1295665318	 4.8412375581	-0.7855744786	 0.113785
H	 1.3051023515	 4.0884380791	 1.035429308	 0.112235
66.6531	102.8243	152.5805	237.379	335.3832	390.8627	398.5221	468.8955	557.1517	698.1583	780.7213	835.1207	843.2916	883.2697	922.4886	947.9792	972.7218	994.6679	1030.9931	1069.9906	1090.7002	1114.7724	1123.6931	1224.2994	1237.4177	1257.885	1289.6364	1312.2086	1340.8273	1375.1548	1389.4617	1444.2924	1455.2756	1506.1967	2367.3214	2982.1112	2992.4368	3051.3837	3082.1907	3105.0954	3157.0387	3170.4932
N#CCC1OCC2OC12	N#CC[C@H]1OC[C@H]2O[C@@H]12	
InChI=1S/C6H7NO2/c7-2-1-4-6-5(9-6)3-8-4/h4-6H,1,3H2	InChI=1S/C6H7NO2/c7-2-1-4-6-5(9-6)3-8-4/h4-6H,1,3H2/t4-,5-,6+/m1/s1
