17
gdb 71207	2.38576	2.03457	1.6384	3.2689	70.93	-0.2267	-0.0183	0.2084	903.1291	0.136442	-421.796731	-421.789559	-421.788615	-421.828086	28.475	
C	-0.0222191858	 1.5318240576	 0.092288028	-0.509147
C	 0.058781101	 0.0300544016	 0.0535746317	 0.142231
C	 0.8746226141	-0.7859259588	-1.0129541443	-0.296211
C	 0.8151957454	-1.9296962752	 0.0202819244	-0.088474
C	-0.6760572029	-2.1041996536	 0.5025387321	-0.052047
O	-0.3332877369	-1.628029746	 1.8458503438	-0.302705
C	 0.715303298	-0.9032176457	 1.1669727066	 0.081601
C	-1.240071571	-0.7838141018	-0.0484865128	 0.460883
O	-2.329404032	-0.475089368	-0.4373636837	-0.34069
H	 0.9706412981	 1.9912506842	 0.0573150687	 0.11558
H	-0.6027749002	 1.9047330664	-0.7578080549	 0.138772
H	-0.5233536486	 1.8706852591	 1.0049593149	 0.134112
H	 0.4253599442	-0.9210724922	-2.000957079	 0.116403
H	 1.8950779461	-0.4079040629	-1.1207470277	 0.112884
H	 1.4667401671	-2.8008607232	 0.0217770506	 0.091669
H	-1.2568731418	-3.0227814686	 0.4742911365	 0.10007
H	 1.5164175052	-0.526014193	 1.8011905251	 0.095069
145.1767	169.8147	224.4301	255.3502	367.3985	445.4959	494.7199	605.9192	644.8862	718.719	769.2585	782.6002	814.1368	841.9128	856.733	885.3516	934.6524	959.2238	982.9475	1009.493	1028.8016	1086.934	1117.0157	1137.2347	1171.2867	1198.2865	1212.1163	1213.3057	1250.8626	1276.4874	1307.1101	1360.2981	1413.6531	1487.5124	1490.1856	1501.9829	1892.2232	3033.8926	3053.1729	3103.1544	3104.3354	3109.2866	3128.7922	3142.8523	3162.0539
CC12CC3C(OC13)C2=O	C[C@@]12C[C@@H]3[C@@H](O[C@H]13)C2=O	
InChI=1S/C7H8O2/c1-7-2-3-4(5(7)8)9-6(3)7/h3-4,6H,2H2,1H3	InChI=1S/C7H8O2/c1-7-2-3-4(5(7)8)9-6(3)7/h3-4,6H,2H2,1H3/t3-,4-,6+,7+/m1/s1
