17
gdb 6668	4.51959	0.9566	0.86379	3.361	65.94	-0.2448	-0.013	0.2318	1325.0541	0.139817	-401.049424	-401.039918	-401.038974	-401.085334	31.757	
C	-0.168914217	 1.3675954421	 0.4180897846	-0.472869
C	 0.016823628	-0.002931789	-0.2057661857	 0.385435
O	 1.0402386345	-0.3184244658	-0.7710795121	-0.296832
C	-1.1561254049	-0.9644018243	-0.0827965065	-0.297442
C	-0.811257493	-2.3765977332	-0.564985935	-0.161233
N	-1.9604684871	-3.2734890178	-0.5528022309	-0.271866
C	-2.4987249463	-3.7452029122	 0.5990825698	 0.149244
O	-2.1176877809	-3.443905955	 1.7124679941	-0.327021
H	 0.6787413472	 2.0076294014	 0.1705805222	 0.143074
H	-1.1012749331	 1.8299458633	 0.0763423155	 0.134944
H	-0.2450963168	 1.2693869624	 1.507262253	 0.148075
H	-1.4980259273	-1.0020020256	 0.9571940591	 0.153352
H	-1.9960288425	-0.5530826206	-0.6603407152	 0.118045
H	-0.4120309293	-2.3409290294	-1.5798123629	 0.125323
H	-0.029540312	-2.7936474376	 0.0763344307	 0.143364
H	-2.343354704	-3.5938245545	-1.426892292	 0.250951
H	-3.3378026255	-4.4454958643	 0.4137648813	 0.075458
36.2543	62.1892	84.4752	114.9895	147.0922	214.9188	257.6691	354.8055	411.3105	481.6075	507.4054	588.0901	716.831	799.1779	843.751	922.489	946.7785	990.3621	1032.8277	1073.3041	1114.8602	1177.3341	1208.1656	1242.7859	1317.0033	1339.9921	1383.814	1407.0078	1427.9213	1453.8133	1464.5987	1474.6546	1476.3431	1523.332	1798.6686	1806.0742	2933.4106	3022.0726	3037.0378	3071.3017	3080.2186	3097.9923	3129.3266	3151.7838	3646.6985
CC(=O)CCNC=O	CC(=O)CCNC=O	
InChI=1S/C5H9NO2/c1-5(8)2-3-6-4-7/h4H,2-3H2,1H3,(H,6,7)	InChI=1S/C5H9NO2/c1-5(8)2-3-6-4-7/h4H,2-3H2,1H3,(H,6,7)
