18
gdb 45137	2.7162	1.59134	1.15494	4.0792	78.76	-0.2281	-0.0312	0.1969	1074.1382	0.150471	-401.970347	-401.962692	-401.961748	-402.002758	29.948	
O	-0.0593924339	-0.0176921913	 0.0968496586	-0.379475
C	-0.0631615849	 1.2056812036	 0.1035675939	 0.362064
N	-1.2136681456	 1.8875307185	-0.2082546557	-0.340072
C	-1.6000632083	 3.2586657005	-0.0167103294	 0.040994
C	-1.2205312491	 4.0861305007	 1.1910717865	-0.317483
C	-0.6762496169	 4.4280187195	-0.1832346267	-0.029339
C	 0.7935627351	 4.2795625976	-0.5403787393	-0.279754
C	 1.5672383352	 3.1852420506	 0.1443854101	-0.08516
C	 1.1947799944	 1.9327992425	 0.4202570185	-0.121018
H	-1.9783596955	 1.2428682822	-0.3483917131	 0.245752
H	-2.6048137492	 3.4027956722	-0.3984906138	 0.103462
H	-1.9680906288	 4.7322325688	 1.6382327195	 0.114245
H	-0.5323010098	 3.6345452854	 1.8960357109	 0.128817
H	-1.1275244014	 5.2921192737	-0.6646783102	 0.092228
H	 0.8754860161	 4.1379553691	-1.62865461	 0.129907
H	 1.2947643501	 5.2325502361	-0.3342591931	 0.113841
H	 2.5840189087	 3.4570176052	 0.4207982942	 0.105515
H	 1.9144017537	 1.2603789551	 0.8764849491	 0.115477
68.5641	111.7221	273.4675	290.7393	344.0967	411.1182	447.5385	503.7232	578.7834	638.5422	685.2094	701.2636	756.2541	817.273	835.0166	853.9686	870.6398	935.3875	979.5044	1022.5972	1034.2224	1060.1698	1066.1487	1130.5477	1137.97	1163.9272	1233.6985	1252.1086	1274.8744	1357.2901	1372.082	1414.1634	1418.0376	1440.4561	1473.4898	1479.3462	1509.4891	1703.4786	1752.6591	2998.7445	3048.1662	3131.6751	3138.2522	3144.1789	3166.3127	3188.1212	3228.8514	3605.4566
O=C1NC2CC2CC=C1	O=C1N[C@H]2C[C@H]2CC=C1	
InChI=1S/C7H9NO/c9-7-3-1-2-5-4-6(5)8-7/h1,3,5-6H,2,4H2,(H,8,9)	InChI=1S/C7H9NO/c9-7-3-1-2-5-4-6(5)8-7/h1,3,5-6H,2,4H2,(H,8,9)/t5-,6+/m1/s1
