16
gdb 127417	2.9698	1.32015	0.92454	0.8066	82.68	-0.233	-0.0174	0.2156	1235.3927	0.123446	-396.916742	-396.907574	-396.90663	-396.951891	31.856	
C	-0.0210916261	 1.4270367874	 0.0047436379	-0.312098
N	-0.039056567	-0.0213778844	 0.0050910535	 0.128376
N	-0.0280250485	-0.7257995012	-1.1259821188	-0.276489
C	 0.0179967052	-1.994246282	-0.7199404373	 0.209462
C	 0.0335077224	-3.1452802833	-1.6678821504	-0.511937
C	 0.0369916505	-1.9964321648	 0.6964152974	 0.13056
N	 0.0031101252	-0.7222003501	 1.1243264403	-0.302816
C	 0.0764774812	-3.1071159303	 1.5693555401	 0.287021
C	 0.1116644803	-4.083150672	 2.2728518278	-0.450517
H	 0.9952350669	 1.7999850582	-0.1551730202	 0.151897
H	-0.6667969548	 1.7861532591	-0.7972074205	 0.159136
H	-0.3872171871	 1.7675081646	 0.9724113974	 0.164494
H	 0.9257620746	-3.7630549209	-1.5231253182	 0.142095
H	-0.8351344802	-3.7942889152	-1.5153949703	 0.142169
H	 0.0220251027	-2.7827828022	-2.6973117146	 0.144157
H	 0.1415751446	-4.936295933	 2.9041441362	 0.194489
45.9251	48.8241	128.9388	137.8818	198.3527	266.827	298.4971	386.0256	486.3569	560.6321	576.8889	586.362	643.4849	670.7937	672.616	760.051	815.3807	1013.0771	1031.9547	1069.6101	1082.3594	1147.2238	1222.6863	1333.3896	1349.4708	1411.4106	1414.0504	1446.999	1471.9572	1480.512	1482.3797	1502.7873	1512.9297	1540.6688	2239.3927	3042.5201	3055.2372	3095.8754	3134.382	3139.7079	3177.8237	3504.1042
CN1N=C(C)C(=N1)C#C	Cn1nc(C)c(n1)C#C	
InChI=1S/C6H7N3/c1-4-6-5(2)7-9(3)8-6/h1H,2-3H3	InChI=1S/C6H7N3/c1-4-6-5(2)7-9(3)8-6/h1H,2-3H3
