17
gdb 45603	2.91234	1.5347	1.20797	3.2598	67.19	-0.2662	0.0064	0.2726	1028.9472	0.138377	-458.992446	-458.985158	-458.984214	-459.024875	27.615	
O	-0.2145332387	 0.1995127181	 0.4512084055	-0.326202
C	-0.0552316366	 1.3084867329	 0.0527445697	 0.451015
O	-0.9927270974	 2.15222696	-0.4828364667	-0.259971
C	 0.0038763452	 3.2211801599	-0.6809432709	 0.12772
C	-0.3619904923	 4.4998792527	 0.0520611394	-0.223442
C	 0.0316413138	 4.42699211	 1.5277573281	-0.096778
O	 1.4111349803	 4.1144519924	 1.6340034076	-0.238889
C	 1.6841761413	 2.7648417537	 1.3198097243	-0.102431
C	 1.0913939871	 2.3161399829	-0.0436002706	-0.253617
H	 0.1271859825	 3.3857457389	-1.7535393609	 0.101363
H	 0.1817031707	 5.3318927001	-0.4088838392	 0.117361
H	-1.4333009688	 4.6930925623	-0.0692505052	 0.121701
H	-0.1085694559	 5.3947265709	 2.0158304226	 0.117283
H	-0.5780096897	 3.6839269705	 2.0666839506	 0.107705
H	 2.7723361199	 2.6749350149	 1.3083288629	 0.122167
H	 1.3024032672	 2.1027731106	 2.1130247826	 0.116743
H	 1.8737718315	 1.9980050992	-0.7339624998	 0.118273
52.7216	140.1411	207.8883	306.2299	368.1787	438.876	470.1825	542.4781	637.3949	696.5394	791.9496	812.1442	847.5706	877.6431	883.6163	960.8814	981.827	1053.9615	1065.3758	1095.3036	1104.5827	1130.6191	1150.7485	1202.8022	1234.905	1255.3802	1307.0115	1324.929	1331.6432	1361.0724	1382.1751	1406.1957	1421.5078	1459.528	1501.2394	1509.8747	1933.1422	2980.2229	2983.9759	3043.9906	3084.1497	3091.7397	3096.57	3098.5484	3113.1825
O=C1OC2CCOCC12	O=C1O[C@H]2CCOC[C@@H]12	
InChI=1S/C6H8O3/c7-6-4-3-8-2-1-5(4)9-6/h4-5H,1-3H2	InChI=1S/C6H8O3/c7-6-4-3-8-2-1-5(4)9-6/h4-5H,1-3H2/t4-,5+/m1/s1
