23
gdb 108502	2.55502	1.41783	1.16284	1.5435	84.31	-0.2467	0.0798	0.3265	1193.2018	0.207349	-388.293812	-388.285062	-388.284118	-388.327373	34.013	
C	 0.0232752806	 1.5694662716	 0.2357566166	-0.387608
C	-0.0168167387	 0.0399035584	 0.1260590799	-0.276535
C	-1.4187749076	-0.5242703225	-0.0789143665	 0.366845
C	-2.3742226131	-0.4682328001	 1.156086487	-0.270913
C	-2.5021798804	-2.0155561639	 1.1435545975	-0.216684
C	-1.5856518111	-2.0917089955	-0.107552888	-0.089615
C	-2.3003965615	-2.3555881555	-1.4329827557	-0.096428
O	-2.9812343125	-1.1442427634	-1.7465615565	-0.254992
C	-2.0876449822	-0.0951452286	-1.3947870788	-0.14179
H	 1.0413050808	 1.9238550177	 0.4239277028	 0.113712
H	-0.3282084144	 2.0477065048	-0.6846010455	 0.120186
H	-0.6092807235	 1.925140064	 1.0561565136	 0.119835
H	 0.6247605318	-0.284736986	-0.7046007237	 0.092412
H	 0.4153994514	-0.3993029802	 1.034274155	 0.093176
H	-1.9112790947	-0.0577085306	 2.0577846279	 0.093857
H	-3.3105200291	 0.0667842486	 0.9770847279	 0.100861
H	-2.0909871916	-2.5085076067	 2.0275654458	 0.096706
H	-3.5159582729	-2.3918459385	 0.9818744075	 0.101418
H	-0.6754714123	-2.684899849	 0.0060641317	 0.063241
H	-1.5716498589	-2.602965927	-2.2235170394	 0.082944
H	-3.0463870251	-3.1547680815	-1.3872406128	 0.104892
H	-2.6725350688	 0.8258178321	-1.318389453	 0.105868
H	-1.3242959863	 0.0400404217	-2.1816705433	 0.078615
58.9559	117.2347	172.1491	217.5254	234.1344	307.0343	348.2372	391.2748	424.5951	587.144	608.3115	703.7805	756.7236	789.0882	820.2405	859.209	898.9227	924.3278	947.7347	967.2738	975.2014	1013.3242	1028.0806	1040.9892	1056.4376	1094.1	1132.2468	1145.5082	1180.251	1200.6726	1229.3394	1231.7985	1260.5879	1272.2146	1287.6063	1290.3504	1322.5457	1336.8197	1363.4117	1364.4774	1401.5148	1414.3558	1470.3047	1483.28	1493.5332	1499.6698	1502.192	1506.9714	1514.5434	2944.4901	2961.7382	3010.7072	3034.3329	3043.547	3051.1797	3058.718	3080.2456	3080.641	3085.0982	3096.3399	3101.653	3104.643	3116.1253
CCC12CCC1COC2	CC[C@]12CC[C@H]1COC2	
InChI=1S/C8H14O/c1-2-8-4-3-7(8)5-9-6-8/h7H,2-6H2,1H3	InChI=1S/C8H14O/c1-2-8-4-3-7(8)5-9-6-8/h7H,2-6H2,1H3/t7-,8+/m0/s1
