21
gdb 59805	3.06458	1.00955	0.93384	2.8734	82.23	-0.2417	0.0203	0.262	1395.6184	0.181851	-420.396	-420.385983	-420.385039	-420.431224	36.649	
C	 1.210525712	 0.4320267058	-0.3115018062	-0.39001
C	-0.1886752758	 0.4931172582	 0.3188829939	 0.056773
C	-1.2560052155	-0.1513351921	-0.5778120153	-0.389078
N	-0.20201466	-0.0657199139	 1.6776174775	-0.327742
C	 0.0553094576	-1.2630534685	 1.9094313782	 0.453759
O	 0.3964118233	-2.3157100689	 1.0591865428	-0.270478
C	 0.6443875305	-3.2112060106	 2.1800229051	-0.10434
C	 0.1504068534	-2.1129100908	 3.1732698687	-0.112483
N	 0.96039986	-1.5936449835	 4.2443693257	-0.505086
H	 1.513470931	-0.6030037161	-0.491461837	 0.129952
H	 1.2195331774	 0.9671942579	-1.2667414238	 0.107758
H	 1.9487328287	 0.8997294849	 0.3470232254	 0.11326
H	-0.4516953339	 1.5508859215	 0.4385917612	 0.079659
H	-1.0227473566	-1.2019698685	-0.7712531187	 0.131253
H	-2.2400506471	-0.0979363925	-0.102592095	 0.115562
H	-1.3117532476	 0.3739256801	-1.5371070976	 0.106998
H	 0.0484678667	-4.12415438	 2.0976344049	 0.11404
H	 1.7088090133	-3.4548668531	 2.2614762112	 0.107254
H	-0.8426417143	-2.3502710733	 3.5684182991	 0.116002
H	 1.0496002098	-2.2668085612	 4.99765224	 0.233738
H	 1.8931563872	-1.3570807553	 3.9224442599	 0.233209
49.9561	99.5069	135.9469	146.7494	205.1724	243.4404	265.4855	274.0303	346.1508	369.6934	429.9116	489.4204	575.2576	670.6802	725.0999	785.0687	809.5245	853.8698	906.6813	931.4994	954.1589	957.6125	980.2237	1040.4825	1097.3853	1133.9455	1142.979	1155.2742	1185.5489	1191.4253	1227.2267	1267.2176	1322.7261	1370.9338	1381.7914	1390.9616	1411.2823	1425.7337	1484.9496	1495.1511	1497.1923	1512.494	1515.2803	1658.6657	1844.7685	3024.3134	3035.3897	3039.3293	3043.0123	3063.3223	3104.1026	3107.1259	3107.3554	3120.5315	3125.6008	3503.9014	3590.9884
CC(C)N=C1OCC1N	CC(C)N=C1OC[C@H]1N	
InChI=1S/C6H12N2O/c1-4(2)8-6-5(7)3-9-6/h4-5H,3,7H2,1-2H3	InChI=1S/C6H12N2O/c1-4(2)8-6-5(7)3-9-6/h4-5H,3,7H2,1-2H3/t5-/m1/s1
