20
gdb 83763	2.39797	1.85702	1.44021	2.2642	77.37	-0.2111	0.0727	0.2838	998.5295	0.172358	-403.105547	-403.097706	-403.096762	-403.137195	31.999	
C	-0.3031494312	 1.5762520603	-0.0105331482	-0.439331
C	 0.0269314315	 0.0922214851	 0.0381476111	 0.004065
N	 1.0187920328	-0.5125454405	-0.9512740128	-0.138976
C	 2.1108715893	 0.4285374834	-1.2760926728	-0.160756
C	 2.8747441303	 0.7299310681	 0.0509592087	-0.259349
C	 2.3361961505	-0.3618294089	 0.9670428721	-0.116178
C	 1.5620052901	-1.364064265	 0.1482480831	-0.095389
C	 0.8269886019	-0.5434079719	 1.1695546118	 0.339913
O	 0.2993412526	-0.9928191808	 2.3673932679	-0.464574
H	 0.5605512766	 2.2201619656	 0.168263877	 0.119366
H	-0.7383738654	 1.8447108148	-0.9793346604	 0.127339
H	-1.0520264523	 1.8015992411	 0.7566790776	 0.119378
H	-0.9052994237	-0.4733965975	-0.0803627648	 0.089059
H	 2.774566461	-0.0672212576	-1.991906519	 0.104756
H	 1.7112053987	 1.32143689	-1.7628341705	 0.103522
H	 3.9592153524	 0.6333141779	-0.0706157627	 0.098012
H	 2.6843322263	 1.7403984824	 0.4256899596	 0.098865
H	 2.930064282	-0.7323676741	 1.796093617	 0.087905
H	 1.7398823788	-2.4258747437	 0.0400409729	 0.095945
H	 0.4017414979	-0.2966135689	 3.0250688426	 0.286429
193.5839	208.6632	228.5126	249.0402	300.0668	306.4138	354.6247	477.4609	553.4594	587.4144	653.125	716.7647	756.0109	773.8857	851.1613	859.2761	899.6885	910.0392	923.8723	950.9103	994.0515	1025.5998	1030.074	1095.463	1101.5215	1140.4573	1148.5129	1183.8857	1213.2117	1218.6156	1245.4862	1259.7616	1284.6717	1298.5963	1325.0155	1343.4587	1391.4475	1406.0427	1454.712	1486.4635	1496.7125	1504.6078	1515.6687	3026.3658	3037.7614	3039.6401	3052.3604	3075.731	3095.4639	3107.4836	3129.5333	3173.7179	3199.9269	3800.5187
CC1N2CCC3C2C13O	C[C@H]1N2CC[C@@H]3[C@H]2[C@]13O	
InChI=1S/C7H11NO/c1-4-7(9)5-2-3-8(4)6(5)7/h4-6,9H,2-3H2,1H3	InChI=1S/C7H11NO/c1-4-7(9)5-2-3-8(4)6(5)7/h4-6,9H,2-3H2,1H3/t4-,5-,6+,7+/m1/s1
