15
gdb 5765	6.14185	1.54463	1.35986	2.0897	67.95	-0.2103	0.037	0.2473	899.6275	0.121667	-358.850198	-358.843533	-358.842589	-358.882384	24.888	
C	 0.2940538138	 1.6246463572	 0.1018785285	-0.214874
C	 1.1384213199	 0.4887476519	-0.3328811017	-0.221742
N	-0.252624547	 0.2600295976	 0.1241719731	-0.206934
C	-0.3946919946	-0.319952332	 1.3947798787	 0.416927
N	 0.1429032727	 0.0438448829	 2.5376807504	-0.308885
C	-0.3262990942	-0.8621188828	 3.4644103084	-0.090703
C	-1.1517827629	-1.7783748222	 2.8717411879	-0.113174
N	-1.1876011148	-1.4168309752	 1.5400847376	-0.290027
H	 0.5193742161	 2.0694256257	 1.0655765201	 0.153188
H	-0.1626719488	 2.2783730754	-0.6350831078	 0.118285
H	 1.3068471761	 0.2961780096	-1.3880654954	 0.119835
H	 1.9278772316	 0.1723441449	 0.3420627252	 0.138654
H	-0.0431935476	-0.7985436676	 4.5040708799	 0.10562
H	-1.7032119593	-2.6216136655	 3.2519247819	 0.126408
H	-1.7092355511	-1.8498709399	 0.7967924032	 0.267421
18.3124	176.4032	217.1104	410.5674	453.8742	557.135	629.6203	648.244	711.7239	760.9584	822.1308	843.0547	849.1582	900.2149	942.5362	1007.3393	1043.7578	1090.39	1112.9993	1136.3167	1139.5168	1168.3364	1188.2698	1206.2439	1239.5334	1314.35	1396.1004	1476.22	1477.6785	1502.3718	1513.9655	1580.5664	3116.6135	3121.1641	3208.3846	3223.8854	3247.1464	3282.4017	3670.8521
C1CN1C1=NC=CN1	C1CN1c1ncc[nH]1	
InChI=1S/C5H7N3/c1-2-7-5(6-1)8-3-4-8/h1-2H,3-4H2,(H,6,7)	InChI=1S/C5H7N3/c1-2-7-5(6-1)8-3-4-8/h1-2H,3-4H2,(H,6,7)
