18
gdb 18453	3.27784	1.62393	1.34973	3.244	72.23	-0.2378	-0.0085	0.2293	986.187	0.153528	-347.799981	-347.792205	-347.791261	-347.832434	29.298	
C	 0.0112965411	 1.3810122902	 0.331117551	-0.374141
C	-0.0006500744	-0.0420982012	-0.238624371	-0.213827
C	-1.3684505657	-0.6915883437	-0.1283385894	 0.011313
C	-1.6642464151	-2.150208517	-0.1172051037	-0.089573
C	-0.5731659183	-2.9476568925	 0.6139111439	-0.362922
C	-0.900177178	-2.0997340712	 1.873462054	 0.413168
O	-0.5758681091	-2.1946464346	 3.0237303787	-0.317293
C	-1.9417879146	-1.2933919606	 1.1570176856	-0.193798
H	 0.9974880535	 1.8414827717	 0.2210983218	 0.115755
H	-0.7146803768	 2.0198823728	-0.1839548486	 0.113412
H	-0.2436202314	 1.3781803796	 1.3956337756	 0.130249
H	 0.2906259297	-0.0189656783	-1.2968856078	 0.101075
H	 0.7558211787	-0.6441451024	 0.2740860261	 0.110763
H	-2.1416319785	-0.1186468762	-0.6401199727	 0.096216
H	-2.4158972234	-2.5948582492	-0.7566192235	 0.101907
H	-0.8520840154	-3.9890755911	 0.800631082	 0.131233
H	 0.442665253	-2.9198555785	 0.2117137304	 0.12059
H	-2.8712759552	-0.9337066178	 1.5814486077	 0.105874
61.8982	117.0296	196.7585	218.3352	288.6998	418.87	449.0359	498.646	595.0009	635.5121	731.3472	793.3783	801.5489	854.9654	888.7529	915.9401	953.6723	995.245	1016.7942	1024.1526	1058.2473	1072.8039	1116.9904	1121.1952	1147.8181	1213.3752	1215.9178	1291.6488	1300.3389	1324.8343	1350.6875	1411.2594	1444.9351	1464.5424	1487.033	1498.5426	1507.6075	1877.6778	3025.8711	3034.0246	3060.7002	3077.459	3102.4519	3111.26	3111.8921	3115.4611	3189.8156	3200.8784
CCC1C2CC(=O)C12	CC[C@H]1[C@H]2CC(=O)[C@@H]12	
InChI=1S/C7H10O/c1-2-4-5-3-6(8)7(4)5/h4-5,7H,2-3H2,1H3	InChI=1S/C7H10O/c1-2-4-5-3-6(8)7(4)5/h4-5,7H,2-3H2,1H3/t4-,5+,7-/m0/s1
