15
gdb 29987	3.51703	1.67378	1.14225	4.4309	73.56	-0.1999	0.0052	0.2051	1006.2415	0.115723	-416.842838	-416.835843	-416.834899	-416.87442	26.457	
C	-0.0099013362	 1.4786657446	-0.0300954698	-0.34811
N	-0.0114534487	 0.0332460554	 0.0294974965	-0.146189
C	-0.0585029805	-0.8342602085	-1.0441868923	-0.0228
N	-0.0487765241	-2.1155931069	-0.7092581055	-0.369127
C	 0.0080225771	-2.0512025481	 0.6396041415	 0.361235
C	 0.0330466882	-0.774128313	 1.1464988266	 0.254641
C	 0.0876940972	-0.8900472452	 2.5688044201	-0.346639
C	 0.0915995067	-2.2405021318	 2.7885496454	-0.005278
O	 0.0435591433	-2.9767249321	 1.6267786678	-0.19727
H	 0.9006455424	 1.8879744272	 0.419129264	 0.145564
H	-0.0529174629	 1.7899842366	-1.0756266058	 0.14661
H	-0.8773417607	 1.8928379524	 0.4937774128	 0.145567
H	-0.098400281	-0.4578193813	-2.0557545812	 0.13046
H	 0.1209734057	-0.1279473917	 3.3306349511	 0.114579
H	 0.1259903335	-2.8223508277	 3.6943906288	 0.136758
104.1864	158.0579	225.1046	257.3867	367.2449	541.4825	584.9456	618.6965	626.1192	707.2519	711.3665	759.2886	784.5495	799.173	811.7764	919.6533	1035.9091	1061.6306	1108.4345	1153.4165	1173.0631	1229.6802	1256.3858	1327.5926	1363.004	1435.9232	1465.2338	1480.4865	1481.0288	1511.41	1519.5213	1570.1165	1582.5793	3036.6471	3095.9455	3135.9396	3249.8002	3258.5091	3287.8805
CN1C=NC2=C1C=CO2	Cn1cnc2c1cco2	
InChI=1S/C6H6N2O/c1-8-4-7-6-5(8)2-3-9-6/h2-4H,1H3	InChI=1S/C6H6N2O/c1-8-4-7-6-5(8)2-3-9-6/h2-4H,1H3
