15
gdb 24302	4.16552	1.60128	1.25626	3.8278	70.48	-0.2238	0.0105	0.2344	941.8805	0.116638	-416.823374	-416.817254	-416.81631	-416.853893	24.395	
C	-0.0410425779	 1.4786754382	-0.0070542263	-0.219046
C	 1.4359008453	 1.8822519601	-0.0278960113	 0.052543
O	 2.1643165411	 1.4819603143	 1.1261996114	-0.24685
C	 2.2680033205	 0.6616521804	-0.0690232595	-0.169831
C	 1.3321972913	-0.4754715316	-0.0600936864	 0.359997
C	 1.202138475	-1.8398366933	-0.0528362716	-0.218695
N	-0.1289952478	-2.1831391903	 0.0287771218	-0.273574
C	-0.7950266724	-1.0449438269	 0.0769775607	-0.003238
N	 0.0449915666	 0.0202221008	 0.0164915302	-0.032702
H	-0.5553417493	 1.8651066134	 0.8780575385	 0.144581
H	-0.5609573169	 1.8330664416	-0.9036866729	 0.13142
H	 1.7217424921	 2.8302217382	-0.4752222249	 0.111977
H	 3.2519736077	 0.6142910735	-0.5202119026	 0.116566
H	 1.974263669	-2.592115326	-0.0981374343	 0.114935
H	-1.8676825444	-0.9448472825	 0.1479533273	 0.131917
145.5453	203.7997	352.682	429.3231	446.6289	621.87	669.0563	701.3476	750.9135	775.4352	811.309	841.5226	855.1129	868.5811	906.6605	952.8545	1002.213	1052.4758	1102.5376	1131.4458	1176.3886	1218.1601	1243.2032	1246.1487	1262.5797	1303.5368	1329.7608	1381.7756	1396.0723	1411.3877	1487.3503	1518.2801	1605.8639	3046.4548	3093.8544	3155.6877	3194.2484	3251.2149	3255.0475
C1C2OC2C2=CN=CN12	C1[C@H]2O[C@H]2c2cncn12	
InChI=1S/C6H6N2O/c1-4-6-5(9-6)2-8(4)3-7-1/h1,3,5-6H,2H2	InChI=1S/C6H6N2O/c1-4-6-5(9-6)2-8(4)3-7-1/h1,3,5-6H,2H2/t5-,6+/m1/s1
