22
gdb 62950	2.04312	1.8137	1.40966	1.5754	86.07	-0.2232	0.0861	0.3093	1080.3159	0.193474	-367.156999	-367.148134	-367.14719	-367.18962	35.701	
C	-0.0466304297	 1.5517280398	-0.0465897359	-0.444822
C	-0.0079893401	 0.0280543565	-0.0001684775	 0.232082
C	-1.3867503599	-0.5896661106	-0.2298906563	-0.442027
C	 1.0589877898	-0.6502457842	-0.896068287	-0.070724
N	 2.3928126109	-0.1685493137	-0.4663584342	-0.350927
C	 1.7253006899	-1.2726483787	 0.2777673986	-0.164762
C	 0.7430307939	-0.6137490438	 1.219452717	 0.391026
C	 1.0356170156	-0.0303391792	 2.5663831526	-0.318623
C	 0.1327672	-1.2382741153	 2.4384262718	-0.347454
H	 0.9604397064	 1.9615983302	 0.0552026362	 0.138757
H	-0.4712879757	 1.9031158956	-0.9943234233	 0.103616
H	-0.6697668991	 1.9542367863	 0.7607007202	 0.103739
H	-1.7910671021	-0.2818784276	-1.2013863212	 0.108294
H	-1.3428261826	-1.6833683029	-0.211274463	 0.113067
H	-2.0974510189	-0.2685655404	 0.5392258675	 0.112066
H	 0.9016723267	-1.0424886602	-1.8945925717	 0.083524
H	 3.075558926	-0.600262147	-1.0898121423	 0.224416
H	 2.1988295269	-2.2422014095	 0.3810469336	 0.08831
H	 2.0305135594	-0.1643667539	 2.9782947755	 0.111481
H	 0.5739228093	 0.9187734165	 2.8197269842	 0.110984
H	-0.9299004407	-1.1038819307	 2.6134215564	 0.110073
H	 0.5133651841	-2.2020982472	 2.7632233587	 0.107907
124.4946	206.2149	216.723	232.8939	258.5597	267.3155	289.7182	333.2399	393.3604	524.1785	524.914	589.5204	642.9494	772.2143	812.3562	833.4777	845.2568	864.0298	914.1088	940.892	951.9896	956.804	963.2432	987.5442	1023.6112	1035.5198	1053.515	1076.2167	1087.0258	1117.5548	1179.0076	1186.1177	1196.3243	1232.9902	1247.687	1288.0728	1317.2205	1355.6531	1394.5747	1403.0165	1420.359	1464.2691	1483.3907	1486.1245	1498.7805	1503.4301	1512.1935	3022.0392	3026.7375	3080.5274	3088.8644	3099.9084	3119.9643	3126.7663	3128.303	3168.4409	3182.2347	3196.8787	3213.3104	3462.6186
CC1(C)C2NC2C11CC1	CC1(C)[C@H]2N[C@H]2C21CC2	
InChI=1S/C8H13N/c1-7(2)5-6(9-5)8(7)3-4-8/h5-6,9H,3-4H2,1-2H3	InChI=1S/C8H13N/c1-7(2)5-6(9-5)8(7)3-4-8/h5-6,9H,3-4H2,1-2H3/t5-,6+/m0/s1
