19
gdb 74913	3.03235	1.54	1.26911	1.5622	81.09	-0.2168	0.0097	0.2265	1070.1259	0.158778	-385.861818	-385.853877	-385.852933	-385.893803	31.667	
C	 0.0824463427	 1.4683618812	 0.0192578678	-0.499472
C	-0.0701326944	-0.0182902133	-0.0240237039	 0.357308
C	-0.1392728431	-0.8141771189	-1.1060357115	-0.212216
C	-0.027104182	-2.2389256885	-0.6428297927	 0.044926
O	 1.3730869151	-2.3879055782	-0.1290661786	-0.33446
C	 0.897644472	-2.1332361081	 1.1741254607	 0.475997
C	 1.7561404449	-2.5449633535	 2.3230284811	-0.496059
C	-0.5425265281	-2.2555104805	 0.8239605781	-0.21311
C	-0.0601293064	-0.86986464	 1.1959622203	-0.23954
H	 1.0487058233	 1.7514236161	 0.4554470981	 0.132598
H	 0.0223720673	 1.905890862	-0.9806724318	 0.125591
H	-0.6911332628	 1.9325979091	 0.6435731368	 0.123837
H	-0.0599745347	-0.5016872527	-2.1394568634	 0.093575
H	-0.2647249046	-3.0489605978	-1.3300017397	 0.078927
H	 2.7157815452	-2.0179452954	 2.2883057213	 0.135129
H	 1.2697598592	-2.3071675916	 3.2733195188	 0.123258
H	 1.9586791916	-3.6205465542	 2.2936300871	 0.130582
H	-1.3796817314	-2.7917662923	 1.253840875	 0.094919
H	-0.2830420935	-0.4664000335	 2.1776005165	 0.078209
151.3973	166.074	195.0224	223.8776	281.8044	336.782	445.0429	472.4314	590.4749	594.8324	659.237	694.3986	730.8258	787.0845	823.1355	865.0065	877.3568	913.0983	946.2616	950.3445	970.3128	1020.4819	1025.2883	1052.9751	1067.9317	1094.8977	1165.4704	1175.9568	1214.2005	1262.5133	1269.7929	1304.1379	1349.3849	1399.0863	1413.2731	1445.227	1474.5082	1479.0873	1488.0256	1497.8388	1667.4914	3019.5483	3034.2035	3066.3421	3098.7689	3113.4668	3114.8868	3133.8543	3174.5928	3184.2415	3213.1734
CC1=CC2OC3(C)C2C13	CC1=C[C@H]2O[C@]3(C)[C@H]2[C@H]13	
InChI=1S/C8H10O/c1-4-3-5-7-6(4)8(7,2)9-5/h3,5-7H,1-2H3	InChI=1S/C8H10O/c1-4-3-5-7-6(4)8(7,2)9-5/h3,5-7H,1-2H3/t5-,6+,7-,8+/m1/s1
