17
gdb 46739	2.78214	1.76766	1.41058	3.4834	70.37	-0.2321	-0.0187	0.2134	945.9101	0.137	-421.812183	-421.805201	-421.804257	-421.843729	27.688	
O	 0.0104301504	 0.019362985	 0.181309865	-0.322509
C	-0.0360533013	 1.2113595275	 0.0161511316	 0.421043
C	-1.3062669123	 2.0468743506	-0.1746788856	-0.316999
C	-0.8748323138	 3.3561501469	-0.8722264794	-0.236832
C	 0.6305926398	 3.5280004601	-0.5680696988	-0.063676
C	 1.0496120472	 4.1469989867	 0.7849814738	 0.018477
O	 0.371927967	 3.435616709	 1.8299840554	-0.241258
C	 1.556915331	 2.855927264	 1.2727431574	 0.019257
C	 1.167118652	 2.1512576787	-0.054081838	-0.177368
H	-2.0659958335	 1.4765086378	-0.7142264129	 0.119165
H	-1.6904421884	 2.2500762357	 0.8310611171	 0.150853
H	-1.0149462933	 3.2652341294	-1.9542955404	 0.108077
H	-1.4629552743	 4.2173403366	-0.5434405116	 0.11133
H	 1.1990357218	 3.9497897017	-1.398863888	 0.084962
H	 1.3589335858	 5.1623966528	 1.0051779565	 0.109066
H	 2.3550042972	 2.6011593648	 1.9593030613	 0.116457
H	 2.0136972648	 1.7112623227	-0.5815723636	 0.099956
91.6264	157.6124	225.1963	336.8313	432.5532	486.681	569.2986	628.8239	663.4246	738.7878	759.7315	784.7832	849.5841	864.4765	898.2833	920.5197	934.0231	952.3113	992.1889	1044.2444	1058.5909	1075.0801	1135.4915	1144.3349	1157.7552	1209.3294	1221.8121	1240.9167	1257.2419	1275.6355	1290.0967	1317.7076	1349.1845	1388.6878	1441.3994	1493.1291	1839.9155	3048.6063	3056.1277	3090.7388	3097.9039	3114.3121	3119.8118	3181.081	3200.2499
O=C1CCC2C3OC3C12	O=C1CC[C@H]2[C@H]3O[C@H]3[C@@H]12	
InChI=1S/C7H8O2/c8-4-2-1-3-5(4)7-6(3)9-7/h3,5-7H,1-2H2	InChI=1S/C7H8O2/c8-4-2-1-3-5(4)7-6(3)9-7/h3,5-7H,1-2H2/t3-,5-,6-,7+/m1/s1
