15
gdb 19629	4.91906	1.99734	1.83295	3.0236	63.96	-0.2452	0.0711	0.3163	748.3617	0.120064	-362.569059	-362.563205	-362.562261	-362.598783	23.594	
C	-0.0667688265	 1.4976708743	-0.034983814	-0.291659
O	 1.1101932337	 0.6648567783	 0.0265564832	-0.287372
C	-0.1560385755	 0.0404652192	-0.0002334092	 0.529198
C	-0.5544456886	-0.9713938079	 1.0328449995	-0.158026
C	-1.7021794343	-1.7471827942	 0.4637492113	-0.042122
C	-2.0366229352	-1.2058352711	-0.918415825	-0.242514
C	-0.5109768119	-1.0193133387	-1.0355706954	-0.118948
N	-0.302205699	-2.115387559	 0.0744680134	-0.154313
H	-0.2709992597	 2.0781345031	 0.8635845789	 0.118891
H	-0.2076186931	 2.0312284525	-0.974184671	 0.117464
H	-0.256396175	-1.0249638373	 2.0728637734	 0.108543
H	-2.2995697701	-2.4056912825	 1.0848229093	 0.10219
H	-2.3953719858	-2.0070665241	-1.5692575939	 0.117824
H	-2.6784254572	-0.3247314661	-1.0206081713	 0.101465
H	 0.0283949583	-1.0875484564	-1.9774402994	 0.099379
166.9552	265.5019	333.6828	432.876	503.6944	599.5931	743.1403	769.3496	796.976	818.2543	874.0006	891.1753	914.9056	942.0425	982.6163	1011.6893	1023.5897	1029.3495	1074.1629	1116.0306	1122.9083	1137.3397	1159.6683	1188.9876	1189.8069	1245.65	1276.6387	1299.8808	1356.8938	1463.0605	1494.4476	1546.3654	3045.9409	3081.6712	3107.8754	3153.8535	3168.077	3174.8835	3198.2895
C1OC11C2C3CC1N23	C1O[C@]21[C@H]1[C@H]3C[C@@H]2N13	
InChI=1S/C6H7NO/c1-3-5-6(2-8-6)4(1)7(3)5/h3-5H,1-2H2	InChI=1S/C6H7NO/c1-3-5-6(2-8-6)4(1)7(3)5/h3-5H,1-2H2/t3-,4+,5-,6+,7?/m1/s1
