19
gdb 89047	3.39672	0.89473	0.86779	4.0277	71.95	-0.2317	0.0169	0.2486	1399.6969	0.160055	-456.342464	-456.333165	-456.332221	-456.377635	34.138	
N	-0.100183843	 1.3926660731	-0.3351882263	-0.526435
C	-0.1908192988	 0.0866462137	 0.2682234531	 0.013502
C	-1.1768254721	-0.2815074827	 1.3621465868	-0.31579
C	-1.3625519006	-0.7994004219	-0.0513128795	 0.012489
N	-2.434839912	-0.2517430324	-0.853182172	-0.332968
H	-3.4759908734	 1.1550100758	 0.0630383518	 0.297042
H	-2.1540778197	-0.227495233	-1.8270091553	 0.245067
C	-3.7177852677	-0.9470957943	-0.7047868492	-0.309817
C	-4.6315393172	-0.2694293583	 0.3277885722	 0.42777
O	-4.2916848868	 1.0061113553	 0.5834222912	-0.361327
O	-5.5804199594	-0.8085567601	 0.8248836004	-0.325884
H	-1.0291381118	 1.7426441147	-0.5437948216	 0.226767
H	 0.3263193159	 2.0496709813	 0.311300749	 0.234299
H	 0.7709795513	-0.4177464255	 0.3069638611	 0.10233
H	-0.8800441223	-0.9891964955	 2.1285893851	 0.118622
H	-1.864931084	 0.4866765356	 1.6967894577	 0.126015
H	-1.1529925048	-1.8577591528	-0.2153322704	 0.091409
H	-4.2563489628	-0.917653277	-1.6583138401	 0.140383
H	-3.6142802507	-2.001841986	-0.424604004	 0.136528
43.6792	61.8653	110.3326	180.7029	219.5047	270.0122	326.5077	361.7044	464.6152	497.3959	555.418	591.5339	670.7719	747.4282	769.8623	824.2013	833.7773	864.6356	888.4635	894.0185	979.4676	1011.858	1047.7425	1061.428	1103.9561	1128.9154	1152.986	1175.5552	1214.	1252.3429	1277.434	1289.1993	1334.2268	1385.2402	1410.205	1432.4521	1464.9134	1466.0999	1494.274	1650.9029	1883.3783	3038.3401	3078.8663	3086.6089	3136.4666	3142.6531	3227.6439	3497.8127	3530.2575	3543.9923	3580.2827
NC1CC1[NH2+]CC([O-])=O	N[C@H]1C[C@H]1NCC(=O)O	
InChI=1S/C5H10N2O2/c6-3-1-4(3)7-2-5(8)9/h3-4,7H,1-2,6H2,(H,8,9)	InChI=1S/C5H10N2O2/c6-3-1-4(3)7-2-5(8)9/h3-4,7H,1-2,6H2,(H,8,9)/t3-,4+/m0/s1
