21
gdb 52849	2.39071	1.13323	0.96595	1.5751	86.75	-0.2414	0.0527	0.2942	1378.5985	0.181288	-387.081523	-387.071335	-387.070391	-387.118487	36.066	
C	-0.2653241247	 1.3201378275	 0.1569459383	-0.498534
C	-0.0874420012	-0.1231678236	 0.0817672254	-0.025712
C	 0.0567019153	-1.317230194	 0.011116821	 0.152668
C	 0.2214501324	-2.7808386718	-0.0731125675	 0.171536
C	 1.044430364	-3.164165606	-1.3030075387	-0.431355
C	 0.7689729364	-3.3480396386	 1.2569310405	-0.227963
C	-0.4911091128	-3.4150171896	 2.1364667358	-0.242573
C	-1.6401141203	-3.5368290587	 1.1025659059	-0.068853
O	-1.0521551211	-3.4279772583	-0.1932171741	-0.269824
H	 0.3588064099	 1.8363576593	-0.5808845725	 0.148764
H	-1.3064462365	 1.6005201571	-0.0376080727	 0.150488
H	 0.0026829803	 1.7065540705	 1.1465461634	 0.146088
H	 2.0454726762	-2.7288160259	-1.2430626051	 0.120679
H	 1.1273878843	-4.2527940216	-1.364073507	 0.117296
H	 0.5606165959	-2.7964729083	-2.2108709877	 0.131632
H	 1.167168939	-4.3495958896	 1.0649965871	 0.100063
H	 1.5642072049	-2.7342136565	 1.6838689576	 0.106333
H	-0.4675850157	-4.2558402341	 2.8333578579	 0.103984
H	-0.5996910914	-2.4999611089	 2.7238328572	 0.113311
H	-2.1531081061	-4.5030014916	 1.1445335087	 0.103255
H	-2.3883854988	-2.7468230573	 1.2486969665	 0.09872
22.3947	47.8614	83.7622	119.0223	178.9865	226.6782	284.4323	299.0301	338.1438	376.4534	477.0484	552.8885	611.0585	657.3498	709.6591	811.8399	857.8756	892.0597	912.8455	935.9966	1020.8074	1042.7848	1051.31	1054.523	1063.5003	1083.1106	1122.7626	1184.1562	1195.0895	1234.0371	1248.6757	1277.6634	1324.8454	1331.8829	1384.9591	1403.4176	1414.1083	1477.6199	1478.5614	1478.8924	1483.4362	1494.4129	1499.1846	1526.4373	2361.5266	3013.819	3026.8128	3047.133	3054.1517	3066.0496	3069.3187	3087.1331	3088.2295	3109.7474	3122.4283	3126.9793	3131.3761
CC#CC1(C)CCCO1	CC#C[C@@]1(C)CCCO1	
InChI=1S/C8H12O/c1-3-5-8(2)6-4-7-9-8/h4,6-7H2,1-2H3	InChI=1S/C8H12O/c1-3-5-8(2)6-4-7-9-8/h4,6-7H2,1-2H3/t8-/m0/s1
