23
gdb 86902	4.7922	0.75025	0.73469	0.9668	87.07	-0.2392	0.0906	0.3298	1678.8876	0.204794	-388.260419	-388.250881	-388.249936	-388.295649	35.946	
C	 0.0074212706	 1.4820548625	-0.3557728559	-0.39001
C	 0.0591353773	 0.0680112212	 0.2166954369	 0.020061
C	 0.8766390035	-0.9496302292	-0.6366162214	-0.266584
C	 2.0630639046	-0.7683929912	 0.3287084005	 0.169338
C	 1.0959834531	-0.1279523933	 1.3658167189	-0.261989
O	 2.707453611	-1.9761368644	 0.6669931735	-0.259244
C	 3.7774577341	-1.8127221889	 1.5455194	 0.137657
C	 4.8534927584	-2.8455557376	 1.4771897543	-0.287293
C	 5.1300415615	-1.4339538316	 0.9945972211	-0.286573
H	 1.0063625467	 1.8496436861	-0.6178185072	 0.113547
H	-0.605575229	 1.517902298	-1.2632044404	 0.113298
H	-0.4228441324	 2.1839796541	 0.3671488726	 0.112826
H	-0.9544683702	-0.2601935655	 0.462433639	 0.07002
H	 0.4836897295	-1.9662673581	-0.5537791551	 0.109668
H	 1.04010631	-0.7139976338	-1.6915644533	 0.093114
H	 2.8017322468	-0.0429414595	-0.0388830025	 0.066737
H	 1.4313062117	 0.7671581339	 1.8970285705	 0.090891
H	 0.7665477207	-0.8764247331	 2.0920705411	 0.103642
H	 3.5020592134	-1.4206160947	 2.5248454015	 0.08495
H	 5.3082481167	-3.1844384715	 2.4011237879	 0.111838
H	 4.7354313231	-3.6105523534	 0.7184075063	 0.124835
H	 5.1992738868	-1.2882606649	-0.0776198956	 0.118686
H	 5.776743812	-0.7945567449	 1.5855031173	 0.110585
54.6715	59.5811	93.8842	159.4918	234.1986	271.1098	297.5163	379.0687	398.6406	452.272	488.3178	667.334	758.9558	797.06	812.7241	821.4074	839.9552	892.2291	900.4086	942.0522	954.1843	981.7359	988.5264	1043.9189	1056.8482	1065.4548	1071.8605	1122.8213	1135.2903	1137.4508	1182.0268	1193.7144	1198.3404	1212.6163	1240.6126	1246.0539	1269.8189	1273.6819	1301.2847	1363.121	1375.2136	1411.4497	1417.7328	1452.6582	1464.7816	1490.1362	1496.5777	1497.3217	1499.6113	3003.5376	3023.1058	3049.3138	3054.3622	3063.1391	3091.2261	3091.8279	3097.2842	3109.0472	3116.286	3134.4819	3141.5615	3219.0366	3234.1217
CC1CC(C1)OC1CC1	C[C@H]1C[C@@H](C1)OC1CC1	
InChI=1S/C8H14O/c1-6-4-8(5-6)9-7-2-3-7/h6-8H,2-5H2,1H3	InChI=1S/C8H14O/c1-6-4-8(5-6)9-7-2-3-7/h6-8H,2-5H2,1H3/t6-,8-
