16
gdb 18560	3.70262	2.00737	1.60652	1.6695	63.79	-0.2397	-0.0284	0.2113	815.6551	0.131521	-383.753169	-383.746518	-383.745574	-383.784349	25.483	
O	 0.0082796558	-0.001756122	-0.3981030095	-0.296046
C	-0.0077186866	 1.1486592715	-0.0689939258	 0.394341
C	-1.1048056954	 2.1101836277	 0.4174677561	-0.373102
C	-0.0008544383	 3.1967988282	 0.6212347436	 0.102935
O	 0.3501407609	 3.4708305678	 1.9631566394	-0.254713
C	 1.2391789713	 2.4540407254	 2.420802192	-0.095276
C	 2.0840568926	 2.0526662106	 1.2004103543	-0.233656
C	 1.0884423241	 2.230212996	 0.0428591283	-0.166661
H	-1.8341562536	 2.3470377081	-0.3638925073	 0.133826
H	-1.6452488804	 1.8041783794	 1.3178061855	 0.138041
H	-0.1801467405	 4.1470881339	 0.1172830464	 0.089236
H	 1.8234464921	 2.8712086444	 3.2445317932	 0.116626
H	 0.6777841859	 1.5882245481	 2.8056699992	 0.101969
H	 2.9265420302	 2.73840835	 1.0726368259	 0.115941
H	 2.4740100761	 1.0344342864	 1.2712649583	 0.125201
H	 1.5594015958	 2.4874715244	-0.9079306796	 0.10134
63.5131	184.4032	237.6923	384.2942	434.4285	506.6928	581.1565	638.2446	722.7977	738.5393	850.8001	879.0932	888.6096	934.0447	955.5599	974.708	1003.8032	1027.8185	1084.8663	1116.4217	1126.8474	1180.7096	1200.9463	1213.515	1249.504	1256.7917	1266.7622	1328.5747	1353.6821	1394.3668	1419.6686	1483.2038	1524.9088	1889.8543	2984.2048	3056.0317	3060.1799	3095.9137	3097.6982	3107.8766	3115.4115	3116.8553
O=C1CC2OCCC12	O=C1C[C@H]2OCC[C@@H]12	
InChI=1S/C6H8O2/c7-5-3-6-4(5)1-2-8-6/h4,6H,1-3H2	InChI=1S/C6H8O2/c7-5-3-6-4(5)1-2-8-6/h4,6H,1-3H2/t4-,6+/m0/s1
