17
gdb 39725	3.37821	1.69711	1.65442	1.8641	69.8	-0.2387	0.0867	0.3254	887.8062	0.138133	-421.789712	-421.783453	-421.782509	-421.820143	26.406	
C	-0.0053732326	 1.5035407624	 0.0071929742	-0.33399
C	 1.3087099936	 0.7456787604	-0.0103994589	-0.333989
C	 0.0081046047	 0.0078609153	 0.0349949261	 0.469744
C	-0.4878046745	-0.8778478166	 1.1455939682	-0.303945
C	-1.7379841574	-1.5219011754	 0.545471158	 0.043015
O	-1.898828549	-1.0243403	-0.7711737151	-0.246255
C	-0.5172656372	-0.8769403446	-1.0936174488	 0.018843
O	 0.0532810403	-2.1501541487	-0.7972804687	-0.246255
C	-0.4314829379	-2.2754434495	 0.5279741427	 0.043029
H	-0.2818545011	 2.0306298812	 0.9141286222	 0.116168
H	-0.3241885645	 1.9968192634	-0.9055916367	 0.117222
H	 1.8768757526	 0.7274047409	-0.9350592985	 0.117221
H	 1.9215035677	 0.7599039778	 0.8846304872	 0.116167
H	-0.3572218486	-0.6759163415	 2.1990255453	 0.097143
H	-2.6502514429	-1.7877554926	 1.0576647432	 0.114266
H	-0.3731114013	-0.6028365582	-2.1349909573	 0.097349
H	-0.1946372418	-3.2040702242	 1.0247732969	 0.114266
157.4185	242.586	268.1845	466.7009	583.9324	606.716	614.0876	731.004	764.5045	785.4122	786.7204	803.0856	875.7185	889.4591	927.0689	941.8664	973.0578	982.8034	1009.312	1018.6459	1019.4324	1033.0788	1041.9831	1059.4202	1080.229	1083.3761	1095.9345	1182.4468	1208.0353	1227.1396	1244.8844	1280.1929	1328.657	1365.4938	1419.0269	1468.224	1514.5916	3126.7841	3129.9144	3176.7151	3203.9737	3217.6824	3220.5777	3233.84	3243.6651
C1CC11C2C3OC1OC23	C1CC21[C@H]1[C@H]3O[C@@H]2O[C@@H]13	
InChI=1S/C7H8O2/c1-2-7(1)3-4-5(3)9-6(7)8-4/h3-6H,1-2H2	InChI=1S/C7H8O2/c1-2-7(1)3-4-5(3)9-6(7)8-4/h3-6H,1-2H2/t3-,4+,5-,6+
