20
gdb 69841	3.0251	1.5405	1.25458	2.567	78.06	-0.2171	0.0728	0.29	1052.8927	0.172741	-403.108959	-403.101335	-403.100391	-403.140359	31.858	
O	-0.1108041985	 1.3769582447	 0.2416350697	-0.472247
C	 0.0085142986	 0.003206669	-0.0126093614	 0.406694
C	-0.4414253301	-0.5139069674	-1.3614520345	-0.378404
C	-1.2879546379	-0.7381764905	-0.1084101639	-0.019173
N	-1.4601265918	-1.9885275607	 0.5921587512	-0.09307
C	-1.2195133382	-3.270055622	-0.0587396054	-0.252867
C	-0.2665262308	-2.7520552217	 0.9663239494	 0.012282
C	 1.104978169	-2.2130066679	 0.5779031327	-0.264181
C	 1.1527135118	-0.680063948	 0.7151909699	-0.264081
H	 0.632440592	 1.8204240532	-0.1829515947	 0.277439
H	-0.8282878386	 0.2176194164	-2.0622385144	 0.112378
H	 0.0864908483	-1.3419102623	-1.8203499486	 0.107728
H	-2.1773952219	-0.1180165274	-0.0572145559	 0.108024
H	-1.9291059976	-4.0573937219	 0.1836093494	 0.112318
H	-0.882148691	-3.2705427112	-1.0938559668	 0.107103
H	-0.3261449225	-3.1600075983	 1.9740553518	 0.088738
H	 1.8677664279	-2.6627809694	 1.2202054661	 0.105313
H	 1.3633639371	-2.5003937993	-0.4466648222	 0.105443
H	 2.1138844614	-0.3022368185	 0.3425882071	 0.087788
H	 1.0863733129	-0.3949899467	 1.7725828505	 0.112776
185.8166	209.5182	281.7688	292.3674	373.4191	382.9318	406.2442	448.7253	494.3238	518.6558	619.8089	685.0629	740.0412	783.0527	869.8392	892.622	909.2835	939.258	946.6552	967.5454	1006.7981	1014.2272	1035.0234	1075.3451	1098.0384	1117.9207	1122.7666	1160.2272	1165.0474	1204.5618	1225.5884	1250.1391	1279.1742	1341.774	1347.6563	1351.7728	1379.4337	1409.1821	1414.1298	1478.3474	1492.3551	1504.8984	1514.5752	3015.6968	3043.2712	3058.7518	3083.6527	3092.0135	3112.7375	3138.2189	3156.3179	3174.6219	3225.8141	3787.6319
OC12CC1N1CC1CC2	O[C@]12C[C@H]1N1C[C@H]1CC2	
InChI=1S/C7H11NO/c9-7-2-1-5-4-8(5)6(7)3-7/h5-6,9H,1-4H2	InChI=1S/C7H11NO/c9-7-2-1-5-4-8(5)6(7)3-7/h5-6,9H,1-4H2/t5-,6-,7-,8?/m1/s1
