17
gdb 13324	4.98189	1.34478	1.0837	3.0311	74.82	-0.2122	-0.0004	0.2118	1069.8486	0.143977	-363.909009	-363.901389	-363.900445	-363.941609	27.836	
O	 1.9160628409	 4.1556098232	-0.043884687	-0.307067
C	 1.0712459418	 3.3114725464	 0.149686994	 0.144013
N	 1.2485141144	 1.9531697158	 0.1168434636	-0.391608
C	 2.4229925953	 1.2358708837	-0.1394505274	 0.431736
C	 2.5006592728	-0.0997342425	-0.1784770504	-0.207873
C	 3.8874521186	-0.5687454653	-0.5379258126	-0.235892
C	 4.7414969623	 0.7187187378	-0.3934956352	-0.214222
C	 3.7442180137	 1.9029011606	-0.4521320398	-0.284905
H	 0.0161484931	 3.5578959268	 0.3831331943	 0.079046
H	 0.4221105558	 1.401033171	 0.2951196501	 0.250592
H	 1.6656660458	-0.775209265	-0.0245245485	 0.075366
H	 4.2470375028	-1.3774643032	 0.1088378677	 0.100593
H	 3.9153567527	-0.9646941352	-1.5637732856	 0.102738
H	 5.239383687	 0.7150474228	 0.5809729384	 0.107113
H	 5.5228119816	 0.7946252346	-1.1533971163	 0.099272
H	 3.7036298532	 2.3714346195	-1.4431213769	 0.119158
H	 3.985646888	 2.7054339991	 0.2463473416	 0.131939
49.6613	127.9128	184.5754	195.4576	317.503	350.6542	506.789	553.5968	613.3449	657.5103	808.2317	823.3664	840.4804	877.5971	903.1297	919.2838	982.8021	1019.8529	1041.1381	1068.0503	1115.1877	1157.2673	1214.1854	1228.9407	1268.4579	1293.0628	1321.2815	1334.7619	1380.4755	1448.1947	1479.2107	1490.8221	1507.9758	1517.7008	1715.1527	1811.9735	2933.4468	2995.8365	3037.2447	3041.9892	3059.1693	3101.4395	3117.3057	3180.6846	3605.7916
O=CNC1=CCCC1	O=CNC1=CCCC1	
InChI=1S/C6H9NO/c8-5-7-6-3-1-2-4-6/h3,5H,1-2,4H2,(H,7,8)	InChI=1S/C6H9NO/c8-5-7-6-3-1-2-4-6/h3,5H,1-2,4H2,(H,7,8)
