21
gdb 91971	2.12718	1.75687	1.16924	0.7829	86.63	-0.2552	0.051	0.3062	1135.6314	0.182864	-349.922972	-349.914305	-349.913361	-349.955975	34.454	
C	-0.0306892564	 1.5672480546	-0.0969706772	-0.414118
C	 0.0975086038	 0.0496954354	-0.0131735612	 0.04844
C	 0.7861300557	-0.6204207715	-1.2246844894	-0.240677
C	 1.2252795896	-1.9951783239	-0.7191517876	-0.027206
C	 2.5509170464	-2.0848417791	-0.0106768731	-0.285851
C	 1.2885821744	-1.9326487242	 0.795558601	-0.038185
C	 0.8617120285	-0.5155844955	 1.2383828834	-0.219475
C	 1.9748897164	 0.321966066	 1.6779542636	 0.368393
C	 2.8910575304	 1.0147978934	 2.0362203723	-0.503501
H	 0.952618236	 2.0436000343	-0.1501002228	 0.12876
H	-0.5987793018	 1.855839083	-0.9877162565	 0.10868
H	-0.5505762722	 1.9751187224	 0.7762775192	 0.112786
H	-0.9086392097	-0.3836658968	 0.0569283824	 0.075508
H	 0.1028612375	-0.6960036277	-2.0757285811	 0.097603
H	 1.6442070165	-0.0234925015	-1.5582798028	 0.102593
H	 0.8441381282	-2.8793828357	-1.2177983399	 0.080707
H	 3.0451940652	-3.0502319617	 0.0224405112	 0.105527
H	 3.2274566172	-1.2377665615	-0.0650511242	 0.121655
H	 0.9644256275	-2.7638248243	 1.4107306897	 0.085281
H	 0.1597935761	-0.5963748409	 2.076422209	 0.100286
H	 3.6977534606	 1.6216339553	 2.365373564	 0.192794
73.3833	147.773	173.9292	227.6631	295.3231	316.9316	378.9155	407.0878	471.6409	581.1991	608.9411	617.7703	623.6303	672.637	760.9725	808.2642	813.1917	890.6416	902.5905	922.1311	939.7979	974.9821	1020.5504	1049.4396	1052.2529	1076.3681	1105.6263	1118.4877	1145.295	1159.1607	1198.0773	1216.5917	1256.3566	1294.7868	1316.4495	1332.0706	1362.9186	1368.2845	1384.749	1413.2792	1484.2684	1493.4232	1497.8338	1501.1563	2225.4521	3012.5791	3029.7744	3034.0461	3038.0821	3082.7938	3097.0482	3113.1603	3124.8857	3164.0126	3174.2509	3211.2047	3503.6978
CC1CC2CC2C1C#C	C[C@H]1C[C@H]2C[C@H]2[C@H]1C#C	
InChI=1S/C9H12/c1-3-8-6(2)4-7-5-9(7)8/h1,6-9H,4-5H2,2H3	InChI=1S/C9H12/c1-3-8-6(2)4-7-5-9(7)8/h1,6-9H,4-5H2,2H3/t6-,7-,8-,9+/m0/s1
