20
gdb 23544	2.12235	1.5518	0.99213	1.1172	83.15	-0.2304	0.0142	0.2446	1235.0555	0.170139	-403.080616	-403.071548	-403.070604	-403.114472	34.459	
C	-0.0404335324	 1.5622412169	 0.2150669142	-0.384784
C	 0.0614697705	 0.0369041012	 0.1181958099	-0.190087
C	 0.621764859	-0.4819242645	-1.2102187975	-0.088118
C	 0.8813717185	-2.0008228248	-1.3456266168	-0.06946
C	-0.3987057462	-2.7722261635	-1.3235943658	-0.284524
C	-0.0050263257	-2.0714910168	-2.6089874256	-0.138662
C	-0.2366268855	-0.6095297856	-2.4862060247	 0.425222
N	-0.7711067784	 0.1669502624	-3.33394525	-0.27089
O	-0.6925392333	 1.5183550834	-2.9303760519	-0.390481
H	 0.9423192658	 2.0296221821	 0.085715065	 0.108321
H	-0.6988497697	 1.9629385967	-0.5578687698	 0.144107
H	-0.4245710151	 1.86202722	 1.195267549	 0.103669
H	 0.7195151795	-0.3353149943	 0.9150898721	 0.0973
H	-0.921445069	-0.4100471941	 0.3057854916	 0.096336
H	 1.5234459581	 0.0858379209	-1.4730306187	 0.098297
H	 1.8435871047	-2.473089058	-1.1938640762	 0.096129
H	-0.2917932195	-3.8519219658	-1.3588094987	 0.119023
H	-1.2557378132	-2.4321060524	-0.7507179881	 0.120181
H	 0.1433542918	-2.6110856891	-3.5350530139	 0.103835
H	-1.1249234198	 1.9696069955	-3.662756624	 0.304585
65.4091	117.1126	175.1958	208.005	220.4839	274.9515	307.6214	377.2861	410.854	455.4856	549.9527	613.7188	692.3374	727.3376	776.3439	830.1755	847.2737	907.4669	941.0862	971.2402	976.7375	1004.9423	1011.5976	1052.9563	1087.5367	1090.5192	1100.9751	1144.3357	1169.6423	1186.9784	1221.8791	1285.7253	1296.4239	1327.0066	1347.8626	1383.7876	1408.7683	1417.4797	1483.1154	1493.9538	1498.348	1509.9494	1776.1056	3017.1326	3031.1386	3036.2577	3060.8293	3097.502	3125.0915	3140.0134	3192.1413	3202.0451	3211.8872	3822.3414
CCC1C2CC2C1=NO	CC[C@H]1[C@H]2C[C@H]2C1=NO	
InChI=1S/C7H11NO/c1-2-4-5-3-6(5)7(4)8-9/h4-6,9H,2-3H2,1H3	InChI=1S/C7H11NO/c1-2-4-5-3-6(5)7(4)8-9/h4-6,9H,2-3H2,1H3/t4-,5+,6+/m0/s1
