18
gdb 36617	5.31643	0.73993	0.70799	2.556	76.65	-0.2463	0.0317	0.278	1557.1025	0.14743	-401.917986	-401.909448	-401.908504	-401.952129	31.231	
N	-0.0035761943	-1.2184083232	-0.0679392032	-0.302037
C	-0.0099192881	-0.0634118091	-0.1053044628	 0.25887
C	 0.0108305527	 1.3964309448	-0.1463540022	-0.336702
C	 1.4062233261	 1.9808842539	 0.180536027	-0.327439
C	 1.4095901989	 3.4804373462	 0.1274214191	 0.292646
C	 1.5418674906	 4.2893632568	-1.1547659542	-0.343993
C	 2.5209720558	 4.4925173862	-0.0407008616	 0.036156
O	 1.9855671125	 5.3724256743	 0.9484532483	-0.281603
C	 0.9258204659	 4.4218619352	 1.2339326664	-0.128833
H	-0.3069420771	 1.7261240211	-1.1417245847	 0.15797
H	-0.7346534931	 1.7745734794	 0.5626367733	 0.154794
H	 1.7161469194	 1.6332181029	 1.1727175944	 0.125887
H	 2.1333941492	 1.5799557013	-0.5334281633	 0.126083
H	 1.9125911161	 3.7243400567	-2.0054890865	 0.118072
H	 0.8389316477	 5.0822254216	-1.3960411731	 0.119739
H	 3.5986813093	 4.3999334351	-0.1142751354	 0.112717
H	-0.0718009241	 4.8667376454	 1.1372721598	 0.107446
H	 1.0489064424	 4.0026187614	 2.2401798488	 0.110228
59.1676	82.6573	102.148	200.4698	286.1485	322.8946	374.2458	403.611	458.1427	519.38	704.3995	754.0153	769.9593	848.5476	905.6525	930.1644	966.3911	970.6279	994.0978	998.303	1022.9021	1031.301	1066.8184	1082.4024	1110.7874	1159.4301	1176.5576	1251.8825	1282.3723	1288.8771	1311.8778	1340.1695	1376.0437	1414.1571	1467.1985	1482.9511	1487.6919	1516.685	2362.294	3016.2219	3037.6953	3047.7937	3066.1169	3073.2041	3093.8927	3111.6629	3179.9995	3204.1087
N#CCCC12CC1OC2	N#CCC[C@]12C[C@H]1OC2	
InChI=1S/C7H9NO/c8-3-1-2-7-4-6(7)9-5-7/h6H,1-2,4-5H2	InChI=1S/C7H9NO/c8-3-1-2-7-4-6(7)9-5-7/h6H,1-2,4-5H2/t6-,7-/m1/s1
