20
gdb 58140	1.9564	1.41727	1.32146	1.7975	81.93	-0.205	-0.0316	0.1735	1158.3329	0.165957	-403.098622	-403.087803	-403.086859	-403.133927	39.194	
C	 0.0877452114	 1.4997845689	 0.0340317615	-0.340748
N	 0.0137080192	 0.0407273647	 0.0593042564	-0.074654
C	 0.858940584	-0.5247980694	 1.106969453	-0.336494
C	-1.3362079047	-0.5115259451	-0.0526265076	-0.024521
C	-1.3191231594	-2.062151776	-0.1300791637	-0.437702
C	-2.2941842546	-0.1523351217	 1.1175888148	 0.160687
O	-1.9626420445	 0.4207289171	 2.1194885852	-0.252303
C	-1.997207565	-0.0132037098	-1.2698843955	 0.316194
C	-2.6081446647	 0.3701540233	-2.2316956217	-0.440079
H	 1.1298518642	 1.7916116544	-0.1329774497	 0.114356
H	-0.5048818817	 1.8853099027	-0.7984551253	 0.130524
H	-0.2589183581	 1.9757223624	 0.9630610311	 0.120529
H	 0.5037389023	-0.3192524468	 2.1273323342	 0.123352
H	 0.9666472649	-1.6045425632	 0.9823541204	 0.116328
H	 1.8580319446	-0.0901234211	 1.0024392239	 0.118675
H	-1.0004504339	-2.5066139772	 0.8152510162	 0.133482
H	-2.3190175434	-2.4331077747	-0.3651739456	 0.134394
H	-0.6358013955	-2.3717913721	-0.923773163	 0.146699
H	-3.3445150352	-0.4881737271	 0.9541660902	 0.089121
H	-3.1241932899	 0.7139011607	-3.0944094549	 0.202159
68.4385	104.9551	160.1588	173.6722	185.1363	207.3333	214.3574	242.672	316.5297	336.828	349.9538	421.3166	437.8814	496.1005	542.2361	601.1533	626.0521	668.7397	718.8236	857.5956	914.8933	944.8395	1012.4112	1072.2897	1098.2293	1116.4173	1161.6383	1174.7644	1189.6747	1278.0641	1311.7879	1388.5624	1408.0134	1438.2529	1468.3548	1478.6415	1489.1187	1494.4305	1503.2295	1511.9461	1527.3141	1834.96	2227.6899	2861.596	2994.8606	3002.4182	3055.0876	3069.3888	3075.9527	3113.6817	3122.1595	3136.2003	3141.969	3497.7717
CN(C)C(C)(C=O)C#C	CN(C)[C@@](C)(C=O)C#C	
InChI=1S/C7H11NO/c1-5-7(2,6-9)8(3)4/h1,6H,2-4H3	InChI=1S/C7H11NO/c1-5-7(2,6-9)8(3)4/h1,6H,2-4H3/t7-/m1/s1
