17
gdb 7603	3.38356	1.60989	1.3122	2.4762	65.17	-0.2435	0.0323	0.2758	965.0639	0.140378	-401.021318	-401.012138	-401.011194	-401.055338	33.039	
C	 0.0982490609	 1.5138269197	-0.1469303885	-0.501149
C	 0.0569240218	 0.001380272	-0.0663956421	 0.196729
C	 1.3786499403	-0.7684162312	-0.1006304731	-0.350263
C	 0.6096145034	-0.6746010695	 1.1778971822	 0.09475
O	 1.0466827556	 0.1718946099	 2.2004543142	-0.428019
C	-1.0928140074	-0.7490302541	-0.6882883756	 0.372274
N	-2.0509030776	 0.0078300995	-1.2954362525	-0.548676
O	-1.1647735305	-1.9673417949	-0.6508030269	-0.385115
H	 0.9419722752	 1.8982484346	 0.4276956521	 0.139618
H	 0.2026163451	 1.8592756422	-1.1818673386	 0.116582
H	-0.8049259865	 1.9644590023	 0.2815116304	 0.120271
H	 1.3758209626	-1.7164896118	-0.6246789719	 0.138044
H	 2.2770230574	-0.166387677	-0.1884933453	 0.110029
H	 0.0727389957	-1.5649451605	 1.4975424903	 0.114963
H	 1.8351143947	-0.2207262205	 2.5890240945	 0.291283
H	-2.0179993794	 1.0098142772	-1.3304359272	 0.259163
H	-2.8337807613	-0.4717238778	-1.7073559821	 0.259517
51.5125	68.8241	180.1965	210.5212	246.6135	257.1204	283.2818	333.9187	403.494	455.8543	491.1761	575.6802	596.2216	689.0252	757.5529	828.69	866.2237	931.5436	965.355	1046.6076	1054.0012	1084.4722	1109.5247	1123.8883	1178.2212	1234.4812	1285.8302	1316.6268	1378.7793	1407.8009	1414.31	1466.628	1496.2859	1510.1066	1614.9766	1768.9267	3025.0422	3081.1887	3134.4358	3136.5147	3138.5998	3238.1885	3615.6489	3754.5526	3810.1986
CC1(CC1O)C(N)=O	C[C@]1(C[C@H]1O)C(=O)N	
InChI=1S/C5H9NO2/c1-5(4(6)8)2-3(5)7/h3,7H,2H2,1H3,(H2,6,8)	InChI=1S/C5H9NO2/c1-5(4(6)8)2-3(5)7/h3,7H,2H2,1H3,(H2,6,8)/t3-,5-/m1/s1
