17
gdb 103726	3.05309	1.15835	0.98184	1.6295	72.22	-0.2414	0.0323	0.2737	1217.6591	0.131515	-458.893128	-458.883144	-458.8822	-458.927499	37.163	
O	-0.0549621872	 1.3474499671	-0.3030370511	-0.436755
C	 0.0184608928	-0.0193681685	 0.1100463062	-0.146946
C	-1.4011220947	-0.5334486713	 0.057360246	 0.397549
O	-2.277532476	 0.2264979705	 0.8273640237	-0.472162
C	-1.9313143786	-1.1719022253	-1.2085855382	-0.401823
C	-1.6525626233	-2.0177518882	 0.0388441878	 0.112276
O	-0.4857531255	-2.8030355543	 0.0427466722	-0.456612
C	-2.7627271695	-2.5708916884	 0.7687372587	 0.344518
C	-3.6707146899	-3.0965679109	 1.3558558347	-0.472849
H	 0.7394119077	 1.797276187	-0.0028635526	 0.294414
H	 0.6742227181	-0.6067851947	-0.5410032572	 0.108482
H	 0.3897771826	-0.0972160977	 1.1411051506	 0.106848
H	-2.0834261577	 1.1440280552	 0.5929215831	 0.29031
H	-2.9694609303	-0.9866167523	-1.4562635768	 0.129092
H	-1.2508389077	-1.3124144534	-2.0413647748	 0.118981
H	-0.7019268903	-3.6432516138	-0.377641838	 0.288417
H	-4.4732753407	-3.5395307209	 1.8916428857	 0.196259
81.004	121.9872	132.5493	205.2162	234.6078	253.312	284.2337	305.3751	386.0962	404.7935	415.9336	435.923	474.3345	555.9219	593.6046	637.9856	677.4488	740.2768	772.6533	911.5219	915.7929	923.7647	1006.1668	1036.6208	1047.3574	1091.9706	1202.2209	1218.2735	1238.5675	1283.3646	1315.2934	1345.8781	1414.3235	1446.9871	1502.1677	1511.3465	2235.6984	3011.0143	3071.4954	3137.5395	3241.5261	3503.0613	3764.9577	3794.7235	3843.4875
OCC1(O)CC1(O)C#C	OC[C@@]1(O)C[C@]1(O)C#C	
InChI=1S/C6H8O3/c1-2-5(8)3-6(5,9)4-7/h1,7-9H,3-4H2	InChI=1S/C6H8O3/c1-2-5(8)3-6(5,9)4-7/h1,7-9H,3-4H2/t5-,6+/m1/s1
