18
gdb 22964	3.62334	0.80998	0.69574	1.9564	73.78	-0.249	-0.0061	0.2429	1605.8864	0.144755	-476.135489	-476.125802	-476.124858	-476.171042	33.653	
C	-0.122293234	 1.3485751827	 0.0106199637	-0.226953
O	 0.03479411	-0.0503675485	-0.0155901835	-0.231475
C	 0.5524067965	-0.5659307216	 1.1859874667	-0.060037
C	 0.7414471304	-2.0619470382	 1.0251504038	 0.029409
O	 1.91706928	-2.4354330406	 0.2532192561	-0.292056
C	 2.4865203222	-3.193328838	 1.3471384629	-0.161779
C	 1.3112823754	-2.8077779775	 2.2079867999	 0.335211
N	 0.907206555	-2.9512725746	 3.3950917461	-0.223116
O	 1.8108922062	-3.7217978085	 4.1442278524	-0.387601
H	 0.8380169936	 1.8641347313	 0.1681433094	 0.107523
H	-0.5298236869	 1.6486765118	-0.9575071627	 0.130676
H	-0.8169448455	 1.6669138425	 0.8043530535	 0.104182
H	 1.5176698206	-0.0981293657	 1.4395119512	 0.09322
H	-0.1389967313	-0.3889528268	 2.0284731665	 0.101147
H	-0.1683027043	-2.4971907377	 0.5908509622	 0.110414
H	 2.576354202	-4.2635368474	 1.121157802	 0.129044
H	 3.4628868281	-2.8112640704	 1.6705390118	 0.13041
H	 1.3863766521	-3.7550429627	 5.0085078779	 0.311782
61.9623	84.9943	98.4138	122.8891	201.0649	231.9833	252.2573	323.3162	345.4486	372.1118	476.1419	532.5228	591.6092	735.5804	874.6337	897.4573	974.0125	982.3793	1008.5968	1029.6141	1069.2036	1109.0715	1130.4259	1167.4308	1176.7023	1185.4414	1226.2868	1249.0048	1275.4192	1309.8076	1347.1452	1410.9849	1425.1504	1476.6783	1486.5229	1494.7142	1498.9046	1518.1503	1813.9185	2953.6939	2972.4607	2993.4882	3015.807	3016.483	3030.505	3057.1923	3117.8299	3814.7854
COCC1OCC1=NO	COC[C@H]1OCC1=NO	
InChI=1S/C5H9NO3/c1-8-3-5-4(6-7)2-9-5/h5,7H,2-3H2,1H3	InChI=1S/C5H9NO3/c1-8-3-5-4(6-7)2-9-5/h5,7H,2-3H2,1H3/t5-/m1/s1
