19
gdb 68148	3.60086	1.22112	1.09774	1.8108	76.62	-0.2478	-0.0303	0.2175	1152.3464	0.158556	-423.02108	-423.012815	-423.011871	-423.053908	31.872	
C	-0.0647186923	 1.5002786854	-0.0116294668	-0.489522
C	 0.0715399892	 0.0062912834	 0.0548370808	 0.429035
C	 1.0587823764	-0.8300733519	-0.8062903083	-0.310233
C	 0.6288647481	-1.9324265009	 0.232879352	 0.192965
C	 0.5862885892	-0.7904887533	 1.2858688072	-0.301531
C	-0.868436861	-2.0309042262	-0.1259328901	-0.121354
O	-1.1950073118	-0.6332581633	-0.2280521345	-0.305204
C	 1.4178553441	-3.1861548474	 0.3897870283	 0.038903
O	 2.0613473282	-3.4749180816	 1.3685111693	-0.245941
H	 0.8949785904	 1.9825497037	 0.1926185013	 0.121147
H	-0.4084687233	 1.8104365787	-1.0031460383	 0.130468
H	-0.7936789066	 1.8493161669	 0.7260645764	 0.132776
H	 0.8022233953	-0.9810830596	-1.8573898696	 0.10621
H	 2.1026425168	-0.5353090524	-0.6878638652	 0.113833
H	 1.5821750793	-0.4958929081	 1.618288119	 0.114249
H	-0.0957627841	-0.8962870419	 2.1320892311	 0.10654
H	-1.0581247186	-2.5419943242	-1.0776738081	 0.104455
H	-1.4640422577	-2.5058190607	 0.6621305671	 0.111874
H	 1.3915214085	-3.8625890365	-0.4970606217	 0.071331
70.501	156.1443	206.5314	225.2327	274.8798	330.4518	375.0518	448.7302	482.2979	516.3957	615.2273	670.3443	720.617	814.4781	865.1861	889.6316	902.345	948.1278	972.0713	998.5963	1010.7094	1024.2255	1046.9067	1114.0178	1147.8034	1173.743	1183.0088	1195.0467	1209.4244	1215.8995	1285.3408	1336.4857	1371.3693	1418.2475	1428.6986	1472.7175	1480.3428	1492.2059	1506.3978	1532.4128	1818.3531	2852.3801	3021.1417	3042.6226	3064.3117	3069.1194	3078.6721	3113.07	3121.8239	3140.1258	3148.4907
CC12CC(C1)(CO2)C=O	C[C@@]12C[C@@](C1)(CO2)C=O	
InChI=1S/C7H10O2/c1-6-2-7(3-6,4-8)5-9-6/h4H,2-3,5H2,1H3	InChI=1S/C7H10O2/c1-6-2-7(3-6,4-8)5-9-6/h4H,2-3,5H2,1H3/t6-,7+
