20
gdb 118565	1.82032	1.00112	0.71242	2.3506	74.24	-0.2589	0.0125	0.2714	1601.7521	0.168692	-477.40593	-477.395206	-477.394262	-477.44313	37.061	
O	 0.1314417193	 1.4054895146	 0.1554299871	-0.416228
C	 0.072084131	-0.0042269457	 0.0095839294	-0.073349
C	-1.3603913655	-0.5351153436	 0.1039930956	-0.203573
C	-1.4598434787	-2.0558622704	 0.053480168	 0.061623
C	-2.9021961826	-2.5693243469	 0.1293353401	-0.064295
O	-3.6854227536	-2.0997580562	-0.9463908136	-0.414819
O	-0.911455433	-2.4893657353	-1.2104416113	-0.208079
C	-0.2565777305	-3.6685800255	-1.2440597447	 0.125658
N	 0.0541906127	-4.1850106894	-2.3519930206	-0.440113
H	-0.2983326994	 1.7979913948	-0.6111388432	 0.283522
H	 0.5340967573	-0.3341146291	-0.9308890026	 0.111104
H	 0.6773498129	-0.4100666141	 0.8291750402	 0.10447
H	-1.8034626138	-0.1902502867	 1.0451189128	 0.111833
H	-1.9726848406	-0.1228765932	-0.7060078618	 0.113718
H	-0.8730492058	-2.5013371363	 0.8707095273	 0.082291
H	-2.8869902629	-3.6709931845	 0.1670667155	 0.090178
H	-3.3743264298	-2.2119181315	 1.0504647184	 0.11551
H	-3.2217230934	-2.349865869	-1.755010506	 0.297611
H	-0.0326479514	-4.0721920973	-0.2465846756	 0.090456
H	 0.5731830279	-5.0475934649	-2.2016417648	 0.232481
46.6849	79.7923	90.0862	104.6163	114.8625	170.5347	239.136	284.8441	295.4353	342.771	357.3113	440.9012	530.38	586.594	682.5423	790.1832	822.4368	885.3389	928.885	955.8481	1022.0992	1043.6869	1074.9818	1081.918	1093.6839	1116.1923	1127.6652	1193.007	1233.7992	1268.0596	1293.4665	1311.5216	1349.8331	1369.4737	1392.7884	1413.0937	1422.4956	1423.0134	1429.82	1481.3115	1498.3276	1516.3556	1742.8963	2970.2583	2998.07	3011.7109	3021.0708	3044.398	3055.9697	3078.206	3093.8593	3519.5308	3788.6992	3816.6153
OCCC(CO)OC=N	OCC[C@@H](CO)O[CH][NH]	
InChI=1S/C5H11NO3/c6-4-9-5(3-8)1-2-7/h4-8H,1-3H2	InChI=1S/C5H11NO3/c6-4-9-5(3-8)1-2-7/h4-8H,1-3H2/t5-/m0/s1
