17
gdb 36216	4.76673	0.9548	0.87689	3.6442	78.21	-0.2436	-0.0062	0.2373	1303.9851	0.137677	-380.868636	-380.860872	-380.859928	-380.901567	29.439	
N	-0.1979640765	-1.0234881664	 0.5873017965	-0.312994
C	-0.1054390371	 0.07155514	 0.2304211629	 0.265524
C	 0.0334185371	 1.4635449878	-0.2115843833	-0.443802
C	 1.4623053869	 1.9416633795	-0.1834064442	 0.324556
C	 2.1220942719	 2.498269693	-1.203247195	-0.165864
C	 3.4697101304	 2.964197778	-0.769374191	-0.07369
N	 3.3891571943	 4.0119862291	 0.2908238941	-0.334423
C	 3.5888629691	 2.5981812756	 0.6696890371	-0.042103
C	 2.3046125705	 1.8881599865	 1.0812612653	-0.306215
H	-0.381428146	 1.5555874953	-1.2206094294	 0.157519
H	-0.5915017718	 2.0842857778	 0.4452204365	 0.162792
H	 1.7294540263	 2.6403094419	-2.2034377677	 0.100514
H	 4.3117974382	 2.9740466032	-1.4523981432	 0.093897
H	 4.2902704109	 4.484770829	 0.3453284601	 0.229696
H	 4.5342104506	 2.3032935245	 1.1110819753	 0.093967
H	 1.8118134506	 2.3929265634	 1.9212603741	 0.122355
H	 2.4907253847	 0.8524534917	 1.392187092	 0.128271
55.7376	98.1901	185.3334	307.1479	363.2055	386.9112	403.7695	477.2837	540.2835	679.7931	712.4867	801.6187	837.0556	845.4097	868.1682	910.4079	928.9081	938.7709	956.5007	983.2976	1010.1374	1080.0034	1129.1965	1156.8896	1170.8144	1192.2459	1216.7599	1256.6896	1284.5766	1323.9787	1343.1554	1377.3619	1409.6013	1451.3609	1465.6738	1702.3652	2361.7223	3021.5988	3028.989	3063.3768	3082.1679	3169.3022	3178.2594	3200.8916	3475.8489
N#CCC1=CC2NC2C1	N#CCC1=C[C@H]2N[C@H]2C1	
InChI=1S/C7H8N2/c8-2-1-5-3-6-7(4-5)9-6/h3,6-7,9H,1,4H2	InChI=1S/C7H8N2/c8-2-1-5-3-6-7(4-5)9-6/h3,6-7,9H,1,4H2/t6-,7+/m1/s1
