20
gdb 59306	2.75038	1.19764	0.92494	2.6599	76.03	-0.2494	0.0214	0.2707	1302.1796	0.169195	-440.309665	-440.299624	-440.29868	-440.344668	36.493	
C	 0.1667376027	 1.4397083458	 0.1594223628	-0.403597
C	-0.1100642057	-0.0595670493	-0.012759666	 0.045912
C	-1.6166998998	-0.3440140014	-0.0885790892	-0.399959
C	 0.5884986668	-0.6064654647	-1.2584500047	 0.025351
N	 2.0627889313	-0.5101317127	-1.2730686374	-0.341534
C	 2.304508079	-1.8544674909	-1.222884402	 0.393463
O	 3.2949312192	-2.5261840156	-1.0877130456	-0.372825
C	 0.7913861066	-2.1613210192	-1.3407687852	-0.038516
O	 0.2459479059	-2.9211373258	-0.2929868491	-0.427003
H	 1.2366691691	 1.6476828497	 0.2664128405	 0.105102
H	-0.2049752657	 2.0131583795	-0.6985206381	 0.113024
H	-0.3321290602	 1.8240014147	 1.0546185018	 0.120166
H	 0.2994092485	-0.5955535684	 0.851239563	 0.083931
H	-2.0667055942	 0.1456965049	-0.9608248741	 0.108031
H	-1.8108850448	-1.4169811091	-0.1560616341	 0.141669
H	-2.1252303021	 0.0385233694	 0.8018519822	 0.112882
H	 0.1358047303	-0.1798103062	-2.1626732751	 0.079689
H	 2.6893746813	 0.2803168157	-1.2245749414	 0.252281
H	 0.5151853724	-2.5712234335	-2.3211637897	 0.098119
H	 0.9237452496	-3.547095353	-0.0123394386	 0.303814
64.3081	88.6013	156.7798	173.803	222.3907	228.8611	243.5174	272.3062	324.6342	372.3177	404.4672	462.6491	514.6765	584.6825	719.7892	782.142	811.5657	890.7162	927.8121	934.2947	943.1016	974.5794	1021.4109	1113.9796	1138.1297	1180.9969	1185.6992	1194.8123	1214.2843	1274.8184	1312.7894	1340.3851	1353.2337	1368.5018	1388.6235	1401.0291	1406.9203	1423.4752	1488.5193	1495.4448	1504.9213	1515.3717	1888.0346	3014.6467	3023.9321	3027.5029	3030.7495	3047.9598	3089.7374	3096.1963	3101.9537	3127.4073	3602.5084	3795.9905
CC(C)C1NC(=O)C1O	CC(C)[C@H]1NC(=O)[C@H]1O	
InChI=1S/C6H11NO2/c1-3(2)4-5(8)6(9)7-4/h3-5,8H,1-2H3,(H,7,9)	InChI=1S/C6H11NO2/c1-3(2)4-5(8)6(9)7-4/h3-5,8H,1-2H3,(H,7,9)/t4-,5+/m1/s1
