20
gdb 104285	2.10451	1.32925	1.08881	1.7268	75.84	-0.2365	-0.029	0.2076	1228.7702	0.168699	-440.270241	-440.260402	-440.259458	-440.305197	35.872	
C	 0.0296389377	 1.5453780202	 0.1415948227	-0.392806
C	-0.0268133422	 0.0148506982	 0.1517519715	-0.243378
C	-1.4401081336	-0.5422307873	-0.0224527019	 0.389393
O	-2.3323547609	-0.055610085	 0.9466658636	-0.466826
C	-2.0265128129	-0.4264745284	-1.4509646813	-0.20087
N	-1.6282819539	-1.8299368093	-1.7161205025	-0.330766
C	-1.5003118652	-2.108315982	-0.275104968	-0.118715
C	-0.3075069139	-2.936999334	 0.1280390819	 0.136234
O	-0.0695862092	-3.2496158919	 1.2692845536	-0.26164
H	 1.0539365726	 1.8952352489	 0.2980108037	 0.116766
H	-0.3186078949	 1.9519082481	-0.8134497484	 0.121501
H	-0.6007036368	 1.9675878531	 0.9285604612	 0.12351
H	 0.60488536	-0.393604284	-0.6463926364	 0.11448
H	 0.3858053256	-0.3706348254	 1.0942572897	 0.109584
H	-1.9264132807	-0.1678045479	 1.8142642668	 0.28586
H	-3.1086614223	-0.2566792958	-1.3980566995	 0.109058
H	-1.5757588294	 0.3071125215	-2.1273212712	 0.105216
H	-2.3156869492	-2.3879699168	-2.2095829132	 0.225761
H	-2.3988937955	-2.4962461636	 0.2232583954	 0.09584
H	 0.3681420246	-3.2091751486	-0.7147828577	 0.081799
60.7968	99.4757	126.7421	164.5288	195.9763	215.4036	283.0442	323.8778	354.569	403.845	469.4267	482.0398	526.8444	638.6192	704.8376	798.7691	889.1241	897.7503	960.9266	979.1434	1009.0404	1019.7676	1033.1439	1058.7329	1108.2702	1116.6479	1140.2419	1148.5851	1187.8361	1255.2533	1285.6606	1312.4694	1338.7114	1364.8131	1375.597	1403.4089	1411.882	1413.6379	1486.6557	1495.4409	1508.088	1512.2259	1813.7139	2876.9341	3016.9026	3017.237	3025.4887	3043.6523	3059.7945	3075.6402	3109.1487	3122.2414	3534.3101	3793.4888
CCC1(O)CNC1C=O	CC[C@@]1(O)CN[C@H]1C=O	
InChI=1S/C6H11NO2/c1-2-6(9)4-7-5(6)3-8/h3,5,7,9H,2,4H2,1H3	InChI=1S/C6H11NO2/c1-2-6(9)4-7-5(6)3-8/h3,5,7,9H,2,4H2,1H3/t5-,6+/m0/s1
