21
gdb 35425	3.67635	1.17187	1.06919	0.8624	87.71	-0.2542	0.0581	0.3123	1205.1717	0.185059	-349.923263	-349.915434	-349.91449	-349.95532	32.237	
C	 0.0726152761	-1.240194185	 0.0825132549	-0.424471
C	 0.0269377088	-0.0391615394	 0.038516917	 0.271153
C	-0.0172333036	 1.4170834664	 0.0040400606	-0.156339
C	-0.8190465008	 2.0121977975	 1.2010292711	-0.214018
C	-0.437795097	 3.4829025925	 1.4363755604	-0.012723
C	 0.0000784346	 4.1721917149	 0.1086635347	-0.226234
C	 1.3915310803	 3.5126452643	 0.3506078332	-0.012725
C	 1.0525660028	 3.5652791494	 1.86528952	-0.210074
C	 1.4028318254	 2.048326337	-0.1177317454	-0.214014
H	 0.1083180313	-2.3007550407	 0.1134736229	 0.187256
H	-0.5612867346	 1.7012532325	-0.9048174756	 0.109741
H	-1.8887117334	 1.9094152848	 0.989066664	 0.101027
H	-0.6216217504	 1.4343512398	 2.110714383	 0.10866
H	-1.1794446851	 3.9884076551	 2.0598044662	 0.060507
H	-0.5435300868	 3.9471906308	-0.8133859827	 0.089811
H	 0.0535778836	 5.2572655273	 0.2285301693	 0.092815
H	 2.281552334	 4.0446802312	 0.0055813243	 0.060507
H	 1.2972266913	 4.5366421263	 2.3041035423	 0.091849
H	 1.4456152527	 2.7689000125	 2.5056955989	 0.087583
H	 2.1206035307	 1.4789295513	 0.4831006473	 0.108661
H	 1.73130236	 1.9682712416	-1.1595450063	 0.101027
94.3918	149.608	264.166	292.3046	365.4826	411.0734	477.3491	510.8883	515.1786	535.2587	615.5249	631.4657	757.8725	825.0094	826.4406	858.3459	866.6969	908.6703	930.8407	933.8888	983.619	1016.3699	1037.2793	1059.1654	1086.6958	1099.8989	1119.6891	1125.7014	1167.4659	1221.5255	1221.6333	1256.2818	1263.61	1299.9509	1315.1829	1330.111	1332.97	1354.1022	1355.262	1387.1884	1483.8241	1493.4039	1496.8893	1517.9553	2233.4227	3022.5566	3035.8126	3037.0596	3041.427	3052.6874	3070.193	3074.5084	3077.0436	3081.	3098.9383	3105.2422	3505.4742
C#CC1CC2CC(C2)C1	C#C[C@H]1C[C@@H]2C[C@@H](C2)C1	
InChI=1S/C9H12/c1-2-7-3-8-5-9(4-7)6-8/h1,7-9H,3-6H2	InChI=1S/C9H12/c1-2-7-3-8-5-9(4-7)6-8/h1,7-9H,3-6H2/t7-,8-,9+
