16
gdb 24385	3.7435	1.60707	1.13485	2.3728	76.64	-0.1755	0.0298	0.2053	1012.3591	0.128847	-396.974527	-396.967508	-396.966564	-397.005884	27.736	
C	-0.0030546739	 1.4982505427	-0.0304929546	-0.278673
N	 1.3518871995	 2.0645849437	 0.0185956804	-0.26118
C	 2.3578950324	 1.3136564899	 0.2399891418	 0.081916
N	 2.3684952826	-0.0487502982	 0.4717990766	-0.427669
C	 1.164494336	-0.7265639637	 0.2355122266	 0.31172
C	 0.0272347147	 0.0018587911	-0.005846396	 0.245029
N	-0.9903303046	-0.9010658467	-0.2031135202	-0.340196
C	-0.5054253569	-2.1802897867	-0.0868891072	-0.069872
C	 0.843924159	-2.1090783178	 0.1901957372	-0.296503
H	-0.579372603	 1.9154804485	 0.8130856337	 0.106212
H	-0.5012838852	 1.8826142773	-0.9345094319	 0.104848
H	 3.3476364621	 1.7700333905	 0.2770781091	 0.106523
H	 3.2421007006	-0.5398949922	 0.3773504767	 0.247082
H	-1.9482084697	-0.6628044541	-0.3908531396	 0.260785
H	-1.152028564	-3.0339065531	-0.2070440164	 0.119282
H	 1.5096840005	-2.9456714613	 0.3352830138	 0.090696
90.358	209.1109	305.1408	355.3816	389.4133	438.7607	496.5667	548.6872	622.3894	628.2435	675.0124	696.9543	749.4178	792.302	896.6071	924.7712	942.1894	949.0329	1038.0108	1079.4511	1107.687	1132.0041	1197.8175	1235.904	1254.677	1300.9097	1366.0193	1406.944	1426.4517	1468.4454	1493.9832	1510.0367	1560.0342	1652.9636	1728.2512	2942.4817	2971.0138	3125.5154	3247.6798	3274.2502	3642.2153	3684.145
C1N=CNC2=C1NC=C2	C1N=CNc2c1[nH]cc2	
InChI=1S/C6H7N3/c1-2-8-6-3-7-4-9-5(1)6/h1-2,4,8H,3H2,(H,7,9)	InChI=1S/C6H7N3/c1-2-8-6-3-7-4-9-5(1)6/h1-2,4,8H,3H2,(H,7,9)
