18
gdb 76049	2.49488	1.33495	1.11129	3.4618	77.31	-0.2461	0.028	0.2741	1163.4508	0.146872	-401.934546	-401.92569	-401.924745	-401.968398	32.226	
C	-0.0461122279	 1.6240095752	-0.1815075489	-0.417849
C	-0.0200019547	 0.1222796524	-0.0150752397	-0.106938
C	 1.2990257322	-0.6742353998	-0.1233101751	-0.294556
C	 2.5493553344	 0.0022173387	-0.2868229476	 0.299092
N	 3.5576458887	 0.5648589118	-0.3799943292	-0.353514
C	 0.5425786543	-0.5234436815	 1.1943581209	 0.456065
C	 1.0610198334	 0.0497714704	 2.5063874823	-0.360805
C	 0.4754443135	-1.2485740433	 3.1055071189	-0.078904
O	-0.0476792085	-1.6529318549	 1.8110910577	-0.304402
H	 0.8291293256	 2.0931994164	 0.2759689965	 0.141831
H	-0.0525487784	 1.899565956	-1.2405378287	 0.135629
H	-0.94261227	 2.04580883	 0.2843535124	 0.127163
H	-0.8574753726	-0.4138893894	-0.4544634405	 0.114198
H	 1.2322141894	-1.6496719475	-0.5931527863	 0.140129
H	 2.1424531019	 0.1722642465	 2.5740489596	 0.141818
H	 0.5676084965	 0.9682121881	 2.8293259909	 0.124504
H	 1.2117058713	-1.9662584151	 3.4816903731	 0.119094
H	-0.3275020891	-1.1263926143	 3.8382981439	 0.117446
83.822	117.3203	130.536	175.0111	180.2195	233.9185	356.3511	401.9442	434.5061	523.5684	582.0738	646.1702	762.371	797.2258	842.7078	879.5528	905.2579	961.7052	986.049	1002.2545	1018.0579	1094.9351	1109.5207	1119.2774	1132.1417	1163.0128	1198.3303	1212.9353	1247.5529	1301.7285	1336.7836	1362.7511	1419.1609	1447.3553	1490.0938	1491.8595	1501.8962	1531.6881	2340.0034	3039.9527	3042.8513	3083.595	3093.0786	3105.5988	3116.9395	3141.7188	3149.1371	3174.874
CC1C(C#N)C11CCO1	C[C@H]1[C@@H](C#N)[C@]21CCO2	
InChI=1S/C7H9NO/c1-5-6(4-8)7(5)2-3-9-7/h5-6H,2-3H2,1H3	InChI=1S/C7H9NO/c1-5-6(4-8)7(5)2-3-9-7/h5-6H,2-3H2,1H3/t5-,6+,7+/m0/s1
