17
gdb 56247	3.71465	0.89185	0.77885	6.1364	66.56	-0.228	0.0024	0.2304	1428.3626	0.134913	-492.336842	-492.327085	-492.326141	-492.372434	34.642	
N	 0.1300629627	 0.4919769848	 0.6891866444	-0.512002
C	-0.2036779581	-0.7867185021	 0.3826163613	 0.409158
O	 0.5305319671	-1.7335829571	 0.6023575334	-0.346528
C	-1.6097476517	-0.967018775	-0.2061034628	-0.185163
O	-1.5762252586	-1.9961490387	-1.1593148488	-0.231942
C	-2.6345888552	-2.9356702539	-1.0939853845	-0.177924
C	-2.4785821081	-4.0413727574	-0.0377052229	 0.342361
N	-1.2762215947	-4.0909577813	 0.5774874146	-0.521104
O	-3.4030693048	-4.8079832568	 0.1661276849	-0.371691
H	 1.0339003672	 0.6676624905	 1.0976656378	 0.270943
H	-0.4297381308	 1.2754379004	 0.4018973752	 0.267427
H	-2.2771911351	-1.2052807935	 0.6349606536	 0.13664
H	-1.9716479881	-0.0313948175	-0.6598204912	 0.103207
H	-3.6071192102	-2.4539293522	-0.9313894082	 0.121896
H	-2.6723344051	-3.4242553643	-2.0722280994	 0.143527
H	-0.5452529787	-3.4056566896	 0.4107208263	 0.297161
H	-1.1409525378	-4.8031627864	 1.2763397062	 0.254033
48.0474	78.4628	86.9331	127.1644	222.7255	253.1588	295.9254	337.6552	424.5457	470.4456	498.6806	519.2323	563.3497	567.0524	628.5175	693.0569	764.0541	849.7847	857.3024	988.7247	999.9314	1057.6456	1100.4312	1116.4097	1165.7727	1277.4149	1283.6311	1335.3529	1364.8764	1383.1393	1431.5344	1468.2745	1484.7017	1621.5753	1637.5064	1789.1326	1799.8387	2979.3747	3023.8339	3033.0462	3096.238	3473.6223	3602.4233	3682.7929	3736.5734
NC(=O)COCC(N)=O	NC(=O)COCC(=O)N	
InChI=1S/C4H8N2O3/c5-3(7)1-9-2-4(6)8/h1-2H2,(H2,5,7)(H2,6,8)	InChI=1S/C4H8N2O3/c5-3(7)1-9-2-4(6)8/h1-2H2,(H2,5,7)(H2,6,8)
