15
gdb 133201	3.22013	1.34105	0.95225	2.8053	73.91	-0.213	-0.0288	0.1842	1144.5558	0.112953	-458.106967	-458.099093	-458.098149	-458.139334	29.809	
C	-0.0323016417	 1.4438850525	-0.0084752809	-0.449105
C	-0.0072007145	-0.0522971153	 0.0170579042	 0.326663
N	-0.0351387093	-0.667374107	-1.1236502624	-0.264053
N	-0.0123867176	-2.0257477819	-1.1063062291	-0.309091
C	 0.0374899085	-2.751997143	 0.0349676087	 0.417435
F	 0.0519121061	-4.0607066608	-0.1725347187	-0.052035
C	 0.0687708276	-2.1809308528	 1.2539810977	-0.406772
C	 0.0478046792	-0.7316444773	 1.3364053098	 0.259142
N	 0.0711501438	 0.002484496	 2.3963439128	-0.550458
H	 0.8508544997	 1.8421118341	 0.5005129572	 0.148018
H	-0.0706098968	 1.8055001297	-1.0367223197	 0.12557
H	-0.8943763795	 1.8137429888	 0.5552038902	 0.147927
H	-0.0349734849	-2.4777025712	-2.005506714	 0.283146
H	 0.1084292694	-2.7990297977	 2.1411634006	 0.118692
H	 0.1086410301	-0.5817291241	 3.2340744737	 0.204921
100.5463	170.588	190.2187	309.2134	329.9903	351.1554	395.8834	466.4973	472.7985	506.737	566.7454	656.1558	726.9605	752.4231	770.4409	811.9632	880.3372	977.9545	1056.383	1057.4014	1105.6972	1181.5428	1223.3752	1250.2976	1360.277	1398.6184	1421.8095	1463.1232	1465.3789	1530.1064	1637.8172	1656.6973	1703.1875	3049.8093	3105.7493	3151.8915	3220.0152	3444.6588	3660.1062
CC1=NNC(F)=CC1=N	CC1=NN[C@H](F)C=C1[NH]	
InChI=1S/C5H6FN3/c1-3-4(7)2-5(6)9-8-3/h2H,1H3,(H2,7,9)	InChI=1S/C5H7FN3/c1-3-4(7)2-5(6)9-8-3/h2,5,7,9H,1H3/t5-/m0/s1
