20
gdb 83691	2.28473	1.50052	1.03462	2.9241	80.33	-0.2212	-0.0293	0.1919	1200.5407	0.169974	-403.111935	-403.103127	-403.102183	-403.14596	32.616	
C	-0.2825759275	 1.5997643917	 0.0592560276	-0.331197
N	-0.1507593579	 0.1608198358	 0.1169994808	-0.093281
C	-0.9918358151	-0.6064520256	 1.068104416	 0.025666
C	-1.7059894819	-1.8041753028	 0.4045655882	-0.216723
C	-0.386594702	-2.6315252	 0.5337632117	-0.233786
C	 0.24847311	-1.4935573851	 1.3944931725	-0.068509
C	 1.0935630471	-0.415469135	 0.6530322313	-0.055953
C	 2.0985692694	-0.8781617638	-0.3797435328	 0.148415
O	 3.2641887249	-1.0755914071	-0.1478866796	-0.250372
H	 0.4453096528	 2.0110685979	-0.6484593053	 0.12451
H	-1.2822502772	 1.8655785053	-0.29974342	 0.12456
H	-0.1245551302	 2.0956020195	 1.0352057332	 0.095639
H	-1.5213400647	-0.0003534714	 1.8110552223	 0.063748
H	-2.5137429609	-2.209133639	 1.0212860477	 0.099032
H	-2.0810773115	-1.62200871	-0.6047240484	 0.104283
H	-0.4960094918	-3.5764491953	 1.0697570245	 0.108289
H	 0.1236131281	-2.8377528278	-0.4088458203	 0.110453
H	 0.5702564589	-1.7551639953	 2.3999601299	 0.085667
H	 1.6125138074	 0.2261735728	 1.3831318105	 0.080328
H	 1.661998842	-1.0429969548	-1.3913226901	 0.079231
57.9503	87.7053	176.0807	201.723	223.5909	244.2705	306.5465	384.2871	465.5115	504.926	639.0181	715.9142	770.4404	822.9421	827.8043	884.059	940.8218	950.9169	980.9346	1010.4942	1037.3323	1070.9146	1098.4191	1126.2593	1149.5487	1156.9149	1193.0974	1218.9171	1222.2964	1237.9844	1261.8707	1278.2589	1282.3657	1288.1603	1313.3668	1351.954	1404.277	1455.7052	1464.7992	1488.84	1491.2908	1501.4576	1826.814	2874.635	2932.8192	2976.2264	3043.4495	3056.1812	3059.2484	3075.7035	3098.8967	3110.8889	3126.9597	3138.2927
CN1C2CCC2C1C=O	CN1[C@H]2CC[C@H]2[C@H]1C=O	
InChI=1S/C7H11NO/c1-8-6-3-2-5(6)7(8)4-9/h4-7H,2-3H2,1H3	InChI=1S/C7H11NO/c1-8-6-3-2-5(6)7(8)4-9/h4-7H,2-3H2,1H3/t5-,6+,7-/m1/s1
