18
gdb 105429	2.34172	1.46591	1.16356	3.9192	76.44	-0.2425	0.0106	0.2532	1125.0169	0.148593	-398.156561	-398.147809	-398.146865	-398.190023	32.387	
C	-0.0055505652	 1.5722612599	 0.0799178978	-0.410549
C	-0.036288309	 0.0522854254	-0.0934822419	-0.218082
C	 0.779084262	-0.4872560378	-1.2935057531	 0.113703
C	 0.5746550495	-2.0415321288	-1.4741774089	-0.205491
N	-0.3914871277	-2.1981057645	-2.5667019876	-0.239879
C	-0.5013893827	-1.0507185154	-3.1100409282	 0.06484
N	 0.2690897121	-0.0193324075	-2.5933524662	-0.315733
C	 2.1986692202	-0.1378931596	-1.1358595784	 0.278392
N	 3.3110863446	 0.1320977342	-0.9759991865	-0.348704
H	 1.0182238251	 1.9368614362	 0.2063492459	 0.150419
H	-0.4485112644	 2.0943098428	-0.7757709054	 0.110941
H	-0.5797366895	 1.865405748	 0.9630903007	 0.130784
H	 0.351292943	-0.4303039571	 0.8109623757	 0.123471
H	-1.0655513307	-0.3003668798	-0.2265209511	 0.120125
H	 1.5155140445	-2.5343373728	-1.741023928	 0.136925
H	 0.2068234753	-2.4986480761	-0.5510825883	 0.123841
H	-1.1299703341	-0.8508445318	-3.9730004535	 0.134874
H	-0.053200113	 0.9341819347	-2.670053133	 0.250122
90.6704	114.8304	163.8127	173.569	229.9258	264.1508	364.5089	396.7331	485.3027	519.2539	534.7912	571.0959	640.4775	788.643	801.0099	862.8292	906.2221	952.1073	983.4029	1002.077	1013.5814	1036.7072	1099.2664	1120.9684	1146.9456	1196.517	1247.3351	1308.8162	1329.509	1345.3112	1359.3556	1409.2179	1423.6039	1478.739	1492.2413	1501.0508	1504.6668	1697.0246	2354.1707	3035.2692	3037.9512	3048.0689	3076.9881	3091.099	3103.2627	3120.4664	3188.7418	3612.3908
CCC1(CN=CN1)C#N	CC[C@]1(C[N][CH]N1)C#N	
InChI=1S/C6H9N3/c1-2-6(3-7)4-8-5-9-6/h5H,2,4H2,1H3,(H,8,9)	InChI=1S/C6H9N3/c1-2-6(3-7)4-8-5-9-6/h5H,2,4H2,1H3,(H,8,9)/t6-/m1/s1
