20
gdb 105816	2.44166	1.52458	1.24737	1.2216	78.9	-0.2062	0.073	0.2792	1115.4873	0.169197	-403.038157	-403.029085	-403.028141	-403.0722	33.993	
C	 0.2214236378	 1.3045251201	-0.1760299131	-0.255269
O	-0.1172550283	-0.0439839074	 0.1084195734	-0.274542
C	 0.5699017876	-0.5557168619	 1.1885072825	 0.414872
C	 1.9880892441	-1.0613157846	 1.106464452	-0.078554
C	 3.2452051034	-0.6748416787	 1.8807039099	-0.394061
C	 0.8545426134	-2.0165877834	 1.4801463669	-0.189154
C	 0.2685832973	-1.8190572308	 2.9050768041	-0.047443
N	 1.0356156961	-0.7675761915	 3.6264992997	-0.338331
C	-0.0063287776	-0.3963685045	 2.6359695821	-0.140258
H	 1.2846909713	 1.4035839122	-0.4338432573	 0.11379
H	-0.3877061971	 1.614180668	-1.028233582	 0.125316
H	 0.0069368426	 1.9661218482	 0.6753636009	 0.109653
H	 2.1895750414	-1.2306585367	 0.0478387511	 0.095834
H	 3.5313896041	-1.4488956783	 2.5958781253	 0.123815
H	 4.0773220117	-0.5360899664	 1.1811888077	 0.092961
H	 3.1123876514	 0.2477081625	 2.445598347	 0.1279
H	 0.6197797613	-2.8810287664	 0.8720968646	 0.096057
H	-0.3190798159	-2.5509934874	 3.443280204	 0.094844
H	 0.6116644438	-0.6736295334	 4.5504467704	 0.227257
H	-0.8629083687	 0.2130770003	 2.8934802607	 0.095314
64.4921	85.5888	156.9249	173.1187	207.6389	264.9569	351.0509	372.7161	415.6578	491.0355	593.0547	690.8668	712.6656	765.5187	813.9282	828.0974	859.3442	905.3591	922.7256	957.9066	1002.2221	1028.7245	1052.7922	1064.1122	1093.93	1105.8868	1117.9376	1131.2105	1180.1566	1196.8782	1214.1703	1233.2731	1281.7892	1309.7062	1336.7782	1359.652	1418.9096	1445.418	1484.3635	1486.7073	1488.9385	1496.3794	1506.3057	2992.6836	3036.9806	3047.1322	3099.35	3115.0295	3120.817	3143.3403	3188.9366	3195.7112	3206.0855	3454.1416
COC12C(C)C1C1NC21	CO[C@]12[C@@H](C)[C@H]1[C@H]1N[C@@H]21	
InChI=1S/C7H11NO/c1-3-4-5-6(8-5)7(3,4)9-2/h3-6,8H,1-2H3	InChI=1S/C7H11NO/c1-3-4-5-6(8-5)7(3,4)9-2/h3-6,8H,1-2H3/t3-,4-,5+,6+,7+/m0/s1
