15
gdb 20974	4.77636	1.69096	1.27005	3.4634	64.74	-0.2242	0.0095	0.2337	925.4039	0.11949	-395.981323	-395.97345	-395.972505	-396.014182	26.823	
C	-0.0996140205	 1.4300263654	 0.0253168884	-0.344614
N	 0.094231362	-0.0094728012	-0.0300418526	-0.176187
C	 0.0307266239	-0.7504181314	 1.217832234	-0.348474
C	 0.0231322955	-0.6375153885	-1.219877591	 0.581424
N	-0.0569559912	-0.0889756858	-2.4132910947	-0.389875
C	-0.0533146173	-1.19542275	-3.2131749226	 0.051151
N	 0.0129748192	-2.3528685006	-2.6174395073	-0.144483
O	 0.0606605872	-1.9782943277	-1.2417615262	-0.237721
H	 0.6185969141	 1.8691070228	 0.7256337028	 0.129794
H	 0.0582154502	 1.8485763943	-0.9674374054	 0.178263
H	-1.1136711581	 1.6850535089	 0.3624664539	 0.12773
H	-0.9900506368	-0.7763827036	 1.6243069097	 0.131319
H	 0.371347811	-1.7731775806	 1.0626543135	 0.169058
H	 0.6813622344	-0.2691011743	 1.9547015449	 0.133715
H	-0.1041555735	-1.1394756777	-4.2919765776	 0.138899
72.1608	96.4405	136.8782	176.0919	241.5603	297.5023	365.8844	521.6564	618.9037	627.8593	769.6487	877.6408	938.6014	945.272	977.9017	1041.3207	1093.5088	1131.973	1178.997	1206.078	1230.8653	1269.7673	1310.0684	1396.7031	1448.5862	1466.5854	1485.8947	1497.6989	1501.3979	1511.4001	1582.2384	1679.4753	3007.4437	3013.0161	3075.6495	3080.0999	3162.4983	3167.9029	3246.9417
CN(C)C1=NC=NO1	CN(C)c1ncno1	
InChI=1S/C4H7N3O/c1-7(2)4-5-3-6-8-4/h3H,1-2H3	InChI=1S/C4H7N3O/c1-7(2)4-5-3-6-8-4/h3H,1-2H3
