18
gdb 89811	3.21911	1.36514	1.13007	3.8871	71.33	-0.2452	0.0607	0.3059	1096.5579	0.148531	-439.038793	-439.03103	-439.030086	-439.070896	30.584	
O	-0.1076518134	 1.4597805075	 0.0545761783	-0.4371
C	-0.0050765378	 0.0501521459	 0.0208166627	 0.120752
C	 0.6928921907	-0.5831554491	 1.2530655593	-0.377196
C	 0.0493932123	-1.9620271832	 1.3874320203	 0.359139
C	 0.8151049459	-3.2219595215	 1.2003689436	-0.299925
N	 0.2785528448	-2.8545792403	 2.524576685	-0.364585
C	-1.3429006389	-1.8032835111	 0.8451875001	-0.017136
O	-1.9949830597	-0.6186141262	 1.3243242279	-0.257047
C	-1.3853296281	-0.5826411876	 0.0303380194	 0.029535
H	 0.779234411	 1.8284311293	-0.0037236264	 0.285468
H	 0.4991216646	-0.2812601372	-0.9026413987	 0.070658
H	 1.7808925235	-0.6270464011	 1.1516959416	 0.092391
H	 0.4430813044	 0.0302135168	 2.1238873277	 0.132599
H	 0.3473126648	-4.0917793708	 0.7457288867	 0.118923
H	 1.8846211949	-3.1403330822	 1.0222291096	 0.11081
H	 1.019551386	-2.4834505901	 3.114826712	 0.232943
H	-1.9805435047	-2.6670710508	 0.6803055519	 0.099922
H	-2.0604498703	-0.4373499286	-0.808362561	 0.099849
106.6337	175.3084	247.0211	255.78	298.0859	353.9206	413.4738	445.9846	527.122	588.2407	648.8405	794.5964	833.7811	853.6982	881.8909	902.9202	916.2863	954.7485	980.3825	986.1707	1013.2436	1057.2838	1081.9162	1109.62	1120.7404	1141.5576	1182.253	1234.0337	1254.676	1261.2449	1279.2202	1294.556	1324.7515	1353.3358	1400.4786	1436.8519	1447.3462	1481.9752	1514.5533	2960.5054	3054.716	3100.3845	3106.1729	3153.6681	3165.7146	3184.6844	3495.6029	3821.6581
OC1CC2(CN2)C2OC12	O[C@H]1C[C@]2(CN2)[C@H]2O[C@@H]12	
InChI=1S/C6H9NO2/c8-3-1-6(2-7-6)5-4(3)9-5/h3-5,7-8H,1-2H2	InChI=1S/C6H9NO2/c8-3-1-6(2-7-6)5-4(3)9-5/h3-5,7-8H,1-2H2/t3-,4-,5-,6-/m0/s1
