19
gdb 31955	2.91689	1.13551	0.86751	1.2238	80.6	-0.1858	0.0372	0.223	1372.8188	0.158325	-423.054764	-423.045336	-423.044391	-423.090822	33.485	
C	-0.3113949265	 1.4945420264	-0.2455846923	-0.369257
C	 0.0976668294	 0.0232805002	-0.0539308957	-0.29039
C	 0.9068751125	-0.5273675857	-1.1741823237	 0.353428
C	 2.172447661	-1.0017745837	-1.2937842489	-0.264888
C	 2.3612259961	-1.4043659058	-2.6611282206	-0.309909
C	 1.1804444922	-1.1319537912	-3.2753396899	 0.432983
O	 0.8169112312	-1.274676057	-4.5551162566	-0.269222
C	-0.5747303533	-1.1800819417	-4.8491760302	-0.245525
O	 0.2823499239	-0.6025339774	-2.4091016189	-0.229387
H	 0.5708616611	 2.1365543941	-0.3273275353	 0.121028
H	-0.9010986573	 1.6174101551	-1.1585393364	 0.125375
H	-0.914569871	 1.8439211199	 0.5981573822	 0.110219
H	 0.6890483686	-0.0846023773	 0.8614038871	 0.112824
H	-0.8063850821	-0.5849074038	 0.0878331591	 0.109611
H	 2.8966335837	-1.0682727228	-0.4960679003	 0.104083
H	 3.2361177782	-1.8328754538	-3.1197918664	 0.107583
H	-0.6650307945	-1.376334263	-5.9180737646	 0.136419
H	-1.1506402717	-1.9224197219	-4.2855751267	 0.129937
H	-0.9621225515	-0.1820788406	-4.621818652	 0.135088
16.7062	67.951	127.7756	163.0297	181.1937	231.5975	294.1184	336.2023	402.537	514.4816	596.0884	654.0852	673.1829	714.8557	758.4992	785.5181	821.0499	943.9222	974.0195	990.1147	1024.104	1060.8415	1080.594	1093.4908	1177.0952	1201.2963	1222.7164	1229.8952	1293.1183	1305.7205	1359.9789	1395.6214	1407.5497	1471.761	1479.5248	1485.9409	1495.892	1503.2575	1506.165	1631.011	1670.8793	3011.4526	3029.9685	3039.1628	3073.8417	3097.3135	3110.4429	3118.2407	3147.0242	3248.3419	3277.4477
CCC1=CC=C(OC)O1	CCc1ccc(OC)o1	
InChI=1S/C7H10O2/c1-3-6-4-5-7(8-2)9-6/h4-5H,3H2,1-2H3	InChI=1S/C7H10O2/c1-3-6-4-5-7(8-2)9-6/h4-5H,3H2,1-2H3
