19
gdb 100476	5.04596	0.57669	0.54086	2.5768	83.69	-0.2565	0.0118	0.2683	2049.8146	0.156456	-422.968776	-422.958429	-422.957484	-423.006426	35.908	
C	 0.0225980074	 1.5680077798	 0.0874027854	-0.386812
C	-0.0244787272	 0.0424471438	-0.0081412747	-0.17168
C	 0.701995522	-0.4884346942	-1.2609852432	-0.05136
O	 2.0661470388	-0.0729451056	-1.3035495757	-0.413534
C	 0.5792784397	-1.9453610992	-1.3668650025	 0.060935
C	 0.506046222	-3.1477250004	-1.4176795752	 0.123115
C	 0.4146348116	-4.581734384	-1.4582226874	-0.120801
C	-0.2517540526	-5.2851211696	-2.5735091039	-0.158506
O	 1.164748882	-5.2695386741	-2.4740763351	-0.211611
H	 1.0562745553	 1.92211362	 0.0723891316	 0.133642
H	-0.5018959965	 2.0321103717	-0.7552288765	 0.115546
H	-0.4511995408	 1.9173045482	 1.0093033687	 0.111336
H	 0.4395901169	-0.4129073985	 0.8761058568	 0.097096
H	-1.0609885926	-0.3135556861	-0.0325897985	 0.10707
H	 0.2483679527	-0.0254792704	-2.1470901477	 0.116082
H	 2.5521356325	-0.6156213759	-0.6724354085	 0.28478
H	 0.433870424	-5.081396835	-0.4901970275	 0.117384
H	-0.7310679731	-6.2443935914	-2.3815686873	 0.120636
H	-0.673433292	-4.6981815994	-3.3870524488	 0.126683
12.6083	72.5182	78.7329	133.4093	170.9382	208.5066	229.4674	278.9369	300.9081	400.2433	491.6299	511.6077	520.0429	591.0894	746.9361	786.1734	836.0478	864.5869	919.9956	977.0933	996.8387	1059.5058	1081.8194	1106.8881	1112.6025	1151.4446	1159.9599	1182.0698	1252.6422	1280.5234	1293.1391	1326.9851	1372.677	1404.4819	1406.744	1420.9248	1480.4473	1494.0744	1509.159	1517.9039	2355.7546	3021.724	3032.3459	3038.86	3069.1468	3085.2981	3104.8255	3114.14	3127.5583	3179.6806	3804.4136
CCC(O)C#CC1CO1	CC[C@@H](O)C#C[C@H]1CO1	
InChI=1S/C7H10O2/c1-2-6(8)3-4-7-5-9-7/h6-8H,2,5H2,1H3	InChI=1S/C7H10O2/c1-2-6(8)3-4-7-5-9-7/h6-8H,2,5H2,1H3/t6-,7+/m1/s1
