21
gdb 72430	2.47607	1.95211	1.64395	1.4871	80.48	-0.2392	0.0865	0.3256	955.9686	0.185262	-387.085459	-387.078326	-387.077382	-387.116283	30.828	
C	 0.0039116771	 1.4583652676	 0.1113246242	-0.479387
C	-0.0135333417	-0.0479442358	-0.0227779703	 0.411088
C	 0.6779750533	-0.7068172937	-1.2374125222	-0.246697
C	 0.4499812091	-2.1318353084	-0.6693513686	-0.061338
C	 1.1303141327	-1.9425388572	 0.6899132045	-0.094358
O	 0.7213824312	-0.6198181528	 1.0863544607	-0.312553
C	-1.0884074562	-2.1366056212	-0.4984889943	-0.048015
C	-1.7241808625	-1.8320751773	 0.8405915015	-0.307811
C	-1.4155913947	-0.7060082444	-0.1056335973	-0.053616
H	 1.0307887379	 1.8340784191	 0.1058169687	 0.12036
H	-0.5438410088	 1.9244818267	-0.7134547764	 0.113079
H	-0.4660352989	 1.7634278996	 1.0510235508	 0.12825
H	 0.1450347646	-0.5316884474	-2.1751567388	 0.093691
H	 1.7304145695	-0.4235234275	-1.3453635366	 0.091026
H	 0.8406098478	-2.9671540565	-1.2512599829	 0.064298
H	 0.8123780993	-2.6710728886	 1.443522626	 0.099376
H	 2.225053702	-1.9838515527	 0.6077133542	 0.091727
H	-1.67522548	-2.6715101407	-1.2369562373	 0.081454
H	-2.7689505898	-2.1092486513	 0.9421227268	 0.10313
H	-1.1548515567	-1.9045585457	 1.7582096303	 0.130986
H	-2.2202638552	-0.1398781418	-0.5634139231	 0.075311
218.3035	247.395	271.4617	323.6187	360.0163	432.0361	488.386	552.3689	589.5179	618.3987	743.4409	777.5654	793.8028	805.7162	859.5147	886.081	915.6821	929.2223	937.8092	984.0811	988.631	1009.0955	1037.306	1039.1571	1077.3207	1099.6195	1103.1998	1115.984	1139.2291	1189.3741	1193.906	1220.5984	1223.2061	1257.8854	1282.4849	1309.3129	1336.3357	1371.0213	1384.0801	1414.6621	1481.3586	1483.0129	1492.6003	1497.9187	1533.536	3005.7622	3041.2894	3049.2657	3060.1252	3110.7458	3112.0774	3113.8253	3118.4657	3137.715	3155.5979	3169.1108	3231.2763
CC12CC(CO1)C1CC21	C[C@@]12C[C@@H](CO1)[C@H]1C[C@@H]21	
InChI=1S/C8H12O/c1-8-3-5(4-9-8)6-2-7(6)8/h5-7H,2-4H2,1H3	InChI=1S/C8H12O/c1-8-3-5(4-9-8)6-2-7(6)8/h5-7H,2-4H2,1H3/t5-,6+,7+,8-/m0/s1
