15
gdb 93329	2.25545	1.74877	1.11733	5.8202	65.93	-0.2654	0.0072	0.2726	1046.8992	0.113796	-453.996561	-453.988425	-453.987481	-454.029568	29.811	
O	 0.0558578489	 1.438995902	 0.1993514797	-0.425042
C	 0.0494599323	 0.0371650603	 0.0697638238	 0.111212
C	 0.5979398117	-0.5384341872	 1.3899127576	-0.177706
N	-0.5946554969	-0.7250273488	 2.1951569715	-0.318193
C	-1.7786346829	-0.6987543966	 1.5234922531	 0.445109
O	-2.8893402015	-0.8132225541	 1.9764496268	-0.35961
C	-1.3942569503	-0.5389165899	 0.0235990813	-0.320096
C	-2.3077582064	 0.2930200407	-0.739402623	 0.289815
N	-2.9685848197	 0.9975581823	-1.3740062596	-0.323852
H	-0.4512538619	 1.8236104163	-0.5264808975	 0.305344
H	 0.6419938333	-0.29263089	-0.7925144544	 0.094093
H	 1.1310875946	-1.4829367047	 1.2202976552	 0.116066
H	 1.2873803897	 0.1797351001	 1.8404879068	 0.14372
H	-0.5810193531	-0.8582424016	 3.1935058143	 0.265607
H	-1.3829734075	-1.546514589	-0.4108972156	 0.153534
75.0591	136.3612	161.925	180.3548	358.0411	382.9086	388.9724	420.9756	471.0213	531.4582	555.1064	656.3833	716.9201	765.5983	843.2155	897.5325	958.5632	990.8637	1047.976	1072.923	1136.9672	1195.7652	1231.425	1251.0389	1260.0884	1308.1235	1346.445	1373.7958	1418.1906	1453.6197	1520.3514	1853.907	2361.0985	3016.0723	3030.9804	3046.1518	3100.6839	3650.9444	3783.0268
OC1CNC(=O)C1C#N	O[C@H]1CNC(=O)[C@H]1C#N	
InChI=1S/C5H6N2O2/c6-1-3-4(8)2-7-5(3)9/h3-4,8H,2H2,(H,7,9)	InChI=1S/C5H6N2O2/c6-1-3-4(8)2-7-5(3)9/h3-4,8H,2H2,(H,7,9)/t3-,4-/m0/s1
