16
gdb 123570	3.97958	1.64424	1.28285	5.3743	73.5	-0.2471	0.0069	0.254	950.2864	0.128493	-396.920351	-396.91415	-396.913206	-396.950891	25.086	
C	-0.0419874397	 1.4675475897	 0.1017651856	-0.295804
C	 1.2989420112	 0.7726679805	 0.0096693378	-0.046448
C	 2.0540094135	 0.445478828	 1.3123889752	-0.379037
C	 1.0899013328	-0.4538525287	 2.0349845102	 0.329558
C	 0.8071497427	-1.1395680831	 3.1930272826	-0.208823
N	-0.3920669078	-1.7753109882	 3.0337971392	-0.192898
N	-0.8804671834	-1.5063882431	 1.8470791317	-0.180144
N	 0.0220707116	-0.7207836612	 1.2455513228	 0.079248
C	 0.0138896108	-0.0337351028	-0.0158914777	 0.000539
H	-0.360903097	 1.8833977356	 1.051832404	 0.136483
H	-0.3699600625	 2.0203418549	-0.771600874	 0.129965
H	 1.8771076285	 0.9039983883	-0.896371063	 0.108061
H	 2.9979969654	-0.0667132773	 1.0955053598	 0.133369
H	 2.3015265451	 1.3455157403	 1.8846393415	 0.135308
H	 1.3712939345	-1.2290291011	 4.1067856613	 0.121501
H	-0.3710315955	-0.5794531417	-0.866401217	 0.12912
135.0702	232.445	326.226	414.4921	446.7721	602.0134	683.9785	707.8018	725.6847	770.137	805.5034	809.995	838.8891	893.49	978.7662	998.9182	1007.8426	1055.7396	1069.4338	1082.0749	1098.901	1125.3841	1162.8356	1188.3055	1203.1139	1242.8101	1263.6925	1286.7617	1321.445	1349.2224	1397.3517	1459.6012	1483.4086	1493.3215	1581.0851	3043.8536	3077.5283	3134.7117	3190.4945	3212.98	3227.0023	3272.7767
C1C2CC3=CN=NN3C12	C1[C@H]2Cc3cnnn3[C@@H]12	
InChI=1S/C6H7N3/c1-4-2-6(4)9-5(1)3-7-8-9/h3-4,6H,1-2H2	InChI=1S/C6H7N3/c1-4-2-6(4)9-5(1)3-7-8-9/h3-4,6H,1-2H2/t4-,6+/m1/s1
