19
gdb 22498	3.01402	0.8309	0.72954	6.8626	79.82	-0.233	-0.0738	0.1593	1598.0032	0.157615	-456.283386	-456.273383	-456.272439	-456.319398	34.752	
C	-0.161883623	 1.4031889356	-0.2144079993	-0.390361
C	-0.3374391973	-0.1090987121	-0.2930591743	-0.119018
N	-1.1417134098	-0.6060923816	 0.8286763023	-0.301797
H	-0.7107595493	-0.3332301716	 1.7042491954	 0.229709
H	-3.1876661267	-0.5722875432	 0.2894366304	 0.261693
C	-1.3684900803	-2.0507637334	 0.8146135914	-0.260666
C	-2.5889618903	-2.4114832138	-0.0125932557	 0.187287
C	-2.7445242652	-3.7464760818	-0.5801404922	 0.088622
O	-3.6967846641	-4.1685569551	-1.1978635362	-0.264225
N	-3.4980262854	-1.4596168911	-0.1545188823	 0.076968
O	-4.5962500094	-1.4723363767	-0.739083937	-0.39955
H	 0.4288581494	 1.7653805825	-1.060283048	 0.127839
H	-1.1307890088	 1.9105204417	-0.225617026	 0.130735
H	 0.3614320705	 1.6935005918	 0.7039741659	 0.117049
H	-0.8561342205	-0.3778877044	-1.220682391	 0.121658
H	 0.6488247233	-0.6034404321	-0.3328995939	 0.094784
H	-0.5029162392	-2.6161565504	 0.4292766681	 0.11023
H	-1.5089387902	-2.3812664629	 1.8525828436	 0.125737
H	-1.8518311939	-4.3886351814	-0.390776871	 0.063309
48.263	68.5632	95.5677	164.695	209.6315	231.0742	260.3493	273.2488	293.2178	354.6835	414.0162	502.4756	533.9831	684.8644	787.0552	826.1929	885.0412	938.2806	974.0666	1019.8238	1036.5253	1061.5401	1121.4973	1147.1429	1163.4588	1207.8861	1282.3622	1294.711	1370.9266	1386.2541	1416.8155	1431.7909	1444.2693	1479.9027	1488.1914	1496.7726	1500.1806	1504.0578	1524.013	1640.2679	1786.4601	2844.908	2954.5014	2957.5152	3021.5776	3035.7448	3054.7301	3104.2987	3123.1589	3198.2144	3540.0988
CC[NH2+]CC(C=O)=N[O-]	CCNC[C](C=O)N[O]	
InChI=1S/C5H10N2O2/c1-2-6-3-5(4-8)7-9/h4,6,9H,2-3H2,1H3	InChI=1S/C5H10N2O2/c1-2-6-3-5(4-8)7-9/h4,6-7H,2-3H2,1H3
