13
gdb 29171	3.09837	1.4927	1.00738	2.1783	67.59	-0.2049	-0.057	0.148	1068.0156	0.089788	-489.909476	-489.902065	-489.901121	-489.941393	28.354	
O	 0.0415513776	 1.3543172817	 0.2820966003	-0.427785
C	-0.0154827551	 0.0246648967	 0.0279006044	 0.334948
C	-1.1820190385	-0.6177264401	-0.136722747	-0.068071
O	-1.1989963696	-1.9687639666	-0.3935247832	-0.226038
C	-0.0433564931	-2.6918274112	-0.4881431073	 0.336884
N	-0.0156569048	-3.9376831852	-0.7232918503	-0.513675
C	 1.1857674312	-1.8937041105	-0.2917179759	 0.374537
O	 2.3226995382	-2.582426091	-0.3805701448	-0.366639
N	 1.1970785701	-0.6301720633	-0.0517481356	-0.426919
H	 0.9774928302	 1.5759728362	 0.3585675847	 0.300849
H	-2.1665180531	-0.1806251098	-0.0899920932	 0.143879
H	-0.9643612237	-4.3018853074	-0.8271591556	 0.230512
H	 3.0430686506	-1.9513878996	-0.2344862566	 0.307516
85.5147	217.5175	293.1749	327.0376	352.7149	368.4726	423.7368	482.0268	540.3503	587.6176	595.8314	650.2093	683.7896	765.3116	787.5755	823.3191	871.9626	1003.5108	1017.9894	1176.5649	1206.3021	1244.2189	1273.0293	1343.727	1421.7965	1462.3707	1650.562	1705.1542	1747.5183	3264.4094	3479.3638	3754.4172	3805.4123
OC1=COC(=N)C(O)=N1	OC1=COC(=C(O)[N]1)[NH]	
InChI=1S/C4H4N2O3/c5-3-4(8)6-2(7)1-9-3/h1,5,7H,(H,6,8)	InChI=1S/C4H4N2O3/c5-3-4(8)6-2(7)1-9-3/h1,5,7H,(H,6,8)
