16
gdb 124791	3.93962	1.07653	0.87086	3.1776	66.81	-0.2233	0.0095	0.2328	1274.1973	0.125048	-471.250478	-471.241834	-471.24089	-471.284155	31.698	
C	 0.2480989053	 1.5691647942	-0.2263145956	-0.400802
C	-0.0722408683	 0.1133233451	 0.0935897164	 0.015224
O	 0.1434423094	-0.7649930061	-1.0101216972	-0.427926
C	 0.6832219069	-0.3927501702	 1.2932683478	 0.374728
N	 1.2070395444	 0.3296629913	 2.236310818	-0.279709
N	 1.7425549527	-0.5930829446	 3.1075705864	-0.298337
C	 1.5803727635	-1.9075459675	 2.7133849174	 0.458122
O	 1.9517648332	-2.9308258259	 3.2431154973	-0.419679
N	 0.8650528134	-1.7346049802	 1.5216884449	-0.390723
H	 1.309783688	 1.6871773543	-0.4680490351	 0.120781
H	-0.3504004848	 1.8973622012	-1.079221236	 0.127289
H	 0.034308767	 2.207830751	 0.6337241716	 0.149756
H	-1.1459790013	 0.0161806766	 0.3003323061	 0.121077
H	 1.0391536102	-0.6137128118	-1.3344717294	 0.286985
H	 2.23418476	-0.2880577182	 3.9288261037	 0.281056
H	 0.5991954304	-2.4776500891	 0.8986242438	 0.282158
52.8052	128.8591	167.9006	222.2523	248.4617	320.6258	353.9196	415.8219	430.286	493.6381	544.4287	563.4741	633.0831	736.4757	759.3634	778.5852	896.5765	989.6356	1006.4773	1044.8652	1085.3444	1086.7287	1139.2099	1218.7354	1265.1926	1291.7028	1347.7204	1385.7435	1406.1392	1417.313	1471.8658	1486.664	1492.7079	1636.8545	1858.9304	3029.6681	3045.7942	3118.9724	3141.0449	3687.9208	3696.9	3790.8504
CC(O)C1=NNC(=O)N1	C[C@@H](O)c1n[nH]c(=O)[nH]1	
InChI=1S/C4H7N3O2/c1-2(8)3-5-4(9)7-6-3/h2,8H,1H3,(H2,5,6,7,9)	InChI=1S/C4H7N3O2/c1-2(8)3-5-4(9)7-6-3/h2,8H,1H3,(H2,5,6,7,9)/t2-/m1/s1
