18
gdb 74762	2.9866	1.49042	1.29557	1.3856	77.11	-0.2266	0.005	0.2316	1052.7915	0.147753	-401.869026	-401.861372	-401.860428	-401.900921	30.354	
C	 0.0550790334	 1.4392980235	 0.0573788757	-0.518258
C	 0.0104756505	-0.045717342	-0.0036477507	 0.372009
C	-0.0065161174	-0.9151837906	-1.0217210783	-0.207937
C	-0.0114261241	-2.2655053624	-0.2887352291	-0.086025
O	-0.9720160477	-2.0129126309	 0.7907353496	-0.27981
C	 0.0085744055	-1.0061239756	 1.2062071701	-0.125092
C	 1.0920510758	-2.0248567016	 0.775157747	 0.421108
C	 1.9201129615	-2.9749313918	 1.5256880127	-0.334514
N	 2.5202093288	-1.8775880201	 0.7098739776	-0.383365
H	 0.9570732391	 1.7840156309	 0.5786689371	 0.138744
H	 0.0524419925	 1.8818933768	-0.9424775713	 0.128711
H	-0.8017914946	 1.8417015565	 0.6121388913	 0.132783
H	 0.0009053777	-0.7460259546	-2.0886123774	 0.105273
H	-0.1607987781	-3.1994799016	-0.8296604855	 0.080808
H	-0.1196027443	-0.6252980784	 2.2186895374	 0.081096
H	 2.0614985616	-2.8694898226	 2.5977810457	 0.124535
H	 1.9890400132	-3.9961490478	 1.158464646	 0.116635
H	 2.8925537564	-2.2349615775	-0.1665200179	 0.2333
121.2827	168.5978	230.6795	232.5315	310.5242	341.9684	466.4288	562.5033	571.457	630.5321	685.5725	776.2265	817.6243	829.0471	855.0462	881.3217	900.4163	924.0911	949.795	966.3919	1004.5129	1040.1538	1056.7889	1063.1396	1124.2286	1154.543	1188.9858	1199.5951	1221.9774	1244.4162	1248.5438	1282.395	1293.3317	1412.4783	1435.5083	1478.5885	1484.9791	1524.0434	1681.6429	3018.5186	3066.1369	3105.281	3110.2207	3130.0492	3136.4717	3189.4113	3237.5947	3500.2854
CC1=CC2OC1C21CN1	CC1=C[C@@H]2O[C@H]1[C@]12CN1	
InChI=1S/C7H9NO/c1-4-2-5-7(3-8-7)6(4)9-5/h2,5-6,8H,3H2,1H3	InChI=1S/C7H9NO/c1-4-2-5-7(3-8-7)6(4)9-5/h2,5-6,8H,3H2,1H3/t5-,6+,7+/m0/s1
