19
gdb 36378	2.36614	1.44471	1.07009	2.5674	78.8	-0.2448	0.0215	0.2663	1170.3085	0.159281	-382.029344	-382.020457	-382.019513	-382.06376	32.679	
N	-0.7584411854	 0.8758535292	-1.6337461523	-0.328623
C	-0.2527164843	 0.9784579694	-0.5991493917	 0.2666
C	 0.4381265113	 1.0698796479	 0.7003440878	-0.264946
N	 1.5425553042	 2.0139890695	 0.830622652	-0.102855
C	 2.138463249	 2.6384834481	-0.3461725328	-0.267282
C	 1.3489760019	 3.4582534006	 0.6204799521	-0.003015
C	 0.024244073	 4.0852473092	 0.3044116749	-0.026184
C	-0.0066162047	 5.4253596653	-0.3992064629	-0.276943
C	-0.5553064014	 4.2048916808	-1.0842862669	-0.245215
H	-0.3059530626	 1.2855850115	 1.4747961592	 0.155595
H	 0.8322817889	 0.069207992	 0.9152068148	 0.160272
H	 3.2243862257	 2.6829833312	-0.3514897158	 0.11993
H	 1.6880411034	 2.4310735669	-1.3138044138	 0.138143
H	 1.9213169977	 4.0290496705	 1.352190273	 0.099958
H	-0.7025555621	 3.9795682502	 1.1077231963	 0.090857
H	-0.6950469492	 6.1797374038	-0.0353388761	 0.114806
H	 0.9389405894	 5.8186665684	-0.7577840881	 0.116457
H	 0.0030144771	 3.7926306238	-1.9148952118	 0.129459
H	-1.629389992	 4.1016793816	-1.1871755578	 0.122986
42.7254	87.3816	124.4509	163.7518	242.3149	290.921	363.0549	371.2508	467.1801	526.1221	591.2876	721.283	763.4079	804.9614	840.0387	877.017	898.1074	922.5126	939.7105	991.9864	1044.703	1059.32	1069.5541	1089.7051	1105.4425	1134.2068	1138.4353	1171.4414	1185.9599	1197.1388	1236.9388	1286.2931	1331.9232	1365.3731	1393.3154	1417.0257	1461.6455	1467.9511	1504.2409	1506.2996	2347.5718	3037.9278	3077.6786	3096.9037	3105.1004	3119.8269	3134.0045	3153.9359	3189.7301	3216.3332	3241.0583
N#CCN1CC1C1CC1	N#CCN1C[C@H]1C1CC1	
InChI=1S/C7H10N2/c8-3-4-9-5-7(9)6-1-2-6/h6-7H,1-2,4-5H2	InChI=1S/C7H10N2/c8-3-4-9-5-7(9)6-1-2-6/h6-7H,1-2,4-5H2/t7-,9?/m0/s1
