14
gdb 43610	2.39203	1.39389	1.01808	3.2247	75.35	-0.2567	0.	0.2567	1145.496	0.097651	-399.490418	-399.481667	-399.480723	-399.524168	32.49	
O	 0.0368247756	-0.0619131989	 0.0018220199	-0.348977
C	-0.0298737246	 1.1345336307	 0.0106497587	 0.445193
C	-1.1639967148	 2.1830270839	 0.0290785044	-0.431556
C	-0.0076833742	 3.2661139572	 0.0253773976	-0.023569
N	 0.9268734019	 2.1223990844	 0.0078298349	-0.336733
C	 0.046315603	 4.0983775957	-1.1761529969	 0.29795
C	 0.0897158401	 4.7703422704	-2.1705851725	-0.43935
C	 0.0703800696	 4.0808836091	 1.237524274	 0.298036
C	 0.1338332741	 4.7382846833	 2.2405765404	-0.439448
H	-1.7904928465	 2.1974704328	-0.8623284528	 0.150508
H	-1.7732647193	 2.1848738645	 0.9324515029	 0.150511
H	 1.9366210183	 2.103110294	-0.0018517151	 0.261616
H	 0.1293844093	 5.3685789492	-3.0476190695	 0.207906
H	 0.1912864275	 5.3235194536	 3.1253640139	 0.207914
46.3621	124.5254	164.6647	183.4717	255.6969	370.0706	438.0585	455.6324	498.7364	517.4039	559.9619	573.7041	596.9493	643.6014	645.6071	661.7162	662.9879	785.8241	897.1676	948.9159	978.153	1062.7057	1083.5798	1184.5843	1215.7786	1233.6284	1353.3284	1448.7435	1908.1302	2239.9218	2242.2432	3103.4239	3172.0294	3498.5979	3499.2427	3608.8834
O=C1CC(N1)(C#C)C#C	O=C1CC(N1)(C#C)C#C	
InChI=1S/C7H5NO/c1-3-7(4-2)5-6(9)8-7/h1-2H,5H2,(H,8,9)	InChI=1S/C7H5NO/c1-3-7(4-2)5-6(9)8-7/h1-2H,5H2,(H,8,9)
