23
gdb 120652	4.32373	0.73704	0.69443	1.5872	87.12	-0.2199	0.082	0.3019	1741.0526	0.204631	-388.263128	-388.253251	-388.252307	-388.298776	36.271	
C	 0.0849621891	 1.5810134238	 0.3261076855	-0.381889
C	-0.006145975	 0.0529569453	 0.3175023795	-0.151387
C	-1.3116668066	-0.4693135153	-0.297755125	-0.196447
C	-1.4086602985	-1.9802597037	-0.301215377	-0.086027
C	-1.8666128287	-2.7392067547	 0.9435932456	-0.363176
C	-2.7245718204	-2.6857667838	-0.2789784499	 0.448053
C	-4.1426373948	-2.1541516804	-0.4677206275	-0.355887
C	-4.3379610946	-3.4390587898	-1.3013545448	-0.072078
O	-2.9698060924	-3.8485322965	-1.0758240499	-0.308199
H	 1.0271152105	 1.9230680798	 0.765737293	 0.111477
H	 0.0248695214	 1.9877817966	-0.6896585889	 0.112956
H	-0.7325830651	 2.0236844485	 0.9064424826	 0.111859
H	 0.8439075837	-0.3634566411	-0.2385987801	 0.095524
H	 0.085094933	-0.3308757462	 1.341290541	 0.099263
H	-2.1637056986	-0.0505446877	 0.255583891	 0.088887
H	-1.4039001724	-0.0920233145	-1.3260403264	 0.094152
H	-0.6443065431	-2.4901807838	-0.8845195861	 0.092227
H	-1.3826077929	-3.6832365191	 1.1702531941	 0.119404
H	-2.1738511618	-2.1634836996	 1.8128048719	 0.10667
H	-4.7455941919	-2.08615121	 0.439789871	 0.11209
H	-4.2216894193	-1.2189412208	-1.025919736	 0.113546
H	-5.0510200682	-4.1648031801	-0.8935719513	 0.104426
H	-4.5465705734	-3.2900698569	-2.3669483422	 0.104554
62.2599	79.4303	87.3488	105.0235	202.3722	241.6222	260.3679	297.9561	360.6576	446.9363	483.2123	597.0659	744.1432	791.4732	832.3701	846.3741	871.4206	880.5562	893.406	916.6234	949.0023	972.1663	1020.6623	1033.8836	1045.2344	1057.9547	1100.8794	1125.709	1131.7826	1164.4637	1180.6125	1202.975	1213.7735	1245.3054	1266.9136	1298.119	1329.0024	1331.8304	1364.9054	1387.9474	1409.2183	1420.806	1479.8617	1485.6349	1492.205	1494.3796	1498.8563	1510.7969	1533.1519	3001.1791	3020.8929	3023.3841	3027.9393	3030.842	3057.5762	3064.8307	3071.8483	3094.3369	3100.758	3116.4898	3124.4578	3129.9354	3209.5233
CCCC1CC11CCO1	CCC[C@H]1C[C@]21CCO2	
InChI=1S/C8H14O/c1-2-3-7-6-8(7)4-5-9-8/h7H,2-6H2,1H3	InChI=1S/C8H14O/c1-2-3-7-6-8(7)4-5-9-8/h7H,2-6H2,1H3/t7-,8-/m0/s1
