15
gdb 60774	2.29372	1.25567	0.91393	3.0038	64.64	-0.2635	-0.075	0.1886	1233.4522	0.108079	-494.917883	-494.908409	-494.907465	-494.953645	32.135	
O	 0.0015353712	 1.3687474187	-0.3663795368	-0.402339
C	 0.0246924337	 0.0461618074	 0.0307425978	-0.04655
C	 1.0582628489	-0.7482769448	-0.7730646394	 0.113924
O	 1.7577740473	-0.1786922003	-1.5735651679	-0.249045
C	 0.3178778363	-0.1054308675	 1.5481622836	 0.333926
O	 0.7287775043	 0.8058452701	 2.2113340555	-0.267505
C	 0.0731202162	-1.5029602765	 2.1418398715	-0.37838
C	 1.4185037176	-2.1877544616	 2.3374397853	 0.151884
O	 1.8358080695	-3.0493567551	 1.6074938168	-0.224302
H	 0.7515724144	 1.4783806789	-0.973701106	 0.302647
H	-0.9530714541	-0.439651198	-0.1419386922	 0.119472
H	 1.1372881186	-1.8327923533	-0.5827313189	 0.140016
H	-0.406977815	-1.3614755083	 3.1144958503	 0.15574
H	-0.5503385384	-2.1225169393	 1.4939688495	 0.133105
H	 2.0141833794	-1.8038106702	 3.1902015108	 0.117408
52.8995	57.1384	89.1569	111.3425	213.0245	222.0303	322.6476	328.2211	377.7195	443.4637	488.7396	583.9204	634.8028	744.4841	793.3963	872.7315	904.8571	944.1823	993.9195	1060.6036	1080.8168	1175.4082	1205.56	1215.3105	1263.1648	1336.486	1404.6559	1411.2812	1426.4243	1463.4401	1796.7892	1809.9377	1849.4424	2934.5745	2951.4944	2995.6827	3064.9726	3135.7182	3680.8122
OC(C=O)C(=O)CC=O	O[C@@H](C=O)C(=O)CC=O	
InChI=1S/C5H6O4/c6-2-1-4(8)5(9)3-7/h2-3,5,9H,1H2	InChI=1S/C5H6O4/c6-2-1-4(8)5(9)3-7/h2-3,5,9H,1H2/t5-/m0/s1
