19
gdb 120713	2.67837	1.20784	0.90962	3.6492	73.21	-0.2432	0.0362	0.2794	1293.6166	0.158311	-456.338322	-456.328526	-456.327582	-456.37368	34.965	
C	 0.6006401739	 0.4718054578	 0.5656825121	-0.231731
O	 0.1064795854	 0.3178149712	-0.7543355563	-0.238564
C	 0.8280302444	-0.5818590464	-1.5602987966	-0.087574
C	 0.4874005665	-2.0405250233	-1.2780716412	-0.016984
C	 1.1408261528	-3.1330593683	-2.0697442734	-0.270471
N	 1.3879939496	-2.9895713904	-0.6441632609	-0.115669
C	 2.6388840392	-2.6762782884	-0.0990057471	 0.405676
N	 3.6276039245	-3.5581915754	-0.4808925724	-0.528921
O	 2.8343763349	-1.7480364883	 0.6591873946	-0.376393
H	 0.5884883363	-0.467734535	 1.1293414564	 0.126635
H	 1.6338664674	 0.8435469029	 0.5668679267	 0.11718
H	-0.0499183123	 1.2025104534	 1.052964441	 0.113205
H	 0.5179951926	-0.3605102031	-2.5886410644	 0.108698
H	 1.9128272097	-0.4173259662	-1.4864636128	 0.108332
H	-0.5545982674	-2.1771394786	-0.9935174678	 0.110271
H	 0.5732493726	-4.0070003502	-2.379836287	 0.122494
H	 1.9436101341	-2.8434514825	-2.7458231975	 0.129804
H	 3.3518172845	-4.4664641307	-0.8190542288	 0.259909
H	 4.4515525313	-3.5353020185	 0.0993025655	 0.264103
57.8463	75.1254	108.7985	146.1781	173.1967	223.7551	283.301	360.2122	379.7399	449.9298	475.8092	486.287	535.3381	626.3775	718.6914	784.8684	827.9661	940.9129	944.5707	1024.6657	1032.2833	1081.9484	1114.7028	1127.428	1138.7945	1149.3902	1177.4063	1188.0052	1228.2489	1283.0992	1307.9096	1370.0968	1396.8874	1436.9249	1470.7184	1484.4943	1486.771	1501.8697	1514.7689	1617.0147	1796.0504	3001.0886	3011.1758	3058.4115	3074.5477	3094.7023	3117.4379	3128.6064	3181.5132	3586.4644	3708.3512
COCC1CN1C(N)=O	COC[C@H]1CN1C(=O)N	
InChI=1S/C5H10N2O2/c1-9-3-4-2-7(4)5(6)8/h4H,2-3H2,1H3,(H2,6,8)	InChI=1S/C5H10N2O2/c1-9-3-4-2-7(4)5(6)8/h4H,2-3H2,1H3,(H2,6,8)/t4-,7?/m1/s1
