27
gdb 101821	3.8045	0.59131	0.53503	1.4023	93.56	-0.2613	0.0714	0.3328	2209.3268	0.249335	-390.710149	-390.698045	-390.697101	-390.748082	44.032	
C	-0.1878439736	 1.6257173406	 0.0615435892	-0.380267
C	 0.002347181	 0.1086028543	-0.0057041219	-0.186261
C	 0.7299994357	-0.4663108292	 1.2166758384	 0.137224
O	 0.0468228993	-0.138201012	 2.4284496947	-0.427806
C	 0.9681855093	-1.9779985068	 1.0980660296	-0.215665
C	 1.7748039067	-2.555310019	 2.2665639752	-0.165713
C	 1.883843072	-4.0903501587	 2.292331245	 0.040187
C	 2.6213885195	-4.651661773	 1.0682867627	-0.37985
C	 2.5611294865	-4.556079357	 3.5886293101	-0.387192
H	 0.7782067256	 2.1427119122	 0.0657051089	 0.113188
H	-0.7595890117	 1.993403945	-0.7958557323	 0.107078
H	-0.7156281892	 1.9065252184	 0.9765678488	 0.126418
H	-0.9755600703	-0.3880074738	-0.094630299	 0.082507
H	 0.5623111336	-0.1624784139	-0.909513651	 0.094756
H	 1.7014099494	 0.0373770756	 1.3165768362	 0.083055
H	-0.8190526143	-0.5612266911	 2.393208734	 0.274232
H	-0.0098982396	-2.4812973524	 1.0372571136	 0.078494
H	 1.4716746679	-2.1770869559	 0.1444949499	 0.096169
H	 2.7871694764	-2.1252356053	 2.2532497426	 0.085977
H	 1.3134288939	-2.2121959024	 3.1993413109	 0.103587
H	 0.8609151953	-4.4960937377	 2.2840982436	 0.065368
H	 2.1126725449	-4.4070306138	 0.1310427979	 0.111298
H	 3.6403547554	-4.2492770742	 1.0100644354	 0.109183
H	 2.6999940234	-5.7425166868	 1.1249344274	 0.107994
H	 2.0253033331	-4.1923894852	 4.4716982418	 0.10935
H	 2.6033932182	-5.6489425245	 3.6460854501	 0.106108
H	 3.5903603216	-4.1817023837	 3.6479621882	 0.11058
43.4995	62.3887	95.3504	125.3378	142.165	219.5755	223.6532	236.3473	245.5449	267.3049	303.7475	322.2902	400.631	415.66	445.056	491.7694	543.0401	761.3316	780.6468	825.8886	871.5718	926.5052	931.9737	948.1784	966.5461	990.9483	1016.7666	1038.5896	1068.8378	1100.3074	1114.5133	1132.4241	1165.6612	1194.1728	1224.1906	1263.3856	1272.3003	1307.5304	1320.62	1355.0521	1367.9912	1371.3211	1387.8987	1394.7177	1400.5564	1406.9845	1420.8991	1422.3401	1472.4169	1482.2693	1489.0101	1492.493	1496.0264	1501.3076	1505.1545	1509.2948	1511.7173	2984.3597	2987.5356	2997.8137	3007.0046	3021.8382	3023.0358	3027.1755	3036.7779	3044.9603	3055.6487	3073.0837	3085.7025	3092.0545	3098.1461	3100.8064	3104.2843	3122.8173	3788.6552
CCC(O)CCC(C)C	CC[C@@H](O)CCC(C)C	
InChI=1S/C8H18O/c1-4-8(9)6-5-7(2)3/h7-9H,4-6H2,1-3H3	InChI=1S/C8H18O/c1-4-8(9)6-5-7(2)3/h7-9H,4-6H2,1-3H3/t8-/m1/s1
