18
gdb 92387	2.20052	1.64727	1.2688	2.7847	77.24	-0.2399	0.0054	0.2453	1069.4799	0.148931	-398.091761	-398.083521	-398.082577	-398.124419	31.583	
C	-0.7217690892	 1.310544116	 0.0958110842	-0.395411
C	 0.0094329223	-0.0041973044	-0.0741198296	 0.021225
N	 1.2091995388	 0.0330633093	-0.9661562829	-0.334694
C	 2.0339177235	-0.719922881	 0.0007006647	-0.06835
C	 2.9381569022	 0.1849957109	 0.8643788869	-0.153696
N	 1.7581827435	 0.5594072616	 1.6977812889	-0.355225
C	 0.9253524259	-0.5093987356	 1.0892681123	 0.204395
C	 0.4251544952	-1.5300749947	 1.978571511	 0.183525
N	 0.0287672015	-2.3435711431	 2.7002580875	-0.343772
H	-0.0379207698	 2.0682007214	 0.4836910936	 0.143062
H	-1.1170492095	 1.6501391119	-0.8668641279	 0.118216
H	-1.5630202943	 1.1995504868	 0.7885079278	 0.118874
H	-0.6858837624	-0.8094281601	-0.3479066637	 0.082741
H	 1.0767793518	-0.4377956459	-1.8529185251	 0.226127
H	 2.4069371518	-1.695995148	-0.3105843833	 0.094825
H	 3.7045340221	-0.3826280521	 1.4066050398	 0.104868
H	 3.3969806318	 1.0305974406	 0.3449535619	 0.117189
H	 1.8892087147	 0.4637739664	 2.6974562239	 0.2361
113.7917	130.7204	179.5119	219.9348	251.4058	352.504	379.1676	489.4385	500.951	554.2302	594.9833	615.0385	675.1792	749.791	848.056	877.7693	934.2052	969.7094	986.6967	1000.4529	1050.0239	1077.5262	1094.1458	1118.8083	1143.7287	1154.404	1187.6621	1196.2015	1255.1932	1318.1437	1333.4461	1375.7503	1385.4058	1400.7402	1412.3741	1482.2197	1496.5298	1500.7787	2340.3834	3008.2807	3023.6699	3039.5592	3095.6834	3104.6706	3107.432	3138.7473	3550.7005	3557.453
CC1NC2CNC12C#N	C[C@H]1N[C@H]2CN[C@@]12C#N	
InChI=1S/C6H9N3/c1-4-6(3-7)5(9-4)2-8-6/h4-5,8-9H,2H2,1H3	InChI=1S/C6H9N3/c1-4-6(3-7)5(9-4)2-8-6/h4-5,8-9H,2H2,1H3/t4-,5+,6+/m1/s1
