12
gdb 23756	3.43673	2.26258	1.36435	1.7196	58.81	-0.2532	-0.018	0.2351	802.6907	0.085374	-422.681099	-422.675063	-422.674119	-422.711191	23.24	
O	 0.0881106889	 1.3669793101	-0.0636547502	-0.426918
C	 0.0574955086	 0.0179152727	-0.050622733	 0.302136
C	 0.0212199289	-0.7171148651	-1.2314823778	-0.214382
C	-0.0090721582	-2.1055629359	-1.1445765912	 0.014578
N	-0.0058692146	-2.7927901264	 0.0015636495	-0.277861
C	 0.0289896332	-2.084834543	 1.1344289296	-0.085767
C	 0.0606925048	-0.7040952635	 1.1434611874	 0.116265
F	 0.0956714093	-0.0048177938	 2.2946178745	-0.09615
H	 0.1102638392	 1.6760503859	 0.8513405051	 0.309938
H	 0.0171746836	-0.2049794276	-2.1862498781	 0.118239
H	-0.0376343916	-2.6977839482	-2.0554666937	 0.114761
H	 0.0321907878	-2.6258511553	 2.0772199078	 0.125161
194.9224	287.5855	297.3153	439.5822	450.7453	480.7607	557.5795	602.7536	606.4929	757.1049	793.7876	858.0744	874.3596	939.5821	985.5697	1059.1902	1169.5636	1215.4557	1268.1666	1313.5717	1323.4444	1392.0499	1458.7018	1543.2642	1637.7234	1643.8568	3163.1539	3166.8256	3208.6349	3785.1083
OC1=CC=NC=C1F	Oc1ccncc1F	
InChI=1S/C5H4FNO/c6-4-3-7-2-1-5(4)8/h1-3H,(H,7,8)	InChI=1S/C5H4FNO/c6-4-3-7-2-1-5(4)8/h1-3H,(H,7,8)
