16
gdb 43936	3.67591	1.54263	1.34774	4.7184	68.26	-0.2408	-0.0026	0.2382	946.3098	0.126866	-437.833754	-437.827441	-437.826497	-437.864319	26.239	
O	-0.1083023646	 0.0843488557	-0.5764552554	-0.29822
C	-0.0240718221	 1.167503717	-0.1091106982	 0.363256
O	-1.0893083519	 2.0038253742	 0.3015670291	-0.32326
C	-0.14274661	 2.845169412	 1.013875307	 0.415374
C	 0.3189284827	 4.2999969185	 1.2450983607	-0.326052
C	 1.4206216844	 3.4541922149	 2.0589003045	-0.009889
C	 0.2562346367	 2.5249632311	 2.4671571387	-0.255665
N	 2.1366557475	 2.5309020561	 1.1102854147	-0.341837
C	 1.0053343608	 2.2962140919	 0.2043211927	-0.12492
H	 0.6284164626	 4.8838677475	 0.3759056781	 0.107078
H	-0.2881197691	 4.8952767073	 1.9284326915	 0.118297
H	 2.0683571893	 3.9393037091	 2.7860139887	 0.095386
H	-0.4264304161	 2.9619436041	 3.1970528667	 0.111077
H	 0.5183873489	 1.4960576264	 2.7180419147	 0.122523
H	 2.8952901869	 2.9964478856	 0.6235192688	 0.22883
H	 1.1117560138	 2.8251724786	-0.7515397223	 0.11802
138.0602	270.5753	374.9355	443.6086	479.2351	501.8317	559.0133	650.1011	671.8488	742.4293	762.3311	818.899	856.0035	876.9185	886.1619	933.3136	964.6642	987.3312	1005.3793	1034.4836	1072.6896	1094.3552	1116.9446	1148.3131	1177.3563	1198.0242	1219.632	1240.8503	1277.1241	1295.0972	1367.2424	1424.34	1480.4945	1517.4162	1949.3383	3018.0903	3074.3618	3082.8046	3145.2498	3148.9395	3153.0373	3528.9956
O=C1OC23CC(C2)NC13	O=C1O[C@@]23C[C@@H](C2)N[C@@H]13	
InChI=1S/C6H7NO2/c8-5-4-6(9-5)1-3(2-6)7-4/h3-4,7H,1-2H2	InChI=1S/C6H7NO2/c8-5-4-6(9-5)1-3(2-6)7-4/h3-4,7H,1-2H2/t3-,4-,6-/m0/s1
