22
gdb 59426	3.30981	1.02769	0.94675	1.9566	82.93	-0.2283	0.0682	0.2966	1363.1152	0.192649	-404.293368	-404.283811	-404.282866	-404.327916	35.845	
C	-1.4412133873	-0.4077405257	-0.2885196812	-0.409345
C	-0.0212404602	 0.1170210415	-0.0232791308	 0.07541
C	-0.0263853353	 1.6429157259	 0.1141371931	-0.376865
N	 0.6818719012	-0.4367733874	 1.1482241507	-0.13171
C	-0.0289195797	-1.09744332	 2.2453327446	-0.326007
C	 0.8657837305	-1.8492879723	 1.3327072788	 0.294551
C	 0.5466186651	-3.0388548153	 0.4188208902	-0.150587
O	 1.7812818925	-3.6772974327	 0.8008791539	-0.27914
C	 2.1999063193	-2.5426758594	 1.5945191668	-0.135166
H	-2.1381297587	-0.0849437661	 0.4920273948	 0.121169
H	-1.8070388384	-0.0066936735	-1.2388535701	 0.119657
H	-1.4854993089	-1.4985215091	-0.3558069397	 0.122744
H	 0.60610811	-0.1457697554	-0.8854628823	 0.085578
H	-0.6202333487	 1.9471762736	 0.9832799567	 0.115759
H	 0.9903902268	 2.0178141422	 0.2523771844	 0.122765
H	-0.4596681594	 2.1148391892	-0.7735292979	 0.107887
H	 0.2973104508	-0.8272160011	 3.2475119161	 0.114361
H	-1.0970999069	-1.2850636142	 2.1540015997	 0.111149
H	-0.3323186165	-3.642786038	 0.6772912205	 0.105877
H	 0.522887277	-2.8121196336	-0.6560514379	 0.102659
H	 3.0707543485	-2.0312661714	 1.1639018667	 0.105027
H	 2.4159814382	-2.8228316071	 2.6327217727	 0.104226
50.8953	119.99	139.1549	181.0634	225.9252	257.8524	306.059	312.5576	366.8331	392.1595	461.1617	519.194	627.8078	702.245	850.466	875.8065	888.8144	917.5992	926.0673	944.1256	969.416	976.8593	1027.063	1041.4085	1111.6154	1115.6218	1127.9812	1141.1669	1150.5096	1161.8983	1173.9451	1204.7523	1217.7309	1304.4021	1346.151	1348.2832	1373.6762	1397.5387	1416.8127	1446.0748	1482.7153	1487.5765	1501.1127	1504.2486	1506.9683	1520.3996	1530.3079	2997.5949	3012.4681	3016.0666	3033.7675	3039.5934	3044.1386	3057.6907	3091.4157	3099.0895	3107.545	3113.9492	3125.4272	3172.4884
CC(C)N1CC11COC1	CC(C)N1CC21COC2	
InChI=1S/C7H13NO/c1-6(2)8-3-7(8)4-9-5-7/h6H,3-5H2,1-2H3	InChI=1S/C7H13NO/c1-6(2)8-3-7(8)4-9-5-7/h6H,3-5H2,1-2H3
