19
gdb 55825	3.82422	0.98101	0.91166	3.8566	76.16	-0.2323	0.0417	0.2739	1327.1179	0.159829	-419.192339	-419.183675	-419.18273	-419.226796	32.562	
N	 0.6920564265	 0.0168114469	-0.3803322028	-0.506949
C	-0.3790985455	 0.4793623295	 0.3107752013	 0.382356
O	-0.3934929593	 1.5151860009	 0.947502798	-0.368294
C	-1.6305807053	-0.4036750554	 0.2051474173	-0.258422
N	-1.338169973	-1.7389286896	-0.2993940723	-0.091508
C	-1.2794694911	-2.9209850152	 0.5424196905	-0.042439
C	-2.340061006	-2.9214694077	 1.6577142597	-0.244892
C	-3.4470258647	-2.7276217995	 0.5727090982	-0.244901
C	-2.3507297463	-2.7496635499	-0.5104299825	-0.038971
H	 1.5404083235	 0.5565714054	-0.390623625	 0.256915
H	 0.6119476695	-0.8484387163	-0.8888304248	 0.263915
H	-2.1143475688	-0.3725611466	 1.1879529713	 0.126726
H	-2.3081892723	 0.0916620231	-0.5003480051	 0.134565
H	-0.3717248304	-3.5145092978	 0.5277248942	 0.093872
H	-2.4124464943	-3.8965491611	 2.14366015	 0.111838
H	-2.2431970262	-2.1568676706	 2.4336803448	 0.112975
H	-4.1148215202	-3.5886745235	 0.5061848295	 0.110162
H	-4.0538991022	-1.8193911208	 0.6253638484	 0.108393
H	-2.4385338537	-3.1882613018	-1.4988900707	 0.09466
38.8896	54.5529	147.2164	247.6661	268.6858	299.3371	392.8061	436.7899	523.9375	549.1382	576.9257	699.3571	751.8973	784.2942	795.2477	838.3129	882.6939	915.7068	943.0321	957.3674	988.0884	1014.9189	1051.1964	1066.1638	1101.3015	1102.3131	1138.6535	1216.9177	1225.3285	1248.3456	1263.1219	1281.1375	1283.7479	1350.4798	1361.7475	1387.699	1461.0666	1484.0418	1501.2307	1582.2247	1806.7073	3035.9988	3059.8158	3065.9242	3078.2272	3107.9062	3124.834	3161.8724	3174.071	3590.6091	3737.2427
NC(=O)CN1C2CCC12	NC(=O)CN1[C@H]2CC[C@@H]12	
InChI=1S/C6H10N2O/c7-6(9)3-8-4-1-2-5(4)8/h4-5H,1-3H2,(H2,7,9)	InChI=1S/C6H10N2O/c7-6(9)3-8-4-1-2-5(4)8/h4-5H,1-3H2,(H2,7,9)/t4-,5+,8?
