14
gdb 133728	3.12123	0.94386	0.86046	3.6742	51.82	-0.2627	-0.0317	0.2309	1291.013	0.094482	-605.336066	-605.326725	-605.32578	-605.37275	31.675	
O	-0.0030249682	 1.3397214098	 0.0425566698	-0.392219
C	-0.2751080257	-0.0154455778	 0.2649503363	-0.1801
C	-1.285699093	-0.5105003651	-0.7588218211	 0.369713
O	-1.726350843	 0.177694116	-1.639586024	-0.263867
C	-1.7068740266	-1.9814227559	-0.6096900346	-0.43011
C	-2.8398099789	-2.1692308051	 0.3869374723	 0.280793
F	-3.903046576	-1.4226672914	 0.076619197	-0.063408
F	-3.2321957265	-3.4497734171	 0.4244060695	-0.070941
F	-2.462948016	-1.8329524548	 1.6368307106	-0.083773
H	 0.5767779995	 1.6481276708	 0.7448435439	 0.296922
H	 0.6216232754	-0.6555886502	 0.1672582346	 0.110345
H	-0.6916521384	-0.2196587947	 1.2644897803	 0.127343
H	-2.0597727975	-2.3320376512	-1.5809671978	 0.160338
H	-0.8751955051	-2.6092105734	-0.2771770867	 0.138961
12.3143	73.4081	87.3146	154.0749	221.5761	240.3435	312.1072	328.4342	415.2761	482.4276	527.9807	536.3366	641.7436	690.0151	794.0015	840.8002	926.717	1005.5853	1038.0303	1132.965	1175.5698	1193.7234	1240.2146	1250.4268	1268.146	1306.8925	1342.5355	1443.3417	1460.0805	1494.8689	1843.1051	2939.3777	2998.8581	3073.7826	3141.6097	3838.6639
OCC(=O)CC(F)(F)F	OCC(=O)CC(F)(F)F	
InChI=1S/C4H5F3O2/c5-4(6,7)1-3(9)2-8/h8H,1-2H2	InChI=1S/C4H5F3O2/c5-4(6,7)1-3(9)2-8/h8H,1-2H2
