16
gdb 17773	5.46235	1.15411	1.14529	1.9049	65.64	-0.2448	-0.0278	0.2169	1058.1168	0.129436	-383.669357	-383.662135	-383.661191	-383.70202	26.409	
O	-0.5091676604	 0.6975186928	 0.7165754709	-0.234078
C	 0.1089891287	 0.9608625316	-0.28160405	 0.165266
C	 1.4389620124	 1.6861472217	-0.3089811085	-0.335768
C	 1.3732640713	 2.9219537144	-1.205050191	 0.03038
C	 0.7965565834	 4.2927426598	-0.7386356286	 0.04474
C	 2.0492585428	 4.5506295219	 0.1327024716	-0.228469
C	 2.4891304734	 4.0060424047	-1.2474556176	 0.026435
O	 1.5083067895	 4.9181834778	-1.8784747667	-0.30588
H	-0.2807453319	 0.6804663014	-1.2884082312	 0.076604
H	 1.7306855584	 1.9071987687	 0.7193685625	 0.125355
H	 2.1801187186	 0.9927300269	-0.7331800586	 0.126024
H	 1.0297730982	 2.671244964	-2.212970254	 0.090846
H	-0.2392677014	 4.5882352052	-0.5705527804	 0.102368
H	 2.2760664453	 5.6044329019	 0.294957538	 0.115167
H	 2.2141157312	 3.9439031617	 1.0245849719	 0.104193
H	 3.4841770107	 3.9523117854	-1.6907741483	 0.096816
47.6279	69.8307	184.5058	308.1835	349.8488	462.896	563.0906	612.8919	725.0641	767.7156	815.5532	869.5216	880.9106	903.186	929.1698	1009.259	1016.2048	1041.6626	1072.6479	1104.4871	1121.9785	1158.6129	1171.8918	1198.4863	1205.6206	1226.6774	1261.3949	1287.4385	1290.2976	1396.6724	1429.4477	1459.3862	1498.9286	1836.6412	2858.4643	3013.3937	3073.6309	3079.4871	3112.8302	3121.0189	3122.6285	3156.6946
O=CCC1C2CC1O2	O=CC[C@H]1[C@H]2C[C@@H]1O2	
InChI=1S/C6H8O2/c7-2-1-4-5-3-6(4)8-5/h2,4-6H,1,3H2	InChI=1S/C6H8O2/c7-2-1-4-5-3-6(4)8-5/h2,4-6H,1,3H2/t4-,5+,6-
