15
gdb 7729	3.13721	1.9309	1.30535	3.0254	61.24	-0.2302	-0.0404	0.1898	899.1002	0.119058	-399.831201	-399.823942	-399.822998	-399.863452	26.848	
O	 0.1515802186	 0.3939867046	 1.052050243	-0.29146
C	 0.0111698883	 1.2221571196	 0.1883185021	 0.367329
C	-1.3344463535	 1.9080199197	-0.0922708321	-0.276983
N	-1.3307266014	 2.8657090148	-1.1907664047	-0.29073
C	-0.2365797621	 3.8251023494	-1.1115084392	-0.276984
C	 1.1548591203	 3.219255303	-0.8734542792	 0.367322
O	 2.1535607894	 3.8898656029	-0.8064375757	-0.291456
C	 1.1598271376	 1.7007885919	-0.6991741114	-0.405263
H	-2.0897579469	 1.1362679304	-0.2699065466	 0.142877
H	-1.6315639815	 2.4161339887	 0.8359475777	 0.146321
H	-1.3189672468	 2.3848093332	-2.0826280938	 0.226968
H	-0.2026362305	 4.4315084424	-2.0218772492	 0.142875
H	-0.4230988805	 4.5263689008	-0.2859883411	 0.146322
H	 2.121387207	 1.3486960022	-0.3256775366	 0.150565
H	 0.9906202819	 1.2668794064	-1.6975834731	 0.142299
54.0321	83.1676	272.7208	359.3363	411.8912	451.9127	478.3855	501.4255	534.4087	587.6471	679.5675	786.0102	794.6481	853.3179	899.2789	978.4029	1084.0616	1088.3503	1137.0813	1171.5228	1219.043	1231.6295	1248.2573	1314.7913	1323.3829	1350.8512	1426.1503	1434.0687	1443.8302	1490.7758	1818.5057	1838.6779	3003.7277	3021.0683	3022.9806	3090.4195	3090.8005	3143.8313	3540.2854
O=C1CNCC(=O)C1	O=C1CNCC(=O)C1	
InChI=1S/C5H7NO2/c7-4-1-5(8)3-6-2-4/h6H,1-3H2	InChI=1S/C5H7NO2/c7-4-1-5(8)3-6-2-4/h6H,1-3H2
