18
gdb 71820	3.41043	1.63523	1.51454	0.4095	73.81	-0.2244	0.0684	0.2928	929.22	0.149556	-401.865683	-401.859022	-401.858078	-401.89623	28.594	
O	-0.0678390118	 1.4296922227	-0.0104876479	-0.457603
C	 0.0660654484	 0.0555655106	 0.0180825111	 0.35033
C	 1.3274579881	-0.7291050706	 0.3513101578	-0.252617
N	 0.7555415243	-1.9162503614	-0.382300232	-0.13617
C	-0.0210661467	-2.7955251675	 0.5153633487	-0.012271
C	-0.3204372341	-2.4193831741	 1.9537680194	-0.309475
C	-1.312706646	-2.0917805324	 0.8702577977	-0.035995
C	-1.2101521364	-0.7890427047	 0.104668948	-0.105045
C	-0.2457633229	-0.9930637189	-1.0336842532	-0.12636
H	 0.6245896239	 1.7891986881	-0.5774434549	 0.286049
H	 2.1836890152	-0.3419504182	-0.2154258396	 0.09496
H	 1.646067873	-0.8950865651	 1.382427691	 0.105513
H	 0.0112034568	-3.8484850971	 0.2576577873	 0.090051
H	-0.5664779419	-3.2498073572	 2.6091981874	 0.109354
H	 0.2016833528	-1.6157408577	 2.4549079002	 0.122192
H	-2.2743596852	-2.594801375	 0.8519428279	 0.084809
H	-2.1024325753	-0.1969158545	-0.0674715951	 0.098234
H	-0.4203644724	-0.9688346768	-2.1019228538	 0.094044
170.3064	290.5247	331.4953	373.2497	399.4677	500.2366	547.949	587.9475	668.9346	711.9859	727.1663	782.354	810.0429	839.6236	890.1759	922.3134	924.8012	930.0946	956.6834	1009.0701	1027.0744	1028.8652	1071.5928	1084.7219	1087.9645	1106.3123	1124.6718	1160.2517	1179.2434	1202.7057	1222.3936	1246.8331	1298.976	1317.9739	1346.936	1363.9491	1429.6096	1480.1806	1532.3352	3022.6307	3094.7584	3135.4379	3153.3642	3164.3253	3180.5496	3194.7359	3229.4419	3785.3107
OC12CN3C4CC4C1C23	O[C@@]12CN3[C@H]4C[C@H]4[C@@H]1[C@@H]23	
InChI=1S/C7H9NO/c9-7-2-8-4-1-3(4)5(7)6(7)8/h3-6,9H,1-2H2	InChI=1S/C7H9NO/c9-7-2-8-4-1-3(4)5(7)6(7)8/h3-6,9H,1-2H2/t3-,4+,5-,6+,7+/m1/s1
