18
gdb 45562	3.27114	1.37941	1.19261	4.0425	71.35	-0.2409	0.0363	0.2772	1066.0651	0.151189	-439.13898	-439.131585	-439.130641	-439.172013	28.314	
O	 0.1096554596	-0.0774164987	-0.2272353943	-0.374624
C	 0.0247543024	 1.1195548051	-0.069325021	 0.405011
C	-1.2271124644	 1.9181676785	 0.2981459469	-0.348923
C	-0.7798588812	 3.3825916613	 0.4669602832	-0.041788
C	-0.7521013538	 3.8924624205	 1.924844222	-0.091761
O	 0.5537936093	 3.6211654958	 2.4108574904	-0.236245
C	 1.4237003334	 3.9511570183	 1.3450334684	-0.092726
C	 0.7417188616	 3.4069920064	 0.0725286015	-0.01497
N	 1.0452124693	 2.0212291327	-0.2047119515	-0.296381
H	-1.9647441057	 1.7908473938	-0.4990304127	 0.132252
H	-1.6638631603	 1.4948300971	 1.2065523372	 0.135163
H	-1.3632687909	 4.0532232457	-0.1653340873	 0.086487
H	-0.9540137117	 4.9759154336	 1.9548914224	 0.089509
H	-1.4682267128	 3.3880591382	 2.5778970788	 0.116011
H	 1.5475994466	 5.0444579565	 1.2620030433	 0.087732
H	 2.3992956676	 3.4993221043	 1.5414743961	 0.111133
H	 0.9518407711	 4.0415320501	-0.7955945241	 0.084087
H	 1.9702201199	 1.6992133009	-0.4429826291	 0.250033
34.3588	81.7194	239.2178	343.3154	404.1817	464.4738	493.969	571.664	593.8044	645.9019	709.5793	792.1593	829.5987	861.8783	918.7581	941.8109	942.5484	970.6892	1021.558	1050.4231	1090.7198	1128.8908	1135.9246	1195.6614	1201.4792	1218.9676	1269.6943	1282.358	1297.318	1314.6134	1341.0848	1354.1145	1382.8462	1404.3976	1442.9484	1467.1311	1497.8536	1515.6812	1832.2638	2960.2211	2969.7053	3038.9445	3067.4403	3095.2257	3097.8223	3100.7346	3111.7633	3636.9023
O=C1CC2COCC2N1	O=C1C[C@H]2COC[C@H]2N1	
InChI=1S/C6H9NO2/c8-6-1-4-2-9-3-5(4)7-6/h4-5H,1-3H2,(H,7,8)	InChI=1S/C6H9NO2/c8-6-1-4-2-9-3-5(4)7-6/h4-5H,1-3H2,(H,7,8)/t4-,5+/m0/s1
