14
gdb 42296	2.65528	1.49816	0.96955	2.0147	71.93	-0.2674	-0.0607	0.2067	1134.359	0.099513	-436.695008	-436.686613	-436.685669	-436.728708	29.618	
O	-0.0318148394	-0.054589049	 0.0034467317	-0.327361
C	-0.0024424492	 1.158863979	 0.007071468	 0.26567
C	 1.2186226652	 1.9325756042	 0.000498014	 0.251781
C	 2.2633251246	 2.5257942183	-0.0053063033	-0.396496
N	-1.1725503616	 1.9001262878	 0.0180357935	-0.150587
C	-2.5591533269	 1.4034117962	 0.0267378746	-0.169277
C	-3.0299511242	 2.8851202518	 0.0349024701	-0.381464
C	-1.5387640095	 3.2660426447	 0.0251216185	 0.435938
O	-0.8925254873	 4.2690671764	 0.0235238579	-0.324381
H	 3.1805564874	 3.0629377475	-0.0100878765	 0.219232
H	-2.8108990697	 0.827714659	-0.865971929	 0.140324
H	-2.7976781326	 0.8220674707	 0.9194188098	 0.140325
H	-3.5749143691	 3.2146631851	-0.8511373332	 0.14815
H	-3.5617552078	 3.2090010482	 0.9309695239	 0.148146
70.3976	105.8961	113.78	195.0669	215.2757	287.9931	372.1083	479.7507	536.3714	579.4841	663.9302	699.8553	704.5428	764.9178	772.2534	805.7348	928.83	1021.477	1049.7642	1069.5052	1155.6892	1165.6117	1190.3302	1227.9647	1327.7386	1362.8091	1458.1398	1519.7038	1748.9345	1902.2186	2234.6074	3079.0834	3093.27	3129.8524	3151.2765	3496.9796
O=C(C#C)N1CCC1=O	O=C(C#C)N1CCC1=O	
InChI=1S/C6H5NO2/c1-2-5(8)7-4-3-6(7)9/h1H,3-4H2	InChI=1S/C6H5NO2/c1-2-5(8)7-4-3-6(7)9/h1H,3-4H2
