23
gdb 81768	2.07347	1.67588	1.27906	1.3731	85.18	-0.242	0.0683	0.3104	1143.8549	0.203823	-388.27299	-388.263057	-388.262113	-388.306608	38.86	
C	-0.0757230991	 1.5369442065	 0.096108364	-0.502755
C	 0.0296768576	 0.0386088956	 0.0098120574	 0.342465
C	-0.8323188331	-0.865285211	 0.847774197	-0.343344
C	 0.6621770732	-0.9498597756	 1.0014587561	-0.10812
C	 1.2432691057	-1.768120861	-0.138047421	 0.063164
O	 0.7898371178	-3.1075661272	-0.1502124097	-0.428076
C	 0.6304560234	-0.7467550859	-1.1867444195	 0.221111
C	-0.3480354741	-1.3214568612	-2.2089047136	-0.450868
C	 1.7451206303	 0.0310351829	-1.8899031994	-0.449412
H	 0.8589769286	 2.0338956083	-0.1839526097	 0.115856
H	-0.8643350337	 1.9203893771	-0.5631816049	 0.117824
H	-0.3243792515	 1.8498504352	 1.1156441914	 0.116042
H	-1.3472181602	-0.3695528541	 1.6652724505	 0.10363
H	-1.3797649211	-1.7006769816	 0.4247132725	 0.119991
H	 1.1565632405	-0.7546936514	 1.9458533197	 0.079097
H	 2.3411300744	-1.7315489381	-0.16220338	 0.057364
H	 1.1743785856	-3.5475456491	-0.9151151499	 0.280458
H	-1.1197702237	-1.9370752313	-1.7428833834	 0.124955
H	-0.842609522	-0.5178884571	-2.766547716	 0.110657
H	 0.1755761386	-1.9487753753	-2.9411498932	 0.098496
H	 2.2918662987	-0.6212750957	-2.5807950175	 0.104718
H	 1.3459799963	 0.8690275618	-2.4722216365	 0.113021
H	 2.467386818	 0.437368278	-1.1736239344	 0.113725
122.1981	163.2435	195.21	208.4598	238.4811	250.9653	281.0708	288.863	315.4483	357.6687	379.0774	452.9689	508.3438	556.8219	624.6946	660.4053	774.884	812.6208	888.7867	898.7868	950.0849	968.4422	971.0372	988.9629	1013.3113	1030.6289	1064.5884	1080.0948	1106.1433	1108.7195	1176.267	1204.6951	1218.9907	1239.2219	1257.8566	1303.7241	1335.8525	1382.028	1400.1395	1411.7036	1424.0092	1426.558	1480.383	1483.7874	1488.3205	1497.0455	1503.3231	1507.8102	1512.637	2998.8088	3019.5738	3021.5711	3026.4793	3077.9871	3080.2999	3086.8027	3092.551	3096.4151	3124.4708	3128.6713	3175.7914	3207.3795	3815.7855
CC12CC1C(O)C2(C)C	C[C@]12C[C@H]1[C@@H](O)C2(C)C	
InChI=1S/C8H14O/c1-7(2)6(9)5-4-8(5,7)3/h5-6,9H,4H2,1-3H3	InChI=1S/C8H14O/c1-7(2)6(9)5-4-8(5,7)3/h5-6,9H,4H2,1-3H3/t5-,6+,8-/m0/s1
