20
gdb 38411	3.76191	1.31403	1.20873	1.619	82.6	-0.2294	0.0234	0.2528	1096.5179	0.172923	-365.974068	-365.96669	-365.965746	-366.005859	30.039	
C	 0.0800647986	 1.447972845	-0.0469855052	-0.24987
C	 1.3272264448	 0.6619721126	 0.0065488497	-0.071212
N	-0.0301978858	-0.0121392009	 0.1173961007	-0.127596
C	 0.2048672218	-0.5821120018	-1.2583882945	-0.244363
C	 1.6494081769	-0.0153454539	-1.3331898259	 0.353906
C	 2.0948855608	 0.9010437701	-2.4992023147	-0.337945
C	 3.5856949092	 0.6731028389	-2.5772348002	-0.057999
C	 3.9599069022	-0.3933883933	-1.8725740513	-0.066544
C	 2.7824708386	-1.0667919507	-1.2106248794	-0.325499
H	-0.2049463956	 1.9979096272	 0.8450293005	 0.119578
H	-0.2484206558	 1.9020327611	-0.9804376491	 0.10901
H	 2.0071534214	 0.7105026286	 0.8529672908	 0.090739
H	 0.1620716675	-1.6735174016	-1.2261160422	 0.108144
H	-0.509025442	-0.2195532602	-2.0072491541	 0.096316
H	 1.6062139398	 0.6107529024	-3.4417606415	 0.103727
H	 1.8242522468	 1.948613905	-2.324649704	 0.102421
H	 4.2440489984	 1.2972160947	-3.1714035161	 0.0914
H	 4.9708830452	-0.779025577	-1.8020509786	 0.091853
H	 2.9675785268	-1.3540799721	-0.1687271225	 0.109069
H	 2.5203795804	-1.994724454	-1.7406547321	 0.104867
85.6494	159.504	230.3303	349.3576	384.2362	430.5008	448.3478	508.9686	679.3475	744.0496	758.7299	780.9279	784.9573	850.9891	877.9247	917.2561	947.7201	964.9	975.1338	981.0012	990.1294	1015.0241	1057.2111	1091.1507	1106.9763	1110.1719	1123.2799	1146.5352	1159.8701	1186.2566	1215.989	1234.6603	1259.0916	1287.345	1292.9775	1337.6022	1364.8879	1373.8748	1479.9019	1488.01	1490.6293	1505.0744	1686.7834	2993.2569	2995.2623	3031.0143	3049.6739	3052.1604	3096.1519	3099.4975	3144.518	3181.9123	3190.3018	3207.4083
C1C2N1CC21CC=CC1	C1[C@H]2N1C[C@]12CC=CC1	
InChI=1S/C8H11N/c1-2-4-8(3-1)6-9-5-7(8)9/h1-2,7H,3-6H2	InChI=1S/C8H11N/c1-2-4-8(3-1)6-9-5-7(8)9/h1-2,7H,3-6H2/t7-,9?/m1/s1
