15
gdb 42171	2.15909	1.6827	1.02024	2.1746	79.67	-0.2541	-0.0631	0.191	1130.8631	0.108976	-383.421125	-383.412119	-383.411174	-383.455148	33.259	
O	-0.0057338879	 0.1432833518	-0.7307139946	-0.312142
C	-0.0310937613	 1.2501425523	-0.2293593466	 0.208668
C	 1.1887301572	 1.9147583202	 0.1810742623	 0.251003
C	 2.2284164719	 2.4259403275	 0.5056907724	-0.41636
C	-1.3275156871	 1.9848701785	-0.0112426371	 0.078801
C	-2.4093256061	 1.679703279	-1.0655316038	-0.276958
C	-2.5310727753	 1.0669757686	 0.2773128628	-0.27703
C	-1.3047445573	 3.2884856071	 0.5855757323	 0.135152
C	-1.3067162036	 4.3824981794	 1.0845508307	-0.369106
H	 3.1438367771	 2.8824575833	 0.7945523324	 0.212774
H	-3.0537412892	 2.5095122714	-1.3274181365	 0.138851
H	-2.080235446	 1.0465454544	-1.8809064278	 0.149753
H	-2.2848770821	 0.0164639935	 0.3765131552	 0.149774
H	-3.2624159615	 1.4600302287	 0.9723538694	 0.138817
H	-1.2980842787	 5.3482476843	 1.5255876988	 0.188003
41.0936	117.2448	177.8621	200.1041	236.4506	273.0588	299.1076	433.391	496.5688	527.3318	549.2757	583.559	643.6271	666.4536	674.6196	708.7985	747.5451	792.0101	841.2386	864.899	975.5218	982.9047	1064.1281	1103.4643	1116.1375	1209.5524	1288.3333	1302.1722	1446.3411	1475.704	1740.1852	2216.7337	2239.3845	3150.0627	3150.6894	3243.2886	3257.1547	3495.4097	3503.3831
O=C(C#C)C1(CC1)C#C	O=C(C#C)C1(CC1)C#C	
InChI=1S/C8H6O/c1-3-7(9)8(4-2)5-6-8/h1-2H,5-6H2	InChI=1S/C8H6O/c1-3-7(9)8(4-2)5-6-8/h1-2H,5-6H2
