19
gdb 87046	2.50962	1.32897	1.06247	0.4586	82.57	-0.2365	0.0303	0.2667	1212.0258	0.158099	-381.982782	-381.973498	-381.972554	-382.016761	34.881	
C	-0.0675745063	 1.511816328	-0.1089432487	-0.4055
C	-0.0030593255	 0.0154067107	 0.0606414054	-0.031573
N	 1.3034054678	-0.6229022026	-0.1309364918	-0.36195
C	 0.6810285376	-0.6565560506	 1.2192429239	 0.100223
C	 1.3326071836	 0.1371284283	 2.2331610273	 0.278211
C	 1.8362855408	 0.7807451058	 3.1162246695	-0.4273
C	 0.1134869272	-1.9723653496	 1.6933310423	-0.048879
C	 0.8178859599	-2.79303216	 2.7101458265	-0.256067
N	-0.4533289247	-2.1228839842	 3.0378651508	-0.324495
H	 0.8195397112	 1.9870303121	 0.3141651462	 0.139436
H	-0.1234451231	 1.7707678487	-1.1714247811	 0.122866
H	-0.9537698581	 1.9193519092	 0.3884267175	 0.121779
H	-0.8755806582	-0.5250982874	-0.3064189831	 0.091204
H	 1.2035766155	-1.5404990348	-0.5609530971	 0.2354
H	 2.2983110324	 1.3593838772	 3.8778749243	 0.200061
H	-0.4575692387	-2.4835736736	 0.9188222283	 0.085509
H	 0.7675458262	-3.876974144	 2.6613224264	 0.11842
H	 1.7353384316	-2.389853853	 3.1290761599	 0.126507
H	-0.2550892191	-1.2817609602	 3.5776279836	 0.236149
69.7499	139.4406	151.723	175.8656	183.3765	238.9376	344.1863	370.6321	382.8539	499.1341	568.2357	598.7344	614.7587	652.6496	668.8897	795.5684	833.6652	866.8205	891.2378	959.0728	967.8324	994.2996	1031.4305	1042.2897	1089.407	1109.1469	1128.982	1149.1014	1194.8408	1235.4309	1251.5261	1274.8151	1309.1064	1353.3208	1400.9172	1413.5216	1448.8899	1486.4922	1494.3035	1504.9127	2230.7311	3040.0734	3102.9696	3104.1157	3108.8285	3114.612	3138.8557	3203.0047	3482.9432	3486.3627	3498.7058
CC1NC1(C#C)C1CN1	C[C@H]1N[C@]1(C#C)[C@H]1CN1	
InChI=1S/C7H10N2/c1-3-7(5(2)9-7)6-4-8-6/h1,5-6,8-9H,4H2,2H3	InChI=1S/C7H10N2/c1-3-7(5(2)9-7)6-4-8-6/h1,5-6,8-9H,4H2,2H3/t5-,6-,7+/m1/s1
