22
gdb 118760	3.6358	0.80218	0.75549	1.7796	79.49	-0.2229	0.0752	0.298	1599.5843	0.19247	-441.450269	-441.440077	-441.439133	-441.485519	37.813	
C	-0.1164650808	 1.4465361647	 0.0466742088	-0.318792
N	 0.1262397825	 0.021969042	 0.0479302984	-0.088206
C	 1.1867354922	-0.5244716636	-0.8235692434	-0.227053
C	 1.4526084884	-1.602419458	 0.2658041518	 0.406946
O	 0.6800733174	-2.7737221376	 0.061755375	-0.491127
C	 2.8787339189	-2.0383928007	 0.5444235969	-0.256589
C	 3.0121791259	-2.876919985	 1.8199951945	-0.06591
O	 4.3584123564	-3.2414378568	 2.0887898297	-0.420693
C	 0.7581524676	-0.5952434521	 1.2315376117	-0.224924
H	 0.7944188897	 2.0396333147	 0.2557296901	 0.091583
H	-0.5073646906	 1.7569439013	-0.9281573892	 0.121691
H	-0.8662083185	 1.6974452766	 0.8045483978	 0.121932
H	 0.8545040884	-0.8793053158	-1.8053754859	 0.099941
H	 2.042505808	 0.1598082081	-0.9502966511	 0.082002
H	-0.226684915	-2.4861351738	-0.0979146937	 0.28653
H	 3.233319269	-2.6254207237	-0.3138226845	 0.094869
H	 3.5252637619	-1.1587113909	 0.626794782	 0.101881
H	 2.6888803802	-2.2909254455	 2.6878613566	 0.109265
H	 2.3566502813	-3.7550499404	 1.7568722561	 0.110831
H	 4.6423868515	-3.8402421789	 1.3908952897	 0.280249
H	 1.4837557869	 0.0673522714	 1.733527388	 0.084316
H	 0.0660715087	-1.004748076	 1.9754374307	 0.10126
67.8896	93.3226	109.3988	158.1431	229.3549	292.8189	300.5241	315.9354	331.1362	346.514	378.2324	441.0234	443.6676	493.5065	668.7256	761.5959	792.7959	905.472	919.9941	970.1913	984.7944	1005.7499	1021.274	1072.9758	1075.8925	1100.4787	1120.6236	1123.3022	1162.0352	1203.4028	1214.9598	1231.3865	1264.9084	1292.4171	1306.5395	1323.4479	1337.2275	1395.9736	1419.4584	1433.3852	1452.0147	1477.1047	1486.5025	1494.1093	1497.8453	1515.6951	1523.5888	2925.25	2954.739	2966.4003	3018.8917	3023.944	3056.1315	3059.8336	3060.6112	3065.6489	3089.4197	3098.3394	3791.4248	3816.5791
CN1CC(O)(CCO)C1	CN1CC(O)(CCO)C1	
InChI=1S/C6H13NO2/c1-7-4-6(9,5-7)2-3-8/h8-9H,2-5H2,1H3	InChI=1S/C6H13NO2/c1-7-4-6(9,5-7)2-3-8/h8-9H,2-5H2,1H3
