20
gdb 103099	1.85542	1.49151	1.13629	3.3783	80.34	-0.2331	0.0318	0.2648	1204.8994	0.17078	-399.323546	-399.313365	-399.312421	-399.358272	37.632	
C	-0.3675001335	 1.470461022	-0.1077561451	-0.390147
C	 0.1714993868	 0.0478667151	 0.0843664842	-0.246336
C	 0.8206085389	-0.5318647226	-1.1676247313	 0.25412
N	 1.9416395008	 0.1793834002	-1.7439881953	-0.554197
C	 0.8981078882	-2.0107062485	-1.3667434155	-0.008514
N	 0.4676286105	-2.9479132266	-0.3763933269	-0.519233
C	-0.066440473	-1.1721168765	-2.2548577101	-0.25792
C	-1.4704678118	-1.3174886755	-2.0407189714	 0.291149
N	-2.6010366477	-1.4660718785	-1.8332761635	-0.357916
H	 0.4271564051	 2.1718420152	-0.3823944289	 0.107294
H	-1.1335053927	 1.4980891389	-0.8888434527	 0.137234
H	-0.8202255859	 1.83756407	 0.8174065009	 0.12285
H	 0.9190142508	 0.0340789013	 0.8881907239	 0.102877
H	-0.6502951054	-0.5915409694	 0.4208215389	 0.11156
H	 1.6855159481	 1.1391527896	-1.9576563897	 0.234307
H	 2.7071663814	 0.2186431318	-1.0756374489	 0.234205
H	 1.7794747104	-2.3415111486	-1.9056230443	 0.117574
H	-0.4048975069	-2.6657939707	 0.0577295147	 0.247032
H	 0.2942382511	-3.8514454446	-0.8064922099	 0.243466
H	 0.2383451148	-0.9899059526	-3.2787701593	 0.130593
81.7423	117.045	139.1866	172.2157	207.2748	214.7888	239.6681	298.2386	326.5374	384.9605	402.1561	444.3695	538.0516	580.0248	646.5008	680.2978	779.2002	794.3081	843.0998	867.7529	885.5199	928.6828	996.2559	1037.8804	1058.505	1085.5283	1091.2722	1175.8083	1186.6486	1253.7979	1279.7224	1286.0212	1314.1732	1352.7836	1378.2614	1413.9652	1471.8542	1479.9551	1503.6178	1509.1167	1654.2558	1664.4674	2334.5598	3029.0019	3041.6158	3080.0237	3110.5247	3117.0876	3174.5886	3183.8339	3481.4925	3503.7253	3561.2975	3580.4529
CCC1(N)C(N)C1C#N	CC[C@@]1(N)[C@@H](N)[C@H]1C#N	
InChI=1S/C6H11N3/c1-2-6(9)4(3-7)5(6)8/h4-5H,2,8-9H2,1H3	InChI=1S/C6H11N3/c1-2-6(9)4(3-7)5(6)8/h4-5H,2,8-9H2,1H3/t4-,5+,6+/m1/s1
