12
gdb 42181	3.05389	1.37001	1.01407	3.8824	67.21	-0.2909	-0.1018	0.1891	1085.549	0.074059	-435.431688	-435.423185	-435.422241	-435.465375	29.802	
O	 0.5394915992	 1.1054980069	-1.4652997971	-0.250074
C	 0.1068150148	 1.4833524361	-0.4107928702	 0.264787
C	 0.9015934708	 1.3487480239	 0.8280923977	 0.234048
N	 1.5488269392	 1.193883743	 1.7733275709	-0.310619
C	-1.2534815983	 2.1126343182	-0.2246993441	 0.097205
C	-2.0085980058	 1.7681491175	 1.0154500859	-0.204359
O	-1.3278935946	 3.0008462678	 0.904052511	-0.237553
C	-1.9458691304	 2.4920601042	-1.4241763348	 0.23966
C	-2.5167356344	 2.8046848719	-2.4325754791	-0.349962
H	-3.0936749586	 1.8141935398	 0.9554667464	 0.152813
H	-1.5874196649	 1.056460658	 1.7230509175	 0.15108
H	-3.0205407369	 3.0840909726	-3.3256233342	 0.212973
48.9748	118.4712	161.7459	201.007	240.0142	286.3879	338.6558	428.1729	487.0367	533.1822	562.995	647.2981	671.1968	692.583	752.582	849.9136	871.1692	960.9077	1021.1889	1138.6737	1170.0744	1285.2854	1337.0225	1510.219	1804.8238	2252.6173	2341.9411	3096.8403	3198.5932	3498.3567
O=C(C#N)C1(CO1)C#C	O=C(C#N)[C@]1(CO1)C#C	
InChI=1S/C6H3NO2/c1-2-6(4-9-6)5(8)3-7/h1H,4H2	InChI=1S/C6H3NO2/c1-2-6(4-9-6)5(8)3-7/h1H,4H2/t6-/m1/s1
