19
gdb 32452	3.10326	1.22671	0.89391	0.5441	80.11	-0.1972	0.0338	0.231	1317.9595	0.157548	-423.056426	-423.046675	-423.04573	-423.091267	34.644	
C	 0.0179102959	 1.3742775655	 0.0520331834	-0.249131
O	-0.0205891277	-0.0395191642	 0.0031163125	-0.257022
C	 0.6235088095	-0.5927829483	-1.0511217015	 0.278955
C	 1.304419656	-0.0127867984	-2.0776917203	-0.192597
O	 1.784197229	-0.9934886235	-2.9060485874	-0.197073
C	 1.3984777371	-2.1945876	-2.3903499732	 0.30469
C	 1.8241595071	-3.3998927781	-3.150242983	-0.490315
C	 0.678803544	-2.0178278186	-1.2456441251	 0.015586
C	 0.0563749513	-3.0361675058	-0.3445075146	-0.505719
H	 1.0519575926	 1.7391440033	 0.1196263332	 0.121119
H	-0.4544307735	 1.8133238544	-0.8374105067	 0.121111
H	-0.5337113894	 1.6763638282	 0.9436093474	 0.133393
H	 1.5313195217	 1.0000434558	-2.3575245084	 0.126957
H	 1.4274936163	-3.3900675234	-4.1720580254	 0.136703
H	 2.9160282326	-3.4611089411	-3.2249536393	 0.136711
H	 1.466633776	-4.305807236	-2.6564731672	 0.132657
H	 0.4550326806	-2.964606408	 0.6737780059	 0.132235
H	-1.0274639527	-2.8927295511	-0.269161087	 0.132255
H	 0.2355450436	-4.0528712408	-0.7037483733	 0.119484
82.7556	90.6559	115.1236	160.8746	184.6391	219.4712	259.2699	279.7444	336.9245	385.7193	511.2014	590.6699	613.5548	645.4852	703.2816	734.1469	738.5534	929.5634	968.9024	1057.9315	1058.66	1067.6518	1145.9223	1160.3259	1182.4946	1192.9869	1227.5854	1258.5388	1321.5073	1407.3003	1425.1947	1444.9983	1472.2587	1476.2961	1479.5668	1482.3921	1490.1785	1497.3683	1508.9214	1618.2114	1689.5623	2996.9749	3028.9947	3031.1188	3052.1701	3077.7322	3078.917	3113.6125	3130.8157	3135.1278	3293.5739
COC1=COC(C)=C1C	COc1coc(C)c1C	
InChI=1S/C7H10O2/c1-5-6(2)9-4-7(5)8-3/h4H,1-3H3	InChI=1S/C7H10O2/c1-5-6(2)9-4-7(5)8-3/h4H,1-3H3
