16
gdb 54460	3.60503	1.35999	1.13098	2.4792	69.66	-0.2318	-0.0319	0.1999	1074.8041	0.121852	-437.798873	-437.790851	-437.789907	-437.831797	30.098	
C	 0.9672210727	 0.1066160257	 0.6008577744	-0.485192
C	-0.2577911401	 0.5032683459	-0.1928402829	 0.275763
O	-0.2604417333	 1.3883120436	-1.0233135394	-0.310901
C	-1.5082847569	-0.2437678347	 0.0753227835	 0.349336
O	-1.6629820797	-1.0465664054	 1.2522569516	-0.24796
C	-1.7958267153	-1.698636286	 0.0062350921	-0.048816
C	-3.2016652433	-1.3914257173	-0.6178311723	-0.092905
N	-3.9363164049	-0.5339240744	 0.3411790185	-0.313597
C	-2.9141643578	 0.0575665463	-0.5481109235	-0.155539
H	 1.8344953548	 0.6465287025	 0.2196473062	 0.141023
H	 0.8135317226	 0.3460049953	 1.6584301485	 0.158399
H	 1.140119408	-0.9729539227	 0.5488245813	 0.139633
H	-1.1415263414	-2.5334989452	-0.2163791721	 0.121569
H	-3.6949804959	-1.9755188823	-1.382099874	 0.107817
H	-4.8416902545	-0.3353023244	-0.0860126796	 0.238883
H	-3.113294245	 0.8540992732	-1.2496387123	 0.122485
78.4069	112.2441	155.131	164.2032	323.8945	413.0904	428.6482	492.8743	580.1437	614.3399	669.7299	760.6	801.3683	807.9992	834.62	870.1365	898.8879	917.5659	938.978	982.6428	1019.6984	1045.8254	1068.511	1091.6588	1105.2848	1205.4165	1233.235	1283.6022	1310.4121	1341.9074	1383.9716	1422.4443	1457.6095	1469.863	1782.7675	3045.7145	3107.552	3156.7841	3187.7799	3214.9361	3236.225	3470.0783
CC(=O)C12OC1C1NC21	CC(=O)[C@]12O[C@H]1[C@H]1N[C@@H]21	
InChI=1S/C6H7NO2/c1-2(8)6-4-3(7-4)5(6)9-6/h3-5,7H,1H3	InChI=1S/C6H7NO2/c1-2(8)6-4-3(7-4)5(6)9-6/h3-5,7H,1H3/t3-,4+,5-,6+/m0/s1
