19
gdb 97657	4.22065	0.66125	0.62261	2.5017	83.5	-0.2458	0.0255	0.2713	1841.3698	0.155119	-422.974087	-422.96329	-422.962346	-423.011451	37.315	
C	 0.1044302959	 1.4695985265	-0.251996989	-0.426846
C	 0.1156870269	-0.0103280596	 0.0318124353	 0.046965
O	 1.3761692545	-0.679541065	 0.0611096287	-0.282127
C	 0.6083900908	-0.6371591315	 1.285143326	 0.170766
C	 1.2182885984	 0.1576343949	 2.4224370551	-0.470902
C	 0.0208126909	-1.8964294765	 1.6869213781	 0.026616
C	-0.4592472714	-2.9350117842	 2.0626409069	 0.157436
C	-1.0575426825	-4.1954933184	 2.481588	-0.221508
O	-0.4067910959	-4.669632365	 3.6539389836	-0.408069
H	 0.8735911549	 2.0046640291	 0.3070319196	 0.128817
H	 0.2821529702	 1.6418676928	-1.3189156507	 0.133436
H	-0.8732042252	 1.8961688818	-0.0032943582	 0.125477
H	-0.6568274104	-0.571656113	-0.4980114036	 0.090658
H	 1.6846011665	 1.0740665846	 2.0587835352	 0.127582
H	 0.4540034139	 0.4118824208	 3.1630127934	 0.131108
H	 1.9841355756	-0.4425833591	 2.9219459534	 0.142009
H	-2.1348912393	-4.0411717631	 2.6584443342	 0.116824
H	-0.972134224	-4.9196217105	 1.6548876051	 0.12145
H	-0.8187963397	-5.5066584245	 3.891437077	 0.290309
20.8057	72.2023	98.4116	152.4765	161.6903	174.4835	223.1341	263.4466	275.2389	331.3188	370.5654	463.3251	509.3812	536.1419	578.2336	656.2099	764.4348	846.0437	907.4711	984.6338	1024.9252	1028.5069	1055.6856	1077.1781	1102.0669	1133.389	1181.0531	1244.0597	1247.7048	1283.1357	1333.1137	1401.2799	1415.495	1447.726	1459.8751	1474.0816	1484.6103	1493.3656	1500.729	1511.32	2365.0879	2961.1931	2980.2377	3039.9325	3050.1472	3085.2281	3099.9748	3115.5463	3136.5857	3148.3771	3817.9819
CC1OC1(C)C#CCO	C[C@H]1O[C@]1(C)C#CCO	
InChI=1S/C7H10O2/c1-6-7(2,9-6)4-3-5-8/h6,8H,5H2,1-2H3	InChI=1S/C7H10O2/c1-6-7(2,9-6)4-3-5-8/h6,8H,5H2,1-2H3/t6-,7-/m1/s1
