20
gdb 95265	2.56774	1.79106	1.3646	3.149	77.14	-0.2249	0.0678	0.2927	1005.4161	0.174198	-403.106377	-403.099024	-403.09808	-403.137914	30.246	
O	-0.0342532739	 1.4507914594	 0.0148534212	-0.434799
C	 0.0323756632	 0.0275542532	 0.0119664332	 0.113679
C	 1.0119993241	-0.4980078837	 1.0806844358	-0.259137
C	 0.7150010118	-1.9372449432	 1.5297732969	-0.225367
C	-0.7757903661	-2.1045954942	 1.8376741874	-0.0349
C	-1.4981748742	-0.899619055	 2.5041566804	-0.165285
N	-2.2952654399	-0.5953312341	 1.2671385147	-0.153264
C	-1.6912370512	-1.835736117	 0.6317766321	-0.069717
C	-1.3884881275	-0.4979006575	 0.0951796625	 0.002205
H	 0.8518594433	 1.7882810103	-0.1525115236	 0.280163
H	 0.3874623064	-0.3227291091	-0.9738521724	 0.068376
H	 2.0361147255	-0.422104103	 0.6955043857	 0.086374
H	 0.9573277318	 0.1763944765	 1.9404356211	 0.114991
H	 0.9992994521	-2.6532465454	 0.7471427375	 0.0988
H	 1.3242593563	-2.1771635621	 2.4089237345	 0.09798
H	-0.9761745319	-3.0555449583	 2.3346871357	 0.074529
H	-2.1944441573	-1.2125952496	 3.28563265	 0.108198
H	-0.9046566656	-0.0637872387	 2.8820776464	 0.108142
H	-2.2953207728	-2.5737050258	 0.1130919601	 0.087349
H	-1.9756679041	-0.191931213	-0.767424879	 0.101683
96.3406	253.9703	282.7472	288.5995	358.3326	397.0175	436.151	506.3599	595.1286	634.0247	731.2102	768.1737	778.8763	823.2345	859.9765	926.1384	930.1983	963.897	991.5498	1009.3006	1021.1969	1067.4574	1078.7978	1092.2946	1108.8824	1121.3368	1180.0389	1191.2611	1217.7451	1247.3423	1263.0458	1278.1528	1299.1262	1328.256	1336.5072	1354.0011	1376.9965	1387.1367	1432.3542	1446.6286	1485.0621	1493.0406	1524.0528	2932.6938	3017.239	3034.4738	3057.3645	3062.2921	3085.1649	3090.4658	3113.8548	3139.8051	3157.9072	3810.9014
OC1CCC2CN3C2C13	O[C@H]1CC[C@H]2CN3[C@H]2[C@H]13	
InChI=1S/C7H11NO/c9-5-2-1-4-3-8-6(4)7(5)8/h4-7,9H,1-3H2	InChI=1S/C7H11NO/c9-5-2-1-4-3-8-6(4)7(5)8/h4-7,9H,1-3H2/t4-,5-,6+,7-,8?/m0/s1
