18
gdb 126039	3.68638	1.10015	1.0857	3.7718	78.73	-0.2257	0.024	0.2497	1197.0929	0.150606	-398.130807	-398.122857	-398.121912	-398.163713	30.11	
C	-0.2259411115	 1.5074221245	-0.1064511777	-0.402826
C	 0.001482828	 0.0217246818	 0.0064374604	 0.021896
N	 1.3816624776	-0.4697815985	-0.1140328578	-0.351784
C	 0.6817712289	-0.6284496836	 1.1751153587	-0.180832
C	 1.2627373459	 0.12164761	 2.3068739263	 0.426333
C	 0.9105672392	 0.2386083822	 3.6398990895	-0.331499
C	 1.8833750183	 1.0993562337	 4.1906812461	-0.002084
N	 2.7756992194	 1.4904910241	 3.2833753503	-0.234251
N	 2.3723919254	 0.8856551529	 2.1511894101	-0.233679
H	 0.5485021792	 2.0675857101	 0.4218030336	 0.135468
H	-0.2177299588	 1.8185949371	-1.156252798	 0.122695
H	-1.1968563357	 1.7794692726	 0.3204857002	 0.123593
H	-0.7691321975	-0.5911901633	-0.4603951313	 0.089172
H	 1.4222711829	-1.3517174419	-0.6154711582	 0.239014
H	 0.3158781947	-1.6189644763	 1.4368789378	 0.096435
H	 0.0747637627	-0.2289473364	 4.1349956525	 0.097273
H	 1.9700728987	 1.4473900107	 5.2097558083	 0.107755
H	 2.8949321626	 0.9767013206	 1.2947375892	 0.277319
73.4514	113.1647	172.2375	209.8046	269.6359	385.5398	442.2781	509.2852	604.5775	652.5366	709.8508	743.7323	786.0296	803.5551	857.1288	891.7027	933.0284	940.8662	986.7379	1015.6668	1041.938	1059.832	1077.2886	1127.1167	1137.8916	1171.0596	1232.5477	1247.3104	1257.1565	1308.3641	1339.4972	1391.6926	1410.9821	1440.301	1468.0752	1490.1864	1497.5047	1499.5311	1606.1686	3040.5282	3102.5311	3106.2346	3128.6701	3135.3902	3241.5434	3266.1457	3520.2043	3661.768
CC1NC1C1=CC=NN1	C[C@H]1N[C@H]1c1ccn[nH]1	
InChI=1S/C6H9N3/c1-4-6(8-4)5-2-3-7-9-5/h2-4,6,8H,1H3,(H,7,9)	InChI=1S/C6H9N3/c1-4-6(8-4)5-2-3-7-9-5/h2-4,6,8H,1H3,(H,7,9)/t4-,6-/m1/s1
