19
gdb 99069	4.10371	0.76405	0.70138	1.6668	78.73	-0.2606	0.01	0.2706	1637.0722	0.155699	-423.032669	-423.022065	-423.021121	-423.069408	36.934	
C	-0.036045833	 1.3644729287	 0.1402018506	-0.242114
O	 0.144521932	-0.0539280003	 0.0305068402	-0.232836
C	 0.5926545599	-0.4883459724	-1.162920139	 0.448438
O	 0.8475570616	 0.2444346267	-2.0870048609	-0.358221
C	 0.6963025874	-2.00063536	-1.1787443703	-0.328381
C	 1.5199311154	-2.5299794205	-2.3711794725	-0.15519
C	 3.0169803197	-2.1854776523	-2.2356067913	-0.395515
C	 1.3218292419	-3.9707563796	-2.5189604064	 0.304247
C	 1.1662274521	-5.1586515904	-2.6195055487	-0.445747
H	 0.9090871142	 1.8867386475	-0.0276651878	 0.141781
H	-0.7667467851	 1.7181711841	-0.5914953869	 0.141655
H	-0.3950830217	 1.5397238215	 1.1542254981	 0.134941
H	 1.1115601425	-2.3448090946	-0.2265706285	 0.136476
H	-0.3257040828	-2.3946101006	-1.222398788	 0.145364
H	 1.1406829733	-2.0292526696	-3.2702189572	 0.128049
H	 3.1472291508	-1.1022875151	-2.1813719078	 0.135969
H	 3.4385773236	-2.642954205	-1.3349611426	 0.120218
H	 3.5758394666	-2.5592284692	-3.0969654425	 0.127952
H	 1.0271966318	-6.205977439	-2.7250493585	 0.192914
32.9456	66.4655	112.5359	123.4306	169.1505	189.8834	225.6659	264.9583	298.4385	346.5861	396.5701	522.5924	535.402	600.8144	627.136	641.103	709.388	833.5528	898.8948	906.0989	946.4635	1022.3966	1081.1747	1096.035	1140.3536	1178.625	1195.1658	1214.2941	1247.3661	1301.1219	1340.7937	1381.9712	1406.5081	1454.8696	1473.4376	1481.9917	1496.2898	1497.8446	1503.7387	1812.4492	2236.0998	3038.8446	3046.6249	3051.1523	3053.2317	3094.9575	3119.5452	3127.7341	3135.4986	3160.5978	3505.1643
COC(=O)CC(C)C#C	COC(=O)C[C@@H](C)C#C	
InChI=1S/C7H10O2/c1-4-6(2)5-7(8)9-3/h1,6H,5H2,2-3H3	InChI=1S/C7H10O2/c1-4-6(2)5-7(8)9-3/h1,6H,5H2,2-3H3/t6-/m0/s1
