23
gdb 80402	2.84631	1.35784	1.22028	1.2802	84.88	-0.2304	0.0767	0.3071	1177.6267	0.205047	-388.29529	-388.285973	-388.285029	-388.328716	36.645	
C	 0.0183601966	 1.6230738661	 0.0454823355	-0.417232
C	 0.0533584841	 0.1139194074	-0.0182555582	-0.036323
C	 0.6359690115	-0.6781917622	-1.1828067059	-0.090017
C	 1.6005425138	 0.0112283817	-2.1441622336	-0.289069
C	 2.9399254316	 0.0473444758	-1.3559365946	 0.40096
C	 3.7788382862	-1.2084414008	-1.6266200197	-0.412101
C	 3.7555744197	 1.3145809428	-1.5835531744	-0.435326
O	 2.529990724	 0.0418035043	 0.0361359933	-0.295454
C	 1.3293286234	-0.6735299305	 0.1551339306	 0.06337
H	 0.9960663913	 2.0548321798	-0.1776254901	 0.132968
H	-0.7139781873	 2.0404016041	-0.6544889998	 0.112047
H	-0.2587507845	 1.9532428748	 1.0522699516	 0.116917
H	-0.8177358789	-0.3680843752	 0.42121453	 0.080439
H	 0.0882621904	-1.5461105244	-1.530792963	 0.084118
H	 1.7006294624	-0.5494439601	-3.0774728278	 0.099901
H	 1.2771056307	 1.0238891962	-2.406697627	 0.099025
H	 4.1456690242	-1.2226887527	-2.658387045	 0.108791
H	 4.6389210027	-1.2392969872	-0.9516250407	 0.119298
H	 3.1835499152	-2.1124404679	-1.4643692621	 0.116257
H	 3.1651092826	 2.2050536706	-1.3505994791	 0.12041
H	 4.6467259922	 1.3188584877	-0.9490706805	 0.122036
H	 4.0784870934	 1.3784427855	-2.6275077397	 0.11332
H	 1.3764369647	-1.5356774759	 0.8144595303	 0.085666
92.2141	143.4865	168.3894	214.8733	238.4301	268.9199	319.1267	340.9521	376.5586	441.8391	476.2613	562.3068	618.8972	714.15	754.2861	779.0549	793.1044	875.509	902.3545	903.619	939.3887	972.8038	989.2409	1004.3554	1024.7398	1047.2572	1082.4708	1102.4491	1132.6349	1148.1003	1168.336	1193.9765	1221.713	1249.6221	1272.4908	1319.4371	1334.8512	1355.9727	1398.7606	1413.2017	1415.5751	1427.7417	1475.9341	1483.2574	1488.403	1494.8919	1498.8208	1504.3692	1509.2036	3033.5352	3034.6247	3039.7122	3046.9326	3089.8181	3091.4713	3104.2744	3111.3782	3115.3249	3117.5044	3118.9287	3132.9676	3141.2138	3173.3417
CC1C2CC(C)(C)OC12	C[C@H]1[C@H]2CC(C)(C)O[C@@H]12	
InChI=1S/C8H14O/c1-5-6-4-8(2,3)9-7(5)6/h5-7H,4H2,1-3H3	InChI=1S/C8H14O/c1-5-6-4-8(2,3)9-7(5)6/h5-7H,4H2,1-3H3/t5-,6+,7-/m0/s1
