25
gdb 109589	2.44227	1.23638	1.01375	0.9912	88.8	-0.2392	0.0669	0.3061	1349.0609	0.227159	-389.479305	-389.468429	-389.467485	-389.51469	40.257	
C	 0.4966998213	 1.8173815341	 0.8036102395	-0.240161
O	 0.6201114219	 0.5556313202	 0.1877133121	-0.236333
C	 0.7583910471	-0.5080093784	 1.0954145065	 0.151048
C	-0.5298479551	-1.1647538285	 1.699461668	-0.055897
C	-1.8341631364	-0.826918705	 0.9799263737	-0.399226
C	 0.1136445139	-2.5593164702	 1.3817540235	 0.02762
C	-0.7496889671	-3.6933073069	 0.8433208165	-0.411191
C	 1.1616798104	-1.8603864954	 0.4483589191	-0.0604
C	 0.9368478605	-1.9612610004	-1.0593250368	-0.392942
H	 1.3746656673	 2.0491395382	 1.4273243269	 0.103545
H	 0.422203548	 2.563052838	 0.0079326725	 0.124347
H	-0.3998798053	 1.8879181274	 1.436828779	 0.10719
H	 1.4621842462	-0.2242632438	 1.893074826	 0.056105
H	-0.6632085158	-0.9814176033	 2.7710009198	 0.057562
H	-1.7465261944	-0.8997790249	-0.1063354634	 0.127382
H	-2.6384859669	-1.4971860926	 1.3008378199	 0.110497
H	-2.1492612021	 0.196270695	 1.2085741851	 0.111974
H	 0.6290782545	-2.9184663893	 2.2793558676	 0.066533
H	-1.2968560095	-3.4092635296	-0.059898631	 0.116681
H	-0.1357463624	-4.5666063253	 0.5961312357	 0.111695
H	-1.4860514495	-4.0117890675	 1.5896716953	 0.111074
H	 2.1967960547	-2.1488174194	 0.6595719317	 0.062454
H	-0.0756046764	-1.6808502199	-1.358841929	 0.122233
H	 1.6241786297	-1.2952565069	-1.5885035675	 0.121687
H	 1.1197697455	-2.9837575157	-1.4059959907	 0.106523
77.7824	109.7808	156.7581	191.1307	200.8578	207.3917	216.0961	235.0544	244.3127	256.3336	329.3356	416.8613	461.9461	532.1	544.2473	735.8006	767.9505	793.0292	807.7157	895.661	981.752	995.5367	999.6108	1026.2316	1039.8949	1045.7208	1104.2312	1150.7085	1172.588	1180.7991	1184.484	1190.6757	1201.8057	1237.0559	1278.2967	1290.7119	1297.9564	1358.3723	1361.5706	1378.7702	1392.5483	1406.6754	1412.488	1425.3976	1480.1553	1481.3718	1489.0125	1489.9954	1493.2028	1498.7231	1504.1907	1509.9316	1511.2753	2968.9329	2977.6626	3023.0856	3025.4287	3030.2074	3035.5673	3040.7308	3042.4866	3051.7772	3087.779	3096.8405	3107.103	3109.2762	3110.4505	3120.9494	3131.0159
COC1C(C)C(C)C1C	CO[C@H]1[C@@H](C)[C@@H](C)[C@H]1C	
InChI=1S/C8H16O/c1-5-6(2)8(9-4)7(5)3/h5-8H,1-4H3	InChI=1S/C8H16O/c1-5-6(2)8(9-4)7(5)3/h5-8H,1-4H3/t5-,6+,7-,8+
