19
gdb 74758	2.94091	1.49474	1.30161	1.606	81.15	-0.2188	0.0202	0.239	1064.8808	0.159489	-385.839415	-385.831748	-385.830804	-385.871234	30.792	
C	 0.0636076146	 1.4234570201	 0.0686296978	-0.519363
C	 0.008975838	-0.063376328	 0.0208107455	 0.352448
C	-0.0005467477	-0.9215372649	-1.0076129086	-0.18774
C	-0.0042527959	-2.3049457696	-0.3439212717	-0.180709
C	-1.0515490747	-2.0605733123	 0.7988867651	-0.214541
C	 0.0051047465	-0.9926129931	 1.2511815157	-0.23319
C	 1.0375221758	-2.0511968152	 0.7794051004	 0.541231
C	 1.9082533762	-2.9536880012	 1.5228579021	-0.306301
O	 2.4210339647	-1.9092790497	 0.659485826	-0.289912
H	 0.9700443246	 1.7702198123	 0.5814908507	 0.133148
H	 0.0597862253	 1.8532370258	-0.9372086343	 0.12566
H	-0.7872534915	 1.8422285816	 0.6212840552	 0.123794
H	 0.032008986	-0.7201249459	-2.0690911675	 0.096751
H	-0.0031798116	-3.1999400223	-0.9640883887	 0.066672
H	-2.0236029172	-1.6756129222	 0.4861998203	 0.098644
H	-1.1555288472	-2.8997063624	 1.4940052012	 0.095016
H	 0.0163451824	-0.5533448582	 2.2484206025	 0.064418
H	 2.0829280696	-2.7984139227	 2.5866884639	 0.116598
H	 2.0792672823	-3.9688747722	 1.1673337942	 0.117375
121.8768	180.0269	235.2724	244.2548	316.5296	356.7394	448.8754	533.0518	564.3767	637.7724	642.4176	779.4402	800.9796	826.8333	859.2132	875.2739	900.7597	933.257	987.7218	998.1766	1018.3181	1041.5515	1063.1446	1073.8149	1108.9198	1113.8139	1146.1328	1162.008	1181.5273	1205.3152	1222.8676	1240.5764	1250.5799	1308.2065	1413.6032	1435.443	1477.7164	1486.5558	1489.1645	1543.0631	1687.6478	3013.9185	3052.1563	3059.0384	3081.9005	3106.1008	3122.3732	3130.8586	3131.9735	3168.0776	3228.4704
CC1=CC2CC1C21CO1	CC1=C[C@@H]2C[C@H]1[C@]12CO1	
InChI=1S/C8H10O/c1-5-2-6-3-7(5)8(6)4-9-8/h2,6-7H,3-4H2,1H3	InChI=1S/C8H10O/c1-5-2-6-3-7(5)8(6)4-9-8/h2,6-7H,3-4H2,1H3/t6-,7-,8-/m1/s1
