19
gdb 79450	3.36144	1.51292	1.29629	2.3785	73.49	-0.2411	0.0668	0.3079	1026.4666	0.161101	-422.983066	-422.975939	-422.974995	-423.014202	29.636	
C	-0.0874340793	 1.5479639929	 0.0467831785	-0.416946
C	-0.023516908	 0.023687728	 0.0424475534	-0.003352
C	 0.7528913792	-0.5648907897	-1.1557619121	-0.071022
C	 2.0838325028	-0.4417967457	-0.379585293	 0.097559
O	 2.5430525914	-1.7401035702	-0.8104486116	-0.314593
C	 1.1137262205	-2.063764995	-0.8478421493	 0.004575
C	 0.8299030745	-2.1287918304	 0.6754976162	 0.183644
O	 1.6731433675	-3.0250933257	 1.3450181945	-0.45826
C	 1.1182343248	-0.6191208011	 0.8822202195	-0.143023
H	 0.8905070487	 2.0011695715	-0.1473924987	 0.117603
H	-0.7785947837	 1.9126525595	-0.7209984144	 0.117404
H	-0.4382625313	 1.9201336	 1.0148944042	 0.120085
H	-1.0208428231	-0.3899872387	 0.231266128	 0.068928
H	 0.6202838538	-0.2619796174	-2.1938279648	 0.077821
H	 2.8269560361	 0.3501930219	-0.4321690742	 0.092296
H	 0.8749793305	-2.9111680142	-1.4883641244	 0.085971
H	-0.2000910654	-2.3927210385	 0.9277496721	 0.084659
H	 2.5367189599	-2.921501562	 0.9191818382	 0.284218
H	 1.371883231	-0.2854153052	 1.886779738	 0.072432
204.1354	215.7307	234.9454	255.5094	364.9211	464.3815	490.289	551.4014	609.8559	702.1455	763.9418	820.2555	841.8812	849.2584	853.1368	900.3586	913.5321	930.0142	944.6777	997.726	1020.9788	1040.7457	1074.5017	1090.2884	1103.0383	1132.7244	1170.5574	1182.1117	1193.1554	1215.858	1235.3683	1269.9037	1274.8643	1280.5702	1309.7836	1340.5312	1384.6086	1414.6678	1451.7455	1494.7508	1500.0833	3029.8571	3032.4661	3086.1362	3095.3005	3100.4544	3122.3699	3136.2498	3140.2984	3152.5632	3730.4801
CC1C2C3OC2C(O)C13	C[C@H]1[C@H]2[C@@H]3O[C@H]2[C@@H](O)[C@H]13	
InChI=1S/C7H10O2/c1-2-3-5(8)7-4(2)6(3)9-7/h2-8H,1H3	InChI=1S/C7H10O2/c1-2-3-5(8)7-4(2)6(3)9-7/h2-8H,1H3/t2-,3+,4+,5+,6-,7-/m1/s1
