13
gdb 8608	2.11891	2.08603	1.48699	1.1576	71.43	-0.2565	0.0043	0.2608	913.2538	0.091148	-324.190117	-324.18127	-324.180326	-324.222832	32.664	
N	-0.0512809979	 1.4806618628	 0.0641390011	-0.507135
C	-0.0043984036	-0.0010760794	 0.0109687685	-0.348062
C	-1.3907448763	-0.5078999726	 0.0203763983	 0.40372
C	-2.5209290832	-0.9099177542	 0.0082765572	-0.464719
C	 0.68478451	-0.5063170983	-1.2004674687	 0.348969
C	 1.2526141702	-0.8552250755	-2.2000020593	-0.473016
C	 0.7130404823	-0.4838996064	 1.2072347256	 0.403727
C	 1.3146330948	-0.8661787835	 2.1721331711	-0.464722
H	 0.9054385792	 1.8244490255	 0.0239764444	 0.241724
H	-0.5173264825	 1.8082467306	-0.778834819	 0.241723
H	-3.5199830218	-1.2708101499	 0.005726454	 0.206415
H	 1.7524978865	-1.1785472564	-3.0797489323	 0.204959
H	 1.8396730524	-1.2097966926	 3.0292320491	 0.206416
122.9503	123.7817	150.9091	212.7058	228.3256	275.8345	336.6213	483.8544	495.0866	541.9516	552.8935	564.1457	645.2152	646.3133	648.5101	655.4034	661.3842	662.2726	678.9529	893.2573	1003.8629	1037.9003	1146.6457	1326.7571	1642.5084	2230.6028	2246.1183	2251.5197	3475.7232	3500.1539	3501.1925	3501.9583	3563.9241
NC(C#C)(C#C)C#C	NC(C#C)(C#C)C#C	
InChI=1S/C7H5N/c1-4-7(8,5-2)6-3/h1-3H,8H2	InChI=1S/C7H5N/c1-4-7(8,5-2)6-3/h1-3H,8H2
