18
gdb 47696	2.18974	1.65528	0.97792	3.0575	76.52	-0.2296	-0.0093	0.2203	1177.2949	0.151268	-435.317493	-435.309295	-435.308351	-435.351027	30.895	
N	-0.1092319191	 1.0069363915	-1.0534281302	-0.555639
C	-0.0729853621	 0.0747062893	-0.1742875604	 0.423256
N	-1.2549265385	-0.558425162	 0.1425518222	-0.302245
C	-1.6265858293	-1.1227172974	 1.4305391476	-0.164796
C	-0.8018908488	-2.3536066525	 1.794144864	-0.206686
C	 0.6084000446	-2.0135832781	 2.2698026029	-0.296314
C	 1.5678925449	-1.3284951511	 1.3148890664	 0.38795
O	 2.76363001	-1.5289136956	 1.3918399706	-0.34959
N	 1.1306860935	-0.3690553556	 0.4039730209	-0.373145
H	 0.8197064312	 1.3370145801	-1.3031388281	 0.207496
H	-2.0030677036	-0.0816541912	-0.3401952124	 0.254553
H	-1.5671542819	-0.3825627066	 2.246101146	 0.103708
H	-2.6784504178	-1.4070501744	 1.3398618448	 0.116954
H	-1.309082427	-2.8857423818	 2.6064091192	 0.109828
H	-0.772782658	-3.0304673153	 0.933446168	 0.119265
H	 0.5393787821	-1.3505904605	 3.1444911966	 0.133963
H	 1.1365399168	-2.9079686343	 2.6069315133	 0.13834
H	 1.9402629328	 0.0589241058	-0.0261695214	 0.253101
54.9297	86.9585	136.968	289.3624	320.972	364.5851	425.6749	497.1133	537.2852	559.875	623.7779	669.4945	693.8162	735.1311	787.4212	806.0586	880.8707	890.2219	928.5465	1001.2206	1079.6972	1098.7876	1125.4544	1195.2054	1209.6577	1249.1193	1301.7639	1333.11	1371.4261	1388.5855	1399.3589	1446.0907	1458.1405	1468.8306	1473.464	1484.8957	1511.8974	1717.9186	1779.4773	2963.8471	3017.4201	3041.8718	3085.468	3087.1256	3111.4458	3513.9879	3587.6722	3606.9247
N=C1NCCCC(=O)N1	[NH][C]1NCCCC(=O)N1	
InChI=1S/C5H9N3O/c6-5-7-3-1-2-4(9)8-5/h1-3H2,(H3,6,7,8,9)	InChI=1S/C5H9N3O/c6-5-7-3-1-2-4(9)8-5/h1-3H2,(H3,6,7,8,9)
