20
gdb 91796	2.30572	1.78128	1.3055	3.3533	73.98	-0.238	0.0663	0.3044	1045.7053	0.172544	-440.280785	-440.272578	-440.271634	-440.312897	33.209	
C	-0.5394974805	 1.2400642738	 0.1060290337	-0.505946
C	 0.1352191354	-0.0976965825	-0.0147402618	 0.322293
N	-0.4565576272	-1.285368179	 0.6626226416	-0.400611
C	 0.8849687038	-0.7836254674	 1.0664641126	-0.07948
C	 1.9984488832	-1.6239575617	 0.4620726718	-0.245972
C	 1.5688745404	-1.7933876719	-1.0132714186	 0.052984
O	 0.7158542457	-2.9141860042	-1.2139286388	-0.446765
C	 0.7869510517	-0.4864215268	-1.3447162616	 0.092798
O	-0.1084569561	-0.6522271678	-2.4151487254	-0.445033
H	 0.1580281375	 2.0521007404	-0.126447656	 0.126374
H	-1.3728855937	 1.30636385	-0.6010695535	 0.144409
H	-0.9271431953	 1.4075581268	 1.1168619328	 0.108689
H	-1.1580913326	-0.9780306732	 1.3315397146	 0.232025
H	 0.9946594379	-0.3456918195	 2.0537666959	 0.087596
H	 2.950548803	-1.0848274458	 0.5289739472	 0.105226
H	 2.1243551046	-2.5963575684	 0.9475656419	 0.114288
H	 2.4187735389	-1.9370758797	-1.6839801237	 0.085276
H	 0.021226366	-2.8105787818	-0.5377545381	 0.292519
H	 1.4914330444	 0.3119810908	-1.6173561856	 0.075408
H	-0.3034151968	-1.6020675123	-2.4244951991	 0.283923
143.5294	204.6127	212.9844	259.8582	279.4309	317.5272	408.127	433.6203	477.5205	491.1331	569.2026	641.8478	674.9148	758.416	812.7026	830.4112	848.7037	876.3735	917.008	925.6441	1001.3999	1018.4681	1042.3377	1059.7882	1107.9732	1114.3351	1128.4178	1143.3519	1208.9984	1242.0038	1258.9995	1297.6598	1310.9463	1325.5368	1347.1254	1376.6451	1412.2742	1437.5463	1451.3909	1471.2601	1481.4733	1484.1237	1502.6423	3011.7832	3027.8938	3042.6685	3089.428	3093.9534	3095.3262	3101.8389	3160.908	3500.9111	3601.2663	3703.871
CC12NC1CC(O)C2O	C[C@]12N[C@H]1C[C@@H](O)[C@H]2O	
InChI=1S/C6H11NO2/c1-6-4(7-6)2-3(8)5(6)9/h3-5,7-9H,2H2,1H3	InChI=1S/C6H11NO2/c1-6-4(7-6)2-3(8)5(6)9/h3-5,7-9H,2H2,1H3/t3-,4+,5-,6+/m1/s1
