15
gdb 22572	4.45041	1.04638	0.86615	3.482	75.7	-0.2445	-0.0708	0.1737	1246.5611	0.114058	-453.948646	-453.940802	-453.939858	-453.981232	29.432	
O	-0.0424070471	 1.3668488664	 0.2442842043	-0.383735
N	 0.0681903362	-0.0158122294	 0.1106884687	-0.196312
C	-1.0677525109	-0.5850096339	-0.0752741015	 0.346137
C	-1.0549615748	-2.0945530872	-0.1459019237	-0.242349
N	-2.1163261439	-2.5860536378	-1.0124942088	-0.347533
C	-3.3516894522	-1.9984498372	-1.1192828099	 0.39941
O	-4.3036259323	-2.5585915643	-1.6355008221	-0.373626
C	-3.4320987524	-0.6010849003	-0.6167830492	-0.172891
C	-2.3639898604	 0.0737492194	-0.1662850635	-0.127239
H	 0.8721882665	 1.6343857268	 0.3841261743	 0.314649
H	-0.0847242947	-2.4330906419	-0.5164727055	 0.140429
H	-1.1708939779	-2.4915257461	 0.8765553045	 0.127796
H	-2.0999187019	-3.5613303026	-1.2727601357	 0.252006
H	-4.4122712414	-0.1467516499	-0.7021009623	 0.128183
H	-2.424403913	 1.117177348	 0.1176745802	 0.135077
73.5566	154.4508	223.5549	269.7848	291.9364	394.5337	413.2161	442.078	515.1405	579.1875	588.9505	622.5929	738.2542	789.1687	798.1704	862.2512	939.6451	989.836	1021.1498	1028.0805	1087.0368	1159.6698	1248.876	1281.0835	1320.7345	1376.2845	1398.4119	1417.7942	1476.7072	1509.7941	1657.4727	1698.9168	1779.4547	2960.0821	3097.5087	3203.6373	3220.8849	3615.4855	3820.0934
ON=C1CNC(=O)C=C1	ON=C1CNC(=O)C=C1	
InChI=1S/C5H6N2O2/c8-5-2-1-4(7-9)3-6-5/h1-2,9H,3H2,(H,6,8)	InChI=1S/C5H6N2O2/c8-5-2-1-4(7-9)3-6-5/h1-2,9H,3H2,(H,6,8)
