17
gdb 73408	2.74321	2.01422	1.53088	1.147	66.11	-0.226	0.0553	0.2812	885.3443	0.1379	-458.930165	-458.923474	-458.92253	-458.960833	27.654	
O	 0.1094058714	 1.3887901508	 0.1241479881	-0.490243
C	 0.021348668	 0.0113085558	 0.0580699263	 0.370162
C	 0.8550625108	-0.7739090815	 1.0593143197	-0.126536
O	 0.5282488601	-2.121196874	 0.661589884	-0.28228
C	-0.38101938	-1.9135393495	-0.4143489131	 0.09138
C	-1.3537827945	-0.7800858064	 0.0272009462	-0.159141
C	-1.9771637232	-0.3117282886	-1.2769278185	-0.123253
O	-0.8110509713	-0.2894890958	-2.1427981391	-0.294294
C	 0.2139576435	-0.7708975871	-1.2799368198	 0.013444
H	-0.1658838996	 1.7347028015	-0.7340434093	 0.295926
H	 1.9305228486	-0.5905010815	 0.9527139277	 0.110166
H	 0.5647947874	-0.5991167735	 2.1019140494	 0.11106
H	-0.719088321	-2.8594288976	-0.8317953208	 0.09409
H	-1.9819181002	-0.8783562966	 0.9114520912	 0.082092
H	-2.7289537261	-0.998110024	-1.6831910719	 0.111417
H	-2.4157489995	 0.6920798106	-1.2167525815	 0.105253
H	 1.1647346955	-0.8433839127	-1.8060384186	 0.090755
210.3147	253.0845	289.3504	361.3732	383.0353	417.4088	453.8743	619.0325	663.6361	672.5372	731.3031	778.2159	908.2155	932.6781	943.8202	956.6331	971.6087	1002.5402	1013.1845	1057.0823	1073.6616	1083.0686	1098.6558	1132.8226	1173.5256	1184.8552	1203.3463	1227.7921	1249.65	1260.8083	1299.0169	1304.0625	1363.6222	1397.5673	1421.1732	1529.1143	1530.2227	3020.5841	3026.1324	3059.4372	3066.9056	3133.5523	3138.4974	3154.2926	3779.6523
OC12COC3C1COC23	O[C@@]12CO[C@H]3[C@@H]1CO[C@@H]23	
InChI=1S/C6H8O3/c7-6-2-9-4-3(6)1-8-5(4)6/h3-5,7H,1-2H2	InChI=1S/C6H8O3/c7-6-2-9-4-3(6)1-8-5(4)6/h3-5,7H,1-2H2/t3-,4-,5+,6-/m0/s1
