19
gdb 68095	2.48866	1.64978	1.31788	2.1644	75.03	-0.2307	-0.0066	0.2241	1044.4354	0.15887	-423.040669	-423.032092	-423.031148	-423.07329	33.222	
C	-0.0415809706	 1.5106891856	-0.0554549006	-0.494315
C	-0.0083830368	 0.005164143	-0.005741103	 0.195963
C	 0.6808209626	-0.8872588912	-1.0999133955	-0.336733
C	-0.2597275685	-2.0324306455	-0.5354053404	 0.315528
O	-0.5919919396	-3.1877068774	-1.2119512971	-0.483577
C	 0.2977859261	-2.2079554106	 0.8864618501	-0.259246
C	 0.4776571008	-0.703874017	 1.2854735345	-0.258377
C	-1.2309400216	-0.8600239862	-0.362099393	 0.333415
O	-2.3702598841	-0.6681598873	-0.6846123509	-0.34476
H	 0.9615173034	 1.9353830268	 0.0590258796	 0.119715
H	-0.4561105485	 1.8660520358	-1.0037760819	 0.127616
H	-0.6668546491	 1.9103650175	 0.7502295939	 0.127926
H	 0.4336322008	-0.592119676	-2.1216914408	 0.111484
H	 1.7543551238	-1.0537277296	-0.9823184573	 0.108382
H	-1.3467749863	-2.9896069274	-1.7800777236	 0.2942
H	-0.4049954389	-2.7442371475	 1.5289354962	 0.114772
H	 1.2400813926	-2.7619982121	 0.8761173876	 0.111889
H	 1.5200225302	-0.4511468534	 1.5012144423	 0.106169
H	-0.1224389766	-0.4238830174	 2.15599789	 0.109949
135.3837	173.2042	182.2052	217.6827	247.8408	280.3133	312.9844	398.2835	432.5981	544.4574	564.4351	593.3618	694.3012	716.8194	788.3171	864.2044	879.3911	902.0128	921.4539	957.8114	966.7457	1005.9145	1058.5046	1071.1266	1120.0628	1146.8829	1181.5641	1216.2625	1233.566	1247.7204	1258.0467	1356.9576	1365.3151	1397.4343	1419.3221	1483.817	1489.9182	1490.7552	1497.0017	1519.3562	1879.1893	3031.3413	3049.1398	3061.688	3064.4123	3090.3213	3095.7199	3105.3068	3112.9402	3133.6713	3778.8279
CC12CC(O)(CC1)C2=O	C[C@@]12C[C@@](O)(CC1)C2=O	
InChI=1S/C7H10O2/c1-6-2-3-7(9,4-6)5(6)8/h9H,2-4H2,1H3	InChI=1S/C7H10O2/c1-6-2-3-7(9,4-6)5(6)8/h9H,2-4H2,1H3/t6-,7-/m0/s1
