16
gdb 42923	2.9541	1.32649	1.01891	2.7922	69.46	-0.2398	-0.0373	0.2024	1143.4584	0.123921	-437.817959	-437.810253	-437.809309	-437.850907	28.591	
O	-0.2760956844	-0.0111126709	 0.0124691379	-0.290689
C	-0.1884099396	 1.1769719756	 0.0567796856	 0.413083
C	-1.1674808421	 2.3382297121	-0.0898021925	-0.118564
O	-0.883088107	 3.1901090603	 1.0438278282	-0.228383
C	-0.0236990104	 3.2853661949	-0.0841916721	 0.017239
C	 1.0322616907	 2.1742129804	 0.0859198975	-0.184302
C	 1.9319989597	 2.2234796503	 1.2879773979	 0.016982
C	 3.125760517	 1.3458322701	 1.3590145123	-0.23867
N	 3.2868590864	 2.8011637176	 1.1966724565	-0.323916
H	-2.1554598484	 2.3998899517	-0.5290452257	 0.13065
H	 0.0550633526	 4.2402638397	-0.5890700507	 0.125775
H	 1.6095137791	 2.0028373493	-0.8329156466	 0.099219
H	 1.4181808012	 2.473528727	 2.2118348533	 0.112532
H	 3.4513157245	 0.9514196852	 2.3168631485	 0.126294
H	 3.32998671	 0.696921926	 0.5109807593	 0.116898
H	 3.5086344406	 3.0146217107	 0.2263566406	 0.225853
69.5261	113.2974	155.8435	206.2188	307.2561	353.9469	521.6144	538.8619	623.675	726.0863	809.4926	825.8067	849.6492	859.4554	886.8363	918.6252	943.6288	965.663	1004.4244	1021.7029	1053.9991	1079.4859	1132.2875	1155.564	1168.6432	1208.1039	1221.7098	1245.6919	1254.7079	1283.4801	1310.0088	1343.7316	1431.1313	1516.2066	1904.4083	3028.7793	3111.7907	3154.0206	3196.6449	3197.5631	3209.7907	3485.7961
O=C1C2OC2C1C1CN1	O=C1[C@H]2O[C@H]2[C@H]1[C@H]1CN1	
InChI=1S/C6H7NO2/c8-4-3(2-1-7-2)5-6(4)9-5/h2-3,5-7H,1H2	InChI=1S/C6H7NO2/c8-4-3(2-1-7-2)5-6(4)9-5/h2-3,5-7H,1H2/t2-,3+,5+,6-/m1/s1
