19
gdb 105447	2.26868	1.48848	1.23972	1.6052	76.55	-0.2423	-0.0287	0.2137	1115.7086	0.157474	-423.033148	-423.024093	-423.023149	-423.067427	33.108	
C	 0.0069387725	 1.4339792142	-0.3518694858	-0.257423
O	 0.0035952237	 0.019320972	-0.2797613823	-0.287271
C	 0.4844008938	-0.5270541238	 0.9408088447	 0.327708
C	-0.3189743174	-0.1487830247	 2.2144929992	-0.326298
C	-0.5501944492	-1.4714931652	 2.8994331464	-0.053881
C	-0.1713136007	-2.5064755129	 2.1539582104	-0.05721
C	 0.3827624775	-2.0782768334	 0.8218426553	-0.337457
C	 1.9708511866	-0.1807224844	 1.0690146565	 0.105669
O	 2.5302568865	 0.1687033932	 2.0743901705	-0.243279
H	 1.0099950947	 1.8592229736	-0.2017375315	 0.11728
H	-0.3366475898	 1.6961310999	-1.3548751524	 0.133733
H	-0.6709089984	 1.8872035055	 0.3837410085	 0.116651
H	 0.2392155916	 0.5547613007	 2.8405360655	 0.127535
H	-1.2679628925	 0.3283589664	 1.939738004	 0.113228
H	-0.9953892718	-1.5390461873	 3.8857432709	 0.097085
H	-0.2554505034	-3.5498748539	 2.4354056851	 0.097217
H	-0.2885925566	-2.3148944241	-0.0129524466	 0.129347
H	 1.3483692267	-2.544561774	 0.5845624756	 0.108601
H	 2.5161929662	-0.3085578017	 0.1049396359	 0.088764
52.143	88.7353	135.461	194.0675	217.7679	279.7741	325.2807	382.5567	399.7922	447.0759	565.4913	604.7453	706.7259	770.2472	799.6569	884.4048	933.1601	962.2461	978.4733	985.1743	991.0715	1068.0198	1086.6411	1131.1437	1145.6969	1152.5657	1180.6654	1183.9437	1230.9805	1272.3362	1300.6244	1340.5554	1366.9709	1401.2425	1461.7217	1478.761	1483.6051	1490.4757	1509.629	1696.7495	1834.0151	2867.091	2992.7385	3015.8251	3029.6216	3047.9727	3050.6429	3078.4689	3122.3039	3186.5724	3211.4528
COC1(CC=CC1)C=O	CO[C@]1(CC=CC1)C=O	
InChI=1S/C7H10O2/c1-9-7(6-8)4-2-3-5-7/h2-3,6H,4-5H2,1H3	InChI=1S/C7H10O2/c1-9-7(6-8)4-2-3-5-7/h2-3,6H,4-5H2,1H3
