19
gdb 60192	2.55674	0.97554	0.80112	1.8313	77.64	-0.256	0.0207	0.2767	1467.4725	0.155675	-422.969129	-422.959111	-422.958167	-423.00496	36.546	
C	-0.2431662099	 1.5257973657	 0.0916742678	-0.403484
C	-0.3622778554	 0.0162129075	-0.1091739803	 0.137823
O	 0.9161269138	-0.61839822	-0.0609839617	-0.431646
C	-1.3395489166	-0.6262316782	 0.8871772787	-0.264687
C	-1.4978984447	-2.1078501469	 0.6514192374	 0.086425
O	-2.5500055314	-2.7758539371	 1.3440781474	-0.253116
C	-2.6457605347	-2.684909964	-0.0881053415	-0.155305
C	-3.7000345928	-1.8732407298	-0.6351487185	 0.343201
C	-4.5800642356	-1.216496606	-1.1252048096	-0.4388
H	 0.4745716724	 1.9459201962	-0.6178984671	 0.125772
H	-1.2081405099	 2.0219886846	-0.0516760785	 0.122375
H	 0.1020962701	 1.7570751552	 1.1075871551	 0.107806
H	-0.7214191952	-0.1813181876	-1.1265505495	 0.099968
H	 1.3222341987	-0.3914762334	 0.7834479116	 0.277228
H	-0.9661385594	-0.4689807307	 1.9094667028	 0.096994
H	-2.3171828939	-0.1389342476	 0.8237726118	 0.120061
H	-0.5644783846	-2.6680051791	 0.6037685484	 0.108934
H	-2.4899072466	-3.6340914146	-0.6004080335	 0.116827
H	-5.3634033541	-0.6385227243	-1.5499771609	 0.203625
31.3693	68.7724	146.7149	157.191	222.2155	236.8768	292.489	316.0231	363.8651	385.0812	472.6153	491.8402	553.1587	595.0833	622.9203	668.0072	800.8358	820.6416	855.84	915.7077	938.8299	984.3315	1029.3483	1057.0916	1084.508	1126.6914	1146.2365	1171.9956	1217.9586	1277.1654	1297.8075	1325.8647	1372.8994	1389.3424	1403.6807	1421.169	1454.8564	1474.5708	1492.5309	1495.4972	2237.4328	3010.6707	3024.2639	3043.7387	3088.4327	3097.4278	3109.8588	3120.6406	3125.8304	3502.3366	3793.0974
CC(O)CC1OC1C#C	C[C@@H](O)C[C@H]1O[C@H]1C#C	
InChI=1S/C7H10O2/c1-3-6-7(9-6)4-5(2)8/h1,5-8H,4H2,2H3	InChI=1S/C7H10O2/c1-3-6-7(9-6)4-5(2)8/h1,5-8H,4H2,2H3/t5-,6+,7-/m1/s1
