19
gdb 95634	2.33981	1.60059	1.07495	3.421	71.58	-0.2576	0.0026	0.2602	1142.3873	0.159805	-460.205787	-460.197015	-460.196071	-460.239568	32.838	
C	 0.0670528834	 1.6046746362	-0.0378045929	-0.410219
C	 0.0576205599	 0.0742670971	-0.0729497454	 0.008461
C	 0.8336332053	-0.5194282156	-1.2508879796	-0.228178
C	 0.6194405259	-2.0232586258	-1.2842700637	-0.072991
O	 0.9516019652	-2.6812746901	-0.0436194282	-0.224909
C	 0.9325820333	-2.0431071436	 1.1385725963	 0.393638
O	 1.2483910479	-2.6361258799	 2.1396347812	-0.347328
C	 0.6112155323	-0.5386934413	 1.215913191	 0.004701
O	 1.833541296	 0.111632875	 1.5482916377	-0.437439
H	 1.0874536855	 1.9864230372	 0.038252851	 0.141957
H	-0.3913638766	 2.010560188	-0.9450973894	 0.109749
H	-0.4952996112	 1.9821613845	 0.8224029558	 0.117147
H	-0.9857271761	-0.2640873074	-0.1548141445	 0.077676
H	 0.4944710903	-0.0977655496	-2.2031645552	 0.105592
H	 1.8995077697	-0.2881293102	-1.1456677903	 0.127939
H	-0.4284373289	-2.2578773255	-1.5111399159	 0.116175
H	 1.2441256355	-2.5115258876	-2.0363745944	 0.126092
H	-0.1160844507	-0.4239536756	 2.0330486558	 0.093083
H	 2.2106218534	-0.3800224757	 2.2883864506	 0.298855
45.7668	116.2419	215.8302	235.921	261.764	287.3392	297.784	414.979	426.0289	452.7424	509.521	612.2237	649.4808	715.2809	804.9119	868.7481	911.5828	952.6745	973.973	1005.41	1017.1071	1080.4467	1114.4921	1152.6403	1157.9683	1208.6123	1261.1485	1276.1715	1283.7201	1326.459	1339.0726	1368.972	1393.3051	1408.8587	1433.7474	1434.7571	1479.9045	1492.2396	1503.6711	1515.8924	1818.6106	2990.5604	3005.2426	3027.1742	3039.7403	3044.7191	3089.1599	3099.7072	3103.3016	3131.9933	3788.792
CC1CCOC(=O)C1O	C[C@H]1CCOC(=O)[C@H]1O	
InChI=1S/C6H10O3/c1-4-2-3-9-6(8)5(4)7/h4-5,7H,2-3H2,1H3	InChI=1S/C6H10O3/c1-4-2-3-9-6(8)5(4)7/h4-5,7H,2-3H2,1H3/t4-,5-/m0/s1
