15
gdb 20235	4.33413	2.69106	2.30987	1.276	61.54	-0.2497	0.0703	0.32	641.446	0.122454	-362.599065	-362.594005	-362.593061	-362.627967	21.247	
C	-0.0350114282	 1.5993180198	-0.0139051179	-0.093065
O	 1.3305790775	 2.0579132613	-0.0408690793	-0.27601
C	 2.1579919077	 0.9138600965	 0.0283956712	 0.111858
C	 2.0848209663	 0.088518373	 1.3157106701	-0.073502
C	 0.7026641553	-0.4787479278	 1.3020957181	-0.047427
C	 0.0587782044	 0.0707167899	 0.0259623408	-0.074243
C	 1.4291796511	-0.2915207005	-0.5978016927	-0.038238
N	 1.805797286	-1.204615149	 0.592606106	-0.179234
H	-0.5452228488	 2.0041514761	 0.8690959862	 0.105532
H	-0.5493165591	 1.9693423738	-0.9100383664	 0.10349
H	 3.1565619881	 1.1635335089	-0.3274807289	 0.092294
H	 2.7070400631	 0.1253826389	 2.2015986406	 0.097584
H	 0.2250494975	-0.88802499	 2.1844563034	 0.098716
H	-0.8136950032	-0.4745970976	-0.3311981662	 0.085945
H	 1.5664113022	-0.6264613033	-1.6225825551	 0.0863
224.0233	389.7216	498.474	664.0207	692.3792	772.7263	793.1546	819.3004	827.0354	873.1592	896.8622	909.1511	931.9551	953.0438	989.9703	1016.5715	1035.5431	1046.6553	1071.1866	1088.2289	1135.9754	1152.2348	1204.7949	1209.4486	1226.6946	1257.331	1284.6584	1309.2746	1341.925	1364.6216	1390.1338	1520.3945	3014.3729	3050.8982	3128.7073	3133.0793	3155.6406	3182.3882	3195.4362
C1OC2C3C4C1C2N34	C1O[C@H]2[C@H]3[C@H]4[C@@H]1[C@@H]2N34	
InChI=1S/C6H7NO/c1-2-3-5-6(8-1)4(2)7(3)5/h2-6H,1H2	InChI=1S/C6H7NO/c1-2-3-5-6(8-1)4(2)7(3)5/h2-6H,1H2/t2-,3-,4+,5-,6-,7?/m1/s1
