18
gdb 33142	3.18385	1.02771	0.78571	2.4929	75.26	-0.1954	0.0341	0.2295	1430.2374	0.147483	-439.088494	-439.079268	-439.078324	-439.123282	33.051	
C	-0.0691961177	 1.3888622486	-0.0036249658	-0.222228
O	-0.0040865253	-0.016066031	 0.0194528329	-0.231827
C	 0.6077307836	-0.5544722058	-1.1301864562	-0.180732
C	 0.6166669676	-2.0437768869	-1.0289431014	 0.188363
C	 0.1184681339	-2.8101496312	-0.023573756	-0.085123
O	 0.275932166	-4.1283255232	-0.2933699959	-0.154225
C	 0.9063131149	-4.2131075741	-1.5040612213	-0.07711
C	 1.1358087263	-2.9669266363	-2.0056551808	 0.095518
N	 1.6712812885	-2.5966852735	-3.252583988	-0.609365
H	 0.9330770739	 1.8441541149	-0.0519686527	 0.103421
H	-0.6540615604	 1.7571775696	-0.8614217776	 0.106052
H	-0.5573305899	 1.7083583457	 0.9200758945	 0.128834
H	 0.0705057093	-0.2373190152	-2.0425509584	 0.105396
H	 1.638124782	-0.1613508944	-1.2315771494	 0.084184
H	-0.3628000114	-2.5618176588	 0.9061407151	 0.143522
H	 1.104470741	-5.2064670366	-1.8699604049	 0.120031
H	 2.0922134994	-3.3790812976	-3.7381646086	 0.242323
H	 2.3624071682	-1.8594785742	-3.1733407055	 0.242966
53.1132	80.6165	119.3288	212.7916	231.1632	242.7646	277.4417	333.1116	353.2759	496.1868	607.0425	639.4938	647.8818	692.7509	777.712	781.9124	805.6169	904.1961	995.5298	1049.5463	1075.3851	1109.3017	1161.0215	1184.7616	1193.9066	1207.0298	1231.6652	1253.5983	1257.8171	1329.6919	1407.1194	1454.5395	1483.9816	1485.2569	1502.1208	1525.6678	1592.1879	1648.594	1682.2575	2909.8988	2942.4259	2969.5198	3012.6607	3116.492	3277.3139	3295.4382	3518.5429	3608.0028
COCC1=COC=C1N	COCc1cocc1N	
InChI=1S/C6H9NO2/c1-8-2-5-3-9-4-6(5)7/h3-4H,2,7H2,1H3	InChI=1S/C6H9NO2/c1-8-2-5-3-9-4-6(5)7/h3-4H,2,7H2,1H3
