16
gdb 53136	2.87958	1.1514	0.98432	3.8765	78.13	-0.2429	-0.0147	0.2282	1251.4953	0.122638	-400.703781	-400.69507	-400.694126	-400.738601	30.952	
C	-0.0429104979	 1.4691113137	 0.0000706042	-0.500949
C	 0.0045586012	 0.017447512	 0.0788787081	 0.081821
C	 0.0369995071	-1.1854438477	 0.1396826996	 0.114974
C	 0.0881115922	-2.6192830291	 0.187130898	-0.220663
C	-0.4683573463	-3.4250638927	 1.2954879401	-0.028955
C	-1.6772982992	-2.7561236631	 1.9424733439	-0.385349
C	-2.2616094671	-2.7523171995	 0.518737602	 0.415283
O	-3.2865186481	-2.426566338	 0.014032984	-0.285679
N	-1.1374320188	-3.4744459039	-0.078625239	-0.197901
H	 0.5966648675	 1.8409437856	-0.8075010897	 0.15665
H	-1.0632172726	 1.8157419131	-0.1957963063	 0.162342
H	 0.2943155839	 1.9309179423	 0.9343537081	 0.152944
H	 0.9413555291	-3.0605143978	-0.3220547313	 0.132448
H	 0.0419900278	-4.3013813603	 1.6766837208	 0.116688
H	-2.2458866918	-3.4146728734	 2.6036853332	 0.142931
H	-1.5266863671	-1.7872822011	 2.4220348744	 0.143415
34.2565	67.4942	101.9558	166.1834	253.9193	319.9172	382.8178	466.7462	474.641	527.7539	578.4639	661.3461	738.3068	783.7082	822.2386	852.8908	958.8227	987.4416	1021.062	1050.5088	1053.0695	1062.9206	1071.1968	1127.6101	1176.1632	1226.6761	1248.6287	1336.2194	1400.8962	1414.3964	1448.1343	1475.1296	1475.9441	1926.9592	2367.6788	3031.2456	3077.8177	3093.6916	3096.6705	3135.6468	3142.2036	3192.5823
CC#CC1C2CC(=O)N12	CC#C[C@H]1[C@H]2CC(=O)N12	
InChI=1S/C7H7NO/c1-2-3-5-6-4-7(9)8(5)6/h5-6H,4H2,1H3	InChI=1S/C7H7NO/c1-2-3-5-6-4-7(9)8(5)6/h5-6H,4H2,1H3/t5-,6+,8?/m0/s1
