19
gdb 65208	3.11151	1.3787	1.20681	3.2836	74.2	-0.2471	0.0798	0.3269	1094.9284	0.157814	-422.962786	-422.954485	-422.953541	-422.995913	31.8	
C	-0.0163866381	 1.5983215409	-0.2723571944	-0.467075
C	-0.0083631487	 0.1093980076	-0.0027977306	 0.421282
C	 1.1604171543	-0.6969981703	-0.3877587143	-0.23589
O	 0.9488438593	-0.3182774939	 0.9742205743	-0.258579
C	-1.3724660254	-0.5495686329	 0.0630106978	-0.107049
C	-1.5261209456	-1.9329892891	 0.7955514049	-0.2809
C	-2.5744771804	-1.2753908984	 1.7048536842	 0.029955
O	-1.9359378548	-0.183706567	 2.374136771	-0.234247
C	-2.4165549788	 0.0284312539	 1.0445811965	 0.012281
H	 1.0039312781	 1.9835657801	-0.3365036928	 0.127219
H	-0.5348174165	 1.823742491	-1.2110508398	 0.115795
H	-0.5307502558	 2.1292868497	 0.5351338694	 0.138168
H	 1.0427630743	-1.7594747683	-0.6000090721	 0.107977
H	 2.0061895929	-0.2197466265	-0.8817261091	 0.109958
H	-1.7969307745	-0.5964166155	-0.9464087823	 0.083597
H	-1.9313093938	-2.7130120362	 0.1474230374	 0.102008
H	-0.6381653171	-2.2920023314	 1.3176244085	 0.13105
H	-3.4347702525	-1.7196870353	 2.1911016399	 0.105051
H	-3.120839037	 0.8386601917	 0.8926051815	 0.099397
59.184	121.121	187.537	201.9743	322.5115	337.155	363.0197	414.747	478.005	557.8561	717.988	751.7464	811.1868	842.3072	863.007	872.2662	921.1166	924.5053	944.6262	988.233	1002.7393	1025.9529	1041.6389	1070.7835	1104.7672	1136.3208	1150.4633	1171.8709	1212.0534	1234.6653	1244.6229	1253.012	1276.911	1355.0342	1387.1661	1399.8815	1415.2661	1466.0847	1483.4689	1497.2293	1531.0918	3035.2972	3046.3726	3075.6808	3076.7582	3100.5371	3124.7207	3140.4486	3159.9806	3176.1851	3195.0576
CC1(CO1)C1CC2OC12	C[C@]1(CO1)[C@H]1C[C@H]2O[C@@H]12	
InChI=1S/C7H10O2/c1-7(3-8-7)4-2-5-6(4)9-5/h4-6H,2-3H2,1H3	InChI=1S/C7H10O2/c1-7(3-8-7)4-2-5-6(4)9-5/h4-6H,2-3H2,1H3/t4-,5+,6-,7-/m0/s1
