21
gdb 91181	2.23367	1.57419	1.43952	1.3631	82.6	-0.2351	0.027	0.2621	1076.2901	0.182805	-387.094396	-387.085822	-387.084878	-387.127647	33.953	
C	 0.1374384605	 1.6078569613	-0.1370095083	-0.417552
C	 0.0599410361	 0.0987128482	 0.0430140489	-0.011757
C	 0.8601131197	-0.8061398187	-0.9397187193	-0.262284
C	 1.3770663456	-1.6545660604	 0.2709364969	-0.067757
C	 2.8507375054	-1.6214627348	 0.545047834	-0.082638
C	 3.1704975915	-0.6805479133	 1.4345747242	-0.062023
C	 1.9680104148	 0.082698219	 1.9410540579	-0.342801
C	 0.7599195008	-0.6153778807	 1.2529231816	 0.380299
O	-0.1229723547	-1.208531678	 2.1861493998	-0.480111
H	 1.1734714184	 1.955248467	-0.2148619905	 0.117711
H	-0.3765001955	 1.9134339218	-1.0552248505	 0.115722
H	-0.3340281609	 2.1429476238	 0.695884588	 0.106179
H	-0.9882327507	-0.2170472533	 0.0648422627	 0.075366
H	 0.2680593128	-1.3392286762	-1.6868307455	 0.098318
H	 1.6684395988	-0.2742004019	-1.4491698758	 0.095843
H	 0.9233361522	-2.6467046432	 0.3342496817	 0.080483
H	 3.559828658	-2.2747945552	 0.0474543184	 0.090225
H	 4.1768226082	-0.4615004413	 1.7762229128	 0.0899
H	 1.8670709484	 0.0072131426	 3.0317615475	 0.101788
H	 2.0386169356	 1.1521857702	 1.7074670939	 0.10268
H	-0.4901409751	-0.5087622768	 2.7375933815	 0.272409
38.0326	205.4424	215.2187	240.2452	263.7016	300.3513	359.107	419.3498	468.2433	494.8116	576.7137	621.627	727.2439	751.2528	787.3693	844.2248	877.0071	899.0933	934.5011	957.4654	971.2909	989.9901	1010.7066	1036.2272	1086.1695	1103.761	1120.9299	1131.2455	1161.6464	1179.2269	1206.6223	1233.5275	1255.5714	1284.6936	1294.9412	1299.8799	1351.2236	1379.4453	1384.136	1407.9816	1469.6565	1488.2613	1494.7882	1504.174	1679.6327	3016.9419	3021.8941	3048.4585	3049.4268	3057.7028	3079.0098	3084.6384	3092.8108	3114.3911	3174.4445	3199.8575	3795.7266
CC1CC2C=CCC12O	C[C@H]1C[C@H]2C=CC[C@@]12O	
InChI=1S/C8H12O/c1-6-5-7-3-2-4-8(6,7)9/h2-3,6-7,9H,4-5H2,1H3	InChI=1S/C8H12O/c1-6-5-7-3-2-4-8(6,7)9/h2-3,6-7,9H,4-5H2,1H3/t6-,7+,8+/m0/s1
