19
gdb 81141	2.44642	1.67668	1.2319	1.9581	81.87	-0.2351	0.0327	0.2678	1074.0841	0.158947	-385.834366	-385.826213	-385.825268	-385.866622	32.575	
C	-0.1880874272	 1.5509203688	-0.0151988792	-0.437591
C	 0.0039483154	 0.04283294	-0.0164322213	-0.008091
C	 0.8160583042	-0.610216725	-1.1886753453	-0.119304
C	 2.1129521679	-0.2230755504	-0.4143375392	-0.288541
C	 1.1987741216	-0.5661825104	 0.7968524439	 0.353937
O	 0.9842739637	-1.9872307346	 0.6332649829	-0.328798
C	 0.7056816523	-2.0836635811	-0.7851590774	-0.085138
C	 1.4931969231	-0.2096060114	 2.1590037179	 0.129635
C	 1.729183598	 0.1445604838	 3.2831130802	-0.352591
H	 0.7126771116	 2.1025893543	-0.2958415519	 0.120195
H	-0.9790057178	 1.8316667392	-0.7188498198	 0.119347
H	-0.4900611934	 1.8945047118	 0.9796593679	 0.131171
H	-0.9427116505	-0.4549783266	 0.2181971238	 0.080711
H	 0.6527112372	-0.3508520587	-2.2339857599	 0.075993
H	 2.9976476285	-0.8511424911	-0.5383602876	 0.10694
H	 2.3748167483	 0.830708992	-0.4839612035	 0.11407
H	-0.2933865334	-2.5065930937	-0.9416946792	 0.101646
H	 1.4486124143	-2.7292468083	-1.2678994425	 0.101155
H	 1.9414412463	 0.4442620312	 4.2795907202	 0.185254
122.6615	150.8197	187.4747	269.6059	289.6135	352.4757	463.7879	477.3467	515.1395	554.4666	577.6097	626.2474	655.5634	672.257	787.5882	837.285	887.6431	907.3167	945.1677	962.4796	978.5885	989.9557	1057.7025	1077.0416	1097.9919	1110.5985	1141.4678	1161.0548	1187.4212	1225.8631	1249.0306	1265.7504	1297.0372	1353.039	1383.5352	1416.6654	1487.3123	1496.4673	1508.2035	1529.917	2243.0076	3023.5919	3037.7109	3052.7124	3065.1558	3084.2798	3098.2564	3117.2076	3126.6288	3161.906	3502.0344
CC1C2CC1(OC2)C#C	C[C@H]1[C@H]2C[C@@]1(OC2)C#C	
InChI=1S/C8H10O/c1-3-8-4-7(5-9-8)6(8)2/h1,6-7H,4-5H2,2H3	InChI=1S/C8H10O/c1-3-8-4-7(5-9-8)6(8)2/h1,6-7H,4-5H2,2H3/t6-,7-,8-/m0/s1
