20
gdb 64303	2.31721	1.54232	1.16468	5.2233	85.41	-0.2073	-0.028	0.1793	1133.7279	0.170759	-403.184471	-403.175299	-403.174355	-403.217975	34.781	
C	 0.0502822212	 1.5175751412	-0.0147006661	-0.429399
C	-0.0436660718	-0.0219016936	-0.0089424452	 0.185213
C	-1.5148842391	-0.4598764171	-0.0494565057	-0.436363
C	 0.7724199176	-0.6341965616	-1.1955365011	-0.208101
N	 2.0490307024	-1.0372778984	-0.5824359945	-0.287498
C	 1.8822275306	-1.1282613755	 0.7674552915	-0.088719
C	 0.7177680184	-0.5808392981	 1.1967593625	 0.155967
C	 0.3475921398	-0.4502041937	 2.5802231406	 0.058713
O	-0.658709944	 0.0979052449	 3.0021890352	-0.322317
H	 1.0937101728	 1.8478404507	-0.0438523488	 0.112312
H	-0.4655542362	 1.9353838871	-0.8872023313	 0.1042
H	-0.4126588066	 1.9234280603	 0.8881207366	 0.145359
H	-2.0055891664	-0.0884011247	-0.9568362558	 0.102886
H	-1.6014926885	-1.5512113741	-0.0381966282	 0.104591
H	-2.0453673378	-0.0687109592	 0.820816894	 0.153076
H	 0.2579721277	-1.5103182166	-1.6139354826	 0.104263
H	 0.9378396156	 0.0833074324	-2.0047399322	 0.113472
H	 2.6683989754	-1.6667643627	-1.0675216259	 0.251297
H	 2.6640757213	-1.5656786179	 1.3781792887	 0.133419
H	 1.0770554875	-0.9095713234	 3.2889219583	 0.047631
76.8748	145.2393	178.276	237.4801	244.5083	279.7465	318.1453	358.2739	386.9079	393.1152	464.8877	483.5447	601.2478	642.1542	707.6435	810.4687	879.4591	922.2561	940.8209	963.6115	969.7513	1005.4865	1024.7504	1043.3387	1145.6786	1179.1584	1201.9985	1227.5535	1255.7789	1294.2286	1334.4596	1355.685	1391.4477	1412.8147	1428.5185	1475.0372	1480.1397	1495.5868	1499.7468	1515.5748	1522.1911	1653.0114	1745.7076	2839.9278	3004.035	3025.5193	3030.4887	3075.5198	3091.5803	3094.854	3125.8629	3137.4491	3204.4242	3632.4337
CC1(C)CNC=C1C=O	CC1(C)CNC=C1C=O	
InChI=1S/C7H11NO/c1-7(2)5-8-3-6(7)4-9/h3-4,8H,5H2,1-2H3	InChI=1S/C7H11NO/c1-7(2)5-8-3-6(7)4-9/h3-4,8H,5H2,1-2H3
