15
gdb 133015	5.01069	1.00839	0.84382	2.6837	76.59	-0.1989	-0.0597	0.1392	1277.9204	0.112852	-458.114285	-458.10624	-458.105296	-458.147559	29.2	
C	-0.014621838	 1.4255944448	-0.106059047	-0.324548
N	 0.1237191694	-0.0156890109	-0.0625682346	-0.354357
C	 0.6372908172	-0.5649362376	 0.9650006112	 0.45875
N	 0.7428364048	-1.9769625182	 0.9418224857	-0.335657
C	 1.2638568904	-2.7116514242	 1.9523136261	-0.072612
C	 1.713635621	-2.0647567081	 3.0557299977	 0.16747
F	 2.2415099318	-2.7211971375	 4.0953756991	-0.078421
C	 1.6090555287	-0.6446279832	 3.0824651329	-0.065907
N	 1.1109373281	 0.0652343507	 2.1177468023	-0.302333
H	 0.5243286801	 1.8175189168	-0.9780594717	 0.11325
H	-1.0708376541	 1.6863742053	-0.2504992943	 0.113251
H	 0.3525585877	 1.9361062099	 0.7910197307	 0.127101
H	 0.3959909034	-2.4158740406	 0.1017392371	 0.271562
H	 1.2988404639	-3.7874565388	 1.8350005108	 0.152358
H	 1.9697304255	-0.1197064085	 3.968394534	 0.130093
61.2567	81.8248	219.1891	220.1455	319.6421	373.0078	392.0298	439.2071	463.0547	565.4669	642.0078	644.2116	768.0739	775.8741	807.6911	916.1958	984.9068	1003.5378	1073.6152	1117.2407	1136.0239	1185.2138	1223.813	1289.1372	1351.4978	1436.0895	1436.8788	1480.1857	1496.7321	1497.3705	1577.9529	1708.9477	1743.1705	3006.1471	3052.757	3083.8091	3121.772	3219.0748	3621.6602
CN=C1NC=C(F)C=N1	C[N]C1=NC=C(CN1)F	
InChI=1S/C5H6FN3/c1-7-5-8-2-4(6)3-9-5/h2-3H,1H3,(H,7,8,9)	InChI=1S/C5H7FN3/c1-7-5-8-2-4(6)3-9-5/h2H,3H2,1H3,(H,8,9)
