19
gdb 31259	2.00758	1.7068	1.02385	2.3583	79.	-0.1791	0.0406	0.2197	1198.3989	0.161272	-415.403822	-415.394455	-415.393511	-415.438459	33.865	
C	 0.5534496534	 0.395233106	 0.0922063971	-0.326488
N	-0.4179541617	-0.1255512189	-0.8763593029	-0.402722
C	-1.505562216	-0.8307509241	-0.3321227515	 0.186874
C	-1.6674189282	-1.9893118866	 0.4050123477	 0.271516
N	-0.7050191995	-2.9040528428	 0.8435282016	-0.374775
C	 0.2807085628	-3.3757174505	-0.1203434072	-0.329483
N	-2.9859295394	-2.1704528183	 0.7432645027	-0.327688
C	-3.6301404719	-1.140519395	 0.2292930092	 0.003035
N	-2.7945461083	-0.3099665466	-0.431693494	-0.258737
H	 1.3454764056	 0.9240238226	-0.447438018	 0.113281
H	 0.0545546039	 1.1120500774	 0.7508941368	 0.126928
H	 1.0131737151	-0.3786240706	 0.7245178801	 0.121961
H	 0.0512023021	-0.6473128477	-1.6069725704	 0.227969
H	-1.1801188847	-3.6695964831	 1.3046701749	 0.235299
H	-0.1607128058	-3.7846846726	-1.0438115316	 0.105381
H	 0.9580206167	-2.5630058475	-0.4019419432	 0.119946
H	 0.8890889337	-4.154622391	 0.3470017415	 0.122228
H	-4.6925412491	-0.9639578573	 0.3060072058	 0.124358
H	-3.0207617087	 0.5391440766	-0.9220967287	 0.261117
50.8481	99.0667	146.2946	171.5953	185.2467	214.6331	292.3042	376.2898	415.2538	463.7531	519.1045	613.2583	648.3123	678.1552	741.7779	777.7389	784.0638	799.621	951.9875	1032.4133	1070.726	1120.3474	1129.9864	1148.5222	1153.1472	1177.6795	1204.4501	1268.564	1297.2814	1383.3505	1446.991	1454.9969	1464.6666	1468.4443	1487.092	1490.2931	1497.7448	1514.3696	1520.4341	1543.5457	1647.7334	2969.8196	2994.1171	3068.3921	3072.3319	3110.2912	3111.1092	3248.7271	3529.078	3568.8853	3665.3122
CNC1=C(NC)N=CN1	CNc1c(NC)nc[nH]1	
InChI=1S/C5H10N4/c1-6-4-5(7-2)9-3-8-4/h3,6-7H,1-2H3,(H,8,9)	InChI=1S/C5H10N4/c1-6-4-5(7-2)9-3-8-4/h3,6-7H,1-2H3,(H,8,9)
