18
gdb 80726	2.65376	1.54891	1.1773	1.2964	77.32	-0.2086	0.0295	0.2381	1073.5159	0.14612	-401.849035	-401.840358	-401.839414	-401.882568	33.067	
O	-0.5750918965	 1.6626294803	 1.5129804129	-0.433457
C	-0.17505722	 0.5846555955	 0.7301929371	 0.109852
C	-0.4374515865	-0.8230594685	 1.1727307691	-0.130596
C	-1.8609549943	-0.9119431489	 1.7428768998	-0.188626
N	-2.3990444724	-0.5484249714	 0.4092979868	-0.063819
C	-3.5504991812	 0.30753671	 0.1851826132	-0.320487
C	-3.5026853236	 1.7132711585	 0.6267405232	 0.300144
C	-3.4931794644	 2.870167413	 0.9624161977	-0.459028
C	-1.0732395537	-0.2844743007	-0.1227272463	-0.087853
H	-1.3054423459	 2.1188534161	 1.0773930347	 0.288321
H	 0.8104701377	 0.712343774	 0.2778082696	 0.089128
H	 0.3303918744	-1.5740366576	 1.299044172	 0.094732
H	-2.1762436126	-1.912288404	 2.0554051943	 0.104374
H	-2.0605227468	-0.1890726371	 2.542947055	 0.117844
H	-3.7585593757	 0.2981616814	-0.8929461626	 0.139504
H	-4.4148579712	-0.1713032055	 0.6627839927	 0.141339
H	-3.4919182545	 3.8850173727	 1.2776662568	 0.207573
H	-0.8527506328	-0.5013400279	-1.164610196	 0.091054
39.9713	151.9018	181.09	232.6337	285.2223	302.3794	328.5008	337.4458	491.057	551.5555	621.676	646.5005	669.4089	691.7465	759.6478	805.8235	874.2082	902.4344	916.2919	940.4969	983.0724	1019.2378	1046.5391	1070.4961	1113.0668	1128.1963	1167.474	1209.5932	1228.8836	1269.9314	1291.4727	1344.7654	1351.2353	1358.1752	1375.1419	1429.011	1447.448	1502.0961	2210.313	3016.7211	3028.0187	3052.6943	3077.8518	3086.1749	3140.6433	3206.83	3496.4405	3757.7087
OC1C2CN(CC#C)C12	O[C@H]1[C@H]2CN(CC#C)[C@@H]12	
InChI=1S/C7H9NO/c1-2-3-8-4-5-6(8)7(5)9/h1,5-7,9H,3-4H2	InChI=1S/C7H9NO/c1-2-3-8-4-5-6(8)7(5)9/h1,5-7,9H,3-4H2/t5-,6+,7-/m0/s1
