19
gdb 24425	3.37061	1.53613	1.09846	1.6011	82.12	-0.1722	0.0552	0.2274	1097.511	0.164281	-382.116805	-382.109514	-382.10857	-382.148203	29.892	
C	 0.0169061077	 1.5488870907	-0.0371472294	-0.200051
C	 1.477382039	 2.0355991188	 0.0197878134	-0.162444
N	 2.1797318338	 1.6448904212	 1.2539970631	-0.401857
C	 1.8736477473	 0.3154352728	 1.599527825	 0.279645
C	 0.9022164382	-0.4986941171	 1.0626886747	 0.25772
C	-0.0614445714	 0.0093979318	 0.0280715136	-0.332832
C	 1.0497019983	-1.776739005	 1.684823369	-0.282072
C	 2.0909846403	-1.6907369488	 2.5760064417	-0.085719
N	 2.5947932162	-0.4063950662	 2.5156975257	-0.338299
H	-0.5303738764	 1.9819979097	 0.8101083018	 0.093314
H	-0.4607506852	 1.9204347099	-0.9503764072	 0.091626
H	 2.0339780337	 1.6155525537	-0.8277474125	 0.112039
H	 1.5292495244	 3.1249819982	-0.0668259073	 0.096984
H	 1.9488566092	 2.2889616456	 2.0059054515	 0.223707
H	-1.0888133422	-0.3016081011	 0.2532166521	 0.099565
H	 0.168996412	-0.4121986218	-0.9611604298	 0.100739
H	 0.4454136926	-2.6540657102	 1.5068223861	 0.083934
H	 2.5123275058	-2.4186411349	 3.2498305586	 0.11085
H	 3.4121788568	-0.0686055973	 2.9924871998	 0.253149
119.9949	212.1427	293.4862	316.5734	380.3197	427.482	453.3216	513.761	624.5844	636.0406	674.8573	687.9414	699.0574	801.7962	813.9398	865.8988	881.3521	920.1375	938.0774	990.3211	1064.1067	1085.4301	1105.0973	1107.4268	1192.5169	1196.7306	1215.8811	1259.9742	1287.9622	1304.7147	1360.1412	1366.1672	1389.602	1425.1817	1451.4439	1479.9179	1482.307	1496.6669	1515.4337	1521.2249	1640.9898	2995.201	3019.9002	3027.7214	3044.2979	3072.939	3085.5005	3236.5426	3270.7148	3475.0032	3683.2326
C1CNC2=C(C1)C=CN2	C1CNc2c(C1)cc[nH]2	
InChI=1S/C7H10N2/c1-2-6-3-5-9-7(6)8-4-1/h3,5,8-9H,1-2,4H2	InChI=1S/C7H10N2/c1-2-6-3-5-9-7(6)8-4-1/h3,5,8-9H,1-2,4H2
