21
gdb 108238	2.16883	1.55914	1.17038	2.0654	79.54	-0.2195	0.0664	0.2859	1169.4593	0.179835	-424.182584	-424.172439	-424.171495	-424.217639	36.818	
C	-0.249533097	 1.2930958413	-0.0193611416	-0.258096
O	 0.142565463	-0.0632229435	 0.1292362512	-0.281745
C	 0.7459973109	-0.5864800552	-0.9932281789	 0.357351
C	 2.1714612607	-0.267178045	-1.4511491925	-0.300257
C	 2.3414692773	-1.7673304761	-1.8779252777	-0.277046
C	 0.9144279084	-2.0472945189	-1.4265102041	 0.332173
O	 0.5899488471	-3.2614543206	-0.8537286341	-0.461432
C	-0.0604232709	-1.1559868033	-2.1622916383	-0.150147
C	-1.5315009618	-1.4233041603	-1.9096395127	-0.452911
H	 0.6153803508	 1.9449026661	-0.2050835249	 0.114947
H	-0.9651212915	 1.4190979609	-0.8434157755	 0.110395
H	-0.7236649229	 1.592886805	 0.9179235827	 0.127751
H	 2.275943165	 0.4773043535	-2.247504051	 0.091372
H	 2.8257055218	 0.0011624122	-0.6183237286	 0.108893
H	 2.5591187025	-1.9599022721	-2.9339393786	 0.09349
H	 3.0753891461	-2.2884072916	-1.2593754672	 0.114089
H	-0.3451976116	-3.4394233607	-0.9961185113	 0.289774
H	 0.1748804711	-0.8445222412	-3.1826828824	 0.06722
H	-1.7368751968	-1.5452970566	-0.8419359776	 0.137188
H	-2.1495705279	-0.5931695495	-2.264959342	 0.123439
H	-1.8726233443	-2.3236745545	-2.4369735048	 0.113551
66.9193	98.1003	135.0486	167.926	181.6084	212.1756	238.2598	249.0214	295.8761	358.875	440.0974	534.1799	590.5208	638.9969	689.6852	753.8178	774.5378	839.6097	936.8003	976.5741	1025.1268	1043.023	1061.6021	1072.1139	1093.5579	1137.2053	1154.89	1179.0519	1185.1066	1199.0505	1209.8956	1227.9035	1242.5265	1308.2986	1339.3228	1389.0615	1413.1547	1434.2682	1478.0017	1482.3194	1487.3898	1500.3035	1501.624	1509.8386	1518.8917	2994.821	3020.0186	3039.3569	3047.3555	3049.7203	3063.7255	3083.3254	3099.4178	3111.9276	3117.5381	3120.7429	3818.4799
COC12CCC1(O)C2C	CO[C@@]12CC[C@]1(O)[C@H]2C	
InChI=1S/C7H12O2/c1-5-6(8)3-4-7(5,6)9-2/h5,8H,3-4H2,1-2H3	InChI=1S/C7H12O2/c1-5-6(8)3-4-7(5,6)9-2/h5,8H,3-4H2,1-2H3/t5-,6+,7-/m1/s1
