18
gdb 80182	2.32935	1.7081	1.44135	2.2455	71.99	-0.2567	0.0125	0.2693	997.9572	0.148452	-439.085004	-439.076839	-439.075895	-439.117612	31.413	
C	-0.4137425737	 1.418179623	 0.0273552361	-0.41299
C	-0.0354355209	-0.0462839823	 0.0866744968	-0.047228
C	 1.3079832817	-0.5889868015	-0.3118509913	 0.050572
O	 2.3733145436	 0.3484098175	-0.4434800377	-0.223586
C	 2.6405182648	 0.9086483299	 0.7653312218	 0.370768
N	 3.3868748349	 1.9022589841	 0.9847333576	-0.557868
C	 1.8628452916	 0.2084429467	 1.8794601807	 0.040738
O	 1.2753578254	 1.1432031601	 2.7565399089	-0.431254
C	 0.8812615859	-0.667600076	 1.1327006764	-0.110692
H	 0.4122874423	 2.0791043951	 0.2899238284	 0.140129
H	-0.7533027322	 1.6814966247	-0.9799422343	 0.117034
H	-1.2277976519	 1.625554014	 0.727749821	 0.131802
H	-0.8483816172	-0.7157884707	-0.1870852486	 0.097038
H	 1.4355698223	-1.4351406317	-0.9746515943	 0.111118
H	 3.7821831753	 2.2838644436	 0.1252678865	 0.23089
H	 2.5656057232	-0.4420109243	 2.426257703	 0.09721
H	 1.9078533057	 1.8734798514	 2.8175135232	 0.295942
H	 0.593652239	-1.6092973636	 1.5826313458	 0.100378
96.9611	143.3061	165.234	226.5531	276.2915	334.5977	418.718	457.1126	539.7353	555.0715	626.8874	691.6643	749.6853	773.2026	796.869	871.857	884.7729	900.2612	991.3399	1013.0291	1040.7756	1059.0688	1086.2677	1109.2087	1135.3539	1145.6352	1157.8611	1226.8338	1252.7517	1268.1883	1338.8796	1364.6253	1383.5841	1418.097	1430.4574	1449.8554	1488.0898	1503.0743	1776.2746	2964.4665	3045.5377	3106.4088	3126.8288	3152.5825	3186.7403	3199.2573	3491.3878	3741.6366
CC1C2OC(=N)C(O)C12	C[C@H]1[C@H]2O[C]([NH])[C@@H](O)[C@@H]12	
InChI=1S/C6H9NO2/c1-2-3-4(8)6(7)9-5(2)3/h2-5,7-8H,1H3	InChI=1S/C6H9NO2/c1-2-3-4(8)6(7)9-5(2)3/h2-5,7-8H,1H3/t2-,3-,4+,5-/m1/s1
