15
gdb 125329	5.44523	1.30212	1.05771	1.5133	74.05	-0.2076	0.0032	0.2108	1079.5042	0.1157	-413.023468	-413.016279	-413.015335	-413.055006	27.294	
C	-0.0369556679	 1.4775791907	 0.0577603938	-0.485977
C	-0.0131843551	-0.0131389218	-0.0292078499	 0.281967
C	 0.2210671248	-0.7774898409	-1.1519293647	-0.244609
N	 0.1355814811	-2.094281398	-0.7070030075	-0.021921
C	 0.2058287402	-3.4306422723	-1.0196811678	 0.012031
N	-0.0072935535	-4.1777260139	 0.0321716563	-0.206799
N	-0.2231604002	-3.3028569615	 1.0625089161	-0.365653
C	-0.1423324896	-2.011018272	 0.6415564153	 0.508616
N	-0.2427803135	-0.7890693015	 1.1021802353	-0.446445
H	 0.1607264623	 1.932862472	-0.9161714156	 0.118315
H	-1.0105826685	 1.8311952529	 0.4132085239	 0.13643
H	 0.7151907995	 1.8380927901	 0.7675535043	 0.136409
H	 0.4322794715	-0.5197161481	-2.1744091892	 0.131568
H	 0.4095664521	-3.8207228842	-2.0024270059	 0.157897
H	-0.410688233	-3.6503438614	 1.9848909256	 0.288171
118.6578	150.8396	264.125	281.7056	328.1498	371.9165	519.4353	570.4676	630.0261	650.9127	665.6741	755.526	801.4525	807.1929	850.1888	977.6281	983.5691	1016.6199	1061.7956	1084.2352	1183.6244	1225.5981	1261.7945	1324.823	1358.6599	1385.7058	1407.696	1438.8616	1473.1517	1485.4875	1566.8952	1574.8459	1665.9592	3036.5105	3092.3863	3119.8887	3289.1077	3292.4962	3713.0121
CC1=CN2C=NNC2=N1	Cc1cn2cn[nH]c2n1	
InChI=1S/C5H6N4/c1-4-2-9-3-6-8-5(9)7-4/h2-3H,1H3,(H,7,8)	InChI=1S/C5H6N4/c1-4-2-9-3-6-8-5(9)7-4/h2-3H,1H3,(H,7,8)
