19
gdb 88857	3.61881	1.16663	0.95723	2.6955	77.74	-0.2396	0.0127	0.2524	1239.8927	0.159655	-423.005654	-422.997376	-422.996432	-423.03913	31.537	
O	-0.046539402	 1.4340402452	 0.1484172903	-0.431772
C	-0.024680153	 0.0530966931	-0.0570967868	 0.125003
C	-0.321056962	-0.8301097878	 1.1183678406	-0.319126
C	-1.329582995	-0.7019452518	-0.0095850987	-0.06615
C	-2.5879002366	 0.1199201378	 0.18818337	 0.072035
O	-2.7346859859	 1.043574837	-0.9139455517	-0.291689
C	-4.0144644812	 0.9011651852	-1.5246291235	-0.117522
C	-4.670464812	-0.2335108745	-0.7885241517	-0.102824
C	-3.8713960693	-0.6652569956	 0.1793227133	-0.095872
H	-0.6836161965	 1.7984965736	-0.479971245	 0.298775
H	 0.7243736877	-0.2906865419	-0.7701281738	 0.084243
H	 0.2237226302	-1.761197418	 1.2262473788	 0.111225
H	-0.5553793805	-0.3267930744	 2.0505551028	 0.121488
H	-1.4367933071	-1.5410660384	-0.6908316739	 0.083433
H	-2.483950121	 0.7085963888	 1.1115887814	 0.092926
H	-4.5839672522	 1.8399991934	-1.4331397358	 0.107114
H	-3.8945084309	 0.6985573872	-2.5999423053	 0.108259
H	-5.6559014492	-0.6068552946	-1.0365089972	 0.108721
H	-4.0676982834	-1.4644134743	 0.8823263461	 0.111733
65.6675	81.1349	141.5294	243.5713	273.6717	360.6935	426.1799	467.1213	491.228	611.0661	705.3001	768.1112	797.2579	808.2472	844.1466	870.1712	931.1359	941.4507	960.1061	975.9285	1022.3569	1046.2116	1050.1138	1063.7817	1096.1038	1122.5527	1130.5586	1161.6614	1172.3387	1199.8947	1235.9571	1287.0763	1330.5169	1353.752	1362.0104	1382.2397	1406.3213	1424.3621	1480.5705	1521.2633	1691.5257	2973.8206	2991.5201	2996.0459	3099.3716	3134.6814	3148.9416	3208.8997	3224.0635	3233.4285	3764.6021
OC1CC1C1OCC=C1	O[C@H]1C[C@H]1[C@H]1OCC=C1	
InChI=1S/C7H10O2/c8-6-4-5(6)7-2-1-3-9-7/h1-2,5-8H,3-4H2	InChI=1S/C7H10O2/c8-6-4-5(6)7-2-1-3-9-7/h1-2,5-8H,3-4H2/t5-,6+,7+/m1/s1
