20
gdb 97153	3.44747	1.33769	1.1488	3.0407	82.08	-0.2393	0.0339	0.2732	1143.3635	0.172811	-403.152272	-403.144078	-403.143134	-403.18591	31.	
C	-0.0101720931	 1.4214011498	 0.1338945798	-0.315312
N	 0.009579737	-0.0339076167	 0.1987442014	-0.326025
C	-1.0517981226	-0.6588949386	-0.0808802894	 0.440765
O	-2.2030005823	-0.0052291359	-0.43832802	-0.27836
C	-3.3855482441	-0.7659947964	-0.7471774504	-0.074087
C	-3.1689092904	-2.2680833026	-0.623825326	-0.034039
C	-2.4409325853	-2.5623830214	 0.7144339608	-0.232891
C	-1.1410092251	-2.1576789754	-0.0455625159	-0.101797
C	-1.8487799707	-2.6461991838	-1.346173365	-0.232892
H	 0.9777405326	 1.803395988	 0.4027920766	 0.11213
H	-0.2607538926	 1.7849199692	-0.8713478968	 0.115996
H	-0.7483582011	 1.8538240705	 0.8220323676	 0.115992
H	-4.172842523	-0.4275844742	-0.0624255301	 0.1122
H	-3.6826789288	-0.4969710957	-1.7682443524	 0.1122
H	-4.0898147558	-2.8039051568	-0.8666692595	 0.072617
H	-2.7229264126	-1.9833232699	 1.598095869	 0.105609
H	-2.4443680491	-3.6277483417	 0.9554034688	 0.105373
H	-0.181185972	-2.5773461791	 0.2473315243	 0.091538
H	-1.7469287632	-3.7264675296	-1.4715853545	 0.105374
H	-1.6069178777	-2.1412908696	-2.2854598681	 0.105609
32.9522	103.8154	164.4726	216.0738	303.279	385.5753	386.4506	420.9519	547.6709	633.8781	718.9538	755.0647	833.2159	846.8847	881.469	907.9619	940.9783	949.7394	1004.9709	1026.9677	1039.0331	1059.1938	1092.4101	1108.8012	1111.703	1138.6822	1147.0744	1183.0858	1230.8513	1234.189	1249.0884	1276.4281	1298.4554	1341.9275	1348.391	1418.269	1437.493	1481.7479	1484.0754	1498.5286	1508.6654	1517.7795	1774.9527	3004.1871	3020.2584	3054.926	3055.9442	3058.8583	3059.3581	3081.2421	3102.6006	3115.9067	3117.349	3142.5136
CN=C1OCC2CC1C2	CN=C1OC[C@@H]2C[C@H]1C2	
InChI=1S/C7H11NO/c1-8-7-6-2-5(3-6)4-9-7/h5-6H,2-4H2,1H3	InChI=1S/C7H11NO/c1-8-7-6-2-5(3-6)4-9-7/h5-6H,2-4H2,1H3/t5-,6+
