19
gdb 76092	2.3501	1.32547	1.05012	3.1525	81.4	-0.2479	0.0156	0.2635	1221.4936	0.158453	-382.039904	-382.03079	-382.029845	-382.074252	33.542	
C	-0.1173744352	 1.5525042387	-0.186625558	-0.425565
C	 0.0555441102	 0.0673696842	 0.0352463088	 0.004309
C	 1.3898140702	-0.6218295821	-0.1363300171	-0.18029
C	 2.5496827574	 0.1702160766	-0.4608897965	 0.295791
N	 3.4901910587	 0.7962824176	-0.7115024799	-0.346974
N	 0.7476742338	-0.4999909855	 1.1822395045	-0.106733
C	 1.3352763065	 0.3456421058	 2.1881365131	 0.069357
C	 0.6390888371	 0.369466371	 3.5227701606	-0.282118
C	 1.9535010265	-0.3552097286	 3.3672490223	-0.271088
H	 0.8094068494	 2.1118095001	-0.0467116121	 0.147786
H	-0.4647143799	 1.7341486516	-1.2082710131	 0.133467
H	-0.8706642063	 1.9524473487	 0.4997349627	 0.134631
H	-0.8064791015	-0.5277062201	-0.264179801	 0.106394
H	 1.4285176878	-1.6320044778	-0.5358028831	 0.133601
H	 1.8158880487	 1.2656064263	 1.8618738013	 0.102584
H	 0.6181136419	 1.3060272782	 4.068240698	 0.117078
H	-0.2540731775	-0.2366279948	 3.6189388876	 0.123046
H	 1.9248121452	-1.4383057974	 3.3587850076	 0.123952
H	 2.8456541968	 0.0781109677	 3.8039942144	 0.120772
53.3013	110.3853	130.759	164.0186	201.7643	257.9418	319.9341	383.3545	395.7368	521.7301	613.3919	637.631	695.3471	771.5051	794.1803	828.7141	847.2908	916.1863	961.3951	983.107	1020.9927	1036.1323	1059.2709	1077.9857	1091.5634	1123.847	1145.9849	1165.252	1188.8438	1196.5772	1233.796	1331.4587	1358.732	1399.1582	1408.6368	1421.2139	1457.1882	1491.2489	1495.9481	1498.701	2345.8308	3045.8158	3107.0004	3108.7115	3119.2022	3139.5433	3141.4371	3141.7516	3146.6573	3226.2725	3240.2678
CC1C(C#N)N1C1CC1	C[C@H]1[C@@H](C#N)N1C1CC1	
InChI=1S/C7H10N2/c1-5-7(4-8)9(5)6-2-3-6/h5-7H,2-3H2,1H3	InChI=1S/C7H10N2/c1-5-7(4-8)9(5)6-2-3-6/h5-7H,2-3H2,1H3/t5-,7+,9?/m0/s1
