19
gdb 78041	2.88659	1.23031	1.11621	2.8983	76.87	-0.2387	-0.0171	0.2216	1185.9292	0.157029	-423.015062	-423.005831	-423.004887	-423.04867	34.811	
C	-0.0444984524	 1.5367740109	-0.0605714154	-0.458847
C	 0.0597494949	 0.0189588902	-0.0797058101	 0.294459
C	-1.1494386783	-0.6578117656	 0.5532193861	-0.450016
C	 0.6917058307	-0.7506560497	-1.1875788989	-0.10629
C	 1.3710780945	-0.7048261387	 0.2343375356	-0.220672
C	 2.5438748003	-0.0771411786	-0.4268486812	 0.36021
O	 3.7118497455	 0.005020649	-0.1488029902	-0.340469
C	 1.8618154448	 0.0052727468	-1.8277602756	 0.013521
O	 2.5804315114	-0.778667176	-2.7533924216	-0.445776
H	 0.8473520481	 2.0361611316	-0.4428015504	 0.129998
H	-0.8999630971	 1.8695266788	-0.6593778778	 0.122705
H	-0.2020989835	 1.8867215804	 0.9651495464	 0.124473
H	-2.0638934509	-0.3797692016	 0.0182324226	 0.125403
H	-1.0629562614	-1.7479095108	 0.5297617481	 0.121734
H	-1.2659057321	-0.3479088832	 1.5971130596	 0.125322
H	 0.2376619774	-1.6218909154	-1.6420609396	 0.113801
H	 1.4214473545	-1.4532848888	 1.0168330484	 0.108303
H	 1.6271440633	 0.9930412273	-2.2433301816	 0.08451
H	 3.5176318304	-0.6386483067	-2.5677119146	 0.297633
75.1284	170.2179	198.0422	207.6219	211.8258	262.5973	292.9188	342.184	351.9836	414.9769	482.3298	490.381	613.0803	687.8392	770.8397	839.6919	857.0713	895.8117	928.6036	968.0652	969.4968	1026.2438	1037.1858	1042.9394	1098.4738	1119.4088	1153.7889	1173.7449	1189.8636	1262.2387	1289.355	1349.9486	1386.1516	1395.4329	1412.9982	1430.6502	1482.0325	1491.2673	1502.8912	1512.726	1853.6952	3020.567	3031.5461	3036.6636	3092.7673	3098.3631	3111.0908	3129.8625	3183.1883	3205.8218	3776.1008
CC1(C)C2C1C(=O)C2O	CC1(C)[C@@H]2[C@H]1C(=O)[C@H]2O	
InChI=1S/C7H10O2/c1-7(2)3-4(7)6(9)5(3)8/h3-5,8H,1-2H3	InChI=1S/C7H10O2/c1-7(2)3-4(7)6(9)5(3)8/h3-5,8H,1-2H3/t3-,4+,5+/m1/s1
