13
gdb 130638	3.20584	1.6741	1.11488	3.885	66.31	-0.2739	-0.0931	0.1808	985.5366	0.090119	-452.741384	-452.734646	-452.733702	-452.772911	25.037	
O	-0.0324043849	-0.0547228085	 0.0035872049	-0.303686
C	-0.0024629452	 1.1467542799	 0.0096587398	 0.305963
C	-1.2229245303	 2.1033097136	 0.0316871616	-0.324698
C	-0.7023544327	 3.5769987581	 0.0321680318	-0.365559
C	 0.7744448946	 3.3624634553	 0.0104433722	 0.257776
C	 1.1631612082	 2.0632480923	-0.0018110213	 0.269704
O	 2.4789145565	 1.9754214746	-0.0208367395	-0.235442
N	 2.9294927766	 3.3818534429	-0.0193274155	-0.004541
N	 1.916053909	 4.1219619589	-0.0015131894	-0.1938
H	-1.8489059644	 1.8842406527	-0.8379292849	 0.153263
H	-1.8244390667	 1.8750288274	 0.9160768988	 0.153254
H	-1.0539144983	 4.1374396756	-0.8394240188	 0.143885
H	-1.0293909525	 4.1282057672	 0.9190607504	 0.143881
91.5687	165.1886	258.2221	296.2471	453.5178	522.8338	525.3123	606.6462	627.822	681.4274	695.892	745.404	844.0603	965.3201	993.5009	1010.4399	1045.7443	1139.5102	1161.0987	1224.4641	1264.8137	1269.6383	1360.8493	1424.3008	1450.644	1458.5746	1492.1436	1613.3614	1835.4398	3057.0808	3071.8214	3089.3654	3115.2671
O=C1CCC2=C1ON=N2	O=C1CCc2c1onn2	
InChI=1S/C5H4N2O2/c8-4-2-1-3-5(4)9-7-6-3/h1-2H2	InChI=1S/C5H4N2O2/c8-4-2-1-3-5(4)9-7-6-3/h1-2H2
