16
gdb 50907	2.34262	1.1427	0.80271	1.891	73.71	-0.2724	0.0106	0.283	1375.9499	0.121109	-437.807737	-437.798313	-437.797369	-437.843455	32.56	
N	-0.4933889735	 1.4824738978	 0.3995572205	-0.43604
C	-0.5145210434	 0.2285348965	 0.5221877692	 0.13315
O	-0.8942352858	-0.536056705	-0.5280128934	-0.189528
C	-0.8601821465	-1.9573130477	-0.3295163051	-0.10494
C	-1.8521222211	-2.3982338766	 0.651862853	 0.337072
C	-2.6752335266	-2.7573768442	 1.4495582762	-0.447167
C	-1.1086228234	-2.5694079349	-1.6978222674	 0.07873
C	 0.00963987	-2.8392255522	-2.6034646201	-0.175045
O	-0.622774568	-3.8932305307	-1.8680156854	-0.228533
H	-0.1829860736	 1.9120898847	 1.2686252374	 0.232599
H	-0.251275442	-0.3497384044	 1.4165327064	 0.100776
H	 0.1420488186	-2.2653510809	-0.0004315651	 0.118485
H	-3.4010295521	-3.0790077086	 2.1557897406	 0.211395
H	-2.0982959948	-2.3741064943	-2.1075018466	 0.118873
H	-0.1624963455	-2.8481751611	-3.6776317213	 0.127744
H	 1.0242166478	-2.5952368083	-2.2927562089	 0.122431
51.1807	69.0339	79.8994	139.788	147.3401	218.9187	318.6666	358.0662	429.2354	503.0516	523.1973	647.7019	683.4444	701.6216	819.2395	854.2495	880.3698	928.8999	981.3416	1029.6871	1040.0661	1095.3112	1112.0691	1145.9614	1160.8786	1173.8534	1274.9212	1285.8564	1296.9764	1334.7322	1425.3761	1444.6881	1530.8614	1748.5458	2238.7968	3012.2256	3045.4002	3093.5399	3132.9892	3184.1046	3500.1785	3518.6344
N=COC(C#C)C1CO1	[NH][CH]O[C@@H](C#C)[C@H]1CO1	
InChI=1S/C6H7NO2/c1-2-5(9-4-7)6-3-8-6/h1,4-7H,3H2	InChI=1S/C6H7NO2/c1-2-5(9-4-7)6-3-8-6/h1,4-7H,3H2/t5-,6+/m0/s1
