14
gdb 132280	2.09004	1.77383	0.96522	3.849	70.61	-0.2375	-0.0576	0.1799	1128.1875	0.099645	-478.009704	-478.001881	-478.000937	-478.042556	28.669	
C	-0.0207680883	 1.5015554398	-0.0077553032	-0.47656
C	 0.0007221176	 0.0005312078	-0.0112632414	 0.340737
N	-0.0227112908	-0.6085465033	-1.1592730701	-0.321778
C	-0.0046413309	-1.974188427	-1.2250950262	 0.437564
N	-0.0252641759	-2.6495459491	-2.28777984	-0.511982
O	 0.0412991602	-2.7087706351	 0.0390713108	-0.246244
C	 0.0630237457	-2.0354049386	 1.1647696256	 0.430679
F	 0.1037390419	-2.8334012606	 2.2032677445	-0.030701
C	 0.0461043525	-0.6927799647	 1.2502185756	-0.428204
H	 0.8691083597	 1.8937982715	 0.497699643	 0.143892
H	-0.0555071538	 1.8783157809	-1.0295215677	 0.156751
H	-0.8910099316	 1.868536674	 0.5483062559	 0.143854
H	-0.0054358878	-3.6480039103	-2.0909182936	 0.234905
H	 0.0655960714	-0.1888657552	 2.2040957569	 0.127086
90.4916	112.8029	175.4955	219.4178	299.0842	347.0975	499.3689	516.5822	561.7826	592.0991	629.0527	696.1388	758.8055	789.7877	796.3222	835.5554	944.8052	977.9774	1033.0145	1053.7015	1095.2963	1178.7876	1217.2322	1373.5474	1405.9923	1445.5232	1466.9129	1478.6513	1587.5367	1715.5432	1773.7857	3037.2057	3091.7648	3161.7815	3252.6493	3527.5438
CC1=NC(=N)OC(F)=C1	CC1=C[C@@H](OC(=N1)[NH])F	
InChI=1S/C5H5FN2O/c1-3-2-4(6)9-5(7)8-3/h2,7H,1H3	InChI=1S/C5H6FN2O/c1-3-2-4(6)9-5(7)8-3/h2,4,7H,1H3/t4-/m1/s1
