18
gdb 51431	3.72925	1.08875	1.01834	4.0404	73.03	-0.2563	0.0203	0.2766	1206.761	0.149568	-439.088391	-439.080681	-439.079737	-439.121592	29.369	
O	-0.131384336	-0.0825258165	 0.4303795241	-0.313017
C	-0.111847749	 1.0890129777	 0.1264482194	 0.154179
N	 1.0080878204	 1.8070092875	-0.1852112986	-0.307966
C	 2.3269854895	 1.240475765	-0.1887132047	 0.056813
C	 3.311560698	 1.4423716212	-1.3718996947	 0.050701
C	 3.3734371605	 2.9723916731	-1.5644700275	-0.232964
C	 3.5436979495	 3.3593839147	-0.0579242192	-0.232949
C	 3.5253261024	 1.9281599188	 0.5192362336	 0.050728
O	 4.3885272702	 1.2132675154	-0.41474294	-0.290436
H	-1.0247921919	 1.7144642651	 0.0688933617	 0.07672
H	 0.8861859795	 2.7787625874	-0.4215588194	 0.250443
H	 2.2503861245	 0.1922092937	 0.0892469751	 0.137534
H	 3.3383406709	 0.7918938469	-2.2453463576	 0.08802
H	 4.2327394679	 3.258389469	-2.1730312233	 0.118437
H	 2.4727398018	 3.3837940362	-2.031253784	 0.093645
H	 4.4947477335	 3.8540119188	 0.1455183952	 0.118432
H	 2.7399482316	 3.9911789913	 0.3334973923	 0.093655
H	 3.7695237467	 1.7717731246	 1.5693105676	 0.088026
33.4167	153.4815	185.6989	240.7283	288.5355	414.7142	509.984	526.9443	550.4116	718.3755	741.5363	833.4166	845.3143	866.3227	869.472	877.0572	919.678	992.7353	1002.1416	1003.1074	1032.1094	1040.3647	1114.0017	1122.3186	1166.9526	1199.4655	1218.6128	1224.9928	1245.8057	1270.3424	1302.7746	1306.442	1337.443	1358.177	1434.9204	1486.3089	1503.7052	1537.7744	1812.7938	2936.2333	3054.3396	3064.4516	3112.0219	3126.6728	3131.4359	3135.3222	3167.3075	3636.7478
O=CNC1C2CCC1O2	O=CN[C@H]1[C@H]2CC[C@@H]1O2	
InChI=1S/C6H9NO2/c8-3-7-6-4-1-2-5(6)9-4/h3-6H,1-2H2,(H,7,8)	InChI=1S/C6H9NO2/c8-3-7-6-4-1-2-5(6)9-4/h3-6H,1-2H2,(H,7,8)/t4-,5+,6+
