19
gdb 36287	3.94741	1.03929	0.98157	1.1993	80.2	-0.2375	0.0522	0.2898	1255.6357	0.159972	-385.827849	-385.819958	-385.819013	-385.860607	31.202	
C	-0.8261372776	 1.1915460267	-2.5085365748	-0.452333
C	-0.4323498349	 1.189310429	-1.372804096	 0.312647
C	 0.0735966682	 1.2063239319	-0.0035090084	-0.412014
C	 1.4424522469	 1.8907367853	 0.0971505388	 0.041217
C	 1.4990907765	 3.4485257801	-0.0802504549	-0.069867
C	 1.0856916662	 3.5586692936	 1.4234501947	-0.250026
C	 1.9776714181	 2.2965721834	 1.5014095501	 0.084939
O	 3.2865307792	 2.804452722	 1.1970324525	-0.283928
C	 3.0114910442	 3.6562494485	 0.0546616825	-0.085866
H	-1.1839810523	 1.1851333425	-3.5081214026	 0.196105
H	-0.6657830556	 1.6877032909	 0.6457004594	 0.131081
H	 0.1662429107	 0.1746653171	 0.3611732542	 0.133524
H	 2.1668616327	 1.3314285135	-0.5025254987	 0.084581
H	 0.9782187452	 3.9663166525	-0.8842245943	 0.08213
H	 1.4246844547	 4.4311634745	 1.9866542313	 0.102066
H	 0.0261330052	 3.3809416486	 1.6025475977	 0.104919
H	 2.0334397262	 1.6259805727	 2.3583264438	 0.078136
H	 3.5804615805	 3.310464438	-0.8159603766	 0.102667
H	 3.2957640857	 4.6904707291	 0.2811360413	 0.100022
60.525	104.9378	269.7892	281.697	342.2571	368.8947	408.5349	506.7029	580.2021	619.8553	639.9114	655.8401	781.3912	846.5992	848.407	905.8569	919.1937	939.5733	953.9398	974.8696	986.2181	1014.9935	1045.78	1073.3605	1097.2332	1111.8439	1128.2318	1175.1697	1214.4365	1225.5228	1233.2607	1261.1439	1273.458	1293.5216	1324.3642	1364.1497	1400.6896	1469.2927	1504.7538	1530.1383	2237.8039	3023.1057	3024.6763	3056.863	3065.8224	3074.6033	3081.2897	3128.6656	3133.7489	3150.0208	3506.6618
C#CCC1C2CC1OC2	C#CC[C@H]1[C@H]2C[C@@H]1OC2	
InChI=1S/C8H10O/c1-2-3-7-6-4-8(7)9-5-6/h1,6-8H,3-5H2	InChI=1S/C8H10O/c1-2-3-7-6-4-8(7)9-5-6/h1,6-8H,3-5H2/t6-,7-,8-/m0/s1
