18
gdb 55770	3.86359	1.03961	0.95901	3.2053	72.21	-0.2389	0.03	0.269	1258.9889	0.147148	-439.087235	-439.078551	-439.077607	-439.121574	32.458	
N	 0.1852269904	 0.1538743846	 0.966618968	-0.508594
C	-0.1622753416	 0.2497610587	-0.3465569193	 0.376774
O	 0.3169918075	 1.0640592845	-1.1097561743	-0.359772
C	-1.2606533207	-0.7365136547	-0.7803054536	-0.416246
C	-1.0053875224	-2.1551865488	-0.3720624068	 0.41062
C	-0.0343111688	-3.1843509832	-0.9806698493	-0.283462
C	-0.9831560527	-4.3202357862	-0.4574750467	-0.23963
C	-1.8871590565	-3.2285854952	 0.1275300581	-0.045313
O	-1.0787284019	-2.4652969917	 1.0379618756	-0.299878
H	 0.9169895171	 0.7540335665	 1.3091967794	 0.258151
H	-0.1750121355	-0.5825643094	 1.5518057194	 0.281042
H	-2.2091041703	-0.4048977356	-0.3418459952	 0.129492
H	-1.3421841538	-0.6570448905	-1.8662543935	 0.132615
H	 0.0066482351	-3.1413105274	-2.0713507503	 0.115473
H	 0.9794905754	-3.1566239884	-0.5758652873	 0.115205
H	-1.4551355344	-4.8789102795	-1.2687281033	 0.111518
H	-0.5680097249	-5.0164405393	 0.274340947	 0.115714
H	-2.9550174821	-3.2422606946	 0.316518972	 0.106291
34.2296	71.2515	141.3059	241.5676	295.9892	326.667	383.2457	390.5831	492.0526	526.1371	572.7236	664.6605	724.844	766.3217	773.4583	849.8612	877.5768	909.0353	921.0727	954.8269	958.6478	1020.7313	1051.0705	1102.0734	1141.0289	1162.9675	1210.6294	1218.356	1237.2577	1256.7849	1295.5476	1317.2444	1356.732	1438.5451	1460.5569	1464.8616	1491.6362	1618.2468	1806.8434	3048.0623	3069.0373	3075.8794	3119.8604	3121.415	3136.7404	3181.4346	3585.431	3725.4304
NC(=O)CC12CCC1O2	NC(=O)C[C@]12CC[C@H]1O2	
InChI=1S/C6H9NO2/c7-5(8)3-6-2-1-4(6)9-6/h4H,1-3H2,(H2,7,8)	InChI=1S/C6H9NO2/c7-5(8)3-6-2-1-4(6)9-6/h4H,1-3H2,(H2,7,8)/t4-,6-/m1/s1
