23
gdb 86540	3.21648	1.00875	0.95532	1.0117	81.76	-0.2376	0.0697	0.3073	1390.7623	0.202861	-425.423343	-425.412859	-425.411915	-425.458644	39.43	
C	-0.5246282115	 1.3407671969	 0.1507029851	-0.39921
C	 0.1633091646	 0.0001381212	-0.0111264895	 0.176326
C	 0.9281200513	-0.2726318449	-1.3256905094	-0.329958
C	 2.1743025151	-0.3689367972	-0.4252443127	 0.139351
O	 1.3941239945	-0.0846026362	 0.759614578	-0.318207
C	 2.9479703193	-1.6980753258	-0.3396842026	 0.325445
C	 4.0273364893	-1.5760591102	 0.7425257102	-0.42768
C	 2.0390262277	-2.8932832467	-0.0567775633	-0.409146
O	 3.5358418197	-1.9419881571	-1.622953495	-0.462776
H	 0.1370086238	 2.1588814994	-0.1511950178	 0.117559
H	-1.4312833596	 1.3812023411	-0.4634618712	 0.115041
H	-0.8120841596	 1.5000201162	 1.1948173079	 0.125876
H	-0.5184177205	-0.8102951975	 0.2800498364	 0.074874
H	 0.6580791682	-1.1815631344	-1.8624428808	 0.117337
H	 0.9363198004	 0.5641589389	-2.026968397	 0.102917
H	 2.9091199016	 0.4323371482	-0.6027383036	 0.055652
H	 3.5741971808	-1.3585581001	 1.7139171796	 0.13855
H	 4.6029054097	-2.5029820901	 0.8167470615	 0.117432
H	 4.7207084832	-0.7583060993	 0.5093574502	 0.098557
H	 1.3445880363	-3.0643942332	-0.8830236917	 0.118697
H	 2.6410768979	-3.7979452053	 0.0625467539	 0.117594
H	 1.4695148623	-2.723912921	 0.859844739	 0.130287
H	 4.2234789152	-1.2817035129	-1.7632180373	 0.275482
51.1842	77.4379	165.4911	206.4082	236.7267	244.242	265.1377	293.2139	312.3861	323.4319	380.9004	422.3382	440.1534	503.5814	536.8894	714.9465	755.2062	856.0328	896.4419	902.6161	919.6472	935.2579	971.6041	998.8326	1022.9838	1042.7126	1058.088	1092.3825	1126.5965	1154.8081	1200.612	1211.0244	1244.3291	1255.2218	1278.3526	1329.4304	1350.2229	1377.8641	1388.7706	1403.1464	1408.7361	1429.4864	1479.2697	1482.7567	1484.9156	1493.2457	1498.791	1504.0704	1513.9957	2967.9365	3008.8425	3024.9559	3031.4063	3053.7755	3082.3836	3095.4893	3103.3574	3110.569	3121.1491	3125.448	3137.3437	3141.3018	3799.777
CC1CC(O1)C(C)(C)O	C[C@H]1C[C@@H](O1)C(C)(C)O	
InChI=1S/C7H14O2/c1-5-4-6(9-5)7(2,3)8/h5-6,8H,4H2,1-3H3	InChI=1S/C7H14O2/c1-5-4-6(9-5)7(2,3)8/h5-6,8H,4H2,1-3H3/t5-,6+/m0/s1
