19
gdb 110722	2.50769	1.4499	1.15998	1.4493	75.17	-0.2422	-0.0054	0.2368	1129.3821	0.159559	-419.185717	-419.177031	-419.176087	-419.219002	32.694	
C	-0.0367491583	 1.4930071243	 0.0353615505	-0.481597
C	 0.0411061205	-0.0123855001	-0.0215610478	 0.29313
C	-0.7085409701	-0.7428280295	-1.147750393	-0.245133
N	-1.3415328895	-1.9151216565	-0.5179789315	-0.191759
C	-1.0472494559	-1.8665060286	 0.7190394801	 0.018413
N	-0.282670145	-0.775597552	 1.2208437905	-0.179237
C	 1.1263941536	-0.744560818	 0.6813345946	-0.075143
C	 1.8323231752	-1.9706378941	 0.1525842094	-0.09786
O	 2.4455903158	-2.719819024	 1.1912460395	-0.414945
H	 0.5071661179	 1.9398197115	-0.8043603833	 0.124948
H	-1.0777525943	 1.8287387917	-0.0198752786	 0.127765
H	 0.3962078379	 1.8733460084	 0.9639654428	 0.132382
H	-1.4841658317	-0.0971962783	-1.5774467285	 0.119762
H	-0.0721901036	-1.0678325056	-1.9785977763	 0.119895
H	-1.3889466966	-2.6141667444	 1.4306762676	 0.122884
H	 1.7687173166	-0.1516292745	 1.3299799849	 0.106044
H	 1.1634469224	-2.5945228522	-0.4535428569	 0.114825
H	 2.6516269752	-1.6405944617	-0.496163983	 0.1188
H	 1.7480578699	-3.0439817265	 1.770426719	 0.286824
77.2099	146.926	182.2805	216.5225	226.4992	291.4144	311.5931	365.565	434.5379	496.2725	592.2698	610.7558	699.694	797.6689	829.836	885.3623	947.9779	958.8828	966.6703	995.9618	1017.9551	1055.5146	1061.9235	1092.6178	1122.9599	1135.3164	1206.7895	1217.765	1251.5884	1320.1732	1326.7594	1328.4329	1380.0337	1409.6775	1417.0306	1455.2633	1483.6428	1492.6806	1495.4923	1495.7375	1673.3208	3025.4274	3031.1627	3035.1931	3064.3106	3071.7209	3097.1526	3120.7897	3130.1524	3173.8487	3813.9302
CC12CN=CN1C2CO	C[C@]12CN=CN1[C@H]2CO	
InChI=1S/C6H10N2O/c1-6-3-7-4-8(6)5(6)2-9/h4-5,9H,2-3H2,1H3	InChI=1S/C6H10N2O/c1-6-3-7-4-8(6)5(6)2-9/h4-5,9H,2-3H2,1H3/t5-,6+,8?/m0/s1
