22
gdb 61846	2.32717	1.15176	0.87137	3.5722	83.53	-0.2465	0.0334	0.2799	1406.806	0.194063	-404.372184	-404.362296	-404.361352	-404.407943	35.944	
C	 0.1188984012	 1.809649596	 0.2380422158	-0.405517
C	 0.0488413325	 0.3007606276	-0.0117872788	 0.009771
N	 0.6563815354	-0.0263586659	-1.3024563681	-0.274499
C	 0.0829369952	-0.8492994936	-2.2182457569	 0.159018
O	-0.9898371297	-1.4046539825	-2.0947770159	-0.331831
C	 0.6850993542	-0.5040608108	 1.1212158119	 0.065061
C	-0.0258925438	-0.5163919353	 2.5065307274	-0.232617
C	 0.3056383905	-2.0285121116	 2.6223190028	-0.21504
C	 0.5653749952	-2.0549125796	 1.0917727434	-0.238317
H	 1.1594884784	 2.1542663782	 0.2841294024	 0.108665
H	-0.3896315618	 2.3635249306	-0.5558934146	 0.124555
H	-0.3532602689	 2.061860421	 1.1918834851	 0.129794
H	-0.9971629877	-0.0068130061	-0.1082725291	 0.115954
H	 1.5672135094	 0.3520343133	-1.5134335456	 0.241043
H	 0.7141006162	-0.956860674	-3.1235483375	 0.072014
H	 1.7349289369	-0.2034175232	 1.2368993041	 0.055439
H	 0.3535764684	 0.1529952501	 3.2824665564	 0.094467
H	-1.1026666047	-0.3464318329	 2.398853731	 0.10256
H	 1.2214284857	-2.2000114067	 3.1953486554	 0.099623
H	-0.4737892937	-2.6858360015	 3.0139355794	 0.099393
H	-0.3150238801	-2.3696649787	 0.524861319	 0.12876
H	 1.4279218912	-2.6218082445	 0.7337574723	 0.091704
40.0622	70.9582	116.8797	147.6872	198.3725	213.7621	235.3786	332.4446	368.8242	424.7057	488.3375	528.0836	640.1716	744.0785	784.7204	802.4879	884.3978	894.5291	936.4767	947.1638	962.1052	1001.5084	1028.1347	1029.323	1077.2512	1113.9695	1146.7356	1196.0135	1205.4774	1209.1252	1244.0316	1258.7014	1261.7266	1279.4687	1289.6185	1330.2821	1349.3367	1400.926	1408.3984	1430.1585	1479.7759	1487.2095	1492.181	1494.342	1510.6477	1527.5437	1797.3827	2927.1703	3013.4669	3027.059	3044.7344	3057.1877	3064.0999	3072.9827	3096.4012	3099.9772	3107.1571	3120.3491	3122.5199	3619.7432
CC(NC=O)C1CCC1	C[C@@H](NC=O)C1CCC1	
InChI=1S/C7H13NO/c1-6(8-5-9)7-3-2-4-7/h5-7H,2-4H2,1H3,(H,8,9)	InChI=1S/C7H13NO/c1-6(8-5-9)7-3-2-4-7/h5-7H,2-4H2,1H3,(H,8,9)/t6-/m1/s1
