16
gdb 55209	2.7662	1.56266	1.00641	5.7402	80.56	-0.1797	-0.0216	0.1581	1115.8516	0.126549	-434.117539	-434.109482	-434.108538	-434.149737	31.688	
N	-0.0005055223	 1.3318003659	 0.2038063648	-0.554306
C	 0.0147639187	-0.0218391877	 0.0147005069	 0.270512
N	 1.2404959126	-0.5914644736	-0.2546203902	-0.570224
H	 1.2605833708	-1.5950485572	-0.3334079796	 0.257035
H	 2.0340130756	-0.1985319943	 0.229947757	 0.258781
C	-1.1597562099	-0.7252580859	 0.087461999	 0.129969
N	-1.302959996	-2.1348196854	 0.0078595006	-0.396997
C	-2.6644017287	-2.392764044	 0.0059603894	-0.035215
C	-3.4026845237	-1.253587585	-0.0429002799	-0.249562
C	-2.4872356882	-0.1169485844	 0.0399877071	 0.349713
O	-2.738859169	 1.1004865048	 0.0460042603	-0.45646
H	 0.6726803378	 1.8522118409	-0.3405552877	 0.246622
H	-0.9624248437	 1.6955961127	 0.1909528714	 0.287143
H	-0.716453574	-2.7329365354	 0.5742264568	 0.240134
H	-3.000874081	-3.4205337075	 0.0288984291	 0.119191
H	-4.476340729	-1.182045104	-0.1206004849	 0.103664
126.1849	159.5977	203.9299	291.2192	347.1013	384.914	438.2301	462.2594	488.3826	526.0196	545.6374	580.7297	650.8925	672.2521	728.7849	738.239	798.453	831.6868	861.4384	893.9783	1037.5906	1085.8523	1105.5226	1138.7541	1151.8104	1265.8063	1311.4757	1372.9988	1412.4931	1459.9869	1582.1809	1590.8133	1636.9974	1694.6023	1734.5451	3224.851	3261.3067	3289.3432	3571.8	3578.6107	3615.6319	3695.7082
NC(=[NH2+])[C-]1NC=CC1=O	NC(=[NH2])[C]1NC=CC1=O	
InChI=1S/C5H6N3O/c6-5(7)4-3(9)1-2-8-4/h1-2,8H,(H3,6,7)/q-1/p+1	InChI=1S/C5H7N3O/c6-5(7)4-3(9)1-2-8-4/h1-2,8H,6-7H2
