19
gdb 79096	2.36216	1.91847	1.46485	3.0198	77.65	-0.2321	-0.0101	0.222	974.5108	0.160611	-385.893651	-385.88618	-385.885236	-385.925386	30.057	
C	-0.2264243288	 1.562753572	 0.1291192238	-0.422288
C	 0.0672231634	 0.0711698704	 0.0095408582	 0.021903
C	 0.6297414384	-0.5396741616	-1.2778359556	-0.083958
C	 2.1453586659	-0.4278142979	-1.3752465344	-0.045852
C	 2.9207206152	 0.5928250231	-0.5638950052	-0.355668
C	 2.4134735832	 0.3792464869	 0.8747104842	 0.424961
O	 2.8360942245	 0.9200052972	 1.8636705959	-0.330318
C	 1.2631785689	-0.6143267166	 0.7965336685	-0.179658
C	 1.5268704191	-1.4662662594	-0.4736330983	-0.091039
H	 0.6288578666	 2.1859064545	-0.1446718957	 0.123182
H	-1.0568187561	 1.8355725532	-0.5315257476	 0.115952
H	-0.5152384085	 1.8241996559	 1.1527049451	 0.126806
H	-0.8315474236	-0.4919133814	 0.2818367237	 0.08822
H	 0.0473435356	-0.7695435553	-2.1633358164	 0.083775
H	 2.5584387905	-0.7663240104	-2.3188342672	 0.090801
H	 3.9972953277	 0.388371659	-0.5954831152	 0.128423
H	 2.7859628949	 1.6373894255	-0.8627460871	 0.128452
H	 1.0166740657	-1.0790132701	 1.7484053246	 0.083326
H	 1.6767471276	-2.5355928152	-0.5298158114	 0.092981
107.2903	168.6534	203.7292	260.6743	372.8158	434.3954	509.0238	549.7143	612.7076	661.158	718.9707	759.2471	781.6084	804.162	834.3879	891.1972	928.4314	955.9653	981.8794	998.8676	1022.3219	1039.7436	1062.5752	1091.4575	1108.0217	1133.2997	1159.5832	1166.8921	1188.9789	1231.891	1244.6316	1279.4829	1301.7532	1327.7487	1375.3196	1407.2356	1413.6067	1454.8914	1490.9088	1496.6347	1843.8693	3034.8205	3044.7037	3048.1045	3083.4467	3096.8849	3118.3341	3144.9075	3166.311	3178.0731	3208.8917
CC1C2C3CC(=O)C1C23	C[C@H]1[C@H]2[C@H]3CC(=O)[C@@H]1[C@@H]23	
InChI=1S/C8H10O/c1-3-6-4-2-5(9)7(3)8(4)6/h3-4,6-8H,2H2,1H3	InChI=1S/C8H10O/c1-3-6-4-2-5(9)7(3)8(4)6/h3-4,6-8H,2H2,1H3/t3-,4+,6-,7+,8+/m0/s1
