18
gdb 65173	2.74327	1.20613	1.06717	1.9571	78.13	-0.2482	0.0275	0.2756	1195.6334	0.145245	-401.863359	-401.854264	-401.85332	-401.897541	34.128	
C	 0.4791207897	-0.8988552372	-0.3763685066	-0.469401
C	-0.0557663303	 0.5110101256	-0.4316379046	 0.40816
C	 0.8228884021	 1.6600220287	-0.1628334606	-0.215439
O	 0.4705625817	 1.3197917407	-1.5041954709	-0.280985
C	-1.53442381	 0.7237123351	-0.2371294754	-0.076613
N	-2.4267452013	-0.4314745784	-0.3013723335	-0.332706
C	-2.3122847772	 0.3024042119	 0.978489945	-0.253924
C	-1.7422336211	-0.3747741115	 2.1111148088	 0.377765
C	-1.2931740947	-0.899135923	 3.0957246735	-0.429381
H	 1.5524065111	-0.8929678909	-0.5809469672	 0.117596
H	 0.3033496283	-1.3447092346	 0.60548692	 0.140176
H	-0.022665045	-1.5225508939	-1.1202589239	 0.138892
H	 0.400884537	 2.5932860782	 0.2101860362	 0.106789
H	 1.8625404478	 1.4844017875	 0.110781989	 0.113097
H	-1.8682275297	 1.6551897685	-0.6917069761	 0.098737
H	-3.3013465779	-0.1969118031	-0.7624306619	 0.242615
H	-3.1343614656	 0.9667801348	 1.2399988884	 0.113922
H	-0.8938420849	-1.3748640187	 3.9571677999	 0.200701
38.5839	119.7215	177.0154	195.7651	251.5208	257.68	361.3125	362.0395	413.5702	480.6459	555.4111	604.1999	624.4678	661.411	714.2976	805.4886	811.3393	872.5064	898.0975	929.6945	966.7482	994.3544	1027.3956	1096.8886	1105.6615	1135.9148	1161.049	1172.6797	1208.9717	1234.335	1306.8693	1364.6788	1406.9344	1420.3793	1454.5874	1478.7434	1499.2926	1531.9339	2238.226	3054.9099	3076.4451	3113.6503	3125.2105	3131.3079	3136.1467	3161.2893	3502.5294	3513.3039
CC1(CO1)C1NC1C#C	C[C@]1(CO1)[C@H]1N[C@H]1C#C	
InChI=1S/C7H9NO/c1-3-5-6(8-5)7(2)4-9-7/h1,5-6,8H,4H2,2H3	InChI=1S/C7H9NO/c1-3-5-6(8-5)7(2)4-9-7/h1,5-6,8H,4H2,2H3/t5-,6-,7-/m0/s1
