15
gdb 26042	3.18981	1.26819	1.00216	1.9179	71.89	-0.2459	-0.0031	0.2428	1157.5684	0.112878	-416.788354	-416.779978	-416.779034	-416.822338	30.277	
N	-0.2263044003	 1.5739023107	-0.0575678177	-0.49066
C	 0.0019848639	 0.1289909306	-0.0788870222	-0.267709
C	-1.2415070441	-0.5937064051	 0.2077753943	 0.360047
C	-2.2629298532	-1.1864123567	 0.4236339052	-0.46224
C	 0.6095869549	-0.3657282281	-1.3774061564	 0.392719
N	 0.8406530289	 0.3185891897	-2.4510703191	-0.315578
C	 1.4217876096	-0.595031569	-3.3255703622	-0.111751
C	 1.5097866297	-1.7963562024	-2.7127272528	-0.040249
O	 0.9917817815	-1.663460912	-1.4533261293	-0.169636
H	 0.6336507569	 2.0350116044	-0.3448404028	 0.241761
H	-0.905001198	 1.8019057518	-0.7796311825	 0.2447
H	 0.7183190053	-0.1064128022	 0.7219387323	 0.137339
H	-3.1652652841	-1.7100441664	 0.6226670371	 0.204372
H	 1.7290940211	-0.3142985289	-4.320100505	 0.127728
H	 1.8765270279	-2.7713681163	-2.982884759	 0.149156
31.7938	104.4521	180.194	195.3754	232.2308	289.2761	405.2424	462.814	573.9494	627.3694	632.1213	659.8179	682.4478	765.8462	808.7288	864.3066	908.3126	931.6115	941.978	982.2402	1100.4225	1130.8861	1148.5604	1166.3651	1195.3611	1235.4757	1317.4986	1379.8852	1394.8195	1555.3206	1607.3763	1664.667	2245.9665	3002.9268	3266.8118	3301.975	3487.5592	3504.0319	3561.5073
NC(C#C)C1=NC=CO1	N[C@@H](C#C)c1ncco1	
InChI=1S/C6H6N2O/c1-2-5(7)6-8-3-4-9-6/h1,3-5H,7H2	InChI=1S/C6H6N2O/c1-2-5(7)6-8-3-4-9-6/h1,3-5H,7H2/t5-/m0/s1
