13
gdb 131903	4.61117	1.09735	0.88727	6.1326	69.69	-0.23	-0.0829	0.1472	1198.2209	0.08949	-489.816804	-489.809263	-489.808319	-489.849197	27.677	
N	-0.0325780763	 1.4050408549	 0.1532483765	-0.606211
C	 0.0256786217	 0.01819413	 0.0416815729	 0.24789
C	-1.0167738626	-0.8764787502	 0.0070420565	-0.06713
O	-0.5548212583	-2.1583586712	-0.0200645696	-0.142871
C	 0.7820242442	-2.0673756539	-0.0088173068	 0.478096
C	 1.2139553794	-0.7749966409	 0.0311730925	-0.320996
N	 1.5278956729	-3.2854704673	-0.0403178013	 0.337018
O	 2.7517523017	-3.1640035546	-0.0339837273	-0.377896
O	 0.9080362828	-4.3406861861	-0.0710598877	-0.357955
H	 0.7418237616	 1.880974369	-0.2880723905	 0.257576
H	-0.9092239463	 1.8075203172	-0.1478965225	 0.254376
H	-2.0877889275	-0.7637817086	 0.0054117353	 0.148044
H	 2.2403148067	-0.4488324984	 0.053678972	 0.150059
83.7945	159.8316	191.8708	232.658	345.2836	369.7068	426.4103	552.2465	610.1946	618.1622	667.5442	703.1463	732.6208	775.8211	831.6418	855.7472	971.5929	1002.6009	1099.3567	1152.8577	1160.7537	1277.2383	1348.9674	1400.6232	1443.3805	1549.4114	1622.7302	1648.0054	1671.3293	3282.848	3284.8267	3557.9321	3650.2511
NC1=COC(=C1)N(=O)=O	Nc1coc(c1)N(=O)=O	
InChI=1S/C4H4N2O3/c5-3-1-4(6(7)8)9-2-3/h1-2H,5H2	InChI=1S/C4H4N2O3/c5-3-1-4(6(7)8)9-2-3/h1-2H,5H2
