20
gdb 98679	3.34545	0.90789	0.85311	4.2611	78.11	-0.2546	-0.0308	0.2238	1450.5126	0.168357	-440.280723	-440.270769	-440.269824	-440.3157	36.591	
C	 0.0983406827	 1.5607839513	-0.4850627767	-0.446983
C	-0.0388336129	 0.1076646185	-0.082827398	 0.322058
C	-1.2676072257	-0.5947241056	-0.62852151	-0.452986
N	 1.2142722879	-0.6350094482	-0.0027041277	-0.339506
C	 0.4810224185	-0.378999632	 1.2554774501	-0.193095
C	 1.1100609077	 0.5172015139	 2.2653351483	 0.385904
O	 1.9380827404	 1.3692915485	 2.0131584964	-0.335995
C	 0.6446912256	 0.3474862289	 3.7078207749	-0.134589
O	 1.2477421094	 1.2829939788	 4.5460951786	-0.421548
H	 1.0105059919	 1.9925805564	-0.0747851867	 0.166351
H	 0.1359757219	 1.6362010658	-1.5774549707	 0.11913
H	-0.7622399922	 2.1432006677	-0.1386905294	 0.113823
H	-1.2467513785	-0.5950570642	-1.724411066	 0.130897
H	-1.3247620627	-1.6339373942	-0.2886875002	 0.113724
H	-2.185312065	-0.0847985207	-0.3173831959	 0.131026
H	 1.0778562102	-1.606891205	-0.2732679705	 0.233569
H	-0.0797273056	-1.2040031579	 1.6922187302	 0.08598
H	-0.4550817269	 0.4342899335	 3.7320982257	 0.11429
H	 0.876042702	-0.6868450645	 4.0187040199	 0.113674
H	 1.8497125313	 1.7800681891	 3.9671257477	 0.294275
54.6932	106.255	140.5114	177.9231	205.3772	247.5205	284.6832	328.7893	361.1474	385.1235	418.367	436.8108	467.6761	574.7991	695.1924	726.0708	803.2681	893.8901	917.0335	959.0166	971.3899	1010.6958	1035.7479	1047.3473	1085.2361	1123.1715	1151.1536	1161.0166	1197.5215	1241.4856	1301.1622	1314.0105	1352.2666	1412.1871	1422.4566	1444.8217	1460.7461	1480.185	1486.7439	1492.9306	1504.0734	1509.9977	1788.9707	2957.1161	2975.758	3026.7208	3037.6129	3092.3173	3096.5989	3102.9597	3117.7456	3162.0135	3487.0179	3664.6724
CC1(C)NC1C(=O)CO	CC1(C)N[C@H]1C(=O)CO	
InChI=1S/C6H11NO2/c1-6(2)5(7-6)4(9)3-8/h5,7-8H,3H2,1-2H3	InChI=1S/C6H11NO2/c1-6(2)5(7-6)4(9)3-8/h5,7-8H,3H2,1-2H3/t5-/m0/s1
