18
gdb 54119	3.25664	1.30567	1.09611	13.871	75.63	-0.1777	-0.0174	0.1603	1123.164	0.147395	-439.017693	-439.009064	-439.00812	-439.051521	32.036	
C	 0.018909682	 1.5572793716	-0.0195716806	-0.484666
C	 0.0718077061	 0.0506388092	-0.0020410723	 0.154444
C	 1.3076055708	-0.7821920199	-0.2542441019	-0.076681
C	 2.5576405459	-0.142032076	 0.3443044803	-0.225883
N	 1.8617265924	-0.0490905487	 1.7092331824	-0.29322
H	 2.3432385503	-0.5738287554	 2.4372675819	 0.302835
H	 1.6745201777	 0.8974920273	 2.0461095476	 0.302429
C	 0.635317324	-0.7676596141	 1.104392881	-0.070171
C	-1.232051521	-0.7079942123	-0.5646948171	 0.34567
O	-2.0578419148	 0.0452398078	-1.0787498475	-0.453694
O	-1.1777532646	-1.9377143101	-0.3783452931	-0.478504
H	 0.952918238	 2.0653377937	 0.2697105804	 0.051825
H	-0.2419882918	 1.8801937131	-1.0290918656	 0.166384
H	-0.7828168541	 1.9110909176	 0.6344324518	 0.140409
H	 1.3127362199	-1.6036528697	-0.9545229181	 0.147253
H	 3.4199765028	-0.8033541976	 0.4420954996	 0.153063
H	 2.8747875664	 0.8408070927	-0.0122002948	 0.157163
H	 0.1335739201	-1.519677949	 1.6941354758	 0.161342
44.9576	103.9732	177.1573	200.5413	243.3629	277.0445	330.1165	399.5818	460.0954	612.3601	704.9262	739.3173	752.4729	789.8477	790.8715	855.5954	872.975	891.7036	910.2427	989.2303	992.5388	1050.2076	1074.6969	1087.1932	1095.5318	1150.9503	1161.0723	1214.8303	1242.6746	1271.263	1305.2662	1323.4141	1414.2959	1418.3207	1465.8132	1488.0567	1501.8906	1621.9772	1813.07	2971.7433	3075.2186	3092.832	3137.1236	3138.2858	3241.8189	3251.8024	3429.8314	3520.6355
CC1(C2C[NH2+]C12)C([O-])=O	C[C@]1([C@H]2C[NH2][C@@H]12)C(=O)[O]	
InChI=1S/C6H9NO2/c1-6(5(8)9)3-2-7-4(3)6/h3-4,7H,2H2,1H3,(H,8,9)	InChI=1S/C6H9NO2/c1-6(5(8)9)3-2-7-4(3)6/h3-4H,2,7H2,1H3/t3-,4+,6+/m0/s1
