16
gdb 61979	2.70275	1.03014	0.85361	2.8395	65.7	-0.2883	-0.0037	0.2846	1355.4487	0.12155	-475.061837	-475.051865	-475.05092	-475.098247	33.684	
C	-0.0677980289	 0.7401500335	 1.2185710092	-0.480137
C	-0.3877275002	-0.1500663882	 0.0471013395	 0.435593
O	-0.7268905487	 0.2098603417	-1.050696979	-0.34696
O	-0.2438898168	-1.4583337601	 0.3896847666	-0.232641
C	-0.4853101241	-2.4098729493	-0.6471037673	-0.096504
C	-1.9895252175	-2.6382809563	-0.8982478478	-0.02462
O	-2.1844880107	-3.6173804095	-1.8973947387	-0.404675
C	-2.6927471044	-2.9824348604	 0.3529193462	 0.250381
N	-3.2342373104	-3.2928934891	 1.3252399974	-0.311986
H	 0.9591012542	 0.565236368	 1.5514040494	 0.15615
H	-0.195144967	 1.7818934583	 0.9279479612	 0.154147
H	-0.7265664323	 0.4999334702	 2.0577525155	 0.163732
H	-0.0371726615	-2.0807435822	-1.5867467863	 0.14869
H	-0.0162310106	-3.3370052641	-0.308793012	 0.121154
H	-2.4148335715	-1.7113010386	-1.2919740761	 0.167897
H	-1.9556560298	-4.4807806738	-1.5335739778	 0.299779
44.27	59.4149	83.8094	102.4749	166.1339	236.3937	292.1783	298.6354	327.9638	348.9224	482.1592	567.0947	600.4283	611.3692	676.3856	797.6059	855.412	995.7726	1040.0573	1066.9733	1073.0005	1085.5915	1101.8402	1245.3982	1268.5556	1290.837	1336.0005	1392.9767	1408.9423	1429.1719	1467.6779	1474.2535	1477.5269	1827.7995	2356.826	3059.7756	3071.6808	3096.7603	3125.345	3138.8729	3173.4437	3798.7125
CC(=O)OCC(O)C#N	CC(=O)OC[C@@H](O)C#N	
InChI=1S/C5H7NO3/c1-4(7)9-3-5(8)2-6/h5,8H,3H2,1H3	InChI=1S/C5H7NO3/c1-4(7)9-3-5(8)2-6/h5,8H,3H2,1H3/t5-/m0/s1
