18
gdb 5521	2.99052	1.84625	1.23549	0.6747	75.05	-0.2067	0.0273	0.234	1018.8189	0.153665	-347.849095	-347.840755	-347.83981	-347.882431	30.197	
C	-0.0076443719	 1.6187126541	 0.3637367526	-0.368661
C	-0.0296518489	 0.1439491125	-0.0760038313	-0.29237
C	-1.4040325298	-0.4235541706	-0.1820627536	 0.280964
C	-2.1682072951	-0.8783056287	-1.2180923251	 0.156427
C	-1.8050358819	-0.9533593499	-2.6696072495	-0.507675
C	-3.4215153088	-1.2814901649	-0.6338832346	-0.259715
C	-3.321916661	-1.0411261625	 0.6956483713	-0.020208
O	-2.1030990257	-0.5192797784	 0.992422581	-0.186754
H	 1.0205843833	 1.9830774332	 0.4510534158	 0.110494
H	-0.5351613455	 2.2496407945	-0.3581765467	 0.119207
H	-0.4961573526	 1.7388195461	 1.3345673102	 0.131194
H	 0.4636290401	 0.0367144295	-1.0470143828	 0.1104
H	 0.5555645733	-0.4525090948	 0.6361993456	 0.115307
H	-1.8741404741	-1.9800522341	-3.0474923312	 0.128089
H	-2.4762025097	-0.3412535734	-3.2834359915	 0.128208
H	-0.7850377185	-0.604008538	-2.8502571182	 0.123061
H	-4.2737201245	-1.6958998693	-1.1510166453	 0.103987
H	-3.9894983387	-1.1781060053	 1.5304511032	 0.128044
48.0436	102.2036	149.7319	204.4971	252.0629	278.1374	353.4495	431.6872	612.4429	622.5679	671.5943	715.7269	745.0478	783.2823	818.8796	907.1339	969.6555	979.9547	1025.5749	1062.0365	1071.2827	1085.325	1162.9172	1184.4749	1235.5522	1275.2848	1303.8558	1353.9563	1403.4064	1416.2999	1436.716	1473.3001	1482.9206	1495.5599	1497.758	1507.2983	1551.6095	1667.4255	3022.3146	3027.0101	3039.9548	3074.3049	3079.7096	3110.3397	3111.1981	3121.8069	3245.3598	3280.3216
CCC1=C(C)C=CO1	CCc1c(C)cco1	
InChI=1S/C7H10O/c1-3-7-6(2)4-5-8-7/h4-5H,3H2,1-2H3	InChI=1S/C7H10O/c1-3-7-6(2)4-5-8-7/h4-5H,3H2,1-2H3
