17
gdb 75987	1.881	1.76659	1.16268	2.7586	74.26	-0.238	-0.0297	0.2082	1105.9928	0.132868	-421.796586	-421.787159	-421.786215	-421.830795	34.414	
C	 0.0450290614	 1.6311155109	 0.120399673	-0.412448
C	 0.1029325308	 0.114995835	 0.0428853687	-0.100085
C	 0.7996039356	-0.6272362095	-1.1634428698	-0.296645
C	 1.8631535861	 0.1231646357	-1.7971904567	 0.329037
C	 2.7980777266	 0.711930059	-2.2752264596	-0.448269
C	 1.3917964934	-1.6845935419	-0.1262317652	 0.059873
O	 2.6542032019	-2.2246113306	-0.2917948618	-0.411945
C	 1.0975760036	-0.622952736	 0.9587783715	 0.335082
O	 1.6107080261	-0.3424922447	 2.0019361616	-0.294563
H	 1.0266613828	 2.0696566528	-0.0746123446	 0.137794
H	-0.6639276748	 2.0408496924	-0.6050366593	 0.122398
H	-0.2712175658	 1.9384377749	 1.1214193469	 0.136079
H	-0.8944708478	-0.3210916324	 0.1762294774	 0.109909
H	 0.1182780302	-1.0499822277	-1.9041150837	 0.110136
H	 3.5973439433	 1.2467080214	-2.7267292482	 0.207699
H	 0.6865892355	-2.5176100438	-0.0318087948	 0.123181
H	 3.2730150012	-1.4970563354	-0.4349440654	 0.292768
67.9442	124.3403	160.2464	169.307	176.2503	219.0219	319.9369	336.398	376.6224	495.8528	525.3556	564.1462	626.7839	638.9274	653.1744	756.4843	767.4323	802.4541	897.9524	943.1868	984.9682	1045.5781	1064.1746	1125.5838	1157.036	1175.8271	1212.2411	1235.3977	1305.042	1325.9791	1358.5736	1410.0614	1435.2306	1490.4027	1497.0611	1890.3028	2224.8333	3040.8773	3046.7119	3061.9607	3092.9074	3115.6198	3128.6131	3500.0917	3775.473
CC1C(C#C)C(O)C1=O	C[C@H]1[C@@H](C#C)[C@@H](O)C1=O	
InChI=1S/C7H8O2/c1-3-5-4(2)6(8)7(5)9/h1,4-5,7,9H,2H3	InChI=1S/C7H8O2/c1-3-5-4(2)6(8)7(5)9/h1,4-5,7,9H,2H3/t4-,5+,7+/m0/s1
