18
gdb 51475	3.32221	1.08603	1.02781	3.4311	72.42	-0.2384	-0.0225	0.2159	1215.3156	0.147389	-439.056386	-439.048182	-439.047237	-439.090283	29.906	
O	-0.3317181669	 0.3095435889	 0.5800310858	-0.2402
C	 0.0994739236	 1.015299002	-0.2935232325	 0.159392
C	 1.4927293724	 1.6235191675	-0.2873976824	-0.248465
N	 1.5113047043	 2.8115188121	-1.1300343672	-0.10938
C	 1.3265618999	 4.1564104723	-0.5960385679	-0.055276
C	 1.5815935731	 4.4051128851	 0.8788187076	-0.111795
O	 2.8401992327	 3.8038555384	 1.1734390931	-0.250844
C	 3.6214954656	 3.742514553	-0.0167708298	-0.105624
C	 2.6376315372	 3.7302921358	-1.1724728096	-0.051731
H	-0.496250814	 1.2692880912	-1.1988892341	 0.085951
H	 1.8251287099	 1.7607778115	 0.7481363075	 0.146959
H	 2.1584806272	 0.8785400237	-0.7474517741	 0.133316
H	 0.6177253051	 4.7924495555	-1.1182834762	 0.101723
H	 1.5967289664	 5.4906740336	 1.0658462415	 0.104331
H	 0.8405033178	 3.9550920973	 1.5489282607	 0.122427
H	 4.2822301433	 4.6189671127	-0.1136870933	 0.102409
H	 4.2506788963	 2.8481001229	 0.0513493445	 0.116003
H	 2.9870610961	 4.0255294764	-2.1581101037	 0.100803
49.478	74.6469	142.4335	233.4175	244.8005	287.0064	443.1418	469.9768	519.1915	693.0922	746.7961	761.3428	810.1707	834.5724	898.3182	924.5889	986.784	1017.7808	1032.5287	1039.2927	1062.1308	1108.7507	1120.5757	1134.3016	1141.7453	1224.1258	1239.9768	1250.7024	1304.8591	1312.1933	1332.7857	1351.2558	1369.4841	1406.0216	1432.9421	1472.3721	1509.355	1520.1285	1838.4114	2888.7744	2977.7181	2984.6196	3009.9147	3061.4049	3064.182	3066.5476	3145.0564	3156.4659
O=CCN1C2COCC12	O=CCN1[C@H]2COC[C@@H]12	
InChI=1S/C6H9NO2/c8-2-1-7-5-3-9-4-6(5)7/h2,5-6H,1,3-4H2	InChI=1S/C6H9NO2/c8-2-1-7-5-3-9-4-6(5)7/h2,5-6H,1,3-4H2/t5-,6+,7?
