17
gdb 20240	3.2058	3.16388	2.50046	1.6528	68.78	-0.2304	0.0898	0.3202	664.6067	0.146979	-326.715441	-326.710232	-326.709288	-326.744325	22.738	
C	-0.0304737436	 1.5579748207	-0.1025438692	-0.248399
C	 1.4293525123	 1.9513746581	 0.0536082302	-0.068137
C	 2.1581170526	 1.4093840814	 1.2675315555	-0.068209
C	 1.357493942	 0.5254363096	 2.2098882374	-0.248436
C	 0.7100606389	-0.4811517832	 1.2729369417	-0.03568
C	-0.0038209812	 0.0497559298	 0.0840545543	-0.035759
N	 1.3813482038	-0.4805654025	-0.0570892606	-0.123928
C	 2.2618628119	 0.6941604186	-0.0608578071	-0.024151
H	-0.690081288	 2.0538181779	 0.6200972358	 0.105301
H	-0.3919019633	 1.8130192295	-1.1047456016	 0.106841
H	 1.7733725055	 2.8892713435	-0.3680055145	 0.083845
H	 2.9902590412	 1.9840054	 1.6588000713	 0.083873
H	 2.021637266	 0.0166145604	 2.9170576129	 0.106829
H	 0.6164537201	 1.0811362274	 2.7975274216	 0.105304
H	 0.4413692452	-1.4582736888	 1.665011978	 0.085688
H	-0.7860217224	-0.5452190658	-0.379383971	 0.085707
H	 3.170306689	 0.6119376934	-0.6427825448	 0.089311
260.8396	424.2563	446.133	661.5844	678.8917	716.208	726.1786	745.448	793.0229	805.7127	845.2531	895.4783	927.9144	929.6481	971.7515	1006.6291	1035.8597	1045.392	1054.3914	1060.7811	1089.4179	1113.1879	1113.5926	1129.8931	1188.281	1204.4843	1225.5016	1286.5082	1290.9327	1309.7784	1322.8929	1369.151	1405.4755	1418.0886	1487.1729	1499.972	3030.733	3032.5251	3069.0046	3069.8781	3138.4386	3149.234	3166.4245	3174.774	3199.7173
C1C2C3CC4C1N4C23	C1[C@H]2[C@H]3C[C@H]4[C@@H]1N4[C@@H]23	
InChI=1S/C7H9N/c1-3-4-2-6-5(1)8(6)7(3)4/h3-7H,1-2H2	InChI=1S/C7H9N/c1-3-4-2-6-5(1)8(6)7(3)4/h3-7H,1-2H2/t3-,4+,5+,6-,7-,8?
