16
gdb 46936	2.99674	1.87053	1.42194	3.5798	69.64	-0.2414	0.0225	0.2638	910.592	0.12658	-437.853016	-437.846407	-437.845462	-437.884137	26.334	
N	-0.0880610799	 1.2593484565	 0.246163797	-0.528782
C	 0.0047459369	 0.0225848798	-0.0156897507	 0.412558
O	 1.2121808019	-0.5447518835	-0.3085149918	-0.263536
C	 1.3333787021	-1.8880099718	-0.7850676897	-0.081576
C	 0.1710687105	-2.7710312177	-0.3943240325	 0.069364
O	-0.0682719778	-2.7142224688	 1.0433272471	-0.294972
C	-1.3350469839	-2.1110153522	 0.8002222022	 0.095192
C	-1.2150825729	-2.1874343253	-0.6899822761	-0.190018
C	-1.209575139	-0.8333018962	-0.0102094247	-0.135832
H	 0.832856549	 1.6987969568	 0.1852798338	 0.217626
H	 1.4345086908	-1.8780014965	-1.8797859208	 0.11359
H	 2.2651309756	-2.2705426682	-0.357253832	 0.129319
H	 0.3242730627	-3.8017213424	-0.7273250265	 0.099939
H	-2.1431526413	-2.3095445742	 1.4929862368	 0.121474
H	-1.9003474682	-2.4874046236	-1.4700927947	 0.110724
H	-2.1285254364	-0.2632381228	-0.0756403675	 0.124931
99.9553	168.9928	333.4731	373.2265	418.4682	494.2822	595.1678	681.934	719.0748	781.4524	797.1805	844.6837	851.4997	891.7551	897.5798	916.9562	991.5921	1005.4991	1029.6636	1045.8687	1047.9498	1062.6159	1099.2997	1138.4189	1177.959	1231.2709	1253.8382	1281.2772	1312.7707	1335.1022	1357.7404	1412.3483	1439.6142	1498.0447	1739.7707	3010.6936	3070.8606	3084.1355	3193.3739	3198.3874	3214.598	3463.9045
N=C1OCC2OC3C2C13	[NH][C]1OC[C@H]2O[C@@H]3[C@H]2[C@H]13	
InChI=1S/C6H7NO2/c7-6-4-3-2(1-8-6)9-5(3)4/h2-5,7H,1H2	InChI=1S/C6H7NO2/c7-6-4-3-2(1-8-6)9-5(3)4/h2-5,7H,1H2/t2-,3-,4+,5-/m1/s1
