15
gdb 71458	4.1512	1.44613	1.28438	4.8403	64.01	-0.2244	0.0202	0.2446	951.5657	0.113833	-453.914912	-453.907917	-453.906973	-453.946016	27.894	
O	-0.1211873084	 1.4107478138	-0.0521108411	-0.449801
C	-0.0049311572	 0.0391979266	-0.0355168457	 0.334069
C	 0.6533928596	-0.8353235079	-1.095096234	-0.257655
N	-0.3309770135	-1.9579435449	-0.745477409	-0.199013
C	-1.1336802719	-0.9607508394	 0.0397723462	-0.090435
C	-0.2691178514	-0.7986332912	 1.2415883745	-0.098863
N	 0.3957543472	-2.0565235643	 1.4296763826	-0.323332
C	 0.4006616409	-2.7633240846	 0.2400710636	 0.4019
O	 0.9620636019	-3.799509071	 0.0113851641	-0.35833
H	 0.6491618065	 1.7938277462	 0.3825351401	 0.293726
H	 0.4476943451	-0.4814752613	-2.1073224865	 0.134017
H	 1.7115416422	-1.1026124743	-1.000706004	 0.118789
H	-2.2107460241	-0.8961670914	-0.0422214617	 0.114695
H	-0.6339615483	-0.269458171	 2.1127463559	 0.121335
H	 1.1084246413	-2.2319537251	 2.1188677549	 0.258899
130.3641	248.6042	296.8425	325.6452	367.4063	395.0044	485.132	496.2482	581.2891	689.2674	717.0829	770.817	818.48	852.1997	870.2611	904.6595	928.6925	984.5689	1009.5879	1051.9183	1076.5728	1091.297	1140.5693	1172.079	1181.3547	1242.0203	1277.184	1307.1475	1328.7473	1377.1102	1452.1855	1511.3935	1872.7848	3045.4987	3115.9197	3197.3055	3206.7619	3653.0113	3794.0401
OC12CN3C1C2NC3=O	O[C@]12CN3[C@H]1[C@H]2NC3=O	
InChI=1S/C5H6N2O2/c8-4-6-2-3-5(2,9)1-7(3)4/h2-3,9H,1H2,(H,6,8)	InChI=1S/C5H6N2O2/c8-4-6-2-3-5(2,9)1-7(3)4/h2-3,9H,1H2,(H,6,8)/t2-,3+,5+/m1/s1
