16
gdb 48752	3.15338	1.43783	1.16847	1.762	71.17	-0.2445	-0.0313	0.2132	1038.7675	0.125241	-437.892783	-437.885186	-437.884241	-437.925282	28.232	
O	-0.2389865846	 0.1186781188	 0.3504379671	-0.273159
C	-0.0402458979	 1.2692315439	 0.0390261125	 0.106089
C	 1.2935064162	 1.9000965534	-0.0354502775	 0.155887
C	 1.3702979729	 3.4041728156	 0.1681416051	-0.336905
C	 1.5418891811	 2.8578200049	-1.2144810726	-0.011632
N	 2.8264252248	 2.86646731	-1.8309971674	-0.260432
C	 3.7619759068	 2.2168291795	-1.2761554793	 0.128476
O	 3.7305766039	 1.4606194816	-0.1599032596	-0.230772
C	 2.4568352352	 1.0063493668	 0.3350875746	-0.146533
H	-0.8810118053	 1.9495147307	-0.2313254285	 0.075136
H	 0.4474214251	 3.923112321	 0.4073624465	 0.13019
H	 2.2533235323	 3.7859554599	 0.6687940948	 0.142481
H	 0.7252197178	 3.0096510576	-1.9127316695	 0.111568
H	 4.7698105763	 2.2422590663	-1.6844732948	 0.13415
H	 2.5782034132	 0.9209196907	 1.4182648279	 0.132617
H	 2.2692301422	 0.0045971294	-0.0635749291	 0.142838
80.1938	111.7884	207.5921	230.2697	336.686	369.763	455.4623	515.7116	556.1946	634.663	741.535	786.482	837.0148	889.1023	926.8803	947.2453	970.706	1020.7448	1050.8915	1055.0456	1084.9682	1094.3892	1156.6477	1187.4052	1245.1393	1286.1011	1332.9847	1371.3339	1414.1946	1423.5061	1435.8313	1477.115	1512.3643	1721.8033	1802.1122	2862.9986	3056.8566	3099.8441	3130.7119	3160.118	3170.5709	3223.5828
O=CC12CC1N=COC2	O=C[C@]12C[C@H]1N=COC2	
InChI=1S/C6H7NO2/c8-2-6-1-5(6)7-4-9-3-6/h2,4-5H,1,3H2	InChI=1S/C6H7NO2/c8-2-6-1-5(6)7-4-9-3-6/h2,4-5H,1,3H2/t5-,6+/m1/s1
