13
gdb 17155	4.26765	2.0274	1.63545	5.1809	63.15	-0.2514	-0.003	0.2484	762.3216	0.097419	-357.528444	-357.522555	-357.521611	-357.558449	22.864	
N	-0.0166558271	-1.0851151066	 0.0244499732	-0.338963
C	-0.0186368229	 0.0707989571	 0.0343156882	 0.166078
C	-0.0460260819	 1.5087465712	 0.044122326	 0.286014
N	-0.6904194406	 2.3345696619	 1.1156825813	-0.370645
C	-0.1534230712	 3.3476237286	 0.1494471546	-0.056735
C	 1.1444755414	 2.5123718702	-0.1045965973	-0.043927
N	 1.0442410771	 2.5071775165	-1.5964363477	-0.335592
C	-0.3806013158	 2.4843068765	-1.1446559379	-0.076578
H	-1.7092119153	 2.2700577643	 1.0416055502	 0.224462
H	-0.2565599304	 4.4234431817	 0.2880109066	 0.102588
H	 2.0791517414	 2.5073694514	 0.453517584	 0.116384
H	 1.2843454399	 3.4280321707	-1.9712983692	 0.220945
H	-1.2361274448	 2.4448087064	-1.820496042	 0.105968
151.2782	179.6001	418.9375	466.4789	535.653	541.3337	594.9439	742.5052	785.7014	827.6765	857.9757	901.8704	909.4816	941.0907	998.6353	1048.1348	1083.1656	1095.8965	1098.6811	1151.5095	1186.128	1203.4331	1251.9008	1268.1683	1291.3188	1301.5959	1351.7999	2356.6163	3113.4473	3130.1423	3146.5086	3411.4202	3418.7836
N#CC12NC3C1NC23	N#C[C@@]12N[C@H]3[C@@H]1N[C@@H]23	
InChI=1S/C5H5N3/c6-1-5-3-2(8-5)4(5)7-3/h2-4,7-8H	InChI=1S/C5H5N3/c6-1-5-3-2(8-5)4(5)7-3/h2-4,7-8H/t2-,3-,4+,5+
