18
gdb 64940	3.74835	0.70793	0.62977	4.0562	86.37	-0.2473	0.0193	0.2666	1763.7886	0.146105	-364.789636	-364.779901	-364.778956	-364.826332	34.541	
C	-0.0389243318	 1.5144667012	-0.0002728223	-0.45732
C	 0.015822693	-0.0063521559	 0.0017267483	 0.176932
C	 1.3621829032	-0.6819454368	-0.2205332953	-0.286862
C	 0.7401621252	-0.7025545929	 1.1459144667	-0.28688
C	-1.1485683236	-0.6587255988	-0.5381517025	 0.054641
C	-2.1318403369	-1.183474855	-0.9934831521	 0.069895
C	-3.3220687316	-1.8269395558	-1.5447360861	-0.475934
C	-3.2317045986	-3.2937229556	-1.5434129522	 0.279278
N	-3.1718852669	-4.4467735052	-1.5474418083	-0.303092
H	 0.8799024117	 1.9298896734	 0.4243152635	 0.116945
H	-0.1494016105	 1.9015472327	-1.0180196639	 0.127647
H	-0.8833239884	 1.8772350364	 0.5940609982	 0.127619
H	 1.3741644266	-1.6030532705	-0.7906072343	 0.130612
H	 2.2120215591	-0.0303285615	-0.3931413458	 0.119098
H	 1.1607694461	-0.0652359887	 1.9163298708	 0.119085
H	 0.3286211649	-1.6377019047	 1.5060548655	 0.130497
H	-4.2178131399	-1.5423127759	-0.9769624036	 0.1789
H	-3.4994011514	-1.4994687264	-2.5777152265	 0.178939
12.1062	61.8679	127.8969	147.9606	220.7858	279.1459	307.4576	332.8446	342.3856	376.0451	487.4335	541.7059	559.0311	653.1103	787.7402	841.7766	847.6312	925.3172	937.6034	943.1834	955.4588	1047.1825	1072.1807	1080.9471	1091.271	1118.932	1195.2291	1233.0175	1293.8824	1325.5971	1360.767	1415.6015	1451.757	1466.6306	1487.5785	1497.4752	1503.5192	2367.9638	2374.0073	3020.3707	3035.4959	3048.6425	3105.7818	3110.6358	3137.4386	3141.6662	3223.2346	3237.4464
CC1(CC1)C#CCC#N	CC1(CC1)C#CCC#N	
InChI=1S/C8H9N/c1-8(5-6-8)4-2-3-7-9/h3,5-6H2,1H3	InChI=1S/C8H9N/c1-8(5-6-8)4-2-3-7-9/h3,5-6H2,1H3
