21
gdb 95232	3.1143	1.30814	1.03356	1.3408	83.57	-0.2362	0.0124	0.2486	1198.9477	0.184534	-387.082681	-387.074537	-387.073593	-387.114886	33.151	
O	-0.2167903751	 1.5454930927	-0.1649308058	-0.441097
C	 0.0540064329	 0.155231753	-0.007539645	 0.089872
C	-1.2938982744	-0.5142880448	 0.3238203521	-0.192648
C	-1.2927454541	-2.0434297392	 0.1450427289	-0.226329
C	-0.0474207084	-2.7403003072	 0.6704604823	-0.000998
C	 0.5457967777	-3.8798471151	-0.1221085754	-0.311825
C	 1.2630591387	-2.5475140692	-0.0680014891	-0.05725
C	 1.3031816427	-1.6344348165	-1.247595027	-0.08826
C	 0.7414438099	-0.4245966514	-1.228795794	-0.095904
H	 0.626492355	 2.0019588103	-0.2474423276	 0.278591
H	 0.7195270839	 0.0055029639	 0.8564040556	 0.076248
H	-1.559124351	-0.2388679183	 1.3506309265	 0.099561
H	-2.0575881555	-0.0709838389	-0.3245896772	 0.107874
H	-2.1824860652	-2.4660243159	 0.6264385414	 0.094941
H	-1.3896806461	-2.269834665	-0.9210993624	 0.103915
H	 0.0206821014	-2.814219933	 1.7529647493	 0.077888
H	 0.9876540832	-4.7164654845	 0.408226168	 0.107716
H	 0.0493792129	-4.1517465947	-1.048660313	 0.111518
H	 2.1649450997	-2.5446569119	 0.5431585229	 0.090623
H	 1.8075525201	-1.9873683277	-2.1454693089	 0.087134
H	 0.7538289318	 0.2127226432	-2.1105669415	 0.088431
112.5533	198.7021	236.5398	300.1578	308.3289	321.7023	365.3236	417.0912	435.3832	562.9752	579.5231	694.0454	732.7199	769.6145	813.5133	843.2818	851.5527	903.0271	959.3433	986.6881	991.3273	1021.6884	1051.8449	1069.6113	1080.595	1094.0641	1111.7194	1127.3046	1148.8413	1200.0573	1210.7796	1231.2849	1256.2674	1292.5615	1330.4829	1346.5926	1359.3544	1376.8342	1405.5378	1416.4501	1425.2556	1482.8946	1491.569	1497.3409	1700.2658	2969.9213	3033.9721	3043.0794	3071.0243	3087.9055	3102.1998	3125.4686	3131.7793	3136.51	3159.5123	3211.1348	3816.1611
OC1CCC2CC2C=C1	O[C@H]1CC[C@H]2C[C@H]2C=C1	
InChI=1S/C8H12O/c9-8-3-1-6-5-7(6)2-4-8/h1,3,6-9H,2,4-5H2	InChI=1S/C8H12O/c9-8-3-1-6-5-7(6)2-4-8/h1,3,6-9H,2,4-5H2/t6-,7+,8-/m1/s1
