13
gdb 48222	2.65112	1.28382	0.92973	3.4768	69.99	-0.2706	-0.0745	0.1961	1179.8208	0.086214	-452.733151	-452.724276	-452.723332	-452.767473	30.626	
N	-0.0679732726	 1.2559945437	 0.6105049281	-0.459807
C	 0.0114826726	 0.0478137552	 0.2191223113	 0.170227
C	-1.1835477785	-0.6681976685	-0.1252745397	 0.336731
C	-2.1786550414	-1.2768120223	-0.4161336577	-0.402259
N	 1.2348883444	-0.6781415529	 0.0464654697	-0.177535
C	 1.2776457259	-2.0636284474	 0.3546748911	 0.161556
O	 2.2314497824	-2.7709761121	 0.218472132	-0.246524
C	 2.3430925323	 0.0226705102	-0.4974563333	 0.15068
O	 3.4598984414	-0.3939518279	-0.5758659792	-0.241368
H	 0.8429165665	 1.6352429321	 0.8721665114	 0.242794
H	-3.0661077491	-1.8021899116	-0.675127319	 0.228328
H	 0.3056640298	-2.404703128	 0.7472437281	 0.122905
H	 2.0267253563	 1.0156992595	-0.8651855629	 0.114272
47.3035	107.9521	154.4693	184.3864	227.9257	241.1155	302.1946	323.7218	462.7253	483.4421	534.9017	668.8878	673.6795	687.8811	727.1873	884.8509	923.3078	956.2351	1023.2886	1042.1664	1167.0193	1222.0182	1336.7479	1436.7847	1466.3251	1681.0526	1809.7532	1883.1775	2236.3485	2969.0091	3004.3194	3480.5113	3493.0518
N=C(C#C)N(C=O)C=O	N=C(C#C)N(C=O)C=O	
InChI=1S/C5H4N2O2/c1-2-5(6)7(3-8)4-9/h1,3-4,6H	InChI=1S/C5H4N2O2/c1-2-5(6)7(3-8)4-9/h1,3-4,6H
