22
gdb 117639	2.63493	0.94371	0.87414	2.5691	78.71	-0.2326	0.0334	0.266	1484.8204	0.19171	-441.533304	-441.522246	-441.521301	-441.569442	40.684	
C	 0.1785883137	 1.5957031052	-0.0610567127	-0.382993
C	-0.0135291559	 0.07706567	-0.0071846917	-0.183582
C	 0.6736297549	-0.5517975404	 1.2098289433	-0.20246
C	 0.6801377964	-2.0916257693	 1.2424143554	 0.238111
C	-0.7220145904	-2.7078812952	 1.1811874734	-0.398531
O	 1.3958042545	-2.6284156611	 0.1189973311	-0.472293
C	 1.3209539515	-2.5466255306	 2.5786083421	 0.363034
N	 2.2870305309	-3.4937066609	 2.443451344	-0.528005
O	 0.9660452967	-2.0856322951	 3.6479548921	-0.383673
H	 1.239975389	 1.8605814237	-0.1266970163	 0.111348
H	-0.3271336622	 2.0297420995	-0.9290781624	 0.112504
H	-0.2247610777	 2.0775496058	 0.8363006132	 0.118969
H	-1.0856954912	-0.1484646199	 0.0142525182	 0.103559
H	 0.3771609792	-0.3811572885	-0.9237069555	 0.098449
H	 1.7212183495	-0.2129468298	 1.2472699671	 0.084231
H	 0.2200830999	-0.2003006701	 2.1411227119	 0.131324
H	-1.2286159717	-2.4208775326	 0.2576462183	 0.124962
H	-0.6509078106	-3.7992753383	 1.2034465931	 0.120448
H	-1.3107036254	-2.3800622205	 2.040441775	 0.140077
H	 2.1759468759	-2.079719211	-0.0199289848	 0.281063
H	 2.4268794481	-3.9215240154	 1.5435431474	 0.2644
H	 2.6550255847	-3.9239639453	 3.275750208	 0.259058
56.8279	82.8232	104.0311	138.1571	230.4061	247.6924	259.0256	285.9699	297.7564	317.3018	346.3775	379.5785	418.2251	455.306	528.8345	593.219	664.6716	740.3853	749.1335	777.8253	859.705	883.3354	929.4744	968.812	1026.0049	1047.7406	1090.2107	1100.467	1133.4265	1169.9243	1210.6619	1263.2552	1314.6107	1322.0738	1358.5846	1370.086	1393.9854	1404.6571	1414.4458	1481.2967	1489.5416	1495.1857	1499.5846	1502.2427	1513.3962	1583.6446	1791.1802	2986.5173	3029.3763	3032.9223	3053.0541	3062.5146	3091.9047	3101.0669	3103.8137	3124.4291	3146.6611	3593.6655	3733.4859	3800.3441
CCCC(C)(O)C(N)=O	CCC[C@@](C)(O)C(=O)N	
InChI=1S/C6H13NO2/c1-3-4-6(2,9)5(7)8/h9H,3-4H2,1-2H3,(H2,7,8)	InChI=1S/C6H13NO2/c1-3-4-6(2,9)5(7)8/h9H,3-4H2,1-2H3,(H2,7,8)/t6-/m1/s1
