18
gdb 117596	2.17233	1.10247	0.91453	4.6029	78.81	-0.2927	-0.0121	0.2806	1378.2108	0.143279	-401.919662	-401.90883	-401.907885	-401.95623	37.68	
C	-0.0204713987	 1.6177741329	 0.0601617851	-0.392318
C	 0.0152359107	 0.0871399744	 0.0487922902	-0.187914
C	-1.3851817816	-0.5206922069	-0.0637456735	-0.188801
C	-1.3966471063	-2.0736634826	-0.003292352	 0.014571
O	-0.7577712165	-2.5480257708	 1.1821721743	-0.434613
C	-2.776173269	-2.5712644154	-0.0902223595	 0.294009
C	-3.9178616222	-2.9437221951	-0.0984617705	-0.424117
C	-0.6139460694	-2.6212477505	-1.1389089159	 0.318811
N	-0.0098215861	-3.0110933635	-2.0421322878	-0.341093
H	 0.9892155965	 2.0313338731	 0.1380471924	 0.120921
H	-0.4726625895	 2.0135070474	-0.8558259224	 0.118859
H	-0.6020296223	 1.9976624191	 0.9075912686	 0.11462
H	 0.6302171803	-0.261698777	-0.7888900793	 0.124744
H	 0.4908261002	-0.2867375308	 0.9609520395	 0.118907
H	-2.0217300665	-0.1756223018	 0.7598642551	 0.106894
H	-1.8729802046	-0.2096998715	-0.9944663572	 0.123977
H	-1.4309307005	-2.5873200677	 1.8707396755	 0.297741
H	-4.9228615545	-3.2886362133	-0.1227024225	 0.214802
55.9039	77.1558	96.2529	118.1206	131.0462	192.3549	225.9077	242.6597	288.8732	331.0267	412.8675	479.0636	522.4132	570.8354	623.9266	655.3467	691.885	730.2484	753.9669	866.9462	907.7239	983.7569	1037.6985	1046.5602	1084.2896	1137.9965	1163.5755	1259.8586	1302.5946	1330.1608	1376.7085	1398.5831	1414.6158	1472.6722	1494.9609	1499.3768	1511.4575	2239.4215	2367.6807	3030.6795	3033.741	3046.7823	3072.0001	3085.6633	3105.5879	3109.1838	3497.1022	3814.8957
CCCC(O)(C#C)C#N	CCC[C@@](O)(C#C)C#N	
InChI=1S/C7H9NO/c1-3-5-7(9,4-2)6-8/h2,9H,3,5H2,1H3	InChI=1S/C7H9NO/c1-3-5-7(9,4-2)6-8/h2,9H,3,5H2,1H3/t7-/m0/s1
