16
gdb 64991	3.40204	1.08662	0.90376	4.6161	67.73	-0.2536	-0.0388	0.2147	1268.3032	0.122136	-475.05383	-475.044745	-475.043801	-475.088295	31.906	
C	-0.0970057463	 1.5369976967	-0.7024583592	-0.464713
C	-0.0878988953	 0.1826076519	-0.0414053645	 0.287908
C	 0.9069514825	-0.8461500195	-0.4037775843	-0.206231
O	 1.0217218657	-0.1205488018	 0.8237555468	-0.279625
C	-1.4440735155	-0.3030145525	 0.4547883639	 0.36649
O	-2.4646479742	-0.0353737406	-0.1265590574	-0.316684
N	-1.3454527581	-1.0660375563	 1.6173079526	-0.356833
C	-2.3669955011	-1.7138834336	 2.3057793268	 0.165216
O	-3.5197061158	-1.7737270106	 1.980912956	-0.251632
H	 0.886989411	 1.7684143759	-1.1157201037	 0.127783
H	-0.8428483488	 1.5488326921	-1.4999133704	 0.159675
H	-0.3649275613	 2.3139786153	 0.0198231921	 0.140094
H	 0.6629219169	-1.9020815153	-0.3021019427	 0.130071
H	 1.6558072463	-0.6068298614	-1.1562556191	 0.135348
H	-0.4139412927	-1.0999700371	 2.0140732593	 0.273188
H	-1.9642660333	-2.1892974633	 3.2232322938	 0.089945
58.4403	89.0136	160.7986	170.6679	209.7469	251.0234	289.2177	314.6517	375.2211	481.7705	500.4092	648.8244	745.3575	768.3022	807.0937	870.0753	929.9933	946.3425	1007.8625	1031.4185	1082.0824	1101.5839	1135.0586	1155.1179	1183.546	1295.1971	1370.0202	1411.8935	1443.1749	1478.0367	1494.2796	1506.7961	1527.2556	1803.9427	1869.9193	2928.2304	3053.5886	3092.7621	3124.484	3146.7388	3185.2922	3566.4394
CC1(CO1)C(=O)NC=O	C[C@]1(CO1)C(=O)NC=O	
InChI=1S/C5H7NO3/c1-5(2-9-5)4(8)6-3-7/h3H,2H2,1H3,(H,6,7,8)	InChI=1S/C5H7NO3/c1-5(2-9-5)4(8)6-3-7/h3H,2H2,1H3,(H,6,7,8)/t5-/m0/s1
