15
gdb 132098	3.01679	1.37906	0.95202	3.5921	73.26	-0.215	-0.0366	0.1783	1151.837	0.112858	-461.989524	-461.981665	-461.980721	-462.022191	29.277	
C	-0.0294835385	 1.5731794198	 0.0138697346	-0.504356
C	-0.0064468534	 0.0688643164	-0.0012489696	 0.03919
C	 0.1654547432	-0.652870847	-1.1392353288	 0.366266
F	 0.3276544657	-0.0971094018	-2.3347552776	-0.054937
N	 0.187592161	-2.0067370078	-1.1621215801	-0.443562
C	 0.0378705814	-2.8446512253	-0.0269365214	 0.435026
O	 0.0734899633	-4.0544399781	-0.1588121804	-0.393208
C	-0.1457812252	-2.0802785971	 1.189584219	-0.266393
C	-0.1636910403	-0.7186744637	 1.1819026436	-0.091684
H	 0.1073889586	 1.9789084212	-0.9900668439	 0.139132
H	-0.981101676	 1.9528554282	 0.402596804	 0.135708
H	 0.7657021764	 1.9770918878	 0.6505487493	 0.135715
H	 0.3199089763	-2.4792862559	-2.0464692258	 0.269983
H	-0.267487187	-2.6506061304	 2.1012838109	 0.118628
H	-0.3044426154	-0.1867927962	 2.1193223961	 0.114492
85.8458	121.544	212.8444	276.3865	281.8521	348.9431	440.2817	468.4142	520.2548	579.3078	626.0717	683.3971	744.6022	751.024	775.5366	843.2409	941.0249	991.1054	992.1381	1067.7556	1136.6447	1194.0315	1239.9161	1258.8272	1299.7602	1417.9543	1446.5913	1482.6791	1489.9413	1497.4197	1587.6975	1704.4357	1792.5438	3031.3859	3080.1505	3134.2781	3164.687	3221.9447	3606.562
CC1=C(F)NC(=O)C=C1	Cc1c(F)[nH]c(=O)cc1	
InChI=1S/C6H6FNO/c1-4-2-3-5(9)8-6(4)7/h2-3H,1H3,(H,8,9)	InChI=1S/C6H6FNO/c1-4-2-3-5(9)8-6(4)7/h2-3H,1H3,(H,8,9)
