19
gdb 72160	2.64605	1.92393	1.80021	2.3838	72.69	-0.2394	0.0709	0.3103	882.0799	0.163057	-423.016429	-423.010007	-423.009063	-423.046716	28.195	
O	-0.0855370572	 1.3579906633	 0.0125308712	-0.507831
C	 0.0736186869	-0.0304402205	-0.0021825251	 0.39981
C	 0.8434475277	-0.7396050049	 1.1447312514	-0.277577
C	 0.2371876641	-2.1229632215	 0.8102150799	-0.070204
C	-1.2317293856	-1.7999421862	 1.1728703501	-0.202361
C	-1.3426955304	-0.8045143937	 0.0053622727	 0.039452
O	-1.2186670958	-1.748561801	-1.0719638458	-0.262801
C	 0.1551210628	-2.0834852423	-0.8092938587	 0.068881
C	 0.7775733299	-0.7312231837	-1.1936004134	-0.268927
H	 0.7871328285	 1.7648544004	 0.0001180216	 0.278143
H	 1.9276842888	-0.661370752	 1.0261517371	 0.083843
H	 0.5750289019	-0.3967454083	 2.1462580871	 0.097608
H	 0.6991288084	-3.0076957251	 1.2445318142	 0.068227
H	-1.9447577323	-2.6142585277	 1.0384176571	 0.103596
H	-1.3278073093	-1.3854917482	 2.1786290807	 0.094982
H	-2.2242625508	-0.1779551146	-0.1129297158	 0.085147
H	 0.4448749517	-2.9843381849	-1.3470394339	 0.078574
H	 0.4310698416	-0.4231170757	-2.1806379948	 0.108245
H	 1.866897149	-0.6582212734	-1.1341134857	 0.083194
226.2272	282.7566	313.6099	426.0694	505.9334	552.6315	566.4965	586.8253	640.0662	673.061	766.3366	804.3202	823.1531	894.6732	912.6445	921.4993	927.7532	948.5395	955.2063	965.6541	1008.9037	1030.5868	1060.6731	1078.4385	1112.3088	1128.199	1151.1357	1174.3863	1198.9696	1230.6908	1248.7991	1257.9139	1266.259	1278.4205	1294.9224	1327.916	1338.8696	1372.5503	1483.1405	1498.5192	1533.1293	3054.4131	3067.4706	3076.3192	3110.5797	3129.1572	3133.322	3134.0702	3140.6856	3149.8645	3809.5202
OC12CC3CC1OC3C2	O[C@@]12C[C@H]3C[C@@H]1O[C@H]3C2	
InChI=1S/C7H10O2/c8-7-2-4-1-6(7)9-5(4)3-7/h4-6,8H,1-3H2	InChI=1S/C7H10O2/c8-7-2-4-1-6(7)9-5(4)3-7/h4-6,8H,1-3H2/t4-,5+,6+,7-/m1/s1
