17
gdb 6669	8.11544	0.73376	0.6814	1.8023	68.15	-0.2567	-0.0217	0.235	1594.0486	0.139022	-401.017295	-401.00758	-401.006636	-401.054204	31.597	
C	-0.0037980667	 1.4826275067	-0.0791064883	-0.474067
C	-0.0153549477	-0.0282012788	 0.050164065	 0.377712
O	-0.0547702333	-0.5836837144	 1.1254037048	-0.292193
C	 0.02550908	-0.8185558599	-1.2492727403	-0.314158
C	 0.0100252715	-2.3200498246	-1.0166404192	-0.072063
O	 0.0510078527	-2.9456578655	-2.3013378828	-0.188293
C	 0.0439566836	-4.2919741485	-2.3039233337	 0.127899
N	 0.0778487228	-4.9215922602	-3.3973727184	-0.439155
H	 0.8964462269	 1.8129495248	-0.6093906966	 0.142799
H	-0.8615042852	 1.8212877674	-0.6710311339	 0.142764
H	-0.0362663746	 1.9391194989	 0.9106266766	 0.146436
H	-0.8244402174	-0.5244326735	-1.8781285906	 0.138735
H	 0.9197428733	-0.5330730918	-1.817828386	 0.138744
H	 0.8732955135	-2.6233512446	-0.4130637294	 0.1241
H	-0.8955908174	-2.6144925499	-0.4737817277	 0.124093
H	 0.0074125639	-4.733510462	-1.2979596627	 0.087572
H	 0.0665731642	-5.9237810341	-3.2198183466	 0.229076
29.593	47.6488	68.588	107.6879	116.8004	134.2194	253.526	306.2343	458.2236	481.1777	563.685	650.9162	760.2415	823.5305	841.5931	937.7867	942.8631	1011.2409	1045.6839	1101.4356	1119.5005	1139.2472	1185.9402	1217.4459	1293.6477	1307.2711	1339.1547	1386.4817	1409.8783	1433.4702	1456.5278	1467.0198	1476.5069	1513.2525	1750.0495	1806.4902	3016.2118	3031.3117	3035.5201	3041.5506	3059.9524	3082.8494	3099.055	3154.4558	3518.1938
CC(=O)CCOC=N	CC(=O)CCO[CH][NH]	
InChI=1S/C5H9NO2/c1-5(7)2-3-8-4-6/h4,6H,2-3H2,1H3	InChI=1S/C5H9NO2/c1-5(7)2-3-8-4-6/h4,6H,2-3H2,1H3
