23
gdb 60176	2.90839	0.84071	0.78711	1.5825	82.5	-0.2486	0.0663	0.3149	1615.0176	0.201912	-425.421981	-425.410931	-425.409986	-425.458552	40.472	
C	-0.0613262846	 1.5059865732	-0.107227557	-0.400854
C	 0.2616659743	 0.0133402151	-0.1658226374	 0.14172
O	-0.4581243186	-0.7108747544	 0.8319801059	-0.429496
C	 0.0275966795	-0.5782073458	-1.5649801889	-0.260066
C	 0.404628632	-2.0394354141	-1.6443831537	 0.021715
O	 0.3998831727	-2.6579044631	-2.938271346	-0.309453
C	 1.6493664802	-2.582956466	-2.2266210474	 0.398354
C	 2.7048056713	-1.7024562333	-2.8608149156	-0.45849
C	 2.1603314823	-3.9182937531	-1.7253111171	-0.447125
H	 0.574424223	 2.07799028	-0.7906804928	 0.117634
H	-1.1050308354	 1.6892439815	-0.3928788019	 0.10818
H	 0.0873628267	 1.8849527649	 0.907406769	 0.124927
H	 1.3141262448	-0.1342412121	 0.1073589812	 0.091855
H	-1.3982315083	-0.5671717068	 0.673625807	 0.276795
H	-1.038993438	-0.4785912498	-1.8165523431	 0.095595
H	 0.5730225188	 0.0068906286	-2.3109014118	 0.102008
H	-0.0660160124	-2.6430348079	-0.8671464607	 0.091352
H	 2.2801734857	-0.7859195522	-3.2726192906	 0.126201
H	 3.4782605995	-1.4357501079	-2.1320442316	 0.118471
H	 3.1942199828	-2.2398885634	-3.6806494359	 0.124842
H	 2.6150008384	-4.4866223797	-2.5444079112	 0.120719
H	 2.9227388566	-3.7791696699	-0.9510078063	 0.118239
H	 1.3452247885	-4.5138191938	-1.3075197641	 0.126879
39.6826	69.5831	108.7197	155.6671	199.6917	232.4988	241.1555	286.4344	308.5229	325.539	367.4568	406.3521	435.1239	459.5482	505.7424	527.7845	696.0837	781.7228	848.265	906.5793	925.4649	938.1381	946.0395	999.1905	1023.6565	1054.4953	1088.8851	1115.8467	1136.3775	1152.4353	1171.1542	1215.0412	1263.3555	1294.7829	1326.6799	1351.7054	1381.325	1401.2491	1409.0827	1419.1254	1422.4296	1464.9627	1470.8316	1475.6725	1487.5093	1492.1299	1494.1816	1504.659	1520.3522	3002.8988	3023.0736	3031.6766	3037.1126	3037.8489	3084.1811	3091.5004	3094.9622	3096.8699	3105.1199	3119.719	3124.1389	3138.4117	3792.7814
CC(O)CC1OC1(C)C	C[C@@H](O)C[C@H]1OC1(C)C	
InChI=1S/C7H14O2/c1-5(8)4-6-7(2,3)9-6/h5-6,8H,4H2,1-3H3	InChI=1S/C7H14O2/c1-5(8)4-6-7(2,3)9-6/h5-6,8H,4H2,1-3H3/t5-,6-/m1/s1
