22
gdb 8909	3.37358	1.22184	0.96032	0.6727	84.35	-0.2576	0.0572	0.3148	1282.6668	0.197546	-313.048996	-313.038745	-313.037801	-313.083784	37.791	
C	-0.0131304093	 1.5937101651	 0.0999944652	-0.394776
C	-0.0324071805	 0.0671224951	-0.0414146107	-0.178944
C	 0.732409862	-0.4717192234	-1.2661444213	 0.05021
C	 2.2049971846	-0.0376460642	-1.2522667807	-0.40488
C	 0.6221129387	-2.0248388825	-1.3716212141	-0.147036
C	-0.8298341113	-2.5518352888	-1.3680509795	-0.402177
C	 1.3077948051	-2.5213900639	-2.5663126083	 0.323395
C	 1.8354003457	-2.9360936877	-3.5645868408	-0.469124
H	 0.9910629737	 1.9785537502	 0.2981111405	 0.12049
H	-0.3826190551	 2.0793939064	-0.8105079306	 0.114307
H	-0.6551852556	 1.9117398101	 0.9274066743	 0.111711
H	 0.3833875536	-0.3890232694	 0.868615489	 0.090782
H	-1.0771918741	-0.2548395178	-0.0944792653	 0.09877
H	 0.260892749	-0.0585212557	-2.1695677044	 0.077222
H	 2.7460214686	-0.4609960979	-2.1016005164	 0.130956
H	 2.3020399915	 1.0497941327	-1.3013914053	 0.113644
H	 2.7020081507	-0.3755216463	-0.3341031181	 0.107445
H	 1.135043552	-2.446106305	-0.4936353636	 0.099934
H	-1.4169121151	-2.0726652011	-2.158097925	 0.123208
H	-0.8397680943	-3.6293295513	-1.5501947508	 0.125218
H	-1.3198869579	-2.3668745477	-0.409837474	 0.118777
H	 2.313608228	-3.3053921469	-4.4376611701	 0.19087
57.9782	89.9172	145.5181	199.6541	212.3892	219.9255	253.3033	279.0659	324.1788	387.1271	395.7591	428.5601	539.0801	562.1685	622.3973	631.0399	772.4517	813.9036	843.0541	913.3716	965.8663	992.113	996.1128	1039.0808	1064.6563	1107.3002	1148.2733	1177.3613	1186.7632	1265.7714	1309.5672	1323.9696	1348.1582	1365.8968	1382.1219	1407.7655	1412.459	1416.4808	1484.0839	1495.2315	1496.5575	1500.765	1504.8376	1507.9077	1516.3064	2228.8884	2987.1916	3001.4738	3014.3839	3031.3798	3034.3302	3045.2205	3071.3404	3097.2048	3102.1916	3114.0371	3117.2507	3127.2931	3129.7094	3504.6736
CCC(C)C(C)C#C	CC[C@@H](C)[C@@H](C)C#C	
InChI=1S/C8H14/c1-5-7(3)8(4)6-2/h1,7-8H,6H2,2-4H3	InChI=1S/C8H14/c1-5-7(3)8(4)6-2/h1,7-8H,6H2,2-4H3/t7-,8+/m0/s1
