18
gdb 61483	2.13617	1.32562	0.88408	3.8008	78.26	-0.2754	0.0111	0.2865	1328.2804	0.143689	-401.919248	-401.908906	-401.907962	-401.955367	36.576	
C	-1.397223397	 0.7152786763	 0.4993048079	-0.395162
C	-0.0609961496	 0.162112232	 0.0044312533	-0.047046
O	 0.8463890392	 0.2639782409	 1.1065739418	-0.239052
C	 2.199416831	-0.0472690524	 0.833068657	-0.017391
C	 3.0756867761	 0.852747219	 1.7077861841	-0.391261
C	 2.4984348767	-1.4714062514	 1.1111567426	 0.28765
N	 2.7788307009	-2.5645140015	 1.3583691975	-0.328999
C	-0.1878245491	-1.2055031688	-0.5072191682	 0.336019
C	-0.2928114681	-2.3229226338	-0.9359432622	-0.463601
H	-1.2601971989	 1.737626043	 0.8598536636	 0.127331
H	-2.1277369949	 0.7137770923	-0.3129282989	 0.132672
H	-1.7772283054	 0.097764098	 1.3161734377	 0.144589
H	 0.313625875	 0.8011185698	-0.8125104541	 0.101473
H	 2.4264053987	 0.1346064956	-0.2275573355	 0.1212
H	 4.133615539	 0.6247141721	 1.5564168418	 0.138965
H	 2.8895024699	 1.8971713046	 1.4475925579	 0.130597
H	 2.8291987225	 0.7009095192	 2.7610125229	 0.150678
H	-0.3702458861	-3.3173889148	-1.3019094391	 0.211337
27.2518	76.8365	141.5	180.1703	206.5208	216.4671	225.2079	252.5431	298.4135	364.4357	383.3052	539.5297	558.6494	593.9378	622.9346	645.1076	684.8348	810.1925	821.6254	883.974	975.1703	1045.2083	1082.7757	1109.9792	1118.8799	1132.6198	1177.3121	1320.8316	1334.7222	1353.9705	1389.7477	1404.4557	1407.0857	1481.8589	1482.4376	1493.7231	1495.4203	2235.8634	2356.7914	2963.7179	3003.8343	3055.6683	3056.0111	3137.2272	3138.4446	3141.7314	3142.5368	3500.6244
CC(OC(C)C#N)C#C	C[C@@H](O[C@@H](C)C#N)C#C	
InChI=1S/C7H9NO/c1-4-6(2)9-7(3)5-8/h1,6-7H,2-3H3	InChI=1S/C7H9NO/c1-4-6(2)9-7(3)5-8/h1,6-7H,2-3H3/t6-,7+/m1/s1
