14
gdb 123380	4.02453	0.98623	0.94915	2.1037	68.7	-0.2329	-0.0213	0.2116	1236.2162	0.102234	-428.98713	-428.979142	-428.978198	-429.020949	28.603	
C	 0.3035370336	-0.3320110973	-1.0917212081	-0.456517
C	 0.1382035235	 0.4655245988	-0.208140865	 0.310675
C	-0.0204939114	 1.4268912055	 0.8857438117	-0.319534
N	 1.1861725243	 2.2001102165	 1.1834062782	-0.36413
C	 1.4930801304	 3.2805649276	 0.3946112802	 0.500496
N	 2.7227893757	 3.7780497598	 0.268911873	-0.316329
N	 2.4733367531	 4.8304297825	-0.5149383782	-0.066095
N	 1.2143025026	 4.9832269087	-0.8629526494	-0.10076
N	 0.5622770398	 3.9999255784	-0.2911336181	-0.272215
H	 0.4373577106	-1.0291053847	-1.8817327588	 0.204226
H	-0.8162123652	 2.1381801555	 0.6494326533	 0.180975
H	-0.3187698535	 0.9018668324	 1.7995461424	 0.141368
H	 1.9956915877	 1.6427380631	 1.4173549666	 0.257347
H	 3.1978932586	 5.4595283831	-0.8248593779	 0.300492
40.4366	61.4196	198.4449	217.4763	326.3629	339.2819	434.3164	533.1657	587.3332	598.5004	624.626	668.3127	718.5979	749.4069	786.7536	932.7303	997.2437	1022.2307	1063.7233	1114.5	1163.4037	1187.9302	1246.2439	1286.2905	1368.5004	1378.2819	1465.5783	1465.8576	1519.4933	1620.0983	2236.1882	3051.4729	3105.9438	3504.4292	3603.143	3657.7012
C#CCNC1=NNN=N1	C#CCNc1n[nH]nn1	
InChI=1S/C4H5N5/c1-2-3-5-4-6-8-9-7-4/h1H,3H2,(H2,5,6,7,8,9)	InChI=1S/C4H5N5/c1-2-3-5-4-6-8-9-7-4/h1H,3H2,(H2,5,6,7,8,9)
