23
gdb 110412	4.36321	1.03203	0.95119	0.2972	90.05	-0.2378	0.092	0.3297	1368.1087	0.205913	-351.117279	-351.108433	-351.107489	-351.150421	34.939	
C	-0.0351599667	 1.5508837533	 0.0515905817	-0.384582
C	-0.0801160147	 0.0285265517	-0.1190259522	-0.189462
C	-1.4804187578	-0.5584080885	 0.0471795987	 0.024963
C	-1.5145568724	-2.0878665158	 0.0563835332	-0.114254
C	-1.4154702056	-2.142845881	 1.565656696	-0.123722
C	-1.9775077507	-0.6632434773	 1.5221507675	-0.065659
C	-3.4038025025	-1.2603736937	 1.3945475702	-0.288996
C	-2.7178101533	-2.5386322369	 0.9058218089	 0.334634
C	-3.3257936507	-3.9027050224	 0.7693203897	-0.504649
H	 0.9810456464	 1.9352443516	-0.0808616281	 0.109815
H	-0.6775966979	 2.0501264274	-0.682423198	 0.112843
H	-0.376204963	 1.8537189019	 1.0472884991	 0.115064
H	 0.3005001811	-0.2343714254	-1.1151556825	 0.088709
H	 0.5973972747	-0.4490467541	 0.6007525166	 0.094246
H	-2.1759843373	-0.0541503323	-0.6395719382	 0.051205
H	-1.0638828837	-2.7654978502	-0.6601405365	 0.073838
H	-0.7527701238	-2.6765538531	 2.2319188708	 0.081467
H	-1.7641854454	 0.1270343436	 2.2399853172	 0.064747
H	-3.8718227386	-1.41883359	 2.3715755443	 0.089635
H	-4.1094860052	-0.745213622	 0.73011245	 0.081019
H	-4.0618563666	-3.9338895146	-0.0431232588	 0.117682
H	-2.5619944126	-4.6571566062	 0.5506787471	 0.116125
H	-3.8359968739	-4.2051860261	 1.6912577132	 0.115334
95.0012	140.5758	172.7868	211.4692	242.8254	280.7382	304.6645	388.7685	442.7954	477.7792	611.3973	745.7639	752.8736	787.8231	819.7177	842.9296	869.6122	895.6009	912.0741	922.1379	953.4149	981.9621	1015.9799	1022.7838	1031.9891	1071.5697	1077.6469	1100.8162	1126.9119	1149.1188	1159.0097	1180.6779	1195.939	1236.0966	1255.1883	1268.8609	1292.7925	1303.1043	1348.8377	1394.0187	1406.8919	1411.1989	1427.5961	1485.3261	1486.8305	1497.9823	1499.4517	1503.5145	1506.4823	2992.0369	3013.0922	3015.9288	3019.73	3030.5952	3046.9978	3076.4118	3078.6281	3088.7554	3096.4755	3101.5	3126.9376	3174.3258	3214.5353
CCC1C2C3C1CC23C	CC[C@H]1[C@H]2[C@H]3[C@@H]1C[C@@]23C	
InChI=1S/C9H14/c1-3-5-6-4-9(2)7(5)8(6)9/h5-8H,3-4H2,1-2H3	InChI=1S/C9H14/c1-3-5-6-4-9(2)7(5)8(6)9/h5-8H,3-4H2,1-2H3/t5-,6-,7+,8-,9+/m1/s1
