19
gdb 107853	3.39781	1.43999	1.35307	2.3674	74.4	-0.2472	0.0776	0.3248	1019.403	0.160853	-422.980496	-422.973245	-422.972301	-423.012147	29.647	
O	 0.00048268	 1.3656846421	 0.054830767	-0.419126
C	 0.020610185	-0.0508094954	 0.0730631705	-0.178604
C	-1.3636334861	-0.6198362075	-0.0788331011	 0.402898
C	-2.2708549208	-0.4492514601	-1.3213019405	-0.269962
C	-3.073354306	-1.5636519578	-0.637961658	-0.070241
C	-3.2385833121	-1.1319374288	 0.881253771	 0.083007
C	-2.4655217712	-2.3995839653	 1.3063487208	-0.244363
C	-1.7508983851	-2.1631767148	-0.0324645551	-0.116382
O	-2.2255397408	-0.1169721194	 0.9706287826	-0.320257
H	-0.6648989149	 1.6337740669	 0.6993284772	 0.296096
H	 0.6515261406	-0.370636383	-0.7624700148	 0.10756
H	 0.4695586404	-0.4387375804	 1.0020104582	 0.091102
H	-2.7158012301	 0.5356974479	-1.4768849971	 0.104352
H	-1.7966424663	-0.8132093065	-2.2371523153	 0.100321
H	-3.8534250363	-2.1607146845	-1.1062037377	 0.075753
H	-4.1712320385	-0.7985348757	 1.3334435924	 0.079796
H	-1.9106107257	-2.3485585741	 2.2464658063	 0.10095
H	-3.0800274646	-3.3033030225	 1.2643715384	 0.101429
H	-1.1132711174	-2.8817270512	-0.5442553046	 0.07567
88.5006	159.7816	272.8954	354.9857	407.1764	433.2489	467.3052	539.9825	634.7958	679.4909	752.9127	803.4781	835.2561	857.5064	883.5311	889.03	944.4709	960.0917	970.8764	998.2918	1026.7614	1036.7526	1054.5737	1068.6537	1092.6848	1098.9305	1144.3163	1179.6185	1187.6229	1208.3486	1237.2014	1246.5645	1260.6508	1274.2188	1319.2763	1335.4089	1377.9914	1442.6794	1480.2314	1482.187	1496.2169	2974.6148	3056.9598	3061.1919	3077.7496	3118.6261	3125.1469	3131.1014	3134.3655	3142.774	3799.3901
OCC12CC3C(CC13)O2	OC[C@@]12C[C@@H]3[C@@H](C[C@H]13)O2	
InChI=1S/C7H10O2/c8-3-7-2-4-5(7)1-6(4)9-7/h4-6,8H,1-3H2	InChI=1S/C7H10O2/c8-3-7-2-4-5(7)1-6(4)9-7/h4-6,8H,1-3H2/t4-,5-,6+,7-/m0/s1
