20
gdb 83841	2.10173	1.7568	1.27305	2.8607	79.35	-0.2252	-0.0211	0.2041	1083.6346	0.172188	-403.151532	-403.143297	-403.142353	-403.184198	32.134	
C	-0.3343850809	 1.4904950325	 0.0636326121	-0.42973
C	-0.003460343	 0.0170702405	-0.0165289735	 0.018016
C	 0.6616192097	-0.6393044533	-1.195979217	-0.148532
N	 1.3352174856	-0.5451396006	 0.1130900036	-0.114941
C	 2.4988114427	 0.3522048444	 0.2325472952	-0.1538
C	 3.2625309734	 0.5105518112	-1.0834544899	-0.211771
C	 2.341751141	 1.0469257499	-2.1893569253	-0.31387
C	 1.1404839061	 0.1311611379	-2.392978519	 0.388197
O	 0.6375672038	-0.0469418734	-3.4802528848	-0.321481
H	 0.3240316452	 2.1269560479	-0.5290172113	 0.125285
H	-1.356287379	 1.6505656306	-0.2939311198	 0.136111
H	-0.2907010788	 1.8358286158	 1.1030209157	 0.129808
H	-0.752572197	-0.6006578582	 0.4790279441	 0.099981
H	 0.319723398	-1.6352023446	-1.4699647005	 0.112075
H	 2.198153209	 1.3407159877	 0.6036299752	 0.098849
H	 3.1585278493	-0.0787096663	 0.9934875475	 0.111981
H	 4.1189904332	 1.1772379493	-0.9374791009	 0.105664
H	 3.6670069655	-0.4634951864	-1.3848144294	 0.116392
H	 1.9840047472	 2.0507936573	-1.9235256346	 0.125924
H	 2.8485849889	 1.1404230677	-3.1536313076	 0.125841
87.0794	159.3743	181.8282	211.7384	308.6362	371.2112	404.291	443.5626	479.5794	518.0288	594.5915	680.9158	714.3589	736.8388	782.0093	884.2958	896.5105	939.8839	955.569	1007.8371	1025.4567	1059.7674	1082.8638	1097.8508	1133.469	1170.5757	1193.7453	1216.0618	1252.2017	1279.0486	1321.5882	1340.7636	1364.6289	1375.2699	1386.0519	1413.1291	1421.9125	1462.6061	1487.8546	1489.3461	1501.3235	1523.1855	1797.5658	3019.9837	3027.7328	3033.7399	3040.0826	3058.8014	3079.902	3097.1323	3098.3259	3099.2376	3131.1401	3141.1411
CC1C2N1CCCC2=O	C[C@H]1[C@@H]2N1CCCC2=O	
InChI=1S/C7H11NO/c1-5-7-6(9)3-2-4-8(5)7/h5,7H,2-4H2,1H3	InChI=1S/C7H11NO/c1-5-7-6(9)3-2-4-8(5)7/h5,7H,2-4H2,1H3/t5-,7-,8?/m0/s1
