15
gdb 34256	4.3423	1.3625	1.24103	2.2361	72.86	-0.2186	0.0107	0.2293	999.5353	0.112232	-420.537095	-420.53017	-420.529225	-420.568291	27.629	
C	-0.0241441068	-1.1470752225	-0.023456392	-0.373169
C	-0.0365636758	 0.056160784	-0.0121091348	 0.170787
C	-0.019131208	 1.4732297691	 0.0088640856	 0.33034
O	-1.0894068808	 2.2093189721	 0.6168071107	-0.337791
C	-0.7661980581	 3.3581640062	-0.2290612334	 0.035297
C	 0.1271182447	 4.2669047588	 0.6005733418	-0.074831
O	 1.2694521234	 3.444335957	 0.8929121543	-0.260845
C	 1.2413611564	 2.360608234	 0.0073049449	 0.019126
C	 0.2207876141	 2.519839004	-1.0716713804	-0.266865
H	-0.0191706163	-2.2089793557	-0.031063025	 0.191367
H	-1.6485200333	 3.8030122406	-0.6884876082	 0.098577
H	 0.432128974	 5.1691111665	 0.0491715698	 0.099028
H	-0.3466896381	 4.5545077105	 1.5428808722	 0.128579
H	 2.2050082129	 1.897781948	-0.1632395635	 0.125248
H	 0.3344427817	 2.4557675774	-2.144645852	 0.115151
134.8009	148.9091	263.2232	393.2374	418.4018	482.6249	518.9687	571.1215	628.642	695.548	724.6448	766.4186	779.054	848.7423	893.7782	897.1778	918.6279	944.7847	992.5615	1016.1786	1046.1391	1053.4872	1095.6915	1135.8872	1194.5877	1231.5178	1259.2796	1263.6621	1302.4378	1355.8891	1418.6938	1498.6111	2232.2536	2995.5394	3097.5832	3124.6336	3204.8869	3214.3586	3501.6216
C#CC12OC3COC1C23	C#C[C@@]12O[C@H]3CO[C@@H]1[C@@H]23	
InChI=1S/C7H6O2/c1-2-7-5-4(9-7)3-8-6(5)7/h1,4-6H,3H2	InChI=1S/C7H6O2/c1-2-7-5-4(9-7)3-8-6(5)7/h1,4-6H,3H2/t4-,5-,6+,7-/m0/s1
