20
gdb 41889	2.11612	2.04991	1.80555	2.3336	77.06	-0.2391	0.029	0.2682	930.28	0.175893	-403.178099	-403.170912	-403.169968	-403.209807	28.957	
C	 0.0015826913	 1.5055549332	-0.182267182	-0.214957
C	 1.3850284427	 2.126435381	 0.1501734692	-0.215432
C	 2.3288859025	 1.1098959331	 0.8196464049	 0.018821
C	 1.6097031935	 0.3686366742	 1.9561562417	-0.207857
C	 0.3934983656	-0.4305433987	 1.4197907587	-0.22401
C	-0.0040774255	-0.0106824274	 0.0001990006	 0.113099
O	 0.8336924657	-0.6609486693	-0.9943741227	-0.244517
C	 2.1800119727	-0.5364414505	-0.9007153112	 0.123571
N	 2.9097202079	 0.1729756953	-0.1539396887	-0.264173
H	-0.7715627125	 1.9156709961	 0.4782924292	 0.101627
H	-0.3036051621	 1.7455271439	-1.2049025859	 0.110268
H	 1.8678617464	 2.4983820249	-0.7580667655	 0.110465
H	 1.2609202037	 2.9890062683	 0.8143083305	 0.095827
H	 3.1735020522	 1.660549305	 1.2464748284	 0.071943
H	 2.3121939199	-0.3009713626	 2.4603218415	 0.109535
H	 1.2878299129	 1.1067156721	 2.7005663003	 0.094545
H	 0.5991324172	-1.5050477672	 1.4099477628	 0.114599
H	-0.473734702	-0.2884264596	 2.0736119567	 0.102669
H	-0.9959186093	-0.4068729401	-0.2328678762	 0.085222
H	 2.640418477	-1.1959608618	-1.636802842	 0.118753
61.1282	224.5763	276.7962	331.9263	341.7596	387.2964	536.7534	566.0273	608.8318	756.69	772.1746	786.2663	798.3708	864.3841	876.5866	908.5893	931.6388	962.8581	977.1056	987.6363	1063.7516	1081.699	1103.7421	1119.5469	1151.1556	1169.2903	1251.7321	1267.62	1275.1651	1296.6119	1341.3212	1349.8257	1355.8871	1376.8102	1381.763	1397.6103	1402.7917	1423.8312	1473.8074	1480.9299	1491.7006	1504.1769	1740.0435	3028.2283	3030.1813	3039.3351	3045.4651	3051.7321	3072.7656	3075.8345	3077.9592	3094.3714	3097.1218	3137.1053
C1CC2CCC1OC=N2	C1C[C@H]2CC[C@@H]1OC=N2	
InChI=1S/C7H11NO/c1-3-7-4-2-6(1)8-5-9-7/h5-7H,1-4H2	InChI=1S/C7H11NO/c1-3-7-4-2-6(1)8-5-9-7/h5-7H,1-4H2/t6-,7+
