17
gdb 75154	3.44104	1.12173	1.08747	2.9748	70.43	-0.2346	-0.0318	0.2028	1169.0713	0.135041	-455.182964	-455.174057	-455.173112	-455.216773	32.724	
C	 0.2376328882	 1.4158430808	 0.2870540988	-0.43682
C	-0.0983807237	-0.0522613971	 0.0800700846	 0.259225
C	 0.6337304796	-0.7028491557	-1.1519701413	-0.226583
N	 1.6541554355	-1.5664569699	-0.5697349627	-0.338826
C	 1.4190803877	-1.6003219231	 0.6817863881	 0.469141
N	 2.0468052807	-2.3698086239	 1.6184347837	-0.580534
O	 0.4013907606	-0.8420456675	 1.1882831258	-0.283692
C	-1.594721487	-0.3054708379	-0.0037737031	 0.121228
O	-2.4021046945	 0.5084073342	-0.3677100717	-0.249569
H	 1.3198680319	 1.5664126768	 0.247921825	 0.124968
H	-0.2369430374	 2.0107443727	-0.4969266569	 0.14552
H	-0.1348986025	 1.7663119381	 1.2531419324	 0.131537
H	-0.0535088526	-1.2862167457	-1.7798683596	 0.114043
H	 1.0724689781	 0.0722225165	-1.7889928284	 0.12083
H	 2.9224441216	-2.7636459903	 1.3121639301	 0.271778
H	 2.0441815408	-2.0043631618	 2.5578540175	 0.265764
H	-1.8806132672	-1.3443955564	 0.2740502276	 0.091991
68.8821	80.1198	199.2078	221.1914	250.9781	284.2785	332.2671	380.9937	423.1146	435.9556	485.5515	534.994	706.2175	716.7139	734.8512	810.5329	904.325	935.9099	960.0834	989.0408	1009.9073	1021.3467	1132.6136	1174.1487	1178.8973	1194.9469	1290.816	1314.536	1392.3148	1412.0955	1423.3158	1480.5877	1491.9311	1508.8785	1618.3061	1764.7317	1833.3591	2892.2614	3008.2255	3050.0047	3063.4206	3126.5095	3136.4305	3593.4162	3708.0361
CC1(CN=C(N)O1)C=O	C[C@]1(C[N][C](N)O1)C=O	
InChI=1S/C5H8N2O2/c1-5(3-8)2-7-4(6)9-5/h3H,2H2,1H3,(H2,6,7)	InChI=1S/C5H8N2O2/c1-5(3-8)2-7-4(6)9-5/h3H,2H2,1H3,(H2,6,7)/t5-/m0/s1
