16
gdb 15640	3.41297	1.77545	1.23998	2.382	65.88	-0.2458	-0.0164	0.2294	965.0042	0.131654	-379.977658	-379.970048	-379.969104	-380.009867	27.712	
C	-0.040379071	 1.5686391751	 0.0333353775	-0.388801
C	-0.0217546662	 0.0402236898	-0.0074511955	-0.16726
C	 0.7402952992	-0.514026947	-1.2197776287	-0.109439
N	 2.1800558967	-0.2094794208	-1.1800263971	-0.242366
C	 2.7798301213	-1.3327290228	-1.257763008	 0.066704
N	 1.9631350481	-2.4541554545	-1.3592537077	-0.3391
C	 0.6321540121	-2.0443975023	-1.3244870345	 0.418615
O	-0.3423664554	-2.7538248184	-1.3591135465	-0.365327
H	 0.9769796132	 1.9679476319	 0.0500143183	 0.140727
H	-0.5485739391	 1.9804009985	-0.8456868546	 0.114398
H	-0.5671954992	 1.9275223464	 0.9225266703	 0.112988
H	 0.4405216913	-0.3555001898	 0.9047927085	 0.103848
H	-1.0388553672	-0.3648466313	-0.0486346355	 0.12241
H	 0.3160168665	-0.0770259395	-2.1341599699	 0.123194
H	 3.8584778799	-1.4545861147	-1.2501226133	 0.140339
H	 2.2591585097	-3.4160340107	-1.3989349235	 0.269068
90.4861	119.4079	169.8866	228.1766	298.8226	327.3633	496.8178	517.2049	594.6116	655.8865	703.7066	774.8416	863.31	878.2486	934.7733	945.3786	973.6786	1064.5398	1067.91	1124.3317	1132.4985	1190.7213	1259.2986	1266.12	1321.981	1349.595	1368.6474	1397.2544	1409.622	1484.1671	1495.7159	1508.6735	1677.7262	1851.1967	3021.7057	3035.9506	3038.7578	3077.9416	3103.9255	3124.8795	3190.3953	3653.1982
CCC1N=CNC1=O	CC[C@H]1N=CNC1=O	
InChI=1S/C5H8N2O/c1-2-4-5(8)7-3-6-4/h3-4H,2H2,1H3,(H,6,7,8)	InChI=1S/C5H8N2O/c1-2-4-5(8)7-3-6-4/h3-4H,2H2,1H3,(H,6,7,8)/t4-/m1/s1
