16
gdb 45698	3.8518	1.40594	1.08214	4.4287	72.75	-0.222	-0.0045	0.2175	1069.753	0.126643	-437.916958	-437.909825	-437.908881	-437.948623	27.782	
O	 0.013043001	-0.059709056	 0.2090893976	-0.377237
C	-0.0116715136	 1.1189505625	-0.0307677428	 0.46247
N	-1.1998937312	 1.8293796833	-0.1698777264	-0.376678
C	-1.2714749369	 3.2319331071	-0.1007437112	-0.151479
C	-0.1848832393	 3.8913409499	-0.4764999226	 0.229728
C	 0.5640428365	 5.1793919392	-0.2203164443	-0.325586
C	 1.8517470018	 4.28624339	-0.0919520408	-0.241946
C	 1.0707546046	 3.1275547006	-0.7742002604	 0.069993
O	 1.1352272303	 1.8363572171	-0.1525367889	-0.254039
H	-2.0128673652	 1.2718510191	 0.0348103525	 0.266076
H	-2.1813383996	 3.653550938	 0.3102966521	 0.124574
H	 0.6095001097	 5.8413201109	-1.0916015043	 0.118152
H	 0.2748840498	 5.7714663637	 0.6505927587	 0.119818
H	 2.7595175547	 4.633611131	-0.5884640951	 0.111055
H	 2.0676208774	 4.0351022649	 0.9478422158	 0.129298
H	 1.31713168	 3.0094541585	-1.8371630699	 0.095801
114.2229	131.0463	262.0516	331.3734	367.0756	458.2496	495.9958	550.5422	605.7128	667.4809	753.8072	761.1301	793.0679	838.9384	871.9595	896.7602	940.9309	981.1584	1021.2255	1099.3031	1112.9789	1119.2196	1168.1474	1194.3675	1220.9593	1227.4491	1267.3322	1288.9273	1368.6945	1390.8206	1447.5599	1473.2636	1490.7067	1777.3778	1849.4857	3019.0115	3047.4159	3078.973	3104.17	3144.5707	3197.555	3658.7087
O=C1NC=C2CCC2O1	O=C1N[CH][C]2CC[C@H]2O1	
InChI=1S/C6H7NO2/c8-6-7-3-4-1-2-5(4)9-6/h3,5H,1-2H2,(H,7,8)	InChI=1S/C6H7NO2/c8-6-7-3-4-1-2-5(4)9-6/h3,5H,1-2H2,(H,7,8)/t5-/m1/s1
