22
gdb 15085	2.55197	1.55319	1.05076	1.0743	78.72	-0.2457	0.0923	0.338	1203.4709	0.198803	-350.187383	-350.177751	-350.176807	-350.221785	34.995	
C	-0.1733089196	 0.9893087402	 0.7953718713	-0.386299
C	-0.0638113678	-0.3800032806	 0.1209367502	-0.17477
C	 0.6337080426	-0.3316453093	-1.2418520636	 0.11759
O	 1.9467214494	 0.1589051052	-0.9993598514	-0.246695
C	 2.6672544102	 0.5524437883	-2.1435507559	-0.23346
C	 0.6423110572	-1.687234844	-1.9233952625	 0.017468
C	-0.5982790435	-2.1821824267	-2.624796774	-0.272777
C	 0.6212248787	-1.8155817972	-3.428028155	-0.277165
H	 0.8169617574	 1.4297775866	 0.9320009562	 0.132335
H	-0.7686242062	 1.6819169234	 0.1890947355	 0.105905
H	-0.6540706162	 0.9086402444	 1.7751256833	 0.106333
H	 0.4963218206	-1.070202068	 0.7641191102	 0.100227
H	-1.0586520437	-0.8168095295	-0.019749005	 0.096261
H	 0.0967308511	 0.3823907735	-1.8953670051	 0.050676
H	 2.9395333308	-0.2972425965	-2.7836721409	 0.113143
H	 2.1002794576	 1.2745383538	-2.7530773874	 0.096794
H	 3.5837498726	 1.0354174532	-1.7935209144	 0.121181
H	 1.2205673339	-2.4336981036	-1.384436737	 0.086863
H	-0.862300243	-3.2290204368	-2.5265528748	 0.112805
H	-1.4526634072	-1.5139052776	-2.6724756464	 0.110878
H	 0.5793705542	-0.9036059922	-4.0149475352	 0.11066
H	 1.1998955708	-2.6106176866	-3.8855711781	 0.112046
93.5483	98.2253	106.5969	166.6058	197.6099	210.04	263.0482	277.3478	352.5431	416.6317	475.0341	519.3274	757.5977	782.4956	829.0735	861.9337	901.4871	923.0071	958.8966	984.5257	1043.8443	1062.1337	1083.5695	1104.4293	1129.7265	1138.5308	1154.5894	1179.8156	1194.5596	1201.5345	1222.2731	1229.2007	1291.1614	1316.7663	1349.3751	1388.1396	1407.4693	1422.3288	1471.704	1475.763	1478.9029	1487.6736	1496.5961	1506.9483	1509.9764	1513.1625	2919.7719	2975.0302	3031.8164	3034.866	3038.247	3072.7362	3097.8963	3104.1657	3127.693	3128.7322	3131.6342	3140.4253	3205.2503	3220.4949
CCC(OC)C1CC1	CC[C@@H](OC)C1CC1	
InChI=1S/C7H14O/c1-3-7(8-2)6-4-5-6/h6-7H,3-5H2,1-2H3	InChI=1S/C7H14O/c1-3-7(8-2)6-4-5-6/h6-7H,3-5H2,1-2H3/t7-/m1/s1
