23
gdb 76403	2.40969	1.16191	1.12131	1.6438	85.97	-0.2508	0.079	0.3298	1298.3969	0.203488	-388.264084	-388.253675	-388.252731	-388.299139	38.389	
C	-0.2928115825	 1.1267649057	-1.6976781609	-0.420494
C	-0.1705263796	-0.0407524238	-0.7411211837	-0.05986
C	 1.1576920766	-0.6365623913	-0.3116271169	-0.054217
C	 2.5002737768	-0.1301043478	-0.7942851389	-0.416998
C	 0.2916651541	 0.1052299757	 0.6954139276	 0.26388
C	 0.7180140857	 1.4468415971	 1.2644044045	-0.466678
C	-0.3952935223	-0.7432031692	 1.7319370383	 0.025548
C	-1.8569663828	-0.818445897	 1.865000388	-0.182279
O	-1.1108629785	-1.8966978035	 1.2901549525	-0.237891
H	 0.5062818496	 1.8628648725	-1.582752756	 0.112987
H	-0.2654904384	 0.7771713455	-2.7357860705	 0.118607
H	-1.2434537567	 1.6531894556	-1.5550389469	 0.114585
H	-0.9515134965	-0.7856645748	-0.8705033219	 0.097685
H	 1.1288029645	-1.7176339174	-0.1952634761	 0.093036
H	 2.5222823375	 0.9518309181	-0.9440210181	 0.113047
H	 3.2928996995	-0.3778399487	-0.0792235464	 0.116292
H	 2.7648559347	-0.5947951256	-1.7507839926	 0.118376
H	 1.2577525314	 2.0589956416	 0.5406395161	 0.119308
H	-0.1518644006	 2.0230620099	 1.600720315	 0.116779
H	 1.3759405214	 1.310485911	 2.1313142077	 0.115635
H	 0.1957794619	-0.9187634409	 2.6347103998	 0.086232
H	-2.3106211166	-1.0314051275	 2.8317712455	 0.113593
H	-2.4820146494	-0.2656795854	 1.1652735039	 0.112828
82.5099	136.1791	144.4141	151.6468	162.8045	199.1167	222.6962	233.1511	298.967	333.7933	410.4967	504.0252	530.788	554.3824	658.8256	782.0039	793.1537	854.609	884.3813	943.9373	958.2212	1000.2575	1027.2173	1035.416	1052.7687	1089.8188	1112.4043	1127.8183	1151.4553	1153.1486	1167.2638	1178.7905	1190.5509	1255.9438	1288.5208	1319.1642	1369.3453	1411.8452	1413.5884	1423.7595	1433.6577	1456.8158	1480.9775	1493.3121	1494.0477	1502.4194	1502.6264	1523.4136	1524.6539	3025.7725	3030.0586	3033.7169	3070.1531	3077.3629	3083.8964	3084.8093	3085.3152	3107.6712	3114.0306	3132.2315	3136.7575	3145.5289	3172.4693
CC1C(C)C1(C)C1CO1	C[C@H]1[C@@H](C)[C@]1(C)[C@H]1CO1	
InChI=1S/C8H14O/c1-5-6(2)8(5,3)7-4-9-7/h5-7H,4H2,1-3H3	InChI=1S/C8H14O/c1-5-6(2)8(5,3)7-4-9-7/h5-7H,4H2,1-3H3/t5-,6+,7-,8+/m1/s1
