19
gdb 84093	2.41554	1.54485	1.08595	0.8636	73.	-0.2305	0.0259	0.2563	1143.1511	0.160136	-456.365712	-456.356758	-456.355814	-456.398802	34.924	
C	-0.0808029959	 1.5600114415	 0.0937753375	-0.384443
C	 0.1057566763	 0.046805452	 0.0399186304	 0.00863
N	 0.8833555514	-0.3667109668	-1.1491171385	-0.302151
C	 1.5732470171	-1.3989123042	-0.8243029411	 0.317918
N	 2.3800211859	-2.1154124033	-1.6557803165	-0.575278
C	 1.4120510365	-1.8741665148	 0.6184276285	 0.040105
O	 2.5992895489	-2.3482218311	 1.2111448966	-0.446225
C	 0.8475863722	-0.5816196637	 1.2469933696	 0.067173
O	 1.9376857932	 0.209228463	 1.7252962229	-0.446711
H	 0.876749416	 2.0872203121	 0.1493860448	 0.103613
H	-0.589309843	 1.8976984135	-0.812771137	 0.128638
H	-0.67836975	 1.8526368107	 0.9627547252	 0.114123
H	-0.8935416923	-0.413824133	-0.0096533806	 0.081203
H	 2.6264619083	-1.6850128978	-2.5339433377	 0.256606
H	 3.1087021625	-2.6399653619	-1.1951269473	 0.263778
H	 0.6705913782	-2.6834395621	 0.6527842878	 0.105136
H	 2.9812799011	-1.5711019381	 1.6482901282	 0.287818
H	 0.207912064	-0.7624799298	 2.1133813796	 0.088332
H	 2.3323536196	 0.6488946538	 0.9621002173	 0.291735
95.7181	162.3719	209.1682	236.0223	255.3656	298.7704	335.8264	373.1262	435.8231	484.8266	508.0253	527.4692	579.1344	596.2434	647.3141	715.1112	775.5757	824.6209	858.3173	904.1316	969.0561	1008.0172	1055.5749	1122.7574	1130.5058	1147.4693	1167.2822	1224.3607	1248.1617	1274.0027	1307.1746	1327.4908	1365.6271	1406.9258	1416.6632	1426.1001	1435.8909	1484.1677	1497.6575	1615.4081	1717.3069	2975.1891	3026.2363	3040.9792	3097.1512	3107.5924	3123.3828	3572.7775	3690.3301	3700.8612	3786.4772
CC1N=C(N)C(O)C1O	C[C@H]1[N][C](N)[C@@H](O)[C@H]1O	
InChI=1S/C5H10N2O2/c1-2-3(8)4(9)5(6)7-2/h2-4,8-9H,1H3,(H2,6,7)	InChI=1S/C5H10N2O2/c1-2-3(8)4(9)5(6)7-2/h2-4,8-9H,1H3,(H2,6,7)/t2-,3+,4+/m1/s1
