17
gdb 77644	2.14646	1.41464	1.30246	4.1901	75.58	-0.2368	0.0189	0.2557	1089.7524	0.136067	-417.983914	-417.975092	-417.974148	-418.017049	33.168	
N	 0.1380384503	 1.4036604348	 0.0312741497	-0.521137
C	-0.0309689084	-0.0165674012	 0.1138103416	-0.121608
C	-0.4900462182	-0.7449719548	 1.3162804211	 0.369853
O	 0.2216756334	-1.7023908613	 1.9893950705	-0.438049
C	-1.6483568378	-0.0583383239	 2.0282152257	-0.287418
C	-2.4830582159	-0.0529691929	 0.7095340396	-0.298476
C	-1.3601343018	-0.8060111731	-0.0122424096	 0.106563
C	-1.5172270982	-1.8379634187	-0.9715313197	 0.17415
N	-1.6291774141	-2.6911044312	-1.7493028746	-0.35793
H	-0.0108383283	 1.7355787307	-0.9165961557	 0.243041
H	-0.5046244585	 1.9020607857	 0.6358582648	 0.241871
H	 0.7622166378	-0.5491403308	-0.4115661487	 0.112911
H	 1.0688626681	-1.8443889435	 1.5543843757	 0.299742
H	-2.0817582232	-0.7261012323	 2.7746049929	 0.134113
H	-1.4278770119	 0.9009797532	 2.5077780095	 0.107732
H	-3.4035206109	-0.6314952201	 0.7872787002	 0.133224
H	-2.7201106224	 0.9304872994	 0.292279887	 0.101417
108.7956	144.4579	207.6931	219.8289	238.2457	245.1161	273.7902	376.0508	432.5908	509.7713	552.6374	567.1102	652.3313	678.5325	725.0114	786.3285	811.4789	835.4479	951.7793	998.7237	1041.0489	1078.4169	1108.4191	1126.6653	1185.2676	1199.4025	1221.6992	1243.7381	1255.8516	1318.8834	1346.6776	1407.3045	1479.1365	1486.6875	1522.15	1657.5721	2325.1495	3050.4817	3059.7055	3114.9902	3118.6897	3135.9559	3508.8971	3596.2898	3821.8445
NC1C2(O)CCC12C#N	N[C@H]1[C@@]2(O)CC[C@@]12C#N	
InChI=1S/C6H8N2O/c7-3-5-1-2-6(5,9)4(5)8/h4,9H,1-2,8H2	InChI=1S/C6H8N2O/c7-3-5-1-2-6(5,9)4(5)8/h4,9H,1-2,8H2/t4-,5-,6+/m1/s1
