25
gdb 101942	1.91022	1.3156	0.8484	0.1919	92.53	-0.2647	0.0849	0.3496	1472.3581	0.228633	-352.333675	-352.323575	-352.32263	-352.368922	38.398	
C	 0.82759062	-0.4265955105	-1.3252906261	-0.389027
C	-0.0453919526	-0.267661724	-0.0767187872	-0.168143
C	 0.6447978159	-0.6114190328	 1.260213385	-0.021368
C	-0.2680421347	-0.2490976114	 2.4236166945	 0.050461
C	 0.2822299886	 0.1984668146	 3.7525941068	-0.275824
C	-0.4324375042	 1.1848390611	 2.859759817	-0.278697
C	 1.0576256353	-2.0742321423	 1.3337799874	 0.046816
C	 2.3959831571	-2.5551796194	 0.8275569707	-0.274418
C	 2.1089525316	-2.5429403499	 2.3079060207	-0.276844
H	 1.1455599191	-1.4625387868	-1.47009308	 0.124175
H	 0.2820572223	-0.1158478515	-2.2222620661	 0.107282
H	 1.7308345718	 0.1910090154	-1.2586632822	 0.107666
H	-0.4066348407	 0.7660623649	-0.0175214814	 0.093862
H	-0.9435578946	-0.8930561042	-0.1775451516	 0.088174
H	 1.5545460962	 0.003782831	 1.3432443492	 0.055568
H	-1.169522258	-0.8572845164	 2.4732176306	 0.074957
H	-0.2128409028	-0.1330065167	 4.6588585189	 0.107513
H	 1.3580546656	 0.3000015378	 3.8504374929	 0.10658
H	 0.1694605543	 1.9375959863	 2.3597161291	 0.10662
H	-1.4169688012	 1.5321216479	 3.1534763276	 0.107357
H	 0.22809322	-2.7629859267	 1.1810930253	 0.075162
H	 2.4451665497	-3.510649398	 0.3163045108	 0.107035
H	 3.0887384696	-1.8138363541	 0.4430827774	 0.109185
H	 2.6101557308	-1.7945841787	 2.9119885115	 0.108984
H	 1.9600900409	-3.4901317253	 2.8145787893	 0.106923
79.278	85.6596	104.8053	155.0692	177.5704	207.5577	272.3062	322.1484	345.1149	401.6563	438.389	494.7642	738.5252	778.2734	783.64	820.8251	825.9179	852.6136	861.3113	897.5115	925.1983	956.4506	980.5263	985.0683	1035.263	1050.253	1063.2462	1066.618	1077.9379	1080.7591	1117.0576	1137.2825	1142.5493	1171.4357	1195.3424	1201.4844	1216.9835	1223.7609	1232.3801	1279.1171	1285.6717	1331.4449	1375.4666	1406.2176	1411.4149	1423.8023	1469.3397	1471.6397	1487.3558	1498.1088	1503.2854	1508.6246	1511.4162	2980.6416	3012.1227	3031.8358	3052.6473	3092.7276	3114.091	3115.7021	3121.1405	3125.7841	3128.3302	3132.7077	3136.3848	3202.9073	3205.3991	3218.5324	3221.7804
CCC(C1CC1)C1CC1	CCC(C1CC1)C1CC1	
InChI=1S/C9H16/c1-2-9(7-3-4-7)8-5-6-8/h7-9H,2-6H2,1H3	InChI=1S/C9H16/c1-2-9(7-3-4-7)8-5-6-8/h7-9H,2-6H2,1H3
