16
gdb 127226	2.88563	1.31081	0.91172	6.5801	80.1	-0.2534	-0.0245	0.2288	1241.0339	0.124901	-396.976196	-396.967239	-396.966295	-397.011158	30.813	
C	-0.0195692426	 1.4496858017	 0.0500337826	-0.32434
N	-0.0318505899	 0.0014653042	-0.0243965928	 0.048602
C	-0.0574057497	-0.7727378887	-1.1431986309	-0.105607
C	 0.016471402	-2.0890112505	-0.7407911035	 0.108356
C	 0.0106643793	-3.3275136107	-1.5791060382	-0.51243
C	 0.088501332	-1.9895539503	 0.6742319751	 0.1889
N	 0.0610238695	-0.7170911899	 1.0960507731	-0.321335
C	 0.171008122	-3.0691651424	 1.5954641385	 0.23414
N	 0.2382975048	-3.9854462178	 2.2998848603	-0.34995
H	 1.0044974021	 1.8350587165	 0.0209755975	 0.153095
H	-0.5836897096	 1.8604884696	-0.7894380241	 0.145891
H	-0.4873726531	 1.7479124921	 0.9881649257	 0.169325
H	-0.1287875313	-0.3369234097	-2.1274578602	 0.142254
H	 0.9151050061	-3.9231795098	-1.4173131948	 0.14787
H	-0.8426594011	-3.9700310597	-1.3378107683	 0.147707
H	-0.0441385906	-3.0810596447	-2.64237552	 0.127521
48.4986	53.0164	132.8972	141.7058	195.3247	259.2299	298.1019	396.1007	521.0288	549.3666	591.7012	622.6798	638.5397	736.4167	794.9967	802.3117	1009.0151	1042.8204	1066.5671	1082.8249	1147.9019	1195.7153	1198.6809	1353.7205	1379.8878	1419.8626	1438.4898	1463.3365	1464.0024	1482.3764	1485.6996	1501.3745	1515.6996	1597.4137	2350.8296	3038.5968	3049.6323	3092.9452	3119.6535	3123.9754	3163.9099	3258.1632
CN1C=C(C)C(=N1)C#N	Cn1cc(C)c(n1)C#N	
InChI=1S/C6H7N3/c1-5-4-9(2)8-6(5)3-7/h4H,1-2H3	InChI=1S/C6H7N3/c1-5-4-9(2)8-6(5)3-7/h4H,1-2H3
