18
gdb 75924	2.71229	1.59908	1.15287	2.4828	73.13	-0.269	0.0189	0.288	1072.0752	0.14857	-439.08872	-439.080681	-439.079737	-439.121176	31.289	
O	 0.4061634789	 0.8827087607	-0.7288249997	-0.438872
C	 0.0815878297	-0.337793798	-0.1265498683	-0.016388
C	 0.4731614686	-0.3918449326	 1.3387135497	 0.401099
N	 1.4332876918	 0.2786271897	 1.8091614488	-0.570524
O	-0.372662476	-1.200333844	 2.0206363398	-0.238381
C	-1.4512763667	-1.6227430139	 1.1442903486	-0.161806
C	-1.4039759697	-0.6596763618	-0.0257002323	 0.300747
C	-2.4323787288	 0.4214440338	-0.2124438238	-0.297294
C	-2.3331655699	-0.7236598741	-1.1963729425	-0.341441
H	 1.0495751174	 1.2996009009	-0.1352734276	 0.298954
H	 0.5939484713	-1.1671241648	-0.6475725216	 0.094829
H	 1.531272094	 0.1648691725	 2.8177403653	 0.230485
H	-1.2616793134	-2.6611616922	 0.8448427382	 0.118046
H	-2.3811428804	-1.5828505242	 1.7164013726	 0.125584
H	-3.2816751412	 0.445217312	 0.4624417273	 0.111293
H	-2.0632799581	 1.3892807553	-0.529609463	 0.140252
H	-1.9198420481	-0.5147660252	-2.1775554215	 0.130095
H	-3.1169740392	-1.4748283943	-1.1904514001	 0.113322
85.6324	169.6653	221.9256	251.1486	286.1922	341.5879	373.7686	480.1939	495.0071	522.5726	627.2218	698.4208	784.6095	792.3881	870.8806	879.9672	904.7673	946.6119	968.2016	985.8258	997.4237	1061.4227	1072.556	1087.0102	1091.8498	1161.7985	1193.8433	1213.7844	1240.038	1269.3168	1305.9281	1345.6612	1380.3975	1415.3485	1441.1416	1460.846	1505.9978	1519.5207	1783.3463	2936.8652	3027.8846	3101.6644	3125.9051	3137.6445	3209.6233	3234.48	3496.1598	3710.6171
OC1C(=N)OCC11CC1	O[C@H]1[C]([NH])OCC21CC2	
InChI=1S/C6H9NO2/c7-5-4(8)6(1-2-6)3-9-5/h4,7-8H,1-3H2	InChI=1S/C6H9NO2/c7-5-4(8)6(1-2-6)3-9-5/h4,7-8H,1-3H2/t4-/m0/s1
