17
gdb 126335	2.89281	1.40034	1.014	4.9452	78.84	-0.2263	-0.0379	0.1884	1164.9416	0.13792	-418.04485	-418.036722	-418.035778	-418.07779	30.398	
C	 0.0410172632	 1.5788500376	 0.0797327029	-0.376272
C	-0.0043833764	 0.0504151344	-0.0983184321	-0.281299
C	-1.4025022044	-0.4995888478	-0.0657401708	 0.143907
C	-2.0323412997	-0.989420759	-1.1663290892	-0.054584
N	-3.3027884425	-1.4762709666	-1.1098986815	-0.222174
N	-4.0461899149	-1.5306464963	 0.0030785306	-0.178533
C	-3.4888025394	-1.0808138389	 1.0879136017	-0.065379
C	-2.1339753084	-0.5210820049	 1.2003027992	 0.283595
O	-1.6781000386	-0.1187447169	 2.2681721402	-0.39304
H	 1.076031265	 1.9338128967	 0.0748875584	 0.112677
H	-0.4964059485	 2.0864552437	-0.7278905624	 0.107489
H	-0.4154134501	 1.8585311676	 1.031359679	 0.154304
H	 0.4849500337	-0.2345955958	-1.036938051	 0.091245
H	 0.5598940141	-0.4113888117	 0.7199007892	 0.128007
H	-1.5708150307	-1.0261763834	-2.1481531828	 0.132489
H	-3.7596849954	-1.8372355394	-1.9311916967	 0.281226
H	-4.0920216269	-1.1285829294	 1.9894895254	 0.136341
80.2387	114.4358	186.0857	211.8193	297.4546	356.1634	431.1654	449.1754	511.596	558.8922	600.9035	625.8431	730.3366	777.4487	803.8989	883.6499	907.9918	950.5396	982.6065	1016.4855	1078.8426	1091.3882	1169.0187	1233.7685	1279.1846	1288.1983	1353.3402	1370.1827	1397.8262	1412.4619	1471.0174	1494.3122	1508.8073	1513.2527	1616.4883	1658.3466	1716.8193	3030.3876	3040.5447	3073.09	3107.0856	3139.4454	3181.1651	3186.2422	3652.0776
CCC1=CNN=CC1=O	CCc1c[nH]ncc1=O	
InChI=1S/C6H8N2O/c1-2-5-3-7-8-4-6(5)9/h3-4H,2H2,1H3,(H,7,9)	InChI=1S/C6H8N2O/c1-2-5-3-7-8-4-6(5)9/h3-4H,2H2,1H3,(H,7,9)
