25
gdb 113386	2.48318	1.01805	0.84313	1.5967	89.47	-0.2529	0.0797	0.3325	1552.1964	0.226463	-389.491082	-389.479864	-389.47892	-389.527835	40.881	
C	 0.3487863253	 1.5479583564	-1.2397208435	-0.376638
C	 0.3348992462	 0.3225706861	-0.3162937829	-0.218564
C	-1.0361983353	-0.3050102238	-0.2411515292	 0.023436
O	-1.462261404	-1.0684295863	-1.3773414931	-0.302408
C	-1.3151908741	-1.7506983088	-0.1129312688	 0.39971
C	-0.181957794	-2.7808052266	-0.0349164142	-0.280025
C	 0.104367507	-3.4907639093	-1.3647482436	-0.367344
C	-2.6422780922	-2.1674888031	 0.5037416191	-0.249174
C	-3.2890708456	-3.3769532616	-0.1829666801	-0.383068
H	 1.3477190883	 1.9907108686	-1.2932748069	 0.111964
H	 0.0445541127	 1.2668986365	-2.2523425827	 0.133868
H	-0.3416833664	 2.3207106216	-0.8845827461	 0.114526
H	 1.0608913758	-0.413195957	-0.6744428684	 0.105667
H	 0.644396354	 0.6131681291	 0.6966043815	 0.097226
H	-1.8072526405	 0.3747223036	 0.1347890299	 0.074681
H	 0.7365936595	-2.3015142423	 0.3193320575	 0.102169
H	-0.444378623	-3.5209965735	 0.7294179354	 0.098089
H	 0.9397930492	-4.1890821668	-1.2552562691	 0.105968
H	-0.7644318916	-4.0557536372	-1.7151732634	 0.120621
H	 0.3548450882	-2.7645440644	-2.1412571457	 0.132084
H	-2.4818735591	-2.3836225948	 1.5683799736	 0.095221
H	-3.3293695212	-1.3159898925	 0.4532828923	 0.099761
H	-4.2628229397	-3.600536758	 0.2632541921	 0.111568
H	-3.4418360471	-3.1760867453	-1.247550954	 0.132921
H	-2.6714810325	-4.2759728906	-0.0922877597	 0.11774
46.6908	75.3157	87.9971	155.6344	172.6565	203.7166	226.5391	250.6107	262.8747	302.0932	330.0619	390.3763	461.0023	504.2102	616.5839	680.2311	760.5206	778.3227	787.1508	838.4179	921.4039	935.5682	945.1981	1000.8962	1037.3325	1044.4691	1060.2449	1072.863	1122.0062	1124.7322	1144.2581	1163.3044	1232.8288	1280.8136	1292.6079	1310.6248	1336.0332	1347.2496	1364.7753	1391.1099	1406.1722	1407.6782	1410.8142	1473.3308	1474.1568	1483.8978	1491.6698	1493.3582	1498.5062	1505.3363	1508.3279	1510.3395	1514.1424	3021.0798	3023.8266	3035.8645	3039.2107	3040.336	3045.6615	3054.1188	3067.0008	3070.5738	3084.017	3106.005	3107.1047	3112.6749	3115.5265	3115.9294	3129.7886
CCC1OC1(CC)CC	CC[C@H]1OC1(CC)CC	
InChI=1S/C8H16O/c1-4-7-8(5-2,6-3)9-7/h7H,4-6H2,1-3H3	InChI=1S/C8H16O/c1-4-7-8(5-2,6-3)9-7/h7H,4-6H2,1-3H3/t7-/m1/s1
