27
gdb 122137	3.02626	0.6643	0.57159	0.9516	93.76	-0.242	0.0851	0.3271	2095.144	0.249126	-390.697874	-390.685487	-390.684543	-390.736994	43.236	
C	-1.2852580654	 2.3080316811	-0.8189307626	-0.379769
C	-0.8843800392	 0.8337390532	-0.7202532841	-0.164546
C	-2.0857988053	-0.1112202348	-0.6062855813	-0.169144
C	-1.6874894515	-1.5865008215	-0.5086894573	-0.180676
C	-2.8721605346	-2.5514125422	-0.3857596834	 0.116541
C	-2.4148973137	-4.0144505304	-0.3495507763	-0.166965
C	-3.5668057072	-5.0185759596	-0.2757184573	-0.39141
O	-3.5942821399	-2.2599042911	 0.8156208508	-0.252501
C	-4.9327552379	-1.8586901405	 0.6342614438	-0.234653
H	-0.4079300374	 2.9582297661	-0.8944449339	 0.109548
H	-1.9110190607	 2.4903085585	-1.6999616888	 0.11125
H	-1.8575480896	 2.6219386245	 0.0612506395	 0.113362
H	-0.2862993588	 0.5567727577	-1.5988565547	 0.091217
H	-0.2286630864	 0.6893354285	 0.1486509446	 0.095084
H	-2.6762688456	 0.1568746033	 0.2780465747	 0.106416
H	-2.7429864033	 0.035774242	-1.4756277331	 0.083447
H	-1.0976942505	-1.8701121351	-1.3905865456	 0.087135
H	-1.0364967263	-1.7330339759	 0.3634176113	 0.09915
H	-3.5401743695	-2.4091013145	-1.2505125551	 0.060527
H	-1.8027137453	-4.2093113432	-1.2389572647	 0.089793
H	-1.7568213944	-4.1431327457	 0.5189229705	 0.101765
H	-3.1925483261	-6.0460806518	-0.2342586199	 0.109627
H	-4.1722735986	-4.8448923544	 0.618158332	 0.128449
H	-4.2224625272	-4.9402115959	-1.150706965	 0.106915
H	-5.013904064	-0.932069642	 0.0465778692	 0.103595
H	-5.5369557319	-2.6337691415	 0.1393602628	 0.103685
H	-5.3510057498	-1.6760802648	 1.6284334139	 0.12216
41.6635	54.7481	75.425	95.4755	110.2574	143.6707	171.9375	223.7101	233.9469	245.5309	287.999	309.4243	335.8498	427.2279	494.09	547.9087	738.1453	760.1133	780.0437	863.5198	895.9315	924.8716	957.3148	995.4022	1028.6199	1046.9725	1071.7779	1083.5919	1127.4557	1133.2689	1147.7585	1180.2517	1181.6403	1224.2947	1248.6214	1263.1711	1298.6071	1316.6059	1325.6124	1331.9144	1371.0533	1390.5772	1396.5837	1399.1753	1406.6239	1412.9757	1468.1157	1479.252	1482.8782	1485.9308	1488.9499	1496.8591	1499.1048	1499.2257	1506.6469	1512.2312	1515.3111	2968.7668	2982.1525	3002.2411	3010.1671	3015.8243	3025.2866	3025.8077	3027.961	3032.3608	3037.6142	3047.2121	3061.7668	3071.6631	3094.4441	3097.3796	3099.8327	3101.1798	3116.1111
CCCCC(CC)OC	CCCC[C@@H](CC)OC	
InChI=1S/C8H18O/c1-4-6-7-8(5-2)9-3/h8H,4-7H2,1-3H3	InChI=1S/C8H18O/c1-4-6-7-8(5-2)9-3/h8H,4-7H2,1-3H3/t8-/m1/s1
