18
gdb 17813	4.1182	1.41922	1.29878	1.5142	67.66	-0.2349	0.0677	0.3026	1000.4965	0.15289	-384.86118	-384.853398	-384.852454	-384.89345	29.681	
C	 0.0575629319	 1.5248836748	 0.1504048387	-0.400919
C	 0.1090844551	-0.0040189131	 0.117281717	 0.082094
O	 0.7868069326	-0.5304720544	 1.2587670835	-0.429339
C	-1.283325755	-0.6126277259	 0.0120152035	 0.041218
C	-2.1065092351	-0.7197878823	-1.3058207521	 0.024688
C	-1.182537708	-1.8516109436	-1.8173659849	-0.232044
C	-1.5324918385	-2.1068063521	-0.33172918	 0.031935
O	-2.9400695618	-1.7515940261	-0.6460605854	-0.312008
H	 1.0636070999	 1.9339692886	 0.2753142499	 0.126271
H	-0.3711284089	 1.9275622258	-0.7733999287	 0.118816
H	-0.5623799259	 1.8750059522	 0.9850548492	 0.109333
H	 0.7313504153	-0.3161959566	-0.7271287636	 0.088979
H	 0.2886309301	-0.2676975999	 2.0411305714	 0.277328
H	-1.9158076729	-0.2855757962	 0.8459577506	 0.071498
H	-2.6256544271	 0.0595260751	-1.8651680554	 0.092517
H	-1.657061449	-2.5389219465	-2.5182090131	 0.110541
H	-0.151329626	-1.6198676477	-2.0896679565	 0.101495
H	-1.3610372466	-2.9920294021	 0.2800046059	 0.097598
62.4966	152.1737	221.9973	254.593	285.9487	327.4358	444.1278	474.8874	541.4305	605.5805	729.317	820.8438	867.6995	881.4182	892.3551	912.1072	930.1544	998.7435	1009.8816	1043.9535	1076.393	1084.3874	1109.8698	1142.8002	1169.6409	1183.5632	1201.7894	1219.2881	1241.8532	1274.9568	1287.6307	1331.3732	1402.2853	1409.3887	1423.7718	1489.158	1494.501	1498.0954	3025.5328	3043.0395	3063.6664	3079.5566	3096.4733	3110.378	3119.3061	3126.7371	3153.1553	3795.0624
CC(O)C1C2CC1O2	C[C@@H](O)[C@H]1[C@H]2C[C@@H]1O2	
InChI=1S/C6H10O2/c1-3(7)6-4-2-5(6)8-4/h3-7H,2H2,1H3	InChI=1S/C6H10O2/c1-3(7)6-4-2-5(6)8-4/h3-7H,2H2,1H3/t3-,4-,5+,6+/m1/s1
