14
gdb 45676	3.2943	1.71653	1.14447	0.967	69.09	-0.2532	-0.0392	0.2141	980.2908	0.10371	-432.922054	-432.91543	-432.914486	-432.953286	25.023	
O	-0.0242120202	-0.0489720254	 0.0031437565	-0.34339
C	-0.0330670314	 1.1527922817	 0.0094818613	 0.386407
C	-1.2128850897	 2.1539368977	 0.0321317306	-0.303911
N	-0.6463289119	 3.5130570562	 0.0306043863	-0.343606
C	 0.6136842749	 3.3442801722	 0.0109224661	 0.392779
C	 1.8717306152	 4.1819678274	-0.0036393274	-0.282228
N	 2.9796562251	 3.1999489018	-0.0252496807	-0.247547
C	 2.4636381564	 2.0321086812	-0.0234902286	 0.06937
N	 1.0689900969	 2.0160465231	-0.0026263276	-0.136517
H	-1.8579201692	 1.9961392511	-0.8391569123	 0.158792
H	-1.8317073413	 1.9871931194	 0.9205957018	 0.158785
H	 1.9283955993	 4.8338271765	-0.881536316	 0.160859
H	 1.954761575	 4.8248316094	 0.8787819718	 0.160857
H	 3.0213657509	 1.1037430978	-0.0365690417	 0.16935
133.5447	152.4126	251.5227	294.8587	475.8565	525.6823	545.5043	627.3499	656.0921	657.7366	760.3686	896.4461	928.4237	936.6356	967.0719	994.7641	999.6402	1065.4903	1105.9615	1177.4241	1186.8156	1239.11	1271.2605	1302.53	1323.4193	1376.6135	1439.9375	1452.2188	1658.3068	1745.4468	1854.069	3054.7766	3058.2255	3090.7152	3091.1385	3226.0301
O=C1CN=C2CN=CN12	O=C1CN=C2CN=CN12	
InChI=1S/C5H5N3O/c9-5-2-7-4-1-6-3-8(4)5/h3H,1-2H2	InChI=1S/C5H5N3O/c9-5-2-7-4-1-6-3-8(4)5/h3H,1-2H2
