21
gdb 36950	4.34521	0.86308	0.77174	3.3884	78.51	-0.2355	0.0731	0.3086	1505.7812	0.182964	-424.1822	-424.173228	-424.172284	-424.217623	31.943	
C	 0.0028151685	 1.5222817958	-0.2404327694	-0.238277
C	-0.025528723	 0.005278411	-0.0972098267	-0.0119
C	 0.2395397874	-0.6078275819	 1.2984830766	-0.071227
O	-1.0112697556	-1.3312244259	 1.2649081055	-0.274867
C	-1.4004418873	-0.6873280172	 0.0377196375	-0.092952
C	 1.4105805366	 2.0939721716	-0.2162794798	 0.165556
C	 1.5833012939	 3.6196844716	-0.041882823	-0.301797
C	 2.4022734041	 3.2402035221	 1.2078685214	-0.058919
O	 2.0948887642	 1.840341394	 1.0382996027	-0.288875
H	-0.4684984339	 1.8148811696	-1.1896785254	 0.098344
H	-0.5856488507	 1.9818627311	 0.5646212109	 0.098003
H	 0.5921700458	-0.4561149255	-0.8739541238	 0.077821
H	 1.1012792845	-1.2782207915	 1.3868449054	 0.102875
H	 0.2743750652	 0.1229424152	 2.1144129603	 0.105575
H	-2.2445624173	 0.0028284653	 0.1840716246	 0.090029
H	-1.6688652058	-1.4098639712	-0.7427457014	 0.097816
H	 1.994339808	 1.6819472353	-1.0532977652	 0.071643
H	 2.1213870544	 4.140098091	-0.835164396	 0.110964
H	 0.6513775448	 4.1487768046	 0.168941657	 0.11092
H	 3.4803196468	 3.4311808606	 1.1318430786	 0.102543
H	 2.0423941594	 3.6260843543	 2.1683986604	 0.106726
59.5924	64.3877	69.8976	101.1137	164.9305	280.0317	329.0491	428.3351	471.0076	737.1497	746.2926	810.029	860.6431	884.3029	888.596	899.3631	948.1802	975.5379	986.7441	1023.6246	1035.9231	1045.0671	1074.5268	1107.9431	1125.8084	1152.2259	1159.7028	1163.7752	1192.5066	1219.2309	1239.2129	1257.5915	1276.6031	1288.796	1307.0643	1319.2409	1360.8323	1373.7808	1397.6401	1413.7556	1472.1422	1490.837	1512.573	1532.5674	1537.7691	2985.1146	2988.2351	3008.0148	3016.4531	3030.7554	3037.7027	3048.3352	3058.9181	3062.3962	3076.6937	3079.9986	3133.3913
C(C1COC1)C1CCO1	C(C1COC1)[C@H]1CCO1	
InChI=1S/C7H12O2/c1-2-9-7(1)3-6-4-8-5-6/h6-7H,1-5H2	InChI=1S/C7H12O2/c1-2-9-7(1)3-6-4-8-5-6/h6-7H,1-5H2/t7-/m1/s1
