23
gdb 101366	3.35167	0.96959	0.86199	1.5697	85.39	-0.2448	0.0707	0.3155	1458.2689	0.205374	-388.262232	-388.252652	-388.251708	-388.296717	36.595	
C	 0.0111090418	 1.5964737888	 0.088641514	-0.382343
C	-0.0528951567	 0.075409185	-0.067244426	-0.185889
C	 0.7770953296	-0.4457889041	-1.2479682666	 0.122646
O	 2.1512498418	-0.0723141975	-1.1283923225	-0.433028
C	 0.6480743853	-1.9559039237	-1.4285804877	 0.00374
C	-0.7127716976	-2.5806723097	-1.9020943879	-0.265909
C	 0.0279748587	-3.2681551075	-3.0570437522	-0.041405
C	 0.6857217297	-2.2360120765	-3.9259350377	-0.273593
C	 1.3449628668	-2.6147473465	-2.6286389992	-0.05592
H	 1.0489276093	 1.9287500307	 0.1748124429	 0.127496
H	-0.4259381038	 2.0992390405	-0.7813141002	 0.112945
H	-0.5353226042	 1.9299507117	 0.9760472038	 0.106517
H	 0.3078405417	-0.4107604018	 0.8518337249	 0.080474
H	-1.093542213	-0.2488655251	-0.1927000204	 0.099823
H	 0.4423074443	 0.0590504004	-2.1631532608	 0.080687
H	 2.5030962202	-0.515808026	-0.3479437983	 0.272908
H	 0.9646556507	-2.4428922048	-0.4967195456	 0.058451
H	-1.1338104219	-3.2707717227	-1.1681722001	 0.102035
H	-1.4957953391	-1.8739741698	-2.2007124408	 0.092707
H	-0.1519568222	-4.2793235094	-3.4008732408	 0.082808
H	 1.1799427486	-2.618721342	-4.8132433667	 0.109635
H	 0.2295142352	-1.2586689571	-4.0658870938	 0.104546
H	 2.3416379447	-3.038115313	-2.6100863985	 0.080669
73.7519	97.3529	128.442	173.3145	226.3619	254.314	291.0341	337.1814	394.7414	402.034	480.2634	550.4998	698.1141	777.5008	781.2764	803.365	842.1508	897.7028	938.9058	953.0895	971.1143	984.5289	1012.4029	1029.8121	1041.6157	1063.2262	1067.4845	1084.85	1095.2417	1119.7521	1141.8645	1167.8867	1200.6987	1242.634	1255.0912	1263.62	1275.8249	1301.5896	1329.7485	1366.3804	1378.0076	1398.4977	1406.54	1419.729	1480.9126	1484.6755	1496.0322	1500.773	1509.4972	2997.1419	3010.5152	3034.2338	3036.5104	3036.7921	3053.4348	3100.2778	3104.9979	3107.976	3121.8232	3177.9909	3184.7629	3200.1892	3790.6223
CCC(O)C1CC2CC12	CC[C@@H](O)[C@H]1C[C@H]2C[C@@H]12	
InChI=1S/C8H14O/c1-2-8(9)7-4-5-3-6(5)7/h5-9H,2-4H2,1H3	InChI=1S/C8H14O/c1-2-8(9)7-4-5-3-6(5)7/h5-9H,2-4H2,1H3/t5-,6-,7+,8-/m1/s1
