15
gdb 126203	2.07642	1.5975	0.95432	2.3207	74.37	-0.2745	-0.0457	0.2288	1188.0259	0.113123	-416.829651	-416.821461	-416.820517	-416.863428	29.024	
C	-0.1841153012	 1.5758215122	 0.0334445014	-0.380984
C	 0.1006678124	 0.0626800366	 0.0163507098	-0.30814
C	 0.8681090174	-0.3686740886	-1.1839475177	 0.376383
C	 2.1221075389	-0.9040872712	-1.3511454104	-0.040161
C	 2.2345926662	-1.0679671936	-2.7656293076	-0.036229
N	 1.1601693186	-0.6718062725	-3.3885632897	-0.124865
O	 0.2932553283	-0.2277163699	-2.3815099926	-0.20684
C	 3.0666963751	-1.2140625002	-0.3465291982	 0.199162
N	 3.8386834836	-1.4666584828	 0.4789973518	-0.340254
H	 0.7466707973	 2.149517682	 0.0493874204	 0.136608
H	-0.755931074	 1.8752731955	-0.8483435771	 0.144557
H	-0.7619154385	 1.8360027025	 0.9238220029	 0.131257
H	 0.6697474746	-0.2315438053	 0.9025998722	 0.14555
H	-0.84558123	-0.4907102534	 0.0405929881	 0.143177
H	 3.0679384115	-1.4629260515	-3.3281929232	 0.160779
42.9842	129.168	155.6801	181.4981	214.9833	325.1361	376.1819	527.582	546.3405	594.7245	648.5808	677.4936	741.5657	794.9073	904.0036	918.5962	947.8008	980.8115	1069.5444	1083.8232	1160.2085	1203.0811	1252.0733	1316.4067	1350.9854	1398.7988	1416.3301	1476.408	1497.0559	1503.0469	1522.3998	1633.2957	2351.2308	3043.9487	3051.7317	3098.0498	3127.2324	3133.9805	3257.6733
CCC1=C(C=NO1)C#N	CCc1c(cno1)C#N	
InChI=1S/C6H6N2O/c1-2-6-5(3-7)4-8-9-6/h4H,2H2,1H3	InChI=1S/C6H6N2O/c1-2-6-5(3-7)4-8-9-6/h4H,2H2,1H3
