16
gdb 124664	3.65768	1.04518	0.95608	3.9312	70.85	-0.2459	-0.0247	0.2212	1234.9657	0.124309	-434.077805	-434.069362	-434.068418	-434.112613	29.701	
C	 0.1110588459	 1.4950073136	 0.4061319448	-0.403436
C	-0.0795565671	 0.0517178295	-0.06029746	-0.172117
C	 0.8266431025	-0.9196367678	 0.7010924868	 0.144387
O	 1.61838479	-0.5898725202	 1.5444168776	-0.237631
C	-1.4938198528	-0.4467961	 0.0312344797	 0.293722
C	-2.5157807738	-0.0878512978	 0.8822689399	-0.165198
N	-3.5358556148	-0.9026500227	 0.5259216463	-0.149012
N	-3.1872243356	-1.7257580881	-0.4775966129	-0.110943
N	-1.9508506172	-1.4514540404	-0.7762014842	-0.249422
H	 1.1557332086	 1.7937108458	 0.2982985618	 0.136177
H	-0.5143513055	 2.1761337721	-0.176497254	 0.119478
H	-0.1430944424	 1.6027943226	 1.464688574	 0.12692
H	 0.2136273833	-0.0514473905	-1.115216171	 0.123882
H	 0.6889459815	-1.9836498512	 0.4106258082	 0.101497
H	-2.6021766226	 0.646355279	 1.664467732	 0.155187
H	-4.4711610501	-0.9480285839	 0.8983734309	 0.286508
21.5462	73.6113	149.0547	202.2905	236.6056	263.3043	372.0837	420.4068	585.4445	605.2852	696.5978	705.0002	746.1118	797.7892	856.8418	938.3437	988.1119	1014.1388	1047.3503	1078.9085	1101.571	1127.7431	1135.1614	1236.2974	1279.9737	1301.6646	1341.1868	1355.2665	1404.8507	1423.7876	1486.1178	1490.9483	1497.6543	1581.6882	1830.4796	2905.0233	3013.5942	3051.4149	3120.1029	3135.5051	3290.3971	3656.2179
CC(C=O)C1=CNN=N1	C[C@@H](C=O)c1c[nH]nn1	
InChI=1S/C5H7N3O/c1-4(3-9)5-2-6-8-7-5/h2-4H,1H3,(H,6,7,8)	InChI=1S/C5H7N3O/c1-4(3-9)5-2-6-8-7-5/h2-4H,1H3,(H,6,7,8)/t4-/m0/s1
