18
gdb 9389	3.5312	1.03699	0.84445	1.8181	70.74	-0.2576	0.0305	0.2881	1367.6167	0.150039	-384.890027	-384.880096	-384.879152	-384.925557	34.347	
C	-0.0110534542	 0.9242197113	 1.1094460687	-0.385381
C	-0.1311036936	-0.0264442955	-0.0690539556	-0.025093
O	-1.373009648	-0.6978136627	 0.0188827355	-0.240728
C	-1.5940386611	-1.6058725613	-1.0281279649	-0.065847
C	-2.9438592259	-2.3035934339	-0.7941807452	-0.052174
O	-3.3007886138	-3.0719672075	-1.9390137465	-0.417589
C	-2.9383987997	-3.1112763807	 0.4261597016	 0.315092
C	-2.9117030218	-3.8271099474	 1.3914094751	-0.474288
H	 0.9436563949	 1.4572910623	 1.0728910598	 0.114811
H	-0.820652162	 1.6592950552	 1.0934961623	 0.12762
H	-0.0670753251	 0.3733809282	 2.0524511537	 0.129824
H	-0.0655489773	 0.5256061137	-1.0219115079	 0.087123
H	 0.6942862992	-0.7581694306	-0.063804772	 0.087855
H	-1.6414019703	-1.098022317	-2.0044953341	 0.097591
H	-0.7923711772	-2.3625303303	-1.079728027	 0.08254
H	-3.7082366268	-1.5227125427	-0.708485231	 0.128653
H	-2.8334405711	-3.9123498197	-1.8809525494	 0.288122
H	-2.901581426	-4.4434357617	 2.256327297	 0.20187
52.3372	61.9005	116.7684	141.3156	198.6768	219.028	244.8052	273.7055	318.0611	361.5292	486.3057	569.7162	592.6855	634.5953	671.4606	819.1371	828.9841	902.5942	1029.9874	1045.6577	1085.3134	1098.1129	1154.3912	1172.9585	1186.9017	1235.83	1262.1481	1295.8789	1338.1527	1380.2926	1404.4586	1415.8826	1443.6169	1483.0031	1499.3258	1510.6884	1534.6839	2234.7311	2950.5395	2962.5346	2981.149	3000.3269	3045.8958	3054.1638	3120.253	3123.3821	3503.2335	3812.5234
CCOCC(O)C#C	CCOC[C@@H](O)C#C	
InChI=1S/C6H10O2/c1-3-6(7)5-8-4-2/h1,6-7H,4-5H2,2H3	InChI=1S/C6H10O2/c1-3-6(7)5-8-4-2/h1,6-7H,4-5H2,2H3/t6-/m0/s1
