21
gdb 109649	2.56934	1.00994	0.91309	3.2138	81.18	-0.2451	-0.0131	0.232	1389.1252	0.179422	-424.225203	-424.214424	-424.21348	-424.261533	38.058	
C	-0.3449456809	 0.9765770596	-1.9147764618	-0.414831
C	-0.0681115219	-0.1784467204	-0.9775830578	-0.048994
C	 1.2925338389	-0.5316792764	-0.4666603782	-0.054212
C	 2.5395677531	 0.2324506003	-0.8331150693	-0.108488
O	 2.9843825055	-0.2730223316	-2.0861638814	-0.418778
C	 0.2552342177	 0.0348367839	 0.5110531654	 0.182033
C	 0.3714316478	 1.4116153607	 1.1325386457	-0.467294
C	-0.3427791507	-0.9874142768	 1.4091490874	 0.125869
O	-0.7276856207	-0.779608761	 2.5337960985	-0.273247
H	 0.2956553934	 1.8405195908	-1.727731453	 0.119398
H	-0.1778960528	 0.6640733039	-2.9505558276	 0.134773
H	-1.384040938	 1.3096248257	-1.8252236929	 0.123692
H	-0.7082106397	-1.0374896675	-1.169077455	 0.091749
H	 1.4892099769	-1.5968539454	-0.3638381475	 0.096151
H	 2.3463079663	 1.3121168416	-0.8903036207	 0.087256
H	 3.3003581452	 0.0811511926	-0.0513687635	 0.09556
H	 3.832499648	 0.1338342814	-2.2879719764	 0.287805
H	 0.7546009363	 2.1589988256	 0.4370206972	 0.112078
H	-0.6083372533	 1.7449354942	 1.4862545913	 0.135562
H	 1.0320361989	 1.3844709679	 2.0043829724	 0.13151
H	-0.42014345	-2.0044035193	 0.9546991973	 0.06241
46.3851	97.1119	99.4879	136.1685	158.0683	212.5485	243.0541	264.876	289.7856	303.2059	332.7962	394.2639	483.8328	537.8494	612.8026	749.9877	762.8417	832.2267	952.3992	966.7583	1006.1146	1020.7908	1043.1557	1060.3421	1097.5435	1103.8551	1134.0664	1145.9774	1177.2534	1239.834	1253.9691	1287.5557	1334.3696	1376.0149	1410.4835	1423.1129	1438.8446	1445.282	1472.904	1482.3945	1488.3935	1498.2818	1509.2626	1528.5022	1813.7488	2843.1192	2979.9672	3021.2441	3042.1646	3052.106	3101.3098	3110.1041	3114.3342	3126.0533	3132.6158	3141.3523	3824.411
CC1C(CO)C1(C)C=O	C[C@H]1[C@@H](CO)[C@]1(C)C=O	
InChI=1S/C7H12O2/c1-5-6(3-8)7(5,2)4-9/h4-6,8H,3H2,1-2H3	InChI=1S/C7H12O2/c1-5-6(3-8)7(5,2)4-9/h4-6,8H,3H2,1-2H3/t5-,6+,7+/m0/s1
