20
gdb 115012	2.56084	1.44389	1.0452	1.6281	80.06	-0.2277	0.0237	0.2514	1204.2151	0.171323	-403.158318	-403.149696	-403.148752	-403.192128	32.659	
C	 0.0203741606	 1.602339605	 0.0209556542	-0.389555
C	-0.1847026244	 0.0965318387	-0.1648541114	-0.180987
C	 0.7304106845	-0.5058300899	-1.2246716317	 0.02074
O	 2.121792829	-0.2785445263	-0.8457237056	-0.237606
C	 2.6985213317	-1.5029763548	-0.8040387605	 0.096472
N	 2.0125100939	-2.5322033539	-1.0818043942	-0.302185
C	 0.6851059052	-2.0385051485	-1.3936063736	 0.337654
C	-0.4920932164	-2.9104891197	-1.0396491982	-0.316932
C	-0.088343076	-2.7298711314	-2.4832937681	-0.30917
H	 1.0480781714	 1.8190926231	 0.3236784027	 0.135627
H	-0.1763363304	 2.1458945884	-0.9098945191	 0.114536
H	-0.6530189096	 1.9973952505	 0.7871456395	 0.11387
H	-0.0215962862	-0.4337871391	 0.7806674663	 0.108811
H	-1.2217200465	-0.1032299129	-0.4619585226	 0.101591
H	 0.5822018796	 0.009113391	-2.1822883858	 0.090314
H	 3.7454478857	-1.4992060641	-0.5230285118	 0.138227
H	-0.2630153157	-3.856017763	-0.5623427153	 0.128102
H	-1.405448431	-2.436825105	-0.697720475	 0.114064
H	-0.7211620294	-2.116234425	-3.117649978	 0.11033
H	 0.4022188139	-3.5549463633	-2.9863203419	 0.126096
44.5167	103.6722	175.4409	222.1115	272.2279	292.9786	305.4964	430.5567	482.8376	540.7375	603.7176	751.9641	775.2944	812.89	845.3393	883.6451	918.7107	933.8073	944.9549	959.0216	970.241	1002.0047	1055.198	1069.4941	1078.078	1105.8957	1128.6772	1155.8434	1192.9717	1243.6359	1289.0987	1294.0421	1329.567	1349.2138	1374.3672	1399.4694	1409.8125	1454.3362	1475.3145	1495.0371	1497.378	1508.5397	1698.982	3020.866	3030.0478	3037.8548	3070.5851	3104.5873	3123.6348	3125.8861	3141.4602	3217.3621	3218.6942	3233.8945
CCC1OC=NC11CC1	CC[C@H]1OC=NC21CC2	
InChI=1S/C7H11NO/c1-2-6-7(3-4-7)8-5-9-6/h5-6H,2-4H2,1H3	InChI=1S/C7H11NO/c1-2-6-7(3-4-7)8-5-9-6/h5-6H,2-4H2,1H3/t6-/m1/s1
