21
gdb 90328	2.63199	1.71349	1.67718	0.5909	87.06	-0.2205	0.0023	0.2228	974.9685	0.185304	-349.923195	-349.91593	-349.914986	-349.954341	30.634	
C	 0.1181493278	 1.5926209968	-0.1058240499	-0.388509
C	 0.1255668701	 0.0652833254	-0.0524650357	 0.021211
C	 0.9083239509	-0.5935111615	-1.2717581556	-0.284084
C	 2.1954777944	-0.8162875861	-0.5247594961	 0.134686
C	 3.1118582348	 0.1468397635	-0.3407966779	-0.11868
C	 3.369212715	 0.3805219038	 1.1379790113	-0.264679
C	 2.2432311931	-0.4436525415	 1.7678354551	-0.046736
C	 0.7767720729	-0.558364475	 1.2197802127	-0.053045
C	 1.8537209644	-1.5019736416	 0.7870461348	-0.127895
H	 1.1348632922	 1.9863850987	-0.2072569476	 0.117631
H	-0.4729250976	 1.9598175766	-0.9517995586	 0.107613
H	-0.3084373781	 2.0119503419	 0.8115798802	 0.112506
H	-0.9142753618	-0.2849070753	-0.0690958792	 0.069577
H	 0.4088284574	-1.5119803059	-1.5958888347	 0.095167
H	 0.9950383513	 0.0834512615	-2.1253358203	 0.098047
H	 3.3709324392	 0.8890771286	-1.0895627417	 0.087799
H	 4.3463083056	 0.0389181898	 1.5109081868	 0.102301
H	 3.3132933981	 1.4547880013	 1.3567602024	 0.105544
H	 2.3167744039	-0.6833446987	 2.8257262251	 0.07484
H	 0.0812456505	-0.8478915733	 2.0035429471	 0.07802
H	 1.8751406062	-2.5774660791	 0.9248370017	 0.078685
140.5993	223.3166	244.7766	313.5067	374.25	396.5735	494.4311	611.5764	633.2309	681.4618	743.3167	767.0528	785.912	824.6717	847.8022	859.2457	913.6786	927.5654	938.07	974.6559	1006.765	1019.9801	1027.8692	1066.1394	1075.752	1090.702	1109.0542	1132.6178	1148.5519	1184.8688	1204.2171	1226.9216	1259.8928	1301.0608	1308.21	1323.3999	1343.3263	1349.1796	1392.4025	1407.2146	1480.4475	1491.3146	1495.7657	1499.6203	1656.4605	2994.0669	3017.0772	3027.6647	3036.9321	3049.0796	3095.0079	3099.5564	3106.7625	3131.9788	3143.2237	3164.6438	3175.5153
CC1CC2=CCC3C1C23	C[C@H]1C[C]2[CH]C[C@H]3[C@@H]1[C@@H]23	
InChI=1S/C9H12/c1-5-4-6-2-3-7-8(5)9(6)7/h2,5,7-9H,3-4H2,1H3	InChI=1S/C9H12/c1-5-4-6-2-3-7-8(5)9(6)7/h2,5,7-9H,3-4H2,1H3/t5-,7-,8+,9-/m0/s1
