23
gdb 121531	5.01425	0.44491	0.4268	1.8802	93.15	-0.2469	0.0431	0.29	2653.7216	0.202892	-388.27392	-388.262201	-388.261257	-388.312834	40.827	
C	 0.0656468023	 1.5703585623	-0.172190395	-0.385712
C	 0.0130320705	 0.053055326	 0.0245794901	-0.161155
C	-1.4148001407	-0.5007467273	 0.0171741439	-0.149404
C	-1.4604458103	-2.0294098427	 0.2144173746	-0.359223
C	-2.8137531334	-2.5739388862	 0.2055540998	-0.02321
C	-3.94692122	-2.9849091535	 0.1852872078	 0.136521
C	-5.3092796547	-3.5274134138	 0.2063405542	-0.016609
C	-5.334805112	-5.0065162449	-0.2064331423	-0.381361
O	-5.9400256763	-3.3295660662	 1.4719429887	-0.415847
H	 1.0961921061	 1.9385286376	-0.1619920175	 0.112768
H	-0.3828042237	 1.8610553725	-1.1285807496	 0.116142
H	-0.4824677503	 2.0911978273	 0.6205985908	 0.116482
H	 0.5975821566	-0.4400899844	-0.7636513222	 0.095517
H	 0.500105915	-0.2112693775	 0.9728189823	 0.095434
H	-2.0058475351	-0.0223109681	 0.8072304316	 0.107755
H	-1.9079902552	-0.2494810021	-0.9295314852	 0.106354
H	-0.8664334462	-2.5156749935	-0.5714090899	 0.126579
H	-0.9690941814	-2.2884439469	 1.1622163319	 0.125258
H	-5.9306760568	-2.9584315875	-0.496259315	 0.113974
H	-4.7204954855	-5.6037522212	 0.4752088583	 0.114538
H	-6.3626305248	-5.3773470325	-0.1709969863	 0.122615
H	-4.9413268679	-5.1352478174	-1.2190370512	 0.12232
H	-5.3356132661	-3.6611364399	 2.1451788902	 0.280266
20.0584	59.6499	67.0083	114.8084	136.1846	157.2881	236.4053	241.1887	254.2668	270.0622	337.4376	367.5672	402.0822	486.1747	543.9139	573.0345	733.9753	734.9659	791.1157	894.5457	908.1208	932.4871	995.8225	1020.4146	1061.1344	1068.6351	1095.0557	1121.7555	1129.7864	1177.2254	1241.2012	1277.0873	1280.9702	1313.0785	1329.0489	1341.1344	1359.7588	1395.9357	1397.6154	1413.8962	1417.565	1471.4007	1485.9471	1487.923	1491.3436	1497.5939	1499.5886	1512.0405	2357.662	3008.5632	3012.3597	3030.0857	3033.6104	3034.4352	3035.6075	3038.7482	3039.5623	3077.6411	3098.4648	3103.0868	3113.4763	3125.3097	3805.4951
CCCCC#CC(C)O	CCCCC#C[C@@H](C)O	
InChI=1S/C8H14O/c1-3-4-5-6-7-8(2)9/h8-9H,3-5H2,1-2H3	InChI=1S/C8H14O/c1-3-4-5-6-7-8(2)9/h8-9H,3-5H2,1-2H3/t8-/m1/s1
