19
gdb 73095	2.76874	1.46031	1.24704	3.3152	74.47	-0.2393	-0.0186	0.2207	1077.6341	0.158829	-423.05056	-423.042371	-423.041427	-423.083537	31.551	
C	-0.1304164308	 1.5264737583	 0.1406562469	-0.456142
C	 0.008161472	 0.0203413571	 0.0408989662	 0.426141
C	-1.2840898791	-0.748115851	-0.2229976656	-0.362706
C	-1.0859144825	-2.1210166369	 0.42812642	 0.388342
O	-1.6698791568	-3.1320872341	 0.1435496685	-0.300401
C	-0.0220579338	-1.9820374942	 1.5295228916	-0.341309
C	 0.7915484971	-0.7379267411	 1.1718368139	-0.121757
C	 1.866206775	-0.9359171744	 0.0872131354	-0.085584
O	 1.0260766974	-0.3561389894	-0.9313619477	-0.324823
H	 0.8373327167	 1.9902621427	 0.3535670757	 0.121468
H	-0.5033411146	 1.9387192256	-0.8026733218	 0.130685
H	-0.8309071207	 1.803158145	 0.9360106168	 0.114588
H	-2.1441254173	-0.2658289523	 0.2608880544	 0.12239
H	-1.5064370046	-0.8421580064	-1.2880302065	 0.140979
H	-0.5548550189	-1.8492061653	 2.480197284	 0.130083
H	 0.5635651612	-2.9008458255	 1.6171752033	 0.131491
H	 1.0952514264	-0.1469567375	 2.0364611993	 0.079224
H	 2.787319831	-0.3578629841	 0.2349647083	 0.101529
H	 2.1338494222	-1.9748003365	-0.1426311927	 0.105801
70.721	88.7888	226.3164	252.2512	322.0187	350.8207	386.4672	441.2388	477.0491	574.991	607.3827	679.0919	765.0358	796.6346	844.6661	878.2111	889.1655	929.6343	957.7478	1014.4517	1027.6299	1078.3814	1098.1045	1115.9711	1166.1615	1167.8913	1171.9891	1218.2885	1232.2408	1246.092	1285.445	1313.9469	1343.72	1363.8599	1407.6351	1430.6508	1448.4718	1481.9462	1491.3054	1528.7584	1852.4258	3009.5902	3028.8007	3032.793	3035.2739	3051.4507	3100.1255	3102.9889	3104.23	3110.62	3118.4504
CC12CC(=O)CC1CO2	C[C@]12CC(=O)C[C@H]1CO2	
InChI=1S/C7H10O2/c1-7-3-6(8)2-5(7)4-9-7/h5H,2-4H2,1H3	InChI=1S/C7H10O2/c1-7-3-6(8)2-5(7)4-9-7/h5H,2-4H2,1H3/t5-,7-/m0/s1
