18
gdb 68267	2.40376	1.49103	1.42558	2.3958	76.6	-0.2585	0.0187	0.2772	1041.1059	0.145765	-401.907207	-401.898532	-401.897588	-401.940009	33.125	
C	 0.0520796505	 1.4833421409	 0.0944303942	-0.519307
C	 0.0212987484	-0.0028540009	-0.058365645	 0.379571
C	 0.693861217	-0.9279136101	-1.1067570044	-0.291208
C	 0.0953901658	-1.8002151476	 0.0141851266	 0.018683
O	 0.6298249557	-0.8470658806	 1.0032463105	-0.341538
C	-1.2360981506	-0.9710318982	-0.0195662616	 0.160081
C	-2.1041692502	-0.9614720753	 1.2350963005	-0.478235
C	-2.0462457369	-1.0486399422	-1.2299621605	 0.211028
N	-2.705716701	-1.101898009	-2.1789244792	-0.347309
H	 1.0861067533	 1.8362759677	 0.1478762032	 0.143552
H	-0.4347339937	 1.9575839009	-0.7630527758	 0.145167
H	-0.4682352569	 1.7902619147	 1.0063971835	 0.140222
H	 0.2639195656	-0.9861280923	-2.1075153318	 0.134491
H	 1.7827190589	-0.8843788726	-1.1043903806	 0.115318
H	 0.2122053837	-2.8636218291	 0.2199137326	 0.109089
H	-1.4638357248	-0.8988205408	 2.1152513115	 0.150213
H	-2.7906905359	-0.1097040314	 1.224972782	 0.13432
H	-2.7075921188	-1.8720789938	 1.2927212745	 0.135862
121.5846	166.6778	187.7727	192.7156	219.3465	307.5369	324.5479	356.7458	497.103	526.4933	541.9026	585.9998	655.4936	686.5846	715.1914	804.7186	878.4461	911.1719	916.5541	968.7052	1020.2127	1033.2588	1092.1808	1129.441	1144.7868	1171.2072	1197.8936	1216.047	1237.9676	1251.4128	1339.434	1398.9127	1413.5384	1475.6418	1483.924	1488.4692	1496.749	1500.1849	2343.4602	3043.4535	3049.7225	3085.5862	3112.3106	3120.0381	3121.329	3131.32	3154.4599	3165.2375
CC12CC(O1)C2(C)C#N	C[C@@]12C[C@@H](O1)[C@]2(C)C#N	
InChI=1S/C7H9NO/c1-6(4-8)5-3-7(6,2)9-5/h5H,3H2,1-2H3	InChI=1S/C7H9NO/c1-6(4-8)5-3-7(6,2)9-5/h5H,3H2,1-2H3/t5-,6+,7+/m1/s1
