17
gdb 47408	2.76524	1.51965	1.17678	2.0547	67.91	-0.2501	-0.039	0.2111	1053.6864	0.136154	-458.951523	-458.943662	-458.942718	-458.984621	28.748	
O	-0.1295968261	 0.083817775	-0.3720099097	-0.305179
C	-0.082978784	 1.253226462	-0.096006568	 0.304631
C	-1.2577749425	 2.1654473501	 0.2643010172	-0.18542
O	-0.6818275756	 3.3922354363	 0.6677979659	-0.249415
C	 0.5666550545	 3.5294274022	-0.0151401801	-0.176247
C	 1.1662342044	 2.1281363409	-0.0506949922	 0.156857
C	 2.1996752614	 1.7373027241	 1.0466365174	-0.104713
O	 3.227377328	 1.5215028008	 0.0672470282	-0.266718
C	 2.3144197509	 1.7804923221	-1.01631485	-0.125619
H	-1.9032673336	 2.2789645784	-0.6233960652	 0.123936
H	-1.8635857484	 1.7559766511	 1.0774621595	 0.144728
H	 0.4112206295	 3.9068003766	-1.040119035	 0.098952
H	 1.1660327113	 4.2587205227	 0.5345796224	 0.125215
H	 2.4492594128	 2.5401069443	 1.7513768332	 0.110566
H	 1.9612054951	 0.8211874003	 1.6004070334	 0.118815
H	 2.1288198686	 0.8850486342	-1.6213580286	 0.12386
H	 2.6545506536	 2.6025015089	-1.6585783283	 0.105751
71.8467	84.7347	186.7651	205.4509	272.1624	349.6822	407.5767	546.2495	568.2023	646.0418	701.2649	830.8836	865.8836	922.8069	947.824	956.9559	984.6733	1020.9076	1051.0839	1068.9895	1096.3096	1130.0159	1158.2608	1167.2034	1205.0253	1239.8264	1256.0327	1266.0378	1313.0037	1325.0777	1373.6123	1390.2853	1475.4146	1501.702	1511.5816	1527.7855	1854.545	2962.2668	2970.5213	3008.5489	3019.0533	3063.009	3066.5249	3092.5363	3100.434
O=C1COCC11COC1	O=C1COCC21COC2	
InChI=1S/C6H8O3/c7-5-1-8-2-6(5)3-9-4-6/h1-4H2	InChI=1S/C6H8O3/c7-5-1-8-2-6(5)3-9-4-6/h1-4H2
