18
gdb 64155	3.68889	1.0367	0.98616	3.4525	75.89	-0.2632	-0.0715	0.1916	1271.2604	0.146044	-439.116365	-439.107277	-439.106333	-439.150823	32.8	
C	-0.1296601879	 1.4720141152	 0.1468638244	-0.415854
C	-0.0955412989	-0.0516041271	-0.0284878479	 0.263154
C	-1.4889832386	-0.5938223001	-0.369939281	-0.416055
C	 0.985011941	-0.5035250202	-1.0629402212	-0.147008
O	 1.9185145776	-1.3013908746	-0.2991580087	-0.243031
C	 1.4392714139	-1.3034801569	 0.9617220949	 0.306146
C	 2.2002525092	-2.0602095072	 1.9990889872	 0.099306
O	 3.2144257413	-2.6697902635	 1.7839602981	-0.236413
N	 0.3680347147	-0.6721386194	 1.2351228348	-0.309861
H	 0.8605113571	 1.8563009153	 0.4089135184	 0.122595
H	-0.4534506534	 1.9573648186	-0.7802012464	 0.117276
H	-0.824795149	 1.7478119361	 0.944074522	 0.13258
H	-1.8481862186	-0.1625089287	-1.3105255477	 0.117281
H	-1.468369552	-1.6824541876	-0.4761636486	 0.12253
H	-2.1997553249	-0.3414219504	 0.421247257	 0.132583
H	 0.5803540428	-1.1285805407	-1.8641512284	 0.121223
H	 1.5349989036	 0.3319668974	-1.5053317563	 0.121351
H	 1.7225058822	-1.9970104362	 2.9958040995	 0.112197
36.1772	105.7626	182.5085	198.7464	218.2171	255.8234	312.0752	332.8423	375.3824	450.1283	509.8729	622.272	648.9941	756.7171	830.343	883.8197	930.5386	944.8229	965.5587	997.214	1025.7184	1026.7648	1035.2981	1197.4778	1198.2579	1224.6035	1263.8127	1327.4059	1387.8841	1394.8781	1398.395	1423.5787	1477.2709	1485.1063	1495.8451	1504.4858	1521.1541	1694.7802	1823.0721	2956.8526	3034.5537	3038.053	3051.8448	3098.5282	3106.1138	3109.5408	3121.6374	3125.3905
CC1(C)COC(C=O)=N1	CC1(C)COC(=N1)C=O	
InChI=1S/C6H9NO2/c1-6(2)4-9-5(3-8)7-6/h3H,4H2,1-2H3	InChI=1S/C6H9NO2/c1-6(2)4-9-5(3-8)7-6/h3H,4H2,1-2H3
