17
gdb 23114	2.02146	1.50882	0.93356	3.6661	72.58	-0.2319	-0.0258	0.2061	1223.2537	0.135458	-455.10577	-455.096936	-455.095992	-455.140448	31.767	
O	 0.0030870769	 1.1946959555	-0.0617429672	-0.386884
N	 0.0104150225	-0.1997841738	-0.2012153424	-0.20124
C	-1.1310262701	-0.6985984092	 0.0507110405	 0.369287
C	-2.4173791352	-0.0076993003	 0.4285923108	-0.313725
C	-3.4707214119	-1.1010855597	 0.1577146236	-0.18495
N	-2.7892640788	-2.3996642224	 0.3209429001	-0.304812
C	-1.370602629	-2.2083503727	-0.0216817937	-0.165056
C	-1.1110405491	-2.7478853475	-1.4285022422	 0.200052
O	-0.1335467468	-3.3672721724	-1.7484149981	-0.245562
H	 0.9084419268	 1.4281698239	-0.2952723807	 0.311111
H	-2.3867595626	 0.2666581309	 1.4908570314	 0.127879
H	-2.562825362	 0.9149575201	-0.1382257958	 0.136717
H	-4.3394969002	-1.045851109	 0.8172866399	 0.113636
H	-3.8402042066	-1.0150517262	-0.8711752024	 0.119212
H	-2.8637613682	-2.712919257	 1.2807002068	 0.232577
H	-0.7094323349	-2.7525387644	 0.6579010599	 0.114007
H	-1.9340491008	-2.5303901257	-2.1460205308	 0.077749
44.4303	62.9371	150.0249	172.8006	232.0521	300.615	368.0711	429.7079	436.9071	501.6161	519.8717	644.9184	722.8394	755.8834	845.3722	858.9355	932.6911	952.792	988.6933	1016.2595	1046.5103	1069.3254	1117.3525	1178.5324	1200.9408	1229.6729	1245.7875	1284.108	1329.4646	1367.2614	1401.3596	1418.4526	1456.4331	1468.1117	1509.2582	1749.4779	1840.3649	2880.2101	3030.4228	3037.3543	3081.6641	3103.268	3109.7746	3554.9437	3811.7707
ON=C1CCNC1C=O	ON=C1CCN[C@H]1C=O	
InChI=1S/C5H8N2O2/c8-3-5-4(7-9)1-2-6-5/h3,5-6,9H,1-2H2	InChI=1S/C5H8N2O2/c8-3-5-4(7-9)1-2-6-5/h3,5-6,9H,1-2H2/t5-/m0/s1
