20
gdb 57960	3.71142	0.90233	0.78729	4.0081	76.84	-0.2535	0.0201	0.2736	1495.1718	0.16907	-440.276063	-440.266323	-440.265379	-440.311383	35.817	
C	-0.0277998942	 1.0083205819	-0.7502339601	-0.39072
C	-0.0451017592	-0.0641932704	 0.3477274309	 0.090266
O	 0.3812243657	 0.4747524413	 1.5736513742	-0.442365
C	-1.426437459	-0.6786185018	 0.4972060295	 0.389803
N	-2.0632016266	-0.5364266428	 1.5830183108	-0.558889
O	-1.8013115636	-1.3304828567	-0.6320344302	-0.2412
C	-3.0913101729	-1.8943848263	-0.6595202457	 0.110901
C	-3.2547227594	-3.0807424792	-1.5498237644	-0.290031
C	-3.302664985	-3.2522524687	-0.0457340913	-0.285261
H	 0.9762840152	 1.4342889692	-0.8175383788	 0.127192
H	-0.3008226252	 0.5849656091	-1.7202958525	 0.120028
H	-0.725705148	 1.8131583532	-0.5000185487	 0.120725
H	 0.6334951897	-0.8791974519	 0.047965988	 0.089381
H	-0.3716951015	 0.3706246911	 2.177647531	 0.29302
H	-2.9701490001	-0.9963392912	 1.5934514177	 0.230401
H	-3.8862870183	-1.1550805181	-0.6047674161	 0.112668
H	-4.1726392084	-3.1698239821	-2.1188066945	 0.125903
H	-2.3637781584	-3.4270208921	-2.0604177997	 0.136186
H	-2.4441018576	-3.7138494854	 0.4278970412	 0.136821
H	-4.2542617333	-3.461535279	 0.4302056088	 0.125172
52.9977	75.3017	93.1486	150.3385	225.8854	241.8451	338.3527	356.2449	398.3177	418.0709	424.3337	494.6206	638.5225	712.8056	757.5958	813.2077	832.3417	843.7026	864.0679	935.5366	972.4841	991.3988	1055.9084	1062.4054	1076.776	1091.8382	1106.3423	1130.9709	1164.9159	1187.0746	1194.6488	1236.4438	1270.399	1339.7802	1362.0163	1390.742	1404.7184	1455.367	1456.3866	1491.6803	1496.0706	1502.2077	1733.3275	2975.8558	3044.9087	3122.3704	3131.4104	3138.4371	3142.1513	3148.2582	3226.9437	3241.021	3526.2982	3674.1846
CC(O)C(=N)OC1CC1	C[C@@H](O)[C]([NH])OC1CC1	
InChI=1S/C6H11NO2/c1-4(8)6(7)9-5-2-3-5/h4-5,7-8H,2-3H2,1H3	InChI=1S/C6H11NO2/c1-4(8)6(7)9-5-2-3-5/h4-5,7-8H,2-3H2,1H3/t4-/m1/s1
