15
gdb 67758	2.56295	2.08624	1.60711	2.6349	68.23	-0.234	-0.0383	0.1958	867.4818	0.112736	-416.779613	-416.772604	-416.77166	-416.810814	27.342	
C	-0.0372996937	 1.5516332857	 0.0191051629	-0.491684
C	-0.0144442014	 0.0480790701	 0.089558693	 0.159935
N	-1.3400626671	-0.607340161	-0.0264251426	-0.205999
C	-1.1885550264	-1.7586502165	 0.4787122688	 0.031765
N	 0.0938734426	-2.0565658802	 1.0889113582	-0.146091
C	 1.2544149055	-1.7604811743	 0.18325384	-0.179725
C	 0.7419622449	-0.7595224493	 1.2035855037	-0.09267
C	 0.9210094275	-0.7472037507	-0.8777492514	 0.432506
O	 1.4078064209	-0.4815067731	-1.9385187801	-0.322126
H	 0.9696643197	 1.9636287321	 0.1305685022	 0.127551
H	-0.4309114292	 1.8711657482	-0.9489292669	 0.152582
H	-0.6771281939	 1.9658320108	 0.8039310993	 0.130806
H	-1.9513444902	-2.5285344454	 0.507179452	 0.145248
H	 2.0861857033	-2.452252582	 0.2117388646	 0.13126
H	 1.2108669976	-0.4270467446	 2.1217609361	 0.126642
149.1445	166.5813	218.4033	303.5074	360.7615	435.5438	538.6897	618.3773	660.7051	710.1051	729.2964	818.06	831.8277	845.4692	873.2045	898.058	926.9844	946.3271	957.3431	1003.2104	1096.0269	1125.0424	1142.7287	1173.171	1218.4705	1253.5187	1308.4589	1322.8365	1416.5278	1481.7091	1489.2953	1679.7927	1875.0479	3046.8863	3118.4373	3129.4329	3192.9411	3209.5404	3214.0968
CC12N=CN3C(C13)C2=O	C[C@]12[N][CH]N3[C@H]([C@@H]13)C2=O	
InChI=1S/C6H6N2O/c1-6-4-3(5(6)9)8(4)2-7-6/h2-4H,1H3	InChI=1S/C6H6N2O/c1-6-4-3(5(6)9)8(4)2-7-6/h2-4H,1H3/t3-,4+,6+,8?/m1/s1
