16
gdb 106100	3.0576	1.31999	1.18057	3.1706	69.11	-0.2263	-0.0057	0.2205	1070.4891	0.124793	-437.823282	-437.815616	-437.814672	-437.855859	28.991	
O	 0.2108021072	 1.360440807	 0.1289232545	-0.403474
C	 0.0437539622	-0.0311754688	-0.0774019611	-0.205035
C	-1.3893037107	-0.4465189811	-0.0557538558	 0.313632
C	-2.3992830907	-0.7394478663	 0.9947063513	-0.091627
N	-3.4040832516	 0.148680089	 0.395760715	-0.309244
C	-2.6597211896	-0.0122276194	-0.8906869268	-0.20531
C	-2.7520503423	-1.5164430809	-1.254158338	 0.44165
O	-3.0503323853	-2.1167255797	-2.2477185961	-0.335507
C	-2.0329166866	-1.8696959971	 0.0132385168	-0.278735
H	-0.2444125888	 1.5940271228	 0.9450201786	 0.289891
H	 0.4860608657	-0.2411957814	-1.0570874646	 0.129848
H	 0.5997411669	-0.6283197963	 0.6636820744	 0.099073
H	-2.2805045068	-0.8701981792	 2.0644137585	 0.111563
H	-4.3449589215	-0.2513380344	 0.3593480182	 0.219959
H	-2.7371100832	 0.7757187779	-1.6353759688	 0.106109
H	-1.5655406649	-2.7973702621	 0.3134674938	 0.117206
81.7045	112.2287	167.0968	267.6673	344.0985	411.7179	425.5173	499.5933	613.737	638.0317	747.6243	764.5894	785.5238	844.7414	898.4402	924.6923	935.5454	986.1329	1010.6091	1048.4318	1059.8536	1083.7822	1094.2359	1136.4605	1156.4911	1179.0535	1213.9075	1247.7714	1300.6937	1350.6643	1366.9951	1418.5355	1453.2656	1496.7705	1878.7263	2974.5422	3070.7939	3162.1785	3179.9104	3223.4691	3410.7988	3811.3767
OCC12C3NC1C(=O)C23	OC[C@@]12[C@H]3N[C@@H]1C(=O)[C@@H]23	
InChI=1S/C6H7NO2/c8-1-6-2-3(9)5(6)7-4(2)6/h2,4-5,7-8H,1H2	InChI=1S/C6H7NO2/c8-1-6-2-3(9)5(6)7-4(2)6/h2,4-5,7-8H,1H2/t2-,4+,5-,6-/m1/s1
