17
gdb 12593	3.34917	1.89322	1.29278	3.302	70.87	-0.2069	0.0028	0.2098	948.1364	0.142115	-363.921414	-363.913254	-363.91231	-363.953734	30.127	
C	-0.0862834748	 1.5646010871	-0.0082998599	-0.393715
C	 0.0353316026	 0.0347028118	 0.0423982919	-0.222527
C	 0.8445559251	-0.4977853887	-1.1591063794	 0.425768
O	 0.6715272791	-0.2681820203	-2.334933027	-0.381162
N	 1.8361477023	-1.2883454844	-0.6154782176	-0.329964
C	 1.7804210889	-1.2825554974	 0.7905229719	-0.125546
C	 0.764075131	-0.5391791792	 1.2429789513	 0.271798
C	 0.3645457877	-0.309213201	 2.6626197846	-0.494444
H	 0.8923027834	 2.0384755117	 0.1166383081	 0.121963
H	-0.4916744962	 1.8671306176	-0.9773320118	 0.142794
H	-0.748035679	 1.9340593923	 0.7801013543	 0.116107
H	-0.9734127312	-0.3965683548	-0.0348866043	 0.113111
H	 2.5468697545	-1.730612587	-1.1738174172	 0.25843
H	 2.5079126064	-1.8523214935	 1.3522824358	 0.122202
H	 1.0355598188	-0.8306227277	 3.3518469555	 0.122556
H	 0.3811770235	 0.7565405235	 2.9235794104	 0.128016
H	-0.6563698619	-0.6627915698	 2.8586759934	 0.124615
84.1933	180.5249	206.691	222.5416	241.8393	273.8995	307.563	471.6046	508.0138	550.3126	574.7729	706.3573	750.2476	807.5585	828.1568	847.8415	1002.1749	1021.0304	1054.3156	1078.7336	1097.9465	1109.0282	1191.4794	1215.0095	1291.8327	1310.353	1354.7714	1399.0045	1405.5428	1421.6144	1477.4088	1492.6546	1497.7632	1500.9194	1714.4172	1831.1753	3007.9973	3012.6436	3041.5392	3055.6793	3101.333	3112.6579	3125.6882	3229.7759	3664.6111
CC1C(=O)NC=C1C	C[C@H]1C(=O)NC=C1C	
InChI=1S/C6H9NO/c1-4-3-7-6(8)5(4)2/h3,5H,1-2H3,(H,7,8)	InChI=1S/C6H9NO/c1-4-3-7-6(8)5(4)2/h3,5H,1-2H3,(H,7,8)/t5-/m1/s1
