18
gdb 81274	2.86078	1.44125	1.22915	2.7573	72.86	-0.2284	0.0293	0.2577	1069.2846	0.148379	-439.087281	-439.079016	-439.078072	-439.120231	31.178	
C	-0.0547265572	 1.3415475878	-0.0118672772	-0.348901
N	-0.0449686356	-0.0767034859	 0.2483788618	-0.059402
C	-1.1930019188	-0.9982490716	 0.1497236566	-0.035143
C	-0.7537226113	-2.1257672642	 1.1204459684	-0.228746
C	 0.3832607561	-2.2793748472	 0.0569935353	-0.213478
C	-0.7306662325	-1.9218553659	-1.0167272672	 0.145045
O	-1.6628853409	-2.928065352	-1.3076281782	-0.440437
C	 1.0586323845	-0.9003823365	 0.1273982863	 0.401212
O	 2.2222885668	-0.5804199631	 0.0414283709	-0.403566
H	 0.9851889994	 1.6757756681	-0.0184074723	 0.16327
H	-0.5066382345	 1.5828026682	-0.9837324462	 0.120661
H	-0.5980255247	 1.8879107894	 0.76719772	 0.12578
H	-2.1657163972	-0.5099646296	 0.1769511519	 0.086677
H	-0.4702796384	-1.8262693358	 2.130936974	 0.106663
H	-1.4363426293	-2.9741576145	 1.1221307801	 0.124214
H	 1.0406865414	-3.1423543403	-0.0201300639	 0.084893
H	-0.3819254399	-1.4092090438	-1.9233485585	 0.080005
H	-1.2480081081	-3.5658193531	-1.8975371017	 0.291251
69.9394	145.2374	177.7512	252.3733	269.9394	307.5807	325.805	460.6684	468.5301	514.0202	640.3733	734.9667	744.3438	848.8137	876.4703	887.2887	905.3346	967.219	1007.956	1016.5199	1076.9314	1101.9325	1118.4064	1145.2052	1159.062	1177.3278	1211.8774	1237.9449	1241.0865	1259.6409	1277.3418	1312.8234	1410.0808	1424.0758	1452.6279	1487.6002	1489.2025	1519.1849	1839.2683	3005.5205	3015.7509	3063.3047	3085.5817	3132.2481	3137.4071	3151.0686	3162.1378	3815.2051
CN1C2CC(C2O)C1=O	CN1[C@@H]2C[C@@H]([C@H]2O)C1=O	
InChI=1S/C6H9NO2/c1-7-4-2-3(5(4)8)6(7)9/h3-5,8H,2H2,1H3	InChI=1S/C6H9NO2/c1-7-4-2-3(5(4)8)6(7)9/h3-5,8H,2H2,1H3/t3-,4+,5+/m0/s1
