21
gdb 58644	2.15291	1.37744	1.14012	3.1882	77.44	-0.2516	0.0687	0.3202	1210.6505	0.180402	-424.186553	-424.176799	-424.175855	-424.221565	36.482	
C	 0.049461192	 0.8584556171	 1.3102727875	-0.420905
C	-0.245288317	 0.2868167509	-0.0771890207	 0.07658
O	 0.8197937286	-0.5421478231	-0.5326682881	-0.435995
C	-1.5896450731	-0.4426301347	-0.1495253814	 0.412419
C	-2.7911718011	 0.3763407162	-0.3654764524	-0.24296
O	-2.2156600853	-0.3542219472	-1.4446025599	-0.280842
C	-1.6374759185	-1.7892235433	 0.5075783494	-0.078576
C	-2.1206034708	-1.9602278603	 1.9336818762	-0.262675
C	-2.9232166675	-2.5167838773	 0.7883781974	-0.279104
H	 1.0047662378	 1.3906532678	 1.2973818056	 0.12697
H	-0.7318159881	 1.5550349306	 1.628862003	 0.120235
H	 0.1085863947	 0.0601325353	 2.0591224625	 0.119822
H	-0.2996430439	 1.1017948924	-0.8074567808	 0.093953
H	 1.1180105906	-1.0771453976	 0.210070762	 0.280752
H	-3.7670394366	 0.0330223503	-0.0266548456	 0.109528
H	-2.6933160254	 1.4611260322	-0.4268202539	 0.105783
H	-0.8073167873	-2.4215795542	 0.2070973274	 0.091046
H	-1.587761026	-2.6467029627	 2.5826346764	 0.112519
H	-2.5105250817	-1.0827491659	 2.4384348019	 0.113749
H	-3.8616441332	-2.0369015318	 0.5375477637	 0.120217
H	-2.9272321782	-3.5899985245	 0.6355471996	 0.117484
42.6263	68.6908	175.7885	193.6471	242.1787	258.5166	275.1696	288.2288	336.6451	401.5364	474.8798	544.3153	571.3115	654.6679	783.3817	822.5572	844.6629	865.0615	920.8902	933.1393	943.8199	967.4917	1026.8161	1059.4441	1066.6024	1079.7261	1105.6535	1130.0202	1136.2151	1149.3799	1168.3148	1198.6456	1219.2722	1247.5322	1294.5592	1320.7072	1398.0098	1401.1593	1415.8793	1441.079	1471.2391	1491.0512	1496.0124	1506.7245	1534.4374	3032.9161	3052.9245	3073.96	3103.4776	3118.1795	3132.2094	3143.8321	3151.1902	3156.1447	3212.1475	3229.3611	3813.2352
CC(O)C1(CO1)C1CC1	C[C@@H](O)[C@]1(CO1)C1CC1	
InChI=1S/C7H12O2/c1-5(8)7(4-9-7)6-2-3-6/h5-6,8H,2-4H2,1H3	InChI=1S/C7H12O2/c1-5(8)7(4-9-7)6-2-3-6/h5-6,8H,2-4H2,1H3/t5-,7-/m1/s1
