15
gdb 34923	2.99658	1.64568	1.31929	6.3356	68.	-0.2611	0.0356	0.2967	951.9762	0.114464	-416.767633	-416.7608	-416.759855	-416.799049	26.579	
N	 0.0313302385	-1.1648072745	 0.0023561996	-0.325464
C	 0.0211370505	-0.0098128535	 0.0226322668	 0.301104
C	-0.0172274906	 1.451082256	 0.0184825835	-0.193947
C	-0.7235916957	 2.0657483768	 1.2430880864	-0.062496
N	-0.0804171053	 1.7934070524	 2.5287509415	-0.294384
C	 0.1766267505	 3.0801229448	 1.8568120669	-0.082615
C	 1.470623196	 3.0980538554	 1.0651562835	 0.045226
O	 2.2017888055	 1.8717698822	 1.0996176111	-0.212199
C	 1.3742998037	 2.1132820458	-0.0261159862	 0.017105
H	-0.5595951122	 1.7692652038	-0.8810225265	 0.130067
H	-1.8007891082	 2.1857243154	 1.1965364835	 0.108721
H	-0.755069075	 1.9222017005	 3.2789735158	 0.243034
H	-0.1972801411	 4.0042006322	 2.2826313073	 0.10066
H	 2.0622789529	 4.0063579353	 1.0008294265	 0.109244
H	 1.8820559007	 2.1948124576	-0.9841318798	 0.115945
109.3272	135.4139	294.269	319.2174	395.8655	505.3192	549.8673	587.0702	702.8366	750.2722	788.5878	844.1626	865.1013	878.3119	879.8649	910.9561	971.2935	989.6469	1032.2379	1062.6412	1082.2671	1103.856	1145.9713	1164.8766	1219.465	1261.3434	1276.779	1311.1659	1316.4185	1373.2085	1421.46	1429.6924	2363.8186	3039.5435	3143.4447	3162.0475	3165.6126	3184.4072	3506.2282
N#CC1C2NC2C2OC12	N#C[C@H]1[C@H]2N[C@H]2[C@H]2O[C@@H]12	
InChI=1S/C6H6N2O/c7-1-2-3-4(8-3)6-5(2)9-6/h2-6,8H	InChI=1S/C6H6N2O/c7-1-2-3-4(8-3)6-5(2)9-6/h2-6,8H/t2-,3+,4+,5-,6+/m0/s1
