21
gdb 94941	2.64544	1.30118	1.13344	0.513	78.32	-0.2247	0.0745	0.2993	1200.0792	0.181414	-424.214198	-424.205004	-424.20406	-424.247564	35.497	
C	 0.0896780558	 1.569413306	-0.0055663733	-0.415707
C	 0.0124800803	 0.0413236372	 0.0090986768	-0.018345
C	 0.7784226756	-0.6212543916	-1.1614060341	-0.074054
O	 1.2652334719	-1.8763426055	-0.67804517	-0.260962
C	 1.5247151609	-1.737683671	 0.6968445752	-0.000951
C	 0.7002333719	-0.5871930111	 1.2257584648	-0.115597
C	 0.3724656272	-2.0059679009	 1.6414007774	 0.344203
C	-0.8654982094	-2.747236327	 1.2011449722	-0.453893
O	 0.7469079425	-2.2272702703	 2.9801074175	-0.468072
H	 1.1281722982	 1.9102832681	 0.0722658309	 0.119504
H	-0.3278742335	 1.9775198782	-0.9320634474	 0.115113
H	-0.4705120682	 2.0006816823	 0.8295505782	 0.122073
H	-1.0418082101	-0.255231473	-0.0332670555	 0.080637
H	 0.1575638031	-0.8208095855	-2.0397246714	 0.106082
H	 1.6216909491	 0.0178354361	-1.4697652109	 0.089356
H	 2.546697902	-1.9357462628	 1.0086044562	 0.0924
H	 1.0859612946	 0.0588437148	 2.0060546851	 0.096865
H	-1.0359560627	-2.6438167244	 0.128533315	 0.133139
H	-0.7498941577	-3.8181892689	 1.4088360237	 0.106446
H	-1.7486703947	-2.3941487112	 1.7431722131	 0.121747
H	 0.9924573732	-3.1559217994	 3.0647832166	 0.280017
110.2968	151.1993	179.2735	221.5253	240.7114	251.1107	301.1646	348.0448	387.2181	404.9825	487.0363	494.407	601.4413	707.524	737.0174	853.8039	875.1728	891.7471	944.4749	961.9456	972.4367	997.6087	1042.708	1064.7855	1070.4212	1092.6341	1131.4122	1153.0381	1157.6053	1195.7898	1240.7364	1264.9256	1288.4668	1311.2084	1324.4915	1342.6779	1394.9835	1411.4408	1412.9946	1425.7154	1489.7953	1496.5099	1497.338	1500.3963	1514.766	2973.3169	3028.0523	3030.2098	3032.4643	3084.7562	3088.3183	3097.9325	3106.3395	3138.4771	3142.598	3177.6315	3786.5727
CC1COC2C1C2(C)O	C[C@H]1CO[C@H]2[C@@H]1[C@]2(C)O	
InChI=1S/C7H12O2/c1-4-3-9-6-5(4)7(6,2)8/h4-6,8H,3H2,1-2H3	InChI=1S/C7H12O2/c1-4-3-9-6-5(4)7(6,2)8/h4-6,8H,3H2,1-2H3/t4-,5+,6-,7-/m0/s1
