25
gdb 122027	5.14334	0.51138	0.48228	0.0712	88.17	-0.2502	0.0854	0.3356	2354.3789	0.225889	-426.609179	-426.597242	-426.596298	-426.647485	41.05	
C	-0.131460093	 1.3440555942	 0.0640666265	-0.22673
O	-0.0842293684	-0.0585594356	-0.0181195005	-0.230148
C	 0.6876151724	-0.5195926388	-1.1073038094	-0.061789
C	 0.6936172427	-2.043018743	-1.0747360058	-0.201959
C	 1.3962537372	-2.6968876726	-2.2757691961	 0.001296
C	 2.8948742016	-2.3712888269	-2.3508569013	-0.391846
C	 1.1735970416	-4.2098806054	-2.2349639016	-0.053816
O	 1.6945289282	-4.7888312187	-3.4124697919	-0.234475
C	 1.5617310862	-6.188178905	-3.4420333107	-0.227265
H	 0.8713669132	 1.7816791187	 0.196490986	 0.101216
H	-0.5818604526	 1.7935398321	-0.8358499866	 0.101147
H	-0.7451980768	 1.6024267468	 0.9307396836	 0.124891
H	 0.2601958883	-0.1585601137	-2.0600516875	 0.082312
H	 1.7111430502	-0.115436145	-1.0415569987	 0.086947
H	 1.1652708177	-2.3709032089	-0.1393438829	 0.101947
H	-0.3507812899	-2.3752677064	-1.0305452682	 0.10313
H	 0.9176664066	-2.3366343835	-3.19734438	 0.081298
H	 3.3614640648	-2.933821466	-3.1624342436	 0.132794
H	 3.0731224909	-1.3068645708	-2.5281645689	 0.1111
H	 3.3991891346	-2.6435900188	-1.4153010407	 0.107521
H	 1.6668949037	-4.6425396637	-1.3454283516	 0.080556
H	 0.0964619745	-4.4335729262	-2.1472797598	 0.081834
H	 0.5062031947	-6.5007579318	-3.3917484191	 0.102268
H	 1.9880993807	-6.5394121712	-4.3850733093	 0.125227
H	 2.0986394609	-6.6688461498	-2.608386952	 0.102543
50.3506	74.4616	84.6587	99.926	118.3943	137.1006	207.2242	230.3087	237.1952	252.018	290.4657	307.1995	365.6883	421.9466	504.1546	549.0683	796.7375	860.8159	930.8632	951.5206	984.3935	989.8139	1000.1665	1066.1808	1129.3933	1157.5252	1167.6423	1170.5986	1172.9131	1186.8156	1198.6554	1219.8454	1235.4799	1246.5876	1276.4555	1295.548	1317.1877	1361.7014	1380.5298	1404.6209	1424.6163	1430.9081	1480.3086	1482.578	1485.6717	1485.9144	1489.7443	1496.1611	1503.6571	1505.3824	1510.5094	1527.5637	1533.931	2937.3397	2942.7519	2965.8063	2966.8675	2970.2588	2980.6327	3006.7549	3008.9333	3011.6758	3024.3278	3032.1384	3067.2708	3099.7093	3110.3996	3110.8255	3129.0769
COCCC(C)COC	COCC[C@@H](C)COC	
InChI=1S/C7H16O2/c1-7(6-9-3)4-5-8-2/h7H,4-6H2,1-3H3	InChI=1S/C7H16O2/c1-7(6-9-3)4-5-8-2/h7H,4-6H2,1-3H3/t7-/m1/s1
