21
gdb 74772	3.07511	1.31221	1.28851	0.2233	88.49	-0.2052	0.0099	0.2151	1146.1422	0.183746	-349.963355	-349.955201	-349.954257	-349.995564	32.839	
C	-0.0445170621	 1.5010704468	 0.0314761493	-0.511165
C	-0.0477790939	 0.0119220277	-0.0314559608	 0.365722
C	-0.0466131017	-0.8076363975	-1.085477494	-0.201992
C	 0.0426383325	-2.2503772382	-0.5526190277	-0.149992
C	-0.8378807191	-2.0800035486	 0.7196661916	-0.197272
C	 0.0362783771	-0.8945671815	 1.223290215	-0.149992
C	 1.407874045	-1.5954901918	 1.1944036671	-0.201991
C	 1.4237281304	-2.4065518391	 0.1339473871	 0.365721
C	 2.5172522881	-3.2612244736	-0.4094437254	-0.511166
H	 0.8697401219	 1.8736952851	 0.5133882197	 0.124514
H	-0.1062462946	 1.9479833835	-0.9650422031	 0.121879
H	-0.8844435616	 1.8808439921	 0.6275705075	 0.122503
H	-0.043250525	-0.5375583457	-2.1337198208	 0.087913
H	-0.2242084248	-3.0389473827	-1.2576431913	 0.051104
H	-1.8699197369	-1.7963626723	 0.4934676198	 0.088151
H	-0.8131677216	-2.9463718162	 1.3871380688	 0.088152
H	-0.2395126833	-0.4199044411	 2.1660222959	 0.051104
H	 2.2152229626	-1.3965834979	 1.8875049099	 0.087913
H	 3.4087475638	-3.2281324691	 0.2235898357	 0.121879
H	 2.2024657457	-4.3089810775	-0.4997115417	 0.122502
H	 2.8066462178	-2.9375519222	-1.4186225426	 0.124514
125.2206	183.1113	189.8988	212.3191	285.421	306.7984	455.6994	502.0283	511.5858	567.9889	605.5179	673.5925	761.8223	793.5311	804.8474	876.7528	882.4322	888.1131	916.0012	940.0416	950.866	1006.5642	1012.5728	1042.6056	1064.9062	1065.1134	1110.6924	1129.8224	1189.9513	1211.9353	1237.0758	1242.7004	1260.6426	1268.0787	1299.1866	1324.3027	1412.3039	1412.4791	1478.1778	1478.2872	1486.2213	1487.0485	1494.8305	1685.5907	1709.15	3008.353	3009.0131	3047.578	3052.5623	3052.7978	3102.1933	3102.9027	3103.5788	3105.1744	3107.2994	3209.5277	3210.4578
CC1=CC2CC1C=C2C	CC1=C[C@@H]2C[C@H]1C=C2C	
InChI=1S/C9H12/c1-6-3-9-5-8(6)4-7(9)2/h3-4,8-9H,5H2,1-2H3	InChI=1S/C9H12/c1-6-3-9-5-8(6)4-7(9)2/h3-4,8-9H,5H2,1-2H3/t8-,9-/m1/s1
