19
gdb 71406	3.92172	1.30913	1.28814	1.6302	79.82	-0.2238	0.0855	0.3093	1080.065	0.158601	-385.808403	-385.80074	-385.799796	-385.840101	31.07	
C	-0.0470859882	 1.404182298	-0.047717691	-0.506339
C	 0.0284126682	-0.0829086774	 0.0042962109	 0.479036
O	-0.4763220252	-0.844572202	-1.1011248555	-0.325361
C	-0.3693453958	-2.0162430456	-0.2398381254	-0.058788
C	-0.3227653468	-1.0971025179	 1.0390876395	-0.185473
C	 1.1534117811	-0.9201985933	 0.6625209895	-0.290385
C	 1.1434001374	-2.221769716	-0.106556969	 0.460007
C	 1.8263250829	-3.4983887156	 0.2680859876	-0.342677
C	 2.1051236139	-2.8291975572	-1.0707308806	-0.333337
H	 0.5604272873	 1.7936357494	-0.871504442	 0.134074
H	-1.0792559875	 1.7377026261	-0.1941760871	 0.131504
H	 0.3270323845	 1.8358427557	 0.8854537264	 0.125092
H	-1.0667122847	-2.8137804044	-0.489834973	 0.081295
H	-0.8502208422	-1.0740850024	 1.9827069877	 0.09731
H	 1.9484683746	-0.4796148726	 1.2514239409	 0.086466
H	 2.6022435737	-3.4687067465	 1.0264279151	 0.111355
H	 1.2464707703	-4.4166564222	 0.2656040339	 0.110211
H	 1.7106989195	-3.2958018899	-1.9677991297	 0.114481
H	 3.069688067	-2.3505230262	-1.2067525783	 0.11153
136.7051	195.4946	210.1258	237.6969	311.5097	328.3031	463.5158	576.9984	615.0985	646.8505	751.5513	773.9862	785.2773	802.1279	863.9093	888.9956	894.1295	923.1188	929.2756	956.4631	964.0956	983.2975	1042.8368	1048.9409	1065.4011	1076.3923	1101.96	1128.368	1149.0735	1175.6068	1181.6576	1205.3302	1258.5552	1283.0568	1393.941	1414.1136	1456.0137	1463.9861	1473.9536	1501.1228	1513.0895	3035.6525	3101.9613	3113.8717	3119.3421	3126.5507	3138.4686	3191.5376	3197.3969	3207.8075	3213.0731
CC12OC3C1C2C31CC1	C[C@]12O[C@@H]3[C@H]1[C@H]2C13CC1	
InChI=1S/C8H10O/c1-7-4-5(7)8(2-3-8)6(4)9-7/h4-6H,2-3H2,1H3	InChI=1S/C8H10O/c1-7-4-5(7)8(2-3-8)6(4)9-7/h4-6H,2-3H2,1H3/t4-,5-,6-,7+/m1/s1
