14
gdb 125447	3.06525	1.49659	1.01302	4.4188	68.49	-0.2426	-0.0888	0.1538	1096.2058	0.100301	-470.016831	-470.008731	-470.007787	-470.049545	29.906	
C	 0.0651398121	 1.4438077875	-0.0104498458	-0.470338
C	 0.0504627751	-0.0479020015	-0.0266676014	 0.196456
N	 0.0692340162	-0.7057769002	-1.1308454438	-0.31389
C	 0.03605057	-2.0929782866	-1.0310764763	 0.45666
N	 0.151713861	-2.7390109814	-2.2350091667	-0.548082
N	-0.0661139018	-2.8100173191	 0.0462756667	-0.17788
O	-0.0599738699	-2.0851895849	 1.2529545718	-0.241768
C	 0.0101838658	-0.7331406918	 1.295384362	 0.414684
O	 0.0260050014	-0.1570813092	 2.3535138741	-0.328559
H	 0.9292991684	 1.8011007613	 0.5592334098	 0.164781
H	 0.0949080799	 1.8332120305	-1.0279239637	 0.144234
H	-0.8180806373	 1.8211395613	 0.5156986639	 0.162546
H	-0.1640175456	-2.2098515647	-3.0323108918	 0.269507
H	-0.0820145353	-3.7199303312	-2.2335876389	 0.271649
81.9054	136.731	202.1404	275.183	293.1595	346.906	387.1127	432.6011	499.2916	519.1725	538.1679	587.1864	669.43	691.6627	796.0003	814.1702	936.1837	986.2575	1044.3516	1070.521	1116.6596	1176.7487	1320.912	1403.3184	1429.0592	1456.7553	1461.4824	1589.4891	1638.8073	1696.3109	1817.5508	3048.0403	3103.3668	3162.1772	3589.2116	3709.0562
CC1=NC(N)=NOC1=O	Cc1nc(N)noc1=O	
InChI=1S/C4H5N3O2/c1-2-3(8)9-7-4(5)6-2/h1H3,(H2,5,7)	InChI=1S/C4H5N3O2/c1-2-3(8)9-7-4(5)6-2/h1H3,(H2,5,7)
