14
gdb 123668	4.09799	1.62984	1.27699	5.4907	67.2	-0.2358	-0.0306	0.2052	921.0462	0.103684	-432.802006	-432.795915	-432.79497	-432.832289	24.868	
C	 0.0061612456	 1.4834951332	 0.1050035589	-0.30197
C	 1.3113050923	 0.7404353013	 0.0037224007	-0.004467
N	 2.0448605314	 0.3953553695	 1.2177463167	-0.395483
C	 1.2102253569	-0.3811252145	 1.995387863	 0.372614
N	 1.2329788857	-0.9253484908	 3.1727728209	-0.235509
O	 0.0391984849	-1.6706585558	 3.1992227846	-0.175809
N	-0.6859312939	-1.5339245641	 2.0293405572	-0.210358
C	 0.0217860931	-0.7361761081	 1.2967006821	 0.356441
C	-0.0096763969	-0.0390241435	-0.0039068633	-0.181693
H	-0.2734596563	 1.9322787548	 1.0517917677	 0.136325
H	-0.3209498205	 2.0274391308	-0.7740165338	 0.132981
H	 1.918166967	 0.8333510505	-0.8890522008	 0.118497
H	 2.6184412722	 1.1025773748	 1.6535499818	 0.262198
H	-0.3995491215	-0.5102546781	-0.8959181557	 0.126233
180.0616	263.9029	389.6683	443.2009	479.7145	510.3366	579.8078	651.3471	701.4457	776.1285	800.4131	812.4277	823.4532	841.2377	875.3764	951.9699	986.4956	1035.4769	1050.0352	1063.3307	1093.9302	1128.3155	1190.6538	1228.536	1317.599	1349.9188	1383.425	1449.8135	1473.9528	1611.9028	1696.1034	3138.0596	3182.8847	3208.4438	3231.0868	3611.5623
C1C2NC3=NON=C3C12	C1[C@H]2Nc3nonc3[C@@H]12	
InChI=1S/C5H5N3O/c1-2-3(1)6-5-4(2)7-9-8-5/h2-3H,1H2,(H,6,8)	InChI=1S/C5H5N3O/c1-2-3(1)6-5-4(2)7-9-8-5/h2-3H,1H2,(H,6,8)/t2-,3+/m0/s1
