16
gdb 15095	8.28942	0.74985	0.71004	1.2528	86.75	-0.24	-0.0092	0.2308	1549.0017	0.128913	-309.402657	-309.394251	-309.393307	-309.436071	30.668	
C	 0.0629901502	-3.6984054575	-0.2788732379	-0.553866
C	 0.0446174259	-2.4983706449	-0.143911317	 0.293522
C	 0.0231946069	-1.1462307639	 0.0080835261	-0.267284
C	 0.0035247892	 0.0565158581	 0.1421878089	 0.40707
C	-0.0000323338	 1.5039564998	 0.3094864732	-0.41496
C	 1.3861574661	 2.1250580951	 0.1922965325	 0.042156
C	 1.9443484164	 2.4781471333	-1.1596745419	-0.246355
C	 1.5227441292	 3.5711454852	-0.2065666937	-0.277745
H	 0.0795925524	-4.7531277504	-0.3973957397	 0.188437
H	-0.6637237131	 1.9541060479	-0.4414719593	 0.132003
H	-0.4377145843	 1.7531163801	 1.2860907113	 0.13788
H	 2.0955381332	 1.7526744606	 0.9249173972	 0.097578
H	 3.0029240406	 2.3248592832	-1.3357891852	 0.116737
H	 1.3202486282	 2.2944028432	-2.0281428325	 0.116706
H	 0.6165490019	 4.1224082387	-0.4367290414	 0.112315
H	 2.2917084811	 4.1661359716	 0.2731986595	 0.115805
55.9798	79.0114	156.1031	203.1871	321.261	336.3975	356.3759	459.4729	526.8131	531.2893	587.7337	591.87	727.5129	771.9183	800.8298	843.0669	891.4037	953.3131	997.0243	1059.4132	1080.3203	1134.987	1144.9707	1174.1803	1196.9182	1226.8009	1259.8769	1319.5953	1405.0701	1459.5635	1472.134	1507.3655	2181.6523	2364.481	3007.1492	3037.6755	3130.6537	3136.1156	3156.3804	3209.3669	3224.5766	3506.4345
C#CC#CCC1CC1	C#CC#CCC1CC1	
InChI=1S/C8H8/c1-2-3-4-5-8-6-7-8/h1,8H,5-7H2	InChI=1S/C8H8/c1-2-3-4-5-8-6-7-8/h1,8H,5-7H2
