20
gdb 121816	3.36425	0.74621	0.70304	3.8788	76.87	-0.2642	0.0168	0.281	1674.1117	0.167476	-440.285245	-440.27434	-440.273395	-440.321777	38.178	
C	 0.0949707753	 1.3646620414	-0.1253450071	-0.231336
O	 0.0307583005	-0.0405237525	-0.0594762161	-0.232632
C	-1.2874485398	-0.522086269	 0.0797314451	-0.074487
C	-1.206371069	-2.044452767	 0.1542246872	-0.222141
C	-2.5793282433	-2.7490619961	 0.0703985808	 0.178958
C	-3.5347769838	-2.356160502	 1.204850377	-0.400053
O	-3.2589788772	-2.4280285064	-1.1395611116	-0.437787
C	-2.3445325248	-4.2152729949	 0.1217975721	 0.257182
N	-2.1483989786	-5.3541201301	 0.1347804283	-0.334093
H	 1.1464964342	 1.6381528611	-0.2393203656	 0.130767
H	-0.4713711843	 1.7597789591	-0.9834598091	 0.105982
H	-0.297875142	 1.8354025525	 0.7898117171	 0.105576
H	-1.7515701335	-0.1040753704	 0.9879528171	 0.090787
H	-1.9102888078	-0.2168969601	-0.7757315462	 0.101871
H	-0.5814603094	-2.392403591	-0.6767393763	 0.118729
H	-0.6963032754	-2.3471786058	 1.0743739751	 0.127068
H	-3.7799781426	-1.2952212725	 1.1235395644	 0.138934
H	-4.4596510984	-2.9308740624	 1.1271135856	 0.14703
H	-3.0782532794	-2.5472650386	 2.1786562768	 0.135799
H	-2.7130604807	-2.7136846254	-1.8814761045	 0.293844
62.6379	67.9287	103.0637	135.9438	184.1803	194.6347	231.3446	242.6026	288.1935	338.534	362.2611	385.5033	416.9253	483.4462	591.6234	606.5366	755.6452	799.1759	903.7939	961.3228	991.0656	1006.4742	1064.76	1117.8113	1160.8485	1172.212	1180.8803	1199.6809	1232.0338	1244.8085	1302.852	1331.6848	1376.273	1411.3694	1427.3397	1476.6736	1481.9148	1485.5941	1486.6429	1498.3841	1505.4382	1536.7152	2351.4292	2962.9921	2974.9545	3001.6367	3015.8491	3043.1989	3060.8978	3091.5496	3117.6257	3143.124	3144.0615	3799.2288
COCCC(C)(O)C#N	COCC[C@@](C)(O)C#N	
InChI=1S/C6H11NO2/c1-6(8,5-7)3-4-9-2/h8H,3-4H2,1-2H3	InChI=1S/C6H11NO2/c1-6(8,5-7)3-4-9-2/h8H,3-4H2,1-2H3/t6-/m1/s1
