16
gdb 56805	3.10569	1.18902	0.94888	5.4559	70.33	-0.2445	-0.0041	0.2404	1217.9464	0.125573	-434.082839	-434.07435	-434.073406	-434.116772	30.487	
O	 1.1050200306	 1.3817768893	-0.453810825	-0.407242
C	 0.2625687348	 0.3822874871	 0.0375383584	-0.079231
C	-0.0460484457	-0.6329914207	-0.9990379391	 0.265848
N	-0.314524409	-1.4167747067	-1.8036786717	-0.318064
C	 0.8850990317	-0.2866295893	 1.2526856243	 0.370142
N	 2.039806049	 0.0817751087	 1.6531068853	-0.3199
C	 2.3678634452	-0.7718093451	 2.8103540477	-0.165869
C	 1.0458840761	-1.5119860027	 3.1682231703	-0.186876
N	 0.277259962	-1.3162349713	 1.9285233232	-0.344847
H	 1.9326299826	 1.2813103612	 0.0514492673	 0.304461
H	-0.7009564865	 0.8266890799	 0.3356958864	 0.135232
H	 3.154273695	-1.477945687	 2.5185740219	 0.127334
H	 2.7548379162	-0.1714857914	 3.6372495167	 0.123218
H	 1.1925270207	-2.5731855917	 3.382156899	 0.126971
H	 0.5389611389	-1.0516783188	 4.0266003736	 0.114186
H	-0.7278401216	-1.3998024313	 1.9353599316	 0.254637
43.7217	107.1024	158.2662	199.1307	248.1432	282.5386	425.6383	434.5772	446.2221	480.4071	596.817	630.3363	732.0933	817.7462	861.1703	910.16	937.4943	999.6674	1036.8952	1050.7319	1110.8426	1121.6005	1203.9614	1223.5245	1247.1772	1290.3975	1315.5119	1347.7519	1350.4278	1453.4934	1491.2057	1500.3595	1530.5526	1711.9411	2360.1547	2980.3158	3014.5138	3038.3435	3090.1524	3101.6284	3615.3085	3622.2056
OC(C#N)C1=NCCN1	O[C@@H](C#N)[C]1[N]CCN1	
InChI=1S/C5H7N3O/c6-3-4(9)5-7-1-2-8-5/h4,9H,1-2H2,(H,7,8)	InChI=1S/C5H7N3O/c6-3-4(9)5-7-1-2-8-5/h4,9H,1-2H2,(H,7,8)/t4-/m0/s1
