16
gdb 48534	3.12704	1.49984	1.4694	2.6824	74.29	-0.2395	-0.0395	0.2	954.7505	0.125371	-400.709418	-400.702546	-400.701602	-400.740814	27.074	
O	-0.275155959	 0.1580178716	-0.3998410502	-0.264621
C	-0.0207563499	 1.2457778473	 0.0584604467	 0.037788
C	 1.3277768696	 1.8294461016	 0.1025957016	 0.276312
C	 1.8994114164	 2.6854622933	 1.1862782053	-0.104388
C	 3.2679284207	 2.1834699276	 1.4822531091	-0.081114
C	 3.6778854483	 1.388953016	 0.485584207	-0.087642
C	 2.6382699846	 1.3992356281	-0.6070415338	-0.188222
C	 2.617986951	 2.8724976034	-1.152601323	-0.143308
N	 1.5824947257	 3.3018064154	-0.1604356705	-0.195358
H	-0.8066321779	 1.9103905555	 0.4824978691	 0.08188
H	 1.2606117392	 3.1032129798	 1.9555696473	 0.109974
H	 3.8308577927	 2.4844431226	 2.3558087863	 0.110202
H	 4.6609019557	 0.9488020476	 0.3730331106	 0.110809
H	 2.6252852761	 0.5785410581	-1.319165411	 0.100831
H	 3.5556129423	 3.4351002704	-1.123082088	 0.109836
H	 2.1599177844	 2.9413495917	-2.1409045265	 0.127021
93.8542	164.5441	248.7983	364.6045	423.2551	467.9147	554.071	640.7725	688.6759	733.8352	758.2999	784.7697	830.9478	873.0475	899.6178	929.5198	950.4898	965.1095	1010.1522	1033.9769	1057.5579	1094.8668	1124.0127	1167.2367	1174.6644	1209.6736	1245.498	1280.5168	1312.1366	1350.9846	1385.7042	1426.9482	1490.8025	1638.9046	1804.5984	2883.917	3057.3502	3126.647	3156.8025	3189.1071	3205.8612	3231.5724
O=CC12C3C=CC1CN23	O=C[C@@]12[C@H]3C=C[C@@H]1CN23	
InChI=1S/C7H7NO/c9-4-7-5-1-2-6(7)8(7)3-5/h1-2,4-6H,3H2	InChI=1S/C7H7NO/c9-4-7-5-1-2-6(7)8(7)3-5/h1-2,4-6H,3H2/t5-,6-,7+,8?/m1/s1
