17
gdb 99791	2.47773	0.96326	0.85037	4.2922	77.98	-0.2568	0.0063	0.2632	1445.2931	0.133548	-417.977503	-417.966855	-417.965911	-418.014699	36.716	
C	 0.0512041186	 1.4963680089	 0.060954088	-0.502354
C	 0.0244996832	 0.0418247214	 0.0514835686	 0.102766
C	 0.0015694738	-1.1609254144	 0.0673118205	 0.095615
C	-0.0210753757	-2.6219801726	 0.0105789019	-0.139921
N	-1.3832186452	-3.1372479299	 0.2148914148	-0.520152
C	 0.5990904509	-3.1013260212	-1.3476799437	-0.085721
O	 0.5329762422	-4.5035127608	-1.4662521505	-0.416545
C	 0.8440694441	-3.1888003374	 1.0787301227	 0.304027
N	 1.5574979862	-3.6875954757	 1.8386519718	-0.346282
H	 0.9042500941	 1.8662769102	 0.6394084256	 0.162501
H	 0.1335441163	 1.8994493462	-0.9538801857	 0.155229
H	-0.860043946	 1.9028872311	 0.5119677827	 0.160018
H	-2.022712335	-2.5765541736	-0.3402738467	 0.238947
H	-1.4072049721	-4.0867532994	-0.1529321619	 0.247002
H	-0.0124110212	-2.6819404939	-2.1513655337	 0.12269
H	 1.6225074085	-2.71704459	-1.4453233893	 0.118604
H	 1.1849504172	-4.8875687187	-0.8674571249	 0.303576
17.4806	80.3566	94.5349	116.4759	182.1371	221.1954	271.0398	276.0988	312.9672	344.4528	405.6459	446.517	462.9576	510.4511	533.1336	607.2023	720.1499	862.3359	872.64	959.9294	1037.0074	1050.8692	1055.4614	1088.0968	1111.3608	1167.8236	1255.8623	1342.8209	1382.1176	1410.4122	1413.542	1474.7963	1475.4604	1488.6226	1644.2193	2354.2363	2377.6137	3023.592	3033.6142	3097.7411	3099.2974	3102.3945	3474.8578	3571.4698	3789.8294
CC#CC(N)(CO)C#N	CC#C[C@@](N)(CO)C#N	
InChI=1S/C6H8N2O/c1-2-3-6(8,4-7)5-9/h9H,5,8H2,1H3	InChI=1S/C6H8N2O/c1-2-3-6(8,4-7)5-9/h9H,5,8H2,1H3/t6-/m0/s1
