16
gdb 11989	2.74877	2.16613	1.81647	0.8328	59.51	-0.2417	0.0666	0.3083	806.5434	0.128334	-420.830623	-420.822794	-420.821849	-420.862212	30.016	
C	-0.0603037625	 1.5765694267	-0.030725431	-0.45901
C	 0.0067800735	 0.0613945332	-0.0051244118	 0.325735
O	-1.2638555677	-0.5436304254	 0.1517714951	-0.479293
C	 0.7113105949	-0.6466117531	-1.1732823301	 0.012587
O	 2.0791031591	-0.2169901213	-1.1525304215	-0.266142
C	 1.6832141378	-1.2995677948	-0.285123308	-0.027199
C	 1.0964889722	-0.6116820675	 0.95373491	 0.060734
O	 1.9626259407	 0.1975914131	 1.6977875389	-0.43058
H	 0.9037312204	 2.0042690198	-0.3163132884	 0.128388
H	-0.8168037788	 1.907705238	-0.7485875302	 0.124442
H	-0.3194245373	 1.9683785998	 0.9595284156	 0.119826
H	-1.6695886347	-0.1803547631	 0.9465941729	 0.282048
H	 0.2913598762	-0.9712623175	-2.1177986492	 0.111557
H	 2.2256661306	-2.2325040959	-0.3850560874	 0.109197
H	 0.5963852269	-1.2991925294	 1.6403140928	 0.095287
H	 2.5231082786	 0.6552711373	 1.0585612625	 0.292423
124.3909	201.6086	232.1703	257.0377	274.0822	326.7389	367.3634	442.0395	492.9718	546.0263	601.7493	677.0392	790.3767	859.0053	865.5863	898.443	912.9071	957.7464	999.721	1052.7066	1100.0683	1116.6639	1162.0924	1169.2207	1224.1441	1229.697	1261.0536	1285.6346	1374.9105	1393.4276	1404.3531	1423.5417	1483.2796	1497.7298	3035.1317	3091.9286	3103.6561	3126.0194	3183.9137	3201.3324	3781.0244	3803.7349
CC1(O)C2OC2C1O	C[C@@]1(O)[C@H]2O[C@H]2[C@H]1O	
InChI=1S/C5H8O3/c1-5(7)3(6)2-4(5)8-2/h2-4,6-7H,1H3	InChI=1S/C5H8O3/c1-5(7)3(6)2-4(5)8-2/h2-4,6-7H,1H3/t2-,3+,4-,5-/m0/s1
