18
gdb 100620	2.29888	1.12968	0.89732	2.9828	78.26	-0.2769	0.0094	0.2863	1358.6277	0.144446	-401.925236	-401.914926	-401.913982	-401.960777	36.743	
C	 0.0057066277	 1.5804578871	 0.035196564	-0.388033
C	-0.0148353777	 0.050393431	 0.0738024633	-0.20951
C	-1.4298742278	-0.5191921093	-0.0804728508	 0.129157
O	-2.0598724564	-0.112269392	-1.2728047773	-0.421077
C	-1.4424904458	-2.0865299645	 0.0530156827	-0.351857
C	-2.7994823381	-2.6173593156	 0.161048032	 0.328116
C	-3.918232632	-3.0344721878	 0.278906689	-0.405945
C	-0.733362303	-2.6731966823	-1.0953758785	 0.287362
N	-0.1644890922	-3.0717496908	-2.01888316	-0.328714
H	 1.0300095301	 1.957863816	 0.0988904321	 0.118785
H	-0.4421041711	 1.950398922	-0.8904179684	 0.133709
H	-0.561204814	 2.0043046641	 0.8711213956	 0.119097
H	 0.6205870938	-0.3556081585	-0.7247025112	 0.118066
H	 0.410972917	-0.3081298293	 1.0195704165	 0.101406
H	-2.0692415264	-0.1452729038	 0.7263458032	 0.1104
H	-1.5174875497	-0.4025770388	-2.01728675	 0.29616
H	-0.8801260845	-2.3500520665	 0.9588475731	 0.154104
H	-4.9093858601	-3.404961391	 0.3726019846	 0.208773
66.4432	89.0244	123.2755	130.4802	158.6435	217.5726	250.3503	333.9939	353.6656	370.9091	390.5011	438.6731	519.0505	578.897	643.7013	669.1176	722.143	791.3355	820.7038	898.5179	986.0792	999.0293	1017.0906	1077.3467	1112.5318	1132.4622	1227.5801	1270.0448	1275.2097	1337.8225	1356.7403	1386.7563	1409.593	1429.885	1484.9639	1495.3311	1508.4867	2250.796	2357.7169	3018.5754	3026.9381	3041.6634	3051.0226	3069.6098	3108.7228	3127.383	3502.711	3775.4568
CCC(O)C(C#C)C#N	CC[C@@H](O)[C@@H](C#C)C#N	
InChI=1S/C7H9NO/c1-3-6(5-8)7(9)4-2/h1,6-7,9H,4H2,2H3	InChI=1S/C7H9NO/c1-3-6(5-8)7(9)4-2/h1,6-7,9H,4H2,2H3/t6-,7+/m0/s1
