16
gdb 57025	2.50759	1.34402	0.91584	6.2515	68.74	-0.2875	-0.0084	0.279	1217.6344	0.123815	-437.922985	-437.914273	-437.913329	-437.957135	30.669	
C	 0.0463698888	 1.602282274	 0.1215562382	-0.397676
C	 0.0247872132	 0.0619655535	 0.0439828228	-0.171518
C	 0.7178091613	-0.5103479908	 1.2038925912	 0.290708
N	 1.2670230909	-0.9217880545	 2.1331183072	-0.310512
C	-1.410432722	-0.4841274426	-0.0470610209	-0.187106
C	-2.1963348166	-0.2328882138	-1.34896865	-0.109953
O	-2.3038296622	-1.6729882538	-1.5752168722	-0.233646
C	-1.5756942749	-1.9605437757	-0.4462029811	 0.458588
O	-1.2436324621	-3.0239685492	-0.0411906854	-0.302775
H	 1.0733688602	 1.970903669	 0.170051767	 0.14969
H	-0.432757214	 2.0313442671	-0.7628342264	 0.129636
H	-0.4854918953	 1.9521963762	 1.0105090717	 0.144487
H	 0.5741194821	-0.2551774153	-0.8519160836	 0.139462
H	-1.9670638265	-0.2406725933	 0.8615549868	 0.135316
H	-3.182962747	 0.2211518189	-1.2448618404	 0.13594
H	-1.638999236	 0.2419466703	-2.1603822849	 0.129361
59.4636	102.8387	132.4936	200.1716	218.4607	238.9075	300.8625	353.1417	502.5963	536.3575	565.0397	691.2361	762.0147	815.6957	884.6223	924.0955	963.2877	978.8235	1069.6881	1083.7249	1103.8086	1115.1566	1154.4421	1173.1922	1225.955	1270.6751	1326.021	1346.869	1377.7055	1415.0404	1492.4401	1498.2736	1517.9394	1948.0652	2363.6417	3031.1515	3049.8255	3069.7649	3090.5513	3125.2493	3134.3121	3134.7458
CC(C#N)C1COC1=O	C[C@@H](C#N)[C@H]1COC1=O	
InChI=1S/C6H7NO2/c1-4(2-7)5-3-9-6(5)8/h4-5H,3H2,1H3	InChI=1S/C6H7NO2/c1-4(2-7)5-3-9-6(5)8/h4-5H,3H2,1H3/t4-,5+/m0/s1
