16
gdb 23230	2.68302	1.60672	1.15238	2.2219	72.4	-0.2299	0.0141	0.244	1056.4562	0.122683	-437.765582	-437.757662	-437.756718	-437.797859	30.334	
C	 0.0059208579	 1.5040515958	 0.0296882996	-0.512864
C	 0.0077449106	 0.0117488956	-0.0704017658	 0.184481
C	-0.9002676247	-0.9384323476	 0.7465652163	 0.055199
O	-1.0665642724	-2.1601511251	 0.0258731693	-0.290853
C	 0.3589567455	-2.0754486294	-0.2723799797	-0.054579
C	 0.5662591511	-1.060417715	 0.9188485729	-0.18638
C	 0.4473370753	-0.8597623727	-1.1907734323	 0.448313
N	 0.9150083478	-0.5746034465	-2.3307665823	-0.298543
O	 1.3892642048	-1.7339333647	-2.9892940025	-0.400747
H	 0.9842256658	 1.9168688353	-0.2360536377	 0.137836
H	-0.7359759184	 1.9376720477	-0.6487144446	 0.140258
H	-0.2371927689	 1.8307356554	 1.0459269416	 0.121966
H	-1.6920062172	-0.5925244535	 1.3989571563	 0.119538
H	 0.8443064896	-3.0250807834	-0.4692268701	 0.112759
H	 1.2700911846	-0.9784480481	 1.7347370675	 0.118134
H	 1.6955589786	-1.3731566536	-3.8277184587	 0.305481
131.4413	160.1563	185.7484	234.3465	264.8247	308.1393	388.6984	507.3538	545.2117	607.8975	692.8291	740.0461	752.8864	805.7414	823.9483	858.7016	908.8709	933.0522	946.6678	976.5273	1023.8363	1054.0072	1094.3765	1111.6646	1145.0237	1170.2475	1199.786	1264.3785	1317.7031	1381.9695	1415.3683	1444.6901	1481.7913	1496.7993	1798.047	3034.3323	3101.5621	3104.0827	3192.2261	3200.5955	3221.7321	3824.1728
CC12C3OC(C13)C2=NO	C[C@]12[C@H]3O[C@H]([C@@H]13)C2=NO	
InChI=1S/C6H7NO2/c1-6-2-3(4(6)7-8)9-5(2)6/h2-3,5,8H,1H3	InChI=1S/C6H7NO2/c1-6-2-3(4(6)7-8)9-5(2)6/h2-3,5,8H,1H3/t2-,3-,5+,6+/m1/s1
