15
gdb 49859	2.81203	1.49982	1.15688	5.3998	65.67	-0.2437	-0.0363	0.2075	1034.7216	0.113508	-453.958828	-453.951275	-453.950331	-453.991319	28.028	
O	-0.1375344245	-0.0436541749	 0.0835911208	-0.243423
C	-0.0688554302	 1.1468745554	-0.0626620464	 0.18118
C	 1.241004632	 1.9232364327	-0.0518095456	-0.078563
N	 2.4018495685	 1.0617598848	-0.1272515284	-0.322883
C	 3.2487859069	 1.3011789246	-1.1901176993	 0.462316
O	 4.2547167307	 0.6896985871	-1.4579491522	-0.370951
C	 2.6617855546	 2.4835686875	-1.9338962729	-0.164556
N	 1.3453377004	 2.1235270083	-2.5246801948	-0.320536
C	 1.4027522146	 2.8592008917	-1.2516089851	-0.078671
H	-0.9760679231	 1.7798555346	-0.1796904825	 0.085715
H	 1.2388309069	 2.5227408099	 0.875104954	 0.111261
H	 2.3799885359	 0.1490940425	 0.3029286759	 0.266116
H	 3.3155732478	 3.1805895167	-2.4422245257	 0.120633
H	 1.1419515851	 2.7734489516	-3.2813556815	 0.244899
H	 1.0506349346	 3.8814867473	-1.1880018564	 0.107465
90.4997	112.8955	178.8357	230.6885	311.7053	446.9977	478.3349	505.6121	607.1693	682.8324	701.6289	762.956	839.1527	848.6146	883.3555	893.5086	914.5248	994.2097	1038.5722	1068.4393	1125.2049	1126.5114	1168.4895	1247.6986	1250.7926	1303.3766	1344.3042	1364.6446	1395.6228	1422.6515	1426.9213	1839.0197	1845.8627	2891.0552	2958.9066	3188.797	3206.7982	3496.0043	3631.0343
O=CC1NC(=O)C2NC12	O=C[C@H]1NC(=O)[C@H]2N[C@@H]12	
InChI=1S/C5H6N2O2/c8-1-2-3-4(7-3)5(9)6-2/h1-4,7H,(H,6,9)	InChI=1S/C5H6N2O2/c8-1-2-3-4(7-3)5(9)6-2/h1-4,7H,(H,6,9)/t2-,3+,4+/m1/s1
