17
gdb 6038	3.07903	1.53458	1.42002	2.9983	60.41	-0.2389	0.0341	0.273	958.4544	0.139951	-438.170758	-438.161302	-438.160358	-438.2046	34.469	
C	-0.1275006316	 1.6632448841	-0.0663056751	-0.419571
C	 0.0298788165	 0.1368181773	-0.041534858	 0.277391
O	 0.7869024512	-0.2749563686	 1.094697023	-0.492298
C	-1.3369701532	-0.5677168722	 0.0009920326	-0.110188
O	-1.8905561997	-0.2806003774	 1.2839117224	-0.438365
C	 0.743680173	-0.3284908568	-1.3231260472	 0.368105
N	 1.877499841	-1.0372106421	-1.1136266961	-0.523761
O	 0.2823032273	-0.0730506449	-2.422024465	-0.391956
H	 0.8512409562	 2.1358370284	 0.0503818033	 0.121641
H	-0.5624774241	 1.9792387737	-1.0169478668	 0.139208
H	-0.7735904514	 1.9855490431	 0.7541609883	 0.124134
H	 0.1525227149	-0.3290394201	 1.8216861445	 0.290136
H	-1.9702574244	-0.2003723153	-0.8142685155	 0.122307
H	-1.1901974494	-1.6494207922	-0.1260897119	 0.099224
H	-2.646642048	-0.8555537657	 1.4289375936	 0.297988
H	 2.1889536784	-1.2096417209	-0.1729216723	 0.276725
H	 2.3976088834	-1.3718724603	-1.9068437699	 0.259279
49.4192	128.9956	183.733	232.0438	244.3601	264.9016	296.5362	321.8802	351.965	384.535	435.0473	458.3835	525.6669	612.3464	641.7517	741.7019	773.4396	892.6992	945.4214	978.1997	1061.7594	1095.4801	1134.7633	1148.2164	1192.6837	1245.3916	1282.8481	1326.7466	1386.6404	1426.9546	1437.4876	1493.5902	1496.0273	1512.6921	1589.5479	1789.472	3004.3246	3051.3957	3069.0196	3128.3013	3140.9095	3601.3599	3744.1736	3761.7701	3846.8656
CC(O)(CO)C(N)=O	C[C@@](O)(CO)C(=O)N	
InChI=1S/C4H9NO3/c1-4(8,2-6)3(5)7/h6,8H,2H2,1H3,(H2,5,7)	InChI=1S/C4H9NO3/c1-4(8,2-6)3(5)7/h6,8H,2H2,1H3,(H2,5,7)/t4-/m1/s1
