15
gdb 42485	4.66022	0.74918	0.67016	1.7567	70.38	-0.2798	-0.0446	0.2352	1597.952	0.109672	-457.721925	-457.712914	-457.71197	-457.757284	31.105	
O	-0.0243103331	-0.0923874911	 0.2221952529	-0.353718
C	 0.0280730443	 1.1030768616	 0.0734791265	 0.303005
O	 1.1642050249	 1.8220660378	 0.0443565559	-0.235258
C	 2.3761367522	 1.057915562	 0.204439978	-0.093071
C	 3.5206469493	 2.0270294236	 0.2140036045	 0.074343
C	 4.8555272337	 1.6107750654	-0.2320350382	-0.180791
O	 4.0302604417	 2.4335940413	-1.0547286289	-0.222988
C	-1.1265004949	 1.9572960998	-0.0956769108	 0.228729
C	-2.1194163883	 2.6192608638	-0.2330703215	-0.353799
H	 2.3234097811	 0.4944056931	 1.1420870014	 0.132197
H	 2.4729316014	 0.3470860269	-0.6211506095	 0.134627
H	 3.4408667525	 2.8301800798	 0.9467293728	 0.10785
H	 5.7347231301	 2.0935205631	 0.1909407523	 0.123433
H	 5.0121955948	 0.5951378368	-0.5936143754	 0.120975
H	-2.9971131697	 3.206226246	-0.3552911702	 0.214466
40.4393	59.0386	104.7526	154.5884	202.5537	272.5289	300.2708	376.8608	448.3338	562.8433	609.7282	659.5756	700.1123	774.5032	800.5462	870.0213	919.264	952.4159	995.2107	1023.0731	1101.7425	1152.1072	1163.4954	1173.9019	1250.7337	1267.4136	1293.1927	1368.1993	1458.3727	1487.6685	1533.9181	1791.9691	2238.8897	3051.8509	3086.381	3102.2746	3121.1089	3173.9383	3496.7325
O=C(OCC1CO1)C#C	O=C(OC[C@H]1CO1)C#C	
InChI=1S/C6H6O3/c1-2-6(7)9-4-5-3-8-5/h1,5H,3-4H2	InChI=1S/C6H6O3/c1-2-6(7)9-4-5-3-8-5/h1,5H,3-4H2/t5-/m1/s1
