22
gdb 101124	3.40926	1.00327	0.92919	2.217	82.3	-0.2473	0.067	0.3143	1389.5344	0.193752	-404.310152	-404.300542	-404.299598	-404.344774	36.137	
C	-0.1213751809	 1.5915353119	-0.0921796278	-0.383433
C	-0.0959338417	 0.0618835523	-0.1309273017	-0.198955
C	 0.8743259624	-0.5005498978	-1.1788742665	 0.014389
O	 2.2115564424	-0.0493794453	-0.9649242656	-0.429584
C	 0.8122671018	-2.0056027831	-1.2500238714	 0.367447
C	 1.429672865	-2.9987628742	-0.2437669889	-0.311748
C	 1.6941326792	-3.9849103397	-1.4308539765	-0.233634
C	 1.0664025902	-2.9595773964	-2.384086439	-0.096964
N	-0.2948865308	-2.6207665545	-1.9741595233	-0.363933
H	 0.8794892977	 1.9931402535	 0.0877021759	 0.122698
H	-0.4738361614	 2.0000769227	-1.0455654976	 0.118097
H	-0.7870171193	 1.9573711351	 0.6953491306	 0.107931
H	 0.1842369504	-0.3347269301	 0.8570280346	 0.081914
H	-1.0955196844	-0.3321604303	-0.3475567927	 0.113244
H	 0.5957792449	-0.1116136994	-2.1652818905	 0.094238
H	 2.4430065002	-0.2481269445	-0.0510399813	 0.276834
H	 2.3641066764	-2.641978617	 0.1972002206	 0.100994
H	 0.769090692	-3.3394956595	 0.560798718	 0.094369
H	 2.7606893715	-4.143539458	-1.6051425818	 0.111761
H	 1.1970936478	-4.9602030831	-1.3908507572	 0.097341
H	 1.3500519126	-2.7663203525	-3.4125895512	 0.096515
H	-0.7481740563	-3.3705717101	-1.4538319167	 0.22048
59.5758	101.9232	120.5788	199.3882	220.3593	260.6581	278.4339	297.9577	336.0394	462.6467	488.7377	517.8956	710.5118	758.0039	781.4281	793.0584	835.1793	890.0875	925.5573	948.3125	957.3869	985.6102	1027.5876	1052.1629	1060.0945	1084.631	1094.8437	1120.537	1135.954	1182.4356	1213.7242	1230.1233	1244.4073	1254.2972	1279.126	1285.1299	1327.8152	1332.3042	1377.2188	1400.7662	1411.1565	1450.0709	1475.4407	1483.4951	1495.496	1498.2318	1507.8431	2995.0635	3037.7792	3038.9896	3047.8114	3048.7666	3065.0223	3093.1745	3102.953	3112.7236	3119.0577	3177.1887	3451.7406	3803.0167
CCC(O)C12CCC1N2	CC[C@@H](O)[C@]12CC[C@H]1N2	
InChI=1S/C7H13NO/c1-2-6(9)7-4-3-5(7)8-7/h5-6,8-9H,2-4H2,1H3	InChI=1S/C7H13NO/c1-2-6(9)7-4-3-5(7)8-7/h5-6,8-9H,2-4H2,1H3/t5-,6-,7+/m1/s1
