18
gdb 70529	2.5782	1.72335	1.24313	2.7277	72.46	-0.2375	0.0221	0.2596	1023.7917	0.148361	-439.06672	-439.058838	-439.057894	-439.098779	31.07	
O	 0.2016294817	 1.3506850226	-0.1445396568	-0.466629
C	 0.1076689135	-0.0475682317	-0.0625343783	 0.36162
C	-0.583650969	-0.7815893808	-1.1935489368	-0.382463
C	-1.291552364	-0.5312506225	 0.1167629439	 0.073645
O	-1.581182789	-1.6426599124	 0.9287827816	-0.236079
C	-1.1678825088	-1.6876337173	 2.239518004	 0.123175
N	-0.1700182757	-1.2199669992	 2.8435654235	-0.245722
C	 0.928150968	-0.47001635	 2.2564024907	-0.143872
C	 1.1880321969	-0.7116000606	 0.7636300546	-0.28493
H	 0.9315502989	 1.5627975404	-0.7375000383	 0.284251
H	-0.9160754758	-0.2045115524	-2.0489203489	 0.119742
H	-0.275185206	-1.7999236493	-1.4024863945	 0.12566
H	-2.0766210989	 0.2201604624	 0.1297147007	 0.114643
H	-1.8791209074	-2.3062642169	 2.7876541453	 0.118983
H	 0.7530490365	 0.6010621774	 2.4219140614	 0.128814
H	 1.8241060265	-0.7242081253	 2.8347006385	 0.105669
H	 1.2234548129	-1.787535453	 0.5650889727	 0.112866
H	 2.1671740096	-0.3040699315	 0.4798762067	 0.090626
111.8057	179.4011	216.6498	300.0872	328.7277	376.9975	389.7713	437.3624	455.4186	495.736	594.6438	713.7136	767.8506	842.927	848.3715	903.5481	925.5782	957.3925	975.8247	997.835	1011.3122	1044.2742	1065.3033	1084.1539	1110.3471	1166.3999	1195.3316	1256.1514	1275.9087	1294.7877	1347.4451	1364.2185	1395.7412	1416.3307	1433.5062	1472.2149	1486.4553	1493.133	1765.616	3020.5239	3027.8112	3054.5869	3082.816	3133.7116	3137.1146	3145.1044	3233.3875	3789.7881
OC12CC1OC=NCC2	O[C@]12C[C@H]1OC=NCC2	
InChI=1S/C6H9NO2/c8-6-1-2-7-4-9-5(6)3-6/h4-5,8H,1-3H2	InChI=1S/C6H9NO2/c8-6-1-2-7-4-9-5(6)3-6/h4-5,8H,1-3H2/t5-,6-/m1/s1
