21
gdb 103476	2.30662	1.61401	1.18597	1.0439	78.64	-0.2368	0.0734	0.3102	1136.8323	0.180277	-424.185027	-424.175342	-424.174398	-424.218784	36.662	
C	 0.0889175205	 1.1796248096	-0.3366523864	-0.249121
O	-0.0537643033	-0.1034954595	 0.242017223	-0.284368
C	-1.3377074782	-0.6596912058	 0.1204744293	 0.358629
C	-2.4079217967	 0.0251811766	 0.9476479115	-0.472153
C	-1.7898167338	-1.2632811299	-1.1964194623	-0.188399
C	-0.5936910714	-1.8390255497	-1.9651845794	-0.230313
C	-0.243530309	-2.748100481	-0.7444660648	-0.289024
C	-1.4337267571	-2.1508391586	 0.01367277	 0.313705
O	-2.2970558978	-2.9035920963	 0.7957672742	-0.458185
H	 1.1565101762	 1.4136809679	-0.333425135	 0.124328
H	-0.2794907518	 1.2002005061	-1.3719306172	 0.110745
H	-0.4395229904	 1.955230159	 0.2352382011	 0.108292
H	-2.6045139569	 1.0398465126	 0.5876056558	 0.117691
H	-3.3429754434	-0.536608496	 0.9092096739	 0.137454
H	-2.0911475332	 0.0947006539	 1.9941679024	 0.11614
H	-2.7604027595	-1.0267270676	-1.6179538598	 0.085715
H	-0.8963193295	-2.4153754076	-2.841703953	 0.102594
H	 0.1745191396	-1.1208295386	-2.2620161268	 0.100905
H	-0.4079912662	-3.8061503866	-0.9587986675	 0.105416
H	 0.7397948293	-2.610958843	-0.2886633276	 0.103355
H	-1.9720103774	-2.8924332954	 1.7033430984	 0.286594
120.3469	156.7209	169.8176	183.1269	214.6636	241.0866	258.3795	280.8771	336.3362	374.1203	415.1547	486.0488	577.7544	655.557	673.7759	779.6871	800.7783	888.9758	933.1624	939.4515	959.8599	1002.0571	1029.9811	1075.1593	1086.0097	1135.7298	1142.6211	1180.4474	1183.0334	1214.8985	1222.0091	1229.5579	1254.4599	1265.7462	1296.2571	1334.9433	1407.4403	1430.4461	1470.5643	1474.3874	1482.8007	1492.5248	1499.84	1511.6838	1515.308	2992.757	3036.3812	3044.8664	3063.0136	3069.499	3096.2901	3109.2938	3111.9707	3128.8041	3135.315	3173.9992	3786.8392
COC1(C)C2CCC12O	CO[C@@]1(C)[C@H]2CC[C@@]12O	
InChI=1S/C7H12O2/c1-6(9-2)5-3-4-7(5,6)8/h5,8H,3-4H2,1-2H3	InChI=1S/C7H12O2/c1-6(9-2)5-3-4-7(5,6)8/h5,8H,3-4H2,1-2H3/t5-,6+,7+/m1/s1
