16
gdb 17835	4.30437	1.70215	1.48757	2.4274	65.63	-0.2339	0.012	0.2459	873.6059	0.131827	-379.902027	-379.894661	-379.893716	-379.933902	27.793	
N	 0.0316101878	 1.2399914273	 0.7004678395	-0.533039
C	-0.0449338331	 0.3579175863	-0.3431105349	 0.419055
O	 0.8583120753	 0.246817333	-1.154423592	-0.374455
C	-1.3397326789	-0.4072261155	-0.3807331004	-0.100827
C	-1.9999286719	-0.9255469861	-1.6060405133	-0.04361
C	-1.0320489249	-1.4039331344	-2.6865513412	-0.238898
C	-0.4293524556	-2.3210146225	-1.5950356584	-0.147304
N	-1.4560325306	-1.8806090094	-0.5695664031	-0.161552
H	 0.9040224215	 1.7265841841	 0.8303287771	 0.261706
H	-0.6233408114	 1.2254795337	 1.4624030249	 0.26176
H	-2.0446528298	-0.1002769012	 0.3893626801	 0.085876
H	-3.0688264167	-0.7805767202	-1.7387927476	 0.094817
H	-1.5441183529	-1.9593227249	-3.4747788915	 0.10319
H	-0.3765924006	-0.6519769546	-3.123532773	 0.13292
H	-0.5775919379	-3.3866235036	-1.77924471	 0.107479
H	 0.6042770996	-2.1305404121	-1.3093093863	 0.132882
49.4889	206.9996	231.052	246.8629	336.9658	362.8098	437.0518	569.836	656.2695	720.864	753.0223	783.2322	792.9068	827.0805	857.0694	956.0933	964.5485	1013.8469	1043.8562	1071.1522	1094.1847	1130.0061	1180.024	1223.4135	1234.1883	1271.0811	1293.7954	1298.5967	1370.4395	1453.0495	1475.3744	1496.242	1617.7823	1778.9617	3079.0368	3085.8949	3122.8336	3141.3542	3146.2446	3155.7944	3600.2539	3735.6506
NC(=O)C1C2CCN12	NC(=O)[C@H]1[C@H]2CCN12	
InChI=1S/C5H8N2O/c6-5(8)4-3-1-2-7(3)4/h3-4H,1-2H2,(H2,6,8)	InChI=1S/C5H8N2O/c6-5(8)4-3-1-2-7(3)4/h3-4H,1-2H2,(H2,6,8)/t3-,4-,7?/m1/s1
