15
gdb 5334	6.39258	1.63779	1.33748	2.8831	69.46	-0.1799	0.0361	0.216	890.9275	0.121846	-358.843125	-358.836377	-358.835433	-358.873894	25.724	
N	 0.1214933673	 1.3833544791	 0.2716072962	-0.587937
C	-0.0379933148	 0.0232201764	 0.0058068286	 0.292092
C	-1.1994563619	-0.7354685997	 0.0632148991	-0.261835
N	-0.7320083536	-2.0356094261	-0.0799552272	 0.016185
C	-0.8654817617	-3.374164695	-0.7042277546	-0.170994
C	 0.705199442	-3.3770212643	-0.8423863022	-0.355725
C	 0.5948624069	-1.9603560164	-0.3108681566	 0.344905
N	 1.0846850757	-0.7437467733	-0.2746807327	-0.398993
H	 0.9807926199	 1.730837957	-0.1339811481	 0.249335
H	-0.665162984	 1.9497587891	-0.0150006203	 0.240793
H	-2.2105028691	-0.4789525571	 0.3277848956	 0.114884
H	-1.313397977	-4.1254500876	-0.0491189962	 0.125004
H	-1.3893783267	-3.3533334536	-1.6637926466	 0.130523
H	 1.2313245858	-4.0986553533	-0.2129155416	 0.129019
H	 1.063132241	-3.4658487052	-1.8706603132	 0.132746
103.937	225.8659	248.13	294.014	330.5689	514.5693	596.8113	635.882	655.968	691.1418	758.7114	806.8121	823.7784	841.0839	935.8937	993.0191	1050.7886	1084.9436	1099.994	1129.2268	1174.9921	1194.3498	1228.1829	1266.3129	1329.4444	1406.0072	1442.5958	1481.3719	1509.9301	1558.6071	1602.3433	1640.7699	3057.369	3070.1342	3108.0954	3123.7287	3280.2017	3545.0293	3643.7134
NC1=CN2CCC2=N1	Nc1cn2CCc2n1	
InChI=1S/C5H7N3/c6-4-3-8-2-1-5(8)7-4/h3H,1-2,6H2	InChI=1S/C5H7N3/c6-4-3-8-2-1-5(8)7-4/h3H,1-2,6H2
