21
gdb 38955	2.99436	1.5823	1.30939	1.7225	79.66	-0.2433	0.0717	0.315	1040.9237	0.18688	-387.093576	-387.086435	-387.085491	-387.125089	29.42	
C	 0.3066822835	 1.67520935	 0.4191822897	-0.293159
C	 1.3862562866	 0.746392466	-0.07166553	-0.021611
C	 2.2934936594	 0.0897341383	 0.9642527195	-0.258903
C	 1.3706584473	-0.6925470512	 1.9306279154	-0.01495
C	 1.0793093294	-0.0623154899	 3.3043588649	-0.101046
O	-0.2298601255	-0.486108802	 3.6442877662	-0.249287
C	-1.0084923977	-0.4539414145	 2.4507673921	-0.093105
C	-0.0473415496	-0.7594575054	 1.2741134189	-0.042458
C	-0.0259758553	 0.2326275762	 0.1160061699	-0.049555
H	 0.3262843331	 2.0144737066	 1.4493657858	 0.113675
H	-0.0597894804	 2.4231838389	-0.2760048645	 0.109738
H	 1.7908792962	 0.9196553698	-1.0632159017	 0.079947
H	 2.9797794067	-0.5976912214	 0.459053659	 0.100476
H	 2.9176420698	 0.8178208959	 1.4972606746	 0.099698
H	 1.7561555416	-1.701382211	 2.0964468993	 0.080111
H	 1.7538897627	-0.4023783832	 4.0954240201	 0.104244
H	 1.1431216149	 1.038050841	 3.2586422655	 0.085482
H	-1.8070992598	-1.1924126897	 2.5638236216	 0.102543
H	-1.4722829935	 0.5353541942	 2.3196468622	 0.092603
H	-0.2410360963	-1.7604683213	 0.8792773971	 0.074666
H	-0.661346043	 0.0310343227	-0.7396330957	 0.08089
100.6839	178.4077	255.9117	317.5404	362.5883	448.9671	566.4746	613.1504	658.8671	725.4665	764.0016	809.5213	825.9066	875.5584	910.685	928.877	954.5923	976.0714	1001.874	1029.2447	1043.8164	1061.0079	1074.3468	1075.5791	1100.862	1103.7073	1118.0385	1144.7819	1203.4621	1217.1989	1228.8121	1241.835	1271.8536	1289.0487	1324.1213	1325.7545	1339.7547	1353.9249	1372.1855	1389.5261	1407.9195	1488.0323	1497.0154	1512.7519	1528.8182	2960.4411	2991.2496	3029.1708	3054.0683	3063.3998	3073.9705	3082.6485	3090.2077	3131.0344	3157.4386	3166.9092	3211.6571
C1C2CC3COCC3C12	C1[C@H]2C[C@H]3COC[C@H]3[C@@H]12	
InChI=1S/C8H12O/c1-5-2-7(5)8-4-9-3-6(1)8/h5-8H,1-4H2	InChI=1S/C8H12O/c1-5-2-7(5)8-4-9-3-6(1)8/h5-8H,1-4H2/t5-,6+,7+,8-/m1/s1
