19
gdb 67134	2.06176	1.83183	1.48318	3.6014	80.2	-0.2287	0.0148	0.2435	1027.1659	0.158608	-385.876319	-385.867822	-385.866878	-385.909074	32.419	
C	-0.1643861274	 1.5048646818	-0.0411024059	-0.526852
C	 0.0262586746	 0.0252555188	-0.0160756345	 0.305413
C	 0.031209001	-1.0769022795	-1.0301318914	-0.164985
C	 1.3079906015	-1.6977365262	-0.4570331025	-0.244992
C	 0.9673625408	-0.924580475	 0.8462372849	-0.233714
C	-0.3594664991	-1.5507177122	 1.3118561889	 0.386234
O	-0.7576331373	-1.9645581217	 2.3679067833	-0.352172
C	-1.0506708117	-1.1041828669	 0.0651194169	 0.160985
C	-2.5220051988	-1.0356689205	-0.2051077862	-0.511289
H	 0.7389285895	 2.0190560146	-0.3878367201	 0.130775
H	-0.9829389765	 1.78086555	-0.7141285609	 0.129425
H	-0.4068416082	 1.8906597871	 0.9552614456	 0.13581
H	-0.2831604327	-1.02660889	-2.0665244929	 0.093209
H	 1.3784036274	-2.7889791679	-0.3864564423	 0.10253
H	 2.1993016798	-1.298541889	-0.9489156076	 0.106952
H	 1.7226339291	-0.6202744473	 1.5659404255	 0.089405
H	-3.0654335495	-0.737328037	 0.6967005638	 0.139645
H	-2.7502094805	-0.3144262528	-0.9970649513	 0.119572
H	-2.9123455618	-2.0083870664	-0.5229782431	 0.134046
115.0345	151.9196	176.7953	200.2506	220.7908	283.7927	310.1813	430.1133	498.4021	592.9225	612.3003	659.9453	687.6668	775.8356	799.1923	826.2984	923.6136	941.417	948.4238	982.3971	1009.8002	1056.5086	1083.2621	1102.6846	1112.2613	1131.7205	1166.2593	1190.2508	1200.8811	1244.4049	1286.3471	1369.2533	1415.6597	1416.0357	1454.0994	1480.3708	1486.6003	1494.2332	1497.8387	1504.2101	1862.1021	3025.9632	3032.4465	3037.9708	3087.4104	3093.9327	3097.5813	3098.7056	3106.3454	3160.6285	3177.6323
CC12C3CC1C(=O)C23C	C[C@@]12[C@H]3C[C@@H]1C(=O)[C@@]23C	
InChI=1S/C8H10O/c1-7-4-3-5(7)8(7,2)6(4)9/h4-5H,3H2,1-2H3	InChI=1S/C8H10O/c1-7-4-3-5(7)8(7,2)6(4)9/h4-5H,3H2,1-2H3/t4-,5-,7+,8+/m1/s1
