18
gdb 54971	3.10006	1.01216	0.96498	3.46	75.16	-0.2537	-0.0285	0.2252	1286.0442	0.145602	-439.128268	-439.118592	-439.117648	-439.162958	35.054	
C	-0.341992966	 1.5944263824	 0.131527243	-0.47951
C	-0.0394723807	 0.1172595484	 0.018516514	 0.22497
C	 1.3363863809	-0.3781405723	-0.3724715988	-0.325324
C	 0.8771186489	-0.6176420262	 1.0294484371	-0.172015
C	 1.5143126772	 0.1690297674	 2.1396220592	 0.420326
N	 1.3169335022	-0.3530160942	 3.3855777815	-0.532328
O	 2.1709461033	 1.1775899256	 1.9517010356	-0.367833
C	-1.1651891256	-0.7400663867	-0.4472070917	 0.125118
O	-2.2716650322	-0.3400872207	-0.7070038605	-0.261246
H	 0.5129925715	 2.1381895758	 0.5327238043	 0.156095
H	-0.5931884562	 1.9956585011	-0.8546565112	 0.128983
H	-1.2079603028	 1.7602292598	 0.7788719866	 0.128203
H	 1.415189059	-1.2312455979	-1.0380465561	 0.121962
H	 2.0955731397	 0.3864422929	-0.4907206286	 0.155391
H	 0.5662177666	-1.6264209608	 1.2870672731	 0.088349
H	 0.6650848807	-1.098833844	 3.5548293458	 0.26169
H	 1.6515645562	 0.1784104807	 4.1729539252	 0.265166
H	-0.9053704828	-1.8220134914	-0.5455579687	 0.062003
64.7759	88.2504	157.7737	189.7661	213.929	229.6108	264.1852	310.1867	351.1618	409.1373	440.1165	523.1368	594.1665	623.2693	727.5148	764.3693	816.8343	842.1073	921.4498	959.2984	985.4613	1045.2465	1075.8751	1092.729	1100.7804	1115.4563	1133.0565	1252.487	1305.9352	1334.5303	1409.8616	1434.5182	1440.3941	1469.4928	1495.7819	1498.4564	1618.5945	1783.3728	1821.8447	2836.9483	3051.9097	3111.7259	3135.2634	3141.535	3157.9994	3233.1955	3601.796	3736.5224
CC1(CC1C(N)=O)C=O	C[C@]1(C[C@H]1C(=O)N)C=O	
InChI=1S/C6H9NO2/c1-6(3-8)2-4(6)5(7)9/h3-4H,2H2,1H3,(H2,7,9)	InChI=1S/C6H9NO2/c1-6(3-8)2-4(6)5(7)9/h3-4H,2H2,1H3,(H2,7,9)/t4-,6-/m0/s1
