16
gdb 32275	3.14782	1.45468	1.02745	4.4091	74.08	-0.2312	-0.0323	0.1989	1109.8177	0.127903	-434.120371	-434.112954	-434.11201	-434.152352	28.442	
N	 0.2010747376	 0.7335366453	 0.4857963942	-0.529993
H	-0.4887038793	-0.642585412	 1.4524055498	 0.30886
H	 1.1360132271	 1.1098235717	 0.5993831426	 0.250252
H	 0.0749617174	 0.5397605956	-0.5034271481	 0.251536
C	-0.8098099701	 1.7051043011	 0.9515139055	-0.268488
C	-2.1746860055	 1.0639934508	 1.0785541514	 0.19895
N	-3.2345049641	 1.8227336262	 0.7889379194	-0.298056
C	-4.4388803176	 1.2798012553	 0.9590903638	 0.043451
N	-4.6981733435	 0.0433813506	 1.3870681327	-0.24648
C	-3.6414798464	-0.7183053179	 1.6616370647	-0.046366
C	-2.3283206152	-0.2609080219	 1.5241073594	 0.277378
O	-1.2969306444	-1.0719971461	 1.8253348805	-0.437526
H	-0.489116403	 2.0491802946	 1.9435935686	 0.136039
H	-0.9066265337	 2.5941091187	 0.3170003594	 0.129449
H	-5.2942979819	 1.9069068684	 0.7235612363	 0.111035
H	-3.8188419275	-1.7332757802	 2.0100058398	 0.11996
99.1643	151.3558	273.6368	282.7765	337.075	416.8111	435.7916	472.9114	572.8109	611.4965	622.6124	750.2095	782.2808	848.0123	888.6518	923.9435	938.5384	984.3581	995.8041	1048.8269	1156.2093	1168.6239	1196.2519	1250.0415	1277.245	1314.2501	1335.8634	1406.5918	1419.0332	1463.19	1491.0024	1514.3743	1601.828	1633.9611	1653.4484	3020.8108	3061.5574	3159.3423	3172.4098	3323.4304	3502.0063	3584.533
[NH3+]CC1=NC=NC=C1[O-]	NCc1ncncc1O	
InChI=1S/C5H7N3O/c6-1-4-5(9)2-7-3-8-4/h2-3,9H,1,6H2	InChI=1S/C5H7N3O/c6-1-4-5(9)2-7-3-8-4/h2-3,9H,1,6H2
