14
gdb 29093	3.07852	1.44786	0.99082	6.6633	68.35	-0.2325	-0.056	0.1764	1116.5634	0.101012	-473.893008	-473.885164	-473.88422	-473.925595	28.903	
C	-0.2476262457	 1.5319390728	 0.065093729	-0.492367
C	 0.0221111666	 0.064870781	-0.0468840455	 0.289235
C	 0.1253699066	-0.6005072134	-1.1996730045	-0.044556
O	 0.3740971696	-1.9493477447	-1.2646513017	-0.215646
C	 0.5351890352	-2.714049818	-0.1389508907	 0.337049
O	 0.7502898936	-3.8827954839	-0.2363380568	-0.28367
C	 0.4268055948	-2.0013170388	 1.2172922143	 0.287889
O	 0.5555910726	-2.5985571231	 2.2588405366	-0.326138
N	 0.1756105834	-0.6523679499	 1.1412548618	-0.402237
H	 0.566380871	 2.0460712071	 0.589853057	 0.14466
H	-0.3480891036	 1.9792140981	-0.9252854616	 0.149692
H	-1.1732029467	 1.723848335	 0.6207814906	 0.144644
H	 0.0257501188	-0.1541933365	-2.176908395	 0.145416
H	 0.1029266738	-0.1765616158	 2.0306211268	 0.266028
84.4217	137.4577	185.6068	285.4659	315.0996	352.3376	428.4449	452.6133	517.7822	571.544	604.2608	643.9013	648.2626	787.7339	800.5006	808.957	1007.6937	1035.7661	1069.648	1087.7151	1180.8955	1235.3058	1326.3434	1370.7551	1422.8109	1471.7408	1475.1644	1499.7705	1743.9125	1816.6174	1870.2713	3027.6789	3078.8041	3137.2326	3259.4736	3597.1684
CC1=COC(=O)C(=O)N1	Cc1coc(=O)c(=O)[nH]1	
InChI=1S/C5H5NO3/c1-3-2-9-5(8)4(7)6-3/h2H,1H3,(H,6,7)	InChI=1S/C5H5NO3/c1-3-2-9-5(8)4(7)6-3/h2H,1H3,(H,6,7)
