18
gdb 95649	2.00727	1.96088	1.20506	2.0472	68.72	-0.2673	0.0134	0.2807	1055.4783	0.148229	-476.233967	-476.225586	-476.224642	-476.267099	31.897	
C	 1.0954266212	 1.3021558134	-0.1068818014	-0.385034
C	 0.0949772121	 0.1593704853	-0.1080741922	 0.098933
O	 0.3311732712	-0.6167414141	-1.3025641238	-0.249271
C	 0.168017478	-1.9786035229	-1.1475767708	 0.003041
O	 1.1382627786	-2.5227675368	-0.2322575453	-0.234895
C	 1.2638631274	-1.8189615108	 0.9141453174	 0.399379
N	 2.1728100812	-1.9980129625	 1.7757313591	-0.559098
C	 0.2115681481	-0.7530408979	 1.1511638835	 0.009795
O	 0.483653138	-0.0204253539	 2.3088481455	-0.438233
H	 2.1163363366	 0.9211996894	-0.0095409496	 0.127587
H	 1.0190007335	 1.8559635225	-1.0462304456	 0.122785
H	 0.8957716009	 1.9754832276	 0.7277335414	 0.139525
H	-0.9278661752	 0.5567117932	-0.1569987542	 0.087343
H	-0.8393917413	-2.2513776966	-0.796947322	 0.106519
H	 0.3727519309	-2.4555768442	-2.1066347075	 0.136956
H	 2.8222424983	-2.7368980539	 1.5096572624	 0.232499
H	-0.7489520273	-1.282410846	 1.2708071401	 0.102293
H	 1.2801320677	-0.4337126319	 2.6861746931	 0.299877
59.8302	118.0527	221.8091	266.3484	307.2275	328.9139	392.4725	433.5515	461.8091	477.4586	517.9259	561.2345	646.2741	763.2585	806.4631	876.5451	884.5571	927.9225	972.8089	1070.2849	1075.8619	1086.9894	1129.6593	1155.5776	1172.6091	1205.4538	1268.2496	1286.9506	1313.5765	1349.8885	1379.5445	1389.4761	1418.0685	1450.7155	1469.9837	1486.3381	1492.7061	1527.1028	1760.3531	2953.8842	2986.5534	3011.9156	3052.8846	3124.1668	3129.7823	3150.8479	3504.9598	3636.1183
CC1OCOC(=N)C1O	C[C@H]1OCO[C]([NH])[C@H]1O	
InChI=1S/C5H9NO3/c1-3-4(7)5(6)9-2-8-3/h3-4,6-7H,2H2,1H3	InChI=1S/C5H9NO3/c1-3-4(7)5(6)9-2-8-3/h3-4,6-7H,2H2,1H3/t3-,4+/m1/s1
