19
gdb 121012	3.24142	1.08735	0.86408	2.8242	79.19	-0.2217	-0.0504	0.1714	1365.6402	0.158502	-423.054123	-423.045093	-423.044149	-423.088914	32.621	
C	 0.0251869485	 1.503524405	-0.0199353045	-0.385589
C	-0.1016686209	-0.0062726694	 0.0808657188	-0.047963
O	 0.7645245966	-0.448711184	 1.1238780718	-0.257702
C	 0.7969033151	-1.8422509267	 1.3110423856	 0.023665
C	 2.0161570257	-2.2415757292	 2.1612857135	-0.303228
C	 1.4509039856	-3.157388282	 3.2161196298	-0.053248
C	 0.1141815593	-3.2353636817	 3.1909907761	-0.164442
C	-0.4228601924	-2.3914883913	 2.1033031473	 0.363306
O	-1.5839527748	-2.1507879239	 1.8597393141	-0.333777
H	 1.059687807	 1.7930943424	-0.2267425554	 0.120543
H	-0.6106659818	 1.8832947724	-0.8252620588	 0.115532
H	-0.2831458414	 1.9777198644	 0.916195399	 0.127956
H	-1.1336645125	-0.3048056783	 0.2933143557	 0.129128
H	 0.1968422341	-0.486265243	-0.8669006937	 0.080883
H	 0.8181038827	-2.3619017681	 0.3378838406	 0.087039
H	 2.8103986074	-2.7227555973	 1.5807448334	 0.118868
H	 2.4530279148	-1.3425555106	 2.6114057056	 0.142255
H	 2.0911165029	-3.6784421782	 3.9205874054	 0.118514
H	-0.5209055561	-3.7984212705	 3.8628990258	 0.11826
48.0101	64.8694	118.9597	187.0348	237.5015	260.7822	302.9059	374.3911	428.1777	492.9047	624.6035	682.3416	752.5716	779.4272	820.0641	835.0395	892.3502	940.4315	972.2909	1004.5286	1051.6786	1060.1715	1112.0808	1132.725	1153.2535	1178.6413	1188.2062	1203.3989	1264.8272	1294.4585	1307.7219	1354.2577	1370.6439	1400.9586	1433.3276	1468.4369	1483.3131	1501.8129	1532.0362	1648.331	1808.4653	2956.9804	2961.6511	3043.3451	3043.7469	3070.046	3078.197	3118.7445	3120.5741	3187.6066	3225.6726
CCOC1CC=CC1=O	CCO[C@H]1CC=CC1=O	
InChI=1S/C7H10O2/c1-2-9-7-5-3-4-6(7)8/h3-4,7H,2,5H2,1H3	InChI=1S/C7H10O2/c1-2-9-7-5-3-4-6(7)8/h3-4,7H,2,5H2,1H3/t7-/m0/s1
