20
gdb 121040	3.25094	0.89482	0.78709	5.1479	75.45	-0.2585	0.0526	0.3111	1514.9246	0.172015	-440.347166	-440.338035	-440.33709	-440.381894	33.236	
C	 0.0336530862	 1.5872710461	 0.0478381348	-0.380421
C	 0.0001801689	 0.0568325576	 0.0044755107	-0.180443
C	 0.7140921572	-0.5184445955	-1.2234216816	-0.174962
C	 0.6579501973	-2.0501594382	-1.3227630276	-0.007727
C	 1.4576184594	-2.6169876451	-2.518962963	-0.097094
O	 2.7272990824	-2.9998980007	-1.9790549336	-0.238234
C	 2.6273550761	-3.1193775038	-0.6183907991	 0.473684
O	 3.5223842006	-3.4988248672	 0.0831338124	-0.39206
N	 1.3517549223	-2.7472829908	-0.2503335545	-0.362865
H	 1.0637094718	 1.9586151756	 0.074996703	 0.122181
H	-0.4501097411	 2.0180874197	-0.8355783777	 0.117802
H	-0.4830878075	 1.9715156144	 0.9322659836	 0.117949
H	 0.4619570356	-0.336074481	 0.919763974	 0.095845
H	-1.0420130177	-0.2896920118	 0.0130356307	 0.099753
H	 0.2563426331	-0.1055437517	-2.1327885535	 0.100084
H	 1.7652900637	-0.2006292477	-1.229001425	 0.112585
H	-0.3885967071	-2.3726608697	-1.3752945901	 0.09105
H	 0.9723069504	-3.5009602584	-2.9472371747	 0.11922
H	 1.6229677287	-1.8793069402	-3.3073688823	 0.123505
H	 1.1932607697	-2.5389110816	 0.7215281435	 0.260147
60.0849	91.2882	130.7877	143.043	197.4787	250.0679	322.1643	361.6653	480.8638	484.8792	525.6599	710.1162	737.8071	766.4778	781.342	850.0232	895.3075	914.2223	932.5954	1004.6333	1015.9756	1049.2544	1085.7127	1097.7957	1148.4183	1163.416	1217.1377	1238.3341	1270.6076	1277.7277	1326.6776	1333.0437	1383.2324	1396.3693	1414.7542	1422.2848	1423.475	1478.1172	1491.8476	1500.3376	1509.0615	1517.1797	1892.6958	3008.7842	3015.9916	3027.7145	3033.2521	3038.5979	3045.9427	3064.4396	3100.6635	3107.217	3107.847	3661.2313
CCCC1COC(=O)N1	CCC[C@H]1COC(=O)N1	
InChI=1S/C6H11NO2/c1-2-3-5-4-9-6(8)7-5/h5H,2-4H2,1H3,(H,7,8)	InChI=1S/C6H11NO2/c1-2-3-5-4-9-6(8)7-5/h5H,2-4H2,1H3,(H,7,8)/t5-/m0/s1
