14
gdb 21083	3.46288	2.49998	1.46502	2.3603	69.35	-0.2218	-0.0742	0.1476	806.339	0.109519	-374.907536	-374.900821	-374.899877	-374.938532	24.889	
C	-0.032683026	 1.4525604704	-0.0009735429	-0.304569
N	-0.0082239368	-0.0033069467	 0.0086296188	-0.019898
N	-0.0414005326	-0.6125533198	-1.1648441678	-0.153274
C	-0.0198314503	-1.9175902539	-1.1670761455	-0.039309
C	 0.0374662759	-2.6429473162	 0.0619983504	 0.000018
N	 0.070621993	-2.0648522432	 1.2196872361	-0.301278
C	 0.0490993666	-0.6699463478	 1.2576319829	 0.440799
N	 0.0766235187	 0.0472055033	 2.3140572334	-0.560591
H	 0.861742185	 1.8399717155	 0.4936040952	 0.156825
H	-0.0771718674	 1.7715118015	-1.0410396593	 0.143129
H	-0.899626429	 1.8107204839	 0.5600857017	 0.156866
H	-0.0474238994	-2.4046623342	-2.1335103565	 0.129403
H	 0.0546865009	-3.7327847213	 0.0430059071	 0.126143
H	 0.1167741813	-0.5720687516	 3.1220715363	 0.225736
91.3206	173.668	230.6484	344.8716	398.3619	495.4234	557.2109	563.6546	611.8305	753.6555	770.3132	843.6406	849.8761	933.0474	994.6521	1001.1431	1039.637	1086.7751	1150.5634	1231.8683	1290.3757	1310.147	1407.3706	1417.868	1444.5616	1464.748	1505.5151	1550.6732	1648.6519	1704.3065	3056.787	3120.4503	3130.4324	3175.8452	3214.7566	3508.7344
CN1N=CC=NC1=N	Cn1nccnc1[NH]	
InChI=1S/C4H6N4/c1-8-4(5)6-2-3-7-8/h2-3,5H,1H3	InChI=1S/C4H11N4/c1-8-4(5)6-2-3-7-8/h4-7H,2-3H2,1H3
