18
gdb 35434	3.3228	1.39808	1.3272	3.0484	75.08	-0.2268	0.0247	0.2515	1016.4429	0.151531	-398.093302	-398.086055	-398.085111	-398.125001	28.817	
N	 0.800138027	-0.8010572662	 1.0027696827	-0.337649
C	 0.3765757723	 0.1610473329	 0.5188498773	 0.265512
C	-0.129984108	 1.3839959252	-0.128063181	-0.125418
C	-1.0899210264	 2.1758530651	 0.8470827318	-0.188096
N	-0.4574744512	 3.3120338159	 1.5200431962	-0.110627
C	 0.0763851245	 4.2393718378	 0.4552046315	-0.15625
C	 1.3091777773	 3.3251690149	 0.3381669698	-0.000649
C	 0.9850739781	 2.9627166393	 1.8150352041	-0.208902
N	 0.9723340558	 2.2480802134	-0.6018571552	-0.300932
H	-0.7156685249	 1.0502101432	-0.9926461275	 0.131146
H	-1.9406203106	 2.5545734789	 0.273975525	 0.121941
H	-1.4785411626	 1.4797538457	 1.5952725987	 0.132991
H	-0.5522981687	 4.3471013927	-0.4325598631	 0.106248
H	 0.287781638	 5.2192180487	 0.8917736834	 0.109829
H	 2.2829336224	 3.7401511816	 0.0678231708	 0.076465
H	 1.3933547071	 3.6798476568	 2.5322456486	 0.113882
H	 1.1668093258	 1.9469082856	 2.1726573782	 0.133107
H	 1.7868995043	 1.6807933186	-0.8044774614	 0.237402
92.3239	157.1888	244.2255	339.4499	399.744	445.5118	470.6469	514.1758	598.8283	682.8889	745.9726	776.1748	811.9026	829.2193	882.8828	907.424	925.1152	962.4099	981.5938	1005.3033	1062.201	1070.5626	1117.4599	1138.6027	1171.8028	1220.9979	1247.3701	1258.263	1264.6005	1298.7571	1305.2578	1349.0275	1360.0317	1382.3038	1476.0885	1487.4195	1493.3956	1520.4957	2336.6037	3031.9098	3051.7589	3058.3437	3063.1234	3084.1342	3105.1197	3115.9942	3124.1617	3545.7364
N#CC1CN2CC(C2)N1	N#C[C@H]1CN2C[C@@H](C2)N1	
InChI=1S/C6H9N3/c7-1-5-2-9-3-6(4-9)8-5/h5-6,8H,2-4H2	InChI=1S/C6H9N3/c7-1-5-2-9-3-6(4-9)8-5/h5-6,8H,2-4H2/t5-/m0/s1
