22
gdb 107392	3.13924	1.1407	0.94233	1.4291	88.93	-0.2198	0.0238	0.2436	1358.1248	0.194244	-367.212145	-367.202961	-367.202016	-367.245805	35.442	
C	 0.2453728094	 1.4559459522	-0.357473985	-0.375487
C	-0.1563607093	 0.0258505248	 0.0302537129	-0.291199
C	 0.5194016491	-0.4655880357	 1.2884868328	 0.342882
N	 1.963515317	-0.8628262577	 1.2457001334	-0.374705
C	 0.9233214894	-1.8767702135	 1.5392776993	-0.115648
C	 0.7550648693	-2.1710627537	 3.0235214925	-0.308284
C	 0.2967813789	-0.8382620171	 3.5988729759	 0.317345
C	 0.093585481	-0.6530802124	 5.0685956393	-0.486263
C	 0.1511463255	 0.0777223279	 2.6353543261	-0.223041
H	 1.3264595093	 1.5333701561	-0.5114772487	 0.122302
H	-0.2519159844	 1.7659945219	-1.2815766918	 0.111115
H	-0.0277715282	 2.1726766904	 0.4235929751	 0.121704
H	-1.2444616796	-0.0265044252	 0.1639505877	 0.10252
H	 0.0856610905	-0.65820202	-0.7937007473	 0.090028
H	 2.2348946708	-0.972704675	 0.2680521603	 0.2167
H	 0.7429427241	-2.6575335897	 0.8070498177	 0.080477
H	 0.0117809331	-2.9609637223	 3.2001072202	 0.099188
H	 1.6933535092	-2.5086654559	 3.4813924169	 0.114742
H	 1.0294379939	-0.8101215325	 5.6200878975	 0.128613
H	-0.2708708656	 0.3509848864	 5.3023621716	 0.121887
H	-0.626198037	-1.3807830979	 5.4655020976	 0.120413
H	-0.1593554966	 1.1041772389	 2.797000206	 0.084709
88.8038	135.3848	156.9526	186.1411	211.8107	283.9391	313.2349	379.9357	410.0335	448.2606	497.4495	589.6472	658.0139	729.4922	790.0802	814.678	862.5163	882.5225	903.3251	931.4808	963.6551	976.2483	1001.6909	1032.9232	1053.6747	1081.185	1099.713	1115.5024	1156.0628	1167.7224	1195.6281	1250.5426	1283.7587	1295.2124	1337.235	1364.8498	1381.7754	1410.8488	1411.5007	1428.5943	1464.0866	1478.3343	1479.163	1488.5588	1497.5538	1506.5961	1707.5577	3010.8205	3014.9151	3016.2982	3036.8528	3049.4603	3050.8311	3060.4517	3105.9783	3108.285	3109.1011	3156.4796	3188.8404	3450.9647
CCC12NC1CC(C)=C2	CC[C@]12N[C@H]1CC(=C2)C	
InChI=1S/C8H13N/c1-3-8-5-6(2)4-7(8)9-8/h5,7,9H,3-4H2,1-2H3	InChI=1S/C8H13N/c1-3-8-5-6(2)4-7(8)9-8/h5,7,9H,3-4H2,1-2H3/t7-,8+/m0/s1
