18
gdb 42395	3.13662	1.05239	0.89771	3.1869	72.99	-0.2421	-0.0353	0.2068	1323.0076	0.146762	-439.041446	-439.032583	-439.031639	-439.076459	31.634	
O	 0.6280208771	 2.5562266342	-1.9625446483	-0.316665
C	 0.2644849483	 1.9049699903	-1.0083807157	 0.374671
C	 1.1234026047	 0.7979018751	-0.4146039419	-0.345878
C	 2.0251112011	 1.379675041	 0.6676184732	 0.021617
C	 3.4596732229	 1.0025212995	 0.7158673962	-0.239371
N	 3.0585968397	 2.3572187175	 0.3012059054	-0.30734
C	-1.0438013324	 2.2264593836	-0.3402018324	-0.010185
C	-2.0418069724	 1.1667412951	-0.0836896977	-0.175241
O	-1.2639710964	 1.7050466975	 0.9736525046	-0.214554
H	 0.5130756054	-0.0006861322	 0.0173310193	 0.120376
H	 1.7288298452	 0.3884934629	-1.2285669967	 0.117388
H	 1.5112172358	 1.6136899093	 1.5963531069	 0.115467
H	 3.9799708493	 0.9498600053	 1.668036787	 0.121064
H	 3.8232368929	 0.3077487126	-0.0374827228	 0.111705
H	 3.0986950219	 2.4478663387	-0.7121315403	 0.240854
H	-1.3982096761	 3.240262822	-0.5161259461	 0.123534
H	-3.0958038059	 1.4380559834	-0.0833104253	 0.135513
H	-1.8218385809	 0.1361539942	-0.3576692554	 0.127044
41.1248	71.6449	92.6575	152.0362	220.2655	271.672	371.0071	404.1799	480.7997	499.258	687.7912	782.7595	808.4617	828.3573	873.8236	910.1664	916.0851	943.4444	955.371	1001.1368	1043.1144	1088.2363	1119.5531	1134.1283	1153.4549	1163.7944	1169.2033	1235.3773	1247.903	1260.0096	1275.421	1305.1764	1316.7166	1388.7085	1406.4845	1457.3123	1512.0515	1522.7323	1797.6448	3052.3216	3090.8448	3105.9187	3108.2616	3142.7953	3146.7055	3181.9749	3191.6725	3491.5869
O=C(CC1CN1)C1CO1	O=C(C[C@H]1CN1)[C@H]1CO1	
InChI=1S/C6H9NO2/c8-5(6-3-9-6)1-4-2-7-4/h4,6-7H,1-3H2	InChI=1S/C6H9NO2/c8-5(6-3-9-6)1-4-2-7-4/h4,6-7H,1-3H2/t4-,6+/m0/s1
