17
gdb 125122	2.91242	1.26176	0.93328	2.7249	71.16	-0.2142	0.031	0.2452	1222.8621	0.136041	-455.162895	-455.153584	-455.15264	-455.197021	33.586	
C	 0.1992972349	 1.5344701091	 0.0451220588	-0.537926
C	 0.1047732166	 0.0390726792	 0.0297724755	 0.00694
C	 0.1309165675	-0.8051148269	-1.0619710966	 0.379963
O	 0.2452084757	-0.5956688344	-2.3922350163	-0.428979
N	 0.0233218496	-2.0740801749	-0.6073096448	-0.262408
N	-0.0689973697	-2.1298574825	 0.7455052375	-0.305744
C	-0.0284663864	-0.8567536155	 1.1278458817	 0.247481
C	-0.0872284448	-0.5072686528	 2.5832999654	-0.167331
O	 1.053307689	 0.23434903	 3.0184276001	-0.414481
H	 0.7739856777	 1.9161389214	-0.8086442533	 0.101642
H	-0.7833720044	 2.0224277311	 0.0176985564	 0.127987
H	 0.7070089549	 1.8667065467	 0.9540341518	 0.158881
H	 0.2800289773	 0.3537992513	-2.5488658999	 0.311669
H	 0.0195580354	-2.9179842486	-1.1539267923	 0.275974
H	-0.9431681267	 0.1424034216	 2.7964504201	 0.112185
H	-0.217661158	-1.4332882344	 3.1594127124	 0.110784
H	 1.8296000814	-0.2945092405	 2.8054803135	 0.283361
74.9622	126.6084	129.8244	210.1586	230.581	257.8761	278.9752	316.0775	376.6648	411.3107	477.5531	506.4254	610.1299	688.3175	706.2075	732.9345	810.96	959.5679	970.0143	1044.7973	1065.5231	1124.0594	1152.9686	1174.9523	1202.3524	1258.8442	1352.7303	1374.7936	1414.303	1419.1359	1437.98	1482.5453	1496.9629	1501.4382	1513.9549	1583.2301	1647.2517	3011.3469	3017.2471	3056.2694	3069.928	3116.7066	3680.4245	3809.8893	3830.2722
CC1=C(O)NN=C1CO	Cc1c(O)[nH]nc1CO	
InChI=1S/C5H8N2O2/c1-3-4(2-8)6-7-5(3)9/h8H,2H2,1H3,(H2,6,7,9)	InChI=1S/C5H8N2O2/c1-3-4(2-8)6-7-5(3)9/h8H,2H2,1H3,(H2,6,7,9)
