17
gdb 98170	2.27752	1.29515	1.11583	2.712	69.65	-0.2734	-0.0199	0.2535	1190.0817	0.13379	-455.180197	-455.169948	-455.169003	-455.215772	35.56	
C	-0.3900398055	 1.37341247	-0.6284978234	-0.244901
O	-0.3369145925	-0.0452418282	-0.85358921	-0.23911
C	 0.8787734575	-0.6016095691	-0.7611991636	 0.498112
O	 1.8912640169	-0.0066373924	-0.5142936735	-0.355061
C	 0.7839369649	-2.1261800861	-1.0131860795	-0.028754
C	 2.1511978376	-2.7779126937	-0.776477286	-0.398177
N	-0.1970358119	-2.6622653606	-0.0624692388	-0.521109
C	 0.3709569226	-2.329900147	-2.4254486603	 0.255651
N	 0.0225246493	-2.527139967	-3.5103228789	-0.336373
H	-0.04964162	 1.6101498018	 0.3821307811	 0.149597
H	 0.242233321	 1.8945759784	-1.3505497065	 0.152411
H	-1.4346492867	 1.6531067341	-0.7588871626	 0.143783
H	 2.4435715118	-2.6161094347	 0.2620107162	 0.147932
H	 2.090186824	-3.8517365227	-0.9725499894	 0.126899
H	 2.9060992156	-2.3414080158	-1.4313061967	 0.150917
H	-1.1026862201	-2.2332547238	-0.2250873758	 0.25332
H	-0.3021658746	-3.6617380632	-0.2113516522	 0.244862
46.6608	101.4027	118.3757	164.2856	188.2926	212.1617	220.1525	309.803	315.5365	327.0683	378.0661	431.8043	484.0996	592.0094	620.3241	770.0759	796.7519	869.1945	907.289	960.5021	1021.2977	1065.6326	1164.6276	1178.866	1195.533	1218.7616	1241.1262	1352.4652	1410.5796	1472.3119	1481.1104	1482.2503	1485.1254	1494.4111	1649.8192	1841.8355	2340.9738	3059.0149	3061.4801	3138.3952	3140.881	3161.153	3170.5606	3499.6458	3585.4258
COC(=O)C(C)(N)C#N	COC(=O)[C@@](C)(N)C#N	
InChI=1S/C5H8N2O2/c1-5(7,3-6)4(8)9-2/h7H2,1-2H3	InChI=1S/C5H8N2O2/c1-5(7,3-6)4(8)9-2/h7H2,1-2H3/t5-/m0/s1
