20
gdb 86108	2.49285	1.49853	1.04092	1.6002	80.98	-0.2234	0.0142	0.2376	1187.9488	0.172319	-403.141423	-403.132986	-403.132042	-403.174178	33.217	
C	 0.0659824072	 1.553011548	-0.0260861625	-0.478045
C	-0.0513229554	 0.055340536	-0.0255263937	 0.293875
C	 0.0650701833	-0.6811629957	-1.1344925838	-0.120089
C	-0.026608634	-2.1615847862	-1.1078655195	-0.078978
N	 0.8664245616	-2.8874449884	-0.1524392996	-0.353795
C	-0.5842556064	-2.8214137858	 0.0989378373	-0.066249
C	-0.9999551348	-1.9598931738	 1.2703253312	 0.130409
O	-0.8624735185	-2.6631371361	 2.5005924129	-0.439889
C	-0.2467483712	-0.6145056693	 1.3176711417	-0.330859
H	 0.8880734067	 1.8851001031	 0.6214956501	 0.126361
H	 0.2458834646	 1.946335013	-1.0302588751	 0.119547
H	-0.8455254502	 2.0202092493	 0.3689179305	 0.123158
H	 0.2391864764	-0.2055362985	-2.0957837375	 0.079115
H	-0.2000182025	-2.6474562779	-2.0642373107	 0.083092
H	 1.1053429682	-3.7961906487	-0.5424547092	 0.230571
H	-1.1694593531	-3.7294627773	-0.0285617172	 0.086363
H	-2.0749443379	-1.764171586	 1.17658826	 0.090674
H	 0.0598038661	-2.9419935818	 2.5502011516	 0.282396
H	 0.7417119809	-0.8003810264	 1.759153128	 0.119194
H	-0.7683547612	 0.0531447225	 2.0120026255	 0.103149
104.38	138.3876	195.5189	247.4186	278.459	380.6428	383.2179	414.134	434.0963	466.7524	529.9568	646.507	671.4103	781.6735	823.2744	849.8273	895.4805	899.9035	920.5234	964.8308	993.9175	1030.5715	1059.9334	1065.2082	1080.1945	1130.5692	1147.8553	1184.7227	1195.9998	1216.4668	1259.7629	1297.6419	1325.5038	1361.0448	1377.3225	1391.646	1412.7555	1433.914	1451.7521	1470.0341	1478.7696	1489.6422	1729.884	3012.4207	3019.7238	3040.4475	3058.3884	3069.5591	3110.0009	3130.1585	3142.223	3163.7806	3493.4536	3787.7522
CC1=CC2NC2C(O)C1	CC1=C[C@H]2N[C@H]2[C@@H](O)C1	
InChI=1S/C7H11NO/c1-4-2-5-7(8-5)6(9)3-4/h2,5-9H,3H2,1H3	InChI=1S/C7H11NO/c1-4-2-5-7(8-5)6(9)3-4/h2,5-9H,3H2,1H3/t5-,6+,7-/m1/s1
