17
gdb 36426	4.02527	1.08451	1.02146	4.487	71.75	-0.2341	0.0235	0.2576	1177.1579	0.137242	-417.989161	-417.98139	-417.980446	-418.022091	29.044	
N	-0.4055080765	-0.8563945477	-0.4752654775	-0.30799
C	-0.1718796512	 0.2685116521	-0.3550903944	 0.277692
C	 0.1222264345	 1.7024719854	-0.2333532372	-0.299099
N	 1.4931945865	 1.927649946	 0.2222280278	-0.0785
C	 2.517776924	 1.5583693981	-0.7761865543	-0.216756
C	 2.9679555376	 2.8661948762	-1.4007542973	 0.045656
O	 1.8695214933	 3.6981022177	-1.8037546666	-0.252241
C	 2.4974488954	 3.9541264862	-0.5399885867	 0.046403
C	 1.7503663996	 3.3248511512	 0.6224592609	-0.213326
H	-0.1085141729	 2.1863226633	-1.195883146	 0.153757
H	-0.5650551541	 2.1168467707	 0.5118403875	 0.15176
H	 3.3752137858	 1.0755867611	-0.2883976706	 0.116901
H	 2.1103605016	 0.8479976092	-1.5006511446	 0.134898
H	 3.8650246686	 2.9261393977	-2.0108822242	 0.104929
H	 3.0081957819	 4.9078931826	-0.4386612997	 0.10405
H	 0.8143470515	 3.8390631484	 0.8585713472	 0.116758
H	 2.3842526745	 3.3581134719	 1.5195844457	 0.115108
56.6025	110.6887	167.1613	294.306	366.5095	385.7993	402.8455	407.3133	519.2134	678.1567	739.1878	833.9982	854.3892	868.9046	900.4015	935.6365	956.3926	989.6567	1004.1954	1019.7841	1045.7646	1113.4019	1133.4464	1144.0726	1214.334	1253.3485	1272.5845	1312.5785	1315.6778	1332.7686	1357.3726	1381.2787	1446.3784	1481.8406	1491.8327	1502.4218	2364.4803	2985.3107	3011.5344	3021.5413	3069.9702	3088.7217	3095.43	3151.0293	3163.8731
N#CCN1CC2OC2C1	N#CCN1C[C@H]2O[C@H]2C1	
InChI=1S/C6H8N2O/c7-1-2-8-3-5-6(4-8)9-5/h5-6H,2-4H2	InChI=1S/C6H8N2O/c7-1-2-8-3-5-6(4-8)9-5/h5-6H,2-4H2/t5-,6+
