17
gdb 37547	3.88045	1.69773	1.44346	1.9795	76.44	-0.2301	0.0113	0.2415	909.5837	0.1373	-384.576638	-384.570515	-384.569571	-384.606783	26.201	
C	-0.0291698419	 1.4984368346	 0.1114690179	-0.42255
C	 1.4571432347	 1.8755760582	-0.0105229781	-0.048608
C	 2.2165151176	 0.936784214	-0.5990817477	-0.123882
C	 1.3443033135	-0.2025367216	-1.0739172992	-0.086778
C	 1.1123170044	-1.6064681954	-0.4557141496	-0.129214
C	 0.6358693848	-1.0215354317	 0.8904109282	 0.061581
O	-0.6173368754	-1.7719184902	 0.9338215134	-0.325711
C	-0.468290023	-1.3989845746	-0.45985418	-0.043203
C	 0.1235448825	 0.0213653636	-0.1743381915	 0.344215
H	-0.4466915539	 1.7189043063	 1.0990630164	 0.118394
H	-0.6341560534	 2.0377736299	-0.6300514119	 0.114873
H	 1.8265905167	 2.8324882141	 0.3447300048	 0.096528
H	 3.2768301033	 1.0455754926	-0.7996853559	 0.094419
H	 1.1745704536	-0.1639790502	-2.1583389191	 0.077414
H	 1.6260294304	-2.555791188	-0.6120602209	 0.081379
H	 1.1782147709	-0.8564739754	 1.8198562204	 0.096127
H	-1.2160858049	-1.7319650763	-1.1795921672	 0.095015
198.2666	277.0461	316.975	415.5581	545.9535	607.7016	680.9151	693.0005	725.2691	779.2981	821.4844	828.6414	854.9051	900.8579	903.3618	923.237	928.6238	959.2715	973.7241	1026.7058	1045.5989	1063.7429	1082.5956	1119.3989	1126.5362	1144.4244	1159.5589	1174.8003	1194.9727	1243.8418	1270.3485	1281.3621	1320.1217	1359.2229	1369.4779	1476.3618	1626.6813	3011.3255	3018.6439	3076.049	3108.2939	3122.2696	3137.6886	3174.4377	3199.3017
C1C=CC2C3C4OC3C124	C1C=C[C@H]2[C@H]3[C@@H]4O[C@H]3[C@]124	
InChI=1S/C8H8O/c1-2-4-5-6-8(4,3-1)7(5)9-6/h1-2,4-7H,3H2	InChI=1S/C8H8O/c1-2-4-5-6-8(4,3-1)7(5)9-6/h1-2,4-7H,3H2/t4-,5-,6-,7+,8+/m0/s1
