19
gdb 59102	2.15912	1.46008	1.12473	3.5616	72.01	-0.2462	-0.0275	0.2187	1169.5849	0.156382	-460.161826	-460.152121	-460.151177	-460.197136	35.636	
C	 0.1065490505	 1.5159516999	-0.1480782435	-0.41622
C	 0.0657481089	 0.0289240196	 0.2156297474	 0.130157
O	 0.6626343599	-0.2051820045	 1.4823553186	-0.435256
C	-1.3713244867	-0.5283274614	 0.1521032818	-0.142012
C	-1.640173228	-2.0622658705	-0.0087445211	 0.081934
O	-0.4602027949	-2.7921066346	 0.2235087699	-0.414233
C	-2.6366012802	-2.0232433017	 1.1981552326	-0.377063
C	-2.1374380511	-0.599940921	 1.4805001227	 0.410473
O	-2.1943836673	 0.1334345852	 2.4284116623	-0.318506
H	 1.1277270424	 1.893112622	-0.0488293376	 0.125464
H	-0.2314912803	 1.6869103351	-1.1758832889	 0.109735
H	-0.5410102133	 2.0937158627	 0.5219367802	 0.124996
H	 0.678446639	-0.5421994297	-0.489715608	 0.106801
H	 0.1396328142	 0.2735981435	 2.1375898689	 0.289822
H	-1.9630291423	 0.0255220187	-0.5859790919	 0.103625
H	-2.0999224122	-2.3372377547	-0.966032342	 0.070767
H	-0.6782980168	-3.7293721196	 0.2299129254	 0.288892
H	-3.6936274269	-2.0542369204	 0.9151372389	 0.128042
H	-2.4540086346	-2.7484334485	 1.9958940842	 0.132583
37.8457	54.5209	147.6796	168.255	261.1484	269.5876	292.1313	372.6549	395.4595	414.0234	453.5286	469.2321	535.356	609.959	715.9156	723.1732	823.1363	889.2304	906.5787	964.9531	998.282	1020.409	1056.4954	1074.4569	1093.8989	1120.2985	1166.3557	1202.1516	1213.9806	1235.4797	1274.6775	1314.9316	1334.9221	1342.6597	1401.2885	1411.8031	1427.1139	1438.6616	1492.268	1498.3623	1871.6409	3017.7929	3027.9107	3050.381	3057.9471	3060.7551	3097.9698	3117.0087	3119.8496	3778.7814	3820.7925
CC(O)C1C(O)CC1=O	C[C@@H](O)[C@H]1[C@@H](O)CC1=O	
InChI=1S/C6H10O3/c1-3(7)6-4(8)2-5(6)9/h3-4,6-8H,2H2,1H3	InChI=1S/C6H10O3/c1-3(7)6-4(8)2-5(6)9/h3-4,6-8H,2H2,1H3/t3-,4+,6+/m1/s1
