18
gdb 62150	2.886	0.78895	0.67264	2.276	76.77	-0.2588	0.0177	0.2765	1651.2163	0.144117	-439.038577	-439.028121	-439.027177	-439.075524	36.24	
O	 1.2056338455	 1.6020992841	 0.4954009878	-0.420322
C	 0.5284433734	 0.5524278467	-0.1704896651	 0.117723
C	 1.3338402809	 0.1430047972	-1.41192462	-0.121646
O	 0.6612435158	-0.8517790468	-2.1774901273	-0.178314
C	-0.0976696574	-0.4313740531	-3.212011129	 0.130072
N	-0.8216821116	-1.2529607846	-3.8364041206	-0.438066
C	 0.2435123819	-0.6583900106	 0.7377558871	-0.392852
C	-0.5695223917	-0.3289535164	 1.8999983125	 0.306341
C	-1.2425518826	-0.050918266	 2.8555594183	-0.432895
H	 1.8950935302	 1.219894081	 1.0491615488	 0.287228
H	-0.4280089426	 0.978112901	-0.4965405617	 0.107302
H	 1.5385187689	 1.0363410714	-2.0140356952	 0.119939
H	 2.2938948916	-0.2923912965	-1.1126356612	 0.111589
H	 0.0131217126	 0.6417573851	-3.4238750698	 0.090089
H	-1.3045834631	-0.7823648671	-4.5986746859	 0.232093
H	-0.243627881	-1.4332943567	 0.1349549495	 0.164634
H	 1.2039222675	-1.0882691283	 1.0619262195	 0.11936
H	-1.8392720482	 0.1910460594	 3.6997496724	 0.197725
35.8695	75.3683	78.4354	110.971	146.3701	200.2791	230.7721	333.1591	345.7074	375.8892	413.7389	440.8506	554.5753	622.0238	643.0943	663.9155	819.0333	833.5822	899.2784	973.0347	987.7995	1042.1729	1055.9853	1091.0345	1124.9259	1142.1794	1188.2636	1227.5442	1311.8917	1320.1332	1329.7416	1373.3761	1402.0135	1412.9083	1421.6651	1469.9055	1495.7798	1746.3234	2243.3376	2994.2259	3014.1073	3030.6549	3047.6127	3069.9824	3085.088	3506.7349	3521.441	3807.4264
OC(COC=N)CC#C	O[C@@H](CO[CH][NH])CC#C	
InChI=1S/C6H9NO2/c1-2-3-6(8)4-9-5-7/h1,5-8H,3-4H2	InChI=1S/C6H9NO2/c1-2-3-6(8)4-9-5-7/h1,5-8H,3-4H2/t6-/m1/s1
