22
gdb 110304	2.71733	1.23197	1.03034	1.8378	83.1	-0.2249	0.0751	0.3	1282.3843	0.192614	-404.285547	-404.27586	-404.274916	-404.319768	36.072	
C	-0.1131757239	 1.3681113703	 0.0098145927	-0.242535
O	 0.1791577051	-0.0103715603	 0.0890305931	-0.241131
C	 0.7032085531	-0.5538218305	-1.0964369783	 0.112974
C	 1.2688051148	-1.9593731272	-0.821030085	-0.082039
C	 0.2871665219	-2.5789201499	-1.7851365608	-0.045335
C	-0.3472866585	-1.1994074308	-2.0851670083	-0.055585
C	-1.8006567242	-1.10967253	-1.6326398258	-0.40253
N	 1.7117816446	-2.6377223921	-2.0157917984	-0.086411
C	 2.380312214	-1.9709333899	-3.1227297082	-0.315945
H	 0.7834298152	 1.953352079	-0.2464880374	 0.107617
H	-0.8926169001	 1.589325237	-0.7328405175	 0.10912
H	-0.469204447	 1.6791023662	 0.9950284549	 0.127844
H	 1.4055171684	 0.1597052375	-1.5542226471	 0.058692
H	 1.6217160492	-2.2918257694	 0.1497783119	 0.094783
H	-0.2658101964	-3.5112004714	-1.7121916469	 0.087524
H	-0.2596907745	-0.8741001563	-3.1283223216	 0.063025
H	-1.8992320665	-1.3583284758	-0.5730656824	 0.131948
H	-2.2107335439	-0.1063380011	-1.7829773124	 0.112238
H	-2.4175728691	-1.8076595901	-2.2091065116	 0.111492
H	 1.9713203182	-0.9900792867	-3.403811938	 0.106808
H	 3.435206897	-1.8364896294	-2.8642732423	 0.123976
H	 2.3286509225	-2.6206170291	-4.0019672904	 0.12347
97.5941	129.4075	162.5613	175.2038	186.474	224.9145	259.6177	287.2482	318.4431	386.1062	435.5033	561.6633	573.6793	727.1867	769.547	821.0093	866.3449	917.5541	942.7468	992.7493	1005.4635	1044.131	1068.4586	1078.4416	1111.6215	1123.5376	1158.6032	1164.739	1183.0737	1184.1324	1220.2019	1229.6432	1242.4459	1268.0011	1284.8725	1348.5491	1380.0809	1388.8786	1412.234	1454.874	1480.3168	1485.5475	1494.0474	1497.2596	1499.1067	1500.3478	1511.8014	2972.0533	2983.7231	3001.9317	3030.95	3033.9605	3039.3822	3073.0437	3097.6642	3105.1706	3115.129	3123.8937	3146.5288	3168.5906
COC1C2C(C1C)N2C	CO[C@H]1[C@H]2[C@@H]([C@H]1C)N2C	
InChI=1S/C7H13NO/c1-4-5-6(8(5)2)7(4)9-3/h4-7H,1-3H3	InChI=1S/C7H13NO/c1-4-5-6(8(5)2)7(4)9-3/h4-7H,1-3H3/t4-,5-,6-,7-,8?/m1/s1
