19
gdb 99090	4.25185	0.71949	0.69816	4.0936	75.51	-0.2445	-0.0248	0.2198	1671.958	0.156719	-456.393597	-456.382733	-456.381789	-456.431021	36.809	
C	-0.1118281287	 1.4477226611	 0.1048556677	-0.324671
N	 0.2159807726	 0.0334645242	 0.0785877109	-0.366795
C	 0.5827962091	-0.5731625253	-1.0999138032	 0.512236
O	 0.809452437	 0.0383890851	-2.1298264719	-0.402259
N	 0.6750691403	-1.9584522331	-1.0142671493	-0.390355
C	 1.2924653255	-2.7066577694	-2.0994826916	-0.047624
C	 2.7333402584	-3.1347636791	-1.8244968018	-0.398508
C	 0.3861917626	-3.8759486111	-2.4650561848	 0.15279
O	 0.7690396908	-4.980963522	-2.7485862173	-0.244463
H	 0.4427266125	 1.9327561385	-0.6983492984	 0.17011
H	-1.1818326302	 1.6364418637	-0.0528872651	 0.12311
H	 0.1848412782	 1.8828147966	 1.0634671057	 0.123185
H	-0.1993540024	-0.5451037209	 0.7913013029	 0.237936
H	 0.7826751188	-2.3541647166	-0.0916191504	 0.23533
H	 1.2656540546	-2.0180337572	-2.9559479415	 0.151808
H	 2.7934976939	-3.7562617831	-0.9245095841	 0.115219
H	 3.1142305854	-3.7305741001	-2.6567757919	 0.142591
H	 3.370358969	-2.2573851833	-1.6897801247	 0.128772
H	-0.6960485773	-3.6142150281	-2.4465295111	 0.081589
42.2338	61.1781	71.9711	93.1628	147.3217	174.4068	216.2476	251.2308	315.8447	346.559	377.4066	431.108	486.6364	506.8242	661.4388	738.0327	764.8852	833.9829	924.5872	939.3894	991.9048	1114.612	1117.2521	1145.76	1151.7065	1174.5742	1201.5327	1239.7355	1315.0955	1333.4448	1397.365	1416.0974	1442.2744	1484.0765	1489.9387	1493.1077	1498.8535	1513.5877	1562.3214	1784.7924	1833.9844	2882.981	3017.7765	3030.3509	3045.1193	3087.7892	3115.4528	3140.0294	3159.5878	3599.0084	3627.1777
CNC(=O)NC(C)C=O	CNC(=O)N[C@@H](C)C=O	
InChI=1S/C5H10N2O2/c1-4(3-8)7-5(9)6-2/h3-4H,1-2H3,(H2,6,7,9)	InChI=1S/C5H10N2O2/c1-4(3-8)7-5(9)6-2/h3-4H,1-2H3,(H2,6,7,9)/t4-/m0/s1
