22
gdb 117349	3.68666	0.77314	0.72162	1.7988	79.9	-0.2227	0.0177	0.2405	1699.6055	0.191688	-441.520498	-441.509404	-441.508459	-441.557777	38.875	
C	-0.6856006099	 0.7086947641	 0.5654254862	-0.317507
N	 0.6477825058	 0.37462582	 0.0671916188	-0.259723
C	 1.3801663238	-0.5220194724	 0.9349713535	-0.28532
C	 0.8787997832	-1.9680743567	 0.9299989697	 0.432291
O	 0.1231421061	-2.4195909106	 0.102969356	-0.370932
O	 1.4235802584	-2.6719203024	 1.936286887	-0.254854
C	 1.0977462	-4.088605892	 2.0163544902	 0.146964
C	 2.2767781644	-4.7538960664	 2.7102721706	-0.392131
C	-0.2240249709	-4.2647313302	 2.7556836734	-0.395833
H	-0.5908551986	 1.2764318429	 1.4982660562	 0.117481
H	-1.1891566015	 1.3515116513	-0.1621821993	 0.120011
H	-1.3303201303	-0.163615019	 0.7566003356	 0.110728
H	 0.5530185945	-0.0717102097	-0.839947777	 0.227426
H	 2.4366545802	-0.5546651632	 0.6358881178	 0.130431
H	 1.3686087296	-0.1458500024	 1.9633791375	 0.130004
H	 0.9942464343	-4.4557556927	 0.991420813	 0.10926
H	 2.4041483839	-4.3597054982	 3.7233324867	 0.125634
H	 2.1108798533	-5.8330455381	 2.7793465925	 0.120966
H	 3.2026852646	-4.5818260794	 2.1549842621	 0.124263
H	-0.4667100377	-5.328531027	 2.8416166654	 0.119359
H	-0.1605720991	-3.8435609897	 3.7641273602	 0.120866
H	-1.0339841641	-3.771639388	 2.2139168241	 0.140616
38.178	60.3929	87.3578	129.753	144.6709	206.7355	214.2081	254.1748	284.4086	297.7496	376.2566	407.8239	446.3636	489.7939	587.2158	697.3994	786.6008	829.0289	902.5707	933.3334	946.5647	953.6568	958.88	1007.4884	1137.5557	1142.8578	1156.2718	1162.5929	1200.4865	1204.2591	1230.005	1308.6405	1354.4979	1370.6894	1391.287	1402.4368	1417.9069	1445.9653	1462.4295	1481.3476	1485.9542	1487.9174	1495.3297	1503.7815	1510.8228	1526.7489	1803.5006	2981.4263	3023.9191	3040.1833	3044.4397	3059.8679	3074.1369	3082.2395	3104.7559	3109.8682	3120.2887	3121.5121	3133.9198	3520.6615
CNCC(=O)OC(C)C	CNCC(=O)OC(C)C	
InChI=1S/C6H13NO2/c1-5(2)9-6(8)4-7-3/h5,7H,4H2,1-3H3	InChI=1S/C6H13NO2/c1-5(2)9-6(8)4-7-3/h5,7H,4H2,1-3H3
