21
gdb 98438	2.83713	1.06842	0.99905	3.2254	78.48	-0.2467	-0.0175	0.2292	1333.1326	0.180076	-424.228142	-424.217968	-424.217024	-424.264579	36.011	
C	-0.3628130277	 1.4926092691	-0.1010203131	-0.378368
C	-0.0065243651	 0.0072481994	-0.082488394	-0.28924
C	 0.7889294994	-0.4365975905	-1.3066193897	 0.32858
O	 1.3014923724	 0.368441496	-2.0511315656	-0.307884
C	 0.8882458437	-1.941123899	-1.5580920701	 0.184325
C	 1.4573849863	-2.701712347	-0.3588013818	-0.479228
C	-0.4210550221	-2.5491946635	-2.1494146657	-0.109124
O	 0.2422040661	-2.9118082749	-3.3673282256	-0.269643
C	 1.4888089638	-2.3243785111	-2.9291116047	-0.118063
H	 0.5374472191	 2.1036861909	-0.1939470282	 0.138869
H	-1.0065900394	 1.730537449	-0.952406788	 0.128008
H	-0.886743756	 1.7757993669	 0.815995972	 0.110876
H	 0.6011453714	-0.2298390876	 0.8019735048	 0.131978
H	-0.9018447862	-0.6212460028	 0.0103750768	 0.118024
H	 0.830243669	-2.5889653904	 0.5306221124	 0.124817
H	 1.5185482564	-3.7697976832	-0.5891306289	 0.131913
H	 2.4657751311	-2.3532423258	-0.1101070874	 0.129742
H	-0.8122781753	-3.4200742553	-1.6067455821	 0.10021
H	-1.241849589	-1.8393509079	-2.3208027326	 0.101528
H	 1.7855916291	-1.4704690369	-3.5441734902	 0.127378
H	 2.298754023	-3.0628575853	-2.8962877684	 0.095301
39.9097	46.7377	71.4366	173.4657	190.1835	219.2558	251.3758	294.4089	327.2712	348.7125	430.5718	533.6209	567.0813	706.6263	806.8848	817.2851	861.5684	917.6625	955.2944	965.6896	995.2037	1005.8279	1035.4219	1049.7579	1080.7694	1117.3666	1158.4046	1163.1934	1175.2233	1232.7696	1277.8703	1284.2817	1310.5301	1370.3117	1372.2541	1412.2376	1414.3857	1452.8129	1492.9833	1496.2488	1496.7714	1499.7046	1512.8617	1535.3731	1798.6302	2995.296	3018.9132	3026.8876	3034.0307	3038.403	3048.877	3052.4633	3096.3719	3102.3848	3109.8315	3119.8868	3134.6915
CCC(=O)C1(C)COC1	CCC(=O)C1(C)COC1	
InChI=1S/C7H12O2/c1-3-6(8)7(2)4-9-5-7/h3-5H2,1-2H3	InChI=1S/C7H12O2/c1-3-6(8)7(2)4-9-5-7/h3-5H2,1-2H3
