14
gdb 18685	3.23463	2.35148	1.57021	2.6284	57.52	-0.246	-0.0397	0.2062	784.0633	0.107801	-419.66409	-419.65759	-419.656646	-419.694924	24.291	
O	 0.0253638455	-0.0235624574	-0.2233340359	-0.305125
C	-0.0074987404	 1.1759607541	-0.0955907516	 0.408483
C	-1.2962956279	 1.9851344488	 0.0486771599	-0.195835
O	-1.2796099821	 3.0672673896	-0.8710803589	-0.250486
C	-0.2989828302	 4.0491190129	-0.5919340972	-0.100147
C	 1.079799731	 3.4772993216	-0.3056154343	 0.029194
O	 1.2769728895	 2.9575267306	 1.0040239803	-0.242884
C	 1.235612183	 2.021219183	-0.0901185597	-0.07206
H	-2.144692157	 1.3500989692	-0.2110045272	 0.138636
H	-1.4061162469	 2.3357502033	 1.086818212	 0.122793
H	-0.2583847475	 4.6896184585	-1.4777925587	 0.123559
H	-0.5989810695	 4.6689166128	 0.2689324517	 0.113333
H	 1.931321144	 4.0328507497	-0.698449528	 0.113396
H	 2.1686648384	 1.5101416133	-0.3154765924	 0.117145
94.2955	210.3067	254.3734	374.9157	420.6812	453.2288	504.592	604.8376	723.2977	788.2344	844.5534	872.823	925.8496	968.0587	1017.5881	1033.8069	1077.6345	1130.1147	1165.5395	1224.3799	1257.2336	1271.0739	1313.8092	1344.2453	1361.7893	1405.5612	1434.8753	1470.0597	1486.6693	1829.3	2978.7251	2990.6369	3087.9138	3116.5597	3128.1538	3153.3342
O=C1COCC2OC12	O=C1COC[C@H]2O[C@@H]12	
InChI=1S/C5H6O3/c6-3-1-7-2-4-5(3)8-4/h4-5H,1-2H2	InChI=1S/C5H6O3/c6-3-1-7-2-4-5(3)8-4/h4-5H,1-2H2/t4-,5+/m1/s1
