19
gdb 67610	2.62271	2.18193	1.66133	1.3703	77.11	-0.2427	0.0827	0.3254	884.3721	0.162725	-385.873099	-385.866736	-385.865792	-385.903268	28.02	
O	-0.0722026564	 1.3373131747	 0.1279480224	-0.485172
C	 0.0585654993	-0.0414955084	 0.0494173908	 0.42017
C	-0.4031481787	-0.8801417556	-1.1302889786	-0.151402
C	 0.500052246	-2.0942465369	-1.2373250947	-0.248665
C	 0.8076519127	-2.235165923	 0.249770831	-0.028466
C	-0.5139782511	-2.0577051301	 1.0820013621	-0.04585
C	 0.3339730233	-1.2701796978	 2.1251422184	-0.232495
C	 1.1167219019	-0.8236198499	 0.857983487	-0.118553
C	-1.1325578043	-0.9487067901	 0.2123549265	-0.111777
H	 0.6084238662	 1.7344713362	-0.426325876	 0.280769
H	-0.8780031911	-0.4088552004	-1.9826476395	 0.081197
H	-0.0100493329	-2.9742812373	-1.6461523594	 0.096316
H	 1.3986191206	-1.9064324045	-1.8373443005	 0.091415
H	 1.4649490065	-3.0428972507	 0.5699716339	 0.066895
H	-1.1432211796	-2.9036212882	 1.3599604554	 0.057903
H	-0.1637778748	-0.4966432117	 2.716637656	 0.097689
H	 0.9189849457	-1.9268488958	 2.7757853854	 0.08894
H	 2.126002477	-0.4105371774	 0.9004722075	 0.051636
H	-2.1345412405	-0.564637463	 0.3467417123	 0.089451
237.4975	316.6149	330.495	372.4699	438.3187	529.1153	571.5462	669.4319	703.7061	732.3489	816.032	829.1527	850.0302	873.4981	894.9643	914.8555	937.4154	950.0995	973.7758	992.8826	1014.9056	1020.3973	1039.5282	1052.9952	1077.9066	1102.3003	1147.7565	1160.2932	1198.4103	1217.7695	1223.1427	1242.1519	1250.7519	1272.7152	1275.6526	1317.3901	1318.3988	1340.2145	1449.9662	1491.2282	1500.7343	3028.7754	3050.2672	3069.9282	3097.6244	3107.1037	3108.7634	3124.7369	3188.0802	3211.5152	3792.4131
OC12C3CC4C(CC14)C23	O[C@@]12[C@H]3C[C@@H]4[C@@H](C[C@H]14)[C@@H]23	
InChI=1S/C8H10O/c9-8-5-2-4-3(5)1-6(8)7(4)8/h3-7,9H,1-2H2	InChI=1S/C8H10O/c9-8-5-2-4-3(5)1-6(8)7(4)8/h3-7,9H,1-2H2/t3-,4-,5+,6+,7-,8-/m1/s1
