17
gdb 83695	2.32323	1.82369	1.46328	2.9885	67.26	-0.2552	-0.0394	0.2158	952.872	0.135623	-458.927855	-458.919934	-458.91899	-458.961143	29.387	
O	 0.7496768648	 0.9288489224	 0.3883071484	-0.436168
C	 0.137905066	-0.2768584366	 0.046747652	 0.115901
C	-1.4176265359	-0.3738531333	 0.0420051115	-0.10796
C	-2.1463026214	 0.8081225226	-0.6207900619	-0.095205
O	-2.0835817595	 0.1761604201	-1.9310782468	-0.281196
C	-1.3838886969	-0.9532811015	-1.3970609448	 0.102972
C	 0.182450214	-0.7779374622	-1.4440826093	-0.204226
C	 0.6165726948	 0.1808536389	-2.5110539906	 0.184274
O	 0.8486650671	 1.3563129725	-2.3293167418	-0.274378
H	 0.8236565095	 1.4535057536	-0.4241586562	 0.305164
H	 0.5456377306	-1.0516040667	 0.7055948243	 0.092361
H	-1.9000644418	-0.8519835378	 0.8927592527	 0.082721
H	-3.1854803584	 0.9511725775	-0.3072997308	 0.111724
H	-1.6197734737	 1.7677981366	-0.5951929839	 0.120537
H	-1.793526742	-1.9091946478	-1.7295166958	 0.085343
H	 0.7085434568	-1.728335147	-1.5810082831	 0.096307
H	 0.6958070963	-0.2490279615	-3.5319614738	 0.101826
49.344	75.5586	195.2941	233.6845	254.1418	396.8631	440.3025	547.0728	566.0017	647.6689	731.4239	742.7125	822.2371	854.4402	883.7917	913.2212	951.7347	989.6282	1020.0895	1026.8252	1068.0151	1099.0011	1134.6295	1160.6521	1172.3543	1203.4561	1228.6128	1240.8777	1288.6985	1307.1991	1334.2186	1341.1532	1376.6365	1427.397	1465.4961	1523.4325	1790.4909	2908.6684	3037.927	3038.353	3061.6166	3087.523	3090.1257	3127.0971	3675.9065
OC1C2COC2C1C=O	O[C@H]1[C@H]2CO[C@H]2[C@H]1C=O	
InChI=1S/C6H8O3/c7-1-3-5(8)4-2-9-6(3)4/h1,3-6,8H,2H2	InChI=1S/C6H8O3/c7-1-3-5(8)4-2-9-6(3)4/h1,3-6,8H,2H2/t3-,4+,5+,6-/m0/s1
