20
gdb 22447	2.01079	1.15159	0.92483	2.1956	79.62	-0.2431	-0.0367	0.2065	1379.2755	0.16721	-440.261668	-440.250896	-440.249952	-440.298344	37.811	
C	 0.2108587854	 1.7612058087	 0.004632401	-0.380395
C	 0.0145383784	 0.2351676146	-0.0650286141	-0.270478
C	 0.7010291001	-0.3675844488	-1.265576637	 0.330964
N	 1.9355343958	-0.6958031451	-1.322647307	-0.173834
O	 2.6094265641	-0.4279649971	-0.1222541902	-0.395187
C	-0.1308492488	-0.6213583533	-2.5129833329	-0.130676
C	 0.6861355412	-0.8317856237	-3.7913863876	-0.408973
C	-0.9845437551	-1.8551889844	-2.2183142543	 0.160419
O	-2.1305612602	-1.8296861833	-1.8536450041	-0.246777
H	 1.2717804665	 2.0077619563	 0.0917596491	 0.138074
H	-0.1838805066	 2.2562355731	-0.8886135749	 0.11804
H	-0.31135183	 2.1728514985	 0.8731423025	 0.120034
H	 0.419694023	-0.2231754762	 0.8412077774	 0.129116
H	-1.0528593738	-0.0015977481	-0.1139989141	 0.123083
H	 3.5020211286	-0.7310064449	-0.319480784	 0.307826
H	-0.8287757632	 0.2160422132	-2.626893964	 0.104167
H	 0.02254525	-0.9615342723	-4.6517324358	 0.117549
H	 1.3346294724	 0.0276536831	-3.9756993238	 0.131998
H	 1.3278106624	-1.7121956295	-3.7076126254	 0.138242
H	-0.4346657203	-2.8161560707	-2.3447621906	 0.086808
46.2416	63.7549	75.2792	157.3546	206.4855	209.3048	222.7461	263.0043	296.9154	340.4558	366.5939	407.4007	440.808	502.8531	624.7853	686.9953	765.406	812.9054	891.2521	954.9295	979.9685	983.0879	1052.1492	1072.4982	1096.645	1122.2095	1142.9022	1214.7864	1264.8797	1294.1879	1341.889	1361.2094	1401.7626	1404.8515	1406.4527	1422.1619	1485.5718	1489.3492	1494.2501	1498.405	1508.4005	1717.3707	1826.6559	2871.7771	3041.2216	3047.7288	3049.7579	3055.8422	3097.4724	3112.0795	3121.5317	3130.0896	3132.207	3819.8854
CCC(=NO)C(C)C=O	CCC(=NO)[C@@H](C)C=O	
InChI=1S/C6H11NO2/c1-3-6(7-9)5(2)4-8/h4-5,9H,3H2,1-2H3	InChI=1S/C6H11NO2/c1-3-6(7-9)5(2)4-8/h4-5,9H,3H2,1-2H3/t5-/m0/s1
