22
gdb 120881	4.92295	0.80756	0.75929	1.5397	83.64	-0.2273	0.0859	0.3131	1595.6525	0.193	-404.294721	-404.284991	-404.284047	-404.329666	35.731	
C	-2.7592434851	 1.1389619667	 0.5182130703	-0.224264
O	-2.3814903133	-0.2113674077	 0.4028541102	-0.232781
C	-1.145514507	-0.4939667674	 1.0242461051	-0.071213
C	-0.8635229971	-1.970853494	 0.8196365174	 0.051644
C	-0.4485013029	-2.5084618534	-0.5744874432	-0.327969
C	 0.8018398115	-3.0634391351	 0.1175599509	 0.369791
C	 1.3472764667	-4.4475785134	-0.0683844733	-0.489444
C	 1.5431228746	-1.9615353685	 0.7572388328	-0.287293
N	 0.3751912738	-2.5208712013	 1.4813957592	-0.195079
H	-3.7209158686	 1.2549676356	 0.0122534902	 0.126807
H	-2.8720388697	 1.4435372209	 1.5708665685	 0.104859
H	-2.0256438939	 1.8116099956	 0.0453804599	 0.102205
H	-0.3516548404	 0.1386975633	 0.594398865	 0.081032
H	-1.1863660109	-0.275305184	 2.1053442192	 0.095546
H	-1.7178378659	-2.5264306703	 1.2149167621	 0.092986
H	-1.1234686001	-3.2779748179	-0.95346517	 0.108897
H	-0.2747985478	-1.7748213422	-1.3675221708	 0.10086
H	 1.849767392	-4.5401282743	-1.0388010612	 0.1204
H	 2.073587459	-4.6867058818	 0.7138360242	 0.127929
H	 0.5487524958	-5.1966575841	-0.0317277916	 0.121282
H	 2.4789833869	-2.2047628963	 1.2517383987	 0.116347
H	 1.5065659525	-0.9561302702	 0.3454201465	 0.107458
64.0368	86.9429	114.4743	171.8055	195.658	231.5556	289.9937	297.8714	376.0011	400.2963	458.8385	519.2654	630.7203	718.2462	775.4375	860.1564	881.8831	911.8115	956.1401	966.9905	995.5492	1044.2583	1063.7804	1098.5733	1110.9084	1130.3437	1133.6802	1162.8457	1177.2202	1198.2371	1226.2107	1242.9058	1261.0419	1280.4817	1304.5239	1371.6298	1378.8911	1420.3626	1432.1812	1480.9055	1482.2728	1485.1926	1488.4192	1493.7321	1502.2062	1513.4875	1527.3194	2952.685	2970.2163	2984.3308	3011.704	3025.8602	3055.4092	3073.0559	3086.5272	3108.4502	3110.6668	3112.5989	3116.9631	3193.3978
COCC1CC2(C)CN12	COC[C@H]1C[C@@]2(C)CN12	
InChI=1S/C7H13NO/c1-7-3-6(4-9-2)8(7)5-7/h6H,3-5H2,1-2H3	InChI=1S/C7H13NO/c1-7-3-6(4-9-2)8(7)5-7/h6H,3-5H2,1-2H3/t6-,7+,8?/m1/s1
