19
gdb 117925	3.21301	0.82562	0.73855	1.2914	73.75	-0.2511	-0.0965	0.1546	1575.3872	0.155039	-460.170591	-460.159929	-460.158984	-460.207377	35.992	
C	-0.0142379269	 1.3447077894	-0.0669609945	-0.229169
O	-0.1027785264	-0.0543489729	-0.2001449915	-0.238256
C	-1.3705443312	-0.5596922047	 0.1542821775	-0.059517
C	-1.328469261	-2.0792164319	 0.0033961667	-0.111996
C	-0.3025408674	-2.7275396045	 0.9612484546	-0.411513
C	-2.6955085367	-2.6774778539	 0.2387025983	 0.283283
O	-3.6102137664	-2.1217010506	 0.8053312365	-0.287879
C	-2.9538763549	-4.1015694761	-0.2822246863	 0.097001
O	-2.1659529307	-4.7336652919	-0.9345472702	-0.219754
H	 0.9959892437	 1.6378142712	-0.3622527327	 0.128878
H	-0.7391500684	 1.8624954807	-0.7145475014	 0.106962
H	-0.1909076683	 1.6677704026	 0.9709792505	 0.107163
H	-1.6273254424	-0.2885625762	 1.1906831952	 0.100938
H	-2.1547914717	-0.1323959157	-0.4915260394	 0.094659
H	-1.0278818526	-2.3312102288	-1.0207055498	 0.118453
H	-0.2155989148	-3.8009111458	 0.7802837708	 0.13799
H	 0.6712700391	-2.2621488165	 0.799283463	 0.149597
H	-0.5914760716	-2.5679184091	 2.0055966939	 0.123485
H	-3.9637380813	-4.4743585253	-0.0078081812	 0.109676
47.3166	88.524	95.3321	124.4046	128.6627	203.6127	216.378	227.7332	244.6471	317.4982	350.5177	460.9639	512.676	596.1826	651.5232	785.2614	892.6888	937.3091	985.1811	996.936	1077.0775	1114.9341	1130.9156	1167.122	1172.2688	1196.1993	1233.4889	1268.8988	1323.815	1344.2543	1363.747	1394.8712	1425.4718	1481.5062	1485.6608	1496.9491	1503.4303	1504.9526	1524.5623	1793.2668	1824.4076	2921.098	2965.0684	2976.9574	3000.24	3017.9139	3043.9736	3053.1243	3116.4704	3122.411	3145.6858
COCC(C)C(=O)C=O	COC[C@@H](C)C(=O)C=O	
InChI=1S/C6H10O3/c1-5(4-9-2)6(8)3-7/h3,5H,4H2,1-2H3	InChI=1S/C6H10O3/c1-5(4-9-2)6(8)3-7/h3,5H,4H2,1-2H3/t5-/m1/s1
