19
gdb 70884	2.48698	1.58135	1.39782	1.571	75.71	-0.2255	0.0673	0.2928	1038.1474	0.157578	-422.972528	-422.963728	-422.962783	-423.005219	34.287	
C	-0.1460718237	 1.4301653901	-0.0215402345	-0.504613
C	 0.0134391734	-0.0601010523	-0.0474537607	 0.296937
C	 0.98140549	-0.8839905457	-0.9029438304	-0.346743
C	 0.137420532	-2.1197133373	-0.4773830399	 0.307659
O	-0.0409480322	-3.2204000781	-1.300170236	-0.482445
C	 0.4185704521	-2.2617056552	 1.0473626957	-0.295629
C	-0.3308581634	-0.9400715139	 1.2006121644	-0.197362
C	-1.0495616119	-1.1106441146	-0.1191687842	 0.291742
O	-2.3494145819	-0.9909969107	-0.5285240813	-0.449857
H	 0.7300540478	 1.9201858545	 0.4188398005	 0.116634
H	-0.2810830518	 1.8309393118	-1.0323545998	 0.121649
H	-1.022672199	 1.7197208739	 0.5672371822	 0.123256
H	 0.8481974274	-0.6647070765	-1.9665468577	 0.102293
H	 2.048627505	-0.8850775334	-0.6465806279	 0.078631
H	 0.81483591	-3.6415026818	-1.440286908	 0.280435
H	-0.1408232861	-3.0989465892	 1.4752870792	 0.095763
H	 1.4680711699	-2.3117464855	 1.3611684128	 0.083075
H	-0.6907306176	-0.4674532109	 2.1057428942	 0.085709
H	-2.8611325999	-1.7135572851	-0.1466998286	 0.292866
160.3385	175.3507	188.9449	195.085	211.883	287.2357	335.1961	384.441	400.3491	486.8386	541.1176	565.699	621.5037	684.4709	744.938	785.2896	865.8489	901.2307	922.6107	930.2428	974.0948	1008.8419	1057.9139	1074.9182	1096.5834	1133.3232	1157.3171	1178.661	1203.2481	1234.7171	1242.8145	1282.3526	1293.9352	1348.7764	1379.9196	1418.1864	1478.2101	1486.0528	1491.9745	1498.8209	1532.7664	3015.5654	3023.7363	3028.8049	3083.2342	3091.3986	3094.2104	3097.0685	3196.4225	3782.958	3793.2585
CC12CC3(O)CC1C23O	C[C@@]12C[C@@]3(O)C[C@@H]1[C@@]23O	
InChI=1S/C7H10O2/c1-5-3-6(8)2-4(5)7(5,6)9/h4,8-9H,2-3H2,1H3	InChI=1S/C7H10O2/c1-5-3-6(8)2-4(5)7(5,6)9/h4,8-9H,2-3H2,1H3/t4-,5+,6-,7+/m0/s1
