23
gdb 100957	2.14718	1.12962	0.95949	1.2028	81.64	-0.2528	0.0679	0.3207	1391.6276	0.202312	-425.414005	-425.402851	-425.401907	-425.450367	40.532	
C	 1.7531537865	 2.5731059814	-0.0180062484	-0.423546
C	 0.7275602349	 1.508196734	 0.4031490176	-0.052696
C	 0.0204015959	 0.8741905526	-0.8074437075	-0.076943
O	-0.76996243	 1.8044650901	-1.5316432541	-0.422274
C	 1.3590564084	 0.4521272484	 1.3069873947	 0.397936
C	 2.4285709134	-0.4322526762	 0.6920221996	-0.474804
O	 1.6950798382	 0.9278149499	 2.6254178063	-0.311871
C	 0.6595965334	-0.0570207139	 2.5073594572	 0.023249
C	-0.7241503685	 0.3172283026	 2.9751627846	-0.430643
H	 2.5139923639	 2.1688147757	-0.6953139571	 0.112749
H	 1.2593070299	 3.4070444075	-0.5273996	 0.108099
H	 2.2618215588	 2.9800426524	 0.8600455854	 0.140165
H	-0.0481291363	 2.0184344698	 0.9808705942	 0.086921
H	 0.753531568	 0.3851933513	-1.4679474208	 0.08806
H	-0.6750103157	 0.0997188134	-0.4656414672	 0.109351
H	-0.1754569606	 2.4171546235	-1.9744440167	 0.284679
H	 3.2401718416	 0.1642934813	 0.2642636113	 0.125951
H	 2.8595167985	-1.0823819869	 1.4570319113	 0.128048
H	 2.018728824	-1.0622423271	-0.1043833649	 0.122815
H	 0.9737196036	-1.0480829248	 2.8465095203	 0.078983
H	-1.0306958897	 1.305717279	 2.6299632911	 0.133361
H	-1.4562441079	-0.4189069212	 2.6253131569	 0.122465
H	-0.7548644105	 0.3209707371	 4.0700357462	 0.129945
39.3998	90.6881	143.4989	173.7717	186.6706	213.5687	218.6399	255.0442	272.4977	291.4543	318.9927	365.0639	461.7243	471.4774	499.0701	547.9228	724.6289	765.9878	863.1507	900.5929	914.4455	939.6912	994.5115	1023.7472	1057.7932	1078.3357	1089.3144	1119.6604	1131.5652	1143.8058	1172.3787	1235.8451	1270.9923	1288.4819	1342.4008	1382.6361	1392.5331	1404.0917	1410.6856	1417.0844	1424.2693	1460.4866	1482.0575	1489.3252	1495.3439	1500.7144	1503.2785	1512.3962	1515.2721	2982.4556	3031.6178	3038.6361	3041.8877	3063.2967	3065.4017	3074.511	3096.6929	3097.2415	3106.3327	3116.4017	3124.296	3140.1536	3828.8046
CC(CO)C1(C)OC1C	C[C@@H](CO)[C@@]1(C)O[C@H]1C	
InChI=1S/C7H14O2/c1-5(4-8)7(3)6(2)9-7/h5-6,8H,4H2,1-3H3	InChI=1S/C7H14O2/c1-5(4-8)7(3)6(2)9-7/h5-6,8H,4H2,1-3H3/t5-,6-,7+/m0/s1
