17
gdb 69386	3.44646	1.17626	0.99928	4.1362	76.93	-0.2472	-0.0565	0.1907	1184.8786	0.135255	-421.833736	-421.825696	-421.824752	-421.866235	30.934	
O	-0.1850748843	 1.3906901643	 0.0588100213	-0.466486
C	-0.0865705713	 0.0008800958	 0.0455656475	 0.394875
C	-0.4287523969	-0.7583433123	-1.2063822366	-0.340693
C	-1.343630969	-0.8433952591	 0.011130551	-0.199589
C	-1.0770159876	-1.9861061413	 0.9308657069	 0.260655
C	-2.0371604037	-3.0538533281	 1.2215219297	 0.066047
O	-3.1545406503	-3.1149496833	 0.758469109	-0.270313
C	 0.1523224955	-1.9051220822	 1.472354254	-0.16241
C	 0.8799020502	-0.6583921424	 1.0389318666	-0.341437
H	 0.4917574716	 1.7468448642	-0.5269141237	 0.284866
H	-0.800098575	-0.1601921128	-2.0318151264	 0.119243
H	 0.1480225447	-1.6339561813	-1.4886851036	 0.111618
H	-2.3339271358	-0.4119532013	-0.0548393645	 0.116668
H	-1.6628707976	-3.8270002002	 1.9298464342	 0.066633
H	 0.5796761528	-2.6382480106	 2.1485653677	 0.112522
H	 1.8633301053	-0.8778860295	 0.6038826876	 0.117158
H	 1.0550687115	 0.0126336302	 1.8909945794	 0.130644
99.68	164.4988	185.2182	268.2754	299.2718	333.4978	390.7938	417.331	478.0872	567.3669	610.4556	703.8004	753.9238	814.6509	819.1626	895.0839	916.9969	968.4216	979.1985	1000.77	1017.5769	1039.4854	1064.0216	1082.3481	1148.0302	1192.3821	1237.9903	1241.0329	1303.1767	1309.6555	1381.6212	1404.5863	1421.9157	1456.8463	1479.0241	1660.6136	1786.4598	2876.5029	3018.2981	3050.1106	3121.239	3191.2503	3204.8927	3217.5101	3797.191
OC12CC1C(C=O)=CC2	O[C@]12C[C@H]1C(=CC2)C=O	
InChI=1S/C7H8O2/c8-4-5-1-2-7(9)3-6(5)7/h1,4,6,9H,2-3H2	InChI=1S/C7H8O2/c8-4-5-1-2-7(9)3-6(5)7/h1,4,6,9H,2-3H2/t6-,7+/m0/s1
