19
gdb 72135	2.13156	2.06036	1.7289	0.2661	74.26	-0.2388	0.0843	0.3231	942.0324	0.15882	-422.993907	-422.986138	-422.985194	-423.025575	31.227	
C	 0.0785641861	 1.5080447456	-0.1285812635	-0.524037
C	-0.0211186893	 0.0169065661	-0.0639244907	 0.378182
O	 0.4838485861	-0.728362393	-1.1788964671	-0.330739
C	-0.2049256248	-1.8737777801	-0.5961809755	-0.004653
C	 0.6690408327	-2.1594651595	 0.6364320293	-0.216243
C	 0.2995366102	-0.8096548222	 1.2737993799	-0.004682
O	-1.1304770282	-0.9800777954	 1.501640978	-0.330735
C	-1.2685472693	-0.8795372386	 0.0788127165	 0.378189
C	-2.6472327176	-0.6882261782	-0.4691271874	-0.52404
H	 1.1263658155	 1.826398573	-0.1248733658	 0.133017
H	-0.3918934924	 1.8920393489	-1.0385241999	 0.130936
H	-0.4183170353	 1.951960091	 0.7392496229	 0.135803
H	-0.4503583709	-2.6553177122	-1.3128560188	 0.080741
H	 0.3382373441	-2.9901338495	 1.2628182531	 0.108878
H	 1.7173628447	-2.2725379035	 0.3535214103	 0.108878
H	 0.8419578922	-0.4187871461	 2.1326746761	 0.080741
H	-3.1317736541	 0.1801968302	-0.0132497068	 0.13097
H	-2.5993160276	-0.5370767753	-1.5517014382	 0.135825
H	-3.267853392	-1.5687339412	-0.2722006924	 0.132969
177.51	193.7136	202.8172	247.9388	269.8432	302.3793	477.9774	524.3097	524.4398	632.6245	651.3132	715.0776	775.7954	794.0758	856.6839	866.3655	896.1059	921.6152	930.4139	944.7111	975.9546	998.6869	1097.4541	1108.5836	1123.3434	1130.7059	1148.4391	1176.0302	1229.3931	1257.206	1279.6171	1307.8277	1322.4793	1378.9732	1410.0709	1424.5383	1461.8865	1478.0799	1478.9771	1491.9606	1496.8063	3037.7586	3038.9641	3077.7132	3106.2266	3107.4085	3117.7163	3118.9078	3139.653	3142.7556	3143.9466
CC12OC3CC1OC23C	C[C@@]12O[C@H]3C[C@@H]1O[C@@]23C	
InChI=1S/C7H10O2/c1-6-4-3-5(8-6)7(6,2)9-4/h4-5H,3H2,1-2H3	InChI=1S/C7H10O2/c1-6-4-3-5(8-6)7(6,2)9-4/h4-5H,3H2,1-2H3/t4-,5-,6+,7+/m0/s1
