13
gdb 9596	4.07242	1.27377	1.20743	4.1055	61.15	-0.2661	-0.045	0.2211	992.7892	0.093361	-398.596564	-398.588695	-398.58775	-398.62903	27.892	
O	 0.0377234061	 1.3867593385	-0.0436365723	-0.438632
C	 0.0338610043	-0.0066689246	-0.0074475197	 0.244782
C	-0.5145664163	-0.7095988517	 1.2051282042	-0.346454
C	-1.3391947217	-0.6660347999	-0.0713782869	-0.148114
C	-2.5544016224	 0.200692551	-0.1119120364	 0.172026
O	-3.5528409884	-0.0995412071	-0.7135836249	-0.251676
C	 1.1102619347	-0.6399516436	-0.7427610305	 0.253314
N	 1.9894861893	-1.1279325952	-1.313572577	-0.32852
H	 0.8008314427	 1.703681861	 0.4541739559	 0.304689
H	-0.0905827573	-1.6605744288	 1.5032961942	 0.156296
H	-0.8282849972	-0.0569489162	 2.0132949427	 0.144388
H	-1.4193455031	-1.5744872596	-0.6563893527	 0.141428
H	-2.4790688906	 1.1404136562	 0.4716320835	 0.096473
85.8151	121.7402	173.1071	241.4662	296.7654	320.2763	403.8397	428.4939	465.1873	577.2098	623.6193	679.2544	849.8591	876.7957	915.6446	1004.2167	1034.6934	1069.2413	1079.3058	1169.0743	1221.0853	1258.4593	1326.0242	1377.3364	1437.6132	1466.0429	1824.6508	2352.182	2931.4033	3140.321	3196.6612	3240.5974	3792.9768
OC1(CC1C=O)C#N	O[C@]1(C[C@H]1C=O)C#N	
InChI=1S/C5H5NO2/c6-3-5(8)1-4(5)2-7/h2,4,8H,1H2	InChI=1S/C5H5NO2/c6-3-5(8)1-4(5)2-7/h2,4,8H,1H2/t4-,5+/m0/s1
