20
gdb 12522	3.04823	1.88281	1.31862	0.0403	82.63	-0.2324	0.0243	0.2568	1000.6441	0.178856	-311.88017	-311.872259	-311.871315	-311.91289	30.406	
C	-0.8484716305	 1.2975500671	 0.084248603	-0.379897
C	 0.0456593865	 0.0328470416	-0.0003975571	-0.077473
C	 0.6683104001	-0.0379955794	-1.3721055998	-0.043298
C	 1.9222341218	 0.1744068506	-1.7682189465	-0.072235
C	 3.1225028503	 0.4993722031	-0.9158458621	-0.247487
C	 3.2976329395	-0.3923264628	 0.323640493	-0.241306
C	 2.2277884139	-0.2565703061	 1.3752888434	-0.08011
C	 0.9169296726	-0.0676362023	 1.2260553768	-0.030017
H	-0.2374997019	 2.2034196902	 0.0294835279	 0.123353
H	-1.5679955289	 1.3218711122	-0.7400538926	 0.111889
H	-1.4090585951	 1.3178812383	 1.0246790305	 0.111028
H	-0.6494055907	-0.8213991762	 0.0674009589	 0.090755
H	-0.0649188154	-0.2440326187	-2.151812285	 0.080395
H	 2.1145603633	 0.1135399875	-2.8378292201	 0.08075
H	 4.024297697	 0.4167221238	-1.5327950928	 0.095041
H	 3.0776519408	 1.5474818936	-0.5898726474	 0.112366
H	 3.3689494874	-1.440342029	 0.0001732868	 0.11262
H	 4.2650244561	-0.159509947	 0.784750991	 0.095408
H	 2.5889759172	-0.3358368195	 2.3995069094	 0.079845
H	 0.3321841362	 0.0017954329	 2.1439213026	 0.078374
31.7968	168.6903	223.2793	247.4062	299.0217	359.3766	388.0001	474.9347	551.2748	642.8495	716.8153	734.783	775.2353	821.2669	842.2764	887.6525	952.9744	994.7363	996.7538	1014.6326	1022.7466	1044.3985	1075.4511	1083.8879	1155.8525	1191.8197	1264.3462	1268.4161	1292.0673	1303.5054	1355.1205	1377.1069	1396.425	1399.3271	1428.2197	1447.9103	1478.536	1483.2464	1494.9504	1499.1387	1736.7562	1745.1125	2954.2812	3006.9973	3014.7055	3031.9942	3048.1937	3058.1164	3101.9012	3109.6255	3112.4517	3116.5731	3139.6516	3145.9092
CC1C=CCCC=C1	C[C@H]1C=CCCC=C1	
InChI=1S/C8H12/c1-8-6-4-2-3-5-7-8/h4-8H,2-3H2,1H3	InChI=1S/C8H12/c1-8-6-4-2-3-5-7-8/h4-8H,2-3H2,1H3
