19
gdb 94244	3.14198	1.00197	0.91914	2.5498	72.1	-0.2403	-0.022	0.2184	1318.8309	0.156396	-460.157212	-460.14745	-460.146506	-460.192767	35.173	
O	 0.3479498983	 1.0357144413	-0.5765309236	-0.436752
C	 0.1266411799	-0.1761050614	 0.0993157145	 0.107154
C	 0.103150061	-0.2036108637	 1.6498541877	-0.273158
C	-1.1466107311	-1.1252504946	 1.5802429297	-0.25413
C	-1.3428466939	-0.7230433626	 0.0968940748	 0.353206
O	-2.2549501962	 0.3684427952	 0.0405297569	-0.484939
C	-1.7101151637	-1.8074580074	-0.92159779	-0.358762
C	-3.0828892546	-2.3920408493	-0.6632317783	 0.164308
O	-3.3000566487	-3.5650335305	-0.4920700815	-0.243758
H	-0.1365097038	 1.716937539	-0.0964365703	 0.282477
H	 0.8295395426	-0.9008041264	-0.3214002305	 0.092956
H	 0.9926486544	-0.5818274083	 2.1567536443	 0.108964
H	-0.1416706382	 0.7805398522	 2.0600778108	 0.106412
H	-0.9025829739	-2.184700905	 1.6865541293	 0.116696
H	-1.9820351954	-0.8827570332	 2.2387292292	 0.119662
H	-2.0888632943	 0.820011286	-0.7972847121	 0.278164
H	-1.7091107581	-1.3556429353	-1.9253753088	 0.114121
H	-0.9770916922	-2.6193706119	-0.9130443456	 0.118281
H	-3.9013774622	-1.6417014242	-0.6259603964	 0.089099
42.3861	79.0656	106.2641	145.0791	156.7787	261.9075	275.2442	355.409	385.7273	450.5002	489.575	561.4962	603.6892	642.3998	731.1155	776.8616	845.3694	912.5254	927.5578	956.4192	963.6543	1006.7901	1065.5387	1083.0923	1123.7316	1143.6679	1167.167	1205.3749	1237.2288	1244.986	1258.006	1300.7694	1305.5315	1324.1938	1382.4672	1424.2096	1428.7001	1454.8382	1470.0439	1487.7348	1827.3957	2907.2386	3002.9036	3062.2776	3074.1092	3077.0299	3095.9477	3119.5247	3137.1897	3764.3383	3798.7047
OC1CCC1(O)CC=O	O[C@H]1CC[C@]1(O)CC=O	
InChI=1S/C6H10O3/c7-4-3-6(9)2-1-5(6)8/h4-5,8-9H,1-3H2	InChI=1S/C6H10O3/c7-4-3-6(9)2-1-5(6)8/h4-5,8-9H,1-3H2/t5-,6-/m0/s1
