14
gdb 127293	5.41387	1.33642	1.07932	3.5793	70.92	-0.2369	-0.0202	0.2166	1045.2069	0.104079	-432.880255	-432.873452	-432.872507	-432.91193	25.24	
C	 0.0219046488	 1.3835129898	 0.0661381934	-0.315663
N	-0.0242261636	-0.0613836866	-0.0210699403	 0.051364
C	-0.1129960927	-0.8011203354	-1.1773974501	-0.216336
C	-0.0230582635	-2.0972247061	-0.7354026211	 0.247479
O	-0.0384325272	-3.4084578295	-1.1102577028	-0.221184
C	 0.0971631703	-4.0571036151	 0.1053625632	 0.053554
N	 0.1884681388	-3.3287630253	 1.1661464495	-0.328314
C	 0.1139738355	-2.0365414994	 0.6532730081	 0.350747
N	 0.119794228	-0.7886726124	 1.1144798238	-0.371587
H	 1.0537426607	 1.7422178864	 0.141027707	 0.148195
H	-0.4446929516	 1.8118855445	-0.8229674224	 0.139509
H	-0.5280456707	 1.6984671709	 0.9540220144	 0.162266
H	-0.2269925669	-0.3335808223	-2.140087357	 0.145934
H	 0.115348454	-5.1345773697	 0.0435335243	 0.154035
67.4765	149.3289	272.3483	309.7102	364.0073	549.8108	583.0921	610.9668	620.9189	737.5277	769.9169	787.1631	857.392	860.4948	928.3353	993.3444	1050.04	1076.7746	1146.297	1159.6802	1187.025	1317.1006	1337.2694	1427.1298	1458.4646	1467.4108	1480.6247	1511.4704	1523.3995	1564.3352	1646.5776	3044.5453	3118.8617	3153.6316	3272.9561	3279.7916
CN1C=C2OC=NC2=N1	Cn1cc2ocnc2n1	
InChI=1S/C5H5N3O/c1-8-2-4-5(7-8)6-3-9-4/h2-3H,1H3	InChI=1S/C5H5N3O/c1-8-2-4-5(7-8)6-3-9-4/h2-3H,1H3
