17
gdb 55987	3.48723	0.97923	0.80823	4.7418	70.6	-0.2395	-0.0386	0.2008	1361.2597	0.135794	-455.170675	-455.161784	-455.16084	-455.205395	32.184	
N	 0.0588531036	 0.4718933142	 0.9160200659	-0.505818
C	 0.1002545797	 0.0074311768	-0.3672819375	 0.358475
O	 0.9535748693	 0.3273998176	-1.1704194168	-0.353607
C	-1.0530383235	-0.9400526377	-0.7123019472	-0.284805
C	-1.0122082819	-2.2459276306	 0.087609117	-0.106792
N	-1.2324173912	-2.1080172141	 1.566505076	-0.33646
C	-2.3696596169	-3.0746043756	 1.5678311226	-0.288358
C	-2.2822190827	-3.1188941739	 0.0334931791	 0.387548
O	-2.9389166958	-3.5932776915	-0.8413466966	-0.277068
H	 0.8386962235	 1.0208262229	 1.2406507825	 0.254777
H	-0.5534716071	 0.0256091884	 1.5851251247	 0.261981
H	-2.0066122597	-0.4347537163	-0.5222007405	 0.119428
H	-0.9870284779	-1.1673221043	-1.7776598347	 0.142345
H	-0.1120851881	-2.8193688948	-0.1724349214	 0.115454
H	-0.441173994	-2.4359583261	 2.1082953382	 0.234559
H	-2.1630860909	-4.0466888419	 2.0325501814	 0.134817
H	-3.3005198265	-2.6768348531	 1.9850315472	 0.143526
46.3277	84.3356	109.8935	138.6477	217.1275	338.0855	419.6916	423.2986	485.5476	512.1508	564.8023	615.7807	678.1671	720.2336	793.0302	828.9782	863.2651	902.6475	963.5986	1000.0727	1018.8033	1083.4729	1096.8609	1105.1186	1140.3477	1205.4037	1221.3967	1266.8845	1313.4856	1340.32	1361.5984	1370.611	1467.6282	1470.9533	1618.3748	1807.4976	1916.7408	3019.8095	3031.223	3050.9368	3083.3614	3131.3282	3539.6914	3543.9296	3695.3543
NC(=O)CC1NCC1=O	NC(=O)C[C@H]1NCC1=O	
InChI=1S/C5H8N2O2/c6-5(9)1-3-4(8)2-7-3/h3,7H,1-2H2,(H2,6,9)	InChI=1S/C5H8N2O2/c6-5(9)1-3-4(8)2-7-3/h3,7H,1-2H2,(H2,6,9)/t3-/m1/s1
