21
gdb 114238	3.53873	0.91724	0.88361	1.244	80.01	-0.223	0.0695	0.2925	1445.1602	0.180559	-424.192983	-424.183432	-424.182488	-424.227822	35.808	
C	 0.3899127506	 1.3011022338	-0.3287194612	-0.381261
C	 0.1227532002	-0.1714184759	-0.0054775835	-0.185607
C	 0.4422172192	-0.51710429	 1.4377349575	 0.152019
C	 0.5115381162	-2.0144099171	 1.8240145128	-0.383718
C	 1.9728057328	-1.711838686	 2.1105631504	 0.452954
C	 2.850945945	-2.1926940234	 3.2283622148	-0.404628
C	 3.1640333566	-2.5370950626	 1.7757927218	 0.016016
O	 2.910521599	-3.8223334185	 1.2888139121	-0.421169
O	 1.8579685942	-0.3396459924	 1.7488898292	-0.325319
H	 1.4342486616	 1.5518500172	-0.1218717618	 0.136265
H	 0.1875224825	 1.5194176913	-1.3814151025	 0.110824
H	-0.2404261845	 1.9614807785	 0.277418513	 0.111631
H	-0.9308575117	-0.4202783263	-0.1915551101	 0.094772
H	 0.7219258013	-0.8154526329	-0.6608324744	 0.103163
H	-0.1645003111	 0.0932693819	 2.1201386594	 0.073545
H	-0.0893328812	-2.3074088949	 2.6865372706	 0.108146
H	 0.3434379864	-2.7154994502	 1.0042733443	 0.123503
H	 3.4944703376	-1.4705872369	 3.7202742027	 0.121729
H	 2.4600076037	-2.9828235971	 3.8624799064	 0.11443
H	 4.0082380398	-2.0148371321	 1.3241730612	 0.094101
H	 3.5656758714	-4.4195693264	 1.6654667873	 0.288604
40.0147	99.5209	147.491	186.7308	234.4446	247.6782	292.322	356.8065	390.2466	426.5645	455.9725	511.0039	585.8409	759.3939	800.8934	820.3594	873.6666	888.5365	911.5826	949.8954	975.3732	990.5199	1001.478	1018.7415	1071.3721	1095.5657	1106.9206	1132.966	1166.5034	1196.7349	1212.2565	1241.1656	1279.1106	1291.7586	1308.2336	1343.6825	1352.3565	1403.5565	1407.6301	1417.3527	1475.2574	1487.8789	1498.4914	1505.4733	1509.6918	3010.0752	3018.3686	3035.4031	3060.1769	3076.3873	3098.362	3102.1726	3118.0427	3121.7418	3130.5675	3217.435	3798.2925
CCC1CC2(CC2O)O1	CC[C@H]1C[C@]2(C[C@H]2O)O1	
InChI=1S/C7H12O2/c1-2-5-3-7(9-5)4-6(7)8/h5-6,8H,2-4H2,1H3	InChI=1S/C7H12O2/c1-2-5-3-7(9-5)4-6(7)8/h5-6,8H,2-4H2,1H3/t5-,6+,7+/m0/s1
