18
gdb 19921	4.28006	2.06278	1.6943	0.4399	77.42	-0.2169	0.02	0.2369	817.3115	0.156571	-310.636531	-310.630356	-310.629411	-310.666422	25.947	
C	-0.0134096158	 1.4706567351	 0.1041767873	-0.282184
C	 1.3605106836	 0.8332863716	 0.0118321271	-0.058527
C	 1.9536093564	 0.5226077981	 1.3551809403	-0.23569
C	 1.2728896802	-0.473728811	 1.9252112093	 0.26779
C	 0.6499466783	-0.896673825	 3.2375623068	-0.308455
C	-0.7103425187	-0.8716870299	 2.4451895453	-0.24657
C	 0.1070212212	-0.9574793708	 1.0979451602	-0.032046
C	 0.0806901507	-0.0194868147	-0.0946097652	-0.070677
H	-0.3236521407	 1.8675665444	 1.065487186	 0.107368
H	-0.3580372669	 2.0456328307	-0.7495265724	 0.107286
H	 1.9805509797	 1.0530803529	-0.8512013148	 0.082517
H	 2.6944065977	 1.1581304912	 1.8277792435	 0.089408
H	 0.9117868157	-1.9170336725	 3.5376438897	 0.108926
H	 0.7603536097	-0.2331412959	 4.0981076019	 0.107492
H	-1.4113963171	-1.6851147099	 2.6455842474	 0.099593
H	-1.2195248274	 0.0882577148	 2.5546517147	 0.110748
H	 0.1852138724	-2.005210716	 0.7835551492	 0.072454
H	-0.2238309691	-0.4062737429	-1.0598856164	 0.080566
188.5158	211.3069	345.0949	419.673	481.8709	647.7221	663.8373	676.9831	767.8208	783.2674	809.5767	834.078	857.6554	896.9253	898.9335	935.4224	972.1456	994.8098	1044.6055	1063.825	1068.0074	1074.8662	1094.4492	1102.235	1124.2068	1181.0741	1192.7384	1215.6586	1236.1277	1251.9007	1280.0733	1328.3461	1344.7875	1373.9476	1470.8882	1476.6755	1486.0168	1706.4324	3026.1564	3045.4179	3064.107	3104.7254	3121.8263	3128.4802	3157.5275	3177.2373	3190.3767	3208.2864
C1C2C=C3CCC3C12	C1[C@H]2[CH][C]3CC[C@H]3[C@@H]12	
InChI=1S/C8H10/c1-2-7-5(1)3-6-4-8(6)7/h3,6-8H,1-2,4H2	InChI=1S/C8H10/c1-2-7-5(1)3-6-4-8(6)7/h3,6-8H,1-2,4H2/t6-,7-,8+/m1/s1
