16
gdb 9497	2.92389	1.7026	1.53551	5.0997	65.09	-0.2566	0.0183	0.2749	903.1207	0.130507	-379.911629	-379.903475	-379.902531	-379.943822	30.499	
N	 0.0071263009	 1.4764126584	-0.0497762652	-0.546997
C	 0.0227245057	 0.0188324185	-0.037447474	 0.089365
C	 0.1728327398	-0.5447526444	 1.4102572909	-0.248724
C	-1.36170721	-0.7743502675	 1.4696363192	-0.285829
C	-1.4013764006	-0.684775916	-0.0779530281	 0.130523
O	-2.4441393058	-0.0239906079	-0.7259093512	-0.415524
C	 0.9781438467	-0.4654634394	-1.0327867786	 0.272116
N	 1.7021241622	-0.8957861724	-1.8247752047	-0.340425
H	-0.4239466016	 1.824736152	-0.9014877293	 0.244835
H	-0.5072991699	 1.8429156015	 0.7441518896	 0.232852
H	 0.7399848996	-1.4761257994	 1.4250065649	 0.135781
H	 0.6178158151	 0.1524793354	 2.1225054803	 0.123414
H	-1.7221714461	-1.6985877086	 1.9233467787	 0.120109
H	-1.8900309704	 0.0637677227	 1.9362946625	 0.099679
H	-1.3246910813	-1.6715165125	-0.5404824574	 0.116686
H	-2.5482980044	 0.8441172996	-0.3201403677	 0.272139
108.3399	151.7327	191.7015	247.4594	251.3172	333.3857	365.5255	392.6231	503.0865	538.5059	587.7684	618.5549	719.597	785.2911	802.1708	917.0732	930.6934	959.2609	994.1442	1041.3562	1082.5937	1149.2968	1176.1478	1221.9531	1238.0594	1256.2735	1276.4053	1319.0397	1346.5742	1431.2859	1479.4275	1493.4182	1650.0263	2352.8892	3053.1361	3083.2583	3093.4851	3122.8711	3144.5202	3493.2493	3587.1067	3795.3358
NC1(CCC1O)C#N	N[C@]1(CC[C@H]1O)C#N	
InChI=1S/C5H8N2O/c6-3-5(7)2-1-4(5)8/h4,8H,1-2,7H2	InChI=1S/C5H8N2O/c6-3-5(7)2-1-4(5)8/h4,8H,1-2,7H2/t4-,5-/m1/s1
