21
gdb 74673	3.94507	1.31362	1.26181	0.2736	87.63	-0.205	0.0254	0.2304	1111.8661	0.185344	-349.947366	-349.940067	-349.939122	-349.978662	30.451	
C	-0.0504147237	 1.4535840003	 0.0791128408	-0.51333
C	-0.0089209947	-0.0332373991	-0.0023322636	 0.332369
C	-0.0429175511	-0.8695581668	-1.0458715665	-0.218508
C	 0.0368008519	-2.2512293815	-0.4095356241	-0.067668
C	-0.9292474337	-2.1322056287	 0.8296636827	 0.007457
C	-0.5888465128	-3.3044301115	 1.7480071764	-0.236235
C	 0.969943591	-3.255848876	 1.6582206147	-0.236231
C	 1.1293375043	-2.0680429874	 0.7110969769	 0.007448
C	 0.0895436632	-0.985572285	 1.1913060199	-0.124147
H	 0.8467801736	 1.8554410461	 0.5681208341	 0.123564
H	-0.1235122599	 1.9050018711	-0.9146280182	 0.122905
H	-0.9065732056	 1.8008086397	 0.6723778196	 0.123527
H	-0.1106910454	-0.6491409026	-2.1023592246	 0.090873
H	 0.0276085998	-3.1368574026	-1.0483486867	 0.049927
H	-1.9809328713	-1.8855831285	 0.6686741599	 0.054951
H	-0.9577040235	-3.1552330912	 2.7678006807	 0.094789
H	-1.0029113428	-4.2501758569	 1.3841411937	 0.095484
H	 1.443370465	-3.0804064878	 2.6294987701	 0.094788
H	 1.3974306979	-4.1753661953	 1.2458775521	 0.095483
H	 2.1382689739	-1.7571907319	 0.4314326559	 0.054948
H	 0.1345216941	-0.5658708546	 2.1994197861	 0.047608
161.5377	184.3755	235.0359	263.5303	378.4059	405.7839	530.9441	550.9976	664.7635	666.0839	776.3116	800.1455	818.0518	841.0305	908.2867	912.4214	922.5695	943.419	950.3893	954.5855	1010.9809	1018.7469	1027.9524	1039.3532	1059.6162	1081.0829	1110.7821	1180.6435	1189.8245	1204.2805	1211.5494	1234.3728	1253.9719	1255.0848	1260.3274	1279.3278	1312.413	1318.8656	1354.6399	1414.0454	1478.2345	1487.5481	1488.4504	1507.6432	1695.2888	3010.5684	3040.0872	3049.6613	3052.9963	3073.6227	3081.2207	3089.5007	3092.9984	3093.6067	3102.2549	3103.6832	3222.6313
CC1=CC2C3CCC2C13	CC1=C[C@@H]2[C@H]3CC[C@@H]2[C@@H]13	
InChI=1S/C9H12/c1-5-4-8-6-2-3-7(8)9(5)6/h4,6-9H,2-3H2,1H3	InChI=1S/C9H12/c1-5-4-8-6-2-3-7(8)9(5)6/h4,6-9H,2-3H2,1H3/t6-,7+,8-,9+
