15
gdb 37387	3.06982	2.14461	1.92219	2.0476	61.2	-0.2409	0.0758	0.3167	769.9559	0.115366	-457.718506	-457.712993	-457.712049	-457.748121	23.665	
O	-0.0157481041	 1.4398748408	 0.0802258959	-0.247941
C	 1.2647014416	 0.7947215092	-0.0202774432	 0.045766
C	 0.0184587064	 0.0207679141	-0.0099662929	 0.040217
C	-0.2557927746	-0.5978663917	-1.388674441	 0.105937
O	-0.2817743257	 0.4060333892	-2.3766801399	-0.235492
C	 1.0793158173	 0.7006208001	-2.596738085	 0.046804
C	 1.8401109384	-0.5058706809	-2.1574496028	 0.041262
O	 0.8768865977	-1.4219970585	-1.6874494709	-0.261573
C	 1.9515032676	 0.7986282157	-1.3506010805	-0.178368
H	 1.8828392305	 0.8730312903	 0.8711105555	 0.101797
H	-0.318351696	-0.5293651651	 0.8655515287	 0.101225
H	-1.16291309	-1.2002234144	-1.4500510516	 0.101458
H	 1.2501907587	 1.2913197704	-3.4857440193	 0.121228
H	 2.6744695899	-0.9766423144	-2.6576528067	 0.119292
H	 2.8776496821	 1.3538937752	-1.4518140761	 0.098387
285.0005	310.4178	429.7372	515.2936	575.3433	648.7658	715.1451	742.6853	766.0045	779.0123	830.0704	869.3925	876.3539	913.2832	951.7354	963.7063	994.0572	1031.751	1038.7802	1064.3847	1080.2944	1094.851	1108.3175	1135.0572	1164.7036	1260.8392	1267.8174	1308.0911	1345.7617	1349.0833	1365.8888	1395.3358	1458.1569	3115.4193	3132.942	3145.2314	3171.8568	3214.932	3224.1856
O1C2C1C1OC3C(O1)C23	O1[C@H]2[C@@H]1[C@H]1O[C@@H]3[C@H](O1)[C@H]23	
InChI=1S/C6H6O3/c7-4-1-2-3(1)9-6(8-2)5(4)7/h1-6H	InChI=1S/C6H6O3/c7-4-1-2-3(1)9-6(8-2)5(4)7/h1-6H/t1-,2+,3-,4-,5-,6+/m1/s1
