18
gdb 94096	3.53864	0.92828	0.77983	3.7363	74.26	-0.2506	-0.0221	0.2285	1455.6314	0.146363	-439.118904	-439.109685	-439.108741	-439.154886	31.919	
C	 0.1784202845	 1.6214526471	-0.0851334422	-0.388157
C	 0.0238563697	 0.1024243347	-0.0415712251	 0.025492
C	 0.7582349561	-0.6412944975	-1.1936381649	-0.124068
O	 1.6298606061	-1.5767222474	-0.5177509733	-0.258812
C	 1.4616368137	-1.3419529128	 0.8106934177	 0.417099
C	 2.3166950339	-2.1732709987	 1.7125380528	-0.400724
C	 1.984854977	-1.9767858703	 3.183175763	 0.180745
O	 2.8208827107	-1.9070151177	 4.0446143971	-0.242654
N	 0.6227994014	-0.4642871789	 1.1815785769	-0.318538
H	 1.2368904491	 1.9015294544	-0.0772577166	 0.121742
H	-0.2809997752	 2.032530062	-0.9902993263	 0.114848
H	-0.300954859	 2.0780406415	 0.7843866876	 0.134542
H	-1.0451907278	-0.1429834237	-0.0419275914	 0.091309
H	 0.093186468	-1.2073625481	-1.8502907524	 0.121298
H	 1.3781035892	 0.0254875052	-1.8021303934	 0.117226
H	 2.1630553523	-3.2327481811	 1.4609029257	 0.151476
H	 3.3778812403	-1.963666172	 1.5467461573	 0.153923
H	 0.9012746902	-1.9262901767	 3.4096936076	 0.103252
35.5078	51.2277	66.203	169.8	179.3852	234.1766	335.022	389.6663	430.478	461.6461	619.7634	687.7721	708.7377	805.4762	853.3247	926.4793	938.2218	963.4335	1011.7805	1045.5526	1059.6296	1093.8567	1123.4515	1161.3032	1193.0495	1205.4691	1228.9026	1305.9835	1337.1172	1371.7476	1392.1466	1408.8746	1426.2027	1442.1254	1488.5138	1496.0074	1520.8709	1736.5846	1839.2491	2940.6455	3023.8127	3024.9041	3035.955	3048.5321	3094.0519	3101.8947	3106.6964	3124.9102
CC1COC(CC=O)=N1	C[C@H]1COC(=N1)CC=O	
InChI=1S/C6H9NO2/c1-5-4-9-6(7-5)2-3-8/h3,5H,2,4H2,1H3	InChI=1S/C6H9NO2/c1-5-4-9-6(7-5)2-3-8/h3,5H,2,4H2,1H3/t5-/m0/s1
