16
gdb 106092	3.05423	1.3663	1.20479	3.8153	69.49	-0.2273	-0.0046	0.2227	1069.4077	0.123637	-437.81248	-437.804684	-437.80374	-437.845103	29.441	
C	-0.2543320408	 1.4416156007	 0.0752927575	-0.332213
N	 0.0500603201	 0.0134630242	-0.0117803637	-0.412231
C	 0.7394264966	-0.3843552416	-1.1549630974	 0.305501
C	 0.3525101652	-0.7741659614	-2.5350683057	 0.059244
O	 1.3856136149	-0.0554330822	-3.2024441299	-0.275747
C	 2.1095772017	-0.0278102949	-1.9487674047	-0.143915
C	 2.4601156462	-1.5099802529	-1.6892117455	 0.466382
O	 3.4644383776	-2.0859978914	-1.3815462677	-0.334651
C	 0.999521417	-1.8471906767	-1.6502225474	-0.305237
H	 0.6383338289	 2.085654973	 0.0733630207	 0.114302
H	-0.8803107278	 1.7273578261	-0.7749197508	 0.139764
H	-0.818421262	 1.6303613046	 0.9921710929	 0.128381
H	 0.4843337301	-0.3322938012	 0.836068905	 0.237896
H	-0.6051889707	-0.9106920648	-3.020091706	 0.126794
H	 2.8131566235	 0.7931413388	-1.8409936645	 0.104715
H	 0.4934705293	-2.7468524103	-1.3300517129	 0.121013
79.1705	132.4812	168.0589	200.4263	353.4483	409.0258	430.3707	527.5185	575.764	613.8801	679.9645	757.8757	763.153	777.8827	864.8455	897.9739	947.1915	961.2862	1003.5665	1034.7189	1052.3779	1082.5199	1095.7516	1134.1723	1151.6032	1183.6088	1209.1644	1229.4407	1303.7512	1442.6423	1472.1418	1487.7308	1500.2137	1519.2636	1884.1433	2988.3862	3081.447	3123.4337	3169.903	3209.9364	3232.0613	3538.0085
CNC12C3OC1C(=O)C23	CN[C@@]12[C@H]3O[C@@H]1C(=O)[C@@H]23	
InChI=1S/C6H7NO2/c1-7-6-2-3(8)5(6)9-4(2)6/h2,4-5,7H,1H3	InChI=1S/C6H7NO2/c1-7-6-2-3(8)5(6)9-4(2)6/h2,4-5,7H,1H3/t2-,4+,5-,6+/m1/s1
