15
gdb 125128	3.35258	1.15358	0.86484	3.6799	72.05	-0.234	-0.0134	0.2206	1269.3342	0.11306	-450.123913	-450.115373	-450.114428	-450.15868	29.332	
C	 0.0095462058	 1.5355951545	 0.0437444046	-0.514045
C	-0.0067566198	 0.0494306155	-0.0365236245	 0.214743
C	-0.0892873645	-0.8215386718	-1.1015806987	 0.35605
O	-0.2008591541	-0.4408241181	-2.3997185599	-0.226907
C	 0.0052245226	-1.3740760742	-3.3763293322	 0.104453
N	-0.1399510455	-1.0176183807	-4.5747009586	-0.435723
N	-0.0699717474	-2.1029152325	-0.6681460866	-0.278844
N	 0.0271138623	-2.09638982	 0.6364605989	-0.121937
N	 0.0609157269	-0.8099326905	 1.0153401679	-0.221047
H	 0.9190405634	 1.9091757101	 0.5269613704	 0.142988
H	-0.0293417384	 1.946488538	-0.9670423245	 0.168927
H	-0.8505238849	 1.9255160417	 0.599428083	 0.144846
H	 0.2807296585	-2.3537057706	-2.9826707081	 0.145449
H	 0.0518736587	-1.8048959371	-5.1913723688	 0.236846
H	 0.1274630763	-0.5928010743	 1.9974275372	 0.284201
35.9795	83.733	97.81	151.6282	239.2745	270.2155	355.1731	472.7103	511.3879	576.0322	674.6892	700.7221	739.9252	829.8222	839.2164	986.6601	1022.6902	1055.0404	1058.263	1066.6054	1109.6959	1208.8487	1255.6858	1296.2976	1342.5481	1373.5672	1406.005	1423.621	1483.2427	1485.9348	1523.2858	1652.6673	1747.9264	3033.5932	3086.122	3126.0366	3136.1472	3517.3324	3651.5587
CC1=C(OC=N)N=NN1	Cc1c(O[CH][NH])nn[nH]1	
InChI=1S/C4H6N4O/c1-3-4(9-2-5)7-8-6-3/h2,5H,1H3,(H,6,7,8)	InChI=1S/C4H6N4O/c1-3-4(9-2-5)7-8-6-3/h2,5H,1H3,(H,6,7,8)
