12
gdb 25054	5.65513	1.03768	0.87679	1.0497	72.28	-0.2641	-0.0889	0.1752	1185.1583	0.078825	-435.556536	-435.54954	-435.548596	-435.588325	25.734	
O	-0.0607843679	-0.056259151	 0.0041006741	-0.312608
C	 0.0362930446	 1.1343213798	 0.0083116248	 0.438035
O	-1.181665803	 1.8832035484	 0.0287056808	-0.212184
C	-1.2096169822	 3.2077969985	 0.0362253136	 0.057157
C	-0.0864222767	 3.976476363	 0.0254524592	 0.028414
C	 1.1833877893	 3.298552854	 0.0051713856	-0.104822
C	 1.2352392456	 1.9482362185	-0.0027032557	-0.252056
C	-0.1832374035	 5.396629213	 0.0343833509	 0.210406
N	-0.2463418082	 6.5527356435	 0.0414535091	-0.320124
H	-2.2162623632	 3.6103924255	 0.0517345577	 0.172584
H	 2.0919796373	 3.8903440581	-0.0034888359	 0.148933
H	 2.1708014278	 1.4043946688	-0.0176565442	 0.146265
88.1659	153.2064	212.7736	368.188	408.8024	469.0211	475.0512	546.1786	568.0455	638.3779	714.9002	732.6474	754.4092	854.7204	940.4767	949.7007	1014.3682	1090.5282	1178.7732	1231.8422	1292.5818	1361.8715	1448.3812	1571.6238	1677.6466	1871.743	2347.6909	3200.7071	3209.7066	3228.1375
O=C1OC=C(C=C1)C#N	O=c1occ(cc1)C#N	
InChI=1S/C6H3NO2/c7-3-5-1-2-6(8)9-4-5/h1-2,4H	InChI=1S/C6H3NO2/c7-3-5-1-2-6(8)9-4-5/h1-2,4H
