15
gdb 20446	6.18591	1.379	1.22372	3.5719	67.35	-0.2253	0.025	0.2502	964.745	0.122371	-358.831101	-358.824437	-358.823493	-358.862575	24.854	
C	 0.1503635263	 1.5757340385	 0.0327101202	-0.232633
N	 1.2645249253	 0.6280260745	-0.090980348	-0.308449
C	-0.1092435287	 0.104586501	 0.0250792908	-0.158973
C	-0.4282942558	-0.6534982514	 1.2521962858	 0.267666
C	-1.5364999031	-1.4403835483	 1.5009035245	-0.149833
N	-1.3961918904	-1.913953954	 2.7638763226	-0.178179
N	-0.2664979953	-1.4964330339	 3.3642887602	-0.224536
C	 0.3229553522	-0.7315736923	 2.4505238277	-0.088541
H	 0.1131746894	 2.1132419075	 0.9759698008	 0.122845
H	-0.1522572982	 2.1545097746	-0.8366716272	 0.110591
H	 1.5808581672	 0.5759113664	-1.0550226645	 0.233957
H	-0.5735222646	-0.2797906715	-0.8813835462	 0.079241
H	-2.3901414743	-1.6912691969	 0.8907590734	 0.12934
H	-2.0176279717	-2.5255008473	 3.2647237352	 0.272767
H	 1.2741145918	-0.266181877	 2.6582931147	 0.124737
55.326	165.2099	183.3676	400.1897	448.8671	504.9025	640.4714	667.2196	702.7214	779.8455	856.8103	893.7066	897.9857	912.0774	953.31	969.7706	1011.2332	1062.2412	1095.2484	1115.4655	1156.9502	1179.5469	1231.9495	1248.3259	1287.9908	1295.7056	1392.95	1399.1763	1452.6568	1497.3711	1510.3727	1620.1077	3104.0984	3118.1824	3194.2364	3256.4956	3262.0873	3511.8228	3678.5215
C1NC1C1=CNN=C1	C1N[C@H]1c1c[nH]nc1	
InChI=1S/C5H7N3/c1-4(2-8-7-1)5-3-6-5/h1-2,5-6H,3H2,(H,7,8)	InChI=1S/C5H7N3/c1-4(2-8-7-1)5-3-6-5/h1-2,5-6H,3H2,(H,7,8)/t5-/m1/s1
