18
gdb 41556	3.33375	1.8974	1.71842	1.1187	73.21	-0.2241	0.0771	0.3013	855.8397	0.151349	-401.872651	-401.866654	-401.865709	-401.902697	25.814	
C	-0.018535977	 1.5667920166	-0.0429798174	-0.109191
O	 1.4104897489	 1.6019530076	-0.2578360625	-0.30196
C	 1.4390889743	 0.1634179867	-0.5062123193	 0.11244
C	 2.2532618091	-0.7434767745	 0.3913242212	-0.076695
C	 2.1924953689	-0.6188420495	 1.91273954	-0.085516
C	 0.979626864	 0.1964660266	 2.3182772489	-0.191334
N	 0.1185399916	-0.6071025244	 1.3579436815	-0.145296
C	 1.2664484641	-1.5622382723	 1.1972975812	-0.042252
C	-0.0091433806	 0.0332421347	 0.0300479938	-0.034385
H	-0.3332341627	 2.1258636796	 0.8440667135	 0.10898
H	-0.5639094101	 1.9471841675	-0.916247499	 0.102826
H	 1.6253854559	-0.0358457862	-1.5681583949	 0.070864
H	 3.1427359833	-1.2288815292	 0.0060369573	 0.088739
H	 3.0594631656	-0.848381069	 2.5209744304	 0.090994
H	 0.6546900312	-0.0180940691	 3.3404092702	 0.108669
H	 1.0155587797	 1.2749884668	 2.1670070553	 0.125856
H	 1.1448444193	-2.6374055863	 1.2020255997	 0.095737
H	-0.7463500856	-0.5069127857	-0.56802351	 0.081524
199.2242	264.9586	348.3251	467.7841	519.2684	630.6896	689.5868	717.823	795.1471	797.9218	831.8965	845.8242	896.5368	915.5135	929.7645	949.1411	969.9114	978.3341	1007.7241	1014.312	1045.1188	1057.6765	1074.4104	1098.0248	1113.6966	1138.6487	1175.7921	1214.104	1222.2555	1230.7522	1246.6548	1308.2884	1313.3924	1334.4393	1342.0139	1359.5251	1390.4879	1509.3175	1525.3668	3018.0806	3034.4373	3059.842	3071.9803	3084.6057	3134.6641	3175.9466	3182.6469	3202.6554
C1OC2C3C4CN(C34)C12	C1O[C@H]2[C@H]3[C@H]4CN([C@@H]34)[C@@H]12	
InChI=1S/C7H9NO/c1-3-5-6(3)8(1)4-2-9-7(4)5/h3-7H,1-2H2	InChI=1S/C7H9NO/c1-3-5-6(3)8(1)4-2-9-7(4)5/h3-7H,1-2H2/t3-,4+,5+,6-,7-/m1/s1
