25
gdb 122992	4.27755	0.60464	0.57873	0.9969	90.71	-0.2428	0.0889	0.3318	2083.363	0.226532	-389.48163	-389.470574	-389.46963	-389.518658	40.344	
C	 0.1251196751	 1.5885677703	 0.0944706008	-0.378939
C	 0.2608708597	 0.0683197478	-0.0266159515	-0.165176
C	 0.6190583373	-0.6058578998	 1.3014607116	-0.174998
C	 0.7598391075	-2.1173104091	 1.1796787735	-0.073917
O	 1.067684927	-2.6388565098	 2.4631825474	-0.29205
C	 1.4097013189	-3.9987328907	 2.4910001894	 0.458138
C	 0.2673949154	-4.9578590912	 2.2315431442	-0.456269
C	 2.8122520878	-4.3544704539	 2.0557833919	-0.317514
C	 2.4396538461	-4.3310370416	 3.5268635788	-0.312389
H	 1.0600418244	 2.0425161988	 0.4411052791	 0.114856
H	-0.1306288504	 2.0447507093	-0.8669489593	 0.110626
H	-0.6579180212	 1.8595484543	 0.8112525377	 0.115215
H	-0.6785855382	-0.352969282	-0.4084385853	 0.095573
H	 1.0265792213	-0.1714274928	-0.7764573106	 0.095068
H	 1.5598200936	-0.1965930811	 1.6901680719	 0.099829
H	-0.1485513077	-0.3855775255	 2.0537385764	 0.103169
H	-0.1756922406	-2.5526247345	 0.7942384109	 0.086139
H	 1.5566869805	-2.3747058348	 0.4637847538	 0.08495
H	-0.1209713261	-4.8641935994	 1.2118049343	 0.117604
H	 0.5953410194	-5.9926687935	 2.3647257935	 0.115513
H	-0.5555221166	-4.7662725607	 2.9283850209	 0.123134
H	 2.9849178763	-5.312337226	 1.5764855815	 0.108536
H	 3.4391682627	-3.5470458737	 1.6946771198	 0.114262
H	 2.8132265716	-3.5032895559	 4.1181971792	 0.120827
H	 2.3541030863	-5.2725550844	 4.0584306202	 0.107812
42.9873	64.2528	100.077	123.4833	151.9238	216.6383	228.8604	251.6075	288.4241	327.2368	387.8616	413.735	433.3248	537.8635	720.7862	744.9378	779.4511	816.3222	856.2202	899.575	927.1319	933.9831	952.9411	967.194	1028.2518	1033.5132	1057.2125	1072.3779	1076.2245	1103.1268	1124.6122	1152.203	1189.4012	1195.6166	1252.0613	1288.5049	1294.638	1312.6624	1324.5681	1339.2149	1388.5499	1412.3867	1414.2966	1432.2419	1453.8875	1484.4095	1488.1371	1492.0084	1496.5418	1500.3893	1507.3661	1510.7895	1529.5728	2970.4798	2999.0081	3013.0219	3027.8354	3031.9636	3033.549	3038.4514	3072.6639	3096.2238	3098.0331	3102.2334	3112.5111	3132.0379	3138.2253	3216.4402	3231.9524
CCCCOC1(C)CC1	CCCCOC1(C)CC1	
InChI=1S/C8H16O/c1-3-4-7-9-8(2)5-6-8/h3-7H2,1-2H3	InChI=1S/C8H16O/c1-3-4-7-9-8(2)5-6-8/h3-7H2,1-2H3
