23
gdb 68299	3.02372	1.20529	1.09193	0.2896	90.11	-0.2651	0.0926	0.3577	1258.7617	0.206618	-351.095289	-351.086705	-351.085761	-351.128551	34.257	
C	 0.3768212629	 1.4260902901	 0.3245326017	-0.516566
C	 0.0785587535	-0.0271402161	 0.0656086678	 0.330151
C	 0.5125548512	-0.8797760955	-1.1660689417	-0.262976
C	-0.3017074408	-1.846243752	-0.2620675036	-0.066383
C	 0.4844054534	-1.2531081708	 0.9428742012	-0.258918
C	-1.3384675929	-0.6890304621	-0.098377168	 0.005308
C	-2.3529428171	-0.6627192011	 1.0241250698	-0.043086
C	-3.6190005232	-1.4793924858	 0.9090005864	-0.272621
C	-2.5944262252	-1.8282080222	 1.9555926993	-0.25479
H	 1.456517659	 1.6007069016	 0.3913902282	 0.117263
H	-0.0155943972	 2.0591614632	-0.479331778	 0.116115
H	-0.0724336479	 1.7623249991	 1.2659479243	 0.117292
H	 0.0696490288	-0.6126865949	-2.1305998236	 0.082616
H	 1.5825107068	-1.0874971234	-1.2599731525	 0.083246
H	-0.5129904915	-2.8988275564	-0.4580008081	 0.064533
H	 1.5537243459	-1.483325452	 0.9815238473	 0.081209
H	 0.0279501282	-1.3285495271	 1.9300882514	 0.099621
H	-1.8245300945	-0.4041428455	-1.0409503387	 0.058264
H	-2.4883608965	 0.3207524828	 1.4700964766	 0.081127
H	-4.5560563526	-1.033646361	 1.2243293684	 0.106635
H	-3.7079967451	-2.1425366375	 0.0539925343	 0.108793
H	-2.0095646342	-2.7289158421	 1.8047808605	 0.115991
H	-2.8225599107	-1.6187245012	 2.995322337	 0.107177
60.9468	133.1739	185.5978	212.0101	252.2807	299.3769	377.717	427.7354	537.2567	589.139	639.465	762.2452	781.2357	793.715	815.6645	842.7577	893.601	903.0528	908.3034	938.3074	962.7657	1012.2919	1018.5662	1028.0866	1054.0393	1062.5136	1067.2063	1082.9791	1108.4615	1134.7703	1145.72	1171.7917	1183.5652	1200.6259	1206.041	1224.6062	1229.3409	1238.2799	1259.9818	1321.9719	1388.461	1399.95	1410.3802	1469.2439	1488.8383	1491.1006	1496.069	1504.5878	1539.8069	3010.1079	3022.2384	3039.6233	3054.1762	3088.092	3090.374	3094.8478	3103.9061	3118.734	3125.3298	3132.9319	3134.261	3204.0187	3220.4588
CC12CC(C1)C2C1CC1	C[C@@]12C[C@@H](C1)[C@H]2C1CC1	
InChI=1S/C9H14/c1-9-4-7(5-9)8(9)6-2-3-6/h6-8H,2-5H2,1H3	InChI=1S/C9H14/c1-9-4-7(5-9)8(9)6-2-3-6/h6-8H,2-5H2,1H3/t7-,8-,9+/m1/s1
