18
gdb 54100	2.84876	1.61377	1.17362	2.6534	72.33	-0.2391	0.0215	0.2606	1052.356	0.147313	-439.045914	-439.037622	-439.036678	-439.079232	32.15	
C	-0.1358244801	 1.5459089538	 0.6449748209	-0.466457
C	-0.0347558639	 0.1387554086	 0.0601624532	 0.220294
C	 1.1444901149	-0.2227492907	-0.9106207381	-0.001096
C	 2.1659864917	-0.131718848	 0.2480836599	-0.235183
C	 0.923315403	-0.9192385131	 0.7251306814	 0.012909
O	 0.9838027444	-1.6627983569	-0.5623899963	-0.32085
C	-1.4690307624	-0.3309679076	-0.2996184531	 0.339559
N	-1.6021780607	-1.4347318996	-1.0823095621	-0.531171
O	-2.4328224785	 0.3057226162	 0.0910700776	-0.362876
H	 0.8221775101	 1.9488799501	 0.971783911	 0.105972
H	-0.5599237763	 2.2270626082	-0.0976279865	 0.134602
H	-0.8253230612	 1.5435308079	 1.4904648258	 0.147277
H	 1.2633187804	 0.0215166411	-1.9667679034	 0.104208
H	 3.0479850858	-0.7554235692	 0.1022147353	 0.116076
H	 2.402705956	 0.8328013112	 0.6910280411	 0.112535
H	 0.7738800657	-1.5064877449	 1.6317608623	 0.105644
H	-0.8057043323	-2.0424898614	-1.2010416256	 0.268634
H	-2.5419105966	-1.7732087557	-1.2159588033	 0.249924
36.5489	129.9418	169.5596	301.4059	318.3411	380.3077	407.3912	446.0994	473.9842	569.9717	640.06	657.7627	679.3915	719.6375	774.9401	806.7064	864.3757	880.5932	900.5882	923.2799	1026.3479	1037.3506	1090.509	1115.331	1128.2263	1129.8458	1171.3784	1178.7861	1200.179	1205.9583	1269.603	1289.9417	1370.8918	1420.5057	1480.464	1483.828	1509.6629	1577.995	1774.8136	3067.779	3097.5022	3115.315	3122.3742	3132.1752	3154.0357	3178.7469	3551.2322	3701.1574
CC1(C2CC1O2)C(N)=O	C[C@]1([C@H]2C[C@@H]1O2)C(=O)N	
InChI=1S/C6H9NO2/c1-6(5(7)8)3-2-4(6)9-3/h3-4H,2H2,1H3,(H2,7,8)	InChI=1S/C6H9NO2/c1-6(5(7)8)3-2-4(6)9-3/h3-4H,2H2,1H3,(H2,7,8)/t3-,4+,6-
