25
gdb 104987	2.22797	1.36491	1.15109	0.9754	88.35	-0.2296	0.0801	0.3097	1271.6983	0.225602	-389.470328	-389.459358	-389.458413	-389.505937	41.943	
C	-0.2302797574	 1.2534891135	-0.0831077221	-0.247845
O	-0.306639642	-0.0593418861	 0.4138225882	-0.298953
C	 0.6993382872	-0.5308249507	 1.2886153847	 0.464573
C	 1.9546454948	 0.2698199892	 1.5183618301	-0.352516
C	 0.8934612955	 0.1779420348	 2.6029813456	-0.333911
C	 0.7267950461	-2.0681704175	 1.1800351247	 0.211929
C	 1.1060441072	-2.449509844	-0.2652107786	-0.403756
C	 1.7374611738	-2.717233078	 2.1426478163	-0.435092
C	-0.6805052177	-2.6086226071	 1.5095293004	-0.401524
H	 0.6407476103	 1.4041166388	-0.7360640032	 0.110963
H	-1.1371609119	 1.4091905858	-0.673257461	 0.126374
H	-0.2076085677	 2.013915413	 0.7118433074	 0.107081
H	 2.8896845338	-0.2582125841	 1.6622984811	 0.114128
H	 2.0700457158	 1.2221172782	 1.0156060674	 0.112347
H	 0.292573334	 1.0635322631	 2.7817648093	 0.112002
H	 1.1062194725	-0.3963951757	 3.4963041916	 0.113619
H	 2.1147943154	-2.1000246771	-0.5111868894	 0.10332
H	 1.0872042118	-3.5369526763	-0.3938744889	 0.101472
H	 0.4087123535	-2.0058029096	-0.9786036138	 0.123395
H	 1.5053088161	-2.5125603298	 3.1920211255	 0.113136
H	 1.7090748107	-3.8040515918	 2.0135385453	 0.113583
H	 2.7655260615	-2.3976009912	 1.9477398294	 0.111665
H	-1.4295303726	-2.1850210715	 0.8382823728	 0.128902
H	-0.7027630666	-3.6992655614	 1.4113573615	 0.099577
H	-0.9651358942	-2.3568745546	 2.5368961159	 0.105531
45.4726	63.6131	191.9734	217.989	244.2613	250.6265	261.3974	268.1393	313.306	332.4838	359.0145	368.8216	396.2601	453.1676	489.5152	549.6511	621.9217	756.995	800.5253	876.3365	888.7247	934.3721	937.8483	949.1954	961.6041	970.1583	1034.127	1053.5642	1057.9452	1075.4738	1118.3463	1177.9223	1185.4481	1210.1142	1215.5262	1234.389	1239.7012	1284.3137	1342.1805	1390.1734	1399.1928	1430.7787	1455.4904	1477.8802	1482.8606	1487.5162	1492.1622	1493.932	1499.0026	1505.6447	1510.7819	1515.6014	1524.3613	2983.6367	3030.5739	3032.7932	3035.2975	3040.7122	3092.1404	3093.6295	3101.6016	3107.7733	3109.6514	3128.6225	3135.4608	3137.6235	3150.1838	3217.7847	3232.3491
COC1(CC1)C(C)(C)C	COC1(CC1)C(C)(C)C	
InChI=1S/C8H16O/c1-7(2,3)8(9-4)5-6-8/h5-6H2,1-4H3	InChI=1S/C8H16O/c1-7(2,3)8(9-4)5-6-8/h5-6H2,1-4H3
