21
gdb 64197	2.45934	1.39039	1.3186	2.6697	77.51	-0.2469	0.0686	0.3155	1123.5531	0.181187	-424.191456	-424.18235	-424.181406	-424.225513	34.395	
C	-0.2492393375	 1.5030631217	 0.1273758613	-0.456203
C	-0.045692817	-0.0032847647	-0.0145701235	 0.193895
C	-1.3358849076	-0.7017813417	-0.4366425585	-0.456227
C	 1.1987153606	-0.4039590564	-0.8455395207	-0.111482
O	 1.8282445453	-1.0075468603	 0.3030458784	-0.309111
C	 0.7277680089	-0.6844127647	 1.1584887137	 0.336274
C	 1.0507880459	-0.0042500781	 2.5046016748	-0.131672
O	 0.3680433005	-1.0396263506	 3.2390065546	-0.274548
C	 0.1592884462	-1.8141035334	 2.0414666924	-0.131676
H	 0.6762347144	 2.0111851786	 0.416317897	 0.122
H	-0.5826072303	 1.9340017167	-0.8233039062	 0.117437
H	-1.0110082092	 1.7342035679	 0.8799666227	 0.123146
H	-1.6867110786	-0.3068974001	-1.3966550442	 0.117442
H	-1.1926489086	-1.7806846677	-0.5533742135	 0.121994
H	-2.1340977575	-0.5440951047	 0.2969126312	 0.123144
H	 1.0212640081	-1.1340791567	-1.6449118354	 0.098858
H	 1.7909561284	 0.4282861915	-1.2457516906	 0.098867
H	 2.1284789177	 0.0196017985	 2.7126251517	 0.108338
H	 0.618362662	 0.9856131912	 2.6902680737	 0.100595
H	-0.8939881741	-2.0846102737	 1.9046022576	 0.100594
H	 0.7791155024	-2.7197437631	 2.0116508335	 0.108335
47.0868	86.3547	216.8214	238.375	264.0199	279.5738	303.3956	342.6898	367.4669	441.9719	482.9067	519.1448	644.2993	818.5717	874.0112	893.4713	924.5527	937.4459	960.5093	981.5759	1001.622	1017.1274	1033.9915	1036.6868	1092.5862	1150.1299	1156.7011	1160.5603	1175.9066	1196.6765	1242.0131	1273.5765	1284.0894	1302.9972	1362.1297	1379.6417	1403.0673	1423.8289	1483.7109	1486.4006	1499.0701	1502.8546	1506.8662	1525.6951	1529.8407	3009.3818	3010.6481	3021.3184	3024.8173	3030.1948	3055.7642	3068.5549	3068.6943	3091.5779	3096.6343	3100.1009	3102.126
CC1(C)COC11COC1	CC1(C)COC21COC2	
InChI=1S/C7H12O2/c1-6(2)3-9-7(6)4-8-5-7/h3-5H2,1-2H3	InChI=1S/C7H12O2/c1-6(2)3-9-7(6)4-8-5-7/h3-5H2,1-2H3
