17
gdb 128328	4.89679	0.96001	0.81279	1.6001	71.96	-0.1941	0.0485	0.2426	1396.8068	0.137168	-451.3455	-451.336272	-451.335328	-451.379819	32.237	
C	-0.0691391261	 1.4184236127	-0.1059084708	-0.315566
N	-0.0475046013	-0.0076429661	 0.1631772985	-0.368709
C	-1.2171736855	-0.7198113595	 0.0754528138	 0.43816
N	-2.4137218214	-0.1542332745	 0.0659123854	-0.318947
N	-3.2359930379	-1.2658301076	 0.0338396894	-0.302834
C	-2.4866109806	-2.3786979368	 0.009434515	 0.504789
O	-3.0617742721	-3.5780808292	-0.0344591015	-0.270761
C	-2.1549033978	-4.6859785422	-0.043754291	-0.238998
N	-1.2021064297	-2.0947094313	 0.0338643371	-0.452137
H	 0.932616262	 1.8239133649	 0.0535017366	 0.117447
H	-0.3977880001	 1.6638229279	-1.1265717185	 0.115719
H	-0.7567682545	 1.9077882555	 0.5885036944	 0.149098
H	 0.7459684494	-0.5182012126	-0.1918810856	 0.245065
H	-4.2356176487	-1.1705764497	 0.0192041131	 0.274495
H	-1.5048914724	-4.6442551862	-0.9218960964	 0.143218
H	-1.5347479679	-4.6834221822	 0.8566204181	 0.145331
H	-2.7809433554	-5.5779144129	-0.0743337075	 0.13463
84.8882	110.5604	142.2871	148.3164	167.5123	239.0506	258.7395	312.3676	436.6653	446.2936	517.4008	522.5372	719.1789	724.8532	775.0635	781.8752	991.8762	1034.482	1084.4886	1105.5237	1148.7417	1159.6655	1182.556	1189.2756	1221.7087	1296.4788	1365.4222	1451.9215	1457.3013	1475.4348	1478.8864	1480.8943	1500.7772	1515.1072	1553.488	1618.06	1648.5229	2996.5714	3047.3205	3087.0182	3121.8508	3129.5322	3156.9229	3626.9727	3695.5049
CNC1=NNC(OC)=N1	CNc1n[nH]c(OC)n1	
InChI=1S/C4H8N4O/c1-5-3-6-4(9-2)8-7-3/h1-2H3,(H2,5,6,7,8)	InChI=1S/C4H8N4O/c1-5-3-6-4(9-2)8-7-3/h1-2H3,(H2,5,6,7,8)
