18
gdb 54375	3.21349	1.35263	1.2668	3.4575	76.92	-0.2396	0.0267	0.2663	1065.5751	0.14906	-401.936892	-401.928966	-401.928022	-401.969628	30.572	
N	 0.1766540558	 1.1750408715	-0.5135170492	-0.541815
C	 0.0347035897	-0.0258486786	 0.1298260077	 0.223619
O	 0.9382152108	-0.5432070461	 0.7639188928	-0.375295
C	-1.284619213	-0.6660588931	-0.0213213454	 0.315565
C	-2.0823623405	-1.4416747249	 1.019666871	-0.100046
C	-3.3582597164	-0.6800210329	 0.6609956578	-0.224818
C	-2.6900306323	-0.4010769075	-0.7133997874	-0.162038
C	-2.5741235871	-1.8074588605	-1.3624913939	-0.225064
C	-1.5963141588	-2.1419594874	-0.2362928418	-0.098797
H	 1.0233152059	 1.6942464424	-0.3464571051	 0.258566
H	-0.6148144104	 1.6586324638	-0.8999708922	 0.25604
H	-1.7179174208	-1.7294618824	 1.9964888323	 0.107956
H	-4.3107406909	-1.2225814098	 0.6525783579	 0.092317
H	-3.4567737525	 0.2291293306	 1.2600121983	 0.10253
H	-2.9748020334	 0.4656687034	-1.3079504753	 0.065522
H	-3.4958203903	-2.3941800313	-1.4517459922	 0.09187
H	-2.0645219714	-1.7700875162	-2.3287253897	 0.105401
H	-0.8727557045	-2.9441345611	-0.1841891455	 0.10849
64.2447	142.2796	155.6089	201.2052	348.2988	428.6985	450.5833	476.168	558.3632	650.4081	705.9167	742.3001	754.7306	822.6117	877.9253	897.093	914.6346	965.7381	968.0502	981.6517	1016.3301	1018.2405	1071.1386	1078.5252	1111.2136	1127.1996	1129.9431	1185.0036	1193.5309	1221.3526	1250.7203	1281.5835	1318.6668	1334.7644	1447.0792	1490.6912	1507.8591	1611.271	1773.1209	3030.0079	3036.1355	3098.2235	3100.7804	3123.3645	3210.1635	3219.2047	3599.9509	3737.1981
NC(=O)C12C3CC1CC23	NC(=O)[C@@]12[C@H]3C[C@@H]1C[C@@H]23	
InChI=1S/C7H9NO/c8-6(9)7-3-1-4(7)5(7)2-3/h3-5H,1-2H2,(H2,8,9)	InChI=1S/C7H9NO/c8-6(9)7-3-1-4(7)5(7)2-3/h3-5H,1-2H2,(H2,8,9)/t3-,4+,5-,7-
