22
gdb 101788	3.98334	0.66397	0.60342	3.1716	81.17	-0.2384	0.0392	0.2777	1911.4373	0.191675	-441.529347	-441.517952	-441.517008	-441.568388	39.531	
C	-0.089800659	 1.5088960159	 0.207557692	-0.382069
C	-0.0242308195	 0.0016973333	-0.0516483913	-0.192967
C	-1.4002071319	-0.66700334	-0.0726183761	 0.121309
O	-2.2575628965	-0.1013691833	-1.0720083244	-0.436892
C	-1.3088718639	-2.184599031	-0.258270902	-0.170791
N	-2.6317884924	-2.7698043796	-0.3180803519	-0.315182
C	-2.9821332501	-3.8812284704	 0.3912959123	 0.406373
C	-4.4424615446	-4.2906500769	 0.26927293	-0.480805
O	-2.1893504571	-4.5089093792	 1.072080426	-0.378007
H	 0.9053474658	 1.9607566904	 0.1645657361	 0.113944
H	-0.7251601482	 2.0033269446	-0.5321637621	 0.125478
H	-0.510605799	 1.7182115659	 1.1968668287	 0.119601
H	 0.4762390661	-0.1941338384	-1.0117827615	 0.088688
H	 0.5900540691	-0.4882789405	 0.7137637507	 0.109064
H	-1.9209423566	-0.4636876585	 0.8713287662	 0.096511
H	-1.7871398032	-0.1414359722	-1.913401087	 0.279897
H	-0.7426935912	-2.4034279889	-1.177987575	 0.091776
H	-0.7786154769	-2.6589988729	 0.5711005091	 0.145168
H	-3.328991273	-2.2384423586	-0.8147162764	 0.247297
H	-5.026260118	-3.6482318258	-0.3949487169	 0.110941
H	-4.4892682944	-5.3194992178	-0.0968997204	 0.150379
H	-4.8945348154	-4.2790021061	 1.2647632039	 0.150286
16.8299	39.509	73.7271	90.9333	108.6431	200.9707	217.1212	252.2454	293.6278	329.6782	350.9578	447.8474	485.6024	516.5188	550.9651	629.1356	653.6206	778.7634	836.7101	919.6807	948.2752	991.6247	1003.8845	1029.0486	1051.3675	1089.085	1103.9387	1139.0019	1156.1283	1227.9743	1253.9849	1265.0937	1298.1166	1346.2543	1379.1902	1393.7504	1404.5278	1408.9107	1422.1302	1471.1202	1479.9816	1484.6483	1496.512	1500.0138	1508.8385	1529.3946	1776.279	2975.1012	3000.8412	3039.8794	3042.6396	3049.8668	3057.2153	3106.224	3110.4783	3121.1363	3126.8164	3129.991	3639.4398	3783.8862
CCC(O)CNC(C)=O	CC[C@@H](O)CNC(=O)C	
InChI=1S/C6H13NO2/c1-3-6(9)4-7-5(2)8/h6,9H,3-4H2,1-2H3,(H,7,8)	InChI=1S/C6H13NO2/c1-3-6(9)4-7-5(2)8/h6,9H,3-4H2,1-2H3,(H,7,8)/t6-/m1/s1
