19
gdb 58032	1.93374	1.48574	1.04815	5.2422	76.39	-0.2464	-0.0371	0.2093	1228.5379	0.155784	-419.219914	-419.209225	-419.20828	-419.256487	36.837	
C	 0.2441008614	 1.0810583224	-0.3199114602	-0.343764
N	-0.2355615635	-0.264463849	-0.0058065044	-0.059512
C	 0.4811871324	-0.8516040389	 1.122659745	-0.33017
C	-1.6841926233	-0.3385977062	 0.1403067271	-0.24603
C	-2.2222380047	 0.5557573594	 1.1913410645	 0.30958
N	-2.5484707732	 1.2489575959	 2.0562188125	-0.32931
C	-2.3999617848	-0.0993387671	-1.2199692552	 0.375063
C	-1.9764115735	-1.0296006845	-2.3347228986	-0.478939
O	-3.2455611372	 0.7483729722	-1.3413983809	-0.267033
H	 1.3116649041	 1.0300367055	-0.549985632	 0.128871
H	-0.2756277603	 1.4711750935	-1.1998119243	 0.136506
H	 0.0977083213	 1.7946902114	 0.5069134095	 0.133127
H	 0.3349306488	-0.2983450995	 2.0653060346	 0.126853
H	 0.1528712391	-1.8846465121	 1.2729737526	 0.123411
H	 1.5509168137	-0.8640057979	 0.8956266603	 0.129578
H	-1.9279497553	-1.3687818888	 0.4344898649	 0.136943
H	-2.3383506843	-2.0419314671	-2.1155930726	 0.146445
H	-2.4097700356	-0.6927017876	-3.2764948093	 0.148947
H	-0.8876565052	-1.0878265515	-2.3965681836	 0.159432
32.4296	81.9686	102.8332	134.7932	165.4672	175.9068	238.614	246.9081	335.1585	361.3916	373.7101	422.3192	427.386	534.9481	608.676	625.3425	812.4792	875.0362	915.4172	1004.9815	1036.2892	1061.7512	1069.3414	1120.9246	1179.8576	1189.4085	1196.723	1297.7526	1305.7213	1352.1603	1378.3155	1446.766	1464.0933	1466.8561	1477.505	1478.6072	1494.9555	1503.371	1518.3055	1831.2449	2352.0341	2971.9636	2983.3934	3023.2261	3041.2441	3071.479	3078.5059	3112.6966	3115.5523	3119.1067	3166.481
CN(C)C(C#N)C(C)=O	CN(C)[C@@H](C#N)C(=O)C	
InChI=1S/C6H10N2O/c1-5(9)6(4-7)8(2)3/h6H,1-3H3	InChI=1S/C6H10N2O/c1-5(9)6(4-7)8(2)3/h6H,1-3H3/t6-/m0/s1
