15
gdb 25036	4.1645	1.16453	0.97955	3.3542	69.66	-0.2099	0.0237	0.2336	1164.7686	0.113533	-453.963753	-453.956171	-453.955227	-453.996321	28.328	
O	 0.3168106248	 0.3824839238	 0.8716134314	-0.400084
C	 0.1016547308	 1.4613359674	 0.3912939483	 0.481046
N	-1.0113185151	 1.9390788332	-0.2571956753	-0.365986
C	-0.8176221126	 3.2674566054	-0.651325309	-0.197669
C	 0.4118597159	 3.6086953502	-0.2463548358	 0.404435
O	 0.9994076548	 2.5183338089	 0.3972321424	-0.248913
N	 1.1021342328	 4.8008138438	-0.3782601786	-0.194603
C	 2.0050582455	 5.2119358296	 0.7117247815	-0.227893
C	 2.5604842992	 4.7467557045	-0.5850151219	-0.227905
H	-1.828053779	 1.3736901971	-0.4040187635	 0.277566
H	-1.5584045574	 3.8435343106	-1.175860983	 0.154418
H	 1.9720155881	 6.2712603753	 0.9462115579	 0.128091
H	 2.0987414835	 4.5430134425	 1.5613853513	 0.144717
H	 3.025985979	 3.7663857383	-0.6034996246	 0.144688
H	 2.9378448298	 5.4623202194	-1.3087600612	 0.128091
71.217	141.3591	166.9069	220.0604	374.	411.7664	471.5529	524.6109	601.8193	660.6767	743.8035	750.6127	769.2202	820.7779	842.7413	899.6365	929.4077	966.0549	1040.2928	1071.5043	1107.1573	1130.1716	1136.0684	1164.6899	1184.1898	1217.1216	1331.5257	1364.1357	1403.1733	1485.3399	1510.8379	1738.9873	1898.368	3121.9046	3125.0655	3210.5636	3224.9512	3301.9535	3700.9143
O=C1NC=C(O1)N1CC1	O=c1[nH]cc(o1)N1CC1	
InChI=1S/C5H6N2O2/c8-5-6-3-4(9-5)7-1-2-7/h3H,1-2H2,(H,6,8)	InChI=1S/C5H6N2O2/c8-5-6-3-4(9-5)7-1-2-7/h3H,1-2H2,(H,6,8)
