20
gdb 106002	3.29591	1.57883	1.38012	2.0372	80.77	-0.2197	0.0776	0.2973	1017.6415	0.172302	-365.930905	-365.923538	-365.922594	-365.962657	29.959	
C	-0.1409281817	 1.5278275332	 0.1390657167	-0.384698
C	-0.0117506064	 0.0028406013	 0.0321132184	-0.338376
C	 0.7066023598	-0.4829124305	-1.1944347556	 0.37614
C	 1.0169577339	-1.9515919206	-1.5965750258	-0.136048
C	 0.9067465368	-1.5458585599	-3.0152493645	-0.044168
C	 0.3328035485	-0.1498778354	-2.7099377453	-0.1253
C	 1.5414748637	 0.8126643686	-2.8048096933	-0.24829
C	 2.1349654817	-0.0952894625	-1.7171585762	-0.041126
N	 2.2417945524	-1.4917935371	-2.3190381071	-0.15131
H	 0.8412630599	 2.0110630252	 0.1637311219	 0.122219
H	-0.6974844074	 1.9422519219	-0.7078266325	 0.121624
H	-0.6712165714	 1.807815393	 1.0540633649	 0.115191
H	 0.5111010686	-0.3805465678	 0.9194629819	 0.103409
H	-1.0128266858	-0.4498976743	 0.056255989	 0.101792
H	 0.9451086022	-2.9102003227	-1.0951147424	 0.089351
H	 0.8362536879	-2.1409530662	-3.9172068179	 0.092751
H	-0.6713801055	 0.1009075844	-3.0482546792	 0.069882
H	 2.0734963618	 0.8895924872	-3.7572648027	 0.101642
H	 1.3085977734	 1.8087648007	-2.4190226706	 0.104378
H	 2.9950827076	 0.1694849815	-1.1025046296	 0.070937
82.5912	169.8956	211.9278	302.7936	347.462	432.2708	538.2321	596.5199	710.2003	761.9673	769.097	779.7331	795.7325	845.6763	880.0081	914.2229	918.0266	931.5921	963.7513	977.5573	1002.4175	1007.106	1009.7081	1052.8451	1086.7505	1111.9457	1123.2296	1160.6164	1174.2605	1178.6378	1219.1586	1237.4849	1259.8527	1272.2144	1302.9575	1325.8569	1342.6367	1387.8833	1407.8945	1480.4078	1484.2622	1500.1031	1509.0303	3004.1026	3032.1986	3035.336	3057.2272	3103.2931	3107.0105	3116.43	3118.4561	3129.8191	3169.8991	3191.6114
CCC12C3C4C1CC2N34	CC[C@@]12[C@H]3[C@H]4[C@@H]1C[C@@H]2N34	
InChI=1S/C8H11N/c1-2-8-4-3-5(8)9-6(4)7(8)9/h4-7H,2-3H2,1H3	InChI=1S/C8H11N/c1-2-8-4-3-5(8)9-6(4)7(8)9/h4-7H,2-3H2,1H3/t4-,5-,6+,7+,8+,9?/m0/s1
