22
gdb 6536	3.18893	1.49916	1.24532	1.2618	78.85	-0.2476	0.0713	0.3189	1106.6284	0.19741	-350.202923	-350.192962	-350.192018	-350.236765	37.53	
C	 0.219051846	 1.5544919469	 0.1809322325	-0.395344
C	-0.1513604068	 0.0909326827	-0.0930937331	-0.221679
C	 0.6098666148	-0.4987594809	-1.268764514	 0.37712
O	 0.3740156493	 0.1971273777	-2.4731105866	-0.470304
C	 1.9941230986	-1.085209053	-1.0800123102	-0.396306
C	 0.8214132971	-1.9876509066	-1.4423392289	 0.28548
C	 0.3122038619	-2.9629768536	-0.3950244359	-0.453539
C	 0.7779932145	-2.555425759	-2.8505052713	-0.439248
H	 1.2886163154	 1.6596023777	 0.3951459983	 0.115021
H	-0.0212479884	 2.190991483	-0.677007939	 0.113112
H	-0.3340906118	 1.9449937113	 1.0401083188	 0.114939
H	 0.0363061976	-0.5000658019	 0.8076558997	 0.095101
H	-1.2262637675	 0.0203562574	-0.3016252339	 0.102617
H	 0.8802795854	 1.0153166939	-2.4425483379	 0.281851
H	 2.7298544904	-0.8823533446	-1.8521456786	 0.10363
H	 2.4002067243	-1.145497415	-0.0744016531	 0.101336
H	 0.4317460013	-2.5927604853	 0.6257469354	 0.112349
H	-0.7491878952	-3.1915056538	-0.5481074994	 0.115751
H	 0.8643128001	-3.9075234887	-0.4647007283	 0.114171
H	 1.4223936607	-3.4392684636	-2.9239899749	 0.10531
H	-0.2402856719	-2.8653832475	-3.1135314792	 0.11134
H	 1.1014800543	-1.822361127	-3.5894385205	 0.127291
79.3828	138.7589	177.5415	197.3617	224.246	237.0156	272.0361	310.5569	321.7253	370.9029	399.6144	425.5913	462.302	545.6938	684.3074	724.6995	789.5297	890.6099	906.072	920.8812	972.1892	976.6541	996.0032	1036.6234	1043.5124	1058.0568	1091.077	1156.2904	1196.6739	1206.1499	1296.5815	1309.3782	1313.2787	1356.7754	1399.9784	1404.9051	1409.1936	1423.8897	1472.9286	1481.5031	1487.243	1491.3734	1499.4201	1504.9343	1512.3626	1516.3969	3024.0605	3028.2747	3030.9832	3033.4787	3078.5615	3082.0676	3082.9138	3102.9617	3107.2237	3114.1641	3118.3528	3145.9867	3202.9164	3809.0248
CCC1(O)CC1(C)C	CC[C@@]1(O)CC1(C)C	
InChI=1S/C7H14O/c1-4-7(8)5-6(7,2)3/h8H,4-5H2,1-3H3	InChI=1S/C7H14O/c1-4-7(8)5-6(7,2)3/h8H,4-5H2,1-3H3/t7-/m1/s1
