17
gdb 84797	2.72057	1.50576	1.10751	5.3831	68.42	-0.2377	0.0011	0.2388	1082.6806	0.137564	-455.198685	-455.190514	-455.18957	-455.231921	30.421	
C	-0.0331415669	 1.5116011888	-0.1924879154	-0.413307
C	-0.1066871968	-0.0035950371	 0.0021213362	 0.022123
N	 0.4664933154	-0.7394657203	-1.1498009923	-0.298169
H	 0.3311118244	-0.3673747297	-2.0791152701	 0.247935
C	 1.718557056	-1.1615384257	-0.7808769672	 0.064975
N	 1.9967349577	-1.1369713992	 0.4694429376	-0.290287
C	 0.7973656897	-0.5933826231	 1.1366453909	-0.130198
C	 1.1876491481	 0.3733718962	 2.2590072071	 0.426473
O	 2.4968590086	 0.3701040937	 2.5395585419	-0.367718
O	 0.3921688474	 1.0535413895	 2.8519539523	-0.345539
H	 1.0033984451	 1.8423794971	-0.3189980475	 0.126373
H	-0.5995777331	 1.8088353981	-1.0816657466	 0.109085
H	-0.4529986245	 2.0238778915	 0.6746352467	 0.16645
H	-1.1457472306	-0.3051199265	 0.1502094565	 0.103722
H	 2.4081330383	-1.5248447153	-1.5374833351	 0.138211
H	 2.9093043776	-0.2489394852	 1.9019661965	 0.312688
H	 0.2631466335	-1.4195446329	 1.6255503785	 0.127181
68.09	85.6484	190.0115	245.7254	271.6301	344.9319	375.9288	495.5306	532.7852	556.3992	600.976	706.5749	759.5	771.7325	837.9276	866.7523	915.5028	972.9677	981.958	1022.3581	1085.8057	1090.2493	1122.8849	1156.1578	1230.8094	1270.7321	1283.9598	1307.312	1345.8124	1381.0869	1406.7716	1416.5627	1446.8779	1490.5983	1500.5882	1680.6572	1861.5014	3013.7714	3035.3364	3079.4041	3103.5555	3145.9424	3186.8518	3535.4144	3601.8439
CC1[NH+]=CNC1C([O-])=O	C[C@H]1N[CH][N][C@H]1C(=O)O	
InChI=1S/C5H8N2O2/c1-3-4(5(8)9)7-2-6-3/h2-4H,1H3,(H,6,7)(H,8,9)	InChI=1S/C5H8N2O2/c1-3-4(5(8)9)7-2-6-3/h2-4H,1H3,(H,6,7)(H,8,9)/t3-,4-/m1/s1
