21
gdb 113002	2.22326	1.21348	1.17451	2.991	78.58	-0.2504	-0.0377	0.2127	1239.833	0.18147	-424.229818	-424.220267	-424.219322	-424.264453	35.274	
C	 0.2783823988	 1.0330016439	-0.643633564	-0.386985
C	-0.0897212914	-0.4306914312	-0.3827619282	-0.194074
C	-1.4979233028	-0.5955676971	 0.1889803772	-0.014734
C	-2.6641213368	-0.4395955376	-0.8328019939	-0.259678
C	-2.8828344537	-2.0012074923	-0.8188073381	-0.15239
C	-2.3706760383	-2.6366113964	-2.0751671752	 0.156511
O	-1.2620146622	-3.1031288382	-2.2312995718	-0.267595
C	-1.9589517991	-2.0731317268	 0.4387778163	 0.126325
O	-1.0183643338	-3.0993457427	 0.545840614	-0.431365
H	 1.2897612001	 1.1197136531	-1.0525127005	 0.115067
H	-0.4075347365	 1.5004859002	-1.3590777022	 0.112166
H	 0.2397972934	 1.6208724492	 0.2803009471	 0.114043
H	 0.0103507806	-1.0068918416	-1.309797443	 0.10734
H	 0.6206787582	-0.872970318	 0.3253274992	 0.111059
H	-1.5981922192	 0.042736859	 1.0733215504	 0.068183
H	-3.5334083404	 0.0938135313	-0.4443419981	 0.11338
H	-2.3984139969	-0.0050199905	-1.8005656667	 0.110313
H	-3.9238980127	-2.3112401137	-0.6813707158	 0.089789
H	-3.0901217642	-2.6318078309	-2.924144447	 0.09578
H	-2.576461289	-2.1225313765	 1.3414844083	 0.087912
H	-0.6658325341	-3.2525985032	-0.3427758881	 0.298954
78.6478	90.0227	110.7255	168.7704	224.1367	237.4228	279.8456	292.8239	382.1246	419.3356	546.9121	580.4583	684.436	756.3038	772.2342	785.168	805.2279	891.1256	909.3207	940.0767	982.7672	1005.813	1027.3154	1063.4367	1109.1995	1132.7142	1156.3202	1174.8085	1211.0482	1235.6959	1261.0487	1262.7766	1292.7313	1334.5149	1337.5731	1361.5139	1396.532	1414.068	1426.9036	1465.8819	1484.846	1493.3176	1500.4814	1509.0208	1788.403	2885.7032	3028.6137	3035.5412	3040.3044	3050.7989	3057.0502	3064.826	3071.0367	3096.8736	3102.7508	3118.8358	3719.7718
CCC1CC(C=O)C1O	CC[C@H]1C[C@@H](C=O)[C@H]1O	
InChI=1S/C7H12O2/c1-2-5-3-6(4-8)7(5)9/h4-7,9H,2-3H2,1H3	InChI=1S/C7H12O2/c1-2-5-3-6(4-8)7(5)9/h4-7,9H,2-3H2,1H3/t5-,6-,7-/m0/s1
