22
gdb 121741	5.34742	0.58546	0.56567	2.3015	81.36	-0.2452	0.0658	0.311	2088.1706	0.192396	-441.542913	-441.531636	-441.530692	-441.581713	38.497	
C	-0.03916974	 1.3147136116	-0.4043154099	-0.377987
C	-0.3055528386	-0.1917540795	-0.36003888	-0.166486
C	-1.3301608062	-0.5696113777	 0.7176188483	-0.145957
N	-1.5987091533	-1.9934094441	 0.7987337649	-0.363949
C	-2.6235672315	-2.5727307648	 0.1152206906	 0.517397
O	-3.471909477	-1.9840281268	-0.5199254323	-0.419318
O	-2.5714034622	-3.9223225663	 0.2625885766	-0.280032
C	-3.6210172102	-4.6476357823	-0.3979231138	-0.032521
C	-3.4352219494	-6.1175449795	-0.0718804273	-0.39123
H	 0.693291697	 1.5650885608	-1.1771792294	 0.116488
H	-0.9566093915	 1.8722017451	-0.6219105491	 0.122971
H	 0.3502527211	 1.6792709231	 0.5530711971	 0.113354
H	-0.6796701674	-0.5388645849	-1.3299644721	 0.11574
H	 0.6318899364	-0.7319627281	-0.1733711918	 0.088942
H	-0.9881667636	-0.2222386136	 1.7003276839	 0.10097
H	-2.2860235126	-0.0816620262	 0.509854414	 0.142062
H	-0.9122453479	-2.6096096652	 1.2018730897	 0.24815
H	-4.5897249263	-4.2729883918	-0.052854368	 0.120649
H	-3.564970841	-4.460586486	-1.4754558767	 0.116911
H	-3.4974221823	-6.2889939518	 1.0065998502	 0.126884
H	-4.2157992722	-6.7081830461	-0.5605883256	 0.121139
H	-2.4625678215	-6.4761996859	-0.4210015392	 0.125822
26.2806	36.1067	66.8053	82.9745	122.7479	167.9193	233.1799	255.5409	269.985	309.174	349.5387	398.8821	461.1334	561.1251	703.4581	758.3708	780.4545	809.3088	868.9054	887.2966	912.9314	984.7019	1038.0289	1063.3836	1121.9508	1133.5934	1169.6334	1185.0461	1185.9358	1244.676	1286.7613	1290.8903	1333.4306	1341.8413	1394.4169	1408.3454	1414.7868	1421.0163	1473.552	1485.3535	1490.5237	1497.909	1499.8713	1508.5593	1520.7966	1550.8846	1810.0777	3021.6164	3029.6111	3033.1335	3044.6359	3048.0773	3064.8064	3085.3557	3096.1548	3107.7322	3111.0996	3119.2501	3123.1094	3649.2235
CCCNC(=O)OCC	CCCNC(=O)OCC	
InChI=1S/C6H13NO2/c1-3-5-7-6(8)9-4-2/h3-5H2,1-2H3,(H,7,8)	InChI=1S/C6H13NO2/c1-3-5-7-6(8)9-4-2/h3-5H2,1-2H3,(H,7,8)
