24
gdb 5808	2.91494	1.35131	1.1949	1.0465	82.04	-0.2397	0.0738	0.3135	1201.3106	0.21929	-351.420082	-351.409289	-351.408345	-351.45529	40.227	
C	 0.2355568103	 1.2071933742	-0.5173975554	-0.38125
C	 0.1271864759	-0.1303605094	 0.2171225301	 0.147921
C	 0.4604965016	 0.0033687028	 1.7041923134	-0.381252
O	-1.211980077	-0.6104173213	 0.0923923023	-0.305292
C	-1.4575521191	-1.8637435013	-0.5607384178	 0.360896
C	-0.7814842509	-3.0248424108	 0.1881391486	-0.40782
C	-2.9808665728	-2.0134365918	-0.4873940167	-0.393915
C	-1.0062638026	-1.8242320935	-2.0307200895	-0.407788
H	 1.2391145173	 1.6330878906	-0.4136348305	 0.105892
H	 0.0206556256	 1.0848667198	-1.5824637418	 0.113228
H	-0.4863104785	 1.9197843644	-0.1054840323	 0.120925
H	 0.8318043972	-0.8383792524	-0.2378909756	 0.068993
H	 0.4040737153	-0.967178932	 2.2045547115	 0.113225
H	 1.468029302	 0.4080882879	 1.8469036044	 0.105895
H	-0.2539727282	 0.6766910041	 2.1886706607	 0.12092
H	-1.1084196524	-3.043615399	 1.2319086212	 0.118525
H	-1.0457290042	-3.9826530518	-0.2715245374	 0.110501
H	 0.3097546742	-2.9443338117	 0.1705449862	 0.1111
H	-3.466711214	-1.1760706346	-0.9957073903	 0.116624
H	-3.3051449202	-2.9457272638	-0.9592544945	 0.105956
H	-3.3095880221	-2.0158368115	 0.5554610526	 0.11661
H	 0.0772787308	-1.7024406767	-2.1240254237	 0.111096
H	-1.275187315	-2.755661048	-2.5392773962	 0.110494
H	-1.4920521833	-0.9953029441	-2.5537659293	 0.118518
40.8613	93.8151	191.8729	202.0405	205.8462	244.7474	265.4128	271.1355	297.9183	316.0056	353.5792	393.6585	410.8621	470.8163	476.381	517.6912	737.2667	826.9231	891.342	903.7138	919.6767	922.8793	938.6627	956.1495	1036.4275	1039.4968	1049.9832	1142.2603	1149.889	1199.2188	1227.9111	1248.7282	1277.046	1361.6382	1383.8474	1393.9906	1399.1051	1400.334	1416.0178	1423.2762	1471.0587	1477.8172	1483.2263	1484.86	1486.9797	1493.9968	1499.2724	1501.5003	1507.5537	1518.6487	3021.8352	3033.1213	3034.6382	3037.7598	3038.5191	3045.4507	3101.3405	3103.1631	3106.9307	3111.0431	3111.5118	3113.899	3114.9999	3117.6325	3120.8587	3121.2626
CC(C)OC(C)(C)C	CC(C)OC(C)(C)C	
InChI=1S/C7H16O/c1-6(2)8-7(3,4)5/h6H,1-5H3	InChI=1S/C7H16O/c1-6(2)8-7(3,4)5/h6H,1-5H3
