20
gdb 62952	2.09425	1.84157	1.42248	1.5139	78.58	-0.2342	0.0712	0.3053	1037.4535	0.169468	-403.081907	-403.073228	-403.072284	-403.114514	34.103	
C	-0.0334985951	 1.5777889382	-0.1089217523	-0.449324
C	 0.0131536528	 0.0573743844	-0.0033889188	 0.209459
C	-1.3694556946	-0.5809095581	-0.1386010827	-0.43395
C	 1.0598035151	-0.6628737408	-0.8942466855	-0.079562
N	 2.3969518817	-0.17235617	-0.4930040815	-0.350744
C	 1.7415006906	-1.2613026122	 0.2865712023	-0.177867
C	 0.7829803887	-0.5473472632	 1.2162396916	 0.466573
C	 0.9649987691	-0.0797991203	 2.5861926173	-0.262684
O	 0.1142858352	-1.2021181786	 2.2771221083	-0.287375
H	 0.9726350311	 1.9989674637	-0.0504931605	 0.136847
H	-0.484273535	 1.8879776216	-1.0587657083	 0.108406
H	-0.6397407867	 2.0070430828	 0.6968446932	 0.110445
H	-1.8302363715	-0.2968153407	-1.0911166451	 0.108319
H	-1.3128648184	-1.6728842724	-0.0959840809	 0.120084
H	-2.0273073289	-0.25343788	 0.6713685002	 0.125269
H	 0.8864827703	-1.0850144068	-1.8772254963	 0.091
H	 3.0802294067	-0.6176618475	-1.1055730691	 0.231303
H	 2.20862413	-2.228476075	 0.4237336548	 0.103011
H	 1.8789364631	-0.3220734757	 3.1264472596	 0.115507
H	 0.4430073156	 0.8116376406	 2.9306062235	 0.115283
119.2088	203.8499	215.5366	216.9482	249.9644	273.6777	307.8819	341.9948	411.24	521.4874	541.7885	601.9069	652.9732	811.7939	834.9924	840.8844	861.3757	902.8083	928.5709	955.9627	959.2194	981.1297	1022.1707	1031.5006	1083.6517	1103.5013	1119.1785	1133.5198	1158.9555	1188.3251	1230.343	1250.985	1289.3813	1321.0692	1357.822	1395.2969	1414.6541	1449.9716	1481.4262	1485.8886	1499.331	1508.2268	1537.9321	3026.535	3034.	3083.189	3085.7857	3101.9706	3113.5056	3126.0151	3170.5661	3180.1804	3198.4719	3469.2142
CC1(C)C2NC2C11CO1	CC1(C)[C@H]2N[C@H]2[C@]21CO2	
InChI=1S/C7H11NO/c1-6(2)4-5(8-4)7(6)3-9-7/h4-5,8H,3H2,1-2H3	InChI=1S/C7H11NO/c1-6(2)4-5(8-4)7(6)3-9-7/h4-5,8H,3H2,1-2H3/t4-,5+,7-/m0/s1
