19
gdb 72826	2.59269	1.5146	1.3103	3.8972	74.51	-0.2312	-0.0305	0.2007	1061.4528	0.159489	-423.039377	-423.031227	-423.030283	-423.072083	31.305	
C	-0.3609485454	 1.5426596738	 0.0196719256	-0.482584
C	 0.0538282551	 0.0817953974	-0.0225845813	 0.272634
C	-1.0325243561	-0.9537551195	 0.3582176722	-0.110681
O	-0.2178310071	-1.4964630496	 1.4217084153	-0.296504
C	 0.8274050029	-0.5207173632	 1.1840562996	-0.012013
C	 2.0575096019	-1.2330321298	 0.6071715288	 0.409194
O	 3.0649549233	-1.5022504173	 1.2061873307	-0.307667
C	 1.7647731699	-1.4906011446	-0.8723602534	-0.335815
C	 0.8702665542	-0.304304012	-1.281709167	-0.279126
H	 0.5124609673	 2.2023581364	-0.0230179704	 0.122805
H	-1.0037104676	 1.7900250093	-0.8334345891	 0.122054
H	-0.9156457798	 1.775269036	 0.9342369126	 0.124268
H	-1.9662144942	-0.5279132516	 0.746635415	 0.103618
H	-1.2740234653	-1.7068785054	-0.4025796243	 0.101543
H	 1.0480360048	 0.087933886	 2.0656595815	 0.085922
H	 2.6865778751	-1.5884815469	-1.4476425427	 0.127271
H	 1.2229419157	-2.4417316255	-0.9478562244	 0.139665
H	 0.2192634255	-0.5291220945	-2.1322047996	 0.106524
H	 1.4995074399	 0.544425481	-1.574090929	 0.108894
77.867	146.7476	206.4144	226.3585	276.555	337.4869	362.3383	450.6369	520.8778	550.7235	629.3064	675.2759	775.008	833.996	873.5121	901.3341	922.4419	964.6532	988.4289	1005.185	1017.3733	1037.6567	1099.5182	1131.7741	1156.5845	1180.6794	1201.6933	1240.4976	1259.8065	1270.0209	1290.2124	1303.5006	1334.0328	1378.1831	1416.5264	1458.9654	1490.5674	1494.3022	1499.2243	1526.3272	1851.8194	3008.8616	3025.4015	3037.5245	3041.6174	3053.8977	3074.3431	3083.6327	3090.5548	3101.8939	3125.3289
CC12COC1C(=O)CC2	C[C@]12CO[C@H]1C(=O)CC2	
InChI=1S/C7H10O2/c1-7-3-2-5(8)6(7)9-4-7/h6H,2-4H2,1H3	InChI=1S/C7H10O2/c1-7-3-2-5(8)6(7)9-4-7/h6H,2-4H2,1H3/t6-,7-/m0/s1
