12
gdb 129250	2.17178	1.92431	1.02693	1.6222	70.58	-0.2558	-0.0877	0.1681	1039.2352	0.077632	-468.817136	-468.809703	-468.808759	-468.84959	26.451	
N	-0.3016636166	 1.1545589241	 0.0116165965	-0.565218
C	-0.1421095385	-0.0963151011	 0.0029182685	 0.379038
O	 1.0599961197	-0.7587498991	-0.0072867309	-0.243793
C	 0.8908495318	-2.1779015347	-0.0147714292	-0.196724
C	-0.6206371683	-2.4569037063	-0.0082201364	 0.309659
C	-1.1895735354	-1.1151570756	 0.0028078227	 0.144729
N	-2.4671257679	-0.8496741429	 0.0115526059	 0.130043
N	-3.5774169287	-0.6639972878	 0.0185113058	-0.173482
O	-1.1483076134	-3.5411038249	-0.0115885856	-0.328648
H	 0.5958422984	 1.6382645885	 0.0097568436	 0.234923
H	 1.3534956262	-2.6029563549	-0.9113709152	 0.154727
H	 1.3632276127	-2.6135551253	 0.8716103643	 0.154746
104.686	127.0947	168.9676	185.4144	332.8505	448.6028	528.838	538.0407	583.0483	605.3004	656.447	700.248	713.1671	839.792	978.8434	1000.479	1055.8134	1095.8017	1183.3885	1201.5914	1251.3194	1350.9962	1439.1384	1485.8939	1768.5238	1824.5267	2253.6868	3050.6016	3098.8965	3504.6221
N=C1OCC2=C1N=NO2	[NH]C1=C(C(=O)CO1)[N][N]	
InChI=1S/C4H3N3O2/c5-4-3-2(1-8-4)9-7-6-3/h5H,1H2	InChI=1S/C4H3N3O2/c5-4-3(7-6)2(8)1-9-4/h5H,1H2
