12
gdb 131292	3.62303	1.2145	0.90959	2.908	63.28	-0.247	-0.055	0.192	1149.2823	0.077976	-505.95766	-505.95022	-505.949276	-505.989756	27.217	
O	 0.0799976524	 1.3453374682	-0.0223509972	-0.409063
C	 0.0750031413	 0.0091327731	-0.0027652275	 0.33264
N	 0.0511676068	-0.7659316907	-1.0586334488	-0.310205
N	 0.056409558	-2.0199132219	-0.5350012483	 0.051429
C	 0.0354974775	-3.1393742532	-1.3723895956	 0.203588
O	 0.0384924518	-4.2739511326	-0.9884674022	-0.267488
N	 0.082692313	-2.071381683	 0.8162801927	-0.295031
C	 0.0947786394	-0.8096794646	 1.171626927	 0.345869
O	 0.1212950346	-0.3660853567	 2.4307117428	-0.407808
H	 0.0629358132	 1.6337254169	-0.9443174548	 0.318795
H	 0.0162556431	-2.8040662686	-2.4221443803	 0.116298
H	 0.1299511789	-1.133956677	 3.0178169622	 0.320974
104.8417	197.9643	229.5766	276.8416	318.693	381.9229	413.7739	464.1862	474.5908	579.1381	621.9401	661.8827	756.2515	793.3957	862.235	990.451	1023.147	1197.4909	1210.1819	1252.6232	1368.5913	1401.6171	1423.6093	1499.0741	1640.2255	1645.5173	1840.4141	3018.4439	3786.6069	3792.1228
OC1=NN(C=O)N=C1O	Oc1nn(C=O)nc1O	
InChI=1S/C3H3N3O3/c7-1-6-4-2(8)3(9)5-6/h1H,(H,4,8)(H,5,9)	InChI=1S/C3H3N3O3/c7-1-6-4-2(8)3(9)5-6/h1H,(H,4,8)(H,5,9)
