16
gdb 127686	3.05238	1.50496	1.02075	3.2518	80.44	-0.2328	-0.0596	0.1732	1134.0212	0.124071	-430.206734	-430.198243	-430.197299	-430.240297	30.543	
C	-0.0038726993	 1.4028232735	 0.0639546456	-0.303745
N	 0.0122891279	-0.0505538589	 0.0363037425	 0.104088
N	-0.0272777127	-0.6395622382	-1.1614445491	-0.065285
N	-0.0161848097	-1.9062981083	-1.2443455547	-0.26993
C	 0.0382635795	-2.6962472187	-0.0704428251	 0.291061
N	 0.0524259926	-3.9747998806	-0.1040761559	-0.511907
C	 0.0776706265	-1.974399686	 1.2028807971	 0.352212
C	 0.1341880729	-2.7290900772	 2.487663161	-0.461957
N	 0.0642217516	-0.6789461858	 1.2345235132	-0.280386
H	 0.9010216262	 1.7770106913	 0.5498942082	 0.152766
H	-0.0475399073	 1.7488545075	-0.9673708846	 0.16682
H	-0.8773729629	 1.7559207119	 0.6182864215	 0.152779
H	 0.0189748004	-4.2806780898	-1.0802075524	 0.225579
H	 1.0161884221	-3.3777471881	 2.4986639914	 0.157181
H	 0.1584064609	-2.04232575	 3.3348120319	 0.133596
H	-0.7299456589	-3.3970713026	 2.5642349393	 0.157129
60.6797	103.8689	158.8538	182.151	278.8779	314.5319	338.7831	434.1951	496.7327	516.9251	535.8667	583.8085	717.6161	786.7197	814.8032	913.5238	942.1276	994.1143	1046.5361	1053.3428	1087.4851	1152.5356	1234.7384	1258.1327	1336.3967	1396.7734	1433.524	1445.4501	1460.5588	1460.916	1476.5723	1503.2206	1507.6991	1639.1521	1695.8753	3046.106	3054.0682	3102.1277	3120.1736	3151.5663	3178.0061	3445.7577
CN1N=NC(=N)C(C)=N1	Cn1nnc([NH])c(C)n1	
InChI=1S/C4H7N5/c1-3-4(5)6-8-9(2)7-3/h5H,1-2H3	InChI=1S/C4H12N5/c1-3-4(5)6-8-9(2)7-3/h3-8H,1-2H3
