18
gdb 107335	2.70993	1.57362	1.21252	2.6156	71.75	-0.2449	-0.0081	0.2368	1047.3342	0.148837	-439.054333	-439.046235	-439.045291	-439.086913	31.577	
O	-0.0226601478	 1.2950052025	 0.4704585081	-0.4269
C	 0.0223917417	-0.002050732	-0.1067018709	-0.165932
C	-1.3529108824	-0.5996642178	-0.1871947605	 0.279586
N	-2.0504418229	-1.0000087841	 1.0589134887	-0.375014
C	-1.755335212	-2.011150224	-0.0069576757	-0.161447
C	-2.9498367142	-2.2304718502	-0.8839053015	-0.04796
C	-3.3016700236	-1.0953037208	-1.4899183238	-0.12508
C	-2.3596498672	 0.0490835321	-1.1506403849	 0.043664
O	-2.9849786741	 1.1818663761	-0.553695618	-0.441436
H	-0.8286464312	 1.7241604666	 0.1533526104	 0.294233
H	 0.4714668175	 0.0258612126	-1.1134935761	 0.091783
H	 0.6791783007	-0.6115895678	 0.5263875071	 0.095655
H	-1.3508678317	-1.0715651658	 1.7979008957	 0.235137
H	-1.0486277746	-2.8044176051	 0.2109352722	 0.098943
H	-3.4666453126	-3.1801703665	-0.9536936553	 0.108964
H	-4.1686881736	-0.9486388708	-2.1231466788	 0.108508
H	-1.859571618	 0.4374223917	-2.0467088569	 0.094653
H	-3.298271914	 0.8618827132	 0.3057088401	 0.29264
91.1479	122.0349	189.8156	284.2062	310.3471	363.1022	393.2861	466.9488	497.0238	573.9441	593.9042	685.3253	713.642	777.3505	824.039	887.4717	912.3911	925.28	966.0388	998.7984	1008.956	1028.6581	1063.8326	1073.6868	1074.9809	1121.7293	1168.4098	1205.1824	1248.1307	1288.5515	1292.1643	1347.0971	1368.1575	1373.563	1425.7037	1444.5816	1465.6366	1511.1757	1666.4675	2964.787	3035.5824	3044.0939	3175.1956	3195.3406	3219.0757	3464.9504	3726.5235	3753.4516
OCC12NC1C=CC2O	OC[C@]12N[C@H]1C=C[C@H]2O	
InChI=1S/C6H9NO2/c8-3-6-4(7-6)1-2-5(6)9/h1-2,4-5,7-9H,3H2	InChI=1S/C6H9NO2/c8-3-6-4(7-6)1-2-5(6)9/h1-2,4-5,7-9H,3H2/t4-,5+,6-/m0/s1
