19
gdb 84996	2.43045	1.48778	1.20175	2.913	71.62	-0.2652	0.0084	0.2736	1130.9347	0.156975	-460.225989	-460.216629	-460.215684	-460.259872	34.545	
C	-0.0490626388	 1.5022681687	-0.0928907862	-0.402209
C	 0.0697573541	 0.0085464218	 0.0936424418	 0.215482
O	 0.5310409785	-0.6160115693	-1.1168222784	-0.238541
C	 1.4520379543	-1.5604598151	-0.8031409826	 0.420756
O	 1.9697037547	-2.2799819518	-1.6058562836	-0.348867
C	 1.6715409455	-1.5162432157	 0.7139202665	 0.196349
C	 1.0001855625	-2.7298404624	 1.3730332954	-0.422403
C	 3.1537387771	-1.4204100901	 1.0561901958	-0.420079
O	 1.0223306533	-0.294335017	 1.0839678659	-0.293258
H	 0.9209145177	 1.9178248651	-0.3760204378	 0.136512
H	-0.7824132806	 1.7287670274	-0.8705620368	 0.13619
H	-0.3742421667	 1.9602239287	 0.8448446092	 0.136622
H	-0.9052940685	-0.4446293142	 0.3349522009	 0.087531
H	 1.4649875222	-3.6539456226	 1.0195047349	 0.143108
H	 1.1112395403	-2.6669270939	 2.4588831906	 0.129741
H	-0.0673093273	-2.773049544	 1.1367774783	 0.125216
H	 3.5866689368	-0.5122097658	 0.6299606938	 0.129039
H	 3.2905499835	-1.3964771618	 2.1407993539	 0.12551
H	 3.6814206113	-2.285823938	 0.6482271982	 0.1433
84.7963	118.9419	188.2403	208.3322	218.6631	226.0514	286.5649	294.0991	346.626	409.1546	495.1875	555.2076	609.0851	706.7303	723.5974	753.2939	868.2021	897.9684	940.6852	946.254	992.267	1018.8281	1068.2826	1130.543	1152.8044	1195.08	1201.5547	1226.3209	1292.6246	1379.5942	1393.5488	1398.0668	1413.8217	1431.3435	1475.3928	1479.9372	1483.7515	1485.4649	1496.1849	1505.442	1888.8669	2975.5329	3044.0558	3051.1008	3055.1725	3117.2356	3126.5015	3130.4724	3136.4097	3138.2676	3141.874
CC1OC(=O)C(C)(C)O1	C[C@H]1OC(=O)C(C)(C)O1	
InChI=1S/C6H10O3/c1-4-8-5(7)6(2,3)9-4/h4H,1-3H3	InChI=1S/C6H10O3/c1-4-8-5(7)6(2,3)9-4/h4H,1-3H3/t4-/m0/s1
