18
gdb 102259	2.60797	1.05057	0.7777	4.1183	75.49	-0.2392	0.0193	0.2584	1428.889	0.144699	-439.073763	-439.063417	-439.062473	-439.110069	36.64	
C	 0.6592947235	 0.8406940795	 0.3316039823	-0.248123
O	 0.1968000794	-0.4201773865	-0.1225910526	-0.238877
C	-1.2239949739	-0.5634844043	-0.0905776552	-0.101403
C	-1.5841750838	-1.8846924232	-0.7934854056	-0.301101
C	-1.378707725	-1.9186569563	-2.312867423	 0.360104
N	-0.2060635253	-1.3864398235	-2.7503978709	-0.506501
O	-2.2062230118	-2.4135761481	-3.0538020527	-0.361277
C	-1.7332669208	-0.5482766706	 1.2855204617	 0.339991
C	-2.1523886258	-0.5484319121	 2.4119208934	-0.443862
H	 1.7478436275	 0.8271206123	 0.2471421797	 0.133298
H	 0.2590275992	 1.6599676158	-0.2837992486	 0.113733
H	 0.3790000146	 1.0143889275	 1.3775197647	 0.132937
H	-1.6801855575	 0.2760700409	-0.6413013974	 0.108332
H	-0.9901343083	-2.6818638436	-0.3323872075	 0.140446
H	-2.6363745439	-2.1110871459	-0.6193853109	 0.143758
H	 0.4519291625	-0.9941475404	-2.0956262843	 0.26782
H	-0.0094271195	-1.4091493349	-3.737125481	 0.255734
H	-2.527588231	-0.5469379067	 3.4058555679	 0.20499
29.0541	90.6066	104.4858	133.0601	182.0345	238.6471	266.8037	276.6063	323.9324	365.9226	437.8767	492.3173	579.8887	591.5237	628.3223	637.0068	682.8863	723.7603	831.2887	873.6103	978.3404	1006.0247	1060.432	1128.1663	1131.8785	1184.0594	1193.2442	1249.1845	1286.3139	1354.7357	1359.0608	1375.0451	1454.587	1477.2788	1484.8125	1510.2186	1607.6555	1801.1116	2232.6896	2966.9309	2995.0797	3059.7552	3064.7798	3128.1648	3140.0701	3501.1711	3573.1555	3721.9683
COC(CC(N)=O)C#C	CO[C@@H](CC(=O)N)C#C	
InChI=1S/C6H9NO2/c1-3-5(9-2)4-6(7)8/h1,5H,4H2,2H3,(H2,7,8)	InChI=1S/C6H9NO2/c1-3-5(9-2)4-6(7)8/h1,5H,4H2,2H3,(H2,7,8)/t5-/m1/s1
