18
gdb 16983	3.84527	2.15511	2.07365	1.6943	71.88	-0.2301	0.0705	0.3006	759.4694	0.156467	-347.705465	-347.699576	-347.698631	-347.734974	25.406	
C	-0.0391132234	 1.6170309309	-0.1971552361	-0.30138
C	 1.5253249823	 1.4662721824	 0.0746579257	-0.322547
C	 1.1557847413	 0.182305547	 0.8793155799	 0.237518
C	 1.1432381558	-1.3911098324	 0.9573792073	-0.332833
C	-0.4202601188	-1.0713424618	 1.0866986114	 0.049141
O	-0.5165660991	-0.4430269291	 2.3539808851	-0.262246
C	 0.5896105709	 0.4807033612	 2.2866336729	-0.094596
C	-0.1050384942	 0.0680234517	 0.0463489133	 0.030284
H	-0.5381809388	 2.2342767742	 0.550137449	 0.121176
H	-0.3337354302	 1.9612858685	-1.190855743	 0.101138
H	 2.0597015419	 1.2512530116	-0.8538118748	 0.111966
H	 2.0381079764	 2.2750873405	 0.6031066844	 0.100674
H	 1.4212240564	-1.8859956275	 0.0270699617	 0.105498
H	 1.5924221462	-1.8885521644	 1.8224474987	 0.098879
H	-1.2004988133	-1.8257804518	 0.9804511556	 0.080899
H	 1.3182456969	 0.2556797575	 3.0750992181	 0.097611
H	 0.2289201126	 1.503748781	 2.4299243649	 0.097918
H	 0.1376655669	-0.4142797594	-0.905200734	 0.0809
247.7344	309.5322	368.5458	451.1255	488.2621	593.6195	638.2631	671.8988	754.9022	792.0778	836.8992	842.3963	871.6351	934.8139	944.0905	959.3677	981.2807	1005.3977	1027.4193	1060.8622	1085.6175	1110.4159	1128.1729	1156.1154	1170.6001	1188.6855	1197.9988	1214.6726	1224.5322	1245.8095	1258.6496	1293.6067	1370.2591	1393.1533	1481.1282	1489.1977	1492.2336	1535.6478	3025.3506	3051.9599	3054.7421	3059.1288	3069.8378	3081.4896	3113.1583	3119.375	3142.7178	3146.5111
C1CC23CC(OC2)C13	C1C[C@@]23C[C@@H](OC2)[C@@H]13	
InChI=1S/C7H10O/c1-2-7-3-6(5(1)7)8-4-7/h5-6H,1-4H2	InChI=1S/C7H10O/c1-2-7-3-6(5(1)7)8-4-7/h5-6H,1-4H2/t5-,6-,7-/m1/s1
