22
gdb 56809	2.32696	1.25695	0.94521	1.5099	88.44	-0.2156	0.0502	0.2658	1339.601	0.190997	-367.148302	-367.137543	-367.136599	-367.183905	39.439	
C	-0.828118998	 1.2818488318	 0.3390806316	-0.394395
C	 0.4848750095	 0.590813318	-0.0874705986	-0.190442
C	 1.4729684865	 1.5763632777	-0.5315462305	 0.335931
C	 2.2784015908	 2.3995332668	-0.8770027344	-0.467753
C	 1.0421743533	-0.2386658242	 1.0708773445	 0.003648
C	 0.6406911991	-1.6611994474	 1.3193024275	-0.01255
C	-0.3310958238	-2.4295495641	 0.446958789	-0.41808
N	 2.0067674505	-1.3220346047	 0.9114259279	-0.108073
C	 2.5130442747	-1.6896213395	-0.4027151197	-0.319457
H	-0.6591624152	 1.9226312726	 1.2096087749	 0.129054
H	-1.2188728936	 1.9052590508	-0.4690728904	 0.125825
H	-1.5816727044	 0.5340022785	 0.6022003616	 0.119338
H	 0.2600764069	-0.0617355516	-0.9373975197	 0.102396
H	 2.9938309851	 3.1192105111	-1.1896080154	 0.194651
H	 1.2480713822	 0.3875016015	 1.940224188	 0.090965
H	 0.5896214362	-1.9731256246	 2.3633478256	 0.086534
H	-0.3705862389	-2.0792618134	-0.5859776371	 0.120544
H	-0.0667497942	-3.4927026696	 0.4251622245	 0.124375
H	-1.342088008	-2.3535827452	 0.8613277186	 0.12397
H	 1.7749255461	-1.7056336646	-1.2174652783	 0.097089
H	 3.3011859989	-0.9845996702	-0.6817684139	 0.136363
H	 2.9574260563	-2.6880854597	-0.3376454658	 0.12007
56.1213	104.0859	150.2035	162.1312	174.3208	202.896	220.903	248.8375	281.3795	295.3892	448.8121	471.8145	505.0938	535.5979	582.4654	629.5672	634.4431	744.0313	782.7335	831.85	885.4521	984.864	990.9838	1047.6293	1077.206	1096.0018	1108.1144	1140.3432	1161.3734	1171.4263	1189.396	1205.3164	1275.6749	1319.6634	1355.3293	1388.9352	1405.1801	1413.8986	1433.829	1460.2566	1484.8194	1490.8973	1496.8541	1499.5095	1506.8955	1507.9249	2232.9477	2994.6263	3036.7149	3042.6626	3051.3582	3069.4975	3082.3714	3091.7303	3092.1862	3109.0489	3118.1439	3123.6234	3128.2502	3504.2499
CC(C#C)C1C(C)N1C	C[C@@H](C#C)[C@H]1[C@@H](C)N1C	
InChI=1S/C8H13N/c1-5-6(2)8-7(3)9(8)4/h1,6-8H,2-4H3	InChI=1S/C8H13N/c1-5-6(2)8-7(3)9(8)4/h1,6-8H,2-4H3/t6-,7+,8-,9?/m0/s1
