16
gdb 52635	4.92884	0.6856	0.65261	3.9412	84.51	-0.2487	-0.0268	0.2219	1717.2092	0.122455	-396.921033	-396.910796	-396.909852	-396.959087	34.635	
C	-0.3373964958	 1.4004653731	 0.1015429166	-0.506265
C	-0.0954593166	-0.0281857988	-0.0127230296	 0.217308
C	 0.1257810399	-1.2093526916	-0.0988527201	-0.010702
C	 0.3535664494	-2.6227125328	-0.2191490182	 0.179454
N	-0.7288630575	-3.3370218795	-0.6970351248	-0.558298
N	 1.4880338618	-3.095764646	 0.1627953187	-0.287681
C	 1.6816572358	-4.5368657582	 0.1213470789	-0.293739
C	 1.5857606082	-5.1356436752	-1.2230076008	 0.250116
N	 1.459400011	-5.5714408893	-2.2871427974	-0.321171
H	 0.5141551665	 1.9065350944	 0.5678757645	 0.163217
H	-0.5004078436	 1.8526796222	-0.8827357586	 0.158399
H	-1.2244521818	 1.6016800636	 0.7118835889	 0.157931
H	-1.464418368	-2.7897157536	-1.1156664495	 0.263811
H	-0.5446111822	-4.2082789897	-1.1741030596	 0.276872
H	 2.6761718675	-4.7631906839	 0.517855681	 0.159011
H	 0.9545600153	-5.0635190547	 0.7606820301	 0.151736
7.5068	55.2316	83.8937	102.1985	158.7156	249.6622	287.6059	326.0163	370.8467	386.5898	418.3233	460.6724	535.1673	574.2471	618.4688	730.7183	774.686	897.8313	961.1608	1001.7577	1049.6094	1051.9428	1106.623	1151.4645	1261.6954	1337.8003	1386.7465	1412.2282	1465.4728	1472.6592	1474.2895	1652.0467	1687.6145	2342.0003	2366.5879	2982.283	3031.619	3075.922	3093.6533	3099.4257	3567.0342	3681.4067
CC#CC(N)=NCC#N	CC#CC(=NCC#N)N	
InChI=1S/C6H7N3/c1-2-3-6(8)9-5-4-7/h5H2,1H3,(H2,8,9)	InChI=1S/C6H7N3/c1-2-3-6(8)9-5-4-7/h5H2,1H3,(H2,8,9)
