19
gdb 66467	3.46329	1.55883	1.4594	1.5926	78.16	-0.2373	0.0883	0.3256	994.7833	0.15869	-385.821951	-385.814361	-385.813416	-385.85343	30.833	
C	-0.0139158516	 1.4383945887	 0.0374567937	-0.522161
C	-0.019331205	-0.0591885744	 0.0210116127	 0.34842
C	 0.4488946323	-1.0450245794	-1.0305121322	-0.172497
C	 1.2000934578	-0.9413150778	 0.2814381575	-0.192088
C	 0.4813449368	-2.1724240057	 0.9112104219	 0.459021
C	 1.2363024853	-3.3444349246	 1.4586490426	-0.517781
O	-0.5658838168	-1.6490500724	 1.7738969374	-0.329413
C	-1.0968731828	-1.0414070543	 0.5778055896	 0.012572
C	-0.4547516119	-2.1152452619	-0.3497448046	-0.156168
H	 0.8954722387	 1.8353302011	-0.4262097438	 0.120701
H	-0.8694628967	 1.84983897	-0.5102113634	 0.118652
H	-0.0575619878	 1.8202682097	 1.0640950989	 0.127572
H	 0.7781307615	-0.8986635356	-2.0491278308	 0.089052
H	 2.1835750603	-0.5383398093	 0.4873560225	 0.083229
H	 1.8011457288	-3.0518092974	 2.3507292586	 0.130182
H	 0.5533701443	-4.1530103953	 1.733941184	 0.128161
H	 1.9451724896	-3.7201063714	 0.7142490739	 0.125157
H	-2.1460096576	-0.7542596204	 0.6421932295	 0.07347
H	-0.9691600553	-2.9664542695	-0.789631278	 0.07392
182.3107	195.5583	208.7973	220.373	294.7545	324.9449	527.3481	561.0924	590.3662	657.249	757.1851	797.8222	803.3058	828.7536	847.9655	858.5827	862.8206	889.0267	900.2406	925.1501	960.1135	996.9986	1024.8982	1096.1055	1103.8812	1126.0765	1141.5817	1155.0043	1163.3145	1183.3971	1234.542	1263.9542	1276.8995	1350.7344	1407.2587	1415.4847	1431.8597	1478.0393	1486.3615	1491.0894	1498.6558	3022.0276	3035.3546	3082.3678	3093.0266	3103.7325	3117.0069	3124.1702	3145.7821	3194.2904	3218.9963
CC12C3C1C1(C)OC2C31	C[C@@]12[C@H]3[C@@H]1[C@@]1(C)O[C@@H]2[C@@H]31	
InChI=1S/C8H10O/c1-7-3-4-6(7)9-8(4,2)5(3)7/h3-6H,1-2H3	InChI=1S/C8H10O/c1-7-3-4-6(7)9-8(4,2)5(3)7/h3-6H,1-2H3/t3-,4-,5+,6-,7-,8+/m1/s1
