20
gdb 14986	4.4164	1.33836	1.09765	1.2406	77.2	-0.2419	0.022	0.2639	1128.2815	0.178134	-349.013362	-349.005286	-349.004341	-349.045895	30.522	
C	 0.051460745	 1.5735958375	 0.152216043	-0.389013
C	-0.0010815832	 0.0512245182	-0.0077313138	-0.18136
C	 0.6634033179	-0.4733051993	-1.2958039091	-0.029417
C	 0.8263735151	-1.9983918569	-1.2399883521	-0.097542
O	 1.2723245629	-2.5289993312	-2.4751229622	-0.250524
C	 0.325740441	-2.361583097	-3.5114778059	-0.113625
C	-0.289906665	-0.9903721969	-3.5335013351	-0.090051
C	-0.1135153131	-0.1201341465	-2.5418987459	-0.050578
H	 1.0862561743	 1.9332998301	 0.1606215895	 0.116834
H	-0.4710358654	 2.0896388107	-0.6595750154	 0.120112
H	-0.4168171326	 1.8846554035	 1.0911564233	 0.11435
H	 0.4974199713	-0.4134532952	 0.8533825948	 0.09498
H	-1.044081804	-0.2899678955	 0.0216892013	 0.098537
H	 1.6672802268	-0.0257575889	-1.3611086263	 0.084669
H	 1.5759852485	-2.2859873455	-0.4965073649	 0.103968
H	-0.133916949	-2.4579744976	-0.9476712326	 0.083693
H	 0.8619311853	-2.5565483056	-4.4483765595	 0.115351
H	-0.4698006318	-3.1275854277	-3.4385292495	 0.094339
H	-0.8893466969	-0.7405342577	-4.4053643989	 0.089522
H	-0.551812917	 0.8725257416	-2.6044595706	 0.085754
83.1765	109.6859	198.7417	236.9031	296.5294	307.5077	365.1565	470.356	504.9979	537.3043	697.418	751.4915	791.2765	885.5516	906.1606	940.4912	975.8279	994.6906	1004.3845	1036.2221	1049.852	1096.1988	1119.946	1143.5772	1159.124	1219.9824	1246.6285	1274.3853	1298.9124	1316.3146	1356.1727	1372.4491	1383.6946	1406.7678	1417.2527	1428.2106	1483.578	1486.6971	1498.632	1502.3072	1506.3278	1721.4629	2924.6422	2955.7019	2984.5757	3014.0027	3033.9774	3044.7263	3048.3316	3079.1425	3101.038	3103.9749	3148.0412	3171.0674
CCC1COCC=C1	CC[C@H]1COCC=C1	
InChI=1S/C7H12O/c1-2-7-4-3-5-8-6-7/h3-4,7H,2,5-6H2,1H3	InChI=1S/C7H12O/c1-2-7-4-3-5-8-6-7/h3-4,7H,2,5-6H2,1H3/t7-/m1/s1
