17
gdb 36440	4.10896	1.04141	0.97867	6.5596	72.81	-0.2453	0.0398	0.2851	1222.3617	0.137091	-417.96925	-417.961395	-417.960451	-418.002373	29.276	
N	 0.0072745848	-1.0008415622	-0.6218529687	-0.308768
C	 0.0167178252	 0.1234087333	-0.3553311147	 0.266032
C	 0.0258970275	 1.5403073818	-0.0042195963	-0.355455
C	 1.4377635057	 2.0955696584	 0.1637561531	 0.151989
O	 2.2269049887	 2.03196639	-1.0511223078	-0.306733
C	 2.5743799254	 3.4281789705	-0.9657536368	 0.117141
C	 1.6516818125	 4.3515638236	-1.7859330533	-0.185662
N	 0.6519734371	 4.3334608029	-0.6734461953	-0.319017
C	 1.6025836052	 3.6315387556	 0.221566998	-0.100116
H	-0.4907582161	 2.1247588225	-0.7709368748	 0.169952
H	-0.5250857413	 1.6737879307	 0.9350291701	 0.146026
H	 1.9605212935	 1.5784507142	 0.9791935789	 0.094419
H	 3.6523433261	 3.5969196998	-0.9751238579	 0.091914
H	 2.098598278	 5.3367516394	-1.9676452388	 0.103953
H	 1.2820639794	 3.9391559209	-2.7293432861	 0.122481
H	 0.3846564802	 5.2527005144	-0.3454146396	 0.229297
H	 1.8301561482	 4.0994514745	 1.1797323002	 0.082547
56.4122	116.3011	134.6486	245.5398	345.1143	383.6868	399.8329	493.7291	556.6288	670.6162	722.912	799.5928	815.5297	856.603	919.1684	947.817	975.7113	990.4101	1014.7869	1027.4623	1059.7083	1084.8712	1102.7948	1150.4797	1193.6782	1206.3683	1223.7777	1250.8258	1284.7744	1303.3977	1347.4927	1353.5944	1374.7067	1403.3835	1455.7776	1496.136	2364.1054	3019.4177	3024.8379	3043.7341	3089.9254	3096.1301	3102.7008	3109.6091	3561.3613
N#CCC1OC2CNC12	N#CC[C@H]1O[C@H]2CN[C@@H]12	
InChI=1S/C6H8N2O/c7-2-1-4-6-5(9-4)3-8-6/h4-6,8H,1,3H2	InChI=1S/C6H8N2O/c7-2-1-4-6-5(9-4)3-8-6/h4-6,8H,1,3H2/t4-,5+,6+/m1/s1
