16
gdb 52382	4.80497	0.60363	0.53981	2.6751	69.39	-0.2635	-0.106	0.1576	1907.2596	0.120517	-475.030763	-475.020709	-475.019765	-475.068659	32.509	
N	-0.2693262464	 1.2700450373	 0.4412202521	-0.435271
C	-0.1412330004	 0.0483736235	 0.1553403007	 0.129085
O	-1.2041953156	-0.7770838585	 0.2395118678	-0.18666
C	-0.9661339814	-2.1411281367	-0.1030818744	-0.080155
C	-2.2848272288	-2.877468503	 0.0622154267	-0.319944
C	-2.1691162603	-4.3423494544	-0.2719743596	 0.282779
O	-1.1508984702	-4.8883547788	-0.6324042599	-0.27719
C	-3.441384993	-5.1920866181	-0.141874617	 0.095389
O	-4.5012764861	-4.7461707787	 0.207615905	-0.211748
H	 0.6211948144	 1.7493507429	 0.3264872143	 0.231363
H	 0.7801177571	-0.4538334452	-0.1717124877	 0.088729
H	-0.6077729161	-2.2230454014	-1.1365239975	 0.125012
H	-0.1995375639	-2.5754402802	 0.5502463528	 0.125002
H	-2.6643081926	-2.7772656184	 1.0866489102	 0.160173
H	-3.0646812908	-2.431525459	-0.5674436849	 0.160184
H	-3.274616656	-6.2576608913	-0.4049140386	 0.113254
24.1262	55.7185	71.2038	88.8063	133.0805	136.3741	199.0015	253.7045	412.7129	463.6966	503.2583	596.4682	675.435	761.4951	822.4359	836.1926	950.4207	1007.5294	1045.0682	1087.7151	1092.1193	1135.161	1170.9969	1208.1683	1290.5126	1299.898	1347.3561	1363.8774	1412.2921	1432.4904	1447.5723	1513.9599	1751.8411	1799.6928	1827.1111	2930.5475	3014.0774	3028.4251	3048.0338	3059.5125	3082.7114	3520.1896
N=COCCC(=O)C=O	[NH][CH]OCCC(=O)C=O	
InChI=1S/C5H7NO3/c6-4-9-2-1-5(8)3-7/h3-4,6H,1-2H2	InChI=1S/C5H7NO3/c6-4-9-2-1-5(8)3-7/h3-4,6H,1-2H2
