24
gdb 76626	2.22478	1.44188	1.15317	1.0863	89.8	-0.1996	0.0794	0.279	1237.8343	0.21548	-368.368195	-368.35801	-368.357066	-368.402651	39.315	
C	-0.6116024697	-0.8158214743	 0.010008247	-0.426357
C	 0.4490271937	-1.7954116297	 0.4790131072	-0.001181
C	 1.8069017449	-1.9010023163	-0.1571395972	-0.014595
C	 2.2674145132	-0.9518444573	-1.2446111438	-0.416168
N	 1.6579097223	-1.5032797081	 1.2399101984	-0.148468
C	 2.1209037797	-0.2557212438	 1.7939549075	 0.372645
C	 3.6160304792	-0.3275365735	 2.0472965034	-0.427802
C	 1.5370169239	 1.1250197074	 1.5305563341	-0.313613
C	 1.2754599747	 0.4125221063	 2.8425852066	-0.303349
H	-0.2174744363	 0.0159468962	-0.5748880576	 0.124453
H	-1.3223351465	-1.3544044203	-0.6265383035	 0.118744
H	-1.180472838	-0.4040692867	 0.850461001	 0.125045
H	-0.0025711639	-2.7322614899	 0.8105532896	 0.084002
H	 2.223444651	-2.903348866	-0.2719143142	 0.080406
H	 1.9029563383	 0.0665308411	-1.1023015501	 0.129228
H	 3.3613438487	-0.907375873	-1.2754255901	 0.121935
H	 1.9282740818	-1.304365751	-2.2253841359	 0.11648
H	 4.1738536475	-0.4122900027	 1.1083019356	 0.113684
H	 3.9684812007	 0.5687369704	 2.5659252994	 0.10856
H	 3.853429238	-1.2024494145	 2.6602747399	 0.123369
H	 2.2255173368	 1.9645092166	 1.531613536	 0.104273
H	 0.7024373673	 1.2459951441	 0.8554092667	 0.108235
H	 0.2778912901	 0.0168658242	 3.0015040921	 0.112458
H	 1.7574875525	 0.7749408006	 3.7446933881	 0.108016
65.4684	143.9317	163.6867	174.5496	221.0441	257.4146	270.5003	295.6772	316.1535	346.6623	392.6202	476.1897	555.1697	573.412	596.0768	766.0066	781.4066	794.9334	829.8294	851.3924	929.8142	935.4484	960.2162	1009.6907	1021.1703	1042.1024	1064.6831	1071.6267	1076.7491	1115.2389	1125.6447	1157.1224	1167.7409	1187.2796	1198.3057	1266.6525	1321.5256	1379.9281	1393.8216	1409.3723	1414.558	1417.3959	1437.8062	1461.0977	1483.2106	1486.895	1490.7315	1499.0447	1505.4679	1509.3929	1516.1628	3033.2653	3035.5885	3039.3485	3070.849	3081.4153	3088.5915	3091.8906	3098.5176	3113.2831	3127.1482	3134.3226	3139.9334	3144.2516	3210.5463	3247.6226
CC1C(C)N1C1(C)CC1	C[C@H]1[C@@H](C)N1C1(C)CC1	
InChI=1S/C8H15N/c1-6-7(2)9(6)8(3)4-5-8/h6-7H,4-5H2,1-3H3	InChI=1S/C8H15N/c1-6-7(2)9(6)8(3)4-5-8/h6-7H,4-5H2,1-3H3/t6-,7+,9?
