14
gdb 48236	2.04729	1.62542	0.96537	2.561	69.32	-0.26	-0.101	0.159	1154.4175	0.099226	-470.016014	-470.006984	-470.00604	-470.050955	30.488	
N	 0.164194252	 1.2759140948	-0.3467420929	-0.404124
C	 0.0445593545	 0.0536841514	-0.0586314787	 0.09028
N	-1.2317568103	-0.5747435744	 0.0337975306	-0.148713
C	-1.2676023601	-1.9776069467	-0.0937843676	 0.101258
N	-0.2495350131	-2.6144336193	-0.5000827896	-0.457378
C	-2.3854284059	 0.1596051888	 0.3427548044	 0.332223
O	-2.3912589692	 1.2557608053	 0.8447960328	-0.282737
C	-3.762671436	-0.4092625346	-0.0531892432	 0.096377
O	-3.9775934757	-1.356834223	-0.7585436178	-0.234965
H	 1.1510604877	 1.5325752487	-0.3524003637	 0.242643
H	 0.8418910219	-0.6673725283	 0.1193779317	 0.150041
H	-2.2156226237	-2.4146793808	 0.2058396313	 0.140825
H	-0.4322422104	-3.6157390607	-0.486661989	 0.241988
H	-4.5570366118	 0.2417755987	 0.3616198117	 0.132283
54.5484	91.772	101.0525	108.6652	218.7552	271.5107	295.4662	309.6877	460.8435	504.7894	567.6725	624.9502	712.8168	750.4522	813.7091	847.1616	1017.4342	1041.062	1051.8701	1075.3546	1158.7982	1228.6084	1297.7275	1364.3223	1380.0532	1422.4531	1442.674	1709.4345	1718.8758	1806.3173	1829.9815	2959.4876	3136.0542	3173.5898	3492.9448	3514.4094
N=CN(C=N)C(=O)C=O	N=CN(C=N)C(=O)C=O	
InChI=1S/C4H5N3O2/c5-2-7(3-6)4(9)1-8/h1-3,5-6H	InChI=1S/C4H5N3O2/c5-2-7(3-6)4(9)1-8/h1-3,5-6H
