14
gdb 19893	4.18947	1.94787	1.62503	3.5383	65.21	-0.2475	0.0109	0.2584	784.6817	0.108284	-341.497656	-341.491415	-341.490471	-341.527938	24.353	
N	-0.3094811008	-1.2193843548	-0.2322649814	-0.353652
C	-0.1062514284	-0.0901239028	-0.0797975577	 0.288388
C	 0.0673737852	 1.3313473467	 0.0677506694	-0.167858
C	 0.4740200256	 2.1169131515	 1.2975645086	-0.108561
C	 1.7271292089	 1.5851790691	 2.016772662	-0.032328
C	 2.3972230069	 0.4235546614	 1.398390363	-0.267514
N	 2.5755482011	 1.7539275487	 0.7794357976	-0.138083
C	 1.3261225903	 2.1922183791	 0.0577880085	-0.024578
H	-0.7159993615	 1.8625385719	-0.4709297449	 0.148497
H	-0.1898744267	 2.8512983857	 1.7336404992	 0.115205
H	 2.0491991041	 2.0124237123	 2.9601920081	 0.113913
H	 3.3122061543	 0.0956019814	 1.8840826369	 0.133978
H	 1.859790526	-0.3643876313	 0.8902138448	 0.169854
H	 1.4397035148	 2.9677947011	-0.6888434741	 0.122739
137.2578	176.1913	341.5076	374.3648	462.4533	598.8596	643.6779	687.5511	726.6111	746.0273	760.775	881.2185	903.5559	930.5575	951.331	1002.8967	1017.1566	1054.8243	1065.3584	1083.425	1113.8843	1138.2308	1188.5023	1236.3844	1275.1682	1324.7379	1350.0351	1417.8825	1509.4166	2343.4461	3128.6108	3138.2651	3171.9863	3193.6043	3207.0992	3248.5051
N#CC1C2C3CN3C12	N#C[C@H]1[C@H]2[C@H]3CN3[C@@H]12	
InChI=1S/C6H6N2/c7-1-3-5-4-2-8(4)6(3)5/h3-6H,2H2	InChI=1S/C6H6N2/c7-1-3-5-4-2-8(4)6(3)5/h3-6H,2H2/t3-,4+,5-,6-,8?/m0/s1
