20
gdb 88393	2.52371	1.19995	1.08117	1.6298	75.86	-0.2436	-0.0296	0.214	1234.2283	0.167761	-440.264054	-440.253799	-440.252854	-440.29966	37.295	
C	 2.7754066259	-0.0057804467	-0.6891427747	-0.393547
C	 1.5798678129	-0.7813358435	-0.1864241648	-0.003562
N	 1.831246149	-1.8632424362	 0.7716871641	-0.334586
C	 1.014910567	-0.7133532623	 1.1972589359	-0.105895
C	 1.5303893443	 0.188077194	 2.3191010707	 0.247261
C	 2.7214694809	-0.3881171715	 3.0828080827	-0.405367
O	 1.9377995115	 1.487491164	 1.8611277693	-0.45504
C	 0.4092589921	 0.4626797183	 3.3366752676	 0.134669
O	-0.6732851053	-0.0623703622	 3.3610991576	-0.25321
H	 3.4787286036	 0.2205546562	 0.1119310917	 0.140935
H	 3.2968511598	-0.586124914	-1.4580662535	 0.117674
H	 2.4628995276	 0.9417606968	-1.1414139475	 0.108448
H	 0.8370327329	-0.9838802819	-0.9588950467	 0.083784
H	 1.238089	-2.6672904254	 0.5872233316	 0.234299
H	-0.0560693642	-0.8835087039	 1.2769202446	 0.10743
H	 3.557899471	-0.550530734	 2.4018824981	 0.146135
H	 3.0301583306	 0.3071797488	 3.8691564994	 0.11962
H	 2.4616048963	-1.3504468344	 3.5302062256	 0.132498
H	 1.288986855	 1.7887452733	 1.2153953063	 0.28694
H	 0.6929934093	 1.2561073346	 4.0632754819	 0.091515
39.3923	65.1856	164.182	187.7791	197.2527	233.2084	252.26	326.9273	340.7821	364.0053	373.4919	401.1745	504.0588	553.8134	633.0597	731.5864	789.8458	871.7878	899.885	940.21	972.0849	989.8105	1011.5176	1024.6989	1069.2212	1104.117	1149.9175	1167.7352	1206.6727	1224.6306	1263.3177	1283.7175	1352.5452	1399.2309	1405.1887	1415.8446	1432.0099	1460.965	1480.3613	1483.2999	1485.5775	1502.1257	1830.201	2894.1337	3037.8477	3051.9016	3092.9147	3094.3513	3128.651	3138.9236	3146.9898	3156.1352	3506.5326	3805.6554
CC1NC1C(C)(O)C=O	C[C@H]1N[C@H]1[C@@](C)(O)C=O	
InChI=1S/C6H11NO2/c1-4-5(7-4)6(2,9)3-8/h3-5,7,9H,1-2H3	InChI=1S/C6H11NO2/c1-4-5(7-4)6(2,9)3-8/h3-5,7,9H,1-2H3/t4-,5-,6+/m1/s1
