15
gdb 7615	2.80617	2.08578	1.45816	4.0755	58.36	-0.2332	0.0151	0.2483	863.3422	0.117929	-436.952479	-436.94459	-436.943645	-436.984226	30.457	
N	-0.0016689885	 1.2687965824	 0.100442699	-0.536552
C	 0.0458052	-0.0762946738	-0.057634926	 0.384488
O	 1.0926745715	-0.7064785618	-0.1951148096	-0.414441
C	-1.2847264982	-0.761353268	-0.0362168755	 0.20411
O	-2.4044894244	 0.0567363257	 0.1832404529	-0.468361
C	-1.4380971364	-2.0181720598	-0.8858082941	-0.38087
C	-1.2917700084	-2.1529172442	 0.6015669451	 0.124273
O	-0.169892811	-2.6906478013	 1.1931873083	-0.422948
H	 0.8652498237	 1.7589662912	 0.2487900609	 0.265612
H	-0.8707508996	 1.6892278347	 0.3859788615	 0.268978
H	-2.7640005488	 0.304670812	-0.6765830451	 0.289396
H	-2.418123148	-2.1829730697	-1.3221819396	 0.117141
H	-0.5873275497	-2.2835154711	-1.503862488	 0.141431
H	-2.1927943525	-2.369778002	 1.1662922595	 0.122483
H	 0.5985540801	-2.2729834245	 0.7628662506	 0.30526
97.8418	207.746	244.2639	300.7654	326.241	342.6279	404.8394	464.7499	474.2009	489.2103	564.6448	602.2044	641.9558	690.4676	777.33	839.5771	872.4808	931.2386	983.3475	1046.297	1093.6126	1100.0269	1173.2212	1214.2174	1258.2546	1329.0056	1361.8532	1418.7286	1440.1033	1490.296	1594.0852	1746.6285	3128.5362	3174.1105	3230.4179	3592.982	3604.6515	3729.6851	3782.4359
NC(=O)C1(O)CC1O	NC(=O)[C@@]1(O)C[C@H]1O	
InChI=1S/C4H7NO3/c5-3(7)4(8)1-2(4)6/h2,6,8H,1H2,(H2,5,7)	InChI=1S/C4H7NO3/c5-3(7)4(8)1-2(4)6/h2,6,8H,1H2,(H2,5,7)/t2-,4-/m1/s1
