18
gdb 55633	2.34831	1.18521	1.07781	5.1652	72.43	-0.2735	-0.0417	0.2318	1244.8105	0.143919	-439.126212	-439.116104	-439.115159	-439.161665	36.152	
C	-1.1023446855	 0.8640305208	-3.0007579722	-0.479064
C	-1.2697561536	-0.3923765659	-2.1806961135	 0.405721
O	-2.2883058635	-1.0535004272	-2.2231421433	-0.312472
C	-0.1012431966	-0.7841818882	-1.2795870847	-0.340587
C	-0.0496596514	-2.2940702798	-0.9378672599	 0.204604
C	 1.0877030268	-2.5953102093	 0.0448932245	-0.403322
O	-1.245655208	-2.7234879128	-0.3308056654	-0.442911
C	 0.1936717045	-3.0495992859	-2.2006284254	 0.256977
N	 0.3901486049	-3.6235006811	-3.184321081	-0.341086
H	-2.049163207	 1.1397703995	-3.4656186936	 0.153712
H	-0.7276566803	 1.6860260124	-2.3811610437	 0.143997
H	-0.3518749181	 0.6857704656	-3.7803605208	 0.16171
H	 0.8432946311	-0.4541783942	-1.7237833742	 0.13081
H	-0.2214753743	-0.2321201696	-0.3375305922	 0.146504
H	 0.912196603	-2.0394524189	 0.9694932681	 0.130952
H	 1.0976756945	-3.6623778593	 0.2759020365	 0.150305
H	 2.0574655811	-2.312361593	-0.3715819346	 0.129852
H	-1.9648948074	-2.4175596534	-0.9094674148	 0.304297
41.5018	89.0008	141.3951	170.0839	194.922	218.858	228.4083	322.2921	330.2449	401.8931	416.7518	487.7941	559.9184	588.8336	632.3066	671.8028	734.6161	815.7805	856.8506	930.9858	961.3526	980.9731	1031.8524	1089.1806	1152.5228	1190.4105	1202.1768	1267.5758	1350.2247	1387.076	1405.3092	1434.1537	1449.8547	1459.4821	1473.3011	1478.3588	1492.6671	1789.8966	2349.2653	3030.1336	3037.2353	3053.7556	3087.7886	3097.9201	3134.4826	3142.6938	3158.0252	3651.357
CC(=O)CC(C)(O)C#N	CC(=O)C[C@@](C)(O)C#N	
InChI=1S/C6H9NO2/c1-5(8)3-6(2,9)4-7/h9H,3H2,1-2H3	InChI=1S/C6H9NO2/c1-5(8)3-6(2,9)4-7/h9H,3H2,1-2H3/t6-/m1/s1
