17
gdb 53228	3.81307	0.80747	0.73422	2.1996	79.4	-0.2372	-0.0303	0.2069	1569.7007	0.132882	-421.803361	-421.79336	-421.792416	-421.840293	34.147	
C	-0.0432039814	 1.4927628841	 0.0770372336	-0.500485
C	-0.0038612243	 0.0381300172	 0.0697015442	 0.130215
C	 0.0302678	-1.1656531489	 0.0594384777	 0.050784
C	 0.0326352162	-2.6082421941	 0.0598034929	-0.313962
C	 0.2316894487	-3.4062696591	 1.4004726166	-0.28261
C	-0.8318221463	-4.4577749186	 0.9273833814	 0.062586
O	-1.7508616121	-5.0203304578	 1.8086675433	-0.430839
C	-1.3237615736	-3.3648932701	-0.0273284086	 0.338469
O	-2.426015646	-3.0566947494	-0.3735199068	-0.296246
H	 0.6042240092	 1.9126985794	-0.7005378983	 0.149973
H	-1.0592789226	 1.8614323029	-0.1014187547	 0.154024
H	 0.2910696682	 1.8944877646	 1.0399843128	 0.149296
H	 0.7099635795	-3.0076773482	-0.7055520231	 0.127648
H	 1.2352336481	-3.7797670934	 1.6009127625	 0.121034
H	-0.1374686101	-2.8326341408	 2.2524034118	 0.129244
H	-0.3264379808	-5.2628127267	 0.3784982955	 0.114337
H	-2.5455012526	-4.4729098912	 1.7897587793	 0.29653
20.3248	63.5294	80.1239	122.7088	155.3588	234.6554	265.2104	300.6552	364.2856	406.6301	451.807	500.1496	609.9443	692.7929	760.0307	811.6392	882.2691	969.8921	996.667	1010.578	1042.3634	1051.8599	1054.8994	1150.6022	1165.9502	1198.3184	1212.541	1253.6077	1319.5622	1359.1466	1414.2422	1416.2315	1476.9528	1477.9476	1483.7658	1880.0451	2371.5659	3027.8974	3028.1983	3035.2665	3088.9366	3089.0638	3090.131	3157.7168	3782.3909
CC#CC1CC(O)C1=O	CC#C[C@H]1C[C@@H](O)C1=O	
InChI=1S/C7H8O2/c1-2-3-5-4-6(8)7(5)9/h5-6,8H,4H2,1H3	InChI=1S/C7H8O2/c1-2-3-5-4-6(8)7(5)9/h5-6,8H,4H2,1H3/t5-,6+/m0/s1
