17
gdb 31321	2.50353	1.32407	0.91581	1.0273	79.73	-0.2422	-0.052	0.1902	1260.0717	0.13724	-418.07553	-418.06706	-418.066115	-418.109518	30.483	
C	 0.0328811765	 1.6084318131	-0.264939814	-0.369496
C	-0.0088545475	 0.117328412	 0.1097623468	-0.295521
C	-1.4034448349	-0.4249492412	 0.1478854295	 0.230142
C	-2.1251624475	-0.9130894344	 1.2310069925	 0.144855
N	-3.358486714	-1.2669178895	 0.7129289467	-0.287822
C	-3.3323864594	-0.9893816761	-0.6052098244	 0.028094
N	-2.171900227	-0.4801238881	-0.9840187371	-0.313902
C	-1.8443238191	-1.0959310994	 2.6357884764	 0.065537
O	-2.6513209055	-1.5556613378	 3.4243466927	-0.316463
H	 1.0662503066	 1.9601439702	-0.3367434874	 0.113883
H	-0.4574597588	 1.770888146	-1.2280083393	 0.142514
H	-0.4836159085	 2.2161235086	 0.4846831065	 0.117598
H	 0.5634827718	-0.4544617139	-0.6305317608	 0.124848
H	 0.4782798265	-0.0422942195	 1.0771293133	 0.105062
H	-4.1007413669	-1.6619139732	 1.2692328081	 0.284763
H	-4.1749288807	-1.1735077629	-1.2557100445	 0.144844
H	-0.8302195717	-0.786538004	 2.9593563451	 0.081064
39.8825	148.0344	160.0455	171.5255	225.2441	280.6915	327.6981	400.6032	548.2905	601.0506	631.7334	683.3345	753.4515	795.0231	811.0629	860.4096	952.2297	984.3365	1023.1851	1047.6274	1082.3851	1106.493	1155.3717	1269.3072	1274.5716	1328.5202	1350.4238	1375.1532	1403.432	1420.4	1462.1926	1477.2336	1495.4613	1504.8306	1519.4438	1593.796	1753.0934	2926.9326	3036.1989	3042.0564	3078.2254	3111.7243	3128.703	3250.9734	3649.1104
CCC1=C(NC=N1)C=O	CCc1c([nH]cn1)C=O	
InChI=1S/C6H8N2O/c1-2-5-6(3-9)8-4-7-5/h3-4H,2H2,1H3,(H,7,8)	InChI=1S/C6H8N2O/c1-2-5-6(3-9)8-4-7-5/h3-4H,2H2,1H3,(H,7,8)
