19
gdb 99903	2.3323	1.33377	1.04523	4.1889	75.56	-0.2545	0.009	0.2635	1221.3326	0.158016	-419.190248	-419.18044	-419.179496	-419.224838	35.757	
C	 0.0876040417	 1.5899678175	-0.0272704418	-0.42454
C	 0.0627596451	 0.0602697704	-0.0603341286	-0.187093
C	-1.3454504847	-0.5581561348	 0.0975470056	 0.167793
O	-1.9491046239	-0.1957863851	 1.3336165332	-0.455489
C	-2.215384225	-0.1057985811	-1.0194344231	 0.256538
N	-2.8836964127	 0.2824056079	-1.8788054901	-0.335885
C	-1.2611758095	-2.0848705642	 0.0694916366	 0.010755
C	-1.0061486145	-2.8332883669	 1.3229639234	-0.24857
N	-2.3221320626	-2.9001033323	 0.6582723356	-0.325715
H	 1.1095610468	 1.9562735822	-0.1554494787	 0.131329
H	-0.5245683453	 2.0194083621	-0.8264301417	 0.146972
H	-0.2736469995	 1.9766691419	 0.9318667125	 0.11577
H	 0.490409108	-0.3017570264	-1.0020370094	 0.119442
H	 0.6715991741	-0.3497995738	 0.7516310387	 0.119883
H	-2.159107054	 0.7434710138	 1.3145140054	 0.30221
H	-0.8682304521	-2.4659530833	-0.8698095543	 0.108885
H	-0.425601138	-3.7504711157	 1.2891594266	 0.121401
H	-0.9268838592	-2.2645847435	 2.2435640531	 0.130207
H	-2.9639186547	-2.2849815386	 1.1549191669	 0.246105
81.184	101.0355	149.86	157.4602	204.1727	244.1059	266.5279	299.6951	320.4044	396.4035	431.8602	483.2457	581.8226	627.1248	707.9339	789.1084	845.6726	879.6897	943.6148	958.2024	985.6192	991.4217	1051.1474	1092.7703	1105.2162	1134.8416	1157.993	1178.1868	1224.2746	1273.0751	1300.6646	1309.6481	1325.7596	1372.8752	1415.2471	1425.8247	1473.6157	1503.5564	1506.5196	1509.7041	2349.0238	3038.0962	3046.2872	3087.4658	3108.9094	3120.1754	3121.0832	3141.5221	3212.9663	3497.9253	3830.3152
CCC(O)(C#N)C1CN1	CC[C@@](O)(C#N)[C@H]1CN1	
InChI=1S/C6H10N2O/c1-2-6(9,4-7)5-3-8-5/h5,8-9H,2-3H2,1H3	InChI=1S/C6H10N2O/c1-2-6(9,4-7)5-3-8-5/h5,8-9H,2-3H2,1H3/t5-,6-/m1/s1
