23
gdb 90030	3.21081	1.05871	0.93474	1.8774	85.77	-0.239	0.0767	0.3157	1380.6553	0.204864	-388.272064	-388.262591	-388.261647	-388.30659	35.928	
C	-0.1150036504	 1.6227875059	 0.090872053	-0.4083
C	-0.006090637	 0.1080508473	 0.0219101031	 0.057571
C	 1.0720396212	-0.5275823047	-0.902503083	-0.305073
C	 1.3494537903	-1.5818350114	 0.1988191961	 0.294869
C	 0.85939359	-3.0289068213	-0.0131808809	-0.124658
O	 2.1980596584	-3.5486380334	 0.0931221545	-0.298332
C	 2.7253564698	-2.2431930405	 0.4387554411	 0.090717
C	 3.9055915383	-1.8509538148	-0.426440032	-0.40436
C	 0.6379196629	-0.6582076441	 1.2129293729	-0.313909
H	 0.8574582745	 2.0750185606	 0.3180755584	 0.10989
H	-0.4626419103	 2.0417557774	-0.8602047522	 0.114695
H	-0.8186394745	 1.9374908109	 0.8698344658	 0.114675
H	-0.9870242998	-0.3246752794	-0.205264703	 0.072703
H	 0.757631729	-0.8938468651	-1.8840293046	 0.097403
H	 1.9239542633	 0.1473359209	-1.0407417761	 0.097511
H	 0.2045009365	-3.4147619038	 0.7813575284	 0.091959
H	 0.4070257492	-3.2561138931	-0.9874675278	 0.096798
H	 3.0136864417	-2.2193375709	 1.501698408	 0.064657
H	 3.6288568688	-1.834412183	-1.484744571	 0.120323
H	 4.2810775824	-0.8606023895	-0.1457605431	 0.112632
H	 4.7196441959	-2.5709747371	-0.2959542891	 0.126454
H	 1.3560401095	-0.028472917	 1.7516883645	 0.095476
H	-0.0261457699	-1.129084754	 1.9438599971	 0.096299
62.0106	67.8241	173.0204	218.2934	232.9114	254.861	275.5215	326.9679	385.215	430.8942	473.7181	506.5705	694.7717	765.6314	825.2905	862.5464	880.0325	895.3315	912.4352	928.6006	954.2092	1001.9424	1023.0421	1051.8822	1078.0667	1095.6628	1118.2914	1136.9963	1159.4925	1191.4328	1203.4978	1219.1817	1234.3419	1267.0108	1284.4098	1292.5658	1304.9826	1363.5425	1379.1106	1386.5826	1403.4717	1411.2732	1470.3737	1482.1851	1489.5495	1493.2673	1495.0379	1497.7831	1523.8082	2971.3395	2990.9429	3021.0386	3030.4007	3032.5431	3034.6556	3036.4298	3042.2058	3085.5209	3089.4427	3090.5449	3096.3569	3103.7743	3114.2273
CC1CC2(COC2C)C1	C[C@H]1C[C@]2(CO[C@H]2C)C1	
InChI=1S/C8H14O/c1-6-3-8(4-6)5-9-7(8)2/h6-7H,3-5H2,1-2H3	InChI=1S/C8H14O/c1-6-3-8(4-6)5-9-7(8)2/h6-7H,3-5H2,1-2H3/t6-,7-,8+/m0/s1
