23
gdb 115724	2.67595	1.06293	0.82729	1.7582	86.34	-0.2384	0.0809	0.3193	1483.9202	0.205619	-388.262729	-388.253101	-388.252157	-388.298112	35.558	
C	-0.002924642	 1.6376587278	 0.0497733507	-0.389316
C	 0.2215112299	 0.1290303619	-0.0976040374	-0.187226
C	 0.7471209598	-0.5103900973	 1.184918126	-0.047301
C	-0.2893480654	-0.7378316471	 2.3074652486	-0.080203
O	-0.2161802297	-2.1682882931	 2.153941551	-0.295436
C	 0.8938273691	-2.0611870832	 1.226714854	 0.115912
C	 0.7068720501	-2.8835723408	-0.0117429713	 0.024947
C	 1.9197119122	-3.3141805239	-0.8056212667	-0.272369
C	 1.1427285013	-4.3286048186	-0.0109093649	-0.276551
H	 0.9308970113	 2.1533473886	 0.3000214291	 0.115054
H	-0.3880474123	 2.0745033964	-0.8766021327	 0.114098
H	-0.724511235	 1.8579034793	 0.844303728	 0.118281
H	-0.7200232778	-0.35250229	-0.38974924	 0.101589
H	 0.9301361453	-0.0601236597	-0.9132349727	 0.102375
H	 1.649969447	 0.0151928886	 1.5110295134	 0.068858
H	 0.0243096	-0.4153661017	 3.3093064382	 0.093138
H	-1.3014268184	-0.3574741481	 2.1160817394	 0.095951
H	 1.829844127	-2.3708793147	 1.7189132362	 0.058506
H	-0.1895576915	-2.6562698576	-0.5794947623	 0.083884
H	 1.8412932825	-3.3295810185	-1.8867425347	 0.112794
H	 2.897623189	-3.020914582	-0.4372842496	 0.111435
H	 1.5918039606	-4.7183547284	 0.8965179697	 0.1178
H	 0.5288777668	-5.0442085578	-0.5458418119	 0.113778
50.5528	73.8716	115.1996	131.1657	203.6419	226.9914	284.2779	304.1585	405.7311	426.2353	524.9424	757.6842	765.7001	809.7872	829.5956	836.5207	875.4353	919.8042	922.1428	965.3433	969.976	1002.0911	1023.2573	1035.1795	1061.0121	1067.8612	1079.8217	1131.1108	1133.7014	1157.0211	1187.9013	1197.4576	1213.2012	1224.9677	1253.8293	1273.0307	1301.7513	1327.83	1337.0009	1361.4173	1397.4896	1411.6112	1443.1012	1470.3026	1486.6981	1499.9761	1504.7162	1506.3725	1528.3416	2964.7911	3001.3944	3024.1242	3029.8533	3038.1043	3050.749	3065.7455	3096.9983	3103.912	3131.202	3136.6072	3160.7324	3209.7401	3225.441
CCC1COC1C1CC1	CC[C@H]1CO[C@H]1C1CC1	
InChI=1S/C8H14O/c1-2-6-5-9-8(6)7-3-4-7/h6-8H,2-5H2,1H3	InChI=1S/C8H14O/c1-2-6-5-9-8(6)7-3-4-7/h6-8H,2-5H2,1H3/t6-,8+/m0/s1
