13
gdb 20424	6.386	1.60708	1.35367	3.0898	60.7	-0.2505	-0.0113	0.2392	860.3317	0.09738	-394.74949	-394.743188	-394.742244	-394.780593	22.57	
C	-0.1848599503	 1.2423351209	-0.3794143205	-0.214783
C	 1.2121519911	 1.1649980482	 0.1426333752	-0.229115
N	 0.3289985394	-0.0005401636	 0.1766240131	-0.155179
C	-0.1667217633	-0.486257714	 1.3550800646	 0.501669
N	-1.4146676814	-0.5865105986	 1.7276359236	-0.341985
C	-1.280377034	-1.2307040575	 2.9297581484	 0.050994
N	-0.0615024354	-1.5102175253	 3.2988390604	-0.124303
O	 0.7079364235	-1.0049258718	 2.2270737052	-0.209566
H	-0.9215996781	 1.7785383688	 0.2109158543	 0.150794
H	-0.3667050423	 1.2225696111	-1.4488585666	 0.139395
H	 2.0498915043	 1.0824472065	-0.5416191746	 0.141617
H	 1.42894845	 1.6546268355	 1.0876114416	 0.145601
H	-2.1215868735	-1.4970722002	 3.5540360152	 0.144861
64.1116	161.4294	202.2865	359.9023	512.3989	578.8028	645.0888	778.7377	816.4779	892.5467	918.0552	935.0782	946.0613	979.5149	1024.404	1048.365	1128.4602	1142.0219	1172.6222	1175.1249	1208.6349	1239.521	1292.7305	1375.9223	1495.0583	1521.8225	1552.5467	1629.2134	3124.9715	3129.2949	3213.041	3226.0776	3254.5297
C1CN1C1=NC=NO1	C1CN1c1ncno1	
InChI=1S/C4H5N3O/c1-2-7(1)4-5-3-6-8-4/h3H,1-2H2	InChI=1S/C4H5N3O/c1-2-7(1)4-5-3-6-8-4/h3H,1-2H2
