19
gdb 102214	3.02726	0.78265	0.64334	4.9567	85.88	-0.2421	0.0201	0.2622	1737.3529	0.157289	-382.05071	-382.039855	-382.038911	-382.088273	36.78	
C	-0.1615774368	 1.5459363392	-0.1127087558	-0.328576
N	 0.1287458666	 0.1232324017	 0.0302487654	-0.282112
C	 0.7149250954	-0.4869653737	-1.1539874904	-0.107952
C	 1.2193986731	-1.9171744232	-0.8224917348	-0.362911
C	 2.276158685	-1.8953824968	 0.1816196267	 0.010791
C	 3.1431946876	-1.8476839296	 1.0167027671	 0.111945
C	 4.1995072928	-1.8183257994	 2.0186187168	-0.499271
C	-0.2859369145	-0.5573284499	-2.2342060186	 0.306447
N	-1.05157865	-0.6164084893	-3.0973437997	-0.329045
H	 0.7089074496	 2.1522126548	-0.4189057446	 0.100127
H	-0.9487385148	 1.6874745277	-0.8600083258	 0.147784
H	-0.5327176977	 1.9312858653	 0.8403366888	 0.127215
H	 0.7763778149	-0.028358744	 0.7973987083	 0.232728
H	 1.5702668181	 0.0882705555	-1.5562336741	 0.109496
H	 0.3652824299	-2.5053684905	-0.4688930859	 0.155334
H	 1.575908095	-2.3868078762	-1.7454804184	 0.147746
H	 4.9687354609	-2.5671871967	 1.8012114362	 0.155539
H	 4.690368526	-0.8395951045	 2.0502033591	 0.151631
H	 3.8060654088	-2.0263456305	 3.0194310697	 0.153084
32.7713	57.856	71.0823	112.2328	164.0086	206.0008	213.5866	249.6502	287.3903	302.7477	387.1863	412.1028	486.0225	561.0794	586.2099	762.2076	776.4446	839.5096	965.9639	1024.0857	1033.4882	1053.1353	1054.8756	1143.3292	1162.0846	1170.1554	1186.366	1254.0983	1300.0476	1347.4474	1371.6448	1415.1852	1461.8636	1465.4209	1477.2161	1478.4082	1487.8103	1496.9844	1521.4124	2360.3488	2370.1055	2921.9224	2954.4235	3030.4367	3043.4832	3074.1815	3083.6676	3092.4182	3093.327	3119.0313	3519.6443
CNC(CC#CC)C#N	CN[C@@H](CC#CC)C#N	
InChI=1S/C7H10N2/c1-3-4-5-7(6-8)9-2/h7,9H,5H2,1-2H3	InChI=1S/C7H10N2/c1-3-4-5-7(6-8)9-2/h7,9H,5H2,1-2H3/t7-/m0/s1
