17
gdb 43177	2.24458	1.84766	1.78975	2.1562	67.21	-0.232	-0.0305	0.2016	902.2903	0.138126	-458.972019	-458.965018	-458.964074	-459.003296	27.659	
O	 0.0036693514	 0.0588924265	 0.0040184519	-0.318796
C	-0.0177102077	 1.257786348	-0.0064631164	 0.416382
C	-1.2015305359	 2.2198580222	 0.0262452982	-0.003879
C	-1.2543278358	 2.7788893044	 1.4642890234	-0.244833
C	 0.0676671799	 3.5086711663	 1.7481608361	-0.072906
O	 1.2153981539	 2.7675309013	 1.3248228517	-0.27983
C	 1.1444430157	 2.2630823765	-0.0148556994	-0.014623
C	 0.61601027	 3.2719540739	-1.028452992	-0.116628
O	-0.8248030122	 3.2475531678	-0.8974375172	-0.2882
H	-2.1431845084	 1.7743476107	-0.2979830902	 0.104043
H	-2.0940394861	 3.4736828587	 1.5727551531	 0.1152
H	-1.4042801347	 1.9507436533	 2.1662210569	 0.124405
H	 0.0494895046	 4.4920986042	 1.260649707	 0.112643
H	 0.2090628982	 3.6702714963	 2.8194869252	 0.120274
H	 2.1183928579	 1.8365803745	-0.2507253681	 0.108624
H	 0.9784921428	 4.28902877	-0.8468011631	 0.120943
H	 0.8960518666	 2.9742827053	-2.0470990073	 0.11718
138.421	178.1591	278.9104	289.3369	386.6662	425.6122	459.2126	523.8497	682.0997	715.8339	777.0211	806.1781	823.6706	871.4309	892.0752	947.114	985.846	1000.5528	1045.0076	1054.8654	1107.5001	1110.2287	1164.8781	1190.49	1208.9587	1244.7987	1254.7285	1303.6971	1308.7094	1341.7855	1359.5129	1377.1688	1401.6423	1473.565	1502.233	1518.3794	1881.078	3021.0026	3023.888	3040.8605	3074.205	3088.7793	3103.94	3109.3563	3137.0823
O=C1C2CCOC1CO2	O=C1[C@H]2CCO[C@@H]1CO2	
InChI=1S/C6H8O3/c7-6-4-1-2-8-5(6)3-9-4/h4-5H,1-3H2	InChI=1S/C6H8O3/c7-6-4-1-2-8-5(6)3-9-4/h4-5H,1-3H2/t4-,5-/m1/s1
