19
gdb 76534	2.62285	1.21363	1.19707	4.716	77.9	-0.2247	0.0257	0.2504	1180.8056	0.157904	-419.194061	-419.184579	-419.183635	-419.228312	34.259	
C	-0.0893760043	 1.5572629448	 0.3819866656	-0.419782
C	 0.0491724998	 0.0612385202	 0.1998078935	-0.066481
N	 1.2714460264	-0.5903331637	-0.2760663661	-0.139012
C	 2.4562590004	 0.1854204356	-0.6127639849	-0.321314
C	 0.9019280998	-0.7565943784	 1.1095911094	 0.171125
C	 1.6336233341	-0.3220813063	 2.4033832216	-0.245144
N	 1.2892440267	-1.6490571354	 2.927369236	-0.349235
C	 0.5957248639	-2.0841802724	 1.8126902161	 0.392888
O	-0.0103811859	-3.0896283088	 1.5652667952	-0.36412
H	 0.7892322822	 2.0134414309	 0.8437474598	 0.121352
H	-0.2610810608	 2.0509715822	-0.5806334306	 0.130219
H	-0.9517086552	 1.773881142	 1.0211653373	 0.130331
H	-0.8481599862	-0.4232208544	-0.1840793082	 0.11075
H	 2.6576577702	 1.0437686622	 0.0450705018	 0.102646
H	 3.3270273288	-0.4766056181	-0.5797770955	 0.132536
H	 2.3551101491	 0.5564646177	-1.6371353566	 0.130403
H	 2.7104304022	-0.1485397191	 2.3062402148	 0.116331
H	 1.1745477179	 0.5120566891	 2.9450891321	 0.114319
H	 1.3251205512	-2.0150115382	 3.8662190686	 0.252189
91.0503	128.8836	157.9339	166.6619	170.786	181.8919	255.2164	314.3133	337.9762	475.3144	520.9247	563.7292	634.0331	680.692	771.1422	800.6825	835.3471	934.9578	995.4866	1024.7997	1053.1514	1078.1721	1103.3829	1144.5739	1149.394	1157.6909	1164.6092	1184.7673	1209.8743	1282.1577	1357.0913	1382.4995	1407.7363	1440.1545	1470.0336	1485.5881	1488.6964	1502.2592	1507.5085	1525.7298	1899.2184	2989.9966	3032.1249	3038.7612	3073.3333	3075.9677	3097.5031	3105.7837	3107.5015	3127.5021	3627.1565
CC1N(C)C11CNC1=O	C[C@H]1N(C)[C@]21CNC2=O	
InChI=1S/C6H10N2O/c1-4-6(8(4)2)3-7-5(6)9/h4H,3H2,1-2H3,(H,7,9)	InChI=1S/C6H10N2O/c1-4-6(8(4)2)3-7-5(6)9/h4H,3H2,1-2H3,(H,7,9)/t4-,6+,8?/m1/s1
