19
gdb 54988	3.18326	1.09579	1.03061	4.3204	77.44	-0.2375	0.0199	0.2574	1253.1998	0.159666	-419.203004	-419.194103	-419.193159	-419.23709	33.464	
N	 0.2378569236	 1.2031209379	-0.700819006	-0.537706
C	 0.0119512739	 0.3074686557	 0.3135876068	 0.445305
O	 0.7842317255	 0.1641284787	 1.2400733022	-0.363087
C	-1.3001546471	-0.4215440223	 0.2111815066	-0.238062
N	-1.2993391727	-1.8249766327	 0.6908517405	-0.364827
C	-2.0437629956	-0.8369098343	 1.4386458423	 0.382082
C	-1.7819727374	-0.4254263235	 2.8897603624	-0.273696
C	-3.2700600484	 0.0317102368	 2.9703025475	-0.21124
C	-3.5616371189	-0.7189778897	 1.6357339072	-0.309776
H	 1.1425253371	 1.6464360099	-0.724054073	 0.259913
H	-0.2873582909	 1.1692780556	-1.5575688218	 0.254845
H	-1.9090352243	-0.1899264461	-0.6618781388	 0.074082
H	-1.923877501	-2.3788866501	 0.1076475557	 0.230506
H	-1.5706562794	-1.2979749399	 3.5142313402	 0.109823
H	-1.0048389704	 0.3195069864	 3.0561906692	 0.129766
H	-3.8388548017	-0.2937519982	 3.8429936182	 0.101253
H	-3.3794196848	 1.1138319618	 2.8668407055	 0.106144
H	-4.1317575951	-0.188867793	 0.8676441566	 0.098455
H	-4.0255714224	-1.697210743	 1.8025966985	 0.106219
50.7485	96.703	152.9685	166.7045	273.1279	311.1749	338.4632	399.1172	435.5852	535.9851	575.8941	637.5353	703.769	766.7413	779.8086	824.4168	861.5889	890.4828	928.8598	945.0222	961.1732	999.5663	1025.4599	1063.3101	1084.7442	1135.1993	1183.0244	1195.1278	1216.6786	1246.8793	1250.5488	1268.1023	1278.1637	1303.8886	1381.5901	1473.2172	1477.3849	1483.9912	1509.5173	1616.8946	1799.2159	3041.762	3070.4259	3072.1047	3092.1321	3109.6612	3123.1181	3146.3199	3481.8003	3593.7586	3725.9916
NC(=O)C1NC11CCC1	NC(=O)[C@H]1NC21CCC2	
InChI=1S/C6H10N2O/c7-5(9)4-6(8-4)2-1-3-6/h4,8H,1-3H2,(H2,7,9)	InChI=1S/C6H10N2O/c7-5(9)4-6(8-4)2-1-3-6/h4,8H,1-3H2,(H2,7,9)/t4-/m1/s1
