21
gdb 61804	3.0472	0.88718	0.84267	2.953	79.29	-0.2499	-0.0215	0.2284	1465.9619	0.178781	-424.222966	-424.212587	-424.211643	-424.259142	37.072	
C	 0.3783044876	 1.7693713594	-0.0187559198	-0.408131
C	 0.1453762999	 0.2530893988	 0.0507948273	-0.051479
C	 0.6082678263	-0.4630378422	-1.2388552263	-0.285147
C	-0.273097103	-0.1228348863	-2.4175329088	 0.155072
O	 0.1076156398	 0.3432645336	-3.4602759963	-0.240508
C	 0.787773695	-0.3820062503	 1.2824145369	 0.427041
C	 2.287783519	-0.2606660603	 1.4489545567	-0.473576
C	-0.0495453839	-0.6051130398	 2.4715370479	-0.23595
O	 0.2604167728	-1.6842560014	 1.5839885274	-0.285216
H	 1.436764895	 2.0058992259	-0.1669306149	 0.127166
H	-0.1724186555	 2.2115187294	-0.8545424769	 0.130741
H	 0.0465398915	 2.2615811403	 0.9009140814	 0.11887
H	-0.9329978401	 0.0721572033	 0.1497816918	 0.082387
H	 1.64273131	-0.2196798337	-1.497398384	 0.117804
H	 0.5300837297	-1.5465629088	-1.0730127734	 0.13642
H	-1.3556050419	-0.3403569324	-2.2504999653	 0.071899
H	 2.5918150092	 0.7840436324	 1.5659279529	 0.127341
H	 2.6109046322	-0.8154895915	 2.3327594056	 0.130724
H	 2.8167252609	-0.6703256119	 0.5826518843	 0.131143
H	 0.4128303736	-0.6642410631	 3.4562019019	 0.112852
H	-1.0906953181	-0.2839273413	 2.4710221917	 0.110546
54.3776	65.6242	74.4128	164.413	187.9193	224.0699	246.9838	288.7873	298.8593	371.391	436.4739	457.7039	498.5894	548.6825	715.1234	792.0579	833.3054	889.111	921.8752	928.8448	960.4265	993.6431	1022.8415	1080.9715	1097.2103	1132.4008	1135.6008	1156.8579	1169.1309	1231.0841	1257.3369	1294.4503	1329.7177	1359.8134	1406.3873	1413.0545	1425.815	1434.5605	1462.4585	1484.0835	1494.4853	1498.9675	1504.4139	1532.6163	1834.5698	2844.0681	3020.124	3022.4936	3037.2045	3044.6432	3078.3138	3099.5492	3107.6001	3108.3499	3110.889	3127.7896	3163.1937
CC(CC=O)C1(C)CO1	C[C@@H](CC=O)[C@@]1(C)CO1	
InChI=1S/C7H12O2/c1-6(3-4-8)7(2)5-9-7/h4,6H,3,5H2,1-2H3	InChI=1S/C7H12O2/c1-6(3-4-8)7(2)5-9-7/h4,6H,3,5H2,1-2H3/t6-,7+/m0/s1
