19
gdb 116763	4.56702	0.59865	0.55159	5.0905	82.55	-0.2656	0.0021	0.2677	1979.7847	0.156928	-419.219081	-419.208435	-419.207491	-419.256443	35.8	
C	-0.1003991887	 1.3991617703	-0.0509247896	-0.251634
O	-0.0139754562	-0.0203332311	 0.0378873172	-0.189911
C	 0.5475022343	-0.6378367051	-1.0132485387	 0.133725
N	 0.6833321109	-1.8902030725	-1.0246842558	-0.217803
C	 1.2966013696	-2.4829372243	-2.1924790655	-0.158351
C	 2.5033876571	-3.3589751659	-1.7661339174	-0.129573
C	 2.0867093352	-4.5270951124	-0.8541107256	-0.386012
C	 3.205363187	-3.8415173617	-2.9588726235	 0.260521
N	 3.7464153698	-4.2196190059	-3.9078949155	-0.324776
H	 0.8940337505	 1.8574986075	-0.1052429633	 0.132096
H	-0.6927428674	 1.7104336854	-0.9193223696	 0.132566
H	-0.5986506475	 1.7319906659	 0.8598303487	 0.152022
H	 0.8570463942	 0.0329006645	-1.8307870785	 0.08106
H	 0.5646612579	-3.1306373093	-2.6913973382	 0.124631
H	 1.6328557783	-1.7377960877	-2.9316332495	 0.100763
H	 3.200875839	-2.7127252299	-1.2183706063	 0.126093
H	 2.960111252	-5.0894158404	-0.5154866325	 0.130159
H	 1.5541001184	-4.1289017317	 0.0108728688	 0.152379
H	 1.4227226957	-5.2135743258	-1.3875754152	 0.132048
41.2879	55.7139	67.0749	137.3378	151.4015	191.9041	216.0021	236.8139	263.9407	340.9797	397.8004	446.3244	532.2185	562.5623	629.8551	827.8404	919.8413	927.9988	995.791	1035.3534	1067.516	1084.6419	1120.4216	1159.1745	1176.8445	1181.9295	1260.0035	1284.6317	1308.8153	1336.6529	1380.7469	1402.8527	1420.3897	1486.4263	1488.3558	1495.5745	1498.6073	1500.0761	1500.3291	1771.9254	2355.4388	2969.3724	2989.4724	3020.8414	3030.6035	3049.2341	3053.7444	3085.3081	3124.901	3149.8589	3150.8048
COC=NCC(C)C#N	COC=NC[C@@H](C)C#N	
InChI=1S/C6H10N2O/c1-6(3-7)4-8-5-9-2/h5-6H,4H2,1-2H3	InChI=1S/C6H10N2O/c1-6(3-7)4-8-5-9-2/h5-6H,4H2,1-2H3/t6-/m0/s1
