14
gdb 129042	2.72983	1.58559	1.00301	6.44	76.09	-0.2243	-0.0749	0.1494	1089.6112	0.102778	-432.876234	-432.868724	-432.867779	-432.9088	27.618	
N	-0.1053329197	 1.3205482486	 0.0111223573	-0.545785
C	 0.0128828464	 0.0378119925	 0.0032577857	 0.234272
C	 1.2466495419	-0.7379895013	-0.0079424628	-0.198008
C	 1.1957476577	-2.0853635285	-0.0157254557	 0.032898
N	-0.0116797329	-2.7311536528	-0.0129972784	-0.226215
N	-1.1932310588	-2.1125201498	-0.00266826	-0.214081
C	-1.2007958855	-0.8103314492	 0.0051263378	 0.177292
C	-2.5565354929	-0.1640162071	 0.0168715901	 0.114197
O	-3.5938819496	-0.7806806688	 0.0168935771	-0.254685
H	 0.8138844807	 1.7661166817	 0.0086143794	 0.208092
H	 2.2028743853	-0.2277865046	-0.0100763801	 0.11543
H	 2.0677807874	-2.7287802215	-0.0243142173	 0.143386
H	-0.0702867979	-3.7365331413	-0.018546576	 0.286283
H	-2.517597202	 0.9384792421	 0.0250288029	 0.126925
82.6716	88.2634	220.46	270.6343	362.0259	438.2077	465.7122	498.366	557.6408	579.0421	638.3382	758.9168	812.9455	817.1866	879.9789	882.6647	959.5581	1048.2066	1052.8124	1075.1737	1173.2155	1186.5529	1301.3277	1382.5155	1410.0908	1434.2	1492.6892	1601.2334	1636.24	1693.9372	1806.8108	3001.5405	3194.5163	3213.2575	3449.3004	3648.0758
N=C1C=CNN=C1C=O	[NH]C1=CCNN=C1C=O	
InChI=1S/C5H5N3O/c6-4-1-2-7-8-5(4)3-9/h1-3H,(H2,6,7)	InChI=1S/C5H6N3O/c6-4-1-2-7-8-5(4)3-9/h1,3,6-7H,2H2
