17
gdb 81271	2.6847	1.48284	1.25477	2.1354	67.83	-0.2376	-0.0278	0.2098	1046.5428	0.135715	-458.948269	-458.940409	-458.939465	-458.980489	30.397	
C	-0.1945655638	 1.5275532796	 0.0145553129	-0.421496
C	 0.0710783104	 0.0254031744	-0.0591107237	-0.108575
C	 1.0621544038	-0.5115041085	-1.1100692009	 0.000698
O	 1.2341940716	-1.9051468039	-0.659096092	-0.323333
C	 1.9615981463	-1.2982053291	 0.4678633175	-0.107077
C	 2.48101095	-0.2230480114	-0.5458991556	 0.179304
O	 3.5383730355	-0.6412823238	-1.3513158742	-0.444841
C	 0.8321534723	-0.5401271338	 1.1652627476	 0.443189
O	 0.6204269835	-0.369957669	 2.3339354214	-0.329191
H	 0.7329979062	 2.106893982	 0.0541692093	 0.125309
H	-0.7690572533	 1.8695415182	-0.8514101998	 0.124133
H	-0.7662820233	 1.7561124486	 0.9181940191	 0.146818
H	-0.8726285774	-0.5211022955	-0.1694948683	 0.11872
H	 0.8264342441	-0.4152469238	-2.1702505291	 0.09368
H	 2.6070199601	-1.9686543718	 1.0312385777	 0.105057
H	 2.7187255919	 0.7775996374	-0.1787534535	 0.10398
H	 3.3135207724	-1.5283363297	-1.6627435485	 0.293625
122.6203	178.0352	190.8933	221.9515	304.178	316.6449	465.295	502.5545	514.3865	550.3867	612.6305	708.6451	751.5279	832.0792	877.2448	881.6117	906.1214	933.9067	988.0135	1028.4883	1066.6745	1104.4995	1121.9541	1150.0851	1162.8107	1197.5586	1214.0937	1230.8489	1276.5499	1295.5586	1324.5019	1335.6135	1410.8327	1447.9283	1497.4822	1499.2911	1875.7722	3042.9169	3049.7289	3098.445	3112.7286	3120.5941	3122.6684	3158.0213	3767.6151
CC1C2OC(C2O)C1=O	C[C@H]1[C@@H]2O[C@@H]([C@H]2O)C1=O	
InChI=1S/C6H8O3/c1-2-3(7)6-4(8)5(2)9-6/h2,4-6,8H,1H3	InChI=1S/C6H8O3/c1-2-3(7)6-4(8)5(2)9-6/h2,4-6,8H,1H3/t2-,4+,5+,6-/m1/s1
