15
gdb 15754	5.20583	1.05488	0.99404	1.2007	64.32	-0.2576	-0.0459	0.2117	1159.4309	0.117249	-399.794963	-399.786799	-399.785855	-399.829237	27.831	
O	 0.4414802429	-0.1132541113	 0.3358160811	-0.230656
C	 0.2483779774	 0.9230507946	-0.2404418044	 0.163218
C	 0.9815026768	 2.2180337726	 0.0902494244	-0.386671
C	 1.3482325484	 2.9896912184	-1.1702021457	 0.37381
O	 0.5353301282	 3.1594522101	-2.0578613022	-0.340356
C	 2.7407368081	 3.5149412596	-1.2845454863	-0.110597
C	 3.4648745527	 3.181175056	-2.5597770415	-0.214503
N	 2.994109151	 4.533086786	-2.3117061906	-0.297865
H	-0.4872949654	 1.0189528095	-1.0641951604	 0.113469
H	 0.274931079	 2.8469593699	 0.6512302331	 0.165024
H	 1.8359430739	 2.0050627282	 0.7356940651	 0.135442
H	 3.3102347527	 3.6150100321	-0.3657873492	 0.107933
H	 4.5410658847	 3.0412948509	-2.5205503652	 0.13392
H	 2.9321589572	 2.5642598751	-3.2780623118	 0.136219
H	 2.1142611725	 4.6696136784	-2.8117803464	 0.251612
29.2066	75.3398	105.7892	185.0552	261.926	288.8378	361.9018	473.4948	586.7332	710.6955	774.0656	824.6796	853.9278	898.9496	960.1321	1000.9414	1029.6093	1052.3827	1091.5928	1120.695	1136.2994	1175.5437	1187.6023	1281.5366	1302.3765	1319.0233	1399.5525	1405.7735	1436.6837	1497.1019	1768.3323	1839.6337	2939.5879	3023.8245	3114.869	3120.9574	3161.6359	3209.5522	3460.4211
O=CCC(=O)C1CN1	O=CCC(=O)[C@H]1CN1	
InChI=1S/C5H7NO2/c7-2-1-5(8)4-3-6-4/h2,4,6H,1,3H2	InChI=1S/C5H7NO2/c7-2-1-5(8)4-3-6-4/h2,4,6H,1,3H2/t4-/m1/s1
