21
gdb 92095	2.69685	1.41858	1.02531	1.8384	83.27	-0.2424	0.0155	0.258	1210.0635	0.183998	-387.084149	-387.075911	-387.074967	-387.11675	32.749	
C	-0.569058152	 1.434380171	 0.0136348751	-0.396293
C	 0.0457076803	 0.021916337	 0.0103427267	-0.023519
C	 0.7391439967	-0.260790712	-1.3358361232	-0.246465
C	 1.1824708948	-1.7015165677	-1.4523135776	 0.057804
O	 2.4460159811	-1.9751648989	-2.0719072475	-0.267968
C	 2.314553922	-2.1859015711	-0.6596717864	 0.065429
C	 3.0551265696	-1.2384453442	 0.2712825133	-0.300689
C	 2.1680188995	-0.6442528504	 1.3483142817	-0.089176
C	 0.9332583402	-0.1497376313	 1.226600879	-0.016208
H	 0.2080369372	 2.1972249076	-0.1057681143	 0.120464
H	-1.2862194256	 1.5501311669	-0.8053276624	 0.112491
H	-1.0941846659	 1.636792031	 0.9525155559	 0.113206
H	-0.7909317939	-0.6885841652	 0.1161765469	 0.083495
H	 0.0529711704	-0.0156095995	-2.1550566431	 0.096668
H	 1.6083230724	 0.394226464	-1.4502736786	 0.112241
H	 0.3990873851	-2.4145871603	-1.7148706572	 0.08603
H	 2.3241883576	-3.2362500177	-0.3675541886	 0.090312
H	 3.8882210242	-1.7686176336	 0.7437449832	 0.10366
H	 3.5118905337	-0.4494200261	-0.3372901356	 0.129982
H	 2.6050281813	-0.625636572	 2.3444943346	 0.086759
H	 0.4676390414	 0.2141878426	 2.1428516279	 0.081779
83.0184	171.3704	232.5175	275.3677	302.529	316.1071	355.8065	409.0716	465.0937	530.9293	598.6549	666.0756	743.9753	816.7173	823.9513	836.6883	899.7641	928.8602	953.1974	1003.769	1010.4899	1026.0098	1035.3484	1057.1942	1097.9618	1121.5636	1141.0627	1174.36	1211.7999	1214.6827	1274.0463	1293.4948	1307.3159	1338.7971	1355.2583	1374.9543	1389.7468	1406.0262	1431.7975	1479.4682	1490.4045	1495.7788	1499.5734	1504.985	1720.2121	2963.6993	3029.7949	3036.4742	3040.7666	3070.9898	3082.7273	3095.6529	3101.5509	3103.6286	3109.8275	3115.4299	3149.4584
CC1CC2OC2CC=C1	C[C@H]1C[C@H]2O[C@H]2CC=C1	
InChI=1S/C8H12O/c1-6-3-2-4-7-8(5-6)9-7/h2-3,6-8H,4-5H2,1H3	InChI=1S/C8H12O/c1-6-3-2-4-7-8(5-6)9-7/h2-3,6-8H,4-5H2,1H3/t6-,7+,8-/m1/s1
