21
gdb 92503	2.69137	1.36869	1.13439	0.7925	77.78	-0.2489	0.0625	0.3114	1175.4126	0.182777	-424.224631	-424.216034	-424.21509	-424.257681	33.727	
C	-0.3320896159	 1.4752359741	-0.0043035704	-0.413027
C	 0.0519826219	-0.0011849873	 0.0448662002	 0.046424
C	 0.7394620911	-0.5297847915	-1.2392810138	-0.244847
C	 1.5121099606	-1.7701346378	-0.7760940207	 0.065472
O	 2.9580136849	-1.6358308461	-0.8165560826	-0.295454
C	 3.0804876823	-1.9299665004	 0.5899971103	-0.140499
C	 1.555827264	-1.7696251812	 0.77991265	 0.345498
O	 0.8458409308	-2.7317208923	 1.515042233	-0.485178
C	 1.0491344497	-0.3725998459	 1.1637713031	-0.248755
H	 0.5535581963	 2.1046827393	-0.1516134437	 0.113972
H	-1.0253808875	 1.679226845	-0.8272432828	 0.113542
H	-0.8175260792	 1.7929372569	 0.92459613	 0.113816
H	-0.8571882414	-0.595746394	 0.2076056298	 0.082797
H	 0.0245551647	-0.7385489068	-2.0402856323	 0.096396
H	 1.4612361831	 0.202814383	-1.6181497084	 0.111559
H	 1.1897067649	-2.7079243002	-1.2484689833	 0.062162
H	 3.4302882147	-2.9590057771	 0.7659901653	 0.083201
H	 3.7467140459	-1.2311237129	 1.1085992644	 0.104687
H	 1.0777093962	-3.6040415805	 1.1782632227	 0.278236
H	 1.8792882474	 0.3433245517	 1.1687506081	 0.100194
H	 0.6005170254	-0.3788796062	 2.160078901	 0.109804
89.1489	106.2691	231.9705	265.7522	266.6955	345.8618	365.5373	373.3688	410.9174	465.2331	521.7117	617.6501	691.182	810.2006	833.9781	868.1635	888.5052	934.2263	942.2387	960.0491	1008.416	1039.326	1046.089	1060.1657	1106.4956	1116.5351	1142.5273	1154.631	1161.7869	1211.5675	1245.4531	1273.6857	1293.2222	1304.0746	1336.0676	1353.6108	1364.3964	1383.7136	1395.3081	1410.198	1471.2304	1483.8317	1495.6765	1499.3407	1518.3286	2981.6439	3009.9366	3012.6321	3023.9543	3040.5478	3045.6802	3058.7118	3089.4556	3095.9028	3096.3576	3108.0485	3802.6071
CC1CC2OCC2(O)C1	C[C@H]1C[C@H]2OC[C@@]2(O)C1	
InChI=1S/C7H12O2/c1-5-2-6-7(8,3-5)4-9-6/h5-6,8H,2-4H2,1H3	InChI=1S/C7H12O2/c1-5-2-6-7(8,3-5)4-9-6/h5-6,8H,2-4H2,1H3/t5-,6+,7-/m0/s1
