15
gdb 48820	2.78513	1.62727	1.15754	3.3191	67.96	-0.2632	-0.0502	0.213	1018.8095	0.11372	-453.942963	-453.935484	-453.93454	-453.975093	27.797	
N	 0.1013765958	 1.2931581004	 0.252682536	-0.547807
C	 0.071276217	 0.0562509797	 0.0058956712	 0.391493
O	 1.1351683273	-0.708317988	-0.3832538023	-0.24998
C	 0.7127050845	-1.9965438282	-0.8706560363	-0.088365
C	-0.7540222097	-2.1267325618	-0.5076383278	-0.103521
N	-0.984525034	-1.997948884	 0.9175893042	-0.352185
C	-1.1491904608	-0.7928182064	 0.0585097977	 0.148479
C	-2.5191314687	-0.2488045953	-0.1240497818	 0.078327
O	-3.5059731769	-0.9064907308	 0.1132740039	-0.27844
H	 1.0354605082	 1.6750010174	 0.0958094633	 0.231039
H	 0.8602153631	-2.0309915508	-1.9556437121	 0.123344
H	 1.3321997616	-2.7594167676	-0.3915705432	 0.138437
H	-1.4351755262	-2.6948266136	-1.1316863937	 0.12838
H	-1.9372374045	-2.3086815545	 1.1238745854	 0.258438
H	-2.5711516166	 0.7936381333	-0.4872189445	 0.12236
118.4307	151.2452	189.4547	223.0956	288.7245	364.0508	437.1939	528.0438	623.2683	707.2693	746.7001	760.041	858.3435	883.6718	906.3906	938.3043	979.2786	1014.5139	1038.8469	1070.1751	1088.2265	1110.8426	1192.5411	1228.1743	1241.2443	1295.6856	1353.4933	1404.4079	1421.0192	1440.2956	1505.4142	1782.529	1795.4935	2978.1543	3046.3554	3103.1123	3182.2024	3441.4615	3479.758
N=C1OCC2NC12C=O	[NH][C]1OC[C@H]2N[C@@]12C=O	
InChI=1S/C5H6N2O2/c6-4-5(2-8)3(7-5)1-9-4/h2-3,6-7H,1H2	InChI=1S/C5H6N2O2/c6-4-5(2-8)3(7-5)1-9-4/h2-3,6-7H,1H2/t3-,5-/m1/s1
