19
gdb 42056	2.64499	1.55792	1.04299	0.875	89.69	-0.2167	-0.0161	0.2006	1151.6075	0.161247	-348.724871	-348.716763	-348.715819	-348.757306	31.769	
C	 0.1227761482	 1.5264538759	 0.1642475538	-0.247191
C	 1.6369412967	 1.7205771147	-0.206191395	-0.243401
C	 1.9049206633	 2.7714208173	-1.262330386	-0.062601
C	 1.4116468835	 2.6948169606	-2.5123415401	-0.175456
C	 0.5541992242	 1.6077179518	-2.8200847693	-0.015472
C	-0.1648252316	 0.6461161041	-2.6881992691	 0.138575
C	-0.9725415457	-0.4696842419	-2.2191058382	-0.404419
C	-0.7939141719	-0.7238757971	-0.726237824	-0.029502
C	-0.3314601343	 0.0816254491	 0.2349531002	-0.053282
H	-0.0530687562	 1.9817771736	 1.1445130613	 0.094401
H	-0.4944732328	 2.0791213437	-0.5436151038	 0.129976
H	 2.2081149228	 1.9556888652	 0.6962920437	 0.096157
H	 2.0215246526	 0.7626745266	-0.5762868169	 0.125537
H	 2.5484696597	 3.6077227052	-1.0017254321	 0.096031
H	 1.6365274235	 3.4521092344	-3.25627725	 0.104153
H	-2.0378107975	-0.306678509	-2.4453537622	 0.138228
H	-0.7095240661	-1.3905035615	-2.7580242887	 0.134992
H	-1.0944948459	-1.7279134122	-0.4314939263	 0.087298
H	-0.2786026625	-0.3616247005	 1.2286426126	 0.085977
85.4165	173.3154	207.1568	278.6737	290.1589	339.4737	365.8344	458.029	479.8751	553.4609	649.3439	703.1852	706.7954	756.2595	798.1545	813.3684	873.7589	954.1447	963.8704	975.687	991.9698	1012.1442	1023.7782	1052.9794	1165.9391	1207.181	1219.8762	1232.3992	1254.7626	1290.6278	1332.6937	1348.9951	1353.247	1409.2476	1420.604	1464.8512	1481.9407	1501.6094	1639.4114	1715.0874	2331.9828	2987.9134	3016.4186	3032.2762	3047.2096	3083.932	3116.4304	3129.9315	3148.0723	3157.8996	3181.9766
C1CC=CC#CCC=C1	C1CC=CC#CCC=C1	
InChI=1S/C9H10/c1-2-4-6-8-9-7-5-3-1/h1-2,7,9H,3-5H2/b2-1-,9-7-	InChI=1S/C9H10/c1-2-4-6-8-9-7-5-3-1/h1-2,7,9H,3-5H2/b2-1-,9-7-
