20
gdb 104378	2.42945	1.47782	1.20838	1.838	74.78	-0.2139	-0.0262	0.1877	1129.0512	0.170095	-440.288797	-440.279375	-440.278431	-440.323012	34.893	
C	 0.1451485674	 1.5073657207	 0.1264834944	-0.256734
O	-0.0236548148	 0.1016212049	 0.0101730989	-0.289552
C	 0.5707061654	-0.5467133197	-1.104542726	 0.298934
C	 2.0618172787	-0.2381933258	-1.2722151592	-0.454365
C	 0.2939056837	-2.0600854329	-0.9538722249	-0.232386
N	 0.0306407343	-2.600301893	-2.2980692513	-0.297002
C	-0.6915342516	-1.5395239142	-3.0080136659	-0.282757
C	-0.192452599	-0.2164475385	-2.4194090788	 0.357097
O	-0.3504024355	 0.8855004798	-2.8820750558	-0.323584
H	 1.1925485957	 1.7825577784	 0.3087525564	 0.106043
H	-0.2139378156	 2.038220505	-0.7602168248	 0.14279
H	-0.446609518	 1.807499438	 0.9947032959	 0.125381
H	 2.5845241732	-0.3940209548	-0.3230317001	 0.128274
H	 2.5044236724	-0.9042495242	-2.0207477063	 0.111882
H	 2.2256070432	 0.7886046011	-1.6090537145	 0.138902
H	 1.1138514651	-2.6005423866	-0.4763137222	 0.107972
H	-0.6005454026	-2.1780590803	-0.3318264354	 0.123173
H	 0.9128651502	-2.7736597035	-2.7692431291	 0.223832
H	-0.5521515913	-1.5817576942	-4.0906118342	 0.132733
H	-1.7712860909	-1.6203867602	-2.8140072971	 0.139367
55.652	113.6863	175.0972	197.3891	215.2874	263.5545	287.9565	310.4034	362.2913	410.2458	503.1755	534.7588	620.5564	666.6737	688.4358	809.7208	866.3948	905.3678	931.8345	949.1546	1019.6126	1067.8937	1074.1387	1106.9335	1113.9434	1175.5757	1184.6275	1214.7834	1231.452	1260.3971	1293.9899	1310.1948	1355.4734	1396.9515	1457.7738	1462.8677	1471.6621	1481.8912	1485.8096	1496.1033	1505.1767	1518.4652	1836.6848	3007.151	3011.5001	3034.1526	3047.0292	3087.2007	3102.3076	3109.1891	3112.93	3121.3548	3124.6149	3515.6938
COC1(C)CNCC1=O	CO[C@@]1(C)CNCC1=O	
InChI=1S/C6H11NO2/c1-6(9-2)4-7-3-5(6)8/h7H,3-4H2,1-2H3	InChI=1S/C6H11NO2/c1-6(9-2)4-7-3-5(6)8/h7H,3-4H2,1-2H3/t6-/m0/s1
