18
gdb 50939	1.70906	1.61977	0.90258	2.0269	73.87	-0.2577	-0.0402	0.2176	1275.8804	0.146486	-439.105773	-439.096605	-439.09566	-439.140526	32.712	
O	 0.4675842956	 0.4305628384	 1.4513215374	-0.326532
C	 0.209757096	 1.1846397009	 0.5345953115	 0.157475
N	 1.1087033447	 1.6480042347	-0.3716117753	-0.277596
C	 2.4650042036	 1.1444316982	-0.4395002206	-0.088062
C	 2.938064024	 1.2085337921	-1.8810795475	 0.160421
O	 2.2935156822	 1.6909400989	-2.7788109255	-0.258851
C	 3.4601069448	 1.8941339869	 0.4395977943	 0.007188
C	 3.541071671	 1.5725101682	 1.9095344941	-0.26865
C	 4.6628190022	 1.1636170898	 0.9924169307	-0.273572
H	-0.8069183594	 1.5820907708	 0.3498892651	 0.084668
H	 0.7791192593	 2.1219139893	-1.202048908	 0.259649
H	 2.4679859055	 0.0909403703	-0.123774824	 0.121987
H	 3.9575837174	 0.8054100777	-2.0467204496	 0.104712
H	 3.6030962339	 2.9330929232	 0.154845185	 0.092363
H	 3.7136039921	 2.3966632168	 2.5923325035	 0.116898
H	 2.8661417344	 0.810164615	 2.2788738716	 0.153891
H	 4.7693960167	 0.1083328841	 0.7619346015	 0.116023
H	 5.603456246	 1.6996486547	 1.0461266458	 0.117988
63.8972	87.9371	109.8381	178.5621	186.1923	249.1893	286.6996	340.1723	393.5497	477.2065	587.1764	690.2218	761.351	795.7734	832.8857	837.9678	912.0527	934.3417	963.812	1033.7762	1043.0589	1062.4053	1085.1016	1120.4937	1133.1316	1170.923	1197.9803	1220.0848	1226.717	1275.0585	1330.5395	1399.9411	1412.7921	1428.3727	1475.7094	1504.1666	1513.1325	1791.3406	1822.616	2934.1729	2949.898	3014.4943	3132.4194	3141.5098	3148.2492	3214.4142	3241.0878	3587.6086
O=CNC(C=O)C1CC1	O=CN[C@@H](C=O)C1CC1	
InChI=1S/C6H9NO2/c8-3-6(7-4-9)5-1-2-5/h3-6H,1-2H2,(H,7,9)	InChI=1S/C6H9NO2/c8-3-6(7-4-9)5-1-2-5/h3-6H,1-2H2,(H,7,9)/t6-/m0/s1
