19
gdb 75202	2.52722	1.6337	1.21163	2.2122	76.88	-0.2235	0.0214	0.2448	1080.5743	0.157571	-423.022174	-423.013233	-423.012289	-423.054949	34.934	
C	-0.0676548406	 1.4917042076	 0.0630881466	-0.508364
C	-0.0208234044	 0.000264821	-0.0276184409	 0.284642
C	 0.0100227747	-0.7686574355	-1.122673975	-0.182332
C	 0.0154986096	-2.2526863748	-0.8124662808	-0.328941
C	 0.068820486	-2.289447455	 0.710478806	 0.39739
O	-0.6510464847	-3.2790588398	 1.3718490921	-0.484205
C	 1.2761503412	-1.6878584858	 1.4056655037	-0.402127
C	 0.0160235132	-0.8620152989	 1.1994513902	 0.198656
O	-0.8197844341	-0.5684561551	 2.2836468648	-0.471978
H	 0.8283603919	 1.8912732395	 0.5563645769	 0.121139
H	-0.1463159804	 1.9529935856	-0.924618395	 0.124935
H	-0.9264670964	 1.8127526073	 0.6640482987	 0.135161
H	 0.0540553394	-0.3910053015	-2.1387071594	 0.08919
H	-0.8947706733	-2.7515948799	-1.1684773122	 0.116688
H	 0.8637351555	-2.772379904	-1.2747604949	 0.11079
H	-1.2375637301	-2.8228976412	 1.9906455038	 0.288161
H	 1.4401010429	-2.0731064512	 2.4079335375	 0.109388
H	 2.1700658602	-1.4262864	 0.8480473751	 0.110758
H	-0.2924231306	-0.1753704482	 2.9859867728	 0.29105
136.7242	177.981	206.7357	227.3871	261.0407	263.3499	297.141	346.2039	414.0715	448.5476	495.0006	552.3496	595.0134	663.5887	705.0979	785.1197	816.9151	840.2253	911.3222	944.2765	955.7068	995.5637	1026.6379	1037.8883	1067.2212	1092.6565	1144.4546	1170.4597	1214.2899	1234.9164	1287.4188	1315.8247	1364.8222	1380.7195	1401.1993	1409.2364	1459.9899	1477.2194	1480.8982	1492.7464	1704.2571	3017.5925	3025.8229	3057.4579	3069.2828	3114.1792	3115.461	3188.1207	3211.2251	3747.1435	3817.1823
CC1=CCC2(O)CC12O	CC1=CC[C@@]2(O)C[C@@]12O	
InChI=1S/C7H10O2/c1-5-2-3-6(8)4-7(5,6)9/h2,8-9H,3-4H2,1H3	InChI=1S/C7H10O2/c1-5-2-3-6(8)4-7(5,6)9/h2,8-9H,3-4H2,1H3/t6-,7-/m1/s1
