23
gdb 109690	2.26985	1.11622	0.94785	1.4362	82.95	-0.2344	0.0708	0.3052	1402.1243	0.202528	-425.399097	-425.387823	-425.386878	-425.435374	40.311	
C	 0.0084362736	 1.2169069468	-0.3487962	-0.235045
O	-0.084811563	 0.0570570514	 0.4543280694	-0.240818
C	-1.3072206472	-0.5982702405	 0.3190737906	 0.088539
C	-1.4561201433	-1.7014470367	-0.7162980214	-0.098078
C	-0.3395848685	-2.0306633713	-1.6845717649	-0.421094
C	-1.3719176686	-2.0279520126	 0.7735750976	 0.238703
C	-0.1292805911	-2.6806919256	 1.3477292225	-0.474055
C	-2.672243857	-2.469601744	 1.4258079366	-0.127247
O	-2.7849451625	-2.1058562443	 2.7942308114	-0.419753
H	 0.9894134874	 1.6604171511	-0.1620194058	 0.125798
H	-0.0842838707	 0.9833543413	-1.4186659569	 0.110016
H	-0.7688002793	 1.9502723591	-0.0857796373	 0.108874
H	-2.1694405987	 0.0398491284	 0.5224754309	 0.08305
H	-2.4519017913	-1.801197333	-1.144311172	 0.075214
H	 0.6316740792	-1.7071472777	-1.3043389663	 0.130701
H	-0.2844194286	-3.1066437733	-1.8834398017	 0.115242
H	-0.5027817217	-1.5281915607	-2.6441832074	 0.114511
H	 0.784674468	-2.2639470467	 0.9251772677	 0.13888
H	-0.0743847316	-2.5164587523	 2.4304363545	 0.108163
H	-0.1349459023	-3.7625272012	 1.1693842494	 0.110012
H	-3.5197377834	-1.9872765168	 0.927393445	 0.100969
H	-2.7960126282	-3.5575602684	 1.2933772699	 0.083222
H	-2.1351435212	-2.611260003	 3.2913226081	 0.284197
64.9155	106.2436	145.1044	149.8834	156.7098	178.7165	192.6354	221.8187	257.3948	302.7521	321.2111	336.9628	375.8924	508.8273	542.7533	601.0695	729.6047	805.8778	866.2744	938.7461	962.3692	986.1152	1024.579	1048.9501	1068.3428	1094.9813	1107.8311	1126.6168	1151.1064	1172.0027	1183.5872	1207.2408	1232.2113	1270.9362	1342.6342	1366.7043	1377.5353	1407.5264	1418.023	1424.6078	1446.259	1482.6085	1485.4248	1487.8526	1494.5433	1497.2163	1504.1115	1510.364	1518.6547	2964.2779	2985.1035	3025.5066	3033.2151	3038.0046	3066.5062	3077.7473	3079.5296	3086.1463	3113.5053	3116.5282	3129.5429	3149.0504	3830.6598
COC1C(C)C1(C)CO	CO[C@H]1[C@@H](C)[C@]1(C)CO	
InChI=1S/C7H14O2/c1-5-6(9-3)7(5,2)4-8/h5-6,8H,4H2,1-3H3	InChI=1S/C7H14O2/c1-5-6(9-3)7(5,2)4-8/h5-6,8H,4H2,1-3H3/t5-,6+,7+/m1/s1
