21
gdb 99141	2.81883	0.99973	0.86555	2.6434	80.42	-0.2349	0.0352	0.2701	1432.5239	0.181645	-420.405668	-420.395389	-420.394444	-420.441739	36.549	
C	-0.5137912761	 1.0706453939	-0.9376855957	-0.335431
N	 0.0763659021	-0.20185558	-1.3051351352	-0.314172
C	 1.0288919423	-0.8104868603	-0.5404070681	 0.409405
O	 1.449154073	-0.3415604839	 0.5023779466	-0.382118
C	 1.5522209165	-2.1547139492	-1.0642010856	-0.335147
C	 1.1764972764	-2.517399657	-2.4833999157	-0.012746
C	 1.0792529262	-3.9269903064	-2.9519571673	-0.262826
N	-0.1233257362	-3.1050189236	-2.8623711933	-0.090241
C	-1.0844457221	-3.4707751829	-1.8272701336	-0.320048
H	-0.0359675819	 1.3945400898	-0.0125192422	 0.171317
H	-0.3451117483	 1.8255718554	-1.7136030544	 0.124891
H	-1.5928063353	 0.978436228	-0.7699514063	 0.124426
H	-0.2316434674	-0.6537788993	-2.1504256523	 0.265897
H	 2.6426390775	-2.1077841857	-0.9735162679	 0.138413
H	 1.2313446075	-2.9200581215	-0.3511213539	 0.131747
H	 1.5166840951	-1.7874519883	-3.2182056499	 0.099566
H	 1.4038387737	-4.2038099478	-3.9516162756	 0.117945
H	 1.209739986	-4.7060130333	-2.2010649057	 0.110324
H	-0.64351228	-3.938174887	-0.9337885373	 0.107187
H	-1.6414954729	-2.584789814	-1.5073325343	 0.121739
H	-1.7961088863	-4.1820964169	-2.2576819826	 0.129873
54.9757	80.6486	83.5054	118.147	168.1377	195.4782	266.7065	304.4689	333.5612	405.8863	422.8966	488.4849	534.1655	638.3721	670.192	746.8524	792.1238	869.4879	919.0003	965.0445	1039.6106	1070.016	1102.0073	1122.0373	1134.9033	1144.1476	1158.6416	1170.8779	1176.275	1209.5472	1236.6432	1267.7949	1300.2493	1332.273	1423.4603	1436.938	1446.5694	1461.722	1489.1727	1494.5762	1501.2568	1508.3439	1514.7406	1566.7535	1778.089	2986.9101	3027.361	3059.7816	3072.4612	3078.7207	3087.1425	3090.3744	3106.0653	3106.7209	3154.1668	3174.9418	3643.6718
CNC(=O)CC1CN1C	CNC(=O)C[C@H]1CN1C	
InChI=1S/C6H12N2O/c1-7-6(9)3-5-4-8(5)2/h5H,3-4H2,1-2H3,(H,7,9)	InChI=1S/C6H12N2O/c1-7-6(9)3-5-4-8(5)2/h5H,3-4H2,1-2H3,(H,7,9)/t5-,8?/m0/s1
