14
gdb 123985	3.84697	1.66333	1.16952	3.2363	67.56	-0.2284	0.0046	0.233	958.4187	0.105418	-432.893137	-432.886757	-432.885813	-432.92405	24.736	
C	 0.0152581451	 1.5458588655	-0.05079086	-0.285373
N	 1.3894676748	 2.0253618051	 0.1236634659	-0.257049
C	 2.3517959136	 1.2267156345	 0.2676995446	 0.119612
O	 2.3611349696	-0.1512237295	 0.2955013048	-0.229916
C	 1.1262089733	-0.7029383723	 0.1410616953	 0.403679
N	 0.9439508177	-2.0091005663	 0.141886562	-0.324282
N	-0.3950109224	-2.1147379646	-0.0349483973	-0.187833
C	-1.0264498391	-0.9175847306	-0.1425569087	-0.158622
C	-0.0491016112	 0.0489987547	-0.0305462156	 0.106339
H	-0.5961070252	 1.9988264844	 0.7411657005	 0.12801
H	-0.3644258641	 1.9654257963	-0.992037277	 0.12801
H	 3.3690146967	 1.5856828265	 0.39675399	 0.134508
H	-0.8026653512	-3.0323495298	-0.0717858008	 0.281005
H	-2.0936511576	-0.8527288439	-0.2864480536	 0.141912
99.1996	232.8718	335.1711	430.175	444.1008	499.3894	510.6647	634.7095	650.3292	728.8938	738.2894	785.6135	885.2447	947.5424	958.7202	962.006	1027.3763	1074.3163	1105.1346	1177.8938	1228.797	1249.7903	1299.3795	1352.191	1404.4793	1448.0974	1480.1524	1495.0006	1536.1201	1636.024	1748.2228	3008.589	3023.3901	3185.5449	3258.7677	3690.9314
C1N=COC2=NNC=C12	C1N=COc2n[nH]cc12	
InChI=1S/C5H5N3O/c1-4-2-7-8-5(4)9-3-6-1/h2-3H,1H2,(H,7,8)	InChI=1S/C5H5N3O/c1-4-2-7-8-5(4)9-3-6-1/h2-3H,1H2,(H,7,8)
