21
gdb 99292	4.08319	0.79472	0.74144	1.6145	79.57	-0.2663	0.02	0.2863	1634.3948	0.181099	-424.257022	-424.246952	-424.246008	-424.293781	35.644	
C	-0.5234240247	 1.1391377327	-0.4011354177	-0.37053
C	 0.2832166944	-0.1231682631	-0.1079685096	-0.297476
C	 0.9570553178	-0.6931899018	-1.3405873118	 0.453758
O	 0.8727695091	-0.2331589811	-2.453137797	-0.3605
O	 1.675906885	-1.7888624074	-1.019124454	-0.251976
C	 2.3751085638	-2.4598696873	-2.0931834691	-0.100326
C	 1.578048336	-3.6132234726	-2.6376515252	 0.006743
C	 0.5287772312	-3.3738560054	-3.695306649	-0.255431
C	 1.8205731532	-4.0571622369	-4.0607419559	-0.272235
H	 0.1159637065	 1.9272056047	-0.8068895145	 0.131325
H	-1.3047765779	 0.9414211743	-1.1391457077	 0.131801
H	-0.9953346513	 1.5122756886	 0.5120518768	 0.110669
H	 1.0615096241	 0.0601146844	 0.6420439779	 0.130919
H	-0.3473133857	-0.9134356329	 0.3168246391	 0.131675
H	 2.5958082657	-1.7331508572	-2.8787426956	 0.128868
H	 3.3107936983	-2.8029572409	-1.6426088344	 0.111783
H	 1.3730437983	-4.3968721024	-1.9138665689	 0.088078
H	-0.374553374	-3.9724840967	-3.6580823385	 0.110851
H	 0.3816144698	-2.3513692012	-4.0222704469	 0.142162
H	 2.5402669998	-3.4994511422	-4.651056094	 0.115781
H	 1.8062173306	-5.1206230558	-4.2708359341	 0.114062
31.3727	62.279	75.59	88.1878	194.2081	208.3761	252.0843	322.9116	349.2637	393.6503	534.3211	586.9153	653.7927	777.8764	805.5141	810.1215	844.2577	855.0283	931.3053	942.7016	982.665	1023.8933	1036.3918	1062.5901	1084.8517	1101.8858	1106.6766	1137.1474	1194.6355	1200.0362	1215.0094	1231.2679	1277.3546	1309.6725	1367.3484	1390.575	1416.1235	1434.007	1458.9375	1473.0035	1486.4958	1492.9021	1500.3406	1508.4544	1810.4854	3042.7397	3051.9952	3060.1542	3072.1238	3114.8698	3123.1348	3129.0753	3133.9255	3142.2372	3151.3423	3214.5652	3234.7998
CCC(=O)OCC1CC1	CCC(=O)OCC1CC1	
InChI=1S/C7H12O2/c1-2-7(8)9-5-6-3-4-6/h6H,2-5H2,1H3	InChI=1S/C7H12O2/c1-2-7(8)9-5-6-3-4-6/h6H,2-5H2,1H3
