19
gdb 73806	2.39869	1.37744	1.05795	3.6658	79.85	-0.2235	-0.0244	0.1991	1209.8314	0.156644	-423.046923	-423.037325	-423.036381	-423.081797	33.938	
C	 0.0802867182	 1.5190374811	 0.0134424732	-0.499351
C	 0.0164268995	 0.0277179587	-0.0528080588	 0.196251
C	-1.0379913957	-0.7860437324	 0.0520687983	 0.176238
C	-2.4844815175	-0.4609444138	 0.2501391504	-0.506051
C	-0.5420396333	-2.222274777	-0.0562825827	-0.055632
O	 0.8180614485	-2.1378688856	-0.4079783478	-0.25009
C	 1.2632649617	-0.7934636798	-0.2630019299	-0.153583
C	-0.7390864572	-2.9563133236	 1.2732198193	 0.149577
O	 0.1417297744	-3.2098789131	 2.0483975988	-0.235503
H	 0.7288829045	 1.845857421	 0.8360044235	 0.13666
H	 0.5078144737	 1.93655046	-0.9067502642	 0.132639
H	-0.9029043079	 1.9704861906	 0.1640932077	 0.128927
H	-2.6601157743	 0.6173276552	 0.2453939753	 0.13204
H	-3.1002518894	-0.9050050741	-0.5420970091	 0.132002
H	-2.8658702602	-0.8530200201	 1.2009488074	 0.135742
H	-1.0939596207	-2.7903897709	-0.8263243379	 0.094412
H	 1.8138776077	-0.4983243816	-1.1686144463	 0.105059
H	 1.9599022552	-0.7077764689	 0.5864325313	 0.113503
H	-1.8007375472	-3.233369436	 1.4811313316	 0.067162
58.6938	97.2127	135.8817	163.4177	171.9731	233.3213	274.9152	275.8717	320.6895	381.0826	532.7323	595.0262	620.0684	742.1142	781.957	860.7182	924.7198	962.1303	987.4809	1010.0505	1023.5348	1074.689	1092.201	1117.1339	1161.945	1190.7179	1203.7098	1251.0874	1289.2097	1347.318	1384.3383	1412.9136	1416.4548	1424.4669	1478.5422	1482.0849	1486.9576	1492.9532	1518.2123	1751.4438	1845.6435	2838.1355	2948.0538	2975.5734	3004.216	3021.371	3023.0283	3066.9017	3067.2328	3117.2328	3121.4062
CC1=C(C)C(OC1)C=O	CC1=C(C)[C@@H](OC1)C=O	
InChI=1S/C7H10O2/c1-5-4-9-7(3-8)6(5)2/h3,7H,4H2,1-2H3	InChI=1S/C7H10O2/c1-5-4-9-7(3-8)6(5)2/h3,7H,4H2,1-2H3/t7-/m0/s1
