19
gdb 90568	2.8592	1.26524	1.04643	2.7944	78.13	-0.2076	0.0182	0.2258	1199.2285	0.158623	-419.143907	-419.134999	-419.134054	-419.178395	32.311	
C	-0.0356184227	 1.6453673009	 0.0975928711	-0.341823
N	 0.2029342211	 0.2111128827	 0.1115892559	-0.068688
C	 1.1826028163	-0.3985668398	-0.8223203205	-0.176959
C	 1.8058423525	-1.182330994	 0.3389241606	-0.162138
C	 2.3152687704	-0.2432470012	 1.3736006663	 0.112334
O	 2.9926855468	 0.9238544784	 0.9653444922	-0.194832
C	 3.1192563665	 1.8921475432	 1.8976652792	 0.139318
N	 3.6721271435	 2.985422888	 1.5958772872	-0.446263
C	 0.8212341858	-0.4288490859	 1.2584041705	-0.074422
H	 0.8755049642	 2.2612967886	 0.1198413697	 0.13183
H	-0.6030535422	 1.9057343901	-0.8027991087	 0.119817
H	-0.654186696	 1.9090289231	 0.9623135552	 0.1155
H	 0.6973608075	-1.0268291473	-1.5758661097	 0.108359
H	 1.8607133145	 0.3080686804	-1.3148919077	 0.119714
H	 2.0745824578	-2.229812249	 0.3165796016	 0.101805
H	 2.7658446451	-0.7285922735	 2.238965141	 0.104802
H	 2.707900306	 1.6123790968	 2.876663007	 0.088844
H	 3.6971119724	 3.5970325546	 2.4092814734	 0.229543
H	 0.2182576107	-0.773184196	 2.0943566456	 0.093258
54.2911	72.4274	127.8654	169.4242	199.6658	270.1752	321.3889	365.0518	494.3725	555.3994	664.8358	723.2825	744.8493	806.428	826.4161	884.3468	929.5111	965.4439	994.0152	1028.1832	1045.206	1057.362	1075.1121	1088.6146	1107.1161	1151.135	1170.2835	1208.2007	1238.6532	1248.112	1272.4531	1286.1234	1315.7228	1355.25	1413.0134	1431.6336	1449.5728	1481.4286	1506.0328	1516.4836	1745.5784	2993.3323	3030.238	3030.6773	3063.0344	3077.749	3093.6706	3112.8384	3143.6282	3205.2664	3516.4695
CN1CC2C(OC=N)C12	CN1C[C@H]2[C@@H](O[CH][NH])[C@@H]12	
InChI=1S/C6H10N2O/c1-8-2-4-5(8)6(4)9-3-7/h3-7H,2H2,1H3	InChI=1S/C6H10N2O/c1-8-2-4-5(8)6(4)9-3-7/h3-7H,2H2,1H3/t4-,5+,6-/m1/s1
