20
gdb 80361	2.24219	1.68738	1.18249	4.0993	82.84	-0.2738	0.0332	0.307	1118.4247	0.17075	-366.006151	-365.99727	-365.996326	-366.039193	34.212	
C	-0.0724985481	 1.5449016873	-0.1196236847	-0.425695
C	 0.0776117644	 0.0466057002	 0.0444260536	-0.009623
C	 1.3308326479	-0.7530654295	-0.1839321119	-0.068944
C	 2.5744856974	-0.0227900493	 0.3370487459	-0.290453
C	 1.9615838778	-0.0447990082	 1.7888901449	 0.155844
C	 2.7122749674	-1.0106459151	 2.7183634791	-0.439514
C	 1.8085777006	 1.2486943355	 2.4581050751	 0.25154
N	 1.7024065039	 2.2659146502	 2.9984541576	-0.35935
C	 0.6837692643	-0.6922052882	 1.2085541702	-0.101317
H	 0.8077233435	 2.104590732	 0.2006445192	 0.138661
H	-0.2598996167	 1.7899716678	-1.1707098419	 0.115378
H	-0.9189804314	 1.9152604432	 0.467365798	 0.129508
H	-0.7947417762	-0.4976265881	-0.3160422044	 0.093529
H	 1.3615633759	-1.5876505727	-0.8736123521	 0.09149
H	 3.4879477298	-0.6185266657	 0.2918780813	 0.114829
H	 2.7773235752	 0.961795083	-0.0910700549	 0.1175
H	 3.7072812074	-0.6261214023	 2.9598568428	 0.134616
H	 2.1640842058	-1.1559553474	 3.6539182314	 0.135135
H	 2.8203373913	-1.9820733217	 2.2272976637	 0.124936
H	 0.1369030297	-1.457876591	 1.7475680569	 0.091929
115.5426	137.7324	187.2429	212.1397	247.9241	267.8123	285.1798	356.7879	443.1709	500.6518	543.8595	590.6813	639.55	720.395	778.9586	819.3263	879.7292	915.4674	946.1104	952.1804	981.8531	1005.9134	1011.6563	1059.9021	1073.2703	1115.2892	1146.9275	1163.7602	1183.1116	1215.2828	1246.444	1263.1857	1296.5686	1343.6732	1410.363	1420.9875	1444.4809	1483.2591	1489.9671	1496.1149	1498.9627	1504.7477	2344.5189	3039.6641	3040.3069	3067.4089	3098.5617	3112.8246	3115.286	3119.444	3122.1129	3138.1616	3169.3474	3186.602
CC1C2CC(C)(C#N)C12	C[C@H]1[C@H]2C[C@@](C)(C#N)[C@@H]12	
InChI=1S/C8H11N/c1-5-6-3-8(2,4-9)7(5)6/h5-7H,3H2,1-2H3	InChI=1S/C8H11N/c1-5-6-3-8(2,4-9)7(5)6/h5-7H,3H2,1-2H3/t5-,6+,7-,8-/m0/s1
