14
gdb 24395	3.78614	1.67283	1.16852	1.433	67.62	-0.2133	0.0001	0.2134	961.3184	0.104102	-436.71426	-436.707922	-436.706978	-436.745168	24.641	
C	-0.0215360485	 1.4812250919	-0.0595030535	-0.278069
N	 1.3390501568	 2.0090949467	 0.1174180323	-0.258408
C	 2.3351010419	 1.2525912354	 0.2730134677	 0.117646
O	 2.4032580715	-0.1204197282	 0.3138027136	-0.245099
C	 1.1751379018	-0.7100767684	 0.1567135139	 0.291922
C	 0.0360923227	-0.0023548477	-0.017624508	 0.226271
O	-1.0135415638	-0.8568427234	-0.1438783287	-0.186806
C	-0.5051413185	-2.1189705319	-0.0445007708	-0.000723
C	 0.8431584571	-2.0975959817	 0.142330926	-0.33241
H	-0.6624120066	 1.9046641107	 0.726883334	 0.130764
H	-0.4213267959	 1.8650298388	-1.0088648307	 0.130764
H	 3.3334574795	 1.6616358696	 0.402326798	 0.134418
H	-1.2227908265	-2.9176962341	-0.1259618925	 0.142635
H	 1.5025043086	-2.9425686677	 0.2532192589	 0.127097
101.804	213.6546	327.2254	400.0093	485.2763	524.9398	614.3992	626.7023	678.4522	732.3229	736.4167	817.4889	866.499	910.8945	947.7	948.2395	1039.2388	1048.9395	1092.138	1145.9245	1170.002	1227.9646	1261.7096	1300.1136	1363.6675	1405.9588	1482.8651	1505.4554	1532.7559	1687.8874	1745.8461	2997.3609	3010.1562	3183.1169	3269.0731	3293.104
C1N=COC2=C1OC=C2	C1N=COc2c1occ2	
InChI=1S/C6H5NO2/c1-2-8-6-3-7-4-9-5(1)6/h1-2,4H,3H2	InChI=1S/C6H5NO2/c1-2-8-6-3-7-4-9-5(1)6/h1-2,4H,3H2
