15
gdb 33843	4.62609	1.08422	1.00725	3.9116	71.48	-0.2811	0.0004	0.2814	1151.446	0.112821	-416.748946	-416.741494	-416.74055	-416.781061	28.296	
N	 0.0470187503	-1.1445740502	 0.108770861	-0.338753
C	 0.0536547688	 0.0102688981	 0.0494551183	 0.235177
C	 0.0391686079	 1.4353262757	-0.0754489976	 0.186416
C	-0.6928360396	 2.2282392735	-1.1817438051	-0.392192
C	 0.5045157591	 3.2028076196	-1.1726211655	 0.443917
C	 1.084192278	 3.9624897573	-2.2763481649	-0.262169
O	 0.4092025875	 4.6130913126	-1.185975762	-0.265753
C	 1.1972343897	 2.4209502795	-0.0752702843	-0.174776
N	 0.3296500519	 2.270627224	 1.083653052	-0.338029
H	-0.7892055649	 1.6819499938	-2.1221710588	 0.14054
H	-1.6653315963	 2.6352452743	-0.8916580924	 0.128614
H	 2.1602395936	 4.1243913358	-2.318944156	 0.129024
H	 0.5677071284	 3.9977875458	-3.2341946069	 0.128256
H	 2.2578862265	 2.2382826056	 0.0480818766	 0.126667
H	-0.3388916009	 3.0326423346	 1.1869269457	 0.253062
82.4981	153.6363	217.4616	280.8324	347.9509	406.557	454.5342	522.7838	559.6967	593.2249	647.9807	801.539	822.794	852.4501	893.8107	940.8276	974.0535	1005.7449	1048.2092	1095.3903	1113.255	1124.4747	1140.4244	1166.1937	1179.0514	1227.001	1233.6519	1282.9879	1410.5945	1441.3469	1480.2428	1537.5834	2359.8296	3066.3886	3086.6454	3128.0586	3175.6731	3197.0879	3470.1616
N#CC12CC3(CO3)C1N2	N#C[C@]12C[C@]3(CO3)[C@H]1N2	
InChI=1S/C6H6N2O/c7-2-5-1-6(3-9-6)4(5)8-5/h4,8H,1,3H2	InChI=1S/C6H6N2O/c7-2-5-1-6(3-9-6)4(5)8-5/h4,8H,1,3H2/t4-,5+,6-/m0/s1
