21
gdb 17073	5.96197	1.00622	0.96714	1.0237	79.8	-0.2296	0.0902	0.3198	1289.902	0.189635	-329.08282	-329.074675	-329.073731	-329.116013	30.579	
C	-0.1779215277	 1.6594868777	 0.1267784709	-0.167129
C	-0.1440871571	 0.1467216615	-0.006788424	 0.061093
C	 0.2920443869	-0.7083823823	 1.215464345	-0.204826
C	-0.8268242939	-1.724077704	 0.8575698061	-0.210141
C	-1.4948560205	-0.6239147192	-0.0121586232	-0.23665
N	 1.1675843057	 2.2052744119	 0.2799009095	-0.058076
C	 1.8642818513	 2.5560636138	-0.9531958125	-0.218304
C	 1.3373714093	 3.6147647148	-0.0480270378	-0.219401
H	-0.7048310028	 2.0991141325	-0.7427731373	 0.072715
H	-0.7532807906	 1.9356449183	 1.0203465216	 0.0941
H	 0.4491179207	-0.1271796371	-0.8872591897	 0.067997
H	 1.3228082743	-1.0674709324	 1.2435933103	 0.09696
H	 0.0839115874	-0.185903828	 2.1547129974	 0.09838
H	-0.4476896412	-2.5479499129	 0.2457936741	 0.099376
H	-1.4129379627	-2.1461181176	 1.6773762995	 0.093639
H	-2.2642880902	-0.0800765729	 0.5468799455	 0.095581
H	-1.9132237095	-0.9156437901	-0.9788831301	 0.092463
H	 2.9263471469	 2.3296859469	-0.9828399537	 0.1148
H	 1.3395123299	 2.4058055953	-1.8961765769	 0.106448
H	 0.4638567612	 4.168721561	-0.3899919237	 0.106231
H	 2.0070822628	 4.1756627225	 0.597935379	 0.114742
70.3313	83.2659	129.7669	166.5249	305.6582	348.5268	421.5504	440.1388	645.1198	757.2379	777.8151	791.1323	837.632	893.5846	897.1778	922.2926	934.5393	969.5203	976.5435	1026.2651	1030.387	1065.1006	1110.1929	1116.418	1124.0571	1156.927	1179.0442	1192.6456	1206.2785	1237.6879	1254.964	1260.1317	1275.1708	1282.3726	1305.5689	1321.9604	1356.9943	1404.1499	1477.9143	1484.6219	1487.8603	1494.2674	1510.9756	1521.4398	2909.0504	3025.5904	3040.045	3044.455	3054.2387	3057.274	3088.6519	3093.4762	3094.0607	3104.1042	3117.9822	3172.4836	3186.8287
C(C1CCC1)N1CC1	C(C1CCC1)N1CC1	
InChI=1S/C7H13N/c1-2-7(3-1)6-8-4-5-8/h7H,1-6H2	InChI=1S/C7H13N/c1-2-7(3-1)6-8-4-5-8/h7H,1-6H2
