15
gdb 56529	2.68057	1.2542	1.07035	0.7178	65.93	-0.307	-0.0194	0.2875	1128.998	0.109407	-453.952941	-453.943101	-453.942157	-453.987452	34.834	
C	-0.0555264566	 1.5666317909	 0.1172210328	-0.426031
C	-0.0143238971	 0.0399723103	 0.0216862231	 0.175579
O	 0.702288128	-0.4238410046	 1.148350803	-0.429111
C	-1.3873124668	-0.5137418603	 0.0172964805	 0.258822
N	-2.441919014	-0.9839912052	 0.0487422052	-0.320825
C	 0.6935027385	-0.4508381116	-1.2917000224	-0.032903
O	 0.0163698916	-0.0676480219	-2.462487179	-0.402666
C	 2.1012753972	-0.0122226191	-1.2951125469	 0.267103
N	 3.1904683641	 0.369195961	-1.3449546922	-0.310187
H	 0.9660127962	 1.9543692139	 0.129069035	 0.163074
H	-0.6065223213	 1.9951444721	-0.7230306257	 0.137051
H	-0.5538812472	 1.8593083543	 1.0427122037	 0.160524
H	 0.6084117427	-1.3813837281	 1.2190037932	 0.303128
H	 0.6778346339	-1.5468186874	-1.2816190414	 0.148984
H	 0.2061620607	 0.8587766558	-2.6495506789	 0.307458
65.3039	120.5717	172.9017	186.9678	218.9585	234.5054	260.7931	317.2632	327.1385	354.1308	392.5142	433.0301	502.0105	578.0785	593.5481	639.9409	760.835	887.9465	960.4972	974.9997	1081.2763	1102.516	1167.0254	1196.7086	1270.5728	1293.42	1381.8506	1413.4321	1417.6267	1485.8603	1494.6097	2357.2972	2361.0315	3056.3446	3060.2689	3142.8884	3149.8672	3798.4282	3811.2314
CC(O)(C#N)C(O)C#N	C[C@@](O)(C#N)[C@@H](O)C#N	
InChI=1S/C5H6N2O2/c1-5(9,3-7)4(8)2-6/h4,8-9H,1H3	InChI=1S/C5H6N2O2/c1-5(9,3-7)4(8)2-6/h4,8-9H,1H3/t4-,5+/m0/s1
