20
gdb 68446	2.79399	1.74313	1.31443	2.2989	79.45	-0.2391	0.0359	0.275	1026.1224	0.172585	-403.156569	-403.148851	-403.147907	-403.188177	31.365	
C	 0.0619234829	 1.5997528651	-0.0313808791	-0.451682
C	 0.086910687	 0.0878932226	-0.1258945235	 0.414523
C	 1.2815590551	-0.606682423	-0.8364290655	-0.270971
C	 1.211609252	-1.7222505839	 0.2426917766	-0.034665
C	 0.4093898448	-0.7449955846	 1.1456319182	-0.270971
C	 0.3791272322	-2.9198315262	-0.2071921813	-0.160141
N	-0.9360617567	-2.6834406993	-0.7694034791	-0.262872
C	-1.5119402	-1.5753837351	-0.9455032803	 0.115528
O	-1.1746563066	-0.2805246504	-0.7067421334	-0.271813
H	 0.9945187862	 1.9681395122	 0.4046426423	 0.114446
H	-0.0583856614	 2.045134206	-1.0236889051	 0.126746
H	-0.7709287801	 1.9321162834	 0.5958404269	 0.126746
H	 1.131274582	-0.8927394662	-1.8806476369	 0.11014
H	 2.1892473486	-0.0029323001	-0.7571754554	 0.100366
H	 2.1679416339	-2.075376251	 0.6388653483	 0.066617
H	 1.0510496218	-0.1834309023	 1.8294536357	 0.100367
H	-0.4444487608	-1.1426244439	 1.7003003209	 0.110141
H	 0.9465491883	-3.492223596	-0.9550500128	 0.110463
H	 0.243404261	-3.6037459606	 0.6429440742	 0.110463
H	-2.5103726302	-1.5701735468	-1.3844294006	 0.116568
155.0328	211.9639	240.0462	252.4392	364.7907	376.0818	388.3533	418.2804	514.9128	516.8499	646.3895	782.4508	803.0103	827.0186	844.749	889.6331	906.0309	917.4487	942.5653	967.3328	983.7787	1032.0219	1051.8878	1104.9864	1128.5337	1161.6586	1164.9077	1215.8627	1218.7086	1250.351	1252.0046	1313.7519	1314.0135	1348.6987	1387.4395	1413.4868	1440.6912	1462.1596	1471.6193	1485.0243	1488.3449	1495.0988	1755.8024	3000.8516	3024.7809	3040.5506	3057.6778	3057.6793	3070.3317	3112.8865	3114.9205	3116.2409	3123.006	3131.117
CC12CC(C1)CN=CO2	C[C@@]12C[C@@H](C1)CN=CO2	
InChI=1S/C7H11NO/c1-7-2-6(3-7)4-8-5-9-7/h5-6H,2-4H2,1H3	InChI=1S/C7H11NO/c1-7-2-6(3-7)4-8-5-9-7/h5-6H,2-4H2,1H3/t6-,7+
