20
gdb 105477	2.21888	1.11311	0.85615	1.7562	84.23	-0.225	0.0443	0.2693	1444.6558	0.168945	-403.085209	-403.074809	-403.073865	-403.12221	36.047	
C	 0.1308293412	 1.4730502044	-0.0595439007	-0.329693
N	 0.0093618493	 0.0318660581	 0.1399582749	-0.320867
C	-1.3500478373	-0.4884578791	 0.0441842492	 0.047864
C	-1.9623508396	-0.5796694253	-1.4014277759	-0.114089
O	-1.6867225946	-1.9912200916	-1.4657363538	-0.271973
C	-1.3430702351	-2.0398540455	-0.0695405278	-0.117038
C	-2.2164945637	 0.0884679845	 1.061794909	 0.10133
C	-2.9670936654	 0.5437996603	 1.8863923132	 0.058586
C	-3.8655709634	 1.0946730492	 2.890791743	-0.501253
H	 1.1879975675	 1.7489850528	-0.0170092124	 0.120048
H	-0.2806072287	 1.8382300616	-1.016504925	 0.096665
H	-0.3899984956	 1.9941103211	 0.7483026944	 0.137943
H	 0.5824698931	-0.4558870769	-0.5420952343	 0.223669
H	-3.0362441839	-0.3654080796	-1.4578208773	 0.101748
H	-1.4312845933	-0.015477974	-2.1776160917	 0.100451
H	-0.3683379409	-2.5074714882	 0.1121455766	 0.106423
H	-2.1110851784	-2.5381956986	 0.5327095329	 0.107704
H	-4.7111425775	 0.4232509601	 3.0762999241	 0.150944
H	-3.3484055608	 1.248028149	 3.8442139607	 0.152117
H	-4.2733113629	 2.0610185277	 2.5741824607	 0.149423
28.9831	60.23	90.1934	113.9584	144.3269	202.5745	245.9899	291.9227	318.3764	369.8617	428.5221	500.0413	537.0155	578.9627	753.0997	836.562	892.2036	935.2996	958.04	1024.1993	1033.6323	1038.8369	1053.2134	1053.856	1080.9264	1148.6221	1154.5897	1163.1846	1167.454	1202.4625	1293.7468	1317.1472	1362.4317	1414.3844	1453.019	1477.6103	1478.3321	1485.4974	1494.1251	1502.6221	1521.0861	1530.6066	2369.097	2955.2424	3012.3878	3025.1109	3028.062	3067.5259	3075.4239	3077.1388	3088.8684	3090.6153	3120.6914	3510.2581
CNC1(COC1)C#CC	CNC1(COC1)C#CC	
InChI=1S/C7H11NO/c1-3-4-7(8-2)5-9-6-7/h8H,5-6H2,1-2H3	InChI=1S/C7H11NO/c1-3-4-7(8-2)5-9-6-7/h8H,5-6H2,1-2H3
