21
gdb 115661	2.44796	0.93673	0.7306	1.4853	88.23	-0.2386	0.0536	0.2922	1609.8633	0.180973	-387.052599	-387.042118	-387.041174	-387.089888	36.789	
C	 0.3372982291	 1.5850941535	-0.3758941465	-0.498823
C	 0.2030299106	 0.1510453454	-0.1608898888	 0.074316
C	 0.1016103161	-1.0373295024	 0.0155280955	 0.062641
C	-0.0276496905	-2.4638325928	 0.2434563203	-0.181218
C	-0.2304858497	-2.9909796105	 1.7023684438	-0.224832
C	-1.242456676	-4.0307272738	 1.1539529784	-0.223846
C	-1.3509856894	-3.2108530807	-0.1615612716	 0.012
C	-2.5793367879	-2.3200669928	-0.2268908226	-0.088929
O	-3.7102324929	-3.16937029	-0.3750383535	-0.425267
H	 1.1974330454	 1.8146339101	-1.0149102708	 0.14659
H	-0.5531244642	 2.0021575141	-0.8597616579	 0.144654
H	 0.4778572011	 2.1192718665	 0.5706288121	 0.146036
H	 0.820520432	-2.984951343	-0.2143185271	 0.098296
H	 0.6604655561	-3.3632696882	 2.2125624645	 0.10004
H	-0.7030335574	-2.2362333831	 2.3348517483	 0.109149
H	-0.7852741503	-5.010526101	 0.9934805541	 0.098785
H	-2.1740246871	-4.1692132879	 1.7056138822	 0.109733
H	-1.290176427	-3.7866673759	-1.088908359	 0.07649
H	-2.6571712944	-1.7108261612	 0.6877605371	 0.086454
H	-2.4844953705	-1.6219917327	-1.072267715	 0.092731
H	-4.496871073	-2.6172928339	-0.4025589034	 0.284998
21.5903	71.2317	85.8943	106.1185	159.097	202.1574	254.249	277.8963	309.8135	362.8312	423.8114	482.6858	535.921	655.0058	738.2818	816.6993	877.3414	907.2872	927.2212	956.3623	972.5175	1048.6868	1053.3668	1058.187	1075.0405	1084.2838	1148.6627	1187.4556	1194.4511	1224.731	1232.766	1254.0913	1260.4755	1283.3227	1291.2628	1349.0199	1366.2125	1415.6046	1459.8308	1478.8814	1479.8074	1484.0968	1497.7585	1518.4754	2361.5896	2972.2935	3004.7969	3024.0061	3036.922	3063.1922	3068.725	3075.7861	3083.1505	3083.7442	3113.2008	3129.264	3831.0121
CC#CC1CCC1CO	CC#C[C@H]1CC[C@H]1CO	
InChI=1S/C8H12O/c1-2-3-7-4-5-8(7)6-9/h7-9H,4-6H2,1H3	InChI=1S/C8H12O/c1-2-3-7-4-5-8(7)6-9/h7-9H,4-6H2,1H3/t7-,8-/m0/s1
