15
gdb 76213	2.44508	1.6048	1.00063	4.1968	70.97	-0.2382	-0.0933	0.1449	1121.097	0.110872	-457.802747	-457.794213	-457.793269	-457.836129	30.827	
C	 0.1243271041	 1.4626123606	 0.0657796753	-0.490074
C	 0.0052125321	-0.0180145955	-0.0143031713	 0.292098
C	-0.0875529643	-0.7834379165	-1.1230020456	-0.291458
C	-0.0791191323	-2.218572214	-0.8071704355	 0.306757
O	-0.203773108	-3.1760850254	-1.5307292256	-0.306524
C	 0.1776355754	-2.2636046641	 0.7208839444	 0.264713
O	 0.6038747986	-3.1780591129	 1.3729623479	-0.292714
C	-0.052731113	-0.8477101618	 1.2550472992	-0.043475
O	 0.9034514858	-0.4629022686	 2.2125701933	-0.435685
H	 1.0131182923	 1.7263806516	 0.6496472411	 0.169215
H	 0.1883424828	 1.9232558878	-0.9221192091	 0.136892
H	-0.7330680012	 1.8879467627	 0.602779934	 0.147892
H	-0.1273774907	-0.4117337161	-2.1399259735	 0.128396
H	-1.0733222176	-0.7901697373	 1.6772103936	 0.111773
H	 1.190289456	-1.2762320706	 2.6507665316	 0.302192
65.6467	144.1252	177.3838	225.7131	250.8167	304.967	316.2239	345.7023	420.9917	519.6456	564.1854	608.764	682.9793	726.5338	823.2427	877.3302	922.2473	995.5761	1027.6275	1055.2369	1131.5506	1180.9665	1195.6374	1221.6519	1318.9775	1338.5814	1402.074	1411.3037	1467.7914	1474.8097	1652.6489	1818.9048	1856.8135	2931.5333	3029.2458	3085.9442	3133.3341	3209.4683	3751.0247
CC1=CC(=O)C(=O)C1O	CC1=CC(=O)C(=O)[C@H]1O	
InChI=1S/C6H6O3/c1-3-2-4(7)6(9)5(3)8/h2,5,8H,1H3	InChI=1S/C6H6O3/c1-3-2-4(7)6(9)5(3)8/h2,5,8H,1H3/t5-/m0/s1
