21
gdb 94632	3.51772	0.78699	0.69604	2.1388	84.93	-0.2454	0.0583	0.3038	1658.7947	0.180659	-387.043233	-387.033229	-387.032285	-387.079289	36.16	
C	-0.3056835663	 1.5145790676	-0.2014374062	-0.412016
C	 0.042219256	 0.0352966107	-0.110151237	-0.053946
C	 1.4294327317	-0.4141207259	-0.6195763554	-0.075439
O	 1.757854889	-1.0186433824	 0.6473763501	-0.295151
C	 0.5115906967	-0.5776027178	 1.2426673793	 0.133566
C	 0.7435017773	 0.3299292963	 2.4403683399	-0.195602
C	 1.5010414267	-0.4143679885	 3.5598352368	-0.356635
C	 1.7733029475	 0.4270440139	 4.7177880555	 0.290823
C	 1.9852905171	 1.1429779859	 5.6599970612	-0.438518
H	 0.4927544908	 2.1485341159	 0.1957608547	 0.123899
H	-0.4664081269	 1.8030694685	-1.2458478919	 0.11872
H	-1.2241445822	 1.7457392744	 0.3482136606	 0.121231
H	-0.765384105	-0.5570527206	-0.5486278133	 0.082224
H	 1.4360579074	-1.1448595232	-1.4371844755	 0.10092
H	 2.1169407239	 0.4047692209	-0.872481608	 0.097208
H	-0.0846020523	-1.447105162	 1.5571226411	 0.070255
H	 1.3243177471	 1.2087214141	 2.1441079787	 0.111438
H	-0.2201801494	 0.6889588517	 2.8206867239	 0.107262
H	 0.9217314288	-1.2932779268	 3.8729621275	 0.125762
H	 2.4409598445	-0.7977130934	 3.1459906773	 0.152951
H	 2.1810330975	 1.7637403507	 6.4985630206	 0.191049
40.2977	77.6652	93.054	106.6749	204.0945	230.3946	259.31	345.7478	361.5417	441.5117	451.3232	550.4596	612.8315	633.3666	719.9587	776.1874	847.1302	886.9302	919.6305	924.333	973.982	1003.8668	1022.9205	1046.8026	1066.718	1130.529	1142.1611	1160.8786	1185.7606	1205.4666	1251.4835	1280.12	1296.9161	1314.4482	1351.532	1368.7906	1386.2248	1405.7087	1418.6632	1471.2779	1485.8324	1498.2518	1503.0944	1529.3816	2238.652	2986.333	3004.0625	3020.1873	3033.4863	3042.2846	3046.6727	3064.1032	3069.302	3095.1221	3097.1402	3111.3353	3508.406
CC1COC1CCC#C	C[C@H]1CO[C@H]1CCC#C	
InChI=1S/C8H12O/c1-3-4-5-8-7(2)6-9-8/h1,7-8H,4-6H2,2H3	InChI=1S/C8H12O/c1-3-4-5-8-7(2)6-9-8/h1,7-8H,4-6H2,2H3/t7-,8-/m0/s1
