15
gdb 9862	5.85057	0.93322	0.8589	2.2578	85.31	-0.2354	-0.0153	0.2202	1318.404	0.116957	-325.446195	-325.437835	-325.43689	-325.479012	30.732	
C	-0.0509330757	 1.4981072224	 0.0154177634	-0.460512
C	 0.0025531401	-0.0206166194	-0.023397999	 0.016068
C	 0.7473624817	-0.6876207903	-1.1385457201	-0.25741
N	 1.3020530607	-0.7005056004	 0.2183499952	-0.321376
C	-1.1426942432	-0.6815785017	 0.5465401111	 0.484708
C	-2.1335646825	-1.1961814266	 1.0149377673	-0.248934
C	-3.240782075	-1.7853638548	 1.5408464924	 0.296084
C	-4.2256070931	-2.3062613511	 2.007329631	-0.577051
H	 0.8301672349	 1.9238756905	-0.4754820245	 0.114996
H	-0.9426448273	 1.8700865972	-0.4977319088	 0.139794
H	-0.082612627	 1.8581097484	 1.048383113	 0.138523
H	 0.4119208566	-1.6532802378	-1.5031243687	 0.132965
H	 1.1913019096	-0.0392720959	-1.8901712737	 0.117661
H	 2.0275478299	 0.0083663207	 0.3063644411	 0.234042
H	-5.0888944097	-2.7671398212	 2.4187320103	 0.190443
81.3762	100.4617	214.0329	230.1961	265.7999	321.6336	354.6723	487.9661	503.3807	539.0348	551.1419	576.1853	601.1865	613.2945	801.0291	830.7705	929.1889	971.883	995.2067	1053.3425	1088.1666	1126.3578	1154.5551	1259.5989	1313.0844	1376.5041	1411.6761	1479.7014	1499.7998	1505.5406	2181.5935	2358.8501	3035.0203	3107.5632	3109.9741	3112.2396	3203.0924	3487.5496	3505.5672
CC1(CN1)C#CC#C	C[C@]1(CN1)C#CC#C	
InChI=1S/C7H7N/c1-3-4-5-7(2)6-8-7/h1,8H,6H2,2H3	InChI=1S/C7H7N/c1-3-4-5-7(2)6-8-7/h1,8H,6H2,2H3/t7-/m1/s1
