13
gdb 129949	2.4808	1.84366	1.05879	2.8816	66.6	-0.2202	-0.0613	0.1589	1024.2578	0.089708	-489.876071	-489.868578	-489.867634	-489.907868	28.721	
N	 0.026849597	 1.3698685227	 0.1483306967	-0.587475
C	-0.0368032815	-0.0074050745	 0.0507840975	 0.131853
C	-1.1728327204	-0.7504713259	 0.0250517026	 0.025384
O	-1.2070787531	-2.0958453311	-0.0180776125	-0.222885
N	-0.0448681946	-2.8267404925	-0.0263703164	-0.187062
C	 1.0748384126	-2.1713254304	-0.0066712429	 0.332142
O	 2.2078735393	-2.885347608	-0.0233063061	-0.378051
C	 1.2369475095	-0.7072248894	 0.0196349017	 0.286957
O	 2.3194241878	-0.1368441437	 0.0059246359	-0.375589
H	 0.9537956264	 1.7090416352	-0.0787961834	 0.270003
H	-0.7171623665	 1.8959113508	-0.2833271712	 0.253214
H	-2.1785879901	-0.3471260553	 0.03655128	 0.140685
H	 1.9613987736	-3.8215949879	-0.0495524518	 0.310824
104.0629	242.39	293.5302	318.6572	321.3721	355.4996	458.4754	473.9117	508.7294	550.2033	569.0847	584.3124	636.0498	694.7647	801.629	859.7277	878.1302	979.2746	1044.319	1160.4885	1224.8437	1247.1153	1345.7683	1433.5848	1485.0399	1603.6617	1619.468	1674.8058	1735.5571	3207.2364	3544.3137	3665.4729	3755.6646
NC1=CON=C(O)C1=O	Nc1conc(O)c1=O	
InChI=1S/C4H4N2O3/c5-2-1-9-6-4(8)3(2)7/h1H,5H2,(H,6,8)	InChI=1S/C4H4N2O3/c5-2-1-9-6-4(8)3(2)7/h1H,5H2,(H,6,8)
