17
gdb 95745	2.89958	1.16692	0.87105	3.9815	77.65	-0.2405	-0.0453	0.1952	1276.758	0.137708	-418.019378	-418.010965	-418.01002	-418.052529	31.4	
O	-0.0623891005	 1.4461610437	 0.0357389213	-0.420936
C	 0.0247000149	 0.0275472383	 0.0026181329	 0.066441
C	-1.4108231152	-0.5176561032	 0.0294560801	-0.185317
N	-1.4851106055	-1.9379159686	-0.2923510769	-0.290855
C	-0.9573598379	-2.2523261714	-1.6121561371	-0.261404
C	 0.3023533514	-1.4742346104	-1.9807539555	 0.142127
C	 0.7414734035	-0.4504271088	-1.2364100198	-0.155587
C	 0.9761110083	-1.8634018235	-3.1780529828	 0.218646
N	 1.4926568315	-2.2211391703	-4.1516603531	-0.330866
H	 0.8220312777	 1.8090295734	 0.1497336346	 0.288912
H	 0.56449193	-0.341114109	 0.8928357385	 0.080171
H	-1.8615073647	-0.3398399352	 1.0092561282	 0.115553
H	-1.9962435543	 0.0455553894	-0.7068241989	 0.127333
H	-0.9916941423	-2.47742349	 0.4111979966	 0.224927
H	-0.7595246362	-3.3271656929	-1.6724926583	 0.132473
H	-1.7238191445	-2.0413621671	-2.3720243532	 0.139254
H	 1.6371021838	 0.0913030055	-1.5308691565	 0.10913
103.1034	121.9117	153.5378	239.8825	273.8841	316.4288	362.129	418.0108	461.5388	541.7384	551.8547	576.1471	616.3004	753.0667	870.3055	890.2945	919.9933	957.442	983.7643	1050.3834	1087.2914	1098.6185	1148.1635	1169.5675	1195.2924	1265.4769	1317.0156	1327.6249	1343.6698	1361.419	1388.8694	1420.6387	1475.0439	1488.0862	1498.2035	1695.0112	2331.7724	2938.8764	3008.0413	3046.494	3077.3687	3102.9714	3161.3779	3522.7341	3815.3613
OC1CNCC(=C1)C#N	O[C@H]1CNCC(=C1)C#N	
InChI=1S/C6H8N2O/c7-2-5-1-6(9)4-8-3-5/h1,6,8-9H,3-4H2	InChI=1S/C6H8N2O/c7-2-5-1-6(9)4-8-3-5/h1,6,8-9H,3-4H2/t6-/m1/s1
