21
gdb 95282	2.0237	1.90716	1.42804	2.5727	76.76	-0.2439	0.068	0.3119	1041.3838	0.183745	-424.233016	-424.224718	-424.223773	-424.265384	33.218	
C	-0.3305780509	 1.3953176255	 0.0068369053	-0.471151
C	 0.0665775143	-0.0627952366	-0.0098679869	 0.414648
O	-1.0832818176	-0.9355709946	 0.2352943066	-0.346621
C	-0.4419852631	-1.5222554129	 1.3922507923	-0.085842
C	 0.8457582699	-0.7046274446	 1.1721259883	-0.113831
C	 2.0257472238	-1.467390083	 0.5488627606	-0.236057
C	 1.5653978392	-1.7824928582	-0.8861574019	-0.25497
C	 0.7554499359	-0.5378356738	-1.3090609933	 0.121612
O	-0.1828456682	-0.7559161615	-2.3384443863	-0.447658
H	 0.5556738735	 2.0360421639	-0.0565727603	 0.115489
H	-0.9712934869	 1.6132169093	-0.8537453177	 0.137203
H	-0.8777749228	 1.6453594405	 0.9201216736	 0.117138
H	-0.9948197534	-1.2921640637	 2.3107520509	 0.103596
H	-0.3416650184	-2.6111608836	 1.301655179	 0.100651
H	 1.1281822673	-0.0536850767	 2.000643108	 0.072798
H	 2.9094834838	-0.8185331867	 0.530047538	 0.102139
H	 2.2980742258	-2.361497235	 1.1188885956	 0.100414
H	 2.3894343358	-1.9989851888	-1.5699823454	 0.100881
H	 0.8982473191	-2.6523241793	-0.8977520539	 0.103872
H	 1.4349000109	 0.2453986089	-1.6676345536	 0.079868
H	-0.9162128281	-1.2236727489	-1.9137758189	 0.285821
103.0301	200.2524	228.1183	242.1161	266.4905	305.7589	369.6856	421.5566	508.8477	535.179	572.9523	593.2241	666.4214	802.7876	843.5201	865.9967	894.2913	902.8009	958.3261	959.1769	1004.3723	1015.9539	1065.0011	1070.8822	1109.6919	1117.7966	1161.7007	1166.7222	1179.7457	1219.8854	1236.174	1250.6672	1300.808	1312.7139	1329.2961	1341.2893	1357.3922	1376.863	1404.6617	1444.0719	1481.3503	1487.915	1491.2563	1497.0455	1525.8196	3013.7499	3031.2834	3034.566	3036.7866	3046.837	3056.5718	3080.0839	3099.9999	3104.9899	3106.9757	3114.8437	3738.2266
CC12OCC1CCC2O	C[C@]12OC[C@H]1CC[C@H]2O	
InChI=1S/C7H12O2/c1-7-5(4-9-7)2-3-6(7)8/h5-6,8H,2-4H2,1H3	InChI=1S/C7H12O2/c1-7-5(4-9-7)2-3-6(7)8/h5-6,8H,2-4H2,1H3/t5-,6-,7+/m1/s1
