17
gdb 95935	2.20545	1.52778	1.2325	1.6076	70.1	-0.247	0.0154	0.2624	1077.1379	0.134341	-458.918259	-458.909329	-458.908385	-458.952148	33.565	
O	 0.2127562169	 1.2558817608	-0.3968284987	-0.429986
C	 0.1076061128	-0.0733245667	 0.0285896068	 0.074562
C	 0.5738369474	-0.3394914669	 1.4712445463	-0.1224
O	-0.1033752022	-1.5228149615	 1.8531903588	-0.241038
C	-1.4388280058	-1.3761498759	 1.4098388861	-0.109594
C	-1.3915611738	-0.5844275991	 0.0700364725	 0.153879
O	-2.2699056731	 0.5421176542	 0.200694204	-0.463577
C	-1.7446274625	-1.3789998677	-1.0974764501	 0.281861
C	-2.0370695045	-2.0080431945	-2.0798332046	-0.481026
H	-0.5316620633	 1.7200604595	 0.0116935692	 0.282087
H	 0.6813511975	-0.6864334094	-0.6698071987	 0.109421
H	 1.6478258776	-0.5129761877	 1.5612438258	 0.118401
H	 0.2959735484	 0.5158223987	 2.1107987646	 0.089996
H	-1.8795113258	-2.3687822972	 1.3107816485	 0.125149
H	-2.0364047709	-0.7789329452	 2.1143623016	 0.110473
H	-2.5429189033	 0.7994720755	-0.6872393946	 0.295126
H	-2.2924001456	-2.573481347	-2.9422085376	 0.206666
41.3082	144.1708	167.2617	190.0528	253.1974	314.0558	366.8504	399.4134	466.9005	515.9313	549.502	580.3646	593.5823	617.432	661.6473	677.0153	738.378	932.7701	967.5196	971.7471	1033.3276	1058.9966	1080.4022	1115.5671	1137.9237	1158.8334	1218.9845	1267.3035	1278.2816	1322.4062	1351.9338	1379.9861	1390.3594	1441.8842	1496.4142	1511.815	2230.6771	2963.9435	3000.2035	3091.7373	3115.797	3124.4685	3498.0976	3740.7323	3809.6661
OC1COCC1(O)C#C	O[C@H]1COC[C@]1(O)C#C	
InChI=1S/C6H8O3/c1-2-6(8)4-9-3-5(6)7/h1,5,7-8H,3-4H2	InChI=1S/C6H8O3/c1-2-6(8)4-9-3-5(6)7/h1,5,7-8H,3-4H2/t5-,6+/m0/s1
