14
gdb 43525	2.55036	1.41161	1.00964	2.0881	68.67	-0.2532	-0.0474	0.2058	1124.9907	0.099548	-436.706106	-436.697872	-436.696928	-436.739984	29.977	
O	 0.0194402932	-0.0316553908	 0.0120206532	-0.360666
C	-0.0384744567	 1.1746006482	 0.0292732169	 0.414884
C	-1.2958215158	 2.0406674561	 0.0153093387	-0.4583
C	-0.8023951861	 3.474490918	 0.0749974769	 0.400788
O	-1.4466319159	 4.4763692873	 0.1838875254	-0.28125
C	 0.7618050437	 3.4457969255	-0.0053875531	-0.280187
N	 1.041830952	 2.0225965979	 0.0758009837	-0.300847
C	 1.2540133742	 4.081277892	-1.2234639123	 0.346496
C	 1.6600290362	 4.5928608161	-2.2315649054	-0.447945
H	-1.8689819089	 1.8666401999	-0.9014298959	 0.17549
H	-1.9560010073	 1.8083120667	 0.8552538494	 0.170722
H	 1.1446341936	 3.9865650493	 0.8710063801	 0.143373
H	 1.9753764105	 1.6501616508	-0.0104140527	 0.26435
H	 2.0170193173	 5.0501800032	-3.121654145	 0.213094
41.9802	74.3007	132.8775	238.7441	362.8379	404.1413	453.7301	483.5163	511.2973	567.8294	589.7049	627.387	640.4879	673.0882	712.8549	777.3344	875.4218	950.7612	991.4858	1091.8574	1123.771	1140.3777	1218.4901	1239.5275	1299.9697	1353.6359	1410.5785	1422.6366	1835.6247	1883.4076	2238.5156	3013.1735	3068.9742	3114.0667	3500.6733	3631.4896
O=C1CC(=O)C(N1)C#C	O=C1CC(=O)[C@@H](N1)C#C	
InChI=1S/C6H5NO2/c1-2-4-5(8)3-6(9)7-4/h1,4H,3H2,(H,7,9)	InChI=1S/C6H5NO2/c1-2-4-5(8)3-6(9)7-4/h1,4H,3H2,(H,7,9)/t4-/m0/s1
