17
gdb 58749	2.62485	1.49042	1.15521	1.6368	68.83	-0.2556	-0.0158	0.2397	1083.3299	0.133456	-458.905043	-458.896359	-458.895415	-458.938591	32.263	
C	 0.0123937405	 1.5407923522	 0.0238701862	-0.417327
C	 0.045500982	 0.0108946723	 0.0098909252	-0.018223
O	 0.7072634053	-0.5315136694	 1.1454201612	-0.424863
C	-1.3390359565	-0.5640280803	-0.105780845	 0.273221
C	-1.8306919812	-2.0328594767	-0.0519020715	-0.273099
C	-3.0914641996	-1.1619730048	 0.1436182824	-0.074368
O	-2.2920087255	-0.2669836017	 1.0231430259	-0.347935
C	-2.5788920806	-0.2400263132	-0.994845741	 0.440929
O	-2.9316805287	 0.4352387748	-1.9036274275	-0.316489
H	 1.0267159602	 1.9310545603	 0.1334567835	 0.126917
H	-0.4224449184	 1.9273641783	-0.9031407741	 0.139754
H	-0.5974279707	 1.9014594276	 0.8584998148	 0.130292
H	 0.6221747023	-0.3383259306	-0.8552340302	 0.107948
H	 0.1653007622	-0.3186408188	 1.914666914	 0.28915
H	-1.7463395538	-2.6466389896	-0.9522412104	 0.116255
H	-1.5192183776	-2.5488140844	 0.8566815846	 0.128683
H	-4.0897725099	-1.432600756	 0.478801272	 0.119155
61.6553	119.829	181.1328	192.5868	249.8701	285.1317	353.5012	360.8268	485.2982	517.9943	551.5002	635.101	733.0294	773.2226	807.9305	837.7826	898.9934	911.5584	939.683	977.1604	1030.4163	1046.5419	1087.9204	1116.2029	1126.0635	1175.9899	1197.5224	1213.0281	1280.5601	1314.1591	1375.0925	1404.2534	1425.1041	1477.4416	1490.0929	1499.014	1930.7056	3041.2863	3046.8614	3070.4074	3114.3073	3132.1766	3157.458	3161.7408	3792.3772
CC(O)C12CC(O1)C2=O	C[C@@H](O)[C@@]12C[C@@H](O1)C2=O	
InChI=1S/C6H8O3/c1-3(7)6-2-4(9-6)5(6)8/h3-4,7H,2H2,1H3	InChI=1S/C6H8O3/c1-3(7)6-2-4(9-6)5(6)8/h3-4,7H,2H2,1H3/t3-,4-,6-/m1/s1
