19
gdb 36551	8.04673	0.48533	0.47421	0.9659	94.24	-0.2325	0.0429	0.2753	2288.0171	0.157161	-348.684258	-348.674214	-348.673269	-348.72175	35.621	
C	-0.0115899166	-1.1786728489	 0.1567070882	-0.441243
C	 0.0271718597	 0.0200338699	 0.2379121437	 0.294567
C	 0.1111758462	 1.4725036788	 0.3138567219	-0.336981
C	 1.3660379818	 2.0301025734	-0.4114217027	-0.348664
C	 1.4553917165	 3.4826118617	-0.3366680672	 0.014586
C	 1.4998477342	 4.6850948676	-0.2558037202	 0.128669
C	 1.560796015	 6.1157914081	-0.1736878536	-0.156458
C	 1.5200388825	 6.8095839417	 1.1795354538	-0.251792
C	 2.7958579263	 6.8005851531	 0.391682647	-0.250932
H	-0.0607705198	-2.2373740402	 0.0940116037	 0.195164
H	-0.7845529092	 1.9249256273	-0.1267020512	 0.140837
H	 0.133618567	 1.7935087555	 1.3615688558	 0.13945
H	 2.2598977582	 1.5712888583	 0.027589231	 0.138309
H	 1.3415012275	 1.705264735	-1.4583597877	 0.139344
H	 1.0642523529	 6.6423767095	-0.9838373114	 0.108462
H	 0.9567339941	 7.7334827722	 1.2468311912	 0.117807
H	 1.4569548572	 6.1747200942	 2.0551244716	 0.124848
H	 3.6008273759	 6.1599280018	 0.7311189243	 0.125995
H	 3.1173158706	 7.7182827108	-0.0878474882	 0.118032
13.4081	51.0672	64.2738	132.7208	160.0284	207.5593	304.8207	357.1335	415.1899	468.485	514.8777	540.5228	618.8906	646.9628	708.2815	762.6312	796.3015	821.5002	896.0183	908.9707	963.1119	1005.3972	1032.5148	1060.1004	1062.2787	1079.1095	1118.9201	1183.2633	1192.8468	1201.3774	1230.2481	1283.0876	1303.9864	1363.2053	1393.8672	1466.5393	1470.4399	1481.1803	1496.994	2238.6702	2361.0138	3029.6732	3041.0207	3057.145	3080.2353	3140.2445	3141.2665	3146.4008	3224.7855	3239.9257	3507.2254
C#CCCC#CC1CC1	C#CCCC#CC1CC1	
InChI=1S/C9H10/c1-2-3-4-5-6-9-7-8-9/h1,9H,3-4,7-8H2	InChI=1S/C9H10/c1-2-3-4-5-6-9-7-8-9/h1,9H,3-4,7-8H2
