20
gdb 107283	3.42242	1.28214	1.14007	3.2544	78.25	-0.2237	0.0635	0.2873	1154.0499	0.171501	-403.071405	-403.063349	-403.062405	-403.104047	31.544	
C	 0.1068484536	 1.4865203502	 0.2809494733	-0.374132
C	 0.0405431396	 0.0105795079	-0.1379838145	-0.316739
C	-1.3596905406	-0.5274247439	-0.1634113442	 0.355074
N	-2.0998386106	-0.87326948	 1.0682610425	-0.361999
C	-1.9091908808	-1.9100213327	 0.0216004837	-0.15263
C	-2.9731580109	-1.6567225265	-1.0761152589	 0.130844
O	-4.2638286578	-1.1909705379	-0.6514457898	-0.289366
C	-3.8502108479	 0.1958596368	-0.7789764467	-0.087901
C	-2.4357561577	-0.2207154325	-1.2454889392	-0.144052
H	 1.1388623229	 1.8494842121	 0.276412327	 0.115284
H	-0.4722457605	 2.1151855537	-0.4034035966	 0.123014
H	-0.3005852173	 1.629682597	 1.2865053239	 0.125957
H	 0.4897560827	-0.1090613545	-1.1324284062	 0.104298
H	 0.6440593511	-0.5999705789	 0.5468738511	 0.096284
H	-1.4068796123	-1.0644676599	 1.7921977444	 0.225574
H	-1.4098383551	-2.8417790756	 0.2634553767	 0.087291
H	-3.01396343	-2.3998172348	-1.8769265581	 0.075615
H	-4.4430535387	 0.7108694711	-1.5444207366	 0.092383
H	-3.9091453988	 0.7286542558	 0.1734992791	 0.117309
H	-2.0626054609	 0.1545499725	-2.1972676508	 0.077892
88.8112	119.1334	194.4811	241.6258	297.0245	340.761	361.7355	473.3542	586.6306	655.3786	695.5888	774.2245	814.7799	827.2876	871.7351	888.5296	914.7533	942.4345	958.6017	974.7089	999.1563	1016.0529	1036.5546	1047.4885	1099.6469	1105.2592	1125.2477	1163.7049	1187.1085	1214.0907	1242.3289	1247.9509	1286.7586	1318.5171	1338.0863	1351.8573	1370.6875	1409.6779	1438.0935	1478.2523	1497.5093	1499.751	1507.2126	3013.6497	3025.0599	3037.8064	3047.3989	3074.668	3097.5552	3106.9023	3112.1087	3125.1439	3172.367	3464.8221
CCC12NC1C1OCC21	CC[C@]12N[C@H]1[C@H]1OC[C@@H]21	
InChI=1S/C7H11NO/c1-2-7-4-3-9-5(4)6(7)8-7/h4-6,8H,2-3H2,1H3	InChI=1S/C7H11NO/c1-2-7-4-3-9-5(4)6(7)8-7/h4-6,8H,2-3H2,1H3/t4-,5+,6+,7-/m1/s1
