27
gdb 57529	3.10156	0.86378	0.81864	0.0707	96.19	-0.2794	0.0724	0.3518	1622.5357	0.250739	-353.560472	-353.549671	-353.548727	-353.596386	41.435	
C	-0.105910911	 1.5638645855	 0.1424021601	-0.401001
C	-0.040268178	 0.0273382401	 0.0580708729	 0.264594
C	 0.5885202486	-0.5294251004	 1.3485167183	-0.395653
C	-1.4739395206	-0.5219727752	-0.0725988672	-0.401071
C	 0.7546523783	-0.4226233609	-1.1951293102	-0.213671
C	 2.2216282815	-0.015588375	-1.3109934575	 0.041606
C	 3.3361547752	-0.7893246253	-0.5406357899	-0.212494
C	 4.2352557862	-0.6804708287	-1.7996546298	-0.220384
C	 2.9597727716	-0.3845605067	-2.6315793005	-0.226431
H	 0.8830778785	 2.0084681933	 0.2903535679	 0.110923
H	-0.5341947795	 1.9931817275	-0.77046755	 0.105766
H	-0.7335552218	 1.8779887588	 0.9836817059	 0.106258
H	-0.022218481	-0.2670422678	 2.2197271586	 0.103284
H	 0.6652606717	-1.6218264435	 1.3138742176	 0.104925
H	 1.5918579706	-0.1280811907	 1.5163243199	 0.114634
H	-1.9633018403	-0.1434583894	-0.9770010642	 0.105915
H	-1.4749812633	-1.6164803875	-0.126289682	 0.106004
H	-2.0876481804	-0.2293333068	 0.786585687	 0.104592
H	 0.6945962381	-1.5182091158	-1.2700806333	 0.080428
H	 0.2288267142	-0.0350931074	-2.0801587343	 0.086472
H	 2.3363722708	 1.0591657234	-1.1312859328	 0.068523
H	 3.7124791064	-0.361940943	 0.3922392841	 0.092614
H	 3.0366813415	-1.8251663576	-0.3486881077	 0.0961
H	 4.8973553174	 0.1891136674	-1.7505030215	 0.099048
H	 4.832382164	-1.5527915337	-2.0760149242	 0.093189
H	 2.5456549033	-1.2995445429	-3.0692808664	 0.094905
H	 3.017448328	 0.3767401824	-3.4142031409	 0.090927
35.7725	92.2223	130.0056	180.343	216.3892	257.9942	263.1393	279.1327	301.8886	329.4684	376.7663	407.5639	438.6851	478.4663	643.1362	739.2038	774.2534	789.6595	860.1149	897.7002	915.3712	932.611	935.6981	937.2752	955.1724	956.6887	983.2112	1011.2829	1032.1331	1071.3069	1110.2363	1130.5868	1193.8016	1211.3717	1226.8907	1253.0728	1256.0459	1263.5371	1271.4112	1280.0122	1290.5517	1318.3281	1351.2462	1392.3645	1396.6458	1398.0267	1429.7017	1471.5887	1477.9221	1479.3417	1484.9979	1486.1309	1487.1405	1504.8739	1507.2033	1509.6957	1517.6763	2989.8004	3018.9676	3021.5444	3023.1557	3031.0293	3040.5764	3042.9271	3048.8366	3055.0808	3085.919	3086.8153	3090.0609	3091.6361	3094.2005	3096.2306	3099.008	3109.1893	3113.8562
CC(C)(C)CC1CCC1	CC(C)(C)CC1CCC1	
InChI=1S/C9H18/c1-9(2,3)7-8-5-4-6-8/h8H,4-7H2,1-3H3	InChI=1S/C9H18/c1-9(2,3)7-8-5-4-6-8/h8H,4-7H2,1-3H3
