17
gdb 76166	2.1581	1.45001	1.21238	3.0487	70.66	-0.2563	0.0225	0.2788	1105.2528	0.132965	-455.126985	-455.116785	-455.115841	-455.161411	37.027	
C	-0.0634531637	 1.554141891	-0.0250799415	-0.455043
C	 0.0445378337	 0.0499271206	-0.05704359	 0.328637
O	-1.0699373875	-0.6339648134	-0.5422098778	-0.442318
C	 1.3215155902	-0.618355178	-0.4183589635	 0.051137
O	 2.3915780356	 0.1856114349	-0.7634995766	-0.40808
C	 0.8483272741	-0.6691333382	 1.0625021581	-0.019853
N	 1.5668055594	 0.1408776238	 2.0081506804	-0.552982
C	 0.3146880354	-1.9254682686	 1.5329048094	 0.247684
N	-0.0972747035	-2.9154321624	 1.9712907764	-0.351839
H	 0.866428956	 2.0045906085	 0.319127323	 0.159928
H	-0.2892518188	 1.9191365118	-1.0311941739	 0.137576
H	-0.8762461845	 1.8665902789	 0.6410256875	 0.108358
H	-1.7909304563	-0.541440971	 0.0918419987	 0.291466
H	 1.2192638591	-1.557600055	-0.9598445128	 0.121018
H	 3.207873938	-0.2398914789	-0.4808639379	 0.29628
H	 0.9660358933	 0.4140349486	 2.7795431597	 0.245817
H	 2.3452608894	-0.3749977827	 2.4067436208	 0.242216
110.5565	134.0291	151.5265	169.5144	209.9522	212.9892	265.764	290.1627	307.5171	334.9889	382.3291	428.3361	463.8679	550.8446	581.7731	630.1933	688.0221	726.7622	818.3663	873.213	991.9936	1041.5379	1075.1669	1099.9836	1160.2942	1213.7002	1240.5222	1271.3465	1283.9063	1313.1123	1367.06	1409.0936	1466.2007	1486.9528	1513.9665	1667.1785	2329.3654	3037.1124	3103.7179	3124.2088	3167.6644	3497.4284	3571.4475	3789.5926	3811.5731
CC1(O)C(O)C1(N)C#N	C[C@@]1(O)[C@@H](O)[C@]1(N)C#N	
InChI=1S/C5H8N2O2/c1-4(9)3(8)5(4,7)2-6/h3,8-9H,7H2,1H3	InChI=1S/C5H8N2O2/c1-4(9)3(8)5(4,7)2-6/h3,8-9H,7H2,1H3/t3-,4-,5-/m1/s1
