18
gdb 78952	2.47842	2.15549	1.57726	2.1956	73.26	-0.2277	0.0639	0.2916	904.4885	0.148303	-401.859724	-401.852521	-401.851576	-401.890857	29.518	
C	-0.0016565152	 1.4938133864	 0.027321726	-0.509446
C	 0.0388022914	-0.0052199387	-0.042382554	 0.308107
C	-1.1725073831	-0.8429321397	 0.4137441627	-0.164731
C	-0.5466542939	-2.2597113509	 0.370893547	-0.117452
C	-0.3940602978	-1.3813106831	 1.5735171731	-0.021907
N	 0.8875225089	-0.7986273098	 0.9906718828	-0.22441
C	 0.8655845494	-1.8895099603	-0.1040549183	-0.063006
C	 0.731491219	-0.7951017631	-1.1780225818	 0.108458
O	 0.067875522	-1.0437905026	-2.3841383606	-0.440717
H	 1.002847234	 1.9125101561	-0.085710233	 0.127622
H	-0.6340333458	 1.8953386595	-0.7729301128	 0.123778
H	-0.4084727531	 1.834234272	 0.9853146482	 0.123254
H	-2.2350485191	-0.6598088519	 0.3157854044	 0.091167
H	-1.1293942539	-3.1622311234	 0.2405542531	 0.094651
H	-0.6145200645	-1.5118621523	 2.6252068762	 0.098942
H	 1.6535802667	-2.6418534298	-0.1063011864	 0.076374
H	 1.7036254225	-0.3560571646	-1.4200110884	 0.102968
H	-0.7827631974	-1.4425332338	-2.1654366982	 0.286348
178.3596	195.9209	233.8234	286.8801	309.9062	386.276	565.4663	589.2706	649.0466	758.255	771.0762	793.3414	797.9577	825.7838	839.8429	857.0674	909.9466	918.6665	956.824	995.0192	1012.1759	1023.8363	1043.5758	1046.944	1111.6982	1125.7866	1155.4978	1179.6738	1206.2801	1212.1138	1254.9362	1277.7501	1303.6717	1329.3627	1364.3677	1410.7734	1432.2722	1482.8976	1489.8544	3029.7752	3084.6197	3096.8442	3108.7342	3122.2769	3186.0331	3191.3568	3206.6196	3789.1011
CC12C3C4C3N1C4C2O	C[C@]12[C@H]3[C@@H]4[C@H]3N1[C@@H]4[C@H]2O	
InChI=1S/C7H9NO/c1-7-3-2-4(3)8(7)5(2)6(7)9/h2-6,9H,1H3	InChI=1S/C7H9NO/c1-7-3-2-4(3)8(7)5(2)6(7)9/h2-6,9H,1H3/t2-,3+,4-,5+,6-,7-/m1/s1
