19
gdb 90736	2.57461	1.56757	1.3249	4.4245	73.91	-0.2583	0.0113	0.2696	1046.1242	0.161072	-423.066068	-423.058251	-423.057306	-423.098653	30.192	
C	-0.5393959065	 1.4418947388	-0.117871442	-0.415937
C	-0.0722200214	-0.0073194769	-0.0425652315	 0.01969
C	 1.1535832144	-0.3771865549	-0.936524203	-0.245045
C	 1.9964362148	-0.6391862394	 0.3444021199	-0.168745
C	 0.7407013266	-0.4536725314	 1.2269253668	-0.05758
C	 1.1565004022	 0.5995932151	 2.2571290588	-0.100924
O	 2.3351026944	 1.2416507685	 1.7383484237	-0.22361
C	 2.8928705894	 0.5340734339	 0.7132762567	 0.431718
O	 3.9251006238	 0.8623353924	 0.2040715802	-0.343173
H	 0.2815620279	 2.144690641	 0.0592516952	 0.135159
H	-0.947703265	 1.655405044	-1.1113235045	 0.121168
H	-1.3271605639	 1.6508741018	 0.6143002236	 0.1164
H	-0.9261543387	-0.6674698166	-0.2179195069	 0.077697
H	 1.0031663003	-1.2782471367	-1.5343618827	 0.109374
H	 1.5331617209	 0.4121845178	-1.5905073936	 0.120244
H	 2.5650631121	-1.5691533611	 0.3836237493	 0.104055
H	 0.3397968469	-1.3474906846	 1.7059744518	 0.081293
H	 0.4051103347	 1.3741437121	 2.4294205334	 0.123098
H	 1.412309997	 0.1446527163	 3.2208670948	 0.115118
63.9757	143.6447	222.5963	259.7459	270.8478	346.4113	430.8177	493.5701	590.7473	690.5935	719.2438	763.7445	776.2427	792.2457	869.8465	903.1583	935.1964	982.1022	987.7094	1019.5611	1044.636	1078.1227	1110.1608	1119.132	1167.6917	1174.0212	1208.1952	1220.4646	1255.5932	1265.0949	1282.9459	1308.9933	1326.6953	1362.3316	1398.2494	1415.2743	1489.7113	1498.3143	1500.0737	1521.6548	1875.8736	3028.9191	3039.2413	3056.8398	3066.1507	3094.1898	3097.7029	3100.1533	3104.1615	3108.3611	3121.6149
CC1CC2C1COC2=O	C[C@H]1C[C@@H]2[C@H]1COC2=O	
InChI=1S/C7H10O2/c1-4-2-5-6(4)3-9-7(5)8/h4-6H,2-3H2,1H3	InChI=1S/C7H10O2/c1-4-2-5-6(4)3-9-7(5)8/h4-6H,2-3H2,1H3/t4-,5+,6-/m0/s1
