23
gdb 111497	2.62543	1.34266	1.10777	1.6097	84.31	-0.2551	0.0667	0.3218	1226.2091	0.206613	-388.293154	-388.283842	-388.282898	-388.327146	35.977	
C	-0.08182245	 1.5355888138	-0.0879870575	-0.38912
C	 0.0040643596	 0.0065304116	-0.0483669543	-0.16467
C	 0.7761117627	-0.5392508122	 1.1588470448	-0.000543
C	 0.7723090232	-2.0598455813	 1.294310749	-0.041387
C	 1.6888725222	-2.8619474815	 0.4021780949	-0.299327
C	 2.1255088586	-2.5022411612	 1.8033829776	-0.036322
C	 2.9802533461	-1.2594116962	 2.0082262459	-0.257569
C	 2.2823688232	-0.1215983667	 1.2240600467	 0.095406
O	 2.8745713403	 0.1250814841	-0.0507043168	-0.432746
H	 0.9108741485	 1.9788453887	-0.2047392886	 0.134753
H	-0.6987569731	 1.8728582988	-0.9269800259	 0.106022
H	-0.5277902213	 1.9340659782	 0.8309309645	 0.104204
H	-1.0077158784	-0.418352207	-0.0305643421	 0.084875
H	 0.4762272939	-0.3537990404	-0.9681566438	 0.094225
H	 0.305928209	-0.1391698363	 2.069722409	 0.067485
H	-0.1406287069	-2.5346862464	 1.6387471505	 0.079662
H	 1.4229872597	-3.8986848558	 0.2242427084	 0.111802
H	 2.1459184933	-2.3909989968	-0.4625576445	 0.091199
H	 2.217131931	-3.309283642	 2.5221052688	 0.081444
H	 3.0050780715	-1.0142852647	 3.0765004895	 0.103792
H	 4.0217263925	-1.3675634715	 1.6837657545	 0.099303
H	 2.3833670824	 0.83239488	 1.7482186847	 0.085997
H	 3.145851462	-0.7120167453	-0.4363730554	 0.281514
74.6816	102.9463	138.4092	198.2311	234.8191	265.6654	302.6895	352.727	405.9305	451.4714	526.1517	619.3379	717.8425	758.2182	778.9503	816.9043	833.9756	875.0249	907.2989	933.8195	968.9811	984.5539	1011.3884	1041.6587	1050.2288	1072.353	1077.2667	1090.7155	1112.3065	1146.7241	1155.7938	1193.0205	1216.2479	1249.1242	1263.9356	1295.1	1321.2866	1322.3747	1350.1767	1363.3372	1388.3316	1399.7812	1409.2249	1439.078	1482.4338	1483.9516	1497.5834	1499.1334	1512.2482	2989.8892	3025.9094	3030.8245	3031.0237	3065.5139	3072.2412	3075.8004	3095.6618	3118.0048	3125.7197	3155.6224	3167.1995	3203.069	3842.8532
CCC1C2CC2CC1O	CC[C@H]1[C@H]2C[C@H]2C[C@H]1O	
InChI=1S/C8H14O/c1-2-6-7-3-5(7)4-8(6)9/h5-9H,2-4H2,1H3	InChI=1S/C8H14O/c1-2-6-7-3-5(7)4-8(6)9/h5-9H,2-4H2,1H3/t5-,6-,7-,8+/m0/s1
