13
gdb 123365	4.26245	1.02259	0.92917	1.7999	66.59	-0.2566	-0.0226	0.234	1218.2517	0.087737	-452.677377	-452.669468	-452.668524	-452.711316	27.944	
C	-0.7048569256	-0.5643992912	-1.0159999147	-0.46468
C	-0.2248015505	 0.3081535951	-0.3444609175	 0.334601
C	 0.3580779993	 1.3732921839	 0.4702161228	-0.318441
N	 0.4789067803	 2.6399320547	-0.2615981626	-0.356822
C	 1.4796058642	 2.7978665224	-0.9907510451	 0.562409
O	 1.7010351488	 3.9461304779	-1.7257693564	-0.189123
C	 2.8772688399	 3.7347957709	-2.3465348686	 0.108099
N	 3.4378783043	 2.6115998181	-2.1173344196	-0.107537
O	 2.5349151518	 1.9620216891	-1.2292712315	-0.247512
H	-1.1275086599	-1.3375618204	-1.608454892	 0.201268
H	-0.288776777	 1.5609401751	 1.3334268269	 0.144764
H	 1.3283357717	 1.0376236689	 0.8632783686	 0.142514
H	 3.2693426926	 4.5090638957	-2.9870477904	 0.19046
25.4035	97.472	177.4854	201.0653	295.0988	323.5862	449.6749	594.1119	612.892	615.3411	661.4154	704.856	726.6743	884.1643	889.1391	895.3126	940.9255	949.9368	1012.7691	1086.0876	1130.2012	1204.673	1272.8611	1301.045	1363.4697	1487.2579	1672.417	1830.1119	2241.1178	3005.0541	3065.5866	3287.8383	3507.0301
C#CCN=C1OC=NO1	C#CCN=c1ocno1	
InChI=1S/C5H4N2O2/c1-2-3-6-5-8-4-7-9-5/h1,4H,3H2	InChI=1S/C5H4N2O2/c1-2-3-6-5-8-4-7-9-5/h1,4H,3H2
