22
gdb 22915	1.97494	1.57495	1.03132	0.6404	84.7	-0.2381	0.0106	0.2487	1253.9571	0.19396	-404.337603	-404.328002	-404.327057	-404.371677	36.722	
C	 0.0970682086	 1.6470182272	-0.0325562026	-0.39471
C	-0.0029393053	 0.1093129229	 0.0172151181	-0.067413
C	 0.6718362035	-0.5743535902	-1.1954604138	-0.236565
C	 2.1240180233	-0.8119889808	-0.7422093839	-0.219331
C	 1.9907095583	-1.2387666104	 0.7344193894	-0.041553
C	 3.2383277759	-1.0442474247	 1.5955785141	-0.400604
C	 0.7635061226	-0.4643287837	 1.1985801741	 0.399062
N	 0.4869762317	-0.3766382704	 2.43750585	-0.240181
O	-0.709986206	 0.3387556782	 2.6575806473	-0.3958
H	 1.1349644958	 1.9761495523	-0.1488392212	 0.112497
H	-0.4742964001	 2.0335387164	-0.8828138374	 0.110978
H	-0.2996675692	 2.0868414265	 0.8838593644	 0.140514
H	-1.061174598	-0.1568502538	 0.1040754457	 0.093809
H	 0.1880040197	-1.536574703	-1.4002186787	 0.097797
H	 0.5991938896	 0.0263491292	-2.1067868683	 0.094755
H	 2.6483760708	-1.5553586639	-1.3489166638	 0.096194
H	 2.699208295	 0.120284857	-0.8051281832	 0.101227
H	 1.7202227388	-2.3056409313	 0.7520127277	 0.092014
H	 3.5523821912	 0.004964128	 1.5934379697	 0.113373
H	 3.0422158797	-1.3312707308	 2.631487696	 0.132985
H	 4.0696663022	-1.6490637768	 1.2188620296	 0.107044
H	-0.7790153281	 0.321871492	 3.6177534868	 0.303908
62.147	179.9173	182.8938	202.8601	225.6201	230.1876	280.0408	297.4881	373.639	400.8269	445.6915	516.9367	569.1669	607.8183	665.8691	765.9	815.4973	877.7654	928.0316	939.1429	962.3471	978.3835	985.7285	1021.9187	1055.3255	1091.7876	1135.8412	1153.9103	1189.5778	1216.6304	1225.7579	1285.7836	1310.8675	1322.8087	1339.8623	1343.6777	1358.4922	1395.1775	1403.9149	1411.2573	1486.8105	1491.6149	1496.5243	1499.9609	1502.7734	1509.7605	1745.7269	2985.5147	3028.9471	3035.1375	3036.6679	3038.4191	3057.3423	3086.1079	3093.0454	3100.047	3101.9372	3122.6798	3141.2493	3821.7371
CC1CCC(C)C1=NO	C[C@H]1CC[C@@H](C)C1=NO	
InChI=1S/C7H13NO/c1-5-3-4-6(2)7(5)8-9/h5-6,9H,3-4H2,1-2H3	InChI=1S/C7H13NO/c1-5-3-4-6(2)7(5)8-9/h5-6,9H,3-4H2,1-2H3/t5-,6+
