17
gdb 128179	4.15041	1.21499	0.95893	4.7991	78.05	-0.1943	0.0159	0.2101	1216.152	0.138169	-414.139164	-414.13113	-414.130186	-414.172177	29.313	
C	-0.0758965945	 1.4626826231	-0.1022115697	-0.315876
N	 0.0319971881	 0.0393220898	 0.1941222021	-0.387005
C	-1.1275795795	-0.7187142813	 0.1334189303	 0.19113
C	-1.3340330204	-2.089259828	 0.1663146212	 0.25989
C	-1.1317178278	-3.6013950543	 0.2359848289	-0.389377
C	-2.7092358919	-3.6857915279	 0.214655931	-0.163675
N	-2.6732556033	-2.2083641799	 0.1408479578	 0.098483
N	-3.3309174377	-1.0566374512	 0.1053278521	-0.197717
N	-2.3690683652	-0.1414623837	 0.0886831912	-0.26679
H	 0.9119574011	 1.9162210299	 0.0101388062	 0.112481
H	-0.4571156561	 1.6738467992	-1.1118692559	 0.116928
H	-0.7590415681	 1.9294139939	 0.6102670703	 0.153004
H	 0.8142728073	-0.4051033381	-0.2635336531	 0.234089
H	-0.6454924464	-4.0623229913	-0.6269847644	 0.130791
H	-0.67377309	-3.9794814507	 1.1527493532	 0.135091
H	-3.1531689564	-4.1553025233	-0.6650903671	 0.143205
H	-3.1767892892	-4.0625544262	 1.126102536	 0.14535
72.0343	131.2239	171.6457	197.3787	219.5266	332.732	374.3404	520.0899	548.5673	664.9427	699.6325	715.7888	751.6505	810.4086	872.3537	901.8221	1053.7881	1057.8224	1089.4082	1112.9975	1132.767	1156.6239	1178.1475	1189.9132	1206.4445	1222.0701	1272.8213	1326.1388	1373.4458	1451.5532	1460.6089	1483.4721	1486.9395	1492.2263	1517.5779	1530.4185	1641.6595	2999.4158	3069.4148	3080.2317	3090.8238	3116.1251	3134.8076	3142.6723	3594.8214
CNC1=C2CCN2N=N1	CNc1c2CCn2nn1	
InChI=1S/C5H8N4/c1-6-5-4-2-3-9(4)8-7-5/h6H,2-3H2,1H3	InChI=1S/C5H8N4/c1-6-5-4-2-3-9(4)8-7-5/h6H,2-3H2,1H3
