21
gdb 78604	3.06816	1.38882	1.1548	1.8241	82.73	-0.2496	0.0638	0.3133	1145.9966	0.181255	-387.021732	-387.012826	-387.011882	-387.054757	34.644	
C	-0.1719122302	 1.5786476438	 0.006130255	-0.424404
C	-0.0270769773	 0.0639942723	 0.0190794849	-0.044463
C	 1.2035097627	-0.5941064233	-0.6319263245	-0.049936
C	 2.1366147216	-0.287765495	 0.5913593613	-0.153589
C	 2.599690441	-1.7597732661	 0.6304244715	 0.138494
O	 3.1284496631	-2.3369287633	 1.7969284988	-0.446843
C	 1.1001043747	-1.8588820324	 0.2871707039	-0.149803
C	 0.7101622606	-0.6252459164	 1.1964536939	 0.338712
C	 0.2685789042	-0.6119876209	 2.6388474568	-0.53197
H	 0.7652993858	 2.0791856582	 0.2714324438	 0.113883
H	-0.4699387254	 1.9368554176	-0.98559949	 0.115733
H	-0.9393716634	 1.9088757148	 0.7155213288	 0.113255
H	-0.9788287008	-0.417912559	-0.2439829737	 0.057452
H	 1.5150557373	-0.5991656062	-1.6775656252	 0.067794
H	 2.7195644864	 0.6194391975	 0.7567447125	 0.069608
H	 3.2806619892	-2.0506663746	-0.1762158136	 0.080413
H	 2.5437923842	-2.1356398365	 2.5332472329	 0.279506
H	 0.4799169217	-2.7376049575	 0.0973395183	 0.065766
H	 0.9592755018	-1.134040717	 3.3106572691	 0.106543
H	 0.1820441661	 0.4167290061	 3.006909517	 0.127997
H	-0.7132538633	-1.0866244822	 2.7483435285	 0.125853
113.886	173.8307	182.5543	208.3954	213.709	232.8061	312.3597	348.4553	408.6257	508.9802	565.1205	640.1071	717.5361	745.7967	834.7955	846.7096	848.9653	877.6344	913.4428	926.0281	994.048	1032.7637	1045.495	1071.4114	1085.6157	1105.2383	1122.4966	1125.1689	1140.064	1159.9096	1180.8625	1224.268	1236.2111	1257.9624	1283.6141	1289.8947	1331.5354	1403.7441	1410.3134	1418.5263	1449.0329	1477.2303	1493.3049	1494.7124	1501.0054	3009.0584	3022.1268	3026.5296	3059.6336	3082.1897	3087.0557	3089.4412	3090.6202	3094.7089	3100.6693	3109.4868	3836.1763
CC1C2C3C(O)C2C13C	C[C@H]1[C@H]2[C@@H]3[C@@H](O)[C@H]2[C@]13C	
InChI=1S/C8H12O/c1-3-4-5-7(9)6(4)8(3,5)2/h3-7,9H,1-2H3	InChI=1S/C8H12O/c1-3-4-5-7(9)6(4)8(3,5)2/h3-7,9H,1-2H3/t3-,4-,5+,6-,7+,8+/m0/s1
