12
gdb 131411	3.15524	1.52229	1.02686	1.5766	62.38	-0.2434	-0.0756	0.1678	1037.7342	0.078083	-505.932412	-505.925266	-505.924322	-505.964346	26.872	
O	-0.1388754544	 1.3222595086	-0.2550866865	-0.385395
C	 0.0119514382	 0.010861783	-0.0223538683	 0.48365
N	 1.2125089914	-0.4438632812	 0.1117839504	-0.224022
O	 1.3030557705	-1.8343704117	 0.355364281	-0.277741
C	 0.2019075789	-2.6340790744	 0.441896091	 0.360788
N	 0.2657836084	-3.8799600789	 0.6594574662	-0.501233
C	-1.0854038302	-1.9309679057	 0.2609446087	 0.397931
O	-2.1654806545	-2.6875776465	 0.3409382615	-0.353993
N	-1.180622813	-0.6681092819	 0.0390614001	-0.374492
H	 0.74622164	 1.7130810556	-0.2811745261	 0.317283
H	 1.238825751	-4.1783561966	 0.7561129859	 0.239857
H	-2.9296542762	-2.1048205401	 0.2050370262	 0.317367
70.7415	191.8173	303.0297	331.4001	367.4341	411.0002	497.9276	534.9573	540.32	590.1649	642.6681	696.9846	724.0401	795.7583	824.083	890.7105	945.4522	1042.106	1092.972	1215.8106	1282.636	1300.6553	1452.5379	1501.8829	1636.3145	1679.844	1735.217	3471.2537	3732.1532	3772.5709
OC1=NOC(=N)C(O)=N1	OC1=NOC(=C(O)[N]1)[NH]	
InChI=1S/C3H3N3O3/c4-1-2(7)5-3(8)6-9-1/h4H,(H2,5,6,7,8)	InChI=1S/C3H3N3O3/c4-1-2(7)5-3(8)6-9-1/h4H,(H2,5,6,7,8)
