12
gdb 27032	3.02978	1.33576	0.92705	2.5331	67.72	-0.2044	-0.0078	0.1966	1138.2098	0.076046	-472.643068	-472.634879	-472.633935	-472.675821	29.806	
O	 0.1399405317	 1.3483374781	 0.0064812994	-0.406866
C	-0.0104948527	 0.0268210531	 0.0009346631	 0.306614
C	-1.1280829954	-0.732851794	 0.0032291113	 0.056182
N	-0.6356398739	-2.0698165167	-0.0062239811	-0.455156
C	 0.7229875895	-2.100551745	-0.0136334105	 0.490219
O	 1.5068627188	-3.0043900921	-0.0222565168	-0.387554
O	 1.1114729761	-0.7386592833	-0.0089974074	-0.242943
C	-2.4857156131	-0.394640115	 0.0123312702	 0.283578
C	-3.6637613233	-0.1391194054	 0.0200762366	-0.448318
H	 1.0844751636	 1.5480987843	 0.0039698826	 0.321908
H	-1.2009519558	-2.90031934	-0.0069919219	 0.283349
H	-4.6974366755	 0.103302616	 0.0269426145	 0.198987
115.9025	131.2116	191.2367	220.6499	280.0257	330.0438	391.4977	442.8556	464.1712	516.0882	556.5144	628.8288	675.793	681.1913	704.5419	748.448	834.5215	896.2984	1063.7361	1210.9908	1242.7796	1293.3211	1385.3414	1450.2518	1762.9293	1925.7609	2227.712	3500.7003	3697.4924	3809.5405
OC1=C(NC(=O)O1)C#C	Oc1c([nH]c(=O)o1)C#C	
InChI=1S/C5H3NO3/c1-2-3-4(7)9-5(8)6-3/h1,7H,(H,6,8)	InChI=1S/C5H3NO3/c1-2-3-4(7)9-5(8)6-3/h1,7H,(H,6,8)
