19
gdb 71574	3.2144	1.48794	1.45792	1.0053	74.19	-0.2236	0.0768	0.3004	996.6721	0.159365	-422.992367	-422.984796	-422.983852	-423.023699	31.413	
C	 0.0657005468	 1.4753825553	-0.0720099995	-0.501987
C	 0.0045091358	-0.0194301742	 0.0429304588	 0.418851
C	-1.3205291181	-0.7862126389	-0.1538176216	-0.318009
C	-0.7453094975	-2.1189974714	 0.3771634776	 0.378671
O	-1.3814126057	-3.3219760384	 0.1025952655	-0.48689
C	-0.4457964481	-1.7697988832	 1.8498860703	-0.291882
C	 0.6306019978	-0.8512643419	 1.2468190878	-0.120453
C	 0.8038792044	-1.7986338053	 0.0489047542	 0.03371
O	 0.8672540301	-0.7378666549	-0.9085129572	-0.332797
H	 1.0906479175	 1.8320272148	 0.0641553316	 0.128208
H	-0.2830365984	 1.7990933418	-1.058392006	 0.129614
H	-0.570272115	 1.9422031399	 0.6868297363	 0.122327
H	-2.161857669	-0.4261142005	 0.4443009545	 0.098885
H	-1.5927316222	-0.8042248553	-1.2131449025	 0.09455
H	-1.5558844374	-3.3643640984	-0.8439034173	 0.281469
H	-1.2578720827	-1.3439949557	 2.4456738264	 0.096735
H	 0.012297386	-2.6066242139	 2.3848487492	 0.108642
H	 1.4558373856	-0.4093492604	 1.8011750064	 0.075923
H	 1.5248517301	-2.6069054495	-0.0657197947	 0.084432
200.6691	217.0737	231.7322	290.1135	326.6035	372.0651	451.6391	476.4558	546.6399	561.1679	654.8709	688.0107	730.8781	819.6639	827.1267	862.7809	893.1679	909.4781	934.8312	970.2369	1005.3199	1017.9115	1034.0743	1088.1804	1105.2188	1122.942	1161.0624	1180.3016	1191.1617	1219.3609	1220.8391	1240.5599	1289.2621	1332.7479	1349.3993	1392.0562	1416.5351	1473.9702	1478.9375	1492.7133	1505.8198	3036.906	3052.2625	3055.8865	3106.7164	3108.9478	3113.0003	3116.0455	3130.9668	3143.4268	3805.3775
CC12CC3(O)CC1C3O2	C[C@]12C[C@]3(O)C[C@H]1[C@@H]3O2	
InChI=1S/C7H10O2/c1-6-3-7(8)2-4(6)5(7)9-6/h4-5,8H,2-3H2,1H3	InChI=1S/C7H10O2/c1-6-3-7(8)2-4(6)5(7)9-6/h4-5,8H,2-3H2,1H3/t4-,5-,6-,7+/m0/s1
