19
gdb 58380	1.77886	1.36379	0.95532	4.3563	76.98	-0.2646	0.0028	0.2674	1310.5026	0.157653	-419.245459	-419.235288	-419.234343	-419.281736	35.573	
C	 0.0978764603	 1.4245399395	-0.062019149	-0.38781
C	-0.0677529179	-0.0941650549	 0.0829838214	 0.022105
C	 0.6796438792	-0.6574914887	 1.2990699519	-0.389877
N	-1.4914798507	-0.4943853759	 0.075999894	-0.054425
C	-1.9882761693	-1.3602054269	-0.9799463365	-0.31271
C	-1.3341028136	-2.6765961603	-0.9846920999	 0.274532
N	-0.7939630167	-3.697941317	-0.9935026341	-0.310287
C	-2.3758096706	-0.0926349446	 1.0369989328	 0.160902
O	-3.5513014037	-0.3934865283	 1.0755728322	-0.338569
H	 1.1565382196	 1.6759611094	-0.1764737965	 0.128535
H	-0.4403588097	 1.7964664598	-0.9385087248	 0.125396
H	-0.2756115067	 1.9569449257	 0.8181092833	 0.128111
H	 0.3585265264	-0.5626170562	-0.8096567279	 0.110325
H	 1.7476735918	-0.4336382205	 1.2187206597	 0.126178
H	 0.3170747934	-0.2168362471	 2.2329933723	 0.124291
H	 0.5591630519	-1.7421034419	 1.3586884264	 0.147543
H	-3.0617242431	-1.4831694059	-0.8083798606	 0.197831
H	-1.8485031578	-0.90064427	-1.9664625976	 0.156327
H	-1.903311633	 0.5573145237	 1.7933104128	 0.091601
31.2716	57.8544	101.0668	174.8073	230.0372	232.1133	263.8303	302.2903	337.6202	345.716	378.5784	429.5092	476.9759	613.5291	636.1346	812.458	899.7596	928.7964	942.3692	949.6131	999.7078	1038.6717	1105.0326	1148.6642	1166.5541	1211.3513	1264.9695	1334.2422	1346.2356	1369.8975	1403.3003	1420.9271	1437.3322	1460.4752	1474.8002	1484.0064	1490.4278	1505.5422	1509.9382	1786.2267	2360.4226	2986.6325	3030.8888	3040.8961	3044.7549	3058.0946	3101.9222	3110.7098	3118.0406	3118.3303	3128.1985
CC(C)N(CC#N)C=O	CC(C)N(CC#N)C=O	
InChI=1S/C6H10N2O/c1-6(2)8(5-9)4-3-7/h5-6H,4H2,1-2H3	InChI=1S/C6H10N2O/c1-6(2)8(5-9)4-3-7/h5-6H,4H2,1-2H3
