19
gdb 94908	2.0896	1.76739	1.43377	3.1559	78.86	-0.25	0.0122	0.2623	1028.3177	0.161173	-382.074464	-382.066362	-382.065418	-382.106863	31.361	
C	-0.2283940243	 1.5326086673	-0.0477645797	-0.411067
C	-0.0463432062	 0.02025741	-0.0009612806	 0.065255
C	 0.5553112232	-0.6256677907	-1.2748541076	-0.26062
C	 1.3069918895	-1.8717325922	-0.7538938185	-0.240565
C	 1.5807938427	-1.561027656	 0.7118315912	-0.029486
C	 2.2450932489	-0.2630973887	 1.0676949108	-0.166265
C	 2.938424324	 0.533750756	 0.0878779288	 0.306871
N	 3.5392791159	 1.185002898	-0.6572860138	-0.359125
N	 0.773952911	-0.4248653373	 1.1574222138	-0.115243
H	 0.7172294833	 2.0460474616	-0.2417327631	 0.143638
H	-0.9258969458	 1.8013561019	-0.8471007779	 0.120343
H	-0.6355805021	 1.9005097789	 0.898153114	 0.126901
H	-1.0232112258	-0.4400465991	 0.1940443784	 0.090996
H	-0.2234785273	-0.8865323367	-1.9956109244	 0.105086
H	 1.239223615	 0.0638611089	-1.7731685778	 0.140038
H	 0.6772982947	-2.7659197115	-0.8045652247	 0.114219
H	 2.2193443025	-2.0832904052	-1.3184750649	 0.125224
H	 1.6977305178	-2.3873922232	 1.4079242658	 0.104438
H	 2.7058934931	-0.1837167619	 2.04916845	 0.139362
118.231	142.12	192.7445	234.7153	252.1048	336.0763	366.2466	464.2812	557.0974	567.2303	663.0523	698.9296	730.4931	794.156	831.3501	861.8268	894.1741	952.6557	960.3251	1001.5579	1017.2693	1064.0471	1092.0218	1119.198	1146.1326	1159.0901	1208.3995	1225.6536	1279.7039	1308.6043	1323.6331	1352.2167	1357.4342	1376.9831	1397.6528	1415.2918	1487.8937	1494.8895	1503.8864	1510.6286	2340.1856	3021.8349	3045.5092	3053.3048	3077.3279	3095.1163	3114.7081	3124.2705	3128.2206	3138.4115	3147.7171
CC1CCC2C(C#N)N12	C[C@H]1CC[C@H]2[C@@H](C#N)N12	
InChI=1S/C7H10N2/c1-5-2-3-6-7(4-8)9(5)6/h5-7H,2-3H2,1H3	InChI=1S/C7H10N2/c1-5-2-3-6-7(4-8)9(5)6/h5-7H,2-3H2,1H3/t5-,6-,7+,9?/m0/s1
