19
gdb 91782	2.38699	1.68537	1.21368	2.6455	75.39	-0.2428	-0.0229	0.2199	1077.3874	0.158981	-423.048164	-423.039579	-423.038635	-423.081142	33.136	
C	-0.5229607562	 1.3842992651	 0.1622442423	-0.409383
C	 0.0506186494	-0.0291310435	-0.0266272069	-0.091055
C	 0.8236257005	-0.2830991933	-1.3542031946	-0.253196
C	 2.2951599857	-0.484044215	-0.9835913476	-0.11019
C	 2.9485702731	 0.6579163616	-0.2546808752	-0.347297
C	 2.4183909622	-0.5277518625	 0.5311790424	 0.352163
O	 3.2926149659	-1.3229834657	 1.2469134529	-0.477662
C	 1.038969779	-0.4168548535	 1.0773468994	 0.331531
O	 0.7653425502	-0.7229587301	 2.2178264338	-0.363811
H	 0.248149651	 2.1556107739	 0.0725859262	 0.125147
H	-1.2871867533	 1.5895582149	-0.5933453724	 0.123209
H	-0.9832861165	 1.4782617849	 1.1499044996	 0.139102
H	-0.78135502	-0.7355153878	 0.0613399473	 0.11149
H	 0.4390465192	-1.1820177452	-1.8449051501	 0.111877
H	 0.6999826061	 0.5458861941	-2.0601033863	 0.105603
H	 2.916430294	-1.1272679793	-1.5957812396	 0.104997
H	 4.0326671366	 0.690277307	-0.2747325844	 0.134518
H	 2.4660100968	 1.6288760887	-0.2094904129	 0.118261
H	 2.8423089462	-1.4890595842	 2.089606436	 0.294697
74.483	147.155	211.3977	226.4102	289.5902	326.6892	348.1256	361.5339	437.6503	474.4559	560.6425	629.8729	637.0709	780.0597	817.2266	841.4411	886.8232	896.1984	927.8997	978.2493	988.775	1042.4578	1058.5678	1074.9632	1098.6952	1124.1471	1151.011	1211.5522	1238.531	1253.5498	1316.0209	1328.4796	1331.0358	1390.5945	1411.7395	1433.3154	1483.4076	1496.9725	1499.5691	1503.9075	1804.4425	3038.2623	3041.8961	3053.0542	3085.5324	3110.0817	3118.3941	3128.6113	3183.0723	3219.5303	3711.5366
CC1CC2CC2(O)C1=O	C[C@H]1C[C@H]2C[C@@]2(O)C1=O	
InChI=1S/C7H10O2/c1-4-2-5-3-7(5,9)6(4)8/h4-5,9H,2-3H2,1H3	InChI=1S/C7H10O2/c1-4-2-5-3-7(5,9)6(4)8/h4-5,9H,2-3H2,1H3/t4-,5-,7-/m0/s1
