21
gdb 56224	4.90085	0.5738	0.52182	5.0509	80.42	-0.2396	-0.0119	0.2277	2105.7228	0.177333	-424.278695	-424.26718	-424.266236	-424.319545	38.35	
C	-0.1132216494	 1.5506844423	 0.0749255128	-0.472658
C	 0.0775451816	 0.0467091394	-0.0333130773	 0.377371
O	 1.1706054194	-0.4487823561	-0.1799360142	-0.284314
C	-1.1885278392	-0.7997519654	 0.0536912523	-0.312023
C	-0.9358303461	-2.3016766821	-0.0671122263	-0.161184
C	-2.2229279525	-3.11952696	 0.0263183145	-0.312022
C	-2.0061102461	-4.6247811975	-0.0929191683	 0.377371
C	-3.251945325	-5.4905168943	-0.0010974375	-0.472658
O	-0.9070790494	-5.1031421095	-0.251325318	-0.284314
H	 0.8526443931	 2.0521904924	 0.0051768071	 0.143336
H	-0.7731839752	 1.9109082342	-0.7223794356	 0.136266
H	-0.5945381535	 1.8087042866	 1.0250165676	 0.135978
H	-1.6899518397	-0.5561200634	 1.0021495431	 0.115002
H	-1.8812415774	-0.449066375	-0.725678507	 0.114808
H	-0.4294078471	-2.516511694	-1.0121419625	 0.126826
H	-0.2368096449	-2.6223752686	 0.7102058839	 0.126824
H	-2.7467429909	-2.929720788	 0.9749173433	 0.114804
H	-2.9405204915	-2.8216175766	-0.7525693576	 0.115005
H	-3.9677370515	-5.216698093	-0.7844082063	 0.135971
H	-2.9804665751	-6.5417248393	-0.1037187078	 0.143335
H	-3.7572291096	-5.3330747219	 0.9585443338	 0.136275
7.1267	33.461	63.5797	88.9337	91.8326	117.9986	121.9176	217.9385	254.8734	390.1206	431.6445	471.2569	483.6238	581.1608	611.2699	709.6797	783.1073	793.7315	861.8783	919.3599	925.0165	952.0863	992.9501	1065.0359	1088.6079	1119.7647	1167.9476	1175.7399	1184.7293	1282.3458	1287.3856	1316.3872	1368.6292	1381.7102	1385.6227	1398.4672	1448.3439	1450.6001	1465.4808	1465.8032	1477.5711	1477.7349	1487.2242	1812.1517	1816.5719	3000.9663	3004.0764	3027.6402	3028.7958	3035.8674	3035.9945	3072.8362	3095.6546	3095.6821	3111.0594	3151.5453	3151.6062
CC(=O)CCCC(C)=O	CC(=O)CCCC(=O)C	
InChI=1S/C7H12O2/c1-6(8)4-3-5-7(2)9/h3-5H2,1-2H3	InChI=1S/C7H12O2/c1-6(8)4-3-5-7(2)9/h3-5H2,1-2H3
