17
gdb 27253	3.17803	1.54911	1.0656	1.6346	76.32	-0.1953	0.0228	0.2182	1105.8941	0.137585	-421.852871	-421.845175	-421.844231	-421.885243	28.934	
C	 0.0770483149	 1.5016676134	 0.0442759523	-0.498999
C	-0.0695747542	 0.0257439754	 0.0359456955	 0.20377
C	-1.1088484009	-0.842348262	-0.0400273698	 0.233749
O	-2.4642709042	-0.7608804286	-0.127768762	-0.291354
C	-2.9220963355	-2.1035935338	-0.4327925018	-0.095138
C	-1.7848409596	-3.1053880957	-0.0503062007	-0.381155
C	-0.6109306883	-2.1730249592	-0.0026437176	 0.174705
C	 0.7338269876	-2.059367765	 0.1022566576	-0.169235
O	 1.0816704051	-0.7383126292	 0.1263406224	-0.197606
H	 0.7100660623	 1.8524174964	-0.779319916	 0.133517
H	-0.9079461354	 1.96240716	-0.063169136	 0.14003
H	 0.5224070578	 1.8651160303	 0.9782063673	 0.133511
H	-3.850604769	-2.267833825	 0.1179472145	 0.118856
H	-3.1347979192	-2.1554439742	-1.5075453862	 0.11433
H	-1.9759922554	-3.5711117686	 0.9233381997	 0.125219
H	-1.7030986524	-3.9079116978	-0.7882230121	 0.122407
H	 1.5533862963	-2.7558610163	 0.1637806629	 0.13339
118.7928	122.663	154.4645	238.0184	297.614	323.8563	510.8037	587.146	591.9889	627.3736	686.4272	731.9257	753.8239	796.7367	848.4161	937.4981	941.7944	997.8342	1064.6258	1072.3052	1078.4148	1133.2678	1159.6313	1200.4812	1230.2948	1258.0411	1285.5855	1307.0184	1378.7134	1413.5769	1449.2507	1472.7495	1490.0231	1493.937	1515.4701	1633.4528	1730.4501	3022.6704	3029.7208	3037.8256	3069.9658	3088.5949	3111.4508	3124.1394	3273.7896
CC1=C2OCCC2=CO1	Cc1c2OCCc2co1	
InChI=1S/C7H8O2/c1-5-7-6(4-9-5)2-3-8-7/h4H,2-3H2,1H3	InChI=1S/C7H8O2/c1-5-7-6(4-9-5)2-3-8-7/h4H,2-3H2,1H3
