24
gdb 58508	2.54382	1.28131	1.18819	1.6837	87.76	-0.2276	0.0727	0.3004	1232.3951	0.216716	-368.374078	-368.364414	-368.36347	-368.40794	37.883	
C	 0.0229464685	 1.5225048529	 0.1491959877	-0.403374
C	-0.0898830023	-0.0008360785	-0.013884293	-0.015777
C	-1.5567588381	-0.455522903	-0.0098795022	-0.402607
C	 0.6858884373	-0.5227745915	-1.2426199329	 0.348289
C	 0.2006621226	 0.065510488	-2.5723451292	-0.46419
C	 2.245703041	-0.4971589562	-1.1630176301	-0.230646
N	 2.3557739214	-1.972298878	-1.4542222989	-0.128718
C	 1.6965948035	-2.6425946274	-0.3203320723	-0.254963
C	 0.8390410391	-2.0493641038	-1.3643155949	-0.073784
H	 1.0660899939	 1.8552882925	 0.1174402299	 0.113588
H	-0.5224965378	 2.056256445	-0.6360794656	 0.11696
H	-0.3969512362	 1.8386375978	 1.1095913627	 0.111578
H	 0.3854121144	-0.4501330066	 0.8678454883	 0.066693
H	-2.1268294412	 0.0015000929	-0.8255108027	 0.115732
H	-1.6361185438	-1.5430105993	-0.1106933781	 0.116725
H	-2.0455993317	-0.1716417402	 0.927799851	 0.111097
H	 0.3425765118	 1.1499094293	-2.6077837802	 0.116616
H	 0.7615802871	-0.3699141963	-3.4052894684	 0.126108
H	-0.8601847724	-0.1419010622	-2.7461501509	 0.114958
H	 2.7246328536	 0.0842152686	-1.9540449135	 0.105795
H	 2.6833596579	-0.2141606272	-0.1986712082	 0.09472
H	 1.8217689162	-3.7214168695	-0.3364695377	 0.118538
H	 1.7659924754	-2.198000723	 0.6700384625	 0.109989
H	 0.2699404899	-2.6665333944	-2.0548118933	 0.086674
66.8541	160.3311	186.6757	226.9576	239.1107	251.018	295.8643	314.648	325.597	421.2784	456.3446	459.8977	518.2649	631.5782	745.005	773.8907	825.5213	881.5613	913.0246	928.859	932.644	956.5624	968.3022	973.754	1005.5825	1056.8826	1069.6622	1104.705	1117.2196	1126.2434	1166.7751	1192.2873	1203.4656	1208.4864	1232.4553	1273.7431	1292.036	1350.8506	1357.5546	1384.1204	1398.0262	1410.8174	1424.0003	1485.7993	1487.934	1493.5027	1494.2925	1507.8837	1509.5618	1513.9349	1514.0107	3011.034	3029.36	3032.4643	3032.7276	3038.6061	3095.2647	3097.476	3098.559	3099.8014	3103.1028	3105.3695	3106.2315	3110.4514	3139.6805	3191.8854
CC(C)C1(C)CN2CC12	CC(C)[C@@]1(C)CN2C[C@@H]12	
InChI=1S/C8H15N/c1-6(2)8(3)5-9-4-7(8)9/h6-7H,4-5H2,1-3H3	InChI=1S/C8H15N/c1-6(2)8(3)5-9-4-7(8)9/h6-7H,4-5H2,1-3H3/t7-,8+,9?/m0/s1
