12
gdb 123982	3.88163	1.70796	1.19477	2.7141	60.78	-0.2533	-0.0551	0.1983	912.7114	0.079472	-468.778153	-468.772006	-468.771062	-468.808926	23.212	
C	-0.0123785684	 1.5203358362	-0.0503995116	-0.276401
N	 1.364201455	 2.0013024827	 0.1133489549	-0.250211
C	 2.3438392093	 1.2227356519	 0.2550616195	 0.125158
O	 2.3705530009	-0.1603691042	 0.2895282082	-0.229485
C	 1.1280130373	-0.6834455568	 0.143721459	 0.325192
C	-0.0088546165	 0.0318778738	-0.0165125511	 0.280219
O	-1.0171374	-0.8209563844	-0.1251880227	-0.221437
N	-0.4242040536	-2.1481555435	-0.020217419	-0.015266
N	 0.819678482	-2.0070988471	 0.1343540284	-0.197768
H	-0.635447931	 1.949030003	 0.7450754714	 0.15337
H	-0.4148927026	 1.9099531149	-0.9943038964	 0.15337
H	 3.3549366576	 1.5983009435	 0.3748405494	 0.153259
106.496	232.6597	345.3729	406.5398	488.0411	525.0851	567.0431	646.7535	658.6733	720.3917	747.6066	866.9962	945.7807	954.5101	1003.7304	1030.4426	1082.8642	1214.5324	1236.8376	1285.5913	1341.1817	1399.3713	1431.3549	1474.0131	1490.1174	1669.5675	1747.2998	3020.9575	3041.3473	3203.1061
C1N=COC2=C1ON=N2	C1N=COc2c1onn2	
InChI=1S/C4H3N3O2/c1-3-4(6-7-9-3)8-2-5-1/h2H,1H2	InChI=1S/C4H3N3O2/c1-3-4(6-7-9-3)8-2-5-1/h2H,1H2
