16
gdb 115472	3.76863	0.97142	0.81277	1.8057	68.92	-0.2661	-0.0817	0.1844	1350.7676	0.124163	-475.034538	-475.026034	-475.02509	-475.068681	29.91	
O	-0.071370198	 1.4342556026	-0.2565200818	-0.417065
C	 0.0187447452	 0.0508906527	-0.0173714721	-0.057125
C	-1.3587572119	-0.6205964203	-0.0747020949	-0.013457
C	-1.3537539737	-2.134940722	 0.2579429956	-0.135092
O	-2.2550652514	-2.2539483437	 1.3885798572	-0.238186
C	-2.6403609781	-0.9972222939	 1.6772282227	 0.319071
C	-3.5489326477	-0.791378708	 2.8453445289	 0.1047
O	-3.9585614008	-1.6795291396	 3.5440528132	-0.230773
N	-2.2307713876	-0.0279078906	 0.9576381611	-0.317831
H	-0.7537585925	 1.7696884868	 0.3379609904	 0.297771
H	 0.6687638191	-0.3687765659	-0.7933466627	 0.113642
H	 0.4788255424	-0.1722332143	 0.9605600094	 0.089766
H	-1.7969350211	-0.4109460009	-1.0569218621	 0.108996
H	-1.7337368808	-2.7666550112	-0.5471909771	 0.13372
H	-0.3707487069	-2.5036369709	 0.5698251779	 0.127082
H	-3.8039703163	 0.2752959391	 2.9947496844	 0.114781
55.4141	109.1176	121.7085	184.2843	215.6537	251.381	389.3928	432.6957	462.7784	516.7537	646.0929	730.8587	759.6775	866.2502	918.9484	944.6785	1010.394	1026.6172	1038.4773	1061.4429	1098.2614	1136.3119	1210.7141	1230.3335	1276.3792	1323.5185	1338.6504	1386.4435	1390.8255	1402.7833	1436.296	1505.7684	1519.3563	1693.1571	1823.9628	2959.7948	2960.5535	3045.7183	3051.5434	3068.9327	3113.8992	3785.4453
OCC1COC(C=O)=N1	OC[C@H]1COC(=N1)C=O	
InChI=1S/C5H7NO3/c7-1-4-3-9-5(2-8)6-4/h2,4,7H,1,3H2	InChI=1S/C5H7NO3/c7-1-4-3-9-5(2-8)6-4/h2,4,7H,1,3H2/t4-/m0/s1
