15
gdb 86653	2.93558	1.28813	0.9725	4.5373	63.06	-0.2727	-0.0519	0.2208	1173.1685	0.110283	-494.946405	-494.937935	-494.93699	-494.980515	29.602	
C	 0.0690689008	 1.5775479239	 0.1765197694	-0.403476
C	 0.0576219441	 0.0851745637	-0.0425336488	 0.224958
O	 0.9103945656	-0.2673979911	-1.1179838442	-0.267546
C	 1.5109036944	-1.5050565676	-0.810203864	-0.120283
C	 2.974200331	-1.4919022609	-1.2448592612	 0.147987
O	 3.5916587889	-2.480158434	-1.5211592384	-0.217377
C	 1.3774261849	-1.6150032624	 0.7205157805	 0.395466
O	 1.8779353039	-2.4032373408	 1.4595410067	-0.30609
O	 0.5627304896	-0.6029699472	 1.1087417194	-0.222817
H	 1.085243089	 1.9134006703	 0.3960531944	 0.13965
H	-0.2872257282	 2.0785320201	-0.7271286511	 0.143469
H	-0.587886342	 1.840375789	 1.0088422082	 0.143762
H	-0.9589275033	-0.2933433236	-0.2282369179	 0.10057
H	 1.0052439451	-2.3621757387	-1.2770636822	 0.1397
H	 3.4067359161	-0.4687075308	-1.2727811308	 0.102027
62.6216	75.7616	119.1182	206.8749	222.4827	307.6281	339.2701	428.9265	499.2011	511.1968	655.7098	696.7377	712.5266	829.9837	885.2468	943.1115	1026.2301	1049.3941	1091.9087	1103.3197	1141.1042	1154.9113	1211.4639	1250.1205	1289.947	1376.5854	1395.5196	1400.2965	1431.9576	1483.984	1484.5215	1842.9491	1908.9842	2910.1746	2996.9666	3020.5558	3057.3724	3139.5939	3144.2159
CC1OC(C=O)C(=O)O1	C[C@H]1O[C@@H](C=O)C(=O)O1	
InChI=1S/C5H6O4/c1-3-8-4(2-6)5(7)9-3/h2-4H,1H3	InChI=1S/C5H6O4/c1-3-8-4(2-6)5(7)9-3/h2-4H,1H3/t3-,4-/m0/s1
