17
gdb 34220	3.86095	1.3805	1.35695	3.8324	76.26	-0.2592	0.0317	0.2909	985.7509	0.14055	-380.880001	-380.873539	-380.872595	-380.910766	26.552	
N	 0.0649653269	-1.1078930627	-0.0553734985	-0.351943
C	 0.0338648965	 0.0492521263	-0.0261953466	 0.153015
C	-0.0301987068	 1.4700651805	 0.0310789449	 0.228993
C	-1.0584971429	 2.2459832335	 0.8838772861	-0.244922
N	-0.6570593505	 3.6329684417	 0.556213084	-0.115767
C	 0.8027123552	 3.5863259449	 0.8412393926	-0.191834
C	 1.2013956405	 2.3736476876	-0.0088209582	-0.115563
C	 0.2423019769	 2.3771232272	-1.1680307262	-0.115552
C	-0.6634305285	 3.591925564	-0.9312752939	-0.191833
H	-2.0905829188	 2.0562580136	 0.5805921949	 0.12351
H	-0.9548602911	 2.0519783618	 1.9538275985	 0.1235
H	 1.2842341463	 4.5125872942	 0.5161618377	 0.116666
H	 0.9787812849	 3.4495839698	 1.911060988	 0.118413
H	 2.2003424752	 1.9658747199	-0.0694278766	 0.11412
H	 0.4876534293	 1.9720579545	-2.1394087384	 0.11412
H	-1.6816938905	 3.4598781435	-1.3053250517	 0.118399
H	-0.2508321726	 4.5183967097	-1.3398344367	 0.116676
144.2962	162.5807	417.1643	452.614	473.1068	510.0057	537.9573	568.7412	680.0672	701.4083	808.6969	862.5352	874.1659	901.2673	922.4707	938.4131	965.4026	977.3257	1005.1394	1011.0005	1047.2942	1103.0591	1110.6209	1160.9023	1161.8814	1198.4564	1259.851	1270.9302	1277.3852	1290.1917	1292.7486	1321.4382	1408.2513	1494.1295	1495.4375	1524.4584	2347.3629	3062.5315	3065.8809	3074.8669	3113.7782	3117.2949	3127.2158	3222.5305	3231.2878
N#CC12CN3CC1C2C3	N#C[C@@]12CN3C[C@@H]1[C@@H]2C3	
InChI=1S/C7H8N2/c8-3-7-4-9-1-5(7)6(7)2-9/h5-6H,1-2,4H2	InChI=1S/C7H8N2/c8-3-7-4-9-1-5(7)6(7)2-9/h5-6H,1-2,4H2/t5-,6+,7-
