15
gdb 96698	2.8651	1.11821	0.91819	2.8651	71.02	-0.2917	-0.0675	0.2242	1297.8467	0.108957	-453.983662	-453.973765	-453.972821	-454.019808	32.802	
C	-0.3861564066	 1.8019291002	-0.2637218434	-0.345446
N	-0.7438326472	 0.4007300492	-0.195346511	-0.224306
C	 0.002266339	-0.4869746882	-0.6742499275	 0.336219
O	-0.4353611311	-1.7964066614	-0.6761147854	-0.246228
C	 0.35691769	-2.72940016	-0.033187914	 0.430194
C	-0.218018917	-4.1043734186	-0.220600888	-0.482585
O	 1.3407906104	-2.4258976011	 0.5765276142	-0.316631
C	 1.2683797791	-0.2679034319	-1.3464094583	 0.247471
N	 2.2506234232	-0.0338034013	-1.9098375327	-0.33899
H	 0.5743833206	 2.008078498	-0.7510832665	 0.144989
H	-1.1824153694	 2.3338135057	-0.794682428	 0.152163
H	-0.3657841922	 2.1973675814	 0.7568593197	 0.154672
H	-0.2189240365	-4.36231652	-1.2836763341	 0.163895
H	 0.3792691813	-4.823838078	 0.3373470536	 0.160108
H	-1.2562526237	-4.124933584	 0.1212376712	 0.164476
42.0874	71.3611	98.4392	127.2275	144.6463	166.6013	267.7894	320.2499	327.0734	355.8904	493.5191	586.5942	593.191	671.9255	706.8527	787.4795	903.0861	1013.2979	1064.4698	1082.2494	1129.9592	1150.0888	1192.0116	1236.6719	1396.6698	1438.3663	1466.7519	1472.4416	1481.7366	1498.2044	1755.4899	1858.0069	2345.3759	3019.7739	3060.0588	3097.5218	3101.3422	3126.3152	3175.7817
CN=C(OC(C)=O)C#N	CN=C(OC(=O)C)C#N	
InChI=1S/C5H6N2O2/c1-4(8)9-5(3-6)7-2/h1-2H3	InChI=1S/C5H6N2O2/c1-4(8)9-5(3-6)7-2/h1-2H3
