23
gdb 115352	2.05601	1.47475	1.20938	0.5752	81.41	-0.2545	0.0786	0.3331	1213.8048	0.205323	-425.438791	-425.428736	-425.427791	-425.474032	36.846	
C	-0.7085952766	 1.0179006456	 0.0102785928	-0.241352
O	-0.3485499958	-0.3494807036	 0.0600718144	-0.242843
C	 0.6368237358	-0.6359589539	 1.0248916493	 0.217505
O	 0.1884074583	-0.4003997214	 2.3377732058	-0.26715
C	-0.3699244915	-1.6037857981	 2.8892804445	-0.086613
C	-0.1235546836	-2.7462645342	 1.8757089778	-0.024563
C	-1.4045327405	-3.1648218199	 1.1429939351	-0.401947
C	 0.9797558749	-2.1288526417	 0.972768313	-0.019203
C	 1.1528253143	-2.7146516568	-0.4259630494	-0.414704
H	 0.1602143796	 1.6494027809	-0.231754195	 0.103672
H	-1.4556599958	 1.1259053719	-0.7792230061	 0.12265
H	-1.1310540836	 1.3573864335	 0.963148983	 0.125221
H	 1.5000761475	 0.0284741272	 0.8663460566	 0.064994
H	 0.1258714967	-1.7864061257	 3.8498779269	 0.09819
H	-1.4391682478	-1.4553965828	 3.0831877463	 0.099377
H	 0.2792218133	-3.6211682373	 2.3963347398	 0.070161
H	-1.8410561314	-2.3190029986	 0.6062955286	 0.138821
H	-1.2115603965	-3.9646361252	 0.4216411102	 0.111702
H	-2.1441632326	-3.5399023727	 1.8584755394	 0.106327
H	 1.9292702647	-2.2255450445	 1.5140295504	 0.079384
H	 0.2576026973	-2.5724954099	-1.0330361005	 0.138668
H	 1.9858327502	-2.2291553498	-0.9451649151	 0.111734
H	 1.3746676131	-3.7857097329	-0.3755590979	 0.10997
43.1709	100.7174	137.2666	185.7188	207.9514	210.1364	242.6977	273.6805	312.1518	360.4457	428.6811	505.8444	547.8568	696.1731	723.9933	788.1758	882.401	934.8918	946.2289	953.9241	977.361	1014.7173	1031.7296	1077.3239	1095.378	1117.3313	1154.6247	1164.9057	1182.0829	1186.3752	1215.7245	1249.6102	1268.8173	1329.8862	1334.2848	1373.0574	1379.2774	1397.1013	1401.4657	1410.9562	1420.3512	1475.6482	1483.6596	1489.7612	1499.1773	1502.7308	1513.5014	1515.6193	1525.8232	2985.8761	2992.0911	3019.2088	3025.1463	3036.6363	3039.8991	3046.5661	3060.7539	3062.6022	3096.4269	3099.5364	3121.8822	3129.2723	3140.1834
COC1OCC(C)C1C	CO[C@H]1OC[C@@H](C)[C@H]1C	
InChI=1S/C7H14O2/c1-5-4-9-7(8-3)6(5)2/h5-7H,4H2,1-3H3	InChI=1S/C7H14O2/c1-5-4-9-7(8-3)6(5)2/h5-7H,4H2,1-3H3/t5-,6-,7+/m1/s1
