21
gdb 61812	2.40864	1.08785	0.94928	4.0766	80.03	-0.2731	0.0115	0.2846	1359.7451	0.179859	-424.24649	-424.236372	-424.235428	-424.282056	36.791	
C	-0.382453817	 1.6016295469	 0.1582616962	-0.40154
C	-0.0956455468	 0.1122810263	 0.0030383183	 0.036878
O	 0.6165310309	-0.055952573	-1.2463627478	-0.189298
C	 0.1936372694	-0.9936911557	-2.1092012305	 0.169701
O	 0.7557645473	-1.2349090736	-3.1356140632	-0.280581
C	 0.7247030547	-0.497207789	 1.1280620192	 0.389035
C	 2.1044928329	 0.0971285083	 1.3423703528	-0.474978
C	-0.0481738115	-0.9803051701	 2.3325949645	-0.310073
C	 0.5448853059	-1.97811983	 1.367527524	-0.312534
H	 0.5430972559	 2.1817477144	 0.134548881	 0.139163
H	-1.0230601379	 1.9528273104	-0.6549337076	 0.126129
H	-0.8885615874	 1.790428503	 1.1091939961	 0.125714
H	-1.0470501402	-0.4332853454	-0.0680464145	 0.079563
H	-0.7318068236	-1.502471216	-1.7723827294	 0.071142
H	 2.051804902	 1.1423104868	 1.6651753065	 0.118575
H	 2.6454096501	-0.4574377734	 2.1146115375	 0.115139
H	 2.6921154351	 0.0556733863	 0.4204579635	 0.140836
H	 0.4143746162	-0.8667727469	 3.3070380319	 0.11691
H	-1.1270629093	-0.8609214778	 2.3412084002	 0.111485
H	-0.1355665315	-2.5311844818	 0.727844523	 0.109771
H	 1.4116784448	-2.5478947697	 1.6834725185	 0.118962
46.5281	65.025	153.5812	198.0164	206.7275	219.6221	252.4559	294.0363	325.9393	333.5521	395.163	461.1575	532.1288	659.521	726.1253	785.8281	877.4704	891.961	931.4475	945.0352	957.6527	1019.7874	1045.2664	1051.4931	1072.0411	1083.2959	1102.8585	1123.6312	1140.5892	1187.3784	1208.8316	1293.249	1334.263	1361.9856	1394.1981	1410.6386	1420.3273	1439.2735	1470.1416	1486.4162	1488.1381	1499.8296	1505.9351	1512.5167	1861.4013	2933.9148	3005.0456	3036.1992	3050.4855	3100.0201	3114.0431	3123.8929	3126.4764	3130.9049	3132.1922	3204.5447	3218.6004
CC(OC=O)C1(C)CC1	C[C@@H](OC=O)C1(C)CC1	
InChI=1S/C7H12O2/c1-6(9-5-8)7(2)3-4-7/h5-6H,3-4H2,1-2H3	InChI=1S/C7H12O2/c1-6(9-5-8)7(2)3-4-7/h5-6H,3-4H2,1-2H3/t6-/m1/s1
