21
gdb 93843	2.33895	1.5738	1.25893	2.3872	73.96	-0.2454	0.067	0.3124	1101.9421	0.183468	-461.373359	-461.364542	-461.363598	-461.40621	34.771	
C	 0.118394458	 1.5211415373	-0.0931932115	-0.40017
C	 0.0879214355	 0.0053547766	-0.0055610827	 0.119887
O	 0.7352120068	-0.4987544222	-1.1843559506	-0.277149
C	 0.696434687	-1.9139246386	-1.2619323361	-0.119879
C	 1.5121723669	-2.4948099448	-0.1084217439	 0.137149
O	 2.8592245125	-2.0017660662	-0.1949590775	-0.4528
C	 0.8667947392	-2.0707313161	 1.218404505	-0.278099
C	 0.7417297988	-0.5389453159	 1.2879848318	 0.125578
O	 1.9978037122	 0.0685862049	 1.551640499	-0.44589
H	 1.1489176491	 1.8761584147	-0.0311632435	 0.138737
H	-0.3242125288	 1.8548909911	-1.0350109522	 0.117286
H	-0.4458259766	 1.9602148144	 0.7350674617	 0.115051
H	-0.9578617409	-0.3509579326	-0.0151405416	 0.06016
H	-0.3397054918	-2.2867341913	-1.2295364379	 0.096186
H	 1.1342847455	-2.1858358523	-2.2276682766	 0.114035
H	 1.557949363	-3.5872898744	-0.1835763255	 0.080615
H	 2.8208707417	-1.2266384876	-0.7719883787	 0.293085
H	-0.1248687265	-2.5332661105	 1.2947053678	 0.09892
H	 1.4619562358	-2.4258743519	 2.0654717373	 0.114195
H	 0.0812930815	-0.2602106158	 2.1199903267	 0.07657
H	 2.672081631	-0.5143062088	 1.1790697091	 0.286533
107.504	201.2576	208.1417	230.2485	259.7018	290.8313	327.8661	361.0139	396.8744	426.5308	502.4961	573.6074	650.6507	689.6564	751.7201	818.6011	843.1066	867.8915	915.4651	964.7725	988.1506	999.5465	1025.9239	1073.8567	1091.8176	1112.5521	1149.9452	1168.0869	1221.2128	1253.1419	1262.0555	1298.6989	1340.5537	1358.8967	1372.6674	1380.4357	1384.9003	1407.6909	1408.6944	1428.4251	1460.6505	1472.6132	1482.9526	1493.9709	1498.6644	2943.6566	2983.6333	3015.977	3035.1472	3048.9258	3051.3824	3080.6321	3087.6741	3121.9509	3142.1046	3741.6302	3756.5409
CC1OCC(O)CC1O	C[C@H]1OC[C@@H](O)C[C@H]1O	
InChI=1S/C6H12O3/c1-4-6(8)2-5(7)3-9-4/h4-8H,2-3H2,1H3	InChI=1S/C6H12O3/c1-4-6(8)2-5(7)3-9-4/h4-8H,2-3H2,1H3/t4-,5+,6-/m1/s1
