19
gdb 104921	2.1029	1.56718	1.07257	4.4282	77.7	-0.2508	0.0288	0.2796	1186.6784	0.156972	-419.190943	-419.18085	-419.179905	-419.225407	36.93	
C	 0.2653317924	 1.301336965	 0.2101836371	-0.261384
O	-0.1837271595	 0.0103268078	-0.1845400525	-0.277564
C	 0.5460897269	-0.551653505	-1.2265732892	 0.273246
C	 1.8850257467	-1.2055135611	-0.9015512094	-0.364703
C	 0.6880142807	-2.0696306942	-1.2128541644	 0.206173
C	 0.0048966078	-2.8318512504	-0.0932008049	-0.450267
N	 0.7263728984	-2.6696083912	-2.5231320803	-0.539597
C	 0.3875734666	 0.1281263623	-2.4967362473	 0.280561
N	 0.2265861979	 0.7338683995	-3.4687754597	-0.366144
H	 1.3136503963	 1.2766661831	 0.5367143043	 0.114791
H	 0.1637334077	 2.0258784458	-0.607239627	 0.139733
H	-0.3681715465	 1.6067055833	 1.0447450593	 0.135465
H	 2.671628652	-1.1469925757	-1.6435193955	 0.140006
H	 2.1962409347	-1.1233157215	 0.1338805399	 0.127812
H	-0.0250093963	-2.2565500916	 0.8333200331	 0.13492
H	-1.0265460981	-3.0756106208	-0.3708629638	 0.121943
H	 0.5362015153	-3.77204102	 0.0927849196	 0.114762
H	 1.2783708745	-3.522155612	-2.5012773318	 0.233157
H	-0.2081043472	-2.9225998733	-2.8315524877	 0.237092
105.4696	123.7853	148.4316	177.4547	181.0077	226.9485	233.6311	297.2372	333.5061	390.6093	402.4948	420.0184	487.2867	578.1771	600.4792	668.9062	773.3618	839.1192	909.5959	928.2115	929.5217	987.7661	1049.862	1059.8902	1074.0589	1140.7952	1184.6871	1212.0066	1232.9369	1276.7189	1300.1379	1369.1866	1412.3698	1460.1499	1478.1383	1487.5286	1490.8706	1497.0011	1508.452	1658.7093	2347.9179	3006.5537	3032.4492	3069.6405	3092.5833	3135.1154	3138.7899	3144.3858	3243.8306	3488.1206	3567.0152
COC1(CC1(C)N)C#N	CO[C@]1(C[C@]1(C)N)C#N	
InChI=1S/C6H10N2O/c1-5(8)3-6(5,4-7)9-2/h3,8H2,1-2H3	InChI=1S/C6H10N2O/c1-5(8)3-6(5,4-7)9-2/h3,8H2,1-2H3/t5-,6+/m0/s1
