16
gdb 49471	2.19649	1.54713	1.07242	5.7916	73.73	-0.2509	-0.0316	0.2192	1115.0112	0.124431	-400.736281	-400.728324	-400.72738	-400.769309	29.302	
O	 0.0742320386	 0.0013460942	-0.522035327	-0.262055
C	 0.0241394079	 1.1098835207	-0.0470245471	 0.14179
C	 1.229347092	 1.9755175369	 0.0838011082	-0.096497
C	 1.2612830331	 3.4715026114	-0.1666720994	-0.076887
C	-0.0100347688	 4.1727264	 0.3321118718	-0.265253
C	 0.3219678866	 3.6695399491	 1.7869959978	-0.151194
C	-0.6832235278	 2.9303371583	 2.5388426747	 0.277147
N	-1.487533918	 2.3485771458	 3.1319763717	-0.325134
C	 1.5492031987	 2.9277165974	 1.2226742049	-0.092565
H	-0.9377879363	 1.5324818388	 0.3044720566	 0.096484
H	 2.1185595271	 1.4682800227	-0.2804949041	 0.120304
H	 1.9520011926	 3.8850198972	-0.8902372344	 0.113972
H	 0.0487960279	 5.2598462261	 0.2692878084	 0.130114
H	-0.9601036553	 3.8482358602	-0.0949001947	 0.132729
H	 0.6500474897	 4.5128232522	 2.3999688932	 0.139698
H	 2.4884063921	 2.8333873488	 1.7527840193	 0.117347
70.4137	126.0853	161.9222	206.4289	268.9934	362.2322	417.1693	497.2883	525.7363	591.2969	698.2763	778.8356	808.9137	818.7226	934.6087	973.4652	977.4557	995.3601	1031.5895	1047.7116	1060.5338	1087.0197	1097.0254	1146.0919	1206.6123	1212.0607	1259.7513	1292.0515	1320.5151	1339.0568	1387.0619	1460.6858	1497.9378	1810.3048	2352.3637	2934.7221	3080.1009	3087.1957	3140.1878	3160.6855	3191.6176	3202.988
O=CC1C2CC(C#N)C12	O=C[C@H]1[C@H]2C[C@@H](C#N)[C@@H]12	
InChI=1S/C7H7NO/c8-2-4-1-5-6(3-9)7(4)5/h3-7H,1H2	InChI=1S/C7H7NO/c8-2-4-1-5-6(3-9)7(4)5/h3-7H,1H2/t4-,5+,6-,7+/m0/s1
