18
gdb 32133	3.61164	1.13114	0.86682	1.0092	85.26	-0.196	0.015	0.2109	1318.5729	0.149375	-402.009692	-402.001369	-402.000425	-402.042371	32.363	
C	-0.0516026319	 1.3776962306	 0.1037309898	-0.242557
O	-0.0023761348	-0.0296680685	-0.0161955504	-0.267806
C	 0.6145365071	-0.5597238489	-1.1097188181	 0.427515
C	 1.2089928539	 0.1950414688	-2.1241468416	-0.300798
C	 1.8099107073	-0.479926953	-3.1877925088	-0.076678
C	 1.8275785862	-1.8636944043	-3.2567360812	-0.199551
C	 1.2276283611	-2.6196035552	-2.2353279248	 0.345205
N	 1.182569746	-4.0130773359	-2.3201302264	-0.592191
C	 0.6266945796	-1.9550491152	-1.1659990574	-0.297843
H	 0.9531365507	 1.8167953006	 0.1565841729	 0.122297
H	-0.5960139467	 1.8379995911	-0.7309547989	 0.123272
H	-0.5821682406	 1.5854358993	 1.0347629116	 0.130886
H	 1.2116329852	 1.2758429081	-2.0975447712	 0.0891
H	 2.2768696335	 0.0967403179	-3.9801776811	 0.08996
H	 2.2963069155	-2.3682071649	-4.0956531828	 0.075915
H	 1.9236274644	-4.423641195	-2.8693231272	 0.24442
H	 1.0765911531	-4.486408175	-1.4345727303	 0.245022
H	 0.1532188804	-2.5072448704	-0.3609838041	 0.083832
85.2221	204.7035	229.2689	234.6637	270.264	305.2854	357.5415	461.3204	465.8526	529.3891	584.8112	593.3243	656.0955	706.8201	748.4837	770.9283	833.4825	866.5264	941.4036	944.7537	1004.3823	1074.0999	1100.6712	1135.828	1178.1725	1187.4997	1203.9739	1238.1549	1323.7664	1338.5915	1368.5824	1476.7827	1488.9923	1501.4189	1512.51	1532.1877	1623.4921	1650.0415	1664.5062	3003.2019	3061.81	3129.397	3166.4121	3181.9148	3184.4687	3222.4216	3563.085	3661.4948
COC1=CC=CC(N)=C1	COc1cccc(N)c1	
InChI=1S/C7H9NO/c1-9-7-4-2-3-6(8)5-7/h2-5H,8H2,1H3	InChI=1S/C7H9NO/c1-9-7-4-2-3-6(8)5-7/h2-5H,8H2,1H3
