23
gdb 107670	2.995	1.26037	1.05656	1.0078	85.32	-0.2403	0.0845	0.3249	1255.2497	0.207302	-388.287746	-388.278935	-388.277991	-388.32088	34.754	
C	 0.2057939729	 1.2985026583	-0.2777407246	-0.249339
O	-0.2082103146	 0.0290051363	 0.1855985162	-0.286228
C	 0.5950301103	-0.5088282965	 1.2051632786	 0.44657
C	 1.8972784607	-1.1283861297	 0.76546163	-0.351101
C	 0.7152576326	-2.0081067869	 1.1451304574	-0.080518
C	 0.7488238148	-2.8470567854	 2.4226242582	-0.226369
C	 0.2884285845	-2.0729773297	 3.6683341872	-0.18348
C	 0.9256252354	-0.6808605738	 3.7327936066	-0.212585
C	 0.4632835427	 0.1857873011	 2.5509706523	-0.26663
H	 1.2551626013	 1.289540244	-0.6066835901	 0.104105
H	-0.4307492694	 1.5486131754	-1.1302618218	 0.1231
H	 0.0891959478	 2.0812210214	 0.4850963008	 0.10648
H	 2.1485334814	-1.0555913968	-0.2868543465	 0.109867
H	 2.7499369763	-1.1023158366	 1.4378259434	 0.105014
H	 0.200293155	-2.4519570165	 0.2995358838	 0.092842
H	 0.1190488225	-3.7329593274	 2.2905772479	 0.098247
H	 1.7672645175	-3.2226504634	 2.5867986581	 0.097433
H	-0.8035497037	-1.9588706647	 3.6462615213	 0.097302
H	 0.5258656856	-2.6480547138	 4.5701593195	 0.089362
H	 0.6603216238	-0.1793844928	 4.6697106223	 0.094532
H	 2.0199976519	-0.773642612	 3.7353904308	 0.09554
H	 1.0031789387	 1.1405715721	 2.5490360121	 0.091696
H	-0.6005018381	 0.4244476372	 2.6819160264	 0.104161
106.1907	125.3934	173.9979	199.1684	279.3563	332.5948	362.6064	374.0985	405.1382	480.5105	513.4417	599.1623	680.2373	779.2831	818.1116	862.6502	885.5659	906.8041	934.4793	953.3765	962.806	997.2523	1042.7854	1063.4206	1073.4416	1107.9315	1131.4448	1136.3485	1181.9985	1183.543	1199.9295	1208.6219	1237.7017	1281.8145	1298.9675	1308.8551	1365.8196	1370.1917	1376.5097	1389.5821	1401.6651	1470.8583	1478.7111	1489.431	1491.0959	1494.1079	1496.4488	1509.3566	1511.4856	2988.6515	3015.1257	3016.5505	3018.4615	3022.1987	3038.3782	3053.5251	3064.0623	3067.523	3072.6576	3111.2038	3119.4867	3161.964	3211.1014
COC12CC1CCCC2	CO[C@]12C[C@H]1CCCC2	
InChI=1S/C8H14O/c1-9-8-5-3-2-4-7(8)6-8/h7H,2-6H2,1H3	InChI=1S/C8H14O/c1-9-8-5-3-2-4-7(8)6-8/h7H,2-6H2,1H3/t7-,8-/m1/s1
