19
gdb 79570	2.24811	1.79085	1.33126	3.2503	74.82	-0.227	0.056	0.283	1045.2986	0.157027	-422.954595	-422.945994	-422.94505	-422.987081	33.931	
C	-0.1688810599	 1.4646976718	 0.1099347378	-0.505437
C	 0.1053097216	 0.0004105	 0.0239968594	 0.368767
O	-0.7889261871	-0.8970809905	 0.7323900326	-0.320241
C	 0.6411985076	-0.9825216942	 0.960187976	-0.045192
C	 1.3050090447	-1.8007608674	-0.1716952029	-0.225247
C	 0.3409479874	-2.2073266162	-1.2629398756	 0.101774
O	-0.9196385155	-2.7654093689	-1.1255542091	-0.429808
C	 0.7504922467	-0.7565986953	-1.1920677582	 0.179372
C	 1.4698038318	-0.0210193919	-2.2874768766	-0.495531
H	 0.7119607392	 2.0442530747	-0.1828070365	 0.131404
H	-0.99342492	 1.7469171992	-0.5545531209	 0.135908
H	-0.4439223706	 1.7361453806	 1.1323903826	 0.137619
H	 0.9750709824	-0.8934092856	 1.9873571248	 0.111852
H	 2.312741148	-2.1916297392	-0.0915698182	 0.090022
H	 0.8640030864	-2.7126630135	-2.0741003082	 0.103865
H	-1.3308158862	-2.2922267304	-0.3887774464	 0.293622
H	 0.7679790163	 0.5181522741	-2.9353862085	 0.126194
H	 2.1856796723	 0.710011285	-1.8922219344	 0.116269
H	 2.0292247151	-0.7192767824	-2.9180756178	 0.124788
142.7161	193.4464	197.0496	222.5025	238.3	286.6444	359.4302	363.8681	464.5504	526.337	564.7371	595.7361	634.5058	673.0171	742.6193	793.5499	848.9132	874.6709	885.3278	930.0199	961.4224	980.4334	1025.5793	1076.6609	1091.9173	1106.9602	1144.1311	1169.0489	1223.6355	1251.0587	1267.3147	1313.9102	1374.5857	1403.4029	1417.5737	1464.3936	1480.6729	1483.5919	1490.7097	1498.7373	1501.6441	3016.4464	3035.9228	3071.825	3095.956	3100.0585	3120.6964	3124.3596	3176.0487	3188.9951	3731.2244
CC12OC1C1C(O)C21C	C[C@]12O[C@H]1[C@H]1[C@@H](O)[C@@]21C	
InChI=1S/C7H10O2/c1-6-3(4(6)8)5-7(6,2)9-5/h3-5,8H,1-2H3	InChI=1S/C7H10O2/c1-6-3(4(6)8)5-7(6,2)9-5/h3-5,8H,1-2H3/t3-,4-,5+,6+,7+/m1/s1
