13
gdb 25274	3.33698	1.81202	1.18315	1.0217	65.11	-0.2341	-0.0444	0.1897	937.9001	0.09225	-452.805383	-452.799071	-452.798126	-452.836273	24.039	
O	-0.0542771766	-0.0500234416	 0.0035310654	-0.330766
C	-0.022720066	 1.14874453	 0.0092663218	 0.396678
C	-1.2057864946	 2.1368188339	 0.0319112172	-0.228848
O	-0.6489836627	 3.4646786288	 0.0304014634	-0.261043
C	 0.6859190066	 3.3177106727	 0.0097255738	 0.519172
N	 1.6567779334	 4.1650348936	-0.0004139599	-0.380568
C	 2.7914689336	 3.3369037042	-0.0216360603	-0.071944
C	 2.4760492454	 2.0113661636	-0.0237235343	-0.146375
N	 1.0782000283	 1.9955672665	-0.0029077134	-0.121515
H	-1.8366452323	 2.0047751091	-0.8511948673	 0.168274
H	-1.8100949848	 1.9956699464	 0.9320120187	 0.168269
H	 3.7779222777	 3.7746061213	-0.0341325515	 0.130151
H	 3.0602846517	 1.1088810415	-0.0370957634	 0.158514
137.534	174.5725	309.2321	316.257	550.5253	578.2885	619.2612	637.7412	696.438	697.772	748.5812	752.1019	876.624	932.8496	1006.3756	1025.52	1059.4175	1093.5454	1127.5518	1186.5292	1200.6053	1280.2618	1318.3961	1399.9473	1453.9731	1478.3582	1538.0515	1665.8802	1871.3086	3071.7722	3122.738	3258.151	3306.9525
O=C1COC2=NC=CN12	O=C1COc2nccn12	
InChI=1S/C5H4N2O2/c8-4-3-9-5-6-1-2-7(4)5/h1-2H,3H2	InChI=1S/C5H4N2O2/c8-4-3-9-5-6-1-2-7(4)5/h1-2H,3H2
