20
gdb 76782	2.12894	1.74981	1.13141	2.6561	80.82	-0.2105	-0.0198	0.1907	1144.012	0.16886	-403.127744	-403.118382	-403.117438	-403.161716	34.965	
C	-0.4743235611	 1.3772891613	 0.1655013513	-0.406739
C	-0.0110165005	-0.0645792249	-0.0420395911	-0.078748
N	 0.868082299	-0.3779770656	-1.2153369572	-0.151034
C	 0.9532066936	 0.5375537	-2.3333881513	-0.337579
C	 2.0385390283	-0.5909718905	-0.3576044091	 0.247682
C	 3.2004150543	-1.5160299704	-0.5825351966	-0.311301
C	 3.4404801261	-0.0317789281	-0.4956876045	-0.324166
C	 1.1739104796	-0.4691330354	 0.8605193995	 0.327154
O	 1.3405109136	-0.594856265	 2.0397929875	-0.320132
H	 0.3640332052	 2.0801498941	 0.1699992455	 0.125503
H	-1.1787033847	 1.6849859946	-0.6133509083	 0.124234
H	-0.9826069773	 1.4531891532	 1.1312681031	 0.13857
H	-0.8693846653	-0.7452708088	 0.0136966506	 0.102137
H	 1.3045020838	 1.5510045946	-2.0740783875	 0.100726
H	 1.6369569402	 0.1296865718	-3.0858489663	 0.122532
H	-0.0292118163	 0.6274871131	-2.8069204994	 0.125379
H	 3.5002677304	-2.1426895477	 0.2509199981	 0.132983
H	 3.267722985	-1.9834899244	-1.5594494635	 0.125009
H	 3.6727991536	 0.4970074018	-1.4139262063	 0.124119
H	 3.9055612025	 0.3746561662	 0.3963565356	 0.133671
58.2273	171.6213	198.5918	203.3524	210.9679	216.7194	239.9105	264.6426	369.1519	464.2892	544.7304	567.5659	650.1192	713.3227	750.9901	793.2472	828.6868	874.812	924.3577	952.3327	1005.093	1046.8765	1060.3715	1068.4588	1079.6701	1093.8588	1150.8756	1170.7393	1195.118	1204.504	1262.5682	1302.081	1336.4646	1365.3419	1396.6537	1449.5763	1456.7492	1480.0676	1486.5109	1493.4196	1497.5631	1509.4328	1900.5017	2955.6191	3028.0593	3039.2706	3058.8495	3099.3089	3111.6245	3117.0246	3128.8907	3131.548	3213.0376	3227.6995
CC1N(C)C2(CC2)C1=O	C[C@H]1N(C)C2(CC2)C1=O	
InChI=1S/C7H11NO/c1-5-6(9)7(3-4-7)8(5)2/h5H,3-4H2,1-2H3	InChI=1S/C7H11NO/c1-5-6(9)7(3-4-7)8(5)2/h5H,3-4H2,1-2H3/t5-/m1/s1
