15
gdb 123696	4.18964	1.59323	1.25761	2.3614	69.79	-0.2052	0.0357	0.2409	946.9446	0.11652	-416.79302	-416.786807	-416.785862	-416.823424	25.391	
C	 0.0096131136	 1.4966736861	 0.0892247641	-0.317636
C	 1.3019441695	 0.7387035152	 0.0255669467	 0.079468
O	 1.9893244656	 0.4262117408	 1.2524273727	-0.271976
C	 1.1365713551	-0.402498691	 1.8920058484	 0.469494
C	-0.0183990367	-0.7559235215	 1.2430382321	 0.156725
C	-0.6535827645	-1.6281026725	 2.1509118541	-0.162124
N	 0.0621265779	-1.7849021522	 3.2670585697	-0.239694
N	 1.1745096522	-1.0001406829	 3.0919400476	-0.344187
C	-0.026353384	-0.0232822368	-0.0489430018	-0.230584
H	-0.3033746664	 1.9263791657	 1.0341964196	 0.130283
H	-0.2292166598	 2.0885883927	-0.7882880007	 0.121275
H	 1.9984203709	 0.8647828458	-0.7926668515	 0.114793
H	-1.5912560366	-2.1559689376	 2.0566128737	 0.112314
H	 1.8748823147	-0.9635563799	 3.8113351183	 0.27825
H	-0.3790632915	-0.473088852	-0.9696479729	 0.103598
159.1152	264.4644	377.2053	433.2826	446.3275	467.2842	628.8525	663.1876	708.6537	732.2999	774.5314	784.8648	816.9502	883.0453	948.5189	952.1231	975.7327	1033.9613	1055.7968	1063.2106	1083.2166	1120.8722	1170.1359	1185.9005	1230.9998	1284.6376	1324.6172	1353.4079	1419.9242	1461.1532	1466.9014	1593.0706	1610.339	3132.2486	3176.0027	3204.3387	3225.8461	3243.5009	3689.6688
C1C2OC3=C(C=NN3)C12	C1[C@H]2Oc3c(cn[nH]3)[C@@H]12	
InChI=1S/C6H6N2O/c1-3-4-2-7-8-6(4)9-5(1)3/h2-3,5H,1H2,(H,7,8)	InChI=1S/C6H6N2O/c1-3-4-2-7-8-6(4)9-5(1)3/h2-3,5H,1H2,(H,7,8)/t3-,5-/m1/s1
