17
gdb 80711	2.42077	1.9557	1.52701	2.5357	71.25	-0.2266	-0.0287	0.1979	928.0508	0.136986	-421.840041	-421.832786	-421.831842	-421.871559	28.719	
C	-0.2271950123	 1.564330594	 0.0314843228	-0.414781
C	 0.0339880476	 0.0638728793	-0.0289246509	-0.096405
C	 0.9172337527	-0.5075226679	-1.1805402035	-0.002697
O	 1.2091437569	-1.8173037065	-0.6605748121	-0.243888
C	 1.9142955607	-1.3883934876	 0.508605746	-0.0942
C	 2.9071337306	-0.3745085997	-0.0583024377	-0.091506
C	 2.2903118471	 0.1663720408	-1.1102744898	-0.077422
C	 0.8367172192	-0.4859621574	 1.1710911835	 0.422264
O	 0.6767274706	-0.250001539	 2.3373318773	-0.327875
H	 0.7060626314	 2.1327506815	-0.0243146972	 0.120973
H	-0.8785466894	 1.8888499157	-0.7861605643	 0.115953
H	-0.7138235377	 1.8172374995	 0.9777975863	 0.1429
H	-0.9178233418	-0.4811717206	-0.042968349	 0.11257
H	 0.4398363955	-0.5823248304	-2.1568006229	 0.088729
H	 2.283745475	-2.2208307117	 1.1022854814	 0.102777
H	 3.8544274042	-0.1113298801	 0.3900298683	 0.124685
H	 2.6286193397	 0.9697113702	-1.749576828	 0.117924
120.3459	191.6563	221.145	227.2956	396.2276	467.5708	496.0563	545.2015	644.3262	674.0247	722.1507	771.7744	778.9297	839.8106	897.4458	906.8455	916.8278	943.0926	952.6658	1015.5671	1045.7669	1066.6988	1099.4485	1123.4941	1156.351	1181.1624	1221.8891	1254.2184	1296.4321	1316.3515	1325.1286	1349.2751	1407.6427	1494.7898	1501.3047	1632.8587	1860.2923	3038.854	3039.0738	3108.9876	3116.8505	3127.5091	3160.2814	3225.4059	3250.8382
CC1C2OC(C=C2)C1=O	C[C@H]1[C@@H]2O[C@@H](C=C2)C1=O	
InChI=1S/C7H8O2/c1-4-5-2-3-6(9-5)7(4)8/h2-6H,1H3	InChI=1S/C7H8O2/c1-4-5-2-3-6(9-5)7(4)8/h2-6H,1H3/t4-,5+,6-/m0/s1
