20
gdb 79870	2.81648	1.58819	1.3604	1.6317	78.75	-0.2361	0.0722	0.3083	1044.456	0.172137	-403.099052	-403.091055	-403.090111	-403.131018	31.963	
C	-0.1578309365	 1.5716603558	-0.0447137201	-0.445547
C	 0.0239316766	 0.0689853965	 0.057336522	 0.02127
N	 1.2412654349	-0.5591334649	-0.6405148334	-0.176533
C	 2.1067743452	-0.1438442552	 0.5704908741	-0.05292
C	 3.1926721236	-1.1980916977	 0.7319944752	-0.23876
C	 2.340304581	-2.4695970274	 0.4767385504	-0.248035
C	 0.9923075342	-1.8059197279	 0.2450583957	 0.002785
C	 0.7713928331	-0.6282205206	 1.2141101832	 0.326832
O	 0.4351313824	-0.7780624916	 2.5532063766	-0.47276
H	 0.7038559386	 2.1419633877	 0.3112586759	 0.115889
H	-0.340285031	 1.8570656559	-1.0858985934	 0.133383
H	-1.0306939859	 1.8821695077	 0.5403108564	 0.118306
H	-0.8976579453	-0.4357960954	-0.2561493061	 0.070052
H	 2.4032133978	 0.9041939953	 0.5949304383	 0.065779
H	 3.9952880782	-1.0693811756	 0.0008090576	 0.107661
H	 3.6352321508	-1.1702235199	 1.7319384729	 0.103654
H	 2.6688176371	-3.0318395288	-0.4013517912	 0.107981
H	 2.3142311165	-3.1516923477	 1.3308040846	 0.10964
H	 0.1432403135	-2.4179047419	-0.0644822178	 0.071057
H	 0.4080731552	 0.0928846257	 2.964583139	 0.280266
171.1928	197.5472	207.0815	222.7169	262.0455	266.5309	386.3677	479.3153	520.4982	619.0271	676.07	711.2501	779.6628	793.6964	826.0212	886.3157	911.8571	935.758	947.4458	991.2925	1003.3788	1032.7457	1053.4203	1069.3892	1108.0294	1141.2019	1144.0603	1162.0389	1195.326	1247.8915	1252.7969	1261.2612	1282.4892	1299.4602	1317.6397	1327.0243	1392.798	1414.3588	1444.3422	1475.4363	1495.0398	1497.1931	1499.316	3032.6277	3038.7496	3055.91	3065.0233	3094.8266	3098.3378	3105.8979	3113.2025	3114.2117	3128.3962	3803.9234
CC1N2C3CCC2C13O	C[C@H]1N2[C@@H]3CC[C@H]2[C@]13O	
InChI=1S/C7H11NO/c1-4-7(9)5-2-3-6(7)8(4)5/h4-6,9H,2-3H2,1H3	InChI=1S/C7H11NO/c1-4-7(9)5-2-3-6(7)8(4)5/h4-6,9H,2-3H2,1H3/t4-,5-,6+,7+/m1/s1
