20
gdb 88773	3.51323	1.15352	1.03237	1.72	78.94	-0.2483	0.0239	0.2722	1230.0309	0.172323	-403.151736	-403.143229	-403.142284	-403.185588	31.79	
C	-0.1073466591	 1.5328557804	-0.1735068404	-0.418594
C	 0.0443751735	 0.036894223	 0.0044607939	-0.005047
C	 1.3865455476	-0.6454746174	-0.1366150839	-0.29395
C	 0.7035796502	-0.5949679902	 1.209011971	-0.026002
C	 1.285236576	 0.1660460805	 2.3818900388	 0.067708
C	 2.1991643126	-0.6969073847	 3.3024823504	-0.19337
N	 3.4916460311	 0.0078046899	 3.3455541045	-0.261385
C	 3.3585667885	 1.0087447992	 2.5841047885	 0.118624
O	 2.1790136594	 1.2357330308	 1.9548709884	-0.225837
H	 0.756970083	 2.0745654641	 0.2147507464	 0.140953
H	-0.2184408648	 1.7832568985	-1.2343341919	 0.114054
H	-0.9982393939	 1.9037985973	 0.3464052591	 0.111669
H	-0.7984854157	-0.5330883717	-0.3801863216	 0.082778
H	 1.4492846428	-1.5952321363	-0.6561252315	 0.108646
H	 2.2488219551	-0.001400454	-0.2688848385	 0.122303
H	 0.2482169923	-1.5238180331	 1.5465936847	 0.089766
H	 0.4848638775	 0.6489945235	 2.9539219177	 0.094124
H	 1.7958065369	-0.8004006933	 4.3143500665	 0.116356
H	 2.3450658918	-1.7052864899	 2.8990766742	 0.116925
H	 4.1259184351	 1.7442818135	 2.3683711737	 0.140281
59.141	70.5276	157.2368	207.7322	250.1742	271.9846	367.0543	473.5217	485.7317	598.9755	717.0638	762.9564	792.7248	854.7379	878.9472	895.8581	924.3424	958.0483	976.2752	982.0769	992.7478	1058.7837	1075.4784	1089.1362	1113.148	1122.216	1149.0914	1152.2526	1201.283	1216.116	1248.1742	1304.9086	1326.0454	1337.502	1377.2534	1391.832	1416.5114	1427.227	1489.3163	1500.1104	1504.6253	1508.2408	1715.5655	3031.3357	3034.8135	3040.9248	3081.349	3084.2205	3118.8122	3128.0573	3137.2947	3143.7148	3214.0657	3223.6565
CC1CC1C1CN=CO1	C[C@H]1C[C@H]1[C@H]1CN=CO1	
InChI=1S/C7H11NO/c1-5-2-6(5)7-3-8-4-9-7/h4-7H,2-3H2,1H3	InChI=1S/C7H11NO/c1-5-2-6(5)7-3-8-4-9-7/h4-7H,2-3H2,1H3/t5-,6+,7+/m0/s1
