15
gdb 20282	5.4278	2.18028	2.09531	3.303	63.28	-0.2284	0.0644	0.2928	684.898	0.121331	-362.550717	-362.545606	-362.544661	-362.579592	21.811	
C	-0.0473207096	 1.4951086162	 0.0095493551	-0.177694
C	 1.4625450336	 1.2635536085	-0.0057755951	-0.082138
C	 1.1896375083	 0.1004062055	 1.0051436293	-0.033812
C	 2.1451691205	-1.0500249241	 0.7059536599	 0.023636
O	 1.5385814808	-2.1263511096	-0.0235974568	-0.23256
C	 2.1314943869	-1.0426579446	-0.7534860694	 0.023636
C	 1.1706321877	 0.1106427581	-1.0230913024	-0.033812
N	 0.0173925273	-0.0380887854	 0.0011962857	-0.130283
H	-0.5014366426	 1.9030027963	 0.916944068	 0.102903
H	-0.5183312074	 1.9121080558	-0.8850027768	 0.102902
H	 2.2832762316	 1.9912135874	-0.0097933657	 0.066866
H	 0.8945771678	 0.3133653472	 2.0332781178	 0.080905
H	 2.9931576404	-1.2963538777	 1.3357740009	 0.104273
H	 2.9675091237	-1.2825386756	-1.4015390016	 0.104273
H	 0.856379381	 0.3339412819	-2.0433146789	 0.080904
309.1469	370.5159	452.5521	552.7271	685.6501	732.9112	776.0908	795.9314	824.0342	857.8465	891.9802	919.0285	920.9799	947.8465	957.1421	1010.3542	1016.8999	1044.4447	1083.1424	1105.8439	1111.3486	1131.8292	1173.1811	1209.046	1235.1242	1250.7904	1263.405	1271.0414	1307.3035	1335.1392	1414.129	1530.5372	3025.6497	3052.3641	3110.3477	3113.8605	3115.6849	3170.2108	3182.2132
C1C2C3C4OC4C2N13	C1[C@H]2[C@@H]3[C@H]4O[C@H]4[C@H]2N13	
InChI=1S/C6H7NO/c1-2-3-5-6(8-5)4(2)7(1)3/h2-6H,1H2	InChI=1S/C6H7NO/c1-2-3-5-6(8-5)4(2)7(1)3/h2-6H,1H2/t2-,3+,4-,5+,6-
