19
gdb 109315	2.27183	1.49708	0.98472	1.5521	77.81	-0.2372	0.012	0.2492	1213.9668	0.159078	-423.015033	-423.006266	-423.005321	-423.04954	32.524	
O	 0.1758661619	 1.3379842131	-0.0063253991	-0.411561
C	-0.0137059757	-0.032006435	-0.3140304964	-0.174965
C	-1.4281311342	-0.5006955789	-0.1319940785	 0.217205
C	-2.5126984425	 0.2551458036	 0.0541590895	-0.179445
C	-3.7778705168	-0.5503042961	 0.2192918194	-0.268018
C	-3.285933974	-2.0222312894	 0.2261826572	-0.315873
C	-1.7908901158	-1.9488252646	-0.1046432386	 0.362696
C	-1.0574727225	-2.9972560166	-0.8334824611	-0.25196
O	-0.902724923	-2.8545754726	 0.5796155197	-0.280115
H	-0.0650227457	 1.4577692057	 0.9184959259	 0.282893
H	 0.2908406254	-0.142057949	-1.3629717364	 0.122295
H	 0.6531225686	-0.6823447735	 0.2739264483	 0.114424
H	-2.5017999919	 1.3390387703	 0.0622307955	 0.102857
H	-4.3182281599	-0.2846148006	 1.1356569659	 0.109817
H	-4.4744502391	-0.3587177135	-0.6069211569	 0.112687
H	-3.3995972997	-2.4784364469	 1.2135415031	 0.125538
H	-3.8322005774	-2.6468155963	-0.484809418	 0.108569
H	-1.5934651161	-3.8890905462	-1.1587745588	 0.112453
H	-0.1794761316	-2.7493241235	-1.4297300704	 0.110501
27.5157	90.4439	172.2472	205.1396	269.883	293.1682	336.0568	354.7079	485.0682	508.8766	585.5127	702.8838	751.6585	775.4692	839.9663	876.5682	894.069	925.6097	969.2736	1001.544	1019.3794	1049.4482	1056.2678	1113.3581	1129.0232	1164.088	1173.071	1211.1491	1227.1797	1244.3717	1281.0226	1313.0337	1330.097	1385.1916	1410.0382	1425.4257	1479.02	1499.4979	1500.1199	1528.7189	1715.3107	2985.401	3023.6025	3038.5711	3048.0959	3065.2274	3071.8874	3107.4833	3155.7105	3201.4321	3809.2691
OCC1=CCCC11CO1	OCC1=CCC[C@]21CO2	
InChI=1S/C7H10O2/c8-4-6-2-1-3-7(6)5-9-7/h2,8H,1,3-5H2	InChI=1S/C7H10O2/c8-4-6-2-1-3-7(6)5-9-7/h2,8H,1,3-5H2/t7-/m1/s1
