20
gdb 91393	3.15195	1.35233	1.27779	1.728	78.34	-0.2371	-0.0098	0.2273	1087.5075	0.173301	-403.150215	-403.142257	-403.141312	-403.182641	31.352	
C	-0.4238348102	 1.4377908511	 0.0434823347	-0.392088
C	 0.0641627202	-0.0192686621	-0.0066897286	 0.038656
C	 0.7589356593	-0.3262439793	-1.3702116252	-0.219396
C	 2.2898913406	-0.2781717559	-1.2567630243	-0.129698
N	 2.6640900544	 0.764356279	-0.2227793422	-0.318459
C	 2.4685435935	-0.290775975	 0.8470192434	-0.129698
C	 0.9785899274	-0.3417439852	 1.2164077693	-0.219396
C	 2.7740816078	-1.3263379326	-0.2446456633	 0.427981
O	 3.3526280361	-2.3726432364	-0.3000440894	-0.322737
H	 0.4202464908	 2.128472521	-0.0240572456	 0.140603
H	-1.1096319055	 1.6473071497	-0.7847854192	 0.105412
H	-0.9599410756	 1.6367433062	 0.9779609256	 0.105412
H	-0.820906266	-0.6601391881	 0.0646296823	 0.075183
H	 0.4745625461	-1.3169463475	-1.7431256238	 0.110046
H	 0.4246525031	 0.3990182507	-2.1192153696	 0.10572
H	 2.7941040852	-0.208609199	-2.2233115729	 0.088335
H	 3.6626810287	 0.9458807629	-0.3064910591	 0.230027
H	 3.1285834541	-0.2322064993	 1.7154675321	 0.088335
H	 0.7761175418	 0.3742137164	 2.0196304166	 0.10572
H	 0.7601698683	-1.3371018968	 1.6201150391	 0.110046
84.4572	140.5835	187.9067	263.979	362.1425	384.7997	405.1839	440.8397	497.9363	545.5837	701.4346	752.1524	792.1329	826.1812	853.3952	882.6778	887.0566	936.2683	956.158	1002.5951	1014.8681	1066.2079	1075.6862	1093.6441	1109.0995	1120.7469	1157.7351	1167.7278	1231.4675	1268.995	1296.3959	1319.2204	1323.786	1347.5784	1363.4063	1372.9789	1376.275	1407.8922	1486.9469	1489.1746	1502.1432	1513.0526	1886.7742	3028.1013	3028.8963	3035.1841	3047.5646	3073.6108	3077.1009	3090.9759	3093.0055	3093.096	3127.2421	3480.377
CC1CC2NC(C1)C2=O	C[C@H]1C[C@H]2N[C@@H](C1)C2=O	
InChI=1S/C7H11NO/c1-4-2-5-7(9)6(3-4)8-5/h4-6,8H,2-3H2,1H3	InChI=1S/C7H11NO/c1-4-2-5-7(9)6(3-4)8-5/h4-6,8H,2-3H2,1H3/t4-,5+,6-
