17
gdb 68003	2.92231	1.68141	1.27364	3.086	71.08	-0.2332	-0.0127	0.2205	983.6851	0.136634	-421.817731	-421.810555	-421.809611	-421.849047	29.242	
O	-0.0679862681	 1.3302126664	 0.0397568287	-0.476043
C	 0.0357850934	-0.0582667924	-0.0197567985	 0.408613
C	 1.0173734271	-0.6810346689	-0.9983766514	-0.424936
C	 0.3826120616	-2.046281753	-1.329427491	 0.425555
O	 0.745777158	-2.8120687639	-2.1824871887	-0.323001
C	-0.7735936473	-2.2364284425	-0.3559750456	-0.166588
C	-0.1507326267	-2.31600043	 1.0926570126	-0.254069
C	-0.3844258994	-0.8145389257	 1.2370342704	-0.1268
C	-1.2666478779	-0.806660659	-0.0095572787	-0.120435
H	 0.6813793015	 1.6671349047	 0.5429426477	 0.286303
H	 1.0791416089	-0.0739320117	-1.9077347277	 0.138858
H	 2.0369433983	-0.8158341367	-0.6202294338	 0.122543
H	-1.4727607686	-3.0195219988	-0.6378429362	 0.092864
H	-0.8111499812	-2.8874977569	 1.7484648742	 0.120057
H	 0.8689412527	-2.7060677092	 1.1873552933	 0.104301
H	-0.5255660456	-0.2659903066	 2.1610938315	 0.08896
H	-2.2326486267	-0.3595950859	-0.1980320168	 0.103818
111.9217	269.16	285.0376	315.4648	355.1166	420.2628	461.9056	526.7573	561.9942	638.4942	680.4547	762.9677	782.734	844.4545	883.8973	897.7959	929.1786	963.0026	979.4447	989.4646	1003.0786	1057.0345	1106.5403	1119.8378	1151.3802	1193.8068	1210.5469	1216.6123	1227.2647	1255.045	1279.0596	1311.0403	1328.9677	1423.682	1459.2781	1496.3023	1850.3168	3038.1833	3045.7003	3089.8132	3106.5864	3152.5914	3179.3424	3216.8586	3796.8011
OC12CC(=O)C3CC1C23	O[C@@]12CC(=O)[C@H]3C[C@@H]1[C@@H]23	
InChI=1S/C7H8O2/c8-5-2-7(9)4-1-3(5)6(4)7/h3-4,6,9H,1-2H2	InChI=1S/C7H8O2/c8-5-2-7(9)4-1-3(5)6(4)7/h3-4,6,9H,1-2H2/t3-,4-,6+,7+/m1/s1
