16
gdb 46195	3.1476	1.62903	1.23043	1.1041	69.92	-0.2342	-0.0445	0.1897	991.6534	0.124723	-437.802877	-437.795774	-437.79483	-437.83459	27.485	
O	-0.1655807232	 0.0049578286	-0.2876588766	-0.282179
C	-0.116417342	 1.1786390566	-0.0754716324	 0.252997
C	-1.1012620133	 2.2790068666	 0.3402874225	-0.196378
O	-0.0223613746	 3.2381627174	 0.2951101326	-0.347355
C	 0.9618135658	 2.2633187836	-0.0967837457	 0.393174
C	 2.36521832	 2.2649071183	 0.5640297694	-0.109894
C	 2.8669947289	 1.4499760432	-0.6518806481	-0.210057
C	 1.9927982278	 2.6003671494	-1.2056960481	-0.109894
N	 2.7156944148	 3.5201418273	-0.227630893	-0.334452
H	-1.8952745292	 2.4973308089	-0.3833599239	 0.138089
H	-1.5322033912	 2.17021001	 1.3424046053	 0.138086
H	 2.6106929761	 2.1524893457	 1.6200959243	 0.09436
H	 3.9314235802	 1.5636359645	-0.8543339269	 0.117736
H	 2.4972871971	 0.4312804866	-0.7671780933	 0.130148
H	 1.7983742519	 2.8841917959	-2.2400142572	 0.094361
H	 2.0798628408	 4.2744027774	 0.049147591	 0.231259
116.6091	141.4807	172.7499	348.5477	357.1529	465.6887	526.4533	603.8747	620.6451	752.1245	764.3077	798.9512	875.1375	884.6147	909.2225	967.8639	1001.7092	1016.1951	1035.2268	1067.6351	1075.4925	1089.2323	1124.7371	1140.8259	1172.7521	1193.2929	1208.8901	1222.9699	1276.2129	1297.8146	1299.6146	1312.4449	1483.1343	1489.5689	1912.6306	3029.0574	3080.0679	3091.7437	3118.2222	3123.2186	3175.4448	3403.5184
O=C1COC11C2CC1N2	O=C1CO[C@]21[C@H]1C[C@@H]2N1	
InChI=1S/C6H7NO2/c8-5-2-9-6(5)3-1-4(6)7-3/h3-4,7H,1-2H2	InChI=1S/C6H7NO2/c8-5-2-9-6(5)3-1-4(6)7-3/h3-4,7H,1-2H2/t3-,4+,6-
