17
gdb 38078	2.85483	1.71047	1.15167	1.6591	82.44	-0.2103	-0.0329	0.1774	1041.3139	0.137962	-384.667718	-384.660603	-384.659659	-384.699269	28.202	
C	 0.5172463272	 1.3884070597	 0.2926323602	-0.400523
C	 1.3249697066	 1.4679627547	-0.9773288011	-0.068139
C	 0.2616138216	-0.8165295402	 1.7405127294	-0.014436
O	-0.209142966	-1.9826147818	 1.1556702926	-0.293583
C	-0.3702306604	-1.169352722	-0.0841668257	 0.032829
C	 0.4667402666	-1.6726337665	-1.2024301658	-0.096747
C	 1.3107210634	-0.9246580186	-1.9281174214	-0.068021
C	 1.6361930585	 0.5043280526	-1.859903235	-0.067291
C	 0.1513663101	 0.0148764769	 0.6999658093	 0.120379
H	 1.0777552873	 1.8771329191	 1.1012485231	 0.123436
H	-0.3783125269	 2.0187590029	 0.1550530944	 0.122773
H	 1.6946763952	 2.4677195639	-1.1984074675	 0.092709
H	 0.5877145293	-0.8097751024	 2.7728533972	 0.128623
H	-1.4385009707	-1.1512474871	-0.3331369138	 0.106866
H	 0.3495152406	-2.7263393698	-1.4434708096	 0.103313
H	 1.8280922181	-1.4391183937	-2.7356835688	 0.091421
H	 2.2482865895	 0.8299109022	-2.6988758775	 0.086392
89.1549	199.9315	286.7644	333.4262	376.2139	381.9836	473.1551	538.8495	637.0229	687.2678	789.2354	799.4266	853.6573	857.3307	869.2201	903.8577	921.2442	961.4696	983.7903	1005.9425	1019.7781	1039.8949	1098.7869	1167.2985	1204.0151	1244.0704	1264.7579	1276.4438	1300.9056	1341.8388	1368.9989	1426.9679	1454.1784	1456.6793	1677.9444	1708.0298	1732.4943	2957.2366	3028.6951	3036.5138	3125.6169	3138.933	3153.599	3166.4415	3219.3814
C1C2C3OC4C=CC2C134	C1C=CC=C[C@H]2OC=C12	
InChI=1S/C8H8O/c1-2-6-8-3-4(5(1)8)7(8)9-6/h1-2,4-7H,3H2	InChI=1S/C8H8O/c1-2-4-7-6-9-8(7)5-3-1/h1-3,5-6,8H,4H2/t8-/m1/s1
