16
gdb 7962	3.5437	1.7446	1.32855	4.1187	60.44	-0.261	0.0132	0.2742	916.7746	0.130295	-420.925202	-420.917447	-420.916503	-420.957276	28.686	
C	 0.4040257112	 1.4132130443	-0.2233464808	-0.387211
C	-0.0913985348	 0.0294162598	 0.17369921	 0.093834
O	 0.0575993746	-0.8905900694	-0.9309755775	-0.225552
C	 1.1366832041	-1.705370503	-0.769181188	 0.430114
O	 1.4597318582	-2.5104394999	-1.591694464	-0.332421
C	 1.7886343553	-1.403643591	 0.5751478825	-0.404173
C	 0.6987067401	-0.633960421	 1.3279726721	 0.098223
O	 1.1478582923	 0.3570926141	 2.2275069226	-0.427485
H	 1.4726039492	 1.4049472443	-0.4565255983	 0.123843
H	-0.1395554807	 1.7563336661	-1.1071639744	 0.130423
H	 0.2399922118	 2.1184732446	 0.5940333329	 0.139711
H	-1.1607125864	 0.0663580535	 0.3973722569	 0.100714
H	 2.1264514732	-2.3251110578	 1.0513862778	 0.133503
H	 2.6617518099	-0.7625336768	 0.4100697748	 0.145988
H	 0.0351943764	-1.3481782075	 1.8367384596	 0.0874
H	 1.5470193155	-0.0793810602	 2.9859540038	 0.293089
107.8468	116.4211	215.8957	259.9322	267.1185	341.7528	409.5026	500.0177	520.4673	556.5303	647.6147	688.9154	797.4174	838.9768	936.5982	984.7715	999.9396	1078.7474	1097.7997	1129.3445	1137.5929	1169.2309	1185.8014	1252.6602	1256.1261	1348.6133	1378.1026	1387.1457	1407.3528	1431.1145	1466.5652	1488.2743	1490.9588	1886.5895	2994.3814	3052.0844	3061.334	3075.963	3125.8735	3129.5594	3140.5583	3831.3976
CC1OC(=O)CC1O	C[C@H]1OC(=O)C[C@H]1O	
InChI=1S/C5H8O3/c1-3-4(6)2-5(7)8-3/h3-4,6H,2H2,1H3	InChI=1S/C5H8O3/c1-3-4(6)2-5(7)8-3/h3-4,6H,2H2,1H3/t3-,4-/m1/s1
