20
gdb 7837	3.63815	1.33166	1.14837	2.1273	71.9	-0.2275	0.0734	0.3008	1125.9069	0.174484	-386.115721	-386.10648	-386.105535	-386.149796	34.285	
C	 0.3173072556	 1.4249722109	 0.4729676388	-0.394143
C	 0.0749843072	-0.0361464716	 0.0918828299	 0.146679
C	 0.8130660396	-0.4400302593	-1.178032569	-0.390831
O	 0.5086096621	-0.9507875085	 1.1106188828	-0.276656
C	-0.2713512891	-0.9505452173	 2.2742164589	 0.078977
C	 0.2241917957	-1.8402193825	 3.3846254602	-0.36523
C	 0.3658104339	-0.335878036	 3.4964736051	 0.121952
O	 1.619341752	 0.2544756663	 3.3441927051	-0.434672
H	 1.3877306662	 1.6259211157	 0.5855947739	 0.119599
H	-0.0720615424	 2.0850512271	-0.3088798294	 0.114814
H	-0.178072117	 1.6817735002	 1.4122908565	 0.132503
H	-1.0062161833	-0.1884914496	-0.0564695304	 0.073459
H	 1.8927358107	-0.3133694034	-1.0482060652	 0.121452
H	 0.6171631405	-1.4880155048	-1.4183356835	 0.12505
H	 0.4933597586	 0.1795383121	-2.0208669581	 0.116301
H	-1.3428323119	-0.8613457532	 2.0997512503	 0.087863
H	-0.5071424622	-2.3576182265	 3.9962498135	 0.113191
H	 1.1343599575	-2.3961607097	 3.1846897296	 0.125283
H	-0.245403461	 0.1995509746	 4.2162956027	 0.099202
H	 1.9091425072	 0.0264192556	 2.4499835581	 0.285208
42.2781	97.5371	176.9323	213.4048	218.3576	257.8229	318.0627	360.7491	408.1084	447.0229	468.4421	497.1846	658.066	770.8852	782.0729	814.8778	878.8295	928.5636	944.4371	956.7925	1018.2573	1049.1806	1074.999	1107.685	1127.5407	1145.5985	1156.8868	1181.5665	1205.6713	1225.2436	1336.2744	1347.5347	1370.1263	1401.1307	1408.8373	1420.1644	1430.0402	1480.4773	1480.9379	1482.6161	1496.3448	1507.298	2974.4144	3038.5811	3043.9686	3105.7655	3106.8525	3115.9031	3125.3134	3126.6654	3130.4223	3158.2769	3223.226	3745.3226
CC(C)OC1CC1O	CC(C)O[C@H]1C[C@H]1O	
InChI=1S/C6H12O2/c1-4(2)8-6-3-5(6)7/h4-7H,3H2,1-2H3	InChI=1S/C6H12O2/c1-4(2)8-6-3-5(6)7/h4-7H,3H2,1-2H3/t5-,6+/m1/s1
