19
gdb 126539	3.21995	0.99492	0.80768	3.3979	77.91	-0.2302	0.008	0.2382	1440.3077	0.15983	-419.212546	-419.203423	-419.202479	-419.246941	33.602	
C	-0.1034307592	 1.5758158519	-0.0069976545	-0.379431
C	-0.0809057758	 0.0463978862	-0.0435177497	-0.160547
C	 0.7912755923	-0.5091310028	-1.1868191879	-0.33612
C	 0.7957477393	-2.0049714859	-1.2626771378	 0.108255
C	 1.7734022566	-2.8889729944	-0.9406748724	-0.000201
O	 1.3734190937	-4.1552749822	-1.1145571162	-0.177073
N	 0.0568089733	-4.1455048693	-1.5916760343	-0.227094
C	-0.2736058501	-2.8753024452	-1.6653385739	 0.339009
N	-1.5531781495	-2.4865721989	-2.035472655	-0.588318
H	 0.9044863887	 1.9854947126	 0.1244943864	 0.114619
H	-0.5079958876	 1.9906359849	-0.9373124106	 0.111662
H	-0.7221286611	 1.9440203622	 0.8169053299	 0.116367
H	 0.2964422769	-0.3466970809	 0.907898588	 0.103964
H	-1.1000587067	-0.342967629	-0.1498212074	 0.115458
H	 0.4392504411	-0.0872119342	-2.139811706	 0.096477
H	 1.8200774018	-0.1494133617	-1.0676486472	 0.107148
H	 2.7832501226	-2.7595448354	-0.5801750753	 0.14238
H	-2.0786778925	-3.2398696446	-2.4603069188	 0.260487
H	-1.5785773637	-1.6533019832	-2.6070498874	 0.252957
64.251	88.5639	115.6518	232.6435	245.3154	278.9624	294.8307	320.9004	411.9038	449.7505	592.3783	670.8385	677.609	742.3801	762.0822	780.3275	845.7976	874.4486	898.396	916.2649	943.0774	1042.752	1093.3582	1111.0747	1135.0314	1173.6222	1232.0895	1255.8724	1303.4467	1320.6549	1336.1441	1386.9148	1412.1377	1469.3301	1484.4458	1494.2474	1498.6672	1511.699	1543.5618	1639.1865	1678.2507	2996.9964	3028.1084	3036.4851	3049.9805	3071.3585	3097.1337	3104.6173	3252.1634	3546.63	3644.7328
CCCC1=CON=C1N	CCCc1conc1N	
InChI=1S/C6H10N2O/c1-2-3-5-4-9-8-6(5)7/h4H,2-3H2,1H3,(H2,7,8)	InChI=1S/C6H10N2O/c1-2-3-5-4-9-8-6(5)7/h4H,2-3H2,1H3,(H2,7,8)
