21
gdb 87971	3.47185	1.07516	0.9836	2.9067	78.82	-0.2255	0.0747	0.3002	1302.9559	0.182229	-424.2161	-424.20714	-424.206196	-424.250296	34.54	
C	-0.1014977512	 1.4976428807	-0.0724458965	-0.411188
C	 0.1060677589	-0.0122260527	 0.0073434736	 0.034355
C	 1.0126723986	-0.5891664652	-1.087488515	-0.100665
O	 1.4194122234	-1.8645069509	-0.5952461651	-0.301981
C	 1.6075684087	-1.7249011947	 0.8084001613	 0.393431
C	 1.8017117162	-3.0132370856	 1.5589210618	-0.399314
C	 2.9885605266	-2.1060173112	 1.2708358582	 0.076526
O	 3.9222530271	-2.4702379122	 0.3046641742	-0.436452
C	 0.8198794	-0.5089925205	 1.2880917413	-0.33531
H	 0.8549155634	 2.0292773362	-0.0100809796	 0.118678
H	-0.5842811411	 1.784628312	-1.0127767289	 0.117947
H	-0.7350459748	 1.8538179081	 0.7458310126	 0.121697
H	-0.864120167	-0.5172620724	-0.0673466258	 0.085565
H	 0.5106906692	-0.7475068594	-2.0454654935	 0.111213
H	 1.8854979449	 0.063963169	-1.2510179055	 0.092165
H	 1.4195839432	-3.0783823683	 2.5732063626	 0.109901
H	 1.7432985733	-3.9292922413	 0.979845204	 0.123068
H	 3.4403300407	-1.5648631702	 2.0985350977	 0.094728
H	 3.4544357058	-2.4151355934	-0.5413977256	 0.288704
H	 1.493347228	 0.2638474287	 1.6763877697	 0.106024
H	 0.1118108359	-0.7587645668	 2.0828594984	 0.110909
27.4353	145.1135	195.9045	222.5548	244.701	283.6666	353.1156	408.6454	437.7416	460.5732	477.1162	607.8548	625.9926	763.222	816.6207	847.4668	854.7332	893.4629	926.7463	959.8759	965.9223	998.5909	1031.5158	1071.7594	1093.8197	1100.6242	1137.9999	1147.2198	1164.4477	1206.767	1223.484	1264.7436	1273.7834	1310.2316	1339.7329	1351.1582	1367.2952	1401.551	1413.7976	1425.9718	1481.7335	1495.7615	1496.9034	1499.5067	1515.9795	2971.8184	3028.6378	3033.0864	3039.9455	3088.2223	3093.2304	3099.4079	3102.9322	3120.0686	3138.1811	3216.0346	3724.8604
CC1COC2(CC2O)C1	C[C@H]1CO[C@]2(C[C@H]2O)C1	
InChI=1S/C7H12O2/c1-5-2-7(9-4-5)3-6(7)8/h5-6,8H,2-4H2,1H3	InChI=1S/C7H12O2/c1-5-2-7(9-4-5)3-6(7)8/h5-6,8H,2-4H2,1H3/t5-,6-,7+/m1/s1
