21
gdb 67736	3.21611	1.5177	1.33773	0.3432	87.11	-0.2163	0.0218	0.2382	1070.8616	0.182702	-349.938423	-349.930385	-349.929441	-349.970082	33.298	
C	-0.0269187275	 1.4893943792	 0.0607520028	-0.496484
C	-0.0016412745	-0.0174966878	-0.0352623988	 0.327508
C	 0.9711076915	-0.7097717872	-0.9349771698	-0.161459
C	 0.5458966965	-1.9476983491	-1.2004404902	-0.137835
C	-0.705402273	-2.2368079477	-0.393024586	 0.272823
C	-1.6245138534	-3.333779875	-0.8886043535	-0.496695
C	-0.2279164831	-2.2987646696	 1.1194812033	-0.265742
C	-0.4788880426	-0.8018437253	 1.221481717	-0.108678
C	-1.2794959832	-0.8123836597	-0.0612260366	-0.149413
H	 0.9051980995	 1.8786775726	 0.4861987997	 0.117762
H	-0.1587180854	 1.9456712474	-0.9268028123	 0.118661
H	-0.8485732044	 1.8321324062	 0.6980663191	 0.114786
H	 1.8982053999	-0.257500804	-1.2679487789	 0.089895
H	 1.0774941071	-2.7094696283	-1.759606822	 0.089548
H	-1.1026099884	-4.296946122	-0.9267182717	 0.115022
H	-2.4929837276	-3.4522706262	-0.2319751199	 0.112653
H	-1.9928704456	-3.1146134889	-1.8971385843	 0.117317
H	-0.958791528	-2.8445713396	 1.7241371484	 0.097293
H	 0.7768136372	-2.690612145	 1.3122015006	 0.086922
H	-0.6678837856	-0.2522869274	 2.137013311	 0.07969
H	-2.2639495995	-0.4202770124	-0.2942872181	 0.076426
190.6518	205.6204	218.4199	258.3163	294.0785	321.3107	388.4438	410.3615	548.9825	556.365	622.619	713.9181	726.4633	750.4496	817.6128	842.7596	857.2954	868.5772	902.5859	915.4757	949.9691	972.2287	993.2946	1015.1971	1046.3465	1083.394	1096.9515	1106.7322	1149.5601	1162.8341	1203.9361	1239.5293	1241.7642	1259.117	1321.9414	1348.9659	1395.1824	1413.3624	1418.2099	1481.5124	1490.091	1491.8624	1496.7692	1502.4878	1649.3391	3022.8392	3024.1817	3032.8111	3084.0309	3088.164	3088.7971	3094.2411	3096.7621	3158.719	3172.8624	3183.4619	3209.2763
CC12C=CC3(C)CC1C23	C[C@@]12C=C[C@@]3(C)C[C@@H]1[C@@H]23	
InChI=1S/C9H12/c1-8-3-4-9(2)6(5-8)7(8)9/h3-4,6-7H,5H2,1-2H3	InChI=1S/C9H12/c1-8-3-4-9(2)6(5-8)7(8)9/h3-4,6-7H,5H2,1-2H3/t6-,7-,8+,9-/m1/s1
