19
gdb 117877	3.91755	0.55521	0.51228	3.1267	85.38	-0.2698	-0.065	0.2048	2137.9837	0.155664	-423.004522	-422.993587	-422.992643	-423.04233	36.912	
C	-0.0988787594	 1.6009605039	 0.1983440735	-0.389675
C	-0.0345497307	 0.0774966122	 0.0653003084	-0.166823
C	-1.4212704357	-0.566866321	-0.022120339	-0.178429
C	-1.3523371854	-2.1078072846	-0.0893068236	-0.076251
O	-0.6808218915	-2.6734028053	 1.0301184254	-0.408436
C	-2.6910387153	-2.6771027207	-0.2608302898	 0.087029
C	-3.8105480658	-3.1266896945	-0.3393974457	 0.041666
C	-5.1404159849	-3.6609855004	-0.4789339586	 0.024394
O	-5.7750796606	-4.1611949151	 0.4212326144	-0.229038
H	 0.9041321693	 2.0346355377	 0.2539343843	 0.1177
H	-0.6117430211	 2.0558809249	-0.6563629612	 0.115571
H	-0.6399696761	 1.8976299217	 1.1037004855	 0.116599
H	 0.5427077142	-0.1913328668	-0.829264442	 0.09774
H	 0.5019790767	-0.3541594354	 0.9163381902	 0.116861
H	-2.028411713	-0.2847407833	 0.8485223802	 0.101999
H	-1.9588021222	-0.2026902732	-0.9061491732	 0.110355
H	-0.7369396966	-2.3906525777	-0.9531543085	 0.126941
H	-1.2626468572	-2.5909429442	 1.7946132266	 0.290169
H	-5.5555301047	-3.5772691283	-1.5039387869	 0.101626
38.199	65.9009	74.5584	93.5176	125.6449	192.9826	233.8105	249.2513	277.7841	316.3339	335.4781	392.9508	521.5741	565.181	662.0776	749.0965	827.3433	859.3665	906.7374	954.457	1020.9785	1043.0702	1079.4405	1101.8778	1116.9991	1157.0901	1240.4116	1266.4898	1296.0207	1333.009	1344.8307	1388.6554	1413.9749	1418.0248	1422.746	1477.1917	1494.0969	1500.2777	1510.7803	1767.5351	2318.0452	2920.0261	3016.7313	3025.3954	3030.9066	3034.6404	3060.8944	3078.758	3101.2863	3105.791	3800.2425
CCCC(O)C#CC=O	CCC[C@@H](O)C#CC=O	
InChI=1S/C7H10O2/c1-2-4-7(9)5-3-6-8/h6-7,9H,2,4H2,1H3	InChI=1S/C7H10O2/c1-2-4-7(9)5-3-6-8/h6-7,9H,2,4H2,1H3/t7-/m1/s1
