16
gdb 132987	2.43266	1.79555	1.03968	3.1504	77.58	-0.1919	-0.0271	0.1648	1081.2605	0.125616	-442.074335	-442.066612	-442.065668	-442.106494	29.641	
C	-0.0230251882	 1.447915688	 0.0311736258	-0.32627
N	-0.0057029774	-0.0093579178	 0.0015316468	-0.120836
C	-0.0301842473	-0.6911000461	-1.1836198345	 0.034669
C	-0.0150546327	-2.0466896129	-1.2418529926	-0.202278
C	 0.0279624443	-2.7803316243	-0.017497903	-0.205008
C	 0.0519008772	-2.1018653767	 1.1494314875	 0.187182
F	 0.0923116181	-2.739661579	 2.324826704	-0.078989
C	 0.0366555483	-0.6518949263	 1.2496256357	 0.29104
N	 0.0570821512	 0.0610843902	 2.3203421969	-0.590156
H	 0.8658926475	 1.8220545043	 0.5454152643	 0.156559
H	-0.0544153374	 1.8244750277	-0.9918218433	 0.122764
H	-0.8928666011	 1.80043334	 0.5913286513	 0.156439
H	-0.0623957515	-0.0700481692	-2.0696164742	 0.127987
H	-0.0352619511	-2.5519368311	-2.1968052552	 0.108545
H	 0.0416052189	-3.8643657623	-0.0086423942	 0.118092
H	 0.0870692212	-0.5526699046	 3.1315936647	 0.220259
110.654	158.1277	212.5395	281.4149	320.1073	359.5092	461.1772	486.9028	519.1985	562.4975	575.8145	711.4051	733.2447	756.6312	807.8688	872.9914	906.8601	918.6893	955.4561	1052.5247	1098.7921	1155.9156	1180.0207	1211.3744	1274.9448	1298.8395	1378.7325	1414.6691	1449.2988	1462.926	1482.3927	1517.7089	1610.9715	1643.3328	1706.4894	3053.8713	3118.0956	3151.1962	3198.154	3212.1114	3238.014	3517.7615
CN1C=CC=C(F)C1=N	CN1CC=CC(=C1[NH])F	
InChI=1S/C6H7FN2/c1-9-4-2-3-5(7)6(9)8/h2-4,8H,1H3	InChI=1S/C6H8FN2/c1-9-4-2-3-5(7)6(9)8/h2-3,8H,4H2,1H3
