19
gdb 73054	3.31094	1.07687	0.96189	4.2291	76.93	-0.2605	0.0054	0.2658	1283.6235	0.158144	-423.022427	-423.013548	-423.012604	-423.056416	32.566	
C	-0.1729600341	 1.5939164331	 0.2313474423	-0.498532
C	 0.003571826	 0.1162320791	 0.0254597037	 0.293392
C	-1.1516312844	-0.8853617576	-0.1437579705	-0.275235
C	-0.3672751284	-1.9365744837	 0.6997974982	-0.229348
C	 0.795232562	-0.949092809	 0.8403837407	-0.153494
C	 1.2576537451	-0.4808908115	-0.507553339	 0.061598
O	 1.2180370982	-1.2984395324	-1.6685213148	-0.192235
C	 2.0743374955	-2.3411213829	-1.7007917398	 0.173421
O	 2.1622593738	-3.0723009906	-2.6409886179	-0.276514
H	 0.7738190186	 2.0799423563	 0.4880887964	 0.119793
H	-0.5562401544	 2.0721568306	-0.6780534356	 0.130784
H	-0.884437201	 1.7981649072	 1.0389285272	 0.122291
H	-2.0630525353	-0.5495334264	 0.3553767533	 0.10539
H	-1.3888740842	-1.1590269686	-1.1744884997	 0.118754
H	-0.850692351	-2.1422319494	 1.6564935903	 0.110096
H	-0.1389775288	-2.8903850699	 0.214970239	 0.110607
H	 1.4221768457	-0.8294262071	 1.7174806216	 0.09015
H	 2.1192029266	 0.1825343619	-0.5012126138	 0.106777
H	 2.6692780404	-2.4340441892	-0.7726503816	 0.082303
58.6506	133.7676	141.7473	201.3155	212.0638	250.4318	282.9097	327.8125	469.6309	507.9992	606.1884	704.8374	765.6778	796.2185	818.3062	897.0925	953.9082	968.9562	974.8575	1007.9645	1013.44	1054.7074	1071.106	1105.8958	1146.1304	1160.3344	1172.1736	1221.0627	1244.329	1253.4231	1269.6796	1308.1583	1342.6803	1415.7472	1420.9325	1456.8016	1478.0453	1486.737	1498.4121	1509.0081	1865.3902	2963.9432	3024.2769	3057.6565	3068.8165	3085.3683	3099.5785	3108.3231	3126.2814	3139.3646	3169.2397
CC12CCC1C2OC=O	C[C@]12CC[C@H]1[C@H]2OC=O	
InChI=1S/C7H10O2/c1-7-3-2-5(7)6(7)9-4-8/h4-6H,2-3H2,1H3	InChI=1S/C7H10O2/c1-7-3-2-5(7)6(7)9-4-8/h4-6H,2-3H2,1H3/t5-,6+,7-/m0/s1
