18
gdb 69555	2.73245	1.56994	1.37087	1.9695	71.65	-0.2263	0.0592	0.2856	1018.501	0.146753	-439.001899	-438.993925	-438.992981	-439.033812	31.715	
C	-0.0826698515	 1.5368899744	 0.026544149	-0.519916
C	 0.1101876893	 0.0528679056	-0.0029633843	 0.342529
N	-0.7608921604	-0.871237879	 0.7605049951	-0.368422
C	 0.7011411253	-0.9069494752	 0.9839874383	-0.164563
C	 1.3122264357	-1.7685835276	-0.1422227821	 0.367976
O	 2.6614573745	-2.0236022891	 0.0691336187	-0.479346
C	 0.3947337805	-2.8115610479	-0.8346912732	-0.143345
O	-0.1102133101	-1.807457716	-1.75227623	-0.285661
C	 0.7127255302	-0.7805551725	-1.1779232593	-0.023042
H	 0.7921869771	 2.0570608144	-0.3778322811	 0.128004
H	-0.9536700923	 1.83319978	-0.5697374131	 0.135306
H	-0.2384312079	 1.8935715305	 1.0510075264	 0.118555
H	-1.168399572	-0.3290681728	 1.5224426595	 0.228139
H	 1.1385668877	-0.746701939	 1.9623024741	 0.097184
H	 3.0335298039	-2.3955329677	-0.7380262748	 0.286165
H	 0.9541458505	-3.5936306062	-1.3680047632	 0.082471
H	-0.3989326888	-3.2562736312	-0.2297530784	 0.12358
H	 1.3004667484	-0.2142185408	-1.9065994217	 0.074386
146.7406	200.6914	255.3244	258.135	296.1657	325.5554	357.0044	378.9694	497.4323	540.1118	586.0064	674.8995	754.3345	816.5112	842.2587	892.9594	902.6555	949.4609	993.3347	1001.0286	1009.5158	1042.2095	1069.5534	1079.6397	1090.761	1106.2494	1149.5921	1158.5987	1255.8888	1260.4875	1285.6231	1321.2766	1357.8344	1406.8365	1410.1862	1437.659	1481.6666	1492.5711	1497.3371	2999.1342	3022.2304	3069.8745	3086.578	3094.5222	3102.0959	3188.4428	3466.3314	3804.9526
CC12NC1C1(O)COC21	C[C@]12N[C@H]1[C@@]1(O)CO[C@@H]21	
InChI=1S/C6H9NO2/c1-5-3(7-5)6(8)2-9-4(5)6/h3-4,7-8H,2H2,1H3	InChI=1S/C6H9NO2/c1-5-3(7-5)6(8)2-9-4(5)6/h3-4,7-8H,2H2,1H3/t3-,4+,5+,6+/m1/s1
