20
gdb 23381	3.62441	1.08456	0.96234	0.4775	82.99	-0.2391	0.0135	0.2526	1285.9674	0.170461	-403.05891	-403.050154	-403.04921	-403.093023	33.144	
C	 0.2500105766	 1.4635447808	 0.022914338	-0.474578
C	 0.0326000465	-0.0234270509	 0.1333741557	 0.311245
N	-0.1485384812	-0.6356570628	 1.241888796	-0.170868
O	-0.1003059595	 0.2494992049	 2.3345980499	-0.40091
C	-0.0161553314	-0.8351548756	-1.1243999525	-0.0266
C	 1.2971701793	-1.1759875068	-1.922893556	-0.056012
C	 1.6256762569	-2.2260061942	-0.8243691464	-0.212387
C	 0.1015963866	-2.3869292856	-1.1160036303	-0.047026
C	 0.4655174267	-2.285022169	-2.6274396911	-0.226545
H	 1.203157533	 1.7455159708	 0.4834405399	 0.145837
H	 0.2579116572	 1.7846765851	-1.0206857959	 0.117879
H	-0.5301098208	 2.0063595949	 0.5647151786	 0.147411
H	-0.2727046936	-0.3393239515	 3.0765929192	 0.304284
H	-0.8120205921	-0.4410424091	-1.7711500574	 0.073692
H	 1.9802053008	-0.4649223713	-2.3908702489	 0.068979
H	 2.2644645527	-3.0569575197	-1.1355305886	 0.085586
H	 1.9008826826	-1.8554665583	 0.1623834919	 0.107612
H	-0.5895146271	-3.0859121665	-0.6461146271	 0.07586
H	-0.3259698067	-1.9552472374	-3.3068401731	 0.086445
H	 1.0328377934	-3.119936738	-3.0463998521	 0.090099
57.3585	70.5061	142.439	152.935	290.8354	348.9468	404.9961	411.7841	437.4529	548.5354	569.4649	709.6072	776.701	806.7999	847.594	879.357	902.1206	907.1279	926.0272	997.8312	1010.9462	1022.8849	1025.1577	1034.0348	1065.2992	1088.9126	1114.7196	1120.2909	1140.2447	1191.1294	1211.496	1235.1457	1242.4903	1248.9504	1276.738	1384.3511	1398.0341	1408.4088	1474.7825	1484.1438	1500.3825	1537.8082	1720.3686	3010.3473	3042.1473	3047.8432	3064.5307	3095.6615	3101.4914	3114.4447	3119.8963	3132.8095	3146.7113	3822.6026
CC(=NO)C1C2CC1C2	CC(=NO)[C@H]1[C@H]2C[C@@H]1C2	
InChI=1S/C7H11NO/c1-4(8-9)7-5-2-6(7)3-5/h5-7,9H,2-3H2,1H3	InChI=1S/C7H11NO/c1-4(8-9)7-5-2-6(7)3-5/h5-7,9H,2-3H2,1H3/t5-,6+,7-
