15
gdb 68697	2.02624	1.84359	1.13115	3.2663	74.71	-0.2456	-0.0348	0.2109	1077.2836	0.108853	-420.574509	-420.565946	-420.565001	-420.607635	31.863	
C	 0.0318526968	 1.524124802	 0.029578496	-0.494707
C	-0.0923354219	 0.0399806951	 0.1200799747	 0.311324
C	-1.3358480908	-0.8431693246	-0.0920759448	-0.414179
C	-0.7316136133	-1.8040161827	 0.9711916552	 0.361095
O	-1.1410557955	-2.7558280658	 1.5585653436	-0.280942
C	 0.5108112149	-0.9094778418	 1.1214247289	 0.127677
O	 1.0120637728	-0.7788513389	-0.2409776231	-0.304761
C	 1.3887184727	-0.7206013305	 2.2173273658	 0.183761
C	 2.0967501047	-0.5840394858	 3.1796705582	-0.393595
H	 0.9981471745	 1.8474508173	 0.42382079	 0.149935
H	-0.0446542559	 1.8513547887	-1.0129153845	 0.142086
H	-0.766213782	 2.0117837315	 0.5971897734	 0.136305
H	-2.2762133315	-0.419023535	 0.2734336301	 0.137098
H	-1.4667238336	-1.2312009808	-1.1040478995	 0.139482
H	 2.728737308	-0.4655137585	 4.025257486	 0.199423
102.2853	115.6082	149.0488	189.3676	272.6775	342.1487	375.0021	415.6723	525.1567	549.8642	584.001	611.7127	620.5898	644.3982	667.887	721.5239	828.074	835.2869	944.9589	985.2396	1031.6998	1076.9506	1141.8745	1188.1668	1193.7234	1285.4635	1402.3096	1430.8966	1459.1778	1479.6695	1490.2407	1906.2066	2239.7623	3041.339	3065.591	3106.8388	3129.2454	3132.3069	3499.0873
CC12CC(=O)C1(O2)C#C	C[C@]12CC(=O)[C@]1(O2)C#C	
InChI=1S/C7H6O2/c1-3-7-5(8)4-6(7,2)9-7/h1H,4H2,2H3	InChI=1S/C7H6O2/c1-3-7-5(8)4-6(7,2)9-7/h1H,4H2,2H3/t6-,7+/m0/s1
