17
gdb 76419	2.9231	1.18692	1.15835	1.2214	63.85	-0.2501	0.044	0.2941	1131.7098	0.134136	-496.040105	-496.031447	-496.030503	-496.073413	32.833	
O	-0.1390068492	 1.400878664	-0.0112818918	-0.444426
C	-0.1277725301	 0.0146804492	-0.1874699701	-0.003041
C	-0.3650343452	-0.7983283043	 1.0716952204	-0.010683
O	-0.6165117303	-0.0692171538	 2.2369474634	-0.441017
C	-1.4512718267	-0.6998323919	 0.0123439202	 0.306318
O	-2.5240787733	 0.1357046234	 0.3455614945	-0.480396
C	-1.8347494315	-1.8790034861	-0.8200283673	 0.010059
C	-1.683431354	-1.8861693036	-2.2806160325	-0.176223
O	-0.7480266474	-2.5694863242	-1.4389140036	-0.234306
H	-1.0670161546	 1.670162601	-0.0936560618	 0.295339
H	 0.5774766132	-0.3472263233	-0.9278879101	 0.1222
H	 0.1597641152	-1.7363387727	 1.2228159603	 0.119031
H	-0.2453514685	 0.8129873169	 2.0767296325	 0.297781
H	-2.4809074811	 0.2376861331	 1.3109191378	 0.295794
H	-2.5939021917	-2.5238386382	-0.3751565972	 0.100437
H	-2.3196615613	-2.5308398469	-2.8838359522	 0.122423
H	-1.2973691234	-1.0000920524	-2.7809065724	 0.120709
73.2643	149.166	180.9235	221.368	234.1403	306.2936	356.4807	422.8777	452.2579	465.0042	563.0761	617.823	688.112	699.1913	723.8384	847.1189	869.3161	879.5978	912.8692	1009.4111	1032.4727	1080.7045	1094.7704	1132.135	1150.6207	1157.2443	1170.2992	1220.8028	1250.8284	1285.898	1315.1482	1362.4453	1370.5419	1373.6998	1430.6132	1468.4937	1523.7474	3091.9719	3103.531	3162.3514	3175.2712	3183.7534	3670.3239	3694.3177	3704.6961
OC1C(O)C1(O)C1CO1	O[C@H]1[C@@H](O)[C@]1(O)[C@H]1CO1	
InChI=1S/C5H8O4/c6-3-4(7)5(3,8)2-1-9-2/h2-4,6-8H,1H2	InChI=1S/C5H8O4/c6-3-4(7)5(3,8)2-1-9-2/h2-4,6-8H,1H2/t2-,3-,4+,5-/m1/s1
