18
gdb 18726	3.21662	2.23191	1.52992	1.8492	67.2	-0.2482	0.085	0.3333	861.742	0.155112	-384.928186	-384.921073	-384.920129	-384.959261	27.877	
C	-0.0396917882	 1.5277433495	-0.05690559	-0.398421
C	 0.0391554083	 0.0103966507	 0.0112561684	 0.1082
O	 0.663012115	-0.4432868879	-1.1933637759	-0.247404
C	 0.8917312791	-1.8242979862	-1.1596811736	 0.014912
O	 1.9224626092	-2.1746121227	-0.2695410472	-0.245652
C	 1.7098548818	-1.693274405	 1.0315206669	 0.094156
C	 2.2815046171	-0.3419785895	 1.3696689898	-0.309155
C	 0.7845327909	-0.5167371562	 1.227813715	-0.070699
H	 0.962867076	 1.9631559701	-0.0778237517	 0.127396
H	-0.5731120482	 1.8383639166	-0.9595565475	 0.124286
H	-0.5707300652	 1.9200394758	 0.8156957154	 0.114909
H	-0.983746973	-0.4046181663	 0.0416720954	 0.068074
H	-0.0424147547	-2.3514091425	-0.8919405671	 0.075798
H	 1.2264795931	-2.1272359099	-2.1537199377	 0.116075
H	 1.7357212034	-2.4839226326	 1.7766816805	 0.095582
H	 2.6902563445	-0.1736890807	 2.359771817	 0.110281
H	 2.8068827863	 0.1526013786	 0.5601474943	 0.130736
H	 0.2012951745	-0.5043945918	 2.1438275181	 0.090926
120.7755	205.7551	225.9119	315.789	327.2006	408.9847	466.9372	542.7194	600.5806	731.2391	748.9759	804.7843	829.8378	876.5649	958.574	997.3508	1024.0398	1034.2585	1056.3873	1079.2396	1102.2097	1120.7969	1136.5593	1152.3301	1187.1608	1221.2319	1235.0004	1309.0459	1356.2426	1366.0127	1379.4693	1406.3333	1409.5348	1447.567	1473.7086	1483.9282	1496.2068	1512.4667	2933.2115	2946.7317	3044.8762	3112.8313	3118.9899	3125.5089	3134.4024	3137.2668	3152.4462	3228.3655
CC1OCOC2CC12	C[C@H]1OCO[C@H]2C[C@@H]12	
InChI=1S/C6H10O2/c1-4-5-2-6(5)8-3-7-4/h4-6H,2-3H2,1H3	InChI=1S/C6H10O2/c1-4-5-2-6(5)8-3-7-4/h4-6H,2-3H2,1H3/t4-,5+,6+/m1/s1
