16
gdb 110189	2.43598	1.22436	0.87348	2.4164	66.73	-0.2499	-0.0547	0.1952	1286.7731	0.122241	-475.0312	-475.0221	-475.021156	-475.06627	31.158	
C	-0.0022200725	 1.4893207082	-0.3709320015	-0.330504
N	 0.4802602755	 0.126224751	-0.1362168976	-0.296596
C	 0.6928925841	-0.6106313727	-1.359818243	-0.184644
C	 1.0177036691	-2.118609186	-1.1947712075	 0.022289
O	-0.2006728792	-2.4701631302	-1.9210364503	-0.25166
C	-0.5848133481	-1.153097605	-2.0247573667	 0.484608
O	-1.5895478831	-0.7210224776	-2.4833923949	-0.31131
C	 2.2617187475	-2.6133022323	-1.8954203413	 0.127992
O	 3.3214910503	-2.7262214986	-1.3383739018	-0.233014
H	 0.6715550821	 2.0970034772	-0.9987311306	 0.104508
H	-0.9760078129	 1.445451132	-0.8650782607	 0.16088
H	-0.1282096007	 1.9917002036	 0.5911591983	 0.130237
H	 1.3505555657	 0.1547401054	 0.3859286755	 0.236106
H	 1.3395207255	-0.1063540997	-2.1017229649	 0.101596
H	 0.9769451367	-2.4587334043	-0.1581618661	 0.134619
H	 2.1215597901	-2.8377491811	-2.9756630469	 0.104893
56.6933	75.8134	100.0685	165.0689	189.3042	231.0436	274.7434	369.407	417.9273	454.552	531.4832	694.3393	772.2811	798.2665	891.6894	908.7247	985.0334	1023.7353	1062.8726	1093.9917	1120.0674	1140.3054	1166.2231	1183.3191	1244.1073	1257.6554	1307.7666	1367.5617	1405.9103	1458.9068	1475.1638	1495.2613	1518.5943	1833.8961	1947.2775	2900.9665	2930.2085	2963.5836	3087.8468	3108.5813	3132.8234	3514.6171
CNC1C(OC1=O)C=O	CN[C@H]1[C@@H](OC1=O)C=O	
InChI=1S/C5H7NO3/c1-6-4-3(2-7)9-5(4)8/h2-4,6H,1H3	InChI=1S/C5H7NO3/c1-6-4-3(2-7)9-5(4)8/h2-4,6H,1H3/t3-,4-/m0/s1
