17
gdb 66074	2.12913	1.46139	1.15227	4.4024	73.05	-0.2537	-0.0461	0.2076	1123.6373	0.134631	-418.003106	-417.993988	-417.993044	-418.037586	32.437	
C	-0.2020436547	 1.5530343658	 0.1530979628	-0.452639
C	-0.0156972189	 0.0345848452	 0.0585527858	 0.136309
C	 1.0450243966	-0.41066201	-1.0036568968	-0.196116
N	 2.0452662419	-0.5648837069	 0.0761550942	-0.329953
C	 0.9902540655	-0.5851665172	 1.1050653208	-0.097692
C	 1.3107379622	 0.2153421535	 2.3530420133	 0.151072
O	 0.4786626738	 0.6133331381	 3.1255722147	-0.238453
C	-1.2975151094	-0.6502711027	-0.0328604048	 0.245863
N	-2.3113687881	-1.1993868909	-0.1185686014	-0.340329
H	 0.7746581956	 2.044248751	 0.1755984853	 0.13681
H	-0.7550145326	 1.9173423863	-0.7168650084	 0.136262
H	-0.7503000627	 1.8233663827	 1.0575999736	 0.162403
H	 0.7601673018	-1.3437543558	-1.5030512675	 0.121953
H	 1.3034353027	 0.3400546436	-1.7569266936	 0.121879
H	 2.6173587206	-1.3992264145	 0.0171414588	 0.233638
H	 0.653370226	-1.5850007009	 1.4159820157	 0.117841
H	 2.3975025599	 0.4165500928	 2.4898935175	 0.091153
53.943	82.757	146.3638	176.1296	203.5447	266.1358	286.3813	345.6503	419.1683	507.9289	553.8972	567.8821	635.1869	680.9624	851.4255	921.158	922.1408	953.6649	983.1708	1035.9946	1042.5242	1093.8877	1144.3067	1149.141	1188.7611	1216.2199	1263.8979	1324.4644	1343.7324	1377.8404	1402.528	1412.8864	1490.5009	1496.1702	1520.7352	1828.7492	2354.1539	2881.3648	2999.0648	3030.3345	3049.3375	3083.724	3124.1259	3142.0895	3542.2012
CC1(CNC1C=O)C#N	C[C@]1(CN[C@H]1C=O)C#N	
InChI=1S/C6H8N2O/c1-6(3-7)4-8-5(6)2-9/h2,5,8H,4H2,1H3	InChI=1S/C6H8N2O/c1-6(3-7)4-8-5(6)2-9/h2,5,8H,4H2,1H3/t5-,6+/m0/s1
