16
gdb 49300	2.61263	1.43707	0.95072	4.7296	74.13	-0.2351	-0.0807	0.1544	1174.2799	0.124766	-437.914762	-437.906744	-437.9058	-437.947681	29.405	
O	-0.9354773975	 1.2722367385	-0.1890146826	-0.269728
C	 0.1870110828	 0.8835863959	 0.0429844467	 0.089814
C	 1.38485964	 1.7692221235	 0.0184937564	 0.074543
C	 1.2603800008	 3.0755773491	-0.277925189	-0.084401
C	 2.4118269237	 4.0229609025	-0.2858012512	-0.222142
N	 3.5430989466	 3.4779678895	 0.446991826	-0.308511
C	 3.9028865426	 2.124886588	 0.0392662329	-0.281268
C	 2.725519436	 1.1759874411	 0.2492564743	 0.3449
O	 2.8857714853	 0.0022480438	 0.5120830566	-0.318252
H	 0.4010528079	-0.1718715616	 0.2912329278	 0.112345
H	 0.2735707648	 3.457928332	-0.5294854185	 0.14263
H	 2.6303888297	 4.2632665062	-1.34967692	 0.112655
H	 2.1061787238	 4.9707892127	 0.1746525939	 0.133668
H	 4.3426258595	 4.096022637	 0.3797829689	 0.233002
H	 4.1969998492	 2.0368910386	-1.0269972185	 0.105
H	 4.7416166347	 1.7647845031	 0.6392165365	 0.135745
80.4084	136.7449	201.3895	206.7903	279.4128	334.7323	347.6789	466.5679	495.0672	558.5282	644.7149	696.4966	789.3682	822.6926	868.6137	938.7033	989.5019	1012.6271	1036.6018	1066.3176	1118.55	1178.9492	1192.9231	1238.5396	1271.3539	1299.9871	1360.7714	1409.4595	1429.3089	1465.3339	1483.349	1489.8519	1665.755	1786.5021	1797.5256	2866.8827	2894.9206	2977.1007	3042.959	3104.998	3170.287	3547.7416
O=CC1=CCNCC1=O	O=CC1=CCNCC1=O	
InChI=1S/C6H7NO2/c8-4-5-1-2-7-3-6(5)9/h1,4,7H,2-3H2	InChI=1S/C6H7NO2/c8-4-5-1-2-7-3-6(5)9/h1,4,7H,2-3H2
