23
gdb 97966	4.57214	0.45894	0.4459	1.2705	92.99	-0.2398	0.0378	0.2776	2536.5072	0.202573	-388.264986	-388.253184	-388.25224	-388.30453	40.82	
C	-0.2204616703	 1.526985144	-0.0711654772	-0.383878
C	 0.0855354115	 0.0226621296	-0.0340003746	 0.04641
C	 0.9583922872	-0.3787039549	-1.2310273664	-0.394922
C	 0.7542754101	-0.412940817	 1.2816739338	-0.157329
C	-0.1331989988	-0.2436686226	 2.532767794	-0.373223
C	 0.497558878	-0.7378513949	 3.7511559971	 0.020497
C	 1.04356158	-1.1452007206	 4.743884751	 0.151441
C	 1.6874838666	-1.658555759	 5.9453926614	-0.216441
O	 2.2686830753	-0.5841686489	 6.677549901	-0.410012
H	 0.6997582891	 2.1142720553	 0.0346471771	 0.113874
H	-0.6836536239	 1.8068481083	-1.0230748522	 0.110852
H	-0.9038850626	 1.8321471753	 0.7268222241	 0.114193
H	-0.8687915453	-0.5186457714	-0.1177941368	 0.069901
H	 1.9301374041	 0.12813698	-1.1938293234	 0.11337
H	 1.146956373	-1.4572918893	-1.2445494895	 0.11019
H	 0.4803773753	-0.1083715131	-2.1783611796	 0.109349
H	 1.0422841626	-1.4679615862	 1.2065447746	 0.10074
H	 1.6853088518	 0.1497495522	 1.4267850985	 0.104629
H	-0.3918508251	 0.8129225566	 2.6727417054	 0.133627
H	-1.0859254749	-0.7682593504	 2.3757498985	 0.123905
H	 0.9410079361	-2.1945157929	 6.5547510624	 0.112876
H	 2.4513986655	-2.3997404495	 5.6575425016	 0.112443
H	 2.6816222348	-0.9632530805	 7.4602249096	 0.287509
13.8696	41.085	73.6808	100.5735	140.1809	202.2914	217.9811	233.0506	243.5174	268.5207	344.1348	355.0178	403.3409	429.9684	503.6609	556.3941	756.3058	774.7006	837.5415	927.3672	935.2041	962.6095	977.5973	1024.5538	1030.1124	1046.2302	1132.905	1140.4167	1156.4639	1193.253	1232.5825	1247.0439	1257.3503	1283.3007	1314.8105	1351.9896	1370.0668	1386.0961	1401.6734	1423.0198	1459.7144	1468.59	1485.5018	1489.0429	1497.1513	1504.024	1505.0599	1510.7184	2371.9458	2958.7336	2975.3666	2991.0678	3011.4362	3023.1341	3025.6468	3031.1328	3046.6335	3072.728	3088.417	3094.6208	3098.8197	3102.9725	3816.5304
CC(C)CCC#CCO	CC(C)CCC#CCO	
InChI=1S/C8H14O/c1-8(2)6-4-3-5-7-9/h8-9H,4,6-7H2,1-2H3	InChI=1S/C8H14O/c1-8(2)6-4-3-5-7-9/h8-9H,4,6-7H2,1-2H3
