18
gdb 91592	3.07674	1.12576	0.96754	3.2002	72.4	-0.2394	-0.0264	0.213	1239.4135	0.146605	-439.045635	-439.036942	-439.035998	-439.080021	32.026	
O	 0.2278788992	 1.3547845194	-0.0079949962	-0.434943
C	 0.2160929556	-0.030963742	 0.1853931325	 0.098384
C	 0.1632307171	-0.6014988997	 1.6570948889	-0.258542
C	-1.1772945326	-1.2429785038	 1.303415542	-0.116365
N	-2.0524696205	-0.1167676881	 0.8772044157	-0.389667
C	-1.1213967537	-0.7463809665	-0.0993910244	 0.316901
C	-1.6067496338	-1.2988132514	-1.4086308337	-0.43094
C	-2.009564982	-0.1908125586	-2.3729412189	 0.161311
O	-3.0112374074	-0.2095110038	-3.0393676876	-0.23943
H	-0.5862218195	 1.676773406	 0.4041395546	 0.291143
H	 1.0515501171	-0.4443887308	-0.3852402993	 0.09127
H	 0.9606328581	-1.3211483697	 1.8548017917	 0.107333
H	 0.1314756857	 0.1479853838	 2.4514598976	 0.110487
H	-1.6113581664	-2.1575423439	 1.6884106715	 0.101813
H	-2.983133428	-0.4926535903	 0.6973508622	 0.235474
H	-0.7945032746	-1.8675428588	-1.8853501818	 0.131647
H	-2.4567578694	-1.978052917	-1.283778752	 0.121529
H	-1.2955339648	 0.6605307653	-2.4180105927	 0.102596
44.4007	74.2103	120.6673	184.9806	281.7667	302.0338	384.5619	456.9232	470.9869	538.5762	598.9482	678.2216	700.5965	791.1743	822.7589	881.8409	920.7716	933.1214	953.6221	1016.8134	1034.8916	1057.6946	1080.5827	1106.139	1130.8044	1159.9256	1180.9744	1200.3666	1248.0353	1269.5464	1301.254	1320.4285	1355.909	1420.375	1429.7682	1449.2201	1449.9672	1478.7908	1834.9174	2900.7442	3007.8295	3067.2674	3080.9731	3084.3733	3128.3586	3193.5136	3475.3046	3747.0923
OC1CC2NC12CC=O	O[C@H]1C[C@H]2N[C@@]12CC=O	
InChI=1S/C6H9NO2/c8-2-1-6-4(7-6)3-5(6)9/h2,4-5,7,9H,1,3H2	InChI=1S/C6H9NO2/c8-2-1-6-4(7-6)3-5(6)9/h2,4-5,7,9H,1,3H2/t4-,5+,6-/m1/s1
