18
gdb 20101	4.47866	1.55074	1.40012	0.3824	72.13	-0.2368	0.078	0.3148	945.168	0.155802	-343.913124	-343.905975	-343.905031	-343.944733	27.622	
C	 0.021886706	 1.5284591356	 0.0001024675	-0.241785
N	 1.2498688333	 0.7214770154	-0.089193368	-0.3199
C	-0.0523480415	 0.0427709561	 0.0296801902	-0.124288
C	-0.295814253	-0.7126330272	 1.2831543517	 0.404241
C	 0.2638517746	-0.368373117	 2.6737437416	-0.308217
C	 0.3452281333	-1.9002334169	 2.9873494725	-0.237368
C	-0.219764374	-2.1877988937	 1.5901623598	-0.090335
N	-1.5044453212	-1.5245927071	 1.3842954298	-0.368986
H	-0.0805590616	 2.0946056585	 0.9218704422	 0.117415
H	-0.3411934502	 2.0398793651	-0.8874210736	 0.112708
H	 1.5778765142	 0.6845077257	-1.0501140782	 0.233433
H	-0.4621884884	-0.4410372753	-0.8543194415	 0.08729
H	 1.2493290029	 0.0971887386	 2.6203214163	 0.130741
H	-0.3883695381	 0.2408925198	 3.3091516293	 0.088695
H	 1.3752076378	-2.2404646267	 3.1160655176	 0.11024
H	-0.2545232683	-2.2737060858	 3.8246483102	 0.094764
H	 0.0240577837	-3.0281697953	 0.9494157588	 0.09067
H	-2.0158196394	-1.3728319799	 2.2527307838	 0.220681
73.1528	158.7765	182.617	282.3399	385.5697	454.6723	508.1998	618.5336	755.4706	785.4035	819.8874	866.7717	881.8063	903.2243	926.6387	947.2227	954.3373	972.0736	1032.7198	1058.0548	1061.159	1096.779	1116.5128	1135.3056	1175.1445	1177.6323	1217.5226	1229.6039	1243.4501	1253.3256	1283.6072	1284.374	1317.2786	1368.8766	1477.9513	1481.0992	1501.9294	1517.4995	3038.2297	3047.1779	3103.5836	3107.8085	3126.4443	3133.3171	3172.4992	3192.6629	3450.1446	3510.6507
C1NC1C12CCC1N2	C1N[C@H]1[C@]12CC[C@H]1N2	
InChI=1S/C6H10N2/c1-2-6(4(1)8-6)5-3-7-5/h4-5,7-8H,1-3H2	InChI=1S/C6H10N2/c1-2-6(4(1)8-6)5-3-7-5/h4-5,7-8H,1-3H2/t4-,5-,6+/m1/s1
