20
gdb 87908	2.38258	1.61402	1.23305	2.9943	80.08	-0.2413	0.0198	0.2611	1098.2931	0.171212	-403.125923	-403.117493	-403.116549	-403.158754	33.103	
C	-0.3136277583	 1.4455722145	 0.3676642352	-0.322564
N	-0.1045876921	 0.0066756331	 0.3711108046	-0.119169
C	 1.092535741	-0.5158687332	-0.2894317578	-0.306805
C	 0.9557769776	-0.6011730846	 1.1854962201	 0.280214
C	 1.7835188928	 0.1929829551	 2.1975585253	-0.350452
C	 1.3416977202	-0.4072607133	 3.5155783079	-0.073575
C	 0.6277212728	-1.5188787271	 3.3522579137	-0.096553
C	 0.4897305296	-1.899254969	 1.8921750227	 0.056511
O	-0.7940272587	-2.3100943662	 1.4895145647	-0.447198
H	 0.6168652701	 2.0331941409	 0.3507506261	 0.107548
H	-0.894034533	 1.7113551172	-0.5212604191	 0.129568
H	-0.8906591674	 1.7358423757	 1.2512413074	 0.131371
H	 0.9464367279	-1.3995424298	-0.9064243038	 0.12215
H	 1.7968172742	 0.212488009	-0.6908968523	 0.107472
H	 2.8597278356	 0.0460260116	 2.0316190914	 0.115625
H	 1.6117196188	 1.2734720334	 2.1425986428	 0.108381
H	 1.6188854727	 0.0318536556	 4.4677088388	 0.095061
H	 0.2151582684	-2.1373457196	 4.1405961841	 0.101173
H	 1.1859527281	-2.7220736711	 1.6613373453	 0.079764
H	-1.1583338002	-1.5375551722	 1.0218057628	 0.281477
72.6819	164.6993	191.1292	244.9387	280.0193	304.5592	437.9256	452.2306	465.3771	518.6384	529.4724	585.4102	691.6246	758.2687	775.4937	847.978	867.0911	919.2657	960.0698	978.448	1005.0166	1030.1519	1053.9789	1099.4387	1124.8213	1141.05	1150.3455	1163.5421	1184.5571	1210.4909	1245.3804	1257.657	1290.9199	1336.6579	1369.7638	1403.653	1443.7885	1452.4075	1482.7892	1491.3882	1502.3593	1511.2563	1683.592	2965.1902	2984.9973	3013.763	3060.8821	3072.4159	3085.2825	3106.2284	3172.3607	3184.941	3214.1556	3612.9773
CN1CC11CC=CC1O	CN1C[C@]21CC=C[C@H]2O	
InChI=1S/C7H11NO/c1-8-5-7(8)4-2-3-6(7)9/h2-3,6,9H,4-5H2,1H3	InChI=1S/C7H11NO/c1-8-5-7(8)4-2-3-6(7)9/h2-3,6,9H,4-5H2,1H3/t6-,7-,8?/m1/s1
