19
gdb 91060	3.94166	1.21822	1.12859	2.1482	81.85	-0.2294	0.0092	0.2386	1131.6028	0.160861	-385.841201	-385.833828	-385.832884	-385.872832	30.338	
O	 0.2045212797	 1.3943666599	 0.1398883959	-0.431055
C	 0.039880224	-0.0056404807	-0.0108050063	 0.135222
C	-1.4616688849	-0.4638150253	-0.081738259	-0.296026
C	-1.3611358549	-1.7477933881	-0.9180758486	-0.031341
C	-2.1203961243	-2.2443346153	-2.1793370148	-0.091061
C	-1.9992080128	-1.3046080887	-3.3393494428	-0.264793
C	-0.7947863221	-2.159843327	-2.981953781	-0.180356
C	-0.1650633153	-1.4863661343	-1.796468454	 0.331933
C	 0.645780382	-0.5518167175	-1.3127365949	-0.320918
H	-0.155267547	 1.8104691999	-0.6520270191	 0.271204
H	 0.5275730517	-0.4269621559	 0.8784995796	 0.092132
H	-1.9132324551	-0.5798560682	 0.9069392274	 0.097582
H	-2.0202761949	 0.3114004413	-0.6216429459	 0.091218
H	-1.1795458482	-2.6184739627	-0.2744447537	 0.08748
H	-2.8460362278	-3.0484629017	-2.1800447809	 0.088498
H	-2.5268930495	-1.6134807542	-4.2368851694	 0.115418
H	-1.9577026154	-0.2286394065	-3.1947299586	 0.108977
H	-0.3599697274	-2.8578295936	-3.6855419438	 0.098458
H	 1.5573908622	-0.1413092914	-1.7307448103	 0.097428
97.9572	204.4579	239.4025	330.5764	371.751	461.8644	480.6017	498.2043	596.4602	650.4526	684.6376	742.4674	817.6688	828.755	867.3612	879.3045	918.2142	927.2626	980.457	990.5278	1022.5103	1048.0322	1052.4608	1063.7824	1083.4951	1093.9006	1128.5862	1153.6259	1171.0756	1192.3198	1226.732	1248.3065	1272.9219	1295.4307	1317.4237	1336.5702	1357.7278	1426.0158	1479.7892	1486.678	1729.5977	3016.252	3018.2753	3033.0424	3100.9596	3114.3176	3183.9811	3193.08	3201.4466	3204.2992	3788.7412
OC1CC2C3CC3C2=C1	O[C@H]1C[C@H]2[C@H]3C[C@H]3[C]2[CH]1	
InChI=1S/C8H10O/c9-4-1-5-6(2-4)8-3-7(5)8/h1,4,6-9H,2-3H2	InChI=1S/C8H10O/c9-4-1-5-6(2-4)8-3-7(5)8/h1,4,6-9H,2-3H2/t4-,6-,7+,8-/m1/s1
