14
gdb 50025	3.30014	1.06436	0.98538	2.3879	64.5	-0.2729	-0.0566	0.2163	1188.5617	0.100048	-473.818904	-473.811043	-473.810099	-473.85206	27.918	
O	-0.2631703482	 0.514155237	 0.8551339989	-0.243209
C	 0.2833912632	 0.835788381	-0.1668881631	 0.184216
C	 1.4673373393	 1.7450788015	-0.2231845052	-0.191203
N	 2.2699319702	 1.6374548186	-1.4557382549	-0.365557
C	 1.5045721392	 2.8361591401	-1.2473286512	 0.114748
C	 0.4616092204	 3.4841217787	-2.1523249303	-0.146897
O	 1.0307461371	 4.7951860498	-1.8109476057	-0.245685
C	 2.0094942343	 4.2435456726	-1.0194731964	 0.438137
O	 2.8958128073	 4.7799659563	-0.439027192	-0.332613
H	-0.0521654781	 0.4784886379	-1.1654396997	 0.092455
H	 1.9547007168	 1.952534885	 0.7260199947	 0.13906
H	 3.2563425976	 1.7992981739	-1.2611346571	 0.26787
H	 0.5714366796	 3.2753795224	-3.2177782319	 0.145632
H	-0.5818323087	 3.4237517353	-1.8390754963	 0.143046
79.834	107.2567	167.8857	192.8813	263.2897	337.0716	388.4111	498.6873	544.1958	629.3351	737.0627	783.3201	832.0052	918.7593	960.1831	983.712	997.9703	1048.2638	1074.0132	1086.4429	1111.6913	1148.2626	1199.1691	1225.1067	1313.8949	1337.289	1401.3569	1479.8051	1510.3384	1832.7278	1941.1026	2896.9167	3081.4175	3147.3613	3160.2969	3498.5145
O=CC1NC11COC1=O	O=C[C@H]1N[C@]21COC2=O	
InChI=1S/C5H5NO3/c7-1-3-5(6-3)2-9-4(5)8/h1,3,6H,2H2	InChI=1S/C5H5NO3/c7-1-3-5(6-3)2-9-4(5)8/h1,3,6H,2H2/t3-,5+/m1/s1
