16
gdb 12974	2.40208	2.22667	1.87695	2.5801	59.94	-0.2386	0.0613	0.2999	813.8898	0.12982	-420.833755	-420.826082	-420.825138	-420.865107	29.832	
O	-0.2176720634	 1.4528860812	 0.0529627101	-0.430494
C	-0.1487380688	 0.0440585083	 0.0434359982	 0.005598
C	-0.4833988699	-0.8057586334	 1.2443645853	-0.167578
C	-1.556497971	-0.1077949895	 2.0845762782	-0.272484
C	-2.5104462803	-0.1056440845	 0.8357665906	 0.076585
O	-3.0664135192	 1.0978747397	 0.3782454548	-0.445504
C	-1.4013444684	-0.7649231474	 0.0046006899	 0.327137
O	-1.6065383727	-1.7654560399	-0.9282859903	-0.461202
H	 0.4801768611	 1.7896599669	 0.6255286349	 0.293247
H	 0.6445207946	-0.3615564648	-0.5838261399	 0.099584
H	 0.1776645241	-1.5959947672	 1.5781723648	 0.096953
H	-1.9333955534	-0.7144167219	 2.9100363142	 0.107903
H	-1.2952827268	 0.8851039625	 2.4603782618	 0.090549
H	-3.338892448	-0.8038891075	 0.9798106718	 0.098086
H	-2.3202491717	 1.687466703	 0.2068001905	 0.290617
H	-1.8061088861	-1.3518873354	-1.7759975848	 0.291003
164.1164	205.1596	233.6578	259.387	296.7942	340.1241	383.5774	430.4841	530.2708	565.5506	600.5038	668.3458	763.3332	812.9821	841.2351	907.0412	947.4736	994.1451	1026.3786	1060.1487	1109.8577	1116.8511	1157.8862	1192.8367	1217.9858	1231.0995	1283.7723	1297.6404	1314.1711	1328.939	1344.2563	1460.3446	1464.7368	1499.8706	3062.5432	3084.6771	3117.0422	3120.1523	3192.4811	3765.2393	3791.2895	3800.1937
OC1C2CC(O)C12O	O[C@H]1[C@H]2C[C@@H](O)[C@@]12O	
InChI=1S/C5H8O3/c6-3-1-2-4(7)5(2,3)8/h2-4,6-8H,1H2	InChI=1S/C5H8O3/c6-3-1-2-4(7)5(2,3)8/h2-4,6-8H,1H2/t2-,3-,4+,5-/m1/s1
