16
gdb 20567	4.52633	1.49652	1.1682	1.429	65.83	-0.2374	0.0204	0.2579	993.631	0.132124	-379.93995	-379.932309	-379.931365	-379.97237	28.274	
C	 0.1019438134	 1.3810728184	 0.9414195633	-0.399437
C	-0.111997832	 0.3037687731	-0.1248705279	 0.010802
O	 0.9094942263	-0.6928628446	-0.070714058	-0.424275
C	-1.4790564488	-0.3257845613	-0.0566498415	 0.185978
C	-1.7959463446	-1.6255078294	-0.4061577263	-0.129913
N	-3.1275326146	-1.7664795102	-0.2035220927	-0.179358
N	-3.716851232	-0.6478124127	 0.2563305952	-0.227505
C	-2.7191835683	 0.2276090191	 0.3462536603	-0.097318
H	 1.1156802439	 1.7819195348	 0.862249532	 0.123139
H	-0.6073146052	 2.2060663525	 0.8211525228	 0.12048
H	-0.0343163322	 0.9651965329	 1.9462438341	 0.112416
H	 0.0297470707	 0.7635741713	-1.1116770981	 0.103935
H	 0.8149147152	-1.1469241816	 0.7748514201	 0.274312
H	-1.1788104708	-2.428393932	-0.7751126657	 0.143777
H	-3.6890277154	-2.588601299	-0.3465123748	 0.274484
H	-2.9242908557	 1.2282082388	 0.6976549972	 0.108483
43.0147	178.8319	190.6016	255.5712	320.9542	355.6451	456.1827	482.4555	528.3694	627.1219	693.1287	714.9546	813.9627	886.719	894.7168	953.4749	991.3156	1035.3604	1055.6233	1094.3722	1114.2136	1168.5094	1241.4475	1283.4454	1301.6126	1354.5389	1377.2024	1402.0088	1411.5197	1423.7202	1488.0007	1492.8247	1498.3185	1602.9893	3021.4075	3033.18	3102.7005	3122.8423	3245.8728	3273.0157	3675.1028	3789.0228
CC(O)C1=CNN=C1	C[C@@H](O)c1c[nH]nc1	
InChI=1S/C5H8N2O/c1-4(8)5-2-6-7-3-5/h2-4,8H,1H3,(H,6,7)	InChI=1S/C5H8N2O/c1-4(8)5-2-6-7-3-5/h2-4,8H,1H3,(H,6,7)/t4-/m1/s1
