21
gdb 104440	2.94162	1.21988	1.1078	1.7809	73.85	-0.2591	0.0752	0.3344	1192.8421	0.183193	-461.365169	-461.356306	-461.355362	-461.398214	34.574	
C	-0.179214938	 1.6463389467	-0.0619183683	-0.428943
C	-0.0400300164	 0.1183483511	-0.0714757263	 0.323646
C	-1.4261976555	-0.5417711388	-0.0052911861	-0.077053
O	-2.1309386847	-0.1793657898	 1.1633447331	-0.42593
C	 0.755924687	-0.4102237094	-1.2798955391	-0.237409
C	 2.2589629672	-0.1921338343	-1.0860032253	-0.09987
O	 2.6763876313	-0.7320713242	 0.1611330796	-0.229991
C	 1.9786083514	-0.1299136894	 1.2152636206	 0.008784
O	 0.5926697055	-0.345563203	 1.146200573	-0.301311
H	 0.7856050663	 2.1571638259	-0.0174670067	 0.113091
H	-0.6885649507	 1.980752268	-0.9713947225	 0.11681
H	-0.779389175	 1.9510855385	 0.797581371	 0.136797
H	-2.032834216	-0.2218991076	-0.8592536616	 0.103912
H	-1.2922042513	-1.6325230576	-0.06860338	 0.090208
H	-1.5372494777	-0.3814183139	 1.8968579637	 0.29105
H	 0.5761121289	-1.4863961448	-1.3802831296	 0.109239
H	 0.4165366248	 0.0746443075	-2.2016107025	 0.100542
H	 2.8355531806	-0.7068129863	-1.858655572	 0.114627
H	 2.5119384022	 0.8796801225	-1.1328850084	 0.093586
H	 2.3201820321	-0.6004481965	 2.1399178009	 0.117983
H	 2.2028358781	 0.9518072454	 1.2405723864	 0.080232
120.1773	143.196	205.7837	211.7733	253.258	325.1418	352.7882	377.1273	417.3464	457.7266	464.7874	497.9598	571.6395	685.9844	729.8023	852.6908	877.7008	920.1618	935.0071	984.8997	1001.9137	1033.9451	1065.3948	1078.9477	1115.608	1148.5715	1181.7041	1197.4382	1232.6082	1247.5515	1271.2869	1298.4399	1330.3135	1375.2992	1381.6758	1399.2857	1410.2423	1430.7827	1449.2271	1468.6679	1486.2315	1495.9538	1497.9403	1507.2231	1517.8577	2941.8789	2976.1559	2986.4825	3038.3437	3049.7281	3075.4755	3087.4145	3095.8591	3106.1737	3115.1042	3140.1731	3790.5832
CC1(CO)CCOCO1	C[C@@]1(CO)CCOCO1	
InChI=1S/C6H12O3/c1-6(4-7)2-3-8-5-9-6/h7H,2-5H2,1H3	InChI=1S/C6H12O3/c1-6(4-7)2-3-8-5-9-6/h7H,2-5H2,1H3/t6-/m0/s1
