18
gdb 14239	3.31791	1.84605	1.82903	1.0127	67.46	-0.2432	0.0684	0.3116	857.0535	0.153246	-384.907969	-384.900396	-384.899452	-384.939606	28.837	
C	 0.4368505242	 1.5195764443	-0.0617882849	-0.409194
C	 0.1215274431	 0.0486977989	 0.0799759411	 0.138703
O	 0.8740708465	-0.8085091795	-0.8376085891	-0.316884
C	 1.2896767172	-1.676860692	 0.2309352264	 0.046331
C	 2.6451154574	-1.2879717374	 0.8548984679	 0.138702
C	 3.7310144237	-0.7005812826	-0.0161954291	-0.409193
O	 1.9777038404	-0.3057156367	 1.7109485901	-0.316884
C	 0.675019242	-0.7403990304	 1.2836178202	 0.046331
H	 1.4735983759	 1.7179330231	 0.2169847438	 0.13783
H	 0.2738947836	 1.8401972846	-1.0952210599	 0.12637
H	-0.219305939	 2.1111248999	 0.5858155997	 0.117701
H	-0.9533598766	-0.1397722798	-0.0572662172	 0.075919
H	 1.0575021511	-2.7276560083	 0.0486595511	 0.083225
H	 3.0393160754	-2.0993703099	 1.4841657912	 0.075919
H	 3.3065239975	 0.000422649	-0.7375186719	 0.13783
H	 4.4673273387	-0.1790234124	 0.6028006764	 0.126369
H	 4.2483940792	-1.4959597678	-0.5635100052	 0.117701
H	 0.0137917296	-1.0019258731	 2.1116771294	 0.083225
96.4458	204.4412	219.9175	234.4299	236.8817	357.2334	402.8722	548.7223	553.2646	652.3632	780.9568	808.3596	858.2629	884.011	910.7523	930.1322	969.4226	1009.6966	1055.0939	1090.3684	1094.2648	1109.9778	1145.1836	1148.4712	1192.1375	1234.0275	1293.2658	1294.2159	1325.9201	1343.599	1378.2159	1378.8303	1401.7504	1407.6769	1480.9155	1483.0408	1493.336	1499.6512	2995.4969	2996.8772	3041.9148	3042.1244	3087.5285	3100.9394	3108.086	3108.2473	3138.148	3139.7823
CC1OC2C(C)OC12	C[C@H]1O[C@H]2[C@@H](C)O[C@@H]12	
InChI=1S/C6H10O2/c1-3-5-6(7-3)4(2)8-5/h3-6H,1-2H3	InChI=1S/C6H10O2/c1-3-5-6(7-3)4(2)8-5/h3-6H,1-2H3/t3-,4-,5+,6+/m1/s1
