15
gdb 10109	2.20777	1.70301	1.00534	3.1017	64.62	-0.2617	-0.0023	0.2594	1117.4944	0.118277	-395.972878	-395.964016	-395.963072	-396.00741	29.988	
N	-0.0440769864	 1.4864364075	 0.0311168893	-0.51821
C	 0.0114906349	 0.033659013	-0.0581048947	-0.167341
C	-1.4202192017	-0.5100059427	-0.0216627845	-0.026061
O	-2.0724090502	-0.0360287625	-1.1978948763	-0.192112
C	-3.4307827586	-0.0137076248	-1.1851181476	 0.134642
N	-4.0461629044	 0.4035389985	-2.1993335999	-0.428928
C	-1.4419331051	-1.9832361231	 0.0338481776	 0.279386
N	-1.4586301039	-3.136779679	 0.0914773023	-0.307018
H	 0.892451589	 1.8653948522	 0.1191115974	 0.239481
H	-0.4377080617	 1.8623426635	-0.8259098786	 0.249987
H	 0.5016581066	-0.3672335724	-0.9591643852	 0.120461
H	 0.5450459692	-0.3619104452	 0.8118949977	 0.130647
H	-1.9190412513	-0.1134425194	 0.8717307721	 0.139932
H	-3.8670715823	-0.3753011628	-0.2454101801	 0.105614
H	-5.0510037842	 0.3696035973	-2.0415049593	 0.239519
47.6503	84.5953	121.1051	147.8995	206.1532	253.2016	278.2687	353.7273	473.4047	511.4111	550.2218	648.9765	820.5708	859.2169	870.564	976.1121	1004.4929	1039.4797	1073.2299	1103.305	1133.4675	1203.7666	1268.87	1282.5772	1343.8792	1366.5262	1425.3241	1428.8873	1495.661	1653.9855	1753.7442	2360.8411	2984.8223	3035.9845	3045.8797	3084.4899	3510.119	3524.8576	3590.1295
NCC(OC=N)C#N	NC[C@@H](O[CH][NH])C#N	
InChI=1S/C4H7N3O/c5-1-4(2-6)8-3-7/h3-4,7H,1,5H2	InChI=1S/C4H7N3O/c5-1-4(2-6)8-3-7/h3-4,7H,1,5H2/t4-/m1/s1
