22
gdb 91535	2.82378	1.352	1.1054	0.8607	86.59	-0.2165	0.0909	0.3074	1207.115	0.194162	-367.150624	-367.141857	-367.140913	-367.18435	34.28	
C	-0.2375591195	 1.5211582491	-0.3634675046	-0.415367
C	 0.0316296597	 0.03844278	-0.1417404972	-0.011058
C	 1.2444501501	-0.648111203	-0.8627083145	-0.249933
C	 1.7480335366	-1.139764533	 0.4979175611	-0.108173
C	 2.0171480621	 0.0489847247	 1.3951528944	-0.345992
C	 0.5987345806	-0.437814645	 1.2094523989	 0.38064
N	-0.2975388794	-0.9135672586	 2.2176478609	-0.15525
C	 0.2040224782	-1.2767556844	 3.5373534838	-0.23658
C	-0.5848640554	-0.02994056	 3.3517420893	-0.227381
H	 0.6471129346	 2.132045365	-0.1547231503	 0.111362
H	-0.5326186142	 1.7136118529	-1.4010628649	 0.112808
H	-1.0486636094	 1.8752130982	 0.2823919829	 0.11604
H	-0.8781372293	-0.5350481927	-0.3419719559	 0.081541
H	 0.9354461939	-1.4464661521	-1.5408139821	 0.101311
H	 1.9278020841	 0.0207117081	-1.3985273029	 0.090287
H	 2.1873780422	-2.1090195929	 0.7026064921	 0.085947
H	 2.4846290363	-0.1945460356	 2.3433790437	 0.108399
H	 2.358849613	 0.9915825008	 0.9721485901	 0.100694
H	-0.2539973094	-2.1596757352	 3.9743587953	 0.117012
H	 1.2640339553	-1.16715442	 3.7524254195	 0.113479
H	-0.0393472793	 0.9098164262	 3.4076451772	 0.114853
H	-1.6253319509	 0.0190620575	 3.6594517633	 0.115361
38.798	129.6868	204.32	212.4167	243.1265	286.169	346.1107	432.2563	453.4317	502.2735	617.9371	660.2241	789.3263	806.8138	838.3587	864.2339	875.1091	892.5191	926.5768	941.3642	974.53	1018.6307	1022.7891	1044.5832	1070.9702	1086.4569	1106.1856	1112.7805	1118.4981	1138.2881	1168.344	1173.3607	1186.1404	1217.8026	1228.2114	1248.6705	1291.1596	1310.7395	1367.4989	1401.6416	1413.7162	1477.8523	1489.9563	1495.7448	1496.9425	1504.5861	1517.4992	3026.7139	3036.9657	3060.4372	3091.1508	3096.5077	3101.1912	3102.9173	3105.7668	3108.1829	3177.4007	3181.3436	3194.8849	3199.0905
CC1CC2CC12N1CC1	C[C@H]1C[C@H]2C[C@@]12N1CC1	
InChI=1S/C8H13N/c1-6-4-7-5-8(6,7)9-2-3-9/h6-7H,2-5H2,1H3	InChI=1S/C8H13N/c1-6-4-7-5-8(6,7)9-2-3-9/h6-7H,2-5H2,1H3/t6-,7-,8+/m0/s1
