19
gdb 109465	2.18022	1.56426	0.95797	3.5773	77.71	-0.2459	-0.0297	0.2162	1225.5882	0.158525	-423.063769	-423.054831	-423.053887	-423.097608	33.431	
C	 0.0002229474	 1.5025490276	-0.016438555	-0.495195
C	 0.0105919066	 0.005906025	-0.0174184374	 0.316335
C	-0.0942985601	-0.7899610081	-1.0878010432	-0.18152
C	-0.0793076769	-2.2550268139	-0.747666822	-0.36807
C	 0.1477540581	-2.2431817066	 0.7654928347	 0.40148
O	 0.3828757999	-3.2083528888	 1.4562176678	-0.331602
C	 0.1114596664	-0.7936044728	 1.2647796427	-0.232025
C	 1.3296249434	-0.5123321667	 2.174895567	-0.06118
O	 1.2776637863	-1.2720435476	 3.3583122568	-0.424537
H	 0.9325459719	 1.9136544829	 0.3892777584	 0.135951
H	-0.1313814219	 1.8996171938	-1.026554838	 0.127149
H	-0.8106655688	 1.8912122933	 0.6126060012	 0.131188
H	-0.1986035574	-0.4304459268	-2.1058168627	 0.097054
H	-1.0228349551	-2.769131604	-0.9795649646	 0.139427
H	 0.7093882102	-2.8337475065	-1.2443104586	 0.13944
H	-0.7808062667	-0.6584279951	 1.8951196519	 0.114436
H	 2.2556413885	-0.6964537954	 1.6038841772	 0.086959
H	 1.3347201734	 0.542073174	 2.4705108545	 0.107753
H	 1.130019605	-2.1901135442	 3.0877021392	 0.296956
57.132	145.8129	173.7907	186.3718	244.6392	251.7291	286.1185	400.8277	484.4041	515.21	544.0117	558.811	615.7483	682.6323	758.2714	811.8118	912.8653	930.894	973.5674	987.8001	1036.538	1047.9389	1073.8148	1093.9947	1140.7178	1151.6963	1195.6585	1204.6013	1258.4706	1288.2607	1306.6458	1344.0727	1378.9779	1416.9852	1443.9834	1460.8285	1479.7465	1488.6215	1514.4547	1710.4597	1819.3806	2958.2497	2998.9151	3017.4225	3021.3807	3053.0003	3064.7535	3070.7215	3112.4523	3189.1264	3720.3106
CC1=CCC(=O)C1CO	CC1=CCC(=O)[C@H]1CO	
InChI=1S/C7H10O2/c1-5-2-3-7(9)6(5)4-8/h2,6,8H,3-4H2,1H3	InChI=1S/C7H10O2/c1-5-2-3-7(9)6(5)4-8/h2,6,8H,3-4H2,1H3/t6-/m0/s1
