18
gdb 18432	2.91118	2.00142	1.5417	0.8821	77.41	-0.2414	0.0492	0.2905	902.4308	0.153259	-310.607562	-310.59978	-310.598835	-310.639191	30.376	
C	-0.3450953953	 1.5208750166	-0.0030042057	-0.417657
C	 0.0194691036	 0.0418704901	 0.0074996262	 0.035652
C	 1.173248488	-0.5122084992	-0.9035350425	-0.268168
C	 1.7667631467	-1.222494703	 0.3202046714	-0.066015
C	 2.1835847803	-0.2119568131	 1.3682339877	-0.194934
C	 2.7842426515	 1.0575166237	 1.0636602189	 0.332911
C	 3.3418191147	 2.0979576352	 0.8273915505	-0.458132
C	 0.7165430959	-0.5872179391	 1.2250504834	-0.090223
H	 0.5253504424	 2.1524399017	 0.1841638327	 0.138308
H	-0.7715473531	 1.8054028536	-0.9716826026	 0.108337
H	-1.0954195981	 1.740176621	 0.7652315012	 0.109666
H	-0.8801544743	-0.5489252721	-0.196882314	 0.077292
H	 0.8158706643	-1.1922737932	-1.6789560934	 0.101006
H	 1.8264007248	 0.2367513357	-1.360818047	 0.110802
H	 2.1693766659	-2.2281882444	 0.3364686726	 0.0902
H	 2.6221726944	-0.6876918758	 2.2434565806	 0.112537
H	 3.8189558866	 3.0231910772	 0.6189370176	 0.193084
H	 0.2031727117	-1.0165313549	 2.0787051224	 0.085335
136.0967	140.644	209.5538	219.1315	298.3138	371.143	433.0821	542.0224	585.3461	606.4566	647.2036	692.8498	751.5685	777.3363	830.646	862.4324	929.4201	965.0815	973.7288	992.8357	1007.7228	1071.5475	1094.1702	1120.6178	1128.7418	1178.5484	1195.5882	1246.2015	1268.5399	1301.2736	1338.9943	1375.4318	1407.7347	1416.7734	1486.5258	1493.0181	1503.8712	2227.6207	3029.864	3039.9906	3059.7322	3087.5338	3116.2161	3125.359	3134.9905	3164.0939	3183.7912	3503.4458
CC1CC2C(C#C)C12	C[C@H]1C[C@H]2[C@@H](C#C)[C@@H]12	
InChI=1S/C8H10/c1-3-6-7-4-5(2)8(6)7/h1,5-8H,4H2,2H3	InChI=1S/C8H10/c1-3-6-7-4-5(2)8(6)7/h1,5-8H,4H2,2H3/t5-,6+,7-,8+/m0/s1
