18
gdb 87017	2.10945	1.53494	1.04475	1.7229	78.23	-0.2654	-0.0319	0.2334	1191.9786	0.145153	-401.98456	-401.974866	-401.973922	-402.01931	34.762	
C	-0.1458206781	 1.5499969007	 0.1542693906	-0.420864
C	-0.0371915486	 0.0460804286	 0.086160241	-0.012795
C	 1.2054483063	-0.6346214851	-0.3435765852	-0.301191
C	 0.7941150251	-0.7355074533	 1.1370882862	 0.052339
C	 1.5529682458	 0.0164053999	 2.0957161826	 0.215079
N	 2.15899949	 0.6185881019	 2.8770629007	-0.357743
C	 0.2140762972	-2.0664683928	 1.5668409165	 0.337529
C	 0.4256317385	-2.4935768972	 2.9997139839	-0.503165
O	-0.3961060925	-2.7373814856	 0.7646166658	-0.308704
H	 0.8009271673	 2.0109786243	 0.4477376801	 0.14308
H	-0.4268527653	 1.9458454949	-0.8271674203	 0.13253
H	-0.9094706229	 1.8601074665	 0.873886756	 0.135166
H	-0.9523338998	-0.4889706201	-0.1495661025	 0.129373
H	 1.1207832307	-1.5680412384	-0.8875028175	 0.152734
H	 2.082823456	-0.0326003625	-0.5519373026	 0.141226
H	 0.0170698082	-1.7441110349	 3.6863046684	 0.158588
H	-0.055650723	-3.4572149126	 3.1659359445	 0.146124
H	 1.4959867352	-2.5641592944	 3.2216954718	 0.160694
53.1691	140.3584	148.3216	151.9665	176.1478	190.1845	246.6213	340.1561	369.7841	410.3064	514.9892	563.8456	572.1493	620.2925	631.5294	766.9846	863.4887	910.0399	921.1677	963.1048	1027.0731	1039.5425	1061.2686	1089.7636	1133.4623	1177.6343	1204.7436	1267.6988	1302.1599	1386.2681	1395.2376	1424.5546	1456.1338	1468.7693	1470.9244	1489.3048	1498.9998	1795.6915	2342.5317	3041.4051	3042.48	3102.8293	3106.6893	3121.1188	3142.7828	3161.1307	3167.2522	3242.586
CC1CC1(C#N)C(C)=O	C[C@H]1C[C@]1(C#N)C(=O)C	
InChI=1S/C7H9NO/c1-5-3-7(5,4-8)6(2)9/h5H,3H2,1-2H3	InChI=1S/C7H9NO/c1-5-3-7(5,4-8)6(2)9/h5H,3H2,1-2H3/t5-,7+/m0/s1
