17
gdb 40346	3.63615	1.29771	1.23418	1.0515	71.8	-0.2336	0.0746	0.3082	1056.9231	0.136268	-421.725601	-421.718477	-421.717533	-421.757788	27.608	
C	 0.134351683	 1.4705954846	-0.082332007	-0.180524
O	 1.1677897846	 0.4983311459	-0.2508549024	-0.237361
C	-0.1718071386	 0.0352346164	-0.0132533731	-0.118689
C	-0.4173494028	-0.6641913521	 1.2559589281	 0.3565
C	-0.2997189355	-2.1337667456	 1.6856939368	-0.177607
C	 0.5612252428	-1.7542466818	 2.8907615758	-0.228566
C	-0.124234062	-0.3698256169	 2.7804695584	 0.006314
O	-1.51494296	-0.6429674255	 3.1216546423	-0.293368
C	-1.5982393846	-1.3364663058	 1.8790106712	 0.025889
H	 0.1833114677	 2.051612047	 0.8373982673	 0.115607
H	-0.1299235679	 2.0368958181	-0.9746048464	 0.116642
H	-0.639593679	-0.4264735117	-0.8847638052	 0.095209
H	-0.2396473011	-3.0078358034	 1.049734952	 0.096973
H	 0.4213643072	-2.2876413725	 3.8358486292	 0.10258
H	 1.6185763955	-1.7024189134	 2.6219037947	 0.11663
H	 0.2671569762	 0.5355441742	 3.238942156	 0.092062
H	-2.5693176354	-1.6120681576	 1.4890728423	 0.111711
65.3822	128.5796	159.5571	386.6646	396.6363	462.5199	564.2148	607.3305	764.0716	782.487	828.9723	829.7144	861.7344	901.8105	931.6706	936.3668	946.9239	978.3769	996.7268	1023.1843	1042.5049	1080.757	1094.6269	1113.8085	1143.0455	1155.0961	1164.373	1166.9482	1219.8698	1233.8076	1269.1641	1294.0732	1315.8327	1382.92	1479.647	1491.8402	1531.5937	3054.4077	3082.2438	3092.6863	3122.8835	3149.1915	3169.7322	3199.2631	3211.3281
C1OC1C12C3CC1OC23	C1O[C@H]1[C@@]12[C@H]3C[C@@H]1O[C@@H]23	
InChI=1S/C7H8O2/c1-3-6-7(3,4(1)9-6)5-2-8-5/h3-6H,1-2H2	InChI=1S/C7H8O2/c1-3-6-7(3,4(1)9-6)5-2-8-5/h3-6H,1-2H2/t3-,4-,5+,6+,7+/m0/s1
