18
gdb 31623	2.39016	1.47625	0.92429	1.8443	76.74	-0.1681	0.0587	0.2268	1254.9273	0.148102	-435.297134	-435.287482	-435.286537	-435.331955	34.081	
C	 0.0069850264	 1.3517261604	 0.0109233949	-0.233716
O	 0.0243951455	-0.0749688392	 0.0380745213	-0.276486
C	 0.6668411392	-0.6104528591	 1.086714243	 0.490077
N	 1.2517292399	 0.0344446854	 2.0686716844	-0.428484
C	 1.756163449	-0.9606740046	 2.8837250976	 0.274668
N	 2.510418946	-0.6071182556	 4.0070460829	-0.596162
C	 1.4631614375	-2.1988032348	 2.3807032092	-0.220572
N	 0.7462739467	-1.95640515	 1.1973669137	-0.084139
C	 0.2073630547	-2.9439464851	 0.2903807451	-0.347992
H	 1.0247448985	 1.7514848463	-0.0206470605	 0.139844
H	-0.5385130156	 1.6248969968	-0.8931995893	 0.126789
H	-0.4969075116	 1.7505371637	 0.8962976033	 0.136887
H	 2.2707729008	 0.3259212504	 4.3171430312	 0.244832
H	 2.4197091654	-1.2624243528	 4.7718013961	 0.238448
H	 1.6839721046	-3.1991978578	 2.710180409	 0.108019
H	-0.5201462544	-3.5867293906	 0.7982731263	 0.133776
H	-0.2910204047	-2.4280558292	-0.5302945496	 0.158739
H	 1.0038962121	-3.574537174	-0.1195572287	 0.135472
73.1359	86.2024	146.4513	156.3516	196.7919	208.2779	258.2772	275.0066	349.0993	395.4201	563.1121	584.7534	627.84	640.7961	663.2971	718.0226	772.6984	868.0982	1025.687	1059.5543	1075.1166	1110.1992	1154.4536	1183.9348	1206.3256	1226.8837	1256.9785	1357.7932	1409.6035	1450.6903	1458.3038	1476.939	1489.0581	1500.8337	1511.1946	1568.2236	1596.0755	1624.8043	1658.1462	3029.5798	3041.069	3081.1792	3111.5782	3148.616	3155.7065	3278.5031	3541.2074	3637.4565
COC1=NC(N)=CN1C	COc1nc(N)cn1C	
InChI=1S/C5H9N3O/c1-8-3-4(6)7-5(8)9-2/h3H,6H2,1-2H3	InChI=1S/C5H9N3O/c1-8-3-4(6)7-5(8)9-2/h3H,6H2,1-2H3
