17
gdb 64857	3.5517	0.97321	0.87024	1.3195	81.96	-0.2555	0.0258	0.2813	1338.9559	0.132637	-384.606506	-384.597286	-384.596342	-384.640317	35.247	
O	-0.0751838298	 1.4050708833	-0.0211165008	-0.475672
C	 0.0087682057	-0.0160804246	-0.0219703976	 0.209611
C	 0.2221158297	-0.584588326	 1.4189859758	-0.274615
C	-1.3306481653	-0.6344399123	 1.5871148633	-0.181839
C	-1.447218367	-0.5560098594	 0.0306606946	-0.251184
C	-1.9135721811	-1.769649384	 2.268643148	 0.336274
C	-2.3888764576	-2.7253294204	 2.8232543426	-0.472483
C	 0.8973395975	-0.5008942605	-1.0684257407	 0.264907
C	 1.656359839	-0.8923962589	-1.9152351784	-0.430341
H	 0.8235911085	 1.7505401657	 0.0234786452	 0.283351
H	 0.6555419973	-1.5859578317	 1.4020496849	 0.124205
H	 0.7831028235	 0.0549467761	 2.1034816928	 0.108678
H	-1.6867587808	 0.298670585	 2.0316534522	 0.116874
H	-2.1995961596	 0.113157959	-0.3879670705	 0.125087
H	-1.5278976746	-1.5470039924	-0.4168225423	 0.126028
H	-2.811163843	-3.5662643339	 3.3148671499	 0.194165
H	 2.3166789877	-1.240523855	-2.670894099	 0.196953
60.2485	144.6786	170.6022	182.0142	221.9419	320.8323	370.5922	387.5833	467.1362	483.24	539.4	571.8618	586.4511	620.8614	627.7352	628.9798	661.3083	712.2936	827.0567	898.9474	928.8056	972.1658	1005.3854	1037.5129	1070.9754	1128.9103	1137.8828	1229.5122	1249.0404	1250.925	1267.764	1348.8713	1367.8346	1456.951	1479.7165	2230.4931	2234.8173	3072.6357	3073.3487	3089.2374	3140.9534	3156.7592	3500.5265	3504.9204	3801.4072
OC1(CC(C1)C#C)C#C	O[C@]1(C[C@@H](C1)C#C)C#C	
InChI=1S/C8H8O/c1-3-7-5-8(9,4-2)6-7/h1-2,7,9H,5-6H2	InChI=1S/C8H8O/c1-3-7-5-8(9,4-2)6-7/h1-2,7,9H,5-6H2/t7-,8-
