20
gdb 103111	1.92367	1.52196	1.20439	4.2712	80.71	-0.2565	0.0315	0.2881	1178.3413	0.168377	-403.149885	-403.139624	-403.13868	-403.184696	36.96	
C	 0.0782180068	 1.2549639977	 0.3324134508	-0.25789
O	-0.0723934316	-0.0466134898	-0.2196997483	-0.272716
C	-1.3338379185	-0.613410175	-0.0943820313	 0.42157
C	-2.4562054344	 0.0934809974	-0.8244765371	-0.463438
C	-1.3252043227	-2.107228122	-0.0061741565	-0.085195
C	-0.0443286336	-2.9043113217	-0.0884326792	-0.411337
C	-1.6706121672	-1.2912758098	 1.2512246957	-0.288472
C	-0.7417549685	-1.2313352497	 2.3395442564	 0.315488
N	-0.0027498534	-1.1784789097	 3.2294523555	-0.359741
H	 1.1394859868	 1.4984158991	 0.2564158289	 0.13798
H	-0.497406354	 2.004596993	-0.225369519	 0.113019
H	-0.2184536169	 1.2807917101	 1.3874981304	 0.132552
H	-2.2046066308	 0.1924020491	-1.8854036926	 0.135056
H	-3.3874661388	-0.4733721423	-0.7437323306	 0.124121
H	-2.6401166486	 1.0934675991	-0.4201748718	 0.130109
H	-2.1922792936	-2.594778055	-0.4440873686	 0.098792
H	 0.7929677087	-2.3560450863	 0.3442498608	 0.153821
H	-0.1480232712	-3.8563336151	 0.4410147947	 0.126258
H	 0.1976634016	-3.1209647538	-1.1337255969	 0.124045
H	-2.7103287401	-1.2772291453	 1.5619190486	 0.125979
111.5826	120.7799	127.3832	161.8154	180.3975	193.4724	220.8091	240.0269	308.2847	372.2585	401.4015	418.8098	524.4206	612.8056	630.6019	702.6514	778.3826	819.188	928.3551	947.8276	1011.7167	1025.1338	1096.1287	1107.7539	1119.806	1134.6904	1148.3572	1182.0216	1207.8877	1248.4109	1304.7319	1350.83	1412.5038	1419.122	1439.9175	1476.9931	1482.5408	1489.1234	1490.6103	1499.4886	1506.142	1509.2218	2344.3982	3013.1527	3040.4772	3046.2944	3077.6221	3106.3281	3108.7839	3118.8948	3133.502	3137.4268	3154.1036	3163.4253
COC1(C)C(C)C1C#N	CO[C@@]1(C)[C@@H](C)[C@H]1C#N	
InChI=1S/C7H11NO/c1-5-6(4-8)7(5,2)9-3/h5-6H,1-3H3	InChI=1S/C7H11NO/c1-5-6(4-8)7(5,2)9-3/h5-6H,1-3H3/t5-,6+,7-/m0/s1
