21
gdb 57630	3.03628	0.97335	0.92226	4.2593	83.4	-0.2274	0.0356	0.263	1388.7691	0.181008	-383.259115	-383.249048	-383.248104	-383.294301	37.63	
C	-0.2553885451	 1.5176872158	-0.2453265471	-0.405252
C	-0.0312079326	 0.0121761236	 0.041474052	 0.110147
C	 0.8756285001	-0.1640953383	 1.2767604737	-0.399379
N	-1.2651548833	-0.7785943076	 0.209044769	-0.318654
C	-2.1052732206	-0.489794352	 1.3415186494	 0.064971
C	-3.1081914648	 0.6514737454	 1.3991354182	-0.274487
C	-3.572449341	-0.7801674084	 1.2448617848	-0.29649
C	 0.6621949545	-0.5738885869	-1.1272806935	 0.273826
N	 1.2000238713	-1.0046472116	-2.0547340328	-0.340198
H	 0.6972621607	 2.0265591666	-0.4181555245	 0.131711
H	-0.8796896477	 1.6544371753	-1.1328824466	 0.123115
H	-0.750734972	 1.9845562953	 0.6084356315	 0.134015
H	 0.4259115175	 0.326844956	 2.143406424	 0.12657
H	 1.013185386	-1.2243780401	 1.4989739276	 0.143141
H	 1.85231965	 0.2908188499	 1.0977089716	 0.134288
H	-1.8010576225	-0.7694067648	-0.6514769838	 0.226144
H	-1.638272258	-0.7556805905	 2.2848722053	 0.10321
H	-3.2744203274	 1.1529566829	 2.347061609	 0.113415
H	-3.1964129773	 1.29561418	 0.5312010284	 0.111668
H	-3.9624699587	-1.0781758615	 0.2762618523	 0.116877
H	-4.0582667091	-1.2701677192	 2.0807850415	 0.121365
38.1208	110.4926	129.1703	189.8515	218.7476	250.8945	270.5387	326.7407	334.0622	377.5297	418.3863	476.6338	571.0029	582.4089	668.6228	738.4772	761.3446	808.0672	850.344	889.9423	928.5419	938.8622	985.8955	1019.2059	1029.9569	1053.4167	1077.0917	1137.5264	1141.4666	1194.6515	1197.2056	1228.7049	1248.1209	1265.3647	1378.1166	1390.3528	1413.1903	1463.5986	1479.1695	1481.8729	1496.0649	1497.5499	1506.2856	1520.1214	2358.1129	3045.3643	3054.9826	3117.5662	3127.6877	3130.0121	3132.8341	3137.804	3141.3112	3154.854	3208.2532	3223.6119	3537.0782
CC(C)(NC1CC1)C#N	CC(C)(NC1CC1)C#N	
InChI=1S/C7H12N2/c1-7(2,5-8)9-6-3-4-6/h6,9H,3-4H2,1-2H3	InChI=1S/C7H12N2/c1-7(2,5-8)9-6-3-4-6/h6,9H,3-4H2,1-2H3
