21
gdb 63953	2.69957	1.60481	1.46132	1.4059	76.72	-0.2376	0.0721	0.3097	1014.7916	0.184147	-424.240925	-424.233	-424.232055	-424.272714	32.813	
C	-0.1779482949	 1.5718549939	-0.0280664604	-0.465266
C	 0.0208154546	 0.0571874286	-0.0166307856	 0.419837
O	-1.2498781276	-0.5814808371	 0.1590288878	-0.486266
C	 0.7644530564	-0.5003136988	-1.2838248118	-0.269427
C	 1.8891910555	-1.3493748379	-0.6610283045	 0.106014
C	 1.2286598534	-1.9146063429	 0.602571279	-0.23678
C	 0.9041993611	-0.4988689722	 1.1329063339	-0.062466
C	 2.3104489236	 0.1142393403	 1.0593346361	-0.089356
O	 2.8799022799	-0.444788534	-0.1389240412	-0.28341
H	 0.7589616204	 2.1139096729	-0.1798375915	 0.125434
H	-0.8484869325	 1.854646896	-0.848923988	 0.105046
H	-0.6338362386	 1.9077496696	 0.9084383545	 0.121173
H	-1.8184033782	-0.3079602769	-0.5687749025	 0.272221
H	 0.076557708	-1.1072350903	-1.8815290928	 0.090287
H	 1.1804471039	 0.2872986805	-1.9171242909	 0.10205
H	 2.3887772389	-2.04427206	-1.3366994279	 0.071235
H	 0.3350035044	-2.5081898984	 0.4107978576	 0.116793
H	 1.9281420812	-2.4698090331	 1.2322763191	 0.097511
H	 0.4266084531	-0.4244138282	 2.1101158856	 0.072634
H	 2.3226353727	 1.207325288	 0.9976351335	 0.097044
H	 2.9148325246	-0.18105857	 1.9277533099	 0.095692
116.4305	233.3654	270.6206	292.079	317.3967	376.0982	392.4755	436.6923	470.4769	483.2352	579.9223	689.6766	785.6518	793.6972	856.7554	878.7235	915.6786	930.4339	942.5938	950.8075	963.0954	974.4469	992.2714	1042.1873	1060.6314	1092.756	1115.4461	1151.6713	1164.3584	1213.4241	1216.4933	1240.9502	1265.802	1283.2273	1303.3285	1318.2463	1336.3997	1374.6534	1389.868	1409.4702	1461.9084	1489.3533	1494.6943	1495.0251	1536.5933	3009.6768	3027.8247	3047.1139	3063.4637	3077.2005	3092.043	3105.4647	3114.5701	3119.6896	3123.0343	3147.5801	3804.5595
CC1(O)CC2CC1CO2	C[C@@]1(O)C[C@@H]2C[C@H]1CO2	
InChI=1S/C7H12O2/c1-7(8)3-6-2-5(7)4-9-6/h5-6,8H,2-4H2,1H3	InChI=1S/C7H12O2/c1-7(8)3-6-2-5(7)4-9-6/h5-6,8H,2-4H2,1H3/t5-,6-,7+/m0/s1
