18
gdb 16454	3.17372	2.86127	1.84798	0.1326	75.67	-0.217	0.0091	0.226	771.0793	0.155182	-310.61619	-310.60986	-310.608916	-310.646012	26.822	
C	 0.0126511424	 1.5486500111	-0.0266666628	-0.51475
C	 0.0360269479	 0.0354533374	-0.0087935649	 0.340552
C	 0.4678040554	-0.698981506	-1.2773774728	-0.161469
C	 0.3895141755	-1.9919050743	-0.9635741974	-0.116732
C	-0.0853839733	-1.9809672678	 0.4785304351	-0.057468
C	 0.645146224	-0.789909666	 1.2006542136	-0.070476
C	-0.6275812133	-0.5327336823	 2.0406344861	-0.263658
C	-1.1429710551	-0.8244931447	 0.6120722828	-0.070479
H	 1.0078967772	 1.9504803301	-0.2481099858	 0.118418
H	-0.6697658271	 1.9180373624	-0.8005386542	 0.118417
H	-0.3099921376	 1.9731509272	 0.9282337603	 0.117933
H	 0.7640567494	-0.2278539634	-2.2050764192	 0.095856
H	 0.6041113967	-2.8645701075	-1.5642561659	 0.100911
H	-0.2450235496	-2.9150057146	 1.0183973164	 0.060545
H	 1.688463258	-0.7762116828	 1.5305977033	 0.062346
H	-0.8637613799	-1.2813915035	 2.8021381725	 0.087356
H	-0.7773914986	 0.4742069036	 2.4365951356	 0.090351
H	-2.178059232	-0.8509936291	 0.2578819373	 0.062346
202.234	266.1863	319.2845	396.1641	449.5778	502.1251	619.2544	681.3815	694.3383	767.2785	771.7581	807.7892	876.6056	883.4915	905.2154	906.5823	930.0353	970.0275	1013.7634	1048.4986	1060.3541	1080.4582	1080.5811	1113.1089	1142.9127	1181.4144	1186.7905	1202.1838	1223.4109	1242.4171	1284.8228	1304.2918	1342.7741	1415.1579	1492.9755	1493.3565	1526.4262	1640.4424	3029.2448	3052.2299	3064.0627	3073.2841	3086.5719	3105.3158	3113.0931	3113.3244	3212.4458	3242.0012
CC12C=CC3C1CC23	C[C@@]12C=C[C@H]3[C@@H]1C[C@@H]23	
InChI=1S/C8H10/c1-8-3-2-5-6(8)4-7(5)8/h2-3,5-7H,4H2,1H3	InChI=1S/C8H10/c1-8-3-2-5-6(8)4-7(5)8/h2-3,5-7H,4H2,1H3/t5-,6-,7+,8+
