17
gdb 37893	3.22937	2.14064	1.73135	2.5007	70.21	-0.2408	0.0885	0.3293	819.2316	0.139533	-421.764882	-421.759208	-421.758264	-421.794586	24.733	
C	-0.0673576329	 1.5455351891	 0.0335807283	-0.340405
C	 1.4812946561	 1.27987989	 0.0119626689	-0.130944
C	 1.2438367441	 0.0335484563	 0.9033497677	 0.111309
O	 2.1232775774	-1.0322906489	 0.5670111299	-0.275948
C	 1.8056799047	-1.1600621592	-0.8196653321	 0.176808
O	 0.6752101066	-2.0140519184	-0.9897020899	-0.281011
C	-0.5119057023	-1.3316542182	-0.4798817227	-0.195336
C	 0.074082864	 0.0140909349	-0.1256669106	 0.235817
C	 1.2587849288	 0.2339390485	-1.1213022476	-0.075583
H	-0.4923794134	 1.9159356184	 0.9709391924	 0.101473
H	-0.4729586914	 2.0890792351	-0.8226100169	 0.108033
H	 2.2777342632	 2.0206983433	 0.0885608941	 0.08116
H	 1.079176278	 0.1060360378	 1.9776058487	 0.086378
H	 2.6380348675	-1.5998338896	-1.364930145	 0.091644
H	-1.2733687419	-1.3014881839	-1.2674255161	 0.110576
H	-0.9026133159	-1.8909422943	 0.3768995093	 0.112842
H	 1.0471592673	 0.5254062892	-2.1489998083	 0.083189
245.0825	376.545	396.9335	442.7783	542.4317	622.2094	700.0201	738.0672	771.5176	821.0208	872.1726	886.2809	891.1584	906.0805	944.4745	962.804	985.7939	998.0487	1008.557	1040.8515	1068.0355	1078.9695	1089.3219	1129.3416	1143.0433	1194.6138	1199.4843	1207.712	1235.2744	1250.9019	1277.6768	1304.9137	1327.747	1367.5539	1374.0797	1515.2194	1518.7657	3030.284	3054.1988	3074.4494	3108.8413	3119.2343	3131.9141	3138.0896	3155.4937
C1C2C3OC4OCC13C24	C1[C@H]2[C@@H]3O[C@H]4OC[C@@]13[C@@H]24	
InChI=1S/C7H8O2/c1-3-4-6-8-2-7(1,4)5(3)9-6/h3-6H,1-2H2	InChI=1S/C7H8O2/c1-3-4-6-8-2-7(1,4)5(3)9-6/h3-6H,1-2H2/t3-,4+,5+,6-,7-/m1/s1
