21
gdb 102718	2.79968	0.85876	0.72413	1.8092	84.51	-0.2571	0.0471	0.3042	1624.7458	0.179821	-387.038894	-387.028611	-387.027667	-387.074954	37.133	
C	 0.5558766517	 2.1642778963	-0.3764286071	-0.392798
C	-0.134060235	 1.0413266705	 0.3990612562	-0.171747
C	 0.6700656199	 0.5405440877	 1.6226111163	-0.149707
C	-0.1453497227	-0.4942854302	 2.4344809524	-0.237193
C	 0.5407498065	-0.939682476	 3.7035929778	 0.090385
C	 0.2737673132	-0.2974677581	 4.9976095595	-0.176719
O	-0.28684668	-1.5730797158	 4.6819062449	-0.239872
C	 1.9662797638	-0.0060015018	 1.2189450942	 0.354183
C	 3.0187290358	-0.4739382267	 0.8720346315	-0.495616
H	 1.5292480749	 1.839831981	-0.7553083063	 0.133213
H	-0.0528718267	 2.4793027311	-1.2291764307	 0.114714
H	 0.7194917656	 3.042199315	 0.2586568458	 0.11322
H	-1.1114248174	 1.3839098853	 0.759721727	 0.097158
H	-0.3249787195	 0.1898149257	-0.2648573548	 0.107676
H	 0.8580377964	 1.4055307522	 2.275910576	 0.103755
H	-1.1164490005	-0.0586442706	 2.6937804765	 0.105288
H	-0.3414589053	-1.3695916333	 1.8034232489	 0.115212
H	 1.5112050571	-1.4167207077	 3.5673645827	 0.106509
H	 1.0365341544	-0.2992339654	 5.7750052379	 0.115486
H	-0.4399361489	 0.5245478436	 5.0519652942	 0.108583
H	 3.9540073464	-0.8786586227	 0.5731102369	 0.19827
59.0012	64.903	105.7272	129.7714	159.7681	212.6501	261.1311	295.595	323.3831	416.1498	425.8513	531.7603	592.7156	628.7952	639.2447	759.6054	809.0876	845.146	869.2669	892.3333	948.9318	991.0656	1015.2906	1050.749	1086.9404	1120.7401	1129.4984	1144.3877	1155.265	1182.8008	1225.6691	1269.4964	1290.1309	1293.4518	1351.2783	1367.0355	1370.1603	1413.0071	1444.8886	1480.2393	1489.3688	1497.5654	1508.168	1530.3394	2228.6621	2996.196	3027.3598	3035.3105	3035.7245	3065.8794	3078.3224	3081.2891	3102.4366	3117.2898	3118.2625	3164.8908	3502.5155
CCC(CC1CO1)C#C	CC[C@@H](C[C@H]1CO1)C#C	
InChI=1S/C8H12O/c1-3-7(4-2)5-8-6-9-8/h1,7-8H,4-6H2,2H3	InChI=1S/C8H12O/c1-3-7(4-2)5-8-6-9-8/h1,7-8H,4-6H2,2H3/t7-,8-/m0/s1
