21
gdb 108612	2.53579	1.15861	0.89051	0.7188	82.03	-0.2364	0.0119	0.2483	1357.3184	0.181879	-424.24054	-424.230622	-424.229678	-424.275607	36.533	
C	 0.1126709864	 1.5501632474	 0.0954968867	-0.496159
C	 0.0732997302	 0.0593474667	-0.0353672007	 0.154229
C	-0.0547676084	-0.6989776337	-1.1336226474	 0.181719
C	-0.1660470507	-0.25229988	-2.5602260977	-0.169706
O	 0.8290394871	-0.8502934703	-3.3932189451	-0.4132
C	-0.1190157461	-2.1767321777	-0.7962796367	-0.296762
C	 0.3358846385	-2.2299243917	 0.6761882919	-0.247745
C	 0.1152332202	-0.800314827	 1.220919559	 0.076991
O	 1.0763763946	-0.3838966273	 2.1844708611	-0.430852
H	 0.2366140522	 2.058617676	-0.8634959374	 0.11916
H	-0.8121419173	 1.9240919437	 0.5548744314	 0.130663
H	 0.9265865563	 1.8511958902	 0.7631681372	 0.131084
H	-1.1220042166	-0.5814069349	-2.9865167551	 0.114048
H	-0.1393787177	 0.8436134259	-2.6367326689	 0.092072
H	 1.6861276818	-0.5962201766	-3.0352361454	 0.279144
H	-1.1484011779	-2.5456622777	-0.9114797385	 0.105013
H	 0.4983916243	-2.7803865443	-1.4683650518	 0.113192
H	-0.173438613	-2.9941822164	 1.2676047437	 0.103343
H	 1.410159541	-2.4472257247	 0.7273030066	 0.090972
H	-0.8400740405	-0.7207624249	 1.7587146283	 0.091045
H	 1.9464411457	-0.4747558726	 1.779190969	 0.271749
61.7707	91.6552	128.9737	136.5217	230.8757	249.6762	275.1428	334.6388	349.7763	385.1283	445.1936	467.2485	574.9272	620.5199	638.7421	734.2911	850.5184	875.3947	936.9336	965.2767	996.9921	1022.9102	1041.8644	1065.1494	1075.3877	1105.2745	1141.4473	1170.7872	1218.8102	1228.8263	1256.2117	1271.0658	1311.4323	1328.011	1348.5579	1369.3987	1410.1239	1413.206	1425.1882	1474.1825	1483.7615	1486.2383	1501.1392	1502.9032	1732.2481	3003.8835	3006.877	3008.7837	3022.5749	3032.2446	3049.652	3075.7024	3077.5219	3103.4737	3120.2046	3790.486	3810.0458
CC1=C(CO)CCC1O	CC1=C(CO)CC[C@H]1O	
InChI=1S/C7H12O2/c1-5-6(4-8)2-3-7(5)9/h7-9H,2-4H2,1H3	InChI=1S/C7H12O2/c1-5-6(4-8)2-3-7(5)9/h7-9H,2-4H2,1H3/t7-/m1/s1
