20
gdb 113501	3.35655	0.99749	0.87642	2.1067	82.55	-0.2423	-0.0278	0.2145	1402.8961	0.17004	-403.14138	-403.132148	-403.131204	-403.1759	33.984	
C	 0.3711003613	 1.5513908122	 0.1555690045	-0.377583
C	-0.1988787925	 0.1644478495	-0.1652343157	-0.18164
C	 0.5002921478	-0.4783822231	-1.3400648013	-0.069953
N	 1.7617305408	-1.1652810227	-1.0632923861	-0.378649
C	 0.6081257873	-1.9636153069	-1.4798452325	 0.242874
C	-0.0773503387	-3.1166954355	-0.7271670241	-0.32721
C	-0.3642441083	-3.8119009577	-2.1001386717	-0.347204
C	 0.465506574	-2.7038504116	-2.7832999596	 0.337975
O	 0.898936541	-2.5212482418	-3.8873486919	-0.319113
H	 1.4367453256	 1.4822942682	 0.3937436614	 0.132449
H	 0.258879493	 2.2331041431	-0.6946261955	 0.115194
H	-0.1415410371	 1.9991986802	 1.0119925363	 0.114913
H	-0.0957007494	-0.4898337829	 0.7068371125	 0.108674
H	-1.2712464739	 0.2405880217	-0.3862424796	 0.099494
H	 0.4317881406	 0.0668015365	-2.2821735629	 0.100955
H	 2.4017895323	-1.0804971962	-1.8522419069	 0.245982
H	 0.607894998	-3.6771288717	-0.0881984342	 0.122261
H	-0.9608221269	-2.8413587685	-0.1484425516	 0.112764
H	 0.0346362692	-4.8210686745	-2.2298493016	 0.134122
H	-1.4137022343	-3.8103100584	-2.4082042796	 0.133696
71.8484	88.9553	128.6023	131.1307	225.9371	251.4001	270.1903	390.612	446.44	504.1211	555.4658	621.0364	730.121	755.7434	773.495	802.8803	881.4858	919.9864	960.0534	961.6942	1014.2154	1047.4056	1058.0315	1081.6589	1094.8717	1110.0316	1128.8779	1187.4722	1211.8072	1234.9614	1238.6168	1263.4847	1305.1473	1333.5251	1363.7999	1407.1386	1438.9132	1469.6823	1477.9878	1487.787	1498.7545	1508.2087	1873.334	3028.357	3035.8189	3065.9155	3072.8892	3078.6165	3102.4932	3109.4114	3115.6658	3115.8626	3134.0131	3472.8761
CCC1NC11CCC1=O	CC[C@H]1N[C@]21CCC2=O	
InChI=1S/C7H11NO/c1-2-5-7(8-5)4-3-6(7)9/h5,8H,2-4H2,1H3	InChI=1S/C7H11NO/c1-2-5-7(8-5)4-3-6(7)9/h5,8H,2-4H2,1H3/t5-,7+/m1/s1
