14
gdb 54890	2.65973	1.65896	1.08996	3.9447	63.26	-0.2504	-0.0327	0.2178	1031.1906	0.102508	-470.081304	-470.073626	-470.072682	-470.114065	28.513	
N	-0.0970018005	 1.2605721355	 0.31620375	-0.521002
C	 0.1136721668	-0.016843583	-0.1079849634	 0.378378
O	 1.1514310266	-0.4369764286	-0.5599293185	-0.330688
C	-1.1763443276	-0.8810621855	-0.0208580074	-0.228022
N	-0.9462082502	-2.3038530571	-0.2490963896	-0.201851
C	-1.4355431289	-2.9044143545	 0.7625662371	 0.065522
N	-2.011963823	-2.0853196095	 1.7361626465	-0.335223
C	-1.8874413454	-0.7681605046	 1.3393464322	 0.424901
O	-2.2502977621	 0.2169216453	 1.9451826082	-0.378501
H	 0.7151090512	 1.853788536	 0.3827706807	 0.261913
H	-0.8945261523	 1.4599061058	 0.9068934722	 0.278909
H	-1.8527380965	-0.4917292823	-0.7934746498	 0.159219
H	-1.4333703836	-3.9802254344	 0.9003427401	 0.150688
H	-2.4087403645	-2.3753810633	 2.6156586017	 0.275757
57.7884	109.1461	215.3203	255.4096	391.6416	422.2564	472.9424	513.7174	547.7068	571.2346	625.871	665.7319	682.8404	724.2919	870.8925	897.7188	948.7361	958.6553	1054.1181	1069.3338	1136.5359	1190.1277	1216.5394	1249.0941	1320.8343	1356.3885	1393.589	1629.7318	1680.2862	1823.1514	1833.4525	3037.5575	3204.4405	3532.0705	3651.2013	3685.2811
NC(=O)C1N=CNC1=O	NC(=O)[C@H]1N=CNC1=O	
InChI=1S/C4H5N3O2/c5-3(8)2-4(9)7-1-6-2/h1-2H,(H2,5,8)(H,6,7,9)	InChI=1S/C4H5N3O2/c5-3(8)2-4(9)7-1-6-2/h1-2H,(H2,5,8)(H,6,7,9)/t2-/m1/s1
