20
gdb 94863	2.81001	1.71387	1.3415	1.2822	78.5	-0.2341	0.0561	0.2903	1020.6834	0.173054	-403.038874	-403.031438	-403.030494	-403.070473	30.324	
C	-0.1370011846	 1.6147705612	-0.1818326487	-0.41193
C	-0.0379839064	 0.1022848625	 0.0334486588	-0.070424
C	 0.6374644821	-0.675364158	-1.1818113595	-0.115379
O	 1.5266053047	-1.704052682	-0.6741988672	-0.316854
C	 1.8925763064	-1.172397923	 0.5583213035	 0.383333
C	 2.3810442202	-1.5570235103	 1.9747375136	-0.246068
N	 1.9671347177	-0.0625028733	 2.1134417383	-0.175716
C	 2.7042203303	 0.1284578171	 0.7849721359	-0.240426
C	 0.7278228172	-0.5071738799	 1.2311517688	 0.006045
H	 0.8314099211	 2.0840188643	-0.373528987	 0.127654
H	-0.7805768162	 1.8341375083	-1.0410200161	 0.118561
H	-0.5757129551	 2.1017028258	 0.6939265116	 0.131314
H	-1.0631483096	-0.2681231548	 0.1350287062	 0.091305
H	-0.0953561796	-1.1694199558	-1.8235412173	 0.114736
H	 1.2169306844	 0.029561128	-1.7931771605	 0.10258
H	 1.7667442137	-2.2410819678	 2.5636932958	 0.111814
H	 3.4493867396	-1.7097768546	 2.142886831	 0.108639
H	 3.7899732855	 0.0434865995	 0.8737552015	 0.100186
H	 2.4272655843	 1.0379712773	 0.256259703	 0.10426
H	 0.0756447142	-1.1358344544	 1.8404570482	 0.076371
121.2054	188.7005	217.9002	280.218	377.021	422.4193	468.7026	528.8496	581.1001	639.9814	706.387	754.5041	817.1322	829.3534	875.936	907.8171	926.5136	941.7854	974.077	992.521	1012.8735	1050.8012	1077.3933	1104.033	1119.1732	1156.5925	1162.3508	1170.204	1183.5465	1215.5019	1233.3039	1250.4984	1275.9061	1316.5134	1355.1344	1382.3869	1403.3402	1422.5592	1493.6039	1496.0655	1507.4789	1514.2899	1555.3688	3012.6935	3038.3851	3042.1743	3064.5617	3075.0428	3084.0492	3101.5514	3105.0605	3120.0292	3139.84	3167.5533
CC1COC23CN(C2)C13	C[C@H]1CO[C@@]23CN(C2)[C@@H]13	
InChI=1S/C7H11NO/c1-5-2-9-7-3-8(4-7)6(5)7/h5-6H,2-4H2,1H3	InChI=1S/C7H11NO/c1-5-2-9-7-3-8(4-7)6(5)7/h5-6H,2-4H2,1H3/t5-,6-/m0/s1
