17
gdb 65194	2.84489	1.43662	1.15197	3.358	68.82	-0.2558	-0.0314	0.2245	1089.9034	0.132641	-458.919992	-458.911215	-458.91027	-458.953554	31.956	
C	 1.0090533221	 0.0717696784	-0.8181020632	-0.482885
C	 0.2638694795	-0.418831046	 0.4030680784	 0.391093
C	 0.8655591081	-1.4163010516	 1.3018636842	-0.230616
O	 0.8363880901	-0.0279532968	 1.6610386253	-0.26909
C	-1.2404237876	-0.2989810483	 0.3055957686	-0.002758
O	-2.0706880228	-1.3687965083	 0.7575220334	-0.227679
C	-2.132220775	-0.1496042443	 1.4785174417	-0.046976
C	-1.6479069392	-0.1542713256	 2.9046014375	 0.149097
O	-1.3711742032	-1.1469463341	 3.524828273	-0.245471
H	 2.0866411695	-0.0067398437	-0.6607001242	 0.135831
H	 0.7387015881	-0.5172736426	-1.7010336591	 0.131973
H	 0.7692119811	 1.1205292906	-1.0258728097	 0.130095
H	 0.2176314856	-2.0570189546	 1.8934692218	 0.15722
H	 1.8535611606	-1.8088556248	 1.0656640542	 0.116469
H	-1.5857615696	 0.1534270699	-0.6252890469	 0.09305
H	-3.0414889929	 0.4421393032	 1.3359171791	 0.113626
H	-1.6291764043	 0.8562946387	 3.3670369459	 0.087021
74.5126	140.6174	148.4261	198.8052	213.4236	277.1915	306.9196	355.2322	374.8379	522.9325	568.5132	700.7286	737.0174	780.8435	832.4691	877.9437	928.3461	944.2067	974.4462	999.8225	1030.6096	1096.9581	1112.5854	1137.9675	1150.7395	1178.1191	1229.9298	1284.7018	1380.9964	1402.5074	1415.0201	1417.1746	1465.8263	1483.0464	1494.3421	1526.8436	1827.4458	2899.3627	3035.1829	3068.5747	3094.6753	3098.0096	3100.7083	3132.3032	3201.8039
CC1(CO1)C1OC1C=O	C[C@]1(CO1)[C@H]1O[C@H]1C=O	
InChI=1S/C6H8O3/c1-6(3-8-6)5-4(2-7)9-5/h2,4-5H,3H2,1H3	InChI=1S/C6H8O3/c1-6(3-8-6)5-4(2-7)9-5/h2,4-5H,3H2,1H3/t4-,5-,6-/m0/s1
