16
gdb 6883	2.67832	1.59259	1.3353	3.6072	63.11	-0.2423	-0.0221	0.2202	977.9841	0.126956	-420.861814	-420.852977	-420.852033	-420.894887	32.099	
C	-0.0513679593	 1.5912880678	-0.1259022749	-0.455141
C	 0.0136224144	 0.0854871241	-0.0191572132	 0.349537
O	-1.1543784317	-0.5809392511	-0.4170336716	-0.452984
C	 1.2936914494	-0.6478066212	-0.2243951533	 0.005386
O	 2.433606205	 0.1078182866	-0.4910337071	-0.413793
C	 0.6556975049	-0.6152749248	 1.1822825452	-0.198415
C	 1.2899350594	 0.1419728279	 2.2824653482	 0.15162
O	 1.2343809201	-0.1901952283	 3.4435581312	-0.272995
H	 0.9006974079	 2.0590630101	 0.1277297437	 0.144293
H	-0.2884702252	 1.8740960084	-1.1586608972	 0.115241
H	-0.8364149176	 1.987570696	 0.5239284673	 0.135839
H	-1.2943034703	-0.3957126166	-1.3534519715	 0.284612
H	 1.2262215539	-1.6082889559	-0.733996403	 0.106903
H	 3.1979029476	-0.3506595075	-0.1249121648	 0.299173
H	 0.1513205701	-1.5224413153	 1.495893337	 0.120797
H	 1.8507751214	 1.0502583898	 1.9777037941	 0.079927
84.4976	159.3852	189.7145	209.6771	247.7253	255.4505	306.6233	359.0574	388.5674	433.8101	499.8769	508.1807	563.0452	686.0264	836.3352	919.1538	952.4849	1007.9214	1034.7913	1061.3432	1086.0072	1137.3782	1158.7073	1224.7635	1249.5621	1309.5716	1315.4292	1348.4651	1413.646	1443.1017	1460.8868	1487.9979	1508.9211	1804.1637	2906.5409	3035.1371	3102.1931	3112.9015	3147.88	3186.8504	3783.7732	3799.7783
CC1(O)C(O)C1C=O	C[C@@]1(O)[C@@H](O)[C@H]1C=O	
InChI=1S/C5H8O3/c1-5(8)3(2-6)4(5)7/h2-4,7-8H,1H3	InChI=1S/C5H8O3/c1-5(8)3(2-6)4(5)7/h2-4,7-8H,1H3/t3-,4+,5+/m1/s1
