17
gdb 36188	4.56978	1.14956	1.0515	4.698	75.44	-0.2575	0.0329	0.2904	1141.0428	0.137629	-380.829388	-380.821993	-380.821049	-380.8617	28.379	
N	-0.0319275621	-1.0930900234	 0.3966539953	-0.31019
C	-0.0132308884	 0.0452702251	 0.201271751	 0.27345
C	 0.0300318127	 1.4834868715	-0.0713349257	-0.459188
C	 1.4390097793	 2.0123124998	-0.1845381001	 0.337889
C	 2.6236164035	 1.3831316129	-0.8987379758	-0.294577
C	 3.4536986413	 2.2877831281	 0.0318789966	-0.005474
C	 3.1652621164	 3.7382464831	-0.4022103516	-0.239409
C	 1.767858356	 3.4435821638	 0.1098670253	-0.089698
N	 2.2482413382	 2.3524402592	 1.0323870078	-0.180932
H	-0.5251479286	 1.6771439066	-0.9976654605	 0.157269
H	-0.4944748423	 2.0106286322	 0.7334919966	 0.162832
H	 2.7184674582	 0.3290455676	-0.626773399	 0.135002
H	 2.7314354238	 1.5034799046	-1.9816984889	 0.10067
H	 4.4310381142	 1.9823396058	 0.3978179514	 0.093564
H	 3.6699589264	 4.458645473	 0.2460530479	 0.119913
H	 3.3140865345	 4.0109404485	-1.452003792	 0.10169
H	 1.007933367	 4.1492205714	 0.4287960018	 0.097191
62.5077	111.3144	257.3588	290.8124	384.7479	411.3124	423.466	499.1949	686.7545	747.7997	770.16	793.9249	816.8659	881.7455	927.8734	938.675	959.7691	960.9035	1002.0675	1013.3369	1030.7747	1077.6931	1130.0322	1146.9854	1187.1369	1196.3022	1227.6146	1256.6836	1272.7409	1285.6676	1326.7563	1354.3699	1412.4678	1448.5101	1489.8534	1506.1458	2365.7201	3036.2861	3044.8555	3049.3098	3080.1715	3110.4005	3113.7427	3149.1339	3171.9986
N#CCC12CC3CC1N23	N#CC[C@@]12C[C@H]3C[C@@H]1N23	
InChI=1S/C7H8N2/c8-2-1-7-4-5-3-6(7)9(5)7/h5-6H,1,3-4H2	InChI=1S/C7H8N2/c8-2-1-7-4-5-3-6(7)9(5)7/h5-6H,1,3-4H2/t5-,6+,7-,9?/m1/s1
