20
gdb 6844	3.21834	1.52117	1.35614	1.9768	71.54	-0.2421	0.0774	0.3195	1038.9334	0.174325	-386.12054	-386.111202	-386.110258	-386.154498	33.607	
C	 0.1935519758	 1.4605362529	-0.0217614287	-0.239764
O	-0.2972920974	 0.2000916541	-0.4225441169	-0.237202
C	 0.6111812329	-0.5270996827	-1.2000379072	 0.042133
C	 1.7489285771	-1.2831781754	-0.4795999954	-0.105939
O	 1.3215448113	-2.5354746279	-1.0449390232	-0.324038
C	 0.1162218574	-1.9384969473	-1.6197853403	 0.383777
C	-1.1281788309	-2.427880133	-0.8907372923	-0.415136
C	 0.0534525223	-2.1976591969	-3.1173520855	-0.431951
H	 1.0848326418	 1.3723380904	 0.6176289819	 0.110338
H	 0.4524128675	 2.0880732476	-0.8889607491	 0.107412
H	-0.5989692972	 1.9513935023	 0.5476586385	 0.130942
H	 0.959664082	 0.0777123842	-2.0504635822	 0.066223
H	 2.7787073268	-1.0339359394	-0.7607382752	 0.098147
H	 1.6545615392	-1.2634345218	 0.6148671571	 0.098097
H	-1.0629044118	-2.2237731228	 0.1794150269	 0.124852
H	-2.0256981145	-1.9342398575	-1.2753086877	 0.118483
H	-1.2321687382	-3.5074535522	-1.0379807308	 0.116446
H	-0.0711228298	-3.2673558163	-3.3137543908	 0.123976
H	-0.792923079	-1.6659169182	-3.5653934333	 0.117942
H	 0.9736504448	-1.8670352601	-3.6074927356	 0.115263
68.1279	90.4098	170.4258	188.7474	203.8974	229.268	285.9653	323.2921	347.2949	406.8787	477.1157	515.6767	643.6517	800.2346	856.6614	913.2857	942.171	986.26	999.8422	1019.9371	1052.7955	1071.5669	1160.3004	1174.0447	1178.175	1183.344	1200.4486	1252.3155	1272.637	1301.065	1331.5589	1395.5747	1404.5352	1415.3282	1472.9093	1477.0444	1482.4865	1489.1131	1494.8827	1501.9256	1508.5269	1514.3461	2974.4716	2988.7232	3003.6226	3024.0663	3033.1675	3045.2925	3058.0919	3104.9208	3112.7313	3115.3166	3118.4022	3136.7597
COC1COC1(C)C	CO[C@H]1COC1(C)C	
InChI=1S/C6H12O2/c1-6(2)5(7-3)4-8-6/h5H,4H2,1-3H3	InChI=1S/C6H12O2/c1-6(2)5(7-3)4-8-6/h5H,4H2,1-3H3/t5-/m0/s1
