24
gdb 60052	2.26478	1.16311	0.95156	3.3183	86.22	-0.2377	0.0668	0.3045	1404.7095	0.216201	-405.540719	-405.530305	-405.52936	-405.576012	39.74	
C	 0.7833683866	 1.8130050498	-0.3380027287	-0.380354
C	 0.3642421603	 0.3623669434	-0.5463801952	 0.147071
O	-0.5245445494	 0.3319274301	-1.6495995822	-0.443513
C	 1.5797443814	-0.5543502811	-0.7883112988	-0.288074
C	 1.2451983128	-2.0501859197	-0.8687933123	 0.328747
C	 1.7057198619	-2.8619353686	 0.3267647275	-0.470333
N	-0.0901473037	-2.397775038	-1.4298466882	-0.382154
C	 1.1301293213	-2.7562742172	-2.1797067191	-0.02915
C	 1.3177085218	-2.0843049918	-3.5182658862	-0.414597
H	 1.4240872825	 1.9182762087	 0.5431000456	 0.102581
H	 1.3292123158	 2.1806233431	-1.2133738542	 0.116005
H	-0.1016983023	 2.4407664799	-0.2041965776	 0.120626
H	-0.1524657554	 0.0130908656	 0.3661086732	 0.051567
H	-0.7557303303	-0.6075385566	-1.7599994846	 0.292323
H	 2.0730711747	-0.2181397601	-1.7066360581	 0.106495
H	 2.3017991591	-0.408918929	 0.0235661272	 0.091242
H	 1.2534324339	-2.4857424217	 1.252175403	 0.124969
H	 1.4363803469	-3.9187024951	 0.2223617277	 0.108935
H	 2.7932465905	-2.8027324366	 0.4449854875	 0.127288
H	-0.4811001421	-3.2021538824	-0.9475022048	 0.229214
H	 1.406008748	-3.8103215124	-2.1601411899	 0.079959
H	 0.9373350632	-1.0607586457	-3.4930543204	 0.146055
H	 2.3759140101	-2.0626081173	-3.8013198286	 0.115673
H	 0.7722806224	-2.6277695375	-4.2970707728	 0.119425
42.5691	91.6571	201.5182	209.9963	219.398	235.6109	256.6835	280.2924	328.1713	344.1695	413.6787	459.2776	478.0214	495.8357	536.5064	715.4284	730.9648	790.0373	843.8192	877.8776	911.7427	941.9818	969.7985	989.1075	1017.8163	1047.8698	1059.6947	1091.9924	1108.3591	1118.4817	1147.5854	1167.7632	1225.4932	1242.8888	1299.7203	1326.1778	1335.3457	1358.209	1382.7202	1400.3302	1410.4499	1417.2693	1452.4985	1470.4743	1484.2914	1487.2276	1488.1795	1496.2574	1501.7549	1504.4911	1511.1505	2928.9126	3020.6364	3033.4183	3035.1639	3039.233	3076.8975	3086.0768	3095.0716	3096.1507	3104.7674	3108.1268	3119.0376	3133.9481	3504.4568	3600.8194
CC(O)CC1(C)NC1C	C[C@@H](O)C[C@@]1(C)N[C@H]1C	
InChI=1S/C7H15NO/c1-5(9)4-7(3)6(2)8-7/h5-6,8-9H,4H2,1-3H3	InChI=1S/C7H15NO/c1-5(9)4-7(3)6(2)8-7/h5-6,8-9H,4H2,1-3H3/t5-,6+,7-/m1/s1
