19
gdb 26228	3.36986	1.0123	0.93777	2.4865	78.49	-0.193	0.0487	0.2417	1341.2797	0.159309	-419.253353	-419.243945	-419.243001	-419.288065	34.721	
C	-0.1195296349	 1.5929689963	 0.2471359847	-0.389023
C	-0.0531374619	 0.0715935229	 0.0156342623	-0.071607
C	 0.8735560792	-0.6084448409	 1.0409979567	-0.389025
C	-1.4162587399	-0.5532303353	-0.0118350846	 0.34156
N	-1.9657942384	-1.168149734	-1.0297910196	-0.299417
C	-3.2194121274	-1.5829581762	-0.6117417246	-0.23695
C	-3.4142115923	-1.2026198366	 0.6869112646	 0.35153
O	-4.4159345393	-1.3282735812	 1.5918871611	-0.437321
N	-2.2721373525	-0.5485953609	 1.0718016509	-0.338075
H	 0.8807174626	 2.035149458	 0.1965833299	 0.11503
H	-0.7484751064	 2.0784613186	-0.5041789598	 0.128239
H	-0.53276257	 1.8307008252	 1.2347828941	 0.101104
H	 0.3498093783	-0.107924009	-0.9862443145	 0.107576
H	 0.9483171684	-1.68293801	 0.8522537132	 0.128238
H	 1.8800249439	-0.1800597275	 0.9953927322	 0.115032
H	 0.506339926	-0.4726498527	 2.0654181774	 0.101104
H	-3.8915859942	-2.1207699368	-1.2623494841	 0.095067
H	-5.140947831	-1.8049582153	 1.1762205865	 0.3104
H	-2.1166048004	-0.1500737645	 1.9824924535	 0.266538
30.8667	117.9556	169.9263	221.6272	233.9899	250.5643	283.4453	315.3118	406.3312	435.2929	491.6363	502.026	615.21	667.8747	711.9863	747.3105	768.767	886.9983	929.0115	961.5493	987.3081	1051.5317	1063.9749	1119.6538	1142.0428	1165.1116	1193.6675	1250.0737	1288.3813	1335.3135	1340.8394	1397.7946	1419.0367	1435.7566	1484.4169	1491.5606	1497.5871	1505.8983	1511.2106	1569.0854	1640.7961	3025.4536	3029.0807	3061.6828	3088.1955	3098.4322	3113.7727	3115.6742	3246.5855	3666.0482	3844.7553
CC(C)C1=NC=C(O)N1	CC(C)c1ncc(O)[nH]1	
InChI=1S/C6H10N2O/c1-4(2)6-7-3-5(9)8-6/h3-4,9H,1-2H3,(H,7,8)	InChI=1S/C6H10N2O/c1-4(2)6-7-3-5(9)8-6/h3-4,9H,1-2H3,(H,7,8)
