12
gdb 133431	3.16909	1.4389	0.98959	4.1085	61.28	-0.2389	-0.0465	0.1924	1048.1708	0.078644	-510.110103	-510.102933	-510.101989	-510.142081	26.75	
F	 0.0526289017	 0.0662463056	 0.1503681028	-0.052888
C	-0.0628651277	 1.3733916342	 0.0189243663	 0.434313
N	-1.1793102361	 1.9345824528	 0.2299696799	-0.307735
N	-1.1616013995	 3.302629505	 0.0576034963	-0.302475
C	-0.111311751	 4.1143684078	-0.3053183999	 0.418877
O	-0.2287490221	 5.3111515689	-0.4222022527	-0.333346
C	 1.1945937334	 3.3756584543	-0.5418913994	 0.294649
N	 2.2314753943	 4.0200951458	-0.8808401515	-0.475553
N	 1.1013785336	 1.9894120002	-0.3484787887	-0.445701
H	-2.0482122434	 3.7547792685	 0.2246014895	 0.281574
H	 3.0427439655	 3.4119370108	-1.0095644085	 0.217754
H	 1.9216815714	 1.4143843863	-0.4835597341	 0.270532
97.5194	122.8146	339.4197	343.0747	376.6183	415.8878	479.3059	515.4042	523.3889	617.0196	620.5672	667.1953	707.4953	790.8361	809.6849	878.7906	1012.4676	1088.3033	1230.4802	1240.2975	1291.6636	1368.4339	1447.8281	1523.2786	1741.1204	1768.9836	1817.3581	3457.8036	3597.2676	3630.2263
FC1=NNC(=O)C(=N)N1	FC1=NNC(=O)[C]([NH])N1	
InChI=1S/C3H3FN4O/c4-3-6-1(5)2(9)7-8-3/h(H,7,9)(H2,5,6,8)	InChI=1S/C3H3FN4O/c4-3-6-1(5)2(9)7-8-3/h(H,7,9)(H2,5,6,8)
