17
gdb 6460	3.86854	1.38015	1.26478	2.3286	64.91	-0.252	0.0242	0.2762	1004.361	0.141103	-401.022194	-401.013812	-401.012868	-401.054926	31.186	
C	-0.0363143939	 1.573112044	-0.0222412877	-0.444989
C	-0.0765101547	 0.049209635	-0.053703941	 0.328805
C	-1.4902006807	-0.4946877834	 0.168247493	-0.101637
O	-1.99349006	-0.1633346469	 1.4519873709	-0.419881
C	 0.7030735596	-0.6303714355	-1.2235280813	-0.455099
C	 1.6863249342	-1.1281742442	-0.1392279797	 0.436988
O	 2.7320882961	-1.7165305516	-0.1224201166	-0.351839
N	 0.8998226612	-0.5964547741	 0.8643883181	-0.371873
H	 0.9889692507	 1.9419632892	-0.1179715776	 0.119849
H	-0.6308553573	 1.9900048935	-0.8416793093	 0.125214
H	-0.459919607	 1.9406427405	 0.9168342498	 0.135601
H	-2.1783989966	-0.0475293637	-0.5574692797	 0.114133
H	-1.4896700144	-1.5827666003	 0.0097451234	 0.092257
H	-1.5078420733	-0.6950675702	 2.0916413027	 0.285553
H	 0.1705291984	-1.4201819239	-1.7581623381	 0.128477
H	 1.1551016252	 0.0570364621	-1.940647556	 0.13376
H	 1.1789651824	-0.3301433106	 1.7991799493	 0.244683
79.6161	104.636	224.3755	245.8242	296.2671	322.035	358.2118	393.4192	439.3131	466.6383	542.6137	569.1523	675.966	794.2345	875.2751	905.7677	942.1628	962.3705	987.0501	1064.7452	1072.2401	1111.3634	1166.6868	1194.6311	1208.7353	1278.7308	1280.72	1360.077	1394.5113	1406.7443	1418.1602	1457.3208	1484.7075	1495.8704	1502.6281	1896.2819	3000.4648	3038.656	3074.8853	3080.2868	3109.5312	3120.7458	3139.0159	3585.8223	3808.7456
CC1(CO)CC(=O)N1	C[C@@]1(CO)CC(=O)N1	
InChI=1S/C5H9NO2/c1-5(3-7)2-4(8)6-5/h7H,2-3H2,1H3,(H,6,8)	InChI=1S/C5H9NO2/c1-5(3-7)2-4(8)6-5/h7H,2-3H2,1H3,(H,6,8)/t5-/m0/s1
