18
gdb 38551	2.81422	2.24049	1.67123	1.6787	79.37	-0.1894	0.0041	0.1935	861.4563	0.150859	-364.759322	-364.75307	-364.752126	-364.789444	27.044	
C	-0.0806648299	 1.4654299244	-0.1444884562	-0.386215
C	 1.2859020018	 0.8166213471	 0.0271025933	-0.042323
C	 2.1754447948	 0.2126770389	-1.0586502652	-0.266127
C	 1.3424132196	-0.9364756378	-1.6183292887	-0.027357
C	 0.605690607	-2.0223430948	-0.8442192804	-0.086897
C	 0.4611289359	-2.1469046171	 0.6444382046	-0.103723
C	-0.0400861429	-1.0125391544	 1.1451635717	-0.17666
C	 0.0037133353	-0.0089023117	 0.0415205872	 0.296579
N	-0.0787163174	-0.7703663699	-1.2386825832	-0.141021
H	-0.4029776052	 2.108592477	 0.6685442299	 0.116517
H	-0.4138651047	 1.7809853634	-1.1290095472	 0.125179
H	 1.7562314888	 1.0099280461	 0.9854281081	 0.087911
H	 2.4347305825	 0.9036582046	-1.8721113193	 0.105054
H	 3.1213531517	-0.1168677578	-0.6151017156	 0.110459
H	 1.5061550325	-1.1816337867	-2.6663295672	 0.088925
H	 0.3483317129	-2.898824999	-1.43761281	 0.090811
H	 0.6822897884	-3.0561323674	 1.1872368685	 0.102534
H	-0.240327771	-0.782471355	 2.1837564997	 0.106354
191.2284	290.1148	341.9967	400.7126	527.9955	560.2061	638.6765	691.3211	718.1571	737.6589	789.9317	792.3741	819.7602	861.2796	868.5078	901.103	905.0241	929.9218	975.2898	1000.2083	1023.0609	1065.9341	1087.6447	1097.8764	1111.8193	1126.9467	1146.7734	1207.786	1220.9992	1235.263	1280.3899	1310.2611	1345.7959	1375.2382	1382.8272	1417.386	1476.8556	1498.0746	1636.8782	3011.1611	3061.9657	3107.0573	3118.0558	3123.3875	3159.5156	3207.8414	3208.357	3232.9391
C1C2CC3C4C=CC12N34	C1[C@@H]2C[C@H]3[C@H]4C=C[C@@]12N34	
InChI=1S/C8H9N/c1-2-8-4-5(8)3-7-6(1)9(7)8/h1-2,5-7H,3-4H2	InChI=1S/C8H9N/c1-2-8-4-5(8)3-7-6(1)9(7)8/h1-2,5-7H,3-4H2/t5-,6+,7-,8+,9?/m0/s1
