13
gdb 129333	5.72602	0.98077	0.83735	4.1153	74.57	-0.2584	-0.0896	0.1687	1260.8995	0.090053	-445.059178	-445.051763	-445.050819	-445.091677	26.46	
N	-0.5992322423	-2.9850368094	 0.4053746612	-0.455397
C	-1.6240696749	-2.3112285243	 0.083470035	 0.098857
N	-1.600730972	-0.9302215824	 0.2550871215	-0.356841
C	-2.6138572838	-0.0671667509	-0.0397779857	 0.487047
C	-2.4933663088	 1.3194569572	 0.1704933229	-0.038903
N	-3.4876720172	 2.1208063252	-0.1242954639	-0.159092
N	-4.6192811111	 1.5961580744	-0.6288032619	-0.073008
N	-4.7296961534	 0.3093392945	-0.8233965737	-0.05225
N	-3.7529546374	-0.545178143	-0.5417312639	-0.264914
H	-0.7525347928	-3.9758071406	 0.2290024486	 0.243714
H	-2.566807132	-2.6723692788	-0.3278072129	 0.160274
H	-0.7396528714	-0.5596459628	 0.6356196489	 0.271509
H	-1.5904849627	 1.771069971	 0.5769008239	 0.139002
82.6405	157.8827	164.007	167.0294	347.2281	407.6879	452.5496	553.2088	635.679	666.3405	720.6494	826.444	829.7007	876.2034	941.8927	959.093	1068.411	1081.3749	1085.1332	1111.0106	1230.284	1268.0276	1322.5455	1386.2718	1401.1336	1490.6839	1552.4962	1610.3239	1732.2189	3142.8628	3148.0281	3517.5128	3592.2755
N=CNC1=CN=NN=N1	N=CNc1cnnnn1	
InChI=1S/C3H4N6/c4-2-5-3-1-6-8-9-7-3/h1-2H,(H2,4,5,7,8)	InChI=1S/C3H4N6/c4-2-5-3-1-6-8-9-7-3/h1-2H,(H2,4,5,7,8)
