15
gdb 15243	3.06843	1.64427	1.41924	5.1036	62.64	-0.2555	0.0244	0.2799	929.8366	0.117371	-399.773628	-399.765304	-399.76436	-399.806621	29.321	
C	 0.2910685654	 1.1496762439	 0.2386274489	-0.249123
O	-0.288336938	-0.0384760716	-0.2927363858	-0.242148
C	 0.469251357	-0.5865786381	-1.3177807378	 0.056677
C	 1.4612987822	-1.6372063166	-0.9143063715	 0.108163
O	 1.6291924911	-1.9298384156	 0.4245631941	-0.412306
C	 0.1641081873	-2.0453119342	-1.6470369731	-0.306047
C	-0.8527076698	-2.7337032067	-0.9102973523	 0.306302
N	-1.6577513779	-3.3020226864	-0.3042158883	-0.336778
H	 1.2911969757	 0.9606949451	 0.6479173023	 0.130908
H	 0.361110709	 1.9301367208	-0.5314181386	 0.121374
H	-0.3725826979	 1.4911072081	 1.0348006948	 0.144679
H	 0.6773805677	 0.079942823	-2.1552474816	 0.105252
H	 2.3863220427	-1.7575176154	-1.4669575146	 0.127016
H	 0.8360269236	-1.6338075231	 0.8919549161	 0.305987
H	 0.2500760019	-2.3352324133	-2.6887851824	 0.140043
94.8311	105.6566	130.9524	184.9623	246.3134	285.0982	372.4389	406.997	413.5693	634.891	648.2253	689.2432	738.7333	779.1812	888.823	988.3727	1054.8631	1066.5963	1104.9747	1113.9726	1154.0352	1182.0082	1207.9875	1255.7579	1329.7547	1344.0516	1376.9631	1460.7888	1481.8967	1489.0401	1507.6375	2354.8544	3004.0262	3067.0611	3099.8602	3137.9326	3170.7015	3183.2599	3763.756
COC1C(O)C1C#N	CO[C@H]1[C@@H](O)[C@H]1C#N	
InChI=1S/C5H7NO2/c1-8-5-3(2-6)4(5)7/h3-5,7H,1H3	InChI=1S/C5H7NO2/c1-8-5-3(2-6)4(5)7/h3-5,7H,1H3/t3-,4+,5-/m1/s1
