20
gdb 38993	2.99914	1.66116	1.23826	2.4928	78.35	-0.2313	0.0853	0.3166	1043.2484	0.173915	-403.106231	-403.099018	-403.098074	-403.137648	29.541	
C	-0.0438643546	 1.4461477443	 0.0994566625	-0.304084
N	 1.2816274918	 0.8157647635	-0.0807369042	-0.163531
C	 1.6344171778	 0.2727261957	 1.2816941	-0.179399
C	 0.4206608514	-0.6970779007	 1.2869925132	-0.084667
C	 0.7633840752	-2.1787898784	 1.0575055519	-0.224113
C	-0.1932526045	-2.7977162374	 0.0341537747	-0.076177
O	-0.0893060399	-2.1338291532	-1.2151889133	-0.240414
C	-0.5777876095	-0.8031391335	-1.1627517806	-0.184094
C	 0.0065837234	-0.0192954647	-0.0235941935	 0.344163
H	-0.2855107957	 1.9112242876	 1.054140506	 0.105715
H	-0.3603307162	 2.0145669238	-0.7709605554	 0.119214
H	 2.6018667569	-0.2331070167	 1.2503353693	 0.111489
H	 1.6594900477	 1.0431967326	 2.059741117	 0.101108
H	-0.2933958487	-0.5923339838	 2.1114522497	 0.068245
H	 1.7766733794	-2.2707089735	 0.6506753838	 0.111614
H	 0.7354318267	-2.7390942087	 1.9984915213	 0.095481
H	 0.0611467915	-3.8443556291	-0.1557815394	 0.109095
H	-1.234240647	-2.7645320457	 0.40172798	 0.082526
H	-0.3296194933	-0.335483729	-2.1204506394	 0.119879
H	-1.6786578624	-0.8154267831	-1.0611847236	 0.087948
137.921	151.2061	300.3311	354.6804	367.8096	447.02	454.1163	487.6225	559.262	669.372	741.7217	756.3152	836.4933	859.4693	889.0189	910.2849	974.9639	992.4844	999.6867	1014.5776	1032.8273	1076.3101	1100.6543	1113.4754	1131.3913	1161.3223	1196.7643	1226.2909	1243.3108	1249.7176	1281.9418	1307.6022	1317.1258	1350.1391	1355.5202	1374.7778	1398.0034	1427.7652	1474.8899	1476.9929	1493.4804	1497.3998	1513.4438	2937.3416	2953.131	3030.554	3035.4711	3045.0171	3081.9989	3082.711	3086.678	3091.5236	3106.9023	3183.0422
C1N2CC3CCOCC123	C1N2C[C@@H]3CCOC[C@]123	
InChI=1S/C7H11NO/c1-2-9-5-7-4-8(7)3-6(1)7/h6H,1-5H2	InChI=1S/C7H11NO/c1-2-9-5-7-4-8(7)3-6(1)7/h6H,1-5H2/t6-,7-,8?/m0/s1
