17
gdb 111038	2.82647	1.22007	0.98998	2.5434	73.81	-0.2691	0.0094	0.2785	1196.5571	0.137282	-417.928414	-417.920375	-417.919431	-417.961489	30.25	
O	-0.0411974043	 1.4356898139	-0.1763344647	-0.411567
C	 0.109511081	 0.0650036089	 0.146060254	-0.119915
C	-1.2528846166	-0.6031472563	 0.1286742044	 0.01393
N	-1.9721187031	-0.6653834647	-1.2441423854	-0.175056
C	-1.1095141424	-1.9072415676	-1.5314903803	-0.216687
C	-1.5176731926	-2.1280820934	-0.0537473426	 0.180711
C	-2.9134992761	-1.6582974764	-0.543114936	-0.19776
C	-1.1848871103	-3.2237566914	 0.8333958421	 0.13957
N	-0.9152053601	-4.0942446349	 1.5449648462	-0.33591
H	-0.545655758	 1.4764137242	-0.9978741798	 0.29803
H	 0.8369553118	-0.4271509929	-0.5134786266	 0.098352
H	 0.517230279	 0.0222006724	 1.1616749458	 0.127606
H	-1.8885338695	-0.1157756251	 0.8742025462	 0.101632
H	-1.550332183	-2.57644135	-2.2727971762	 0.123952
H	-0.0661889966	-1.7007759559	-1.7618381724	 0.12485
H	-3.5792869063	-1.1978530405	 0.1892342443	 0.125283
H	-3.4499962128	-2.3138066503	-1.231644989	 0.122977
73.6085	109.998	169.8479	204.069	348.7318	378.691	414.4977	509.5989	523.012	562.1612	602.2788	643.5032	754.9311	806.5726	855.0171	920.1017	969.032	992.6169	1032.1847	1058.5537	1064.2219	1100.5058	1136.7621	1153.6727	1173.6245	1185.109	1199.3323	1224.916	1249.958	1286.8517	1355.6401	1415.254	1448.5226	1501.3684	1521.0424	1555.6355	2349.0947	3009.6945	3063.6536	3070.7988	3080.161	3087.6803	3145.425	3162.8539	3788.9087
OCC1N2CC1(C2)C#N	OC[C@H]1N2C[C@@]1(C2)C#N	
InChI=1S/C6H8N2O/c7-2-6-3-8(4-6)5(6)1-9/h5,9H,1,3-4H2	InChI=1S/C6H8N2O/c7-2-6-3-8(4-6)5(6)1-9/h5,9H,1,3-4H2/t5-/m1/s1
