16
gdb 22571	4.22573	1.03732	0.85881	2.9016	80.16	-0.2465	-0.0793	0.1672	1272.6593	0.125001	-437.885983	-437.878103	-437.877158	-437.918598	29.965	
O	-0.0558541314	 1.3677342454	 0.1317222327	-0.384332
N	 0.0576938214	-0.0214636389	 0.0949449246	-0.194345
C	-1.0774954902	-0.610468577	-0.0418093093	 0.346856
C	-1.0752679452	-2.118522474	-0.0765845508	-0.303873
C	-2.0900156564	-2.646331094	-1.1031443696	-0.323793
C	-3.4684886617	-2.0167096163	-0.9342607649	 0.376545
O	-4.494075587	-2.6129487067	-1.1932925526	-0.324026
C	-3.4866065519	-0.6045544688	-0.4865185538	-0.176423
C	-2.3731027957	 0.0571664261	-0.1208847377	-0.100459
H	 0.8565173056	 1.6447753043	 0.2675563194	 0.314144
H	-0.0663363229	-2.4809232532	-0.2843011736	 0.127328
H	-1.3544623049	-2.4879183172	 0.9195988193	 0.126823
H	-1.7502726196	-2.4010768464	-2.1189996911	 0.134678
H	-2.1959530368	-3.7321268026	-1.0517704045	 0.12857
H	-4.4584688011	-0.1209873957	-0.4972159811	 0.118113
H	-2.4074160521	 1.1083903051	 0.140518783	 0.134195
71.0364	152.3778	227.309	279.6408	321.3908	390.4981	398.4792	443.6534	487.9092	558.2467	587.6451	669.5121	728.4262	756.8429	790.2319	871.6912	955.849	976.0297	1021.6486	1034.3926	1040.3873	1125.1803	1172.1626	1215.2374	1249.2847	1303.5342	1331.8666	1352.261	1401.6145	1417.6782	1462.4092	1481.2286	1646.0333	1687.4922	1778.4871	3017.1525	3028.7154	3109.1145	3111.3042	3184.5554	3210.4096	3820.1049
ON=C1CCC(=O)C=C1	ON=C1CCC(=O)C=C1	
InChI=1S/C6H7NO2/c8-6-3-1-5(7-9)2-4-6/h1,3,9H,2,4H2	InChI=1S/C6H7NO2/c8-6-3-1-5(7-9)2-4-6/h1,3,9H,2,4H2
