17
gdb 16283	3.20356	1.82142	1.43672	1.7911	75.68	-0.2322	0.0194	0.2515	927.8233	0.141368	-326.649692	-326.641928	-326.640984	-326.681381	29.889	
C	-0.0358994532	 1.6226560839	-0.0210214619	-0.417699
C	 0.0602421754	 0.1046918266	 0.0384370691	-0.041612
C	 1.0973374347	-0.6617260687	-0.8265003499	-0.179259
N	 1.6603934679	-1.4002737153	 0.3601901437	-0.16164
C	 2.20198982	-0.3570315202	 1.2360203005	-0.270494
C	 0.7299902786	-0.5540561081	 1.2583767881	 0.15164
C	 0.0278618221	-1.0660615045	 2.3875454225	 0.210276
C	-0.5994927208	-1.4623339944	 3.3352063332	-0.39893
H	 0.9392228071	 2.0995785891	 0.1205347701	 0.115861
H	-0.4269104325	 1.9482491452	-0.9910316966	 0.119386
H	-0.710353907	 2.0005827737	 0.7546442906	 0.12777
H	-0.9311315115	-0.333836866	-0.1012498822	 0.092565
H	 0.6578818532	-1.3651527087	-1.5352871434	 0.114856
H	 1.846307937	-0.0518008606	-1.3444941808	 0.10335
H	 2.7553238054	-0.7535139125	 2.0811606054	 0.131801
H	 2.6245207478	 0.5436895999	 0.7941311595	 0.111314
H	-1.1436566643	-1.8223387991	 4.1728742421	 0.190813
120.7261	157.7597	204.6839	220.383	290.6698	413.689	461.9167	505.624	537.3784	591.0888	626.703	657.0488	695.744	759.7927	853.8457	869.5245	900.5537	947.9851	1008.9171	1077.3484	1102.6803	1118.7475	1138.5135	1160.0779	1204.8629	1229.7844	1253.0532	1305.4685	1341.4351	1389.6144	1411.4533	1489.6346	1495.5701	1498.2174	1512.5582	2230.4149	3030.8196	3040.9602	3071.6687	3098.5395	3099.8269	3105.3795	3117.9317	3201.6887	3503.0432
CC1CN2CC12C#C	C[C@H]1CN2C[C@@]12C#C	
InChI=1S/C7H9N/c1-3-7-5-8(7)4-6(7)2/h1,6H,4-5H2,2H3	InChI=1S/C7H9N/c1-3-7-5-8(7)4-6(7)2/h1,6H,4-5H2,2H3/t6-,7-,8?/m0/s1
