16
gdb 34286	3.49607	1.50135	1.35347	5.0959	73.15	-0.2639	-0.0197	0.2442	964.3995	0.126468	-400.754582	-400.7478	-400.746856	-400.785556	27.434	
N	 0.0860473198	-1.117819045	 0.0130418655	-0.335648
C	 0.0347211674	 0.0356990041	 0.0144721965	 0.201411
C	-0.0869913775	 1.4855341722	 0.0143581256	 0.297683
C	-0.7171986672	 2.1654843128	 1.2486836299	-0.252566
C	-0.4794119583	 3.5675627418	 0.6319317059	-0.127772
C	 1.0569284965	 3.4506467172	 0.3884549396	-0.073549
O	 1.2426891612	 2.0835656988	-0.0111922115	-0.308001
C	-1.1174156659	 3.3822437356	-0.7342638187	-0.089282
C	-0.8902220481	 2.1225662306	-1.1184829109	-0.111427
H	-1.7716533966	 1.9256367245	 1.3816447688	 0.125818
H	-0.1515649938	 1.9672656211	 2.1620110271	 0.121319
H	-0.784391344	 4.4352888254	 1.2142822501	 0.085112
H	 1.4118159714	 4.1190531632	-0.4024491697	 0.1113
H	 1.627478631	 3.6386055393	 1.3053169828	 0.112567
H	-1.5615370544	 4.17586213	-1.3211043102	 0.115545
H	-1.0916978615	 1.6479521785	-2.0683625808	 0.127493
153.1558	165.0117	293.1262	399.0864	465.8534	488.0889	525.1114	558.8006	562.616	679.0287	746.5612	804.0295	814.9601	865.5832	901.8581	927.7082	937.9822	953.7656	976.0798	1028.393	1058.378	1087.3508	1099.2774	1154.9303	1185.7176	1207.5104	1249.2026	1275.0217	1292.2178	1339.5236	1363.6192	1486.5894	1521.1967	1633.8669	2372.952	3031.1104	3079.2699	3081.8615	3135.8972	3153.5608	3213.2931	3243.8536
N#CC12CC(CO1)C=C2	N#C[C@@]12C[C@@H](CO1)C=C2	
InChI=1S/C7H7NO/c8-5-7-2-1-6(3-7)4-9-7/h1-2,6H,3-4H2	InChI=1S/C7H7NO/c8-5-7-2-1-6(3-7)4-9-7/h1-2,6H,3-4H2/t6-,7+/m0/s1
