20
gdb 99758	1.99905	1.38322	1.04071	5.2617	71.94	-0.2394	0.017	0.2564	1253.1184	0.169751	-477.44879	-477.438625	-477.437681	-477.484162	36.427	
C	 0.3500503694	 1.1475127351	 0.3808679766	-0.244328
O	 0.1265296498	-0.1940101327	-0.0228502094	-0.26714
C	-1.2396709153	-0.5851875139	-0.0483351078	 0.010589
C	-1.2956953394	-1.9107979636	-0.8255187805	-0.005758
C	-0.9313638222	-1.7221412225	-2.3010259978	-0.400578
N	-0.4333809375	-2.8807593008	-0.1160698293	-0.53074
H	-1.0258441107	-2.4070140688	 1.4525941621	 0.32046
H	-0.5095224463	-3.8038178587	-0.529889679	 0.243271
H	 0.5344646484	-2.5802815155	-0.1937800358	 0.255229
C	-1.794378643	-0.6719926688	 1.3970540087	 0.392093
O	-2.406471255	 0.2448527393	 1.8863590552	-0.345071
O	-1.5088104352	-1.787622899	 2.0682970008	-0.37523
H	 1.4294524581	 1.3095303001	 0.3410736587	 0.126026
H	-0.147374525	 1.8524487644	-0.3007301065	 0.113605
H	-0.0117408245	 1.3367465308	 1.3979497857	 0.142958
H	-1.846556466	 0.1735410157	-0.5607731844	 0.090423
H	-2.3231864077	-2.2875377987	-0.7514889439	 0.103427
H	 0.0699558694	-1.2929804062	-2.3949316632	 0.135488
H	-0.9524715135	-2.6807998576	-2.8293504992	 0.111014
H	-1.6390153436	-1.0499346386	-2.797265731	 0.124259
56.2085	98.958	118.4315	178.0311	198.9005	217.6555	246.1618	280.6201	345.917	353.2732	403.6563	421.6578	462.9295	626.8526	684.2498	768.0665	858.8806	894.8192	932.7174	950.6901	986.022	1007.7324	1033.2147	1092.8646	1122.5325	1158.3883	1187.0341	1204.9326	1250.8261	1284.2359	1311.7937	1365.8534	1377.0454	1401.8384	1409.0381	1479.6671	1487.7111	1489.9156	1503.3808	1510.8605	1517.0039	1634.5321	1842.0321	3000.2792	3020.7717	3036.1703	3041.4471	3071.1558	3103.5306	3122.3521	3125.6667	3149.2803	3499.4807	3584.8658
COC(C(C)[NH3+])C([O-])=O	CO[C@@H]([C@@H](C)N)C(=O)O	
InChI=1S/C5H11NO3/c1-3(6)4(9-2)5(7)8/h3-4H,6H2,1-2H3,(H,7,8)	InChI=1S/C5H11NO3/c1-3(6)4(9-2)5(7)8/h3-4H,6H2,1-2H3,(H,7,8)/t3-,4+/m1/s1
