16
gdb 86928	3.9866	0.91298	0.80086	1.7875	68.36	-0.257	-0.0423	0.2147	1374.3718	0.122802	-475.043579	-475.034509	-475.033565	-475.078555	31.806	
O	 0.036039288	 1.4340284307	 0.3750925039	-0.431773
C	 0.0760090455	 0.0657112991	 0.1295441848	 0.072692
C	-1.2421295009	-0.7879100932	 0.0163215304	-0.302805
C	-0.6021389803	-1.59371762	-1.1739324553	-0.04345
N	-1.3544985995	-1.9609625595	-2.3332376321	-0.291124
C	-1.6593487581	-3.2600123188	-2.6213303369	 0.154556
O	-1.4284084303	-4.1983899959	-1.8914602026	-0.313801
C	 0.3073504161	-0.3710607197	-1.3171574422	 0.306269
O	 0.6281509641	 0.2777158487	-2.2773027729	-0.31762
H	 0.0800985267	 1.8799822758	-0.4808442783	 0.296718
H	 0.7670293699	-0.416094946	 0.8309428528	 0.118696
H	-1.527205562	-1.3683566413	 0.8927137484	 0.133219
H	-2.0747604069	-0.1682735553	-0.3235664107	 0.123767
H	-0.0884293097	-2.4811819933	-0.7963998615	 0.148133
H	-1.4814519071	-1.2612988367	-3.0496766234	 0.259219
H	-2.1562206254	-3.3593146946	-3.6051384247	 0.087304
35.274	94.7153	124.4291	169.8033	201.7244	258.3195	289.6344	367.082	425.93	507.2703	530.2632	619.001	707.2127	774.3362	816.5356	876.2781	939.7553	987.4835	1007.433	1033.4627	1048.0542	1113.6929	1154.0006	1163.0046	1229.661	1245.6765	1257.1381	1333.9227	1363.551	1416.4771	1427.0734	1476.2721	1523.4496	1805.9665	1854.0776	2956.4123	3047.3659	3083.9499	3097.4944	3159.4594	3615.202	3766.0044
OC1CC(NC=O)C1=O	O[C@H]1C[C@@H](NC=O)C1=O	
InChI=1S/C5H7NO3/c7-2-6-3-1-4(8)5(3)9/h2-4,8H,1H2,(H,6,7)	InChI=1S/C5H7NO3/c7-2-6-3-1-4(8)5(3)9/h2-4,8H,1H2,(H,6,7)/t3-,4+/m1/s1
