23
gdb 104247	2.09585	1.27536	1.0813	0.6834	91.76	-0.2506	0.0482	0.2988	1305.0521	0.203782	-351.123388	-351.113202	-351.112258	-351.157964	39.033	
C	 0.0288363706	 1.6017492543	 0.1137385722	-0.398803
C	-0.0705513414	 0.0852708951	-0.0887659099	-0.218002
C	 0.7052200944	-0.4588524203	-1.299352864	 0.336692
C	 0.2336810842	 0.1556223307	-2.6137360877	-0.465939
C	 2.2503204321	-0.4764700319	-1.058815628	-0.264248
C	 2.1655901577	-1.9629925796	-0.6348595617	-0.235243
C	 0.7592722691	-2.0439247746	-1.3045594589	-0.204435
C	-0.2866848958	-2.8127603109	-0.6638702244	 0.324044
C	-1.1522373119	-3.4487415127	-0.1206925305	-0.465771
H	 1.069592767	 1.9350137084	 0.191551931	 0.115034
H	-0.4361594691	 2.1557990924	-0.7071324843	 0.118173
H	-0.4794892363	 1.8974619181	 1.0366985107	 0.113673
H	 0.2846815818	-0.4200120895	 0.8174381259	 0.097549
H	-1.1238184242	-0.2022022703	-0.1918232038	 0.104741
H	 0.4205774249	 1.2339086257	-2.6452178059	 0.118183
H	 0.7568586555	-0.2915749877	-3.465708442	 0.10781
H	-0.8415450653	-0.0018901972	-2.7601693139	 0.118029
H	 2.8089783998	-0.342519959	-1.9898312881	 0.096822
H	 2.6413244078	 0.2272711078	-0.3203155303	 0.098611
H	 2.9247776623	-2.6465999857	-1.0199852869	 0.10256
H	 2.1011879944	-2.0892268782	 0.4477632392	 0.114111
H	 0.8699527239	-2.381902189	-2.3413144489	 0.095574
H	-1.9144573415	-4.0140473559	 0.3552808103	 0.190834
89.4975	111.0837	125.5373	185.3067	211.5581	236.0535	265.5345	320.5057	350.2313	366.0315	416.5534	509.5819	563.5701	605.2892	617.7708	626.7508	700.9044	770.8295	788.3438	869.3941	895.0019	944.6673	958.1335	989.7859	1020.7105	1029.6905	1049.4122	1077.2957	1110.2673	1157.3629	1187.2357	1215.8502	1231.3113	1262.7781	1271.41	1290.4733	1333.4722	1357.4025	1372.5158	1408.3617	1412.9968	1478.3702	1480.818	1492.4582	1495.6318	1501.4302	1506.6772	1513.4133	2226.4865	3023.181	3029.6966	3034.715	3036.1592	3055.3792	3061.256	3073.6203	3089.1361	3096.8978	3099.4312	3104.7082	3110.8407	3129.1726	3503.9515
CCC1(C)CCC1C#C	CC[C@@]1(C)CC[C@H]1C#C	
InChI=1S/C9H14/c1-4-8-6-7-9(8,3)5-2/h1,8H,5-7H2,2-3H3	InChI=1S/C9H14/c1-4-8-6-7-9(8,3)5-2/h1,8H,5-7H2,2-3H3/t8-,9+/m1/s1
