19
gdb 50360	2.45076	1.65885	1.46082	3.0589	74.27	-0.24	-0.0245	0.2155	1001.3239	0.160046	-423.02885	-423.02105	-423.020106	-423.061429	29.899	
O	 0.7833851813	-0.229446525	 0.4874936524	-0.239392
C	 0.4012033766	 0.9081613486	 0.4183320221	 0.155789
C	 1.2325436859	 2.1132219066	-0.0054684726	 0.006911
C	 1.4625932567	 3.0968916077	 1.1766000632	-0.277887
C	 2.8691985771	 2.7341189481	 1.6629618186	-0.021261
C	 3.0296470717	 1.4783175478	 2.5738362007	-0.242942
C	 3.741796251	 0.7227018935	 1.4135664315	-0.235382
C	 3.5048238848	 1.9423346206	 0.480721477	 0.108403
O	 2.5013018422	 1.7782461826	-0.515986816	-0.246471
H	-0.6535395921	 1.1821654048	 0.6657434333	 0.072368
H	 0.6578789555	 2.599098924	-0.80826914	 0.1006
H	 1.4346985182	 4.1243368613	 0.8041979789	 0.115669
H	 0.7004300064	 3.0057364419	 1.9567170532	 0.111519
H	 3.4211731082	 3.6110832991	 2.0040523523	 0.074356
H	 3.6414025153	 1.645634738	 3.4629222613	 0.101374
H	 2.0849822644	 1.0311215396	 2.8944204384	 0.105163
H	 4.7991456584	 0.5173688639	 1.5979775034	 0.095798
H	 3.2490488129	-0.1854260827	 1.0673673788	 0.138745
H	 4.3881754955	 2.3511738995	-0.0158786763	 0.07664
90.3764	122.2575	136.6928	239.132	320.6867	350.8488	407.9213	617.8802	658.8417	721.6788	738.0495	754.6629	805.859	847.9071	856.0178	910.672	920.282	956.4153	975.1397	991.7744	1029.6377	1066.4815	1090.002	1127.2854	1159.3994	1198.6221	1210.3176	1226.803	1245.0726	1265.2509	1277.3349	1284.177	1315.0394	1332.7249	1357.5337	1375.4555	1418.2494	1469.2819	1487.2875	1493.8854	1840.0313	2836.7018	3000.8198	3055.3706	3061.9101	3067.8912	3078.8333	3092.8678	3100.9328	3113.9799	3149.792
O=CC1CC2CCC2O1	O=C[C@H]1C[C@H]2CC[C@H]2O1	
InChI=1S/C7H10O2/c8-4-6-3-5-1-2-7(5)9-6/h4-7H,1-3H2	InChI=1S/C7H10O2/c8-4-6-3-5-1-2-7(5)9-6/h4-7H,1-3H2/t5-,6-,7-/m1/s1
