21
gdb 106306	3.69102	1.19317	1.11359	1.3194	78.71	-0.2376	0.0773	0.3149	1198.0534	0.181731	-424.202492	-424.193691	-424.192746	-424.235658	34.21	
C	 0.0183845213	 1.3609332016	-0.078743716	-0.263709
O	-0.0326714562	-0.0332782555	 0.157875532	-0.296376
C	-1.2939847519	-0.5947400736	 0.054249987	 0.390126
C	-2.1571845075	-0.6108825882	-1.2566261532	-0.335483
C	-2.8352089874	-1.7754572833	-0.4837739419	 0.429291
C	-3.8016761206	-2.7533870927	-1.0861440729	-0.484406
C	-1.4270167421	-2.1387029985	 0.0611801748	-0.322692
O	-3.4421778081	-1.0937642936	 0.6430342972	-0.307485
C	-2.3840024334	-0.2272550079	 1.0872459175	-0.136501
H	 1.0710257217	 1.6497956236	-0.0436003544	 0.130353
H	-0.388447587	 1.6184250409	-1.0668576934	 0.114441
H	-0.528457172	 1.9328623602	 0.6837716925	 0.113113
H	-2.7817065346	 0.2534760491	-1.4946743603	 0.095043
H	-1.5841562534	-0.9430722593	-2.1241490965	 0.10215
H	-3.347207897	-3.2718971053	-1.9347210617	 0.117582
H	-4.1037402973	-3.4979589004	-0.3430558771	 0.128338
H	-4.7011960138	-2.2362797179	-1.4343887373	 0.127346
H	-0.7818626489	-2.609730624	-0.6821981623	 0.103448
H	-1.3772074394	-2.6585709047	 1.0206980242	 0.099317
H	-2.0861262974	-0.466534117	 2.1152273186	 0.101348
H	-2.7077341148	 0.8192608063	 1.0416533929	 0.094755
73.7087	167.7387	185.027	207.3004	264.2948	276.7388	336.3546	396.2537	465.2635	486.6303	526.7257	588.9984	608.3324	683.1172	809.9092	864.7415	885.513	923.6236	954.7827	980.3257	1006.9558	1014.9321	1038.5484	1060.166	1118.5992	1139.9952	1166.5518	1181.2635	1184.848	1201.2849	1202.1136	1221.6964	1252.6905	1278.1905	1336.2455	1373.2187	1420.0602	1469.2184	1479.9701	1482.5792	1491.0599	1493.1504	1506.2439	1510.0787	1534.582	2992.358	3018.7008	3040.7843	3044.9855	3060.4284	3064.26	3072.1362	3110.2372	3119.9886	3121.2047	3134.2338	3141.5382
COC12CC(C)(C1)OC2	CO[C@@]12C[C@@](C)(C1)OC2	
InChI=1S/C7H12O2/c1-6-3-7(4-6,8-2)5-9-6/h3-5H2,1-2H3	InChI=1S/C7H12O2/c1-6-3-7(4-6,8-2)5-9-6/h3-5H2,1-2H3/t6-,7-
