20
gdb 14878	3.48223	1.33583	1.06419	1.3116	71.66	-0.2441	0.0779	0.322	1155.9088	0.176097	-386.111577	-386.102485	-386.101541	-386.145517	32.658	
C	 0.2545232833	 1.5415667895	-0.143158546	-0.237069
O	-0.3473537125	 0.3389564369	-0.5641257836	-0.242776
C	 0.5504325264	-0.5448993473	-1.1844892593	 0.149438
C	 1.5805042617	-1.322422434	-0.3152550827	-0.258119
C	 1.2292544151	-2.5935749122	-1.1396283218	-0.22312
C	-0.0691595053	-1.891626954	-1.6340878099	-0.03869
C	-1.3119803441	-2.2905967123	-0.8529068394	-0.076331
O	-1.6187331244	-3.6331847733	-1.2113468143	-0.427087
H	 1.0397461082	 1.369330427	 0.6081536589	 0.108526
H	 0.7026389113	 2.0875353177	-0.9886642385	 0.103573
H	-0.5279589502	 2.1609569064	 0.3019953376	 0.125484
H	 1.0541668692	-0.0411852923	-2.0252195796	 0.06345
H	 2.6177088452	-0.9797281566	-0.3191438106	 0.093048
H	 1.2351784899	-1.3957926108	 0.71984214	 0.107185
H	 1.9394386394	-2.7725036737	-1.9504195009	 0.099821
H	 1.0859883288	-3.525894873	-0.5911426367	 0.112019
H	-0.2882557321	-1.9817607903	-2.7014652544	 0.073903
H	-1.1310131949	-2.1999329064	 0.2289689912	 0.085531
H	-2.1373597386	-1.6080033408	-1.100351943	 0.096816
H	-2.4005627563	-3.9005470305	-0.7198791172	 0.284398
82.5208	107.7672	129.1457	145.2299	206.7543	251.5006	271.6436	328.4892	401.1818	453.2437	539.4566	691.5281	764.9804	841.1695	892.2456	927.1715	944.5424	964.0404	1040.7253	1066.1351	1079.3044	1100.5359	1154.6415	1168.5788	1183.5202	1189.892	1224.5555	1235.4991	1245.3343	1259.0662	1266.9559	1292.0525	1311.5278	1360.8624	1391.2727	1457.8797	1478.9597	1482.4131	1487.0294	1497.6602	1509.7813	1520.2786	2965.8768	2975.3142	2983.6238	3017.0282	3021.2812	3060.3906	3066.4888	3076.3522	3110.597	3113.0824	3129.01	3831.704
COC1CCC1CO	CO[C@H]1CC[C@H]1CO	
InChI=1S/C6H12O2/c1-8-6-3-2-5(6)4-7/h5-7H,2-4H2,1H3	InChI=1S/C6H12O2/c1-8-6-3-2-5(6)4-7/h5-7H,2-4H2,1H3/t5-,6-/m0/s1
