20
gdb 47588	2.23524	1.92226	1.11954	4.0067	79.88	-0.2295	0.034	0.2635	1105.2589	0.174162	-403.18791	-403.180123	-403.179179	-403.220366	30.324	
O	 0.1107455523	 0.0143378692	 0.1954781479	-0.384358
C	 0.0390171554	 1.2063506521	-0.0483486557	 0.365988
C	-1.2958547632	 1.9559035445	-0.086094177	-0.304854
C	-1.2074056856	 3.4906760931	-0.2128023994	-0.216078
C	 0.0178597631	 4.039913801	 0.5373621467	-0.231391
C	 1.2507748977	 3.4418542506	-0.1193266872	 0.070689
C	 2.5894431461	 3.2239968652	 0.6416219334	-0.275945
C	 2.4859581476	 1.7148796208	 0.2661684343	-0.169886
N	 1.1423444744	 1.9751687957	-0.2715980521	-0.083097
H	-1.9020119157	 1.5254549181	-0.8897552949	 0.129665
H	-1.799169547	 1.6762536404	 0.8462812896	 0.132452
H	-1.1291938571	 3.7771645743	-1.2691325023	 0.106087
H	-2.1299830886	 3.9449259976	 0.1621060501	 0.102904
H	 0.0501670298	 5.1337559145	 0.4981790273	 0.102134
H	-0.0251189222	 3.7473216699	 1.5947566789	 0.100165
H	 1.408776016	 3.9214091389	-1.0956856043	 0.082202
H	 3.4550676235	 3.7637070641	 0.2553577097	 0.110446
H	 2.5028595464	 3.4037104168	 1.7157263166	 0.114074
H	 3.1981708412	 1.3807454909	-0.4951647036	 0.115849
H	 2.4808610757	 0.9935478826	 1.0870022219	 0.132955
97.0965	110.9475	199.7875	242.7309	314.1632	423.9807	459.1824	481.6547	576.3725	614.2681	639.9154	720.6139	800.2715	867.8952	890.5759	898.879	934.7795	967.8309	988.5521	1037.883	1072.0009	1094.2092	1120.4263	1144.7931	1182.4617	1188.1326	1216.2454	1222.961	1264.7691	1265.8761	1293.9188	1320.5159	1338.8077	1343.2278	1366.3064	1392.0891	1426.82	1465.3294	1484.9543	1489.0712	1497.9893	1520.4596	1765.1969	2995.1124	3022.5124	3030.1412	3048.3831	3049.2685	3074.1561	3075.3259	3079.475	3090.7476	3103.9119	3135.1906
O=C1CCCC2CCN12	O=C1CCC[C@H]2CCN12	
InChI=1S/C7H11NO/c9-7-3-1-2-6-4-5-8(6)7/h6H,1-5H2	InChI=1S/C7H11NO/c9-7-3-1-2-6-4-5-8(6)7/h6H,1-5H2/t6-/m0/s1
