23
gdb 119874	2.98928	0.95138	0.78515	1.3231	89.12	-0.2288	0.0283	0.2571	1561.6556	0.205683	-388.312682	-388.30267	-388.301726	-388.348194	37.022	
C	-0.0442099553	 1.5493096337	-0.1569576799	-0.380261
C	-0.0517137546	 0.0199454851	-0.2161106731	-0.161037
C	-1.4156804459	-0.5800266878	 0.1745739115	-0.297503
C	-1.4504319189	-2.0779090947	 0.1396809679	 0.351954
C	-1.6881892757	-2.9190962836	 1.1479026397	-0.190839
C	-1.6299005837	-4.3698834337	 0.7340444652	-0.253391
C	-1.6408690032	-4.2792549075	-0.8111736468	-0.244575
C	-1.1614225842	-2.8456572092	-1.136687725	 0.037211
O	-1.8414851841	-2.2353872904	-2.2312323438	-0.439689
H	 0.931798564	 1.9554110693	-0.4410432494	 0.108486
H	-0.7925213905	 1.9737353808	-0.8354529484	 0.115948
H	-0.2733134273	 1.908525723	 0.8527254189	 0.111874
H	 0.2043010539	-0.3073986467	-1.2304942802	 0.105166
H	 0.7239920757	-0.3815943831	 0.4480964473	 0.093339
H	-1.6965826137	-0.2318000392	 1.1759313083	 0.091417
H	-2.1715182089	-0.1935906994	-0.5217770302	 0.11797
H	-1.8768358933	-2.6115857661	 2.1717500623	 0.082549
H	-0.711999572	-4.8487485728	 1.1037054809	 0.103677
H	-2.4623798372	-4.9629799826	 1.1298307012	 0.102104
H	-1.042850386	-5.0565709623	-1.2957649674	 0.085892
H	-2.6679501414	-4.3618291544	-1.1814393374	 0.111392
H	-0.0757619421	-2.8329636727	-1.3366675868	 0.066675
H	-1.5496014558	-2.6673588358	-3.0396910447	 0.281641
52.6823	83.9021	105.1813	131.8822	238.1178	253.0483	262.1277	285.1515	316.904	404.1976	422.9675	568.9639	638.3357	691.3264	747.9806	803.3496	845.1289	870.6357	886.8772	908.6873	937.5874	951.2587	1012.2955	1041.9585	1064.9824	1087.7783	1106.7061	1112.997	1162.9232	1188.1873	1221.3555	1247.5396	1256.4408	1287.9254	1298.311	1318.3213	1327.0676	1338.0241	1362.0545	1383.696	1411.0379	1428.904	1474.57	1484.5457	1492.4232	1499.1802	1501.9993	1508.726	1721.1329	2938.8741	3006.4323	3016.0269	3027.0495	3029.7849	3044.7322	3049.788	3054.413	3070.4752	3097.8938	3098.1693	3100.292	3179.3983	3823.6927
CCCC1=CCCC1O	CCCC1=CCC[C@H]1O	
InChI=1S/C8H14O/c1-2-4-7-5-3-6-8(7)9/h5,8-9H,2-4,6H2,1H3	InChI=1S/C8H14O/c1-2-4-7-5-3-6-8(7)9/h5,8-9H,2-4,6H2,1H3/t8-/m1/s1
