13
gdb 51724	3.92156	0.99704	0.87342	4.9507	56.14	-0.304	-0.0234	0.2806	1245.3011	0.088792	-530.905135	-530.897429	-530.896485	-530.938898	26.195	
O	 0.0063381867	 0.0472342236	-0.2562627922	-0.246658
C	 0.0180141896	 1.2180194973	-0.0525834174	 0.182637
O	 1.1327209155	 1.9766006812	-0.2595681123	-0.192292
C	 1.011638395	 3.3667925953	-0.0475419355	 0.171097
C	 2.4142037875	 3.9813361694	 0.0344908202	-0.126138
O	 2.5957578192	 4.5720574808	-1.2505539545	-0.233147
C	 1.4202892859	 4.6063513294	-1.9210827171	 0.504106
O	 1.2424991047	 5.1007555487	-2.9819866746	-0.35074
O	 0.4420055588	 3.9913204226	-1.1757545337	-0.233658
H	-0.8365525279	 1.8071220869	 0.3277566254	 0.100564
H	 0.3726957553	 3.5682203296	 0.816418543	 0.122135
H	 2.4802083308	 4.7557425926	 0.8037399673	 0.140825
H	 3.1762300488	 3.2188075927	 0.1969954814	 0.16127
49.0264	96.6138	134.8308	172.2905	234.742	381.4631	449.3238	552.5007	651.1395	735.4756	767.1068	818.893	896.5402	937.2233	1021.527	1038.7671	1060.2352	1082.5372	1130.476	1142.0768	1166.6303	1239.5397	1357.9923	1381.2385	1410.4629	1444.2814	1510.2657	1887.9188	1951.4321	2975.3682	3068.3043	3085.0759	3144.0006
O=COC1COC(=O)O1	O=CO[C@H]1COC(=O)O1	
InChI=1S/C4H4O5/c5-2-8-3-1-7-4(6)9-3/h2-3H,1H2	InChI=1S/C4H4O5/c5-2-8-3-1-7-4(6)9-3/h2-3H,1H2/t3-/m1/s1
