16
gdb 13858	3.71979	1.81597	1.42602	3.1613	60.96	-0.2351	0.0306	0.2657	883.6949	0.132477	-417.061634	-417.054093	-417.053149	-417.094236	27.614	
N	-0.0734993437	 1.2372676258	-0.0892435155	-0.516213
C	-0.0266515887	-0.1366970486	-0.1060455938	 0.283272
N	 1.0447193299	-0.7830807859	-0.3495176179	-0.51377
C	-1.3623814828	-0.7849459763	 0.2987681653	 0.14265
O	-2.4433139505	-0.1213785797	-0.3583849573	-0.281419
C	-3.017675432	-1.0352979786	-1.2938256967	-0.082249
C	-1.9926114462	-2.1702102653	-1.3620082343	-0.119361
O	-1.4216626946	-2.1398414817	-0.0543569498	-0.239701
H	 0.7374095024	 1.6904644319	-0.4845562607	 0.254564
H	-0.9628024932	 1.6432101926	-0.3378761069	 0.260512
H	 0.8650321523	-1.7805957676	-0.2350426294	 0.222462
H	-1.5006902685	-0.7107625372	 1.3846553717	 0.115777
H	-3.9866857736	-1.38701059	-0.918212373	 0.112727
H	-3.166034279	-0.529989047	-2.2525465104	 0.116942
H	-2.4297682274	-3.1570814211	-1.5217879147	 0.124893
H	-1.2263484444	-1.9775962313	-2.1241781667	 0.118913
52.5047	79.0052	183.8521	268.5758	347.8359	438.5995	483.9283	544.3471	586.4946	663.0362	669.7928	779.1819	871.9539	886.9768	929.3804	953.3836	968.3973	998.8234	1061.1968	1121.8875	1152.3624	1165.2611	1175.7101	1220.8445	1248.9631	1314.7773	1347.1467	1382.8983	1383.6726	1442.3562	1509.1644	1522.6168	1616.8423	1735.4129	3021.9416	3027.9294	3036.8657	3088.7532	3124.9012	3485.5342	3570.1878	3687.3743
NC(=N)C1OCCO1	NC(=N)C1OCCO1	
InChI=1S/C4H8N2O2/c5-3(6)4-7-1-2-8-4/h4H,1-2H2,(H3,5,6)	InChI=1S/C4H8N2O2/c5-3(6)4-7-1-2-8-4/h4H,1-2H2,(H3,5,6)
