19
gdb 117235	4.25364	0.8209	0.76481	2.7873	74.71	-0.2431	0.0047	0.2478	1552.4833	0.157662	-460.189071	-460.179589	-460.178645	-460.22447	34.319	
C	-0.2326096609	 1.4312282125	-0.2226244689	-0.391912
C	 0.0554277627	-0.0393156164	 0.0077495437	-0.046956
O	 0.7232181268	-0.5407976968	-1.170570198	-0.249088
C	 1.0608010855	-1.8378570436	-1.1508868411	 0.496158
O	 0.8384890561	-2.5716300778	-0.2019505549	-0.416112
C	 1.6969683461	-2.2722109806	-2.406861155	-0.224148
C	 2.8001166424	-3.3342520529	-2.3022258729	-0.326541
C	 1.4639108149	-3.7420973669	-2.8104452362	 0.155044
O	 0.6097521524	-4.5559968249	-2.094092963	-0.423135
H	 0.6933948674	 1.9903761062	-0.3830729166	 0.131384
H	-0.8754857433	 1.5712909271	-1.0960625739	 0.132133
H	-0.7412916809	 1.849615583	 0.6508064041	 0.125369
H	 0.7021034022	-0.2013936199	 0.8753969624	 0.125121
H	-0.859145769	-0.6184874949	 0.1672603958	 0.126042
H	 1.7713093093	-1.5213973942	-3.1826760315	 0.106927
H	 3.6323705769	-3.2420652216	-2.9910306407	 0.122701
H	 3.0595367398	-3.6414441247	-1.2947266458	 0.137164
H	 1.3556670828	-3.9124663996	-3.8767728559	 0.115825
H	 0.5858159286	-4.2156922339	-1.1834554717	 0.304025
32.7981	77.8452	136.822	141.6815	224.7971	255.6343	278.3054	352.8285	405.3499	455.2973	492.0357	555.0208	707.7675	754.1175	793.36	806.8957	821.2118	881.2103	893.7807	964.6055	1022.162	1056.309	1062.0196	1093.3702	1119.3138	1135.5307	1144.141	1182.1295	1212.7559	1246.5579	1290.9177	1363.2329	1379.4028	1411.8847	1439.3009	1451.3701	1485.7359	1488.6996	1496.049	1519.6677	1750.116	3047.451	3055.188	3093.8828	3122.3048	3128.1971	3134.472	3167.8658	3197.3121	3230.2634	3646.785
CCOC(=O)C1CC1O	CCOC(=O)[C@H]1C[C@H]1O	
InChI=1S/C6H10O3/c1-2-9-6(8)4-3-5(4)7/h4-5,7H,2-3H2,1H3	InChI=1S/C6H10O3/c1-2-9-6(8)4-3-5(4)7/h4-5,7H,2-3H2,1H3/t4-,5+/m0/s1
