17
gdb 14963	4.48649	1.53607	1.20393	2.3796	68.11	-0.2425	0.0188	0.2613	1003.2212	0.142879	-400.997649	-400.989829	-400.988884	-401.030295	28.07	
C	-0.198015823	 1.4524113718	-0.0255326223	-0.327668
N	-0.1078652454	 0.0018069504	-0.0584096765	-0.288668
C	 0.6470475477	-0.5658813208	-0.8940865645	 0.381308
C	 0.6649009289	-2.0797994694	-0.988560694	-0.171424
O	 1.913139014	-2.6124342474	-1.3959674861	-0.240433
C	 2.3436151945	-1.9943312476	-2.5925875631	-0.08967
C	 2.5629578306	-0.5140417007	-2.3423797363	-0.077047
O	 1.3810573704	 0.1164165102	-1.8268999681	-0.260882
H	 0.6515667273	 1.9635546389	-0.4914196906	 0.119248
H	-1.1124657771	 1.7738885589	-0.5397902668	 0.125994
H	-0.2878084259	 1.7752968579	 1.0162498105	 0.122112
H	 0.4254490127	-2.4964268787	-0.010695991	 0.143414
H	-0.1228511081	-2.3860005292	-1.699401672	 0.110667
H	 3.2810133815	-2.4732288104	-2.8900714939	 0.118156
H	 1.6024291133	-2.1420439871	-3.3958724107	 0.098403
H	 3.3800776402	-0.3787310104	-1.6221949088	 0.118296
H	 2.8119315284	 0.0190216936	-3.2642718958	 0.118197
69.3303	96.0829	174.948	234.0546	261.3612	358.3277	416.5854	468.6384	543.5601	582.9377	695.2339	801.2176	896.0913	933.3444	995.2392	1000.3137	1066.1613	1098.2446	1127.1581	1135.8663	1151.3869	1169.9911	1234.6789	1248.3461	1291.3451	1322.8363	1369.4705	1408.4799	1423.3169	1436.5635	1475.9826	1489.5635	1490.4682	1496.7605	1499.953	1779.6893	2954.0499	2972.4695	3017.3026	3026.9189	3074.9972	3092.4842	3096.7276	3097.5971	3140.6293
CN=C1COCCO1	CN=C1COCCO1	
InChI=1S/C5H9NO2/c1-6-5-4-7-2-3-8-5/h2-4H2,1H3	InChI=1S/C5H9NO2/c1-6-5-4-7-2-3-8-5/h2-4H2,1H3
