27
gdb 122960	3.65298	0.5301	0.48068	1.0484	94.47	-0.2474	0.0864	0.3338	2432.1881	0.24927	-390.700136	-390.68788	-390.686936	-390.738921	43.096	
C	-0.0070508002	 1.632909616	 0.0510234351	-0.379036
C	-0.019044337	 0.1026687381	 0.002298547	-0.162312
C	 0.7117232691	-0.4696541334	-1.2171785281	-0.159921
C	 0.7035704279	-2.0006173664	-1.2693994454	-0.181608
C	 1.4338070855	-2.5686450724	-2.4901756667	-0.190481
C	 1.4583141866	-4.0974253082	-2.5377964463	 0.139755
C	 2.0914552393	-4.6216635462	-3.8301651451	-0.402131
O	 2.1769250644	-4.5334739511	-1.3872590119	-0.242949
C	 1.9519085033	-5.8721979296	-1.0185756465	-0.232796
H	 1.0175900116	 2.0198254824	 0.0863204192	 0.112385
H	-0.4895031948	 2.0610530176	-0.834929217	 0.111352
H	-0.5354892188	 2.010611345	 0.9321462569	 0.108804
H	 0.4381340784	-0.2976006825	 0.9169034024	 0.09421
H	-1.057153783	-0.2558408236	 0.0025426376	 0.091457
H	 0.2555580246	-0.0679273644	-2.1334577492	 0.086269
H	 1.7508405945	-0.1112564895	-1.2173696033	 0.090681
H	 1.1663287039	-2.4060994516	-0.3628903925	 0.110326
H	-0.3364014712	-2.3575036752	-1.270578017	 0.083472
H	 0.9644802546	-2.2005433179	-3.4114985937	 0.088302
H	 2.4718523651	-2.2106213118	-2.5021038411	 0.099759
H	 0.4211439444	-4.4719116535	-2.4694737741	 0.057591
H	 3.1201876636	-4.2587139422	-3.9220684048	 0.121553
H	 2.1111231846	-5.714972896	-3.8577002824	 0.113228
H	 1.5239899726	-4.27938693	-4.7014697023	 0.113026
H	 2.4859742606	-6.0423249671	-0.0798758604	 0.124242
H	 0.881268874	-6.0760358177	-0.856918145	 0.101041
H	 2.3271121266	-6.5896100787	-1.7633734354	 0.103782
55.6383	58.2568	66.1598	101.197	135.4445	140.4005	187.7361	210.8377	245.4195	248.0937	275.2035	310.4168	377.4992	431.1159	506.548	530.6239	733.0387	753.1561	810.5285	853.1998	895.9222	927.5605	951.3223	1001.1595	1022.3343	1052.4209	1069.2152	1083.2394	1119.5925	1141.4973	1154.7383	1179.8804	1189.355	1222.0455	1248.8884	1262.2428	1301.5257	1324.5722	1328.2059	1333.7035	1367.8123	1383.9793	1400.1151	1401.4044	1405.9154	1413.7567	1471.9456	1478.3468	1482.6978	1485.0076	1491.1377	1493.9792	1499.3188	1502.9914	1504.6785	1513.1471	1515.2635	2941.2996	2972.9087	2998.7443	3005.2897	3014.6155	3019.2683	3019.3252	3025.9746	3028.143	3038.2112	3048.3527	3054.0724	3079.6327	3094.0748	3099.1952	3105.4022	3108.6606	3112.0997
CCCCCC(C)OC	CCCCC[C@@H](C)OC	
InChI=1S/C8H18O/c1-4-5-6-7-8(2)9-3/h8H,4-7H2,1-3H3	InChI=1S/C8H18O/c1-4-5-6-7-8(2)9-3/h8H,4-7H2,1-3H3/t8-/m1/s1
