16
gdb 112994	3.81549	1.03157	0.85409	4.8937	69.37	-0.2476	-0.0455	0.202	1314.0202	0.122575	-475.042803	-475.033743	-475.032799	-475.077494	30.839	
C	-0.2349653033	 1.3410423561	-0.0884559203	-0.251202
O	 0.2894923878	 0.0361340884	 0.1212507339	-0.239912
C	 0.7767726583	-0.5512127021	-1.0433161915	-0.017692
C	 1.2671728353	-2.0070006526	-0.8342659631	-0.21438
N	 0.2723540032	-2.4403258363	-1.8382094257	-0.137782
C	-0.000904904	-3.6952970926	-2.355475342	 0.15502
O	-0.8515650798	-3.9355731596	-3.1699866499	-0.264049
C	-0.279103477	-1.1510820607	-2.0200261742	 0.420905
O	-1.2045820998	-0.7458461735	-2.6540847857	-0.315352
H	 0.5398727775	 2.0201985038	-0.4742552163	 0.112778
H	-1.0768271961	 1.3279411952	-0.7899837521	 0.147932
H	-0.5748918304	 1.7013129684	 0.8841256314	 0.13651
H	 1.5012388181	 0.0947495694	-1.56222489	 0.101329
H	 2.3024607685	-2.2089394732	-1.1166297977	 0.131503
H	 1.0601304519	-2.3746619917	 0.1730408734	 0.143817
H	 0.6739174	-4.461258149	-1.9223970804	 0.090575
53.1729	99.1353	147.8921	178.5467	180.0748	199.1634	244.4	323.0502	376.7636	487.8615	545.9024	683.5933	776.043	826.504	896.0566	997.893	1032.3562	1051.0396	1079.8799	1142.5535	1159.212	1170.1643	1183.2255	1239.8845	1244.2123	1273.7517	1362.1312	1378.9509	1434.2387	1480.5192	1486.8913	1508.2939	1511.8381	1808.8949	1910.5598	2930.152	2992.7336	2997.5461	3070.2223	3072.4132	3131.141	3135.1483
COC1CN(C=O)C1=O	CO[C@H]1CN(C=O)C1=O	
InChI=1S/C5H7NO3/c1-9-4-2-6(3-7)5(4)8/h3-4H,2H2,1H3	InChI=1S/C5H7NO3/c1-9-4-2-6(3-7)5(4)8/h3-4H,2H2,1H3/t4-/m0/s1
