20
gdb 110524	2.79224	1.38815	1.22019	3.1147	78.8	-0.2348	0.0823	0.3171	1119.3503	0.171761	-403.074828	-403.066649	-403.065705	-403.107389	32.133	
C	 0.0347879765	 1.5551139571	-0.0539691086	-0.52819
C	-0.0243416083	 0.0692758578	-0.0020770192	 0.38355
C	 0.0473230155	-1.0332095275	-1.0192596262	-0.150834
C	 1.2347790528	-1.6147315441	-0.2740784346	-0.179339
N	 0.7949532357	-0.8508021676	 0.9572905853	-0.228745
C	-0.519615677	-1.5453212498	 1.2927593837	 0.018807
C	-1.0393866115	-0.9808861223	 2.6071075611	-0.074694
O	-0.0982592242	-1.2049653975	 3.6365918496	-0.424265
C	-1.1047406434	-0.973890159	 0.0156304657	-0.14471
H	 1.046569299	 1.9051501714	-0.2867752567	 0.130208
H	-0.6390290683	 1.9302371293	-0.8316252477	 0.128375
H	-0.2662451389	 2.0029297585	 0.8990703503	 0.133388
H	-0.1488190214	-0.9718079314	-2.0830153728	 0.091967
H	 1.3178347713	-2.6975793251	-0.1283070016	 0.102011
H	 2.189718608	-1.2182412851	-0.6294983095	 0.108401
H	-0.4092563633	-2.633086219	 1.3806378917	 0.074017
H	-1.2648892409	 0.0921234296	 2.4877247452	 0.080131
H	-1.9695916084	-1.4811248377	 2.8986731952	 0.102221
H	 0.7502404209	-0.9394833579	 3.2544388425	 0.287736
H	-2.1367466142	-0.8766768697	-0.3000616634	 0.089967
101.6549	158.5107	193.0238	206.0841	272.6014	315.089	425.6972	468.7838	521.4957	547.3136	611.5912	756.8861	771.0765	798.042	865.1459	874.575	884.8671	936.9575	984.9385	990.452	1013.1509	1026.5875	1051.3429	1079.5977	1088.7335	1112.3758	1140.7466	1149.9416	1166.7803	1219.3653	1229.7941	1252.9854	1290.4109	1301.9778	1342.7395	1397.7342	1406.026	1448.6152	1467.4292	1475.1923	1496.6804	1507.5034	1514.4648	2964.7602	3027.4763	3029.9231	3040.4337	3066.4769	3091.4134	3096.7283	3100.9882	3181.1362	3190.6644	3739.3152
CC12C3CN1C(CO)C23	C[C@@]12[C@H]3CN1[C@@H](CO)[C@@H]23	
InChI=1S/C7H11NO/c1-7-4-2-8(7)5(3-9)6(4)7/h4-6,9H,2-3H2,1H3	InChI=1S/C7H11NO/c1-7-4-2-8(7)5(3-9)6(4)7/h4-6,9H,2-3H2,1H3/t4-,5-,6-,7-/m0/s1
