17
gdb 79953	2.72173	1.59507	1.30551	3.8216	76.77	-0.2413	-0.0177	0.2235	1007.1064	0.136975	-380.85532	-380.847508	-380.846564	-380.887526	29.877	
C	-0.2111676891	 1.4621368948	-0.2711527601	-0.324183
N	 0.0627700896	 0.0518612723	-0.0380104516	-0.081598
C	 1.3965355792	-0.5454406145	-0.179061314	-0.07894
C	 2.5839489662	 0.3565187825	-0.0955015311	-0.081557
C	 2.6671133603	 0.9647190634	 1.0880613439	-0.094916
C	 1.5846981435	 0.4687641173	 2.0413676074	-0.200967
C	 0.8594254249	 1.5366870184	 2.7339373743	 0.275147
N	 0.296882872	 2.3762666173	 3.2949347777	-0.332251
C	 0.7050952999	-0.4451461222	 1.1561242607	-0.060246
H	 0.5994287922	 2.1480449932	 0.0069754954	 0.118845
H	-0.4267257735	 1.5965237578	-1.3354900829	 0.123777
H	-1.1023556191	 1.7382466996	 0.2984246629	 0.143777
H	 1.4397898523	-1.4563105775	-0.7688237849	 0.101081
H	 3.260921437	 0.517330343	-0.9262125218	 0.114538
H	 3.3805643248	 1.7250607924	 1.3808863204	 0.125073
H	 2.0402618705	-0.1557706718	 2.8226435489	 0.142806
H	 0.2171349193	-1.281181096	 1.6475927848	 0.109614
110.7721	139.2818	200.3967	231.4131	269.4726	370.6028	442.9458	504.0808	540.368	587.7219	692.0588	740.8564	772.7985	816.5357	842.3798	895.7834	941.3841	964.5836	993.926	1037.891	1049.5858	1080.9899	1110.6481	1141.8047	1151.7293	1178.6068	1230.2755	1290.3843	1305.7476	1321.8735	1363.7994	1382.6026	1452.0395	1483.9876	1505.7613	1667.1107	2355.6981	3013.2902	3013.8021	3084.2621	3118.9453	3149.1613	3157.2474	3197.8678	3222.6259
CN1C2C=CC(C#N)C12	CN1[C@H]2C=C[C@@H](C#N)[C@@H]12	
InChI=1S/C7H8N2/c1-9-6-3-2-5(4-8)7(6)9/h2-3,5-7H,1H3	InChI=1S/C7H8N2/c1-9-6-3-2-5(4-8)7(6)9/h2-3,5-7H,1H3/t5-,6-,7+,9?/m0/s1
