16
gdb 31292	2.01362	1.6269	0.95235	4.8312	79.61	-0.2443	-0.0394	0.2049	1207.9552	0.125023	-400.80053	-400.792219	-400.791275	-400.834334	29.974	
C	 0.0598422855	 1.5732879705	 0.330064328	-0.371836
C	-0.0014323804	 0.1044080659	-0.1234827179	-0.32038
C	-1.3847397903	-0.4687665636	-0.0685636936	 0.165552
C	-2.1630349913	-0.8575645005	-1.1297329101	 0.184807
O	-3.3773481447	-1.3230714568	-0.7014565531	-0.172453
C	-3.3670187815	-1.2275499703	 0.6455914489	-0.012125
C	-2.1877256977	-0.7161094944	 1.0905407873	-0.254749
C	-1.9089882731	-0.8511739713	-2.5168578336	 0.226896
N	-1.6658226207	-0.8312378886	-3.6501697922	-0.350461
H	 1.0876248598	 1.9446397303	 0.285567844	 0.12333
H	-0.560420254	 2.2062342853	-0.3111672519	 0.131534
H	-0.2961259175	 1.6872385576	 1.3587205077	 0.120921
H	 0.3821900905	 0.0178348839	-1.1450295126	 0.130014
H	 0.6605573405	-0.4979117514	 0.5107310719	 0.119928
H	-4.2635477768	-1.5620911093	 1.1418564353	 0.152036
H	-1.9133532182	-0.5382287774	 2.1187343619	 0.126987
42.9229	134.3941	152.6243	173.6444	220.5337	326.8262	380.7118	511.1971	546.6023	597.7425	627.9535	670.4883	728.329	785.779	794.8833	846.9447	911.3129	966.5957	1040.911	1072.8019	1088.5645	1128.6314	1192.9952	1248.9763	1273.9846	1309.2824	1359.78	1409.3928	1439.0646	1484.2396	1497.2484	1504.7417	1519.4831	1626.7568	2336.9265	3033.0345	3041.4211	3079.1584	3114.2617	3119.3141	3254.8998	3283.1843
CCC1=C(OC=C1)C#N	CCc1c(occ1)C#N	
InChI=1S/C7H7NO/c1-2-6-3-4-9-7(6)5-8/h3-4H,2H2,1H3	InChI=1S/C7H7NO/c1-2-6-3-4-9-7(6)5-8/h3-4H,2H2,1H3
