18
gdb 76138	2.33452	1.31197	1.1326	4.9291	70.3	-0.2362	0.0113	0.2475	1160.612	0.145395	-476.242578	-476.232874	-476.23193	-476.276612	36.438	
C	-0.2137480357	 1.5240628523	-0.0162183483	-0.467309
C	 0.0360292532	 0.0378264461	-0.0303137582	 0.324493
O	-1.019029841	-0.7370433795	-0.5291132138	-0.449253
C	 1.3725572233	-0.5365490186	-0.3377751939	 0.100636
O	 2.4779842253	 0.2441556544	-0.6044258443	-0.427684
C	 0.8372063286	-0.6677540246	 1.1059562885	-0.301089
C	 1.5314545156	 0.0947871842	 2.1676884875	 0.457623
N	 1.3838026733	-0.3731386962	 3.4368877417	-0.534456
O	 2.2145786751	 1.0965863989	 1.9406553876	-0.416468
H	 0.6435509044	 2.0729881952	 0.3717022626	 0.155328
H	-0.4245406498	 1.8638386107	-1.0347265582	 0.132796
H	-1.0808986538	 1.76421273	 0.6115809237	 0.104074
H	-1.8003034115	-0.5559652011	 0.0066389784	 0.280374
H	 1.3642978918	-1.4574959849	-0.9142257836	 0.116079
H	 2.6414100097	 0.7860357645	 0.1922304531	 0.310168
H	 0.4377792974	-1.6388295231	 1.3788509315	 0.087067
H	 0.8964995186	-1.2276941572	 3.639329938	 0.262958
H	 1.9121065954	 0.072337639	 4.1693916677	 0.264662
81.6087	155.8848	179.2729	195.4225	205.9173	254.0835	280.3852	330.267	355.5371	396.3288	452.018	475.5424	534.4354	590.9763	633.7476	646.5145	697.1303	807.0365	820.058	878.1877	954.237	987.6788	1014.7718	1078.846	1086.9576	1101.7607	1150.5213	1213.2738	1256.3221	1284.7067	1345.3436	1405.1817	1417.3616	1446.1631	1479.0158	1494.0059	1519.0767	1616.4628	1721.6916	3029.5802	3096.1328	3152.576	3161.1677	3165.7288	3543.4447	3604.4419	3742.6653	3781.6649
CC1(O)C(O)C1C(N)=O	C[C@@]1(O)[C@@H](O)[C@H]1C(=O)N	
InChI=1S/C5H9NO3/c1-5(9)2(3(5)7)4(6)8/h2-3,7,9H,1H3,(H2,6,8)	InChI=1S/C5H9NO3/c1-5(9)2(3(5)7)4(6)8/h2-3,7,9H,1H3,(H2,6,8)/t2-,3-,5-/m0/s1
