15
gdb 25486	5.21539	0.98667	0.845	3.651	78.33	-0.2514	-0.0355	0.2159	1294.0622	0.114696	-416.856912	-416.849542	-416.848598	-416.889496	27.187	
N	-2.4436837744	 1.1805904135	-0.1621542959	-0.421923
C	-2.2608255278	 0.0041855479	 0.244412302	 0.107056
O	-1.2242648775	-0.7195252685	-0.2586675467	-0.217485
C	-1.18792922	-2.0729720232	-0.0228559265	 0.326374
C	 0.0545874682	-2.6394525759	 0.2675040964	-0.055275
N	 0.2283209264	-3.9422706293	 0.4725299142	-0.254805
C	-0.8478434522	-4.7326928539	 0.4004477302	 0.002194
C	-2.1238010501	-4.2607477995	 0.1110301641	-0.105069
C	-2.3033317789	-2.8991095196	-0.1156511957	-0.19743
H	-3.2216273532	 1.606261191	 0.3378901718	 0.238197
H	-2.8330680537	-0.538532877	 1.0057647044	 0.105851
H	 0.9279922769	-1.9952211382	 0.326013061	 0.127525
H	-0.678932598	-5.7913658423	 0.5777724335	 0.114098
H	-2.9621529435	-4.94563028	 0.0497417071	 0.110546
H	-3.274947142	-2.4956870151	-0.37798717	 0.120148
65.7149	109.3094	174.2124	282.8708	395.2804	427.5444	458.9243	540.1109	618.6141	687.7802	734.972	826.0296	830.1452	867.9582	942.0699	970.0146	993.9251	1032.8883	1042.1064	1051.3647	1070.9955	1138.9395	1222.0329	1250.175	1284.1069	1306.1185	1352.2178	1410.2797	1463.1895	1505.8973	1616.3601	1622.977	1747.5035	3055.005	3164.3456	3169.3889	3189.3573	3204.3712	3520.4938
N=COC1=CN=CC=C1	[NH][CH]Oc1cnccc1	
InChI=1S/C6H6N2O/c7-5-9-6-2-1-3-8-4-6/h1-5,7H	InChI=1S/C6H6N2O/c7-5-9-6-2-1-3-8-4-6/h1-5,7H
