19
gdb 17238	4.89792	1.63326	1.47836	1.5933	74.5	-0.2362	0.0943	0.3305	929.1037	0.166896	-327.877933	-327.87073	-327.869786	-327.909314	28.201	
C	 0.0030041087	 1.4787737669	 0.2847154932	-0.382348
C	-0.0598380541	 0.0058265339	-0.1368359174	-0.295412
C	-1.4564930974	-0.5444964222	-0.2036563167	 0.356046
C	-2.6764945885	 0.0568186009	-0.8903644615	-0.291399
C	-3.471283656	-0.8362021148	 0.078264876	-0.002625
C	-3.1870581204	-2.2900732763	-0.3428823376	-0.238423
C	-1.776072383	-1.9734740903	 0.1154511055	-0.086401
N	-2.240638616	-0.8773959538	 1.0436662767	-0.199257
H	 1.0404772257	 1.8152508406	 0.37026365	 0.111107
H	-0.4954543388	 2.1273307547	-0.4430487892	 0.11472
H	-0.4845246691	 1.6214415402	 1.2536521041	 0.134476
H	 0.4222149477	-0.1264685827	-1.1150984558	 0.100337
H	 0.5140497958	-0.6019214192	 0.5733465356	 0.105898
H	-2.7857290255	 1.1142365668	-0.6363931209	 0.108911
H	-2.8170739621	-0.0814619911	-1.9683881536	 0.090921
H	-4.4422012128	-0.533262198	 0.4653560553	 0.080409
H	-3.665402136	-3.0037769605	 0.3329894509	 0.11093
H	-3.3703719836	-2.5806941145	-1.3831193307	 0.093231
H	-1.0027151945	-2.6704509407	 0.4207734861	 0.08888
78.2559	168.6387	216.9278	297.3434	354.7673	409.0869	496.7211	604.6578	734.9494	756.5396	771.6256	803.728	841.3715	890.2917	929.2823	940.6991	982.9867	997.4077	1011.2042	1031.4049	1057.6926	1063.7677	1106.263	1129.7515	1157.3629	1191.595	1218.685	1235.6979	1271.0015	1280.8413	1294.9713	1349.9812	1364.5571	1407.8354	1421.3039	1471.2729	1489.8189	1499.0584	1505.4417	1508.6472	3016.1615	3033.7647	3038.5929	3040.3663	3054.6679	3100.2318	3102.0066	3106.8736	3116.2922	3136.1522	3170.4189
CCC12CC3CC1N23	CC[C@@]12C[C@H]3C[C@@H]1N23	
InChI=1S/C7H11N/c1-2-7-4-5-3-6(7)8(5)7/h5-6H,2-4H2,1H3	InChI=1S/C7H11N/c1-2-7-4-5-3-6(7)8(5)7/h5-6H,2-4H2,1H3/t5-,6+,7-,8?/m1/s1
