18
gdb 68126	3.99095	1.224	1.10056	4.5218	81.7	-0.2488	-0.0088	0.24	1133.4926	0.148213	-364.803235	-364.79544	-364.794496	-364.835106	31.197	
C	-0.002232824	 1.551676241	 0.0299384988	-0.508176
C	 0.0258354885	 0.0418196357	 0.0270770961	 0.270312
C	 0.9677902299	-0.7893756217	-0.9190301131	-0.271017
C	 0.6034665731	-1.9287850075	 0.1025242068	 0.180657
C	 0.6584146803	-0.7991362224	 1.195840532	-0.271014
C	-0.9219784736	-2.0195227645	-0.120879096	-0.128489
C	-1.288888473	-0.7395221915	-0.1690031977	-0.127249
C	 1.3715918872	-3.1473783776	 0.2092778029	 0.148741
N	 1.9957423784	-4.1170018668	 0.2961243761	-0.345336
H	 0.9990621475	 1.9678918477	 0.1783165482	 0.121322
H	-0.3888144548	 1.9399604693	-0.9187627457	 0.124981
H	-0.6448438478	 1.9318836316	 0.8316477544	 0.124984
H	 0.6499493998	-0.9398792217	-1.9521471287	 0.110559
H	 2.0176937827	-0.4868226425	-0.8640081639	 0.110813
H	 1.6796990438	-0.4975317137	 1.4465917917	 0.110813
H	 0.0581643586	-0.958535176	 2.0932239434	 0.110559
H	-1.4890370344	-2.9339837866	-0.20788447	 0.125575
H	-2.2683811019	-0.3046309727	-0.3104408753	 0.111964
141.9698	146.9565	204.8278	289.0141	298.3751	446.9265	500.0067	514.5337	518.5543	566.7578	571.5055	618.0971	701.9107	724.3148	831.0486	861.2176	899.5908	903.3256	929.8252	979.7959	996.7435	1043.0382	1067.0863	1069.6139	1132.3407	1148.6164	1165.3579	1203.7255	1217.5794	1238.8432	1304.0499	1348.1208	1417.0055	1477.6525	1492.441	1493.8847	1513.8009	1630.4546	2354.2247	3030.2043	3052.505	3063.4204	3095.037	3102.7454	3131.8205	3136.7225	3225.3871	3257.0628
CC12CC(C1)(C=C2)C#N	C[C@@]12C[C@@](C1)(C=C2)C#N	
InChI=1S/C8H9N/c1-7-2-3-8(4-7,5-7)6-9/h2-3H,4-5H2,1H3	InChI=1S/C8H9N/c1-7-2-3-8(4-7,5-7)6-9/h2-3H,4-5H2,1H3/t7-,8-
