14
gdb 5282	5.03355	1.58946	1.22451	4.4118	67.41	-0.2203	-0.017	0.2033	924.9129	0.110032	-378.794101	-378.787223	-378.786279	-378.825238	26.182	
N	-0.1366610738	 1.3714058884	 0.0230191389	-0.559025
C	 0.0176972025	-0.0013454919	-0.1639734167	 0.293936
O	 1.0971373047	-0.5003578249	-0.4193151537	-0.35035
C	-1.2227145832	-0.781592129	-0.0769823905	 0.234234
C	-1.3819449493	-2.1448249556	 0.0856811752	-0.191378
C	-2.7700179129	-2.4142387298	 0.1270890457	-0.146691
C	-3.4274565825	-1.2097481843	-0.023714696	-0.07998
N	-2.4870431342	-0.2244906832	-0.1258305568	-0.321095
H	 0.7472541576	 1.8581172958	 0.0847443718	 0.257279
H	-0.8131325943	 1.6682969587	 0.7115217854	 0.247464
H	-0.5690940521	-2.8468826642	 0.1817011032	 0.121727
H	-3.2400550383	-3.377033836	 0.2544475456	 0.103453
H	-4.4802440878	-0.980334571	-0.0716718928	 0.125876
H	-2.6736856965	 0.7282295268	-0.3889586993	 0.26455
100.4212	176.3625	187.337	402.9844	429.4546	509.6074	547.6617	577.9802	629.2377	660.2541	680.0569	742.706	783.1715	834.0264	892.3922	894.466	957.7776	1052.1999	1081.5058	1112.0876	1143.5322	1205.2132	1276.3753	1355.747	1442.3037	1456.0905	1480.2897	1596.8978	1623.7652	1782.7233	3248.4398	3265.174	3274.0266	3554.8341	3668.8705	3672.613
NC(=O)C1=CC=CN1	NC(=O)c1ccc[nH]1	
InChI=1S/C5H6N2O/c6-5(8)4-2-1-3-7-4/h1-3,7H,(H2,6,8)	InChI=1S/C5H6N2O/c6-5(8)4-2-1-3-7-4/h1-3,7H,(H2,6,8)
