16
gdb 18181	4.14947	1.80068	1.47277	0.7901	74.63	-0.2326	0.0137	0.2462	869.7665	0.131134	-309.426802	-309.419945	-309.419001	-309.457634	27.291	
C	-0.0635674146	-1.2596905429	-0.1405456466	-0.484669
C	-0.0287721616	-0.0604144387	-0.0636326461	 0.339568
C	 0.0062684538	 1.397148435	 0.0398990002	-0.216726
C	-0.6048594893	 1.9287511223	 1.3364276158	-0.086142
C	 0.2093015773	 2.7804646524	 1.9597405572	-0.077871
C	 1.5178635476	 2.9200587969	 1.2577788477	-0.080754
C	 2.3416884217	 1.6467338553	 1.1901006874	-0.275565
C	 1.4240388503	 2.0002456941	 0.0530853095	-0.042715
H	-0.0921075562	-2.3185390772	-0.2123306621	 0.193318
H	-0.5500241718	 1.8073907571	-0.8166171264	 0.110055
H	-1.5782268627	 1.6000957232	 1.6790351823	 0.105689
H	-0.0171258794	 3.292438399	 2.8882517579	 0.099995
H	 2.0206123501	 3.8798749066	 1.2170290085	 0.08857
H	 3.4058384051	 1.7463535954	 1.0033894158	 0.110787
H	 2.06771995	 0.8298159891	 1.8490170962	 0.123644
H	 1.8648083197	 2.2697694225	-0.8984475571	 0.092815
112.8918	147.625	299.3412	344.3152	448.5776	521.3225	535.4324	620.525	628.3192	686.0168	746.4629	771.8047	795.8177	829.9789	892.4189	927.6597	947.3631	989.6429	1010.8855	1042.8	1054.8229	1067.7622	1089.4081	1102.7158	1142.235	1199.4097	1258.7361	1298.8309	1308.6314	1370.8781	1377.8399	1478.3624	1671.6143	2233.9298	2984.8459	3128.9062	3169.4678	3186.3324	3191.684	3219.4613	3220.5327	3505.527
C#CC1C=CC2CC12	C#C[C@H]1C=C[C@H]2C[C@@H]12	
InChI=1S/C8H8/c1-2-6-3-4-7-5-8(6)7/h1,3-4,6-8H,5H2	InChI=1S/C8H8/c1-2-6-3-4-7-5-8(6)7/h1,3-4,6-8H,5H2/t6-,7-,8-/m0/s1
