17
gdb 50623	3.31258	1.24765	0.9369	2.8975	78.4	-0.2271	-0.0399	0.1871	1206.9099	0.135573	-421.829458	-421.821416	-421.820472	-421.862689	29.931	
O	-0.9347597518	 1.245854519	-0.100064925	-0.240422
C	 0.1809374012	 0.8342775687	 0.0712785768	 0.14629
C	 1.445413983	 1.6791961513	-0.0885699165	-0.047068
O	 2.4909186215	 0.7663546798	-0.3825593155	-0.253793
C	 3.7825001237	 1.1488238404	 0.0335415315	-0.136223
C	 4.3342731625	 2.4118006049	-0.5612576611	-0.083877
C	 3.7103043489	 3.3479204544	-1.2915565011	-0.070828
C	 2.2954573195	 3.4587731501	-1.6349033761	-0.08747
C	 1.2762585249	 2.7689104105	-1.1102147052	-0.074921
H	 0.3957802538	-0.2104957707	 0.3818152426	 0.098336
H	 1.6163607805	 2.1304837334	 0.9087562386	 0.112145
H	 3.8400729629	 1.2084686197	 1.1361543146	 0.102898
H	 4.4282124655	 0.3101779525	-0.2579175192	 0.127422
H	 5.399306851	 2.5398150331	-0.3736855003	 0.097644
H	 4.3286796769	 4.1600194036	-1.6675327412	 0.092633
H	 2.0589450412	 4.2225797999	-2.3718296836	 0.097083
H	 0.2541022945	 2.9649466592	-1.4175829192	 0.120153
53.0267	105.2322	194.0874	262.1421	272.1816	351.5007	389.6048	445.451	544.3866	596.1885	686.9154	713.5289	782.1542	811.4392	869.7093	895.826	953.2153	998.3869	1009.9257	1015.2678	1027.7571	1068.8102	1108.3719	1162.9038	1230.2943	1259.0395	1266.676	1277.4591	1340.8081	1388.2046	1406.4525	1416.7674	1450.8097	1476.3394	1682.5675	1715.2079	1842.312	2910.8532	2916.4006	2934.8362	3040.1685	3133.0851	3149.2217	3162.868	3191.1609
O=CC1OCC=CC=C1	O=C[C@H]1OCC=CC=C1	
InChI=1S/C7H8O2/c8-6-7-4-2-1-3-5-9-7/h1-4,6-7H,5H2	InChI=1S/C7H8O2/c8-6-7-4-2-1-3-5-9-7/h1-4,6-7H,5H2/t7-/m0/s1
