20
gdb 81654	2.75449	1.58117	1.31816	2.4471	79.35	-0.2385	0.0293	0.2677	1052.9782	0.173188	-403.146522	-403.138621	-403.137677	-403.178854	30.886	
C	-0.2336150177	 1.3937281384	 0.0440605366	-0.421044
C	 0.0577853818	-0.1014031154	-0.0111062158	 0.018752
C	 0.9436095275	-0.5500070751	-1.2107975275	-0.039306
C	 2.1886012541	-0.4576946037	-0.2912066146	-0.245866
C	 1.2203905446	-0.5783593018	 0.9229008082	 0.014206
N	 1.0565586175	-1.934497823	 1.3917867742	-0.261639
C	 0.8069605203	-2.9008972987	 0.6185880217	 0.129649
O	 0.6316009865	-3.0172450799	-0.7244375562	-0.243863
C	 0.6472507791	-1.9562351593	-1.6962867071	-0.077808
H	 0.6779925326	 1.9903281205	-0.0722633594	 0.11615
H	-0.9255885358	 1.6894730295	-0.7521222112	 0.114724
H	-0.6883779872	 1.6672792226	 1.0019075976	 0.121926
H	-0.869839866	-0.6681224176	 0.1217962807	 0.074604
H	 0.9304998135	 0.1029142126	-2.0906695465	 0.071527
H	 2.9507333712	-1.2357542608	-0.3810365518	 0.105017
H	 2.6719997947	 0.5207439696	-0.3429689089	 0.102697
H	 1.4343578035	 0.062863847	 1.7819456893	 0.069646
H	 0.6980560088	-3.9008957533	 1.0376469646	 0.120986
H	-0.3379498516	-1.9806678249	-2.1789225636	 0.114345
H	 1.3925104824	-2.2563981065	-2.4428484802	 0.115296
76.5871	202.7486	223.251	233.8405	295.9049	327.2738	367.4321	423.2368	566.3913	584.1591	752.7938	788.6962	819.6549	834.9029	885.074	902.0551	918.953	954.489	972.7183	980.8521	1053.0969	1073.8283	1101.4982	1113.06	1115.2238	1157.1728	1173.5492	1205.694	1245.422	1266.4252	1271.9225	1312.2257	1325.132	1349.13	1384.5558	1410.7729	1417.3648	1434.8803	1484.8381	1497.2454	1498.4791	1501.926	1734.0831	3019.38	3027.607	3046.282	3047.3753	3059.3493	3060.139	3068.8315	3094.1498	3098.8194	3116.5191	3143.711
CC1C2CC1N=COC2	C[C@H]1[C@H]2C[C@@H]1N=COC2	
InChI=1S/C7H11NO/c1-5-6-2-7(5)8-4-9-3-6/h4-7H,2-3H2,1H3	InChI=1S/C7H11NO/c1-5-6-2-7(5)8-4-9-3-6/h4-7H,2-3H2,1H3/t5-,6-,7-/m0/s1
