20
gdb 47441	2.70401	1.34192	0.9988	3.5801	79.13	-0.2311	0.0355	0.2666	1226.7754	0.173093	-403.18459	-403.176078	-403.175133	-403.218537	32.01	
O	 0.3020367367	 0.1324457498	-0.7216650903	-0.386428
C	 0.1853534433	 1.2753241286	-0.3356257975	 0.405896
N	-0.9838760872	 1.8839300017	 0.0355396051	-0.298728
C	-0.8406584447	 3.2304767584	 0.5588709721	-0.165006
C	 0.5556944618	 3.6413690576	 0.0353708408	-0.235029
C	 1.3121967242	 2.3073304046	-0.1364059451	-0.134046
C	 2.162657828	 1.9220485736	 1.0619270396	 0.036674
C	 3.1932442909	 0.8344605227	 0.933315017	-0.255977
C	 3.6316904172	 2.2699018195	 1.0936250325	-0.287569
H	-1.8315666982	 1.3443485396	 0.1115918247	 0.24873
H	-1.6318456152	 3.8900606247	 0.188185159	 0.112265
H	-0.8842690981	 3.2468912513	 1.6574437617	 0.10645
H	 0.4456368416	 4.137548503	-0.9330737973	 0.111243
H	 1.062563071	 4.3334778527	 0.7111604023	 0.110111
H	 1.9437711729	 2.3041837164	-1.0294244643	 0.091093
H	 1.6396765623	 1.9743412004	 2.0145312265	 0.079557
H	 3.3316297568	 0.1565928033	 1.767916487	 0.111758
H	 3.3028575551	 0.3667831132	-0.0383403701	 0.129488
H	 4.0503692675	 2.774500782	 0.2286451265	 0.109856
H	 4.069357344	 2.5744741568	 2.0379518397	 0.109662
55.6877	77.3663	155.2841	159.4621	275.6244	298.5408	386.3071	494.7899	518.7717	649.1684	692.8214	704.4026	765.5934	813.8314	829.0079	873.8798	900.497	919.2893	954.0883	980.4279	1035.3586	1053.0364	1058.9989	1073.6378	1084.5215	1133.286	1169.6525	1193.5161	1206.7937	1227.0173	1231.0262	1266.2192	1271.6832	1293.7455	1333.3538	1364.5911	1415.5571	1447.1037	1473.364	1492.6309	1508.0502	1536.9873	1825.2584	2995.8957	3054.4485	3064.6497	3072.8905	3112.9806	3125.9752	3129.5255	3143.8534	3209.4362	3229.5906	3639.6358
O=C1NCCC1C1CC1	O=C1NCC[C@H]1C1CC1	
InChI=1S/C7H11NO/c9-7-6(3-4-8-7)5-1-2-5/h5-6H,1-4H2,(H,8,9)	InChI=1S/C7H11NO/c9-7-6(3-4-8-7)5-1-2-5/h5-6H,1-4H2,(H,8,9)/t6-/m0/s1
