15
gdb 64593	3.96865	1.20401	1.18	1.9777	64.08	-0.2461	-0.0422	0.2039	1053.2108	0.111401	-494.86873	-494.860925	-494.859981	-494.901254	28.771	
O	-0.2205242559	 1.3436290503	 0.0943275811	-0.468504
C	-0.0973672012	-0.0280942909	 0.0195165074	 0.285481
C	 1.0241727865	-0.4878090977	-0.8149563843	 0.093681
O	 1.7554304143	 0.3040884155	-1.3723755154	-0.292893
C	-0.4707369199	-0.9089497317	 1.2399626936	-0.02301
O	-1.178146428	-0.2921335663	 2.2678931005	-0.253702
C	-2.3342540851	 0.3082029532	 1.6911612637	 0.030059
O	-2.5555366909	-0.3156420232	 0.4296116567	-0.253675
C	-1.3627963058	-0.9240847229	 0.0495147572	-0.022908
H	 0.5063601972	 1.6851895583	-0.4531905422	 0.301093
H	 1.1672400624	-1.5828888503	-0.9085866463	 0.094349
H	 0.1705235744	-1.7117840918	 1.5828173769	 0.126471
H	-3.1967332859	 0.124325521	 2.3397044941	 0.122762
H	-2.1603352773	 1.3793373124	 1.54709966	 0.134315
H	-1.5015398149	-1.740097736	-0.6491697127	 0.126481
85.0557	176.3752	177.5751	205.4454	302.7961	319.054	399.6816	409.7703	588.5505	644.2372	705.4646	749.5048	814.5762	831.4213	891.2111	929.4387	1006.9874	1031.2851	1057.5251	1059.0114	1122.7234	1124.8872	1156.8403	1196.5207	1215.5898	1292.7944	1331.6789	1349.6689	1394.7857	1438.7022	1456.0941	1541.0631	1776.177	2933.1139	3041.1424	3095.1852	3184.0522	3191.3788	3671.9149
OC1(C=O)C2OCOC12	O[C@@]1(C=O)[C@H]2OCO[C@@H]12	
InChI=1S/C5H6O4/c6-1-5(7)3-4(5)9-2-8-3/h1,3-4,7H,2H2	InChI=1S/C5H6O4/c6-1-5(7)3-4(5)9-2-8-3/h1,3-4,7H,2H2/t3-,4+,5-
