16
gdb 131739	2.64347	1.5219	0.97158	3.0643	77.68	-0.205	-0.0192	0.1858	1151.4513	0.126125	-434.064512	-434.056395	-434.055451	-434.097369	30.418	
O	-0.0421311829	 1.4086409723	 0.007264842	-0.408244
C	-0.0529806004	-0.0013789819	 0.0024887617	-0.147059
C	-1.4619819577	-0.5261070905	 0.0130092244	 0.290749
N	-2.438561449	 0.3243361652	 0.0233334985	-0.241918
N	-3.6941400875	-0.1731643107	 0.0326781266	-0.237709
C	-3.9919498783	-1.4986759651	 0.0322171224	 0.036244
C	-3.0051006655	-2.424773458	 0.0216143676	-0.214854
C	-1.62093403	-1.9966508273	 0.0106323798	 0.239222
N	-0.5555158099	-2.7277912404	-0.0005652023	-0.559651
H	 0.8785666202	 1.6846407159	-0.0011651081	 0.288858
H	 0.4516059567	-0.4278591646	-0.8792177908	 0.120138
H	 0.4669491576	-0.4339664965	 0.8722031233	 0.120183
H	-4.412782408	 0.5302516811	 0.0407268511	 0.277589
H	-5.048745262	-1.7406730915	 0.0407198674	 0.132637
H	-3.2469215921	-3.4810737646	 0.021283428	 0.103364
H	-0.8056817811	-3.7188508737	-0.0009276515	 0.200453
78.1646	131.2905	208.994	230.5127	277.2893	343.6669	417.7743	464.4152	506.0252	539.6966	557.0012	609.0016	749.948	766.6496	802.2916	874.9674	888.6112	948.6487	1022.5888	1037.5396	1076.9998	1110.2942	1165.9064	1210.2116	1241.6608	1243.2896	1283.939	1391.6284	1428.3566	1473.2722	1483.929	1525.0825	1624.5541	1646.8441	1680.2021	2980.4285	2996.7589	3191.0045	3209.2712	3439.7206	3665.3496	3838.8874
OCC1=NNC=CC1=N	OCC1=NNCC=C1[NH]	
InChI=1S/C5H7N3O/c6-4-1-2-7-8-5(4)3-9/h1-2,9H,3H2,(H2,6,7)	InChI=1S/C5H8N3O/c6-4-1-2-7-8-5(4)3-9/h1,6-7,9H,2-3H2
