16
gdb 128545	2.87468	1.29846	0.90474	1.7505	70.04	-0.2016	0.0052	0.2068	1255.9379	0.122874	-474.982718	-474.973759	-474.972815	-475.017709	30.806	
C	-0.0661218509	 1.4067136992	 0.0095793574	-0.251286
O	-0.0065112302	-0.0233588812	 0.004404136	-0.264058
C	-1.1649361174	-0.6731852462	 0.0121146551	 0.45713
C	-1.4119607913	-2.0224791412	 0.0114936935	 0.077276
O	-0.4597724127	-2.9894996673	 0.0025909679	-0.261645
C	-0.9491816402	-4.3170705863	 0.0037603723	-0.252813
C	-2.8256608732	-2.0864931223	 0.0220057171	-0.060598
N	-3.3921172023	-0.8968420932	 0.0284140669	-0.17346
O	-2.3159952525	 0.0093045631	 0.0220234919	-0.222261
H	 0.9709438191	 1.7411876446	 0.0023317842	 0.144623
H	-0.5880411643	 1.7796483032	-0.876825483	 0.144918
H	-0.5736891176	 1.7737735191	 0.9067139667	 0.144881
H	-0.0746223057	-4.969272619	-0.003995554	 0.139806
H	-1.5468104281	-4.5259189314	 0.9018515777	 0.122447
H	-1.5601699357	-4.5225659732	-0.8860761657	 0.122451
H	-3.4619207667	-2.9595618278	 0.0251950961	 0.132589
40.282	60.2741	159.6074	162.4473	206.7344	258.5006	278.2535	360.7782	366.5107	601.9843	607.0823	625.3795	686.4861	743.9334	890.7876	909.6773	934.0239	1035.7612	1082.7274	1176.6467	1180.3953	1191.4151	1208.5061	1229.3427	1252.3706	1334.5375	1410.9149	1461.0711	1485.8714	1488.1622	1489.1933	1500.0928	1507.5462	1549.1797	1720.2874	2994.5781	3040.0952	3050.0366	3111.3549	3136.8684	3159.3705	3246.456
COC1=C(OC)C=NO1	COc1c(OC)cno1	
InChI=1S/C5H7NO3/c1-7-4-3-6-9-5(4)8-2/h3H,1-2H3	InChI=1S/C5H7NO3/c1-7-4-3-6-9-5(4)8-2/h3H,1-2H3
