17
gdb 33907	3.94078	1.29035	1.16775	4.3984	77.56	-0.2382	0.0086	0.2468	1069.7065	0.137875	-380.813682	-380.80655	-380.805606	-380.845163	28.336	
N	 0.0640782852	-1.1806847693	-0.0355169121	-0.350117
C	 0.0380963104	-0.0229037697	-0.028922365	 0.178862
C	-0.0141084499	 1.3996198084	 0.0006339979	 0.193093
C	 0.2945864048	 2.258716959	-1.2086606045	-0.346325
C	 1.1309533779	 2.4419260772	 0.0193378848	-0.052757
N	 0.5017452854	 3.1891909682	 1.121827068	-0.11815
C	-0.4166426296	 4.3244714608	 0.752327703	-0.176239
C	-1.6540865488	 3.3795821552	 0.8032675365	-0.26761
C	-0.6582908864	 2.2368401461	 1.1280628815	-0.023485
H	 0.791135337	 1.7245161034	-2.0117449717	 0.14464
H	-0.4206485503	 3.0012180283	-1.5450829864	 0.128387
H	 2.2012589689	 2.2697075718	 0.014598306	 0.122644
H	-0.4022528082	 5.1041034655	 1.517497438	 0.11773
H	-0.2005246468	 4.784412476	-0.2164008669	 0.111947
H	-2.3550138452	 3.593148613	 1.6118834753	 0.119187
H	-2.2177863734	 3.2702626369	-0.1258787737	 0.117196
H	-0.812988641	 1.6698160893	 2.0484686991	 0.100998
127.5887	151.5982	229.1938	322.6485	370.3811	472.6512	528.3695	550.2707	610.5048	685.217	758.6252	773.6854	815.1481	861.4716	909.0699	910.4237	951.0285	991.1024	1006.5939	1009.6908	1041.0408	1079.064	1111.5296	1123.3001	1179.2995	1205.1964	1208.83	1219.5799	1254.2854	1261.5705	1291.1234	1319.4878	1380.0973	1478.393	1484.6329	1514.4341	2342.6747	3055.1078	3073.3469	3086.5567	3101.7147	3130.9066	3139.1822	3179.415	3223.903
N#CC12CC1N1CCC21	N#C[C@]12C[C@H]1N1CC[C@@H]21	
InChI=1S/C7H8N2/c8-4-7-3-6(7)9-2-1-5(7)9/h5-6H,1-3H2	InChI=1S/C7H8N2/c8-4-7-3-6(7)9-2-1-5(7)9/h5-6H,1-3H2/t5-,6+,7-/m0/s1
