21
gdb 96162	2.59146	1.42955	1.00844	1.5622	77.69	-0.2479	0.077	0.3249	1214.5548	0.183822	-424.210496	-424.202199	-424.201255	-424.243082	32.689	
C	 0.0443414644	 1.5764236266	-0.0362111188	-0.40094
C	-0.0237747524	 0.0436695637	 0.0132114339	 0.009487
C	 0.687598423	-0.5267270494	-1.2298140429	-0.064096
O	 0.5691765401	-1.921083303	-1.4457037792	-0.246518
C	 1.3096791545	-2.7337346251	-0.5517887753	-0.122948
C	 0.5335768206	-3.0244696549	 0.7224491262	 0.04782
O	 1.2137708161	-2.8554210602	 1.9726082408	-0.259153
C	 0.178936057	-1.9259611251	 1.6286246149	 0.056576
C	 0.5729802149	-0.4903282093	 1.3327238972	-0.245567
H	 1.0815467109	 1.92738916	 0.0228201584	 0.117977
H	-0.3871141824	 1.9669059833	-0.9636336192	 0.115449
H	-0.5023393185	 2.0205810619	 0.8010593275	 0.117295
H	-1.0776159813	-0.2613654683	-0.0427985832	 0.08157
H	 0.2614294295	-0.063945699	-2.1264604706	 0.104507
H	 1.7549088867	-0.2451488476	-1.1880525458	 0.084717
H	 1.5214471057	-3.6644308151	-1.0879841077	 0.107177
H	 2.2703597062	-2.2676634224	-0.2898849142	 0.103065
H	-0.124094969	-3.8933058455	 0.6884013339	 0.092656
H	-0.729375875	-2.048169369	 2.2203096019	 0.092044
H	 1.666614674	-0.4243208745	 1.2995689008	 0.110666
H	 0.2507133348	 0.1461352629	 2.1648435813	 0.098216
124.2357	142.004	224.0517	262.5171	295.4218	336.625	360.0948	394.9352	430.7722	466.3866	535.7323	610.1431	811.1347	821.6413	843.5632	890.5383	923.4831	950.2994	962.0829	1002.002	1026.9568	1048.4146	1084.3957	1107.4781	1144.2767	1157.1859	1160.6083	1178.6757	1226.7273	1273.6917	1294.9406	1307.3154	1332.0985	1346.7255	1378.5761	1385.0732	1403.3388	1408.3898	1426.2506	1481.0781	1483.3937	1486.6344	1499.3802	1502.125	1502.7029	2949.7262	3005.6761	3016.6906	3027.4215	3033.6692	3066.0917	3069.4734	3075.0357	3094.5392	3097.1832	3105.7586	3113.1216
CC1COCC2OC2C1	C[C@H]1COC[C@H]2O[C@H]2C1	
InChI=1S/C7H12O2/c1-5-2-6-7(9-6)4-8-3-5/h5-7H,2-4H2,1H3	InChI=1S/C7H12O2/c1-5-2-6-7(9-6)4-8-3-5/h5-7H,2-4H2,1H3/t5-,6+,7-/m1/s1
