17
gdb 91400	3.22567	1.44036	1.3731	0.3618	67.02	-0.258	-0.0309	0.2271	981.7768	0.13732	-458.962231	-458.955022	-458.954078	-458.993754	28.832	
O	 0.1592539139	 1.3260839368	-0.1928446266	-0.439119
C	 0.0199620085	-0.0709544482	 0.01348057	 0.147702
C	 0.7471493669	-0.4959415886	 1.31855569	-0.266908
C	-0.2168174361	-0.3031127926	 2.5067715595	-0.044209
O	-1.2009411122	 0.7303969651	 2.1612650589	-0.310472
C	-2.0185225389	-0.2762123182	 1.4725601349	-0.044209
C	-1.4828983197	-0.4626470956	 0.038467311	-0.266908
C	-1.3550561762	-1.3224009982	 2.376355141	 0.434613
O	-1.6186398381	-2.4015111335	 2.8074774935	-0.298609
H	-0.2704358906	 1.741741197	 0.5665320208	 0.28521
H	 0.5061100028	-0.5406400068	-0.8456564425	 0.08932
H	 1.0751005189	-1.5415181617	 1.2804489714	 0.119615
H	 1.63798078	 0.1285816809	 1.4242188655	 0.12578
H	 0.2579755232	-0.1288461521	 3.4740411867	 0.111399
H	-3.0890496993	-0.0788726701	 1.5527869988	 0.111399
H	-2.0091469143	 0.1830325404	-0.6693001255	 0.12578
H	-1.638789676	-1.5010002544	-0.2773729318	 0.119615
119.4159	195.6748	196.7229	368.1324	421.9016	444.658	451.6699	536.705	566.1318	595.2939	736.58	770.9632	817.0891	838.5199	873.2634	910.3451	927.53	932.7921	994.0054	1010.0069	1044.9184	1074.6337	1096.1552	1118.2044	1183.4057	1193.0234	1259.0033	1266.2082	1306.5403	1310.1817	1335.6547	1352.0547	1357.9917	1451.6973	1474.049	1484.1614	1925.6381	3041.5551	3042.2464	3077.6777	3097.7526	3098.7311	3106.8904	3109.6086	3761.067
OC1CC2OC(C1)C2=O	O[C@H]1C[C@H]2O[C@@H](C1)C2=O	
InChI=1S/C6H8O3/c7-3-1-4-6(8)5(2-3)9-4/h3-5,7H,1-2H2	InChI=1S/C6H8O3/c7-3-1-4-6(8)5(2-3)9-4/h3-5,7H,1-2H2/t3-,4+,5-
