19
gdb 74403	2.77052	1.50695	1.16283	1.6309	76.61	-0.2209	0.0157	0.2366	1098.7358	0.157459	-422.996659	-422.987877	-422.986933	-423.029278	34.736	
C	 0.0070357206	 1.4737826826	 0.0541329525	-0.5205
C	 0.0026095789	-0.0118527335	-0.0297347505	 0.285722
C	 0.0025182697	-0.8708607432	-1.0529695219	-0.310379
C	 0.0105722013	-2.2480647759	-0.359785261	 0.384128
O	-0.0488375517	-3.4110806764	-1.1194614223	-0.481439
C	 1.0864267468	-1.9950418469	 0.7634461262	-0.307101
C	 0.0072176791	-0.9608475262	 1.195978583	 0.317729
O	 0.0731627022	-0.4227653649	 2.4780474269	-0.479793
C	-1.0614043978	-2.025563622	 0.7462901279	-0.309433
H	 0.8609994307	 1.8330487239	 0.6409928899	 0.138608
H	 0.0518123678	 1.9296411757	-0.9385986757	 0.128309
H	-0.892988109	 1.8549390785	 0.5557608112	 0.117788
H	-0.0106512761	-0.6946059352	-2.1208566477	 0.09629
H	 0.6916642283	-3.4070278395	-1.7354828169	 0.279063
H	 1.1800577874	-2.8311588922	 1.4624890474	 0.100988
H	 2.0615105707	-1.6067199366	 0.4610281893	 0.088617
H	-0.7379619173	 0.0690363215	 2.6450539218	 0.28056
H	-2.0423971253	-1.6660381452	 0.4271814773	 0.089289
H	-1.1423281863	-2.8659039744	 1.4419283526	 0.101553
148.5804	172.2116	215.0351	223.9019	240.4542	290.0188	305.0662	402.1532	465.9882	510.0452	518.2819	574.3772	578.999	616.2867	678.9615	763.645	783.5014	863.0138	905.799	942.0135	1000.5608	1013.2535	1026.6314	1036.9329	1068.4381	1104.7187	1143.5379	1146.3158	1173.1831	1178.6731	1241.6924	1297.0336	1322.4485	1356.2063	1377.1359	1410.7298	1473.2494	1476.0962	1484.6078	1521.075	1698.7097	3011.7114	3048.6058	3059.4465	3060.216	3111.5708	3122.475	3129.5617	3210.7626	3805.5154	3806.8675
CC1=CC2(O)CC1(O)C2	CC1=C[C@@]2(O)C[C@]1(O)C2	
InChI=1S/C7H10O2/c1-5-2-6(8)3-7(5,9)4-6/h2,8-9H,3-4H2,1H3	InChI=1S/C7H10O2/c1-5-2-6(8)3-7(5,9)4-6/h2,8-9H,3-4H2,1H3/t6-,7+
