24
gdb 122114	2.84553	0.68805	0.60219	3.9232	88.27	-0.2364	0.034	0.2705	1966.7794	0.215932	-405.58743	-405.576106	-405.575162	-405.625594	39.528	
C	-0.1826221429	 1.5390367677	 0.0262461609	-0.380865
C	 0.0103368406	 0.0203140931	 0.0066113162	-0.162062
C	 0.7257112575	-0.5086988387	 1.2542381747	-0.164276
C	 0.9155024837	-2.0317807638	 1.2223594184	-0.192723
N	 1.5660020774	-2.5748043912	 2.4053409181	-0.024095
C	 0.7956196908	-2.7659864962	 3.6331024849	-0.160272
C	 0.0754995523	-4.1166536468	 3.6805179799	-0.376973
C	 2.8727812048	-2.9558951472	 2.3815722414	 0.14658
O	 3.4840111667	-3.4297949461	 3.3182778831	-0.35104
H	 0.7794672256	 2.0595929064	 0.0845906953	 0.118116
H	-0.6956032126	 1.8869913023	-0.8754980039	 0.115118
H	-0.7792550026	 1.8503847284	 0.8906675171	 0.116422
H	-0.9668972311	-0.4718664757	-0.0876514109	 0.097753
H	 0.5799636705	-0.2656502678	-0.8876794803	 0.098549
H	 1.7099660843	-0.0334046334	 1.3529621211	 0.104283
H	 0.1567282957	-0.2256530789	 2.1489361881	 0.102383
H	-0.0560882357	-2.5260089539	 1.090512859	 0.109692
H	 1.5206748991	-2.3045320978	 0.3501374708	 0.116024
H	 1.4994284631	-2.691716064	 4.4649625165	 0.142228
H	 0.0780475441	-1.9439432233	 3.7223228579	 0.103232
H	-0.5012528558	-4.2063057686	 4.6065377304	 0.117838
H	-0.6168659466	-4.2345387162	 2.8405708896	 0.11428
H	 0.8021015184	-4.9325370925	 3.6475316654	 0.143472
H	 3.3352593929	-2.7820915359	 1.3888326061	 0.066336
38.3042	49.969	76.7821	89.5461	133.787	201.3748	224.7669	244.6511	274.2521	299.9979	336.4184	382.7765	426.9889	504.474	693.1643	736.2616	787.6027	792.0286	826.9493	911.4806	941.6793	991.5594	1014.3603	1030.447	1061.8346	1098.0689	1115.8789	1129.0265	1142.07	1239.9341	1249.0814	1292.1634	1310.348	1328.4108	1339.7666	1381.5547	1393.819	1407.6228	1409.6446	1416.3658	1431.885	1456.5278	1472.6035	1486.611	1488.403	1494.4228	1498.6699	1499.9437	1502.9314	1512.3319	1788.5534	2923.7186	3011.8475	3015.2805	3026.8235	3032.5062	3037.5322	3040.0763	3051.9673	3055.4254	3077.7759	3099.2422	3101.0155	3105.0007	3116.604	3130.3484
CCCCN(CC)C=O	CCCCN(CC)C=O	
InChI=1S/C7H15NO/c1-3-5-6-8(4-2)7-9/h7H,3-6H2,1-2H3	InChI=1S/C7H15NO/c1-3-5-6-8(4-2)7-9/h7H,3-6H2,1-2H3
