15
gdb 16822	3.66314	2.09018	1.52653	3.3614	62.71	-0.2641	0.0035	0.2676	828.5073	0.119512	-399.798334	-399.791535	-399.790591	-399.829252	25.849	
C	 0.2082865017	 1.5153052698	-0.0666859612	-0.402367
C	-0.0442514463	 0.026040777	 0.0978714551	 0.093432
O	 0.4120068835	-0.6690224235	-1.0907667966	-0.263582
C	 1.1295715167	-1.7910304801	-0.7816185891	 0.434185
N	 1.4633210845	-2.7007030444	-1.5898439462	-0.545546
C	 1.4426621756	-1.7719430148	 0.6767518598	-0.055536
O	 2.1235910546	-0.5590226816	 1.0586909958	-0.243366
C	 0.7126612836	-0.6325428986	 1.2391255685	 0.014005
H	 1.2825844287	 1.7058071054	-0.1181802339	 0.147937
H	-0.2633173871	 1.8811830501	-0.9819167349	 0.134434
H	-0.2105868616	 2.0658070855	 0.7815471701	 0.121649
H	-1.1176182563	-0.1781577215	 0.2088795168	 0.096203
H	 1.1006580035	-2.5037772054	-2.5246820277	 0.226632
H	 1.7205146183	-2.6783247986	 1.2000030249	 0.127666
H	 0.3425262707	-0.5871999492	 2.2589722387	 0.114255
121.8625	194.6156	238.8423	271.1968	369.4379	454.4544	522.0627	623.4413	702.8404	743.1821	837.2761	858.7341	882.3198	891.613	912.0522	953.1013	1011.3899	1038.8699	1084.598	1114.376	1120.6892	1149.6327	1240.5483	1276.1229	1323.3495	1371.7514	1376.7566	1405.7097	1420.1939	1486.1453	1499.7545	1783.0481	3022.0029	3049.3802	3122.2619	3141.4764	3165.4194	3208.2276	3471.0111
CC1OC(=N)C2OC12	C[C@H]1O[C]([NH])[C@H]2O[C@@H]12	
InChI=1S/C5H7NO2/c1-2-3-4(8-3)5(6)7-2/h2-4,6H,1H3	InChI=1S/C5H7NO2/c1-2-3-4(8-3)5(6)7-2/h2-4,6H,1H3/t2-,3+,4+/m1/s1
