13
gdb 129893	5.51914	1.35719	1.09068	1.4943	67.29	-0.1947	-0.0135	0.1811	1009.239	0.092408	-448.935938	-448.929297	-448.928353	-448.966826	25.629	
N	 0.0312663401	 1.3493537158	 0.1533932383	-0.589422
C	-0.0397275047	-0.0359898449	 0.0564425956	 0.300563
C	-1.1695797774	-0.8382037128	 0.0268939919	-0.233301
N	-0.634598181	-2.1232210842	 0.0058580132	 0.027207
N	-1.0061124684	-3.4408795326	-0.0395326238	-0.232445
C	 0.1367255633	-4.0499045138	-0.0452202705	 0.066135
O	 1.2394985186	-3.23804866	-0.0105420586	-0.202212
C	 0.7071709885	-1.9904526478	 0.0209948844	 0.48834
N	 1.1458771101	-0.7652072346	 0.0495603212	-0.440978
H	 0.9309848622	 1.6942412598	-0.1535485773	 0.256033
H	-0.7234990667	 1.8360911443	-0.309442416	 0.247732
H	-2.2241112777	-0.6357118872	 0.0363261982	 0.135868
H	 0.3015056931	-5.112779492	-0.0739439564	 0.176479
142.0897	230.5077	292.6645	324.9262	339.4473	544.4362	578.1887	587.6665	632.2539	654.2345	720.8191	744.9619	788.2073	788.7572	884.4513	953.2819	994.2178	1084.852	1102.3466	1151.5092	1207.0341	1288.1445	1377.0782	1415.6373	1467.2801	1563.5396	1584.6067	1641.5815	1647.3315	3310.0057	3313.2726	3553.7906	3653.2665
NC1=CN2N=COC2=N1	Nc1cn2ncoc2n1	
InChI=1S/C4H4N4O/c5-3-1-8-4(7-3)9-2-6-8/h1-2H,5H2	InChI=1S/C4H4N4O/c5-3-1-8-4(7-3)9-2-6-8/h1-2H,5H2
