18
gdb 54272	3.01843	1.2823	1.14608	2.3113	67.58	-0.2476	0.0277	0.2753	1117.3286	0.148113	-476.26074	-476.251901	-476.250957	-476.294502	33.231	
N	-0.0142308928	 1.3215019216	-0.3774917566	-0.52772
C	 0.0712483927	 0.0515809064	 0.0829460385	 0.358687
O	 1.091302796	-0.4596223049	 0.5107503626	-0.38666
C	-1.2483742056	-0.72441729	 0.0720223679	 0.311434
O	-2.2481407773	 0.0409366089	-0.5968181787	-0.506563
C	-1.1118751275	-2.1392694164	-0.542160428	-0.28502
C	-2.0543394548	-3.0030695563	 0.3373644374	-0.094492
O	-2.6768387161	-2.1026937459	 1.2613204466	-0.264978
C	-1.723048832	-1.0767314441	 1.4938189402	-0.139865
H	 0.8194453154	 1.8834777227	-0.409250307	 0.261603
H	-0.8850496754	 1.6629657237	-0.7467605738	 0.277875
H	-3.0994328369	-0.3406305918	-0.3504678161	 0.289068
H	-1.4100509218	-2.1133091751	-1.5917494347	 0.115595
H	-0.0763521289	-2.4740643469	-0.4719498894	 0.138124
H	-2.8495217981	-3.5019211764	-0.2218695043	 0.112104
H	-1.4858709461	-3.7662159649	 0.8865330299	 0.107413
H	-0.8763200942	-1.4285656743	 2.0999150669	 0.117627
H	-2.2218098568	-0.2441744465	 1.9953252787	 0.11577
57.0497	89.6315	191.7954	220.8171	285.2841	301.6024	381.7255	387.2229	400.2603	443.9312	530.5524	624.2497	637.2609	700.391	758.7507	805.122	821.459	936.6799	954.5028	974.7936	988.2653	1024.8026	1086.7004	1100.749	1139.0509	1167.3126	1232.4273	1252.0762	1273.4723	1289.0357	1301.9796	1344.8878	1387.2298	1432.816	1482.2938	1502.829	1524.0714	1595.2262	1792.0096	3008.948	3013.811	3084.8561	3095.653	3111.3631	3144.645	3603.6581	3745.402	3785.2397
NC(=O)C1(O)CCOC1	NC(=O)[C@@]1(O)CCOC1	
InChI=1S/C5H9NO3/c6-4(7)5(8)1-2-9-3-5/h8H,1-3H2,(H2,6,7)	InChI=1S/C5H9NO3/c6-4(7)5(8)1-2-9-3-5/h8H,1-3H2,(H2,6,7)/t5-/m1/s1
