16
gdb 14107	3.22232	1.7469	1.53428	1.4181	60.9	-0.2393	0.0544	0.2937	882.3828	0.129128	-420.82395	-420.816206	-420.815262	-420.855963	29.183	
O	-0.0098165418	 1.2925735704	-0.1567744692	-0.434464
C	 0.0444629165	-0.0850473356	 0.0303082011	 0.054658
C	-0.4785104582	-0.7027800182	 1.3219013221	-0.395113
C	-1.2668599898	-0.8143800073	 0.058537021	 0.357504
O	-2.4426193211	-0.0218570475	-0.1550667613	-0.317721
C	-2.9023598545	-0.9457493613	-1.178858133	-0.112866
C	-1.7743152188	-1.950803516	-0.8242069374	-0.001409
O	-0.9425525792	-2.4464968332	-1.8333902115	-0.422059
H	-0.940694061	 1.5038778473	-0.3243673697	 0.293401
H	 0.9084449256	-0.5478643846	-0.4406746999	 0.104281
H	 0.0094726699	-1.5943095262	 1.7038004194	 0.122884
H	-0.8585485538	-0.0176372171	 2.0731145671	 0.130108
H	-3.9351602315	-1.2579143185	-1.0015524741	 0.119743
H	-2.8077742128	-0.5233508833	-2.1873231548	 0.104731
H	-2.1323765849	-2.8200256007	-0.2676149302	 0.110711
H	-0.5226150947	-1.6960249083	-2.2698005296	 0.28561
92.3993	138.7536	199.535	237.7419	336.2315	380.8296	436.1918	453.6101	527.6219	551.2975	614.2192	758.2126	817.203	861.3579	868.4715	987.2724	992.451	1002.9432	1027.2395	1048.5514	1086.7394	1141.1839	1156.6462	1165.0998	1192.3679	1243.5902	1300.4299	1308.4782	1336.2929	1375.8007	1417.9623	1442.3013	1475.5809	1513.8125	3022.8181	3085.452	3101.4603	3123.4227	3136.4557	3218.9543	3710.7131	3792.7723
OC1CC11OCC1O	O[C@H]1C[C@]21OC[C@H]2O	
InChI=1S/C5H8O3/c6-3-1-5(3)4(7)2-8-5/h3-4,6-7H,1-2H2	InChI=1S/C5H8O3/c6-3-1-5(3)4(7)2-8-5/h3-4,6-7H,1-2H2/t3-,4+,5+/m0/s1
