19
gdb 43173	2.20458	1.78152	1.73951	2.7735	73.96	-0.2079	-0.0106	0.1973	948.4965	0.16387	-419.213965	-419.206707	-419.205763	-419.24541	29.397	
O	 0.0264334096	 0.0545293917	-0.0829071426	-0.333325
C	-0.0058728563	 1.2530574284	-0.0111077436	 0.455484
C	-1.2042100783	 2.1966908165	 0.0340158864	-0.120262
C	-1.2527973702	 2.7916297664	 1.4596929901	-0.185489
C	 0.0435524666	 3.5607503658	 1.7504567331	-0.164316
N	 1.2124433285	 2.751177809	 1.3761832964	-0.307051
C	 1.1606991002	 2.2517036312	-0.0112653208	-0.101031
C	 0.6567858686	 3.2632166038	-1.0653236042	-0.19752
N	-0.8371458059	 3.2430308875	-0.9506584794	-0.307411
H	-2.1436081056	 1.7094723579	-0.2316615815	 0.08491
H	-2.1083715262	 3.4686123603	 1.5465602846	 0.104826
H	-1.3839946596	 1.9764426426	 2.1801717674	 0.114721
H	-0.0009794709	 4.5215191315	 1.2137919322	 0.103609
H	 0.117081622	 3.7894694251	 2.818392244	 0.103527
H	 2.064458064	 3.2829914903	 1.5178253055	 0.222474
H	 2.1136306466	 1.787549777	-0.2642295866	 0.090365
H	 1.04326111	 4.2735344359	-0.8860013045	 0.103595
H	 0.9845234614	 2.9550844949	-2.0651146026	 0.104542
H	-1.2444826345	 3.0142193643	-1.8485643736	 0.228352
133.7439	156.9984	287.5863	292.493	397.4251	413.0118	470.4976	489.3129	656.1612	670.7026	733.3388	755.8008	802.0578	813.9972	833.0995	866.7116	904.7332	981.479	1008.2383	1017.9078	1044.4727	1077.1716	1097.7912	1129.7268	1140.6161	1193.8281	1198.9221	1229.9203	1249.4397	1288.5952	1296.6302	1325.9687	1351.6684	1373.7207	1403.0014	1432.6222	1471.0941	1479.9239	1505.7827	1520.9715	1870.611	2981.4422	3018.8086	3041.8158	3054.8321	3070.0464	3093.0836	3104.6904	3122.1998	3522.5724	3553.4877
O=C1C2CCNC1CN2	O=C1[C@H]2CCN[C@@H]1CN2	
InChI=1S/C6H10N2O/c9-6-4-1-2-7-5(6)3-8-4/h4-5,7-8H,1-3H2	InChI=1S/C6H10N2O/c9-6-4-1-2-7-5(6)3-8-4/h4-5,7-8H,1-3H2/t4-,5-/m1/s1
