19
gdb 72215	3.24865	1.59007	1.31649	0.9518	79.86	-0.2166	0.0231	0.2397	1006.5543	0.161406	-385.873775	-385.866557	-385.865613	-385.904815	30.235	
O	-0.1155030153	 1.4334445658	-0.0394959567	-0.461705
C	 0.0189078734	 0.0574786364	-0.0606252137	 0.383332
C	 0.7781574571	-0.7298960816	-1.1282282238	-0.317385
C	-0.3157389533	-1.8538344977	-1.020283759	-0.019521
C	 0.173711178	-3.1874031941	-0.4499588446	-0.263141
C	 0.796311037	-3.0189962212	 0.914631452	-0.07894
C	 0.619528649	-1.9161981377	 1.6463153873	-0.057217
C	-0.2327449358	-0.791126527	 1.1915219018	-0.136153
C	-1.1010126798	-0.9540413119	-0.0375545421	-0.150172
H	 0.6589864231	 1.8069447315	 0.395969288	 0.284386
H	 0.7407487032	-0.2178422527	-2.0925543401	 0.106132
H	 1.8106652221	-1.0192589976	-0.9069083168	 0.092196
H	-0.8403036888	-2.0038635888	-1.9662666903	 0.072365
H	-0.6546598022	-3.9101574242	-0.4006433507	 0.105901
H	 0.9071561575	-3.6297324892	-1.1380315372	 0.102077
H	 1.4103145731	-3.8327789345	 1.2910330688	 0.082903
H	 1.0978218787	-1.8224749228	 2.6180231484	 0.080111
H	-0.6922343018	-0.1894367716	 1.9706157273	 0.087141
H	-2.1734570251	-0.8060399411	-0.0160428886	 0.087691
204.0993	210.7721	266.6503	307.079	383.6797	402.0879	480.7794	519.6681	556.4037	622.5219	670.1274	754.5158	801.0417	823.7905	853.7891	908.433	928.3445	945.297	958.0517	989.6715	1000.6886	1020.6815	1051.7905	1062.9842	1078.1149	1125.2219	1170.7385	1195.695	1206.2	1229.3734	1250.4257	1292.5168	1303.5811	1322.9613	1331.2275	1370.7288	1418.3737	1453.8177	1470.1353	1492.7015	1706.9397	2995.4198	3025.8516	3046.9676	3078.304	3111.3086	3144.2233	3155.1955	3171.3003	3189.5888	3789.1708
OC12CC3CC=CC1C23	O[C@@]12C[C@H]3CC=C[C@@H]1[C@@H]23	
InChI=1S/C8H10O/c9-8-4-5-2-1-3-6(8)7(5)8/h1,3,5-7,9H,2,4H2	InChI=1S/C8H10O/c9-8-4-5-2-1-3-6(8)7(5)8/h1,3,5-7,9H,2,4H2/t5-,6-,7+,8+/m1/s1
