18
gdb 24429	3.40003	1.57799	1.12331	3.5191	78.06	-0.1761	0.0393	0.2154	1062.3401	0.15286	-398.178629	-398.171491	-398.170546	-398.209997	28.738	
C	-0.0162158585	 1.5240939526	 0.0160473317	-0.200935
C	 1.4305288989	 2.0620514665	 0.0439049988	-0.159179
N	 2.2267111784	 1.6067452928	 1.1869453899	-0.388897
C	 1.9284966349	 0.3010092864	 1.5849263398	 0.281725
C	 0.9573501562	-0.478066101	 1.0066723369	 0.257326
C	-0.0372143187	-0.0212453434	-0.0063180512	-0.336835
N	 1.0592928577	-1.6962460514	 1.6600930994	-0.343521
C	 2.0522808518	-1.5734658048	 2.585361767	-0.004377
N	 2.6042138903	-0.3783284431	 2.5678780183	-0.333238
H	-0.5501623553	 1.8786943824	 0.9055381696	 0.102571
H	-0.5368868524	 1.9246457622	-0.8597694447	 0.095558
H	 1.9380401919	 1.7421426336	-0.8774667369	 0.107594
H	 1.4292869164	 3.1555154235	 0.0398824261	 0.101729
H	 2.2544173235	 2.2589122559	 1.9597223428	 0.232417
H	-1.0474845551	-0.3840847127	 0.2222615567	 0.100482
H	 0.1995896793	-0.3861330687	-1.0165959179	 0.106142
H	 0.514176417	-2.5213845044	 1.476800031	 0.258224
H	 2.3336062839	-2.3865601464	 3.2376499927	 0.123214
112.7008	207.8178	301.9373	311.3126	395.3785	456.3231	458.7276	518.4696	566.6816	657.6957	686.1927	724.3949	764.4831	788.6165	860.6972	877.7862	935.6457	958.6914	994.6571	1063.4688	1104.3039	1120.4382	1175.5777	1188.5043	1213.3144	1258.1877	1291.4524	1313.4458	1339.8436	1362.0029	1393.3296	1400.6641	1444.7755	1474.8622	1480.3217	1492.9864	1498.7887	1535.9531	1650.0128	2989.8754	3003.5256	3028.9297	3042.3763	3084.4917	3088.3853	3251.0043	3561.601	3667.2208
C1CNC2=C(C1)NC=N2	C1CNc2c(C1)[nH]cn2	
InChI=1S/C6H9N3/c1-2-5-6(7-3-1)9-4-8-5/h4,7H,1-3H2,(H,8,9)	InChI=1S/C6H9N3/c1-2-5-6(7-3-1)9-4-8-5/h4,7H,1-3H2,(H,8,9)
