20
gdb 70321	3.00748	1.51931	1.23798	1.7153	77.5	-0.2268	0.0808	0.3076	1063.2033	0.172829	-403.106954	-403.099364	-403.09842	-403.138461	31.629	
O	 0.0487941714	 1.3705587994	-0.0323426786	-0.474277
C	 0.0363838673	-0.0301027411	-0.0514822563	 0.439258
C	-0.4949092686	-0.6598318616	-1.3001398098	-0.341593
C	-1.2866812344	-0.762172503	-0.0084365355	-0.078987
C	-1.2841446085	-2.0263097741	 0.8496431917	-0.276477
C	-0.6080645114	-1.7138967846	 2.1831691832	 0.017808
C	 0.6711273358	-2.3456127359	 2.5987927745	-0.255628
N	 0.6597184323	-0.959719663	 2.1274724747	-0.098529
C	 1.1320133619	-0.7194660878	 0.748383612	-0.255141
H	-0.0737390655	 1.6452417333	 0.8839162248	 0.284882
H	-0.876979344	 0.01853501	-2.0545558256	 0.122273
H	-0.0070931061	-1.5482530788	-1.6901218766	 0.107908
H	-2.1703286437	-0.134861482	 0.0516407208	 0.089442
H	-2.3027089037	-2.3851656779	 1.0222856249	 0.106388
H	-0.7580796242	-2.8350391541	 0.3316851501	 0.102721
H	-1.2798864441	-1.3579280777	 2.9626235281	 0.086361
H	 0.9093846873	-2.4871383696	 3.649862068	 0.113172
H	 1.0942811484	-3.100545709	 1.9360222732	 0.10545
H	 1.4340236504	-1.6517795283	 0.2497452748	 0.090577
H	 2.0135451595	-0.0732102244	 0.7904302815	 0.114392
136.3088	209.8142	284.6059	357.6857	360.0131	400.0224	438.0882	442.4121	474.6188	520.1332	593.7101	750.865	775.9828	819.0699	829.7842	904.2589	919.4371	926.7735	953.5121	964.5819	984.6408	1040.3875	1050.6441	1066.9822	1093.0753	1105.4851	1122.6392	1149.335	1170.2796	1217.8774	1233.1296	1266.0291	1298.2491	1304.6841	1315.1102	1332.6383	1369.8932	1407.7301	1427.3368	1481.5841	1487.6155	1494.8183	1516.1448	2990.2096	3044.7512	3079.5481	3084.8917	3085.6335	3113.3691	3125.1398	3160.7206	3172.0928	3219.1639	3789.4435
OC12CC1CC1CN1C2	O[C@]12C[C@H]1C[C@H]1CN1C2	
InChI=1S/C7H11NO/c9-7-2-5(7)1-6-3-8(6)4-7/h5-6,9H,1-4H2	InChI=1S/C7H11NO/c9-7-2-5(7)1-6-3-8(6)4-7/h5-6,9H,1-4H2/t5-,6+,7+,8?/m1/s1
