16
gdb 124757	2.61721	1.47179	0.97238	2.8678	67.01	-0.2267	-0.0025	0.2242	1152.998	0.124805	-471.20236	-471.193844	-471.1929	-471.235868	31.528	
C	-0.678750586	 1.2199758997	-0.0362952857	-0.411719
C	 0.1279020371	-0.0679757482	-0.1867974292	-0.001052
O	 1.1898230595	 0.0609211422	-1.1358040636	-0.42991
C	 0.6767853649	-0.5634685192	 1.1224430089	 0.238063
C	 0.2752197823	-0.5395779408	 2.4429117504	 0.270541
O	-0.8351395311	 0.0265255499	 2.9613172605	-0.432373
N	 1.1745340141	-1.1973677021	 3.2101362315	-0.280533
N	 2.138715739	-1.6452527707	 2.4406490473	-0.125809
N	 1.8362347699	-1.2738766052	 1.1961216132	-0.218382
H	-0.0474227584	 2.0259911354	 0.3553112002	 0.117283
H	-1.0754413756	 1.5222969169	-1.0086331939	 0.127366
H	-1.5064445992	 1.0804658026	 0.663394373	 0.152107
H	-0.5185911343	-0.8412555234	-0.6219452034	 0.118125
H	 1.6847706841	 0.8570963992	-0.9082714531	 0.284046
H	-0.8107921627	-0.1406837344	 3.9122010294	 0.307974
H	 2.4490774762	-1.4928552119	 0.4257324143	 0.284274
46.0049	161.452	171.3314	252.9736	315.357	330.0022	350.2316	374.2214	381.9339	482.6976	530.8519	611.5515	657.6484	729.2522	750.6457	764.7551	902.8862	1013.0645	1036.5342	1070.7341	1105.1537	1127.8145	1165.6438	1232.5349	1271.8973	1311.115	1334.7548	1359.6302	1392.6113	1409.485	1416.2231	1489.188	1493.3295	1528.4674	1668.7171	3022.6214	3038.3797	3112.3029	3138.0099	3650.1165	3788.6936	3792.3206
CC(O)C1=C(O)N=NN1	C[C@@H](O)c1c(O)nn[nH]1	
InChI=1S/C4H7N3O2/c1-2(8)3-4(9)6-7-5-3/h2,8H,1H3,(H2,5,6,7,9)	InChI=1S/C4H7N3O2/c1-2(8)3-4(9)6-7-5-3/h2,8H,1H3,(H2,5,6,7,9)/t2-/m1/s1
