22
gdb 116384	2.75278	1.23579	0.93172	3.1647	82.57	-0.2224	-0.0131	0.2093	1326.4057	0.195611	-404.377122	-404.367976	-404.367032	-404.411073	34.732	
C	 0.0589743826	 1.572219192	-0.1735245726	-0.393866
C	 0.0162614764	 0.05631917	 0.0444734546	-0.181592
C	-1.4000145017	-0.5244272314	 0.1437144964	-0.07574
C	-1.4436514582	-2.0548769782	-0.0766989704	-0.196884
C	-2.8587848055	-2.6098207486	 0.0873957279	-0.170272
N	-3.3457684404	-2.2903552807	 1.4256516711	-0.294151
C	-3.466309688	-0.849434258	 1.6464675243	-0.255071
C	-2.102096751	-0.1836242902	 1.4579985422	 0.412665
O	-1.6393117338	 0.5609911641	 2.2905288521	-0.309917
H	 1.0917261759	 1.9232303086	-0.2639391385	 0.109673
H	-0.4667749498	 1.8542861887	-1.093444889	 0.1035
H	-0.4056040504	 2.0980994662	 0.6630014503	 0.142406
H	 0.5344474846	-0.4457588488	-0.7821381293	 0.086775
H	 0.5640006848	-0.1977366955	 0.9590766874	 0.11006
H	-2.0300259266	-0.0746578494	-0.642494027	 0.087541
H	-1.0620179406	-2.2851475103	-1.0774184905	 0.098389
H	-0.7834857396	-2.545660127	 0.648103903	 0.113981
H	-3.5050764548	-2.1982581914	-0.7136173699	 0.075074
H	-2.8532253009	-3.6984695214	-0.0285588207	 0.102496
H	-4.2376127991	-2.7399203707	 1.5987703128	 0.224214
H	-4.1743655756	-0.3572426879	 0.9471409127	 0.088624
H	-3.8032986483	-0.6518527001	 2.6663048929	 0.122097
79.4182	100.3231	148.4974	195.0457	237.1371	290.0841	328.3898	358.6923	432.9393	436.1085	500.235	563.653	661.2548	717.8671	778.1253	807.874	880.6886	894.2001	951.6206	971.3712	1004.3197	1026.172	1052.0469	1088.4359	1124.1071	1153.9096	1161.5576	1168.0924	1183.757	1237.9223	1270.6941	1291.1386	1305.0326	1322.9469	1358.0852	1377.8085	1386.3162	1407.4193	1415.509	1477.0922	1481.2265	1483.1882	1488.6568	1497.7244	1504.7636	1513.8074	1815.5433	2885.4771	2901.3287	2968.9862	3025.0456	3032.8811	3035.1368	3067.6064	3068.7781	3080.9521	3096.1277	3105.0806	3133.872	3531.1997
CCC1CCNCC1=O	CC[C@H]1CCNCC1=O	
InChI=1S/C7H13NO/c1-2-6-3-4-8-5-7(6)9/h6,8H,2-5H2,1H3	InChI=1S/C7H13NO/c1-2-6-3-4-8-5-7(6)9/h6,8H,2-5H2,1H3/t6-/m0/s1
