21
gdb 63881	2.61573	1.58128	1.32608	2.9004	81.73	-0.2316	-0.0005	0.2311	1069.3804	0.183	-387.105188	-387.096853	-387.095909	-387.137419	33.608	
C	-0.0062383446	 1.506746859	 0.03172714	-0.446827
C	 0.0106171027	-0.0285544589	 0.0320113857	 0.322916
C	-1.4244142549	-0.5519705615	-0.0961724699	-0.449338
C	 0.972507924	-0.6094438026	-1.0829694687	-0.267418
C	 2.0438710941	-1.3036121625	-0.2126120368	-0.1355
C	 1.1561596822	-2.0358003129	 0.8480293336	-0.262943
C	 0.750223226	-0.5879556726	 1.2858902206	-0.158126
C	 2.2120912536	-0.2683561369	 0.9160341846	 0.437744
O	 3.1112965962	 0.361560728	 1.3884193914	-0.335921
H	 1.0027300911	 1.9238873862	 0.1067702588	 0.131251
H	-0.4613511911	 1.8889984082	-0.8885049183	 0.112996
H	-0.5886507103	 1.8932469522	 0.8756563926	 0.114642
H	-1.8638727399	-0.2261449402	-1.0460642411	 0.115809
H	-1.4766870607	-1.6439408656	-0.0692383244	 0.11298
H	-2.0567413229	-0.1660459116	 0.7112336919	 0.114442
H	 0.4588830042	-1.3258175177	-1.7313713824	 0.101713
H	 1.3933357959	 0.176742854	-1.715995996	 0.107889
H	 2.891289593	-1.7763077932	-0.7051328778	 0.081423
H	 0.3653126909	-2.6776784971	 0.4564668368	 0.107932
H	 1.7353998593	-2.5646804807	 1.6069667014	 0.117319
H	 0.3316159309	-0.3599519436	 2.2648611582	 0.077017
136.2114	164.3815	222.0944	257.3417	265.6913	349.9915	370.0702	426.2776	435.3924	497.4216	556.6364	634.1912	730.4276	783.7053	810.4532	832.6817	891.4005	928.2704	945.6439	962.5794	966.6109	1002.561	1008.9145	1034.1589	1047.8674	1055.113	1095.419	1142.4209	1175.3138	1198.9262	1220.7899	1226.908	1266.8392	1268.7256	1282.0295	1328.9426	1405.5293	1426.7059	1484.1579	1485.7203	1494.6983	1503.3443	1508.4683	1513.838	1896.4104	3024.7841	3029.4673	3049.3784	3077.3203	3087.2776	3093.6107	3096.5686	3104.9694	3106.0592	3135.4047	3139.1192	3142.286
CC1(C)CC2CC1C2=O	CC1(C)C[C@@H]2C[C@H]1C2=O	
InChI=1S/C8H12O/c1-8(2)4-5-3-6(8)7(5)9/h5-6H,3-4H2,1-2H3	InChI=1S/C8H12O/c1-8(2)4-5-3-6(8)7(5)9/h5-6H,3-4H2,1-2H3/t5-,6-/m0/s1
