16
gdb 45493	3.09805	1.75475	1.56245	4.3906	67.24	-0.2411	0.0222	0.2634	885.6735	0.127866	-437.910821	-437.904532	-437.903587	-437.941412	25.818	
O	 0.0070414339	-0.0344409369	 0.0319999884	-0.376364
C	 0.0069920832	 1.1728825547	-0.0204999949	 0.42595
N	-1.1132646697	 1.9807763385	-0.0990064979	-0.305208
C	-0.8250854262	 3.3985701909	 0.0830163272	-0.052709
C	-0.8219061561	 3.7757019084	 1.5741620394	-0.079453
O	 0.36340819	 3.1569304001	 2.0875197916	-0.253885
C	 1.3091695476	 3.1464257284	 1.0471119772	 0.100534
C	 0.6824399459	 3.5037135029	-0.2539388797	-0.124854
C	 1.2006071356	 2.0927890025	-0.0554408935	-0.217386
H	-1.9997689892	 1.5865141313	 0.1798180618	 0.248306
H	-1.468742396	 4.0298920374	-0.5333414834	 0.092818
H	-0.7792686126	 4.8683019036	 1.7031134459	 0.098578
H	-1.6777943089	 3.3817480481	 2.1291338782	 0.113347
H	 2.2981980342	 3.4773936422	 1.3435126894	 0.11246
H	 1.0642884859	 4.2150327706	-0.9732504916	 0.105219
H	 2.1116946223	 1.7270606973	-0.5109521881	 0.112648
136.4003	215.4853	396.3402	418.3778	471.4276	531.2454	624.4478	655.55	725.6653	761.361	780.4083	815.7547	828.5264	884.6286	927.7121	947.0799	962.7774	994.0047	1015.1355	1050.2798	1067.3029	1092.6744	1111.1357	1150.0552	1210.6909	1237.306	1249.3888	1286.6045	1327.5672	1340.7652	1371.3641	1394.8299	1423.6238	1503.9141	1837.1266	2989.4325	3089.2619	3095.8111	3175.4318	3201.3721	3209.6068	3618.8612
O=C1NC2COC3C2C13	O=C1N[C@H]2CO[C@@H]3[C@H]2[C@H]13	
InChI=1S/C6H7NO2/c8-6-4-3-2(7-6)1-9-5(3)4/h2-5H,1H2,(H,7,8)	InChI=1S/C6H7NO2/c8-6-4-3-2(7-6)1-9-5(3)4/h2-5H,1H2,(H,7,8)/t2-,3+,4-,5+/m0/s1
