19
gdb 18084	5.00598	1.1402	1.11429	2.0313	71.84	-0.228	0.0776	0.3055	1155.6346	0.165702	-364.99413	-364.986023	-364.985079	-365.027409	29.472	
C	 0.6075413822	 1.5064927861	-0.0849675335	-0.225701
O	 0.4556703264	 0.116242749	-0.2396244996	-0.23164
C	 1.6357183532	-0.5158514805	-0.6909663746	-0.092954
C	 1.3535393517	-1.9985284284	-0.7409847224	 0.001972
C	 0.9616831062	-2.7756196653	-1.9336632606	-0.02706
C	 1.6353306422	-2.2838623336	-3.2121461291	-0.253927
C	 2.9782702847	-2.4582570881	-2.4607033606	-0.152083
N	 2.3007422426	-3.0181475739	-1.2320082775	-0.167366
H	 1.3899697522	 1.7532483135	 0.6505079258	 0.10469
H	 0.8658070822	 1.9996583981	-1.0359556109	 0.102451
H	-0.3473601687	 1.9023934861	 0.2690272862	 0.128441
H	 1.933881972	-0.1091913094	-1.668795388	 0.088775
H	 2.4684655226	-0.3217743511	 0.0082667926	 0.093023
H	 0.8908278364	-2.3384498776	 0.1835304413	 0.103031
H	 0.1624396981	-3.5095471326	-1.8967266489	 0.09328
H	 1.528843677	-2.9838363801	-4.0424911416	 0.112762
H	 1.3582144227	-1.2851645367	-3.563633292	 0.105685
H	 3.6205961391	-3.228008299	-2.8923495749	 0.112528
H	 3.584162297	-1.5656015566	-2.2767843616	 0.104093
52.6324	82.8113	156.9764	224.2337	261.3417	295.4983	378.3866	443.5541	565.3808	740.6917	773.2871	786.3943	792.1084	926.877	950.1623	982.0543	991.845	1010.7639	1043.1867	1077.6482	1105.5838	1144.9422	1161.1608	1175.5616	1190.9674	1217.6896	1223.3341	1249.4516	1264.0928	1270.6573	1297.4322	1352.9456	1402.4724	1465.5872	1482.2883	1485.9217	1488.3228	1504.344	1516.3343	1529.8577	2948.2616	2968.2364	3001.7242	3010.6029	3050.9146	3058.1672	3104.0287	3114.7993	3122.3437	3132.118	3158.8218
COCC1C2CCN12	COC[C@H]1[C@H]2CCN12	
InChI=1S/C6H11NO/c1-8-4-6-5-2-3-7(5)6/h5-6H,2-4H2,1H3	InChI=1S/C6H11NO/c1-8-4-6-5-2-3-7(5)6/h5-6H,2-4H2,1H3/t5-,6+,7?/m1/s1
