25
gdb 116503	2.62516	1.11429	0.86569	1.0923	88.82	-0.2437	0.0775	0.3212	1452.2512	0.230789	-389.500457	-389.490816	-389.489871	-389.534954	36.78	
C	 0.1691899037	 1.3628522597	-0.0909934194	-0.239724
O	 0.057968771	-0.0292953511	 0.0673310729	-0.246507
C	-1.2812499924	-0.5237071283	 0.0708061518	 0.140534
C	-1.8128304998	-0.6664283267	-1.3678075722	-0.206898
C	-3.3442272043	-0.6340715478	-1.5350583333	-0.19908
C	-4.1765196232	-1.4050858256	-0.4886329417	-0.180819
C	-3.5653759107	-2.7177830373	 0.0318977671	-0.183785
C	-2.5571484806	-2.5120085227	 1.1752176056	-0.199307
C	-1.2147436616	-1.8663275509	 0.807093844	-0.195102
H	 1.2331434243	 1.6099297982	-0.0431807535	 0.124214
H	-0.223569275	 1.7184560692	-1.0561361916	 0.10083
H	-0.3564425391	 1.9073008214	 0.7102226606	 0.100047
H	-1.9162107446	 0.180512281	 0.6370209765	 0.055193
H	-1.3883934299	 0.1350921672	-1.9817789271	 0.095506
H	-1.40872975	-1.5989762008	-1.7797015263	 0.09807
H	-3.6844662669	 0.408922412	-1.5396906056	 0.093727
H	-3.5748991423	-1.0240761251	-2.5338790628	 0.095936
H	-4.368374286	-0.7571214269	 0.3766892641	 0.092777
H	-5.1615426483	-1.6070246428	-0.9250489782	 0.090107
H	-4.3751389567	-3.352779653	 0.4102654934	 0.090987
H	-3.1021441492	-3.279404626	-0.790487246	 0.09169
H	-3.0460617512	-1.9090051178	 1.9533730162	 0.092217
H	-2.3417943979	-3.4813526186	 1.6405439616	 0.09257
H	-0.6288995804	-2.5540738188	 0.1831437841	 0.098599
H	-0.6324257091	-1.7113003184	 1.7217748598	 0.098217
81.8761	101.9908	135.7689	167.5496	199.6253	275.5586	304.6479	341.066	356.7118	426.7068	481.8931	499.7312	537.9577	736.6923	773.5681	850.0289	860.2734	866.3696	886.2184	960.5461	997.4684	1015.653	1025.6788	1042.436	1070.3526	1129.2294	1136.196	1143.0982	1182.992	1190.4399	1216.1058	1226.2025	1233.5171	1267.371	1303.4491	1306.1308	1335.5362	1357.2976	1374.0186	1380.1614	1386.5741	1390.6953	1400.6229	1410.2707	1476.7165	1478.3462	1482.4875	1487.5564	1489.608	1493.6555	1500.696	1509.8733	1511.2527	2943.5236	2968.1479	3006.2963	3010.6135	3013.1956	3015.9895	3021.3685	3023.0276	3032.8876	3044.8397	3054.1502	3057.3137	3062.9596	3071.4334	3076.6402	3105.911
COC1CCCCCC1	COC1CCCCCC1	
InChI=1S/C8H16O/c1-9-8-6-4-2-3-5-7-8/h8H,2-7H2,1H3	InChI=1S/C8H16O/c1-9-8-6-4-2-3-5-7-8/h8H,2-7H2,1H3
