18
gdb 66618	2.90857	1.95659	1.86907	2.3212	72.82	-0.2207	0.0725	0.2931	844.4004	0.15098	-401.90096	-401.89482	-401.893876	-401.930943	27.056	
O	-0.0772369486	 1.3423397909	-0.1225162645	-0.484006
C	 0.0125553464	-0.0334384692	-0.012637055	 0.396961
C	 1.107174025	-0.8500027609	-0.7148821649	-0.174995
C	-0.3088945764	-0.9038684131	-1.2063448792	-0.074417
N	-0.5684876037	-2.220691927	-0.5724976801	-0.140887
C	-1.4251412247	-1.8424049114	 0.5829491173	-0.166086
C	-0.4527226495	-0.8406476535	 1.2468744997	-0.125402
C	 0.7361435014	-1.7971131983	 1.4862754388	-0.221674
C	 0.877667846	-2.180693117	 0.0046729137	-0.011888
H	 0.648416709	 1.7386366371	 0.3718121261	 0.28564
H	 1.9985324716	-0.4481131234	-1.1796919112	 0.088346
H	-0.7733738751	-0.5786618057	-2.1296645528	 0.093703
H	-2.3503507916	-1.3889220632	 0.2166268954	 0.105861
H	-1.6665441748	-2.7070598702	 1.2088166849	 0.095803
H	-0.8043795216	-0.236583599	 2.0822324809	 0.064267
H	 1.6402989525	-1.2974023006	 1.848585552	 0.092125
H	 0.4938337626	-2.6301702996	 2.1531889475	 0.097654
H	 1.4723914016	-3.053731096	-0.2579521988	 0.078996
247.9817	314.2306	351.7235	439.2024	484.8041	559.2519	593.0596	665.0493	691.9019	758.2125	806.5823	830.4163	866.5038	887.8553	907.2003	921.8907	931.9821	947.103	972.8122	973.4621	1017.5078	1041.2703	1060.0971	1065.8482	1099.7541	1152.2217	1175.921	1199.7355	1208.0155	1230.2899	1235.757	1269.4426	1275.2384	1286.6785	1322.3032	1329.2439	1429.7231	1482.8808	1506.4302	3046.4527	3053.2147	3097.7398	3108.6392	3127.5755	3129.8778	3180.6176	3196.2912	3792.497
OC12C3C1N1CC2CC31	O[C@]12[C@@H]3[C@H]1N1C[C@H]2C[C@H]31	
InChI=1S/C7H9NO/c9-7-3-1-4-5(7)6(7)8(4)2-3/h3-6,9H,1-2H2	InChI=1S/C7H9NO/c9-7-3-1-4-5(7)6(7)8(4)2-3/h3-6,9H,1-2H2/t3-,4-,5+,6-,7-/m1/s1
