19
gdb 55116	2.46829	1.42789	1.18457	2.8612	75.73	-0.2348	-0.0112	0.2237	1132.8517	0.156682	-423.015622	-423.00649	-423.005546	-423.049832	33.833	
C	 0.5948991949	 0.4055930405	 0.7189973298	-0.493082
C	-0.482083724	 0.2816481184	-0.3378516535	 0.380461
O	-1.5348837476	 0.8772192708	-0.259121082	-0.314477
C	-0.2434205037	-0.6671254332	-1.5034238204	-0.144877
C	 1.1853995932	-1.0908829436	-2.002948703	-0.290346
C	 0.8147835286	-2.5466268109	-1.6977286072	-0.040518
O	 0.5013883646	-2.6161981926	-0.2975838028	-0.279491
C	-0.5217549706	-2.17242351	-1.2014646194	 0.395664
C	-1.8499937547	-2.851770715	-1.1686488334	-0.496967
H	 1.4700583978	 0.9194497381	 0.3033606761	 0.135689
H	 0.2130783127	 0.9782243849	 1.5651605481	 0.134638
H	 0.928061994	-0.5884321869	 1.0321245606	 0.161412
H	-0.8742109859	-0.3332572184	-2.330302312	 0.101138
H	 1.3203353351	-0.8837257775	-3.0667393863	 0.114553
H	 2.0459985472	-0.7117635961	-1.448325243	 0.11537
H	 1.1669820929	-3.4590710859	-2.1654418371	 0.108212
H	-2.4434021049	-2.4945175567	-0.320078498	 0.145099
H	-2.4141531996	-2.6416689704	-2.0824205039	 0.13149
H	-1.7220076599	-3.9329107455	-1.0699930526	 0.136033
43.7224	125.4293	152.3608	194.103	199.6257	271.1143	299.2873	380.229	440.3851	472.5158	512.8067	596.6962	658.249	722.6621	764.3557	855.439	872.2741	902.9197	943.2593	978.9669	1010.5465	1032.0194	1052.3778	1068.9317	1100.9622	1149.7366	1186.2839	1198.5757	1248.9685	1261.3012	1269.9353	1320.0967	1382.609	1405.2497	1457.2217	1468.6712	1473.9915	1479.5469	1485.3194	1496.2167	1794.2665	3036.5407	3039.2204	3073.9054	3093.0557	3104.097	3104.4546	3124.8602	3130.2861	3154.8718	3184.8925
CC(=O)C1CC2OC12C	CC(=O)[C@H]1C[C@H]2O[C@@]12C	
InChI=1S/C7H10O2/c1-4(8)5-3-6-7(5,2)9-6/h5-6H,3H2,1-2H3	InChI=1S/C7H10O2/c1-4(8)5-3-6-7(5,2)9-6/h5-6H,3H2,1-2H3/t5-,6-,7+/m1/s1
