15
gdb 11099	6.26722	1.07633	1.01829	3.7525	70.13	-0.2464	0.0201	0.2665	1126.6317	0.11803	-362.633822	-362.625811	-362.624867	-362.667396	27.979	
O	 0.1374080594	 0.0452309368	 0.6323027912	-0.327605
C	 0.1215181792	 1.2340124266	 0.3876134574	 0.134346
N	 1.157870179	 1.9155124259	-0.148887143	-0.040083
C	 2.5220775502	 1.4697771341	-0.4194876018	-0.176784
C	 2.8734133819	 2.9480529424	-0.8136007797	-0.18711
C	 1.4196536911	 3.3384531327	-0.3658892805	-0.190051
C	 3.9700700713	 3.5805406328	-0.1142821437	 0.32397
C	 4.8757039843	 4.1027581968	 0.4790383643	-0.454676
H	-0.7566202195	 1.888399761	 0.5677094071	 0.070024
H	 3.0456334738	 1.1008104972	 0.4672934899	 0.136239
H	 2.6053333574	 0.7328597119	-1.2228469076	 0.131223
H	 2.9981793271	 3.0548879162	-1.8938185645	 0.120284
H	 0.8042748249	 3.8066862097	-1.1404195301	 0.124385
H	 1.3879392074	 3.9455003354	 0.5445552903	 0.130226
H	 5.6795682123	 4.5640331104	 0.9976546206	 0.205611
30.5327	93.0094	147.6106	216.3376	238.2676	315.5377	457.7578	511.9504	563.3276	634.015	642.8264	720.7309	818.1932	887.5107	943.9124	983.4098	1034.3444	1051.0329	1107.992	1140.246	1176.0385	1196.1389	1238.7523	1285.7505	1311.0026	1354.2679	1401.6868	1451.2416	1507.7333	1525.5574	1793.3976	2240.9044	2919.9798	3037.979	3054.507	3074.4975	3091.6852	3106.4731	3502.8778
O=CN1CC(C1)C#C	O=CN1CC(C1)C#C	
InChI=1S/C6H7NO/c1-2-6-3-7(4-6)5-8/h1,5-6H,3-4H2	InChI=1S/C6H7NO/c1-2-6-3-7(4-6)5-8/h1,5-6H,3-4H2
