19
gdb 121060	4.10551	0.8529	0.79227	4.0317	72.24	-0.2638	0.0149	0.2787	1480.471	0.159122	-460.202267	-460.193232	-460.192288	-460.237004	32.164	
C	 0.0789060908	 1.3934193563	-0.7751897526	-0.229055
O	-0.1421162168	 0.0035621615	-0.8562805669	-0.234501
C	 0.8696735822	-0.7538593564	-0.2378247796	-0.0697
C	 0.4941004967	-2.2271536144	-0.3819438803	 0.080124
C	 0.5308644216	-2.7431916726	-1.833931185	-0.240922
C	 1.9384955955	-3.3354150415	-1.9469340754	-0.360633
C	 2.3250907206	-3.6479151228	-0.5043138411	 0.426472
O	 3.2263068416	-4.3216944215	-0.1011003534	-0.331708
O	 1.4593585873	-3.0133011316	 0.3393547949	-0.225362
H	 0.1202874639	 1.7375621763	 0.2695164903	 0.111618
H	 1.0174701904	 1.6858848459	-1.2711771484	 0.108652
H	-0.7562911718	 1.8860182961	-1.2781479861	 0.132043
H	 1.8510595797	-0.5636677086	-0.7072704038	 0.088256
H	 0.9641926444	-0.5037409144	 0.8305566188	 0.106998
H	-0.4778808221	-2.3893221889	 0.0903688834	 0.106147
H	-0.2249556114	-3.5204368735	-1.9737164544	 0.118162
H	 0.3205437165	-1.9386065514	-2.5396334086	 0.130098
H	 2.0084311725	-4.238923761	-2.5539086256	 0.141936
H	 2.6689482884	-2.6223490774	-2.3441877961	 0.141377
65.383	88.8854	104.7294	138.4779	201.5538	233.0265	327.78	380.5486	472.5601	501.7109	548.41	669.9302	738.2847	799.2109	846.5884	893.0642	971.1877	995.6349	1012.3972	1048.7309	1097.4588	1102.7254	1162.2497	1168.1177	1179.9637	1198.6687	1223.6349	1233.1876	1249.2783	1296.791	1327.5759	1355.681	1376.6217	1425.8295	1467.3218	1481.1795	1486.0533	1502.3474	1506.6479	1526.5617	1886.2384	2951.8527	2977.5475	3000.7077	3024.117	3061.9569	3070.4785	3087.7812	3119.8384	3125.3262	3134.6048
COCC1CCC(=O)O1	COC[C@H]1CCC(=O)O1	
InChI=1S/C6H10O3/c1-8-4-5-2-3-6(7)9-5/h5H,2-4H2,1H3	InChI=1S/C6H10O3/c1-8-4-5-2-3-6(7)9-5/h5H,2-4H2,1H3/t5-/m1/s1
