18
gdb 99821	2.0955	1.3479	1.18514	3.9083	73.66	-0.2509	-0.0037	0.2472	1175.4589	0.145788	-435.284946	-435.274741	-435.273797	-435.320034	37.31	
C	-0.1842891937	 1.5416099866	-0.0313402246	-0.430367
C	-0.106628682	 0.0140121523	-0.0530362609	-0.190284
C	 0.7179839195	-0.5473383321	-1.2270733326	 0.183487
O	 0.1619057417	-0.1788322475	-2.4909261952	-0.464261
C	 2.1148836341	-0.0522543561	-1.157068149	 0.275601
N	 3.1849906879	 0.3830453941	-1.1200612649	-0.342396
C	 0.7636414232	-2.0932088504	-1.2001791121	 0.325313
N	 0.99166288	-2.6423958601	-2.4340560037	-0.533941
N	 0.6649741019	-2.6748220278	-0.0710041406	-0.51114
H	 0.8078189134	 1.9964166706	 0.0534522303	 0.143873
H	-0.6705206049	 1.9391497495	-0.9297185577	 0.109247
H	-0.7770818713	 1.8743853068	 0.824739633	 0.130505
H	 0.3246234097	-0.3734372727	 0.8716171239	 0.150117
H	-1.1057566028	-0.4224095259	-0.1424427104	 0.117809
H	 0.2909916061	 0.7671577933	-2.6168149929	 0.30185
H	 0.7601941864	-2.0753584351	-3.2345809542	 0.273321
H	 0.87316916	-3.6374211421	-2.5354244694	 0.252681
H	 0.7430402609	-3.6890246333	-0.1617483189	 0.208586
51.7896	94.1938	141.1615	161.96	214.5373	246.2838	278.763	332.6623	360.6275	389.0759	429.5912	456.7689	477.2563	510.9352	603.5363	609.6484	665.1552	721.7192	783.4452	860.2366	956.0408	972.0784	993.625	1094.7416	1097.1532	1128.0417	1156.1604	1172.3533	1298.0359	1312.2263	1366.1248	1413.4932	1428.0792	1470.5235	1501.9847	1509.8085	1621.3256	1737.0444	2348.6988	3032.9148	3071.0296	3094.2665	3117.9798	3133.6256	3460.9788	3586.3457	3706.0238	3823.4774
CCC(O)(C#N)C(N)=N	CC[C@@](O)(C#N)C(=N)N	
InChI=1S/C5H9N3O/c1-2-5(9,3-6)4(7)8/h9H,2H2,1H3,(H3,7,8)	InChI=1S/C5H9N3O/c1-2-5(9,3-6)4(7)8/h9H,2H2,1H3,(H3,7,8)/t5-/m1/s1
