15
gdb 34154	2.86622	1.69128	1.37076	5.5368	69.66	-0.2427	-0.0073	0.2354	940.8365	0.114541	-416.741688	-416.735016	-416.734072	-416.772788	26.437	
N	-0.0660303535	-1.1083061471	 0.0970977764	-0.342675
C	-0.0558894153	 0.0472583911	 0.0674137779	 0.167541
C	-0.0200849376	 1.4837699043	-0.0071424829	 0.368057
O	-0.6363024111	 2.2856286974	 1.0452995069	-0.333182
C	-0.0755792244	 3.2731033453	 0.1121148204	 0.013014
C	 1.2271893142	 2.437836578	-0.0688232137	-0.098014
C	 1.6747019439	 2.5304417615	-1.5199311619	-0.20307
N	 0.3600227252	 2.4300917721	-2.2173611759	-0.313698
C	-0.5720140664	 2.4326189764	-1.1205082668	-0.05856
H	-0.1967985448	 4.3267858655	 0.3562323586	 0.106811
H	 1.9539390322	 2.3923987615	 0.7393184207	 0.105635
H	 2.192529066	 3.4738155781	-1.7282601325	 0.113039
H	 2.3372303848	 1.7084065924	-1.8107622452	 0.131255
H	 0.2013358339	 3.1979969664	-2.858858538	 0.232373
H	-1.6305115971	 2.3977206672	-1.369804644	 0.111474
131.277	156.577	291.0129	369.4707	471.0447	527.0377	540.24	563.3024	688.1133	701.4007	778.7855	794.1001	815.8843	913.7177	937.5741	942.2539	965.6754	988.5104	1019.0811	1047.8604	1095.2601	1117.3884	1155.2945	1184.1843	1220.1081	1227.9241	1259.023	1276.3171	1309.152	1391.4889	1413.2517	1513.8601	2355.2531	3035.2542	3074.1749	3140.31	3156.4686	3160.9923	3549.1219
N#CC12OC3C1CNC23	N#C[C@@]12O[C@H]3[C@@H]1CN[C@@H]23	
InChI=1S/C6H6N2O/c7-2-6-3-1-8-5(6)4(3)9-6/h3-5,8H,1H2	InChI=1S/C6H6N2O/c7-2-6-3-1-8-5(6)4(3)9-6/h3-5,8H,1H2/t3-,4-,5+,6+/m0/s1
