18
gdb 64031	2.36821	1.59	1.22688	2.0096	77.32	-0.2544	0.016	0.2704	1081.8103	0.145887	-401.936045	-401.927084	-401.92614	-401.970027	33.837	
C	-0.3030430134	 1.5971526863	 0.0200240562	-0.424055
C	-0.036804414	 0.0988077843	 0.0083248942	 0.343488
C	-1.2793004628	-0.7092445662	-0.3539913437	-0.42352
O	 0.9704532935	-0.1578789842	-1.0269786938	-0.244275
C	 1.965734318	-0.8399209926	-0.4313757611	 0.113754
N	 1.9279438082	-1.0916037422	 0.8107958301	-0.262214
C	 0.6676604364	-0.483025075	 1.3017713182	-0.237422
C	 0.9255569305	 0.4807956459	 2.3674354095	 0.373351
C	 1.1238499804	 1.2647532404	 3.2561914136	-0.467759
H	 0.6083553613	 2.1533990206	 0.2480800505	 0.136885
H	-0.6762999732	 1.9156572279	-0.9574005223	 0.12175
H	-1.0506475837	 1.8467608113	 0.7775180526	 0.128647
H	-1.6748758707	-0.3963015519	-1.3242421503	 0.128092
H	-1.0453402655	-1.7768440523	-0.4029850028	 0.129766
H	-2.0579018847	-0.5613529436	 0.4013256603	 0.126676
H	 2.7689710726	-1.1379530907	-1.0973015527	 0.142034
H	 0.0436390104	-1.2839716352	 1.7178630315	 0.114619
H	 1.3084904668	 1.9544522672	 4.0424284701	 0.200183
28.0202	157.3625	189.1839	230.194	269.5004	296.1927	333.6413	374.0561	391.9844	495.6074	516.4607	575.3038	627.4727	638.77	655.2964	795.766	821.3069	904.0394	943.1587	946.9494	974.2775	993.094	1016.0834	1059.0933	1137.0319	1193.0516	1215.6667	1255.3388	1278.9339	1332.6895	1352.3202	1404.958	1422.8871	1475.0273	1482.173	1494.3127	1503.9811	1701.7131	2237.9738	3021.034	3039.0778	3051.2331	3113.0622	3119.2274	3125.1989	3137.3895	3207.7795	3502.1063
CC1(C)OC=NC1C#C	CC1(C)OC=N[C@H]1C#C	
InChI=1S/C7H9NO/c1-4-6-7(2,3)9-5-8-6/h1,5-6H,2-3H3	InChI=1S/C7H9NO/c1-4-6-7(2,3)9-5-8-6/h1,5-6H,2-3H3/t6-/m0/s1
