16
gdb 9182	6.05879	0.89575	0.85266	3.9603	67.12	-0.2677	0.0056	0.2733	1343.8565	0.12948	-379.971098	-379.961963	-379.961019	-380.00677	30.792	
C	 0.0552162252	 1.4928238115	 0.1520511064	-0.370174
C	-0.0563096465	-0.0228554573	-0.0079816238	-0.305731
C	-1.4928862515	-0.5159791027	 0.1204044789	 0.435504
O	-2.3691553809	 0.109292736	 0.6852244811	-0.360433
N	-1.7273590129	-1.7456217969	-0.4503454896	-0.324452
C	-3.0059709998	-2.4074231897	-0.2984328405	-0.280641
C	-2.9038747	-3.6670320657	 0.4505298314	 0.252871
N	-2.8057933586	-4.6691875027	 1.0167511368	-0.298378
H	 1.1034304816	 1.8031521219	 0.1483010439	 0.113812
H	-0.4597042933	 2.013287261	-0.6603117917	 0.127483
H	-0.4046498668	 1.8098055268	 1.089971758	 0.146724
H	 0.3642707585	-0.3530535776	-0.9653587107	 0.110247
H	 0.5264739311	-0.5311425208	 0.7721607033	 0.13822
H	-0.9634476728	-2.2585177414	-0.8596831052	 0.258854
H	-3.6514101967	-1.7059533325	 0.239745735	 0.198055
H	-3.4697923265	-2.61607512	-1.2699450635	 0.158039
24.4031	48.9947	74.463	191.5779	214.2443	244.7189	321.7491	372.8902	397.2647	444.6956	586.8186	600.6193	673.0309	812.603	859.9181	929.2346	994.326	1052.0184	1058.7009	1099.8255	1126.4289	1212.107	1268.9101	1286.5402	1361.7479	1386.241	1412.3516	1463.3621	1467.6374	1492.8545	1502.5385	1523.7832	1786.9616	2363.2152	3023.67	3037.5888	3052.6221	3060.3735	3097.7851	3120.656	3140.4468	3645.4378
CCC(=O)NCC#N	CCC(=O)NCC#N	
InChI=1S/C5H8N2O/c1-2-5(8)7-4-3-6/h2,4H2,1H3,(H,7,8)	InChI=1S/C5H8N2O/c1-2-5(8)7-4-3-6/h2,4H2,1H3,(H,7,8)
