23
gdb 106796	2.32429	1.44579	1.06933	1.3503	85.73	-0.2531	0.0762	0.3293	1234.8299	0.206384	-388.29723	-388.287902	-388.286958	-388.330824	36.407	
C	-0.0160565685	 1.5158786925	-0.0488356479	-0.48227
C	 0.0069618659	 0.0069529286	 0.0419158705	 0.29407
C	 1.2995283561	-0.7468299301	-0.1766186302	-0.372153
C	 0.6370756288	-0.7803360454	 1.184541439	 0.351471
C	 1.3238956138	-0.1392014037	 2.3568904119	-0.183696
O	 2.2625759224	-1.0731516393	 2.8851608813	-0.422778
C	-0.2473404919	-1.9902089605	 1.4701452024	-0.25754
C	-1.128834871	-2.1552788683	 0.2130333569	-0.237501
C	-1.2677633894	-0.7306001872	-0.364791509	-0.257518
H	 0.9192452952	 1.9644959864	 0.2982044516	 0.113295
H	-0.1648322299	 1.8386695371	-1.0863605131	 0.116175
H	-0.8342511574	 1.9405528452	 0.545679541	 0.110777
H	 1.3133540271	-1.6426890172	-0.7893907664	 0.104133
H	 2.2036439442	-0.1513523021	-0.2580566093	 0.103543
H	 1.8285586783	 0.7889071534	 2.0477150754	 0.078304
H	 0.5762881193	 0.1323641765	 3.1212868772	 0.079126
H	 2.6402770033	-0.6943658573	 3.6845854796	 0.283834
H	 0.3300185282	-2.8894454665	 1.7041817984	 0.107872
H	-0.8689348461	-1.771116942	 2.3486767485	 0.088374
H	-0.6364433879	-2.811370939	-0.5114946935	 0.104104
H	-2.0965943313	-2.6113960477	 0.4375765393	 0.094319
H	-2.1289390882	-0.2164137199	 0.0825576809	 0.091702
H	-1.427397231	-0.7312429832	-1.4494615943	 0.092356
87.0652	146.0774	186.2591	215.2105	238.4754	261.8998	286.6775	344.8083	359.2698	438.1012	467.2538	548.5784	610.5689	684.2687	737.7925	817.6789	888.7758	900.8076	917.0644	947.7125	950.5696	961.1457	1002.6937	1027.7743	1043.9276	1062.1048	1069.7071	1111.8515	1130.4869	1181.8282	1211.6237	1235.2817	1247.9587	1263.1053	1272.8989	1292.1764	1325.1825	1343.6148	1366.0745	1401.7999	1417.9423	1464.8386	1487.1284	1488.7553	1491.5151	1494.3209	1504.5858	1516.4987	1524.3694	2955.7974	2994.1957	3015.0168	3018.2669	3020.8022	3048.7697	3061.7193	3073.5179	3081.9811	3098.1233	3100.7252	3121.791	3201.3179	3824.1194
CC12CC1(CO)CCC2	C[C@@]12C[C@]1(CO)CCC2	
InChI=1S/C8H14O/c1-7-3-2-4-8(7,5-7)6-9/h9H,2-6H2,1H3	InChI=1S/C8H14O/c1-7-3-2-4-8(7,5-7)6-9/h9H,2-6H2,1H3/t7-,8+/m1/s1
