12
gdb 132077	2.43009	1.90187	1.06689	4.0869	63.44	-0.2241	-0.0529	0.1712	995.341	0.077577	-513.933782	-513.926651	-513.925707	-513.965504	26.697	
O	 0.0139682852	 1.3363059706	 0.007739347	-0.399072
C	-0.0159907612	-0.0032266214	 0.0008832013	 0.298944
C	-1.1835199416	-0.6915514833	 0.0033878235	 0.101708
F	-2.3576061456	-0.0744903004	 0.0127731943	-0.04048
C	-1.1934391616	-2.134509933	-0.0041358248	 0.308267
N	-2.2226328437	-2.8650612171	-0.0025595153	-0.533941
O	 0.1063968507	-2.6997770344	-0.0139051716	-0.217637
C	 1.1914560676	-1.9192112097	-0.0154966934	 0.133364
N	 1.2099078288	-0.6427501751	-0.0089006502	-0.351642
H	 0.9458766185	 1.5929073393	 0.0041972318	 0.310535
H	-1.978634164	-3.8540430377	-0.0090193252	 0.232291
H	 2.1074091572	-2.5008031977	-0.0233429774	 0.157662
114.1201	171.9698	282.1756	298.3164	337.0228	462.892	505.4087	517.9435	522.2753	556.1466	668.6655	694.4095	737.6868	816.3481	891.4718	933.1546	946.4589	1065.2427	1179.2991	1213.9408	1299.8062	1344.0956	1400.7708	1429.3487	1653.05	1738.7733	1767.7652	3204.0268	3515.1914	3784.4501
OC1=C(F)C(=N)OC=N1	O[C@H]1C(=C([NH])OC=N1)F	
InChI=1S/C4H3FN2O2/c5-2-3(6)9-1-7-4(2)8/h1,6,8H	InChI=1S/C4H4FN2O2/c5-2-3(6)9-1-7-4(2)8/h1,4,6,8H/t4-/m0/s1
