23
gdb 107056	3.83403	1.05793	0.95169	1.4979	85.79	-0.2463	0.0881	0.3344	1360.9173	0.205905	-388.299033	-388.289751	-388.288807	-388.332799	35.815	
C	 0.0459229165	 1.5163429285	 0.2986964493	-0.37647
C	-0.0408886677	 0.050992768	-0.1499514282	-0.285229
C	-1.441656031	-0.5146060549	-0.0895295798	 0.353576
C	-2.0110432543	-1.0704038194	 1.1942969109	-0.334337
C	-1.7503653811	-1.9889925831	 0.0236997951	-0.128307
C	-2.9331380449	-2.2545410966	-0.8966195806	 0.131957
C	-4.0032003762	-3.2026873313	-0.3786198414	-0.398109
O	-3.5264057267	-0.9672344622	-1.0967614472	-0.271388
C	-2.4973285959	 0.0131062809	-1.0557545281	-0.143694
H	 1.0780486155	 1.8784228379	 0.2634398965	 0.111469
H	-0.5550460261	 2.1684340214	-0.3439617806	 0.11889
H	-0.3191389316	 1.6344067878	 1.3242143776	 0.119699
H	 0.3431329455	-0.0402307767	-1.1753791655	 0.095271
H	 0.6182700788	-0.5602344651	 0.4784343323	 0.095511
H	-1.3380045986	-1.1472966901	 2.0418440975	 0.105146
H	-3.0403787757	-0.8403924469	 1.4514134942	 0.118369
H	-0.9603283568	-2.7293730262	 0.0847299278	 0.081872
H	-2.544759016	-2.6366006396	-1.8576544074	 0.061769
H	-4.3685614818	-2.876723637	 0.5992333645	 0.120886
H	-4.8489734293	-3.2362746571	-1.071267044	 0.123629
H	-3.5988785462	-4.2149670273	-0.2801126299	 0.11176
H	-2.9613849587	 0.9573690903	-0.7510354605	 0.104355
H	-2.0441557475	 0.1585326386	-2.0521536124	 0.083375
77.8422	122.1545	186.4902	196.0909	228.5029	253.3037	294.8169	359.7875	375.0793	397.1356	540.7349	597.0703	654.2544	732.7066	785.2906	812.6464	872.6214	902.6952	920.1634	952.8496	978.1152	1002.3444	1033.4556	1051.476	1066.4051	1073.011	1077.6624	1110.3924	1127.3969	1140.0497	1159.8486	1237.0792	1257.2781	1266.4977	1330.3221	1346.4058	1357.5912	1371.1469	1383.9064	1408.9979	1410.7609	1420.435	1478.2464	1484.7069	1487.6906	1496.8158	1499.6818	1506.3648	1515.9067	2937.8774	2951.3093	3011.2609	3033.698	3042.2711	3049.719	3061.7296	3102.3832	3105.903	3114.6855	3121.2675	3124.8303	3171.5439	3211.318
CCC12CC1C(C)OC2	CC[C@]12C[C@H]1[C@@H](C)OC2	
InChI=1S/C8H14O/c1-3-8-4-7(8)6(2)9-5-8/h6-7H,3-5H2,1-2H3	InChI=1S/C8H14O/c1-3-8-4-7(8)6(2)9-5-8/h6-7H,3-5H2,1-2H3/t6-,7+,8-/m1/s1
