19
gdb 108760	2.78967	1.181	0.92815	5.451	79.2	-0.2604	-0.0353	0.2251	1304.7402	0.158866	-423.093719	-423.084688	-423.083744	-423.127871	33.138	
C	-0.3096484481	 1.4730200543	-0.0948947676	-0.38173
C	 0.1431995031	 0.0069258639	 0.039990482	-0.298763
C	 0.8423798238	-0.5133300032	-1.1768726684	 0.345144
C	 2.1032844809	-0.9354943664	-1.3033787089	-0.393904
C	 2.3530143266	-1.3465429296	-2.7004916929	 0.444811
O	 3.3457681851	-1.7748367008	-3.2180245219	-0.353078
O	 1.1827835237	-1.1519229005	-3.3986589089	-0.242789
C	 0.16947124	-0.6367121308	-2.5288029045	 0.024853
C	-1.0468613183	-1.5609127695	-2.5556104356	-0.399846
H	 0.5435122774	 2.1297393612	-0.2886668164	 0.132456
H	-1.0255851605	 1.6012551333	-0.9123510487	 0.125961
H	-0.7941707532	 1.8067665931	 0.8268150536	 0.126078
H	 0.807806566	-0.0952076445	 0.9035969999	 0.118909
H	-0.7354732361	-0.6187992961	 0.2459627108	 0.120698
H	 2.869053475	-0.9936364513	-0.5430683558	 0.125499
H	-0.1161392193	 0.353702737	-2.9097309052	 0.108555
H	-0.7845694193	-2.5493540337	-2.1680071701	 0.133531
H	-1.8591774582	-1.1481194814	-1.9496523555	 0.122415
H	-1.4051216685	-1.6721555951	-3.5817319659	 0.141202
57.1453	129.6196	138.2356	199.3621	230.6149	249.1187	263.9594	337.0007	437.1702	536.5265	551.4152	633.2906	698.7791	746.3603	788.1225	813.0893	893.0768	895.6187	948.0606	969.0804	1052.4197	1055.2581	1089.3848	1110.8167	1121.2715	1172.151	1184.4433	1268.5073	1316.6054	1348.7003	1356.6636	1363.3619	1404.3571	1410.4825	1478.7258	1488.5774	1495.3404	1499.1442	1506.848	1695.5185	1869.6086	3013.6197	3022.9405	3043.3291	3045.4715	3076.2656	3115.5845	3119.3499	3120.6008	3131.8723	3241.1587
CCC1=CC(=O)OC1C	CCC1=CC(=O)O[C@H]1C	
InChI=1S/C7H10O2/c1-3-6-4-7(8)9-5(6)2/h4-5H,3H2,1-2H3	InChI=1S/C7H10O2/c1-3-6-4-7(8)9-5(6)2/h4-5H,3H2,1-2H3/t5-/m0/s1
