17
gdb 6037	2.40616	1.81134	1.64952	3.7704	59.71	-0.2495	0.0154	0.2648	912.5844	0.141752	-438.175773	-438.167042	-438.166097	-438.209024	32.069	
C	 0.3009403311	 1.684454416	-0.4536520664	-0.417702
C	-0.1964167001	 0.3585370536	 0.1215904826	 0.226886
O	 0.2822988863	 0.2251390019	 1.4595482409	-0.479755
C	-1.7339322254	 0.2733295695	 0.1250348943	-0.195516
N	-2.1346299864	-0.8501624856	 0.9840102046	-0.540365
H	-2.1107976617	-1.7219752574	 0.4632813219	 0.252677
H	-0.4074185581	-0.314727367	 1.8940730259	 0.290881
H	-3.0830881011	-0.7314646519	 1.3194829605	 0.246018
C	 0.376291548	-0.7980479102	-0.7387510139	 0.390472
O	 1.3766161323	-1.4614943926	-0.1453624645	-0.37075
O	-0.0268856138	-1.0647730846	-1.8410818691	-0.352894
H	 1.3929444818	 1.7307338019	-0.4191787809	 0.133135
H	-0.0175423515	 1.7874940627	-1.493824854	 0.142415
H	-0.0966653744	 2.5167034452	 0.1336240472	 0.124038
H	 1.4504509803	-1.0626789148	 0.7447407401	 0.3097
H	-2.1278411697	 1.1944214173	 0.5653625276	 0.110103
H	-2.0875443278	 0.199696346	-0.9092187066	 0.130658
60.9308	105.2882	219.3395	227.1014	257.2338	281.8733	304.2527	365.2542	387.4115	522.5225	543.9465	590.9908	684.3137	753.8674	768.7765	844.8184	875.1617	909.4366	931.9916	983.5777	1065.4721	1095.0176	1123.6767	1193.2093	1214.7327	1270.4607	1336.233	1388.0131	1400.8753	1419.363	1426.6318	1482.2956	1491.5705	1498.043	1657.461	1858.1533	3041.4725	3047.909	3094.5958	3121.3354	3135.2292	3508.5664	3555.8496	3583.566	3594.263
CC(O)(C[NH3+])C([O-])=O	C[C@@](O)(CN)C(=O)O	
InChI=1S/C4H9NO3/c1-4(8,2-5)3(6)7/h8H,2,5H2,1H3,(H,6,7)	InChI=1S/C4H9NO3/c1-4(8,2-5)3(6)7/h8H,2,5H2,1H3,(H,6,7)/t4-/m1/s1
