14
gdb 5452	3.52699	1.93919	1.261	2.7202	74.5	-0.212	-0.0067	0.2053	912.4693	0.107583	-341.60405	-341.596514	-341.59557	-341.635904	27.639	
C	 0.0155417897	 1.5128167689	 0.1186846819	-0.501966
C	 0.0382987667	 0.0248728003	 0.0158679236	 0.189682
C	-0.0089403603	-0.7473618138	-1.1341858069	 0.112443
N	 0.0404811457	-2.0607588205	-0.6843274347	-0.321158
C	 0.112663061	-2.0186393273	 0.6687923895	 0.004906
N	 0.1134403737	-0.7838101383	 1.1223303374	-0.296393
C	-0.0889883515	-0.4083310763	-2.496036785	 0.275048
C	-0.1576568757	-0.1186183451	-3.6645497553	-0.466346
H	 0.9180450081	 1.8832601414	 0.6164178684	 0.13709
H	-0.0473171805	 1.9697575163	-0.8716566553	 0.131061
H	-0.840605823	 1.8496849594	 0.7127792464	 0.137098
H	 0.0243914959	-2.8781108174	-1.2711759481	 0.27204
H	 0.1622778914	-2.9134093562	 1.2715151899	 0.134205
H	-0.2181771613	 0.1446450287	-4.6912801017	 0.19229
90.282	139.1075	163.2407	264.6426	323.5592	454.6879	500.5942	526.4513	527.9523	592.8746	673.0862	680.9109	707.3424	714.8221	823.5138	956.9824	990.5852	1063.0313	1110.8417	1156.2063	1256.3642	1293.6609	1373.5275	1410.9641	1460.4533	1477.4826	1486.3974	1508.4291	1595.2017	2224.0419	3037.5048	3091.6762	3127.4619	3251.2249	3502.1392	3666.0422
CC1=C(NC=N1)C#C	Cc1c([nH]cn1)C#C	
InChI=1S/C6H6N2/c1-3-6-5(2)7-4-8-6/h1,4H,2H3,(H,7,8)	InChI=1S/C6H6N2/c1-3-6-5(2)7-4-8-6/h1,4H,2H3,(H,7,8)
