25
gdb 109780	2.57445	0.9895	0.83235	0.085	94.02	-0.2387	0.0831	0.3218	1551.8733	0.228255	-352.335477	-352.325006	-352.324062	-352.371581	39.014	
C	 2.3694105204	 2.3627196424	-0.6994256935	-0.376429
C	 1.185961543	 1.406415812	-0.5055938809	-0.190103
C	 1.263737179	 0.1947747618	-1.4146762941	-0.025757
C	 2.010376702	-1.0765561157	-1.0494630624	-0.033649
C	 2.7386910315	-1.2644606303	 0.2652742707	-0.405513
C	 0.4962664225	-1.0880268859	-1.155070012	-0.054502
C	-0.4031394757	-1.2757344303	 0.0280799681	 0.03366
C	-1.9003119468	-1.3206747356	-0.1696571069	-0.272153
C	-1.1513050137	-2.5767205821	 0.2011360733	-0.274422
H	 3.3182757465	 1.8682305489	-0.4671457562	 0.118041
H	 2.4266571629	 2.713678673	-1.7358551239	 0.112289
H	 2.2805683729	 3.2428567027	-0.0544740117	 0.107225
H	 1.1357455884	 1.1042148442	 0.5452494846	 0.092421
H	 0.2482068303	 1.9416311672	-0.7051699519	 0.096965
H	 1.3347033817	 0.4736611911	-2.4648873905	 0.072952
H	 2.5229444446	-1.5544896311	-1.8814086024	 0.076177
H	 2.2406012389	-0.7687470704	 1.1018197389	 0.114616
H	 2.8149932838	-2.3278597181	 0.5187234609	 0.116767
H	 3.7577062867	-0.8652966527	 0.2090706589	 0.113588
H	 0.1032397528	-1.5742234195	-2.0465519587	 0.070226
H	-0.0749271505	-0.8072838543	 0.9495549425	 0.076064
H	-2.5364609625	-0.858258621	 0.5772021532	 0.107202
H	-2.2761952849	-1.2364556274	-1.1842514082	 0.10868
H	-1.0242061597	-3.3351932397	-0.5646029074	 0.108595
H	-1.2737018141	-2.9753140193	 1.2023516697	 0.107061
40.2172	81.8806	113.6671	133.8038	182.1504	206.9123	256.242	270.4419	301.3056	326.1161	474.8878	535.4566	575.1626	744.6063	753.9558	766.4525	811.371	818.9554	828.4387	908.3326	925.9114	952.531	981.4908	986.8952	1035.5266	1055.4787	1061.4549	1072.9172	1075.6901	1098.5331	1129.502	1138.0602	1156.1715	1195.1132	1197.8201	1217.8403	1224.8421	1274.4585	1293.991	1317.9013	1339.0407	1395.3953	1409.3604	1419.2388	1425.4387	1468.4308	1469.39	1484.334	1497.3499	1498.5572	1501.7373	1507.8827	1512.9759	3022.024	3030.3046	3031.36	3065.6956	3084.0825	3097.3228	3103.6058	3104.61	3108.2769	3115.3928	3126.5023	3130.5213	3132.7897	3163.7979	3204.0907	3220.1744
CCC1C(C)C1C1CC1	CC[C@H]1[C@@H](C)[C@H]1C1CC1	
InChI=1S/C9H16/c1-3-8-6(2)9(8)7-4-5-7/h6-9H,3-5H2,1-2H3	InChI=1S/C9H16/c1-3-8-6(2)9(8)7-4-5-7/h6-9H,3-5H2,1-2H3/t6-,8+,9+/m1/s1
