18
gdb 26328	3.90544	0.984	0.8095	2.3963	74.78	-0.1847	0.0563	0.241	1380.252	0.147177	-439.116703	-439.107432	-439.106487	-439.150731	34.891	
C	 0.1777558869	 1.3152048691	-0.5094050052	-0.391936
C	 0.0120179448	-0.0284349695	 0.2088690826	 0.025354
O	 0.4261270088	 0.0664966745	 1.5717314113	-0.424914
C	-1.3861994265	-0.58184654	 0.1081251881	 0.268763
C	-2.0436906929	-1.2409815283	 1.1175645161	-0.200241
N	-3.2916602432	-1.6075109124	 0.6431143283	-0.305088
C	-3.420701281	-1.188947587	-0.6468146438	 0.409496
O	-4.5921649721	-1.4561185121	-1.2792407681	-0.436093
C	-2.267246884	-0.5460738855	-1.0257251658	-0.434367
H	 1.1986570397	 1.6826261784	-0.3745853491	 0.117394
H	-0.0181028709	 1.2216647757	-1.5822993573	 0.112655
H	-0.5192081335	 2.0579530482	-0.1048229388	 0.108196
H	 0.7233552614	-0.7408712165	-0.2307456034	 0.096907
H	-0.233152631	 0.6080648282	 2.0216457186	 0.270427
H	-1.7227575652	-1.5005451042	 2.1113902641	 0.125426
H	-4.0058572008	-2.098568485	 1.1515365591	 0.264737
H	-4.53753936	-1.1078258912	-2.1739633539	 0.307519
H	-2.0757967806	-0.1021891824	-1.9903158326	 0.085764
51.4099	140.8704	175.6742	223.1669	245.3009	286.8234	330.1058	352.8831	379.7933	432.5722	480.9487	493.1133	609.24	651.9876	688.4675	698.6918	728.6158	757.266	892.0737	970.6602	1008.6809	1033.8253	1083.5063	1100.6968	1119.5458	1167.0262	1190.5476	1268.0854	1274.7763	1331.8357	1353.1408	1399.2034	1413.4171	1424.9302	1491.3746	1491.9904	1539.527	1568.1793	1634.453	3012.6646	3031.6814	3101.6489	3118.5033	3244.8584	3285.9957	3687.246	3785.5727	3850.7558
CC(O)C1=CNC(O)=C1	C[C@@H](O)c1c[nH]c(O)c1	
InChI=1S/C6H9NO2/c1-4(8)5-2-6(9)7-3-5/h2-4,7-9H,1H3	InChI=1S/C6H9NO2/c1-4(8)5-2-6(9)7-3-5/h2-4,7-9H,1H3/t4-/m1/s1
