17
gdb 39000	3.30197	1.79497	1.30462	1.8696	82.01	-0.2144	-0.0229	0.1915	963.4027	0.137999	-384.691716	-384.685145	-384.684201	-384.722328	27.315	
C	-0.0284401484	 1.5431953507	-0.0544046627	-0.27873
C	 1.4249081854	 1.9739699803	 0.1133015135	-0.271462
C	 2.2261459533	 0.9081680368	 0.2362738926	 0.351341
C	 3.6257163776	 0.5228752059	 0.2183459489	-0.194706
C	 3.7266412516	-0.8112815439	 0.0568183925	-0.083379
C	 2.3777202095	-1.5106907752	-0.0417019123	-0.414815
C	 1.4293805759	-0.360970865	 0.2519238168	 0.387979
O	 0.4848566003	-0.4355882574	 1.3362908871	-0.295761
C	 0.0235357596	 0.0150655055	 0.0528194931	-0.087852
H	-0.6934319932	 1.9658910303	 0.7091564234	 0.124669
H	-0.4251287263	 1.8594026771	-1.0288054295	 0.110072
H	 1.7251429097	 3.0151456481	 0.0983486456	 0.096164
H	 4.4620381442	 1.2083699821	 0.2792884079	 0.104065
H	 4.6607118076	-1.3540912828	-0.032438635	 0.103408
H	 2.230606122	-1.9526321219	-1.0357682438	 0.121344
H	 2.2606114543	-2.3179089917	 0.6891434434	 0.131944
H	-0.7268893531	-0.6102647488	-0.4229147314	 0.095721
172.0636	234.6955	299.124	408.7204	416.9564	451.1643	593.5628	639.1035	675.0018	751.5427	761.1363	811.7563	818.7055	839.151	877.658	925.3053	935.6645	966.2731	970.2896	983.222	1013.511	1052.1092	1086.1095	1140.5099	1170.0265	1177.4601	1210.2767	1262.2049	1287.3791	1302.0179	1332.6683	1372.2197	1448.017	1460.8793	1470.2799	1612.6607	1709.7787	3018.1338	3025.8224	3053.7793	3073.5017	3152.671	3194.7523	3198.813	3217.9178
C1C=C2C=CCC22OC12	C1C=C2C=CC[C@]32O[C@@H]13	
InChI=1S/C8H8O/c1-2-6-3-4-7-8(6,5-1)9-7/h1-3,7H,4-5H2	InChI=1S/C8H8O/c1-2-6-3-4-7-8(6,5-1)9-7/h1-3,7H,4-5H2/t7-,8+/m0/s1
