21
gdb 67463	2.4864	1.65423	1.56476	1.262	81.32	-0.2356	0.0838	0.3194	1018.6777	0.185182	-387.070995	-387.063326	-387.062382	-387.10265	31.276	
C	-0.0392662017	 1.5195821614	 0.0247023254	-0.514281
C	 0.0110844796	 0.0204799343	-0.014928463	 0.339167
C	 0.5204302775	-0.9549649541	-1.0889309144	-0.125488
C	 1.3257733555	-1.734268694	-0.0526045698	-0.274507
C	 0.6397809398	-0.8802626352	 1.0711084411	 0.047888
O	-0.2798164644	-1.5252161476	 1.9305996627	-0.26433
C	-1.1252440371	-2.4490300737	 1.2601424177	-0.077491
C	-1.8134038639	-1.8641149311	 0.0122097774	-0.246232
C	-0.9556263643	-0.860695117	-0.7468817369	-0.07741
H	 0.9477132502	 1.9520669795	 0.2280085053	 0.114483
H	-0.3909595968	 1.9276255446	-0.9291096133	 0.115555
H	-0.7217316181	 1.8733945713	 0.8070166443	 0.12435
H	 0.8619287841	-0.7180352842	-2.0906918166	 0.07948
H	 1.222736358	-2.8218294448	-0.0188692618	 0.097335
H	 2.3914182674	-1.4955741854	-0.1060369721	 0.10141
H	 1.347300461	-0.3679647425	 1.7261446222	 0.080373
H	-0.5554926493	-3.3487742153	 0.9899428505	 0.094444
H	-1.8736461543	-2.7532271328	 1.9972227143	 0.103895
H	-2.1323313404	-2.6886708564	-0.6371703716	 0.097462
H	-2.7253176321	-1.3375668253	 0.3206237852	 0.104394
H	-1.5071026009	-0.3313956916	-1.5223168866	 0.079503
149.8792	191.1702	203.8928	271.7825	321.2814	383.899	422.0705	478.7427	548.5755	635.1274	692.3439	722.6545	786.2874	824.1459	853.4248	898.1132	925.773	934.2858	962.6897	979.1739	1030.0763	1037.3994	1069.1817	1106.8649	1112.0712	1119.5803	1139.8162	1171.4787	1210.3787	1245.1539	1251.9589	1261.5651	1284.6372	1297.1799	1338.7244	1372.4571	1374.2127	1415.8339	1420.4306	1470.0167	1485.2741	1486.9683	1493.5668	1502.0135	1522.255	3002.3797	3017.0091	3019.448	3054.9492	3058.62	3075.0337	3084.1941	3087.7717	3089.576	3103.29	3119.3072	3169.7132
CC12C3CC1OCCC23	C[C@@]12[C@H]3C[C@@H]1OCC[C@@H]23	
InChI=1S/C8H12O/c1-8-5-2-3-9-7(8)4-6(5)8/h5-7H,2-4H2,1H3	InChI=1S/C8H12O/c1-8-5-2-3-9-7(8)4-6(5)8/h5-7H,2-4H2,1H3/t5-,6+,7+,8-/m1/s1
