18
gdb 45213	2.80528	1.99791	1.52194	3.9228	74.35	-0.2385	0.007	0.2455	905.4386	0.151096	-401.952568	-401.946066	-401.945122	-401.983313	26.916	
O	-0.0954307884	 0.0488891935	 0.5218305673	-0.343785
C	-0.102336872	 1.1974974568	 0.1530904387	 0.359319
C	-1.3358959808	 2.0914882241	-0.071957653	-0.336504
C	-0.8012798313	 3.4642958152	 0.3367630911	-0.03156
C	-0.3008230604	 3.6177257858	 1.8217107844	-0.256356
C	 1.1961464815	 3.6276666874	 1.3622747155	-0.035305
C	 1.8426030879	 2.2296821336	 1.2490820653	-0.19209
N	 1.0482803062	 1.9892362323	-0.0040721434	-0.109864
C	 0.6830104547	 3.4302743838	-0.0944003643	-0.006278
H	-1.6453930937	 2.0812164323	-1.1242712703	 0.124579
H	-2.1666842539	 1.7139784265	 0.5275544043	 0.13008
H	-1.4001839335	 4.3046980558	-0.0163063143	 0.076427
H	-0.6047958019	 4.5678871167	 2.2647011461	 0.112636
H	-0.5826694824	 2.8156811988	 2.5108023392	 0.112639
H	 1.8117026915	 4.4639968011	 1.6924409836	 0.075544
H	 2.9161287231	 2.2609075401	 1.0407824793	 0.115731
H	 1.6444874321	 1.4910870254	 2.0310256893	 0.1285
H	 1.051505251	 3.9476074408	-0.9816535187	 0.076288
116.8997	245.7191	325.2048	358.867	457.4786	548.1963	608.3104	644.333	698.5274	758.8093	769.4951	820.3814	854.7665	879.5438	918.6868	949.1531	973.3078	983.508	1017.336	1038.0507	1071.0993	1073.5673	1136.8825	1142.7531	1166.6145	1189.5262	1219.1393	1226.916	1250.6955	1260.6639	1278.6975	1298.9535	1311.5791	1322.6404	1333.6821	1463.6755	1478.5253	1509.4296	1827.3573	3041.3986	3049.5729	3057.063	3089.5817	3100.6743	3104.373	3110.8395	3117.1005	3123.8123
O=C1CC2CC3CN1C23	O=C1C[C@H]2C[C@H]3CN1[C@@H]23	
InChI=1S/C7H9NO/c9-6-2-4-1-5-3-8(6)7(4)5/h4-5,7H,1-3H2	InChI=1S/C7H9NO/c9-6-2-4-1-5-3-8(6)7(4)5/h4-5,7H,1-3H2/t4-,5+,7+/m1/s1
