21
gdb 99698	2.24089	0.95051	0.69686	2.7771	84.16	-0.2389	0.0531	0.292	1647.7999	0.179742	-424.203953	-424.192781	-424.191837	-424.241417	39.492	
C	 0.3694576422	 1.3830363675	 0.6932988395	-0.499957
C	 0.272990026	-0.0502873631	 0.4536835577	 0.088209
C	 0.2007634437	-1.2390228021	 0.2699453753	 0.049428
C	 0.04883951	-2.6696310388	 0.0188341185	-0.222301
C	-1.454385919	-3.0559181774	 0.0765285325	-0.06133
O	-1.670528243	-4.4471366945	 0.1101988224	-0.429032
C	 0.6982184511	-3.0642147153	-1.3365550076	 0.133552
C	 2.1889855201	-2.7517421018	-1.4040057179	-0.412555
O	 0.4620800451	-4.4476864902	-1.6417848486	-0.434975
H	 1.2905438613	 1.6369281104	 1.2295165042	 0.148377
H	 0.3676452222	 1.9456317036	-0.2468205381	 0.148104
H	-0.4730813617	 1.7422040002	 1.2945010729	 0.150629
H	 0.5556609948	-3.2384941501	 0.8134597354	 0.094609
H	-1.8868371536	-2.6427946428	 0.9923203164	 0.112072
H	-1.9687425413	-2.5751612497	-0.7723922436	 0.088641
H	-1.2136387853	-4.8003509775	-0.6657523376	 0.284367
H	 0.172123073	-2.519616069	-2.1289558615	 0.102722
H	 2.7329519046	-3.2938532195	-0.6194267564	 0.108805
H	 2.5931951316	-3.0534003513	-2.3740781765	 0.124867
H	 2.3704627834	-1.6848468402	-1.2578147146	 0.140039
H	 1.0458169649	-4.9734521985	-1.0819371223	 0.285728
27.7121	72.6713	84.8589	107.7584	184.4736	231.4371	240.1304	277.4214	305.5322	314.4117	351.9746	410.3426	416.4486	463.2238	518.2644	530.3559	644.6411	811.5838	842.9039	910.2713	970.6521	1025.9743	1053.3163	1054.2362	1063.229	1093.3949	1112.7505	1138.0644	1168.3053	1219.7674	1264.7746	1285.4139	1328.5645	1368.0714	1395.2755	1402.5366	1415.04	1420.3957	1467.3315	1478.4862	1478.9421	1491.6946	1494.3292	1507.0128	2364.6729	2965.3921	2992.1211	3025.2678	3027.1678	3054.1731	3084.183	3087.8102	3088.2644	3102.9078	3136.9919	3734.0318	3790.5664
CC#CC(CO)C(C)O	CC#C[C@@H](CO)[C@@H](C)O	
InChI=1S/C7H12O2/c1-3-4-7(5-8)6(2)9/h6-9H,5H2,1-2H3	InChI=1S/C7H12O2/c1-3-4-7(5-8)6(2)9/h6-9H,5H2,1-2H3/t6-,7+/m1/s1
