24
gdb 87216	2.74054	1.042	0.95806	1.1951	89.73	-0.2176	0.0856	0.3032	1413.6903	0.216099	-368.372995	-368.362833	-368.361888	-368.408259	38.342	
C	-0.5072184094	 1.1984013571	 0.085377249	-0.314885
N	-0.0779077025	-0.1781963792	 0.2713021484	-0.10022
C	 1.2701594713	-0.5445034459	-0.1525090466	-0.303787
C	 0.9101184674	-0.5327091166	 1.2987927634	 0.355925
C	 1.5259748311	 0.5282253451	 2.1944151692	-0.469757
C	 0.6133497811	-1.8626877109	 1.9836376277	-0.27543
C	-0.3537609216	-1.762458659	 3.1481965636	 0.029338
C	-1.8314427183	-1.6026154124	 2.8875012346	-0.251216
C	-1.2989818256	-2.8993991855	 3.4461025396	-0.280118
H	 0.2957994963	 1.9493700794	 0.1463763871	 0.096635
H	-0.9699212155	 1.2890096576	-0.9031363852	 0.121313
H	-1.2652975575	 1.4469666095	 0.835316863	 0.122577
H	 1.3638505477	-1.4802816625	-0.7000868408	 0.104584
H	 1.9254262037	 0.2510641842	-0.5080278961	 0.097437
H	 1.8344119109	 1.4166242492	 1.6401598907	 0.116975
H	 0.8276115054	 0.8430520572	 2.977270905	 0.124137
H	 2.4166324251	 0.1263021551	 2.6900101455	 0.119296
H	 0.1965869734	-2.5414007172	 1.2315790422	 0.095943
H	 1.558221053	-2.3080139947	 2.3262805065	 0.089362
H	 0.0326653848	-1.2401312995	 4.0194009428	 0.078087
H	-2.4080648918	-0.9604423554	 3.5445497954	 0.102497
H	-2.1497533149	-1.5846518178	 1.8515078415	 0.127052
H	-1.2736038195	-3.7632396359	 2.7894538258	 0.108255
H	-1.5090407945	-3.1387875519	 4.4828912077	 0.105999
60.6567	71.7869	137.6186	161.8735	185.9852	223.879	292.5229	317.4129	351.9031	373.2258	448.325	471.202	503.0228	710.4719	757.5171	777.7722	811.2234	839.8853	885.6089	901.2488	920.8491	957.033	983.6636	1010.2177	1053.1608	1060.6963	1074.3438	1081.433	1113.6022	1135.1929	1139.9636	1159.1832	1183.8948	1199.3803	1212.1339	1227.076	1261.6852	1304.8895	1331.7743	1385.5268	1411.7409	1424.0768	1450.9888	1468.2144	1474.0455	1485.4703	1488.6277	1502.9191	1508.1163	1510.6762	1515.9328	2976.7465	3008.2634	3036.2534	3061.5145	3067.1895	3076.2986	3091.5073	3096.4838	3127.0741	3127.7861	3134.9798	3140.3048	3158.8577	3207.3328	3226.0738
CN1CC1(C)CC1CC1	CN1C[C@]1(C)CC1CC1	
InChI=1S/C8H15N/c1-8(6-9(8)2)5-7-3-4-7/h7H,3-6H2,1-2H3	InChI=1S/C8H15N/c1-8(6-9(8)2)5-7-3-4-7/h7H,3-6H2,1-2H3/t8-,9?/m0/s1
