16
gdb 50982	1.67495	1.20693	0.75616	2.2969	68.42	-0.2581	-0.0568	0.2012	1432.9057	0.120266	-475.049376	-475.039596	-475.038652	-475.086288	32.254	
O	-0.3147463313	 1.0728825044	 1.2028680081	-0.214227
C	-0.0005841131	 1.4107112774	 0.0955113196	 0.153811
C	 1.3925433076	 1.9292854915	-0.2688475294	-0.276523
N	 1.3813236189	 2.8396684131	-1.394100455	-0.058396
C	 0.8466832462	 4.1785889445	-1.2106233005	-0.270986
C	 1.8118108201	 5.0958950151	-0.4664655772	 0.157126
O	 1.4624249704	 5.977616698	 0.2695670276	-0.221273
C	 1.8484950432	 2.4665574266	-2.6291324145	 0.15502
O	 1.8422502592	 3.1703308046	-3.6128816515	-0.324249
H	-0.7006466256	 1.3503947341	-0.7696283886	 0.095322
H	 1.8440160887	 2.3794988014	 0.622105372	 0.150561
H	 2.0010509817	 1.0543852388	-0.5334255618	 0.152606
H	 0.6961517868	 4.5971207833	-2.2131074891	 0.179701
H	-0.1136527416	 4.1655422424	-0.6855015552	 0.141122
H	 2.8858000408	 4.8894366282	-0.6792709925	 0.092905
H	 2.239659798	 1.4309459966	-2.6251112819	 0.087481
39.8305	61.761	71.9512	85.6396	132.846	233.2752	284.2381	308.3836	385.6703	420.4713	446.0679	533.4869	679.6633	727.0977	786.7969	926.1305	1024.0132	1034.1097	1045.709	1062.22	1079.2313	1202.3457	1218.3864	1304.4336	1330.8996	1344.8712	1403.7127	1410.432	1421.3587	1435.0466	1442.975	1459.7162	1801.2507	1843.6692	1848.2816	2874.3677	2877.4918	2949.7303	3029.5379	3042.2906	3081.6781	3099.4203
O=CCN(CC=O)C=O	O=CCN(CC=O)C=O	
InChI=1S/C5H7NO3/c7-3-1-6(5-9)2-4-8/h3-5H,1-2H2	InChI=1S/C5H7NO3/c7-3-1-6(5-9)2-4-8/h3-5H,1-2H2
