21
gdb 37962	2.47522	1.92919	1.38139	1.3176	80.63	-0.2389	0.0792	0.3181	1006.7426	0.186425	-387.064371	-387.057316	-387.056372	-387.095363	29.938	
C	 0.0379734542	 1.5994052562	-0.0679856458	-0.300161
C	 1.5657359394	 1.5269645255	-0.1230627861	-0.066278
C	 2.1209052611	 0.9177730888	 1.1373665975	-0.013872
C	 1.5471132449	 1.1071698769	 2.5419294757	-0.239293
C	 0.6468931296	-0.0374884961	 3.0349831027	-0.198261
C	-0.7251834444	-0.1214727455	 2.357894395	-0.068122
O	-0.7367398631	-0.6391136303	 1.0392291011	-0.259348
C	 0.0133749483	 0.0313848511	 0.0559129194	 0.14238
C	 1.544602415	 0.0036434149	 0.0883143307	-0.115623
H	-0.3808993874	 2.1760123197	 0.7610864045	 0.099475
H	-0.4299877714	 1.9431758393	-0.992173858	 0.103757
H	 2.1867842733	 2.0972286684	-0.802854315	 0.083685
H	 3.2081058408	 0.8895733128	 1.1164387314	 0.085402
H	 2.3843764931	 1.2160299589	 3.2402229054	 0.095514
H	 0.9902021588	 2.0514503651	 2.6047186906	 0.099044
H	 1.1616383145	-0.9985057465	 2.9163958124	 0.105195
H	 0.4651490512	 0.096509249	 4.1096420298	 0.090904
H	-1.367401566	-0.8049406646	 2.9229358205	 0.103274
H	-1.2069373355	 0.8697123098	 2.3876808855	 0.085108
H	-0.3380275508	-0.3955861809	-0.8871602878	 0.088825
H	 2.1477012745	-0.7607395125	-0.3885770894	 0.078397
183.5653	212.7347	278.9015	353.0167	378.4625	425.6239	474.5289	538.1892	617.1773	713.0562	733.801	792.9462	808.6777	825.9012	874.7302	908.1065	956.1454	958.3008	975.8578	999.0416	1026.3539	1029.2235	1069.3013	1076.2678	1094.6005	1112.8905	1133.0386	1191.9311	1196.2572	1227.6704	1236.4358	1265.9565	1274.053	1303.8302	1317.5993	1349.9596	1375.6848	1383.1473	1396.4601	1423.3897	1434.3107	1471.7232	1482.2245	1495.9403	1510.4875	2971.3669	3016.5592	3021.0958	3056.8005	3065.0242	3067.2588	3070.9002	3071.7857	3115.7453	3129.8686	3169.2486	3187.7595
C1C2C3CCCOC1C23	C1[C@H]2[C@H]3CCCO[C@@H]1[C@@H]23	
InChI=1S/C8H12O/c1-2-5-6-4-7(8(5)6)9-3-1/h5-8H,1-4H2	InChI=1S/C8H12O/c1-2-5-6-4-7(8(5)6)9-3-1/h5-8H,1-4H2/t5-,6+,7+,8-/m1/s1
