16
gdb 77339	2.95146	1.28232	0.93277	4.2051	69.36	-0.2746	-0.0508	0.2238	1183.8389	0.124244	-437.928795	-437.92047	-437.919526	-437.962096	30.636	
O	 0.2915650962	 1.2339707237	 0.4711818213	-0.435898
C	 0.0749892462	-0.0815841821	 0.0716118587	 0.061896
C	-1.4066527039	-0.5108923243	-0.0136678561	-0.178453
C	-1.3457301524	-1.7840089881	-0.9116291813	-0.236426
C	-0.2727351311	-1.4619705354	-1.9728257566	-0.340683
C	 0.5623798137	-0.3472517809	-1.3558254974	 0.364666
O	 1.4149377233	 0.3228687101	-1.8804243279	-0.317634
C	-2.0417587515	-0.7451814425	 1.2766705072	 0.27489
N	-2.5445624499	-0.9576050754	 2.2952643887	-0.317503
H	 0.9674122049	 1.5854980934	-0.1289550092	 0.298485
H	 0.5953605268	-0.7980159064	 0.7346773006	 0.113647
H	-1.9540970727	 0.2881075437	-0.5288189576	 0.138888
H	-1.0445753231	-2.6382771163	-0.2991532787	 0.136864
H	-2.3203779517	-2.0182943843	-1.3412204221	 0.135385
H	 0.3512814439	-2.3183905376	-2.2425287604	 0.14999
H	-0.7038868887	-1.0811517977	-2.9050443493	 0.151885
73.2537	122.351	137.9104	235.6887	271.3035	348.7396	385.3364	451.1481	488.0928	551.0063	563.8344	588.3513	627.4843	745.0507	855.3645	892.7156	977.599	991.4283	1033.9882	1046.793	1108.6129	1159.7116	1178.2343	1213.4771	1254.7238	1271.1841	1293.657	1315.3213	1343.4675	1377.2821	1418.4828	1446.9735	1500.7263	1845.6998	2362.0403	2936.4924	3044.3902	3059.1854	3074.8204	3103.8234	3131.6468	3709.2777
OC1C(CCC1=O)C#N	O[C@H]1[C@@H](CCC1=O)C#N	
InChI=1S/C6H7NO2/c7-3-4-1-2-5(8)6(4)9/h4,6,9H,1-2H2	InChI=1S/C6H7NO2/c7-3-4-1-2-5(8)6(4)9/h4,6,9H,1-2H2/t4-,6-/m0/s1
