15
gdb 128227	2.70174	1.52331	0.98011	4.7635	77.98	-0.2338	-0.0651	0.1686	1136.6296	0.111913	-450.095186	-450.086631	-450.085687	-450.128689	30.593	
C	 0.0778202123	 1.3869551701	-0.0625938803	-0.33326
N	-0.091071602	-0.0474676509	-0.0844511747	-0.328104
C	-1.2628743216	-0.6758366937	 0.0193673517	 0.287661
C	-2.4852312459	-0.0731581721	 0.1600499917	-0.142063
N	-3.6141199914	-0.8437818464	 0.254495244	-0.020214
N	-3.7306956964	-2.0362973106	 0.2346722169	-0.029942
O	-2.2998876281	-2.8495316308	 0.0677641294	-0.325259
C	-1.1740693608	-2.1693346983	-0.0279416046	 0.395889
N	-0.0029575365	-2.6704004582	-0.1595219706	-0.572424
H	 1.1371939776	 1.6209584652	-0.1720605456	 0.147994
H	-0.4702786431	 1.8651356297	-0.8839762374	 0.144329
H	-0.2773616413	 1.8165750548	 0.8825027572	 0.144164
H	 0.697150447	-0.6785282038	-0.1786418747	 0.279781
H	-2.644013271	 0.9929861409	 0.2047658791	 0.123135
H	-0.0425184387	-3.6884999259	-0.1819754722	 0.228313
95.0793	122.8165	132.27	198.2318	205.168	207.7429	406.2947	470.3423	497.6191	558.6195	605.4227	621.4197	631.1672	785.0264	785.9975	802.0767	851.4885	851.5112	1054.3945	1134.2964	1147.0674	1154.1342	1198.8338	1263.2171	1370.1087	1406.3581	1460.3708	1482.6852	1511.7927	1555.3464	1622.1856	1677.6503	1738.1633	3015.5676	3064.8106	3143.9944	3247.9612	3503.959	3542.8362
CNC1=CN=NOC1=N	CNC1=C(O[N]N=C1)[NH]	
InChI=1S/C4H6N4O/c1-6-3-2-7-8-9-4(3)5/h2,5-6H,1H3	InChI=1S/C4H6N4O/c1-6-3-2-7-8-9-4(3)5/h2,5-6H,1H3
