16
gdb 125073	3.0775	1.26282	0.90053	6.0226	75.09	-0.2121	0.0088	0.2208	1228.4491	0.125699	-434.11549	-434.106862	-434.105917	-434.149959	30.482	
C	-0.0236417876	 1.5128731244	 0.0630475967	-0.519983
C	-0.0182008132	 0.0222049505	-0.0199229921	 0.268068
C	 0.0025450524	-0.8431965437	-1.1026963135	 0.205215
N	 0.0373141474	-0.4540982116	-2.4493737452	-0.415392
C	 0.0957995708	-1.2923509649	-3.5257694894	 0.140807
O	 0.1238944139	-2.5022308156	-3.4779469384	-0.30813
C	-0.0189995408	-2.1466705856	-0.5506145879	-0.06823
N	-0.0526516262	-2.1002184935	 0.7779521625	-0.222343
N	-0.0537106092	-0.7895184406	 1.0715285331	-0.244554
H	 0.6849557855	 1.9529773158	-0.6473940977	 0.137056
H	-1.0120861061	 1.9393401125	-0.1478187374	 0.144591
H	 0.2731907022	 1.8515537877	 1.060250068	 0.136765
H	 0.0130727922	 0.5344144718	-2.6460918709	 0.249302
H	 0.1134676467	-0.7203737473	-4.4740697346	 0.077019
H	-0.0069497006	-3.0835543495	-1.0795795074	 0.148918
H	-0.0723391872	-0.5043631803	 2.0361042244	 0.270891
40.8267	62.3883	165.0982	200.0873	233.9374	248.316	390.8001	418.5245	479.9792	530.4832	603.8065	676.2074	690.6325	702.0315	872.2805	898.2463	954.85	998.4221	1010.5495	1055.9457	1129.9022	1148.1324	1177.8598	1255.4383	1311.8937	1399.2053	1417.7289	1435.1985	1439.0869	1481.2297	1486.6773	1522.0098	1542.2995	1652.5819	1805.0252	2941.241	3021.8445	3074.7103	3103.8864	3300.7313	3625.0674	3670.2652
CC1=C(NC=O)C=NN1	Cc1c(NC=O)cn[nH]1	
InChI=1S/C5H7N3O/c1-4-5(6-3-9)2-7-8-4/h2-3H,1H3,(H,6,9)(H,7,8)	InChI=1S/C5H7N3O/c1-4-5(6-3-9)2-7-8-4/h2-3H,1H3,(H,6,9)(H,7,8)
