21
gdb 96596	2.40194	1.54505	1.08876	1.36	75.7	-0.2316	0.0911	0.3227	1174.7126	0.183193	-461.351595	-461.342929	-461.341985	-461.384598	33.531	
C	 0.1043645913	 1.5691788684	 0.0277020017	-0.393213
C	-0.0375031672	 0.0572368863	 0.020290376	 0.228034
O	 0.530692105	-0.3903654759	-1.2011051586	-0.266865
C	 0.9987527117	-1.7232581444	-1.2523406715	-0.088304
C	-0.0848563779	-2.7964616687	-1.1599058409	-0.081537
O	-0.8668467235	-2.7650936342	 0.0237222937	-0.244255
C	-0.1514421581	-2.8215424896	 1.2459872002	-0.090871
C	-0.0724027484	-1.4428995553	 1.9010205616	-0.076092
O	 0.6367033232	-0.4748518529	 1.14478984	-0.260085
H	 1.163935098	 1.8340943795	 0.0706554409	 0.129158
H	-0.3296903186	 1.991845464	-0.8817288084	 0.123721
H	-0.4050430109	 1.9912249722	 0.8979518391	 0.112975
H	-1.0930039243	-0.2447176522	 0.0650060886	 0.077043
H	 1.4889372621	-1.8250384043	-2.2269851689	 0.10608
H	 1.7622634693	-1.8842149738	-0.4819098422	 0.104982
H	-0.8030231561	-2.6727114594	-1.9763859983	 0.115697
H	 0.4007833657	-3.7811780357	-1.2776590589	 0.087098
H	-0.6978206721	-3.4942227686	 1.9210424446	 0.104069
H	 0.8536746347	-3.2408848456	 1.1039418141	 0.101201
H	-1.0945621629	-1.0907677627	 2.1035091697	 0.104355
H	 0.4507774291	-1.5254009071	 2.8603879277	 0.106809
99.9587	156.8604	214.528	225.95	249.3364	308.3226	340.0708	363.859	405.5006	490.2857	535.5729	569.8315	578.2205	795.2562	834.0522	842.4781	897.1322	917.7398	929.4548	1023.0578	1062.1852	1097.9643	1106.901	1109.4444	1155.9142	1164.6758	1172.6356	1183.401	1275.734	1305.9625	1314.1353	1319.1975	1370.0992	1387.3574	1402.4905	1407.9292	1412.8831	1419.9125	1433.6419	1478.7506	1480.9064	1484.6345	1485.3386	1494.6576	1500.8494	2956.5326	2996.8926	3004.4272	3009.9525	3036.1519	3050.8188	3051.1482	3072.1216	3073.2828	3089.9292	3130.656	3135.3537
CC1OCCOCCO1	CC1OCCOCCO1	
InChI=1S/C6H12O3/c1-6-8-4-2-7-3-5-9-6/h6H,2-5H2,1H3	InChI=1S/C6H12O3/c1-6-8-4-2-7-3-5-9-6/h6H,2-5H2,1H3
