12
gdb 128867	9.39919	0.68044	0.63451	7.6552	86.37	-0.2566	-0.0598	0.1967	1598.3675	0.080276	-394.539946	-394.532694	-394.53175	-394.572437	25.993	
N	 0.0203790044	-3.695060145	-0.0180367603	-0.336656
C	 0.0109996184	-2.5325017084	-0.0115095364	 0.163488
C	 0.0039693327	-1.1698763318	-0.0039110325	 0.271229
C	-0.0049506325	 0.0406299343	 0.0029063255	-0.042957
C	 0.0300685649	 1.4513396542	 0.0103156723	 0.148594
N	-1.1008464199	 2.1765948104	 0.029164094	-0.269894
N	-0.672822886	 3.4407886507	 0.0305616157	-0.184561
C	 0.6797645745	 3.5636739293	 0.0135087273	-0.020677
C	 1.1809579423	 2.284507322	-0.0001612903	-0.299423
H	-1.3572202621	 4.1795099979	 0.0436158778	 0.289367
H	 1.1632029561	 4.527276737	 0.0125123395	 0.150953
H	 2.2129298474	 1.9777252994	-0.0154139827	 0.130537
77.4729	86.3857	227.9719	231.0307	432.1171	472.6854	511.2531	571.8737	586.6246	588.0946	667.4665	732.0832	779.2138	863.3575	924.7563	948.9928	1041.2503	1086.8389	1121.6763	1217.7312	1319.4436	1370.9805	1468.8726	1484.3392	1555.1746	2262.708	2385.1518	3268.3628	3290.3291	3662.7207
N#CC#CC1=NNC=C1	N#CC#Cc1n[nH]cc1	
InChI=1S/C6H3N3/c7-4-1-2-6-3-5-8-9-6/h3,5H,(H,8,9)	InChI=1S/C6H3N3/c7-4-1-2-6-3-5-8-9-6/h3,5H,(H,8,9)
