21
gdb 73873	2.28307	1.54464	0.99451	2.0057	81.6	-0.2321	0.0111	0.2431	1239.7667	0.182528	-424.224824	-424.215643	-424.214699	-424.25861	34.482	
C	 0.1071791794	 1.5461092028	 0.0906385232	-0.492991
C	-0.00884556	 0.0493738475	-0.0418546992	 0.215487
C	-1.152602981	-0.6500438507	-0.0108029366	 0.215466
C	-2.5317416759	-0.0675750139	 0.1622205494	-0.492992
C	-1.1475510086	-2.1692376996	-0.1504461756	-0.181405
O	-0.5452259441	-2.6722433005	-1.3357875318	-0.223091
C	 0.8522444242	-2.7006528437	-1.306943192	 0.014503
O	 1.4614372517	-1.4450568829	-1.3904188245	-0.223097
C	 1.3349317571	-0.6511151068	-0.2180548865	-0.181405
H	 0.7917041854	 1.8092912726	 0.9080928511	 0.124575
H	 0.5372979557	 1.9791963036	-0.8219694778	 0.133749
H	-0.8422553153	 2.0457727595	 0.283137292	 0.122718
H	-3.1490031533	-0.2756174085	-0.7215864016	 0.133742
H	-3.0446975432	-0.5360623488	 1.0127878134	 0.124576
H	-2.5367714267	 1.0097453216	 0.3280777284	 0.122719
H	-0.6605571989	-2.6248601564	 0.7301076538	 0.094656
H	-2.1775542487	-2.5362094061	-0.1721349349	 0.107658
H	 1.1945694093	-3.2195853971	-0.3901436382	 0.069425
H	 1.1674292168	-3.2554895726	-2.193651679	 0.113389
H	 2.1290213787	 0.0974596531	-0.2895250885	 0.107661
H	 1.5538234475	-1.270719833	 0.6698204049	 0.094656
95.3869	111.2882	158.9915	173.3232	260.3233	271.5698	320.1798	352.064	409.4549	444.3414	460.193	500.3877	609.2797	661.9522	722.1834	906.4834	936.2818	936.6897	966.9627	996.3705	1012.4285	1055.994	1070.7563	1076.417	1125.6401	1160.3351	1171.3782	1206.4043	1260.7365	1282.4743	1316.97	1348.9011	1400.7509	1402.9513	1412.0803	1421.3962	1448.286	1478.9706	1481.9181	1482.2129	1486.4767	1487.6412	1499.7343	1502.6891	1737.824	2910.7566	2944.688	2948.6866	3013.9736	3016.4344	3056.0836	3056.5096	3081.1853	3082.6542	3105.5058	3131.7238	3147.0538
CC1=C(C)COCOC1	CC1=C(C)COCOC1	
InChI=1S/C7H12O2/c1-6-3-8-5-9-4-7(6)2/h3-5H2,1-2H3	InChI=1S/C7H12O2/c1-6-3-8-5-9-4-7(6)2/h3-5H2,1-2H3
