19
gdb 91171	2.6927	1.76176	1.75271	1.2055	78.56	-0.2262	-0.0057	0.2205	927.424	0.161247	-385.891734	-385.884632	-385.883688	-385.922626	30.019	
C	-0.0952719287	 1.5336390986	-0.0186240908	-0.405218
C	 0.054574119	 0.016493234	 0.0130898228	 0.171499
O	 0.7344767339	-0.4146378802	-1.1607189111	-0.293794
C	 1.877932319	-1.2814726241	-0.8617180565	 0.014595
C	 2.8303344685	-0.4599187795	-0.0140429312	-0.066007
C	 2.2620410408	-0.0456280635	 1.1172532718	-0.076635
C	 0.8346647627	-0.532582515	 1.278233814	-0.144368
C	 0.786698316	-2.0403101047	 1.0937264837	-0.085563
C	 1.3526842773	-2.4454760401	-0.0411075096	-0.068808
H	 0.8818443695	 2.0224735949	 0.0078720628	 0.122207
H	-0.6029615748	 1.8359895278	-0.9390498445	 0.123921
H	-0.6922741493	 1.8809746993	 0.8317365222	 0.104448
H	-0.942479436	-0.4469041967	 0.0238473457	 0.070929
H	 2.2828721087	-1.5692859223	-1.8307707106	 0.073259
H	 3.8253436588	-0.2028017893	-0.3558222561	 0.099026
H	 2.7186821662	 0.6200829191	 1.8396010106	 0.09741
H	 0.3574034741	-0.193613388	 2.1979581759	 0.065849
H	 0.2714370262	-2.6778375123	 1.8021607638	 0.096993
H	 1.3946459479	-3.4657138579	-0.4016000729	 0.100257
156.5306	234.6584	284.0057	387.4738	400.9972	435.5028	469.4499	509.171	651.8361	676.1757	692.9487	704.5542	709.9174	800.8194	826.6563	913.3676	918.7377	935.0867	940.9343	953.943	960.3104	1003.4839	1019.7552	1076.9416	1091.2369	1110.9196	1131.2502	1157.7322	1247.8854	1271.8782	1297.6865	1317.4931	1336.9397	1357.4297	1380.7735	1383.7022	1401.7194	1484.4289	1497.0073	1649.52	1692.0594	2990.2517	3037.6177	3106.7684	3110.4024	3125.5916	3126.0768	3189.1112	3190.8877	3213.3245	3216.4296
CC1OC2C=CC1C=C2	C[C@H]1O[C@H]2C=C[C@@H]1C=C2	
InChI=1S/C8H10O/c1-6-7-2-4-8(9-6)5-3-7/h2-8H,1H3	InChI=1S/C8H10O/c1-6-7-2-4-8(9-6)5-3-7/h2-8H,1H3/t6-,7-,8+/m1/s1
