17
gdb 20074	5.45025	1.36745	1.16502	1.3144	64.89	-0.2488	0.0803	0.3291	1028.712	0.14356	-400.964362	-400.956902	-400.955957	-400.997236	26.695	
C	 0.1075689178	 1.5633819459	 0.1141991217	-0.235685
N	 1.1451745554	 0.5770505487	-0.221849349	-0.313298
C	-0.2371317053	 0.1271506341	-0.0078030606	-0.032687
C	-0.4645805772	-0.7178438848	 1.2128535278	 0.237119
O	-1.7938005405	-0.5462870803	 1.6935169246	-0.274334
C	-2.2983994334	-1.8229932662	 2.0739908535	-0.0855
C	-1.1044068534	-2.7683959432	 1.8610644872	-0.107398
O	-0.3292615735	-2.0824213088	 0.8918611936	-0.25269
H	 0.2094731984	 2.0146723174	 1.0972930902	 0.124089
H	-0.2578094775	 2.2360283811	-0.6567269634	 0.114597
H	 1.3525960355	 0.60180432	-1.2159139187	 0.236527
H	-0.8281767422	-0.1835642605	-0.8661217706	 0.09015
H	 0.2541315566	-0.4363362304	 2.0036180851	 0.068372
H	-2.6381697662	-1.8007572314	 3.1156124299	 0.105583
H	-3.1486614213	-2.0848180189	 1.4319199581	 0.106063
H	-0.5347710456	-2.9069805966	 2.7925690756	 0.100865
H	-1.3771089677	-3.7473113262	 1.4615482151	 0.118228
48.1532	78.9121	164.5977	195.6361	321.2721	413.4803	462.1332	680.5674	741.1945	862.3253	873.9213	893.0352	898.2839	933.4699	952.6107	991.66	1010.1845	1038.2862	1066.	1117.0873	1128.7405	1151.4855	1164.4091	1224.0401	1230.6028	1247.4215	1256.8197	1282.3968	1327.7168	1354.7933	1378.7038	1386.8796	1477.512	1513.1574	1520.1649	1531.1112	2944.1521	2990.9691	3020.6344	3063.2137	3110.8535	3111.8805	3141.7793	3196.2807	3517.1703
C1NC1C1OCCO1	C1N[C@H]1C1OCCO1	
InChI=1S/C5H9NO2/c1-2-8-5(7-1)4-3-6-4/h4-6H,1-3H2	InChI=1S/C5H9NO2/c1-2-8-5(7-1)4-3-6-4/h4-6H,1-3H2/t4-/m1/s1
