17
gdb 14247	3.92347	1.69883	1.52294	2.4845	68.05	-0.227	-0.0273	0.1997	888.7384	0.141994	-363.834146	-363.826843	-363.825898	-363.866043	27.765	
C	 0.312871269	 1.5741991119	-0.1258073891	-0.414728
C	 0.0693389171	 0.0784051375	-0.0295932692	 0.081585
C	 0.8785703806	-0.8704040833	-0.960426269	-0.287581
C	 1.2850664017	-1.6430833636	 0.321330621	-0.094478
N	 0.5386236607	-0.658803743	 1.2078792453	-0.150616
C	 1.8209129185	-0.1768109142	 1.8105645032	-0.309297
C	 2.6050143094	-1.2010413919	 0.9670946681	 0.389853
O	 3.748973032	-1.5313366569	 0.8726755934	-0.285024
H	 1.3763767866	 1.8288635547	-0.1716236621	 0.121417
H	-0.1535868467	 1.9631264085	-1.0370853522	 0.125305
H	-0.1312507495	 2.0986123148	 0.7272825895	 0.130034
H	-1.0067574698	-0.1042344804	-0.1194299234	 0.089504
H	 0.2915651618	-1.4459980437	-1.6781129943	 0.116735
H	 1.7124926752	-0.4017340329	-1.4903470077	 0.117052
H	 1.0290149673	-2.7041799541	 0.3818147604	 0.102033
H	 2.0809614979	 0.8731993982	 1.6470422961	 0.129421
H	 1.8656030482	-0.3745902617	 2.8876705702	 0.138784
47.8501	170.2819	230.7525	297.4963	349.6078	409.736	480.9356	511.049	601.1215	712.7437	754.6403	793.5664	862.9313	891.8942	936.1793	943.8406	964.5376	997.168	1066.1304	1105.7345	1117.7575	1130.0984	1171.139	1186.4396	1198.4668	1251.6655	1255.6748	1282.8934	1306.6372	1380.6392	1407.7253	1453.9104	1486.8729	1492.5261	1500.9001	1900.3411	3031.8614	3036.9466	3043.2666	3062.7152	3076.8233	3094.9427	3101.9278	3105.6491	3122.0388
CC1CC2N1CC2=O	C[C@H]1C[C@@H]2N1CC2=O	
InChI=1S/C6H9NO/c1-4-2-5-6(8)3-7(4)5/h4-5H,2-3H2,1H3	InChI=1S/C6H9NO/c1-4-2-5-6(8)3-7(4)5/h4-5H,2-3H2,1H3/t4-,5-/m0/s1
