14
gdb 124134	5.96321	0.85725	0.75303	3.4996	85.16	-0.2362	-0.0747	0.1615	1451.2631	0.101211	-395.715416	-395.70731	-395.706366	-395.750045	27.869	
C	-0.0225725354	 1.457639157	 0.0105801736	-0.50822
C	-0.0021289584	 0.0050092153	 0.0027620524	 0.25107
C	-0.0025173464	-1.2010106472	-0.0036411557	-0.067557
C	 0.0322001181	-2.6213157704	-0.0116571633	 0.159655
C	 1.2526089644	-3.3241424319	-0.0225085181	-0.049878
N	 1.2817401406	-4.6448114297	-0.0297984813	-0.224215
C	 0.0772724313	-5.2292163213	-0.0259318077	 0.098074
N	-1.1057712253	-4.6165908259	-0.0157613217	-0.174869
N	-1.1352907076	-3.2908478472	-0.008452082	-0.242231
H	 0.9918905795	 1.8694938164	 0.0030391577	 0.157932
H	-0.5515895246	 1.8453544999	-0.8667908694	 0.16362
H	-0.5346208731	 1.836052342	 0.9019736792	 0.163601
H	 2.1994124655	-2.7900645523	-0.0250791612	 0.134859
H	 0.0470751014	-6.3144953449	-0.0316740425	 0.138158
20.008	89.4542	90.4528	220.1378	309.3996	375.9791	387.487	429.9368	532.3539	578.3044	646.1891	784.2854	796.9763	946.8384	994.1109	1007.0811	1046.0723	1052.6689	1059.5189	1103.031	1157.3329	1216.1521	1323.1458	1403.2627	1411.7437	1437.4959	1471.9738	1472.0907	1525.7521	1597.4014	2358.1646	3031.8748	3094.9277	3099.3107	3165.8108	3189.9541
CC#CC1=CN=CN=N1	CC#Cc1cncnn1	
InChI=1S/C6H5N3/c1-2-3-6-4-7-5-8-9-6/h4-5H,1H3	InChI=1S/C6H5N3/c1-2-3-6-4-7-5-8-9-6/h4-5H,1H3
