17
gdb 124514	3.58151	1.12336	1.0521	5.3196	75.88	-0.2533	-0.0857	0.1677	1202.2515	0.134591	-414.143159	-414.134513	-414.133569	-414.177395	30.958	
C	-0.0323469806	 1.5916290546	 0.2135058533	-0.400956
C	-0.0293517447	 0.0644261749	 0.0149238989	-0.069489
C	 0.8687286521	-0.639323143	 1.0493223475	-0.400956
C	-1.4319747161	-0.4908785591	 0.0448504548	 0.3738
C	-2.2803899534	-0.4176183433	 1.1550292966	-0.004812
N	-3.4999037787	-0.9238481865	 1.1185390451	-0.164744
N	-3.9066277625	-1.5110549752	-0.0103107362	-0.057491
N	-3.1236757803	-1.5872081304	-1.0576174253	-0.06147
N	-1.8884078768	-1.0867432831	-1.0535043339	-0.242702
H	 0.98709368	 1.9798304801	 0.131747154	 0.130631
H	-0.6478327861	 2.0909348886	-0.5401744458	 0.13508
H	-0.4134546617	 1.8688187228	 1.2024045286	 0.122039
H	 0.3507262951	-0.1575826045	-0.9874134434	 0.113367
H	 0.8917062581	-1.7207899038	 0.8878765531	 0.13508
H	 1.8925603852	-0.2619949544	 0.9716300254	 0.130631
H	 0.5251997061	-0.4551562091	 2.0730744116	 0.122039
H	-1.9822136758	 0.0524692715	 2.0883192257	 0.139956
30.7326	98.5772	198.8856	217.1392	244.0032	255.0348	302.9303	317.4207	470.0906	574.2442	582.1788	679.877	806.0515	849.6538	867.3496	920.5138	935.2029	968.8794	972.5911	1069.3802	1084.5469	1094.6011	1114.3894	1169.6419	1209.6886	1311.222	1336.4749	1347.9823	1379.9622	1399.7448	1422.8117	1485.467	1490.5091	1501.1114	1507.9742	1525.	1586.1115	3035.0954	3037.5346	3061.0842	3103.2486	3110.1906	3116.9232	3118.715	3167.874
CC(C)C1=CN=NN=N1	CC(C)c1cnnnn1	
InChI=1S/C5H8N4/c1-4(2)5-3-6-8-9-7-5/h3-4H,1-2H3	InChI=1S/C5H8N4/c1-4(2)5-3-6-8-9-7-5/h3-4H,1-2H3
