16
gdb 46278	3.21192	1.47819	1.2267	2.5853	67.61	-0.247	-0.0046	0.2424	1013.3027	0.125379	-437.853911	-437.846712	-437.845768	-437.88585	27.364	
O	-0.0720449252	 0.0779315694	-0.3585735614	-0.330855
C	-0.0216188252	 1.225375644	-0.0511310718	 0.424378
O	-1.0201249394	 2.0066157148	 0.4760574703	-0.246091
C	-0.1376075354	 3.175215266	 0.5448863159	-0.150818
C	 1.0167766695	 2.3488824334	-0.0411233305	 0.120573
C	 2.4002813825	 2.243189434	 0.6490110974	-0.239496
N	 3.1263715959	 2.7306617974	-0.5765728912	-0.124225
C	 2.8046817319	 1.7510953807	-1.6305793561	-0.239357
C	 1.7865139995	 2.7641337743	-1.2892308619	-0.106179
H	-0.5203235253	 3.985073239	-0.0805803221	 0.131127
H	-0.0174925337	 3.5092857238	 1.5780864629	 0.129172
H	 2.5179190541	 2.9573674862	 1.4668459881	 0.124264
H	 2.7073496297	 1.2473284477	 0.9826158398	 0.128163
H	 3.3749585152	 1.9093616296	-2.5401368467	 0.130853
H	 2.637389114	 0.7104017299	-1.3641163652	 0.14127
H	 1.5008147819	 3.5741213599	-1.9528398172	 0.107219
113.0047	126.5286	168.3892	321.9902	330.6942	442.4243	465.5942	619.053	712.7433	750.9775	781.1106	795.7158	842.3885	895.0842	916.2745	959.2389	964.0138	993.6022	1052.6916	1095.5942	1114.0796	1115.5225	1148.839	1161.5771	1177.9451	1207.5038	1212.8146	1249.9451	1288.5659	1353.8374	1371.4647	1485.0452	1504.9153	1513.996	1930.9793	3054.3878	3065.3476	3115.3764	3116.7974	3126.3949	3162.3315	3210.4034
O=C1OCC11CN2CC12	O=C1OC[C@]21CN1C[C@@H]21	
InChI=1S/C6H7NO2/c8-5-6(3-9-5)2-7-1-4(6)7/h4H,1-3H2	InChI=1S/C6H7NO2/c8-5-6(3-9-5)2-7-1-4(6)7/h4H,1-3H2/t4-,6+,7?/m0/s1
