15
gdb 56491	2.13838	1.41398	0.88396	6.0411	75.61	-0.3054	-0.0119	0.2935	1243.168	0.11028	-379.657563	-379.648032	-379.647087	-379.692281	33.453	
C	-0.0353819785	 1.560302074	-0.0340731062	-0.408594
C	 0.0119563504	 0.0224148066	-0.0266468168	-0.144153
C	 0.7009281768	-0.4729769853	-1.2217651465	 0.279802
N	 1.256201175	-0.8315651086	-2.1691931977	-0.306276
C	 0.7168569459	-0.53313887	 1.2636958122	-0.326251
C	 0.0640739701	-0.0555484128	 2.4825081872	 0.315949
C	-0.4787935553	 0.3397124213	 3.4770165124	-0.402651
C	 0.7544518655	-2.0046322682	 1.2500938149	 0.30325
N	 0.7752213335	-3.1587864955	 1.2370604393	-0.305808
H	 0.9742727339	 1.980508701	-0.0230890436	 0.143443
H	-0.5420049602	 1.9139702467	-0.9343684037	 0.149944
H	-0.5774801999	 1.9197590909	 0.8421928799	 0.150277
H	-1.0086807162	-0.3747618252	-0.0362493912	 0.157619
H	 1.756085922	-0.1780516225	 1.2481907041	 0.174417
H	-0.9520660529	 0.6813955976	 4.3652685859	 0.219031
54.497	112.2163	135.828	171.425	202.0572	216.0029	267.5705	328.8074	361.7952	474.9746	489.1174	543.2447	579.4118	591.8293	660.1393	679.2485	838.8614	873.3422	970.5095	1023.0079	1058.7018	1096.0135	1135.4983	1246.1506	1308.386	1326.7552	1345.0772	1413.5096	1494.376	1495.533	2248.6901	2363.2092	2370.3122	3026.9503	3056.2737	3066.4619	3133.5787	3149.2621	3498.4863
CC(C#N)C(C#C)C#N	C[C@@H](C#N)[C@@H](C#C)C#N	
InChI=1S/C7H6N2/c1-3-7(5-9)6(2)4-8/h1,6-7H,2H3	InChI=1S/C7H6N2/c1-3-7(5-9)6(2)4-8/h1,6-7H,2H3/t6-,7-/m0/s1
