19
gdb 82168	2.77886	1.64738	1.28488	2.329	73.47	-0.248	0.0686	0.3165	1035.5409	0.159457	-423.004383	-422.996385	-422.99544	-423.036445	32.022	
C	-0.0850752324	 1.5196119709	 0.0474557163	-0.496127
C	 0.1663893672	 0.040790834	-0.038516977	 0.414848
O	-0.5047556876	-0.7773251593	 0.9480603442	-0.309742
C	 0.9357310814	-0.7475752152	 0.9346470493	-0.072855
C	 1.5285375377	-1.9852653598	 0.2605321286	 0.106187
O	 1.1986749676	-3.1856445255	 0.9349943495	-0.436809
C	 1.0706885976	-1.9025239903	-1.2065757277	-0.071302
C	-0.3984988283	-1.9775162299	-1.540809282	-0.298591
C	 0.2705641081	-0.6325972893	-1.4015723252	-0.105571
H	 0.6863348806	 2.0737995874	-0.4977584597	 0.125364
H	-1.0551391136	 1.772533717	-0.3939174323	 0.132284
H	-0.0853132402	 1.8512826203	 1.0885224682	 0.13192
H	 1.3966327202	-0.3370680986	 1.8308588739	 0.094619
H	 2.6220905502	-1.9237971912	 0.2954303231	 0.088039
H	 0.2406430971	-3.1800805339	 1.0473512837	 0.289073
H	 1.7695685658	-2.2435347954	-1.9616764304	 0.088551
H	-0.6480857917	-2.3066984619	-2.5437098812	 0.109738
H	-1.1104583236	-2.2635226731	-0.7772238861	 0.126781
H	 0.3958778637	 0.0062702137	-2.2681074252	 0.083593
119.1059	197.9044	199.0419	244.802	306.1188	367.9927	377.0708	478.2108	514.3631	565.6098	587.9458	695.4187	756.7697	778.8999	797.7966	839.6369	878.9562	939.0013	958.4183	1001.7207	1019.5604	1043.6773	1064.4907	1088.4039	1099.8135	1102.2775	1109.7809	1114.8407	1201.3986	1219.2269	1273.1895	1279.0914	1319.0893	1347.6743	1381.9166	1411.0732	1430.5779	1452.5714	1477.6465	1486.5075	1498.7259	3036.4615	3052.8117	3099.0199	3125.6337	3134.7996	3141.7	3170.0159	3179.751	3233.3854	3793.8531
CC12OC1C(O)C1CC21	C[C@]12O[C@H]1[C@@H](O)[C@H]1C[C@@H]21	
InChI=1S/C7H10O2/c1-7-4-2-3(4)5(8)6(7)9-7/h3-6,8H,2H2,1H3	InChI=1S/C7H10O2/c1-7-4-2-3(4)5(8)6(7)9-7/h3-6,8H,2H2,1H3/t3-,4+,5-,6-,7+/m0/s1
