19
gdb 64305	2.38357	1.56267	1.18355	3.4568	79.53	-0.2535	-0.0648	0.1888	1106.7049	0.158385	-423.062316	-423.053523	-423.052579	-423.09545	33.637	
C	 0.3474172191	 1.5353395964	-0.1884411698	-0.441495
C	-0.0381170879	 0.0622453259	 0.0225909199	 0.302647
O	-1.4460614644	-0.0595602064	 0.1769672959	-0.482537
C	 0.4143306901	-0.8498783408	-1.1470933724	-0.255449
C	 1.7308215606	-1.5230245094	-0.6831420661	-0.267684
C	 1.6764646093	-1.3904872178	 0.8142957534	-0.162097
C	 0.7162463609	-0.5422260929	 1.2051267927	 0.214913
C	 0.3852233121	-0.2176298296	 2.5887453869	 0.071726
O	-0.5385726483	 0.5086705703	 2.907780386	-0.296862
H	 1.4169678708	 1.6444577671	-0.3990899438	 0.107426
H	-0.2191497653	 1.9398032184	-1.0323477368	 0.124037
H	 0.1125741274	 2.1260655041	 0.7018629172	 0.12904
H	-1.6622214096	 0.3727599738	 1.0148439498	 0.289625
H	-0.3640220601	-1.6046503022	-1.2849065104	 0.124396
H	 0.5234515123	-0.3029124556	-2.0863898414	 0.10265
H	 1.8202842042	-2.5654667192	-1.0079120387	 0.119804
H	 2.6205273676	-1.0087065505	-1.0737575334	 0.123522
H	 2.3511381822	-1.9156952917	 1.4845612603	 0.111624
H	 1.0274548488	-0.6902675897	 3.3628276506	 0.084714
92.4993	131.7656	190.2519	227.015	266.5182	288.2422	331.4046	382.8529	419.8072	478.692	515.2092	594.5337	637.4776	697.2237	740.7605	798.1459	872.5191	921.6656	940.2637	954.173	986.0486	1013.1443	1037.041	1100.7769	1125.1579	1151.6679	1212.8131	1224.279	1258.4479	1307.0256	1311.2937	1361.9978	1397.6472	1402.3624	1414.9549	1471.2692	1485.2742	1495.1224	1499.8362	1684.8543	1756.1423	2898.8311	3012.2409	3032.3529	3060.1187	3072.0334	3104.8415	3117.2891	3120.4706	3176.0274	3750.4759
CC1(O)CCC=C1C=O	C[C@@]1(O)CCC=C1C=O	
InChI=1S/C7H10O2/c1-7(9)4-2-3-6(7)5-8/h3,5,9H,2,4H2,1H3	InChI=1S/C7H10O2/c1-7(9)4-2-3-6(7)5-8/h3,5,9H,2,4H2,1H3/t7-/m1/s1
