17
gdb 76351	1.96939	1.6177	1.13655	5.3436	64.25	-0.2422	-0.0204	0.2218	1101.4939	0.133797	-496.078146	-496.068833	-496.067889	-496.11273	33.677	
O	-0.7037834535	 1.2611629009	 0.9274103223	-0.440251
C	-0.0990732566	 0.2040366749	 0.1755354686	-0.024257
C	 0.469145668	-0.8525210997	 1.1641649422	 0.141952
O	 0.8852385279	-0.3765310779	 2.4090325273	-0.428718
C	-0.8700745171	-1.6802124047	 1.0461338386	-0.226933
C	-1.8253744851	-1.4787340962	 2.1931173192	 0.179247
O	-2.3518389684	-2.3790010361	 2.7952738379	-0.255355
C	-1.2005230343	-0.8144465856	-0.2322741639	 0.141926
O	-2.4860626291	-0.2995330092	-0.4100447992	-0.428673
H	-0.4001587866	 2.1053758404	 0.586249204	 0.311448
H	 0.5586811243	 0.6041775498	-0.5999651146	 0.081824
H	 1.2959309101	-1.4160463002	 0.72352805	 0.101717
H	 0.3766870125	 0.4295879334	 2.5719196087	 0.290581
H	-0.7554184661	-2.7521015891	 0.8797822543	 0.092165
H	-2.0286726517	-0.420502652	 2.4670457935	 0.071044
H	-0.9282329223	-1.3653172368	-1.1365285824	 0.101723
H	-2.5344316018	 0.4964115981	 0.1368985236	 0.290559
68.4224	80.3929	108.7648	185.2639	225.756	260.6252	268.5487	399.2289	474.3085	479.1606	486.7334	519.3047	561.0592	656.6646	753.6089	784.0896	868.9534	884.0526	951.4637	1021.3833	1089.7042	1106.552	1107.5985	1155.6025	1170.3976	1193.3212	1232.0176	1248.0455	1263.366	1294.1386	1302.2003	1361.3967	1413.6598	1428.8559	1446.3791	1456.694	1827.6757	2887.1956	3068.3761	3072.7318	3083.5753	3109.541	3749.7331	3754.9847	3868.6409
OC1C(O)C(C=O)C1O	O[C@H]1[C@@H](O)[C@@H](C=O)[C@H]1O	
InChI=1S/C5H8O4/c6-1-2-3(7)5(9)4(2)8/h1-5,7-9H	InChI=1S/C5H8O4/c6-1-2-3(7)5(9)4(2)8/h1-5,7-9H/t2-,3+,4-,5+
