17
gdb 133822	2.44575	2.20601	1.7639	2.5857	88.03	-0.1828	-0.0602	0.1226	871.1093	0.135491	-347.442438	-347.435146	-347.434202	-347.473495	29.399	
C	 0.8847227883	-0.1077539106	 0.9815808366	-0.508109
C	 2.134993914	 0.0471330016	 0.1558808055	 0.272365
C	 2.379248021	 1.1707764906	-0.8063553844	-0.112952
C	 2.4844920685	-0.4664476616	-1.1831557096	-0.124094
C	 3.7763952495	-1.1881314488	-1.0637412613	-0.128485
C	 4.2608076904	-1.2235788744	 0.2088066937	-0.140677
C	 3.5633236772	-0.0700971714	 0.7338724167	-0.008916
C	 4.1898507569	 1.2327589227	 0.6408683259	-0.119293
C	 3.5358030755	 1.9193103514	-0.3410269654	-0.044245
H	 0.8637181241	 0.6104328577	 1.8086473437	 0.126714
H	 0.8201472022	-1.1153461791	 1.4045631892	 0.132699
H	-0.0043782741	 0.0583017554	 0.364799803	 0.12145
H	 1.5611481017	 1.6574931548	-1.3272855389	 0.097005
H	 1.7838772935	-0.7091426044	-1.9751814795	 0.099661
H	 5.1382591968	-1.7220182043	 0.5946268165	 0.113933
H	 5.1675181034	 1.4769389157	 1.0380852645	 0.112427
H	 3.869502981	 2.8525751948	-0.7832536663	 0.110517
170.1473	212.3127	243.8168	257.8474	299.5975	400.8653	538.076	588.5859	607.935	651.2778	667.2491	694.5325	781.3994	809.8187	834.945	864.7324	905.4938	938.3267	946.125	1017.0226	1042.2539	1070.6953	1086.2087	1117.8964	1142.7818	1179.9548	1205.1261	1244.6005	1266.9931	1306.3966	1387.2075	1405.7434	1429.5474	1445.8011	1483.4448	1495.8643	1530.7085	3029.7244	3097.7718	3104.9968	3165.1887	3173.671	3185.2047	3214.1654	3231.4498
CC12C3C1C1=CC2=CC31	C[C@]12[C@@H]3[C@H]1[C][CH][C]2C=C3	
InChI=1S/C9H8/c1-9-4-2-5-6(3-4)8(9)7(5)9/h2-3,5,7-8H,1H3	InChI=1S/C9H8/c1-9-6-2-4-7(9)8(9)5-3-6/h2-4,7-8H,1H3/t7-,8+,9-/m0/s1
