18
gdb 41064	3.9881	1.83126	1.61954	2.0227	77.22	-0.2209	0.0724	0.2933	867.209	0.150534	-364.687965	-364.682098	-364.681154	-364.717759	25.823	
C	-0.0311751755	 1.4589951622	 0.2972491449	-0.257696
C	 1.4558361717	 1.5956929378	-0.2002824223	-0.358226
C	 1.2261449334	 0.262517904	-0.9047566912	 0.387963
C	 1.8102399087	-1.0114814922	-1.5228273036	-0.199743
C	 0.5231061897	-1.7750837029	-1.6989953503	-0.040918
C	-0.5699365924	-0.7546470134	-1.2284344359	-0.10633
C	 0.0339087482	-0.0884502228	 0.0198398352	-0.042762
C	 0.2567187408	 0.1946041114	-2.1440872453	-0.0334
N	 1.055447742	-0.923169348	-2.8151898395	-0.176543
H	-0.2186784171	 1.7392449608	 1.334710176	 0.105359
H	-0.7407301553	 1.9928364107	-0.3393124008	 0.111316
H	 1.7226185078	 2.4621756287	-0.8118524648	 0.102863
H	 2.1591580744	 1.5190115569	 0.6351679297	 0.107689
H	 2.7883236177	-1.4730755092	-1.4563226988	 0.090751
H	 0.4548902799	-2.8531071478	-1.7902739173	 0.094243
H	-1.6140406684	-1.031599328	-1.3747566049	 0.069114
H	 0.187269479	-0.6919289472	 0.9184835351	 0.067286
H	-0.0954425847	 1.041459059	-2.7291654862	 0.079034
238.5658	272.3144	364.7925	529.6029	553.3437	668.5755	698.2642	771.3227	780.5722	803.9982	828.1081	856.2742	864.8699	880.3317	894.1448	901.6844	915.2837	958.8119	989.1033	1019.6401	1030.4795	1058.2286	1081.4904	1097.6203	1135.3324	1143.2702	1178.3491	1193.3602	1194.8684	1207.5584	1220.1049	1247.8575	1259.8105	1266.3904	1295.1298	1331.7431	1354.3031	1475.3301	1491.6694	3046.0022	3070.9407	3072.1082	3097.5017	3109.9927	3130.0832	3137.194	3174.1383	3186.3025
C1CC23C4C5C(C12)C3N45	C1C[C@@]23[C@H]4[C@H]5[C@@H]([C@H]12)[C@@H]3N45	
InChI=1S/C8H9N/c1-2-8-3(1)4-5-7(8)9(5)6(4)8/h3-7H,1-2H2	InChI=1S/C8H9N/c1-2-8-3(1)4-5-7(8)9(5)6(4)8/h3-7H,1-2H2/t3-,4+,5+,6-,7+,8+,9?/m0/s1
