16
gdb 51834	2.88019	1.24299	1.0001	3.5736	67.32	-0.2617	-0.0151	0.2466	1185.2745	0.124843	-475.056808	-475.048539	-475.047595	-475.090732	29.189	
N	-0.4009218554	 1.2385120851	-0.2766359554	-0.434211
C	-0.2129457751	-0.0052404665	-0.2126680015	 0.120933
O	-1.2476008674	-0.8083177729	 0.1515317838	-0.210449
C	-0.9823340573	-2.2121002876	 0.189818079	-0.027802
C	-2.2195792002	-2.9227912816	 0.7154596294	-0.265428
C	-3.0281049735	-3.1662156143	-0.5688440818	-0.079601
O	-2.0494451548	-3.2907422054	-1.6212248955	-0.214956
C	-0.8682881217	-2.7451969643	-1.254678005	 0.440516
O	 0.0817120398	-2.6738608611	-1.9798216823	-0.339091
H	 0.4615313752	 1.7060939875	-0.5484338634	 0.235447
H	 0.7130630522	-0.5503110445	-0.4239534	 0.119144
H	-0.0661569145	-2.4172911067	 0.7504018722	 0.113222
H	-1.9305816666	-3.8751225028	 1.168650129	 0.12766
H	-2.7549110197	-2.3257941177	 1.4546344656	 0.140167
H	-3.6134515323	-4.0867108246	-0.5527449167	 0.132593
H	-3.6855147587	-2.3249525027	-0.8075985973	 0.141855
67.8421	83.2858	119.2156	184.6242	220.9393	274.9856	381.6397	489.2793	577.3897	680.9488	682.7357	741.3525	824.843	853.8476	897.4369	929.8514	970.2561	1016.5052	1042.6568	1061.8036	1101.315	1135.0678	1189.207	1224.7445	1239.9081	1275.5777	1297.9044	1343.4282	1360.1719	1406.5714	1429.0171	1475.864	1519.913	1747.2789	1877.1297	3064.9795	3067.6973	3073.6869	3082.4625	3125.7241	3141.2787	3519.2601
N=COC1CCOC1=O	[NH][CH]O[C@H]1CCOC1=O	
InChI=1S/C5H7NO3/c6-3-9-4-1-2-8-5(4)7/h3-4,6H,1-2H2	InChI=1S/C5H7NO3/c6-3-9-4-1-2-8-5(4)7/h3-4,6H,1-2H2/t4-/m0/s1
