18
gdb 82273	3.11007	1.39073	1.06156	4.0944	80.31	-0.2468	-0.0592	0.1876	1128.4141	0.148345	-401.946705	-401.938692	-401.937747	-401.979183	30.737	
C	-0.1055525092	 1.5893484548	-0.0599540484	-0.405035
C	 0.0119351898	 0.0583833295	-0.0128383927	-0.096507
C	 0.787412018	-0.5363425273	-1.1925119766	-0.055351
N	 2.1838773276	-0.0699618754	-1.2746555303	-0.325688
C	 1.8816910145	-1.3998097386	-0.6602033778	-0.092346
C	 1.7839074112	-1.3110097994	 0.8188601494	-0.136217
C	 0.7873332839	-0.4845034639	 1.184360125	 0.222211
C	 0.463823489	-0.1926069388	 2.5816644196	 0.080438
O	-0.4475488341	 0.5176150547	 2.9504740232	-0.27783
H	 0.8872904774	 2.0396317745	-0.1363889067	 0.133684
H	-0.6910388862	 1.8994315107	-0.931691144	 0.106137
H	-0.5992201556	 1.9587287617	 0.840408393	 0.146308
H	-1.0008176412	-0.3665122214	 0.0059184741	 0.092306
H	 0.266221579	-0.7786656797	-2.1127066639	 0.09177
H	 2.5213102346	-0.2282508619	-2.22283627	 0.233617
H	 2.2377815335	-2.2967878996	-1.1537705262	 0.098158
H	 2.4418879621	-1.8337485166	 1.5047945598	 0.11485
H	 1.1259873757	-0.7010202631	 3.3185877324	 0.069496
96.6882	180.7766	191.0669	236.5687	258.5404	275.437	431.5168	463.1535	501.5154	613.5683	683.2626	721.3259	800.2837	818.4936	842.1441	865.7445	910.8845	923.1206	972.8161	1026.6198	1044.4683	1070.3409	1101.5665	1113.5408	1133.9337	1163.7202	1192.5409	1262.865	1281.0015	1322.8981	1346.5048	1378.2443	1395.322	1407.1365	1427.438	1497.0696	1509.7886	1658.6749	1777.665	2873.8017	3017.4788	3044.7986	3116.3074	3145.8521	3164.3277	3179.1762	3195.845	3480.0677
CC1C2NC2C=C1C=O	C[C@H]1[C@H]2N[C@H]2C=C1C=O	
InChI=1S/C7H9NO/c1-4-5(3-9)2-6-7(4)8-6/h2-4,6-8H,1H3	InChI=1S/C7H9NO/c1-4-5(3-9)2-6-7(4)8-6/h2-4,6-8H,1H3/t4-,6+,7-/m1/s1
