21
gdb 86964	2.35218	1.35506	1.11688	0.5374	89.21	-0.2386	0.0259	0.2645	1220.3107	0.182791	-349.944779	-349.935823	-349.934878	-349.978121	35.015	
C	-0.0037283982	 1.6145228024	-0.0001974627	-0.404069
C	 0.0381316352	 0.0804149584	 0.0639237889	-0.006071
C	 0.6149591262	-0.5182346541	-1.2282935822	-0.212642
C	 0.8980200465	-2.0328695413	-1.09564301	-0.189084
C	 1.9294244334	-2.2747131668	 0.0352532983	-0.257464
C	 1.6564353628	-1.4308344436	 1.251822313	-0.066494
C	 0.8137859777	-0.3994692242	 1.2670420928	-0.028639
C	-0.3339182467	-2.7897741869	-0.8751079008	 0.358815
C	-1.3496246029	-3.4098172017	-0.7012517018	-0.502126
H	 1.0049986977	 2.0324718259	-0.0930058632	 0.115351
H	-0.5913358667	 1.9559536149	-0.8588888665	 0.111343
H	-0.4564306976	 2.0339879773	 0.9044219778	 0.111623
H	-0.9985165887	-0.2741250204	 0.1676909993	 0.095749
H	-0.0655817959	-0.3364657298	-2.0662022905	 0.101414
H	 1.563077894	-0.0185157407	-1.4656976623	 0.09468
H	 1.3365863198	-2.3843258353	-2.0381902995	 0.100637
H	 1.936041286	-3.3362717795	 0.3065957166	 0.114629
H	 2.9361115021	-2.0570394888	-0.3497877539	 0.106323
H	 2.1894174733	-1.704464984	 2.1595361785	 0.083645
H	 0.6555595535	 0.1490602282	 2.19385294	 0.078505
H	-2.2434109416	-3.9620750703	-0.5481720018	 0.193873
88.7109	107.7035	181.6995	232.282	281.4553	285.4056	330.6984	393.359	422.3913	509.9455	569.7627	614.3086	626.9136	632.7214	706.8501	769.2772	781.5736	866.8446	900.2879	918.2102	954.6004	979.8459	1005.0898	1020.4399	1075.3292	1088.0868	1115.8801	1136.0561	1181.089	1224.0824	1256.9976	1269.4943	1322.3237	1343.0527	1344.6474	1373.8516	1387.4403	1402.9325	1425.8587	1471.2686	1486.4101	1495.5992	1500.8093	1725.4069	2230.929	2991.2108	3002.2646	3018.5258	3025.7784	3031.128	3058.6932	3077.9907	3096.101	3098.4461	3133.5966	3159.5548	3504.782
CC1CC(CC=C1)C#C	C[C@H]1C[C@@H](CC=C1)C#C	
InChI=1S/C9H12/c1-3-9-6-4-5-8(2)7-9/h1,4-5,8-9H,6-7H2,2H3	InChI=1S/C9H12/c1-3-9-6-4-5-8(2)7-9/h1,4-5,8-9H,6-7H2,2H3/t8-,9-/m1/s1
