15
gdb 84342	3.073	1.37194	1.05599	2.9996	73.4	-0.2488	-0.0241	0.2247	1120.0974	0.111916	-416.813001	-416.804454	-416.80351	-416.846698	30.417	
C	-0.0510273022	 1.4920554865	 0.000741462	-0.354658
N	 0.0030888228	 0.0446572248	-0.0248330481	-0.102312
C	 0.0474253567	-0.7818952022	-1.1423391519	 0.069295
N	 0.1107189736	-2.0395975067	-0.9341724997	-0.246649
C	 0.1097187115	-2.1942530673	 0.537662503	-0.279967
C	 1.2554735576	-2.9430255928	 1.0291630502	 0.363119
C	 2.207057568	-3.545652653	 1.4438555267	-0.455607
C	 0.0481949447	-0.7523584885	 1.1136370061	 0.400172
O	 0.024699051	-0.3713537804	 2.2551241311	-0.358538
H	 0.8222922937	 1.9295895207	-0.493129763	 0.143933
H	-0.9596303831	 1.8634635437	-0.483380681	 0.142428
H	-0.0564893454	 1.7920276142	 1.0502866598	 0.175705
H	 0.0226519974	-0.3337045164	-2.1312523574	 0.143642
H	-0.8171788162	-2.7067554872	 0.8306700808	 0.154385
H	 3.0451204501	-4.0844128454	 1.8115542913	 0.205052
69.3676	95.4195	128.4207	186.4864	230.3941	284.0841	390.316	412.7459	509.823	562.4171	626.6514	641.045	658.3417	716.2765	761.5231	888.1626	940.9796	972.2668	1001.6908	1056.4339	1106.6673	1155.0872	1211.7519	1283.4016	1291.4503	1320.4827	1394.3199	1456.0052	1495.4146	1508.1653	1680.3474	1847.1197	2248.4386	3020.2176	3037.6255	3099.9453	3145.0993	3186.824	3504.0234
CN1C=NC(C#C)C1=O	CN1C=N[C@@H](C#C)C1=O	
InChI=1S/C6H6N2O/c1-3-5-6(9)8(2)4-7-5/h1,4-5H,2H3	InChI=1S/C6H6N2O/c1-3-5-6(9)8(2)4-7-5/h1,4-5H,2H3/t5-/m0/s1
