17
gdb 64943	3.93593	0.67025	0.63991	1.5395	83.64	-0.2534	0.022	0.2754	1774.7271	0.132062	-384.603823	-384.59393	-384.592986	-384.640687	35.045	
C	-0.4359588844	 1.325429974	-0.6076189212	-0.467231
C	 0.0017964846	-0.0284930688	-0.0887468374	 0.221587
C	 1.0904047336	-0.7681643072	-0.7619224888	-0.208606
O	 1.3376167187	-0.0717693089	 0.4545329895	-0.258174
C	-0.9914717462	-0.7714925576	 0.6529398086	 0.036099
C	-1.8445293053	-1.3607683366	 1.2637618537	 0.133562
C	-2.8683848087	-2.0859969989	 2.0179901683	-0.49815
C	-3.3417998566	-3.2998874683	 1.3496704789	 0.316718
C	-3.7385763824	-4.2966694639	 0.8112709452	-0.442186
H	 0.3855797273	 1.805113845	-1.1451692796	 0.128374
H	-1.2916297889	 1.2200951707	-1.281307855	 0.132235
H	-0.7346646377	 1.9717113948	 0.2228519974	 0.136326
H	 1.1179629709	-1.8541939336	-0.6970356906	 0.122573
H	 1.5441381269	-0.3371925791	-1.6541864791	 0.114447
H	-2.4701082694	-2.3479654061	 3.0080515899	 0.167263
H	-3.7215812573	-1.4209557643	 2.2102942937	 0.163256
H	-4.0861239651	-5.1782653113	 0.3322138063	 0.201908
11.3889	66.5459	103.9092	163.9642	207.3487	290.6942	318.0591	324.9705	330.0499	369.717	488.6385	551.891	558.9845	624.5029	646.5876	662.8974	794.0797	864.5302	924.6823	932.7213	941.4188	1027.8471	1068.4189	1097.9407	1137.2023	1167.9519	1230.5897	1286.1675	1334.7706	1370.1054	1409.8376	1450.0348	1478.5941	1494.0337	1520.5373	2248.0219	2372.399	3009.7224	3034.6783	3044.4281	3080.8772	3115.9746	3129.5556	3174.2688	3506.8554
CC1(CO1)C#CCC#C	C[C@]1(CO1)C#CCC#C	
InChI=1S/C8H8O/c1-3-4-5-6-8(2)7-9-8/h1H,4,7H2,2H3	InChI=1S/C8H8O/c1-3-4-5-6-8(2)7-9-8/h1H,4,7H2,2H3/t8-/m1/s1
