14
gdb 132906	3.11792	1.36545	0.9552	4.3362	68.76	-0.239	-0.0557	0.1833	1131.8964	0.099983	-481.855081	-481.84743	-481.846485	-481.887393	28.403	
C	-0.029673235	 1.5446536002	 0.0218691516	-0.496562
C	-0.0073740798	 0.0429895322	-0.0048596539	 0.038274
C	-0.0374006908	-0.6875004679	-1.1417481972	 0.038933
O	-0.0184305093	-2.0247429907	-1.1878927029	-0.22336
C	 0.0360020374	-2.8264472692	-0.0208803813	 0.447829
O	 0.0505202159	-4.0161273636	-0.1702944348	-0.341954
C	 0.0702532256	-2.0808060452	 1.2149340408	-0.427491
C	 0.0487310028	-0.7289760465	 1.2001428146	 0.312133
F	 0.0800441858	-0.0472316417	 2.3416476513	-0.057555
H	 0.8633153411	 1.9473711528	 0.5109545471	 0.145696
H	-0.0732798565	 1.9466094699	-0.9931173824	 0.132513
H	-0.8963188069	 1.9200784823	 0.5757545153	 0.145694
H	-0.0802250194	-0.2483772402	-2.1325244525	 0.145701
H	 0.1131184792	-2.6403018324	 2.1390007743	 0.140149
107.3574	157.4452	202.7835	260.8401	302.5385	373.9994	425.6627	430.9515	538.7833	580.9774	708.219	731.8621	736.0587	754.7925	830.8886	864.1376	906.2332	1022.9273	1070.0392	1112.2837	1208.4665	1224.3467	1269.5839	1342.462	1421.8638	1462.1504	1477.0888	1501.7596	1602.6224	1705.8048	1855.2391	3039.7937	3095.7094	3125.0663	3200.2584	3236.6087
CC1=COC(=O)C=C1F	Cc1coc(=O)cc1F	
InChI=1S/C6H5FO2/c1-4-3-9-6(8)2-5(4)7/h2-3H,1H3	InChI=1S/C6H5FO2/c1-4-3-9-6(8)2-5(4)7/h2-3H,1H3
