21
gdb 106784	2.46343	1.47797	1.10537	1.4679	84.03	-0.2223	0.0262	0.2485	1177.9447	0.182209	-387.087527	-387.078501	-387.077557	-387.120875	35.009	
C	 0.0091627476	 1.5036630412	-0.0684939976	-0.482977
C	-0.0180268414	-0.0018899005	 0.0662558195	 0.267242
C	 1.2486220748	-0.7954648378	-0.1418133147	-0.352234
C	 0.6029189511	-0.7727117284	 1.2342901015	 0.321012
C	 1.3184867553	-0.1490418704	 2.3997860569	-0.190938
O	 2.2335287852	-1.1120072293	 2.9168161299	-0.421607
C	-0.3227391193	-1.9210498596	 1.4800320147	-0.130079
C	-1.3606569112	-1.9142917827	 0.6425621663	-0.08916
C	-1.3320474365	-0.7169997312	-0.2817504645	-0.330537
H	 0.9693613474	 1.9266134989	 0.2411319586	 0.114495
H	-0.1540395238	 1.8002794109	-1.1116814427	 0.118175
H	-0.7770702614	 1.9750674002	 0.5329919801	 0.114164
H	 1.2175525523	-1.7241820626	-0.7024786665	 0.107659
H	 2.1636280979	-0.2226516939	-0.2643545249	 0.103987
H	 1.8459918119	 0.7619796733	 2.0779319142	 0.080896
H	 0.5898419337	 0.147367351	 3.1713599179	 0.085502
H	 2.6071596653	-0.7598021131	 3.7302897397	 0.284881
H	-0.1149424026	-2.6663806733	 2.2386473896	 0.102087
H	-2.1360518771	-2.6705264916	 0.5941394486	 0.090401
H	-2.1962141796	-0.0582803345	-0.1106637031	 0.100057
H	-1.3746967795	-1.0047523765	-1.3406850935	 0.106975
81.7693	147.9248	187.778	215.6176	253.0699	284.1655	290.0765	361.8754	402.2766	466.6015	491.2403	575.1855	711.7852	731.9924	760.1963	792.2376	898.5441	921.088	945.006	960.9304	963.5334	974.8908	989.2169	1009.6717	1053.6651	1066.9795	1093.6552	1108.7444	1163.2308	1196.3852	1227.9955	1244.1423	1256.0934	1289.8358	1325.978	1385.2378	1386.7584	1418.3193	1462.7389	1472.5897	1485.4754	1491.5521	1503.291	1518.1408	1673.7081	2965.8588	2997.8902	2998.2509	3021.6284	3033.559	3076.0651	3102.6186	3114.941	3187.6872	3203.3961	3214.4066	3823.2099
CC12CC1(CO)C=CC2	C[C@@]12C[C@]1(CO)C=CC2	
InChI=1S/C8H12O/c1-7-3-2-4-8(7,5-7)6-9/h2,4,9H,3,5-6H2,1H3	InChI=1S/C8H12O/c1-7-3-2-4-8(7,5-7)6-9/h2,4,9H,3,5-6H2,1H3/t7-,8+/m1/s1
