15
gdb 29953	3.40611	1.45491	1.02593	3.9798	71.85	-0.2297	-0.0412	0.1885	1093.1305	0.115719	-450.186693	-450.179129	-450.178185	-450.218836	28.348	
C	-0.0316660448	 1.4392601111	 0.0135517256	-0.324448
N	-0.0071622229	-0.0175847962	-0.0008605772	-0.075975
C	-0.0361088797	-0.7212532477	-1.1408505632	 0.119687
N	-0.0164820313	-2.0197386378	-1.2166395462	-0.397846
C	 0.0384568287	-2.6377610192	 0.013534215	 0.439129
O	 0.0593840165	-3.9716319256	-0.0425753496	-0.381164
N	 0.0711300318	-2.0853478243	 1.182992823	-0.35564
C	 0.0499165264	-0.7079677809	 1.2502455818	 0.419694
N	 0.0755785606	 0.0123193694	 2.3020796682	-0.578898
H	 0.8620882166	 1.8191931331	 0.5124473253	 0.164989
H	-0.0758370038	 1.8038472907	-1.0146520242	 0.12621
H	-0.8988037131	 1.7888227316	 0.5773691009	 0.16505
H	-0.0792298229	-0.1383013381	-2.0584750734	 0.141134
H	 0.029660345	-4.2055264634	-0.9800868125	 0.309812
H	 0.1154182031	-0.6036025827	 3.1124543565	 0.228267
103.3021	157.1461	187.779	269.2771	338.9969	386.9673	446.5602	495.1328	565.144	565.7957	616.8191	741.3881	765.6264	805.2157	818.7413	862.3973	955.952	1000.8641	1087.9444	1127.8649	1158.5886	1210.4242	1275.026	1316.5136	1385.921	1406.0332	1454.3304	1460.2041	1466.0002	1519.3062	1601.309	1701.9422	1735.1782	3058.6595	3136.4349	3147.1509	3162.7119	3513.4712	3786.5214
CN1C=NC(O)=NC1=N	CN1CN=C(O)N=C1[NH]	
InChI=1S/C4H6N4O/c1-8-2-6-4(9)7-3(8)5/h2H,1H3,(H2,5,7,9)	InChI=1S/C4H7N4O/c1-8-2-6-4(9)7-3(8)5/h5H,2H2,1H3,(H,6,7,9)
