13
gdb 132464	3.17472	1.32888	0.93677	3.5108	67.25	-0.2024	-0.0304	0.1719	1099.1302	0.089178	-502.027137	-502.020018	-502.019074	-502.058792	27.502	
F	 0.112467476	 0.0482728335	 0.002423366	-0.059411
C	-0.0567763717	 1.3630409953	 0.0111010395	 0.411111
C	-1.2584211688	 1.9716476144	 0.0304248343	-0.351054
C	-1.2491016611	 3.4062583037	 0.037245834	-0.191089
C	-0.0884976818	 4.0984803254	 0.0247799805	 0.228148
F	-0.0803251535	 5.4261008258	 0.0310966082	-0.055129
C	 1.2241435481	 3.4637814462	 0.0038166189	 0.297043
N	 2.3146161247	 4.1334400806	-0.0078125	-0.546148
N	 1.1172713709	 2.0568785514	-0.0015325129	-0.453323
H	-2.1707324926	 1.3955021457	 0.0400515721	 0.126553
H	-2.1833046323	 3.9550959834	 0.0526373867	 0.127776
H	 3.1356494486	 3.5279610573	-0.0219399738	 0.201972
H	 1.9721181134	 1.5195662971	-0.0157729634	 0.263553
129.0821	172.5923	317.8153	347.1315	389.7096	409.2563	449.192	526.1039	527.1763	601.5864	643.9768	741.8814	746.6439	775.0993	783.1746	786.909	919.0168	1011.6985	1069.0527	1121.6102	1246.8277	1266.5284	1280.341	1347.5211	1416.1333	1499.8861	1641.5405	1691.2672	1733.6859	3207.1094	3252.8757	3473.054	3619.0501
FC1=CC=C(F)C(=N)N1	FC1=CCC(=C([NH])N1)F	
InChI=1S/C5H4F2N2/c6-3-1-2-4(7)9-5(3)8/h1-2H,(H2,8,9)	InChI=1S/C5H5F2N2/c6-3-1-2-4(7)9-5(3)8/h2,8-9H,1H2
