20
gdb 87279	2.58491	1.23402	1.05069	1.264	80.85	-0.2411	-0.0323	0.2088	1241.8227	0.169961	-403.117566	-403.108403	-403.107459	-403.151379	34.397	
C	 0.0040788179	 1.5183939149	 0.0419599933	-0.427788
C	 0.0875842715	 0.0109370453	 0.107421108	-0.023669
C	 1.3524414042	-0.7250646325	-0.1645135131	-0.321638
C	 0.7966569383	-0.7554754553	 1.2555647457	 0.235562
C	 1.5257972602	 0.0522917232	 2.2641956816	 0.070806
O	 2.3100017427	 0.9411626563	 2.0184672862	-0.274169
C	 0.124668737	-2.0236992247	 1.7089513476	-0.062132
C	 0.5942068574	-2.8206196836	 2.8708730354	-0.259135
N	-0.69223972	-2.1030795202	 2.9307800513	-0.325194
H	 0.9219591436	 1.9861508277	 0.4014075303	 0.155817
H	-0.1560650086	 1.8329376598	-0.9951616894	 0.121928
H	-0.8339707584	 1.896750978	 0.6367732518	 0.118876
H	-0.8235163909	-0.4981590276	-0.1991827849	 0.10202
H	 1.321862939	-1.6552451594	-0.7216961481	 0.120345
H	 2.2557323036	-0.136880163	-0.2873102142	 0.140905
H	 1.2970178636	-0.19681955	 3.3245931169	 0.06758
H	-0.319497396	-2.5731227681	 0.8800296658	 0.090818
H	 0.5137373875	-3.904047492	 2.8593485428	 0.123173
H	 1.435803305	-2.4426949454	 3.4462243884	 0.115169
H	-0.6004628476	-1.2520085034	 3.4809934048	 0.230725
76.854	141.6852	171.4771	197.2184	218.8936	227.259	294.9082	346.0013	382.7591	436.7599	493.0619	593.2736	729.6168	749.5235	817.2238	849.4259	892.412	912.519	936.6724	956.6402	1008.1426	1025.3406	1049.8991	1078.7219	1086.3664	1105.3631	1124.0894	1158.9117	1174.3271	1202.0379	1242.9646	1259.4314	1303.3657	1335.3334	1393.1309	1421.2533	1433.805	1455.3831	1475.0381	1501.7098	1504.4603	1515.7981	1795.7209	2871.4414	3037.2364	3093.4299	3106.5102	3109.4593	3127.7745	3131.214	3146.9111	3189.3534	3224.1814	3491.8651
CC1CC1(C=O)C1CN1	C[C@H]1C[C@]1(C=O)[C@H]1CN1	
InChI=1S/C7H11NO/c1-5-2-7(5,4-9)6-3-8-6/h4-6,8H,2-3H2,1H3	InChI=1S/C7H11NO/c1-5-2-7(5,4-9)6-3-8-6/h4-6,8H,2-3H2,1H3/t5-,6+,7+/m0/s1
