16
gdb 124298	4.8806	0.97062	0.82931	6.48	70.93	-0.2488	-0.0408	0.208	1335.6674	0.124463	-434.091494	-434.083168	-434.082224	-434.125564	29.549	
C	 0.0927320966	 1.4970900621	 0.0946913908	-0.47699
C	-0.3445487627	 0.0533909741	-0.017849698	 0.394875
O	-1.1780132609	-0.4245884603	 0.7202715346	-0.301375
C	 0.301304589	-0.7513895319	-1.1475602932	-0.446789
C	 0.2655528989	-2.2381621896	-1.0008338937	 0.351478
C	 1.0633032494	-3.2368815975	-1.5152957305	-0.158053
N	 0.5853707901	-4.4430788249	-1.1041082457	-0.190482
N	-0.4668289091	-4.2500339523	-0.3589264069	-0.117676
N	-0.6709355496	-2.9234850848	-0.3008071074	-0.223475
H	 1.1207385496	 1.5353208309	 0.4746631734	 0.156177
H	 0.0983692608	 1.9834460237	-0.8864757464	 0.14436
H	-0.5638585309	 2.034290893	 0.7793984885	 0.153782
H	-0.2328180609	-0.4392255032	-2.0599990573	 0.160685
H	 1.3329156839	-0.4162488693	-1.2966443363	 0.143148
H	 1.9351830229	-3.1567337576	-2.144858249	 0.116845
H	-1.3892419271	-2.5175005224	 0.281480417	 0.293491
48.2258	73.5839	142.5139	169.0825	265.8704	310.9878	341.3465	467.1917	572.7571	645.972	693.166	757.5501	762.4791	810.864	843.2302	862.3241	976.9239	998.591	1049.3345	1074.6885	1085.6832	1136.8533	1178.4588	1211.4436	1238.5822	1304.7697	1358.6562	1369.3428	1388.2301	1429.5925	1458.5728	1465.6061	1475.712	1601.7266	1804.4742	2988.4936	3037.8863	3077.0728	3099.6023	3158.3562	3264.4266	3632.6852
CC(=O)CC1=CN=NN1	CC(=O)Cc1cnn[nH]1	
InChI=1S/C5H7N3O/c1-4(9)2-5-3-6-8-7-5/h3H,2H2,1H3,(H,6,7,8)	InChI=1S/C5H7N3O/c1-4(9)2-5-3-6-8-7-5/h3H,2H2,1H3,(H,6,7,8)
