18
gdb 78819	3.00025	1.4774	1.20158	1.9054	80.96	-0.2378	0.0277	0.2654	1077.3803	0.147325	-364.7088	-364.701011	-364.700067	-364.740786	30.977	
C	-0.2020597143	 1.4149547045	 0.0613108881	-0.414557
C	 0.0534072622	-0.0870018144	 0.0096466964	-0.000752
C	 0.94855443	-0.5081892302	-1.1596036276	-0.03221
C	 2.1767725089	-0.40789902	-0.3390610627	-0.070737
C	 1.2297785775	-0.5599609947	 0.9114013783	-0.091585
C	 1.3106017931	-2.0769515295	 0.6172218275	-0.150483
C	 0.151945701	-2.9310090058	 0.8096935193	 0.342643
C	-0.8039945679	-3.6403154883	 0.9815585761	-0.44377
N	 1.7237415749	-1.7508953795	-0.8037107697	-0.158392
H	 0.7307506166	 1.9815556823	-0.0352230625	 0.117775
H	-0.8684828332	 1.7288440485	-0.749256081	 0.118131
H	-0.6749732927	 1.6974107893	 1.007659281	 0.117767
H	-0.8821855968	-0.6416631255	 0.136911511	 0.085196
H	 0.8117670535	-0.3298608513	-2.2185830804	 0.096901
H	 3.1697617785	-0.0137587146	-0.5062796049	 0.100538
H	 1.362778358	-0.160510046	 1.9154212895	 0.076643
H	 2.1882043121	-2.5255518629	 1.0933569695	 0.108505
H	-1.6464028313	-4.2702221418	 1.1283972622	 0.198385
124.7711	145.3486	234.1774	247.5441	279.6563	366.0771	443.9416	542.9429	581.4382	626.8727	653.8676	744.0019	761.922	794.8645	816.5604	838.9036	902.5576	933.7374	940.0968	976.1091	992.9989	1026.8611	1048.9324	1075.9243	1090.6989	1120.2587	1143.5516	1175.3057	1199.5433	1216.0332	1248.1551	1282.7173	1329.3212	1365.4466	1378.5523	1414.1202	1494.9469	1501.1894	2229.81	3028.461	3053.4893	3058.3365	3096.066	3100.0437	3131.1189	3196.0346	3212.7664	3502.1385
CC1C2C3C1C(C#C)N23	C[C@H]1[C@H]2[C@H]3[C@@H]1[C@@H](C#C)N23	
InChI=1S/C8H9N/c1-3-5-6-4(2)7-8(6)9(5)7/h1,4-8H,2H3	InChI=1S/C8H9N/c1-3-5-6-4(2)7-8(6)9(5)7/h1,4-8H,2H3/t4-,5-,6+,7+,8-,9?/m1/s1
