17
gdb 115562	2.90057	1.07611	1.04278	2.7677	70.69	-0.251	0.0138	0.2648	1226.0205	0.133132	-458.892275	-458.882831	-458.881887	-458.926825	34.467	
O	 0.0386276894	 1.349946841	-0.4616417595	-0.424474
C	 0.1206662623	-0.0304564485	-0.160479743	-0.069982
C	-1.2457497979	-0.5366301652	 0.2739885522	 0.057702
O	-2.2221765925	-0.2889829341	-0.7698181107	-0.304304
C	-2.4256867069	-1.6968038746	-0.9950795684	-0.099333
C	-1.5043525988	-2.0823837662	 0.1892833193	 0.147118
O	-0.4200130401	-2.8812773328	-0.2440013031	-0.456443
C	-2.1593820358	-2.6502484378	 1.357298886	 0.282718
C	-2.661660019	-3.121390864	 2.342842973	-0.465598
H	-0.6887803625	 1.4382951307	-1.0902871779	 0.29286
H	 0.479539934	-0.6179126811	-1.0163338661	 0.10183
H	 0.8458825238	-0.142126338	 0.6528929857	 0.106169
H	-1.5564470912	-0.0638164815	 1.2116080832	 0.091086
H	-3.4770441284	-1.9838181092	-0.9056372187	 0.120389
H	-2.0183758833	-2.0367680765	-1.9539046261	 0.120239
H	 0.0006244911	-3.2658800797	 0.5324770596	 0.291322
H	-3.1179536242	-3.5378055724	 3.2072977144	 0.208699
57.0785	100.3752	137.8076	173.9862	200.1871	268.1003	291.5747	384.9573	407.6521	461.7396	483.3314	534.7931	602.5973	633.4375	657.2735	674.0802	843.0393	889.9969	922.5396	1015.99	1019.1785	1047.2921	1066.6728	1086.9449	1127.1716	1151.8053	1201.888	1217.4721	1271.425	1320.6782	1346.0858	1386.2534	1395.0501	1432.1826	1500.7879	1512.3128	2233.3172	3015.0438	3035.9828	3055.4008	3079.374	3099.2908	3498.2734	3781.719	3816.1605
OCC1OCC1(O)C#C	OC[C@H]1OC[C@]1(O)C#C	
InChI=1S/C6H8O3/c1-2-6(8)4-9-5(6)3-7/h1,5,7-8H,3-4H2	InChI=1S/C6H8O3/c1-2-6(8)4-9-5(6)3-7/h1,5,7-8H,3-4H2/t5-,6-/m1/s1
