17
gdb 77458	1.92728	1.49693	1.448	4.1786	70.38	-0.2305	-0.0099	0.2206	1064.0322	0.13268	-458.941388	-458.932059	-458.931115	-458.975083	34.407	
C	-0.0402737115	 1.5458986386	 0.0012161601	-0.422317
C	 0.1345261992	 0.0436099338	-0.1167283618	-0.165706
C	 0.7506471832	-0.7083688901	-1.2423629075	 0.365569
O	 0.1537369588	-1.6929829166	-1.988344626	-0.445977
C	 1.9605293455	 0.0167947818	-1.8176644436	-0.407999
C	 2.6200535513	-0.0860147807	-0.4110756881	 0.35699
O	 3.7431926723	 0.0980191295	-0.0319036447	-0.327062
C	 1.4229695396	-0.7480522162	 0.1950843554	 0.169659
O	 1.4383767265	-1.7475592369	 1.1405788661	-0.447468
H	 0.8097141074	 2.0925842512	-0.414371197	 0.134887
H	-0.940597623	 1.8758416699	-0.5283113387	 0.126442
H	-0.1431262827	 1.8434848774	 1.0501870713	 0.123305
H	-0.6947462078	-0.5229567402	 0.3147341342	 0.089075
H	-0.5876355208	-2.0596415285	-1.4938331056	 0.293158
H	 2.5113711424	-0.6139280876	-2.5217405978	 0.142614
H	 1.8100204294	 1.0078866215	-2.2530371656	 0.118175
H	 1.3493456601	-1.355004777	 2.0165716493	 0.296654
99.0066	148.1969	164.0301	188.9511	238.8262	250.824	260.3811	281.4323	368.1804	449.409	502.2832	565.7667	595.5088	643.6146	680.2221	697.189	745.5161	884.8816	945.355	1000.6559	1022.882	1093.1932	1107.2795	1110.6453	1121.1319	1177.1284	1207.2894	1250.459	1317.782	1365.0839	1405.7673	1422.5447	1451.1673	1490.1419	1497.6689	1509.901	1871.0293	3036.0566	3061.2154	3080.5209	3095.3031	3115.9569	3123.5159	3787.3742	3808.3471
CC1C2(O)CC(=O)C12O	C[C@H]1[C@@]2(O)CC(=O)[C@@]12O	
InChI=1S/C6H8O3/c1-3-5(8)2-4(7)6(3,5)9/h3,8-9H,2H2,1H3	InChI=1S/C6H8O3/c1-3-5(8)2-4(7)6(3,5)9/h3,8-9H,2H2,1H3/t3-,5-,6-/m0/s1
