16
gdb 17118	4.9079	1.4173	1.32576	2.3512	65.93	-0.2536	0.0198	0.2734	953.9932	0.131796	-379.890808	-379.883632	-379.882688	-379.922748	26.649	
N	 0.3438890426	 0.9877623858	 0.4890996817	-0.533857
C	 0.0972083328	-0.1302887085	-0.0164954098	 0.438976
C	-1.0891168981	-1.068109859	-0.0276913775	-0.374721
C	-0.1939094751	-1.9348846746	-0.9469432656	 0.087153
O	 0.886822925	-0.9494689813	-0.8108008277	-0.270068
C	 0.2098237303	-3.3024499827	-0.4688998135	-0.006262
C	 1.600471472	-3.7827053064	-0.6422220203	-0.238967
N	 1.0783957747	-3.4654492257	 0.7027394898	-0.320234
H	 1.2848082089	 1.3071828072	 0.2530108591	 0.230795
H	-1.3216393744	-1.5117515767	 0.9422093615	 0.149319
H	-1.9964730051	-0.6595288718	-0.4738281235	 0.141232
H	-0.5276507021	-1.9714504409	-1.9890545889	 0.10272
H	-0.6039103098	-4.0246955408	-0.5210563832	 0.101332
H	 1.7923429031	-4.8354281093	-0.8266506438	 0.122729
H	 2.3150499783	-3.0950609687	-1.0847809221	 0.129743
H	 1.440861767	-2.5542236365	 0.9777539537	 0.240111
79.519	93.5044	200.4274	250.0286	395.5126	482.0582	494.3039	589.1816	690.7251	774.7613	849.7433	867.3739	872.0625	931.1676	948.4444	962.3042	993.8896	1015.1628	1040.0791	1072.4766	1126.7534	1133.7626	1152.6253	1189.1925	1219.8868	1237.1109	1267.9467	1296.9934	1318.2199	1375.7713	1423.8006	1462.9609	1505.7646	1831.1438	3058.2342	3089.5583	3116.6817	3120.829	3146.7928	3207.6408	3478.9823	3488.1781
N=C1CC(O1)C1CN1	[NH][C]1C[C@@H](O1)[C@H]1CN1	
InChI=1S/C5H8N2O/c6-5-1-4(8-5)3-2-7-3/h3-4,6-7H,1-2H2	InChI=1S/C5H8N2O/c6-5-1-4(8-5)3-2-7-3/h3-4,6-7H,1-2H2/t3-,4-/m1/s1
