16
gdb 5579	3.32208	1.94774	1.29037	2.3589	67.45	-0.1794	0.0425	0.2219	930.8444	0.133162	-376.123895	-376.115898	-376.114954	-376.156456	29.193	
C	 0.1707297353	 0.687918635	 0.6715518785	-0.325408
N	-0.3779459171	 0.3397932328	-0.6344899659	-0.375004
C	 0.35936722	-0.5410228326	-1.4339690601	 0.268977
C	 0.8684633845	-1.7842475966	-1.1160935411	 0.170586
N	 0.849571277	-2.625075176	 0.0162788382	-0.620539
N	 1.4554206133	-2.2266405973	-2.2970613532	-0.245436
C	 1.2672497578	-1.2712979432	-3.2356035982	 0.00147
N	 0.6122691475	-0.2353559994	-2.749287942	-0.325237
H	 0.1969956194	-0.1961327475	 1.3159492178	 0.111361
H	 1.1900561492	 1.1049093494	 0.6298201565	 0.105989
H	-0.4851335091	 1.420542803	 1.1498055705	 0.121208
H	-0.5882438877	 1.1641999781	-1.1832145568	 0.234809
H	-0.0866836924	-2.724797549	 0.3935567187	 0.248682
H	 1.4509946217	-2.2979722415	 0.7657806428	 0.241699
H	 1.904145239	-3.1211201694	-2.4024237002	 0.262667
H	 1.6293432016	-1.3663795859	-4.2482030957	 0.124176
53.6178	164.8001	194.2652	231.26	254.1125	292.6104	398.1596	468.6845	516.1524	626.8324	668.7984	725.6502	752.4275	774.9214	790.6784	796.7444	953.8864	1057.6215	1115.4962	1131.1869	1152.8557	1190.2609	1224.3911	1267.6609	1296.0793	1388.0279	1450.4478	1465.0803	1488.6442	1497.4799	1514.5437	1541.8786	1646.9048	1666.6921	2971.3233	3070.3525	3110.9918	3249.8683	3495.2229	3562.23	3565.5097	3667.0997
CNC1=C(N)NC=N1	CNc1c(N)[nH]cn1	
InChI=1S/C4H8N4/c1-6-4-3(5)7-2-8-4/h2,6H,5H2,1H3,(H,7,8)	InChI=1S/C4H8N4/c1-6-4-3(5)7-2-8-4/h2,6H,5H2,1H3,(H,7,8)
