18
gdb 64799	3.45794	0.9578	0.91116	3.0398	79.92	-0.251	-0.0412	0.2099	1345.6018	0.147025	-398.132701	-398.12331	-398.122366	-398.167104	34.567	
C	-0.0263857188	 1.6168958439	-0.6460802304	-0.451198
C	-0.028594275	 0.1849168555	-0.1466065029	 0.354536
C	 1.2311869948	-0.6419406425	-0.2235102907	-0.321339
C	 0.7174291251	-0.1672355966	 1.114006365	-0.259844
N	-1.2461092812	-0.5503946995	-0.3873500179	-0.361604
C	-2.4110505903	-0.2924169384	 0.2804845578	 0.292319
N	-2.5013481646	 0.5322662306	 1.2558423543	-0.517454
C	-3.5432123411	-1.0694353979	-0.2100048636	 0.219183
N	-4.4672665305	-1.6614059514	-0.5747763281	-0.320452
H	 0.9319114353	 2.0972559408	-0.4287262353	 0.117956
H	-0.1857970574	 1.6554900101	-1.7296169196	 0.111641
H	-0.8166975838	 2.1909665923	-0.155393952	 0.150845
H	 1.1315607442	-1.6970839522	-0.4539782152	 0.116064
H	 2.1129426085	-0.1698041323	-0.6421451619	 0.119551
H	 1.2444689302	 0.6333734645	 1.6199079112	 0.122087
H	 0.2664687676	-0.8985531285	 1.7726759532	 0.127997
H	-1.3209025571	-1.064216176	-1.2512660069	 0.26054
H	-3.4437762558	 0.5415440775	 1.6374065129	 0.239172
64.909	86.562	128.7375	202.1505	233.4496	309.4516	315.3425	337.0838	401.4113	410.935	437.0947	511.9295	602.3047	726.0317	748.9891	776.4794	825.3872	871.6657	891.1645	941.8925	967.2056	1003.3296	1045.4286	1073.0065	1083.929	1133.5583	1155.9022	1188.03	1302.2298	1321.0785	1343.0895	1411.8309	1460.7337	1484.1597	1497.8578	1508.5064	1537.1344	1682.6308	2345.9312	3034.4524	3102.5829	3124.391	3135.3191	3150.8648	3219.9154	3241.7429	3530.7432	3627.7407
CC1(CC1)NC(=N)C#N	CC1(CC1)NC(=N)C#N	
InChI=1S/C6H9N3/c1-6(2-3-6)9-5(8)4-7/h2-3H2,1H3,(H2,8,9)	InChI=1S/C6H9N3/c1-6(2-3-6)9-5(8)4-7/h2-3H2,1H3,(H2,8,9)
