20
gdb 12873	2.55741	2.27356	1.72536	0.1346	79.82	-0.2213	0.0241	0.2455	897.2617	0.1776	-311.87667	-311.868802	-311.867857	-311.908145	31.028	
C	-0.1150573721	 1.55754245	 0.0387001492	-0.418617
C	 0.050606445	 0.0551443403	 0.0723486173	-0.036798
C	 1.3549236854	-0.6632373237	-0.1989303789	-0.106434
C	 2.6730767255	 0.1042266783	-0.0801491162	-0.279325
C	 2.7193456826	 0.5102811692	 1.3782393428	-0.075835
C	 1.6677508904	 0.045530861	 2.0563639968	-0.134014
C	 0.7259245216	-0.7315527616	 1.1928947086	 0.305732
C	 0.0599810649	-1.9647702549	 1.7597423823	-0.484777
H	 0.7100417769	 2.0738332602	 0.5347007726	 0.123049
H	-0.1665241191	 1.919230405	-0.9948862443	 0.111684
H	-1.0425023842	 1.8582903765	 0.5389928082	 0.111712
H	-0.8080102726	-0.4731680284	-0.3396701706	 0.076035
H	 1.3232000121	-1.5261865077	-0.8556228192	 0.076032
H	 3.5301237029	-0.5270750652	-0.3502341165	 0.104799
H	 2.7166642351	 0.9757206831	-0.7479842163	 0.107121
H	 3.5080669278	 1.1320244964	 1.7878315602	 0.089987
H	 1.4818379498	 0.2072646542	 3.1133059152	 0.086364
H	-0.624406713	-1.7085092597	 2.5777163528	 0.114234
H	-0.5247524244	-2.4846711511	 0.9941604495	 0.113129
H	 0.7981201152	-2.672199862	 2.1551154962	 0.115923
172.0915	194.5399	216.9118	224.7343	233.5344	298.6564	376.0538	514.1989	522.8073	604.3102	707.6086	728.7807	762.5488	825.5941	851.7961	910.8993	945.2738	947.9903	961.8068	991.4787	1022.5703	1037.3346	1103.0812	1103.4999	1122.7153	1125.0726	1162.2835	1194.2233	1246.5345	1276.4506	1313.7712	1346.2608	1379.2462	1412.9963	1417.117	1443.4676	1477.1612	1488.648	1497.4574	1501.4073	1505.5277	1670.2757	3010.8126	3019.4711	3028.8298	3033.5988	3077.1811	3081.7301	3096.2338	3108.3273	3125.9185	3161.0015	3174.5121	3201.1386
CC1C2CC=CC12C	C[C@H]1[C@H]2CC=C[C@@]12C	
InChI=1S/C8H12/c1-6-7-4-3-5-8(6,7)2/h3,5-7H,4H2,1-2H3	InChI=1S/C8H12/c1-6-7-4-3-5-8(6,7)2/h3,5-7H,4H2,1-2H3/t6-,7+,8-/m0/s1
