27
gdb 122143	2.6349	0.7445	0.61763	1.0561	94.38	-0.2497	0.0864	0.3361	1968.8082	0.249455	-390.698764	-390.686532	-390.685588	-390.737638	42.996	
C	-0.5816038475	 1.6649868359	-0.7944300707	-0.387152
C	-0.5399839305	 0.1489424346	-0.8868356725	-0.027271
O	-1.7695372099	-0.3693953575	-0.4248286489	-0.242401
C	-1.8373280611	-1.7784089933	-0.4887777366	-0.054853
C	-3.1896970836	-2.2874386934	 0.0169580782	 0.017347
C	-3.2577512265	-3.8136691722	-0.2071323093	-0.1821
C	-4.6747266308	-4.3946030599	-0.1679081778	-0.389381
C	-3.4496493842	-1.9186035435	 1.4946692099	-0.165427
C	-3.9655090635	-0.4949670968	 1.733853043	-0.385354
H	 0.3564668493	 2.0952771997	-1.1579103562	 0.113586
H	-1.4031318389	 2.0630504725	-1.3967802522	 0.126536
H	-0.7304201741	 1.9840238759	 0.2411999447	 0.126687
H	-0.3632012567	-0.1696329152	-1.9287303048	 0.083636
H	 0.2933830722	-0.2531646677	-0.2853045026	 0.08388
H	-1.6824320207	-2.1100264749	-1.530375191	 0.07821
H	-1.0240077991	-2.2253709396	 0.1121765382	 0.07895
H	-3.9657839072	-1.8166700004	-0.6036348643	 0.073288
H	-2.8107382268	-4.0551270749	-1.1801835744	 0.089464
H	-2.6324922735	-4.3145512587	 0.5446546027	 0.094121
H	-4.6581693713	-5.4767659308	-0.3315024911	 0.111443
H	-5.1675146743	-4.2170831344	 0.7931474526	 0.120077
H	-5.3025539195	-3.9497233546	-0.9478633851	 0.114878
H	-4.1761275447	-2.625199137	 1.9129337591	 0.090161
H	-2.5217508965	-2.0771513468	 2.061787617	 0.08841
H	-3.2553717567	 0.2476206886	 1.3681795143	 0.137893
H	-4.9166421366	-0.3334436688	 1.2135247602	 0.105905
H	-4.1395491074	-0.3190700168	 2.8007870676	 0.099469
33.4535	71.475	72.1954	95.933	111.4489	148.2409	209.7914	227.2968	250.4517	255.9148	282.3027	322.8917	345.9606	428.9536	497.2179	522.5146	760.2272	778.9718	820.3355	840.0721	894.3151	929.6135	981.0069	992.5341	1028.7771	1044.4163	1050.187	1063.261	1123.8948	1155.5615	1165.1259	1178.9435	1183.6059	1197.0108	1264.9822	1278.1467	1295.4754	1305.2782	1323.4457	1352.7664	1379.6244	1392.7029	1396.8238	1408.5944	1409.8201	1414.6646	1452.0894	1483.1225	1484.5809	1489.0429	1495.714	1499.0254	1502.6138	1506.4912	1512.345	1516.0854	1536.5013	2931.3657	2951.9186	2962.0516	2973.2301	3003.5342	3009.4145	3017.8003	3032.6226	3033.1442	3044.1823	3044.4398	3052.5872	3090.507	3099.5012	3103.8232	3118.0685	3120.7199	3145.4596
CCOCC(CC)CC	CCOCC(CC)CC	
InChI=1S/C8H18O/c1-4-8(5-2)7-9-6-3/h8H,4-7H2,1-3H3	InChI=1S/C8H18O/c1-4-8(5-2)7-9-6-3/h8H,4-7H2,1-3H3
