15
gdb 30601	4.50643	1.06228	0.86434	3.945	71.16	-0.2568	-0.0397	0.2171	1274.6051	0.113832	-454.007439	-453.999161	-453.998216	-454.041304	28.765	
C	-0.0330788133	 1.3856960027	-0.1131862364	-0.336287
N	 0.0931999378	-0.0514923953	 0.0216534403	-0.332756
C	 0.564588443	-0.636662064	 1.1578852185	 0.313223
O	 0.9205511438	-0.0297967467	 2.1552569937	-0.380368
C	 0.6255226639	-2.1115055316	 1.1189550886	 0.260265
C	 1.0279338741	-3.0315006614	 2.0330871288	-0.152638
N	 0.8871425681	-4.3035987687	 1.5015472485	-0.254928
C	 0.4156252769	-4.0995633003	 0.3143474569	 0.071836
O	 0.2250521553	-2.7999845861	-0.0038229195	-0.195131
H	 0.5847825729	 1.7637325298	-0.9351768406	 0.129586
H	-1.0734583124	 1.6782091889	-0.2930730902	 0.129579
H	 0.3061075336	 1.831990013	 0.8221569385	 0.174578
H	-0.1736882341	-0.6470656893	-0.745049695	 0.258615
H	 1.4048715737	-2.8568655292	 3.0270103779	 0.155866
H	 0.1599691366	-4.8266588819	-0.44061557	 0.158558
71.2432	86.7952	115.9143	149.1662	222.2678	311.9138	396.4151	488.6399	492.0827	632.8435	661.9751	771.9983	811.5121	847.5361	907.0204	934.7523	960.9763	1042.3517	1120.0681	1138.8284	1153.711	1165.5505	1191.3701	1248.0642	1298.3329	1346.0646	1441.4144	1493.4772	1499.4157	1524.0104	1569.0039	1631.5799	1765.1363	3028.9435	3081.2973	3155.2986	3275.8383	3285.3987	3648.289
CNC(=O)C1=CN=CO1	CNC(=O)c1cnco1	
InChI=1S/C5H6N2O2/c1-6-5(8)4-2-7-3-9-4/h2-3H,1H3,(H,6,8)	InChI=1S/C5H6N2O2/c1-6-5(8)4-2-7-3-9-4/h2-3H,1H3,(H,6,8)
