18
gdb 36473	3.10309	0.99477	0.80696	1.0909	85.63	-0.2289	0.0225	0.2513	1412.6253	0.145088	-364.71101	-364.701733	-364.700788	-364.745458	34.377	
C	 0.0222962869	-1.2220914266	-0.104101404	-0.430103
C	 0.012314311	-0.0209660961	-0.0847740786	 0.304516
C	-0.0017045382	 1.4377414173	-0.032861452	-0.31444
N	 1.3358118658	 1.9889328768	 0.108863151	-0.060959
C	 2.0774822177	 1.7763549782	 1.3686603518	-0.167705
C	 2.6432708646	 3.2085306803	 1.231728623	-0.253317
C	 1.452155811	 3.4602216375	 0.2602496379	-0.15494
C	 1.6510231042	 4.2253076073	-0.9581626785	 0.337994
C	 1.8146031659	 4.8695244837	-1.9599840988	-0.432357
H	 0.0304476855	-2.2835004808	-0.1328657092	 0.197631
H	-0.4327958472	 1.8371722281	-0.9599577664	 0.142985
H	-0.6705785145	 1.7601273109	 0.7914730707	 0.104067
H	 1.4181097441	 1.6764528763	 2.2465911142	 0.089603
H	 2.7748684049	 0.9353268406	 1.3512905059	 0.116594
H	 2.6815675585	 3.8290913224	 2.1262885836	 0.112481
H	 3.600642046	 3.2388149969	 0.7113076278	 0.127189
H	 0.5976048188	 3.8817141448	 0.8201565053	 0.083229
H	 1.964460745	 5.4318909423	-2.8482622437	 0.197532
55.2777	109.6565	123.4598	156.5191	226.7992	301.8862	333.3102	347.0045	431.3788	511.6863	573.454	612.7424	616.0641	652.6325	659.2307	665.8301	800.2414	830.0248	939.4229	956.222	964.5849	988.7825	1064.9016	1080.561	1106.1743	1152.4273	1207.8876	1212.3393	1248.6007	1256.8804	1269.1488	1325.8813	1363.6153	1393.8284	1477.9533	1485.5408	1521.6978	2235.8144	2243.099	2890.8296	2929.9913	2970.5863	3038.1128	3088.076	3097.9006	3158.4811	3503.0969	3506.6055
C#CCN1CCC1C#C	C#CCN1CC[C@H]1C#C	
InChI=1S/C8H9N/c1-3-6-9-7-5-8(9)4-2/h1-2,8H,5-7H2	InChI=1S/C8H9N/c1-3-6-9-7-5-8(9)4-2/h1-2,8H,5-7H2/t8-/m1/s1
