19
gdb 85875	2.0048	1.5996	1.17606	2.4324	77.82	-0.2472	0.0489	0.2961	1132.3211	0.155676	-422.978943	-422.969124	-422.968179	-423.012845	37.432	
C	 0.5603503862	 1.3534831104	-0.3971704887	-0.462312
C	 0.0283901547	-0.0231652282	-0.0289093451	 0.405023
O	-1.364193401	-0.0041114385	 0.2059981353	-0.475485
C	 0.5538733146	-1.173853346	-0.946610046	-0.323835
C	 1.6186945645	-1.5204689712	 0.1289193731	 0.098008
O	 2.8657379231	-0.8868366579	-0.0717651565	-0.418516
C	 0.7732796943	-0.7159419499	 1.1650961802	-0.226902
C	 1.4289766655	 0.0737459834	 2.182464769	 0.343582
C	 1.9595399868	 0.745095867	 3.0272322886	-0.458423
H	 1.6434084396	 1.324827296	-0.5313755207	 0.146377
H	 0.1060827112	 1.6928245193	-1.3373795884	 0.098178
H	 0.3249363398	 2.0748487334	 0.3904436716	 0.131774
H	-1.7714117048	 0.5948383718	-0.428523194	 0.276391
H	-0.2019757735	-1.9565116157	-1.0481189644	 0.10747
H	 0.9372695224	-0.8981838559	-1.933014363	 0.091161
H	 1.7511175725	-2.5836501453	 0.363131541	 0.075029
H	 3.276441866	-1.2855173724	-0.8458449912	 0.285471
H	 0.0519273875	-1.4011744033	 1.6224715986	 0.116269
H	 2.4379366307	 1.3306452331	 3.7724145707	 0.190741
97.9046	127.0975	162.5851	215.3532	245.8528	272.0472	293.9332	335.1703	352.0696	374.8043	382.6757	446.7092	549.2139	568.2843	616.4833	633.8428	699.2861	797.67	844.6947	866.0352	904.7752	946.8292	972.4145	1040.7513	1069.1773	1114.3666	1124.2213	1168.1787	1182.7573	1216.387	1232.1452	1279.9386	1313.2253	1354.5707	1372.1437	1406.202	1415.9633	1464.2308	1488.3573	1500.59	2235.4492	3021.2063	3022.032	3054.3727	3060.982	3100.492	3119.4637	3140.7783	3505.2505	3809.6835	3815.208
CC1(O)CC(O)C1C#C	C[C@@]1(O)C[C@@H](O)[C@H]1C#C	
InChI=1S/C7H10O2/c1-3-5-6(8)4-7(5,2)9/h1,5-6,8-9H,4H2,2H3	InChI=1S/C7H10O2/c1-3-5-6(8)4-7(5,2)9/h1,5-6,8-9H,4H2,2H3/t5-,6-,7-/m1/s1
