21
gdb 76147	2.30037	1.26874	1.13783	2.5894	81.63	-0.2177	0.0162	0.2339	1237.3734	0.180015	-420.420565	-420.409852	-420.408908	-420.455798	39.108	
C	-0.197603685	 1.3431929844	 0.0940409322	-0.329169
N	 0.2038886601	-0.0588955756	 0.1865195161	-0.135613
C	 1.6003246739	-0.4697290562	-0.0162441209	-0.169832
C	 2.7161360709	 0.5000926684	-0.2817294852	 0.423683
N	 3.6821671151	 0.0017744489	-1.1125824597	-0.533889
O	 2.79941489	 1.6273905999	 0.1820405521	-0.380643
C	 0.9231294003	-0.579783439	 1.3371116506	 0.310521
C	 1.3289692125	 0.3125493632	 2.4959133205	-0.473565
C	 0.4709023239	-1.9671351416	 1.7620568287	-0.432992
H	 0.555975405	 2.0645680575	 0.4197728038	 0.150453
H	-0.4487837359	 1.5564446963	-0.9500775009	 0.117715
H	-1.1088041956	 1.4694800619	 0.6873494272	 0.116053
H	 1.6865312675	-1.3927751416	-0.5905064931	 0.069428
H	 3.5783713061	-0.8698677204	-1.6002917825	 0.260502
H	 4.4334045409	 0.6176831609	-1.3767439707	 0.260756
H	 1.7995577225	 1.2366563252	 2.1661317208	 0.166202
H	 0.449099956	 0.5504481478	 3.10518397	 0.11363
H	 2.0357950577	-0.2193376879	 3.1415832676	 0.114588
H	 1.2824183742	-2.5090289682	 2.260197307	 0.112789
H	-0.3644883809	-1.8937034403	 2.4679203278	 0.118353
H	 0.1327288508	-2.5468319337	 0.8999662686	 0.12103
67.3026	145.8317	150.8729	164.1747	178.8142	205.4949	215.9881	255.5953	267.5812	346.8217	360.1584	435.4462	447.2011	483.2807	577.1344	654.4601	685.6093	723.9976	796.0835	858.1421	952.5733	957.7327	1011.9073	1026.5652	1073.5925	1083.6777	1138.4494	1159.5602	1170.1353	1184.3544	1275.2228	1299.5447	1373.9319	1404.3932	1417.215	1429.5727	1452.0501	1479.5695	1482.6709	1487.4928	1504.198	1507.2129	1525.6836	1613.084	1765.7765	3028.1382	3031.9971	3037.0228	3085.2129	3087.2282	3092.6136	3097.9976	3116.4675	3122.6339	3170.8785	3606.8784	3744.0189
CN1C(C(N)=O)C1(C)C	CN1[C@@H](C(=O)N)C1(C)C	
InChI=1S/C6H12N2O/c1-6(2)4(5(7)9)8(6)3/h4H,1-3H3,(H2,7,9)	InChI=1S/C6H12N2O/c1-6(2)4(5(7)9)8(6)3/h4H,1-3H3,(H2,7,9)/t4-,8?/m0/s1
