21
gdb 102514	2.13954	1.23862	0.83721	4.4981	79.38	-0.2471	0.0247	0.2717	1408.959	0.180547	-420.403389	-420.392301	-420.391357	-420.439995	38.854	
C	 0.1545986896	 1.064534981	 0.8186550611	-0.394289
C	 0.0172840623	-0.3360003704	 0.2172983309	-0.184374
C	 0.5526978868	-0.4219563748	-1.2150515331	 0.105229
O	 1.9384497624	-0.1230968398	-1.2008242235	-0.247969
C	 2.3691070694	 0.8680935782	-2.1193371159	-0.25132
C	 0.3655472119	-1.8505228868	-1.8145809868	-0.142101
N	-0.9991328742	-2.3699837761	-1.8890466864	-0.506086
C	 0.9554306158	-1.8965730559	-3.1638766528	 0.314804
N	 1.3930070772	-1.8995986488	-4.2332663862	-0.333267
H	 1.2007213242	 1.3805379791	 0.8192589568	 0.136843
H	-0.4239137043	 1.8002950885	 0.2488592793	 0.113661
H	-0.2079763607	 1.0838171831	 1.8503954823	 0.117153
H	 0.568908074	-1.0596625544	 0.8313150342	 0.10813
H	-1.0354897813	-0.6405309101	 0.2284495478	 0.087124
H	 0.0109694414	 0.2940290195	-1.852889823	 0.075719
H	 1.8778313826	 1.8330265273	-1.9288292973	 0.106465
H	 3.4447899597	 0.9861921646	-1.9687193548	 0.131991
H	 2.1888284577	 0.5710605623	-3.1590670296	 0.139449
H	 0.9515397504	-2.5328648356	-1.1863849037	 0.139584
H	-1.3781514918	-2.4883198577	-0.9565575902	 0.24324
H	-1.6020256231	-1.7221264131	-2.3874626591	 0.240015
52.478	85.8442	102.1154	132.6142	158.68	207.2975	216.7305	241.4079	270.0121	296.31	324.6055	400.275	435.4569	479.0547	573.6621	607.2994	768.5751	817.9137	875.8542	907.8142	944.658	1032.052	1069.2666	1094.5784	1126.4506	1131.8762	1148.571	1182.1546	1192.3223	1225.8648	1265.5558	1309.807	1338.1718	1372.3153	1387.6682	1401.3974	1406.6952	1477.6557	1482.4854	1493.6086	1496.8934	1507.0068	1512.9424	1654.7995	2359.8551	2982.9353	2998.7147	3025.4891	3038.1348	3046.5881	3067.8494	3069.6061	3104.415	3121.8505	3125.709	3503.6547	3597.411
CCC(OC)C(N)C#N	CC[C@@H](OC)[C@@H](N)C#N	
InChI=1S/C6H12N2O/c1-3-6(9-2)5(8)4-7/h5-6H,3,8H2,1-2H3	InChI=1S/C6H12N2O/c1-3-6(9-2)5(8)4-7/h5-6H,3,8H2,1-2H3/t5-,6+/m0/s1
