15
gdb 25001	5.03356	1.35262	1.07333	0.942	73.87	-0.2012	0.0013	0.2025	1048.8908	0.116444	-413.036749	-413.029702	-413.028758	-413.068602	26.833	
N	-0.0938014606	 1.2571764588	-0.0044470124	-0.5426
C	 0.0006987487	-0.0071695536	-0.0124770617	 0.39192
C	-1.2342051386	-0.9312053685	 0.0133059396	-0.259317
N	-0.6242328431	-2.2456076008	-0.0074465411	-0.03334
C	-0.9393958766	-3.5978505532	-0.0057987955	-0.152257
C	 0.273244133	-4.233059622	-0.0380476308	-0.092705
N	 1.3351241322	-3.3281762165	-0.0597930359	-0.394344
C	 0.7289507092	-2.1762930224	-0.039972847	 0.495174
N	 1.1133846536	-0.8414095173	-0.0433158555	-0.456505
H	 0.8190411012	 1.7127196093	-0.0245938708	 0.215392
H	-1.8246009217	-0.7528452662	 0.9168360289	 0.157046
H	-1.8675653762	-0.7447488223	-0.8589647708	 0.157045
H	-1.9532809757	-3.9580393057	 0.01739369	 0.130958
H	 0.4581400673	-5.2959199889	-0.0473200259	 0.110718
H	 2.0685903073	-0.5301513706	-0.0650618111	 0.272816
60.6436	151.7728	256.2118	345.3157	345.6952	526.8318	543.5528	572.1792	616.0822	692.7317	740.0628	759.563	831.3485	843.6308	844.7198	866.7622	955.4353	1015.8186	1084.5741	1089.0993	1131.9421	1192.4608	1195.2565	1276.2968	1292.775	1324.4622	1336.1001	1408.6084	1481.8363	1511.7638	1532.4758	1652.5172	1767.3737	3057.8906	3098.6897	3256.7119	3291.1074	3475.2961	3687.4722
N=C1CN2C=CN=C2N1	[NH][C]1Cn2ccnc2N1	
InChI=1S/C5H6N4/c6-4-3-9-2-1-7-5(9)8-4/h1-2H,3H2,(H2,6,7,8)	InChI=1S/C5H6N4/c6-4-3-9-2-1-7-5(9)8-4/h1-2H,3H2,(H2,6,7,8)
