19
gdb 112867	1.99854	1.54804	1.03834	3.2667	71.45	-0.2495	-0.0324	0.2171	1196.6829	0.15807	-460.185313	-460.176169	-460.175225	-460.219887	33.628	
C	 0.7212018658	 1.2548638557	 0.3181281034	-0.397269
C	-0.0424973112	-0.0445878356	 0.0730528171	 0.115684
C	 0.3310425739	-0.7407642558	-1.2420481773	-0.354813
C	 1.3344634646	-1.8091360898	-0.8153364951	 0.372487
O	 2.1094471381	-2.4067875224	-1.514182105	-0.308494
C	 1.1873771666	-1.976297353	 0.6947709945	-0.021515
C	 2.509723118	-1.7895203022	 1.4495164006	-0.058307
O	 2.2953559747	-1.8255989927	 2.8424274468	-0.421026
O	 0.227494797	-1.0131341164	 1.1146510106	-0.296642
H	 1.8013256887	 1.1145497968	 0.203429514	 0.124472
H	 0.4027412443	 2.0236316044	-0.3939344188	 0.121931
H	 0.5269287449	 1.6213705588	 1.3297388846	 0.128838
H	-1.1167362378	 0.1552392652	 0.131723871	 0.093232
H	-0.5306239004	-1.2541031701	-1.6846175724	 0.14243
H	 0.7548073141	-0.0822620803	-2.0026615678	 0.138731
H	 0.795085698	-2.9762594939	 0.9247373571	 0.11609
H	 3.1894898905	-2.6066976526	 1.1916315065	 0.128773
H	 2.9856045586	-0.8459215659	 1.1369585013	 0.086624
H	 1.5651061316	-1.2181158901	 3.013890919	 0.288773
55.563	74.6346	123.6639	166.4854	256.9817	311.0914	337.184	388.0566	426.8932	459.933	520.4261	545.8677	636.1609	701.4656	792.6087	815.6193	888.0768	901.78	945.7189	997.8992	1052.6688	1072.2216	1101.0526	1104.5197	1122.2184	1175.3346	1209.8049	1222.1079	1261.674	1272.503	1332.8766	1357.7574	1385.161	1387.5231	1408.2558	1425.853	1448.9303	1488.1558	1493.9364	1501.5747	1851.5812	2972.3745	3022.6508	3034.6553	3047.2579	3060.5377	3095.1216	3106.1273	3118.6607	3122.5202	3783.1463
CC1CC(=O)C(CO)O1	C[C@H]1CC(=O)[C@@H](CO)O1	
InChI=1S/C6H10O3/c1-4-2-5(8)6(3-7)9-4/h4,6-7H,2-3H2,1H3	InChI=1S/C6H10O3/c1-4-2-5(8)6(3-7)9-4/h4,6-7H,2-3H2,1H3/t4-,6+/m0/s1
