19
gdb 90301	2.89207	1.7111	1.38223	1.5925	80.31	-0.2365	0.001	0.2375	992.9464	0.160448	-385.850202	-385.842827	-385.841883	-385.881696	29.924	
C	-0.1173880905	 1.5574793142	-0.1204305135	-0.394712
C	 0.0036398563	 0.0413203417	-0.0442064592	-0.013527
C	 1.2487497027	-0.5601494515	-0.8156462632	-0.329551
C	 1.9018253436	-0.6476513219	 0.5418620323	 0.275138
C	 2.9577283023	-0.2006001505	 1.2280218991	-0.247734
C	 2.4824439387	 0.226935953	 2.5838249685	 0.014111
O	 1.6328421169	 1.400280265	 2.4960079923	-0.251177
C	 0.9965788437	 0.1278094149	 2.596600854	-0.002229
C	 0.6019491652	-0.5608699843	 1.2995880391	-0.081242
H	 0.8118932612	 2.0468012054	 0.1785799201	 0.143601
H	-0.3690939756	 1.8682937455	-1.1402745302	 0.107234
H	-0.9076429187	 1.9193396615	 0.5452879591	 0.115948
H	-0.9423016744	-0.4299424372	-0.3248161743	 0.074894
H	 1.0133867144	-1.532478055	-1.2598315785	 0.109252
H	 1.7295110546	 0.0713012223	-1.5671002019	 0.111708
H	 3.945199024	 0.0259454035	 0.844984052	 0.099565
H	 3.0938107823	 0.1853820507	 3.4803732426	 0.096329
H	 0.4343502549	-0.0313169474	 3.5128160446	 0.092062
H	 0.1331062983	-1.5270678698	 1.5172751671	 0.080331
123.4005	182.0126	246.0516	292.4971	348.8014	367.0495	482.6597	533.2792	663.4427	703.6648	752.0734	790.4019	796.1059	820.2659	848.9031	861.5931	894.3079	917.0588	969.7152	977.9838	1029.3451	1056.3935	1077.1098	1085.3309	1109.2757	1130.307	1143.6248	1202.2293	1225.2179	1244.5173	1263.6993	1279.8724	1310.3595	1328.97	1359.7765	1389.6971	1418.1232	1475.0888	1494.5153	1500.1696	1694.6249	3035.9005	3040.066	3047.3322	3064.8961	3096.5646	3105.1744	3134.5136	3146.2394	3161.8196	3206.655
CC1CC2=CC3OC3C12	C[C@H]1C[C]2[CH][C@H]3O[C@H]3[C@@H]12	
InChI=1S/C8H10O/c1-4-2-5-3-6-8(9-6)7(4)5/h3-4,6-8H,2H2,1H3	InChI=1S/C8H10O/c1-4-2-5-3-6-8(9-6)7(4)5/h3-4,6-8H,2H2,1H3/t4-,6+,7-,8+/m0/s1
