22
gdb 120087	3.97208	0.87756	0.8108	1.7333	86.15	-0.2172	0.0671	0.2843	1520.9163	0.194417	-367.116436	-367.107637	-367.106693	-367.150479	33.977	
C	-0.9704679311	 1.5541720166	-0.6070503147	-0.38529
C	-0.7194708289	 0.0488963924	-0.7175999896	-0.187213
C	 0.6819263468	-0.2897665009	-1.2487549379	-0.217379
C	 0.8816868114	-1.8017950851	-1.3737491358	 0.002562
C	 1.1877307351	-2.6434900793	-2.5840292069	-0.114526
C	 2.444030481	-2.2104916996	-3.3662367175	-0.035046
C	 3.2214126999	-1.075339061	-2.8166997217	-0.248833
N	 3.3394322181	-2.395913353	-2.1715549773	-0.141375
C	 2.0938281701	-2.7138940493	-1.3684682245	-0.050331
H	-0.2498262208	 2.0276025524	 0.0691781381	 0.115188
H	-0.8776228924	 2.044425439	-1.5826400487	 0.114986
H	-1.97379998	 1.7642237379	-0.2237539836	 0.112963
H	-0.8545429833	-0.4208773757	 0.2656269016	 0.098323
H	-1.4706103697	-0.404318295	-1.3776140552	 0.100461
H	 0.8099656414	 0.1998591123	-2.21970253	 0.109199
H	 1.4308435945	 0.1446039186	-0.5734016647	 0.105842
H	 0.1275599735	-2.3280892351	-0.7843224615	 0.091741
H	 0.5105354687	-3.3917579594	-2.9761068935	 0.090033
H	 2.7035168251	-2.6716716157	-4.3141212912	 0.097943
H	 4.1281818686	-0.8170412249	-3.3587635866	 0.118539
H	 2.7680095637	-0.246432984	-2.2961008074	 0.124488
H	 2.2081219583	-3.4923425211	-0.6238046115	 0.097725
53.0958	97.949	135.1203	208.8197	247.2208	286.6263	353.5501	415.5855	475.2174	664.525	675.3025	710.7462	728.7642	760.4671	773.5374	865.3849	882.2744	899.2055	919.2617	938.5163	968.0152	1011.2857	1023.8285	1054.8981	1056.9001	1072.757	1093.8149	1108.9506	1118.8322	1138.5338	1149.438	1208.716	1245.1169	1269.523	1279.7098	1298.8321	1335.7771	1338.3853	1359.9256	1383.8081	1413.8756	1446.6841	1486.1142	1494.1357	1499.1623	1505.7862	1512.216	3011.935	3018.7987	3029.5818	3043.2934	3070.4852	3083.6228	3096.0493	3102.3034	3128.521	3155.4822	3177.9087	3191.0358	3264.0149
CCCC1C2C3CN3C12	CCC[C@H]1[C@H]2[C@H]3CN3[C@@H]12	
InChI=1S/C8H13N/c1-2-3-5-7-6-4-9(6)8(5)7/h5-8H,2-4H2,1H3	InChI=1S/C8H13N/c1-2-3-5-7-6-4-9(6)8(5)7/h5-8H,2-4H2,1H3/t5-,6+,7-,8-,9?/m0/s1
