18
gdb 84208	3.99143	1.66223	1.49461	0.9971	81.28	-0.2082	-0.047	0.1612	925.1065	0.148384	-364.668751	-364.661957	-364.661013	-364.699483	28.319	
C	-0.1217458339	 1.6312757487	-0.0049134675	-0.397867
C	 0.0069555951	 0.1032981812	-0.0562651366	-0.022327
C	 0.8275141233	-0.5648645605	-1.1708235953	-0.127747
C	 1.9768870315	-0.9869669225	-0.6063815085	 0.044867
C	 2.0860150849	-2.3078692058	 0.1030338419	-0.081097
C	 2.5569445591	-1.7117912252	 1.3628998133	-0.048225
C	 2.2682547242	-0.3107168932	 0.7773922027	-0.124309
C	 0.8038500781	-0.4579903201	 1.1696187555	 0.038651
N	 1.0840318562	-1.9925413336	 1.2818897953	-0.190872
H	 0.8594145822	 2.1107147317	 0.0661589569	 0.122351
H	-0.6097445585	 2.0067242289	-0.9090252772	 0.121923
H	-0.7170909019	 1.9474033434	 0.8583971919	 0.116807
H	-0.9995098528	-0.3304041638	-0.1286834619	 0.093247
H	 0.3317096914	-1.0962665281	-1.9777899022	 0.102287
H	 2.0571148447	-3.3341839406	-0.2388298659	 0.107087
H	 3.1923460143	-2.0753446887	 2.1599320417	 0.096469
H	 2.8737157355	 0.5906130553	 0.8510461306	 0.074477
H	 0.4550224066	-0.134418457	 2.1542383453	 0.07428
147.899	215.7302	250.0233	348.975	434.9791	528.8768	566.7304	621.8853	687.5532	752.1298	780.0281	800.7535	825.2243	847.4689	862.4305	900.1399	918.3079	929.3914	948.5128	991.0118	1021.9773	1043.584	1048.786	1083.4442	1109.3437	1134.5391	1150.0044	1201.6767	1216.633	1238.0569	1256.0046	1279.264	1307.9407	1325.1597	1331.7571	1404.9714	1493.5025	1497.6488	1582.6042	3021.6673	3034.3229	3078.0007	3103.6083	3111.417	3127.8753	3166.3039	3194.3806	3210.3827
CC1C=C2C3C4C2C1N34	C[C@H]1[CH][C]2[C@H]3[C@H]4[C@@H]2[C@@H]1N34	
InChI=1S/C8H9N/c1-3-2-4-5-6(3)9-7(4)8(5)9/h2-3,5-8H,1H3	InChI=1S/C8H9N/c1-3-2-4-5-6(3)9-7(4)8(5)9/h2-3,5-8H,1H3/t3-,5-,6+,7-,8+,9?/m0/s1
