26
gdb 122442	4.23632	0.61638	0.59122	1.0591	95.03	-0.2185	0.0867	0.3052	2069.8384	0.238001	-369.601122	-369.589674	-369.58873	-369.638291	41.737	
C	-0.2363960153	 1.6306728176	 0.2289306536	-0.378234
C	 0.0823661018	 0.1522910485	-0.0100977983	-0.164739
C	 0.6771647242	-0.5389041697	 1.220835793	-0.156873
C	 0.9888762039	-2.0183863215	 0.9863222257	-0.141769
N	 1.5872355953	-2.6044628583	 2.1800480112	-0.109821
C	 0.7003672283	-3.2526637404	 3.1440287676	-0.294531
C	 1.6775200891	-4.0598906985	 2.3523685002	 0.339031
C	 1.1594922183	-5.0118565287	 1.2885778234	-0.453975
C	 2.9659534344	-4.5155589794	 3.0107697859	-0.434261
H	 0.6639227935	 2.1890680893	 0.5083968245	 0.114596
H	-0.6551452172	 2.1003586704	-0.6666986829	 0.10926
H	-0.9632841172	 1.7523096692	 1.0397852556	 0.113013
H	-0.8313634113	-0.3732886236	-0.3185425806	 0.092178
H	 0.7818675249	 0.0605185297	-0.851870884	 0.093726
H	 1.5984467844	-0.0311903363	 1.5307595201	 0.102883
H	-0.0199553815	-0.4516737267	 2.0652453949	 0.093624
H	 0.066726058	-2.5331532777	 0.666212801	 0.077417
H	 1.7092764339	-2.1163030549	 0.1637740764	 0.096641
H	 0.8799256093	-3.0267237266	 4.1929434144	 0.105095
H	-0.3532154974	-3.3473720983	 2.8786042305	 0.097661
H	 0.1979058229	-4.7022520925	 0.8745343418	 0.118419
H	 1.874419072	-5.1007467818	 0.4618937016	 0.117748
H	 1.0283046659	-6.0123013582	 1.7148565182	 0.118789
H	 2.8270983242	-5.4744474007	 3.5233979018	 0.10893
H	 3.7586822963	-4.6470846701	 2.2648694519	 0.112409
H	 3.3074571192	-3.7753044808	 3.7378944426	 0.122782
45.3744	73.1327	93.7011	125.916	176.4549	190.7805	216.3982	246.6409	253.2438	287.9415	366.394	393.1677	416.2204	474.366	510.2408	705.0711	740.6452	786.9158	808.2225	897.7234	912.9341	916.7743	952.5186	958.7985	1007.9787	1021.0038	1032.7706	1068.1844	1083.2279	1120.6642	1132.0813	1143.6636	1187.9227	1209.3765	1255.8034	1279.1812	1294.8117	1322.2975	1323.7521	1378.5683	1383.9623	1399.3413	1411.3904	1414.9928	1421.3399	1477.3635	1483.8734	1485.8988	1488.4558	1498.7526	1499.309	1499.915	1506.6177	1512.4659	1519.4488	2950.7227	3009.6419	3018.0644	3024.8371	3029.145	3031.5766	3035.4863	3036.5829	3069.3911	3075.2215	3083.422	3088.4966	3095.9656	3100.4412	3122.6649	3125.0101	3159.503
CCCCN1CC1(C)C	CCCCN1CC1(C)C	
InChI=1S/C8H17N/c1-4-5-6-9-7-8(9,2)3/h4-7H2,1-3H3	InChI=1S/C8H17N/c1-4-5-6-9-7-8(9,2)3/h4-7H2,1-3H3
