22
gdb 10854	3.54229	1.49613	1.28415	0.226	84.	-0.2357	0.0293	0.2649	1080.8522	0.201789	-313.099568	-313.091249	-313.090305	-313.131874	32.673	
C	-0.1440909312	 1.5721677443	 0.0308836321	-0.400371
C	-0.0230942123	 0.0409275632	 0.0150661943	 0.001119
C	 0.6295966681	-0.4662970502	-1.2813126881	-0.199075
C	 0.995141706	-1.9522710493	-1.1817973956	-0.226286
C	 2.0014502817	-2.2240231081	-0.045136371	-0.006673
C	 3.4587618734	-1.9418985707	-0.4600146812	-0.385332
C	 1.628832171	-1.4467809607	 1.1945256951	-0.074682
C	 0.7321536623	-0.4612572664	 1.2233376401	-0.046202
H	 0.845189766	 2.0423366035	-0.0011848832	 0.115592
H	-0.7158441598	 1.929612059	-0.8320857077	 0.109303
H	-0.6500097376	 1.9214628376	 0.9373509298	 0.109372
H	-1.0466287436	-0.3658050435	 0.0641594799	 0.07812
H	-0.0423362427	-0.2935216798	-2.1299144511	 0.087356
H	 1.5333349387	 0.1260875101	-1.477369486	 0.095559
H	 0.08056216	-2.5290274587	-0.9937524423	 0.092612
H	 1.4012773046	-2.3118876929	-2.1342287619	 0.085845
H	 1.9475379258	-3.2932782845	 0.2054669957	 0.072646
H	 3.5886801651	-0.9000447626	-0.7700371435	 0.117565
H	 4.1474980687	-2.1244058023	 0.371626709	 0.110717
H	 3.7588849137	-2.5866142914	-1.293159877	 0.108644
H	 2.1448412987	-1.727199766	 2.1113622084	 0.078269
H	 0.5135989033	 0.0351001294	 2.167777284	 0.075902
77.0076	209.1975	219.8157	235.9285	264.4123	303.8217	361.3482	385.2205	452.5027	534.1077	572.8862	716.7376	744.95	781.5982	803.4465	887.3706	937.367	952.7938	969.9343	995.5056	1009.3092	1026.6483	1051.8615	1089.5567	1120.6121	1129.9624	1162.5574	1190.7391	1249.4643	1257.2407	1319.9855	1335.8828	1340.5162	1357.9955	1371.1851	1382.0212	1399.8416	1406.9697	1430.7958	1482.8718	1492.2538	1497.547	1497.9633	1501.063	1503.2175	1719.6038	2963.4704	2991.9675	3017.9177	3022.7082	3026.4631	3029.6781	3059.0834	3064.4198	3095.7312	3096.604	3097.5942	3104.0361	3123.427	3148.3347
CC1CCC(C)C=C1	C[C@H]1CC[C@@H](C)C=C1	
InChI=1S/C8H14/c1-7-3-5-8(2)6-4-7/h3,5,7-8H,4,6H2,1-2H3	InChI=1S/C8H14/c1-7-3-5-8(2)6-4-7/h3,5,7-8H,4,6H2,1-2H3/t7-,8+
