18
gdb 100853	2.0091	1.28402	0.8466	4.4903	74.32	-0.2707	-0.0458	0.2249	1355.9768	0.143887	-439.094843	-439.084415	-439.083471	-439.131149	35.453	
C	 0.0652786527	 1.4158961202	 0.0778173004	-0.244715
O	-0.0828804694	 0.0224615309	-0.1094660032	-0.248364
C	 0.6993418906	-0.5308054176	-1.1521724462	 0.12519
C	 2.1819749128	-0.6419296232	-0.8030942043	-0.421485
C	 0.0435995923	-1.9098441683	-1.4058687303	-0.233463
C	-1.4725400971	-1.7226857484	-1.6240035287	 0.176449
O	-2.3079928685	-2.3464856833	-1.0377887466	-0.225524
C	 0.6184724711	-2.5676325346	-2.5754839711	 0.261446
N	 1.0590798495	-3.0655950677	-3.5212515481	-0.316774
H	 1.0621784623	 1.6830068448	 0.4525767037	 0.119414
H	-0.1184548722	 1.9690760796	-0.8553365093	 0.113428
H	-0.6784149861	 1.7142635946	 0.8195075896	 0.142565
H	 0.5813571019	 0.077672788	-2.0649849172	 0.088376
H	 2.3121481456	-1.2170384851	 0.1186709019	 0.134052
H	 2.7295134561	-1.1376798898	-1.6093208737	 0.150598
H	 2.6247177642	 0.3469224944	-0.6590082382	 0.129145
H	 0.1681336581	-2.5469435554	-0.5243805832	 0.15104
H	-1.723104114	-0.9588983191	-2.3908153054	 0.098623
57.245	81.3459	84.8232	125.0046	183.0324	191.4425	208.5608	257.1098	296.0495	365.2896	410.542	456.2822	498.1448	522.6796	588.3617	860.1318	912.8277	921.2086	1001.3865	1054.3656	1077.4339	1112.5291	1128.3618	1169.2984	1182.0494	1219.5803	1244.0316	1281.871	1371.5864	1378.9202	1410.3018	1416.1148	1478.2054	1484.9589	1491.4317	1504.8974	1510.789	1854.8422	2354.2289	2905.7892	2963.5182	2990.9922	3045.4682	3051.0571	3077.2497	3123.5462	3126.7455	3127.5971
COC(C)C(C=O)C#N	CO[C@@H](C)[C@@H](C=O)C#N	
InChI=1S/C6H9NO2/c1-5(9-2)6(3-7)4-8/h4-6H,1-2H3	InChI=1S/C6H9NO2/c1-5(9-2)6(3-7)4-8/h4-6H,1-2H3/t5-,6+/m0/s1
