15
gdb 30260	2.86615	1.51889	1.0432	2.3493	69.46	-0.2041	0.0236	0.2278	1083.1234	0.11442	-453.937231	-453.929722	-453.928778	-453.96942	28.477	
O	 0.3471270079	 1.3143792611	 0.3896166004	-0.416874
C	 0.0882075883	-0.0273027214	 0.084911209	-0.019298
C	-1.4340303317	-0.4927990333	 0.0364179729	-0.207559
N	-1.1795068657	-0.8824735272	-1.3687698582	-0.001252
C	-1.4457248761	-1.5186938272	-2.5241996317	-0.031753
N	-0.3535716722	-1.5192876167	-3.2898324661	-0.350286
C	 0.6389797507	-0.9059457697	-2.5801953887	 0.193291
O	 1.8824261909	-0.7600990061	-3.0811359271	-0.42933
C	 0.140200563	-0.4869409142	-1.3651822293	 0.158972
H	 0.0702278709	 1.8467749809	-0.3647304404	 0.285565
H	 0.6829091368	-0.6168346344	 0.7875273256	 0.115104
H	-1.7024557926	-1.3321133671	 0.6822308802	 0.134536
H	-2.1547269432	 0.3210595915	 0.1452573669	 0.129465
H	-2.4006015231	-1.9400355303	-2.7947311011	 0.137523
H	 1.8662114662	-1.1592669259	-3.9599414925	 0.301896
97.1941	127.086	227.9515	325.9329	360.6768	395.6236	413.7475	465.8364	544.686	647.5701	662.6556	698.7164	756.0576	781.1375	793.8548	866.0516	1002.9805	1067.1464	1083.8039	1127.1267	1144.9123	1191.4544	1213.9647	1255.1676	1295.325	1302.9667	1346.7645	1371.0997	1418.0296	1450.0901	1479.1146	1506.9124	1663.776	3064.5526	3081.7908	3128.7442	3266.3639	3797.6963	3800.1788
OC1CN2C=NC(O)=C12	O[C@H]1Cn2cnc(O)c12	
InChI=1S/C5H6N2O2/c8-3-1-7-2-6-5(9)4(3)7/h2-3,8-9H,1H2	InChI=1S/C5H6N2O2/c8-3-1-7-2-6-5(9)4(3)7/h2-3,8-9H,1H2/t3-/m0/s1
