14
gdb 124095	3.71025	1.60963	1.15834	2.5759	63.08	-0.2351	-0.0178	0.2172	969.4792	0.103596	-473.799824	-473.793472	-473.792528	-473.830706	24.537	
C	 0.0238867124	 1.4067000359	 0.009300409	-0.004579
O	 1.314829508	 1.9443638685	-0.0093044811	-0.235205
C	 2.082854123	 1.6361508326	 1.1600695428	-0.201125
C	 1.8313886259	 0.1986342341	 1.4594798892	 0.271259
C	 0.8746519626	-0.5281049595	 0.8290880528	 0.209322
O	 0.0088428265	-0.0223386342	-0.0842743419	-0.266875
C	 1.0220748509	-1.8345318173	 1.3611929602	-0.084289
N	 1.9921109989	-1.8752787962	 2.24604535	-0.13241
O	 2.5106859515	-0.5776301147	 2.3171279014	-0.218011
H	-0.5061720293	 1.692004326	 0.9321976242	 0.103457
H	-0.4917674259	 1.7763166942	-0.8762820753	 0.137254
H	 3.1275095677	 1.831417966	 0.9005555678	 0.150531
H	 1.8103863287	 2.2965590561	 1.9975851908	 0.126793
H	 0.4679907691	-2.7336453917	 1.13574256	 0.143877
127.524	221.11	321.3818	389.8799	405.6667	473.8647	583.1011	625.7412	682.5925	723.7384	783.2854	894.1486	896.506	941.8103	961.0093	987.6883	1030.0893	1094.4824	1137.6188	1190.6812	1222.5001	1248.2302	1288.1839	1318.7788	1367.3677	1430.2555	1461.77	1492.9558	1502.4337	1524.0873	1688.4506	2978.4683	2989.3306	3086.0922	3147.3923	3255.2259
C1OCC2=C(O1)C=NO2	C1OCc2c(O1)cno2	
InChI=1S/C5H5NO3/c1-4-5(9-6-1)2-7-3-8-4/h1H,2-3H2	InChI=1S/C5H5NO3/c1-4-5(9-6-1)2-7-3-8-4/h1H,2-3H2
