15
gdb 5264	7.3215	1.12737	0.98909	1.0283	62.94	-0.2392	0.007	0.2463	1138.1036	0.119225	-399.813942	-399.80637	-399.805426	-399.846849	26.059	
C	-0.0005418789	 1.3964962239	 0.0326164726	-0.223608
O	 0.0001724396	-0.0109346905	-0.0034159887	-0.234926
C	 0.6598222487	-0.5854460948	 1.1002683662	-0.167523
C	 0.605847618	-2.0696385818	 0.9651856341	 0.225642
C	 0.0470775072	-2.8239921934	-0.0098317997	-0.090327
O	 0.2546523129	-4.1415082985	 0.3063146817	-0.141431
C	 0.9361712186	-4.1002833322	 1.4701791239	 0.073006
N	 1.177716864	-2.9112500345	 1.9156395322	-0.31216
H	 1.0220732147	 1.8053074801	 0.0216539952	 0.108142
H	-0.5303848763	 1.7449963047	-0.8568220933	 0.129701
H	-0.5143985575	 1.7813548489	 0.9275051744	 0.108143
H	 1.7105829283	-0.2510916617	 1.1526345804	 0.108697
H	 0.1876400326	-0.2773751923	 2.0493474302	 0.108743
H	-0.4886260971	-2.614941511	-0.9173019215	 0.15791
H	 1.2091905154	-5.0473097769	 1.9084842623	 0.149992
60.4322	78.4571	137.493	219.0325	272.7051	352.2346	417.2022	635.2722	675.661	749.6748	774.7755	846.3048	936.615	998.7969	1005.0689	1050.5789	1090.9692	1134.2937	1166.4096	1185.0195	1222.871	1241.2755	1243.277	1260.6231	1340.4773	1427.2189	1480.9307	1484.3942	1501.0396	1522.172	1555.8406	1641.3529	2950.3556	2970.1533	2973.779	3017.6142	3118.5666	3276.4494	3318.1962
COCC1=COC=N1	COCc1cocn1	
InChI=1S/C5H7NO2/c1-7-2-5-3-8-4-6-5/h3-4H,2H2,1H3	InChI=1S/C5H7NO2/c1-7-2-5-3-8-4-6-5/h3-4H,2H2,1H3
