19
gdb 88552	3.51135	1.15269	1.12007	0.4602	76.04	-0.2349	0.0607	0.2957	1184.4903	0.158094	-422.960961	-422.952526	-422.951582	-422.994436	31.842	
C	 0.3153277007	 1.464824444	-0.3652477167	-0.429503
C	-0.0025175067	 0.0618728082	 0.0795290079	 0.091463
O	 1.0775227947	-0.8757735189	 0.175081664	-0.257595
C	 0.3901403243	-0.5225017949	 1.3779424469	-0.085298
C	 1.1792386091	 0.1976529657	 2.4076800784	 0.490645
C	 2.5304125012	 0.8184967342	 2.2621176703	-0.333172
C	 2.3054683995	-0.2349548065	 3.3293585849	-0.204511
C	 1.4420506849	 0.3512637989	 4.4383651909	-0.090803
O	 0.446427294	 0.8091866636	 3.4798568373	-0.331586
H	 1.1837781469	 1.8671424344	 0.1570743517	 0.141224
H	 0.5171901316	 1.4824185563	-1.441435239	 0.127091
H	-0.5415953468	 2.1193251951	-0.1739516828	 0.128183
H	-0.8962212015	-0.3683580314	-0.3774744592	 0.091582
H	-0.2486887988	-1.3100698502	 1.7822614793	 0.092512
H	 3.098387328	 0.471545047	 1.4057441063	 0.134961
H	 2.673956705	 1.8611213829	 2.5353305357	 0.110983
H	 2.8603349165	-1.1621515095	 3.3699227589	 0.108296
H	 1.0099535586	-0.4014240924	 5.1072165008	 0.1106
H	 1.8580347689	 1.1761270635	 5.0291661742	 0.104929
50.7206	138.8671	155.9903	195.4151	234.4686	368.4959	384.5963	399.2831	466.0527	519.8295	715.8468	757.4951	790.6716	828.6782	866.4593	900.4309	946.7808	975.4625	982.7068	993.7298	996.4046	1021.9419	1058.0236	1078.4676	1095.1169	1132.6554	1150.016	1161.098	1172.2621	1180.9723	1269.6453	1291.5629	1337.0211	1376.6392	1407.5366	1425.5937	1462.3422	1485.2006	1491.3216	1504.6072	1519.7774	3023.6323	3042.8469	3072.4592	3081.5992	3094.7173	3101.8473	3111.8086	3151.7966	3205.9753	3218.3815
CC1OC1C12CC1CO2	C[C@H]1O[C@H]1[C@]12C[C@H]1CO2	
InChI=1S/C7H10O2/c1-4-6(9-4)7-2-5(7)3-8-7/h4-6H,2-3H2,1H3	InChI=1S/C7H10O2/c1-4-6(9-4)7-2-5(7)3-8-7/h4-6H,2-3H2,1H3/t4-,5+,6-,7+/m1/s1
