20
gdb 99308	5.86895	0.63148	0.59496	1.3681	77.22	-0.235	0.0169	0.2519	1883.622	0.169173	-440.285344	-440.275279	-440.274334	-440.32249	34.646	
C	-0.221296844	 1.2817695126	 0.0713989632	-0.239866
O	-0.1550719151	-0.1271179373	-0.1806650985	-0.233878
C	 0.7339363584	-0.5036129139	-1.122857152	 0.450167
O	 1.4294703575	 0.272793603	-1.7299808307	-0.358549
C	 0.7326900471	-2.0061507935	-1.2945687743	-0.328398
C	 1.6591228458	-2.4659151008	-2.4177452541	-0.138206
N	 1.6829218558	-3.9225852639	-2.4780493055	-0.063852
C	 0.6897565726	-4.5496216054	-3.3464187801	-0.22244
C	 2.1253914475	-4.505136978	-3.7384525152	-0.220188
H	 0.7454108339	 1.6591863148	 0.4146582264	 0.140007
H	-0.5059376675	 1.8237180534	-0.8341152663	 0.139512
H	-0.9773001008	 1.4095943299	 0.846238843	 0.132514
H	 1.032950006	-2.466629181	-0.3465338216	 0.144145
H	-0.2973022099	-2.3365315003	-1.4707858197	 0.131176
H	 1.3431600348	-2.009297828	-3.3717669745	 0.092366
H	 2.6757163498	-2.1111290534	-2.2219418374	 0.120814
H	 0.2448004811	-5.4681839702	-2.9749750692	 0.116923
H	 0.0074492657	-3.9003496303	-3.8940309169	 0.108321
H	 2.3977664887	-3.8273159094	-4.5461484482	 0.112056
H	 2.7490484925	-5.3907762682	-3.6573092883	 0.117376
21.3086	57.0295	99.5777	124.5868	127.2423	176.3635	249.7926	289.6482	350.9258	402.2158	492.0731	590.6825	695.8123	775.6988	802.7061	843.5875	890.3567	924.4553	1004.7206	1029.6047	1036.2496	1081.285	1097.9467	1113.8376	1118.648	1166.6022	1177.8729	1179.7482	1200.8818	1217.6394	1235.2724	1308.4943	1324.1721	1340.2841	1411.7601	1460.4393	1474.1987	1482.5553	1488.3745	1498.183	1499.0993	1523.0202	1816.0073	2955.0218	3048.6521	3051.2973	3073.3279	3090.458	3091.741	3097.4574	3124.6679	3157.9468	3176.2386	3190.5349
COC(=O)CCN1CC1	COC(=O)CCN1CC1	
InChI=1S/C6H11NO2/c1-9-6(8)2-3-7-4-5-7/h2-5H2,1H3	InChI=1S/C6H11NO2/c1-9-6(8)2-3-7-4-5-7/h2-5H2,1H3
