15
gdb 98397	3.12296	1.07173	0.80639	1.1926	66.63	-0.2718	-0.0525	0.2193	1324.7844	0.110457	-491.11054	-491.101199	-491.100254	-491.145745	31.862	
O	 0.0633337881	 1.4007866505	 0.0411370114	-0.419224
C	 0.0871900662	 0.0079117052	 0.0587402546	-0.158873
C	-1.3463909777	-0.5359896664	 0.0588750827	 0.417661
O	-2.2703912934	 0.2515156622	 0.0546396719	-0.354912
N	-1.5735199465	-1.9208134447	 0.0522922477	-0.181726
C	-2.937095751	-2.3388950833	-0.0442016317	 0.082942
N	-3.3085764226	-3.4842311931	 0.3280709872	-0.394435
C	-0.4944229624	-2.8398754316	 0.0581047993	 0.174981
O	-0.5858781605	-4.0158798161	-0.1333169323	-0.245292
H	-0.8749756731	 1.6482277082	 0.0435334909	 0.301799
H	 0.6242215943	-0.3868440286	-0.8173995835	 0.131885
H	 0.614497393	-0.3621498576	 0.9522485554	 0.131914
H	-3.5588997417	-1.5399647364	-0.4469840035	 0.149936
H	-4.31008746	-3.5893599839	 0.1645195722	 0.245422
H	 0.4655889674	-2.3396343743	 0.2572209876	 0.117922
50.966	80.7497	99.9542	156.5177	212.1243	249.9048	269.1785	367.7678	390.1832	399.822	495.9491	522.3586	571.6758	771.581	838.6698	861.0777	969.8873	1010.0706	1032.9684	1086.0493	1139.1676	1161.9461	1274.0382	1280.6953	1315.5292	1338.8734	1418.9398	1451.8817	1474.7022	1509.7026	1728.4738	1768.5098	1859.6754	2980.106	3005.2148	3022.1989	3136.1332	3487.9128	3693.7112
OCC(=O)N(C=N)C=O	OCC(=O)N(C=N)C=O	
InChI=1S/C4H6N2O3/c5-2-6(3-8)4(9)1-7/h2-3,5,7H,1H2	InChI=1S/C4H6N2O3/c5-2-6(3-8)4(9)1-7/h2-3,5,7H,1H2
