16
gdb 95617	2.26513	1.70202	1.05271	2.733	66.7	-0.2361	-0.0818	0.1543	1090.2229	0.124536	-475.038271	-475.030112	-475.029168	-475.071278	30.396	
O	 0.0539660548	 1.4012660501	 0.1301782457	-0.430954
C	 0.0031758386	 0.0124691614	 0.0158033484	 0.034756
C	-1.4522759824	-0.5351444145	 0.0006406385	-0.210417
N	-1.5039357103	-1.9798245698	-0.1621376652	-0.279921
C	-0.9032515525	-2.4452456203	-1.4109133522	-0.280387
C	 0.5360205277	-1.952565084	-1.5998273301	 0.308667
O	 1.4533758443	-2.6352292245	-1.9785790507	-0.276037
C	 0.71656743	-0.4655690218	-1.2364628696	 0.277948
O	 1.3254446015	 0.3039837845	-1.9452450271	-0.312556
H	 0.6119425806	 1.7069071865	-0.6032280408	 0.298862
H	 0.5132921168	-0.4702578118	 0.8718670781	 0.098456
H	-1.9467586694	-0.2489049596	 0.9324103325	 0.131061
H	-2.0015465494	-0.0594489269	-0.8206313573	 0.125952
H	-1.0736743345	-2.4458256227	 0.6302484874	 0.233573
H	-0.9120586313	-3.5368099178	-1.4625395512	 0.1409
H	-1.5063850544	-2.0678125689	-2.2495750762	 0.140096
69.3312	111.8069	229.783	294.8502	300.7929	337.5092	372.6916	413.7396	426.7862	489.9604	564.3676	657.4195	712.4426	759.5823	810.5135	905.9044	968.4064	979.7908	1041.1703	1087.4044	1114.4587	1153.0863	1177.7029	1193.8989	1277.0502	1311.651	1326.8174	1336.1016	1365.8914	1426.6685	1455.396	1488.4166	1493.6947	1790.5098	1817.6298	2922.9361	3010.5858	3044.4033	3105.2763	3108.6075	3523.6853	3686.3346
OC1CNCC(=O)C1=O	O[C@H]1CNCC(=O)C1=O	
InChI=1S/C5H7NO3/c7-3-1-6-2-4(8)5(3)9/h3,6-7H,1-2H2	InChI=1S/C5H7NO3/c7-3-1-6-2-4(8)5(3)9/h3,6-7H,1-2H2/t3-/m0/s1
