21
gdb 104609	2.83971	1.00948	0.83693	3.1379	74.69	-0.2526	0.0622	0.3148	1436.9417	0.180186	-461.338731	-461.328554	-461.327609	-461.374162	37.707	
C	-0.2265410117	 1.5819909823	-0.1254418889	-0.405396
C	-0.0711787502	 0.061457029	-0.092702843	 0.138987
O	 1.0574489799	-0.3160768958	 0.6964442156	-0.422834
C	-1.365198078	-0.6369506014	 0.3647528285	-0.301198
C	-1.3945807643	-2.1354478621	 0.1190633032	 0.384543
C	-0.5122953579	-3.0209644141	 0.9950661976	-0.150525
O	-0.5348913519	-4.368367545	 0.5703613744	-0.420188
C	-2.5634838189	-2.7442249387	-0.5304680428	-0.227718
O	-1.3514357576	-2.5141224188	-1.2719417358	-0.292013
H	 0.716815497	 2.0484535827	-0.4213565799	 0.127784
H	-1.003554981	 1.889138152	-0.8322858692	 0.121039
H	-0.5044780514	 1.9688036376	 0.8637963196	 0.106044
H	 0.1674269932	-0.2989188879	-1.0993795691	 0.112269
H	 0.9402938027	 0.0615400703	 1.5757006055	 0.27609
H	-1.5263034096	-0.4363523776	 1.4339071376	 0.09156
H	-2.2069767217	-0.1823652052	-0.1687700587	 0.104113
H	 0.505167637	-2.6099399315	 0.999615909	 0.12396
H	-0.8865491576	-3.0009900039	 2.0258107115	 0.104425
H	-0.3718495047	-4.3400509655	-0.3815331414	 0.290273
H	-2.7898453603	-3.7903135375	-0.3428712545	 0.129087
H	-3.404741713	-2.117010389	-0.8210380593	 0.109699
42.615	92.6072	126.8709	182.8024	239.4257	243.862	303.3746	317.7303	333.8442	355.0918	403.4335	455.0663	480.3643	501.2464	615.5401	720.6548	834.4446	839.1226	877.941	917.9109	945.0036	968.5336	1040.5796	1062.6606	1076.1411	1102.7688	1128.3899	1152.9563	1161.5608	1179.3376	1234.7457	1268.3844	1305.9428	1326.3291	1375.2951	1379.9524	1404.1797	1419.3778	1428.7773	1438.0345	1465.5035	1493.2327	1495.9065	1512.5288	1518.1895	3009.7018	3022.5045	3026.0976	3058.722	3067.8254	3071.2198	3094.6869	3096.278	3121.3171	3192.8985	3770.3891	3792.729
CC(O)CC1(CO)CO1	C[C@@H](O)C[C@@]1(CO)CO1	
InChI=1S/C6H12O3/c1-5(8)2-6(3-7)4-9-6/h5,7-8H,2-4H2,1H3	InChI=1S/C6H12O3/c1-5(8)2-6(3-7)4-9-6/h5,7-8H,2-4H2,1H3/t5-,6-/m1/s1
