17
gdb 74246	3.23286	1.27395	1.05042	2.1333	79.96	-0.2424	0.001	0.2434	1170.1235	0.134516	-384.643551	-384.635244	-384.6343	-384.676378	31.674	
C	-0.1131896359	 1.5340341899	 0.1024073282	-0.501019
C	-0.0364810116	 0.0434079131	 0.0171439371	 0.325315
C	 0.0767861674	-0.7157488806	-1.076478688	-0.187101
C	 0.1068792779	-2.2108418584	-0.7645487688	-0.242809
C	 1.2319472288	-2.922257668	-1.3626552105	 0.337679
C	 2.1518388239	-3.5083187474	-1.8665164606	-0.467525
C	 0.0972050768	-2.2251521372	 0.773684659	 0.03178
O	 1.204213294	-1.5752554894	 1.3847339727	-0.245038
C	-0.0314336381	-0.8363336281	 1.2333239869	-0.068497
H	 0.7333548069	 1.9393203185	 0.6701534236	 0.139755
H	-0.1112258562	 1.9928802837	-0.8895257352	 0.129129
H	-1.0238165831	 1.8554413088	 0.623346927	 0.128221
H	 0.182008494	-0.3512558909	-2.091693676	 0.108965
H	-0.8251362468	-2.6799459077	-1.1154465861	 0.114013
H	 2.9713287791	-4.0238055234	-2.30237723	 0.196273
H	-0.3004232839	-3.0861277222	 1.303077171	 0.103861
H	-0.5123100632	-0.5445085806	 2.1628961197	 0.096999
93.4592	125.8291	176.62	206.5179	297.7949	322.5722	365.926	482.8546	546.7967	584.1588	597.4618	622.1832	637.3901	770.1519	812.4613	842.3786	868.598	886.3651	928.546	1001.0887	1009.159	1035.3542	1064.9653	1078.9695	1102.3712	1183.0999	1250.4607	1256.667	1275.0604	1308.1791	1354.5046	1413.7298	1414.5457	1478.5956	1487.6034	1707.5184	2239.7047	2988.7381	3021.5157	3069.7598	3116.5399	3150.4209	3162.1368	3201.9402	3505.0758
CC1=CC(C#C)C2OC12	CC1=C[C@@H](C#C)[C@H]2O[C@@H]12	
InChI=1S/C8H8O/c1-3-6-4-5(2)7-8(6)9-7/h1,4,6-8H,2H3	InChI=1S/C8H8O/c1-3-6-4-5(2)7-8(6)9-7/h1,4,6-8H,2H3/t6-,7+,8-/m1/s1
