16
gdb 73774	2.34836	1.71545	1.0035	3.0068	76.69	-0.275	-0.0778	0.1972	1137.6201	0.123417	-437.967279	-437.958465	-437.957521	-438.001257	31.279	
C	 0.0848355809	 1.5264493956	 0.0568988463	-0.493885
C	-0.016716708	 0.0412672684	 0.0064306804	 0.150809
C	-1.0882468407	-0.7721426293	 0.0245329439	 0.036091
C	-2.5488757652	-0.4887202539	 0.1009918902	-0.496538
C	-0.5951576118	-2.171791708	-0.0496286154	 0.389012
O	-1.2048269084	-3.1993354021	-0.0603089294	-0.317331
O	 0.7951292666	-2.1349672349	-0.1109089653	-0.234591
C	 1.1875771098	-0.8098771443	-0.0794838708	 0.347272
N	 2.3840096608	-0.4108711783	-0.1185505175	-0.512729
H	 0.6838403657	 1.8382608935	 0.9186711607	 0.158149
H	 0.603821115	 1.9031097741	-0.8305056663	 0.158133
H	-0.8974617833	 1.9983931194	 0.1192937215	 0.130756
H	-3.0667647325	-0.9056462051	-0.7694974006	 0.155211
H	-2.9875667683	-0.9700518173	 0.9817149037	 0.155205
H	-2.7539844393	 0.5824070978	 0.149677217	 0.133232
H	 3.0316245887	-1.1986371954	-0.1769410585	 0.241202
71.3637	99.9843	127.7844	164.7703	253.976	270.724	272.4426	374.0355	447.9779	541.5578	635.7929	655.444	677.3677	714.8066	779.9686	874.1538	910.1575	954.9895	983.8613	1045.4105	1069.5369	1100.8583	1130.2318	1172.3483	1326.0671	1371.6017	1417.8234	1420.4577	1470.6607	1472.3234	1477.5606	1481.4858	1723.4188	1761.7754	1887.2482	3041.3994	3045.82	3094.0196	3100.9357	3132.9015	3136.76	3482.1037
CC1=C(C)C(=O)OC1=N	CC1=C(OC(=O)[C]1C)[NH]	
InChI=1S/C6H7NO2/c1-3-4(2)6(8)9-5(3)7/h7H,1-2H3	InChI=1S/C6H7NO2/c1-3-4(2)6(8)9-5(3)7/h7H,1-2H3
