21
gdb 83272	2.77532	1.27395	1.1562	0.7802	77.74	-0.2263	0.0694	0.2957	1176.1196	0.183203	-424.207542	-424.198613	-424.197668	-424.241201	34.11	
C	-0.3863176288	 1.4419796098	 0.2423704671	-0.411732
C	-0.0344046058	-0.0158353365	 0.0540704026	-0.050303
C	 0.5960141005	-0.5707539501	-1.2211427595	-0.10723
C	 1.0531271267	 0.3144183536	-2.3744071951	-0.234546
C	 2.5581487531	 0.5418881151	-2.2738143602	 0.094597
O	 2.9388963206	 1.439880152	-3.3055523183	-0.430506
C	 2.8928819335	 1.1423979252	-0.9056101871	-0.086567
O	 2.4813514363	 0.3585965391	 0.2066187952	-0.265159
C	 1.3903086077	-0.5114807763	 0.0609863653	 0.099442
H	 0.3556306856	 2.1150574828	-0.1909765256	 0.125493
H	-1.3546622973	 1.6768608545	-0.2137216707	 0.116293
H	-0.4528008576	 1.6823057586	 1.3086735624	 0.12232
H	-0.7441084738	-0.693749559	 0.5230449033	 0.081462
H	 0.2592379669	-1.5593645445	-1.5172815523	 0.08729
H	 0.8149810773	-0.1529632153	-3.3334605644	 0.107415
H	 0.5587163357	 1.2923758618	-2.3716298249	 0.110859
H	 3.0747008657	-0.425146429	-2.3827122455	 0.070724
H	 3.8967257368	 1.5354730807	-3.2853293358	 0.284068
H	 3.9782782795	 1.2668184796	-0.7997210309	 0.091857
H	 2.4436984949	 2.1469424611	-0.8664500675	 0.10165
H	 1.6002930825	-1.4412872732	 0.5821622017	 0.092572
63.9888	126.3808	173.0116	184.1346	255.742	286.5172	329.6743	416.823	444.2562	470.8235	491.728	575.8203	696.2598	753.7951	767.8155	848.8475	892.9871	929.4956	961.4141	981.5405	1022.3705	1068.8837	1084.9556	1093.2533	1104.9686	1124.1812	1146.1744	1153.1601	1190.2718	1210.7986	1246.1884	1264.8496	1296.6354	1324.6241	1349.4114	1366.5681	1377.6208	1409.0745	1422.1323	1439.4547	1443.4114	1486.305	1499.4701	1501.825	1520.6633	2971.7294	2987.071	3035.6992	3038.6607	3046.8393	3091.132	3092.2742	3118.5886	3134.2027	3137.2747	3152.3949	3812.7072
CC1C2CC(O)COC12	C[C@H]1[C@H]2C[C@@H](O)CO[C@@H]12	
InChI=1S/C7H12O2/c1-4-6-2-5(8)3-9-7(4)6/h4-8H,2-3H2,1H3	InChI=1S/C7H12O2/c1-4-6-2-5(8)3-9-7(4)6/h4-8H,2-3H2,1H3/t4-,5+,6+,7-/m0/s1
