20
gdb 52625	3.48434	0.81389	0.77349	4.0931	85.49	-0.2471	0.0275	0.2746	1578.0163	0.16756	-403.158572	-403.147447	-403.146503	-403.196607	38.82	
C	 0.0219866132	 1.4617007325	 0.0778162941	-0.5003
C	 0.0172170008	 0.0062570163	 0.0278221402	 0.060798
C	 0.0082754818	-1.1968179556	-0.0219490036	 0.058561
C	-0.0048543985	-2.6632285567	-0.0864436684	 0.086487
C	-1.4625346892	-3.1775528493	-0.0739515886	-0.401401
C	 0.724612823	-3.1404242978	-1.3630324305	-0.401392
N	 0.7132087245	-3.1481618818	 1.1179206119	-0.295483
C	 0.9247284349	-4.4479813471	 1.4397739679	 0.162556
O	 0.5626675182	-5.4147891002	 0.7982523365	-0.336127
H	 1.0431199948	 1.8581192318	 0.0749725881	 0.150933
H	-0.4997253695	 1.8847111976	-0.7874860262	 0.154682
H	-0.4780438734	 1.8320081388	 0.979321682	 0.150927
H	-1.9940013133	-2.8054928472	-0.9536444371	 0.11928
H	-1.4636215253	-4.2685570577	-0.0833553058	 0.154594
H	-1.981857154	-2.824763824	 0.8204749775	 0.116725
H	 1.749444309	-2.7614376976	-1.3787041159	 0.11672
H	 0.7443784569	-4.2310758294	-1.3847506905	 0.154572
H	 0.2030559276	-2.7681902401	-2.2485640369	 0.11929
H	 1.0701803562	-2.4436691628	 1.7431541049	 0.251085
H	 1.4874481325	-4.5389119798	 2.3916335805	 0.077494
9.6558	74.9555	86.4308	130.4187	209.6956	213.4664	245.0078	277.3227	292.8775	293.3837	344.8375	364.9338	411.1024	508.5101	542.9334	570.3714	618.7374	820.0082	829.2715	936.286	986.4059	1028.4996	1033.1508	1051.8084	1054.6924	1076.9172	1172.1103	1179.8358	1222.2743	1289.1699	1387.6509	1408.9379	1414.4085	1431.5059	1476.1153	1477.0789	1478.6118	1481.2338	1494.3428	1511.202	1519.6039	1792.8486	2370.6229	2920.0767	3029.2922	3050.3711	3054.2985	3090.8073	3092.1476	3124.8526	3128.7105	3148.8786	3152.1387	3639.6323
CC#CC(C)(C)NC=O	CC#CC(C)(C)NC=O	
InChI=1S/C7H11NO/c1-4-5-7(2,3)8-6-9/h6H,1-3H3,(H,8,9)	InChI=1S/C7H11NO/c1-4-5-7(2,3)8-6-9/h6H,1-3H3,(H,8,9)
