17
gdb 36055	2.15791	1.47526	1.07264	4.6892	78.02	-0.249	0.0142	0.2632	1163.2372	0.135216	-380.82331	-380.814411	-380.813467	-380.857144	32.853	
C	-0.0082551969	-1.0799033573	 0.4535725599	-0.420482
C	 0.0153772715	 0.1005803689	 0.2297958219	 0.296758
C	 0.098226043	 1.5339060667	-0.0129124867	-0.418653
C	 1.5622628964	 2.0167871675	-0.2061167241	 0.159194
C	 1.7260743461	 3.5491884523	 0.0522635073	-0.28206
C	 2.2679197487	 3.1465188776	 1.4464343102	-0.160934
N	 2.4576389813	 1.7682760414	 0.9404344017	-0.321105
C	 2.0884740094	 1.5196604509	-1.4860740488	 0.282307
N	 2.4921408682	 1.161237146	-2.5077644659	-0.340105
H	-0.0445290377	-2.126808134	 0.6294603083	 0.207911
H	-0.492281486	 1.8105147178	-0.8945926164	 0.150705
H	-0.3276102319	 2.0794482522	 0.8380395193	 0.136261
H	 2.4822482562	 4.0002929806	-0.5893374951	 0.139376
H	 0.8086320288	 4.1371691308	 0.0106267352	 0.118773
H	 3.1926506549	 3.6291297527	 1.7747316294	 0.118639
H	 1.5187569332	 3.2485269911	 2.2426204342	 0.102077
H	 2.1813695448	 0.9966468149	 1.5390913296	 0.231338
66.6898	114.745	138.7225	187.9996	206.4714	315.8513	346.4203	372.6812	465.0855	536.1052	569.1819	636.5957	651.3001	662.3101	730.0397	777.8909	880.2942	901.6045	939.0431	970.6133	988.3135	1026.6534	1082.4767	1116.1255	1159.936	1170.604	1208.4504	1254.5529	1286.4198	1323.9855	1337.2351	1383.8257	1463.7462	1485.8544	1528.8573	2239.9523	2355.7891	3011.8422	3029.4714	3067.4962	3079.7367	3094.6247	3156.3678	3504.3502	3526.629
C#CCC1(CCN1)C#N	C#CC[C@]1(CCN1)C#N	
InChI=1S/C7H8N2/c1-2-3-7(6-8)4-5-9-7/h1,9H,3-5H2	InChI=1S/C7H8N2/c1-2-3-7(6-8)4-5-9-7/h1,9H,3-5H2/t7-/m0/s1
