17
gdb 18069	4.26317	1.44419	1.3153	2.9359	67.89	-0.2336	-0.025	0.2087	967.3887	0.142264	-363.8172	-363.809728	-363.808784	-363.849871	27.39	
O	 1.7036339828	-0.4724900069	-0.41137768	-0.23879
C	 1.0107756461	 0.5052916811	-0.5267484339	 0.17942
C	 1.380880536	 1.8809414586	-0.0074587445	-0.327938
C	 1.4389958723	 2.8921958756	-1.1419111396	 0.000157
C	 2.4116485744	 3.9997719276	-1.2553915012	-0.043583
C	 3.7928454855	 3.6371079395	-0.7149737466	-0.252144
C	 3.7430655113	 2.4173567807	-1.6688245955	-0.164928
N	 2.4154348761	 2.8440021087	-2.2523404106	-0.147086
H	 0.0304493652	 0.4546569045	-1.0538747177	 0.081462
H	 0.5987541458	 2.205894714	 0.6924861002	 0.123052
H	 2.3165808789	 1.7992074945	 0.5473116011	 0.127629
H	 0.4557911072	 3.128656817	-1.5459441152	 0.101715
H	 2.1008902488	 4.9992587816	-1.5457733221	 0.09655
H	 4.5573574582	 4.36075634	-1.0020442058	 0.115856
H	 3.8734183768	 3.4576049865	 0.3616133824	 0.106007
H	 4.5005284641	 2.4473817228	-2.4535781079	 0.116237
H	 3.7365019004	 1.4178438642	-1.225792043	 0.126383
47.7917	82.1122	175.833	276.515	309.1245	438.1391	474.5646	574.8053	698.2244	771.8604	783.0717	793.9736	814.2159	926.4042	955.9248	981.9444	990.0167	1020.6967	1066.3517	1079.9683	1109.521	1142.7808	1174.195	1222.0648	1224.6135	1247.32	1270.2319	1286.206	1301.2758	1362.0087	1426.312	1441.9756	1467.1411	1493.5205	1521.9365	1832.5888	2872.0128	3025.824	3053.6275	3069.5853	3110.9266	3116.149	3128.1384	3132.7637	3152.4891
O=CCC1C2CCN12	O=CC[C@H]1[C@H]2CCN12	
InChI=1S/C6H9NO/c8-4-2-6-5-1-3-7(5)6/h4-6H,1-3H2	InChI=1S/C6H9NO/c8-4-2-6-5-1-3-7(5)6/h4-6H,1-3H2/t5-,6+,7?/m1/s1
