23
gdb 123265	10.61721	0.37946	0.37148	1.2468	81.46	-0.2505	0.0773	0.3278	2896.6356	0.202475	-462.531671	-462.519776	-462.518832	-462.570935	39.356	
C	-0.1117372981	 1.6195868541	 1.0025144796	-0.224555
O	-0.3132064185	 0.2329848277	 0.8781209281	-0.232837
C	 0.740098403	-0.415464248	 0.2040249716	-0.068505
C	 0.4026747031	-1.8968715257	 0.1366370842	-0.069437
O	 1.4553523272	-2.5457792955	-0.5375343902	-0.249613
C	 1.2620144245	-3.9377779135	-0.6665410171	-0.050199
C	 2.45616612	-4.5249277873	-1.4051989845	-0.183664
C	 2.3438660958	-6.0315684301	-1.5964742245	-0.071914
O	 3.5026001497	-6.465976534	-2.2912368247	-0.419459
H	-0.033679692	 2.1113776637	 0.0197747795	 0.104368
H	-0.9733713325	 2.029777546	 1.5349565672	 0.12613
H	 0.8019558448	 1.8505937799	 1.573057543	 0.104361
H	 0.8668906112	-0.0169529068	-0.8158592979	 0.094747
H	 1.6975963647	-0.2764438805	 0.7321233166	 0.094743
H	 0.2759938025	-2.2946375078	 1.156681813	 0.094394
H	-0.5551604466	-2.0347882913	-0.3909225431	 0.094401
H	 1.1551134755	-4.4013391121	 0.3299570815	 0.084673
H	 0.326164891	-4.1429710004	-1.2155464446	 0.084681
H	 2.5490689632	-4.0444393677	-2.384886652	 0.116063
H	 3.3727359989	-4.3006537301	-0.8494278521	 0.116055
H	 2.257937771	-6.5287889496	-0.6159709925	 0.085024
H	 1.4277887317	-6.270634995	-2.1618504369	 0.085019
H	 3.43873629	-7.417171656	-2.4162752342	 0.285526
35.326	56.8632	66.2569	90.402	108.128	139.6483	150.6135	174.1077	231.4817	264.5311	271.1013	312.069	438.6004	490.7277	539.7204	779.7811	834.2696	891.0562	980.2701	1015.9799	1043.7698	1057.5049	1082.7576	1117.299	1158.9319	1169.2151	1177.8649	1178.0257	1193.644	1227.1387	1231.858	1240.2585	1247.0415	1290.5231	1304.0623	1306.2896	1318.8716	1358.8505	1423.0264	1461.3571	1466.827	1483.3297	1484.7524	1498.9158	1504.8761	1515.5357	1528.5582	1534.3282	1541.0554	2941.7986	2957.3694	2961.3734	2966.8209	2969.5396	2974.8595	2981.2116	2985.9955	3011.933	3014.1093	3051.5117	3097.7046	3113.1322	3831.4437
COCCOCCCO	COCCOCCCO	
InChI=1S/C6H14O3/c1-8-5-6-9-4-2-3-7/h7H,2-6H2,1H3	InChI=1S/C6H14O3/c1-8-5-6-9-4-2-3-7/h7H,2-6H2,1H3
