16
gdb 51836	3.52702	1.10411	0.87934	2.8093	67.91	-0.248	-0.0488	0.1993	1265.3593	0.123451	-475.024516	-475.016081	-475.015137	-475.058582	29.804	
N	 0.0120336928	 1.2577847236	 0.0149881656	-0.439301
C	 0.0154617625	 0.0022294794	-0.0802792745	 0.138974
O	-1.10845904	-0.687356806	 0.2443245341	-0.190091
C	-1.0841864565	-2.0818909955	 0.0426194951	-0.007965
C	-2.3199311822	-2.7554377162	 0.6425651591	-0.12489
O	-2.4929724956	-3.9403120095	-0.1330119579	-0.2497
C	-2.2225067947	-3.6218649211	-1.4871420202	-0.183221
C	-1.2112818341	-2.4805403673	-1.4453577087	 0.357259
O	-0.6498738128	-1.9519888444	-2.3651356544	-0.291022
H	 0.9248986394	 1.6286809381	-0.2398209505	 0.233882
H	 0.847851089	-0.6369475216	-0.3940160646	 0.102038
H	-0.1650983041	-2.5317446329	 0.4459880785	 0.117119
H	-2.2059231145	-3.0550109812	 1.6848232885	 0.131022
H	-3.1806862763	-2.0756935838	 0.5541224467	 0.123433
H	-1.8328178074	-4.5052302162	-2.00063312	 0.14762
H	-3.1225790455	-3.2787787955	-2.0239114467	 0.134843
64.6469	82.3936	119.6129	176.4319	231.2173	286.7462	383.5528	423.0528	527.2628	582.0564	662.8917	689.6471	752.4678	817.4216	934.5348	957.4186	1004.6737	1031.7046	1041.5628	1093.4575	1110.5372	1138.3755	1185.0337	1205.9418	1242.2295	1279.3105	1284.1584	1312.4779	1345.9955	1395.6263	1426.8669	1472.1336	1514.8879	1748.1519	1868.8998	2978.1025	2999.032	3009.6742	3063.9397	3094.1664	3128.0639	3522.4084
N=COC1COCC1=O	[NH][CH]O[C@H]1COCC1=O	
InChI=1S/C5H7NO3/c6-3-9-5-2-8-1-4(5)7/h3,5-6H,1-2H2	InChI=1S/C5H7NO3/c6-3-9-5-2-8-1-4(5)7/h3,5-6H,1-2H2/t5-/m0/s1
