16
gdb 55736	2.46532	1.40876	1.15269	2.8162	66.62	-0.2541	-0.0214	0.2328	1109.2936	0.122275	-475.059957	-475.051029	-475.050085	-475.093968	32.505	
N	-0.1273259873	 1.2789336104	-0.0906306671	-0.562369
C	 0.0174199219	-0.041575997	 0.21984441	 0.492072
O	 0.926033727	-0.5326401744	 0.8383570472	-0.393763
O	-1.086421791	-0.7285987137	-0.2289933779	-0.303196
C	-1.0044960071	-2.121345916	-0.128914788	 0.364008
C	-1.2029488695	-2.7778034693	 1.2208864611	-0.300447
C	-2.3047656125	-2.8244630009	 0.2107571187	-0.322895
C	-0.0964323986	-2.7696852325	-1.1097462974	 0.12544
O	 0.5504831278	-2.1780021011	-1.9337887739	-0.269942
H	 0.700520626	 1.8410731149	 0.0131782663	 0.272117
H	-0.764945221	 1.5250903972	-0.8293961778	 0.268686
H	-0.635915718	-3.6782936016	 1.4296319325	 0.133867
H	-1.2950197226	-2.0941841917	 2.0550801696	 0.148053
H	-3.1555253589	-2.167447769	 0.3463869329	 0.143119
H	-2.5206597459	-3.7583481009	-0.2964427997	 0.129966
H	-0.0722541404	-3.8804441745	-1.0236998765	 0.075284
70.7007	84.1131	147.1838	166.82	251.5838	309.0247	347.0644	411.754	439.9438	455.6761	505.9576	564.4255	666.3146	762.2936	772.1307	819.6631	859.934	895.483	953.7734	983.6551	1039.9441	1044.2904	1078.8237	1086.0226	1124.4941	1193.027	1287.8731	1320.4755	1366.6374	1434.5561	1455.7547	1488.9988	1614.2108	1828.8651	1856.7022	2869.5923	3143.2774	3149.2653	3231.577	3246.5383	3609.1634	3735.0202
NC(=O)OC1(CC1)C=O	NC(=O)OC1(CC1)C=O	
InChI=1S/C5H7NO3/c6-4(8)9-5(3-7)1-2-5/h3H,1-2H2,(H2,6,8)	InChI=1S/C5H7NO3/c6-4(8)9-5(3-7)1-2-5/h3H,1-2H2,(H2,6,8)
