16
gdb 133044	5.02661	0.97496	0.82232	2.7811	77.46	-0.201	-0.0205	0.1804	1319.7644	0.125269	-442.09097	-442.082994	-442.08205	-442.123704	29.82	
C	 0.0186935081	 1.4332003241	-0.1179465926	-0.323436
N	-0.0885486909	 0.0116283108	 0.1117098328	-0.344847
C	 0.5927779209	-0.6475033608	 1.1073185849	 0.412549
N	 0.6155371977	-1.9858293901	 0.9999720245	-0.338708
C	 1.2274321532	-2.6904219388	 1.949280504	-0.110697
C	 1.8462469223	-2.0996576159	 3.0402101155	 0.228935
F	 2.4489500568	-2.8611008563	 3.9641792204	-0.086782
C	 1.8407247259	-0.7179452544	 3.1609860705	-0.199728
C	 1.2068146327	 0.0286825079	 2.1796501909	-0.198672
H	 1.0559721033	 1.7714347549	-0.2655711498	 0.119776
H	-0.5545009137	 1.6891590306	-1.0111776705	 0.131458
H	-0.4055583017	 2.002300109	 0.7180970914	 0.132332
H	-0.3090480513	-0.5791064906	-0.6739629312	 0.24614
H	 1.2342592339	-3.7725587248	 1.8444141404	 0.116353
H	 2.3268606425	-0.2451100963	 4.0069600299	 0.115891
H	 1.1848098902	 1.1089692906	 2.2442396688	 0.099438
79.1973	144.9883	194.7832	209.0877	364.7228	378.7087	427.1525	441.1117	454.3746	537.4787	560.5041	655.9186	757.0835	771.3565	837.7957	862.9566	948.5286	958.7539	1025.0854	1092.4002	1138.1642	1157.2534	1185.5305	1276.1181	1283.7222	1306.788	1357.2275	1422.4155	1469.0066	1477.7027	1484.2719	1524.094	1558.1846	1618.2821	1659.0742	2983.9722	3048.1434	3125.2057	3161.3199	3196.1225	3214.0588	3637.9737
CNC1=NC=C(F)C=C1	CNc1ncc(F)cc1	
InChI=1S/C6H7FN2/c1-8-6-3-2-5(7)4-9-6/h2-4H,1H3,(H,8,9)	InChI=1S/C6H7FN2/c1-8-6-3-2-5(7)4-9-6/h2-4H,1H3,(H,8,9)
