18
gdb 47668	2.26541	1.87218	1.2225	3.5133	73.52	-0.2475	0.0051	0.2525	1040.6521	0.150342	-439.120529	-439.112605	-439.11166	-439.153173	30.25	
O	-0.0030466813	-0.001587373	 0.4379277091	-0.39342
C	-0.0005484275	 1.1725226917	 0.1540471597	 0.453911
N	-1.1182542152	 1.9305054714	-0.0020190543	-0.330104
C	-1.2680765235	 3.3848781319	 0.020849351	-0.138233
C	-0.068986378	 4.2052042082	 0.5464289888	-0.245483
C	 0.487397588	 3.7952282655	 1.8930802611	-0.057594
C	 1.4093402536	 2.8562609006	 2.1168891198	-0.054853
C	 2.0016760582	 1.9527714998	 1.0658931681	-0.146312
O	 1.1495137561	 1.8905186632	-0.081697118	-0.255297
H	-1.9622039083	 1.3948482575	 0.1287895874	 0.255029
H	-1.5087004034	 3.7557162065	-0.9845961733	 0.114832
H	-2.1409347979	 3.5941609284	 0.6505361166	 0.113066
H	 0.7202097308	 4.1972226328	-0.2051063135	 0.133852
H	-0.4314992649	 5.2375945291	 0.6145858649	 0.098691
H	 0.1049470172	 4.3420418089	 2.7522910291	 0.093297
H	 1.760801706	 2.6858478124	 3.1319874521	 0.094947
H	 2.9670829388	 2.322445877	 0.7025990894	 0.12518
H	 2.1574188312	 0.9433252682	 1.4647260319	 0.138491
77.956	113.9755	221.8613	260.6289	301.243	323.0072	420.462	489.3305	562.8548	592.0479	691.8489	711.4642	738.8162	805.6655	831.8957	847.4962	903.9374	930.6059	1001.0778	1008.8384	1042.4918	1063.6191	1113.334	1143.996	1226.8698	1269.7155	1275.3826	1279.9824	1325.5352	1368.0831	1392.592	1413.8885	1428.6276	1480.6926	1490.507	1492.914	1526.8139	1716.4555	1827.4927	3009.2861	3035.9182	3044.7895	3048.8885	3075.2247	3123.2085	3142.348	3165.0526	3633.6227
O=C1NCCC=CCO1	O=C1NCCC=CCO1	
InChI=1S/C6H9NO2/c8-6-7-4-2-1-3-5-9-6/h1,3H,2,4-5H2,(H,7,8)/b3-1-	InChI=1S/C6H9NO2/c8-6-7-4-2-1-3-5-9-6/h1,3H,2,4-5H2,(H,7,8)/b3-1-
