17
gdb 69571	2.94037	1.46901	1.1746	2.8531	74.44	-0.2365	-0.0238	0.2127	1087.4163	0.133919	-421.792461	-421.784084	-421.783139	-421.82537	31.333	
C	-0.1214534243	 1.5496058353	 0.0788542202	-0.512841
C	 0.1440092586	 0.084985543	-0.0030918112	 0.294019
O	-0.7428554276	-0.8393444907	 0.6766908594	-0.277196
C	 0.6569600367	-0.9293399286	 0.9563865427	-0.192155
C	 1.2537696157	-1.7843644303	-0.1474130377	 0.250362
C	 2.6111630123	-2.4370648709	-0.2354767746	-0.325364
C	 1.3634947246	-3.2738313761	-0.2941598589	-0.311108
C	 0.7502271956	-0.7519236959	-1.1494409436	 0.322656
O	 0.8967553797	-0.5877347298	-2.3255296266	-0.314719
H	 0.7586133056	 2.1171748391	-0.2382974717	 0.137667
H	-0.9529323352	 1.8245731764	-0.5780321525	 0.147212
H	-0.3808452857	 1.8360595024	 1.1013607774	 0.137996
H	 0.9914178999	-0.7850477623	 1.9768104244	 0.119201
H	 3.1697362743	-2.276322013	-1.1515923498	 0.137449
H	 3.2117661947	-2.4690850067	 0.6675375105	 0.123983
H	 1.108994506	-3.882925107	 0.5665140217	 0.126799
H	 1.0730436193	-3.692759695	-1.2518635195	 0.136038
94.796	156.6716	178.3538	194.8105	216.6028	271.2277	320.2597	455.2263	520.8898	549.5745	677.6629	751.9767	760.1373	786.6856	815.5462	886.9077	913.4846	938.2866	954.8705	978.0813	1017.7114	1029.6768	1061.8831	1082.5193	1092.7285	1192.3883	1203.3834	1219.9695	1232.9479	1393.5779	1398.4847	1447.256	1459.4335	1478.4437	1488.9686	1496.9487	1888.7586	3042.3436	3108.8645	3125.2858	3130.6655	3133.5487	3195.2156	3213.1911	3227.3642
CC12OC1C1(CC1)C2=O	C[C@]12O[C@H]1C1(CC1)C2=O	
InChI=1S/C7H8O2/c1-6-4(8)7(2-3-7)5(6)9-6/h5H,2-3H2,1H3	InChI=1S/C7H8O2/c1-6-4(8)7(2-3-7)5(6)9-6/h5H,2-3H2,1H3/t5-,6-/m1/s1
