14
gdb 16222	3.20011	2.41171	1.57347	2.9075	58.	-0.2602	0.0007	0.2609	790.2252	0.107595	-419.697978	-419.691287	-419.690343	-419.729036	24.738	
O	 0.0155877759	-0.0160967219	 0.0422983097	-0.346128
C	 0.0453210783	 1.1728687943	 0.1635616285	 0.399351
O	-1.0642256777	 1.9550523774	 0.3015184174	-0.232196
C	-0.6565307175	 3.3223901874	 0.2851263673	 0.016712
O	 0.7239584541	 3.3547364982	 0.568783537	-0.280924
C	 1.218617795	 2.0956151574	 0.1925752327	 0.261469
C	 2.5703535475	 1.6499528722	 0.6430505793	-0.315327
C	 2.3328484437	 1.9452262057	-0.8192941322	-0.317634
H	-0.8763588292	 3.7403760995	-0.7087330144	 0.115127
H	-1.1972014544	 3.8683505853	 1.0619818947	 0.136876
H	 3.143300298	 2.3701374253	 1.2156881269	 0.13766
H	 2.6634490095	 0.6153528844	 0.9536358119	 0.147293
H	 2.2695128903	 1.1148245661	-1.5133170961	 0.143018
H	 2.7389571866	 2.8679209387	-1.2173541627	 0.134703
99.4375	187.3841	226.4353	240.3343	411.0763	482.2256	570.524	725.539	738.9476	748.5179	773.2762	875.2933	919.7581	950.9506	984.7088	1021.6772	1057.2589	1076.44	1085.4784	1135.4851	1169.2445	1198.5398	1223.3786	1305.5521	1358.6044	1442.3733	1443.0284	1484.4379	1545.1802	1895.1105	2993.0993	3101.625	3140.8047	3141.7409	3230.8912	3244.2028
O=C1OCOC11CC1	O=C1OCOC21CC2	
InChI=1S/C5H6O3/c6-4-5(1-2-5)8-3-7-4/h1-3H2	InChI=1S/C5H6O3/c6-4-5(1-2-5)8-3-7-4/h1-3H2
