13
gdb 48188	1.63703	1.51752	1.36738	2.0529	76.97	-0.2617	-0.0454	0.2163	1089.7044	0.082844	-382.168481	-382.158792	-382.157848	-382.203081	34.433	
O	-0.1297019482	 0.0539228949	 0.0028830811	-0.218351
C	 0.0012014071	 1.2376983377	 0.0081037583	 0.16926
C	 1.3975246807	 1.9825257731	-0.000957576	-0.404704
C	 1.3842076492	 2.8221271664	-1.2087391751	 0.312698
C	 1.2994419047	 3.4804732241	-2.2089829611	-0.428802
C	 1.4069317354	 2.8089278395	 1.2159348497	 0.312702
C	 1.3409867758	 3.4563291768	 2.2247044075	-0.428805
C	 2.5065411631	 1.0264222534	-0.0165563472	 0.354332
C	 3.4045542968	 0.2321178524	-0.0292990494	-0.419531
H	-0.83977354	 1.9582581765	 0.0198482179	 0.119133
H	 1.2542543362	 4.0709413043	-3.0911572526	 0.212309
H	 1.3123461089	 4.0371498832	 3.1139474881	 0.212309
H	 4.2007838404	-0.4709572822	-0.0405758411	 0.20745
69.9183	114.6974	125.7833	133.6869	160.087	215.745	326.0931	367.0278	443.2379	483.2372	540.4901	544.6248	571.282	648.2388	649.9088	651.7124	660.6004	667.1048	667.3523	725.1671	948.0609	957.4802	1111.3506	1145.8115	1394.5676	1860.0711	2237.3167	2241.4606	2254.2693	2948.4646	3498.8977	3499.4757	3501.056
O=CC(C#C)(C#C)C#C	O=CC(C#C)(C#C)C#C	
InChI=1S/C8H4O/c1-4-8(5-2,6-3)7-9/h1-3,7H	InChI=1S/C8H4O/c1-4-8(5-2,6-3)7-9/h1-3,7H
