16
gdb 28240	4.78055	1.25218	1.00886	4.2016	72.53	-0.1689	0.0424	0.2113	1131.9127	0.12758	-434.090245	-434.082465	-434.08152	-434.12264	28.969	
N	 0.0195916007	 1.3554797125	 0.0768719898	-0.598461
C	-0.0128828605	-0.0383468546	 0.0745404221	 0.368872
N	-1.0982182185	-0.7772431211	 0.2637882923	-0.407433
C	-0.6053820305	-2.0449545658	 0.2199989021	 0.38857
C	 0.7239244805	-2.1155754725	-0.0155854278	 0.166607
C	 1.2168897294	-3.5131996126	 0.1407186829	-0.367666
C	-0.1907373154	-4.2217838133	 0.1654716972	-0.081226
O	-1.2228274974	-3.235669916	 0.4465498147	-0.282845
N	 1.1279219404	-0.7814859822	-0.0746377419	-0.408937
H	 0.4321954234	 1.7523263305	-0.7600582978	 0.247039
H	-0.923556478	 1.7082731332	 0.1852312093	 0.262931
H	 1.8240994912	-3.9101523	-0.6809844515	 0.108355
H	 1.7794303464	-3.6812072267	 1.0711544548	 0.109452
H	-0.4046349223	-4.656604021	-0.8171725163	 0.115053
H	-0.2642143768	-5.002435108	 0.9247788745	 0.118567
H	 2.0547465074	-0.4142646324	-0.2012387043	 0.261123
96.7639	126.1682	196.0482	237.2735	297.7895	308.5904	421.2727	521.5764	552.5634	667.8042	711.6329	727.3327	748.0314	802.3337	846.0159	861.4096	919.4176	996.5424	1023.9211	1075.8842	1127.7553	1149.1698	1190.6013	1227.0303	1250.5181	1291.7339	1354.2858	1407.9408	1469.6305	1479.9677	1502.6644	1517.8638	1584.897	1646.41	1668.0261	2983.4995	3031.5448	3048.4774	3115.5649	3518.8446	3617.7295	3678.4955
NC1=NC2=C(CCO2)N1	Nc1nc2c(CCO2)[nH]1	
InChI=1S/C5H7N3O/c6-5-7-3-1-2-9-4(3)8-5/h1-2H2,(H3,6,7,8)	InChI=1S/C5H7N3O/c6-5-7-3-1-2-9-4(3)8-5/h1-2H2,(H3,6,7,8)
