14
gdb 130921	3.53815	1.44034	1.16412	6.2438	68.94	-0.2599	-0.0542	0.2057	1012.2702	0.101748	-432.82429	-432.817126	-432.816182	-432.856803	25.582	
O	-0.570229267	 0.2584727059	 0.1841093958	-0.215784
C	-0.2015778623	 1.3410168384	-0.1773670526	 0.160459
C	 1.203737047	 1.8734636248	-0.0014650138	-0.082989
C	 1.4159584097	 2.7992382106	 1.2812320686	-0.407814
C	 2.3902962079	 1.7170001074	 1.7340288236	 0.321134
C	 3.3372254469	 1.0147114245	 2.4419300318	-0.204863
N	 3.6153551043	-0.1107029443	 1.7060339148	-0.174353
N	 2.9145707044	-0.1508969001	 0.5979008407	-0.171651
N	 2.1722898488	 0.9690262776	 0.6426535915	 0.11678
H	-0.8874361832	 2.0721017911	-0.6620059926	 0.093134
H	 1.567566172	 2.3172882757	-0.9333379298	 0.137418
H	 1.8526566067	 3.7740736842	 1.0598612277	 0.148734
H	 0.5250318547	 2.9245737907	 1.8998338843	 0.149734
H	 3.8295957202	 1.2039736736	 3.38011742	 0.130062
68.2016	90.4136	194.1624	228.2341	318.8676	448.876	638.508	675.046	693.9257	726.5585	764.8647	829.321	872.4546	921.9313	987.2167	1004.9755	1054.4057	1083.2975	1105.5391	1124.5566	1195.4587	1210.9301	1228.0014	1271.3981	1321.2544	1349.5808	1415.1458	1470.3607	1505.4279	1548.5826	1846.5647	2882.097	3075.1795	3083.2046	3139.3155	3288.5579
O=CC1CC2=CN=NN12	O=C[C@H]1Cc2cnnn12	
InChI=1S/C5H5N3O/c9-3-5-1-4-2-6-7-8(4)5/h2-3,5H,1H2	InChI=1S/C5H5N3O/c9-3-5-1-4-2-6-7-8(4)5/h2-3,5H,1H2/t5-/m1/s1
