19
gdb 112608	4.02963	0.82626	0.79696	2.9846	73.27	-0.2646	-0.0344	0.2302	1467.1473	0.157037	-460.156383	-460.146938	-460.145994	-460.191008	34.779	
O	 0.0285224	 1.366125481	-0.2770886509	-0.422101
C	 0.048207172	-0.0165949742	 0.0430439122	-0.09617
C	-1.3841027456	-0.5085595016	 0.0473900643	 0.050231
C	-2.1326182334	-0.579115192	-1.3090103413	-0.291781
C	-2.7157566726	-1.9731189775	-0.8962907274	 0.338785
O	-2.6901248549	-2.9822053181	-1.8532012821	-0.482844
C	-1.6250839026	-2.0296846029	 0.2281744105	-0.324559
C	-4.1011473833	-1.8439689047	-0.3162730306	 0.118418
O	-5.015241547	-2.5480988554	-0.6758390951	-0.284143
H	 0.9361438924	 1.6809252904	-0.3198434779	 0.289123
H	 0.6293949048	-0.5916668204	-0.6967958114	 0.084945
H	 0.5059329862	-0.1951963505	 1.0304129966	 0.087824
H	-1.95083462	 0.0768037602	 0.7785727511	 0.082242
H	-2.8326535975	 0.2209049898	-1.559832101	 0.110515
H	-1.4474945325	-0.7284844546	-2.1476773574	 0.122831
H	-3.5919017388	-3.3409125428	-1.8874020561	 0.289848
H	-0.7881037872	-2.6275928661	-0.1430563387	 0.122399
H	-1.9168262487	-2.3992020111	 1.2147325567	 0.106066
H	-4.2401781612	-1.0646327197	 0.4607375784	 0.098371
65.2402	92.7366	108.3145	207.1898	256.6904	274.2664	296.1918	350.7953	377.8172	419.7596	440.8824	510.5075	544.3432	690.9	821.2365	835.5707	849.6448	911.2117	936.5279	941.8015	1029.8212	1049.3778	1067.8532	1087.0634	1099.6213	1137.9085	1174.9434	1222.4518	1236.7716	1261.8278	1276.6474	1288.2154	1314.4842	1373.4557	1391.7029	1442.256	1461.9305	1467.6002	1492.4365	1520.4373	1805.8613	2927.3844	2955.5605	2983.7911	3057.1028	3058.8574	3065.8057	3115.6799	3123.9911	3678.1494	3830.5356
OCC1CC(O)(C1)C=O	OC[C@H]1C[C@@](O)(C1)C=O	
InChI=1S/C6H10O3/c7-3-5-1-6(9,2-5)4-8/h4-5,7,9H,1-3H2	InChI=1S/C6H10O3/c7-3-5-1-6(9,2-5)4-8/h4-5,7,9H,1-3H2/t5-,6+
