15
gdb 5593	3.3098	1.91377	1.27565	1.0151	63.66	-0.1754	0.0588	0.2342	926.3273	0.11877	-399.811232	-399.803246	-399.802302	-399.843777	29.064	
C	 0.1311898597	 1.1422393418	 0.3413322158	-0.244334
O	-0.4463152952	 0.084222998	-0.4119374056	-0.290613
C	 0.4074653403	-0.5038357052	-1.3146942813	 0.188525
C	 0.7270940925	-1.8394412622	-1.260982868	 0.292891
O	 0.3590936136	-2.8126310518	-0.3921606938	-0.443895
N	 1.5337101567	-2.1312137574	-2.3216305109	-0.295757
C	 1.7468121862	-0.9820874235	-3.0624138659	-0.090155
C	 1.0572359714	 0.0432816281	-2.4642413902	-0.258595
H	 1.0119718949	 0.8003894892	 0.9012912886	 0.111188
H	 0.4304956746	 1.9781624011	-0.3037326304	 0.118347
H	-0.6346666711	 1.4894539858	 1.0393106792	 0.123691
H	-0.2581872111	-2.4009908405	 0.2250703342	 0.308384
H	 1.8913527316	-3.0475550905	-2.5249355282	 0.267029
H	 2.3683176616	-1.0015683655	-3.9414380241	 0.11649
H	 1.0159746942	 1.0655517628	-2.8060190894	 0.096805
54.3671	167.9799	173.0644	263.5682	267.0178	345.172	393.4931	405.6059	510.8626	618.05	625.4397	639.6243	705.2264	753.0595	799.8706	907.1127	1030.651	1082.7942	1099.453	1170.6967	1179.7133	1205.8771	1217.6831	1283.7606	1385.1763	1412.0047	1479.1926	1487.5186	1505.7873	1522.2595	1565.6387	1671.6106	3000.8654	3060.6329	3117.5827	3251.4924	3280.8767	3691.7866	3801.2738
COC1=C(O)NC=C1	COc1c(O)[nH]cc1	
InChI=1S/C5H7NO2/c1-8-4-2-3-6-5(4)7/h2-3,6-7H,1H3	InChI=1S/C5H7NO2/c1-8-4-2-3-6-5(4)7/h2-3,6-7H,1H3
