18
gdb 92036	2.85511	1.61798	1.22178	2.242	69.92	-0.2442	0.0628	0.3071	1022.6025	0.14986	-439.041709	-439.034376	-439.033432	-439.073308	29.606	
O	-0.0134553535	 1.4284895421	 0.0432983329	-0.436666
C	 0.0333102022	 0.0092610161	-0.0363610759	 0.129192
C	 0.8765037453	-0.5757625979	 1.1161329525	-0.264821
C	 0.8322370268	-2.0952685609	 1.194122361	 0.010884
O	 0.0086883951	-2.6658371675	 2.2211549822	-0.241794
C	-0.4281869972	-2.7829586038	 0.871484588	 0.075531
C	-1.6045554812	-1.9608062929	 0.4099551656	-0.076731
N	-1.9935526668	-0.7958345455	 1.2236222822	-0.333677
C	-1.3640974272	-0.577347963	-0.089037555	-0.062255
H	-0.4854461871	 1.6425707515	 0.857038393	 0.283816
H	 0.5257374902	-0.2003445706	-0.9943799012	 0.089041
H	 1.904871199	-0.2226740213	 1.0031544707	 0.10635
H	 0.48915649	-0.181138429	 2.0603772058	 0.128531
H	 1.770711714	-2.6271404123	 1.0420372246	 0.093087
H	-0.3971052499	-3.7961465829	 0.4699897207	 0.086867
H	-2.4031040906	-2.5282682702	-0.0609694839	 0.084828
H	-2.9992684871	-0.6630687586	 1.1685400154	 0.237622
H	-1.9804183719	-0.2094674332	-0.9061737887	 0.090195
112.7192	195.8798	256.0325	342.7791	389.6094	402.8686	406.4137	496.7514	580.9077	608.3821	698.9986	765.0583	819.3655	851.1829	861.2862	909.698	919.2722	975.2819	977.081	1029.4897	1055.8027	1071.7679	1097.4796	1112.4042	1133.6356	1170.2214	1193.0746	1219.3734	1248.5977	1281.6348	1294.5801	1335.4709	1366.8332	1379.9093	1396.3749	1434.2809	1452.0278	1465.8025	1474.0818	3034.2307	3059.3639	3099.2213	3105.2078	3119.7436	3133.3335	3144.1456	3514.2386	3789.0072
OC1CC2OC2C2NC12	O[C@H]1C[C@H]2O[C@H]2[C@H]2N[C@@H]12	
InChI=1S/C6H9NO2/c8-2-1-3-6(9-3)5-4(2)7-5/h2-8H,1H2	InChI=1S/C6H9NO2/c8-2-1-3-6(9-3)5-4(2)7-5/h2-8H,1H2/t2-,3+,4-,5-,6+/m0/s1
