19
gdb 121323	3.30989	1.02495	0.82711	1.2091	72.75	-0.2294	-0.0329	0.1966	1407.7065	0.157748	-460.169345	-460.1601	-460.159156	-460.204322	32.919	
C	-0.0968355638	 1.5056593496	-0.0140898498	-0.386453
C	 0.1130543032	 0.0044830187	 0.0661490988	-0.050493
O	 0.5768290063	-0.4427840926	-1.2077802937	-0.254772
C	 0.7715655976	-1.8243323183	-1.3073644028	 0.013921
C	 0.9070060491	-2.2661406369	-2.76832379	-0.125282
O	 1.6802569109	-3.4639368653	-2.724835411	-0.250306
C	 2.6912986698	-3.2913623186	-1.7476473257	-0.180094
C	 2.1149460244	-2.3161811124	-0.7224097468	 0.350136
O	 2.6273803349	-1.9611953573	 0.3060317921	-0.299922
H	 0.8443105788	 2.0128583706	-0.2440667372	 0.130504
H	-0.8214552683	 1.7543249235	-0.7947897349	 0.124212
H	-0.4699662692	 1.8856761055	 0.9415477943	 0.118185
H	 0.8431510592	-0.251715167	 0.8418643016	 0.127484
H	-0.8320369815	-0.509441965	 0.309091028	 0.085901
H	-0.04139237	-2.3867145872	-0.8157390169	 0.095428
H	-0.0417108049	-2.5012042303	-3.2524641077	 0.12239
H	 1.4134319778	-1.471039592	-3.3372297422	 0.111549
H	 2.9420371832	-4.2591551619	-1.3038938201	 0.141314
H	 3.6126064727	-2.8581614531	-2.1722541559	 0.126298
59.3941	68.8233	109.0239	163.8887	224.7739	248.2845	267.2342	360.7974	387.7976	475.129	579.9023	625.6191	661.1535	738.4439	824.8796	895.4101	934.0016	959.7081	1020.2683	1061.5817	1088.7444	1095.5655	1137.7934	1157.9376	1184.4526	1187.4509	1206.4665	1243.2453	1285.9269	1297.8781	1308.5379	1338.2048	1386.147	1403.7125	1438.2172	1472.2523	1483.4463	1501.44	1514.6337	1529.0681	1857.5323	2955.5171	2968.3228	2972.1338	2996.6478	3045.4992	3064.5858	3089.8783	3120.4997	3122.11	3123.2943
CCOC1COCC1=O	CCO[C@H]1COCC1=O	
InChI=1S/C6H10O3/c1-2-9-6-4-8-3-5(6)7/h6H,2-4H2,1H3	InChI=1S/C6H10O3/c1-2-9-6-4-8-3-5(6)7/h6H,2-4H2,1H3/t6-/m0/s1
