21
gdb 61262	2.23411	1.30479	0.86908	3.761	83.61	-0.2244	0.0338	0.2583	1352.6431	0.182452	-383.265562	-383.25606	-383.255116	-383.30033	34.806	
C	-0.0498644042	 1.4718527397	-0.0095867136	-0.400529
C	 0.0005242141	-0.058890505	-0.0159072976	 0.041962
C	 0.8504113462	-0.5315446932	-1.2217218117	-0.332502
C	 0.7482498533	-1.9587535064	-1.5179457643	 0.266188
N	 0.6542648292	-3.0838663534	-1.765797271	-0.319191
N	 0.5804389859	-0.5380699548	 1.2244799517	-0.067038
C	 0.5095643136	-1.9797393016	 1.5756998256	-0.15786
C	 0.3116347342	-1.5723339862	 3.0528870294	-0.241485
C	-0.0805142906	-0.1827062977	 2.5009984337	-0.163155
H	 0.9579063117	 1.8887974451	 0.0864284286	 0.127059
H	-0.5000035023	 1.8491941113	-0.932439715	 0.117878
H	-0.6496572252	 1.839205028	 0.8269181842	 0.127391
H	-1.0289314898	-0.4454976463	-0.1550385085	 0.067441
H	 0.5401809542	 0.0149016826	-2.1190593917	 0.147705
H	 1.8994839816	-0.2813903735	-1.0296271223	 0.155793
H	-0.3787309279	-2.4795073081	 1.1597542871	 0.101615
H	 1.3934232023	-2.5652612939	 1.3106356469	 0.115969
H	-0.4432285869	-2.1132641426	 3.6233373342	 0.107631
H	 1.2483167433	-1.5517333693	 3.6124590605	 0.114885
H	 0.3178381391	 0.7070697932	 2.9985145508	 0.103554
H	-1.1743120119	-0.075882778	 2.4059223031	 0.08669
56.3009	97.0115	149.635	155.6043	201.1327	237.4524	296.0345	322.1314	392.7928	408.5927	459.3046	565.2517	640.3497	748.3036	847.4491	876.3931	901.1903	922.8491	944.1656	959.6976	989.3014	1043.0084	1064.1361	1111.6487	1123.5153	1147.69	1152.0236	1210.3217	1221.2226	1230.0858	1259.6117	1270.8361	1296.7124	1307.0011	1341.461	1371.1619	1384.1372	1410.2791	1452.88	1488.3744	1491.4396	1501.1128	1502.8006	1530.4074	2358.4858	2897.6243	2959.024	2990.169	3040.9413	3047.3504	3063.6838	3083.668	3091.3092	3091.7305	3114.2953	3121.7494	3144.3896
CC(CC#N)N1CCC1	C[C@@H](CC#N)N1CCC1	
InChI=1S/C7H12N2/c1-7(3-4-8)9-5-2-6-9/h7H,2-3,5-6H2,1H3	InChI=1S/C7H12N2/c1-7(3-4-8)9-5-2-6-9/h7H,2-3,5-6H2,1H3/t7-/m0/s1
