18
gdb 32769	3.16013	1.05133	0.81234	0.7987	77.21	-0.1838	0.0425	0.2263	1402.6475	0.147258	-439.10166	-439.092276	-439.091332	-439.13662	33.614	
C	-0.1898353372	 1.3638733496	 0.0903669214	-0.220658
O	-0.2571530808	-0.0323743908	 0.2555882289	-0.245841
C	 0.876561515	-0.5578699546	 0.9364095989	-0.192753
C	 0.7559455923	-2.0364344362	 0.9914233238	 0.221169
C	 1.0252416182	-2.938159224	 1.9976660667	 0.235402
O	 1.4888458027	-2.5718936708	 3.2320695943	-0.454122
C	 0.7679360635	-4.2481376342	 1.5064129571	-0.281866
C	 0.3383506076	-4.1050327496	 0.2036704944	-0.074516
N	 0.358306399	-2.7763973595	-0.104823555	-0.287837
H	 0.6997401958	 1.6668067483	-0.485435256	 0.102028
H	-1.0856699565	 1.6733950327	-0.4536854373	 0.125136
H	-0.1634367221	 1.8887689642	 1.0581552418	 0.107037
H	 1.790414679	-0.2355600297	 0.4028270527	 0.09052
H	 0.9486970985	-0.1630521463	 1.9611878667	 0.114061
H	 1.4888714087	-3.348583235	 3.7981022576	 0.294963
H	 0.891306613	-5.1778999566	 2.0416423699	 0.08641
H	 0.0180931176	-4.8426148967	-0.5141915082	 0.11625
H	-0.0265205443	-2.353886911	-0.9316333977	 0.264616
43.7003	95.121	117.43	179.5932	222.587	247.0347	285.6615	343.6223	349.5904	477.7539	502.6026	636.0424	657.7529	677.7264	703.5735	780.8919	796.1852	917.5634	968.152	1013.0648	1081.4078	1090.7027	1141.0762	1155.236	1183.4471	1217.721	1239.1523	1267.762	1304.4067	1332.3681	1410.4937	1454.8481	1479.2594	1484.6371	1502.5048	1504.6653	1518.2765	1523.3811	1674.3649	2920.2358	2968.8251	3005.0647	3013.0459	3112.1039	3237.13	3268.9885	3685.1973	3847.0434
COCC1=C(O)C=CN1	COCc1c(O)cc[nH]1	
InChI=1S/C6H9NO2/c1-9-4-5-6(8)2-3-7-5/h2-3,7-8H,4H2,1H3	InChI=1S/C6H9NO2/c1-9-4-5-6(8)2-3-7-5/h2-3,7-8H,4H2,1H3
