18
gdb 40849	5.05705	1.27473	1.18147	2.7672	75.68	-0.2387	0.0723	0.311	1061.4052	0.1485	-401.819468	-401.812526	-401.811582	-401.851058	27.457	
C	-0.1396276043	 1.6276756475	-0.0774208327	-0.262604
C	 1.3615092727	 1.3458876013	 0.024029151	 0.001847
C	 1.1915134732	 0.1682433553	 1.0334545368	-0.167888
C	 0.0020482515	 0.1069990293	 0.0254336743	 0.001847
N	 1.2405812142	 0.1121847292	-0.9204523367	-0.204522
C	 1.9981694756	-0.7179714287	 0.1012517169	 0.332665
C	 3.5247430004	-0.8493926576	 0.0201093612	-0.154761
O	 3.4299029497	-2.2891761012	-0.0201601216	-0.277231
C	 1.9875700035	-2.2502380677	 0.0216981601	-0.154761
H	-0.6059150437	 2.140301712	 0.767480152	 0.102907
H	-0.4937554638	 2.0151817498	-1.0360937315	 0.113691
H	 2.2093726966	 2.0263031433	-0.067346475	 0.08842
H	 1.1555966055	 0.2088956224	 2.1272872514	 0.070374
H	-0.7540638846	-0.6743026344	-0.0642844961	 0.08842
H	 3.9706146314	-0.4357096687	-0.8936669584	 0.110488
H	 4.0904374618	-0.4977480703	 0.8927620033	 0.100311
H	 1.5860373779	-2.7800393383	 0.8953508015	 0.100311
H	 1.5333440231	-2.6568257929	-0.8911476066	 0.110488
80.0346	156.402	237.6076	292.4086	438.8343	461.0822	535.3043	713.7136	809.8994	821.0063	839.7195	850.4472	862.1184	882.0705	926.0915	943.6396	981.6623	1023.1286	1025.4759	1033.8358	1034.3277	1093.5574	1110.5756	1131.828	1138.3113	1150.8313	1155.2742	1174.8617	1188.6386	1206.27	1233.9913	1236.242	1304.757	1308.9277	1328.8715	1399.1898	1494.0163	1495.804	1522.718	3000.3589	3011.8662	3047.4206	3050.8679	3051.6202	3059.5362	3103.472	3109.3331	3125.9241
C1C2C3C1N2C31COC1	C1[C@H]2[C@H]3[C@@H]1N2C13COC1	
InChI=1S/C7H9NO/c1-4-6-5(1)8(4)7(6)2-9-3-7/h4-6H,1-3H2	InChI=1S/C7H9NO/c1-4-6-5(1)8(4)7(6)2-9-3-7/h4-6H,1-3H2/t4-,5+,6-
