12
gdb 133276	2.57204	1.62637	1.00248	2.3567	66.09	-0.2705	-0.1007	0.1698	1069.2723	0.074031	-509.979228	-509.971394	-509.97045	-510.012329	27.613	
C	-0.1376856855	 1.4382603984	 0.00341607	-0.343843
N	-0.1310160652	-0.0078361583	-0.0804075352	-0.265041
C	 0.5812537533	-0.6118227257	-0.9361652112	 0.281061
N	 1.4295803129	 0.0497136104	-1.8826336165	-0.162336
N	 2.1141711562	-0.5459344737	-2.7054377783	 0.075366
O	 2.0898303059	-1.9816872173	-2.7521382335	-0.235612
N	 1.3075212723	-2.7198147705	-1.8865093962	-0.121028
C	 0.6107258595	-2.0597825524	-1.0466714848	 0.334552
F	-0.1325922468	-2.7587686092	-0.2217896839	-0.012386
H	 0.509034743	 1.9452872988	-0.7180331131	 0.147484
H	-1.1712118694	 1.778708105	-0.1252321325	 0.150891
H	 0.1552788337	 1.7183352346	 1.0214337353	 0.150892
58.1117	120.9923	191.8226	210.4324	312.8151	343.6299	441.4293	495.5851	552.9964	569.8795	574.651	590.343	734.9273	781.4204	933.128	973.4228	1063.2116	1118.3886	1121.4909	1198.3613	1418.9872	1434.9963	1484.8442	1485.1598	1638.7845	1677.6738	1736.2984	3028.5311	3087.6132	3115.9386
CN=C1N=NON=C1F	C[N]C1=N[N]ON=C1F	
InChI=1S/C3H3FN4O/c1-5-3-2(4)7-9-8-6-3/h1H3	InChI=1S/C3H3FN4O/c1-5-3-2(4)7-9-8-6-3/h1H3
