21
gdb 58486	2.16769	1.29019	1.06617	2.1812	85.63	-0.2372	0.0508	0.288	1266.6694	0.17906	-387.048449	-387.038005	-387.03706	-387.083337	39.405	
C	 0.1406489502	 1.4063678785	-0.3323895394	-0.416424
C	 0.0037093079	-0.0099955994	 0.2320929634	 0.066958
O	 0.4807996288	-0.0781053387	 1.5736422786	-0.436374
C	-1.4163629961	-0.5641764936	 0.1169709129	 0.349063
C	-2.4549655926	 0.0887859743	 1.0096220873	-0.486294
C	-1.8568936745	-1.0701639405	-1.2277259286	-0.332078
C	-1.5838385423	-2.0682697742	-0.1085936521	-0.257588
C	-0.4662519246	-2.9615118863	-0.1934177637	 0.335227
C	 0.458286528	-3.728104824	-0.2693410208	-0.453375
H	 1.1797736906	 1.7374100397	-0.254235451	 0.125192
H	-0.1603717729	 1.4463159515	-1.3834934374	 0.12106
H	-0.4835364885	 2.1197104737	 0.2192223515	 0.107998
H	 0.6682514775	-0.6765118096	-0.3270728387	 0.100063
H	 0.0876511893	 0.6509879226	 2.0644068693	 0.277439
H	-2.5785411822	 1.1526110234	 0.7772331057	 0.118651
H	-3.4328237909	-0.385678493	 0.8857894215	 0.119888
H	-2.175618247	-0.0033002717	 2.0644871212	 0.123675
H	-2.8881271942	-0.9227439367	-1.5308680103	 0.113188
H	-1.140944244	-1.0526439122	-2.0425357695	 0.122223
H	-2.464130636	-2.501957175	 0.3585539868	 0.108864
H	 1.2792176135	-4.3989031189	-0.3232958668	 0.192646
62.0829	114.9932	141.1973	219.6773	220.9272	244.3826	264.6813	287.6521	301.665	333.0841	391.8443	449.2128	509.4463	536.8934	576.4666	608.2475	650.7575	703.9653	789.1348	858.3768	889.3501	925.8681	944.2037	997.7305	1032.0572	1067.9183	1076.7799	1091.4831	1110.2819	1127.3922	1137.5328	1252.4212	1300.2295	1314.4806	1368.7105	1397.1528	1403.9824	1414.7138	1431.5552	1483.7436	1489.9213	1492.7327	1501.7346	1507.8972	2233.6813	3026.8772	3031.9412	3061.8666	3091.8367	3100.1412	3104.3317	3119.9196	3129.4651	3137.942	3217.4783	3505.7123	3812.4799
CC(O)C1(C)CC1C#C	C[C@@H](O)[C@@]1(C)C[C@H]1C#C	
InChI=1S/C8H12O/c1-4-7-5-8(7,3)6(2)9/h1,6-7,9H,5H2,2-3H3	InChI=1S/C8H12O/c1-4-7-5-8(7,3)6(2)9/h1,6-7,9H,5H2,2-3H3/t6-,7-,8-/m1/s1
