21
gdb 120263	3.1981	1.00426	0.89157	1.8089	77.97	-0.2495	0.0729	0.3224	1399.1457	0.181565	-424.189627	-424.180381	-424.179436	-424.224064	34.683	
C	-0.0548947463	 1.5902888004	 0.0173988343	-0.37973
C	 0.0943751187	 0.0668812783	 0.0175467477	-0.168619
C	 0.6347845459	-0.4807382065	-1.3098205356	-0.185492
C	 0.7598070623	-1.9990270373	-1.3260490062	-0.071978
C	 1.4161387787	-2.6673206207	-2.539185799	 0.007392
O	 2.7981327358	-2.2624468321	-2.5599052865	-0.263016
C	 2.415179735	-3.360125273	-1.7114325216	-0.020202
C	 1.8826031399	-2.6979882225	-0.4316998872	 0.107984
O	 2.7927562809	-1.8862113347	 0.2582189936	-0.427341
H	 0.9083372308	 2.0821508895	-0.1586162059	 0.113937
H	-0.7427867422	 1.9229828311	-0.7683669942	 0.110174
H	-0.4424368037	 1.953359645	 0.974453982	 0.110648
H	 0.7681920691	-0.2413355865	 0.8242903671	 0.119925
H	-0.8790526693	-0.3960451147	 0.229685245	 0.087266
H	-0.0249497109	-0.1709493468	-2.1325676363	 0.091181
H	 1.6129516183	-0.0334649424	-1.5231908255	 0.095975
H	-0.2080685267	-2.4677538627	-1.112682497	 0.074473
H	 0.9823238424	-2.9583657062	-3.4889053844	 0.105462
H	 2.938403359	-4.2986189672	-1.8539859795	 0.106537
H	 1.4590472078	-3.3990222581	 0.2906591222	 0.092889
H	 3.2884129746	-1.407824423	-0.4189626332	 0.292537
77.4995	89.9681	105.5499	182.3692	231.0974	249.9075	287.6761	347.0944	445.664	489.0191	594.3027	648.9899	712.446	748.6128	789.6144	848.8857	864.5639	897.7257	906.8097	913.3979	939.2268	1008.4672	1044.4715	1054.5418	1061.2674	1104.3093	1140.0331	1145.4229	1195.1685	1226.0278	1239.3084	1258.1946	1264.4719	1299.6404	1305.019	1328.4873	1368.0182	1377.4707	1401.7506	1412.1011	1440.4664	1486.5253	1495.3413	1499.1289	1510.7523	3009.9212	3015.7565	3027.5179	3039.2016	3057.0286	3071.9641	3095.4647	3096.8175	3100.7449	3179.675	3194.8598	3772.186
CCCC1C2OC2C1O	CCC[C@H]1[C@H]2O[C@H]2[C@H]1O	
InChI=1S/C7H12O2/c1-2-3-4-5(8)7-6(4)9-7/h4-8H,2-3H2,1H3	InChI=1S/C7H12O2/c1-2-3-4-5(8)7-6(4)9-7/h4-8H,2-3H2,1H3/t4-,5+,6-,7+/m1/s1
