18
gdb 52898	1.90139	1.29187	0.8698	3.276	83.96	-0.2332	-0.0233	0.2099	1387.8071	0.143808	-401.903131	-401.89283	-401.891886	-401.940017	35.37	
C	 0.1011656945	 1.5353443317	 0.0819474461	-0.504897
C	 0.0630212965	 0.0811426565	 0.0754280847	 0.134296
C	 0.0458296324	-1.1232081095	 0.0716492237	-0.008445
C	 0.0458562665	-2.5579125429	 0.0156415167	 0.021465
C	-0.4597310018	-3.345352209	 1.2114377407	-0.266214
N	-1.2201325777	-3.3417072217	-0.0083504376	-0.120422
C	-2.4771638266	-2.602475555	-0.026823141	-0.316068
C	 1.1191984397	-3.2221371609	-0.803849868	 0.125633
O	 2.060579377	-2.6639858091	-1.298404304	-0.248044
H	 1.1197911488	 1.8965861766	-0.0958792079	 0.160326
H	-0.5409979114	 1.9549066003	-0.7001978878	 0.152103
H	-0.2333142498	 1.9405065964	 1.0432240594	 0.149346
H	 0.0205884556	-4.2833358937	 1.4815116816	 0.125776
H	-0.7993021064	-2.7369969426	 2.0482390651	 0.127906
H	-2.4614117499	-1.6913037336	 0.586576785	 0.119305
H	-2.7125124107	-2.3231100868	-1.0573636144	 0.134841
H	-3.2651083888	-3.26654074	 0.340557924	 0.129607
H	 0.9474326222	-4.3162781067	-0.9062496063	 0.083486
21.0073	77.5829	92.0223	113.389	192.44	210.2788	247.2526	275.9907	324.8416	381.3633	431.7868	448.2865	536.1428	567.8105	671.4473	738.2279	892.1733	917.203	1011.921	1047.4218	1049.9458	1054.1868	1059.2158	1107.1122	1128.1145	1155.289	1205.4229	1319.7386	1341.7432	1413.0489	1415.6489	1447.9508	1475.2423	1476.9468	1486.7764	1492.1007	1503.5999	1835.0182	2368.1112	2897.5365	3008.1088	3029.0662	3087.3637	3088.8962	3089.833	3094.0196	3118.1669	3177.5698
CC#CC1(CN1C)C=O	CC#C[C@]1(CN1C)C=O	
InChI=1S/C7H9NO/c1-3-4-7(6-9)5-8(7)2/h6H,5H2,1-2H3	InChI=1S/C7H9NO/c1-3-4-7(6-9)5-8(7)2/h6H,5H2,1-2H3/t7-,8?/m0/s1
