16
gdb 68004	2.99237	1.69437	1.29395	3.3096	67.37	-0.2275	-0.0162	0.2113	957.9669	0.125087	-437.84685	-437.839786	-437.838842	-437.878085	28.671	
O	-0.0528966533	 1.3284375887	 0.0281165012	-0.471549
C	 0.0357047602	-0.0596457796	-0.0257033192	 0.395928
C	 1.0420979621	-0.7166172786	-0.9582478601	-0.418255
C	 0.3897759712	-2.0710620723	-1.2976755327	 0.475161
O	 0.7226041295	-2.8395970945	-2.1572023798	-0.32153
C	-0.7738437691	-2.2225355118	-0.3117715458	-0.166203
N	-0.0770838588	-2.2474465185	 1.0444385141	-0.344144
C	-0.439426122	-0.8218876663	 1.1988189776	-0.090667
C	-1.2924594339	-0.788384239	-0.0550874009	-0.148352
H	 0.694865721	 1.6587887616	 0.5383071846	 0.288899
H	 1.1552594625	-0.119972589	-1.8689565738	 0.136286
H	 2.0359343078	-0.8769396998	-0.5285722514	 0.133459
H	-1.4532988256	-3.0472050264	-0.5134065764	 0.093157
H	-0.6521710504	-2.8044368577	 1.6713202707	 0.231032
H	-0.5556665259	-0.340597371	 2.1631050452	 0.099076
H	-2.2415634154	-0.3326113258	-0.3038604334	 0.107703
110.8876	273.103	300.6581	330.207	360.1753	436.1004	460.7831	536.777	562.5505	640.9768	721.5788	764.7602	780.4716	817.1447	871.9857	898.7695	933.6493	969.1249	987.4875	1007.3251	1016.5013	1059.3605	1115.9741	1151.6142	1156.5396	1200.6727	1209.3635	1231.8269	1258.7918	1310.6517	1324.8847	1370.8502	1429.4378	1457.619	1863.9363	3054.8704	3101.2638	3150.0846	3180.4119	3204.2623	3497.0328	3796.476
OC12CC(=O)C3NC1C23	O[C@@]12CC(=O)[C@H]3N[C@@H]1[C@@H]23	
InChI=1S/C6H7NO2/c8-2-1-6(9)3-4(2)7-5(3)6/h3-5,7,9H,1H2	InChI=1S/C6H7NO2/c8-2-1-6(9)3-4(2)7-5(3)6/h3-5,7,9H,1H2/t3-,4+,5+,6+/m0/s1
