14
gdb 31470	6.8944	0.91929	0.81534	3.2254	74.24	-0.2212	-0.0127	0.2084	1336.166	0.099858	-436.674591	-436.666329	-436.665385	-436.707862	29.594	
C	 0.0273323123	 1.4017393958	-0.0658944504	-0.249363
O	 0.0230787607	-0.0291903627	-0.036504961	-0.256209
C	 0.5974886208	-0.6653385738	-1.0433761809	 0.496317
N	 0.6839018664	-1.9451615222	-1.1786563357	-0.405011
C	 1.37168915	-2.0991891936	-2.3922619664	 0.127324
C	 1.653589615	-0.874059581	-2.9068951838	-0.135808
O	 1.1553087048	 0.0701401783	-2.0392049586	-0.187508
C	 1.690980864	-3.3631773758	-2.9394097003	 0.23455
C	 1.9659833094	-4.4354374759	-3.4108687275	-0.409573
H	 1.0498087918	 1.7903755894	-0.0674727527	 0.143118
H	-0.5040861998	 1.7769391409	-0.9452925451	 0.143097
H	-0.4885130073	 1.7110459483	 0.8424880323	 0.150331
H	 2.1502189935	-0.5141348324	-3.7895254926	 0.155308
H	 2.2063350784	-5.3839325952	-3.8227444573	 0.193426
62.8658	136.7985	139.7073	172.5318	252.841	311.2152	447.2208	466.0001	553.0929	578.9869	618.2496	661.1348	665.9479	726.8132	735.9781	751.0719	957.7708	995.1583	1083.5867	1126.9565	1178.3528	1196.2168	1238.5677	1287.2088	1370.7639	1482.4704	1487.8857	1499.3262	1594.3932	1675.1684	2242.6123	3042.9869	3115.4713	3162.5989	3308.8365	3505.8379
COC1=NC(=CO1)C#C	COc1nc(co1)C#C	
InChI=1S/C6H5NO2/c1-3-5-4-9-6(7-5)8-2/h1,4H,2H3	InChI=1S/C6H5NO2/c1-3-5-4-9-6(7-5)8-2/h1,4H,2H3
