19
gdb 111229	2.66551	1.53322	1.45264	1.7062	75.39	-0.2357	0.0052	0.2409	1024.2083	0.160093	-422.997699	-422.989842	-422.988898	-423.030141	30.413	
C	 0.0187041058	 1.3349728766	 0.2437932453	-0.239799
O	-0.0382983492	 0.053232472	-0.3446436188	-0.235796
C	-1.2502817478	-0.5959638133	-0.1397411642	 0.141151
C	-1.3298507375	-2.0655879752	-0.5846529335	 0.022799
C	-0.0342564766	-2.8281350218	-0.2668792328	-0.26081
C	 0.3517633617	-2.581562326	 1.1757340514	-0.053029
C	-0.4198150043	-1.7922901454	 1.9229418124	-0.048674
C	-1.6408480069	-1.2252387919	 1.2421510943	-0.021761
O	-2.2974271043	-2.2877734115	 0.4800726138	-0.297182
H	 0.982571741	 1.7736907364	-0.0232536784	 0.130403
H	-0.7864596565	 1.9871888463	-0.1279675439	 0.107498
H	-0.0550469221	 1.2811690873	 1.3400650412	 0.11038
H	-2.0950971617	-0.0161395372	-0.5367064228	 0.080473
H	-1.7368498187	-2.3001280342	-1.5715314027	 0.076994
H	-0.1794180217	-3.9001721847	-0.451869982	 0.111786
H	 0.7654756024	-2.4938120838	-0.9400095395	 0.120831
H	 1.2458560913	-3.0599084565	 1.564720027	 0.093091
H	-0.2030277434	-1.5535198302	 2.9584313823	 0.089133
H	-2.3385601513	-0.7051514267	 1.9009887008	 0.072513
77.7284	158.6071	179.2469	238.5873	293.6023	365.445	448.4153	488.9283	564.7703	611.1627	679.9821	731.6215	831.1718	840.4713	887.6304	915.0793	931.8828	964.2265	991.5074	1020.4951	1032.8061	1051.2736	1092.6419	1125.6471	1171.0532	1176.3827	1185.1239	1216.9163	1245.1623	1246.2349	1310.7994	1320.9396	1335.9357	1373.0619	1379.7162	1406.2573	1456.1393	1483.8905	1489.2084	1504.8712	1696.2945	2979.1336	3010.1667	3022.8633	3029.1933	3056.7108	3079.8282	3095.8183	3120.5661	3164.9702	3192.5719
COC1C2CC=CC1O2	CO[C@H]1[C@H]2CC=C[C@@H]1O2	
InChI=1S/C7H10O2/c1-8-7-5-3-2-4-6(7)9-5/h2-3,5-7H,4H2,1H3	InChI=1S/C7H10O2/c1-8-7-5-3-2-4-6(7)9-5/h2-3,5-7H,4H2,1H3/t5-,6+,7+/m0/s1
