17
gdb 118384	3.24449	0.83115	0.69858	6.7411	74.18	-0.2858	0.0127	0.2985	1579.1187	0.134225	-418.019479	-418.009431	-418.008487	-418.055775	33.635	
C	 0.0044950034	 1.3620104762	 0.0705121235	-0.236249
O	-0.0350117988	-0.0473796668	-0.0157348202	-0.2293
C	 0.6555869553	-0.5540093174	-1.1220691039	-0.062422
C	 0.6380927832	-2.0883513482	-1.0190391355	-0.169704
C	 1.2556192163	-2.7266329915	-2.2904812395	-0.356807
C	 1.0951060376	-4.1772106316	-2.3388502419	 0.273046
N	 0.9515243419	-5.3221449927	-2.3846617684	-0.287267
C	 1.3443474967	-2.5306284789	 0.1869100807	 0.302005
N	 1.9304954096	-2.8770889198	 1.1197443893	-0.310394
H	 1.0368333023	 1.7314778126	 0.1587538242	 0.117841
H	-0.4627888362	 1.8350899198	-0.8065290341	 0.111349
H	-0.5526468435	 1.6435567177	 0.9658085505	 0.143545
H	 0.1726522219	-0.2539665665	-2.0679576295	 0.09927
H	 1.69628028	-0.1904751863	-1.1488363059	 0.108496
H	-0.4076463725	-2.4026375986	-0.9333460627	 0.160018
H	 0.7707576222	-2.2949209106	-3.1727403035	 0.163127
H	 2.3213546407	-2.4829702374	-2.3526563029	 0.173444
51.9054	76.9171	83.935	112.5923	159.7359	219.1398	230.6979	251.914	355.3453	387.2438	395.6919	493.5671	562.613	650.7731	796.6729	923.7737	932.7131	1000.8297	1055.0745	1090.6427	1096.259	1169.4325	1182.4559	1213.6904	1233.822	1254.7532	1284.3648	1353.1765	1373.5831	1417.8698	1466.2717	1480.5231	1486.844	1500.8033	1526.7468	2366.9314	2371.0574	2953.7577	2983.1407	2989.7152	3033.3594	3051.0698	3067.6182	3096.7997	3132.3208
COCC(CC#N)C#N	COC[C@@H](CC#N)C#N	
InChI=1S/C6H8N2O/c1-9-5-6(4-8)2-3-7/h6H,2,5H2,1H3	InChI=1S/C6H8N2O/c1-9-5-6(4-8)2-3-7/h6H,2,5H2,1H3/t6-/m0/s1
