20
gdb 20029	4.50124	1.07048	0.9478	1.3605	76.26	-0.2483	0.0787	0.3271	1267.3407	0.176709	-348.967189	-348.958462	-348.957518	-349.001078	32.212	
O	-0.1259158525	 1.4070206429	-0.5078639714	-0.421262
C	 0.0007005329	 0.1230192964	 0.0932681818	-0.09661
C	-1.3545711432	-0.5312769688	 0.077922205	 0.007942
C	-1.8396873508	-1.2652479984	-1.1487523852	-0.299798
C	-1.5305112922	-2.0357524153	 0.1123932106	-0.017323
C	-0.3853612052	-2.9989951833	 0.1798760388	 0.025489
C	-0.0491043379	-3.6933349275	 1.4784033243	-0.268961
C	-0.6567797224	-4.4755151663	 0.3401707524	-0.276062
H	 0.7185866443	 1.8592365065	-0.42112808	 0.282805
H	 0.7296069839	-0.4956244711	-0.4521724505	 0.079192
H	 0.3617384673	 0.2100193907	 1.1309463459	 0.085937
H	-2.1029750782	 0.0424493907	 0.6180506364	 0.086571
H	-2.8724688235	-1.1467311399	-1.4570945128	 0.108781
H	-1.1398400711	-1.3620496528	-1.9734894106	 0.110201
H	-2.3959748877	-2.3709439055	 0.6805380433	 0.076451
H	 0.460711411	-2.7509582173	-0.4541978887	 0.078621
H	 0.9942244822	-3.8611580641	 1.7225210842	 0.108263
H	-0.6764020418	-3.4818721692	 2.3383265776	 0.109905
H	-1.6911952463	-4.789654962	 0.4358081776	 0.11066
H	-0.0296142889	-5.1780704156	-0.1975734286	 0.109198
56.1275	78.7621	131.798	191.5431	259.2225	287.2034	314.8464	355.7577	457.2338	577.965	736.2278	796.1734	811.1435	824.3	858.11	905.2632	923.7559	943.0817	989.7105	1028.8427	1051.6553	1061.8157	1066.7719	1071.489	1077.4632	1126.2938	1141.0444	1175.3775	1198.8947	1210.5599	1222.6032	1249.3666	1257.692	1281.1394	1321.4374	1389.9415	1450.0633	1469.9649	1470.9727	1495.0605	1509.9434	1518.2679	2965.9428	2996.1638	3119.0797	3126.5373	3127.7797	3132.5973	3143.6597	3147.4215	3205.4266	3211.3708	3221.0713	3824.1317
OCC1CC1C1CC1	OC[C@H]1C[C@H]1C1CC1	
InChI=1S/C7H12O/c8-4-6-3-7(6)5-1-2-5/h5-8H,1-4H2	InChI=1S/C7H12O/c8-4-6-3-7(6)5-1-2-5/h5-8H,1-4H2/t6-,7+/m1/s1
