16
gdb 125851	4.77474	1.28198	1.18374	3.8204	74.08	-0.2521	-0.0126	0.2395	1058.9751	0.126734	-396.8835	-396.87664	-396.875695	-396.914756	26.567	
C	-0.1717577788	 1.359517164	 0.044415705	-0.430874
C	 0.098629488	-0.1270057702	 0.0856088677	-0.00644
C	 1.4922042907	-0.6099584046	-0.2338683388	-0.023657
C	 0.9838966932	-0.6741399569	 1.21109705	-0.212119
C	 1.0141276689	-2.1752203579	 1.0304022803	 0.292191
N	 0.4009617525	-3.3246754563	 1.2147756976	-0.337967
C	 0.599850636	-3.9101334317	-0.0211364472	 0.033912
N	 1.2027324802	-3.1740238297	-0.9523425913	-0.263083
N	 1.5510426183	-2.0852883469	-0.2073511769	 0.042594
H	 0.7016237287	 1.9357192132	 0.3674393703	 0.124365
H	-0.4298286775	 1.6780781515	-0.9704152516	 0.136691
H	-1.0064187356	 1.6193101744	 0.7026821962	 0.138022
H	-0.724653763	-0.7575068372	-0.2397375797	 0.125954
H	 2.2841360028	-0.0160074643	-0.6695183458	 0.12864
H	 1.298329084	-0.0830961589	 2.059099034	 0.122646
H	 0.2957762116	-4.9270615786	-0.2263265098	 0.129123
120.2806	204.4741	231.3264	293.552	313.0367	487.0136	503.115	675.0897	743.9777	759.5864	820.5563	831.113	835.8522	880.7015	907.2723	977.4156	1012.4888	1027.6654	1040.0754	1106.4596	1118.8809	1138.1445	1154.3053	1188.7168	1213.6248	1256.3468	1262.737	1273.0421	1374.5114	1403.1438	1411.8676	1418.0398	1492.2722	1498.125	1565.1767	3036.6881	3103.8793	3109.1222	3150.7141	3213.2243	3226.982	3249.0637
CC1C2C1C1=NC=NN21	C[C@H]1[C@H]2[C@@H]1c1ncnn21	
InChI=1S/C6H7N3/c1-3-4-5(3)9-6(4)7-2-8-9/h2-5H,1H3	InChI=1S/C6H7N3/c1-3-4-5(3)9-6(4)7-2-8-9/h2-5H,1H3/t3-,4-,5+/m1/s1
