22
gdb 122557	3.01252	1.09728	0.93209	1.9959	82.46	-0.2349	0.082	0.3169	1351.0192	0.193965	-404.287663	-404.278392	-404.277448	-404.322725	34.542	
C	 2.2547086921	-2.9416874977	 1.1192135589	-0.392901
C	 1.0363714031	-2.0246838799	 1.0585901274	-0.046564
O	 0.1332051716	-2.3626478465	 0.0114755925	-0.244463
C	 0.2252778509	-1.6218423044	-1.1848339514	-0.095656
C	 1.2628585163	-2.1394716373	-2.1741421254	 0.055802
C	 1.2791683995	-1.5741919536	-3.6237013449	-0.290272
C	 2.7448267503	-1.2278922909	-3.3712640491	-0.006418
C	 2.87623589	-0.3403484399	-2.203843727	-0.24469
N	 2.7251405806	-1.789541074	-1.9607562042	-0.133757
H	 1.9368199012	-3.9851559088	 1.208024145	 0.115842
H	 2.8733638297	-2.8338342323	 0.2244484573	 0.157518
H	 2.8629386955	-2.6950923367	 1.997073566	 0.102069
H	 0.460811563	-2.1081689255	 1.9890123092	 0.098994
H	 1.3486159894	-0.9739910332	 0.9629840626	 0.086379
H	-0.756658786	-1.7101498441	-1.6687052217	 0.106151
H	 0.381223505	-0.5529941626	-0.969245071	 0.085989
H	 1.1981062771	-3.230539813	-2.1762897349	 0.097567
H	 1.1193571483	-2.3432390535	-4.380844995	 0.114727
H	 0.6239913802	-0.7247271397	-3.8443780374	 0.102231
H	 3.5667884655	-1.4307244894	-4.0499189617	 0.097122
H	 3.8676069291	 0.0176579539	-1.9444520538	 0.122841
H	 2.0714783577	 0.3461393091	-1.9513897815	 0.111487
43.8	57.5319	113.896	181.9343	222.5373	265.7085	352.4234	394.2633	405.1186	463.5454	521.1959	711.976	753.3203	767.5522	803.1405	821.0987	854.0147	905.2832	956.3827	972.919	1003.7266	1041.6751	1064.1254	1082.3052	1102.4677	1107.3205	1112.5369	1130.7341	1147.1245	1186.8878	1209.4287	1228.2776	1267.3189	1280.6789	1302.1121	1335.9091	1356.9196	1372.6439	1396.0542	1413.344	1423.8206	1475.5018	1487.2505	1489.45	1495.278	1506.1455	1519.3683	2980.5171	2991.3958	3032.2321	3037.5534	3043.5842	3046.5835	3077.937	3102.0242	3110.9345	3118.9945	3127.9531	3165.3916	3199.5687
CCOCC1CC2CN12	CCOC[C@H]1C[C@H]2CN12	
InChI=1S/C7H13NO/c1-2-9-5-7-3-6-4-8(6)7/h6-7H,2-5H2,1H3	InChI=1S/C7H13NO/c1-2-9-5-7-3-6-4-8(6)7/h6-7H,2-5H2,1H3/t6-,7+,8?/m0/s1
