22
gdb 114009	2.93582	0.73483	0.62552	2.2868	84.85	-0.2299	-0.023	0.2069	1813.5322	0.191753	-404.328423	-404.318033	-404.317089	-404.365269	36.726	
C	-0.1191357015	 1.6579468666	-0.3684916486	-0.372072
C	-0.4443745402	 0.1663460274	-0.4086766247	-0.122084
N	 0.4967979616	-0.5262238237	-1.2835912751	-0.074298
C	 1.7330675936	-1.0235814305	-0.6899981372	-0.26977
C	 0.6939307551	-1.9731051683	-1.1820603552	 0.022118
C	-0.0662977627	-2.8714228051	-0.2250006128	-0.23432
C	-1.4506756572	-3.2812151243	-0.7661791827	-0.270006
C	-2.1052920596	-4.3272244261	 0.1059998483	 0.159348
O	-3.1903181076	-4.2246240328	 0.6167147086	-0.23558
H	 0.8760701432	 1.8289902464	 0.0549364091	 0.118059
H	-0.1335542974	 2.0800805804	-1.3770366319	 0.127778
H	-0.8463557522	 2.195230038	 0.2477657966	 0.112675
H	-0.4508974786	-0.2321812003	 0.6195088407	 0.083348
H	-1.4514089992	 0.0181243044	-0.8165766839	 0.106508
H	 2.6473164921	-0.8488215471	-1.251511716	 0.114456
H	 1.8440511698	-0.9405678178	 0.3919807014	 0.104092
H	 0.856226251	-2.4358009047	-2.1567063549	 0.087595
H	 0.5365028483	-3.7742139023	-0.0568322202	 0.108362
H	-0.1793250637	-2.3947896387	 0.7537318424	 0.115122
H	-2.123561227	-2.4242214401	-0.8529796935	 0.128888
H	-1.3243126426	-3.7175968621	-1.7680421242	 0.120842
H	-1.4852756951	-5.2430517692	 0.2607555638	 0.068938
48.9573	65.3634	83.9471	94.0163	163.9365	194.9111	232.3826	276.3742	337.5502	393.9055	427.146	511.3902	554.2662	734.0154	766.3055	808.2039	819.1946	851.1954	927.5254	967.6452	995.025	1031.9948	1044.7657	1081.0172	1103.664	1108.2886	1126.2115	1147.181	1167.3985	1198.9847	1219.5546	1263.2599	1304.2105	1309.5544	1339.6894	1357.9029	1381.6414	1409.829	1426.0576	1429.9977	1462.3749	1487.1261	1489.1066	1490.6759	1505.3879	1517.0664	1837.8138	2843.5178	2961.2984	3011.4942	3021.0295	3039.5645	3049.0383	3071.4576	3078.6506	3093.6916	3107.7012	3108.9023	3121.5388	3168.0245
CCN1CC1CCC=O	CCN1C[C@H]1CCC=O	
InChI=1S/C7H13NO/c1-2-8-6-7(8)4-3-5-9/h5,7H,2-4,6H2,1H3	InChI=1S/C7H13NO/c1-2-8-6-7(8)4-3-5-9/h5,7H,2-4,6H2,1H3/t7-,8?/m1/s1
