18
gdb 93702	3.05996	1.24034	1.14306	4.6679	72.03	-0.2732	0.0237	0.2969	1130.384	0.14693	-439.103097	-439.09418	-439.093236	-439.136777	33.234	
C	 0.4530650054	 1.3073919356	-0.1186416368	-0.427495
C	-0.0470199983	-0.1375040323	-0.0311751141	 0.24785
C	 0.3081492846	-0.9942271675	-1.2872295088	-0.291404
C	 1.4884032498	-1.8434662453	-0.8105310028	 0.106164
O	 2.6667934658	-1.0756541162	-1.0106623897	-0.428552
C	 1.1424856567	-2.0191738367	 0.6691709989	-0.108978
O	 0.6059592589	-0.7684714801	 1.0791266211	-0.277609
C	-1.5081822404	-0.159912761	 0.209375241	 0.257128
N	-2.650253857	-0.1779173005	 0.3852826542	-0.343978
H	 1.5209195793	 1.2854856223	-0.3447811237	 0.146518
H	-0.0761973585	 1.8540065684	-0.9040204041	 0.130174
H	 0.2934223665	 1.8174347865	 0.8339708183	 0.141058
H	-0.5287739477	-1.6344808649	-1.5720033723	 0.131107
H	 0.581604465	-0.3735388379	-2.1410367084	 0.135997
H	 1.5466922797	-2.8053414036	-1.3378349699	 0.079243
H	 3.3997359287	-1.5192494371	-0.5717800946	 0.288016
H	 0.4115868958	-2.8323815737	 0.8005740885	 0.105915
H	 2.0127611658	-2.231979286	 1.2985099332	 0.108845
55.0905	132.3965	178.4502	211.8731	266.3286	288.4194	326.6671	381.7604	393.2677	405.2367	534.848	572.2476	616.5352	752.2871	805.6916	868.6103	870.239	902.659	942.8877	974.4103	1007.4614	1039.8032	1091.4444	1135.629	1167.3721	1194.1812	1215.8627	1237.2574	1270.41	1325.6136	1350.2926	1379.5998	1403.6697	1415.5838	1477.5124	1486.6138	1494.0043	1506.6021	2352.4199	2985.2905	3016.4094	3052.8153	3076.2641	3088.4449	3132.0069	3144.4144	3148.9512	3818.7752
CC1(CC(O)CO1)C#N	C[C@]1(C[C@@H](O)CO1)C#N	
InChI=1S/C6H9NO2/c1-6(4-7)2-5(8)3-9-6/h5,8H,2-3H2,1H3	InChI=1S/C6H9NO2/c1-6(4-7)2-5(8)3-9-6/h5,8H,2-3H2,1H3/t5-,6+/m1/s1
