21
gdb 112792	1.92714	1.41048	1.00715	2.386	78.84	-0.2432	-0.0205	0.2227	1283.4905	0.180193	-424.222109	-424.212053	-424.211109	-424.258215	36.206	
C	 0.2137384006	 1.3762550691	 0.227128541	-0.386012
C	 0.242239501	-0.1508190079	 0.1084197181	-0.18161
C	 0.579748525	-0.6127912007	-1.3125985621	-0.008871
C	 2.0698633325	-0.4080534823	-1.7377890915	-0.265084
C	 2.3212281936	-1.9373092982	-1.6678476729	 0.11744
O	 3.0648508926	-2.3942184326	-0.5578661318	-0.424501
C	 0.7639967115	-2.1432443801	-1.5724911896	-0.144833
C	 0.3066979048	-3.2227455369	-0.632127027	 0.147071
O	-0.4074116243	-3.084214724	 0.3299146783	-0.253466
H	 1.1749681447	 1.825169455	-0.0465523014	 0.114622
H	-0.549165285	 1.8065522087	-0.4314479254	 0.115557
H	-0.0172768159	 1.6870715035	 1.250432351	 0.116223
H	 0.9704740003	-0.5593700559	 0.822898817	 0.07752
H	-0.7206397069	-0.5716594499	 0.4076341343	 0.127588
H	-0.1365985102	-0.1567465351	-2.0031637128	 0.073676
H	 2.1913456991	-0.0015023113	-2.7449221492	 0.106951
H	 2.6919148336	 0.1783899724	-1.0543207835	 0.103275
H	 2.7995118565	-2.3904374342	-2.5386603781	 0.093463
H	 2.7783753725	-1.915144995	 0.22742189	 0.287725
H	 0.3840280919	-2.4207251442	-2.5649888615	 0.0995
H	 0.7023869619	-4.2287008105	-0.9036282329	 0.083767
28.0666	67.5825	115.9974	157.4256	198.528	218.324	257.501	299.6735	347.6029	381.0938	416.5225	494.0198	668.2928	716.9199	766.1405	788.43	850.3662	870.0915	937.6421	941.8531	970.3735	989.6392	1035.745	1056.1614	1080.3901	1116.5943	1137.0885	1161.0624	1202.5385	1230.1937	1261.978	1271.787	1287.8643	1313.1957	1334.2481	1344.7161	1386.7075	1412.9422	1428.2968	1437.1372	1468.9332	1482.4407	1499.9518	1506.5063	1820.3923	2865.5899	3009.4335	3022.2641	3030.3464	3050.0519	3055.4702	3085.8282	3088.3274	3103.1705	3108.6638	3111.5784	3806.0098
CCC1CC(O)C1C=O	CC[C@H]1C[C@@H](O)[C@H]1C=O	
InChI=1S/C7H12O2/c1-2-5-3-7(9)6(5)4-8/h4-7,9H,2-3H2,1H3	InChI=1S/C7H12O2/c1-2-5-3-7(9)6(5)4-8/h4-7,9H,2-3H2,1H3/t5-,6-,7+/m0/s1
