15
gdb 127920	3.17609	1.4838	1.01764	2.4177	74.98	-0.2351	-0.0473	0.1878	1104.3179	0.112829	-450.099516	-450.091269	-450.090325	-450.133193	29.732	
C	-0.4057051483	 1.4118642278	-0.0139217773	-0.303968
N	-0.043439816	 0.0078876091	-0.0344918438	-0.30724
C	 0.6793518134	-0.5205234439	-0.9289357091	 0.336477
N	 0.9452148776	-1.8882753744	-0.8157527029	-0.355059
C	 1.7117427171	-2.5743465299	-1.7048394737	 0.138294
N	 2.285673544	-2.0986839595	-2.7464796917	-0.129764
O	 2.0750578493	-0.7076346191	-2.958330571	-0.29276
C	 1.3229449789	 0.0917087242	-2.1321065985	 0.363933
N	 1.1850043111	 1.3220160552	-2.3994937782	-0.506173
H	 0.4732905212	 2.0632455832	 0.0256539114	 0.141233
H	-0.9669926258	 1.7034637985	-0.9076360784	 0.141111
H	-1.0237513267	 1.5891483221	 0.8701700215	 0.112046
H	 0.532480872	-2.3477815811	-0.0175759196	 0.268702
H	 1.8570744908	-3.6331336175	-1.5216061092	 0.156193
H	 1.6937338615	 1.5541241252	-3.2553964694	 0.236974
44.0642	98.9978	123.9386	252.4563	264.4005	398.107	399.3634	459.9054	531.3383	533.0469	586.2207	616.1426	687.8887	781.0181	888.4978	897.8371	917.4966	959.8355	1033.9239	1062.1121	1104.707	1138.2109	1162.3006	1246.0782	1343.049	1370.2971	1434.8085	1474.8218	1493.8415	1498.4526	1710.9392	1732.2418	1748.9033	3030.2873	3093.7704	3107.5596	3207.8158	3468.9594	3622.4005
CN=C1NC=NOC1=N	CN=C1NC=NO[C]1[NH]	
InChI=1S/C4H6N4O/c1-6-4-3(5)9-8-2-7-4/h2,5H,1H3,(H,6,7,8)	InChI=1S/C4H6N4O/c1-6-4-3(5)9-8-2-7-4/h2,5H,1H3,(H,6,7,8)
