22
gdb 119887	4.1243	0.89181	0.76258	0.8684	85.38	-0.2348	0.0375	0.2723	1569.4781	0.195532	-404.384289	-404.375062	-404.374118	-404.418716	34.466	
C	-0.1518994721	 1.5457473339	 0.0218438987	-0.389776
C	 0.0103553198	 0.0367145401	 0.0067993464	-0.026962
O	-1.3030872948	-0.5368889734	-0.023951675	-0.26487
C	-1.3822272696	-1.8863906108	-0.0248020988	 0.415691
N	-0.3396087434	-2.6066168871	-0.0242993236	-0.314969
C	-0.472169391	-4.05927348	-0.0168949873	-0.140953
C	-1.8515588046	-4.5964583497	 0.3871187478	-0.205549
C	-2.9482049025	-3.8247770757	-0.3511311447	-0.201516
C	-2.8274790222	-2.3329829244	-0.0190979639	-0.296949
H	 0.8305202705	 2.0269198812	 0.0467836874	 0.117106
H	-0.6818509076	 1.890774735	-0.8707811725	 0.124488
H	-0.716580662	 1.8693341346	 0.9010962968	 0.124316
H	 0.5745922224	-0.3061179358	-0.8671640821	 0.112632
H	 0.5428268601	-0.3279761046	 0.8920346794	 0.111547
H	-0.2122237646	-4.4251376503	-1.0213877932	 0.102158
H	 0.2991885062	-4.4609668722	 0.6510998449	 0.102009
H	-1.9085511961	-5.6694675479	 0.1743753297	 0.093781
H	-1.9889576784	-4.4772521641	 1.4700043986	 0.097517
H	-2.831787495	-3.9717246256	-1.4325857931	 0.10213
H	-3.944675887	-4.1929148481	-0.0878663559	 0.095935
H	-3.243254887	-2.1215161815	 0.9748138642	 0.122425
H	-3.3894568212	-1.7077576538	-0.7197995937	 0.119809
57.2134	97.0832	155.1034	158.949	242.1026	260.3514	317.6401	333.0969	414.7527	472.3838	523.8874	570.4352	690.4532	792.5999	808.3212	838.9244	869.1867	907.0918	923.9786	951.3955	977.9317	1057.9771	1075.6998	1108.1555	1117.9635	1161.6286	1174.2874	1184.0389	1201.1828	1253.5564	1274.0342	1283.4321	1306.7879	1358.2362	1368.3987	1372.6436	1390.4952	1402.3469	1423.2357	1469.0064	1485.9724	1487.4009	1490.3273	1496.6656	1505.4471	1521.2291	1746.3282	2997.237	3018.1946	3026.0172	3030.5873	3041.772	3043.4512	3044.1227	3072.1711	3076.1121	3076.5456	3084.4744	3117.5077	3120.9384
CCOC1=NCCCC1	CCOC1=NCCCC1	
InChI=1S/C7H13NO/c1-2-9-7-5-3-4-6-8-7/h2-6H2,1H3	InChI=1S/C7H13NO/c1-2-9-7-5-3-4-6-8-7/h2-6H2,1H3
