19
gdb 93031	2.34052	1.93304	1.4579	2.6162	74.74	-0.2407	-0.0041	0.2366	970.2031	0.161996	-423.012149	-423.00489	-423.003945	-423.043507	29.899	
O	-0.0711228984	 1.3332445499	-0.2952826364	-0.438276
C	 0.0724280183	-0.0466829975	-0.0078139607	 0.12852
C	 0.7780247748	-0.2633044913	 1.351700635	-0.296738
C	-0.0266512956	-0.0843347536	 2.6205645485	-0.05526
C	-1.3208020469	-0.3578394637	 2.7984856651	-0.058997
C	-2.231490323	-0.8361074483	 1.6987181172	 0.064307
C	-1.6252341478	-1.9051410786	 0.7550642961	-0.28797
C	-1.3144468448	-0.6984301175	-0.1485690749	 0.070921
O	-2.2767819192	 0.1125859689	 0.5820295285	-0.302356
H	-0.8827641192	 1.5987999149	 0.1616139766	 0.289172
H	 0.733168355	-0.4539659212	-0.7833152707	 0.080472
H	 1.2263200622	-1.2685277813	 1.3674590945	 0.11053
H	 1.6236581914	 0.4318496234	 1.3643540968	 0.118918
H	 0.5424099468	 0.2690867654	 3.4779707753	 0.096779
H	-1.7650598597	-0.2123674331	 3.7793411765	 0.088803
H	-3.2403633546	-1.0304328422	 2.0714336034	 0.080879
H	-0.7942727923	-2.502107331	 1.1312519	 0.111581
H	-2.3870796762	-2.5586974883	 0.3272260926	 0.112674
H	-1.589320481	-0.767298005	-1.2053304533	 0.086043
115.9473	221.5109	299.3035	323.0521	377.2545	413.8945	465.7951	511.0236	530.1635	649.401	699.6789	746.2892	821.1299	851.7832	871.6206	890.0986	918.1874	925.5064	969.9774	976.9914	1001.2949	1048.3653	1075.0658	1090.1755	1102.4981	1151.5481	1221.2389	1224.5468	1243.0533	1261.2666	1296.7165	1312.5069	1319.7224	1356.5732	1383.3446	1392.5681	1422.3036	1445.0955	1461.5456	1498.1928	1712.2444	2994.0857	3032.0868	3065.6327	3072.6411	3073.7136	3088.0472	3142.2635	3143.3298	3170.3762	3727.2856
OC1CC=CC2CC1O2	O[C@H]1CC=C[C@@H]2C[C@H]1O2	
InChI=1S/C7H10O2/c8-6-3-1-2-5-4-7(6)9-5/h1-2,5-8H,3-4H2	InChI=1S/C7H10O2/c8-6-3-1-2-5-4-7(6)9-5/h1-2,5-8H,3-4H2/t5-,6+,7-/m1/s1
