15
gdb 16655	3.25508	2.20211	1.50881	3.7365	60.7	-0.2416	-0.0311	0.2105	821.0519	0.11978	-399.789718	-399.782839	-399.781895	-399.820942	26.247	
O	-0.1703483044	 1.4718407565	-0.2059612251	-0.435308
C	-0.0664310697	 0.0848410807	-0.061725335	 0.072971
C	-1.410986472	-0.6684258762	 0.0439882071	-0.24725
C	-1.1727025529	-1.9864081764	-0.6963016153	-0.047615
N	-1.1589905424	-1.7891031758	-2.1516201044	-0.318542
C	 0.1312712051	-1.9466818491	-1.4211599724	-0.176446
C	 0.7175591278	-0.5790062104	-1.1988989187	 0.40023
O	 1.6280667958	-0.0432620018	-1.780344636	-0.336933
H	 0.5784359925	 1.7367406203	-0.7599337298	 0.293503
H	 0.5269315011	-0.1749308884	 0.8389160526	 0.094135
H	-1.6965885629	-0.8330532752	 1.0849882321	 0.108944
H	-2.1984275488	-0.0919063773	-0.4475179254	 0.135306
H	-1.5548908926	-2.9182041676	-0.2939553983	 0.099946
H	-1.3544544042	-2.6666445725	-2.6291169827	 0.243268
H	 0.7612296976	-2.8055710568	-1.6202142688	 0.11379
74.169	189.3882	267.1184	370.8445	399.0212	409.3979	471.6551	592.6087	616.3842	701.6368	778.1677	844.1162	858.9386	895.9769	933.0753	991.9334	1012.3484	1045.4177	1113.6825	1139.6385	1151.8788	1168.1063	1215.2655	1238.1628	1259.695	1304.6093	1349.976	1367.9389	1395.492	1418.1281	1484.5956	1843.3401	2894.4478	3072.3037	3123.156	3172.283	3188.2021	3493.0205	3731.4114
OC1CC2NC2C1=O	O[C@H]1C[C@H]2N[C@H]2C1=O	
InChI=1S/C5H7NO2/c7-3-1-2-4(6-2)5(3)8/h2-4,6-7H,1H2	InChI=1S/C5H7NO2/c7-3-1-2-4(6-2)5(3)8/h2-4,6-7H,1H2/t2-,3+,4-/m1/s1
