14
gdb 125781	7.18415	0.83832	0.76253	3.2634	67.86	-0.2601	-0.0339	0.2263	1412.8484	0.099307	-473.840123	-473.83188	-473.830936	-473.873912	28.58	
C	 0.0666405169	 1.4859944556	-0.0065260814	-0.491884
C	-0.0611139269	-0.0019542064	 0.0373350262	 0.417967
N	-0.2910644639	-0.6676113405	-1.0718588865	-0.202001
O	-0.3624870768	-2.0238819269	-0.6894368792	-0.224389
C	-0.156447259	-2.0918766558	 0.6296102387	 0.564831
O	-0.2180439196	-3.2999404673	 1.22187855	-0.229274
C	 0.1998450596	-4.4183633652	 0.5227318916	 0.161174
O	 0.0887108164	-5.500190544	 0.995639086	-0.234418
C	 0.0385719024	-0.8639570085	 1.1694499833	-0.480384
H	 1.0465952783	 1.8036750523	 0.3635308912	 0.143484
H	-0.0548264386	 1.8415955082	-1.0312356702	 0.155279
H	-0.6931326276	 1.9593755373	 0.6234352455	 0.144875
H	 0.6247094199	-4.1680071204	-0.4589145394	 0.139973
H	 0.227845049	-0.6171168185	 2.1994169241	 0.134767
51.8397	111.8716	137.3585	149.223	231.3601	303.2311	396.2425	447.1574	503.7702	655.0698	673.5704	707.6531	796.5419	827.2272	910.5359	982.11	1026.3703	1035.7412	1039.8123	1066.4729	1071.7207	1182.5054	1313.9661	1406.0731	1413.7646	1459.0835	1480.6996	1481.0708	1539.2448	1658.2846	1889.8555	3045.3258	3060.2486	3103.726	3142.7219	3289.123
CC1=NOC(OC=O)=C1	Cc1noc(OC=O)c1	
InChI=1S/C5H5NO3/c1-4-2-5(8-3-7)9-6-4/h2-3H,1H3	InChI=1S/C5H5NO3/c1-4-2-5(8-3-7)9-6-4/h2-3H,1H3
