20
gdb 71826	2.50855	2.05872	1.367	1.5918	83.06	-0.2074	0.0075	0.215	1002.4623	0.171271	-365.985558	-365.977489	-365.976545	-366.017547	32.379	
C	-0.115738052	 1.5314207792	 0.0023565742	-0.495388
C	 0.0480630485	 0.0364132163	-0.0009801086	 0.300538
C	-0.2236201766	-0.7966669263	-1.2491208226	-0.293536
C	-0.6531057353	-1.9388717914	-0.2755511542	-0.059621
C	 0.5617269125	-2.7805846174	 0.022399813	-0.085631
C	 1.3906080017	-2.0415649221	 0.7579571558	-0.140387
C	 0.7136417736	-0.755630964	 1.113307132	 0.256991
C	 1.1089515064	-0.0714342914	 2.4014720592	-0.49646
N	-0.7440729619	-0.9208247779	 0.8674505967	-0.209004
H	 0.6413506914	 1.9906036312	-0.6448233786	 0.121359
H	-1.1006592096	 1.812656486	-0.3866763857	 0.123429
H	-0.0110723609	 1.9668098818	 0.9978259697	 0.124047
H	-1.0840017614	-0.3833354955	-1.7820619875	 0.107806
H	 0.5857324556	-0.9963082893	-1.9581956762	 0.093697
H	-1.5859763347	-2.4612987907	-0.484089204	 0.077019
H	 0.7620570312	-3.7432376547	-0.4309526899	 0.10181
H	 2.3969127162	-2.2886407891	 1.0719485212	 0.100051
H	 2.0832825222	 0.4210606276	 2.3080664992	 0.115571
H	 0.3709260595	 0.6737482174	 2.7026163806	 0.132723
H	 1.1774547437	-0.8098237697	 3.2069983856	 0.124987
135.5832	147.8786	195.5634	272.7012	326.5352	342.3892	368.88	416.3156	560.8157	587.5886	617.2168	725.9965	733.6069	762.061	806.6369	861.8138	870.5412	892.9467	931.3742	944.7997	961.8935	992.7182	1006.5697	1068.3963	1090.6461	1104.519	1111.6375	1183.7862	1212.1655	1221.5707	1244.8932	1283.8009	1329.6628	1361.3626	1368.4875	1408.388	1415.9455	1480.0388	1483.2047	1486.1644	1494.2312	1503.9413	1662.6816	3028.9685	3036.3973	3045.6729	3085.0952	3096.7277	3101.672	3116.555	3125.4972	3137.5101	3201.0358	3226.3767
CC12CC3C=CC1(C)N23	C[C@@]12C[C@H]3C=C[C@]1(C)N23	
InChI=1S/C8H11N/c1-7-4-3-6-5-8(7,2)9(6)7/h3-4,6H,5H2,1-2H3	InChI=1S/C8H11N/c1-7-4-3-6-5-8(7,2)9(6)7/h3-4,6H,5H2,1-2H3/t6-,7+,8-,9?/m1/s1
