14
gdb 28639	5.89458	1.0326	0.88353	6.8352	78.88	-0.2752	-0.073	0.2022	1241.5059	0.102379	-395.798003	-395.790224	-395.78928	-395.831737	27.41	
C	-0.0058582359	 1.52582108	 0.0103376199	-0.501475
C	-0.0051553172	 0.0232129358	 0.0022183683	 0.249916
C	-0.0064507881	-0.7218392182	-1.1793424038	-0.055545
N	 0.0170547841	-2.0527971067	-1.2043402116	-0.269949
C	 0.039294799	-2.6541202966	-0.0125635906	 0.252124
N	 0.0313694596	-2.065768875	 1.1858176953	-0.269963
C	 0.0076523775	-0.7345952521	 1.1755327888	-0.055615
C	 0.0701874427	-4.0999890532	-0.0206012698	 0.277409
N	 0.0956149715	-5.2553352675	-0.0270260414	-0.323077
H	 1.0175837049	 1.9189756966	 0.0027143141	 0.154015
H	-0.5165964694	 1.9274081738	-0.8691054335	 0.143745
H	-0.4998103556	 1.9177944458	 0.9035770119	 0.143663
H	-0.0314406581	-0.2234391174	-2.146702211	 0.127378
H	-0.0057129551	-0.2467046052	 2.1484616835	 0.127374
23.039	92.0331	161.3266	261.4102	326.5927	414.9141	426.6718	452.1352	569.7759	579.4111	673.2712	701.9793	831.1533	856.9772	942.356	1006.6356	1010.3098	1055.3931	1072.686	1249.1314	1260.6047	1284.778	1302.8678	1408.8594	1416.9568	1460.3158	1484.6983	1487.5161	1580.8269	1622.1218	2362.4541	3036.6266	3097.3884	3123.6803	3149.9783	3152.1448
CC1=CN=C(N=C1)C#N	Cc1cnc(nc1)C#N	
InChI=1S/C6H5N3/c1-5-3-8-6(2-7)9-4-5/h3-4H,1H3	InChI=1S/C6H5N3/c1-5-3-8-6(2-7)9-4-5/h3-4H,1H3
