18
gdb 84932	2.34709	1.6216	1.16522	2.2092	73.19	-0.2351	-0.0238	0.2112	1086.0354	0.148085	-439.107725	-439.099251	-439.098307	-439.141328	31.33	
C	 1.0588713517	 1.1372834228	-0.2530314946	-0.391711
C	-0.0682060601	 0.1460472826	 0.1116440005	-0.060976
N	-0.4040325558	-0.6816329859	-1.0269576401	-0.26369
C	 0.0147945165	-1.8187619669	-1.3676137115	 0.124461
O	 0.8867455985	-2.7079464689	-0.8267116121	-0.216425
C	 1.5902725924	-2.3868724007	 0.3727108806	-0.097113
C	 0.6749951425	-1.9659419264	 1.5196708497	-0.320442
C	 0.2442959538	-0.5075527661	 1.4707341041	 0.363601
O	 0.1517963026	 0.1507837718	 2.479858357	-0.30734
H	 2.0042807808	 0.6189865348	-0.4416275571	 0.118341
H	 0.7839831806	 1.6775888077	-1.1620705509	 0.135567
H	 1.2015574706	 1.8492381586	 0.5630087532	 0.141539
H	-0.9554025194	 0.7575470406	 0.3169753806	 0.120057
H	-0.3680904245	-2.264065859	-2.2866953632	 0.124783
H	 2.1166993025	-3.3079888448	 0.6317501714	 0.13091
H	 2.3467186688	-1.6194093112	 0.1644395825	 0.121101
H	-0.2203952117	-2.6014522117	 1.5027953719	 0.143458
H	 1.1658271103	-2.1251414672	 2.4837805579	 0.133881
50.826	90.3596	227.0925	237.5847	247.1256	296.5042	333.1894	416.3485	480.9454	521.8925	567.5488	642.9172	719.0871	803.1678	851.5381	878.172	948.0598	966.9523	980.4331	1026.1664	1052.546	1102.7476	1110.3957	1174.2053	1208.9935	1250.0291	1294.0907	1308.3391	1346.2637	1361.9515	1391.9757	1410.0604	1444.3183	1445.3458	1488.5804	1494.8383	1511.5553	1773.0937	1805.9875	3026.5854	3030.3021	3037.1949	3045.3214	3101.6447	3108.2962	3119.1136	3132.7507	3139.4775
CC1N=COCCC1=O	C[C@H]1N=COCCC1=O	
InChI=1S/C6H9NO2/c1-5-6(8)2-3-9-4-7-5/h4-5H,2-3H2,1H3	InChI=1S/C6H9NO2/c1-5-6(8)2-3-9-4-7-5/h4-5H,2-3H2,1H3/t5-/m1/s1
