16
gdb 61067	3.90929	1.06061	0.87915	1.7044	65.78	-0.2574	-0.0401	0.2173	1246.8675	0.124151	-475.038189	-475.029872	-475.028928	-475.072254	29.46	
O	-0.1087459351	 1.3670011429	 0.0868365666	-0.438873
C	 0.0486894634	-0.0235541394	 0.0482867106	 0.038545
C	 0.7507131441	-0.4427766026	-1.2297952997	 0.13394
O	 1.0883229791	 0.3809490561	-2.0477791211	-0.265989
C	 0.8363165611	-0.5074867242	 1.2864175962	-0.017883
C	 0.1507026269	-0.1153073944	 2.6217226878	-0.123518
O	-0.1770617255	-1.3942878892	 3.228733093	-0.217355
C	 0.3127342265	-2.3276406232	 2.3884844384	 0.12917
N	 0.8953656919	-1.9807394611	 1.3160528506	-0.28559
H	 0.2844971107	 1.6938716621	-0.7393743916	 0.297191
H	-0.9329575724	-0.5307922059	 0.0606290444	 0.097768
H	 0.9386150149	-1.5227081025	-1.360055787	 0.130514
H	 1.8488379317	-0.0951481172	 1.2223723277	 0.101984
H	 0.8097835782	 0.4242535645	 3.3051677599	 0.128453
H	-0.771435343	 0.4530413146	 2.4862743168	 0.143271
H	 0.1595665576	-3.3503316106	 2.7156465573	 0.148372
60.3149	72.0868	111.2043	182.5718	296.7129	337.9926	359.0994	420.3165	487.5543	547.1739	749.0013	760.993	829.1888	887.1209	927.159	954.3601	973.0544	977.5148	1011.0405	1061.8542	1123.8109	1147.5426	1162.5169	1210.5324	1268.4654	1272.8005	1309.8996	1320.6949	1370.2508	1376.1876	1384.1995	1437.3835	1518.1136	1697.8828	1805.0693	2949.2853	2996.5607	3049.1752	3075.1692	3127.9626	3216.1736	3669.8198
OC(C=O)C1COC=N1	O[C@@H](C=O)[C@H]1COC=N1	
InChI=1S/C5H7NO3/c7-1-5(8)4-2-9-3-6-4/h1,3-5,8H,2H2	InChI=1S/C5H7NO3/c7-1-5(8)4-2-9-3-6-4/h1,3-5,8H,2H2/t4-,5+/m1/s1
