15
gdb 35003	2.49024	1.65382	1.58421	4.89	68.95	-0.2659	0.0079	0.2738	924.4851	0.114839	-416.812169	-416.804933	-416.803988	-416.844303	26.966	
N	 0.2593268518	-1.1715161672	-0.0165166242	-0.339967
C	 0.1604074918	-0.0189946924	-0.0002236328	 0.316815
C	 0.0291628904	 1.4077716474	 0.0254271522	-0.236378
C	 0.4213124463	 2.1950053761	 1.2835460816	-0.120222
C	 1.0235828017	 1.4807854883	 2.4845315092	-0.181835
N	 2.3935030328	 1.0166672354	 2.3237958506	-0.249806
C	 2.9843730043	 1.1521274776	 1.2218528737	 0.132141
O	 2.5361133482	 1.7064602432	 0.0529244839	-0.21534
C	 1.2710355491	 2.2929135494	 0.0614812774	 0.100143
H	-0.8091856768	 1.7903114971	-0.5472203298	 0.140366
H	-0.2218653283	 3.0392989682	 1.5067390822	 0.115988
H	 1.0082902616	 2.1678075952	 3.3377954918	 0.128405
H	 0.4109449302	 0.6188509449	 2.775760601	 0.141117
H	 4.0038378008	 0.8046983659	 1.0783931341	 0.138978
H	 1.258823746	 3.1835299309	-0.5558421108	 0.129595
83.959	117.3291	151.3685	326.8153	373.6681	483.4384	517.8832	557.0389	631.5463	661.4346	736.1506	788.8789	833.2295	914.238	935.6576	955.495	969.6107	1012.4997	1046.0558	1087.1074	1091.9787	1125.7122	1179.44	1237.3043	1281.0381	1352.5026	1354.0391	1363.4876	1407.9904	1436.4115	1481.0367	1756.2813	2355.0742	3033.3337	3064.1237	3165.1625	3170.409	3183.2531	3186.4773
N#CC1C2CN=COC12	N#C[C@H]1[C@H]2CN=CO[C@@H]12	
InChI=1S/C6H6N2O/c7-1-4-5-2-8-3-9-6(4)5/h3-6H,2H2	InChI=1S/C6H6N2O/c7-1-4-5-2-8-3-9-6(4)5/h3-6H,2H2/t4-,5+,6-/m0/s1
