15
gdb 51141	3.40864	1.31395	1.0535	0.9932	68.04	-0.2496	0.	0.2496	1095.1043	0.112429	-453.931199	-453.923291	-453.922347	-453.964335	29.156	
N	 0.9282616507	 0.9383884252	-0.6384187969	-0.572185
C	 0.3966622121	-0.10374485	-0.191199104	 0.403419
O	 0.9016435613	-1.370304496	 0.0626599256	-0.269191
C	-0.4572855818	-1.8701321585	 0.2706113803	 0.039813
C	-1.0389594174	-1.2054479348	 1.4731080776	-0.337933
C	-1.0123021827	-0.4688422434	 0.1301363485	 0.274689
N	-2.1059108158	 0.123339125	-0.5458161277	-0.401149
C	-3.3351010209	-0.4459228461	-0.6464778629	 0.142463
O	-3.6429068652	-1.5081156428	-0.1443340747	-0.330598
H	 1.9256860899	 0.8141975908	-0.8158427014	 0.238571
H	-0.7156138284	-2.8178941372	-0.1769552635	 0.147838
H	-2.0318246691	-1.5480422075	 1.7394840035	 0.167849
H	-0.3906128468	-0.8962488057	 2.2874961545	 0.130733
H	-1.9046476244	 0.981232909	-1.0385638039	 0.273976
H	-4.0320750915	 0.1739424519	-1.240653075	 0.091705
44.4159	135.1013	201.3812	212.6588	263.0429	379.4949	452.0629	480.4591	527.9678	614.0279	667.486	755.7227	816.0869	858.8017	879.0252	901.1861	940.1155	947.5513	1009.7605	1025.0333	1034.2267	1062.3874	1090.3365	1168.7864	1176.0926	1254.995	1301.095	1393.6581	1431.2843	1472.5708	1540.0987	1788.8648	1837.5672	2963.8833	3130.5568	3240.7344	3246.2969	3490.4556	3615.526
N=C1OC2CC12NC=O	[NH][C]1O[C@H]2C[C@@]12NC=O	
InChI=1S/C5H6N2O2/c6-4-5(7-2-8)1-3(5)9-4/h2-3,6H,1H2,(H,7,8)	InChI=1S/C5H6N2O2/c6-4-5(7-2-8)1-3(5)9-4/h2-3,6H,1H2,(H,7,8)/t3-,5-/m0/s1
