21
gdb 106307	3.49052	1.19608	1.0998	1.44	78.23	-0.2419	0.0756	0.3175	1191.3323	0.182556	-424.20965	-424.200959	-424.200015	-424.242611	34.326	
C	-0.1568743575	 1.3347115629	 0.0519106291	-0.262632
O	 0.1343090451	-0.0457238811	-0.0264202755	-0.297556
C	 0.7355122516	-0.5802125645	 1.1052259429	 0.459266
C	 0.0312142073	-0.6268360094	 2.5056302723	-0.329131
C	 1.0289154439	-1.7897207165	 2.7131869416	 0.421257
O	 0.7660902675	-2.7007324079	 3.7329500175	-0.483904
C	 0.837519048	-2.1200964834	 1.1969678412	-0.34995
C	 2.3904545074	-1.0620107234	 2.7142363011	-0.278675
C	 2.1714283283	-0.132061172	 1.4800474315	-0.279665
H	 0.7510836601	 1.9494097436	 0.1278657654	 0.109563
H	-0.6819090728	 1.6011566206	-0.8682255014	 0.127385
H	-0.8055128895	 1.564696437	 0.9095437967	 0.111457
H	 0.1078034496	 0.2366858648	 3.1720670757	 0.087645
H	-0.9996503704	-0.9783949056	 2.4337771022	 0.107197
H	 1.4927930576	-3.3323747047	 3.7683601903	 0.276812
H	-0.1194612951	-2.6062115059	 1.0003734202	 0.106241
H	 1.6501919926	-2.6148509085	 0.6567356246	 0.083703
H	 2.5528235287	-0.5126557188	 3.6459856905	 0.102379
H	 3.226705797	-1.7565523943	 2.5767048158	 0.088697
H	 2.8753301456	-0.3222249526	 0.6649683528	 0.10208
H	 2.2301325152	 0.9276707598	 1.7423370656	 0.09783
78.2297	173.3844	193.2626	248.1294	268.0537	302.1243	347.1874	418.8959	449.3616	484.5567	531.3319	560.6401	609.8676	696.118	813.7663	840.4496	843.8598	946.1991	962.2015	966.8916	980.3858	1015.7675	1029.8086	1052.8516	1112.522	1133.5505	1162.271	1170.5061	1181.9821	1199.4117	1213.5986	1227.7498	1240.798	1254.4335	1260.7514	1327.5526	1337.3473	1389.1006	1481.6092	1482.6228	1489.8689	1492.1335	1499.0953	1508.0824	1538.9716	2989.5251	3038.0565	3039.8882	3052.9075	3057.283	3063.2296	3085.4066	3106.9031	3117.4869	3129.0073	3134.9617	3801.0241
COC12CC(O)(C1)CC2	CO[C@@]12C[C@@](O)(C1)CC2	
InChI=1S/C7H12O2/c1-9-7-3-2-6(8,4-7)5-7/h8H,2-5H2,1H3	InChI=1S/C7H12O2/c1-9-7-3-2-6(8,4-7)5-7/h8H,2-5H2,1H3/t6-,7+
