18
gdb 79208	2.55196	1.6341	1.29176	4.2981	80.09	-0.2702	0.0183	0.2885	1035.5155	0.148687	-364.783584	-364.775923	-364.774979	-364.815517	30.248	
C	-0.0010521383	 1.5990975887	 0.0210271391	-0.431571
C	 0.0983848298	 0.081539532	-0.0158463709	-0.008237
C	 0.8093787134	-0.6549125654	-1.1510728103	-0.085039
C	 2.2992190762	-0.777923957	-0.7863127474	-0.074778
C	 2.508231277	-0.1253096042	 0.5763315455	-0.277792
C	 1.0947592392	-0.6806733308	 0.9340553248	 0.189854
C	 0.7305850516	-0.9558735617	 2.2970164756	 0.154017
N	 0.4298587724	-1.1767419387	 3.3923902318	-0.347275
C	 1.2866048667	-1.7487066597	-0.2326505217	-0.125289
H	 0.957881718	 2.0843766251	-0.1783910228	 0.122625
H	-0.708967933	 1.9478126615	-0.7384875247	 0.123025
H	-0.3645599813	 1.9438132294	 0.9951294514	 0.131861
H	-0.8921126664	-0.3637365117	 0.1244673127	 0.09401
H	 0.4784680542	-0.759999493	-2.176057432	 0.095561
H	 3.0441840492	-0.9719007485	-1.5460905425	 0.099127
H	 3.2795955058	-0.6458555813	 1.1483193841	 0.1224
H	 2.6591236377	 0.9552709274	 0.6511381069	 0.106822
H	 1.1979053779	-2.824314172	-0.2523583497	 0.110676
127.0415	158.0149	190.9628	239.9677	291.8387	438.303	496.2059	530.9036	558.0828	591.268	679.5849	748.516	791.3677	794.9698	849.9276	904.2898	937.5708	952.4313	981.4702	1000.9974	1019.3359	1034.4613	1076.7634	1106.2233	1117.6371	1128.3673	1154.7937	1169.2408	1210.4541	1247.1167	1291.493	1303.4706	1360.8282	1389.8447	1412.6891	1489.8004	1493.7407	1513.2624	2347.0892	3036.3468	3055.4508	3059.926	3099.3273	3114.5246	3121.4026	3200.7548	3210.6467	3237.358
CC1C2C3CC1(C#N)C23	C[C@H]1[C@H]2[C@H]3C[C@]1(C#N)[C@@H]23	
InChI=1S/C8H9N/c1-4-6-5-2-8(4,3-9)7(5)6/h4-7H,2H2,1H3	InChI=1S/C8H9N/c1-4-6-5-2-8(4,3-9)7(5)6/h4-7H,2H2,1H3/t4-,5+,6-,7+,8+/m0/s1
