15
gdb 133045	5.08121	1.01702	0.85222	1.5605	73.22	-0.2136	-0.0375	0.1761	1266.8259	0.113493	-458.147281	-458.139223	-458.138279	-458.180586	28.92	
C	 0.0062709363	 1.4482208056	-0.0069408697	-0.30966
N	-0.062903545	 0.0056491127	 0.0712555914	-0.346723
C	-1.2279603406	-0.6931132647	 0.0414511093	 0.467596
N	-2.3769467816	 0.0044608336	 0.0761439473	-0.31604
C	-3.5007002737	-0.7095719183	 0.0740062362	-0.098948
C	-3.4842828539	-2.0930004107	 0.0318717365	 0.198361
F	-4.6193237507	-2.8011734388	 0.027535592	-0.079547
C	-2.2474976889	-2.7243139426	-0.0132383207	-0.096767
N	-1.1131260573	-2.0377892275	-0.0098032074	-0.321602
H	 1.0450171019	 1.7543800216	 0.133556178	 0.122738
H	-0.3483366843	 1.8333247251	-0.9718782855	 0.128233
H	-0.6048982762	 1.9047072501	 0.7761522485	 0.14669
H	 0.7682460353	-0.5435936582	-0.0648138063	 0.254994
H	-4.4443518692	-0.1693107486	 0.1031157509	 0.125236
H	-2.1851859422	-3.8096222292	-0.0547459405	 0.12544
66.5019	90.3499	153.7834	202.0509	367.8087	380.4274	418.6807	438.3986	459.1151	531.8337	574.9947	656.3121	781.9071	820.619	869.0259	960.6069	985.653	1039.5683	1098.7264	1159.4025	1171.2085	1249.3912	1277.857	1286.1611	1377.1055	1417.895	1448.9519	1473.9632	1478.8155	1518.15	1577.2862	1599.2605	1662.3968	3018.0797	3088.0113	3131.5906	3157.1637	3158.6326	3669.9321
CNC1=NC=C(F)C=N1	CNc1ncc(F)cn1	
InChI=1S/C5H6FN3/c1-7-5-8-2-4(6)3-9-5/h2-3H,1H3,(H,7,8,9)	InChI=1S/C5H6FN3/c1-7-5-8-2-4(6)3-9-5/h2-3H,1H3,(H,7,8,9)
