21
gdb 39133	3.26736	1.36603	1.22937	1.4538	81.07	-0.2262	0.086	0.3122	1109.5942	0.184443	-387.065397	-387.057728	-387.056784	-387.097467	31.128	
C	-0.162665438	 1.3381408227	-0.0715614681	-0.349383
C	 1.2106419686	 0.7175485169	-0.1067737899	 0.119527
O	 1.9990857199	 0.759825125	 1.0538888146	-0.257853
C	 1.2089471712	 0.2545362127	 2.1291270673	-0.17878
C	 0.1487911812	-0.6893536593	 1.5290834568	 0.345645
C	 0.3910229293	-2.2323274109	 1.5782962654	-0.26899
C	-1.0959910601	-2.4262142356	 1.9774470687	-0.209201
C	-1.1657177105	-0.9160706207	 2.3315629001	-0.273467
C	 0.0139755086	-0.1628066629	 0.108833008	-0.131384
H	-0.4467471767	 1.9469553117	 0.7803544744	 0.116806
H	-0.5785654575	 1.6723094085	-1.0160970045	 0.111684
H	 1.8109834357	 0.7320238255	-1.0085428245	 0.09919
H	 1.8799957569	-0.2439580771	 2.8352918027	 0.106256
H	 0.7154333241	 1.0817272696	 2.6626878802	 0.093135
H	 0.7378361757	-2.7090435851	 0.6574845498	 0.098249
H	 1.0742423515	-2.5073219262	 2.3874663762	 0.096662
H	-1.7245020442	-2.6750904025	 1.1181451561	 0.103464
H	-1.3110581341	-3.1383796031	 2.777131381	 0.097318
H	-1.0209310449	-0.7393701702	 3.402779639	 0.096229
H	-2.0438496698	-0.3535198699	 2.0039747035	 0.09923
H	-0.3566865068	-0.831999199	-0.6595720466	 0.085662
104.7696	130.4682	205.4498	302.9352	335.3763	387.1717	455.4882	487.3938	675.6674	707.4751	734.1049	783.6383	794.9125	832.0492	873.4592	895.075	934.9696	941.4967	964.1418	969.4197	977.1196	1018.9152	1036.2307	1059.0173	1066.4149	1095.8928	1125.2546	1148.5501	1172.7277	1200.142	1207.8177	1209.291	1244.1571	1255.5465	1274.1463	1276.0241	1297.0911	1323.444	1375.2154	1398.4565	1474.9401	1475.8907	1484.6226	1506.0949	1521.0612	2981.4665	3042.2347	3050.0751	3062.0628	3074.2349	3093.4501	3099.9865	3118.1669	3130.8167	3166.1784	3185.8253	3216.9628
C1C2OCC3(CCC3)C12	C1[C@H]2OCC3(CCC3)[C@@H]12	
InChI=1S/C8H12O/c1-2-8(3-1)5-9-7-4-6(7)8/h6-7H,1-5H2	InChI=1S/C8H12O/c1-2-8(3-1)5-9-7-4-6(7)8/h6-7H,1-5H2/t6-,7+/m0/s1
