14
gdb 131929	4.63531	1.05918	0.86682	4.604	69.41	-0.2509	-0.0773	0.1736	1250.8335	0.100389	-473.778195	-473.770424	-473.76948	-473.811128	27.756	
C	 0.0854252943	 1.469841256	 0.0108599967	-0.488879
C	-0.0955239953	-0.003596819	 0.0190577276	 0.399526
C	-1.1683942582	-0.8212133982	-0.1364664201	-0.39433
C	-0.6533006561	-2.1490170668	-0.0175208948	 0.322578
C	 0.6873579799	-2.057833496	 0.2007955138	-0.037994
O	 1.0379592547	-0.7589587279	 0.225033317	-0.174482
N	-1.3942059466	-3.374882756	-0.107869329	 0.337982
O	-2.600730185	-3.2858892913	-0.308717854	-0.36109
O	-0.7700877517	-4.424093655	 0.021870624	-0.377527
H	 0.777315683	 1.7819892681	-0.7788789907	 0.149495
H	-0.875825422	 1.9580326066	-0.1604554082	 0.147701
H	 0.489532265	 1.8270822758	 0.9642396701	 0.149492
H	-2.1934902403	-0.5433305093	-0.3123105585	 0.148844
H	 1.4597612384	-2.7921480468	 0.3468621361	 0.178685
82.182	120.0294	155.7788	182.4404	300.883	342.3913	410.5763	550.0186	600.0644	644.5287	684.6627	770.1127	805.1188	830.6086	857.6849	924.0555	994.6176	1014.7682	1066.6585	1130.7324	1187.4046	1219.0342	1272.3038	1398.936	1418.177	1437.9323	1471.9104	1488.082	1573.306	1622.1298	1648.2521	3037.7846	3091.8299	3137.9935	3288.557	3304.2722
CC1=CC(=CO1)N(=O)=O	Cc1cc(co1)N(=O)=O	
InChI=1S/C5H5NO3/c1-4-2-5(3-9-4)6(7)8/h2-3H,1H3	InChI=1S/C5H5NO3/c1-4-2-5(3-9-4)6(7)8/h2-3H,1H3
