20
gdb 80581	3.62523	1.04403	0.96893	3.5798	79.58	-0.2316	-0.0148	0.2168	1311.1583	0.169353	-403.121826	-403.112533	-403.111589	-403.156543	34.001	
C	-0.1264314831	 1.5279402595	-0.0576448561	-0.427574
C	 0.1390585064	 0.0416418144	 0.0124027352	 0.011756
C	 0.666787193	-0.8120953968	-1.0712281319	-0.053115
C	 1.6943977166	-0.09544954	-1.9383355122	-0.125663
C	 2.4646370788	 0.1903840284	-0.6093959585	-0.179985
N	 1.4694315309	-0.5774152471	 0.2107724821	-0.146853
C	 2.4647649727	-0.9804020304	-2.8993868324	 0.362842
C	 3.5351802793	-0.2840452414	-3.7224063923	-0.480995
O	 2.2442038765	-2.1655192007	-3.0026145148	-0.291927
H	 0.5095225782	 2.0536138226	-0.773171334	 0.119921
H	-1.1661683336	 1.7009731439	-0.3542879506	 0.127498
H	 0.0192649157	 1.9896119331	 0.9249850866	 0.129397
H	-0.5755185262	-0.4779508624	 0.6492398288	 0.1004
H	 0.2670675273	-1.7891222506	-1.3170452392	 0.114577
H	 1.3430822007	 0.7905565319	-2.4807371996	 0.086779
H	 3.4337749199	-0.3111084179	-0.5549389181	 0.121096
H	 2.5934871196	 1.23853983	-0.3222864797	 0.106682
H	 4.1883168946	 0.323958918	-3.0871159954	 0.138379
H	 4.1251130271	-1.0226039432	-4.2661259765	 0.144983
H	 3.0629882656	 0.3990783487	-4.4384003612	 0.141802
46.0277	107.5933	114.6625	150.5996	185.7103	247.0721	308.8944	360.3839	416.0566	545.6814	578.8197	591.8659	703.6393	734.0344	789.7707	824.983	905.855	924.7046	950.835	957.7875	985.7996	1027.944	1075.448	1089.1776	1091.2304	1120.4862	1137.0138	1188.816	1191.6517	1225.9454	1255.3415	1288.4563	1318.7594	1373.3842	1384.9656	1413.6975	1442.8337	1463.1702	1476.7574	1487.8118	1502.409	1509.633	1806.6659	3028.0815	3036.664	3039.0354	3050.6977	3095.7809	3098.0879	3104.2761	3112.8078	3130.4855	3153.233	3185.8335
CC1C2C(CN12)C(C)=O	C[C@H]1[C@H]2[C@@H](CN12)C(=O)C	
InChI=1S/C7H11NO/c1-4-7-6(5(2)9)3-8(4)7/h4,6-7H,3H2,1-2H3	InChI=1S/C7H11NO/c1-4-7-6(5(2)9)3-8(4)7/h4,6-7H,3H2,1-2H3/t4-,6-,7-,8?/m0/s1
