18
gdb 124785	2.64011	1.43492	1.04679	2.8295	73.46	-0.2581	0.0042	0.2623	1162.8911	0.148368	-435.295876	-435.286803	-435.285859	-435.330315	32.352	
C	 0.0467634124	 1.4370250675	-0.2063116515	-0.392636
C	 0.027973264	-0.0364314661	 0.2320759664	 0.041508
O	 0.5126733283	-0.169317661	 1.5504284128	-0.433291
C	-1.357566183	-0.6225932467	 0.1522785345	 0.360416
N	-2.1173139313	-0.8068823806	 1.2212690221	-0.344633
C	-3.2646292202	-1.3163548536	 0.6996234852	 0.023778
N	-3.2637093419	-1.4588604982	-0.6129758742	-0.256999
N	-2.0244953377	-1.0105264429	-0.9547968276	-0.02362
C	-1.6239503942	-0.9829277462	-2.3464864179	-0.33235
H	 1.0568407026	 1.8345593244	-0.0792695684	 0.132837
H	-0.244535581	 1.5528847533	-1.255899003	 0.107951
H	-0.6392993099	 2.0209906674	 0.4137456384	 0.131752
H	 0.6981946516	-0.6070914795	-0.4283175642	 0.089233
H	-0.2616101294	-0.3218446058	 2.1120173434	 0.298424
H	-4.1171095491	-1.5944256625	 1.3009262625	 0.130741
H	-2.007526626	-0.0893968199	-2.8484276589	 0.151977
H	-0.5346563081	-0.9919846447	-2.4125324169	 0.150146
H	-2.0255845272	-1.8684172649	-2.8403825728	 0.164766
49.4856	84.5552	149.7318	193.7768	210.8697	254.115	318.352	353.429	372.2236	452.9552	527.0563	648.868	680.5298	749.3839	767.7239	905.952	913.602	996.0731	1023.0641	1042.6046	1096.6251	1130.9177	1150.5567	1181.3973	1220.4864	1295.8759	1308.7963	1318.4085	1357.6509	1399.2951	1429.3873	1433.491	1462.7746	1478.4644	1486.3729	1493.1579	1503.9756	1538.566	1558.5895	2989.6574	3038.0937	3052.0044	3112.3947	3125.9676	3130.0162	3157.8672	3261.5374	3719.4725
CC(O)C1=NC=NN1C	C[C@@H](O)c1ncnn1C	
InChI=1S/C5H9N3O/c1-4(9)5-6-3-7-8(5)2/h3-4,9H,1-2H3	InChI=1S/C5H9N3O/c1-4(9)5-6-3-7-8(5)2/h3-4,9H,1-2H3/t4-/m1/s1
