17
gdb 36505	4.14208	1.00334	0.8514	4.1148	73.62	-0.2612	0.0125	0.2737	1309.2839	0.137735	-418.038566	-418.030452	-418.029508	-418.071952	29.642	
N	-0.0378601717	-1.188928319	 0.0864539578	-0.299287
C	-0.0203054715	-0.0341911473	 0.0990471762	 0.270711
C	-0.0028460012	 1.4274175162	 0.0917460415	-0.36254
C	 1.4108008685	 2.0100210424	-0.0219790667	 0.139447
C	 1.4238178779	 3.5325858543	-0.1199807413	-0.249139
C	 2.878836587	 4.0143499805	-0.0705786949	-0.167187
N	 3.6592786563	 3.3789929236	 0.9864494081	-0.258392
C	 3.2280255317	 2.3007236795	 1.4804987442	 0.132638
O	 2.1242043749	 1.5781586865	 1.1451299322	-0.237031
H	-0.6061558781	 1.7822934103	-0.7510294998	 0.155788
H	-0.4705654065	 1.7962006572	 1.0109366608	 0.162085
H	 1.9106324329	 1.5773116044	-0.8988063337	 0.111081
H	 0.9278616342	 3.8566198713	-1.0407950028	 0.110847
H	 0.863183415	 3.9500225748	 0.7250388938	 0.117345
H	 3.3781667102	 3.8293364084	-1.0308359042	 0.119373
H	 2.9154144897	 5.0974356087	 0.0863852983	 0.120166
H	 3.7485207808	 1.807553918	 2.2986671904	 0.134094
69.2046	92.6249	139.486	222.2054	298.4035	388.4843	395.8743	440.5073	504.4552	546.7994	579.2552	795.1699	810.5388	881.2917	911.9901	944.0151	959.2108	966.525	1022.1698	1075.719	1104.9419	1118.223	1155.5296	1213.6654	1252.2224	1260.5453	1307.7084	1354.3345	1366.1812	1387.3586	1400.2192	1410.8011	1451.7769	1478.8928	1491.6416	1739.0558	2369.0277	3019.841	3023.7701	3036.7185	3051.8103	3067.0417	3087.2493	3097.6787	3168.4089
N#CCC1CCN=CO1	N#CC[C@H]1CCN=CO1	
InChI=1S/C6H8N2O/c7-3-1-6-2-4-8-5-9-6/h5-6H,1-2,4H2	InChI=1S/C6H8N2O/c7-3-1-6-2-4-8-5-9-6/h5-6H,1-2,4H2/t6-/m0/s1
