15
gdb 28733	4.46641	0.95649	0.81558	3.6517	72.5	-0.1915	0.0136	0.2051	1351.0945	0.112596	-453.959036	-453.950603	-453.949659	-453.993281	30.286	
N	 0.1397138782	 1.3984527276	 0.0413669988	-0.592622
C	-0.0195298363	 0.0212046471	-0.0279951315	 0.373908
C	-1.0470309897	-0.8304967472	 0.2415597726	-0.255422
C	-0.509601354	-2.1611119169	 0.1025982371	-0.272248
C	 0.7838121223	-2.0038665598	-0.2503414135	 0.385684
O	 1.7453144929	-2.8768316359	-0.623554171	-0.210516
C	 2.8360223435	-2.9856533504	 0.1984387445	 0.111247
N	 3.8019241946	-3.702121376	-0.1638961363	-0.423024
O	 1.1112787491	-0.6723968011	-0.3358737754	-0.200748
H	 0.696928385	 1.7693709288	-0.7194712484	 0.258106
H	-0.746869937	 1.8811578493	 0.0947278751	 0.256637
H	-2.0560994063	-0.5582397194	 0.5053612626	 0.101417
H	-1.0228872746	-3.099721289	 0.2321095008	 0.119741
H	 2.7246485449	-2.4103773949	 1.1239833811	 0.109948
H	 4.5259332175	-3.699974412	 0.5516695434	 0.237891
34.7621	99.1311	123.2085	186.3434	261.4976	333.7217	389.2467	460.5228	504.027	628.7646	662.8892	678.4682	738.2152	765.0263	796.6328	821.3612	828.1041	975.2646	997.3786	1024.6763	1043.6288	1045.0055	1111.0106	1234.9782	1258.0709	1279.6554	1296.2049	1406.44	1432.3301	1616.9683	1660.6028	1676.0131	1759.0701	3066.3532	3259.8411	3274.3032	3522.3469	3533.5239	3638.5081
NC1=CC=C(OC=N)O1	Nc1ccc(O[CH][NH])o1	
InChI=1S/C5H6N2O2/c6-3-8-5-2-1-4(7)9-5/h1-3,6H,7H2	InChI=1S/C5H6N2O2/c6-3-8-5-2-1-4(7)9-5/h1-3,6H,7H2
