16
gdb 97708	2.74796	0.83401	0.70218	2.0357	76.64	-0.2513	-0.0319	0.2194	1589.9398	0.122002	-437.82436	-437.814722	-437.813778	-437.861097	33.07	
O	 0.3073095098	 0.96167288	-0.8085503374	-0.399259
C	 0.0057560528	 0.0633030543	 0.2487394079	-0.203777
C	-1.3473656033	-0.4875167153	 0.181115922	 0.149142
C	-2.4825123627	-0.8869426214	 0.1118790165	-0.050991
C	-3.826690367	-1.3832173915	 0.0600910472	 0.027406
C	-4.3594169086	-1.8958402734	-1.2591562023	-0.25613
N	-4.0744862523	-2.8360787967	-0.1935186293	-0.338943
C	-4.8406243262	-0.7951132032	 1.0013241477	 0.132862
O	-4.666264032	 0.1793030525	 1.6808638148	-0.246153
H	-0.3640170563	 1.6522604282	-0.8004965111	 0.290968
H	 0.7429053638	-0.7438416215	 0.1736656205	 0.142911
H	 0.1503333839	 0.533783641	 1.2339473574	 0.129135
H	-5.4135401729	-1.7610839303	-1.4877997226	 0.13621
H	-3.6840351683	-1.8115605596	-2.1049091851	 0.143164
H	-3.1765294462	-3.289064034	-0.3452164026	 0.253786
H	-5.7953734744	-1.3654011691	 0.9997303964	 0.089668
15.1511	80.8305	93.1748	122.2008	207.5962	240.0478	285.1962	345.4044	345.9847	449.3342	480.0609	554.1887	596.5128	690.0775	771.9137	897.6304	923.8022	979.356	981.6737	1024.1286	1044.2626	1059.3253	1098.5986	1136.7272	1215.2018	1255.3767	1312.9362	1360.3349	1368.859	1416.5307	1419.4068	1485.9426	1502.2682	1838.0712	2356.3009	2901.1274	2984.8315	3064.6555	3112.894	3207.4703	3513.5537	3813.5454
OCC#CC1(CN1)C=O	OCC#C[C@]1(CN1)C=O	
InChI=1S/C6H7NO2/c8-3-1-2-6(5-9)4-7-6/h5,7-8H,3-4H2	InChI=1S/C6H7NO2/c8-3-1-2-6(5-9)4-7-6/h5,7-8H,3-4H2/t6-/m0/s1
