17
gdb 52863	2.17979	0.91021	0.67618	2.1366	88.82	-0.2417	0.0099	0.2516	1698.0901	0.131584	-384.615697	-384.604974	-384.60403	-384.658601	35.435	
C	-0.0794603519	 1.4441426472	-0.0857819309	-0.503444
C	-0.0229333876	-0.0081890187	-0.0293542939	 0.093426
C	 0.0183575471	-1.2105268628	 0.0120235398	-0.002209
C	 0.0847848188	-2.65210287	 0.0574226676	 0.131475
C	-0.5014553264	-3.3711541202	 1.220327038	-0.210404
O	-1.1925361267	-3.3395806973	-0.0149295218	-0.261035
C	 1.1633897105	-3.2651424747	-0.6811116408	-0.002194
C	 2.0699797591	-3.7637602623	-1.2963421385	 0.093401
C	 3.159560534	-4.3683758386	-2.0466173604	-0.503456
H	 0.6928364527	 1.8430782024	-0.7522749014	 0.153841
H	-1.0507092566	 1.7848386711	-0.4608801096	 0.155719
H	 0.0703513964	 1.8889170341	 0.9040675347	 0.150858
H	-0.0751243046	-4.3323556548	 1.5034771967	 0.1218
H	-0.9384866554	-2.783283249	 2.0260886778	 0.121797
H	 2.7820946372	-5.1150306738	-2.753806882	 0.155717
H	 3.70897719	-3.6145248651	-2.6207629642	 0.153835
H	 3.8727972634	-4.8688078274	-1.382583041	 0.150872
0.4811	12.1206	58.5984	111.6432	138.2951	155.1224	293.2267	296.4093	313.4195	334.687	455.4051	481.6327	482.8533	571.866	588.2848	794.6744	799.9466	933.5743	1001.6126	1050.5068	1050.819	1053.225	1054.1445	1093.2405	1135.8086	1170.9245	1320.2392	1329.7936	1412.7194	1414.4844	1475.3838	1475.5646	1476.7074	1476.8817	1510.9985	2373.3143	2374.2858	3029.1085	3029.3947	3081.7764	3090.9732	3091.007	3092.8185	3092.9006	3177.7805
CC#CC1(CO1)C#CC	CC#CC1(CO1)C#CC	
InChI=1S/C8H8O/c1-3-5-8(6-4-2)7-9-8/h7H2,1-2H3	InChI=1S/C8H8O/c1-3-5-8(6-4-2)7-9-8/h7H2,1-2H3
