15
gdb 128561	3.13519	1.29481	0.92175	4.1769	73.96	-0.23	-0.0622	0.1677	1199.6243	0.112577	-453.919705	-453.911854	-453.910909	-453.952318	29.106	
C	-0.0935870637	 1.3618636048	 0.149269592	-0.256216
O	 0.0053126154	-0.0498187468	-0.0035536199	-0.254728
C	 0.6309898081	-0.5070926532	-1.0999585726	 0.385004
C	 1.1905561906	 0.2077997184	-2.0977183787	-0.333291
C	 1.8212658939	-0.4861407876	-3.1995285834	 0.417417
N	 2.3703556549	 0.1094539873	-4.1766424694	-0.536233
O	 1.8111946886	-1.885229824	-3.1602119389	-0.289241
N	 1.2349748526	-2.614101891	-2.1328469645	-0.061022
C	 0.6883215411	-1.9538537357	-1.1789427715	-0.014395
H	 0.9006514547	 1.8202792825	 0.2016152799	 0.141912
H	-0.6548769572	 1.8067916957	-0.6804209657	 0.141911
H	-0.6259718197	 1.5279188459	 1.0856248725	 0.149299
H	 1.2073331805	 1.2869145505	-2.143762805	 0.132927
H	 2.7530651178	-0.5638822099	-4.8411865027	 0.226855
H	 0.2453549123	-2.5511993569	-0.3886709921	 0.149799
103.7229	140.8595	190.7397	217.1727	255.2131	395.6615	415.8389	466.4147	541.0844	567.2178	670.6149	699.4657	724.6024	838.8873	884.9562	885.5194	914.639	934.0673	1013.1258	1048.1827	1102.0821	1179.1556	1204.3139	1267.1586	1272.1199	1345.648	1396.7287	1483.5789	1490.0181	1503.2665	1638.3399	1691.353	1738.0231	3023.1643	3090.4605	3154.5676	3195.3404	3243.3926	3489.1049
COC1=CC(=N)ON=C1	CO[C]1C=C([NH])ON=C1	
InChI=1S/C5H6N2O2/c1-8-4-2-5(6)9-7-3-4/h2-3,6H,1H3	InChI=1S/C5H6N2O2/c1-8-4-2-5(6)9-7-3-4/h2-3,6H,1H3
