13
gdb 130195	3.58782	1.75246	1.18004	5.3948	64.97	-0.2164	-0.006	0.2105	937.2585	0.092926	-445.102308	-445.095481	-445.094537	-445.133363	26.012	
N	 0.0047995226	 1.3913707814	 0.1574857363	-0.589924
C	-0.0034808793	 0.0190466804	 0.024720753	 0.422695
N	-1.0619694297	-0.7403689055	-0.0200668854	-0.277675
N	-0.5922067282	-2.0476432248	 0.0129244189	-0.366849
C	 0.7684697102	-2.0611966307	-0.0381842631	 0.517879
N	 1.7867091238	-2.8859029899	-0.0831833254	-0.36104
N	 2.905574586	-2.0621351432	-0.0466128238	-0.209004
C	 2.5366401062	-0.8081759589	 0.0182734451	-0.026601
N	 1.1540948733	-0.7422088178	 0.0213475589	-0.088001
H	 0.6502049419	 1.8632920761	-0.4640172008	 0.265772
H	-0.9281715063	 1.7752747568	 0.0772628968	 0.274338
H	-1.2167107807	-2.7891317559	-0.2479540874	 0.289232
H	 3.1868933701	 0.0479204121	 0.0757062069	 0.149179
165.025	235.0149	257.9359	269.9427	308.8558	424.2402	554.3615	647.3505	650.3352	671.2698	703.6827	731.7512	749.2062	770.6918	863.2938	989.8019	1022.4351	1044.9216	1154.0017	1186.2847	1229.6027	1314.2572	1367.3783	1401.2297	1466.8104	1503.1253	1606.9713	1639.4824	1691.4979	3289.1769	3537.7004	3637.8333	3704.2837
NC1=NNC2=NN=CN12	Nc1n[nH]c2nncn12	
InChI=1S/C3H4N6/c4-2-6-8-3-7-5-1-9(2)3/h1H,(H2,4,6)(H,7,8)	InChI=1S/C3H4N6/c4-2-6-8-3-7-5-1-9(2)3/h1H,(H2,4,6)(H,7,8)
