15
gdb 9658	3.50778	1.39847	1.31223	3.8849	62.44	-0.2753	0.0052	0.2805	975.7959	0.117733	-399.785524	-399.777257	-399.776313	-399.818312	29.996	
O	 0.1864202938	 0.6571429772	 0.7854245695	-0.421276
C	-0.1964971176	 0.2053286777	-0.4973700942	-0.072529
C	-1.5430383889	-0.4970082298	-0.4818136957	-0.069395
C	-1.7839274731	-1.7022637927	-1.3538275938	-0.350173
C	-1.6009922457	-1.8732065079	 0.1453684957	 0.240282
O	-0.3811323135	-2.3482271707	 0.6414306793	-0.45143
C	-2.7537360663	-2.2357918162	 0.9408547712	 0.246662
N	-3.6670225736	-2.5537514447	 1.5755512748	-0.338666
H	 0.3379361784	-0.1298212712	 1.3213557267	 0.297021
H	-0.2627941876	 1.0941929986	-1.1331773894	 0.118482
H	 0.5602761302	-0.4590430609	-0.9354542125	 0.09678
H	-2.3937956978	 0.1426555985	-0.2718144023	 0.125991
H	-2.7691066956	-1.869599587	-1.7727460648	 0.142308
H	-0.9544896151	-2.0506247463	-1.9606717512	 0.132874
H	-0.3641856576	-3.3092748245	 0.5671874565	 0.303068
85.2172	104.4597	161.6498	234.4843	298.5112	314.9397	362.2565	436.2057	455.7501	514.0358	580.2201	592.3664	706.7208	801.7458	886.6248	918.166	956.3991	1039.9524	1067.3423	1078.6232	1084.4448	1150.5042	1215.5032	1243.5131	1277.2863	1329.6664	1383.5514	1413.3035	1430.2508	1470.848	1498.3715	2348.5496	3013.3893	3079.1193	3136.7246	3173.875	3232.6052	3798.5716	3803.0341
OCC1CC1(O)C#N	OC[C@H]1C[C@]1(O)C#N	
InChI=1S/C5H7NO2/c6-3-5(8)1-4(5)2-7/h4,7-8H,1-2H2	InChI=1S/C5H7NO2/c6-3-5(8)1-4(5)2-7/h4,7-8H,1-2H2/t4-,5+/m1/s1
