21
gdb 113753	1.96546	1.44334	0.92691	4.1315	79.66	-0.2476	-0.0424	0.2052	1310.2542	0.180787	-424.222695	-424.212792	-424.211847	-424.257793	36.281	
C	 0.0686662036	 1.3697868104	-0.1599162252	-0.413772
C	 0.0697217178	-0.1377163052	 0.1217716463	-0.09261
C	 0.7314331182	-0.4441935108	 1.4568167951	 0.159725
O	 1.1643421058	-1.5245341505	 1.7806040747	-0.251228
C	-1.3430332806	-0.7189064862	 0.1348012141	 0.010298
C	-2.069669939	-1.0102682219	-1.1571948426	-0.324985
C	-1.660546003	-2.1475636929	-0.2518876356	-0.033968
C	-0.6056144316	-3.1404573744	-0.7019073684	-0.084311
O	 0.0264977671	-3.8069090707	 0.3655013441	-0.428121
H	 1.0844650912	 1.7786434072	-0.1663641325	 0.121292
H	-0.3874268759	 1.5761949527	-1.1312791004	 0.132122
H	-0.506762039	 1.9112151541	 0.5994906168	 0.122897
H	 0.6578880155	-0.6567878797	-0.6431592783	 0.106012
H	 0.7861346583	 0.4084101641	 2.1707105436	 0.090468
H	-1.9612713059	-0.310524968	 0.9321511892	 0.086939
H	-3.1177171898	-0.7447093321	-1.2390967036	 0.115791
H	-1.5101676003	-0.889211726	-2.0807892758	 0.11261
H	-2.4521680882	-2.6104051204	 0.3312283621	 0.094316
H	-1.0895109281	-3.9167481253	-1.3066627233	 0.105657
H	 0.1204663962	-2.642366539	-1.3670555524	 0.073116
H	 0.5117255079	-3.1424146357	 0.8781467922	 0.297751
65.7562	72.3441	162.3808	174.9459	195.5335	211.4838	268.3783	282.3692	327.0422	405.7615	450.9225	538.9659	567.8871	597.7187	770.0369	803.7282	856.84	901.2979	925.9107	957.9951	990.2525	1013.2756	1034.4761	1068.28	1094.6872	1109.5152	1139.8048	1147.1782	1165.2543	1184.8629	1238.0165	1254.2245	1274.0942	1319.3314	1362.3689	1401.5212	1409.2315	1425.413	1433.1404	1460.9146	1491.4554	1496.0591	1496.9999	1507.0038	1811.6037	2881.7816	2952.8957	3033.9092	3050.9808	3054.1012	3098.9412	3119.0875	3122.0197	3123.9551	3147.5274	3209.143	3695.7266
CC(C=O)C1CC1CO	C[C@@H](C=O)[C@H]1C[C@H]1CO	
InChI=1S/C7H12O2/c1-5(3-8)7-2-6(7)4-9/h3,5-7,9H,2,4H2,1H3	InChI=1S/C7H12O2/c1-5(3-8)7-2-6(7)4-9/h3,5-7,9H,2,4H2,1H3/t5-,6-,7+/m0/s1
