21
gdb 36905	4.29504	0.9599	0.9065	1.0592	82.85	-0.2349	0.0835	0.3184	1376.6607	0.182604	-387.033115	-387.024723	-387.023779	-387.066979	32.508	
C	 0.3289508353	 1.4425152266	 0.1516622018	-0.293432
C	 1.1974273595	 0.2063714065	 0.0130585459	-0.286955
C	-0.3077509888	 0.1045914571	-0.0299844148	 0.149311
O	-1.0088732133	-0.4052144771	 1.0616963364	-0.259995
C	-1.2359262031	-1.7968267083	 1.0028029556	 0.144755
C	-0.1038905918	-2.7895137699	 1.4573107511	-0.268293
C	-1.0657678756	-3.3344926082	 2.5178997646	-0.042854
C	-1.4678599699	-2.2251310231	 3.4436304392	-0.267688
C	-2.1436248964	-2.3225701482	 2.1028321134	-0.080581
H	 0.2503444309	 1.8803282802	 1.1402450978	 0.124858
H	 0.2877760226	 2.1533645401	-0.6658069872	 0.112637
H	 1.7571557833	 0.0575760967	-0.9041572615	 0.110039
H	 1.6911768043	-0.1471961915	 0.9105624891	 0.118562
H	-0.7686964686	-0.1173965972	-0.9939572075	 0.081187
H	-1.605949968	-2.0700825745	 0.004810376	 0.067821
H	 0.1619858466	-3.5052238121	 0.6763653595	 0.099778
H	 0.8092404018	-2.327347138	 1.8434764795	 0.098562
H	-1.1942789186	-4.3783423503	 2.7742290446	 0.085528
H	-2.0897983339	-2.5143591814	 4.2845244356	 0.109172
H	-0.7837886475	-1.4068375685	 3.6507454169	 0.114745
H	-3.2151218989	-2.4530342291	 2.013267304	 0.082841
46.7972	86.3227	113.8549	220.4257	303.9132	367.1344	394.9372	490.3207	531.3759	680.6522	756.4909	785.0863	805.9121	810.2238	830.8143	854.959	921.2702	949.3122	967.6365	979.8417	990.361	1024.0115	1037.7703	1050.7394	1062.6014	1069.9442	1080.2061	1082.9668	1124.6369	1130.2135	1157.9821	1193.3476	1201.0437	1216.4596	1237.7492	1244.8261	1267.1912	1317.8873	1363.3892	1369.0913	1422.6791	1453.4564	1476.5269	1492.3207	1501.1753	3001.9006	3056.2745	3084.8488	3112.0051	3118.4694	3135.9522	3141.1616	3181.5922	3192.1527	3208.5639	3220.4885	3234.5007
C1CC1OC1CC2CC12	C1CC1O[C@H]1C[C@H]2C[C@@H]12	
InChI=1S/C8H12O/c1-2-6(1)9-8-4-5-3-7(5)8/h5-8H,1-4H2	InChI=1S/C8H12O/c1-2-6(1)9-8-4-5-3-7(5)8/h5-8H,1-4H2/t5-,7-,8+/m1/s1
