18
gdb 13871	4.16218	1.38993	1.11893	2.2786	70.08	-0.2306	0.0102	0.2407	1074.185	0.153159	-384.939961	-384.931561	-384.930617	-384.973259	30.41	
C	 0.366399662	 1.040774259	-0.7137913711	-0.406428
C	-0.0686228236	 0.0957997599	 0.4048809674	 0.028115
O	 0.0140034037	 0.7296453085	 1.6873408647	-0.425831
C	-1.4321858578	-0.5068643992	 0.2117777655	 0.285316
C	-2.3034986566	-0.3588414884	-0.7837009957	-0.227568
C	-3.537737357	-1.1721214569	-0.5171406131	-0.102426
O	-3.320614367	-1.7790122332	 0.7526739059	-0.266847
C	-2.0259241045	-1.440244539	 1.2403431862	-0.142395
H	 1.3505654241	 1.4543803631	-0.4808011624	 0.126921
H	 0.4246137721	 0.5189572676	-1.6738052766	 0.121947
H	-0.3398225319	 1.8720020847	-0.8208934698	 0.111585
H	 0.6619281213	-0.7218284768	 0.4773001864	 0.097871
H	-0.6339601569	 1.4436623327	 1.6942129297	 0.279365
H	-2.1748765514	 0.2367336965	-1.6784742962	 0.101542
H	-4.4510530572	-0.5566578082	-0.4845908036	 0.104023
H	-3.7013037931	-1.9456383647	-1.2859343485	 0.10319
H	-1.4151346621	-2.3500459772	 1.3658360299	 0.10015
H	-2.107107604	-0.9704710886	 2.230298901	 0.111469
55.9338	101.6259	164.1178	196.2049	259.3307	310.9113	346.0493	376.5548	478.8482	514.4878	651.4285	774.6335	840.1489	872.2097	915.1801	928.1088	971.1504	1017.9189	1033.7594	1056.9488	1065.6286	1113.0659	1119.5283	1169.4816	1200.7829	1219.9402	1276.0588	1285.1708	1346.0316	1384.3248	1392.2086	1402.7274	1414.7213	1491.7698	1495.9222	1516.8386	1530.2244	1723.2789	2960.6659	2967.2634	2981.1043	3015.1477	3016.1951	3035.0273	3104.5167	3126.1923	3216.3186	3793.3854
CC(O)C1=CCOC1	C[C@@H](O)C1=CCOC1	
InChI=1S/C6H10O2/c1-5(7)6-2-3-8-4-6/h2,5,7H,3-4H2,1H3	InChI=1S/C6H10O2/c1-5(7)6-2-3-8-4-6/h2,5,7H,3-4H2,1H3/t5-/m1/s1
