17
gdb 34389	2.60175	1.62754	1.29626	3.6392	77.72	-0.2416	-0.0093	0.2323	1019.0817	0.13833	-380.86966	-380.862114	-380.86117	-380.902061	28.958	
N	-0.0174095395	-1.0872427184	-0.3980341786	-0.344036
C	-0.0169722456	 0.0487573022	-0.1790804028	 0.213117
C	-0.0243633311	 1.4873815206	 0.0650958785	 0.194781
N	-0.3876151288	 2.3151209267	-1.131583078	-0.363094
C	 0.9617177323	 2.9473028807	-1.1487630252	-0.169337
C	 1.3680086204	 2.2124746825	 0.1552447416	-0.090551
C	 1.3643879531	 2.9942395405	 1.4851318176	-0.287211
C	-0.0014110889	 2.7161842815	 2.0691484036	-0.062336
C	-0.7448601958	 1.8974581292	 1.3281201703	-0.106226
H	-0.5967360954	 1.7628396428	-1.9561581421	 0.232426
H	 1.5789406154	 2.678061461	-2.0123817918	 0.111353
H	 0.9161047768	 4.039904449	-1.0810669258	 0.110188
H	 2.2379794875	 1.5666523519	 0.0470190528	 0.101322
H	 2.1630046645	 2.6634625118	 2.1601510478	 0.118539
H	 1.5245373504	 4.0685388638	 1.3254441161	 0.117329
H	-0.3264290754	 3.1631601539	 3.0025774217	 0.108469
H	-1.7546822699	 1.5720513704	 1.5445636444	 0.115265
60.6863	155.3533	163.778	264.8671	355.9682	467.4435	506.7637	541.7963	565.7773	644.8284	716.6343	762.6658	767.913	826.1013	908.9026	914.5706	950.1778	978.1423	1009.4904	1031.7955	1048.8989	1069.5994	1099.7356	1128.2387	1165.4857	1181.0748	1206.0316	1228.7881	1315.3734	1318.2166	1327.621	1367.3353	1394.83	1484.3177	1517.0158	1680.9277	2343.0097	3023.4178	3030.0046	3051.058	3072.3865	3123.458	3190.4543	3222.5155	3536.5913
N#CC12NCC1CC=C2	N#C[C@]12NC[C@H]1CC=C2	
InChI=1S/C7H8N2/c8-5-7-3-1-2-6(7)4-9-7/h1,3,6,9H,2,4H2	InChI=1S/C7H8N2/c8-5-7-3-1-2-6(7)4-9-7/h1,3,6,9H,2,4H2/t6-,7+/m1/s1
