17
gdb 65648	3.74153	1.21075	1.13032	1.9866	68.88	-0.2507	-0.0439	0.2068	1097.1153	0.134874	-458.931418	-458.92347	-458.922525	-458.964195	30.146	
O	 0.1220108237	 1.5142912745	-0.3443807926	-0.474406
C	 0.0062744318	 0.1569504794	-0.0658719618	 0.326475
C	 0.1362498104	-0.2694631879	 1.4458476285	-0.308546
C	-1.2796483961	-0.8853920476	 1.3978486842	 0.122249
O	-2.2964920892	 0.0344721977	 1.8270351482	-0.288151
C	-2.513732611	 0.4999699668	 0.4692722925	-0.086332
C	-1.4422400831	-0.4536262869	-0.084789199	-0.155609
C	 0.9315990615	-0.6335672378	-0.9581899278	 0.10679
O	 1.6206643816	-0.1029313454	-1.796224832	-0.278654
H	 0.7454172245	 1.5832959125	-1.086182972	 0.293673
H	 0.9486643675	-0.9727270728	 1.6521873473	 0.106221
H	 0.2143549429	 0.5885398543	 2.1149414168	 0.136205
H	-1.4276103006	-1.8944387992	 1.7890203512	 0.081111
H	-3.5334562912	 0.2781732393	 0.1344062052	 0.104956
H	-2.3062070184	 1.5672503767	 0.348814777	 0.131498
H	-1.7187336655	-1.1076139814	-0.9117769669	 0.081975
H	 0.9403915313	-1.7326102424	-0.807314219	 0.100545
76.0506	99.1823	212.4353	276.3467	324.4232	354.2614	380.7954	436.2318	512.0062	541.5246	714.8142	769.0565	818.1059	846.666	888.6994	913.6448	922.3891	979.0603	998.2291	1011.8503	1058.6718	1075.0329	1093.3188	1116.8933	1161.7983	1188.0782	1224.6077	1254.6091	1282.5598	1290.0684	1307.9704	1361.026	1388.7356	1434.532	1450.2915	1519.8738	1807.5208	2926.3843	3031.0299	3056.9568	3084.4296	3092.1534	3109.7308	3137.4616	3673.4031
OC1(CC2OCC12)C=O	O[C@]1(C[C@H]2OC[C@@H]12)C=O	
InChI=1S/C6H8O3/c7-3-6(8)1-5-4(6)2-9-5/h3-5,8H,1-2H2	InChI=1S/C6H8O3/c7-3-6(8)1-5-4(6)2-9-5/h3-5,8H,1-2H2/t4-,5-,6-/m1/s1
