23
gdb 76675	2.95127	0.97859	0.87661	1.6254	86.04	-0.2541	0.0876	0.3417	1453.7835	0.204507	-388.258341	-388.248239	-388.247295	-388.293888	37.125	
C	-0.3027513016	 1.232944128	-1.4991434983	-0.409041
C	-0.0604742649	-0.0820010757	-0.7863372173	-0.007481
C	 1.3226769913	-0.6005164391	-0.440671799	-0.046294
C	 2.5982028019	 0.1445854935	-0.7761876938	-0.40344
C	 0.3776697025	-0.1646998746	 0.6629233043	-0.017014
C	 0.6119691992	 1.0655890375	 1.5219873725	-0.253808
C	-0.6504187455	 1.5167424073	 2.2222176215	 0.112601
C	-0.9361513937	 2.9281161953	 2.5063744551	-0.186672
O	-1.6040562574	 2.2454073418	 1.4431645261	-0.22924
H	 0.479468907	 1.9711495887	-1.3059801144	 0.108241
H	-0.3414659897	 1.0803992569	-2.583508256	 0.10756
H	-1.249093235	 1.6775105639	-1.1775497724	 0.140083
H	-0.770411764	-0.8514208012	-1.0811596237	 0.07775
H	 1.4375667782	-1.6786660098	-0.5294586728	 0.077455
H	 2.494200572	 1.2286497695	-0.6895326519	 0.114835
H	 3.4136819848	-0.1586398512	-0.1096046537	 0.113775
H	 2.9154579842	-0.0706552803	-1.8027075346	 0.11562
H	-0.0661250443	-0.9815167645	 1.2298074227	 0.074631
H	 1.3683220533	 0.8432043302	 2.288212261	 0.099303
H	 0.9985462794	 1.9011842304	 0.9324786021	 0.100056
H	-1.1071080632	 0.7712470244	 2.8773526972	 0.088032
H	-1.5625716538	 3.2001109985	 3.3550489801	 0.112302
H	-0.2230066808	 3.6913392307	 2.1959009253	 0.110746
52.9022	79.1199	123.9518	153.6897	178.2194	209.6393	228.374	284.3657	374.0673	405.7999	465.6812	520.7792	534.2167	745.9726	772.0806	792.0151	848.5214	862.792	918.588	950.5613	961.5357	982.5384	1033.2546	1051.0596	1073.4394	1093.4947	1117.1475	1141.7345	1158.2609	1161.0603	1170.8381	1184.4318	1190.7588	1256.6799	1274.5597	1295.1647	1314.9624	1378.6939	1396.8709	1418.0866	1425.0233	1446.6238	1455.9824	1467.8651	1489.5502	1496.3961	1504.9663	1514.9918	1531.5368	3011.9945	3030.8962	3037.7707	3077.0346	3081.4768	3084.0348	3092.6312	3099.5128	3108.1813	3111.0833	3118.6844	3123.53	3138.0877	3164.4263
CC1C(C)C1CC1CO1	C[C@H]1[C@@H](C)[C@H]1C[C@H]1CO1	
InChI=1S/C8H14O/c1-5-6(2)8(5)3-7-4-9-7/h5-8H,3-4H2,1-2H3	InChI=1S/C8H14O/c1-5-6(2)8(5)3-7-4-9-7/h5-8H,3-4H2,1-2H3/t5-,6+,7-,8-/m0/s1
