19
gdb 72118	2.52922	2.27656	1.64994	1.2591	78.83	-0.2372	0.0101	0.2473	895.4124	0.16113	-385.877257	-385.870495	-385.86955	-385.907761	29.143	
C	-0.0803547703	 1.4765259014	 0.0272206964	-0.495223
C	 0.0880305267	-0.0222718829	 0.0147729145	 0.393796
O	-1.2454683359	-0.6840670957	 0.0490279507	-0.308334
C	-0.9655249898	-1.7813930893	 0.8956560111	 0.083739
C	-0.4488128973	-1.0924245676	 2.1747663024	-0.250399
C	 0.7299143869	-0.7465146253	 1.238469079	-0.097349
C	 0.5810556052	-2.146218107	 0.5633422569	-0.093939
C	 0.9939077865	-1.9555771752	-0.8544421461	-0.091855
C	 0.760816066	-0.6759910981	-1.1762050419	-0.122997
H	 0.8931835954	 1.970328596	-0.0541865287	 0.118628
H	-0.6989496105	 1.7979985368	-0.8164542813	 0.129431
H	-0.5660251317	 1.8095288066	 0.9487125959	 0.122656
H	-1.7683034886	-2.5161587266	 0.8612317119	 0.080097
H	-1.0661444872	-0.2861824233	 2.5772866687	 0.097563
H	-0.151885814	-1.789655579	 2.9618737654	 0.096426
H	 1.6975226485	-0.3756283338	 1.5769598493	 0.070728
H	 0.9521645744	-3.0068577411	 1.1174632687	 0.070825
H	 1.3322213945	-2.7423391272	-1.5175859649	 0.099683
H	 0.8576754914	-0.2087695587	-2.148543118	 0.096525
206.2123	252.6008	279.8748	384.7293	422.5814	475.7709	536.8137	602.021	654.9829	698.1545	749.1345	766.6993	794.0393	799.5447	874.4242	888.0308	905.119	930.9057	954.1147	974.4087	1006.0666	1021.27	1047.1673	1069.7814	1083.6738	1108.1591	1129.9066	1173.9719	1201.4832	1214.7903	1218.2176	1244.2128	1297.0092	1303.0768	1323.4384	1372.1559	1413.4426	1482.1185	1488.4727	1494.4884	1631.1686	3039.6772	3063.5676	3109.6385	3116.5096	3118.0205	3125.089	3129.7403	3138.0955	3194.165	3219.0037
CC12OC3CC1C3C=C2	C[C@]12O[C@@H]3C[C@H]1[C@@H]3C=C2	
InChI=1S/C8H10O/c1-8-3-2-5-6(8)4-7(5)9-8/h2-3,5-7H,4H2,1H3	InChI=1S/C8H10O/c1-8-3-2-5-6(8)4-7(5)9-8/h2-3,5-7H,4H2,1H3/t5-,6-,7+,8+/m0/s1
