16
gdb 10152	2.61956	1.34362	0.93662	3.3696	67.2	-0.2619	-0.0577	0.2042	1213.9072	0.128496	-379.923832	-379.914606	-379.913662	-379.959277	30.827	
C	-0.0042406792	 1.548298658	-0.0194238594	-0.392021
C	 0.2433371615	 0.0483002073	 0.0934579614	-0.121939
N	 0.4547879472	-0.5330544789	-1.2389536833	-0.308672
C	 0.6362850508	-1.982830878	-1.2574646676	-0.182323
C	 0.8789019856	-2.3674880786	-2.7337061312	 0.160177
O	 0.0648537354	-2.9487563614	-3.3932684765	-0.225761
C	 1.8105917384	-2.3751637886	-0.4680345326	 0.294102
N	 2.7401759883	-2.7152688829	 0.1278823556	-0.314986
H	 0.8353044375	 2.0419745507	-0.516196441	 0.136348
H	-0.9129710409	 1.7588739251	-0.5950919186	 0.117366
H	-0.1319480692	 1.9891863144	 0.9730253126	 0.127457
H	 1.1455229253	-0.1388905234	 0.6853683049	 0.138017
H	-0.5939444894	-0.4348495566	 0.6268310515	 0.092052
H	-0.3449559973	-0.3175926934	-1.8280957517	 0.234152
H	-0.2302130462	-2.5620385207	-0.8965683499	 0.125751
H	 1.8447721622	-2.0057054128	-3.1385584643	 0.120278
32.8062	79.0024	86.2386	132.3752	207.9445	234.9948	259.1713	361.8115	377.076	474.5915	523.1311	614.0657	768.5859	821.7756	887.3269	961.233	991.5894	1036.2483	1059.6678	1132.0305	1148.9061	1182.2104	1254.3582	1293.0094	1348.4625	1386.9374	1404.4177	1416.3685	1484.0005	1497.7688	1505.7555	1523.7219	1845.3326	2359.935	2944.5618	2951.9945	2970.1131	3036.5522	3069.3021	3106.303	3126.8419	3504.9009
CCNC(C=O)C#N	CCN[C@@H](C=O)C#N	
InChI=1S/C5H8N2O/c1-2-7-5(3-6)4-8/h4-5,7H,2H2,1H3	InChI=1S/C5H8N2O/c1-2-7-5(3-6)4-8/h4-5,7H,2H2,1H3/t5-/m1/s1
