22
gdb 6392	4.34478	0.94426	0.88292	2.4778	78.98	-0.2418	-0.0081	0.2337	1426.0467	0.196976	-350.24224	-350.231781	-350.230837	-350.27826	36.875	
C	 0.0820769198	 1.5538176202	 0.0047264803	-0.390488
C	-0.0535542548	 0.0278741098	 0.0064773164	-0.176417
C	-1.4972301125	-0.489083603	-0.1352674958	 0.061063
C	-2.1391414393	-0.0838482314	-1.4706422262	-0.398917
C	-1.5376366861	-2.0127911712	 0.0463516038	-0.31039
C	-2.9239817124	-2.5939788462	 0.3052375781	 0.381745
C	-3.0372100685	-4.1073463496	 0.2272314135	-0.472223
O	-3.8785366144	-1.8993995464	 0.5720704098	-0.296761
H	 1.1194197148	 1.8528986746	 0.1851061039	 0.110739
H	-0.223093312	 1.992142281	-0.9500906136	 0.119346
H	-0.5352248439	 2.0050588402	 0.7897113355	 0.115708
H	 0.5631162376	-0.3953225142	-0.7992800961	 0.088971
H	 0.3663695581	-0.3619679887	 0.9432111895	 0.088122
H	-2.1004839783	-0.0545949959	 0.6718661826	 0.091106
H	-1.5623948353	-0.4776748123	-2.3173693311	 0.102113
H	-3.1598999122	-0.46704353	-1.541826965	 0.130595
H	-2.1888022426	 1.0028128504	-1.5806343361	 0.115539
H	-1.0925843336	-2.5271110649	-0.8172784482	 0.10801
H	-0.9172593034	-2.3138439537	 0.9045353016	 0.116558
H	-2.2464679058	-4.5923399297	 0.8095253498	 0.133125
H	-4.0166275053	-4.4269130071	 0.5852926607	 0.141323
H	-2.9094145298	-4.4319524319	-0.8123472434	 0.141134
46.0538	69.8247	100.4883	121.4335	149.2531	212.2601	256.0083	274.3429	314.3626	342.8711	418.0698	479.8498	481.106	594.9236	774.1871	808.4393	815.2323	850.6436	929.0303	956.3431	974.5459	988.0425	1033.2964	1049.1382	1142.0216	1150.1096	1171.316	1195.0944	1246.6306	1285.3266	1311.133	1367.0655	1375.221	1381.5145	1391.2011	1409.9207	1413.6458	1444.2457	1464.1214	1477.2928	1484.3947	1496.4478	1497.8157	1507.5823	1517.7071	1809.0307	2998.7137	3004.7543	3022.8974	3028.4604	3032.1939	3034.6596	3036.0906	3047.881	3096.6398	3098.5073	3099.4775	3108.5026	3124.1184	3150.9448
CCC(C)CC(C)=O	CC[C@@H](C)CC(=O)C	
InChI=1S/C7H14O/c1-4-6(2)5-7(3)8/h6H,4-5H2,1-3H3	InChI=1S/C7H14O/c1-4-6(2)5-7(3)8/h6H,4-5H2,1-3H3/t6-/m1/s1
