21
gdb 40196	3.00839	1.55336	1.25965	1.3737	81.83	-0.2321	0.0774	0.3095	1078.0816	0.184423	-387.072706	-387.065015	-387.06407	-387.104947	31.114	
C	-0.1625900903	 1.4597331233	 0.085319729	-0.341779
C	 1.1746508811	 0.7388224922	 0.1779815435	-0.343365
C	-0.109028094	-0.023232617	-0.0417714733	 0.470637
O	-0.6264051872	-0.7677551624	 1.0407536731	-0.2909
C	-0.343646149	-2.1345518524	 0.7395869603	-0.110464
C	-0.5883521967	-2.2749036763	-0.7643284362	-0.020455
C	-2.0765090615	-2.2244576505	-1.2159775247	-0.220392
C	-1.8595167895	-0.8021796991	-1.8038185237	-0.223297
C	-0.3842896963	-0.813674173	-1.3053979553	-0.10862
H	-0.5765894775	 1.8598967942	 1.0039949566	 0.123803
H	-0.377180147	 2.045310081	-0.8025260318	 0.113307
H	 1.8749633675	 0.8401620083	-0.6448598906	 0.107602
H	 1.6269186914	 0.6664789193	 1.1609035266	 0.11773
H	 0.7027956733	-2.3730287278	 0.9872725721	 0.087404
H	-1.0012150121	-2.7531201116	 1.3573720053	 0.103715
H	 0.0120488653	-3.0657366634	-1.2169606732	 0.067343
H	-2.3541265445	-2.9861122165	-1.9482147127	 0.096983
H	-2.7895945036	-2.2686102966	-0.3882075602	 0.103153
H	-1.9523109055	-0.7520877684	-2.8912851073	 0.094709
H	-2.4782512308	-0.0142365313	-1.3673596617	 0.104489
H	 0.3757524871	-0.6550478817	-2.0718077556	 0.068396
70.7014	153.0618	204.4278	291.2666	332.063	364.318	468.6898	564.5086	659.791	718.4174	746.9874	770.1753	793.0443	854.4293	863.514	882.4347	897.5244	945.0085	959.5571	972.8175	992.1158	1010.5853	1026.2183	1046.2738	1074.284	1077.4802	1088.5842	1145.179	1168.7705	1188.5047	1222.618	1235.6792	1245.4195	1256.5612	1271.597	1289.5231	1290.7226	1328.5817	1378.6399	1389.6264	1451.2619	1474.0061	1491.307	1495.2857	1508.62	2978.082	3055.7962	3062.2409	3085.2382	3087.0293	3099.0324	3103.0534	3121.5243	3126.5614	3133.3641	3213.0066	3227.1478
C1CC11OCC2CCC12	C1CC21OC[C@H]1CC[C@@H]21	
InChI=1S/C8H12O/c1-2-7-6(1)5-9-8(7)3-4-8/h6-7H,1-5H2	InChI=1S/C8H12O/c1-2-7-6(1)5-9-8(7)3-4-8/h6-7H,1-5H2/t6-,7-/m1/s1
