18
gdb 52112	5.49578	0.72599	0.69118	0.9103	73.48	-0.2308	-0.0304	0.2004	1587.2772	0.145898	-439.025391	-439.016596	-439.015651	-439.060153	31.74	
O	-0.3768841051	 0.1278105285	 0.3551346945	-0.233942
C	-0.0790928402	 1.1976936649	-0.1060040527	 0.147865
C	 1.33420517	 1.756246201	-0.1419233526	-0.239914
N	 1.5311556878	 2.5809438754	-1.3284919078	-0.398326
C	 2.623318376	 3.4817506242	-1.2886420133	 0.294703
C	 2.5201522999	 4.8127168984	-0.5659306543	-0.315188
C	 2.8531957168	 4.7815545869	-2.0274258652	 0.029804
O	 4.243539631	 4.5145802248	-2.2204334787	-0.281838
C	 4.1045565768	 3.2100444036	-1.5966401639	-0.132229
H	-0.8351837143	 1.886521524	-0.5467887464	 0.084833
H	 1.4351180866	 2.4095198207	 0.7365648415	 0.141138
H	 2.046232751	 0.9274452171	-0.0122593165	 0.1169
H	 1.5564981218	 2.0105317532	-2.1671921863	 0.227744
H	 1.4988195958	 5.09831871	-0.3351198993	 0.1214
H	 3.2753213204	 5.1258692992	 0.1495997919	 0.116919
H	 2.3117131062	 5.2931004596	-2.8140941006	 0.112724
H	 4.7963220418	 3.0691261169	-0.7577061329	 0.10608
H	 4.2511887377	 2.4127681818	-2.3370273375	 0.101325
50.6745	71.1626	93.598	148.3237	285.0983	298.1409	353.5929	389.3288	462.1929	524.1414	683.7577	717.736	757.2086	795.3007	873.7813	912.5248	933.0642	986.5942	990.7739	1014.8023	1054.0908	1057.8492	1075.4316	1080.5159	1098.3081	1140.391	1159.7901	1209.5738	1248.2787	1280.0975	1309.5444	1330.6428	1402.9276	1414.1038	1466.3531	1483.1903	1496.0229	1513.8175	1840.7598	2882.9636	2992.1745	3011.2395	3042.2716	3064.9413	3117.8373	3189.9425	3216.6685	3520.2574
O=CCNC12CC1OC2	O=CCN[C@]12C[C@H]1OC2	
InChI=1S/C6H9NO2/c8-2-1-7-6-3-5(6)9-4-6/h2,5,7H,1,3-4H2	InChI=1S/C6H9NO2/c8-2-1-7-6-3-5(6)9-4-6/h2,5,7H,1,3-4H2/t5-,6+/m1/s1
