20
gdb 59054	3.13433	1.18673	0.95489	3.9888	77.02	-0.2503	0.0208	0.2711	1283.0778	0.171722	-440.310962	-440.302023	-440.301079	-440.344864	33.505	
C	 0.3580843903	 0.8320250952	-0.8106048892	-0.389498
C	-0.0440719988	 0.0785223203	 0.4638729516	 0.082619
O	 0.0551130679	 0.9175868825	 1.5868522315	-0.443765
C	-1.4527058422	-0.4816792766	 0.3574094959	 0.384041
N	-2.3365945126	-0.1122758251	 1.1891234104	-0.341246
C	-3.70282669	-0.6027009173	 1.0528673707	-0.156989
C	-3.9913283799	-1.1454774453	-0.35040743	-0.235893
C	-2.835364586	-2.0433652172	-0.7693020298	-0.072676
O	-1.580387554	-1.3482470605	-0.6725387974	-0.258886
H	 1.369710757	 1.2269212284	-0.6883657364	 0.125676
H	 0.3359316171	 0.1730157126	-1.6823350106	 0.120085
H	-0.3205546535	 1.6737093137	-0.9797972866	 0.117432
H	 0.6319494586	-0.7842480211	 0.5842797156	 0.086747
H	-0.8382608773	 0.9284127516	 1.9703702081	 0.285322
H	-3.8740872496	-1.3808926924	 1.8091930569	 0.114472
H	-4.3860013443	 0.2169894073	 1.2994128074	 0.115821
H	-4.9305659294	-1.7068057017	-0.3777177053	 0.109077
H	-4.0796976885	-0.3161381758	-1.0611569941	 0.119263
H	-2.7831094301	-2.9356358817	-0.1318078155	 0.116171
H	-2.9113715847	-2.3683716969	-1.8092247633	 0.122226
59.4408	101.5908	185.0349	206.4067	238.6124	284.162	328.1363	410.2659	424.8557	473.6657	509.9023	528.4356	651.5657	730.1131	827.2027	866.3127	889.4173	921.1191	945.3004	966.4173	1038.9204	1073.0479	1098.4028	1127.93	1153.508	1171.0906	1213.861	1235.43	1260.4362	1300.5959	1303.1962	1361.1113	1369.3935	1371.9964	1396.5636	1415.1045	1456.8448	1479.4903	1491.1877	1492.2854	1501.6197	1513.809	1745.8579	2967.4613	3015.5585	3025.1167	3043.3779	3044.467	3064.1816	3093.3434	3106.7597	3121.2631	3131.3433	3644.6993
CC(O)C1=NCCCO1	C[C@@H](O)C1=NCCCO1	
InChI=1S/C6H11NO2/c1-5(8)6-7-3-2-4-9-6/h5,8H,2-4H2,1H3	InChI=1S/C6H11NO2/c1-5(8)6-7-3-2-4-9-6/h5,8H,2-4H2,1H3/t5-/m1/s1
