21
gdb 39509	2.31495	1.7107	1.17737	2.7008	77.76	-0.2449	0.0781	0.323	1106.4411	0.184837	-424.207594	-424.199667	-424.198723	-424.239836	31.622	
C	-0.1001139538	 1.2015540045	 0.1862554488	-0.209807
C	 0.7838662289	 2.414740643	-0.1444509108	-0.19902
C	 1.8432674374	 2.1619458654	-1.2349991198	-0.224007
C	 1.2792002219	 1.5572949452	-2.5026007786	 0.061695
O	 2.1262173984	 0.6564053511	-3.2254728082	-0.260423
C	 0.9213554059	 0.1345240074	-2.6626624997	 0.056236
C	 1.0294027899	-0.9517538303	-1.6017513144	-0.123389
O	 1.5824615799	-0.5669027924	-0.3629236593	-0.232196
C	 0.6530327856	-0.0704198972	 0.5906195863	-0.065263
H	-0.7658334377	 1.4579469903	 1.0203384429	 0.097629
H	-0.7599972587	 0.9792729436	-0.660494941	 0.103055
H	 0.1308903673	 3.24372833	-0.445934149	 0.095273
H	 1.2989218758	 2.7518345129	 0.7638505406	 0.099219
H	 2.3287299404	 3.1119049969	-1.4898273786	 0.092275
H	 2.615159145	 1.4901297248	-0.8602959832	 0.133274
H	 0.7408181553	 2.2579578179	-3.1467395958	 0.083098
H	 0.1639961005	-0.1038008797	-3.4158378144	 0.08339
H	 0.0281683503	-1.3906898629	-1.4598362355	 0.088662
H	 1.6772643856	-1.7435970441	-1.9974510471	 0.123056
H	 1.2496926994	 0.115690957	 1.4906473072	 0.107515
H	-0.0789556874	-0.8584806636	 0.8348818496	 0.089728
94.3949	202.8604	259.1276	266.5341	276.3488	315.7927	407.0175	437.9282	488.0328	532.4898	702.1875	761.1033	784.6872	803.1733	814.7848	864.5928	926.7197	936.922	968.5304	991.5951	1045.5987	1068.8195	1093.0844	1097.8683	1124.8263	1169.855	1183.0516	1222.1374	1236.5299	1288.6482	1303.4636	1311.4736	1338.318	1354.5227	1379.0221	1393.2841	1402.3099	1407.0979	1420.4179	1476.7901	1481.019	1484.3589	1488.6252	1496.8211	1502.3866	2965.2507	2973.9467	3017.1658	3030.8692	3037.7876	3048.9194	3053.5214	3055.9782	3059.0292	3071.5622	3077.5235	3137.2112
C1CCC2OC2COC1	C1CC[C@H]2O[C@H]2COC1	
InChI=1S/C7H12O2/c1-2-4-8-5-7-6(3-1)9-7/h6-7H,1-5H2	InChI=1S/C7H12O2/c1-2-4-8-5-7-6(3-1)9-7/h6-7H,1-5H2/t6-,7+/m1/s1
