22
gdb 104120	3.50541	1.03037	0.98836	3.3243	83.13	-0.253	0.0332	0.2862	1329.2357	0.194334	-404.383685	-404.374247	-404.373303	-404.417754	35.936	
C	 0.0640437687	 1.6515264924	-0.1154487649	-0.39868
C	 0.1211822525	 0.1188768882	-0.1094699677	-0.234435
C	 0.6246577671	-0.5206910249	 1.1968268867	 0.282187
C	 2.0745615552	-0.1168399577	 1.5175239293	-0.438104
C	-0.2931053176	-0.2050675652	 2.4007359804	-0.11027
O	-0.1706855639	-1.3177466582	 3.3002126144	-0.240711
C	 0.2719879532	-2.4240256713	 2.6264391096	 0.406266
N	 0.4525972923	-3.5577495606	 3.1512928388	-0.545624
C	 0.5055051824	-2.0606382558	 1.1778882656	-0.339358
H	 1.0548335061	 2.0997499515	 0.0025386486	 0.123532
H	-0.3481915375	 2.0145025989	-1.0616525652	 0.119884
H	-0.5737524964	 2.036420994	 0.6877767757	 0.119632
H	-0.8812468916	-0.2753074076	-0.3215570266	 0.095651
H	 0.7608175353	-0.2223096171	-0.9334313479	 0.101475
H	 2.1713063666	 0.9627471584	 1.664393987	 0.117693
H	 2.4235945216	-0.6073569323	 2.4316716856	 0.132597
H	 2.7468026494	-0.4090042402	 0.7039439508	 0.11755
H	-0.0073977	 0.6958962618	 2.9491739614	 0.115645
H	-1.3429568104	-0.1098118126	 2.0919398017	 0.102714
H	 0.2025465806	-3.5346972416	 4.1418638623	 0.219189
H	-0.3633830485	-2.3785887161	 0.5885842622	 0.121745
H	 1.3806499948	-2.5756113541	 0.7789345423	 0.13142
78.2027	98.4684	162.5433	192.4838	226.9171	273.4653	326.8917	341.6859	372.3388	401.2698	491.0649	521.6701	598.6816	680.2626	783.0735	794.5796	855.9885	895.2541	917.0063	928.7001	954.6457	966.8146	1013.732	1018.2759	1042.1342	1081.4551	1106.5799	1142.3715	1197.5026	1211.0345	1232.1961	1271.4464	1281.5267	1324.5933	1345.9029	1371.4395	1398.872	1411.8453	1422.1797	1467.6476	1482.7446	1495.7217	1499.7322	1505.1275	1512.1383	1522.5404	1778.8426	3011.4083	3016.1616	3034.6795	3038.3198	3039.8859	3049.4715	3095.5023	3102.8492	3104.6688	3107.3564	3114.8622	3121.8571	3466.3509
CCC1(C)COC(=N)C1	CC[C@@]1(C)CO[C]([NH])C1	
InChI=1S/C7H13NO/c1-3-7(2)4-6(8)9-5-7/h8H,3-5H2,1-2H3	InChI=1S/C7H13NO/c1-3-7(2)4-6(8)9-5-7/h8H,3-5H2,1-2H3/t7-/m1/s1
