18
gdb 99808	2.01913	1.48031	1.10339	1.2335	72.58	-0.2534	0.0141	0.2674	1167.6706	0.146727	-435.311455	-435.301096	-435.300152	-435.346922	37.103	
C	 0.1409785479	 1.707653852	 0.1516493211	-0.413436
C	-0.0056432943	 0.1797103103	-0.0291124461	-0.041513
C	 0.6263887959	-0.582580385	 1.1762646081	-0.174736
N	-0.0286138254	-0.2228613542	 2.4271717953	-0.517228
C	-1.4232822133	-0.1819078536	-0.124419574	 0.293985
N	-2.5335858889	-0.4947398954	-0.2175719208	-0.3667
C	 0.7863681701	-0.2456722659	-1.2991995245	 0.442202
N	 0.0773855656	-0.7988826683	-2.3114741325	-0.555306
O	 1.9878201302	-0.0682091881	-1.3359288217	-0.374289
H	 1.2021709658	 1.9569705409	 0.0890475257	 0.147868
H	-0.3963618514	 2.2516255647	-0.6291386598	 0.128589
H	-0.2466619274	 1.9948805207	 1.1295043756	 0.153748
H	 0.6110779095	-1.6601247998	 0.9486906551	 0.10132
H	 1.6735882151	-0.2744438691	 1.2118938617	 0.14061
H	-0.9071964749	-0.7213144355	 2.5286027649	 0.243266
H	 0.5530697074	-0.4848133362	 3.2147297015	 0.23904
H	-0.9163479515	-0.9469911234	-2.258023774	 0.284581
H	 0.5766687397	-1.0781886942	-3.1401821255	 0.268
36.969	110.0687	160.2426	166.3459	210.0772	228.5582	237.8435	274.5517	312.7637	325.8872	382.3696	442.5914	521.903	568.5379	608.5789	622.4395	690.3775	768.1784	835.1854	873.5577	933.5156	957.2368	1086.6376	1099.2605	1115.4331	1144.4369	1156.0205	1271.4669	1344.056	1348.9733	1387.325	1413.4933	1487.3954	1500.2153	1504.7001	1619.0836	1660.9614	1796.7203	2337.8641	2974.9818	3058.7604	3111.4508	3137.7127	3158.8526	3508.6782	3590.4894	3594.9208	3727.9488
CC(CN)(C#N)C(N)=O	C[C@@](CN)(C#N)C(=O)N	
InChI=1S/C5H9N3O/c1-5(2-6,3-7)4(8)9/h2,6H2,1H3,(H2,8,9)	InChI=1S/C5H9N3O/c1-5(2-6,3-7)4(8)9/h2,6H2,1H3,(H2,8,9)/t5-/m1/s1
