23
gdb 66143	3.9664	0.77533	0.74413	0.9179	87.02	-0.2425	0.0906	0.3331	1664.8316	0.204053	-388.257417	-388.24752	-388.246576	-388.293063	37.166	
C	 0.0947108138	 1.6453812759	 0.1649043542	-0.456898
C	-0.0673444342	 0.1466027252	 0.0259341297	 0.461647
C	 1.1178210857	-0.7118870243	-0.3514373926	-0.317755
C	 0.5361511995	-0.7656362025	 1.0493599942	-0.312255
O	-1.3245060426	-0.2791127216	-0.4272713137	-0.292368
C	-1.6025215954	 0.006575014	-1.7915678473	-0.088674
C	-2.8506333625	-0.731472851	-2.1905853389	 0.016125
C	-4.2027567289	-0.1436207354	-1.8828790133	-0.246468
C	-3.709606724	-0.1921832477	-3.3069764594	-0.274485
H	 1.0616184498	 1.8884886913	 0.6144923003	 0.115742
H	 0.0455907257	 2.1526464115	-0.8046099833	 0.117242
H	-0.6943214476	 2.0550489747	 0.8044580055	 0.123312
H	 0.9285397495	-1.563611836	-0.9950479591	 0.11432
H	 2.0831062659	-0.2387250807	-0.4976196662	 0.108536
H	 1.0999610744	-0.3265212047	 1.8652948098	 0.107817
H	-0.0405599676	-1.6448110039	 1.3117337653	 0.121081
H	-1.7486530179	 1.0879197416	-1.9444928843	 0.081719
H	-0.751492295	-0.3000811449	-2.4197580168	 0.087924
H	-2.7658213138	-1.811948565	-2.119404886	 0.086334
H	-5.0003768295	-0.8163692804	-1.5888687123	 0.111907
H	-4.2295031367	 0.8207932686	-1.386652927	 0.113417
H	-3.4115897407	 0.7410339379	-3.7741081084	 0.10992
H	-4.1642677179	-0.9008631727	-3.9899765405	 0.111863
43.5395	57.0866	115.685	156.6371	219.3097	244.7366	300.7063	332.1854	367.6149	415.5935	443.5172	519.4365	718.2737	774.8262	778.1219	816.7942	842.6236	857.459	910.12	925.7597	931.1863	953.3193	975.9173	1032.4538	1047.4124	1056.3652	1060.7077	1075.3958	1079.1485	1093.4149	1132.3585	1137.509	1188.8048	1195.5612	1197.6293	1228.236	1277.7646	1290.7413	1336.5635	1375.0914	1413.823	1441.0529	1452.4479	1470.9256	1484.4534	1491.4831	1506.1261	1507.304	1520.4155	2966.6737	3000.1301	3033.1311	3095.7852	3112.2702	3130.9963	3131.0826	3136.3639	3137.1941	3151.6275	3208.9818	3215.3714	3224.5215	3231.057
CC1(CC1)OCC1CC1	CC1(CC1)OCC1CC1	
InChI=1S/C8H14O/c1-8(4-5-8)9-6-7-2-3-7/h7H,2-6H2,1H3	InChI=1S/C8H14O/c1-8(4-5-8)9-6-7-2-3-7/h7H,2-6H2,1H3
