21
gdb 86342	2.45215	1.37041	1.01888	2.6741	79.45	-0.2247	0.0756	0.3002	1240.5951	0.183248	-420.342412	-420.333392	-420.332448	-420.376329	34.157	
C	-0.4716378781	 1.2130117731	-0.6499119894	-0.328273
N	-0.1954668091	-0.0621114183	-0.0256519415	-0.091907
C	-1.2172374639	-0.6503224425	 0.8630693587	-0.205163
C	-0.0649905257	-1.27241095	 1.6837950269	 0.102758
O	 0.2712997359	-2.5834540043	 1.2680086659	-0.431523
C	 0.7988882455	-0.1207058779	 1.075686874	 0.003098
C	 2.2538289262	-0.2581563079	 0.700707217	-0.016301
C	 3.254112766	-0.6987402869	 1.7044590307	-0.242049
N	 2.9471721901	-1.5464681784	 0.5409880544	-0.330561
H	 0.4122473648	 1.5633120664	-1.1924414181	 0.127317
H	-1.2858412162	 1.1040693649	-1.3740160538	 0.123386
H	-0.7614344218	 1.9932462064	 0.079685591	 0.092389
H	-1.7786276875	 0.1025443515	 1.4421806687	 0.088689
H	-1.9218392663	-1.3409762703	 0.3868661763	 0.103226
H	-0.1617930152	-1.3050238728	 2.7687558948	 0.093893
H	 0.2212001442	-2.5894865138	 0.3034796193	 0.296248
H	 0.6950628427	 0.7659941726	 1.732108125	 0.061308
H	 2.5719798106	 0.4885386361	-0.027384394	 0.09036
H	 4.2480701658	-0.2598108084	 1.7164500433	 0.113627
H	 2.8881419769	-1.011043291	 2.6804052762	 0.10796
H	 2.3273407851	-2.2931182383	 0.8446838445	 0.241517
61.5564	117.1302	156.4028	214.8677	244.3956	270.5831	321.9787	337.13	423.8705	462.1532	507.7013	612.2485	748.0424	772.1853	850.6467	859.0165	871.5284	921.9818	964.5934	987.1491	1006.4527	1013.8803	1082.8299	1096.6841	1118.5697	1139.1456	1146.4406	1174.0805	1192.5216	1196.0212	1236.0602	1252.5261	1292.2441	1297.9367	1306.963	1321.0799	1338.6985	1384.1448	1421.2875	1439.1142	1452.6311	1488.9919	1496.3232	1512.6605	1515.3529	2900.2347	2927.2681	2962.4801	3060.9776	3062.1494	3097.9519	3100.4755	3103.7882	3121.3676	3183.1194	3510.6633	3778.1386
CN1CC(O)C1C1CN1	CN1C[C@@H](O)[C@H]1[C@H]1CN1	
InChI=1S/C6H12N2O/c1-8-3-5(9)6(8)4-2-7-4/h4-7,9H,2-3H2,1H3	InChI=1S/C6H12N2O/c1-8-3-5(9)6(8)4-2-7-4/h4-7,9H,2-3H2,1H3/t4-,5-,6-/m1/s1
