14
gdb 124135	6.12775	0.84553	0.74647	4.4546	85.28	-0.2382	-0.0817	0.1565	1459.0188	0.101313	-395.716512	-395.708419	-395.707474	-395.751103	27.791	
C	-0.0072665172	 1.4718893173	 0.0106165796	-0.510713
C	-0.0078759032	 0.0196167473	 0.0028276943	 0.296302
C	-0.0261493889	-1.1867150189	-0.0035413844	-0.138599
C	-0.0032027501	-2.6074811415	-0.011535477	 0.174197
C	 1.2165751262	-3.3139673334	-0.0221817467	-0.027585
N	 1.2665878055	-4.6371572984	-0.0296464778	-0.170209
N	 0.1198958703	-5.3200303829	-0.0268991694	-0.18028
C	-1.0133699041	-4.6188126342	-0.0167124669	 0.091855
N	-1.1522990786	-3.2914404426	-0.0087249871	-0.294922
H	 1.012542157	 1.8698064313	 0.0029703669	 0.160957
H	-0.5322870289	 1.8654582879	-0.8665346414	 0.165893
H	-0.5152290691	 1.8559032366	 0.901940736	 0.165891
H	 2.1677744326	-2.7916772103	-0.0246388435	 0.131856
H	-1.9264347715	-5.2079150283	-0.0146935225	 0.135357
21.3412	87.734	89.141	221.7217	309.1931	364.3747	396.9402	419.6299	535.4678	587.8385	675.8137	784.0318	823.5401	944.6086	1000.6478	1005.3168	1042.3731	1044.7313	1053.4958	1066.016	1161.9936	1273.7677	1317.752	1352.1621	1410.7794	1470.1202	1471.562	1478.8639	1525.7812	1580.7745	2354.4881	3032.8406	3096.1074	3101.7785	3179.0555	3189.2677
CC#CC1=CN=NC=N1	CC#Cc1cnncn1	
InChI=1S/C6H5N3/c1-2-3-6-4-8-9-5-7-6/h4-5H,1H3	InChI=1S/C6H5N3/c1-2-3-6-4-8-9-5-7-6/h4-5H,1H3
