21
gdb 104768	2.41274	1.08627	0.88735	3.1682	80.68	-0.2447	-0.0175	0.2272	1379.7661	0.17995	-424.222957	-424.212587	-424.211643	-424.25872	37.326	
C	-1.7581420114	-0.5988945576	-0.4702518829	-0.3905
C	-0.3192682396	-0.2080104123	-0.1120895356	-0.266136
C	 0.7240419833	-0.6054762205	-1.1502081126	 0.354446
C	 0.6486479436	 0.1611192076	-2.4572587005	-0.14277
O	 0.8623852343	 1.5368462345	-2.171794673	-0.419918
C	 2.0855328858	-1.0189873991	-0.6999350069	-0.341272
C	 1.1606584375	-2.0689399797	-1.3088585926	-0.152862
C	 0.617859958	-3.1408932479	-0.4465267416	 0.159071
O	 0.3633623529	-4.2573904615	-0.8303803446	-0.276472
H	-2.089468699	-0.1233473512	-1.3987665362	 0.119474
H	-1.8625734854	-1.6815837744	-0.5971332405	 0.127656
H	-2.4482741923	-0.2869340477	 0.3194473864	 0.117414
H	-0.2516434284	 0.8782367566	 0.0092876262	 0.124367
H	-0.0566222739	-0.6405855985	 0.8588124921	 0.096197
H	 1.41209393	-0.2231943557	-3.1515306035	 0.087091
H	-0.3322233831	 0.0031612979	-2.9303049037	 0.096905
H	 0.6517131429	 2.0444724453	-2.9608054594	 0.290583
H	 2.9500719886	-0.7266866049	-1.2854030715	 0.127556
H	 2.2689273009	-1.0868611906	 0.3680095336	 0.120975
H	 1.3776947593	-2.4065592171	-2.317479556	 0.099938
H	 0.4680449259	-2.858235613	 0.6203315727	 0.068256
57.1998	75.0237	125.7366	137.9949	203.7209	229.7768	255.1532	273.2255	300.6134	352.7699	383.2386	433.7971	470.8856	607.3401	689.3478	784.2933	859.6012	883.413	909.6278	939.5322	1007.6424	1026.4254	1036.8888	1051.2758	1073.6454	1082.4382	1103.1573	1114.5365	1188.2583	1226.6982	1245.4429	1253.4544	1302.9499	1332.6195	1371.7934	1394.2948	1412.6607	1447.191	1460.5191	1488.2394	1489.7375	1497.4192	1506.3308	1521.965	1810.6465	2868.9928	2973.6388	3006.55	3037.0673	3046.7646	3079.18	3107.5494	3108.101	3129.4145	3163.623	3216.7501	3832.7883
CCC1(CO)CC1C=O	CC[C@@]1(CO)C[C@H]1C=O	
InChI=1S/C7H12O2/c1-2-7(5-9)3-6(7)4-8/h4,6,9H,2-3,5H2,1H3	InChI=1S/C7H12O2/c1-2-7(5-9)3-6(7)4-8/h4,6,9H,2-3,5H2,1H3/t6-,7-/m0/s1
