23
gdb 122578	5.23516	0.65102	0.60015	0.953	88.15	-0.2359	0.029	0.2649	1898.0517	0.205855	-388.294006	-388.284245	-388.283301	-388.329623	35.471	
C	 0.0231765862	 1.393009939	 0.0392554383	-0.227174
O	 0.0190302931	-0.0121995239	 0.0738703918	-0.229567
C	-1.2786460469	-0.5610336237	-0.0134386511	-0.052445
C	-1.1676431678	-2.0798449757	 0.022856485	-0.220272
C	-2.5207160596	-2.792771202	-0.0313667978	 0.035291
C	-3.3270741736	-2.5861549575	-1.3464112837	-0.258735
C	-4.0320211689	-3.9085349871	-1.5362019332	-0.063946
C	-3.5429074038	-4.8541084193	-0.7364046022	-0.060962
C	-2.422310617	-4.3355997602	 0.1318037607	-0.275992
H	 1.0632697254	 1.7211589659	 0.1106583926	 0.124795
H	-0.4078134882	 1.7823701599	-0.8974964271	 0.100705
H	-0.54367246	 1.8264969396	 0.8792809251	 0.100607
H	-1.9032942743	-0.202627787	 0.8246660825	 0.080455
H	-1.7710344873	-0.2271635337	-0.9431819288	 0.085277
H	-0.5408496406	-2.4068216008	-0.8166373599	 0.102313
H	-0.6341734564	-2.361059281	 0.938947786	 0.102787
H	-3.1431037053	-2.4197052543	 0.7926401281	 0.073719
H	-4.0174673842	-1.7368671459	-1.2867104143	 0.099869
H	-2.6599752082	-2.3782646617	-2.1972909896	 0.102388
H	-4.814740275	-4.0531547995	-2.2730555432	 0.088376
H	-3.8646535972	-5.8897966853	-0.7200939605	 0.088992
H	-1.4516142107	-4.7145572097	-0.2225436153	 0.102954
H	-2.5057248498	-4.6467526362	 1.1796193666	 0.100565
62.0395	74.1872	94.7823	125.8249	157.5386	236.4814	282.8864	307.1228	395.9627	423.6888	489.4434	626.9765	717.6451	776.3683	801.0825	842.2104	921.1818	940.1527	973.3211	976.2058	981.4522	992.1947	1035.5189	1077.7808	1108.9078	1121.6623	1133.7429	1156.5822	1165.5333	1180.3294	1213.4535	1229.6557	1258.4964	1288.8745	1296.7897	1312.8875	1328.0058	1336.4803	1376.9737	1381.6219	1428.5766	1482.1587	1485.0521	1485.657	1488.4815	1496.9553	1505.7777	1531.8496	1689.0165	2938.4073	2964.9091	2968.63	2989.4656	2993.2882	3005.9666	3010.6546	3027.4987	3048.4523	3053.5335	3070.0747	3110.211	3178.737	3204.5651
COCCC1CC=CC1	COCC[C@H]1CC=CC1	
InChI=1S/C8H14O/c1-9-7-6-8-4-2-3-5-8/h2-3,8H,4-7H2,1H3	InChI=1S/C8H14O/c1-9-7-6-8-4-2-3-5-8/h2-3,8H,4-7H2,1H3
