18
gdb 33734	3.17625	1.51497	1.28091	4.364	79.72	-0.2742	0.0266	0.3008	1017.2308	0.15085	-364.791214	-364.784415	-364.783471	-364.822202	28.38	
N	 0.0085110423	-1.141582032	-0.0358794812	-0.346662
C	 0.0220679669	 0.0148287377	-0.0281735853	 0.150623
C	 0.042902438	 1.4606703599	-0.0057136388	 0.226326
C	-0.3026905622	 2.2814923719	 1.2975179161	-0.242089
C	 0.4659719945	 3.4012844702	 0.5131476656	-0.064499
C	 1.3850167367	 2.2550482743	 0.0151015268	-0.271196
C	-0.5163542935	 3.6439847505	-0.650874784	-0.033198
C	-0.1953877083	 3.14158006	-2.0375559947	-0.315853
C	-0.8345695953	 2.2110450757	-1.0392045998	-0.074515
H	-1.3628611465	 2.4397792861	 1.5070194062	 0.107137
H	 0.2225911506	 1.917349229	 2.1835738922	 0.112886
H	 0.8777900506	 4.2730210497	 1.0188658406	 0.076631
H	 2.041668619	 1.8896207909	 0.8053343569	 0.118773
H	 1.950326565	 2.3605007441	-0.9094831386	 0.112172
H	-1.2964555862	 4.3842512544	-0.5169705587	 0.096513
H	-0.8598128268	 3.4911745887	-2.8217099015	 0.119187
H	 0.8243203764	 3.0056250534	-2.3757387064	 0.121653
H	-1.8435620614	 1.8496537954	-1.1947412554	 0.106111
144.8225	164.834	336.8687	399.2898	502.4547	512.9302	525.7818	560.0594	575.6452	650.0295	780.3092	793.9076	817.5364	846.6579	915.8286	923.2057	931.5016	967.2698	986.7117	998.8632	1029.2999	1069.2242	1076.6034	1084.2484	1107.0715	1120.3534	1168.212	1181.9311	1194.2398	1214.6205	1226.0625	1247.8439	1291.2177	1326.7949	1367.7122	1477.369	1500.8396	1540.4793	2352.2359	3065.8333	3096.0964	3130.531	3134.0093	3139.0528	3153.1464	3177.8363	3189.4171	3218.5788
N#CC12CC(C1)C1CC21	N#C[C@@]12C[C@@H](C1)[C@H]1C[C@@H]21	
InChI=1S/C8H9N/c9-4-8-2-5(3-8)6-1-7(6)8/h5-7H,1-3H2	InChI=1S/C8H9N/c9-4-8-2-5(3-8)6-1-7(6)8/h5-7H,1-3H2/t5-,6-,7-,8+/m1/s1
