20
gdb 40783	3.75961	1.18877	1.00997	2.7163	79.05	-0.2343	0.0811	0.3155	1218.7972	0.172282	-403.107069	-403.099262	-403.098318	-403.139692	30.533	
C	 1.3374695975	 0.0301422712	-0.3558941063	-0.22179
C	 0.5721255404	-1.0978134335	-0.9535472494	-0.227165
N	-0.0756090979	-0.1583144903	-0.0434093473	-0.058409
C	-0.3802084884	-0.6526256477	 1.2921098664	 0.040728
C	-0.5140681107	 0.4932813697	 2.322548166	-0.241392
C	-1.482733687	-0.0348121974	 3.4063785825	-0.246461
C	-2.3668398811	-1.0078280769	 2.6481709321	 0.049495
O	-2.850381842	-0.4815150352	 1.4054775794	-0.254231
C	-1.721781566	-1.3623230072	 1.3782450378	 0.039005
H	 2.0688401	-0.2200696395	 0.4118386024	 0.107239
H	 1.5794921785	 0.910219634	-0.9444818483	 0.117781
H	 0.2414883534	-1.0582359824	-1.987227065	 0.11941
H	 0.7968464124	-2.0980951911	-0.584954622	 0.105991
H	 0.3866765559	-1.3770709047	 1.634339162	 0.050532
H	 0.4512505282	 0.8017514112	 2.7300569485	 0.09507
H	-0.9549819698	 1.3498540813	 1.809236695	 0.132216
H	-0.9487577395	-0.5791637022	 4.195257037	 0.101117
H	-2.0509792855	 0.7663949447	 3.8889652107	 0.110787
H	-3.0477572618	-1.6763653179	 3.1694157175	 0.090658
H	-1.8801502766	-2.3109946061	 0.8709697009	 0.089416
82.8826	114.324	175.3411	270.9662	298.5749	382.1838	435.9193	487.3631	654.9776	669.961	781.3095	825.1799	834.7975	868.6723	874.6764	900.5712	914.8588	939.9673	967.9734	1021.4241	1031.4781	1056.972	1070.2662	1089.3563	1112.3333	1116.9828	1121.1979	1171.6781	1182.1426	1201.7496	1224.2764	1261.1358	1303.1644	1320.2154	1324.7216	1333.7275	1340.6094	1388.9504	1438.9105	1481.8472	1488.9991	1493.4468	1516.2171	2890.6357	3035.0946	3075.9608	3083.8466	3089.0829	3094.1079	3127.6695	3137.8911	3150.7272	3175.7537	3189.8047
C1CN1C1CCC2OC12	C1CN1[C@H]1CC[C@H]2O[C@@H]12	
InChI=1S/C7H11NO/c1-2-6-7(9-6)5(1)8-3-4-8/h5-7H,1-4H2	InChI=1S/C7H11NO/c1-2-6-7(9-6)5(1)8-3-4-8/h5-7H,1-4H2/t5-,6+,7-/m0/s1
