18
gdb 11268	4.55194	1.2822	1.03909	3.4374	76.76	-0.2466	-0.0528	0.1939	1130.5096	0.153809	-347.841573	-347.833641	-347.832697	-347.874067	29.325	
C	-0.0441131932	 1.5472398807	 0.0148998743	-0.404836
C	 0.0754900915	 0.0247926604	 0.0060684299	 0.037872
C	 0.9140140605	-0.5495052908	-1.1715315865	-0.268031
C	 1.544651176	-1.7812625491	-0.5825394184	-0.146913
C	 1.4450848551	-1.8032570535	 0.75544224	 0.24779
C	 0.7273054121	-0.5804069416	 1.2795751544	-0.323699
C	 1.9985915755	-2.8574109548	 1.6059843806	 0.065778
O	 1.9379905505	-2.8616412882	 2.8165374452	-0.272632
H	 0.9425196182	 2.0175609003	 0.0990455969	 0.115142
H	-0.5130120261	 1.916977683	-0.9033073669	 0.114092
H	-0.649855699	 1.8923922643	 0.8591721688	 0.11897
H	-0.9309144414	-0.4036655733	-0.0790824951	 0.082498
H	 0.313229717	-0.7572409706	-2.0641192809	 0.11263
H	 1.6976193407	 0.1557089723	-1.4900469852	 0.115736
H	 2.049387811	-2.5382580905	-1.1752312979	 0.107449
H	 1.4481048707	 0.1142814678	 1.7330996535	 0.113027
H	 0.0017893226	-0.821552231	 2.0616271709	 0.12122
H	 2.4942420385	-3.6867401754	 1.0519572264	 0.063906
81.1532	124.6939	165.1094	245.2059	292.8807	319.9151	415.9115	438.9786	474.058	596.7916	724.0351	821.2098	834.6203	880.9468	902.3227	939.01	947.0707	994.2785	1035.8609	1065.2454	1108.578	1144.5122	1152.2196	1214.7269	1233.4947	1269.3231	1305.1889	1339.1473	1368.4133	1373.256	1413.032	1420.7625	1473.4784	1487.5185	1496.9109	1500.4787	1679.5731	1782.9762	2871.9898	2992.6052	3014.4861	3023.4987	3028.0061	3059.3102	3085.5516	3094.3287	3098.9111	3182.5802
CC1CC=C(C1)C=O	C[C@H]1CC=C(C1)C=O	
InChI=1S/C7H10O/c1-6-2-3-7(4-6)5-8/h3,5-6H,2,4H2,1H3	InChI=1S/C7H10O/c1-6-2-3-7(4-6)5-8/h3,5-6H,2,4H2,1H3/t6-/m0/s1
