17
gdb 24554	2.04821	1.96625	1.08304	2.7082	92.99	-0.1965	-0.0163	0.1803	1103.0883	0.13915	-380.869197	-380.861557	-380.860613	-380.901557	29.427	
N	-0.1103591878	 1.3410904724	-0.1074950372	-0.298799
C	 0.8708470411	 2.3207174696	-0.1394737891	-0.033218
C	 2.1869955596	 2.2875235712	-0.4445397025	-0.072156
C	 3.1588171653	 1.2681551258	-0.7111379184	-0.133405
C	 3.4836633644	 0.1107979479	-0.0760664713	-0.107316
C	 2.9658201084	-0.5159655797	 1.1004201179	-0.109726
C	 1.7086500834	-0.7800691198	 1.5527252596	-0.026616
N	 0.4953315568	-0.7704400051	 0.9538125473	-0.23792
C	-0.2053100922	 0.0114715067	 0.2381300506	 0.090396
H	-1.013140233	 1.7052872765	-0.3746826723	 0.25639
H	 0.4262373785	 3.3067143205	-0.0374970425	 0.104582
H	 2.5872743267	 3.2919418105	-0.5815227232	 0.09643
H	 3.8761993412	 1.5774601506	-1.4707711722	 0.089493
H	 4.4110028453	-0.3407042474	-0.4289895085	 0.089578
H	 3.7403756308	-0.9604064384	 1.7244992272	 0.087534
H	 1.6686984818	-1.3154137432	 2.5024597479	 0.098242
H	-1.1558238601	-0.389317138	-0.1233081034	 0.106509
83.2675	121.3693	220.6286	252.4311	355.9255	378.0956	513.6176	544.1252	593.8309	638.2418	659.5163	716.0751	771.3479	810.1049	845.6812	850.7771	894.9517	939.1282	949.702	956.323	975.9948	980.8385	999.9392	1131.1695	1232.8476	1317.1042	1344.0351	1395.543	1427.3769	1472.199	1485.9112	1520.7811	1558.213	1587.9094	1652.2652	1698.3622	1766.8147	3085.6122	3101.0537	3105.9384	3116.6887	3128.5648	3137.5973	3163.2744	3598.7628
N1C=CC=CC=CN=C1	N1C=CC=C[CH][CH]N=C1	
InChI=1S/C7H8N2/c1-2-4-6-9-7-8-5-3-1/h1-7H,(H,8,9)/b2-1-,5-3-,6-4-	InChI=1S/C7H8N2/c1-2-4-6-9-7-8-5-3-1/h1-7H,(H,8,9)/b2-1-,5-3-,6-4?
