19
gdb 76262	2.42695	1.50259	1.03919	3.7384	79.26	-0.2433	-0.0476	0.1957	1179.5717	0.158348	-423.072977	-423.063835	-423.062891	-423.106689	34.141	
C	 0.2076144076	 1.6342233002	 0.0124797556	-0.384396
C	 0.0189235017	 0.1076310545	 0.0318130288	-0.135199
C	 0.6713482488	-0.5891529443	-1.1875603369	 0.039354
O	 0.8491110082	 0.2080561356	-2.3266195079	-0.437166
C	 2.0065539995	-1.1039636601	-0.636433251	 0.351199
O	 2.9740587227	-1.3133166232	-1.3388823167	-0.360704
C	 1.8505954816	-1.2062493806	 0.8182103493	-0.293141
C	 0.7396792167	-0.5485104522	 1.203359645	 0.330114
C	 0.2295102853	-0.4064518909	 2.5989890759	-0.491687
H	 1.2692817317	 1.89683494	-0.0077208733	 0.125192
H	-0.2566252786	 2.0555271084	-0.8810942954	 0.142794
H	-0.2460794968	 2.0971111396	 0.8938272602	 0.109491
H	-1.0557536666	-0.1055880133	 0.0875775999	 0.081871
H	 0.0708878493	-1.4837324078	-1.4312311723	 0.09399
H	 1.7182175372	-0.0412968492	-2.6767866668	 0.292411
H	 2.5649801851	-1.6961729809	 1.4681912897	 0.113531
H	 0.8634315823	-0.9253273696	 3.3215832451	 0.135563
H	 0.1655771324	 0.6491531419	 2.8882538913	 0.145458
H	-0.788393308	-0.8094315182	 2.6752067596	 0.141327
74.8532	135.0255	177.9298	205.7759	243.3449	262.9756	276.5233	305.6142	426.4085	473.3114	507.1013	570.8833	601.7827	646.0376	736.7769	789.1212	846.0653	896.9821	905.3286	1003.124	1033.4956	1062.7131	1071.8231	1112.6659	1154.8988	1160.7977	1203.5856	1227.0251	1298.1002	1332.8303	1343.305	1365.917	1403.1347	1409.5192	1419.1535	1474.9186	1477.6891	1492.6491	1494.7507	1660.9853	1804.5313	2942.8978	3025.0098	3029.6176	3046.2257	3076.7705	3115.2694	3124.2164	3137.3412	3212.1758	3707.9132
CC1C(O)C(=O)C=C1C	C[C@H]1[C@@H](O)C(=O)C=C1C	
InChI=1S/C7H10O2/c1-4-3-6(8)7(9)5(4)2/h3,5,7,9H,1-2H3	InChI=1S/C7H10O2/c1-4-3-6(8)7(9)5(4)2/h3,5,7,9H,1-2H3/t5-,7-/m1/s1
