12
gdb 25216	2.6024	1.86471	1.25599	5.1651	64.04	-0.2626	-0.0834	0.1792	928.7733	0.079322	-468.855213	-468.848191	-468.847247	-468.887041	25.341	
O	 0.0610522416	 0.0857512156	-0.7933252011	-0.307181
C	 0.0424767847	 1.1827263885	-0.309841016	 0.346471
N	-1.1763547287	 1.879683636	-0.1353358959	-0.328172
C	-1.399476494	 3.1391962526	 0.3647911774	 0.119253
N	-0.625105109	 4.1620303787	 0.3444420186	-0.247147
C	 0.627739458	 4.1132954164	-0.2355788159	 0.074585
N	 1.4953529192	 3.1725354713	-0.2342300274	-0.229372
C	 1.2607240034	 1.9155773724	 0.2923626238	 0.282196
O	 1.9563411363	 1.3514597043	 1.0948877904	-0.284458
H	-1.9853932237	 1.2795690612	-0.2507173044	 0.276342
H	-2.394032413	 3.2613463526	 0.7923350023	 0.15106
H	 0.9094492452	 5.0516912603	-0.7133277418	 0.146423
93.1748	135.7858	269.4208	294.585	323.6855	387.66	489.3319	588.1514	628.2955	683.6194	709.3065	796.7108	842.6702	883.549	961.325	1012.9157	1031.7439	1054.0782	1194.1877	1249.5464	1427.7885	1447.0032	1465.8788	1641.4921	1699.4139	1816.9149	1841.1325	3139.5197	3145.864	3563.4922
O=C1NC=NC=NC1=O	O=c1[nH]cncnc1=O	
InChI=1S/C4H3N3O2/c8-3-4(9)7-2-5-1-6-3/h1-2H,(H,5,6,7,8,9)	InChI=1S/C4H3N3O2/c8-3-4(9)7-2-5-1-6-3/h1-2H,(H,5,6,7,8,9)
