19
gdb 102187	2.37827	1.09944	0.81543	2.1706	77.65	-0.2553	0.0547	0.3099	1416.8112	0.155504	-422.952503	-422.942346	-422.941402	-422.988562	35.712	
C	-0.6895786874	 0.1220042675	 0.7425705571	-0.238735
O	 0.0601802133	-0.8874511383	 0.1005795901	-0.237081
C	 0.5718543488	-0.5297470249	-1.1671154074	 0.088458
C	 1.7010429129	-1.5206395037	-1.4988131649	-0.374264
C	 2.8491115434	-1.3951073693	-0.6112540419	 0.305548
C	 3.8003785955	-1.2740484099	 0.1126732077	-0.443025
C	-0.5122617267	-0.592793735	-2.2299405384	 0.065753
C	-1.1591265365	 0.6101373926	-2.7698761847	-0.182514
O	-0.1512202839	-0.0768797048	-3.5122215099	-0.235275
H	-0.1049010091	 1.0474600046	 0.8549420106	 0.110383
H	-1.6194477134	 0.360651954	 0.2072617628	 0.108749
H	-0.9451636229	-0.2555473358	 1.7353227827	 0.132787
H	 0.9887517	 0.4896258257	-1.1458272004	 0.081206
H	 1.2920987875	-2.5373341269	-1.4429835948	 0.135535
H	 2.0060403462	-1.3511959128	-2.5377420301	 0.150202
H	 4.6403323817	-1.1774235341	 0.7545907767	 0.192762
H	-1.0629876941	-1.5350612843	-2.2553071078	 0.101497
H	-2.1664336073	 0.545922673	-3.1785573096	 0.120514
H	-0.8711304881	 1.5901627524	-2.3913105177	 0.117497
59.3152	72.4309	77.9409	124.9688	174.1243	215.2295	245.2802	331.7146	345.5715	369.5074	434.1188	498.5423	575.4954	611.6315	642.5349	833.5239	866.1735	874.5798	936.3139	979.3338	1033.0696	1064.5916	1099.2612	1132.0075	1152.268	1159.8551	1175.3351	1182.1106	1204.9515	1256.0572	1279.5516	1290.5784	1346.3734	1371.9303	1444.4886	1461.009	1480.622	1489.2042	1508.6362	1525.0727	2242.9654	2980.7123	2987.8198	3031.3352	3036.3241	3075.493	3082.4352	3098.7877	3118.557	3170.642	3508.0163
COC(CC#C)C1CO1	CO[C@@H](CC#C)[C@H]1CO1	
InChI=1S/C7H10O2/c1-3-4-6(8-2)7-5-9-7/h1,6-7H,4-5H2,2H3	InChI=1S/C7H10O2/c1-3-4-6(8-2)7-5-9-7/h1,6-7H,4-5H2,2H3/t6-,7+/m0/s1
