20
gdb 81071	2.71731	1.41668	1.16706	1.9688	78.9	-0.2273	0.0825	0.3098	1131.7226	0.171365	-403.04196	-403.033736	-403.032792	-403.07517	31.663	
C	 0.0235333753	 1.6475417912	-0.1365130601	-0.448729
C	 0.0824049953	 0.1459545561	 0.0735245341	 0.048437
N	 1.1148268152	-0.6613466674	-0.7556911258	-0.161865
C	 2.1466685673	-0.2187803876	 0.2986403068	-0.227285
C	 0.9202535742	-0.5650557874	 1.178194744	 0.318663
C	 0.8096514203	-1.7926974182	 0.2401096297	-0.210389
C	 0.7782148286	-0.520394192	 2.6638404997	-0.092366
C	 0.247297576	 0.6500185132	 3.3773954343	-0.183279
O	-0.5621849354	-0.5072627863	 3.1740173123	-0.234246
H	 0.947395946	 2.1730364012	 0.1156602578	 0.118174
H	-0.2057996263	 1.8572468645	-1.1867286461	 0.134042
H	-0.78256059	 2.0754901494	 0.4683775303	 0.125984
H	-0.9195484474	-0.2749729264	-0.0604328811	 0.081092
H	 3.0142378932	-0.8820754472	 0.3540707037	 0.100699
H	 2.4642483989	 0.8208498355	 0.2142496806	 0.103186
H	-0.1752204983	-2.2467858625	 0.1029234082	 0.107282
H	 1.5981399934	-2.5483511433	 0.2904399005	 0.097727
H	 1.4522845405	-1.1806092418	 3.2140682022	 0.090408
H	 0.5533580917	 0.8339801015	 4.4064447776	 0.116779
H	-0.0511210787	 1.5340257972	 2.817027971	 0.115683
51.8978	144.7	163.9407	197.058	285.3502	348.9573	399.2261	452.1304	583.664	596.8861	641.4218	759.8644	805.1303	816.9633	853.6232	869.8893	923.6754	947.078	986.5618	1001.8785	1032.5981	1049.5723	1085.3342	1106.6471	1122.0782	1152.8451	1160.1432	1162.9452	1172.0203	1173.748	1195.7408	1201.9022	1261.0079	1284.5244	1322.9926	1404.7072	1431.1101	1445.3701	1491.4346	1493.7481	1521.2506	1528.4971	1558.0691	3039.8694	3049.2898	3052.4929	3065.6109	3083.1417	3089.4367	3101.6091	3117.907	3121.9289	3136.2192	3174.8593
CC1N2CC1(C2)C1CO1	C[C@H]1N2C[C@@]1(C2)[C@H]1CO1	
InChI=1S/C7H11NO/c1-5-7(6-2-9-6)3-8(5)4-7/h5-6H,2-4H2,1H3	InChI=1S/C7H11NO/c1-5-7(6-2-9-6)3-8(5)4-7/h5-6H,2-4H2,1H3/t5-,6-/m1/s1
