13
gdb 25192	2.59958	1.86425	1.23575	3.9264	69.25	-0.2653	-0.0738	0.1915	950.0678	0.091824	-448.962811	-448.955708	-448.954764	-448.994738	26.071	
N	-0.0320711558	 1.046894158	-0.8044068464	-0.459205
C	-0.0200085546	 0.0010657462	-0.0855708834	 0.218156
N	 1.1021485188	-0.5790107846	 0.500525276	-0.248242
C	 1.3889367893	-1.819932596	 0.3730374335	 0.062962
N	 0.7648408902	-2.8158291795	-0.3578504635	-0.251881
C	-0.5091892523	-2.8626191865	-0.4897565089	 0.118037
N	-1.4588328065	-2.0026377687	 0.0049700003	-0.332392
C	-1.3691338074	-0.6140505453	 0.2553971727	 0.409157
O	-2.3262291534	-0.0107238165	 0.6543783646	-0.306283
H	 0.9279538193	 1.3749969884	-0.9439244833	 0.233649
H	 2.2959811818	-2.169416093	 0.8664593573	 0.137609
H	-0.935093951	-3.7100138942	-1.0269021922	 0.145224
H	-2.4181983086	-2.3282449882	 0.0103407332	 0.273208
80.5328	133.8077	279.3256	299.0006	342.1679	399.2881	464.5616	579.5455	622.4176	676.9194	699.7517	796.1899	821.9318	880.9555	944.7716	965.3857	999.9969	1022.4792	1043.0641	1147.743	1231.7589	1336.4272	1428.7969	1448.3213	1471.8104	1647.6841	1692.272	1716.578	1840.5108	3135.4909	3139.5867	3442.1782	3574.6565
N=C1N=CN=CNC1=O	[NH][C]1N=CN=CNC1=O	
InChI=1S/C4H4N4O/c5-3-4(9)8-2-6-1-7-3/h1-2H,(H2,5,6,7,8,9)	InChI=1S/C4H4N4O/c5-3-4(9)8-2-6-1-7-3/h1-2H,(H2,5,6,7,8,9)
