18
gdb 84313	3.28115	1.4426	1.11478	3.5436	79.28	-0.2333	-0.0537	0.1796	1096.7953	0.148641	-401.9541	-401.946317	-401.945373	-401.98625	30.445	
C	 0.3529369864	 1.6268244357	-0.0268909545	-0.393086
C	-0.043865998	 0.1450083988	-0.0147605638	-0.014885
C	 0.2532449931	-0.5335391077	-1.3295299477	-0.026356
C	 0.6828513108	-1.7959054944	-1.4323283636	-0.210547
C	 0.9057806297	-2.6328954241	-0.2359441064	 0.403045
O	 1.0229917886	-3.842226853	-0.2932462262	-0.344885
C	 0.9709864631	-1.9043786591	 1.0695615583	-0.140592
C	 1.9605709244	-0.780213144	 1.1780969952	-0.251629
N	 0.5377066746	-0.5016541541	 1.1723246141	-0.105053
H	 1.4286236273	 1.7457960998	-0.1897683372	 0.123856
H	-0.1734949434	 2.1589329387	-0.8245310328	 0.120542
H	 0.0964081492	 2.088017941	 0.9296045492	 0.136011
H	-1.1345002971	 0.1002687135	 0.1275412456	 0.111207
H	 0.062474482	 0.0526015925	-2.2271760519	 0.109188
H	 0.8381903576	-2.2787393104	-2.3918078496	 0.115367
H	 0.776882761	-2.5262555215	 1.9387215024	 0.114947
H	 2.4657995919	-0.6141194814	 2.1251853933	 0.128641
H	 2.5509527288	-0.5576272503	 0.2921667556	 0.124227
82.262	208.1463	230.1438	261.4359	303.5621	356.2647	416.6867	450.4047	522.8629	570.5849	681.7282	735.1305	742.2508	784.1701	850.8435	886.4381	903.2547	966.0379	995.8261	1018.4811	1059.5178	1088.827	1104.1521	1112.8978	1136.9928	1158.6444	1187.7687	1269.6211	1299.8051	1325.8567	1348.5837	1367.2572	1401.0662	1412.7972	1490.3964	1499.4322	1500.6479	1681.4756	1772.2127	2985.4155	3044.3619	3104.7685	3114.8337	3130.6248	3140.4381	3156.3588	3190.1892	3194.2164
CC1C=CC(=O)C2CN12	C[C@H]1C=CC(=O)[C@H]2CN12	
InChI=1S/C7H9NO/c1-5-2-3-7(9)6-4-8(5)6/h2-3,5-6H,4H2,1H3	InChI=1S/C7H9NO/c1-5-2-3-7(9)6-4-8(5)6/h2-3,5-6H,4H2,1H3/t5-,6+,8?/m0/s1
