17
gdb 12800	3.58814	2.10145	1.61583	2.087	67.99	-0.2415	0.0284	0.2698	833.7653	0.143575	-363.863098	-363.856036	-363.855092	-363.894113	27.331	
C	-0.25538796	 1.5307403641	 0.0630670557	-0.468467
C	 0.0481118889	 0.04955295	-0.007570245	 0.271019
C	-0.6776474354	-0.8849013941	 0.9453839428	-0.357013
C	 0.7886962604	-0.5947773535	 1.1265837094	 0.082969
O	 1.7232464872	-1.6211856653	 0.8750284515	-0.223191
C	 1.806934664	-2.0782605317	-0.3998276648	 0.123248
N	 1.2398225826	-1.6641416457	-1.4483870055	-0.269105
C	 0.3862433299	-0.4848468113	-1.3949024469	-0.220518
H	 0.5881449318	 2.1269572113	-0.3030112779	 0.122453
H	-1.1312087442	 1.7792691181	-0.5480672375	 0.123372
H	-0.4704250657	 1.8465618859	 1.0890860152	 0.11522
H	-1.3763813881	-0.4626332196	 1.6597389903	 0.11572
H	-0.9389184781	-1.8747512946	 0.5844793215	 0.128204
H	 1.1211672025	-0.0007216084	 1.9703396191	 0.106182
H	 2.4817047062	-2.9313502369	-0.4326821723	 0.12388
H	-0.5310255213	-0.7032842313	-1.9585145109	 0.110757
H	 0.8987743994	 0.3067912629	-1.9582492646	 0.11527
109.4628	208.5003	225.5267	318.0737	353.0983	409.8648	504.045	517.9682	540.0972	699.6515	783.4471	877.1674	883.5142	929.6741	944.5926	959.9413	985.0599	1010.9905	1040.9643	1064.597	1082.0996	1130.472	1130.9507	1195.5774	1252.3942	1291.4067	1334.7023	1357.4944	1405.4812	1416.4877	1428.5159	1478.5507	1489.3094	1492.5419	1505.3519	1742.9804	3006.737	3022.4478	3030.259	3084.9531	3096.761	3127.456	3161.9064	3173.9506	3216.9372
CC12CC1OC=NC2	C[C@]12C[C@H]1OC=NC2	
InChI=1S/C6H9NO/c1-6-2-5(6)8-4-7-3-6/h4-5H,2-3H2,1H3	InChI=1S/C6H9NO/c1-6-2-5(6)8-4-7-3-6/h4-5H,2-3H2,1H3/t5-,6-/m1/s1
