17
gdb 31926	3.08239	1.10516	0.85423	4.1892	82.44	-0.2357	-0.0537	0.182	1345.2802	0.135624	-421.881195	-421.872677	-421.871732	-421.915229	30.64	
C	-0.2760356553	 1.5155828495	-0.2032414884	-0.376887
C	 0.1165732845	 0.0406818755	-0.0043815591	-0.298254
C	 0.8934940645	-0.5189277028	-1.1452308558	 0.369036
C	 2.1668697905	-1.0130067005	-1.2584165358	-0.26456
C	 2.3306555037	-1.3890484544	-2.6177347809	-0.224102
C	 1.1470239685	-1.0992833573	-3.2473399545	 0.24817
O	 0.268762407	-0.5669769235	-2.345094003	-0.191126
C	 0.7396244093	-1.2721400733	-4.6284034307	 0.062988
O	-0.3413252044	-0.9824359884	-5.0923900615	-0.285882
H	 0.6118288903	 2.1475381661	-0.299165109	 0.124927
H	-0.8778195862	 1.6366697273	-1.107497312	 0.144906
H	-0.8606734905	 1.8725439825	 0.6491552642	 0.120049
H	 0.7183568628	-0.0751979489	 0.90220782	 0.118463
H	-0.7908991624	-0.5595949194	 0.1379722202	 0.130107
H	 2.8883031758	-1.0944164822	-0.4605739234	 0.11956
H	 3.204766548	-1.8195956503	-3.0824410133	 0.128937
H	 1.5479303438	-1.71557042	-5.2515072969	 0.073669
48.5683	122.7908	142.927	165.4969	224.0784	277.8984	357.7496	411.5188	506.2474	624.8043	647.6111	707.5387	772.5093	798.4733	809.6731	864.1082	950.4855	981.1342	1009.2518	1017.223	1047.6253	1079.5245	1089.8541	1210.788	1238.6987	1288.9458	1301.3912	1350.0623	1396.9116	1406.872	1437.1653	1474.4964	1496.5646	1505.5011	1554.9774	1618.5876	1784.7952	2883.0909	3031.7325	3046.0341	3085.3351	3118.2351	3129.5138	3250.5008	3264.5594
CCC1=CC=C(O1)C=O	CCc1ccc(o1)C=O	
InChI=1S/C7H8O2/c1-2-6-3-4-7(5-8)9-6/h3-5H,2H2,1H3	InChI=1S/C7H8O2/c1-2-6-3-4-7(5-8)9-6/h3-5H,2H2,1H3
