21
gdb 122258	2.71313	0.81894	0.69559	1.7435	85.6	-0.2403	0.0553	0.2956	1669.8145	0.179941	-387.040728	-387.030322	-387.029378	-387.076759	38.027	
O	 0.0577836233	 1.3757287092	-0.3558582216	-0.421358
C	 0.0518443878	 0.019532082	 0.0639896859	-0.074492
C	-1.3536788954	-0.5289514866	-0.1407116055	-0.163337
C	-1.4792547168	-2.0001338689	 0.2677781206	-0.28346
C	-2.8894994522	-2.5594121617	 0.0951591233	 0.174041
C	-3.3042073583	-3.0492629974	-1.2858974994	-0.287223
C	-3.0451864262	-4.0457687748	-0.1933832965	-0.309083
C	-3.9027701139	-1.9412720387	 0.910420731	 0.294577
C	-4.7346443436	-1.4177558527	 1.6048783947	-0.478612
H	 0.9403376302	 1.7301710952	-0.2147156717	 0.284295
H	 0.775605878	-0.5789536613	-0.5149725626	 0.079569
H	 0.3352097809	-0.0703761841	 1.1259209662	 0.083878
H	-2.057094456	 0.0790077688	 0.4382865973	 0.122194
H	-1.6269495355	-0.4076225665	-1.1956042234	 0.104935
H	-0.7914875612	-2.6120720556	-0.3298007717	 0.091536
H	-1.1761048009	-2.1229284724	 1.3155243977	 0.104827
H	-4.3287767638	-2.8784907128	-1.5932001408	 0.127024
H	-2.5711157904	-2.9515508619	-2.0796927995	 0.117347
H	-2.1354937881	-4.6353358498	-0.2355775544	 0.116021
H	-3.8939714504	-4.5536569931	 0.248546137	 0.126329
H	-5.4730527075	-0.9556210469	 2.2116420633	 0.190991
58.3545	71.8833	107.8054	135.8872	171.3166	217.239	264.5518	290.7276	304.5193	367.7173	467.5021	537.9631	565.0095	585.7756	645.1755	698.725	760.9892	788.5451	853.3245	892.1967	930.2368	945.0867	975.4818	1029.4165	1051.958	1060.4381	1081.7045	1085.1883	1116.004	1193.3048	1208.618	1233.7525	1277.9935	1288.0126	1310.3752	1313.8316	1352.563	1388.2413	1463.0254	1463.8016	1480.9487	1496.1954	1501.2059	1528.8998	2231.0239	2952.301	2977.442	3015.7019	3040.4018	3052.1507	3090.4462	3134.8464	3139.4014	3220.7585	3235.1045	3503.869	3830.1926
OCCCC1(CC1)C#C	OCCCC1(CC1)C#C	
InChI=1S/C8H12O/c1-2-8(5-6-8)4-3-7-9/h1,9H,3-7H2	InChI=1S/C8H12O/c1-2-8(5-6-8)4-3-7-9/h1,9H,3-7H2
