17
gdb 18434	2.91274	2.05891	1.57514	4.1988	71.9	-0.2836	0.0307	0.3143	870.914	0.143192	-326.716431	-326.709048	-326.708104	-326.747854	28.159	
C	-0.2827095392	 1.5531287354	 0.0037488601	-0.426328
C	 0.0407775473	 0.0648842034	 0.0123585951	 0.030079
C	 1.1786470478	-0.5205767445	-0.9000747557	-0.271786
C	 1.7545015731	-1.2461689155	 0.3230646887	-0.061744
C	 2.1932872463	-0.2483917567	 1.3736198674	-0.169876
C	 2.7997384244	 1.0149918084	 1.0449793059	 0.30264
N	 3.3112560831	 2.0185660254	 0.7787790065	-0.357634
C	 0.719330485	-0.5891790063	 1.2278032725	-0.085376
H	 0.6017167312	 2.170191007	 0.1755491916	 0.153117
H	-0.7115142217	 1.8439714523	-0.9614977664	 0.116636
H	-1.0195823368	 1.7931127721	 0.7783410833	 0.115255
H	-0.8745286077	-0.5012592396	-0.1897849985	 0.085969
H	 0.802960793	-1.194918541	-1.6711394936	 0.110326
H	 1.8491703064	 0.2084859339	-1.3637721762	 0.125018
H	 2.1439665029	-2.2565039509	 0.3433278208	 0.102377
H	 2.640813713	-0.708427332	 2.2503266469	 0.133775
H	 0.2019256217	-1.0013733013	 2.0867890416	 0.097553
137.7989	140.8506	213.9405	228.2807	307.0044	388.7918	456.3202	566.33	610.761	699.75	753.9299	778.5999	833.9438	864.2584	930.6944	964.8719	968.4845	990.8131	1008.6047	1072.6575	1094.3239	1120.4633	1129.8497	1176.6036	1196.9121	1248.42	1268.6297	1301.247	1337.9669	1375.3816	1411.1925	1419.605	1492.1384	1495.8949	1504.6044	2345.9265	3034.7021	3046.9859	3065.131	3093.506	3123.7305	3134.3241	3153.9186	3173.807	3192.1235
CC1CC2C(C#N)C12	C[C@H]1C[C@H]2[C@@H](C#N)[C@@H]12	
InChI=1S/C7H9N/c1-4-2-5-6(3-8)7(4)5/h4-7H,2H2,1H3	InChI=1S/C7H9N/c1-4-2-5-6(3-8)7(4)5/h4-7H,2H2,1H3/t4-,5-,6+,7-/m0/s1
