15
gdb 85483	2.53087	1.49605	1.10827	5.1819	66.9	-0.2901	0.0035	0.2936	1088.2934	0.111442	-457.780211	-457.771991	-457.771047	-457.81341	30.036	
C	-0.2724571321	 1.5470430475	-0.1194765352	-0.416342
C	 0.0670845852	 0.073288762	-0.0697575751	 0.101835
O	 1.0905415561	-0.236412623	-1.0286423615	-0.252532
C	 1.8922571872	-1.2186401743	-0.5494558635	 0.497556
O	 2.7296696517	-1.7855290876	-1.171837231	-0.365676
O	 1.5965336999	-1.4736472991	 0.7573488984	-0.237653
C	 0.6805608709	-0.477660878	 1.2480085733	-0.108067
C	 1.3810528062	 0.5011820585	 2.0717006542	 0.361659
C	 1.9505356298	 1.302782116	 2.7612033935	-0.463346
H	 0.6062466239	 2.1549680004	 0.1041988305	 0.149199
H	-0.6446291776	 1.8075720004	-1.1131780589	 0.14149
H	-1.0525586855	 1.777458488	 0.6122787203	 0.131891
H	-0.8131965171	-0.532243015	-0.3185068358	 0.107636
H	-0.0754576025	-0.994334334	 1.8451946311	 0.135189
H	 2.4609487937	 2.0063185182	 3.3727740896	 0.217159
70.2487	127.1624	152.3546	223.7149	248.8341	297.9389	403.8103	484.5273	518.4603	588.2075	648.2201	687.935	698.4141	750.8131	776.9498	853.4354	896.6517	952.8348	991.8039	1051.6385	1089.8595	1127.079	1149.6116	1189.1632	1299.2254	1353.6917	1381.2339	1393.8045	1421.4295	1483.48	1494.874	1932.1859	2241.6511	3031.3508	3054.543	3079.2048	3126.8816	3146.1425	3498.1792
CC1OC(=O)OC1C#C	C[C@H]1OC(=O)O[C@H]1C#C	
InChI=1S/C6H6O3/c1-3-5-4(2)8-6(7)9-5/h1,4-5H,2H3	InChI=1S/C6H6O3/c1-3-5-4(2)8-6(7)9-5/h1,4-5H,2H3/t4-,5+/m1/s1
