16
gdb 45501	4.01256	1.36385	1.12418	3.1787	72.94	-0.2564	-0.0125	0.244	1059.6945	0.126401	-437.902064	-437.895066	-437.894121	-437.933799	27.022	
N	-0.0487477283	 0.9703679549	-0.712268975	-0.532346
C	-0.0304090568	-0.1104115241	-0.0666498265	 0.419123
C	-1.2832736305	-0.8832696068	 0.3737247431	-0.415574
C	-0.660528664	-2.2041128076	 0.6644307297	 0.227919
C	-0.7425489678	-3.4587937477	 0.2422458733	-0.22477
C	 0.603391286	-4.1182974121	 0.4043511795	-0.113697
O	 1.4850265047	-3.0730470555	 0.8523492092	-0.264197
C	 0.7412441799	-1.9320206172	 1.1244913516	 0.183855
O	 1.1075607795	-0.7655787829	 0.3410284778	-0.260652
H	 0.9010780259	 1.3032810331	-0.8868060086	 0.227307
H	-1.7070395598	-0.3995732813	 1.2627828172	 0.142504
H	-2.0416662043	-0.8806843173	-0.4084742981	 0.149711
H	-1.5746932867	-3.9356496162	-0.2593501439	 0.119825
H	 0.6214432577	-4.9358299008	 1.1385119618	 0.121449
H	 0.9666993216	-4.5214377551	-0.5505401155	 0.127666
H	 0.8803844428	-1.6455774332	 2.1764785346	 0.091877
88.4431	137.4459	245.1508	337.4379	360.6931	491.4872	532.9873	600.6052	672.2435	732.3818	793.1937	818.2669	841.1272	890.4756	920.6865	929.8894	970.6204	986.3386	1000.0289	1036.2683	1044.5216	1117.516	1146.5135	1182.2539	1195.9602	1245.0253	1268.6156	1310.9554	1347.5136	1386.2268	1408.9537	1466.4261	1514.8329	1752.7563	1786.5826	3004.1756	3008.3884	3035.9114	3037.4118	3140.7018	3222.2036	3474.4567
N=C1CC2=CCOC2O1	[NH][C]1C[C]2[CH]CO[C@H]2O1	
InChI=1S/C6H7NO2/c7-5-3-4-1-2-8-6(4)9-5/h1,6-7H,2-3H2	InChI=1S/C6H7NO2/c7-5-3-4-1-2-8-6(4)9-5/h1,6-7H,2-3H2/t6-/m0/s1
