19
gdb 71687	2.70272	2.23807	1.66185	1.4167	77.33	-0.2412	0.0703	0.3115	872.9321	0.161864	-385.843584	-385.837159	-385.836215	-385.873795	28.187	
O	 0.0135495744	 1.3448371991	-0.0107999298	-0.49736
C	 0.0475352732	-0.0462668124	-0.0346536742	 0.440557
C	-1.2867135665	-0.7954882006	-0.2134276851	-0.286351
C	-0.3879488754	-1.9352506939	-0.7253802201	-0.056197
C	 0.6898777588	-2.2050093709	 0.3700515226	-0.035206
C	 1.8547781552	-1.6311596332	-0.5086421056	-0.045809
C	 2.3061539404	-0.737940036	 0.6619455706	-0.263101
C	 0.8119235254	-0.7938672309	 1.0753206971	-0.105626
C	 0.6782064168	-0.9046967392	-1.2242095793	-0.118036
H	 0.8906053268	 1.6693574963	 0.2206115759	 0.278099
H	-1.9099367268	-0.9558840132	 0.6726707984	 0.08893
H	-1.884052416	-0.3552256879	-1.0169530736	 0.103569
H	-0.7592359954	-2.7684094543	-1.3190583663	 0.065079
H	 0.7549597752	-3.1119082511	 0.9691981497	 0.064793
H	 2.54151426	-2.2409622717	-1.0950896526	 0.061919
H	 2.9475419573	-1.2787485661	 1.3639880179	 0.099884
H	 2.7583725843	 0.2396730891	 0.4481333941	 0.075283
H	 0.4863867877	-0.6137786008	 2.1006799144	 0.063748
H	 0.7093724246	-0.4751318321	-2.2237496141	 0.065824
239.2209	273.869	306.2521	416.5092	429.8832	488.5973	585.9699	686.4128	725.4858	786.0043	790.7275	821.9185	830.9956	854.4225	874.9369	916.2076	939.8089	959.8557	971.1937	989.4957	1004.3087	1012.6455	1043.8325	1075.4106	1101.0381	1110.797	1121.377	1160.3572	1188.3446	1197.0988	1210.6488	1226.1938	1234.1158	1252.2319	1266.6649	1286.2108	1296.5371	1343.3106	1373.9073	1495.2487	1496.922	3013.3008	3042.5055	3088.3406	3103.9081	3105.8118	3113.2427	3123.8046	3130.8356	3140.1249	3803.1932
OC12CC3C4C(CC14)C23	O[C@]12C[C@@H]3[C@H]4[C@H](C[C@@H]14)[C@H]23	
InChI=1S/C8H10O/c9-8-2-4-6-3(7(4)8)1-5(6)8/h3-7,9H,1-2H2	InChI=1S/C8H10O/c9-8-2-4-6-3(7(4)8)1-5(6)8/h3-7,9H,1-2H2/t3-,4+,5+,6+,7-,8+/m0/s1
