17
gdb 57175	2.80424	1.25551	0.90779	1.3199	73.93	-0.2587	-0.0818	0.1769	1251.1382	0.133791	-455.175892	-455.166044	-455.1651	-455.212329	33.85	
C	-1.5140762762	 0.5410833172	-0.4800561518	-0.330476
N	-0.2663758862	-0.0748288947	 0.0022073418	-0.150939
C	-0.2493185542	-0.3963995149	 1.388637797	 0.357632
C	 0.9342220481	-1.1366910968	 1.9626391798	-0.445464
N	-1.2853816798	-0.0539506269	 2.0475023735	-0.492988
C	 0.8218933604	-0.2339212798	-0.819450559	 0.32686
O	 1.9505075002	-0.5340324758	-0.4683340258	-0.351031
C	 0.6822811244	-0.1384006828	-2.3531580681	 0.089421
O	-0.2795102572	-0.420651113	-3.014690629	-0.234468
H	-1.4203321861	 0.794775558	-1.529184839	 0.154268
H	-2.3462058134	-0.1520843894	-0.3454456261	 0.149543
H	-1.7240993535	 1.43091014	 0.1147444625	 0.151712
H	 1.8334183491	-0.5191937226	 1.9591143616	 0.163628
H	 0.6921169477	-1.4252868767	 2.9882150926	 0.11327
H	 1.174375416	-2.0308239443	 1.3837973747	 0.151801
H	-1.1952371531	-0.3470305007	 3.0182597439	 0.225012
H	 1.6743678039	 0.0925804032	-2.7900253285	 0.122219
29.8203	39.9547	92.6129	136.2157	232.2766	245.0335	246.6446	294.2655	397.7809	422.9856	478.6356	541.8747	576.4971	603.9707	683.1101	728.128	870.9151	928.4757	993.3827	1011.4628	1073.0277	1101.4221	1155.8498	1161.3663	1185.3238	1373.036	1383.1087	1405.5106	1418.9433	1464.0322	1466.2045	1473.9515	1477.8746	1516.5968	1698.8371	1747.7351	1826.5744	2947.7838	3059.5959	3081.0622	3136.078	3140.022	3145.6869	3228.3051	3505.4288
CN(C(C)=N)C(=O)C=O	CN(C(=N)C)C(=O)C=O	
InChI=1S/C5H8N2O2/c1-4(6)7(2)5(9)3-8/h3,6H,1-2H3	InChI=1S/C5H8N2O2/c1-4(6)7(2)5(9)3-8/h3,6H,1-2H3
