13
gdb 6621	10.65883	0.64103	0.60696	4.3981	84.8	-0.2435	-0.0486	0.1949	1752.0094	0.093207	-361.453549	-361.444026	-361.443082	-361.490803	30.437	
C	-0.0137652767	 1.477318356	 0.0101439019	-0.519187
C	-0.0065105607	 0.0268638902	 0.0022836038	 0.256127
C	 0.0022123451	-1.1837924914	-0.0043025694	-0.200339
C	 0.0136846489	-2.5407525962	-0.0117011264	-0.244715
C	 0.0150265626	-3.7531787953	-0.0182304204	 0.325518
C	 0.1126156228	-5.2042691507	-0.027000151	 0.206902
N	-1.0952685278	-5.8390122713	-0.0188809899	-0.520854
O	 1.1791759311	-5.7886838955	-0.04023494	-0.32828
H	 1.0058608884	 1.8780288979	 0.0023658074	 0.163912
H	-0.5370081821	 1.8725434875	-0.8677313593	 0.162556
H	-0.5197677361	 1.8630351707	 0.9022398797	 0.162557
H	-1.9611876968	-5.3295258275	-0.0078956848	 0.268053
H	-1.1061810189	-6.8456703343	-0.0241607716	 0.26775
12.6666	47.3083	65.8239	76.4104	165.9796	209.4183	332.3223	373.6837	380.7602	521.3515	550.2105	585.1364	601.9142	641.5662	776.1184	874.0608	1045.978	1047.1487	1086.8528	1230.1286	1364.4243	1413.0352	1468.4323	1470.0042	1606.8315	1766.8045	2267.1607	2372.5396	3027.0737	3090.7312	3091.9854	3603.121	3746.0442
CC#CC#CC(N)=O	CC#CC#CC(=O)N	
InChI=1S/C6H5NO/c1-2-3-4-5-6(7)8/h1H3,(H2,7,8)	InChI=1S/C6H5NO/c1-2-3-4-5-6(7)8/h1H3,(H2,7,8)
