21
gdb 37980	2.94602	1.70299	1.29764	1.2788	82.33	-0.2381	0.0897	0.3278	1038.1867	0.186514	-387.042821	-387.035868	-387.034924	-387.073898	29.335	
C	-0.0190055451	 1.673758671	-0.024899192	-0.226321
C	 1.4751953421	 1.2374307396	 0.0145062878	-0.11453
C	 1.0381463637	 0.2194091102	 1.1209125819	 0.054202
C	 1.8931202238	-0.9496551926	 1.6055880924	-0.259298
C	 2.7901119209	-1.6350610366	 0.5732047452	-0.206064
C	 2.0394504459	-1.9785587677	-0.706431175	-0.069094
O	 1.8401262509	-0.854679524	-1.5422979279	-0.277338
C	 1.0537692915	 0.2109631881	-1.097465516	 0.180653
C	-0.0561791067	 0.1156367827	-0.0021304021	-0.122942
H	-0.3956055901	 2.170733868	 0.8706273979	 0.095543
H	-0.3699005547	 2.164076081	-0.9362242315	 0.091183
H	 2.3477957377	 1.8929655303	 0.0170569182	 0.06731
H	 0.6421036545	 0.7244740709	 2.0106524052	 0.061566
H	 2.5123467023	-0.5933612176	 2.4386288941	 0.096613
H	 1.2147024051	-1.6965803773	 2.0425246177	 0.0975
H	 3.6359718925	-0.9906913663	 0.3042443075	 0.106379
H	 3.2121458894	-2.5493468734	 1.0079461016	 0.092018
H	 2.6126217968	-2.6827474472	-1.3176119481	 0.102767
H	 1.075224372	-2.4564850433	-0.466648005	 0.087181
H	 0.7264112638	 0.7002648851	-2.0198789271	 0.07537
H	-0.9493171166	-0.5124718408	-0.0019670047	 0.067302
128.717	225.5579	329.7043	352.6616	379.4172	417.2651	497.9742	582.6361	638.5376	739.6396	780.6855	814.6989	846.8192	879.4999	887.8198	902.3941	952.4978	961.1361	989.8794	1019.0909	1044.7589	1053.1828	1067.1175	1086.3315	1110.3243	1125.0352	1160.5674	1169.3254	1193.5902	1208.8361	1223.7254	1233.014	1251.7457	1280.6046	1294.2079	1318.3688	1373.5648	1383.8724	1416.4271	1436.3962	1466.9696	1475.707	1486.6904	1502.5516	1526.9233	2972.0031	3002.2351	3021.1722	3025.1695	3044.2514	3056.5903	3063.6802	3070.5756	3075.1382	3090.9991	3100.7985	3131.1339
C1C2C3CCCOC2C13	C1[C@H]2[C@@H]3CCCO[C@H]2[C@H]13	
InChI=1S/C8H12O/c1-2-5-6-4-7(5)8(6)9-3-1/h5-8H,1-4H2	InChI=1S/C8H12O/c1-2-5-6-4-7(5)8(6)9-3-1/h5-8H,1-4H2/t5-,6-,7+,8+
