15
gdb 44186	5.11081	1.03348	0.93442	2.3297	70.33	-0.2646	-0.0517	0.2129	1188.8824	0.11266	-416.783641	-416.776056	-416.775112	-416.816456	27.986	
O	 0.2018820346	 0.093635617	-0.7536530188	-0.269372
C	 0.0524791819	 1.1610715022	-0.2448179208	 0.38762
C	-1.1476341435	 1.9739707642	 0.2905859962	-0.3093
N	-0.2131713001	 3.059673563	 0.725283512	-0.129468
C	 0.3247156743	 2.8239378202	 2.1107294191	-0.115685
C	 1.6559230742	 2.2394435445	 1.5410208491	-0.273474
C	 0.9868932507	 2.3234398691	 0.151296327	-0.102178
C	 0.4399746452	 4.0384875997	 2.9125843935	 0.298613
N	 0.5544345589	 4.9895205506	 3.55873624	-0.316208
H	-1.8236741904	 2.3140115842	-0.501245423	 0.152431
H	-1.7447072303	 1.5096208101	 1.0827752478	 0.140021
H	-0.2620975341	 2.0924161682	 2.6787436454	 0.126205
H	 2.5035983637	 2.9156360351	 1.6498199684	 0.148559
H	 1.9359430174	 1.2478768812	 1.8978161313	 0.140304
H	 1.5458177275	 2.7909107907	-0.6627660872	 0.121932
50.0096	118.9977	179.174	246.987	364.6212	409.8248	489.446	505.9481	540.4127	648.8318	707.7194	796.7509	827.8345	877.403	906.547	956.4632	974.5829	1016.6292	1042.4597	1077.1561	1092.694	1125.5016	1176.6224	1195.2986	1241.6023	1250.1617	1258.4593	1291.7493	1361.1071	1453.7831	1484.1766	1909.5608	2361.2119	3037.4598	3043.5967	3087.7232	3094.7068	3095.1614	3153.784
O=C1CN2C(CC12)C#N	O=C1CN2[C@@H](C[C@@H]12)C#N	
InChI=1S/C6H6N2O/c7-2-4-1-5-6(9)3-8(4)5/h4-5H,1,3H2	InChI=1S/C6H6N2O/c7-2-4-1-5-6(9)3-8(4)5/h4-5H,1,3H2/t4-,5-/m0/s1
