23
gdb 88992	4.26141	0.75875	0.71403	1.5241	86.91	-0.2387	0.0866	0.3253	1693.1841	0.205579	-388.262668	-388.252999	-388.252055	-388.298353	35.482	
C	 0.0728251136	 1.5514528432	-0.2952196472	-0.403158
C	-0.0423202405	 0.0819453638	 0.0493829802	-0.007998
C	 1.1628350315	-0.828111352	 0.0036649487	-0.294449
C	 0.5046987156	-0.5107584868	 1.3282380855	 0.017129
C	 1.2201397484	 0.3070441266	 2.3840149308	-0.239449
C	 2.0651519848	-0.5656400077	 3.2991974466	 0.175211
C	 2.621979134	 0.0589478625	 4.5986340347	-0.30222
C	 1.82591294	-1.05487641	 5.3060299518	-0.056395
O	 1.2626985493	-1.5083147517	 4.0588323926	-0.295202
H	 1.0365182771	 1.9704133376	 0.0089910145	 0.112943
H	-0.0198172158	 1.7038281261	-1.3763369192	 0.115125
H	-0.7132672695	 2.1405493866	 0.190947003	 0.114743
H	-0.9729098319	-0.3674384322	-0.2893470788	 0.080837
H	 1.0596184116	-1.8248579885	-0.4113129746	 0.107951
H	 2.1241272263	-0.3635748925	-0.1994772078	 0.10152
H	-0.0905097605	-1.3110625406	 1.7589631605	 0.100274
H	 1.8776877146	 1.0551350349	 1.9239558964	 0.091407
H	 0.4926402623	 0.8536717761	 2.9991416959	 0.09381
H	 2.8208512735	-1.1026787915	 2.7080483784	 0.072768
H	 3.7055597886	 0.0331392566	 4.7222854883	 0.107525
H	 2.2614231584	 1.0714772134	 4.7937019096	 0.10713
H	 2.4381826894	-1.831196815	 5.7833585879	 0.098481
H	 1.0527370091	-0.7329115988	 6.0136951923	 0.102017
47.7524	72.5763	91.5126	119.6714	187.5461	208.2669	301.4596	353.102	419.0174	436.9349	512.4375	740.966	760.4334	803.9613	830.8846	856.8291	870.06	886.7353	914.7347	953.6395	969.7182	1002.2624	1022.1769	1040.113	1067.2824	1104.8844	1113.208	1130.7153	1155.3403	1163.2201	1170.8342	1201.7227	1215.7671	1241.6102	1251.5363	1258.5076	1295.3432	1313.5274	1365.0992	1390.3087	1405.4124	1418.2496	1430.4018	1468.4133	1489.793	1492.5754	1494.9578	1506.9253	1532.9536	2996.1646	3011.4002	3014.9229	3028.675	3051.1984	3059.9244	3073.7311	3085.1195	3101.5388	3118.6221	3129.9898	3131.1246	3150.9915	3204.0458
CC1CC1CC1CCO1	C[C@H]1C[C@H]1C[C@H]1CCO1	
InChI=1S/C8H14O/c1-6-4-7(6)5-8-2-3-9-8/h6-8H,2-5H2,1H3	InChI=1S/C8H14O/c1-6-4-7(6)5-8-2-3-9-8/h6-8H,2-5H2,1H3/t6-,7-,8+/m0/s1
