23
gdb 122996	4.77032	0.61408	0.59671	1.9662	84.09	-0.2426	0.0819	0.3246	1992.1668	0.20339	-425.40742	-425.396742	-425.395798	-425.444113	38.698	
C	-0.037413765	 1.4404006972	-0.0823871192	-0.382415
C	 0.2148170874	-0.0690536037	-0.0530506654	-0.184069
C	 0.7086205504	-0.5493220476	 1.3046601359	-0.026776
O	 0.9248762987	-1.9448051833	 1.2459971878	-0.26752
C	 1.3584803074	-2.5102635347	 2.4711063538	-0.129972
C	 1.3580505996	-4.005312994	 2.2893913985	 0.430937
O	 0.1006257402	-4.5079605298	 1.9326463023	-0.47359
C	 2.5816559179	-4.6993218751	 1.7405427809	-0.313497
C	 2.1674205924	-4.8795875664	 3.190264284	-0.316274
H	 0.8767030216	 2.0022571996	 0.1389776267	 0.117315
H	-0.3924658406	 1.7600102848	-1.0661870093	 0.118834
H	-0.793135606	 1.7337450469	 0.6545490542	 0.1176
H	-0.7042399697	-0.6125630281	-0.3015889727	 0.104123
H	 0.9565248118	-0.3459331286	-0.8109297982	 0.10824
H	 1.6446618025	-0.0316059786	 1.5767744648	 0.084933
H	-0.029441765	-0.3105848034	 2.0898863195	 0.08661
H	 2.3621513333	-2.1446833871	 2.7406817134	 0.084475
H	 0.664526825	-2.2307031072	 3.2809536549	 0.092569
H	-0.1842435927	-3.9765184333	 1.1785356789	 0.285339
H	 2.4032103515	-5.5306674835	 1.0687987513	 0.117364
H	 3.4663807407	-4.1109230055	 1.5221380777	 0.109548
H	 2.7686200204	-4.4187228203	 3.9669240152	 0.110699
H	 1.7155391982	-5.8253441583	 3.4661930549	 0.125529
45.9834	62.5252	94.3549	119.6935	163.0313	211.5446	238.9447	283.7779	338.3471	380.2583	409.2661	431.8588	462.6068	553.9012	754.0868	766.6548	778.7	888.1643	902.7265	909.8308	934.6852	941.0527	984.7245	1019.1211	1046.6339	1055.8152	1064.1813	1081.9496	1148.5858	1152.436	1189.2896	1192.2438	1228.1165	1269.922	1285.8619	1316.5373	1321.9873	1331.7849	1376.0756	1412.7757	1424.2604	1453.1941	1456.965	1491.364	1501.0864	1501.692	1509.0818	1513.2278	1530.4403	2947.6724	2965.0087	2976.0119	3000.0662	3032.6532	3037.8557	3071.579	3101.029	3109.5856	3134.3512	3137.8657	3219.8447	3233.9507	3779.1083
CCCOCC1(O)CC1	CCCOCC1(O)CC1	
InChI=1S/C7H14O2/c1-2-5-9-6-7(8)3-4-7/h8H,2-6H2,1H3	InChI=1S/C7H14O2/c1-2-5-9-6-7(8)3-4-7/h8H,2-6H2,1H3
