22
gdb 119833	5.26862	0.76962	0.6955	0.9128	85.18	-0.2407	0.0394	0.2801	1707.991	0.194256	-404.383222	-404.373507	-404.372563	-404.418389	35.525	
C	-0.1156365876	 1.5081392875	 0.0103094816	-0.390964
C	-0.0010520928	-0.0041337562	 0.0212568787	-0.036028
O	-1.334555526	-0.5427248175	 0.0020170357	-0.267133
C	-1.4300271121	-1.8757058492	-0.0000527848	 0.421647
N	-0.4437750251	-2.6814210572	 0.0067035452	-0.315281
C	-0.9878634142	-4.0438886664	 0.0370424803	-0.167373
C	-2.500950156	-3.9467851154	-0.3180977793	 0.03453
C	-3.3853422706	-4.9826861969	 0.3713517578	-0.40649
C	-2.8173685594	-2.4742678777	 0.0207974037	-0.340328
H	 0.882150493	 1.9567740399	 0.0244635057	 0.120223
H	-0.6363616099	 1.8538400509	-0.887307345	 0.127007
H	-0.6664586718	 1.8646608516	 0.8854430576	 0.126925
H	 0.5465645649	-0.382400445	-0.8485447698	 0.119002
H	 0.5174177426	-0.3722655239	 0.9130516165	 0.117766
H	-0.4377446953	-4.6882779538	-0.6571545282	 0.101515
H	-0.8420444818	-4.4688135767	 1.0412798325	 0.096799
H	-2.5961392103	-4.0687470413	-1.4040395618	 0.079198
H	-3.3317104562	-4.8809610984	 1.4615529712	 0.114562
H	-4.435048392	-4.8770782919	 0.0775221728	 0.114631
H	-3.0721385849	-6.0010223612	 0.1167824086	 0.11612
H	-3.2515802671	-2.3633742553	 1.0237161466	 0.116467
H	-3.4980807376	-1.9828988158	-0.6795084356	 0.117203
49.463	76.562	141.209	141.8267	234.714	247.584	277.3447	300.2197	337.5401	408.4474	459.1053	558.4777	614.4929	735.2584	807.9056	842.4457	873.0775	908.3369	919.8659	944.5324	960.5502	1051.5645	1071.2123	1074.559	1113.2912	1139.1596	1160.3477	1180.5175	1184.4659	1240.8004	1256.942	1288.0848	1317.0207	1336.9084	1360.4897	1377.8039	1405.5246	1412.757	1432.5825	1480.3072	1485.2739	1496.6769	1497.2542	1499.0111	1505.6035	1521.139	1713.8177	2996.6847	3020.1784	3024.4864	3029.43	3044.4898	3045.0444	3060.8266	3080.6997	3090.5104	3095.3073	3095.8684	3119.481	3123.2418
CCOC1=NCC(C)C1	CCO[C]1[N]C[C@@H](C)C1	
InChI=1S/C7H13NO/c1-3-9-7-4-6(2)5-8-7/h6H,3-5H2,1-2H3	InChI=1S/C7H13NO/c1-3-9-7-4-6(2)5-8-7/h6H,3-5H2,1-2H3/t6-/m0/s1
