19
gdb 63692	3.69055	0.75292	0.7201	3.2837	73.36	-0.2498	-0.0292	0.2206	1601.1674	0.154294	-460.138442	-460.128142	-460.127198	-460.174994	36.281	
C	-0.1150727919	 1.4710660611	 0.3407565793	-0.453009
C	 0.0435008847	-0.0177280784	 0.1391998955	 0.353375
O	-1.1169760016	-0.6944163782	-0.2682103587	-0.460075
C	 1.374735974	-0.5712818665	-0.3452273686	-0.385114
C	 0.9113481065	-0.8341507345	 1.0597244239	 0.096642
O	 1.6360023957	-0.223984288	 2.0829242427	-0.250906
C	 0.9366466725	-0.1607029544	 3.3070042065	-0.153693
C	 1.8584572725	 0.4615967942	 4.340511933	 0.138155
O	 1.5241847284	 0.7088771039	 5.4681335865	-0.236717
H	 0.7737815098	 1.896976545	 0.81229145	 0.130612
H	-0.2681268791	 1.981914112	-0.6174268034	 0.111866
H	-0.9836196769	 1.6783356061	 0.9739672535	 0.126288
H	-1.2971549861	-0.4507629651	-1.1834172085	 0.282704
H	 1.3614081099	-1.4034130841	-1.0398739742	 0.117705
H	 2.1955506219	 0.1276073125	-0.4655175237	 0.124257
H	 0.5469163069	-1.8351302376	 1.2925097393	 0.100075
H	 0.0175247684	 0.4393044746	 3.2327719002	 0.132305
H	 0.6414639609	-1.1639099731	 3.6568546846	 0.128546
H	 2.8827769035	 0.6663047706	 3.9578225321	 0.096983
43.4299	48.7441	98.3897	116.4331	213.0122	223.2424	247.4302	299.6626	336.2027	392.2663	402.1379	456.0194	545.3428	560.0076	721.3475	739.0747	827.5837	900.7959	909.2085	972.8016	1017.2592	1041.5862	1074.7503	1086.8136	1104.2538	1113.1802	1135.1593	1204.5548	1234.1803	1243.397	1299.8438	1334.3334	1361.4583	1400.105	1409.1778	1415.8794	1469.9713	1486.9603	1488.0992	1510.2323	1845.5483	2898.3296	2976.504	3019.7314	3028.9567	3090.4019	3103.5895	3126.3336	3136.0187	3230.4429	3787.1077
CC1(O)CC1OCC=O	C[C@@]1(O)C[C@H]1OCC=O	
InChI=1S/C6H10O3/c1-6(8)4-5(6)9-3-2-7/h2,5,8H,3-4H2,1H3	InChI=1S/C6H10O3/c1-6(8)4-5(6)9-3-2-7/h2,5,8H,3-4H2,1H3/t5-,6-/m1/s1
