20
gdb 119345	4.19347	1.01401	0.99124	1.1731	79.72	-0.2235	0.0745	0.298	1305.5294	0.171179	-403.054499	-403.046051	-403.045107	-403.088446	31.359	
C	-0.0315132436	 1.4922414474	 0.7974315496	-0.218045
O	-0.1099036431	 0.1070761277	 1.0374181876	-0.2371
C	 0.8011673662	-0.6350443919	 0.2553797174	-0.235421
C	 0.6248481293	-2.0743028785	 0.5945905896	 0.396412
C	-0.5421579474	-3.0015700119	 0.7431669602	-0.12936
C	 0.0842569624	-3.9075983225	-0.3007135434	-0.176398
N	 1.4253584242	-3.2468648186	-0.030783527	-0.221371
C	 1.6999483988	-3.7067116942	 1.3908664267	-0.176402
C	 0.5249350536	-2.8689406029	 1.8604419418	-0.129365
H	-0.259875838	 1.7385724477	-0.2515767171	 0.106008
H	-0.7676577237	 1.9771584053	 1.4429400997	 0.128165
H	 0.9675328723	 1.8917189418	 1.0331713123	 0.106006
H	 0.6199795898	-0.4701193269	-0.8214881996	 0.095189
H	 1.8400321704	-0.3185148029	 0.4560255434	 0.09519
H	-1.5774013446	-2.744388126	 0.9266747898	 0.096372
H	 0.0788326885	-4.9948642183	-0.1605071179	 0.09505
H	-0.2370158415	-3.6684222718	-1.3180011334	 0.106823
H	 1.6888400594	-4.7946983034	 1.5249611968	 0.095049
H	 2.6635126896	-3.3076109776	 1.7188519671	 0.106825
H	 0.2578894674	-2.5163351824	 2.8483195663	 0.096374
55.7598	76.3161	117.0692	207.2539	243.6475	329.8633	353.3566	462.9913	493.0899	691.4569	741.1478	764.8844	817.2888	877.0715	887.1954	912.1027	937.7734	961.7769	986.6227	1016.9264	1017.2383	1069.3026	1092.4611	1093.2771	1117.1829	1155.9859	1158.815	1185.7678	1186.0344	1225.2615	1232.9581	1244.9834	1255.3252	1296.1651	1301.6642	1404.5694	1477.6527	1483.8799	1486.1256	1502.2166	1504.9728	1521.724	1529.0456	2940.5103	2963.1668	2971.962	3015.4826	3027.6788	3037.5614	3093.562	3097.0776	3115.5505	3195.7689	3204.5428
COCC12C3CN1CC23	COC[C@@]12[C@H]3CN1C[C@@H]23	
InChI=1S/C7H11NO/c1-9-4-7-5-2-8(7)3-6(5)7/h5-6H,2-4H2,1H3	InChI=1S/C7H11NO/c1-9-4-7-5-2-8(7)3-6(5)7/h5-6H,2-4H2,1H3/t5-,6+,7-
