16
gdb 69066	2.60263	1.67579	1.26258	2.4879	75.05	-0.2447	-0.0048	0.2399	1006.8097	0.124865	-396.944217	-396.936149	-396.935205	-396.976535	30.647	
C	-0.0514598793	 1.5314466896	-0.0857741073	-0.461218
C	 0.0256892659	 0.029256002	-0.0262167908	 0.281944
C	-0.8118187393	-0.7551390313	 0.9474810931	-0.345815
C	 0.6892989919	-0.8021128594	 1.146432802	 0.176177
N	 1.3489306064	-1.8738092889	 0.4420825431	-0.350524
C	 1.1480081015	-1.6536598922	-0.9072323546	 0.037245
N	 0.4212254351	-0.6471346445	-1.2293630877	-0.274712
C	 1.3254677302	-0.2574447905	 2.302069663	 0.207553
N	 1.8438099844	 0.1932674984	 3.2344275774	-0.348137
H	 0.8693291739	 1.9503813557	-0.5004186782	 0.134986
H	-0.8835504606	 1.8352139134	-0.7289567177	 0.138664
H	-0.2111323253	 1.9568994809	 0.9085218775	 0.129868
H	-1.3669737633	-0.1783982637	 1.6787227784	 0.138131
H	-1.2863779057	-1.673928235	 0.6185581037	 0.131761
H	 2.2122381799	-2.258333761	 0.7943203427	 0.264593
H	 1.5718241442	-2.3468089038	-1.6258865145	 0.139485
120.1513	145.2801	172.5443	252.5025	317.2278	339.8384	392.2895	435.5695	504.7748	558.6593	583.0804	616.9728	647.0171	740.1762	792.3128	916.8099	928.0633	957.8677	973.6908	984.8848	1070.2093	1095.8363	1114.2184	1176.2945	1243.6027	1279.1034	1336.0865	1356.3811	1419.2142	1434.6906	1469.0156	1478.9289	1496.0532	1644.3226	2341.7405	3043.6977	3113.5255	3125.9403	3131.5679	3204.76	3228.325	3626.1896
CC12CC1(NC=N2)C#N	C[C@]12C[C@]1(NC=N2)C#N	
InChI=1S/C6H7N3/c1-5-2-6(5,3-7)9-4-8-5/h4H,2H2,1H3,(H,8,9)	InChI=1S/C6H7N3/c1-5-2-6(5,3-7)9-4-8-5/h4H,2H2,1H3,(H,8,9)/t5-,6-/m0/s1
