19
gdb 118381	3.13708	0.82999	0.6932	1.6881	84.05	-0.255	0.0483	0.3033	1636.572	0.154723	-385.806486	-385.795721	-385.794777	-385.843073	37.797	
C	-0.0108664226	 1.398212253	 0.0206094002	-0.22982
O	-0.0276223751	-0.0094740551	 0.000152445	-0.229025
C	 0.6548987984	-0.5507789223	-1.1013143702	-0.058292
C	 0.6461276537	-2.0825469379	-0.9770392971	-0.184453
C	 1.205134342	-2.72286476	-2.2794801285	-0.369215
C	 1.07024028	-4.1720271261	-2.3166732589	 0.304929
C	 0.9391921478	-5.365799276	-2.3470628041	-0.431197
C	 1.3914057706	-2.5240228382	 0.1978115947	 0.367073
C	 2.0379754669	-2.8826878985	 1.1447182394	-0.481027
H	 1.0156595209	 1.792708288	 0.0782206105	 0.107594
H	-0.4939768372	 1.8267390804	-0.8721058443	 0.103359
H	-0.5627675365	 1.7170007979	 0.9077495228	 0.131386
H	 0.1625616662	-0.258834835	-2.0454665833	 0.084344
H	 1.6943111892	-0.1839077071	-1.1412093749	 0.09402
H	-0.4010095596	-2.3907828414	-0.8701158617	 0.127664
H	 0.6743836872	-2.2862353673	-3.1349920526	 0.130533
H	 2.2606166101	-2.4450606868	-2.3877800974	 0.139548
H	 0.8338093834	-6.421940009	-2.3713042776	 0.196037
H	 2.5925872844	-3.2051938986	 1.9906827381	 0.196542
53.6752	78.8448	84.0615	111.044	155.5955	217.1302	224.0604	237.7563	342.3386	351.8316	384.6483	456.2262	538.537	619.2085	629.5251	633.2482	639.2595	646.3211	807.4897	922.5043	940.6713	1007.6918	1048.5567	1090.6971	1098.947	1168.2517	1182.9236	1209.4811	1232.4925	1256.5843	1283.5901	1347.0044	1375.2907	1416.722	1470.4497	1479.8353	1485.392	1501.0314	1525.5537	2240.607	2243.9709	2946.0497	2971.4419	2982.2886	3015.5711	3023.3626	3040.9225	3064.0691	3118.7622	3506.0445	3507.902
COCC(CC#C)C#C	COC[C@@H](CC#C)C#C	
InChI=1S/C8H10O/c1-4-6-8(5-2)7-9-3/h1-2,8H,6-7H2,3H3	InChI=1S/C8H10O/c1-4-6-8(5-2)7-9-3/h1-2,8H,6-7H2,3H3/t8-/m1/s1
