21
gdb 91109	2.74409	1.75969	1.44184	1.5733	79.96	-0.2291	0.0773	0.3064	1002.9486	0.185928	-387.093968	-387.086726	-387.085782	-387.125331	30.164	
C	-0.1754850333	 1.5705803959	-0.0493498114	-0.419719
C	 0.0423634249	 0.05858541	-0.0100553425	 0.059289
C	 0.8080910373	-0.5217766728	-1.2274691425	-0.244251
C	 1.4145226648	-1.827719401	-0.7214104516	-0.086463
C	 2.59129213	-1.7148749984	 0.2274870971	 0.096747
O	 3.0679243708	-0.4243792606	 0.5231797028	-0.260543
C	 2.1695740261	 0.1545382863	 1.4778312601	-0.080973
C	 0.8007261647	-0.5028801187	 1.223894421	-0.075321
C	 1.2205028503	-1.9224629423	 0.7878187717	-0.126141
H	 0.7692093169	 2.1172702789	-0.1345316478	 0.121609
H	-0.7890242406	 1.8500127895	-0.9124874134	 0.114362
H	-0.6911412362	 1.9257378212	 0.8498839318	 0.108809
H	-0.9434097391	-0.4254454634	 0.0084162529	 0.071043
H	 0.1420629118	-0.692642109	-2.0779657405	 0.093145
H	 1.5925872115	 0.1694409402	-1.5565058367	 0.10903
H	 1.3579086546	-2.7197090671	-1.3363327078	 0.080023
H	 3.3606360136	-2.47997742	 0.2363863945	 0.090988
H	 2.514230654	-0.0681565039	 2.4992395104	 0.089586
H	 2.1870996498	 1.2386049548	 1.338774426	 0.105987
H	 0.1808287399	-0.4885170033	 2.1240047723	 0.068796
H	 0.9020096081	-2.8134831361	 1.3134820836	 0.083994
111.9335	227.1061	254.9129	294.0451	338.0745	485.1028	494.5753	521.4796	678.9794	725.3215	752.0626	773.9971	790.0403	809.6561	887.0778	918.8539	929.8339	955.8069	966.5956	996.6544	1019.238	1026.9053	1045.3736	1070.4011	1092.7705	1107.695	1136.7582	1158.8762	1159.5886	1206.3954	1230.0868	1255.7384	1274.6305	1301.1771	1311.4479	1323.3016	1357.2497	1367.2237	1387.404	1406.0247	1412.6712	1492.594	1496.8427	1500.089	1523.031	2986.2989	3007.738	3030.2511	3040.7338	3079.1028	3087.1913	3092.9949	3093.6793	3105.1097	3157.7311	3166.371	3189.9816
CC1CC2C3OCC1C23	C[C@H]1C[C@H]2[C@H]3OC[C@@H]1[C@@H]23	
InChI=1S/C8H12O/c1-4-2-5-7-6(4)3-9-8(5)7/h4-8H,2-3H2,1H3	InChI=1S/C8H12O/c1-4-2-5-7-6(4)3-9-8(5)7/h4-8H,2-3H2,1H3/t4-,5+,6-,7+,8+/m0/s1
