16
gdb 40336	4.72195	1.33133	1.27216	2.4555	70.92	-0.2206	0.0537	0.2743	1000.4241	0.124286	-400.591425	-400.584675	-400.58373	-400.622926	26.508	
C	 0.3257800557	 1.523496288	 0.2332179724	-0.166926
O	 1.1766280722	 0.4577459031	-0.1842586001	-0.228882
C	-0.204676143	 0.1628562728	 0.0651756631	-0.130472
C	-0.4975762348	-0.6804416906	 1.2390739616	 0.391702
C	-0.2234340351	-2.1742998988	 1.5776077289	-0.176468
C	-1.3550329282	-2.125166787	 2.6136638551	-0.117949
C	 0.0497466241	-1.731543749	 2.9890187908	 0.000563
N	-0.1987072792	-0.2599430644	 2.6537992084	-0.216526
C	-1.5988829177	-0.641774239	 2.2451835297	-0.112019
H	 0.5019140205	 1.8885300187	 1.2422026989	 0.138502
H	 0.1084343332	 2.2757219461	-0.5238415962	 0.112128
H	-0.7744394441	-0.0679446872	-0.8360826792	 0.096393
H	 0.1544985197	-3.0099430186	 1.0070278879	 0.104555
H	-1.9933984129	-2.9190920113	 2.9724920498	 0.101129
H	 0.736410142	-2.0827760258	 3.7480165368	 0.105193
H	-2.4383412924	 0.033439023	 2.3627151922	 0.099075
81.1194	147.5236	189.9766	376.2498	449.0943	608.4098	688.8663	741.5873	775.9697	795.0622	816.1233	843.9572	865.7018	873.8207	897.5229	915.8375	951.5402	981.202	996.8675	1008.55	1022.203	1046.0716	1065.1422	1089.7989	1128.1458	1161.5625	1169.6442	1192.6112	1237.288	1245.761	1283.8445	1341.3307	1374.5548	1462.3543	1518.2313	3089.6871	3100.873	3180.8008	3190.1022	3197.4901	3220.3773	3232.3223
C1OC1C12C3C4C3N1C24	C1O[C@H]1[C@@]12[C@@H]3[C@H]4[C@@H]3N1[C@@H]24	
InChI=1S/C7H7NO/c1-2(9-1)7-4-3-5(4)8(7)6(3)7/h2-6H,1H2	InChI=1S/C7H7NO/c1-2(9-1)7-4-3-5(4)8(7)6(3)7/h2-6H,1H2/t2-,3+,4-,5+,6-,7+,8?/m1/s1
