18
gdb 46102	3.06075	1.11783	0.89639	3.0787	78.8	-0.2554	0.0271	0.2824	1302.3509	0.147559	-401.94175	-401.933091	-401.932147	-401.975727	32.321	
N	 0.0912079703	 1.1692087516	 0.1922051579	-0.540419
C	 0.0566977988	-0.0860433048	 0.0730716011	 0.417981
C	-0.9955762889	-0.8801040822	-0.6713562048	-0.302712
C	-0.8040910742	-2.3049910285	-0.1339841932	-0.251149
C	 0.6790073235	-2.3114300056	 0.2860026471	 0.108043
C	 1.6246936359	-2.8173637987	-0.8205895264	-0.369029
C	 3.0309056924	-2.7675358403	-0.4446025676	 0.304073
C	 4.1869706374	-2.7375859496	-0.1196442171	-0.430847
O	 0.980607178	-0.9430456165	 0.6087602143	-0.236113
H	 0.9134398565	 1.4549915301	 0.7269452478	 0.223496
H	-1.9887692322	-0.4634709374	-0.5033939411	 0.140214
H	-0.7945295111	-0.8189334007	-1.7464940735	 0.134115
H	-1.4353764582	-2.4711346182	 0.7432293659	 0.119075
H	-1.0332347162	-3.0847146684	-0.8636598701	 0.111811
H	 0.8548025057	-2.8931300245	 1.1945871547	 0.103516
H	 1.3427386936	-3.8509947379	-1.0600122707	 0.13415
H	 1.4589905444	-2.2292993578	-1.7325585614	 0.134902
H	 5.2101449343	-2.7031248106	 0.1619489969	 0.198892
60.9498	100.7121	110.5097	158.0155	311.9895	341.4016	381.8978	450.5609	511.249	530.5123	623.4653	644.3924	649.3608	708.0491	811.5799	832.1789	897.5135	908.0311	934.6137	949.2322	1003.344	1009.3113	1056.4129	1085.9724	1101.576	1166.724	1222.52	1241.8027	1273.0252	1296.5967	1315.4302	1335.101	1382.9545	1402.3557	1460.9453	1474.905	1499.199	1780.3616	2244.089	3019.0856	3051.4052	3057.096	3064.2526	3083.3416	3113.8114	3134.3507	3471.768	3507.0861
N=C1CCC(CC#C)O1	[NH][C]1CC[C@@H](CC#C)O1	
InChI=1S/C7H9NO/c1-2-3-6-4-5-7(8)9-6/h1,6,8H,3-5H2	InChI=1S/C7H9NO/c1-2-3-6-4-5-7(8)9-6/h1,6,8H,3-5H2/t6-/m1/s1
