16
gdb 7971	3.91636	1.69647	1.2026	5.6511	70.18	-0.2143	0.0003	0.2146	971.4451	0.131535	-379.975008	-379.966996	-379.966052	-380.007485	29.223	
C	-0.0724258071	 1.3869624517	 0.0582964957	-0.339349
N	-0.013335456	-0.0497216192	 0.0582898274	-0.098971
C	-1.1668019817	-0.9084559741	 0.0845979067	-0.24693
C	-0.5560958905	-2.294272309	 0.0429287953	 0.356676
N	-1.3676426245	-3.3981604063	 0.1201813876	-0.581228
C	 0.7860206624	-2.1975118783	 0.0037320491	-0.357472
C	 1.1747641667	-0.7734965807	 0.0097305481	 0.438737
O	 2.2857162964	-0.2794136235	-0.0251099051	-0.415286
H	 0.9580399153	 1.747527161	 0.0304573134	 0.164699
H	-0.6094064054	 1.7762471921	-0.8177712436	 0.111781
H	-0.5621332897	 1.777280624	 0.9607644751	 0.113444
H	-1.7731514787	-0.7726728158	 0.9935583222	 0.124217
H	-1.8332847015	-0.7389714404	-0.7773401334	 0.111144
H	-2.3106410691	-3.2966419043	-0.2230314929	 0.255202
H	-0.9494743854	-4.2827848018	-0.1245130929	 0.261105
H	 1.5121778386	-2.9958461354	-0.0281936527	 0.10223
62.3131	163.1302	195.4781	212.1788	274.7729	329.0253	363.6251	484.1465	521.6431	547.6756	579.2502	685.2751	736.9208	803.6723	825.042	904.5617	1015.8397	1033.9912	1094.2849	1150.9743	1154.653	1199.4576	1236.3675	1266.7775	1322.9871	1401.5309	1423.4811	1444.9233	1492.5173	1498.623	1530.3972	1645.8656	1701.1842	1797.7632	2968.9612	2995.9804	2998.7641	3038.4687	3133.7699	3246.7422	3575.2848	3678.9795
CN1CC(N)=CC1=O	CN1CC(=CC1=O)N	
InChI=1S/C5H8N2O/c1-7-3-4(6)2-5(7)8/h2H,3,6H2,1H3	InChI=1S/C5H8N2O/c1-7-3-4(6)2-5(7)8/h2H,3,6H2,1H3
