21
gdb 88204	3.45099	1.17618	1.01141	1.7523	78.84	-0.2441	0.0853	0.3294	1247.7831	0.183223	-424.224563	-424.216009	-424.215065	-424.257535	33.216	
C	-0.0257038599	 1.5179347448	-0.1697026	-0.425085
C	-0.0026773745	 0.0336709346	 0.0930720623	 0.004316
O	 1.2637185905	-0.6373720233	 0.000878884	-0.309206
C	 0.5842156261	-0.6185032911	 1.2745905012	 0.396472
C	 1.3000882448	 0.1283561261	 2.3849814602	-0.281095
C	 2.3561454681	-0.7918008524	 3.0149168412	-0.074858
O	 1.7891295482	-2.0088676276	 3.4684005861	-0.248231
C	 1.213941899	-2.7508150155	 2.4055075535	-0.076338
C	 0.0746546887	-1.9742785234	 1.7331536322	-0.274624
H	 0.7754752093	 2.0413310422	 0.3551649364	 0.126519
H	 0.0917437131	 1.7100091615	-1.2414005637	 0.130837
H	-0.9854341505	 1.9442618966	 0.1422898	 0.121999
H	-0.8125805911	-0.5131482484	-0.3975479551	 0.08
H	 1.7800069929	 1.0338125693	 2.0057115034	 0.10343
H	 0.5752218908	 0.420423964	 3.1547677115	 0.105343
H	 3.1499623802	-0.993549965	 2.276886686	 0.100988
H	 2.8144219015	-0.3205738044	 3.8888236415	 0.105616
H	 1.9820909393	-2.9963907688	 1.6538425399	 0.101012
H	 0.8518134073	-3.6856944181	 2.8420841247	 0.105602
H	-0.7394799633	-1.8347960833	 2.4550293642	 0.104497
H	-0.3168234004	-2.5368100878	 0.8796855005	 0.102804
96.7017	155.8055	184.448	194.7781	260.8022	309.3428	392.1196	418.6581	451.3336	500.4426	514.4327	609.09	694.1276	786.4535	812.2002	862.3638	915.4441	921.0062	970.3221	1005.5984	1010.347	1037.2486	1054.2164	1117.1659	1125.1617	1138.4047	1168.0315	1199.328	1245.6452	1253.2766	1270.7174	1312.8833	1341.7178	1358.2475	1382.6488	1391.5206	1409.9341	1420.6787	1455.6686	1466.8285	1471.1799	1490.835	1493.639	1505.4668	1516.303	2973.8004	2977.8097	3031.7217	3037.3796	3039.9038	3067.1304	3087.0012	3088.9681	3090.962	3099.1038	3103.7063	3135.7388
CC1OC11CCOCC1	C[C@H]1OC21CCOCC2	
InChI=1S/C7H12O2/c1-6-7(9-6)2-4-8-5-3-7/h6H,2-5H2,1H3	InChI=1S/C7H12O2/c1-6-7(9-6)2-4-8-5-3-7/h6H,2-5H2,1H3/t6-/m1/s1
