25
gdb 93848	2.13861	1.5149	1.13398	1.2403	87.55	-0.2531	0.0659	0.3191	1243.8475	0.228298	-389.519296	-389.50896	-389.508016	-389.553562	40.32	
C	-0.8688134944	 1.1561608625	-0.0259188088	-0.433821
C	 0.0856107116	-0.0355467948	-0.0563473179	 0.030459
C	 1.1730795413	 0.034011307	-1.1508301561	-0.231416
C	 2.3526081496	-0.8362338444	-0.6281860592	-0.234336
C	 1.9078403949	-1.3692841181	 0.7515622389	 0.051328
C	 3.0444264826	-1.7055416878	 1.7133960719	-0.430564
C	 0.876626594	-0.3285894157	 1.2491779635	 0.355904
C	 1.5221773063	 0.9219237772	 1.8578459623	-0.44804
O	 0.0665121576	-0.9745294342	 2.231653083	-0.487648
H	-0.3339825726	 2.1064719656	 0.0761700901	 0.114538
H	-1.4550393623	 1.20904728	-0.9493405986	 0.115289
H	-1.5818622092	 1.0777590032	 0.8038051306	 0.100264
H	-0.512994621	-0.9411515149	-0.2185758907	 0.076065
H	 0.791512743	-0.3128860653	-2.1154426701	 0.096617
H	 1.4941237247	 1.0710402183	-1.3019091111	 0.093005
H	 2.6019574932	-1.6546108888	-1.3094440539	 0.096868
H	 3.262154401	-0.2335368928	-0.5255213167	 0.093643
H	 1.3186846491	-2.2827629277	 0.5981320385	 0.078834
H	 3.7220201653	-0.8567617866	 1.8564501043	 0.108595
H	 2.6483207215	-1.9974089584	 2.6910046132	 0.125266
H	 3.6430588092	-2.5388978933	 1.3306408614	 0.107975
H	 2.1904751951	 1.4274360202	 1.1535910883	 0.117821
H	 0.7572930541	 1.6471047375	 2.1576401802	 0.105674
H	 2.0982433832	 0.6572756979	 2.7477428595	 0.124698
H	-0.4959371178	-0.3090060065	 2.6408476275	 0.272982
92.2633	116.3521	211.1928	223.084	245.2188	257.1502	264.1849	267.4926	295.6591	323.0113	396.8771	424.4704	485.8893	518.9439	554.7425	606.4959	688.1127	812.2253	833.8598	879.0983	913.485	933.2594	959.4679	995.5883	1003.1121	1040.7839	1060.8184	1088.6814	1115.1494	1127.3311	1148.7291	1174.4308	1211.9897	1241.0102	1255.9698	1300.1224	1307.6578	1326.0865	1348.7294	1354.3483	1390.1915	1391.0166	1405.0987	1411.6063	1419.0441	1485.8007	1488.4856	1494.0246	1497.5183	1503.075	1506.7604	1513.4276	1515.0905	3013.7262	3022.533	3023.2783	3030.7309	3032.9241	3036.3819	3045.6322	3071.7483	3084.5578	3090.973	3093.6465	3098.2751	3099.6993	3107.3602	3123.0071	3812.6056
CC1CCC(C)C1(C)O	C[C@H]1CC[C@@H](C)[C@]1(C)O	
InChI=1S/C8H16O/c1-6-4-5-7(2)8(6,3)9/h6-7,9H,4-5H2,1-3H3	InChI=1S/C8H16O/c1-6-4-5-7(2)8(6,3)9/h6-7,9H,4-5H2,1-3H3/t6-,7+,8+
