17
gdb 35063	2.44354	1.6082	1.52942	3.8474	72.34	-0.2457	0.0097	0.2553	970.3763	0.138177	-417.984942	-417.977409	-417.976465	-418.0171	28.648	
N	-0.2533224748	-1.1615462288	-0.1508070006	-0.346081
C	-0.1409230513	-0.0156214756	-0.0386673071	 0.310163
C	-0.0403571446	 1.4211264882	 0.0175131424	-0.167014
C	 0.505221432	 2.1169771083	 1.2273694644	-0.029241
C	 1.01622225	 1.3537808605	 2.4376557048	-0.126915
O	 1.9485514043	 0.3537717372	 2.0928537196	-0.228174
C	 3.0006489384	 0.8916609263	 1.3086158124	-0.081517
C	 2.4907508157	 1.2769236894	-0.0778535232	-0.170435
N	 1.2670880427	 2.1060871645	-0.0205585411	-0.114562
H	-0.8129751948	 1.9189472594	-0.563864848	 0.136159
H	 0.0608563431	 3.0825490483	 1.4662693066	 0.108266
H	 1.4742089799	 2.0791582959	 3.1313402028	 0.103806
H	 0.1940830753	 0.857673353	 2.9623145637	 0.133255
H	 3.4392556474	 1.7663071049	 1.8167169785	 0.095835
H	 3.7706083091	 0.1196956138	 1.2329472287	 0.123694
H	 3.2532509905	 1.854928445	-0.6110819859	 0.115317
H	 2.293217837	 0.3710745696	-0.659540698	 0.137445
101.5568	121.148	172.6593	299.3587	369.0849	379.801	455.0502	511.1263	568.7801	620.8086	695.2348	755.0792	804.4249	844.3923	883.4173	935.5635	962.195	1017.6749	1052.5374	1087.6568	1102.5231	1132.8895	1155.3531	1163.9357	1260.3171	1272.1227	1305.7982	1328.3723	1359.5383	1374.5022	1380.707	1406.863	1433.8857	1489.6836	1497.0899	1503.366	2349.958	2965.1069	2974.3207	3041.9717	3083.0725	3085.0647	3101.1641	3112.058	3135.5591
N#CC1C2COCCN12	N#C[C@H]1[C@H]2COCCN12	
InChI=1S/C6H8N2O/c7-3-5-6-4-9-2-1-8(5)6/h5-6H,1-2,4H2	InChI=1S/C6H8N2O/c7-3-5-6-4-9-2-1-8(5)6/h5-6H,1-2,4H2/t5-,6+,8?/m0/s1
