20
gdb 81474	2.73273	2.01554	1.65661	1.4516	77.47	-0.1952	0.0565	0.2517	913.932	0.173724	-403.059224	-403.052217	-403.051273	-403.090661	29.125	
C	 0.0360229776	 1.5069995052	-0.3249623414	-0.310228
N	-0.0257642818	 0.1153766538	 0.109348047	-0.031457
C	-1.1676454997	-0.5187453965	 0.8158737963	-0.039381
C	-0.1721752966	-1.6922236335	 1.0484218794	-0.220055
C	 0.8183124781	-0.4975912494	 1.1662268051	-0.03938
C	 0.5455531576	 0.2543011391	 2.5497205782	 0.061956
C	-0.59135796	-0.431731254	 3.3484280907	-0.23265
C	-1.4002861049	 0.2335843168	 2.2064425722	 0.061955
O	-0.4158582966	 1.3134384009	 2.2483150074	-0.27345
H	 0.8310248145	 2.0592564867	 0.183575978	 0.117463
H	 0.2262621015	 1.5455090125	-1.406669021	 0.095037
H	-0.8960650616	 2.0409982388	-0.1208017397	 0.117467
H	-2.0846833106	-0.6662562576	 0.2395686417	 0.064915
H	-0.3118269045	-2.3758295433	 1.881313479	 0.093817
H	-0.0037819241	-2.248632684	 0.1274838105	 0.108667
H	 1.8800215783	-0.6240225138	 0.9389948251	 0.064915
H	 1.4417719868	 0.6255231595	 3.0506559869	 0.076731
H	-0.6103359193	-1.5056251133	 3.5208086755	 0.099783
H	-0.7626730134	 0.0982838415	 4.2875277512	 0.107165
H	-2.4212684812	 0.5843977105	 2.369153208	 0.076731
63.9694	212.865	268.9448	369.9769	470.977	497.9594	546.9974	600.5138	661.3127	694.4044	729.6204	768.9754	855.8541	871.3123	879.1287	881.3692	914.8975	920.7298	948.1275	1021.7257	1030.7399	1061.8447	1070.899	1086.8496	1110.6938	1134.2434	1136.5605	1197.0586	1225.1294	1227.1792	1231.8005	1245.2408	1273.7481	1296.6181	1299.1644	1305.6904	1315.9306	1349.9827	1442.8846	1479.9233	1486.0599	1507.7029	1537.6554	2998.8087	3068.3688	3071.5629	3071.7346	3080.2975	3094.2322	3098.2295	3109.5061	3111.1054	3144.0519	3175.0176
CN1C2CC1C1CC2O1	CN1[C@H]2C[C@@H]1[C@@H]1C[C@H]2O1	
InChI=1S/C7H11NO/c1-8-4-2-5(8)7-3-6(4)9-7/h4-7H,2-3H2,1H3	InChI=1S/C7H11NO/c1-8-4-2-5(8)7-3-6(4)9-7/h4-7H,2-3H2,1H3/t4-,5+,6+,7-
