23
gdb 119156	2.89258	0.95291	0.796	1.6492	85.91	-0.2586	0.0883	0.3469	1543.2539	0.204505	-388.257037	-388.247025	-388.246081	-388.293342	36.87	
C	 0.2078431743	 1.6754540853	-0.3507688855	-0.3787
C	-0.0267919242	 0.1784677337	-0.1213974844	-0.196551
C	 0.8461179722	-0.3706724017	 1.0121867319	-0.237263
C	 0.7579023516	-1.8649113335	 1.3246750795	 0.320755
C	-0.5281102006	-2.627153263	 1.1265595342	-0.309001
C	 0.6482172696	-2.8900837337	 0.2175674992	-0.301207
C	 1.665753538	-2.2232877192	 2.4658670355	 0.016323
O	 1.2917270182	-1.779766006	 3.7786246051	-0.24226
C	 1.3647342433	-3.1832958537	 3.5353241254	-0.182848
H	 1.2492315612	 1.8754252538	-0.6263694039	 0.114566
H	-0.4293054211	 2.0595419371	-1.1533344545	 0.110603
H	-0.0100433288	 2.2524998647	 0.5545223868	 0.117784
H	-1.0861573925	 0.0150307671	 0.1089307138	 0.102273
H	 0.1756515102	-0.3619188179	-1.0542080231	 0.097882
H	 1.8971127519	-0.1338051161	 0.7890035276	 0.091862
H	 0.60804697	 0.1729128398	 1.9359070062	 0.115996
H	-0.8057065515	-3.3930153283	 1.8406599389	 0.110266
H	-1.3754443747	-2.0928597467	 0.7133202642	 0.114894
H	 0.5921381568	-2.546041997	-0.8089141966	 0.113688
H	 1.1857172292	-3.8244704972	 0.3426381935	 0.109277
H	 2.7238343513	-2.0517259408	 2.2499232308	 0.088281
H	 0.4126787181	-3.7093347324	 3.5560804761	 0.113775
H	 2.1849347273	-3.7045413744	 4.0292162794	 0.109606
33.9632	41.9308	108.2454	143.778	225.2195	251.5541	276.6574	315.5028	321.8458	386.6956	475.4337	551.6674	694.4317	747.3292	778.6738	833.8373	845.1301	859.2831	918.9259	928.2672	952.3273	960.9811	984.8366	1048.0132	1054.3671	1063.2159	1084.1243	1097.3686	1115.2264	1157.8326	1161.2949	1173.2029	1187.4895	1241.3433	1278.3472	1300.673	1318.6916	1336.7839	1356.3528	1406.4072	1413.5832	1440.1168	1467.2618	1485.0558	1492.6487	1500.6626	1506.9138	1513.3439	1530.4812	2997.0759	3027.1423	3030.856	3038.4888	3065.0197	3069.2371	3081.9566	3099.7227	3103.7589	3132.2753	3147.189	3165.9216	3212.1063	3229.4471
CCCC1(CC1)C1OC1	CCCC1(CC1)[C@H]1OC1	
InChI=1S/C8H14O/c1-2-3-8(4-5-8)7-6-9-7/h7H,2-6H2,1H3	InChI=1S/C8H14O/c1-2-3-8(4-5-8)7-6-9-7/h7H,2-6H2,1H3/t7-/m0/s1
