17
gdb 127429	2.37803	1.60839	0.97342	2.0251	72.77	-0.2018	0.0419	0.2436	1184.6407	0.134623	-455.162104	-455.152303	-455.151358	-455.196982	34.349	
C	-0.0266882146	 1.4008122543	-0.0660497174	-0.325158
N	-0.0229201687	-0.0413679445	 0.0079167651	-0.029574
N	-0.041250912	-0.7970722309	-1.1275935179	-0.353353
C	 0.0189838234	-2.0634338813	-0.716851894	 0.286709
C	-0.0035413008	-3.1961800459	-1.6909347211	-0.497453
C	 0.1032978339	-2.1266268814	 0.6927945428	-0.025564
O	 0.1058353978	-3.2044317097	 1.5542282439	-0.454714
C	 0.075230525	-0.8122894844	 1.1112240021	 0.403762
O	 0.1100600257	-0.2714091496	 2.3479189309	-0.443538
H	 0.9871081381	 1.8025049343	-0.1760376979	 0.136206
H	-0.6212946297	 1.696061142	-0.9315814249	 0.152858
H	-0.4715042714	 1.8071704171	 0.8443277432	 0.148942
H	 0.934852186	-3.7643519405	-1.6798266374	 0.116362
H	-0.8101395899	-3.9016372859	-1.4629819674	 0.131135
H	-0.1524032481	-2.809192908	-2.7011270545	 0.142143
H	 0.9089996438	-3.7169538716	 1.4129452501	 0.298859
H	 0.1059309415	-1.008884744	 2.9713296644	 0.312377
61.3308	97.8281	134.256	170.0385	212.4206	227.3053	266.763	278.361	319.2285	366.893	385.3469	575.7706	598.8844	619.3935	656.6675	698.7254	762.1328	926.0818	1002.3423	1061.0044	1063.0342	1120.1437	1152.5766	1228.16	1275.8863	1304.5514	1339.5053	1407.7827	1431.1194	1451.1953	1481.5768	1486.982	1497.886	1507.2684	1524.3278	1613.0907	1661.8295	3025.6773	3036.214	3076.6371	3113.2659	3131.7151	3155.2728	3792.232	3794.0075
CN1N=C(C)C(O)=C1O	Cn1nc(C)c(O)c1O	
InChI=1S/C5H8N2O2/c1-3-4(8)5(9)7(2)6-3/h8-9H,1-2H3	InChI=1S/C5H8N2O2/c1-3-4(8)5(9)7(2)6-3/h8-9H,1-2H3
