15
gdb 99435	3.27703	0.72829	0.61337	4.9405	84.39	-0.304	-0.0604	0.2436	1725.2963	0.111528	-379.67167	-379.662196	-379.661252	-379.706936	32.474	
C	 0.0277495263	 1.5508343258	 0.0247130718	-0.403872
C	 0.0071335631	 0.0228669752	 0.0102345463	-0.177739
C	-1.439598398	-0.5588029174	-0.0184899697	-0.354791
C	-2.1656692518	-0.1257188637	-1.2240786564	 0.304047
N	-2.7190395074	 0.2399798146	-2.1693013169	-0.311147
C	-1.436767434	-2.0160496268	 0.0851279484	 0.086919
C	-1.401982301	-3.2169286888	 0.1944735763	 0.115888
C	-1.3633178809	-4.5768998991	 0.3179682897	 0.211808
N	-1.3272152711	-5.7323750975	 0.4267962226	-0.324778
H	 1.0591575062	 1.9117088942	 0.0533715245	 0.133667
H	-0.4499453681	 1.9652848312	-0.867655811	 0.152897
H	-0.4903869187	 1.9484959968	 0.90388674	 0.126577
H	 0.5497560161	-0.3664919921	-0.8560813865	 0.138878
H	 0.4932401223	-0.3804660008	 0.9035824056	 0.130214
H	-1.9852377328	-0.1554856115	 0.8468526453	 0.171433
66.2101	74.5483	110.3038	159.908	205.4709	218.9954	265.6344	327.6739	370.8744	448.1712	523.1181	554.6524	577.4021	590.5204	751.9355	799.8072	868.3686	946.1214	1041.0376	1095.936	1107.9136	1183.0429	1255.7036	1295.1167	1335.5739	1364.4457	1418.6396	1487.2086	1498.3099	1504.9221	2272.9233	2366.8708	2409.3344	3013.6699	3042.0534	3060.3914	3097.932	3118.3707	3126.1854
CCC(C#N)C#CC#N	CC[C@@H](C#N)C#CC#N	
InChI=1S/C7H6N2/c1-2-7(6-9)4-3-5-8/h7H,2H2,1H3	InChI=1S/C7H6N2/c1-2-7(6-9)4-3-5-8/h7H,2H2,1H3/t7-/m1/s1
