15
gdb 31067	2.3951	1.42892	0.91237	2.4043	65.21	-0.1805	0.0364	0.2169	1214.7657	0.112288	-491.097668	-491.088885	-491.087941	-491.131326	31.663	
C	 0.1278147789	 1.448192974	 0.030926985	-0.324264
N	-0.2816163145	 0.0700083163	-0.225271297	-0.396879
C	 0.4568953977	-0.6626105488	-1.1431755282	 0.239802
C	 0.7070589983	-1.9938722591	-1.1711000245	 0.202575
O	 0.493262206	-3.0121349999	-0.3166486173	-0.419568
O	 1.4349203597	-2.2574663074	-2.3474727917	-0.22556
C	 1.5527748725	-1.042871651	-2.9081357149	 0.477154
O	 2.2095327389	-0.9630997506	-4.0664531757	-0.404379
N	 1.0136166496	-0.0593220987	-2.2744075462	-0.394361
H	 1.1164737487	 1.5347982311	 0.5073339181	 0.10871
H	 0.1609469483	 1.9896298083	-0.9154438124	 0.160973
H	-0.6161459588	 1.9198782107	 0.6779148424	 0.117557
H	-0.437847633	-0.4586326146	 0.6225029835	 0.23643
H	-0.2694199923	-3.5332336732	-0.6019986457	 0.306367
H	 2.5292295399	-1.8441940372	-4.2944652855	 0.315443
70.7269	143.5755	178.3212	210.2499	248.9026	292.3904	318.2586	340.7371	383.3581	406.7555	574.7351	625.3643	662.6987	677.4399	713.8431	744.2124	856.0636	1014.9531	1040.782	1113.7295	1155.4293	1159.7072	1226.3575	1235.4928	1288.7102	1408.3207	1431.3072	1467.9793	1481.4457	1497.0185	1524.1622	1701.7762	1756.592	2985.7749	3091.5274	3145.8219	3578.3628	3715.8998	3820.1685
CNC1=C(O)OC(O)=N1	CNc1c(O)oc(O)n1	
InChI=1S/C4H6N2O3/c1-5-2-3(7)9-4(8)6-2/h5,7H,1H3,(H,6,8)	InChI=1S/C4H6N2O3/c1-5-2-3(7)9-4(8)6-2/h5,7H,1H3,(H,6,8)
