17
gdb 85089	1.92367	1.63234	1.19123	3.1624	75.48	-0.2371	-0.028	0.2091	1110.0433	0.131878	-421.794899	-421.785251	-421.784307	-421.829244	35.376	
C	-0.1159852201	 1.5122783375	 0.0486718799	-0.423997
C	-0.0726270379	-0.026951477	-0.0311027439	-0.034062
C	-1.3768374978	-0.6231528102	 0.1704998596	 0.278295
C	-2.4493832988	-1.1395992003	 0.3413178817	-0.444672
C	 0.7512581832	-0.5667553462	-1.263411084	 0.085857
O	 0.9001077865	 0.392235132	-2.2779493262	-0.423297
C	 1.9809896464	-0.8481638879	-0.3457108027	-0.400382
C	 1.0768944013	-0.5932032576	 0.8650893638	 0.385941
O	 1.17429119	-0.7894355505	 2.0377152599	-0.288526
H	 0.8807263405	 1.9424255451	-0.0755574342	 0.125187
H	-0.7566875386	 1.9070616193	-0.7422642913	 0.143805
H	-0.5150363557	 1.8143865084	 1.0193782438	 0.13941
H	-3.3986828394	-1.5891838244	 0.4971917017	 0.197017
H	 0.3062556691	-1.4939418712	-1.6414645613	 0.092884
H	 1.354204841	-0.0164451163	-3.0211163756	 0.292791
H	 2.4528881959	-1.8321191314	-0.3939264231	 0.133015
H	 2.7499987542	-0.0749498093	-0.4473815482	 0.140735
63.7875	113.7489	154.9629	205.4333	214.1577	216.6025	254.5102	322.2406	394.369	467.516	482.5063	520.1476	602.8565	618.4157	623.4065	636.9143	687.8481	813.2362	858.7927	939.2655	960.3725	1031.9626	1083.714	1116.1093	1122.8935	1159.947	1204.7125	1209.213	1260.7094	1310.2089	1399.9177	1416.888	1438.5166	1483.6254	1490.6956	1899.4295	2231.6024	3040.5325	3054.4629	3057.4156	3121.2278	3133.0402	3141.4425	3502.0132	3826.2338
CC1(C#C)C(O)CC1=O	C[C@@]1(C#C)[C@@H](O)CC1=O	
InChI=1S/C7H8O2/c1-3-7(2)5(8)4-6(7)9/h1,5,8H,4H2,2H3	InChI=1S/C7H8O2/c1-3-7(2)5(8)4-6(7)9/h1,5,8H,4H2,2H3/t5-,7+/m0/s1
