20
gdb 55628	2.70036	1.12637	0.9682	1.0753	82.89	-0.2575	0.0274	0.2849	1324.2292	0.166446	-403.129146	-403.118451	-403.117507	-403.1645	39.292	
C	-0.0015209001	 1.4781609556	-0.2299865867	-0.455639
C	 0.0488601813	 0.0126670763	 0.1323253665	 0.405386
N	 0.1420282281	-0.496459724	 1.293131681	-0.518387
O	-0.0219594809	-0.7167088691	-0.9993206256	-0.287568
C	 0.0017268322	-2.1792224744	-1.0021988625	 0.170915
C	 1.3324540129	-2.7103474936	-0.4426659645	-0.418047
C	-1.2155333038	-2.7519824295	-0.2563897618	-0.418047
C	-0.0970265382	-2.5170385805	-2.4285051639	 0.355099
C	-0.1760828923	-2.8408079095	-3.5823079238	-0.473533
H	 0.0529690902	 2.1039000044	 0.6623487482	 0.123657
H	 0.8285169554	 1.7284812309	-0.8972655456	 0.147967
H	-0.9268991558	 1.6996669776	-0.7698849276	 0.147965
H	 0.1814320234	 0.2377984506	 1.9960372748	 0.218728
H	 1.4083567951	-2.4861510308	 0.6205241653	 0.154896
H	 1.3786318366	-3.7919661375	-0.5948749558	 0.12361
H	 2.1702160736	-2.2531858882	-0.9750603083	 0.123846
H	-2.1362103688	-2.3235388984	-0.66021563	 0.123847
H	-1.2481880691	-3.8348863298	-0.4028541229	 0.123609
H	-1.1432813296	-2.5278637164	 0.8070710545	 0.154897
H	-0.2463075704	-3.1183767839	-4.6050169214	 0.196798
75.4748	108.853	122.6794	130.0391	188.9206	242.2764	247.2538	253.9814	310.0584	382.9279	387.6962	396.1252	555.404	556.0342	579.4597	601.7699	619.6023	669.5781	741.5473	833.4853	842.5564	936.6461	944.5741	961.1493	1025.4255	1046.7387	1066.845	1113.6565	1176.9521	1190.7593	1267.8759	1376.3038	1385.8276	1404.1145	1416.1828	1470.0488	1471.7712	1481.3871	1491.2	1494.1354	1512.8031	1718.8736	2241.742	3049.3237	3054.1833	3057.9558	3114.7392	3124.8566	3127.964	3142.2491	3165.3363	3167.8546	3502.6511	3513.4708
CC(=N)OC(C)(C)C#C	C[C]([NH])OC(C)(C)C#C	
InChI=1S/C7H11NO/c1-5-7(3,4)9-6(2)8/h1,8H,2-4H3	InChI=1S/C7H11NO/c1-5-7(3,4)9-6(2)8/h1,8H,2-4H3
