18
gdb 11115	6.22858	1.00414	0.95744	3.7111	74.08	-0.2341	0.0242	0.2583	1240.2915	0.154218	-343.977789	-343.969527	-343.968583	-344.010838	29.822	
C	 0.0088736646	 1.5358811477	-0.0055952171	-0.38295
C	 0.0349941154	 0.011523473	 0.0731471421	-0.123028
N	-1.3042332235	-0.5455926447	 0.1338500814	-0.071282
C	-2.0924757913	-0.3634137646	 1.3676314019	-0.177124
C	-2.6737030134	-1.7918568807	 1.1528431426	-0.154002
C	-1.4449771081	-2.0090790906	 0.2216824146	-0.178417
C	-2.8307800109	-2.6559556285	 2.3062493132	 0.267521
N	-2.9469570611	-3.3433049988	 3.2287725569	-0.325351
H	 1.025218995	 1.9343974565	-0.0733200855	 0.119425
H	-0.556362454	 1.8668973382	-0.8813853726	 0.12796
H	-0.4586055839	 1.9707521839	 0.8842577333	 0.121206
H	 0.5223413304	-0.399103598	-0.8196283728	 0.107201
H	 0.6422878486	-0.309014855	 0.9429966126	 0.079498
H	-1.4775118546	-0.3145510173	 2.2804632028	 0.107465
H	-2.8004591519	 0.4694676523	 1.3614835677	 0.120485
H	-3.6040311685	-1.7604704533	 0.5825586477	 0.134753
H	-1.6184462983	-2.5236537534	-0.7277852072	 0.118856
H	-0.6190299346	-2.5012049967	 0.7590020884	 0.107783
69.8986	96.7978	182.9346	216.1652	223.3955	284.5873	362.9257	413.9638	527.3203	558.9254	606.1177	757.3298	811.057	898.7326	938.923	977.0934	993.7948	1046.3288	1067.0515	1099.7091	1125.3628	1136.4818	1178.8403	1210.2797	1229.2073	1239.0281	1282.0923	1315.8997	1337.298	1360.3804	1396.0153	1414.8039	1489.8572	1492.9503	1503.8597	1509.5869	1531.1632	2357.3546	2907.9177	2976.877	2986.8201	3039.698	3046.1897	3077.5413	3083.3405	3102.4408	3107.9894	3121.4715
CCN1CC(C1)C#N	CCN1CC(C1)C#N	
InChI=1S/C6H10N2/c1-2-8-4-6(3-7)5-8/h6H,2,4-5H2,1H3	InChI=1S/C6H10N2/c1-2-8-4-6(3-7)5-8/h6H,2,4-5H2,1H3
