14
gdb 13152	4.43031	1.43944	1.2083	4.0198	64.68	-0.252	-0.062	0.19	974.6237	0.10525	-382.488197	-382.480294	-382.479349	-382.52175	27.227	
O	 0.1924291174	-0.1013559464	 0.0380939292	-0.268095
C	 0.0831077317	 1.1015294457	 0.027682164	 0.219142
C	 1.2312013586	 1.9955105959	 0.081477179	 0.256107
C	 2.1597689692	 2.7607312921	 0.1233598083	-0.428251
C	-1.2532793981	 1.8274795348	-0.081608477	 0.032518
C	-1.6165013571	 2.2785773983	-1.524744831	-0.289036
C	-2.7598028957	 1.2520699419	-1.3785312356	-0.062511
O	-2.3781862743	 0.953123857	-0.0172042405	-0.262138
H	 2.9929270444	 3.420124636	 0.1625980194	 0.218276
H	-1.2899961119	 2.6196885376	 0.6785285194	 0.103
H	-1.9286003661	 3.3195451844	-1.6074926635	 0.124167
H	-0.8704134271	 2.0606857989	-2.2900096846	 0.126729
H	-3.7763579503	 1.6563089995	-1.4348061182	 0.111101
H	-2.6841924308	 0.3688932743	-2.0224546989	 0.11899
38.5324	71.4198	129.7298	198.7466	265.9361	298.085	467.6375	584.1714	657.4188	702.0338	716.3329	763.032	808.1603	842.8593	943.0302	962.3319	1032.9134	1046.9622	1083.5466	1136.4968	1162.5095	1209.2671	1246.8863	1255.9072	1342.2444	1369.1182	1490.3636	1528.412	1784.3078	2208.1939	3014.9753	3032.1322	3076.2805	3089.2128	3147.4686	3492.9643
O=C(C#C)C1CCO1	O=C(C#C)[C@H]1CCO1	
InChI=1S/C6H6O2/c1-2-5(7)6-3-4-8-6/h1,6H,3-4H2	InChI=1S/C6H6O2/c1-2-5(7)6-3-4-8-6/h1,6H,3-4H2/t6-/m1/s1
