23
gdb 108245	2.36059	1.29323	1.2817	1.4014	85.15	-0.2568	0.0703	0.3271	1194.1746	0.205037	-388.267902	-388.258236	-388.257292	-388.303026	36.695	
C	-0.2599455123	 1.5400755184	 0.0688926057	-0.496188
C	-0.0048566288	 0.0478006521	 0.0241742194	 0.312214
C	 1.104251927	-0.4522568989	-0.9505039677	-0.279127
C	 1.8187014963	-1.1983675091	 0.2152220611	-0.272102
C	 0.6825270526	-0.7893169318	 1.1858022912	 0.36878
C	 1.073055313	-0.205319281	 2.5188551251	-0.193479
O	 1.6361221972	-1.2532482749	 3.3018907741	-0.426171
C	-0.5273633565	-1.7660501681	 1.1710762617	-0.274759
C	-1.2338245527	-0.8993793135	 0.0868595393	-0.276332
H	 0.6699609514	 2.108991959	 0.1831424129	 0.110007
H	-0.7359801584	 1.8760533625	-0.861321575	 0.115208
H	-0.9262555179	 1.8146417055	 0.8946811327	 0.109625
H	 0.7429394868	-1.0839624288	-1.7675268521	 0.093074
H	 1.6982808047	 0.3549405222	-1.3883944303	 0.094031
H	 1.9697463639	-2.273648198	 0.089389251	 0.097311
H	 2.781329951	-0.7522283178	 0.4804972622	 0.096125
H	 1.7984105796	 0.6128608258	 2.374203707	 0.077696
H	 0.1878075461	 0.2264839712	 3.0156669864	 0.077386
H	 1.8883353394	-0.8885519323	 4.1553228861	 0.285758
H	-0.2827996864	-2.7893621363	 0.8746006512	 0.097108
H	-1.0629182076	-1.8128503784	 2.1225310726	 0.100093
H	-2.1323066337	-0.399849157	 0.4618945296	 0.092463
H	-1.4940101443	-1.4011581709	-0.8502351244	 0.09128
25.6599	87.0507	137.3753	224.5299	243.0351	261.0496	304.229	328.1053	359.8972	373.0829	484.6236	579.2671	619.3505	718.0645	751.5625	759.2412	855.1462	900.7884	941.0227	945.9761	950.3372	963.322	970.8167	1001.3576	1036.7249	1047.2328	1088.1004	1156.6532	1184.6895	1207.7229	1213.8257	1230.3125	1238.4269	1247.154	1253.4433	1266.6804	1268.6682	1307.2462	1312.7157	1339.427	1408.2243	1459.5851	1471.699	1481.7435	1485.5671	1491.771	1493.7069	1501.4538	1520.5428	2948.813	2975.7032	3012.8565	3039.9617	3044.1991	3053.2249	3058.3724	3073.7757	3081.3203	3085.7165	3087.4615	3105.601	3111.2137	3824.5875
CC12CCC1(CO)CC2	C[C@@]12CC[C@]1(CO)CC2	
InChI=1S/C8H14O/c1-7-2-4-8(7,6-9)5-3-7/h9H,2-6H2,1H3	InChI=1S/C8H14O/c1-7-2-4-8(7,6-9)5-3-7/h9H,2-6H2,1H3/t7-,8+
