20
gdb 107850	3.46998	1.42369	1.35897	1.7691	77.97	-0.221	0.0825	0.3035	1042.8034	0.172768	-403.08431	-403.076824	-403.075879	-403.116267	30.083	
C	-0.0488353305	 1.3342638041	 0.0395231483	-0.264796
O	-0.0678605301	-0.0743239395	-0.0833292217	-0.30469
C	 0.6510397593	-0.5647380908	-1.1618936602	 0.416659
C	 2.1938907984	-0.516458597	-1.2974462041	-0.232116
N	 2.0515864892	-1.7446187304	-2.150954718	-0.155393
C	 0.9524692145	-1.4345752773	-3.2084347552	 0.00452
C	 0.1313985904	-2.5998517902	-2.6130858058	-0.241372
C	 0.8150021234	-2.1234481667	-1.3345483101	-0.052917
C	 0.2476906149	-0.1993812888	-2.6149333023	-0.290147
H	 0.9760565447	 1.7205181259	 0.1395122929	 0.112085
H	-0.52439916	 1.8276608958	-0.8199962629	 0.112328
H	-0.6083209302	 1.5843885354	 0.9435226263	 0.129968
H	 2.6715739149	 0.349377899	-1.7671152276	 0.093705
H	 2.7242978204	-0.7922954569	-0.3814657836	 0.108979
H	 1.2761861851	-1.4127822076	-4.2482544575	 0.074156
H	-0.9567346421	-2.5622611995	-2.697613001	 0.098743
H	 0.5128845532	-3.5776931618	-2.9135128786	 0.114113
H	 0.951447757	-2.7198498809	-0.4319692391	 0.079834
H	-0.8319164866	-0.204236381	-2.786216753	 0.101674
H	 0.6574318641	 0.7584744682	-2.9457476967	 0.094668
76.6419	172.3721	204.012	302.3951	370.2718	440.5009	477.3816	484.096	618.7966	650.3979	746.3095	783.5696	818.4062	876.995	888.8189	924.723	954.7336	975.3125	992.9386	1015.5386	1016.6643	1041.9899	1059.2931	1099.6298	1135.0163	1159.6506	1179.027	1181.4596	1184.7067	1204.5408	1229.7558	1236.399	1248.3383	1266.124	1288.1295	1301.9028	1352.9951	1480.6875	1484.0086	1488.4455	1496.1102	1506.8184	1518.6902	2987.9901	3037.0995	3043.0888	3059.0265	3070.9997	3103.4653	3108.2436	3115.5319	3120.2493	3122.2066	3133.9811
COC12CN3C(CC13)C2	CO[C@@]12CN3[C@@H](C[C@H]13)C2	
InChI=1S/C7H11NO/c1-9-7-3-5-2-6(7)8(5)4-7/h5-6H,2-4H2,1H3	InChI=1S/C7H11NO/c1-9-7-3-5-2-6(7)8(5)4-7/h5-6H,2-4H2,1H3/t5-,6+,7-/m0/s1
