20
gdb 31616	2.87472	1.19903	0.90172	1.5775	85.17	-0.1651	0.0546	0.2197	1334.4357	0.171745	-399.344841	-399.334891	-399.333947	-399.379838	36.249	
C	-0.7528359667	 0.8395227676	-0.0140151464	-0.324773
N	 0.5180735948	 0.1208517923	-0.1712761055	-0.383768
C	 0.9859214869	-0.5431622795	 0.9808883485	 0.291769
C	 1.7845590724	-0.1147717837	 2.0255236398	-0.313669
C	 1.9618520302	-1.2178787998	 2.907416832	 0.25329
N	 2.7802181678	-1.2252770731	 4.0566675722	-0.607282
C	 1.2559531013	-2.2775857884	 2.3792346978	-0.190117
N	 0.6748111713	-1.8640851907	 1.1929288457	-0.010392
C	-0.1252041078	-2.6922501595	 0.3208273021	-0.340409
H	-0.7350516952	 1.5938150139	 0.7873556215	 0.108726
H	-1.0058872537	 1.3324915906	-0.957755972	 0.114587
H	-1.5491563413	 0.1254112742	 0.2158421759	 0.126214
H	 1.2310585139	 0.7520736152	-0.5154081018	 0.231946
H	 2.2030125472	 0.874871068	 2.1360827306	 0.075165
H	 2.7171334971	-0.3545045444	 4.5701203184	 0.235624
H	 2.543883125	-1.9823386798	 4.6862912466	 0.232992
H	 1.1254938572	-3.2869477453	 2.7354913222	 0.094553
H	-0.188981606	-2.201501542	-0.6516790709	 0.154027
H	 0.3451732797	-3.6726198552	 0.1980225057	 0.12937
H	-1.139921064	-2.8419536306	 0.7113600578	 0.122146
51.3979	126.4227	137.9471	167.7033	181.4007	186.1568	279.537	291.1445	313.5518	412.1806	503.5008	582.5511	612.987	633.8966	655.5371	678.1582	739.261	777.5165	791.0132	821.2193	1008.9578	1035.85	1071.1325	1105.7804	1141.1013	1154.3923	1158.278	1187.0378	1227.7219	1255.4949	1374.5506	1422.0673	1446.1427	1452.6267	1453.7168	1486.9603	1494.3777	1504.602	1512.2945	1528.9325	1557.89	1629.4921	1657.24	2986.3493	3016.3065	3072.3343	3080.1803	3109.4924	3141.2445	3235.0977	3254.6353	3522.3973	3550.0073	3609.3884
CNC1=CC(N)=CN1C	CNc1cc(N)cn1C	
InChI=1S/C6H11N3/c1-8-6-3-5(7)4-9(6)2/h3-4,8H,7H2,1-2H3	InChI=1S/C6H11N3/c1-8-6-3-5(7)4-9(6)2/h3-4,8H,7H2,1-2H3
