15
gdb 131346	4.28607	1.09008	0.92648	2.1425	68.34	-0.2311	0.0011	0.2322	1209.8467	0.11579	-450.127905	-450.120397	-450.119452	-450.160489	27.924	
O	 0.1404572459	 1.2686721899	-0.0899322175	-0.407676
C	 0.0772933249	-0.0667578721	-0.0322412515	 0.424266
N	-0.1260676327	-0.7915332462	-1.116273141	-0.285219
N	-0.1161377301	-2.0525933431	-0.5856641952	-0.268862
C	 0.0904907502	-2.0184890154	 0.7415383287	 0.418038
N	 0.2153129132	-0.7552436553	 1.1328348423	-0.42637
C	 0.1482026779	-3.1994581238	 1.6150624289	-0.122472
C	 1.1265903396	-3.2103728519	 2.7428907156	-0.227002
N	-0.3040017321	-3.0596726072	 3.0113561348	-0.308793
H	 0.2930595312	 1.5786765837	 0.8103782181	 0.311223
H	-0.2536146007	-2.8456299612	-1.1896977973	 0.281209
H	-0.1249513544	-4.1394661569	 1.1425207845	 0.096682
H	 1.5592881922	-4.1557788316	 3.0575401571	 0.126515
H	 1.7701780534	-2.3411664485	 2.838324066	 0.136527
H	-0.5107001685	-2.0748691405	 3.1728614965	 0.251933
64.01	148.535	156.446	317.2852	388.6902	393.9861	430.9881	474.4635	526.3143	660.315	730.4044	774.4222	782.823	830.2776	892.3931	973.8903	1000.0778	1032.2939	1073.305	1120.1031	1134.5806	1158.0985	1187.8683	1210.2114	1259.9801	1290.1816	1310.5895	1403.5705	1429.1512	1489.2735	1508.806	1588.7234	1637.8015	3115.5484	3141.6597	3210.4388	3487.111	3670.5304	3820.6336
OC1=NNC(=N1)C1CN1	Oc1n[nH]c(n1)[C@H]1CN1	
InChI=1S/C4H6N4O/c9-4-6-3(7-8-4)2-1-5-2/h2,5H,1H2,(H2,6,7,8,9)	InChI=1S/C4H6N4O/c9-4-6-3(7-8-4)2-1-5-2/h2,5H,1H2,(H2,6,7,8,9)/t2-/m1/s1
