17
gdb 23281	3.04597	1.25017	1.13029	2.2289	78.22	-0.2192	0.0001	0.2194	1146.3111	0.135973	-417.908754	-417.900672	-417.899728	-417.941324	31.047	
C	 0.0896895349	 1.4204520309	 0.0531283481	-0.513661
C	-0.0060324694	-0.063513388	 0.0085309086	 0.327655
C	-0.027417444	-0.9371409992	-1.0118844721	-0.199496
C	-0.0132567039	-2.3051392223	-0.3030457978	-0.147654
N	-0.9520235715	-2.1044733474	 0.862525768	-0.300665
C	 0.0122723224	-1.0090893654	 1.2382135726	-0.191675
C	 1.0783605595	-1.9952105792	 0.7432898315	 0.538731
N	 2.2342993405	-2.3178316217	 1.1127160194	-0.315534
O	 2.7825508157	-3.3178352711	 0.2746398205	-0.399602
H	 1.0202294628	 1.736898322	 0.5416489151	 0.141209
H	 0.0722608218	 1.8534129255	-0.9507974186	 0.131583
H	-0.7318770583	 1.8605360991	 0.6320201313	 0.130576
H	 0.0278241952	-0.7577553251	-2.0764237951	 0.110922
H	-0.0712896401	-3.2293206554	-0.8718244826	 0.093095
H	-1.8401019614	-1.7090023658	 0.5420171146	 0.204009
H	-0.0219968658	-0.599042389	 2.246091506	 0.084191
H	 3.6362007517	-3.4763894678	 0.6912224305	 0.306316
96.1944	158.9827	185.5118	237.9149	278.6514	323.7272	394.9901	464.3893	519.1763	576.7324	649.0789	682.9776	735.7104	791.4232	828.512	854.9351	887.8097	917.9892	953.8353	997.4233	1026.2496	1061.1972	1086.5158	1107.061	1133.3075	1177.7012	1222.4544	1233.6181	1268.5551	1278.3522	1325.1827	1406.5256	1413.4407	1477.4284	1483.9158	1666.5449	1822.7111	3017.7994	3064.6817	3110.4626	3141.3415	3162.4697	3232.9493	3408.4073	3820.4963
CC1=CC2NC1C2=NO	CC1=C[C@@H]2N[C@H]1C2=NO	
InChI=1S/C6H8N2O/c1-3-2-4-6(8-9)5(3)7-4/h2,4-5,7,9H,1H3	InChI=1S/C6H8N2O/c1-3-2-4-6(8-9)5(3)7-4/h2,4-5,7,9H,1H3/t4-,5+/m0/s1
