13
gdb 46182	1.90187	1.67203	1.29387	3.5086	70.28	-0.2677	-0.0111	0.2566	1034.6301	0.086278	-419.366455	-419.358002	-419.357058	-419.399709	30.629	
O	-0.0834313029	 0.0823105919	-0.3034526708	-0.302836
C	-0.0281952699	 1.2236965196	-0.0029218587	 0.450476
O	-0.9979524509	 2.024364215	 0.5195747932	-0.232573
C	-0.1270958173	 3.1927117686	 0.5756270503	-0.09638
C	 1.0584222126	 2.3681053577	-0.020180282	-0.238728
C	 2.169958337	 2.1274264714	 0.886104317	 0.272293
C	 3.0660628953	 1.9195338332	 1.6575054425	-0.41876
C	 1.4761839944	 2.7522633109	-1.3590963216	 0.272294
C	 1.7894631423	 3.0692771458	-2.473834296	-0.418765
H	-0.4996398867	 3.9908919979	-0.0661021725	 0.145509
H	 0.0161709331	 3.5263317857	 1.6031826499	 0.14551
H	 3.8680067236	 1.7329709809	 2.328719957	 0.21098
H	 2.0798256095	 3.3434498512	-3.4581956984	 0.21098
110.8356	118.591	118.7283	152.1639	245.8869	371.5425	381.8519	460.1041	542.0468	573.1695	639.9769	643.1041	655.7524	659.4649	661.9947	732.2372	781.1862	913.6273	936.1009	992.5135	1098.6688	1151.3225	1157.7206	1217.8207	1335.819	1509.3375	1958.8781	2242.8978	2247.0532	3092.1631	3166.9078	3500.6953	3501.5869
O=C1OCC1(C#C)C#C	O=C1OCC1(C#C)C#C	
InChI=1S/C7H4O2/c1-3-7(4-2)5-9-6(7)8/h1-2H,5H2	InChI=1S/C7H4O2/c1-3-7(4-2)5-9-6(7)8/h1-2H,5H2
