19
gdb 26667	2.249	1.55584	0.93218	1.123	80.99	-0.1575	0.0599	0.2174	1254.5347	0.157859	-419.245212	-419.234617	-419.233673	-419.280307	37.764	
C	-0.0458190422	 1.5061056682	 0.0719005229	-0.510342
C	-0.0296288035	 0.0208120021	-0.0467982402	 0.238896
C	 0.1107857447	-0.812985091	-1.1317715695	 0.083726
N	 0.3490210443	-0.4544202698	-2.4797338757	-0.609362
C	 0.0793036999	-2.1785824739	-0.6788636563	 0.107859
C	 0.2276589779	-3.4034577109	-1.526393904	-0.529452
C	-0.0795128767	-2.1091597091	 0.6848443255	 0.294315
O	-0.1759949562	-3.0631348498	 1.6502854637	-0.440029
N	-0.1312119212	-0.8066102467	 1.0743290215	-0.3678
H	-0.2213233516	 1.9631620287	-0.9074684163	 0.118843
H	-0.8515333642	 1.855206475	 0.7311196534	 0.117201
H	 0.8934175576	 1.9270156357	 0.4586643313	 0.122816
H	 0.3205711113	 0.5491413229	-2.6139620334	 0.229805
H	-0.3282336338	-0.872781258	-3.1090680004	 0.234738
H	 1.0116047901	-3.2614540876	-2.2789253545	 0.13866
H	 0.5135352013	-4.2804288283	-0.9317480324	 0.096495
H	-0.6907029045	-3.6739176815	-2.0665458375	 0.114931
H	-0.1623194344	-3.9235661691	 1.2201665679	 0.302406
H	-0.2632949889	-0.504928207	 2.0231033739	 0.256293
103.198	118.6071	137.5234	174.1818	188.762	194.3778	233.0143	237.4699	264.9918	290.0794	309.8029	407.7761	535.1012	586.14	606.0269	641.6206	682.2982	736.7405	801.8491	870.1153	974.8412	1010.3116	1057.0335	1061.7127	1149.4843	1174.6816	1226.6804	1240.7489	1254.7169	1383.6349	1416.5658	1422.5075	1466.781	1476.7535	1479.1859	1498.8597	1509.253	1559.9927	1610.8835	1644.031	1685.8424	2994.034	2997.4845	3036.9378	3044.7387	3078.3503	3088.0377	3500.7805	3595.1723	3691.047	3841.2922
CC1=C(N)C(C)=C(O)N1	Cc1c(N)c(C)c(O)[nH]1	
InChI=1S/C6H10N2O/c1-3-5(7)4(2)8-6(3)9/h8-9H,7H2,1-2H3	InChI=1S/C6H10N2O/c1-3-5(7)4(2)8-6(3)9/h8-9H,7H2,1-2H3
