22
gdb 117630	2.55625	0.98355	0.8532	18.4008	84.44	-0.1447	-0.0481	0.0966	1453.5995	0.19227	-441.432055	-441.421099	-441.420155	-441.46901	39.225	
C	 0.2695871706	 1.6413958072	-0.1104609389	-0.417461
C	 0.0152272654	 0.1402617693	 0.0402070533	 0.160116
C	 0.7368760055	-0.3996062841	 1.2876865919	-0.423356
C	-1.4839941031	-0.2119341467	 0.038703946	-0.219376
C	-2.2133501749	-0.093081147	 1.3546073468	-0.224862
N	-3.5720708567	-0.8064069118	 1.1851774519	-0.411806
H	-4.1387498283	-0.8413352881	 2.0359144742	 0.323304
H	-4.1085674414	-0.3440823965	 0.4472072844	 0.334308
H	-3.3851665984	-1.7596342618	 0.8598037247	 0.338816
C	 0.6581072349	-0.6772817175	-1.2039691637	 0.350103
O	 1.7376048849	-0.2219340479	-1.6001806952	-0.467469
O	 0.0029758058	-1.6833849904	-1.5599801411	-0.494406
H	 1.3291358259	 1.7875131661	-0.3281843516	 0.149495
H	-0.2939208805	 2.0565600089	-0.954394988	 0.093866
H	 0.003987714	 2.2139590865	 0.7912260385	 0.055973
H	 0.4778945687	 0.1362059768	 2.2138058663	 0.064999
H	 0.5372760777	-1.4687584409	 1.4322247691	 0.098346
H	 1.8133721611	-0.2893497538	 1.1338678814	 0.147134
H	-2.0017223467	 0.3985050658	-0.7149045664	 0.088714
H	-1.4851268032	-1.2551545043	-0.3318827963	 0.132493
H	-1.7155316432	-0.6192576883	 2.1705786349	 0.165657
H	-2.4547590083	 0.9250082686	 1.6726521177	 0.15541
42.0552	47.8511	82.7752	151.4799	206.6232	220.6787	248.8675	286.636	301.5664	306.8282	362.3555	373.524	399.1435	532.4103	625.7226	766.9714	783.978	786.8704	797.2998	807.2729	883.5473	936.7247	951.4689	995.7777	1008.8853	1059.435	1099.8727	1163.7212	1210.9746	1231.2203	1259.6343	1312.1941	1324.3574	1331.162	1367.5919	1380.466	1410.7133	1451.9235	1469.8647	1474.8563	1489.3187	1497.9674	1503.8653	1513.453	1634.6849	1659.2686	1772.793	2914.5514	2978.1121	2986.8343	3019.6694	3053.2121	3060.2071	3075.179	3113.305	3133.4304	3144.9616	3395.7677	3490.0178	3505.0565
CC(C)(CC[NH3+])C([O-])=O	CC(C)(CC[NH3])C(=O)[O]	
InChI=1S/C6H13NO2/c1-6(2,3-4-7)5(8)9/h3-4,7H2,1-2H3,(H,8,9)	InChI=1S/C6H13NO2/c1-6(2,3-4-7)5(8)9/h3-4H2,1-2,7H3
