15
gdb 66277	2.09379	1.66086	1.44269	4.676	64.86	-0.2695	-0.0277	0.2418	987.3829	0.113657	-453.987618	-453.979375	-453.97843	-454.020527	29.974	
N	 0.1690462389	 1.5241645961	 0.3473662081	-0.542644
C	-0.0444479041	 0.1329751079	-0.0172016396	-0.017349
C	-1.5198907721	-0.2361162798	-0.2655389831	-0.254782
C	-1.3988681403	-1.4157586469	-1.2359636789	-0.097825
O	-0.2152279716	-1.1492493463	-2.0203608884	-0.213776
C	 0.5976513882	-0.2812658527	-1.3834476591	 0.424011
O	 1.6228903009	 0.135076172	-1.8314285039	-0.334445
C	 0.5294880912	-0.7388032302	 1.0216513456	 0.294967
N	 0.9704324737	-1.4526664303	 1.8159789011	-0.32314
H	 1.1694930759	 1.711651489	 0.3464888996	 0.25941
H	-0.2278315854	 2.1170960504	-0.3772571875	 0.242322
H	-2.0663243626	-0.4800160468	 0.6451886386	 0.149105
H	-2.0103753019	 0.6130280638	-0.7520771043	 0.127194
H	-1.2628158655	-2.3673071831	-0.7121167786	 0.146578
H	-2.2372447251	-1.5037507631	-1.9278398096	 0.140373
91.9897	140.0104	177.5977	213.0238	237.1789	272.4292	348.8022	443.0831	497.5357	581.5166	637.984	659.6911	707.1697	762.0347	819.5186	900.4577	956.1087	976.063	1032.4537	1047.9171	1087.2313	1171.0435	1204.3779	1240.4336	1247.0716	1326.9112	1350.4778	1403.9167	1484.1896	1520.2247	1661.3681	1889.1452	2357.3123	3060.2077	3065.545	3130.6699	3145.043	3481.8253	3560.0462
NC1(CCOC1=O)C#N	N[C@]1(CCOC1=O)C#N	
InChI=1S/C5H6N2O2/c6-3-5(7)1-2-9-4(5)8/h1-2,7H2	InChI=1S/C5H6N2O2/c6-3-5(7)1-2-9-4(5)8/h1-2,7H2/t5-/m1/s1
