16
gdb 93327	2.26099	1.67911	1.11678	4.8806	69.06	-0.2632	-0.0395	0.2237	1072.3079	0.124171	-437.928811	-437.92051	-437.919566	-437.962203	30.621	
O	-0.9790628005	 1.1455030578	-0.6171612697	-0.431059
C	-0.0884917322	 0.1875256862	-0.0834868933	 0.1003
C	-0.9453810386	-0.9504259892	 0.493573231	-0.236878
C	-1.405955976	-1.7487112162	-0.7360192313	-0.31662
C	-0.305149771	-1.5659273383	-1.7792389051	 0.418264
O	-0.2046550326	-2.1158388229	-2.8370388729	-0.287959
C	 0.7087025765	-0.5211678816	-1.2113583123	-0.291149
C	 1.2472341399	 0.3911796791	-2.2029472442	 0.279926
N	 1.6382559449	 1.1757615371	-2.95669768	-0.323358
H	-0.4713146867	 1.8112975984	-1.0967721165	 0.304136
H	 0.5812977807	 0.6312409614	 0.6637451878	 0.088456
H	-0.3304087787	-1.5694066692	 1.1550309682	 0.112375
H	-1.7700539341	-0.5433876227	 1.0805725585	 0.13054
H	-1.588575623	-2.8104860243	-0.5560840819	 0.138737
H	-2.3223463037	-1.3269717785	-1.1625235402	 0.162434
H	 1.5310603851	-1.1001312672	-0.7683669381	 0.151856
53.4345	133.0432	149.4368	176.5918	354.8973	386.1785	393.5393	416.7091	463.213	515.5487	580.2217	632.8777	705.8984	774.0128	825.8546	901.0825	919.5761	985.3967	998.3401	1029.8693	1076.2253	1113.8097	1169.4222	1190.2579	1212.2156	1261.0473	1296.0777	1303.2188	1346.0367	1359.8376	1417.6008	1443.0885	1486.0321	1867.5907	2356.5599	3021.885	3030.8652	3061.284	3063.9414	3115.4221	3128.2037	3788.4525
OC1CCC(=O)C1C#N	O[C@H]1CCC(=O)[C@H]1C#N	
InChI=1S/C6H7NO2/c7-3-4-5(8)1-2-6(4)9/h4-5,8H,1-2H2	InChI=1S/C6H7NO2/c7-3-4-5(8)1-2-6(4)9/h4-5,8H,1-2H2/t4-,5-/m0/s1
