17
gdb 7566	3.17985	1.81666	1.51779	5.0677	63.56	-0.2441	0.0196	0.2637	894.2438	0.142775	-401.022751	-401.01493	-401.013985	-401.055034	29.044	
C	-0.0739746487	 1.6288653905	-0.0136657208	-0.456543
C	 0.0416466087	 0.1108574116	 0.0066636326	 0.178477
C	 1.1636046439	-0.4738888399	-0.9139544253	-0.269766
C	 1.9736894093	-0.7323844768	 0.3783196833	-0.158652
N	 0.7490222812	-0.480594819	 1.1860573668	-0.368943
H	 0.8672194963	 0.1486706625	 1.9739240555	 0.22746
H	-0.7503957557	-1.6228676819	 1.1788392977	 0.30118
C	-1.331686514	-0.545216427	-0.2065611768	 0.405874
O	-2.1130897694	-0.1807136053	-1.045973162	-0.354517
O	-1.5543767206	-1.5815480922	 0.6103789021	-0.376935
H	 0.9139911162	 2.0989081068	 0.0242572488	 0.111378
H	-0.5843953279	 1.943362515	-0.9266778679	 0.158301
H	-0.6628744345	 1.9871620241	 0.8380971603	 0.125061
H	 0.8673647984	-1.3835972621	-1.4382795616	 0.129982
H	 1.5902066519	 0.2283882035	-1.6304238652	 0.120473
H	 2.3921253478	-1.7333714067	 0.5148056555	 0.117324
H	 2.768077247	 0.0040384269	 0.5425718571	 0.109846
70.7254	135.5291	212.4931	249.6814	271.6005	323.0299	370.6186	473.5965	545.8692	696.0912	749.9345	752.5594	792.7246	878.3571	892.0684	924.3845	950.7004	958.2658	989.9098	1030.255	1131.2071	1173.3107	1186.695	1191.8505	1216.3295	1253.7209	1273.2188	1334.0389	1375.4523	1401.9551	1442.2442	1483.4842	1491.7549	1495.608	1524.552	1861.5411	3033.3171	3037.1835	3084.6951	3090.2343	3099.3138	3133.9725	3145.0012	3424.1059	3517.9292
CC1(CC[NH2+]1)C([O-])=O	C[C@]1(CCN1)C(=O)O	
InChI=1S/C5H9NO2/c1-5(4(7)8)2-3-6-5/h6H,2-3H2,1H3,(H,7,8)	InChI=1S/C5H9NO2/c1-5(4(7)8)2-3-6-5/h6H,2-3H2,1H3,(H,7,8)/t5-/m0/s1
