21
gdb 53672	5.9977	0.54068	0.52785	1.7203	88.73	-0.2374	0.0657	0.3031	2151.4073	0.180951	-387.053114	-387.042673	-387.041729	-387.091464	35.607	
C	-0.005217905	 1.4699470001	-0.1211429554	-0.497009
C	-0.0056293275	 0.0140261992	-0.084856628	 0.104823
C	 0.007044079	-1.1898718942	-0.0579406853	 0.025027
C	-0.0132000413	-2.647717013	-0.0209425663	-0.355424
C	-1.4255044218	-3.2270837223	 0.199438113	-0.19087
C	-1.4204520557	-4.7447636461	 0.2010966331	 0.161139
C	-2.7761115502	-5.4785478295	 0.0890675339	-0.304954
C	-2.1794698825	-6.0858617578	-1.1960169091	-0.056775
O	-0.97851519	-5.2973740275	-1.0662328499	-0.293903
H	 1.0120795269	 1.8659365846	-0.2171077387	 0.145629
H	-0.5868996297	 1.8492455977	-0.9688817464	 0.14439
H	-0.438589809	 1.8940818698	 0.7916794907	 0.143391
H	 0.3832305867	-3.0556627699	-0.958492522	 0.14712
H	 0.6541746746	-3.0077686617	 0.7741867633	 0.120131
H	-1.8310772569	-2.8685691142	 1.1536227412	 0.10438
H	-2.092041094	-2.8669621325	-0.5923043721	 0.106345
H	-0.7843089319	-5.1181750772	 1.0179133932	 0.070242
H	-3.0097234937	-6.1809633194	 0.8901847381	 0.110244
H	-3.6299239914	-4.8164189442	-0.0697735266	 0.110535
H	-1.9674537379	-7.1616654264	-1.1485955571	 0.100861
H	-2.7112356389	-5.8727547755	-2.1307321396	 0.104675
16.6869	44.6127	73.7986	82.7163	112.843	190.0478	218.3493	280.886	364.1302	385.714	442.3093	512.0364	727.8283	769.2305	776.8811	821.2513	883.0813	926.2735	974.3259	991.6728	1030.3124	1053.8168	1054.4879	1059.0151	1104.2509	1130.5112	1166.1912	1169.3561	1203.2191	1222.2322	1254.3967	1268.27	1297.6879	1313.6758	1359.6342	1373.6698	1403.7335	1415.9169	1471.5302	1479.6879	1480.4554	1486.797	1491.1527	1533.6398	2373.9964	2984.0712	3012.5507	3014.7017	3024.21	3032.4127	3054.3594	3054.8639	3076.9564	3082.3229	3083.0583	3083.6462	3133.0239
CC#CCCC1CCO1	CC#CCC[C@H]1CCO1	
InChI=1S/C8H12O/c1-2-3-4-5-8-6-7-9-8/h8H,4-7H2,1H3	InChI=1S/C8H12O/c1-2-3-4-5-8-6-7-9-8/h8H,4-7H2,1H3/t8-/m0/s1
