21
gdb 67034	2.0769	1.98892	1.57781	1.7944	81.1	-0.221	0.0805	0.3015	1005.2368	0.182925	-387.072655	-387.064394	-387.06345	-387.104749	33.026	
C	-0.0088457449	 1.5423551363	-0.0649198409	-0.519251
C	-0.0006151358	 0.0448651742	 0.000701759	 0.25938
C	 0.4703261438	-1.0411026536	-0.9819411273	-0.157299
C	 1.2279726407	-1.7700933165	 0.1240349011	-0.270274
C	 0.4940023986	-0.871019766	 1.177805518	 0.237261
C	 1.31761775	-0.2772136693	 2.3011314973	-0.497258
C	-0.8004168994	-1.5721362293	 1.6021914421	-0.114017
O	-1.5068791057	-1.81823786	 0.381805987	-0.272681
C	-0.984912315	-0.9124717274	-0.5690796854	 0.066681
H	 0.9905941468	 1.9631224481	 0.0959193667	 0.118137
H	-0.3552946373	 1.8864611457	-1.0450948174	 0.121579
H	-0.6767288768	 1.9748807396	 0.6897929572	 0.121049
H	 0.7822673008	-0.9341054	-2.0158166013	 0.077276
H	 1.0797573477	-2.852512504	 0.2107773583	 0.096054
H	 2.2995964262	-1.5544316705	 0.0950867073	 0.096143
H	 2.1925236644	 0.2548951257	 1.9140691292	 0.119372
H	 0.7313606708	 0.431345149	 2.8975437697	 0.117363
H	 1.680305525	-1.059752886	 2.9775326219	 0.11978
H	-0.6268341447	-2.5328101554	 2.0998647936	 0.102421
H	-1.3999019725	-0.9323698601	 2.2709395661	 0.082569
H	-1.7104036728	-0.6042721304	-1.3133670422	 0.095714
173.4284	185.4937	199.5647	219.3552	250.5613	304.0812	337.8168	412.1108	493.1283	575.0573	604.2887	655.0366	723.2462	786.2824	834.6188	871.6445	884.461	941.4826	957.1051	986.5987	989.0069	1017.4441	1037.0146	1048.6792	1082.2892	1108.0528	1141.6279	1156.1229	1190.7155	1227.8237	1239.1755	1249.5375	1267.4751	1291.079	1314.3323	1384.6637	1409.3972	1417.31	1452.9568	1484.4862	1491.9734	1494.2042	1497.2899	1499.5207	1513.4346	2965.7545	3018.462	3024.7078	3034.0054	3061.6417	3076.0348	3087.1283	3091.8508	3092.4669	3097.702	3159.9785	3183.9713
CC12C3CC1(C)COC23	C[C@@]12[C@H]3C[C@]1(C)CO[C@@H]23	
InChI=1S/C8H12O/c1-7-3-5-6(9-4-7)8(5,7)2/h5-6H,3-4H2,1-2H3	InChI=1S/C8H12O/c1-7-3-5-6(9-4-7)8(5,7)2/h5-6H,3-4H2,1-2H3/t5-,6+,7+,8-/m0/s1
