18
gdb 23496	3.27017	1.50741	1.29401	1.2305	79.3	-0.2356	0.0213	0.2569	1016.1908	0.149768	-401.870638	-401.863711	-401.862767	-401.90179	28.663	
O	-0.1819695573	 1.2961904664	 0.013429121	-0.401505
N	-0.0442091999	-0.1106407951	-0.058526039	-0.313855
C	-1.1700254003	-0.6869960158	 0.0055583318	 0.50982
C	-2.5991017599	-0.2051750409	 0.0880766902	-0.146751
C	-3.1216571818	-0.7600997558	-1.277655796	-0.239089
C	-2.8949070342	-2.1276393281	-0.6116073646	-0.032334
C	-3.2104757171	-1.5082973944	 0.7841913753	-0.032578
C	-2.0723921059	-2.3283503968	 1.4143907852	-0.240416
C	-1.4181937969	-2.1730316111	 0.0040359377	-0.1367
H	 0.7341397188	 1.5870781564	-0.043229217	 0.303075
H	-2.7935870334	 0.807734023	 0.4272637473	 0.090817
H	-4.1885184975	-0.5639672326	-1.4201049114	 0.101555
H	-2.5665145255	-0.491019433	-2.1808226506	 0.106385
H	-3.317248023	-3.0667544647	-0.9662881183	 0.073069
H	-4.2153281033	-1.4272244714	 1.1964653378	 0.072856
H	-1.5216240629	-1.9337765396	 2.2732872339	 0.104572
H	-2.3923720378	-3.3557152791	 1.6117543152	 0.100866
H	-0.633655762	-2.8324962574	-0.3591519885	 0.080214
117.8654	213.3355	298.9713	376.6138	392.301	414.95	498.0471	638.9705	700.5027	721.3091	769.2408	786.3932	831.0684	853.3164	875.7768	908.7482	921.765	952.1178	985.7861	999.8779	1011.2888	1025.8231	1058.2669	1073.9616	1116.7454	1141.5687	1178.3872	1197.2426	1200.5143	1221.6398	1225.9908	1267.8651	1269.2572	1297.9768	1304.9486	1407.6291	1493.1597	1495.0674	1794.7242	3047.7567	3049.4033	3106.0263	3106.6829	3120.357	3128.9753	3151.2768	3169.8117	3821.1797
ON=C1C2CC3C2CC13	ON=C1[C@H]2C[C@@H]3[C@H]2C[C@H]13	
InChI=1S/C7H9NO/c9-8-7-5-1-3-4(5)2-6(3)7/h3-6,9H,1-2H2	InChI=1S/C7H9NO/c9-8-7-5-1-3-4(5)2-6(3)7/h3-6,9H,1-2H2/t3-,4-,5+,6+/m1/s1
