19
gdb 98307	2.52455	1.19306	0.8681	2.7688	72.56	-0.2632	0.0027	0.2659	1351.5406	0.157324	-460.177958	-460.168079	-460.167135	-460.213831	34.837	
C	-0.1037273615	 1.2005567837	 0.1111256636	-0.243911
O	-0.017773612	-0.2218069262	-0.0704641972	-0.220238
C	 0.6993695132	-0.6279091834	-1.1213039002	 0.420751
O	 1.2448610139	 0.1145830009	-1.9055693023	-0.380642
C	 0.7748944705	-2.1495831368	-1.2378423212	 0.002157
O	 1.3152689728	-2.4808383586	-2.4936513866	-0.436056
C	 1.5950939234	-2.7387365205	-0.1027258406	 0.021349
C	 0.948333397	-3.060079166	 1.2194485635	-0.262407
C	 1.3709942684	-4.1738883541	 0.2960770636	-0.273358
H	 0.8904646752	 1.6281416745	 0.2613405679	 0.145491
H	-0.5631938943	 1.6700743472	-0.7618401892	 0.146536
H	-0.7217141398	 1.3479538286	 0.9962487277	 0.139251
H	-0.2513058081	-2.5401636701	-1.1642211201	 0.093669
H	 1.6431920764	-1.6488157083	-2.8664259248	 0.293443
H	 2.6207929565	-2.3804478219	-0.0818112389	 0.089221
H	 1.5226598665	-2.8876382445	 2.1226258603	 0.112555
H	-0.1116512147	-2.856946706	 1.3253979065	 0.117734
H	 0.5969306936	-4.7251469179	-0.2273146071	 0.119004
H	 2.2367617329	-4.7690174605	 0.562976755	 0.115452
41.5751	75.3896	107.1925	117.3458	181.3644	225.8446	288.7403	317.4806	370.1956	376.9134	403.3959	533.0853	669.3902	764.2123	770.9997	832.8939	885.2608	906.4892	949.2923	976.2355	1018.4852	1059.3475	1076.6023	1126.5837	1132.7844	1168.5581	1177.7854	1194.7774	1209.9635	1224.479	1244.9769	1296.8431	1316.5859	1409.6795	1446.1076	1471.09	1477.5302	1482.5021	1496.1401	1505.2224	1800.097	2995.9417	3055.7786	3132.6145	3135.0819	3138.466	3146.2448	3165.5643	3213.0064	3227.5616	3717.6377
COC(=O)C(O)C1CC1	COC(=O)[C@@H](O)C1CC1	
InChI=1S/C6H10O3/c1-9-6(8)5(7)4-2-3-4/h4-5,7H,2-3H2,1H3	InChI=1S/C6H10O3/c1-9-6(8)5(7)4-2-3-4/h4-5,7H,2-3H2,1H3/t5-/m0/s1
