17
gdb 52062	2.61309	1.24424	0.98986	3.6079	75.33	-0.2458	0.0138	0.2597	1212.6323	0.135131	-417.968046	-417.958883	-417.957939	-418.002385	33.39	
O	 0.832671054	 0.5268748564	-1.366562541	-0.33197
C	 0.3643622431	 1.3006637722	-0.5524860209	 0.168572
N	 0.9989214822	 1.7179760259	 0.5715028476	-0.257479
C	 2.3527752915	 1.2856663096	 0.8894653378	-0.263796
C	 3.43248684	 2.1305122231	 0.2207230224	 0.096728
C	 4.637428238	 1.4196139089	-0.3117117013	-0.266653
N	 3.6438516217	 1.961759118	-1.2348904612	-0.331389
C	 3.5369512287	 3.4777933139	 0.7276525535	 0.326437
C	 3.5913344318	 4.5825733818	 1.1995907705	-0.454505
H	-0.6518349606	 1.7273595608	-0.6462362559	 0.091335
H	 0.5787838684	 2.4507666583	 1.1203154365	 0.259816
H	 2.4759056486	 1.3103285731	 1.9759626231	 0.123596
H	 2.4462272872	 0.2498806732	 0.5530819597	 0.136047
H	 5.5943513363	 1.932427777	-0.3094570071	 0.128589
H	 4.6923515084	 0.3447028686	-0.1533085161	 0.117355
H	 3.0120402544	 1.2341732956	-1.5689164427	 0.260362
H	 3.6589563062	 5.5665805436	 1.593242125	 0.196956
58.0112	91.0222	139.0396	184.9842	225.7219	259.2171	312.0847	369.4355	447.3023	508.0371	550.8264	570.6624	611.6117	656.3596	718.2465	755.9259	856.9206	906.3034	934.7583	978.6624	997.5423	1031.0021	1049.0537	1109.3036	1153.2794	1207.9607	1264.5947	1273.3359	1310.9899	1379.2661	1401.9937	1424.9614	1461.9438	1506.9207	1526.9314	1784.7877	2235.7919	2961.6065	3060.53	3104.5689	3116.3724	3196.9827	3475.1138	3502.2819	3643.5725
O=CNCC1(CN1)C#C	O=CNC[C@]1(CN1)C#C	
InChI=1S/C6H8N2O/c1-2-6(4-8-6)3-7-5-9/h1,5,8H,3-4H2,(H,7,9)	InChI=1S/C6H8N2O/c1-2-6(4-8-6)3-7-5-9/h1,5,8H,3-4H2,(H,7,9)/t6-/m0/s1
