18
gdb 101392	4.11123	0.9644	0.92907	1.1655	67.62	-0.2593	0.0113	0.2706	1289.1199	0.148323	-476.226062	-476.217384	-476.21644	-476.260058	31.776	
O	 0.0304720629	 1.4322219812	-0.0675742633	-0.423886
C	 0.0510992557	 0.0406028889	 0.1619656332	-0.0728
C	-1.3425531715	-0.5604080513	-0.0468678588	 0.077128
O	-1.8329321575	-0.1898252336	-1.3329231283	-0.443501
C	-1.3900100118	-2.0746875378	 0.1378899305	 0.074589
C	-2.7955584926	-2.7168956852	 0.0021133346	-0.204348
N	-2.6467699185	-3.7601796416	-1.0279570918	-0.24944
C	-1.4697848656	-3.6413503313	-1.4708005765	 0.109919
O	-0.6378397163	-2.6964307929	-0.9485076984	-0.252328
H	-0.5044113718	 1.5542702793	-0.8626594901	 0.286586
H	 0.7683638194	-0.4736329035	-0.4998858376	 0.093951
H	 0.3819899578	-0.1179633109	 1.1946802753	 0.106466
H	-2.0314800751	-0.1005698949	 0.6718317042	 0.104975
H	-1.3388642516	-0.7175570015	-1.9742805289	 0.291964
H	-0.8947683752	-2.3539663789	 1.0746722354	 0.097938
H	-3.1450439291	-3.1583741587	 0.9389397856	 0.121978
H	-3.541184077	-1.9864095301	-0.3297309214	 0.134563
H	-1.0252445023	-4.2356210771	-2.2614996934	 0.146245
76.3487	78.4213	121.2108	177.6036	269.1285	299.5187	351.146	421.7535	487.2441	507.6632	543.693	694.0009	720.2595	825.1493	879.5546	886.1152	953.1118	977.7543	989.5399	1006.0836	1038.6497	1091.7357	1097.6663	1111.7676	1130.7552	1200.0964	1221.024	1276.1529	1296.8907	1311.6219	1326.7354	1352.8289	1370.9198	1399.7657	1424.8076	1442.8369	1488.6877	1509.8462	1716.9664	2967.4375	3043.2514	3047.7027	3051.8463	3068.4344	3096.7561	3216.7373	3767.1358	3771.9152
OCC(O)C1CN=CO1	OC[C@@H](O)[C@H]1CN=CO1	
InChI=1S/C5H9NO3/c7-2-4(8)5-1-6-3-9-5/h3-5,7-8H,1-2H2	InChI=1S/C5H9NO3/c7-2-4(8)5-1-6-3-9-5/h3-5,7-8H,1-2H2/t4-,5-/m1/s1
