19
gdb 12378	2.90488	2.10623	1.30667	2.9933	72.72	-0.2544	0.022	0.2764	961.7727	0.167362	-365.092021	-365.084254	-365.08331	-365.124098	29.629	
C	-0.023767147	 1.5722005244	-0.0271979487	-0.391574
C	 0.0959382817	 0.0482464333	 0.0116130064	-0.047883
C	 0.7370728649	-0.5282233984	-1.2635222571	-0.207049
C	 0.8875760104	-2.0443586133	-1.1392845323	-0.221778
C	 1.7103142956	-2.3638841812	 0.099598378	-0.068117
O	 1.1856814249	-1.7602882595	 1.2908629424	-0.258242
C	 0.8033872346	-0.4441118117	 1.26481636	 0.383281
N	 0.9362205491	 0.2882340989	 2.289147976	-0.502393
H	 0.9644611431	 2.0389843407	-0.083158728	 0.120093
H	-0.6003299995	 1.8814343607	-0.9052577514	 0.101072
H	-0.5131172613	 1.9496692313	 0.8713200986	 0.140919
H	-0.917261983	-0.3793464187	 0.0756688659	 0.101199
H	 0.1256808491	-0.2609653972	-2.1315868916	 0.10102
H	 1.7233747569	-0.0692037839	-1.418575121	 0.101913
H	-0.099785138	-2.5154325183	-1.0582216045	 0.10791
H	 1.3824417778	-2.4733339284	-2.0176586717	 0.102483
H	 1.7355320798	-3.4360316533	 0.3100227387	 0.115988
H	 2.7467577949	-2.0220614833	-0.0380340067	 0.104458
H	 1.4005755659	-0.240798192	 3.0307632071	 0.216701
77.8631	141.3022	209.2365	296.3566	306.0124	348.0842	408.9728	449.8705	520.312	584.0246	662.6982	752.2423	871.1297	884.0424	895.8746	927.5142	948.3561	989.4193	1006.5283	1055.4007	1108.6197	1126.5131	1135.4617	1168.176	1213.4033	1246.5418	1285.2954	1303.6436	1324.4813	1356.0089	1380.1469	1388.7022	1413.8882	1429.049	1481.1042	1487.5746	1493.9238	1499.4862	1513.2823	1740.3951	2983.8509	2999.5102	3017.1218	3031.7624	3042.3547	3072.1764	3079.2719	3096.5737	3106.7922	3144.6506	3458.4482
CC1CCCOC1=N	C[C@H]1CCCO[C]1[NH]	
InChI=1S/C6H11NO/c1-5-3-2-4-8-6(5)7/h5,7H,2-4H2,1H3	InChI=1S/C6H11NO/c1-5-3-2-4-8-6(5)7/h5,7H,2-4H2,1H3/t5-/m0/s1
