20
gdb 112635	2.67212	1.21368	0.88975	4.3904	83.8	-0.2312	-0.02	0.2112	1358.6846	0.170721	-403.212435	-403.202982	-403.202038	-403.247266	34.206	
C	 0.1736699204	 1.5714340066	-0.0777291015	-0.378837
C	-0.0172159812	 0.069769741	 0.1583681715	-0.149195
N	 0.6998840025	-0.4341884551	 1.3097097149	-0.103425
C	 2.1316031096	-0.6047738285	 1.3766007257	-0.260332
C	 2.3503346656	-1.2187599497	 2.7420671363	 0.317185
C	 3.7151888608	-1.5582472612	 3.2419951868	-0.489173
C	 1.1660516956	-1.3718076681	 3.3430910993	-0.322814
C	 0.0720404093	-0.8901773618	 2.4556128293	 0.428721
O	-1.1273128282	-0.8852580066	 2.6572286255	-0.409612
H	 1.2239813052	 1.8228645857	-0.2595499152	 0.112624
H	-0.4002347645	 1.892673295	-0.9527004381	 0.118491
H	-0.1701880679	 2.1443802458	 0.7882351518	 0.132767
H	-1.0710470301	-0.1517973974	 0.3484530194	 0.144162
H	 0.2861583636	-0.491821662	-0.7364346653	 0.096727
H	 2.5038718356	-1.2639166895	 0.5758783888	 0.117528
H	 2.6730375301	 0.3484570488	 1.2780924025	 0.120611
H	 4.3559015223	-0.6685793132	 3.279700132	 0.13556
H	 3.6747501627	-1.9918821911	 4.2438328935	 0.13747
H	 4.21357661	-2.2754636135	 2.5781894503	 0.135489
H	 0.9687422586	-1.7810808353	 4.3241182826	 0.116054
51.2334	83.3897	145.4808	200.2541	204.0522	209.6462	275.8938	321.0565	374.592	446.7098	522.7544	552.0103	671.3592	732.1293	779.0195	802.5107	873.5166	896.3146	957.9179	977.7258	1007.1479	1069.6412	1077.6555	1096.6005	1148.2076	1166.6423	1196.4117	1243.8532	1270.0982	1338.0377	1353.1176	1396.671	1411.0657	1413.5601	1432.289	1479.7994	1480.5471	1484.5474	1493.67	1498.8075	1506.2491	1698.7103	1797.5765	2979.6505	3002.3598	3005.743	3024.0257	3036.286	3071.5094	3091.4384	3109.8391	3119.515	3122.8033	3236.0046
CCN1CC(C)=CC1=O	CCN1CC(=CC1=O)C	
InChI=1S/C7H11NO/c1-3-8-5-6(2)4-7(8)9/h4H,3,5H2,1-2H3	InChI=1S/C7H11NO/c1-3-8-5-6(2)4-7(8)9/h4H,3,5H2,1-2H3
