15
gdb 9196	6.79915	0.86898	0.8074	7.4412	65.01	-0.2663	0.0076	0.2739	1352.8159	0.119141	-395.995078	-395.986543	-395.985599	-396.029792	29.433	
N	 0.278843317	 1.0460914952	 0.271122438	-0.530613
H	 0.0880751501	 0.1629887207	-0.1856831657	 0.25313
H	 1.1426504294	 0.9378825414	 0.7920692338	 0.25336
H	 0.1268173956	 2.859265706	-0.3276963889	 0.306224
C	-0.8265364582	 1.4474685193	 1.1523371263	-0.264139
C	-0.8872737041	 2.9679094608	 1.2193495108	 0.421476
O	-0.320185512	 3.5829646099	 0.1658833112	-0.397207
N	-1.4578980757	 3.5502908396	 2.1886078541	-0.309658
C	-1.5117678253	 5.0055257665	 2.145739267	-0.28764
C	-1.6186051339	 5.5622081717	 3.5005209317	 0.272107
N	-1.6959333895	 6.0287239129	 4.5541608267	-0.312689
H	-1.7635034745	 1.0947597162	 0.707645464	 0.144502
H	-0.7796937968	 1.0500890988	 2.1705850234	 0.141583
H	-0.6384093357	 5.455183114	 1.6543940389	 0.155276
H	-2.3910268163	 5.3393087871	 1.5771365788	 0.154287
17.8806	87.7423	123.7611	205.8914	265.5822	301.3179	338.4193	380.3715	427.7035	560.5867	598.2023	703.4328	822.0267	858.9192	890.7464	943.2404	966.4717	993.8769	1025.7475	1078.7924	1164.8302	1242.3978	1254.3194	1314.9406	1365.9681	1384.7066	1422.3265	1460.4318	1482.2589	1661.5885	1794.0907	2368.5206	3009.7603	3041.9852	3050.1697	3095.0788	3463.0345	3523.1067	3606.6187
[NH3+]CC(=O)[N-]CC#N	NCC(=NCC#N)O	
InChI=1S/C4H7N3O/c5-1-2-7-4(8)3-6/h2-3,6H2,(H,7,8)	InChI=1S/C4H7N3O/c5-1-2-7-4(8)3-6/h2-3,6H2,(H,7,8)
