18
gdb 31146	2.01766	1.74888	0.99436	2.6778	76.18	-0.1687	0.0525	0.2212	1187.6658	0.148568	-435.269384	-435.259932	-435.258988	-435.303299	35.189	
C	 0.4263041021	 1.3617007449	 0.4471423041	-0.327455
N	-0.1893514364	 0.2013284492	-0.2092871809	-0.408316
C	 0.5742609637	-0.3875105679	-1.2494914027	 0.042503
C	 0.2407517386	-0.3331566575	-2.5739336591	 0.370753
N	-0.8008331067	 0.3116065065	-3.2183667303	-0.595378
O	 1.1477890685	-0.9649148518	-3.3358981259	-0.186916
C	 2.1188527444	-1.469654547	-2.4761824613	-0.135229
C	 1.8195589129	-1.1286220697	-1.1961217689	 0.182658
N	 2.5539349964	-1.3581524189	-0.0235865198	-0.610175
H	 1.4115618587	 1.1561147083	 0.8913898384	 0.115235
H	 0.5538082659	 2.1597644985	-0.2900608516	 0.131476
H	-0.2436307085	 1.7272943705	 1.2322219664	 0.108432
H	-0.47302572	-0.4823369044	 0.484758717	 0.215608
H	-1.5124722752	 0.5722449738	-2.5460187064	 0.255599
H	-1.194202436	-0.2254224023	-3.9815560312	 0.250147
H	 2.9196983193	-2.0117963747	-2.9464853111	 0.113272
H	 3.2022602857	-2.1306491685	-0.1063505122	 0.2427
H	 1.9552051668	-1.5126443189	 0.7781874955	 0.235085
81.3359	144.2434	175.9647	184.1259	216.3942	250.2615	289.1145	316.5291	359.583	422.6364	539.8067	566.3839	577.4083	628.1229	677.532	694.1916	746.6112	769.1757	788.4256	814.1484	1002.7443	1040.7249	1079.5896	1128.6484	1143.4229	1166.4844	1174.8411	1258.6451	1317.9047	1384.4061	1450.9754	1455.1131	1485.957	1491.9676	1521.8124	1609.8787	1632.9506	1658.2824	1707.0735	2990.9267	3069.5933	3108.7654	3291.0064	3501.5491	3525.1711	3528.9171	3618.9005	3625.5516
CNC1=C(N)OC=C1N	CNc1c(N)occ1N	
InChI=1S/C5H9N3O/c1-8-4-3(6)2-9-5(4)7/h2,8H,6-7H2,1H3	InChI=1S/C5H9N3O/c1-8-4-3(6)2-9-5(4)7/h2,8H,6-7H2,1H3
