18
gdb 32599	2.85207	1.2124	0.91464	2.0777	75.23	-0.1683	0.0628	0.2311	1279.0477	0.146518	-439.112079	-439.102407	-439.101463	-439.146864	35.199	
C	-0.1140003108	 1.5386140274	 0.0272874069	-0.373087
C	 0.0499270625	 0.016071836	 0.0102513421	-0.153075
N	 0.6941674093	-0.4785386867	-1.1942339104	-0.039982
C	 0.0440914017	-0.8384303588	-2.3777175902	-0.21244
C	 1.0108809978	-1.1651119538	-3.2912194409	 0.329035
O	 0.7534534423	-1.589101906	-4.5648920775	-0.450749
C	 2.2917489043	-0.9954644496	-2.6799195422	-0.464113
C	 2.0348439189	-0.5678257574	-1.3944721533	 0.397567
O	 2.8540034717	-0.2312699899	-0.3612756641	-0.445828
H	 0.8622606903	 2.0299190805	-0.0067316233	 0.134362
H	-0.6999430339	 1.876360604	-0.8324048928	 0.128181
H	-0.626892253	 1.8550805656	 0.9413070695	 0.114208
H	 0.6450351957	-0.3085303494	 0.8680990413	 0.129202
H	-0.9250359149	-0.4754660373	 0.0847286499	 0.115433
H	-1.0296788488	-0.8464228965	-2.4453437475	 0.111578
H	 1.5926071592	-1.7479589448	-5.0051059589	 0.293166
H	 3.2614059133	-1.1708614382	-3.1215707308	 0.07993
H	 3.7597508443	-0.420437395	-0.6223236379	 0.306613
49.2287	90.1546	161.3459	202.4207	213.7485	232.8194	296.2959	308.2401	328.3957	406.111	523.6711	577.6454	591.9101	637.2735	646.3267	666.7987	692.3638	789.7466	824.3839	965.4737	1007.4213	1088.6227	1102.1917	1139.7451	1173.4889	1188.5508	1235.0596	1265.351	1338.8253	1376.0642	1395.599	1411.0646	1445.0754	1482.2797	1491.6299	1506.1089	1571.3639	1578.3292	1656.0759	3041.0726	3055.9122	3097.9799	3114.2714	3128.4903	3232.2895	3283.1093	3850.0476	3853.4458
CCN1C=C(O)C=C1O	CCn1cc(O)cc1O	
InChI=1S/C6H9NO2/c1-2-7-4-5(8)3-6(7)9/h3-4,8-9H,2H2,1H3	InChI=1S/C6H9NO2/c1-2-7-4-5(8)3-6(7)9/h3-4,8-9H,2H2,1H3
