17
gdb 85548	2.28576	1.79841	1.26826	3.9162	67.45	-0.2475	-0.0219	0.2256	1009.5148	0.136491	-458.970967	-458.963242	-458.962298	-459.003547	29.781	
O	 0.1385670071	 1.3452152649	-0.2373302536	-0.426734
C	 0.0361659162	-0.0479845737	-0.0224489749	 0.099638
C	 0.8207660713	-0.5014215797	 1.2329419307	-0.322447
C	 0.0340834943	-0.3691508641	 2.5248337215	 0.372745
O	 0.4182189457	 0.2634928029	 3.4774322246	-0.300434
C	-1.2830018019	-1.143418903	 2.5397403774	-0.336162
C	-2.0698401433	-0.942667671	 1.2656959282	 0.054608
O	-2.2292551519	 0.4207077311	 0.8515279433	-0.257876
C	-1.4356029479	-0.4506722438	 0.0295559755	-0.003572
H	-0.5015273465	 1.7632092638	 0.3536090109	 0.298975
H	 0.4985124274	-0.5157969413	-0.8977845044	 0.095397
H	 1.0715608207	-1.5650863862	 1.1137167518	 0.114407
H	 1.7475248466	 0.0698692018	 1.3078861043	 0.135072
H	-1.054131334	-2.2122651784	 2.654535659	 0.127618
H	-1.8671691785	-0.834556001	 3.4109398362	 0.137939
H	-2.9785279252	-1.5377357985	 1.1713554521	 0.103295
H	-1.8994726301	-0.6881743638	-0.9269087926	 0.107531
71.5295	93.1616	250.9101	322.4446	387.8424	413.3285	431.4334	457.9394	487.2615	547.8595	663.4511	711.9479	773.0861	807.849	823.875	878.9076	941.633	972.7809	993.6146	1033.0553	1074.0992	1104.1076	1141.3767	1169.5599	1219.5109	1226.7597	1261.5651	1287.4438	1306.9086	1325.712	1377.6272	1380.0223	1439.4593	1448.7777	1459.2686	1469.3624	1828.7359	3016.2172	3025.6822	3058.2485	3099.7368	3107.7742	3123.7372	3126.5113	3770.6316
OC1CC(=O)CC2OC12	O[C@H]1CC(=O)C[C@H]2O[C@@H]12	
InChI=1S/C6H8O3/c7-3-1-4(8)6-5(2-3)9-6/h4-6,8H,1-2H2	InChI=1S/C6H8O3/c7-3-1-4(8)6-5(2-3)9-6/h4-6,8H,1-2H2/t4-,5+,6-/m0/s1
