19
gdb 39577	2.56279	1.98163	1.58285	1.2228	80.03	-0.2421	0.0231	0.2652	933.0719	0.162831	-385.91124	-385.904458	-385.903514	-385.941973	28.541	
C	-0.0167866184	 1.5535749723	 0.0212998997	-0.261023
C	 1.3830241404	 2.1044690845	-0.0638106866	-0.066369
C	 2.420956305	 1.3335724687	-0.3798482771	-0.050938
C	 2.2514972565	-0.1306383104	-0.7082359706	 0.039459
C	 2.7114357864	-1.0493975474	 0.4432337865	-0.261022
C	 1.6755251526	-1.0553267943	 1.5373330123	-0.06637
C	 0.4559352125	-0.5564747451	 1.3496861489	-0.050938
C	 0.0265742001	 0.0109628324	 0.0177207951	 0.039459
O	 0.8936760839	-0.4272800162	-1.0255678888	-0.271871
H	-0.516651011	 1.9165882931	 0.9280947753	 0.103551
H	-0.6182392347	 1.9088798625	-0.8263324857	 0.112229
H	 1.5236587743	 3.1616843665	 0.1454220221	 0.087885
H	 3.4320711964	 1.7311079388	-0.408719984	 0.086379
H	 2.8176473523	-0.3671787933	-1.6162142429	 0.084763
H	 2.8701678261	-2.0677039268	 0.0633343198	 0.112229
H	 3.6793528481	-0.7114726774	 0.8342113024	 0.103551
H	 1.9564640259	-1.4812080324	 2.4969991311	 0.087885
H	-0.2758909072	-0.5357555345	 2.1529436475	 0.086379
H	-0.9614449593	-0.384273301	-0.244020215	 0.084763
163.4329	232.9239	287.0992	413.2724	427.5257	455.0348	524.3698	553.0265	622.3679	713.5761	727.3784	802.4928	811.7108	881.5844	892.6543	893.2584	921.3439	988.8548	992.5239	994.2995	1011.2669	1034.343	1052.026	1077.7674	1094.3194	1178.3855	1199.2665	1210.2312	1218.9252	1290.2815	1293.457	1346.439	1347.2522	1362.8871	1402.9374	1407.9901	1415.4516	1465.9808	1467.6006	1718.9592	1720.8442	3014.0936	3014.2836	3042.1135	3045.006	3049.3813	3050.5486	3149.2425	3149.358	3172.0806	3173.1912
C1C=CC2CC=CC1O2	C1C=C[C@H]2CC=C[C@@H]1O2	
InChI=1S/C8H10O/c1-3-7-5-2-6-8(4-1)9-7/h1-3,6-8H,4-5H2	InChI=1S/C8H10O/c1-3-7-5-2-6-8(4-1)9-7/h1-3,6-8H,4-5H2/t7-,8+/m0/s1
