19
gdb 83891	2.32526	1.54025	1.19918	3.8859	81.01	-0.2299	0.0243	0.2542	1113.9017	0.161117	-382.075282	-382.06689	-382.065945	-382.108093	32.139	
C	-0.0860866867	 1.5348817831	 0.0904736101	-0.416226
C	 0.0346344101	 0.0362051747	-0.0439557071	-0.055045
C	 0.6923312259	-0.6631691347	-1.2124278056	-0.108279
C	 1.6306532219	 0.096302123	-2.1547076661	-0.230772
C	 2.9772474409	 0.114441736	-1.4017690885	-0.158734
N	 2.5660027844	 0.1662321113	 0.0128530235	-0.360686
C	 1.3807639384	-0.6673212043	 0.1478055043	 0.196663
C	 1.4774866627	-1.851048201	 0.9536725116	 0.210685
N	 1.571498739	-2.7905626623	 1.6244009049	-0.353608
H	 0.8743729692	 2.0247869765	-0.0801791826	 0.138757
H	-0.8195154832	 1.9343668796	-0.6182291079	 0.119587
H	-0.4183166637	 1.7979285552	 1.0994906439	 0.125714
H	-0.8044031594	-0.5231638923	 0.3623801695	 0.104602
H	 0.228928704	-1.5739339825	-1.5714229741	 0.111873
H	 1.7145865258	-0.4081102453	-3.1195557398	 0.113193
H	 1.2736523554	 1.1133695694	-2.3426546258	 0.116798
H	 3.5532372926	-0.7935400835	-1.6432557588	 0.099626
H	 3.5943136901	 0.9837304002	-1.6492246969	 0.108629
H	 3.2962767327	-0.1031374131	 0.6590805154	 0.237223
123.3473	149.3008	162.594	182.5431	220.693	298.8155	413.465	468.7046	536.2384	557.077	569.1745	620.7036	704.4169	751.9941	804.7164	859.4201	906.7319	938.6839	973.1594	1002.6627	1018.0549	1051.3967	1088.0548	1104.4844	1127.4137	1138.5932	1206.3557	1213.1032	1238.9083	1254.6495	1321.1147	1342.3988	1348.7806	1402.0751	1415.142	1462.439	1486.9066	1495.4547	1508.3505	1521.2252	2337.1421	2970.695	3039.9435	3057.8556	3077.3553	3099.7973	3111.7282	3130.08	3145.919	3186.6697	3575.6823
CC1C2CCNC12C#N	C[C@H]1[C@H]2CCN[C@@]12C#N	
InChI=1S/C7H10N2/c1-5-6-2-3-9-7(5,6)4-8/h5-6,9H,2-3H2,1H3	InChI=1S/C7H10N2/c1-5-6-2-3-9-7(5,6)4-8/h5-6,9H,2-3H2,1H3/t5-,6+,7-/m0/s1
