23
gdb 118253	5.15756	0.60175	0.56489	0.1388	82.75	-0.2548	0.0683	0.323	1993.544	0.203799	-425.405121	-425.394236	-425.393291	-425.442197	39.077	
O	-0.0772322888	 1.439885951	 0.0807241536	-0.424423
C	 0.0105336199	 0.0234281605	 0.1588643074	-0.077085
C	-1.3796239063	-0.5438340309	-0.0966941668	-0.186745
C	-1.4301530381	-2.0732830314	-0.0095702292	 0.116678
O	-0.9665545329	-2.5385653659	 1.2579474333	-0.425956
C	-2.8240641809	-2.6209131873	-0.3517626983	-0.230871
C	-2.9051625949	-4.1322391903	-0.355575657	 0.047798
C	-3.2367282449	-4.8960639234	 0.8985048598	-0.240758
C	-4.2372410662	-4.8297151204	-0.2290278132	-0.284315
H	 0.7878419112	 1.8038402782	 0.2895321344	 0.284446
H	 0.714443079	-0.3738666103	-0.5914655268	 0.081523
H	 0.3646275025	-0.3080904859	 1.144615245	 0.097664
H	-2.0769256799	-0.1102228418	 0.6338289669	 0.092954
H	-1.7214511546	-0.216404929	-1.085717741	 0.104094
H	-0.7083008565	-2.493180603	-0.7238094446	 0.084574
H	-1.5963898966	-2.241498096	 1.924365693	 0.27537
H	-3.5534613185	-2.2136666172	 0.3647908515	 0.081569
H	-3.1162090125	-2.229015925	-1.3353286355	 0.099176
H	-2.1864073111	-4.6095235822	-1.017923949	 0.079827
H	-2.7245405847	-5.8332280705	 1.0849482163	 0.111395
H	-3.4498882255	-4.3266430856	 1.7971192849	 0.097232
H	-5.1199908025	-4.2136895581	-0.0892946317	 0.106583
H	-4.4117314972	-5.7222580755	-0.819733943	 0.10927
41.5766	68.8755	86.9112	107.3567	132.8738	222.0434	255.2425	270.318	285.5289	334.1299	369.4455	409.685	487.9573	578.3788	767.9368	797.0942	803.9686	840.044	866.7498	920.2906	948.2555	967.1848	1022.3351	1036.1176	1060.1352	1071.2265	1074.2036	1102.409	1116.0504	1128.9934	1139.5455	1195.3615	1210.7163	1229.1514	1239.6206	1248.0005	1296.1751	1301.6671	1342.4723	1353.2526	1384.9655	1418.2789	1422.5217	1460.686	1467.7661	1475.2619	1488.4612	1507.7905	1531.3219	2963.1561	2994.9913	3011.3946	3021.4525	3024.4771	3040.573	3071.8566	3127.2331	3130.217	3134.6991	3205.0118	3220.5832	3795.9877	3829.625
OCCC(O)CC1CC1	OCC[C@@H](O)CC1CC1	
InChI=1S/C7H14O2/c8-4-3-7(9)5-6-1-2-6/h6-9H,1-5H2	InChI=1S/C7H14O2/c8-4-3-7(9)5-6-1-2-6/h6-9H,1-5H2/t7-/m1/s1
