20
gdb 63072	3.03709	1.40481	1.33977	2.7851	77.88	-0.2223	0.0771	0.2994	1059.8082	0.171535	-403.096485	-403.088442	-403.087498	-403.128392	32.76	
C	-0.0963234909	 1.5961215255	 0.0263218838	-0.468181
C	 0.0413200784	 0.0878354931	 0.0591667445	 0.376188
O	-1.1487175608	-0.5489926473	-0.3618226489	-0.461471
C	 1.293747284	-0.6741371028	-0.32454637	-0.127448
C	 2.6747806749	-0.0307964396	-0.1358571926	-0.282259
C	 2.9071267736	 0.0078555908	 1.3803623462	-0.009829
C	 2.117329048	 0.9097106938	 2.2598403942	-0.253925
N	 1.7074643694	-0.4912514248	 2.0840453748	-0.108016
C	 0.7139857643	-0.8253123246	 1.0742026545	-0.042302
H	 0.8570051192	 2.125248486	 0.0507112435	 0.126287
H	-0.5880051735	 1.874522199	-0.9141800866	 0.103567
H	-0.7251018387	 1.9631061273	 0.8434024686	 0.133879
H	-1.2592380737	-0.3686502309	-1.3027568956	 0.277492
H	 1.1876289017	-1.4600767467	-1.0654613167	 0.086203
H	 3.4349334783	-0.6605195203	-0.6066608783	 0.112245
H	 2.7585855878	 0.9584621054	-0.5994803358	 0.107359
H	 3.8614866147	-0.3656978993	 1.7445078086	 0.090242
H	 2.4913894103	 1.1364289302	 3.2555541158	 0.112787
H	 1.5234960645	 1.7009568614	 1.8258551302	 0.118134
H	 0.1162116383	-1.6916495662	 1.3321643397	 0.109048
149.2886	183.3393	250.9599	264.8168	284.1945	355.6931	391.1023	414.3779	444.0189	559.1056	649.4671	685.2283	725.2013	768.1484	819.2357	840.6437	860.9279	908.6725	938.8622	974.7895	995.7521	1029.7852	1051.8077	1063.8651	1081.8267	1113.3332	1120.0767	1127.2492	1159.4341	1176.069	1198.8981	1273.3352	1278.128	1303.6371	1308.2887	1326.1102	1386.2376	1414.2572	1416.6032	1486.1558	1491.8664	1505.5153	1521.0999	3027.0184	3045.2819	3086.2793	3087.6929	3119.685	3130.5395	3133.3171	3157.3897	3179.6947	3248.5937	3782.2917
CC1(O)C2CC3CN3C12	C[C@@]1(O)[C@H]2C[C@H]3CN3[C@@H]12	
InChI=1S/C7H11NO/c1-7(9)5-2-4-3-8(4)6(5)7/h4-6,9H,2-3H2,1H3	InChI=1S/C7H11NO/c1-7(9)5-2-4-3-8(4)6(5)7/h4-6,9H,2-3H2,1H3/t4-,5-,6+,7+,8?/m0/s1
