14
gdb 127677	3.58424	1.17547	0.89018	1.9023	65.86	-0.2607	-0.0282	0.2324	1209.4843	0.101394	-470.047217	-470.038896	-470.037952	-470.082291	27.643	
C	-0.0024181349	 1.407049737	 0.0397430173	-0.338623
N	 0.025689664	-0.0406380875	 0.0263510856	-0.055133
N	 0.0543224809	-0.7475555911	-1.1415390108	-0.252798
C	 0.0726848418	-1.9963213341	-0.7183340532	 0.040155
N	 0.0591329857	-2.1584118686	 0.6374965216	-0.374873
C	 0.0295523901	-0.911330232	 1.0510615855	 0.523939
O	 0.0061109236	-0.4456144376	 2.3206081151	-0.242636
C	-0.0224961699	-1.3647254315	 3.3553826257	 0.161441
O	-0.0391653689	-0.9918485904	 4.4822095549	-0.244644
H	 0.8866602379	 1.8009504783	-0.4580588454	 0.159443
H	-0.8935459742	 1.7666054378	-0.4799240637	 0.159326
H	-0.0215676843	 1.7416052078	 1.0769949691	 0.167825
H	 0.0975054927	-2.8292614368	-1.4044585652	 0.137592
H	-0.0266636446	-2.3985052814	 2.9882022533	 0.158985
21.4671	76.4008	119.6604	158.0907	191.8967	302.037	341.7726	483.744	526.6751	674.8572	709.35	737.0225	882.1275	903.2758	992.0517	1030.0611	1049.1164	1069.6232	1156.4634	1211.7	1234.287	1297.2089	1312.669	1393.8612	1447.6359	1465.3283	1480.3562	1503.5534	1569.4774	1573.5381	1883.3652	3060.6954	3085.6001	3130.5212	3166.3934	3264.8737
CN1N=CN=C1OC=O	Cn1ncnc1OC=O	
InChI=1S/C4H5N3O2/c1-7-4(9-3-8)5-2-6-7/h2-3H,1H3	InChI=1S/C4H5N3O2/c1-7-4(9-3-8)5-2-6-7/h2-3H,1H3
