18
gdb 115243	4.18325	1.01067	0.84563	1.6653	70.33	-0.2627	0.0115	0.2742	1323.4878	0.148489	-476.220004	-476.211475	-476.210531	-476.253598	31.563	
O	-0.0628104005	 1.4625782258	 0.0147563971	-0.419764
C	 0.0272614043	 0.0579343802	-0.0687430047	-0.073794
C	-1.3540943693	-0.5843120815	 0.007543483	 0.069607
C	-1.3235994467	-2.1016311182	-0.0221622834	-0.086478
O	-2.6207111287	-2.6733657625	 0.2143421183	-0.253493
C	-3.4550823665	-2.0786888225	 1.1132439958	 0.372494
N	-4.424253361	-2.6897570597	 1.645881221	-0.504201
C	-3.2620612433	-0.5957991272	 1.3674179982	-0.161866
O	-1.9163382797	-0.1724878465	 1.2497395199	-0.271776
H	-0.6069808686	 1.6477173983	 0.7897585036	 0.293299
H	 0.4977739594	-0.180556622	-1.0281132781	 0.114324
H	 0.6589605877	-0.3578323418	 0.7329159412	 0.096681
H	-1.9764619299	-0.2034694867	-0.8191314028	 0.08659
H	-1.0069152955	-2.4787649415	-0.9982237439	 0.124495
H	-0.631194937	-2.4741357329	 0.7437581849	 0.118139
H	-4.4523451604	-3.6601163293	 1.3250985864	 0.223205
H	-3.8971849059	-0.0447849675	 0.6537858371	 0.122805
H	-3.6008037883	-0.3644703447	 2.3770977465	 0.149735
68.4397	114.696	160.8746	181.6689	242.5969	356.157	400.9995	436.3328	455.9056	493.4449	541.2265	550.4001	721.7441	798.0903	857.4979	912.895	936.5402	1000.4899	1023.9299	1075.2664	1095.1212	1100.9208	1125.7673	1138.2417	1165.4975	1228.7577	1266.6528	1284.2765	1293.8895	1333.3664	1372.5416	1390.4491	1408.7755	1436.3776	1444.1518	1478.1316	1495.0731	1503.4538	1759.1332	2970.2901	2973.901	2983.4041	3028.2396	3079.4317	3101.1313	3138.8911	3462.5336	3791.7151
OCC1COC(=N)CO1	OC[C@H]1CO[C]([NH])CO1	
InChI=1S/C5H9NO3/c6-5-3-8-4(1-7)2-9-5/h4,6-7H,1-3H2	InChI=1S/C5H9NO3/c6-5-3-8-4(1-7)2-9-5/h4,6-7H,1-3H2/t4-/m0/s1
