18
gdb 58376	2.20143	1.1979	0.93692	1.3234	76.9	-0.2507	0.0042	0.2548	1294.8807	0.146276	-398.138504	-398.128437	-398.127493	-398.174146	35.003	
C	 0.0447508125	 1.4370327776	-0.1160457049	-0.335505
N	 0.0230839122	-0.0082357017	 0.0870877378	-0.03608
C	 0.848399296	-0.4124661813	 1.2217630146	-0.343754
C	-1.3232234227	-0.550859292	 0.0804857089	-0.122016
C	-1.354250974	-2.0831420846	-0.1569612701	-0.368849
C	-0.7041970654	-2.4490585085	-1.4122892978	 0.276153
N	-0.209151747	-2.7501484938	-2.4112291747	-0.296658
C	-2.0945960132	-0.2369371785	 1.312967953	 0.273426
N	-2.6398923817	 0.0345304326	 2.2955104671	-0.318198
H	 1.0808002701	 1.7616308296	-0.2429046761	 0.135303
H	-0.5031355003	 1.6910848117	-1.02830845	 0.130738
H	-0.3926678147	 2.0023171203	 0.7246619022	 0.121772
H	 0.4784308815	-0.0288187476	 2.1871791723	 0.126432
H	 0.9155328958	-1.5013857716	 1.2843780536	 0.12822
H	 1.8612684503	-0.0331141372	 1.0657832191	 0.137897
H	-1.8547550443	-0.0825714201	-0.7550534927	 0.146583
H	-0.8724869295	-2.6113913338	 0.6704576274	 0.170484
H	-2.3958279556	-2.4194469612	-0.1790983597	 0.174052
48.8374	79.6906	118.2452	132.7743	214.152	236.4531	248.6961	282.5859	351.9291	387.7873	399.8315	426.4426	503.0653	591.6715	613.2074	770.4582	914.5806	946.3237	969.4037	1030.3133	1065.5476	1093.7401	1122.6358	1185.7814	1188.8545	1257.3681	1288.1902	1314.4795	1357.545	1384.07	1446.2014	1463.0681	1480.8046	1486.1941	1499.1625	1500.8168	1516.1373	2343.348	2370.8177	2964.4728	2975.3619	3056.4522	3066.6573	3075.3166	3086.9825	3108.0797	3118.421	3124.9338
CN(C)C(CC#N)C#N	CN(C)[C@@H](CC#N)C#N	
InChI=1S/C6H9N3/c1-9(2)6(5-8)3-4-7/h6H,3H2,1-2H3	InChI=1S/C6H9N3/c1-9(2)6(5-8)3-4-7/h6H,3H2,1-2H3/t6-/m0/s1
