14
gdb 43212	2.36092	1.73083	1.21452	5.3808	66.6	-0.274	-0.0575	0.2165	998.4174	0.100768	-436.669419	-436.661942	-436.660998	-436.702135	27.03	
O	-0.0243985327	 0.0163516263	-0.4285084572	-0.265251
C	-0.0608239453	 1.170796427	-0.1458274293	 0.403931
C	-1.1776827666	 2.1878975991	 0.0968304801	-0.223634
C	-1.5157527378	 2.3165610222	 1.6062849926	-0.085347
O	-0.4376360421	 3.2589686923	 1.8139012969	-0.26585
C	-0.0944180779	 3.2613374683	 0.4292286143	 0.105086
C	 1.0539525302	 2.2594763259	 0.0748740291	-0.312393
C	 2.1078568888	 2.0189496089	 1.0353815845	 0.304469
N	 2.9378175376	 1.8121589388	 1.8126894428	-0.316458
H	-1.9834847758	 2.2673506071	-0.6300056718	 0.12128
H	-2.4894665822	 2.7809795978	 1.7934857263	 0.129231
H	-1.4150655	 1.4139614175	 2.21672562	 0.139253
H	-0.0290201879	 4.2600222012	-0.0038100591	 0.107451
H	 1.4792144118	 2.4994911874	-0.9083181693	 0.158232
60.9014	127.5516	156.3628	216.4906	356.3552	391.1065	514.0962	527.7919	604.3308	674.1751	771.5979	833.8685	844.5918	916.2729	928.1806	978.56	1033.1022	1040.1619	1054.7257	1090.3053	1119.3954	1159.9466	1173.9228	1219.6894	1250.9952	1290.8732	1307.6381	1358.6911	1522.9466	1912.4689	2360.2161	3040.7407	3043.2852	3094.5826	3112.2646	3143.6839
O=C1C2COC2C1C#N	O=C1[C@H]2CO[C@H]2[C@H]1C#N	
InChI=1S/C6H5NO2/c7-1-3-5(8)4-2-9-6(3)4/h3-4,6H,2H2	InChI=1S/C6H5NO2/c7-1-3-5(8)4-2-9-6(3)4/h3-4,6H,2H2/t3-,4+,6-/m0/s1
