15
gdb 74254	3.30938	1.35125	1.09481	2.6516	72.73	-0.2398	0.0066	0.2464	1087.3625	0.112639	-416.75661	-416.748827	-416.747883	-416.788783	30.158	
N	 0.0616815739	 1.3558215835	 0.1999689089	-0.58055
C	 0.0092742192	-0.0014057356	 0.0257656164	 0.397293
N	-1.0771460782	-0.6633695508	-0.1360289364	-0.294627
C	-0.7581603104	-2.108834439	-0.1081603279	-0.189842
C	-1.3323177278	-2.8315525579	-1.2403295495	 0.352328
C	-1.7937507862	-3.4533141915	-2.1582271396	-0.453835
C	 0.7743470192	-2.2095678881	-0.0410986583	 0.033147
O	 1.4300687903	-1.5786633046	-1.1372308694	-0.234816
C	 1.262446275	-0.8330072221	 0.0828555509	-0.083908
H	 0.8890312535	 1.8268038574	-0.132330327	 0.259817
H	-0.8023603852	 1.840083435	 0.0002954513	 0.263834
H	-1.1708169495	-2.5333715986	 0.8193636298	 0.113246
H	-2.2029258006	-3.9919657516	-2.9766262048	 0.195445
H	 1.2713387031	-3.0768107603	 0.3829690758	 0.111956
H	 2.1688527736	-0.5236174156	 0.5948925597	 0.110513
101.9976	130.8227	225.2721	308.2736	348.0253	378.471	428.7494	506.4253	547.4062	578.2127	620.0208	642.624	653.1648	722.7316	811.7423	829.8594	877.1068	884.5328	925.6772	981.8208	1040.2633	1042.1375	1092.1995	1167.7261	1237.5371	1267.033	1284.9085	1318.5092	1389.3608	1446.0875	1626.8593	1711.0495	2244.2095	2993.2161	3156.4672	3168.6206	3505.2191	3567.3586	3681.1221
NC1=NC(C#C)C2OC12	NC1=N[C@@H](C#C)[C@H]2O[C@@H]12	
InChI=1S/C6H6N2O/c1-2-3-4-5(9-4)6(7)8-3/h1,3-5H,(H2,7,8)	InChI=1S/C6H6N2O/c1-2-3-4-5(9-4)6(7)8-3/h1,3-5H,(H2,7,8)/t3-,4+,5+/m0/s1
