17
gdb 99732	1.9871	1.47304	1.03091	5.7723	66.77	-0.2389	-0.0018	0.2371	1198.661	0.134248	-492.324012	-492.314075	-492.313131	-492.35932	35.442	
C	-0.0377646076	 1.4039431687	 0.0100902182	-0.24279
O	-0.0428222327	 0.0029058745	-0.2119836532	-0.217288
C	-1.2720061765	-0.6133386011	-0.0098352642	-0.064519
C	-1.2185125902	-1.9870589573	-0.7048142598	 0.354759
N	-2.4349794805	-2.3951823379	-1.2277743522	-0.531154
O	-0.2364310135	-2.6861025748	-0.7111939997	-0.314706
C	-1.6037259569	-0.7934839976	 1.5052499125	 0.371866
N	-2.7210080522	-1.5367290682	 1.7572041659	-0.518446
O	-0.9476725644	-0.2537551501	 2.3678159703	-0.343905
H	 0.9631708625	 1.7518437317	-0.2535748479	 0.132462
H	-0.7701497432	 1.9094246763	-0.6400377918	 0.093624
H	-0.2468942459	 1.6470187482	 1.0553010111	 0.145046
H	-2.0952670591	-0.0153532418	-0.4424191842	 0.079557
H	-3.0806181019	-1.6963894727	-1.5630405583	 0.261602
H	-2.3961171589	-3.2471452469	-1.7704236948	 0.265322
H	-3.0899948377	-2.1564454874	 1.0523760689	 0.264944
H	-2.9089863313	-1.7540843537	 2.7236755293	 0.263627
53.7466	74.1	130.213	173.2763	192.8523	199.5467	290.3995	360.5186	378.245	412.352	461.1905	492.808	527.3907	580.9646	622.2885	632.2415	708.1454	729.8324	904.0457	923.6294	1024.6143	1091.4567	1115.4466	1176.1884	1182.0707	1231.4033	1238.835	1301.1364	1311.8293	1403.6916	1476.4121	1479.9467	1516.6897	1616.8108	1621.0817	1812.608	1838.5442	2931.9821	2977.2822	3089.1113	3134.9004	3558.9245	3568.7682	3682.2094	3698.3917
COC(C(N)=O)C(N)=O	COC(C(=O)N)C(=O)N	
InChI=1S/C4H8N2O3/c1-9-2(3(5)7)4(6)8/h2H,1H3,(H2,5,7)(H2,6,8)	InChI=1S/C4H8N2O3/c1-9-2(3(5)7)4(6)8/h2H,1H3,(H2,5,7)(H2,6,8)
