17
gdb 104942	2.85196	0.8698	0.72016	1.2162	93.46	-0.2364	-0.0194	0.2169	1560.5231	0.133588	-384.619325	-384.609775	-384.608831	-384.654144	35.064	
O	 0.1395665843	 1.3058047871	-0.3792126393	-0.412463
C	-0.010984931	 0.0096283769	 0.1608047858	-0.124639
C	-1.4368424714	-0.5240156596	 0.0434959879	 0.082352
C	-1.8589494877	-1.1509909835	-1.2782089675	-0.280828
C	-1.6288268749	-2.0303410965	-0.08657131	-0.295432
C	-2.4069281154	 0.2345541133	 0.7763003595	 0.371202
C	-3.1804472203	 0.9228860608	 1.4082497991	-0.265188
C	-4.0623881918	 1.6801557901	 2.1136365541	 0.292416
C	-4.843086889	 2.355901089	 2.7407585817	-0.574619
H	-0.4541205437	 1.8913922762	 0.1045442149	 0.29079
H	 0.6604989523	-0.6394461914	-0.4106421425	 0.106397
H	 0.3028611185	-0.0282016286	 1.2151384286	 0.098687
H	-2.8784569735	-0.9875414103	-1.605566658	 0.132108
H	-1.119231073	-1.1413711344	-2.0710416598	 0.13133
H	-0.7305761653	-2.6380567155	-0.0544008659	 0.124313
H	-2.4884299314	-2.4666265954	 0.4074685924	 0.131844
H	-5.5316736468	 2.9472384317	 3.2914152191	 0.191731
61.0023	92.1274	107.3918	195.7448	247.1836	251.0938	298.1428	356.3222	424.7503	489.7677	502.7552	535.4747	552.3321	592.9435	606.4048	634.5122	784.0608	827.7776	906.0311	929.1221	952.5196	1030.7506	1059.945	1074.0476	1087.4896	1092.8922	1191.7693	1205.3697	1280.7055	1366.2623	1379.528	1423.8463	1465.5343	1491.0573	1504.1104	2177.9269	2346.6723	2988.5096	3075.7768	3138.4523	3143.7307	3224.8572	3239.2612	3504.711	3797.486
OCC1(CC1)C#CC#C	OCC1(CC1)C#CC#C	
InChI=1S/C8H8O/c1-2-3-4-8(7-9)5-6-8/h1,9H,5-7H2	InChI=1S/C8H8O/c1-2-3-4-8(7-9)5-6-8/h1,9H,5-7H2
