21
gdb 95169	2.50131	1.55394	1.13491	0.6025	78.69	-0.2249	0.0833	0.3082	1160.8802	0.181624	-424.212783	-424.203893	-424.202949	-424.245864	34.607	
C	-0.0519183298	 1.4703376781	 0.0872124423	-0.40593
C	 0.0232811666	-0.0446294698	-0.0062436151	 0.109095
C	 0.6733456629	-0.5239746699	-1.2997181675	-0.082344
O	 0.704875285	-1.9416060642	-1.3777349668	-0.263096
C	 1.0193317198	-2.5988699711	-0.1846714622	 0.066241
C	 2.3091730987	-2.3809725278	 0.5789505436	-0.376046
C	 0.9828896778	-1.8932077493	 1.1427679659	 0.371673
C	 0.3667998643	-2.5228027977	 2.366732417	-0.449864
O	 0.8013786856	-0.4960378977	 1.103095702	-0.308513
H	 0.945543528	 1.9112015901	-0.0054989409	 0.125339
H	-0.6898133937	 1.8764323782	-0.7034245662	 0.117154
H	-0.4651764757	 1.7657768174	 1.0549020516	 0.129437
H	-0.9881662528	-0.4787941121	 0.052388699	 0.07418
H	 0.1055855661	-0.1885536459	-2.1728908014	 0.108754
H	 1.6892585799	-0.1028833889	-1.3658857661	 0.095025
H	 0.6364267601	-3.6139929367	-0.225639666	 0.102048
H	 2.7924758458	-3.2470223067	 1.0191132902	 0.108444
H	 2.9836023829	-1.6036586523	 0.2387402279	 0.119779
H	 0.5526354409	-3.6007857341	 2.3896024178	 0.113406
H	 0.793653361	-2.0830628049	 3.2744645813	 0.126385
H	-0.7163972634	-2.3604800446	 2.3876095236	 0.118833
96.6909	165.2261	207.7536	211.0889	246.8216	261.5767	345.8919	376.8489	411.4609	475.7173	500.9944	504.0066	623.2956	752.0277	788.469	844.5448	876.7485	899.0846	936.4711	953.3864	1004.2033	1020.1323	1033.3129	1052.5872	1115.263	1125.3871	1137.117	1152.932	1173.3191	1199.6955	1258.9648	1282.2607	1317.2237	1335.2105	1382.8308	1394.6391	1409.8458	1412.3525	1429.1226	1475.824	1481.8034	1483.3152	1497.9557	1498.7061	1501.5904	2968.6611	2984.5503	3029.9499	3043.8671	3082.9966	3096.3086	3109.0046	3116.785	3124.8479	3132.3535	3154.4964	3225.9988
CC1COC2CC2(C)O1	C[C@H]1CO[C@H]2C[C@@]2(C)O1	
InChI=1S/C7H12O2/c1-5-4-8-6-3-7(6,2)9-5/h5-6H,3-4H2,1-2H3	InChI=1S/C7H12O2/c1-5-4-8-6-3-7(6,2)9-5/h5-6H,3-4H2,1-2H3/t5-,6-,7+/m0/s1
