20
gdb 57503	3.04011	0.92546	0.84661	3.6006	80.75	-0.2912	-0.0851	0.2061	1446.0606	0.16722	-403.182934	-403.172464	-403.17152	-403.218451	37.979	
C	-0.1339253123	 1.5640318581	 0.1193982424	-0.413631
C	 0.0012985663	 0.0302701758	 0.0616827655	 0.240328
C	 0.6381360535	-0.4982098654	 1.3613700729	-0.41363
C	-1.397720723	-0.5937696326	-0.1048105465	-0.405701
C	 0.8358975782	-0.3970804201	-1.1667448081	-0.316291
C	 2.266163567	 0.0827931315	-1.2587440678	 0.280013
O	 2.8601694633	 0.7779302104	-0.47404679	-0.26336
C	 2.9668843895	-0.3914428164	-2.4811258926	 0.232077
N	 3.5037346117	-0.7650439867	-3.4347549	-0.294694
H	 0.835214858	 2.0478103775	 0.2553118776	 0.14132
H	-0.5894166239	 1.955015209	-0.7977473093	 0.107175
H	-0.7783631861	 1.8537248316	 0.9558560983	 0.114542
H	 0.007166897	-0.2448595605	 2.219608322	 0.114544
H	 0.7377397633	-1.58952955	 1.3368804812	 0.107176
H	 1.6266963405	-0.0663563765	 1.5287010694	 0.141316
H	-1.8867367842	-0.241859273	-1.0199205448	 0.112082
H	-1.3456131388	-1.6872544496	-0.1493119624	 0.112084
H	-2.0382337207	-0.324185915	 0.7408612248	 0.118224
H	 0.8756463202	-1.4941764028	-1.2438653988	 0.143207
H	 0.3448941804	-0.0759042653	-2.0978290538	 0.143219
42.2873	110.7533	123.3158	208.5549	220.227	259.0982	268.2722	275.5992	306.9289	329.1402	361.5966	397.076	400.0254	514.73	580.1967	607.4347	757.3755	836.9187	893.6572	923.0758	940.5836	942.6365	966.0786	1043.8299	1064.4721	1078.4879	1180.6558	1235.9303	1272.013	1302.1284	1371.1377	1400.8308	1403.5235	1422.7174	1440.8552	1481.2227	1486.6018	1492.3517	1507.5636	1511.2679	1524.6586	1799.0322	2335.484	3003.289	3025.2002	3030.2668	3031.9326	3036.5807	3090.855	3094.064	3094.9465	3104.2576	3133.1993	3135.9899
CC(C)(C)CC(=O)C#N	CC(C)(C)CC(=O)C#N	
InChI=1S/C7H11NO/c1-7(2,3)4-6(9)5-8/h4H2,1-3H3	InChI=1S/C7H11NO/c1-7(2,3)4-6(9)5-8/h4H2,1-3H3
