19
gdb 30841	2.24824	1.43566	0.91152	2.1961	81.81	-0.1865	0.0269	0.2135	1316.7793	0.158511	-419.25107	-419.241224	-419.24028	-419.286278	34.603	
C	-0.1208223563	 1.4121516813	-0.1446956249	-0.332789
N	 0.5682579118	 0.1496061911	 0.1318342329	-0.394616
C	 0.835647114	-0.6857507349	-0.9390762666	 0.295237
C	 0.6717687231	-2.0128562675	-1.19160329	 0.165933
C	 0.0140051278	-3.067498404	-0.3669642749	-0.50181
N	 1.2612486948	-2.2948353251	-2.4284101692	-0.34248
C	 1.7163912069	-1.1669380651	-2.8595025621	 0.369581
C	 2.4037920254	-0.8618183092	-4.1400819211	-0.489165
O	 1.5016055917	-0.125850334	-1.9967805857	-0.205781
H	 0.4778153749	 2.0001230175	-0.843249917	 0.150101
H	-1.1247132835	 1.27970068	-0.5760097728	 0.113025
H	-0.2077179013	 1.9763450299	 0.7868540205	 0.125688
H	 0.1423309476	-0.3666580192	 0.8892174881	 0.241279
H	-0.669573449	-3.665792903	-0.978059003	 0.137757
H	 0.7417895306	-3.7586480519	 0.0751314021	 0.132624
H	-0.566217543	-2.6287363804	 0.4518222491	 0.103969
H	 1.8341277047	-0.1403875699	-4.7364768716	 0.138071
H	 3.3971653485	-0.4332706782	-3.9685295613	 0.139998
H	 2.5093185514	-1.7856918474	-4.7095364323	 0.153378
58.6117	115.4624	119.4331	142.3238	169.931	198.5362	251.2415	261.3849	317.6404	402.7729	502.9885	603.3322	622.6313	674.7283	688.4601	716.0049	818.4337	964.5845	986.7093	1044.91	1050.9714	1063.6113	1064.3198	1110.4056	1148.5665	1192.4504	1258.1906	1294.8839	1393.1865	1411.8223	1428.4602	1460.3424	1469.0754	1475.0073	1476.4241	1486.057	1491.9547	1498.6303	1517.0771	1642.0625	1696.2456	2988.3649	3023.4763	3036.6867	3077.711	3087.47	3094.9046	3099.2957	3137.0787	3153.6285	3589.7183
CNC1=C(C)N=C(C)O1	CNc1c(C)nc(C)o1	
InChI=1S/C6H10N2O/c1-4-6(7-3)9-5(2)8-4/h7H,1-3H3	InChI=1S/C6H10N2O/c1-4-6(7-3)9-5(2)8-4/h7H,1-3H3
