19
gdb 114444	3.78403	1.29612	1.16652	2.6614	73.59	-0.2343	0.0842	0.3185	1094.2138	0.161302	-422.988001	-422.980654	-422.97971	-423.019799	29.644	
O	-0.0074838175	 1.4686549966	-0.076289247	-0.423929
C	 0.0749160934	 0.0659491829	 0.095068585	-0.075637
C	-1.3054492201	-0.5714177936	 0.0605848609	 0.116441
O	-1.9156077331	-0.2291851786	-1.2039745099	-0.298748
C	-2.7718807747	-1.3004660483	-1.5443897011	 0.113369
C	-2.1684602743	-2.658710518	-1.8454221451	-0.096689
C	-0.7929052503	-2.7495603871	-1.1891781999	-0.239637
C	-1.4051707701	-2.0985905437	 0.0995192599	-0.094453
C	-2.8232756977	-2.3489988765	-0.4907182023	-0.126614
H	-0.5322961395	 1.6073851156	-0.8733550134	 0.293172
H	 0.7208469981	-0.392260112	-0.6685092327	 0.089417
H	 0.5356214507	-0.1080252725	 1.0737617016	 0.104106
H	-1.9095077768	-0.134966785	 0.8727776368	 0.074629
H	-3.6581821009	-0.9928092764	-2.0860293953	 0.103028
H	-2.5395702021	-3.2802132244	-2.6527499945	 0.084484
H	-0.5069061438	-3.7874076168	-1.0034452913	 0.105578
H	 0.0377553362	-2.2320601093	-1.6782671539	 0.10235
H	-1.1449201695	-2.5494184283	 1.0562420597	 0.078038
H	-3.7012297381	-2.7453324547	 0.0013671123	 0.091096
106.6036	156.2322	193.2007	332.3154	413.5697	427.4022	472.8342	511.0558	639.3794	726.63	746.7171	788.7866	815.8203	832.2547	866.2247	918.6917	963.2896	993.7398	1007.566	1010.9472	1022.5777	1052.6141	1068.2357	1073.868	1101.3615	1113.1532	1127.8222	1154.3139	1196.5599	1227.9891	1232.7933	1276.7096	1288.583	1316.8345	1329.8296	1360.8024	1397.5407	1408.9986	1443.6368	1491.2082	1501.8908	2971.7026	2996.3021	3055.4638	3071.8584	3106.8852	3125.9361	3170.798	3190.1955	3204.3376	3799.2062
OCC1OC2C3CC1C23	OC[C@H]1O[C@H]2[C@H]3C[C@@H]1[C@@H]23	
InChI=1S/C7H10O2/c8-2-5-3-1-4-6(3)7(4)9-5/h3-8H,1-2H2	InChI=1S/C7H10O2/c8-2-5-3-1-4-6(3)7(4)9-5/h3-8H,1-2H2/t3-,4-,5+,6+,7-/m0/s1
