19
gdb 56272	5.5816	0.62858	0.59999	2.9531	73.11	-0.2484	0.0559	0.3043	1826.9863	0.15902	-456.360164	-456.350313	-456.349369	-456.396354	34.969	
N	-0.039011314	 1.2030416217	 0.104718584	-0.563818
C	-0.2867493738	-0.1562962654	 0.2711172536	 0.443915
O	 0.1842315054	-0.8045181204	 1.1888293887	-0.392319
N	-1.0853511828	-0.7075890668	-0.7044828626	-0.338198
C	-1.2550693502	-2.1543299571	-0.7633268995	-0.15004
C	-2.2980746854	-2.6664757815	 0.2404333254	-0.211324
C	-2.456139	-4.1628745305	 0.1560608321	 0.096875
C	-3.7566399065	-4.8286141299	 0.2889061178	-0.179163
O	-3.1513128287	-4.6659159473	-0.994603965	-0.242835
H	 0.3478384268	 1.6232963481	 0.9363838397	 0.260028
H	-0.7613850253	 1.7574047667	-0.3306128953	 0.24588
H	-1.1899787626	-0.1968148965	-1.5655941088	 0.242151
H	-1.5692820254	-2.4145781232	-1.7776615435	 0.115591
H	-0.2931785299	-2.6431887634	-0.569234471	 0.124523
H	-1.9762943989	-2.3867938689	 1.2489308996	 0.13156
H	-3.2618028298	-2.1835513517	 0.0452075011	 0.096077
H	-1.5673941887	-4.7431293992	 0.4126581281	 0.096207
H	-3.8092662093	-5.8528543625	 0.6559076854	 0.113724
H	-4.6486189208	-4.2281692323	 0.4649850204	 0.111168
51.4313	53.6908	78.7571	100.3074	191.9409	254.8631	321.4689	343.0658	417.2682	427.3486	452.6172	527.532	570.7088	677.9031	760.1042	782.215	810.6919	871.9856	916.3533	949.9095	1015.2771	1049.4588	1090.2236	1104.4287	1145.1121	1158.1584	1162.7512	1179.9533	1251.791	1288.7615	1300.9592	1329.7735	1348.0171	1409.7394	1446.3032	1470.8782	1486.0222	1531.5612	1532.1109	1627.7247	1797.7112	3035.8432	3047.6221	3079.4244	3084.6065	3093.703	3111.3223	3165.5956	3572.1161	3639.4388	3685.213
NC(=O)NCCC1CO1	NC(=O)NCC[C@H]1CO1	
InChI=1S/C5H10N2O2/c6-5(8)7-2-1-4-3-9-4/h4H,1-3H2,(H3,6,7,8)	InChI=1S/C5H10N2O2/c6-5(8)7-2-1-4-3-9-4/h4H,1-3H2,(H3,6,7,8)/t4-/m0/s1
