16
gdb 35044	2.41528	1.7159	1.59525	2.2444	74.55	-0.2363	0.0137	0.2499	935.9896	0.12525	-400.707687	-400.700016	-400.699072	-400.740138	29.055	
C	 0.1335452055	-1.2273203422	 0.0137533433	-0.457189
C	 0.1015789584	-0.024692366	 0.0052380592	 0.356492
C	 0.051352614	 1.4044151615	 0.0178989571	-0.242497
C	 0.4557440761	 2.1871559612	 1.2627985436	-0.111887
C	 1.0194219814	 1.4669087905	 2.4666630623	-0.08996
O	 2.257254258	 0.7707225524	 2.2334788954	-0.22725
C	 2.9376345537	 0.9752982946	 1.0882861921	 0.137496
N	 2.6098764134	 1.6271611928	 0.0523798767	-0.26228
C	 1.3324550509	 2.255700472	 0.0471080109	-0.006823
H	 0.1690149939	-2.2884211129	 0.0067282766	 0.198779
H	-0.7633317256	 1.8391638729	-0.5545309092	 0.117747
H	-0.1595468926	 3.0460931651	 1.5112224075	 0.102577
H	 1.2115912235	 2.1963924016	 3.2612575845	 0.121747
H	 0.3247910008	 0.7133718438	 2.85232275	 0.130021
H	 3.8991412782	 0.4694838029	 1.1405301637	 0.12724
H	 1.2962880103	 3.1480596798	-0.5685474736	 0.105786
78.2721	115.1702	136.1758	296.3386	319.4069	471.9884	515.8431	539.1104	590.9683	646.4398	658.3576	673.9728	743.2514	786.8906	838.0142	901.7256	935.9481	959.1684	981.1585	1005.4684	1058.9264	1094.2662	1112.2189	1128.7371	1195.9387	1228.5192	1280.4611	1359.7841	1365.3917	1390.1518	1419.5008	1434.6522	1506.7476	1720.6816	2235.2089	3037.1717	3076.2417	3142.9398	3155.759	3166.8241	3170.5382	3504.2721
C#CC1C2COC=NC12	C#C[C@H]1[C@H]2COC=N[C@@H]12	
InChI=1S/C7H7NO/c1-2-5-6-3-9-4-8-7(5)6/h1,4-7H,3H2	InChI=1S/C7H7NO/c1-2-5-6-3-9-4-8-7(5)6/h1,4-7H,3H2/t5-,6+,7-/m0/s1
