20
gdb 87456	2.90604	1.32473	1.20417	2.8033	80.14	-0.2303	0.07	0.3004	1153.009	0.169245	-403.05676	-403.047981	-403.047036	-403.089799	33.941	
C	-0.0270746512	 1.573506015	-0.1342252566	-0.393215
C	-0.0270611896	 0.0710582448	 0.0132167434	-0.122705
N	 1.2977343796	-0.6081034888	-0.1189321961	-0.414928
C	 0.6020873519	-0.6361071599	 1.139118748	 0.435724
C	 1.1398674282	-0.3240031464	 2.5409034514	-0.050094
C	-0.2268901997	-0.7519606773	 3.1241297696	-0.256619
C	 0.2026825012	-1.8056964504	 2.0636853614	 0.290833
C	-0.369822139	-3.1487116595	 1.7395501575	-0.519588
O	 1.5816481558	-1.7386265082	 2.6356668628	-0.346392
H	 0.8595619781	 2.004021075	 0.3383665032	 0.127504
H	-0.0202187708	 1.8614865131	-1.190832821	 0.122449
H	-0.917209138	 2.0126492539	 0.3296447368	 0.115102
H	-0.8760965607	-0.434818618	-0.4481534442	 0.082606
H	 1.215685754	-1.4936797802	-0.613256758	 0.230599
H	 1.8351238587	 0.4436997007	 2.8758802337	 0.099534
H	-0.1829543861	-1.1098316201	 4.1535012312	 0.104525
H	-1.1026747101	-0.1320147524	 2.9141738696	 0.094785
H	-1.3922695613	-3.0455137162	 1.3624726113	 0.128225
H	 0.234039155	-3.6526797702	 0.9778625822	 0.131084
H	-0.392315306	-3.7809353749	 2.6318669537	 0.140571
125.1351	143.9207	174.0304	183.4035	215.2929	260.682	328.8659	441.4306	448.1751	488.7144	586.6057	652.5871	681.4272	733.9935	798.1885	826.595	860.2082	892.7174	916.2641	955.452	1006.1947	1016.9598	1029.2424	1067.229	1083.6461	1099.486	1117.4296	1149.0429	1185.9965	1211.5878	1221.9764	1230.1289	1240.6024	1330.6836	1363.9889	1409.8197	1412.5252	1471.7363	1475.8454	1485.4377	1488.4951	1494.1579	1535.2897	3033.4835	3037.6336	3059.8147	3094.8347	3095.95	3108.5059	3116.7035	3123.301	3139.4729	3147.1997	3491.7184
CC1NC11C2CC1(C)O2	C[C@H]1N[C@]21[C@H]1C[C@]2(C)O1	
InChI=1S/C7H11NO/c1-4-7(8-4)5-3-6(7,2)9-5/h4-5,8H,3H2,1-2H3	InChI=1S/C7H11NO/c1-4-7(8-4)5-3-6(7,2)9-5/h4-5,8H,3H2,1-2H3/t4-,5-,6+,7-/m1/s1
