25
gdb 109772	2.25679	1.16258	0.91125	1.1341	89.94	-0.2341	0.0754	0.3095	1454.4515	0.226249	-389.475765	-389.464468	-389.463524	-389.512156	41.089	
C	 2.6310331704	 1.9708748252	-0.1308884966	-0.231649
O	 1.3851491187	 1.3789730166	-0.4398181928	-0.235602
C	 1.5120720373	 0.1837729747	-1.1495490019	 0.084454
C	 1.5789032411	-1.1321253993	-0.3951675071	-0.074743
C	 1.6455759829	-1.1623646418	 1.1175808463	-0.413034
C	 0.3182095034	-0.7248597548	-1.1507274579	-0.056906
C	-0.984521183	-0.3355738077	-0.4683160369	 0.034045
C	-1.7612535777	 0.6672218825	-1.3356216475	-0.388392
C	-1.8298294613	-1.5810970326	-0.1638218127	-0.390802
H	 3.2481314119	 1.3196326564	 0.5034994375	 0.110621
H	 3.2007370766	 2.2052505143	-1.0431478599	 0.106151
H	 2.4232895948	 2.900742281	 0.4040627614	 0.125467
H	 2.0958549843	 0.2844680504	-2.0666935996	 0.075859
H	 2.1673960141	-1.9095497487	-0.8769806113	 0.077509
H	 1.2062370136	-0.265135043	 1.5586118811	 0.132445
H	 1.1205553456	-2.0327079158	 1.5262273615	 0.11609
H	 2.6861078621	-1.2206117664	 1.4558783482	 0.110892
H	 0.1567946103	-1.2562595956	-2.0878519085	 0.076079
H	-0.7499581416	 0.1624026535	 0.4775871834	 0.081918
H	-2.0048756373	 0.2344436506	-2.3137258255	 0.102951
H	-2.704101371	 0.9537160653	-0.8570561296	 0.10234
H	-1.1707947136	 1.5722432249	-1.5009967658	 0.127908
H	-1.2899810949	-2.2868048157	 0.4752762511	 0.112601
H	-2.762200007	-1.3099021916	 0.3429368239	 0.106377
H	-2.0966013297	-2.1072733123	-1.0884738508	 0.107422
55.0855	99.9408	109.31	151.2841	175.2272	197.5845	228.7441	242.0354	258.8489	264.5647	308.0193	352.8885	404.0324	505.2804	605.9117	619.9014	763.1587	782.2441	829.9226	901.7108	926.8376	961.6849	970.8288	985.9016	1025.0665	1070.1377	1105.0652	1126.9377	1137.0923	1153.8183	1170.0227	1184.2467	1187.0999	1197.6468	1238.8203	1267.5887	1306.1585	1340.932	1369.9863	1392.3579	1395.1683	1414.2011	1417.0901	1446.8993	1484.9455	1485.9234	1487.9772	1491.1909	1498.3455	1499.9618	1505.259	1509.7887	1511.3421	2983.6093	3021.6763	3025.9506	3031.8166	3037.6768	3055.8955	3073.3687	3083.5052	3084.0597	3093.3467	3102.1563	3108.7938	3116.0677	3116.699	3119.7625	3135.4977
COC1C(C)C1C(C)C	CO[C@H]1[C@@H](C)[C@H]1C(C)C	
InChI=1S/C8H16O/c1-5(2)7-6(3)8(7)9-4/h5-8H,1-4H3	InChI=1S/C8H16O/c1-5(2)7-6(3)8(7)9-4/h5-8H,1-4H3/t6-,7+,8-/m0/s1
