17
gdb 49132	3.23142	1.1285	0.86015	1.4461	79.35	-0.2509	-0.0975	0.1535	1283.3836	0.136428	-421.88286	-421.874807	-421.873863	-421.915882	29.922	
O	-0.085761358	-0.0202631089	 0.0682187552	-0.258856
C	-0.0178932677	 1.1861850738	 0.0467082885	 0.107284
C	 1.2588184477	 1.9413776194	 0.0143078037	 0.216352
C	 1.2134377484	 3.2861811595	-0.0155712137	-0.241465
C	 2.4325538455	 4.132352457	-0.014722978	 0.385271
O	 2.3563363157	 5.3418250344	-0.0832594923	-0.315727
C	 3.7565900561	 3.3912330384	 0.1119550925	-0.309533
C	 3.7090488754	 2.0027184641	-0.5407777298	-0.23367
C	 2.5494483805	 1.1679532365	 0.0164519933	-0.300219
H	-0.930815598	 1.820392704	 0.0491029932	 0.084944
H	 0.2657691628	 3.8194415509	-0.0332444357	 0.11673
H	 4.5447782314	 4.0247844187	-0.3019879907	 0.128726
H	 3.9624883058	 3.2877299063	 1.1878045909	 0.128111
H	 3.5796673425	 2.1172601717	-1.6241096381	 0.11473
H	 4.6584548892	 1.4802175452	-0.3903033134	 0.11109
H	 2.7665015102	 0.8530649105	 1.0477394459	 0.129426
H	 2.4090380027	 0.2398635386	-0.5453446314	 0.136808
91.6079	100.55	196.4495	225.8835	258.2762	374.2918	425.1309	441.0184	496.0645	526.947	634.7108	715.3713	764.8643	823.5662	862.2486	910.8958	932.1362	976.339	1034.539	1057.0834	1076.1419	1143.9597	1150.4699	1201.9575	1250.1925	1269.6267	1327.806	1347.4562	1374.2332	1394.7909	1422.3321	1458.0586	1472.6047	1496.5459	1675.6021	1778.6965	1792.8925	2900.1569	3009.4803	3012.3111	3036.5843	3085.2849	3088.8808	3105.1952	3165.9015
O=CC1=CC(=O)CCC1	O=CC1=CC(=O)CCC1	
InChI=1S/C7H8O2/c8-5-6-2-1-3-7(9)4-6/h4-5H,1-3H2	InChI=1S/C7H8O2/c8-5-6-2-1-3-7(9)4-6/h4-5H,1-3H2
