20
gdb 101597	4.67839	0.68895	0.62549	2.1311	73.19	-0.2587	0.0281	0.2868	1773.8232	0.169389	-477.420225	-477.409851	-477.408907	-477.456198	37.031	
C	 0.0903918042	 1.3260514152	-0.1818794746	-0.226292
O	 0.1920439987	-0.0871438356	-0.0011873349	-0.236566
C	 0.5788182824	-0.5017652586	 1.2248314152	 0.39958
N	 0.85915434	 0.320762189	 2.1471229551	-0.537883
C	 0.5856062688	-2.0199996492	 1.2599185817	-0.323918
C	 1.490204707	-2.6389324957	 2.3240233935	 0.074419
O	 1.0982724948	-2.2869838871	 3.661014609	-0.431605
C	 1.5605096831	-4.1648174805	 2.220689229	-0.055212
O	 2.3684149388	-4.7031050197	 3.2413159685	-0.422814
H	 1.0583838188	 1.80840305	-0.0210670283	 0.137758
H	-0.2439384698	 1.4693384414	-1.2103643116	 0.123865
H	-0.6278761566	 1.757386549	 0.5209283606	 0.135235
H	 1.1060469176	-0.1776872288	 3.0001559932	 0.238728
H	-0.4477806517	-2.3700191765	 1.4005029991	 0.118965
H	 0.8864147379	-2.381777261	 0.271000925	 0.133905
H	 2.5051898739	-2.2375520248	 2.2302977961	 0.11318
H	 0.158359207	-2.4856485724	 3.7559941241	 0.286312
H	 0.533163401	-4.5743675597	 2.2555671196	 0.072889
H	 1.996879521	-4.462081088	 1.2608351843	 0.112783
H	 2.1423849532	-4.2078318271	 4.0394311754	 0.286672
49.2776	85.6241	127.3141	142.481	174.4554	191.8892	263.5785	288.5997	334.2236	370.1718	376.4438	458.0743	506.303	551.3526	623.1392	686.344	854.5015	894.4223	898.1271	932.2767	1014.5592	1041.2615	1073.4939	1097.5283	1111.6935	1137.5644	1179.9813	1181.8561	1214.3716	1218.7117	1264.9095	1320.4672	1347.1862	1386.1681	1408.5627	1423.9645	1444.0679	1460.9429	1476.5299	1479.5985	1500.2475	1505.8246	1731.3299	2927.5835	3010.7123	3045.5796	3061.9417	3069.4408	3083.0398	3117.4533	3148.2485	3511.3899	3767.6971	3780.5967
COC(=N)CC(O)CO	CO[C]([NH])C[C@@H](O)CO	
InChI=1S/C5H11NO3/c1-9-5(6)2-4(8)3-7/h4,6-8H,2-3H2,1H3	InChI=1S/C5H11NO3/c1-9-5(6)2-4(8)3-7/h4,6-8H,2-3H2,1H3/t4-/m1/s1
