15
gdb 44327	3.25211	1.88488	1.54887	2.8433	67.56	-0.2487	-0.0424	0.2063	850.5198	0.115247	-416.808031	-416.80184	-416.800896	-416.838614	24.984	
O	 0.0066548183	 0.0566041524	-0.2281400083	-0.292784
C	-0.0160522952	 1.2374997077	-0.0447408631	 0.435625
C	-1.2749784581	 2.1167494105	 0.1525116885	-0.356678
C	-0.7718685709	 3.3374817328	 0.901259829	-0.034182
C	 0.704125353	 3.246466347	 1.0851094677	-0.068891
C	 1.1975376305	 2.1970515552	 0.0838299621	-0.138939
N	 1.2194099372	 2.8914254075	-1.2315047443	-0.196138
C	 0.5706900283	 3.9742861113	-1.0647567566	 0.038497
N	 0.14354472	 4.3363605143	 0.2485339622	-0.145589
H	-1.7311857529	 2.330857917	-0.8188809359	 0.149371
H	-2.0168464616	 1.5734773649	 0.7442407811	 0.140107
H	-1.4131911506	 3.7862943735	 1.6512413943	 0.116849
H	 1.2348321407	 3.515990095	 1.9903207099	 0.111235
H	 2.1329784	 1.6837609002	 0.2958205846	 0.104446
H	 0.3636599414	 4.6674027307	-1.8741450112	 0.137071
101.6874	285.3218	329.8374	428.4931	485.4811	580.315	623.7946	691.3152	717.9887	767.7573	792.4761	832.4961	877.2636	891.4975	950.2563	953.7892	970.4793	1001.7586	1019.3451	1049.9753	1096.5735	1121.6858	1175.9472	1211.1313	1239.7686	1263.9883	1279.5499	1298.594	1319.6356	1369.149	1449.3555	1657.624	1872.7607	3065.261	3108.3633	3146.1404	3175.8418	3187.3114	3197.4037
O=C1CC2C3C1N=CN23	O=C1C[C@H]2[C@H]3[C@@H]1[N][CH]N23	
InChI=1S/C6H6N2O/c9-4-1-3-6-5(4)7-2-8(3)6/h2-3,5-6H,1H2	InChI=1S/C6H6N2O/c9-4-1-3-6-5(4)7-2-8(3)6/h2-3,5-6H,1H2/t3-,5+,6-,8?/m0/s1
