16
gdb 51369	4.40179	1.00074	0.92393	4.4277	68.72	-0.2282	-0.0184	0.2098	1243.9255	0.121388	-437.774459	-437.766505	-437.765561	-437.809043	29.153	
O	-0.0273833689	-0.2374478144	 0.093484319	-0.245939
C	 0.2506816421	 0.7885716787	-0.4692246593	 0.148151
C	 1.2100833084	 1.8304460481	 0.0992765374	-0.2187
N	 1.3281693367	 2.9522972455	-0.8251591751	-0.077306
C	 1.3405268951	 4.3585065573	-0.5551083788	-0.097712
C	 2.3205131925	 4.782159654	 0.6118260621	-0.003359
O	 2.9063491773	 3.6043930735	 1.1743793059	-0.225231
C	 3.435280587	 4.1183756154	-0.0515246868	-0.003359
C	 2.4943137316	 3.6714443344	-1.2416439154	-0.097701
H	-0.1767153273	 1.0603831459	-1.4614833373	 0.081018
H	 0.835908088	 2.1446027544	 1.0785857754	 0.146189
H	 2.174827646	 1.3466923386	 0.2810405988	 0.146166
H	 0.5705671226	 5.0045120928	-0.9623208221	 0.106113
H	 2.2738838434	 5.6752278987	 1.2219700893	 0.117782
H	 4.4906610067	 4.3552552439	-0.0971468322	 0.11778
H	 2.7922265088	 3.6815008131	-2.2842994608	 0.106109
15.0204	74.0961	142.9784	238.4509	294.6241	414.498	482.6692	498.7469	689.8275	703.4919	736.1468	771.6674	777.2567	850.0977	863.3305	868.8156	910.7101	966.2662	978.2282	1035.7763	1039.839	1044.217	1064.0444	1113.0456	1211.5739	1219.2899	1238.0349	1254.5527	1259.7327	1309.9938	1363.3863	1392.5693	1411.8823	1427.3657	1839.1615	2878.1149	3053.128	3099.4823	3167.4238	3178.1907	3194.9078	3210.5716
O=CCN1C2C3OC3C12	O=CCN1[C@H]2[C@H]3O[C@H]3[C@@H]12	
InChI=1S/C6H7NO2/c8-2-1-7-3-4(7)6-5(3)9-6/h2-6H,1H2	InChI=1S/C6H7NO2/c8-2-1-7-3-4(7)6-5(3)9-6/h2-6H,1H2/t3-,4+,5-,6+,7?
