19
gdb 82783	3.53958	1.76313	1.52201	1.2709	77.16	-0.2061	0.0683	0.2744	928.0161	0.162298	-381.999027	-381.992457	-381.991512	-382.029585	27.707	
C	-0.0994244426	 1.4631226926	-0.0009960109	-0.330278
N	-0.0042048843	 0.0101736486	-0.0127108417	-0.103436
C	 1.1107654354	-0.5084553711	-0.8862141175	-0.021072
C	 0.7503910813	-1.923696187	-1.3317281703	-0.228914
C	 0.9604705556	-2.7120052389	-0.0541374472	-0.032317
C	 0.7082709648	-2.0612864265	 1.2582436781	-0.059108
C	 0.7441084621	-0.5245531316	 1.1553394532	-0.000518
C	 2.0456026287	-0.7290747891	 0.3636881473	-0.017057
N	 2.1242928335	-2.2072748389	 0.7109395251	-0.164577
H	 0.8561756436	 1.9834483765	 0.1994792699	 0.090848
H	-0.4730905783	 1.8107615301	-0.9697295557	 0.11916
H	-0.8173630908	 1.7735024861	 0.7655358999	 0.119434
H	 1.4213884685	 0.1707237763	-1.682325993	 0.070953
H	-0.2749072646	-1.9695632713	-1.7064115926	 0.116279
H	 1.432756435	-2.2919781925	-2.1070402168	 0.101914
H	 0.8903936366	-3.795665609	-0.082165762	 0.092738
H	 0.3794782241	-2.6246850915	 2.1256088934	 0.091693
H	 0.6628877653	 0.023187709	 2.0950671454	 0.07359
H	 2.9751352662	-0.1783502618	 0.4842723255	 0.080669
166.2835	233.6202	297.9316	350.6874	418.0267	505.6414	648.264	696.4769	704.7826	757.2167	772.3771	804.9955	854.361	876.4538	900.5903	910.2589	951.1977	985.7246	992.2131	1012.3374	1032.4415	1052.166	1083.9218	1132.6317	1143.8923	1170.1521	1175.4431	1187.2116	1196.8092	1220.6529	1251.9817	1256.4161	1273.4994	1322.0003	1342.6009	1347.9921	1409.0665	1454.2147	1472.9973	1491.1759	1502.1078	2927.1064	3038.2909	3056.0311	3092.1115	3098.2006	3103.7759	3107.954	3142.3887	3151.4745	3164.4777
CN1C2CC3C4C1C2N34	CN1[C@@H]2C[C@@H]3[C@@H]4[C@H]1[C@H]2N34	
InChI=1S/C7H10N2/c1-8-3-2-4-6-7(8)5(3)9(4)6/h3-7H,2H2,1H3	InChI=1S/C7H10N2/c1-8-3-2-4-6-7(8)5(3)9(4)6/h3-7H,2H2,1H3/t3-,4-,5+,6-,7-,9?/m1/s1
