14
gdb 15312	4.44075	1.25015	1.04609	1.8825	64.79	-0.2629	0.0053	0.2682	1063.943	0.107263	-378.744226	-378.736393	-378.735449	-378.778194	27.268	
O	-0.0540480821	-0.0158569963	-0.3788356567	-0.316436
C	 0.0062583452	 1.1697800385	-0.138270843	 0.15412
N	 1.1657336559	 1.8742846396	 0.0068088512	-0.299314
C	 2.4368357843	 1.226807357	-0.0303073354	 0.080534
C	 3.5139304811	 1.6700293003	-0.9722499875	-0.300083
C	 3.6549368129	 1.954851784	 0.5233309332	-0.212699
C	 3.4773249588	 3.3005737716	 0.985456525	 0.284557
N	 3.2695124602	 4.382165887	 1.3424736579	-0.338551
H	-0.8831814017	 1.8152356558	-0.0099297336	 0.089067
H	 1.1189300668	 2.8444039174	 0.283995807	 0.269804
H	 2.3545479317	 0.1691896745	 0.1885764573	 0.151225
H	 4.1783575448	 0.9248710301	-1.3936889236	 0.143425
H	 3.3050803381	 2.5202986285	-1.610681928	 0.147598
H	 4.3701270841	 1.3694643619	 1.0898140963	 0.14675
15.4234	103.859	197.7778	208.0274	241.2217	369.9513	420.9769	513.1747	564.8153	631.2846	727.5886	772.9383	833.5071	898.7477	957.2254	999.4234	1029.886	1069.4054	1119.1758	1121.3318	1146.4774	1206.0232	1261.2619	1353.6992	1387.8079	1429.1356	1476.4091	1539.6146	1806.4081	2346.9292	2958.4628	3147.4229	3179.5686	3200.7572	3243.7158	3603.7861
O=CNC1CC1C#N	O=CN[C@H]1C[C@H]1C#N	
InChI=1S/C5H6N2O/c6-2-4-1-5(4)7-3-8/h3-5H,1H2,(H,7,8)	InChI=1S/C5H6N2O/c6-2-4-1-5(4)7-3-8/h3-5H,1H2,(H,7,8)/t4-,5-/m0/s1
