21
gdb 95686	2.52598	1.37866	1.0698	2.9425	78.05	-0.2656	-0.003	0.2627	1210.0346	0.183358	-424.27022	-424.261353	-424.260409	-424.30391	33.744	
C	 0.666774568	 1.5948830219	 0.0463012246	-0.408753
C	 0.0212662617	 0.2036754979	-0.000210737	 0.036035
C	 0.4260605812	-0.5619998128	-1.2830361601	-0.204756
C	-0.3586050156	-1.8673721892	-1.5584156233	-0.207543
C	 0.1695505575	-3.1241758562	-0.8221721426	-0.301014
C	 0.7275801875	-2.7443752328	 0.5285779223	 0.403794
O	 1.8022595732	-3.0523405199	 0.9612097187	-0.311702
O	-0.1330906036	-1.910059028	 1.2026167737	-0.251294
C	 0.3472570071	-0.5589391251	 1.2905482904	-0.099779
H	 1.7605634054	 1.5227843437	 0.0427511857	 0.121171
H	 0.3698860541	 2.1951950864	-0.8190902532	 0.117915
H	 0.3732522798	 2.1428782394	 0.9480682568	 0.116198
H	-1.0699543481	 0.3289894129	-0.0331329527	 0.080331
H	 0.2638665266	 0.1172102701	-2.1279743825	 0.097917
H	 1.5066399045	-0.7655934209	-1.2699133067	 0.106645
H	-1.409060223	-1.7056116227	-1.2965009746	 0.110509
H	-0.3364126557	-2.0774964015	-2.6327697102	 0.102897
H	-0.6421613173	-3.8485666164	-0.6898623411	 0.130826
H	 0.9669790481	-3.6207579859	-1.3801816444	 0.126518
H	 1.4259519276	-0.5711177972	 1.4901556718	 0.119836
H	-0.1543943089	-0.1062464937	 2.1496295644	 0.114249
60.3622	104.1089	218.0384	243.7613	244.4863	288.0162	295.234	389.3589	420.3294	436.1026	530.3488	622.1942	680.7689	758.3613	812.4601	857.0163	883.2286	911.9212	953.4282	970.5011	1001.4234	1031.8916	1071.4275	1090.4162	1121.6184	1154.4901	1189.072	1224.3559	1240.1359	1255.1454	1301.5153	1317.0145	1346.9901	1356.3377	1380.2541	1386.0871	1402.2893	1417.5173	1463.7877	1484.1132	1489.1729	1498.2325	1503.038	1504.8139	1842.9953	3004.373	3014.1846	3028.5527	3037.8358	3039.8394	3051.382	3061.3292	3080.7723	3093.1919	3102.9793	3104.0821	3112.0015
CC1CCCC(=O)OC1	C[C@H]1CCCC(=O)OC1	
InChI=1S/C7H12O2/c1-6-3-2-4-7(8)9-5-6/h6H,2-5H2,1H3	InChI=1S/C7H12O2/c1-6-3-2-4-7(8)9-5-6/h6H,2-5H2,1H3/t6-/m0/s1
