12
gdb 130778	3.25212	1.49062	1.02213	5.0007	75.11	-0.2627	-0.104	0.1587	1051.2926	0.076589	-435.455695	-435.44839	-435.447446	-435.487723	27.043	
O	 0.013620825	 0.0203080215	 0.4101192682	-0.308547
C	 0.0400115573	 1.1632946597	 0.0558736575	 0.41379
O	-1.1583169001	 1.7473771443	-0.3476153752	-0.253273
N	-1.2986333917	 3.0513753724	-0.7830030689	-0.04956
C	-0.2253870496	 3.7690501813	-0.8113802267	 0.040448
C	 1.0746258957	 3.3152639735	-0.4301177631	-0.196397
C	 1.2295278961	 2.0362714221	 0.0000948154	-0.063247
C	 2.4703692628	 1.4879344037	 0.4002067549	 0.276203
C	 3.5303382679	 1.0290928769	 0.7389844971	-0.362292
H	-0.3825963958	 4.7848369899	-1.1593358423	 0.148915
H	 1.9195605055	 3.9916300653	-0.4874288133	 0.139577
H	 4.4589704068	 0.6101940295	 1.0410766664	 0.214382
94.1672	141.6743	181.921	311.9205	393.7068	460.7197	485.0599	557.2619	578.0842	595.4515	645.6748	658.3595	718.5327	797.7855	891.5537	894.8198	937.8317	972.0947	1044.2377	1075.6823	1246.4286	1345.9261	1361.944	1594.7426	1656.9897	1848.3185	2229.5744	3191.5655	3207.9177	3498.5199
O=C1ON=CC=C1C#C	O=c1onccc1C#C	
InChI=1S/C6H3NO2/c1-2-5-3-4-7-9-6(5)8/h1,3-4H	InChI=1S/C6H3NO2/c1-2-5-3-4-7-9-6(5)8/h1,3-4H
