23
gdb 108236	2.08281	1.54554	1.18754	0.7822	86.81	-0.2298	0.0861	0.3159	1212.3019	0.203937	-388.260805	-388.25068	-388.249736	-388.295286	37.813	
C	-0.2555006203	 1.2991559857	-0.0571481857	-0.258303
O	 0.1254394087	-0.0591280139	 0.0932823719	-0.283497
C	 0.7254975322	-0.586335037	-1.0335833436	 0.403179
C	 2.1553717898	-0.270159689	-1.481540406	-0.299041
C	 2.3080369235	-1.7737975241	-1.8917491335	-0.27756
C	 0.8822984891	-2.0591387552	-1.3884429775	 0.242519
C	 0.4833395321	-3.3174230618	-0.6722173679	-0.495558
C	-0.0760657421	-1.1750984144	-2.1787263961	-0.116424
C	-1.567900874	-1.3563823783	-1.986384661	-0.43049
H	 0.613836066	 1.9432159942	-0.2507660613	 0.11304
H	-0.9756249818	 1.4293033736	-0.8763496961	 0.111831
H	-0.7203530181	 1.607009856	 0.8822577367	 0.125364
H	 2.2731957487	 0.4787885211	-2.2717481295	 0.089786
H	 2.803570922	-0.0085766021	-0.6414339643	 0.104935
H	 2.4827691322	-1.9699423842	-2.9551506406	 0.091825
H	 3.0780070499	-2.2870727829	-1.3098229469	 0.099831
H	 1.1779085504	-3.5400350552	 0.1457570694	 0.116544
H	-0.5195446326	-3.2452909682	-0.2438381693	 0.125082
H	 0.4920991038	-4.1766110294	-1.3546828765	 0.115532
H	 0.2128426048	-0.9137646017	-3.1985837617	 0.063358
H	-1.8313268664	-1.4086564415	-0.92712859	 0.131515
H	-2.1177904474	-0.5138982637	-2.4193288348	 0.112774
H	-1.9284431205	-2.2688335278	-2.4741651956	 0.113758
94.7718	127.6106	169.2452	169.8305	188.8604	214.9782	242.5734	257.5123	287.619	342.4336	414.5399	508.9655	536.6203	622.3803	686.8925	739.7039	777.1763	831.033	930.6297	942.1956	981.0405	1018.1773	1032.2519	1060.7961	1081.0357	1110.384	1124.8792	1152.2053	1177.6038	1183.3807	1200.2785	1218.815	1229.7425	1236.2259	1243.3257	1320.569	1361.0648	1412.2173	1420.9498	1437.46	1478.2529	1481.7632	1486.9515	1488.3017	1494.0372	1499.6964	1504.2591	1509.6671	1517.8307	2994.291	3021.8066	3032.1955	3036.8623	3045.0215	3048.8517	3072.885	3075.7524	3086.6496	3089.0088	3108.8862	3114.575	3119.4067	3122.9026
COC12CCC1(C)C2C	CO[C@@]12CC[C@]1(C)[C@H]2C	
InChI=1S/C8H14O/c1-6-7(2)4-5-8(6,7)9-3/h6H,4-5H2,1-3H3	InChI=1S/C8H14O/c1-6-7(2)4-5-8(6,7)9-3/h6H,4-5H2,1-3H3/t6-,7-,8-/m1/s1
