15
gdb 10810	4.84098	1.60915	1.28413	4.3067	65.16	-0.2426	0.0108	0.2533	917.4212	0.121062	-395.99999	-395.992828	-395.991884	-396.031432	27.068	
N	 0.024892076	 1.3348769457	 0.4458840534	-0.551588
C	-0.0618265851	 0.0099268646	 0.0748786899	 0.348645
N	-1.16304294	-0.6279423806	 0.1255382247	-0.277243
C	-1.1325808054	-1.9615378445	-0.4663159228	-0.253382
C	 0.1437176727	-2.7279108021	-0.2024487905	 0.389079
N	 0.1497210096	-3.9751923576	 0.0054638269	-0.514951
O	 1.2942969886	-1.9882496526	-0.1791333175	-0.239111
C	 1.1990906819	-0.602118515	-0.4944561864	-0.16359
H	 0.8877626778	 1.6367190362	 0.872589092	 0.253272
H	-0.8051215898	 1.6807251808	 0.9083732611	 0.260271
H	-1.9611790121	-2.5580547192	-0.0832810698	 0.145518
H	-1.2786891602	-1.8890173558	-1.5563841839	 0.124808
H	 1.1062497862	-4.3062312904	 0.1497295459	 0.21751
H	 1.2089503667	-0.4584747295	-1.5850566763	 0.137442
H	 2.1046735931	-0.1376740698	-0.0939565769	 0.123319
80.1771	158.8363	255.5037	361.0546	398.5264	430.1772	439.8638	511.3465	540.5089	588.8438	662.8505	774.0025	801.5203	888.5169	913.6596	977.3434	1011.7265	1020.2665	1053.7364	1147.2547	1197.1755	1234.2975	1256.8657	1300.0192	1336.1465	1368.5921	1444.7667	1478.5084	1493.0446	1629.7682	1746.3344	1759.1259	2978.4755	3002.845	3086.5752	3122.2542	3458.8009	3558.3587	3672.5006
NC1=NCC(=N)OC1	NC1=NC[C]([NH])OC1	
InChI=1S/C4H7N3O/c5-3-2-8-4(6)1-7-3/h6H,1-2H2,(H2,5,7)	InChI=1S/C4H7N3O/c5-3-2-8-4(6)1-7-3/h6H,1-2H2,(H2,5,7)
