14
gdb 17935	3.28473	2.56857	2.01842	3.2194	62.89	-0.2197	-0.0591	0.1605	704.4072	0.106821	-378.565421	-378.559149	-378.558205	-378.595319	25.182	
O	-0.2459428249	 1.4989160666	-0.0598984907	-0.45449
C	-0.0720033458	 0.1384926718	-0.0221998509	 0.318914
C	-1.0853530197	-0.9046810251	-0.2274803807	-0.100151
C	-0.7562023855	-1.5629670047	-1.5853189291	-0.186913
N	 0.7298990527	-1.6560790499	-1.5092904668	-0.147415
C	 1.0556144536	-0.8269537717	-0.6010187156	 0.039055
N	 1.4345346004	-1.397619426	 0.7088379994	-0.331973
C	-0.0188628458	-0.9187235883	 1.0051666194	-0.117514
H	 0.5018161257	 1.9248347678	 0.3750882324	 0.291858
H	-2.1095919759	-0.7570999885	 0.1090165497	 0.099682
H	-1.1081915043	-2.5940382254	-1.6871470391	 0.132296
H	-1.1688749952	-0.9802635191	-2.4224545191	 0.11927
H	 1.9990961416	-0.735323134	 1.2530421874	 0.218639
H	-0.3828779868	-0.9795868035	 2.0264327537	 0.118743
225.2374	265.3643	298.8892	328.9209	466.3034	486.9581	559.5499	591.5362	684.175	731.0538	755.4859	867.2037	903.6712	917.6413	948.8777	953.0928	990.847	1026.4004	1080.0321	1098.1772	1112.5178	1146.0134	1187.9344	1250.5545	1274.7101	1295.8406	1332.6662	1470.3072	1487.0032	1609.8776	2998.4273	3080.1014	3146.0688	3166.0534	3362.791	3788.7681
OC12C3CN=C1NC23	O[C@@]12[C@H]3C[N][C]1N[C@@H]23	
InChI=1S/C5H6N2O/c8-5-2-1-6-4(5)7-3(2)5/h2-3,8H,1H2,(H,6,7)	InChI=1S/C5H6N2O/c8-5-2-1-6-4(5)7-3(2)5/h2-3,8H,1H2,(H,6,7)/t2-,3+,5+/m0/s1
