16
gdb 52921	6.00391	0.92045	0.90052	1.8348	84.21	-0.2105	0.0228	0.2333	1336.9888	0.123114	-363.462568	-363.454699	-363.453755	-363.496709	29.042	
C	-0.0445107676	 1.4493721015	 0.0011070601	-0.518512
C	 0.0086929634	-0.0034705835	-0.0084411076	 0.388037
C	 0.0425191957	-1.2092075095	-0.0161288571	-0.471608
C	 0.1182038105	-2.6201530139	-0.0249711527	 0.38904
C	 1.106086659	-3.6367731155	 0.62307573	-0.192202
C	 0.7059994607	-4.6768091475	-0.430645069	-0.113521
C	-0.0666352173	-4.5464775983	 0.856003259	-0.010203
N	-1.059501378	-3.55972878	 0.2401858489	-0.218116
C	-0.2791503371	-3.6514102605	-1.0379851441	-0.120667
H	 0.3521131737	 1.8554628509	 0.9383149313	 0.151555
H	 0.537538962	 1.8784991405	-0.8221435344	 0.149563
H	-1.0764842076	 1.8030395219	-0.101656974	 0.155449
H	 2.0379870232	-3.5166090482	 1.155603853	 0.102829
H	 1.2841394939	-5.491285415	-0.8415758213	 0.10079
H	-0.3059473352	-5.2431029083	 1.6487590251	 0.104307
H	-0.7424528294	-3.5348669544	-2.0105673772	 0.10326
18.1607	96.1712	100.7363	283.8173	309.2871	437.6082	485.8027	505.4382	668.6782	738.8598	750.1211	782.659	812.8366	856.0795	864.6211	902.0919	915.557	959.3824	997.3067	1004.1172	1020.3189	1036.9201	1051.9931	1054.2137	1074.5811	1124.0667	1193.1497	1223.1045	1258.2779	1343.1914	1403.6908	1424.7393	1474.1986	1476.9686	2358.3305	3025.6873	3086.0417	3088.9099	3183.273	3196.0139	3220.9677	3232.9774
CC#CC12C3C4C3N1C24	CC#C[C@@]12[C@@H]3[C@H]4[C@@H]3N1[C@@H]24	
InChI=1S/C8H7N/c1-2-3-8-5-4-6(5)9(8)7(4)8/h4-7H,1H3	InChI=1S/C8H7N/c1-2-3-8-5-4-6(5)9(8)7(4)8/h4-7H,1H3/t4-,5+,6-,7+,8-,9?/m0/s1
