21
gdb 100924	1.92908	1.18775	0.81117	2.5653	75.81	-0.245	-0.0234	0.2215	1458.6631	0.178521	-461.354575	-461.3434	-461.342456	-461.391696	38.655	
C	-0.0166429914	 1.4021441184	 0.2237940679	-0.238956
O	 0.2472754876	 0.0381505442	-0.0127384924	-0.256539
C	 0.6287820168	-0.7072045117	 1.1419430563	 0.13731
C	-0.5797678765	-1.0231775151	 2.026291358	-0.417924
C	 1.3286998639	-1.9763331129	 0.6290033166	-0.137695
C	 2.3966730729	-1.6835628318	-0.4588108842	-0.09842
O	 2.929916863	-2.8716783125	-1.0245093559	-0.416835
C	 1.9929456607	-2.7801816555	 1.7318993439	 0.155226
O	 2.0106421693	-2.4825193498	 2.9017049037	-0.255321
H	 0.8364268223	 1.9015813518	 0.7088562526	 0.106853
H	-0.1902571335	 1.8680089862	-0.749573603	 0.126924
H	-0.9076616201	 1.5604970576	 0.8475402074	 0.111455
H	 1.3583124316	-0.1225914106	 1.7253254525	 0.080165
H	-0.2659871014	-1.5860991945	 2.9065059392	 0.149163
H	-1.0655810085	-0.1054463476	 2.3691714756	 0.115321
H	-1.3160505777	-1.6076661503	 1.4645693818	 0.114002
H	 0.5787065435	-2.6330422265	 0.1591980993	 0.089385
H	 1.9551805585	-1.0281530133	-1.2140846607	 0.126096
H	 3.2460121531	-1.1536302539	-0.0131653042	 0.118639
H	 2.2678356551	-3.2388722971	-1.6185373841	 0.286345
H	 2.5190483907	-3.6846958252	 1.3636644098	 0.104806
54.5696	70.9956	89.6111	102.4783	168.5798	197.1014	212.0831	242.5084	289.4808	309.5369	323.9661	366.668	388.5295	481.6717	539.5983	663.4898	810.1263	877.9183	900.4289	952.6451	996.5669	1047.7005	1091.0002	1099.2376	1114.2713	1137.4638	1169.4306	1182.9093	1193.5942	1222.8282	1277.4255	1317.7321	1362.713	1376.0248	1394.9435	1400.1013	1406.7158	1425.7114	1477.6561	1487.0852	1491.3603	1510.6926	1512.2819	1515.2391	1816.1193	2928.4469	2974.6665	2982.322	2990.8126	3033.1539	3045.8974	3046.0915	3099.3946	3110.143	3112.4222	3149.1253	3820.2089
COC(C)C(CO)C=O	CO[C@@H](C)[C@@H](CO)C=O	
InChI=1S/C6H12O3/c1-5(9-2)6(3-7)4-8/h3,5-6,8H,4H2,1-2H3	InChI=1S/C6H12O3/c1-5(9-2)6(3-7)4-8/h3,5-6,8H,4H2,1-2H3/t5-,6+/m0/s1
