19
gdb 83605	2.34865	1.71617	1.25861	3.9811	78.47	-0.2226	0.027	0.2497	1078.4193	0.158342	-419.178379	-419.169335	-419.16839	-419.21211	33.103	
C	 0.0063204061	 1.3283297195	 0.6225118026	-0.35017
N	 0.0270153038	 0.1353833073	-0.1856188718	-0.072816
C	-1.0397517881	-0.8333522445	-0.4176345434	-0.107777
C	-1.3463464433	-1.7814671236	 0.7591224943	-0.105844
O	-0.2548206762	-2.6557784091	 0.4031265928	-0.316599
C	 0.0721985246	-1.8730160267	-0.7788864479	 0.360569
C	 0.2434356806	-2.6908095811	-2.023945158	-0.484068
C	 1.0696301285	-0.7639114405	-0.4202978128	 0.336551
N	 2.3322073186	-0.7477095017	-0.3528634083	-0.571425
H	 0.9852938866	 1.8128757557	 0.5641334947	 0.138891
H	-0.7413166818	 2.0335143538	 0.2446145081	 0.132935
H	-0.2109036855	 1.1239618278	 1.6811821226	 0.12565
H	-1.8510704869	-0.5017548668	-1.0675878211	 0.089803
H	-1.2425520878	-1.3616589539	 1.7666242938	 0.104714
H	-2.3109630314	-2.2981240998	 0.6782106059	 0.107068
H	-0.6227361635	-3.3366718615	-2.1913889854	 0.122519
H	 0.3854965803	-2.0429166689	-2.8938806451	 0.129318
H	 1.1340278168	-3.3188933233	-1.9223701182	 0.15345
H	 2.6912137285	 0.1393257173	 0.0056936072	 0.207232
99.2283	105.1487	143.6334	185.6457	204.8747	244.4264	278.4064	302.7087	407.2449	511.8757	603.9738	665.1249	721.6473	773.1994	822.1528	852.6482	861.943	922.0342	934.8066	1007.956	1014.9455	1067.8404	1104.6558	1132.135	1144.0509	1161.6253	1168.1395	1211.7642	1277.8459	1297.7823	1326.9294	1352.819	1393.2887	1411.9937	1452.4243	1477.4239	1481.677	1484.8414	1509.5919	1512.5839	1783.8912	2995.8728	3015.7252	3043.08	3063.1851	3069.4188	3098.0179	3109.9285	3116.8999	3122.9669	3451.8854
CN1C2COC2(C)C1=N	CN1[C@@H]2CO[C@]2(C)[C]1[NH]	
InChI=1S/C6H10N2O/c1-6-4(3-9-6)8(2)5(6)7/h4,7H,3H2,1-2H3	InChI=1S/C6H10N2O/c1-6-4(3-9-6)8(2)5(6)7/h4,7H,3H2,1-2H3/t4-,6+/m1/s1
