16
gdb 53874	4.38971	0.81251	0.71069	3.5514	68.78	-0.2499	-0.1002	0.1496	1536.5372	0.120199	-475.04043	-475.030445	-475.0295	-475.077103	33.316	
C	-0.2999665626	 1.2844253651	 0.3161186055	-0.476043
C	-0.00177319	-0.1307056532	-0.1010332879	 0.308779
O	 1.0978900234	-0.5556452305	-0.372078524	-0.273201
C	-1.2081711872	-1.094718258	-0.1713646476	 0.25501
O	-2.3143146078	-0.738080716	 0.1490086752	-0.260755
C	-0.883762724	-2.5124218345	-0.6335728636	-0.194763
O	-2.0371185431	-3.2651214278	-0.9210518275	-0.166758
C	-2.7667361244	-3.6976007764	 0.1351855483	 0.146586
N	-3.8346750531	-4.332855215	-0.0672975801	-0.438766
H	 0.623314905	 1.8627736818	 0.3484171945	 0.14833
H	-1.0093488906	 1.7370365579	-0.3848219668	 0.162924
H	-0.7932454208	 1.2913762531	 1.2932571368	 0.161425
H	-0.2858573913	-2.472304835	-1.5469222019	 0.165034
H	-0.2499091069	-2.9894603103	 0.1294688324	 0.143871
H	-2.3174132984	-3.455890287	 1.1072234918	 0.086117
H	-4.2526928381	-4.6047836941	 0.8197474947	 0.232209
46.3955	50.8004	77.4746	105.5125	141.0672	184.6865	279.6511	315.9115	346.2764	358.3482	513.3456	564.609	601.0495	654.7812	811.0428	820.2619	902.319	934.7419	987.3091	1037.1775	1057.2594	1061.0556	1179.2035	1230.0069	1255.5282	1316.8533	1381.6075	1389.5643	1419.4399	1451.2744	1454.2045	1458.9639	1752.4128	1803.898	1820.7249	3003.8714	3032.3528	3048.444	3109.312	3114.264	3163.8042	3524.253	46.3954	50.8002	77.4749	105.5121	141.0679	184.6864	279.651	315.9115	346.2762	358.3482	513.3456	564.609	601.0494	654.7812	811.0428	820.262	902.319	934.7419	987.3089	1037.1775	1057.2595	1061.0558	1179.2032	1230.0073	1255.5285	1316.8534	1381.6078	1389.5646	1419.4399	1451.2746	1454.205	1458.964	1752.4131	1803.8986	1820.7247	3003.8713	3032.3528	3048.4441	3109.312	3114.2638	3163.8042	3524.2533
CC(=O)C(=O)COC=N	CC(=O)C(=O)CO[CH][NH]	
InChI=1S/C5H7NO3/c1-4(7)5(8)2-9-3-6/h3,6H,2H2,1H3	InChI=1S/C5H7NO3/c1-4(7)5(8)2-9-3-6/h3,6H,2H2,1H3
