17
gdb 33941	3.31608	1.42478	1.23421	2.2082	79.39	-0.2251	0.0312	0.2563	1043.3203	0.137158	-380.784814	-380.777435	-380.776491	-380.816325	30.018	
C	 0.0338964798	-1.2093237599	-0.0466014317	-0.380447
C	 0.050197488	-0.0078563846	 0.0244260799	 0.161854
C	 0.0414330309	 1.4191939815	 0.1143542699	 0.214542
N	 0.282374002	 2.2430625864	-1.1025606158	-0.349962
C	 1.2853687628	 2.2544538476	-0.0329685188	-0.09896
C	 1.2065093584	 3.4434112702	 0.9249956314	-0.221809
C	-0.1339712489	 3.3089193327	 1.649915265	-0.039662
N	-1.3211946226	 3.4364496903	 0.7849837124	-0.307441
C	-0.8405108272	 2.0952622029	 1.1572965664	-0.134876
H	 0.0265935504	-2.2689574925	-0.1127264055	 0.188893
H	 0.5953287582	 1.6211497658	-1.8459953841	 0.235374
H	 2.2471412298	 1.7849080841	-0.2155258159	 0.09807
H	 2.0238255542	 3.3790112303	 1.6511539803	 0.103571
H	 1.2932230816	 4.3967279625	 0.3953151737	 0.1242
H	-0.204288484	 3.6320640846	 2.6841564451	 0.087226
H	-2.1301339544	 3.6654908687	 1.358554715	 0.230058
H	-1.4413558891	 1.4603855695	 1.7977841628	 0.089369
134.9963	147.2369	263.0512	313.5701	402.7242	471.2198	492.3139	522.6311	577.1949	606.7568	662.1046	691.4878	726.1989	802.0025	848.7408	855.824	870.0661	893.6361	923.8337	977.2821	1010.7809	1030.0741	1054.4858	1088.6715	1132.5618	1153.6342	1186.8654	1208.8105	1241.4725	1267.8245	1276.3383	1335.2452	1360.3788	1421.2617	1429.5347	1466.5858	2232.5866	3051.1637	3098.0647	3152.3123	3157.8583	3183.3467	3488.2883	3491.4546	3502.7651
C#CC12NC1CC1NC21	C#C[C@]12N[C@H]1C[C@H]1N[C@@H]21	
InChI=1S/C7H8N2/c1-2-7-5(9-7)3-4-6(7)8-4/h1,4-6,8-9H,3H2	InChI=1S/C7H8N2/c1-2-7-5(9-7)3-4-6(7)8-4/h1,4-6,8-9H,3H2/t4-,5+,6-,7+/m1/s1
