18
gdb 8223	5.25471	1.16856	1.05283	1.8377	68.98	-0.2649	0.0183	0.2832	1162.4577	0.152727	-384.973422	-384.964856	-384.963912	-385.007973	30.014	
C	 0.1322333736	 1.41258071	 0.2134992652	-0.479135
C	-0.1518109887	-0.0672164512	 0.1137713658	 0.421183
O	-0.6669206743	-0.7419234131	 0.9693213066	-0.354198
O	 0.2549593552	-0.5509983165	-1.0810916901	-0.251403
C	 0.0548702098	-1.9516237372	-1.2951364122	 0.180581
C	-1.3321854251	-2.4272667982	-1.7812371463	-0.237626
C	-0.5898446665	-3.3645059358	-2.7763776361	-0.220715
C	 0.6787763335	-2.4809758438	-2.5976451818	-0.256317
H	 1.2052759845	 1.5960567113	 0.1072976234	 0.148952
H	-0.3696157072	 1.9467340946	-0.5982326657	 0.147974
H	-0.2154719276	 1.7852217332	 1.1761498145	 0.14696
H	 0.3799418018	-2.4966239568	-0.4063478227	 0.102166
H	-2.0026378952	-2.8657689438	-1.0411083337	 0.114152
H	-1.8497531264	-1.6180051325	-2.3044162349	 0.107212
H	-0.4507826368	-4.368327428	-2.3669682493	 0.109532
H	-0.9992531931	-3.4534854521	-3.7838803462	 0.105028
H	 0.7205024046	-1.6854821992	-3.3466868358	 0.113426
H	 1.6545451679	-2.9673488907	-2.537322621	 0.102229
40.1245	57.8989	97.9742	129.5746	208.4506	338.4445	369.0653	461.5085	586.3877	611.4944	678.7223	770.4605	788.6382	907.5632	915.6105	921.5268	952.3864	965.4917	1017.6841	1063.8729	1074.389	1108.2128	1158.5966	1194.3826	1243.1115	1247.7002	1254.3682	1265.3526	1275.2617	1298.3136	1385.7805	1404.0524	1469.4109	1474.4999	1476.1053	1487.4911	1509.9212	1821.2168	3056.286	3063.2285	3066.4963	3069.9304	3087.609	3114.685	3120.8042	3124.6644	3136.3614	3168.3318
CC(=O)OC1CCC1	CC(=O)OC1CCC1	
InChI=1S/C6H10O2/c1-5(7)8-6-3-2-4-6/h6H,2-4H2,1H3	InChI=1S/C6H10O2/c1-5(7)8-6-3-2-4-6/h6H,2-4H2,1H3
