20
gdb 126951	4.87736	0.80353	0.7033	1.8443	84.53	-0.1856	0.0362	0.2218	1649.0824	0.171659	-399.358173	-399.348304	-399.34736	-399.394649	34.998	
C	 0.0189429274	 1.5747913203	-0.0623201715	-0.395699
C	-0.1593027224	 0.0644253752	-0.1811472435	-0.109833
N	 0.8774334493	-0.5065490963	-1.0296818564	-0.382657
C	 0.8729782559	-1.8744295813	-1.2692007087	 0.415273
N	 1.3601045755	-2.3553422985	-2.4111539515	-0.335929
N	 1.2600846979	-3.7047935087	-2.2670909251	-0.254709
C	 0.7155506262	-4.0844315282	-1.0880123357	 0.392552
C	 0.5018885022	-5.5159081598	-0.7173029717	-0.504088
C	 0.4454244389	-2.9151665092	-0.4025128825	-0.38428
H	 1.0074947429	 1.8175714829	 0.3381320527	 0.128888
H	-0.0793612058	 2.0609996854	-1.0399069632	 0.115719
H	-0.7408958792	 2.0023554078	 0.5979020321	 0.117494
H	-0.0766926634	-0.3895772765	 0.8133955348	 0.110323
H	-1.1744887166	-0.1662861929	-0.5477902126	 0.08995
H	 1.0221289719	 0.0097783181	-1.8882323034	 0.231626
H	 1.5717035791	-4.2939090825	-3.0190510148	 0.263802
H	 1.4446854732	-6.0743760012	-0.6865197658	 0.134816
H	 0.0444626275	-5.5820761799	 0.2718982415	 0.140815
H	-0.1604312093	-6.0269440439	-1.4258633078	 0.133448
H	 0.0111308789	-2.8348342309	 0.5801234031	 0.092489
23.0294	64.4703	73.892	121.6547	206.1957	257.8842	292.6447	341.1626	355.259	425.8813	462.4775	604.088	653.2759	662.4092	727.6952	769.8433	796.4554	820.0176	934.2188	987.0621	1007.3295	1044.9744	1060.5938	1077.6135	1147.7357	1156.6838	1189.6606	1205.6952	1292.3538	1309.3361	1364.6596	1406.7673	1414.5679	1429.6696	1450.5476	1482.7843	1488.3981	1498.0247	1502.0617	1520.3213	1531.3154	1557.0471	1626.0544	2951.3116	3028.3537	3033.8987	3045.7401	3077.1482	3101.927	3120.9098	3128.883	3267.0615	3566.4243	3684.0067
CCNC1=NNC(C)=C1	CCNc1n[nH]c(C)c1	
InChI=1S/C6H11N3/c1-3-7-6-4-5(2)8-9-6/h4H,3H2,1-2H3,(H2,7,8,9)	InChI=1S/C6H11N3/c1-3-7-6-4-5(2)8-9-6/h4H,3H2,1-2H3,(H2,7,8,9)
