20
gdb 12102	4.32812	1.33441	1.17992	1.0337	75.66	-0.237	0.0928	0.3298	1099.5676	0.175351	-348.968173	-348.959687	-348.958743	-349.001171	32.484	
C	-0.3202608563	 1.4348188017	-0.8451715609	-0.452348
C	-0.0845958984	 0.1183276428	-0.1383761302	 0.451369
C	 1.2724475231	-0.5136839466	-0.1604046368	-0.313767
C	 0.73349718	 0.0738450725	 1.1310943013	-0.317382
O	-1.1293090983	-0.820535291	-0.2394654769	-0.29252
C	-2.2909533292	-0.4844775997	 0.4629980328	 0.137712
C	-3.4410908541	 0.1675934249	-0.2631863309	-0.283477
C	-3.5033718912	-1.2936835484	 0.1378047741	-0.29651
H	 0.5676949212	 2.0698919576	-0.7773408287	 0.113832
H	-0.5400649113	 1.2665580872	-1.9048682066	 0.120455
H	-1.1598943181	 1.9810869588	-0.4050163954	 0.124534
H	 1.3013053092	-1.5942576723	-0.2373411056	 0.122669
H	 2.0746567195	 0.0042795568	-0.6744591157	 0.10866
H	 1.1667273085	 0.9951788433	 1.5056347652	 0.109538
H	 0.4237314983	-0.627384635	 1.8976439714	 0.116922
H	-2.1165296615	-0.2046272514	 1.5011434728	 0.084595
H	-4.0569718329	 0.8852416813	 0.2684856078	 0.109376
H	-3.2959144297	 0.3803183874	-1.3159375259	 0.118884
H	-3.3917278444	-2.0267210747	-0.6530661069	 0.124939
H	-4.1620646945	-1.5914821553	 0.945681115	 0.112517
64.54	97.1417	176.1255	242.2818	293.2997	317.6832	331.8835	406.8669	471.0032	507.2939	707.6623	758.9818	777.2771	812.8714	826.959	859.0238	924.8214	934.2766	943.1617	983.4864	1026.2845	1035.3452	1055.8824	1059.3499	1069.7636	1076.5455	1127.8914	1131.8238	1188.7484	1193.9572	1196.7699	1235.5774	1285.5025	1339.7409	1397.6955	1415.4078	1452.6544	1452.8171	1482.9935	1491.7827	1495.9071	1510.359	3036.2335	3103.3975	3109.5278	3113.6357	3132.2139	3133.8598	3138.3895	3140.7577	3217.0336	3219.4873	3232.2292	3233.8
CC1(CC1)OC1CC1	CC1(CC1)OC1CC1	
InChI=1S/C7H12O/c1-7(4-5-7)8-6-2-3-6/h6H,2-5H2,1H3	InChI=1S/C7H12O/c1-7(4-5-7)8-6-2-3-6/h6H,2-5H2,1H3
