15
gdb 127239	3.89832	1.21662	0.93269	5.35	73.6	-0.234	-0.0484	0.1855	1188.7267	0.113701	-453.989439	-453.981508	-453.980563	-454.022117	28.853	
C	-0.023153785	 1.420172034	 0.0842837121	-0.315595
N	 0.0236240337	-0.0213833138	-0.0231245914	 0.054699
C	-0.0992084243	-0.7728049495	-1.1228998744	-0.119216
C	 0.0152538245	-2.1013684495	-0.7177237716	-0.022816
C	-0.0307672106	-3.3483601612	-1.4229228303	 0.067461
O	 0.0963577117	-4.4283078674	-0.8512925831	-0.340547
C	 0.2108787304	-2.0059547742	 0.6978443024	 0.411714
O	 0.3717145523	-3.0366137632	 1.5222201731	-0.40388
N	 0.2166363411	-0.754563863	 1.1199809015	-0.35287
H	 0.9173856034	 1.7936645743	 0.4973330686	 0.159437
H	-0.1819995274	 1.8447143958	-0.9081599137	 0.141202
H	-0.8402837979	 1.7180370679	 0.7463145234	 0.159454
H	-0.2555040845	-0.3344782482	-2.096819077	 0.154162
H	-0.1870517531	-3.3135260216	-2.5190957446	 0.089092
H	 0.3257150657	-3.8333106604	 0.9531299351	 0.317702
95.7184	135.7699	204.929	209.0195	284.5439	308.4525	356.6577	459.1132	528.1761	611.9845	640.4905	722.4055	756.4497	778.7126	806.4015	853.9931	994.9099	1030.0747	1087.7883	1153.1063	1179.8381	1267.3139	1310.2883	1338.7101	1395.9882	1452.6865	1469.3083	1485.0716	1502.9013	1532.1062	1552.8511	1642.458	1729.3293	2935.2268	3053.4523	3122.4728	3151.0166	3251.8476	3517.3293
CN1C=C(C=O)C(O)=N1	Cn1cc(C=O)c(O)n1	
InChI=1S/C5H6N2O2/c1-7-2-4(3-8)5(9)6-7/h2-3H,1H3,(H,6,9)	InChI=1S/C5H6N2O2/c1-7-2-4(3-8)5(9)6-7/h2-3H,1H3,(H,6,9)
