19
gdb 35608	2.25875	1.74086	1.10456	0.4761	87.35	-0.2255	0.0216	0.2471	1124.3705	0.15911	-348.720016	-348.711736	-348.710792	-348.752759	32.804	
C	-0.3508055679	-0.9140522591	-0.8396050433	-0.458475
C	-0.1938387151	 0.1791764033	-0.3628059605	 0.326354
C	-0.0037628333	 1.5017040979	 0.2101210763	-0.268457
C	-0.3041068652	 1.5951553916	 1.7406845414	-0.276422
C	 0.6634646114	 2.6560996369	 2.2093367963	-0.099024
C	 1.5994232455	 2.9142982544	 1.2963640679	-0.128308
C	 1.4193872128	 2.103712093	 0.0643540505	 0.343491
C	 2.5820535539	 1.3459299735	-0.5426923345	-0.313619
C	 1.9701365631	 2.5080603592	-1.2794540841	-0.315097
H	-0.4973566598	-1.8794739032	-1.2565830189	 0.19354
H	-0.689366811	 2.1944827148	-0.2958948937	 0.10993
H	-1.3540758723	 1.8418028088	 1.9282164356	 0.110935
H	-0.1115481611	 0.6364952098	 2.2395640386	 0.119451
H	 0.6079997242	 3.1016781387	 3.1957217266	 0.094911
H	 2.4286127578	 3.6036420851	 1.4145400706	 0.095299
H	 3.5592096312	 1.4767503203	-0.0898846134	 0.108166
H	 2.3819375608	 0.3466878236	-0.9132924103	 0.129721
H	 1.3632231197	 2.2867581771	-2.1521084441	 0.117238
H	 2.5284308553	 3.4363796544	-1.3465926208	 0.110366
69.9983	140.2368	197.2926	252.6631	291.8384	339.4102	456.6901	484.1555	525.4088	554.9586	613.5879	634.3899	685.1784	746.3507	778.1513	783.3576	879.0418	905.602	942.1937	957.2346	965.2874	972.4534	1015.5346	1025.3858	1053.0402	1062.9567	1079.9914	1126.1548	1166.3202	1193.1929	1266.6441	1282.9561	1299.9316	1308.8445	1350.4177	1393.9802	1462.1576	1488.2088	1496.4664	1679.2876	2232.1705	3009.6673	3025.2573	3071.9633	3121.5863	3131.4506	3182.4548	3203.5499	3209.0675	3223.4158	3503.7558
C#CC1CC=CC11CC1	C#C[C@H]1CC=CC21CC2	
InChI=1S/C9H10/c1-2-8-4-3-5-9(8)6-7-9/h1,3,5,8H,4,6-7H2	InChI=1S/C9H10/c1-2-8-4-3-5-9(8)6-7-9/h1,3,5,8H,4,6-7H2/t8-/m0/s1
