13
gdb 132067	2.39988	1.84611	1.04449	2.9971	66.8	-0.2068	-0.0415	0.1653	1020.3261	0.089309	-497.905903	-497.898548	-497.897603	-497.937605	28.195	
N	-0.0060921731	 1.407351187	 0.1494392961	-0.584416
C	-0.0465644199	 0.0322257484	 0.0529969772	-0.004533
C	-1.1791753141	-0.7223552214	 0.0280920344	 0.239292
F	-2.371402151	-0.1120957313	 0.0327674644	-0.078818
C	-1.139093228	-2.142307781	-0.0042512665	-0.287702
C	 0.0700790782	-2.7345012092	-0.0171582884	 0.063194
O	 1.2209261984	-2.0258691844	-0.0109697384	-0.212844
C	 1.2452757057	-0.6438874713	 0.0101944553	 0.421726
O	 2.3094972739	-0.073437082	-0.0154282512	-0.367397
H	 0.8866700692	 1.7937028517	-0.1248534815	 0.27183
H	-0.8120256932	 1.8999933199	-0.2030450445	 0.259999
H	-2.0523281524	-2.7204666299	-0.0147122076	 0.130658
H	 0.2500373863	-3.8000917663	-0.0355502693	 0.149012
130.3797	204.2531	267.3813	294.9103	349.4794	377.9585	478.5301	509.2808	524.7691	574.544	589.4076	635.4283	710.796	763.2247	764.8445	850.5648	890.7324	973.556	1068.0805	1122.2371	1241.3078	1249.9913	1306.1115	1388.0208	1466.4711	1595.7879	1635.8422	1707.0979	1807.8669	3230.3821	3247.8899	3562.791	3682.1525
NC1=C(F)C=COC1=O	Nc1c(F)ccoc1=O	
InChI=1S/C5H4FNO2/c6-3-1-2-9-5(8)4(3)7/h1-2H,7H2	InChI=1S/C5H4FNO2/c6-3-1-2-9-5(8)4(3)7/h1-2H,7H2
