20
gdb 116974	5.14402	0.45444	0.43989	3.9355	87.65	-0.2452	0.0266	0.2718	2510.0403	0.169152	-403.154126	-403.143177	-403.142233	-403.193959	36.786	
C	 0.328835278	 1.4087879345	-0.2316187715	-0.382198
C	 0.3372767045	-0.110525699	-0.0540521826	-0.154475
C	 0.2484998175	-0.5273720729	 1.4285272422	-0.33594
C	 0.2543572299	-1.9727263741	 1.6243677551	 0.032755
C	 0.2555099543	-3.1711781053	 1.7451664646	 0.089885
C	 0.2588851524	-4.6181870635	 1.9294674302	-0.288084
N	 1.5629116889	-5.1189944814	 2.3563938456	-0.268562
C	 2.1456960792	-6.2044963324	 1.7836814431	 0.160969
O	 1.6408148668	-6.8960645419	 0.9245364573	-0.322679
H	 1.1762920666	 1.8745615544	 0.2838051061	 0.115875
H	 0.3918219963	 1.6823745248	-1.288930509	 0.117408
H	-0.5882482768	 1.85164694	 0.1727814085	 0.116606
H	-0.5013007336	-0.5593539842	-0.5977575362	 0.111746
H	 1.2487190713	-0.5372448633	-0.487041117	 0.111165
H	 1.0862956941	-0.0811826384	 1.9816357474	 0.12585
H	-0.6618640333	-0.1020112434	 1.8723021198	 0.127994
H	-0.5151660138	-4.9047053444	 2.6550361791	 0.137846
H	 0.0251454792	-5.1425573666	 0.9972622533	 0.172498
H	 2.0829062973	-4.5805778112	 3.0304164834	 0.253291
H	 3.1538371811	-6.3958158916	 2.2013603507	 0.078049
10.8837	21.2968	66.721	97.7453	119.7032	234.6211	240.9533	245.9272	272.0335	315.2287	357.4509	482.5632	522.0856	536.7943	736.4668	742.0516	832.4113	871.4	897.1378	972.0286	1031.8326	1039.3775	1042.1503	1108.4608	1121.7536	1165.9628	1204.3244	1254.9382	1259.3204	1306.4524	1322.3995	1374.4436	1381.7661	1413.3763	1426.1432	1470.9918	1490.6839	1491.6934	1499.1791	1508.6392	1518.1227	1803.7115	2368.4506	2939.1796	3006.3954	3009.4593	3029.6527	3036.2867	3042.7812	3074.2203	3081.138	3100.4724	3106.8492	3643.0813
CCCC#CCNC=O	CCCC#CCNC=O	
InChI=1S/C7H11NO/c1-2-3-4-5-6-8-7-9/h7H,2-3,6H2,1H3,(H,8,9)	InChI=1S/C7H11NO/c1-2-3-4-5-6-8-7-9/h7H,2-3,6H2,1H3,(H,8,9)
