19
gdb 17553	3.21693	2.0605	1.63308	1.5804	75.29	-0.2217	0.0837	0.3055	879.0181	0.165549	-327.870493	-327.862933	-327.861989	-327.901811	29.873	
C	 0.0593873548	 1.5454074467	 0.0885744562	-0.495797
C	-0.021557391	 0.0542974145	-0.0460761293	 0.273689
C	-0.9126853819	-0.806932903	 0.7621276853	-0.283412
N	 0.5441550851	-0.9083715179	 0.9946812238	-0.167635
C	 1.0677962328	-1.7636404953	-0.1311810294	-0.244698
C	 0.5629594638	-0.7673954344	-1.1792026904	 0.328017
C	 0.0194589876	-0.9989324425	-2.5588670463	-0.332108
C	 1.3232920126	-0.2550135637	-2.3626462637	-0.33451
H	 1.064351092	 1.9103664815	-0.1475385848	 0.124638
H	-0.6486683422	 2.0404273905	-0.5871362229	 0.118909
H	-0.1824006889	 1.8512140246	 1.1104397374	 0.129914
H	-1.4404176901	-0.3493290786	 1.5941001224	 0.114193
H	-1.4327994852	-1.643649951	 0.2988756712	 0.106118
H	 2.1571596618	-1.8334936994	-0.0719524549	 0.110379
H	 0.6412618888	-2.7735175546	-0.1475435872	 0.100122
H	 0.0611274564	-2.0069137941	-2.9593008276	 0.112538
H	-0.8506444999	-0.4305150413	-2.8723917364	 0.111846
H	 1.3293501829	 0.814640841	-2.5475777726	 0.114491
H	 2.2483518407	-0.756072153	-2.6310418408	 0.113305
137.7763	172.9654	216.8842	230.9213	326.6809	372.4212	463.4553	484.9046	555.9471	637.1667	737.2229	776.3499	827.1751	863.6568	873.8471	911.3174	939.6955	968.1012	997.9407	1022.3308	1053.5896	1076.3898	1082.4313	1098.7116	1123.0538	1127.4857	1187.9281	1190.4792	1198.9864	1284.4668	1299.9052	1361.7757	1403.3862	1417.3356	1464.7576	1480.4712	1492.11	1495.2961	1506.6733	1512.7879	3026.7405	3031.062	3088.6965	3093.922	3095.435	3112.917	3120.7452	3124.5015	3187.9257	3198.0062	3212.9981
CC12CN1CC21CC1	C[C@]12CN1CC12CC1	
InChI=1S/C7H11N/c1-6-4-8(6)5-7(6)2-3-7/h2-5H2,1H3	InChI=1S/C7H11N/c1-6-4-8(6)5-7(6)2-3-7/h2-5H2,1H3/t6-,8?/m1/s1
