15
gdb 127602	3.35941	1.46121	1.02498	5.0221	73.78	-0.2387	-0.0543	0.1844	1099.6848	0.11388	-450.174273	-450.16606	-450.165116	-450.20707	30.125	
C	-0.0425688144	 1.4461511721	-0.0116902617	-0.310143
N	-0.0032656264	-0.0111294356	-0.0104247239	-0.052556
N	-0.0369492416	-0.6202208663	-1.1865807973	-0.159983
C	-0.0009032512	-1.9189940235	-1.1906340693	-0.068299
C	 0.0686983948	-2.6532131225	 0.0460559559	 0.388634
N	 0.1341646401	-4.0083178517	 0.0104147636	-0.555547
N	 0.095831738	-2.0525007614	 1.2092766555	-0.406746
C	 0.0669543772	-0.6803368382	 1.2495080679	 0.447317
O	 0.0915067635	-0.0071006628	 2.2583696579	-0.390008
H	 0.8517030036	 1.844822692	 0.4732687069	 0.15333
H	-0.095623797	 1.7717368267	-1.049485365	 0.141842
H	-0.9122632755	 1.79750111	 0.5487108404	 0.152943
H	-0.0237109259	-2.4061816727	-2.1589334436	 0.117768
H	-0.0778620322	-4.5114214889	-0.8328194781	 0.26734
H	 0.0599585971	-4.4966573469	 0.888300681	 0.274107
99.441	117.7887	187.3002	241.8982	261.393	321.6189	353.6436	444.519	496.9297	539.7082	561.3346	614.8919	744.0326	748.3417	793.5395	801.5489	845.4436	964.7558	1041.6874	1082.2583	1150.4891	1221.9476	1251.5304	1302.4465	1376.1442	1437.3571	1470.3262	1480.5669	1508.0397	1556.4123	1621.6792	1661.6528	1797.6197	3058.8761	3123.5618	3172.6056	3188.927	3606.3393	3738.8502
CN1N=CC(N)=NC1=O	Cn1ncc(N)nc1=O	
InChI=1S/C4H6N4O/c1-8-4(9)7-3(5)2-6-8/h2H,1H3,(H2,5,7,9)	InChI=1S/C4H6N4O/c1-8-4(9)7-3(5)2-6-8/h2H,1H3,(H2,5,7,9)
