19
gdb 111625	3.12532	1.24757	1.18913	1.9323	74.02	-0.2393	0.0775	0.3168	1125.0204	0.160474	-422.972197	-422.964362	-422.963418	-423.004684	30.898	
O	-0.154717788	 1.6189347144	 0.1793757481	-0.421538
C	 0.0814469698	 0.2156362058	 0.1598829043	-0.109438
C	-1.2336891954	-0.536528557	 0.0923528758	-0.065853
C	-1.7881860499	-1.1344523111	-1.1771125072	 0.055376
O	-0.8595254355	-1.4744661629	-2.1857859511	-0.265485
C	-0.2552343674	-2.7205490934	-1.9019208838	 0.102033
C	 0.8520648224	-2.7893709239	-0.882569251	-0.332336
C	-0.5771353444	-3.1028452328	-0.4809401993	-0.068059
C	-1.5301414277	-2.035206087	 0.0082177551	-0.122313
H	-0.5431847074	 1.8537415076	-0.6698388205	 0.284055
H	 0.7290020374	-0.0501427886	-0.6823385961	 0.107759
H	 0.6168379405	-0.0058666875	 1.0887281425	 0.11443
H	-1.9843945954	-0.0242872061	 0.6921535715	 0.098007
H	-2.7668308819	-0.8679582839	-1.5656440645	 0.094697
H	-0.2693996909	-3.4033386812	-2.7455424886	 0.099684
H	 1.5187286333	-3.6423508906	-0.9686185003	 0.113178
H	 1.3355099204	-1.8888977148	-0.5336610192	 0.127716
H	-0.8244807296	-4.1215934732	-0.2074936101	 0.093707
H	-2.3480781203	-2.3847021239	 0.6272816244	 0.094383
78.0964	158.5775	183.7059	251.3328	308.0425	356.8948	426.5902	535.834	616.5123	700.6975	714.2771	733.6753	776.8553	791.683	831.2404	888.3091	933.2926	969.5145	985.9346	1015.039	1031.3566	1048.9329	1058.8179	1075.1802	1097.1752	1099.4902	1112.7991	1120.6191	1155.1511	1205.1791	1222.1248	1237.7218	1303.5521	1338.044	1345.9601	1380.371	1389.8179	1415.1511	1433.7732	1480.6092	1514.0298	3039.4114	3085.6853	3123.4714	3141.4889	3146.284	3157.8832	3171.3146	3185.6292	3254.0442	3812.6081
OCC1C2OC3CC3C12	OC[C@H]1[C@H]2O[C@H]3C[C@H]3[C@@H]12	
InChI=1S/C7H10O2/c8-2-4-6-3-1-5(3)9-7(4)6/h3-8H,1-2H2	InChI=1S/C7H10O2/c8-2-4-6-3-1-5(3)9-7(4)6/h3-8H,1-2H2/t3-,4-,5+,6+,7-/m1/s1
