23
gdb 118250	3.51972	0.72785	0.63363	0.7308	83.42	-0.2526	0.0834	0.336	1830.558	0.203793	-425.398981	-425.388274	-425.38733	-425.435667	38.398	
C	-0.4262081561	 1.2113299651	-0.6368875996	-0.222919
O	-0.5498722665	-0.1888158043	-0.585837507	-0.235836
C	-0.8787961358	-0.6655041562	 0.6999118884	-0.061149
C	-0.9977988505	-2.1848169526	 0.6377343364	 0.099865
O	-1.1719905936	-2.6083450943	 1.9835667279	-0.448236
C	-2.1443525508	-2.6445112095	-0.270295585	-0.214582
C	-2.2437585287	-4.1525103399	-0.3790559793	 0.006178
C	-3.018882368	-4.9586657217	 0.6475368178	-0.272506
C	-3.5409023366	-4.8126598879	-0.7603354333	-0.282758
H	-0.168208661	 1.4809966764	-1.6640461379	 0.125217
H	-1.3663134897	 1.7156384305	-0.3618934468	 0.103811
H	 0.3658071626	 1.5759799934	 0.0363127232	 0.104752
H	-0.1028214155	-0.3949980778	 1.4336933648	 0.095047
H	-1.8306398861	-0.2323932286	 1.0515513187	 0.08801
H	-0.0492642889	-2.5747878167	 0.2303762725	 0.06902
H	-1.3641157815	-3.5510025103	 1.9615456481	 0.291628
H	-3.0864905876	-2.2402291441	 0.1238512218	 0.090589
H	-1.9919773861	-2.2028679323	-1.2613184468	 0.116827
H	-1.3460576782	-4.6306762877	-0.7657616805	 0.085695
H	-2.6337285329	-5.9255543463	 0.9535791008	 0.113263
H	-3.5380219982	-4.4167250914	 1.4316014306	 0.120561
H	-4.4053317616	-4.1751115049	-0.913949267	 0.114377
H	-3.5075810287	-5.6791376687	-1.4112182179	 0.113147
53.225	73.1983	89.4191	112.6582	164.6692	184.4531	236.068	285.8808	317.0945	341.9957	388.5826	429.6191	491.8907	537.4964	779.2904	803.9679	829.2499	872.4471	892.4917	944.7536	991.2167	997.2988	1037.6228	1058.7167	1061.4593	1079.5348	1128.7125	1144.3971	1166.054	1175.4713	1192.7781	1201.3737	1222.3469	1226.5342	1242.8256	1265.0126	1282.3269	1307.0691	1372.5281	1402.338	1417.7215	1450.9727	1468.9942	1477.7137	1481.8258	1485.3298	1504.0734	1505.8682	1528.2089	2953.7311	2960.3437	2972.796	3000.5584	3013.4196	3021.1505	3076.5496	3112.1099	3125.8643	3127.7368	3134.6664	3206.2379	3222.0022	3822.9613
COCC(O)CC1CC1	COC[C@@H](O)CC1CC1	
InChI=1S/C7H14O2/c1-9-5-7(8)4-6-2-3-6/h6-8H,2-5H2,1H3	InChI=1S/C7H14O2/c1-9-5-7(8)4-6-2-3-6/h6-8H,2-5H2,1H3/t7-/m0/s1
