18
gdb 121717	7.10829	0.53774	0.50458	1.5626	72.61	-0.2723	-0.0223	0.25	2085.8842	0.145026	-476.250425	-476.240064	-476.23912	-476.28759	34.685	
O	 0.0849857488	 1.3618158325	 0.006471194	-0.419039
C	 0.0555529027	-0.0549452283	 0.0012563423	-0.076675
C	-1.4053713303	-0.4857164157	 0.0115106262	-0.165235
C	-1.5559434969	-2.0052580498	 0.0071368285	-0.341486
C	-2.9960045464	-2.4552340275	 0.0184211834	 0.46896
O	-3.9662440768	-1.749696639	 0.0336596468	-0.330319
O	-3.0488998173	-3.8312824463	 0.009546933	-0.209548
C	-4.2834040387	-4.4311950307	 0.0188144502	 0.115245
N	-4.3264073293	-5.6881637473	 0.0106838803	-0.419585
H	 1.0035919967	 1.645744223	-0.0011374629	 0.287736
H	 0.5590525396	-0.4634146802	-0.8911470193	 0.08572
H	 0.5734671496	-0.4702335371	 0.8822099817	 0.085706
H	-1.8969524966	-0.0624670002	 0.8929567888	 0.125185
H	-1.9110914324	-0.055935708	-0.8587319167	 0.125025
H	-1.0773435692	-2.4594200557	-0.8699615081	 0.142454
H	-1.0622331218	-2.465518796	 0.8726917607	 0.14252
H	-5.1040326277	-3.7138341902	 0.0323620001	 0.143497
H	-5.2969972242	-5.9987541337	 0.0188665508	 0.239838
35.9265	70.1375	91.8937	111.6849	121.0951	143.2833	225.4208	263.7676	291.0774	346.416	481.801	553.9464	567.207	734.7621	761.152	853.1241	875.6711	943.2641	1006.7735	1030.6455	1072.1193	1073.1568	1093.4243	1117.9681	1151.5826	1209.1606	1244.6484	1266.7161	1295.6774	1311.5913	1313.3766	1387.0587	1402.0024	1454.369	1469.5139	1496.2566	1528.8038	1746.4449	1844.0144	2953.9216	2978.2537	3033.2582	3061.5455	3061.6497	3105.6588	3139.99	3506.5153	3831.5136
OCCCC(=O)OC=N	OCCCC(=O)O[CH][NH]	
InChI=1S/C5H9NO3/c6-4-9-5(8)2-1-3-7/h4,6-7H,1-3H2	InChI=1S/C5H9NO3/c6-4-9-5(8)2-1-3-7/h4,6-7H,1-3H2
