13
gdb 43037	2.92815	1.67694	1.22866	6.0601	68.15	-0.2531	-0.0269	0.2262	956.0456	0.090067	-415.555544	-415.54875	-415.547806	-415.5869	25.931	
O	-0.0826323353	 0.0549626087	 0.0075116181	-0.305334
C	-0.0686790551	 1.2435365582	 0.0757994032	 0.452954
C	-1.1199428339	 2.3610264213	-0.0757476006	-0.19754
N	-0.9225997284	 3.1148225775	 1.21488141	-0.318818
C	 0.3603453134	 3.558203076	 0.627662307	-0.068257
C	 0.0267998283	 3.2036056067	-0.7728604603	-0.125131
C	 1.0224108977	 2.291955027	 0.0439552653	 0.076175
C	 2.4257957706	 2.1562689709	-0.1215417938	 0.183893
N	 3.5689056288	 2.0385756966	-0.2578164524	-0.337948
H	-2.1271413471	 2.1649068414	-0.4288389722	 0.117517
H	-1.5482170273	 3.9202135963	 1.2015030423	 0.236232
H	 0.979578273	 4.3446644352	 1.0397331421	 0.139742
H	 0.2046997752	 3.6110832941	-1.7580871388	 0.146514
134.8908	152.7645	185.1282	379.1359	449.3326	491.2647	546.3131	611.7404	633.8468	692.1203	775.6071	788.2467	844.5482	851.845	927.4443	939.0734	967.8338	987.0024	1032.5124	1067.5759	1139.8379	1149.5329	1167.6952	1230.8056	1295.0557	1351.4655	1394.8136	1910.5352	2351.305	3187.047	3208.4621	3227.1205	3462.7451
O=C1C2NC3C2C13C#N	O=C1[C@H]2N[C@@H]3[C@H]2[C@]13C#N	
InChI=1S/C6H4N2O/c7-1-6-2-3(5(6)9)8-4(2)6/h2-4,8H	InChI=1S/C6H4N2O/c7-1-6-2-3(5(6)9)8-4(2)6/h2-4,8H/t2-,3-,4+,6-/m0/s1
