20
gdb 37367	2.42031	1.92243	1.843	1.8994	76.05	-0.2313	0.067	0.2983	912.071	0.17576	-403.128937	-403.122229	-403.121285	-403.159635	28.522	
C	-0.0086266006	 1.5185166261	 0.2503283867	-0.189695
C	 1.3841644841	 2.1511817094	-0.0102908343	-0.199057
C	 2.2090375756	 1.3837052927	-1.055644877	 0.070155
O	 2.2457410889	 0.0032681536	-0.6512519183	-0.267794
C	 0.9536773916	-0.483766405	-1.0560449284	 0.070155
C	-0.0686205599	-0.0099763624	-0.010755113	-0.199057
C	 0.8012265253	 0.0840904058	-2.4784072837	-0.047031
N	 0.1526804491	 1.4106862405	-2.5840267265	-0.335746
C	 1.6259282291	 1.3109195476	-2.4781442278	-0.047031
H	-0.3005414379	 1.7145260355	 1.2879558299	 0.079216
H	-0.7398154114	 2.0101769008	-0.3876923279	 0.126554
H	 1.2707017627	 3.1997725936	-0.3073914595	 0.092709
H	 1.9776264685	 2.1417265674	 0.9105633391	 0.099069
H	 3.2408786282	 1.7453972432	-1.0757591658	 0.072968
H	 1.0082945124	-1.5757926004	-1.0764684856	 0.072968
H	 0.1639918629	-0.5562263042	 0.9099844611	 0.099069
H	-1.0823928545	-0.3006827596	-0.3081453528	 0.09271
H	 0.7616936058	-0.5930217854	-3.3245395702	 0.090244
H	-0.0961775817	 1.5781795418	-3.5573306416	 0.229349
H	 2.2381787516	 1.603401459	-3.3240681744	 0.090244
177.1147	208.3769	296.5507	359.8179	435.2518	494.6042	566.8479	631.8406	714.1316	736.8308	768.6343	800.7134	848.7573	860.3003	885.2966	896.1051	903.8229	919.8378	974.9653	985.5615	1035.3299	1066.0716	1068.7899	1082.9713	1113.021	1134.0625	1166.4898	1200.7385	1229.8528	1234.4637	1275.1324	1301.8456	1334.5764	1335.4547	1348.1064	1370.7218	1375.5795	1391.7854	1393.0309	1415.0628	1473.3533	1473.9632	1500.0628	3028.6216	3033.4685	3046.5817	3069.8019	3071.1567	3074.642	3074.9648	3145.607	3165.2375	3175.4765	3478.4778
C1CC2OC(C1)C1NC21	C1C[C@H]2O[C@@H](C1)[C@H]1N[C@@H]21	
InChI=1S/C7H11NO/c1-2-4-6-7(8-6)5(3-1)9-4/h4-8H,1-3H2	InChI=1S/C7H11NO/c1-2-4-6-7(8-6)5(3-1)9-4/h4-8H,1-3H2/t4-,5+,6+,7-
