19
gdb 40568	3.99407	1.03108	0.89204	2.195	79.29	-0.2383	0.0077	0.246	1312.9437	0.160236	-423.006903	-422.998837	-422.997893	-423.039999	30.565	
C	 0.2412523522	 1.4693946177	-0.0570671836	-0.191913
O	 1.1998418663	 0.4350686776	-0.2517665912	-0.233194
C	-0.1638186029	 0.0514933102	-0.0096115251	-0.007234
C	-0.4520716475	-0.6851572672	 1.2457054827	 0.314915
C	-1.4456635829	-1.5757853048	 1.3005284798	-0.181924
C	-1.7660354422	-2.3642794127	 2.5393321795	-0.119587
O	-0.7709253333	-2.2745216009	 3.5381558438	-0.244495
C	-0.3029277375	-0.9490437557	 3.7182265054	-0.087352
C	 0.4066600554	-0.4355570852	 2.4641821914	-0.305208
H	 0.3443139932	 2.040965037	 0.8634853419	 0.114522
H	-0.0035469383	 2.0580016092	-0.9408065886	 0.117891
H	-0.6753565348	-0.3377300333	-0.8909388521	 0.090566
H	-2.0751065187	-1.7606534724	 0.432600444	 0.086589
H	-2.7477970559	-2.0454231282	 2.9389845121	 0.096705
H	-1.8590332066	-3.4300631018	 2.2976001145	 0.120037
H	-1.1410442801	-0.2788180023	 3.9734049833	 0.086576
H	 0.3767705245	-0.9793124579	 4.5741969677	 0.108397
H	 1.3759084075	-0.9330018367	 2.341322988	 0.131642
H	 0.6249926115	 0.6323971974	 2.5812084464	 0.103068
68.055	112.6646	183.0937	229.2285	293.0669	355.1345	367.997	494.6765	511.3913	581.5969	682.7496	785.9048	820.4521	857.8422	860.5761	902.3001	940.7511	980.1755	1005.0231	1033.4625	1040.6089	1091.1615	1100.1465	1143.5514	1160.907	1167.9104	1199.9361	1228.0537	1259.362	1282.93	1305.5789	1331.7317	1374.5245	1397.6097	1414.1868	1429.7036	1465.3453	1486.0032	1501.9211	1524.0134	1731.992	2922.0843	2965.4879	3036.4925	3046.5614	3068.8977	3082.7396	3089.6857	3101.1268	3149.8457	3169.3757
C1OC1C1=CCOCC1	C1O[C@H]1C1=CCOCC1	
InChI=1S/C7H10O2/c1-3-8-4-2-6(1)7-5-9-7/h1,7H,2-5H2	InChI=1S/C7H10O2/c1-3-8-4-2-6(1)7-5-9-7/h1,7H,2-5H2/t7-/m1/s1
