25
gdb 105233	1.93188	1.32387	1.03148	1.6959	88.54	-0.2521	0.0791	0.3312	1374.8897	0.226156	-389.490819	-389.479698	-389.478754	-389.526544	41.54	
C	-0.5769337645	-0.6043649121	 0.6151971353	-0.384386
C	 0.9434309873	-0.7980629304	 0.5349465502	-0.26061
C	 1.4659078905	-0.9549313545	-0.888510422	 0.385522
O	 2.6121729871	-1.8206906948	-1.0246847054	-0.315023
C	 1.3628249043	-2.267341316	-1.5664567979	 0.032676
C	 0.7555613777	-3.5187678441	-0.9792973748	-0.431118
C	 1.5803404868	 0.3569082852	-1.681239956	-0.026329
C	 2.817703489	 1.1423673336	-1.2078949281	-0.386644
C	 1.6291077478	 0.1778866146	-3.2038042312	-0.408625
H	-0.9040803753	 0.2868762457	 0.0698590382	 0.12075
H	-1.1112461127	-1.4626606962	 0.1957429031	 0.11935
H	-0.8970766944	-0.4866953978	 1.6549488157	 0.115963
H	 1.4435495502	 0.0548601082	 1.0079000665	 0.100646
H	 1.242039078	-1.6758255068	 1.1137023689	 0.109198
H	 1.3454154541	-2.259798262	-2.6559235405	 0.08173
H	 0.7333260343	-3.5041777556	 0.1113373058	 0.1256
H	-0.2673339121	-3.6523984221	-1.3482598578	 0.118965
H	 1.3368910637	-4.3927644156	-1.2926174232	 0.127564
H	 0.6879302841	 0.950771384	-1.443331541	 0.071223
H	 3.7251051479	 0.5650375625	-1.40788799	 0.134283
H	 2.8921230116	 2.097320245	-1.7371816385	 0.107068
H	 2.7883487478	 1.3598175753	-0.1363400067	 0.112877
H	 1.7506714851	 1.1498912074	-3.6921700582	 0.107562
H	 2.4794759608	-0.4469607744	-3.4968241848	 0.131339
H	 0.7144784508	-0.2770993289	-3.5956118376	 0.110417
62.1879	96.5672	168.5887	174.2762	191.7439	203.0253	214.2232	251.4415	296.8126	316.8109	329.4756	382.0006	428.8655	462.4167	492.0378	613.1908	659.266	778.7466	792.3372	866.5552	913.1803	926.4551	952.6606	964.6003	983.5968	1011.2064	1063.7926	1092.3339	1107.7728	1133.4236	1150.3795	1174.7164	1195.3446	1226.492	1275.0771	1334.3861	1346.9123	1353.5919	1382.7474	1394.7729	1407.4624	1412.8872	1415.5208	1463.4832	1485.1602	1489.0913	1491.6849	1500.0571	1500.8597	1504.0101	1506.93	1514.4999	1517.866	3018.5889	3032.7076	3036.9435	3038.1277	3039.9591	3046.7701	3086.5378	3095.2494	3099.0729	3105.0895	3106.9432	3107.7681	3110.4758	3111.613	3119.2236	3142.6236
CCC1(OC1C)C(C)C	CC[C@]1(O[C@H]1C)C(C)C	
InChI=1S/C8H16O/c1-5-8(6(2)3)7(4)9-8/h6-7H,5H2,1-4H3	InChI=1S/C8H16O/c1-5-8(6(2)3)7(4)9-8/h6-7H,5H2,1-4H3/t7-,8-/m0/s1
