15
gdb 28735	3.81401	0.97396	0.82401	3.2071	71.	-0.2074	-0.0301	0.1772	1339.0401	0.11215	-453.983478	-453.974946	-453.974001	-454.018135	29.988	
N	 0.041005471	 1.3470552039	-0.0225063791	-0.597093
C	-0.0911861492	-0.0259122638	 0.0585401772	 0.343293
C	-1.0973647754	-0.8886366312	 0.3662881374	-0.194056
N	-0.5806118624	-2.1815668934	 0.3935399669	-0.286525
C	 0.6708540963	-2.0535100458	 0.1096343372	 0.348396
C	 1.7145780859	-3.0984697519	-0.0630380735	-0.372313
C	 2.0617085724	-3.325234744	-1.5324963858	 0.155542
O	 3.1812683831	-3.3605792219	-1.9662206835	-0.229027
O	 1.0484028832	-0.7483058862	-0.1139271692	-0.197206
H	 0.7033372809	 1.646059835	-0.7270707318	 0.263712
H	-0.8437902939	 1.8227524798	-0.1302350512	 0.26279
H	-2.1339164978	-0.6791637525	 0.5719453201	 0.113026
H	 2.6345401472	-2.8586130977	 0.4771803591	 0.140975
H	 1.2993354523	-4.0327484173	 0.3312669303	 0.157424
H	 1.1735841963	-3.463933983	-2.1888534542	 0.091062
38.4562	58.08	133.514	191.1862	261.028	284.1228	387.4609	432.6039	453.5163	637.5801	661.9679	708.9712	715.9862	752.707	780.887	832.235	964.7388	995.0216	1040.3099	1045.6286	1098.1825	1136.0499	1197.1307	1259.431	1286.5573	1311.028	1416.8331	1423.2098	1439.4745	1616.3261	1629.4376	1673.865	1839.5862	2885.9332	3053.2253	3114.7167	3272.0689	3548.4199	3650.5092
NC1=CN=C(CC=O)O1	Nc1cnc(CC=O)o1	
InChI=1S/C5H6N2O2/c6-4-3-7-5(9-4)1-2-8/h2-3H,1,6H2	InChI=1S/C5H6N2O2/c6-4-3-7-5(9-4)1-2-8/h2-3H,1,6H2
