12
gdb 21420	4.06655	2.06868	1.37116	2.9121	63.18	-0.2573	-0.0774	0.1798	814.0641	0.086354	-407.001711	-406.995166	-406.994221	-407.032827	24.206	
N	-0.0706820974	 1.3199187698	 0.3325259278	-0.553761
C	-0.0111816333	 0.1004331704	-0.0181497135	 0.497341
N	 1.1259366591	-0.7149942628	-0.0600502521	-0.30217
N	 1.1772420378	-2.0150880428	-0.4361463675	-0.01727
N	 0.1305773223	-2.6075064736	-0.7954346919	-0.241481
C	-1.1232452119	-1.9235894179	-0.8129913331	 0.467776
N	-2.1998655591	-2.4929031046	-1.1710171044	-0.522034
N	-1.1249353901	-0.5957330364	-0.4196971584	-0.360212
H	 0.8367568611	 1.6915740022	 0.6018482779	 0.222015
H	 2.0213163242	-0.3396408474	 0.2082859058	 0.282678
H	-1.9937371244	-3.4592876585	-1.4212536361	 0.241753
H	-2.0037975383	-0.0976008784	-0.4265714845	 0.285365
81.5664	117.9251	367.5834	377.6819	495.792	522.1033	549.9437	583.1899	634.2184	708.5405	753.4605	755.9089	764.7855	875.5506	944.8168	1035.2512	1055.4262	1126.1235	1146.5206	1324.3902	1388.6191	1423.8207	1451.0419	1598.628	1740.721	1769.7026	3509.4667	3527.2511	3619.3203	3655.7914
N=C1NN=NC(=N)N1	[NH][C@H]1N[N]N=C([NH])N1	
InChI=1S/C2H4N6/c3-1-5-2(4)7-8-6-1/h(H4,3,4,5,6,7)	InChI=1S/C2H5N6/c3-1-5-2(4)7-8-6-1/h1,3H,(H3,4,5,6,7)/t1-/m1/s1
