19
gdb 32574	1.93844	1.87942	1.03697	2.5986	77.96	-0.1918	0.0517	0.2434	1178.3837	0.159814	-419.262345	-419.253098	-419.252154	-419.296563	33.95	
C	-0.004305258	 1.5997595563	-0.0266587391	-0.378778
C	-0.0240614437	 0.0701006277	 0.0325432268	-0.158486
N	-1.3699468419	-0.4829557073	 0.0529180336	-0.103858
C	-2.1502020821	-0.8333032569	 1.1640422459	 0.264676
C	-1.6581003836	-0.7419885667	 2.5668509067	-0.50728
C	-3.3395164487	-1.2507858418	 0.6399501812	-0.177152
N	-3.3408218847	-1.1715135004	-0.7452477672	-0.379121
C	-2.1565497721	-0.7095863874	-1.0329026335	 0.427152
O	-1.6698229909	-0.4510534916	-2.2640070997	-0.434738
H	 1.0276530107	 1.9641804883	-0.0381803032	 0.119489
H	-0.5040265745	 1.9533696541	-0.9324793046	 0.140692
H	-0.5128920508	 2.0346466816	 0.8387810805	 0.127879
H	 0.493321176	-0.3462687077	-0.8363222572	 0.135063
H	 0.4982323086	-0.2877367007	 0.9240425749	 0.119413
H	-1.3822171309	 0.2802654292	 2.8555483953	 0.12565
H	-2.4485775172	-1.0720472748	 3.2453796456	 0.138436
H	-0.7828618939	-1.3787808375	 2.7503552243	 0.127154
H	-4.203026795	-1.6106589988	 1.1788283967	 0.101677
H	-2.3692376872	-0.6997103057	-2.8812393172	 0.312134
54.0305	104.1386	177.9887	184.0559	213.3671	276.4244	304.0823	338.0078	388.1363	428.5943	512.7617	594.1113	640.323	706.7861	726.2312	759.9262	798.6419	813.2659	969.185	998.1507	1014.6764	1065.8459	1102.5481	1135.1941	1183.7966	1223.8001	1267.7572	1289.3755	1320.293	1388.9499	1401.3513	1411.0711	1420.3978	1477.5128	1481.1318	1492.2747	1495.3291	1505.9713	1569.1798	1602.4787	1625.9392	3010.9848	3043.2812	3052.805	3062.6155	3100.7961	3116.9389	3117.9766	3130.1514	3246.2159	3805.551
CCN1C(C)=CN=C1O	CCn1c(C)cnc1O	
InChI=1S/C6H10N2O/c1-3-8-5(2)4-7-6(8)9/h4H,3H2,1-2H3,(H,7,9)	InChI=1S/C6H10N2O/c1-3-8-5(2)4-7-6(8)9/h4H,3H2,1-2H3,(H,7,9)
