16
gdb 18985	4.4074	2.16481	1.78374	1.0965	63.49	-0.2373	0.0724	0.3097	749.9091	0.132812	-383.667676	-383.661902	-383.660958	-383.697353	23.495	
C	-0.0092117829	 1.5768250307	-0.0008472178	-0.11722
O	 1.3064062692	 2.0990839951	 0.0620803173	-0.247577
C	 2.1359111541	 1.4152542727	 0.9850443582	-0.117219
C	 1.9527655064	-0.0947616068	 0.8979250915	-0.028095
C	 1.3079699494	-0.6724725631	-0.3955586668	 0.045037
O	 0.8646690961	-1.8526760666	 0.3754741009	-0.314798
C	 0.559555501	-0.6890168239	 1.2301741705	 0.038041
C	-0.0124822204	 0.053263308	-0.0052840124	-0.028083
H	-0.6246942519	 1.9509391644	 0.8363328145	 0.091433
H	-0.442923718	 1.9685198394	-0.9264118872	 0.115757
H	 3.1626292571	 1.6969624638	 0.7306999958	 0.115759
H	 1.9459158074	 1.7573105788	 2.0177838287	 0.091435
H	 2.7905007177	-0.6728401811	 1.2926375673	 0.084781
H	 1.746615206	-0.84516021	-1.378286494	 0.09611
H	 0.0990740433	-0.8785171808	 2.2010549493	 0.089856
H	-0.9212978645	-0.3932604307	-0.4132632958	 0.084782
201.2093	249.4063	352.663	464.2488	475.1985	616.1955	738.0549	761.0093	792.6714	849.8473	867.2585	884.1666	900.5568	983.099	995.1579	1002.4088	1062.4152	1067.2477	1080.7222	1145.6584	1156.1051	1164.4239	1190.3091	1208.5813	1258.9099	1260.9986	1266.4816	1307.052	1309.526	1382.2138	1384.4366	1426.7764	1499.3798	1508.7035	2949.2897	2954.9481	3070.5164	3072.6983	3099.228	3104.4556	3109.4148	3124.2388
C1OCC2C3OC2C13	C1OC[C@@H]2[C@H]3O[C@@H]2[C@@H]13	
InChI=1S/C6H8O2/c1-3-5-4(2-7-1)6(3)8-5/h3-6H,1-2H2	InChI=1S/C6H8O2/c1-3-5-4(2-7-1)6(3)8-5/h3-6H,1-2H2/t3-,4+,5-,6+
