20
gdb 26465	3.33657	1.31789	1.19649	2.0198	86.83	-0.1947	0.0551	0.2498	1140.4783	0.171832	-366.024757	-366.016279	-366.015335	-366.057873	32.812	
C	-0.2106659116	 1.5608495205	 0.029854046	-0.436221
C	-0.0449099937	 0.0401961973	 0.0043827594	 0.132649
C	-1.3646877045	-0.6754835657	 0.2985020167	-0.436216
C	 0.7152577501	-0.5068172793	-1.2838139131	-0.217925
N	 1.7772175486	-0.9454468895	-0.3716604517	 0.020665
C	 2.9804708971	-1.5331895903	-0.0983833477	-0.164543
C	 3.1248992645	-1.4420858784	 1.2785805957	-0.124479
C	 1.9816503953	-0.7847142778	 1.8396580626	-0.357342
C	 1.1744109311	-0.4981509962	 0.7609002724	 0.340245
H	 0.7314644299	 2.0675459499	-0.1985118644	 0.122479
H	-0.964191023	 1.8858400025	-0.6968193065	 0.111793
H	-0.5377053	 1.8936603521	 1.0204912322	 0.122434
H	-2.1371775788	-0.3869369883	-0.423629998	 0.111788
H	-1.244806593	-1.7621059594	 0.2613169714	 0.122476
H	-1.7278963484	-0.4131944422	 1.2976831676	 0.122436
H	 0.2145856379	-1.3249324142	-1.8110740913	 0.117573
H	 1.031231849	 0.2572829623	-2.0009613942	 0.117583
H	 3.6210276913	-1.9547687344	-0.8553816438	 0.114492
H	 3.9732219493	-1.8128290235	 1.8353535619	 0.089347
H	 1.811695799	-0.5714396653	 2.8830501248	 0.090766
55.8611	120.3052	222.1225	233.5784	288.4481	292.7732	331.3803	428.7767	520.0067	602.8849	605.8756	691.4995	707.1639	726.4348	759.3528	820.8996	828.4546	910.5972	919.2079	957.305	976.2627	1020.9768	1031.7107	1055.7686	1097.2221	1142.7498	1181.2602	1231.0394	1243.8855	1244.4593	1265.8297	1324.197	1401.1833	1411.7349	1422.8926	1449.4641	1471.3918	1480.2787	1486.7129	1501.7003	1504.8298	1522.2453	1571.0874	3025.692	3030.0317	3041.0691	3091.6135	3093.7798	3097.7579	3108.6561	3110.4272	3235.2062	3257.6215	3271.6644
CC1(C)CN2C=CC=C12	CC1(C)Cn2cccc12	
InChI=1S/C8H11N/c1-8(2)6-9-5-3-4-7(8)9/h3-5H,6H2,1-2H3	InChI=1S/C8H11N/c1-8(2)6-9-5-3-4-7(8)9/h3-5H,6H2,1-2H3
