21
gdb 110114	2.11505	1.28814	0.99375	1.0313	85.88	-0.2278	0.0484	0.2762	1326.2049	0.179592	-387.035496	-387.025114	-387.02417	-387.070871	37.787	
C	-0.4369301727	 1.4536396447	-0.1782764694	-0.379627
C	 0.2861231298	 0.1338034114	 0.1113003461	-0.19287
C	 0.9046001681	-0.4723909131	-1.1308801368	-0.070719
C	 1.1835165133	-1.9336369879	-1.2292621984	 0.094536
O	 0.8565924571	-2.7168469959	-0.1378365603	-0.230704
C	 0.6180599321	-4.0727622459	-0.4764337821	-0.237656
C	 0.0682264314	-1.3308255367	-2.0969700359	-0.276421
C	-1.3050106549	-1.6197477077	-1.8172597929	 0.358348
C	-2.466063104	-1.8619328784	-1.6092885985	-0.47487
H	 0.2415199736	 2.1921709858	-0.6203359682	 0.107346
H	-1.2655717701	 1.2983945979	-0.8758423945	 0.129223
H	-0.8456525038	 1.8857120206	 0.740381321	 0.110098
H	 1.0812619805	 0.2973949036	 0.8496102551	 0.098127
H	-0.4054325082	-0.5839365278	 0.5587247477	 0.124632
H	 1.6246306107	 0.1701691057	-1.632523582	 0.090732
H	 2.0766544733	-2.2598510869	-1.7666645266	 0.087601
H	-0.2281368373	-4.1691580667	-1.1673875496	 0.12723
H	 1.5078632632	-4.531160027	-0.9337710215	 0.104277
H	 0.388045613	-4.5963644967	 0.453925574	 0.128392
H	 0.3015921486	-1.2214447139	-3.152558013	 0.108882
H	-3.4886554235	-2.0759860051	-1.4212753643	 0.193443
77.9031	105.4	108.8043	145.2174	160.8755	208.7372	231.4877	262.0859	317.491	374.9552	389.0029	565.0423	584.3006	619.7277	647.788	661.8729	733.693	794.7087	800.0061	847.3026	959.9921	988.4826	1035.19	1042.1137	1082.1095	1104.8402	1141.4333	1142.7954	1177.0045	1189.1808	1230.1258	1269.5411	1290.1574	1331.1684	1363.4858	1390.9724	1410.9273	1438.7557	1485.0829	1486.3715	1488.5737	1499.8107	1506.205	1507.2581	2228.0669	2990.2231	3031.9782	3032.3959	3061.2924	3073.3105	3089.456	3107.4992	3113.7893	3126.1066	3132.0088	3143.3852	3504.3445
CCC1C(OC)C1C#C	CC[C@H]1[C@@H](OC)[C@H]1C#C	
InChI=1S/C8H12O/c1-4-6-7(5-2)8(6)9-3/h1,6-8H,5H2,2-3H3	InChI=1S/C8H12O/c1-4-6-7(5-2)8(6)9-3/h1,6-8H,5H2,2-3H3/t6-,7+,8-/m0/s1
