19
gdb 109800	2.54079	1.22292	1.01234	2.8827	71.58	-0.2363	0.0592	0.2955	1243.0515	0.157187	-460.092834	-460.083416	-460.082472	-460.128029	33.835	
C	-0.1809144347	 1.0855046775	-0.244305027	-0.247132
O	-0.4129917246	-0.287828227	-0.5320660079	-0.251072
C	 0.5893563604	-0.8367055993	-1.3387292297	 0.040511
C	 1.6902443068	-1.5601657913	-0.6032516733	 0.079312
O	 1.6134362859	-1.5980815421	 0.7905968307	-0.431021
C	 0.6731366693	-2.3473560548	-1.4126177681	-0.171564
C	-0.2799449467	-3.2677431369	-0.7081182504	 0.06919
C	-1.7270154141	-3.0218811506	-0.6096418999	-0.16834
O	-1.2084110439	-3.9643565232	-1.5456108968	-0.242603
H	 0.7751543454	 1.233133084	 0.2745485451	 0.126693
H	-0.1793323028	 1.68544482	-1.1649381451	 0.119905
H	-0.9994301078	 1.4189857391	 0.3971383356	 0.13412
H	 0.8077640913	-0.2601442595	-2.2370953276	 0.092506
H	 2.7182966389	-1.5032075361	-0.9451112661	 0.105974
H	 0.7502782793	-1.2296925517	 1.0251628285	 0.293016
H	 1.0142195962	-2.7360808848	-2.3686199679	 0.110074
H	 0.1777800454	-3.896568645	 0.0557839031	 0.106362
H	-2.2888224788	-3.4481929052	 0.2211169452	 0.108369
H	-2.1352051054	-2.1094490931	-1.0352583186	 0.1257
38.8045	90.5713	121.5352	142.4567	187.7958	262.4866	276.382	348.7918	375.3291	448.1708	561.662	653.4891	663.5812	763.1027	792.5565	850.175	869.1244	925.8665	1011.1278	1024.7022	1057.5572	1089.9396	1092.1709	1115.9134	1134.4326	1153.8733	1157.539	1179.3647	1182.8514	1209.29	1250.5844	1297.3264	1319.6267	1340.0471	1380.9776	1429.8543	1457.1213	1482.4107	1487.5783	1507.8242	1529.5438	2999.175	3058.5326	3089.1419	3104.1916	3107.999	3126.7131	3143.686	3167.716	3190.6801	3745.9622
COC1C(O)C1C1CO1	CO[C@H]1[C@@H](O)[C@H]1[C@H]1CO1	
InChI=1S/C6H10O3/c1-8-6-4(5(6)7)3-2-9-3/h3-7H,2H2,1H3	InChI=1S/C6H10O3/c1-8-6-4(5(6)7)3-2-9-3/h3-7H,2H2,1H3/t3-,4-,5+,6-/m1/s1
