18
gdb 125973	3.63744	1.21004	1.10212	2.1212	78.73	-0.2041	0.0291	0.2332	1155.1527	0.14951	-398.122864	-398.114788	-398.113844	-398.155874	30.664	
C	-0.1866660359	 1.4645962026	-0.274046593	-0.410339
C	-0.0049214205	-0.0190954596	-0.0628488819	 0.009238
C	 1.3086387685	-0.672940571	-0.3249143738	-0.2464
N	 0.8209716303	-0.542199299	 1.0430434565	-0.164042
C	 1.4744933891	 0.334000319	 1.9162816842	 0.390512
N	 2.7598467898	 0.6567166165	 1.7760780779	-0.303301
N	 3.0220827182	 1.4411968165	 2.8473945069	-0.187342
C	 1.9465458626	 1.6239401337	 3.6479026431	-0.010984
C	 0.9106869962	 0.9175460589	 3.0797366309	-0.296306
H	 0.7526746625	 2.0048531188	-0.1321719694	 0.135385
H	-0.5439246908	 1.6572399325	-1.2911829003	 0.119909
H	-0.9236550944	 1.8774227729	 0.42353239	 0.122452
H	-0.9035160583	-0.6134534159	-0.21922756	 0.089875
H	 1.3561619328	-1.6899583957	-0.7044843748	 0.11259
H	 2.136292031	-0.0321881153	-0.6169473963	 0.132993
H	 3.9558527165	 1.78913612	 2.9759480861	 0.272775
H	 2.0009916111	 2.2233958474	 4.5432575276	 0.130483
H	-0.0984760888	 0.8176957077	 3.4427933661	 0.102502
57.9762	116.0023	182.5627	225.6568	297.5228	376.609	438.4021	446.4762	536.5718	588.4817	656.3844	739.0894	772.963	801.8845	836.3087	868.0409	910.4386	940.7002	978.5371	1022.609	1043.5894	1063.3859	1107.5796	1127.2722	1138.2345	1161.088	1192.9916	1216.1678	1257.871	1339.0392	1393.5906	1401.3901	1424.0302	1487.3061	1488.1156	1496.831	1508.7797	1509.1905	1575.4649	3035.5207	3095.1888	3109.1779	3112.8325	3130.6514	3197.4856	3255.3322	3279.8716	3686.3054
CC1CN1C1=NNC=C1	C[C@H]1CN1c1n[nH]cc1	
InChI=1S/C6H9N3/c1-5-4-9(5)6-2-3-7-8-6/h2-3,5H,4H2,1H3,(H,7,8)	InChI=1S/C6H9N3/c1-5-4-9(5)6-2-3-7-8-6/h2-3,5H,4H2,1H3,(H,7,8)/t5-,9?/m0/s1
