18
gdb 47037	3.05311	1.57815	1.32926	4.365	72.41	-0.2469	0.0466	0.2935	1005.0875	0.150069	-439.091526	-439.084164	-439.083219	-439.123846	28.676	
N	-0.3583238971	 1.1853014961	 0.3362695688	-0.556745
C	-0.1526787339	 0.0344068418	-0.1359585742	 0.447792
O	 1.0014648158	-0.6689726084	 0.0476369017	-0.260114
C	 1.3030280089	-1.6720735856	-0.9395892614	-0.105215
C	 0.2052153711	-2.7175259098	-0.9843066202	-0.048583
C	-0.0598023433	-3.4977695193	 0.337795083	-0.232769
C	-1.3397006887	-2.6466621408	 0.5825808147	-0.248482
C	-1.1644547368	-2.001307536	-0.8174734661	 0.127224
O	-1.1056105394	-0.5751677065	-0.8765213998	-0.236526
H	 0.4945863661	 1.5262383457	 0.7764323531	 0.225063
H	 1.4204481464	-1.1904229667	-1.9185925937	 0.120436
H	 2.2664996839	-2.0911598368	-0.639195806	 0.123326
H	 0.3133789879	-3.3313516216	-1.8823167556	 0.081181
H	-0.2595798975	-4.5586193802	 0.1752568161	 0.108894
H	 0.7190075706	-3.404395432	 1.0981604928	 0.112844
H	-2.2713789348	-3.1965272673	 0.728649397	 0.108404
H	-1.2367226323	-1.9189675337	 1.3904082397	 0.133923
H	-1.9281978269	-2.2731410389	-1.5457187999	 0.099347
59.2273	118.5033	204.296	334.0523	389.6723	437.7508	503.9616	550.3608	695.9603	742.8729	756.0851	757.7715	795.4398	842.9034	861.4493	885.4901	953.1304	956.4969	974.7681	1014.1708	1063.7168	1075.2214	1104.0447	1142.0559	1171.3411	1210.3113	1238.8902	1253.8144	1264.8651	1274.3185	1294.4721	1316.8122	1342.4844	1399.6731	1421.5306	1471.1179	1491.5826	1501.0762	1767.5181	3026.9897	3068.3396	3073.8955	3077.3595	3103.2657	3111.8106	3117.8308	3136.1018	3518.0845
N=C1OCC2CCC2O1	[NH][C]1OC[C@H]2CC[C@H]2O1	
InChI=1S/C6H9NO2/c7-6-8-3-4-1-2-5(4)9-6/h4-5,7H,1-3H2	InChI=1S/C6H9NO2/c7-6-8-3-4-1-2-5(4)9-6/h4-5,7H,1-3H2/t4-,5-/m1/s1
