19
gdb 101396	2.68137	1.10814	0.83304	3.1484	71.36	-0.2681	0.0081	0.2762	1362.7903	0.158183	-460.185258	-460.175737	-460.174793	-460.220083	34.017	
C	-0.1560745658	 1.6104378776	 0.0025392523	-0.40126
C	-0.0433734245	 0.080696233	 0.0116846851	 0.005529
C	-1.4231077604	-0.5844121279	 0.0311736588	-0.087649
O	-2.0879449915	-0.1637685063	 1.2131079917	-0.424607
C	 0.7665313227	-0.4242287356	-1.1864303113	-0.199319
C	 2.2862168551	-0.1644982966	-1.2252711015	-0.107797
O	 2.543927446	-1.6065483911	-1.2394616624	-0.237312
C	 1.2049213579	-1.8944483324	-1.1731941353	 0.46021
O	 0.6945651489	-2.9678061719	-1.1132326354	-0.328676
H	 0.8277020668	 2.0872894674	 0.0618002278	 0.110013
H	-0.6437970632	 1.9587923663	-0.9159186288	 0.111672
H	-0.7536822516	 1.94725012	 0.8516594979	 0.14553
H	 0.4708195969	-0.2279561784	 0.9321663189	 0.092765
H	-1.9851715529	-0.2835255271	-0.8701131069	 0.081582
H	-1.3059756433	-1.6758078803	 0.0003037802	 0.122257
H	-2.9226288873	-0.6367319555	 1.2729473818	 0.290651
H	 0.2631041067	-0.1680817143	-2.1249949705	 0.11146
H	 2.6859389471	 0.3085322919	-2.1238921259	 0.127014
H	 2.7129596023	 0.2899916314	-0.3282590964	 0.127937
71.0363	102.7768	123.7907	155.5541	232.31	236.5496	248.4176	283.41	345.6148	396.8985	465.7044	548.7248	699.4185	760.2329	832.143	896.7474	923.4956	938.785	959.5207	990.3192	1054.2321	1092.271	1106.787	1125.5225	1154.655	1165.9428	1174.1701	1230.2284	1246.3282	1267.4556	1299.0309	1345.5749	1360.5544	1388.3087	1405.652	1463.7404	1493.3424	1505.6126	1517.3328	1527.8155	1925.6083	2952.9179	3016.4876	3031.2637	3037.4651	3061.6992	3071.9451	3093.9728	3133.6928	3135.8174	3837.3985
CC(CO)C1COC1=O	C[C@@H](CO)[C@H]1COC1=O	
InChI=1S/C6H10O3/c1-4(2-7)5-3-9-6(5)8/h4-5,7H,2-3H2,1H3	InChI=1S/C6H10O3/c1-4(2-7)5-3-9-6(5)8/h4-5,7H,2-3H2,1H3/t4-,5+/m0/s1
