18
gdb 69163	2.1187	1.77583	1.40539	3.4278	72.09	-0.2375	-0.0147	0.2228	1024.8577	0.144829	-439.070576	-439.061259	-439.060314	-439.10407	34.66	
C	 0.0059770354	 1.5464852944	 0.0333027636	-0.487475
C	-0.0449701364	 0.0520670783	-0.0326475835	 0.30447
C	-0.8341549674	-0.801887935	 0.8593439941	-0.297506
N	 0.6543345506	-0.8282168933	 1.0457896553	-0.217281
C	 1.1541467498	-1.6436565348	-0.0360292085	 0.353426
O	 1.9378312655	-2.5433724679	-0.0095194507	-0.318863
C	 0.5524841352	-0.7866790468	-1.1811359284	 0.217144
C	-0.3546805865	-1.4194286951	-2.2231114562	-0.455054
O	 1.5991606445	-0.0465942891	-1.7925453397	-0.466002
H	 0.9711280829	 1.9096111635	-0.3253069717	 0.152596
H	-0.7800402013	 1.9851131501	-0.591765595	 0.128083
H	-0.14437803	 1.8890783932	 1.0606413941	 0.133221
H	-1.3325238923	-0.3305627447	 1.700523517	 0.140551
H	-1.3273028077	-1.7015512705	 0.5009179135	 0.130108
H	-1.2170819439	-1.9208866267	-1.7758891042	 0.121441
H	-0.7122587616	-0.6523082799	-2.9165134933	 0.133241
H	 0.2049147997	-2.1664023355	-2.7962404694	 0.130837
H	 2.2509882932	-0.6784051601	-2.1179103773	 0.29706
99.5243	160.2138	169.7114	194.1772	230.1525	240.1502	284.5309	293.8958	371.7034	406.5672	478.7094	541.9247	621.4443	647.0788	688.7547	766.9643	774.5321	893.8177	947.8184	972.1202	1010.1428	1020.2508	1076.6305	1099.6428	1129.6898	1158.8208	1174.0611	1218.0662	1283.5636	1356.7069	1388.1068	1405.5679	1422.7987	1477.0246	1486.2971	1487.1502	1497.4938	1516.5241	1903.0357	3038.0007	3041.1829	3107.4927	3108.1572	3116.3998	3122.2015	3139.2069	3203.8335	3800.6383
CC12CN1C(=O)C2(C)O	C[C@]12CN1C(=O)[C@]2(C)O	
InChI=1S/C6H9NO2/c1-5-3-7(5)4(8)6(5,2)9/h9H,3H2,1-2H3	InChI=1S/C6H9NO2/c1-5-3-7(5)4(8)6(5,2)9/h9H,3H2,1-2H3/t5-,6+,7?/m1/s1
