19
gdb 88769	3.78928	1.06377	0.93029	2.0402	75.56	-0.2447	0.0796	0.3243	1274.5846	0.158753	-422.960484	-422.952218	-422.951274	-422.993864	31.79	
O	 0.0072089428	 1.4244967742	 0.1828674976	-0.419335
C	 0.0035687198	 0.0253766224	 0.1205672391	 0.090627
C	-0.5822454627	-0.7635544145	 1.2647359502	-0.346302
C	-1.332202601	-0.6370150268	-0.0511793888	-0.018692
C	-2.5910484995	 0.1820791155	-0.1344970978	-0.011604
C	-3.1108426542	 0.6217572263	-1.559598628	-0.276073
C	-4.4044172839	-0.1484742234	-1.2726175115	 0.035149
O	-4.035998944	-1.5124943396	-1.0248687431	-0.249472
C	-3.9229210776	-0.5722303846	 0.0511071926	 0.00523
H	 0.6700686692	 1.6899522045	 0.8285342824	 0.287831
H	 0.850711819	-0.4056269305	-0.4130665353	 0.085028
H	-0.1411112752	-1.7176867385	 1.5318444368	 0.111423
H	-0.9612138656	-0.1862219278	 2.1025257985	 0.109539
H	-1.3470032539	-1.520663734	-0.6817743212	 0.100207
H	-2.5299718282	 1.0510726059	 0.5238866629	 0.083763
H	-3.2452671286	 1.7027868183	-1.6362550206	 0.108152
H	-2.5421307682	 0.2613888508	-2.4202521821	 0.107987
H	-5.4101501624	 0.0310755922	-1.6343807986	 0.10086
H	-4.4574546158	-0.8056983607	 0.9653870069	 0.095681
54.1786	119.7633	156.9047	210.5733	306.8776	349.3218	388.6185	444.5392	530.1222	587.2829	738.9145	771.1342	820.769	839.523	845.6244	870.4849	909.0641	929.3577	952.1431	992.2581	994.7426	1031.1326	1039.6419	1047.3972	1061.9531	1124.9942	1136.0404	1180.1727	1198.5845	1216.6954	1236.4379	1238.2146	1239.2371	1275.6608	1287.2249	1308.5297	1386.7844	1409.1686	1433.408	1473.8012	1489.4106	3068.1008	3091.6823	3096.755	3126.2733	3127.0967	3159.5022	3173.6711	3191.5229	3215.5513	3807.5753
OC1CC1C1CC2OC12	O[C@H]1C[C@H]1[C@H]1C[C@H]2O[C@@H]12	
InChI=1S/C7H10O2/c8-5-1-3(5)4-2-6-7(4)9-6/h3-8H,1-2H2	InChI=1S/C7H10O2/c8-5-1-3(5)4-2-6-7(4)9-6/h3-8H,1-2H2/t3-,4+,5-,6+,7-/m0/s1
