19
gdb 107579	2.66361	1.51296	1.1111	2.0414	75.26	-0.2357	-0.0216	0.2141	1131.8843	0.158709	-423.036815	-423.02823	-423.027286	-423.070096	32.343	
C	 0.407594021	 1.5508924101	-0.2302881647	-0.379795
C	-0.0803228828	 0.1191238207	 0.0251077118	-0.282997
C	 0.5352609688	-0.5042545056	 1.2590399889	 0.19564
C	 1.9868019571	-1.0231608654	 1.2380745852	-0.358235
C	 0.8588405046	-1.9687079525	 1.4654328383	 0.0545
O	 0.6108841227	-2.3720128646	 2.7919782009	-0.263109
C	 0.3157717577	-1.2284584367	 3.5794736252	-0.192809
C	 0.0903773327	-0.0546604418	 2.6136829866	 0.325471
O	-0.4230401789	 0.9971675281	 2.907087137	-0.322713
H	 1.4930337885	 1.5765618072	-0.3741476791	 0.111884
H	-0.0608037341	 1.965999177	-1.1277374911	 0.11051
H	 0.1608871432	 2.193489615	 0.6177921936	 0.149772
H	-1.1713132612	 0.1171729912	 0.1344682325	 0.111948
H	 0.1463105314	-0.5142043929	-0.8414982608	 0.09618
H	 2.4563805711	-1.0154278937	 0.2598774247	 0.128718
H	 2.6519440602	-0.7903508401	 2.0627604585	 0.128102
H	 0.6020979295	-2.7355398277	 0.7436233003	 0.115424
H	-0.5878593188	-1.4099970816	 4.1702882018	 0.142282
H	 1.1337010074	-0.9941036665	 4.2760231304	 0.129226
89.7977	113.1548	160.1354	207.2048	221.8253	289.3349	354.3077	430.2655	471.9783	545.5365	631.5456	655.0504	697.8284	775.1742	831.3731	869.2807	893.7069	968.0244	980.4023	1009.499	1014.8307	1042.648	1060.0505	1078.9432	1113.9949	1131.0745	1161.5493	1205.857	1252.9476	1287.5244	1324.7435	1344.3596	1367.8503	1400.8532	1410.0076	1475.8845	1483.8808	1489.2688	1496.2447	1513.312	1829.874	3007.684	3024.9831	3040.0329	3062.2866	3076.6793	3105.0521	3130.7033	3133.7732	3182.579	3220.2743
CCC12CC1OCC2=O	CC[C@]12C[C@H]1OCC2=O	
InChI=1S/C7H10O2/c1-2-7-3-6(7)9-4-5(7)8/h6H,2-4H2,1H3	InChI=1S/C7H10O2/c1-2-7-3-6(7)9-4-5(7)8/h6H,2-4H2,1H3/t6-,7-/m1/s1
