19
gdb 38576	2.75382	2.15555	1.99705	1.2654	75.65	-0.222	0.0852	0.3073	830.6684	0.164479	-385.885548	-385.879805	-385.87886	-385.915204	25.829	
C	-0.0292465983	 1.5588699647	 0.0509919093	-0.238487
C	 1.5238915444	 1.5023528233	-0.0203991757	-0.066073
C	 2.1247465712	 1.3342855764	 1.3840143711	-0.220284
C	 1.6070492943	 0.0369286694	 1.9946899939	-0.099842
C	 1.774042257	-1.1895684177	 1.140931126	 0.085804
O	 2.2148498148	-0.9422809695	-0.1753965038	-0.25634
C	 1.3777614972	 0.0839032486	-0.6694275526	 0.109064
C	-0.0204270218	 0.0098310538	 0.0199392002	-0.064505
C	 0.3878327372	-0.6208397965	 1.3442237741	-0.109393
H	-0.474332829	 2.0468852715	 0.9224694202	 0.094899
H	-0.4679351313	 1.979768916	-0.8578856209	 0.09684
H	 2.0364821625	 2.2784985493	-0.59293658	 0.060432
H	 3.2195653922	 1.2985975266	 1.3243562526	 0.104416
H	 1.8637344053	 2.1969657129	 2.0080723614	 0.096698
H	 1.7179242926	-0.0868928586	 3.0672555046	 0.083149
H	 2.119181207	-2.1406650131	 1.5273855074	 0.09514
H	 1.408486209	 0.0725069082	-1.7593771299	 0.080637
H	-0.8408551718	-0.5232509106	-0.4642437742	 0.063641
H	-0.3502048624	-1.1201144748	 1.9598140264	 0.084206
266.1654	366.7642	398.327	504.6371	557.7935	646.8245	656.1135	698.46	768.334	782.4679	803.6243	835.8206	872.7916	899.2985	920.2855	929.3039	959.9438	994.763	1010.3938	1041.49	1062.1169	1069.6848	1079.7655	1094.5843	1114.8743	1129.009	1147.5323	1156.7693	1219.7821	1225.2054	1246.2899	1276.0421	1290.8221	1307.7564	1322.9765	1334.6885	1371.1208	1378.6901	1420.7447	1488.441	1500.2017	3022.5612	3051.9406	3059.0606	3078.9339	3085.4701	3105.1803	3112.8517	3155.8594	3181.9567	3193.5945
C1C2CC3C4OC2C1C34	C1[C@H]2C[C@@H]3[C@@H]4O[C@H]2[C@H]1[C@H]34	
InChI=1S/C8H10O/c1-3-2-5-6-4(1)7(3)9-8(5)6/h3-8H,1-2H2	InChI=1S/C8H10O/c1-3-2-5-6-4(1)7(3)9-8(5)6/h3-8H,1-2H2/t3-,4+,5-,6+,7+,8-/m0/s1
