19
gdb 56179	3.75049	0.8322	0.78971	2.6538	72.81	-0.2478	0.0573	0.3052	1506.3156	0.158567	-456.365223	-456.355435	-456.354491	-456.401467	35.339	
C	-0.167239115	 1.5352057267	-0.1827185018	-0.467226
C	-0.0646755342	 0.0341114002	-0.0080493857	 0.311863
C	-1.305174031	-0.6471056783	 0.513092997	-0.094952
O	-1.6392605289	-0.0559946623	 1.7805894498	-0.26673
C	-2.8829985348	-0.3355745592	 2.2415747889	 0.500101
N	-3.0848967958	 0.2955988335	 3.4393681546	-0.563094
O	-3.7002399734	-1.0116997874	 1.6622424919	-0.397255
C	 0.8186049762	-0.7420844762	-0.9163118409	-0.286028
N	 1.1946058637	-0.545773767	 0.496178331	-0.340257
H	 0.7576502972	 1.945535401	-0.6004526381	 0.110253
H	-0.987283534	 1.7973033567	-0.8605883136	 0.125853
H	-0.3614218088	 2.0230490181	 0.7768865769	 0.135455
H	-2.1488182237	-0.52312633	-0.1723351242	 0.12475
H	-1.1235997144	-1.7167923492	 0.6512713681	 0.118387
H	-2.2799413523	 0.6156315359	 3.9512938226	 0.263547
H	-3.8786335117	-0.0205174034	 3.9699111827	 0.267477
H	 0.5726773995	-1.7661161061	-1.1854095222	 0.119238
H	 1.3536339303	-0.1916780566	-1.6859391301	 0.111326
H	 1.903962231	 0.1801208338	 0.565722743	 0.227291
18.1493	61.2071	118.7077	181.5794	215.0537	246.893	318.3971	362.343	385.4195	388.5089	443.001	497.509	547.507	652.0512	747.389	785.0173	839.631	911.3792	926.4057	937.6926	957.7625	1006.7821	1033.6996	1076.6617	1098.8645	1117.0145	1124.2376	1159.3562	1261.3977	1265.658	1330.4559	1365.4434	1374.862	1414.7465	1439.9226	1481.3832	1500.7696	1504.5639	1517.9361	1612.47	1833.7974	3032.4033	3055.7666	3097.1887	3104.6809	3107.2377	3112.7413	3188.1243	3494.1932	3610.5214	3738.3518
CC1(COC(N)=O)CN1	C[C@@]1(COC(=O)N)CN1	
InChI=1S/C5H10N2O2/c1-5(2-7-5)3-9-4(6)8/h7H,2-3H2,1H3,(H2,6,8)	InChI=1S/C5H10N2O2/c1-5(2-7-5)3-9-4(6)8/h7H,2-3H2,1H3,(H2,6,8)/t5-/m0/s1
