17
gdb 30373	5.03244	1.06281	0.88744	6.6087	84.96	-0.2135	-0.0334	0.1802	1305.3147	0.136646	-414.212414	-414.203492	-414.202548	-414.247783	30.741	
C	 0.0293374353	 1.432318813	 0.2435292001	-0.324268
N	-0.008096087	-0.0129527597	 0.1872272395	-0.28947
C	-1.1047336414	-0.6107807378	-0.0529865748	 0.380191
N	-2.3398942498	 0.056894416	-0.2750681235	-0.31157
C	-3.373145102	-0.6474595922	-0.5246675464	 0.096358
N	-3.3880412627	-2.0242616449	-0.5838794842	-0.074917
C	-4.5748940548	-2.7821890602	-0.9423479511	-0.347048
C	-2.1675247691	-2.6401902151	-0.3511903913	 0.086815
N	-1.0813039177	-2.0269070781	-0.0949935361	-0.281714
H	 0.7436426217	 1.7978818356	-0.5053232084	 0.117138
H	-0.9363015918	 1.9239272806	 0.0822037398	 0.120622
H	 0.4265285724	 1.7381741545	 1.2197296836	 0.117183
H	-4.3372639617	-0.1696557813	-0.7028965929	 0.126823
H	-4.5591660327	-3.0914402726	-1.9937173907	 0.150352
H	-4.6552898194	-3.6735594771	-0.3142881334	 0.152998
H	-5.459907732	-2.1649977548	-0.7739074442	 0.151837
H	-2.1895356974	-3.7288406558	-0.3935259161	 0.12867
29.3998	49.749	88.6687	169.3282	234.2202	239.6689	352.8464	438.8769	466.8759	480.7485	575.2607	674.8846	765.9301	791.0244	796.4706	956.5876	962.8635	1031.7078	1047.3582	1086.6124	1128.843	1130.2112	1150.2149	1186.93	1261.213	1381.7849	1408.6947	1428.9806	1433.2322	1475.7779	1486.5964	1488.4384	1495.8575	1513.8908	1628.3392	1720.0228	1750.6028	3007.5593	3031.6408	3056.5119	3084.3843	3099.8749	3121.1827	3134.0695	3136.8287
CN=C1N=CN(C)C=N1	C[N]C1=NCN(C=N1)C	
InChI=1S/C5H8N4/c1-6-5-7-3-9(2)4-8-5/h3-4H,1-2H3	InChI=1S/C5H9N4/c1-6-5-7-3-9(2)4-8-5/h3H,4H2,1-2H3
