13
gdb 28136	5.4714	1.34402	1.08121	3.2112	67.22	-0.1929	0.0027	0.1956	1014.7049	0.093107	-448.960468	-448.953744	-448.9528	-448.991406	25.823	
N	 0.0238642148	 1.3394566593	 0.1430115646	-0.593747
C	-0.0214528107	-0.0426501827	 0.0383983154	 0.380644
N	-1.1332598728	-0.766529714	 0.0761349316	-0.409641
C	-0.6352338723	-2.0321152416	 0.0563586087	 0.339959
C	 0.7182099807	-2.1085236812	-0.0096021177	 0.294071
N	 1.1434622001	-0.7875392009	-0.0349835325	-0.430515
N	 1.147006151	-3.407677928	-0.0898588493	-0.354259
C	 0.0165151761	-4.0609761041	-0.0530694209	 0.028402
O	-1.128069695	-3.2984522452	 0.0305414645	-0.200605
H	 0.5952969085	 1.790514818	-0.5613673537	 0.254345
H	-0.914407181	 1.7186932701	 0.1330190654	 0.268628
H	 2.0756625541	-0.4280189318	 0.0774907853	 0.274102
H	-0.1291281435	-5.128039608	-0.0733802714	 0.148617
148.4456	244.43	263.109	322.3085	360.2127	415.3336	548.9847	589.077	636.1688	679.8949	740.7144	769.1065	774.1028	785.9367	859.3152	938.8611	1003.2738	1066.5268	1120.1993	1177.66	1252.2511	1294.565	1444.7267	1454.4234	1481.1187	1519.5168	1579.4482	1613.7286	1650.983	3293.0305	3532.2507	3632.5946	3676.8497
NC1=NC2=C(N1)N=CO2	Nc1nc2c([nH]1)nco2	
InChI=1S/C4H4N4O/c5-4-7-2-3(8-4)9-1-6-2/h1H,(H3,5,7,8)	InChI=1S/C4H4N4O/c5-4-7-2-3(8-4)9-1-6-2/h1H,(H3,5,7,8)
