18
gdb 39384	2.41547	1.73408	1.11328	0.4817	73.01	-0.238	0.027	0.2651	1074.6418	0.149405	-439.05575	-439.048098	-439.047154	-439.087962	29.496	
C	 0.0821853244	 1.3613177848	-0.3064585953	-0.142598
C	 1.4508780469	 2.0603413871	-0.2102985646	-0.275255
C	 2.59706068	 1.1410764751	-0.5477197144	 0.081495
O	 3.850357445	 1.3572634534	 0.1140381488	-0.26218
C	 3.1060116758	 0.1809143846	 0.4375528818	 0.035212
C	 2.5122998716	 0.1303640234	 1.8241150697	-0.110208
O	 1.4270643853	-0.7888949448	 1.9077414757	-0.22748
C	 0.2170961135	-0.5926135333	 1.2966166735	 0.136826
N	-0.2895655132	 0.2200381788	 0.4886180876	-0.258079
H	-0.6903497526	 2.1208235802	-0.1308906526	 0.122051
H	-0.0690383958	 1.051118115	-1.3509458284	 0.121637
H	 1.4357530145	 2.9009895695	-0.9149024949	 0.10716
H	 1.6009102542	 2.4955047274	 0.7807747438	 0.115293
H	 2.6964776088	 0.876100873	-1.6011991483	 0.097509
H	 3.5467791747	-0.753117599	 0.0887249308	 0.100803
H	 3.2475581701	-0.2469505978	 2.5402026479	 0.1239
H	 2.2059306	 1.1273661829	 2.1517247927	 0.117884
H	-0.4138777134	-1.4059261505	 1.6637948265	 0.116027
103.308	153.6375	209.8986	269.7268	289.7488	401.3618	440.3696	465.3104	546.897	555.4794	696.6682	794.1033	825.9278	836.1482	907.038	923.2903	961.0428	976.4868	1019.6026	1052.0475	1061.8179	1099.8186	1142.672	1153.2299	1176.0788	1218.6436	1264.3624	1277.1084	1303.2947	1356.1093	1375.9516	1399.626	1414.0443	1462.9441	1466.4628	1483.2186	1497.3695	1519.1886	1810.7661	3002.9722	3033.0036	3043.3767	3062.1758	3092.6092	3102.1502	3105.0607	3106.8814	3122.3739
C1CC2OC2COC=N1	C1C[C@H]2O[C@H]2COC=N1	
InChI=1S/C6H9NO2/c1-2-7-4-8-3-6-5(1)9-6/h4-6H,1-3H2/b7-4-	InChI=1S/C6H9NO2/c1-2-7-4-8-3-6-5(1)9-6/h4-6H,1-3H2/b7-4-/t5-,6+/m1/s1
