15
gdb 60513	2.63059	1.238	0.96974	2.4911	67.35	-0.2619	-0.1081	0.1538	1191.1898	0.111576	-453.924318	-453.915579	-453.914635	-453.958526	30.889	
O	-0.0968228098	 1.4536004566	-0.1233108069	-0.427576
C	-0.0700716119	 0.0595319931	-0.0193265346	-0.016655
C	 0.4945274536	-0.5863715117	-1.2859127944	-0.02204
C	 0.2796619655	 0.0764677216	-2.5914977093	-0.240355
N	 1.6202038482	 0.0499843941	-1.9731790275	-0.309773
C	 0.7604879749	-0.3337414683	 1.1979312329	 0.286377
O	 1.2961683655	 0.4910341273	 1.8993824222	-0.290576
C	 0.8608499777	-1.76864157	 1.4906056986	 0.261302
N	 0.9085246025	-2.9030217632	 1.7090183666	-0.294981
H	 0.3857222816	 1.8010291392	 0.6432967596	 0.307042
H	-1.084833418	-0.3433240329	 0.1495127706	 0.124523
H	 0.5403210653	-1.6723254642	-1.2424775438	 0.121526
H	 0.1735468093	-0.528638261	-3.4866274418	 0.127279
H	-0.261235246	 1.0171340663	-2.5919773092	 0.13709
H	 1.7825855616	 0.9606132531	-1.545311993	 0.236818
66.3952	76.5732	122.3351	192.9932	257.1976	286.8361	327.2731	375.3119	449.8	482.5978	577.0529	632.2609	686.7389	812.9813	853.6182	879.7777	940.9105	990.8892	1019.694	1085.3345	1112.3391	1139.4347	1170.4341	1207.0229	1247.9662	1276.1115	1312.0987	1339.1941	1385.9259	1428.6026	1503.0929	1781.0711	2341.9847	2953.7695	3123.8299	3137.8755	3217.0255	3482.9414	3699.1105
OC(C1CN1)C(=O)C#N	O[C@@H]([C@H]1CN1)C(=O)C#N	
InChI=1S/C5H6N2O2/c6-1-4(8)5(9)3-2-7-3/h3,5,7,9H,2H2	InChI=1S/C5H6N2O2/c6-1-4(8)5(9)3-2-7-3/h3,5,7,9H,2H2/t3-,5+/m1/s1
