14
gdb 13329	5.99853	1.26863	1.15992	3.3451	60.36	-0.2714	0.0063	0.2777	1003.0871	0.108115	-415.867947	-415.860812	-415.859868	-415.900357	24.82	
N	-0.0650597829	 1.3206966255	-0.0311839515	-0.429099
C	-0.0243949677	 0.0637964752	 0.0168095947	 0.130536
O	-1.1756145299	-0.6470187325	-0.1000536024	-0.182679
C	-1.0506909339	-2.0462785026	-0.1422618435	 0.178572
C	-2.4532335466	-2.6826561758	-0.0841441021	-0.206501
N	-2.699635904	-3.1839137626	-1.4441597865	-0.249515
C	-1.615075305	-3.0124699205	-2.0700240264	 0.118718
O	-0.5469241594	-2.4577563317	-1.4226224233	-0.223179
H	 0.8693214269	 1.7056671526	 0.091738074	 0.235332
H	 0.86456827	-0.5640828	 0.1572823772	 0.099458
H	-0.3385159234	-2.3898051455	 0.6138228489	 0.102853
H	-2.5011378536	-3.5101802297	 0.630240738	 0.127978
H	-3.1981425614	-1.9359145908	 0.2004471061	 0.147125
H	-1.4239108092	-3.2774142615	-3.1030687732	 0.1504
64.4331	100.8101	121.3433	226.1681	394.4255	442.117	512.6479	648.2383	777.2211	827.4516	887.619	895.8636	954.1646	966.2992	990.3655	1014.0765	1044.4302	1074.5877	1081.3166	1148.1585	1223.2041	1277.6437	1303.4599	1322.1649	1353.6718	1391.162	1430.9791	1479.4737	1713.2907	1755.7536	3039.696	3059.2828	3073.3805	3114.6093	3228.3471	3518.9715
N=COC1CN=CO1	[NH][CH]O[C@H]1CN=CO1	
InChI=1S/C4H6N2O2/c5-2-7-4-1-6-3-8-4/h2-5H,1H2	InChI=1S/C4H6N2O2/c5-2-7-4-1-6-3-8-4/h2-5H,1H2/t4-/m1/s1
