20
gdb 94662	3.75502	0.77336	0.68475	2.6201	78.08	-0.2611	0.0212	0.2823	1644.5034	0.170112	-440.262517	-440.252796	-440.251851	-440.298626	34.502	
O	 0.4054673642	 1.07820419	-0.6273929933	-0.429322
C	 0.0597576296	-0.1150992096	 0.0357478281	 0.142393
C	-0.1270236989	-0.1304433205	 1.5732748755	-0.26412
C	-1.3012686735	-1.129880184	 1.3747766986	-0.2253
C	-1.3732616948	-0.7236068703	-0.1257536694	-0.052802
C	-2.4354734478	 0.3114653385	-0.4412268559	-0.087999
O	-3.7124225839	-0.3246562611	-0.3450159243	-0.184059
C	-4.7605864704	 0.3512238978	-0.8501878359	 0.129429
N	-5.9320387099	-0.0966831809	-0.7071404257	-0.438217
H	-0.0404115338	 1.8097582279	-0.1889501919	 0.281191
H	 0.8069796956	-0.8509237062	-0.2748733381	 0.09794
H	 0.7232822227	-0.4368924765	 2.1861021669	 0.107002
H	-0.4793083992	 0.841066528	 1.9393952983	 0.09426
H	-0.988710078	-2.1684929073	 1.501916424	 0.110452
H	-2.205365197	-0.9663953732	 1.9635104252	 0.119012
H	-1.4647506911	-1.5425196965	-0.8440021899	 0.082502
H	-2.3997195274	 1.1526113882	 0.2676101316	 0.090201
H	-2.2845389181	 0.7153300245	-1.4507483518	 0.1177
H	-4.4757285459	 1.2736635552	-1.3767669772	 0.081415
H	-6.5974265025	 0.5223091559	-1.1655913248	 0.228322
37.5896	67.4999	96.2792	131.8808	155.4042	225.0588	286.5174	302.7493	398.3431	451.7161	521.8689	630.5011	673.5218	756.9023	823.5745	860.8209	897.1005	921.904	944.7368	963.8345	1008.4695	1046.1324	1060.3373	1094.4139	1136.6177	1139.4676	1149.5308	1200.0261	1228.1201	1255.0995	1257.4608	1267.536	1297.4061	1304.4857	1321.3695	1354.9141	1413.7855	1430.5556	1433.4038	1482.9995	1498.3707	1515.4322	1748.5037	2984.5741	3013.2419	3038.4693	3042.6495	3067.3402	3073.9668	3082.8248	3108.1238	3130.9965	3517.575	3818.4722
OC1CCC1COC=N	O[C@H]1CC[C@H]1CO[CH][NH]	
InChI=1S/C6H11NO2/c7-4-9-3-5-1-2-6(5)8/h4-8H,1-3H2	InChI=1S/C6H11NO2/c7-4-9-3-5-1-2-6(5)8/h4-8H,1-3H2/t5-,6-/m0/s1
