16
gdb 128297	4.89572	0.9578	0.80918	4.7789	79.7	-0.2128	-0.0343	0.1785	1368.5939	0.125379	-434.098839	-434.09048	-434.089536	-434.132281	30.054	
C	 0.1156839774	 1.3732523802	-0.1516037969	-0.328153
N	-0.143726874	-0.0174165573	 0.1676113083	-0.364596
C	 0.5662550005	-0.6595170492	 1.149337414	 0.453311
N	 0.6559393244	-1.9813743576	 1.1654772522	-0.346438
N	 1.371166903	-2.2588019683	 2.2993256988	-0.011662
C	 1.6915797981	-3.5562138633	 2.6932553797	 0.183977
O	 1.3842082659	-4.5574285016	 2.1099894272	-0.272833
C	 1.7322339012	-1.1168618025	 2.971614759	 0.015455
C	 1.2385462887	-0.0596416825	 2.2687733836	-0.325583
H	 1.1462511351	 1.5649885411	-0.4867079872	 0.120423
H	-0.5683422427	 1.685199184	-0.9436027544	 0.134526
H	-0.0834548107	 2.006124484	 0.7192686702	 0.135902
H	-0.3673721022	-0.6174178103	-0.61249892	 0.253428
H	 2.2774755454	-3.532774963	 3.6318334541	 0.088573
H	 2.3050300807	-1.1650159871	 3.8845987006	 0.147179
H	 1.3329401091	 0.9859422834	 2.5095676307	 0.11649
72.2303	130.2974	152.9255	172.7328	242.0718	260.0667	375.318	461.7842	517.4242	574.5971	610.8048	704.8868	723.3188	767.3306	827.1116	844.4317	974.1602	994.5914	1010.5527	1076.7106	1101.5797	1153.6975	1190.2088	1240.6883	1326.6338	1394.2947	1402.0072	1457.1628	1461.2567	1487.5147	1491.1517	1516.8938	1540.9826	1641.9024	1841.1355	2956.0789	2989.3117	3072.2729	3125.1243	3257.1784	3281.4503	3613.0283
CNC1=NN(C=O)C=C1	CNc1nn(C=O)cc1	
InChI=1S/C5H7N3O/c1-6-5-2-3-8(4-9)7-5/h2-4H,1H3,(H,6,7)	InChI=1S/C5H7N3O/c1-6-5-2-3-8(4-9)7-5/h2-4H,1H3,(H,6,7)
