20
gdb 20066	5.02396	1.30218	1.11126	1.4667	75.36	-0.2364	0.0894	0.3257	1116.4759	0.178665	-349.000224	-348.992405	-348.991461	-349.033201	29.301	
C	-0.1239824386	 1.4115534374	-0.1537431394	-0.273841
C	 1.2917006427	 0.9774904692	 0.1274958355	-0.268173
C	 0.1985059477	-0.0527969763	 0.0231556309	 0.022891
C	-0.2779403898	-0.7791926029	 1.2523226121	 0.144273
C	-1.6742315797	-1.4097336638	 1.1404364553	-0.233995
C	-1.582361506	-2.5719420558	 2.1366384548	-0.233347
C	-0.1251103142	-3.0204474381	 1.9550697882	-0.056908
O	 0.6087536659	-1.8689258408	 1.543053858	-0.279667
H	-0.6677235875	 1.9120591124	 0.641281216	 0.108694
H	-0.3717939257	 1.7652015626	-1.148135377	 0.110378
H	 2.0189658205	 1.0348407482	-0.6743989889	 0.111206
H	 1.6993518109	 1.180082074	 1.1122799702	 0.115287
H	 0.1947960386	-0.6656024799	-0.8746147393	 0.079695
H	-0.2613858146	-0.0754955529	 2.1032832244	 0.055075
H	-2.4733133752	-0.699119199	 1.3638042253	 0.102375
H	-1.8309514643	-1.7858069432	 0.1224855706	 0.100233
H	-1.748380952	-2.2122019755	 3.1579089731	 0.105407
H	-2.2986018127	-3.3742901493	 1.9432636107	 0.101127
H	 0.3161200088	-3.4176928012	 2.8768219118	 0.098219
H	-0.0437834849	-3.7996864051	 1.1825618877	 0.091072
49.1098	86.3987	165.5194	197.2712	295.1855	393.3162	444.0179	578.5799	665.5596	772.9754	828.6182	839.2062	878.8991	890.6708	909.7243	923.2851	934.5816	977.5499	996.0029	1034.3075	1059.8392	1078.0493	1098.5136	1129.6582	1133.9029	1189.4264	1194.6655	1197.2506	1223.194	1225.8528	1256.8771	1302.8015	1329.7873	1343.3671	1356.6196	1391.9308	1441.8656	1470.3023	1485.7942	1497.7671	1507.7839	1533.0202	2939.6122	2989.286	3038.3002	3041.6128	3054.8536	3102.2803	3110.1184	3130.4809	3135.0326	3141.5971	3208.5928	3223.9088
C1CC1C1CCCO1	C1CC1[C@H]1CCCO1	
InChI=1S/C7H12O/c1-2-7(8-5-1)6-3-4-6/h6-7H,1-5H2	InChI=1S/C7H12O/c1-2-7(8-5-1)6-3-4-6/h6-7H,1-5H2/t7-/m1/s1
