20
gdb 9434	6.75264	0.71861	0.67654	2.0855	68.81	-0.2549	0.0601	0.315	1658.6386	0.174851	-423.257814	-423.247795	-423.246851	-423.293353	34.864	
C	-0.0756095427	 1.383782849	 0.070472656	-0.228724
O	-0.0284899516	-0.0221118911	 0.0392540989	-0.23227
C	 0.6967448192	-0.5695498582	 1.1182359121	-0.049101
C	 0.6729328625	-2.0878856047	 0.9899778138	-0.231486
C	 1.3908077912	-2.7961851492	 2.1358087296	 0.093168
O	 0.8088812945	-2.4925935028	 3.4130615911	-0.439571
C	 1.4388426982	-4.3166974451	 1.9663036117	-0.061318
O	 2.0572502973	-4.9282157599	 3.0760912236	-0.424499
H	 0.9303734691	 1.8289557034	 0.008893831	 0.104017
H	-0.6594730636	 1.711952567	-0.792972093	 0.126778
H	-0.5573169537	 1.7570462548	 0.9884370787	 0.103305
H	 1.738394081	-0.2031326265	 1.1098040845	 0.086187
H	 0.2577246108	-0.2618557116	 2.080537404	 0.094851
H	-0.3723234826	-2.4235024641	 0.9419671421	 0.09979
H	 1.1341550537	-2.3739341505	 0.0373851472	 0.114252
H	 2.4213104961	-2.4298776558	 2.2206808261	 0.098452
H	-0.135607471	-2.682380359	 3.3532052088	 0.282561
H	 0.4089816449	-4.6927804639	 1.8177127939	 0.071233
H	 2.0154439738	-4.584546418	 1.0740411614	 0.108048
H	 1.7279875328	-4.4460799039	 3.8462828383	 0.284327
61.6624	73.973	102.233	128.3242	160.9519	233.0288	250.8296	301.4024	329.8732	364.1093	446.4562	495.2846	517.9412	594.6019	796.8991	861.223	958.0843	983.1854	1030.8183	1078.1676	1099.8984	1103.5543	1124.016	1164.9403	1179.7896	1209.583	1222.0878	1230.058	1275.0188	1294.365	1327.2571	1358.6929	1387.1974	1421.215	1427.9021	1445.5789	1481.3177	1484.0885	1485.6479	1505.6653	1507.9095	1534.4107	2928.8074	2950.3028	2969.459	2993.4975	3011.0157	3018.808	3045.6187	3064.0637	3076.7224	3113.295	3760.0114	3779.7428
COCCC(O)CO	COCC[C@@H](O)CO	
InChI=1S/C5H12O3/c1-8-3-2-5(7)4-6/h5-7H,2-4H2,1H3	InChI=1S/C5H12O3/c1-8-3-2-5(7)4-6/h5-7H,2-4H2,1H3/t5-/m1/s1
