16
gdb 33289	6.19885	0.70886	0.70886	5.5378	92.04	-0.2792	-0.0418	0.2373	1577.1485	0.125884	-363.554726	-363.547151	-363.546207	-363.587455	28.721	
N	 0.0546108812	-3.683042869	-0.0178616657	-0.337014
C	 0.037353669	-2.5208926259	-0.0119187345	 0.122727
C	 0.0178821564	-1.1575437245	-0.0044099157	 0.553124
C	 0.0006049708	 0.0526454717	 0.0023348369	-0.486967
C	-0.0202079074	 1.4819936176	 0.010443318	 0.232345
C	-0.6436285466	 2.419908532	 1.1006392791	-0.244964
C	-0.0474927379	 3.3686288309	 0.0214447418	-0.088607
C	 1.2101040127	 2.4531360262	 0.0013790221	-0.244948
C	-0.6687688065	 2.4320999359	-1.0544163119	-0.245041
H	-1.7318822005	 2.3901467362	 1.1902222348	 0.108362
H	-0.1544078104	 2.4077369722	 2.0772149573	 0.108342
H	-0.0632399824	 4.4568435279	 0.027855983	 0.089205
H	 1.832707259	 2.4433809296	 0.8988138616	 0.108351
H	 1.8110944914	 2.4536274756	-0.9108074731	 0.108365
H	-0.2023994006	 2.4312286078	-2.0422529387	 0.108358
H	-1.7588174882	 2.4032681058	-1.1189508348	 0.108362
79.5457	82.4237	230.053	230.7732	408.4029	476.3224	477.2897	547.5725	549.8926	595.2212	595.3043	790.6913	793.2838	870.352	907.9894	941.7962	943.595	962.7754	997.2886	1037.9938	1096.0254	1097.164	1125.3813	1126.13	1167.5212	1168.8318	1231.9925	1232.8398	1251.826	1322.4546	1497.698	1499.6442	1551.1915	2258.2444	2389.0062	3060.3343	3060.6447	3066.8792	3129.156	3134.4133	3134.6505	3136.0072
N#CC#CC12CC(C1)C2	N#CC#C[C@@]12C[C@@H](C1)C2	
InChI=1S/C8H7N/c9-3-1-2-8-4-7(5-8)6-8/h7H,4-6H2	InChI=1S/C8H7N/c9-3-1-2-8-4-7(5-8)6-8/h7H,4-6H2/t7-,8+
