19
gdb 76691	3.02682	1.15055	1.04849	1.7882	71.48	-0.2285	0.0614	0.2899	1222.1302	0.157885	-460.100585	-460.091724	-460.09078	-460.134338	33.791	
O	 0.0751402589	 1.197564491	 0.2742059328	-0.433445
C	 0.0264878809	-0.2025424701	 0.2197821941	 0.004538
C	-0.9651476552	-0.8186371139	 1.189387735	 0.063283
O	-1.6229806012	 0.060890365	 2.0405186333	-0.418127
C	-1.2541193597	-0.8004161887	-0.3086825755	 0.018425
O	-2.1185652093	 0.1586543816	-0.8357509292	-0.270759
C	-3.4556067459	-0.2542643579	-0.9652379423	 0.133824
C	-4.3350304795	-0.3177364804	 0.2505804335	-0.290827
C	-4.493961291	 0.8000940653	-0.7614499608	-0.288052
H	-0.5756183084	 1.5191129785	-0.3657361823	 0.306106
H	 0.9868857144	-0.665661935	 0.0134871428	 0.102711
H	-0.7402354205	-1.7769486032	 1.6493860699	 0.101671
H	-1.2132312361	 0.9259721883	 1.8815140818	 0.290277
H	-1.2098187221	-1.7408204701	-0.8575705698	 0.091753
H	-3.600511477	-0.9882732256	-1.7570067834	 0.089246
H	-5.0926345584	-1.092814823	 0.2931670489	 0.110454
H	-3.8618775486	-0.0709654495	 1.1932284831	 0.153493
H	-4.1348594582	 1.781376951	-0.4725534593	 0.120701
H	-5.3581551131	 0.8066552768	-1.4159934427	 0.114726
71.7968	107.9184	141.8626	199.5132	250.8957	299.1714	347.6671	388.8446	440.7505	555.2994	603.6389	638.897	707.1917	751.3384	767.3896	787.3366	830.8768	841.3291	938.2656	993.8168	1001.6894	1047.9426	1061.2122	1084.7744	1086.6054	1107.6262	1126.0669	1148.9725	1159.5009	1195.8239	1201.6869	1227.7792	1252.1798	1325.5197	1337.016	1365.6059	1393.9033	1415.8364	1452.9875	1458.567	1499.4036	3102.6849	3109.2057	3138.6624	3141.7939	3142.9182	3152.8172	3224.7564	3242.3751	3691.1737	3742.7325
OC1C(O)C1OC1CC1	O[C@H]1[C@@H](O)[C@H]1OC1CC1	
InChI=1S/C6H10O3/c7-4-5(8)6(4)9-3-1-2-3/h3-8H,1-2H2	InChI=1S/C6H10O3/c7-4-5(8)6(4)9-3-1-2-3/h3-8H,1-2H2/t4-,5+,6-
