17
gdb 39848	2.88841	1.76594	1.37701	1.5129	71.4	-0.229	0.0526	0.2816	952.7243	0.137794	-417.922502	-417.915696	-417.914752	-417.953536	27.899	
C	-0.0900174751	 1.4655197205	 0.0101077474	-0.230863
O	 1.1452885779	 0.7370584674	-0.0039384161	-0.290136
C	-0.083629771	 0.0018908221	 0.0032097482	 0.502902
C	-0.3370159229	-0.8566713743	 1.224507297	-0.163596
N	-1.7367750994	-1.2970846743	 1.3891510213	-0.319238
C	-0.7592243746	-2.2069026446	 0.7590703956	-0.040466
C	-0.7723233166	-2.1997927721	-0.7615199813	-0.040466
N	-1.7605102771	-1.2842010076	-1.3661321286	-0.319238
C	-0.3580862029	-0.8452350038	-1.2215169632	-0.163597
H	-0.3080600384	 1.998667348	 0.934148644	 0.11562
H	-0.3239021449	 2.0072660317	-0.9050148743	 0.11562
H	 0.2904156632	-0.6877346158	 2.0938285542	 0.09592
H	-1.8732390546	-1.5823994377	 2.356773238	 0.232038
H	-0.4614072771	-3.1137910537	 1.2732658902	 0.088771
H	-0.4834805842	-3.1018085337	-1.289228364	 0.088771
H	-1.9136475622	-1.5604679433	-2.3338848877	 0.232038
H	 0.2542894998	-0.6681262988	-2.0999006108	 0.09592
127.8513	212.5291	317.1953	321.4238	387.03	467.2715	552.4191	595.6141	704.2648	773.0398	798.8616	839.3496	869.9621	871.4331	884.2372	890.923	894.8378	941.9896	957.3555	984.495	1050.5255	1069.7119	1106.45	1125.7477	1129.3941	1155.041	1159.2494	1176.8868	1221.3124	1243.0634	1250.3976	1338.9012	1345.7702	1399.1232	1412.1511	1459.8359	1533.3031	3085.1689	3161.5246	3164.1442	3170.5542	3172.3649	3182.8481	3488.68	3490.1561
C1OC11C2NC2C2NC12	C1O[C@]21[C@H]1N[C@H]1[C@H]1N[C@@H]21	
InChI=1S/C6H8N2O/c1-6(9-1)4-2(7-4)3-5(6)8-3/h2-5,7-8H,1H2	InChI=1S/C6H8N2O/c1-6(9-1)4-2(7-4)3-5(6)8-3/h2-5,7-8H,1H2/t2-,3+,4-,5+,6+
