13
gdb 10439	2.86958	1.79184	1.28	4.7991	63.94	-0.2804	0.0033	0.2837	929.827	0.093193	-361.412404	-361.404557	-361.403613	-361.445031	27.958	
C	 0.0233093333	-1.2563769758	 0.2932380395	-0.413575
C	-0.003784345	-0.0587868395	 0.2067805092	 0.307523
C	-0.0835776549	 1.3768510778	 0.0951730895	 0.200538
C	-1.357414349	 1.9251611288	-0.548415034	-0.420375
C	-1.5563008921	 1.4494032878	-1.9173855808	 0.280245
N	-1.7239669477	 1.0800044154	-2.9985049897	-0.298067
C	 0.6521114498	 2.2336949246	 1.0480902931	-0.212824
O	 1.1181401022	 2.0566102531	-0.2859786662	-0.244007
H	 0.0599694466	-2.3162934722	 0.3590116503	 0.211653
H	-2.2254355371	 1.6351477056	 0.0539813402	 0.165252
H	-1.3057220337	 3.0180869695	-0.5580771318	 0.163318
H	 0.2603308448	 3.2222585407	 1.2853020518	 0.123412
H	 1.2519035129	 1.7627504042	 1.823512629	 0.136909
58.6047	115.8858	178.8528	222.7065	337.4902	357.9636	386.5165	474.2117	548.5032	572.1809	640.523	682.6319	730.6518	832.1977	893.9266	946.7679	960.961	988.6106	1132.2496	1165.3651	1201.2441	1264.1778	1318.5807	1385.5475	1446.9849	1521.0158	2245.7745	2370.4437	3052.9615	3087.5905	3101.7325	3185.0408	3499.2436
C#CC1(CC#N)CO1	C#C[C@@]1(CC#N)CO1	
InChI=1S/C6H5NO/c1-2-6(3-4-7)5-8-6/h1H,3,5H2	InChI=1S/C6H5NO/c1-2-6(3-4-7)5-8-6/h1H,3,5H2/t6-/m1/s1
