21
gdb 74145	2.38092	1.3783	1.08853	4.1656	86.34	-0.2289	-0.0366	0.1923	1218.0339	0.181057	-387.147463	-387.137897	-387.136953	-387.18192	36.234	
C	-0.0272294417	 1.4832533479	 0.0261818153	-0.499975
C	-0.0052683342	-0.0118628077	-0.0246438553	 0.329507
C	-0.0171781931	-0.7556214899	-1.1419901194	-0.310618
C	 0.0118867171	-2.1947136989	-0.8312471185	 0.385996
O	 0.0100070203	-3.1182675412	-1.6139465645	-0.338965
C	 0.046954054	-2.3134873144	 0.6982259846	-0.386199
C	 0.0348203366	-0.864451167	 1.2497592421	 0.202866
C	 1.3068459972	-0.5641541633	 2.0687363799	-0.43243
C	-1.2117333637	-0.6051688309	 2.1203357869	-0.43236
H	 0.8576667284	 1.8749769645	 0.5412888826	 0.140163
H	-0.057678687	 1.9157832565	-0.9763672283	 0.134423
H	-0.8980772613	 1.8480835893	 0.5832041448	 0.140058
H	-0.0445552493	-0.3810880041	-2.1584161558	 0.1053
H	-0.8139662982	-2.8998387567	 1.0340863771	 0.125209
H	 0.9408291063	-2.8704060363	 0.9959803825	 0.12525
H	 2.2094592229	-0.7304681418	 1.4719013363	 0.120854
H	 1.3224806085	 0.4696738369	 2.4284494797	 0.114193
H	 1.3555770524	-1.2189301134	 2.944898156	 0.120836
H	-1.2031360674	-1.2605756649	 2.9973397162	 0.12083
H	-1.24635964	 0.427833881	 2.4810806656	 0.114181
H	-2.1321135278	-0.8012548956	 1.5608518423	 0.12088
36.098	121.1561	181.347	225.1286	269.9142	271.5166	286.9744	318.4081	361.1664	366.3599	532.9699	534.9641	559.3432	577.7037	617.2741	711.0294	853.7366	880.9728	898.6192	913.9726	952.2439	968.9021	1014.6481	1024.5104	1062.4713	1109.3769	1120.4458	1187.8106	1214.8424	1251.0401	1254.8357	1279.5517	1332.1967	1394.6093	1405.6308	1418.922	1456.4906	1473.7384	1479.8586	1485.6828	1495.9684	1505.9765	1510.6559	1676.1505	1809.5524	3028.9539	3029.5498	3034.2345	3056.559	3080.1819	3094.5312	3100.9989	3104.0643	3104.3105	3105.8728	3123.552	3207.0553
CC1=CC(=O)CC1(C)C	CC1=CC(=O)CC1(C)C	
InChI=1S/C8H12O/c1-6-4-7(9)5-8(6,2)3/h4H,5H2,1-3H3	InChI=1S/C8H12O/c1-6-4-7(9)5-8(6,2)3/h4H,5H2,1-3H3
