20
gdb 119234	1.89682	1.31471	0.89596	2.4221	76.78	-0.2413	-0.0272	0.2141	1345.9207	0.1684	-440.255649	-440.245551	-440.244607	-440.290847	36.368	
C	-0.3155168283	 1.3894482764	 0.0803116926	-0.320088
N	 0.0185088499	-0.0279063376	 0.1304894333	-0.113217
C	 1.3803729666	-0.4174409407	-0.1361343885	-0.287441
C	 0.8118094657	-0.5617492367	 1.2570205804	 0.206305
C	 1.3628224939	 0.2784064622	 2.3945515725	-0.308274
C	 0.3187470997	 0.6627199089	 3.4535158105	-0.071032
O	 0.8933688307	 1.4209623618	 4.5056448247	-0.416516
C	 0.3815586767	-1.9509471805	 1.6148473739	 0.142232
O	 0.6062308376	-2.4863735259	 2.672418249	-0.271758
H	 0.4788842553	 2.0593794062	 0.4398574251	 0.112961
H	-0.531590026	 1.6494973008	-0.9604804038	 0.132615
H	-1.2194519427	 1.5707756853	 0.6685333979	 0.135162
H	 1.5219640193	-1.285216019	-0.7767709894	 0.122839
H	 2.1368544897	 0.3596560367	-0.246063484	 0.119515
H	 2.1464109679	-0.3147151917	 2.8820367467	 0.113179
H	 1.840381588	 1.1875453658	 2.0195353714	 0.107871
H	-0.4511479166	 1.3051530021	 3.0139796498	 0.109385
H	-0.1781710907	-0.2402452976	 3.8309429286	 0.115331
H	 1.4662671797	 0.8337417671	 5.0091563058	 0.284781
H	-0.1662028563	-2.4647360837	 0.7948003535	 0.086151
75.9777	104.3206	114.0576	148.6435	215.0901	236.848	259.2344	288.5556	311.2448	358.9913	415.8823	432.857	478.7656	573.1615	724.1617	779.0785	823.9054	901.908	939.7402	1016.0525	1028.2084	1055.4001	1068.0001	1078.9061	1119.1296	1133.0935	1149.9731	1184.8501	1199.8854	1295.1179	1308.4505	1337.7952	1356.0156	1406.3267	1418.1885	1423.2105	1450.7499	1472.2464	1492.4028	1501.2297	1511.0066	1513.6014	1815.3972	2901.1551	2996.2831	3025.0105	3039.4095	3076.159	3081.1163	3082.6564	3103.0541	3112.6167	3167.6102	3816.21
CN1CC1(CCO)C=O	CN1C[C@]1(CCO)C=O	
InChI=1S/C6H11NO2/c1-7-4-6(7,5-9)2-3-8/h5,8H,2-4H2,1H3	InChI=1S/C6H11NO2/c1-7-4-6(7,5-9)2-3-8/h5,8H,2-4H2,1H3/t6-,7?/m1/s1
