14
gdb 46175	1.86628	1.66776	1.30911	2.355	75.87	-0.2482	-0.0419	0.2064	1051.7826	0.097352	-399.455907	-399.447087	-399.446143	-399.48952	32.332	
O	 0.0035269999	 0.0250138178	-0.1778859688	-0.256744
C	-0.039545544	 1.1965782434	-0.008746096	 0.361879
C	-1.1109904614	 2.2429333328	 0.2950727125	-0.280502
N	-0.0348244107	 3.2220757784	 0.5880426201	-0.339579
C	 1.0575796843	 2.3547531669	 0.0282827969	-0.173244
C	 2.1833039563	 2.1342163622	 0.9208958321	 0.306381
C	 3.0947777906	 1.9073319304	 1.6693871534	-0.40406
C	 1.4674075396	 2.7054777515	-1.3265812244	 0.305846
C	 1.7455106316	 3.0065599623	-2.4569688618	-0.455572
H	-1.7293388938	 2.4528040571	-0.5885000264	 0.139009
H	-1.7672879705	 2.0220267491	 1.1428896345	 0.146556
H	-0.119283391	 4.1027807143	 0.0935345483	 0.236998
H	 3.9054648519	 1.7194997841	 2.3295025908	 0.20342
H	 2.0141147771	 3.2678895498	-3.4510611311	 0.209612
87.0614	112.7196	117.9668	151.3474	234.9886	354.4155	369.2579	469.9629	530.5186	545.105	568.056	607.1066	631.6517	634.3775	662.8017	663.3708	691.2431	779.8934	921.9327	984.1085	1006.9668	1044.1151	1075.4568	1134.1034	1181.6738	1279.3725	1364.027	1472.6295	1939.6131	2226.7279	2240.307	3016.9422	3079.8815	3499.077	3501.2029	3552.6211
O=C1CNC1(C#C)C#C	O=C1CNC1(C#C)C#C	
InChI=1S/C7H5NO/c1-3-7(4-2)6(9)5-8-7/h1-2,8H,5H2	InChI=1S/C7H5NO/c1-3-7(4-2)6(9)5-8-7/h1-2,8H,5H2
