23
gdb 118219	4.25866	0.61674	0.56028	3.9321	79.46	-0.2467	0.0549	0.3016	1997.2143	0.203199	-462.561654	-462.550375	-462.549431	-462.5986	40.872	
C	 0.0622576458	 1.5783014466	-0.0115902376	-0.400019
C	 0.0438640306	 0.0514042334	-0.0042970293	 0.108906
O	 0.7087165503	-0.4636093539	-1.1713879836	-0.433004
C	 0.7488261987	-0.5453065427	 1.2148206269	-0.20024
C	 0.6860012819	-2.0797932271	 1.2864629261	 0.126456
O	 1.4605531393	-2.6874132686	 0.2642474077	-0.450896
C	 1.2027634799	-2.61166126	 2.6235446463	-0.197948
C	 1.1115305661	-4.1350161383	 2.7350315753	-0.069549
O	 1.5478460942	-4.6146094031	 4.0009805495	-0.423447
H	 1.0921163555	 1.9480983083	-0.003205372	 0.129464
H	-0.4342998991	 1.9708605996	-0.9064367278	 0.106065
H	-0.4611576832	 1.9800072612	 0.8618062624	 0.120745
H	-1.0020331362	-0.2967684188	-0.0041774462	 0.073712
H	 0.2111810102	-0.197116438	-1.9506596336	 0.288717
H	 1.8008117865	-0.2328380466	 1.2107277551	 0.108025
H	 0.2824453801	-0.1230004542	 2.1125872432	 0.097329
H	-0.3756619692	-2.3792128549	 1.1852172502	 0.051492
H	 1.2935098021	-2.1837650542	-0.5445778964	 0.289972
H	 2.2505722081	-2.3009344703	 2.7393508601	 0.087125
H	 0.634799272	-2.162579733	 3.4465512621	 0.094087
H	 0.0662161046	-4.452596772	 2.6452704531	 0.102359
H	 1.6662268274	-4.6009365739	 1.9108768992	 0.112408
H	 2.4926256243	-4.4431943996	 4.0645205291	 0.278241
53.3466	74.9751	90.2297	118.808	168.8904	234.8953	247.8711	276.5189	293.5948	297.1602	342.9699	389.7821	441.4772	464.3112	509.8463	556.5958	581.0526	787.8464	840.9905	876.6304	929.7051	948.8943	1011.7402	1015.3822	1057.6822	1071.4153	1073.2059	1110.4421	1118.6653	1155.1797	1170.8406	1221.1164	1275.744	1302.6758	1310.1167	1327.3851	1341.3644	1383.6403	1389.6732	1396.2057	1408.0055	1418.0328	1422.6634	1456.4487	1474.2981	1476.4748	1491.9539	1498.5899	1514.7741	2904.1106	2968.4476	3012.4208	3025.1485	3028.2555	3032.5415	3057.7691	3076.657	3083.8825	3097.3931	3117.1931	3728.6667	3817.0761	3824.232
CC(O)CC(O)CCO	C[C@@H](O)C[C@@H](O)CCO	
InChI=1S/C6H14O3/c1-5(8)4-6(9)2-3-7/h5-9H,2-4H2,1H3	InChI=1S/C6H14O3/c1-5(8)4-6(9)2-3-7/h5-9H,2-4H2,1H3/t5-,6+/m1/s1
