23
gdb 73273	2.2386	1.66273	1.29789	1.6869	84.34	-0.2388	0.0786	0.3174	1121.7584	0.208065	-388.299077	-388.290696	-388.289752	-388.331618	33.668	
C	-0.044637818	 1.5496969942	-0.0210113917	-0.478064
C	-0.0478222961	 0.0265089402	-0.021605175	 0.279619
C	-1.2903727452	-0.6958868849	 0.5538095022	-0.118578
O	-0.4550057208	-1.5959062606	 1.3108967686	-0.303345
C	 0.6631842295	-0.6836011447	 1.171423387	 0.133154
C	 2.0120545459	-1.3571871929	 0.9880639713	-0.232967
C	 2.2130196988	-1.9530700497	-0.4101325261	-0.18955
C	 1.8547383291	-0.9214684091	-1.4867525169	-0.196562
C	 0.3664207921	-0.5578677405	-1.3946757278	-0.248316
H	 0.9382641983	 1.9442031993	-0.3035985564	 0.117971
H	-0.772476538	 1.9434089221	-0.7397555553	 0.116446
H	-0.2951889648	 1.9527970573	 0.9657775779	 0.112923
H	-1.9019742033	-0.0631365096	 1.2148598414	 0.085484
H	-1.9454926501	-1.2260307018	-0.1464292096	 0.098404
H	 0.7007480984	-0.019944861	 2.050740798	 0.05593
H	 2.7875731156	-0.6013171815	 1.1729425649	 0.095038
H	 2.1272111122	-2.1193384504	 1.768051546	 0.107158
H	 3.2484779349	-2.2915676828	-0.5223110612	 0.088132
H	 1.5740464898	-2.8365289387	-0.5312295813	 0.106294
H	 2.4791240097	-0.0251576963	-1.3633259986	 0.089768
H	 2.0725391731	-1.3156754576	-2.4854156169	 0.091808
H	-0.2068932444	-1.4721501642	-1.5882140593	 0.100996
H	 0.0922738831	 0.150577773	-2.1850686011	 0.088259
104.7254	149.4115	213.9295	260.0433	281.0047	360.3819	367.8481	383.1102	445.1065	482.9147	626.0467	636.5298	752.0778	799.1281	847.7475	853.4848	898.7503	901.9324	958.0517	985.6715	991.31	1004.8263	1011.3778	1055.2109	1075.7589	1107.1566	1146.9936	1157.0371	1166.1619	1186.2855	1240.2745	1268.3467	1280.2714	1302.5398	1314.0821	1357.3657	1364.4904	1378.0933	1381.8705	1388.6197	1412.6015	1417.2929	1466.9192	1481.4392	1488.5653	1495.725	1497.9271	1499.9161	1524.5437	2957.7489	2986.6986	3009.227	3018.345	3021.9132	3025.9834	3030.406	3057.3622	3060.9253	3063.2572	3067.485	3077.2029	3086.9524	3095.715
CC12COC1CCCC2	C[C@]12CO[C@H]1CCCC2	
InChI=1S/C8H14O/c1-8-5-3-2-4-7(8)9-6-8/h7H,2-6H2,1H3	InChI=1S/C8H14O/c1-8-5-3-2-4-7(8)9-6-8/h7H,2-6H2,1H3/t7-,8-/m0/s1
