18
gdb 34862	2.56693	1.57677	1.4665	2.2102	73.94	-0.2611	0.0156	0.2768	988.2445	0.15061	-401.957283	-401.949917	-401.948973	-401.98916	28.813	
N	-0.0943440731	-1.2289605711	-0.1255680481	-0.344082
C	-0.0598261835	-0.0743522704	-0.0659398124	 0.281291
C	-0.0018204752	 1.3715489918	 0.0245157947	-0.161408
C	-0.1181729329	 2.0907358862	 1.4004152753	 0.082822
C	 0.5630565586	 1.2976414749	 2.5187353288	-0.242358
C	 2.0917147921	 1.267295711	 2.2614030537	-0.186762
C	 2.450022111	 1.3323224586	 0.7543117628	-0.242358
C	 1.3644112649	 2.1179856999	 0.0141129043	 0.082822
O	 0.7877838518	 3.1155190462	 0.903240707	-0.294825
H	-0.6857453694	 1.8210862594	-0.6980738596	 0.133528
H	-1.095018412	 2.4982096308	 1.6686276827	 0.09414
H	 0.3598952775	 1.7678695265	 3.4854899057	 0.109514
H	 0.1347383505	 0.2899498916	 2.5580063856	 0.12794
H	 2.5270482525	 2.1449462141	 2.7442221483	 0.120983
H	 2.5453213483	 0.390208468	 2.7292737612	 0.107157
H	 3.4187895235	 1.8240891669	 0.6252442068	 0.109514
H	 2.5375901051	 0.3341125002	 0.3111978039	 0.127941
H	 1.6892875703	 2.5493847151	-0.9348603308	 0.09414
103.4805	149.5997	180.5861	311.0727	367.2739	425.6036	500.4063	547.2374	605.8654	615.2216	738.7129	804.2924	832.7698	864.8184	871.9542	915.51	931.609	1007.5942	1016.0092	1025.6439	1061.7825	1070.2308	1116.696	1130.2624	1183.5673	1233.6883	1238.7781	1258.2834	1305.4766	1328.9152	1339.7658	1346.6713	1363.654	1380.8355	1381.2901	1481.8329	1487.4313	1502.6206	2350.4751	3046.4276	3046.5729	3068.3654	3082.9187	3085.3264	3091.0058	3093.7562	3102.9022	3115.5024
N#CC1C2CCCC1O2	N#C[C@H]1[C@H]2CCC[C@@H]1O2	
InChI=1S/C7H9NO/c8-4-5-6-2-1-3-7(5)9-6/h5-7H,1-3H2	InChI=1S/C7H9NO/c8-4-5-6-2-1-3-7(5)9-6/h5-7H,1-3H2/t5-,6+,7-
