15
gdb 48528	2.75494	1.48792	1.25556	4.0755	71.97	-0.2531	-0.0439	0.2092	1013.9992	0.112455	-420.605004	-420.597804	-420.59686	-420.637097	27.193	
O	-0.2620461324	 0.0940942456	-0.2829949255	-0.260394
C	-0.0375607098	 1.2334589923	 0.0481019552	 0.012547
C	 1.2835263088	 1.8541503575	 0.0481850722	 0.287482
C	 1.9376037784	 2.9033361002	 0.9242689601	-0.12467
C	 3.2416182756	 2.0934238036	 0.9643194967	-0.240194
C	 2.7427297046	 1.401089751	-0.3381169705	-0.246241
C	 2.69518192	 2.5633231327	-1.348981344	 0.45429
O	 3.1332222723	 2.7392940403	-2.447468806	-0.326879
C	 1.657128916	 3.2727831521	-0.5151312629	-0.239536
H	-0.8484396299	 1.9131266407	 0.3961968372	 0.076086
H	 1.4721134429	 3.4634582618	 1.725908188	 0.117539
H	 4.190018951	 2.6374751065	 0.9100832866	 0.116735
H	 3.2486518148	 1.4048395281	 1.8117136978	 0.125278
H	 3.0566773201	 0.4059855925	-0.6347299693	 0.118328
H	 0.9709820377	 4.0602195853	-0.7963572355	 0.129631
76.6172	148.4232	185.2479	273.4952	401.9977	460.8036	490.8898	585.1525	657.972	709.9464	740.085	796.9292	842.3174	887.5053	929.5261	962.4203	985.769	993.9514	1041.9783	1049.282	1078.1853	1116.6591	1120.7312	1144.2643	1201.8052	1210.99	1291.9722	1303.408	1390.1784	1441.977	1499.0524	1798.0019	1892.9542	2870.4932	3052.8291	3120.7546	3188.7047	3196.1288	3222.7602
O=CC12C3CC1C(=O)C23	O=C[C@@]12[C@H]3C[C@@H]1C(=O)[C@@H]23	
InChI=1S/C7H6O2/c8-2-7-3-1-4(7)6(9)5(3)7/h2-5H,1H2	InChI=1S/C7H6O2/c8-2-7-3-1-4(7)6(9)5(3)7/h2-5H,1H2/t3-,4+,5-,7+/m0/s1
