15
gdb 43361	2.98333	1.7647	1.29634	3.1385	66.08	-0.2396	-0.0662	0.1735	938.3787	0.114697	-457.784776	-457.777965	-457.777021	-457.81654	25.727	
O	 0.0071369079	-0.0350247671	-0.1278805418	-0.312573
C	-0.0341785451	 1.1667899043	-0.0380648265	 0.367183
C	-1.2409574755	 2.0290776454	 0.0092094281	-0.177584
C	-0.8976209898	 3.3216928308	 0.0518377655	-0.080123
C	 0.6028107883	 3.5394236868	 0.04907577	 0.024847
O	 1.0795435161	 4.1265595345	 1.2567925678	-0.249313
C	 1.3652112141	 3.0412417515	 2.1126478957	 0.009836
O	 1.8715350418	 2.0061493529	 1.2973147767	-0.243296
C	 1.19592373	 2.1083191724	 0.0490562147	-0.04135
H	-2.2439400441	 1.6200276276	 0.0029519461	 0.128732
H	-1.5831350383	 4.1605593878	 0.1008334849	 0.129857
H	 0.9309731611	 4.1756768537	-0.7769400037	 0.107028
H	 2.1340826242	 3.3438211353	 2.8277006124	 0.129813
H	 0.4565563955	 2.7109333222	 2.6440602418	 0.094489
H	 1.9099319036	 1.890634942	-0.7481479818	 0.112453
62.836	188.8019	222.9098	304.2367	401.4713	486.9692	552.8782	686.7999	708.0453	748.8508	800.2634	841.2137	882.0045	918.4117	949.207	1001.9568	1006.8371	1023.4743	1066.7723	1099.5015	1114.1281	1180.4282	1188.7859	1228.5246	1251.2271	1297.3171	1331.3432	1342.5062	1363.8284	1422.9945	1542.7412	1645.9967	1828.6676	2959.5993	3077.7988	3094.8211	3103.5152	3196.0321	3222.6844
O=C1C=CC2OCOC12	O=C1C=C[C@H]2OCO[C@@H]12	
InChI=1S/C6H6O3/c7-4-1-2-5-6(4)9-3-8-5/h1-2,5-6H,3H2	InChI=1S/C6H6O3/c7-4-1-2-5-6(4)9-3-8-5/h1-2,5-6H,3H2/t5-,6+/m1/s1
