24
gdb 100020	2.42244	1.21341	1.14292	2.8228	84.61	-0.231	0.0603	0.2913	1281.1143	0.215009	-405.533212	-405.522309	-405.521365	-405.568512	41.416	
C	 0.3049144861	 1.499528712	 0.2802590914	-0.42098
C	 0.0858641136	 0.0056920847	 0.0166344558	-0.186211
C	 0.6193203687	-0.5052982292	-1.3453022421	 0.271562
C	-0.1732896997	 0.0693230524	-2.5293758372	-0.432135
O	 2.0017086902	-0.1431637453	-1.481582617	-0.475816
C	 0.5950974322	-2.0471657733	-1.3766705185	 0.350156
C	-0.7428278568	-2.7142495388	-1.1177867431	-0.469302
C	 1.5725060279	-2.744297797	-2.2514774798	-0.282861
N	 1.736550379	-2.7638334876	-0.7812119554	-0.375078
H	 1.3698560627	 1.755123031	 0.2765741657	 0.114462
H	-0.2024299675	 2.1318603716	-0.45586828	 0.117351
H	-0.0858309861	 1.7731075837	 1.2647269461	 0.121821
H	 0.5790799396	-0.5726203575	 0.8062958233	 0.110132
H	-0.9841728186	-0.2174555872	 0.0855848812	 0.10063
H	-0.0985603653	 1.1621094977	-2.5602228315	 0.104984
H	 0.2198481142	-0.3250402839	-3.4699799233	 0.126827
H	-1.23554956	-0.1815285051	-2.4647349409	 0.122166
H	 2.0488803012	 0.8089280585	-1.6050136649	 0.283467
H	-1.496848776	-2.4175584603	-1.8542459189	 0.111026
H	-0.6204123532	-3.7982864552	-1.1736089861	 0.127963
H	-1.1276928295	-2.4807314377	-0.1205204008	 0.12013
H	 1.304837234	-3.6991227697	-2.6968899079	 0.102452
H	 2.2666615773	-2.1410416633	-2.8262056482	 0.117899
H	 2.454156576	-2.0810249904	-0.5463463278	 0.239356
60.3603	86.9822	174.5596	196.9777	208.3891	244.511	266.7382	278.9395	316.3607	330.0247	361.1465	370.49	417.0865	443.3062	517.8248	524.759	667.169	785.3261	798.6531	850.144	896.964	923.1783	935.4151	990.9334	1002.7745	1010.4013	1030.6795	1056.3491	1086.8284	1114.2054	1119.5459	1142.5328	1195.3691	1198.3465	1290.9986	1299.3476	1320.3343	1342.6523	1364.4968	1395.211	1406.2047	1408.684	1421.0471	1475.0333	1485.2864	1494.6026	1498.449	1501.0207	1504.7285	1506.0394	1512.8086	3032.5541	3036.8335	3038.596	3042.7477	3074.5069	3101.1508	3103.2041	3105.9873	3107.6847	3111.2754	3123.8008	3127.2074	3207.8892	3495.529	3838.6597
CCC(C)(O)C1(C)CN1	CC[C@@](C)(O)[C@@]1(C)CN1	
InChI=1S/C7H15NO/c1-4-7(3,9)6(2)5-8-6/h8-9H,4-5H2,1-3H3	InChI=1S/C7H15NO/c1-4-7(3,9)6(2)5-8-6/h8-9H,4-5H2,1-3H3/t6-,7-/m1/s1
