17
gdb 91591	3.06208	1.16063	0.98218	4.3941	69.76	-0.2664	0.0057	0.2721	1212.9957	0.134272	-458.946669	-458.938018	-458.937073	-458.980718	31.509	
O	 0.0753132315	 1.4233209606	-0.0870953475	-0.432654
C	 0.1100154575	 0.0274361586	 0.0945496337	 0.039126
C	 0.1809120901	-0.5735689114	 1.5485727307	-0.270786
C	-1.1417869528	-1.3005886623	 1.2770903153	-0.135353
C	-2.2145448549	-0.2773266204	 0.9894747844	-0.333034
C	-1.2376717926	-0.643108973	-0.0906554473	 0.428033
O	-1.6373506689	-1.2234128615	-1.2988756597	-0.234535
C	-2.3059536445	-0.4139600242	-2.1608627331	 0.144724
O	-2.6665420334	-0.7907632522	-3.2333528072	-0.270224
H	 0.9744946183	 1.7638670161	-0.046229516	 0.289971
H	 0.8581226772	-0.4474726918	-0.5529505307	 0.09014
H	 1.0396899026	-1.2312928329	 1.6956622609	 0.110117
H	 0.1461624175	 0.169527457	 2.3503459124	 0.106482
H	-1.3796071232	-2.3208665138	 1.5462213575	 0.109882
H	-3.2063287315	-0.6908659657	 0.8378092557	 0.127858
H	-2.1900645936	 0.7035939492	 1.4554283391	 0.128591
H	-2.4642079694	 0.5999184377	-1.7530139183	 0.101663
48.099	114.8079	131.8504	176.8016	268.3436	305.0725	349.9696	380.9222	461.6276	484.0207	608.0601	666.7817	782.6663	825.3816	869.7444	919.0694	963.2217	981.9213	1023.2868	1034.9233	1046.4202	1073.8378	1087.6866	1123.0631	1143.2912	1169.7945	1198.6286	1232.5972	1243.3737	1267.2188	1321.747	1368.3923	1422.4511	1437.3334	1473.2802	1500.7874	1869.859	2991.384	3026.147	3058.7747	3120.3759	3121.0807	3207.5362	3215.782	3821.3616
OC1CC2CC12OC=O	O[C@H]1C[C@H]2C[C@@]12OC=O	
InChI=1S/C6H8O3/c7-3-9-6-2-4(6)1-5(6)8/h3-5,8H,1-2H2	InChI=1S/C6H8O3/c7-3-9-6-2-4(6)1-5(6)8/h3-5,8H,1-2H2/t4-,5-,6-/m0/s1
