19
gdb 43409	2.35427	1.71923	1.18204	3.9381	82.49	-0.2348	-0.0426	0.1922	1083.0451	0.16183	-385.911305	-385.903687	-385.902743	-385.943375	30.286	
O	 0.0397884313	 0.2788789285	 0.9755571906	-0.348288
C	-0.0399911881	 1.2948266105	 0.3041291889	 0.367763
C	-1.3881033171	 1.713537308	-0.1698319365	-0.152003
C	-1.7669628766	 2.5578289928	-1.1371698774	-0.039985
C	-0.9537439879	 3.3861237137	-2.0901826941	-0.271876
C	 0.4784822605	 2.9297386272	-2.386729078	-0.229946
C	 1.4432337875	 2.9052170324	-1.2159458451	-0.01987
C	 1.1954410866	 3.6114384873	 0.0785997153	-0.308272
C	 1.1949905727	 2.0866970481	 0.0408281066	-0.113667
H	-2.1632990738	 1.1780697673	 0.3725601075	 0.107731
H	-2.8421771307	 2.6677630376	-1.2758766409	 0.103212
H	-1.5000697647	 3.4280426413	-3.0407889983	 0.11328
H	-0.9450361259	 4.4261261768	-1.7310657393	 0.124216
H	 0.4501542913	 1.9339883583	-2.8472203839	 0.113557
H	 0.8857601461	 3.6064083935	-3.1477484647	 0.105049
H	 2.4825743425	 2.8706594634	-1.5317594237	 0.097641
H	 2.0234426371	 4.0926491059	 0.5865885347	 0.121386
H	 0.2374914323	 4.094517573	 0.2330305667	 0.126231
H	 2.0595497071	 1.5938106745	 0.4710138017	 0.103839
80.8293	194.1886	227.6702	286.735	350.9115	364.3656	448.4151	477.0596	581.7381	625.9946	671.6852	727.0722	790.2886	828.5316	844.7326	889.3331	913.4873	932.3569	967.1347	1014.2823	1032.218	1060.4166	1070.2164	1094.0951	1140.4407	1149.0865	1215.1003	1219.1796	1246.1484	1290.3049	1305.0299	1374.6292	1381.8676	1398.0485	1417.3764	1426.0427	1471.0046	1485.2934	1494.5171	1702.425	1737.0649	3002.9495	3021.3842	3043.8877	3058.0662	3127.5211	3138.8667	3142.3703	3167.827	3177.6198	3227.3252
O=C1C=CCCC2CC12	O=C1C=CCC[C@H]2C[C@@H]12	
InChI=1S/C8H10O/c9-8-4-2-1-3-6-5-7(6)8/h2,4,6-7H,1,3,5H2	InChI=1S/C8H10O/c9-8-4-2-1-3-6-5-7(6)8/h2,4,6-7H,1,3,5H2/t6-,7+/m0/s1
