17
gdb 44820	2.96498	1.25084	1.01255	3.2868	78.8	-0.2402	-0.0097	0.2306	1190.3472	0.134114	-384.647299	-384.638742	-384.637798	-384.681178	32.038	
O	-0.4473426389	 0.119636075	-0.3718718369	-0.310942
C	-0.2303930714	 1.256465648	-0.0602396204	 0.361813
C	-1.1625961336	 2.4581853434	 0.2588968306	-0.356537
C	 0.069846673	 3.3556990779	 0.0724431888	-0.120968
C	 1.0935356124	 2.994613325	 1.0879551548	-0.309863
C	 0.99431198	 2.1182578544	-0.1522890419	 0.246438
C	 2.1643217963	 1.8799112332	-1.0823798941	-0.475599
C	 3.2000092968	 1.032810416	-0.4967210467	 0.321919
C	 4.0489037083	 0.3439341386	 0.0012252177	-0.454232
H	-1.9249331603	 2.5550100345	-0.5189300955	 0.133096
H	-1.6429481686	 2.4877978314	 1.2410729945	 0.122482
H	 0.0920087541	 4.278333416	-0.4924969653	 0.109121
H	 1.994879486	 3.599538871	 1.1117355822	 0.130047
H	 0.7927778447	 2.6114090114	 2.0593595535	 0.124258
H	 1.7969589713	 1.420573204	-2.0085571889	 0.146534
H	 2.6016991305	 2.8459866743	-1.3663976942	 0.133757
H	 4.7952649493	-0.2754482742	 0.4331670018	 0.198675
39.6633	100.7543	137.1711	224.456	295.6189	332.2014	398.8014	420.999	504.3122	556.7038	621.8097	642.8798	664.92	725.6128	805.1241	835.3393	880.3929	908.2058	956.6795	958.4418	989.554	1016.3709	1029.716	1070.6933	1095.4054	1142.3262	1196.1275	1221.714	1258.2659	1317.8035	1333.2321	1376.3546	1455.6625	1459.5892	1500.1673	1875.909	2242.2427	3018.7396	3055.0812	3058.9574	3114.8812	3115.9078	3198.7848	3208.508	3506.9529
O=C1CC2CC12CC#C	O=C1C[C@H]2C[C@@]12CC#C	
InChI=1S/C8H8O/c1-2-3-8-5-6(8)4-7(8)9/h1,6H,3-5H2	InChI=1S/C8H8O/c1-2-3-8-5-6(8)4-7(8)9/h1,6H,3-5H2/t6-,8+/m0/s1
