21
gdb 57599	2.2432	1.3732	1.19646	3.4254	77.74	-0.2482	-0.0252	0.223	1175.5983	0.179984	-424.213758	-424.203859	-424.202914	-424.248802	35.9	
C	 0.3433399565	 1.5499207932	 0.119696601	-0.411878
C	-0.0278138447	 0.0692892555	-0.0368017953	 0.12818
C	 0.3763717398	-0.7317968725	 1.2175824067	-0.42982
C	-1.5386623454	-0.0743687462	-0.2169548197	 0.158597
O	-2.2985547439	 0.8431940796	-0.3935564427	-0.260927
C	 0.6971298337	-0.5137775304	-1.2762136203	-0.03225
C	 0.2990152022	-1.9275259768	-1.7637967058	-0.105102
O	-0.4144617575	-1.3801283365	-2.8888537157	-0.272642
C	 0.158110253	-0.0739156601	-2.6587214248	-0.104103
H	 1.4225430604	 1.6578327232	 0.2683109195	 0.108181
H	 0.0530759497	 2.1284980625	-0.7605501122	 0.13146
H	-0.1689011213	 1.9905067453	 0.9791666518	 0.125657
H	-0.080819199	-0.3096601043	 2.1182020775	 0.127874
H	 0.0711721624	-1.7810234302	 1.147928196	 0.12072
H	 1.4628754455	-0.7071038211	 1.349912185	 0.123554
H	-1.918352561	-1.1194976238	-0.1625240845	 0.081019
H	 1.7717016448	-0.3701595265	-1.1322872361	 0.081228
H	 1.1536473463	-2.5407182861	-2.0811072674	 0.100223
H	-0.3467930214	-2.5360655005	-1.12128439	 0.105603
H	-0.602080307	 0.7140743421	-2.6722628421	 0.125081
H	 0.9393776368	 0.1630115537	-3.3928956209	 0.099345
57.7298	92.1921	101.7291	196.0481	218.2982	234.626	268.5213	290.2384	320.0911	352.2551	431.9209	453.8833	572.6742	739.2743	835.4942	846.0182	872.8566	914.1588	948.5166	953.5852	1001.4929	1012.2192	1033.8572	1057.313	1071.306	1101.4479	1161.9283	1174.7618	1196.8311	1223.8871	1248.8769	1256.6816	1308.3729	1357.4309	1380.4795	1400.5769	1412.641	1436.2638	1481.009	1486.5877	1500.1136	1507.7959	1511.5816	1537.8559	1824.1176	2876.5577	3002.9016	3014.1221	3032.2736	3043.943	3057.6078	3065.7412	3076.4229	3103.5802	3104.392	3114.9861	3125.9394
CC(C)(C=O)C1COC1	CC(C)(C=O)C1COC1	
InChI=1S/C7H12O2/c1-7(2,5-8)6-3-9-4-6/h5-6H,3-4H2,1-2H3	InChI=1S/C7H12O2/c1-7(2,5-8)6-3-9-4-6/h5-6H,3-4H2,1-2H3
