15
gdb 129450	2.72685	1.59677	1.00859	3.6026	70.5	-0.1984	-0.0118	0.1867	1095.1754	0.115212	-450.184863	-450.176534	-450.175589	-450.21775	31.189	
N	-0.0774450967	 1.2990870698	-0.0189627762	-0.538992
C	 0.0330635053	-0.0544869058	-0.0198477799	 0.354977
O	 1.1132414615	-0.6390261198	-0.0094844338	-0.400872
C	-1.2435083055	-0.7912847124	-0.0249043651	 0.213152
N	-2.4334343133	-0.175100862	 0.0278195141	-0.31608
N	-3.3185207795	-1.1657336318	 0.0457604858	-0.182724
C	-2.752737084	-2.4090916398	-0.0020022683	-0.110247
C	-1.3834255021	-2.2067822403	-0.0502815535	 0.148476
N	-0.3535842037	-3.1262268722	-0.1771455143	-0.617521
H	 0.7603189466	 1.8536177939	 0.0145904605	 0.258881
H	-0.983295543	 1.7358397718	-0.002344082	 0.272929
H	-4.2991600203	-0.94580338	 0.0902440409	 0.277251
H	-3.3493584666	-3.3064160094	-0.0020258357	 0.129667
H	-0.4862427993	-3.9914807045	 0.3254313956	 0.239894
H	 0.5444850502	-2.6912008275	 0.0046807521	 0.271206
77.5827	158.3382	192.3668	203.3099	319.0587	332.2726	362.2725	437.0215	493.8515	522.9579	584.325	642.5279	670.6424	693.5313	702.6796	727.8942	756.8716	818.2642	952.7455	1077.8997	1086.4465	1110.1609	1195.8093	1238.7646	1337.2597	1387.768	1403.044	1487.877	1531.85	1599.709	1610.8419	1648.2573	1756.1137	3269.4546	3516.6343	3606.0454	3640.1345	3671.4151	3748.3142
NC(=O)C1=NNC=C1N	NC(=O)c1n[nH]cc1N	
InChI=1S/C4H6N4O/c5-2-1-7-8-3(2)4(6)9/h1H,5H2,(H2,6,9)(H,7,8)	InChI=1S/C4H6N4O/c5-2-1-7-8-3(2)4(6)9/h1H,5H2,(H2,6,9)(H,7,8)
