15
gdb 52574	6.10728	0.63151	0.6088	4.7662	74.67	-0.2596	-0.0457	0.2139	1799.0863	0.108372	-457.77052	-457.760432	-457.759488	-457.810283	32.538	
C	-0.0193786735	 1.3987712761	-0.0253846133	-0.509729
C	 0.139398519	-0.0434264364	-0.0733015108	 0.249285
C	 0.2729481323	-1.2400659538	-0.1129117195	-0.076158
C	 0.3918110232	-2.6675566412	-0.2299578821	 0.249749
O	-0.0595447414	-3.3349559087	-1.1293756429	-0.352791
O	 1.0845008938	-3.1892937123	 0.8118212844	-0.229207
C	 1.2049069753	-4.6138658546	 0.7871715845	-0.157374
C	 2.1190203194	-5.1020617272	-0.330478022	 0.155544
O	 2.2512141064	-6.2645913545	-0.5970094823	-0.231937
H	 0.1116457906	 1.7790788957	 0.9927168259	 0.164157
H	 0.7222562035	 1.887403476	-0.6665908974	 0.167722
H	-1.0126396908	 1.6947730929	-0.3784551715	 0.167034
H	 1.6440346306	-4.8833710136	 1.7517054814	 0.14802
H	 0.2282743261	-5.0943392427	 0.6858308336	 0.159444
H	 2.6812411254	-4.2973996857	-0.853214068	 0.096241
2.7316	38.9123	58.1513	98.6339	145.309	168.1417	279.594	312.4287	363.7321	406.7892	420.0132	559.8358	605.4665	708.3689	772.6789	845.1574	996.1532	1035.2372	1046.0684	1053.7162	1095.3551	1121.037	1273.0516	1278.5526	1355.7759	1409.0168	1410.0995	1448.105	1468.3732	1472.2625	1783.8877	1846.7324	2362.5854	2897.4164	3034.5872	3067.5678	3099.4134	3103.9231	3125.0004
CC#CC(=O)OCC=O	CC#CC(=O)OCC=O	
InChI=1S/C6H6O3/c1-2-3-6(8)9-5-4-7/h4H,5H2,1H3	InChI=1S/C6H6O3/c1-2-3-6(8)9-5-4-7/h4H,5H2,1H3
