19
gdb 73093	2.44789	1.75413	1.312	2.6397	75.69	-0.2429	0.0052	0.2481	1025.0313	0.160319	-423.018127	-423.010228	-423.009284	-423.050273	31.22	
O	 0.1102973311	 1.3868871811	-0.0654901124	-0.479849
C	 0.0740383	-0.0216841819	-0.0252400282	 0.328527
C	 0.1517307901	-0.6649977606	-1.4205044783	-0.112334
O	-0.9825638414	-1.5110875826	-1.1304534554	-0.305654
C	-1.3244449617	-0.6932982715	 0.0264924401	 0.065329
C	-1.6965208829	-1.4418163077	 1.2622507533	-0.080811
C	-0.9511081928	-1.3757927127	 2.3664293207	-0.054955
C	 0.3729944321	-0.6519009645	 2.4145454124	-0.277944
C	 1.0218139333	-0.6149140355	 1.0199401688	-0.27009
H	 0.1171699853	 1.7217262355	 0.8375432315	 0.279699
H	-0.0624258443	 0.0571974621	-2.2190725571	 0.104103
H	 1.0475119792	-1.2435206505	-1.6703420533	 0.10211
H	-2.110904861	 0.0271433169	-0.245670441	 0.079903
H	-2.6277922222	-2.0022307039	 1.2488065161	 0.097324
H	-1.2828935915	-1.8714797559	 3.2754000495	 0.094151
H	 0.2393979677	 0.3657289187	 2.8154845593	 0.100292
H	 1.0435407747	-1.1490849953	 3.1239470732	 0.110877
H	 1.2605245172	-1.6445300247	 0.7352237662	 0.1181
H	 1.957341327	-0.0451753269	 1.0228997946	 0.101221
100.949	175.9119	218.5963	254.1061	325.5573	349.2831	418.3208	476.7881	484.8262	520.7764	655.7602	728.996	741.3665	788.6052	880.2375	927.5462	945.7135	974.751	990.5419	999.18	1017.0533	1019.6384	1052.2524	1072.6735	1135.3741	1144.8546	1167.4469	1201.4428	1253.7677	1261.4639	1288.0274	1317.8144	1346.3231	1352.7454	1393.4156	1410.4352	1417.3514	1472.4096	1484.244	1516.399	1709.5286	2980.4678	2986.2154	3015.9776	3041.9984	3060.7019	3073.7512	3092.1813	3149.1917	3171.8402	3807.146
OC12COC1C=CCC2	O[C@]12CO[C@H]1C=CCC2	
InChI=1S/C7H10O2/c8-7-4-2-1-3-6(7)9-5-7/h1,3,6,8H,2,4-5H2	InChI=1S/C7H10O2/c8-7-4-2-1-3-6(7)9-5-7/h1,3,6,8H,2,4-5H2/t6-,7+/m0/s1
