16
gdb 123932	3.55321	1.61744	1.15028	3.4828	70.24	-0.1933	0.0393	0.2326	1008.4799	0.129195	-434.071888	-434.065103	-434.064159	-434.10296	26.998	
C	-0.0160397198	 1.4353537738	 0.0719826202	-0.189664
C	 1.4318112815	 1.959902533	 0.0200697215	-0.09103
O	 2.2199662145	 1.4484562209	 1.1121275982	-0.277256
C	 1.959907356	 0.1387094001	 1.2980237128	 0.44486
C	 0.9185805559	-0.6066091184	 0.7863773332	 0.09364
N	-0.1134003254	-0.0254309985	 0.0059802647	-0.406604
C	 1.1289903069	-1.8977658758	 1.3222205623	-0.095854
N	 2.214259063	-1.9469403317	 2.0909319285	-0.236573
N	 2.7082188543	-0.6794777408	 2.0697604383	-0.321403
H	-0.4701941805	 1.7715165049	 1.0121709284	 0.127902
H	-0.5871329937	 1.8770287751	-0.7494480657	 0.111769
H	 1.9076252284	 1.6682615674	-0.9259975615	 0.108799
H	 1.4647961486	 3.0475685281	 0.1145304866	 0.121103
H	-0.0942628623	-0.3507415296	-0.9547654299	 0.229369
H	 0.5402486955	-2.7905826281	 1.1697164122	 0.107975
H	 3.522029697	-0.4472944704	 2.6118629502	 0.272967
121.5877	235.2206	337.845	348.5307	413.748	423.2498	467.4263	532.7822	668.6553	683.4816	704.7618	721.229	783.5143	869.6503	877.4937	942.4567	953.4055	1042.9209	1059.1527	1095.1515	1127.4323	1207.5422	1244.0939	1269.1471	1283.6191	1327.6265	1374.0322	1390.6803	1398.8027	1448.3332	1458.4671	1475.2818	1491.425	1576.9494	1655.6065	3016.469	3037.3248	3099.1235	3111.112	3242.5512	3508.5241	3683.8521
C1COC2=C(N1)C=NN2	C1COc2c(N1)cn[nH]2	
InChI=1S/C5H7N3O/c1-2-9-5-4(6-1)3-7-8-5/h3,6H,1-2H2,(H,7,8)	InChI=1S/C5H7N3O/c1-2-9-5-4(6-1)3-7-8-5/h3,6H,1-2H2,(H,7,8)
