15
gdb 17836	4.24078	1.72181	1.49365	3.1151	61.05	-0.2361	0.0273	0.2635	847.4247	0.119937	-399.78306	-399.77613	-399.775185	-399.814429	26.436	
N	 0.5481421379	 0.367784953	 0.8330451774	-0.543202
C	-0.021891772	 0.0294867424	-0.3577526039	 0.391517
O	 0.3159586081	 0.5167586253	-1.4205841682	-0.374741
C	-1.1192278734	-1.0098030697	-0.3074706689	-0.122971
C	-0.9864789975	-2.4714951129	 0.1233363919	-0.142603
C	-0.1914990073	-2.5874797425	 1.4168709424	-0.099404
O	-1.0315286541	-1.5801013172	 2.0631192447	-0.29453
C	-1.8641404947	-1.5191457109	 0.893177724	 0.055528
H	 1.2157479927	 1.1215656019	 0.825202515	 0.254726
H	 0.1438720916	 0.0450518326	 1.7004189937	 0.271069
H	-1.7465525116	-0.9291949392	-1.1903604541	 0.12209
H	-1.2351136302	-3.2851265258	-0.5432636085	 0.114507
H	-0.3202347806	-3.5517578877	 1.9179050757	 0.123787
H	 0.8641124925	-2.3002608672	 1.4057965769	 0.125593
H	-2.9340731916	-1.441906952	 1.0469608119	 0.118633
64.3085	196.844	237.6145	349.2254	375.6105	438.9688	486.254	628.8531	673.3948	740.882	773.514	805.0575	826.5067	883.0337	954.5235	961.7061	1005.8704	1010.6019	1051.2102	1062.7001	1101.9931	1123.55	1154.3931	1170.063	1258.0873	1310.3914	1334.253	1380.8118	1412.0147	1509.6287	1605.3585	1788.9238	3047.4521	3102.9311	3167.2086	3184.8449	3216.3236	3547.1176	3704.4487
NC(=O)C1C2COC12	NC(=O)[C@H]1[C@H]2CO[C@@H]12	
InChI=1S/C5H7NO2/c6-5(7)3-2-1-8-4(2)3/h2-4H,1H2,(H2,6,7)	InChI=1S/C5H7NO2/c6-5(7)3-2-1-8-4(2)3/h2-4H,1H2,(H2,6,7)/t2-,3+,4-/m1/s1
