19
gdb 41868	3.26821	1.52623	1.11706	1.6172	82.93	-0.2247	0.02	0.2447	1094.3261	0.161834	-385.91258	-385.905227	-385.904283	-385.94448	29.133	
C	-0.0534845292	 1.5368453896	 0.0520965185	-0.11328
O	 1.3214332654	 1.9171736633	-0.0106120608	-0.285078
C	 2.1485113957	 0.757586986	 0.0231464556	 0.049085
C	 3.1065041617	 0.6888830291	-1.1761322743	-0.268851
C	 3.6412328284	-0.7121802663	-1.352952254	-0.06682
C	 3.0577878594	-1.8052987534	-0.859774589	-0.04109
C	 1.7753656717	-1.794864768	-0.0584475072	-0.381794
C	 1.2013238239	-0.4143768917	 0.0133620108	 0.345694
C	-0.049447699	 0.0328492726	 0.0126212163	-0.258816
H	-0.5127072059	 1.9326266739	 0.9731799835	 0.100735
H	-0.5976040258	 1.9833170175	-0.7943297063	 0.104063
H	 2.7523633548	 0.766535401	 0.9470609811	 0.079365
H	 2.5605552715	 1.0067604786	-2.0746220396	 0.1171
H	 3.9296457945	 1.401340485	-1.0498044089	 0.106394
H	 4.5600943279	-0.8162467645	-1.9248900779	 0.087861
H	 3.5084245965	-2.7799679719	-1.0295823352	 0.087848
H	 1.0492404914	-2.4966708403	-0.4879735652	 0.117959
H	 1.984483634	-2.1768789292	 0.953817949	 0.122654
H	-0.954997477	-0.5609603515	-0.0163697464	 0.096971
93.372	130.7327	243.336	329.3779	373.7902	392.1454	465.7126	558.9806	604.4977	679.6536	765.9297	784.2712	814.2561	858.2678	912.9443	937.029	959.3872	976.8287	997.3636	1002.9291	1026.9069	1050.153	1080.9537	1112.1787	1175.4783	1180.6484	1189.5074	1205.7158	1214.3868	1283.3027	1313.7311	1341.5671	1362.5072	1369.3417	1388.1225	1410.1368	1463.6882	1480.3238	1525.1808	1718.6752	1740.3465	2946.4631	2964.3673	2979.882	2990.8883	3020.4541	3038.0026	3061.2749	3145.3368	3168.8486	3207.6108
C1OC2CC=CCC2=C1	C1O[C@@H]2CC=CCC2=C1	
InChI=1S/C8H10O/c1-2-4-8-7(3-1)5-6-9-8/h1-2,5,8H,3-4,6H2	InChI=1S/C8H10O/c1-2-4-8-7(3-1)5-6-9-8/h1-2,5,8H,3-4,6H2/t8-/m1/s1
