23
gdb 118202	4.12085	0.64534	0.6124	3.3781	84.01	-0.2445	-0.01	0.2345	1923.0834	0.201493	-425.445083	-425.433485	-425.432541	-425.483154	39.978	
C	-0.0734078921	 1.408922793	-0.070634187	-0.226286
O	-0.0014560263	 0.0164435992	 0.1094977667	-0.232473
C	-1.2493571075	-0.6249453106	-0.0336671599	-0.06084
C	-1.0728081668	-2.1223643279	 0.2189869755	 0.021248
C	-0.5483421568	-2.3930660015	 1.6347653625	-0.398573
C	-2.3906051316	-2.8571804649	-0.0532794804	-0.317306
C	-2.2513974036	-4.3691693758	-0.2097978866	 0.383616
C	-3.5488588757	-5.1593783189	-0.2060879592	-0.472686
O	-1.1775867241	-4.9095642854	-0.3434083794	-0.292737
H	 0.93490417	 1.8096411579	 0.0595888656	 0.127012
H	-0.4329847259	 1.6739649927	-1.0780359623	 0.101689
H	-0.7423686299	 1.883611531	 0.6652734991	 0.10179
H	-1.9812282842	-0.1986296666	 0.6775230548	 0.076646
H	-1.6504623132	-0.4524990141	-1.0485608448	 0.077522
H	-0.331854632	-2.4931378125	-0.4980556107	 0.104244
H	-0.3499259473	-3.4578660967	 1.7768453791	 0.128911
H	 0.3770976356	-1.8400967594	 1.807983103	 0.132884
H	-1.2780580197	-2.0729000199	 2.3896255423	 0.098173
H	-3.1329714999	-2.64915852	 0.7298781288	 0.110723
H	-2.851390224	-2.4969286618	-0.9863819353	 0.118223
H	-4.2817914708	-4.7168729597	-0.8892474723	 0.133372
H	-3.3545256383	-6.1957700861	-0.4845364746	 0.142774
H	-3.992743656	-5.1318923021	 0.7961957851	 0.142075
43.468	58.1025	90.562	109.6448	114.954	133.8745	216.9131	226.9745	248.4299	293.0111	321.0054	374.9801	445.1631	479.0487	508.4294	612.5895	808.8141	825.875	866.3423	931.4213	952.7662	975.074	997.6378	1005.8401	1127.7126	1139.9978	1158.9719	1168.1538	1177.9494	1196.6121	1228.3548	1245.517	1275.616	1295.0464	1371.8892	1380.2854	1388.9675	1400.9492	1424.6139	1447.7223	1464.3081	1476.9602	1480.9627	1484.9449	1497.4498	1503.0246	1507.8324	1527.0474	1811.7574	2927.9325	2955.9102	2966.9993	2997.608	3008.4292	3026.9645	3033.0023	3036.3229	3060.9817	3096.3	3108.1611	3112.5505	3138.3159	3151.967
COCC(C)CC(C)=O	COC[C@@H](C)CC(=O)C	
InChI=1S/C7H14O2/c1-6(5-9-3)4-7(2)8/h6H,4-5H2,1-3H3	InChI=1S/C7H14O2/c1-6(5-9-3)4-7(2)8/h6H,4-5H2,1-3H3/t6-/m0/s1
