17
gdb 66111	2.6994	1.51559	1.36488	1.9477	73.27	-0.2609	0.0335	0.2944	1017.6533	0.134101	-421.774044	-421.765795	-421.764851	-421.806568	31.766	
C	 0.0929163272	 1.5026467872	-0.0250732705	-0.432252
C	-0.0009872877	-0.0232986479	 0.0085301196	 0.159172
O	 0.7324019689	-0.5208465939	-1.1240143884	-0.280057
C	 1.3493633036	-1.7638486193	-0.8045243705	-0.12136
C	 1.5418035141	-1.7397995776	 0.6949543096	 0.032075
O	 2.1190776526	-0.5109491555	 1.1608234125	-0.256536
C	 0.7022738248	-0.6623611096	 1.2119262333	-0.004962
C	-1.395618628	-0.4904447246	-0.0206907063	 0.339297
C	-2.5301397998	-0.8877211859	-0.0290392935	-0.487336
H	 1.1410405625	 1.7931757766	 0.0721397899	 0.141677
H	-0.2986695537	 1.877087805	-0.9733443309	 0.136964
H	-0.4873826702	 1.9414577949	 0.7908641292	 0.123224
H	 0.7133885886	-2.6192325229	-1.0807280497	 0.106302
H	 2.2850953633	-1.8210616072	-1.3691170703	 0.122748
H	 1.791936411	-2.6372938298	 1.2527476665	 0.107197
H	 0.2329838246	-0.6531885738	 2.1907167141	 0.112822
H	-3.535256142	-1.2309270258	-0.0490798347	 0.201024
103.4014	141.4368	196.4015	237.4535	256.4533	344.0916	392.994	453.3629	484.2606	546.7918	626.095	637.9767	666.6422	741.8271	801.2551	844.6022	877.7289	902.3959	922.8311	959.3917	999.4948	1049.0724	1088.175	1116.8671	1134.8186	1184.3565	1199.8119	1228.9104	1261.9228	1310.74	1370.222	1398.1464	1439.0562	1482.7658	1490.9669	1501.3722	2229.599	2991.3398	3054.0057	3081.7176	3133.172	3144.584	3161.4905	3174.7149	3498.7902
CC1(OCC2OC12)C#C	C[C@]1(OC[C@H]2O[C@@H]12)C#C	
InChI=1S/C7H8O2/c1-3-7(2)6-5(9-6)4-8-7/h1,5-6H,4H2,2H3	InChI=1S/C7H8O2/c1-3-7(2)6-5(9-6)4-8-7/h1,5-6H,4H2,2H3/t5-,6-,7+/m1/s1
