17
gdb 43223	2.90869	1.83502	1.61361	3.2377	71.14	-0.232	-0.0238	0.2082	887.2206	0.13845	-421.806716	-421.80027	-421.799325	-421.837384	26.557	
O	-0.040412807	 0.0441577756	 0.1708289518	-0.319401
C	-0.0097054178	 1.2404554627	 0.142938961	 0.415206
C	-1.0882556166	 2.3541097512	-0.0301072793	-0.019342
O	-1.38320965	 2.9814367214	 1.2059832988	-0.263519
C	-0.1884083522	 3.1755782121	 1.9683784044	-0.093548
C	 0.9774716204	 3.4535713964	 1.0187036882	-0.061411
C	 0.4766728665	 4.4133386706	-0.0962681286	-0.235753
C	 0.015795436	 3.1518336889	-0.8375356699	-0.051287
C	 1.077474086	 2.2799921438	-0.0491352463	-0.171853
H	-2.0310285754	 2.1112873504	-0.5201760799	 0.10069
H	-0.3781486288	 4.026745774	 2.6298504155	 0.115264
H	 0.0165619558	 2.2896461389	 2.5882924848	 0.11139
H	 1.8939348416	 3.6967392223	 1.5584508452	 0.08409
H	-0.2785522972	 5.1533323256	 0.1820660663	 0.110575
H	 1.2994654486	 4.9044954316	-0.6211000283	 0.107405
H	-0.0887739539	 3.1130760527	-1.9214775281	 0.083551
H	 2.0722504641	 2.0146217917	-0.4043478658	 0.087942
123.8531	293.2818	299.6801	375.4988	454.7758	524.1889	554.0897	598.0588	738.8383	762.577	815.5031	831.8321	851.6115	872.9097	920.3797	945.8749	977.5794	1022.1729	1038.5275	1066.79	1072.915	1085.8399	1108.2903	1135.309	1167.9193	1201.3557	1222.9405	1235.9503	1254.4765	1280.9226	1301.4398	1325.0479	1330.4357	1393.0203	1485.7328	1508.1787	1879.8991	2992.7885	3058.9659	3078.4787	3099.7304	3113.099	3115.75	3124.726	3131.2586
O=C1C2OCC3CC2C13	O=C1[C@H]2OC[C@@H]3C[C@H]2[C@H]13	
InChI=1S/C7H8O2/c8-6-5-3-1-4(5)7(6)9-2-3/h3-5,7H,1-2H2	InChI=1S/C7H8O2/c8-6-5-3-1-4(5)7(6)9-2-3/h3-5,7H,1-2H2/t3-,4-,5+,7-/m0/s1
