21
gdb 120093	3.45786	1.09957	0.98467	1.1032	82.6	-0.204	0.0762	0.2802	1308.1159	0.1819	-387.003407	-386.99477	-386.993826	-387.037177	33.31	
C	 0.0033954771	 1.4841051633	 0.0422165751	-0.390382
C	-0.1591017012	 0.0329918384	-0.3752265735	-0.03743
O	 1.0904350237	-0.4403804586	-0.8580467508	-0.248987
C	 1.0547999788	-1.7897778193	-1.2062272116	 0.130202
C	 0.5412251325	-2.4059459707	-2.4809223213	-0.129967
C	 0.9488753004	-1.7182818661	-3.8110254408	-0.057842
C	 1.7645371249	-0.456916733	-3.6670975797	-0.303524
C	 2.4121127922	-1.7945747029	-3.4257573246	-0.04996
C	 2.0401424787	-2.4803732683	-2.0835875689	-0.137681
H	 0.7700437424	 1.5775865106	 0.8165771155	 0.127498
H	 0.3011588905	 2.1016876179	-0.8101110425	 0.127903
H	-0.9397642373	 1.873500967	 0.4374309222	 0.114651
H	-0.4830053285	-0.5815144675	 0.4814046142	 0.087312
H	-0.9277206369	-0.0693436571	-1.1562766779	 0.097362
H	 0.7870742049	-2.4215088043	-0.3517058213	 0.085807
H	-0.1924398058	-3.2034682771	-2.461138664	 0.083367
H	 0.4927993525	-2.0017036056	-4.7506416446	 0.085705
H	 2.0366843282	-0.014206855	-4.6219796362	 0.102346
H	 1.6056470751	 0.2465210661	-2.8640612226	 0.140084
H	 3.240426236	-2.1536378102	-4.0223289717	 0.086073
H	 2.5951165518	-3.3389437676	-1.7240659947	 0.087465
66.8549	79.2784	130.1142	229.2336	261.2029	297.3047	356.2461	434.1746	555.5889	655.2048	689.4434	699.7559	715.3847	774.9354	821.1596	866.214	888.4547	904.306	919.4811	961.5246	992.8308	1006.0645	1033.262	1040.0797	1055.4272	1078.761	1087.704	1096.8207	1135.3759	1156.5231	1185.7019	1190.8069	1243.9667	1266.9687	1295.2482	1298.0645	1332.6307	1363.7578	1393.6801	1413.9558	1467.6158	1481.9976	1484.4143	1499.0634	1528.6037	2964.8945	3004.0248	3037.2455	3044.0523	3117.2871	3121.1567	3131.234	3168.1797	3177.5225	3188.6396	3199.5122	3255.8994
CCOC1C2C3CC3C12	CCO[C@H]1[C@H]2[C@H]3C[C@H]3[C@@H]12	
InChI=1S/C8H12O/c1-2-9-8-6-4-3-5(4)7(6)8/h4-8H,2-3H2,1H3	InChI=1S/C8H12O/c1-2-9-8-6-4-3-5(4)7(6)8/h4-8H,2-3H2,1H3/t4-,5+,6-,7+,8-
