24
gdb 105232	1.8793	1.47998	0.97372	2.4559	85.72	-0.2314	0.0632	0.2947	1346.4295	0.215436	-405.532309	-405.521354	-405.52041	-405.567831	40.955	
C	 1.7557385758	 0.9932076994	 0.0542095958	-0.369974
C	 0.355932041	 0.4561380951	-0.2712151373	-0.272649
C	 0.3059756321	-0.5317814391	-1.4402718026	 0.328616
N	 1.3769959631	-1.5456610422	-1.4936395755	-0.382822
C	-0.0086741604	-1.975752195	-1.2212865158	-0.031268
C	-0.282896932	-2.5918830846	 0.1294625101	-0.408712
C	-0.1432053553	 0.085640927	-2.7701275137	 0.046269
C	 0.7457093303	 1.2424251106	-3.237857667	-0.412616
O	-0.1498185525	-0.9507987168	-3.7511198996	-0.43946
H	 2.4379365145	 0.1643479146	 0.2561114561	 0.139678
H	 2.1782317096	 1.5706138184	-0.7735662471	 0.108746
H	 1.723622083	 1.6450725896	 0.9331197005	 0.102719
H	-0.0496174682	-0.0213640183	 0.6258050815	 0.101435
H	-0.3253958648	 1.2890592327	-0.4882101239	 0.089897
H	 1.5903497166	-1.7372776873	-2.4706675868	 0.231364
H	-0.5224917386	-2.45979616	-2.047315261	 0.097954
H	 0.3376216848	-2.1455279126	 0.9098632358	 0.124604
H	-1.3361111968	-2.4785330454	 0.4114300339	 0.110069
H	-0.0584991331	-3.6639147108	 0.1056115362	 0.116627
H	-1.1689818967	 0.4661639643	-2.6277011537	 0.071732
H	 0.7236691151	 2.079795474	-2.5361743727	 0.130121
H	 1.7818661557	 0.9110487051	-3.3552985973	 0.129964
H	 0.3938692016	 1.621293113	-4.2053228321	 0.101649
H	-0.2732302447	-0.5439743114	-4.6133085536	 0.286056
63.5703	101.8013	160.7239	178.2454	200.9525	232.2058	235.5739	251.258	278.4444	311.6897	329.6199	384.7139	446.8607	472.6733	546.6334	582.6323	687.7658	773.7799	817.2747	869.8184	890.7854	940.5819	986.7179	1008.9356	1040.5731	1055.1997	1065.0313	1083.327	1108.4452	1130.5595	1141.5322	1147.2242	1238.504	1251.3475	1263.039	1323.6489	1337.8922	1364.0895	1382.2766	1403.7878	1406.2833	1408.9736	1414.8548	1458.0254	1482.812	1488.966	1491.1633	1496.7445	1503.8686	1508.1781	1515.4054	2953.1663	3026.1097	3028.562	3031.5773	3043.6214	3071.2119	3089.2778	3095.4749	3108.2796	3120.3646	3127.4407	3130.4781	3151.1502	3486.632	3837.1491
CCC1(NC1C)C(C)O	CC[C@]1(N[C@H]1C)[C@@H](C)O	
InChI=1S/C7H15NO/c1-4-7(6(3)9)5(2)8-7/h5-6,8-9H,4H2,1-3H3	InChI=1S/C7H15NO/c1-4-7(6(3)9)5(2)8-7/h5-6,8-9H,4H2,1-3H3/t5-,6+,7+/m0/s1
