17
gdb 131821	5.69397	0.67771	0.657	4.6803	69.87	-0.2827	-0.016	0.2667	1665.7945	0.136756	-451.298833	-451.29009	-451.289146	-451.334156	30.103	
O	 0.1507835901	 1.3974079909	-0.260758154	-0.411853
C	 0.0635875288	 0.0219999979	 0.0566856374	-0.057566
C	-1.3527992974	-0.5313725622	-0.1252394074	-0.20887
C	-1.419892122	-2.0378096633	 0.1426328426	-0.174605
N	-2.7753107246	-2.5599097313	 0.037016593	 0.042472
C	-3.3980529563	-3.2121168746	-0.9604420274	 0.057896
N	-4.6456984917	-3.4423908251	-0.6135824028	-0.221983
N	-4.7795491417	-2.9098614024	 0.6295206044	-0.091753
N	-3.6718676427	-2.3784136557	 1.0298639959	-0.131073
H	-0.3790292398	 1.8861618169	 0.3773670105	 0.287358
H	 0.7558753162	-0.4830801449	-0.6269302571	 0.115874
H	 0.4178680804	-0.181496118	 1.080419108	 0.096534
H	-2.0416909627	-0.0252672558	 0.5615662156	 0.127065
H	-1.693591544	-0.3159296441	-1.1437127794	 0.122814
H	-0.8005357549	-2.5932927447	-0.5677128193	 0.134762
H	-1.0639879095	-2.2708216366	 1.1500159047	 0.149731
H	-2.9254512082	-3.496342967	-1.8864994646	 0.163196
36.0744	73.4682	86.2664	125.0873	228.1626	306.8765	326.1454	344.7187	471.898	679.6801	735.0594	752.933	759.4931	857.3223	864.1298	987.5835	1022.7739	1041.0139	1052.4726	1080.2161	1096.9596	1124.3529	1143.7352	1195.2201	1247.411	1281.9443	1308.6651	1320.1785	1341.7306	1393.8816	1407.9733	1427.6156	1464.9287	1477.3083	1495.1105	1514.621	1517.3787	2973.8055	3039.0264	3058.4166	3064.7116	3087.2921	3116.7187	3283.0359	3815.6736
OCCCN1C=NN=N1	OCCCn1cnnn1	
InChI=1S/C4H8N4O/c9-3-1-2-8-4-5-6-7-8/h4,9H,1-3H2	InChI=1S/C4H8N4O/c9-3-1-2-8-4-5-6-7-8/h4,9H,1-3H2
