16
gdb 30295	3.04371	1.61235	1.15353	1.301	69.9	-0.2348	0.	0.2347	1027.5736	0.126994	-437.914076	-437.906836	-437.905891	-437.946099	27.495	
O	-0.3982827147	 1.4566461626	-0.3464142202	-0.432745
C	 0.0423195387	 0.1309567913	-0.0490808608	-0.021597
C	-1.2204902856	-0.7782532043	 0.1244335518	-0.213461
C	-1.3971011937	-1.6716592756	-1.1594361935	-0.358669
C	-0.0638089498	-1.4661179181	-1.7799522169	 0.313648
C	 0.718698955	-0.5365375141	-1.2059357267	 0.217507
N	 1.9022819128	-0.4072646313	-1.9206965805	-0.347975
C	 1.7580647388	-1.2707924145	-2.8761852244	 0.035318
O	 0.5769900365	-1.9669042791	-2.8690904894	-0.198292
H	 0.371954611	 1.9612121161	-0.6293530131	 0.288414
H	 0.6478647552	 0.1403793511	 0.8678519583	 0.076217
H	-1.0828428585	-1.4241497824	 0.9948871587	 0.114035
H	-2.0918671889	-0.1478073373	 0.3097088431	 0.126296
H	-1.6157269534	-2.7125540987	-0.9008776373	 0.121934
H	-2.2123649942	-1.320167881	-1.8024940618	 0.130068
H	 2.4474310707	-1.5167529049	-3.6685660473	 0.149302
78.8229	151.037	222.1138	279.0958	339.6635	438.5663	471.6105	606.5531	643.4651	702.5371	732.3577	779.877	816.6146	840.8823	903.3269	946.3782	975.4336	990.8265	1065.5322	1083.5841	1097.5411	1175.2964	1218.1607	1235.1765	1257.2219	1287.615	1298.6659	1327.8457	1378.8169	1397.3979	1416.1684	1473.7072	1500.4191	1527.9426	1674.8383	3000.2695	3038.5184	3070.165	3080.6124	3130.9797	3277.0957	3811.2566
OC1CCC2=C1N=CO2	O[C@H]1CCc2c1nco2	
InChI=1S/C6H7NO2/c8-4-1-2-5-6(4)7-3-9-5/h3-4,8H,1-2H2	InChI=1S/C6H7NO2/c8-4-1-2-5-6(4)7-3-9-5/h3-4,8H,1-2H2/t4-/m0/s1
