19
gdb 59126	3.34977	1.39216	1.3294	2.9007	73.3	-0.2429	0.0639	0.3068	1044.3672	0.159375	-422.95439	-422.946658	-422.945714	-422.986592	30.956	
C	-0.0412873476	 1.5568970647	 0.191293028	-0.397655
C	 0.0411550277	 0.0336604492	 0.0234921951	 0.104627
O	 0.9197072002	-0.5427379532	 0.9760774506	-0.444167
C	-1.3509828997	-0.6087856299	 0.0386921165	-0.01191
C	-1.5343655094	-2.1246730431	 0.1792374277	-0.12732
C	-1.6211566221	-2.3770904984	 1.6903502288	 0.090319
O	-1.4087568662	-1.1309909702	 2.3669471236	-0.305406
C	-2.242195639	-0.5307464408	 1.3150434297	 0.044323
C	-2.8378382115	-1.9384582008	 0.9572062609	-0.152515
H	 0.9634829763	 1.9858864572	 0.1631105363	 0.124446
H	-0.6389309372	 2.0189229859	-0.6027988315	 0.103467
H	-0.4913007939	 1.820442459	 1.1552227738	 0.112456
H	 0.4912348665	-0.1807746124	-0.9560871175	 0.078559
H	 0.4051317152	-0.6488518826	 1.7897377494	 0.285731
H	-1.9380519507	-0.2494026556	-0.8136557198	 0.082021
H	-1.2770863251	-2.90759241	-0.5222513337	 0.096673
H	-1.3483844267	-3.2969074778	 2.189023943	 0.117517
H	-2.7605114536	 0.3663998256	 1.6447115559	 0.093094
H	-3.8373656133	-2.331640507	 0.842238853	 0.105738
74.3118	176.0161	210.5098	241.6123	341.6939	361.3382	470.3402	567.9055	580.6688	665.1082	764.5378	769.0284	793.7894	808.285	832.3087	863.0687	894.0865	907.5117	947.3761	970.8866	1005.2612	1025.9159	1036.331	1043.4298	1064.2366	1080.4618	1110.8303	1152.8328	1164.9335	1182.1612	1219.0743	1236.4703	1307.1792	1312.6269	1348.6979	1373.3408	1389.4678	1400.1269	1460.9581	1496.4006	1496.655	3006.4972	3028.0458	3055.0038	3094.148	3119.2948	3154.0788	3202.9126	3213.4548	3228.6999	3707.6774
CC(O)C1C2C3OC1C23	C[C@@H](O)[C@H]1[C@H]2[C@H]3O[C@@H]1[C@@H]23	
InChI=1S/C7H10O2/c1-2(8)3-4-5-6(3)9-7(4)5/h2-8H,1H3	InChI=1S/C7H10O2/c1-2(8)3-4-5-6(3)9-7(4)5/h2-8H,1H3/t2-,3+,4-,5-,6+,7-/m1/s1
