19
gdb 74215	2.17081	1.55065	0.94541	3.3446	81.43	-0.2378	-0.0491	0.1887	1241.1226	0.159396	-423.052486	-423.043814	-423.04287	-423.086231	32.27	
C	-0.5105967689	 1.3486550281	 0.1443321495	-0.463415
C	 0.112606188	-0.0226270323	 0.0525997322	 0.262686
C	 0.0555920782	-0.7057074441	-1.1038003484	-0.231347
C	 0.5037150447	-2.063633776	-1.4900495402	 0.353494
O	 0.2827223102	-2.4390895374	-2.6281052559	-0.329375
C	 1.2269578233	-3.0013978167	-0.5313595078	-0.297344
C	 0.9931217577	-2.7817443162	 0.9568812636	-0.11121
O	 1.5735705154	-1.5618610377	 1.386227615	-0.237129
C	 0.7157861426	-0.4554897496	 1.3686726078	-0.156209
H	 0.2539275918	 2.1113314731	 0.3391176956	 0.137848
H	-1.0375839136	 1.6151745076	-0.7732542785	 0.138147
H	-1.221916227	 1.4017913742	 0.9782133625	 0.133599
H	-0.4345831329	-0.2234546037	-1.9466757643	 0.09728
H	 0.9599234152	-4.0214441503	-0.8254011519	 0.122689
H	 2.3022099284	-2.889965322	-0.7227200672	 0.137844
H	-0.0782420201	-2.8122925498	 1.2065039617	 0.0979
H	 1.4865025297	-3.5774589139	 1.5250394998	 0.114199
H	 1.3047927988	 0.3801513286	 1.7672954241	 0.124443
H	-0.1230612414	-0.6000165823	 2.0774507724	 0.105901
54.5448	131.5075	152.4124	197.9934	278.7005	304.0007	349.6029	422.6703	450.5964	493.1038	513.9379	581.7713	660.8962	775.979	854.9498	877.0255	916.2281	954.6845	994.6994	1032.0762	1036.9398	1071.832	1096.9589	1125.5359	1196.039	1227.5613	1281.7355	1286.8278	1324.3289	1359.7161	1370.7146	1403.4731	1410.4259	1422.8864	1441.3026	1467.9397	1478.7174	1486.6146	1504.286	1697.2621	1744.7242	2918.6961	2994.7902	3021.8102	3034.8666	3045.6719	3069.5785	3070.5513	3091.0825	3132.794	3153.8288
CC1=CC(=O)CCOC1	CC1=CC(=O)CCOC1	
InChI=1S/C7H10O2/c1-6-4-7(8)2-3-9-5-6/h4H,2-3,5H2,1H3	InChI=1S/C7H10O2/c1-6-4-7(8)2-3-9-5-6/h4H,2-3,5H2,1H3
