18
gdb 84677	2.80556	1.80071	1.28789	1.5602	76.02	-0.2473	0.0053	0.2526	997.5928	0.150372	-401.980384	-401.973111	-401.972166	-402.012197	28.514	
C	 0.0691242241	 1.607994695	-0.0578604208	-0.383014
C	 0.0344268029	 0.0762034919	-0.0048088118	-0.042256
C	 0.6756577875	-0.5976840705	-1.1963456823	-0.055277
C	 1.5175293672	-1.5773090813	-0.8727540891	-0.10888
C	 1.6149349711	-1.7516543318	 0.6156865338	 0.043695
O	 2.9706259502	-1.5120831305	 1.1055277011	-0.231639
C	 2.9115375966	-0.3001994665	 1.701248555	 0.108465
N	 1.8052572642	 0.3089261551	 1.813354729	-0.264137
C	 0.787594898	-0.5661489041	 1.20246458	-0.03131
H	 1.0965388208	 1.9758172553	-0.1011212747	 0.129945
H	-0.4703553313	 1.970221037	-0.9394719371	 0.104047
H	-0.3995147017	 2.0402981469	 0.8305247133	 0.123321
H	-1.0201313387	-0.2318265812	 0.0456028103	 0.08428
H	 0.4368112512	-0.2981351467	-2.2122418168	 0.100203
H	 2.0748631243	-2.1972001952	-1.5650369471	 0.104085
H	 1.3347958686	-2.7483057316	 0.9663204041	 0.095006
H	 3.8657006915	 0.0670640457	 2.0643427981	 0.138435
H	 0.0811526735	-0.8674242075	 1.9816899451	 0.085028
78.094	209.2403	222.7381	257.0945	316.5845	458.2114	503.9254	544.2974	629.3726	737.857	770.1991	822.9069	855.8131	859.4954	906.5826	937.4241	962.3435	971.8805	983.5893	991.2242	1036.0869	1065.1036	1114.6087	1122.0504	1132.9322	1160.7885	1248.501	1293.3361	1301.5086	1317.6017	1331.9043	1339.6008	1354.1978	1383.382	1413.1754	1491.7893	1495.9768	1679.3827	1698.3031	2993.6958	3041.3452	3055.5194	3078.0736	3109.0683	3131.3716	3178.2912	3208.2042	3211.0905
CC1C=CC2OC=NC12	C[C@H]1C=C[C@H]2OC=N[C@@H]12	
InChI=1S/C7H9NO/c1-5-2-3-6-7(5)8-4-9-6/h2-7H,1H3	InChI=1S/C7H9NO/c1-5-2-3-6-7(5)8-4-9-6/h2-7H,1H3/t5-,6+,7-/m0/s1
