18
gdb 49434	3.77237	1.25782	1.14301	2.5337	75.95	-0.2472	-0.0245	0.2227	1097.3446	0.149352	-401.919752	-401.91257	-401.911626	-401.951713	28.07	
O	-0.0298084091	-0.0390817582	-0.0511323809	-0.259976
C	 0.050966503	 1.1624520346	-0.0889559606	 0.155403
C	 1.3370717286	 1.9391108119	-0.0945385279	-0.113056
C	 1.3725913961	 2.9599356621	-1.2564098788	-0.05398
C	 1.0075204163	 4.0867710428	-0.3416306019	-0.060592
C	 1.2735531994	 3.1729584081	 0.8861481717	-0.072977
C	 2.6919641435	 3.5418597408	 1.3261890488	-0.229811
C	 3.3810024006	 3.8321647646	-0.0332019216	-0.160659
N	 2.2955503057	 4.0729789403	-1.0137268114	-0.096424
H	-0.8645746277	 1.7994259966	-0.1235587903	 0.072469
H	 2.1771715698	 1.2467899596	 0.0123807909	 0.086166
H	 1.0911487316	 2.7554548711	-2.283490599	 0.104737
H	 0.3245046047	 4.9205703394	-0.4453863102	 0.099053
H	 0.5289164257	 3.116716434	 1.6799311377	 0.084066
H	 2.6755154951	 4.4354175556	 1.959603371	 0.106611
H	 3.1795220299	 2.739314582	 1.8870982076	 0.110577
H	 4.011753787	 4.7239441456	 0.0047731811	 0.113409
H	 4.0042136597	 3.0005805289	-0.3747138064	 0.114985
81.4184	135.6655	243.323	280.3563	350.4773	456.2451	489.9068	645.6554	716.4619	769.7342	820.8297	845.3146	850.2513	869.9135	918.5964	932.1065	954.8552	986.4801	1006.2038	1026.2092	1046.0066	1053.9827	1083.8376	1149.5973	1170.6299	1191.4095	1217.5991	1226.4996	1241.1555	1244.6123	1267.2009	1301.1742	1322.4876	1338.2855	1361.238	1430.9344	1487.6859	1509.7401	1826.1471	2851.7398	3044.0913	3059.9351	3072.3439	3090.0433	3108.2581	3117.4342	3170.0723	3193.9622
O=CC1C2C3C1CCN23	O=C[C@H]1[C@H]2[C@H]3[C@@H]1CCN23	
InChI=1S/C7H9NO/c9-3-5-4-1-2-8-6(4)7(5)8/h3-7H,1-2H2	InChI=1S/C7H9NO/c9-3-5-4-1-2-8-6(4)7(5)8/h3-7H,1-2H2/t4-,5-,6-,7+,8?/m1/s1
