22
gdb 121625	3.71718	0.70082	0.64425	4.2503	80.49	-0.2529	0.0231	0.276	1835.5606	0.192347	-441.530029	-441.518967	-441.518023	-441.567955	39.072	
C	 0.2613341067	 1.4333885099	-0.0441707466	-0.378358
C	 0.5151736945	-0.0717825841	 0.0687360346	-0.168629
C	 0.1551835588	-0.6160371176	 1.4560655083	-0.153287
N	 0.3761210006	-2.0493313319	 1.5858323222	-0.316076
C	 1.4164555509	-2.5829534264	 2.2683664407	 0.391434
O	 2.2434906619	-1.9171361266	 2.8782509614	-0.39978
C	 1.5348100372	-4.1185530216	 2.2608750133	 0.044889
C	 1.8793771549	-4.6522072359	 0.8624155614	-0.389861
O	 2.5227304992	-4.48761314	 3.185408262	-0.437565
H	 0.8556976653	 1.99024357	 0.6880966635	 0.125248
H	 0.5245669462	 1.804728771	-1.0386197891	 0.119553
H	-0.7928873957	 1.6743457372	 0.1326796839	 0.116126
H	-0.0669129435	-0.6060329011	-0.6937592029	 0.091114
H	 1.5695125227	-0.294657013	-0.1311193844	 0.115696
H	 0.7709991052	-0.139844034	 2.2225837488	 0.149963
H	-0.8947530817	-0.3960610883	 1.6865179762	 0.106215
H	-0.2485224717	-2.6761811447	 1.104248369	 0.248897
H	 0.5649942622	-4.5385622133	 2.5743578455	 0.081219
H	 2.8057360933	-4.1953492348	 0.5016373625	 0.129487
H	 2.0293745487	-5.7332928116	 0.9190349612	 0.13428
H	 1.0842690221	-4.4527665109	 0.1357752318	 0.097595
H	 2.9130569525	-3.6432096922	 3.4717039366	 0.291841
26.8154	56.89	58.229	87.5496	216.6592	222.7033	236.6794	255.0529	308.848	324.205	379.1112	438.6658	486.7309	497.4997	542.3774	661.625	739.9409	758.304	835.6447	891.3698	910.9044	945.7158	1029.958	1049.454	1070.5674	1100.9627	1125.5248	1174.8434	1182.2818	1245.7138	1278.1155	1295.0417	1335.583	1339.1296	1366.4274	1401.4764	1408.3789	1416.3501	1445.8405	1480.1427	1487.1322	1492.335	1497.1533	1500.7094	1509.7037	1562.3015	1760.5988	2969.0442	3021.4781	3028.7236	3034.1382	3036.5879	3065.018	3099.5037	3108.8862	3110.4775	3119.1898	3125.9316	3635.1668	3639.1977
CCCNC(=O)C(C)O	CCCNC(=O)[C@@H](C)O	
InChI=1S/C6H13NO2/c1-3-4-7-6(9)5(2)8/h5,8H,3-4H2,1-2H3,(H,7,9)	InChI=1S/C6H13NO2/c1-3-4-7-6(9)5(2)8/h5,8H,3-4H2,1-2H3,(H,7,9)/t5-/m1/s1
