16
gdb 127444	3.20739	1.44835	1.01028	2.2393	76.39	-0.2404	-0.0756	0.1648	1140.1075	0.124465	-434.106452	-434.098067	-434.097123	-434.139733	30.178	
C	-0.0716537759	 1.4502884477	 0.0015913023	-0.319174
N	-0.0112323116	-0.0063762064	 0.0099200442	-0.04763
N	-0.042997475	-0.6215774117	-1.1864338754	-0.249115
C	 0.0104052836	-1.9250547302	-1.1937706996	 0.372642
C	-0.0236127149	-2.6300978554	-2.5159889343	-0.455393
N	 0.096776856	-2.7149339525	-0.0666162338	-0.263243
C	 0.1263709447	-2.1091869969	 1.0752386165	-0.075452
C	 0.0743235033	-0.6557225791	 1.2378703478	 0.393928
O	 0.0999282667	-0.0476343709	 2.295572771	-0.394146
H	 0.8198353624	 1.8615180712	 0.4821186201	 0.157146
H	-0.1348834924	 1.7699578584	-1.0365329274	 0.151433
H	-0.9436101535	 1.7888159833	 0.5671447362	 0.15716
H	 0.8770204941	-3.2390616104	-2.6452058371	 0.143404
H	-0.87904633	-3.3119006409	-2.5611752978	 0.143405
H	-0.0924928729	-1.9089096528	-3.3307603163	 0.140249
H	 0.1942185553	-2.6957982032	 1.9896793236	 0.144787
83.0692	113.2568	137.2388	195.0023	289.4907	317.829	331.1678	416.0003	472.3144	548.942	585.403	595.6809	735.4136	777.3996	811.6577	912.3104	966.8244	1020.9381	1064.5261	1068.5086	1148.1539	1174.4405	1261.2825	1315.3128	1353.8011	1389.6613	1420.432	1436.1909	1471.5357	1475.103	1475.6258	1499.257	1542.2912	1640.4375	1767.282	3045.4598	3058.2636	3100.8138	3121.3905	3154.366	3156.4597	3183.1092
CN1N=C(C)N=CC1=O	Cn1nc(C)ncc1=O	
InChI=1S/C5H7N3O/c1-4-6-3-5(9)8(2)7-4/h3H,1-2H3	InChI=1S/C5H7N3O/c1-4-6-3-5(9)8(2)7-4/h3H,1-2H3
