22
gdb 22261	2.73711	1.10825	0.99707	0.5647	85.35	-0.2367	0.0187	0.2554	1327.2353	0.192139	-404.308221	-404.298089	-404.297145	-404.343294	37.958	
C	 0.2845529162	 1.4713727279	 0.0222134458	-0.47772
C	 0.0337191509	-0.0148964544	 0.0518550152	 0.291276
N	-0.1423972842	-0.6791917163	 1.1290961301	-0.181139
O	-0.0917996342	 0.1464196408	 2.2684154863	-0.401963
C	-0.0202207537	-0.7757703739	-1.2491170192	 0.275688
C	-1.2297707669	-0.3202824157	-2.0800827656	-0.4505
C	 1.3057200197	-0.7613511678	-2.0910851025	-0.253924
C	 1.1298889757	-2.2835757668	-2.3376269145	-0.221007
C	 0.0926063354	-2.3293294971	-1.1847508249	-0.25271
H	 1.0254838468	 1.743371497	 0.7783644417	 0.147307
H	 0.6317686019	 1.7975610645	-0.9601192742	 0.121031
H	-0.6297658586	 2.022897803	 0.2682854326	 0.143736
H	-0.2052663613	-0.4911370231	 2.980776522	 0.303362
H	-1.2023442001	 0.7562018551	-2.2796328217	 0.114634
H	-1.2513519617	-0.8350820492	-3.0462789057	 0.116253
H	-2.1643142797	-0.5458939325	-1.5557563446	 0.122989
H	 1.3252681734	-0.105712017	-2.9662125537	 0.09289
H	 2.1798293915	-0.5436898573	-1.471230545	 0.102474
H	 0.6876204256	-2.4991005024	-3.3137210492	 0.101077
H	 2.0217410343	-2.9035453263	-2.2247011082	 0.098291
H	 0.524260761	-2.6591321495	-0.2393746776	 0.115857
H	-0.830308872	-2.8881130691	-1.3593084273	 0.0921
54.1363	90.0315	134.0376	173.7501	205.2161	265.031	289.694	319.0935	341.1863	363.0514	423.1812	461.618	487.1113	586.8131	683.9402	729.2761	797.0195	858.0005	880.7023	917.0734	930.9108	945.5366	966.7936	994.5715	1017.2544	1038.6688	1064.7542	1145.2011	1164.7273	1187.8198	1211.7666	1249.4449	1262.1187	1276.2294	1278.9251	1324.7084	1395.8734	1399.8998	1409.0405	1472.7382	1477.3669	1480.6764	1486.737	1495.5584	1503.5682	1509.5247	1720.4941	3028.3462	3043.2441	3050.0805	3063.1824	3071.8733	3097.0513	3098.1119	3101.1593	3104.2711	3114.74	3136.2235	3137.1996	3823.105
CC(=NO)C1(C)CCC1	CC(=NO)C1(C)CCC1	
InChI=1S/C7H13NO/c1-6(8-9)7(2)4-3-5-7/h9H,3-5H2,1-2H3	InChI=1S/C7H13NO/c1-6(8-9)7(2)4-3-5-7/h9H,3-5H2,1-2H3
