15
gdb 61107	2.42666	1.25502	1.02451	1.6415	78.81	-0.2618	0.0037	0.2655	1195.7356	0.10645	-383.36644	-383.356342	-383.355398	-383.401139	36.924	
O	-0.108448119	 1.4208640857	 0.0371642134	-0.42897
C	-0.0577146779	-0.002166923	-0.0041638658	-0.052986
C	 0.6575929373	-0.568506788	 1.2727874692	-0.384116
C	 0.0474595083	-0.1297532012	 2.5171012885	 0.334771
C	-0.4438745701	 0.2265637453	 3.5533603706	-0.450508
C	-1.4421825996	-0.4859140507	-0.065286684	 0.402496
C	-2.5606851567	-0.9178028996	-0.1040316327	-0.467769
C	 0.6892955488	-0.4607039318	-1.1894368322	 0.313481
C	 1.3572187487	-0.8039202086	-2.1272449575	-0.447761
H	 0.7875945151	 1.7435626123	-0.1156644145	 0.289215
H	 0.6618537968	-1.6617981306	 1.2064854655	 0.150278
H	 1.7048123528	-0.2453705714	 1.2255546996	 0.132003
H	-0.8862707757	 0.5429824729	 4.4652204546	 0.198242
H	-3.555532142	-1.2883182435	-0.1405426483	 0.205491
H	 1.9242122631	-1.1113345477	-2.9716026962	 0.206133
70.9729	110.1907	125.2918	175.7302	189.1249	225.4428	270.6195	339.4911	359.0551	431.5119	485.057	512.0693	553.6837	612.8865	621.2817	641.5238	652.8078	655.7695	674.5099	676.1792	739.8934	901.5701	962.6333	1045.016	1063.7231	1081.2952	1227.432	1321.582	1392.5617	1459.7808	2233.964	2245.5084	2251.4041	3032.651	3077.2201	3498.5251	3501.8796	3507.0671	3799.401
OC(CC#C)(C#C)C#C	OC(CC#C)(C#C)C#C	
InChI=1S/C8H6O/c1-4-7-8(9,5-2)6-3/h1-3,9H,7H2	InChI=1S/C8H6O/c1-4-7-8(9,5-2)6-3/h1-3,9H,7H2
