20
gdb 61918	3.40989	0.7272	0.63032	5.3232	80.18	-0.2755	0.0361	0.3115	1738.2771	0.169438	-403.147226	-403.137264	-403.13632	-403.18328	35.141	
C	-0.0680506784	 1.7920076931	-0.0733242592	-0.407176
C	 0.0239645622	 0.2590664708	-0.0589720168	-0.014683
C	-1.349126702	-0.435433078	 0.0072231673	-0.181895
C	-2.0993819013	-0.1859089064	 1.3312642378	-0.3554
C	-3.3739960056	-0.8983055777	 1.3890004553	 0.259786
N	-4.3808927197	-1.4645773153	 1.4182161906	-0.303755
C	 0.7673430834	-0.227163405	-1.2872260654	 0.089762
C	 2.203679344	-0.5275309278	-1.2720963191	-0.183854
O	 1.2321227042	-1.5769072698	-1.2607277129	-0.24162
H	 0.9272925544	 2.2410641881	-0.1454458957	 0.12452
H	-0.6554853108	 2.1420724647	-0.9299567217	 0.123257
H	-0.5378210032	 2.1823877618	 0.8337469652	 0.121633
H	 0.607982197	-0.0569899061	 0.8162559665	 0.080395
H	-1.9761046401	-0.1016460768	-0.8284443859	 0.116261
H	-1.201805357	-1.5125297988	-0.1168680273	 0.141416
H	-1.4840375505	-0.5074757551	 2.1801407508	 0.152579
H	-2.3010619358	 0.8809873268	 1.4747653786	 0.152547
H	 0.3215025925	 0.0670180689	-2.2409125903	 0.093093
H	 2.7890179074	-0.4418419652	-2.1862983302	 0.119019
H	 2.7669085492	-0.4044718623	-0.3475918575	 0.114115
52.7145	73.148	98.6202	106.8486	205.5676	210.9021	247.5664	300.8134	375.2386	400.1648	444.4912	495.1975	568.6081	761.5937	808.4596	868.059	892.4643	944.83	951.356	959.1454	973.9663	1031.8815	1088.2282	1120.9751	1135.1816	1156.9625	1167.4489	1192.3942	1220.1235	1270.2517	1293.8097	1314.7199	1322.6312	1361.203	1388.1434	1413.3024	1448.0013	1468.9966	1492.3695	1499.6115	1504.3066	1529.7471	2362.8257	3015.3387	3032.9926	3036.8879	3046.249	3076.348	3077.9936	3083.4534	3099.6949	3101.9353	3111.649	3169.4181
CC(CCC#N)C1CO1	C[C@@H](CCC#N)[C@H]1CO1	
InChI=1S/C7H11NO/c1-6(3-2-4-8)7-5-9-7/h6-7H,2-3,5H2,1H3	InChI=1S/C7H11NO/c1-6(3-2-4-8)7-5-9-7/h6-7H,2-3,5H2,1H3/t6-,7+/m0/s1
