17
gdb 46926	3.38987	1.36952	1.05563	2.0817	67.97	-0.2441	0.0491	0.2933	1093.9752	0.13889	-455.160913	-455.153183	-455.152238	-455.193273	29.665	
O	 0.0043645055	-0.1118902543	 0.0426317922	-0.403816
C	-0.0125903048	 1.10822984	 0.0284222946	 0.421368
N	-1.2160548948	 1.7903908473	 0.0073666677	-0.330368
C	-1.48432798	 3.2083627807	 0.2078777734	-0.220298
C	-0.797581585	 4.0503898667	-0.8521666504	 0.06571
O	-0.0747080684	 5.2017571603	-0.4077397704	-0.252385
C	 0.6674977051	 4.0705552888	-0.8716224641	 0.065731
C	 1.4050013284	 3.2480603907	 0.1694860567	-0.220318
N	 1.1706738121	 1.8232024758	-0.0246269858	-0.330366
H	-1.9841947228	 1.1491422351	 0.1207529701	 0.252799
H	-2.56799879	 3.3388082257	 0.1491672571	 0.119412
H	-1.1771092557	 3.5656436765	 1.1984874614	 0.125531
H	-1.3339170527	 4.1827562419	-1.7905165105	 0.10463
H	 1.174891547	 4.2172561438	-1.8238356991	 0.104627
H	 2.4827340618	 3.4083233744	 0.082247588	 0.119411
H	 1.1143180618	 3.5969308134	 1.1680495867	 0.125533
H	 1.9589235625	 1.2033681732	 0.0679048325	 0.252799
83.938	131.4155	250.1457	277.8027	345.2449	372.121	444.8656	460.5016	506.8812	539.866	638.0693	725.1001	759.6865	780.1772	837.6502	846.2729	971.4299	972.0238	1037.5516	1062.7925	1113.2429	1133.4231	1150.1677	1176.8682	1265.4264	1269.0475	1284.5703	1307.05	1383.0792	1385.729	1434.4685	1460.8503	1462.05	1489.0706	1509.5431	1520.206	1785.9514	3020.0003	3037.0168	3090.3598	3092.9512	3120.7662	3133.2249	3647.1491	3649.9463
O=C1NCC2OC2CN1	O=C1NC[C@H]2O[C@H]2CN1	
InChI=1S/C5H8N2O2/c8-5-6-1-3-4(9-3)2-7-5/h3-4H,1-2H2,(H2,6,7,8)	InChI=1S/C5H8N2O2/c8-5-6-1-3-4(9-3)2-7-5/h3-4H,1-2H2,(H2,6,7,8)/t3-,4+
