15
gdb 25482	5.55213	0.971	0.82646	1.0538	81.69	-0.2396	-0.0386	0.201	1309.2935	0.116521	-413.055289	-413.04795	-413.047006	-413.087539	27.131	
N	-0.5246883536	-2.98833827	-0.2109862694	-0.469887
C	-1.5852839453	-2.3039501514	-0.0561505798	 0.095758
N	-1.5611836813	-0.9429271289	-0.3028706918	-0.365502
C	-2.6211964447	-0.075185467	-0.1803576927	 0.479876
N	-3.8000465722	-0.5709435967	 0.2139078494	-0.324632
C	-4.8024790845	 0.2999716892	 0.3208778691	 0.077779
N	-4.7751750525	 1.6087645229	 0.0825620814	-0.269881
C	-3.5838211735	 2.0847491948	-0.3114647745	 0.034715
C	-2.463876347	 1.2916451019	-0.4627301414	-0.241945
H	-0.7024900706	-3.9663704259	 0.0081680584	 0.232636
H	-2.5673091526	-2.6553928567	 0.2614331236	 0.143348
H	-0.6683400757	-0.5751880121	-0.6000431243	 0.26174
H	-5.7557902184	-0.1143796485	 0.6420322089	 0.12136
H	-3.5322937974	 3.1520955655	-0.5134135586	 0.120395
H	-1.5130668007	 1.702630533	-0.7826970083	 0.104241
85.4913	163.399	168.8993	221.8294	385.2204	405.5475	465.4855	561.5776	633.4206	664.7865	703.8435	802.8645	822.5693	849.3405	922.5247	987.4962	1002.4435	1024.3965	1085.9817	1092.1802	1107.9667	1203.4268	1228.9033	1291.5648	1333.1098	1366.2744	1392.1876	1418.2165	1486.0539	1523.106	1612.1475	1631.2838	1729.6938	3138.6958	3157.9491	3160.7987	3192.7696	3512.3973	3610.9329
N=CNC1=NC=NC=C1	N=CNc1ncncc1	
InChI=1S/C5H6N4/c6-3-8-5-1-2-7-4-9-5/h1-4H,(H2,6,7,8,9)	InChI=1S/C5H6N4/c6-3-8-5-1-2-7-4-9-5/h1-4H,(H2,6,7,8,9)
