18
gdb 24684	3.63928	1.53273	1.1013	1.5511	87.11	-0.1891	0.008	0.1972	1081.6319	0.152683	-364.893263	-364.886505	-364.88556	-364.924165	27.895	
C	 0.014632431	 1.4378003281	 0.1477923526	-0.169748
C	 1.462220652	 1.9030005817	-0.1428179061	-0.327836
C	 2.2368979091	 0.6059148181	-0.0506252634	 0.289912
C	 3.5934867954	 0.3551478657	 0.0484198076	-0.254257
C	 4.045513355	-0.9696507295	 0.0804604144	-0.123635
C	 3.1319398947	-2.0183217129	 0.0048106608	-0.093282
C	 1.7599746909	-1.7777813755	-0.1035684817	-0.25468
C	 1.3235493595	-0.4569532987	-0.1303828839	 0.308591
N	 0.0173903684	 0.0250844224	-0.273216973	-0.384546
H	-0.2033948492	 1.5358215117	 1.2226553397	 0.096871
H	-0.7365176061	 2.0088202721	-0.4044691482	 0.107435
H	 1.5338981243	 2.3245503549	-1.1541734114	 0.118115
H	 1.797751033	 2.67428358	 0.5553654557	 0.111482
H	 4.3021156069	 1.1758616579	 0.1105464434	 0.086701
H	 5.1060086646	-1.1782885546	 0.1676938011	 0.08539
H	 3.4875526191	-3.0434436244	 0.0342279923	 0.089142
H	 1.0551846958	-2.6011051866	-0.1603129678	 0.082056
H	-0.7168190144	-0.5496948506	 0.115735258	 0.232288
157.8059	202.9878	279.2654	390.7245	430.4968	524.1864	542.3913	569.404	602.7414	710.3894	744.1831	766.6073	789.3256	862.6601	881.7033	889.3504	914.75	949.6765	951.8986	1044.014	1050.909	1081.4866	1110.9123	1176.2257	1181.1885	1188.6333	1218.6903	1275.7923	1287.7467	1314.7263	1340.2843	1363.6573	1443.6844	1481.9768	1499.7737	1513.0854	1528.7368	1635.1238	1652.5418	2978.0588	3019.0186	3081.6513	3090.5657	3164.5215	3169.6581	3182.3357	3197.0621	3587.4913
C1CC2=CC=CC=C2N1	C1Cc2ccccc2N1	
InChI=1S/C8H9N/c1-2-4-8-7(3-1)5-6-9-8/h1-4,9H,5-6H2	InChI=1S/C8H9N/c1-2-4-8-7(3-1)5-6-9-8/h1-4,9H,5-6H2
