24
gdb 57542	3.13775	0.94669	0.89992	1.4299	86.09	-0.2458	0.0627	0.3085	1463.8488	0.215076	-405.517687	-405.507111	-405.506167	-405.553025	39.99	
C	 0.5914372376	 1.1982801774	 0.4397885091	-0.42471
C	 0.0990634632	-0.1179245167	-0.178325138	 0.359477
C	 0.7526917937	-1.3290120064	 0.5071372779	-0.420295
C	-1.4270043937	-0.2091905466	-0.0507542845	-0.386208
O	 0.3042207249	-0.1609550649	-1.605993565	-0.287541
C	 1.5205711027	 0.2505373572	-2.1920605029	-0.094311
C	 2.6730267705	-0.72611853	-2.0709609188	 0.006599
C	 4.0404254305	-0.2851110157	-2.4376544282	-0.253241
N	 3.711518654	-0.5899865135	-1.0335408249	-0.308481
H	 1.6828761126	 1.2747001329	 0.452691713	 0.106962
H	 0.1891975954	 2.0586228292	-0.1043025681	 0.120591
H	 0.2541121547	 1.2653220413	 1.4782746996	 0.119844
H	 0.4837808399	-1.3538678511	 1.5685709542	 0.105412
H	 0.3977409646	-2.2548151151	 0.0447755882	 0.114998
H	 1.8422597392	-1.3064101557	 0.4350997073	 0.145878
H	-1.9027212429	 0.6566820649	-0.5198540522	 0.113302
H	-1.7897386242	-1.110099579	-0.553082493	 0.119971
H	-1.7293666297	-0.250283616	 0.99981611	 0.107087
H	 1.2767323368	 0.3664759286	-3.2555659415	 0.112036
H	 1.8444285336	 1.2395153476	-1.8302237788	 0.079716
H	 2.3956690851	-1.7596072711	-2.2673280298	 0.102175
H	 4.7307219134	-0.9762172405	-2.9123460186	 0.121739
H	 4.1803089236	 0.7560416187	-2.7209268724	 0.110602
H	 3.5762881646	 0.2828361144	-0.5270726226	 0.228399
59.6878	93.5825	115.0976	206.3249	229.582	252.6623	268.427	284.3663	315.1419	347.7785	372.0889	411.7439	440.2068	467.6505	563.7334	718.1998	790.3734	829.4166	854.0256	909.6365	919.413	930.2191	949.6396	958.2627	1014.5429	1042.5611	1045.6558	1058.6129	1113.1865	1128.6651	1160.7782	1212.2777	1218.5765	1252.4535	1257.1413	1268.7952	1294.5086	1319.5306	1378.1704	1394.21	1398.8884	1423.5542	1430.307	1470.4305	1478.042	1486.6189	1487.6453	1501.477	1502.376	1513.3015	1520.7413	2979.0502	3035.9939	3037.6835	3044.3098	3045.22	3103.4262	3104.0644	3106.2398	3110.6857	3118.6269	3120.9489	3132.8402	3135.9247	3189.3189	3482.7848
CC(C)(C)OCC1CN1	CC(C)(C)OC[C@H]1CN1	
InChI=1S/C7H15NO/c1-7(2,3)9-5-6-4-8-6/h6,8H,4-5H2,1-3H3	InChI=1S/C7H15NO/c1-7(2,3)9-5-6-4-8-6/h6,8H,4-5H2,1-3H3/t6-/m1/s1
