27
gdb 117719	3.29988	0.684	0.65122	1.1702	93.18	-0.2583	0.0644	0.3227	1948.5767	0.249012	-390.711068	-390.69892	-390.697976	-390.748596	44.514	
C	 0.2188794925	 1.6392811343	 0.0025042092	-0.382357
C	 0.0307232059	 0.1193776362	-0.0210615602	-0.175426
C	 0.5591951874	-0.5589405711	 1.2482523508	-0.192364
C	 0.6172171115	-2.1036075379	 1.2094043584	 0.329909
C	-0.7649759691	-2.7181988914	 0.9703932926	-0.402698
O	 1.4119633143	-2.5317807534	 0.0917120763	-0.457485
C	 1.2505237302	-2.6104645039	 2.5257843581	-0.192353
C	 1.4619776115	-4.1258752019	 2.6224116957	-0.175418
C	 2.296989884	-4.5265104166	 3.8423782726	-0.382353
H	 1.2783747975	 1.9069798244	 0.0866150033	 0.109705
H	-0.1693579008	 2.1028706133	-0.9098704358	 0.110673
H	-0.3021149374	 2.093176568	 0.8533189965	 0.111352
H	-1.0337635562	-0.1073762158	-0.1508159732	 0.096699
H	 0.5445705199	-0.3093663471	-0.8883891499	 0.106765
H	 1.5791470098	-0.1935420966	 1.4439049414	 0.075867
H	-0.0381939954	-0.2459763385	 2.1149011175	 0.090595
H	-1.1828662531	-2.3689458333	 0.0238407608	 0.123231
H	-0.6984963913	-3.8070632568	 0.9201085268	 0.123212
H	-1.4540621623	-2.4479237589	 1.7765046218	 0.107928
H	 2.2953184708	-2.1634067927	 0.204939466	 0.272878
H	 2.2252951034	-2.1112877793	 2.6386438018	 0.075871
H	 0.6414170855	-2.2640617746	 3.3713017476	 0.090593
H	 0.4932367405	-4.6365633001	 2.6685959425	 0.096696
H	 1.9486500497	-4.4719313489	 1.7039821858	 0.106753
H	 2.4312625237	-5.6115704079	 3.8942040698	 0.110672
H	 3.2926178619	-4.0694343759	 3.8095777988	 0.109703
H	 1.8200422954	-4.2058750037	 4.7756802454	 0.111352
70.113	74.3175	85.6354	115.1222	115.567	217.1677	243.8536	251.5452	256.2427	304.026	323.9151	329.8922	351.374	357.2851	417.9267	467.53	629.3091	744.4294	752.1335	775.2012	852.9393	868.312	881.0182	928.5258	951.8784	952.7176	1007.401	1048.6606	1049.1596	1084.1191	1107.5545	1113.2558	1155.0599	1182.8475	1217.2546	1258.9273	1268.9513	1308.8501	1316.9037	1324.1758	1327.1135	1386.0856	1389.4976	1396.774	1412.2892	1412.773	1428.6478	1468.6647	1484.3251	1488.366	1495.4456	1496.0455	1500.6196	1500.6242	1509.9726	1511.8548	1513.692	2984.707	2993.7391	3026.1101	3026.4963	3031.72	3036.6785	3036.893	3041.5012	3051.8058	3070.2373	3071.9432	3096.3188	3097.3071	3099.6929	3099.8589	3124.455	3133.6105	3796.6046
CCCC(C)(O)CCC	CCCC(C)(O)CCC	
InChI=1S/C8H18O/c1-4-6-8(3,9)7-5-2/h9H,4-7H2,1-3H3	InChI=1S/C8H18O/c1-4-6-8(3,9)7-5-2/h9H,4-7H2,1-3H3
