21
gdb 101714	3.64015	0.82586	0.79832	3.7308	75.15	-0.2543	0.0737	0.328	1523.0868	0.181243	-461.341967	-461.332112	-461.331168	-461.3772	36.579	
C	 0.8617450837	 1.139038116	-0.2000900233	-0.431671
C	 0.1386446176	-0.1314619712	 0.1627728221	 0.084216
O	 0.9467134729	-1.2302144187	 0.6179399373	-0.270803
C	 0.0072490196	-0.6316306675	 1.5441724956	 0.040037
C	 0.5637796845	 0.0809253775	 2.7703570648	-0.268478
C	 1.8873107793	-0.5191766257	 3.2680298444	 0.106995
O	 2.9316308249	-0.3099114518	 2.3212231686	-0.455457
C	 2.3772560016	 0.1279091529	 4.5610652404	-0.045866
O	 3.6247549263	-0.4032291296	 4.9509304221	-0.429228
H	 1.6742558762	 1.3410173026	 0.5010506531	 0.14486
H	 1.2897387934	 1.0558332492	-1.204241931	 0.132211
H	 0.1696784047	 1.9882726929	-0.2011963805	 0.125844
H	-0.6321545455	-0.4413801242	-0.5446557551	 0.096466
H	-0.8344193123	-1.2948479038	 1.7438129302	 0.101155
H	 0.7266544903	 1.1441282667	 2.5666615902	 0.11417
H	-0.186277657	 0.0184435013	 3.5672885838	 0.106318
H	 1.7582432469	-1.5977675742	 3.451370106	 0.07747
H	 2.6530936448	-0.7598829092	 1.5106840487	 0.297501
H	 2.4311361518	 1.2199853734	 4.411394114	 0.082197
H	 1.6691635508	-0.0664016085	 5.3738111455	 0.100337
H	 4.1548515454	-0.422799588	 4.1439492729	 0.291724
49.3389	78.9452	136.4271	172.1343	201.0734	256.762	287.228	348.2415	375.7557	448.3841	468.4058	474.6506	541.4857	594.3953	611.8377	760.9113	808.4496	868.9641	900.4396	930.8037	991.0742	1023.8521	1050.0916	1075.0734	1086.5017	1115.9222	1126.3662	1171.8775	1186.1969	1208.313	1248.8987	1280.7399	1305.8126	1331.107	1372.2682	1383.0395	1390.6521	1420.6814	1438.7693	1455.6324	1463.5109	1478.5834	1497.805	1502.0368	1508.9469	2957.7207	2982.2054	3039.2808	3041.3611	3070.4875	3083.6746	3095.3702	3102.9233	3112.8344	3138.2274	3725.7895	3778.2846
CC1OC1CC(O)CO	C[C@H]1O[C@H]1C[C@@H](O)CO	
InChI=1S/C6H12O3/c1-4-6(9-4)2-5(8)3-7/h4-8H,2-3H2,1H3	InChI=1S/C6H12O3/c1-4-6(9-4)2-5(8)3-7/h4-8H,2-3H2,1H3/t4-,5-,6+/m1/s1
