12
gdb 131918	4.16204	1.34352	1.01566	3.9921	65.98	-0.2813	-0.1057	0.1756	1048.6158	0.07907	-468.762087	-468.755434	-468.754489	-468.794281	23.853	
O	-0.0616557459	-0.0088159104	 0.0033727884	-0.322978
N	-0.025317916	 1.2047271383	 0.0069283733	 0.401749
O	 0.9837436838	 1.900452949	 0.0027380733	-0.3618
C	-1.3231579178	 1.9437795174	 0.0173975579	 0.353785
C	-1.3147179318	 3.3358784091	 0.0205266806	-0.020138
N	-2.465910847	 4.0107730772	 0.0298228138	-0.230986
C	-3.5835026166	 3.2828838448	 0.0357630875	 0.010132
C	-3.5624878515	 1.8863289804	 0.0324773596	-0.022737
N	-2.4154718155	 1.209653164	 0.0231237101	-0.254578
H	-0.3860000813	 3.8923408615	 0.0155323802	 0.16746
H	-4.5253034426	 3.8244853262	 0.0433574929	 0.139404
H	-4.4811270276	 1.3070498525	 0.0374226525	 0.140686
38.931	157.4711	248.6569	394.8425	400.802	460.8397	524.2475	621.8116	736.2337	752.1509	784.5315	872.1779	901.2756	986.0062	1009.384	1030.2597	1071.2477	1172.886	1199.5875	1257.3361	1325.6011	1393.6278	1425.3674	1496.0666	1581.5534	1612.9894	1670.2411	3170.1944	3187.4506	3223.8846
O=N(=O)C1=CN=CC=N1	O=N(=O)c1cnccn1	
InChI=1S/C4H3N3O2/c8-7(9)4-3-5-1-2-6-4/h1-3H	InChI=1S/C4H3N3O2/c8-7(9)4-3-5-1-2-6-4/h1-3H
