18
gdb 108445	2.23184	1.76691	1.25262	2.9225	72.36	-0.2276	0.0234	0.251	1056.9755	0.147422	-439.078266	-439.069724	-439.06878	-439.111531	31.652	
C	-0.0039291879	 1.4079927327	-0.0398852592	-0.27231
O	 0.0330612214	-0.012531474	 0.0565606722	-0.293594
C	-1.2200300834	-0.5946062981	 0.0317953647	 0.308808
C	-2.1284621824	-0.5234876691	 1.3054100283	-0.303061
C	-2.2928123159	-2.0745909323	 1.2736571421	-0.229038
C	-1.4062811999	-2.1475109438	 0.0000675337	-0.059142
N	-2.127934764	-1.9643411461	-1.2628499074	-0.324404
C	-2.0490098611	-0.5856905741	-1.2862104327	 0.355905
O	-2.4927576794	 0.2452834139	-2.0346913096	-0.367007
H	 1.0336660793	 1.7471984166	-0.0367467359	 0.12864
H	-0.4965501745	 1.7315647948	-0.9633228906	 0.14866
H	-0.5272381394	 1.8544044416	 0.8175845373	 0.111224
H	-1.553079368	-0.1818235198	 2.1686501487	 0.118165
H	-3.0354667034	 0.0777785123	 1.2204679348	 0.116084
H	-1.8471442799	-2.5713952581	 2.138131703	 0.113581
H	-3.3095779304	-2.4501516932	 1.1406114983	 0.104926
H	-0.5720864421	-2.8473572404	-0.0402672944	 0.096241
H	-2.8011655791	-2.5675261729	-1.7164390035	 0.246322
96.0203	119.2996	149.0487	179.4351	221.7867	305.5026	329.0621	430.8139	497.654	505.7507	646.4588	699.773	729.4639	756.5506	830.4451	882.4474	914.2194	952.877	1007.7789	1032.9603	1068.83	1105.3201	1115.7893	1147.0701	1185.2711	1201.06	1217.2666	1228.1083	1240.5726	1269.912	1321.6464	1331.6605	1368.4251	1467.6605	1481.5437	1487.6172	1489.2926	1511.6354	1877.4969	3002.1304	3068.2317	3074.0337	3077.2629	3114.3662	3121.1518	3132.2775	3135.2188	3582.6937
COC12CCC1NC2=O	CO[C@]12CC[C@H]1NC2=O	
InChI=1S/C6H9NO2/c1-9-6-3-2-4(6)7-5(6)8/h4H,2-3H2,1H3,(H,7,8)	InChI=1S/C6H9NO2/c1-9-6-3-2-4(6)7-5(6)8/h4H,2-3H2,1H3,(H,7,8)/t4-,6-/m1/s1
