17
gdb 33770	3.61831	1.43505	1.22299	3.8542	76.93	-0.2482	-0.0126	0.2356	1020.5193	0.138837	-380.860846	-380.853771	-380.852827	-380.89208	28.584	
N	 0.0241628096	-1.1610890605	-0.053197778	-0.336308
C	-0.002312499	-0.0055760435	-0.0259809783	 0.196609
C	-0.0270020625	 1.4477484643	 0.031303799	 0.161646
C	-0.2530007864	 2.1233079685	 1.417750661	-0.252019
C	 0.7160335008	 3.1907826684	 0.8429289126	-0.06328
N	 1.3226286889	 2.1362234796	-0.0714788704	-0.342175
C	-0.0705746505	 4.1356687082	-0.0402749812	-0.031047
C	-0.8662369586	 3.5791404459	-0.9512174543	-0.067177
C	-0.9334050801	 2.0720320417	-1.0541873476	-0.263659
H	-1.2665674544	 2.422946827	 1.6935327159	 0.11291
H	 0.2033175019	 1.5306581716	 2.2138523322	 0.11613
H	 1.419951398	 3.6872101712	 1.5102237109	 0.080029
H	 1.973150665	 1.5862352827	 0.4914219515	 0.227435
H	 0.0203530814	 5.2082089439	 0.0885685298	 0.099089
H	-1.4707052686	 4.165207984	-1.636300637	 0.101723
H	-0.5931434421	 1.7353635217	-2.0405167288	 0.13677
H	-1.9632585334	 1.7129204752	-0.9336412373	 0.123325
149.6683	152.5626	289.1903	345.396	418.3135	443.4481	499.7691	551.535	569.6762	613.7329	695.5888	721.6238	867.3019	875.7592	886.9326	910.7013	935.3542	959.1608	973.9228	989.762	1006.085	1043.3645	1110.6962	1151.0456	1184.6429	1187.6757	1227.4483	1235.7637	1267.2249	1305.0994	1348.1114	1379.2378	1410.5851	1465.5768	1489.8772	1704.2388	2352.9915	3029.5289	3062.4314	3065.5979	3116.2821	3128.2564	3173.6316	3200.2826	3447.4211
N#CC12CC(N1)C=CC2	N#C[C@@]12C[C@@H](N1)C=CC2	
InChI=1S/C7H8N2/c8-5-7-3-1-2-6(4-7)9-7/h1-2,6,9H,3-4H2	InChI=1S/C7H8N2/c8-5-7-3-1-2-6(4-7)9-7/h1-2,6,9H,3-4H2/t6-,7+/m0/s1
