21
gdb 90446	2.733	1.43657	1.23311	1.3366	84.29	-0.2344	0.0095	0.2439	1135.7997	0.182706	-387.06977	-387.061162	-387.060218	-387.102723	33.41	
C	 0.0828028352	 1.5173449792	 0.1299874451	-0.403989
C	-0.02773485	 0.0090917896	 0.055227743	 0.082968
O	 0.9407972907	-0.6066508968	-0.8664681358	-0.330989
C	 1.2298842482	-1.6722067895	 0.1066960173	 0.10716
C	 2.6486948192	-1.9335116831	 0.6694187149	-0.039679
C	 3.6792551952	-0.9143122619	 0.1779253446	-0.381489
C	 2.3918876957	-1.8056914159	 2.2186245311	-0.254772
C	 1.2212383405	-0.8265706901	 2.3080133491	-0.212758
C	 0.5685857105	-0.8423174063	 1.1520123105	 0.177483
H	 1.0875441168	 1.8160838779	 0.4389902726	 0.12669
H	-0.1308563566	 1.9605746926	-0.8474989678	 0.129213
H	-0.6415020911	 1.9136694477	 0.8496520358	 0.119953
H	-1.0435540355	-0.2907164251	-0.2405185825	 0.081455
H	 0.7250053452	-2.5939974971	-0.2121323356	 0.07344
H	 2.9930700893	-2.9414211542	 0.4152117907	 0.066218
H	 3.3834482443	 0.1048307256	 0.4438196964	 0.121731
H	 4.657805734	-1.1145133654	 0.6258896697	 0.106329
H	 3.7836837324	-0.9523920039	-0.9098409981	 0.124365
H	 2.1622659457	-2.7808436654	 2.668621448	 0.105963
H	 3.2755381696	-1.4239792733	 2.7429730955	 0.103417
H	 1.0622853206	-0.1654384446	 3.1518010455	 0.09729
93.3992	139.5704	200.9326	226.7715	240.6256	250.7254	351.5553	380.8913	480.0094	495.9636	630.9917	691.2039	773.0182	786.0799	834.6279	849.6817	868.9742	887.8528	919.8974	951.8134	973.234	1034.1662	1052.1037	1066.7314	1079.0529	1105.849	1115.931	1149.6902	1207.7414	1237.0356	1241.8546	1275.0773	1311.6043	1323.6001	1346.7278	1364.8554	1388.6085	1402.3789	1412.4626	1481.4675	1484.6636	1491.0327	1493.8478	1495.6392	1740.5416	2994.2078	3005.9955	3014.6516	3038.8307	3039.5585	3052.2503	3060.3762	3108.4847	3109.6344	3117.0245	3127.2418	3200.0187
CC1OC2C(C)CC=C12	C[C@H]1O[C@H]2[C@@H](C)C[CH][C]12	
InChI=1S/C8H12O/c1-5-3-4-7-6(2)9-8(5)7/h4-6,8H,3H2,1-2H3	InChI=1S/C8H12O/c1-5-3-4-7-6(2)9-8(5)7/h4-6,8H,3H2,1-2H3/t5-,6+,8-/m0/s1
