19
gdb 8146	4.23941	1.6055	1.34934	1.4597	77.58	-0.2185	0.0223	0.2409	987.329	0.165771	-327.924162	-327.916353	-327.915409	-327.95571	30.524	
C	 0.0344346659	 1.4891866521	 0.0134962258	-0.486998
C	-0.0315397576	-0.0035469723	-0.0361893912	 0.317566
C	-0.0500459042	-0.7812359163	-1.1249122371	-0.152151
C	-0.0304681767	-2.2235416825	-0.7545958786	-0.128168
N	 1.2062000317	-2.6051757173	 0.0006598167	-0.371275
C	-0.0411529149	-2.2865590359	 0.7337082649	 0.33604
C	-0.7344399738	-3.3600717019	 1.5309805853	-0.490676
C	-0.0580053032	-0.8395557422	 1.2345612621	-0.345796
H	 0.9546782531	 1.8297026519	 0.505289087	 0.128346
H	 0.0061491997	 1.9268934837	-0.9881253866	 0.122434
H	-0.7996299544	 1.9057066032	 0.593416411	 0.120333
H	-0.0308270713	-0.4249791023	-2.1486262211	 0.086756
H	-0.5076379719	-2.9772002234	-1.3733963891	 0.08038
H	 1.2969890635	-3.6210698957	-0.0302870545	 0.216683
H	-0.7531287834	-4.3087863566	 0.9837608727	 0.111531
H	-0.225879769	-3.5352883818	 2.4867943515	 0.123133
H	-1.7703731186	-3.0819835055	 1.7543263189	 0.121919
H	 0.8050031119	-0.6271709277	 1.8776354413	 0.113953
H	-0.9576017466	-0.6288451695	 1.8308424409	 0.095989
139.5921	181.0928	203.1245	244.3077	292.5394	368.3521	401.8333	422.6511	501.653	561.6217	670.3507	729.8113	816.7443	851.2035	877.9603	905.7754	926.5728	947.2259	985.5625	1016.1038	1037.0162	1064.573	1086.2746	1118.9874	1139.2556	1187.7631	1201.9189	1267.4049	1290.0084	1343.2328	1359.4515	1411.0374	1415.1033	1432.7372	1465.0786	1479.1373	1485.8679	1488.2371	1500.4255	1705.3416	3004.3926	3014.8614	3021.2032	3051.5191	3059.7305	3081.9382	3094.5461	3109.1454	3156.5671	3194.5918	3453.7666
CC1=CC2NC2(C)C1	CC1=C[C@H]2N[C@@]2(C)C1	
InChI=1S/C7H11N/c1-5-3-6-7(2,4-5)8-6/h3,6,8H,4H2,1-2H3	InChI=1S/C7H11N/c1-5-3-6-7(2,4-5)8-6/h3,6,8H,4H2,1-2H3/t6-,7+/m1/s1
