13
gdb 17167	4.51742	1.9287	1.59906	4.1644	59.06	-0.2452	-0.0416	0.2036	773.0559	0.094575	-398.475896	-398.469687	-398.468743	-398.506456	23.335	
O	 0.0279388296	-0.0255242886	 0.0451460708	-0.24288
C	 0.0852535165	 1.1755216554	-0.0037900863	 0.021706
C	 1.3502107558	 1.9547111124	-0.0034057427	 0.409942
O	 2.6522500329	 1.3295342389	 0.0575196509	-0.33593
C	 2.966363085	 2.7508930592	 0.0052441161	 0.068347
C	 1.7973913729	 3.1111291932	-0.9714980171	-0.114849
N	 1.1802569291	 4.1610281578	-0.1019122904	-0.344455
C	 1.7484474078	 3.1902146357	 0.88501132	-0.114892
H	-0.819418445	 1.8190236515	-0.0545808216	 0.105253
H	 4.0129653186	 3.0563974092	 0.0198234528	 0.107984
H	 1.7727282042	 3.1219919617	-2.0610872385	 0.10937
H	 1.7400679359	 5.0165576082	-0.1235982962	 0.221045
H	 1.6665673367	 3.2936352055	 1.9669229922	 0.109359
107.6465	161.3436	281.647	368.442	536.2146	558.7375	685.7557	724.6184	777.615	816.8979	823.0337	897.1269	902.9954	948.3568	1006.1278	1024.2147	1078.9061	1087.9573	1110.5006	1132.1488	1154.4236	1202.9556	1233.833	1292.4128	1303.3819	1353.2853	1421.0854	1823.9441	2905.3705	3115.2371	3126.2287	3134.7696	3416.3085
O=CC12OC3C1NC23	O=C[C@@]12O[C@H]3[C@@H]1N[C@@H]23	
InChI=1S/C5H5NO2/c7-1-5-3-2(8-5)4(5)6-3/h1-4,6H	InChI=1S/C5H5NO2/c7-1-5-3-2(8-5)4(5)6-3/h1-4,6H/t2-,3-,4+,5+
