21
gdb 114924	5.16736	0.79606	0.71195	0.8481	95.1	-0.2229	-0.0137	0.2093	1616.6597	0.181887	-349.950404	-349.940977	-349.940033	-349.984781	35.642	
C	-0.0837559082	 1.525177264	-0.0475657167	-0.384236
C	 0.0490366729	-0.0006609458	-0.0186196645	-0.190081
C	 0.701858275	-0.5395086338	 1.2573481609	 0.043088
C	-0.096928516	-0.2765383286	 2.5652155283	-0.26223
C	 0.1991960247	-1.4853986877	 3.4108024371	-0.173823
C	 0.7657852527	-2.4747378299	 2.7028556028	 0.197651
C	 0.9384241964	-2.072171432	 1.2459111414	-0.344258
C	 1.1292829204	-3.7564265003	 3.1808428154	 0.198788
C	 1.4595524842	-4.8588519934	 3.5397903858	-0.416198
H	 0.8961246769	 2.0082576563	 0.0391645399	 0.114093
H	-0.5403571212	 1.8654847352	-0.982071885	 0.112416
H	-0.7057958721	 1.8900067602	 0.7765390631	 0.118466
H	-0.942648987	-0.4599517918	-0.1323187247	 0.093793
H	 0.6367179608	-0.3292898049	-0.885552006	 0.095553
H	 1.6815395758	-0.0575470718	 1.3728003838	 0.076012
H	 0.185171091	 0.6630296939	 3.0533242388	 0.107022
H	-1.1780034365	-0.2034370045	 2.3664542333	 0.107412
H	-0.0564295869	-1.5540360746	 4.4618109946	 0.097458
H	 0.1961670721	-2.5920982641	 0.6236004405	 0.109328
H	 1.9216576457	-2.3451261404	 0.8497935029	 0.110942
H	 1.7429178394	-5.8263095361	 3.8724758584	 0.188803
57.5789	104.0499	141.6407	170.2204	213.5091	245.8528	360.2181	364.4489	413.4652	516.3341	540.2544	557.5549	591.0206	631.6643	634.6203	777.5713	835.965	853.7721	875.9582	930.4094	949.5265	977.166	988.8857	1033.0806	1069.7741	1120.7975	1135.0879	1148.921	1189.9183	1225.5419	1274.6715	1292.8808	1309.1412	1311.0935	1336.3431	1365.9903	1389.1331	1412.4051	1480.2677	1486.0464	1493.536	1500.5592	1507.4321	1673.7913	2220.1271	2984.2656	3007.6365	3007.7809	3018.9306	3030.9404	3045.0165	3055.7329	3072.9364	3097.2666	3103.6195	3202.5385	3504.1313
CCC1CC=C(C1)C#C	CC[C@H]1CC=C(C1)C#C	
InChI=1S/C9H12/c1-3-8-5-6-9(4-2)7-8/h1,5,9H,4,6-7H2,2H3	InChI=1S/C9H12/c1-3-8-5-6-9(4-2)7-8/h1,5,9H,4,6-7H2,2H3/t9-/m0/s1
