20
gdb 9676	3.48011	1.23186	1.06916	2.1196	71.46	-0.2587	0.0797	0.3384	1192.0312	0.174696	-386.12603	-386.116394	-386.11545	-386.160854	34.62	
C	 0.5225893122	 1.3048202727	 0.3580707031	-0.380317
C	-0.3026762191	 0.1523612126	-0.2310660766	-0.254
C	 0.3890053428	-0.5333869186	-1.3998472471	 0.403611
C	 0.5145139845	 0.2967584817	-2.6633505814	-0.46135
O	 1.5859859232	-1.2638754224	-1.0609171494	-0.311053
C	 0.4477400056	-2.0028028849	-1.5414721675	-0.022793
C	-0.1038920943	-3.0323344053	-0.5864107549	-0.092771
O	 0.7837668968	-4.1351277674	-0.4810876057	-0.41846
H	 1.5085962224	 0.9464141601	 0.6679976587	 0.134221
H	 0.6683950933	 2.1169407494	-0.3602980087	 0.11861
H	 0.0217835659	 1.7266555367	 1.2342444279	 0.114564
H	-0.504784647	-0.5744684279	 0.5589011723	 0.104847
H	-1.2769946263	 0.5240634038	-0.5728344977	 0.10027
H	 1.0613637416	 1.2248332803	-2.4717583989	 0.129366
H	 1.0532131108	-0.2575999299	-3.4352479876	 0.128593
H	-0.4750112645	 0.5631321995	-3.0503874222	 0.120385
H	 0.584026416	-2.3941765809	-2.552466197	 0.089015
H	-0.3029710077	-2.5904644755	 0.3983541151	 0.093123
H	-1.046955644	-3.4337469226	-0.9736453669	 0.111263
H	 1.6361322979	-3.7752657814	-0.2098476955	 0.292877
46.8505	66.904	160.6594	174.1748	204.4495	217.6143	286.7293	327.5633	377.6747	409.4049	440.4314	506.7711	592.3789	689.5464	775.5964	798.7232	892.9061	937.2218	987.3145	1003.6534	1042.8494	1063.5789	1071.1644	1120.5043	1134.9982	1145.5125	1220.5343	1254.3004	1306.4211	1328.4622	1368.8895	1378.6465	1406.504	1412.5222	1421.4251	1471.1077	1474.9427	1489.5709	1494.7722	1505.4545	1505.7654	1511.0784	3017.8289	3034.1539	3040.9429	3044.1251	3069.9825	3087.5378	3094.474	3106.7156	3114.4268	3120.4927	3127.0204	3799.3818
CCC1(C)OC1CO	CC[C@@]1(C)O[C@H]1CO	
InChI=1S/C6H12O2/c1-3-6(2)5(4-7)8-6/h5,7H,3-4H2,1-2H3	InChI=1S/C6H12O2/c1-3-6(2)5(4-7)8-6/h5,7H,3-4H2,1-2H3/t5-,6+/m0/s1
