19
gdb 124633	4.29101	0.93476	0.87144	4.2654	77.92	-0.2119	0.0369	0.2489	1390.8227	0.160935	-415.419751	-415.410707	-415.409762	-415.4541	33.22	
C	 0.0365969695	 1.5372867961	 0.0315731756	-0.39694
C	 0.0050766242	 0.0082088535	 0.0198739442	 0.039377
C	 0.5369520858	-0.5859463036	 1.3338913773	-0.384708
N	-1.3562124553	-0.4262839645	-0.2988103223	-0.389133
C	-1.6602333082	-1.7307132802	-0.5877513025	 0.480486
N	-2.8532503667	-2.2875351739	-0.437395711	-0.360291
C	-2.6581279932	-3.545500802	-0.9276752935	 0.036402
N	-1.4449231793	-3.8186672534	-1.3592865251	-0.231842
N	-0.801412368	-2.6269549158	-1.1294148524	-0.268311
H	 1.0514783501	 1.8997549728	 0.2153969719	 0.124885
H	-0.3152289451	 1.9421935647	-0.9205985213	 0.13188
H	-0.6050248131	 1.930141363	 0.8294643265	 0.120505
H	 0.6470199872	-0.3303018666	-0.8051222154	 0.084506
H	 0.4936411	-1.6786953034	 1.3212270703	 0.129522
H	 1.5765980411	-0.2873527246	 1.5025988687	 0.119043
H	-0.0596482447	-0.2339168738	 2.1825463953	 0.121531
H	-2.0866869455	 0.0075095417	 0.2493313816	 0.250892
H	-3.4453827474	-4.2844917528	-0.959133224	 0.119244
H	 0.1617564186	-2.5221818369	-1.3947755339	 0.272954
54.6923	70.7091	137.8326	227.6382	256.9388	285.0826	322.9673	377.5097	431.8523	448.431	480.6377	566.1334	677.02	757.4625	778.2036	851.5368	912.8972	931.0347	952.0572	975.1591	981.5454	1054.0793	1094.7237	1144.3307	1172.0495	1196.6982	1233.0019	1300.786	1323.3895	1327.8046	1356.03	1398.484	1407.2659	1420.3106	1485.0424	1486.1025	1488.932	1505.9625	1509.7561	1558.1104	1635.0722	3007.6002	3032.4709	3037.0614	3101.4071	3108.5103	3115.0288	3128.9778	3255.0318	3593.1304	3687.9498
CC(C)NC1=NC=NN1	CC(C)Nc1ncn[nH]1	
InChI=1S/C5H10N4/c1-4(2)8-5-6-3-7-9-5/h3-4H,1-2H3,(H2,6,7,8,9)	InChI=1S/C5H10N4/c1-4(2)8-5-6-3-7-9-5/h3-4H,1-2H3,(H2,6,7,8,9)
