15
gdb 67984	3.20697	1.73176	1.28984	2.5823	64.44	-0.2539	-0.0113	0.2426	942.4146	0.112301	-457.735597	-457.728809	-457.727864	-457.766579	27.036	
C	 0.0318822885	 1.4933457363	-0.1052600436	-0.504169
C	 0.0346678631	-0.0006002926	-0.0068705689	 0.414476
O	 0.4368009355	-0.6492182758	-1.2211368251	-0.277058
C	 0.36982314	-1.9913717243	-0.9146728363	 0.441749
O	 0.6343562393	-2.8644051069	-1.6818721616	-0.33098
C	-0.0893258952	-2.0079611292	 0.5257294805	-0.229882
C	 0.6059360238	-0.7895217096	 1.2155386255	 0.011501
O	-0.5935842446	-0.4780158569	 1.9969433469	-0.314302
C	-1.1053499268	-0.8286398557	 0.6696707462	 0.011513
H	 1.0310482329	 1.8650601954	-0.3489886148	 0.140756
H	-0.6564854399	 1.82648989	-0.8869725448	 0.140755
H	-0.2830232605	 1.9132001504	 0.8524003373	 0.150776
H	-0.2313111202	-2.9534883837	 1.0385620267	 0.115388
H	 1.5766584259	-0.7403856332	 1.7082042108	 0.114738
H	-2.1831194716	-0.8263274941	 0.5089119711	 0.114739
166.492	233.6737	265.2949	271.1553	395.3314	440.5403	542.7355	629.0125	668.4343	700.5979	723.4383	777.7876	845.8589	869.3	899.0496	905.8594	933.453	957.1617	1023.8278	1050.9815	1106.5044	1140.0353	1154.0298	1175.0423	1197.7855	1243.458	1257.4867	1291.0086	1353.5636	1417.6102	1485.9586	1492.4205	1914.4631	3052.0926	3120.9638	3127.5709	3131.0857	3142.0596	3191.4625
CC12OC(=O)C3C1OC23	C[C@@]12OC(=O)[C@H]3[C@@H]1O[C@@H]23	
InChI=1S/C6H6O3/c1-6-3-2(4(6)8-3)5(7)9-6/h2-4H,1H3	InChI=1S/C6H6O3/c1-6-3-2(4(6)8-3)5(7)9-6/h2-4H,1H3/t2-,3-,4+,6+
