16
gdb 18070	5.62701	1.13398	1.11039	3.2627	65.33	-0.2464	-0.0196	0.2268	1077.4892	0.129554	-383.696151	-383.688687	-383.687743	-383.729114	26.753	
O	-0.6116183829	 0.5172624633	 0.4318132728	-0.240641
C	 0.2402555382	 0.9022640117	-0.3267083403	 0.161898
C	 1.3074464725	 1.9204999481	 0.0133371042	-0.307221
C	 1.3556278218	 3.0341315009	-1.0171552655	-0.049505
C	 2.5056390221	 4.0172136245	-1.1780322742	-0.158759
C	 3.8393744655	 3.2945353838	-1.0359416699	-0.094273
O	 3.4354056753	 2.2769931451	-1.9944131473	-0.281801
C	 2.2173656676	 2.9837777094	-2.2451971141	 0.087305
H	 0.2968171998	 0.5172008427	-1.3713488101	 0.078431
H	 1.1243221106	 2.2985253668	 1.0233068909	 0.120087
H	 2.2685952321	 1.3902325856	 0.0038506597	 0.138313
H	 0.4008063116	 3.5233028387	-1.2029749876	 0.102963
H	 2.3615953881	 5.0888971605	-1.1726094735	 0.105976
H	 4.6851893716	 3.868930872	-1.4284168681	 0.11733
H	 4.1015831972	 2.8716259152	-0.0590407774	 0.110487
H	 1.874653799	 3.0504828117	-3.2714300195	 0.109408
48.7812	66.159	179.0686	217.5088	311.7522	439.1979	494.5726	586.5392	744.3115	785.6906	806.7288	836.9248	892.4523	956.8289	974.7801	1000.9449	1011.7931	1053.5273	1063.4782	1077.8253	1086.3274	1124.1427	1164.1349	1180.4692	1244.5202	1260.2747	1290.7157	1320.5768	1359.1588	1427.4398	1434.8017	1452.4126	1516.1193	1835.5897	2865.5917	3028.1893	3033.9077	3078.1558	3098.61	3130.6183	3179.2236	3207.6066
O=CCC1C2COC12	O=CC[C@H]1[C@H]2CO[C@@H]12	
InChI=1S/C6H8O2/c7-2-1-4-5-3-8-6(4)5/h2,4-6H,1,3H2	InChI=1S/C6H8O2/c7-2-1-4-5-3-8-6(4)5/h2,4-6H,1,3H2/t4-,5+,6-/m0/s1
