22
gdb 107306	3.23898	1.13014	0.94264	1.8446	88.02	-0.2169	0.0141	0.231	1350.7969	0.194476	-367.215591	-367.206443	-367.205499	-367.249281	35.301	
C	 0.0368079052	 1.4832501366	-0.4167029506	-0.379803
C	 0.0068207285	 0.0599638065	 0.1545171611	-0.252872
C	-1.3916877152	-0.5069920981	 0.2397779085	 0.348385
C	-2.3934927842	 0.0916288174	 1.2354953922	-0.382662
C	-3.312699822	-1.0637117124	 1.5988640941	 0.303147
C	-4.5047925327	-0.8735547768	 2.4815607722	-0.486696
C	-2.902856616	-2.1951561537	 1.0105812818	-0.185652
C	-1.725327845	-1.961826199	 0.1266585086	-0.121601
N	-1.9361089163	-1.0388056827	-1.020478076	-0.372033
H	 1.0631268504	 1.8533335756	-0.5009815005	 0.109217
H	-0.4145528347	 1.502131715	-1.4135498102	 0.129094
H	-0.5163976037	 2.1841788593	 0.2180689194	 0.111213
H	 0.6080311817	-0.5990738516	-0.4806151588	 0.104532
H	 0.4633099408	 0.0462574907	 1.1530135509	 0.09
H	-1.8783965563	 0.4784541018	 2.126665095	 0.107508
H	-2.9470521744	 0.9416709082	 0.8138380319	 0.108903
H	-5.2195632973	-0.1648759612	 2.0433893847	 0.125133
H	-5.0296958906	-1.8166924994	 2.6565278559	 0.124945
H	-4.2156648819	-0.4578378956	 3.455552656	 0.125008
H	-3.379330342	-3.1634230859	 1.1189731377	 0.091097
H	-0.9841301836	-2.7373152452	-0.0406185782	 0.086048
H	-2.9310976206	-0.8353370396	-1.1018690356	 0.217089
76.3072	129.1981	164.4442	190.8916	233.1007	298.6059	312.4963	378.4345	410.562	421.8207	500.861	599.8977	672.9741	737.6599	784.9637	827.3459	852.5557	884.7578	898.6478	951.9372	954.6276	974.0111	1028.6358	1049.7468	1052.1456	1082.5292	1108.4963	1127.0236	1164.548	1182.4724	1198.3918	1252.0108	1285.4144	1289.2032	1334.3428	1349.1137	1359.5812	1404.1676	1413.5798	1429.0175	1470.285	1477.5234	1479.0016	1488.6003	1498.8869	1508.3526	1699.321	3004.428	3014.94	3022.849	3032.36	3035.5795	3058.7188	3070.6663	3101.0744	3109.4112	3111.2146	3155.359	3191.5519	3468.3463
CCC12CC(C)=CC1N2	CC[C@]12CC(=C[C@H]1N2)C	
InChI=1S/C8H13N/c1-3-8-5-6(2)4-7(8)9-8/h4,7,9H,3,5H2,1-2H3	InChI=1S/C8H13N/c1-3-8-5-6(2)4-7(8)9-8/h4,7,9H,3,5H2,1-2H3/t7-,8+/m1/s1
