20
gdb 78483	2.5191	1.76963	1.55632	1.2861	77.53	-0.2241	0.0719	0.296	975.2605	0.173327	-403.091825	-403.084252	-403.083307	-403.123585	30.249	
C	 0.0114435121	 1.5798748213	 0.0851384602	-0.461359
C	 0.0526192537	 0.0738369324	-0.0633898548	 0.041841
C	 0.4036837605	-0.792033089	-1.2084336467	-0.086573
C	 1.6739577027	-0.4640560717	-2.0116220249	-0.0506
C	 1.9482272508	 0.9059858856	-2.6343684863	-0.110072
O	 2.4871502092	 1.7321620645	-1.5979355929	-0.250097
C	 3.0754044681	 0.9201832827	-0.578323993	-0.10849
C	 2.4266155288	-0.4618029692	-0.6650399847	 0.013685
N	 1.1870143139	-0.861408165	 0.1194879797	-0.184041
H	 0.750660444	 2.1078571803	-0.5113261156	 0.169213
H	-0.9857368929	 1.9292298973	-0.2060629013	 0.114035
H	 0.1505016889	 1.8456925896	 1.1394735971	 0.11807
H	-0.7785753893	-0.3744381882	 0.4847819952	 0.099262
H	-0.2488000302	-1.6111580284	-1.5006060784	 0.091567
H	 1.9355295552	-1.2817767088	-2.6837996786	 0.085735
H	 2.6788375804	 0.8092479952	-3.4516732507	 0.09712
H	 1.0579889952	 1.4070923156	-3.0268015214	 0.112319
H	 4.1574414446	 0.8256372434	-0.7553077728	 0.098651
H	 2.926783945	 1.4222062253	 0.3821055014	 0.119449
H	 3.1573745295	-1.258325663	-0.5208956814	 0.090283
117.8833	185.108	240.7536	259.1853	262.1905	337.3728	465.7491	599.78	627.2371	662.5793	695.3334	728.8675	820.4463	856.9981	873.3315	894.3755	909.5113	946.0799	992.0751	1025.8922	1067.4794	1075.288	1084.8937	1096.7042	1123.2907	1130.8972	1179.2351	1192.8111	1228.6289	1256.4385	1264.2158	1289.2067	1334.0741	1342.4904	1354.2403	1375.6711	1402.8225	1419.2181	1454.1158	1499.0798	1505.1777	1514.8353	1527.8036	2985.4886	2991.904	3032.4759	3076.3687	3082.2128	3083.719	3086.0144	3097.8483	3108.4135	3136.7446	3181.347
CC1C2C3COCC3N12	C[C@H]1[C@H]2[C@H]3COC[C@H]3N12	
InChI=1S/C7H11NO/c1-4-7-5-2-9-3-6(5)8(4)7/h4-7H,2-3H2,1H3	InChI=1S/C7H11NO/c1-4-7-5-2-9-3-6(5)8(4)7/h4-7H,2-3H2,1H3/t4-,5-,6+,7-,8?/m0/s1
