22
gdb 13282	6.37694	0.82797	0.77094	0.8245	80.12	-0.2482	0.0915	0.3397	1556.4729	0.199703	-350.191558	-350.182261	-350.181317	-350.226488	33.222	
C	-0.0952404887	 1.4937209044	-0.133485412	-0.383821
C	-0.0282024877	-0.0141554477	 0.042187157	-0.022554
O	-1.3395577953	-0.534027967	-0.0108443805	-0.246364
C	-1.3949702724	-1.935836226	 0.1464898819	-0.07223
C	-2.8383938733	-2.3805234867	 0.0541480006	 0.039397
C	-3.5628370779	-2.3001162868	-1.3186041236	-0.209057
C	-4.227008735	-3.6684866885	-1.0055585056	-0.209534
C	-3.1397130293	-3.9053513902	 0.0786288419	-0.236864
H	 0.908394662	 1.9281227889	-0.098403468	 0.112406
H	-0.5506580743	 1.7474152468	-1.0950143326	 0.125649
H	-0.6977955299	 1.9456280034	 0.6596119373	 0.125361
H	 0.5943046733	-0.4680551405	-0.7483456706	 0.082196
H	 0.4446246275	-0.2706861318	 1.0061151698	 0.082111
H	-0.7951636616	-2.4342165715	-0.6368033432	 0.075044
H	-0.9617712878	-2.232628987	 1.1189921428	 0.079572
H	-3.4199870008	-1.8590922679	 0.8217937604	 0.076744
H	-4.213747069	-1.4424218779	-1.4999387769	 0.099136
H	-2.8497918803	-2.3741636728	-2.1464682971	 0.095903
H	-5.2193450934	-3.5462174273	-0.5619742096	 0.101225
H	-4.3000816984	-4.3969639163	-1.8164974714	 0.09418
H	-2.2975013698	-4.4843259321	-0.3158414655	 0.096349
H	-3.4480481182	-4.3489145957	 1.0285423549	 0.095149
53.0272	75.8144	99.7379	129.6377	170.6983	248.7214	279.0945	331.1919	428.5587	485.2806	644.5467	767.3298	790.5518	820.9796	891.7887	899.6641	916.768	935.1118	972.9153	977.7208	1030.587	1074.3831	1121.9091	1145.0267	1160.3498	1180.1516	1196.9049	1205.6973	1232.6194	1255.7625	1258.4542	1273.7253	1277.7224	1295.6839	1300.8487	1358.4867	1391.3751	1407.9812	1452.0396	1478.2881	1483.6696	1485.843	1499.5632	1506.6296	1514.445	1535.939	2929.5765	2951.0042	2956.4144	2970.8797	3044.1215	3044.2766	3048.2428	3055.6013	3057.6403	3096.1391	3105.03	3118.2332	3118.5412	3120.578
CCOCC1CCC1	CCOCC1CCC1	
InChI=1S/C7H14O/c1-2-8-6-7-4-3-5-7/h7H,2-6H2,1H3	InChI=1S/C7H14O/c1-2-8-6-7-4-3-5-7/h7H,2-6H2,1H3
