21
gdb 106562	1.95579	1.60188	1.20547	1.0781	79.	-0.2359	0.0754	0.3113	1171.2747	0.180854	-424.165906	-424.156236	-424.155292	-424.200435	35.857	
C	-0.6820629717	 1.5593086733	-0.2360607073	-0.265648
O	-0.5144575416	 0.1525418711	-0.2417093926	-0.290896
C	-1.6840926179	-0.5563840132	-0.0874450231	 0.37473
C	-2.9557516493	-0.5846689131	-0.9994727223	-0.312177
C	-3.2038892158	-1.6407546011	 0.1130854513	-0.117763
C	-1.7210329795	-2.1135551976	-0.0545103841	-0.02275
C	-1.2549816802	-2.9479851867	-1.2385420576	-0.44664
C	-2.6845530896	-0.5583721607	 1.1199544996	 0.118879
O	-2.2745168076	-0.8717541613	 2.4193350979	-0.455034
H	 0.308978856	 1.9987627967	-0.3665701975	 0.129222
H	-1.331365933	 1.8912517429	-1.0581017766	 0.113696
H	-1.1080654243	 1.9118710664	 0.7130659143	 0.121315
H	-3.5991246031	 0.2991577757	-0.9787441336	 0.092205
H	-2.829387089	-0.9536578377	-2.0152650675	 0.103234
H	-4.0850419111	-2.267722445	 0.2278685613	 0.080803
H	-1.2969892643	-2.54997374	 0.8578379954	 0.043972
H	-1.6544537591	-2.6111287075	-2.1977101322	 0.119994
H	-0.1624633722	-2.9224603453	-1.3098334314	 0.127381
H	-1.5520731272	-3.9938564372	-1.1057342257	 0.117332
H	-3.3315563991	 0.318606558	 1.2052579884	 0.079018
H	-1.4920896005	-1.4306187479	 2.3819040132	 0.289127
69.5587	104.6538	153.8471	167.9191	182.346	232.2869	259.2921	280.6929	397.7163	449.2905	471.8825	554.7821	632.5414	671.3227	754.6698	783.2997	822.0367	904.9541	930.8471	951.3726	1009.2553	1040.6267	1069.3225	1090.9381	1096.4251	1112.1887	1144.0407	1156.3646	1166.6783	1181.633	1208.7069	1221.1979	1228.8138	1258.7541	1286.4079	1312.9463	1409.7806	1432.9624	1450.3875	1483.5631	1489.1878	1496.2342	1501.4105	1506.8768	1534.0245	2996.5797	3019.7166	3039.5412	3051.5474	3068.3297	3081.5343	3096.1315	3121.1884	3124.3467	3145.985	3156.6585	3820.164
COC12CC(C1C)C2O	CO[C@@]12C[C@@H]([C@H]1C)[C@H]2O	
InChI=1S/C7H12O2/c1-4-5-3-7(4,9-2)6(5)8/h4-6,8H,3H2,1-2H3	InChI=1S/C7H12O2/c1-4-5-3-7(4,9-2)6(5)8/h4-6,8H,3H2,1-2H3/t4-,5+,6-,7+/m1/s1
