21
gdb 84393	1.91881	1.75782	1.0304	2.8166	83.92	-0.2316	-0.0186	0.213	1214.6372	0.181488	-387.114563	-387.105196	-387.104252	-387.148837	35.058	
C	-0.2124931952	 1.5907541341	-0.0112109509	-0.413849
C	 0.0489547515	 0.0785511426	-0.004797599	-0.036965
C	 0.8572665017	-0.4485423641	-1.1737916855	-0.075673
C	 1.6746749964	-1.4344586162	-0.8126848906	-0.075677
C	 1.5664411014	-1.7518142312	 0.6655877239	-0.036958
C	 2.8809978527	-2.1406564007	 1.3554577505	-0.413863
C	 0.8447079274	-0.4787554048	 1.2238031428	-0.117089
C	 1.8522190573	 0.5383106662	 1.7196405751	 0.16534
O	 1.8833926637	 0.976148128	 2.8424892651	-0.263608
H	 0.7137844358	 2.1705581865	-0.0711267179	 0.123419
H	-0.8278473185	 1.8659944422	-0.873839006	 0.115594
H	-0.7454827216	 1.9030551082	 0.8923138188	 0.12812
H	-0.9334588142	-0.4188012158	-0.0115369773	 0.090915
H	 0.7196525556	-0.0787921603	-2.1845885077	 0.094378
H	 2.3145367107	-2.0024489254	-1.4800138782	 0.094379
H	 0.8749576636	-2.6000884937	 0.7873378347	 0.090913
H	 3.6559569917	-1.3782976506	 1.228971823	 0.123417
H	 2.7332110143	-2.2933786519	 2.429146313	 0.128104
H	 3.2683324417	-3.0745777287	 0.935564336	 0.115603
H	 0.1910094684	-0.711459908	 2.0680251405	 0.082954
H	 2.5932256956	 0.8737338936	 0.9595149797	 0.080546
69.7549	70.1895	197.3982	209.1517	228.1739	263.5211	287.1131	311.0674	396.9222	418.5992	453.5578	567.6747	633.3664	727.85	778.5147	821.5146	860.9931	930.8327	936.6395	965.3815	969.5447	1026.8075	1046.79	1074.7076	1104.6204	1104.8111	1132.4938	1152.7409	1185.5082	1222.8873	1272.2806	1293.9502	1329.0298	1331.8624	1361.0057	1375.8093	1415.5097	1416.8851	1429.8709	1495.3171	1495.9153	1504.34	1504.3566	1682.7264	1825.377	2873.5544	2973.671	2976.6152	3035.7389	3036.2645	3085.1118	3102.8634	3103.264	3108.4124	3108.7021	3175.5357	3201.0293
CC1C=CC(C)C1C=O	C[C@H]1C=C[C@@H](C)[C@H]1C=O	
InChI=1S/C8H12O/c1-6-3-4-7(2)8(6)5-9/h3-8H,1-2H3	InChI=1S/C8H12O/c1-6-3-4-7(2)8(6)5-9/h3-8H,1-2H3/t6-,7+,8-
