18
gdb 86763	3.75886	0.94825	0.81331	5.9328	77.17	-0.252	-0.0322	0.2198	1407.3624	0.146303	-401.977802	-401.968495	-401.96755	-402.012797	33.036	
C	 0.1588631606	 1.6932532621	-0.0039975531	-0.40798
C	 0.0943130687	 0.1735012514	 0.0056351814	-0.08228
C	 0.6488418795	-0.661843325	-1.1957414525	-0.287384
C	 1.309658505	-1.6682966409	-0.2021283048	-0.092313
C	 2.7385261198	-2.1579192374	-0.465101936	-0.361342
C	 3.2000491786	-3.1239040334	 0.5303320939	 0.271786
N	 3.5503847074	-3.9069529038	 1.3040192286	-0.30295
C	 1.1022659272	-0.5900447946	 0.8803241052	 0.383716
O	 1.6745541115	-0.3345682932	 1.8991144721	-0.289166
H	 1.1651513669	 2.0421628685	-0.2570631346	 0.122927
H	-0.5410375318	 2.1147170487	-0.7320000039	 0.123618
H	-0.0926191248	 2.0930878911	 0.9825530769	 0.140976
H	-0.9180547914	-0.1693202646	 0.2551482072	 0.110073
H	-0.0827926171	-1.0756441188	-1.8901977106	 0.117274
H	 1.399303318	-0.0984916081	-1.7587727162	 0.114872
H	 0.6457040463	-2.5191406153	-0.0157347542	 0.124483
H	 2.7935320324	-2.6313985749	-1.4523360715	 0.157155
H	 3.4308537732	-1.3084709218	-0.4784059579	 0.156536
47.5989	69.7124	138.5787	174.3547	184.505	221.9135	314.3434	347.3905	385.4703	460.366	530.718	606.7447	690.0191	740.5195	831.6478	895.4299	922.4794	930.2458	947.7987	979.1217	1051.8069	1080.9307	1115.2485	1140.6526	1150.1878	1199.9143	1235.5116	1253.6964	1266.5997	1318.8325	1336.8353	1370.6987	1410.0847	1461.6955	1489.2435	1493.8253	1495.7089	1887.6238	2365.9351	3032.9153	3039.1895	3040.6645	3058.5912	3064.5953	3082.4441	3108.3434	3116.2157	3132.743
CC1CC(CC#N)C1=O	C[C@H]1C[C@@H](CC#N)C1=O	
InChI=1S/C7H9NO/c1-5-4-6(2-3-8)7(5)9/h5-6H,2,4H2,1H3	InChI=1S/C7H9NO/c1-5-4-6(2-3-8)7(5)9/h5-6H,2,4H2,1H3/t5-,6+/m0/s1
