18
gdb 78139	2.06003	1.72971	1.0132	4.9619	80.57	-0.2442	-0.0436	0.2005	1192.1664	0.147228	-401.976832	-401.968374	-401.96743	-402.00977	31.756	
C	-0.0393022245	 1.4874937694	 0.0061000881	-0.420351
C	 0.0445825989	-0.0134893674	-0.0731489948	 0.014444
C	 0.7312360598	-0.7245289953	-1.2030771339	-0.154249
N	 1.379280359	-0.624879761	 0.1072260953	-0.14959
C	 1.3147874213	-1.9605359203	 0.6817584511	 0.376259
O	 1.6466584285	-2.2139143257	 1.8102991963	-0.331821
C	 0.7632270291	-2.8655506352	-0.3528967526	-0.317187
C	 0.4019879338	-2.1607376961	-1.4386599347	 0.333926
C	-0.20748096	-2.6462273176	-2.7114791147	-0.499367
H	 0.8238159926	 1.9510338515	-0.478001537	 0.133075
H	-0.9531985383	 1.8487529848	-0.4773167379	 0.122542
H	-0.0563134354	 1.8112154138	 1.0516063664	 0.140232
H	-0.784408377	-0.5582381878	 0.3778801105	 0.105607
H	 1.160065416	-0.1364365019	-2.0113184693	 0.10372
H	 0.6222453967	-3.9242731321	-0.1810137828	 0.11907
H	-0.3637606819	-3.7269670966	-2.6994020617	 0.13909
H	-1.1711952011	-2.1559512393	-2.8945511386	 0.141869
H	 0.4345116623	-2.4006287532	-3.5662351995	 0.142731
135.3216	157.5367	164.4142	206.3701	207.8545	269.2165	296.2207	413.7014	505.1384	557.8111	589.9068	664.6555	739.2389	781.658	845.2542	883.6311	893.0288	947.0593	1001.8216	1025.9203	1028.0219	1054.444	1064.5686	1129.4474	1143.6792	1170.6468	1181.4691	1244.343	1287.0871	1355.1828	1406.2305	1411.5962	1431.6704	1477.5428	1481.0626	1484.4483	1493.6014	1671.4294	1835.3435	3027.4238	3039.335	3076.8379	3105.9221	3112.6169	3127.588	3130.7086	3139.6671	3228.057
CC1C2N1C(=O)C=C2C	C[C@H]1[C@H]2N1C(=O)C=C2C	
InChI=1S/C7H9NO/c1-4-3-6(9)8-5(2)7(4)8/h3,5,7H,1-2H3	InChI=1S/C7H9NO/c1-4-3-6(9)8-5(2)7(4)8/h3,5,7H,1-2H3/t5-,7-,8?/m0/s1
