23
gdb 59246	2.67168	1.28234	1.14804	0.1752	89.73	-0.2222	0.0222	0.2444	1232.294	0.206375	-351.161204	-351.152194	-351.15125	-351.194775	35.344	
C	 0.0829960466	 1.2520874071	 0.7292592983	-0.386431
C	 0.1301095144	-0.1282378093	 0.0554829843	 0.01464
C	 1.1051312743	-1.0660961482	 0.782438905	-0.385072
C	-1.2592600952	-0.738224779	 0.0019231587	 0.021627
C	-2.3104306151	-0.4098905528	-1.0310769144	-0.086213
C	-1.8963722915	 0.2148274354	-2.3672001764	-0.275002
C	-1.0180502837	-0.8416342525	-3.0061524382	-0.073951
C	-0.9370843055	-1.9434551018	-2.2555203169	-0.070852
C	-1.7040477321	-1.8116772859	-0.9840628129	-0.117455
H	 1.073664364	 1.7189967649	 0.7416104093	 0.106423
H	-0.6036325988	 1.9278128179	 0.2095316457	 0.113256
H	-0.2566376732	 1.1698271015	 1.7688851191	 0.107762
H	 0.4962181966	 0.0049506548	-0.9684343167	 0.077713
H	 1.1699100313	-2.0356943673	 0.2789523336	 0.113035
H	 2.1118236871	-0.6365222283	 0.8232413512	 0.105136
H	 0.7798824739	-1.247047729	 1.8141974116	 0.106874
H	-1.6804569086	-0.8872335906	 0.996435628	 0.075395
H	-3.3212721654	-0.2338583633	-0.6812662381	 0.079805
H	-2.7740772774	 0.4365422048	-2.9887984226	 0.104929
H	-1.3646538044	 1.1680836393	-2.2438996395	 0.108811
H	-0.504563984	-0.6820741817	-3.9479459797	 0.089946
H	-0.3697598546	-2.8323320826	-2.5085268763	 0.090025
H	-2.2481235388	-2.6673618632	-0.5972686531	 0.079601
65.0639	136.5021	158.1199	219.9809	241.8422	276.5245	320.8042	360.0848	419.7032	519.1316	570.7169	705.0989	739.1776	765.6358	781.7265	803.5467	861.7463	912.2231	929.013	937.9816	952.5564	956.2212	965.3533	994.9168	1017.665	1024.4096	1073.4733	1107.1549	1132.1469	1133.5972	1142.5197	1182.2273	1189.3634	1243.0083	1300.6183	1304.0796	1319.8495	1350.9955	1368.5916	1383.7553	1396.9323	1415.5788	1440.5187	1476.1917	1485.5974	1491.5667	1502.6619	1509.6786	1666.9517	3012.4457	3021.8652	3025.8387	3034.9104	3045.4514	3085.0551	3092.1818	3100.1761	3101.8846	3103.7381	3153.8863	3170.2962	3181.34	3206.413
CC(C)C1C2CC=CC12	CC(C)[C@H]1[C@H]2CC=C[C@@H]12	
InChI=1S/C9H14/c1-6(2)9-7-4-3-5-8(7)9/h3-4,6-9H,5H2,1-2H3	InChI=1S/C9H14/c1-6(2)9-7-4-3-5-8(7)9/h3-4,6-9H,5H2,1-2H3/t7-,8+,9-/m1/s1
