16
gdb 71094	2.69542	1.56963	1.32349	3.5414	74.57	-0.2567	0.0044	0.2611	1004.8788	0.12412	-400.706477	-400.698916	-400.697972	-400.738435	29.189	
C	 0.0872740114	 1.5691794392	 0.07873584	-0.503149
C	-0.0638748143	 0.0893784079	-0.0459554229	 0.356293
C	 0.354145718	-0.7514516245	-1.284432714	-0.264934
C	-0.5683890899	-1.8325848753	-0.7249783385	-0.170077
C	-0.4497079061	-1.683091335	 0.788623687	 0.046124
O	 0.5065078491	-0.6747337511	 1.0644697478	-0.317501
C	-1.3978374388	-0.7855617947	 0.0409102262	 0.184523
C	-2.7780946713	-0.5069357977	 0.119975182	 0.11928
N	-3.9081543984	-0.2571057367	 0.1813476525	-0.365218
H	 1.1502721227	 1.8328655393	 0.0781261691	 0.142829
H	-0.3967319479	 2.076004233	-0.7606928526	 0.137984
H	-0.3573248932	 1.926412505	 1.0111495902	 0.147125
H	-0.0382936797	-0.3310503189	-2.2129635749	 0.119829
H	 1.4221333602	-0.970145927	-1.3732486663	 0.112471
H	-0.9468966564	-2.7272565402	-1.2007321236	 0.119645
H	-0.6405883153	-2.4561701334	 1.519990618	 0.134777
121.2383	137.626	192.3941	282.5505	306.7319	421.874	498.6126	525.0391	565.1569	577.7397	636.0984	752.4305	793.9696	820.8454	873.5957	895.3493	914.1687	965.7748	995.6606	1019.3927	1037.8779	1095.2017	1111.3495	1137.4694	1164.7448	1222.1014	1246.4106	1291.9976	1339.3989	1410.8998	1424.9145	1476.2175	1486.0182	1487.083	2336.6606	3043.49	3059.8674	3115.5592	3126.0773	3129.6385	3215.4444	3227.8353
CC12CC3C(O1)C23C#N	C[C@@]12C[C@H]3[C@@H](O1)[C@@]23C#N	
InChI=1S/C7H7NO/c1-6-2-4-5(9-6)7(4,6)3-8/h4-5H,2H2,1H3	InChI=1S/C7H7NO/c1-6-2-4-5(9-6)7(4,6)3-8/h4-5H,2H2,1H3/t4-,5+,6-,7-/m0/s1
