17
gdb 24249	3.83425	1.57574	1.22588	0.9112	78.17	-0.2	0.0237	0.2237	1001.5585	0.139457	-384.70769	-384.70126	-384.700316	-384.738304	26.701	
C	-0.0495550349	 1.4528617302	 0.104447018	-0.278382
C	 1.2801211558	 0.7491543168	 0.0254137629	-0.020758
C	 2.0581668289	 0.4394118177	 1.3255331679	-0.371253
C	 1.1121315707	-0.4792970238	 2.0563538318	 0.225262
C	 0.0305496546	-0.7585286847	 1.2863081697	 0.339257
O	-0.8512387882	-1.5616106999	 1.9228628019	-0.202801
C	-0.2938438854	-1.8084109442	 3.1526414547	-0.018391
C	 0.8996994752	-1.1629880527	 3.2959246026	-0.357112
C	-0.0232801428	-0.0617774141	-0.0094149631	-0.194494
H	-0.3671103712	 1.8799191352	 1.0502388458	 0.117523
H	-0.3594027991	 2.0134156047	-0.7720327538	 0.111413
H	 1.8516902622	 0.8749830223	-0.8864990141	 0.089468
H	 3.0177468312	-0.0423015727	 1.0987569944	 0.109722
H	 2.290912765	 1.3551701611	 1.8821263294	 0.113287
H	-0.856901105	-2.4710298148	 3.7887462631	 0.130155
H	 1.5330396228	-1.1983771879	 4.1690383729	 0.109434
H	-0.3837449897	-0.5476258831	-0.908438694	 0.097671
147.2409	235.1469	327.5726	406.4227	426.2343	580.3794	613.6771	691.6165	695.9514	728.2944	762.708	787.1706	809.0615	819.0288	876.7922	920.6255	957.3135	986.4438	1028.0695	1051.2874	1068.3069	1083.1444	1094.7027	1118.9426	1163.5776	1180.6623	1200.7499	1235.9202	1279.8387	1298.2033	1350.505	1400.7134	1469.0236	1476.4854	1492.1086	1514.0627	1637.2466	3021.557	3052.4885	3122.6385	3175.8128	3182.1172	3212.1025	3248.8535	3283.6206
C1C2CC3=C(OC=C3)C12	C1[C@H]2Cc3c(occ3)[C@@H]12	
InChI=1S/C8H8O/c1-2-9-8-5(1)3-6-4-7(6)8/h1-2,6-7H,3-4H2	InChI=1S/C8H8O/c1-2-9-8-5(1)3-6-4-7(6)8/h1-2,6-7H,3-4H2/t6-,7+/m1/s1
