17
gdb 50618	2.60197	1.58017	1.01085	2.795	78.99	-0.2452	-0.0498	0.1953	1136.5482	0.138709	-418.062082	-418.054286	-418.053342	-418.094559	29.456	
N	 0.9684935052	-0.0497280006	 0.3256863726	-0.479198
C	-0.2003521874	 0.3596777254	 0.0313318214	 0.089118
N	-1.2973416881	-0.4910210386	 0.0702444476	-0.139295
C	-1.0975757629	-1.9111371963	 0.3837747146	-0.162856
C	-2.2909956023	-2.4932165776	 1.1372654019	-0.279833
C	-3.5823088935	-2.0874357906	 0.4868206708	-0.065273
C	-3.6670075774	-0.9672729148	-0.2341283209	-0.1437
C	-2.5391083694	-0.0179724529	-0.3675517402	 0.418806
O	-2.6942247204	 1.1129552971	-0.7917770119	-0.375091
H	 1.6325524056	 0.7186120977	 0.2561966602	 0.23031
H	-0.4874658376	 1.3675180756	-0.2690202047	 0.142302
H	-0.9456562029	-2.4657794597	-0.5517683477	 0.119477
H	-0.174360424	-1.9843277335	 0.9583206022	 0.156529
H	-2.197250294	-3.5838298984	 1.1665315265	 0.121963
H	-2.2918086496	-2.1588014578	 2.184894209	 0.13332
H	-4.4599552063	-2.7095721161	 0.6417046936	 0.113303
H	-4.589194055	-0.628845879	-0.6914140252	 0.120118
89.9982	145.6347	201.8426	254.9539	304.975	342.0606	389.2849	484.7542	540.8411	610.3799	666.4914	732.9146	768.2498	829.2284	847.4149	906.7864	919.6993	1014.0149	1027.1412	1069.2939	1084.9895	1127.7617	1148.1502	1160.1114	1227.3142	1263.6985	1334.5674	1358.1696	1377.1624	1399.0209	1407.9449	1432.6121	1468.9909	1513.5662	1688.991	1711.5437	1770.139	3008.3437	3022.8495	3074.381	3134.9396	3138.6157	3165.0706	3212.464	3508.9369
N=CN1CCC=CC1=O	[NH][CH]N1CCC=CC1=O	
InChI=1S/C6H8N2O/c7-5-8-4-2-1-3-6(8)9/h1,3,5,7H,2,4H2	InChI=1S/C6H8N2O/c7-5-8-4-2-1-3-6(8)9/h1,3,5,7H,2,4H2
