18
gdb 72617	2.16765	1.94323	1.60141	2.9613	70.72	-0.2182	0.0733	0.2916	942.6507	0.148039	-439.028206	-439.02039	-439.019446	-439.060036	31.602	
O	 0.1860288531	 1.3959106146	 0.0211899523	-0.485772
C	 0.0483130479	 0.0148625852	 0.0174836087	 0.37664
C	 0.4292330738	-0.6824266401	 1.3353080397	-0.276801
C	-0.9148210343	-1.4765767705	 1.3435406216	-0.276796
C	-1.3538064631	-0.8135213809	 0.0261061245	 0.376626
O	-2.6298177315	-0.2677178381	 0.0385522159	-0.485766
C	-0.8666272345	-1.5146800321	-1.2300518358	-0.134229
N	-0.6555042317	-0.4177498349	-2.215871982	-0.383928
C	 0.415966823	-0.7570066682	-1.2378698118	-0.134216
H	-0.1321133081	 1.7063825852	-0.8359301013	 0.285373
H	 1.3475995332	-1.2749594452	 1.3136992279	 0.095686
H	 0.4986028388	 0.0404595806	 2.1500313774	 0.11991
H	-0.8390539712	-2.5669660853	 1.3270468479	 0.095689
H	-1.5740319973	-1.1842284819	 2.16276183	 0.119912
H	-2.7560440293	 0.1562115665	-0.819710211	 0.285374
H	-1.0558498411	-2.5295220881	-1.5618817554	 0.093984
H	-0.4076518118	-0.8464044387	-3.1062252424	 0.234329
H	 1.3930961641	-1.0828412982	-1.5767971063	 0.093985
115.3862	185.0353	245.9771	256.844	355.2005	371.2973	422.9948	476.6471	542.3662	584.7905	603.4311	656.8829	730.1579	749.281	847.2406	852.4838	887.4735	893.4072	947.6577	956.3402	982.044	1037.7786	1045.4088	1090.307	1107.5637	1108.6458	1136.4788	1206.3374	1220.1975	1254.179	1264.8401	1268.8543	1317.3905	1352.0707	1378.3368	1388.7746	1402.3123	1470.8128	1491.2408	3061.6613	3068.0408	3115.2656	3132.5635	3171.0228	3183.8792	3488.5316	3776.5694	3779.4883
OC12CCC1(O)C1NC21	O[C@@]12CC[C@]1(O)[C@H]1N[C@@H]21	
InChI=1S/C6H9NO2/c8-5-1-2-6(5,9)4-3(5)7-4/h3-4,7-9H,1-2H2	InChI=1S/C6H9NO2/c8-5-1-2-6(5,9)4-3(5)7-4/h3-4,7-9H,1-2H2/t3-,4+,5-,6+
