20
gdb 59449	2.55095	1.34169	1.11836	2.5074	76.7	-0.2469	0.0032	0.2501	1193.6873	0.169172	-440.295364	-440.285584	-440.28464	-440.330066	35.823	
C	-0.2182710925	 1.5247627643	 0.2266239172	-0.421545
C	-0.0964484762	-0.0011629204	 0.2251282734	 0.106277
O	 0.4741614453	-0.496395065	 1.4237111341	-0.442592
C	-1.4360400024	-0.6747869271	-0.0747067119	-0.011726
C	-1.658443012	-2.1279104228	 0.2472587995	-0.273602
N	-2.3385293086	-1.077280149	 0.9779753243	-0.06949
C	-2.2819862298	-0.8136245653	 2.3304604663	 0.378453
C	-2.7137662173	-1.969450859	 3.2111077836	-0.471457
O	-1.9672053627	 0.2758786786	 2.7823159479	-0.376264
H	 0.7607870037	 1.9741597297	 0.4142320796	 0.12195
H	-0.5851187322	 1.8908621503	-0.7380151129	 0.110545
H	-0.913703001	 1.8442472847	 1.0076968674	 0.151328
H	 0.5917313149	-0.3029818226	-0.5761720284	 0.093532
H	 0.010200246	-0.0532183429	 2.148422942	 0.2996
H	-1.9411698936	-0.2822937227	-0.9569202646	 0.102155
H	-2.2716086329	-2.7470785902	-0.4023652836	 0.121954
H	-0.8443830702	-2.6319041004	 0.7617608713	 0.142608
H	-1.8591178602	-2.6360127453	 3.3742023309	 0.149626
H	-3.0348903165	-1.580608117	 4.1776293474	 0.149116
H	-3.5118810218	-2.554677358	 2.7492536866	 0.139531
77.2158	93.8448	111.4507	171.727	201.1351	249.8484	261.2047	282.8191	383.4096	409.3332	484.1539	565.696	578.3363	633.1902	677.0971	727.4969	752.8452	913.9099	939.5224	980.0903	1029.908	1037.8231	1055.1624	1061.3077	1096.0358	1107.3534	1133.3268	1166.1818	1170.3595	1211.9511	1320.7086	1348.2774	1372.5717	1390.4038	1401.8863	1439.2487	1442.1383	1469.6376	1480.8129	1491.463	1501.52	1509.396	1745.98	3019.03	3039.2091	3047.3383	3105.5346	3109.9531	3116.3887	3117.4106	3129.9707	3161.3928	3201.1965	3732.6154
CC(O)C1CN1C(C)=O	C[C@@H](O)[C@H]1CN1C(=O)C	
InChI=1S/C6H11NO2/c1-4(8)6-3-7(6)5(2)9/h4,6,8H,3H2,1-2H3	InChI=1S/C6H11NO2/c1-4(8)6-3-7(6)5(2)9/h4,6,8H,3H2,1-2H3/t4-,6-,7?/m1/s1
