19
gdb 47566	2.48738	1.5957	1.10169	2.3319	75.35	-0.2144	-0.017	0.1974	1107.4379	0.162372	-419.191774	-419.183938	-419.182994	-419.224242	30.696	
O	-0.0334341068	-0.0989936264	-0.0094972374	-0.305928
C	 0.0198168156	 1.109497182	 0.0270064737	 0.372873
C	-1.2581209452	 1.9670308581	 0.0741459971	-0.253029
N	-1.537113598	 2.7913720183	-1.1037418942	-0.277059
C	-0.5392419311	 3.8028992884	-1.446734211	-0.181066
C	 0.7199921447	 3.2757876029	-2.1284819811	-0.030413
N	 2.0245297429	 3.7407160377	-1.6210579126	-0.336919
C	 1.6338394281	 2.3336506705	-1.4329475609	-0.020556
C	 1.3483557426	 1.8621319019	-0.0124697096	-0.309824
H	-2.0976708634	 1.283346855	 0.2268893395	 0.121773
H	-1.1992004114	 2.6355106818	 0.9441504649	 0.114051
H	-1.7352298755	 2.1985308583	-1.9032813209	 0.222657
H	-1.0159883288	 4.5426803908	-2.1010834698	 0.105951
H	-0.2542584838	 4.3309743002	-0.5311400585	 0.120411
H	 0.6271056364	 3.1392435941	-3.2055471699	 0.084861
H	 2.6952803817	 3.8274745653	-2.3804602985	 0.233951
H	 2.1178929783	 1.5872534246	-2.0588247771	 0.098883
H	 1.3102464999	 2.7354371567	 0.6451632001	 0.120926
H	 2.1392697235	 1.1932961097	 0.3364541061	 0.118457
80.1513	128.8675	252.7288	297.7647	307.4377	359.1055	434.1399	450.3901	511.075	592.495	647.2613	715.8987	792.1108	826.3078	868.2473	887.1738	923.9124	965.4993	971.0601	986.9921	1011.3514	1062.0215	1092.8001	1150.1875	1152.0817	1192.4831	1211.178	1259.6521	1263.0614	1269.9405	1295.7871	1334.8595	1352.965	1363.6309	1403.4137	1459.4589	1462.1821	1475.5302	1491.3929	1500.0703	1805.9142	3014.5496	3030.8135	3059.4154	3083.2723	3098.6377	3109.1455	3113.0022	3135.1336	3498.8754	3521.5065
O=C1CNCC2NC2C1	O=C1CNC[C@H]2N[C@H]2C1	
InChI=1S/C6H10N2O/c9-4-1-5-6(8-5)3-7-2-4/h5-8H,1-3H2	InChI=1S/C6H10N2O/c9-4-1-5-6(8-5)3-7-2-4/h5-8H,1-3H2/t5-,6+/m0/s1
