18
gdb 19169	3.27768	1.83468	1.40066	3.232	72.66	-0.2344	0.015	0.2494	938.4923	0.153196	-347.763512	-347.755427	-347.754483	-347.796218	29.855	
C	-0.042236614	 1.5693445979	-0.176519574	-0.4482
C	 0.0200838147	 0.0445179289	-0.0868757969	 0.050471
C	 1.0764453595	-0.7955168859	-0.8991165776	-0.215446
C	 2.1460172293	-0.5438227729	 0.2398903446	 0.05057
C	 2.9730228394	 0.7317200195	 0.39936019	-0.448219
C	 0.7992408172	-0.7676197583	 1.0256665622	-0.215327
C	 0.6244754883	-1.929897491	 0.0347911796	 0.450441
O	 0.3107402351	-3.0793962871	 0.0062723231	-0.328707
H	 0.8998894158	 2.0439561848	-0.4432435888	 0.129195
H	-0.7680886729	 1.8460592252	-0.9482921367	 0.122631
H	-0.3928886	 2.0039335432	 0.7659289684	 0.123548
H	-1.0015808433	-0.3326294697	-0.2080327764	 0.091071
H	 1.2350233873	-0.8118380384	-1.9761975864	 0.085846
H	 2.8330894318	-1.3926303172	 0.3307167771	 0.091044
H	 2.3981871484	 1.6086665622	 0.6899030584	 0.129083
H	 3.7224211228	 0.5684249868	 1.1809431764	 0.12268
H	 3.5156455644	 0.9649427674	-0.523269013	 0.123497
H	 0.640740646	-0.7508207355	 2.1027555502	 0.085821
72.9134	94.9484	156.8698	228.4225	266.5763	341.3668	353.1003	506.351	552.1119	681.6625	712.7992	722.4921	760.9961	771.257	845.6751	965.8205	1026.0216	1026.8166	1044.6458	1066.5407	1081.7317	1100.4565	1103.4465	1113.8736	1155.6551	1191.2694	1208.1022	1249.634	1266.6073	1403.7847	1417.5105	1426.2361	1461.5203	1494.0711	1494.2177	1497.7026	1526.3739	1916.6098	3032.6529	3033.0978	3043.6968	3045.6136	3094.1767	3094.5403	3132.4048	3136.3664	3151.2862	3175.282
CC1C2C(C)C1C2=O	C[C@H]1[C@H]2[C@@H](C)[C@@H]1C2=O	
InChI=1S/C7H10O/c1-3-5-4(2)6(3)7(5)8/h3-6H,1-2H3	InChI=1S/C7H10O/c1-3-5-4(2)6(3)7(5)8/h3-6H,1-2H3/t3-,4+,5-,6+
