14
gdb 132794	2.35421	1.82315	1.02826	3.0103	68.5	-0.2172	-0.0032	0.2141	1047.0732	0.101861	-478.026166	-478.018576	-478.017632	-478.057864	29.505	
N	-0.0427976979	 1.4202974224	-0.1520199446	-0.596516
C	-0.0056871564	 0.0448523406	-0.0731418989	 0.145004
C	-1.1599602946	-0.7340480774	-0.0026844727	 0.183479
F	-2.3407758289	-0.0923158268	 0.0515744905	-0.092488
C	-1.104488163	-2.1168721168	 0.0210287321	-0.103405
N	 0.0500522764	-2.7841182884	-0.0190330244	-0.285656
C	 1.171551623	-2.0610420749	-0.079868025	-0.108315
C	 1.2007603204	-0.6723930256	-0.1072910689	 0.275722
O	 2.3454406039	 0.0751359471	-0.1594395309	-0.457484
H	 0.8072342142	 1.8877853422	 0.1230692497	 0.267802
H	-0.8884643335	 1.8495400481	 0.1898626475	 0.261376
H	-2.0265410959	-2.6883643397	 0.0755694921	 0.115583
H	 2.1104612601	-2.6144574074	-0.1072343598	 0.091157
H	 3.1078909622	-0.5127025832	-0.1538702168	 0.303741
155.2245	258.5064	276.8187	284.501	313.4917	334.7053	392.1028	484.5805	510.689	538.7397	583.2157	593.6499	607.7683	697.126	759.582	859.0374	882.8023	928.6455	981.885	1159.929	1185.3076	1238.2095	1302.0178	1318.5696	1345.2516	1374.0031	1473.3099	1559.7074	1617.4003	1637.8261	1660.703	3120.0862	3172.366	3582.7788	3695.2105	3826.1118
NC1=C(F)C=NC=C1O	Nc1c(F)cncc1O	
InChI=1S/C5H5FN2O/c6-3-1-8-2-4(9)5(3)7/h1-2,9H,(H2,7,8)	InChI=1S/C5H5FN2O/c6-3-1-8-2-4(9)5(3)7/h1-2,9H,(H2,7,8)
