19
gdb 79757	3.08894	1.89614	1.63113	0.2121	76.62	-0.2098	0.0873	0.2972	906.3081	0.162974	-382.044688	-382.03815	-382.037205	-382.075243	27.569	
C	 0.1794160685	 1.6008069081	 0.0466003291	-0.396378
C	-0.03809017	 0.0910051008	-0.033304647	 0.033175
C	 0.6495257391	-0.5258239135	-1.2433636033	-0.047508
C	 1.8725824776	-1.2379514873	-0.7683442813	-0.062893
C	 1.79891587	-1.2491791158	 0.7417371164	-0.067605
C	 0.5776008458	-2.0299711573	 1.0978435909	-0.050167
C	 0.0468041805	-2.664053694	-0.1737995991	-0.186151
N	 0.7164124315	-1.9934781216	-1.3027626426	-0.129337
N	 0.554687903	-0.5612060075	 1.1571727803	-0.124273
H	 1.2486888382	 1.8357056017	 0.0569032422	 0.120004
H	-0.2744015324	 2.1071895574	-0.8113594353	 0.112053
H	-0.2646828258	 1.9983751863	 0.9625813076	 0.12609
H	-1.1158164677	-0.1187327662	-0.0371744718	 0.085222
H	 0.5850890474	-0.027486044	-2.2080575385	 0.08923
H	 2.8149906581	-1.2905433886	-1.3001605194	 0.091792
H	 2.6807968073	-1.1484854317	 1.3629531232	 0.091312
H	 0.4472113797	-2.5355887668	 2.0518370499	 0.091036
H	 0.292421274	-3.7314794195	-0.2028227674	 0.111502
H	-1.0404855947	-2.5725099304	-0.279026124	 0.112894
163.2045	225.0874	291.3858	351.6546	473.8713	521.9292	630.7626	720.3666	732.3844	750.9636	776.6429	794.1842	796.7741	885.3891	889.6191	931.7574	944.2666	969.4667	999.1665	1018.1831	1043.8839	1060.5921	1082.0637	1090.753	1109.1603	1135.5365	1146.9125	1224.1041	1241.3147	1256.4943	1295.765	1302.8401	1310.6245	1321.1565	1341.3602	1371.1094	1407.0627	1410.295	1489.1859	1497.4051	1498.326	3023.1228	3037.0754	3038.5542	3073.1812	3107.9004	3123.1036	3129.6714	3132.5836	3178.4391	3190.5388
CC1C2C3C4C(CN23)N14	C[C@H]1[C@H]2[C@H]3[C@@H]4[C@H](CN23)N14	
InChI=1S/C7H10N2/c1-3-5-7-6-4(9(3)6)2-8(5)7/h3-7H,2H2,1H3	InChI=1S/C7H10N2/c1-3-5-7-6-4(9(3)6)2-8(5)7/h3-7H,2H2,1H3/t3-,4-,5-,6-,7-,8?,9?/m0/s1
