21
gdb 103375	2.64506	1.512	1.26424	1.5607	76.77	-0.2482	0.0786	0.3268	1100.9515	0.183331	-424.209854	-424.201533	-424.200589	-424.242467	33.455	
C	 0.0402993437	 1.6250118459	 0.1703118636	-0.382614
C	-0.1962753717	 0.1226634952	-0.0291311126	-0.258911
C	 0.6355208004	-0.4545717073	-1.1611494894	 0.491453
O	 0.2232696553	 0.181175642	-2.3511402667	-0.506619
C	 2.1911428396	-0.5955279893	-1.0840004745	 0.003061
C	 2.470059574	-1.4077570471	 0.1897153298	-0.228607
C	 1.3947541843	-2.5225713282	-0.0393520819	-0.227367
C	 0.835529568	-1.9908532981	-1.3666262992	-0.003884
O	 2.0687895539	-1.6555098917	-2.0986092939	-0.332457
H	 1.0786929042	 1.8299921643	 0.4541571744	 0.111093
H	-0.1694754186	 2.1716574623	-0.751577488	 0.141355
H	-0.6032864439	 2.0196866194	 0.9619225234	 0.109934
H	 0.0067121792	-0.4138902192	 0.90169951	 0.098184
H	-1.2509242314	-0.0549208423	-0.2716468537	 0.108789
H	 0.7751953143	-0.1934736586	-3.0504487716	 0.284822
H	 2.8653888276	 0.2119993758	-1.3706611051	 0.080114
H	 3.4882286771	-1.8017174978	 0.1898247285	 0.111469
H	 2.3214358077	-0.834067024	 1.1079504314	 0.105456
H	 1.8388715079	-3.5113526565	-0.1697028246	 0.111043
H	 0.6452409954	-2.5827573823	 0.7535258153	 0.104636
H	 0.1313252831	-2.5938955126	-1.9407730652	 0.079049
78.5366	170.7908	206.45	268.5595	301.9043	310.7771	394.4267	450.4017	475.6922	543.7307	590.2248	642.5663	727.8645	788.085	831.9877	836.7203	854.2845	914.5093	916.0395	959.7099	971.3762	977.5934	1018.7344	1027.0704	1036.0297	1091.0562	1105.667	1149.6512	1185.0194	1196.6841	1242.0684	1242.997	1248.498	1296.0755	1304.6385	1322.4152	1330.9001	1356.6692	1407.4569	1433.9148	1474.0775	1487.9086	1497.4202	1503.5413	1511.9466	3037.0794	3041.6665	3067.6076	3074.2091	3089.2137	3102.2744	3109.8466	3119.1467	3123.3257	3126.4461	3133.879	3765.6608
CCC1(O)C2CCC1O2	CC[C@@]1(O)[C@H]2CC[C@@H]1O2	
InChI=1S/C7H12O2/c1-2-7(8)5-3-4-6(7)9-5/h5-6,8H,2-4H2,1H3	InChI=1S/C7H12O2/c1-2-7(8)5-3-4-6(7)9-5/h5-6,8H,2-4H2,1H3/t5-,6+,7-
