21
gdb 78660	2.56393	1.53861	1.18293	1.9171	81.94	-0.2396	0.0828	0.3223	1133.5084	0.181995	-387.044257	-387.035554	-387.03461	-387.076858	34.567	
C	 0.0051548515	 1.6191007045	-0.0547818148	-0.427263
C	 0.0986559298	 0.0977723281	-0.0019623795	-0.026267
C	 1.1110934791	-0.679684612	-0.8912885425	-0.122313
C	 1.2637992708	-1.7277222254	 0.2900671895	-0.16791
C	 2.2584152908	-0.7339490795	 0.8763965725	-0.157202
C	 2.5145310409	-0.1323024216	-0.5037800858	 0.154788
O	 3.5840460587	-0.7377480923	-1.200933401	-0.449265
C	 0.7567259033	-0.6241588847	 1.1856347601	 0.338826
C	 0.2265623971	-0.7242494473	 2.5862737586	-0.508997
H	 0.9613700659	 2.1030524698	 0.162805538	 0.120837
H	-0.3253231502	 1.9575046747	-1.0433596765	 0.115812
H	-0.7222617779	 1.986748232	 0.6775037881	 0.113719
H	-0.8995154101	-0.335419431	-0.1475935741	 0.066367
H	 0.8981299186	-0.9033396702	-1.9356235902	 0.067459
H	 1.1735529929	-2.8020935852	 0.3641514385	 0.088078
H	 2.9800603358	-0.8993243619	 1.6679374724	 0.083099
H	 2.6887671028	 0.943488571	-0.5961569135	 0.075426
H	 3.5093985716	-1.6906490394	-1.0670862992	 0.276081
H	 0.2740181829	 0.2416210314	 3.1026183695	 0.122165
H	-0.8192265819	-1.0528739961	 2.5885885789	 0.117758
H	 0.802209468	-1.443111915	 3.179267581	 0.118804
171.8602	184.566	193.3317	216.197	224.9888	247.6524	335.2937	365.2845	405.4757	497.5848	565.4698	620.5729	700.9648	797.4711	818.9835	834.1754	869.2244	885.8823	902.3298	925.9956	940.9883	1011.0072	1027.4119	1034.1091	1069.493	1095.6366	1106.0112	1131.8795	1142.5995	1160.593	1172.1778	1231.5613	1246.9742	1278.1883	1293.9208	1302.5098	1373.0401	1407.5498	1411.2512	1432.6776	1445.7891	1486.3289	1492.972	1499.7557	1503.8573	3018.1991	3021.5275	3031.6777	3071.2293	3081.4769	3090.0611	3092.2918	3113.0402	3128.4713	3183.4834	3215.798	3777.6219
CC1C2C3C(C2O)C13C	C[C@H]1[C@@H]2[C@H]3[C@@H]([C@H]2O)[C@@]13C	
InChI=1S/C8H12O/c1-3-4-5-6(7(4)9)8(3,5)2/h3-7,9H,1-2H3	InChI=1S/C8H12O/c1-3-4-5-6(7(4)9)8(3,5)2/h3-7,9H,1-2H3/t3-,4+,5-,6-,7-,8-/m0/s1
