18
gdb 106848	2.67275	1.24565	1.01756	4.9233	78.09	-0.2547	-0.0065	0.2482	1225.9884	0.146771	-401.922866	-401.914105	-401.913161	-401.956655	32.33	
C	 0.0606113121	 1.5357404066	 0.2207573674	-0.376391
C	 0.0060925906	 0.0406736101	-0.1261036573	-0.292202
C	-1.3906490267	-0.510795033	-0.0870324317	 0.207432
C	-2.0763257245	-1.0044031098	 1.1660274652	-0.374553
C	-1.9137192377	-1.9450233339	-0.0005995211	 0.30113
O	-2.9356778089	-1.7177967421	-0.9699050327	-0.317474
C	-2.4480497915	-0.3618430346	-1.1835262881	-0.130729
C	-1.2419165253	-3.2031199969	 0.0393861318	 0.223418
N	-0.67649412	-4.2120248988	 0.0839710836	-0.350398
H	 1.0890528642	 1.9055701031	 0.1820298459	 0.123462
H	-0.5335910548	 2.1297394502	-0.4816910345	 0.121736
H	-0.3290333128	 1.7208195275	 1.226724759	 0.125129
H	 0.4326990056	-0.1251766023	-1.1229665589	 0.113784
H	 0.6323723658	-0.5247656963	 0.5738170105	 0.117305
H	-1.4129538058	-1.181571173	 2.0066920675	 0.139405
H	-3.0863837249	-0.6963959695	 1.4216452872	 0.130512
H	-3.2337068004	 0.3866204282	-1.0364745129	 0.116744
H	-2.019689605	-0.2670232053	-2.1874531106	 0.121691
70.8573	93.0015	160.7473	205.1301	213.897	309.1955	342.1007	386.2594	433.5064	540.0099	562.1174	623.1695	708.2551	774.7732	789.4556	857.5285	916.8721	968.194	981.7691	986.0173	1024.3497	1049.8892	1073.1085	1095.9028	1141.0715	1153.8365	1220.486	1265.1635	1310.7028	1348.0902	1355.8863	1406.1832	1416.4811	1477.9309	1483.7729	1499.4038	1507.1361	1517.019	2345.8895	3028.8585	3033.8374	3037.9155	3064.6151	3087.7089	3106.5973	3115.152	3118.7811	3216.562
CCC12CC1(OC2)C#N	CC[C@]12C[C@]1(OC2)C#N	
InChI=1S/C7H9NO/c1-2-6-3-7(6,4-8)9-5-6/h2-3,5H2,1H3	InChI=1S/C7H9NO/c1-2-6-3-7(6,4-8)9-5-6/h2-3,5H2,1H3/t6-,7+/m1/s1
