20
gdb 11473	4.44951	1.29264	1.17551	0.7352	71.33	-0.2579	0.0849	0.3427	1115.3011	0.177351	-386.150807	-386.142255	-386.141311	-386.184267	31.227	
C	 0.2874267314	 1.239935468	-0.2295735752	-0.241871
O	 0.2980807049	-0.1622664164	-0.0347216538	-0.244897
C	 0.5635468928	-0.540864117	 1.2926879921	 0.229051
C	 0.4815319224	-2.0781877841	 1.3689223231	-0.283085
C	 1.9021321757	-2.5230467445	 1.7864949539	 0.037865
C	 2.3813951179	-3.8244100424	 1.1473647652	-0.409994
C	 2.7277564022	-1.2841069759	 1.4122027247	-0.102263
O	 1.8717253933	-0.1816467419	 1.6995936702	-0.254075
H	 1.2572042331	 1.6883459514	 0.0152811316	 0.124901
H	 0.0609810594	 1.4154758842	-1.2836488976	 0.122847
H	-0.4868202684	 1.7231032011	 0.3865354641	 0.10262
H	-0.119895469	-0.0090939046	 1.9705041162	 0.065506
H	-0.2859874733	-2.4097026215	 2.0715056453	 0.105971
H	 0.2204296836	-2.4575149361	 0.3773872214	 0.117862
H	 1.9329958841	-2.6247736349	 2.8778509271	 0.077788
H	 2.3716006248	-3.7505964854	 0.0540180191	 0.119558
H	 3.4026363349	-4.0698517602	 1.4584164947	 0.114978
H	 1.7396399237	-4.6648187508	 1.4302782976	 0.118628
H	 3.6405706363	-1.1614637701	 2.0008230811	 0.104685
H	 2.9974345701	-1.302203879	 0.3447865293	 0.093926
45.6506	124.3433	160.3285	212.3083	234.8279	279.73	301.9041	397.992	439.339	561.3795	584.7806	743.6107	836.2057	853.9443	915.8921	947.8015	973.146	978.8265	1023.3116	1060.567	1112.9704	1129.1883	1143.5578	1165.825	1181.244	1209.987	1236.3579	1262.8537	1294.2896	1326.3076	1351.3404	1368.7556	1393.8769	1406.7147	1415.0508	1476.0076	1483.6213	1487.655	1498.8117	1500.4532	1513.9219	1515.5731	2985.9638	2986.5415	3001.6679	3028.7417	3031.8686	3063.033	3068.3346	3092.8232	3097.1178	3101.3533	3118.3895	3122.0937
COC1CC(C)CO1	CO[C@H]1C[C@@H](C)CO1	
InChI=1S/C6H12O2/c1-5-3-6(7-2)8-4-5/h5-6H,3-4H2,1-2H3	InChI=1S/C6H12O2/c1-5-3-6(7-2)8-4-5/h5-6H,3-4H2,1-2H3/t5-,6-/m1/s1
