21
gdb 84819	3.00966	1.02461	0.84351	2.7167	84.18	-0.2448	-0.0191	0.2257	1400.7419	0.181865	-387.115061	-387.105797	-387.104853	-387.149904	34.189	
C	-0.1215859284	 1.5771733074	-0.1650773003	-0.387351
C	-0.0073700633	 0.0515741273	 0.0086842764	-0.053911
C	 0.7247348891	-0.5766212224	-1.1593684481	-0.062538
C	 1.9542001958	-0.9735009936	-0.8366187323	-0.070654
C	 2.2624337397	-0.7218021291	 0.6192703139	-0.262641
C	 0.8605051721	-0.4286852444	 1.2182883408	 0.004982
C	 0.8709199643	 0.4893573792	 2.4499350024	-0.304383
C	 1.5716783518	-0.162474373	 3.6200172759	 0.166012
O	 2.5170940969	 0.2959414208	 4.2077748061	-0.243675
H	 0.864575735	 2.0464738369	-0.2424037936	 0.120787
H	-0.6703859474	 1.8137332287	-1.0824879386	 0.113472
H	-0.6578417701	 2.0412513094	 0.668854502	 0.11333
H	-1.0256473771	-0.347193462	 0.105025454	 0.072964
H	 0.2906235568	-0.6211266495	-2.1528093162	 0.091016
H	 2.6771303121	-1.3999278265	-1.5232788906	 0.093974
H	 2.7526364316	-1.5699190005	 1.111229785	 0.107671
H	 2.9456995862	 0.1320337879	 0.736673645	 0.114313
H	 0.4412007035	-1.3952827785	 1.5269273762	 0.082001
H	 1.3552541934	 1.4481393527	 2.2462798477	 0.121275
H	-0.1651512971	 0.685999098	 2.763486067	 0.115305
H	 1.1385424949	-1.1484368188	 3.9163146372	 0.06805
52.6137	81.2384	99.4327	172.2748	251.7508	261.6708	282.9226	355.6177	439.082	476.3358	548.9159	654.9863	734.3128	756.2898	776.8477	827.5871	885.2104	938.3613	963.2441	977.0522	979.8383	1025.8269	1031.9004	1074.3153	1090.5223	1119.6047	1131.448	1145.654	1177.6079	1230.1896	1277.0718	1289.8848	1316.1605	1327.1739	1362.4601	1371.4664	1382.272	1408.7244	1428.4818	1462.8504	1487.7166	1496.072	1500.1945	1686.3118	1834.962	2840.2879	3001.1629	3007.7504	3008.1233	3021.9796	3032.4131	3054.4952	3098.7208	3102.0765	3106.2471	3177.631	3204.1695
CC1C=CCC1CC=O	C[C@H]1C=CC[C@H]1CC=O	
InChI=1S/C8H12O/c1-7-3-2-4-8(7)5-6-9/h2-3,6-8H,4-5H2,1H3	InChI=1S/C8H12O/c1-7-3-2-4-8(7)5-6-9/h2-3,6-8H,4-5H2,1H3/t7-,8-/m0/s1
