20
gdb 6218	3.18323	1.65198	1.49474	2.0301	69.99	-0.2549	0.0735	0.3284	953.3183	0.176641	-386.156035	-386.147406	-386.146461	-386.188908	33.347	
C	 0.5429836521	 1.3063445708	 0.2585983524	-0.438559
C	-0.0633244512	-0.0746992896	-0.0098999113	 0.393893
O	-1.4855562895	 0.02049675	-0.0850636091	-0.480941
C	 0.5411502054	-0.7512085736	-1.266641169	-0.251443
C	 1.7983467433	-1.5093034316	-0.7828015962	-0.239818
C	 1.6712088943	-1.6258242795	 0.7671284779	 0.115979
O	 2.623703577	-0.8079773889	 1.4506931526	-0.43157
C	 0.2746493029	-1.0888231447	 1.0977344957	-0.230133
H	 1.6224444267	 1.2400916949	 0.4124008371	 0.13708
H	 0.3525105021	 1.982979403	-0.5844127381	 0.093569
H	 0.0965182044	 1.7422753883	 1.1574538643	 0.119272
H	-1.7013887253	 0.7439565379	-0.6826309449	 0.271451
H	-0.2084291463	-1.4525704012	-1.6464080091	 0.104462
H	 0.7567157377	-0.0369494198	-2.0678019614	 0.086082
H	 1.8827121515	-2.4914132602	-1.2570102752	 0.099102
H	 2.7160794283	-0.960934245	-1.0185692088	 0.095239
H	 1.7844186235	-2.6664112925	 1.1003594142	 0.06401
H	 3.5030325388	-1.1060442942	 1.1971172036	 0.279148
H	 0.2375475997	-0.6653149751	 2.1040108689	 0.108163
H	-0.4606002855	-1.898076039	 1.0406213764	 0.105016
49.2135	149.2127	244.3494	271.0249	290.0512	314.1522	346.6812	390.5094	412.0158	441.2017	455.1254	585.5005	685.6214	764.2635	807.1017	839.6384	910.7664	937.5039	946.8289	983.5212	1005.4617	1025.3002	1042.9229	1086.7608	1126.3106	1183.0432	1202.4193	1234.433	1242.5003	1261.6461	1302.9843	1317.7792	1343.9943	1347.5404	1395.1907	1408.3238	1425.6087	1473.7087	1479.1061	1488.9738	1501.0442	1508.3496	2997.48	3020.5699	3041.2477	3049.3445	3059.1999	3078.6512	3093.8147	3098.6893	3114.115	3131.3573	3809.188	3814.9453
CC1(O)CCC(O)C1	C[C@@]1(O)CC[C@@H](O)C1	
InChI=1S/C6H12O2/c1-6(8)3-2-5(7)4-6/h5,7-8H,2-4H2,1H3	InChI=1S/C6H12O2/c1-6(8)3-2-5(7)4-6/h5,7-8H,2-4H2,1H3/t5-,6-/m1/s1
