17
gdb 31497	3.27721	1.0599	0.81981	1.0547	73.84	-0.1949	0.0173	0.2122	1364.6579	0.134246	-458.987136	-458.977593	-458.976649	-459.022051	33.718	
C	 0.11727252	 1.4925893596	 0.2687395977	-0.500782
C	-0.0076338835	 0.0315269251	 0.0473538216	 0.250587
C	-1.0545273476	-0.7744853988	-0.2871272298	 0.234528
O	-2.3240955066	-0.3301410636	-0.5136873064	-0.446398
C	-0.557820535	-2.1175226107	-0.3608691652	-0.417291
C	 0.7685012198	-2.0357877133	-0.0633685326	 0.322787
C	 1.8428476654	-3.0713052008	 0.0301304544	-0.164009
O	 1.5666787832	-4.1968695381	-0.7855525642	-0.40694
O	 1.1192987818	-0.7474245554	 0.1768801199	-0.217508
H	 0.8124409136	 1.9591568228	-0.4397893172	 0.131499
H	-0.8632267991	 1.9566042259	 0.1386992506	 0.146365
H	 0.4738737298	 1.7244722481	 1.2794687801	 0.132537
H	-2.8967639362	-1.0894335446	-0.651531837	 0.299957
H	-1.1074854896	-3.0180250022	-0.5884511758	 0.11386
H	 2.8100803163	-2.6017362492	-0.208286114	 0.108571
H	 1.9259918608	-3.4666899779	 1.0502519514	 0.129138
H	 1.4287967169	-3.8718539168	-1.6820410336	 0.283099
55.1145	100.0745	137.3043	161.5612	198.9139	224.9218	243.2324	326.7488	373.5551	394.0712	492.2081	620.6154	642.5689	666.9987	687.0118	779.197	797.0455	962.2619	995.089	1012.8018	1064.6688	1082.3986	1100.3141	1163.6807	1193.7756	1240.9967	1284.6748	1309.3204	1382.6645	1412.1848	1422.9677	1460.8167	1474.6388	1494.2032	1502.0234	1601.4315	1715.8844	2985.8186	3021.318	3042.1235	3067.3915	3127.6136	3250.4192	3804.0886	3850.5237
CC1=C(O)C=C(CO)O1	Cc1c(O)cc(CO)o1	
InChI=1S/C6H8O3/c1-4-6(8)2-5(3-7)9-4/h2,7-8H,3H2,1H3	InChI=1S/C6H8O3/c1-4-6(8)2-5(3-7)9-4/h2,7-8H,3H2,1H3
