18
gdb 82061	2.89709	1.45152	1.25768	3.6963	70.87	-0.2419	0.0637	0.3056	1045.0518	0.148439	-439.005969	-438.998202	-438.997257	-439.038606	29.902	
O	 0.2600803428	 1.3731882956	 0.0172774111	-0.432486
C	 0.1060579828	-0.0158071203	 0.0198729715	 0.066456
C	 0.319331722	-0.7342353658	 1.3599169946	-0.07832
N	-0.7155184479	-0.1415125233	 2.2449825095	-0.363322
C	-1.0720812531	-1.2615541185	 1.3317427831	-0.15553
C	-1.3613198424	-0.6071044078	-0.0112987932	 0.290006
C	-2.5914911889	 0.2699692215	-0.2757379742	-0.128437
O	-2.9709147048	-0.5323252084	-1.4184760296	-0.276254
C	-1.8507222449	-1.4156705816	-1.226082596	-0.150725
H	-0.1320917192	 1.6778677706	 0.8476285171	 0.29307
H	 0.7144483927	-0.4190918343	-0.7942479642	 0.091263
H	 1.2290853667	-1.1534434537	 1.7713926535	 0.099198
H	-0.5817098304	-0.5281054944	 3.1780548443	 0.237044
H	-1.469160933	-2.1910782114	 1.7218569236	 0.100175
H	-3.3561066097	 0.262305625	 0.5107866628	 0.100853
H	-2.3632297329	 1.3051999165	-0.5562779216	 0.11047
H	-1.1751977552	-1.4255696117	-2.0923755968	 0.101087
H	-2.1683976046	-2.4461116582	-1.0136627355	 0.095451
71.869	112.179	209.4718	247.0258	277.9638	413.9978	451.0383	516.5707	575.8934	638.0297	744.2874	822.6414	839.8642	857.1647	871.8884	913.0457	953.7638	978.0194	982.1206	1009.4072	1036.3666	1067.2899	1098.478	1128.6776	1136.1122	1148.7315	1157.5471	1182.9958	1211.6967	1228.1645	1276.1037	1306.4649	1317.0233	1332.4183	1376.5828	1387.571	1440.1413	1505.1692	1531.0298	2991.5838	3017.2854	3032.8384	3063.8614	3081.3567	3183.4146	3197.5384	3486.9595	3747.7601
OC1C2NC2C11COC1	O[C@H]1[C@H]2N[C@H]2C21COC2	
InChI=1S/C6H9NO2/c8-5-3-4(7-3)6(5)1-9-2-6/h3-5,7-8H,1-2H2	InChI=1S/C6H9NO2/c8-5-3-4(7-3)6(5)1-9-2-6/h3-5,7-8H,1-2H2/t3-,4+,5-/m0/s1
