13
gdb 132214	1.96841	1.87384	0.96176	5.8631	65.98	-0.2204	-0.0105	0.2099	1095.6417	0.089815	-494.067297	-494.059822	-494.058878	-494.099306	28.212	
O	 0.0928777011	 1.3441894258	 0.1785588047	-0.422907
C	-0.0010326909	 0.0000992159	 0.0604342376	 0.434751
C	-1.1543863964	-0.6810290596	 0.0577401201	-0.235059
C	-1.1490338517	-2.1421485474	-0.004770122	 0.345124
N	-2.2425261125	-2.8031565934	-0.0164686276	-0.534641
N	 0.1229979311	-2.7789280688	-0.0654068794	-0.387716
C	 1.1548139908	-2.0559293282	-0.051831879	 0.396559
F	 2.3664415543	-2.5920242111	-0.05991045	-0.065419
N	 1.2154452417	-0.6845455202	-0.041706091	-0.45777
H	 0.7677958677	 1.6827691608	-0.423037835	 0.306861
H	-2.0997731266	-0.159321629	 0.0843674732	 0.131412
H	-2.0264285578	-3.7997050725	-0.0753705345	 0.217634
H	 2.0636301992	-0.2471023221	 0.2885510729	 0.271171
132.0724	190.7394	235.6545	256.5186	336.3386	363.6768	437.5505	500.6007	530.187	604.6113	620.1781	631.8113	689.0919	742.2341	868.759	908.257	928.5029	1010.1206	1051.4961	1154.4871	1195.5071	1215.4919	1284.617	1348.7481	1397.2782	1489.7914	1685.9618	1724.258	1779.6243	3247.6638	3471.365	3612.0911	3778.9205
OC1=CC(=N)N=C(F)N1	O[C@@H]1C=C([NH])N=C(F)N1	
InChI=1S/C4H4FN3O/c5-4-7-2(6)1-3(9)8-4/h1H,(H3,6,7,8,9)	InChI=1S/C4H5FN3O/c5-4-7-2(6)1-3(9)8-4/h1,3,6,9H,(H,7,8)/t3-/m1/s1
