19
gdb 39830	2.82044	1.77277	1.38754	1.8926	78.	-0.2281	0.0649	0.2929	982.2129	0.16192	-381.995414	-381.988389	-381.987445	-382.026582	29.282	
C	-0.1451262819	 1.3740932003	 0.1265819662	-0.31735
C	 1.2713364592	 0.8838465323	-0.0384471039	 0.00976
C	 0.1442985249	-0.1127878492	 0.0751754572	-0.14012
C	 0.0582386836	-0.7970022168	-1.273491236	 0.350319
C	-0.4081420371	-2.1998050263	-1.3870494505	-0.306381
N	-1.2313320457	-1.1013847494	-1.9252403627	-0.358555
C	 1.1900843973	-0.2489693966	-2.1212134735	-0.0874
C	 1.1615755868	 1.1770608518	-2.5324338921	-0.25362
N	 1.9274389865	 0.7685791035	-1.3465143054	-0.110523
H	-0.3966161165	 1.7883630367	 1.0975738762	 0.114108
H	-0.6733986888	 1.8429120336	-0.6945387697	 0.12284
H	 1.9701209116	 1.0512161156	 0.7729520921	 0.099247
H	-0.0127309379	-0.7104043721	 0.9668090791	 0.089711
H	 0.0238677442	-2.8551812575	-2.1393675967	 0.119736
H	-0.7311292421	-2.7062947771	-0.4806221961	 0.111773
H	-1.9903024567	-0.8934215586	-1.2798655401	 0.231134
H	 1.7866544843	-0.9619110759	-2.6853511131	 0.09074
H	 1.7755079719	 1.5066905384	-3.3663289271	 0.115826
H	 0.2370631064	 1.7323005974	-2.4181568539	 0.118755
120.0761	193.8307	293.2878	364.3536	371.7004	477.5422	511.0501	568.3385	659.7315	701.6881	776.8686	807.778	820.9843	848.802	874.2093	924.3153	934.4668	970.9105	984.2295	986.5673	1006.9366	1050.0824	1062.6386	1087.084	1101.7645	1108.3898	1113.0186	1126.6942	1148.1179	1161.057	1201.7572	1261.0104	1282.487	1285.4346	1314.7638	1344.4006	1358.1302	1432.6398	1476.2108	1512.6754	1522.9839	3099.4343	3117.7968	3131.9106	3139.7867	3159.9599	3174.3448	3183.7513	3203.8978	3224.91	3489.8782
C1C2C1C1(CN1)C1CN21	C1[C@H]2[C@@H]1[C@]1(CN1)[C@H]1CN21	
InChI=1S/C7H10N2/c1-4-5(1)9-2-6(9)7(4)3-8-7/h4-6,8H,1-3H2	InChI=1S/C7H10N2/c1-4-5(1)9-2-6(9)7(4)3-8-7/h4-6,8H,1-3H2/t4-,5+,6-,7-,9?/m1/s1
