21
gdb 42102	3.60782	1.19342	1.13921	1.2724	77.5	-0.2453	0.0826	0.3279	1176.6657	0.184952	-424.244803	-424.236774	-424.23583	-424.278371	30.951	
C	-0.0478203877	 1.502931167	 0.3620340769	-0.205599
C	 1.3561674313	 2.0882706474	 0.1324752345	-0.203717
C	 2.2710169328	 0.8752839463	 0.3608487893	-0.260695
C	 1.4883108609	-0.3506746303	-0.1816949214	 0.433532
C	 0.0257366647	 0.1396327919	-0.3461453675	-0.268325
C	 2.0819690687	-0.9815353246	-1.4560608308	-0.172373
O	 2.961768385	-1.9761406569	-0.9606325826	-0.237751
C	 2.2713417907	-2.5071695623	 0.1411832899	 0.013304
O	 1.5871324918	-1.437648562	 0.7615706512	-0.307295
H	-0.2171378327	 1.3623290977	 1.4362742746	 0.105944
H	-0.8532141547	 2.1382110334	-0.0165415374	 0.093633
H	 1.4443200734	 2.450257514	-0.900235726	 0.093767
H	 1.591282255	 2.9287919238	 0.7912642783	 0.097661
H	 3.2629087575	 0.9717804404	-0.0898403601	 0.097277
H	 2.4143797757	 0.7131522683	 1.4337512396	 0.113836
H	-0.6707560028	-0.6051649179	 0.0449680921	 0.110068
H	-0.1956580179	 0.2673878941	-1.4134790721	 0.095351
H	 1.2876632584	-1.4341605729	-2.0722484241	 0.089321
H	 2.6528194498	-0.280382684	-2.0684810819	 0.11722
H	 1.5481829415	-3.2776608177	-0.1855462298	 0.080285
H	 2.9955640987	-2.9453071657	 0.8358545674	 0.114557
38.1088	69.0363	214.489	265.7207	323.455	395.96	400.5581	438.5071	553.7703	671.3341	737.5424	780.5037	826.2912	852.5512	881.4439	914.6627	940.4619	975.5354	981.9668	1001.7703	1021.5832	1046.1996	1059.4835	1107.7802	1116.1141	1163.6167	1177.8418	1191.1353	1212.0664	1241.9077	1250.9818	1260.9106	1279.4909	1319.1133	1337.6221	1343.0708	1361.8188	1368.6748	1432.6838	1475.2524	1484.9905	1493.4745	1508.0487	1513.0133	1546.7008	2926.2807	2972.1468	3023.9758	3026.2876	3039.0768	3052.9585	3068.9377	3087.9759	3092.3876	3100.625	3107.7651	3108.7307
C1CCC2(C1)COCO2	C1CCC2(C1)COCO2	
InChI=1S/C7H12O2/c1-2-4-7(3-1)5-8-6-9-7/h1-6H2	InChI=1S/C7H12O2/c1-2-4-7(3-1)5-8-6-9-7/h1-6H2
