12
gdb 48455	1.89346	1.7258	1.28652	2.39	60.57	-0.3001	-0.0811	0.219	999.0028	0.076101	-472.651231	-472.643218	-472.642274	-472.684541	27.388	
O	-0.5773174794	 0.5868348156	 0.6143451753	-0.219665
C	 0.1553706101	 0.9115990785	-0.2755838572	 0.131031
C	 1.3056403404	 1.9166278644	-0.0758199821	-0.162917
C	 1.399154904	 2.5276886216	 1.3350490897	-0.108644
O	 2.5850715633	 1.7135970119	 1.6283181439	-0.222832
C	 2.61690365	 1.1675293521	 0.3910789446	 0.462953
O	 3.3737054702	 0.3987731196	-0.0892360147	-0.288749
C	 1.4614070355	 2.7865053206	-1.222589017	 0.244977
N	 1.5617291028	 3.4716763768	-2.1480082429	-0.305251
H	 0.0858975681	 0.5001546659	-1.2998451126	 0.139011
H	 1.6394641076	 3.5891177157	 1.3745583259	 0.159254
H	 0.5723957174	 2.2578223073	 1.990263907	 0.170833
82.8084	121.1868	127.2903	176.0477	213.1676	304.5239	400.2256	508.0622	529.7304	616.7143	662.1031	706.6203	805.9288	873.7625	923.2269	969.733	1051.3369	1102.5578	1151.8382	1181.5519	1230.7583	1339.5933	1411.5965	1501.8901	1834.5932	1960.5088	2358.5397	2969.0111	3106.1542	3183.5368
O=CC1(COC1=O)C#N	O=C[C@]1(COC1=O)C#N	
InChI=1S/C5H3NO3/c6-1-5(2-7)3-9-4(5)8/h2H,3H2	InChI=1S/C5H3NO3/c6-1-5(2-7)3-9-4(5)8/h2H,3H2/t5-/m0/s1
