15
gdb 55010	2.70935	1.62642	1.3162	2.8319	60.64	-0.2636	-0.0118	0.2518	971.2852	0.11277	-491.093009	-491.08503	-491.084086	-491.125344	30.486	
N	 0.1008083405	 1.1535983543	 0.1235881751	-0.521567
C	 0.0073250311	-0.1420711096	-0.4479276566	 0.328985
N	 1.1263198967	-0.9473872271	-0.0790193756	-0.509712
H	 1.219077401	-1.7428325696	-0.7009648194	 0.245321
H	 1.989130576	-0.4161540838	-0.1184548805	 0.244049
C	-1.3082573899	-0.8220985292	-0.0772995102	 0.017548
O	-2.4299723637	-0.0604469298	-0.5063715969	-0.245725
C	-2.008896486	-1.1831570453	-1.309174167	-0.125989
C	-1.1382253514	-0.7356018001	-2.4601075497	 0.428808
O	-1.3083479069	-0.944313149	-3.6280257049	-0.345482
O	-0.0870299499	-0.0502636903	-1.9577958616	-0.282087
H	 0.8692275365	 1.6749680756	-0.2869460337	 0.243069
H	-0.7573653223	 1.6618240283	-0.062839351	 0.257972
H	-1.3856258105	-1.3505968562	 0.8662874717	 0.131328
H	-2.7191724212	-1.9925848583	-1.4278743797	 0.133484
106.9149	148.5709	183.9798	272.9339	333.9093	365.6393	399.6874	413.8962	499.509	560.788	601.0249	639.9469	763.9862	787.373	807.1255	843.692	872.2426	874.4146	933.4162	951.3055	1033.9102	1062.5732	1106.8418	1131.6968	1231.0097	1237.1371	1303.3308	1355.966	1402.925	1456.8147	1642.8595	1679.8084	1870.6116	3188.8536	3203.5982	3512.2637	3520.9945	3593.4269	3605.2326
NC(=[NH2+])C1OC1C([O-])=O	NC1(N)[C@H]2O[C@H]2C(=O)O1	
InChI=1S/C4H6N2O3/c5-3(6)1-2(9-1)4(7)8/h1-2H,(H3,5,6)(H,7,8)	InChI=1S/C4H6N2O3/c5-4(6)2-1(8-2)3(7)9-4/h1-2H,5-6H2/t1-,2+/m1/s1
