19
gdb 56168	3.64319	0.8395	0.7838	1.7736	72.99	-0.2704	0.0141	0.2845	1522.5725	0.155683	-460.184102	-460.173927	-460.172983	-460.221084	35.186	
C	-0.2778690605	 1.4088846098	-0.1117533857	-0.478559
C	 0.0001794454	-0.0648988894	 0.0567796616	 0.43646
O	 0.2548618805	-0.6214950855	 1.0942429714	-0.348217
O	-0.0766021624	-0.7035701192	-1.1319723916	-0.245301
C	 0.1547533285	-2.122718441	-1.0921351136	-0.123587
C	 0.1383151949	-2.6374103735	-2.5102786566	 0.403039
C	 1.0961538922	-1.9843781702	-3.480362943	-0.465115
C	-0.3199802736	-4.017827102	-2.7268720268	-0.232306
O	-1.1712992398	-2.9124283882	-3.0291834002	-0.268483
H	 0.421478042	 1.8452740767	-0.8302677485	 0.148706
H	-1.2859719916	 1.5541395479	-0.5104299184	 0.154438
H	-0.184039422	 1.9078764475	 0.8518450957	 0.148988
H	 1.1189217409	-2.3169460873	-0.610155685	 0.123994
H	-0.6280123274	-2.6023629145	-0.4985063745	 0.124929
H	 2.1322704865	-2.1122659343	-3.1485606012	 0.121508
H	 0.9894733591	-2.4251651851	-4.4739471978	 0.128561
H	 0.8930717479	-0.9126029507	-3.5495129648	 0.141163
H	 0.0569008295	-4.5721646295	-3.585454479	 0.114879
H	-0.6309499399	-4.6323092214	-1.8823504219	 0.114901
29.4519	52.292	67.7105	126.7137	176.2098	199.3766	244.8325	320.8791	363.2437	383.8262	434.8488	515.9046	606.5104	634.1502	743.2684	839.1196	904.4248	927.9344	935.5722	971.1627	992.0813	1059.5486	1065.3796	1069.1351	1117.0893	1136.1517	1173.4201	1252.2613	1265.7855	1304.7918	1370.1952	1394.8013	1409.0742	1436.1368	1469.3409	1475.9679	1479.4171	1492.0673	1501.6604	1534.3028	1825.6256	3042.5445	3050.4474	3057.3838	3078.6787	3104.1477	3112.8689	3122.324	3133.8021	3163.6723	3169.4944
CC(=O)OCC1(C)CO1	CC(=O)OC[C@@]1(C)CO1	
InChI=1S/C6H10O3/c1-5(7)8-3-6(2)4-9-6/h3-4H2,1-2H3	InChI=1S/C6H10O3/c1-5(7)8-3-6(2)4-9-6/h3-4H2,1-2H3/t6-/m0/s1
