16
gdb 123621	4.08963	1.5719	1.23907	2.7565	74.35	-0.2198	0.015	0.2349	970.3155	0.12893	-396.917395	-396.911075	-396.910131	-396.947895	25.846	
C	 0.0900247897	 1.4846707229	-0.0422795971	-0.237174
C	 1.3448900484	 0.6777826184	-0.0270494432	-0.163945
N	-0.0003814451	 0.0241310874	-0.0053772399	-0.103734
C	-0.24793457	-0.618191031	-1.3351429229	-0.306344
C	 0.9782262007	-0.3131986758	-2.1488020192	 0.208181
C	 1.6085369407	-0.4868067124	-3.357484358	-0.216054
N	 2.8329179174	 0.1032933421	-3.2175682304	-0.185682
N	 3.0423827637	 0.655410005	-1.996801856	-0.344517
C	 1.9080891555	 0.3982227037	-1.3656414298	 0.362584
H	-0.2488801817	 1.9826920731	 0.8625542799	 0.117587
H	-0.152216998	 2.0018979657	-0.969033839	 0.113474
H	 1.9512417969	 0.5982260599	 0.8690875114	 0.106349
H	-0.3879309253	-1.692966568	-1.1715738745	 0.121438
H	-1.1805812423	-0.2294948167	-1.7590970652	 0.118063
H	 1.3255275231	-0.9709852707	-4.2788162402	 0.136085
H	 3.5701855761	 0.1472606664	-3.9004094659	 0.273689
161.2344	234.2147	356.3135	438.7631	441.1108	474.4361	605.5923	649.1467	699.1824	732.2283	749.5978	781.5732	802.9169	841.4437	960.6233	975.7758	1016.3103	1024.3763	1056.5896	1071.6509	1113.9631	1134.7524	1151.2832	1189.8957	1212.2908	1253.0369	1290.7176	1314.2828	1338.8863	1433.4132	1471.066	1493.4046	1502.486	1522.1324	1629.2262	3030.4588	3063.6116	3093.2584	3165.6136	3182.5303	3259.6571	3674.7776
C1C2N1CC1=CNN=C21	C1[C@H]2N1Cc1c[nH]nc21	
InChI=1S/C6H7N3/c1-4-2-9-3-5(9)6(4)8-7-1/h1,5H,2-3H2,(H,7,8)	InChI=1S/C6H7N3/c1-4-2-9-3-5(9)6(4)8-7-1/h1,5H,2-3H2,(H,7,8)/t5-,9?/m1/s1
