18
gdb 17461	4.14262	1.96048	1.66113	1.8787	70.17	-0.2494	0.0815	0.3309	835.2725	0.154949	-347.786958	-347.780194	-347.77925	-347.817368	27.558	
C	-0.1539977692	 1.4956026325	 0.0178319987	-0.475978
C	 0.0243464795	-0.0050136629	-0.010001114	 0.341913
C	-0.7520283628	-0.8525785702	 0.9658680195	-0.32609
C	 0.7525020836	-0.7575725257	 1.0974714679	-0.100847
C	 1.5482219686	-1.8629535054	 0.443269041	 0.030818
O	 0.754822445	-2.8522564962	-0.2329882216	-0.255377
C	 1.3516712899	-1.808630478	-1.0148398728	 0.045361
C	 0.4287207616	-0.645346182	-1.3508111047	-0.319123
H	 0.7421874496	 2.0142233321	-0.3432535158	 0.112359
H	-0.994472811	 1.8081801663	-0.6136148718	 0.118398
H	-0.3586822263	 1.8490884158	 1.0335210092	 0.114508
H	-1.346140187	-0.3245916858	 1.7050747691	 0.101876
H	-1.1574636837	-1.8021389821	 0.6393671915	 0.132439
H	 1.1913275812	-0.2432570262	 1.9449176276	 0.079575
H	 2.4526021579	-2.2387851417	 0.9134849549	 0.092923
H	 2.0901251861	-2.1456628849	-1.7393973077	 0.092558
H	-0.4325329657	-0.967214949	-1.9468642563	 0.113987
H	 0.9853010427	 0.0830043436	-1.9532368147	 0.1007
186.172	213.3055	270.1866	337.7284	366.1998	412.5498	528.2932	620.6344	699.0629	722.4477	789.2756	827.8711	864.5411	886.7142	902.7597	928.4062	968.4248	1000.0707	1005.5847	1035.3265	1064.7972	1083.0717	1101.4126	1107.3143	1130.3068	1206.131	1238.1959	1270.5681	1279.2986	1314.8036	1344.2222	1391.8234	1418.9709	1423.2353	1473.1731	1483.9537	1490.8695	1501.0287	3018.2627	3034.4388	3073.7493	3076.4696	3096.6453	3132.0826	3132.8827	3153.6386	3178.1587	3229.7249
CC12CC1C1OC1C2	C[C@]12C[C@H]1[C@H]1O[C@H]1C2	
InChI=1S/C7H10O/c1-7-2-4(7)6-5(3-7)8-6/h4-6H,2-3H2,1H3	InChI=1S/C7H10O/c1-7-2-4(7)6-5(3-7)8-6/h4-6H,2-3H2,1H3/t4-,5-,6+,7+/m0/s1
