16
gdb 13051	4.14234	1.26695	1.02426	3.9661	66.04	-0.2477	-0.0322	0.2155	1107.7368	0.128497	-383.757171	-383.749033	-383.748089	-383.790883	28.403	
O	-1.0273920214	 0.9633918005	 0.5257614914	-0.239748
C	-0.0928396722	 1.0143481735	-0.2324954354	 0.148056
C	 1.1744230526	 1.8067288689	 0.036629523	-0.300707
C	 1.4782964619	 2.8043383137	-1.0854212657	-0.09674
C	 2.8054155369	 3.632622129	-1.0627440469	-0.257003
C	 3.0448172488	 3.3108929678	-2.5692614501	-0.330781
C	 1.9407277121	 2.2505258056	-2.447839514	 0.389999
O	 1.6415073754	 1.2777867744	-3.0793059844	-0.293022
H	-0.1001018108	 0.4756884652	-1.2034936364	 0.108438
H	 1.0691349234	 2.314283487	 1.000186501	 0.125419
H	 2.0059639291	 1.091679022	 0.1124765172	 0.12131
H	 0.6205775436	 3.4710947115	-1.2425281248	 0.115953
H	 2.7059923103	 4.6857801073	-0.7997663945	 0.117164
H	 3.5596585079	 3.1748054667	-0.4183765734	 0.118922
H	 2.748088294	 4.1254022736	-3.2379752063	 0.138003
H	 4.0282149384	 2.9487499633	-2.8772682307	 0.134739
57.6989	76.8832	99.7854	169.4213	248.3534	338.4595	416.6878	502.6877	545.9057	683.2257	733.3341	746.8782	826.6275	914.8397	929.5401	954.7311	1002.8701	1037.2736	1094.3935	1101.2839	1140.6064	1192.4072	1198.052	1230.12	1255.0126	1260.7302	1304.1007	1340.5561	1425.6207	1442.1021	1463.4449	1493.5588	1830.673	1882.2962	2921.6462	3014.6561	3033.9659	3061.577	3078.0221	3094.5277	3118.6967	3140.3303
O=CCC1CCC1=O	O=CC[C@H]1CCC1=O	
InChI=1S/C6H8O2/c7-4-3-5-1-2-6(5)8/h4-5H,1-3H2	InChI=1S/C6H8O2/c7-4-3-5-1-2-6(5)8/h4-5H,1-3H2/t5-/m1/s1
