17
gdb 99589	2.44222	1.22218	0.91905	3.0366	72.03	-0.2651	-0.0374	0.2276	1274.2659	0.13107	-458.913128	-458.902952	-458.902008	-458.948639	35.517	
C	 0.1750774221	 1.3994604622	 0.0918672168	-0.239438
O	-0.1448335498	 0.0411719876	-0.1409890243	-0.239476
C	 0.6249660356	-0.5766908514	-1.1551742314	-0.093251
C	 2.0549867944	-0.6416802165	-0.8451739701	 0.343037
C	 3.2308343404	-0.6788704324	-0.6017374593	-0.439998
C	 0.0174384923	-1.9861711564	-1.356994772	 0.036214
O	 0.2451470858	-2.8325562474	-0.2758850734	-0.422071
C	-1.4747635787	-1.8301810575	-1.6132697646	 0.144167
O	-2.2928058102	-2.4162314795	-0.9512981662	-0.255546
H	 1.2096172543	 1.5163243476	 0.4378489238	 0.128744
H	 0.0355104184	 2.006699534	-0.8157630427	 0.105666
H	-0.5078803086	 1.7538096435	 0.8664380316	 0.135985
H	 0.5021098836	-0.0237234861	-2.1053134423	 0.090665
H	 4.2689093458	-0.7252397509	-0.3811280407	 0.203495
H	 0.4711188722	-2.4007956377	-2.2737209613	 0.106392
H	-0.6288997662	-3.0168961249	 0.1023382877	 0.29906
H	-1.7637949615	-1.1589087341	-2.4474281615	 0.096356
65.6153	97.653	104.926	135.8944	179.8732	214.867	244.4486	292.7485	330.359	336.7596	404.3848	444.9033	575.9243	625.3741	683.533	696.3063	756.0962	858.5377	875.352	952.8434	1017.5683	1068.0852	1134.679	1175.9776	1183.4053	1216.7156	1254.9528	1320.6329	1342.7492	1360.6896	1404.3371	1441.477	1478.0072	1485.1838	1509.0281	1825.2077	2235.4905	2924.1413	2931.9564	2970.7934	2986.9955	3057.6363	3129.3546	3501.9453	3699.4597
COC(C#C)C(O)C=O	CO[C@@H](C#C)[C@@H](O)C=O	
InChI=1S/C6H8O3/c1-3-6(9-2)5(8)4-7/h1,4-6,8H,2H3	InChI=1S/C6H8O3/c1-3-6(9-2)5(8)4-7/h1,4-6,8H,2H3/t5-,6-/m0/s1
