20
gdb 61921	3.23759	0.78411	0.66376	4.9958	80.82	-0.2486	0.0209	0.2695	1669.6409	0.170769	-399.297998	-399.288094	-399.28715	-399.333993	35.251	
C	-0.0942201907	 1.7227406656	 0.0138948554	-0.403952
C	 0.0372128995	 0.1895078761	 0.0139383287	 0.019574
N	-1.2326305753	-0.549476796	 0.0767948345	-0.291003
C	-2.0504979276	-0.2741354318	 1.2499813649	-0.276137
C	-3.2102349814	-1.171291816	 1.2981474912	 0.265153
N	-4.1386418179	-1.8574617209	 1.3299270988	-0.296633
C	 0.8007159386	-0.2734837771	-1.2128143484	 0.017006
C	 2.242206065	-0.6159859532	-1.1119940384	-0.243742
N	 1.2362737809	-1.6660759794	-1.3340940052	-0.310419
H	 0.8938621155	 2.1900925785	-0.0408212178	 0.128531
H	-0.6753786683	 2.0607618	-0.8517016141	 0.119101
H	-0.5857778043	 2.0938941118	 0.9178182166	 0.118616
H	 0.6070338581	-0.1130255828	 0.9050420097	 0.077222
H	-1.7733332646	-0.3989818375	-0.7696224164	 0.230777
H	-1.4434728393	-0.4519527496	 2.1470843122	 0.153798
H	-2.4282288763	 0.7594950423	 1.3312792078	 0.136071
H	 0.4369507009	 0.1507453252	-2.1494046482	 0.088519
H	 2.9091231954	-0.4341507991	-1.9499981404	 0.121056
H	 2.7140274187	-0.5360070247	-0.1352472355	 0.109766
H	 1.0289588131	-2.1593649314	-0.4686235756	 0.236695
46.2323	72.3802	99.8506	109.275	216.1743	226.734	259.9478	312.553	387.9352	404.0758	444.2152	503.4624	583.7721	727.6245	805.2951	856.1126	891.5828	933.7111	947.5457	954.502	979.275	1003.8303	1060.3577	1091.261	1119.1475	1141.9129	1153.9088	1167.2577	1227.6201	1245.8534	1262.7986	1294.8951	1323.2017	1349.5227	1390.5323	1405.9067	1433.9429	1485.7553	1491.7812	1497.4811	1505.6903	1516.1534	2368.2329	2958.4824	2997.6446	3033.2131	3044.8113	3098.3609	3104.3227	3104.9318	3111.3328	3188.9113	3500.3468	3517.1358
CC(NCC#N)C1CN1	C[C@@H](NCC#N)[C@H]1CN1	
InChI=1S/C6H11N3/c1-5(6-4-9-6)8-3-2-7/h5-6,8-9H,3-4H2,1H3	InChI=1S/C6H11N3/c1-5(6-4-9-6)8-3-2-7/h5-6,8-9H,3-4H2,1H3/t5-,6-/m1/s1
