23
gdb 89713	2.72828	1.11845	1.09075	1.7388	85.99	-0.2501	0.0757	0.3258	1314.071	0.202972	-388.283185	-388.273127	-388.272182	-388.318023	38.207	
C	 0.6764633456	 1.3614462513	 0.1387520142	-0.390872
C	-0.0299239652	 0.0171446668	 0.0016300629	 0.027863
C	 0.6516728066	-0.9740191823	-0.9964675484	-0.333027
C	 1.177105594	-1.7587532208	 0.2106010168	 0.424399
C	 0.2578762659	-0.9874548306	 1.1640157105	-0.333034
O	 1.3485616794	-3.1674412765	 0.2330829242	-0.331975
C	 2.5107219784	-2.3362756181	 0.4500312851	 0.279755
C	 3.5330032789	-2.3794488814	-0.6643566816	-0.45375
C	 3.0743815513	-2.3953819538	 1.8527210327	-0.453744
H	 1.747316399	 1.2280061477	 0.3331293884	 0.112445
H	 0.5773517713	 1.956397169	-0.775747478	 0.114535
H	 0.2597481079	 1.9455660018	 0.9665509362	 0.114535
H	-1.0938468623	 0.1757450198	-0.1913043564	 0.071558
H	-0.0656483385	-1.5624609299	-1.5757885918	 0.110117
H	 1.3909615519	-0.5484639488	-1.6815536741	 0.097999
H	 0.7069587547	-0.5717878313	 2.0709530945	 0.098002
H	-0.6164171153	-1.5812547599	 1.4458654659	 0.110121
H	 3.049042516	-2.3673492186	-1.6430032599	 0.128271
H	 4.2163876175	-1.5252028962	-0.600509941	 0.115919
H	 4.1344780747	-3.2925361103	-0.5934936176	 0.123346
H	 3.6623182933	-3.3100225202	 1.9879494235	 0.123386
H	 3.7363016357	-1.5432008403	 2.0436846408	 0.115909
H	 2.2764969391	-2.3919267675	 2.5980317531	 0.128243
41.3263	146.4466	154.6587	183.7515	195.7229	255.6208	264.3082	333.9549	337.2062	368.0271	456.4005	463.1551	469.7421	549.3346	687.657	776.6876	817.3658	827.3367	894.6377	911.5608	923.703	945.4828	958.489	990.9733	1030.6753	1057.9361	1114.2557	1118.4721	1145.1801	1167.6187	1177.4858	1211.835	1238.4052	1250.0168	1272.4868	1278.8135	1363.2608	1405.9521	1411.4391	1415.2325	1458.7119	1463.6473	1473.3122	1484.5546	1488.5354	1498.016	1498.3228	1498.8794	1526.9279	3022.6847	3030.3803	3035.6645	3048.1446	3051.4551	3064.9541	3090.0658	3091.2084	3093.9768	3095.4015	3102.4302	3104.9346	3129.0287	3130.475
CC1CC2(C1)OC2(C)C	C[C@H]1C[C@@]2(C1)OC2(C)C	
InChI=1S/C8H14O/c1-6-4-8(5-6)7(2,3)9-8/h6H,4-5H2,1-3H3	InChI=1S/C8H14O/c1-6-4-8(5-6)7(2,3)9-8/h6H,4-5H2,1-3H3/t6-,8-
