19
gdb 80398	2.98655	1.49936	1.32671	2.1847	70.37	-0.2297	0.0666	0.2963	1040.7858	0.157376	-460.14291	-460.134312	-460.133368	-460.175677	33.621	
C	 0.2903584639	 1.442191968	-0.0283534584	-0.427518
C	 0.0391028393	-0.0542633077	-0.0121394964	 0.429675
C	-1.4413576294	-0.4268560603	 0.0445477813	-0.405493
O	 0.6597205737	-0.6376096304	-1.161911818	-0.2804
C	 1.1672157239	-1.8875819672	-0.777571887	-0.001912
C	 2.4815321814	-1.8774273919	-0.0011450859	 0.088564
O	 3.2672985185	-0.7414901066	 0.0872469293	-0.425247
C	 1.1547295467	-1.9153674343	 0.7276264893	-0.044037
O	 0.732452666	-0.6270872147	 1.1184052815	-0.307963
H	 1.3597535893	 1.6343379945	-0.1381999641	 0.131277
H	-0.2321317767	 1.8998406122	-0.8718135335	 0.13224
H	-0.0696496118	 1.8966878312	 0.8977583682	 0.128849
H	-1.9604258577	-0.0417223104	-0.8370020764	 0.127085
H	-1.555560128	-1.513991099	 0.0666850692	 0.123771
H	-1.9058583563	-0.0089281824	 0.9416913884	 0.124712
H	 0.8816766698	-2.723160068	-1.4079782407	 0.10375
H	 3.0617956514	-2.7961874224	-0.0340282394	 0.10436
H	 2.7882343052	-0.1305631142	 0.6642195235	 0.295545
H	 0.8156773909	-2.7321506266	 1.3558111991	 0.102744
89.0545	168.0435	200.1498	234.4766	250.2706	332.7899	339.0811	393.6754	423.423	515.408	576.2339	615.7501	712.5542	743.0939	769.928	781.4736	804.9808	859.518	922.9008	952.1154	987.4482	1004.3484	1052.4884	1081.855	1094.5609	1105.7604	1125.9598	1168.6268	1199.3781	1226.5469	1282.8969	1310.2327	1337.0459	1370.0666	1401.8272	1414.3472	1439.2162	1472.8833	1478.9988	1492.5178	1499.9473	3047.6283	3057.46	3125.5002	3127.2638	3137.3417	3140.7285	3143.0507	3157.117	3167.8615	3744.0516
CC1(C)OC2C(O)C2O1	CC1(C)O[C@H]2[C@@H](O)[C@H]2O1	
InChI=1S/C6H10O3/c1-6(2)8-4-3(7)5(4)9-6/h3-5,7H,1-2H3	InChI=1S/C6H10O3/c1-6(2)8-4-3(7)5(4)9-6/h3-5,7H,1-2H3/t3-,4+,5-
