13
gdb 15855	2.73092	2.07528	1.35494	6.4043	59.74	-0.2697	-0.0464	0.2234	873.744	0.093936	-398.607356	-398.599746	-398.598802	-398.639757	27.04	
O	 0.0060909606	 1.3759925031	-0.2020548325	-0.409373
C	 0.0304485767	-0.0103258005	 0.009713964	 0.102936
C	 0.1971062611	-0.4087859477	 1.5106175646	-0.373362
C	-1.3292420167	-0.5400984512	 1.5974513826	 0.405754
O	-2.1275945863	-0.5730425792	 2.4765044058	-0.258844
C	-1.4454169235	-0.5346076721	 0.0356782465	-0.289546
C	-2.4897897419	 0.2288533569	-0.6114914732	 0.311896
N	-3.3379308465	 0.8310933852	-1.1145365289	-0.319905
H	 0.9000123041	 1.7204138267	-0.1069706214	 0.297491
H	 0.6839770468	-0.530340641	-0.6986331084	 0.091864
H	 0.6921951707	-1.3737606933	 1.6622212757	 0.141475
H	 0.6516759939	 0.338996056	 2.1638174061	 0.144189
H	-1.481112409	-1.5774647229	-0.3007306708	 0.155426
60.5199	129.1257	156.573	273.9167	363.2849	378.481	402.9949	422.1994	557.1766	588.0524	699.0509	744.3351	851.7701	878.6253	968.2098	1031.7736	1047.0985	1074.5595	1111.2549	1199.1134	1212.3615	1222.089	1288.0096	1331.7277	1411.1216	1427.8162	1921.326	2363.1478	3046.4042	3055.877	3064.7991	3128.561	3821.709
OC1CC(=O)C1C#N	O[C@H]1CC(=O)[C@H]1C#N	
InChI=1S/C5H5NO2/c6-2-3-4(7)1-5(3)8/h3-4,7H,1H2	InChI=1S/C5H5NO2/c6-2-3-4(7)1-5(3)8/h3-4,7H,1H2/t3-,4-/m0/s1
