22
gdb 119622	3.90544	0.96558	0.87869	0.7778	82.77	-0.2285	0.0822	0.3107	1425.5586	0.195041	-404.324031	-404.314998	-404.314054	-404.358224	33.94	
C	-0.0772518337	 1.4071527382	-0.2128106258	-0.219111
O	-0.0152246718	 0.0023030584	-0.1854594829	-0.239382
C	-1.2755101034	-0.5980510598	 0.0386521228	-0.149917
C	-1.0844794587	-2.0897865239	 0.1044579868	 0.340243
C	-1.241198948	-2.9338969195	-1.1088866193	-0.287829
N	-2.2934029645	-2.9203345037	-0.0789134815	-0.143051
C	-2.1943458262	-4.0396885721	 0.8791420934	-0.148581
C	-0.7356508432	-4.1085479965	 1.3899965795	-0.244425
C	-0.2315500669	-2.6581898744	 1.2321170542	-0.266585
H	 0.9364370133	 1.7775791504	-0.3847091178	 0.125398
H	-0.7309132768	 1.7727885974	-1.0209616394	 0.103315
H	-0.4501040987	 1.8195960449	 0.7386782477	 0.102224
H	-1.7090740395	-0.2330198451	 0.9870320111	 0.081742
H	-1.9848367778	-0.341980729	-0.7642484373	 0.092733
H	-1.526933013	-2.4732608907	-2.050426808	 0.111955
H	-0.6179201769	-3.8185480388	-1.2142987753	 0.107026
H	-2.8828434253	-3.8190917308	 1.7024760262	 0.105626
H	-2.5307708485	-4.9689276622	 0.4086206782	 0.104569
H	-0.674999245	-4.4663617121	 2.4207315255	 0.10145
H	-0.1383887845	-4.7946426867	 0.7823896893	 0.10737
H	 0.8393567675	-2.5956724555	 1.0241826184	 0.115105
H	-0.4183837884	-2.0776787886	 2.1437063243	 0.100124
62.8632	93.233	122.5736	216.9841	232.0533	266.1116	329.3594	356.4191	417.7024	451.0822	628.0744	650.9595	716.1296	817.0364	842.3243	890.4931	900.4249	939.5251	948.2459	974.7917	996.3669	1016.7137	1062.914	1085.4436	1110.6255	1153.2472	1174.097	1184.1549	1190.4497	1205.299	1226.7835	1231.9914	1260.7582	1281.4652	1321.5332	1345.7351	1352.808	1384.2124	1429.9198	1480.4738	1485.2473	1489.9184	1492.9957	1499.8351	1503.5561	1519.4726	1527.3149	2942.4127	2967.5695	2993.8172	3009.4877	3036.8052	3040.0127	3058.1347	3082.9909	3097.1379	3105.3571	3109.6368	3111.8488	3188.2605
COCC12CN1CCC2	COC[C@]12CN1CCC2	
InChI=1S/C7H13NO/c1-9-6-7-3-2-4-8(7)5-7/h2-6H2,1H3	InChI=1S/C7H13NO/c1-9-6-7-3-2-4-8(7)5-7/h2-6H2,1H3/t7-,8?/m0/s1
