21
gdb 86542	2.68633	1.34455	1.20265	3.467	77.76	-0.2415	0.0754	0.3169	1151.3013	0.181843	-424.198218	-424.189379	-424.188434	-424.231468	34.675	
C	 0.0711153648	 1.4929561126	-0.3191426587	-0.457139
C	-0.1707923965	 0.0491175786	 0.0667152575	 0.402822
C	 0.9866377231	-0.8410509264	 0.2382372921	-0.235922
O	 0.3131388842	-0.3018521186	 1.386003428	-0.278373
C	-1.5473218166	-0.4898249778	-0.2755885989	-0.079268
C	-1.9031910249	-1.9238710569	 0.2201940412	-0.282119
C	-2.7298785373	-1.3108030821	 1.388095552	 0.157329
O	-2.0937942775	-1.3472965786	 2.6393906684	-0.443612
C	-2.6772168552	 0.0647616254	 0.6555901932	-0.258007
H	 1.0395026154	 1.8347381154	 0.0536707552	 0.128794
H	 0.0559046827	 1.6047770485	-1.408509073	 0.124478
H	-0.7047169229	 2.1437060008	 0.0955191253	 0.133466
H	 0.8831360419	-1.9142844604	 0.0969157722	 0.120796
H	 1.9903111214	-0.4509629301	 0.0765105654	 0.117228
H	-1.7161723788	-0.3226636373	-1.3439801603	 0.072854
H	-2.5200725507	-2.459848099	-0.5059215382	 0.099728
H	-1.0896068302	-2.5810691453	 0.5352538288	 0.103896
H	-3.7282070967	-1.7283803849	 1.5408101699	 0.077618
H	-1.1780898729	-1.0593454374	 2.5021256094	 0.291462
H	-2.4230251298	 0.9125595448	 1.2971848822	 0.106504
H	-3.5953327733	 0.2964292288	 0.1094250484	 0.097464
76.3379	136.6725	184.8027	228.2641	237.5037	351.3277	376.5925	397.1009	406.1065	464.1062	499.0632	589.3303	663.3169	754.223	793.2216	818.6165	853.9711	886.3359	919.1029	942.6285	978.5116	986.2268	1026.4381	1056.8151	1074.9339	1095.1237	1129.9657	1133.7878	1169.8419	1181.5744	1190.6172	1240.1337	1252.753	1272.3158	1275.9235	1347.9649	1375.1802	1387.8527	1414.6075	1456.3862	1471.1725	1483.1369	1483.6749	1495.987	1529.002	3040.1414	3051.4427	3057.48	3065.1681	3080.0212	3093.7017	3106.4931	3115.6151	3118.4916	3125.9914	3180.5229	3696.4202
CC1(CO1)C1CC(O)C1	C[C@]1(CO1)[C@H]1C[C@@H](O)C1	
InChI=1S/C7H12O2/c1-7(4-9-7)5-2-6(8)3-5/h5-6,8H,2-4H2,1H3	InChI=1S/C7H12O2/c1-7(4-9-7)5-2-6(8)3-5/h5-6,8H,2-4H2,1H3/t5-,6+,7-/m0/s1
