18
gdb 71689	2.75725	2.28481	1.69832	2.5313	73.34	-0.2222	0.0692	0.2915	845.7647	0.150303	-401.877955	-401.871625	-401.87068	-401.908145	27.294	
O	-0.1016851583	 1.3389302006	 0.1060778102	-0.495964
C	 0.0043151115	-0.0475068234	 0.0157080565	 0.411256
C	 0.2671400965	-0.7938330627	-1.3226043083	-0.323841
C	-0.5099603918	-1.9363454348	-0.647552814	-0.060781
C	 0.1564321631	-2.1934945079	 0.7312785376	 0.00084
C	 0.7995136691	-0.8074295999	 1.096460221	-0.132816
C	-0.15347044	-0.8060781022	 2.3078962038	-0.182335
N	-1.0682535257	-1.688428692	 1.5034993645	-0.154525
C	-1.298331714	-0.9213122179	 0.2273320067	-0.04199
H	 0.7782847581	 1.7208770685	 0.0141844771	 0.279068
H	-0.2995422474	-0.3466395319	-2.1438182025	 0.107814
H	 1.3037071842	-0.9671991589	-1.6309479071	 0.088336
H	-0.9589384968	-2.7675551206	-1.1852171244	 0.079332
H	 0.6200511208	-3.1300098096	 1.0406102123	 0.075276
H	 1.8748167543	-0.6255966944	 1.160740628	 0.057503
H	 0.2235776103	-1.3632942301	 3.1700062183	 0.102865
H	-0.5770083195	 0.1499533615	 2.6302012815	 0.111056
H	-2.2784081345	-0.4973380745	 0.0176291389	 0.078905
228.9137	280.4702	290.8001	410.1236	445.0222	494.4655	601.3129	703.2025	745.6529	788.4209	805.1616	830.9188	844.3667	875.3232	893.0221	923.3948	955.9883	964.3895	988.66	1003.432	1013.2329	1044.0709	1068.2574	1113.9821	1140.7306	1156.4484	1164.7071	1197.2023	1203.7457	1208.1519	1219.9214	1249.4851	1257.1419	1284.9484	1294.2408	1324.8264	1371.7318	1493.6859	1500.1367	3041.2555	3050.2575	3084.9068	3107.0507	3110.0361	3115.5821	3137.4959	3151.4671	3797.486
OC12CC3C4C1CN4C23	O[C@@]12C[C@H]3[C@H]4[C@@H]1CN4[C@@H]23	
InChI=1S/C7H9NO/c9-7-1-3-5-4(7)2-8(5)6(3)7/h3-6,9H,1-2H2	InChI=1S/C7H9NO/c9-7-1-3-5-4(7)2-8(5)6(3)7/h3-6,9H,1-2H2/t3-,4-,5-,6+,7-/m0/s1
