19
gdb 83693	2.41059	1.50014	1.18035	2.4162	75.	-0.2394	-0.0251	0.2142	1104.4597	0.159086	-422.998345	-422.989857	-422.988913	-423.032786	31.835	
O	 0.434110146	 1.0066377083	 0.6527492596	-0.419331
C	 0.0386604256	-0.239228348	 0.1330435206	 0.107128
C	-1.4799743724	-0.4102557041	-0.0188504946	-0.037185
C	-2.2421725765	 0.8463683897	-0.5345649447	-0.237718
C	-2.2502403875	 0.2509062005	-1.9743287617	-0.231793
C	-1.2858607438	-0.8676992482	-1.5109781171	-0.035542
C	 0.2385504984	-0.5197682005	-1.4182246541	-0.15843
C	 0.7943867578	 0.6513726383	-2.1807732182	 0.153584
O	 1.9130740392	 0.6801586051	-2.6351272443	-0.265782
H	 1.3942036575	 1.0197838144	 0.7270374774	 0.293993
H	 0.4776426135	-1.0648478748	 0.7082898488	 0.080955
H	-1.9899029827	-1.0077542283	 0.7370984393	 0.068027
H	-3.2293685957	 0.9929692111	-0.0927913032	 0.104508
H	-1.6757096192	 1.7717866245	-0.4147257124	 0.125393
H	-3.2269587737	-0.1673398124	-2.2321919263	 0.104442
H	-1.9384576441	 0.8956796954	-2.799775334	 0.101023
H	-1.4852793305	-1.8818589071	-1.8571422308	 0.072415
H	 0.897166507	-1.3706150493	-1.6023259591	 0.090388
H	 0.129437791	 1.5345137453	-2.2747408652	 0.083925
20.6588	78.536	193.2073	237.2019	261.9283	315.1615	386.3588	437.4688	476.9656	560.922	629.1138	750.5676	760.9558	794.2977	855.6299	869.434	897.4295	958.3912	990.5964	1016.5616	1025.2346	1060.5035	1083.5611	1111.4553	1145.1551	1158.1283	1202.433	1212.5907	1222.6419	1247.5915	1261.5726	1270.3651	1298.1245	1305.5582	1327.7857	1338.1032	1426.4758	1438.8855	1484.5698	1503.2265	1810.5823	2916.355	3007.6027	3057.6854	3077.9585	3090.1738	3096.8936	3102.4713	3110.5976	3131.7329	3813.2727
OC1C2CCC2C1C=O	O[C@H]1[C@H]2CC[C@H]2[C@H]1C=O	
InChI=1S/C7H10O2/c8-3-6-4-1-2-5(4)7(6)9/h3-7,9H,1-2H2	InChI=1S/C7H10O2/c8-3-6-4-1-2-5(4)7(6)9/h3-7,9H,1-2H2/t4-,5+,6-,7+/m1/s1
