20
gdb 58364	1.85062	1.51843	0.99279	3.8729	75.47	-0.2235	-0.0274	0.1962	1259.5503	0.167564	-440.242295	-440.232108	-440.231164	-440.278194	35.667	
C	 0.5642868401	-1.0008121776	-1.0480261107	-0.322265
N	-0.1060667327	 0.0227865611	-0.2627898117	-0.062726
C	 0.2649497631	 1.369384889	-0.6797519596	-0.336149
C	-1.5391773159	-0.18331019	-0.0716489926	-0.12386
C	-1.9387571381	 0.5738130529	 1.1980553609	 0.156243
O	-2.8485696743	 1.3557795498	 1.2777485746	-0.237164
C	-2.4601591655	 0.1507252873	-1.234414141	 0.099757
C	-2.721744776	-0.8157268265	-2.3101869569	-0.190444
O	-3.6830128674	-0.5874981095	-1.2820264165	-0.23007
H	 1.6481114821	-0.8694194854	-0.9599057692	 0.12328
H	 0.3130512668	-1.9923758834	-0.6596015435	 0.120439
H	 0.3125677839	-0.9759308288	-2.1229352608	 0.102185
H	 0.0257879817	 1.5879621235	-1.7354628478	 0.104339
H	-0.2424888341	 2.1130555128	-0.0579710587	 0.135264
H	 1.3438897045	 1.503044172	-0.5500221944	 0.124692
H	-1.6861635287	-1.2475090775	 0.1632300669	 0.106746
H	-1.2719378615	 0.3502870572	 2.059999616	 0.089314
H	-2.5800755187	 1.2105230864	-1.45239165	 0.109188
H	-2.9988161767	-0.4567803421	-3.3003969172	 0.118917
H	-2.2414578824	-1.7933239813	-2.2913985976	 0.112316
57.4429	67.5797	87.9237	154.1579	189.6477	243.1029	247.5309	249.2335	334.2839	345.0905	382.0227	442.1539	523.6679	678.9574	781.1214	864.4327	880.8875	916.4842	963.8444	1054.5454	1060.0312	1073.289	1098.0569	1121.6456	1143.5102	1160.1035	1172.943	1184.6763	1202.2964	1282.7122	1293.7736	1314.2435	1342.5927	1397.6311	1443.3987	1447.3595	1472.1877	1478.2204	1494.6576	1506.1372	1521.3368	1528.1411	1834.3543	2893.7194	2948.4085	2953.659	3015.2716	3056.6669	3060.5096	3081.4949	3101.7232	3106.6607	3129.3905	3167.1271
CN(C)C(C=O)C1CO1	CN(C)[C@@H](C=O)[C@H]1CO1	
InChI=1S/C6H11NO2/c1-7(2)5(3-8)6-4-9-6/h3,5-6H,4H2,1-2H3	InChI=1S/C6H11NO2/c1-7(2)5(3-8)6-4-9-6/h3,5-6H,4H2,1-2H3/t5-,6+/m0/s1
