12
gdb 132315	2.1255	1.94872	1.01664	4.55	61.59	-0.2473	-0.0406	0.2067	1037.0272	0.078446	-510.149746	-510.142408	-510.141463	-510.181904	26.866	
N	 0.0438534389	 1.291592119	 0.0074806061	-0.556025
C	-0.0297281437	-0.0428632393	 0.0006763935	 0.544044
N	-1.1851379841	-0.657488764	 0.0034361633	-0.412685
C	-1.0516980663	-2.0008113894	-0.0045931524	 0.332871
F	-2.2019045477	-2.6361090533	-0.0016834151	-0.042175
N	 0.0134900822	-2.7251396758	-0.0140140634	-0.37977
C	 1.2143482229	-2.060477189	-0.0166826203	 0.434009
N	 2.3867834325	-2.5197954344	-0.0254440917	-0.52761
O	 1.1602095812	-0.6333071124	-0.0087628426	-0.218269
H	 0.938075729	 1.7501039296	 0.005197127	 0.29098
H	-0.8100849367	 1.8214221384	 0.0147980567	 0.292652
H	 2.3354300618	-3.5368374894	-0.030742971	 0.241977
104.1938	172.9528	202.1327	223.4787	338.894	387.4388	545.4742	561.4173	563.1015	595.3763	670.2562	722.5198	742.9384	798.5466	858.3705	858.7056	975.4937	1072.7859	1097.1041	1175.744	1242.8741	1433.1023	1473.1314	1575.1256	1658.0918	1686.4097	1781.1416	3526.8823	3626.1849	3763.7288
NC1=NC(F)=NC(=N)O1	N[C@H]1N=C(F)N=C([NH])O1	
InChI=1S/C3H3FN4O/c4-1-7-2(5)9-3(6)8-1/h(H3,5,6,7,8)	InChI=1S/C3H4FN4O/c4-1-7-2(5)9-3(6)8-1/h2,6H,5H2/t2-/m0/s1
