22
gdb 123100	2.56576	0.88295	0.68971	6.579	80.27	-0.2357	0.0368	0.2725	1665.7035	0.194129	-441.526194	-441.515987	-441.515043	-441.562557	36.432	
C	-0.6450518746	 1.1346670806	 0.8787604999	-0.399247
C	-0.2073318201	-0.16507029	 0.2120994763	-0.117016
N	-1.3665865335	-0.94616449	-0.2384608516	-0.291171
H	-2.6432710373	-1.4397437511	 0.8281251008	 0.309394
H	-1.9395319635	-0.3588679802	-0.8415643076	 0.232935
C	-1.0203041783	-2.1722566239	-0.9693148186	-0.137464
C	-2.2374823147	-3.074756253	-1.1981592637	-0.234665
C	-2.8102493502	-3.7578355646	 0.0641149945	-0.312788
C	-3.8250530559	-2.9784019512	 0.9107378268	 0.380458
O	-3.5036902717	-1.7247752245	 1.2449148912	-0.385579
O	-4.8536718912	-3.4836613764	 1.2846191426	-0.332135
H	 0.2248457996	 1.694258274	 1.233469967	 0.126753
H	-1.1883308585	 1.7768921648	 0.1763392669	 0.120124
H	-1.3002305035	 0.9354763375	 1.7315963849	 0.143595
H	 0.4791688117	 0.0499165292	-0.6240337088	 0.094408
H	 0.3501388143	-0.7846166965	 0.9242624914	 0.118079
H	-0.5374555026	-1.9433096585	-1.9332459149	 0.096059
H	-0.2776877742	-2.7125856137	-0.3690986326	 0.114621
H	-3.0248163314	-2.5126647183	-1.7174365987	 0.111376
H	-1.9267490264	-3.8623538836	-1.8933605352	 0.113991
H	-3.3225710233	-4.6797310063	-0.2161759725	 0.130813
H	-1.9808501146	-4.0476078645	 0.724366182	 0.11746
57.9379	63.9235	80.9058	114.8401	191.4709	234.8386	255.561	271.2834	309.5171	420.2581	446.8199	473.4022	581.6856	690.4329	785.8935	810.6192	826.2533	886.3783	898.9133	919.2955	961.4167	1036.7793	1050.6336	1071.6788	1079.2723	1128.8223	1146.9655	1150.2022	1220.5526	1251.2243	1280.8487	1315.9031	1329.6131	1355.2597	1367.7148	1380.205	1409.696	1425.114	1463.4753	1470.0056	1484.6782	1492.3982	1496.5066	1501.3834	1507.6965	1523.5296	1845.305	2963.4112	2970.4884	3019.6475	3027.798	3037.033	3049.8242	3054.2558	3071.501	3105.9894	3115.3871	3123.1575	3127.3081	3479.8304
CC[NH2+]CCCC([O-])=O	CCNCCCC(=O)O	
InChI=1S/C6H13NO2/c1-2-7-5-3-4-6(8)9/h7H,2-5H2,1H3,(H,8,9)	InChI=1S/C6H13NO2/c1-2-7-5-3-4-6(8)9/h7H,2-5H2,1H3,(H,8,9)
