14
gdb 18314	3.8356	2.20008	1.43612	3.5259	64.18	-0.2426	-0.0127	0.23	819.2224	0.1091	-378.740109	-378.733613	-378.732669	-378.771449	23.779	
O	-0.2334852487	-0.1037035113	 0.0195587904	-0.355346
C	-0.1369489339	 1.0912767423	 0.1156935733	 0.367238
C	-1.2113037281	 2.2070479661	-0.1125647526	-0.298602
N	-0.5892912441	 3.5310237831	 0.1345605312	-0.356168
C	 0.6019850667	 3.2097739051	 0.4411204587	 0.418532
C	 1.9983880538	 3.6654357407	 0.8492505619	-0.369603
C	 2.3604483444	 2.1288851867	 0.8576735996	-0.176304
N	 0.9570949359	 1.8758776175	 0.4602538219	-0.111686
H	-1.5937969393	 2.1437844372	-1.1366354736	 0.151018
H	-2.0580913819	 2.0447443524	 0.5623999468	 0.151017
H	 2.5260554703	 4.2621651793	 0.1038322383	 0.148446
H	 2.0567294096	 4.1599647438	 1.8199842906	 0.148466
H	 3.0899906164	 1.8128576172	 0.1091983975	 0.141501
H	 2.620337649	 1.7116676999	 1.832705576	 0.141491
49.154	174.18	253.273	310.6015	511.0417	546.3102	616.9265	658.5575	693.8593	787.0605	800.0429	900.64	955.1596	960.5028	1016.5569	1057.479	1084.1192	1138.0692	1171.5437	1189.7518	1214.9509	1247.9344	1255.4478	1303.9793	1379.0092	1439.4012	1464.6978	1513.5433	1745.5934	1850.2658	3057.4379	3073.7841	3092.9846	3097.5614	3127.1478	3150.8333
O=C1CN=C2CCN12	O=C1CN=C2CCN12	
InChI=1S/C5H6N2O/c8-5-3-6-4-1-2-7(4)5/h1-3H2	InChI=1S/C5H6N2O/c8-5-3-6-4-1-2-7(4)5/h1-3H2
