23
gdb 101745	4.66478	0.7098	0.64768	2.5731	82.15	-0.239	0.0602	0.2992	1782.1414	0.204428	-425.40704	-425.396675	-425.395731	-425.443275	37.329	
C	 0.0605391288	 1.5703962784	 0.1257657955	-0.381172
C	-0.0113196049	 0.0469585388	-0.0024893157	-0.191039
C	 0.6811275524	-0.4876132752	-1.2617765909	 0.136765
O	 2.0553867703	-0.0960081092	-1.3106961945	-0.424293
C	 0.5269062118	-2.0061208182	-1.4202193071	-0.241223
C	 1.1845571941	-2.5519863507	-2.6804941959	-0.000628
C	 2.7195489591	-2.7194211132	-2.7235989665	-0.069213
O	 2.6005358334	-4.0989478306	-3.1335930007	-0.274667
C	 1.1760040666	-4.0789479826	-2.9180734461	-0.096897
H	 1.0987177001	 1.9113353201	 0.0980867402	 0.127272
H	-0.469474967	 2.059174401	-0.6991200836	 0.115288
H	-0.3911526582	 1.9114497315	 1.0619430327	 0.110439
H	 0.4500613321	-0.4262687135	 0.8772507485	 0.085936
H	-1.0576755644	-0.2829996596	-0.0084194158	 0.097725
H	 0.2378887795	 0.0006727492	-2.140608216	 0.08605
H	 2.4872457685	-0.450107914	-0.5246647853	 0.277774
H	 0.9461218347	-2.5090239175	-0.5355071565	 0.087258
H	-0.5439842169	-2.2502565445	-1.4317140732	 0.099122
H	 0.8179206007	-2.0075554153	-3.5561799351	 0.079944
H	 3.2692878724	-2.1140289695	-3.4511067568	 0.108437
H	 3.2117646713	-2.6293845635	-1.7456660557	 0.077985
H	 0.8858708166	-4.6713002787	-2.0372153804	 0.089319
H	 0.620077879	-4.4467984331	-3.7886042812	 0.099815
52.1742	77.8091	92.4605	118.5696	149.0779	218.5094	267.4418	299.4825	310.6515	335.0974	428.9334	467.9651	540.6729	740.6731	778.3652	841.7225	877.5016	898.9862	904.8599	963.9473	987.3013	1009.8373	1030.8702	1038.0988	1054.013	1105.7208	1114.1728	1133.2103	1156.4659	1160.693	1164.3903	1233.8355	1261.4819	1264.3515	1300.141	1306.1972	1341.6919	1354.7538	1373.5531	1391.7305	1407.1917	1408.7842	1422.0702	1472.6278	1484.7477	1496.0903	1508.8212	1509.3998	1535.4082	2986.2287	2994.2195	2998.8044	3007.2365	3021.3576	3036.9808	3038.9694	3044.6071	3054.0054	3061.8162	3078.234	3103.315	3122.7134	3792.3062
CCC(O)CC1COC1	CC[C@@H](O)CC1COC1	
InChI=1S/C7H14O2/c1-2-7(8)3-6-4-9-5-6/h6-8H,2-5H2,1H3	InChI=1S/C7H14O2/c1-2-7(8)3-6-4-9-5-6/h6-8H,2-5H2,1H3/t7-/m1/s1
