20
gdb 12860	2.76795	2.22998	1.75119	1.2559	73.34	-0.249	0.0794	0.3284	864.3545	0.178726	-349.013499	-349.006052	-349.005108	-349.044903	29.913	
O	-0.019250887	 1.3958758403	-0.326649351	-0.489801
C	 0.0192037201	 0.0224493789	 0.0077629261	 0.432312
C	 0.4022004919	-0.9408478631	-1.1571631328	-0.280792
C	-0.9661951627	-1.6636732851	-1.005599645	-0.227714
C	-1.3971712297	-0.639588522	 0.087131343	-0.020321
C	-1.5425932364	-1.1915987948	 1.5102033004	-0.221207
C	-0.0894543054	-1.4482945841	 1.9629925532	-0.211279
C	 0.6896805407	-0.2603331869	 1.3662492226	-0.279592
H	 0.8885672953	 1.7141646198	-0.3812821663	 0.271247
H	 0.5065510371	-0.4005612833	-2.1009161117	 0.100485
H	 1.2936313069	-1.5556484816	-0.9994749269	 0.087263
H	-1.5873251155	-1.666458777	-1.9036150162	 0.099782
H	-0.8938312956	-2.6924831903	-0.6416064631	 0.095153
H	-2.2135171257	 0.0172013373	-0.2169953024	 0.071629
H	-2.0023491898	-0.4347696424	 2.1573116102	 0.09865
H	-2.1707753864	-2.0872950975	 1.5585591934	 0.091912
H	 0.0154086914	-1.521774838	 3.0490638647	 0.095872
H	 0.2773814158	-2.3925867105	 1.5430198003	 0.100784
H	 1.766514347	-0.4460661076	 1.2848582953	 0.084632
H	 0.5469415378	 0.628896048	 1.9914277063	 0.100986
82.7136	217.612	243.8827	265.4666	363.4796	393.4875	423.7659	551.1832	586.487	619.9347	737.4416	804.8711	827.2606	845.4655	883.7751	906.3754	945.9805	953.3651	967.487	989.3516	1037.8691	1055.6378	1069.1536	1135.4763	1164.0745	1202.0635	1202.9259	1229.3584	1239.5365	1259.9977	1272.242	1278.474	1309.7027	1323.1629	1337.8645	1352.1331	1379.8562	1466.9809	1480.349	1486.397	1489.5704	1506.0454	3029.4723	3031.6215	3035.1117	3047.7955	3059.0286	3075.4978	3076.7755	3092.6179	3094.151	3103.8095	3119.7977	3797.5831
OC12CCC1CCC2	O[C@]12CC[C@H]1CCC2	
InChI=1S/C7H12O/c8-7-4-1-2-6(7)3-5-7/h6,8H,1-5H2	InChI=1S/C7H12O/c8-7-4-1-2-6(7)3-5-7/h6,8H,1-5H2/t6-,7-/m1/s1
