12
gdb 21329	6.30235	1.38227	1.14531	3.7185	59.43	-0.2718	-0.0144	0.2574	939.7352	0.085913	-373.711965	-373.70525	-373.704306	-373.744776	23.186	
N	-0.2888463069	-0.6852327095	-1.2373335305	-0.296385
C	-0.152900042	 0.1771569737	-0.4809176517	 0.266141
C	 0.0639596339	 1.2906846988	 0.4425365336	-0.457274
C	 1.4120406322	 1.9308137449	 0.258421533	 0.353957
C	 2.1073885813	 2.858919375	 0.9983032463	-0.152461
N	 3.2880731978	 3.123000302	 0.3733097543	-0.179136
N	 3.3664737429	 2.4094066804	-0.7122596352	-0.104803
N	 2.2333351606	 1.6876409846	-0.7907027443	-0.231665
H	-0.7371082434	 2.0247507808	 0.2902162872	 0.186256
H	-0.0424358689	 0.9242654407	 1.4695955844	 0.185918
H	 1.8333470331	 3.34061888	 1.9230751628	 0.131076
H	 2.0964834192	 1.0443134088	-1.5569895098	 0.298378
14.5549	118.7287	245.309	326.1302	370.7065	495.5035	610.9067	672.3971	731.0924	735.2433	844.4221	946.4161	951.096	995.9167	1066.92	1078.4335	1135.5813	1221.5505	1234.5339	1289.1054	1342.7026	1381.7112	1452.6671	1465.6314	1600.7941	2367.4218	3038.3586	3075.2938	3270.2388	3632.0767
N#CCC1=CN=NN1	N#CCc1cnn[nH]1	
InChI=1S/C4H4N4/c5-2-1-4-3-6-8-7-4/h3H,1H2,(H,6,7,8)	InChI=1S/C4H4N4/c5-2-1-4-3-6-8-7-4/h3H,1H2,(H,6,7,8)
