22
gdb 88971	3.34715	1.01358	0.89354	1.3954	83.02	-0.225	0.076	0.301	1393.736	0.192961	-404.296841	-404.287284	-404.28634	-404.331077	36.788	
C	-0.633730872	 1.0946401281	 0.1390080839	-0.31834
N	 0.0264271111	-0.2041012391	 0.2103646172	-0.086209
C	 1.431102204	-0.2448753352	-0.1815643572	-0.268203
C	 1.0459101899	-0.455991842	 1.2413277232	 0.00901
C	 1.3983454855	 0.527214122	 2.3423808154	-0.281531
C	 0.5461422414	 0.3117939357	 3.582515122	 0.427441
O	-0.8403463222	 0.4180041587	 3.3676259105	-0.467778
C	 0.9994020987	-0.6595155719	 4.6479870941	-0.317581
C	 0.9962400829	 0.8367031033	 4.9078857269	-0.310943
H	 0.0446366099	 1.9568791981	 0.2341902152	 0.100456
H	-1.1327755956	 1.1711730102	-0.8323732915	 0.119965
H	-1.3848011892	 1.1723657287	 0.9289053699	 0.131535
H	 1.7399759391	-1.0800056317	-0.8055961285	 0.111688
H	 1.9096972632	 0.7035421998	-0.4268782654	 0.104269
H	 1.0226584422	-1.4894208695	 1.5910064034	 0.087082
H	 2.4540759193	 0.3980561381	 2.6106698523	 0.101114
H	 1.2864076982	 1.5595158411	 1.9951148159	 0.105315
H	-1.1105847203	-0.3308960908	 2.8234825932	 0.292461
H	 0.2304909917	-1.2460900989	 5.1377549872	 0.115273
H	 1.9534705028	-1.1625720292	 4.5294115806	 0.109358
H	 1.9470156039	 1.355833042	 4.9638308891	 0.111273
H	 0.2234237357	 1.2253009326	 5.5605298425	 0.124343
73.1626	107.0916	131.3052	194.6838	241.735	299.526	326.3007	359.3158	383.9867	417.1882	448.5745	473.6052	537.069	733.9639	746.3964	775.4505	792.0757	891.5554	912.2036	928.3829	937.3216	968.89	1006.0283	1043.2277	1046.7139	1075.3277	1080.2571	1119.9458	1134.4104	1140.4337	1175.7217	1189.03	1210.0677	1221.9636	1284.5716	1302.6022	1313.9106	1332.9829	1395.4251	1425.2594	1452.1188	1454.7134	1473.6882	1486.6813	1501.9886	1511.115	1515.0786	2978.6136	3033.6936	3069.4697	3074.1402	3081.9767	3090.5395	3121.4929	3130.586	3138.4843	3167.6519	3217.1855	3232.4232	3790.9986
CN1CC1CC1(O)CC1	CN1C[C@H]1CC1(O)CC1	
InChI=1S/C7H13NO/c1-8-5-6(8)4-7(9)2-3-7/h6,9H,2-5H2,1H3	InChI=1S/C7H13NO/c1-8-5-6(8)4-7(9)2-3-7/h6,9H,2-5H2,1H3/t6-,8?/m1/s1
