15
gdb 20805	3.28618	1.80463	1.26059	3.3468	63.65	-0.2213	0.0002	0.2215	949.3494	0.119993	-395.987406	-395.979742	-395.978798	-396.020129	27.589	
C	-0.3061500829	 1.5917353596	-0.058030058	-0.369238
C	 0.0334567011	 0.0940340093	 0.0507863851	-0.310593
C	 0.7640765236	-0.4475042906	-1.1330982834	 0.253407
C	 2.0773867773	-0.8165341935	-1.3349196385	 0.291806
O	 3.078140122	-0.7846168572	-0.4303182316	-0.433625
N	 2.2561691789	-1.2385227693	-2.6075966447	-0.279743
N	 1.1123284605	-1.155936492	-3.2419994878	-0.129246
N	 0.2210827974	-0.6818212854	-2.3630244971	-0.227814
H	 0.6023902246	 2.1885192433	-0.1777518678	 0.134458
H	-0.9529980015	 1.7937883645	-0.9181229272	 0.113611
H	-0.8271548286	 1.934812368	 0.8407653202	 0.121035
H	 0.6632136232	-0.0766748856	 0.929146805	 0.137039
H	-0.8872752136	-0.4800450196	 0.2170279265	 0.113466
H	 3.8651882522	-1.122241239	-0.8757712825	 0.30716
H	-0.7334428142	-0.5518499625	-2.6589544683	 0.278277
36.9944	146.7555	187.0405	271.4175	305.7481	350.0872	408.1924	478.4144	563.6776	640.9541	713.9583	740.1094	755.7538	788.0075	969.6814	1008.4648	1062.6258	1082.2763	1120.2287	1156.8945	1237.2201	1266.2823	1314.2559	1358.0758	1372.9413	1397.8794	1413.4416	1482.4563	1496.9257	1504.2468	1532.4367	1681.1043	3024.9412	3038.4242	3083.1541	3109.5549	3120.2686	3652.1322	3798.0208
CCC1=C(O)N=NN1	CCc1c(O)nn[nH]1	
InChI=1S/C4H7N3O/c1-2-3-4(8)6-7-5-3/h2H2,1H3,(H2,5,6,7,8)	InChI=1S/C4H7N3O/c1-2-3-4(8)6-7-5-3/h2H2,1H3,(H2,5,6,7,8)
