19
gdb 115685	2.27944	1.3235	1.03126	5.5087	72.06	-0.2289	0.0131	0.2419	1230.2673	0.160382	-456.34284	-456.333851	-456.332907	-456.377086	32.821	
C	 0.1454337206	 1.4691159796	 0.1524588848	-0.322891
N	-0.2460649503	 0.1409829935	-0.2972863568	-0.270718
C	 0.6320099721	-0.4390398003	-1.278526908	 0.046627
C	 2.0162090851	-1.019863694	-0.8236750813	-0.196908
N	 1.4508971606	-2.3905817065	-0.9243046622	-0.336262
H	 2.032418886	-3.0795445874	-1.388248343	 0.234457
H	 0.039985649	-3.0349181367	 0.2195197566	 0.298642
C	 0.2750755012	-1.9093155016	-1.691903638	-0.17444
C	-1.0510638936	-2.4609558907	-1.1704843703	 0.440212
O	-0.9277763983	-3.0292053288	 0.0446974544	-0.379124
O	-2.0919931637	-2.3773079193	-1.7597557147	-0.333057
H	 1.1562667215	 1.5267302973	 0.592890707	 0.09762
H	 0.113183868	 2.1634055591	-0.6949838997	 0.126984
H	-0.5700815957	 1.8225298618	 0.8995883881	 0.129604
H	-0.3796789295	-0.4833728171	 0.4908937046	 0.225763
H	 0.700974813	 0.2502053838	-2.123461162	 0.096372
H	 2.8242901303	-0.8188687555	-1.5370630924	 0.104759
H	 2.356063005	-0.7531382304	 0.1826588836	 0.109877
H	 0.3169852586	-2.0597307568	-2.7744715805	 0.102483
78.7892	110.6688	117.4074	139.1394	210.1244	263.1719	309.0582	393.6558	452.7872	479.7729	627.251	678.2532	721.9182	772.1164	819.7688	851.3283	880.7403	955.3196	971.3988	982.2187	1024.2857	1047.2998	1060.5705	1137.5903	1153.4948	1162.3698	1184.7073	1220.7499	1240.1935	1271.7311	1301.8607	1336.4531	1366.0724	1373.2738	1426.9572	1460.3302	1489.6015	1506.5841	1512.046	1528.3317	1880.9188	2951.1481	3023.3851	3057.5688	3067.4459	3073.8809	3085.8777	3111.6081	3461.3492	3530.4671	3536.4722
CNC1C[NH2+]C1C([O-])=O	CN[C@H]1CN[C@H]1C(=O)O	
InChI=1S/C5H10N2O2/c1-6-3-2-7-4(3)5(8)9/h3-4,6-7H,2H2,1H3,(H,8,9)	InChI=1S/C5H10N2O2/c1-6-3-2-7-4(3)5(8)9/h3-4,6-7H,2H2,1H3,(H,8,9)/t3-,4+/m0/s1
