16
gdb 50945	3.13835	0.90655	0.7366	2.9667	78.96	-0.2704	0.0116	0.282	1488.4798	0.120262	-400.667989	-400.658039	-400.657095	-400.703848	34.793	
N	-0.0403832645	 1.4265750492	-1.2550586353	-0.436073
C	-0.0284063658	 0.2833850189	-0.7248929492	 0.128786
O	-1.1626610808	-0.2064104932	-0.1732029258	-0.185306
C	-1.0751075978	-1.5107592757	 0.4188192352	-0.063312
C	-2.3932027196	-1.6836657103	 1.2036586307	-0.360673
C	-2.4148398795	-2.8976031793	 2.0052993105	 0.294256
C	-2.4147250877	-3.895767767	 2.6733351603	-0.440698
C	-0.8759185454	-2.5506430207	-0.5895207778	 0.35617
C	-0.7115333882	-3.3921958058	-1.4305652078	-0.470554
H	 0.8848131427	 1.6531537665	-1.6140764846	 0.232423
H	 0.8282474727	-0.3979920037	-0.6494363843	 0.099811
H	-0.2399801006	-1.5308055603	 1.1321343482	 0.124844
H	-2.5079188756	-0.7993002898	 1.8399211423	 0.150961
H	-3.2224287597	-1.6737232482	 0.4883746909	 0.155917
H	-2.425618576	-4.7802131766	 3.2609101586	 0.202162
H	-0.5679059939	-4.139927484	-2.1715728522	 0.211285
53.892	81.4839	85.4703	109.1417	167.2125	235.5588	237.6614	349.8264	377.1962	439.7269	506.1882	565.9122	629.9415	644.7207	661.0599	681.8901	706.2955	818.3811	830.2444	958.1668	999.389	1027.155	1040.7455	1093.1129	1114.0437	1206.8128	1279.519	1311.9155	1353.857	1365.7066	1428.3246	1471.2367	1748.7755	2239.7173	2246.5575	3015.2043	3044.351	3047.5148	3089.3243	3501.0109	3506.4597	3518.3445
N=COC(CC#C)C#C	[NH][CH]O[C@@H](CC#C)C#C	
InChI=1S/C7H7NO/c1-3-5-7(4-2)9-6-8/h1-2,6-8H,5H2	InChI=1S/C7H7NO/c1-3-5-7(4-2)9-6-8/h1-2,6-8H,5H2/t7-/m1/s1
