23
gdb 80544	2.48251	1.43426	1.22593	1.3248	85.46	-0.2561	0.0799	0.3359	1171.456	0.206785	-388.282846	-388.273886	-388.272942	-388.315627	35.832	
C	-0.3241439176	 1.6433021916	 0.7299068384	-0.434244
C	-0.0892461029	 0.1570554818	 0.4918048386	 0.053305
C	 0.9428961035	-0.3721932941	-0.5529972648	-0.041955
C	 2.2763409098	 0.2174796579	-0.0516636877	-0.272474
C	 2.1329072961	-0.111093132	 1.47789737	 0.138308
O	 2.1660618517	 1.0099930338	 2.3483267437	-0.441147
C	 0.7391935106	-0.7562705816	 1.4556535231	-0.060238
C	 0.9170549197	-1.7250814861	 0.2356365674	 0.050884
C	-0.1881257538	-2.7313510638	-0.0611254186	-0.439885
H	 0.5903947917	 2.1870771918	 0.9637845822	 0.128972
H	-0.7900973622	 2.0970012432	-0.1531902026	 0.100798
H	-1.0098268717	 1.7895382716	 1.5721098244	 0.111433
H	-1.0576807377	-0.3133921216	 0.3080168088	 0.067724
H	 0.745230054	-0.3272982632	-1.6262101255	 0.049686
H	 3.1438361184	-0.2688331467	-0.5085862676	 0.089298
H	 2.3625780375	 1.295382476	-0.215392946	 0.09637
H	 2.8875147941	-0.8440767225	 1.7979785156	 0.062854
H	 3.0510319833	 1.3861723599	 2.3124480767	 0.279246
H	 0.3469090042	-1.0962835664	 2.4154403397	 0.055783
H	 1.8766386441	-2.2577339098	 0.2293900235	 0.055538
H	-1.1891724655	-2.2926572879	-0.0642346133	 0.120581
H	-0.0291025018	-3.1941344519	-1.0415933826	 0.114139
H	-0.1844232456	-3.5345587999	 0.6840998468	 0.115021
164.0795	181.2135	216.7998	227.295	239.0013	258.3392	270.6864	315.969	398.6397	466.2509	477.1196	597.7169	688.3394	728.1919	788.3379	800.511	843.0674	879.0769	939.6119	952.5787	968.3494	1007.1937	1037.6455	1039.3916	1061.2429	1076.8073	1093.1552	1110.2941	1133.8587	1168.1375	1191.1711	1196.7142	1218.5548	1234.4664	1261.9846	1274.7027	1289.3079	1320.8674	1346.0892	1398.4104	1410.0146	1412.5496	1426.1212	1436.4063	1487.3196	1490.7096	1498.2755	1502.1339	1511.8802	2985.2351	3014.3789	3029.4774	3032.0663	3049.1002	3076.0726	3083.1958	3088.0059	3089.8818	3095.4147	3104.7142	3113.6617	3152.2709	3818.2129
CC1C2CC(O)C1C2C	C[C@H]1[C@H]2C[C@@H](O)[C@@H]1[C@H]2C	
InChI=1S/C8H14O/c1-4-6-3-7(9)8(4)5(6)2/h4-9H,3H2,1-2H3	InChI=1S/C8H14O/c1-4-6-3-7(9)8(4)5(6)2/h4-9H,3H2,1-2H3/t4-,5-,6-,7+,8+/m0/s1
