22
gdb 117783	1.85521	1.17586	1.06973	3.2346	83.16	-0.2765	0.0254	0.3019	1373.0938	0.190858	-404.369211	-404.358045	-404.357101	-404.405552	39.789	
C	 0.1890016614	 1.5301778944	-0.0362982838	-0.383587
C	-0.0482003397	 0.0298796867	-0.0153940486	-0.061483
O	 0.605304191	-0.5246062466	-1.1547292716	-0.273721
C	 0.6880190098	-1.9368508833	-1.2452554031	 0.221048
C	-0.6978371335	-2.6042068855	-1.324184091	-0.428459
C	 1.5014211893	-2.2286849541	-2.5248099288	-0.194895
C	 2.8975526103	-1.6051144611	-2.5403778639	-0.400166
C	 1.4159743401	-2.4807712048	-0.0651555905	 0.269016
N	 1.9745969873	-2.9025616726	 0.8548065646	-0.354792
H	 1.2581357485	 1.7513842564	 0.0218287222	 0.132098
H	-0.2044676928	 1.9698999859	-0.9571998471	 0.127261
H	-0.3113990668	 2.00193184	 0.8144838835	 0.120188
H	 0.3566880236	-0.4136995987	 0.9050945689	 0.117203
H	-1.1251856117	-0.1871678454	-0.0466649948	 0.096585
H	-1.255088188	-2.1618727697	-2.1545695618	 0.131388
H	-0.5923177071	-3.67792359	-1.4991318044	 0.135936
H	-1.2685556377	-2.4694678154	-0.4030572953	 0.135795
H	 1.5651604223	-3.3153153612	-2.6453851943	 0.111216
H	 0.9051226548	-1.8440688537	-3.3596100579	 0.110736
H	 2.837940736	-0.5209292269	-2.4248378842	 0.136478
H	 3.5181048686	-2.0014303741	-1.7307441422	 0.13725
H	 3.3995375843	-1.8250446202	-3.4868236558	 0.114906
59.5331	98.9057	106.7134	136.5062	170.8301	194.4377	231.2064	242.3305	260.4135	272.1638	345.1341	404.355	424.2809	446.9444	604.1444	614.1809	684.844	782.86	826.026	871.6916	897.4536	963.6825	1008.2068	1042.7566	1061.3904	1099.6774	1128.7292	1162.095	1186.3175	1197.5017	1228.183	1304.9998	1319.768	1366.727	1400.5252	1405.2419	1410.9921	1427.737	1470.2115	1483.7502	1485.4009	1495.089	1498.6431	1501.4425	1509.7771	1528.3371	2345.9946	2996.8174	3033.8928	3042.3387	3046.581	3048.3339	3052.7756	3084.8668	3114.6388	3120.9452	3125.5838	3129.9345	3135.7145	3136.5677
CCOC(C)(CC)C#N	CCO[C@@](C)(CC)C#N	
InChI=1S/C7H13NO/c1-4-7(3,6-8)9-5-2/h4-5H2,1-3H3	InChI=1S/C7H13NO/c1-4-7(3,6-8)9-5-2/h4-5H2,1-3H3/t7-/m0/s1
