21
gdb 119178	2.33799	1.08625	0.84514	3.276	78.74	-0.2371	0.0657	0.3029	1418.8031	0.182983	-420.334804	-420.325335	-420.324391	-420.369477	35.312	
O	-0.0869618158	 1.4859303512	 0.1681889555	-0.417861
C	 0.0083843116	 0.1217986431	-0.2083279989	-0.099909
C	-1.2995092754	-0.542826945	 0.2110008163	-0.278971
C	-1.3820651389	-2.0553413855	 0.0583529465	 0.30091
C	-0.3361671195	-2.8142258447	-0.6892676372	-0.280199
N	-0.4153051881	-2.9106010324	 0.7786382141	-0.343187
C	-2.7642858756	-2.6600752148	 0.0647855692	-0.005409
C	-3.9616684524	-1.9589405226	 0.5906191647	-0.257912
N	-3.8194443898	-2.207670016	-0.8567304661	-0.330975
H	 0.7099213586	 1.9369582433	-0.1255267145	 0.28873
H	 0.1547600069	 0.0175493748	-1.2937637432	 0.096737
H	 0.8670052237	-0.3626135687	 0.2866198293	 0.082874
H	-1.4853145147	-0.2789354165	 1.2595242832	 0.124292
H	-2.1011895882	-0.0660718812	-0.3661471254	 0.106219
H	-0.6115002528	-3.7210762556	-1.2212959628	 0.120455
H	 0.4936356808	-2.2733016876	-1.133737308	 0.110094
H	 0.3103954582	-2.3383259115	 1.2041416994	 0.227418
H	-2.7257376972	-3.7413068737	 0.1739933738	 0.097887
H	-4.7488623439	-2.5283806626	 1.0765918836	 0.118894
H	-3.8514387497	-0.9433476958	 0.9589262581	 0.113151
H	-3.5310946581	-1.3514134881	-1.3256651575	 0.226762
74.7168	99.9323	112.0988	160.8963	250.3758	265.3265	274.8754	348.4055	366.3621	415.0655	484.3844	522.2478	718.4338	787.9379	825.5287	856.6265	858.3098	923.2842	954.306	959.6015	978.912	992.755	1032.3562	1051.769	1079.6387	1102.6813	1123.4942	1141.4749	1160.4887	1186.5719	1235.053	1240.493	1251.4057	1266.7346	1289.9313	1306.1055	1323.7389	1337.179	1388.1277	1434.5982	1465.7097	1489.233	1513.8523	1517.4779	1532.0517	2954.9792	2998.889	3026.1869	3064.1398	3113.2338	3116.4076	3137.741	3196.2937	3199.3503	3487.3902	3493.4401	3831.6018
OCCC1(CN1)C1CN1	OCC[C@]1(CN1)[C@H]1CN1	
InChI=1S/C6H12N2O/c9-2-1-6(4-8-6)5-3-7-5/h5,7-9H,1-4H2	InChI=1S/C6H12N2O/c9-2-1-6(4-8-6)5-3-7-5/h5,7-9H,1-4H2/t5-,6+/m1/s1
