15
gdb 26595	2.39766	1.85241	1.05184	3.5509	72.86	-0.2172	-0.0447	0.1725	1070.4297	0.112775	-457.836706	-457.828787	-457.827843	-457.869582	29.432	
C	-0.005429609	 1.5557543682	 0.0267461583	-0.498811
C	-0.0143079028	 0.0534035768	 0.0188891197	 0.183121
C	-1.1629244705	-0.669956855	-0.0823066088	 0.130314
O	-2.3910866956	-0.1196351357	-0.1842229937	-0.426425
C	-1.1624465374	-2.1271831866	-0.0891824868	 0.381654
O	-2.181094263	-2.7813126546	-0.1789745462	-0.389887
O	 0.0502276165	-2.7508250027	 0.0110546989	-0.207783
C	 1.1988751778	-2.0345630498	 0.1122163786	 0.05323
C	 1.2119832725	-0.6909465875	 0.1197214031	-0.225736
H	 0.5935764656	 1.9447482326	-0.8047645476	 0.138538
H	-1.0161306524	 1.9558613264	-0.0575136945	 0.155394
H	 0.4439171751	 1.9364819316	 0.951228917	 0.138541
H	-3.0018583699	-0.8756067635	-0.2398607493	 0.310593
H	 2.0642066686	-2.6787590433	 0.1827960367	 0.1438
H	 2.1589197647	-0.171757357	 0.2027801446	 0.113458
57.0862	129.227	193.359	281.5546	301.1329	334.0287	484.1519	515.9759	536.1081	566.6134	583.704	601.566	702.819	780.963	785.6009	843.8273	909.5	969.9908	1045.1506	1056.077	1085.9911	1161.0061	1252.8109	1285.1218	1306.9764	1400.2671	1421.8928	1455.4181	1488.2813	1488.5959	1614.2493	1717.5382	1780.5287	3031.9918	3081.4767	3149.5857	3206.0432	3239.8153	3656.5925
CC1=C(O)C(=O)OC=C1	Cc1c(O)c(=O)occ1	
InChI=1S/C6H6O3/c1-4-2-3-9-6(8)5(4)7/h2-3,7H,1H3	InChI=1S/C6H6O3/c1-4-2-3-9-6(8)5(4)7/h2-3,7H,1H3
