29
gdb 101671	2.74388	0.6878	0.64235	0.0672	100.12	-0.2931	0.0805	0.3736	2011.0387	0.273031	-354.779245	-354.766812	-354.765868	-354.817735	45.279	
C	-2.1836879991	 1.833012332	 0.8532177709	-0.38937
C	-2.1491083616	 0.3123400411	 1.0435171568	-0.159296
C	-1.4038218139	-0.4632866426	-0.0599196574	 0.026902
C	 0.0763608256	-0.0586648303	-0.1442213086	-0.394488
C	-1.505467255	-1.9899466109	 0.1384579927	-0.177284
C	-2.9076527353	-2.6313845329	 0.0993416749	 0.02987
C	-3.6085864529	-2.3953649598	-1.2465994387	-0.38956
C	-2.7930071913	-4.1334806538	 0.4299018818	-0.162651
C	-4.1271669111	-4.8575421539	 0.6377961302	-0.392964
H	-2.7964643788	 2.3086649633	 1.625703844	 0.109466
H	-1.1863704022	 2.2792679787	 0.9079423967	 0.117352
H	-2.6134020448	 2.0998774966	-0.1193273077	 0.11126
H	-1.6910150658	 0.0741886586	 2.0142043165	 0.088718
H	-3.1819305837	-0.0496264176	 1.1013482221	 0.095796
H	-1.8692017319	-0.2045223396	-1.0214769005	 0.069533
H	 0.5925274089	-0.2633692733	 0.8019216948	 0.108684
H	 0.5916762337	-0.6216984866	-0.929526204	 0.107952
H	 0.1998518017	 1.0047522911	-0.367295718	 0.111342
H	-0.8882407973	-2.4781179921	-0.6296454708	 0.083007
H	-1.0350143717	-2.2404654103	 1.1003939004	 0.083424
H	-3.5234146745	-2.1758322102	 0.8877151314	 0.070326
H	-3.7481331447	-1.3300280226	-1.4517424833	 0.113658
H	-3.0191257932	-2.8169686919	-2.0704491242	 0.108564
H	-4.5981032127	-2.860253603	-1.2740026834	 0.111688
H	-2.2259107769	-4.6325245395	-0.3687045768	 0.089682
H	-2.188730982	-4.2423326462	 1.3397339179	 0.089379
H	-4.7184593782	-4.3788281397	 1.4268880497	 0.111659
H	-4.7365332414	-4.8700346819	-0.2709878957	 0.117023
H	-3.9632391	-5.8986458928	 0.9338586384	 0.110325
34.5264	67.715	74.469	113.1558	143.2287	209.5746	211.5492	227.6188	249.5057	262.905	296.0225	315.4904	342.1056	414.1135	420.4558	503.984	511.9841	766.0663	774.2814	789.9868	827.0148	881.5189	902.0013	950.3958	972.8412	979.476	989.6871	1010.5619	1043.0606	1054.3523	1069.312	1107.0579	1166.5083	1174.3831	1182.6046	1199.3946	1255.5333	1290.9127	1303.8979	1313.2906	1342.1614	1350.206	1376.9575	1383.4349	1389.1728	1398.6799	1407.8662	1412.4273	1415.2309	1417.6877	1474.5807	1482.2204	1487.5061	1495.1583	1496.2632	1499.9979	1500.994	1505.7294	1508.0288	1512.4663	1513.646	2992.4909	2998.6764	3002.6548	3010.6914	3012.1998	3026.0671	3028.4511	3030.5224	3031.6907	3033.8349	3045.946	3056.7075	3089.4789	3094.5349	3095.1212	3095.8995	3102.1197	3103.5077	3111.1057	3111.9775
CCC(C)CC(C)CC	CC[C@@H](C)C[C@@H](C)CC	
InChI=1S/C9H20/c1-5-8(3)7-9(4)6-2/h8-9H,5-7H2,1-4H3	InChI=1S/C9H20/c1-5-8(3)7-9(4)6-2/h8-9H,5-7H2,1-4H3/t8-,9+
