18
gdb 38124	2.50208	2.24715	1.61059	1.9672	75.27	-0.2359	-0.0099	0.2261	879.9944	0.151465	-401.89532	-401.888964	-401.88802	-401.925548	27.378	
C	-0.0776988212	 1.514648983	 0.0922586768	-0.120999
O	 1.3186771655	 1.9058536936	-0.0043849696	-0.297549
C	 2.1691224265	 0.7388210646	 0.2146994656	 0.077967
C	 1.2222613186	-0.2575946632	 0.8929851402	-0.285372
C	 0.0768041618	 0.0204895454	-0.0783354673	 0.274908
N	-0.7569924155	-1.0207559846	-0.6720927008	-0.445099
C	 0.3275638775	-0.3863870979	-1.4805666633	-0.046715
C	 1.760149258	-0.6937871509	-1.7738764224	-0.152385
C	 2.6436319441	 0.0098853027	-1.0517155081	-0.03314
H	-0.4865573622	 1.8275788474	 1.0627509174	 0.09157
H	-0.6367245401	 2.0004856935	-0.7112428239	 0.11302
H	 3.0164059702	 1.0852811473	 0.8099242098	 0.074927
H	 1.5952963254	-1.2804349637	 0.8902508814	 0.103973
H	 0.9521860339	 0.035209549	 1.9132878862	 0.101922
H	-0.4762404542	-1.91970355	-0.2847136505	 0.23559
H	-0.1244231542	 0.2436173634	-2.2464120515	 0.113614
H	 2.0516433911	-1.3122503052	-2.6179913432	 0.097475
H	 3.7094746047	-0.0225385847	-1.2604133567	 0.096294
233.5339	296.5796	352.8396	388.6952	466.2516	489.5532	514.6996	612.0436	649.7559	727.8562	765.9762	837.4379	845.4868	873.702	904.0243	914.2062	956.1924	975.7224	987.3213	1005.1137	1026.7321	1057.5371	1078.5726	1119.9511	1142.8255	1158.2858	1174.4321	1193.9682	1252.7442	1282.9505	1318.3824	1335.2868	1356.8362	1365.2769	1381.8571	1456.6977	1495.8375	1529.3761	1650.645	3006.0126	3051.0446	3088.7566	3094.7861	3103.4579	3141.4845	3156.448	3179.4962	3488.604
C1OC2CC11NC1C=C2	C1O[C@H]2C[C@]31N[C@@H]3[CH][CH]2	
InChI=1S/C7H9NO/c1-2-6-7(8-6)3-5(1)9-4-7/h1-2,5-6,8H,3-4H2	InChI=1S/C7H9NO/c1-2-6-7(8-6)3-5(1)9-4-7/h1-2,5-6,8H,3-4H2/t5-,6-,7-/m1/s1
