18
gdb 87904	2.52314	1.51924	1.22746	2.8307	72.27	-0.2351	0.024	0.2591	1075.0974	0.147102	-439.078708	-439.070233	-439.069289	-439.111995	32.122	
C	-0.2778286879	 1.4552470066	 0.0361085065	-0.38869
C	 0.0570274366	-0.0331532732	-0.0409133157	-0.054558
N	 1.0443542696	-0.2948664039	-1.1127612194	-0.270653
C	 2.0306045391	-0.861004651	-0.5588128717	 0.098867
O	 2.0078492328	-1.1102219848	 0.7759504122	-0.253164
C	 0.7290463983	-0.6326431076	 1.2084006643	 0.397154
C	 0.6431266712	-0.1216262273	 2.617613017	-0.398165
C	 0.0182256497	-1.453507742	 2.2306794739	 0.027158
O	-1.3648272398	-1.552016179	 2.0715524497	-0.418008
H	 0.6040401417	 2.0435018341	 0.3079877071	 0.118619
H	-0.6348259818	 1.8012190322	-0.9372970004	 0.130514
H	-1.0632652713	 1.6394763999	 0.775390229	 0.114832
H	-0.8588804149	-0.5892505462	-0.2678877371	 0.112501
H	 2.939470038	-1.1830855994	-1.054690735	 0.138704
H	 1.5461656536	-0.1466733283	 3.2177465317	 0.1273
H	-0.0218764071	 0.7140856664	 2.8082473336	 0.123763
H	 0.5234117158	-2.3554371417	 2.5751802178	 0.100282
H	-1.7732627535	-1.5140592949	 2.9427737665	 0.293542
48.5788	154.4071	212.5391	239.8322	251.8563	303.1172	336.9372	420.4621	450.1795	518.4597	563.3018	593.4587	748.0135	832.6879	849.4117	859.7986	926.8269	951.8582	961.6878	982.236	1030.4216	1066.2048	1081.8159	1099.8363	1125.0749	1151.0154	1169.3352	1211.2645	1274.9105	1291.7227	1334.9102	1339.9818	1371.0918	1401.8677	1415.8335	1483.9328	1491.0817	1497.4351	1707.4105	3040.0286	3049.5484	3109.574	3113.1532	3124.1545	3132.8421	3216.5217	3226.8559	3806.7369
CC1N=COC11CC1O	C[C@H]1N=CO[C@]21C[C@H]2O	
InChI=1S/C6H9NO2/c1-4-6(2-5(6)8)9-3-7-4/h3-5,8H,2H2,1H3	InChI=1S/C6H9NO2/c1-4-6(2-5(6)8)9-3-7-4/h3-5,8H,2H2,1H3/t4-,5-,6+/m1/s1
