17
gdb 46799	2.9023	1.67234	1.2995	4.187	68.04	-0.2516	0.0024	0.254	981.3938	0.13734	-458.968195	-458.961043	-458.960098	-458.999904	28.184	
O	-0.0188651551	 0.2460188332	 0.977751381	-0.307311
C	-0.01418648	 1.1546270249	 0.1921334206	 0.365149
C	-1.3400617502	 1.8537382319	-0.1707827143	-0.211377
O	-1.5763377553	 2.3218913548	-1.4787013026	-0.261181
C	-0.595771445	 3.1405383661	-2.089318932	 0.122737
C	 0.610993306	 2.3038415867	-2.5969537278	-0.24945
C	 1.3226588029	 2.6322418124	-1.2623486391	 0.121332
C	 0.3798548128	 3.8522145619	-1.1110182346	-0.289671
O	 1.1747382416	 1.6105105699	-0.2699343181	-0.234003
H	-2.1146897895	 1.1131454331	 0.0294246148	 0.152283
H	-1.4639443315	 2.6598341825	 0.5701697403	 0.126308
H	-1.1298117693	 3.756751557	-2.8152138608	 0.090666
H	 0.4191830157	 1.250711618	-2.8116937909	 0.122322
H	 1.1160155801	 2.7700141619	-3.4471125082	 0.112045
H	 2.3960111936	 2.8192802013	-1.2820453131	 0.100959
H	 0.8221355856	 4.731291246	-1.5862703144	 0.120274
H	 0.0406316176	 4.1318524884	-0.1126437108	 0.118919
81.0822	170.4999	325.9986	346.0583	358.2575	441.1062	452.7585	493.4937	556.8855	661.6652	763.0602	772.9498	826.3931	883.1174	905.9021	919.0328	965.2115	997.2377	1014.6627	1074.2539	1087.8033	1110.0289	1162.591	1168.7947	1223.8678	1246.9947	1252.4186	1275.4378	1291.8821	1296.382	1372.4256	1395.4921	1408.9531	1453.0468	1472.8363	1490.4547	1831.2183	2980.1718	3067.2061	3076.0733	3094.4345	3117.3771	3132.0746	3133.1834	3134.7105
O=C1COC2CC(C2)O1	O=C1CO[C@@H]2C[C@@H](C2)O1	
InChI=1S/C6H8O3/c7-6-3-8-4-1-5(2-4)9-6/h4-5H,1-3H2	InChI=1S/C6H8O3/c7-6-3-8-4-1-5(2-4)9-6/h4-5H,1-3H2/t4-,5+
