18
gdb 88896	6.71527	0.56654	0.54239	2.1551	95.82	-0.237	-0.0084	0.2286	2005.5891	0.145518	-364.735801	-364.726005	-364.725061	-364.771421	35.386	
C	 0.1799635043	 1.5117877968	-0.2999208731	-0.393153
C	 0.0375913337	 0.0456770453	 0.0337768001	-0.00372
N	 1.2725497722	-0.7495122298	 0.1436754554	-0.327609
C	 0.427681517	-0.5747920141	 1.3302400007	-0.002808
C	 1.0294707049	 0.2029680519	 2.4951004304	-0.393524
C	 1.7517166947	-0.6613614022	 3.4179499676	 0.363308
C	 2.3365494758	-1.400144797	 4.1775526241	-0.228371
C	 2.9939622685	-2.2317090495	 5.0308441467	 0.29227
C	 3.5762013509	-2.9702317748	 5.7886259785	-0.554879
H	 1.0572520146	 1.9510643248	 0.1798668399	 0.127192
H	 0.2953451747	 1.6455963437	-1.3807284093	 0.123074
H	-0.7074323867	 2.0721513199	 0.0142605941	 0.117463
H	-0.8092744971	-0.434451558	-0.4568654579	 0.083781
H	 1.1555903625	-1.676319177	-0.2549886286	 0.234006
H	-0.1694068588	-1.4268526847	 1.6505781895	 0.093897
H	 1.7072004048	 0.9707931761	 2.1078497951	 0.145371
H	 0.2298598024	 0.7259709574	 3.0376847441	 0.135484
H	 4.0889470318	-3.6195664489	 6.4535644428	 0.188218
34.6243	63.4428	148.1644	158.9151	190.5337	217.676	329.4124	347.7203	415.7553	462.9883	485.5833	526.3377	531.0422	587.3012	591.3999	735.345	772.2501	838.8458	872.9745	930.5997	982.7493	1023.3191	1033.3902	1088.5655	1151.6523	1176.5812	1193.0647	1247.093	1266.2046	1276.1231	1316.6183	1399.7057	1422.0257	1450.5668	1468.0099	1490.6503	1502.809	2181.8787	2364.6025	3017.1947	3036.5731	3074.7851	3096.1878	3098.3402	3122.6751	3130.8862	3506.7865	3514.8797
CC1NC1CC#CC#C	C[C@H]1N[C@H]1CC#CC#C	
InChI=1S/C8H9N/c1-3-4-5-6-8-7(2)9-8/h1,7-9H,6H2,2H3	InChI=1S/C8H9N/c1-3-4-5-6-8-7(2)9-8/h1,7-9H,6H2,2H3/t7-,8+/m1/s1
