18
gdb 15942	3.62976	1.79026	1.47135	1.499	67.2	-0.2438	0.0556	0.2994	916.5693	0.153426	-384.900451	-384.892777	-384.891832	-384.932545	28.593	
C	-0.0150381114	 1.5656392302	 0.006973917	-0.38391
C	-0.1037122641	 0.0338267906	-0.0166626005	-0.278897
C	 0.6712151466	-0.5577714926	-1.1654490128	 0.417728
C	 0.1663524988	-0.440568527	-2.6196734882	-0.120956
O	 0.4744003596	-1.8360883116	-2.8748997067	-0.293856
C	 0.9170327074	-2.0432166039	-1.5238109951	-0.003224
C	 2.4014994745	-1.7181939803	-1.3177145042	-0.099252
O	 2.0988547793	-0.3191596453	-1.078397587	-0.333922
H	 1.0284287543	 1.8865348069	 0.067677405	 0.142239
H	-0.4508981755	 2.0046697483	-0.897068701	 0.118186
H	-0.5510326607	 1.9750131496	 0.8677595377	 0.115415
H	 0.2908988228	-0.3755893738	 0.920553064	 0.105545
H	-1.1496862793	-0.2878576442	-0.0926461805	 0.102844
H	-0.908631906	-0.2472185325	-2.7305244319	 0.098998
H	 0.7387931432	 0.2430425154	-3.2550890848	 0.112378
H	 0.4775616658	-2.9266087618	-1.0562911802	 0.085555
H	 2.8625659475	-2.180471466	-0.435308137	 0.102257
H	 3.035890347	-1.8721157819	-2.1968942337	 0.112874
84.4653	142.3751	168.9076	221.5738	312.7472	355.8417	401.284	439.1844	648.5269	708.3935	783.5072	839.4328	883.5295	915.5354	959.5917	980.3851	996.206	1000.6302	1023.8919	1049.987	1079.0717	1136.2776	1145.3689	1165.4736	1189.3777	1194.14	1266.3325	1294.4125	1318.6895	1339.6675	1357.2133	1396.4023	1409.2567	1476.0723	1498.8389	1503.3751	1505.1603	1508.9181	3012.2177	3015.1211	3030.1044	3039.3978	3066.8897	3078.9354	3080.1285	3093.1164	3106.6568	3123.4731
CCC12COC1CO2	CC[C@]12CO[C@H]1CO2	
InChI=1S/C6H10O2/c1-2-6-4-7-5(6)3-8-6/h5H,2-4H2,1H3	InChI=1S/C6H10O2/c1-2-6-4-7-5(6)3-8-6/h5H,2-4H2,1H3/t5-,6-/m0/s1
