20
gdb 112457	3.42867	1.03284	0.82879	3.0681	82.61	-0.2163	-0.0032	0.2131	1402.7828	0.172249	-403.207952	-403.199121	-403.198177	-403.241686	33.484	
C	-0.0132383049	 1.5687581424	 0.162163328	-0.394139
C	-0.0062961048	 0.0452940731	 0.0062288497	-0.178663
C	 0.6691566977	-0.4554445092	-1.2838388492	-0.039755
C	 0.8534562177	-1.9848996687	-1.2461504437	-0.33502
C	 1.3236365434	-2.5999649482	-2.558185588	 0.388714
O	 2.0368677577	-3.5784625122	-2.6369353708	-0.361055
N	 0.8105138527	-1.9812540481	-3.6797342798	-0.327792
C	 0.0326674951	-0.819031688	-3.6429802447	 0.001981
C	-0.078457864	-0.0755925094	-2.5410567261	-0.106791
H	 1.0061117497	 1.9703252838	 0.1539931471	 0.11782
H	-0.5690402012	 2.0626323219	-0.6412302178	 0.119636
H	-0.4784977326	 1.8614808874	 1.1083429466	 0.116556
H	 0.5159809811	-0.3983505395	 0.8631145727	 0.097925
H	-1.0343017131	-0.338654461	 0.0404318208	 0.097281
H	 1.6704907027	 0.006129965	-1.3274027001	 0.087813
H	 1.5545173237	-2.2938222684	-0.4680669024	 0.127312
H	-0.1141131371	-2.4549842301	-1.015957304	 0.125952
H	 1.0305617976	-2.4204294887	-4.5605792772	 0.253553
H	-0.4602481093	-0.5742336114	-4.5766711527	 0.114867
H	-0.6909034722	 0.8170015294	-2.5628453185	 0.093807
79.3967	111.1549	133.9462	192.7681	239.9657	336.4514	342.551	431.7207	464.7788	539.8164	550.3919	562.4071	659.4381	724.8695	751.6049	792.1807	845.0641	927.5116	934.1556	941.2068	988.7391	1033.8234	1071.5793	1094.7573	1125.3146	1146.4419	1176.2002	1233.0764	1270.9145	1289.4278	1309.8075	1347.8726	1366.7681	1378.4101	1414.7374	1427.5652	1455.9654	1465.3618	1486.5811	1501.6054	1505.9832	1718.4174	1805.5494	2953.9872	3012.7764	3019.5373	3034.5801	3053.3085	3101.5083	3105.6526	3112.9302	3192.7848	3215.0715	3630.2803
CCC1CC(=O)NC=C1	CC[C@H]1CC(=O)NC=C1	
InChI=1S/C7H11NO/c1-2-6-3-4-8-7(9)5-6/h3-4,6H,2,5H2,1H3,(H,8,9)	InChI=1S/C7H11NO/c1-2-6-3-4-8-7(9)5-6/h3-4,6H,2,5H2,1H3,(H,8,9)/t6-/m1/s1
