21
gdb 86560	4.90774	0.8039	0.74277	1.2418	78.14	-0.2448	0.0693	0.3141	1534.2722	0.18258	-424.185421	-424.176364	-424.17542	-424.220611	33.281	
O	 0.6904102509	 0.5396650457	-0.7534061612	-0.432225
C	-0.064482933	-0.2704233059	 0.1088378513	 0.184053
C	 0.058144405	-0.0984473124	 1.6475543713	-0.286232
C	-1.4736281405	-0.3710621975	 1.7598172867	-0.010856
C	-1.5975598247	-0.0570290484	 0.2369013185	-0.286232
C	-1.8328559464	-1.7986042392	 2.1395333061	-0.019359
C	-1.7615027929	-2.1526414556	 3.6442348924	-0.087974
O	-3.1824287003	-2.3887398774	 3.7062117647	-0.272264
C	-3.3394835119	-2.1131675013	 2.2997950831	-0.087974
H	 0.5188709925	 1.4596102481	-0.5250515408	 0.27566
H	 0.1649293208	-1.2970480815	-0.1905696422	 0.094099
H	 0.7433366981	-0.758959968	 2.1860135815	 0.101357
H	 0.3008997198	 0.9383735985	 1.9044437093	 0.09226
H	-2.0158892719	 0.3163581772	 2.4164607105	 0.073185
H	-1.8595040479	 0.992416997	 0.0637886149	 0.09226
H	-2.2566650402	-0.6839138517	-0.3699755469	 0.101357
H	-1.3063169794	-2.5134803568	 1.5005408231	 0.077033
H	-1.1853036928	-3.0507108217	 3.9003122632	 0.098072
H	-1.4508122539	-1.3323009991	 4.3050816504	 0.097854
H	-4.017146059	-1.2681026748	 2.1185647926	 0.097854
H	-3.7095095025	-2.9875664753	 1.7496889412	 0.098072
34.8861	69.6194	92.023	159.3804	272.1606	280.5396	326.4354	373.8302	449.6943	455.8868	656.9179	748.7055	812.9995	844.8404	884.8064	889.9786	939.2683	954.8193	964.0106	992.3741	1013.6154	1035.1493	1047.3692	1086.5585	1099.1402	1108.7014	1148.8648	1157.3204	1164.5015	1198.5057	1246.362	1258.5024	1260.8456	1268.8701	1283.5531	1303.4336	1310.5169	1335.2345	1378.1173	1413.2315	1440.0431	1466.7095	1492.4438	1511.9183	1537.8326	2998.459	3009.2738	3038.8424	3040.0809	3041.3553	3044.8748	3054.4893	3067.3975	3073.5598	3098.3523	3104.4571	3801.5197
OC1CC(C1)C1COC1	O[C@H]1C[C@@H](C1)C1COC1	
InChI=1S/C7H12O2/c8-7-1-5(2-7)6-3-9-4-6/h5-8H,1-4H2	InChI=1S/C7H12O2/c8-7-1-5(2-7)6-3-9-4-6/h5-8H,1-4H2/t5-,7-
