27
gdb 101738	4.21399	0.68434	0.61966	0.1085	96.96	-0.2778	0.0821	0.3599	1940.2979	0.251557	-353.55905	-353.54814	-353.547196	-353.59599	40.457	
C	-0.1919935255	 1.574358725	 0.0961254547	-0.391955
C	-0.0381567574	 0.0546460234	-0.0254144944	-0.164315
C	 0.8043964661	-0.4241325537	-1.224518974	 0.042463
C	 2.2585186799	 0.06117264	-1.1308660395	-0.387432
C	 0.7083131703	-1.9569949681	-1.3560189066	-0.210197
C	 1.2959828584	-2.5711856301	-2.6241487307	 0.051593
C	 2.8258887084	-2.8447421996	-2.7625405926	-0.211178
C	 2.4892229276	-4.1875546879	-3.4618779494	-0.221391
C	 1.0614518095	-4.0913777035	-2.8630983891	-0.228229
H	 0.7629346993	 2.0722549855	 0.2891620801	 0.117388
H	-0.6104979318	 2.0037151844	-0.8214758835	 0.111329
H	-0.8658684032	 1.8329525917	 0.9191646325	 0.110148
H	 0.4009060458	-0.3440596931	 0.9001024228	 0.089851
H	-1.036831217	-0.3942340977	-0.102056734	 0.088976
H	 0.3604943256	 0.0120486569	-2.1330986929	 0.064169
H	 2.842403263	-0.2452518579	-2.0021544163	 0.11866
H	 2.3169033478	 1.1515367636	-1.0674415729	 0.109945
H	 2.748975844	-0.3504064306	-0.2400468953	 0.107132
H	 1.1761860203	-2.4275062473	-0.4780294671	 0.083122
H	-0.3540532792	-2.2370023267	-1.3135464177	 0.087537
H	 0.946029121	-2.0090037445	-3.4996436128	 0.063931
H	 3.4321318686	-2.122565666	-3.315322933	 0.093354
H	 3.2877760241	-3.0044337273	-1.7825147531	 0.096623
H	 2.4790199941	-4.085271332	-4.551077218	 0.099123
H	 3.092191388	-5.0614607768	-3.2037771776	 0.093192
H	 0.9888526099	-4.6294318833	-1.911554774	 0.095233
H	 0.2160019324	-4.3853430545	-3.4909190654	 0.090926
34.1189	66.6907	95.255	119.8996	168.9119	207.3096	253.0865	268.5078	293.3625	317.2465	409.1704	427.875	497.5689	638.9087	764.1637	772.5532	784.4553	823.8572	861.1214	896.9958	918.6356	936.6	950.9249	971.1982	980.9421	999.3227	1039.2882	1045.6447	1065.7739	1117.9359	1150.5585	1172.8805	1192.5874	1203.3305	1229.1816	1255.1614	1260.0772	1265.8003	1277.085	1287.9842	1304.6147	1317.1019	1355.1298	1380.4508	1382.2426	1391.5182	1411.9264	1414.805	1471.9279	1477.3808	1484.8124	1486.2579	1496.0747	1497.908	1506.1811	1510.0052	1514.0873	2979.3678	2990.2305	3008.544	3014.8849	3029.6206	3030.7574	3032.9335	3041.6406	3044.8615	3047.3701	3055.207	3091.0301	3095.7661	3095.993	3097.4479	3107.3858	3113.3334	3119.7944
CCC(C)CC1CCC1	CC[C@@H](C)CC1CCC1	
InChI=1S/C9H18/c1-3-8(2)7-9-5-4-6-9/h8-9H,3-7H2,1-2H3	InChI=1S/C9H18/c1-3-8(2)7-9-5-4-6-9/h8-9H,3-7H2,1-2H3/t8-/m1/s1
