22
gdb 6985	2.36147	2.13484	1.52893	1.2741	76.77	-0.2559	0.0688	0.3248	971.6487	0.200264	-350.230115	-350.221142	-350.220197	-350.262938	34.713	
C	-0.6159304578	 1.3304168081	 0.0470250059	-0.426917
C	 0.0015244879	-0.0648178874	 0.0087206225	 0.051877
C	 1.0015171895	-0.3131441262	-1.1365050386	-0.223925
C	 1.8925482021	-1.5029285537	-0.6718803743	-0.213896
C	 1.478735612	-1.7872262729	 0.7916961234	-0.252243
C	 0.7671324755	-0.5042950574	 1.2796458144	 0.38107
C	 1.7700061841	 0.538856475	 1.7882772426	-0.43882
O	-0.2085259726	-0.7655986468	 2.2878475816	-0.483881
H	 0.1493307297	 2.1140768841	 0.0628587019	 0.108602
H	-1.2416636256	 1.5039929131	-0.8347417366	 0.107937
H	-1.2453986801	 1.4480559225	 0.9344315234	 0.126313
H	-0.8159483142	-0.7929078173	-0.0806798705	 0.078357
H	 0.4905723388	-0.5162903553	-2.0819121038	 0.095517
H	 1.6111079214	 0.5828162639	-1.302369079	 0.093791
H	 1.7521331962	-2.3866885787	-1.299925629	 0.099871
H	 2.9526646014	-1.2417455912	-0.7405559901	 0.097441
H	 0.7480119703	-2.6010500123	 0.8384720018	 0.102374
H	 2.324475806	-2.0709383528	 1.4272645889	 0.080448
H	 2.5091133979	 0.8039865077	 1.0255080451	 0.118317
H	 1.2590628816	 1.4513248094	 2.1057507898	 0.124355
H	 2.3222890628	 0.1414027189	 2.648858199	 0.101594
H	 0.2553962931	-0.9653805604	 3.1074513916	 0.271818
88.2921	136.5716	213.2005	239.7207	260.8356	278.3143	284.4301	344.3511	396.0937	446.4165	518.4908	554.8632	623.108	707.7028	779.1916	847.1705	889.6492	912.7839	933.9493	964.4961	984.4406	1020.1193	1036.7373	1074.5619	1094.3163	1123.2254	1172.4805	1199.5864	1216.3675	1241.8333	1257.6351	1291.7977	1317.542	1330.7955	1349.8251	1376.4952	1394.7143	1406.6736	1412.3756	1485.8403	1487.292	1494.0934	1498.6156	1504.2503	1511.1187	1518.0125	3013.1096	3025.5191	3030.7381	3036.3717	3040.8825	3057.4951	3072.7008	3083.0135	3088.9775	3094.5354	3102.4635	3107.5686	3121.9542	3810.1771
CC1CCCC1(C)O	C[C@H]1CCC[C@]1(C)O	
InChI=1S/C7H14O/c1-6-4-3-5-7(6,2)8/h6,8H,3-5H2,1-2H3	InChI=1S/C7H14O/c1-6-4-3-5-7(6,2)8/h6,8H,3-5H2,1-2H3/t6-,7-/m0/s1
