23
gdb 121234	3.16967	0.77639	0.67149	2.8618	81.94	-0.2448	0.0657	0.3104	1747.9681	0.205053	-425.408002	-425.397684	-425.39674	-425.444362	37.039	
C	-0.1177257121	 1.5511091252	-0.2528212306	-0.38257
C	 0.1280579732	 0.0432493648	-0.1589010555	-0.167726
C	 0.44385368	-0.4283264719	 1.2669897197	-0.198087
C	 0.6952384502	-1.9306547796	 1.3437099796	-0.053074
C	 2.0286302485	-2.4887228376	 0.7955376541	-0.081262
O	 2.2928797748	-3.1999711167	 2.0251208483	-0.306893
C	 1.138888834	-2.5980913936	 2.6740707606	 0.091376
C	 1.6116301478	-1.7439801057	 3.8415008614	-0.067053
O	 2.353463372	-2.5452245463	 4.7415792621	-0.425246
H	 0.7605780598	 2.1172849559	 0.0763898009	 0.116229
H	-0.3438914108	 1.8550975688	-1.2794283344	 0.11434
H	-0.9607165636	 1.8546005993	 0.3779156786	 0.116076
H	-0.7525448172	-0.4975893682	-0.5299761077	 0.09769
H	 0.9560716485	-0.2344704207	-0.8247560104	 0.099978
H	 1.3172103153	 0.1207439419	 1.6410384442	 0.09983
H	-0.3926279878	-0.1622062266	 1.9274427276	 0.098754
H	-0.1618900438	-2.4606185277	 0.9169316398	 0.081785
H	 1.9696463218	-3.1692086539	-0.0610052464	 0.105891
H	 2.7935198854	-1.7265945153	 0.5905123295	 0.097001
H	 0.4676874036	-3.3786649418	 3.0536616672	 0.082314
H	 2.2132676583	-0.8967158622	 3.4774600959	 0.082586
H	 0.7585486788	-1.337294752	 4.3958990761	 0.105892
H	 3.0074511332	-3.0037181759	 4.1984786897	 0.292171
61.7251	75.1424	98.574	109.8465	118.1229	214.8609	248.5975	288.9545	318.9638	406.4199	479.2212	486.7678	523.2818	742.0449	774.9551	836.6691	858.642	886.2894	914.994	936.3946	994.2756	1015.0779	1042.957	1050.7526	1075.0135	1081.7422	1140.4723	1142.2643	1161.2532	1190.5471	1211.7914	1252.7005	1263.6291	1289.8354	1308.356	1331.3314	1338.29	1353.9456	1383.7266	1398.0811	1405.8675	1415.9005	1437.0791	1481.1106	1492.5464	1500.1333	1500.4543	1509.5516	1528.577	2980.7419	3001.9225	3010.107	3017.9824	3025.9939	3030.8252	3035.48	3048.6546	3059.1884	3068.1675	3074.9149	3097.261	3103.964	3774.8017
CCCC1COC1CO	CCC[C@H]1CO[C@H]1CO	
InChI=1S/C7H14O2/c1-2-3-6-5-9-7(6)4-8/h6-8H,2-5H2,1H3	InChI=1S/C7H14O2/c1-2-3-6-5-9-7(6)4-8/h6-8H,2-5H2,1H3/t6-,7-/m0/s1
