19
gdb 95095	2.36566	1.60263	1.17652	4.965	79.55	-0.2568	0.0189	0.2757	1105.4084	0.160843	-382.075662	-382.067441	-382.066496	-382.108226	31.798	
C	 0.0404368016	 1.6059734084	-0.0249593645	-0.413065
C	 0.0653147899	 0.0785109529	 0.0249475869	-0.02907
C	 0.7696915311	-0.6061114307	-1.1670548612	-0.26603
C	 1.2798242471	-1.9420924391	-0.5870101195	-0.162377
N	 1.5215875349	-1.7528338403	 0.8610022556	-0.127725
C	 2.3022359715	-0.558773759	 1.179082194	-0.281319
C	 0.8077702336	-0.5074093272	 1.2344448749	 0.187838
C	 0.131317738	-0.4733450213	 2.5078583158	 0.231849
N	-0.4305021274	-0.4001609694	 3.5159362057	-0.344259
H	 1.0548961428	 2.0156907345	-0.0756011033	 0.118012
H	-0.5091016497	 1.9561116617	-0.9040815747	 0.12313
H	-0.4479793911	 2.021457052	 0.861748693	 0.138238
H	-0.9671157664	-0.287502918	 0.0849093217	 0.098658
H	 0.0937838676	-0.7535445128	-2.0125940292	 0.114384
H	 1.5964361942	 0.0143319822	-1.527974074	 0.110431
H	 0.5205380399	-2.7248446195	-0.6811571179	 0.122122
H	 2.1936288217	-2.3043494323	-1.0667440029	 0.117348
H	 2.8630287597	-0.6181373114	 2.1061065718	 0.140269
H	 2.7944359009	-0.0107157709	 0.3797580974	 0.121567
111.6599	147.5771	185.1716	232.1717	257.1834	321.5701	400.5529	464.3769	496.5416	563.4243	596.0388	639.8531	655.0617	814.2078	838.8662	857.1573	910.5143	938.5693	964.5885	975.9227	1025.605	1062.72	1111.8451	1122.0113	1133.3815	1176.9451	1210.1372	1236.0991	1247.43	1303.3023	1312.4351	1349.5733	1367.4504	1382.3193	1415.1254	1488.6738	1493.8073	1498.2125	1501.2929	1519.0082	2355.1201	3030.4461	3035.5662	3053.2716	3053.9606	3095.7503	3104.8193	3109.8671	3110.7654	3117.0105	3206.8345
CC1CCN2CC12C#N	C[C@H]1CCN2C[C@@]12C#N	
InChI=1S/C7H10N2/c1-6-2-3-9-5-7(6,9)4-8/h6H,2-3,5H2,1H3	InChI=1S/C7H10N2/c1-6-2-3-9-5-7(6,9)4-8/h6H,2-3,5H2,1H3/t6-,7-,9?/m0/s1
