14
gdb 129886	5.49502	1.31183	1.06222	7.3261	70.01	-0.2068	0.019	0.2258	1043.0857	0.104649	-429.061489	-429.054573	-429.053629	-429.092493	27.099	
N	 0.1429846518	 1.3870246119	 0.1411742062	-0.600805
C	-0.0158515877	 0.0085333678	 0.0210680674	 0.330275
C	-1.1301465484	-0.7736851291	-0.0133643556	-0.226424
N	-0.671535136	-2.1024923113	-0.0220234749	-0.018329
C	-0.9988593542	-3.4357194885	-0.027189878	-0.02475
N	 0.0979597262	-4.161325565	-0.0125219912	-0.226583
N	 1.2011591119	-3.3220434505	 0.0013694401	-0.362223
C	 0.6956483055	-2.1135935609	-0.0056923752	 0.504782
N	 1.1215493591	-0.8008269371	-0.0168083153	-0.451489
H	 0.6935071671	 1.7909419782	-0.6092857639	 0.258681
H	-0.7435656129	 1.8691563541	 0.2066006837	 0.259536
H	-2.1695529409	-0.5060731827	-0.070732391	 0.139824
H	-2.0078191132	-3.8116124031	-0.0523327602	 0.137715
H	 2.0221945918	-0.5049743338	 0.320034638	 0.27979
148.1379	233.8681	306.6436	329.1972	334.3868	386.9689	519.8679	581.5049	619.2358	642.195	663.2677	744.1197	762.0906	773.3802	806.8053	856.7715	991.5656	1011.3166	1031.6979	1131.9235	1187.1519	1225.1424	1232.9554	1294.7123	1397.5018	1428.233	1446.47	1490.0775	1631.4417	1641.051	1687.6103	3283.8228	3298.4596	3517.5028	3625.5563	3673.0739
NC1=CN2C=NN=C2N1	Nc1cn2cnnc2[nH]1	
InChI=1S/C4H5N5/c5-3-1-9-2-6-8-4(9)7-3/h1-2H,5H2,(H,7,8)	InChI=1S/C4H5N5/c5-3-1-9-2-6-8-4(9)7-3/h1-2H,5H2,(H,7,8)
