18
gdb 117113	2.78804	1.03008	0.81799	3.3571	73.43	-0.2883	-0.0093	0.2791	1432.8985	0.145363	-439.140822	-439.130619	-439.129675	-439.177894	34.874	
C	-0.325901987	 1.0682876127	-0.249136699	-0.389373
C	-0.5482844531	-0.431961118	-0.1463364294	-0.058753
O	 0.0680044972	-1.1322478183	-1.2553433082	-0.236044
C	 1.3567793558	-1.4589767318	-1.1218235908	 0.467204
O	 2.0506183535	-1.2058042375	-0.1725366169	-0.353574
C	 1.8657521499	-2.1833327	-2.382540285	-0.263387
C	 3.3103160224	-2.6761976051	-2.2045369613	-0.384136
C	 0.962373685	-3.2717777814	-2.7644727715	 0.280057
N	 0.2804170823	-4.1526594368	-3.0705708929	-0.31964
H	 0.734971374	 1.3099891365	-0.1494363802	 0.144486
H	-0.6912952221	 1.4518541565	-1.2059179509	 0.130956
H	-0.8696871319	 1.5752327919	 0.5540744949	 0.128574
H	-0.1420837807	-0.831367062	 0.7853323848	 0.138601
H	-1.6064560544	-0.6891892026	-0.2228443679	 0.127792
H	 1.8255525775	-1.4396019781	-3.1899319071	 0.156656
H	 3.9511551364	-1.8358067559	-1.9336633383	 0.143963
H	 3.3673734876	-3.4188251636	-1.4065534671	 0.150716
H	 3.6725229176	-3.1251824167	-3.1315719532	 0.135902
17.6985	66.262	84.3746	135.2223	199.5555	205.7058	243.1132	254.7565	342.5005	360.9204	463.3079	483.0776	570.5716	590.6524	768.3149	797.3113	846.1313	869.9907	918.6464	1020.8549	1044.4965	1108.6661	1118.3086	1125.7064	1195.7965	1232.3695	1304.5803	1309.4742	1332.0842	1400.3203	1414.2614	1421.3856	1485.487	1487.4765	1488.8778	1494.4112	1507.0841	1826.264	2362.3932	3030.4984	3047.4309	3066.1065	3078.7903	3117.7062	3124.1216	3145.1881	3146.2112	3152.7274
CCOC(=O)C(C)C#N	CCOC(=O)[C@@H](C)C#N	
InChI=1S/C6H9NO2/c1-3-9-6(8)5(2)4-7/h5H,3H2,1-2H3	InChI=1S/C6H9NO2/c1-3-9-6(8)5(2)4-7/h5H,3H2,1-2H3/t5-/m0/s1
