21
gdb 112942	3.86099	0.87677	0.75899	1.8584	79.49	-0.2326	-0.0157	0.2169	1552.1077	0.17968	-424.23835	-424.228107	-424.227163	-424.275483	36.005	
C	 0.9381705985	 1.1886271793	-0.7535233158	-0.382365
C	 0.0661924252	 0.141019022	-0.0557097088	-0.189041
C	 0.5171420112	-0.1368567431	 1.3665776801	 0.169895
C	-0.0790647145	-1.3637743725	 2.0924098382	-0.322561
C	 1.3723606693	-1.8683961006	 2.1403943618	 0.051669
O	 1.8566579186	-0.7153707699	 1.4173577934	-0.314716
C	 1.9997832392	-2.0233392415	 3.5257215737	 0.344731
C	 3.4540915283	-1.6262478398	 3.6469694986	-0.47522
O	 1.3481796507	-2.4623741066	 4.4454711795	-0.296461
H	 1.9833415315	 0.8666636655	-0.7658192082	 0.135943
H	 0.6168032986	 1.3472892003	-1.7869539465	 0.113563
H	 0.8893173974	 2.1529794519	-0.2357028097	 0.114071
H	-0.9802609055	 0.4730407079	-0.0227238152	 0.098857
H	 0.0831509651	-0.7995944698	-0.6203205553	 0.098183
H	 0.4894783497	 0.789199356	 1.958159293	 0.07702
H	-0.525614582	-1.1880320824	 3.0709680608	 0.129248
H	-0.7581641583	-1.9638354114	 1.4845246473	 0.110241
H	 1.5696526407	-2.7991768621	 1.586246594	 0.10083
H	 4.0631668967	-2.21526294	 2.9510312976	 0.140993
H	 3.5758170077	-0.5804862012	 3.3507942993	 0.157578
H	 3.7997943919	-1.783879202	 4.6689429319	 0.137543
22.0888	47.4883	101.166	116.9569	142.1708	215.9574	247.9636	255.6967	391.3428	423.835	455.7614	526.3823	593.3616	716.0146	746.4841	799.7106	875.3354	929.1573	941.6304	949.2755	978.2379	1010.1093	1031.7648	1040.5799	1089.1772	1106.1719	1132.849	1196.5576	1208.5585	1250.0552	1259.4766	1284.3659	1310.5464	1342.6978	1352.9082	1379.476	1406.5908	1412.1592	1459.9362	1466.7962	1474.266	1496.9795	1497.1931	1508.8084	1811.2273	2984.9575	3001.3927	3018.8362	3036.6339	3042.2283	3058.6377	3086.5378	3103.8402	3108.3458	3118.9811	3145.7861	3159.1452
CCC1CC(O1)C(C)=O	CC[C@H]1C[C@@H](O1)C(=O)C	
InChI=1S/C7H12O2/c1-3-6-4-7(9-6)5(2)8/h6-7H,3-4H2,1-2H3	InChI=1S/C7H12O2/c1-3-6-4-7(9-6)5(2)8/h6-7H,3-4H2,1-2H3/t6-,7+/m0/s1
