14
gdb 128691	2.36737	1.56305	0.94709	5.491	71.57	-0.243	-0.0194	0.2236	1157.3988	0.102805	-432.897182	-432.889224	-432.88828	-432.930086	28.459	
C	-0.056240641	 1.3877234831	 0.0086636113	-0.24129
O	-0.0286074166	-0.0410614225	 0.0033512783	-0.255823
C	-1.2126214492	-0.649902061	 0.0101394116	 0.398012
N	-2.3734710817	-0.0157577794	 0.021373024	-0.319321
N	-3.2936837273	-1.0179442778	 0.0247558498	-0.205169
C	-2.7510530876	-2.2454230846	 0.0159003429	-0.09614
C	-1.3750105708	-2.0690656827	 0.0062383479	-0.003767
C	-0.3723186095	-3.062422551	-0.005008082	 0.20242
N	 0.4505206296	-3.8776835671	-0.0142846084	-0.354232
H	 0.9870244123	 1.7030659689	 0.0017347046	 0.140515
H	-0.5755414635	 1.7687337348	-0.8760254654	 0.139447
H	-0.5617886979	 1.7623804557	 0.9039704182	 0.139445
H	-4.269505128	-0.776043798	 0.0331286447	 0.287672
H	-3.3441541387	-3.1456517386	 0.0170265527	 0.168232
102.2994	123.6261	169.207	187.5338	253.4692	341.0453	431.7339	465.8716	551.4444	551.71	632.9807	648.9924	747.9423	753.0474	822.7832	939.2083	1042.6686	1083.5864	1172.5807	1179.9767	1207.3427	1262.1032	1333.8964	1397.0285	1453.3845	1481.5372	1497.8775	1500.8783	1566.838	1611.3303	2349.2709	3039.4571	3109.324	3157.1351	3272.4322	3684.59
COC1=NNC=C1C#N	COc1n[nH]cc1C#N	
InChI=1S/C5H5N3O/c1-9-5-4(2-6)3-7-8-5/h3H,1H3,(H,7,8)	InChI=1S/C5H5N3O/c1-9-5-4(2-6)3-7-8-5/h3H,1H3,(H,7,8)
