16
gdb 75923	2.81713	1.53621	1.10358	2.0457	64.27	-0.249	-0.0018	0.2472	1059.8569	0.12488	-475.029915	-475.021855	-475.020911	-475.062855	29.819	
N	 0.1459265321	 1.3338669453	-0.5248571356	-0.510834
C	-0.0611204651	-0.0168883592	-0.0342330113	-0.231801
C	 0.4766498669	-0.3049181131	 1.3780006072	 0.423822
O	 1.4705245712	 0.1355606307	 1.8769046467	-0.339806
O	-0.3673511441	-1.142018829	 2.038918096	-0.220396
C	-1.5199685199	-1.4595298479	 1.2377760013	-0.165638
C	-1.509237153	-0.4613163797	 0.0868373389	 0.415049
C	-2.6582942994	 0.361605943	-0.3033977137	-0.24251
O	-2.2591770772	-0.788571306	-1.0667935235	-0.274197
H	-0.0987724982	 2.0023998945	 0.2012020728	 0.237166
H	 1.1366694732	 1.4744465054	-0.6993534193	 0.249354
H	 0.4454938621	-0.7117613475	-0.7181744275	 0.132683
H	-1.426483035	-2.4836864378	 0.8587272015	 0.134939
H	-2.4057274659	-1.3959991183	 1.8734549119	 0.132823
H	-3.6006412983	 0.2607612266	 0.2333211302	 0.118939
H	-2.4805135893	 1.316063693	-0.7926617656	 0.140407
60.8145	162.31	191.0217	251.1653	256.3715	308.7603	352.202	471.9905	490.7633	558.8164	630.4329	714.7015	782.3283	844.4614	892.1846	928.5853	940.9093	963.36	1057.7727	1064.2726	1130.1106	1136.6431	1151.8205	1176.945	1199.8215	1225.6467	1253.6468	1271.2556	1373.6988	1413.1629	1443.2119	1515.8796	1523.8255	1669.8311	1883.4345	3025.9906	3045.2295	3091.618	3109.3855	3191.5948	3492.44	3567.6334
NC1C(=O)OCC11CO1	N[C@H]1C(=O)OC[C@]21CO2	
InChI=1S/C5H7NO3/c6-3-4(7)8-1-5(3)2-9-5/h3H,1-2,6H2	InChI=1S/C5H7NO3/c6-3-4(7)8-1-5(3)2-9-5/h3H,1-2,6H2/t3-,5+/m0/s1
