17
gdb 47699	2.1824	1.67874	1.04506	6.1619	70.12	-0.2426	0.0104	0.253	1118.57	0.138648	-455.213465	-455.205308	-455.204364	-455.24687	30.335	
O	 0.0040175629	-0.070571544	-0.0980778761	-0.349946
C	-0.0147236011	 1.1412921535	-0.0375284266	 0.369484
C	-1.3114605511	 1.9415841416	 0.0674543371	-0.412669
C	-1.5625866556	 2.7018909701	 1.3731576047	 0.375996
O	-2.6280354	 2.5928945652	 1.9490881998	-0.353504
N	-0.6055939674	 3.5610640329	 1.8547304164	-0.304983
C	 0.7955233387	 3.7697381914	 1.5165221427	-0.139867
C	 1.1832921881	 3.3285396825	 0.1060486808	-0.182732
N	 1.1276800818	 1.8935328785	-0.0875087832	-0.288632
H	-1.3656233478	 2.6587167472	-0.7608783852	 0.136996
H	-2.1355108371	 1.2391797255	-0.0352782256	 0.159485
H	-0.9092539883	 3.9793433722	 2.7236637728	 0.249439
H	 1.0074984003	 4.8423441936	 1.6094178766	 0.117337
H	 1.4472659061	 3.2464492722	 2.231932347	 0.116117
H	 0.5573525603	 3.8437568249	-0.6329652218	 0.128437
H	 2.2113042165	 3.6502257649	-0.0768636797	 0.126748
H	 1.9856334638	 1.363576828	-0.1131830096	 0.252296
67.8641	97.567	105.5955	304.4303	327.7447	395.0727	438.1514	455.2004	523.1021	527.5203	599.9949	629.3323	670.3971	685.3798	843.7404	860.1969	910.9586	966.0132	974.9236	1053.2287	1120.6243	1152.2012	1173.0132	1272.1449	1283.6019	1290.4928	1311.8777	1382.3378	1403.3914	1412.8506	1454.6408	1462.5412	1491.9847	1497.2776	1522.8409	1779.2853	1807.1695	2992.2945	3030.9706	3044.6165	3047.8044	3104.9635	3167.3093	3592.1897	3624.608
O=C1CC(=O)NCCN1	O=C1CC(=O)NCCN1	
InChI=1S/C5H8N2O2/c8-4-3-5(9)7-2-1-6-4/h1-3H2,(H,6,8)(H,7,9)	InChI=1S/C5H8N2O2/c8-4-3-5(9)7-2-1-6-4/h1-3H2,(H,6,8)(H,7,9)
