23
gdb 58217	2.73167	0.94054	0.84932	2.1909	82.92	-0.269	-0.0374	0.2316	1493.0148	0.202413	-425.443579	-425.43253	-425.431586	-425.480208	40.237	
C	 0.2559978255	-0.3622625845	 1.3081119482	-0.399792
C	-0.1540132974	 0.0565623289	-0.1116490153	 0.046293
C	-0.2782655456	 1.5836525015	-0.2143411718	-0.408263
C	 0.7696440589	-0.5145328845	-1.2223934815	 0.001035
C	 2.2540406073	-0.163550475	-1.027481238	-0.420743
C	 0.5629595074	-2.0520557352	-1.3618304862	 0.034869
O	-0.796577497	-2.391625761	-1.4173531302	-0.435464
C	 1.2641198124	-2.6021157835	-2.5887918807	 0.135035
O	 0.6523097501	-3.1757138519	-3.4598987351	-0.267387
H	 0.3193270586	-1.4497030202	 1.416112699	 0.117707
H	 1.2234195687	 0.0634730969	 1.5967292514	 0.11043
H	-0.4835707147	-0.0084930575	 2.0335928873	 0.114897
H	-1.1437293984	-0.3662243283	-0.3090855574	 0.105799
H	 0.6672554626	 2.0920068295	 0.0052999678	 0.111677
H	-0.6004722276	 1.8923916006	-1.2145940038	 0.110903
H	-1.0174260772	 1.9555876003	 0.5027376083	 0.113478
H	 0.4271438745	-0.0705485985	-2.1673644042	 0.0776
H	 2.6942126184	-0.7210424586	-0.1937958893	 0.121653
H	 2.8496471658	-0.3763571086	-1.9198595248	 0.115298
H	 2.3776634396	 0.9008433216	-0.811584281	 0.12648
H	 1.0401314053	-2.5385820508	-0.4910399016	 0.090937
H	-0.9136520608	-2.8576034404	-2.2610063543	 0.293579
H	 2.3596952836	-2.4638445606	-2.6532203768	 0.103979
34.5962	64.9118	110.0082	186.0467	208.77	220.3556	247.9017	269.5392	299.0748	311.9439	349.0164	407.293	415.4781	452.7038	501.8927	563.1057	751.5088	771.2009	834.4115	904.6338	931.9064	937.3879	968.0432	980.0887	1010.4118	1041.8226	1126.3753	1147.873	1152.0288	1181.5788	1207.5865	1254.8831	1294.9566	1326.2416	1350.4136	1372.8578	1386.2402	1396.2631	1402.895	1417.6313	1427.5729	1441.2119	1485.284	1490.8518	1502.3302	1508.1725	1512.1648	1514.7807	1803.1967	2937.7673	2963.1701	3009.0387	3027.2915	3032.7888	3043.7251	3062.7609	3091.9963	3097.2979	3101.1017	3101.6923	3106.5249	3117.6703	3678.7527
CC(C)C(C)C(O)C=O	CC(C)[C@@H](C)[C@@H](O)C=O	
InChI=1S/C7H14O2/c1-5(2)6(3)7(9)4-8/h4-7,9H,1-3H3	InChI=1S/C7H14O2/c1-5(2)6(3)7(9)4-8/h4-7,9H,1-3H3/t6-,7+/m1/s1
