17
gdb 108977	5.23824	1.06949	0.98706	2.6474	73.31	-0.2215	0.0026	0.2241	1188.2396	0.13554	-421.736154	-421.728666	-421.727722	-421.768396	29.085	
O	-0.0039505926	 1.4431646251	 0.0472403126	-0.411856
C	-0.0009295952	 0.0284138795	 0.013927991	-0.196631
C	-1.4040556216	-0.4667571443	 0.0054782822	 0.297209
C	-2.5609568029	 0.2057681554	 0.0241953486	-0.210363
C	-3.6261524925	-0.8714007676	 0.0007779122	-0.09103
C	-3.1029453607	-2.0729938622	 0.863550571	 0.079459
O	-3.6905964716	-3.0581117144	-0.0513666047	-0.326354
C	-3.1069376685	-2.0303325746	-0.9207782552	 0.079461
C	-1.8201069391	-1.9278392134	-0.0285269805	-0.161075
H	 0.908760437	 1.7446011122	 0.0559865221	 0.290831
H	 0.5275458315	-0.3538371023	-0.8784782657	 0.098691
H	 0.5316887878	-0.3954436164	 0.8847784806	 0.098695
H	-2.7126183788	 1.2742571097	 0.0501172284	 0.120265
H	-4.6886194044	-0.634982685	 0.0088080668	 0.07718
H	-3.1884731882	-2.2548193003	 1.9379416063	 0.09157
H	-3.1972928466	-2.160618194	-2.0022363026	 0.09158
H	-1.0901679539	-2.7364433273	-0.0494980632	 0.072368
69.9374	174.4766	177.8006	245.0906	365.6484	410.4859	509.0977	523.3322	672.8046	692.1851	718.1516	801.7459	833.2942	852.8882	878.8675	883.2678	945.4378	961.653	996.0124	1011.2753	1041.0581	1068.6746	1118.1662	1137.7772	1163.185	1165.6533	1171.49	1192.5611	1220.3334	1243.2196	1257.0054	1262.4789	1315.6799	1333.5343	1466.7371	1504.8098	1692.0195	2933.2053	2942.4502	3084.8874	3089.7124	3132.7223	3145.1527	3250.0409	3839.0979
OCC1=CC2C3OC2C13	OCC1=C[C@@H]2[C@H]3O[C@@H]2[C@@H]13	
InChI=1S/C7H8O2/c8-2-3-1-4-6-5(3)7(4)9-6/h1,4-8H,2H2	InChI=1S/C7H8O2/c8-2-3-1-4-6-5(3)7(4)9-6/h1,4-8H,2H2/t4-,5+,6-,7+
