20
gdb 56545	2.56259	1.08974	0.98965	3.287	82.75	-0.239	0.0254	0.2644	1331.9667	0.167365	-403.146365	-403.135433	-403.134488	-403.183243	38.53	
C	-0.0787883874	 1.459567784	 0.5503681163	-0.393101
C	-0.1267057972	-0.0016783099	 0.0661266527	-0.146852
C	-1.5027887359	-0.4671094647	-0.1196685724	 0.32613
C	-2.6406161626	-0.8264443632	-0.265143775	-0.468622
N	 0.6750655548	-0.2032462797	-1.1529072275	-0.087191
C	 0.0996294452	 0.2123520863	-2.4212940004	-0.342734
C	 1.8822638236	-0.8478143233	-1.0163996529	 0.414179
C	 2.6826915593	-1.1139202785	-2.2835189828	-0.503763
O	 2.3090922304	-1.1906009383	 0.0754538638	-0.378391
H	 0.9585781721	 1.7433019882	 0.7445492976	 0.133743
H	-0.5038655817	 2.1439250425	-0.1893408874	 0.121416
H	-0.652730888	 1.5657765544	 1.4746597747	 0.131728
H	 0.3613072083	-0.6245785852	 0.8210844968	 0.157643
H	-3.6426876033	-1.1586964821	-0.3811340525	 0.199668
H	 0.8735516113	 0.3047942578	-3.1811398308	 0.135421
H	-0.6641489775	-0.4906544282	-2.7749554714	 0.138093
H	-0.3751280486	 1.1921977648	-2.3116299904	 0.134436
H	 3.0118214025	-0.1820435788	-2.754826605	 0.140598
H	 3.5612781686	-1.6889376755	-1.9936777114	 0.149599
H	 2.1082125462	-1.6780372809	-3.024111402	 0.137999
34.7645	53.7844	98.9855	146.0001	178.5927	189.5851	220.8075	229.0334	314.3552	365.8648	385.4793	432.4411	546.5969	571.7472	598.3223	604.6364	620.6668	662.3395	744.7343	839.3372	948.1792	1009.2644	1029.571	1049.5318	1090.9117	1123.6207	1151.7676	1164.313	1249.5893	1336.9998	1356.2549	1388.599	1401.2673	1425.7702	1463.1012	1476.2852	1487.0351	1489.9537	1496.0971	1500.8038	1523.0852	1749.4365	2234.391	3030.2684	3045.5222	3047.1332	3078.1147	3087.7373	3109.4532	3123.4689	3131.6177	3160.191	3164.7182	3502.7168
CC(C#C)N(C)C(C)=O	C[C@@H](C#C)N(C)C(=O)C	
InChI=1S/C7H11NO/c1-5-6(2)8(4)7(3)9/h1,6H,2-4H3	InChI=1S/C7H11NO/c1-5-6(2)8(4)7(3)9/h1,6H,2-4H3/t6-/m0/s1
