12
gdb 8618	2.29155	1.92477	1.57238	2.8078	63.1	-0.2627	-0.0459	0.2168	876.8758	0.078054	-381.254472	-381.245644	-381.2447	-381.287786	30.904	
O	-0.038699053	 1.4544433282	-0.0540796663	-0.424519
C	 0.0632917096	 0.0344666152	-0.1170722447	-0.125301
C	-1.4288826593	-0.4297846541	-0.1203556554	 0.170609
O	-1.8585138368	-1.3446522797	-0.7546337982	-0.22346
C	 0.7792766713	-0.425102821	-1.3075446122	 0.357949
C	 1.3718091137	-0.769912115	-2.2927920415	-0.449006
C	 0.6610250518	-0.5160746855	 1.1081248427	 0.319191
C	 1.1081410124	-0.9472474	 2.1369091644	-0.462621
H	 0.8523510437	 1.8084328643	 0.0475501751	 0.297643
H	-2.0386741288	 0.200298301	 0.5583708374	 0.115479
H	 1.8897250067	-1.0851275962	-3.1652811475	 0.209518
H	 1.5174911886	-1.3350225972	 3.0376821761	 0.214517
75.0496	122.0051	146.2473	165.6478	217.1932	269.7397	306.7708	411.4859	466.8175	508.6959	554.4283	651.9827	654.5592	663.8165	673.0799	679.9543	720.0831	948.2157	977.5494	1092.2074	1152.0228	1338.2287	1385.5857	1862.7437	2229.2115	2244.0712	2939.3043	3497.3227	3499.7998	3807.8488
OC(C=O)(C#C)C#C	OC(C=O)(C#C)C#C	
InChI=1S/C6H4O2/c1-3-6(8,4-2)5-7/h1-2,5,8H	InChI=1S/C6H4O2/c1-3-6(8,4-2)5-7/h1-2,5,8H
