18
gdb 19362	4.07111	1.68682	1.48091	1.9156	70.58	-0.2258	0.0683	0.2941	924.5092	0.153006	-347.732178	-347.724775	-347.723831	-347.763797	28.94	
C	 0.1837336723	 1.5352958675	 0.0727457925	-0.382395
C	-0.0455510847	 0.0282040519	-0.1006494532	-0.304128
C	-1.4861319632	-0.3677146449	-0.0170807275	 0.429831
O	-1.8968740313	-1.6067577206	-0.6216859371	-0.292034
C	-2.5851429515	-0.3957066831	-0.9810731166	-0.061535
C	-3.6256166975	-0.0471477685	 0.128168224	-0.08418
C	-3.5915040626	-1.0520482977	 1.2481079724	-0.286591
C	-2.491152777	-0.0290580579	 1.1438363929	-0.13212
H	 1.2481285057	 1.7742373947	-0.0059366953	 0.118608
H	-0.3486090373	 2.106056276	-0.6948028825	 0.120491
H	-0.1624078188	 1.8858044847	 1.0501610207	 0.122162
H	 0.3369583487	-0.3068200822	-1.0709138879	 0.11455
H	 0.5179613441	-0.5224483821	 0.6648868566	 0.108926
H	-2.6373771444	-0.1470687672	-2.0348426378	 0.101129
H	-4.4191090598	 0.6762531488	-0.0026869066	 0.091311
H	-4.3056685521	-0.8671929716	 2.0444480211	 0.108915
H	-3.3894662472	-2.0945298889	 1.0383349867	 0.135934
H	-2.2961434436	 0.7094724109	 1.9099169576	 0.091125
80.4534	153.0463	198.6013	278.2831	367.853	421.3191	504.8836	549.1024	615.5943	730.0215	752.7763	778.3875	809.7905	846.8079	902.8925	909.8907	933.6609	960.8499	994.674	1015.7848	1033.4869	1051.1887	1077.7416	1100.7527	1107.2969	1166.3239	1184.8887	1258.0782	1265.9003	1290.4053	1314.3786	1352.8357	1410.7452	1458.2903	1480.7439	1482.7703	1499.1988	1511.0644	3018.7572	3039.276	3070.0851	3109.1127	3112.3915	3140.4544	3180.8385	3197.9206	3208.006	3234.1786
CCC12OC1C1CC21	CC[C@]12O[C@H]1[C@H]1C[C@@H]21	
InChI=1S/C7H10O/c1-2-7-5-3-4(5)6(7)8-7/h4-6H,2-3H2,1H3	InChI=1S/C7H10O/c1-2-7-5-3-4(5)6(7)8-7/h4-6H,2-3H2,1H3/t4-,5+,6-,7+/m0/s1
