23
gdb 107035	3.83298	1.07063	0.95735	0.2436	91.27	-0.2228	0.0226	0.2454	1360.5546	0.205978	-351.164314	-351.155108	-351.154164	-351.197909	35.985	
C	 0.1603283518	 1.4970725044	 0.3063947499	-0.374875
C	 0.0190745025	 0.0412568615	-0.1569034755	-0.28118
C	-1.4067287569	-0.4692828575	-0.123984052	 0.347384
C	-2.0183021459	-0.9663838997	 1.1753785127	-0.322547
C	-1.7822857906	-1.934092767	 0.0387772173	-0.115088
C	-2.9357729425	-2.2564472669	-0.9181886035	-0.03913
C	-4.1300210302	-2.978784962	-0.2762082306	-0.389582
C	-3.2692620455	-0.8932970962	-1.4988698011	-0.082936
C	-2.4277000079	 0.0567748296	-1.0878972056	-0.15529
H	 1.2066000445	 1.8177252113	 0.2838297216	 0.109035
H	-0.4071947246	 2.1795184749	-0.3350171413	 0.116007
H	-0.2097937196	 1.6205826533	 1.3295143331	 0.117668
H	 0.4193184765	-0.0604479353	-1.1743198277	 0.0961
H	 0.6383525255	-0.6016770601	 0.4808401294	 0.092703
H	-1.3583690926	-1.0619174935	 2.0330778333	 0.102783
H	-3.0300337994	-0.6592869708	 1.4184297806	 0.107672
H	-1.0084950976	-2.6811336461	 0.1799842008	 0.077656
H	-2.5566399666	-2.9047492327	-1.723212697	 0.07744
H	-4.5470145299	-2.3962299462	 0.5509146037	 0.116624
H	-4.9288199487	-3.1432525255	-1.0074306239	 0.109457
H	-3.8306194845	-3.9559022824	 0.1164568109	 0.112818
H	-4.1195139213	-0.7387131587	-2.155210391	 0.08715
H	-2.4704167665	 1.1004816258	-1.3808093539	 0.090131
81.9455	120.5194	181.1918	205.3858	232.7724	245.3607	315.8884	359.65	381.8873	474.2584	550.268	636.511	693.6127	755.3109	772.275	791.8907	810.3736	870.614	918.961	935.7477	947.7294	968.4096	979.6191	1009.9697	1031.2901	1060.0286	1065.8488	1086.4665	1106.9587	1116.3476	1127.7667	1153.9168	1247.3559	1254.4273	1308.0562	1314.6188	1335.7945	1357.2766	1375.6855	1398.0407	1409.1027	1416.4137	1474.3183	1486.686	1497.1438	1497.4128	1499.2921	1507.2146	1670.3003	2979.3041	3015.3855	3031.6896	3033.2223	3049.4566	3097.1536	3100.5745	3104.3545	3107.5796	3117.6198	3161.3001	3173.5075	3198.957	3205.7991
CCC12CC1C(C)C=C2	CC[C@]12C[C@H]1[C@@H](C)C=C2	
InChI=1S/C9H14/c1-3-9-5-4-7(2)8(9)6-9/h4-5,7-8H,3,6H2,1-2H3	InChI=1S/C9H14/c1-3-9-5-4-7(2)8(9)6-9/h4-5,7-8H,3,6H2,1-2H3/t7-,8-,9-/m0/s1
