19
gdb 33154	4.97265	0.78582	0.71707	3.2934	78.64	-0.1953	0.0332	0.2285	1599.8302	0.160296	-419.252195	-419.243159	-419.242215	-419.286775	33.152	
C	-0.0190010218	 1.5736472376	 0.0050431176	-0.381438
C	-0.0825828707	 0.045871517	-0.0549873115	-0.169035
C	 0.7789558811	-0.522363165	-1.1896532293	-0.161292
N	 0.7458061768	-1.9723383888	-1.2689943882	 0.02982
C	 1.7236783104	-2.8274492326	-0.8834528446	-0.00042
N	 1.3743129468	-4.0922756556	-1.0374295975	-0.362328
C	 0.1090878302	-4.0441623055	-1.5433261349	 0.342833
O	-0.577134562	-5.1715401727	-1.8356113049	-0.436866
C	-0.3207756634	-2.7507064063	-1.7012921785	-0.239262
H	 1.0050892393	 1.924102666	 0.1752098802	 0.11907
H	-0.3725184179	 2.0248865207	-0.9286567291	 0.119936
H	-0.641063145	 1.9604081151	 0.8169395513	 0.12362
H	 0.2554977265	-0.3874287788	 0.893391506	 0.11277
H	-1.1186748195	-0.2828954662	-0.1939484947	 0.11345
H	 0.4545917317	-0.1099906457	-2.1525618373	 0.121189
H	 1.8245069994	-0.2276256159	-1.0521341327	 0.119554
H	 2.6720312272	-2.4773950571	-0.5034896954	 0.125494
H	 0.0104268854	-5.9040933674	-1.6138706514	 0.298707
H	-1.2365289945	-2.3256709388	-2.0720100752	 0.1242
56.8958	80.5257	86.5822	237.0088	261.3882	293.5805	319.7575	378.644	401.1408	458.1351	634.9013	649.0514	671.4446	729.2624	751.3321	784.5558	797.1284	883.1468	902.6346	1013.7216	1040.9117	1053.3534	1120.4379	1135.6331	1162.169	1215.0851	1252.9007	1277.2574	1316.7667	1333.0226	1372.0381	1402.7143	1409.6205	1417.0165	1458.9302	1482.2358	1493.6945	1501.4316	1511.4808	1543.1161	1655.6769	3031.4739	3032.9605	3043.0023	3066.1962	3087.007	3103.8756	3112.0443	3246.8638	3288.8714	3803.32
CCCN1C=NC(O)=C1	CCCn1cnc(O)c1	
InChI=1S/C6H10N2O/c1-2-3-8-4-6(9)7-5-8/h4-5,9H,2-3H2,1H3	InChI=1S/C6H10N2O/c1-2-3-8-4-6(9)7-5-8/h4-5,9H,2-3H2,1H3
