18
gdb 34142	2.77596	1.66113	1.34144	1.2805	82.11	-0.2377	0.0368	0.2745	1007.614	0.149296	-364.722737	-364.715528	-364.714584	-364.754198	29.36	
C	-0.0109602556	-1.2262631349	 0.045574714	-0.347637
C	-0.0254762056	-0.022765716	 0.0458180602	 0.011777
C	-0.0340263437	 1.4154786726	 0.031267786	 0.245544
C	-0.6439659746	 2.4184174121	 1.0276230852	-0.215886
N	-0.0354532439	 3.3647893248	-0.0053778186	-0.184331
C	 1.1756840001	 2.405138615	-0.0412198208	-0.008323
C	 1.7476118428	 2.455479584	-1.4486141708	-0.243974
C	 0.4153371084	 2.4394796614	-2.2480715412	-0.243974
C	-0.5565273161	 2.3843288027	-1.0806671317	-0.008323
H	-0.0003386921	-2.2882200407	 0.0490714744	 0.182338
H	-1.7341513045	 2.4751981304	 1.0900053103	 0.104195
H	-0.1872615608	 2.4937799689	 2.0182595701	 0.104194
H	 1.850289954	 2.4847743546	 0.8131914525	 0.077582
H	 2.3298980045	 3.3662764071	-1.6111679181	 0.113347
H	 2.3894353972	 1.5957270451	-1.6595372085	 0.111271
H	 0.2688007569	 3.341527847	-2.8479620094	 0.113347
H	 0.3147434973	 1.5708155718	-2.9045041559	 0.111271
H	-1.6290827243	 2.4429777541	-1.2746752676	 0.077582
121.5728	143.1485	243.9835	338.4514	438.4051	498.9968	510.5375	547.8588	635.7026	649.0379	694.0329	707.4833	782.7787	817.1102	838.9703	903.0494	916.9132	939.8723	983.8351	997.7743	1027.0694	1037.5133	1048.5946	1108.8414	1122.4171	1122.6981	1156.2004	1206.1142	1250.3434	1252.0319	1261.466	1291.3384	1295.3545	1321.5194	1376.7366	1473.8863	1495.8735	1530.8772	2225.538	3050.9832	3058.8956	3066.4432	3098.82	3103.4499	3109.0438	3115.6152	3116.5329	3499.7447
C#CC12CN3C1CCC23	C#C[C@@]12CN3[C@@H]1CC[C@@H]23	
InChI=1S/C8H9N/c1-2-8-5-9-6(8)3-4-7(8)9/h1,6-7H,3-5H2	InChI=1S/C8H9N/c1-2-8-5-9-6(8)3-4-7(8)9/h1,6-7H,3-5H2/t6-,7+,8-
