18
gdb 32653	2.03961	1.6276	0.97303	4.7317	84.12	-0.2235	-0.0411	0.1824	1214.8809	0.148454	-402.003641	-401.995125	-401.994181	-402.037126	31.38	
C	-0.0107487416	 1.5479890624	-0.0427307292	-0.374792
C	-0.0290981786	 0.0187149568	 0.0165372745	-0.170575
N	-1.3764286773	-0.5431760584	 0.0078724613	-0.046156
C	-2.0573332698	-0.9085061878	 1.1274212488	-0.08558
C	-3.3311567973	-1.3239917862	 0.77206292	-0.167636
C	-3.4263260666	-1.201150098	-0.6231499207	-0.193461
C	-2.2104964095	-0.7120500186	-1.0922282446	 0.18905
C	-1.826226461	-0.432130528	-2.4609471021	 0.069231
O	-2.558200703	-0.577886537	-3.4202646425	-0.290771
H	 1.0206656404	 1.911616007	-0.0059808099	 0.126225
H	-0.4697118721	 1.9133475503	-0.9652056088	 0.138924
H	-0.5582311222	 1.9749327462	 0.8022859276	 0.133431
H	 0.5354935867	-0.4066506763	-0.8176777118	 0.133526
H	 0.454085628	-0.330459433	 0.9334975806	 0.124232
H	-1.5845114303	-0.8498298224	 2.0962652239	 0.126614
H	-4.0887630087	-1.6817832826	 1.451778775	 0.107485
H	-4.2653435224	-1.4417482391	-1.2569765217	 0.127916
H	-0.7849356947	-0.0638873352	-2.6014851305	 0.052338
80.3244	116.8287	165.569	196.4318	230.0686	248.7881	348.9892	397.472	536.0236	618.9838	629.0867	660.3937	756.7009	795.6621	803.3101	820.1717	886.6123	903.2224	966.5279	1020.6114	1040.5567	1082.2495	1104.748	1125.6424	1190.2977	1259.998	1289.2798	1337.832	1386.8244	1406.3491	1412.9109	1441.3889	1469.9018	1489.5223	1490.1494	1502.8069	1518.1062	1569.3094	1767.8015	2866.2302	3046.0373	3062.5704	3098.9302	3120.7753	3130.3632	3242.2688	3258.216	3270.8988
CCN1C=CC=C1C=O	CCn1cccc1C=O	
InChI=1S/C7H9NO/c1-2-8-5-3-4-7(8)6-9/h3-6H,2H2,1H3	InChI=1S/C7H9NO/c1-2-8-5-3-4-7(8)6-9/h3-6H,2H2,1H3
