16
gdb 42321	3.43179	1.1521	1.03222	3.8871	69.82	-0.2692	-0.0881	0.1812	1167.431	0.124316	-437.90655	-437.898079	-437.897135	-437.940915	29.597	
O	-0.3403801441	-0.0379574372	-0.2955850643	-0.261326
C	-0.1966653295	 1.144945765	-0.1391418365	 0.284183
C	 1.125448373	 1.7851048806	-0.3439933712	 0.21795
N	 2.1404698671	 2.3164556171	-0.5020702825	-0.294746
C	-1.3117447376	 2.1248012487	 0.2367488825	 0.005563
C	-1.8092157397	 2.872083496	-1.0227620659	-0.25311
C	-2.8737064861	 1.8926223918	-1.5423036896	-0.239582
C	-3.4420673771	 1.2992844337	-0.2450639134	-0.061731
O	-2.4189181046	 1.4387995261	 0.7550006105	-0.248826
H	-0.9166817767	 2.8111276484	 0.9964895788	 0.116831
H	-2.2563364668	 3.8215585615	-0.7159347717	 0.126375
H	-1.0182812952	 3.0885922952	-1.7446769207	 0.131426
H	-3.6373045983	 2.3816193661	-2.1503185492	 0.116649
H	-2.4080172677	 1.1101770372	-2.1483773855	 0.129128
H	-4.3309501633	 1.8433527495	 0.0981780004	 0.10771
H	-3.6983903934	 0.2403228402	-0.3406199116	 0.123505
47.5877	65.472	135.5316	153.6014	241.6302	283.6409	322.6571	446.4653	582.1218	596.7514	703.6315	722.593	822.4874	871.0231	898.3688	926.6661	944.1263	953.7908	1035.6552	1056.2052	1107.4628	1140.8931	1189.4224	1200.3508	1249.4291	1267.2479	1316.3082	1345.8482	1366.5737	1401.4243	1487.5547	1498.239	1528.2635	1807.3352	2333.1146	3024.8768	3034.6578	3065.8423	3067.8202	3086.1832	3113.6923	3125.8006
O=C(C#N)C1CCCO1	O=C(C#N)[C@H]1CCCO1	
InChI=1S/C6H7NO2/c7-4-5(8)6-2-1-3-9-6/h6H,1-3H2	InChI=1S/C6H7NO2/c7-4-5(8)6-2-1-3-9-6/h6H,1-3H2/t6-/m1/s1
