12
gdb 132828	2.95402	1.5396	1.01211	3.9345	70.61	-0.288	-0.0714	0.2166	1044.5502	0.079383	-439.70341	-439.696664	-439.69572	-439.734884	24.922	
F	 0.0043686069	 0.0325774361	 0.0040629102	-0.037168
C	-0.0223892848	 1.3544766589	 0.0109496491	 0.268921
C	-1.2302400165	 2.0292550675	 0.0300886201	-0.253412
C	-1.188782272	 3.4202503632	 0.036425028	 0.026905
N	-0.0598254633	 4.1376111011	 0.0252026337	-0.267902
C	 1.0878110068	 3.469399708	 0.0068837459	-0.029769
C	 1.1794054821	 2.0678573694	-0.0012454876	-0.023867
C	 2.4402524107	 1.4038720568	-0.0210247878	 0.225216
N	 3.4741524819	 0.8845445361	-0.0371202273	-0.327684
H	-2.16350186	 1.4807022973	 0.0395857798	 0.136009
H	-2.1160857024	 3.9864066336	 0.0513562913	 0.135593
H	 2.0021310607	 4.0557592319	-0.0021782953	 0.147158
134.0285	144.7609	244.2746	371.802	380.3231	462.93	523.7094	578.1937	602.9012	614.9691	761.7043	784.0035	863.4792	868.022	968.179	1003.7141	1061.8009	1197.2946	1212.1586	1293.3482	1312.0467	1330.2199	1437.9566	1529.5919	1600.4929	1639.6258	2351.4034	3172.1472	3178.9907	3221.1075
FC1=CC=NC=C1C#N	Fc1ccncc1C#N	
InChI=1S/C6H3FN2/c7-6-1-2-9-4-5(6)3-8/h1-2,4H	InChI=1S/C6H3FN2/c7-6-1-2-9-4-5(6)3-8/h1-2,4H
