19
gdb 61265	4.85065	0.7916	0.7709	2.5291	76.25	-0.2383	0.0155	0.2538	1486.3664	0.158683	-419.169876	-419.160455	-419.15951	-419.205476	33.05	
C	 0.076750414	 1.521918268	-0.0555444838	-0.352785
N	-0.016601014	 0.0708409472	 0.0651019703	-0.065648
C	 0.7095593871	-0.4336696873	 1.2217025791	-0.290649
C	 2.1565058885	-0.2009992744	 1.1064351329	 0.276128
N	 3.2939031131	-0.0147877066	 1.0316057008	-0.305155
C	-1.3395974269	-0.5044071072	-0.0644982872	 0.006643
C	-2.6080073469	 0.1137871571	 0.6046187174	-0.09788
O	-3.2909138632	 0.1471033605	-0.6627745966	-0.268337
C	-2.1160373647	-0.2765928132	-1.3808556148	-0.106713
H	 1.1267830758	 1.8078101482	-0.1612168344	 0.153033
H	-0.4521208566	 1.8595401878	-0.9481988675	 0.1381
H	-0.3368429005	 2.0609261122	 0.8141465688	 0.107422
H	 0.3783206884	 0.0088689658	 2.1807227321	 0.133465
H	 0.5507073818	-1.51445169	 1.3008001428	 0.154747
H	-1.2537324921	-1.5701129848	 0.1614226345	 0.093384
H	-3.1293714519	-0.5119451768	 1.3385275343	 0.103242
H	-2.4732598911	 1.118346784	 1.0258699408	 0.102129
H	-1.714756775	 0.5127452723	-2.0281421822	 0.108348
H	-2.2997833658	-1.1685919828	-1.9904649172	 0.110525
44.0191	52.3073	87.6502	154.5727	226.4128	248.5213	304.496	356.2832	389.4073	409.8299	450.0697	585.4766	726.9585	859.5107	877.1338	899.7771	950.2566	994.4368	1008.6369	1025.9486	1043.1137	1093.3459	1106.9324	1147.9237	1152.9558	1162.897	1222.8866	1235.9551	1259.6977	1302.0955	1319.6117	1361.026	1386.2743	1430.8808	1462.9807	1476.2027	1493.112	1500.5126	1521.9695	1538.1234	2365.7095	2923.0482	2960.4886	3012.8745	3026.4859	3054.5641	3062.0886	3068.9715	3082.825	3088.224	3138.3953
CN(CC#N)C1COC1	CN(CC#N)C1COC1	
InChI=1S/C6H10N2O/c1-8(3-2-7)6-4-9-5-6/h6H,3-5H2,1H3	InChI=1S/C6H10N2O/c1-8(3-2-7)6-4-9-5-6/h6H,3-5H2,1H3
