19
gdb 49553	3.44283	1.16297	1.11852	2.1145	75.87	-0.2471	-0.0247	0.2223	1152.2661	0.160793	-423.018946	-423.011236	-423.010292	-423.05152	29.6	
O	 0.0343622078	-0.0453160807	-0.1782617044	-0.25802
C	 0.0417272123	 1.1429779712	 0.0270639379	 0.134571
C	 1.2809604713	 1.9894690717	 0.0294939258	-0.066597
C	 1.173710716	 3.3138487446	-0.8013208315	-0.05832
C	 0.6004328647	 4.0123023906	 0.4620327502	-0.237598
C	 1.4146797554	 2.9549057759	 1.2566665211	-0.058296
C	 2.8761249919	 3.416681921	 1.3219716047	-0.072225
O	 3.2286171628	 4.1969672354	 0.1864824383	-0.260262
C	 2.6001718276	 3.8277178083	-1.0346429235	-0.072227
H	-0.9100157671	 1.685539762	 0.2321490644	 0.070905
H	 2.1379946629	 1.343065518	-0.1835197057	 0.083733
H	 0.5971474122	 3.3007276639	-1.72932504	 0.078635
H	 0.8558529674	 5.0629065181	 0.6153725696	 0.113205
H	-0.4771199343	 3.8762692439	 0.5644820804	 0.107963
H	 1.060912174	 2.609925671	 2.2311508851	 0.078657
H	 3.0383431402	 4.0679796344	 2.1880809291	 0.111236
H	 3.5405830861	 2.5435400341	 1.4246880115	 0.096708
H	 3.1899848319	 3.0657638284	-1.5694174669	 0.0967
H	 2.5893498569	 4.7367700481	-1.6463221261	 0.111233
67.6769	146.4583	222.9924	234.7792	311.8634	369.4333	406.5433	495.1753	541.2811	644.4702	816.491	827.5486	864.663	866.3391	918.66	950.645	962.5328	992.8776	996.1476	1045.2083	1070.0025	1089.5174	1095.4748	1148.9197	1159.2813	1162.1	1226.1007	1237.4978	1259.778	1269.6296	1271.6768	1306.4085	1312.8434	1351.4193	1377.1586	1417.9431	1442.1169	1494.3081	1504.2283	1512.5583	1821.7872	2861.1105	2971.6976	2978.3706	3058.2747	3059.4246	3066.0509	3072.7034	3082.7635	3085.24	3131.941
O=CC1C2CC1COC2	O=C[C@H]1[C@H]2C[C@@H]1COC2	
InChI=1S/C7H10O2/c8-2-7-5-1-6(7)4-9-3-5/h2,5-7H,1,3-4H2	InChI=1S/C7H10O2/c8-2-7-5-1-6(7)4-9-3-5/h2,5-7H,1,3-4H2/t5-,6+,7-
