19
gdb 90944	2.95173	1.75526	1.57338	1.497	72.38	-0.2234	0.0832	0.3066	940.6576	0.161953	-423.023843	-423.016843	-423.015899	-423.055135	28.653	
C	-0.4846040418	 1.4577260132	 0.0827862564	-0.412415
C	 0.0469002809	 0.0258744172	-0.0132736239	 0.025538
C	 0.9152371496	-0.2084928499	-1.2882429683	-0.247995
C	 2.2782319035	-0.7883197022	-0.9393949387	-0.12752
C	 2.3978212586	-1.6946985446	 0.2724240977	 0.043151
O	 1.276409037	-1.7088039902	 1.1270996385	-0.265088
C	 0.8938372495	-0.3407225977	 1.2111591059	 0.158537
O	 2.102631747	 0.4122008092	 1.21086834	-0.265087
C	 2.9476772137	-0.3015064899	 0.3319216615	 0.043811
H	 0.3446104248	 2.168412085	 0.1528191778	 0.131845
H	-1.0814462106	 1.7124274825	-0.7985999164	 0.114158
H	-1.1198454444	 1.5904031583	 0.9658944066	 0.11089
H	-0.7984056132	-0.6714091889	-0.0158401875	 0.081341
H	 0.3970598912	-0.8762100003	-1.9840904972	 0.107821
H	 1.0585731792	 0.7407870985	-1.8173424838	 0.105017
H	 2.9384390106	-1.0143514043	-1.7717333007	 0.088721
H	 2.9651276228	-2.6153769364	 0.2929189797	 0.108619
H	 0.3755073718	-0.1744480274	 2.159262906	 0.090582
H	 3.9879430297	-0.0159451121	 0.4114902365	 0.108075
90.6828	235.3128	258.0879	331.9575	393.7635	457.4243	509.2742	599.3129	705.493	725.4921	757.5909	784.0983	785.1192	860.7475	906.4957	915.6117	941.4238	956.3686	1019.4753	1031.8481	1037.527	1073.5193	1074.7741	1113.429	1116.8021	1139.2182	1151.5851	1179.7968	1256.4079	1271.8723	1295.3042	1313.1375	1330.0126	1347.5796	1380.3961	1386.3959	1406.2211	1424.7478	1494.0697	1495.0181	1503.7025	3029.7843	3032.036	3038.95	3072.2003	3084.5489	3096.9862	3113.0249	3150.5681	3202.2253	3211.6166
CC1CC2C3OC1OC23	C[C@H]1C[C@@H]2[C@@H]3O[C@H]1O[C@H]23	
InChI=1S/C7H10O2/c1-3-2-4-5-6(4)9-7(3)8-5/h3-7H,2H2,1H3	InChI=1S/C7H10O2/c1-3-2-4-5-6(4)9-7(3)8-5/h3-7H,2H2,1H3/t3-,4-,5+,6-,7+/m0/s1
