14
gdb 49885	3.66759	1.25099	0.93832	3.1424	66.68	-0.2623	-0.0245	0.2378	1149.048	0.102338	-470.084702	-470.076838	-470.075894	-470.117768	28.02	
N	 0.0953390173	 1.2834032472	 0.0066300398	-0.410831
C	-0.0181499589	 0.0230647767	 0.0038861114	 0.088989
N	-1.2362801706	-0.6532306285	 0.0118646516	-0.145138
C	-1.2947554658	-2.1096798747	 0.0084307653	-0.321691
C	-2.7938973139	-2.4131671263	 0.0198197625	 0.43611
O	-3.319455525	-3.4956457669	 0.0213296862	-0.344225
N	-3.404104126	-1.180401798	 0.0282252388	-0.405266
C	-2.5180002223	-0.0852519116	 0.0238991699	 0.511457
O	-2.8383047831	 1.0681804919	 0.0296514799	-0.346944
H	 1.0812200381	 1.539864645	-0.0006380623	 0.234724
H	 0.8125912985	-0.6942814797	-0.0049280703	 0.09997
H	-0.835914114	-2.5470190401	-0.8850002438	 0.159659
H	-0.8214145712	-2.5517899171	 0.8918930197	 0.159668
H	-4.4029263632	-1.0414963779	 0.0368285412	 0.283518
69.8013	125.8782	160.3902	211.6281	212.4476	373.4719	457.0507	554.4213	556.5132	618.891	635.1723	740.4555	758.5681	802.7386	817.5206	898.2799	1015.7401	1064.9921	1106.386	1164.7095	1202.4365	1249.3118	1290.5264	1330.3661	1358.337	1417.7485	1436.5802	1493.2195	1728.5479	1859.9052	1897.0119	3032.0985	3044.3845	3084.2888	3502.801	3648.5262
N=CN1CC(=O)NC1=O	[NH][CH]N1CC(=O)NC1=O	
InChI=1S/C4H5N3O2/c5-2-7-1-3(8)6-4(7)9/h2,5H,1H2,(H,6,8,9)	InChI=1S/C4H5N3O2/c5-2-7-1-3(8)6-4(7)9/h2,5H,1H2,(H,6,8,9)
