20
gdb 33082	5.82104	0.77747	0.6973	2.5896	84.79	-0.1724	0.0437	0.2161	1663.6803	0.171462	-399.376646	-399.36685	-399.365906	-399.412323	35.181	
C	 0.0024243264	 1.541147701	-0.0511402387	-0.397955
C	-0.0937193862	 0.0217232617	-0.140338019	-0.106791
N	 0.8722005314	-0.5048157651	-1.0882598448	-0.386986
C	 0.8806658762	-1.8729567163	-1.3252456373	 0.330181
C	 0.3971133838	-2.8996139834	-0.5487506267	-0.205583
N	 0.7335886007	-4.0536732473	-1.2506195173	-0.281025
C	 1.3718652957	-3.6793515482	-2.3897141137	 0.349092
C	 1.8788002444	-4.6472625675	-3.4065343829	-0.499285
N	 1.4756114855	-2.3660530589	-2.4639746624	-0.366647
H	 1.0116711237	 1.8493364571	 0.2368949462	 0.12906
H	-0.2325975447	 2.0079498391	-1.0147535018	 0.115639
H	-0.7050608693	 1.9303603987	 0.6864303668	 0.11702
H	 0.1238490038	-0.4155798648	 0.8432040704	 0.105636
H	-1.1269080349	-0.2790881694	-0.3911959113	 0.085352
H	 0.9252525117	 0.014135368	-1.9550623905	 0.231428
H	-0.122758509	-2.9328462434	 0.3919791524	 0.112765
H	 0.5265552113	-4.995364676	-0.9659286776	 0.256088
H	 1.0756149478	-5.2715053529	-3.8154242992	 0.127389
H	 2.329784257	-4.0868318145	-4.226253535	 0.155062
H	 2.6388091147	-5.3187617776	-2.9899428977	 0.129563
40.971	66.1307	89.1944	125.3925	224.4869	262.4301	301.0314	337.2763	340.6562	460.1655	467.5304	577.038	614.7755	669.5321	694.658	736.4873	782.4413	822.1575	929.1703	972.7987	1013.4772	1047.5854	1059.6895	1084.4189	1108.0301	1155.5091	1181.6023	1260.4132	1281.4622	1294.0626	1353.4269	1397.7702	1409.734	1417.7823	1453.6796	1483.0683	1484.5522	1497.0957	1503.7641	1512.2505	1528.5457	1582.3615	1634.5583	2938.557	3023.2155	3027.4932	3035.6895	3075.1941	3101.7263	3120.5933	3147.9237	3288.2917	3573.6161	3671.5064
CCNC1=CNC(C)=N1	CCNc1c[nH]c(C)n1	
InChI=1S/C6H11N3/c1-3-7-6-4-8-5(2)9-6/h4,7H,3H2,1-2H3,(H,8,9)	InChI=1S/C6H11N3/c1-3-7-6-4-8-5(2)9-6/h4,7H,3H2,1-2H3,(H,8,9)
