18
gdb 55820	3.81494	0.99137	0.90354	2.2499	73.89	-0.2339	0.0328	0.2667	1327.6664	0.14687	-439.068634	-439.059782	-439.058838	-439.103979	31.747	
C	-0.1312161362	 1.4573347256	-0.0755019334	-0.486019
C	-0.0439814731	-0.0522812336	 0.0879355649	 0.409093
O	 0.9381676064	-0.6051844991	 0.5488062354	-0.375716
N	-1.1417233557	-0.7454619338	-0.3391772758	-0.32922
C	-1.1952566869	-2.1704112349	-0.3271275861	 0.041303
C	-2.1456652845	-2.9716396827	 0.5535024321	-0.147495
C	-3.4692084298	-2.2278041471	 0.6534098872	-0.098513
O	-3.5385156974	-2.0716229347	-0.7964824082	-0.298633
C	-2.3550652821	-2.8679497184	-0.9486348689	 0.028495
H	 0.1765255314	 1.9283406647	 0.860682237	 0.152121
H	 0.5767119887	 1.7718296019	-0.8481669983	 0.151901
H	-1.1288170872	 1.8119297845	-0.3474893796	 0.113231
H	-1.9282875072	-0.2696872798	-0.7526813519	 0.256384
H	-0.223285962	-2.6352626049	-0.4503697251	 0.132966
H	-1.8191530821	-3.7946476742	 1.1740110761	 0.10863
H	-4.3009565103	-2.8469023909	 1.0034133347	 0.11956
H	-3.4704748686	-1.2646483404	 1.1762309167	 0.110508
H	-2.3282950133	-3.5777927019	-1.7677419169	 0.111404
35.8238	43.9249	103.6521	135.6166	238.4613	274.35	383.0635	489.4666	521.561	602.5345	623.2668	645.8368	758.7424	796.1807	810.3894	940.9431	952.1478	964.3478	982.8825	1002.7644	1019.5725	1045.6452	1051.0381	1056.6282	1095.7424	1120.0761	1164.8054	1209.9501	1253.552	1261.1745	1315.8769	1342.3842	1394.037	1420.2773	1470.7906	1486.2891	1511.7648	1532.0944	1779.0701	3034.2568	3048.6674	3087.8355	3120.9162	3136.1029	3174.3112	3186.7697	3211.3258	3631.5535
CC(=O)NC1C2COC12	CC(=O)N[C@H]1[C@H]2CO[C@@H]12	
InChI=1S/C6H9NO2/c1-3(8)7-5-4-2-9-6(4)5/h4-6H,2H2,1H3,(H,7,8)	InChI=1S/C6H9NO2/c1-3(8)7-5-4-2-9-6(4)5/h4-6H,2H2,1H3,(H,7,8)/t4-,5+,6-/m1/s1
