16
gdb 78619	2.6649	1.69576	1.32503	3.4523	69.3	-0.2472	-0.0126	0.2346	984.5978	0.123294	-437.845363	-437.837432	-437.836488	-437.87758	30.084	
C	 0.0427208628	 1.4707511503	-0.0003295495	-0.509264
C	-0.0787223856	-0.0221336949	 0.0005210114	 0.325619
C	-0.0220291148	-0.8297880608	 1.2680068376	-0.237666
N	 1.0828591699	-0.9379058333	 0.2091973812	-0.18791
C	 0.1695759184	-2.0325578874	-0.4485835815	-0.215222
C	-0.6468729224	-0.8950725793	-1.1066012612	 0.071252
O	-2.0432460544	-0.9818446654	-1.1806955309	-0.429353
C	-0.4741934361	-2.2135138227	 0.9276613978	 0.499019
O	-0.9232774972	-3.1379454339	 1.5385188995	-0.332713
H	 0.7174517298	 1.8081991482	 0.7914045527	 0.137185
H	 0.4393511618	 1.8218963067	-0.9584503513	 0.131014
H	-0.9363823389	 1.9336628469	 0.1574665109	 0.142646
H	 0.1490159266	-0.3725732574	 2.2344256027	 0.120616
H	 0.6083175139	-2.8593495648	-1.0012429465	 0.103706
H	-0.1955987846	-0.6001429974	-2.0642143713	 0.087583
H	-2.2881138893	-1.4906816748	-1.9602864418	 0.293484
132.8652	165.714	187.0178	230.7216	247.9584	291.5282	412.088	464.2878	547.1956	602.1637	670.8765	705.6396	759.5028	796.6915	834.7245	866.4442	956.5065	966.8386	989.6645	1015.2199	1075.0131	1108.8816	1139.2998	1145.3478	1168.9354	1210.5177	1225.6575	1278.4111	1336.6127	1369.588	1415.616	1457.2623	1482.3814	1491.7923	1900.2381	3012.4033	3039.1436	3108.3661	3119.4293	3162.7395	3208.006	3820.5573
CC12C3N1C(C2O)C3=O	C[C@]12[C@@H]3N1[C@H]([C@H]2O)C3=O	
InChI=1S/C6H7NO2/c1-6-4-3(8)2(5(6)9)7(4)6/h2,4-5,9H,1H3	InChI=1S/C6H7NO2/c1-6-4-3(8)2(5(6)9)7(4)6/h2,4-5,9H,1H3/t2-,4+,5+,6+,7?/m0/s1
