18
gdb 7150	7.35984	0.78649	0.72508	4.448	67.19	-0.2459	-0.0121	0.2338	1567.5617	0.149533	-422.054365	-422.044418	-422.043474	-422.090373	32.628	
C	 0.0680139381	 1.4057039496	-0.0927262018	-0.22616
O	 0.1342602458	 0.0066680222	 0.0589036013	-0.210061
C	 0.5386429464	-0.6458469623	-1.1038468299	-0.159794
C	 0.5239187566	-2.1595440946	-0.8923682964	 0.333608
O	-0.0089418392	-2.6879243692	 0.0442999723	-0.254903
C	 1.2532357317	-2.935268488	-1.9888882211	-0.159762
O	 0.948158174	-4.2920201064	-1.903178706	-0.210058
C	 1.6387792614	-5.0699676854	-2.853194713	-0.226161
H	 1.048126108	 1.8375072257	-0.3509937123	 0.104538
H	-0.6522850146	 1.6979979719	-0.8732090238	 0.106286
H	-0.2592401459	 1.8182306215	 0.8640503639	 0.13629
H	-0.1337229199	-0.4224868748	-1.9548353254	 0.110042
H	 1.5494822319	-0.3313101736	-1.4255613495	 0.099484
H	 0.986263717	-2.5118375527	-2.9756503066	 0.099476
H	 2.3375468233	-2.7495631477	-1.8625380763	 0.110046
H	 2.7304528	-4.9939735054	-2.7271204163	 0.106284
H	 1.3358096178	-6.1080984033	-2.7009367881	 0.136295
H	 1.3908579177	-4.7734978375	-3.884898271	 0.104548
56.8222	68.3471	88.2254	93.9934	137.5882	226.1643	238.687	241.0115	321.9408	369.749	414.1711	478.9396	721.5834	842.7221	916.49	944.9047	1035.7128	1071.3708	1103.0879	1171.3201	1180.1244	1182.1653	1185.4626	1239.8982	1240.9015	1244.5346	1277.2557	1395.5346	1416.8295	1466.8799	1471.2967	1486.9456	1487.1139	1491.2752	1493.0098	1515.7668	1517.9402	1854.003	2918.2181	2927.4549	2938.52	2949.005	2970.0464	2970.9166	3014.6021	3014.7417	3122.0607	3122.2015
COCC(=O)COC	COCC(=O)COC	
InChI=1S/C5H10O3/c1-7-3-5(6)4-8-2/h3-4H2,1-2H3	InChI=1S/C5H10O3/c1-7-3-5(6)4-8-2/h3-4H2,1-2H3
