16
gdb 34153	2.79325	1.67283	1.36093	4.7965	72.81	-0.2547	-0.0073	0.2474	965.9966	0.125991	-400.704875	-400.698059	-400.697114	-400.736142	27.015	
N	-0.0447140942	-1.1157019605	 0.1154931177	-0.343413
C	-0.044467508	 0.0400579924	 0.0875541967	 0.164979
C	-0.0137819067	 1.477716553	-0.0008449968	 0.35547
O	-0.6203197717	 2.2861608675	 1.0586293425	-0.337368
C	-0.0852654072	 3.2551611283	 0.0844507323	 0.02121
C	 1.2266554209	 2.4312916443	-0.0764221133	-0.068402
C	 1.7199822812	 2.5108280648	-1.5141051499	-0.254019
C	 0.3582608342	 2.4928091807	-2.2799635339	-0.254019
C	-0.612394903	 2.4069626442	-1.1107374691	-0.068412
H	-0.2197740127	 4.3136995542	 0.2987095947	 0.108002
H	 1.9262347552	 2.4061747803	 0.7572996757	 0.099742
H	 2.2935636545	 3.4241044226	-1.6964184927	 0.114743
H	 2.3597109831	 1.663375675	-1.7752828115	 0.123502
H	 0.1978770733	 3.3963767655	-2.8750679742	 0.114744
H	 0.2663097227	 1.635677805	-2.9526552332	 0.123502
H	-1.6874554616	 2.3583699827	-1.2751064351	 0.09974
127.0277	148.8224	248.5428	347.3487	471.499	525.2027	544.0554	551.2827	687.3206	722.9602	763.1228	793.2821	832.9847	909.6686	923.8433	926.7304	968.4221	970.0795	1003.3143	1037.6179	1048.7101	1107.8252	1138.8694	1197.7363	1213.6429	1236.3948	1248.7633	1251.1147	1270.7172	1274.6091	1323.4986	1380.4726	1485.6182	1507.0236	2353.9053	3056.6607	3065.2272	3092.8448	3111.0091	3138.451	3145.574	3152.0105
N#CC12OC3C1CCC23	N#C[C@@]12O[C@H]3[C@@H]1CC[C@@H]23	
InChI=1S/C7H7NO/c8-3-7-4-1-2-5(7)6(4)9-7/h4-6H,1-2H2	InChI=1S/C7H7NO/c8-3-7-4-1-2-5(7)6(4)9-7/h4-6H,1-2H2/t4-,5+,6-,7+
