19
gdb 41756	2.22223	2.11081	1.80931	1.2543	79.6	-0.2327	0.0067	0.2395	906.1774	0.162866	-385.896802	-385.889922	-385.888978	-385.927621	28.689	
C	-0.1103122142	 1.3954075115	-0.2572729338	-0.049125
O	 0.8964777955	 2.1715311653	 0.3742624335	-0.276696
C	 2.0522749742	 1.4666930881	 0.8491519631	 0.050123
C	 1.7883238928	 0.9807126795	 2.2904223378	-0.252087
C	 0.6515972672	 0.0023439546	 2.4319261703	-0.028094
C	-0.1081356971	-0.4759696792	 1.445694079	-0.073237
C	 0.0717888016	-0.1209088084	-0.023100696	-0.135207
C	 1.4702467893	-0.4662311567	-0.4950123725	-0.074324
C	 2.4450403596	 0.3309655949	-0.0665073911	-0.069395
H	-1.07666293	 1.7299049132	 0.1395802128	 0.098842
H	-0.0972167562	 1.5887402706	-1.3404252921	 0.088559
H	 2.8462227696	 2.2197189984	 0.8817073356	 0.07908
H	 2.7092682219	 0.5438186728	 2.7065293902	 0.100622
H	 1.5737100641	 1.8662276975	 2.9044107168	 0.113591
H	 0.4509456976	-0.3284700677	 3.449412415	 0.085451
H	-0.9063792348	-1.173555408	 1.684783017	 0.085051
H	-0.6804758975	-0.6454745343	-0.6187178604	 0.069689
H	 1.6372863384	-1.3108094905	-1.1555081792	 0.093512
H	 3.4880687978	 0.1960842984	-0.3334244059	 0.093643
146.8196	255.8678	294.2322	333.896	383.6632	449.4654	533.0771	584.2046	612.7459	698.4983	738.0053	781.1064	809.7964	861.3315	873.4067	921.9068	962.6649	973.8518	974.8412	985.3071	1001.7449	1032.9354	1058.6752	1095.7742	1102.0787	1177.774	1217.922	1224.9578	1247.832	1297.3684	1319.3665	1341.3602	1358.4394	1373.9192	1400.6587	1407.786	1424.8371	1456.893	1514.6266	1705.3047	1719.0174	2986.2537	2994.0628	3029.0541	3043.7436	3054.5071	3067.6099	3134.6773	3164.3707	3168.7239	3192.7299
C1OC2CC=CC1C=C2	C1O[C@H]2CC=C[C@@H]1C=C2	
InChI=1S/C8H10O/c1-2-7-4-5-8(3-1)9-6-7/h1-2,4-5,7-8H,3,6H2	InChI=1S/C8H10O/c1-2-7-4-5-8(3-1)9-6-7/h1-2,4-5,7-8H,3,6H2/t7-,8+/m1/s1
