17
gdb 11425	3.66977	1.64464	1.30566	2.8113	65.9	-0.262	0.0291	0.291	968.0343	0.142996	-401.02285	-401.015102	-401.014158	-401.055332	28.213	
C	 0.087768492	 1.1495772337	 0.4383700023	-0.245294
O	-0.135730208	-0.238360974	 0.2465858847	-0.236564
C	-1.420942308	-0.5520615587	-0.184158983	 0.210634
C	-1.522067698	-2.0674412138	-0.3667665475	-0.253378
C	-1.9322297219	-2.5317874321	 1.0374425349	-0.302223
C	-2.6842002624	-1.3381166905	 1.585256028	 0.417954
N	-3.4640533327	-1.3367038563	 2.5755171183	-0.541281
O	-2.4008161966	-0.2322911819	 0.8171639608	-0.244962
H	 1.1370023338	 1.2660722859	 0.7157877306	 0.132577
H	-0.1043016789	 1.7127513191	-0.4869448871	 0.110082
H	-0.5477748489	 1.5522245944	 1.2348620534	 0.131565
H	-1.6918722715	 0.0435600216	-1.066183533	 0.078168
H	-2.3026498766	-2.2946036624	-1.0979892463	 0.117577
H	-0.5773915008	-2.4812000047	-0.719705253	 0.124553
H	-2.5535583979	-3.4270014952	 1.0595771624	 0.135663
H	-1.0541847401	-2.7158435102	 1.6642127767	 0.144073
H	-3.8298889134	-0.3975177949	 2.7422387578	 0.220854
85.2991	119.9256	136.5149	195.59	280.5141	409.6882	443.8519	501.6544	548.3831	662.2443	762.3092	811.0258	872.8403	899.3893	915.4282	954.9249	973.8732	1043.3662	1068.3225	1080.7427	1142.2105	1170.0843	1181.4561	1219.2479	1235.5124	1277.1153	1313.191	1338.3078	1386.7332	1404.0462	1467.8228	1480.4041	1485.1689	1488.7621	1511.8674	1785.2456	2996.6984	3021.5054	3069.0804	3072.556	3075.1039	3132.8756	3134.4319	3142.3875	3470.3321
COC1CCC(=N)O1	CO[C@H]1CC[C]([NH])O1	
InChI=1S/C5H9NO2/c1-7-5-3-2-4(6)8-5/h5-6H,2-3H2,1H3	InChI=1S/C5H9NO2/c1-7-5-3-2-4(6)8-5/h5-6H,2-3H2,1H3/t5-/m1/s1
