18
gdb 20303	4.82343	1.35276	1.32533	1.9614	71.8	-0.2503	0.0877	0.338	998.6737	0.154767	-347.74455	-347.737444	-347.7365	-347.776347	27.277	
C	 0.0903824899	 1.4462456429	-0.0527904409	-0.188644
O	 1.2459435536	 0.6079355996	-0.0414197205	-0.241511
C	-0.0466726899	-0.016292295	-0.0680035025	 0.07783
C	-0.4343512833	-0.7764450346	 1.1554877174	-0.021268
C	-1.6959984555	-1.5890359509	 1.3064774216	-0.077958
C	-2.0656788012	-2.3271943047	 0.0113094299	-0.231177
C	-0.6614294074	-3.0168667751	 0.0211610033	-0.233271
C	-0.3227700018	-2.2719372449	 1.3193336018	-0.06882
H	-0.1014557766	 1.9910950923	 0.8714366831	 0.109408
H	-0.0679103549	 2.0190076195	-0.9661091586	 0.110937
H	-0.2817475426	-0.4804817252	-1.024567425	 0.092976
H	-0.1704727304	-0.2444471942	 2.0671989542	 0.089622
H	-2.3766624124	-1.4070364272	 2.1300793954	 0.084288
H	-2.8710678975	-3.0489123904	 0.1629640275	 0.10522
H	-2.3223496692	-1.7094785141	-0.8550959086	 0.0974
H	-0.7398397869	-4.0961425444	 0.1663253373	 0.105291
H	-0.002494569	-2.8349713795	-0.8335223614	 0.103022
H	 0.2206325352	-2.6953298342	 2.1557026759	 0.086658
57.7761	173.1102	178.7632	294.2057	337.0398	489.8429	513.9827	737.721	767.5848	786.8454	793.7734	850.2592	857.8571	931.9658	944.0873	959.8506	975.6027	1011.463	1027.9729	1052.6375	1075.0542	1098.8454	1116.1741	1140.1151	1155.9069	1168.6059	1221.5909	1229.7102	1244.1135	1262.7446	1296.6052	1304.0019	1325.3816	1376.7611	1485.2139	1487.4291	1506.3965	1532.875	3047.6667	3055.5009	3076.0943	3097.1123	3114.2147	3121.7422	3135.9297	3161.5137	3170.9927	3184.2149
C1OC1C1C2CCC12	C1O[C@H]1[C@H]1[C@H]2CC[C@@H]12	
InChI=1S/C7H10O/c1-2-5-4(1)7(5)6-3-8-6/h4-7H,1-3H2	InChI=1S/C7H10O/c1-2-5-4(1)7(5)6-3-8-6/h4-7H,1-3H2/t4-,5+,6-,7-/m1/s1
