16
gdb 33771	3.69591	1.45154	1.23783	4.547	73.	-0.2592	-0.0246	0.2346	999.6387	0.125941	-400.743916	-400.736914	-400.73597	-400.775128	27.939	
N	 0.005165937	-1.1650466846	-0.0561260046	-0.332009
C	-0.0013359252	-0.0105320127	-0.0126901792	 0.222871
C	-0.0510710213	 1.4469931441	 0.0481903444	 0.258093
C	-0.2680581054	 2.1223106578	 1.4292269134	-0.274151
C	 0.7268714658	 3.1406902685	 0.8249584083	 0.033556
O	 1.2618132845	 2.0684992025	-0.0270193821	-0.311839
C	-0.0218942333	 4.1162131565	-0.0578623782	-0.056702
C	-0.83282199	 3.5750561757	-0.9661819322	-0.069456
C	-0.9477740445	 2.0668929834	-1.0471684935	-0.290995
H	-1.2706743612	 2.4620334689	 1.6892666051	 0.117896
H	 0.1739726407	 1.5263655373	 2.2276759474	 0.132418
H	 1.4986844356	 3.5822174735	 1.4550236112	 0.092505
H	 0.1066462124	 5.1856137932	 0.0643878358	 0.103176
H	-1.4115763299	 4.1707901658	-1.6648431591	 0.107537
H	-0.6234215886	 1.7037220295	-2.0297497889	 0.138767
H	-1.9864553568	 1.7382027006	-0.9168619278	 0.128334
149.5876	151.6317	284.0007	343.4571	426.5125	449.557	501.914	551.9775	567.6118	632.1925	692.8487	736.7215	866.6846	886.1353	902.0179	925.1943	946.9879	959.6087	974.2533	1004.215	1048.3758	1073.5853	1165.066	1182.5154	1198.1683	1224.5642	1239.2595	1271.9219	1333.5263	1356.6727	1386.0401	1462.8754	1486.2664	1696.1623	2360.2835	3030.8779	3065.5844	3088.9778	3119.9502	3159.6142	3175.7948	3202.3072
N#CC12CC(O1)C=CC2	N#C[C@@]12C[C@@H](O1)C=CC2	
InChI=1S/C7H7NO/c8-5-7-3-1-2-6(4-7)9-7/h1-2,6H,3-4H2	InChI=1S/C7H7NO/c8-5-7-3-1-2-6(4-7)9-7/h1-2,6H,3-4H2/t6-,7+/m0/s1
