17
gdb 50876	6.86647	0.62445	0.57641	4.1755	77.62	-0.2541	-0.0251	0.229	1816.9253	0.134371	-418.009148	-417.999427	-417.998483	-418.044999	34.058	
N	-0.0927415727	 1.4937673557	 0.0454550152	-0.498132
C	-0.039581943	 0.2284751414	 0.0545500724	 0.39102
C	-1.284975234	-0.6250984525	 0.164002253	-0.290537
C	-2.5737389379	 0.2058412514	 0.2622303591	-0.349355
C	-3.7589229886	-0.6362550369	 0.3662235192	 0.281693
C	-4.7215112274	-1.3511585389	 0.4511746845	-0.42763
N	 1.1388084962	-0.5542432525	-0.0324510848	-0.344867
C	 2.4280219423	-0.0951702764	-0.1416607278	 0.168684
O	 2.7650246636	 1.0663402084	-0.1811202416	-0.297156
H	 0.8392118477	 1.9009069381	-0.0342550407	 0.254573
H	-1.3402405158	-1.2941850023	-0.7047890685	 0.129904
H	-1.1973250195	-1.2791373808	 1.0415386437	 0.129729
H	-2.5040451311	 0.8769361148	 1.1243977268	 0.152444
H	-2.6458014314	 0.8621596916	-0.6110241239	 0.15258
H	-5.5842680827	-1.9651935255	 0.5274080627	 0.193386
H	 1.0244002284	-1.5570300199	-0.0124031428	 0.257861
H	 3.151609796	-0.9315454858	-0.1910200865	 0.095805
47.5724	53.2432	100.0717	112.4058	198.9345	253.9333	300.8387	333.5393	345.5215	511.3174	535.0837	551.9582	602.6845	617.2999	644.6981	782.7988	814.9754	921.0267	966.1452	979.8033	1023.7847	1025.7378	1050.6118	1071.9807	1184.9932	1187.2702	1257.9221	1306.2373	1334.7787	1404.0707	1440.189	1461.7885	1474.3445	1508.2437	1739.6113	1815.2844	2240.2239	2949.5298	3021.9564	3051.7618	3057.3143	3091.472	3491.1655	3507.3908	3610.5294
N=C(CCC#C)NC=O	N=C(CCC#C)NC=O	
InChI=1S/C6H8N2O/c1-2-3-4-6(7)8-5-9/h1,5H,3-4H2,(H2,7,8,9)	InChI=1S/C6H8N2O/c1-2-3-4-6(7)8-5-9/h1,5H,3-4H2,(H2,7,8,9)
