19
gdb 55063	3.53601	0.8161	0.75513	4.1923	78.63	-0.2454	-0.0268	0.2186	1543.5563	0.156272	-423.048233	-423.038417	-423.037473	-423.084216	34.464	
C	-0.0951219069	 1.4946350394	 0.0413382743	-0.483779
C	 0.1532904637	-0.0010395244	 0.0544543882	 0.39484
O	 0.4801578667	-0.5859099711	 1.0689225662	-0.326963
C	-0.0301872595	-0.7069648948	-1.2480197986	-0.141637
C	 0.7052929867	-2.0156337066	-1.4740402809	-0.284037
C	-0.7788329235	-2.0483831044	-1.3071097714	-0.016103
C	-1.4342772522	-2.6699548773	-0.0884916429	-0.313718
C	-1.4836545045	-4.1792120131	-0.2006786236	 0.165419
O	-2.4699685973	-4.8501313446	-0.0391918313	-0.240974
H	 0.5921582861	 1.9848793778	-0.6580018267	 0.142448
H	-1.1107110273	 1.7078326651	-0.3114992494	 0.14258
H	 0.0439222794	 1.9047240675	 1.0419022049	 0.144105
H	-0.1786665787	-0.0626833395	-2.1078233264	 0.092254
H	 1.1348390494	-2.1902868678	-2.4536095445	 0.122786
H	 1.307734571	-2.3435514277	-0.6333212438	 0.142343
H	-1.3512412086	-2.1664687384	-2.2235424624	 0.106981
H	-0.8433181654	-2.4199315655	 0.8013802817	 0.160928
H	-2.4534847653	-2.3005449229	 0.059098054	 0.11781
H	-0.5038393238	-4.6493340216	-0.4496830773	 0.074717
53.2272	62.1468	86.5942	139.0779	151.374	198.5609	261.1969	340.3097	374.6436	438.64	504.4769	597.475	633.4781	759.0461	777.8244	826.2	867.0385	898.6258	952.7303	977.4952	1010.5447	1051.7321	1070.6107	1085.7185	1116.6507	1135.587	1167.5022	1188.2395	1233.0732	1253.5598	1297.565	1377.8625	1401.312	1418.0301	1426.4515	1462.5147	1464.4088	1474.9498	1480.1207	1780.5707	1834.8548	2862.6743	3034.2855	3038.7105	3093.8278	3099.0512	3137.4882	3142.0188	3155.6157	3169.0547	3230.9236
CC(=O)C1CC1CC=O	CC(=O)[C@H]1C[C@H]1CC=O	
InChI=1S/C7H10O2/c1-5(9)7-4-6(7)2-3-8/h3,6-7H,2,4H2,1H3	InChI=1S/C7H10O2/c1-5(9)7-4-6(7)2-3-8/h3,6-7H,2,4H2,1H3/t6-,7-/m1/s1
