17
gdb 54192	2.63654	1.57451	1.22081	1.8133	68.38	-0.2555	-0.031	0.2245	1039.3124	0.13335	-458.939729	-458.931288	-458.930344	-458.972824	32.014	
C	 0.9866815336	 0.0723361714	 0.4212385421	-0.495181
C	-0.3496330183	 0.3820208567	-0.1988137706	 0.331834
O	-0.6793705782	 1.5122865459	-0.5044627118	-0.334682
C	-1.3527080232	-0.7438070879	-0.4675111012	 0.308118
O	-2.4300814503	-0.2370861339	-1.1948339151	-0.479851
C	-0.8595964579	-2.1208845237	-1.0599570257	-0.319716
C	-1.435808592	-2.8176999064	 0.1793532369	 0.03631
O	-0.7631572672	-2.2800195251	 1.3286668822	-0.237712
C	-1.8559239307	-1.544592522	 0.7797677014	-0.046093
H	 1.6343029604	-0.3859606818	-0.3362809688	 0.148819
H	 1.4520365155	 0.9961601868	 0.7673556129	 0.141437
H	 0.8846357814	-0.6582313854	 1.2263434683	 0.173568
H	-2.280629987	 0.7252430087	-1.2124796136	 0.293246
H	-1.4198449106	-2.3193264234	-1.9749218413	 0.136185
H	 0.2097504761	-2.2667215407	-1.2275454317	 0.109761
H	-1.848103456	-3.8142788637	 0.2773415152	 0.115239
H	-2.6855968454	-1.2815450354	 1.4257440311	 0.118718
68.4301	134.1767	184.9999	193.0891	292.5718	360.1518	404.0509	411.3286	471.4399	495.6381	550.7015	621.8712	657.0635	781.3078	839.1648	860.3509	885.6416	931.5227	973.6495	991.4617	1006.084	1033.0047	1065.3896	1075.89	1139.5383	1178.6717	1211.9097	1231.0251	1256.6774	1291.7053	1384.2614	1391.5534	1429.4354	1458.6039	1466.2177	1471.0165	1776.997	3041.6481	3074.865	3113.436	3144.4558	3162.9673	3188.3728	3205.0795	3626.2951
CC(=O)C1(O)CC2OC12	CC(=O)[C@@]1(O)C[C@H]2O[C@@H]12	
InChI=1S/C6H8O3/c1-3(7)6(8)2-4-5(6)9-4/h4-5,8H,2H2,1H3	InChI=1S/C6H8O3/c1-3(7)6(8)2-4-5(6)9-4/h4-5,8H,2H2,1H3/t4-,5-,6+/m1/s1
