19
gdb 41809	2.38955	2.0254	1.52313	1.0041	75.52	-0.2376	0.0113	0.2489	948.9393	0.162601	-423.038325	-423.031192	-423.030248	-423.069787	28.611	
C	-0.0863577519	 1.4107240256	-0.3899503226	-0.087658
O	 1.0592751686	 1.9914834474	 0.2203257174	-0.274109
C	 2.011206064	 0.9545880027	 0.4472765675	 0.199094
C	 2.3246519117	 0.8284973385	 1.9375314987	-0.224113
C	 1.0970494599	 0.8636450708	 2.8619549245	-0.257029
C	-0.0834432301	-0.0206964134	 2.5342272186	-0.050482
C	-0.5475755763	-0.4066669528	 1.3439148558	-0.062491
C	 0.03888789	-0.0770532833	-0.0084519584	 0.012534
O	 1.456802625	-0.2377597562	-0.0690388464	-0.254042
H	-0.9821666778	 1.8938220779	 0.0072282483	 0.113719
H	-0.0534486714	 1.5366491076	-1.4815478746	 0.097363
H	 2.9254643771	 1.1581017777	-0.1267592435	 0.080683
H	 2.8759686419	-0.1096527567	 2.0626247026	 0.112378
H	 3.0011574005	 1.6410855027	 2.2270783205	 0.100978
H	 1.4336943523	 0.630324459	 3.8784509683	 0.101485
H	 0.7287503366	 1.8977399116	 2.9079717635	 0.129956
H	-0.6580944969	-0.3309002917	 3.4056488414	 0.090287
H	-1.4593485239	-0.9993606955	 1.3178912916	 0.084836
H	-0.3860839694	-0.7314355521	-0.7734165331	 0.086608
105.78	181.8523	253.9348	295.4734	366.7795	440.2116	484.7446	601.7225	686.5617	702.8733	779.7488	783.6921	826.1499	850.8127	902.1871	908.4149	938.1186	978.7143	999.9934	1027.8659	1041.8828	1055.0777	1079.5967	1106.6018	1166.7677	1210.9844	1223.7595	1247.0491	1281.9881	1292.2907	1331.0632	1353.5506	1372.3884	1395.9381	1397.7008	1408.8204	1430.0582	1467.4465	1477.0263	1514.1562	1722.4537	3000.2877	3011.3484	3017.5275	3040.3334	3057.5517	3083.9405	3085.0902	3100.7692	3128.8502	3155.6341
C1OC2CCC=CC1O2	C1O[C@H]2CCC=C[C@@H]1O2	
InChI=1S/C7H10O2/c1-2-4-7-8-5-6(3-1)9-7/h1,3,6-7H,2,4-5H2	InChI=1S/C7H10O2/c1-2-4-7-8-5-6(3-1)9-7/h1,3,6-7H,2,4-5H2/t6-,7+/m0/s1
