20
gdb 50629	2.80445	1.30013	0.99275	3.6018	82.14	-0.2339	0.01	0.244	1223.0085	0.173345	-403.186562	-403.178167	-403.177223	-403.220209	31.719	
O	-0.0769039358	-0.0378341083	 0.2222845594	-0.346106
C	-0.010132136	 1.1713500281	 0.1384598915	 0.148328
N	 1.1320216757	 1.8939729399	-0.0449451833	-0.03086
C	 2.4056034113	 1.2037099178	-0.193631919	-0.17413
C	 3.3228895961	 1.3077489754	 1.0339437029	-0.248189
C	 3.8388635254	 2.6887397676	 1.3635492501	-0.053322
C	 3.1542392058	 3.8334358606	 1.401087879	-0.055684
C	 1.6823384409	 4.0445571043	 1.1331295144	-0.240086
C	 1.1073275407	 3.3436945261	-0.1083600176	-0.17994
H	-0.902355472	 1.826191901	 0.1989906756	 0.069336
H	 2.1652796652	 0.1553337256	-0.3803693026	 0.143061
H	 2.9209452166	 1.6098339582	-1.0735016707	 0.103586
H	 2.7869333401	 0.8930319715	 1.8994432645	 0.129744
H	 4.1754775873	 0.6411058308	 0.8629762277	 0.106831
H	 4.8927879134	 2.7360305387	 1.6297162382	 0.089799
H	 3.6990516214	 4.7278468603	 1.6954843135	 0.089217
H	 1.0974230132	 3.7251587275	 2.0082654983	 0.119296
H	 1.4919843995	 5.1179861102	 1.0198434879	 0.105491
H	 1.6583550406	 3.6695240482	-1.00053398	 0.110307
H	 0.0651114306	 3.6540071664	-0.2385739498	 0.113322
44.8616	107.8485	146.863	282.5245	308.4346	329.0049	374.5347	402.6326	468.657	522.8355	637.3324	678.9406	722.8459	763.252	845.9064	891.9822	948.8431	954.5636	1003.7881	1020.5403	1027.4851	1053.1785	1069.9928	1076.6916	1190.6863	1215.8137	1241.3389	1252.4073	1287.5481	1329.6147	1367.8935	1375.1979	1380.4385	1415.3841	1430.9138	1436.67	1460.3707	1470.8652	1471.158	1475.2593	1486.9991	1725.9704	1789.7725	2929.2644	3002.603	3011.9325	3016.895	3026.3213	3061.3855	3065.8455	3074.5207	3120.087	3134.4254	3158.5625
O=CN1CCC=CCC1	O=CN1CCC=CCC1	
InChI=1S/C7H11NO/c9-7-8-5-3-1-2-4-6-8/h1-2,7H,3-6H2	InChI=1S/C7H11NO/c9-7-8-5-3-1-2-4-6-8/h1-2,7H,3-6H2
