14
gdb 34779	2.20518	1.81923	1.21548	8.0776	69.64	-0.2624	-0.0006	0.2618	999.8952	0.102077	-395.693159	-395.685595	-395.68465	-395.725588	27.884	
N	-0.3124292591	-1.1231044497	 0.113271399	-0.325932
C	-0.1428137868	 0.0199851872	 0.0949222058	 0.314365
C	 0.0093830245	 1.4511222822	 0.0518991976	-0.1779
C	 0.5174791685	 2.2599877874	 1.2172617558	-0.026604
N	 1.4943013524	 1.4464894853	 1.9585550332	-0.30803
C	 2.4385559746	 1.5470816318	 0.797980377	-0.150773
C	 3.0785087249	 0.3043189375	 0.3618733811	 0.317964
N	 3.6328716486	-0.6432318042	 0.0029979714	-0.311148
C	 1.3361418057	 2.1914470562	-0.0582122528	-0.115685
H	-0.768456814	 1.9522621801	-0.5179275084	 0.146547
H	-0.0500498795	 3.0614627864	 1.6726012206	 0.125615
H	 1.8615075088	 1.9131099526	 2.779661274	 0.244776
H	 3.224868991	 2.2885751755	 0.975577445	 0.138286
H	 1.5136106604	 2.9002878618	-0.8548918494	 0.12852
84.6951	127.5875	166.4305	222.9701	345.9189	383.2627	520.2053	532.1802	581.5418	614.8407	711.9443	755.4904	807.8071	831.789	905.1101	941.971	976.9383	1011.7972	1028.9215	1051.4995	1081.7145	1094.758	1169.2065	1194.4422	1277.4865	1315.6066	1351.1381	1376.5578	1435.7096	2363.1449	2364.684	3053.185	3156.6737	3199.2792	3214.9372	3555.2715
N#CC1C2NC(C#N)C12	N#C[C@H]1[C@H]2N[C@@H](C#N)[C@@H]12	
InChI=1S/C6H5N3/c7-1-3-5-4(2-8)9-6(3)5/h3-6,9H	InChI=1S/C6H5N3/c7-1-3-5-4(2-8)9-6(3)5/h3-6,9H/t3-,4+,5-,6-/m1/s1
