19
gdb 94370	2.91219	1.44244	1.24666	0.8213	74.38	-0.2387	0.0713	0.31	1078.7985	0.158413	-422.967514	-422.959378	-422.958434	-423.000529	31.165	
C	-0.3621647864	 1.412321351	 0.0125474118	-0.410581
C	 0.0336296176	-0.0545924541	-0.0653758119	-0.104034
C	 1.3538296341	-0.389685269	-0.7939653541	-0.092575
O	 1.9303514186	-0.9402313197	 0.4129744091	-0.327299
C	 0.7306690047	-0.6855335128	 1.160297274	 0.445783
C	 0.9538653242	-0.0030233879	 2.5550595629	-0.334139
C	 0.3164296025	-1.237350198	 3.2031351802	 0.036037
O	-0.9912461481	-1.3785249346	 2.6270709736	-0.249648
C	 0.1335163476	-1.8955202616	 1.901519388	-0.062258
H	 0.4729271756	 2.0323009016	 0.3563795772	 0.119551
H	-0.6717642193	 1.7841522187	-0.9702309175	 0.116708
H	-1.1982203922	 1.555552078	 0.7040821559	 0.130917
H	-0.8142663	-0.6554194823	-0.4056905848	 0.085884
H	 1.2928878233	-1.1370645655	-1.5937687571	 0.102397
H	 1.9235391351	 0.4757350594	-1.1552978215	 0.100408
H	 2.0274427007	 0.0787991021	 2.7435026095	 0.122388
H	 0.460127571	 0.9511123549	 2.7526405577	 0.108121
H	 0.4700540381	-1.6586857811	 4.1892333616	 0.106968
H	 0.1231430629	-2.940183349	 1.6117265353	 0.105373
58.5321	115.5345	190.7599	246.171	284.8006	340.7071	404.5644	452.0717	486.6006	549.71	762.0326	784.685	844.8396	864.2329	870.3658	891.6198	916.6605	953.418	970.4015	995.3961	1018.2426	1033.4011	1081.443	1104.1367	1126.3697	1142.8798	1156.467	1193.2389	1206.13	1223.2423	1251.9929	1261.5885	1303.8348	1340.8124	1379.3964	1385.6834	1409.0632	1461.2502	1494.8808	1499.3277	1528.613	3014.9734	3029.8855	3054.9538	3066.5372	3070.8537	3097.9096	3107.266	3128.5554	3181.245	3198.1806
CC1COC11CC2OC12	C[C@H]1CO[C@]21C[C@H]1O[C@@H]21	
InChI=1S/C7H10O2/c1-4-3-8-7(4)2-5-6(7)9-5/h4-6H,2-3H2,1H3	InChI=1S/C7H10O2/c1-4-3-8-7(4)2-5-6(7)9-5/h4-6H,2-3H2,1H3/t4-,5+,6+,7-/m0/s1
