17
gdb 80157	2.45792	1.60938	1.36712	4.5145	74.93	-0.2347	-0.0582	0.1765	1015.1317	0.1375	-418.028716	-418.020799	-418.019855	-418.061075	30.455	
C	-0.0385473054	 1.5846474811	-0.0391486672	-0.43239
C	 0.0681001476	 0.0779338112	 0.0276965023	-0.024509
C	 1.3390962493	-0.6961694456	-0.1882900483	-0.0394
N	 2.5941284151	 0.0013782905	-0.0842586083	-0.300086
C	 2.8152347157	 0.5466582777	 1.1617015408	 0.246384
N	 3.755472658	 1.3436234636	 1.4759917473	-0.535087
C	 1.6931578852	 0.0347929391	 2.0653756478	 0.367393
O	 1.6640837637	 0.194051294	 3.2597305595	-0.322123
C	 0.7222816382	-0.6910742726	 1.1953033597	-0.200671
H	 0.8839599202	 2.0856233628	 0.2617481659	 0.145942
H	-0.2726792777	 1.9006168919	-1.0613573397	 0.126282
H	-0.8407009659	 1.9442251445	 0.6127073706	 0.136347
H	-0.8205709389	-0.4414374928	-0.3243239959	 0.1062
H	 1.3431802778	-1.5918433375	-0.8000855839	 0.112632
H	 3.0120270863	 0.4394081022	-0.8910692242	 0.256711
H	 3.6714298262	 1.5512269324	 2.4738763925	 0.23473
H	 0.1898426146	-1.5347054725	 1.6142937611	 0.121644
105.6455	130.3362	182.6375	254.3308	312.3991	351.8494	448.0991	499.9876	529.9588	574.2615	639.7154	689.8728	741.9735	770.0822	827.7947	837.5578	886.9786	913.4536	971.9107	1007.9705	1058.8522	1069.9083	1101.9103	1125.6204	1154.8198	1190.6279	1221.6919	1310.9123	1348.6175	1392.7481	1406.7275	1427.4247	1434.413	1494.3799	1504.1805	1739.9869	1838.5874	3041.7383	3101.5978	3124.1398	3140.6455	3166.8086	3204.3312	3456.6878	3621.2939
CC1C2NC(=N)C(=O)C12	C[C@H]1[C@H]2N[C]([NH])C(=O)[C@@H]12	
InChI=1S/C6H8N2O/c1-2-3-4(2)8-6(7)5(3)9/h2-4H,1H3,(H2,7,8)	InChI=1S/C6H8N2O/c1-2-3-4(2)8-6(7)5(3)9/h2-4H,1H3,(H2,7,8)/t2-,3+,4-/m1/s1
