15
gdb 25659	5.9796	0.77401	0.68865	2.0034	86.33	-0.1947	-0.0055	0.1892	1591.35	0.112827	-416.828238	-416.819437	-416.818492	-416.863598	31.012	
C	-0.15228047	 1.4239052295	 0.0477599955	-0.511975
C	-0.0446926648	-0.0247717256	 0.0095497371	 0.25948
C	 0.0436863383	-1.2291588871	-0.0202441949	-0.135868
C	 0.1635287212	-2.621820723	-0.0589559552	 0.170005
C	 1.1844594168	-3.4962642153	-0.2703740593	-0.217252
N	 0.7309165947	-4.8024193959	-0.2055568716	-0.325009
C	-0.5392821666	-4.669568076	 0.0493541219	 0.449863
N	-1.4516501177	-5.662422113	 0.2796072941	-0.59812
O	-0.9800990898	-3.403068006	 0.1548222809	-0.215497
H	 0.5137513774	 1.8561670132	 0.8033165039	 0.152336
H	 0.1027879392	 1.8730217151	-0.9190241784	 0.151345
H	-1.1748718073	 1.7295120315	 0.2951734834	 0.15521
H	 2.2179159883	-3.262469219	-0.4706022307	 0.124615
H	-1.1567678925	-6.5641326463	-0.0631712679	 0.273205
H	-2.408832727	-5.4284119819	 0.0630121913	 0.267663
14.7701	86.3401	97.3624	231.2023	287.6753	312.3809	331.1442	408.9645	468.2042	470.184	551.9704	566.9626	660.2067	740.5009	768.0698	866.4725	940.3355	1001.7677	1007.2985	1050.4586	1050.9809	1091.0689	1203.8141	1238.4009	1309.4549	1411.5761	1434.5675	1471.4841	1477.5793	1590.8694	1627.5747	1672.391	2348.6237	3022.7505	3080.1472	3088.8979	3266.6429	3582.4307	3693.7687
CC#CC1=CN=C(N)O1	CC#Cc1cnc(N)o1	
InChI=1S/C6H6N2O/c1-2-3-5-4-8-6(7)9-5/h4H,1H3,(H2,7,8)	InChI=1S/C6H6N2O/c1-2-3-5-4-8-6(7)9-5/h4H,1H3,(H2,7,8)
