18
gdb 68942	2.64524	1.59283	1.34353	1.9312	77.78	-0.2364	-0.0271	0.2093	1018.3526	0.146777	-401.90324	-401.895118	-401.894173	-401.935671	31.227	
C	 0.16529377	 1.4540164729	 0.1370997122	-0.492979
C	 0.0289141794	-0.0335496968	 0.048765471	 0.322952
C	 1.1038565234	-0.9555303187	-0.3804200785	-0.368264
C	 0.5600719508	-1.1530698281	 1.0296680389	 0.169115
C	 1.3806758414	-0.9423939159	 2.2238850399	 0.057175
O	 2.435227863	-0.3427937146	 2.2339151479	-0.286621
C	-0.8257518107	-1.7339179118	 0.9455936168	-0.125395
C	-1.8697650538	-0.7362645502	 1.2776841094	-0.243423
N	-1.2831404565	-0.6965927651	-0.0745616393	-0.143031
H	 1.161043169	 1.7181043792	 0.5032954574	 0.153815
H	 0.0297872082	 1.9067378382	-0.8514496984	 0.138936
H	-0.5769593761	 1.8890986532	 0.8132477832	 0.125136
H	 0.8941325858	-1.7221660113	-1.1208357253	 0.123742
H	 2.1032759015	-0.534138645	-0.4043913103	 0.145366
H	 0.9407471999	-1.3460107103	 3.164143937	 0.068769
H	-1.0582367856	-2.784278104	 0.7979156095	 0.105572
H	-2.9024845846	-1.0712266934	 1.2794894335	 0.128192
H	-1.646195855	 0.0666398216	 1.9754890751	 0.120941
102.588	159.9882	206.8988	213.2402	257.0903	304.4732	398.46	481.644	502.942	564.5678	640.8077	679.9625	756.4379	766.6951	807.3462	859.6723	971.7293	977.2812	989.6433	1018.5161	1044.0812	1062.1046	1075.8069	1105.949	1120.2064	1144.678	1156.8055	1222.4072	1260.1371	1290.5711	1356.6045	1377.9729	1421.134	1435.5334	1481.244	1485.5742	1493.6693	1498.8818	1779.7244	2870.2847	3035.6045	3099.2171	3115.5045	3121.3611	3123.6466	3158.6851	3207.4549	3222.6164
CC12CC1(C=O)C1CN21	C[C@@]12C[C@]1(C=O)[C@H]1CN21	
InChI=1S/C7H9NO/c1-6-3-7(6,4-9)5-2-8(5)6/h4-5H,2-3H2,1H3	InChI=1S/C7H9NO/c1-6-3-7(6,4-9)5-2-8(5)6/h4-5H,2-3H2,1H3/t5-,6-,7+,8?/m1/s1
