19
gdb 40895	3.67215	1.25866	1.24031	1.9589	79.87	-0.23	0.0138	0.2437	1090.2026	0.160883	-385.859163	-385.85176	-385.850816	-385.891155	29.173	
C	-0.0130967657	 1.4893089935	-0.1613575003	-0.13829
O	 1.3324032803	 1.5278809684	 0.370369094	-0.278535
C	 1.394407944	 0.0901727824	 0.4794021281	-0.150502
C	-0.0198589051	-0.0327726422	-0.0786155769	 0.303284
C	-1.0934109873	-0.9785482421	 0.3611057621	-0.132204
C	-2.5479865591	-0.5139160016	 0.2689595807	-0.275712
C	-2.7416315737	-0.2414569117	-1.2085845375	-0.078791
C	-1.6632935929	-0.5642377596	-1.9278717966	-0.071543
C	-0.5450564358	-1.0451902572	-1.0654231331	-0.16497
H	-0.7228651955	 2.0135431533	 0.4927084984	 0.098594
H	-0.0730734733	 1.9170313042	-1.1696359848	 0.10296
H	 2.1956829108	-0.3364524956	-0.1394560024	 0.099224
H	 1.5323737259	-0.2380320263	 1.518995233	 0.098237
H	-0.8264966405	-1.7314974428	 1.0950947089	 0.0864
H	-3.2401771893	-1.2866661494	 0.6289495877	 0.110599
H	-2.7413526687	 0.3772672103	 0.8813248994	 0.112221
H	-3.6562628206	 0.1835007339	-1.6060346929	 0.095625
H	-1.5731691095	-0.4646573688	-3.0034588341	 0.097004
H	 0.1186998961	-1.8353080385	-1.4030102638	 0.086401
93.7395	153.2436	180.2597	259.5222	357.4544	420.9928	486.6254	571.3127	706.1524	751.2705	787.7201	829.2711	843.6698	877.4556	933.3188	947.0526	956.9131	978.8053	980.8162	998.1159	1017.5018	1027.7454	1051.9537	1077.5022	1125.3092	1132.5055	1150.7529	1153.7915	1163.8664	1188.5426	1273.6828	1285.6688	1309.593	1311.4189	1365.6661	1376.4292	1453.4691	1479.4779	1509.9942	1534.3207	1664.8376	2991.2435	3007.9016	3014.3723	3032.3386	3038.3443	3049.1015	3152.4977	3166.311	3187.5134	3212.0318
C1OCC11C2CC=CC12	C1OCC21[C@H]1CC=C[C@@H]21	
InChI=1S/C8H10O/c1-2-6-7(3-1)8(6)4-9-5-8/h1-2,6-7H,3-5H2	InChI=1S/C8H10O/c1-2-6-7(3-1)8(6)4-9-5-8/h1-2,6-7H,3-5H2/t6-,7+/m1/s1
