17
gdb 133860	3.65328	1.66873	1.42042	0.8087	78.23	-0.2092	-0.058	0.1512	921.5134	0.135485	-384.532543	-384.525501	-384.524557	-384.563401	29.182	
O	 5.2748203983	 6.0079192006	-2.4561074516	-0.425814
C	 4.7641319817	 4.9300303944	-3.1661563459	 0.023204
C	 3.3670878422	 4.2971922325	-3.0458088261	-0.120471
C	 4.146810337	 3.4842643596	-1.2511325429	-0.128126
C	 3.0722232919	 2.459644655	-1.5306941348	-0.019701
C	 3.5164718215	 1.5796019135	-2.4576628967	-0.071433
C	 4.8641519067	 2.0512882583	-3.0428593259	-0.34405
C	 4.7132475282	 3.543006143	-2.6540159192	 0.192668
C	 2.7907964172	 3.969173237	-1.6715762417	-0.130637
H	 5.1198535773	 5.8434666455	-1.5194290283	 0.290037
H	 5.0135849762	 5.0530596047	-4.2185922726	 0.119919
H	 2.8349511963	 4.1158538016	-3.9760104602	 0.083754
H	 4.6392110756	 3.5386688981	-0.2865295951	 0.088338
H	 2.9039387855	 0.8534532138	-2.9865451403	 0.104439
H	 4.891813357	 1.8439293493	-4.1188932523	 0.115099
H	 5.7685136011	 1.610955534	-2.6022115589	 0.122022
H	 2.0389209462	 4.5216042789	-1.1190927677	 0.100751
175.9797	217.3234	299.2665	314.4216	338.2811	408.3782	545.484	563.389	661.2391	672.1669	723.8326	762.3168	781.3461	834.1935	849.7742	855.0745	906.8818	939.8689	966.3213	984.0071	991.0504	1034.6701	1075.8122	1097.6787	1108.4422	1116.6603	1161.8911	1208.1775	1227.542	1238.0342	1286.2594	1298.7013	1323.442	1346.5057	1455.3278	1463.3804	1563.4387	3018.2934	3071.3918	3134.3913	3147.9113	3153.3063	3163.8172	3175.7139	3809.5664
OC1C2C3C4=CCC13C24	O[C@@H]1[C@H]2[C@@]31[C@@H]1[C]([CH]C3)[C@H]21	
InChI=1S/C8H8O/c9-7-4-5-3-1-2-8(5,7)6(3)4/h1,4-7,9H,2H2	InChI=1S/C8H8O/c9-7-6-4-3-1-2-8(6,7)5(3)4/h1,4-7,9H,2H2/t4-,5+,6-,7+,8-/m0/s1
