21
gdb 64442	2.19971	1.62107	1.21289	2.7411	77.98	-0.2293	-0.0205	0.2089	1127.1336	0.181935	-424.254914	-424.245729	-424.244784	-424.288507	35.087	
C	 0.0799209702	 1.5475192634	-0.0343279244	-0.419929
C	 0.0139502809	 0.01484192	-0.010364104	 0.14992
C	-1.4680149342	-0.4305838341	 0.0775588421	-0.421528
C	 0.6889547656	-0.5800464868	-1.2713850891	-0.229511
C	 1.0102333984	-2.0656558521	-1.1335155677	-0.092826
O	 1.8577916603	-2.2910580129	-0.0185818775	-0.239627
C	 1.2352946948	-1.9550786356	 1.2042504144	-0.181542
C	 0.702351956	-0.5195042907	 1.2574090899	 0.365486
O	 0.7727691791	 0.12237809	 2.2794379442	-0.31604
H	 1.1160135218	 1.8965265948	-0.0819928891	 0.118299
H	-0.4511542545	 1.9350772807	-0.9101158281	 0.106605
H	-0.3709986923	 1.9697237182	 0.8659228972	 0.134654
H	-2.0172668652	-0.0491448664	-0.7898331986	 0.121127
H	-1.5829046049	-1.5182264443	 0.0933134586	 0.117831
H	-1.9356275092	-0.0297667259	 0.981430482	 0.134751
H	 0.0475176686	-0.4106586091	-2.1454656897	 0.096309
H	 1.6308038933	-0.0502365486	-1.4567630642	 0.10938
H	 0.0923374172	-2.6704366629	-1.0429031247	 0.090581
H	 1.5576682379	-2.4264578285	-2.0087894171	 0.113192
H	 0.3911709544	-2.6380446317	 1.4167000475	 0.107456
H	 1.9737611919	-2.0773043875	 1.9990400482	 0.135412
64.6348	154.7538	191.6525	226.2696	237.1508	292.8549	314.2315	347.2959	375.862	437.2538	453.9478	511.9298	571.6928	642.4357	703.8975	811.3679	869.9521	933.068	951.4428	960.4008	994.6601	1010.4969	1022.2138	1059.4274	1133.9896	1154.5384	1189.1133	1220.0564	1236.0848	1243.4108	1305.9141	1319.2407	1358.6682	1375.2138	1393.8984	1409.0625	1419.9412	1466.3036	1472.1421	1483.3418	1487.7432	1496.9167	1502.5034	1513.5017	1810.1586	2933.0361	2968.7732	3023.4728	3034.5594	3039.9373	3067.7263	3088.5053	3103.5913	3106.1448	3115.3824	3116.3113	3132.3592
CC1(C)CCOCC1=O	CC1(C)CCOCC1=O	
InChI=1S/C7H12O2/c1-7(2)3-4-9-5-6(7)8/h3-5H2,1-2H3	InChI=1S/C7H12O2/c1-7(2)3-4-9-5-6(7)8/h3-5H2,1-2H3
