18
gdb 7515	5.02444	1.18785	1.12962	0.9472	74.1	-0.2484	0.0435	0.2919	1114.8824	0.150873	-347.759513	-347.750495	-347.74955	-347.792781	33.713	
C	 0.0051583736	 1.4785551577	-0.1524182026	-0.404694
C	 0.072299608	-0.0230093724	 0.0169244702	-0.0509
C	 1.4066750208	-0.752725677	-0.0414828757	-0.344136
C	 0.6471927063	-0.6386373796	 1.2587660464	 0.414853
O	 1.1169399812	 0.2626535767	 2.2199695644	-0.467939
C	-0.0081646199	-1.8782570909	 1.8625918484	-0.401789
C	 0.925853302	-2.6116242825	 2.7138411385	 0.279613
C	 1.7334611686	-3.1584483047	 3.4177025956	-0.442604
H	 0.8358362132	 1.9647180565	 0.3632415937	 0.133692
H	 0.045159074	 1.7523453248	-1.2121886538	 0.112765
H	-0.9244891675	 1.8817162358	 0.2635175647	 0.116936
H	-0.7682002813	-0.5625405572	-0.4147180059	 0.082011
H	 1.463768545	-1.7133251842	-0.5428050304	 0.108381
H	 2.2957441781	-0.13743055	-0.1311359919	 0.112935
H	 1.7894986582	-0.199437883	 2.7359163019	 0.286819
H	-0.8777507526	-1.5690705103	 2.4565502816	 0.137292
H	-0.3801891609	-2.5297495266	 1.0635016203	 0.127928
H	 2.428391823	-3.6701222632	 4.0365522744	 0.198836
67.5206	108.4874	182.9777	211.7155	230.0774	330.915	352.0901	365.1309	408.5994	410.5121	473.0539	593.7613	621.115	654.1312	724.637	819.7264	877.9241	900.8052	923.6835	958.8187	971.3696	1025.5328	1041.1281	1098.564	1137.6651	1187.6534	1199.7732	1246.3101	1297.438	1315.5455	1363.43	1411.0241	1429.0066	1460.197	1490.016	1495.5316	1509.4948	2231.8744	3025.3292	3035.2132	3066.7992	3092.2179	3118.799	3127.9541	3136.8207	3217.6278	3505.2636	3772.301
CC1CC1(O)CC#C	C[C@H]1C[C@]1(O)CC#C	
InChI=1S/C7H10O/c1-3-4-7(8)5-6(7)2/h1,6,8H,4-5H2,2H3	InChI=1S/C7H10O/c1-3-4-7(8)5-6(7)2/h1,6,8H,4-5H2,2H3/t6-,7+/m0/s1
