16
gdb 64600	3.29363	1.35698	1.26025	3.412	70.22	-0.2392	-0.0493	0.1898	1026.0567	0.124171	-437.860325	-437.852669	-437.851725	-437.89249	29.648	
O	 0.0108048535	 1.4984469607	-0.0034325506	-0.473305
C	-0.0209192672	 0.1000515502	 0.0319600476	 0.316698
C	 0.7155920578	-0.4552907665	-1.1845777525	 0.110203
O	 1.2710951746	 0.2641881857	-1.9782169256	-0.271823
C	 0.6298832143	-0.4957016689	 1.2870920866	-0.153657
C	-0.1555200167	-1.3794256502	 1.9017980576	-0.051599
C	-1.488731628	-1.458813152	 1.2255053846	-0.089591
N	-2.1918150002	-0.1482999828	 1.2996033981	-0.320794
C	-1.4339068933	-0.5099660837	 0.0866174289	-0.117151
H	 0.5247597433	 1.7283974847	-0.7944898383	 0.291512
H	 0.7222812259	-1.5588076645	-1.2841615436	 0.104152
H	 1.6085323599	-0.16064253	 1.6088482879	 0.115665
H	 0.0845329944	-1.9159252112	 2.8119927535	 0.11216
H	-2.0657429767	-2.3760767265	 1.2002165014	 0.097692
H	-3.1806351332	-0.2921801408	 1.0985704729	 0.233387
H	-1.9750374585	-0.6771176744	-0.8384423484	 0.09645
93.5947	124.8477	230.2423	304.0445	365.7247	384.0212	420.0534	478.2353	509.23	579.898	720.7324	771.252	786.4457	828.0749	852.2049	870.1455	915.435	951.3447	971.0009	976.1118	1015.3207	1063.4285	1093.7996	1140.0396	1146.2715	1186.8448	1213.2714	1255.1743	1316.9961	1370.8488	1388.3555	1399.8159	1441.4127	1664.8904	1810.5911	2942.656	3164.6985	3180.9487	3197.8515	3221.9166	3476.2702	3680.8138
OC1(C=O)C=CC2NC12	O[C@@]1(C=O)C=C[C@H]2N[C@@H]12	
InChI=1S/C6H7NO2/c8-3-6(9)2-1-4-5(6)7-4/h1-5,7,9H	InChI=1S/C6H7NO2/c8-3-6(9)2-1-4-5(6)7-4/h1-5,7,9H/t4-,5-,6-/m1/s1
