16
gdb 61746	3.60677	0.91579	0.78776	1.4803	74.71	-0.2461	-0.0531	0.193	1392.0158	0.12195	-434.077258	-434.067289	-434.066345	-434.114121	33.138	
C	-0.0248354702	 1.3181923836	 0.116370442	-0.360834
N	 0.0303467433	-0.1212279108	-0.077627251	-0.095854
C	 0.0229722997	-0.9547957183	 1.109577933	-0.263218
C	-1.3805622184	-1.1801865352	 1.6669019399	 0.155341
O	-1.6137866516	-1.3493902066	 2.8329287489	-0.224588
C	 0.0020008535	-0.7326608459	-1.3016446271	 0.319535
N	-0.0543794594	-2.0087326018	-1.4303628147	-0.538825
C	 0.0555251465	 0.1463161782	-2.4601536645	 0.224501
N	 0.0939005708	 0.7744206282	-3.4306368368	-0.332919
H	 0.8229329612	 1.6507170345	 0.7264332498	 0.142856
H	 0.018349299	 1.8321208089	-0.8438492672	 0.17554
H	-0.9500735301	 1.6163314702	 0.6250504004	 0.142133
H	 0.4297325979	-1.9363270144	 0.8423358304	 0.181463
H	 0.6490890487	-0.5095827976	 1.8886140175	 0.134138
H	-2.1816725348	-1.1873537931	 0.8941187548	 0.095119
H	-0.0228746959	-2.2840517699	-2.4076418456	 0.24561
33.6474	59.8407	67.3726	92.6974	152.4007	178.194	296.3339	326.0636	386.7329	397.6187	445.5574	535.7931	634.9174	714.4461	733.6754	749.5104	792.2992	985.6915	1036.5423	1067.9552	1095.4331	1156.8636	1207.0717	1241.6746	1327.9399	1354.2457	1410.7842	1430.7585	1450.2844	1479.1265	1482.8248	1525.8086	1663.3594	1841.0712	2344.9954	2887.9081	3019.4209	3048.032	3071.1057	3106.6599	3152.2991	3545.0279
CN(CC=O)C(=N)C#N	CN(CC=O)C(=N)C#N	
InChI=1S/C5H7N3O/c1-8(2-3-9)5(7)4-6/h3,7H,2H2,1H3	InChI=1S/C5H7N3O/c1-8(2-3-9)5(7)4-6/h3,7H,2H2,1H3
