14
gdb 16132	4.91488	1.72693	1.47481	3.824	63.26	-0.2544	-0.0414	0.213	833.1603	0.106563	-382.531781	-382.52514	-382.524196	-382.562674	24.898	
O	 0.055690018	 0.1140747281	-0.6723540124	-0.25186
C	 0.2309810605	 0.9630323851	 0.1621245989	 0.075693
C	 1.3494885889	 1.9518235476	 0.1448348663	 0.314485
C	 1.7022133568	 2.7895007141	 1.3707714884	-0.353932
C	 2.2182393496	 4.0831710423	 0.774694253	-0.071772
C	 2.1436090499	 4.0946212864	-0.5587158834	-0.076746
C	 1.631425507	 2.7878417631	-1.0630368092	-0.03991
O	 2.4490752933	 1.6660149935	-0.7143700985	-0.270201
H	-0.4623880215	 1.0881119674	 1.0257883298	 0.072059
H	 0.8181561956	 2.9555588286	 2.0011757232	 0.120905
H	 2.4526296841	 2.293959811	 1.9979646589	 0.137202
H	 2.6232833457	 4.8791980092	 1.388890631	 0.112227
H	 2.4310485976	 4.9090364681	-1.2113861282	 0.1125
H	 1.0775989445	 2.6785231455	-1.9905533578	 0.119351
94.2831	199.1359	228.5752	345.4553	374.0763	463.9378	533.22	714.2228	724.4895	767.9474	801.6501	867.2592	926.464	939.8669	952.437	972.2447	982.631	1051.0253	1078.7115	1139.0016	1156.4363	1198.1127	1268.2699	1315.2218	1362.6645	1396.218	1430.3059	1457.061	1660.1115	1826.5566	2865.8906	3023.8694	3066.3845	3169.6846	3197.145	3225.1366
O=CC12CC=CC1O2	O=C[C@]12CC=C[C@H]1O2	
InChI=1S/C6H6O2/c7-4-6-3-1-2-5(6)8-6/h1-2,4-5H,3H2	InChI=1S/C6H6O2/c7-4-6-3-1-2-5(6)8-6/h1-2,4-5H,3H2/t5-,6-/m1/s1
