23
gdb 90455	3.46717	1.12856	1.10803	1.3315	85.64	-0.2263	0.0839	0.3103	1270.9542	0.205159	-388.29411	-388.28467	-388.283726	-388.32794	36.563	
C	-0.3145950582	 1.443856143	 0.0713922725	-0.391046
C	 0.0561691748	-0.035090097	-0.0109948959	 0.143196
C	 0.9245246655	-0.384906556	-1.2483981328	-0.282733
C	 2.345091723	-0.4260917487	-0.693074087	-0.118245
C	 2.2016589985	-0.3839338976	 0.8058497492	 0.043533
O	 0.8388694808	-0.4172284876	 1.1377420433	-0.273024
C	 2.7913781256	-1.6165547802	 0.1562166079	 0.297205
C	 2.0155986161	-2.916439805	 0.1555969637	-0.459156
C	 4.2947569717	-1.7816405877	 0.2873156445	-0.455854
H	 0.5808502843	 2.071197426	 0.0028389601	 0.11835
H	-0.9908261291	 1.7213259482	-0.7445184606	 0.109973
H	-0.8115801616	 1.6578162215	 1.0216003477	 0.123045
H	-0.8544046799	-0.6430901134	 0.0272711718	 0.07889
H	 0.6197868338	-1.3383755144	-1.6905774873	 0.104107
H	 0.8305747682	 0.3777760532	-2.0263887829	 0.101963
H	 3.1141729856	 0.1444515249	-1.2016531855	 0.081676
H	 2.8066514142	 0.2456873049	 1.4533409761	 0.084664
H	 0.9405563699	-2.7528767859	 0.247884008	 0.128571
H	 2.2032026311	-3.4915232968	-0.7588785349	 0.109224
H	 2.3222175031	-3.5383847539	 1.0043301078	 0.113952
H	 4.5508217413	-2.3345394193	 1.1985197602	 0.115859
H	 4.7072596956	-2.334124705	-0.5653934208	 0.115054
H	 4.8046951158	-0.8134818235	 0.3303807749	 0.110797
59.5652	161.5994	195.8308	202.9809	241.3245	247.5216	261.7057	332.6205	378.9242	406.7562	453.8216	517.8342	671.2775	729.3649	747.604	806.8601	816.2932	862.6483	909.834	920.343	970.5103	978.0398	1013.4816	1023.9337	1047.1432	1065.1385	1083.9589	1118.1728	1127.7279	1145.2527	1158.0455	1212.3198	1244.6372	1288.6005	1302.5261	1320.3064	1353.0706	1378.108	1403.2733	1407.2261	1413.6282	1430.4934	1481.6301	1486.8777	1490.1554	1494.44	1496.9914	1507.9884	1512.2991	3019.3738	3028.3008	3031.302	3040.6788	3055.1173	3079.5608	3082.6063	3092.5143	3092.8912	3101.9139	3117.0602	3131.5198	3133.7545	3167.0409
CC1CC2C(O1)C2(C)C	C[C@H]1C[C@H]2[C@@H](O1)C2(C)C	
InChI=1S/C8H14O/c1-5-4-6-7(9-5)8(6,2)3/h5-7H,4H2,1-3H3	InChI=1S/C8H14O/c1-5-4-6-7(9-5)8(6,2)3/h5-7H,4H2,1-3H3/t5-,6-,7+/m0/s1
