16
gdb 49588	2.06546	1.97029	1.29571	2.8553	68.82	-0.2448	-0.0465	0.1983	989.1057	0.122664	-437.842396	-437.834267	-437.833323	-437.875747	29.255	
O	-0.4888873342	 0.6832789006	-0.4675506911	-0.250266
C	 0.2489791583	 1.0276306373	 0.4202510348	 0.147866
C	 1.3621581626	 2.0412402298	 0.2390505013	-0.139669
C	 1.4798264826	 2.7682190536	-1.0958583538	-0.013693
C	 0.3532416295	 3.687186286	-1.3116557375	-0.245592
N	 1.4679785946	 4.1527261782	-0.4492396382	-0.158736
C	 1.2762028443	 3.4634918832	 0.8833596876	-0.066493
C	 0.0280711924	 3.8859125385	 1.6132754183	 0.148737
O	-0.8265845584	 3.1286363488	 2.0004090543	-0.236342
H	 0.1851470158	 0.5841426124	 1.4351108466	 0.091812
H	 2.2969265456	 1.5620566064	 0.5486963192	 0.110175
H	 2.1935178563	 2.5242423333	-1.8741812204	 0.11173
H	 0.3233736311	 4.2234106961	-2.2541345196	 0.133251
H	-0.619842942	 3.4689396873	-0.881720553	 0.145832
H	 2.140032614	 3.6946734645	 1.5162726677	 0.115024
H	-0.0573457226	 4.9852901641	 1.7593138939	 0.106363
67.4852	94.542	145.3537	200.0412	231.4448	313.7396	367.277	477.2265	647.1204	678.8736	714.0967	743.0878	782.6203	825.5688	889.4867	966.0791	978.5195	1003.3248	1041.8596	1056.1917	1086.064	1104.7135	1119.2525	1148.671	1201.072	1226.4356	1248.9713	1340.4906	1342.5439	1369.1002	1403.3828	1424.9743	1507.617	1814.0975	1824.7878	2898.1656	2919.9163	3047.3456	3064.0822	3127.8373	3181.6885	3218.2535
O=CC1C2CN2C1C=O	O=C[C@H]1[C@H]2CN2[C@H]1C=O	
InChI=1S/C6H7NO2/c8-2-4-5-1-7(5)6(4)3-9/h2-6H,1H2	InChI=1S/C6H7NO2/c8-2-4-5-1-7(5)6(4)3-9/h2-6H,1H2/t4-,5+,6-,7?/m0/s1
