14
gdb 9454	2.76953	1.77678	1.73389	1.9704	64.35	-0.2377	-0.0374	0.2003	854.3078	0.104011	-382.503458	-382.495297	-382.494352	-382.536069	29.576	
O	 0.1623808551	 1.5184098589	 0.2378820891	-0.449487
C	 0.0099618338	 0.1306900072	 0.0559317071	 0.149343
C	-1.4838574848	-0.2979413146	-0.1119840286	-0.270894
C	-1.1464974148	-1.0808990114	-1.4167802292	-0.338213
C	 0.2140092901	-0.3770817306	-1.4211427674	 0.344361
O	 1.0461993322	-0.1342095657	-2.2405369555	-0.288197
C	 0.7652374461	-0.6693842124	 1.0109972232	 0.283356
C	 1.4234164241	-1.332515403	 1.7688003747	-0.474267
H	 1.1022706261	 1.7228804168	 0.1639494741	 0.29516
H	-1.904592016	-0.8715392331	 0.712112216	 0.12416
H	-2.0905965361	 0.5891899032	-0.3002768445	 0.134335
H	-1.0364628124	-2.1580628797	-1.2571135196	 0.145521
H	-1.7738020792	-0.9184275898	-2.2954796555	 0.138143
H	 1.9989772257	-1.9142481457	 2.446270496	 0.206679
78.3007	117.3656	156.4186	189.6091	284.4984	339.0511	399.3943	492.4059	523.5839	575.0078	617.1003	670.091	679.0592	725.8713	754.5124	895.7118	922.2113	968.7024	1033.3651	1065.7706	1118.7927	1188.1734	1205.2275	1241.401	1267.5237	1356.476	1441.8264	1479.5604	1900.3244	2222.7811	3066.1461	3094.2405	3124.8292	3162.7046	3498.2766	3799.0555
OC1(CCC1=O)C#C	O[C@]1(CCC1=O)C#C	
InChI=1S/C6H6O2/c1-2-6(8)4-3-5(6)7/h1,8H,3-4H2	InChI=1S/C6H6O2/c1-2-6(8)4-3-5(6)7/h1,8H,3-4H2/t6-/m0/s1
