13
gdb 46019	5.06869	1.04767	0.88141	2.894	66.31	-0.2661	-0.064	0.202	1197.8908	0.088911	-452.76934	-452.761483	-452.760539	-452.803051	27.337	
O	-0.0570526545	 0.1426851713	-0.6924044811	-0.284462
C	-0.0255213604	 1.1925309943	-0.1038226723	 0.344369
C	-1.3157356224	 1.8870720075	 0.31373624	-0.192466
O	-1.1626739962	 2.8953588734	 1.3213809296	-0.249811
C	 0.0182269403	 3.5565832292	 1.3423456215	 0.298891
N	 1.1370198469	 3.2249623058	 0.85553342	-0.292715
C	 1.2662735497	 1.9278714472	 0.2169834616	-0.281152
C	-0.1040837342	 4.8046064972	 2.0666423949	 0.299784
N	-0.2026697974	 5.7984943527	 2.646640985	-0.310061
H	-1.7557859803	 2.3473809518	-0.5816895868	 0.161283
H	-2.0226052048	 1.1520712625	 0.7022506726	 0.168787
H	 1.8711170743	 1.2780839102	 0.8644005226	 0.171418
H	 1.8458814988	 2.0327992569	-0.7078414276	 0.166137
34.369	91.6861	160.8768	165.8432	404.1834	417.2615	424.9511	449.4359	497.7048	601.1009	676.7297	723.9041	749.4888	798.9335	903.351	1034.2326	1037.648	1122.361	1194.5976	1225.0971	1250.7694	1264.2611	1338.7752	1369.6035	1430.3802	1465.8569	1738.6238	1838.7515	2369.4385	3025.4548	3028.5983	3064.7221	3128.3222
O=C1COC(=NC1)C#N	O=C1COC(=NC1)C#N	
InChI=1S/C5H4N2O2/c6-1-5-7-2-4(8)3-9-5/h2-3H2	InChI=1S/C5H4N2O2/c6-1-5-7-2-4(8)3-9-5/h2-3H2
