16
gdb 19700	4.77068	1.64899	1.52751	2.0115	62.53	-0.2373	0.0559	0.2932	853.9115	0.130917	-383.657258	-383.650471	-383.649527	-383.688568	26.102	
O	 0.0759805205	 1.4026644694	 0.1121713788	-0.423339
C	 0.0639953212	-0.0127782872	-0.0372086534	-0.099135
C	-1.3485489796	-0.5764107464	-0.0123384707	 0.003555
C	-1.5805196585	-2.090488502	 0.0029039569	-0.150213
C	-1.5408944958	-2.4728809227	 1.4957414471	 0.095622
O	-1.2295628484	-1.299853886	 2.2499899031	-0.294127
C	-2.1238544798	-0.5915786679	 1.3419563251	 0.036663
C	-2.8009444183	-1.9433197384	 0.9090915418	-0.141919
H	-0.1183177457	 1.5962862854	 1.0343183155	 0.286856
H	 0.5274764638	-0.218876222	-1.0087334681	 0.10412
H	 0.6702903262	-0.5046612319	 0.7340989812	 0.104852
H	-1.9687293375	-0.1013184794	-0.7790068485	 0.084159
H	-1.41828478	-2.8120378713	-0.7877036592	 0.092728
H	-1.2596090415	-3.4417115463	 1.8856750476	 0.111831
H	-2.582745608	 0.2903404963	 1.7842810107	 0.085788
H	-3.8180287886	-2.3025927296	 0.8472333622	 0.102557
63.9126	171.8271	238.2857	292.7137	403.5705	547.352	608.3799	752.3745	760.9041	774.6024	790.3125	830.4185	861.1452	911.6341	968.52	990.8467	1008.4793	1024.4049	1033.9653	1056.3175	1067.2213	1079.9238	1118.8599	1156.3862	1170.4057	1197.1609	1224.8422	1246.0906	1310.4525	1352.8977	1371.5658	1401.3801	1417.6481	1498.5441	3022.8675	3062.7642	3078.3499	3142.125	3197.9989	3209.5134	3225.0138	3823.9672
OCC1C2C3OC1C23	OC[C@H]1[C@H]2[C@H]3O[C@@H]1[C@@H]23	
InChI=1S/C6H8O2/c7-1-2-3-4-5(2)8-6(3)4/h2-7H,1H2	InChI=1S/C6H8O2/c7-1-2-3-4-5(2)8-6(3)4/h2-7H,1H2/t2-,3+,4+,5-,6+/m0/s1
