25
gdb 58505	2.4716	1.2959	1.18958	0.1942	91.66	-0.2475	0.0822	0.3296	1250.4452	0.228365	-352.336854	-352.327118	-352.326174	-352.370587	38.787	
C	 0.0831935387	 1.5238832215	-0.0799080252	-0.402382
C	 0.0342587985	-0.0014746118	 0.0979344015	-0.005889
C	 0.7745769896	-0.4336030881	 1.37217751	-0.402403
C	-1.4020616188	-0.5648412662	 0.0279618783	 0.361972
C	-2.3315339787	 0.0024739774	 1.1061387232	-0.459361
C	-2.1019322497	-0.5081796346	-1.3846879904	-0.301521
C	-2.2826663142	-2.0299004802	-1.3454066244	-0.037903
C	-0.945979642	-2.7082788604	-1.2620221203	-0.300542
C	-1.533451829	-2.1063222476	-0.0152703724	-0.078675
H	 1.1176639764	 1.8659051438	-0.1897688723	 0.108054
H	-0.4687567548	 1.8448525577	-0.9696330367	 0.112547
H	-0.3415034297	 2.0469226276	 0.7835295935	 0.113757
H	 0.5791333122	-0.4360943391	-0.7503105047	 0.065847
H	 0.3346238099	 0.0142525418	 2.2697736833	 0.112428
H	 0.7550390301	-1.5213226263	 1.4938237449	 0.116405
H	 1.8234079636	-0.12079767	 1.3342851227	 0.107432
H	-2.4546665508	 1.0853769958	 1.0063599036	 0.112603
H	-3.3238778038	-0.4534488385	 1.0265506904	 0.112346
H	-1.9577763499	-0.2042102532	 2.114567365	 0.111645
H	-3.039316998	 0.0526880812	-1.3627145918	 0.096549
H	-1.4922310218	-0.1317725333	-2.2138579209	 0.088158
H	-3.1742664423	-2.5631291216	-1.6521563561	 0.080987
H	-0.9709830102	-3.793218665	-1.2964539802	 0.107499
H	-0.07539356	-2.276003723	-1.7492000668	 0.105012
H	-1.7580016454	-2.7188069578	 0.8514765557	 0.075434
77.1415	166.7675	189.2708	232.7166	242.8802	255.4778	293.1906	317.3554	323.9291	416.6379	427.6878	459.8901	503.5872	624.3594	744.3632	788.4032	819.1641	874.0904	893.7455	923.0959	929.2396	936.6032	959.4588	968.0533	984.806	991.4195	1028.9579	1063.4604	1074.1823	1086.4581	1117.5533	1146.7655	1156.7433	1191.2291	1200.1776	1216.9896	1249.6615	1279.332	1300.5474	1350.9778	1357.929	1375.3535	1397.1252	1408.5233	1422.0337	1483.2083	1487.2083	1489.6748	1493.6242	1501.5737	1509.0497	1510.7432	1514.3963	3011.4235	3028.7913	3030.5525	3034.2214	3037.1125	3091.1464	3094.1781	3097.9591	3099.4726	3100.6397	3103.5727	3106.9444	3110.6766	3161.0082	3179.7312	3196.6203
CC(C)C1(C)CC2CC12	CC(C)[C@@]1(C)C[C@H]2C[C@@H]12	
InChI=1S/C9H16/c1-6(2)9(3)5-7-4-8(7)9/h6-8H,4-5H2,1-3H3	InChI=1S/C9H16/c1-6(2)9(3)5-7-4-8(7)9/h6-8H,4-5H2,1-3H3/t7-,8-,9-/m1/s1
