19
gdb 119744	3.57989	0.99366	0.88991	0.9191	71.24	-0.2462	0.0529	0.2991	1335.5372	0.158318	-460.108624	-460.099786	-460.098842	-460.142833	32.226	
O	-0.0230861653	 1.4432989532	-0.0333267256	-0.419874
C	 0.0160640661	 0.0282959002	 0.0649858336	-0.076737
C	-1.4181710525	-0.4789336701	-0.06622788	-0.283317
C	-1.4984982777	-1.980032545	 0.0209459465	 0.39811
C	-1.0352204519	-2.8833189166	-1.1424554183	-0.12191
O	-2.220408202	-3.7110472288	-1.0167445865	-0.292865
C	-2.7496470483	-2.890249435	 0.0369658087	-0.001983
C	-2.2705968672	-3.3149959879	 1.4307856043	-0.100024
O	-1.0720360768	-2.5063526863	 1.3032110644	-0.335482
H	 0.8639797363	 1.7797301159	 0.1232314331	 0.287099
H	 0.6430528322	-0.4084801218	-0.7303037349	 0.086628
H	 0.4288466247	-0.3015981678	 1.0288407322	 0.112852
H	-2.021771786	-0.0302447852	 0.7300437157	 0.114091
H	-1.8328053771	-0.1422394426	-1.0233852348	 0.112666
H	-0.9950770038	-2.3987348693	-2.1265422854	 0.101877
H	-0.1090431976	-3.4376555705	-0.9578596958	 0.111905
H	-3.7899676386	-2.6003640073	-0.1224256428	 0.088784
H	-2.8945651758	-2.9688342654	 2.2646547504	 0.104442
H	-2.0541996588	-4.3827139998	 1.5405567451	 0.113739
67.501	95.0024	127.4404	151.7677	260.0781	288.7565	331.2657	356.2518	417.6473	431.8623	706.5999	720.9337	794.7873	842.7526	905.2216	916.4792	953.9033	987.0513	999.989	1004.6508	1040.1586	1059.5297	1080.5297	1112.6399	1144.9398	1162.5338	1177.6648	1187.201	1238.5369	1254.8281	1269.1574	1304.1688	1319.4399	1339.7893	1344.6969	1393.6851	1459.1695	1480.41	1502.6642	1505.2953	1528.6891	2962.1175	3013.9727	3017.3324	3017.7833	3041.6714	3078.1362	3081.1486	3088.6331	3096.2363	3830.749
OCCC12COC1CO2	OCC[C@]12CO[C@H]1CO2	
InChI=1S/C6H10O3/c7-2-1-6-4-8-5(6)3-9-6/h5,7H,1-4H2	InChI=1S/C6H10O3/c7-2-1-6-4-8-5(6)3-9-6/h5,7H,1-4H2/t5-,6-/m0/s1
