17
gdb 34375	2.59645	1.64291	1.28779	2.9042	76.96	-0.2393	0.0015	0.2408	1013.6136	0.138517	-380.869982	-380.862496	-380.861552	-380.90225	28.814	
N	-0.0511074208	-1.0930594684	-0.3927561632	-0.351236
C	-0.0380986539	 0.0421437567	-0.169541063	 0.215811
C	-0.0148708896	 1.4670236327	 0.0973325058	 0.158713
C	-0.3046212246	 2.3559378841	-1.1604787808	-0.21254
N	 1.0710756476	 2.9259787995	-1.1452900459	-0.318898
C	 1.4015556347	 2.1588755907	 0.093445723	-0.078273
C	 1.3791470706	 3.0003193486	 1.3389679866	-0.043444
C	 0.2508461037	 2.858498934	 2.0319910133	-0.067429
C	-0.7113252006	 1.8641153732	 1.4250892087	-0.339329
H	-0.5619429093	 1.7933683693	-2.0612366737	 0.126514
H	-1.0753919981	 3.1133774736	-0.9837046631	 0.117894
H	 1.6131530894	 2.5998003975	-1.9381694026	 0.226521
H	 2.2805504421	 1.513379276	 0.0065522032	 0.095853
H	 2.1964487282	 3.6645497469	 1.5945959908	 0.108153
H	 0.013936511	 3.3853049489	 2.9498975003	 0.10712
H	-1.703402909	 2.2949427498	 1.2427013118	 0.121732
H	-0.8644776313	 0.9963239171	 2.0768463987	 0.132838
65.7823	156.8042	183.9508	258.4865	350.9574	448.4633	527.0844	544.9556	563.5111	661.963	745.3888	763.9469	777.5297	891.2135	903.1539	933.4868	949.1338	961.1415	977.3309	1001.0555	1029.8358	1057.1322	1107.0753	1128.8829	1152.3029	1182.6438	1223.618	1269.9194	1290.7962	1331.318	1344.8766	1355.5868	1405.8133	1485.1277	1505.7243	1684.611	2346.8414	3031.4204	3042.2806	3063.472	3065.1092	3101.3663	3188.4351	3213.7794	3528.5713
N#CC12CNC1C=CC2	N#C[C@]12CN[C@H]1C=CC2	
InChI=1S/C7H8N2/c8-4-7-3-1-2-6(7)9-5-7/h1-2,6,9H,3,5H2	InChI=1S/C7H8N2/c8-4-7-3-1-2-6(7)9-5-7/h1-2,6,9H,3,5H2/t6-,7+/m0/s1
