15
gdb 46122	3.73163	1.02633	0.83821	2.7643	67.57	-0.2735	-0.0012	0.2723	1304.3087	0.111182	-457.766208	-457.757924	-457.75698	-457.800003	29.78	
O	 0.0548054722	 0.0035339008	-0.1591148022	-0.316859
C	-0.009291209	 1.1870599932	-0.0284665425	 0.403371
C	-1.2302479913	 2.0690960507	 0.2036260695	-0.229429
O	-0.6929581773	 3.3337167789	 0.5369144274	-0.254265
C	 0.6250942411	 3.3732797442	 0.0340248745	 0.222697
C	 1.504727406	 4.1618377957	 0.9998568503	-0.371194
C	 2.8518525553	 4.3779774306	 0.493016548	 0.293721
C	 3.9569463692	 4.5559834397	 0.0583631872	-0.432923
O	 1.0675835003	 2.0184467568	-0.0688711519	-0.218755
H	-1.8437017473	 2.1009304556	-0.7091193048	 0.13828
H	-1.8413331613	 1.6924901617	 1.0267853811	 0.155167
H	 0.6521921554	 3.8121272998	-0.9746736578	 0.105573
H	 1.002100411	 5.1195864807	 1.1801344417	 0.151738
H	 1.5224382523	 3.6220012671	 1.9532368588	 0.148307
H	 4.9382417134	 4.7080571044	-0.3180478294	 0.204569
61.8016	88.9222	131.5596	168.2575	295.2144	347.7661	421.0468	480.9333	534.1596	560.3045	633.8175	664.2262	671.3762	731.6775	838.5229	925.4423	970.4764	1003.4584	1029.7639	1046.2962	1087.5865	1135.6246	1205.6939	1219.1822	1235.7759	1306.6988	1341.3781	1390.6049	1421.627	1455.5106	1496.2311	1907.9766	2248.635	2999.4668	3006.4517	3040.0864	3083.1792	3110.4258	3506.0263
O=C1COC(CC#C)O1	O=C1CO[C@@H](CC#C)O1	
InChI=1S/C6H6O3/c1-2-3-6-8-4-5(7)9-6/h1,6H,3-4H2	InChI=1S/C6H6O3/c1-2-3-6-8-4-5(7)9-6/h1,6H,3-4H2/t6-/m1/s1
