17
gdb 42690	2.92338	1.94415	1.6886	3.634	74.09	-0.229	-0.0093	0.2197	862.7824	0.139836	-384.715194	-384.709224	-384.70828	-384.745327	25.614	
O	 0.0009532341	-0.0045929735	-0.0599721184	-0.351651
C	-0.014713794	 1.2031675318	-0.0223513809	 0.448691
C	-1.2362611324	 2.0749807932	-0.0217371304	-0.190608
C	-1.2266049127	 3.2384134776	 0.97464504	-0.0661
C	-0.0176459629	 3.3644412356	 1.8881064822	-0.246499
C	 1.1689306785	 3.270508177	 0.9420133236	-0.066099
C	 0.7150528088	 3.4902853317	-0.4746761163	-0.076986
C	-0.8175219319	 3.4697588024	-0.4537969447	-0.076985
C	 1.1826096296	 2.1073834	-0.0546810842	-0.190608
H	-2.1858855579	 1.6301188656	-0.2896253205	 0.103756
H	-2.1969093938	 3.5615210314	 1.3340440198	 0.096899
H	-0.024142612	 4.3461062077	 2.3766983863	 0.107978
H	 0.0032779273	 2.6033441488	 2.6756591023	 0.117002
H	 2.1396589133	 3.6196237839	 1.2749723476	 0.096899
H	 1.2582455596	 4.0905081076	-1.1921030402	 0.095278
H	-1.3959309179	 4.054959883	-1.1559435712	 0.095278
H	 2.1361621443	 1.6880160562	-0.348486465	 0.103756
140.9786	363.9023	384.4654	450.7938	573.521	621.6918	676.6739	679.2534	749.221	777.0036	800.2956	826.8931	843.2199	882.1346	905.7526	935.5504	974.0526	984.487	989.3391	1011.1237	1038.005	1071.6387	1083.1453	1097.4209	1102.7864	1122.1371	1191.8828	1209.7513	1269.2244	1301.1761	1307.3292	1317.9367	1324.0802	1386.9543	1395.8253	1490.0322	1824.4642	3035.4179	3074.9075	3176.02	3177.456	3196.4658	3200.081	3204.3784	3212.1709
O=C1C2C3CC4C(C23)C14	O=C1[C@H]2[C@H]3C[C@@H]4[C@H]([C@@H]23)[C@H]14	
InChI=1S/C8H8O/c9-8-6-2-1-3-5(4(2)6)7(3)8/h2-7H,1H2	InChI=1S/C8H8O/c9-8-6-2-1-3-5(4(2)6)7(3)8/h2-7H,1H2/t2-,3+,4-,5+,6-,7+
