17
gdb 41664	3.44204	1.91445	1.9013	1.3529	68.01	-0.2228	0.0918	0.3146	806.1901	0.14056	-421.818617	-421.813115	-421.812171	-421.848216	24.141	
C	-0.0245695837	 1.5552389381	 0.0524870441	-0.080298
O	 1.3508328261	 1.9836728284	 0.0269936325	-0.281998
C	 2.1462965036	 0.8093926847	-0.0912840756	 0.098249
C	 2.0010564004	 0.1363488401	-1.4559495413	-0.135987
C	 1.7258246142	-1.3166535489	-1.1590012735	 0.066754
O	 1.8359498289	-1.5393512387	 0.233264728	-0.251161
C	 1.377445069	-0.286771842	 0.7009501423	 0.035498
C	 0.0424993929	 0.0264483416	-0.042271533	-0.087444
C	 0.5591472426	-0.3988807465	-1.4193223932	-0.11264
H	-0.4899908152	 1.8952842718	 0.9875318166	 0.098687
H	-0.5690772792	 2.0070298675	-0.7854154719	 0.102979
H	 3.1616838766	 1.042829526	 0.2279089183	 0.082895
H	 2.4887155997	 0.4875217937	-2.3540949798	 0.094542
H	 2.0195017882	-2.1505625098	-1.7801051415	 0.110433
H	 1.3953999329	-0.2401719243	 1.7868513918	 0.08939
H	-0.844967944	-0.4989991501	 0.3116476912	 0.077093
H	-0.0704382228	-0.4671475017	-2.2958255549	 0.093007
235.138	367.2674	431.0659	554.9	601.6903	671.6501	708.2471	774.5687	802.1514	813.4177	852.6303	887.0847	914.375	930.5212	948.7476	977.1876	1002.9484	1006.9158	1012.8761	1048.1425	1052.7527	1057.6532	1073.8559	1089.4047	1108.9414	1161.5261	1201.4958	1243.0867	1243.8641	1263.9467	1269.4474	1303.2252	1327.9568	1343.3425	1385.1101	1394.2672	1529.0158	3007.4334	3046.0067	3113.1541	3124.6199	3162.3178	3207.8404	3217.0054	3229.9875
C1OC2C3C4OC2C1C34	C1O[C@@H]2[C@H]3[C@H]4O[C@@H]2[C@@H]1[C@@H]34	
InChI=1S/C7H8O2/c1-2-3-4-6(3)9-5(2)7(4)8-1/h2-7H,1H2	InChI=1S/C7H8O2/c1-2-3-4-6(3)9-5(2)7(4)8-1/h2-7H,1H2/t2-,3-,4+,5+,6-,7+/m0/s1
