15
gdb 62305	3.54356	1.45633	1.18785	2.4867	68.89	-0.2511	0.02	0.2711	1001.0274	0.112753	-416.710869	-416.703611	-416.702667	-416.742475	28.293	
N	-0.0088122145	 1.4978721387	-0.0370829037	-0.559595
C	 0.03282363	 0.0438492366	-0.0510358656	 0.125807
C	 0.9847484095	-0.5164456922	-1.0222855499	 0.221168
N	 1.7426202133	-0.9230320909	-1.796330476	-0.337766
C	 0.0335304099	-0.6263396507	 1.3460149962	-0.112908
C	-1.4921399604	-0.3559197863	 1.5307766037	 0.078886
O	-1.8074286816	-1.7335549823	 1.8836610107	-0.32481
C	-0.7966246372	-1.8478319467	 0.8427436243	 0.086786
C	-1.3499191542	-0.65308953	 0.0055240965	-0.112908
H	 0.9120062711	 1.8735361039	 0.1740760353	 0.244289
H	-0.2561947904	 1.8509455822	-0.9578213659	 0.244289
H	 0.8146114784	-0.6158366619	 2.1045402446	 0.101741
H	-2.0024189107	 0.4556298323	 2.0412135059	 0.120567
H	-0.4687897173	-2.834761935	 0.5240968073	 0.122713
H	-2.1326079861	-0.6728265977	-0.7511577534	 0.101741
126.5965	162.0087	239.4106	244.8944	338.7364	489.2061	492.3739	517.4657	617.7022	656.4889	783.9583	800.2784	809.1596	839.8815	882.5095	883.3894	921.004	932.2143	975.4245	1022.5386	1076.0791	1114.2922	1120.3369	1156.6534	1169.1161	1177.9387	1179.6001	1193.2057	1293.0026	1306.1267	1326.9506	1660.0687	2336.8368	3134.7924	3137.6875	3154.4512	3172.2919	3486.5452	3561.7031
NC1(C#N)C2C3OC2C13	N[C@@]1(C#N)[C@H]2[C@@H]3O[C@H]2[C@H]13	
InChI=1S/C6H6N2O/c7-1-6(8)2-4-3(6)5(2)9-4/h2-5H,8H2	InChI=1S/C6H6N2O/c7-1-6(8)2-4-3(6)5(2)9-4/h2-5H,8H2/t2-,3+,4-,5+,6-
