19
gdb 78574	4.96382	1.04365	0.99554	0.8533	86.65	-0.2517	0.0481	0.2998	1251.1385	0.158594	-348.647224	-348.639291	-348.638347	-348.679408	31.672	
C	-0.1758646962	 1.6292000895	-0.1211710324	-0.420137
C	-0.0544181942	 0.114768126	-0.0466510497	-0.003376
C	 1.1830344804	-0.5864856202	-0.6534306036	-0.068889
C	 2.0871277465	-0.2483917059	 0.5826235565	-0.045358
C	 2.5412540227	-1.7248839256	 0.7378375909	-0.213569
C	 2.9283646258	-2.200590794	 2.0514257275	 0.298954
C	 3.2482684216	-2.5924547326	 3.1431168123	-0.445842
C	 1.0484298559	-1.8031040605	 0.3224356067	-0.043326
C	 0.6569006878	-0.5392033042	 1.1606171639	-0.051644
H	 0.7645446079	 2.1257089503	 0.1395465858	 0.114421
H	-0.4548733968	 1.9524938445	-1.1302427966	 0.115001
H	-0.9469260714	 1.9950668794	 0.565914299	 0.11608
H	-1.006045509	-0.3647248803	-0.3106404074	 0.062909
H	 1.5132160156	-0.6349539563	-1.6931673246	 0.067672
H	 2.689881528	 0.6463507154	 0.736631701	 0.079253
H	 3.2462141107	-2.0677876901	-0.0287071359	 0.09146
H	 3.5319054158	-2.9389888421	 4.1057218141	 0.190638
H	 0.4363757167	-2.6931720458	 0.1709571578	 0.076137
H	 0.3795905322	-0.5316184176	 2.2149738049	 0.079618
109.879	139.8107	223.507	229.1721	272.6845	377.6327	469.4608	511.7736	572.2588	613.8096	633.7246	738.6165	760.8785	838.267	846.1717	853.0805	858.9355	910.7394	913.7415	970.8041	998.5201	1029.2343	1045.6961	1050.1918	1099.4076	1112.3543	1130.1732	1143.9427	1155.0247	1171.3677	1182.4223	1212.9932	1245.2295	1271.2594	1310.146	1362.6388	1399.9844	1415.6559	1494.7251	1500.4608	2229.9346	3020.0048	3028.7568	3036.0046	3089.6196	3090.6277	3099.9022	3105.4617	3111.4416	3122.1247	3504.5525
CC1C2C3C(C#C)C2C13	C[C@H]1[C@H]2[C@@H]3[C@@H](C#C)[C@H]2[C@H]13	
InChI=1S/C9H10/c1-3-5-8-6-4(2)7(8)9(5)6/h1,4-9H,2H3	InChI=1S/C9H10/c1-3-5-8-6-4(2)7(8)9(5)6/h1,4-9H,2H3/t4-,5-,6-,7+,8-,9+/m1/s1
