14
gdb 132116	3.04328	1.44053	0.97895	2.1261	74.01	-0.1834	-0.0532	0.1302	1105.2859	0.10193	-474.173475	-474.165668	-474.164724	-474.205779	29.533	
N	 0.0502643571	 1.4469667213	 0.1701966761	-0.583423
C	 0.0072135425	 0.0477497239	 0.053253095	 0.167843
C	-1.1414253435	-0.6752699212	 0.0023880839	 0.323879
F	-2.3514563923	-0.1253625955	-0.0248690908	-0.05858
N	-1.1292330888	-2.0346556065	-0.0378800256	-0.384626
C	 0.045313139	-2.7904895448	-0.0204361497	 0.341193
N	-0.0390357484	-4.071954583	-0.0522977417	-0.567335
C	 1.2232752413	-1.9242148069	 0.0263251175	-0.086421
N	 1.1964832974	-0.628946907	 0.0583443024	-0.26643
H	 0.9389239503	 1.7977365597	-0.164647531	 0.253112
H	-0.7159377987	 1.9111475775	-0.3002137393	 0.248497
H	-2.0051731618	-2.5374686911	-0.0774661663	 0.276408
H	 0.8913421113	-4.4844993397	-0.0364815035	 0.215034
H	 2.1955322946	-2.4125321867	 0.0294432932	 0.120848
104.3926	153.845	222.9371	279.1662	319.7871	334.5862	447.4136	493.1057	507.3581	560.8462	595.6664	651.9949	713.4743	725.2127	753.6855	767.1693	836.5721	912.4774	964.6043	1058.3169	1129.8622	1255.9718	1290.2204	1319.5793	1366.2517	1422.9359	1502.3284	1570.6497	1630.4103	1678.6843	1726.8225	3151.9051	3509.2737	3535.8485	3612.4989	3636.4011
NC1=C(F)NC(=N)C=N1	Nc1c(F)[nH]c([NH])cn1	
InChI=1S/C4H5FN4/c5-3-4(7)8-1-2(6)9-3/h1H,(H2,6,9)(H2,7,8)	InChI=1S/C4H10FN4/c5-3-4(7)8-1-2(6)9-3/h2-4,6,8-9H,1,7H2
