17
gdb 117073	4.68924	0.72704	0.63693	0.3262	67.56	-0.2431	-0.0858	0.1573	1705.9258	0.130868	-496.093464	-496.082865	-496.081921	-496.13054	35.073	
C	 0.0069553806	 1.3826326178	-0.0317288521	-0.226816
O	 0.0002431542	-0.0272951458	 0.008485983	-0.218489
C	 0.6295539235	-0.6006637179	-1.0944488535	-0.15012
C	 0.5829232573	-2.1123131536	-0.9821083006	 0.247537
O	 0.0749073976	-2.7158077087	-0.0698564061	-0.264984
C	 1.250302267	-2.8706367249	-2.1496352956	 0.281576
O	 1.7585347809	-2.2679513441	-3.0621296829	-0.264894
C	 1.204382364	-4.3820109273	-2.0384177739	-0.170986
O	 1.8408401816	-4.9447994595	-3.1536172472	-0.399054
H	 1.0315657525	 1.785610421	-0.0400983669	 0.10954
H	-0.5219853359	 1.7679809983	-0.9171752451	 0.109542
H	-0.504715368	 1.7317959802	 0.8675806172	 0.135765
H	 0.1583305013	-0.3123950844	-2.0511480988	 0.127079
H	 1.6872222428	-0.2954855909	-1.187547961	 0.127074
H	 1.674347393	-4.6561828554	-1.0792911824	 0.130034
H	 0.1449808436	-4.6731126377	-1.9436734194	 0.130009
H	 1.8024864541	-5.901461757	-3.0654356248	 0.297186
41.9223	74.8644	90.1998	102.8009	112.755	227.6634	232.0473	237.8852	291.1156	321.045	354.937	378.8482	517.6628	594.7534	730.5521	825.0879	898.4658	917.8664	1031.6629	1039.1271	1136.6791	1173.6788	1182.6706	1200.7113	1228.4524	1240.1497	1240.8934	1254.0748	1408.1383	1445.4951	1457.2398	1477.2162	1486.5542	1488.0201	1511.8217	1817.4423	1819.0575	2953.7526	2971.4964	2973.9115	2976.6506	2994.1007	3022.6148	3123.8618	3838.2628
COCC(=O)C(=O)CO	COCC(=O)C(=O)CO	
InChI=1S/C5H8O4/c1-9-3-5(8)4(7)2-6/h6H,2-3H2,1H3	InChI=1S/C5H8O4/c1-9-3-5(8)4(7)2-6/h6H,2-3H2,1H3
