19
gdb 112283	2.62986	1.09898	0.86819	3.1183	72.05	-0.2485	-0.0289	0.2196	1340.6275	0.157771	-460.1565	-460.146999	-460.146055	-460.191333	34.524	
O	-0.1564255347	 1.538939612	-0.2585894959	-0.420597
C	-0.0073688194	 0.1952708517	 0.1724097055	-0.086564
C	-1.360286009	-0.4773559322	 0.0081626659	-0.034833
C	-1.758043754	-0.6832698623	-1.4913355586	-0.337182
C	-1.4315121919	-2.1661764172	-1.3017783807	 0.394453
O	-1.1519159339	-3.0753870605	-2.038430454	-0.320389
C	-1.376841019	-2.0339938825	 0.2227766581	-0.137309
C	-0.2549871174	-2.8281791741	 0.8972139568	-0.087447
O	-0.4396121873	-4.210967094	 0.6678307127	-0.423859
H	 0.6982975203	 1.9752129203	-0.1943182923	 0.290235
H	 0.7530366063	-0.3300254668	-0.4288278618	 0.090564
H	 0.3140261479	 0.1435961764	 1.2246282464	 0.095136
H	-2.0976849394	 0.0659139505	 0.6015435759	 0.090021
H	-2.8232250274	-0.5238404089	-1.6856735413	 0.13466
H	-1.1807629666	-0.1397036303	-2.2428611292	 0.139613
H	-2.3353362578	-2.3517839925	 0.6497270598	 0.115799
H	 0.7263509909	-2.4882670622	 0.5300703711	 0.088313
H	-0.2651463155	-2.6811488834	 1.9823669079	 0.111958
H	-0.5002882123	-4.326335684	-0.2903853564	 0.297428
58.6115	112.785	124.2329	145.2644	192.774	265.4153	286.3867	333.1821	397.4471	441.4481	494.9548	518.3017	568.2451	738.0983	769.448	831.5782	847.4094	914.1645	957.7338	1031.9372	1058.5226	1069.7387	1078.1888	1100.7436	1133.2288	1141.3938	1178.5374	1202.1493	1225.3038	1244.5727	1270.9078	1289.1792	1321.5294	1362.1781	1387.3568	1440.4516	1447.7001	1464.0198	1513.4228	1521.5392	1859.5004	2960.2938	2980.9604	2993.8426	3047.4035	3063.4672	3068.5903	3097.1445	3122.57	3750.4599	3829.2027
OCC1CC(=O)C1CO	OC[C@H]1CC(=O)[C@H]1CO	
InChI=1S/C6H10O3/c7-2-4-1-6(9)5(4)3-8/h4-5,7-8H,1-3H2	InChI=1S/C6H10O3/c7-2-4-1-6(9)5(4)3-8/h4-5,7-8H,1-3H2/t4-,5+/m1/s1
