18
gdb 78876	2.79746	1.78505	1.35514	1.9334	74.6	-0.2416	0.0628	0.3044	975.8187	0.148813	-401.866624	-401.859399	-401.858455	-401.897954	29.505	
O	-0.0814898979	 1.4536964938	-0.0598522907	-0.440066
C	-0.0727533119	 0.0586306695	 0.0566133734	 0.15947
C	 0.1458681952	-0.6424854367	 1.389400889	-0.115865
C	-1.1855068356	-0.824692814	 2.0500776847	-0.144054
N	-0.7421540169	-1.7923306914	 0.9853721397	-0.158453
C	-1.3906642759	-0.754867302	 0.0069051863	-0.159159
C	-2.2397517897	-0.2309431807	 1.1569383753	 0.415269
C	-3.7150673154	-0.3922129901	 1.3168400546	-0.350526
C	-3.1025160896	 0.9966702704	 1.2768003812	-0.363301
H	-0.7102608938	 1.7940344116	 0.5861349915	 0.289307
H	 0.6366892713	-0.3155617753	-0.6855889161	 0.102443
H	 1.0794800424	-0.8134935762	 1.9139224842	 0.097025
H	-1.2804330324	-1.130863155	 3.0862526624	 0.098751
H	-1.8326770835	-1.0874468746	-0.9307147547	 0.084183
H	-4.2939252411	-0.718563213	 0.458925431	 0.121194
H	-4.0897347182	-0.7511076994	 2.2699903162	 0.120152
H	-3.0731997664	 1.5636119378	 2.2021667825	 0.118515
H	-3.2718599607	 1.5974015552	 0.3888169996	 0.125113
140.5179	187.2076	261.5106	288.2488	337.6375	407.6499	500.5062	581.964	638.8771	735.9673	770.747	775.7388	800.1869	807.7867	893.0295	921.2548	936.5626	953.0042	980.8287	983.2172	1011.5031	1037.2105	1051.3821	1055.3117	1081.1639	1125.0579	1132.6355	1178.2223	1188.4313	1200.4129	1233.1284	1268.4216	1288.368	1310.5858	1352.1362	1427.2055	1441.3847	1463.7475	1510.375	3092.3421	3122.6845	3127.7155	3136.0775	3172.1661	3184.1423	3202.3745	3217.059	3807.719
OC1C2C3N2C1C31CC1	O[C@H]1[C@H]2[C@@H]3N2[C@H]1C13CC1	
InChI=1S/C7H9NO/c9-4-3-5-7(1-2-7)6(4)8(3)5/h3-6,9H,1-2H2	InChI=1S/C7H9NO/c9-4-3-5-7(1-2-7)6(4)8(3)5/h3-6,9H,1-2H2/t3-,4-,5-,6+,8?/m0/s1
