18
gdb 71548	2.61775	1.47811	1.39544	3.5942	77.97	-0.2364	-0.0319	0.2046	1034.9485	0.146821	-401.866491	-401.85849	-401.857546	-401.898987	30.681	
C	 0.0824028763	 1.4964176044	 0.0087528686	-0.520668
C	 0.0636632902	-0.0019714177	-0.0827270579	 0.310075
C	 0.5526691244	-0.9433540974	-1.2055009524	-0.322399
C	 0.002154031	-1.9139654948	-0.1448578887	-0.112912
C	 0.4855364799	-1.0148259154	 1.0386421726	-0.049444
N	-0.8386708078	-0.9026822043	 1.7300515584	-0.380358
C	-1.1700567666	-0.9371307081	 0.2775350127	 0.245633
C	-2.5436881636	-0.9151097295	-0.2757064232	 0.025847
O	-3.5471904318	-0.9516403167	 0.3928631414	-0.252502
H	 1.1099628335	 1.873712231	-0.0362564521	 0.123715
H	-0.4770185494	 1.9542645266	-0.8137664033	 0.123787
H	-0.36364987	 1.8188484337	 0.9541345436	 0.149651
H	 0.0245978849	-0.8932247852	-2.1621231165	 0.101793
H	 1.6340226664	-0.97074555	-1.3729275134	 0.099927
H	-0.0598837608	-3.0034689253	-0.157886414	 0.084589
H	 1.4369858356	-1.0569228738	 1.571409475	 0.085837
H	-1.0980637437	-1.7861586847	 2.1759652762	 0.214455
H	-2.5866718887	-0.8789388829	-1.388771037	 0.072976
84.1523	165.1398	206.4565	221.2283	251.6886	347.8639	355.195	498.0536	521.2094	654.4665	683.1776	692.1555	801.4184	838.608	863.7619	901.9323	931.4886	952.9753	993.1284	1005.5486	1042.5685	1049.4914	1083.2133	1133.4646	1150.7856	1165.3178	1188.38	1199.423	1230.5986	1269.6643	1287.5911	1318.6898	1341.4151	1405.7394	1428.213	1487.4437	1489.7672	1517.1368	1812.151	2862.7771	3032.5446	3044.7961	3095.7214	3098.9515	3100.0327	3110.2509	3116.323	3414.7926
CC12CC3C1NC23C=O	C[C@@]12C[C@H]3[C@@H]1N[C@@]23C=O	
InChI=1S/C7H9NO/c1-6-2-4-5(6)8-7(4,6)3-9/h3-5,8H,2H2,1H3	InChI=1S/C7H9NO/c1-6-2-4-5(6)8-7(4,6)3-9/h3-5,8H,2H2,1H3/t4-,5-,6+,7+/m0/s1
