17
gdb 66629	2.70735	1.93643	1.49052	0.312	70.88	-0.2227	0.062	0.2847	912.7138	0.136073	-421.742905	-421.735753	-421.734809	-421.773896	29.659	
O	-0.1067320074	 1.4361031504	 0.1000498947	-0.456092
C	 0.0525263249	 0.0754305297	 0.0231338079	 0.281464
C	 0.0545748607	-1.02992381	 1.0583886214	-0.164615
C	-1.0029246733	-0.9857866589	-0.075642476	-0.120952
C	-0.2849050126	-1.825282983	-1.1571692105	-0.132899
C	 0.4376609412	-2.989092105	-0.435111395	-0.248402
C	 1.1507169383	-1.8667181871	 0.3617532228	-0.09347
C	 0.9594909061	-0.887253972	-0.851197	 0.33147
O	 2.0038403165	-0.5931135911	-1.6956688657	-0.480441
H	 0.6299997795	 1.799230875	 0.6048956872	 0.290513
H	-0.2246839517	-1.002153565	 2.1035423687	 0.087779
H	-2.0611324745	-0.9031743501	 0.1323420855	 0.090897
H	-0.7504173853	-1.9282133411	-2.1375868076	 0.061587
H	-0.1634260069	-3.7189649808	 0.114416574	 0.091789
H	 1.132083032	-3.5042151073	-1.105056009	 0.104595
H	 2.1065904916	-2.0063644613	 0.8650498265	 0.068498
H	 1.657813051	-0.1028186123	-2.4503239949	 0.288279
181.8135	237.7665	272.3333	311.8979	352.5494	369.8691	506.0104	572.0235	579.2264	625.5151	697.9867	757.0456	825.1828	854.2299	868.4796	895.5708	927.2015	934.1212	941.2735	955.3315	988.9823	1022.989	1040.1471	1079.266	1117.3489	1128.3289	1157.7461	1205.7438	1213.2879	1221.7915	1251.0417	1268.363	1311.7162	1312.8784	1399.5911	1473.961	1486.3902	3051.8454	3108.9945	3114.3066	3125.9715	3196.7501	3208.633	3786.5969	3790.9845
OC12C3C1C1CC3C21O	O[C@@]12[C@H]3[C@@H]1[C@@H]1C[C@H]3[C@]21O	
InChI=1S/C7H8O2/c8-6-2-1-3(6)5-4(2)7(5,6)9/h2-5,8-9H,1H2	InChI=1S/C7H8O2/c8-6-2-1-3(6)5-4(2)7(5,6)9/h2-5,8-9H,1H2/t2-,3+,4-,5+,6-,7+
