21
gdb 110063	2.31383	1.40963	1.17535	2.8506	74.35	-0.2451	0.0622	0.3073	1174.7279	0.181707	-461.354181	-461.344468	-461.343523	-461.389265	35.399	
C	 0.300031778	 1.6745757243	-0.3041273773	-0.249979
O	-0.094371292	 0.313445148	-0.2657488036	-0.254746
C	 0.6493215874	-0.5278844447	-1.1246825551	 0.066869
C	 1.955279086	-1.0483656201	-0.4719687494	 0.076174
O	 1.7761196743	-1.2296864913	 0.9219446866	-0.443088
C	 2.1484595144	-2.3990162781	-1.173244497	-0.084436
O	 0.927027932	-2.7259327354	-1.8468601559	-0.278279
C	-0.1103589564	-1.8278404805	-1.4622108335	 0.097866
C	-0.9702293952	-2.384402086	-0.3275209329	-0.404143
H	 1.3385209365	 1.8141517365	 0.0268852485	 0.12055
H	 0.1968839318	 2.0882536222	-1.3170063261	 0.119723
H	-0.3630991814	 2.218364399	 0.3722595302	 0.135602
H	 0.8893463123	-0.000426889	-2.0582211512	 0.077432
H	 2.8065144027	-0.3779988273	-0.6545602024	 0.068179
H	 1.0678944891	-0.6232265928	 1.1797280286	 0.290086
H	 2.946440559	-2.3629404238	-1.9239614222	 0.098808
H	 2.4022434147	-3.1621742808	-0.4280200506	 0.115032
H	-0.7367739977	-1.6816490688	-2.3494734186	 0.079974
H	-0.3702769895	-2.5625245051	 0.5676087871	 0.1307
H	-1.7719661549	-1.6840963208	-0.0769586342	 0.119822
H	-1.4165505911	-3.3305719758	-0.6455415711	 0.117853
53.5927	72.0931	113.5923	172.4785	211.279	249.4069	290.9691	325.0473	366.0587	420.5885	460.3236	493.9118	560.1144	710.0264	793.9841	804.9779	864.9395	881.3512	954.2316	1010.7218	1025.2869	1056.0052	1077.0031	1117.6086	1139.3108	1154.4813	1165.2526	1182.959	1222.5884	1229.8033	1246.5103	1319.3345	1326.4108	1367.0643	1371.6333	1389.6117	1395.9762	1404.1759	1414.9211	1480.8962	1487.2522	1490.1351	1505.6652	1507.6697	1515.4895	2992.8465	2995.3457	3011.9993	3026.8153	3042.4969	3049.1918	3049.5119	3067.2564	3122.4445	3123.4468	3137.5819	3738.6185
COC1C(O)COC1C	CO[C@H]1[C@@H](O)CO[C@H]1C	
InChI=1S/C6H12O3/c1-4-6(8-2)5(7)3-9-4/h4-7H,3H2,1-2H3	InChI=1S/C6H12O3/c1-4-6(8-2)5(7)3-9-4/h4-7H,3H2,1-2H3/t4-,5-,6+/m0/s1
