18
gdb 65483	3.15377	1.21981	1.03791	4.1958	77.03	-0.2514	0.0106	0.262	1198.7751	0.145886	-401.933068	-401.924333	-401.923388	-401.966727	32.998	
C	-0.5458800936	 1.6527484524	-0.0102353211	-0.438461
C	 0.0141147407	 0.2383330121	-0.0710964637	 0.259681
C	 0.8481789892	-0.147991376	-1.3297422109	-0.409415
C	 1.9823048423	-0.3357166962	-0.3319403085	 0.458255
C	 2.9799910076	-1.4351543317	-0.2066800005	-0.328642
C	 3.4284639411	 0.0075261002	-0.418785502	-0.335483
O	 1.1765913321	 0.0808333491	 0.78106823	-0.320611
C	-1.019526079	-0.75247872	 0.2759049237	 0.263252
N	-1.8377510784	-1.5268300661	 0.5335812252	-0.335825
H	 0.2397616197	 2.3635622482	-0.277756913	 0.132452
H	-1.3852773136	 1.7652238314	-0.7029546573	 0.138479
H	-0.895335791	 1.8776553728	 1.0007616808	 0.148923
H	 0.5177851868	-1.0438111548	-1.8555152925	 0.137093
H	 0.971351625	 0.6756411978	-2.0356365094	 0.12308
H	 3.1215793549	-1.8599385141	 0.7810803608	 0.134855
H	 3.0814871932	-2.1398025099	-1.025767738	 0.121375
H	 3.8381009077	 0.291764042	-1.3828834798	 0.119504
H	 3.8641853452	 0.5225594828	 0.4306691662	 0.131489
41.3993	160.4822	181.376	218.2812	246.6369	302.0759	347.4833	367.2197	452.3749	470.4388	576.3051	602.188	683.886	754.4287	829.5956	873.6399	885.2871	918.2278	923.1787	927.2372	984.4047	994.3906	1050.3563	1071.8258	1114.1213	1140.6736	1182.5016	1186.327	1248.8167	1252.8333	1258.9402	1389.1483	1406.3731	1448.4467	1477.8143	1484.587	1491.741	1506.306	2353.6679	3046.6395	3081.028	3125.7937	3128.7465	3131.9046	3133.6754	3143.5087	3213.115	3227.1079
CC1(CC2(CC2)O1)C#N	C[C@]1(CC2(CC2)O1)C#N	
InChI=1S/C7H9NO/c1-6(5-8)4-7(9-6)2-3-7/h2-4H2,1H3	InChI=1S/C7H9NO/c1-6(5-8)4-7(9-6)2-3-7/h2-4H2,1H3/t6-/m0/s1
