19
gdb 95453	2.86911	1.39745	1.0137	1.8145	77.79	-0.2107	0.0156	0.2263	1191.5777	0.160132	-419.189104	-419.180395	-419.179451	-419.223102	31.406	
C	 0.2845558696	 1.3002251909	 0.1974134367	-0.333848
N	-0.2031837622	-0.0571599811	 0.0552229448	-0.112835
C	 0.179322133	-0.8155896049	-1.1403253129	-0.185266
C	-0.0806424549	-2.2707402596	-0.6778265777	-0.17161
N	-0.1557419418	-2.214818084	 0.7929507491	-0.318735
C	-0.2134070129	-0.9724170833	 1.1001586252	 0.389604
C	-0.3488311827	-0.4880260178	 2.5028168273	-0.060425
C	 0.2639001218	-1.2303560235	 3.6025499904	-0.152468
O	 0.8624837049	-0.0211716344	 3.1214218464	-0.237729
H	 1.3821117386	 1.3573110516	 0.1223256192	 0.119934
H	-0.1454161713	 1.9334433131	-0.5853271467	 0.124849
H	-0.0091517502	 1.709165872	 1.1653745453	 0.146712
H	-0.4118973765	-0.5175000312	-2.0115935387	 0.109345
H	 1.2416822605	-0.6404887837	-1.3756959976	 0.09794
H	-1.034990659	-2.6491672459	-1.0662909107	 0.111549
H	 0.6979329575	-2.9671895943	-1.0012626584	 0.112123
H	-1.2190888462	 0.137591406	 2.7035200846	 0.107178
H	-0.1734563571	-1.1670282108	 4.5972977284	 0.114048
H	 0.8017135088	-2.1453916291	 3.370667325	 0.139634
55.9442	115.3544	151.2222	176.5348	193.4127	236.0653	318.446	365.9974	486.4363	572.2963	668.4912	745.2546	792.2618	849.8505	862.3634	914.094	955.8316	981.9627	1007.2198	1054.0367	1091.8444	1104.5724	1144.2822	1153.5693	1159.0544	1178.8265	1208.9828	1244.2604	1262.9679	1286.8012	1300.0687	1334.4854	1397.981	1457.3224	1473.6287	1484.736	1495.5885	1512.3763	1524.8266	1539.407	1692.5818	2969.5377	2982.1596	3022.4265	3067.9753	3070.2822	3083.285	3098.7515	3107.4942	3136.6578	3199.8665
CN1CCN=C1C1CO1	CN1CC[N][C]1[C@H]1CO1	
InChI=1S/C6H10N2O/c1-8-3-2-7-6(8)5-4-9-5/h5H,2-4H2,1H3	InChI=1S/C6H10N2O/c1-8-3-2-7-6(8)5-4-9-5/h5H,2-4H2,1H3/t5-/m1/s1
