16
gdb 86873	2.93553	1.27736	1.02205	3.1752	65.82	-0.2568	-0.0497	0.2072	1158.5461	0.123731	-475.078124	-475.069504	-475.068559	-475.112305	29.837	
C	 0.1192016903	 1.347522347	 0.3804255134	-0.341036
N	 0.0888423569	-0.0916918703	 0.2551420023	-0.135854
C	-1.1403499569	-0.8513082648	 0.1790656628	-0.206127
C	-0.5744658075	-2.2713502598	 0.0129973222	 0.003738
O	 0.7684237586	-2.100584942	-0.4433128293	-0.255199
C	 1.1619845533	-0.7957959175	-0.2279198229	 0.48972
O	 2.2756955951	-0.4060538525	-0.4428816052	-0.395445
C	-0.5595927886	-3.0684509334	 1.3189638032	 0.132682
O	-1.4182764261	-2.9858386521	 2.155640089	-0.22734
H	 1.1603939274	 1.6651170438	 0.3096134666	 0.171112
H	-0.4576696602	 1.8327975351	-0.4186593516	 0.125423
H	-0.2918002778	 1.6610021243	 1.3456754016	 0.133668
H	-1.74087778	-0.7804507794	 1.0910679927	 0.146687
H	-1.7590994388	-0.5432848697	-0.675774926	 0.113922
H	-1.1210948466	-2.8601054976	-0.7324182805	 0.131089
H	 0.315966221	-3.7441490809	 1.4192460117	 0.112961
62.0331	102.7892	136.5079	146.1301	181.2612	267.5573	308.6765	391.5866	488.5359	603.7565	647.471	733.6041	764.2563	815.1773	846.7522	947.3565	1027.8982	1048.4695	1087.1419	1107.9308	1128.9145	1158.8414	1213.2296	1291.8368	1296.0006	1327.0723	1338.4063	1397.6686	1429.8587	1452.7726	1490.9929	1514.5861	1544.9711	1837.5673	1882.9621	2921.9022	2999.4565	3011.6589	3052.1286	3075.3679	3081.1102	3149.6516
CN1CC(OC1=O)C=O	CN1C[C@@H](OC1=O)C=O	
InChI=1S/C5H7NO3/c1-6-2-4(3-7)9-5(6)8/h3-4H,2H2,1H3	InChI=1S/C5H7NO3/c1-6-2-4(3-7)9-5(6)8/h3-4H,2H2,1H3/t4-/m1/s1
