16
gdb 6687	5.46603	0.74248	0.72795	1.7169	75.14	-0.2568	0.0272	0.2839	1569.6125	0.12694	-346.535585	-346.525959	-346.525015	-346.572427	33.387	
C	 0.3374692333	 1.3851566966	 0.3015418754	-0.385
C	-0.2432898722	 0.006957971	-0.0458425815	-0.018058
O	-1.6661003595	 0.0449767234	-0.1348973966	-0.412994
C	 0.3643827849	-0.5437629558	-1.2627734988	 0.099251
C	 0.846284789	-0.9671903986	-2.2812422168	 0.03677
C	 1.431518603	-1.4943824526	-3.5159907547	-0.491764
C	 2.1152243738	-2.7771016375	-3.3395910658	 0.318904
C	 2.6805092245	-3.8277315799	-3.2074905462	-0.442375
H	 1.4175012951	 1.3235306722	 0.4636467498	 0.126028
H	 0.1558988826	 2.0936185065	-0.5133409659	 0.115118
H	-0.1406366518	 1.762619818	 1.2091555534	 0.125723
H	-0.0422408105	-0.6783150954	 0.7865651068	 0.121119
H	-1.8908789469	 0.5223305346	-0.9412845649	 0.281519
H	 0.6426938066	-1.6061265676	-4.2728947694	 0.162899
H	 2.137268706	-0.762163561	-3.9321670182	 0.161084
H	 3.1775904823	-4.7579589636	-3.0849292264	 0.201776
5.4753	76.1724	112.2962	164.9426	252.7666	270.1255	295.5573	320.7432	331.5087	391.5865	511.6579	547.0661	580.0292	624.5775	651.4187	741.3448	893.4416	934.7513	943.4465	1016.8008	1066.5185	1097.1899	1174.2943	1231.4925	1281.7345	1333.4439	1339.1968	1398.8056	1416.8426	1452.3798	1488.0063	1491.4215	2248.0732	2368.3032	3007.3349	3031.5045	3036.5591	3040.5416	3113.1627	3126.8798	3507.031	3804.0134
CC(O)C#CCC#C	C[C@@H](O)C#CCC#C	
InChI=1S/C7H8O/c1-3-4-5-6-7(2)8/h1,7-8H,4H2,2H3	InChI=1S/C7H8O/c1-3-4-5-6-7(2)8/h1,7-8H,4H2,2H3/t7-/m1/s1
