17
gdb 12245	3.38771	1.5602	1.21149	1.4096	65.95	-0.269	0.0138	0.2828	1024.1796	0.141154	-400.999195	-400.990618	-400.989674	-401.032637	30.503	
C	-0.0779947	 1.4389835497	-0.2965404458	-0.390635
C	-0.0377175382	-0.0726442189	-0.0552800154	-0.177726
C	-1.3896071312	-0.6367429605	 0.3237786886	 0.102491
O	-2.3828111391	-0.4914684978	-0.7694486036	-0.265723
C	-2.4650335109	-1.8503239631	-0.9295275695	 0.394932
N	-3.0193785749	-2.5645106948	-1.7993291303	-0.554114
C	-1.5789424804	-2.1768610366	 0.2554899863	-0.012244
O	-0.4354994762	-2.9467949156	-0.0083023402	-0.426095
H	 0.9080845292	 1.8135460945	-0.5851982292	 0.118445
H	-0.7827814799	 1.6843609887	-1.096128901	 0.135191
H	-0.3909791872	 1.9790881874	 0.6038003	 0.115451
H	 0.3280207636	-0.5982019898	-0.9428341195	 0.112614
H	 0.6610355453	-0.316296922	 0.7545153752	 0.114047
H	-1.7914151694	-0.167454082	 1.2268081775	 0.092381
H	-3.4941809873	-2.0045213154	-2.5092907985	 0.231928
H	-2.137255754	-2.5743837017	 1.1130780651	 0.104358
H	-0.6569313293	-3.5414178421	-0.7343415697	 0.304698
73.3948	96.5739	159.6356	168.9596	228.3928	240.6404	302.7239	417.2076	462.7626	551.7846	670.8425	749.0393	793.6801	828.7524	872.1646	890.0575	933.8992	979.2737	1032.8135	1055.8244	1095.1933	1143.0263	1174.738	1211.2762	1237.6221	1282.0196	1307.4589	1347.88	1377.5006	1383.0175	1406.9972	1413.3357	1473.8875	1499.2681	1509.1029	1823.2982	3021.1888	3038.0047	3041.9152	3067.4111	3087.1341	3109.1464	3119.9437	3478.2085	3802.4168
CCC1OC(=N)C1O	CC[C@H]1O[C]([NH])[C@H]1O	
InChI=1S/C5H9NO2/c1-2-3-4(7)5(6)8-3/h3-4,6-7H,2H2,1H3	InChI=1S/C5H9NO2/c1-2-3-4(7)5(6)8-3/h3-4,6-7H,2H2,1H3/t3-,4+/m1/s1
