25
gdb 58765	2.87133	1.22854	1.18103	0.1006	91.66	-0.2807	0.0792	0.3599	1248.1555	0.230602	-352.361698	-352.352699	-352.351755	-352.394945	36.361	
C	 0.0508707776	 1.49905164	-0.1355793523	-0.397168
C	-0.0012591459	-0.0234901061	 0.0659168585	-0.07486
C	 0.7591369758	-0.4383075452	 1.3352393798	-0.397169
C	-1.4288355317	-0.5568169029	 0.0508602748	 0.400363
C	-2.3196238413	-0.4678679917	-1.2320259858	-0.272111
C	-3.1022450601	-1.6165513106	-0.5392725709	-0.020639
C	-1.7259063383	-2.0918905941	 0.000744087	-0.272111
C	-3.6957137531	-0.9012696974	 0.6888621884	-0.212232
C	-2.4316383984	-0.0965979125	 1.1400936087	-0.258728
H	 1.0868647725	 1.8447579995	-0.2146468614	 0.107725
H	-0.4729419789	 1.8010496476	-1.0481696004	 0.113642
H	-0.4091568865	 2.0293047545	 0.7055672234	 0.114399
H	 0.5131576099	-0.4850925411	-0.789818168	 0.063755
H	 0.7424919045	-1.5238004662	 1.4760698224	 0.113641
H	 1.8066949429	-0.124254626	 1.2800943471	 0.107725
H	 0.3247579029	 0.0220275059	 2.229514471	 0.1144
H	-2.8495812017	 0.4686726007	-1.4344201563	 0.082758
H	-1.786145371	-0.7983716168	-2.1276253451	 0.088958
H	-3.7609719581	-2.2818642432	-1.0984887243	 0.054103
H	-1.1264480681	-2.6028804916	-0.7578525963	 0.088958
H	-1.7068382235	-2.6571322497	 0.938329561	 0.082757
H	-4.5363052333	-0.2516944731	 0.426787399	 0.092123
H	-4.0420199629	-1.6036516817	 1.4530342393	 0.092124
H	-2.1029119382	-0.3664316826	 2.14775174	 0.093794
H	-2.5967883949	 0.9844468542	 1.1222993805	 0.093794
68.7242	167.2475	204.4417	227.4283	249.4092	284.6551	306.0608	400.0184	449.0988	465.54	506.1013	582.417	673.6649	824.4816	829.653	839.223	869.7328	900.7387	902.8561	927.0718	936.4716	963.4637	963.7838	975.0772	995.5108	1005.1872	1076.5745	1095.5233	1103.3677	1122.0143	1138.6348	1150.7468	1198.1041	1202.5673	1239.3331	1246.8154	1247.7807	1271.7646	1281.5264	1318.4627	1341.7435	1350.56	1373.4734	1397.279	1418.8307	1486.3895	1488.0207	1492.9837	1494.6221	1499.9197	1503.7735	1513.0311	1531.8624	2990.3223	3027.6634	3031.9227	3037.8422	3043.5822	3044.9728	3056.7532	3080.6445	3092.1988	3097.1434	3098.6312	3100.4184	3101.8013	3102.6396	3103.552	3108.6683
CC(C)C12CC(C1)CC2	CC(C)[C@@]12C[C@@H](C1)CC2	
InChI=1S/C9H16/c1-7(2)9-4-3-8(5-9)6-9/h7-8H,3-6H2,1-2H3	InChI=1S/C9H16/c1-7(2)9-4-3-8(5-9)6-9/h7-8H,3-6H2,1-2H3/t8-,9-
