17
gdb 98005	7.36902	0.47917	0.45368	3.997	102.41	-0.248	-0.0666	0.1815	2397.523	0.132121	-384.673254	-384.662454	-384.661509	-384.712775	35.573	
C	 0.0969249573	 1.5053477636	 0.0295827282	-0.386071
C	-0.0638360143	-0.0123917317	 0.0476754658	-0.277703
C	-1.5126472549	-0.4631147627	-0.0575942586	 0.122197
O	-2.4438203157	 0.3109472555	-0.146794668	-0.285668
C	-1.7184376002	-1.8973802736	-0.0448324092	 0.21322
C	-1.8930616821	-3.09919582	-0.0343284519	-0.04216
C	-2.0882410445	-4.440784439	-0.0226451394	-0.213077
C	-2.263893164	-5.6390685995	-0.0121505565	 0.255724
C	-2.4762228154	-7.0735713107	-0.0015518946	-0.519714
H	 1.152717634	 1.7789186526	 0.1073568248	 0.110012
H	-0.3048265072	 1.9299012643	-0.893829165	 0.133841
H	-0.4432940487	 1.9654863829	 0.8607098554	 0.133845
H	 0.4906667173	-0.4878605681	-0.7727789807	 0.131354
H	 0.3535690146	-0.4526406501	 0.9634509553	 0.131359
H	-3.4843960242	-7.3219444946	 0.3479065321	 0.164519
H	-2.3581015688	-7.4918259584	-1.0075121319	 0.165214
H	-1.7570303034	-7.5751475604	 0.6553756742	 0.163108
6.5245	48.6886	51.4672	85.8762	141.8501	183.5546	218.9925	259.9861	321.2726	360.1778	374.2771	510.4751	545.9588	557.1624	603.2841	678.6978	806.2839	822.2164	993.1167	1041.4828	1044.7685	1047.5796	1087.8689	1120.2246	1271.7593	1286.7727	1371.509	1411.6216	1412.9613	1448.2937	1467.2752	1469.8029	1491.3353	1497.608	1751.348	2254.7096	2362.6519	3022.224	3026.7893	3049.4282	3051.7899	3090.7656	3092.1039	3123.7584	3128.2601
CCC(=O)C#CC#CC	CCC(=O)C#CC#CC	
InChI=1S/C8H8O/c1-3-5-6-7-8(9)4-2/h4H2,1-2H3	InChI=1S/C8H8O/c1-3-5-6-7-8(9)4-2/h4H2,1-2H3
