22
gdb 94366	2.79845	1.42487	1.17493	1.7565	85.25	-0.2265	0.0769	0.3034	1155.1037	0.195112	-367.156888	-367.148549	-367.147605	-367.189613	33.245	
C	-0.7122714818	 1.1616036082	-0.0298648344	-0.420805
C	 0.1120449384	-0.1128015247	-0.1398829883	-0.020379
C	 1.5353036805	-0.0311123001	-0.7581795446	-0.233052
C	 2.0080176359	-1.078866045	 0.2818855039	-0.291266
C	 0.7462387533	-0.7677282786	 1.1279961447	 0.362382
C	 0.973188768	-0.012504397	 2.4684308578	-0.24293
N	 0.4547863612	-1.1722245921	 3.2809507274	-0.124717
C	-0.947738885	-1.335750154	 2.8654831206	-0.247981
C	 0.1037155027	-1.8588931073	 1.9686657641	-0.116307
H	-0.1647766668	 1.9492761735	 0.4997005233	 0.113895
H	-0.9602590843	 1.5468142696	-1.0254041984	 0.115617
H	-1.6557609311	 0.9939639307	 0.5013212991	 0.114944
H	-0.4704643981	-0.8810315003	-0.6642426455	 0.070856
H	 1.6455707888	-0.2776732649	-1.8168098247	 0.095297
H	 1.9893548074	 0.9497769112	-0.5825328092	 0.098977
H	 1.9747412015	-2.0962171403	-0.1218331464	 0.099929
H	 2.9802886067	-0.9285768941	 0.7590008208	 0.099611
H	 2.0263132617	 0.1684065646	 2.6973327427	 0.10868
H	 0.4092080315	 0.9120931175	 2.6330389238	 0.09979
H	-1.4879606047	-2.0553374167	 3.4736034052	 0.119184
H	-1.5240853476	-0.4561348801	 2.5860414887	 0.110473
H	 0.2632729018	-2.9246298399	 1.8252997294	 0.087801
88.796	132.1248	201.9456	231.5662	268.4951	327.8637	422.3452	433.4011	484.1547	526.417	654.6953	744.7826	779.424	787.4603	849.1748	876.778	890.7449	907.7755	944.7814	956.8642	975.1835	990.5456	1048.7302	1059.8961	1105.1044	1106.0564	1111.7487	1154.8626	1164.1919	1183.9649	1194.4785	1204.9118	1228.0857	1255.0668	1264.9935	1269.2932	1287.4742	1302.3694	1369.6142	1378.809	1410.3973	1478.8564	1489.4117	1493.3699	1497.9225	1500.4311	1509.5491	3021.4596	3024.2421	3039.1283	3044.2524	3049.5183	3089.6287	3091.2304	3092.9837	3100.5378	3103.0016	3108.5899	3141.4884	3193.4502
CC1CCC11CN2CC12	C[C@H]1CC[C@]21CN1C[C@@H]21	
InChI=1S/C8H13N/c1-6-2-3-8(6)5-9-4-7(8)9/h6-7H,2-5H2,1H3	InChI=1S/C8H13N/c1-6-2-3-8(6)5-9-4-7(8)9/h6-7H,2-5H2,1H3/t6-,7-,8+,9?/m0/s1
