18
gdb 14560	3.44593	1.70467	1.44283	2.0092	67.21	-0.2367	0.0582	0.295	926.1892	0.153921	-384.896781	-384.889051	-384.888107	-384.928491	30.258	
O	 0.2086310217	 0.8669991018	 0.8028598186	-0.425882
C	-0.0835219342	 0.2916099232	-0.4747111592	-0.158177
C	-1.4449138136	-0.3606781617	-0.4342899446	 0.417616
O	-2.4311452731	 0.5471666204	-0.014845735	-0.485062
C	-1.9923964231	-1.3440471951	-1.4132453943	-0.108291
C	-0.9311928985	-2.3221351293	-1.930120206	-0.242792
C	-0.6367841048	-2.767779856	-0.4584193654	-0.245031
C	-1.6966954088	-1.7795685116	 0.0420600953	-0.133472
H	 0.3176508831	 0.138832411	 1.4248894724	 0.28758
H	-0.0965995992	 1.1321002721	-1.1757207089	 0.120684
H	 0.7035475863	-0.4036135269	-0.7885000156	 0.098201
H	-2.0296881868	 1.0314666874	 0.7192077658	 0.284259
H	-2.9514775547	-1.1434734254	-1.8754812226	 0.096208
H	-1.3676487619	-3.1312659444	-2.5191219786	 0.109238
H	-0.1014276235	-1.8950559565	-2.5023928989	 0.09808
H	-0.9185269653	-3.8086081764	-0.2844665991	 0.109035
H	 0.3856672691	-2.6300263777	-0.0888157824	 0.08842
H	-2.4048407325	-1.9488983151	 0.8441111485	 0.089387
98.5685	180.2005	236.3218	278.9071	307.0855	352.4599	414.3158	483.4149	509.9003	520.8376	679.1163	763.245	784.5319	857.1559	879.5288	918.3971	953.4904	970.4975	986.95	1021.8202	1025.844	1045.1492	1098.4102	1111.6211	1146.1534	1219.2057	1220.1728	1246.7671	1251.6591	1284.1058	1288.1155	1331.7011	1366.6183	1411.458	1477.682	1483.8043	1499.6204	1508.5328	3033.0009	3037.604	3052.3763	3089.5289	3092.763	3112.8418	3182.1016	3191.9636	3758.0065	3799.7843
OCC1(O)C2CCC12	OC[C@@]1(O)[C@H]2CC[C@@H]12	
InChI=1S/C6H10O2/c7-3-6(8)4-1-2-5(4)6/h4-5,7-8H,1-3H2	InChI=1S/C6H10O2/c7-3-6(8)4-1-2-5(4)6/h4-5,7-8H,1-3H2/t4-,5+,6+
