21
gdb 107669	3.20252	1.25419	1.04853	2.4071	78.16	-0.2514	0.0813	0.3327	1228.4822	0.183205	-424.220813	-424.21217	-424.211226	-424.25417	33.158	
C	 0.3356304109	 1.4580373072	 0.3200591793	-0.383816
C	-0.1935421448	 0.0857315796	-0.1191822532	-0.262679
C	 0.5126365461	-0.4643197081	-1.343366879	 0.374371
C	 0.2928079207	 0.2845535697	-2.6511080026	-0.144825
O	 0.8679223595	-0.350177561	-3.7720653209	-0.235535
C	 0.449002799	-1.6957139861	-3.9021504663	-0.078873
C	 1.0197259075	-2.572994126	-2.7828802422	-0.238437
C	 0.8790604109	-1.8910375372	-1.4336258477	-0.02029
O	 1.8629753792	-0.8911651577	-1.1289572881	-0.289419
H	 1.4160929802	 1.4137025101	 0.4856051211	 0.137416
H	 0.1390218045	 2.2324139869	-0.4280370613	 0.119053
H	-0.1392315339	 1.7749162547	 1.2531109447	 0.114701
H	-0.0628953479	-0.6310669537	 0.6987162034	 0.105856
H	-1.2710798574	 0.1426639855	-0.3200715843	 0.098164
H	-0.7947739436	 0.4168562331	-2.7959396107	 0.085335
H	 0.7489557014	 1.2778924762	-2.5994849353	 0.118075
H	-0.6535542433	-1.7481792931	-3.8938458719	 0.084112
H	 0.7923648964	-2.0332232456	-4.8839489498	 0.109374
H	 0.5012904879	-3.5383831464	-2.7708337395	 0.098288
H	 2.0818970263	-2.7728595104	-2.9607403147	 0.124041
H	 0.6391784504	-2.5355340278	-0.5869837809	 0.085087
66.2192	127.4533	173.4127	224.6683	266.6108	333.1515	347.4513	395.4675	418.7248	502.5366	552.6419	629.2275	736.8471	775.6679	803.0365	881.3528	918.751	930.77	948.7714	977.9155	1048.3895	1056.2551	1057.6818	1077.5728	1123.0306	1135.5116	1157.8388	1227.17	1253.9457	1274.9639	1291.9989	1324.2507	1337.5867	1368.5973	1371.9405	1393.3117	1408.7327	1425.6774	1466.7809	1472.0912	1477.6749	1486.4123	1501.1257	1502.6685	1508.5774	2946.094	2957.3037	3026.8279	3039.7744	3040.987	3068.5603	3079.3897	3080.769	3090.6211	3098.8057	3109.5446	3118.4616
CCC12COCCC1O2	CC[C@]12COCC[C@H]1O2	
InChI=1S/C7H12O2/c1-2-7-5-8-4-3-6(7)9-7/h6H,2-5H2,1H3	InChI=1S/C7H12O2/c1-2-7-5-8-4-3-6(7)9-7/h6H,2-5H2,1H3/t6-,7+/m1/s1
