17
gdb 18552	3.73241	2.02204	1.65201	2.783	68.35	-0.2593	0.0293	0.2886	826.6563	0.145123	-363.885804	-363.879297	-363.878353	-363.916443	25.698	
N	-0.1836311897	 1.2802269028	-0.2495730104	-0.553415
C	-0.0856630265	 0.0670947583	 0.0533734493	 0.438024
O	 0.9659384017	-0.6378827445	 0.6028380849	-0.27706
C	 0.2016253985	-1.8955337075	 0.5625711672	 0.121334
C	-0.1931523423	-2.3801347657	 1.9512895884	-0.220481
C	-1.3400165047	-1.4381056702	 2.3742508081	-0.220005
C	-2.1090284036	-1.1693604419	 1.0632279911	-0.217656
C	-1.016844971	-1.126764449	-0.0206189183	-0.157515
H	 0.6787086877	 1.7859963797	-0.0385137825	 0.22528
H	 0.7207271393	-2.6243655299	-0.0616567069	 0.089459
H	-0.5574188096	-3.4115856571	 1.865793727	 0.104704
H	 0.6540854167	-2.3836490577	 2.6423159294	 0.115617
H	-1.9726437014	-1.8658516883	 3.1556144518	 0.10114
H	-0.9275924715	-0.5024339677	 2.7656373658	 0.122581
H	-2.794249204	-1.9972390901	 0.8479760316	 0.102648
H	-2.6975357881	-0.2491010555	 1.0893513965	 0.124681
H	-1.3631839214	-1.3751027956	-1.0236641831	 0.100664
112.0889	195.0402	252.2474	356.7215	452.1417	551.8763	599.747	678.6205	774.0246	820.3326	852.2124	856.9039	873.982	886.514	925.4082	930.4196	971.4741	1014.4005	1041.1403	1054.5107	1090.0866	1132.6684	1185.7207	1197.5705	1225.9765	1271.5722	1277.243	1301.3236	1332.3228	1338.5726	1360.2817	1368.1608	1468.6828	1485.112	1501.4631	1820.4314	3036.2312	3042.4725	3056.4673	3098.6042	3102.1599	3104.5905	3111.8185	3121.1055	3471.3832
N=C1OC2CCCC12	[NH][C]1O[C@H]2CCC[C@@H]12	
InChI=1S/C6H9NO/c7-6-4-2-1-3-5(4)8-6/h4-5,7H,1-3H2	InChI=1S/C6H9NO/c7-6-4-2-1-3-5(4)8-6/h4-5,7H,1-3H2/t4-,5+/m1/s1
