18
gdb 76511	3.18414	1.26396	1.15522	1.4008	72.56	-0.2241	0.0529	0.277	1114.1587	0.14729	-438.998754	-438.990538	-438.989594	-439.031381	32.065	
O	-0.0438273997	 1.3252990562	 0.0118942539	-0.427725
C	 0.0086674482	-0.0818502285	 0.0046631669	-0.041825
C	-0.4981658585	-0.7525837266	 1.267191974	 0.00125
O	-0.8812823856	 0.064015873	 2.3306508926	-0.433224
C	-1.324916626	-0.7642145561	 0.0058635741	 0.340633
C	-2.7251864728	-0.1216888017	-0.1244281342	-0.308004
C	-3.1452126443	-1.369251948	-0.9189616367	-0.033469
N	-2.2538679059	-1.4426306693	-2.1037585242	-0.331882
C	-1.7872710495	-1.965746596	-0.7906350811	-0.179423
H	 0.8081049014	 1.648634208	 0.3267739838	 0.295096
H	 0.82729365	-0.5160472843	-0.5667963017	 0.090818
H	-0.0390434304	-1.6758880053	 1.6101133312	 0.098607
H	-0.854080018	 0.9690671237	 1.9883717869	 0.28512
H	-3.217190645	-0.0316026903	 0.8473229262	 0.116468
H	-2.7840306429	 0.8230977883	-0.6687792578	 0.118172
H	-4.1151140985	-1.8505047235	-0.9245876003	 0.093887
H	-2.5576246866	-2.2509207777	-2.6486408287	 0.224785
H	-1.4790520257	-2.9979666519	-0.6744662549	 0.090716
109.4211	137.5524	170.1683	250.016	279.8866	322.3244	387.0413	474.532	505.6989	566.774	616.0927	654.057	759.1545	813.9554	827.4578	846.7998	878.5493	920.3676	960.5841	974.7987	1000.279	1049.095	1068.0979	1102.487	1107.513	1129.5569	1151.8507	1160.988	1166.2764	1222.4209	1252.8017	1286.3298	1288.5225	1315.1427	1339.6509	1377.8173	1410.462	1475.1869	1483.5394	3065.6203	3114.3792	3125.0273	3146.0294	3180.2207	3196.0844	3455.5565	3733.0127	3793.7875
OC1C(O)C11CC2NC12	O[C@H]1[C@@H](O)[C@]21C[C@H]1N[C@@H]21	
InChI=1S/C6H9NO2/c8-4-5(9)6(4)1-2-3(6)7-2/h2-5,7-9H,1H2	InChI=1S/C6H9NO2/c8-4-5(9)6(4)1-2-3(6)7-2/h2-5,7-9H,1H2/t2-,3-,4-,5+,6+/m1/s1
