16
gdb 36464	2.87179	1.09183	0.84927	3.0815	74.97	-0.2695	-0.0003	0.2692	1302.952	0.122976	-400.703025	-400.694147	-400.693203	-400.737989	31.331	
C	-0.2062187838	-1.2311334866	-0.3348156295	-0.445007
C	-0.1092016672	-0.0616490575	-0.0734557685	 0.333603
C	 0.0135006523	 1.3548366722	 0.2228774257	-0.067734
O	 0.1245497372	 1.6514252742	 1.6350953868	-0.274777
C	 1.300620309	 2.4644085402	 1.4268164415	-0.077537
C	 1.3748889768	 2.0667809177	-0.0614765146	-0.06229
C	 2.537742566	 1.1488163174	-0.4530338547	-0.367253
C	 3.8115511534	 1.8654430024	-0.454200931	 0.260125
N	 4.8067944312	 2.4525748485	-0.4458313705	-0.300484
H	-0.3034466279	-2.2654361154	-0.5582899741	 0.211113
H	-0.8348634769	 1.8950156618	-0.2192934354	 0.112765
H	 1.1028784824	 3.5262616332	 1.6126751531	 0.115938
H	 2.1390373395	 2.140665609	 2.0538061183	 0.122401
H	 1.2981603315	 2.8959223788	-0.7660173371	 0.108631
H	 2.6034959704	 0.3043854903	 0.2414581859	 0.168458
H	 2.3671843761	 0.7219358937	-1.447345166	 0.162047
41.7573	66.693	99.5312	158.358	214.9529	314.8395	355.4502	397.7091	514.9136	528.8669	558.8545	640.9078	683.5852	795.2877	834.5135	880.0072	905.3868	953.9208	981.3534	1022.2959	1055.59	1093.6115	1130.0161	1162.4151	1219.9475	1235.7986	1271.2853	1320.6128	1352.3782	1360.8797	1387.7994	1461.5178	1525.9258	2233.3046	2362.7145	3006.9004	3028.6164	3052.0714	3073.0962	3088.474	3109.3421	3498.8236
C#CC1OCC1CC#N	C#C[C@H]1OC[C@H]1CC#N	
InChI=1S/C7H7NO/c1-2-7-6(3-4-8)5-9-7/h1,6-7H,3,5H2	InChI=1S/C7H7NO/c1-2-7-6(3-4-8)5-9-7/h1,6-7H,3,5H2/t6-,7-/m1/s1
