16
gdb 79664	2.69652	1.53814	1.19441	4.2741	74.79	-0.2392	0.0031	0.2423	1042.8987	0.125232	-396.837105	-396.82933	-396.828386	-396.869205	29.979	
N	 0.0658974841	 1.5215972206	-0.1359203881	-0.519734
C	-0.0806986122	 0.0950295524	-0.0117987841	-0.08416
C	-0.4764522288	-0.6768786929	 1.2096907888	-0.054923
N	-1.5733135369	-0.2222733488	 2.1298134738	-0.145047
C	-2.154998493	 1.0814478519	 1.7029947694	-0.252173
C	-2.4862084971	-0.1376373251	 0.9431112618	-0.089369
C	-1.4029453773	-0.6549153305	-0.0339766893	 0.144564
C	-1.6665496678	-1.6775584544	-0.986928922	 0.20672
N	-1.891897364	-2.5040336403	-1.7670022934	-0.349726
H	 0.9565823131	 1.8095160072	 0.2588050193	 0.243823
H	 0.0701488828	 1.7832043565	-1.1171140218	 0.245633
H	 0.6455694576	-0.5137331476	-0.5613611422	 0.110919
H	 0.1278281405	-1.4994456207	 1.5720949792	 0.129648
H	-2.9086446669	 1.4062570783	 2.4153938306	 0.127888
H	-1.5273425596	 1.8476381444	 1.275132237	 0.166687
H	-3.4559395745	-0.6229566409	 0.964808791	 0.119251
134.8739	156.9728	171.8822	244.6669	290.404	414.9524	439.7781	486.435	538.5035	576.6698	662.4266	683.1713	726.9584	757.7129	844.7381	891.4549	923.1243	952.9265	1005.4436	1019.4882	1048.3295	1100.1461	1122.2406	1137.7263	1150.5752	1207.8158	1235.4872	1268.5546	1274.1175	1326.4077	1363.5561	1468.5355	1492.5271	1646.8844	2337.7447	3040.4384	3131.2674	3173.5272	3193.5958	3265.1687	3491.346	3571.8137
NC1C2N3CC3C12C#N	N[C@H]1[C@H]2N3C[C@H]3[C@@]12C#N	
InChI=1S/C6H7N3/c7-2-6-3-1-9(3)5(6)4(6)8/h3-5H,1,8H2	InChI=1S/C6H7N3/c7-2-6-3-1-9(3)5(6)4(6)8/h3-5H,1,8H2/t3-,4-,5+,6-,9?/m0/s1
