20
gdb 40241	2.78825	1.64181	1.24555	2.475	79.09	-0.2343	0.0694	0.3037	1063.3042	0.173224	-403.111809	-403.10426	-403.103316	-403.143583	30.885	
C	-0.0069520853	 1.4926386435	 0.0169885595	-0.324935
C	 1.2999203297	 0.7223678831	-0.0100162173	-0.333986
C	-0.0309648778	-0.000062817	-0.0303347562	 0.479377
O	-0.4373213478	-0.6136007546	 1.1617101206	-0.28805
C	-0.0464668631	-1.9790184745	 1.2225477029	-0.090481
C	-0.8203890584	-2.8286782459	 0.2074739638	-0.2092
C	-0.8227739416	-2.1663413518	-1.164602418	-0.040883
N	-1.8537629598	-1.1297508349	-1.3699696852	-0.333107
C	-0.440746774	-0.7296763749	-1.2730426349	-0.116482
H	-0.2988020063	 1.9457104825	 0.9573871748	 0.12621
H	-0.3099555646	 2.0410126107	-0.8682164459	 0.111727
H	 1.9005030016	 0.747463708	-0.9136804249	 0.106837
H	 1.8651747499	 0.6729555381	 0.9135749927	 0.118423
H	 1.0367724787	-2.0637653578	 1.0408710711	 0.087306
H	-0.2458837261	-2.3082769767	 2.2459101086	 0.103737
H	-0.3644257792	-3.8234137095	 0.1492947417	 0.093161
H	-1.8545167549	-2.9552802769	 0.5424388799	 0.119244
H	-0.588436785	-2.8081237115	-2.0104312529	 0.083069
H	-2.1485799322	-1.1176660882	-2.3428866008	 0.227497
H	 0.0627130862	-0.3998809018	-2.1794228397	 0.080538
98.903	202.6068	241.7452	294.8522	357.5803	390.2237	442.9175	487.871	557.1916	643.4842	754.5466	766.2303	788.437	839.6599	883.1754	891.3958	911.943	934.1603	935.8809	967.0627	1002.2719	1022.3109	1046.1669	1071.0796	1078.0296	1109.0972	1123.8423	1157.5478	1188.2503	1189.7139	1253.4459	1256.9279	1283.7462	1300.6324	1313.9104	1367.4366	1397.9759	1423.1691	1452.1519	1462.7137	1470.434	1492.5214	1507.73	2979.7319	3041.5007	3084.5956	3094.9463	3122.9472	3129.353	3134.5087	3138.5446	3216.8118	3232.0359	3500.6106
C1CC11OCCC2NC12	C1CC21OCC[C@H]1N[C@@H]21	
InChI=1S/C7H11NO/c1-4-9-7(2-3-7)6-5(1)8-6/h5-6,8H,1-4H2	InChI=1S/C7H11NO/c1-4-9-7(2-3-7)6-5(1)8-6/h5-6,8H,1-4H2/t5-,6-/m1/s1
