18
gdb 13942	3.24639	1.90351	1.52086	1.4875	67.61	-0.2364	0.0648	0.3012	895.4835	0.153614	-384.910305	-384.902491	-384.901547	-384.942655	29.245	
O	 0.3621401509	 1.0927138579	-0.5498314357	-0.434151
C	 0.1300668382	-0.1139945907	 0.1341047595	 0.07699
C	-0.1292791546	-0.1085190812	 1.6677864356	-0.271428
C	-1.239617457	-1.1674379115	 1.4210482067	-0.301151
C	-1.2762180927	-0.7138881398	-0.055885448	 0.441422
C	-2.4117876249	 0.1881430073	-0.5846569037	-0.343146
C	-2.5569764031	-0.8898903847	-1.6755372973	-0.077131
O	-1.4914491555	-1.6755828723	-1.0969993726	-0.320557
H	 1.2852706	 1.3386990892	-0.438659631	 0.286474
H	 0.8728134821	-0.8808755799	-0.1297597677	 0.078219
H	 0.6981149614	-0.3759981261	 2.3277321816	 0.096883
H	-0.5445675169	 0.8538280779	 1.9787489741	 0.109802
H	-0.8599681616	-2.1901282002	 1.4971799003	 0.114536
H	-2.1660603824	-1.0869664983	 1.9937097575	 0.100727
H	-3.2658273657	 0.2945489104	 0.0868334968	 0.104414
H	-2.0853371925	 1.1683805977	-0.931050244	 0.133026
H	-3.5062131836	-1.4385451467	-1.6875882684	 0.099724
H	-2.3171822323	-0.5684275089	-2.6956873939	 0.105347
69.1718	116.808	202.1171	230.1147	264.9793	337.5837	430.8381	510.5094	546.1564	683.0701	787.7342	793.5457	864.3509	870.7751	905.6892	933.5185	959.3449	976.4273	1025.52	1087.999	1097.6334	1147.3372	1156.9535	1168.3171	1183.9765	1202.4721	1224.4492	1241.0235	1250.4261	1260.5216	1284.9485	1326.1485	1358.7865	1429.7714	1475.4067	1485.9788	1496.7214	1528.9839	3002.1457	3020.9207	3062.0718	3062.5366	3067.1031	3082.023	3113.617	3128.0392	3147.1641	3827.1267
OC1CCC11CCO1	O[C@H]1CC[C@]21CCO2	
InChI=1S/C6H10O2/c7-5-1-2-6(5)3-4-8-6/h5,7H,1-4H2	InChI=1S/C6H10O2/c7-5-1-2-6(5)3-4-8-6/h5,7H,1-4H2/t5-,6+/m0/s1
