18
gdb 66819	2.77417	2.20384	1.85314	1.1552	81.23	-0.1939	-0.0129	0.1809	844.6634	0.148469	-364.702826	-364.69603	-364.695085	-364.733283	28.801	
C	-0.0404130315	 1.595437874	-0.2265795561	-0.507157
C	 0.1452029122	 0.1197254262	-0.0202844166	 0.368443
C	 0.8006771954	-0.7938248575	-1.0708804393	-0.192987
C	 1.2486370655	-1.940328987	-0.2138824746	-0.078736
C	 1.1939196094	-1.6325577784	 1.1933674905	-0.103412
C	 0.4447192549	-0.4965998125	 1.3689127366	-0.100345
C	-1.0490488851	-0.8327250627	 1.5439154515	-0.202761
N	-1.0767254594	-0.7838785813	 0.0099659144	-0.12998
C	-0.3245464194	-1.7405816259	-0.7748934252	-0.04183
H	 0.9323283134	 2.098885769	-0.2082482317	 0.125814
H	-0.5214235766	 1.8039089519	-1.1877323842	 0.121382
H	-0.6551335571	 2.0276041707	 0.5689718495	 0.125223
H	 1.2513240021	-0.5002546677	-2.0104380863	 0.093847
H	 1.7739821347	-2.7757625841	-0.6634423923	 0.092027
H	 1.227824662	-2.4255471413	 1.9349036008	 0.090471
H	-1.299583638	-1.7928617236	 2.0004410711	 0.113199
H	-1.7168982527	-0.0490917935	 1.910245807	 0.114303
H	-0.7659124498	-2.5696950464	-1.3077097451	 0.1125
208.9843	247.7319	258.5803	361.6547	384.9175	508.1303	520.2804	595.6455	658.5461	716.5064	742.2445	754.0541	807.691	825.2529	848.5911	869.5585	909.3508	940.331	945.1369	1000.3412	1011.9833	1032.7884	1048.6322	1083.4046	1102.7793	1117.2289	1173.5536	1188.5211	1200.1047	1243.1049	1267.5611	1299.0445	1333.2784	1369.9992	1411.8315	1482.7402	1486.2263	1504.234	1512.8614	3032.7836	3059.8253	3102.4494	3109.1611	3123.0956	3161.7805	3182.133	3193.5106	3232.2297
CC12C3C4C=C1CN2C34	C[C@@]12[C@H]3[C@H]4[CH][C]1CN2[C@@H]34	
InChI=1S/C8H9N/c1-8-4-2-5-6(8)7(5)9(8)3-4/h2,5-7H,3H2,1H3	InChI=1S/C8H9N/c1-8-4-2-5-6(8)7(5)9(8)3-4/h2,5-7H,3H2,1H3/t5-,6+,7-,8+/m1/s1
