23
gdb 104114	2.85954	1.08382	0.97543	2.9283	85.1	-0.2341	-0.012	0.2222	1349.423	0.204814	-388.3388	-388.329129	-388.328185	-388.37314	37.202	
C	 0.1270680264	 1.5745834598	-0.0660045892	-0.397245
C	-0.0073917272	 0.0478209232	-0.0403188778	-0.216543
C	-1.4443273585	-0.5017803249	 0.0449552431	 0.295689
C	-2.2820438956	-0.0549667155	-1.1680145031	-0.429279
C	-1.4258063379	-2.0592890401	 0.1241574491	-0.248249
C	-2.7477615744	-2.4637132713	 0.7923932304	-0.331414
C	-3.141716197	-1.2568188001	 1.6532753095	 0.401795
O	-4.0609614358	-1.2159381632	 2.4292712821	-0.314357
C	-2.1644913717	-0.115646002	 1.3570956843	-0.348475
H	 1.1820287336	 1.8656005614	-0.0722012652	 0.115023
H	-0.3368376534	 2.0128330997	-0.954589618	 0.119779
H	-0.3357579147	 2.0347600521	 0.8133537797	 0.119256
H	 0.4724797814	-0.3714120987	-0.9353228784	 0.092014
H	 0.5579254813	-0.3432566718	 0.8160991425	 0.090354
H	-1.8028524738	-0.3586292373	-2.1052398009	 0.113166
H	-3.2844797591	-0.4956881209	-1.1504961135	 0.115436
H	-2.4103763523	 1.0310876089	-1.1912980445	 0.12
H	-1.2840830027	-2.5135605388	-0.8608027876	 0.099511
H	-0.5824310142	-2.3774454916	 0.7483975791	 0.097773
H	-3.5505092589	-2.6313103382	 0.0646022311	 0.133221
H	-2.6916152012	-3.3674890419	 1.4047681942	 0.127908
H	-1.4521068133	-0.0818874024	 2.193951117	 0.12177
H	-2.683268211	 0.8458483334	 1.340330616	 0.122867
66.5558	99.1671	164.4019	188.4137	222.4754	281.6671	326.4575	337.2538	387.9745	399.586	468.4016	494.258	562.104	594.5379	728.5412	761.2342	788.6206	811.9299	879.9459	907.9527	946.8786	978.9818	986.9048	1000.9473	1023.5787	1078.6938	1084.3756	1132.8313	1168.1066	1192.983	1207.2351	1247.9187	1259.1827	1274.4579	1296.8105	1344.0364	1349.0568	1371.7229	1410.96	1415.6588	1445.7421	1453.1606	1479.0273	1493.8274	1497.4235	1501.3445	1508.1283	1512.6313	1844.7801	3006.6834	3017.655	3030.4605	3036.2962	3038.8413	3040.9026	3047.5934	3085.2483	3095.393	3100.7436	3102.3276	3103.7293	3105.9171	3112.4626
CCC1(C)CCC(=O)C1	CC[C@@]1(C)CCC(=O)C1	
InChI=1S/C8H14O/c1-3-8(2)5-4-7(9)6-8/h3-6H2,1-2H3	InChI=1S/C8H14O/c1-3-8(2)5-4-7(9)6-8/h3-6H2,1-2H3/t8-/m0/s1
