20
gdb 88599	2.96885	1.11225	1.04289	2.8214	76.18	-0.228	0.0775	0.3055	1259.7999	0.169829	-440.222932	-440.213855	-440.212911	-440.257047	34.697	
C	 0.4418468964	 1.46530517	-0.5393814748	-0.41698
C	-0.0047474264	 0.1287510144	 0.0051715087	 0.025249
C	 0.975890313	-0.9563145139	 0.2837887391	-0.226768
N	 0.2737593394	-0.2902151342	 1.3849435263	-0.117776
C	 1.006445122	 0.55828851	 2.2881499936	-0.089982
C	 0.6540555076	 0.3019632399	 3.7473966435	 0.025514
O	-0.208988772	-0.7752214096	 3.9612469006	-0.434646
C	 2.0173882833	-0.0913029689	 3.229942918	 0.08552
O	 2.2870876576	-1.4491263038	 3.1235161237	-0.430253
H	 1.487653554	 1.6797545608	-0.3036785752	 0.127393
H	 0.3409969521	 1.4677890067	-1.629547428	 0.127725
H	-0.1740182519	 2.2833388739	-0.1488476997	 0.127519
H	-1.001475552	-0.1661664694	-0.3198967029	 0.09481
H	 0.71916177	-1.9999964544	 0.1267200346	 0.117499
H	 2.0291968066	-0.7216413987	 0.1546429066	 0.124086
H	 1.1953053801	 1.5827443154	 1.9804440235	 0.08882
H	 0.5223053398	 1.1220803249	 4.4467729271	 0.096017
H	-0.5856433431	-0.9584205435	 3.0781514469	 0.290035
H	 2.8867432275	 0.4982542939	 3.5086727004	 0.097519
H	 1.529568226	-1.8901622437	 3.5399642381	 0.288699
42.5936	139.113	161.6875	197.1843	240.6173	273.2281	305.521	403.406	434.612	490.0801	578.8758	608.0475	680.9059	693.3237	754.3641	763.5538	795.4794	865.071	906.3239	940.1539	1000.1052	1029.849	1040.9629	1056.0437	1096.2559	1101.4536	1121.31	1150.356	1152.8018	1177.2496	1193.402	1221.6359	1315.4522	1332.2377	1360.6976	1374.3255	1401.6894	1416.391	1422.5213	1455.6183	1492.5473	1497.6856	1511.7308	3034.4117	3096.7425	3104.2257	3110.8279	3123.4906	3136.7182	3141.2658	3154.84	3198.2672	3559.5862	3689.4331
CC1CN1C1C(O)C1O	C[C@H]1CN1[C@H]1[C@@H](O)[C@H]1O	
InChI=1S/C6H11NO2/c1-3-2-7(3)4-5(8)6(4)9/h3-6,8-9H,2H2,1H3	InChI=1S/C6H11NO2/c1-3-2-7(3)4-5(8)6(4)9/h3-6,8-9H,2H2,1H3/t3-,4-,5+,6-,7?/m0/s1
