20
gdb 68901	2.64319	1.46787	1.14098	3.8677	79.46	-0.2326	0.0302	0.2628	1141.6267	0.170924	-403.196454	-403.187679	-403.186735	-403.229302	34.365	
C	 0.0082553482	 1.5192581324	-0.0681071044	-0.479476
C	-0.0229874593	 0.0129774301	 0.0419495018	 0.293708
C	 1.2387243914	-0.789845898	-0.2376293634	-0.374659
C	 0.6579393699	-0.752925135	 1.1630906111	 0.30557
C	 1.3839312578	-0.1388595371	 2.3322431582	-0.47079
N	-0.2312473562	-1.8426006455	 1.4799029615	-0.347391
C	-1.3260433425	-1.9516110135	 0.6555408569	 0.391068
O	-2.1110198009	-2.8728578557	 0.6364389766	-0.373343
C	-1.3446053672	-0.6947024093	-0.2271892904	-0.409206
H	 0.9774043398	 1.9314001961	 0.2274227869	 0.116854
H	-0.1789704684	 1.8346081112	-1.1009174883	 0.125121
H	-0.7599731414	 1.9806098754	 0.5630387884	 0.120425
H	 1.1663703769	-1.7187338081	-0.7953547308	 0.113961
H	 2.1431126916	-0.2191792092	-0.4256143859	 0.110475
H	 1.9745118663	 0.725451507	 2.0189832036	 0.125124
H	 0.6794151306	 0.1840619853	 3.1056828823	 0.127833
H	 2.0765040635	-0.8579422784	 2.785696113	 0.121014
H	 0.0724990669	-2.6519290856	 2.0011194787	 0.245029
H	-2.2010232366	-0.0725717432	 0.0576369943	 0.126776
H	-1.4927912708	-0.9865917287	-1.2709904502	 0.131907
106.7155	184.9681	192.5835	208.7647	238.265	300.07	359.1932	414.8491	473.8992	484.1022	500.6342	555.3693	604.4082	616.2164	722.1057	747.1596	873.0118	895.6884	922.1294	948.257	970.9443	997.8249	1006.6453	1053.5412	1098.2515	1110.8361	1161.4603	1210.1738	1240.3546	1245.6831	1306.1759	1327.2597	1381.3409	1411.1321	1422.7154	1428.4147	1463.8995	1480.9458	1489.2716	1494.8756	1497.3168	1511.3497	1830.1963	3025.697	3030.7734	3046.9927	3084.9996	3089.6509	3093.1135	3103.505	3117.6142	3122.7032	3207.2086	3615.4876
CC12CC1(C)NC(=O)C2	C[C@@]12C[C@]1(C)NC(=O)C2	
InChI=1S/C7H11NO/c1-6-3-5(9)8-7(6,2)4-6/h3-4H2,1-2H3,(H,8,9)	InChI=1S/C7H11NO/c1-6-3-5(9)8-7(6,2)4-6/h3-4H2,1-2H3,(H,8,9)/t6-,7+/m1/s1
