23
gdb 120254	2.94612	0.96441	0.8431	1.5116	85.32	-0.2513	0.0784	0.3297	1467.0835	0.205388	-388.256123	-388.246378	-388.245433	-388.290981	36.686	
C	-0.3694582778	 1.5558652489	-0.0399496433	-0.410584
C	-0.0538812065	 0.0639205101	-0.003501275	 0.005518
C	 0.4997250273	-0.5912516508	-1.2778316588	-0.053178
C	 1.8836910438	-0.0954254294	-1.5936541371	-0.282151
C	 1.7100386857	-1.1249976716	-0.5124855489	-0.067796
C	 1.2039772405	-0.4924090565	 0.7915509198	-0.014249
C	 2.1457355858	 0.4391477853	 1.5536673824	-0.186032
C	 1.622400355	 0.8360849435	 2.9293391548	-0.078293
O	 2.5874468591	 1.6824290783	 3.5374178604	-0.421236
H	 0.4844119493	 2.1549890802	-0.3697863953	 0.117164
H	-1.1930166485	 1.7507568644	-0.7362715706	 0.112875
H	-0.6758055026	 1.9274435117	 0.9437795263	 0.112747
H	-0.9455118105	-0.4740690762	 0.3336064591	 0.069678
H	-0.1024580581	-1.0949128621	-2.0251359336	 0.078717
H	 2.3032246944	-0.473337838	-2.5207708026	 0.108125
H	 2.1888555062	 0.9208926221	-1.360922085	 0.105765
H	 2.1779689752	-2.1003535936	-0.5808413348	 0.079209
H	 0.8642100635	-1.2804438268	 1.4732522423	 0.065938
H	 3.1123979605	-0.0619508829	 1.6907369456	 0.103391
H	 2.3518371411	 1.3517864111	 0.9844140292	 0.102277
H	 0.6510602785	 1.347261195	 2.8348948239	 0.087377
H	 1.4521838085	-0.0712812079	 3.5330277559	 0.081071
H	 2.2590861497	 1.9388131354	 4.4039917453	 0.283665
76.9538	85.3657	111.0399	199.1745	203.5346	233.7789	269.7806	284.8018	367.5679	393.5445	525.9246	565.3469	659.5985	740.0445	784.3452	799.9696	817.2129	903.4317	932.8587	973.416	994.1985	1005.7079	1026.1869	1042.0787	1058.2412	1067.2821	1081.8228	1084.0741	1099.0517	1144.4112	1165.3116	1181.9217	1219.6056	1235.9176	1246.9837	1278.3624	1303.5364	1312.2306	1323.4988	1367.4027	1371.5626	1392.3592	1409.2088	1458.9062	1485.1424	1488.4243	1499.9922	1500.4383	1526.2092	2957.9746	2987.6929	3027.5665	3030.3922	3032.6741	3051.8667	3077.4553	3091.0363	3106.7625	3118.8523	3167.5623	3177.0851	3200.5359	3829.7019
CC1C2CC2C1CCO	C[C@H]1[C@H]2C[C@H]2[C@H]1CCO	
InChI=1S/C8H14O/c1-5-6(2-3-9)8-4-7(5)8/h5-9H,2-4H2,1H3	InChI=1S/C8H14O/c1-5-6(2-3-9)8-4-7(5)8/h5-9H,2-4H2,1H3/t5-,6+,7-,8+/m1/s1
