18
gdb 23449	2.98272	1.27727	1.14638	1.1688	83.55	-0.2167	-0.0336	0.1831	1140.2169	0.148093	-401.911182	-401.903057	-401.902113	-401.943638	31.714	
C	-0.1088324332	 1.559528944	-0.0355099628	-0.416035
C	 0.0546104465	 0.0608907718	 0.0579949614	-0.005685
C	 1.3590620334	-0.6961544509	-0.1778709283	-0.118423
C	 2.6301415373	 0.0708423043	-0.051473892	-0.07942
C	 2.8175308624	 0.5378765455	 1.1950662512	-0.170529
C	 1.705480196	 0.1088210228	 2.0533988157	 0.399769
N	 1.5108392236	 0.2869472837	 3.3070218639	-0.250887
O	 2.549079005	 1.0373919773	 3.8852939456	-0.39361
C	 0.7364056079	-0.6602620153	 1.2101705958	-0.155055
H	 0.7935980403	 2.0929617248	 0.2690842373	 0.129799
H	-0.3479054406	 1.857825234	-1.0621262299	 0.115128
H	-0.9287111594	 1.8933709685	 0.6093138659	 0.124243
H	-0.8107337613	-0.4882779638	-0.3076832426	 0.092952
H	 1.3303162258	-1.5823576711	-0.8023865136	 0.092356
H	 3.2948405097	 0.2471451713	-0.8895787831	 0.107364
H	 3.6287321662	 1.1603415945	 1.5431851435	 0.120243
H	 2.2776048159	 1.078227123	 4.8081069539	 0.30621
H	 0.2370978146	-1.5150990445	 1.6483024779	 0.10158
95.9285	188.2491	212.3569	236.3723	261.1872	309.2351	405.398	448.2738	501.7475	526.2078	687.7236	725.5129	743.605	766.3569	794.7913	838.2298	876.9089	922.9219	953.3726	968.8651	977.9987	1016.4243	1044.973	1072.543	1105.8013	1118.5329	1134.9761	1214.9881	1234.0676	1319.4116	1333.1515	1370.9966	1404.7447	1413.8188	1426.4068	1495.3447	1498.8441	1623.1452	1717.1587	3036.6762	3093.2036	3121.5792	3137.0782	3166.6605	3193.6243	3197.76	3249.6731	3822.6598
CC1C2C=CC(=NO)C12	C[C@H]1[C@H]2C=CC(=NO)[C@@H]12	
InChI=1S/C7H9NO/c1-4-5-2-3-6(8-9)7(4)5/h2-5,7,9H,1H3	InChI=1S/C7H9NO/c1-4-5-2-3-6(8-9)7(4)5/h2-5,7,9H,1H3/t4-,5+,7-/m0/s1
