20
gdb 85880	2.01539	1.60658	1.16244	5.3521	79.52	-0.2729	0.0295	0.3025	1159.492	0.169055	-403.163013	-403.153288	-403.152344	-403.197038	36.526	
C	-0.2867490506	 1.499772314	-0.0104177954	-0.405973
C	-0.0341579944	-0.0025841636	-0.0389894761	-0.00234
C	 1.1754331633	-0.4491982041	-0.9119132457	-0.284448
C	 2.045257032	-0.6122170985	 0.3724078493	 0.396535
C	 2.9241275625	-1.8455863133	 0.500386116	-0.457354
O	 2.7648448574	 0.5685479272	 0.6823318813	-0.457614
C	 0.7213402797	-0.5869806726	 1.2106021275	-0.195521
C	 0.7033218384	 0.1466112378	 2.4629463512	 0.305514
N	 0.6588644897	 0.7269166039	 3.4619841984	-0.345056
H	 0.6357873541	 2.0476073325	 0.1977086502	 0.144734
H	-0.6761382718	 1.8330861922	-0.978350427	 0.111949
H	-1.0182577176	 1.7633584276	 0.7596125285	 0.131781
H	-0.964653128	-0.5353649492	-0.2498899387	 0.081914
H	 1.0039164439	-1.3976642441	-1.428075451	 0.101137
H	 1.5483318219	 0.2859727854	-1.6296251964	 0.101434
H	 3.7425916748	-1.8087371426	-0.2292034417	 0.113886
H	 3.3623973548	-1.897456775	 1.5016369124	 0.140273
H	 2.3579174066	-2.7634691409	 0.3150534602	 0.118696
H	 3.4992898104	 0.6418319062	 0.0628200941	 0.282121
H	 0.393155223	-1.6122693426	 1.4039375928	 0.118332
82.5568	128.5793	164.2325	217.434	241.9321	251.3981	266.4495	319.8132	364.4505	375.5892	408.0892	410.0223	549.8329	586.9677	663.9475	775.7317	814.3437	843.2534	903.5545	920.8739	968.2317	991.7606	1018.2303	1077.4258	1079.5736	1110.0553	1162.2502	1188.2746	1204.9447	1235.7936	1279.3943	1284.1451	1331.2182	1367.5369	1370.8065	1409.449	1412.1169	1471.7725	1488.3216	1491.3659	1492.2006	1504.6316	2354.5593	3025.7679	3038.0117	3055.7198	3065.7661	3078.0121	3093.3842	3104.7237	3112.5861	3117.806	3128.7232	3803.1296
CC1CC(C)(O)C1C#N	C[C@H]1C[C@@](C)(O)[C@H]1C#N	
InChI=1S/C7H11NO/c1-5-3-7(2,9)6(5)4-8/h5-6,9H,3H2,1-2H3	InChI=1S/C7H11NO/c1-5-3-7(2,9)6(5)4-8/h5-6,9H,3H2,1-2H3/t5-,6-,7+/m0/s1
