16
gdb 41689	4.07535	1.53331	1.29625	1.2893	67.5	-0.2467	0.0085	0.2553	952.2538	0.127183	-437.876082	-437.869651	-437.868706	-437.906773	25.633	
C	-0.0063020731	 1.4449477852	-0.0827512011	-0.093713
O	 1.0432524618	 1.9352272118	 0.7628624472	-0.260053
C	 2.0943649412	 0.979079609	 0.8174325316	-0.176473
C	 1.3753602911	-0.3320495169	 0.6576018106	 0.404176
O	 2.0591642385	-1.5416531312	 0.4346776589	-0.253915
C	 1.1851892775	-2.4974082017	 0.8676741556	 0.082904
N	 0.0895381546	-2.1350828384	 1.4030480637	-0.262375
C	 0.0854499724	-0.6862709979	 1.3708656241	-0.080358
C	 0.0508011368	-0.0704259183	-0.0154991541	-0.171499
H	-0.9379336497	 1.8831460057	 0.289132635	 0.117387
H	 0.1407123818	 1.7710898601	-1.1239325092	 0.102383
H	 2.8285592156	 1.1171426476	 0.007157334	 0.104933
H	 2.6045265385	 1.1026504132	 1.7775845441	 0.121163
H	 1.5205284548	-3.516069757	 0.7200066702	 0.147673
H	-0.3365585643	-0.1709984911	 2.2274031089	 0.112006
H	-0.3042237276	-0.6648117101	-0.8498119094	 0.105761
177.5032	228.972	265.514	320.6156	415.9096	473.619	597.4352	651.6535	751.1464	768.7481	861.7563	903.6552	911.0615	928.571	941.7648	966.3554	1029.0664	1050.8294	1062.8813	1087.0872	1107.7845	1110.5794	1124.7222	1208.8498	1215.5221	1226.9212	1262.9128	1294.5193	1331.2774	1351.308	1385.4218	1421.2078	1511.0048	1523.9076	1659.7538	2976.5248	2988.5915	3072.2828	3078.8866	3164.5069	3178.4096	3237.7918
C1OCC23OC=NC2C13	C1OC[C@@]23OC=N[C@@H]2[C@@H]13	
InChI=1S/C6H7NO2/c1-4-5-6(4,2-8-1)9-3-7-5/h3-5H,1-2H2	InChI=1S/C6H7NO2/c1-4-5-6(4,2-8-1)9-3-7-5/h3-5H,1-2H2/t4-,5-,6+/m1/s1
