17
gdb 126041	3.77847	1.06305	1.05406	5.8341	75.	-0.243	-0.0007	0.2423	1201.3769	0.138171	-414.163009	-414.155082	-414.154138	-414.196226	29.341	
C	-0.0813058924	 1.5243286079	-0.2199424032	-0.40129
C	-0.0432333586	 0.0354293111	 0.0101341401	 0.015762
N	 1.251126526	-0.6375749824	-0.1386599899	-0.31927
C	 0.629919858	-0.6034031151	 1.1931547652	-0.196417
C	 1.3539716539	 0.1599311973	 2.2259596584	 0.391201
C	 2.5649811657	 0.8160973412	 2.24111387	-0.149765
N	 2.7602103982	 1.3636686235	 3.4736776542	-0.186915
N	 1.7410615528	 1.086913614	 4.2324361003	-0.115904
N	 0.8842473124	 0.359042799	 3.4844021687	-0.259417
H	 0.7949718632	 2.0097782347	 0.2147781032	 0.142029
H	-0.0969498618	 1.7437010863	-1.292397182	 0.126501
H	-0.9795607482	 1.9618156038	 0.228582384	 0.119046
H	-0.918512843	-0.5050037957	-0.3500857138	 0.09005
H	 1.1478713996	-1.5580327888	-0.5552707596	 0.239577
H	 0.1629933301	-1.5188944506	 1.5557425271	 0.092922
H	 3.285815411	 0.9073614589	 1.4465143248	 0.135866
H	 0.018447753	 0.0461836248	 3.8940399625	 0.276025
53.2407	112.0206	165.4315	205.4442	276.7049	385.1196	428.6992	510.9683	573.765	658.4404	728.463	746.251	789.7763	852.7808	872.1511	931.5412	987.9041	1005.618	1020.7219	1058.1697	1067.4765	1079.431	1124.0445	1146.5732	1190.3679	1211.1526	1244.2344	1252.6298	1330.0296	1351.2948	1402.4378	1427.6573	1439.4139	1468.18	1489.8383	1498.2267	1615.5108	3040.3343	3099.2716	3102.5312	3109.574	3136.341	3288.181	3518.1432	3654.1205
CC1NC1C1=CN=NN1	C[C@H]1N[C@H]1c1cnn[nH]1	
InChI=1S/C5H8N4/c1-3-5(7-3)4-2-6-9-8-4/h2-3,5,7H,1H3,(H,6,8,9)	InChI=1S/C5H8N4/c1-3-5(7-3)4-2-6-9-8-4/h2-3,5,7H,1H3,(H,6,8,9)/t3-,5-/m1/s1
