15
gdb 49473	2.27595	1.52863	1.07615	6.5925	70.25	-0.2384	-0.0281	0.2103	1096.5586	0.112621	-416.767208	-416.759334	-416.758389	-416.800196	28.834	
O	 0.0635886704	 0.0206163772	-0.5430973448	-0.26433
C	 0.0187248183	 1.1546742581	-0.1311646408	 0.146316
C	 1.2473413278	 1.9820490873	 0.0474483752	-0.102096
C	 1.2895729824	 3.4792132912	-0.1229886716	-0.040657
N	-0.0006080495	 4.0526887792	 0.3246922526	-0.323056
C	 0.3478775079	 3.6833619583	 1.7361857836	-0.142413
C	-0.7030444653	 3.0082824842	 2.5010963712	 0.30514
N	-1.5200344196	 2.4796647508	 3.1242078193	-0.315641
C	 1.5675206088	 2.8893314932	 1.2386310775	-0.124496
H	-0.9403576947	 1.6466059646	 0.1133121864	 0.114604
H	 2.1416495596	 1.4752713375	-0.3043205629	 0.121142
H	 1.9303049473	 3.9800930011	-0.8376541333	 0.121292
H	-0.0402785192	 5.0590585364	 0.2103214018	 0.242077
H	 0.6912146855	 4.547244529	 2.3152049523	 0.136155
H	 2.4809159601	 2.7570917118	 1.8013163836	 0.125963
69.7783	125.9287	160.898	212.0959	259.5783	384.3503	436.1634	529.3475	540.1208	581.7526	711.2136	763.5865	785.7972	837.5005	923.529	949.6223	990.9312	1003.9451	1041.7442	1046.8751	1050.7293	1090.5234	1098.7138	1184.3736	1199.0322	1272.8884	1306.6947	1330.8317	1371.3327	1407.1823	1451.3878	1808.6286	2359.1162	2972.5902	3053.616	3164.3963	3195.885	3214.7223	3547.5912
O=CC1C2NC(C#N)C12	O=C[C@H]1[C@H]2N[C@@H](C#N)[C@@H]12	
InChI=1S/C6H6N2O/c7-1-4-5-3(2-9)6(5)8-4/h2-6,8H	InChI=1S/C6H6N2O/c7-1-4-5-3(2-9)6(5)8-4/h2-6,8H/t3-,4+,5-,6-/m1/s1
