20
gdb 38507	3.55042	1.42121	1.11903	1.3256	84.71	-0.213	0.0274	0.2404	1125.7443	0.174755	-366.011565	-366.004332	-366.003387	-366.043142	29.399	
C	 0.0531310317	 1.4789552813	-0.0943723151	-0.196192
C	 1.5644133708	 1.8538411553	 0.0045412596	-0.337461
C	 2.1380931071	 0.6562570648	 0.706949781	 0.260222
C	 1.2872335496	-0.3747091611	 0.7428408946	 0.334388
C	-0.031384827	-0.0677855648	 0.0917089629	-0.35068
C	 1.9412448925	-1.5898375256	 1.2954108677	-0.218774
N	 3.0919974652	-2.034523439	 0.4509744387	-0.333476
C	 3.3367780794	-1.1659637756	 1.6225582706	-0.021944
C	 3.4949600017	 0.3204379792	 1.2792312524	-0.35307
H	-0.4907061052	 1.9682547861	 0.7196448015	 0.104141
H	-0.4017373922	 1.813987001	-1.0299973697	 0.09636
H	 2.0181519099	 1.9831195326	-0.9887425261	 0.106216
H	 1.7229900259	 2.7987935785	 0.5381321131	 0.097505
H	-0.9024801272	-0.3642169663	 0.687956348	 0.097237
H	-0.124549477	-0.591482222	-0.870351399	 0.109316
H	 1.4027424881	-2.3339639266	 1.873367935	 0.082041
H	 3.3350077799	-2.9893015428	 0.7130588839	 0.223399
H	 3.8755586875	-1.5820679164	 2.4674106585	 0.083703
H	 4.3065651482	 0.479686895	 0.5585552108	 0.116797
H	 3.735920351	 0.9165438664	 2.1698732615	 0.100271
121.8146	169.988	190.5631	337.9967	380.8324	417.7814	521.9146	602.4687	668.8404	682.5791	767.9547	810.1283	841.4106	849.702	882.4712	898.601	903.7604	941.1152	976.5859	986.9778	1012.4375	1046.6804	1083.8622	1134.5094	1144.1087	1164.5709	1171.4722	1194.0426	1198.1316	1227.4986	1243.9495	1251.6786	1299.5619	1325.	1330.4063	1354.3092	1388.8185	1422.0352	1467.2174	1483.0829	1490.2798	1506.0877	1709.6731	3001.6555	3005.6833	3014.146	3037.81	3043.5313	3052.1752	3059.6509	3100.8575	3156.456	3166.3542	3467.5016
C1CC2=C(C1)C1NC1C2	C1CC2=C(C1)[C@H]1N[C@H]1C2	
InChI=1S/C8H11N/c1-2-5-4-7-8(9-7)6(5)3-1/h7-9H,1-4H2	InChI=1S/C8H11N/c1-2-5-4-7-8(9-7)6(5)3-1/h7-9H,1-4H2/t7-,8+/m0/s1
