21
gdb 82616	2.28807	1.98147	1.50167	1.5427	80.34	-0.2474	0.0751	0.3225	991.5757	0.184995	-387.108688	-387.100921	-387.099977	-387.140262	32.088	
C	-0.059805857	 1.4740386799	 0.0364802692	-0.505212
C	-0.048452285	-0.0291818651	-0.0020606076	 0.314059
C	 1.1655802037	-0.8641179815	-0.3557179524	-0.105582
C	 0.6661245218	-2.1232272863	-1.0643171769	-0.230195
C	-0.6699825692	-2.2481124332	-0.2979976659	-0.083076
C	-0.1988931292	-2.1941772729	 1.1735846015	-0.241827
C	 0.6087216168	-0.9038459595	 1.0592144193	-0.111331
C	-1.2569419614	-0.824619023	-0.5014264105	 0.117806
O	-2.4679620598	-0.5447698188	 0.1766871364	-0.45639
H	 0.8508278901	 1.8697053909	 0.497470995	 0.113015
H	-0.1332774661	 1.8977674364	-0.9721104489	 0.117421
H	-0.9163805653	 1.8451441573	 0.6099293733	 0.119381
H	 2.1210118802	-0.404898096	-0.576954021	 0.079549
H	 0.5220319227	-1.9800393708	-2.1407110558	 0.095317
H	 1.3226388366	-2.9875154662	-0.9172507022	 0.094416
H	-1.3258972127	-3.0721833776	-0.5751756746	 0.065723
H	-1.0281834279	-2.1353397085	 1.8878599962	 0.083317
H	 0.4141387399	-3.0591247195	 1.4479250036	 0.097166
H	 1.1481695717	-0.4691632505	 1.891243747	 0.078247
H	-1.4715442452	-0.6326474252	-1.5587347897	 0.077053
H	-2.2836875348	-0.5338847197	 1.121658394	 0.28114
175.6737	196.1909	226.2532	264.3954	288.6954	362.5057	421.0988	467.6011	531.0037	597.0437	659.1223	742.8264	793.6071	863.0871	869.8149	881.3714	907.2255	915.0685	927.8161	954.721	990.1008	1004.4259	1026.5724	1055.5718	1066.6181	1104.1338	1111.3363	1141.5296	1148.8673	1187.2361	1201.0557	1245.5584	1269.4181	1280.0968	1288.2511	1298.181	1322.2066	1333.8949	1413.226	1426.0721	1439.7184	1486.8075	1494.2963	1501.863	1511.0648	3024.1799	3033.6034	3038.8236	3050.9823	3074.1679	3080.8831	3082.9907	3097.9757	3129.2402	3186.4471	3196.3237	3814.6039
CC12C3CC(CC13)C2O	C[C@@]12[C@@H]3C[C@@H](C[C@H]13)[C@H]2O	
InChI=1S/C8H12O/c1-8-5-2-4(7(8)9)3-6(5)8/h4-7,9H,2-3H2,1H3	InChI=1S/C8H12O/c1-8-5-2-4(7(8)9)3-6(5)8/h4-7,9H,2-3H2,1H3/t4-,5+,6-,7-,8+/m1/s1
