21
gdb 62831	2.50936	1.78562	1.47961	1.6003	82.9	-0.2397	0.0617	0.3014	1012.3405	0.182055	-386.945517	-386.937462	-386.936518	-386.977309	33.334	
C	-0.1028296292	 1.4917412284	 0.0261886444	-0.478741
C	 0.0325590399	-0.0346693799	-0.0192046809	 0.323682
C	-1.3083678102	-0.5975190521	-0.5105738566	-0.478385
C	 1.305234551	-0.6869578142	-0.6228715714	-0.132799
C	 2.1577255738	-0.1115214603	 0.6078585205	-0.321255
C	 0.8409661366	-0.7428709231	 1.1527886267	 0.381449
O	 0.1790619365	-1.4322173535	 2.2181489698	-0.354299
C	-0.0083671801	-2.5526129465	 1.2595225164	-0.146561
C	 1.0998586325	-1.9632529482	 0.3083333745	-0.107767
H	 0.7136922648	 2.0089291186	 0.5303747054	 0.116653
H	-0.1828761441	 1.9012630678	-0.9877742174	 0.114532
H	-1.025475054	 1.7588928554	 0.5529301433	 0.122094
H	-1.6871447136	 0.0339394173	-1.3220107879	 0.10957
H	-1.2379051561	-1.6126701528	-0.9018800683	 0.121617
H	-2.05950598	-0.577759884	 0.2871040653	 0.126033
H	 1.625506085	-0.6546874765	-1.6669978265	 0.081533
H	 3.0676639556	-0.6650024241	 0.8432245574	 0.106289
H	 2.3306323284	 0.9636666151	 0.6356339238	 0.102671
H	 0.3102836987	-3.4942741095	 1.7134675051	 0.115921
H	-1.0475984652	-2.6203999164	 0.9419714624	 0.117936
H	 2.0421924496	-2.4733676015	 0.513429794	 0.079827
156.3615	171.3478	226.7942	271.026	344.1982	355.2869	402.1432	435.3818	509.117	542.158	591.3086	651.815	699.5783	746.8958	763.2135	849.0491	871.6015	916.2143	961.1995	962.9228	978.0228	1002.3291	1009.0637	1026.0947	1034.6436	1081.2892	1117.0809	1139.0297	1149.977	1154.91	1178.943	1194.2838	1202.4985	1233.8293	1293.0899	1316.2958	1387.4599	1404.1148	1421.033	1484.2254	1488.5122	1498.7435	1508.1371	1523.9217	1533.3711	3029.6175	3035.1445	3067.4367	3077.9941	3080.9283	3084.0451	3087.004	3092.8475	3132.117	3134.2214	3147.4105	3155.4932
CC1(C)C2CC11OCC21	CC1(C)[C@H]2C[C@]31OC[C@@H]23	
InChI=1S/C8H12O/c1-7(2)5-3-8(7)6(5)4-9-8/h5-6H,3-4H2,1-2H3	InChI=1S/C8H12O/c1-7(2)5-3-8(7)6(5)4-9-8/h5-6H,3-4H2,1-2H3/t5-,6-,8-/m0/s1
