14
gdb 132087	2.97887	1.41944	0.96712	3.2776	70.21	-0.2305	-0.0648	0.1657	1114.9179	0.099511	-481.850899	-481.843168	-481.842224	-481.883345	28.619	
C	 0.0807101975	 1.5002890682	 0.0232001185	-0.482133
C	-0.045081569	 0.0160583159	 0.0074079649	 0.268501
C	-1.1923436042	-0.6855691277	-0.141567151	 0.137855
F	-2.3640558977	-0.0517782899	-0.2940328014	-0.079451
C	-1.1757759245	-2.1058662921	-0.1391214488	-0.137827
C	-0.0013795603	-2.764293019	 0.0137033176	-0.267803
C	 1.2472181916	-2.0469217657	 0.1759005923	 0.428588
O	 2.3482327125	-2.5040238511	 0.3191846584	-0.342167
O	 1.1241159523	-0.6415163959	 0.1595663081	-0.259665
H	 0.7463202805	 1.8344663845	-0.7797119524	 0.155708
H	-0.8971940367	 1.9648676534	-0.1047582899	 0.150916
H	 0.5177765724	 1.8351949486	 0.9698678024	 0.155705
H	-2.115405038	-2.6347199336	-0.2611664425	 0.136067
H	 0.0645014037	-3.8441586656	 0.0225026739	 0.135706
111.2602	131.8156	178.0013	270.5463	334.8337	355.0823	431.3518	468.9143	497.5804	586.6737	596.3614	723.1227	741.2329	779.9155	838.939	844.9619	994.9952	1031.7652	1053.8028	1061.0889	1151.0656	1202.1781	1267.7868	1339.5516	1410.695	1461.0558	1474.5526	1477.1452	1600.3253	1702.8749	1844.6026	3042.3195	3097.5639	3156.0194	3191.9618	3228.2432
CC1=C(F)C=CC(=O)O1	Cc1c(F)ccc(=O)o1	
InChI=1S/C6H5FO2/c1-4-5(7)2-3-6(8)9-4/h2-3H,1H3	InChI=1S/C6H5FO2/c1-4-5(7)2-3-6(8)9-4/h2-3H,1H3
