15
gdb 8815	2.98458	1.53069	1.05121	2.8037	62.07	-0.2828	-0.0502	0.2326	1066.6426	0.116318	-399.826706	-399.817823	-399.816879	-399.861119	30.532	
C	 0.5390031848	 1.6460634635	-0.2534421473	-0.389029
C	-0.1813912787	 0.4073981833	 0.3113570412	-0.249113
C	-0.2223748754	-0.6926961008	-0.6536815807	 0.275885
N	-0.2455400665	-1.5560994546	-1.4215578086	-0.317994
C	 0.3999093863	-0.0252359261	 1.6752734468	 0.362478
O	 0.8885262475	 0.7939988081	 2.4176334694	-0.310809
C	 0.3035685238	-1.4783593604	 2.0992685229	-0.138081
O	 0.7430575219	-1.6586238452	 3.410052693	-0.418494
H	 1.5664296713	 1.400500941	-0.5317615847	 0.147615
H	 0.0175394054	 2.0183280595	-1.1371717136	 0.141598
H	 0.5632281155	 2.4221478625	 0.5121223458	 0.155746
H	-1.225658193	 0.6761580515	 0.5321135748	 0.16615
H	-0.7402568941	-1.811284875	 1.9769569831	 0.131231
H	 0.8919926391	-2.0760234868	 1.3828669656	 0.14497
H	 1.0739950123	-0.7949822705	 3.7001767321	 0.297846
28.8119	112.5745	133.6472	203.0751	227.5993	241.8369	320.7515	365.8904	386.6786	474.8479	508.1032	569.2732	667.8596	798.0534	880.6075	947.9176	1005.0404	1074.2209	1127.105	1128.3286	1167.4182	1241.9327	1277.5401	1303.4872	1315.8186	1408.481	1446.9021	1480.2764	1491.3171	1497.7194	1804.846	2357.8865	2978.5323	2994.9558	3009.7179	3065.43	3142.2674	3160.0101	3710.7426
CC(C#N)C(=O)CO	C[C@@H](C#N)C(=O)CO	
InChI=1S/C5H7NO2/c1-4(2-6)5(8)3-7/h4,7H,3H2,1H3	InChI=1S/C5H7NO2/c1-4(2-6)5(8)3-7/h4,7H,3H2,1H3/t4-/m0/s1
