16
gdb 28345	3.24905	1.39688	0.98284	2.8732	79.92	-0.1979	-0.0328	0.1651	1156.2481	0.125005	-437.938445	-437.930571	-437.929627	-437.970656	30.391	
C	 0.037044743	 1.5099759714	-0.0019946293	-0.473405
C	-0.1012495846	 0.0272363985	 0.0653765926	 0.360552
C	-1.1765491232	-0.71618445	-0.2538449304	-0.215962
C	-1.1399377098	-2.1473092469	-0.1292219661	-0.202026
C	-0.0059853021	-2.7357767302	 0.3148575009	 0.297821
O	 0.1559924772	-4.0593864396	 0.4755322506	-0.422316
C	 1.1571999087	-1.923909322	 0.6594812733	 0.327258
N	 2.2153584607	-2.5034967092	 1.0763646057	-0.589992
O	 1.0515664321	-0.570927772	 0.5163565117	-0.260762
H	 0.851473742	 1.7988364695	-0.6763290937	 0.141856
H	-0.8896855689	 1.9606983178	-0.3616588247	 0.135775
H	 0.2704129992	 1.9285080064	 0.9838239812	 0.141845
H	-2.0722056583	-0.2215329136	-0.6064207028	 0.107443
H	-2.003540639	-2.7489103669	-0.385351623	 0.115375
H	 1.0702759359	-4.1598912305	 0.80433504	 0.308307
H	 2.9655813469	-1.8500724928	 1.2884406739	 0.228231
124.2147	162.2442	176.0025	294.1647	328.2056	351.1826	409.8554	468.5806	518.8319	578.3899	600.2829	628.9153	734.6975	770.1665	772.0492	804.8447	834.3851	908.4532	959.6256	989.8512	1065.8178	1089.9707	1110.6745	1213.09	1225.9922	1302.0413	1322.3835	1391.4137	1419.0181	1468.1812	1477.413	1491.3937	1651.4526	1694.7974	1736.7409	3030.8116	3081.4175	3137.1594	3205.3856	3219.8337	3527.4051	3593.4372
CC1=CC=C(O)C(=N)O1	CC1=CCC(=C([NH])O1)O	
InChI=1S/C6H7NO2/c1-4-2-3-5(8)6(7)9-4/h2-3,7-8H,1H3	InChI=1S/C6H8NO2/c1-4-2-3-5(8)6(7)9-4/h2,7-8H,3H2,1H3
