18
gdb 38208	3.31524	1.73972	1.41372	2.138	76.29	-0.2426	0.0182	0.2608	940.481	0.151499	-401.898813	-401.892416	-401.891471	-401.929401	26.844	
C	-0.049845079	 1.6079189712	 0.1353899103	-0.26757
C	 1.4525910672	 1.2380558393	 0.041302626	-0.084727
C	 1.1274057007	 0.0455577902	 1.0145329993	-0.285795
C	 0.0043417479	 0.0545677869	-0.0593327156	 0.403202
N	-1.0919215482	-0.8040126104	-0.3354456338	-0.380504
C	-1.287728693	-0.939982465	-1.5880573779	 0.110763
O	-0.6382881364	-0.3982969641	-2.6464737372	-0.241052
C	 0.4601530972	 0.5444403422	-2.4541955225	-0.130703
C	 1.1139104612	 0.2515203358	-1.1220707259	-0.028204
H	-0.4036198485	 1.9557596042	 1.1084626989	 0.099031
H	-0.4857034715	 2.2016081383	-0.6696094071	 0.0931
H	 2.30362068	 1.9140697993	 0.1108806201	 0.078376
H	 1.8135594099	-0.8050741863	 0.9943046849	 0.095776
H	 0.847674064	 0.3191959086	 2.034796769	 0.096972
H	-2.0815834051	-1.5868976571	-1.9571955142	 0.124294
H	 1.1178564859	 0.3779133196	-3.3102868272	 0.119627
H	 0.0462445262	 1.5535101692	-2.5343441647	 0.121082
H	 1.7988856013	-0.597895742	-1.2060743125	 0.076333
128.2166	280.9573	363.6393	406.9159	442.3774	565.0991	571.9073	594.7518	637.7959	774.7436	791.7283	834.4477	861.1501	899.9032	927.407	950.456	973.9021	975.2517	994.1174	1058.3853	1060.5951	1102.0579	1116.991	1130.5486	1154.49	1163.8729	1176.519	1210.7589	1216.7822	1238.9052	1252.2494	1314.6595	1377.5051	1416.1722	1424.3088	1494.6213	1514.773	1549.4449	1662.9405	3052.8854	3055.6273	3060.6951	3071.9117	3107.898	3124.1756	3124.7005	3131.749	3159.52
C1C2CC11N=COCC21	C1[C@H]2C[C@]31[N][CH]OC[C@@H]23	
InChI=1S/C7H9NO/c1-5-2-7(1)6(5)3-9-4-8-7/h4-6H,1-3H2	InChI=1S/C7H9NO/c1-5-2-7(1)6(5)3-9-4-8-7/h4-6H,1-3H2/t5-,6-,7-/m0/s1
