23
gdb 63905	2.88369	1.33884	1.21582	0.263	90.79	-0.228	0.0242	0.2521	1179.5603	0.206878	-351.164713	-351.15601	-351.155066	-351.197291	35.52	
C	 0.11088374	 1.521157458	-0.008712038	-0.42395
C	-0.0647594042	-0.0071976893	 0.0045416124	 0.241587
C	-1.5720982405	-0.3445143758	 0.0510454628	-0.403941
C	 0.5827067841	-0.6035206189	-1.2719272356	-0.247007
C	 0.757321196	-2.1210466715	-1.2251219536	-0.036057
C	 2.1254731845	-2.7083672763	-0.9648597329	-0.295923
C	 1.0649857013	-2.7393079949	 0.117876257	-0.055089
C	 1.1277174401	-1.8181251492	 1.2796029773	-0.098671
C	 0.6148149133	-0.5880802828	 1.2337006884	-0.066375
H	 1.1702971532	 1.7986004953	 0.0046067538	 0.111673
H	-0.3408029724	 1.9590993893	-0.9059634746	 0.107629
H	-0.3673657116	 1.9807995869	 0.863549161	 0.107788
H	-2.1009511299	 0.1210266975	-0.7891754301	 0.104122
H	-1.7336696403	-1.4252013387	 0.0033883178	 0.118428
H	-2.0281646278	 0.0195200724	 0.9778603516	 0.108648
H	-0.0187982336	-0.3251833838	-2.1452469777	 0.090326
H	 1.5595660794	-0.1257949537	-1.4100440123	 0.093395
H	 0.1098845362	-2.691996777	-1.8827009209	 0.080997
H	 2.3900430596	-3.6448690533	-1.4445354724	 0.105834
H	 2.9507432235	-2.0141224532	-0.8408572423	 0.110151
H	 0.6410306794	-3.7184754026	 0.3273982145	 0.086378
H	 1.5952026419	-2.1842955824	 2.1912116183	 0.083038
H	 0.6565484779	 0.0500905238	 2.1143582054	 0.077018
101.4244	172.2246	242.4758	265.1747	289.7375	296.7161	354.4684	369.3311	423.3675	479.0627	522.5539	569.638	683.8715	751.2095	777.2995	815.395	849.2276	858.5869	901.4523	923.0366	944.6207	965.0665	991.3987	996.8349	1023.9985	1045.2239	1058.174	1084.478	1116.9868	1130.3393	1177.7031	1196.5119	1206.9105	1223.1683	1271.7173	1298.6691	1335.345	1374.9485	1394.3569	1400.0644	1412.9995	1430.6902	1476.4838	1485.0133	1486.4631	1495.6605	1500.715	1509.4136	1706.9076	3020.3696	3022.1419	3028.4374	3061.3605	3087.3723	3092.3251	3095.3599	3109.6457	3122.9859	3126.4458	3133.2355	3152.4985	3157.0387	3212.4735
CC1(C)CC2CC2C=C1	CC1(C)C[C@H]2C[C@H]2C=C1	
InChI=1S/C9H14/c1-9(2)4-3-7-5-8(7)6-9/h3-4,7-8H,5-6H2,1-2H3	InChI=1S/C9H14/c1-9(2)4-3-7-5-8(7)6-9/h3-4,7-8H,5-6H2,1-2H3/t7-,8-/m1/s1
