15
gdb 127596	2.04865	1.95907	1.00881	2.5492	77.61	-0.2177	-0.0305	0.1871	1109.039	0.114281	-413.022451	-413.013813	-413.012868	-413.056484	30.606	
C	-0.0441040362	 1.4093112002	 0.0033998368	-0.334909
N	-0.0048052377	-0.0385385296	 0.0240732833	-0.050246
N	-0.0325306402	-0.7402711716	-1.1026966382	-0.237186
C	 0.0187173771	-2.0251830494	-0.7426688684	-0.0559
C	 0.0787095957	-2.1699064809	 0.6586200139	 0.106682
N	 0.2093214578	-3.332125145	 1.3999512495	-0.61639
C	 0.0592035916	-0.8560050988	 1.1324776923	 0.239565
C	 0.0857377297	-0.3793883272	 2.4550395896	 0.198414
N	 0.1017627496	-0.007751693	 3.5546755199	-0.364029
H	 0.8560196376	 1.8273859879	 0.4635509029	 0.154528
H	-0.0976202104	 1.7114945514	-1.0414442669	 0.166907
H	-0.9214912311	 1.7806815447	 0.5410856528	 0.153598
H	 0.0133630791	-2.7997458885	-1.4946795195	 0.11811
H	-0.2029488698	-4.1495784668	 0.9745775089	 0.257377
H	-0.0583073529	-3.2469239933	 2.3706605732	 0.263476
39.7028	122.7673	135.7999	183.2313	256.9124	281.0845	332.8072	410.7683	519.0505	548.3157	591.1388	616.6767	648.9213	682.6125	725.0454	805.7632	836.6741	1031.277	1070.3723	1123.2155	1150.7647	1227.0664	1262.4393	1384.9014	1400.9934	1418.9617	1457.7125	1481.4097	1501.4167	1522.8481	1607.8491	1661.7708	2322.8374	3047.2307	3109.1835	3172.6636	3251.8786	3561.1116	3658.5711
CN1N=CC(N)=C1C#N	Cn1ncc(N)c1C#N	
InChI=1S/C5H6N4/c1-9-5(2-6)4(7)3-8-9/h3H,7H2,1H3	InChI=1S/C5H6N4/c1-9-5(2-6)4(7)3-8-9/h3H,7H2,1H3
