18
gdb 11056	3.35931	2.27176	1.94167	1.4797	70.62	-0.2377	0.0201	0.2578	777.6067	0.156188	-347.812584	-347.806007	-347.805063	-347.842675	27.582	
O	-0.0705215797	 1.3906403097	 0.0010804065	-0.504339
C	 0.0046613386	-0.0122150721	-0.0241686854	 0.395875
C	 0.6997591713	-0.6789758216	 1.2137763093	-0.258191
C	 0.177975982	-2.1445029074	 1.1545470851	-0.204455
C	-0.751156476	-2.1282375229	-0.1109151885	-0.065862
C	-1.3668390918	-0.7148021086	 0.0134736101	-0.235809
C	 0.161134336	-1.9233833737	-1.3119275933	-0.075529
C	 0.6137822537	-0.6680018553	-1.2605387033	-0.143183
H	 0.823788281	 1.7398852944	 0.071166219	 0.275223
H	 1.789980668	-0.6094820391	 1.1568829821	 0.08735
H	 0.3749499076	-0.1656163645	 2.1239100822	 0.101417
H	 0.9802754359	-2.8800996864	 1.0609800944	 0.096636
H	-0.3994864138	-2.3962092858	 2.0492345369	 0.098119
H	-1.4407328382	-2.9705105438	-0.1693631675	 0.060108
H	-1.9054517434	-0.5458483661	 0.9514682397	 0.090546
H	-1.9951584833	-0.4391103909	-0.8359082796	 0.101362
H	 0.4607894065	-2.7054695033	-1.9991504216	 0.092997
H	 1.3571452156	-0.1958044026	-1.892409366	 0.087733
213.2709	237.2705	327.5291	359.8702	400.1716	480.341	501.3992	619.5005	666.9495	732.0576	773.8216	795.9495	822.9337	869.3456	921.0477	929.3109	941.8405	956.0178	978.247	1002.6315	1055.3982	1068.4879	1095.5821	1131.9729	1170.3128	1194.3125	1222.2216	1243.9353	1257.5833	1285.9327	1304.4446	1315.4567	1361.441	1385.9679	1487.791	1490.5672	1512.6325	1646.3345	3045.8876	3053.2452	3059.3927	3088.2067	3106.9542	3110.9717	3122.0975	3186.4491	3212.9023	3812.5796
OC12CCC(C1)C=C2	O[C@@]12CC[C@@H](C1)C=C2	
InChI=1S/C7H10O/c8-7-3-1-6(5-7)2-4-7/h1,3,6,8H,2,4-5H2	InChI=1S/C7H10O/c8-7-3-1-6(5-7)2-4-7/h1,3,6,8H,2,4-5H2/t6-,7-/m0/s1
