18
gdb 54952	2.37641	1.34243	1.10427	3.1953	80.04	-0.2458	0.0074	0.2531	1197.0869	0.143574	-401.921237	-401.911247	-401.910303	-401.956207	35.976	
C	-0.2733327371	 1.3427655774	-0.0647134234	-0.480384
C	-0.098611982	-0.1637655703	-0.0166695606	 0.384016
O	-0.4354746717	-0.8520474208	 0.9169737505	-0.328907
N	 0.5713228655	-0.694863613	-1.1232526981	-0.116459
C	 0.2542538148	-0.5187120082	-2.5191790599	-0.286522
C	 0.2111506761	-1.8915557656	-1.8689560453	 0.128888
C	 1.3308423454	-2.8862745437	-2.1148457489	-0.459751
C	-1.0963012174	-2.4693501348	-1.6606621335	 0.320525
C	-2.1714480102	-2.9850639206	-1.5126146349	-0.456417
H	 0.6188276082	 1.83479433	-0.4611239494	 0.139609
H	-1.1126629804	 1.5999008764	-0.7209108893	 0.142006
H	-0.4920741383	 1.7067653024	 0.9390447809	 0.149124
H	-0.699574498	-0.0676149313	-2.7818033778	 0.132695
H	 1.084743866	-0.270947837	-3.1766216965	 0.125102
H	 2.2745337465	-2.3581874393	-2.2716449627	 0.126788
H	 1.4417381319	-3.5487899016	-1.2521845595	 0.146255
H	 1.1114094765	-3.4992252068	-2.9936571578	 0.131371
H	-3.1225479459	-3.4325793433	-1.3605614538	 0.202061
73.446	100.6229	110.1078	140.71	184.7455	212.7577	240.4717	310.8739	362.9183	431.067	518.5014	543.9105	585.9666	619.0914	627.0409	664.0728	684.2912	720.5298	897.8939	923.9555	970.3568	1007.9558	1050.1089	1088.0534	1111.1931	1118.1969	1128.1572	1245.4531	1272.7033	1380.8473	1402.2723	1412.574	1468.5819	1479.2962	1480.5008	1495.7805	1506.1136	1803.9929	2240.5718	3044.8122	3047.3136	3096.5619	3111.2652	3123.0002	3130.9669	3161.0481	3188.8093	3502.1715
CC(=O)N1CC1(C)C#C	CC(=O)N1C[C@]1(C)C#C	
InChI=1S/C7H9NO/c1-4-7(3)5-8(7)6(2)9/h1H,5H2,2-3H3	InChI=1S/C7H9NO/c1-4-7(3)5-8(7)6(2)9/h1H,5H2,2-3H3/t7-,8?/m0/s1
