17
gdb 14266	3.09633	2.65007	1.86403	2.4492	68.42	-0.2399	0.0288	0.2687	760.497	0.145321	-363.855633	-363.84921	-363.848266	-363.886288	25.18	
C	 0.0047089966	 1.5017208119	-0.176440815	-0.235556
C	 1.5364066145	 1.4580604956	 0.066906941	-0.032004
C	 1.3383510063	 0.1068898426	 0.8034291978	-0.235801
C	-0.0090243303	-0.0427245418	 0.0339176455	 0.028357
N	 0.1089807372	-0.7931323921	-1.1956168863	-0.262101
C	 0.9954035514	-0.5589924313	-2.0635091485	 0.132595
O	 2.0103776408	 0.3383418139	-2.1597924281	-0.242163
C	 2.3603222929	 1.3540846479	-1.2025552952	-0.067108
H	-0.519178197	 2.0264776587	 0.6271080109	 0.10101
H	-0.3557485523	 1.86745188	-1.1414468418	 0.104775
H	 1.9644967137	 2.2786376649	 0.6519272055	 0.075262
H	 2.0805327568	-0.6805670048	 0.6486226758	 0.104943
H	 1.1806869056	 0.2485508524	 1.8760804928	 0.101044
H	-0.8493287838	-0.4470199325	 0.6020557105	 0.073857
H	 1.0248949844	-1.1666015684	-2.9677481953	 0.121418
H	 2.3147406424	 2.3034732531	-1.7504968094	 0.115675
H	 3.4104342909	 1.1665956399	-0.9464565802	 0.115797
74.0706	269.2532	296.1697	347.2395	388.1704	533.8053	575.7265	746.7437	799.5742	810.0824	854.1869	880.3706	894.223	915.6182	935.8188	970.5211	977.6476	1053.8325	1097.2001	1112.4132	1117.6745	1151.3394	1167.7294	1229.2873	1246.3422	1269.1332	1274.982	1316.6572	1359.9772	1366.2216	1416.7543	1435.3637	1472.0596	1496.2283	1503.6003	1736.6388	3020.4069	3050.4783	3053.5056	3059.5797	3063.1482	3079.1948	3112.4531	3114.2244	3142.9573
C1C2CC1N=COC2	C1[C@H]2C[C@@H]1N=COC2	
InChI=1S/C6H9NO/c1-5-2-6(1)7-4-8-3-5/h4-6H,1-3H2	InChI=1S/C6H9NO/c1-5-2-6(1)7-4-8-3-5/h4-6H,1-3H2/t5-,6+
