21
gdb 104898	2.11988	1.42255	1.00436	1.6353	86.05	-0.2462	0.043	0.2892	1268.6064	0.17922	-387.047119	-387.036639	-387.035695	-387.081918	39.414	
C	-0.0653002621	 1.5290685188	-0.0428363911	-0.455135
C	 0.0098245337	 0.0120049619	 0.0007819637	 0.2889
C	-1.1941795173	-0.6579141043	-0.6361012351	-0.456716
C	 1.3485831006	-0.6584585942	-0.1467653477	-0.350542
C	 0.6588864102	-0.6781408935	 1.2136750632	 0.070376
C	 1.271721962	 0.1258368255	 2.3616832895	-0.123347
O	 2.3025720741	-0.5834028023	 3.0209196635	-0.41855
C	 0.1141656839	-1.9259720032	 1.6831795782	 0.272447
C	-0.3035465152	-2.9519033171	 2.1573198737	-0.46782
H	 0.8388398844	 2.0129864972	 0.3318073309	 0.120855
H	-0.2046623558	 1.8593847019	-1.0786891559	 0.12012
H	-0.9165683046	 1.9022653533	 0.5377346761	 0.121229
H	-1.2714289894	-0.3685941545	-1.6904418846	 0.114315
H	-1.1296143567	-1.7465795427	-0.5840179322	 0.1291
H	-2.1221379624	-0.3544399407	-0.1382346348	 0.118485
H	 1.4035327111	-1.5918107058	-0.6961103614	 0.11989
H	 2.2364519852	-0.038662084	-0.2228730359	 0.118849
H	 1.7339757196	 1.0396851998	 1.983359979	 0.103557
H	 0.4753047545	 0.4178207737	 3.0640918801	 0.093102
H	 1.9329943662	-1.433648459	 3.2881638386	 0.285596
H	-0.688741152	-3.8614871107	 2.5472141219	 0.195289
82.5683	119.4502	142.5891	168.2765	199.6581	228.9235	244.9424	327.0366	359.3796	371.5922	388.3449	404.4792	465.1758	548.3626	568.5072	584.8682	661.3768	682.1832	755.3381	887.7654	917.0146	937.281	953.7032	973.3237	1017.3607	1036.2674	1074.6938	1078.7869	1148.7067	1153.1699	1194.0386	1260.669	1311.4845	1374.5579	1376.6791	1410.3942	1424.2674	1438.3575	1480.407	1487.0302	1489.8412	1501.4847	1507.942	1512.3045	2217.967	2980.3128	3027.5089	3032.3613	3084.3992	3088.3709	3101.9772	3126.1817	3126.8298	3131.1944	3218.2024	3500.5071	3781.8965
CC1(C)CC1(CO)C#C	CC1(C)C[C@]1(CO)C#C	
InChI=1S/C8H12O/c1-4-8(6-9)5-7(8,2)3/h1,9H,5-6H2,2-3H3	InChI=1S/C8H12O/c1-4-8(6-9)5-7(8,2)3/h1,9H,5-6H2,2-3H3/t8-/m0/s1
