22
gdb 88545	3.26095	1.21352	1.11739	1.0342	86.94	-0.2047	0.0955	0.3002	1218.9593	0.194226	-367.150825	-367.142108	-367.141164	-367.184372	34.189	
C	 0.2577455175	 1.4936721841	-0.5261824142	-0.415452
C	 0.0161213199	 0.0639437414	-0.0949184649	 0.019953
C	 1.133230583	-0.9190461101	-0.0437037574	-0.264571
N	 0.4965508613	-0.4688936638	 1.1906810749	-0.170243
C	 1.1845904249	 0.3855586329	 2.1068498447	 0.407378
C	 2.6172718309	 0.8562069431	 2.0521033954	-0.328091
C	 2.1578411608	 0.0201906277	 3.2275389101	-0.11704
C	 1.3874601199	 0.8967578121	 4.2183830766	-0.218365
C	 0.3856100741	 1.2680951799	 3.0761443467	-0.277815
H	 1.2684534396	 1.8275285521	-0.2812149951	 0.130982
H	 0.1219445557	 1.5868883024	-1.6092303577	 0.118518
H	-0.4515972992	 2.17585209	-0.0451602045	 0.124003
H	-0.9730236299	-0.3139985533	-0.3504579158	 0.087365
H	 0.9774273851	-1.9646201206	-0.2971197088	 0.112175
H	 2.123982542	-0.5391183244	-0.2857791805	 0.108322
H	 3.2612826576	 0.329230555	 1.3558394654	 0.108007
H	 2.8758161791	 1.9065947671	 2.1852176453	 0.094922
H	 2.6219750261	-0.9337805036	 3.4488665673	 0.085749
H	 0.9088180172	 0.3306629428	 5.0202894093	 0.103424
H	 1.9537576317	 1.7223819684	 4.6631868711	 0.091989
H	 0.2978120331	 2.3260962452	 2.8075318645	 0.088395
H	-0.6121688405	 0.8630587918	 3.2564433176	 0.110395
44.6793	135.2524	186.5989	216.4267	230.865	352.4858	367.4299	393.7733	448.1312	502.4766	611.0747	694.2576	782.107	789.7732	817.2243	858.6905	893.9897	913.3905	925.7646	947.4674	962.5495	1004.5246	1025.0829	1032.8601	1046.0255	1082.1134	1105.9911	1116.8718	1126.0294	1150.8783	1168.7699	1186.092	1218.3815	1225.48	1236.367	1250.2351	1293.1344	1323.9628	1397.3996	1402.5631	1421.399	1478.2749	1482.9048	1490.009	1498.3506	1506.6932	1510.6879	3035.3952	3038.6907	3047.9618	3085.8942	3091.9118	3096.3064	3098.2422	3104.7138	3118.2063	3131.0163	3176.491	3178.4633	3196.4212
CC1CN1C12CC1CC2	C[C@H]1CN1[C@]12C[C@H]1CC2	
InChI=1S/C8H13N/c1-6-5-9(6)8-3-2-7(8)4-8/h6-7H,2-5H2,1H3	InChI=1S/C8H13N/c1-6-5-9(6)8-3-2-7(8)4-8/h6-7H,2-5H2,1H3/t6-,7+,8+,9?/m0/s1
