17
gdb 73623	2.26334	1.49937	1.1751	2.6727	69.54	-0.2414	-0.023	0.2184	1088.9658	0.135555	-458.95217	-458.944017	-458.943073	-458.984878	30.714	
O	-0.047112055	 1.3477580753	-0.0280596284	-0.456075
C	 0.0063269107	-0.0377494696	-0.0439913568	 0.350218
C	 0.8962357451	-0.7143955817	-1.0821024893	-0.154827
O	 0.3548650783	-2.0150168663	-1.2709679777	-0.251647
C	-1.0487718677	-1.9693547612	-1.0028753295	-0.102104
C	-1.2386142577	-0.8527323411	 0.0052585497	-0.134308
C	-0.3201882431	-0.8147864227	 1.2361897429	-0.191566
C	 0.471592241	-1.9653374601	 1.7409844567	 0.132098
O	 0.7015552155	-2.1317686211	 2.9172042667	-0.274751
H	 0.7276311472	 1.6790301724	 0.4396909323	 0.294644
H	 0.854321158	-0.1108753456	-2.0023781956	 0.110829
H	 1.9445150451	-0.8322318467	-0.7882125275	 0.113917
H	-1.6190385193	-1.7387587976	-1.916075058	 0.108901
H	-1.345542295	-2.9623957316	-0.6527929129	 0.122145
H	-2.2093114099	-0.3836214547	 0.108184611	 0.116917
H	-0.6927341964	-0.178398217	 2.0332568414	 0.114139
H	 0.8525571232	-2.6668914607	 0.9739592751	 0.101469
94.2525	175.996	208.3627	235.2695	245.8149	313.8648	353.1166	420.3072	470.0725	503.4599	593.4533	668.0966	732.57	875.1474	919.541	927.0718	938.1259	1005.5765	1039.9226	1071.5658	1075.1581	1099.7695	1111.803	1146.3291	1196.2276	1223.1281	1241.7666	1265.97	1304.2155	1328.1867	1353.162	1370.037	1440.65	1469.6972	1513.2287	1524.7156	1798.463	2951.2156	2986.8877	2991.6118	3070.9907	3082.1809	3167.6795	3197.7393	3799.3994
OC12COCC1C2C=O	O[C@]12COC[C@H]1[C@H]2C=O	
InChI=1S/C6H8O3/c7-1-4-5-2-9-3-6(4,5)8/h1,4-5,8H,2-3H2	InChI=1S/C6H8O3/c7-1-4-5-2-9-3-6(4,5)8/h1,4-5,8H,2-3H2/t4-,5+,6+/m1/s1
