19
gdb 36711	5.95082	0.72249	0.6678	4.401	82.29	-0.2186	0.0118	0.2303	1629.7356	0.160009	-382.080299	-382.071501	-382.070557	-382.114798	31.772	
N	-0.0826893319	-1.1621502947	 0.3193413831	-0.305858
C	-0.0728971566	-0.007917771	 0.263830724	 0.258485
C	-0.0326941643	 1.4495618545	 0.1890811535	-0.342321
C	 1.3608339143	 1.9748796951	-0.2176059021	-0.14375
N	 1.3837167129	 3.4188479664	-0.2361276128	-0.070909
C	 0.6243592067	 4.0714789364	-1.3110734822	-0.20562
C	 1.3851084623	 5.348953096	-1.5427662236	-0.06789
C	 2.5470893881	 5.326674474	-0.8986541469	-0.070175
C	 2.7182995112	 4.030191163	-0.1565709454	-0.202737
H	-0.7896617158	 1.7812035576	-0.5299313074	 0.153756
H	-0.3077679981	 1.872718004	 1.1607971541	 0.158747
H	 2.0909653544	 1.6232199527	 0.5178782566	 0.124484
H	 1.6426221554	 1.5265576582	-1.1896733902	 0.098622
H	 0.5900392199	 3.4618422588	-2.2370031259	 0.091401
H	-0.4202085204	 4.248352946	-1.0166992684	 0.108118
H	 1.0102333092	 6.1452361173	-2.1732534172	 0.104525
H	 3.3030992515	 6.1015493891	-0.9035863344	 0.105068
H	 3.0255764843	 4.1671361523	 0.8900621684	 0.110825
H	 3.5012602969	 3.4108473543	-0.6357174031	 0.095231
58.062	84.5823	94.4239	147.6548	233.2969	332.8603	367.5771	404.2352	407.6457	511.48	679.0645	701.4039	779.3543	796.897	860.8539	939.706	959.3177	963.7737	997.4896	1023.0312	1032.264	1052.8356	1074.0013	1130.8108	1156.361	1190.9253	1209.4038	1213.0371	1248.0984	1302.633	1318.0841	1335.2084	1374.0337	1390.0275	1419.7011	1470.3299	1496.9601	1510.6969	1525.4377	1696.6393	2362.8279	2891.2714	2909.9286	2922.1824	2997.4767	3004.6917	3051.9252	3073.2194	3097.1851	3205.3689	3229.7457
N#CCCN1CC=CC1	N#CCCN1CC=CC1	
InChI=1S/C7H10N2/c8-4-3-7-9-5-1-2-6-9/h1-2H,3,5-7H2	InChI=1S/C7H10N2/c8-4-3-7-9-5-1-2-6-9/h1-2H,3,5-7H2
