19
gdb 37324	2.35827	2.30746	1.51127	2.1185	77.51	-0.2152	0.0639	0.2791	921.8015	0.163102	-382.002495	-381.995884	-381.99494	-382.033027	28.461	
C	 0.0532969641	 1.5693172705	-0.1410152187	-0.314427
C	 1.3300527177	 0.7763433995	-0.0010291288	-0.022143
C	 2.1112896891	 0.8034999261	 1.2783033086	-0.048368
N	 1.5436909788	 1.5395395874	 2.4174324154	-0.346285
C	 1.5971838817	 0.0700183902	 2.4813657052	-0.041291
C	 0.3116540695	-0.6950627992	 2.3927800047	-0.00806
C	-1.0046803335	 0.0048934245	 2.3582370317	-0.259744
N	-0.4970139403	-0.642819366	 1.1583733826	-0.107394
C	-0.0217956512	 0.0715073885	 0.0027683782	 0.011666
H	-0.2157496597	 2.188850453	 0.7054820612	 0.136532
H	-0.1871475186	 1.9891712607	-1.1115887572	 0.106749
H	 1.9404079686	 0.6405370525	-0.887511732	 0.079993
H	 3.1901522866	 0.8348271445	 1.1507689765	 0.083686
H	 2.2788876631	 1.9482904505	 2.9859504284	 0.233316
H	 2.3368892855	-0.3783160324	 3.1395010832	 0.080628
H	 0.3689115672	-1.6922671971	 2.8255333255	 0.082903
H	-1.8836513887	-0.4635721141	 2.7952192045	 0.106767
H	-0.9726386411	 1.0879398125	 2.4328068394	 0.132528
H	-0.2590489588	-0.4718857316	-0.9074233484	 0.092944
200.3359	205.8893	344.1444	430.7156	449.0759	472.5861	539.5206	603.0923	676.8655	730.4622	746.9472	796.2991	835.9744	854.8799	878.9248	894.6559	917.3387	932.4469	985.6473	1041.2929	1047.1935	1059.4493	1083.2295	1093.3842	1106.2722	1123.9671	1130.4217	1152.8823	1158.4587	1164.755	1198.0301	1228.0487	1255.2606	1354.0613	1365.7709	1397.0374	1406.2506	1421.9024	1450.3996	1476.6266	1509.5016	3101.3356	3111.8607	3131.4997	3134.8938	3140.6787	3142.5944	3163.621	3194.2083	3234.0181	3518.7089
C1C2C3NC3C3CN3C12	C1[C@H]2[C@H]3N[C@H]3[C@H]3CN3[C@@H]12	
InChI=1S/C7H10N2/c1-3-4(1)9-2-5(9)7-6(3)8-7/h3-8H,1-2H2	InChI=1S/C7H10N2/c1-3-4(1)9-2-5(9)7-6(3)8-7/h3-8H,1-2H2/t3-,4+,5-,6-,7+,9?/m1/s1
