14
gdb 84981	3.05418	1.28257	0.95526	6.5196	71.83	-0.2929	-0.0865	0.2065	1172.8954	0.101073	-436.752108	-436.744255	-436.743311	-436.784803	28.441	
C	-0.0432619612	 1.5538569231	-0.039879917	-0.399084
C	 0.0300367652	 0.0286215703	 0.0133033483	 0.072321
O	 0.7801377969	-0.4694877957	-1.1027298621	-0.232338
C	 1.835314519	-1.2312987225	-0.6848757379	 0.397958
O	 2.6090704995	-1.7568702232	-1.4249857866	-0.319847
C	 1.7896830529	-1.2459201064	 0.8151695063	 0.050868
C	 0.7401669008	-0.5199620924	 1.2153648061	-0.206689
C	 2.7407937157	-1.9378397791	 1.6075562692	 0.243087
N	 3.5174128493	-2.5026652414	 2.2526197496	-0.3201
H	 0.9574551216	 1.9886315692	 0.0244657365	 0.143045
H	-0.50491416	 1.8679935454	-0.9785979365	 0.151582
H	-0.6478309499	 1.9312529235	 0.7900813964	 0.133379
H	-0.9830134232	-0.3920892244	-0.0550745011	 0.1299
H	 0.4242506534	-0.3287566764	 2.2322254088	 0.155918
110.0792	133.7059	146.0502	236.5283	267.6532	337.0204	428.906	484.8844	535.2275	553.6491	631.9227	717.6538	786.7614	793.7907	890.0186	906.0213	961.9838	1045.1909	1077.17	1104.7869	1143.4899	1207.9771	1298.5022	1333.871	1350.932	1405.7309	1485.1757	1495.2148	1679.9543	1887.9093	2357.3074	3017.5162	3050.4285	3128.3802	3139.6096	3234.8762
CC1OC(=O)C(=C1)C#N	C[C@H]1OC(=O)C(=C1)C#N	
InChI=1S/C6H5NO2/c1-4-2-5(3-7)6(8)9-4/h2,4H,1H3	InChI=1S/C6H5NO2/c1-4-2-5(3-7)6(8)9-4/h2,4H,1H3/t4-/m1/s1
