19
gdb 59329	3.71683	1.01183	0.94115	4.9695	78.56	-0.2306	-0.0382	0.1925	1304.5687	0.158527	-423.063121	-423.054113	-423.053168	-423.097262	33.601	
C	 0.0314533984	 1.5964649697	-0.1268594778	-0.411855
C	 0.038270495	 0.0718423034	 0.0012840243	 0.114146
O	 0.7682510002	-0.3508498856	 1.1481278132	-0.429962
C	-1.3680132299	-0.5416917273	 0.1227294151	-0.046632
C	-1.3749054012	-2.0850275479	 0.1573150787	-0.355801
C	-2.2731340052	-2.4716782643	 1.3415846387	 0.378918
O	-2.6278907264	-3.5904471017	 1.6315152638	-0.332418
C	-2.6108812643	-1.2124325354	 2.0462765701	-0.185602
C	-2.1079492185	-0.1623643434	 1.3900570269	-0.029217
H	 1.0526927599	 1.9729745649	-0.2533074852	 0.110424
H	-0.5485437182	 1.9175802254	-0.9984028158	 0.11909
H	-0.3877554449	 2.0665802589	 0.767167004	 0.128359
H	 0.4932526449	-0.3498276623	-0.9106503296	 0.071798
H	 1.6754696742	-0.0435051383	 1.0586459827	 0.285739
H	-1.9395566649	-0.1752455789	-0.741348164	 0.09045
H	-1.737195536	-2.5493651059	-0.7630777454	 0.121742
H	-0.3708835916	-2.4723094243	 0.3552605347	 0.145934
H	-3.196421566	-1.1945631491	 2.9566292901	 0.112701
H	-2.2220881553	 0.8715833121	 1.6971796155	 0.112183
51.4574	83.2491	183.1542	227.3616	237.9198	281.2375	316.4597	332.9527	446.1624	493.7474	517.2782	607.7454	678.8749	733.4206	803.5266	817.0038	835.3582	901.4089	965.9607	982.3107	1003.0679	1025.5345	1059.0459	1110.383	1118.492	1147.0784	1178.897	1201.102	1214.9331	1260.9763	1299.3882	1334.5625	1373.537	1385.4004	1406.9154	1417.7289	1447.3365	1491.5599	1501.0211	1652.5611	1815.8339	2958.5645	3010.5598	3033.176	3067.0333	3096.3689	3115.01	3118.8323	3191.3957	3226.2566	3825.9637
CC(O)C1CC(=O)C=C1	C[C@@H](O)[C@H]1CC(=O)C=C1	
InChI=1S/C7H10O2/c1-5(8)6-2-3-7(9)4-6/h2-3,5-6,8H,4H2,1H3	InChI=1S/C7H10O2/c1-5(8)6-2-3-7(9)4-6/h2-3,5-6,8H,4H2,1H3/t5-,6-/m1/s1
