21
gdb 73023	3.037	1.19962	1.03005	2.047	83.38	-0.2248	0.0795	0.3043	1256.4174	0.18355	-383.197631	-383.188985	-383.188041	-383.231209	33.243	
C	 0.0807958903	 1.4478990986	 0.2127711064	-0.488434
C	 0.0322318058	-0.0324016193	-0.0297558132	 0.328399
C	-0.697759874	-0.6866795103	-1.2087270422	-0.311668
C	-1.2217407998	-1.7286721923	-0.1911089842	-0.155497
N	-0.5657856661	-1.0231576797	 0.9680215514	-0.198406
C	 0.8965327008	-1.0039523593	 0.6809504712	-0.061576
C	 1.6395602404	-2.143411934	 0.0633818465	 0.001067
C	 3.0433659908	-2.4001838015	 0.4770379312	-0.254276
N	 1.9750420721	-3.3213092425	 0.8917848683	-0.319988
H	 0.7755745799	 1.9332633155	-0.4832676504	 0.121819
H	-0.9063051629	 1.9021174322	 0.0730933449	 0.121632
H	 0.4136372261	 1.6667445621	 1.2314909005	 0.127451
H	-1.4930650882	-0.0500181542	-1.6026562464	 0.108162
H	-0.0869679336	-1.0320622492	-2.0482284488	 0.103622
H	-2.3050627518	-1.7083791023	-0.0600549696	 0.10935
H	-0.9031740238	-2.7670953018	-0.3184266164	 0.119333
H	 1.4177480561	-0.5805432809	 1.5396852332	 0.085801
H	 1.3644123361	-2.4112434743	-0.9520728926	 0.095576
H	 3.752581775	-2.8108515137	-0.2361384744	 0.119135
H	 3.4831691505	-1.7372088929	 1.2183907188	 0.111723
H	 1.7131312063	-3.1340992502	 1.8577327458	 0.236773
49.4623	152.4251	179.2707	188.3622	246.4632	296.1788	351.2884	373.3059	473.6233	554.5705	617.7342	759.5434	783.1548	788.217	821.9357	855.6491	890.5328	943.5841	951.6422	969.7892	972.8801	1002.5352	1051.0074	1066.5668	1105.3891	1119.3556	1138.6277	1163.5874	1169.0686	1214.166	1219.8811	1242.4944	1255.6983	1278.716	1299.636	1319.5431	1334.0856	1371.9055	1415.6868	1479.3036	1483.3399	1491.9986	1495.948	1513.3436	1517.2975	3025.7274	3051.855	3062.9516	3086.7324	3100.7306	3103.3867	3105.9862	3111.5138	3120.5562	3153.1245	3189.8764	3487.9893
CC12CCN1C2C1CN1	C[C@]12CCN1[C@H]2[C@H]1CN1	
InChI=1S/C7H12N2/c1-7-2-3-9(7)6(7)5-4-8-5/h5-6,8H,2-4H2,1H3	InChI=1S/C7H12N2/c1-7-2-3-9(7)6(7)5-4-8-5/h5-6,8H,2-4H2,1H3/t5-,6+,7-,9?/m1/s1
