15
gdb 12719	3.03948	2.3492	1.74605	2.9276	62.42	-0.2592	0.0086	0.2678	789.6101	0.118537	-399.772871	-399.765829	-399.764885	-399.803967	26.412	
C	-0.1825649452	 1.4660497046	-0.0031007247	-0.483242
C	 0.053555697	-0.0143689559	 0.00769313	 0.307127
O	-1.1572338175	-0.8082332678	 0.137765266	-0.317624
C	-0.570572717	-1.6400702653	 1.1690970225	-0.104177
C	 0.7725877235	-0.9225530079	 1.039249302	 0.010363
O	 1.598505398	-1.48312122	-0.0213476126	-0.277124
C	 1.0171636451	-0.6620150996	-0.9814455549	 0.416328
N	 1.2491926289	-0.5373706892	-2.2040664936	-0.548912
H	 0.7658201291	 2.0105551289	-0.0163670587	 0.134383
H	-0.739980105	 1.7351785675	-0.9056508614	 0.156455
H	-0.7644583674	 1.7720243182	 0.8701658704	 0.128422
H	-1.0759564445	-1.4918909752	 2.1309074193	 0.114164
H	-0.5603224589	-2.7030093297	 0.9082040649	 0.12346
H	 1.3587141684	-0.6230510806	 1.9054981694	 0.107982
H	 1.9776069056	-1.179492518	-2.5217420187	 0.232395
133.5161	186.0041	200.2068	273.878	293.5333	390.2571	486.3254	641.1177	665.1557	725.4223	840.3365	842.3107	866.5116	881.1597	917.7049	982.663	999.8814	1019.7652	1070.9745	1133.4198	1151.0782	1166.2243	1179.1562	1237.5872	1308.9122	1334.9688	1367.0157	1413.5571	1477.7064	1484.3728	1503.4255	1828.4982	3029.2115	3045.9533	3089.6813	3119.9035	3127.6736	3142.5563	3474.1704
CC12OCC1OC2=N	C[C@]12OC[C@H]1O[C]2[NH]	
InChI=1S/C5H7NO2/c1-5-3(2-7-5)8-4(5)6/h3,6H,2H2,1H3	InChI=1S/C5H7NO2/c1-5-3(2-7-5)8-4(5)6/h3,6H,2H2,1H3/t3-,5+/m1/s1
