17
gdb 31171	2.53542	0.99147	0.77475	6.5877	76.36	-0.1913	-0.0567	0.1345	1478.8324	0.132596	-455.172118	-455.161188	-455.160244	-455.209854	37.536	
N	 0.2435254908	 0.2483138711	-1.5162705017	-0.622072
C	 0.0388246007	-0.4481194121	-0.3307289808	 0.104785
C	-1.0277208703	-0.4753835421	 0.4918587618	-0.057736
O	-0.9019638959	-1.3828784343	 1.5513269321	-0.217277
C	 0.3313761989	-1.9766671302	 1.4416108816	 0.397298
O	 0.7335467564	-2.7873939867	 2.2260475759	-0.337943
C	 0.9854522191	-1.4181922935	 0.2107447683	 0.178314
C	 2.1790478944	-1.8276719163	-0.2278031709	-0.416609
N	 3.110230873	 1.5077170189	-1.5394632033	-0.69907
H	 3.7145609571	 1.3619970492	-2.3434816153	 0.252242
H	 3.0726329695	 2.5121199019	-1.3881298273	 0.251529
H	 3.5981735232	 1.1168858521	-0.7379562577	 0.255491
H	 1.1795542375	 0.6545340146	-1.5935405285	 0.280998
H	-0.461189181	 0.9537200574	-1.6877794812	 0.232967
H	-1.9623544985	 0.0624323464	 0.4705367528	 0.128775
H	 2.6172562454	-1.4379478557	-1.1392435969	 0.126333
H	 2.7255698996	-2.5840853308	 0.3247726312	 0.141974
24.1537	55.5727	68.8099	120.3957	158.5126	202.593	232.4562	262.1027	305.8663	337.8888	346.2644	462.2307	520.3857	556.821	594.9387	723.4341	758.8111	766.1311	782.4217	824.9173	832.2091	879.0565	952.6778	1052.6936	1107.0377	1115.6351	1158.0799	1213.4698	1335.9048	1390.517	1454.5619	1669.6721	1676.6799	1683.7288	1702.6101	1706.9884	1873.2062	3158.0637	3251.6938	3263.0506	3379.0194	3470.5231	3588.187	3589.5452	3593.2359
NC1=COC([O-])=C1C[NH3+]	NC1=C(C(=O)O[CH]1)[CH2].N	
InChI=1S/C5H8N2O2/c6-1-3-4(7)2-9-5(3)8/h2,8H,1,6-7H2	InChI=1S/C5H5NO2.H3N/c1-3-4(6)2-8-5(3)7;/h2H,1,6H2;1H3
