16
gdb 24456	3.63188	1.595	1.14305	1.585	70.46	-0.1848	0.0532	0.238	1012.3226	0.127919	-437.91337	-437.906507	-437.905563	-437.944517	27.252	
C	 0.0123067476	 1.37702244	 0.0231670096	 0.002215
O	 1.2827462237	 1.9361534545	-0.0284094507	-0.23485
C	 2.0723248342	 1.658866869	 1.1426659522	-0.200066
C	 1.8980948314	 0.2184390415	 1.5131055381	 0.129164
C	 0.9229182898	-0.5061917268	 0.8789309175	 0.383539
N	 0.9520543846	-1.7975852008	 1.311194111	-0.362775
C	 1.9669064468	-1.9190396323	 2.2483340808	-0.081667
C	 2.5623721798	-0.6906083105	 2.3941126492	-0.285855
O	 0.0324031925	-0.0583930319	-0.0360666735	-0.273392
H	-0.5151706802	 1.6661835774	 0.9468047135	 0.094733
H	-0.5310490618	 1.7062221639	-0.8628627386	 0.124853
H	 3.1006932411	 1.9010387121	 0.8559142158	 0.12464
H	 1.7844970594	 2.3474732605	 1.9538988099	 0.101596
H	 0.3317947854	-2.5247377121	 1.001380683	 0.265008
H	 2.1703589415	-2.8669272426	 2.7173705522	 0.119119
H	 3.3898110942	-0.4686086719	 3.0509568999	 0.093737
121.6175	219.3636	299.1862	368.4506	399.1085	423.3954	478.0666	587.5286	620.1038	637.2802	701.0587	722.1673	781.0042	807.7625	922.1965	945.2465	976.6989	1034.1609	1077.925	1085.4574	1102.4108	1152.588	1218.3637	1242.425	1267.4524	1317.6483	1325.6135	1370.1548	1424.683	1440.3535	1495.5454	1510.0144	1519.7396	1551.0454	1654.3567	2963.4274	2973.3635	3066.9212	3133.7407	3244.1131	3279.6361	3688.3669
C1OCC2=C(NC=C2)O1	C1OCc2c([nH]cc2)O1	
InChI=1S/C6H7NO2/c1-2-7-6-5(1)3-8-4-9-6/h1-2,7H,3-4H2	InChI=1S/C6H7NO2/c1-2-7-6-5(1)3-8-4-9-6/h1-2,7H,3-4H2
