19
gdb 88487	2.28951	1.40368	1.13762	5.2092	80.51	-0.2549	0.0359	0.2908	1175.8657	0.159171	-382.046882	-382.037826	-382.036882	-382.080998	33.713	
C	-0.4857365614	 1.403626536	-0.127455446	-0.418114
C	-0.0939540708	-0.0421218338	 0.0616767347	-0.000509
N	 1.3079613942	-0.4195240724	-0.1862665195	-0.332149
C	 0.7633349431	-0.5724651279	 1.1625185652	-0.101022
C	 1.3785115065	 0.2245232744	 2.2873361705	 0.21123
C	 0.6836980726	 0.173139461	 3.6441073737	-0.289325
C	 1.9774975952	-0.554848383	 3.4570783425	-0.295345
C	 2.054659974	 1.4538435536	 1.9562923666	 0.246508
N	 2.6060910249	 2.4477714911	 1.7408148723	-0.365418
H	 0.3088699025	 2.0823233001	 0.1840597131	 0.161959
H	-0.6999633403	 1.5990025757	-1.1835642615	 0.122643
H	-1.3903463554	 1.6342967814	 0.4457529526	 0.115256
H	-0.8493793888	-0.7500395142	-0.2818081292	 0.083875
H	 1.3849818514	-1.3140002636	-0.6607100575	 0.235056
H	 0.5127999692	-1.5802570516	 1.4950733941	 0.07986
H	 0.6798675023	 1.0772356989	 4.2403736335	 0.143771
H	-0.2345917384	-0.4024537428	 3.6839134604	 0.128774
H	 1.9608457902	-1.6358102133	 3.3713908672	 0.127969
H	 2.8685258492	-0.1492492297	 3.9203050074	 0.144981
43.8879	139.4008	151.2743	198.3407	229.3825	238.4617	284.9981	384.3331	415.6865	506.6875	579.8774	603.9574	688.6134	776.8366	790.1862	833.407	878.8078	905.415	955.0814	965.0922	979.4198	1019.2473	1038.3933	1067.6915	1075.5874	1090.9523	1144.1436	1183.1762	1195.5457	1243.9672	1257.086	1280.0022	1351.0894	1403.9112	1432.6819	1466.2898	1469.4934	1494.1643	1495.2912	1505.8773	2351.8586	3039.1715	3088.9393	3096.4749	3100.2234	3141.964	3145.1672	3152.6865	3228.6184	3242.4692	3516.6497
CC1NC1C1(CC1)C#N	C[C@H]1N[C@H]1C1(CC1)C#N	
InChI=1S/C7H10N2/c1-5-6(9-5)7(4-8)2-3-7/h5-6,9H,2-3H2,1H3	InChI=1S/C7H10N2/c1-5-6(9-5)7(4-8)2-3-7/h5-6,9H,2-3H2,1H3/t5-,6-/m1/s1
