19
gdb 91212	2.0339	1.62412	1.57509	4.1005	74.54	-0.2649	0.012	0.2769	1036.5981	0.1585	-423.051107	-423.042414	-423.04147	-423.084285	32.614	
C	-0.5107703241	 1.3968242576	 0.0976073979	-0.415558
C	 0.0553923311	-0.009760919	-0.03707156	-0.024584
C	 1.3595422951	-0.2199308177	-0.8751513194	-0.261259
C	 2.0384372529	-0.8556621012	 0.3502595996	 0.069025
O	 2.7274106164	 0.1500764742	 1.1630884091	-0.264028
C	 1.6254391149	 0.322416557	 1.9713887898	 0.436362
O	 1.5260109061	 1.0390402859	 2.9160092746	-0.341378
C	 0.754800318	-0.6763056585	 1.2094196112	 0.11237
C	 0.0148016816	-1.7264242578	 2.0044944787	-0.501018
H	 0.2470122813	 2.1059231132	 0.445149968	 0.138183
H	-0.8849846355	 1.7526274316	-0.8682947652	 0.118669
H	-1.3423855755	 1.4244524451	 0.8094180476	 0.125675
H	-0.7290309233	-0.6886407474	-0.3865088807	 0.083264
H	 1.2359238538	-0.9040341654	-1.7176770549	 0.111006
H	 1.8575381585	 0.6874662883	-1.2244988881	 0.120745
H	 2.629100979	-1.7671689309	 0.2697417715	 0.096736
H	-0.7918280688	-1.2631737647	 2.5826314376	 0.14234
H	-0.4307909962	-2.4779942375	 1.3449309567	 0.121222
H	 0.6756703049	-2.2386733226	 2.7109115661	 0.132229
92.4839	134.8726	181.3023	204.2389	220.7915	241.6254	345.0712	375.3755	411.3861	520.9039	630.5303	679.2726	718.4318	774.9968	837.804	866.1766	879.554	903.0739	935.7978	973.955	1037.8321	1083.1787	1098.4372	1114.8466	1150.0961	1173.0675	1189.5766	1215.5479	1236.8776	1272.5068	1317.0568	1340.0076	1372.5782	1411.6332	1417.3631	1469.8334	1489.1197	1491.7013	1492.2454	1496.2051	1923.9451	3032.5682	3033.2768	3048.4759	3069.2881	3099.6168	3103.0916	3104.8134	3108.227	3122.5262	3130.456
CC1CC2OC(=O)C12C	C[C@H]1C[C@H]2OC(=O)[C@@]12C	
InChI=1S/C7H10O2/c1-4-3-5-7(4,2)6(8)9-5/h4-5H,3H2,1-2H3	InChI=1S/C7H10O2/c1-4-3-5-7(4,2)6(8)9-5/h4-5H,3H2,1-2H3/t4-,5+,7-/m0/s1
