19
gdb 40697	3.11606	1.27307	1.05658	1.9269	75.53	-0.259	0.0768	0.3358	1184.9307	0.158283	-422.959346	-422.95079	-422.949846	-422.993595	31.535	
C	-0.5875573864	 1.1706707211	-0.303933967	-0.233599
C	 0.7808453613	 1.2550618223	 0.3182205313	-0.276656
C	 0.1914401727	-0.0888039297	-0.0578888548	-0.034007
C	-0.1741315044	-1.0441289308	 1.0337149757	 0.038401
O	-1.2304362788	-0.6875697038	 1.9405291259	-0.253781
C	-1.4138825297	-1.8413728139	 1.1261560336	 0.023963
C	-2.5502432766	-1.8617817504	 0.150459952	 0.050474
C	-3.8373375111	-1.2226371514	 0.4635573888	-0.17724
O	-2.9455654271	-0.6674545881	-0.506007279	-0.217879
H	-1.4447844684	 1.3411255631	 0.3327545355	 0.133097
H	-0.7164651406	 1.4919431055	-1.3309975181	 0.109642
H	 1.6070550543	 1.6353544175	-0.2724083888	 0.107781
H	 0.8350724803	 1.4959648498	 1.3749620241	 0.117249
H	 0.6331050603	-0.578352954	-0.922339866	 0.08779
H	 0.6894245323	-1.4754189245	 1.5479048086	 0.090533
H	-1.3434290593	-2.7876361884	 1.6718174946	 0.0906
H	-2.560465234	-2.7523100833	-0.4818214275	 0.096985
H	-4.7615248046	-1.6395771212	 0.067140509	 0.115838
H	-3.9249878402	-0.6514232198	 1.3852511622	 0.130808
44.2903	74.0648	136.6022	182.1913	228.9605	251.3525	360.8684	520.4603	586.5835	649.7067	712.3925	771.8886	789.548	833.2893	861.7169	890.9279	913.4386	953.394	975.2896	984.9287	1045.9486	1065.0613	1078.7454	1095.1356	1108.1015	1125.2237	1146.2753	1161.6131	1168.2383	1176.357	1196.7961	1228.529	1281.6606	1295.7359	1388.2568	1409.8847	1431.5056	1464.421	1484.0798	1503.9268	1521.9605	3054.2335	3068.9414	3087.9789	3094.4456	3130.0355	3137.2019	3154.6482	3186.6603	3214.4539	3250.4177
C1CC1C1OC1C1CO1	C1CC1[C@H]1O[C@H]1[C@H]1CO1	
InChI=1S/C7H10O2/c1-2-4(1)6-7(9-6)5-3-8-5/h4-7H,1-3H2	InChI=1S/C7H10O2/c1-2-4(1)6-7(9-6)5-3-8-5/h4-7H,1-3H2/t5-,6-,7+/m1/s1
