19
gdb 52584	2.37028	0.99098	0.8114	3.5194	85.35	-0.2362	0.0113	0.2475	1512.6375	0.156336	-382.039237	-382.028283	-382.027339	-382.076655	37.274	
C	-0.0019725652	 1.5020357993	 0.0981984088	-0.503795
C	-0.0188308906	 0.0495165569	 0.0153161944	 0.185917
C	-0.0311349786	-1.1510243245	-0.0545119003	 0.026673
C	-0.0490891597	-2.6148022796	-0.1079044313	-0.323512
C	-1.4589085077	-3.1110572407	-0.0413708775	 0.286353
N	-2.5272038566	-3.5525918939	-0.040207541	-0.336844
N	 0.68345462	-3.1493591169	-1.2543420012	-0.040474
C	 0.8865378716	-4.5897580654	-1.1554373484	-0.33088
C	 0.1280345914	-2.7532085622	-2.544184792	-0.335732
H	 0.8623709459	 1.9160850601	-0.4317265169	 0.156589
H	-0.9059225062	 1.9339127	-0.343894753	 0.158155
H	 0.0539933244	 1.8356434469	 1.1397811611	 0.157037
H	 0.4496938283	-3.0013096789	 0.7915366579	 0.14913
H	-0.049502304	-5.1710168074	-1.219430496	 0.121949
H	 1.5433471975	-4.9109909438	-1.9684447248	 0.127579
H	 1.377974632	-4.8311083224	-0.207316341	 0.121972
H	 0.0329012335	-1.6657238248	-2.582216787	 0.136855
H	 0.8153866258	-3.0676668212	-3.3343962993	 0.124241
H	-0.8604344918	-3.2000090616	-2.7463442825	 0.118789
24.7373	77.0256	83.7702	113.5031	138.8833	232.94	239.263	258.4434	279.5077	342.7028	368.3112	389.7463	398.9464	488.1337	540.7665	619.6167	836.1467	853.7043	903.0861	1038.0735	1052.6576	1053.6326	1067.7233	1124.9132	1174.4146	1191.9808	1205.8642	1292.5118	1312.2257	1362.1102	1413.7169	1443.4329	1470.342	1475.2396	1476.6793	1480.8964	1496.9615	1500.8454	1516.2407	2342.5405	2381.1908	2961.1183	2967.6823	3015.1535	3033.2432	3066.9041	3081.3144	3097.122	3097.9757	3111.4107	3128.3447
CC#CC(C#N)N(C)C	CC#C[C@@H](C#N)N(C)C	
InChI=1S/C7H10N2/c1-4-5-7(6-8)9(2)3/h7H,1-3H3	InChI=1S/C7H10N2/c1-4-5-7(6-8)9(2)3/h7H,1-3H3/t7-/m0/s1
