18
gdb 12925	3.40569	1.56326	1.29468	1.1318	67.94	-0.2246	0.0628	0.2874	1008.3019	0.152681	-384.889641	-384.881543	-384.880599	-384.922152	30.471	
C	-0.0259893871	 1.4678801109	-0.2084442853	-0.373058
C	 0.0199172533	-0.0093102988	 0.1996990447	-0.214424
C	-1.3491898402	-0.6558288867	 0.1650509931	-0.050889
C	-1.9533054583	-1.2995683359	-1.064292704	-0.010955
O	-0.94592703	-1.971013514	-1.8330649227	-0.281021
C	-0.6690918102	-2.8814460788	-0.7363215847	-0.151148
C	-1.6433884233	-2.1321957295	 0.1707083994	 0.275554
O	-2.4060285899	-2.6947269485	 1.1715753424	-0.447071
H	 0.9713153407	 1.9172962182	-0.1789934796	 0.111011
H	-0.4155690542	 1.5801800049	-1.2254474682	 0.122584
H	-0.6721282365	 2.0462371097	 0.4614083697	 0.111736
H	 0.6897068492	-0.5488202218	-0.4774018514	 0.11368
H	 0.4423826384	-0.1036903147	 1.2078560454	 0.099048
H	-2.1167782901	-0.1362449512	 0.7392706656	 0.09452
H	-2.8592576509	-0.9912844972	-1.5731065935	 0.104591
H	-1.0109175567	-3.8953109335	-0.9846547457	 0.09813
H	 0.3908798402	-2.9081813993	-0.4597577554	 0.110749
H	-2.9091947143	-3.4277352537	 0.7978620501	 0.286962
66.3574	165.9553	188.0198	257.6312	278.173	307.3585	349.7119	399.3661	494.2849	584.9011	640.2951	742.7233	798.8621	845.1608	916.1853	919.1874	958.9503	985.876	1004.3992	1029.3553	1060.5579	1081.413	1121.7994	1140.0794	1147.3411	1211.5098	1261.1901	1276.5859	1306.7161	1335.416	1346.5421	1385.9844	1409.6312	1480.5462	1490.2506	1498.99	1505.3717	1516.8692	3010.6358	3029.7926	3031.7971	3067.907	3075.1976	3101.1444	3107.1471	3120.4268	3182.8556	3782.7584
CCC1C2OCC12O	CC[C@H]1[C@H]2OC[C@@]12O	
InChI=1S/C6H10O2/c1-2-4-5-6(4,7)3-8-5/h4-5,7H,2-3H2,1H3	InChI=1S/C6H10O2/c1-2-4-5-6(4,7)3-8-5/h4-5,7H,2-3H2,1H3/t4-,5+,6+/m0/s1
