17
gdb 94336	2.75721	1.23196	1.07358	4.0764	73.5	-0.2635	0.0046	0.2681	1169.0542	0.135264	-417.971231	-417.9626	-417.961656	-418.005022	31.327	
C	-0.3104367327	 1.4235625223	 0.0945666353	-0.397034
C	 0.1241149571	-0.018092974	-0.0518397833	 0.083517
O	 1.3700405053	-0.1714222152	-0.7938090815	-0.292351
C	 2.0298331521	-0.8357174115	 0.2979219938	-0.148189
C	 0.7780898055	-0.6929492467	 1.1557135522	 0.268476
N	 0.6443949649	-0.2546919427	 2.5258853487	-0.343093
C	 0.2185205069	-1.6304280636	 2.1679742709	-0.278549
C	-1.1975696299	-1.9011594262	 2.2274237389	 0.335633
N	-2.3300300101	-2.1334065635	 2.2401566903	-0.331078
H	 0.4652479137	 2.0189490372	 0.5834435933	 0.121927
H	-0.515206746	 1.8518641812	-0.8909152536	 0.130988
H	-1.2228634641	 1.481344703	 0.6957818634	 0.139421
H	-0.6686411256	-0.6228556453	-0.5111561619	 0.100256
H	 2.3264742916	-1.8626196209	 0.0489249764	 0.114572
H	 2.9096792227	-0.2827386319	 0.6547024539	 0.111091
H	 1.5330421245	-0.2876798476	 3.0216650611	 0.247679
H	 0.8447745442	-2.4649422046	 2.4733825221	 0.136734
66.8747	93.4349	158.1977	199.2412	213.0245	290.3262	346.1866	393.2017	470.7819	535.6034	577.5206	633.1602	790.3225	822.2013	873.6933	899.3846	927.12	965.5117	1013.5776	1035.398	1065.4183	1083.237	1095.9266	1142.3139	1156.9096	1193.0415	1257.0167	1279.6127	1319.2371	1363.1556	1385.5668	1405.1451	1469.5932	1485.6805	1490.5659	1516.712	2360.1942	3001.6298	3024.7954	3044.6059	3045.6783	3120.8548	3126.1952	3143.7818	3492.4384
CC1OCC11NC1C#N	C[C@H]1OC[C@]21N[C@H]2C#N	
InChI=1S/C6H8N2O/c1-4-6(3-9-4)5(2-7)8-6/h4-5,8H,3H2,1H3	InChI=1S/C6H8N2O/c1-4-6(3-9-4)5(2-7)8-6/h4-5,8H,3H2,1H3/t4-,5+,6-/m1/s1
