18
gdb 9672	4.6654	1.10608	1.01646	0.8253	64.22	-0.2638	0.0739	0.3377	1176.9977	0.151584	-422.049242	-422.040027	-422.039083	-422.083388	33.034	
C	-0.1034914865	 1.6397028846	-0.0107012751	-0.468688
C	-0.201461476	 0.1474838732	 0.2145679815	 0.350273
C	-1.3795469618	-0.5238403408	-0.473487314	-0.116444
O	-1.2679820449	-0.4273334764	-1.8828101895	-0.415427
O	 1.0193887967	-0.6070343075	 0.0278969953	-0.315299
C	 0.4322552418	-0.5554127995	 1.3433778554	-0.018226
C	 1.2858228786	 0.0880318164	 2.4083607171	-0.092364
O	 2.3712069955	-0.7552449219	 2.7580201149	-0.415438
H	 0.8674900913	 2.0335834437	 0.2910131262	 0.128672
H	-0.2497098722	 1.8490648095	-1.0740762218	 0.143439
H	-0.8862164425	 2.1653780993	 0.5468606294	 0.124084
H	-1.4455911006	-1.5718087914	-0.147355727	 0.093576
H	-2.3160576924	-0.0239720179	-0.203314939	 0.112015
H	-0.4331584291	-0.8492653942	-2.1180928895	 0.293449
H	-0.0050231469	-1.50563647	 1.6573471093	 0.093752
H	 1.6350490325	 1.0764369531	 2.0828288355	 0.095017
H	 0.6960209457	 0.2234194373	 3.3217255181	 0.11447
H	 2.8663837307	-0.9189654977	 1.9472589231	 0.293138
60.347	80.7102	155.7097	178.3043	202.8098	278.4355	331.5124	362.7953	404.8234	423.2132	449.1471	484.1879	650.0996	710.5654	824.1018	882.4571	928.9079	953.8983	1036.1645	1049.2772	1067.0901	1110.0359	1118.0014	1131.8288	1202.353	1222.596	1272.0023	1329.731	1361.473	1394.0795	1410.5525	1422.922	1425.7792	1466.8471	1489.1718	1493.8724	1496.2383	1514.0998	3000.266	3019.0624	3045.9098	3072.1512	3075.8076	3093.2278	3112.0748	3146.4529	3795.2297	3801.5003
CC1(CO)OC1CO	C[C@@]1(CO)O[C@H]1CO	
InChI=1S/C5H10O3/c1-5(3-7)4(2-6)8-5/h4,6-7H,2-3H2,1H3	InChI=1S/C5H10O3/c1-5(3-7)4(2-6)8-5/h4,6-7H,2-3H2,1H3/t4-,5-/m0/s1
