19
gdb 70433	2.88351	1.54061	1.32029	1.554	75.17	-0.2274	0.0686	0.2961	1037.9544	0.159242	-422.977558	-422.969557	-422.968613	-423.010131	31.435	
O	 0.0145604011	 1.344833712	-0.2459253959	-0.460703
C	 0.0685560315	-0.0118718331	-0.0335221596	 0.381859
C	-0.8624428302	-0.7053841748	 0.8966508406	-0.334062
C	 0.6285493274	-0.8781620171	 1.1129369956	-0.141444
C	 1.1715829685	-1.8814354722	 0.0860757333	-0.30317
C	 0.6697752626	-0.959747709	-1.0619060893	 0.369505
C	-0.0174343221	-1.3880716928	-2.3736071341	-0.36799
C	 1.1191201883	-0.6171840018	-3.0666544655	-0.074153
O	 1.7364010449	-0.2966189954	-1.79637222	-0.334102
H	 0.8315338284	 1.561072359	-0.7176517124	 0.290451
H	-1.3459088338	-0.0336833317	 1.5996154682	 0.123353
H	-1.4848853408	-1.5396349419	 0.574993553	 0.101734
H	 1.1057472664	-0.5931644448	 2.0416706786	 0.091771
H	 2.2615894818	-1.947073874	 0.0599587746	 0.117686
H	 0.7456652636	-2.8908925923	 0.1199866429	 0.092436
H	-0.0237913196	-2.464328957	-2.5546030635	 0.113176
H	-1.0232948372	-0.9895154046	-2.5176598074	 0.118988
H	 1.7897950855	-1.2089388147	-3.6993423138	 0.107626
H	 0.8186214437	 0.2859065861	-3.6100289154	 0.107039
75.1524	123.7123	199.0798	233.4188	349.1788	402.7127	433.0082	467.7897	514.092	545.1265	659.5354	777.2711	786.064	849.7431	853.2391	864.3874	902.0437	916.0075	960.877	983.2372	1001.1698	1015.9395	1023.887	1100.5156	1107.0665	1140.0576	1155.8037	1170.2467	1200.9993	1213.2363	1227.9089	1258.0256	1259.3643	1298.6764	1349.454	1379.4862	1433.4846	1472.0953	1483.3922	1509.485	1527.8016	3026.8371	3034.3603	3069.6525	3077.6783	3089.1575	3111.1394	3132.9232	3190.5167	3199.807	3743.3914
OC12CC1CC21CCO1	O[C@]12C[C@H]1C[C@]12CCO1	
InChI=1S/C7H10O2/c8-7-4-5(7)3-6(7)1-2-9-6/h5,8H,1-4H2	InChI=1S/C7H10O2/c8-7-4-5(7)3-6(7)1-2-9-6/h5,8H,1-4H2/t5-,6+,7-/m1/s1
