21
gdb 7346	4.00017	1.03072	0.98981	3.3214	76.77	-0.2387	0.0383	0.2771	1334.2409	0.187116	-366.312856	-366.30257	-366.301626	-366.349775	35.962	
C	-0.0275506693	 1.4034449844	 0.1414670301	-0.372403
C	 0.0443770327	-0.0282420142	-0.3938209513	-0.142996
N	-1.2559225825	-0.6770767829	-0.4484313008	-0.321881
C	-1.6065703892	-1.7127790731	 0.3693686179	 0.424965
O	-0.8426434664	-2.201096969	 1.186168835	-0.394019
C	-3.0355326391	-2.2367695257	 0.1932158321	-0.079996
C	-2.9819580124	-3.7119474712	-0.2336329978	-0.377694
C	-3.8004464413	-2.065604968	 1.5150094402	-0.377174
H	 0.9690953459	 1.8558452453	 0.1580489266	 0.120044
H	-0.6690250064	 2.0332523793	-0.4852730271	 0.109086
H	-0.4285628257	 1.415970956	 1.159029498	 0.132067
H	 0.4961791142	-0.0358745436	-1.393764766	 0.103567
H	 0.6611809912	-0.6526333799	 0.2558303307	 0.151364
H	-1.9501006477	-0.3064197794	-1.0764897502	 0.239875
H	-3.544507245	-1.6586626966	-0.5894623488	 0.059185
H	-2.4187655503	-4.2897164742	 0.5040503459	 0.142509
H	-3.991256547	-4.1282437623	-0.3100951068	 0.108754
H	-2.4899696788	-3.8312178729	-1.2042997281	 0.112294
H	-3.2713581247	-2.5851452382	 2.3183055219	 0.142457
H	-3.8884449982	-1.010724458	 1.7946270362	 0.110979
H	-4.8096386101	-2.4808563656	 1.4327412724	 0.109019
18.9209	33.4293	86.2056	189.1483	219.3947	239.7193	247.9795	277.9059	299.2452	341.3234	411.1989	474.6119	492.2026	650.15	770.2197	777.1596	862.5647	897.7571	930.3798	937.1088	973.8126	1067.9052	1102.3813	1114.8118	1123.5218	1173.8745	1201.295	1222.6257	1316.5194	1334.2246	1374.8751	1390.4008	1395.0814	1410.3046	1412.8638	1484.8087	1485.1064	1492.2205	1493.0013	1499.94	1502.578	1513.8659	1540.3779	1769.4532	3011.8025	3026.4025	3033.0791	3035.4966	3038.9231	3095.3796	3102.3143	3104.9574	3116.3862	3121.9027	3126.6197	3127.1033	3641.4994
CCNC(=O)C(C)C	CCNC(=O)C(C)C	
InChI=1S/C6H13NO/c1-4-7-6(8)5(2)3/h5H,4H2,1-3H3,(H,7,8)	InChI=1S/C6H13NO/c1-4-7-6(8)5(2)3/h5H,4H2,1-3H3,(H,7,8)
