16
gdb 128335	2.69506	1.57371	0.99974	3.7846	78.34	-0.1978	-0.0217	0.1761	1137.2042	0.126541	-434.104957	-434.096682	-434.095738	-434.138333	30.278	
C	 0.0005912799	 1.4135657081	 0.0422166302	-0.310395
N	 0.0623847204	-0.019554121	-0.1000994334	-0.314609
C	 0.6542765577	-0.653604467	-1.1293391833	 0.299184
N	 1.2270301885	 0.031987873	-2.0915904439	-0.333583
N	 1.7918308987	-0.7129095716	-3.0772365258	-0.218353
C	 1.8012503456	-2.0536405105	-3.1280191692	 0.046781
C	 1.2150392237	-2.8053475314	-2.1446130881	-0.271799
C	 0.5823383508	-2.1466309022	-1.0450465163	 0.345359
O	 0.0130832177	-2.6702563779	-0.0847801097	-0.423008
H	 1.0040555981	 1.854288724	 0.0885531345	 0.132929
H	-0.5228990777	 1.877091159	-0.8030420774	 0.132894
H	-0.5332501441	 1.6563612872	 0.9626654505	 0.127085
H	-0.3421803459	-0.6524435335	 0.575374025	 0.265227
H	 2.2226098025	-0.1611232556	-3.7997963033	 0.277314
H	 2.2989614973	-2.482744519	-3.9907289845	 0.132172
H	 1.2251041867	-3.8861173016	-2.1899362351	 0.112803
64.054	99.9304	155.3401	191.6741	300.5906	357.4171	455.62	495.4602	520.8323	524.3164	570.2564	601.4747	603.426	772.5465	777.904	848.4794	915.4422	937.7838	1047.0824	1086.7161	1109.0154	1163.3713	1197.5026	1242.8197	1317.6653	1336.634	1424.5412	1459.6808	1475.7889	1514.7994	1528.267	1583.1127	1610.3675	1645.3689	1714.9502	3017.5555	3061.9941	3132.0842	3193.3002	3226.6158	3602.3643	3660.8724
CNC1=NNC=CC1=O	CNc1n[nH]ccc1=O	
InChI=1S/C5H7N3O/c1-6-5-4(9)2-3-7-8-5/h2-3H,1H3,(H,6,8)(H,7,9)	InChI=1S/C5H7N3O/c1-6-5-4(9)2-3-7-8-5/h2-3H,1H3,(H,6,8)(H,7,9)
