20
gdb 48440	2.60758	1.41264	1.17056	1.8072	80.24	-0.2174	-0.025	0.1924	1145.5708	0.170074	-403.108043	-403.099292	-403.098348	-403.141627	33.045	
O	-0.9044986827	 0.8583230953	-0.4135017439	-0.279798
C	 0.0704391169	 0.9576377626	 0.2901920379	 0.137644
C	 1.2381747595	 1.9035791976	 0.1031087309	 0.234046
C	 1.5614876476	 2.5988835935	 1.4760733028	-0.257304
C	 2.6417954108	 1.5260836601	 1.7638445379	-0.214263
C	 2.5807672686	 1.1029129376	 0.2745572777	-0.257292
N	 1.2498672798	 2.8140969459	-1.0206433356	-0.136462
C	 0.7416538317	 2.444318477	-2.34028143	-0.234867
C	 0.0418044543	 3.4716074842	-1.5153630748	-0.234867
H	 0.1783383652	 0.3071171286	 1.191901676	 0.079811
H	 1.9873891386	 3.5823206615	 1.2706048247	 0.125202
H	 0.7427576499	 2.7051855858	 2.1923935966	 0.104279
H	 3.6039889541	 1.8827276636	 2.1360503885	 0.108078
H	 2.2857512365	 0.7421937593	 2.4378023701	 0.108213
H	 2.5627866958	 0.0339842829	 0.0469597804	 0.104283
H	 3.3479220748	 1.5855119954	-0.3331690443	 0.125204
H	 1.375345896	 2.7459982047	-3.1704971281	 0.10924
H	 0.2316630964	 1.4949879824	-2.4612348066	 0.13481
H	-0.919803826	 3.185192194	-1.1040064134	 0.134794
H	 0.1607696921	 4.5288285881	-1.7388976168	 0.109251
79.4294	104.9895	125.171	228.8763	239.0112	315.3948	318.4622	357.0704	454.8421	490.9114	668.5236	702.0153	784.8707	833.0196	837.1288	877.7821	897.9988	919.9074	931.1222	949.1501	986.2796	1036.7539	1067.6971	1096.718	1108.1038	1122.4755	1133.3853	1175.7979	1178.5907	1204.2454	1218.5265	1251.6457	1271.4386	1277.2689	1286.5035	1367.2361	1437.956	1468.6452	1482.3447	1482.8062	1504.9917	1508.9944	1816.86	2834.9685	3061.4041	3064.4924	3068.893	3107.9917	3111.0549	3115.0358	3128.9603	3135.9998	3206.2703	3217.7717
O=CC1(CCC1)N1CC1	O=CC1(CCC1)N1CC1	
InChI=1S/C7H11NO/c9-6-7(2-1-3-7)8-4-5-8/h6H,1-5H2	InChI=1S/C7H11NO/c9-6-7(2-1-3-7)8-4-5-8/h6H,1-5H2
