18
gdb 7323	4.56787	1.05497	0.87145	1.8056	70.65	-0.247	-0.0497	0.1973	1322.6909	0.152376	-381.158266	-381.148839	-381.147895	-381.193156	33.42	
C	-0.0240686416	 1.5524829111	 0.0504208123	-0.385812
C	-0.0011249964	 0.02257261	 0.0118896586	-0.167792
C	-1.4028932021	-0.5817477199	 0.083548875	-0.277063
C	-1.4123367445	-2.0912446463	 0.0550553906	 0.372148
O	-0.4041376965	-2.7657581982	 0.0089578877	-0.326951
C	-2.7707472447	-2.7891226568	 0.0776133868	 0.262542
N	-2.6493493927	-4.144635154	 0.1797949826	-0.533324
N	-3.8254641145	-2.0648589462	 0.0219846893	-0.510956
H	 0.9882794627	 1.9643654648	-0.0038922699	 0.113096
H	-0.5966781399	 1.9637214674	-0.788439656	 0.114681
H	-0.4844843654	 1.9210027682	 0.9739960614	 0.114434
H	 0.4941991627	-0.323492117	-0.9022300717	 0.10756
H	 0.6022482017	-0.3665877005	 0.8393440231	 0.108834
H	-1.9347062446	-0.2653792063	 0.9907168355	 0.137744
H	-2.0453077224	-0.2282118521	-0.7321621224	 0.143062
H	-1.7211122613	-4.5154412757	 0.0406271548	 0.270087
H	-3.4357712699	-4.7370442721	-0.0243089472	 0.252271
H	-4.6755597605	-2.6331886065	 0.0353164894	 0.20544
49.4233	66.436	103.8909	136.0247	244.2644	299.0728	308.0619	330.0155	401.3316	412.0381	526.1806	547.6385	616.249	658.2878	759.6274	816.7679	871.2864	891.5943	908.963	1048.8098	1052.6638	1104.7678	1107.9785	1137.3952	1151.5163	1240.695	1314.6293	1318.0737	1392.1476	1414.0497	1433.0173	1435.447	1487.9629	1499.8926	1508.7489	1598.5043	1718.9231	1787.3925	3029.193	3035.8817	3045.8758	3059.2695	3076.6817	3099.8079	3103.5452	3440.4606	3580.0695	3714.925
CCCC(=O)C(N)=N	CCCC(=O)C(=N)N	
InChI=1S/C5H10N2O/c1-2-3-4(8)5(6)7/h2-3H2,1H3,(H3,6,7)	InChI=1S/C5H10N2O/c1-2-3-4(8)5(6)7/h2-3H2,1H3,(H3,6,7)
