23
gdb 106520	3.00567	1.3577	1.17722	1.174	84.68	-0.239	0.0777	0.3167	1172.5619	0.207963	-388.287227	-388.278802	-388.277858	-388.319908	33.801	
C	-0.238767811	 1.3462071492	-0.0105425298	-0.26017
O	 0.1984743835	 0.0070354632	-0.0782394274	-0.301099
C	 0.7378724708	-0.5157661505	 1.11156702	 0.455553
C	-0.1525708543	-0.5907474799	 2.3948208783	-0.294691
C	 0.5852189342	-1.9345505515	 2.6786451007	-0.017961
C	 0.7859230582	-2.0573645049	 1.1431884377	-0.26461
C	 1.9454091085	-1.6913695742	 3.35451117	-0.199393
C	 2.5467436321	-0.3427789994	 2.8944070535	-0.204425
C	 2.1387659245	 0.0337488762	 1.4501710041	-0.261619
H	 0.5865371984	 2.058128558	 0.1346726654	 0.105711
H	-0.7217790967	 1.5711744897	-0.9647303096	 0.124399
H	-0.9691534007	 1.497285177	 0.7979842724	 0.106598
H	-0.0984626511	 0.2089820537	 3.1379315475	 0.087824
H	-1.1960467236	-0.7650932011	 2.1196856981	 0.100193
H	 0.0179218756	-2.7249480948	 3.1738904085	 0.062688
H	-0.0920425704	-2.4748561299	 0.6441426106	 0.098549
H	 1.692335299	-2.5487077197	 0.7763547007	 0.08541
H	 1.8416977695	-1.6902493796	 4.4456610196	 0.09103
H	 2.6150369021	-2.5243301101	 3.1068120111	 0.095738
H	 2.1862606653	 0.441710766	 3.5680122722	 0.103198
H	 3.6362002922	-0.3455550946	 2.9977853444	 0.093992
H	 2.8460533494	-0.3674177456	 0.7148781543	 0.101108
H	 2.1613942946	 1.1235403528	 1.3445628578	 0.091977
91.5509	168.7412	182.3574	215.8221	298.9573	343.2561	404.8026	420.6146	464.3482	494.3062	566.4526	642.5937	762.4388	815.1047	841.3796	874.1457	887.0921	919.8911	938.2177	943.838	993.8701	1000.3332	1041.6226	1057.9742	1095.3612	1111.4606	1121.491	1167.9567	1181.7409	1193.4023	1217.2817	1223.2469	1235.5104	1247.5343	1263.7872	1286.1378	1310.8131	1331.3622	1355.5005	1366.0388	1383.4066	1474.5201	1478.708	1489.1413	1493.6989	1494.9436	1499.3352	1509.4129	1524.0069	2986.3644	3023.5454	3030.3845	3036.2315	3039.1518	3047.831	3058.323	3060.0729	3070.2887	3084.139	3087.1641	3110.5094	3111.268	3114.2123
COC12CC(C1)CCC2	CO[C@@]12C[C@@H](C1)CCC2	
InChI=1S/C8H14O/c1-9-8-4-2-3-7(5-8)6-8/h7H,2-6H2,1H3	InChI=1S/C8H14O/c1-9-8-4-2-3-7(5-8)6-8/h7H,2-6H2,1H3/t7-,8-
