21
gdb 80138	2.35052	1.603	1.28736	0.05	90.58	-0.2288	0.0241	0.253	1109.4536	0.184463	-349.953766	-349.945443	-349.944499	-349.986573	32.736	
C	-0.5099167864	 1.2561264212	-0.2550477849	-0.39905
C	-0.0818823815	-0.1681057011	 0.0068231188	-0.019156
C	 1.3580726493	-0.6299870283	-0.2085218974	-0.099758
C	 2.3946014176	 0.2488131828	-0.7910012007	-0.064015
C	 3.1799163679	 1.1618937109	-0.2184976788	-0.059812
C	 3.2866919084	 1.6205466595	 1.2088208412	-0.30819
C	 2.2207494569	 1.3245812154	 2.2263207058	-0.059743
C	 1.2151688588	 0.4488608651	 2.2156784082	-0.064063
C	 0.808863925	-0.5370732887	 1.1915077132	-0.099872
H	 0.2753035895	 1.9682780447	 0.005869939	 0.128846
H	-0.7559609286	 1.4000981742	-1.3129772618	 0.11234
H	-1.4005692492	 1.5085100755	 0.3310157849	 0.112362
H	-0.8385577859	-0.9086737542	-0.2411681311	 0.082521
H	 1.4277494422	-1.6473630004	-0.5895948022	 0.086256
H	 2.5283465563	 0.1013576929	-1.862771766	 0.080371
H	 3.8860597916	 1.6714759275	-0.8731715369	 0.082153
H	 4.2498201074	 1.2590451555	 1.6108372974	 0.125894
H	 3.4229287262	 2.7127678873	 1.1894852343	 0.114132
H	 2.3188301451	 1.9374771914	 3.1216747574	 0.082152
H	 0.5810409978	 0.4318577671	 3.1022005011	 0.080375
H	 0.5564005816	-1.4998572985	 1.6324397287	 0.086255
72.909	154.3391	172.9767	193.3507	337.2695	368.8265	390.1803	400.9091	510.9286	523.9546	717.5371	718.8614	751.8907	791.7464	793.4792	838.1534	860.6493	872.4313	943.5388	963.6934	980.0523	1009.528	1018.6663	1027.8218	1089.5349	1091.2419	1109.9553	1150.5663	1167.255	1231.2335	1244.7715	1271.0256	1287.3193	1377.2729	1378.8611	1406.6086	1420.0966	1436.5131	1450.2325	1451.6105	1457.9908	1489.5183	1501.3172	1742.967	1748.5475	2958.7134	2995.1378	3032.6282	3086.6143	3102.5434	3107.2878	3113.2381	3115.1139	3125.6797	3136.0843	3137.5059	3141.1666
CC1C2C=CCC=CC12	C[C@H]1[C@H]2C=CCC=C[C@@H]12	
InChI=1S/C9H12/c1-7-8-5-3-2-4-6-9(7)8/h3-9H,2H2,1H3	InChI=1S/C9H12/c1-7-8-5-3-2-4-6-9(7)8/h3-9H,2H2,1H3/t7-,8+,9-
