20
gdb 40279	2.93175	1.39419	1.06465	1.9631	82.79	-0.2253	0.0123	0.2377	1170.6822	0.173369	-403.120552	-403.112613	-403.111669	-403.153154	31.336	
C	 0.6575240745	 1.5149679023	 0.0640530462	-0.264913
N	 1.4617099234	 0.2910812878	 0.1063449601	-0.355675
C	-0.0130449315	 0.1771789863	 0.0116275039	 0.288661
C	-0.586275613	-0.4067202602	 1.2920402348	-0.149039
O	-1.9744008377	-0.2162878498	 1.4628912765	-0.239091
C	-2.7772541844	-1.1458608755	 0.7631588435	-0.075006
C	-3.0325416905	-0.773720687	-0.6977400273	-0.263669
C	-1.830324231	-0.627538067	-1.5943528628	-0.073901
C	-0.5944722912	-0.2176263558	-1.2974837046	-0.117119
H	 0.633977145	 2.0867073011	 0.9883949812	 0.123383
H	 0.6609788927	 2.1157469451	-0.8417104263	 0.112998
H	 1.8841269974	 0.1139671829	-0.8020285716	 0.230577
H	-0.3426735866	-1.4808597634	 1.3252428491	 0.092496
H	-0.0925062981	 0.0711675325	 2.1427327056	 0.108669
H	-2.3258311674	-2.1493974806	 0.8194863678	 0.089813
H	-3.7360529342	-1.1810995803	 1.2922561219	 0.102415
H	-3.7044507417	-1.532393142	-1.1199522369	 0.101939
H	-3.5994468679	 0.1690142494	-0.7223652193	 0.122966
H	-2.0308382229	-0.8226964709	-2.6461214998	 0.088858
H	 0.1006063852	-0.1090248149	-2.1310982521	 0.075639
63.1405	149.6113	251.4285	298.7994	314.8378	328.2048	426.5739	450.2304	495.8919	564.6564	649.5855	736.5565	773.7182	816.1187	867.2786	910.2666	921.6583	944.5574	976.2915	986.0451	1003.195	1039.1628	1060.1854	1078.9853	1093.8761	1132.4392	1159.3914	1234.3429	1254.4956	1259.2765	1280.7352	1320.989	1349.7335	1372.6666	1387.2182	1401.9446	1427.9904	1447.4088	1461.4312	1482.5284	1497.4913	1510.2317	1725.2441	2973.9685	2980.4766	3001.3136	3043.8152	3064.1833	3087.5405	3103.387	3108.5351	3146.0685	3189.942	3494.4927
C1NC11COCCC=C1	C1N[C@]21COCCC=C2	
InChI=1S/C7H11NO/c1-2-4-9-6-7(3-1)5-8-7/h1,3,8H,2,4-6H2	InChI=1S/C7H11NO/c1-2-4-9-6-7(3-1)5-8-7/h1,3,8H,2,4-6H2/t7-/m1/s1
