21
gdb 78764	2.48108	1.62591	1.32568	1.448	82.44	-0.2223	0.0896	0.3119	1098.8465	0.180501	-387.04855	-387.039609	-387.038665	-387.081353	35.095	
C	 0.0332842147	 1.588055765	 0.0454554184	-0.420781
C	 0.0612535681	 0.0694014812	-0.0391293056	-0.006861
C	 0.7716980657	-0.6346289596	-1.1974425226	-0.179509
C	 1.2263679555	-1.7799828547	-0.2926792952	-0.267184
C	 2.2380025335	-0.7826845427	-0.7429660622	 0.485026
C	 3.4339594943	-0.8602102223	-1.6285353429	-0.506347
O	 2.3533053055	-0.1302752607	 0.5270309979	-0.359303
C	 1.0596681867	-0.7254863764	 0.8678936697	 0.408033
C	 0.8621430264	-0.9549210079	 2.3336589267	-0.511645
H	 1.0495289988	 1.9882602233	 0.0173365458	 0.131202
H	-0.5314117631	 2.0154201782	-0.7904609624	 0.108827
H	-0.4448366701	 1.9267379827	 0.9717918244	 0.107963
H	-0.9400872524	-0.3595245787	 0.084111538	 0.068711
H	 0.4786499743	-0.6872109711	-2.2393337904	 0.080913
H	 1.1397304499	-2.8559224296	-0.361037667	 0.092405
H	 3.1995651435	-1.4308697991	-2.5321215054	 0.124727
H	 3.7570790683	 0.1412662962	-1.9326859977	 0.131235
H	 4.2690269769	-1.3495599798	-1.1173216639	 0.129302
H	 0.8906186221	-0.001841746	 2.8730149208	 0.132466
H	-0.1069439925	-1.4275882795	 2.5207456662	 0.121099
H	 1.6498764838	-1.5979246486	 2.7366667671	 0.12972
161.1085	189.1381	192.9747	197.6265	203.659	239.4206	279.352	354.827	368.9169	567.3426	582.4816	615.5033	635.3868	740.8467	764.1299	806.8446	821.8487	851.3636	890.0349	903.7724	923.6231	970.9012	1009.6845	1037.63	1087.1981	1091.4277	1100.3425	1132.1485	1145.9426	1149.8905	1195.5695	1245.86	1259.7698	1332.7326	1380.5292	1399.8361	1400.9159	1416.8563	1460.9189	1474.254	1480.4244	1488.275	1492.7414	1501.2186	1503.2925	3029.7981	3034.2191	3036.3333	3043.1919	3088.501	3099.2082	3106.2734	3113.4865	3115.7963	3126.44	3184.5293	3204.2709
CC1C2C3C2(C)OC13C	C[C@H]1[C@@H]2[C@H]3[C@]2(C)O[C@@]13C	
InChI=1S/C8H12O/c1-4-5-6-7(4,2)9-8(5,6)3/h4-6H,1-3H3	InChI=1S/C8H12O/c1-4-5-6-7(4,2)9-8(5,6)3/h4-6H,1-3H3/t4-,5+,6+,7-,8+/m0/s1
