20
gdb 22176	2.19815	1.47257	1.09579	1.3838	77.73	-0.2482	0.0025	0.2506	1183.9545	0.169719	-440.26684	-440.257451	-440.256507	-440.300729	36.	
C	 0.1115022597	 1.58578526	-0.025396129	-0.419167
C	-0.0254089069	 0.0539972147	 0.0299232838	 0.322575
O	-1.3971576873	-0.3026043362	 0.0985178123	-0.483936
C	 0.6431015033	-0.6363501795	-1.1765682341	-0.242598
C	 2.124441536	-0.784941741	-0.7768397754	-0.230276
C	 2.0888070147	-1.0986769982	 0.7361946643	-0.305104
C	 0.7786716355	-0.5138439444	 1.1995501237	 0.370972
N	 0.2698787737	-0.4895707519	 2.3623888408	-0.249337
O	 1.1126923345	-1.0772615022	 3.3195054447	-0.393132
H	 1.1539524003	 1.903302476	-0.1351479958	 0.111107
H	-0.4622155815	 1.9693623523	-0.8741114293	 0.12261
H	-0.2806746184	 2.0287038189	 0.8947551061	 0.120829
H	-1.6464070847	-0.2493766153	 1.0294550799	 0.28317
H	 0.1756319935	-1.6196164756	-1.2942098072	 0.112225
H	 0.5003219514	-0.0829278954	-2.108273998	 0.100383
H	 2.6380807179	-1.5577312721	-1.3535043993	 0.104315
H	 2.6608827879	 0.1535853059	-0.9533361919	 0.107722
H	 2.0773847648	-2.1787336525	 0.929183218	 0.133616
H	 2.9383907783	-0.6995718998	 1.2979429921	 0.127732
H	 0.5967013972	-0.9957276139	 4.1288150842	 0.306293
56.0607	167.4794	189.8237	197.5175	259.6765	287.415	328.3123	349.0905	354.377	391.2859	456.9346	545.9607	564.13	589.6432	606.3078	748.5462	834.0523	837.7339	912.9648	938.7461	951.0136	987.6459	1012.6029	1020.4146	1084.3641	1110.9723	1143.2038	1197.9497	1214.739	1236.0369	1264.2678	1301.2695	1332.4715	1341.7987	1387.9969	1397.5901	1407.4754	1461.5155	1482.1153	1490.3174	1497.672	1507.2535	1759.5038	3034.1806	3038.2252	3048.4281	3053.5121	3085.4709	3099.2195	3106.3685	3109.8578	3118.9006	3780.9927	3816.7367
CC1(O)CCCC1=NO	C[C@@]1(O)CCCC1=NO	
InChI=1S/C6H11NO2/c1-6(8)4-2-3-5(6)7-9/h8-9H,2-4H2,1H3	InChI=1S/C6H11NO2/c1-6(8)4-2-3-5(6)7-9/h8-9H,2-4H2,1H3/t6-/m1/s1
