21
gdb 95585	2.28058	1.59839	1.15389	2.1712	80.07	-0.2459	0.015	0.2609	1150.8339	0.183089	-424.230087	-424.221195	-424.220251	-424.263563	34.433	
C	-0.2751085695	 1.434115434	-0.0009436076	-0.398058
C	 0.0834870618	-0.0466976852	 0.0368429154	 0.092331
O	 0.9335079677	-0.2986542497	-1.0843702196	-0.264068
C	 0.8673407161	-1.5969298547	-1.6413331802	-0.131928
C	 1.3932172829	-2.7298014995	-0.7977840252	-0.067374
C	 1.4156434218	-2.8561437219	 0.5295162479	-0.053168
C	 0.8883582728	-1.9357770547	 1.6024714442	-0.283248
C	 0.8469685709	-0.4258858999	 1.3225507	 0.131127
O	 2.1478316993	 0.1347862362	 1.2804730384	-0.441423
H	 0.6252185876	 2.0377006372	 0.1405770735	 0.137469
H	-0.726645944	 1.6927885238	-0.961904182	 0.116714
H	-0.9835359606	 1.6777020801	 0.7966806782	 0.113114
H	-0.8287753119	-0.6568708137	-0.0496939868	 0.06711
H	-0.1721853758	-1.8188991269	-1.9449992632	 0.103542
H	 1.4531665629	-1.5389342105	-2.5655209378	 0.115747
H	 1.7761842426	-3.5610592715	-1.3882043505	 0.088915
H	 1.8308521696	-3.7849445303	 0.9174662254	 0.090906
H	-0.127448141	-2.2686289543	 1.870287704	 0.10579
H	 1.4900896275	-2.0744109373	 2.5076247399	 0.113541
H	 0.3421440684	 0.0453178025	 2.1752925857	 0.078311
H	 2.4563658111	-0.0057370135	 0.3749744003	 0.284648
58.3801	129.0618	210.5012	224.6779	300.7064	316.316	334.0385	367.1883	403.3505	440.9965	466.8736	594.9133	666.2289	723.1537	757.243	844.6321	859.5834	869.4447	920.0523	963.3747	1007.3232	1013.7728	1036.0143	1061.3379	1070.3051	1132.1003	1156.4181	1160.91	1229.7769	1257.4191	1286.04	1300.9368	1320.5191	1365.489	1377.0905	1396.0474	1406.7635	1411.0982	1432.3196	1443.8925	1462.7004	1480.0109	1486.0578	1498.6178	1736.6279	2938.5534	2982.408	2989.0375	3031.4606	3046.8297	3058.7899	3060.5615	3119.6879	3124.4139	3131.1526	3148.4083	3755.3162
CC1OCC=CCC1O	C[C@H]1OCC=CC[C@H]1O	
InChI=1S/C7H12O2/c1-6-7(8)4-2-3-5-9-6/h2-3,6-8H,4-5H2,1H3	InChI=1S/C7H12O2/c1-6-7(8)4-2-3-5-9-6/h2-3,6-8H,4-5H2,1H3/t6-,7-/m1/s1
