16
gdb 37273	4.08209	1.89802	1.72029	1.923	67.85	-0.2417	0.0777	0.3195	800.8839	0.127927	-400.66716	-400.66178	-400.660835	-400.696612	23.518	
O	-0.0337153929	 1.4553120788	-0.0674222057	-0.261858
C	 1.2567165174	 0.8291810513	 0.0356419842	 0.031007
C	 0.0288122485	 0.0232561308	 0.0473802351	 0.031008
C	-0.0340405723	-0.6877200663	-1.2930897773	-0.082798
C	 1.1161584822	-1.6813296991	-1.5277720673	-0.05733
C	 2.3669682491	-0.8603706174	-1.539728694	-0.05733
C	 1.9160522505	 0.5922090665	-1.3117314904	-0.082798
C	 0.7776333861	 0.1868809355	-2.2826700827	-0.003972
N	 1.5758201852	-1.036799769	-2.8022894245	-0.175914
H	 1.8254315551	 1.0610085076	 0.9316673228	 0.100033
H	-0.398096912	-0.3983875856	 0.9529229497	 0.100033
H	-1.009259474	-1.0301805992	-1.6375384309	 0.08579
H	 1.119436314	-2.7580619931	-1.404545613	 0.097745
H	 3.3551044467	-1.290697961	-1.4259165128	 0.097745
H	 2.6135110698	 1.3475966679	-1.6721711781	 0.08579
H	 0.3176959867	 0.8774470423	-2.982427675	 0.092849
275.4595	333.9822	474.238	499.3147	692.8705	709.208	779.2824	789.8192	823.196	838.0291	852.4244	861.5111	871.3736	908.0243	925.0953	969.0549	1003.6961	1003.7464	1012.2577	1028.8512	1040.8072	1062.4798	1109.0646	1136.051	1143.4078	1189.4797	1224.2054	1234.0753	1252.5751	1269.2287	1306.6598	1317.3546	1337.978	1364.1643	1421.8672	3121.6167	3122.427	3150.4839	3162.2406	3169.1777	3177.4244	3189.0494
O1C2C1C1C3C4C2C1N34	O1[C@H]2[C@@H]1[C@@H]1[C@@H]3[C@@H]4[C@H]2[C@H]1N34	
InChI=1S/C7H7NO/c9-6-1-3-2(7(6)9)5-4(1)8(3)5/h1-7H	InChI=1S/C7H7NO/c9-6-1-3-2(7(6)9)5-4(1)8(3)5/h1-7H/t1-,2+,3-,4+,5-,6-,7+,8?
