19
gdb 31803	4.44279	0.9425	0.83456	1.2421	87.11	-0.2114	0.002	0.2134	1413.1558	0.160536	-385.968786	-385.960281	-385.959337	-386.002371	32.637	
C	-0.0735820054	 1.5447139654	 0.081403435	-0.361959
C	 0.0243394587	 0.0104690274	 0.0182812466	-0.290932
C	 0.7129720017	-0.4874860041	-1.2322762438	 0.298665
C	-0.0064573333	-0.7297547263	-2.4077004197	-0.176713
C	 0.6187244503	-1.156114834	-3.5726528365	-0.180925
C	 2.0001151254	-1.3524363877	-3.5848836576	 0.379358
O	 2.5701138955	-1.7759566505	-4.7503249841	-0.444327
C	 2.7377503115	-1.1188083233	-2.4243063175	-0.249779
C	 2.0938236643	-0.6919733568	-1.2661981777	-0.17332
H	 0.9212943504	 2.0011457098	 0.05983364	 0.117803
H	-0.6346595104	 1.9365085302	-0.7731672057	 0.11898
H	-0.5777025082	 1.8702313691	 0.9972797275	 0.109273
H	 0.5631920346	-0.3520494207	 0.9015880937	 0.099424
H	-0.9840522407	-0.4162631648	 0.0751058073	 0.100773
H	-1.0835164906	-0.586116506	-2.4110123991	 0.089054
H	 0.0541445186	-1.3471601632	-4.4782067191	 0.100599
H	 3.5188175133	-1.8714965455	-4.6177391841	 0.294887
H	 3.8135564538	-1.2763387334	-2.4243646996	 0.080723
H	 2.6819486906	-0.5195374758	-0.3690729855	 0.088415
42.6338	103.3727	217.619	230.4747	324.8757	362.1823	395.1924	420.5338	426.9894	478.3293	559.1307	653.8245	724.8783	748.9059	789.053	822.1737	848.2902	852.0181	927.2297	953.2921	972.6768	1026.3209	1062.8311	1081.6488	1133.6982	1195.085	1197.1672	1229.6986	1273.1837	1300.4723	1347.6842	1354.1242	1364.8811	1408.5051	1470.1698	1486.1065	1496.1823	1507.5537	1549.5404	1632.3203	1658.5438	3027.8309	3031.9607	3062.1489	3103.3215	3107.3751	3149.142	3163.1944	3170.5342	3198.7225	3823.3823
CCC1=CC=C(O)C=C1	CCc1ccc(O)cc1	
InChI=1S/C8H10O/c1-2-7-3-5-8(9)6-4-7/h3-6,9H,2H2,1H3	InChI=1S/C8H10O/c1-2-7-3-5-8(9)6-4-7/h3-6,9H,2H2,1H3
