14
gdb 5377	5.27957	1.66068	1.2733	0.8092	69.63	-0.2304	-0.0542	0.1762	910.3923	0.10815	-378.749129	-378.742016	-378.741072	-378.781174	25.215	
C	-0.0059807599	 1.4511383133	-0.0066843275	-0.323413
N	-0.0122398061	-0.000116429	 0.0245185147	-0.315241
C	 0.5269196547	-0.6450655834	-0.9165741755	 0.410911
O	 1.1358009931	 0.0342645121	-1.9992194466	-0.230407
C	 1.7074265022	-0.6671810813	-2.9966269695	 0.142536
N	 1.7804198753	-1.9350093093	-3.1074139218	-0.281068
C	 1.198097902	-2.6644153114	-2.0709949685	-0.007945
C	 0.5946170534	-2.0866865799	-1.015630714	-0.165577
H	 1.0136319336	 1.8594526308	-0.0270378473	 0.1228
H	-0.5255276492	 1.8468128271	-0.8900336126	 0.12291
H	-0.5096676034	 1.8290927534	 0.8856218569	 0.123413
H	 2.1279274048	-0.0034515768	-3.7469452155	 0.145146
H	 1.2637200617	-3.7423003028	-2.1714754476	 0.125869
H	 0.1434771877	-2.6542391525	-0.2125808754	 0.130067
50.7652	119.2601	210.413	225.2712	368.4991	441.3482	541.7282	586.288	656.5584	745.3712	761.266	853.021	951.6149	962.0681	977.5498	1004.6916	1060.0128	1107.6517	1149.6886	1153.3194	1208.3481	1247.2646	1405.732	1428.6991	1440.5775	1485.5254	1499.4008	1614.6453	1675.6794	1768.8902	3000.2585	3049.1075	3110.9633	3187.0065	3193.1668	3230.8887
CN=C1OC=NC=C1	CN=c1ocncc1	
InChI=1S/C5H6N2O/c1-6-5-2-3-7-4-8-5/h2-4H,1H3	InChI=1S/C5H6N2O/c1-6-5-2-3-7-4-8-5/h2-4H,1H3
