23
gdb 95168	2.55475	1.39674	1.06211	1.346	85.03	-0.2207	0.079	0.2997	1246.6967	0.206416	-388.289482	-388.280496	-388.279551	-388.322567	35.686	
C	-0.017718723	 1.5509355613	-0.0222704262	-0.404401
C	 0.0008985531	 0.021034849	-0.0191034589	 0.020337
C	 0.6901751069	-0.5306899345	-1.2678728682	-0.079373
O	 0.574684771	-1.9406351091	-1.3673111679	-0.257457
C	 0.9311855819	-2.6630711638	-0.2244679157	 0.098728
C	 2.2511746758	-2.4871346508	 0.4814175766	-0.372323
C	 0.952457318	-2.0495435951	 1.1541885822	 0.301571
C	 0.440411964	-2.873975701	 2.3180586146	-0.470717
C	 0.6821702016	-0.5421593153	 1.2418472568	-0.289754
H	 1.0002311671	 1.9575943481	-0.05258211	 0.114335
H	-0.5602291459	 1.9440025296	-0.8887044826	 0.113328
H	-0.500901214	 1.9403818774	 0.8798766646	 0.115283
H	-1.0334330363	-0.3482741456	-0.0453050161	 0.079851
H	 0.2248793236	-0.1383732812	-2.1774060057	 0.104773
H	 1.7492523291	-0.2197984169	-1.2814266175	 0.085054
H	 0.5486628582	-3.6745978952	-0.3218100364	 0.093653
H	 2.7557873	-3.3757952249	 0.8471929697	 0.104676
H	 2.9215136642	-1.7060900185	 0.137474756	 0.109144
H	 0.6462774949	-3.9399578822	 2.1759581071	 0.111606
H	 0.9176391209	-2.5679394226	 3.2572819314	 0.114636
H	-0.6428309947	-2.7567541562	 2.4419203611	 0.114882
H	 1.62012518	 0.0017424124	 1.4166956655	 0.095746
H	 0.0484615537	-0.338170125	 2.1123290798	 0.096421
92.2209	175.8556	223.9868	234.3035	250.3843	282.8849	347.6664	369.9484	387.9592	415.8016	472.8304	498.923	606.4832	749.3261	790.4183	850.4621	876.412	880.7215	928.0348	946.0328	964.3926	990.0657	1011.565	1034.0816	1056.856	1078.1325	1099.0192	1133.1589	1146.1083	1177.5278	1204.621	1222.0545	1273.3405	1306.1834	1321.3368	1330.9728	1345.4778	1381.6526	1403.2799	1414.0242	1414.4278	1429.6437	1479.3018	1491.5751	1493.9092	1498.4237	1499.3868	1503.639	1511.7012	2957.0264	3008.7321	3015.5118	3018.9387	3026.1468	3059.5943	3075.3718	3075.6066	3091.4151	3093.4447	3098.507	3125.1279	3153.5066	3210.864
CC1COC2CC2(C)C1	C[C@H]1CO[C@H]2C[C@@]2(C)C1	
InChI=1S/C8H14O/c1-6-3-8(2)4-7(8)9-5-6/h6-7H,3-5H2,1-2H3	InChI=1S/C8H14O/c1-6-3-8(2)4-7(8)9-5-6/h6-7H,3-5H2,1-2H3/t6-,7+,8-/m1/s1
