17
gdb 74978	2.66978	1.72954	1.7105	1.2353	68.63	-0.2321	0.0236	0.2558	905.7331	0.139727	-455.155197	-455.148198	-455.147254	-455.186232	28.302	
N	 0.0102622884	 1.3164103133	 0.1106258924	-0.597046
C	-0.031967914	-0.0480217481	 0.0217592277	 0.401316
N	-1.1222314067	-0.7270758187	 0.0117748617	-0.297244
C	-0.7748875348	-2.1525197852	-0.003852681	-0.060651
C	 0.0819244001	-2.4348370017	-1.2491245048	-0.065367
O	 1.2679794632	-1.6238950324	-1.1786287301	-0.266396
C	 1.2609560189	-0.8469042748	 0.0016659746	 0.103157
O	 1.2854426901	-1.6642379056	 1.1525095663	-0.263434
C	 0.0927060337	-2.4638882933	 1.2260555067	-0.064777
H	 0.8215128399	 1.7849073781	-0.2596176039	 0.257817
H	-0.8680847196	 1.78731099	-0.05445684	 0.258315
H	-1.680802997	-2.7629902103	-0.0078916647	 0.081259
H	 0.3842679977	-3.4887694271	-1.2941072307	 0.103875
H	-0.4680379718	-2.181177738	-2.1628334016	 0.107179
H	 2.1785977021	-0.2564892804	 0.0070519767	 0.088357
H	-0.4443534467	-2.2197519298	 2.1500434295	 0.109344
H	 0.3860128463	-3.520881926	 1.2501290611	 0.104296
159.6337	201.8091	320.8766	344.9016	387.2909	422.3009	452.7618	520.7238	575.3121	590.9206	677.2855	765.3335	846.0601	854.1532	895.2876	935.248	950.178	968.3865	981.623	1043.0862	1080.3041	1091.7798	1134.2802	1183.3609	1220.1273	1246.1173	1299.939	1309.1553	1326.3237	1340.151	1388.244	1393.659	1450.6374	1506.4323	1518.646	1626.1657	1707.2244	3015.8204	3019.0202	3061.0375	3064.4569	3086.0489	3108.8372	3570.8256	3691.1393
NC1=NC2COC1OC2	N[C]1[N][C@H]2CO[C@@H]1OC2	
InChI=1S/C5H8N2O2/c6-4-5-8-1-3(7-4)2-9-5/h3,5H,1-2H2,(H2,6,7)	InChI=1S/C5H8N2O2/c6-4-5-8-1-3(7-4)2-9-5/h3,5H,1-2H2,(H2,6,7)/t3-,5+
