21
gdb 100338	2.63825	1.12987	0.97906	1.7615	80.01	-0.2535	0.0446	0.298	1302.4988	0.178492	-424.179552	-424.168728	-424.167784	-424.214934	39.867	
C	 0.0461957216	 1.2917699398	 0.1477280558	-0.258751
O	-0.1224817459	-0.0835033583	-0.1501565248	-0.28497
C	 0.6248086241	-0.633865898	-1.2471296599	 0.306788
C	 0.488890218	-2.1473373988	-1.080884526	-0.406997
C	-0.038276468	-0.1657853175	-2.5611290015	-0.068952
O	-1.4255268398	-0.4200270139	-2.550810213	-0.42908
C	 2.1132058584	-0.2007611125	-1.2430213079	-0.422941
C	 2.8281971458	-0.5138589451	-0.0129743833	 0.327572
C	 3.4147715743	-0.7626359856	 1.0062143197	-0.446308
H	 1.0468575242	 1.5042289562	 0.5431573011	 0.127721
H	-0.1436692708	 1.9430568251	-0.7165008261	 0.111083
H	-0.6880836713	 1.5268640698	 0.9222182744	 0.131507
H	-0.5630934868	-2.4318461183	-1.1426098838	 0.130651
H	 1.0336123706	-2.6705050686	-1.8726595391	 0.110545
H	 0.8890158354	-2.4561750496	-0.1133121604	 0.134467
H	 0.1695477571	 0.9056497328	-2.7218712572	 0.079822
H	 0.3912612627	-0.7086781852	-3.4101251296	 0.106089
H	-1.7171829762	-0.2112782199	-1.6533093099	 0.287468
H	 2.6026687091	-0.6967835041	-2.0903611372	 0.1371
H	 2.1864307466	 0.8750166728	-1.4435472428	 0.129693
H	 3.9347403207	-0.9868762011	 1.9044542717	 0.197493
77.5287	104.7499	121.3423	147.7376	206.9188	222.7339	252.5514	292.1504	327.2825	352.0219	363.1472	393.9301	414.9942	484.0926	500.7246	626.6988	635.2797	658.2158	748.3427	862.1661	883.7394	940.3554	957.9185	997.7957	1090.0904	1103.3848	1143.1428	1176.4673	1182.5835	1187.916	1213.8468	1247.0277	1300.4202	1345.0108	1367.5521	1410.0142	1437.5199	1463.9278	1476.6322	1486.807	1493.6823	1496.3461	1510.1975	1517.1098	2238.591	2957.1276	3002.832	3029.4982	3052.5423	3058.5574	3065.3899	3068.4612	3114.0274	3127.1458	3146.305	3505.2867	3761.2155
COC(C)(CO)CC#C	CO[C@@](C)(CO)CC#C	
InChI=1S/C7H12O2/c1-4-5-7(2,6-8)9-3/h1,8H,5-6H2,2-3H3	InChI=1S/C7H12O2/c1-4-5-7(2,6-8)9-3/h1,8H,5-6H2,2-3H3/t7-/m1/s1
