17
gdb 79458	3.43055	1.53419	1.31351	1.773	66.16	-0.2451	0.0624	0.3075	969.353	0.137629	-458.906059	-458.899231	-458.898287	-458.936936	28.35	
O	-0.0501214987	 1.4153251171	 0.0322912251	-0.447286
C	 0.0813312035	 0.0072536579	 0.0157300185	 0.114719
C	-1.3302664771	-0.5941341036	-0.0425670814	-0.078121
C	-1.333225423	-0.4471299472	-1.5816223706	 0.108686
O	-1.9233232452	-1.7502890681	-1.7768491798	-0.313504
C	-1.2340605496	-2.0830590297	-0.5277558641	 0.004062
C	 0.2269356026	-2.130660729	-1.046462725	 0.179072
O	 0.39466702	-3.0186615913	-2.1161589975	-0.453749
C	 0.2451048221	-0.6209260847	-1.3940140921	-0.192419
H	 0.8036027465	 1.7958633207	-0.1976461567	 0.286022
H	 0.7740868964	-0.3396662422	 0.7949513394	 0.067581
H	-2.1457876471	-0.2895455365	 0.6096888008	 0.090598
H	-1.7585309831	 0.3554124202	-2.1768285863	 0.100911
H	-1.6605745378	-2.9392082352	-0.0078626035	 0.089007
H	 0.9607704493	-2.393918702	-0.2800530281	 0.086285
H	-0.4043551355	-2.9153914363	-2.6536266914	 0.285807
H	 0.9862181167	-0.2715484701	-2.1108887072	 0.072328
202.6681	242.6862	263.3362	313.7339	386.1757	473.6375	494.9445	551.7727	612.7595	742.381	772.1225	845.8531	851.5544	859.8523	880.8701	908.4968	937.2167	950.9621	968.8288	1002.5427	1053.0413	1065.9842	1086.9363	1132.5813	1164.7535	1169.6451	1178.1228	1202.144	1218.9125	1245.7368	1274.388	1281.3127	1303.1101	1326.3013	1345.6105	1423.6514	1453.1451	3001.8706	3081.7516	3136.0051	3138.6725	3148.8494	3170.7241	3730.5495	3815.9282
OC1C2C3OC2C(O)C13	O[C@H]1[C@H]2[C@@H]3O[C@H]2[C@@H](O)[C@H]13	
InChI=1S/C6H8O3/c7-3-1-4(8)6-2(3)5(1)9-6/h1-8H	InChI=1S/C6H8O3/c7-3-1-4(8)6-2(3)5(1)9-6/h1-8H/t1-,2-,3+,4-,5+,6+/m0/s1
