21
gdb 75605	2.36982	1.50486	1.07071	2.2659	80.86	-0.2374	0.012	0.2494	1194.8557	0.183605	-424.220934	-424.212277	-424.211333	-424.253959	33.451	
C	 0.0655439742	 1.556106627	-0.0444691347	-0.47736
C	 0.05302934	 0.0523851107	 0.0099688389	 0.360286
C	-0.0170233704	-0.6980958884	-1.0937217666	-0.15434
C	-0.0726305769	-2.2069684843	-1.1134787771	-0.138138
O	-1.373090546	-2.760193357	-0.8869234153	-0.225673
C	-1.8073283497	-2.8025700205	 0.4399422609	 0.021639
O	-2.2170813674	-1.5572265403	 0.9496191478	-0.228843
C	-1.3752152795	-0.915977042	 1.8892642049	-0.065532
C	 0.046295693	-0.5769246816	 1.3828680956	-0.341535
H	 0.9699418656	 1.9603008423	 0.4286324536	 0.12239
H	 0.0224598452	 1.924964987	-1.0724111418	 0.123372
H	-0.7865792438	 1.9799252836	 0.5027654259	 0.1275
H	-0.0679624116	-0.2050836024	-2.0617389501	 0.082121
H	 0.2163752102	-2.5742399878	-2.1018578797	 0.107773
H	 0.6334133784	-2.6383598506	-0.3867799691	 0.091799
H	-2.6918007498	-3.4469872251	 0.4223058075	 0.110605
H	-1.037030688	-3.2497205281	 1.0936491186	 0.070133
H	-1.9076027721	 0.003232829	 2.1537226695	 0.113118
H	-1.2862576974	-1.5192687605	 2.806330731	 0.092918
H	 0.6489989724	-1.4907928546	 1.3838674827	 0.108796
H	 0.5028133735	 0.0925853736	 2.1217485776	 0.098971
112.2958	155.1659	164.7383	199.7499	267.4471	307.1494	370.717	392.6829	420.5501	472.7931	538.5426	583.9838	640.0948	741.7865	822.1908	860.5448	912.7966	940.3486	972.8346	1000.8759	1026.6475	1047.9985	1061.9776	1078.9086	1111.6657	1124.5048	1194.0159	1214.5727	1269.101	1273.6818	1299.9201	1342.5398	1345.4107	1373.4639	1399.0675	1412.5498	1413.1287	1449.2762	1476.6948	1481.5185	1489.5539	1493.5093	1499.2418	1510.4007	1729.0018	2941.0183	2981.0814	2983.4023	3013.5899	3037.9288	3059.0544	3066.1472	3076.5989	3085.4591	3087.4406	3113.8142	3152.0053
CC1=CCOCOCC1	CC1=CCOCOCC1	
InChI=1S/C7H12O2/c1-7-2-4-8-6-9-5-3-7/h2H,3-6H2,1H3/b7-2-	InChI=1S/C7H12O2/c1-7-2-4-8-6-9-5-3-7/h2H,3-6H2,1H3/b7-2-
