23
gdb 89580	4.09363	1.003	0.95853	1.4456	86.13	-0.2326	0.0808	0.3133	1369.3584	0.206706	-388.300353	-388.291515	-388.29057	-388.334085	34.431	
C	-1.0213041088	 0.9637740973	 0.1591263399	-0.405224
C	 0.1396286058	-0.0157665533	 0.0828886242	 0.056817
C	 1.3012231906	 0.276953334	-0.9107521513	-0.308249
C	 2.3042410927	-0.2128334072	 0.1602913343	 0.461166
C	 1.1892345721	-0.0222330388	 1.2302239178	-0.297371
C	 2.8310218881	-1.6461336664	 0.0091837097	-0.27606
C	 4.1073822834	-1.6099610016	 0.8592152379	-0.235247
C	 4.6199340882	-0.1968389494	 0.5617153447	-0.069333
O	 3.4609815656	 0.601896771	 0.3247810554	-0.31293
H	-0.6604919389	 1.9858648581	 0.3214423896	 0.11256
H	-1.608085367	 0.9607151962	-0.7665329846	 0.112132
H	-1.6998061881	 0.7154736727	 0.9832044644	 0.111941
H	-0.2429393991	-1.0296733565	-0.0799937781	 0.066678
H	 1.3016723004	-0.2309186033	-1.8797734215	 0.087609
H	 1.4244667483	 1.3524590597	-1.0708539897	 0.105778
H	 1.2831539365	 0.9671104876	 1.6880576144	 0.102363
H	 1.0973744111	-0.7750445968	 2.0192165431	 0.085324
H	 2.1093517301	-2.400976568	 0.3304004305	 0.102281
H	 3.0798708184	-1.8424222538	-1.0406649966	 0.100498
H	 3.8629579616	-1.7127758668	 1.9220736928	 0.107617
H	 4.8294589243	-2.3884589722	 0.6012434243	 0.10014
H	 5.189818532	 0.2409173449	 1.388614856	 0.100599
H	 5.2624310527	-0.1899591475	-0.331896367	 0.090912
62.5633	83.4959	186.9621	222.8281	275.5728	288.6423	323.1907	416.1554	445.1	471.0687	599.7652	684.2375	750.3311	827.994	840.3155	877.2131	890.7884	895.9311	934.0175	937.6051	955.1062	975.0823	1013.8919	1027.5533	1042.5141	1084.5767	1126.1298	1153.7154	1175.1029	1202.3935	1212.1695	1215.6685	1222.7389	1256.8229	1264.345	1285.8831	1304.4905	1337.7164	1339.6754	1375.7223	1393.1166	1410.7301	1468.5818	1485.4106	1492.5941	1496.0937	1496.2915	1500.4275	1531.3603	2986.586	3021.3138	3034.9061	3035.3275	3042.5131	3045.3989	3049.3824	3061.5769	3087.7751	3090.0958	3099.9574	3102.6569	3106.816	3109.3706
CC1CC2(C1)CCCO2	C[C@H]1C[C@@]2(C1)CCCO2	
InChI=1S/C8H14O/c1-7-5-8(6-7)3-2-4-9-8/h7H,2-6H2,1H3	InChI=1S/C8H14O/c1-7-5-8(6-7)3-2-4-9-8/h7H,2-6H2,1H3/t7-,8+
