19
gdb 79632	2.17831	1.87668	1.55682	2.0801	73.31	-0.2507	0.0598	0.3105	973.8928	0.160212	-422.989642	-422.981718	-422.980774	-423.021744	31.426	
C	-0.2616224193	 1.5584162608	 0.2321993372	-0.439947
C	 0.0107363101	 0.0903074415	-0.0384814467	-0.002916
C	 0.5642270407	-0.5482144875	-1.2985437974	-0.095805
C	 1.4580569062	 0.2159707838	-2.2536712014	 0.031769
O	 1.8115059314	 1.5600836135	-1.8722348167	-0.26105
C	 2.7476681961	 0.5036119781	-1.6135098462	-0.012373
C	 2.7030366873	 0.0231065307	-0.1588339864	 0.104947
O	 3.0245689281	 1.0396591757	 0.7727440616	-0.435376
C	 1.3268291609	-0.6532269863	 0.0161463698	-0.111046
H	-1.2480812764	 1.8303745797	-0.1597502894	 0.116018
H	-0.2787919641	 1.7404582237	 1.3126222548	 0.117619
H	 0.462679407	 2.2211956118	-0.2343226951	 0.142166
H	-0.7797213186	-0.5288900468	 0.384875135	 0.090253
H	 0.0371214891	-1.3950216112	-1.7251987065	 0.084848
H	 1.3496392183	 0.0658094341	-3.3242467366	 0.100439
H	 3.6970320789	 0.5913566286	-2.1362593363	 0.101345
H	 3.4741964317	-0.7435224704	-0.0227443235	 0.090766
H	 2.4627000281	 1.7952251342	 0.5679662205	 0.291385
H	 1.3325215842	-1.5789142839	 0.5815772134	 0.086959
113.7282	152.5561	221.2553	261.1979	303.3302	337.9007	361.2712	511.6236	542.3321	616.0147	695.8595	706.2512	733.8748	788.3381	838.0127	855.5106	884.1204	912.5858	986.5857	1005.0746	1032.3173	1045.7241	1078.2873	1095.6315	1099.2211	1115.0899	1120.4992	1152.4921	1246.4129	1264.2304	1276.1575	1297.283	1320.297	1357.4708	1376.9614	1403.9578	1423.2008	1435.2314	1453.0963	1497.5515	1521.7827	3035.8828	3050.784	3085.965	3102.3054	3141.5991	3152.5182	3158.2506	3169.2311	3178.3041	3809.7028
CC1C2C3OC3C(O)C12	C[C@H]1[C@H]2[C@H]3O[C@H]3[C@@H](O)[C@@H]12	
InChI=1S/C7H10O2/c1-2-3-4(2)6-7(9-6)5(3)8/h2-8H,1H3	InChI=1S/C7H10O2/c1-2-3-4(2)6-7(9-6)5(3)8/h2-8H,1H3/t2-,3+,4-,5+,6-,7+/m1/s1
