20
gdb 40845	4.95871	0.85194	0.78854	2.7065	85.77	-0.2214	0.0326	0.254	1516.2206	0.172257	-403.157404	-403.148939	-403.147995	-403.191422	31.716	
C	-0.1646848659	 1.3472831486	-0.0757114063	-0.268994
C	 1.2792803295	 0.9923864402	 0.1499647659	-0.268805
C	 0.2424218532	-0.1043742705	 0.0454440959	 0.052686
N	-0.109721	-0.7670817887	 1.2573384234	-0.335686
C	-0.4034466947	-1.9924682845	 1.24883832	 0.437
C	-0.7736602689	-2.8229567535	 2.4593123025	-0.318925
C	-1.4819561809	-4.0346174561	 1.8371455434	-0.229473
C	-0.7831076502	-4.1309829184	 0.4744952515	-0.075429
O	-0.4393196499	-2.7834133141	 0.1239942159	-0.251685
H	-0.7154446729	 1.7635806835	 0.7594133325	 0.117009
H	-0.4684978986	 1.7083320761	-1.0520740893	 0.107195
H	 1.9807414927	 1.1060419386	-0.6691586648	 0.107238
H	 1.6917510636	 1.1715888637	 1.1357615063	 0.117171
H	 0.241299103	-0.692482215	-0.8683199942	 0.093327
H	 0.1411163349	-3.1269908413	 2.9825210126	 0.127049
H	-1.3797283705	-2.2494622535	 3.1607510491	 0.13338
H	-1.3863873901	-4.9516808763	 2.4217410161	 0.110654
H	-2.5474384926	-3.8263898926	 1.6993180103	 0.11866
H	 0.1350115345	-4.730783523	 0.5316394402	 0.109103
H	-1.4131573163	-4.5349723435	-0.3215316709	 0.118523
47.3651	97.5302	144.1326	161.2986	218.3093	329.1998	423.7968	453.0812	581.6368	638.4154	708.9737	769.2628	815.2225	821.0901	861.3497	882.9235	892.7912	932.7484	935.0439	986.8796	1004.5386	1052.3683	1067.6499	1072.1772	1093.5263	1131.5656	1165.301	1192.5066	1197.0758	1199.3364	1216.4065	1231.2981	1257.0596	1311.3099	1339.1967	1396.8724	1399.6948	1456.6604	1474.5788	1493.3803	1496.2783	1524.0934	1796.0578	3018.0696	3041.2713	3060.7344	3098.8491	3118.6144	3132.5981	3135.2514	3135.9375	3143.1449	3221.5192	3236.1133
C1CC1N=C1CCCO1	C1CC1N=C1CCCO1	
InChI=1S/C7H11NO/c1-2-7(9-5-1)8-6-3-4-6/h6H,1-5H2	InChI=1S/C7H11NO/c1-2-7(9-5-1)8-6-3-4-6/h6H,1-5H2
