27
gdb 102563	2.1016	1.02225	0.85038	0.1	96.16	-0.2608	0.0799	0.3407	1591.2116	0.25082	-353.556838	-353.545512	-353.544568	-353.593474	42.097	
C	-2.3810172914	 0.7473150248	-1.2028254699	-0.394343
C	-1.6649633585	-0.6060451566	-1.2551267188	-0.167652
C	-0.3540492796	-0.6153669281	-2.0697908082	 0.011156
C	 0.7093406885	 0.3815916434	-1.5507803172	-0.188689
C	 1.1944483094	 0.1552540546	-0.1134237384	-0.379107
C	 0.1918327836	-2.0325934665	-2.1568745288	 0.020497
C	-0.3618638493	-3.0284096043	-3.1496383456	-0.311452
C	 1.0595444659	-2.5362771605	-3.2916477522	-0.007403
C	 1.4704236145	-1.6864697215	-4.4755475484	-0.40743
H	-1.7948796195	 1.5037573742	-0.6714890489	 0.117536
H	-2.5782927393	 1.130942786	-2.2106489355	 0.110721
H	-3.3435926298	 0.6601282194	-0.688700995	 0.109607
H	-1.4656629848	-0.9551492168	-0.2336496433	 0.092669
H	-2.3381911859	-1.3513730564	-1.6955143119	 0.095768
H	-0.6141257548	-0.288596288	-3.0862051872	 0.060317
H	 1.5717188889	 0.3399280855	-2.2263537115	 0.096196
H	 0.312734292	 1.4003608971	-1.6354850162	 0.09152
H	 1.947159726	 0.9020899737	 0.1584899733	 0.110058
H	 0.3792249915	 0.2356704578	 0.6130376021	 0.116217
H	 1.6539380727	-0.8303396418	 0.0119945245	 0.116535
H	 0.4383858654	-2.4563467167	-1.1857475265	 0.076615
H	-0.5422425029	-4.0501957978	-2.8329938968	 0.103976
H	-1.0843474625	-2.6580680833	-3.8722896136	 0.103533
H	 1.8254348327	-3.2470403757	-2.9895278345	 0.077303
H	 0.6802492305	-0.993294111	-4.7778630084	 0.116823
H	 2.366554321	-1.0944462268	-4.2574631262	 0.115262
H	 1.6962452658	-2.3184615148	-5.3419260071	 0.113766
53.4019	77.862	109.3165	132.6545	176.9201	211.3509	219.5867	240.5621	281.4099	292.7836	346.9214	371.3358	419.8682	530.7277	555.8084	735.9893	773.8306	777.0285	823.9565	850.7626	866.0362	915.261	918.4529	972.0904	1011.7771	1020.5973	1036.5868	1052.7041	1056.5644	1072.3276	1115.6331	1139.8427	1152.5888	1173.9388	1195.3834	1201.7575	1248.4452	1276.5542	1287.2219	1308.3775	1347.1765	1366.1362	1387.2602	1397.2606	1409.9733	1413.2591	1420.753	1434.4068	1483.1891	1488.728	1493.4736	1494.5448	1500.262	1503.7218	1504.8237	1506.9791	1514.9417	3001.7657	3023.0939	3027.7125	3029.0033	3033.4294	3036.645	3053.9771	3059.5987	3083.4525	3094.2093	3099.9979	3101.9037	3102.5309	3105.1393	3117.7935	3121.428	3133.4459	3201.2117
CCC(CC)C1CC1C	CCC(CC)[C@H]1C[C@H]1C	
InChI=1S/C9H18/c1-4-8(5-2)9-6-7(9)3/h7-9H,4-6H2,1-3H3	InChI=1S/C9H18/c1-4-8(5-2)9-6-7(9)3/h7-9H,4-6H2,1-3H3/t7-,9+/m1/s1
