15
gdb 125449	7.06866	0.83092	0.75559	2.5854	74.91	-0.2303	-0.0164	0.2139	1458.4684	0.112701	-450.148323	-450.139597	-450.138653	-450.182433	30.377	
C	-0.0353123294	 1.4414891399	 0.0815304621	-0.494948
C	-0.0424099739	-0.0401044079	-0.0406335972	 0.423193
N	-1.057595649	-0.8287781185	-0.208489659	-0.353108
C	-0.4603047162	-2.0751362349	-0.2438949142	 0.390999
N	-1.199345589	-3.218503815	-0.4331026192	-0.334653
C	-0.7719999552	-4.2995664513	 0.1122466287	 0.127017
N	-1.346215757	-5.4966036728	-0.1344330809	-0.488621
N	 0.8525409183	-2.0495673074	-0.1257895722	-0.210257
O	 1.1340511566	-0.6803220251	 0.0221588019	-0.204566
H	 0.5731398901	 1.8905123832	-0.7093226532	 0.154727
H	-1.0572086919	 1.8122100253	 0.0057427994	 0.16119
H	 0.3914339066	 1.7484363833	 1.0412836085	 0.152999
H	 0.0838389956	-4.3332381335	 0.7938257007	 0.133254
H	-1.1361652206	-6.291422629	 0.4418348596	 0.270343
H	-2.180576475	-5.5215375664	-0.699140965	 0.272433
63.956	81.7329	135.3691	160.8281	244.9307	257.4448	312.3671	397.7935	435.2149	516.8564	615.4929	667.9339	695.1449	779.3061	818.7138	929.9156	997.2597	1015.4302	1040.0049	1060.2977	1069.21	1129.714	1290.3095	1314.3843	1351.8532	1405.432	1436.7261	1476.3704	1477.3712	1538.7516	1623.6064	1639.9393	1730.3037	3052.6063	3085.3937	3110.954	3163.7127	3604.7073	3742.7808
CC1=NC(N=CN)=NO1	Cc1nc(N=CN)no1	
InChI=1S/C4H6N4O/c1-3-7-4(6-2-5)8-9-3/h2H,1H3,(H2,5,6,8)	InChI=1S/C4H6N4O/c1-3-7-4(6-2-5)8-9-3/h2H,1H3,(H2,5,6,8)
