21
gdb 57758	2.82711	0.71089	0.63671	0.6766	94.23	-0.246	0.0403	0.2863	1880.9196	0.178753	-349.903429	-349.892178	-349.891234	-349.941671	40.066	
C	-0.5656079138	 1.251336241	 0.0682689078	-0.373562
C	 0.1389208991	-0.1043934082	-0.1374958939	-0.123638
C	 1.0904071642	-0.0639729452	-1.3499324442	-0.372508
C	 0.8497496996	-0.5182509987	 1.073395946	 0.088552
C	 1.4528741135	-0.8375053944	 2.0656654346	 0.066089
C	 2.1633653118	-1.2537748462	 3.2809813638	-0.321872
C	 1.7410429629	-2.6779147273	 3.7227766536	-0.375425
C	 3.6189676436	-1.1671980849	 3.111561029	 0.347783
C	 4.8134414707	-1.118452174	 2.9943565449	-0.472328
H	 0.167215081	 2.0387986642	 0.2696053684	 0.124673
H	-1.1280922628	 1.5267580937	-0.8296694107	 0.111199
H	-1.2593994828	 1.2107862988	 0.9121133936	 0.121573
H	-0.6359562948	-0.8558136051	-0.3454011215	 0.102853
H	 1.8790137173	 0.6787319857	-1.1951119288	 0.125896
H	 1.5670876798	-1.0347241514	-1.5084406904	 0.124218
H	 0.5379993133	 0.2040393065	-2.2563463393	 0.110412
H	 1.8843274688	-0.5625980208	 4.0900165913	 0.133242
H	 2.0008975416	-3.4056393461	 2.9509071049	 0.136141
H	 2.2529720155	-2.9506928006	 4.6490872953	 0.125252
H	 0.6610153711	-2.7106289716	 3.8860389167	 0.12468
H	 5.8678580606	-1.0646617352	 2.8818524186	 0.196771
10.2657	64.7374	90.9294	161.4356	193.688	203.4913	228.142	237.0129	268.1054	329.3532	339.9413	460.5389	464.713	530.2996	554.9166	579.2266	627.972	640.9207	708.3544	823.2599	891.6758	931.1155	964.4407	986.5607	1051.7825	1074.3628	1114.4313	1120.6159	1163.5899	1210.6947	1300.1792	1322.5802	1326.5177	1350.3822	1395.2678	1402.1685	1417.3964	1485.4151	1488.7595	1489.0678	1496.6543	1498.2067	1510.093	2240.1449	2364.8288	2993.8361	3002.1449	3035.4337	3038.9204	3049.88	3106.6498	3111.6435	3117.8509	3120.5776	3130.1923	3136.6309	3505.4901
CC(C)C#CC(C)C#C	CC(C)C#C[C@@H](C)C#C	
InChI=1S/C9H12/c1-5-9(4)7-6-8(2)3/h1,8-9H,2-4H3	InChI=1S/C9H12/c1-5-9(4)7-6-8(2)3/h1,8-9H,2-4H3/t9-/m0/s1
