20
gdb 78939	3.44433	1.53523	1.34147	1.8546	81.6	-0.2139	0.0842	0.2981	1043.5012	0.171743	-365.930346	-365.922766	-365.921822	-365.961883	30.771	
C	-0.1785789179	 1.4850532773	-0.0371480564	-0.415063
C	-0.0431771146	-0.0340352164	-0.0094289995	-0.002794
C	 1.1509419989	-0.5826810759	-0.8208768775	-0.01047
C	 1.2842144706	-2.0848587223	-0.5464547308	-0.152177
C	 2.3882595848	-1.8374501834	 0.4410382926	-0.08756
N	 2.0965720648	-0.3449042355	 0.3810242568	-0.186942
C	 0.7896213934	-0.5796364532	 1.1710947656	-0.066265
C	 1.008841004	-2.0903365692	 0.9771805358	 0.333735
C	 0.4394696574	-3.250641691	 1.7334012513	-0.521491
H	 0.7889782356	 1.9649233596	 0.1372290762	 0.140031
H	-0.5585951583	 1.8281313904	-1.005497751	 0.111573
H	-0.8740625788	 1.832085658	 0.7346031377	 0.111426
H	-1.0065453649	-0.5254219338	-0.1846364749	 0.065362
H	 1.4381748883	-0.1770639571	-1.7925216482	 0.070534
H	 1.0878462677	-2.9424987448	-1.177223565	 0.085485
H	 3.3569774215	-2.2909499109	 0.6115336915	 0.092322
H	 0.7166572396	-0.1719850886	 2.1816089055	 0.066745
H	-0.6513645332	-3.2993431686	 1.6329787791	 0.121021
H	 0.8461404419	-4.1983321663	 1.364177749	 0.122191
H	 0.6735946293	-3.1853231985	 2.8021624922	 0.122338
166.0116	201.452	223.3041	239.4199	259.4934	319.7326	486.9213	536.9354	609.1122	715.6279	783.0462	807.4495	812.9421	865.9266	872.7172	890.9194	912.1538	917.0278	935.8093	963.6895	975.4901	1021.5065	1053.6002	1061.7823	1084.79	1097.5195	1132.4217	1152.8617	1168.2326	1193.8226	1209.9473	1243.8043	1251.6098	1272.9437	1293.4544	1369.3323	1407.2645	1411.5288	1438.0219	1485.5872	1497.7909	1499.4807	1503.0308	3020.4637	3031.4102	3044.3699	3079.1539	3090.8025	3091.9311	3093.2551	3098.3245	3114.5232	3180.535	3196.3971
CC1C2C3C4N2C1C34C	C[C@H]1[C@@H]2[C@H]3[C@H]4N2[C@@H]1[C@@]34C	
InChI=1S/C8H11N/c1-3-5-4-7-8(4,2)6(3)9(5)7/h3-7H,1-2H3	InChI=1S/C8H11N/c1-3-5-4-7-8(4,2)6(3)9(5)7/h3-7H,1-2H3/t3-,4-,5+,6-,7+,8+/m0/s1
