20
gdb 100131	3.21867	0.90923	0.8541	3.7919	75.5	-0.2788	0.0173	0.2961	1417.5523	0.167312	-440.283949	-440.273179	-440.272234	-440.320024	38.441	
C	 0.1075612412	 1.5381401681	 0.5013960912	-0.420207
C	 0.0351127724	 0.126275518	-0.0911628013	 0.346548
C	 0.9078141248	-0.8607272765	 0.6883040762	-0.425611
C	-1.4227825469	-0.3611006718	-0.1193060201	-0.104317
O	-1.9046593652	-0.4026569056	 1.2136038669	-0.420135
O	 0.3527659314	 0.1467822938	-1.5039529863	-0.276801
C	 1.6656796719	 0.4568888305	-1.885571004	-0.212895
C	 2.540189399	-0.7295045486	-1.9975117699	 0.265585
N	 3.2256404782	-1.6532376537	-2.1056644051	-0.311362
H	 1.1380400462	 1.8900344496	 0.6102705978	 0.110752
H	-0.4383622394	 2.2432990921	-0.1324378025	 0.11853
H	-0.3506598081	 1.5376063471	 1.4927951576	 0.146949
H	 0.5089939245	-0.9654156128	 1.6997871383	 0.141304
H	 0.9028217842	-1.8437312444	 0.2097443188	 0.134724
H	 1.9444222478	-0.5205246714	 0.7647945413	 0.116753
H	-2.009057946	 0.3289682068	-0.7434533684	 0.095209
H	-1.4475901954	-1.3519219445	-0.5944309238	 0.100093
H	-2.8047480288	-0.7387332771	 1.1989041531	 0.295248
H	 1.6105830879	 0.920593601	-2.8769663974	 0.157639
H	 2.1482368004	 1.1813209194	-1.2176608926	 0.141995
42.6865	79.6673	124.6819	196.6988	204.9971	207.247	239.0698	262.3177	307.2098	339.7779	367.5371	370.5188	402.8758	448.895	546.732	613.2552	736.466	859.5782	901.7938	914.8691	964.6909	973.0634	1041.4335	1042.9772	1082.1831	1121.2377	1167.9137	1198.6853	1240.6977	1281.4628	1297.1432	1316.9081	1389.3455	1397.1811	1412.7229	1454.7053	1469.6916	1479.4087	1489.8458	1497.428	1510.3745	1524.8343	2357.286	2990.0924	3030.0041	3031.2162	3042.9482	3050.4525	3073.2473	3110.0046	3120.6426	3133.3281	3137.5452	3843.9745
CC(C)(CO)OCC#N	CC(C)(CO)OCC#N	
InChI=1S/C6H11NO2/c1-6(2,5-8)9-4-3-7/h8H,4-5H2,1-2H3	InChI=1S/C6H11NO2/c1-6(2,5-8)9-4-3-7/h8H,4-5H2,1-2H3
