21
gdb 59803	3.05173	0.92963	0.82418	2.2965	83.58	-0.2306	0.0272	0.2578	1505.2619	0.180941	-420.397858	-420.387556	-420.386612	-420.433915	37.202	
C	-0.1799742538	 1.4085607628	-0.0319803576	-0.366808
C	-0.0664213254	-0.1161903494	 0.1009207557	 0.047943
C	 0.5779650976	-0.5159563075	 1.4321799451	-0.369323
N	-1.402400085	-0.7056331646	 0.0295613635	-0.336147
C	-1.7769285377	-1.2968938156	-1.0198938452	 0.364748
N	-1.265752981	-1.6075510899	-2.2786877404	-0.353797
C	-2.2748720648	-2.6607407486	-2.5247083921	-0.183887
C	-3.0377893519	-2.1194860589	-1.2746112365	 0.041246
O	-3.3451680749	-3.053861173	-0.2753202965	-0.437533
H	 0.8037842006	 1.8815398662	 0.0554390128	 0.10671
H	-0.6113673447	 1.6857038186	-0.9984154893	 0.114114
H	-0.828504263	 1.8066425849	 0.7546775584	 0.123871
H	 0.5820420966	-0.4814373329	-0.7147489864	 0.045924
H	 1.5795007143	-0.0839507019	 1.527757544	 0.105363
H	-0.035419732	-0.1633670234	 2.2673912437	 0.121841
H	 0.6628975888	-1.6038152985	 1.5129742026	 0.108857
H	-0.2895372235	-1.6536500725	-2.5334495624	 0.246245
H	-2.7745914609	-2.5833024872	-3.4937493373	 0.110601
H	-1.9163505665	-3.681210992	-2.3577761982	 0.119067
H	-3.9148597131	-1.5169313869	-1.5437131188	 0.094776
H	-2.9855516497	-2.6932601996	 0.5451364147	 0.29619
31.1304	93.7968	113.3781	141.7496	221.036	222.3281	251.8124	256.0904	331.1755	387.4264	430.0145	465.7506	500.6903	540.0886	698.6476	770.4028	833.6661	868.1227	915.3725	927.4074	954.5558	976.4893	1004.0434	1060.2099	1134.0936	1140.7535	1149.4483	1170.507	1184.8514	1203.1809	1209.2075	1292.1936	1346.8852	1351.9338	1376.1306	1380.151	1390.9786	1393.7227	1413.4468	1481.7274	1486.8315	1494.3962	1508.6946	1515.0818	1812.3376	2936.278	3023.3037	3032.1804	3036.4122	3048.0648	3104.5668	3106.7831	3108.5633	3110.277	3114.3741	3595.8189	3775.3262
CC(C)N=C1NCC1O	CC(C)N=C1NC[C@H]1O	
InChI=1S/C6H12N2O/c1-4(2)8-6-5(9)3-7-6/h4-5,9H,3H2,1-2H3,(H,7,8)	InChI=1S/C6H12N2O/c1-4(2)8-6-5(9)3-7-6/h4-5,9H,3H2,1-2H3,(H,7,8)/t5-/m1/s1
