14
gdb 125554	5.4833	1.37011	1.1037	4.325	69.56	-0.2422	-0.0055	0.2367	1031.81	0.104413	-429.067846	-429.060981	-429.060037	-429.099252	25.688	
C	-0.0153113533	 1.409609428	-0.0341443984	-0.484252
C	 0.003743402	-0.0802560476	 0.0178258495	 0.345534
N	-0.059604247	-0.8174598217	-1.0980273302	-0.314194
N	-0.0132569184	-2.0649547348	-0.5755528845	 0.11264
N	-0.0322103581	-3.3295701327	-1.0803346986	-0.230708
C	 0.0444472468	-4.0638580544	 0.0006141206	 0.046898
N	 0.1107976396	-3.321039123	 1.1648520748	-0.419562
C	 0.0718916198	-2.0095736173	 0.7696783494	 0.499646
N	 0.0869917016	-0.7689347169	 1.2111274451	-0.435963
H	 0.8917768361	 1.8232785453	 0.4175048242	 0.139531
H	-0.0836482883	 1.745971685	-1.0696633296	 0.143688
H	-0.867648853	 1.8046576985	 0.5274660624	 0.139532
H	 0.0554651123	-5.141176007	-0.0040546813	 0.163694
H	 0.1745074897	-3.6688694314	 2.1052491866	 0.293516
98.4458	152.459	291.7081	301.9312	356.1464	435.2931	543.3365	595.1639	648.3452	691.2044	752.3842	797.1654	815.0744	860.547	972.5971	990.037	1028.3911	1066.0321	1089.7709	1189.1691	1275.809	1311.2672	1362.2026	1392.847	1407.4579	1451.6079	1476.4394	1477.8846	1522.8976	1547.6642	1649.1255	3047.167	3103.0861	3148.4749	3288.8053	3694.0806
CC1=NN2N=CNC2=N1	Cc1nn2nc[nH]c2n1	
InChI=1S/C4H5N5/c1-3-7-4-5-2-6-9(4)8-3/h2H,1H3,(H,5,6,7,8)	InChI=1S/C4H5N5/c1-3-7-4-5-2-6-9(4)8-3/h2H,1H3,(H,5,6,7,8)
