19
gdb 73854	2.6609	1.34776	0.93629	4.6755	79.16	-0.2412	0.0095	0.2507	1257.8453	0.158239	-423.082878	-423.073587	-423.072643	-423.117573	33.553	
C	 0.167209183	 1.5854007021	 0.0014535857	-0.492185
C	-0.0197644534	 0.0937451801	 0.0460895885	 0.187053
C	-1.1773332932	-0.5735356356	 0.0471018474	 0.200872
C	-2.5535356579	 0.0254334202	-0.0285968026	-0.487957
C	-1.1388345549	-2.0804179042	 0.1670417673	-0.445158
C	 0.1078143057	-2.7407781265	-0.3948693107	 0.416067
O	 0.1252781378	-3.8642876585	-0.8183764088	-0.330059
O	 1.2400326447	-2.0047570167	-0.4112652763	-0.219114
C	 1.2707130519	-0.6821846508	 0.1372095572	-0.147105
H	 0.81844493	 1.9191129186	 0.820003935	 0.129244
H	 0.6577345563	 1.8929708491	-0.930950981	 0.13433
H	-0.7712515615	 2.1341870651	 0.0850146976	 0.130664
H	-3.0870028535	-0.3472508296	-0.9122924851	 0.134456
H	-3.1530386443	-0.2717172218	 0.841734631	 0.130221
H	-2.5482839312	 1.1151032361	-0.0756918365	 0.126581
H	-1.2164621434	-2.3772688973	 1.2247876874	 0.142986
H	-1.9902553515	-2.550871641	-0.3320465675	 0.140367
H	 2.0637993043	-0.1695900408	-0.4169224769	 0.127554
H	 1.608516191	-0.7482156484	 1.1833929582	 0.121184
40.7597	120.1813	139.0658	153.1471	178.2831	287.3998	328.1977	330.2441	424.8209	455.7694	503.0616	553.3932	588.7356	725.6776	745.9199	827.917	925.2634	937.1287	971.7408	1004.3052	1058.8046	1076.6001	1097.5993	1142.9627	1173.4655	1196.5123	1227.9586	1268.1341	1272.6594	1348.3888	1407.1797	1420.013	1431.7931	1456.318	1478.6358	1482.8105	1485.6574	1497.5454	1504.5998	1764.5403	1847.5699	2984.2301	2996.5623	3017.9615	3020.7808	3060.602	3062.8944	3069.1786	3092.1028	3130.521	3143.0998
CC1=C(C)CC(=O)OC1	CC1=C(C)CC(=O)OC1	
InChI=1S/C7H10O2/c1-5-3-7(8)9-4-6(5)2/h3-4H2,1-2H3	InChI=1S/C7H10O2/c1-5-3-7(8)9-4-6(5)2/h3-4H2,1-2H3
