22
gdb 70423	2.86896	1.40605	1.23229	1.6882	85.42	-0.223	0.0793	0.3023	1141.3851	0.19466	-367.162759	-367.154242	-367.153298	-367.195568	33.747	
C	 0.0462503126	 1.5469945571	 0.1442816931	-0.499917
C	-0.0171970027	 0.0562982441	-0.0136637375	 0.268079
C	-0.9108295069	-0.81109376	 0.7849951457	-0.286735
N	 0.5433860115	-0.9098439878	 1.0245414249	-0.167764
C	 1.0600022163	-1.7527220031	-0.1091109814	-0.232359
C	 0.568661314	-0.7418019337	-1.1799548095	 0.325434
C	-0.2314032031	-1.205494327	-2.4267625519	-0.291291
C	 1.0546018788	-1.0249418598	-3.2774908411	-0.21461
C	 1.6369806146	-0.1482113595	-2.136140971	-0.288869
H	 1.0482212495	 1.9313517812	-0.0735180686	 0.123765
H	-0.6598447665	 2.0443511461	-0.5317163942	 0.118483
H	-0.2090091256	 1.8339708517	 1.1684832708	 0.12847
H	-1.4466716898	-0.3522954314	 1.6110402893	 0.114123
H	-1.427121272	-1.6516457929	 0.3241546264	 0.10463
H	 2.1484692636	-1.8337674852	-0.0491230631	 0.106886
H	 0.6268874678	-2.7599415079	-0.1371011747	 0.096549
H	-0.6839230093	-2.2002364244	-2.3905719618	 0.094507
H	-1.0074920872	-0.4816667167	-2.6968063855	 0.099302
H	 1.6031373358	-1.9638308185	-3.392752817	 0.104578
H	 0.9490210063	-0.5640155851	-4.2619309755	 0.097853
H	 1.4654631073	 0.9170672955	-2.3213409866	 0.100931
H	 2.6871922049	-0.2862052328	-1.8635897906	 0.097956
106.7683	131.5087	179.2581	186.056	263.7323	335.053	387.3056	440.4064	469.1705	516.9253	627.5748	696.7696	741.8907	788.298	839.3873	864.533	882.2717	907.5855	917.248	938.4058	965.7679	972.2072	1028.607	1043.8053	1090.0186	1104.7527	1121.7721	1135.0572	1161.2138	1184.7551	1199.6953	1215.8687	1253.7045	1262.8509	1274.6702	1278.2947	1296.9206	1345.3286	1361.9424	1416.6037	1472.7401	1480.732	1482.7028	1491.7159	1494.0066	1506.0038	1511.3423	3024.9852	3026.3711	3041.8034	3046.7595	3060.4668	3087.6225	3089.7851	3091.5665	3093.5956	3096.5206	3110.2439	3116.974	3185.9998
CC12CN1CC21CCC1	C[C@]12CN1CC12CCC1	
InChI=1S/C8H13N/c1-7-5-9(7)6-8(7)3-2-4-8/h2-6H2,1H3	InChI=1S/C8H13N/c1-7-5-9(7)6-8(7)3-2-4-8/h2-6H2,1H3/t7-,9?/m1/s1
