21
gdb 77114	3.17917	1.03927	0.87562	2.8833	84.6	-0.2429	-0.0215	0.2214	1373.6092	0.180881	-387.080551	-387.071225	-387.070281	-387.115173	34.85	
C	-0.0120947352	 1.6285694636	 0.0296328683	-0.415999
C	 0.1070622589	 0.1133408259	 0.0265490791	-0.060373
C	 1.2058573654	-0.5323267177	-0.8927353571	-0.068892
C	 1.5292095782	-1.5306414066	 0.2657156986	-0.337072
C	 0.7474561697	-0.6218192277	 1.2184010366	 0.372813
C	 1.3098555907	 0.0215188206	 2.4535424462	-0.318346
C	 0.1561173763	-0.953029687	 2.5524012684	-0.33438
C	 0.7256389764	-1.1260424073	-2.183681631	 0.155438
O	 1.140155983	-0.8502515586	-3.2808299298	-0.255684
H	 0.9507268883	 2.1003452511	 0.25014316	 0.121478
H	-0.3524236389	 1.9952934356	-0.9445024487	 0.125647
H	-0.7341242229	 1.9679432775	 0.7810192725	 0.117972
H	-0.8687927338	-0.3360766358	-0.2026724319	 0.076014
H	 2.026343028	 0.1601387203	-1.0929437467	 0.089053
H	 1.0444662697	-2.5022100552	 0.1144107514	 0.10474
H	 2.5889462361	-1.6970871971	 0.4728349362	 0.112528
H	 2.2868561829	-0.3035469823	 2.7974943552	 0.11263
H	 1.1039427034	 1.072122153	 2.6316324369	 0.114813
H	-0.8253604278	-0.554596339	 2.7916881425	 0.111626
H	 0.3486425793	-1.9373706634	 2.9679777102	 0.112553
H	-0.0922975379	-1.8772831699	-2.0536383369	 0.06344
53.6266	63.2219	198.397	209.3739	220.6128	244.8522	292.8945	331.2285	402.0177	408.6198	504.7012	592.3746	715.9288	776.5434	802.845	866.967	886.7092	902.4808	913.9469	964.3943	976.1886	1046.8996	1054.3085	1070.6565	1078.7917	1082.6315	1101.1469	1150.413	1177.2429	1189.2709	1232.876	1238.7637	1256.7426	1266.9869	1316.6997	1363.9391	1388.3662	1407.0999	1430.9284	1464.4305	1483.3765	1490.2741	1496.0332	1506.4052	1826.7883	2828.5439	3009.4035	3028.5812	3036.5378	3089.5273	3094.1637	3103.6594	3105.56	3119.1439	3124.6802	3196.7671	3212.1387
CC1C(CC11CC1)C=O	C[C@H]1[C@@H](CC21CC2)C=O	
InChI=1S/C8H12O/c1-6-7(5-9)4-8(6)2-3-8/h5-7H,2-4H2,1H3	InChI=1S/C8H12O/c1-6-7(5-9)4-8(6)2-3-8/h5-7H,2-4H2,1H3/t6-,7-/m0/s1
