17
gdb 54539	3.05741	1.38451	1.1603	5.9051	67.97	-0.2463	0.0062	0.2525	1072.9176	0.138072	-455.138885	-455.131021	-455.130077	-455.171981	29.522	
O	 0.2988604345	 0.3581071171	-0.1960979294	-0.305726
C	-0.0802213999	 1.4256557236	 0.183966545	 0.364464
O	 0.7599494954	 2.2777341929	 0.8351814262	-0.378068
C	-1.4708777735	 1.9847627383	 0.0266578374	 0.16464
C	-1.6434726514	 3.3948162169	-0.551767163	-0.266775
N	-2.3336934935	 4.1212107505	 0.5216893439	-0.301908
H	 0.2636162099	 3.0411584399	 1.1616073422	 0.310564
H	-2.8071748008	 4.954201473	 0.1879427506	 0.224403
C	-3.2458523322	 3.1776910502	 1.1887655235	-0.193458
C	-2.511587155	 1.844926071	 1.0984525467	-0.061754
N	-2.5795626232	 1.0552616838	-0.1349078567	-0.339675
H	-0.6876212725	 3.8729566633	-0.7890945459	 0.122008
H	-2.2127749769	 3.328997959	-1.4959858194	 0.100073
H	-3.4110218212	 3.4785059334	 2.2285499015	 0.118091
H	-4.2366103264	 3.0993950281	 0.7071385646	 0.095343
H	-2.3427220047	 1.2660007786	 2.0007310493	 0.119321
H	-3.2715827184	 1.4306191205	-0.7812452464	 0.228459
65.5311	78.8195	170.1468	244.1272	333.6515	385.5429	478.9426	518.1931	566.1741	617.0415	702.2518	740.9476	749.391	810.475	865.4656	917.3664	973.2038	986.619	991.6873	1038.6395	1059.8088	1092.3162	1124.1551	1160.9328	1173.058	1198.157	1236.2982	1267.8112	1281.7045	1310.4663	1327.5156	1387.1132	1424.6759	1447.3897	1514.9545	1531.5337	1889.8393	2939.8118	2946.5034	3063.5653	3065.7817	3166.7008	3475.7734	3527.323	3759.3993
[O-]C(=O)C12C[NH2+]CC1N2	O=C(O)[C@]12CNC[C@H]1N2	
InChI=1S/C5H8N2O2/c8-4(9)5-2-6-1-3(5)7-5/h3,6-7H,1-2H2,(H,8,9)	InChI=1S/C5H8N2O2/c8-4(9)5-2-6-1-3(5)7-5/h3,6-7H,1-2H2,(H,8,9)/t3-,5+/m1/s1
