15
gdb 27950	3.03608	1.34145	0.93574	3.1967	76.65	-0.2555	-0.089	0.1664	1187.4405	0.112809	-416.874593	-416.86658	-416.865636	-416.908157	28.275	
C	-0.0169563954	 1.4980250544	 0.0215445249	-0.461536
C	 0.016312047	-0.003318721	-0.004000261	 0.35057
N	-0.0358820312	-0.6072532095	-1.1914808967	-0.305932
C	-0.0049333774	-1.9458070729	-1.1910433724	 0.213621
C	-0.0619029363	-2.6602601435	-2.5100748116	 0.10853
O	-0.1340403336	-2.1217486191	-3.5816189969	-0.231514
C	 0.0775193602	-2.6845391521	-0.0172799509	-0.176873
C	 0.1267367692	-1.9547846402	 1.1691621538	 0.015269
N	 0.0971509677	-0.6276632114	 1.1883307838	-0.272865
H	 0.8815659756	 1.8862234123	 0.5114723298	 0.144819
H	-0.0821998084	 1.8926848963	-0.9920580754	 0.145999
H	-0.8728609451	 1.8456918482	 0.6085952475	 0.144823
H	-0.0308286513	-3.7693089002	-2.4123019474	 0.079085
H	 0.102144258	-3.7684367658	-0.0249614806	 0.119136
H	 0.1919931509	-2.4551388055	 2.1330333731	 0.126867
52.14	89.7933	183.8234	187.454	214.924	373.534	441.9159	445.8233	569.872	583.279	680.1378	767.3302	791.3319	857.1893	952.4132	1005.8138	1007.5908	1031.3224	1032.8677	1069.3762	1123.7765	1220.9772	1250.6651	1313.0559	1394.8249	1419.491	1439.7866	1463.0709	1478.5636	1485.4973	1600.0715	1612.0698	1830.2791	2876.5901	3049.5149	3106.7069	3154.3163	3161.9407	3198.1756
CC1=NC(C=O)=CC=N1	Cc1nc(C=O)ccn1	
InChI=1S/C6H6N2O/c1-5-7-3-2-6(4-9)8-5/h2-4H,1H3	InChI=1S/C6H6N2O/c1-5-7-3-2-6(4-9)8-5/h2-4H,1H3
