23
gdb 87673	3.05768	1.08884	0.97301	1.3515	86.44	-0.2313	0.0754	0.3067	1345.1284	0.203234	-388.268218	-388.258038	-388.257094	-388.303361	38.611	
C	-0.2950182876	 1.5104864279	 0.0143062958	-0.439723
C	-0.0326487594	 0.0039512229	 0.0038366129	 0.370039
C	-1.3082739175	-0.7800113603	-0.2845064939	-0.452681
C	 1.2057101006	-0.3652637549	-0.8865249724	-0.352141
C	 2.0351103843	-0.4973709185	 0.3935176756	 0.332847
C	 3.3287483861	-1.2571655696	 0.5906394374	-0.418014
C	 3.3144271293	 0.2475866358	 0.6394288399	 0.08809
O	 3.910459503	 1.038626804	-0.3497222525	-0.422682
C	 0.7774003078	-0.4623593056	 1.2637035456	-0.348286
H	 0.6255944327	 2.0713689442	 0.2062449894	 0.125229
H	-0.6945964294	 1.8452028184	-0.9500891192	 0.109024
H	-1.0220283427	 1.7782303647	 0.7898075237	 0.108428
H	-1.7286679481	-0.5071560385	-1.2598365011	 0.110738
H	-1.1200086997	-1.8589585314	-0.291512832	 0.107648
H	-2.0739836626	-0.5791377482	 0.4742350457	 0.111373
H	 1.0755609156	-1.3091785848	-1.4265869907	 0.091189
H	 1.531761454	 0.405537165	-1.5936097944	 0.092093
H	 3.4816797364	-1.810096499	 1.5129995312	 0.113335
H	 3.7659375397	-1.7317752363	-0.2854198253	 0.10298
H	 3.4441766717	 0.7253313459	 1.6065217308	 0.103107
H	 3.9522329559	 0.529402974	-1.1650771242	 0.284446
H	 0.7849500958	 0.2224478008	 2.1182300672	 0.092028
H	 0.4709854341	-1.4539972162	 1.6144346504	 0.090933
47.9219	77.1865	142.2589	187.9225	230.1762	257.7669	283.9677	319.5652	323.4784	390.9941	419.8258	452.5597	488.5059	542.3208	694.5336	798.605	824.5867	850.8518	872.5108	894.2412	924.4665	937.1018	963.4853	987.1391	999.1666	1024.0612	1039.0083	1098.3251	1107.2086	1140.8742	1165.082	1182.2669	1214.3119	1235.9149	1239.255	1291.8357	1310.6691	1317.7859	1354.4799	1401.7627	1419.0895	1435.9429	1473.9751	1483.7265	1485.2228	1486.4934	1497.8293	1502.2092	1506.2129	3016.0827	3020.998	3027.8658	3034.0734	3077.9896	3078.1594	3082.2272	3087.1978	3091.1611	3097.6479	3104.0229	3151.1838	3190.2171	3826.0031
CC1(C)CC2(CC2O)C1	CC1(C)CC2(C[C@H]2O)C1	
InChI=1S/C8H14O/c1-7(2)4-8(5-7)3-6(8)9/h6,9H,3-5H2,1-2H3	InChI=1S/C8H14O/c1-7(2)4-8(5-7)3-6(8)9/h6,9H,3-5H2,1-2H3/t6-/m1/s1
