20
gdb 73154	2.59706	1.63027	1.38228	2.267	78.8	-0.2167	0.0759	0.2926	1042.0062	0.170563	-403.088182	-403.079849	-403.078905	-403.120858	32.79	
C	 0.1218670088	 1.6432951299	 0.128182115	-0.48719
C	 0.0959343512	 0.1392846304	 0.135739213	 0.345801
O	-1.2357909467	-0.4000523054	-0.0527919411	-0.327928
C	-1.0853559295	-1.3035114504	 1.0722575387	-0.073966
C	 0.357878321	-0.8352010493	 1.3185348218	-0.106219
N	 1.3478004064	-1.6072795036	 0.5167494417	-0.377233
C	 1.1674877769	-0.6683983727	-0.6162480931	 0.328775
C	 1.1579754713	-1.0723356036	-2.0531012169	-0.296182
C	 2.259370366	-0.1757794064	-1.5163051271	-0.347228
H	 1.1221921846	 2.0200628042	 0.3612336498	 0.120449
H	-0.1648008055	 2.0225333417	-0.859858852	 0.129511
H	-0.5877490784	 2.0436919608	 0.8576886278	 0.124834
H	-1.8008331743	-1.0617823318	 1.8683559026	 0.096579
H	-1.1826225859	-2.3556861293	 0.7851261941	 0.109701
H	 0.6591330391	-0.5500872131	 2.3267744069	 0.077587
H	 2.2786243293	-1.5283063056	 0.9154847737	 0.217392
H	 1.4117326411	-2.1031329865	-2.275384872	 0.118552
H	 0.4024301155	-0.6382085027	-2.6994473167	 0.121127
H	 2.2655704644	 0.8711975901	-1.8029309303	 0.114675
H	 3.2477375448	-0.6086801165	-1.3912212558	 0.110963
73.7502	193.6391	197.5656	211.9171	243.0471	325.5258	398.0036	414.8196	476.7898	568.9496	627.8641	751.8172	771.9025	789.2907	842.972	864.2496	893.7239	910.0506	918.4641	957.6092	982.3218	997.8725	1040.8194	1049.2511	1069.3767	1089.263	1129.6339	1151.0896	1162.8278	1169.2548	1184.9298	1226.9761	1287.2868	1324.1958	1330.9013	1377.2253	1397.5859	1406.7034	1455.7121	1479.6405	1487.3916	1497.9424	1507.6482	3016.3101	3032.0438	3079.0994	3099.0124	3106.9939	3117.5661	3118.4114	3132.5135	3199.4073	3223.2805	3505.8818
CC12OCC1NC21CC1	C[C@]12OC[C@H]1NC12CC1	
InChI=1S/C7H11NO/c1-6-5(4-9-6)8-7(6)2-3-7/h5,8H,2-4H2,1H3	InChI=1S/C7H11NO/c1-6-5(4-9-6)8-7(6)2-3-7/h5,8H,2-4H2,1H3/t5-,6+/m1/s1
