17
gdb 11309	5.54694	1.23094	1.04877	3.8841	66.04	-0.2394	0.0258	0.2653	1082.2105	0.143298	-401.031245	-401.023318	-401.022374	-401.064133	28.55	
O	 0.051749992	 1.3687610244	 0.2064991885	-0.425189
C	 0.0502518217	-0.0206592968	-0.0406010366	 0.114965
C	-1.3895850881	-0.5457317725	-0.0836564307	-0.238527
C	-1.2883226363	-1.8617157862	-0.8698832421	-0.161047
N	-0.0764590747	-1.6883599588	-1.6837872097	-0.040413
C	 0.5880809187	-0.4178957399	-1.4312641402	-0.20096
C	 0.3896365555	-2.6795615304	-2.4803089971	 0.137937
O	-0.1622236742	-3.7505064442	-2.6386895344	-0.340869
H	 0.9570197845	 1.6516002504	 0.3680179224	 0.28864
H	 0.6182710956	-0.5608477813	 0.7321182364	 0.080057
H	-1.8232299169	-0.676178278	 0.9093007514	 0.115307
H	-1.996931156	 0.1888383967	-0.6228624369	 0.122969
H	-1.1702911184	-2.7349492518	-0.2185535938	 0.125438
H	-2.1590468441	-2.0515486227	-1.503986073	 0.129332
H	 0.2950332319	 0.3601832586	-2.1508200461	 0.114763
H	 1.6765697011	-0.5271386192	-1.4650422688	 0.11111
H	 1.3425634276	-2.4074640183	-2.9780621792	 0.066487
44.2435	142.2405	192.596	212.7725	279.0275	333.0268	354.0165	448.4335	486.6432	585.7428	746.1167	814.6154	868.3366	890.9426	950.8081	998.1542	1033.8393	1064.5281	1101.4495	1133.9601	1176.2974	1197.23	1217.6653	1250.0999	1283.7134	1304.7624	1324.2672	1347.5844	1373.447	1404.9302	1437.6767	1449.0894	1495.2349	1516.1074	1528.2605	1788.9765	2925.4565	2984.4128	3002.2572	3043.8274	3059.7763	3076.4959	3084.1046	3122.5836	3824.8941
OC1CCN(C1)C=O	O[C@H]1CCN(C1)C=O	
InChI=1S/C5H9NO2/c7-4-6-2-1-5(8)3-6/h4-5,8H,1-3H2	InChI=1S/C5H9NO2/c7-4-6-2-1-5(8)3-6/h4-5,8H,1-3H2/t5-/m0/s1
