18
gdb 7973	3.56347	1.6001	1.24314	2.8901	69.92	-0.2497	0.0042	0.2539	1004.6735	0.153812	-384.955951	-384.947845	-384.946901	-384.988229	30.954	
C	-0.2164312945	 1.476257406	-0.0197083466	-0.489653
C	-0.0082541631	-0.0036444083	-0.0689946938	 0.326635
C	-0.296049642	-0.8223838916	-1.0896018234	-0.221429
C	 0.0987921059	-2.24270114	-0.806337642	 0.048122
O	 1.3135584873	-2.6278058858	-1.4809309319	-0.443184
C	 0.309345625	-2.2491541009	 0.7390339671	 0.129375
O	 1.3041351361	-3.1569566155	 1.1393693607	-0.444724
C	 0.5861307173	-0.76467235	 1.0972759058	-0.33622
H	 0.7288069527	 1.9991964915	 0.1730288771	 0.13053
H	-0.6382337877	 1.860507947	-0.9522662685	 0.125986
H	-0.8912610852	 1.7480898702	 0.8015918452	 0.132873
H	-0.7118879694	-0.5094420206	-2.0416605719	 0.092283
H	-0.6354198818	-2.990085432	-1.1203075533	 0.08893
H	 1.8473386338	-1.8305030867	-1.5763322938	 0.280954
H	-0.634483588	-2.5480839931	 1.2115330869	 0.083632
H	 1.8258380102	-3.3231781134	 0.3391309388	 0.281709
H	 1.6655941797	-0.5835725307	 1.1869183101	 0.108472
H	 0.1449107238	-0.4750199559	 2.0577947936	 0.10571
89.6205	141.6318	189.6082	276.6652	303.4434	323.7332	403.0067	432.1355	498.0966	514.2924	565.6733	628.9759	733.0967	811.9259	850.7368	871.479	929.273	978.0413	1007.1589	1043.0171	1063.9496	1084.1466	1124.3118	1166.0068	1189.3354	1223.1192	1266.6297	1287.6186	1312.9347	1336.5902	1378.7385	1411.2303	1418.0548	1444.2449	1478.1188	1482.9404	1485.5672	1702.505	3019.406	3023.1823	3026.6759	3062.9413	3068.9189	3072.9972	3113.0898	3186.3746	3697.7925	3796.4431
CC1=CC(O)C(O)C1	CC1=C[C@@H](O)[C@@H](O)C1	
InChI=1S/C6H10O2/c1-4-2-5(7)6(8)3-4/h2,5-8H,3H2,1H3	InChI=1S/C6H10O2/c1-4-2-5(7)6(8)3-4/h2,5-8H,3H2,1H3/t5-,6+/m1/s1
