19
gdb 41139	3.18466	1.69223	1.33468	1.7588	80.21	-0.2266	0.008	0.2346	995.686	0.161591	-385.868195	-385.861239	-385.860295	-385.899453	28.498	
C	 0.0551725498	 1.5431233973	 0.0733724111	-0.097242
O	 1.5008304201	 1.4787275721	-0.030587855	-0.338653
C	 1.4713357017	 0.0435005736	-0.0144445222	 0.480091
C	 2.4241733552	-0.7310783328	-0.8470418635	-0.192916
C	 2.8892966471	-1.7910994161	-0.1803595913	-0.057925
C	 2.3479005853	-1.9060176001	 1.2321500787	-0.299799
C	 1.4666382244	-0.6461347068	 1.3896360186	-0.062041
C	-0.0873313613	-0.78256513	 1.2965301903	-0.258396
C	-0.0915823032	 0.0106697195	-0.0342183304	-0.142595
H	-0.2722376931	 1.9875580519	 1.0226620563	 0.096249
H	-0.3732705217	 2.1172558928	-0.7559178976	 0.104378
H	 2.6653557073	-0.4665359519	-1.8699645001	 0.098843
H	 3.571045993	-2.5286943462	-0.591858827	 0.098122
H	 1.7638147938	-2.8281525246	 1.354712543	 0.107877
H	 3.1584957705	-1.9629827067	 1.9692762416	 0.108888
H	 1.811332569	 0.0072597493	 2.1930628884	 0.079568
H	-0.4142863148	-1.8183651704	 1.1652978104	 0.101101
H	-0.6607014993	-0.3444939727	 2.1187782985	 0.099146
H	-0.6833007537	-0.3656564983	-0.8685792198	 0.075305
101.058	199.3405	262.5853	351.7612	416.9501	457.3597	482.091	650.1295	695.3708	746.243	786.4843	813.3902	843.7411	874.2784	879.9704	933.7113	947.6541	980.417	994.4354	1022.5953	1035.1458	1047.9022	1081.0215	1093.9951	1111.2979	1150.205	1159.5106	1177.0512	1201.1476	1215.5253	1251.3963	1266.5269	1304.8452	1319.042	1328.0434	1346.0219	1388.9428	1473.1438	1488.3976	1522.8415	1665.0193	3010.3186	3016.0197	3042.0041	3046.9984	3058.648	3087.5178	3102.1533	3111.1628	3179.8275	3209.0285
C1OC23C=CCC2CC13	C1O[C@@]23C=CC[C@@H]2C[C@@H]13	
InChI=1S/C8H10O/c1-2-6-4-7-5-9-8(6,7)3-1/h1,3,6-7H,2,4-5H2	InChI=1S/C8H10O/c1-2-6-4-7-5-9-8(6,7)3-1/h1,3,6-7H,2,4-5H2/t6-,7+,8+/m1/s1
