19
gdb 40389	4.22514	1.17877	1.10247	1.6683	78.81	-0.2088	0.072	0.2808	1152.5515	0.159359	-385.790611	-385.783026	-385.782082	-385.822833	30.357	
C	 0.483402677	 1.4353224413	 0.0288755334	-0.177511
O	 1.0485951595	 0.1995930082	-0.4173096052	-0.235036
C	-0.2943372105	 0.1858510213	 0.0725214371	-0.046838
C	-0.5425761297	-0.5627980048	 1.3297552944	 0.3616
C	 0.5451640894	-0.9354102905	 2.2969083267	-0.368006
C	-0.2553170548	-2.0279355035	 1.6340298422	-0.111417
C	-1.696645422	-2.2016176796	 2.1882146228	-0.049666
C	-2.0462643006	-1.2571776171	 3.3056722834	-0.304431
C	-1.9879652964	-0.7404378686	 1.8932776793	-0.123186
H	 0.9016627378	 1.8292453685	 0.953608508	 0.114135
H	 0.2938130044	 2.1689610573	-0.7535233631	 0.11359
H	-1.0447544728	 0.0376028178	-0.7075718204	 0.089174
H	 1.5379427637	-0.817744689	 1.8734463549	 0.131421
H	 0.4906572725	-0.7233332076	 3.358761643	 0.107932
H	 0.212453688	-2.7559616814	 0.9837358377	 0.097205
H	-2.3061613022	-3.0650916066	 1.9557736858	 0.089809
H	-3.0572750803	-1.3788150733	 3.6841773112	 0.112774
H	-1.3380420766	-0.9611504385	 4.0712623929	 0.113373
H	-2.8522348764	-0.310677784	 1.4023632756	 0.085077
70.1865	152.2047	187.8062	313.8858	333.784	430.4204	475.7156	518.1261	652.3598	701.8624	759.5052	798.8801	819.6197	862.1532	888.3124	895.0211	913.2863	941.58	959.6709	984.753	1008.5527	1031.4973	1045.421	1063.6355	1073.1581	1095.6595	1099.2695	1110.6823	1149.192	1173.1061	1174.2786	1189.1488	1255.1395	1282.8704	1288.2393	1325.7621	1385.7051	1441.2561	1482.4585	1510.2902	1520.53	3077.6903	3084.9613	3122.5898	3135.8263	3174.6443	3182.6539	3189.0218	3198.4539	3204.7728	3214.697
C1OC1C12CC1C1CC21	C1O[C@H]1[C@]12C[C@H]1[C@H]1C[C@@H]21	
InChI=1S/C8H10O/c1-4-5(1)8(2-6(4)8)7-3-9-7/h4-7H,1-3H2	InChI=1S/C8H10O/c1-4-5(1)8(2-6(4)8)7-3-9-7/h4-7H,1-3H2/t4-,5+,6-,7+,8-/m0/s1
