16
gdb 68737	2.42199	1.67502	1.3464	4.6746	74.34	-0.2505	0.0192	0.2697	992.3196	0.124809	-400.71712	-400.709546	-400.708602	-400.749012	29.731	
O	 0.0371631029	 1.3626752668	 0.1338573903	-0.437612
C	 0.04181488	-0.0002991944	 0.0044296678	 0.37481
C	-0.2830698234	-0.8328743888	 1.1925847329	-0.36429
C	-1.181577978	-1.0067781986	-0.0295306919	 0.092228
C	-2.5693988236	-0.6943700031	-0.0122924535	 0.209207
N	-3.6971558495	-0.4285077078	-0.0191448313	-0.354774
C	-0.4647639853	-1.7823108352	-1.1107271031	-0.108194
C	-0.192471004	-0.9164658412	-2.3063246417	-0.300883
C	 0.7039800165	-0.7865429962	-1.0953544423	-0.140379
H	-0.1158933214	 1.7558069626	-0.7334425169	 0.297523
H	 0.3534426446	-1.6598206765	 1.4951741043	 0.12341
H	-0.7359677341	-0.2795200429	 2.0091229892	 0.147821
H	-0.3826410685	-2.8619608268	-1.1399335542	 0.10811
H	 0.2543415042	-1.4179015507	-3.1591111775	 0.126099
H	-0.8887729513	-0.1254281934	-2.5710702687	 0.121723
H	 1.7619323008	-1.0181853635	-1.1379096535	 0.105203
113.5215	136.5345	235.4874	291.962	376.3804	402.3144	451.1247	522.4044	543.3125	598.7849	614.8162	688.241	751.033	788.8485	827.5746	873.2122	929.5831	982.1977	984.3462	1017.1373	1060.8641	1074.1824	1091.852	1101.5082	1123.7897	1172.4285	1203.0305	1252.9182	1313.9931	1334.3944	1367.5878	1411.2265	1488.3925	1495.6505	2336.5955	3119.1459	3119.9539	3179.6417	3190.544	3209.3507	3215.9782	3793.0177
OC12CC1(C#N)C1CC21	O[C@@]12C[C@]1(C#N)[C@H]1C[C@@H]21	
InChI=1S/C7H7NO/c8-3-6-2-7(6,9)5-1-4(5)6/h4-5,9H,1-2H2	InChI=1S/C7H7NO/c8-3-6-2-7(6,9)5-1-4(5)6/h4-5,9H,1-2H2/t4-,5+,6-,7+/m0/s1
