16
gdb 84963	2.32593	1.66101	1.1094	4.2319	66.03	-0.2443	-0.0739	0.1704	1074.7506	0.124012	-475.072361	-475.063876	-475.062932	-475.105507	31.45	
C	 0.2171703697	 1.5834780832	-0.018820756	-0.377911
C	-0.0397338422	 0.0781268382	 0.0432044935	-0.033573
N	 0.5635140831	-0.6593785505	-1.0739183945	-0.320069
C	 1.7670945953	-1.2634440805	-0.8336816701	 0.337865
O	 2.4941559678	-1.8235166396	-1.6183716286	-0.35201
C	 1.9819560549	-1.049259774	 0.6763866569	 0.257921
O	 3.011760321	-1.121178285	 1.2925174177	-0.30349
C	 0.6498891384	-0.607108709	 1.2568586053	 0.045374
O	 0.782278595	 0.1881193108	 2.3953129406	-0.428542
H	 1.290370308	 1.7980533161	-0.0233585568	 0.129352
H	-0.2218127959	 2.0087902075	-0.9264189666	 0.117182
H	-0.2249981458	 2.0754449059	 0.8501107551	 0.146538
H	-1.1179384135	-0.1101107591	 0.0544368534	 0.101913
H	 0.2065427555	-0.5960288591	-2.0158615028	 0.262681
H	 0.0853607426	-1.5311631549	 1.4770906622	 0.116044
H	 1.684514866	 0.04680534	 2.7192041207	 0.300723
82.6253	111.5215	220.5945	239.033	255.3425	313.3571	361.2922	390.9827	428.1354	511.7966	551.4905	601.2643	651.5419	667.9746	725.4937	848.3328	880.8401	973.38	1018.5944	1077.4567	1090.6545	1126.1685	1181.7326	1208.4733	1274.081	1316.622	1361.1311	1387.677	1406.972	1414.371	1433.6218	1489.6305	1490.5781	1842.2444	1860.2974	2946.9803	3044.0138	3053.7219	3114.971	3137.4782	3620.7009	3721.868
CC1NC(=O)C(=O)C1O	C[C@H]1NC(=O)C(=O)[C@H]1O	
InChI=1S/C5H7NO3/c1-2-3(7)4(8)5(9)6-2/h2-3,7H,1H3,(H,6,9)	InChI=1S/C5H7NO3/c1-2-3(7)4(8)5(9)6-2/h2-3,7H,1H3,(H,6,9)/t2-,3+/m1/s1
