24
gdb 120625	3.24413	0.76672	0.6922	1.384	87.68	-0.2399	0.0774	0.3172	1775.5081	0.215134	-405.519902	-405.508766	-405.507822	-405.556828	39.875	
C	 0.4075590589	 1.4906844384	 0.2531747118	-0.383865
C	-0.2298426457	 0.1624082583	-0.174047644	-0.22555
C	 0.4891354952	-0.5037056089	-1.3411128728	 0.330199
C	 0.416280045	 0.2504250841	-2.6573129481	-0.467717
N	 1.76977938	-1.1487645743	-0.9859594345	-0.366878
C	 0.6362364424	-1.9853790298	-1.4204445988	-0.080181
C	 0.0751541284	-2.9725845034	-0.4296146561	-0.067055
O	 0.6798990157	-4.2257196722	-0.6809938355	-0.234582
C	 0.2406373896	-5.2291229616	 0.2003628947	-0.223787
H	 1.4633393223	 1.3409956273	 0.4990292202	 0.131512
H	 0.3459245238	 2.2501162898	-0.532755262	 0.112508
H	-0.0936295697	 1.8947874084	 1.1379656465	 0.11017
H	-0.2287561858	-0.5156563959	 0.6834578842	 0.102221
H	-1.2810725858	 0.3215445854	-0.4484596579	 0.091262
H	 0.9008407596	 1.2298160683	-2.5825395116	 0.12384
H	 0.9116218463	-0.3077245219	-3.4582763274	 0.112638
H	-0.6234588829	 0.4189530864	-2.9600342108	 0.120603
H	 2.4455156107	-1.0472137923	-1.7393372007	 0.224528
H	 0.6809066312	-2.4019488856	-2.4261564387	 0.083973
H	 0.2837232075	-2.6448648854	 0.599227318	 0.096607
H	-1.021179761	-3.0513408302	-0.5433154344	 0.080709
H	 0.4839065842	-4.9906513775	 1.2481950957	 0.104123
H	-0.8480678656	-5.3884248624	 0.1315703663	 0.099527
H	 0.7498594257	-6.1555366151	-0.0769557842	 0.125194
49.6416	77.2543	87.2927	111.4094	186.1249	219.939	228.1524	237.2158	275.3861	299.6284	333.2995	379.0248	446.5555	515.6333	571.4044	687.8112	781.3399	838.5381	872.9669	953.9108	966.254	996.6724	1007.2765	1021.7355	1031.5373	1085.3185	1095.1473	1135.4025	1151.3614	1158.1708	1183.182	1211.7117	1237.3907	1272.0512	1284.5239	1322.7067	1340.1164	1380.3258	1397.7929	1405.8416	1415.3726	1472.2297	1473.1962	1483.0205	1485.4806	1490.2526	1499.3132	1502.4554	1507.2058	1510.5701	1523.4151	2942.4672	2965.6625	3006.702	3010.8303	3023.8294	3028.4556	3038.3945	3084.44	3091.704	3099.9425	3107.6043	3111.0978	3114.0325	3114.8509	3493.2201
CCC1(C)NC1COC	CC[C@@]1(C)N[C@H]1COC	
InChI=1S/C7H15NO/c1-4-7(2)6(8-7)5-9-3/h6,8H,4-5H2,1-3H3	InChI=1S/C7H15NO/c1-4-7(2)6(8-7)5-9-3/h6,8H,4-5H2,1-3H3/t6-,7+/m0/s1
