20
gdb 58859	2.50895	1.53476	1.12252	3.1674	80.63	-0.2056	-0.0084	0.1972	1150.9319	0.169469	-403.120589	-403.111496	-403.110552	-403.154463	34.307	
C	-0.0647065299	 1.503369005	 0.222772577	-0.345859
N	-0.0111260013	 0.0549020671	 0.0384066891	-0.152937
C	 0.9200952549	-0.591240539	 0.9448050523	-0.334872
C	-1.3087238798	-0.5227843837	-0.0203042078	 0.296382
C	-2.1455981704	-1.0185128174	 1.1817826553	-0.335564
C	-1.8241520432	-1.974663498	 0.0788868205	-0.136063
C	-2.8233305393	-1.7473152149	-1.0667086552	-0.34733
C	-2.2594900105	-0.3074797703	-1.1674877123	 0.370555
O	-2.3949306291	 0.5749723329	-1.9684463934	-0.324344
H	 0.9353423067	 1.9216232357	 0.0718011642	 0.115963
H	-0.7381798993	 1.9364855062	-0.5191371078	 0.155898
H	-0.4107976417	 1.7944426424	 1.2315828243	 0.092756
H	 0.6790618963	-0.4406578159	 2.0140513674	 0.096253
H	 0.9543826327	-1.6663068682	 0.7464234015	 0.122343
H	 1.9220241021	-0.1850891229	 0.7740033311	 0.126055
H	-1.5633304961	-1.1184927739	 2.0918653529	 0.124663
H	-3.1690850306	-0.6891016813	 1.341546919	 0.116782
H	-1.2418085062	-2.874924185	 0.2242000493	 0.106786
H	-2.5913458489	-2.294602942	-1.9852419616	 0.133545
H	-3.8842994564	-1.8722049269	-0.8291906756	 0.11899
49.3527	126.6637	183.2775	202.7404	256.7347	261.1923	315.5604	376.52	388.5091	452.2575	518.2867	567.7691	646.9047	653.3776	801.2082	844.121	858.295	927.7909	966.929	985.4555	1015.6107	1019.5676	1062.0081	1071.8014	1077.2359	1121.8256	1138.2244	1183.9153	1196.0366	1223.4343	1239.8812	1283.5453	1303.464	1398.8799	1441.4052	1456.1923	1472.4699	1484.4326	1491.2082	1499.8615	1503.3937	1519.1003	1874.3064	2925.5698	2940.2447	3051.689	3064.1852	3071.8605	3107.34	3109.9782	3112.95	3135.5326	3199.9567	3208.3752
CN(C)C12CC1CC2=O	CN(C)[C@]12C[C@H]1CC2=O	
InChI=1S/C7H11NO/c1-8(2)7-4-5(7)3-6(7)9/h5H,3-4H2,1-2H3	InChI=1S/C7H11NO/c1-8(2)7-4-5(7)3-6(7)9/h5H,3-4H2,1-2H3/t5-,7-/m1/s1
