17
gdb 46370	3.5195	1.12322	0.89689	2.7818	68.09	-0.2585	0.0039	0.2624	1255.4903	0.13637	-458.963965	-458.955837	-458.954893	-458.998224	28.724	
O	-0.1101293422	 0.1182529949	 0.2589002105	-0.322985
C	-0.0854909726	 1.2778566113	-0.0010337418	 0.445099
O	-1.0868928558	 2.0452405998	-0.5357979539	-0.237442
C	-0.2546156991	 3.25354936	-0.4926275368	-0.100741
C	 0.9075515579	 2.4437012532	 0.1102913104	-0.207343
C	 1.3597962624	 2.7748965266	 1.5204746314	 0.147681
C	 2.4422520318	 1.8719598396	 2.1512590182	-0.292462
C	 3.2668283761	 3.1721972045	 2.2404175298	-0.069592
O	 2.2361647241	 3.9224648047	 1.5544741361	-0.296307
H	-0.1014589557	 3.6526835425	-1.496283564	 0.131496
H	-0.7025434839	 4.0067271666	 0.1588298672	 0.13436
H	 1.7736495544	 2.3322153038	-0.5469614074	 0.115144
H	 0.4819482074	 2.9350770362	 2.1631626462	 0.084555
H	 2.173878814	 1.4018349806	 3.0971182024	 0.123446
H	 2.8426227416	 1.1135233517	 1.4768117932	 0.125333
H	 3.4341988321	 3.5514774398	 3.2555767013	 0.109156
H	 4.2159361076	 3.1903576941	 1.6934299973	 0.110602
51.4087	67.9941	115.5182	135.4556	271.2753	339.4038	377.5551	546.2466	657.3916	752.7088	776.2246	818.5487	862.2853	920.4798	944.8342	955.2596	976.0929	1005.4994	1030.509	1053.9843	1104.2269	1124.1884	1152.284	1161.3549	1190.3539	1199.1941	1218.3176	1256.5275	1285.4821	1290.0802	1349.3557	1358.8387	1407.1766	1490.3002	1515.8422	1531.9907	1932.6674	2996.3229	3024.8276	3067.3447	3077.7559	3088.4789	3090.6852	3140.8733	3146.2229
O=C1OCC1C1CCO1	O=C1OC[C@H]1[C@H]1CCO1	
InChI=1S/C6H8O3/c7-6-4(3-9-6)5-1-2-8-5/h4-5H,1-3H2	InChI=1S/C6H8O3/c7-6-4(3-9-6)5-1-2-8-5/h4-5H,1-3H2/t4-,5+/m0/s1
