22
gdb 109892	2.37796	1.45622	1.0655	1.8937	82.82	-0.2124	0.0751	0.2875	1231.0772	0.19371	-404.300518	-404.291348	-404.290404	-404.33449	34.488	
C	 0.1406385485	 1.3725961881	 0.3629795236	-0.387118
C	 0.0072137646	-0.1043679648	-0.0177146965	-0.177573
C	-1.4337531266	-0.5905793105	-0.0634723572	 0.033824
C	-1.6971559444	-2.1150112102	-0.1249043317	 0.070832
O	-0.7998467138	-2.9176494443	 0.6685976685	-0.294508
C	-1.7140845462	-2.9137714703	 1.7980054492	-0.076521
C	-2.6480681844	-1.9293105319	 1.0777314038	-0.037412
N	-2.1995858887	-0.5250939871	 1.2201277708	-0.094935
C	-3.2326965253	 0.4838367478	 1.3323963864	-0.331683
H	 1.1903829275	 1.6814357754	 0.3770074861	 0.112049
H	-0.3868659002	 2.0218826496	-0.3455509306	 0.106659
H	-0.2729630839	 1.5528545375	 1.359971405	 0.127584
H	 0.4591984879	-0.2804396365	-1.0030192936	 0.091309
H	 0.5534109324	-0.7293215572	 0.6956270865	 0.114224
H	-1.9864985676	-0.0902202959	-0.8780992112	 0.054997
H	-1.9262099011	-2.5723363578	-1.0896273065	 0.078161
H	-2.1311254324	-3.9154348486	 1.9654573605	 0.096395
H	-1.2491844241	-2.536055444	 2.7141644867	 0.108212
H	-3.7267218521	-2.1000478686	 1.0766066447	 0.073685
H	-3.7803693596	 0.3517327801	 2.2718255336	 0.118715
H	-2.7795135229	 1.4795972468	 1.3488033969	 0.12446
H	-3.9663026777	 0.4608434623	 0.5033387351	 0.088644
76.1767	106.1296	163.3321	204.5977	208.4772	255.9069	279.4573	316.376	401.3495	435.4652	533.108	703.1402	734.0828	794.814	822.4764	838.763	909.1437	926.3033	954.6835	981.6826	1007.2223	1036.435	1060.9746	1077.8946	1113.7174	1138.9935	1156.7541	1163.5888	1188.4775	1199.7056	1206.4156	1243.618	1281.4437	1285.3526	1308.1513	1320.0029	1356.6928	1361.4315	1396.1303	1405.5025	1454.8115	1482.0925	1491.4661	1497.4137	1501.6862	1502.963	1511.0746	2918.2241	2945.1902	3012.3619	3024.5802	3029.4643	3057.0915	3078.6879	3079.0717	3083.8475	3092.6593	3100.0354	3102.5922	3109.5015
CCC1C2OCC2N1C	CC[C@H]1[C@H]2OC[C@H]2N1C	
InChI=1S/C7H13NO/c1-3-5-7-6(4-9-7)8(5)2/h5-7H,3-4H2,1-2H3	InChI=1S/C7H13NO/c1-3-5-7-6(4-9-7)8(5)2/h5-7H,3-4H2,1-2H3/t5-,6+,7+/m0/s1
