19
gdb 56850	2.84527	1.28705	1.06325	4.4846	79.72	-0.2571	0.0332	0.2904	1187.6129	0.159302	-382.035725	-382.027128	-382.026184	-382.069442	32.279	
C	 0.1028645167	 1.4354262705	 0.0834892583	-0.389922
C	-0.1968538482	-0.069704733	 0.0338510344	-0.112532
C	-1.6360230291	-0.3163619762	-0.1487179857	 0.301871
N	-2.7677146986	-0.5125153127	-0.2725333968	-0.325441
N	 0.5237678618	-0.6704332279	-1.0892521771	-0.073463
C	 1.8983555053	-1.117162613	-0.9765312901	-0.046603
C	 2.2181928116	-1.7847447698	 0.3749722015	-0.250818
C	 1.0429138117	-2.7843546698	 0.1338278721	-0.247368
C	 0.7626725586	-2.0915685043	-1.2134186283	-0.033085
H	 1.1737096587	 1.5837995815	 0.2472196439	 0.12837
H	-0.1746038663	 1.9059606301	-0.8619619439	 0.147931
H	-0.4461657858	 1.9138308112	 0.8980384889	 0.134501
H	 0.0703846664	-0.5097246704	 1.0064652204	 0.113997
H	 2.6227927793	-0.704192192	-1.6698933455	 0.100508
H	 3.1891416198	-2.2834943919	 0.3593070681	 0.114755
H	 2.1768438674	-1.1478071355	 1.2642314258	 0.104398
H	 1.3958109269	-3.8087714672	 0.0028937479	 0.114437
H	 0.2213445389	-2.7934160211	 0.8561029591	 0.113154
H	 0.437627585	-2.5791722583	-2.125453293	 0.105311
43.2406	134.183	172.5484	216.216	220.6588	290.7281	314.9899	444.3121	513.6205	531.1764	583.7878	751.9837	777.3618	792.1626	839.1842	848.4674	898.9156	948.7937	960.3486	969.1849	1014.1645	1049.7125	1062.4437	1100.5121	1102.9597	1135.6249	1142.0501	1216.06	1222.9751	1250.8231	1278.0672	1283.5834	1330.2217	1351.5412	1384.5311	1406.2078	1479.408	1486.1334	1495.047	1499.6516	2362.4736	2993.8223	3052.8386	3053.1437	3062.5608	3107.4486	3124.723	3129.2596	3143.2522	3169.4101	3182.8711
CC(C#N)N1C2CCC12	C[C@@H](C#N)N1[C@H]2CC[C@@H]12	
InChI=1S/C7H10N2/c1-5(4-8)9-6-2-3-7(6)9/h5-7H,2-3H2,1H3	InChI=1S/C7H10N2/c1-5(4-8)9-6-2-3-7(6)9/h5-7H,2-3H2,1H3/t5-,6-,7+,9?/m0/s1
