17
gdb 25798	4.12319	1.0626	0.85384	0.7591	80.1	-0.2341	-0.0436	0.1905	1332.8041	0.135986	-418.090105	-418.081068	-418.080124	-418.124982	31.634	
C	 0.0787006527	 1.4972906985	 0.0115148905	-0.491232
C	 0.0222413324	-0.0173705157	-0.0183575752	 0.291049
O	 1.0298354923	-0.7063242266	-0.0704691951	-0.353594
C	-1.2931920802	-0.6461488711	 0.0148768019	 0.219355
C	-2.6011598953	-0.2048369469	 0.0733751735	-0.169811
N	-3.4698472475	-1.2565691518	 0.0799473329	-0.299069
C	-2.7127168163	-2.3473356149	 0.0255641113	 0.360488
C	-3.2216685123	-3.7486477434	 0.0097128783	-0.498279
N	-1.3984592955	-2.0239820675	-0.0149962433	-0.327887
H	 1.1211637187	 1.8167895656	 0.0057474127	 0.143626
H	-0.437842074	 1.9173031078	-0.8581526151	 0.143941
H	-0.4208614887	 1.8855756308	 0.9052018294	 0.142789
H	-2.9545514295	 0.8151558169	 0.1111787542	 0.118061
H	-2.922929208	-4.2761944221	-0.902913464	 0.140682
H	-2.8459679877	-4.3242756525	 0.8628380268	 0.140414
H	-4.3106498333	-3.7256638065	 0.0575498497	 0.16187
H	-0.5923724776	-2.6285250005	-0.0591007285	 0.277596
54.3606	68.652	106.0017	149.0032	150.0968	291.5273	313.7189	386.148	521.1848	563.4485	612.6113	637.0753	689.0783	705.9772	712.4767	875.1144	945.4112	988.3177	1009.8688	1032.301	1043.4867	1063.7791	1116.8559	1205.5591	1244.0013	1322.7498	1374.7397	1395.0255	1418.5568	1431.4266	1467.4735	1475.0397	1483.3863	1498.7222	1528.292	1594.8729	1743.0361	3037.2552	3042.2688	3089.2344	3104.9577	3154.3402	3155.6582	3245.15	3642.6392
CC(=O)C1=CN=C(C)N1	CC(=O)c1cnc(C)[nH]1	
InChI=1S/C6H8N2O/c1-4(9)6-3-7-5(2)8-6/h3H,1-2H3,(H,7,8)	InChI=1S/C6H8N2O/c1-4(9)6-3-7-5(2)8-6/h3H,1-2H3,(H,7,8)
