25
gdb 88943	2.84382	0.88806	0.83947	1.3341	89.09	-0.2514	0.0761	0.3275	1559.6395	0.226292	-389.482487	-389.471552	-389.470608	-389.518273	41.746	
C	-0.0375330293	 1.5480066139	 0.2743445253	-0.402113
C	-0.0146596146	 0.0312697634	 0.0068655991	 0.267622
C	 0.6999550781	-0.6826645695	 1.1685192406	-0.398326
C	-1.465395481	-0.4790904272	-0.0776793289	-0.402471
C	 0.6724826528	-0.2784580758	-1.3485376374	-0.202199
C	 2.1137594552	 0.1695540278	-1.4970344368	-0.03177
C	 3.2705227863	-0.7373404698	-1.1090098724	-0.324384
C	 2.9891914989	-0.434880969	-2.5586457263	 0.085985
O	 2.4149276689	-1.4188052288	-3.3722884405	-0.417611
H	 0.9699133229	 1.9553370544	 0.4062835835	 0.109466
H	-0.5135297713	 2.0891374337	-0.5514282381	 0.105928
H	-0.6012406765	 1.7720498707	 1.1867498375	 0.105668
H	 0.1818867901	-0.4931007397	 2.1154397356	 0.103167
H	 0.7198962847	-1.7674461071	 1.0135507751	 0.10253
H	 1.7330697028	-0.3411277044	 1.2780160655	 0.11701
H	-2.0137296095	 0.0177119672	-0.8857758989	 0.106814
H	-1.4940503073	-1.5575279476	-0.269127937	 0.106757
H	-2.0044762323	-0.2906872906	 0.8573697951	 0.103792
H	 0.6174485349	-1.355273057	-1.5403516456	 0.098839
H	 0.080335307	 0.1947334621	-2.1441531923	 0.092182
H	 2.2804917027	 1.2308662986	-1.335555106	 0.085785
H	 4.1508036147	-0.3105651742	-0.6397001884	 0.106208
H	 3.0128327051	-1.7349918328	-0.7682456588	 0.112435
H	 3.6768355705	 0.2329640117	-3.0781688798	 0.081711
H	 3.0813904865	-2.0941165701	-3.5343748	 0.286974
42.5788	94.7779	133.6498	211.1422	224.8258	259.4737	270.4609	283.4353	301.426	330.2033	356.0403	395.1283	407.2206	449.2179	486.6418	561.4641	753.8658	768.8606	834.3417	872.4436	891.813	921.2323	935.1315	938.2953	958.8607	985.5063	1009.2607	1037.9938	1054.2805	1077.153	1125.2448	1142.2237	1179.2137	1222.4174	1227.691	1241.6632	1271.1734	1294.8713	1311.6718	1346.2957	1397.6936	1399.9272	1404.8485	1424.8306	1432.5173	1477.413	1479.7851	1486.936	1488.0725	1488.5755	1505.5128	1509.6106	1519.2367	3011.5564	3020.6486	3022.229	3030.5095	3070.1164	3084.6404	3087.3872	3090.9781	3092.4257	3094.3082	3097.368	3108.5835	3125.948	3145.9545	3214.3364	3809.6893
CC(C)(C)CC1CC1O	CC(C)(C)C[C@H]1C[C@H]1O	
InChI=1S/C8H16O/c1-8(2,3)5-6-4-7(6)9/h6-7,9H,4-5H2,1-3H3	InChI=1S/C8H16O/c1-8(2,3)5-6-4-7(6)9/h6-7,9H,4-5H2,1-3H3/t6-,7-/m1/s1
