17
gdb 69339	3.30579	1.25536	1.09177	1.6734	75.14	-0.2477	0.0268	0.2745	1147.8942	0.132082	-421.751941	-421.742903	-421.741959	-421.785213	34.394	
C	 0.0737841936	 1.5694792298	 0.0158833077	-0.503343
C	-0.0827594301	 0.0896105706	 0.1277376357	 0.420498
C	-1.3622141498	-0.755254788	-0.003312721	-0.350351
C	-0.7032065418	-1.8167671957	 0.9725411878	 0.217012
O	-1.2749216788	-1.7950207502	 2.2691959988	-0.470754
C	-0.5449030235	-3.1722840479	 0.4662643065	 0.310581
C	-0.458329268	-4.3040855708	 0.069641357	-0.486406
C	 0.5522086297	-0.9150794904	 0.9969925468	-0.077737
O	 0.9844128795	-0.7524770896	-0.3500058401	-0.279794
H	 1.0875134292	 1.8674631564	 0.2961562882	 0.137241
H	-0.1082408816	 1.9026493024	-1.0120789289	 0.132583
H	-0.6386570654	 2.0837682527	 0.6685226988	 0.129773
H	-2.2355804554	-0.313432972	 0.4811817722	 0.113231
H	-1.6017281138	-1.0868714921	-1.0154694514	 0.111967
H	-2.0175222854	-2.4087355117	 2.2731597019	 0.28668
H	-0.3605992467	-5.2997990633	-0.2869601007	 0.201007
H	 1.2815739881	-0.8443769501	 1.7961038509	 0.107811
92.8113	134.3805	182.6806	198.5002	258.3673	304.3885	332.4153	347.8266	431.8339	449.2083	513.1895	581.086	625.1517	633.613	667.4524	679.5783	780.9583	871.7038	881.7305	925.2166	999.004	1016.2344	1016.4825	1050.0869	1076.5196	1144.5969	1189.2363	1221.7686	1231.2632	1265.6799	1371.1477	1403.6765	1444.2309	1473.0031	1485.7768	1497.8429	2231.2129	3035.7765	3070.7956	3099.0556	3123.1	3138.7304	3187.056	3500.7045	3812.0087
CC12CC(O)(C#C)C1O2	C[C@]12C[C@@](O)(C#C)[C@H]1O2	
InChI=1S/C7H8O2/c1-3-7(8)4-6(2)5(7)9-6/h1,5,8H,4H2,2H3	InChI=1S/C7H8O2/c1-3-7(8)4-6(2)5(7)9-6/h1,5,8H,4H2,2H3/t5-,6-,7-/m0/s1
