21
gdb 80830	2.40523	1.67431	1.27839	3.0042	82.35	-0.2287	-0.0019	0.2268	1087.154	0.182763	-387.113106	-387.104526	-387.103581	-387.14574	33.839	
C	-0.1714769192	 1.5316032153	-0.0381745891	-0.436746
C	 0.0052441049	 0.0190980468	-0.0056056371	-0.000322
C	 1.1416630615	-0.6023359438	-0.8772591917	-0.033155
C	 2.1202250707	-0.273466611	 0.2840890212	-0.287428
C	 0.8688722322	-0.5762452909	 1.1851456582	 0.220489
C	 0.7355906477	-0.1576251107	 2.6258954383	-0.506992
C	 0.6993924386	-2.0580557235	 0.8681188928	 0.40844
O	 0.4573870557	-2.9592082299	 1.6268371304	-0.345049
C	 0.9038908312	-2.1085628529	-0.6623227519	-0.341304
H	 0.7665513126	 2.0795423151	 0.0851418997	 0.120262
H	-0.6082259243	 1.8384301514	-0.9949324753	 0.120201
H	-0.8530030106	 1.8594721424	 0.7538058201	 0.123741
H	-0.97676637	-0.4535997253	-0.1326435326	 0.070391
H	 1.3263411893	-0.2605883147	-1.8957916829	 0.066646
H	 3.0024681761	-0.9091784063	 0.4078797366	 0.099735
H	 2.4182588142	 0.7740686505	 0.3298076268	 0.107899
H	 0.8347759332	 0.9256606022	 2.744468541	 0.112244
H	-0.2360120255	-0.4619499481	 3.0287410909	 0.129456
H	 1.5035839033	-0.6396116116	 3.2395878552	 0.129527
H	 0.0161172419	-2.501044146	-1.1682956127	 0.120953
H	 1.7578115664	-2.7396412892	-0.9282799377	 0.121011
121.5002	165.3266	195.0902	209.8345	251.8756	289.9209	328.9164	428.852	461.9704	522.0661	603.6092	618.697	640.6207	757.0666	778.3688	814.442	861.6669	905.9994	950.6004	964.9873	988.5256	1023.7002	1049.4226	1057.1273	1080.9138	1098.6829	1108.8726	1159.2524	1192.1199	1196.7577	1242.4185	1258.63	1262.5013	1296.5695	1342.8214	1394.6742	1413.8511	1416.6764	1462.2852	1486.3778	1486.9891	1496.3358	1498.0011	1518.8539	1860.208	3019.9258	3034.81	3036.4764	3052.5005	3057.7585	3094.3678	3098.8821	3102.9722	3107.0336	3110.803	3111.6973	3132.39
CC1C2CC1(C)C(=O)C2	C[C@H]1[C@H]2C[C@]1(C)C(=O)C2	
InChI=1S/C8H12O/c1-5-6-3-7(9)8(5,2)4-6/h5-6H,3-4H2,1-2H3	InChI=1S/C8H12O/c1-5-6-3-7(9)8(5,2)4-6/h5-6H,3-4H2,1-2H3/t5-,6+,8-/m0/s1
