21
gdb 74006	2.52655	1.58798	1.18592	1.502	86.73	-0.2176	0.0145	0.2321	1142.7191	0.181898	-387.077417	-387.068575	-387.06763	-387.110436	34.219	
C	-0.0723687389	 1.4866189641	 0.1963158458	-0.493795
C	-0.0232317629	 0.0216607801	-0.0892159306	 0.157371
C	-1.0016316018	-0.8435234754	-0.3411557956	 0.087399
C	-2.3983066627	-1.1945551483	 0.1292289537	-0.317732
C	-1.7185202039	-2.4787297973	 0.7423050469	-0.270056
C	-0.5107617334	-2.2557403633	-0.2506655813	 0.393453
C	-0.5763984652	-3.1513062644	-1.4831581703	-0.437328
O	 0.8330624367	-2.1658309201	 0.2170158244	-0.320135
C	 1.2548275425	-0.8029268532	 0.0568184026	-0.165811
H	 0.4962762821	 2.060110099	-0.5472658107	 0.130324
H	-1.1001455943	 1.8593700186	 0.1851037884	 0.126893
H	 0.3699609183	 1.7194123954	 1.1737429741	 0.124632
H	-2.8847390565	-0.4962503444	 0.8131920625	 0.109917
H	-3.0971465534	-1.4505845547	-0.6728688512	 0.112918
H	-1.4086132554	-2.3122116569	 1.7750949858	 0.114111
H	-2.2669483825	-3.420887465	 0.6563541129	 0.095671
H	-1.5925927462	-3.200287961	-1.8874977982	 0.110661
H	 0.0905961378	-2.7793991098	-2.266430422	 0.11797
H	-0.2653015005	-4.1676846065	-1.2206909501	 0.123302
H	 1.9418996219	-0.7139517575	-0.8012864609	 0.096663
H	 1.8153808283	-0.4971321695	 0.9517372238	 0.103573
108.7215	162.1886	165.3915	226.8212	239.9819	260.6777	309.3403	365.0754	400.1992	484.0456	570.3215	625.4782	693.1454	718.2762	790.1386	866.7753	900.3609	904.251	927.5503	942.7012	975.9185	992.4096	1037.4631	1080.6301	1102.3473	1131.2604	1146.2228	1167.6666	1178.2221	1200.2507	1217.4692	1243.3511	1262.9758	1307.7724	1367.8376	1402.4949	1413.328	1467.5582	1478.1051	1484.6468	1488.1749	1490.9295	1492.624	1518.7817	1764.3662	2960.4091	3011.8473	3015.1383	3034.1981	3054.3356	3058.032	3060.8061	3105.3633	3109.42	3110.466	3111.8819	3137.7056
CC1=C2CCC2(C)OC1	C[C]1[C]2CC[C@]2(C)OC1	
InChI=1S/C8H12O/c1-6-5-9-8(2)4-3-7(6)8/h3-5H2,1-2H3	InChI=1S/C8H12O/c1-6-5-9-8(2)4-3-7(6)8/h3-5H2,1-2H3/t8-/m0/s1
