19
gdb 89355	2.65348	1.49875	1.23391	2.93	75.35	-0.2342	-0.003	0.2312	1078.5989	0.159184	-423.035678	-423.027255	-423.026311	-423.068286	32.68	
C	-0.0182024681	 1.5478644145	 0.0115108736	-0.498953
C	-0.0017222924	 0.0406227945	-0.0008597627	 0.203409
C	 0.7173174717	-0.8216392932	-1.1017605324	-0.280078
C	-0.2405057367	-1.9698802474	-0.6357641969	-0.151425
C	 0.2556792501	-2.2115028602	 0.7980990243	 0.123778
O	 1.4781986525	-2.9267702759	 0.7493671649	-0.437493
C	 0.4101911344	-0.7247315484	 1.2816875489	-0.297995
C	-1.2253032596	-0.8058464377	-0.4108855256	 0.399849
O	-2.3777466668	-0.5887712795	-0.6430413977	-0.329051
H	 0.9804400852	 1.9560275297	 0.2015106833	 0.118856
H	-0.3725293171	 1.946115215	-0.9442541778	 0.127073
H	-0.6866704666	 1.9220421907	 0.7942155636	 0.128227
H	 0.5114342543	-0.4752670862	-2.1159630075	 0.112902
H	 1.7810168002	-1.0127085466	-0.9548639002	 0.122479
H	-0.4771066985	-2.8381831108	-1.2453436925	 0.088951
H	-0.4857565	-2.7613142739	 1.3929577882	 0.077157
H	 1.8076755315	-3.0163061265	 1.6496500498	 0.283152
H	 1.4507120879	-0.5203325317	 1.5545210011	 0.102815
H	-0.229286622	-0.4823726563	 2.1359702256	 0.106347
136.9407	154.6927	178.4475	222.5224	255.1816	283.6565	336.585	436.6305	449.6988	520.456	618.5554	672.6452	705.8792	780.2146	801.0912	847.8835	867.7857	921.7365	958.1293	985.5526	1006.4773	1017.8117	1059.6363	1076.3757	1118.2797	1148.9128	1165.9209	1194.5574	1225.5256	1239.5502	1248.7344	1271.8347	1337.9982	1354.0151	1415.1033	1423.1357	1478.6084	1490.9103	1491.3929	1500.6309	1894.4642	3008.4924	3031.6085	3044.0653	3079.9312	3094.4711	3096.9582	3105.031	3148.6855	3158.6577	3811.6175
CC12CC(C(O)C1)C2=O	C[C@@]12C[C@@H]([C@@H](O)C1)C2=O	
InChI=1S/C7H10O2/c1-7-2-4(6(7)9)5(8)3-7/h4-5,8H,2-3H2,1H3	InChI=1S/C7H10O2/c1-7-2-4(6(7)9)5(8)3-7/h4-5,8H,2-3H2,1H3/t4-,5-,7+/m0/s1
