17
gdb 32670	2.9258	1.52649	1.08655	2.6742	77.79	-0.2316	-0.0541	0.1775	1105.0373	0.139115	-414.235492	-414.22762	-414.226676	-414.268198	29.339	
C	 0.0116707799	 1.5479322891	-0.075543917	-0.379991
C	-0.0230612386	 0.0276000824	 0.0763105552	-0.153621
N	-1.3882076278	-0.5140795463	 0.048384049	-0.073805
C	-2.0267522519	-0.8585330007	 1.1807409281	 0.125424
N	-3.2362220743	-1.3355954219	 1.2474900362	-0.31035
C	-3.8341016349	-1.4725165454	 0.0189633806	 0.073448
N	-3.3376543638	-1.1890205657	-1.1433365945	-0.298749
C	-2.0499737166	-0.66996659	-1.2024457894	 0.421028
N	-1.4243150517	-0.330917739	-2.2612584032	-0.569911
H	 1.0489567575	 1.8945391385	-0.049009754	 0.125642
H	-0.4273514212	 1.838999927	-1.0311296702	 0.16319
H	-0.5342127012	 2.0392361059	 0.7359752996	 0.118777
H	 0.5208058507	-0.4460890378	-0.7429663084	 0.15575
H	 0.4268606041	-0.2831283333	 1.0241720173	 0.111675
H	-1.4579676481	-0.7183535731	 2.0982280323	 0.137142
H	-4.8468185491	-1.8715452623	 0.0429983838	 0.126013
H	-2.0273259331	-0.5151453373	-3.0611845553	 0.228337
94.2732	97.9241	176.2009	228.0192	330.7358	359.1135	434.4292	492.2502	547.3451	561.0026	638.548	749.9823	789.4834	795.1094	861.5175	911.8512	976.6961	979.0504	1013.0548	1035.1917	1099.3684	1121.4411	1155.0374	1209.3794	1287.8582	1307.3231	1390.3002	1403.1177	1410.2052	1426.1132	1453.3373	1472.5928	1489.662	1509.6723	1559.9899	1661.4146	1719.0256	3046.631	3059.8574	3110.4899	3128.4343	3150.1312	3151.7859	3156.054	3513.2235
CCN1C=NC=NC1=N	CCN1CN=CN=C1[NH]	
InChI=1S/C5H8N4/c1-2-9-4-7-3-8-5(9)6/h3-4,6H,2H2,1H3	InChI=1S/C5H9N4/c1-2-9-4-7-3-8-5(9)6/h3,6H,2,4H2,1H3
