20
gdb 114006	5.1284	0.63416	0.61554	2.8758	78.57	-0.253	0.0292	0.2823	1851.2379	0.16968	-440.294908	-440.284826	-440.283882	-440.331872	35.073	
C	-0.5102186083	 1.5305106025	-0.6047412421	-0.376894
C	 0.0607760387	 0.2730287479	 0.0631109813	-0.215514
C	-1.0325636906	-0.5899873694	 0.6472223847	 0.080432
O	-1.8236222653	-1.3662541873	-0.2652657059	-0.274908
C	-1.0353617484	-2.0603227078	 0.7153652587	 0.043463
C	 0.0551801897	-2.9561767882	 0.1784681595	-0.193829
N	-0.5197270876	-4.1201020957	-0.4771603231	-0.272197
C	-0.2478635371	-5.3972288682	-0.0984160685	 0.156009
O	 0.5152196201	-5.7177050735	 0.7883779014	-0.322892
H	 0.2881491955	 2.1518877599	-1.020119719	 0.117184
H	-1.1904749973	 1.2588106586	-1.4173355365	 0.134202
H	-1.0709787228	 2.1399029284	 0.1122048527	 0.118315
H	 0.6426491527	-0.2979392125	-0.6657118104	 0.106481
H	 0.7475904404	 0.5560966999	 0.8712035805	 0.106998
H	-1.6354163231	-0.0800887631	 1.4035997984	 0.090327
H	-1.6333452455	-2.5245527596	 1.5021175934	 0.100201
H	 0.6979937786	-2.4119680157	-0.519827526	 0.114201
H	 0.6770438363	-3.3356117007	 0.9934319321	 0.152764
H	-1.1951299479	-3.9609805299	-1.2084928184	 0.258723
H	-0.8108076881	-6.1322418655	-0.7068441929	 0.076934
35.0805	38.5241	80.3529	127.0735	177.6559	219.3091	240.4158	282.1592	344.4089	434.8849	488.8939	561.9074	569.5141	736.8707	754.5032	819.8593	835.72	934.155	968.4461	980.0494	1032.6793	1036.2209	1055.7482	1114.2072	1116.0012	1174.6459	1184.628	1211.3504	1271.8024	1294.6033	1306.0566	1339.1074	1363.337	1408.3508	1422.0134	1428.9453	1469.8489	1483.0316	1493.9824	1498.8104	1509.1629	1530.8682	1804.5874	2940.0602	3031.9153	3038.2153	3056.6001	3069.1888	3088.1549	3094.6665	3110.7941	3118.0314	3120.3221	3633.2711
CCC1OC1CNC=O	CC[C@H]1O[C@H]1CNC=O	
InChI=1S/C6H11NO2/c1-2-5-6(9-5)3-7-4-8/h4-6H,2-3H2,1H3,(H,7,8)	InChI=1S/C6H11NO2/c1-2-5-6(9-5)3-7-4-8/h4-6H,2-3H2,1H3,(H,7,8)/t5-,6+/m1/s1
