22
gdb 13140	3.91651	1.18683	1.00779	0.901	79.15	-0.2413	0.0845	0.3258	1265.8097	0.199222	-350.196533	-350.187168	-350.186224	-350.23091	34.059	
C	-0.3679864283	 1.3689903182	-0.1978329141	-0.384955
C	 0.2364620055	-0.0244704263	-0.157260375	-0.036685
O	 0.1957760183	-0.4940081207	 1.1765826063	-0.25194
C	 0.7140508415	-1.7858322511	 1.3386608767	 0.172838
C	 2.2535894256	-2.0022439307	 1.2857787684	-0.254563
C	 2.106521223	-2.9358280019	 2.5198249221	-0.228444
C	 0.7008465367	-2.3194336992	 2.7967014354	-0.032556
C	 0.6958196424	-1.2313129092	 3.8676045201	-0.381001
H	 0.1973160475	 2.0505735456	 0.4442190639	 0.125313
H	-0.355130188	 1.7622851436	-1.2188029432	 0.112657
H	-1.4032743724	 1.3481952931	 0.1544449319	 0.125364
H	-0.3244071636	-0.7100680243	-0.8155430023	 0.083443
H	 1.2749061578	-0.0042742561	-0.5258283721	 0.089106
H	 0.2035657046	-2.4862899681	 0.6576142465	 0.057433
H	 2.6839295836	-2.4233231626	 0.3742343212	 0.09225
H	 2.781899287	-1.0770208288	 1.5327601749	 0.10715
H	 2.0535539692	-3.9907735209	 2.2384218337	 0.098667
H	 2.8488662484	-2.8268941794	 3.3143565217	 0.097304
H	-0.0942972006	-3.0412586528	 3.0064310458	 0.06483
H	 1.495219089	-0.5011654243	 3.7075718712	 0.114931
H	-0.2506597597	-0.6838249959	 3.8669435064	 0.12348
H	 0.8379575728	-1.6753150985	 4.8587511606	 0.105378
70.2288	87.7015	113.1147	143.7261	214.1066	242.8631	272.8943	338.1694	368.943	435.1712	540.033	680.7434	765.56	819.9496	822.9784	882.6072	901.1514	921.9471	949.1732	968.6567	1020.6719	1057.808	1090.9758	1121.5925	1151.6698	1175.3595	1185.5875	1194.2357	1215.0941	1247.3179	1261.5478	1284.1976	1295.4099	1301.8788	1365.7688	1372.5037	1403.6475	1409.9461	1440.6426	1478.1227	1483.4716	1491.7151	1496.5532	1499.4553	1500.205	1529.7972	2953.9703	2964.4466	2986.3066	3035.6199	3044.0057	3049.9894	3056.8485	3064.4028	3102.0722	3102.89	3114.0369	3118.044	3120.2155	3120.4184
CCOC1CCC1C	CCO[C@H]1CC[C@H]1C	
InChI=1S/C7H14O/c1-3-8-7-5-4-6(7)2/h6-7H,3-5H2,1-2H3	InChI=1S/C7H14O/c1-3-8-7-5-4-6(7)2/h6-7H,3-5H2,1-2H3/t6-,7+/m1/s1
