18
gdb 65835	3.42339	1.10868	1.08772	2.6616	79.31	-0.2611	0.0225	0.2835	1190.3824	0.147021	-401.940687	-401.931958	-401.931014	-401.97386	33.375	
C	 0.3133947127	 1.2740554734	 0.0944935924	-0.432811
C	-0.128858967	-0.2024801165	 0.0112147145	 0.057611
C	 0.6024594382	-0.9216376701	-1.1555327356	-0.107832
O	 1.8778161387	-1.3051802546	-0.6290348792	-0.237435
C	 1.8199180978	-1.4032676338	 0.7369280586	 0.403796
N	 2.7797342394	-1.7604034064	 1.4725397567	-0.54407
C	 0.4359620026	-1.012857895	 1.2059996515	-0.321482
C	-1.5773776378	-0.2993692922	-0.1215197731	 0.261113
C	-2.7711245815	-0.3739774807	-0.2411478714	-0.422993
H	 1.4036308904	 1.3408536055	 0.1601364893	 0.135313
H	-0.0172363939	 1.8260856254	-0.7893040918	 0.128742
H	-0.1168343793	 1.7533723004	 0.9775040314	 0.13254
H	 0.051733177	-1.8130935919	-1.4758926991	 0.119977
H	 0.7704596029	-0.2730445139	-2.0181212852	 0.125575
H	 3.5986889906	-1.9910721907	 0.9068289056	 0.222958
H	 0.472298662	-0.4547209956	 2.1416095586	 0.142216
H	-0.1588968116	-1.9164437207	 1.3731291946	 0.139464
H	-3.8262832912	-0.4412653626	-0.3422614078	 0.197318
86.4912	141.9799	159.9753	195.5598	253.8522	347.6217	357.0094	418.4228	481.0393	526.8787	545.467	570.7105	636.9012	642.3081	677.9132	791.8683	852.903	896.3311	929.2366	950.5747	965.7895	981.7377	1016.1976	1094.7973	1109.8036	1185.0823	1198.3385	1221.3781	1271.7576	1277.3368	1320.1931	1391.6771	1416.6424	1469.9768	1491.7999	1499.283	1521.7017	1782.9543	2237.7012	3042.2014	3044.2735	3065.5361	3110.9887	3120.3041	3125.8737	3137.3988	3470.4018	3500.5392
CC1(COC(=N)C1)C#C	C[C@]1(CO[C]([NH])C1)C#C	
InChI=1S/C7H9NO/c1-3-7(2)4-6(8)9-5-7/h1,8H,4-5H2,2H3	InChI=1S/C7H9NO/c1-3-7(2)4-6(8)9-5-7/h1,8H,4-5H2,2H3/t7-/m0/s1
