19
gdb 85044	2.48204	1.43411	1.08408	3.0857	70.78	-0.2523	-0.0297	0.2226	1142.7581	0.157993	-460.190078	-460.180921	-460.179977	-460.223643	34.71	
C	 1.0526080374	 1.4832272886	 0.0533440755	-0.392227
C	 0.1879522018	 0.2205072894	 0.001100323	-0.068647
C	 0.5395136729	-0.7184095219	-1.1828542205	 0.1149
O	 0.7515359478	 0.0443700664	-2.3547520431	-0.427852
C	 1.7794663694	-1.5203488433	-0.7109766813	-0.370682
C	 1.7341023467	-1.4223428966	 0.8083436523	 0.371038
O	 2.581603552	-1.7443333993	 1.6048435619	-0.332515
C	 0.443517498	-0.7101263896	 1.2056948613	 0.061211
O	 0.5350924081	-0.0961484888	 2.4578263766	-0.44363
H	 2.1224612843	 1.2496063102	 0.0956945443	 0.114103
H	 0.8823410829	 2.0980563294	-0.8319430295	 0.132565
H	 0.8084814661	 2.0598951805	 0.9478641104	 0.133438
H	-0.8650818012	 0.5102205185	-0.0541110536	 0.085397
H	-0.3012562404	-1.4132367209	-1.3314283911	 0.074498
H	 0.87759831	-0.5607677805	-3.0920411995	 0.286903
H	 1.7982439782	-2.5613741253	-1.0473492357	 0.129149
H	 2.7006130562	-1.045337366	-1.0653852695	 0.148542
H	-0.3468077951	-1.4866005514	 1.2109129291	 0.090685
H	 1.3214266949	-0.4767206896	 2.8780457094	 0.293124
86.8382	118.4442	207.8431	239.6914	260.0658	269.8217	271.7602	345.563	398.3109	444.937	480.552	518.5492	575.7848	617.6423	703.1114	760.1365	797.3688	893.5131	943.6826	969.8766	1034.5526	1068.5257	1102.1692	1116.0737	1134.5118	1182.7285	1191.2084	1219.0162	1244.5758	1257.0269	1294.6286	1356.1576	1367.3506	1387.6242	1406.4244	1415.9299	1433.4266	1450.6154	1497.4899	1498.807	1835.9278	2911.5845	2976.0507	3043.8614	3055.9008	3068.6008	3100.5613	3115.8093	3145.8829	3711.1543	3823.2771
CC1C(O)CC(=O)C1O	C[C@H]1[C@@H](O)CC(=O)[C@H]1O	
InChI=1S/C6H10O3/c1-3-4(7)2-5(8)6(3)9/h3-4,6-7,9H,2H2,1H3	InChI=1S/C6H10O3/c1-3-4(7)2-5(8)6(3)9/h3-4,6-7,9H,2H2,1H3/t3-,4-,6-/m0/s1
