18
gdb 25712	4.03139	0.78488	0.77361	2.1561	86.73	-0.2009	0.0348	0.2358	1572.904	0.147747	-364.818207	-364.808993	-364.808049	-364.855183	32.371	
C	 0.0199386203	 1.5075323657	 0.0026685641	-0.496539
C	 0.0139055131	 0.0525670383	 0.0345167625	 0.043556
C	 0.0020662827	-1.1504381387	 0.0604053027	 0.112692
C	-0.0142399862	-2.6129379526	 0.0917816447	-0.347881
N	-1.3472285964	-3.1949414662	 0.0253695384	 0.052456
C	-2.162256327	-3.4407480705	 1.1038232321	-0.092571
C	-3.3667973856	-3.9086361258	 0.6338852707	-0.166284
C	-3.2823303591	-3.9400597208	-0.7861040693	-0.166287
C	-2.02936897	-3.4901852269	-1.1301688452	-0.092571
H	 0.5888266691	 1.8854218014	-0.8537802591	 0.149945
H	-0.9992226388	 1.9012889856	-0.0759472319	 0.155506
H	 0.4678480437	 1.9246215733	 0.9111569934	 0.149944
H	 0.5707326763	-3.0144537367	-0.7435818167	 0.143661
H	 0.4665787242	-2.9757228728	 1.0074472031	 0.14366
H	-1.810495477	-3.2591066055	 2.1071625418	 0.113747
H	-4.2081433874	-4.2072404878	 1.2402895579	 0.09161
H	-4.0466760553	-4.2673099824	-1.474171268	 0.09161
H	-1.5607243765	-3.3520261877	-2.0917837912	 0.113747
18.6227	24.3089	60.8697	175.9882	193.2894	315.4036	334.8158	373.2611	454.7466	622.9078	624.624	678.8142	732.7627	739.6164	769.5723	798.567	847.9546	884.5011	966.0874	984.7944	1051.7151	1054.4902	1080.4423	1095.2994	1112.1293	1163.2314	1215.4537	1302.0895	1308.6427	1376.7194	1414.6215	1423.4937	1430.6629	1466.4686	1476.8157	1478.1912	1531.3085	1562.6927	2376.4443	3028.9726	3034.1072	3068.357	3090.3673	3092.0368	3238.0516	3248.5971	3261.0563	3269.2967
CC#CCN1C=CC=C1	CC#CCn1cccc1	
InChI=1S/C8H9N/c1-2-3-6-9-7-4-5-8-9/h4-5,7-8H,6H2,1H3	InChI=1S/C8H9N/c1-2-3-6-9-7-4-5-8-9/h4-5,7-8H,6H2,1H3
