19
gdb 45307	3.31286	1.34376	1.14366	2.7623	79.27	-0.2322	-0.0147	0.2175	1106.2775	0.161258	-385.938483	-385.93094	-385.929995	-385.971991	29.48	
O	-0.0168351246	-0.0474585772	-0.0562187844	-0.308282
C	-0.026190631	 1.1548094044	-0.0085491905	 0.398184
C	-1.2735608681	 2.0330843333	 0.1377865079	-0.346982
C	-0.7725245362	 3.4207642985	 0.5499450408	-0.013179
C	-0.7237187584	 3.7028299036	 2.0775729753	-0.272631
C	 0.616411458	 4.3712129995	 2.2726707636	-0.059814
C	 1.3907981627	 4.2768232851	 1.1929865516	-0.078858
C	 0.7236058075	 3.5131088037	 0.0746596378	-0.063099
C	 1.2162666614	 2.0539021906	-0.0875701454	-0.334479
H	-1.7556959746	 2.0606033709	-0.8487311622	 0.127907
H	-1.9906480849	 1.575171159	 0.8238656347	 0.127736
H	-1.3561314432	 4.2109619424	 0.0719294026	 0.079699
H	-1.5642312902	 4.3239888816	 2.407534017	 0.106897
H	-0.7838116259	 2.7762799896	 2.6676475628	 0.108301
H	 0.9042043514	 4.8369207155	 3.2091064194	 0.094248
H	 2.4058029622	 4.6516105766	 1.1150271956	 0.09381
H	 0.8017174237	 4.0358661936	-0.8842977992	 0.076251
H	 1.899713809	 1.753286614	 0.7139520017	 0.134439
H	 1.7388897912	 1.8646303954	-1.0302561691	 0.129851
18.7806	87.4833	246.1308	333.0411	417.5888	453.9251	496.4944	548.6154	627.0283	672.4047	749.4568	765.4644	777.2309	787.8043	809.8188	916.8811	939.7642	974.6651	977.1952	990.0305	1042.9458	1057.3744	1079.548	1129.1671	1139.6286	1144.8138	1189.8394	1201.8022	1231.7515	1264.21	1292.1994	1306.895	1312.4072	1335.4071	1355.7507	1378.5503	1444.5274	1450.784	1490.1038	1685.3598	1841.8272	2999.4397	3027.8307	3039.8751	3048.9504	3051.8822	3076.779	3093.7984	3100.232	3177.6627	3203.124
O=C1CC2CC=CC2C1	O=C1C[C@H]2CC=C[C@H]2C1	
InChI=1S/C8H10O/c9-8-4-6-2-1-3-7(6)5-8/h1-2,6-7H,3-5H2	InChI=1S/C8H10O/c9-8-4-6-2-1-3-7(6)5-8/h1-2,6-7H,3-5H2/t6-,7+/m0/s1
