20
gdb 18051	3.3827	2.10583	1.56304	1.2694	74.38	-0.2375	0.0847	0.3222	884.5409	0.180265	-349.005318	-348.998483	-348.997539	-349.036025	27.823	
C	-0.0101325294	 1.5915174208	-0.0958530932	-0.237361
C	 1.5343987118	 1.5128166116	 0.0650022839	-0.228025
C	 1.3590997293	 0.1110996382	 0.68630115	 0.116712
O	 1.2881039495	 0.2594508458	 2.0956068009	-0.266909
C	 0.4534166044	-0.7006832095	 2.723755474	-0.06213
C	-1.0044436594	-0.5059935127	 2.3084533881	-0.199705
C	-1.1463772096	-0.6958551183	 0.7902639975	-0.236815
C	-0.0486545716	 0.038303631	 0.0211984471	 0.021514
H	-0.4782193385	 2.08423597	 0.7595612907	 0.108229
H	-0.4065388703	 2.0299990733	-1.0144969772	 0.091971
H	 2.0469011076	 1.4662389051	-0.899735048	 0.097402
H	 2.0262437706	 2.24930468	 0.7030605918	 0.10616
H	 2.0825494023	-0.6766276726	 0.4288534114	 0.052888
H	 0.787956699	-1.724526403	 2.47947528	 0.079641
H	 0.5851537684	-0.5559890293	 3.8002191085	 0.102488
H	-1.6480731046	-1.2126313864	 2.8446241537	 0.09106
H	-1.3142441376	 0.5028861599	 2.6055211521	 0.104686
H	-1.0732604323	-1.7689207558	 0.5663595882	 0.093966
H	-2.1368225542	-0.3754624792	 0.4449722586	 0.095233
H	 0.0572829348	-0.3909626388	-0.9810010883	 0.068994
153.9081	170.4402	298.4163	341.9564	373.473	448.1471	490.1747	621.9954	663.3161	743.4672	824.5737	844.3483	875.3122	900.0621	921.4915	938.1164	953.5491	977.3837	1030.1529	1065.4828	1082.5875	1109.3399	1142.2928	1147.8614	1202.5454	1223.5757	1245.5034	1253.4577	1265.8116	1278.2592	1293.3363	1321.2984	1349.5388	1357.0967	1376.3025	1390.4518	1412.811	1470.2175	1477.3877	1484.9107	1493.444	1502.622	2952.3737	2985.1049	3009.6373	3031.3626	3046.1073	3052.4135	3064.0634	3068.7551	3076.0496	3080.8456	3114.1643	3130.0344
C1CC2OCCCC12	C1C[C@H]2OCCC[C@@H]12	
InChI=1S/C7H12O/c1-2-6-3-4-7(6)8-5-1/h6-7H,1-5H2	InChI=1S/C7H12O/c1-2-6-3-4-7(6)8-5-1/h6-7H,1-5H2/t6-,7+/m0/s1
