20
gdb 56634	2.07605	1.33631	1.15064	5.1654	79.15	-0.2693	0.0432	0.3125	1208.4604	0.16888	-403.152582	-403.142517	-403.141573	-403.18729	37.201	
C	-0.4318941409	 1.3131364678	 0.016967705	-0.403148
C	 0.1002229433	-0.1305078455	-0.0858764633	-0.193952
C	 0.969438678	-0.269756435	-1.2631671367	 0.280638
N	 1.6607850935	-0.3583129067	-2.1853225755	-0.338161
C	 0.8337901878	-0.5962645802	 1.1789802307	 0.334842
C	 2.1379900249	 0.1103764952	 1.4966068727	-0.477634
C	-0.0426226021	-1.0291828392	 2.3434839733	-0.384689
C	 0.7213195942	-2.0537367295	 1.5371971289	 0.062951
O	 0.0256038975	-2.8783338149	 0.648869218	-0.417044
H	 0.3833531381	 2.0318297005	 0.1298260229	 0.137137
H	-0.9956304295	 1.580881655	-0.8800731344	 0.135225
H	-1.0926455785	 1.3995042502	 0.8837490076	 0.125005
H	-0.7423844184	-0.810297957	-0.245033434	 0.13613
H	 1.9756948359	 1.1696099497	 1.7226357888	 0.122559
H	 2.6187468428	-0.3395578294	 2.3701983492	 0.117504
H	 2.8365885588	 0.0448413171	 0.6562437097	 0.147455
H	 0.2837721142	-0.7945844226	 3.3511832459	 0.115038
H	-1.1182037669	-1.0087546847	 2.1982335398	 0.114007
H	 1.5975113359	-2.514098646	 1.9934550635	 0.093279
H	-0.4588192988	-3.5329665047	 1.162447988	 0.292858
53.8034	130.879	181.5043	193.3381	220.2658	235.1391	252.3511	281.4934	296.4277	364.4364	401.995	463.4657	515.5358	543.0342	602.8117	723.462	806.2477	846.0178	888.9663	933.8587	952.5616	1012.8788	1038.4945	1042.4961	1088.4346	1109.5058	1114.3587	1141.5729	1175.2051	1256.3093	1270.5587	1316.6539	1328.883	1365.4514	1409.0387	1422.5905	1429.7949	1485.9327	1490.6589	1493.0541	1503.9251	1510.0491	2354.2813	3035.6701	3051.6911	3072.2824	3099.6961	3102.8418	3110.4715	3126.0734	3127.4008	3132.3215	3214.59	3809.2077
CC(C#N)C1(C)CC1O	C[C@@H](C#N)[C@@]1(C)C[C@H]1O	
InChI=1S/C7H11NO/c1-5(4-8)7(2)3-6(7)9/h5-6,9H,3H2,1-2H3	InChI=1S/C7H11NO/c1-5(4-8)7(2)3-6(7)9/h5-6,9H,3H2,1-2H3/t5-,6+,7+/m0/s1
