18
gdb 44904	2.76672	1.76794	1.54361	3.1535	77.21	-0.2466	0.0051	0.2517	939.7856	0.151654	-401.986578	-401.979873	-401.978928	-402.01742	27.829	
N	-0.0540804481	 1.2633687517	 0.0002081596	-0.554451
C	-0.0314103788	 0.003442079	-0.0184207885	 0.434877
O	 1.1027127453	-0.7703331004	-0.056577579	-0.257349
C	 0.7259534469	-2.1701640619	-0.1285165731	 0.084617
C	-0.6609859353	-2.1223636222	-0.7830644801	-0.24564
C	-1.2278731095	-0.9358855574	 0.0166230923	-0.14202
C	-1.424025047	-1.376022732	 1.4594146548	-0.068266
C	-0.5599464344	-2.2167083184	 2.0298508051	-0.051845
C	 0.6430630702	-2.7514729145	 1.2895153506	-0.256574
H	 0.8965031399	 1.6385569699	-0.0108108123	 0.220141
H	 1.4925377319	-2.6711301675	-0.7226622179	 0.08813
H	-0.5811154977	-1.8910417117	-1.8490723552	 0.112157
H	-1.2312947234	-3.0434851442	-0.6505578057	 0.111242
H	-2.1158894352	-0.4667956323	-0.4020761741	 0.096104
H	-2.2604928425	-0.9620416379	 2.0122240518	 0.100915
H	-0.6912875168	-2.5291612731	 3.0621964856	 0.094256
H	 0.6094712659	-3.8488559303	 1.2374728169	 0.110367
H	 1.5654663288	-2.5005701667	 1.8289446793	 0.123341
137.4205	213.3663	342.8467	379.0897	430.1687	464.95	509.908	629.306	672.221	709.4444	734.6985	829.7371	854.8743	876.2237	894.5296	917.5648	926.8328	944.4213	978.0868	994.8576	1031.1929	1049.8102	1058.2287	1091.1923	1140.2378	1178.1367	1211.9525	1235.1703	1271.3487	1297.1812	1326.0885	1338.5919	1367.9042	1385.3153	1405.9276	1461.673	1490.5688	1704.2406	1783.1468	3012.5563	3047.0127	3062.9053	3096.8268	3125.1454	3137.3438	3161.5304	3191.5518	3465.0202
N=C1OC2CC1C=CC2	[NH][C]1O[C@@H]2C[C@H]1C=CC2	
InChI=1S/C7H9NO/c8-7-5-2-1-3-6(4-5)9-7/h1-2,5-6,8H,3-4H2	InChI=1S/C7H9NO/c8-7-5-2-1-3-6(4-5)9-7/h1-2,5-6,8H,3-4H2/t5-,6+/m1/s1
