19
gdb 66831	2.66554	1.89634	1.44033	1.131	78.66	-0.2262	0.0778	0.304	968.8787	0.159622	-385.817913	-385.81043	-385.809486	-385.849251	30.806	
C	-0.0868625691	 1.4046060922	-0.0106841968	-0.519074
C	-0.0022848119	-0.0883478738	 0.0732600852	 0.308708
C	 0.2037908187	-1.0011107616	-1.1724777085	-0.217972
C	 0.9517026528	-2.1845951082	-0.5237168188	-0.049297
C	 1.9513204125	-1.5857980167	 0.4978630035	-0.247189
C	 0.6893127582	-0.9661361001	 1.1468000473	-0.09892
C	-0.1851898617	-2.1467996821	 0.5719160176	-0.142855
C	-1.0187679634	-1.1327463537	-0.2854333042	 0.324226
O	-2.3609082296	-0.965164565	-0.5189816845	-0.459237
H	 0.9064512976	 1.8593638745	-0.1051610046	 0.116151
H	-0.6796733177	 1.7124114201	-0.8783046163	 0.124393
H	-0.5652765838	 1.8280627359	 0.8797786341	 0.120611
H	 0.3035444059	-0.5749475208	-2.1630945408	 0.081857
H	 1.1843062088	-3.0593889066	-1.1309538487	 0.059651
H	 2.3904684863	-2.3610283976	 1.1340947912	 0.0945
H	 2.7379325924	-0.918056855	 0.1319098929	 0.089259
H	 0.6591484663	-0.6362555287	 2.1853665103	 0.060984
H	-0.5291772434	-3.0033029475	 1.1468008538	 0.06766
H	-2.6448699488	-1.6266016952	-1.1603729128	 0.286545
177.4444	191.5413	245.6808	282.5668	292.9271	358.3872	457.6631	568.9078	608.0287	634.5597	725.7567	746.8833	792.6164	823.2137	837.8791	873.8294	904.9495	923.4012	933.7866	969.0449	988.8664	1030.9654	1037.407	1058.6591	1087.2705	1114.0073	1148.7948	1165.3545	1186.9401	1201.6733	1203.3056	1241.5504	1260.5933	1273.7575	1297.7477	1350.2459	1417.9349	1484.5214	1488.8243	1490.9988	1512.4877	3021.2058	3039.4653	3078.908	3094.5806	3096.5665	3110.8266	3112.3211	3146.1149	3191.4841	3783.3554
CC12C3C4CC1C4C23O	C[C@@]12[C@H]3[C@H]4C[C@@H]1[C@H]4[C@@]23O	
InChI=1S/C8H10O/c1-7-4-2-3-5(4)8(7,9)6(3)7/h3-6,9H,2H2,1H3	InChI=1S/C8H10O/c1-7-4-2-3-5(4)8(7,9)6(3)7/h3-6,9H,2H2,1H3/t3-,4+,5-,6+,7-,8-/m0/s1
