15
gdb 125318	4.18282	0.98214	0.84822	3.0809	72.82	-0.2627	-0.0191	0.2436	1322.6128	0.11304	-412.999438	-412.990995	-412.990051	-413.034214	29.022	
C	 0.2731993586	 1.4403620747	-0.0439257641	-0.482715
C	 0.0637541937	-0.0376412872	-0.030334474	 0.309747
C	 0.3207384246	-0.9770562017	-1.0008781625	-0.180595
N	-0.0556679096	-2.1554152004	-0.4408583174	 0.064795
C	-0.0585054206	-3.494743263	-0.9928806477	-0.275819
C	 1.2617922869	-3.9110870814	-1.4771010133	 0.271573
N	 2.2916733609	-4.237648393	-1.8839330939	-0.289151
N	-0.5249383642	-1.9613280966	 0.8116797414	-0.135994
N	-0.4536550343	-0.6893818355	 1.0560872408	-0.240453
H	 0.9706651274	 1.7428712637	 0.7432476873	 0.148507
H	 0.6765768298	 1.7707615325	-1.0040355791	 0.127406
H	-0.6681695054	 1.9692310001	 0.134067555	 0.146553
H	 0.734013869	-0.9120698917	-1.9934924097	 0.15968
H	-0.3897496043	-4.1564828315	-0.1882794866	 0.197931
H	-0.7784031025	-3.5735059889	-1.8154214261	 0.178536
39.2462	55.3406	87.188	201.3484	265.159	318.0831	371.8866	397.5587	478.0712	636.7921	669.7935	711.2781	788.3423	803.6227	941.4465	966.0437	997.3497	1037.2882	1059.0736	1066.6646	1133.8815	1204.6223	1288.7056	1321.0948	1363.3369	1386.3131	1423.0262	1453.5827	1474.8637	1478.2228	1504.3256	1598.3243	2372.392	3045.7001	3050.9293	3104.918	3114.745	3127.3595	3281.071
CC1=CN(CC#N)N=N1	Cc1cn(CC#N)nn1	
InChI=1S/C5H6N4/c1-5-4-9(3-2-6)8-7-5/h4H,3H2,1H3	InChI=1S/C5H6N4/c1-5-4-9(3-2-6)8-7-5/h4H,3H2,1H3
