18
gdb 33029	4.5785	0.8743	0.78102	1.9407	81.76	-0.2467	-0.024	0.2227	1450.7441	0.149842	-402.006486	-401.998228	-401.997284	-402.040318	30.51	
O	 0.1248310416	 1.428924489	 0.1766562781	-0.415908
C	 0.0508027321	 0.0156450253	 0.2405672104	-0.053611
C	-1.3448014889	-0.5213102564	-0.1251407465	-0.300355
C	-1.3978936303	-2.0264500235	-0.0547714479	 0.317472
N	-0.7842175865	-2.6871662839	-1.0488210854	-0.307584
C	-0.7794315789	-4.0203798805	-1.0082934094	-0.003958
C	-1.3746822927	-4.7673187468	 0.0046472465	-0.125272
C	-2.0087575009	-4.0818228036	 1.0349138799	-0.073431
C	-2.0196245986	-2.692060366	 1.0054842936	-0.167518
H	 0.0175800776	 1.6864908896	-0.7445886149	 0.282424
H	 0.7992800758	-0.4657634876	-0.4046951774	 0.108874
H	 0.2900089618	-0.2494070609	 1.2760785633	 0.110829
H	-2.0852458921	-0.0717338714	 0.5435487603	 0.105927
H	-1.5808192773	-0.2094452828	-1.1496091724	 0.106693
H	-0.2752835887	-4.5198759949	-1.8329171268	 0.106948
H	-1.3408846329	-5.8506193985	-0.0190547175	 0.101433
H	-2.4891775091	-4.6191732813	 1.8462275786	 0.107665
H	-2.506297382	-2.1231423956	 1.7905128976	 0.099371
48.1391	100.1399	105.3394	264.9966	305.1956	350.0465	365.9633	418.6715	520.0897	617.7579	645.49	775.3467	783.5145	796.3676	856.7034	916.0752	982.5098	1005.8172	1010.0311	1016.9674	1036.9641	1071.5245	1074.7212	1121.3974	1154.9216	1176.8334	1241.7156	1284.8321	1308.9411	1317.5089	1339.4371	1392.8771	1413.916	1464.8861	1480.3115	1506.8309	1512.4917	1612.9736	1631.718	3007.5711	3034.9577	3070.5838	3097.2673	3148.9857	3175.2101	3190.2732	3202.5166	3815.5913
OCCC1=NC=CC=C1	OCCc1ncccc1	
InChI=1S/C7H9NO/c9-6-4-7-3-1-2-5-8-7/h1-3,5,9H,4,6H2	InChI=1S/C7H9NO/c9-6-4-7-3-1-2-5-8-7/h1-3,5,9H,4,6H2
