21
gdb 98218	2.25238	1.12746	0.95632	1.3857	79.89	-0.244	-0.0419	0.2021	1383.9448	0.178287	-424.278385	-424.267338	-424.266394	-424.315334	38.63	
C	-0.643116451	 1.733529223	-0.091805344	-0.381116
C	-0.41740377	 0.2359503072	-0.2786398071	-0.284383
C	-1.4058225466	-0.6337262542	 0.4734947381	 0.370483
O	-2.2201628026	-0.191240723	 1.2513462466	-0.31249
C	-1.3515447165	-2.1423218307	 0.1521165315	-0.16346
C	-1.6831505496	-2.9903371818	 1.3841289443	-0.416351
C	-2.3087992822	-2.336218042	-1.0436713888	 0.379521
C	-3.7755545844	-2.5460641297	-0.7327726999	-0.483547
O	-1.887716933	-2.2651004123	-2.1751755304	-0.303071
H	 0.1150952538	 2.3079425175	-0.6308052193	 0.113903
H	-1.6275266358	 2.0299470723	-0.4640124222	 0.129959
H	-0.5998695099	 2.0055387768	 0.965708467	 0.132765
H	-0.4576126909	-0.0619665194	-1.3349845588	 0.14766
H	 0.5876407076	-0.0597965724	 0.0566130301	 0.125848
H	-0.357493229	-2.3775154761	-0.2379269145	 0.102729
H	-0.8896960428	-2.8932443829	 2.1308971059	 0.125924
H	-2.6127639765	-2.6565313989	 1.84834025	 0.146215
H	-1.7710312076	-4.0493101383	 1.1248314249	 0.119107
H	-4.120220616	-1.7891563487	-0.0204114786	 0.162656
H	-4.3537884154	-2.495560536	-1.6557325107	 0.141969
H	-3.9306987617	-3.5220544504	-0.2604442941	 0.145676
46.7605	57.6058	87.2155	148.1277	188.0678	198.8763	201.709	209.4814	257.832	295.4662	355.1173	457.0066	483.7282	534.65	597.0579	661.6053	736.9088	785.612	819.4172	939.3288	970.8567	1007.1392	1019.2503	1039.2367	1085.9919	1102.8593	1117.0359	1141.2329	1207.9186	1262.5418	1287.0101	1344.6534	1377.2618	1382.8094	1408.2715	1414.3197	1452.4797	1463.7282	1472.1666	1493.6858	1495.7622	1498.5738	1503.9921	1787.5388	1810.4812	3014.4154	3042.4317	3048.3727	3050.6353	3051.7484	3076.6367	3105.6599	3112.0433	3122.2794	3127.6764	3142.0365	3156.6514
CCC(=O)C(C)C(C)=O	CCC(=O)[C@@H](C)C(=O)C	
InChI=1S/C7H12O2/c1-4-7(9)5(2)6(3)8/h5H,4H2,1-3H3	InChI=1S/C7H12O2/c1-4-7(9)5(2)6(3)8/h5H,4H2,1-3H3/t5-/m0/s1
