19
gdb 38123	2.40728	2.23323	1.57678	2.4094	78.3	-0.2459	-0.0035	0.2424	910.0061	0.162809	-385.862323	-385.855821	-385.854877	-385.892665	28.2	
C	 0.0151010643	 1.5916016131	-0.0081014642	-0.211036
C	 1.5274046601	 2.0386842707	-0.0796935435	-0.30436
C	 2.126016628	 0.7189963378	 0.370297456	 0.40649
C	 1.4196016393	-0.3136949988	-0.5001099768	-0.265005
C	 0.0116200288	 0.002811594	 0.045915335	-0.05284
C	 0.0041064072	-0.6392516573	 1.4358825772	-0.050595
C	 1.0883699506	-0.5683560077	 2.2249877215	-0.147111
C	 2.0732812606	 0.4708450367	 1.8085750335	-0.012833
O	 3.3183969988	 0.3615146306	 1.0507296369	-0.334317
H	-0.4755551928	 2.0145817095	 0.8714513713	 0.109254
H	-0.5384678473	 1.9320259158	-0.8870888016	 0.104364
H	 1.8136179488	 2.3197874143	-1.0983159588	 0.09848
H	 1.7486806322	 2.8733789247	 0.5880327479	 0.10563
H	 1.53078514	-0.0743829933	-1.5641519713	 0.088721
H	 1.7406288863	-1.338000892	-0.3192213137	 0.109564
H	-0.8125743504	-0.3955816948	-0.5490838564	 0.065814
H	-0.8553143301	-1.2417321917	 1.7195725252	 0.095999
H	 1.1575174362	-1.085040251	 3.1769317951	 0.094929
H	 2.1102512294	 1.3390902594	 2.4688100668	 0.098852
211.9097	291.6247	350.4045	391.0266	464.6473	494.3095	498.2002	586.0749	647.3356	703.7672	763.1115	780.8253	841.2762	877.0415	890.5094	899.8107	931.0145	952.5592	976.5382	985.1607	1003.2575	1027.3736	1054.0251	1086.1263	1143.6787	1150.623	1186.7578	1201.6016	1209.5994	1227.6042	1275.2862	1305.4486	1321.676	1335.5683	1350.1483	1387.215	1479.255	1489.1792	1497.4913	1516.2608	1646.6615	3038.9769	3049.3795	3063.3328	3083.8564	3087.2863	3104.722	3121.725	3145.3692	3155.1947	3183.2401
C1CC23CC1C=CC2O3	C1C[C@]23C[C@H]1[CH][CH][C@H]2O3	
InChI=1S/C8H10O/c1-2-7-8(9-7)4-3-6(1)5-8/h1-2,6-7H,3-5H2	InChI=1S/C8H10O/c1-2-7-8(9-7)4-3-6(1)5-8/h1-2,6-7H,3-5H2/t6-,7+,8-/m0/s1
