16
gdb 98816	3.22544	1.13224	0.94939	2.0906	67.14	-0.2705	-0.0066	0.2639	1242.8781	0.123589	-475.046851	-475.038018	-475.037074	-475.081731	30.44	
C	-0.1954715935	 1.3628756867	 0.0590156202	-0.242138
O	-0.1842615334	-0.0598941984	-0.1347267678	-0.227375
C	 0.6759256828	-0.5076875028	-1.0588242964	 0.461555
O	 1.3757897847	 0.1954094944	-1.7431041091	-0.360606
C	 0.6673564263	-2.0213408291	-1.103028649	-0.268585
C	 1.3874471643	-2.6700073433	-2.2971224208	-0.093892
O	 2.3800478373	-3.2576080475	-1.3929893875	-0.248388
C	 1.7881181507	-2.6790047234	-0.2969545774	 0.435405
N	 2.0877416623	-2.6959612831	 0.9172715603	-0.529934
H	 0.7921056638	 1.7128473317	 0.3681279259	 0.149224
H	-0.4799410858	 1.8727838721	-0.8645568301	 0.143133
H	-0.9301066895	 1.547343393	 0.8420894298	 0.140121
H	-0.3206334029	-2.411455998	-0.8589092122	 0.133353
H	 0.8370716365	-3.4472800287	-2.8300057562	 0.12402
H	 1.8537434448	-1.9610504993	-2.9818258931	 0.149448
H	 2.9287836918	-3.2494322242	 1.0888523732	 0.234662
40.4314	100.5847	112.17	120.7034	204.5448	228.7889	325.5452	403.075	449.1031	554.9581	670.859	732.0496	796.1999	856.0316	867.1349	948.83	959.2785	985.9581	1014.6974	1056.8293	1101.0851	1168.4094	1178.6729	1189.9452	1204.1034	1227.6813	1228.6455	1353.1418	1369.5081	1474.5388	1482.578	1495.4263	1507.0853	1814.0045	1830.2409	3056.3476	3081.5016	3123.0101	3133.4402	3153.9997	3166.7702	3481.3653
COC(=O)C1COC1=N	COC(=O)[C@H]1CO[C]1[NH]	
InChI=1S/C5H7NO3/c1-8-5(7)3-2-9-4(3)6/h3,6H,2H2,1H3	InChI=1S/C5H7NO3/c1-8-5(7)3-2-9-4(3)6/h3,6H,2H2,1H3/t3-/m0/s1
