18
gdb 123734	4.93927	0.99361	0.95179	3.2816	77.58	-0.2521	0.0079	0.26	1275.3594	0.151387	-398.148517	-398.14092	-398.139976	-398.182037	28.338	
C	-0.1390539419	 1.4644511823	-0.0272859946	-0.212874
C	 1.4014679201	 1.4930765388	-0.207460562	-0.23243
C	 1.4757464636	 0.1310452297	 0.5541838255	-0.06393
C	-0.0413452728	-0.061440045	 0.2346254372	-0.232435
C	 2.4634456527	-0.9009845966	 0.1486528234	 0.360294
N	 3.3476252235	-1.4973234792	 0.9356791776	-0.317093
C	 3.9993304719	-2.3427601093	 0.0909190972	 0.020457
N	 3.5869105921	-2.3176975098	-1.1646855646	-0.212762
N	 2.6019721798	-1.3870843133	-1.1081256181	-0.249709
H	-0.4491682591	 2.0073717448	 0.8696866778	 0.11231
H	-0.7548537375	 1.7977902565	-0.8649159001	 0.102612
H	 1.6879203626	 1.3806236503	-1.2580626149	 0.096481
H	 1.961760179	 2.329762421	 0.2146701266	 0.113337
H	 1.6185696051	 0.3023589102	 1.6226748455	 0.107524
H	-0.6629431361	-0.4981492343	 1.0188871048	 0.113335
H	-0.1870657238	-0.6395042479	-0.6835650074	 0.096476
H	 4.7992259721	-2.9944227742	 0.4097139785	 0.123649
H	 2.0937613386	-1.1535042538	-1.9447545423	 0.274757
26.203	114.2722	139.8161	237.9367	382.777	393.9075	556.9779	559.1556	697.2177	717.3821	745.419	798.1948	867.7174	910.5937	914.6736	936.1709	944.8556	981.8292	1003.0686	1027.4526	1056.617	1106.6921	1138.7934	1205.2001	1208.1263	1236.6086	1252.6701	1262.0593	1269.715	1286.4513	1292.392	1312.5462	1330.8828	1438.9371	1478.3842	1488.3765	1489.504	1508.8391	1588.2224	3051.5111	3055.1708	3065.6301	3095.1138	3110.2989	3113.2398	3127.5894	3259.7591	3666.3587
C1CC(C1)C1=NC=NN1	C1CC(C1)c1ncn[nH]1	
InChI=1S/C6H9N3/c1-2-5(3-1)6-7-4-8-9-6/h4-5H,1-3H2,(H,7,8,9)	InChI=1S/C6H9N3/c1-2-5(3-1)6-7-4-8-9-6/h4-5H,1-3H2,(H,7,8,9)
