14
gdb 44168	4.22775	0.974	0.93904	3.7416	65.98	-0.2974	-0.0235	0.2739	1219.1369	0.100817	-436.690082	-436.682493	-436.681549	-436.723145	27.524	
O	-0.2501267112	 0.1403643008	-0.0106904584	-0.30955
C	-0.058091587	 1.3073971038	 0.0580826757	 0.465781
O	-0.9946003544	 2.3058282989	 0.333552718	-0.259221
C	 0.0015167951	 3.3254841302	 0.0586056457	 0.091195
C	 1.0948823207	 3.2541692834	 1.0591166984	-0.039522
C	 0.8898844478	 2.8265365244	 2.5065688	-0.373109
C	 0.6777400741	 3.9826267249	 3.3774440249	 0.262939
N	 0.5216648683	 4.9099861418	 4.0483197005	-0.296642
C	 1.0788436596	 2.2787255154	-0.130787165	-0.310801
H	-0.3044029455	 4.1629575099	-0.5514230628	 0.144594
H	 1.8554649298	 4.0200209562	 0.9250543109	 0.135615
H	 0.0242739839	 2.1622699353	 2.5863639396	 0.182613
H	 1.763430992	 2.2715333168	 2.8651553321	 0.165863
H	 1.8967513066	 2.1897678984	-0.8304502495	 0.140243
54.7869	96.065	166.2219	248.5218	356.1652	386.3496	461.2781	517.5498	593.9681	706.679	749.3983	804.0111	836.4259	895.755	904.1124	939.1061	959.9007	1007.1843	1013.8092	1056.198	1074.6056	1105.6696	1163.462	1249.9953	1276.1046	1298.8738	1339.618	1438.2172	1458.8369	1952.5059	2366.2724	3056.2207	3101.7269	3150.338	3228.6603	3239.1215
O=C1OC2C(CC#N)C12	O=C1O[C@H]2[C@@H](CC#N)[C@@H]12	
InChI=1S/C6H5NO2/c7-2-1-3-4-5(3)9-6(4)8/h3-5H,1H2	InChI=1S/C6H5NO2/c7-2-1-3-4-5(3)9-6(4)8/h3-5H,1H2/t3-,4+,5-/m0/s1
