16
gdb 18516	5.47267	1.11011	1.04179	1.5695	73.8	-0.2365	0.0503	0.2868	1168.7999	0.1292	-346.537481	-346.529446	-346.528502	-346.571761	28.317	
C	-0.0275800708	 1.5193885242	-0.0462971463	-0.49755
C	-0.0337134902	 0.0638825701	-0.0307885475	 0.055534
C	-0.0438288301	-1.140471632	-0.0147701891	 0.103045
C	-0.0607618286	-2.5888683504	 0.0106909207	-0.207716
C	 0.3682995859	-3.348522407	 1.3351688821	-0.263854
C	-1.005367174	-4.0279565801	 1.3308376178	 0.032748
O	-1.9869151034	-2.98666296	 1.3989510661	-0.234328
C	-1.4316386531	-3.3018673112	 0.1255527576	 0.026075
H	 0.6384985243	 1.9224865846	 0.7248382623	 0.147009
H	 0.31226401	 1.9084038469	-1.0126707504	 0.145177
H	-1.029264759	 1.922495461	 0.1398616133	 0.149656
H	 0.4988828538	-2.9986016069	-0.8372054134	 0.102269
H	 1.2061535218	-4.0278899283	 1.1657176665	 0.108871
H	 0.5650262636	-2.7174331887	 2.2031197493	 0.12099
H	-1.2900792514	-5.0037011807	 1.7058796031	 0.106744
H	-2.1183940288	-3.5610349114	-0.6720359621	 0.105329
16.6752	84.3815	111.2553	217.5447	291.6565	343.9078	427.581	476.7506	553.7728	715.3003	766.6472	841.6224	854.5693	905.2075	918.131	949.0952	1002.5432	1022.5823	1051.8172	1052.9095	1061.8924	1135.1998	1190.4804	1196.0646	1233.5448	1238.9521	1268.0027	1344.3588	1391.8843	1414.731	1472.0621	1478.2372	1478.7264	2369.6875	3024.8471	3046.4594	3077.0627	3084.4166	3085.9058	3139.6727	3179.7988	3196.4969
CC#CC1CC2OC12	CC#C[C@H]1C[C@H]2O[C@@H]12	
InChI=1S/C7H8O/c1-2-3-5-4-6-7(5)8-6/h5-7H,4H2,1H3	InChI=1S/C7H8O/c1-2-3-5-4-6-7(5)8-6/h5-7H,4H2,1H3/t5-,6+,7-/m0/s1
