21
gdb 110981	2.41867	1.28492	1.14494	1.6243	79.61	-0.2486	0.0858	0.3345	1225.3938	0.181136	-424.16789	-424.158461	-424.157517	-424.201881	35.596	
C	 0.2635933779	 1.1130592816	 0.681349195	-0.242227
O	 0.0140650506	-0.2243161892	 1.0546334142	-0.265374
C	-1.244077285	-0.693388109	 0.6492831538	 0.097683
C	-1.4327299937	-1.3068756688	-0.7770842724	-0.129497
C	-0.4892079211	-2.4618576149	-0.331821491	-0.29984
C	-1.4707830403	-2.2123819042	 0.8653820873	 0.355386
O	-1.5658263578	-2.8901329544	 2.0644917636	-0.477752
C	-2.6162378138	-2.1460354157	-0.1813868073	 0.013231
C	-3.9827142154	-1.5534605772	 0.1365498213	-0.447866
H	 1.235877495	 1.3912653742	 1.0952396869	 0.126444
H	 0.293816052	 1.236640444	-0.4111040935	 0.109634
H	-0.501499499	 1.7949907551	 1.0840388244	 0.10626
H	-2.0266741616	-0.0102045521	 0.9972831207	 0.060345
H	-1.4229862248	-0.7851656338	-1.731462978	 0.07508
H	-0.6081389514	-3.4125286914	-0.8570939496	 0.088967
H	 0.555557902	-2.2009464238	-0.1709219152	 0.104796
H	-0.7796548031	-2.6855538729	 2.5834814721	 0.289135
H	-2.7427604931	-3.0979456787	-0.7076157504	 0.071657
H	-3.9437405861	-0.5806882602	 0.6316578405	 0.119359
H	-4.5652036662	-1.4318199502	-0.783144282	 0.115502
H	-4.539656005	-2.2322938686	 0.7909631297	 0.129077
81.8748	145.83	158.151	174.486	198.4702	246.7033	294.3358	325.7696	363.3707	421.5754	507.9461	565.5454	603.8674	670.3934	743.798	809.2911	851.3522	910.9898	945.9672	959.7937	1006.624	1027.1332	1055.1213	1089.5103	1113.5001	1115.2566	1148.3661	1152.7473	1164.8081	1185.3343	1206.1418	1217.1531	1229.5693	1242.1493	1302.7078	1372.7663	1401.3047	1424.9141	1435.6092	1482.0582	1487.7351	1496.0497	1501.4597	1509.1584	1521.5735	2978.0649	3027.8943	3035.9807	3044.6547	3050.5872	3072.2815	3096.0643	3114.1089	3121.9474	3141.4202	3156.7758	3801.6022
COC1C2CC1(O)C2C	CO[C@H]1[C@H]2C[C@]1(O)[C@H]2C	
InChI=1S/C7H12O2/c1-4-5-3-7(4,8)6(5)9-2/h4-6,8H,3H2,1-2H3	InChI=1S/C7H12O2/c1-4-5-3-7(4,8)6(5)9-2/h4-6,8H,3H2,1-2H3/t4-,5-,6-,7-/m0/s1
