16
gdb 44023	3.35566	1.78651	1.54746	2.531	75.02	-0.2495	0.0035	0.253	886.6329	0.125003	-400.598414	-400.592034	-400.591089	-400.628903	26.536	
N	-0.0027677077	 1.1759146093	-0.4053684777	-0.544281
C	-0.048022638	-0.0182129295	-0.0396573598	 0.347715
O	 1.0117622969	-0.8788019565	 0.3647578727	-0.302435
C	 0.018941733	-1.8276249971	 0.8462301841	 0.328069
C	-0.671710626	-1.7377479841	 2.2061030222	-0.299871
C	-1.7884158675	-2.0078866028	 1.176148213	-0.096994
C	-0.8755642556	-2.9923061446	 0.2905194227	-0.099947
C	-1.1656536337	-2.2283917877	-1.0063577482	-0.279292
C	-1.0965312996	-1.1136599921	 0.0675505454	 0.087297
H	 0.9528521799	 1.5377189097	-0.393727029	 0.237501
H	-0.4604234048	-2.5237914426	 2.9347149036	 0.105818
H	-0.6893622891	-0.7498479657	 2.6741913652	 0.115872
H	-2.8573536884	-2.1428396396	 1.3505132395	 0.095793
H	-0.7686107749	-4.0674545488	 0.4583275126	 0.08296
H	-0.367695421	-2.2292363756	-1.7533449748	 0.115729
H	-2.1387965134	-2.3868248424	-1.4772420215	 0.106068
132.0897	308.7941	330.4944	381.9403	440.3781	511.5945	598.8839	640.5286	712.0749	774.8064	788.3358	860.0407	871.6421	872.7545	896.3849	914.0457	941.5675	987.2034	1000.8693	1005.3885	1059.6121	1081.0531	1113.5189	1129.1097	1137.5592	1150.2711	1201.9016	1205.0051	1224.3602	1233.5258	1261.1454	1269.9346	1504.0375	1507.419	1807.6174	3058.5423	3059.5592	3076.3313	3101.0604	3120.1759	3124.3276	3474.0032
N=C1OC23CC4C2CC134	[NH][C]1O[C@]23C[C@@H]4[C@H]2C[C@]134	
InChI=1S/C7H7NO/c8-5-6-1-4-3(6)2-7(4,6)9-5/h3-4,8H,1-2H2	InChI=1S/C7H7NO/c8-5-6-1-4-3(6)2-7(4,6)9-5/h3-4,8H,1-2H2/t3-,4-,6+,7-/m1/s1
