19
gdb 109045	2.77127	1.53438	1.08678	1.6191	77.24	-0.1991	0.0589	0.258	1145.5882	0.159886	-419.200847	-419.192046	-419.191102	-419.234495	32.209	
C	-0.0053152078	 1.3639230605	 0.0173154357	-0.232664
O	-0.0808322765	-0.0577150711	-0.1177745882	-0.265597
C	 0.5173614314	-0.5547508822	-1.2033300031	 0.482957
N	 1.1358373967	 0.1234247594	-2.1045299263	-0.3901
C	 1.6938986792	-0.8627189222	-3.0015086083	-0.004143
C	 2.7200163869	-1.827195652	-2.4396542593	-0.317075
C	 1.2627772762	-2.2358249965	-2.5066857506	-0.02976
N	 0.4387546302	-1.9234992629	-1.3694862676	-0.115499
C	 0.1862194349	-2.8694541348	-0.305766709	-0.341671
H	 1.037108779	 1.692670109	 0.0252931035	 0.141616
H	-0.520332096	 1.8564908518	-0.8116374946	 0.141944
H	-0.4932484533	 1.5977333118	 0.9641844059	 0.127184
H	 1.7365390104	-0.5947710564	-4.0504625499	 0.093352
H	 3.3848995859	-2.3041571528	-3.1516193599	 0.111482
H	 3.1601949455	-1.6009015828	-1.4734410497	 0.110439
H	 0.9338214272	-3.0614732486	-3.1288366202	 0.095502
H	 1.1120713696	-3.1986305005	 0.1900548619	 0.116493
H	-0.4636941745	-2.4060991975	 0.4373375749	 0.150264
H	-0.318534295	-3.7548769422	-0.7064967653	 0.125274
91.7014	119.1753	136.9472	162.2023	212.3354	237.9317	302.7928	378.0081	491.8647	533.2222	619.3052	716.0304	730.997	772.7888	810.0449	829.2483	947.1574	958.6848	1011.2506	1042.5646	1065.1874	1084.9411	1102.9234	1135.4228	1155.1422	1183.8099	1188.6816	1214.4166	1262.7318	1274.2312	1321.833	1374.5941	1424.6826	1457.2913	1462.8182	1475.547	1487.8021	1494.968	1505.04	1532.8848	1668.199	2988.6752	3048.5198	3067.2289	3123.4818	3124.0739	3145.5237	3153.0062	3157.0688	3178.532	3218.4668
COC1=NC2CC2N1C	COC1=N[C@H]2C[C@H]2N1C	
InChI=1S/C6H10N2O/c1-8-5-3-4(5)7-6(8)9-2/h4-5H,3H2,1-2H3	InChI=1S/C6H10N2O/c1-8-5-3-4(5)7-6(8)9-2/h4-5H,3H2,1-2H3/t4-,5+/m0/s1
