18
gdb 80761	4.63287	0.83939	0.81023	4.4287	74.3	-0.2434	0.0031	0.2465	1440.0719	0.146506	-439.053455	-439.044795	-439.043851	-439.087767	31.36	
C	-0.0623225606	 1.5412690641	-0.0225596776	-0.428249
C	 0.0904441625	 0.0413245274	-0.1423191975	 0.019736
C	 0.7352471251	-0.6900286062	-1.2551500976	-0.09021
C	 1.9361302122	 0.0678117688	-1.8146733237	 0.117552
C	 2.4915688235	 0.0743391846	-0.3758158261	-0.198586
N	 1.3243615405	-0.7209545665	 0.1522759823	-0.146018
O	 2.7320800484	-0.742617107	-2.6763256481	-0.191217
C	 2.9772120948	-0.3043909358	-3.9274929138	 0.163915
O	 3.6224555919	-0.9275934563	-4.7138948401	-0.270448
H	 0.7270930011	 2.1062763805	-0.5226822906	 0.122892
H	-1.0159583312	 1.8484453229	-0.4639824597	 0.131432
H	-0.0725931991	 1.8400162474	 1.0309150298	 0.135037
H	-0.7562151814	-0.4968771863	 0.2812686943	 0.106772
H	 0.3111270235	-1.5709807495	-1.7265222521	 0.111492
H	 1.7344523557	 1.0291459768	-2.3020116066	 0.088324
H	 3.3976830833	-0.5291020762	-0.3066307626	 0.138747
H	 2.655179039	 1.0404294628	 0.1098402253	 0.109619
H	 2.5218824408	 0.6844633286	-4.1323296055	 0.079211
41.7327	96.2	141.968	172.8039	258.7238	290.7527	330.7338	400.4949	440.5459	538.9852	654.8044	707.7089	789.1086	795.6812	894.4987	926.0588	940.6354	984.8597	1043.2152	1047.0012	1064.1854	1075.1642	1103.8993	1122.3667	1151.5247	1190.2766	1210.0335	1242.2748	1260.576	1290.264	1335.0912	1392.1944	1411.8651	1434.1897	1443.7965	1484.1226	1499.9091	1502.2652	1869.6093	2945.0196	3026.6611	3042.4709	3064.2092	3101.9531	3114.8653	3131.2941	3134.6992	3167.5657
CC1C2C(CN12)OC=O	C[C@H]1[C@H]2[C@@H](CN12)OC=O	
InChI=1S/C6H9NO2/c1-4-6-5(9-3-8)2-7(4)6/h3-6H,2H2,1H3	InChI=1S/C6H9NO2/c1-4-6-5(9-3-8)2-7(4)6/h3-6H,2H2,1H3/t4-,5+,6-,7?/m0/s1
