16
gdb 32257	2.68609	1.60418	1.01123	3.8811	75.67	-0.216	-0.01	0.206	1123.7851	0.126641	-434.119897	-434.111895	-434.110951	-434.152384	30.107	
C	-0.0415782767	 1.3764569732	 0.1072694994	-0.252391
O	-0.0081509093	-0.0362492834	-0.0064945069	-0.284388
C	 0.6130539844	-0.5639995829	-1.099240098	 0.281241
C	 1.2237562678	 0.1230378994	-2.127288389	-0.106517
N	 1.8178799887	-0.5030584995	-3.1641043253	-0.276035
C	 1.7835479978	-1.8258322621	-3.1290603866	 0.057562
N	 1.2293523846	-2.6012332447	-2.1897746881	-0.326877
C	 0.6352060677	-1.9801135244	-1.174008056	 0.324829
N	 0.0160184277	-2.7251479531	-0.2143960399	-0.564958
H	 0.9703434442	 1.7978538519	 0.1580513909	 0.1316
H	-0.5770497783	 1.8317674405	-0.7351588689	 0.13323
H	-0.5724946621	 1.5967097519	 1.0344155386	 0.138479
H	 1.2505040728	 1.2082621175	-2.1412805693	 0.106026
H	 2.2611678864	-2.3496330856	-3.9536405866	 0.108739
H	 0.2432365263	-3.7059648179	-0.1967900846	 0.261995
H	-0.2041900219	-2.2757189908	 0.6580743502	 0.267466
91.3187	162.8491	220.2421	245.9505	321.8851	337.5902	375.0135	447.3539	507.1779	529.0871	542.2982	612.1287	621.0915	785.6684	808.0319	911.1478	926.403	985.8335	1036.379	1073.9127	1170.2907	1178.9682	1218.4997	1256.2176	1314.1992	1352.4181	1361.4393	1445.4938	1482.065	1489.6054	1507.1163	1523.2567	1601.4738	1610.253	1646.1211	3010.1652	3071.8148	3139.0844	3161.9595	3172.8379	3602.7826	3731.619
COC1=CN=CN=C1N	COc1cncnc1N	
InChI=1S/C5H7N3O/c1-9-4-2-7-3-8-5(4)6/h2-3H,1H3,(H2,6,7,8)	InChI=1S/C5H7N3O/c1-9-4-2-7-3-8-5(4)6/h2-3H,1H3,(H2,6,7,8)
