21
gdb 77538	2.92955	1.27446	1.05088	0.9182	91.38	-0.2515	0.0483	0.2997	1233.5147	0.180948	-349.886872	-349.877634	-349.87669	-349.920183	36.225	
C	-0.1578010853	 1.5809274106	 0.0485406029	-0.447937
C	 0.0196379462	 0.0723848992	 0.0027287912	-0.013444
C	 0.8666048756	-0.6437657119	-1.1088296847	 0.301354
C	 0.6046411406	-0.651173751	-2.5903239726	-0.514455
C	 2.1539951123	-0.1509421883	-0.3760189714	-0.304757
C	 1.1993189125	-0.6412846884	 0.760699247	 0.246292
C	 0.9074562461	-1.8754789631	-0.1521887994	-0.293178
C	 1.4472191859	-0.6352143626	 2.1731983787	 0.061457
C	 1.6464292035	-0.6176537226	 3.3600961822	-0.371496
H	 0.7618053266	 2.1369400285	-0.1496213706	 0.118781
H	-0.9020648551	 1.8980574485	-0.6905252419	 0.117284
H	-0.5235877391	 1.8885618208	 1.0340868319	 0.12757
H	-0.9451250298	-0.4167560459	 0.1849772124	 0.06452
H	 0.6257642229	 0.3641315948	-3.0017355895	 0.120251
H	 1.3590049462	-1.2418549403	-3.1216591032	 0.12019
H	-0.377331354	-1.0827267038	-2.8141609454	 0.118999
H	 3.0551785426	-0.7517602745	-0.5263541496	 0.09371
H	 2.38927055	 0.9135989788	-0.4074629349	 0.096905
H	-0.0380284302	-2.3954688735	 0.0265356354	 0.092372
H	 1.7356487164	-2.5761251686	-0.2877843831	 0.092444
H	 1.8245779161	-0.6058819267	 4.4066429346	 0.173136
118.4731	135.8279	166.5753	191.1363	204.0117	293.3261	340.1461	351.4248	501.2595	511.8667	527.4294	551.6098	598.3948	626.0625	627.6687	635.8691	753.3864	796.743	806.94	941.785	957.4028	996.0039	1005.3415	1033.2529	1067.5915	1102.4783	1117.2794	1133.0828	1145.8528	1157.0156	1170.7989	1193.2153	1210.894	1279.7104	1345.2439	1404.1473	1410.058	1423.1373	1487.852	1488.9601	1492.4486	1494.7928	1510.3775	1548.4732	2229.9102	3024.9177	3026.8252	3035.8556	3047.7238	3063.9293	3091.7038	3092.3845	3093.3202	3113.1155	3117.1196	3132.5183	3502.4113
CC1C2(C)CC1(C2)C#C	C[C@H]1[C@@]2(C)C[C@@]1(C2)C#C	
InChI=1S/C9H12/c1-4-9-5-8(3,6-9)7(9)2/h1,7H,5-6H2,2-3H3	InChI=1S/C9H12/c1-4-9-5-8(3,6-9)7(9)2/h1,7H,5-6H2,2-3H3/t7-,8-,9+/m0/s1
