19
gdb 74217	2.19331	1.53651	0.95056	3.8081	81.42	-0.2332	-0.0503	0.183	1240.3092	0.159462	-423.052259	-423.043637	-423.042693	-423.085861	32.244	
C	-0.5528113725	 1.4290253911	 0.076296148	-0.46251
C	 0.0457941966	 0.0449389094	 0.0558505663	 0.29199
C	 0.0441899696	-0.6553601357	-1.0933897873	-0.220518
C	 0.5342819126	-2.0047525843	-1.4430589931	 0.315855
O	 0.5716092108	-2.3381797501	-2.6143012143	-0.326654
C	 0.9944178942	-3.043932213	-0.414169601	-0.186782
O	 0.7894062516	-2.7693948998	 0.9473483497	-0.235019
C	 1.4765814296	-1.627130447	 1.4166016798	-0.102968
C	 0.5852706472	-0.3919849202	 1.3937969705	-0.280556
H	 0.2092931404	 2.1781341011	 0.326050165	 0.133823
H	-0.999920252	 1.6974857627	-0.882642772	 0.13365
H	-1.3247877959	 1.5039562724	 0.8525476691	 0.134056
H	-0.3663842929	-0.172064435	-1.9773955588	 0.0985
H	 0.4495110186	-3.9658640298	-0.6368243703	 0.141165
H	 2.0585943089	-3.2417414703	-0.6263834455	 0.118427
H	 1.7799403708	-1.833183768	 2.449323959	 0.110405
H	 2.3917993646	-1.4555112111	 0.8298123525	 0.09724
H	 1.1335219248	 0.4486457506	 1.842482506	 0.108416
H	-0.2716551471	-0.567303643	 2.0606263862	 0.131481
57.5194	144.4982	153.1285	206.9266	279.9168	302.0663	350.0426	430.4129	455.9152	484.0459	540.8438	588.982	617.6943	790.4477	838.504	847.4662	914.0488	980.6569	1007.9701	1029.5492	1040.8015	1056.7478	1106.2116	1139.9301	1179.9053	1246.1339	1286.7662	1293.4354	1321.5069	1346.5684	1377.2869	1405.048	1410.6732	1420.7969	1449.6887	1456.2394	1478.7695	1485.1373	1503.5875	1692.1371	1743.8475	2972.2714	2991.8967	3004.4463	3021.6896	3035.7642	3063.0505	3068.8177	3093.9179	3128.9067	3153.0996
CC1=CC(=O)COCC1	CC1=CC(=O)COCC1	
InChI=1S/C7H10O2/c1-6-2-3-9-5-7(8)4-6/h4H,2-3,5H2,1H3	InChI=1S/C7H10O2/c1-6-2-3-9-5-7(8)4-6/h4H,2-3,5H2,1H3
