20
gdb 96016	2.52332	1.50975	1.12962	2.085	74.03	-0.2479	0.0714	0.3192	1131.9845	0.172924	-440.255556	-440.247146	-440.246202	-440.28913	32.062	
O	 0.1962726189	 1.2889271931	-0.3902736046	-0.433592
C	 0.0539234913	-0.0530103728	 0.0212799649	 0.106638
C	 0.3776338527	-0.3077644573	 1.5111267919	-0.245412
C	-0.570496361	-1.4466470906	 1.8715167062	-0.08795
O	-1.7627509321	-1.169816554	 1.1395415154	-0.267587
C	-1.3954348209	-0.6476845459	-0.136164844	 0.043176
C	-2.4029168248	 0.3955758631	-0.5633461621	-0.006405
C	-3.8128046366	 0.3543192781	-0.128633258	-0.250475
N	-2.8895001797	 1.3651721111	 0.4415394104	-0.343921
H	-0.511677499	 1.8085169007	 0.0113400555	 0.297837
H	 0.7446082803	-0.6132826328	-0.6153426877	 0.093549
H	 1.4307006751	-0.5404570137	 1.6826985534	 0.110273
H	 0.130163114	 0.5911507289	 2.0867538925	 0.105611
H	-0.1561642672	-2.4227518239	 1.572464536	 0.096838
H	-0.8345533156	-1.4967136926	 2.930638848	 0.114917
H	-1.3808693369	-1.4648599953	-0.8737186011	 0.077656
H	-2.1692798561	 0.8453536604	-1.5245524802	 0.108201
H	-4.5871497536	 0.7546564757	-0.7761650782	 0.118753
H	-4.1181785758	-0.4616440897	 0.5180311009	 0.130458
H	-2.612636543	 1.0072972376	 1.3554790709	 0.231436
52.4167	96.4348	179.267	196.4533	275.0044	344.0213	412.3317	435.0228	494.823	559.0303	615.5099	721.5566	768.3476	835.7296	858.9504	885.6316	928.0874	950.041	966.7757	994.2451	1031.0918	1055.6023	1093.6432	1106.6539	1127.9053	1135.7451	1156.0649	1190.582	1204.4151	1236.4001	1267.8107	1290.3166	1305.1126	1311.2733	1323.0679	1339.5894	1369.3576	1392.0756	1426.5012	1448.3363	1484.7117	1503.0121	1518.539	2976.8689	2981.9045	3048.4956	3068.5152	3098.7138	3116.3998	3121.229	3150.1555	3214.0698	3468.7641	3772.4025
OC1CCOC1C1CN1	O[C@H]1CCO[C@H]1[C@H]1CN1	
InChI=1S/C6H11NO2/c8-5-1-2-9-6(5)4-3-7-4/h4-8H,1-3H2	InChI=1S/C6H11NO2/c8-5-1-2-9-6(5)4-3-7-4/h4-8H,1-3H2/t4-,5+,6+/m1/s1
