17
gdb 39031	3.17363	1.80947	1.31808	2.6177	72.55	-0.2402	0.0144	0.2547	956.4945	0.139983	-417.998423	-417.991779	-417.990835	-418.029309	26.712	
C	 0.0191180306	 1.3825658011	 0.0608497764	-0.092406
C	 1.4755703268	 1.9209989311	-0.0190855326	-0.36597
C	 2.1340604118	 0.7765870419	-0.7489545299	 0.25193
N	 2.6654157651	 0.8349015593	-2.1179337412	-0.369275
C	 3.4539518249	 0.1714570676	-1.0688279877	-0.134402
C	 3.2320514068	-1.3477175398	-0.9136351701	-0.191223
N	 1.8036719905	-1.5757595162	-0.5827021768	-0.34314
C	 1.3022519525	-0.4167245181	-0.4431920657	 0.415417
O	 0.0930691718	-0.0704101943	 0.0289008113	-0.257111
H	-0.5003278748	 1.6563801788	 0.9806129814	 0.129015
H	-0.5778218227	 1.7126304368	-0.7962797137	 0.125955
H	 1.5365410562	 2.8691750282	-0.5546422924	 0.131581
H	 1.8899398394	 2.0531678624	 0.9850164475	 0.125126
H	 2.2105317595	 0.1456750475	-2.716736517	 0.234761
H	 4.4140388839	 0.6227784857	-0.8421594224	 0.104979
H	 3.5108169387	-1.8948817366	-1.82306178	 0.115552
H	 3.8475119989	-1.7501549354	-0.1000574873	 0.119211
156.5904	203.2341	284.5394	306.9587	428.2803	446.9502	614.5741	645.8581	698.2028	727.638	771.1958	834.9521	843.7573	865.137	926.4666	952.111	963.7461	998.4355	1042.746	1068.2439	1098.1607	1114.9709	1170.3271	1194.038	1208.2233	1228.5147	1239.1755	1289.1431	1305.8547	1314.9645	1338.1261	1416.0119	1438.7298	1482.9068	1487.1605	1519.4177	1745.9796	3027.8171	3049.1797	3059.514	3062.4081	3119.3949	3133.9383	3170.6064	3451.3467
C1CC23NC2CN=C3O1	C1C[C@@]23N[C@@H]2CN=C3O1	
InChI=1S/C6H8N2O/c1-2-9-5-6(1)4(8-6)3-7-5/h4,8H,1-3H2	InChI=1S/C6H8N2O/c1-2-9-5-6(1)4(8-6)3-7-5/h4,8H,1-3H2/t4-,6-/m1/s1
