18
gdb 83723	2.64041	1.70745	1.25679	2.556	72.06	-0.2648	0.0179	0.2827	1022.3182	0.149542	-439.093996	-439.086376	-439.085432	-439.126283	29.835	
O	 0.1338879813	 1.3753299888	 0.2430995084	-0.434873
C	 0.0136479484	-0.0134385327	 0.0791518802	 0.052863
C	-1.4206833639	-0.5221401371	-0.0289670956	-0.055473
C	-2.3761012144	 0.2523581083	-0.9839196688	-0.234238
C	-2.5077464873	-1.0241900864	-1.8662881046	-0.23215
C	-1.3461628303	-1.6683300749	-1.0789271479	 0.084304
O	-0.078946114	-1.5108533205	-1.7586454144	-0.243709
C	 0.6260035556	-0.4806954847	-1.2337092944	 0.372441
N	 1.6451477416	 0.0723416703	-1.7334482132	-0.56142
H	 0.9104408182	 1.6288223513	-0.2783480061	 0.297111
H	 0.5280239761	-0.5482290073	 0.8961529662	 0.094147
H	-1.8621797583	-0.7929052577	 0.9294719777	 0.082518
H	-3.297944044	 0.6207129498	-0.532205383	 0.109223
H	-1.8771327106	 1.089805907	-1.4750352702	 0.124118
H	-3.4488962452	-1.5574282494	-1.7086000042	 0.109654
H	-2.3366364932	-0.9198606179	-2.9396394376	 0.115552
H	-1.4316191409	-2.7130773353	-0.775522092	 0.090331
H	 1.9043003309	-0.3322857216	-2.6328823606	 0.229602
88.1332	109.0684	218.4974	277.6652	373.4022	417.8806	469.0728	500.9746	589.3759	623.9365	707.9221	753.1104	777.6575	844.6776	876.2921	876.4937	894.9469	931.5594	956.0552	1014.6493	1056.3202	1075.5192	1106.756	1119.3302	1160.5349	1201.4765	1216.7306	1244.1922	1253.7813	1269.9103	1279.8104	1297.278	1338.6744	1357.394	1396.4665	1434.8767	1469.5188	1497.7199	1775.6017	2953.0766	3066.0996	3084.1866	3095.0021	3115.3149	3120.6284	3140.5364	3494.9722	3718.4293
OC1C2CCC2OC1=N	O[C@H]1[C@H]2CC[C@H]2O[C]1[NH]	
InChI=1S/C6H9NO2/c7-6-5(8)3-1-2-4(3)9-6/h3-5,7-8H,1-2H2	InChI=1S/C6H9NO2/c7-6-5(8)3-1-2-4(3)9-6/h3-5,7-8H,1-2H2/t3-,4+,5-/m0/s1
