20
gdb 79145	2.48174	1.95589	1.49708	0.8123	77.71	-0.1902	0.0803	0.2705	973.6939	0.171872	-403.094034	-403.086359	-403.085415	-403.125622	31.176	
C	-0.0609142066	 1.5361717392	-0.0186655334	-0.422828
C	-0.0116127207	 0.0184344577	 0.0551576312	 0.155445
O	 0.6309119868	-0.523355415	-1.116171945	-0.283234
C	 1.1398790375	-1.7883677083	-0.7433343355	 0.086603
C	 0.8035121698	-2.1336774128	 0.6744772596	-0.161312
C	 2.2417047714	-1.8326424874	 0.3143604183	-0.059243
N	 2.237243553	-0.6168614199	 1.1125008915	-0.074022
C	 2.9866855878	 0.5338284979	 0.629015118	-0.329977
C	 0.7397497535	-0.6756820893	 1.2020902647	-0.059318
H	 0.927905756	 1.9925615719	-0.0431581863	 0.12854
H	-0.5990114483	 1.8415727073	-0.9208733407	 0.128634
H	-0.6052937901	 1.9283507856	 0.846495474	 0.115508
H	-1.0535294435	-0.3507244172	 0.0917975004	 0.068658
H	 1.1132731851	-2.5283992813	-1.5352537639	 0.09994
H	 0.3178784047	-3.016469113	 1.0641869347	 0.095852
H	 3.1098575007	-2.4837397263	 0.2663188797	 0.087568
H	 2.7776816294	 0.8150964149	-0.4119718839	 0.120626
H	 2.8001778841	 1.3951343164	 1.2787565635	 0.115741
H	 4.0541061672	 0.2947477578	 0.7073775541	 0.113297
H	 0.3407086321	-0.4754190681	 2.1994965989	 0.07352
156.576	197.7599	223.1087	272.764	303.7259	313.9476	403.4247	531.6641	580.6948	644.4462	678.3405	754.3454	778.413	806.8809	831.3112	872.5048	896.8359	931.726	984.1828	999.6486	1038.5377	1042.0907	1066.4409	1085.9797	1098.9374	1120.5402	1153.2053	1162.8507	1204.3271	1213.8668	1224.8879	1260.7031	1279.2636	1305.4058	1361.1293	1382.9767	1398.7203	1411.7586	1445.8942	1482.2882	1486.4113	1505.1124	1525.7379	2924.0926	3000.014	3050.2384	3060.4197	3080.046	3092.5347	3110.859	3148.3178	3160.0208	3180.1137	3216.9064
CC1OC2C3C2N(C)C13	C[C@H]1O[C@@H]2[C@H]3[C@@H]2N(C)[C@@H]13	
InChI=1S/C7H11NO/c1-3-5-4-6(8(5)2)7(4)9-3/h3-7H,1-2H3	InChI=1S/C7H11NO/c1-3-5-4-6(8(5)2)7(4)9-3/h3-7H,1-2H3/t3-,4-,5+,6+,7-/m1/s1
