19
gdb 38656	3.09335	1.85637	1.56677	1.7054	78.02	-0.2303	0.0194	0.2498	911.6835	0.163565	-385.883025	-385.876749	-385.875805	-385.913305	27.123	
C	 0.0396144298	 1.6177354461	 0.0471041946	-0.229812
C	 1.5692751485	 1.7878747879	 0.0386070223	 0.055944
O	 1.9609860853	 0.8379728251	 1.0785944619	-0.301704
C	 1.55798454	-0.1564797498	 0.0989151161	 0.060143
C	 2.0912244632	 0.7700745268	-1.0174018728	 0.006811
C	 1.527593383	 0.6451188044	-2.4378686067	-0.312625
C	 0.2483241501	-0.1555831797	-2.4879830002	-0.052938
C	-0.444809378	-0.4500101823	-1.3879636362	-0.079907
C	 0.0204063761	 0.0482262455	-0.0434278581	-0.059507
H	-0.3805576843	 1.9949164641	 0.9820925446	 0.10715
H	-0.4688594209	 2.0956633792	-0.7935831012	 0.101041
H	 1.9916762407	 2.7857599986	 0.1621675491	 0.074687
H	 1.9285723462	-1.162980984	 0.2904488746	 0.077137
H	 3.1824041838	 0.781668945	-1.0044586017	 0.084994
H	 1.3727645394	 1.6423694233	-2.8773811611	 0.111727
H	 2.2749834053	 0.1655332279	-3.0831674107	 0.110308
H	-0.0872889025	-0.4928291511	-3.4650134665	 0.088071
H	-1.3567233801	-1.0369807051	-1.4453649706	 0.086728
H	-0.5311675256	-0.4085325018	 0.7790940127	 0.071752
177.4549	279.3214	351.482	457.9731	474.7491	513.9503	584.4841	706.6393	714.0006	746.3246	815.8234	826.9182	871.7428	894.1803	905.3902	930.049	949.3155	971.0294	990.4922	995.7676	1018.7723	1035.9734	1051.4703	1106.5181	1122.974	1154.5715	1175.9589	1206.1506	1220.9316	1241.6014	1266.4629	1286.8003	1303.9884	1320.0725	1325.7382	1353.2189	1383.1689	1407.6262	1472.4765	1486.4604	1708.942	2994.006	3031.4477	3067.2857	3098.1166	3098.7194	3115.9537	3121.402	3129.5358	3154.5374	3178.8047
C1C2OC3C2CC=CC13	C1[C@H]2O[C@@H]3[C@H]2CC=C[C@H]13	
InChI=1S/C8H10O/c1-2-5-4-7-6(3-1)8(5)9-7/h1-2,5-8H,3-4H2	InChI=1S/C8H10O/c1-2-5-4-7-6(3-1)8(5)9-7/h1-2,5-8H,3-4H2/t5-,6+,7-,8+/m1/s1
