19
gdb 13011	2.64043	2.45903	1.66307	1.5728	75.87	-0.2254	0.0165	0.2419	870.5224	0.166182	-327.917394	-327.909731	-327.908787	-327.948716	30.213	
C	-0.1164655634	 1.536234343	 0.0421874154	-0.395943
C	 0.0158901754	 0.0077937774	-0.0182786915	-0.063518
C	 0.841110589	-0.4922818695	-1.191245749	-0.083063
C	 1.847071548	-1.2840995929	-0.8154572723	-0.057929
C	 1.8854584794	-1.40227808	 0.6709865733	-0.138
N	 2.1271905507	-0.0827781364	 1.33620476	-0.367086
C	 0.7460369171	-0.6005032052	 1.1945683187	 0.324617
C	-0.0459294722	-0.9592137628	 2.4244775827	-0.494149
H	 0.8695370355	 1.9915328024	 0.161386429	 0.140992
H	-0.576518304	 1.9283922705	-0.8706374987	 0.107108
H	-0.7434720312	 1.8422805667	 0.8867772376	 0.106994
H	-0.9958873788	-0.422731815	-0.0738391057	 0.072503
H	 0.6240215455	-0.1924862593	-2.2112608597	 0.091665
H	 2.5695250494	-1.7537702372	-1.4722969809	 0.095308
H	 2.2434953903	-2.3008801588	 1.1636180912	 0.082618
H	 2.4296518109	-0.2576743054	 2.2946079831	 0.218675
H	-0.4517631238	-0.0631147656	 2.9096591036	 0.124529
H	-0.8904153892	-1.611287218	 2.1754395596	 0.123414
H	 0.5762008015	-1.4823949838	 3.1587360836	 0.111267
142.4507	201.4298	224.7357	240.1121	287.4656	312.1526	432.3141	490.3238	568.3705	595.9416	702.2017	759.1493	791.3122	848.6123	852.3198	907.5075	931.7392	960.1255	977.1202	1015.5559	1040.3748	1063.4823	1099.9889	1103.8287	1131.1828	1136.5118	1171.9107	1272.863	1284.1458	1317.4252	1355.432	1375.0703	1401.9929	1414.5849	1437.1893	1485.147	1494.581	1500.0399	1504.6561	1668.2299	2983.4011	3020.4597	3034.0629	3081.4711	3094.1093	3095.2781	3128.4204	3158.9319	3180.858	3210.5293	3458.4264
CC1C=CC2NC12C	C[C@H]1C=C[C@H]2N[C@@]12C	
InChI=1S/C7H11N/c1-5-3-4-6-7(5,2)8-6/h3-6,8H,1-2H3	InChI=1S/C7H11N/c1-5-3-4-6-7(5,2)8-6/h3-6,8H,1-2H3/t5-,6+,7-/m0/s1
