25
gdb 116475	2.79948	1.07406	0.84839	0.2878	94.89	-0.2325	0.0229	0.2554	1486.8047	0.230933	-352.378821	-352.369405	-352.368461	-352.412855	36.873	
C	-0.1292238292	 1.5463031647	-0.1812063149	-0.387766
C	 0.0426125247	 0.0260002042	-0.104616436	-0.191733
C	 0.7076185556	-0.4644632664	 1.1960105648	-0.000656
C	 0.6034780615	-2.0008513133	 1.3321837162	-0.187306
C	 0.8034733336	-2.5433760858	 2.7555148933	-0.195595
C	 2.2009926158	-2.3731374544	 3.3681408141	-0.174028
C	 2.6398672072	-0.9121777812	 3.5888130827	-0.245472
C	 2.9689935879	-0.1656845089	 2.3174279066	-0.086228
C	 2.1402266874	 0.0213460959	 1.2908872646	-0.021638
H	 0.8290172713	 2.0705381995	-0.1086265311	 0.118651
H	-0.598498316	 1.8433250744	-1.1243774971	 0.110591
H	-0.763259491	 1.9095053232	 0.6355634086	 0.113077
H	-0.9416949303	-0.4481716896	-0.1987760019	 0.088502
H	 0.6335290651	-0.3253808473	-0.9617890249	 0.093689
H	 0.1391449611	-0.0310184409	 2.035572029	 0.074076
H	-0.3950397047	-2.3086046967	 0.9958042757	 0.084978
H	 1.3199993971	-2.4729489224	 0.6473421669	 0.091091
H	 0.0674396842	-2.0658096277	 3.4187643796	 0.088305
H	 0.5557374683	-3.6121894106	 2.7544179643	 0.089035
H	 2.212971232	-2.8886328593	 4.3365726677	 0.087994
H	 2.9448609565	-2.8776510793	 2.7383462174	 0.093692
H	 1.8455422044	-0.3860923627	 4.140052708	 0.10318
H	 3.5157502272	-0.9016159097	 4.2457844279	 0.093843
H	 3.9777439661	 0.2343318643	 2.240208996	 0.08104
H	 2.5186417745	 0.5594050298	 0.4234416525	 0.078676
77.5727	106.8507	177.1633	198.0824	229.1448	288.0102	320.2928	334.537	395.6185	413.6336	483.8688	536.0991	653.068	709.555	775.8541	790.6526	834.1957	857.198	893.6989	928.6444	933.792	984.5081	998.598	1021.8727	1044.4516	1048.4716	1093.7275	1104.1538	1119.6952	1152.0792	1173.6429	1228.1827	1259.2193	1270.3793	1279.939	1300.7909	1312.9057	1351.7493	1363.4377	1372.1789	1374.8318	1386.5913	1398.6437	1414.1073	1429.8389	1477.7063	1481.0012	1484.9958	1490.721	1493.7962	1500.1685	1506.9605	1721.7673	2961.5265	2994.1434	3001.1572	3009.3822	3015.7091	3016.5682	3031.7438	3045.0281	3048.5776	3054.8245	3060.3576	3065.1806	3097.2236	3104.5558	3128.5567	3154.6591
CCC1CCCCC=C1	CC[C@H]1CCCCC=C1	
InChI=1S/C9H16/c1-2-9-7-5-3-4-6-8-9/h5,7,9H,2-4,6,8H2,1H3	InChI=1S/C9H16/c1-2-9-7-5-3-4-6-8-9/h5,7,9H,2-4,6,8H2,1H3/t9-/m1/s1
