21
gdb 80582	3.47001	1.03371	0.96739	2.4879	83.09	-0.2386	-0.0076	0.231	1336.8398	0.181216	-387.085306	-387.07594	-387.074996	-387.119856	34.793	
C	-0.1230660049	 1.5120224626	 0.1330416595	-0.41843
C	 0.1321885535	 0.0263774501	-0.0144224399	-0.017763
C	 1.4681281244	-0.6135534433	-0.2860598358	-0.059045
C	 2.6089284186	 0.0753326778	 0.4687674219	-0.256571
C	 1.838882983	-0.1800718542	 1.82162289	-0.101231
C	 0.7267599957	-0.8754922536	 1.033451269	-0.062842
C	 2.6255336923	-1.0789238407	 2.7535843493	 0.360228
C	 3.7003424067	-0.3930896733	 3.5815026454	-0.480083
O	 2.4211416061	-2.2696444315	 2.8308612111	-0.29857
H	 0.6847866411	 2.0280865673	 0.6588352507	 0.11605
H	-0.2285638268	 1.9863814372	-0.8488097857	 0.11705
H	-1.0477659239	 1.6951532459	 0.6914245686	 0.118416
H	-0.6610846237	-0.4837365749	-0.5589320788	 0.087795
H	 1.6158207144	-1.2879121971	-1.1210704032	 0.085184
H	 3.5400335698	-0.4951069476	 0.4188947462	 0.113715
H	 2.8265024848	 1.1177965699	 0.2152837365	 0.099497
H	 1.5565219003	 0.7317276105	 2.3618144888	 0.076982
H	 0.2480884293	-1.7859439642	 1.3690783201	 0.101457
H	 4.3097414922	 0.2756031353	 2.9645377278	 0.135716
H	 3.2266696425	 0.2279516246	 4.3512215297	 0.141579
H	 4.3321995846	-1.1392041607	 4.0648196589	 0.140867
55.3757	108.3058	122.9608	159.8405	193.1036	244.4357	272.1823	357.5993	407.0357	534.0619	585.3044	586.6868	721.1778	730.5004	790.8947	825.3648	881.6349	911.5881	939.6776	958.571	983.6213	997.3637	1018.7944	1047.8474	1069.4101	1087.3066	1106.1734	1130.6157	1160.55	1191.7195	1209.2747	1228.3626	1251.6532	1293.6506	1336.9071	1365.1929	1385.0756	1416.1612	1443.9325	1464.3127	1477.5295	1485.7053	1500.0757	1505.5762	1804.2013	3028.8981	3032.9876	3037.1124	3045.9784	3089.8785	3096.6311	3099.3448	3106.1741	3126.0609	3151.0832	3178.7695	3204.4752
CC1C2CC(C12)C(C)=O	C[C@H]1[C@H]2C[C@@H]([C@@H]12)C(=O)C	
InChI=1S/C8H12O/c1-4-6-3-7(5(2)9)8(4)6/h4,6-8H,3H2,1-2H3	InChI=1S/C8H12O/c1-4-6-3-7(5(2)9)8(4)6/h4,6-8H,3H2,1-2H3/t4-,6+,7+,8-/m0/s1
