18
gdb 108884	3.23037	0.97077	0.88953	4.9258	78.97	-0.26	-0.0067	0.2532	1375.489	0.147429	-401.966942	-401.957969	-401.957025	-402.001522	32.076	
C	-0.3358549607	 1.4862877264	-0.0039734979	-0.379261
C	 0.1410302262	 0.0242330726	 0.0747674015	-0.295012
C	 0.7720036334	-0.4649200951	-1.1932819611	 0.314082
C	 2.0270140115	-0.8572373845	-1.3939112069	-0.221553
C	 2.2169441624	-1.2557107816	-2.8390472246	-0.04653
O	 0.9255795118	-1.1651327353	-3.424571461	-0.259847
C	 0.0147663855	-0.576851382	-2.493577282	-0.160749
C	 3.1762035107	-0.3678367833	-3.5397573354	 0.265365
N	 3.9365990153	 0.3207019451	-4.0714699976	-0.321895
H	 0.4970016071	 2.1566827224	-0.2358074294	 0.132297
H	-1.1005870788	 1.6211920571	-0.7749272852	 0.125586
H	-0.7686871652	 1.7974499324	 0.9509220179	 0.123734
H	 0.8564703674	-0.0852538779	 0.8961072681	 0.114634
H	-0.7170297971	-0.6168118757	 0.3192063271	 0.114248
H	 2.831431022	-0.8862113781	-0.6712912596	 0.122747
H	 2.5878581233	-2.2849847131	-2.9517250327	 0.13357
H	-0.8705192451	-1.2230583325	-2.4099183363	 0.117373
H	-0.3247702795	 0.4018197231	-2.8643416249	 0.121211
53.264	84.2889	118.2818	177.8849	219.5687	245.3869	320.5546	353.6262	463.955	532.4198	562.5863	617.8767	787.5303	794.7182	841.7413	895.4498	908.0505	955.8607	975.635	1003.3235	1027.2984	1069.9868	1100.5276	1108.5526	1204.5681	1211.0469	1262.7017	1283.631	1329.3729	1352.2181	1355.5205	1388.9862	1412.9503	1482.4825	1500.7622	1506.4444	1518.7437	1724.4344	2354.1112	2991.5659	2999.7918	3017.2983	3021.3896	3042.9986	3072.8091	3114.8872	3118.4908	3228.3645
CCC1=CC(OC1)C#N	CCC1=C[C@@H](OC1)C#N	
InChI=1S/C7H9NO/c1-2-6-3-7(4-8)9-5-6/h3,7H,2,5H2,1H3	InChI=1S/C7H9NO/c1-2-6-3-7(4-8)9-5-6/h3,7H,2,5H2,1H3/t7-/m1/s1
