17
gdb 78723	4.53827	1.18054	1.05824	4.9976	77.91	-0.2675	0.0011	0.2687	1143.3898	0.137156	-380.829846	-380.82231	-380.821366	-380.861698	29.192	
C	-0.0953458465	 1.4630783753	 0.009937228	-0.41595
C	 0.0251255471	-0.0574393569	 0.0387064087	 0.00001
C	 0.8492120224	-0.6169001587	-1.1114893243	-0.072537
N	 2.1377230963	-0.5335081112	-0.3581008873	-0.175429
C	 1.198573625	-0.5830930338	 0.9002150881	-0.020518
C	 1.1540989084	-2.117326584	 0.8139988025	-0.300905
C	 1.51479083	-1.8859970185	-0.6472223076	 0.200577
C	 2.096348033	-2.8251525312	-1.5552830345	 0.197058
N	 2.5413900942	-3.6092760365	-2.2800887396	-0.340809
H	 0.8776789396	 1.931606301	-0.1665296975	 0.139533
H	-0.7769839009	 1.7874551635	-0.7828417664	 0.124216
H	-0.4880566687	 1.8358047562	 0.9613989253	 0.122205
H	-0.9504931175	-0.5210526622	 0.2259102954	 0.080987
H	 0.8003366078	-0.3714348152	-2.1669680033	 0.115392
H	 1.5092037648	-0.0718503946	 1.8088823858	 0.097604
H	 1.9880334932	-2.5818430592	 1.3438272702	 0.133613
H	 0.2179165717	-2.6288932939	 1.0550211366	 0.114954
136.0217	138.7045	233.9958	247.5641	287.3145	400.5515	448.7869	529.9284	551.6602	596.2796	753.2603	768.2532	793.496	843.4786	884.8064	929.7998	953.6965	976.6363	1002.9786	1034.2399	1075.8165	1090.2267	1112.9437	1145.332	1183.8459	1204.7645	1241.5201	1266.2036	1270.5772	1285.3751	1354.494	1396.5376	1415.0074	1495.7526	1499.1109	1500.8391	2352.3333	3034.387	3037.2047	3059.8714	3104.0479	3114.61	3125.0545	3145.8461	3181.4784
CC1C2N3C1CC23C#N	C[C@H]1[C@H]2N3[C@@H]1C[C@@]23C#N	
InChI=1S/C7H8N2/c1-4-5-2-7(3-8)6(4)9(5)7/h4-6H,2H2,1H3	InChI=1S/C7H8N2/c1-4-5-2-7(3-8)6(4)9(5)7/h4-6H,2H2,1H3/t4-,5-,6-,7-,9?/m1/s1
