21
gdb 94229	3.02039	0.98576	0.90053	3.9224	79.12	-0.2435	-0.0188	0.2247	1370.7503	0.17964	-424.225224	-424.215138	-424.214194	-424.260639	36.807	
C	-0.1001294255	 1.5443188079	 0.1402878117	-0.435185
C	 0.0151328578	 0.0220575494	 0.0069332619	 0.284352
C	-1.3466925757	-0.6051824752	-0.3336590277	-0.343697
C	-1.8874699524	-0.1578656151	-1.673137513	 0.161406
O	-2.9824760173	 0.3083147992	-1.859131212	-0.244196
C	 1.2375128138	-0.40327058	-0.8748649676	-0.261685
C	 2.0846882882	-0.5677932029	 0.4157191306	-0.276808
C	 0.7574696744	-0.6192137802	 1.2174308599	 0.110763
O	 0.6414408001	 0.0994372806	 2.4214304726	-0.430319
H	 0.8621116695	 2.0015412783	 0.3840885354	 0.119825
H	-0.4575059511	 1.9872790101	-0.7956980618	 0.117624
H	-0.8021808364	 1.8129318382	 0.9343271273	 0.13402
H	-1.2319719501	-1.698212531	-0.3854209874	 0.108222
H	-2.0916638135	-0.3784887248	 0.4358842269	 0.123744
H	-1.1790858214	-0.2978422931	-2.5237737397	 0.072507
H	 1.0719179939	-1.3574537689	-1.3836455282	 0.09795
H	 1.5866424512	 0.3251130134	-1.6100783314	 0.105556
H	 2.7523369245	-1.4300077451	 0.4819998849	 0.095298
H	 2.6478594372	 0.3371203877	 0.6571851643	 0.112867
H	 0.4287532	-1.6615043576	 1.348681503	 0.061592
H	 1.129160503	-0.369049291	 3.1059168301	 0.286162
56.2225	71.2103	121.1836	176.6414	215.5155	230.553	260.6105	278.8205	333.2385	354.7201	452.1855	474.2898	554.8918	617.1986	720.7843	791.1402	828.6304	892.7286	906.0385	944.4377	961.9831	968.8055	1016.5459	1044.182	1112.912	1120.4489	1161.2674	1171.2729	1196.7461	1210.9168	1238.1251	1248.1538	1275.9677	1302.3867	1321.8163	1332.8916	1410.9215	1429.3052	1432.5622	1458.0489	1476.2117	1491.3851	1498.2272	1499.3899	1831.4959	2851.9431	2978.3173	3003.9613	3039.1425	3055.4318	3064.1251	3086.9448	3105.1098	3107.7118	3120.3955	3125.4286	3821.333
CC1(CC=O)CCC1O	C[C@@]1(CC=O)CC[C@H]1O	
InChI=1S/C7H12O2/c1-7(4-5-8)3-2-6(7)9/h5-6,9H,2-4H2,1H3	InChI=1S/C7H12O2/c1-7(4-5-8)3-2-6(7)9/h5-6,9H,2-4H2,1H3/t6-,7+/m1/s1
