21
gdb 72193	3.21553	1.75889	1.52992	0.2096	84.67	-0.2355	0.0908	0.3263	968.5606	0.185426	-349.926789	-349.919923	-349.918978	-349.957413	29.817	
C	 0.0085648547	 1.4615161262	 0.0344868353	-0.486566
C	 0.040647328	-0.0479118697	-0.0126850671	 0.343546
C	-0.1197060199	-0.7422001859	-1.3594560636	-0.273891
C	 0.0506901209	-2.2316883451	-1.034813714	-0.050521
C	-1.2145038814	-2.769321477	-0.3037035082	-0.238071
C	-0.5707393632	-2.3086669611	 1.0195406575	-0.031026
C	-0.4445592028	-0.7827353764	 1.2338731633	-0.121295
C	 1.0333539354	-0.7997538835	 0.8285633701	-0.11841
C	 0.8354920757	-2.2557857116	 0.3481438449	-0.050747
H	 0.7558061189	 1.8912055614	-0.643130127	 0.113776
H	-0.9722794467	 1.8486300764	-0.2648653127	 0.115657
H	 0.2187497882	 1.8353499958	 1.0419565098	 0.114421
H	-1.0852407162	-0.5398292396	-1.8389363352	 0.090245
H	 0.664514404	-0.3846680256	-2.04026603	 0.086713
H	 0.435825291	-2.8229378999	-1.8670166384	 0.058967
H	-2.1797457957	-2.3424576507	-0.5955856823	 0.085548
H	-1.279703761	-3.8609873774	-0.347752555	 0.091013
H	-0.7454401281	-2.8669298371	 1.9410752485	 0.059867
H	-0.9212269752	-0.2249096539	 2.0326462276	 0.074111
H	 1.9005790014	-0.3627278092	 1.3084762572	 0.075937
H	 1.5958861921	-3.0156844262	 0.5137489294	 0.060726
203.5444	221.1282	296.6622	339.5446	396.835	468.7403	552.5096	610.654	690.052	694.9666	781.5503	815.6293	836.157	853.1244	858.2682	901.1075	918.0604	924.4695	951.6494	962.1041	990.4031	1023.5666	1036.008	1046.8097	1066.3389	1083.6774	1091.7663	1130.4898	1141.6188	1191.3097	1222.5891	1224.9324	1243.6956	1249.3969	1266.8026	1275.2257	1308.6121	1326.4596	1348.9789	1409.0021	1417.8349	1482.2609	1490.4535	1494.883	1504.1166	3010.7654	3021.6128	3036.4421	3053.1321	3080.3979	3084.6649	3088.8664	3094.489	3095.1603	3136.762	3162.8751	3183.433
CC12CC3CC4C1C2C34	C[C@]12C[C@@H]3C[C@@H]4[C@H]1[C@H]2[C@H]34	
InChI=1S/C9H12/c1-9-3-4-2-5-6(4)8(9)7(5)9/h4-8H,2-3H2,1H3	InChI=1S/C9H12/c1-9-3-4-2-5-6(4)8(9)7(5)9/h4-8H,2-3H2,1H3/t4-,5-,6+,7-,8+,9-/m0/s1
