13
gdb 19026	4.73512	2.24955	1.89067	4.4735	65.64	-0.2404	-0.0895	0.1508	693.487	0.09575	-361.357809	-361.352175	-361.351231	-361.387344	22.63	
O	-0.1439025013	 0.1813727428	 0.6165866804	-0.300527
C	-0.1121717745	 1.2280764441	 0.0380509087	 0.392043
C	-1.2529663813	 2.1345970458	-0.3375118762	-0.23617
C	-0.6693046675	 3.2737969219	-0.7687463641	 0.074293
C	-0.2041838664	 4.3090438005	 0.2423269557	-0.275377
C	 1.1698136341	 3.4983422316	 0.1033184249	-0.040481
C	 0.7709316419	 2.9823575062	-1.2056797368	-0.080687
N	 1.1334739097	 1.983574833	-0.1923807593	-0.173648
H	-2.1541575023	 2.0790916641	 0.2636391298	 0.129183
H	 0.0074589564	 5.3143287588	-0.1352825574	 0.134793
H	-0.735896392	 4.3520869812	 1.1949104766	 0.128807
H	 2.1297174455	 3.8610623068	 0.454247741	 0.129267
H	 1.2290057378	 2.9957450833	-2.1861724533	 0.118504
138.3737	384.1188	389.4861	447.3924	609.7997	624.4824	691.8985	711.3834	748.8578	801.9209	817.3478	869.649	883.5131	908.481	953.658	993.3908	1026.8275	1047.7634	1069.9331	1089.4579	1180.2886	1188.1592	1216.1709	1254.4423	1318.5779	1487.0564	1571.3053	1844.5191	3053.9425	3127.2002	3181.3933	3194.1491	3204.5717
O=C1C=C2CC3C2N13	O=C1[CH][C]2C[C@@H]3[C@H]2N13	
InChI=1S/C6H5NO/c8-5-2-3-1-4-6(3)7(4)5/h2,4,6H,1H2	InChI=1S/C6H5NO/c8-5-2-3-1-4-6(3)7(4)5/h2,4,6H,1H2/t4-,6+,7?/m1/s1
