21
gdb 113093	4.75341	0.78943	0.7285	0.3496	81.96	-0.2421	0.0203	0.2624	1600.3721	0.181867	-424.219115	-424.209428	-424.208484	-424.25439	35.147	
C	 0.1362120804	 1.3190619718	 0.1381552608	-0.23597
O	-0.0023925641	-0.049482881	-0.158839665	-0.244459
C	-1.3276427005	-0.5440240075	-0.0084529374	 0.106021
C	-1.4175587501	-1.9336116524	-0.6753315704	-0.282565
C	-2.2756946247	-2.8147888018	 0.2655017711	-0.020467
C	-1.7586588438	-4.2455301228	 0.3967892632	-0.086734
O	-2.6565303925	-4.9588737162	 1.2351981083	-0.424275
C	-2.2568220144	-2.0396748581	 1.5632026213	-0.059909
C	-1.7437771874	-0.8200621163	 1.4216219464	-0.109622
H	 1.1730211216	 1.5931917494	-0.0735159595	 0.124887
H	-0.5282328485	 1.9407138911	-0.483646222	 0.101446
H	-0.0742926106	 1.5470260314	 1.194085917	 0.103995
H	-2.0197692887	 0.1770802127	-0.4788025804	 0.06348
H	-1.8066650245	-1.8887947526	-1.6947546081	 0.099737
H	-0.3946849564	-2.3227571762	-0.7280014341	 0.116489
H	-3.3084789052	-2.8874050837	-0.1040348723	 0.087797
H	-1.6933407462	-4.7068894264	-0.6021337619	 0.08529
H	-0.7418762207	-4.2270924678	 0.8210801739	 0.088486
H	-2.3054344078	-5.8434417393	 1.3713605111	 0.287319
H	-2.6482925385	-2.4640016915	 2.4805373437	 0.106586
H	-1.6540946974	-0.079994043	 2.2089447143	 0.092467
41.5583	89.4224	117.0106	185.7262	211.0238	239.1608	265.192	274.8894	334.4385	415.1667	499.5663	569.348	626.8629	749.8168	788.3726	851.6152	872.4321	948.822	981.3388	989.7639	1014.9322	1054.876	1074.5932	1098.0988	1114.249	1131.7053	1158.7799	1179.7872	1183.0993	1233.8638	1239.7219	1253.3655	1290.802	1311.5956	1322.42	1341.4791	1370.3297	1397.8673	1452.8829	1478.0067	1484.5173	1490.459	1509.7825	1521.0645	1685.0982	2934.7754	2961.3498	2970.4239	2988.8199	3010.6763	3015.97	3052.6065	3108.2192	3108.9198	3187.1048	3213.5699	3833.0958
COC1CC(CO)C=C1	CO[C@H]1C[C@@H](CO)C=C1	
InChI=1S/C7H12O2/c1-9-7-3-2-6(4-7)5-8/h2-3,6-8H,4-5H2,1H3	InChI=1S/C7H12O2/c1-9-7-3-2-6(4-7)5-8/h2-3,6-8H,4-5H2,1H3/t6-,7+/m0/s1
