16
gdb 12915	3.24173	1.66296	1.35256	2.6582	66.44	-0.2379	-0.021	0.2169	934.8489	0.129533	-383.71287	-383.705323	-383.704379	-383.744663	28.421	
O	-0.0210620442	 1.3937810683	-0.0146537641	-0.449737
C	-0.0038797009	 0.016490211	-0.0371505274	 0.380064
C	 0.7078478209	-0.8293403509	-1.1046844711	-0.305847
C	-0.5215666007	-1.800035897	-1.0923961252	-0.230897
C	-1.1902624676	-0.9096208829	-0.0355766198	-0.128076
C	-0.3283060716	-0.7832680164	 1.2268382097	-0.170848
C	 0.5153434663	-1.851515759	 1.8028860338	 0.143012
O	 0.7243544506	-1.9752735553	 2.9881469291	-0.273458
H	 0.7554170836	 1.7060640937	 0.4639362903	 0.292968
H	 0.7806578895	-0.2811952995	-2.0462501244	 0.120392
H	 1.6911878835	-1.2373536591	-0.8558659884	 0.103767
H	-1.0616504449	-1.7855992364	-2.0408815478	 0.116764
H	-0.3355291173	-2.8405988515	-0.8172418611	 0.111097
H	-2.2460324309	-0.6774596254	 0.0292385406	 0.107711
H	-0.7898039094	-0.1543808024	 1.9829544922	 0.112546
H	 0.975555473	-2.5548880872	 1.0759863136	 0.07054
93.439	180.8894	226.9893	250.8537	296.3331	361.9481	425.1653	465.3189	510.6298	632.3337	679.3962	794.6706	864.1243	900.5376	924.6446	959.3118	989.7812	1025.4287	1052.0235	1076.0981	1122.8596	1144.7627	1197.3251	1213.0484	1224.7156	1232.1227	1294.8662	1302.6215	1309.0689	1423.0169	1471.527	1483.936	1511.2846	1800.4909	2894.3654	3061.5443	3072.3367	3110.8852	3127.8753	3164.2569	3194.4282	3791.0357
OC12CCC1C2C=O	O[C@]12CC[C@H]1[C@H]2C=O	
InChI=1S/C6H8O2/c7-3-5-4-1-2-6(4,5)8/h3-5,8H,1-2H2	InChI=1S/C6H8O2/c7-3-5-4-1-2-6(4,5)8/h3-5,8H,1-2H2/t4-,5+,6+/m0/s1
