20
gdb 89167	1.93791	1.62359	1.04973	3.5492	81.84	-0.2421	-0.0326	0.2095	1214.0109	0.16906	-403.115905	-403.106628	-403.105684	-403.149797	34.635	
C	-0.6202193181	 1.4606134422	 0.1286044751	-0.415765
C	-0.0726400813	 0.0481276565	 0.0321024821	 0.094257
C	 0.9719825763	-0.3936466697	-1.0312731371	-0.356587
C	 1.7796816307	-0.9631644988	 0.1462150558	 0.326559
C	 2.3834702431	-2.3369960566	 0.1774725023	-0.487231
C	 2.1648435674	 0.1018891523	 1.1177570783	-0.124967
C	 2.5902534937	 1.4772361002	 0.7398269667	 0.135039
O	 3.3777499891	 2.1108040486	 1.4027771611	-0.265449
N	 0.7794536133	-0.4752923702	 1.1654047227	-0.19749
H	 0.1534854375	 2.231145635	 0.1102694734	 0.123319
H	-1.3025931455	 1.6536820665	-0.7063824814	 0.122652
H	-1.1859657564	 1.5759093643	 1.0587731177	 0.136314
H	-0.9240628401	-0.6392641518	-0.0011971377	 0.09729
H	 0.5996300234	-1.1665659234	-1.7067641726	 0.113827
H	 1.4528495708	 0.3807891234	-1.633554161	 0.112502
H	 3.2835699125	-2.3795625754	-0.446300973	 0.128941
H	 2.6605777232	-2.6165921083	 1.1974408989	 0.136748
H	 1.6756887088	-3.0825036912	-0.2011882318	 0.125327
H	 2.7207199641	-0.2415142704	 1.9864717369	 0.114681
H	 2.1965732675	 1.8890191167	-0.2096643462	 0.080032
75.194	158.7409	166.101	185.8939	204.8085	242.9121	293.9304	323.8872	384.5911	432.9928	484.0979	546.105	636.5966	679.5944	767.6475	828.8122	859.6982	898.7062	934.5441	989.515	1035.7361	1039.5867	1067.4317	1107.3495	1118.7592	1137.4927	1149.7419	1195.0259	1234.3703	1275.4091	1297.8399	1308.1907	1378.1486	1398.032	1410.7165	1416.6771	1458.2241	1481.9843	1490.5171	1491.9855	1494.0855	1499.8654	1796.697	2931.9094	3030.7528	3040.1917	3048.1153	3067.2031	3092.8225	3104.1649	3115.9516	3118.1579	3128.5847	3152.4908
CC1CC2(C)C(C=O)N12	C[C@H]1C[C@@]2(C)[C@@H](C=O)N12	
InChI=1S/C7H11NO/c1-5-3-7(2)6(4-9)8(5)7/h4-6H,3H2,1-2H3	InChI=1S/C7H11NO/c1-5-3-7(2)6(4-9)8(5)7/h4-6H,3H2,1-2H3/t5-,6+,7-,8?/m0/s1
