16
gdb 19653	4.53388	2.06089	1.90686	3.1689	67.71	-0.233	-0.0042	0.2288	745.1245	0.133517	-346.587659	-346.582018	-346.581074	-346.617206	23.454	
O	-0.059026566	-0.0146640487	-0.1102766055	-0.333387
C	-0.0285624703	 1.173015904	 0.0339950163	 0.440983
C	-1.0629019489	 2.3115430535	 0.0151553108	-0.166586
C	-0.789297936	 2.9278099317	 1.410130813	-0.219872
C	 0.670644418	 3.3422468095	 1.1024910969	-0.039423
C	 0.4646175367	 4.3562360626	-0.0530758711	-0.23621
C	 0.0241279508	 3.1099390667	-0.8342954602	-0.032663
C	 1.0480031836	 2.2433281479	 0.018615115	-0.1631
H	-2.0876587791	 2.1632830643	-0.3162003203	 0.084593
H	-1.4209130079	 3.7896853255	 1.6427492867	 0.103116
H	-0.8885283656	 2.1946901423	 2.2161880016	 0.110501
H	 1.3311602557	 3.5534271897	 1.9421937908	 0.074361
H	-0.2418138512	 5.1784233565	 0.1006013432	 0.095349
H	 1.408926604	 4.7477929598	-0.4402267016	 0.106139
H	-0.0408562645	 3.0420581476	-1.9179559398	 0.087395
H	 2.0906910105	 2.085106137	-0.2451243858	 0.088802
151.8819	324.8777	440.6272	494.3482	556.7038	644.2992	728.0758	776.411	787.6657	826.1152	839.6343	910.5385	912.286	955.6504	961.6981	978.4688	996.3078	1027.2551	1052.8385	1086.2682	1088.7944	1136.2739	1149.8611	1187.5627	1198.0842	1217.1531	1231.2777	1254.6039	1280.2694	1304.1209	1319.0858	1497.508	1518.2376	1889.4124	3044.9806	3052.7474	3097.7565	3106.0956	3125.9291	3141.7634	3154.6059	3158.901
O=C1C2CC3CC2C13	O=C1[C@H]2C[C@@H]3C[C@H]2[C@H]13	
InChI=1S/C7H8O/c8-7-5-2-3-1-4(5)6(3)7/h3-6H,1-2H2	InChI=1S/C7H8O/c8-7-5-2-3-1-4(5)6(3)7/h3-6H,1-2H2/t3-,4+,5-,6+/m0/s1
