18
gdb 62011	3.51892	0.76862	0.68239	1.5129	70.72	-0.2758	-0.0483	0.2275	1634.966	0.144503	-476.233627	-476.223577	-476.222633	-476.26986	34.873	
C	-0.1817640566	 0.918606585	 1.2092871619	-0.444586
C	 0.0560886826	-0.1300191335	 0.1619033804	 0.417462
N	 1.1538741844	-0.228547983	-0.460712552	-0.512078
O	-1.0639204427	-0.9048059056	 0.0185850362	-0.251741
C	-1.0325730134	-1.9588611716	-0.9330255473	-0.12656
C	-2.4145003846	-2.6301043997	-0.9191799185	 0.026273
O	-2.4827994258	-3.574008501	-1.9471927797	-0.431935
C	-2.6946476633	-3.2814052254	 0.4239481453	 0.139436
O	-2.9597563257	-4.4571957325	 0.5007619926	-0.258438
H	 0.7100161533	 1.5338305768	 1.3171339423	 0.152451
H	-1.0335176921	 1.5464847921	 0.9300414176	 0.14065
H	-0.4247364573	 0.4490663715	 2.167673539	 0.138553
H	 1.1658268996	-0.9874522756	-1.1404273046	 0.222472
H	-0.8415078791	-1.5771788162	-1.9431069855	 0.134862
H	-0.2525511551	-2.6911529753	-0.6862592378	 0.124384
H	-3.1681684286	-1.8342931238	-1.0526023998	 0.109997
H	-2.7177626068	-4.4117909111	-1.5156919841	 0.299302
H	-2.6413213988	-2.6277962709	 1.3136967442	 0.119498
52.7418	57.4055	119.845	127.2981	145.3798	190.1747	259.7534	320.6453	331.1405	430.925	457.6799	507.0442	557.4204	611.0076	732.6827	836.292	870.9423	888.7469	923.9807	990.77	1061.0891	1076.2072	1092.0935	1118.0579	1139.7734	1167.29	1224.2897	1291.8063	1310.848	1326.5327	1383.9608	1395.8076	1416.4418	1447.1309	1474.3064	1478.4413	1520.8176	1743.9789	1811.3662	2960.0439	2980.161	3016.2906	3051.2493	3068.1426	3109.1787	3172.104	3501.7267	3678.6314
CC(=N)OCC(O)C=O	C[C]([NH])OC[C@@H](O)C=O	
InChI=1S/C5H9NO3/c1-4(6)9-3-5(8)2-7/h2,5-6,8H,3H2,1H3	InChI=1S/C5H9NO3/c1-4(6)9-3-5(8)2-7/h2,5-6,8H,3H2,1H3/t5-/m0/s1
