23
gdb 87213	4.15902	0.84151	0.78042	1.6134	86.65	-0.2517	0.0889	0.3406	1578.1175	0.203527	-388.270716	-388.260481	-388.259537	-388.306273	37.926	
C	 0.1559866403	 1.4129835875	-0.3807487639	-0.426579
C	 0.169172179	-0.0352204678	 0.0383454378	 0.026294
O	 1.4405041363	-0.6309459557	 0.3294469098	-0.304059
C	 0.4684325526	-0.5462846663	 1.3917638423	 0.393133
C	 0.8333028716	 0.3769932468	 2.5344042004	-0.462772
C	-0.1076311239	-1.8999935266	 1.7896585725	-0.283342
C	 0.8801437924	-2.778355512	 2.5336081441	 0.041089
C	 0.9334450462	-2.7988922089	 4.0425455774	-0.254351
C	 0.3969518227	-3.9900069002	 3.2879960905	-0.283643
H	 0.7995211389	 2.03132941	 0.2470140135	 0.126432
H	 0.5070095081	 1.5051677383	-1.4141815349	 0.129324
H	-0.8634534765	 1.8123597336	-0.3389062755	 0.119641
H	-0.4714451758	-0.6712383856	-0.5787257213	 0.078184
H	 1.2765604042	 1.3071737092	 2.1771308093	 0.123209
H	-0.0535375167	 0.6194650882	 3.1306614297	 0.11456
H	 1.5560765981	-0.1086411121	 3.1959991601	 0.136807
H	-1.0041147875	-1.748134286	 2.4061200814	 0.090035
H	-0.4327027123	-2.4156562154	 0.8783371527	 0.100876
H	 1.8320091207	-2.8858446423	 2.0209204326	 0.098035
H	 1.8997161593	-2.8867768245	 4.5272671048	 0.11103
H	 0.2219039587	-2.1837538452	 4.5842928879	 0.107469
H	-0.6728903577	-4.1705212257	 3.3233110312	 0.107718
H	 0.9963846613	-4.8930069793	 3.2541571475	 0.110911
51.3401	83.7075	122.6657	147.5945	156.7874	239.1709	269.8495	298.438	324.2123	395.5884	419.3411	480.1821	557.0268	714.5729	773.9483	782.7264	807.2464	840.3734	880.979	903.473	932.6337	968.0257	984.4719	1000.4282	1046.8789	1059.79	1077.4259	1106.1633	1133.0189	1143.1342	1158.9262	1183.1357	1200.084	1222.8848	1236.3789	1281.1902	1318.7806	1373.7076	1407.4515	1411.6336	1418.5639	1461.1073	1464.7431	1471.666	1477.5233	1486.9073	1499.5581	1507.3786	1521.343	3014.3537	3037.4713	3043.5585	3058.6428	3067.3849	3096.4813	3107.8135	3126.0029	3130.9456	3134.1164	3145.5931	3148.9213	3203.6035	3219.1763
CC1OC1(C)CC1CC1	C[C@H]1O[C@]1(C)CC1CC1	
InChI=1S/C8H14O/c1-6-8(2,9-6)5-7-3-4-7/h6-7H,3-5H2,1-2H3	InChI=1S/C8H14O/c1-6-8(2,9-6)5-7-3-4-7/h6-7H,3-5H2,1-2H3/t6-,8-/m1/s1
