19
gdb 102111	2.15902	1.21156	0.91528	2.9833	73.6	-0.2367	-0.0253	0.2114	1332.7848	0.155444	-460.129651	-460.119356	-460.118412	-460.166564	35.637	
C	 0.0689961272	 1.2799100629	-0.0280111698	-0.242292
O	-0.075153568	-0.0628123322	 0.3951655215	-0.248894
C	-1.2179025219	-0.7073589204	-0.1480908103	 0.02738
C	-0.9666467504	-0.9965382097	-1.6297889893	 0.139642
O	-1.7247849794	-0.7505021878	-2.5289042615	-0.235763
C	-1.4085934655	-2.0126456297	 0.5876233913	-0.052593
C	-1.913535667	-1.989547577	 2.0178865114	-0.332909
C	-2.7879356481	-2.516971287	 0.9116171407	 0.099606
O	-3.8657704379	-1.750678455	 0.4612922332	-0.410636
H	 0.9574099504	 1.6763559242	 0.4686485405	 0.130901
H	 0.2041836578	 1.3669191833	-1.1159796488	 0.118124
H	-0.8034266101	 1.8867650363	 0.2568464535	 0.112245
H	-2.1158701595	-0.0829328612	-0.0604693528	 0.098154
H	 0.0313310177	-1.4642290986	-1.8089884356	 0.077587
H	-0.6644290421	-2.768828927	 0.3521191688	 0.095716
H	-1.4815051438	-2.6804652424	 2.7331432723	 0.117125
H	-2.1712613196	-1.0154740354	 2.4195067598	 0.122522
H	-2.9405388145	-3.594453134	 0.8530350222	 0.092555
H	-4.5474999851	-1.7671892194	 1.1409268029	 0.29153
29.9327	45.6255	95.4055	135.6247	164.4979	215.2415	254.5227	282.8711	321.509	382.026	416.9187	476.4532	532.4493	574.4347	783.4552	840.6025	891.5378	962.4115	975.7983	998.8742	1052.5612	1053.8374	1075.8547	1124.7724	1136.0482	1176.4954	1178.2042	1185.0668	1227.3999	1240.3317	1269.8174	1299.8412	1331.6603	1406.69	1410.3221	1430.2916	1477.8566	1488.352	1489.4118	1509.1423	1841.7366	2849.5848	2983.574	3033.3046	3042.7988	3100.9947	3120.5161	3135.463	3144.1483	3225.8572	3809.733
COC(C=O)C1CC1O	CO[C@@H](C=O)[C@H]1C[C@H]1O	
InChI=1S/C6H10O3/c1-9-6(3-7)4-2-5(4)8/h3-6,8H,2H2,1H3	InChI=1S/C6H10O3/c1-9-6(3-7)4-2-5(4)8/h3-6,8H,2H2,1H3/t4-,5+,6-/m0/s1
