20
gdb 110851	2.22245	1.34691	1.13586	2.8945	75.	-0.2373	0.0536	0.2909	1194.4464	0.169569	-440.228699	-440.219086	-440.218142	-440.26294	35.758	
C	-0.0439720193	 1.5814882244	 0.1113214768	-0.50019
C	-0.2059661454	 0.0885482009	 0.0830581187	 0.281371
C	-0.1598222008	-0.7541748979	 1.2983023404	-0.065885
C	-1.0798270036	-1.8859558317	 1.6992346113	-0.112906
O	-0.4371609925	-2.7588668956	 2.6207205273	-0.419468
N	 0.963194056	-0.8796007826	 0.3295500448	-0.198934
C	 0.466841551	-1.7131401239	-0.8241721392	-0.189024
C	-0.6397032845	-0.6991845217	-1.1636468433	 0.044579
O	-1.9413368803	-1.2406563455	-1.2410988484	-0.421817
H	 0.5753521625	 1.8901054725	 0.9580367381	 0.135535
H	 0.4309679046	 1.9465723095	-0.8060250949	 0.122174
H	-1.0168704504	 2.0790808242	 0.2082192694	 0.118903
H	 0.1981183973	-0.2141004007	 2.1745568861	 0.100097
H	-1.9372752362	-1.4654137801	 2.2363448495	 0.109579
H	-1.4814227432	-2.4228534546	 0.8350006232	 0.118209
H	 0.3853888489	-3.0509955648	 2.2137761925	 0.288244
H	 1.2481430943	-1.7904576008	-1.5819950155	 0.11413
H	 0.1242579513	-2.7183327136	-0.5644195738	 0.111542
H	-0.400424359	-0.1311644379	-2.0729639202	 0.079215
H	-2.5624348509	-0.5261812501	-1.4166875827	 0.284646
72.515	138.6802	160.2293	179.2205	226.9486	241.9113	265.8069	310.5396	328.6951	410.1462	423.7484	545.4504	577.0113	638.4518	703.3054	793.0765	832.482	914.0463	933.8385	964.129	1011.8333	1047.1445	1059.5431	1079.9535	1103.62	1119.3716	1150.4618	1173.4161	1219.3913	1231.7156	1254.8	1292.1957	1325.8454	1328.6408	1370.5386	1409.4045	1413.4056	1426.5605	1471.7618	1485.2387	1490.9672	1493.8492	1522.594	3006.1438	3024.2418	3049.664	3063.4519	3084.0623	3087.9432	3111.4639	3118.5577	3121.5796	3810.3634	3812.3575
CC12C(CO)N1CC2O	C[C@]12[C@@H](CO)N1C[C@H]2O	
InChI=1S/C6H11NO2/c1-6-4(3-8)7(6)2-5(6)9/h4-5,8-9H,2-3H2,1H3	InChI=1S/C6H11NO2/c1-6-4(3-8)7(6)2-5(6)9/h4-5,8-9H,2-3H2,1H3/t4-,5-,6-,7?/m1/s1
