19
gdb 102485	2.29196	1.07251	0.85476	2.1117	68.61	-0.2593	0.0138	0.2731	1409.2949	0.15638	-497.316883	-497.305884	-497.30494	-497.354254	36.987	
C	-0.0021232736	 1.3420659075	 0.3738594685	-0.242524
O	-0.1298250975	-0.0835229839	 0.4633534679	-0.233704
C	-1.1974391716	-0.6039516905	-0.1697684059	 0.46032
O	-2.0282741099	 0.0594753083	-0.7407792855	-0.377287
C	-1.210321344	-2.118378105	-0.0905431401	-0.144108
C	-2.6238661996	-2.6125732901	 0.2272519776	-0.091346
O	-2.5669945157	-4.0269654977	 0.3401578063	-0.425033
C	-0.7035284316	-2.6928970376	-1.4304427703	-0.065223
O	 0.5745402596	-2.1984950502	-1.7902752469	-0.418561
H	 0.9025814819	 1.5942738534	 0.9270005742	 0.131769
H	 0.0867282958	 1.6533740543	-0.6697437134	 0.146091
H	-0.8715022973	 1.8354233607	 0.8155377269	 0.139664
H	-0.5338357787	-2.4383481645	 0.7093961971	 0.094942
H	-2.9738629723	-2.1515858714	 1.1635348603	 0.096291
H	-3.3043951538	-2.2898475233	-0.5725352479	 0.114465
H	-3.4627256192	-4.3549358351	 0.4599101446	 0.291446
H	-0.725543028	-3.7876637312	-1.3745323868	 0.114615
H	-1.3807287573	-2.3785819519	-2.2313336903	 0.12403
H	 1.2019443629	-2.4707758318	-1.1127742864	 0.284154
36.1847	76.3052	96.6988	115.2255	131.971	184.6957	205.8796	242.0275	263.2064	294.6583	343.8841	352.5772	433.0509	515.5446	710.0107	765.5443	855.5205	899.9922	994.3205	1040.2338	1052.093	1076.5183	1093.1804	1110.1773	1178.3981	1183.7186	1199.2653	1215.9518	1257.2963	1266.8519	1331.0705	1370.0141	1393.023	1416.3599	1455.1884	1474.3345	1481.3885	1495.9338	1508.9399	1523.4821	1812.664	2983.1908	3028.8106	3033.6966	3053.242	3058.3728	3092.1609	3129.3199	3159.454	3814.8721	3836.172
COC(=O)C(CO)CO	COC(=O)C(CO)CO	
InChI=1S/C5H10O4/c1-9-5(8)4(2-6)3-7/h4,6-7H,2-3H2,1H3	InChI=1S/C5H10O4/c1-9-5(8)4(2-6)3-7/h4,6-7H,2-3H2,1H3
