16
gdb 98793	4.2498	0.98414	0.91593	2.4689	65.84	-0.261	-0.0407	0.2203	1265.7723	0.123845	-475.039061	-475.030602	-475.029658	-475.073591	29.666	
O	 0.3031330737	 1.3213618512	-0.0581993048	-0.416207
C	 0.1022604792	-0.0533152691	-0.1652361384	-0.13885
C	-1.3680735359	-0.4128592384	-0.0148442248	 0.339833
O	-2.1990590359	 0.46079885	 0.0805966717	-0.311013
C	-1.7189235779	-1.890604591	 0.0529458427	-0.014595
C	-1.7466910982	-2.4131371685	 1.533496931	-0.20303
N	-3.1476903003	-2.7871032689	 1.7596534235	-0.250394
C	-3.7504437098	-2.5736279018	 0.6690377983	 0.132069
O	-3.0650446267	-2.0993706636	-0.4031586393	-0.207165
H	-0.5865628954	 1.7062321951	-0.0060016356	 0.297717
H	 0.4367775229	-0.4428425487	-1.1438980013	 0.120909
H	 0.6858918642	-0.6004376959	 0.5939503429	 0.12124
H	-1.0436343184	-2.4716885296	-0.5822777749	 0.111428
H	-1.0939768078	-3.2794850473	 1.6757953806	 0.130337
H	-1.4437369028	-1.6457639806	 2.2531609245	 0.134189
H	-4.8040380009	-2.7443447928	 0.4824939237	 0.153533
41.7198	67.058	103.1277	199.3732	235.1796	323.3208	369.1048	420.8502	490.4425	553.4996	705.6688	749.3051	836.0573	876.846	951.8557	958.1594	966.8629	982.3831	995.1291	1067.5303	1104.0388	1124.1827	1153.8744	1201.5047	1242.1801	1283.2214	1310.3171	1315.64	1333.6916	1383.7379	1450.9105	1488.4509	1496.0076	1715.9872	1810.758	2952.5734	2983.0866	3048.2883	3064.1094	3089.2843	3230.109	3686.4591
OCC(=O)C1CN=CO1	OCC(=O)[C@H]1CN=CO1	
InChI=1S/C5H7NO3/c7-2-4(8)5-1-6-3-9-5/h3,5,7H,1-2H2	InChI=1S/C5H7NO3/c7-2-4(8)5-1-6-3-9-5/h3,5,7H,1-2H2/t5-/m1/s1
