19
gdb 13776	3.04834	1.47263	1.35181	3.7956	72.9	-0.247	0.0089	0.256	1029.3977	0.164138	-365.0611	-365.0522	-365.051255	-365.094649	32.1	
C	-0.1998725059	 1.452780279	 0.3968250545	-0.388122
C	-0.0350276281	-0.049962812	 0.1110107354	 0.011211
C	 0.8336001636	-0.7287036556	 1.1782640192	-0.415503
C	-1.3963145326	-0.6933413701	-0.1320506884	-0.002991
C	-1.7087425192	-2.1412234813	 0.14946189	-0.260835
N	-2.310159316	-1.0887204568	 0.9265528036	-0.054397
C	-2.2539266133	-0.9360590623	 2.2931018615	 0.138268
O	-2.2812837186	-1.8411328919	 3.0938134859	-0.30316
H	 0.7731116647	 1.9533558894	 0.4121201839	 0.118573
H	-0.8173667179	 1.9400960379	-0.3646679156	 0.116767
H	-0.6748512507	 1.6210583738	 1.3696314715	 0.12228
H	 0.4904115403	-0.1432798214	-0.8506433519	 0.088907
H	 0.3587192153	-0.7259348262	 2.1640552381	 0.140955
H	 1.0659076602	-1.7651401968	 0.9193114806	 0.122139
H	 1.7835388891	-0.1939265228	 1.2737920532	 0.119174
H	-1.9145755476	-0.2517824635	-0.9841977364	 0.10036
H	-2.3726669121	-2.6854391166	-0.5173875333	 0.125948
H	-0.9597900312	-2.7494684279	 0.6479962836	 0.137458
H	-2.2664638601	 0.1310441049	 2.5868604648	 0.082968
66.0593	99.6985	192.6806	208.6647	223.1444	231.818	298.5929	329.8151	373.2376	456.0464	539.2335	669.1708	721.1681	839.3592	909.8869	930.6065	962.1286	971.8093	1009.0599	1040.5149	1073.2262	1120.5298	1128.3922	1142.9285	1157.3598	1180.1058	1216.6572	1336.2947	1360.3763	1394.7491	1404.7932	1416.2262	1424.3365	1442.3125	1486.7498	1494.1785	1503.6328	1510.1654	1517.4228	1789.8621	2949.3878	3000.3928	3032.6315	3044.8085	3096.367	3101.9391	3105.6297	3109.8199	3112.6339	3119.8998	3201.5652
CC(C)C1CN1C=O	CC(C)[C@H]1CN1C=O	
InChI=1S/C6H11NO/c1-5(2)6-3-7(6)4-8/h4-6H,3H2,1-2H3	InChI=1S/C6H11NO/c1-5(2)6-3-7(6)4-8/h4-6H,3H2,1-2H3/t6-,7?/m1/s1
