19
gdb 38129	2.72292	2.03995	1.80485	1.846	77.13	-0.2308	0.0037	0.2344	871.634	0.163597	-385.882224	-385.876048	-385.875104	-385.912293	27.054	
C	-0.0484644331	 1.5998814291	-0.0649360316	-0.242342
C	 1.4537898014	 1.9986134839	-0.0076320145	-0.200191
C	 2.1215787554	 0.8156652738	 0.7391305101	-0.116504
C	 1.6598646252	 0.8425192983	 2.1830950495	-0.05244
C	 0.5511537528	 0.168224158	 2.4928055034	-0.072018
C	 0.0005110712	-0.6926108981	 1.3787892538	 0.037396
O	 1.1269666904	-1.5004750714	 0.8967455112	-0.299566
C	 1.452518978	-0.405836776	 0.0230039537	 0.1032
C	-0.0157946935	 0.0662934122	 0.0014969469	-0.030646
H	-0.5993493191	 2.0273430531	 0.7774832765	 0.105047
H	-0.5269178262	 1.9582573827	-0.9800875314	 0.096292
H	 1.8640511079	 2.0664805398	-1.0231206519	 0.096931
H	 1.6268113427	 2.9631501138	 0.4784880142	 0.098477
H	 3.2120508077	 0.8298954394	 0.6587515871	 0.068746
H	 2.206492282	 1.4457873626	 2.9019817652	 0.093915
H	 0.1076731454	 0.1597079944	 3.4822884746	 0.090826
H	-0.8579461841	-1.30823644	 1.6542723827	 0.07157
H	 1.9821692206	-0.7301348653	-0.8767426954	 0.074016
H	-0.6485194148	-0.4473506901	-0.722849744	 0.077289
223.1783	292.7118	354.7291	433.9908	476.5499	580.5636	660.7865	663.9633	684.3059	720.7582	791.4462	825.3874	852.1166	880.8216	908.9558	919.7109	940.2935	973.4932	981.212	996.3426	1006.0999	1047.8516	1069.9995	1085.1414	1120.8415	1162.0806	1176.7751	1206.3766	1230.7904	1251.6372	1273.3181	1300.6423	1306.3104	1324.9138	1336.6289	1349.7385	1367.8978	1393.6417	1482.2668	1496.0375	1682.6462	3027.0515	3060.2789	3065.8854	3078.7444	3083.9361	3090.9457	3099.9256	3112.0683	3164.4047	3194.5892
C1CC2C=CC3OC2C13	C1C[C@H]2C=C[C@@H]3O[C@H]2[C@H]13	
InChI=1S/C8H10O/c1-3-6-7-4-2-5(1)8(6)9-7/h2,4-8H,1,3H2	InChI=1S/C8H10O/c1-3-6-7-4-2-5(1)8(6)9-7/h2,4-8H,1,3H2/t5-,6+,7-,8+/m0/s1
