21
gdb 93958	3.98812	1.01169	0.89953	0.9357	79.03	-0.2438	0.0947	0.3385	1372.3679	0.182454	-424.220106	-424.211084	-424.21014	-424.255258	33.357	
C	 0.0859343802	 1.4088748038	-0.2709653898	-0.396333
C	-0.0210326653	-0.0452759897	 0.1546147226	 0.224307
O	 0.2681580522	-0.9417342921	-0.9130425526	-0.272619
C	 1.5114839432	-1.5675373373	-0.6279805913	-0.115486
C	 1.5651730493	-1.5472157287	 0.9033435731	 0.084718
O	 0.9080980385	-0.3101174597	 1.1919975447	-0.279026
C	 0.8857819902	-2.7305840888	 1.5516462525	 0.025202
C	 1.7099558759	-3.9288156535	 1.9573807405	-0.276951
C	 1.121398046	-3.0223079762	 3.0087996126	-0.270218
H	 1.0933234478	 1.6209100267	-0.6396720357	 0.120098
H	-0.6373479661	 1.6200209636	-1.0632887961	 0.12251
H	-0.1227896575	 2.0636836314	 0.5799573991	 0.124394
H	-1.0435955825	-0.2743444949	 0.4943299256	 0.075704
H	 1.4980463899	-2.5747189334	-1.05214881	 0.114617
H	 2.3510696371	-1.005154362	-1.0618119572	 0.092961
H	 2.5904218302	-1.4579467088	 1.2798873065	 0.078585
H	-0.1090140435	-2.935771539	 1.1653046584	 0.091769
H	 1.2820762111	-4.9157574247	 1.8227623738	 0.114165
H	 2.7826204549	-3.8872418114	 1.7947709178	 0.110316
H	 1.7957094189	-2.3670869628	 3.5504749536	 0.117225
H	 0.2899850995	-3.3884773725	 3.6003463719	 0.114062
24.6647	73.0723	114.0271	191.2662	227.9727	292.6584	316.2599	370.2327	439.6419	523.88	726.46	748.3781	771.4344	830.0919	835.5491	852.7174	886.605	929.6251	942.4149	990.8606	1004.6289	1042.4218	1055.7002	1075.8461	1081.3904	1095.6167	1133.8152	1141.0931	1171.4389	1194.651	1197.2133	1224.5869	1247.2034	1294.4193	1329.4284	1348.0277	1386.5998	1396.3017	1417.8584	1436.4767	1472.3512	1483.0002	1486.1113	1507.1331	1520.2354	2974.2023	2995.5662	3045.5829	3048.8681	3096.9317	3124.858	3128.8447	3128.9969	3135.2851	3146.4076	3207.9693	3223.3759
CC1OCC(O1)C1CC1	C[C@H]1OC[C@@H](O1)C1CC1	
InChI=1S/C7H12O2/c1-5-8-4-7(9-5)6-2-3-6/h5-7H,2-4H2,1H3	InChI=1S/C7H12O2/c1-5-8-4-7(9-5)6-2-3-6/h5-7H,2-4H2,1H3/t5-,7+/m0/s1
