19
gdb 124639	4.24729	0.8966	0.8536	3.3396	78.59	-0.2168	0.0047	0.2215	1421.8723	0.159294	-419.205581	-419.196631	-419.195687	-419.239959	33.192	
C	 0.0290285672	 1.5618658214	 0.0503558416	-0.39672
C	 0.0298242318	 0.0324906626	 0.020393723	 0.051015
C	 0.5927684513	-0.5651250813	 1.3190911676	-0.382794
N	-1.3284629456	-0.4277261457	-0.282315422	-0.381465
C	-1.5769698359	-1.7453828883	-0.5972053722	 0.45458
N	-2.7288741477	-2.3043569211	-0.2755425208	-0.252093
O	-2.6832234484	-3.5953247433	-0.8226420225	-0.168028
C	-1.5043598459	-3.7638308634	-1.4262541062	 0.088686
C	-0.7414912815	-2.6481366436	-1.3322621651	-0.332058
H	 1.0389026684	 1.9457489488	 0.2196103407	 0.120304
H	-0.3495791743	 1.9690991166	-0.8905845259	 0.128163
H	-0.606359305	 1.9331465129	 0.8636366651	 0.116068
H	 0.6625475098	-0.2900442391	-0.8154311102	 0.092662
H	 0.5779311701	-1.6583090371	 1.2863421062	 0.12763
H	 1.6261009303	-0.2419821152	 1.4831084241	 0.114707
H	-0.0032426726	-0.2441454093	 2.1809921962	 0.11627
H	-2.0357354979	-0.0495373778	 0.3363367039	 0.24017
H	-1.3430368569	-4.7271762642	-1.886350126	 0.145982
H	 0.2449904228	-2.4844626828	-1.7303161877	 0.116922
50.4238	68.918	139.8918	225.3132	258.1869	293.9187	323.5813	386.3392	447.0357	462.8122	589.5098	618.8196	730.0008	765.0204	774.2946	848.2374	865.6554	908.2496	927.3041	932.4737	949.6237	968.3831	1027.7217	1096.6977	1143.5384	1173.1647	1186.2677	1199.6024	1334.8061	1340.2815	1355.4661	1398.7261	1418.5018	1424.6588	1483.975	1485.9452	1489.5627	1505.6478	1511.292	1528.9161	1637.8511	3029.4258	3030.5124	3037.5355	3097.3648	3105.5594	3112.7303	3126.4237	3255.1367	3288.412	3562.2673
CC(C)NC1=NOC=C1	CC(C)Nc1nocc1	
InChI=1S/C6H10N2O/c1-5(2)7-6-3-4-9-8-6/h3-5H,1-2H3,(H,7,8)	InChI=1S/C6H10N2O/c1-5(2)7-6-3-4-9-8-6/h3-5H,1-2H3,(H,7,8)
