16
gdb 125909	4.4356	1.30083	1.0638	4.4475	70.63	-0.2156	0.0114	0.227	1097.3835	0.126525	-434.056282	-434.048957	-434.048013	-434.088634	27.885	
C	 0.2397341538	 1.4971293545	 0.1039256409	-0.394593
C	 0.0121778358	 0.0067240585	-0.0377723203	 0.114239
C	 0.7204688549	-0.6583517002	-1.2808302498	-0.38468
C	 1.44651091	-1.7819215217	-0.6052778015	 0.213397
C	 1.274830369	-1.6612427352	 0.7395027043	 0.465024
N	 1.971194128	-2.659376744	 1.294995369	-0.343777
N	 2.5745900594	-3.3967870513	 0.2850334723	-0.142779
N	 2.2469247804	-2.8461671008	-0.8517025836	-0.277252
O	 0.5271101288	-0.6543694901	 1.200130726	-0.292791
H	 1.3101094891	 1.7210149026	 0.1421457283	 0.134187
H	-0.1920589133	 2.0211826231	-0.7547360802	 0.129614
H	-0.2304306038	 1.8794280446	 1.0137738601	 0.134641
H	-1.057570484	-0.2221371697	-0.0485564204	 0.108185
H	-0.0199265325	-0.9770472973	-2.0204700468	 0.129724
H	 1.3921248196	 0.0553058939	-1.7727672307	 0.124519
H	 2.1013613749	-2.929832587	 2.2550612125	 0.282343
40.2097	218.1095	248.0979	272.8428	328.539	431.5772	472.7572	502.9243	601.2865	691.4171	726.2497	737.4781	762.6177	829.2685	878.8266	922.8717	936.9034	1021.1673	1043.3711	1094.994	1123.9836	1197.7786	1212.6839	1234.3687	1267.9102	1339.5562	1361.9911	1370.9788	1411.2362	1420.2292	1484.0029	1494.3915	1502.9372	1565.7361	1653.3216	3030.8225	3042.7336	3059.5547	3081.7779	3116.6695	3125.7229	3678.373
CC1CC2=C(NN=N2)O1	C[C@H]1Cc2c([nH]nn2)O1	
InChI=1S/C5H7N3O/c1-3-2-4-5(9-3)7-8-6-4/h3H,2H2,1H3,(H,6,7,8)	InChI=1S/C5H7N3O/c1-3-2-4-5(9-3)7-8-6-4/h3H,2H2,1H3,(H,6,7,8)/t3-/m0/s1
