16
gdb 32503	2.20339	1.59283	0.92998	3.4779	81.9	-0.2005	0.0183	0.2188	1212.4075	0.123828	-400.740178	-400.731509	-400.730565	-400.773413	32.475	
C	-0.042481446	 1.3323797588	-0.034437306	-0.248414
O	 0.0026475046	-0.0795621909	-0.0032780473	-0.258046
C	 0.6381557381	-0.616931168	 1.0618631878	 0.23772
C	 1.2507242489	 0.0078509955	 2.1251478573	-0.215725
N	 1.7493618353	-0.9909266359	 2.9425752673	-0.249533
C	 1.4672011727	-2.2142814615	 2.422255388	-0.173988
C	 0.7683182608	-2.0361316934	 1.2382850347	 0.045872
C	 0.2823213718	-3.0448310413	 0.3784121919	 0.246189
C	-0.1343094114	-3.902676857	-0.3579423269	-0.45366
H	 0.9682341925	 1.7629741346	-0.0640278115	 0.117058
H	-0.5807579114	 1.6101728647	-0.9419119	 0.135182
H	-0.5723006573	 1.7336891363	 0.8408169897	 0.11706
H	 1.3753835416	 1.0473884365	 2.3706666154	 0.124511
H	 2.2490001997	-0.8309782267	 3.7984920745	 0.26654
H	 1.7710216212	-3.1253761452	 2.9102440373	 0.131706
H	-0.5034362508	-4.6549993666	-1.0088368722	 0.177529
94.506	120.6662	163.4036	220.7688	248.5653	327.7521	401.6741	405.9035	478.1867	523.996	540.7655	613.6453	618.7927	629.0954	648.1533	723.2392	724.9666	762.8668	904.171	1057.2786	1086.8663	1144.8516	1182.2804	1211.7292	1213.0997	1270.5403	1342.0003	1388.2271	1467.3797	1484.4951	1491.8329	1507.7523	1564.439	1619.3876	2231.3103	2992.6065	3046.1817	3134.8958	3274.1362	3288.1281	3507.0889	3696.4208
COC1=CNC=C1C#C	COc1c[nH]cc1C#C	
InChI=1S/C7H7NO/c1-3-6-4-8-5-7(6)9-2/h1,4-5,8H,2H3	InChI=1S/C7H7NO/c1-3-6-4-8-5-7(6)9-2/h1,4-5,8H,2H3
