15
gdb 11888	4.91746	1.60658	1.36995	4.9619	61.61	-0.2462	0.0517	0.2978	891.6836	0.120292	-399.83299	-399.826193	-399.825249	-399.864066	25.905	
O	-0.0217794519	 0.0124370018	 0.2992685282	-0.388626
C	-0.0411466129	 1.1975517767	 0.1254079087	 0.472743
N	-1.1123005379	 1.9883896504	-0.2449222786	-0.421967
C	-0.809131158	 3.380471275	-0.0591593263	 0.357116
C	-1.6177676587	 4.4825196912	-0.6615280406	-0.328444
C	-1.6114901396	 4.2761441891	 0.8460021899	-0.318522
C	 0.7159470502	 3.3526669531	-0.0792649589	-0.140302
O	 1.0590967239	 2.0023287524	 0.2547831759	-0.23883
H	-2.0346206667	 1.6128376114	-0.0933079215	 0.260649
H	-1.0932704206	 5.342005671	-1.0676376032	 0.125161
H	-2.5160828959	 4.2133110875	-1.207055868	 0.125451
H	-2.5073082647	 3.8682302988	 1.3032782664	 0.121135
H	-1.0817367574	 4.9942818384	 1.4637996754	 0.124345
H	 1.1113176745	 3.5816245453	-1.0764057281	 0.122482
H	 1.1700575858	 4.0248472881	 0.6523956106	 0.12761
94.6673	174.2796	257.4545	309.9752	441.1321	475.448	505.4327	540.7538	711.0169	764.6202	766.4365	815.1458	889.6358	934.2738	935.2507	948.2279	997.2342	1056.9024	1071.763	1079.6422	1091.3436	1185.8491	1212.2715	1234.7133	1289.4528	1327.6853	1398.0927	1447.8132	1460.342	1510.4037	1519.9075	1896.3239	3030.1391	3102.0343	3123.8649	3127.3774	3204.7782	3219.443	3650.7716
O=C1NC2(CC2)CO1	O=C1NC2(CC2)CO1	
InChI=1S/C5H7NO2/c7-4-6-5(1-2-5)3-8-4/h1-3H2,(H,6,7)	InChI=1S/C5H7NO2/c7-4-6-5(1-2-5)3-8-4/h1-3H2,(H,6,7)
