15
gdb 130636	3.12979	1.65509	1.09717	2.0121	73.66	-0.2487	-0.0509	0.1978	1027.1614	0.116502	-416.858458	-416.851655	-416.850711	-416.889999	25.966	
O	 0.0103093335	-0.0396266236	 0.0039181837	-0.342127
C	 0.0085158403	 1.1694176976	 0.0098922525	 0.299796
C	-1.2375818923	 2.0892855036	 0.0318014592	-0.32092
C	-0.7411553301	 3.5682776817	 0.0322690613	-0.377219
C	 0.755510985	 3.4215688165	 0.0106266692	 0.2054
C	 1.1395519109	 2.0978918558	-0.0012902319	 0.278339
N	 2.492965349	 2.0697670596	-0.0203019213	-0.336792
N	 3.0133223476	 3.3092581353	-0.0214695318	-0.198781
C	 1.9641368938	 4.1419663609	-0.00269284	-0.148118
H	-1.8598153818	 1.8556895636	-0.8373808408	 0.139366
H	-1.8354900298	 1.8469452025	 0.9155390035	 0.139364
H	-1.1147521855	 4.119625906	-0.8370600091	 0.125905
H	-1.0902313708	 4.110830621	 0.9171857624	 0.125907
H	 3.1087512045	 1.2737236567	-0.0328119131	 0.287693
H	 2.1404922957	 5.2072122229	 0.0001088962	 0.122186
93.5764	159.2438	252.1741	287.3942	517.4155	517.6083	561.3499	601.3843	636.8805	673.3828	703.5691	736.8798	836.3851	884.8281	968.3997	976.0649	1011.8573	1037.2678	1118.7865	1134.6699	1159.8562	1229.0074	1229.5113	1264.447	1297.784	1328.3162	1387.2128	1451.1292	1453.4721	1492.6623	1529.0054	1587.8227	1811.5365	3044.5014	3064.5501	3072.427	3105.6714	3250.7801	3669.7572
O=C1CCC2=C1NN=C2	O=C1CCc2c1[nH]nc2	
InChI=1S/C6H6N2O/c9-5-2-1-4-3-7-8-6(4)5/h3H,1-2H2,(H,7,8)	InChI=1S/C6H6N2O/c9-5-2-1-4-3-7-8-6(4)5/h3H,1-2H2,(H,7,8)
