12
gdb 5296	5.25966	1.61943	1.2382	2.7114	56.61	-0.2529	-0.0254	0.2274	880.8911	0.085618	-414.725688	-414.718937	-414.717992	-414.756946	24.212	
N	-0.0973181279	 1.3172534648	 0.007992399	-0.538444
C	 0.0538678281	-0.0328207923	 0.0025321573	 0.316246
O	 1.1275883544	-0.6091719404	-0.0086805301	-0.369577
C	-1.2320318176	-0.7741468004	 0.0109774104	 0.176497
C	-1.4042947789	-2.1196879769	 0.007856433	-0.076545
O	-2.7413895415	-2.3718420699	 0.0184041622	-0.13638
C	-3.3197047936	-1.1458126985	 0.0275185234	 0.070421
N	-2.4852837212	-0.1617555802	 0.0239415452	-0.323199
H	 0.7236127419	 1.8977934014	 0.0032999657	 0.263537
H	-1.0162459988	 1.7272383206	 0.0177165758	 0.276098
H	-0.7359422152	-2.9617715053	-0.0007678986	 0.180058
H	-4.3977610298	-1.1175841529	 0.0368600466	 0.161289
90.6281	189.7245	196.5822	240.9035	397.2674	508.6894	585.4289	635.4381	664.466	680.1626	781.6356	831.8765	861.4874	933.7115	980.6411	1090.7742	1092.6265	1134.3674	1202.4502	1248.0668	1341.8088	1383.9273	1558.9228	1593.7212	1627.9309	1789.0593	3279.1257	3313.2874	3602.4157	3744.821
NC(=O)C1=COC=N1	NC(=O)c1cocn1	
InChI=1S/C4H4N2O2/c5-4(7)3-1-8-2-6-3/h1-2H,(H2,5,7)	InChI=1S/C4H4N2O2/c5-4(7)3-1-8-2-6-3/h1-2H,(H2,5,7)
