16
gdb 13569	4.21995	1.39428	1.22579	2.5365	61.74	-0.2361	-0.0455	0.1907	984.0552	0.128922	-420.860838	-420.852879	-420.851935	-420.893433	29.584	
O	-0.4891159777	 1.2405970781	 0.132920655	-0.438765
C	-0.1085633908	-0.1123219308	 0.0135826137	 0.017375
C	 0.859585806	-0.2491943486	-1.1472880999	 0.151985
O	 1.2360651811	 0.7153939435	-1.7688077335	-0.262244
C	 0.5514012348	-0.6586120189	 1.2778840204	-0.097433
C	 1.5037220446	 0.221363637	 2.0743375802	-0.335273
C	 0.1551762907	-0.138161588	 2.642697482	 0.140882
O	-0.8570806423	 0.7931018751	 2.8290122623	-0.429861
H	 0.0329855362	 1.7196058413	-0.533143747	 0.301943
H	-0.9979375382	-0.7236637831	-0.2142024459	 0.108785
H	 1.2193545954	-1.2715682636	-1.375760387	 0.106659
H	 0.7853692801	-1.7183310823	 1.2074099461	 0.091934
H	 2.4017478373	-0.2200115132	 2.4927528705	 0.113825
H	 1.6190166107	 1.2422692532	 1.7248629085	 0.121434
H	 0.1371850757	-0.8683174448	 3.4461870791	 0.107718
H	-0.8987808637	 1.3396596149	 2.0315046654	 0.301037
62.5112	116.8662	199.5382	250.569	294.546	349.6528	420.3109	479.5384	515.8367	538.9541	643.5139	720.025	777.301	802.274	829.0025	894.0786	961.8468	1019.7717	1039.5072	1056.4137	1080.1489	1127.5031	1140.6862	1176.413	1231.4856	1260.0167	1325.5476	1361.998	1365.8085	1401.6523	1435.4316	1457.0297	1493.5109	1809.44	2946.9035	2973.1561	3130.3094	3133.8487	3158.9916	3220.6202	3654.3608	3733.4187
OC(C=O)C1CC1O	O[C@@H](C=O)[C@H]1C[C@H]1O	
InChI=1S/C5H8O3/c6-2-5(8)3-1-4(3)7/h2-5,7-8H,1H2	InChI=1S/C5H8O3/c6-2-5(8)3-1-4(3)7/h2-5,7-8H,1H2/t3-,4+,5-/m0/s1
