18
gdb 52246	5.38741	0.73754	0.70747	4.2455	73.39	-0.2369	-0.0251	0.2118	1577.0904	0.14581	-439.024851	-439.01606	-439.015116	-439.059985	31.209	
O	-0.1436359695	 0.1357178618	 0.4907765163	-0.239845
C	 0.0206806193	 1.1950740184	-0.0530320647	 0.139102
C	 1.3864177593	 1.8171954602	-0.2879782302	-0.151001
O	 1.1977758687	 3.0634735112	-0.9075053521	-0.254903
C	 2.3870789036	 3.7615973218	-1.1545477993	 0.177357
C	 3.3450532848	 3.2972342041	-2.3222108611	-0.269245
C	 3.1901879338	 4.702442444	-2.9118770973	-0.043991
N	 1.753435202	 4.8323531721	-3.236011552	-0.319016
C	 2.2172235783	 5.1032869951	-1.8532700643	-0.102089
H	-0.8203967877	 1.814274059	-0.4346197658	 0.101014
H	 1.9058412311	 1.9082896082	 0.6816023849	 0.118839
H	 1.9833693884	 1.1287418097	-0.9086502102	 0.126181
H	 2.9629755363	 3.8795304778	-0.224001215	 0.072818
H	 4.3501732279	 3.0510004453	-1.9753835371	 0.104686
H	 2.9559417192	 2.5017028035	-2.9614985617	 0.115568
H	 3.9395550458	 5.2998310727	-3.4146270172	 0.098368
H	 1.6211843883	 5.7432863469	-3.6755025323	 0.230863
H	 2.0375208204	 6.0632741782	-1.385704931	 0.095293
49.1482	59.116	98.0569	110.3736	206.6131	305.2685	353.9758	463.4089	494.0096	626.0392	682.5592	740.0254	800.3645	830.4651	855.8585	902.5383	957.0864	993.9351	1004.2217	1036.4666	1052.1262	1089.1166	1105.6994	1115.6301	1132.1166	1158.8847	1176.5983	1219.532	1236.7599	1258.8267	1298.7481	1335.9279	1341.4502	1380.3678	1395.839	1420.1045	1468.6655	1484.3749	1844.4655	2904.927	2961.2623	2987.0583	2994.9141	3071.5561	3133.7328	3189.6352	3204.6085	3470.7297
O=CCOC1CC2NC12	O=CCO[C@H]1C[C@H]2N[C@@H]12	
InChI=1S/C6H9NO2/c8-1-2-9-5-3-4-6(5)7-4/h1,4-7H,2-3H2	InChI=1S/C6H9NO2/c8-1-2-9-5-3-4-6(5)7-4/h1,4-7H,2-3H2/t4-,5+,6-/m1/s1
