19
gdb 116091	3.26944	1.11724	0.88766	2.4867	73.17	-0.2454	-0.0192	0.2262	1310.1541	0.158856	-460.184264	-460.175462	-460.174518	-460.218171	32.309	
C	-0.0911380106	 1.3801034205	 0.0086574365	-0.244956
O	-0.0327456108	-0.037312977	-0.0537639332	-0.233635
C	 0.6248403881	-0.5290561593	-1.1650717869	 0.206667
C	 0.7812991917	-2.04558136	-0.9962715149	-0.317689
C	 1.2966928713	-2.694832247	-2.2734077895	 0.366621
O	 2.1762495063	-3.5226477196	-2.277380561	-0.303468
C	 0.6141883006	-2.1990361604	-3.5398068111	-0.297304
C	 0.4900269042	-0.665210556	-3.5123364523	-0.093089
O	-0.1401027332	-0.2279754562	-2.322558465	-0.255596
H	 0.9176920699	 1.8183280174	-0.0056839257	 0.108808
H	-0.6706351947	 1.7937045963	-0.8230114094	 0.132666
H	-0.5757161091	 1.6324085188	 0.9536205047	 0.131865
H	 1.6196371635	-0.049188226	-1.2735336108	 0.059156
H	 1.4469797538	-2.2859181923	-0.1654303489	 0.127612
H	-0.2178630732	-2.4412898445	-0.7755005953	 0.137175
H	 1.1717593302	-2.5478442859	-4.4122897519	 0.122292
H	-0.3956423836	-2.6273617763	-3.5753214554	 0.130323
H	 1.4880726721	-0.2070924285	-3.6108284896	 0.101714
H	-0.1259096667	-0.3077679141	-4.3407899004	 0.120837
78.5487	113.73	123.3601	169.4895	228.589	304.8312	366.7697	393.0345	455.1848	497.7324	536.4046	549.0236	692.2059	768.9703	837.1373	889.1834	930.5247	979.8618	1028.01	1058.5474	1088.2296	1110.0752	1164.7439	1168.6305	1181.2599	1221.3217	1241.9302	1246.8822	1269.601	1290.444	1332.1337	1379.9276	1404.3414	1414.5254	1447.5495	1459.6935	1481.9846	1484.0179	1506.5444	1511.7692	1822.2793	2888.3913	2974.0498	2999.01	3036.1422	3046.6531	3079.7933	3099.1528	3114.8283	3128.4645	3134.1824
COC1CC(=O)CCO1	CO[C@H]1CC(=O)CCO1	
InChI=1S/C6H10O3/c1-8-6-4-5(7)2-3-9-6/h6H,2-4H2,1H3	InChI=1S/C6H10O3/c1-8-6-4-5(7)2-3-9-6/h6H,2-4H2,1H3/t6-/m1/s1
