18
gdb 26097	3.20684	1.28756	1.13277	1.4583	73.51	-0.24	0.0042	0.2443	1139.9988	0.146315	-439.12087	-439.111874	-439.11093	-439.154793	33.441	
C	 0.172042646	 1.5900821029	 0.1488279791	-0.404947
C	 0.0053485561	 0.0789248926	-0.039822078	 0.223074
C	 0.5347190502	-0.7035182782	 1.1758149587	-0.426054
O	-1.369514879	-0.2530833078	-0.2705860986	-0.463491
C	 0.726385392	-0.3636906079	-1.2856332246	 0.448241
N	 1.4810877071	 0.3308918483	-2.0769497817	-0.325065
C	 1.9045198192	-0.5743194065	-3.0423635633	-0.121976
C	 1.3705312121	-1.7867183547	-2.7713591076	-0.04165
O	 0.613730697	-1.6688699314	-1.6419155962	-0.178024
H	 1.2234180411	 1.864728884	 0.2599599562	 0.132764
H	-0.2337351774	 2.124940366	-0.7114683547	 0.138509
H	-0.3665755479	 1.904088818	 1.0497845016	 0.098147
H	-0.0092412968	-0.400699938	 2.0778590335	 0.106611
H	 0.3932865364	-1.7759054708	 1.0252498839	 0.137961
H	 1.5979147855	-0.5061429271	 1.3425691533	 0.127349
H	-1.8557163809	-0.0250403009	 0.5293172285	 0.279423
H	 2.5537371141	-0.2817099028	-3.8519387098	 0.123782
H	 1.4071700952	-2.7604014357	-3.2283844802	 0.145346
38.8464	145.9995	195.2217	223.3565	230.359	272.1278	329.8731	347.3776	358.5228	449.1311	505.7228	613.9958	634.0841	760.8167	779.084	855.8509	861.6142	924.5059	934.058	952.9923	970.7274	1015.3173	1109.4849	1128.9679	1139.4677	1169.072	1193.6364	1199.291	1238.4339	1350.9396	1393.0151	1412.7893	1416.649	1475.9984	1478.8956	1493.3414	1506.8508	1553.8814	1617.8914	3032.828	3042.4502	3102.5619	3118.5869	3134.4242	3145.2861	3264.7954	3300.5791	3805.3325
CC(C)(O)C1=NC=CO1	CC(C)(O)c1ncco1	
InChI=1S/C6H9NO2/c1-6(2,8)5-7-3-4-9-5/h3-4,8H,1-2H3	InChI=1S/C6H9NO2/c1-6(2,8)5-7-3-4-9-5/h3-4,8H,1-2H3
