19
gdb 104638	2.61772	1.33928	1.05381	2.1355	78.08	-0.2526	0.0299	0.2825	1186.7371	0.156537	-422.964284	-422.954864	-422.95392	-422.99809	35.81	
C	 0.0469060742	 0.9245233361	-0.4568572799	-0.259438
O	-0.2900976016	-0.4238871325	-0.1722871304	-0.290594
C	-1.6623602207	-0.6556508457	 0.1585823921	 0.2023
C	-2.5546631849	-0.6847083435	-1.1294174348	-0.295646
C	-2.2206392911	-2.1998013409	-1.2680506584	 0.141415
O	-1.1565363233	-2.4831987069	-2.1456344621	-0.441979
C	-1.8277079704	-2.2008220083	 0.2372034583	-0.282935
C	-2.1084639486	 0.1443910575	 1.2907390986	 0.27665
C	-2.4987484277	 0.7951461644	 2.2239065384	-0.444143
H	 1.1103646	 0.931030368	-0.7048206423	 0.131371
H	-0.5203282643	 1.3208322872	-1.3102777333	 0.112295
H	-0.1281651715	 1.5698921629	 0.4118441077	 0.129622
H	-3.6060393933	-0.5037044937	-0.894258854	 0.113664
H	-2.2466954366	-0.0390098316	-1.9546104557	 0.110347
H	-3.0436476414	-2.8543987136	-1.5608948464	 0.083489
H	-0.4090424709	-1.9455527037	-1.8531718648	 0.283995
H	-0.9255144463	-2.7491555731	 0.515503593	 0.117994
H	-2.6564073765	-2.4806225575	 0.8904576669	 0.114969
H	-2.842175585	 1.3659440747	 3.0513250271	 0.196624
100.3786	127.907	144.3439	170.6629	208.8783	268.2428	345.3009	382.499	412.8711	440.3848	506.1107	538.2665	547.4677	622.4556	624.1521	671.547	798.1821	827.9751	842.366	913.8462	944.6489	973.3755	1042.1407	1076.984	1096.3607	1138.2996	1164.1536	1185.1956	1204.7653	1217.4361	1240.8737	1261.8584	1280.5219	1336.4293	1446.1497	1451.5472	1469.3357	1479.8717	1487.0057	1511.2533	2228.0424	3005.1965	3067.8054	3071.2112	3075.2079	3096.5238	3126.8807	3131.6499	3141.2169	3499.2752	3766.5534
COC1(CC(O)C1)C#C	CO[C@]1(C[C@@H](O)C1)C#C	
InChI=1S/C7H10O2/c1-3-7(9-2)4-6(8)5-7/h1,6,8H,4-5H2,2H3	InChI=1S/C7H10O2/c1-3-7(9-2)4-6(8)5-7/h1,6,8H,4-5H2,2H3/t6-,7+
