22
gdb 113443	4.33014	0.81926	0.7724	1.233	83.9	-0.2267	0.0753	0.302	1567.6481	0.192908	-404.306912	-404.297339	-404.296395	-404.341452	36.366	
C	 0.7722714366	 1.5847101169	 0.3533190103	-0.37595
C	-0.0392171613	 0.3649813871	-0.0745185984	-0.115113
N	 0.5986434967	-0.3080877805	-1.203484036	-0.132648
C	 1.5936505531	-1.3363670586	-0.8810534003	-0.324969
C	 0.2662818717	-1.6969140301	-1.4400532506	 0.381196
C	-0.7951400222	-2.5789023479	-0.7605443562	-0.349838
C	-0.7612091384	-3.4690688354	-2.0393648373	 0.169057
O	-1.9553094215	-4.010507535	-2.5404883339	-0.433463
C	-0.0523453713	-2.3133681277	-2.8044741341	-0.349929
H	 1.768910382	 1.2890516061	 0.6971879663	 0.118023
H	 0.8966381788	 2.2756986894	-0.4850996796	 0.126831
H	 0.2746491192	 2.1135104976	 1.1720959734	 0.11048
H	-0.1792901206	-0.3115525974	 0.7865174979	 0.08336
H	-1.0397016716	 0.6786159581	-0.3974180959	 0.098412
H	 2.48445392	-1.3485062129	-1.5047028498	 0.112509
H	 1.7701465441	-1.5629028074	 0.170955876	 0.104237
H	-0.5641748121	-3.0493211761	 0.1976563215	 0.106602
H	-1.7587731497	-2.0609019603	-0.6760701519	 0.095461
H	-0.088672233	-4.3199483772	-1.9021431063	 0.097418
H	-2.5648547991	-3.2840629428	-2.7092644615	 0.276019
H	-0.7757109228	-1.7005898304	-3.3561688936	 0.096355
H	 0.7760125315	-2.5667797055	-3.4698675699	 0.105952
59.3111	95.7456	141.8743	181.9156	254.7862	280.6022	307.2887	333.7797	367.5733	438.1846	451.7309	471.9901	603.8702	711.3932	762.1434	812.0169	824.8794	884.3188	915.3053	916.8724	977.3511	995.7122	1033.8445	1045.0088	1069.3726	1103.187	1109.3467	1123.0991	1151.2218	1185.9435	1190.8296	1202.3625	1226.2978	1250.9125	1278.5072	1308.8538	1331.9184	1384.2626	1408.4881	1418.089	1439.3821	1464.0184	1488.3556	1489.8098	1493.0661	1506.57	1519.4278	2950.103	3029.6318	3037.0691	3038.8905	3041.8158	3077.2569	3078.6767	3104.3211	3107.849	3109.7749	3119.4054	3166.7707	3804.5312
CCN1CC11CC(O)C1	CCN1C[C@]21C[C@@H](O)C2	
InChI=1S/C7H13NO/c1-2-8-5-7(8)3-6(9)4-7/h6,9H,2-5H2,1H3	InChI=1S/C7H13NO/c1-2-8-5-7(8)3-6(9)4-7/h6,9H,2-5H2,1H3/t6-,7+,8?
