13
gdb 131429	5.93383	0.99413	0.85148	5.7718	64.95	-0.2412	-0.0245	0.2167	1247.062	0.090597	-486.066164	-486.058478	-486.057534	-486.099008	27.616	
O	 0.0788865682	 1.3763729436	 0.1044083896	-0.402175
C	 0.0609319076	 0.0497973662	-0.0206839078	 0.451848
N	-0.0015780363	-0.5209524138	-1.1966206841	-0.208277
O	 0.0030852426	-1.9054878122	-0.8478721995	-0.183047
C	 0.0673327917	-1.951067928	 0.4742494856	 0.588199
N	 0.089589769	-3.1392903152	 1.1466223461	-0.403351
C	 0.0539678972	-4.4380506941	 0.6510302678	 0.078614
N	-0.0086240109	-4.7127329066	-0.5823423081	-0.406832
N	 0.1065999119	-0.7833854114	 1.0645698441	-0.458519
H	 0.1267548315	 1.571909516	 1.0478888683	 0.317532
H	 0.139468505	-3.0239447216	 2.1464846119	 0.279754
H	 0.0879377797	-5.1571095632	 1.4772233093	 0.107923
H	-0.024235487	-5.7209000597	-0.7202779532	 0.238332
53.6329	154.8897	158.8729	265.8948	305.7349	375.4361	406.542	488.4531	538.0214	595.423	715.4814	756.6497	785.0521	813.1081	824.026	916.5518	1023.3746	1052.5589	1055.0416	1134.2398	1213.3953	1227.9613	1406.167	1418.1876	1471.0753	1491.3293	1651.8733	1680.9242	1744.4291	3057.9755	3517.841	3650.1333	3816.9979
OC1=NOC(NC=N)=N1	Oc1noc(NC=N)n1	
InChI=1S/C3H4N4O2/c4-1-5-3-6-2(8)7-9-3/h1H,(H3,4,5,6,7,8)	InChI=1S/C3H4N4O2/c4-1-5-3-6-2(8)7-9-3/h1H,(H3,4,5,6,7,8)
