13
gdb 5778	6.42446	1.47629	1.30009	2.2256	60.68	-0.2447	-0.0136	0.2311	897.0049	0.096753	-398.600315	-398.593953	-398.593009	-398.631705	22.845	
C	 0.3679560073	 1.5194369619	 0.1274046943	-0.165781
O	 1.0271160474	 0.3612814129	-0.3749511104	-0.220813
C	-0.3079741743	 0.2150601987	 0.1334103291	-0.051604
C	-0.4582502324	-0.5474620192	 1.3853137377	 0.414383
N	 0.0877405413	-0.3364743986	 2.5421367245	-0.307034
C	-0.3780328732	-1.370002884	 3.3399327307	-0.108921
C	-1.20197465	-2.1576829951	 2.6088828537	-0.042535
O	-1.2629729966	-1.6412527941	 1.3467825202	-0.173438
H	 0.7548183228	 1.9046545231	 1.0680239604	 0.144048
H	 0.0798891989	 2.2601999593	-0.6171637955	 0.119777
H	-1.058769455	-0.0096997354	-0.6210069965	 0.112545
H	-0.0903994767	-1.4648776006	 4.3748020272	 0.129121
H	-1.7852518395	-3.0420678689	 2.7976200447	 0.150251
48.3841	166.273	194.8744	405.83	437.3458	630.6312	682.3886	753.9353	775.2533	844.8305	869.6112	900.2762	935.2609	957.1016	1022.4371	1097.8068	1111.1334	1144.6468	1161.6762	1166.3134	1173.7706	1222.2181	1283.5207	1356.1058	1456.6213	1519.8553	1543.7908	1616.0221	3090.9577	3142.577	3190.3811	3265.6691	3302.1795
C1OC1C1=NC=CO1	C1O[C@H]1c1ncco1	
InChI=1S/C5H5NO2/c1-2-7-5(6-1)4-3-8-4/h1-2,4H,3H2	InChI=1S/C5H5NO2/c1-2-7-5(6-1)4-3-8-4/h1-2,4H,3H2/t4-/m1/s1
