25
gdb 103077	2.00158	1.30453	1.11184	1.3689	89.5	-0.2393	0.0703	0.3096	1331.993	0.22532	-389.490788	-389.479212	-389.478268	-389.526532	43.264	
C	 2.0155686696	 2.450333353	-0.6247968893	-0.398799
C	 0.9536582522	 1.3490679672	-0.5028816215	-0.221165
C	 1.2014368564	 0.1772956949	-1.4394241871	 0.346177
O	 1.2339974026	 0.5780451685	-2.7944451373	-0.470363
C	 2.0923958257	-0.9941110184	-1.0617558684	-0.121644
C	 2.8424090557	-1.1179837455	 0.2488736806	-0.420822
C	 0.582074662	-1.1887576608	-1.210265981	 0.2543
C	-0.2820664735	-1.4428305864	 0.0138511963	-0.45328
C	 0.102586407	-1.9677853494	-2.4241993077	-0.439343
H	 3.0157176191	 2.0703822161	-0.3883727988	 0.115147
H	 2.0388439988	 2.86452589	-1.6377849889	 0.11469
H	 1.8027032588	 3.2765093163	 0.060045737	 0.11439
H	 0.9088705201	 1.0076547528	 0.5342420737	 0.093548
H	-0.032468259	 1.7704489924	-0.7351558194	 0.102929
H	 2.09708685	 0.968964537	-2.9644180842	 0.279798
H	 2.6516488877	-1.3832596372	-1.9110883782	 0.07664
H	 2.2972060724	-0.6894323527	 1.0930797308	 0.115753
H	 3.0375747251	-2.1696070778	 0.4885044654	 0.117572
H	 3.8121531158	-0.6099244109	 0.1965899654	 0.114113
H	 0.072717583	-0.9408034778	 0.915339263	 0.111221
H	-1.311134304	-1.110103867	-0.1657307613	 0.116448
H	-0.3208965175	-2.5165239468	 0.2323094783	 0.11303
H	 0.1746213062	-3.0459711077	-2.2377893329	 0.103515
H	-0.9473715736	-1.7406128164	-2.6445906087	 0.109599
H	 0.6852605091	-1.7257666635	-3.3132270057	 0.126547
72.303	130.137	156.7194	172.7882	188.1041	205.7582	232.2959	233.7785	270.9181	283.5653	313.1747	328.1089	380.651	419.5561	441.6676	507.9525	572.7756	675.4875	714.4316	782.195	807.6762	931.4402	963.6834	981.0853	986.1647	1014.1886	1029.9886	1057.7639	1091.0817	1112.6385	1120.0008	1162.6721	1192.1523	1201.1651	1283.6724	1300.178	1311.9554	1327.2805	1370.0666	1401.5897	1406.2017	1413.0813	1424.2465	1453.5598	1472.127	1484.5568	1487.86	1496.1003	1499.6293	1500.4441	1507.0465	1513.5048	1521.009	3023.2856	3027.1136	3029.0802	3032.6487	3034.5252	3075.9418	3079.6485	3081.0734	3087.42	3103.7948	3107.3007	3110.233	3121.8907	3130.9363	3142.8954	3808.1814
CCC1(O)C(C)C1(C)C	CC[C@@]1(O)[C@@H](C)C1(C)C	
InChI=1S/C8H16O/c1-5-8(9)6(2)7(8,3)4/h6,9H,5H2,1-4H3	InChI=1S/C8H16O/c1-5-8(9)6(2)7(8,3)4/h6,9H,5H2,1-4H3/t6-,8+/m0/s1
