17
gdb 125964	3.7168	1.22819	1.08156	3.6736	76.43	-0.2185	0.0047	0.2232	1141.8318	0.136379	-417.976091	-417.968155	-417.967211	-418.009341	29.498	
C	-0.2721727308	 1.4420485969	-0.2664235981	-0.411716
C	-0.0128721057	-0.0330002787	-0.0875262238	 0.008049
C	 1.3316157284	-0.6146042943	-0.3667592002	-0.250896
N	 0.8437301851	-0.5284800965	 1.0071078804	-0.175345
C	 1.4373235164	 0.3218020281	 1.9146179331	 0.495107
C	 0.941552118	 1.0091296225	 2.9891371299	-0.364017
C	 2.0981811494	 1.6017424086	 3.5501849867	 0.047138
N	 3.1956786888	 1.3093813869	 2.8951206278	-0.157362
O	 2.7695852885	 0.4887910865	 1.8360255102	-0.211771
H	 0.6416367158	 2.029442972	-0.1437839385	 0.13933
H	-0.667978072	 1.6279229826	-1.2699348087	 0.130724
H	-1.0078677223	 1.8063716179	 0.4580456022	 0.132153
H	-0.877553259	-0.6739462884	-0.2462934052	 0.105926
H	 1.4291592952	-1.623886242	-0.7552906214	 0.129468
H	 2.1232583679	 0.0702622785	-0.658378998	 0.141935
H	-0.0787148543	 1.0583115737	 3.3272490145	 0.113542
H	 2.1713672405	 2.2348208757	 4.4241366891	 0.127735
43.2497	115.2282	172.0095	216.3509	279.9222	372.8683	433.0756	532.5819	564.8725	636.3525	730.3737	778.0731	802.1173	859.1003	906.043	918.5131	921.3377	934.3369	984.5919	1030.8247	1048.4929	1060.0609	1127.8169	1134.1724	1158.7341	1193.4427	1217.6693	1245.0205	1348.6006	1379.2023	1400.1513	1423.0035	1483.4726	1493.1381	1512.9555	1530.9305	1632.638	3039.7718	3104.5612	3114.9773	3117.0633	3136.9247	3205.4263	3235.8805	3287.6861
CC1CN1C1=CC=NO1	C[C@H]1CN1c1ccno1	
InChI=1S/C6H8N2O/c1-5-4-8(5)6-2-3-7-9-6/h2-3,5H,4H2,1H3	InChI=1S/C6H8N2O/c1-5-4-8(5)6-2-3-7-9-6/h2-3,5H,4H2,1H3/t5-,8?/m0/s1
