19
gdb 119112	2.40213	1.12518	0.90127	1.7459	71.98	-0.2487	-0.0264	0.2223	1347.9532	0.155655	-460.154656	-460.144385	-460.14344	-460.19079	35.944	
C	 0.0782544711	 1.4630661993	-0.0696858731	-0.48116
C	 0.0866633017	-0.0499293704	 0.0041434162	 0.329738
O	 1.1033572265	-0.6895247412	 0.1578424194	-0.305885
C	-1.2400738778	-0.7692716925	-0.1526393329	 0.287008
C	-1.1863233448	-2.1828018983	-0.6882917072	-0.25772
C	-0.7628667559	-2.2446363865	-2.1538633429	-0.079016
O	-0.8210885258	-3.6072906231	-2.5459963189	-0.420184
C	-2.3476258076	-0.3577664873	 0.7399864298	-0.225192
O	-2.3256814713	 0.0545703509	-0.6180069144	-0.264936
H	 1.0729373059	 1.8365782299	 0.1750344674	 0.140795
H	-0.1976594192	 1.7746546777	-1.0827440219	 0.15619
H	-0.6656812907	 1.9045508125	 0.5991380925	 0.141228
H	-0.4779982279	-2.7606884035	-0.0882438503	 0.13346
H	-2.1727397845	-2.6459653341	-0.5916697605	 0.110497
H	-1.4432246808	-1.623494985	-2.7570021858	 0.096511
H	 0.2538298523	-1.8397459172	-2.2636871362	 0.102396
H	-0.5182073271	-3.6709696214	-3.4562225432	 0.287
H	-3.0991487196	-1.1019424279	 0.9989939991	 0.129198
H	-2.2004984344	 0.4301044382	 1.477085503	 0.120071
56.5533	77.6472	89.5237	112.1103	150.9483	239.5555	248.008	280.3345	334.2469	352.2716	431.8807	499.0518	526.89	615.4134	700.6459	776.7391	848.7646	894.1919	944.0913	954.3737	1028.0152	1047.3695	1069.4004	1086.0226	1135.2266	1144.9421	1167.9336	1229.4959	1246.4652	1304.8783	1313.9399	1343.9185	1384.7377	1392.572	1453.2459	1460.592	1468.9927	1470.8778	1525.1908	1531.1489	1798.9697	2979.0617	3016.3645	3050.2899	3062.1955	3085.6591	3112.8468	3115.0214	3158.4647	3173.9624	3833.7662
CC(=O)C1(CCO)CO1	CC(=O)[C@@]1(CCO)CO1	
InChI=1S/C6H10O3/c1-5(8)6(2-3-7)4-9-6/h7H,2-4H2,1H3	InChI=1S/C6H10O3/c1-5(8)6(2-3-7)4-9-6/h7H,2-4H2,1H3/t6-/m1/s1
