19
gdb 59076	1.94525	1.54653	1.24117	4.7028	76.11	-0.2314	0.0221	0.2535	1131.9399	0.159109	-419.200599	-419.191059	-419.190115	-419.234671	35.683	
C	-0.0337660581	 1.5093348231	 0.297929488	-0.406716
C	 0.0158581324	 0.0505002908	-0.161085598	 0.094157
O	 1.0574987605	-0.6637098535	 0.5002547882	-0.430055
C	-1.3534893746	-0.6213934662	-0.0573952865	-0.064967
C	-1.5600649496	-2.1105685289	 0.0615093478	-0.003097
N	-0.5256066413	-3.1017089937	 0.1453418188	-0.519858
C	-1.8845648436	-1.2148369804	 1.2591925872	-0.223345
C	-1.0529939937	-1.2259141834	 2.4268367517	 0.301228
N	-0.3759739957	-1.2044923071	 3.3671176767	-0.362497
H	 0.9484110396	 1.9731119879	 0.1738826071	 0.130545
H	-0.7643220187	 2.0809277505	-0.2831518141	 0.118372
H	-0.3174963059	 1.5748421366	 1.3543224741	 0.131401
H	 0.2997216023	 0.0242609152	-1.2211674934	 0.097759
H	 0.9829038295	-0.5114763711	 1.4510505961	 0.303588
H	-2.1129960646	-0.0821137323	-0.6194962525	 0.099698
H	-2.4523293608	-2.496120086	-0.4238372341	 0.109884
H	-0.4077986245	-3.5367022012	-0.7639731288	 0.233942
H	 0.3584062741	-2.6569898621	 0.3774715277	 0.255978
H	-2.9330020273	-1.0526928982	 1.4865833841	 0.133984
73.8307	125.7205	149.9376	207.5331	229.9105	255.2346	278.1059	299.5833	393.9402	411.5231	487.1099	505.5897	582.4411	635.3704	705.845	740.987	763.6692	812.7053	888.755	930.0764	982.0005	1014.3536	1027.8809	1055.5417	1083.2611	1116.2351	1132.4234	1161.814	1227.9772	1289.7728	1315.8669	1339.758	1361.7848	1385.4071	1405.0951	1427.3249	1467.2431	1490.6091	1496.1793	1673.2767	2334.7215	3025.8015	3035.1132	3105.0232	3121.5119	3129.2151	3149.1288	3165.8279	3495.4785	3573.6325	3773.6492
CC(O)C1C(N)C1C#N	C[C@@H](O)[C@H]1[C@@H](N)[C@H]1C#N	
InChI=1S/C6H10N2O/c1-3(9)5-4(2-7)6(5)8/h3-6,9H,8H2,1H3	InChI=1S/C6H10N2O/c1-3(9)5-4(2-7)6(5)8/h3-6,9H,8H2,1H3/t3-,4+,5-,6+/m1/s1
