23
gdb 116442	2.46564	1.23371	0.95223	2.0075	81.27	-0.2407	0.075	0.3157	1321.2195	0.206644	-425.433665	-425.424187	-425.423243	-425.467568	36.387	
C	-0.200768223	 1.5898030381	-0.0664666706	-0.413446
C	 0.034709185	 0.0744598187	 0.008127983	 0.106796
O	 0.6869856718	-0.417170653	-1.1638983933	-0.265254
C	 2.0576545731	-0.0638483991	-1.2801115076	-0.068252
C	 2.8791841833	-0.5663697522	-0.0926368906	-0.212977
C	 2.2675294115	-0.0625595196	 1.2200276955	-0.20655
C	 0.7720887838	-0.4156392542	 1.2740057536	 0.035658
C	 0.1076386901	 0.0570635787	 2.5638490343	-0.109803
O	 0.6939443872	-0.6625252328	 3.6410698566	-0.423389
H	 0.7151331627	 2.1723072441	 0.0660626542	 0.118569
H	-0.6251887148	 1.8400381699	-1.0428229517	 0.124161
H	-0.9106947094	 1.9084723382	 0.7030946811	 0.115776
H	-0.9476459225	-0.4122085013	-0.0222166821	 0.079079
H	 2.3960203093	-0.5145925487	-2.2180860687	 0.102695
H	 2.1741884416	 1.0275970395	-1.3810118264	 0.082544
H	 2.8812393755	-1.6634296392	-0.1013794654	 0.102521
H	 3.9198015823	-0.2376750636	-0.1965286849	 0.089274
H	 2.7723737077	-0.496782828	 2.0869573622	 0.113307
H	 2.3982771734	 1.0262252976	 1.295055265	 0.087451
H	 0.6924184372	-1.5110383019	 1.2670720604	 0.087461
H	 0.2528303791	 1.1412782139	 2.6917334635	 0.085442
H	-0.979116933	-0.1254668481	 2.5137069834	 0.082599
H	 0.3398369081	-0.314212937	 4.4641797585	 0.286338
100.2673	129.4209	167.6498	212.926	228.5474	249.8367	290.2141	329.4916	349.1231	420.3381	446.31	497.0567	549.92	639.5042	774.0226	843.7506	855.35	880.9216	916.2574	962.3926	1003.7061	1013.462	1036.6998	1059.393	1074.5222	1097.4987	1139.7488	1161.152	1178.7713	1210.8921	1233.0965	1250.6579	1277.719	1303.6341	1328.8772	1345.5316	1355.3607	1375.404	1382.4326	1403.7641	1408.5734	1412.9365	1458.2906	1478.5864	1487.0435	1490.4865	1506.456	1510.5029	1520.2987	2955.2614	2972.1934	2988.2452	3009.5271	3022.5183	3027.1908	3035.304	3043.3441	3070.7088	3077.9322	3092.5659	3111.5909	3118.4376	3832.7694
CC1OCCCC1CO	C[C@H]1OCCC[C@H]1CO	
InChI=1S/C7H14O2/c1-6-7(5-8)3-2-4-9-6/h6-8H,2-5H2,1H3	InChI=1S/C7H14O2/c1-6-7(5-8)3-2-4-9-6/h6-8H,2-5H2,1H3/t6-,7+/m1/s1
