17
gdb 17295	3.25653	2.44166	1.91481	2.9445	67.23	-0.2272	0.0713	0.2985	769.5579	0.142734	-363.785109	-363.778426	-363.777482	-363.815448	26.938	
C	-0.0720773756	 1.511817376	-0.0086060058	-0.482016
C	 0.0239491369	 0.0113390249	 0.063258	 0.476443
O	-1.2495180499	-0.6624552979	-0.0033202923	-0.326468
C	-0.9383474681	-1.4700093999	 1.1622315994	-0.090508
C	 0.4518828767	-0.81320774	 1.3058023958	-0.148806
C	 1.6101835853	-1.4100552608	 0.4738751102	-0.060454
N	 1.0091965387	-2.1158588361	-0.6775387036	-0.324953
C	 1.1864072693	-0.6489179102	-0.7407959638	-0.113258
H	 0.9143235503	 1.9718110147	 0.1133487319	 0.117668
H	-0.4709452288	 1.8156259286	-0.9833269969	 0.130425
H	-0.7389856516	 1.8965081464	 0.7679297839	 0.124606
H	-1.6281172267	-1.2508004912	 1.9860476255	 0.092105
H	-0.9462645532	-2.5383191854	 0.9324257886	 0.117621
H	 0.7222591196	-0.3411756455	 2.2490605145	 0.07886
H	 2.6017606445	-1.6638959288	 0.8276020799	 0.092401
H	 1.7728452478	-2.5285401674	-1.2121421964	 0.231138
H	 1.7725037948	-0.1978555873	-1.5340775308	 0.085194
205.6503	214.8625	252.0001	304.7929	341.2808	466.8931	554.2964	632.6565	709.8089	794.7626	807.5103	837.5655	864.4988	886.6411	914.9373	932.5333	983.8244	989.5531	1008.6512	1057.8529	1072.2771	1102.7542	1138.8066	1150.9744	1164.4608	1176.633	1230.7825	1279.4223	1316.8339	1328.5163	1341.4622	1381.809	1406.8127	1480.4887	1489.2605	1500.5832	3025.3245	3031.0418	3098.1269	3098.7581	3115.0018	3126.5689	3168.4592	3191.0763	3476.1128
CC12OCC1C1NC21	C[C@]12OC[C@H]1[C@H]1N[C@@H]21	
InChI=1S/C6H9NO/c1-6-3(2-8-6)4-5(6)7-4/h3-5,7H,2H2,1H3	InChI=1S/C6H9NO/c1-6-3(2-8-6)4-5(6)7-4/h3-5,7H,2H2,1H3/t3-,4+,5+,6-/m0/s1
