20
gdb 58661	1.86834	1.48536	1.14742	3.3639	80.01	-0.2768	0.0264	0.3032	1209.231	0.169013	-403.15859	-403.148445	-403.1475	-403.19347	37.172	
C	 0.0460429578	 1.5062005035	-0.2787065023	-0.418268
C	 0.012414061	 0.0357577254	 0.1398402847	 0.056629
O	 0.5820831713	-0.1634814671	 1.4245100481	-0.432178
C	-1.3985933715	-0.5616175112	 0.0697014929	 0.161081
C	-1.9220889804	-1.1450059818	-1.23758554	-0.328414
C	-1.6111311108	-2.0671279158	-0.0957916028	-0.036607
C	-0.4531348559	-3.0397142071	-0.1246930327	-0.414859
C	-2.3417166697	 0.1167573272	 0.923434068	 0.233518
N	-3.0601706993	 0.6784304028	 1.6371701426	-0.358893
H	 1.0687798385	 1.884907064	-0.2086106434	 0.128689
H	-0.3062626852	 1.6325331986	-1.3071709521	 0.121844
H	-0.5937551919	 2.1121588335	 0.3722528249	 0.137013
H	 0.6485592182	-0.539851988	-0.5384364963	 0.092162
H	 0.0828739196	 0.3676335957	 2.0567141675	 0.291737
H	-2.9548779331	-0.9554341356	-1.5048254603	 0.136534
H	-1.2284778578	-1.1204175255	-2.072734376	 0.124779
H	-2.4803924458	-2.4365171238	 0.4406257985	 0.113716
H	 0.3566714585	-2.7028251273	-0.776674379	 0.122774
H	-0.0383279163	-3.1869578138	 0.8765483019	 0.143882
H	-0.7927612171	-4.0097259138	-0.5020424241	 0.124861
63.1838	131.3996	142.5487	145.7769	203.5968	218.1653	251.6622	319.2883	336.8503	371.0247	380.2739	484.7967	496.0248	576.1016	596.1	693.0552	810.0669	874.5615	894.059	911.9096	938.1377	1011.6971	1036.599	1071.6694	1085.626	1096.58	1126.9882	1131.3148	1193.6586	1242.7601	1289.9537	1312.4558	1357.8517	1407.4834	1409.2269	1421.7592	1429.2019	1485.3988	1492.1625	1494.5796	1496.2302	1500.5732	2337.8298	3037.6902	3043.53	3074.1767	3107.7663	3109.7711	3120.4861	3125.586	3132.3262	3154.679	3224.5823	3787.3954
CC(O)C1(CC1C)C#N	C[C@@H](O)[C@]1(C[C@H]1C)C#N	
InChI=1S/C7H11NO/c1-5-3-7(5,4-8)6(2)9/h5-6,9H,3H2,1-2H3	InChI=1S/C7H11NO/c1-5-3-7(5,4-8)6(2)9/h5-6,9H,3H2,1-2H3/t5-,6-,7-/m1/s1
