20
gdb 79931	2.40441	1.56234	1.27027	1.4039	79.71	-0.2305	0.0259	0.2564	1120.8948	0.169886	-403.170056	-403.160874	-403.15993	-403.203561	34.351	
C	-0.0618569412	 1.5429212633	 0.0106255092	-0.414167
C	 0.086640122	 0.0396632113	 0.0268141627	-0.088813
C	 1.4008977236	-0.6949890533	-0.2383413621	-0.095139
N	 2.6252638518	 0.0471481336	-0.0745899363	-0.297023
C	 2.6609150847	 0.4140789068	 1.1474761094	 0.373211
C	 3.7115923076	 1.2386168954	 1.8062533277	-0.481525
O	 1.636290854	 0.0137154904	 1.959165564	-0.272004
C	 0.742664188	-0.7400016977	 1.1364381255	 0.376433
C	 0.1194729124	-1.9002171918	 1.8538741092	-0.47621
H	 0.8614620325	 2.0495862203	 0.2981533442	 0.13029
H	-0.3250134898	 1.8895430477	-0.9938594255	 0.121452
H	-0.8511076893	 1.8666039872	 0.6974361838	 0.118305
H	-0.7641751076	-0.4952777942	-0.3900352088	 0.088767
H	 1.4238010145	-1.5183346555	-0.9434646802	 0.093635
H	 4.5183286151	 1.4315082884	 1.0997248468	 0.152813
H	 3.2958755981	 2.1914173746	 2.1497394029	 0.144481
H	 4.1047351026	 0.7197340474	 2.6860455498	 0.143716
H	-0.5323702597	-1.5607824402	 2.6661946483	 0.129702
H	-0.4870513619	-2.4874860266	 1.1588845061	 0.124244
H	 0.8862386125	-2.5544493173	 2.2809218633	 0.127834
127.2129	137.5504	150.0705	186.0455	207.8896	219.679	263.7694	312.3845	380.9571	529.0587	541.9099	604.8163	647.6293	702.3267	750.5438	787.9965	884.5279	916.0932	948.4657	970.0146	1020.4876	1033.6557	1051.7445	1067.9097	1115.074	1120.5486	1147.2565	1162.6902	1212.0608	1259.9237	1310.7946	1337.7906	1411.1797	1413.2311	1417.396	1455.3092	1474.0109	1478.0254	1478.8737	1490.9554	1499.3325	1503.2569	1707.1602	3034.4452	3039.8143	3048.5635	3097.2543	3098.6501	3104.7078	3117.0495	3122.7134	3137.0597	3163.6883	3169.8557
CC1C2N=C(C)OC12C	C[C@H]1[C@H]2N=C(C)O[C@@]12C	
InChI=1S/C7H11NO/c1-4-6-7(4,3)9-5(2)8-6/h4,6H,1-3H3	InChI=1S/C7H11NO/c1-4-6-7(4,3)9-5(2)8-6/h4,6H,1-3H3/t4-,6+,7-/m0/s1
