23
gdb 111234	3.21104	1.15703	1.07124	1.438	84.98	-0.2448	0.0866	0.3313	1268.2207	0.208039	-388.284062	-388.275631	-388.274687	-388.316998	33.326	
C	 0.0555642179	 1.5567807108	 0.0359975955	-0.382897
C	-0.0960223074	 0.0371436517	-0.0931729438	-0.219576
C	 0.7030638733	-0.5454667198	-1.2579836815	 0.063232
C	 2.2431971737	-0.6788526114	-1.0540669479	-0.042726
C	 1.9890310613	-2.0953693187	-0.4636264961	-0.232979
C	 0.7237770632	-2.0979135768	-1.3687294246	-0.05447
C	 1.1561663654	-2.4747357141	-2.7912401445	-0.075253
O	 2.4893816648	-2.0563493557	-3.0626103363	-0.262534
C	 2.8956039771	-0.846661154	-2.4322179356	-0.072964
H	 1.0984065596	 1.8422004573	 0.2111011394	 0.117005
H	-0.2764471598	 2.0651216352	-0.8761475453	 0.114479
H	-0.5380343709	 1.9458548685	 0.8690109513	 0.112346
H	 0.1994136227	-0.4405859209	 0.8488008942	 0.095721
H	-1.1560514678	-0.2113237414	-0.2379376614	 0.092977
H	 0.4099284414	-0.0262414552	-2.1815022335	 0.052922
H	 2.7665553567	 0.0730075764	-0.4568916367	 0.060313
H	 2.7442943041	-2.8626708821	-0.6482671757	 0.103045
H	 1.7440224945	-2.0693731242	 0.5989298819	 0.098436
H	-0.1652255318	-2.6561898863	-1.0604452205	 0.05841
H	 1.1570178365	-3.5619778322	-2.9304536866	 0.102316
H	 0.4526548444	-2.0415074981	-3.5221717352	 0.08488
H	 2.6585815706	 0.0246587298	-3.0657244534	 0.085332
H	 3.9865255307	-0.9134011489	-2.3490074338	 0.101985
90.6369	143.2402	174.7853	218.6218	288.632	305.036	365.4752	415.0015	448.4705	542.4184	645.8457	756.3905	828.2668	852.5162	858.5177	868.1315	881.5644	917.3515	954.619	969.3483	1010.1904	1022.2843	1050.8637	1064.7908	1082.5619	1093.141	1109.4579	1150.8021	1169.1351	1171.2761	1229.969	1242.1135	1261.562	1271.7357	1280.4423	1306.9322	1312.0839	1324.9747	1352.1548	1379.3503	1398.5029	1412.8578	1422.2481	1482.5467	1495.58	1500.2445	1506.5278	1508.0212	1515.5857	2958.185	2964.9509	2997.4178	3015.8904	3031.0161	3050.582	3051.1973	3053.1579	3064.0681	3068.9161	3078.4372	3097.8591	3103.0304	3130.8754
CCC1C2CC1COC2	CC[C@H]1[C@H]2C[C@@H]1COC2	
InChI=1S/C8H14O/c1-2-8-6-3-7(8)5-9-4-6/h6-8H,2-5H2,1H3	InChI=1S/C8H14O/c1-2-8-6-3-7(8)5-9-4-6/h6-8H,2-5H2,1H3/t6-,7+,8-
