16
gdb 66048	2.45122	1.33671	1.11207	2.4024	78.08	-0.2351	0.0159	0.2511	1143.8133	0.121044	-400.638792	-400.629498	-400.628554	-400.672655	34.59	
O	 0.0199120731	 1.427603733	-0.0450454738	-0.446467
C	 0.0508310093	 0.0189637141	-0.0072713788	 0.245801
C	 0.1697250946	-0.5696194627	 1.4361525928	-0.223417
N	-1.3038481354	-0.6656258541	 1.5042162981	-0.307887
C	-1.4225877525	-0.5480685668	 0.028286207	-0.253531
C	-2.5012752642	 0.280434071	-0.473965122	 0.392439
C	-3.4091031361	 0.9371063853	-0.9078014024	-0.437052
C	 0.9417381197	-0.5329731794	-1.0156865738	 0.274432
C	 1.7047283607	-0.9663625045	-1.8380478821	-0.474909
H	 0.9235419678	 1.7385294245	-0.1653817192	 0.287934
H	 0.7063494076	-1.5266078323	 1.4513692059	 0.102096
H	 0.6092478583	 0.1138766316	 2.169279426	 0.113682
H	-1.6684554589	-1.5311491045	 1.8853450704	 0.224387
H	-1.4349621933	-1.5177664198	-0.4888525471	 0.102352
H	-4.2038427335	 1.5344356715	-1.2808228209	 0.196024
H	 2.3691867429	-1.3524694968	-2.5714851399	 0.204115
79.043	130.636	141.6198	178.3635	208.9437	244.6784	340.2062	382.4501	435.3627	503.7081	550.983	595.756	606.7035	625.1701	638.6179	661.2615	668.2097	730.2417	869.8236	925.0162	973.0571	990.6316	1021.89	1080.6148	1122.1762	1149.552	1176.8106	1253.9981	1307.0243	1352.2106	1370.2004	1389.434	1501.8191	2230.4804	2240.2968	2999.1025	3017.7225	3080.0832	3499.471	3503.7186	3539.1325	3816.0479
OC1(CNC1C#C)C#C	O[C@]1(CN[C@H]1C#C)C#C	
InChI=1S/C7H7NO/c1-3-6-7(9,4-2)5-8-6/h1-2,6,8-9H,5H2	InChI=1S/C7H7NO/c1-3-6-7(9,4-2)5-8-6/h1-2,6,8-9H,5H2/t6-,7-/m0/s1
