18
gdb 17537	3.73697	1.84506	1.60364	1.7306	71.31	-0.2402	0.0776	0.3177	867.2082	0.15376	-347.750756	-347.743247	-347.742302	-347.782359	29.224	
O	-0.0329316586	 1.4146665688	 0.0990805074	-0.436366
C	-0.0743349183	 0.0155924085	 0.0736864871	 0.129356
C	-0.4429859955	-0.8235791463	 1.2621024541	-0.095035
C	-1.5434670265	-0.1337988379	 2.0819718256	-0.314262
C	-2.4208073896	-0.0984453551	 0.812733291	 0.36923
C	-3.8839946211	-0.3933065962	 0.750684438	-0.347158
C	-3.3785404574	 0.9791144819	 0.3577148172	-0.337945
C	-1.3406256809	-0.781034211	-0.005003166	-0.202924
H	-0.9355073342	 1.7364476226	 0.0065731928	 0.295555
H	 0.7479257957	-0.3865300086	-0.5135651244	 0.098005
H	 0.1892683342	-1.6272960542	 1.6199708826	 0.086187
H	-1.9653757597	-0.7745885965	 2.8598558713	 0.105675
H	-1.2648497407	 0.8306636094	 2.5182651079	 0.104038
H	-4.2429506661	-1.047464246	-0.0378096575	 0.115087
H	-4.4260090089	-0.4856399665	 1.6865996171	 0.114442
H	-3.5813626116	 1.8044718096	 1.033181461	 0.11729
H	-3.4055629117	 1.2443490941	-0.6951266862	 0.114781
H	-1.5192005689	-1.5367445365	-0.762578739	 0.084043
94.3947	143.2556	205.3823	283.6896	292.0622	366.9057	496.6603	536.4626	644.5592	731.0901	778.6656	788.4406	831.0843	862.7933	898.9626	924.3312	963.8547	973.6068	987.8136	1012.7236	1035.9207	1048.1335	1068.4215	1079.8001	1099.12	1163.0644	1186.6476	1190.7876	1224.7373	1252.354	1276.9211	1319.3959	1342.9647	1392.1959	1439.9621	1463.1233	1483.632	1502.8012	3048.9067	3104.903	3117.4111	3123.1062	3139.9774	3163.3406	3184.3206	3196.73	3211.854	3815.5008
OC1C2CC3(CC3)C12	O[C@H]1[C@H]2CC3(CC3)[C@@H]12	
InChI=1S/C7H10O/c8-6-4-3-7(1-2-7)5(4)6/h4-6,8H,1-3H2	InChI=1S/C7H10O/c8-6-4-3-7(1-2-7)5(4)6/h4-6,8H,1-3H2/t4-,5+,6-/m0/s1
