18
gdb 76180	2.10389	1.44973	1.20894	3.5249	73.67	-0.2611	0.0051	0.2662	1133.9143	0.144117	-439.084903	-439.074781	-439.073837	-439.119293	37.043	
C	-0.0286787161	 1.50733495	 0.042672207	-0.426248
C	 0.0164699077	-0.0004023052	-0.0402312671	-0.13757
C	 0.6509325139	-0.7239601348	-1.2067342172	 0.383958
C	 0.0145977319	-1.9641696156	-1.7791149616	-0.446535
O	 1.3053678845	 0.0265594377	-2.179400178	-0.468701
C	 1.3471002797	-0.7459625147	 0.1594904271	 0.124571
O	 2.5378987774	-0.0067987126	 0.1727964133	-0.458961
C	 1.3726943845	-1.9422053353	 0.9643424075	 0.267867
N	 1.3764800206	-2.8965731554	 1.6191391192	-0.351739
H	 0.788892294	 1.9662441934	-0.5159062595	 0.12821
H	-0.9649042841	 1.8736656928	-0.3891904056	 0.138263
H	 0.0145064855	 1.8557427685	 1.0803576706	 0.120931
H	-0.8316260624	-0.5119866972	 0.4069210866	 0.110442
H	-0.7371211879	-1.6800610811	-2.5220448285	 0.134395
H	 0.7684243522	-2.5830426543	-2.2738829721	 0.136936
H	-0.4719236619	-2.5589387311	-1.0027038621	 0.135316
H	 2.1237084168	 0.3592605204	-1.7850680363	 0.302283
H	 2.5626753937	 0.5429068946	 0.9644862768	 0.306579
109.2807	121.0229	146.5251	192.5162	201.9107	216.2868	264.7403	285.6092	315.0104	366.9148	408.1112	460.6087	467.6834	548.7841	580.267	627.807	700.3377	743.9729	791.5777	974.9674	985.3008	1022.2925	1085.1182	1090.7754	1122.4269	1136.8434	1197.2266	1243.4406	1287.4126	1340.4122	1366.704	1414.7786	1419.0169	1449.1544	1478.914	1490.8534	1497.1923	1504.8947	2341.1978	3040.5428	3046.3706	3100.6613	3115.8941	3131.6312	3133.3584	3152.682	3744.4361	3796.4748
CC1C(C)(O)C1(O)C#N	C[C@H]1[C@@](C)(O)[C@]1(O)C#N	
InChI=1S/C6H9NO2/c1-4-5(2,8)6(4,9)3-7/h4,8-9H,1-2H3	InChI=1S/C6H9NO2/c1-4-5(2,8)6(4,9)3-7/h4,8-9H,1-2H3/t4-,5+,6-/m0/s1
