18
gdb 15570	3.32464	1.72354	1.26996	3.3064	76.09	-0.2472	-0.0534	0.1938	985.3559	0.15408	-347.840939	-347.833006	-347.832062	-347.873361	29.246	
C	 0.3761959032	 1.6081342814	-0.1393096011	-0.401094
C	-0.0244778189	 0.1331460898	 0.0359755354	-0.079304
C	 0.4072754252	-0.7800051094	-1.1494993451	-0.230723
C	 1.6733033069	-1.5399320462	-0.6694112138	-0.256659
C	 1.6071826896	-1.4028453807	 0.8263410805	-0.1492
C	 0.6845637877	-0.5100252652	 1.2140205299	 0.252436
C	 0.4173507805	-0.1723659989	 2.6133186725	 0.069374
O	-0.3930532666	 0.6524530446	 2.9789716186	-0.276099
H	 1.4546438155	 1.7074655717	-0.3073021718	 0.10838
H	-0.1410916617	 2.0475794457	-0.9984068903	 0.112098
H	 0.1141012717	 2.1846710284	 0.751198682	 0.142283
H	-1.1092629041	 0.0976706732	 0.1832142018	 0.090384
H	-0.3854737498	-1.5017430969	-1.3678576494	 0.107279
H	 0.5837288849	-0.2091766695	-2.0649284323	 0.101705
H	 1.6913173995	-2.5864381924	-0.9941780278	 0.114989
H	 2.6029087463	-1.0926554393	-1.0493474545	 0.120841
H	 2.25544598	-1.9507153569	 1.5040000413	 0.106864
H	 1.0229964601	-0.7460085693	 3.3512077541	 0.066447
82.2169	123.6668	177.9408	246.6983	267.4882	292.8799	348.3561	479.1996	562.4767	677.8734	725.7868	761.5732	820.5718	854.2816	904.7869	936.8424	972.7509	1004.1554	1034.9298	1059.0165	1097.9481	1111.7134	1178.3516	1195.4993	1254.046	1269.6961	1313.3198	1322.4256	1350.1399	1371.923	1403.4895	1422.8189	1473.2803	1492.5161	1498.7368	1507.0517	1680.4802	1778.9591	2872.0218	3010.8043	3031.0135	3042.741	3052.474	3063.4911	3097.9122	3101.4859	3124.5972	3180.7861
CC1CCC=C1C=O	C[C@H]1CCC=C1C=O	
InChI=1S/C7H10O/c1-6-3-2-4-7(6)5-8/h4-6H,2-3H2,1H3	InChI=1S/C7H10O/c1-6-3-2-4-7(6)5-8/h4-6H,2-3H2,1H3/t6-/m0/s1
