18
gdb 17897	3.73873	1.92882	1.70163	0.2344	66.55	-0.2294	0.0756	0.3051	830.6762	0.156194	-384.919268	-384.912515	-384.911571	-384.949702	27.381	
O	-0.0448903803	 1.3710102273	 0.0713545088	-0.445701
C	 0.0091316705	-0.0392574537	 0.0081842327	 0.13313
C	-1.4251901978	-0.613801602	-0.120233128	-0.030958
C	-1.2888339675	-0.4014525058	-1.6603933583	-0.26602
C	 0.2317369005	-0.6148648819	-1.4238296785	 0.08479
O	 0.5945111689	-1.985088726	-1.3195907567	-0.275505
C	-0.461238653	-2.8188797236	-0.8419313005	-0.063879
C	-1.3607379548	-2.1166270933	 0.1984507401	-0.240379
H	 0.8436514489	 1.7094110439	-0.0814366355	 0.283517
H	 0.6515378212	-0.4658737428	 0.7915844387	 0.058798
H	-2.2158703419	-0.0932196965	 0.4237153486	 0.072019
H	-1.8140895807	-1.0713693649	-2.3442286618	 0.096025
H	-1.4856595552	 0.6351635361	-1.9329652975	 0.117352
H	 0.9620755437	-0.1370308035	-2.0828256027	 0.067323
H	-1.0762927488	-3.1476543717	-1.6912931987	 0.097434
H	 0.0178963865	-3.7100093018	-0.42712379	 0.107348
H	-0.9731209751	-2.2588991638	 1.214052349	 0.104178
H	-2.3589705253	-2.567723416	 0.1664819004	 0.100528
199.7011	267.388	300.051	301.7859	326.0381	430.1678	464.6941	499.9649	628.4296	805.7575	820.7706	849.3144	900.2018	918.9181	929.7734	940.543	962.8767	1037.9804	1056.1875	1082.4691	1116.6079	1127.9211	1134.6954	1169.9944	1204.3505	1236.4665	1249.9842	1269.5411	1292.0417	1299.9692	1320.6162	1346.3364	1359.6331	1407.9596	1417.083	1483.4036	1490.7706	1524.8794	2998.9522	3001.4253	3030.3204	3069.0855	3070.3859	3082.3081	3087.0589	3092.6828	3145.3266	3808.2683
OC1C2CC1OCC2	O[C@H]1[C@H]2C[C@@H]1OCC2	
InChI=1S/C6H10O2/c7-6-4-1-2-8-5(6)3-4/h4-7H,1-3H2	InChI=1S/C6H10O2/c7-6-4-1-2-8-5(6)3-4/h4-7H,1-3H2/t4-,5+,6+/m1/s1
