14
gdb 18920	4.11848	2.39736	2.14157	0.6382	58.35	-0.2231	0.0722	0.2954	671.678	0.108005	-382.467801	-382.462199	-382.461255	-382.497103	23.472	
O	-0.0842355803	 1.3962100824	 0.0895759235	-0.459995
C	 0.0492751834	 0.0286153613	 0.0498854467	 0.352382
C	 0.0235408348	-0.8499974204	-1.1838508897	-0.020096
O	 1.0015829971	-1.8509929776	-1.150862996	-0.226912
C	 1.0743712098	-2.1073130652	 0.2257437084	 0.076504
C	-0.2698398205	-1.9296969456	 0.9107813555	-0.117562
C	 0.8179801047	-0.8681255277	 1.0581558689	-0.221468
C	-1.0283588805	-1.0325741023	-0.084621291	-0.181464
H	 0.6747341045	 1.7902022473	-0.3565932379	 0.288918
H	-0.2248001025	-0.4751425878	-2.1676585276	 0.111263
H	 1.7860842076	-2.874965693	 0.4986493086	 0.109334
H	-0.692129385	-2.6085475749	 1.6375816305	 0.094459
H	 1.3828507133	-0.5473894054	 1.9222310703	 0.095683
H	-2.0947653563	-0.9611343012	-0.2424066102	 0.098954
241.4787	323.2849	344.0871	542.2578	591.7986	630.3905	718.6395	744.0255	756.5198	770.4527	833.2112	848.396	878.9209	918.657	920.6049	974.0766	987.9635	1014.8885	1033.0453	1041.9041	1081.7665	1105.0352	1137.5822	1200.2435	1219.7942	1246.8187	1286.289	1312.994	1369.8835	1465.58	3210.2401	3211.0068	3218.0595	3221.5662	3229.1158	3777.9873
OC12C3OC4C(C14)C23	O[C@@]12[C@H]3O[C@@H]4[C@@H]([C@H]14)[C@@H]23	
InChI=1S/C6H6O2/c7-6-2-1-3(6)5(6)8-4(1)2/h1-5,7H	InChI=1S/C6H6O2/c7-6-2-1-3(6)5(6)8-4(1)2/h1-5,7H/t1-,2-,3+,4+,5-,6-/m0/s1
