18
gdb 106188	2.78686	1.53639	1.37401	1.9826	70.8	-0.2075	0.0633	0.2707	1007.9535	0.149308	-439.024452	-439.016805	-439.015861	-439.056843	29.459	
O	-0.0097780411	 1.3856990827	-0.2767888773	-0.419363
C	 0.0087200799	-0.0098183688	 0.0070450868	-0.236428
C	-1.4007477458	-0.4912523317	 0.0098994982	 0.31726
C	-2.0464258975	-1.8636180735	-0.067898132	-0.136188
N	-2.8894852732	-1.5981989859	 1.1015606095	-0.320015
C	-2.5352666916	-0.1410181648	 1.0088217578	-0.072569
C	-3.5338185018	 0.6083504774	 0.134742314	-0.092244
O	-3.5176290724	-0.1182043388	-1.1050585229	-0.27391
C	-2.2920138116	-0.8141002446	-1.1481805919	 0.055929
H	 0.8836846781	 1.7253737607	-0.1675341161	 0.288947
H	 0.5866952054	-0.5676961464	-0.7477017402	 0.089882
H	 0.4758833172	-0.2068132449	 0.9852326032	 0.095048
H	-1.6054250129	-2.8392601391	-0.2478465607	 0.090161
H	-3.8785786851	-1.7706726316	 0.9177626549	 0.216177
H	-2.2878133743	 0.3312346807	 1.9611204789	 0.080885
H	-4.5570687294	 0.5924827273	 0.5259521461	 0.104598
H	-3.2207280364	 1.6520328317	-0.0198359183	 0.108627
H	-1.8947618175	-0.9545231804	-2.1467071401	 0.103202
78.7124	118.0983	238.6922	254.9627	291.2983	388.4874	398.5075	541.9721	613.6447	686.7073	765.3294	779.5988	833.8071	909.3103	916.2379	939.6582	968.9347	983.4453	1000.383	1025.8559	1052.6748	1064.3001	1072.85	1100.2317	1124.2681	1175.3997	1182.728	1234.9947	1244.4527	1253.225	1281.178	1291.8548	1303.0361	1373.4203	1383.1879	1436.0747	1489.8556	1505.5008	1515.6777	2963.1868	2990.2082	2993.1884	3068.5765	3099.0556	3156.2218	3189.0642	3436.4052	3824.3328
OCC12C3NC1COC23	OC[C@@]12[C@H]3N[C@@H]1CO[C@@H]23	
InChI=1S/C6H9NO2/c8-2-6-3-1-9-5(6)4(6)7-3/h3-5,7-8H,1-2H2	InChI=1S/C6H9NO2/c8-2-6-3-1-9-5(6)4(6)7-3/h3-5,7-8H,1-2H2/t3-,4+,5-,6+/m1/s1
