20
gdb 110740	2.50726	1.27497	1.07543	2.5669	81.18	-0.2547	0.0224	0.2772	1248.3499	0.169703	-403.131912	-403.122588	-403.121644	-403.166214	34.516	
C	 0.2263769152	 1.4251921699	 0.2254461802	-0.37447
C	-0.2082262138	-0.0071157786	-0.1067295042	-0.214659
C	 0.5629736646	-0.5840408324	-1.2760649473	-0.072819
C	 1.8962225323	-1.2431061072	-1.1675341538	 0.033519
O	 1.9913401955	-1.971489175	 0.0874362547	-0.278058
C	 0.9587059677	-2.81261558	-0.3296320129	 0.397846
N	 0.4999566179	-3.8536514389	 0.1962977435	-0.559451
C	 0.7093740159	-2.0804933332	-1.6122415786	 0.148462
C	 0.3060158023	-2.7113713329	-2.9119254477	-0.494861
H	 1.2842559412	 1.4582870272	 0.5055373713	 0.123934
H	 0.087075879	 2.0945329309	-0.6308689508	 0.112267
H	-0.3552861314	 1.8278111491	 1.0600597834	 0.116369
H	-0.0736204512	-0.6453919372	 0.7711134709	 0.121913
H	-1.2783427058	-0.026397999	-0.3458346332	 0.103598
H	 0.4710410453	-0.0072463435	-2.1974561342	 0.094245
H	 2.8274185515	-0.9835742829	-1.6536338957	 0.118182
H	 0.9757761867	-4.0657011405	 1.0750317185	 0.228989
H	-0.7496400712	-3.0011473624	-2.8906992334	 0.140574
H	 0.445777957	-2.0162712543	-3.7452979241	 0.11971
H	 0.8936832012	-3.6123848691	-3.1129300268	 0.134709
63.846	112.4181	150.0968	167.62	214.1255	243.1813	270.5565	289.9416	410.8861	471.4951	585.6174	651.2222	716.5723	726.4014	770.1043	826.9601	868.8943	889.8087	903.6804	934.9512	941.9635	1003.8547	1005.4291	1049.1034	1076.1666	1107.716	1120.7383	1162.7849	1189.4218	1259.2062	1280.0302	1297.6867	1345.7351	1380.5394	1411.3925	1418.2815	1470.0699	1481.7883	1483.5912	1498.2135	1499.3089	1505.6595	1825.2706	3032.5428	3036.5311	3037.9924	3082.5424	3101.4641	3102.4713	3108.9052	3109.7231	3113.6702	3206.3561	3476.3964
CCC1C2OC(=N)C12C	CC[C@H]1[C@H]2O[C]([NH])[C@@]12C	
InChI=1S/C7H11NO/c1-3-4-5-7(4,2)6(8)9-5/h4-5,8H,3H2,1-2H3	InChI=1S/C7H11NO/c1-3-4-5-7(4,2)6(8)9-5/h4-5,8H,3H2,1-2H3/t4-,5+,7-/m0/s1
