13
gdb 48029	7.28089	0.44308	0.41873	0.0308	81.02	-0.2785	-0.075	0.2035	2356.2522	0.08516	-419.371396	-419.361479	-419.360535	-419.409878	31.006	
O	-0.0439765213	-0.1454055686	 0.0009327269	-0.221292
C	-0.0173895909	 1.062726542	 0.0072357334	 0.028187
C	 1.1932847383	 1.8482562507	 0.0003011225	 0.021546
C	 2.1869308351	 2.5316558972	-0.0051919441	 0.129847
C	 3.4094814282	 3.3313243029	-0.0123255377	-0.511661
C	 3.1837415137	 4.7746177651	-0.0027225132	 0.129844
C	 3.0250157669	 5.9700861508	 0.0050862381	 0.021548
C	 2.7965912328	 7.3950655869	 0.0150553869	 0.028185
O	 3.675416885	 8.2245117999	 0.0118201609	-0.221291
H	-0.9473891894	 1.6656079202	 0.0190806962	 0.10723
H	 4.0277974734	 3.0555690534	 0.8538811801	 0.190314
H	 4.0116394675	 3.0647012868	-0.8926621919	 0.190314
H	 1.7258389906	 7.6811993328	 0.0262709117	 0.107231
20.9213	27.6247	44.1027	125.9446	162.9454	165.7003	182.3618	325.5978	369.874	402.3131	468.9911	587.0201	634.1729	818.0493	841.0472	909.7464	1020.8308	1020.9559	1124.1592	1166.8941	1225.1499	1333.805	1420.3033	1420.492	1427.4146	1769.8507	1773.7549	2336.7713	2348.7098	2927.9328	2928.766	3011.4411	3037.3431
O=CC#CCC#CC=O	O=CC#CCC#CC=O	
InChI=1S/C7H4O2/c8-6-4-2-1-3-5-7-9/h6-7H,1H2	InChI=1S/C7H4O2/c8-6-4-2-1-3-5-7-9/h6-7H,1H2
