13
gdb 24868	2.09559	1.99978	1.02328	1.8752	65.04	-0.2606	-0.0112	0.2494	1055.4652	0.09175	-486.143254	-486.135877	-486.134933	-486.175722	27.375	
N	-0.0945675773	 1.3161219079	-0.2652617677	-0.55478
C	 0.0095307495	 0.0837225893	 0.0194941539	 0.470888
N	-1.0962141108	-0.6353752889	 0.4208221014	-0.353645
C	-1.1306050354	-1.9681482861	 0.7582857798	 0.48237
N	-2.1943246148	-2.5396784702	 1.114842236	-0.549797
O	 0.0798872188	-2.6309146644	 0.6781405092	-0.245777
C	 1.2564638958	-2.04073586	 0.2946626249	 0.487519
O	 2.2683221865	-2.6743652146	 0.2476052702	-0.349181
N	 1.1624089151	-0.7026350778	-0.0179002477	-0.434108
H	 0.7925071888	 1.7258167222	-0.545930078	 0.22457
H	-1.9695234505	-0.1332870124	 0.471691233	 0.29516
H	-2.0287659742	-3.5207991036	 1.3245291433	 0.245054
H	 2.0296772084	-0.2723724213	-0.2990677483	 0.281727
88.1237	121.6381	128.1593	370.2302	384.7984	500.1118	526.2742	538.8103	601.4084	611.5123	673.3964	695.6281	704.6957	751.335	784.9829	820.8784	920.5704	1004.5053	1022.4814	1120.8696	1137.1148	1232.9588	1390.0011	1410.9971	1432.1479	1472.2495	1772.5349	1789.8233	1892.5406	3531.7821	3544.4244	3647.3527	3649.1365
N=C1NC(=N)OC(=O)N1	[NH][C]1N[C]([NH])OC(=O)N1	
InChI=1S/C3H4N4O2/c4-1-6-2(5)9-3(8)7-1/h(H4,4,5,6,7,8)	InChI=1S/C3H4N4O2/c4-1-6-2(5)9-3(8)7-1/h(H4,4,5,6,7,8)
