19
gdb 105786	2.05974	1.53971	1.18651	2.285	71.93	-0.2482	-0.0388	0.2093	1134.6058	0.157508	-460.157303	-460.147964	-460.147019	-460.192788	33.054	
C	 0.4124901046	 1.1281017022	 0.1718112599	-0.261904
O	 0.0896375404	-0.2489343254	 0.1063629693	-0.293904
C	-1.2869550379	-0.5664374017	-0.0634518546	 0.258984
C	-1.3804289964	-2.1056775066	 0.056146753	-0.263799
C	-1.5133017404	-2.2733106368	 1.5703010291	-0.07408
O	-2.370919046	-1.2169296923	 1.9778724667	-0.259575
C	-2.2069629304	-0.1118897505	 1.0922425654	-0.11333
C	-1.7452805335	-0.1166514277	-1.4482846033	 0.096821
O	-2.8840015939	 0.1158146263	-1.7593320743	-0.250686
H	 1.5003620714	 1.1958289444	 0.1003595867	 0.137099
H	-0.0285825591	 1.7017198572	-0.6564953869	 0.114833
H	 0.0960991058	 1.5892321133	 1.1164624142	 0.122352
H	-2.2835474437	-2.4632028239	-0.4465304272	 0.126824
H	-0.5021728653	-2.5874675609	-0.3765320149	 0.121217
H	-1.9745657024	-3.2200786881	 1.864949265	 0.111418
H	-0.5283045674	-2.1936565532	 2.053608095	 0.103052
H	-1.7759653392	 0.7398396161	 1.6305296679	 0.101445
H	-3.1854990382	 0.1820010742	 0.6993379085	 0.128622
H	-0.9093073082	-0.0626480466	-2.1820831992	 0.094611
22.9189	80.9476	129.2456	169.0854	207.9514	249.4647	290.6734	302.246	373.2402	460.513	542.979	643.618	659.2964	792.2583	859.0332	893.5923	930.9506	950.8973	988.5564	1021.117	1087.813	1110.8473	1138.3596	1156.1423	1173.0591	1182.3555	1213.866	1234.2353	1253.9062	1273.1758	1321.0424	1364.8324	1391.2032	1403.7779	1468.8262	1478.3344	1489.1788	1508.9448	1511.6563	1523.2853	1831.3037	2879.9981	2992.7476	2997.2495	3034.8558	3050.526	3067.7219	3082.8655	3090.4029	3120.6776	3136.1462
COC1(CCOC1)C=O	CO[C@]1(CCOC1)C=O	
InChI=1S/C6H10O3/c1-8-6(4-7)2-3-9-5-6/h4H,2-3,5H2,1H3	InChI=1S/C6H10O3/c1-8-6(4-7)2-3-9-5-6/h4H,2-3,5H2,1H3/t6-/m1/s1
