15
gdb 13331	6.1652	1.15814	1.03455	1.1066	62.01	-0.2532	-0.0311	0.2222	1078.6451	0.11888	-399.819369	-399.811821	-399.810877	-399.852785	25.863	
O	-0.4947293501	 0.639844952	 0.7729996094	-0.235062
C	 0.1043626576	 0.9426289857	-0.2267509301	 0.15364
C	 1.3839056973	 1.7562180805	-0.2369592704	-0.292535
C	 1.2864521884	 3.0104004384	-1.1099812961	 0.078331
C	 2.6123164809	 3.8133022356	-1.2330745993	-0.199199
N	 2.9957052351	 3.7065383591	-2.6508323662	-0.25449
C	 2.0667673698	 3.0566223629	-3.2117452082	 0.121562
O	 1.007601663	 2.6183106175	-2.484646987	-0.23256
H	-0.2568564881	 0.6375501049	-1.2321197244	 0.09647
H	 1.6288215487	 2.034257761	 0.7925598924	 0.129482
H	 2.1933662377	 1.1258138352	-0.6305651353	 0.130403
H	 0.4502733484	 3.635422856	-0.7835185087	 0.109473
H	 2.4889098074	 4.8665563564	-0.9620502517	 0.125719
H	 3.4040607529	 3.4016093477	-0.5981320449	 0.121753
H	 2.0212164109	 2.8003704771	-4.2643077796	 0.147013
47.0046	67.904	94.9279	200.2974	341.1102	409.3598	489.9294	538.7335	734.1124	807.9973	835.2253	882.335	946.1651	963.038	976.6236	993.5073	1046.9142	1093.2256	1116.8663	1122.7531	1200.2648	1246.096	1286.1628	1311.8465	1320.433	1356.2261	1384.2136	1425.6909	1451.5637	1499.4728	1713.7327	1832.1371	2909.3978	3022.6692	3044.0496	3063.7876	3083.9943	3102.6912	3219.8029
O=CCC1CN=CO1	O=CC[C@H]1CN=CO1	
InChI=1S/C5H7NO2/c7-2-1-5-3-6-4-8-5/h2,4-5H,1,3H2	InChI=1S/C5H7NO2/c7-2-1-5-3-6-4-8-5/h2,4-5H,1,3H2/t5-/m0/s1
