19
gdb 105481	1.92339	1.7687	1.13675	2.9163	71.21	-0.2395	-0.0322	0.2073	1133.2027	0.157132	-460.161287	-460.151787	-460.150843	-460.196183	34.268	
C	-0.6478217406	 1.5012934023	 0.073111016	-0.475363
C	 0.3640122361	 0.4211392186	-0.2178827068	 0.342584
O	 1.3859208403	 0.2934800001	 0.4306828263	-0.327858
C	 0.0696347822	-0.5385100021	-1.3693549472	 0.28348
C	 1.3394185232	-0.8080871665	-2.1933003369	-0.110371
O	 2.2888836165	-1.549301311	-1.4638861245	-0.421936
C	-0.7095399026	-1.8178666658	-0.9575729968	-0.316068
C	-1.779065311	-1.30558864	-1.9416245927	-0.08027
O	-1.0265086827	-0.0967065818	-2.2039854862	-0.321943
H	-0.7851208195	 2.1283199449	-0.8133325513	 0.162327
H	-1.6279619047	 1.0597155565	 0.2834928609	 0.143993
H	-0.313725913	 2.0986711643	 0.9217941936	 0.139642
H	 1.0574365339	-1.4005870911	-3.0699730861	 0.108257
H	 1.7434078445	 0.1498840414	-2.5594788689	 0.093849
H	 2.4316840362	-1.0554023325	-0.6426204002	 0.29733
H	-0.1985028328	-2.7453270004	-1.2147109859	 0.139978
H	-1.0227937921	-1.8581324663	 0.0869452694	 0.118807
H	-1.9121247566	-1.9037389891	-2.8500755566	 0.114104
H	-2.7635290572	-1.0840349515	-1.5148555862	 0.109458
48.0431	88.9838	138.8899	148.4313	198.3001	233.1701	277.4558	317.7066	402.3231	473.3651	523.3886	579.9234	615.9317	665.3779	781.967	838.6841	885.8638	943.7266	965.7893	984.7739	1005.7304	1023.4729	1078.1788	1094.8802	1128.3478	1160.2637	1187.0387	1203.5305	1223.6929	1249.1534	1315.0665	1345.3287	1373.0624	1385.4646	1448.2025	1458.4739	1464.0116	1491.8616	1507.6353	1531.0352	1776.9087	2974.2658	3028.8986	3046.1496	3070.054	3072.5571	3087.6956	3107.2612	3147.963	3159.2067	3715.2762
CC(=O)C1(CO)CCO1	CC(=O)[C@@]1(CO)CCO1	
InChI=1S/C6H10O3/c1-5(8)6(4-7)2-3-9-6/h7H,2-4H2,1H3	InChI=1S/C6H10O3/c1-5(8)6(4-7)2-3-9-6/h7H,2-4H2,1H3/t6-/m0/s1
