21
gdb 88766	3.70466	1.04302	0.91487	1.3144	82.8	-0.2448	0.0819	0.3267	1332.3431	0.183014	-387.036514	-387.02801	-387.027066	-387.07013	33.306	
O	-0.0417263857	 1.5073009752	 0.2989529223	-0.417767
C	 0.0302830981	 0.1131286204	 0.1893936668	 0.094831
C	-0.5567645374	-0.7490588914	 1.2784372221	-0.34261
C	-1.2588152918	-0.6166146388	-0.0629228608	-0.026979
C	-2.5606962465	 0.1359693195	-0.1649940244	 0.023385
C	-3.0780316765	 0.5877413821	-1.5786705437	-0.261071
C	-4.4016356768	-0.1374289982	-1.306944429	-0.0348
C	-4.1441002372	-1.5985294814	-1.0751824045	-0.277967
C	-3.8790440377	-0.6292790932	 0.0449956054	-0.063222
H	 0.5640292873	 1.7805219127	 0.99540403	 0.287091
H	 0.9224900037	-0.2526293344	-0.3193259011	 0.082246
H	-0.069519316	-1.6838710533	 1.5340669142	 0.107695
H	-1.0077100815	-0.2269809084	 2.1168142582	 0.110301
H	-1.1765150612	-1.4773376799	-0.7214456355	 0.081149
H	-2.5185919258	 1.0070888425	 0.4916591625	 0.080461
H	-3.1680604299	 1.6728469453	-1.6575679898	 0.104558
H	-2.5104529988	 0.2236752641	-2.4422841426	 0.089415
H	-5.3867435074	 0.2368110723	-1.5574651196	 0.079965
H	-5.0277476108	-2.2155087934	-0.9448873002	 0.106185
H	-3.3300958797	-2.1031489516	-1.5915648658	 0.100616
H	-4.4037019983	-0.7103092402	 0.9901808855	 0.076519
44.5256	124.903	158.4326	208.1011	297.6509	341.9654	380.9371	438.4327	475.5681	569.092	688.6289	770.05	779.6822	801.2308	829.3245	847.8125	910.9341	942.065	953.6391	970.6549	999.9685	1020.2381	1023.3343	1037.0872	1047.6511	1063.0189	1075.931	1085.1483	1132.7771	1135.4037	1173.8594	1183.3433	1222.3263	1236.2658	1241.8007	1259.0843	1291.2719	1302.9389	1317.7021	1365.1776	1412.4867	1433.834	1484.0097	1488.1911	1500.5179	3041.4853	3085.0006	3093.2459	3102.9418	3110.5052	3125.3396	3140.9779	3168.5321	3181.2609	3196.3355	3213.7699	3807.6757
OC1CC1C1CC2CC12	O[C@H]1C[C@H]1[C@H]1C[C@H]2C[C@@H]12	
InChI=1S/C8H12O/c9-8-3-7(8)6-2-4-1-5(4)6/h4-9H,1-3H2	InChI=1S/C8H12O/c9-8-3-7(8)6-2-4-1-5(4)6/h4-9H,1-3H2/t4-,5-,6+,7+,8+/m1/s1
