18
gdb 51582	4.08845	0.7515	0.69397	3.218	80.9	-0.2595	0.0163	0.2758	1620.7947	0.145276	-401.891194	-401.881601	-401.880657	-401.926945	34.18	
N	-0.2297210041	 1.2529116045	 0.1859092081	-0.435246
C	-0.3654656964	 0.0216336705	 0.4200150942	 0.128716
O	-0.8137205158	-0.8006103223	-0.5568799402	-0.186551
C	-0.8776283471	-2.1688091417	-0.2336629263	 0.076367
C	-2.0155471475	-2.6729812635	 0.6183259647	-0.314214
C	-1.9860270691	-2.9518978829	-0.8685711831	-0.02755
C	-2.977725394	-2.262031546	-1.7959643017	-0.376587
C	-4.2702207458	-2.9389993789	-1.8318842638	 0.306647
C	-5.3263737461	-3.5120444462	-1.8533702762	-0.447591
H	 0.1094915615	 1.7288886015	 1.0192760009	 0.231231
H	-0.1600443275	-0.4991726256	 1.3640451783	 0.093119
H	 0.0998303763	-2.6366686177	-0.1422815499	 0.108568
H	-1.8271829026	-3.4811397522	 1.3159708629	 0.121527
H	-2.7325428615	-1.9341058127	 0.9609587525	 0.132252
H	-1.733861789	-3.9654676931	-1.1641464715	 0.105338
H	-3.1068434845	-1.2207371063	-1.4830946466	 0.150203
H	-2.557903387	-2.2186424474	-2.8090952777	 0.138638
H	-6.2651382896	-4.00731868	-1.8776919944	 0.195133
41.8705	78.2674	88.435	115.9008	162.5318	254.5099	321.6032	342.7761	420.2277	498.3197	572.7875	612.1434	618.3463	642.0212	789.866	824.8056	834.4426	887.3382	912.6754	965.21	1012.2464	1034.0013	1048.6978	1064.9335	1083.2945	1125.8392	1146.8611	1183.9508	1246.6513	1250.1646	1286.7316	1323.6703	1376.9668	1413.497	1420.0491	1469.3324	1485.7472	1747.7298	2240.2918	3030.9104	3039.482	3076.7348	3129.1695	3136.1301	3160.7132	3224.8808	3507.2384	3518.9849
N=COC1CC1CC#C	[NH][CH]O[C@H]1C[C@H]1CC#C	
InChI=1S/C7H9NO/c1-2-3-6-4-7(6)9-5-8/h1,5-8H,3-4H2	InChI=1S/C7H9NO/c1-2-3-6-4-7(6)9-5-8/h1,5-8H,3-4H2/t6-,7+/m1/s1
