18
gdb 99218	4.0668	0.81463	0.80422	1.8575	69.02	-0.2478	-0.0125	0.2353	1511.203	0.145189	-476.289075	-476.27886	-476.277916	-476.325992	35.377	
C	-0.1704536967	 1.3564171304	-0.3399325893	-0.375501
C	 0.070080097	-0.1411057227	-0.1625229922	-0.29004
C	 0.9852465949	-0.7357789445	-1.2200071728	 0.379621
O	 1.3457746846	-0.1330403778	-2.2006841521	-0.293845
C	 1.4306262125	-2.1782471863	-0.9596782795	-0.1764
O	 2.1605317724	-2.7153105278	-2.0462777275	-0.242113
C	 1.3900230213	-3.0775012506	-3.1115135156	 0.513026
N	 2.1893920779	-3.4862814684	-4.138703789	-0.562048
O	 0.182094217	-3.0832537659	-3.1077557771	-0.405195
H	 0.7645572629	 1.9166848881	-0.253909042	 0.127738
H	-0.5853854416	 1.5648953033	-1.3285756525	 0.140514
H	-0.866066726	 1.7282286263	 0.417137846	 0.112428
H	 0.4828650447	-0.3691702176	 0.8298501326	 0.115857
H	-0.8759401425	-0.6989035855	-0.2141428751	 0.139156
H	 2.107726943	-2.1952604182	-0.0992247499	 0.133301
H	 0.5562797772	-2.7960340158	-0.7312917175	 0.144215
H	 3.1515205133	-3.1908555988	-4.1347718797	 0.268508
H	 1.7359909981	-3.5752831282	-5.0321774468	 0.270778
35.3828	48.868	74.9411	83.4951	195.7428	211.0532	300.9788	325.4353	351.3096	416.6061	452.0357	480.9024	527.0359	642.9376	678.9412	748.9346	783.839	840.3739	876.9118	948.4001	989.5451	1030.8784	1107.9074	1125.8028	1128.4184	1163.2891	1269.4367	1309.2603	1350.2912	1371.6635	1401.573	1413.8147	1446.0082	1456.2572	1493.9165	1499.3058	1614.9991	1825.2006	1841.4579	3015.4579	3043.3589	3052.307	3052.9959	3101.8267	3121.9307	3133.3522	3610.0832	3736.157
CCC(=O)COC(N)=O	CCC(=O)COC(=O)N	
InChI=1S/C5H9NO3/c1-2-4(7)3-9-5(6)8/h2-3H2,1H3,(H2,6,8)	InChI=1S/C5H9NO3/c1-2-4(7)3-9-5(6)8/h2-3H2,1H3,(H2,6,8)
