17
gdb 46586	2.61823	1.87364	1.4326	4.2343	71.62	-0.2397	-0.0231	0.2166	942.4881	0.136977	-421.792588	-421.785519	-421.784575	-421.823937	28.291	
O	 0.0247478015	-0.0121536992	-0.2044631616	-0.309731
C	-0.0030078134	 1.1849678947	-0.0919770687	 0.333126
C	-1.2840641553	 2.0693311573	-0.0833464033	-0.338548
C	-0.8862540817	 3.3794791104	-0.8241186753	-0.298322
C	 0.6217875953	 3.4739644246	-0.6192506673	 0.16217
C	 1.1675160587	 3.3624755981	 0.7731584811	-0.373815
C	 1.1429977617	 2.1397603839	-0.1082840318	 0.28514
O	 2.2601509505	 2.1139500578	-0.9991582085	-0.315928
C	 1.7639688242	 3.3333341579	-1.6359858361	-0.142524
H	-2.0985820242	 1.522932409	-0.561834283	 0.137078
H	-1.592682015	 2.257644853	 0.9518018991	 0.130573
H	-1.1025017057	 3.2790648208	-1.8929166746	 0.118155
H	-1.4350611117	 4.2540635177	-0.4623367418	 0.112224
H	 2.1532055179	 3.7564055368	 0.9973877063	 0.136951
H	 0.4542443566	 3.4156063048	 1.5873470237	 0.131149
H	 1.4114619438	 3.1218119169	-2.6519570498	 0.117502
H	 2.5274744268	 4.1184077054	-1.6598733085	 0.114801
111.5504	180.5161	279.9073	321.7151	383.4175	466.6379	505.8395	556.1611	601.5365	668.0578	724.5208	741.8941	832.933	851.405	913.3737	930.7582	951.2296	973.4371	986.2908	1010.8164	1019.5468	1058.989	1081.6949	1149.0457	1187.154	1215.8591	1253.8121	1268.2702	1289.5658	1330.2983	1344.0578	1371.0477	1457.3985	1474.076	1498.3592	1514.724	1836.2311	3027.4845	3045.4163	3048.0476	3082.1041	3088.3783	3123.5803	3137.4478	3231.318
O=C1CCC23CC12OC3	O=C1CC[C@@]23C[C@@]12OC3	
InChI=1S/C7H8O2/c8-5-1-2-6-3-7(5,6)9-4-6/h1-4H2	InChI=1S/C7H8O2/c8-5-1-2-6-3-7(5,6)9-4-6/h1-4H2/t6-,7+/m0/s1
