19
gdb 94466	2.90853	1.36955	1.17611	1.1948	70.97	-0.2492	0.071	0.3202	1113.6102	0.159197	-460.142588	-460.134211	-460.133267	-460.176191	30.968	
C	-0.4230320659	 1.4229628263	-0.040019894	-0.420842
C	 0.1767979872	 0.0344442034	-0.0621599775	 0.122015
O	 1.4620989118	-0.0146724854	-0.7307316597	-0.295282
C	 2.037380032	-0.8131144508	 0.3196353804	-0.125664
C	 0.7950763768	-0.6112268624	 1.2099824945	 0.299606
C	 0.956613559	 0.206681844	 2.500262687	-0.174174
O	-0.0662309175	-0.2968029874	 3.3449885085	-0.232982
C	-0.1160141535	-1.6641257293	 3.0388965343	 0.011839
O	 0.1247580617	-1.7829836311	 1.6471411389	-0.293671
H	 0.2812929123	 2.155164251	 0.3654741752	 0.120635
H	-0.6820382403	 1.7356459023	-1.0562345613	 0.131408
H	-1.3363175667	 1.4345449976	 0.5644163984	 0.128293
H	-0.5238302957	-0.6798231297	-0.5174010566	 0.0839
H	 2.1864268688	-1.8594158578	 0.0247302108	 0.109567
H	 2.9843219778	-0.3956080039	 0.6850557793	 0.099045
H	 1.9527267054	 0.0299068879	 2.9377767773	 0.098099
H	 0.8097721933	 1.2801330971	 2.3783504129	 0.128825
H	 0.6540231216	-2.2239433152	 3.5999131288	 0.087199
H	-1.111762908	-2.0495772066	 3.2769354628	 0.122183
57.1938	83.1573	188.6488	222.5256	269.7047	299.7874	327.5844	438.1155	453.8809	517.0241	738.3172	760.6511	786.938	870.937	903.7805	923.3011	984.2092	1019.4873	1025.6349	1032.8625	1091.7695	1110.8069	1115.8476	1150.0153	1162.4204	1166.4229	1187.7181	1204.8633	1256.5107	1280.2513	1284.8015	1356.6427	1362.7579	1388.3175	1405.7941	1433.0542	1479.5265	1496.9218	1512.1294	1515.6781	1547.3728	2940.2525	2973.9785	3003.5741	3012.6407	3037.9442	3058.7436	3084.4286	3110.2968	3115.7028	3128.4671
CC1OCC11COCO1	C[C@H]1OC[C@]21COCO2	
InChI=1S/C6H10O3/c1-5-6(3-8-5)2-7-4-9-6/h5H,2-4H2,1H3	InChI=1S/C6H10O3/c1-5-6(3-8-5)2-7-4-9-6/h5H,2-4H2,1H3/t5-,6+/m1/s1
