21
gdb 90702	2.94428	1.34938	1.15206	1.742	82.88	-0.2356	0.0116	0.2472	1155.6756	0.184045	-387.092333	-387.084103	-387.083159	-387.124851	33.048	
C	 0.0627540458	 1.6357837493	-0.0270832513	-0.399496
C	 0.079663883	 0.1017480586	-0.0201071308	-0.026065
C	 0.8356516071	-0.5327090729	-1.172851779	-0.066329
C	 1.5866182608	-1.5703609962	-0.7981240962	-0.116437
C	 1.5088864538	-1.832496301	 0.6841575007	-0.11203
C	 2.7595897649	-1.3928877746	 1.5069999061	 0.154257
O	 4.0379352167	-1.4871292631	 0.9320733106	-0.432205
C	 2.1138438674	 0.006608708	 1.7014878038	-0.282278
C	 0.7494144679	-0.5649806303	 1.2056941243	-0.026475
H	 1.0726335096	 2.0563763503	-0.0096936322	 0.118431
H	-0.4356732859	 2.0122305697	-0.9266535569	 0.112689
H	-0.4793887852	 2.0261653419	 0.8403120159	 0.114973
H	-0.9693378783	-0.2299256169	-0.0724554181	 0.079986
H	 0.7297439855	-0.1784297497	-2.1940512868	 0.089988
H	 2.1728473594	-2.1883959679	-1.4707907465	 0.097514
H	 1.1179240059	-2.8300339109	 0.9119293886	 0.068834
H	 2.8193517708	-1.9440879523	 2.4497276394	 0.087051
H	 4.0045164249	-1.033634508	 0.0820026156	 0.277565
H	 2.1448433268	 0.4302223893	 2.7077948349	 0.100053
H	 2.5438837856	 0.7369287641	 1.0102156498	 0.0955
H	 0.0502995536	-0.7438368877	 2.0241774783	 0.064476
86.5797	158.9112	235.4789	242.3632	296.9583	345.3552	377.6524	435.0268	504.2681	528.3253	648.894	678.2848	743.0446	778.1436	788.7424	859.8708	869.0844	919.424	937.813	978.3721	980.7138	1003.6035	1048.5041	1063.6983	1076.1838	1124.2983	1129.8181	1135.948	1160.3877	1178.4158	1227.1247	1242.9207	1261.1966	1295.0911	1300.5375	1324.157	1338.9558	1344.002	1382.1724	1412.8756	1440.2882	1478.911	1499.5932	1503.524	1669.3609	2972.7469	3034.3928	3042.2061	3061.8183	3071.8154	3091.1191	3098.7023	3108.0474	3118.1141	3166.8901	3192.745	3792.769
CC1C=CC2C(O)CC12	C[C@H]1C=C[C@H]2[C@@H](O)C[C@@H]12	
InChI=1S/C8H12O/c1-5-2-3-6-7(5)4-8(6)9/h2-3,5-9H,4H2,1H3	InChI=1S/C8H12O/c1-5-2-3-6-7(5)4-8(6)9/h2-3,5-9H,4H2,1H3/t5-,6+,7-,8-/m0/s1
