14
gdb 133562	3.31671	1.11718	0.99126	1.5644	56.62	-0.2511	-0.016	0.2351	1148.0629	0.097447	-568.1934	-568.185471	-568.184527	-568.227167	27.928	
F	-0.017637217	 0.0616051635	-0.0467109062	-0.069386
C	-0.0406279993	 1.3965515952	 0.0414193087	 0.231194
F	 1.2311456121	 1.8324097381	-0.0203680512	-0.079821
F	-0.6641486465	 1.868058736	-1.0540701205	-0.079833
C	-0.7099778123	 1.8693165364	 1.2849285847	 0.137707
C	-1.2442154221	 1.1200484182	 2.2402399259	-0.22196
C	-1.8108234761	 2.008404736	 3.3089737533	-0.101913
O	-1.5484452864	 3.3392142033	 2.8725112101	-0.267958
C	-0.8675842064	 3.3297345997	 1.622265754	-0.158656
H	-1.2791735136	 0.0394543693	 2.2685119664	 0.130601
H	-2.8940626916	 1.8596273157	 3.4399135771	 0.117865
H	-1.3389216974	 1.8312994179	 4.2880541314	 0.117886
H	 0.1026525546	 3.8402898386	 1.7123997368	 0.122146
H	-1.4550122181	 3.8680956622	 0.8638033795	 0.122129
49.6499	99.0177	137.0954	172.1343	325.2525	355.6605	406.232	475.9691	576.8395	605.1002	725.4113	776.1965	857.9761	887.5108	919.2493	969.194	1031.3398	1059.7741	1068.6164	1126.2992	1165.2948	1173.5195	1197.9466	1223.9359	1277.7845	1324.5181	1385.5808	1396.5975	1514.3791	1529.6963	1743.3673	2979.3229	2991.5618	2997.7963	3013.6083	3234.912
FC(F)(F)C1=CCOC1	FC(F)(F)C1=CCOC1	
InChI=1S/C5H5F3O/c6-5(7,8)4-1-2-9-3-4/h1H,2-3H2	InChI=1S/C5H5F3O/c6-5(7,8)4-1-2-9-3-4/h1H,2-3H2
