20
gdb 107884	3.47245	1.25306	1.0952	1.0873	79.35	-0.2203	0.0674	0.2877	1199.2984	0.169005	-403.035054	-403.026473	-403.025529	-403.068198	32.993	
C	-0.0086640822	 1.5344866628	-0.0152966579	-0.381971
C	-0.0766166443	 0.0026507698	-0.0243201333	-0.332501
C	-1.4789193733	-0.5137781692	-0.0036579998	 0.489681
O	-2.4026689953	-0.1730270022	-1.0876188741	-0.361729
C	-3.2141178215	-1.0036065118	-0.2146732757	 0.065175
C	-2.0328948371	-1.9636698496	 0.1733853107	-0.131923
N	-2.1659365478	-1.7804058568	 1.649150007	-0.126603
C	-3.2277850782	-2.5561549163	 2.2846912568	-0.320162
C	-2.5778594255	-0.4510299476	 1.1100645501	-0.118409
H	 1.027799841	 1.8781589924	-0.0761680197	 0.113621
H	-0.5591719321	 1.9506919118	-0.8633832127	 0.138654
H	-0.4456500196	 1.9428387272	 0.9016199194	 0.118392
H	 0.425097275	-0.3925327123	-0.9161137078	 0.112549
H	 0.4395073795	-0.4174300712	 0.8467768197	 0.124149
H	-4.2456036684	-1.1916010809	-0.5103580985	 0.097322
H	-1.7031064453	-2.8910134147	-0.2981798343	 0.086605
H	-2.8966571888	-3.5933847229	 2.4000944092	 0.121803
H	-3.4178203514	-2.1543911812	 3.2853328664	 0.121671
H	-4.1820206832	-2.560910325	 1.7305303167	 0.09651
H	-2.8879987614	 0.3889316276	 1.7337768878	 0.087164
76.0779	146.3446	177.1132	217.85	224.4301	290.1642	310.9203	380.6453	543.4663	585.3007	646.8188	733.8629	759.7017	768.5304	777.5117	842.784	849.1287	896.8125	920.1133	970.277	989.9651	1028.1138	1088.4924	1091.8473	1108.2292	1142.2273	1147.8173	1149.7198	1169.1434	1175.2588	1207.4609	1253.1348	1284.3506	1303.6607	1344.2415	1407.3246	1419.8187	1449.5412	1469.1921	1492.2809	1495.8275	1497.0175	1507.6633	2959.198	3033.2616	3042.2943	3063.3636	3073.2555	3099.8169	3104.5313	3105.9382	3111.067	3122.5258	3129.0859
CCC12OC3C1N(C)C23	CC[C@@]12O[C@H]3[C@@H]1N(C)[C@@H]23	
InChI=1S/C7H11NO/c1-3-7-5-4(9-7)6(7)8(5)2/h4-6H,3H2,1-2H3	InChI=1S/C7H11NO/c1-3-7-5-4(9-7)6(7)8(5)2/h4-6H,3H2,1-2H3/t4-,5-,6+,7+
