19
gdb 96899	3.15672	1.24136	1.04075	3.7347	79.62	-0.2248	0.0154	0.2402	1223.0884	0.158311	-419.170729	-419.161757	-419.160813	-419.204427	33.174	
C	-0.0311213985	 1.3779340529	 0.274508872	-0.340542
N	 0.0009292606	-0.0763792429	 0.2553228586	-0.327199
C	-1.0709623099	-0.6823975256	-0.0075217073	 0.436833
N	-2.4092394195	-0.2997256099	-0.245892094	-0.396137
C	-2.8706700197	-1.6732946559	-0.5221614583	 0.306128
C	-4.1496069669	-2.090652656	 0.1602702513	-0.477279
C	-2.5545622408	-2.1764885273	-1.9509421931	-0.113811
O	-1.2134413732	-2.5588505435	-1.5775622451	-0.282932
C	-1.4144817151	-2.1524106455	-0.204925554	-0.076326
H	 0.7370906673	 1.7477370518	 0.9597764955	 0.126814
H	 0.202035329	 1.7832558561	-0.7197123613	 0.121067
H	-1.0003878315	 1.7932892978	 0.5910675608	 0.101982
H	-2.696388442	 0.5140965617	-0.7744813788	 0.238333
H	-5.012063995	-1.5802250119	-0.2851659383	 0.122813
H	-4.3125223223	-3.1679926689	 0.0607072718	 0.127772
H	-4.1214007221	-1.8349697908	 1.2228749987	 0.133486
H	-3.1398226429	-3.05010124	-2.2652494725	 0.1051
H	-2.5769550043	-1.419244726	-2.7442584029	 0.098589
H	-1.1025326232	-2.9039238261	 0.520754087	 0.095308
91.425	101.0232	175.5139	188.3247	210.4284	245.9442	328.6089	352.8775	401.3023	492.9476	506.3997	623.4937	709.4761	742.302	819.6011	855.9151	929.367	964.1776	993.5314	996.2859	1020.6107	1047.3062	1112.0152	1127.2082	1146.262	1154.3581	1167.9592	1193.1918	1252.4052	1272.9933	1291.2197	1337.8636	1372.4302	1414.06	1435.1423	1486.512	1488.5963	1491.4099	1506.7879	1512.3209	1814.5203	2979.053	3010.2964	3031.6736	3039.7567	3059.1519	3091.1074	3096.3744	3118.3128	3121.5073	3568.9832
CN=C1NC2(C)COC12	CN=C1N[C@@]2(C)CO[C@@H]12	
InChI=1S/C6H10N2O/c1-6-3-9-4(6)5(7-2)8-6/h4H,3H2,1-2H3,(H,7,8)	InChI=1S/C6H10N2O/c1-6-3-9-4(6)5(7-2)8-6/h4H,3H2,1-2H3,(H,7,8)/t4-,6-/m0/s1
