20
gdb 93972	2.98604	1.20412	0.88008	5.8526	90.75	-0.1943	-0.0227	0.1716	1323.9222	0.170516	-403.185214	-403.17566	-403.174716	-403.21961	34.338	
C	-0.054696228	 1.4058519915	 0.0953350002	-0.338392
N	 0.0388146865	-0.0063673259	-0.1878233095	-0.084008
C	-1.1456642986	-0.8499728709	 0.0333405327	-0.177501
C	-0.6145252371	-2.2901063502	-0.1325073132	-0.323166
C	 0.8852865747	-2.1028423032	-0.0104637705	 0.074401
C	 1.8025743092	-3.2031690318	 0.0625669696	 0.050084
O	 1.4695448472	-4.37899004	 0.0693609773	-0.321325
C	 1.1747228167	-0.7678560451	-0.0604274078	 0.302993
C	 2.5183742711	-0.1108870169	-0.0299400845	-0.508158
H	 0.8609132386	 1.9206096266	-0.2004605518	 0.137807
H	-0.882575868	 1.8394738862	-0.4752355314	 0.13488
H	-0.2399849766	 1.609922586	 1.1632073224	 0.119086
H	-1.5341695481	-0.6744404607	 1.049123455	 0.102284
H	-1.938518005	-0.587133342	-0.6740122241	 0.112773
H	-1.0163900193	-2.9765505609	 0.6162114052	 0.126761
H	-0.8764272149	-2.7054438795	-1.1131417143	 0.11904
H	 2.8807258256	-2.9298960396	 0.1253468747	 0.035996
H	 3.3148578634	-0.8537589698	-0.0064435525	 0.151605
H	 2.6640813352	 0.5178922183	-0.9155577344	 0.143783
H	 2.6271256173	 0.5338351378	 0.8495255169	 0.141057
85.4662	125.19	150.3652	179.3239	191.3919	198.9308	224.0503	315.7026	342.8095	369.4833	502.653	587.512	618.9374	637.0422	765.2093	815.4839	912.2067	979.1276	1006.7442	1020.9347	1058.66	1071.5731	1081.578	1141.7047	1156.3607	1198.0707	1235.4321	1251.4096	1294.4867	1329.3957	1376.0952	1413.6018	1432.6985	1447.6006	1467.7205	1474.7766	1484.8283	1492.9995	1494.3812	1511.4007	1542.563	1650.3367	1739.2351	2854.8539	2966.4089	2975.9944	3032.148	3035.6127	3067.7836	3068.3237	3086.254	3097.4345	3132.8058	3154.9583
CN1CCC(C=O)=C1C	CN1CCC(=C1C)C=O	
InChI=1S/C7H11NO/c1-6-7(5-9)3-4-8(6)2/h5H,3-4H2,1-2H3	InChI=1S/C7H11NO/c1-6-7(5-9)3-4-8(6)2/h5H,3-4H2,1-2H3
