23
gdb 104293	2.70612	1.31977	1.15671	1.3124	84.04	-0.2549	0.0671	0.3221	1192.8332	0.206897	-388.293438	-388.28443	-388.283486	-388.326473	35.998	
C	-0.5678936377	 1.6423144153	 0.1625475881	-0.45707
C	 0.0075019929	 0.2237368029	 0.0530367444	 0.278625
C	-1.1342666232	-0.7953996186	-0.1609104797	-0.094694
O	-1.8677320742	-0.599344399	-1.3605875411	-0.426251
C	 1.0496883411	 0.1002101832	-1.0932756302	-0.262117
C	 2.0394033922	-1.0057280118	-0.6584253976	-0.226994
C	 2.0189923717	-0.9709174036	 0.8634048544	-0.024386
C	 2.1561730418	 0.3778561673	 1.5248747619	-0.314455
C	 0.7844735204	-0.2105199968	 1.2975204125	-0.040257
H	 0.2202589936	 2.3662968935	 0.3893316305	 0.118275
H	-1.0378003953	 1.9587457866	-0.7761207386	 0.105927
H	-1.3192128775	 1.7097996162	 0.9587338879	 0.10623
H	-0.7188500961	-1.805865673	-0.2332666722	 0.109251
H	-1.8020367828	-0.7815847253	 0.7159870932	 0.081443
H	-2.3608966388	 0.2220720846	-1.2759539703	 0.283758
H	 0.5561282999	-0.1202766988	-2.042722823	 0.112681
H	 1.5748111172	 1.0520970535	-1.2228323138	 0.091175
H	 1.6974837936	-1.9883134874	-1.0039296891	 0.101538
H	 3.0389730998	-0.8531383827	-1.0802807756	 0.09442
H	 2.3593129213	-1.844381246	 1.4090768262	 0.07741
H	 2.5187653627	 0.3940300615	 2.5470739937	 0.107217
H	 2.4792969977	 1.2298811282	 0.9345797425	 0.106887
H	 0.2133418396	-0.5165366598	 2.1692424856	 0.071387
108.2173	162.0509	182.6452	234.7199	280.9551	300.6994	320.4867	345.677	376.2691	405.549	506.7822	609.8285	647.1182	739.8124	800.0958	824.7157	836.5335	891.4964	909.6399	941.8086	955.645	971.4914	1004.267	1028.6182	1045.2319	1069.5054	1073.5934	1085.4866	1112.5145	1120.6447	1162.2405	1190.274	1207.5104	1242.4605	1258.1082	1268.1782	1319.6085	1334.4218	1366.9766	1379.8303	1391.0756	1408.819	1421.2853	1486.3466	1491.4513	1496.8241	1499.0055	1509.8328	1516.6395	2969.8888	3020.1762	3033.8593	3048.5675	3068.7791	3074.932	3080.8768	3101.3065	3106.1028	3125.296	3145.4058	3165.3444	3206.921	3826.6864
CC1(CO)CCC2CC12	C[C@@]1(CO)CC[C@H]2C[C@@H]12	
InChI=1S/C8H14O/c1-8(5-9)3-2-6-4-7(6)8/h6-7,9H,2-5H2,1H3	InChI=1S/C8H14O/c1-8(5-9)3-2-6-4-7(6)8/h6-7,9H,2-5H2,1H3/t6-,7+,8-/m0/s1
