14
gdb 49943	2.56125	1.34004	1.01185	3.7735	76.27	-0.2663	-0.0275	0.2388	1149.4887	0.099087	-395.666846	-395.658173	-395.657229	-395.700391	31.181	
N	-0.3404208222	 1.0254881501	-0.6928401998	-0.403167
C	-0.1445180114	-0.1067753873	-0.1610762794	 0.054095
N	-1.117171205	-0.6988987876	 0.6578886918	-0.084448
C	-2.5128918293	-0.5728277676	 0.3516835486	-0.243519
C	-1.8208640995	-1.9236528917	 0.2236147197	-0.009153
C	-1.5897374576	-2.4661175886	-1.0906465812	 0.295637
C	-1.3780832263	-2.9316874283	-2.1772527896	-0.422587
C	-2.0201415751	-2.9099155429	 1.2710685217	 0.248787
N	-2.199934477	-3.6943461373	 2.0996557087	-0.325508
H	 0.4971816457	 1.3428363366	-1.1790699461	 0.237722
H	 0.7707108901	-0.7041599087	-0.2096203978	 0.120723
H	-3.1768306665	-0.4166312894	 1.1958774379	 0.153196
H	-2.7793320877	-0.0800012244	-0.5787281348	 0.161359
H	-1.2015032481	-3.3420275128	-3.1415249196	 0.216862
89.1383	122.8608	136.7716	168.1816	214.9756	287.4564	331.4355	472.2456	481.5137	545.6076	584.8666	602.2506	628.2823	690.5469	732.743	802.9898	854.0177	912.816	938.129	1054.5806	1068.7568	1127.0381	1148.9042	1225.5059	1248.6166	1371.3521	1407.3577	1493.1654	1709.3835	2245.1655	2366.454	3085.4046	3123.9692	3225.224	3497.5459	3498.9761
N=CN1CC1(C#C)C#N	[NH][CH]N1C[C@]1(C#C)C#N	
InChI=1S/C6H5N3/c1-2-6(3-7)4-9(6)5-8/h1,5,8H,4H2	InChI=1S/C6H5N3/c1-2-6(3-7)4-9(6)5-8/h1,5,8H,4H2/t6-,9?/m0/s1
