15
gdb 133008	2.86855	1.37482	0.93487	1.5742	74.09	-0.2195	-0.0348	0.1847	1170.6294	0.113497	-458.134704	-458.126997	-458.126053	-458.167115	28.671	
C	 0.0193498852	 1.4446287445	 0.0076134456	-0.348133
N	 0.0650044087	-0.0031536538	 0.0030526662	-0.314856
C	-1.0358721479	-0.6499355288	 0.0087429872	 0.408441
N	-2.3227928431	-0.0455534727	 0.0195203412	-0.440504
C	-3.4601924208	-0.7797650123	 0.0251151189	 0.417611
F	-4.5501201671	-0.0314081211	 0.0350620463	-0.058584
N	-3.5531120033	-2.0504273101	 0.0219663244	-0.363889
C	-2.3315722602	-2.7117575123	 0.0115486277	-0.007024
C	-1.1291124874	-2.0959943826	 0.0050627546	-0.166622
H	 1.0380832634	 1.8392060883	 0.0009526295	 0.133824
H	-0.4938334286	 1.8606468287	-0.8765920973	 0.108233
H	-0.4801719705	 1.8553319673	 0.9020526556	 0.108291
H	-2.4031935557	 0.9601095713	 0.0232189689	 0.273573
H	-2.4055638191	-3.7938440137	 0.0088382008	 0.125854
H	-0.1987197436	-2.6472122626	-0.0030353695	 0.123787
119.9942	156.1567	194.2791	202.9697	274.1638	407.5235	443.7472	496.5336	573.1874	573.3125	582.534	705.3998	757.5143	758.2345	848.1252	951.3914	999.0054	1001.2092	1041.0896	1105.6557	1106.0267	1173.8008	1254.4177	1285.6845	1295.9279	1432.2038	1441.3953	1475.482	1509.9078	1513.6767	1616.5471	1694.6767	1737.695	2943.9626	2985.2893	3102.7457	3191.0282	3235.3933	3631.4042
CN=C1NC(F)=NC=C1	C[N]C1=CCN=C(N1)F	
InChI=1S/C5H6FN3/c1-7-4-2-3-8-5(6)9-4/h2-3H,1H3,(H,7,8,9)	InChI=1S/C5H7FN3/c1-7-4-2-3-8-5(6)9-4/h2H,3H2,1H3,(H,8,9)
