17
gdb 88268	3.16216	1.0356	0.93287	1.6753	70.83	-0.2442	-0.0929	0.1513	1316.5791	0.131866	-458.973034	-458.963291	-458.962347	-459.008851	33.738	
C	 0.2496067025	 1.5273082119	-0.6408770131	-0.435854
C	 0.0279773802	 0.1297656655	-0.1296608756	 0.089538
O	 1.1670636657	-0.6871664659	 0.0774371849	-0.235112
C	 0.4075537755	-0.3427282219	 1.2345798914	-0.055363
C	 1.0597773244	 0.5752185094	 2.218997769	 0.258451
O	 2.0094349561	 1.2838931191	 1.9723472418	-0.290037
C	 0.4210362715	 0.6001312159	 3.6289975688	 0.303176
C	 1.0811304983	 1.5090428674	 4.6335534366	-0.474667
O	-0.5525407099	-0.0799220966	 3.8594954275	-0.274029
H	 1.0841467677	 2.0063755444	-0.1276396474	 0.160533
H	 0.4741749839	 1.4921225321	-1.7120372774	 0.135769
H	-0.6563171431	 2.1281569665	-0.5088653267	 0.124271
H	-0.8197090899	-0.4004622128	-0.5695298109	 0.105335
H	-0.1789410124	-1.145059316	 1.6732585345	 0.126227
H	 2.1286071399	 1.2196486649	 4.7665193283	 0.160006
H	 1.0968073819	 2.5365461399	 4.2567679507	 0.158357
H	 0.5477734677	 1.4572472563	 5.5826946575	 0.143399
41.5475	54.1245	105.8024	167.4697	175.0351	215.8065	279.0418	329.204	365.5622	401.6661	465.4866	526.8716	591.2291	725.013	774.668	834.7608	849.8639	909.0226	991.0696	1013.684	1037.4836	1073.1901	1081.5385	1166.2545	1169.5854	1250.7777	1277.8905	1382.6932	1392.8044	1412.7687	1446.4697	1451.6169	1459.0823	1490.1502	1502.8172	1792.8287	1803.4099	3042.7236	3050.1725	3086.9902	3103.4539	3111.3305	3153.6378	3162.0565	3163.7688
CC1OC1C(=O)C(C)=O	C[C@H]1O[C@H]1C(=O)C(=O)C	
InChI=1S/C6H8O3/c1-3(7)5(8)6-4(2)9-6/h4,6H,1-2H3	InChI=1S/C6H8O3/c1-3(7)5(8)6-4(2)9-6/h4,6H,1-2H3/t4-,6-/m1/s1
