20
gdb 65391	3.27196	1.01757	0.91874	3.9156	82.07	-0.2334	-0.0178	0.2156	1338.0709	0.16891	-403.111112	-403.101887	-403.100943	-403.145227	34.587	
C	 0.0592056706	 1.3819972767	-0.41291066	-0.440529
C	 0.1126317591	-0.0736971097	 0.0066538645	 0.319199
C	 1.4367067227	-0.7771233718	 0.0298129296	-0.356014
C	 0.718169549	-0.4795314598	 1.3489586307	-0.131922
C	 1.2911329171	 0.5034421782	 2.2939374373	 0.159994
O	 1.1657458289	 0.4473142461	 3.4931108085	-0.269168
N	-1.1272853488	-0.7341430997	-0.3440512785	-0.10492
C	-1.2398018068	-1.306262346	-1.6853948214	-0.221937
C	-1.2030870632	-2.1808242262	-0.4809086981	-0.233397
H	 0.978251621	 1.9175495148	-0.1660142385	 0.117959
H	-0.0831912501	 1.4458976694	-1.497040795	 0.123271
H	-0.7832763656	 1.8877398604	 0.0670087756	 0.138005
H	 1.5223946336	-1.8193877642	-0.2536135967	 0.124888
H	 2.3200133525	-0.1864370637	-0.193480235	 0.121393
H	 0.2299995342	-1.3162270426	 1.8378038136	 0.110527
H	 1.8832432055	 1.3204184112	 1.8209852919	 0.064172
H	-2.1727287523	-1.112884467	-2.2065742917	 0.121986
H	-0.3506593846	-1.3049371893	-2.3135421116	 0.115451
H	-0.3091635237	-2.7817213453	-0.3327714373	 0.116063
H	-2.1134172891	-2.6306156715	-0.0952367379	 0.124977
74.1273	98.4249	135.6819	209.8167	249.45	265.9034	295.7008	351.8652	390.7035	448.0109	486.3833	572.0568	630.7139	789.7216	821.283	844.686	885.5896	907.0409	925.2019	975.3882	1018.591	1035.2553	1044.9322	1068.6854	1083.8449	1107.1607	1116.9689	1123.806	1172.9597	1181.0151	1182.7944	1219.9274	1303.0243	1326.9971	1371.0468	1416.3933	1446.9371	1473.9371	1483.8365	1497.6588	1506.5487	1525.1107	1813.647	2862.3482	3042.5641	3099.4534	3107.0164	3109.9225	3130.14	3135.2273	3175.1099	3182.9259	3196.9489	3222.2429
CC1(CC1C=O)N1CC1	C[C@]1(C[C@H]1C=O)N1CC1	
InChI=1S/C7H11NO/c1-7(8-2-3-8)4-6(7)5-9/h5-6H,2-4H2,1H3	InChI=1S/C7H11NO/c1-7(8-2-3-8)4-6(7)5-9/h5-6H,2-4H2,1H3/t6-,7+/m0/s1
