22
gdb 82495	2.5922	1.71595	1.39729	1.6585	85.07	-0.2215	0.0774	0.2989	1055.017	0.196066	-367.170844	-367.162926	-367.161982	-367.202681	32.545	
C	-0.2551351782	 1.6220026793	-0.0531688542	-0.440905
C	 0.0251691692	 0.128439899	-0.0213753478	 0.047522
C	 1.1179203085	-0.5625597306	-0.8828514828	-0.025644
C	 2.4072583177	 0.1915702114	-0.5056466951	-0.266167
C	 2.3828991543	-0.2686379777	 0.9710647187	 0.314145
C	 3.1989106925	 0.4731954322	 2.003134395	-0.512506
C	 2.4772326202	-1.7914365317	 0.7357394118	-0.199193
N	 1.0981786352	-1.7231772445	 0.1486121188	-0.158485
C	 0.8178837792	-0.5549964821	 1.0943875063	-0.058488
H	 0.6288349056	 2.2281542408	 0.1623625726	 0.117588
H	-0.6405793024	 1.9290122789	-1.0319967495	 0.118678
H	-1.0149746559	 1.8802799866	 0.6925339627	 0.118504
H	-0.9064105469	-0.4339871179	-0.1447506827	 0.088135
H	 0.948248412	-0.8366582815	-1.9239457259	 0.066609
H	 3.2989149833	-0.1613876699	-1.0325085151	 0.092632
H	 2.3344585397	 1.2715069211	-0.6516109611	 0.094059
H	 2.9082367144	 1.5279645141	 2.0638492663	 0.116432
H	 3.0736915814	 0.0356265339	 2.9997680616	 0.11458
H	 4.2673751681	 0.4400421999	 1.7591131562	 0.11759
H	 3.270289891	-2.1769867731	 0.0850095394	 0.090776
H	 2.429136029	-2.3886788407	 1.6520960288	 0.099036
H	 0.418396772	-0.7817423576	 2.0856950361	 0.0651
151.5009	178.318	203.4147	257.6513	302.5137	311.7581	454.4307	503.8615	534.1133	595.3844	668.0644	703.6289	750.4996	813.6855	841.7455	881.0374	885.1376	925.0676	941.722	968.2591	986.9	1004.9531	1026.565	1054.1702	1074.1046	1087.2047	1141.6519	1148.7041	1153.5668	1178.921	1206.8426	1215.0388	1240.1224	1255.5751	1264.8468	1285.89	1313.0433	1358.6957	1391.5915	1412.63	1413.9917	1489.8965	1492.2843	1494.3245	1497.3744	1504.4472	1528.8541	3021.491	3030.5619	3031.8404	3054.622	3058.6107	3084.6691	3087.053	3087.6359	3090.4491	3091.5039	3101.0519	3112.9057	3116.7447
CC1C2CC3(C)CN2C13	C[C@H]1[C@H]2C[C@]3(C)CN2[C@H]13	
InChI=1S/C8H13N/c1-5-6-3-8(2)4-9(6)7(5)8/h5-7H,3-4H2,1-2H3	InChI=1S/C8H13N/c1-5-6-3-8(2)4-9(6)7(5)8/h5-7H,3-4H2,1-2H3/t5-,6+,7+,8+/m0/s1
