19
gdb 115222	3.98854	1.02006	0.85444	2.7454	72.67	-0.2352	-0.0239	0.2113	1342.7252	0.158623	-460.179779	-460.170916	-460.169972	-460.213724	32.454	
C	-0.0358632992	 1.4108020651	-0.0274504657	-0.244619
O	 0.0068045526	-0.0078023096	-0.0189186815	-0.237466
C	 0.6222807972	-0.5652088477	-1.1227332139	 0.231691
C	 0.7194181135	-2.0724418678	-0.9251493377	-0.232792
C	 1.3363556893	-2.7353360176	-2.1676091809	-0.326827
C	 0.7639368728	-2.207977857	-3.4771235227	 0.381251
O	 0.6318122946	-2.889440408	-4.4646558491	-0.296428
C	 0.4324421039	-0.7128845034	-3.4806564873	-0.178054
O	-0.1669580027	-0.2814758275	-2.2742503186	-0.259541
H	 0.9764066756	 1.836416122	-0.097337809	 0.105863
H	-0.6383359782	 1.7886677462	-0.8596289063	 0.133655
H	-0.4860210971	 1.7167264448	 0.918755521	 0.130997
H	 1.6293548775	-0.1199112697	-1.2766687271	 0.045437
H	 1.3104337412	-2.292958596	-0.0314107846	 0.112861
H	-0.2968647243	-2.4407301266	-0.7526276607	 0.12767
H	 2.4135467345	-2.5113472079	-2.2025889551	 0.128809
H	 1.241484562	-3.8234606644	-2.1541716045	 0.131361
H	 1.3713320398	-0.161162289	-3.6777613765	 0.107446
H	-0.2639364231	-0.500290006	-4.2936398796	 0.138685
67.7328	109.7486	163.239	175.0662	196.9651	285.5339	359.4445	416.7031	426.6635	480.0885	524.4181	548.9272	684.9814	753.7344	806.4365	883.9754	948.2393	981.3096	1032.4302	1070.2029	1110.1635	1112.3641	1161.2643	1180.4241	1189.5749	1206.5822	1236.499	1263.6555	1277.7812	1325.1202	1341.6499	1363.1006	1398.724	1416.3508	1459.7699	1467.8365	1480.2258	1484.5336	1489.4813	1512.5482	1828.04	2866.9834	2933.8144	2995.8795	3007.1452	3055.6222	3080.2737	3102.4422	3109.0795	3120.765	3133.7072
COC1CCC(=O)CO1	CO[C@H]1CCC(=O)CO1	
InChI=1S/C6H10O3/c1-8-6-3-2-5(7)4-9-6/h6H,2-4H2,1H3	InChI=1S/C6H10O3/c1-8-6-3-2-5(7)4-9-6/h6H,2-4H2,1H3/t6-/m1/s1
