18
gdb 5570	3.09446	1.76819	1.2206	1.0827	74.61	-0.1915	0.0547	0.2462	1018.8326	0.155203	-344.023049	-344.01451	-344.013566	-344.056655	31.251	
C	 0.173980429	 1.6203777098	-0.1466078184	-0.358633
C	-0.0942803314	 0.1249165478	 0.0968754705	-0.303535
C	 0.6687143269	-0.4416690587	 1.2589565171	 0.262759
C	 0.1385801901	-0.8115951598	 2.4819553008	 0.141587
N	-1.1709379878	-0.8087524651	 3.0241940305	-0.616785
N	 1.1717350773	-1.2659613357	 3.268647209	-0.239528
C	 2.3519363329	-1.1972537629	 2.5787196083	-0.088481
C	 2.0732882235	-0.6887571832	 1.3314198925	-0.246321
H	 1.2362712195	 1.8008676905	-0.3390160626	 0.11875
H	-0.3935297164	 1.9903113861	-1.0072931945	 0.103603
H	-0.1055746784	 2.2161885598	 0.7284898798	 0.109701
H	-1.1681677461	-0.0250332627	 0.2651761738	 0.077824
H	 0.1497772368	-0.4320859131	-0.8170246697	 0.100665
H	-1.7861607596	-1.4502242928	 2.5335641596	 0.241894
H	-1.5969948246	 0.1102962086	 2.9743235894	 0.242607
H	 1.0397387557	-1.5904820069	 4.2109589348	 0.256932
H	 3.2805781059	-1.5145643709	 3.0249051003	 0.112397
H	 2.7949101267	-0.5158547109	 0.546356609	 0.084563
40.6322	91.4114	152.782	199.8014	252.2022	284.9595	375.515	461.3695	506.7763	617.9409	645.2363	682.0961	712.4161	734.4958	787.5472	801.3109	823.2976	911.9273	969.4188	1036.8583	1076.8703	1090.8948	1108.3111	1191.1266	1207.1491	1261.3384	1280.1015	1325.4825	1358.3836	1405.999	1438.2494	1482.5158	1485.663	1495.779	1499.5417	1510.8397	1617.1398	1662.7134	3014.4139	3030.4895	3046.2984	3099.4871	3106.1634	3233.8614	3266.3945	3498.4536	3564.4109	3680.1667
CCC1=C(N)NC=C1	CCc1c(N)[nH]cc1	
InChI=1S/C6H10N2/c1-2-5-3-4-8-6(5)7/h3-4,8H,2,7H2,1H3	InChI=1S/C6H10N2/c1-2-5-3-4-8-6(5)7/h3-4,8H,2,7H2,1H3
