17
gdb 16537	2.97111	2.28557	1.60688	3.5521	67.85	-0.2369	0.0003	0.2372	845.3815	0.143152	-363.856193	-363.848921	-363.847977	-363.887706	27.275	
C	-0.3790004175	 1.5707169162	 0.0843766395	-0.40752
C	-0.0506640398	 0.0897442498	-0.030861025	-0.134276
C	 0.7624010023	-0.4961225613	-1.2199077607	 0.005676
C	 1.9803973041	 0.2737978616	-1.808576244	-0.254431
C	 2.8958653407	-0.5922015319	-0.8921779357	-0.180186
N	 1.6819838936	-1.1922590882	-0.2434295649	-0.140079
C	 1.1282510914	-0.434799204	 0.8244017334	 0.369805
O	 1.5520263277	-0.2067544189	 1.9209374011	-0.326168
H	 0.4998298247	 2.1985785137	-0.0892870679	 0.124392
H	-1.1536343899	 1.8605984333	-0.6322180701	 0.121893
H	-0.7443890475	 1.7924196042	 1.0912005439	 0.142361
H	-0.9540600244	-0.5092490027	 0.1309634945	 0.110068
H	 0.2203679103	-1.1357995936	-1.919233454	 0.084224
H	 2.1303146485	 0.1479846945	-2.8822350799	 0.11465
H	 1.9982414772	 1.3415633811	-1.5774580642	 0.116985
H	 3.4797825258	-1.349061921	-1.420795991	 0.120034
H	 3.5424120927	-0.0677328329	-0.184555185	 0.132572
102.516	183.2005	189.8724	224.1793	243.8442	440.2445	511.1414	631.8686	665.4589	736.0624	786.5503	798.9213	851.3174	894.4032	953.7741	961.0819	996.12	1022.0043	1060.2631	1108.2721	1134.5066	1161.3902	1183.7401	1208.9348	1230.5764	1245.4979	1258.108	1303.3798	1338.475	1345.3452	1410.282	1479.6037	1494.8547	1498.8201	1509.4875	1881.5495	3041.8371	3048.0267	3065.4255	3072.1637	3087.9457	3111.4853	3114.5044	3116.6214	3133.0166
CC1C2CCN2C1=O	C[C@H]1[C@H]2CCN2C1=O	
InChI=1S/C6H9NO/c1-4-5-2-3-7(5)6(4)8/h4-5H,2-3H2,1H3	InChI=1S/C6H9NO/c1-4-5-2-3-7(5)6(4)8/h4-5H,2-3H2,1H3/t4-,5+/m0/s1
