16
gdb 85586	2.79235	1.46179	1.14492	2.6113	66.7	-0.2706	-0.0086	0.262	1070.2116	0.124512	-475.064657	-475.056495	-475.055551	-475.09774	29.928	
C	 0.075040015	 1.5916808366	 0.2026952649	-0.411305
C	 0.0870478809	 0.0721146898	 0.0262546279	 0.027411
O	 0.7527860301	-0.2989499334	-1.2023343258	-0.225246
C	 2.0953096617	-0.3989851114	-1.2143345263	 0.407907
O	 2.7056194348	-0.5059067879	-2.2401193371	-0.316107
C	 2.7749968682	-0.3704548806	 0.1463147818	-0.237391
O	 1.992485282	-0.9203545795	 1.2060486469	-0.23884
C	 0.6598766994	-0.6571634289	 1.2237656454	 0.39515
N	-0.0959983266	-0.9932743978	 2.1779037966	-0.512424
H	 1.077993473	 1.9968537935	 0.367568641	 0.125722
H	-0.34390162	 2.0599160951	-0.6913623046	 0.144796
H	-0.5443043041	 1.8482634316	 1.0654596229	 0.154897
H	-0.9351533442	-0.2837532549	-0.0994817991	 0.143349
H	 3.6837807919	-0.9684280793	 0.0828401001	 0.165642
H	 3.0632631531	 0.6633142861	 0.38041023	 0.146827
H	 0.4397435649	-1.4383875689	 2.9255791155	 0.229614
74.1793	117.9642	173.5946	221.01	244.0663	371.9999	404.732	430.1501	472.5271	562.3804	612.6229	683.581	741.0477	785.2734	847.4095	905.3296	944.1937	1017.8213	1021.8307	1070.7243	1106.5921	1134.0476	1169.6088	1227.0102	1263.5623	1325.9311	1342.5162	1394.4413	1399.7405	1412.7895	1483.3896	1492.0162	1496.9892	1763.7963	1861.6657	3024.6881	3049.3538	3114.8642	3134.27	3139.7235	3142.661	3472.4338
CC1OC(=O)COC1=N	C[C@H]1OC(=O)CO[C]1[NH]	
InChI=1S/C5H7NO3/c1-3-5(6)8-2-4(7)9-3/h3,6H,2H2,1H3	InChI=1S/C5H7NO3/c1-3-5(6)8-2-4(7)9-3/h3,6H,2H2,1H3/t3-/m1/s1
