19
gdb 74964	2.42848	1.86229	1.4487	2.2609	75.02	-0.234	0.0097	0.2437	992.4402	0.159254	-423.031121	-423.023094	-423.02215	-423.063157	31.678	
C	 0.0393052051	 1.4937818331	 0.0106177501	-0.510391
C	-0.0709565697	 0.0071210217	-0.0310029431	 0.306441
C	-0.1242759403	-0.8331841738	-1.0685017563	-0.208372
C	-0.0266724644	-2.2191147111	-0.4488880968	 0.123494
O	 1.351710617	-2.3957766843	-0.0265746411	-0.276354
C	 1.4577969795	-1.5414051096	 1.1129226402	-0.103305
C	 0.0245746171	-0.9093058863	 1.1998008504	 0.241777
C	-0.4330642126	-0.4049055329	 2.543972002	-0.499339
O	-0.7225171018	-2.0678722175	 0.7657975894	-0.256207
H	 0.9793227992	 1.8121743303	 0.4799537625	 0.130764
H	 0.0066113371	 1.9216415948	-0.9946826882	 0.131684
H	-0.7702267802	 1.9423774898	 0.5991766717	 0.132141
H	-0.0838256657	-0.6074459514	-2.125452932	 0.105951
H	-0.3458325714	-3.0955335064	-1.0086489527	 0.08968
H	 1.6679437843	-2.1409677908	 2.0061286042	 0.102661
H	 2.250286244	-0.7981515219	 0.9723514231	 0.097792
H	 0.1841717509	 0.4375491931	 2.8711566866	 0.123574
H	-1.4736424222	-0.0716458723	 2.498255139	 0.134414
H	-0.3572407458	-1.1976000345	 3.2934738909	 0.133596
153.2303	171.3599	202.6364	230.7354	270.7772	301.1155	400.9178	464.227	528.8465	586.4629	641.3707	670.5151	742.1722	801.1305	832.7858	843.5595	877.0464	892.5988	935.8758	996.0652	1009.6118	1012.6566	1061.3205	1065.2386	1142.7999	1161.0791	1196.588	1215.0125	1264.5674	1279.8902	1322.4057	1324.6004	1368.263	1413.6794	1418.2887	1477.4358	1477.9079	1490.2068	1496.21	1512.3655	1694.016	3017.9824	3025.6909	3044.3272	3064.224	3073.8209	3113.1754	3115.9212	3120.9825	3154.8796	3225.9358
CC1=CC2OCC1(C)O2	CC1=C[C@H]2OC[C@]1(C)O2	
InChI=1S/C7H10O2/c1-5-3-6-8-4-7(5,2)9-6/h3,6H,4H2,1-2H3	InChI=1S/C7H10O2/c1-5-3-6-8-4-7(5,2)9-6/h3,6H,4H2,1-2H3/t6-,7-/m0/s1
