21
gdb 55080	3.77246	1.03327	1.0001	2.724	83.33	-0.2277	-0.0072	0.2206	1315.1555	0.180728	-387.091387	-387.081905	-387.080961	-387.126037	35.296	
C	-0.8376499154	 1.1315353967	 0.0699737652	-0.480621
C	 0.2218892203	 0.0428962736	 0.0834944808	 0.385652
O	 0.848111102	-0.2267621319	 1.0856364994	-0.310714
C	 0.413874257	-0.7163029499	-1.2149961213	-0.089593
C	 1.5867796308	-1.7376010497	-1.3138692994	-0.314149
C	 0.5740359165	-2.8723140971	-1.5575574737	 0.374327
C	 0.7797141998	-3.9946583045	-2.5329741765	-0.499738
C	-0.3700807721	-2.9517522997	-0.3908744617	-0.327589
C	-0.5864937427	-1.8802478679	-1.4313866441	-0.123164
H	-0.5117163693	 1.9566815099	-0.5745186002	 0.138008
H	-1.7769046492	 0.7538348427	-0.3484189297	 0.139143
H	-1.0029556441	 1.5062870098	 1.0807744854	 0.140013
H	 0.3917279321	-0.0220900158	-2.0603489213	 0.079523
H	 2.2238403561	-1.5425854975	-2.1800797442	 0.097753
H	 2.2070504175	-1.8248659244	-0.4189005632	 0.118317
H	 1.5393647385	-4.6982905171	-2.1705792023	 0.122611
H	-0.1448672978	-4.5606681014	-2.6882480738	 0.116362
H	 1.1139158276	-3.6225433148	-3.5085873726	 0.113908
H	-1.0839651297	-3.768838706	-0.4324370293	 0.106867
H	-0.0444748204	-2.6895708341	 0.6121372759	 0.13004
H	-1.5019494474	-1.811848091	-2.0079756433	 0.083044
48.2996	105.0312	121.7351	149.0406	208.7773	259.014	300.3958	364.1604	390.7889	440.3794	572.1011	578.7577	635.3866	703.0051	771.4006	809.4603	880.0638	922.4715	945.9721	954.3963	964.9162	1001.3947	1005.9972	1036.0568	1050.8418	1082.6058	1094.9906	1116.8861	1155.134	1191.6941	1217.7726	1241.5474	1258.4791	1292.9313	1353.4796	1380.2489	1395.4449	1425.2841	1462.9199	1476.489	1476.89	1485.4575	1497.1072	1504.4036	1798.6492	3017.9983	3034.2788	3058.4141	3066.4402	3075.32	3093.3352	3095.6994	3116.2974	3119.4236	3150.8588	3171.3851	3202.6342
CC(=O)C1CC2(C)CC12	CC(=O)[C@H]1C[C@@]2(C)C[C@@H]12	
InChI=1S/C8H12O/c1-5(9)6-3-8(2)4-7(6)8/h6-7H,3-4H2,1-2H3	InChI=1S/C8H12O/c1-5(9)6-3-8(2)4-7(6)8/h6-7H,3-4H2,1-2H3/t6-,7+,8+/m1/s1
