20
gdb 97198	3.56881	1.08622	0.87286	1.6364	79.34	-0.2458	0.0192	0.2651	1364.4921	0.170775	-440.302471	-440.29327	-440.292325	-440.336731	33.673	
C	 0.0010813144	 1.4722273255	 0.1569259696	-0.329085
N	-0.0012251971	 0.0195137762	 0.1222718466	-0.286835
C	-1.0821201359	-0.6086364862	-0.0480765873	 0.376511
C	-1.13101099	-2.1193659749	-0.0339223129	-0.275218
C	-2.1784778551	-2.6676098047	-1.0103923741	 0.111597
C	-2.4454570689	-4.1526916586	-0.845541721	-0.406953
O	-3.4086379981	-1.9722629834	-0.7776297294	-0.235311
C	-3.2637636889	-0.6135502587	-1.0081038432	 0.010139
O	-2.3049417262	 0.0123285344	-0.1534620146	-0.258171
H	 0.8633046151	 1.8355760276	-0.4116964067	 0.120987
H	-0.9117799518	 1.9342713422	-0.2341419606	 0.117529
H	 0.1398715654	 1.8085944839	 1.1918481069	 0.127
H	-0.1320164833	-2.5045057874	-0.2451286506	 0.126838
H	-1.4129233586	-2.4393663265	 0.9778220006	 0.126185
H	-1.8544974971	-2.4603589276	-2.0449106716	 0.075589
H	-2.7948149284	-4.3664731016	 0.1691107856	 0.129749
H	-3.2115737574	-4.4840221741	-1.5513921116	 0.127686
H	-1.5315861469	-4.7260335096	-1.0269479924	 0.12287
H	-2.9664449519	-0.4238240921	-2.0539221817	 0.092212
H	-4.2185349094	-0.1317457842	-0.7914165617	 0.126683
70.742	92.4931	132.919	213.4917	224.8948	267.4271	299.7936	308.5397	395.9292	454.2243	493.0262	582.4103	619.097	741.5625	817.2846	835.4754	919.2153	926.8995	1017.6175	1024.8271	1080.3269	1105.6915	1115.7185	1136.4381	1141.8034	1172.2527	1190.0728	1240.7285	1258.2943	1302.2892	1310.0775	1379.2129	1394.4637	1416.0241	1435.6721	1452.7019	1460.9168	1484.0366	1491.501	1497.2214	1498.6242	1517.337	1776.9997	2952.7142	2959.3913	3018.3577	3031.5067	3044.676	3075.7802	3094.4086	3118.3419	3120.2702	3124.4898	3125.4585
CN=C1CC(C)OCO1	CN=C1C[C@@H](C)OCO1	
InChI=1S/C6H11NO2/c1-5-3-6(7-2)9-4-8-5/h5H,3-4H2,1-2H3	InChI=1S/C6H11NO2/c1-5-3-6(7-2)9-4-8-5/h5H,3-4H2,1-2H3/t5-/m1/s1
