14
gdb 62421	2.44823	1.56987	1.35938	3.1776	68.84	-0.2323	-0.036	0.1962	986.3126	0.098034	-436.598394	-436.589967	-436.589023	-436.631341	31.122	
O	-0.1417515021	 1.4582778909	 0.1148932783	-0.450062
C	-0.0447916929	 0.0627711252	 0.0361274612	 0.141834
C	 0.8747842811	-0.5104393066	 1.0124824489	 0.265879
C	 1.6676849404	-0.9603350492	 1.7967659058	-0.455652
C	-1.399128257	-0.6687409256	 0.0067540232	-0.079428
N	-2.0987523541	-0.2109680968	-1.1918531715	-0.325658
C	-1.1038200461	-1.3344664137	-1.310250072	-0.176074
C	 0.2252219286	-0.6254414332	-1.389273088	 0.388697
O	 1.1653892619	-0.6425411949	-2.1206869256	-0.300693
H	 0.7532105094	 1.8160873824	 0.119213603	 0.295513
H	 2.3642243703	-1.3591973355	 2.4929426625	 0.207021
H	-1.9100615232	-1.0852654187	 0.864193016	 0.120659
H	-3.0194444836	-0.650735659	-1.1977485278	 0.245447
H	-1.3948742428	-2.3045404154	-1.6902230138	 0.122517
104.0626	127.0653	167.9144	182.0465	252.3403	263.6376	383.2828	464.5601	504.3825	567.6488	627.7764	659.4622	682.7853	701.682	760.7645	817.4006	831.4345	907.7092	920.9092	974.6036	1046.5345	1056.9035	1099.0855	1133.6353	1170.0581	1247.7687	1303.8656	1342.8889	1387.0614	1908.1243	2225.3869	3209.3501	3219.9747	3471.2717	3497.4802	3811.2381
OC1(C#C)C2NC2C1=O	O[C@@]1(C#C)[C@H]2N[C@H]2C1=O	
InChI=1S/C6H5NO2/c1-2-6(9)4-3(7-4)5(6)8/h1,3-4,7,9H	InChI=1S/C6H5NO2/c1-2-6(9)4-3(7-4)5(6)8/h1,3-4,7,9H/t3-,4+,6+/m1/s1
