15
gdb 28766	3.30544	1.71964	1.27927	2.6029	71.13	-0.1983	0.0115	0.2098	949.561	0.114626	-416.766486	-416.759745	-416.758801	-416.797469	26.762	
O	-0.0338100701	 1.3941252041	-0.0688727834	-0.425265
C	 0.0170518743	 0.0493340571	 0.0514305525	 0.295953
C	 1.0490155011	-0.8635569074	 0.1505264278	-0.214924
N	 0.5658727798	-2.1651545589	 0.2884327462	-0.309283
C	-0.7229105648	-2.0185618665	 0.1516608838	 0.267347
C	-2.0609858328	-2.4299517811	 0.7255619119	-0.178507
C	-2.2889501876	-1.5544504279	 1.9531894386	-0.273722
C	-2.4430336645	-0.9594092533	 0.5794495751	-0.019843
N	-1.1269585107	-0.7060654297	-0.0476105087	-0.057901
H	 0.8667034878	 1.7339191707	-0.0977267466	 0.310047
H	 2.1089504383	-0.6606937463	 0.091621065	 0.099996
H	-2.6526429403	-3.3060044368	 0.5022896944	 0.116795
H	-3.2153720597	-1.7253629395	 2.4959581667	 0.124596
H	-1.4445933743	-1.2690754571	 2.5723598583	 0.141489
H	-3.3415288163	-0.5065707075	 0.1843906784	 0.123222
148.9064	192.7387	279.9181	310.7151	392.6297	492.8339	560.5623	648.5854	665.0713	729.8016	736.7376	777.1363	797.1103	819.5813	856.7692	949.3958	989.9321	1006.7105	1049.6897	1067.8887	1088.2443	1125.9491	1150.2502	1189.7098	1219.9133	1243.5138	1269.905	1293.6221	1326.0967	1474.6247	1483.6387	1562.2296	1586.517	3119.0273	3208.14	3214.649	3225.6137	3230.3986	3830.2747
OC1=CN=C2C3CC3N12	OC1=C[N][C]2[C@H]3C[C@H]3N12	
InChI=1S/C6H6N2O/c9-5-2-7-6-3-1-4(3)8(5)6/h2-4,9H,1H2	InChI=1S/C6H6N2O/c9-5-2-7-6-3-1-4(3)8(5)6/h2-4,9H,1H2/t3-,4+/m0/s1
