19
gdb 26271	3.44861	1.12432	1.04033	0.6852	84.42	-0.2422	-0.044	0.1982	1247.2922	0.160663	-382.129096	-382.120564	-382.11962	-382.163145	31.638	
C	-0.0247883197	 1.5912499368	 0.2407447371	-0.393429
C	-0.0379474024	 0.0687806633	 0.0144088106	-0.06016
C	 0.8706019133	-0.6545596714	 1.0246515244	-0.393456
C	-1.4482768587	-0.4878552967	 0.0301772137	 0.312886
N	-1.8998972972	-1.0584690905	-1.0924546814	-0.304976
C	-3.1429072638	-1.5453668368	-1.0684063614	-0.019762
C	-3.944815631	-1.4706863913	 0.0643445321	-0.014562
N	-3.5096987783	-0.904384637	 1.1934208269	-0.235722
C	-2.2701037645	-0.420303563	 1.1651795919	-0.042905
H	 0.9955552069	 1.9788970932	 0.1569406774	 0.117636
H	-0.6460352651	 2.1078565363	-0.496882937	 0.123855
H	-0.3972335955	 1.8528674209	 1.2372251978	 0.117284
H	 0.3395465403	-0.1324637059	-0.9933744094	 0.096186
H	 0.5370210173	-0.4901523242	 2.0550977265	 0.117291
H	 0.8854644855	-1.7334801506	 0.8439982811	 0.123841
H	 1.8972297845	-0.2826896583	 0.9462888726	 0.117641
H	-3.5074203384	-2.0086191873	-1.982184656	 0.113839
H	-4.9546298677	-1.8722829071	 0.0666032316	 0.114802
H	-1.9108349554	 0.0417913796	 2.0815247016	 0.109711
26.2386	120.7498	202.8753	221.9978	256.1202	290.1981	306.1754	423.9041	478.141	568.7925	571.663	643.9346	793.2805	799.0173	877.2019	905.138	932.0364	966.1526	973.6029	993.1524	1031.2015	1060.9521	1083.0337	1120.0508	1176.9792	1208.6722	1235.3151	1258.7093	1312.5971	1351.344	1366.722	1397.8733	1420.2719	1436.6539	1486.0241	1490.2811	1501.136	1502.5039	1514.8485	1580.1059	1616.0264	3030.4929	3033.7585	3055.3341	3096.8172	3104.6628	3108.9353	3110.9321	3151.9853	3154.8135	3173.3736
CC(C)C1=NC=CN=C1	CC(C)c1nccnc1	
InChI=1S/C7H10N2/c1-6(2)7-5-8-3-4-9-7/h3-6H,1-2H3	InChI=1S/C7H10N2/c1-6(2)7-5-8-3-4-9-7/h3-6H,1-2H3
