13
gdb 132924	3.211	1.41531	0.9824	5.026	65.28	-0.225	-0.0369	0.188	1072.7882	0.090166	-494.100678	-494.092991	-494.092047	-494.132947	28.628	
N	-0.006875181	 1.3454015422	 0.0600197745	-0.556481
C	-0.0150110302	-0.0065254496	 0.0210166723	 0.328691
N	-1.1613478088	-0.6447776146	 0.0160076044	-0.41523
C	-1.2046557405	-2.0193677395	-0.0002365532	 0.430716
O	-2.214463665	-2.6906402499	-0.003906023	-0.394834
N	 0.0548215017	-2.6828169026	-0.0159613828	-0.354505
C	 1.2494550663	-2.0358870985	-0.0183175033	-0.064346
C	 1.2496808587	-0.6880548382	 0.0011310417	 0.146066
F	 2.3839024137	 0.0332939074	-0.0025056756	-0.088974
H	 0.8528599056	 1.8530405319	-0.0458383777	 0.272696
H	-0.8877446606	 1.8258574849	-0.0125329219	 0.275704
H	 0.0092102001	-3.6903031134	-0.0304229527	 0.268831
H	 2.15858105	-2.6238003701	-0.0357933426	 0.151665
101.8483	154.1025	210.3975	289.3516	336.9267	384.8915	388.6051	483.7325	533.4721	559.7592	605.2592	607.7278	752.4394	757.7678	786.2992	794.26	911.994	912.9291	1076.3223	1176.2327	1209.1328	1288.3447	1340.3207	1432.1092	1519.6042	1573.7001	1628.5668	1726.5217	1811.747	3216.9405	3617.7682	3633.0972	3755.9938
NC1=NC(=O)NC=C1F	Nc1nc(=O)[nH]cc1F	
InChI=1S/C4H4FN3O/c5-2-1-7-4(9)8-3(2)6/h1H,(H3,6,7,8,9)	InChI=1S/C4H4FN3O/c5-2-1-7-4(9)8-3(2)6/h1H,(H3,6,7,8,9)
