21
gdb 120749	3.84256	0.79468	0.7219	1.8056	76.61	-0.2534	0.078	0.3314	1647.0067	0.179736	-461.326866	-461.316501	-461.315557	-461.363022	36.94	
C	-0.3264516099	 1.343374929	 0.0102838914	-0.224227
O	-0.2519761551	-0.0504844632	-0.1702395894	-0.235064
C	 0.8453628162	-0.437221195	-0.970827195	-0.107097
C	 0.8378913126	-1.9393207535	-1.0627723012	 0.05221
O	 0.0545736038	-2.5815513232	-2.0885898078	-0.267713
C	 1.4812391443	-2.7285627568	-2.1230052828	 0.021747
C	 2.1577074641	-2.1625797143	-3.37227471	 0.095822
C	 2.4078217386	-3.275516857	-4.3962677659	-0.395996
O	 1.3864626268	-1.1174136396	-3.9384869625	-0.427848
H	 0.5695351892	 1.7387120125	 0.5159064224	 0.102117
H	-0.4396492676	 1.8749879787	-0.9475576287	 0.107871
H	-1.201273958	 1.5458427021	 0.6327272472	 0.128501
H	 0.8046450118	 0.0177620672	-1.9675145589	 0.118953
H	 1.7946248523	-0.121021292	-0.4999319085	 0.087101
H	 0.7255187232	-2.4195678287	-0.0895295081	 0.103609
H	 1.830876114	-3.7246703901	-1.8452921045	 0.093941
H	 3.120571103	-1.7200309136	-3.0847483682	 0.093711
H	 1.4669711506	-3.7664074307	-4.667931582	 0.124079
H	 2.8488419267	-2.8510540355	-5.3012860305	 0.127144
H	 3.0895805316	-4.0354625221	-3.9991318134	 0.111271
H	 0.463289612	-1.3734767041	-3.7995917833	 0.289868
53.7554	70.6819	86.7514	131.5371	215.0899	234.1897	244.1983	275.3488	291.2154	359.0971	418.1533	482.9351	503.1656	575.2694	647.5148	772.1773	819.6273	911.695	935.9461	990.6393	992.9645	1034.6268	1070.9475	1113.7691	1116.8864	1152.4851	1162.3492	1181.5004	1190.4848	1229.2385	1262.2889	1285.9311	1312.0488	1342.4833	1372.5465	1402.2186	1422.8403	1437.4857	1476.9898	1485.7539	1491.3312	1494.513	1496.4896	1502.4235	1525.8184	2939.0731	2969.2409	3013.2595	3023.9771	3032.9524	3058.0713	3090.8316	3103.1108	3109.4534	3115.8171	3126.3391	3737.3207
COCC1OC1C(C)O	COC[C@H]1O[C@H]1[C@@H](C)O	
InChI=1S/C6H12O3/c1-4(7)6-5(9-6)3-8-2/h4-7H,3H2,1-2H3	InChI=1S/C6H12O3/c1-4(7)6-5(9-6)3-8-2/h4-7H,3H2,1-2H3/t4-,5-,6+/m1/s1
