21
gdb 90347	2.70829	1.56076	1.23599	1.079	84.77	-0.2324	0.0164	0.2488	1103.3136	0.184065	-387.082754	-387.07458	-387.073636	-387.115219	32.35	
C	-0.1522779857	 1.4612368259	 0.2416637311	-0.390415
C	 0.0433201292	-0.0283233031	-0.0065430759	-0.032501
C	 1.2586278333	-0.373695944	-0.9467358963	-0.339363
C	 2.056678193	-0.6072986303	 0.3192833802	 0.306101
C	 3.2424597349	-0.3110608721	 0.8335038046	-0.25182
C	 3.3163317326	-0.2858894784	 2.3454729032	-0.258776
C	 2.0187446198	 0.3387955935	 2.8945936064	-0.066084
O	 0.8337057461	-0.3363928695	 2.4772531835	-0.273152
C	 0.8140583168	-0.788671282	 1.1408298896	 0.082007
H	 0.8026949069	 1.9613345159	 0.4353338266	 0.116558
H	-0.6116492813	 1.9445076564	-0.6268058483	 0.11121
H	-0.7985403947	 1.6285765964	 1.1085598079	 0.12594
H	-0.9045128956	-0.4953000222	-0.2886890858	 0.068375
H	 1.0840705512	-1.2815403464	-1.533161648	 0.108244
H	 1.6075111109	 0.4159747883	-1.6176567838	 0.109127
H	 4.0918209347	 0.0018293567	 0.2332882332	 0.087204
H	 3.4477958414	-1.2910587391	 2.7669237919	 0.114563
H	 4.1661499679	 0.3136632416	 2.689256062	 0.102583
H	 1.9984573574	 0.3000413465	 3.9882337599	 0.102998
H	 1.9850329014	 1.3962995838	 2.5931850164	 0.09271
H	 0.4733876799	-1.8328061978	 1.1655793816	 0.084491
90.5074	168.8654	201.8966	233.9963	291.9154	338.435	374.1032	466.1717	474.3719	522.9979	677.5224	724.1727	771.1569	807.0416	827.8031	857.1531	894.4431	905.7215	960.6235	980.069	1027.2375	1055.331	1067.8023	1076.6119	1087.5732	1122.3108	1153.3345	1167.4198	1196.6279	1227.7528	1255.6749	1265.6039	1291.4115	1331.8393	1342.1806	1364.2983	1374.446	1406.7115	1414.5643	1473.9556	1478.1072	1493.5113	1499.0355	1509.4583	1764.8698	2989.5843	3003.5303	3021.8485	3033.3372	3045.3033	3062.1873	3072.9596	3075.5798	3097.3466	3100.8064	3108.7652	3167.1105
CC1CC2=CCCOC12	C[C@H]1C[C]2[CH]CCO[C@@H]12	
InChI=1S/C8H12O/c1-6-5-7-3-2-4-9-8(6)7/h3,6,8H,2,4-5H2,1H3	InChI=1S/C8H12O/c1-6-5-7-3-2-4-9-8(6)7/h3,6,8H,2,4-5H2,1H3/t6-,8-/m0/s1
