19
gdb 36599	5.26757	0.83002	0.81609	1.2763	83.04	-0.2535	0.0346	0.288	1455.29	0.15814	-385.793393	-385.784893	-385.783949	-385.827429	32.353	
C	 0.0722233549	-1.1543989258	-0.0057050398	-0.415934
C	 0.0601052507	 0.0461510948	 0.0016355757	 0.278681
C	 0.0080394474	 1.5012485683	 0.0109492934	-0.243809
O	 1.3276112717	 2.0294565702	-0.0002992618	-0.299184
C	 1.3731719793	 3.4083805721	 0.0072478305	 0.473558
C	 0.8542831457	 4.3987370679	 1.1031324942	-0.28352
C	 1.5596582726	 5.2587940602	 0.0159594833	-0.052614
C	 2.6994819881	 4.1969105082	-0.0032201684	-0.275194
C	 0.8296310841	 4.4114274033	-1.0648915596	-0.283521
H	 0.090345929	-2.2161536493	-0.0122038741	 0.20062
H	-0.5540761668	 1.858938172	-0.865778489	 0.126878
H	-0.5347490011	 1.8483065415	 0.9039814291	 0.126871
H	-0.2277668625	 4.5254136424	 1.1957315951	 0.089856
H	 1.3426619794	 4.3437175427	 2.0794281606	 0.095845
H	 1.6750056845	 6.3394903374	 0.0209696255	 0.08412
H	 3.317144657	 4.1216097231	 0.8951330535	 0.095822
H	 3.2965484414	 4.1322113934	-0.9162052368	 0.09582
H	 1.29568214	 4.3679175297	-2.0526160849	 0.095845
H	-0.2542269853	 4.5390384579	-1.1313732466	 0.08986
43.4203	79.2632	112.3084	221.2185	328.4399	379.1367	388.5798	471.6565	552.9202	555.3277	609.8447	676.7284	708.5718	772.9388	800.1881	889.6227	940.9958	951.1887	958.3846	970.0602	986.8486	988.5926	1030.9256	1065.5935	1092.1646	1099.9639	1134.1467	1139.6543	1161.6974	1182.3373	1226.5769	1231.6769	1238.0211	1253.1636	1300.8107	1412.7785	1494.5036	1496.9762	1500.3195	1556.8406	2249.4813	2977.3807	3001.925	3048.8373	3052.1406	3060.6442	3116.3702	3120.966	3126.0058	3151.101	3506.316
C#CCOC12CC(C1)C2	C#CCO[C@@]12C[C@@H](C1)C2	
InChI=1S/C8H10O/c1-2-3-9-8-4-7(5-8)6-8/h1,7H,3-6H2	InChI=1S/C8H10O/c1-2-3-9-8-4-7(5-8)6-8/h1,7H,3-6H2/t7-,8-
