17
gdb 23472	3.06431	1.35813	1.03289	1.8643	72.7	-0.2399	0.0016	0.2415	1134.3893	0.137503	-455.071617	-455.063863	-455.062918	-455.104014	29.957	
O	-0.048026375	 1.3302708485	 0.021139806	-0.393102
N	 0.0425913744	-0.0691309465	 0.0633868187	-0.220402
C	-1.1027624129	-0.6317864692	 0.0244990589	 0.431324
C	-2.4530543989	 0.0496981875	 0.0079615474	-0.193513
O	-3.3156026375	-0.5690426009	 0.9513755873	-0.247789
C	-3.6466371673	-1.9069503537	 0.6223431941	-0.075456
C	-2.4273807717	-2.7824472284	 0.3491893161	-0.058207
N	-1.9224538204	-2.745573881	-1.0300236386	-0.338954
C	-1.1280976296	-2.1127278743	 0.0535594883	-0.11943
H	 0.8733101663	 1.5947415922	 0.1110861324	 0.308401
H	-2.3533842951	 1.0926176788	 0.305897401	 0.142388
H	-2.880835798	 0.0072588509	-1.0062797943	 0.118329
H	-4.2011116424	-2.2895440374	 1.4838858658	 0.110917
H	-4.306336786	-1.9341091914	-0.2590765512	 0.102455
H	-2.3891891614	-3.7301559342	 0.8804894517	 0.095872
H	-1.4978812669	-3.6345632994	-1.2816907809	 0.237795
H	-0.2010920076	-2.5865193414	 0.3603005373	 0.099371
75.9082	172.4168	226.8545	284.5483	343.1671	373.8432	424.3884	437.1792	470.1667	580.0872	614.0601	737.7868	777.5803	822.5417	887.3029	914.1402	935.0578	971.49	982.0926	1020.3283	1028.8467	1115.768	1125.5374	1161.3328	1202.2108	1248.2968	1255.3377	1293.9722	1323.0221	1359.6566	1366.7731	1411.212	1416.1453	1458.3861	1479.5026	1489.7464	1737.3829	2983.7797	2986.0833	3087.0717	3137.0792	3144.4184	3165.9867	3504.0659	3824.0922
ON=C1COCC2NC12	ON=C1COC[C@H]2N[C@@H]12	
InChI=1S/C5H8N2O2/c8-7-4-2-9-1-3-5(4)6-3/h3,5-6,8H,1-2H2	InChI=1S/C5H8N2O2/c8-7-4-2-9-1-3-5(4)6-3/h3,5-6,8H,1-2H2/t3-,5-/m1/s1
