14
gdb 88930	3.36358	0.96329	0.90552	3.7497	65.41	-0.266	-0.078	0.188	1287.4524	0.098483	-473.819247	-473.81039	-473.809446	-473.854422	30.678	
O	-0.2955054648	 1.2630979221	-0.4059365942	-0.418039
C	-0.1505744653	-0.0711508451	-0.0493808023	 0.132018
C	-0.3874561691	-0.5540949376	 1.3639225638	-0.374029
C	-1.3569237514	-0.9163594297	 0.2717903838	 0.064051
O	-2.5847738509	-0.1918303916	 0.3356049379	-0.241552
C	-3.4543447248	-0.418598431	-0.6592087936	 0.366689
O	-3.3358616427	-1.1993570258	-1.5596648157	-0.31824
C	-4.6325175428	 0.4376777006	-0.4830108466	 0.251301
N	-5.577234841	 1.0956060895	-0.3929790263	-0.299973
H	-1.1102822854	 1.6008333146	-0.0172420844	 0.294168
H	 0.642812676	-0.5322112635	-0.6272640271	 0.12862
H	 0.2349186861	-1.3400908647	 1.776684084	 0.135539
H	-0.729171029	 0.1826867608	 2.0839927186	 0.138464
H	-1.472499955	-1.9265440886	-0.098217168	 0.140983
26.9537	64.5362	127.9125	211.1215	240.9059	249.1886	326.9067	349.857	447.4536	498.6746	607.4536	652.6694	769.1563	775.673	789.6722	854.0251	918.7206	993.4098	1040.7509	1079.4278	1109.9609	1121.914	1147.5418	1218.5874	1252.4461	1331.187	1368.6004	1431.8232	1479.2561	1827.4347	2361.4893	3135.3775	3180.0049	3203.6252	3227.4858	3808.006
OC1CC1OC(=O)C#N	O[C@H]1C[C@H]1OC(=O)C#N	
InChI=1S/C5H5NO3/c6-2-5(8)9-4-1-3(4)7/h3-4,7H,1H2	InChI=1S/C5H5NO3/c6-2-5(8)9-4-1-3(4)7/h3-4,7H,1H2/t3-,4+/m0/s1
