16
gdb 18590	4.3548	1.78601	1.40935	1.8846	67.73	-0.2282	0.005	0.2332	874.4494	0.130996	-383.700435	-383.693464	-383.692519	-383.731525	26.653	
O	-0.2777117939	 1.4017497182	-0.0539812868	-0.42181
C	 0.006660129	 0.0314779348	 0.0204739426	 0.044944
C	 0.2072133353	-0.659936523	 1.4352575939	-0.301188
C	-0.6805624818	-1.847953725	 0.9146357389	 0.094879
O	-1.8148977451	-2.3337025781	 1.6054622913	-0.279636
C	-2.9867604874	-1.9167427632	 0.876363084	-0.106895
C	-2.5127803106	-0.825863292	-0.0716217409	-0.224583
C	-1.1873869967	-0.8754880331	-0.1036328751	 0.197526
H	 0.5543089704	 1.8846539543	-0.0680710842	 0.287863
H	 0.8282421572	-0.2486395675	-0.6543232862	 0.081133
H	 1.2313623407	-0.885059815	 1.7439041412	 0.095813
H	-0.3188489753	-0.0866194469	 2.2003968703	 0.123393
H	-0.0652595825	-2.6843345713	 0.5571868885	 0.077292
H	-3.4373930136	-2.7847522347	 0.3688154219	 0.104454
H	-3.7288429079	-1.5314295821	 1.5881076995	 0.113116
H	-3.1669346279	-0.0666952655	-0.479205439	 0.113698
139.7206	143.4929	240.5874	267.7041	347.8969	423.5767	509.0856	654.6594	672.6881	733.9495	802.9417	814.8006	875.8591	921.3255	948.5868	975.5561	1013.4748	1032.1582	1036.0378	1106.6645	1125.4224	1155.7397	1181.055	1197.4307	1208.4813	1242.7599	1275.4093	1304.7351	1346.24	1381.576	1441.6834	1464.4745	1516.5929	1733.4092	2973.4969	2995.0998	3011.366	3029.1527	3062.1326	3144.1588	3224.3452	3825.0289
OC1CC2OCC=C12	O[C@H]1C[C@H]2OC[CH][C]12	
InChI=1S/C6H8O2/c7-5-3-6-4(5)1-2-8-6/h1,5-7H,2-3H2	InChI=1S/C6H8O2/c7-5-3-6-4(5)1-2-8-6/h1,5-7H,2-3H2/t5-,6+/m0/s1
