19
gdb 109979	2.21853	1.3695	0.94173	4.024	77.	-0.2369	0.0242	0.2611	1258.8932	0.159059	-419.189348	-419.17989	-419.178946	-419.224235	33.949	
C	 0.0809200089	 1.5975425968	 0.2679107358	-0.335588
N	 0.1267567026	 0.1539533304	 0.1295641153	-0.084466
C	-1.1498960334	-0.5740215422	 0.2368799554	-0.16822
C	-0.4561185749	-1.6549005429	 1.1213375414	-0.21768
C	-0.166784826	-2.9103897283	 0.4479678315	 0.292352
N	 0.0513884275	-3.9127731322	-0.0860304007	-0.333252
C	 0.7279251219	-0.632281567	 1.229494899	 0.036872
C	 2.1548074665	-1.0911083341	 0.9502232529	-0.091758
O	 2.9850681841	 0.0206510355	 0.6546570997	-0.417577
H	 1.0975110003	 1.9899727808	 0.3477759624	 0.133333
H	-0.3947531566	 2.0410822561	-0.6129484458	 0.126667
H	-0.4811021076	 1.9235576376	 1.1632500502	 0.096939
H	-1.9191713724	-0.030873041	 0.8064150383	 0.100488
H	-1.5752879809	-0.9092268397	-0.7129723487	 0.12903
H	-0.9595959117	-1.8685397164	 2.064921133	 0.13188
H	 0.6835309344	-0.1034822485	 2.1943692734	 0.07629
H	 2.5781153162	-1.5794678122	 1.8344557505	 0.114753
H	 2.1571152673	-1.8192061184	 0.1286957151	 0.116387
H	 2.7288440139	 0.3236422157	-0.2232217488	 0.293548
52.8227	80.0382	129.2697	184.5105	212.6318	246.6416	277.7309	337.5244	386.0521	422.0966	473.7035	514.9782	598.4755	741.6358	805.7412	814.8116	895.4205	978.1546	1016.4074	1032.8651	1069.2587	1096.6833	1109.2996	1140.7072	1161.6624	1181.3798	1209.7247	1237.1399	1253.8188	1275.8373	1323.7936	1344.6913	1366.6791	1406.0986	1425.7587	1450.9696	1490.2418	1496.1805	1503.2263	1517.1222	2352.7106	2933.665	2979.9736	2989.7614	3023.5174	3068.0753	3083.2413	3084.2745	3108.0386	3122.4907	3811.317
CN1CC(C#N)C1CO	CN1C[C@@H](C#N)[C@H]1CO	
InChI=1S/C6H10N2O/c1-8-3-5(2-7)6(8)4-9/h5-6,9H,3-4H2,1H3	InChI=1S/C6H10N2O/c1-8-3-5(2-7)6(8)4-9/h5-6,9H,3-4H2,1H3/t5-,6-/m1/s1
