18
gdb 59290	2.68724	1.43411	1.17158	2.6457	72.86	-0.2203	-0.0081	0.2123	1104.4746	0.147712	-439.130166	-439.121488	-439.120544	-439.163619	32.926	
C	-0.0011659669	 1.103896901	 1.1487303756	-0.421459
C	-0.1073445635	 0.3993774528	-0.2050650399	 0.132675
O	 0.9046898576	-0.5840535182	-0.3652462626	-0.438774
C	-1.5180613731	-0.2103423326	-0.4359714164	-0.174547
C	-1.8904893989	-0.5392564958	-1.8603208054	-0.148332
C	-2.255243442	-1.8214260675	-1.9295053317	-0.028417
N	-2.1678890415	-2.4393279526	-0.667879219	-0.321997
C	-1.6455714864	-1.5756505226	 0.2699192379	 0.414401
O	-1.3099384461	-1.8690255247	 1.4000476367	-0.390091
H	 1.0144007889	 1.4843018405	 1.2884260153	 0.120252
H	-0.6988708196	 1.9458112499	 1.2112187749	 0.109352
H	-0.2354834676	 0.4051913405	 1.9574494981	 0.146865
H	 0.0750081511	 1.1232126695	-1.0075771216	 0.089735
H	 0.8505194822	-1.1663884256	 0.4031864001	 0.290908
H	-2.2623780188	 0.4670609643	 0.0063705833	 0.115856
H	-1.8921777805	 0.1672777033	-2.6765252682	 0.110218
H	-2.6033635509	-2.3964023334	-2.7754037015	 0.131733
H	-2.235121694	-3.4299875788	-0.4998301156	 0.261623
63.8859	103.7178	174.676	220.5602	265.3206	328.952	387.7787	452.26	464.7459	487.9555	534.212	583.7173	666.3124	706.3661	729.4995	816.8571	863.5241	901.0481	903.6471	948.664	1029.8382	1048.2433	1073.287	1089.2329	1126.195	1144.9111	1200.599	1234.4156	1256.8488	1325.3049	1350.9828	1380.3791	1401.7193	1406.4805	1435.5582	1490.4407	1508.0763	1670.6233	1807.6722	3014.8756	3037.1027	3044.7181	3109.2737	3126.2647	3234.3364	3257.2888	3654.4227	3775.4369
CC(O)C1C=CNC1=O	C[C@@H](O)[C@H]1C=CNC1=O	
InChI=1S/C6H9NO2/c1-4(8)5-2-3-7-6(5)9/h2-5,8H,1H3,(H,7,9)	InChI=1S/C6H9NO2/c1-4(8)5-2-3-7-6(5)9/h2-5,8H,1H3,(H,7,9)/t4-,5-/m1/s1
