22
gdb 109435	1.77162	1.60958	1.09111	3.8843	83.77	-0.2369	0.0399	0.2768	1256.4654	0.192272	-404.391347	-404.381104	-404.38016	-404.426758	37.746	
C	 0.0115622869	 1.5031694122	 0.1166482481	-0.376064
C	-0.053654978	-0.0030194838	-0.1596703761	-0.167299
N	 0.6936772242	-0.4262733589	-1.3241038473	-0.088149
C	 0.2497399347	-0.8649273524	-2.5454667942	 0.415393
O	-0.8557498911	-0.9325625741	-3.0214691848	-0.385118
C	 1.6825062892	-1.2248092676	-2.985719169	-0.441685
C	 2.1242516817	-0.7583039174	-1.5595609783	 0.317626
C	 3.0563467879	 0.4532350132	-1.5408341672	-0.433713
C	 2.6354489165	-1.8791047001	-0.6542452299	-0.433944
H	 1.0343730467	 1.8306098633	 0.3247882246	 0.119332
H	-0.3592801367	 2.0679332646	-0.7433690028	 0.133334
H	-0.6054650943	 1.7547103452	 0.985297976	 0.117821
H	 0.2952278579	-0.5639439626	 0.7172690112	 0.106737
H	-1.0904520466	-0.3037648807	-0.343547929	 0.139645
H	 1.8336494238	-2.2849117414	-3.1994603593	 0.124848
H	 2.066780457	-0.6255226968	-3.8136567993	 0.123996
H	 2.6609161436	 1.2601213057	-2.1642531826	 0.122266
H	 3.1887648683	 0.8386022683	-0.5241816645	 0.118763
H	 4.0460038647	 0.1773905313	-1.9201737258	 0.121329
H	 3.6356568074	-2.1969063432	-0.9657578904	 0.12366
H	 2.7056472782	-1.5456139313	 0.387018727	 0.118327
H	 1.9711596179	-2.7476194335	-0.6907462163	 0.122894
43.6188	98.6186	100.2628	189.0664	227.9976	253.5187	277.9185	286.3285	318.5943	341.2855	392.6265	470.3834	540.7774	580.0286	621.4875	690.0763	770.2184	818.7253	901.6305	939.4234	950.79	967.9844	994.3119	1016.6691	1077.2417	1080.423	1105.1433	1168.7648	1199.7901	1210.4376	1264.9577	1281.3782	1340.5753	1388.5239	1400.9147	1406.0898	1412.3182	1417.9347	1463.0375	1473.1081	1479.4369	1486.3835	1493.2312	1500.4372	1501.936	1507.7395	1868.9335	3019.5764	3029.4189	3034.905	3040.7376	3078.7465	3079.8975	3095.2397	3101.1863	3111.1922	3112.3461	3114.711	3122.8072	3135.7766
CCN1C(=O)CC1(C)C	CCN1C(=O)CC1(C)C	
InChI=1S/C7H13NO/c1-4-8-6(9)5-7(8,2)3/h4-5H2,1-3H3	InChI=1S/C7H13NO/c1-4-8-6(9)5-7(8,2)3/h4-5H2,1-3H3
