18
gdb 61782	2.06128	1.30715	0.84068	3.7053	76.18	-0.2544	0.0182	0.2726	1347.7894	0.143604	-439.040811	-439.03031	-439.029365	-439.076988	36.982	
C	 0.1113280693	 1.7808102287	-0.0085469066	-0.399421
C	-0.0217969653	 0.2682190657	 0.0844093936	 0.083193
O	-1.41151882	-0.052894423	 0.1471862712	-0.187287
C	-1.825339945	-0.9658795572	 1.0498968826	 0.133524
N	-3.041457432	-1.2972010708	 1.0961858725	-0.445354
C	 0.5935344504	-0.4430956025	-1.1511711731	-0.038865
O	 1.9414871298	-0.031343671	-1.353660122	-0.415908
C	 0.4858340163	-1.8975971284	-1.0402489441	 0.276561
C	 0.4526049421	-3.0918296616	-0.905295116	-0.431927
H	 1.1593233858	 2.058259965	-0.1330748359	 0.137786
H	-0.4551530659	 2.1563390514	-0.8661158625	 0.134502
H	-0.2841257981	 2.2505699913	 0.8954561075	 0.123982
H	 0.4874177975	-0.105567303	 0.9843216046	 0.081912
H	-1.018996681	-1.3379137464	 1.6954887462	 0.087938
H	-3.185681056	-1.9769797182	 1.8397375754	 0.227608
H	 0.0369256765	-0.1006039082	-2.0317147955	 0.133764
H	 2.5037071666	-0.5904266403	-0.8064048207	 0.290577
H	 0.4041867689	-4.1491950815	-0.8132068374	 0.207415
53.7421	56.4492	118.6868	141.9134	200.5539	207.9422	249.1818	266.1401	280.5531	352.707	385.222	480.0016	532.4638	578.7851	641.4191	650.3352	679.2254	812.857	864.5319	910.6733	976.8789	1035.6543	1054.9266	1086.8326	1120.8955	1135.7767	1146.3653	1249.1071	1288.999	1302.3246	1362.5962	1367.6015	1405.0927	1414.1378	1425.9733	1487.7076	1494.6136	1742.6071	2232.7715	3002.7105	3031.1637	3049.4096	3052.8402	3123.8753	3148.2725	3500.6582	3519.3246	3812.5769
CC(OC=N)C(O)C#C	C[C@@H](O[CH][NH])[C@@H](O)C#C	
InChI=1S/C6H9NO2/c1-3-6(8)5(2)9-4-7/h1,4-8H,2H3	InChI=1S/C6H9NO2/c1-3-6(8)5(2)9-4-7/h1,4-8H,2H3/t5-,6+/m1/s1
