21
gdb 38752	2.28832	2.23917	1.77957	1.3469	79.7	-0.2334	0.0718	0.3052	908.4394	0.187517	-387.100785	-387.094287	-387.093343	-387.13117	28.4	
C	-0.006210353	 1.5861164248	-0.1345215359	-0.259023
C	 1.5424412609	 1.5693343272	-0.0350859011	-0.017396
C	 2.0781613378	 1.7580920009	 1.3983809655	-0.225036
C	 1.8822681256	 0.3824297173	 2.0773458974	-0.038568
C	 2.2868210365	-0.5981536232	 0.9581940522	-0.221361
C	 1.5192041085	 0.0070910583	-0.216055737	-0.036565
C	-0.022047333	 0.0464235988	 0.0703623549	 0.120265
O	-0.3606188051	-0.4216664054	 1.3614198898	-0.265463
C	 0.4052998975	 0.1101553402	 2.4408669354	-0.078694
H	-0.5567818372	 2.1882881665	 0.5946456131	 0.0973
H	-0.3557835969	 1.8531463121	-1.1358934047	 0.097475
H	 2.0789702988	 2.172324271	-0.7698366611	 0.059438
H	 3.1469138121	 1.998368783	 1.3689162506	 0.093093
H	 1.5762069486	 2.5700356167	 1.9365453886	 0.090667
H	 2.4882652131	 0.2915589358	 2.9835457399	 0.064026
H	 3.3678813808	-0.5775735824	 0.7822567355	 0.090961
H	 1.9921466857	-1.6307494628	 1.1687345052	 0.10368
H	 1.7815311193	-0.3798848646	-1.2019534673	 0.058527
H	-0.6626203998	-0.520211529	-0.6090312591	 0.076713
H	 0.3439467719	-0.6480708732	 3.2287208494	 0.103754
H	-0.0645427321	 1.027568048	 2.8300376187	 0.086205
182.2613	294.0297	360.8483	386.4296	419.9649	487.4277	553.344	591.0905	741.2445	790.0262	812.8425	815.8986	837.3415	868.7717	893.5377	911.5644	932.484	969.587	983.945	993.1791	1021.2014	1047.8051	1056.0404	1083.1028	1115.8661	1147.1592	1153.0881	1176.7446	1215.4137	1234.122	1243.0221	1255.5014	1271.8225	1282.5536	1308.2662	1321.4334	1339.7189	1348.8711	1362.2843	1379.9067	1413.0434	1470.4858	1479.1471	1492.4846	1512.8565	2973.4892	3030.9152	3040.7328	3048.8166	3057.1341	3069.9252	3073.3533	3078.5693	3085.2784	3091.4426	3097.9201	3105.2958
C1C2CC3CC2C1OC3	C1[C@H]2C[C@@H]3C[C@H]2[C@H]1OC3	
InChI=1S/C8H12O/c1-5-2-7-6(1)3-8(7)9-4-5/h5-8H,1-4H2	InChI=1S/C8H12O/c1-5-2-7-6(1)3-8(7)9-4-5/h5-8H,1-4H2/t5-,6-,7-,8+/m1/s1
