29
gdb 117838	2.17849	0.93174	0.81468	0.0425	99.13	-0.2917	0.0723	0.3641	1687.6805	0.272979	-354.775948	-354.763635	-354.762691	-354.813402	45.677	
C	-0.0154986906	 1.6850975941	 0.1649443071	-0.376529
C	 0.0428071447	 0.1647977598	-0.0199991733	-0.192834
C	 0.6518933799	-0.5438021399	 1.1972164494	-0.174116
C	 0.7194067508	-2.0952297086	 1.1699928379	 0.262622
C	-0.7089512666	-2.6741388589	 1.1346362519	-0.418959
C	 1.4801320972	-2.6152805795	-0.0770641288	-0.183627
C	 2.9371079221	-2.1632930003	-0.2307134911	-0.401736
C	 1.4208286749	-2.5267530926	 2.4876688228	-0.181694
C	 1.6643620688	-4.0267979021	 2.6928964373	-0.406366
H	 0.9846278907	 2.1053300323	 0.3205211262	 0.111994
H	-0.4503642002	 2.1777697913	-0.7105056251	 0.108519
H	-0.6236965412	 1.9550470563	 1.0356060976	 0.112466
H	-0.9697245404	-0.2101111546	-0.2104093011	 0.096845
H	 0.6264245141	-0.0628739396	-0.9199567949	 0.098094
H	 1.6639746951	-0.1482625467	 1.3554757679	 0.087678
H	 0.0821794903	-0.2501292847	 2.0902516374	 0.08405
H	-1.2406879389	-2.3791028017	 0.2249968461	 0.110643
H	-0.6986687489	-3.7681495798	 1.1569943559	 0.109753
H	-1.2969792044	-2.328154812	 1.9924867154	 0.103524
H	 1.4486768517	-3.7114726058	-0.0682652813	 0.090524
H	 0.9204830151	-2.3198403583	-0.9726611766	 0.091501
H	 3.0246063072	-1.0741848794	-0.2975131622	 0.116684
H	 3.5590873221	-2.4933722329	 0.6072811511	 0.117273
H	 3.3717008939	-2.5818701221	-1.1441742993	 0.110484
H	 2.3821486119	-2.0033841858	 2.5611379269	 0.091125
H	 0.8180638402	-2.150598446	 3.3249425444	 0.0875
H	 2.3242312975	-4.4456373477	 1.926634608	 0.117519
H	 2.1413929952	-4.2017154968	 3.6626955814	 0.110746
H	 0.7339636178	-4.6026459278	 2.6808315591	 0.116317
59.4429	72.273	91.6049	134.0994	146.4062	216.8945	229.6831	241.1693	257.5742	281.8771	309.1247	325.494	335.898	368.2859	405.2305	480.871	542.9014	708.0283	737.6796	769.512	793.4792	853.0175	871.8005	907.9916	941.1464	988.7858	1012.7755	1018.6117	1039.5263	1043.174	1059.8557	1075.6749	1118.8661	1127.9104	1204.6895	1215.5204	1244.1688	1277.3193	1302.8902	1317.3068	1333.2584	1347.222	1375.4159	1386.3335	1395.23	1409.3442	1411.8952	1414.4339	1418.2654	1472.4215	1484.931	1488.848	1490.6418	1497.0373	1499.6581	1502.0477	1505.0586	1506.6702	1510.0443	1512.9688	1517.7383	3002.1858	3015.8472	3025.4203	3026.867	3028.6851	3031.6635	3032.785	3037.8384	3039.1385	3048.0665	3054.2653	3063.3729	3095.0575	3095.3105	3099.0811	3099.7549	3101.1724	3102.4852	3107.197	3109.5073
CCCC(C)(CC)CC	CCCC(C)(CC)CC	
InChI=1S/C9H20/c1-5-8-9(4,6-2)7-3/h5-8H2,1-4H3	InChI=1S/C9H20/c1-5-8-9(4,6-2)7-3/h5-8H2,1-4H3
