13
gdb 127777	3.55572	1.72048	1.16806	2.3204	66.29	-0.262	-0.0409	0.2211	958.3619	0.091073	-448.875295	-448.868494	-448.86755	-448.906905	24.821	
C	-0.0113242075	 1.4421252017	-0.0169743446	-0.347174
N	-0.0071139962	-0.0029705236	 0.0624374923	-0.136449
N	-0.0493089436	-0.7787014015	-1.098330279	-0.141713
N	-0.0348131457	-2.0339293817	-0.7829751387	-0.275519
C	 0.0151617054	-2.1195837146	 0.5785562281	 0.16172
C	 0.0326141496	-0.8494773368	 1.0974479721	 0.531486
O	 0.0815710504	-0.8137452301	 2.420866514	-0.251829
N	 0.0987346919	-2.2036468843	 2.8354557762	-0.134004
C	 0.0588776748	-2.9323187042	 1.7461903751	-0.060906
H	 0.9001811131	 1.8549771649	 0.4233749408	 0.158738
H	-0.057104767	 1.7020219933	-1.0745060031	 0.177612
H	-0.8821509197	 1.8535044538	 0.5002691954	 0.158751
H	 0.0644606646	-4.007268277	 1.8589818814	 0.159287
88.0307	154.1093	250.3195	260.7716	359.1957	521.3572	604.7903	623.6953	663.1094	698.5171	771.2467	774.9295	835.5143	909.5958	932.0574	963.2742	1154.4035	1162.6606	1200.2561	1212.6017	1316.2057	1343.2501	1443.8628	1456.437	1483.5322	1489.4017	1505.8062	1567.3219	1642.1708	3053.1769	3121.2551	3165.1111	3248.4022
CN1N=NC2=C1ON=C2	Cn1nnc2c1onc2	
InChI=1S/C4H4N4O/c1-8-4-3(6-7-8)2-5-9-4/h2H,1H3	InChI=1S/C4H4N4O/c1-8-4-3(6-7-8)2-5-9-4/h2H,1H3
