19
gdb 108384	2.29532	1.38842	1.0806	2.1778	81.96	-0.2296	0.0478	0.2774	1205.2104	0.157243	-385.814126	-385.805047	-385.804103	-385.848063	34.074	
C	-0.231976737	 1.5343604054	 0.0915702774	-0.373501
C	 0.0927960575	 0.0415593082	-0.0608942552	-0.303377
C	 0.7931621202	-0.5302087334	 1.1390145298	 0.267338
C	 2.263836666	-0.3253568337	 1.5128019099	-0.142975
O	 2.3635166577	-1.6856738988	 2.0218327177	-0.281738
C	 1.01770035	-1.9304392909	 1.6444517752	 0.031789
C	 0.0538340298	-1.0248981716	 2.3921793052	-0.312315
C	 0.3024285924	-0.5318161634	 3.7139543036	 0.341354
C	 0.5122446081	-0.1041856808	 4.8187549327	-0.443548
H	 0.6789142099	 2.1251448539	 0.2347907041	 0.120823
H	-0.7414812803	 1.917718327	-0.7974496589	 0.115016
H	-0.8788970779	 1.7083799113	 0.9570252214	 0.12811
H	-0.8322492043	-0.5207571976	-0.2381093333	 0.103064
H	 0.7185737109	-0.1119196952	-0.950087462	 0.104003
H	 2.9138570881	-0.1976503972	 0.6396345648	 0.108286
H	 2.4983612618	 0.4213834105	 2.2779315563	 0.120939
H	 0.7569866575	-2.9147534002	 1.2702646104	 0.110199
H	-0.9864510508	-1.2584969973	 2.1718079297	 0.112688
H	 0.6989230404	 0.2594486537	 5.7984665312	 0.193847
71.9146	102.1043	139.4013	196.2547	209.213	305.9596	335.5757	362.0509	401.8072	524.6327	576.3461	618.6346	654.7062	669.4269	777.4189	790.2918	829.5495	893.0925	923.8982	986.0598	990.7768	997.674	1024.6186	1053.3415	1064.8317	1096.1706	1133.06	1160.9041	1220.9791	1256.3392	1274.812	1327.8009	1347.3118	1360.4767	1411.6317	1459.8374	1480.7914	1498.3869	1504.9207	1507.8543	2233.7906	3017.2343	3031.4449	3036.7561	3052.477	3089.4677	3105.3637	3112.2343	3126.3758	3171.2462	3504.278
CCC12COC1C2C#C	CC[C@]12CO[C@H]1[C@H]2C#C	
InChI=1S/C8H10O/c1-3-6-7-8(6,4-2)5-9-7/h1,6-7H,4-5H2,2H3	InChI=1S/C8H10O/c1-3-6-7-8(6,4-2)5-9-7/h1,6-7H,4-5H2,2H3/t6-,7+,8-/m1/s1
