21
gdb 92269	2.3098	1.56495	1.4143	1.2147	83.09	-0.2442	0.0149	0.2591	1080.2982	0.182575	-387.097237	-387.08845	-387.087506	-387.130472	34.152	
C	-0.0339922355	 1.6112879705	-0.0950341691	-0.42
C	 0.0265409176	 0.0955057849	 0.0195771703	-0.010195
C	 0.9802573088	-0.7006026201	-0.9164722801	-0.258307
C	 1.3882891016	-1.6172805603	 0.2756989789	-0.039227
C	 2.8857038209	-1.6934735049	 0.6189274541	-0.286398
C	 3.0856289922	-0.4723893549	 1.4898839788	-0.056956
C	 1.939348676	 0.1312054036	 1.8068981225	-0.158656
C	 0.7354132684	-0.5809855554	 1.2368957088	 0.369791
O	-0.1111740988	-1.1258207233	 2.2357412023	-0.4838
H	 0.9657061747	 2.0535349633	-0.0237205014	 0.114546
H	-0.4649059962	 1.9172336722	-1.0548632429	 0.114383
H	-0.6531457303	 2.0507874604	 0.6962039701	 0.105843
H	-0.9817906802	-0.3295148988	-0.0333226341	 0.075074
H	 0.5233328537	-1.1907873448	-1.7787785698	 0.09666
H	 1.819114455	-0.0914123162	-1.2681004577	 0.095482
H	 0.8785581448	-2.5815079199	 0.2672478619	 0.07594
H	 3.1567600805	-2.6096132783	 1.1607609049	 0.108748
H	 3.5136831111	-1.6705986994	-0.2808286133	 0.104256
H	 4.0679139483	-0.1477208196	 1.8189109513	 0.093976
H	 1.8514446331	 1.0170620161	 2.4294487065	 0.086101
H	-0.2743037156	-0.4477164849	 2.899708898	 0.272738
79.398	111.6443	195.8419	219.9337	239.8099	275.2331	326.6461	434.649	452.8628	500.2638	599.3711	617.299	728.6331	759.7824	802.7181	830.7532	885.1928	889.9496	938.2031	951.8285	974.9725	980.018	1016.5366	1054.4577	1083.7981	1106.0961	1129.4016	1138.7993	1159.994	1167.672	1207.2818	1228.3309	1258.2179	1283.2378	1303.4601	1313.5299	1356.0491	1367.4994	1394.7078	1409.2549	1477.7977	1488.0616	1496.3382	1497.9898	1674.4269	3015.1186	3021.4246	3044.8731	3046.2484	3052.0786	3083.9229	3094.1952	3099.3433	3114.7828	3163.0266	3190.5087	3807.66
CC1CC2CC=CC12O	C[C@H]1C[C@H]2CC=C[C@@]12O	
InChI=1S/C8H12O/c1-6-5-7-3-2-4-8(6,7)9/h2,4,6-7,9H,3,5H2,1H3	InChI=1S/C8H12O/c1-6-5-7-3-2-4-8(6,7)9/h2,4,6-7,9H,3,5H2,1H3/t6-,7+,8+/m0/s1
