19
gdb 78821	3.53367	1.28339	1.11412	0.9682	85.11	-0.2445	0.0572	0.3017	1146.7953	0.158949	-348.669647	-348.661649	-348.660704	-348.701861	32.01	
C	 0.0695066038	 1.6042560293	 0.0914897121	-0.425035
C	 0.1126304881	 0.0842324637	-0.0082663186	 0.020537
C	 0.8031966594	-0.6251354644	-1.1757010933	-0.099493
C	 2.2766449	-0.8460572392	-0.7964367865	-0.0589
C	 1.2077390554	-1.7846899919	-0.2998423844	-0.073351
C	 1.0443390032	-0.7727729545	 0.9043436467	-0.075319
C	 2.4951946239	-0.2569962295	 0.6065791707	-0.203344
C	 3.5184253369	-0.949387411	 1.3700945135	 0.311815
C	 4.3647761378	-1.5148112216	 2.0108780303	-0.447962
H	 1.0505080943	 2.0608231321	-0.0665387763	 0.120525
H	-0.6066038434	 2.0172295212	-0.6653434767	 0.115048
H	-0.2994220163	 1.9242758733	 1.0726318328	 0.115529
H	-0.9029899893	-0.3183290974	 0.0862134113	 0.072568
H	 0.498115245	-0.6552518728	-2.2147656208	 0.084199
H	 3.0333142506	-1.0356404536	-1.5463106265	 0.092847
H	 1.0759710165	-2.8515120743	-0.3972967122	 0.093173
H	 0.7647756423	-1.0173268863	 1.9265612619	 0.077974
H	 2.6492221272	 0.8254224155	 0.6841630755	 0.090006
H	 5.1140068345	-2.0117593686	 2.5753911104	 0.189184
120.6198	146.2687	175.7831	239.5963	272.3294	393.2222	496.5546	504.0996	558.9491	611.39	631.2148	676.5214	781.9078	791.2863	807.2908	831.773	880.9901	904.0333	908.3265	940.6279	1013.3736	1016.783	1031.0728	1038.9623	1039.6645	1087.7873	1117.2779	1135.4674	1148.4439	1173.0638	1193.4457	1228.0781	1257.6915	1300.8762	1349.1273	1360.5113	1389.4346	1413.4361	1492.2086	1502.1232	2233.6056	3029.2086	3033.7879	3037.0888	3090.8806	3111.4613	3143.9732	3185.976	3204.0587	3233.2932	3505.643
CC1C2C3C2C1C3C#C	C[C@H]1[C@H]2[C@@H]3[C@H]2[C@H]1[C@H]3C#C	
InChI=1S/C9H10/c1-3-5-6-4(2)7-8(5)9(6)7/h1,4-9H,2H3	InChI=1S/C9H10/c1-3-5-6-4(2)7-8(5)9(6)7/h1,4-9H,2H3/t4-,5-,6-,7+,8-,9+/m1/s1
