18
gdb 116379	3.05506	1.27784	1.02111	1.7378	70.08	-0.2512	0.0087	0.2598	1180.119	0.148364	-476.21515	-476.206718	-476.205774	-476.248662	31.109	
O	 0.1201180099	 1.3645442485	-0.1229074547	-0.413596
C	 0.03301548	-0.0089246288	 0.1687454097	-0.073796
C	-1.40466117	-0.5219870346	 0.1438624964	 0.19445
O	-2.132201412	 0.0687606571	 1.1604868402	-0.227648
C	-3.3743562365	-0.5651392434	 1.4271000221	-0.101978
C	-4.4530985543	-0.173228056	 0.4238575213	-0.151361
N	-4.2526052452	-0.5336423231	-0.9665533537	-0.246029
C	-3.1552561062	-0.493091296	-1.5804145022	 0.119505
O	-1.8797089565	-0.2081426177	-1.1782467108	-0.262529
H	-0.3744995218	 1.5029711145	-0.9389608795	 0.291142
H	 0.6209976069	-0.6213303268	-0.5326688301	 0.094849
H	 0.4343526098	-0.1561221354	 1.1751686216	 0.121762
H	-1.4323172203	-1.6205329007	 0.2444869981	 0.074829
H	-3.2419467983	-1.6584351531	 1.4398700578	 0.098925
H	-3.6748316375	-0.2441133622	 2.4291769078	 0.116664
H	-5.4019520598	-0.6141103159	 0.752993085	 0.111972
H	-4.5838861518	 0.9170559595	 0.4679972041	 0.130145
H	-3.1436819064	-0.6678759658	-2.656623823	 0.122694
82.9682	95.6967	121.4376	229.9704	281.5606	354.4388	382.6459	393.3657	429.0302	495.1616	595.7565	668.1333	805.7345	834.5562	848.7346	918.3205	942.5013	964.6668	1011.2238	1042.2042	1074.1271	1093.6477	1114.8959	1134.023	1195.8958	1244.2364	1274.5741	1311.3527	1369.2115	1381.7095	1386.511	1391.8174	1423.8686	1431.1048	1445.7191	1471.6389	1492.7383	1493.2754	1764.1034	2960.1997	2986.4283	2990.1958	3016.684	3056.5041	3086.3924	3098.8392	3135.8986	3800.7254
OCC1OCCN=CO1	OC[C@H]1OCCN=CO1	
InChI=1S/C5H9NO3/c7-3-5-8-2-1-6-4-9-5/h4-5,7H,1-3H2	InChI=1S/C5H9NO3/c7-3-5-8-2-1-6-4-9-5/h4-5,7H,1-3H2/t5-/m0/s1
