19
gdb 40148	2.60217	1.54255	1.24524	0.7649	74.81	-0.2332	0.0618	0.2949	1068.3943	0.160286	-419.123944	-419.11591	-419.114966	-419.156879	30.774	
C	 0.0773047948	 1.4904573967	-0.1341391705	-0.302461
N	 1.2865395757	 0.6489659396	 0.0169608035	-0.365316
C	-0.0250785061	 0.0256645174	 0.0125716866	 0.283871
C	-0.6142470192	-0.8070376042	 1.1513797408	-0.238655
N	-1.3989435088	-1.5504870984	 0.1271331163	-0.3713
C	-0.6028812675	-0.9977143121	-0.9762015013	 0.214328
C	-1.2354497148	-0.6378028607	-2.3331463985	-0.126474
O	-0.1772944792	-1.3104753059	-3.0507928972	-0.274397
C	 0.3537908945	-1.8649391573	-1.8342346768	-0.140359
H	-0.137262987	 2.1371289155	 0.712576897	 0.123533
H	-0.1330615451	 1.9299608736	-1.1058963487	 0.118897
H	 1.7419476544	 0.5294830543	-0.8860156789	 0.23774
H	 0.1488419197	-1.3977078669	 1.6739138388	 0.105944
H	-1.231542326	-0.2851694733	 1.8897254333	 0.108935
H	-1.3796459061	-2.561404849	 0.2083282982	 0.218825
H	-2.2149432304	-1.1088803255	-2.4892853732	 0.105918
H	-1.2999223161	 0.4256286705	-2.5929741139	 0.102617
H	 1.4321146278	-1.6894032547	-1.7296143747	 0.10372
H	 0.1608859495	-2.9452478196	-1.7498204309	 0.094633
72.7852	92.5458	200.7984	249.0103	282.6367	343.8871	422.3548	491.6774	505.8208	575.3594	688.3667	831.6231	845.9597	886.0216	923.623	934.2385	942.7107	963.7782	992.8774	1005.3197	1016.5934	1031.9362	1059.2201	1115.9828	1125.3623	1142.8944	1146.5727	1159.0273	1203.2848	1221.7997	1257.593	1279.8168	1294.095	1310.1647	1365.3727	1391.2131	1432.0263	1498.42	1516.1894	1519.8034	1527.172	2983.5332	3011.3357	3018.4904	3042.1751	3058.7842	3071.1661	3105.5864	3190.5355	3482.2777	3527.5434
C1NC11CNC11COC1	C1N[C@]21CNC12COC1	
InChI=1S/C6H10N2O/c1-5(7-1)2-8-6(5)3-9-4-6/h7-8H,1-4H2	InChI=1S/C6H10N2O/c1-5(7-1)2-8-6(5)3-9-4-6/h7-8H,1-4H2/t5-/m1/s1
