22
gdb 85947	2.66455	1.32636	1.13274	2.2632	83.13	-0.2431	0.0317	0.2748	1217.083	0.193807	-404.38491	-404.375569	-404.374625	-404.418374	36.251	
C	 0.0047011045	 1.5835999855	 0.0311197792	-0.385949
C	 0.0570345286	 0.0544178674	 0.0537089168	 0.043213
C	 0.6361414733	-0.5215222876	-1.2453341757	-0.237651
C	 0.9417727586	-2.0198542969	-1.1108677806	 0.351336
C	-0.32533035	-2.869931226	-0.959337208	-0.413189
C	 1.7975390578	-2.5225928964	-2.2709078606	-0.418892
O	 1.7570671281	-2.2282959035	 0.0769751969	-0.261434
C	 1.5559297066	-1.398494447	 1.1263663129	 0.119
N	 0.8159850897	-0.3782363057	 1.2286076793	-0.279093
H	 1.0107423875	 2.0006301421	-0.0835900726	 0.116004
H	-0.6148658947	 1.9433609412	-0.7971947802	 0.1038
H	-0.4097822493	 1.9592748358	 0.9700662798	 0.124536
H	-0.9732942401	-0.3080625779	 0.1809203113	 0.084191
H	-0.0467021823	-0.3594999471	-2.0863608455	 0.09875
H	 1.5694931393	 0.0047525944	-1.4811516244	 0.101362
H	-0.9521772271	-2.7818384097	-1.85242014	 0.116657
H	-0.0577232047	-3.9218629504	-0.8273027566	 0.124576
H	-0.9156246171	-2.5596920247	-0.0936902529	 0.131151
H	 2.7222094588	-1.9438579936	-2.34565505	 0.122598
H	 2.0606577296	-3.5742304155	-2.1250948746	 0.123792
H	 1.2515944407	-2.429250061	-3.2146012708	 0.116522
H	 2.1645585223	-1.7253979934	 1.9688257965	 0.118719
92.2953	136.347	213.8606	236.1772	242.8686	274.469	308.1822	332.0166	364.3737	415.0431	467.1431	480.5924	522.2136	592.168	737.0397	806.9294	857.1273	865.8798	915.7958	937.0587	945.2477	970.4918	981.2969	1012.5031	1073.1644	1096.5276	1136.9359	1163.8607	1197.6944	1228.8706	1254.3047	1289.1817	1329.3233	1349.5375	1378.9616	1399.4179	1404.8634	1413.1098	1420.8004	1470.8178	1482.3388	1485.5517	1489.4546	1495.0831	1499.3726	1508.0203	1724.7864	2993.5948	3028.7642	3035.2997	3040.2076	3045.8989	3077.7658	3104.3205	3113.1017	3119.9233	3120.3618	3121.3894	3125.8929	3145.9362
CC1CC(C)(C)OC=N1	C[C@H]1CC(C)(C)OC=N1	
InChI=1S/C7H13NO/c1-6-4-7(2,3)9-5-8-6/h5-6H,4H2,1-3H3	InChI=1S/C7H13NO/c1-6-4-7(2,3)9-5-8-6/h5-6H,4H2,1-3H3/t6-/m0/s1
