21
gdb 74632	2.88248	1.48456	1.33343	0.3516	88.51	-0.2076	0.017	0.2246	1096.0169	0.18286	-349.917998	-349.909935	-349.908991	-349.949997	32.714	
C	-0.0582221372	 1.5070757966	 0.0201329581	-0.508381
C	-0.0146706165	 0.0177978973	-0.0280325118	 0.316243
C	-0.0412272051	-0.8342630341	-1.0601273572	-0.227752
C	 0.0390407978	-2.2057900212	-0.4161458501	-0.084855
C	-0.8272847914	-2.1534250439	 0.8924089515	-0.04357
C	 0.1862433023	-3.0697157761	 1.6118830388	-0.296314
C	 1.0604317396	-2.089122703	 0.7902181325	 0.356102
C	 2.5597573716	-2.0241744264	 0.6989249123	-0.52128
C	 0.0808383832	-0.9065296418	 1.1815029818	-0.144975
H	 0.8304693575	 1.9198143106	 0.5153600613	 0.124106
H	-0.1161215022	 1.9384129676	-0.9833088039	 0.123247
H	-0.923671634	 1.8653514457	 0.5929002767	 0.125066
H	-0.1004067731	-0.6189530686	-2.118584102	 0.092155
H	 0.0366310122	-3.1086131776	-1.0298277943	 0.053517
H	-1.9189118293	-2.1808446793	 0.9448337758	 0.063172
H	 0.2434718646	-2.9835271577	 2.7016547168	 0.083599
H	 0.2068865701	-4.1200142862	 1.3037011031	 0.08427
H	 2.9729833399	-2.9652482738	 0.3192836306	 0.117196
H	 2.8674966559	-1.2200634593	 0.0211149511	 0.12146
H	 3.0086574321	-1.8340589131	 1.6802331233	 0.11608
H	 0.1210965918	-0.4860180356	 2.1891421655	 0.050914
142.65	169.7485	224.5199	243.7555	270.7715	294.1806	442.4172	455.7621	541.46	573.3922	640.76	724.2353	762.121	784.9716	812.8015	870.0384	898.9197	902.5268	928.0625	965.5088	987.5505	1009.9461	1013.7154	1049.6763	1058.3723	1072.8857	1120.1234	1139.8831	1168.3132	1183.9523	1204.2335	1215.2276	1230.4787	1248.1605	1295.7214	1322.5396	1332.9335	1403.6641	1413.1388	1477.4544	1487.151	1487.9225	1489.4988	1517.0298	1690.6891	3011.6856	3023.8479	3035.5751	3054.1614	3076.941	3089.9207	3090.6797	3093.2585	3094.0304	3101.6177	3104.9845	3220.5563
CC1=CC2C3CC2(C)C13	CC1=C[C@@H]2[C@H]3C[C@]2(C)[C@@H]13	
InChI=1S/C9H12/c1-5-3-7-6-4-9(7,2)8(5)6/h3,6-8H,4H2,1-2H3	InChI=1S/C9H12/c1-5-3-7-6-4-9(7,2)8(5)6/h3,6-8H,4H2,1-2H3/t6-,7-,8+,9+/m1/s1
