19
gdb 126936	6.21924	0.79136	0.7142	3.8753	80.03	-0.2084	0.0442	0.2526	1616.7947	0.160446	-415.427447	-415.417958	-415.417014	-415.462305	33.844	
C	-0.0244935688	 1.5019912693	-0.0216010161	-0.400214
C	-0.0662152592	-0.0110034312	-0.2065965272	-0.130988
N	-1.3688955296	-0.5368448697	 0.1767206355	-0.396672
C	-1.6523544341	-1.8722548799	 0.0545052186	 0.470054
N	-2.8642434419	-2.3973608438	-0.00816322	-0.396997
C	-2.6144682014	-3.7439072159	-0.0647550753	 0.351847
C	-3.7042142984	-4.7592288822	-0.1428893997	-0.48076
N	-1.3380844919	-4.0798369775	-0.048255463	-0.280463
N	-0.7219349803	-2.8534391371	 0.0249338997	-0.271603
H	 0.9623532031	 1.8915286782	-0.2842180461	 0.129079
H	-0.7600671551	 1.995881349	-0.6660782458	 0.126152
H	-0.2415677811	 1.7723772344	 1.0155567644	 0.137134
H	 0.1897283781	-0.2713975754	-1.2467124075	 0.106538
H	 0.6962076904	-0.4724827605	 0.4349521778	 0.110458
H	-2.1620778155	 0.0373863835	-0.0712185708	 0.253415
H	-4.324082646	-4.5946655503	-1.0301143062	 0.133128
H	-3.2795800252	-5.7635095455	-0.1868350346	 0.135395
H	-4.3625498082	-4.6881151532	 0.7289070342	 0.134377
H	 0.2799824951	-2.7978356321	 0.067417362	 0.27012
60.558	83.6903	120.9034	126.6716	219.1657	266.1682	305.1873	338.266	340.8205	427.9104	474.8916	550.5995	694.129	700.1045	756.6113	796.5265	824.5839	936.8807	1005.2275	1018.3817	1061.2971	1069.5016	1088.3904	1127.5703	1157.3226	1192.7142	1296.4743	1317.0208	1342.908	1386.4471	1409.3978	1423.0298	1434.2118	1477.6636	1480.6316	1492.2565	1501.1115	1516.3112	1530.2693	1579.6551	1642.5719	2968.7089	3024.4854	3041.6567	3044.1711	3098.7431	3110.2877	3128.1836	3143.3243	3604.873	3689.3539
CCNC1=NC(C)=NN1	CCNc1nc(C)n[nH]1	
InChI=1S/C5H10N4/c1-3-6-5-7-4(2)8-9-5/h3H2,1-2H3,(H2,6,7,8,9)	InChI=1S/C5H10N4/c1-3-6-5-7-4(2)8-9-5/h3H2,1-2H3,(H2,6,7,8,9)
