17
gdb 125577	3.20243	1.37406	0.96756	1.5269	84.03	-0.189	-0.02	0.169	1188.1072	0.13803	-414.221969	-414.213564	-414.212619	-414.254566	32.531	
C	-0.2402286958	 1.5075051265	-0.0325492603	-0.472642
C	 0.0008004769	 0.0228729038	-0.005971314	 0.357616
N	 0.0805188068	-0.5781602029	-1.1602166619	-0.291286
N	 0.2973947582	-1.9226792047	-1.111538615	-0.319823
C	 0.4411201493	-2.7365336306	-0.0117322933	 0.351716
N	 0.6248076669	-4.0139022107	-0.0000265287	-0.590197
C	 0.3601303897	-2.0108108909	 1.2648560172	 0.378125
N	 0.5464621415	-2.7862403588	 2.3602417934	-0.583372
C	 0.1334203095	-0.6634321213	 1.2409185364	-0.296129
H	 0.5741491232	 2.047653269	 0.4639704235	 0.128069
H	-0.3143621194	 1.8544938719	-1.0641871258	 0.13909
H	-1.1662664734	 1.7655425727	 0.4941981615	 0.127043
H	 0.3416047775	-2.3491464718	-2.0244323056	 0.257251
H	 0.6558642985	-4.4125199278	-0.9375695712	 0.19873
H	 0.5507759577	-3.7811906886	 2.1814717609	 0.278054
H	 0.2938470936	-2.4492453201	 3.2721716005	 0.255174
H	 0.0593541893	-0.1005371855	 2.1659021425	 0.082581
112.3249	145.9255	189.6195	283.2407	297.286	343.9517	355.8569	441.0437	466.5992	521.3107	555.0816	576.0891	581.8786	657.8341	734.3283	759.3316	788.3841	801.983	865.5152	978.1585	998.892	1061.2676	1101.0406	1116.0211	1202.9458	1228.3719	1332.5178	1398.6452	1418.1947	1452.6194	1477.1199	1481.9529	1484.8551	1580.2484	1625.125	1661.4736	1697.3756	3030.1297	3080.897	3142.2538	3173.5981	3483.5048	3561.4683	3622.7663	3719.1114
CC1=NNC(=N)C(N)=C1	CC1=NNC(=C(N)C1)[NH]	
InChI=1S/C5H8N4/c1-3-2-4(6)5(7)9-8-3/h2H,1H3,(H2,6,8)(H2,7,9)	InChI=1S/C5H9N4/c1-3-2-4(6)5(7)9-8-3/h7,9H,2,6H2,1H3
