22
gdb 121091	3.55081	0.82798	0.71932	0.9848	84.64	-0.2391	0.0301	0.2692	1665.4472	0.193883	-404.387206	-404.377222	-404.376278	-404.423173	35.642	
C	 0.0195379959	 1.5527663619	-0.0194044932	-0.382248
C	 0.0074400121	 0.0233713575	 0.0459843883	-0.162351
C	-1.4049750943	-0.5651934787	-0.0156997427	-0.171551
C	-1.4319589726	-2.0970860696	 0.0183950245	 0.006011
C	-2.8646303488	-2.6985852536	-0.0102897373	-0.131268
O	-2.8524683543	-3.5958217891	-1.1404084533	-0.255309
C	-1.6205622157	-3.4617090405	-1.7102762304	 0.407992
C	-1.4106088017	-4.2785303859	-2.9391253406	-0.471161
N	-0.7777129044	-2.6830355636	-1.165717723	-0.312841
H	 1.0398437274	 1.945759984	 0.0307943241	 0.111127
H	-0.4290277024	 1.9125844152	-0.9522601958	 0.113074
H	-0.5473299228	 1.9927787135	 0.8091931685	 0.108894
H	 0.597495179	-0.3945943229	-0.7760914602	 0.123041
H	 0.4950383075	-0.3086342119	 0.9724543824	 0.089822
H	-2.0022831968	-0.1860336934	 0.8257258825	 0.088504
H	-1.9089130632	-0.228994884	-0.9322829185	 0.093786
H	-0.8878411316	-2.4334646247	 0.9111670438	 0.08114
H	-3.1211503334	-3.2734298676	 0.8833450901	 0.114835
H	-3.6387215506	-1.9417415643	-0.1793504239	 0.109953
H	-1.5470442556	-5.3411944253	-2.714949889	 0.144363
H	-2.1473610516	-4.0111670893	-3.7031245611	 0.14371
H	-0.4052352321	-4.1116717079	-3.3238626453	 0.150476
44.4869	82.773	99.4876	139.8966	155.3353	198.8982	246.2031	308.9142	327.0874	400.0655	474.907	628.4124	660.9273	732.3006	755.9063	855.747	879.6442	903.9673	925.4401	979.2258	1011.7751	1022.7113	1037.8866	1058.3925	1066.2756	1110.0558	1139.2132	1166.2273	1223.5269	1252.3655	1263.7532	1292.8845	1320.0854	1338.6653	1364.8146	1384.8146	1396.821	1411.7352	1416.4299	1475.2497	1476.6615	1478.2573	1493.7392	1500.1287	1510.4281	1520.7461	1741.5193	3002.0327	3006.9712	3019.5368	3026.7568	3040.3878	3044.3073	3050.5016	3073.9024	3094.0859	3097.5247	3100.4376	3107.3916	3166.0447
CCCC1COC(C)=N1	CCC[C@H]1COC(=N1)C	
InChI=1S/C7H13NO/c1-3-4-7-5-9-6(2)8-7/h7H,3-5H2,1-2H3	InChI=1S/C7H13NO/c1-3-4-7-5-9-6(2)8-7/h7H,3-5H2,1-2H3/t7-/m0/s1
