17
gdb 37768	2.99898	2.22715	2.1256	1.4917	73.76	-0.2192	0.0134	0.2325	772.9537	0.139592	-384.637544	-384.632092	-384.631148	-384.666936	24.417	
O	-0.0149507454	 1.4238892846	 0.0976977441	-0.27857
C	 1.4178813626	 1.4637025958	-0.0603118499	 0.083632
C	 2.163405202	 0.9794436816	 1.2656139345	-0.102474
C	 1.3216308624	 1.0787182397	 2.5114447375	-0.066336
C	 0.3950984378	 0.1134739989	 2.5156390641	-0.066336
C	 0.5233241782	-0.7291620893	 1.2730384573	-0.102474
C	 0.0032131038	-0.0100715809	-0.053908922	 0.083632
C	 1.4506833687	 0.01394441	-0.6136761637	-0.099706
C	 1.976490335	-0.4847646192	 0.7696395451	-0.066369
H	 1.758929919	 2.3739912851	-0.5562347209	 0.077262
H	 3.1874426998	 1.3534962707	 1.3276876935	 0.065021
H	 1.4106061202	 1.8730845885	 3.2432444442	 0.096285
H	-0.3917808347	-0.0045994724	 3.2514007985	 0.096285
H	 0.1917603366	-1.7673497143	 1.3412490278	 0.065021
H	-0.8945043917	-0.3903030326	-0.5442218491	 0.077262
H	 1.7698803691	-0.2967555916	-1.6050220797	 0.071925
H	 2.7536660466	-1.2300388345	 0.9369987485	 0.065941
312.5889	313.1241	528.409	531.2344	655.014	672.009	719.8543	776.6843	789.1499	798.1075	820.4402	853.0782	855.0313	871.7048	939.1895	941.0455	949.4722	972.5115	994.171	1006.6372	1008.9295	1048.8141	1107.996	1129.9933	1144.3353	1176.6667	1182.8901	1183.8711	1236.113	1249.7965	1260.8642	1272.1639	1288.5228	1307.7933	1337.2829	1363.1156	1646.9012	3084.1592	3085.6576	3095.5875	3097.797	3112.2156	3150.0774	3189.1268	3213.8794
O1C2C3C=CC4C1C2C34	O1[C@H]2[C@H]3C=C[C@H]4[C@@H]1[C@@H]2[C@@H]34	
InChI=1S/C8H8O/c1-2-4-5-3(1)7-6(5)8(4)9-7/h1-8H	InChI=1S/C8H8O/c1-2-4-5-3(1)7-6(5)8(4)9-7/h1-8H/t3-,4+,5-,6+,7-,8+
