14
gdb 43546	2.51926	1.48395	1.08302	3.8372	69.23	-0.2527	-0.0011	0.2517	1083.2623	0.09896	-436.63539	-436.627165	-436.62622	-436.668501	30.088	
O	 0.0002603918	-0.0091580274	-0.0735272808	-0.353056
C	 0.0246905496	 1.1874618519	-0.0226842889	 0.391035
N	-0.9572242803	 2.1582568483	 0.0163712255	-0.351643
C	-0.0602155731	 3.3276854528	 0.0854179581	-0.232274
C	-0.1742414884	 4.1570314084	 1.2721275954	 0.331064
C	-0.2619191312	 4.8506954982	 2.249837033	-0.440465
C	 1.0993542197	 2.2835241093	 0.0484318804	 0.271428
C	 2.4065629764	 2.2902247692	 0.6962356969	-0.250111
O	 2.2549077726	 2.3795175351	-0.7320030263	-0.25359
H	-1.9487080616	 2.0939010996	 0.190704994	 0.264096
H	-0.0914020085	 3.9396020746	-0.8228738332	 0.13239
H	-0.34271783	 5.462509116	 3.1146414967	 0.209552
H	 2.746722052	 3.1993230446	 1.1875559999	 0.137363
H	 2.8223996311	 1.3532928595	 1.0599766492	 0.144209
70.3585	117.2214	209.3715	219.214	241.3483	303.6664	407.2992	427.9453	514.4704	598.4125	636.0777	641.8941	670.9718	725.7575	779.0139	847.1309	919.3593	965.276	1012.4022	1043.4794	1101.0253	1122.7161	1156.8563	1170.5347	1242.6492	1345.3282	1363.155	1437.9774	1529.767	1907.4501	2237.2738	3048.0162	3098.5793	3196.8486	3499.6361	3629.9577
O=C1NC(C#C)C11CO1	O=C1N[C@@H](C#C)[C@]21CO2	
InChI=1S/C6H5NO2/c1-2-4-6(3-9-6)5(8)7-4/h1,4H,3H2,(H,7,8)	InChI=1S/C6H5NO2/c1-2-4-6(3-9-6)5(8)7-4/h1,4H,3H2,(H,7,8)/t4-,6-/m0/s1
