12
gdb 20590	3.484	1.90092	1.23936	5.1413	60.23	-0.2684	-0.065	0.2034	890.9633	0.081791	-414.65301	-414.645679	-414.644735	-414.684968	25.132	
C	 0.0491210594	 1.5182368867	 0.0560913187	-0.493008
C	-0.0281304287	 0.0333871569	 0.0879761089	 0.371055
C	-1.0848678007	-0.8449333782	-0.0229278358	 0.06149
C	-2.5093043701	-0.5801250895	-0.2133241359	 0.084355
O	-3.3663194127	-1.4254838521	-0.2995238284	-0.256373
N	-0.5451358014	-2.1157493597	 0.0821812254	-0.117969
N	 0.6791669011	-2.0914777861	 0.2386726662	 0.004886
O	 1.0858628525	-0.6447833914	 0.2501068361	-0.227772
H	 0.7017362002	 1.8439188976	-0.7596521492	 0.17153
H	-0.9380525333	 1.9604227381	-0.0830348829	 0.156103
H	 0.4770051292	 1.8932083683	 0.9908346645	 0.171531
H	-2.7552143355	 0.5031488294	-0.2754773677	 0.074173
97.8334	141.1506	186.1144	224.7956	280.4426	309.1123	422.1599	545.0048	645.3573	659.1003	715.2262	805.3287	979.2445	1022.7151	1023.5144	1063.8576	1150.3805	1293.2514	1392.5813	1418.4703	1434.8702	1471.8252	1474.994	1552.3958	1589.8958	1806.4168	2881.1735	3051.6708	3113.2088	3149.9523
CC1=C(C=O)N=NO1	Cc1c(C=O)nno1	
InChI=1S/C4H4N2O2/c1-3-4(2-7)5-6-8-3/h2H,1H3	InChI=1S/C4H4N2O2/c1-3-4(2-7)5-6-8-3/h2H,1H3
