15
gdb 11607	6.51752	0.95654	0.86841	1.1567	58.64	-0.2696	0.0535	0.3231	1266.1296	0.117931	-436.951821	-436.943487	-436.942543	-436.986417	28.786	
N	-0.2052135251	 1.2724077947	 0.1258948134	-0.562482
C	 0.0389220004	-0.0553704312	-0.08148204	 0.502602
O	 1.1050723607	-0.5348776068	-0.3876190498	-0.39668
O	-1.1107681423	-0.762177537	 0.0711127494	-0.263176
C	-0.9870742871	-2.1739590528	-0.1455844057	-0.078879
C	-2.3727560152	-2.7418965039	-0.2346229282	 0.076523
C	-2.6432217799	-4.1297612386	 0.1575244571	-0.181079
O	-3.0302187084	-3.0433595286	 0.9970904272	-0.228006
H	 0.6035320708	 1.8578093191	 0.2438832472	 0.269611
H	-1.055044249	 1.5404335451	 0.5926101192	 0.267073
H	-0.4260828351	-2.3531401473	-1.0682380142	 0.131339
H	-0.4392053262	-2.6313256749	 0.6848224585	 0.121628
H	-3.0150040207	-2.2775404875	-0.9834200548	 0.102529
H	-3.4568088177	-4.67284053	-0.3204643059	 0.120173
H	-1.8332005652	-4.7504474603	 0.5391040565	 0.118826
21.2091	67.7478	127.8279	184.6824	275.5654	347.6017	357.3357	437.18	496.4455	539.8904	661.6944	783.6413	806.0948	872.8982	913.9201	962.3685	998.9127	1089.9843	1104.1539	1122.6592	1151.5437	1163.4228	1174.8308	1270.4542	1293.3762	1332.9197	1392.1352	1461.0106	1496.377	1533.1187	1612.9092	1835.8762	3048.9703	3084.673	3095.8144	3116.8267	3171.3621	3614.348	3743.7829
NC(=O)OCC1CO1	NC(=O)OC[C@H]1CO1	
InChI=1S/C4H7NO3/c5-4(6)8-2-3-1-7-3/h3H,1-2H2,(H2,5,6)	InChI=1S/C4H7NO3/c5-4(6)8-2-3-1-7-3/h3H,1-2H2,(H2,5,6)/t3-/m1/s1
