16
gdb 36682	3.31192	0.82228	0.69575	5.4484	74.9	-0.2772	-0.0034	0.2739	1533.4125	0.12405	-396.922262	-396.91336	-396.912416	-396.957091	31.087	
N	-0.2675681185	-1.151592851	 0.0508197544	-0.295288
C	-0.1468662624	-0.0055549635	 0.1317287704	 0.257842
C	 0.0224870155	 1.4414575602	 0.2266124283	-0.338637
C	 1.4069605644	 1.8967538054	-0.2673277855	-0.149659
N	 1.4689217176	 3.3530149565	-0.1760405253	-0.078579
C	 2.0170778503	 3.9295776008	 1.0396033171	-0.244782
C	 2.7842872693	 3.9998204516	-0.2482464563	-0.148268
C	 3.9891703993	 3.2166024798	-0.385614531	 0.286116
N	 4.9531575639	 2.5926262264	-0.5239524392	-0.325058
H	-0.7556383064	 1.9379449176	-0.3619514812	 0.168274
H	-0.1224944576	 1.7460078147	 1.2693531196	 0.156598
H	 2.1961826428	 1.3935825019	 0.310225714	 0.133806
H	 1.5364454291	 1.6135870588	-1.3157789513	 0.14551
H	 1.5293180386	 4.8254791534	 1.4111915443	 0.142339
H	 2.4075913753	 3.2565343084	 1.8009063912	 0.141447
H	 2.7981780589	 4.9285290791	-0.8113397195	 0.14834
66.9282	80.2464	82.1244	163.8712	209.8218	270.9598	355.6897	389.5841	412.8839	527.2655	556.3846	638.4985	760.3993	787.6586	836.7777	908.6147	962.4393	1022.7788	1030.6115	1054.3905	1081.5136	1121.3928	1130.8248	1150.3902	1242.312	1302.0621	1315.7133	1322.1695	1370.7124	1401.0095	1469.2667	1492.4117	1511.4072	2353.4248	2367.3201	3003.4106	3050.5141	3085.984	3103.2348	3103.3764	3154.8627	3200.5765
N#CCCN1CC1C#N	N#CCCN1C[C@H]1C#N	
InChI=1S/C6H7N3/c7-2-1-3-9-5-6(9)4-8/h6H,1,3,5H2	InChI=1S/C6H7N3/c7-2-1-3-9-5-6(9)4-8/h6H,1,3,5H2/t6-,9?/m1/s1
