18
gdb 46963	2.88446	1.70502	1.13504	3.743	79.35	-0.2095	0.0009	0.2104	1057.3421	0.150835	-402.008434	-402.001197	-402.000253	-402.040245	28.405	
O	 0.0979377305	 0.0068253086	 0.29851241	-0.377637
C	-0.0031879885	 1.1924025821	 0.0740208415	 0.386361
C	-1.2842291183	 2.037730097	-0.0147996841	-0.334456
C	-0.8029555703	 3.4748306655	 0.2807340101	-0.24839
C	 0.629090457	 3.4770396801	-0.2834006518	 0.054407
C	 1.7754272505	 4.2621369091	 0.4042087031	-0.30258
C	 2.8677149695	 3.2077139524	 0.5171828973	-0.136607
C	 2.3805876246	 1.9961985453	 0.2344815146	-0.021233
N	 1.0352381814	 2.0690903868	-0.1465305965	-0.070393
H	-1.6990342123	 1.9521999822	-1.0266442704	 0.12889
H	-2.0332669045	 1.6563198027	 0.6806872261	 0.132226
H	-1.4341695346	 4.2479880689	-0.1629905611	 0.108338
H	-0.7729430693	 3.6430598229	 1.36304187	 0.113231
H	 0.6080291545	 3.7327353399	-1.3522782642	 0.088874
H	 2.0743150222	 5.1327330305	-0.1863058572	 0.115895
H	 1.4877866336	 4.6360418478	 1.3980239746	 0.111792
H	 3.8765009068	 3.4137556394	 0.845320908	 0.106361
H	 2.8578074271	 1.028200099	 0.28256483	 0.144921
118.2013	136.4046	171.603	303.532	419.1188	473.7666	550.5969	583.1723	602.3744	658.8825	704.6317	741.0409	819.6596	862.002	926.5346	943.8846	952.0706	956.6436	972.94	1046.4508	1067.2033	1076.5923	1123.0606	1131.5918	1206.3726	1215.294	1250.8409	1288.3164	1298.6627	1302.5275	1328.0644	1362.6759	1365.9131	1424.7316	1469.0453	1488.0595	1499.5434	1666.3283	1815.1433	2990.4876	2998.5095	3042.9425	3048.705	3079.7271	3107.7305	3125.778	3232.7093	3258.7736
O=C1CCC2CC=CN12	O=C1CC[C@H]2CC=CN12	
InChI=1S/C7H9NO/c9-7-4-3-6-2-1-5-8(6)7/h1,5-6H,2-4H2	InChI=1S/C7H9NO/c9-7-4-3-6-2-1-5-8(6)7/h1,5-6H,2-4H2/t6-/m1/s1
