17
gdb 98328	3.5463	0.87772	0.77876	3.7449	70.98	-0.2699	-0.004	0.2659	1443.458	0.134378	-455.174809	-455.164849	-455.163905	-455.211028	33.97	
C	-0.2283493253	 1.3638309854	 0.1267766728	-0.359042
N	-0.122217957	-0.0732767132	-0.0743169051	-0.099899
C	-0.1551616999	-0.9096301025	 1.1162450093	-0.302749
C	-1.441412592	-0.8232381282	 1.821555209	 0.269227
N	-2.4478797652	-0.7295104171	 2.3805894219	-0.301539
C	 0.0719803471	-0.6843902473	-1.2806226753	 0.406281
O	 0.1909828589	-1.8970368031	-1.3924321505	-0.394419
C	 0.147588913	 0.1796930547	-2.5459334661	-0.153162
O	 0.3760116824	-0.633460196	-3.6552081657	-0.419919
H	-0.3320077472	 1.8803073751	-0.8250711349	 0.160595
H	-1.1113880555	 1.5913818229	 0.7328785598	 0.162776
H	 0.6575841842	 1.755836631	 0.6424641923	 0.138755
H	 0.0231712049	-1.9387718652	 0.7959357478	 0.201674
H	 0.6422456239	-0.6199513233	 1.8130765377	 0.157443
H	-0.7944437326	 0.7409499365	-2.6553626775	 0.119949
H	 0.9526109344	 0.9224527646	-2.4325888772	 0.11605
H	 0.3961694758	-1.5385040742	-3.3010051684	 0.297982
34.9149	72.8267	95.013	124.6642	158.3932	238.7251	267.8074	354.2645	373.5111	378.9553	427.132	438.6439	569.2765	590.3024	667.9765	812.8247	910.7531	958.84	1024.1371	1035.4671	1117.3796	1155.1548	1163.2083	1229.6608	1267.2581	1290.8661	1309.3692	1371.4693	1424.4442	1461.6665	1474.1574	1482.3447	1490.3424	1507.3863	1533.7607	1745.1929	2363.5747	2974.6335	2997.5003	3023.8712	3028.2147	3085.9201	3116.971	3174.1746	3662.3247
CN(CC#N)C(=O)CO	CN(CC#N)C(=O)CO	
InChI=1S/C5H8N2O2/c1-7(3-2-6)5(9)4-8/h8H,3-4H2,1H3	InChI=1S/C5H8N2O2/c1-7(3-2-6)5(9)4-8/h8H,3-4H2,1H3
