15
gdb 30388	4.13774	1.13172	0.89354	4.0282	76.27	-0.2153	-0.0295	0.1858	1239.1606	0.112559	-453.97233	-453.964153	-453.963208	-454.005339	29.779	
C	 0.0418826834	 1.4616065905	-0.0356605158	-0.328047
N	 0.1372542807	 0.0172381115	-0.0664354481	-0.31384
C	 0.6192314605	-0.6209619765	 0.926411595	 0.374489
C	 0.7203428398	-2.0745174609	 0.9065880142	-0.327414
C	 1.2297110804	-2.7170803808	 1.9636871632	 0.476272
O	 1.3779082605	-4.0419162111	 2.0732270403	-0.407264
O	 1.6677647811	-2.0612476981	 3.0827151274	-0.240849
C	 1.5521893088	-0.6920524426	 3.0525948255	 0.1177
N	 1.0912035641	 0.0132851684	 2.116550228	-0.301441
H	 0.5996890758	 1.872359277	-0.8866889515	 0.119193
H	-1.0056474992	 1.751489055	-0.1862251415	 0.119188
H	 0.4094770545	 1.9246297007	 0.8864530365	 0.122829
H	 0.3845353381	-2.6258568073	 0.0404797526	 0.129353
H	 1.7668288383	-4.2366802539	 2.9349793971	 0.311956
H	 1.9268087032	-0.274745752	 3.982693947	 0.147873
89.2645	116.0995	165.3209	236.4088	272.8521	309.9579	387.3495	427.0369	454.1855	540.4159	644.4538	656.5989	760.4452	778.766	856.9982	892.4826	928.4001	947.7232	1035.0349	1081.0278	1128.5851	1150.1707	1182.072	1260.7037	1300.3944	1390.3642	1419.7017	1430.4986	1488.5232	1494.2267	1683.124	1723.153	1781.3951	3009.523	3058.9377	3087.4602	3187.6187	3244.5555	3805.9333
CN=C1C=C(O)OC=N1	C[N]C1=C[C@@H](O)OC=N1	
InChI=1S/C5H6N2O2/c1-6-4-2-5(8)9-3-7-4/h2-3,8H,1H3	InChI=1S/C5H7N2O2/c1-6-4-2-5(8)9-3-7-4/h2-3,5,8H,1H3/t5-/m0/s1
