20
gdb 12514	3.20128	1.78383	1.23998	1.1351	77.58	-0.2309	0.0192	0.2501	1028.2201	0.178366	-349.011946	-349.003969	-349.003025	-349.044329	30.499	
C	-0.2335712175	 1.513079704	 0.0586531735	-0.478426
C	 0.0339656761	 0.0305130402	 0.0156082872	 0.318111
C	-0.0188212036	-0.6579317657	-1.1277792696	-0.146972
C	 0.1750117256	-2.1449853838	-1.314095873	-0.256091
C	 1.397620049	-2.7619907537	-0.6173522134	-0.188602
C	 1.3497052011	-2.7137538537	 0.9095602127	-0.064055
O	 1.4801523786	-1.4130193625	 1.4470758884	-0.232165
C	 0.3224771847	-0.604826577	 1.3690364177	-0.173551
H	 0.6418979491	 2.0621752325	 0.4292534083	 0.126949
H	-0.4946474358	 1.907745743	-0.9266283716	 0.118956
H	-1.0582344056	 1.748056882	 0.7451217046	 0.121425
H	-0.2515815483	-0.1021698962	-2.0346515906	 0.076538
H	-0.7278705028	-2.6757799974	-0.9718217938	 0.105244
H	 0.2442495391	-2.3543273317	-2.3869320826	 0.099769
H	 1.4825545755	-3.8145226774	-0.9179448166	 0.08951
H	 2.3098059589	-2.2552603455	-0.9523280103	 0.10673
H	 0.4164142618	-3.1807240044	 1.2718673688	 0.078605
H	 2.1859566798	-3.287833368	 1.3231592088	 0.101637
H	 0.4749622021	 0.18665977	 2.1102180042	 0.103479
H	-0.5603119678	-1.1837410449	 1.6974301772	 0.092913
56.5308	174.4325	223.4243	258.1164	310.7894	338.4127	371.8902	410.6261	484.3725	535.7151	617.2365	785.6768	827.4118	832.7322	894.2899	905.5889	969.3524	987.646	1011.9091	1048.3589	1077.8657	1104.6787	1126.2758	1140.048	1200.2398	1217.8516	1273.1903	1289.2032	1336.2383	1367.6961	1372.3319	1392.8589	1407.8186	1413.211	1426.0622	1469.7136	1477.2663	1480.3752	1484.3866	1492.3922	1496.6324	1738.4283	2935.6051	2949.3922	2982.6708	3010.1661	3021.1735	3054.9594	3059.752	3063.5067	3067.0027	3074.5708	3111.7379	3134.0086
CC1=CCCCOC1	CC1=CCCCOC1	
InChI=1S/C7H12O/c1-7-4-2-3-5-8-6-7/h4H,2-3,5-6H2,1H3	InChI=1S/C7H12O/c1-7-4-2-3-5-8-6-7/h4H,2-3,5-6H2,1H3
