15
gdb 98912	3.62066	0.70723	0.59605	1.916	82.14	-0.2662	-0.0546	0.2116	1738.7436	0.111449	-416.829629	-416.819876	-416.818932	-416.866231	32.655	
C	 1.1048796994	 1.1818408691	-0.2765013395	-0.338379
N	 0.9207708546	-0.0945657761	-0.9429648128	-0.320137
C	-0.2619798568	-0.7513755126	-0.9383835638	 0.443435
O	-1.275129858	-0.3623888429	-0.3935634357	-0.363728
C	-0.2954590725	-2.1043024644	-1.6964862748	-0.515728
C	 0.9283380272	-2.5405264844	-2.3365553189	 0.068359
C	 1.9595053082	-2.8884246129	-2.8646132606	 0.074369
C	 3.1224424072	-3.2827249451	-3.4612051507	 0.208907
N	 4.1148074626	-3.6131101073	-3.9668529428	-0.330905
H	 1.395611037	 1.9596738466	-0.9902000893	 0.135602
H	 0.154058615	 1.4537947173	 0.1822754644	 0.175639
H	 1.8727385992	 1.112214906	 0.5009610309	 0.135597
H	 1.6998704408	-0.5099720116	-1.4282219362	 0.260463
H	-0.6292167917	-2.8540512247	-0.9700168693	 0.183251
H	-1.0992872223	-2.020475207	-2.4368152907	 0.183254
30.4006	64.7723	73.516	143.5101	161.6689	190.1092	285.2777	360.3155	382.9729	436.1342	487.0284	574.9249	578.676	629.9194	656.6368	758.5337	870.6692	935.9511	1080.7745	1153.1693	1173.3197	1176.3458	1211.3709	1249.5806	1302.7849	1433.0204	1441.6919	1494.31	1499.0469	1571.8579	1798.1426	2262.4179	2396.4962	3036.5206	3047.994	3084.1206	3092.3399	3159.6854	3634.3079
CNC(=O)CC#CC#N	CNC(=O)CC#CC#N	
InChI=1S/C6H6N2O/c1-8-6(9)4-2-3-5-7/h4H2,1H3,(H,8,9)	InChI=1S/C6H6N2O/c1-8-6(9)4-2-3-5-7/h4H2,1H3,(H,8,9)
