16
gdb 86855	3.32	1.10586	0.90929	2.7196	69.52	-0.2586	-0.0481	0.2105	1229.9264	0.124462	-437.926225	-437.917894	-437.91695	-437.959736	30.59	
O	-0.1472199236	 1.4307860478	-0.2232970672	-0.432891
C	-0.03298733	 0.0341564008	 0.0396988362	 0.012109
C	-1.4310724893	-0.5680998999	 0.0073515613	-0.229678
C	-1.7110648094	-0.769945144	-1.5109380904	-0.155633
C	-0.3561954299	-1.2603837239	-2.0743553716	-0.336148
C	 0.6857583222	-0.586439857	-1.1807851888	 0.383875
O	 1.8619092677	-0.4757419195	-1.4068474794	-0.312237
C	-2.8232794035	-1.672349248	-1.7819455299	 0.266334
N	-3.6990921221	-2.3976796214	-1.9888771941	-0.318928
H	 0.7437484843	 1.7695821266	-0.3740486275	 0.300189
H	 0.509506582	-0.1591279175	 0.9729528023	 0.096193
H	-1.4334575344	-1.5372921874	 0.5156450516	 0.128762
H	-2.1689512599	 0.0769914091	 0.4865938153	 0.140485
H	-1.9468282357	 0.2056912371	-1.9480893089	 0.148662
H	-0.2580892608	-2.3459432675	-1.9500315852	 0.156737
H	-0.1929816076	-1.0354511052	-3.1295764436	 0.152168
64.3121	98.9123	149.2112	234.3971	256.2862	375.7619	416.472	451.2059	482.4704	524.4704	547.5454	619.6096	663.5773	805.1483	848.8673	879.5656	932.3914	1009.5741	1027.0557	1040.7605	1063.4158	1151.3867	1161.4852	1205.2757	1235.2664	1257.2974	1297.3155	1322.2269	1327.5803	1366.9142	1405.2161	1448.0599	1481.6849	1850.5378	2360.1022	3035.7236	3047.7356	3063.9102	3073.5539	3126.2549	3132.8153	3791.0676
OC1CC(CC1=O)C#N	O[C@H]1C[C@@H](CC1=O)C#N	
InChI=1S/C6H7NO2/c7-3-4-1-5(8)6(9)2-4/h4-5,8H,1-2H2	InChI=1S/C6H7NO2/c7-3-4-1-5(8)6(9)2-4/h4-5,8H,1-2H2/t4-,5-/m0/s1
