21
gdb 97967	2.82348	0.63407	0.60349	1.217	84.3	-0.2579	0.0297	0.2876	1970.965	0.178931	-424.184953	-424.17361	-424.172666	-424.223768	39.113	
C	-0.8039073749	 1.3340296815	 0.128918627	-0.386467
C	-0.7117403231	-0.1758001159	-0.05842018	 0.152728
C	 0.6927535685	-0.6238246726	-0.470920405	-0.391235
O	-1.0979135523	-0.7539864356	 1.1921567435	-0.244296
C	-1.511128952	-2.1053714255	 1.1397998587	-0.226922
C	-2.7636751518	-2.3241744773	 0.4101206735	 0.077379
C	-3.8009687309	-2.5089040377	-0.1759683518	 0.024724
C	-5.0388408127	-2.7162615262	-0.9252441752	-0.192456
O	-4.8379654747	-3.2407994769	-2.2305061708	-0.401377
H	-0.5410888639	 1.8552116915	-0.7964967431	 0.11106
H	-1.8181256317	 1.6208028309	 0.4180529345	 0.122772
H	-0.1177770227	 1.6612264546	 0.9167766329	 0.122877
H	-1.4338091656	-0.4864755472	-0.8286106324	 0.070755
H	 0.7540894977	-1.7080302485	-0.6043780033	 0.114838
H	 0.9768786786	-0.1605003267	-1.4212394491	 0.114982
H	 1.4226819351	-0.3300410717	 0.2900768477	 0.122784
H	-0.729340989	-2.7532706639	 0.7136361065	 0.119098
H	-1.6386740888	-2.4131941841	 2.1835900943	 0.139028
H	-5.6726906832	-3.4443730871	-0.4068602447	 0.142739
H	-5.6042963865	-1.7709278741	-0.9546887493	 0.120531
H	-4.1931905759	-2.6772086075	-2.670540494	 0.286457
25.3344	30.0222	61.5263	123.818	155.6639	203.8313	237.8196	248.1898	287.7219	313.2292	353.2318	367.5812	438.1824	453.2269	530.2353	610.4718	775.2559	802.2512	911.3662	926.9613	943.8827	983.4105	1024.0487	1042.8824	1090.2238	1139.4	1148.1572	1155.6494	1200.7812	1215.6122	1289.389	1357.6097	1370.3417	1374.7796	1394.836	1401.4087	1415.0166	1418.8016	1473.072	1482.2769	1485.2626	1488.8422	1496.3996	1509.8601	2350.9287	2976.5251	2984.1309	2993.3122	3036.3409	3042.45	3062.7516	3063.1446	3105.6274	3110.2427	3116.4276	3124.0628	3817.9349
CC(C)OCC#CCO	CC(C)OCC#CCO	
InChI=1S/C7H12O2/c1-7(2)9-6-4-3-5-8/h7-8H,5-6H2,1-2H3	InChI=1S/C7H12O2/c1-7(2)9-6-4-3-5-8/h7-8H,5-6H2,1-2H3
