22
gdb 85871	1.99947	1.65072	1.26889	1.6685	81.98	-0.2393	0.0703	0.3095	1155.356	0.191875	-404.320834	-404.310968	-404.310024	-404.355062	37.436	
C	-0.2701292361	 1.1632101245	-1.3063076262	-0.407564
C	 0.310636531	-0.1361086435	-0.7812009371	 0.087842
O	 1.702539138	-0.3107345729	-1.1330241926	-0.359218
C	 2.1081187283	-0.549502434	 0.2548372528	 0.368627
C	 2.5521066936	-1.9925327972	 0.4521859509	-0.416505
C	 3.1711042708	 0.4526999319	 0.6800022804	-0.429975
C	 0.6672272647	-0.2573951864	 0.6999452277	 0.222317
C	 0.1371151952	 0.5014702741	 1.8494552625	-0.310237
N	-0.0429493603	-0.9643050496	 1.7519714522	-0.365383
H	 0.2947191384	 2.022466503	-0.9342166974	 0.122071
H	-0.2365077451	 1.174742775	-2.4003068683	 0.129081
H	-1.3172830087	 1.2712945589	-1.0010681969	 0.110372
H	-0.288164656	-0.9879464791	-1.1419262668	 0.071617
H	 3.4665863336	-2.185330069	-0.1176452464	 0.116293
H	 2.7474392905	-2.1945317195	 1.5096229889	 0.123109
H	 1.7787948623	-2.6868225626	 0.1138750485	 0.116474
H	 2.8209068537	 1.4778883819	 0.5336325585	 0.115667
H	 3.4316684469	 0.3190520633	 1.7353517783	 0.116625
H	 4.0794996483	 0.3115231758	 0.0854902815	 0.123576
H	 0.7972074362	 0.8261956254	 2.649379493	 0.121248
H	-0.7213187575	 1.1483053288	 1.683653238	 0.113324
H	-0.9910249879	-1.1868698286	 1.4555260484	 0.23064
59.7599	175.1078	186.7935	209.6415	212.8269	218.8195	244.4692	268.4535	335.6582	385.3877	428.216	480.0297	554.217	575.658	661.6759	813.7479	854.6866	883.3454	902.8256	932.4483	941.4337	968.836	978.6401	1002.7925	1018.8171	1063.6539	1087.4818	1122.2156	1145.3928	1176.1483	1232.5557	1236.8976	1262.9518	1297.2198	1311.9467	1380.8709	1396.3387	1404.128	1409.4461	1433.4084	1471.4381	1476.5496	1483.1732	1491.0353	1495.9344	1499.3182	1522.0582	2967.9571	3032.4814	3034.1055	3041.7182	3101.1643	3103.302	3104.3549	3115.2782	3116.72	3119.0338	3121.7525	3186.7705	3484.5156
CC1OC(C)(C)C11CN1	C[C@H]1OC(C)(C)[C@]21CN2	
InChI=1S/C7H13NO/c1-5-7(4-8-7)6(2,3)9-5/h5,8H,4H2,1-3H3	InChI=1S/C7H13NO/c1-5-7(4-8-7)6(2,3)9-5/h5,8H,4H2,1-3H3/t5-,7-/m1/s1
