19
gdb 98360	2.13562	1.14248	0.83327	1.2129	75.74	-0.2447	0.0102	0.255	1426.5394	0.157363	-456.378487	-456.367895	-456.366951	-456.415937	36.036	
C	-0.835088184	 1.0748678013	-0.842708346	-0.333887
N	-1.2593891289	-0.2593945453	-0.4683902334	-0.306026
C	-0.5986757031	-1.0010515683	 0.4518801587	 0.378371
O	 0.4077789555	-0.6512220762	 1.044965881	-0.388755
C	-1.216387544	-2.3791188642	 0.7508164896	 0.010717
C	-1.7364877071	-2.4354522675	 2.1828612011	-0.393943
O	-2.2956330691	-2.6775691926	-0.1449861491	-0.205944
C	-2.0519525749	-3.5131614763	-1.1782668914	 0.125416
N	-2.8899876852	-3.6099938308	-2.1151282068	-0.445246
H	-0.6545514171	 1.1424730744	-1.9206839497	 0.130033
H	-1.585707109	 1.823770684	-0.5666092105	 0.129878
H	 0.0919101911	 1.2865294722	-0.3084057247	 0.169434
H	-2.0991609486	-0.6518494047	-0.8644917678	 0.273219
H	-0.4112170412	-3.112346476	 0.6178199461	 0.110516
H	-2.0714773012	-3.4461319417	 2.4287799371	 0.124848
H	-0.9370046739	-2.1402074556	 2.8649676347	 0.15307
H	-2.5790582322	-1.7492492388	 2.3071317829	 0.134191
H	-1.1045864327	-4.0606513405	-1.0813668741	 0.09996
H	-2.5781968046	-4.3022903535	-2.7929716076	 0.234148
26.172	55.2105	93.2165	111.9497	138.464	200.2336	230.7028	248.0712	288.1662	342.5745	431.1821	451.124	583.4884	631.1098	654.0953	753.8137	823.7978	860.1586	910.9248	1006.5112	1042.8344	1081.3807	1114.7899	1127.002	1141.3718	1156.1878	1178.9245	1271.9768	1286.9115	1320.1441	1357.2242	1398.9278	1423.0752	1440.8641	1489.1051	1492.4979	1498.512	1500.4205	1571.0599	1743.6005	1780.5507	3026.4029	3031.3686	3037.98	3052.5297	3085.1724	3126.8672	3148.0572	3152.7682	3520.4567	3634.6337
CNC(=O)C(C)OC=N	CNC(=O)[C@@H](C)O[CH][NH]	
InChI=1S/C5H10N2O2/c1-4(9-3-6)5(8)7-2/h3-4,6H,1-2H3,(H,7,8)	InChI=1S/C5H10N2O2/c1-4(9-3-6)5(8)7-2/h3-4,6H,1-2H3,(H,7,8)/t4-/m1/s1
