19
gdb 45617	3.90508	0.98858	0.85005	2.97	83.81	-0.2308	-0.0146	0.2162	1371.641	0.159246	-385.914438	-385.906122	-385.905177	-385.948175	31.6	
O	-0.0430634456	 0.028088355	-0.1338407594	-0.303813
C	-0.0527622912	 1.2285360407	-0.0698720461	 0.398931
C	-1.2792979776	 2.1125382483	 0.1997019294	-0.366312
C	-0.7104709079	 3.5024315766	 0.1675567773	-0.204512
C	 0.6084590419	 3.5377464395	-0.0712852098	 0.360558
C	 1.1693039449	 2.1450232511	-0.2454064679	-0.442462
C	 1.4241225759	 4.763241303	-0.1569193675	-0.088621
C	 2.8564187382	 4.8115082127	 0.3477190305	-0.271934
C	 2.5876040956	 4.8873958483	-1.1261007347	-0.271932
H	-2.0483497439	 1.9245275403	-0.5617146073	 0.134573
H	-1.7337757448	 1.8356919239	 1.1606202758	 0.134574
H	-1.3201738049	 4.3856955203	 0.3243377867	 0.090709
H	 1.9360515812	 1.8794703119	 0.4937736543	 0.136626
H	 1.6218455148	 1.9683856043	-1.2296830534	 0.136626
H	 0.8515782181	 5.6737256033	-0.0055819342	 0.084164
H	 3.1711612604	 5.7094704359	 0.8672778402	 0.118501
H	 3.2893401706	 3.898030869	 0.7393869298	 0.117911
H	 2.8381623944	 4.0252767008	-1.7337500678	 0.117909
H	 2.7155219199	 5.8380497952	-1.6312995558	 0.118503
62.2196	66.0623	163.0621	172.5353	321.9394	382.88	462.9993	472.3609	528.632	550.1723	658.6468	782.4798	789.6948	805.22	823.6942	842.2236	849.6615	921.775	929.1718	998.6027	1002.3814	1040.956	1057.4712	1076.5954	1126.1768	1132.2126	1135.5675	1185.1453	1193.7816	1202.0316	1236.0383	1267.0556	1286.1051	1366.2472	1401.9942	1441.6848	1448.6213	1467.2291	1499.1895	1697.0845	1853.8596	3017.8126	3026.0618	3042.4208	3054.3965	3136.9223	3140.3668	3148.6551	3186.8044	3215.4128	3230.6753
O=C1CC=C(C1)C1CC1	O=C1CC=C(C1)C1CC1	
InChI=1S/C8H10O/c9-8-4-3-7(5-8)6-1-2-6/h3,6H,1-2,4-5H2	InChI=1S/C8H10O/c9-8-4-3-7(5-8)6-1-2-6/h3,6H,1-2,4-5H2
