19
gdb 70653	2.4405	1.5485	1.15853	0.831	80.5	-0.2508	0.0492	0.3	1112.7269	0.159138	-385.856319	-385.847884	-385.846939	-385.888936	33.604	
O	 0.3230673581	 1.1538921291	-0.3355707739	-0.477334
C	-0.0070433542	-0.173298581	-0.0791822642	 0.419125
C	-0.7242758698	-0.9884105598	-1.1231674489	-0.354828
C	-1.4353741958	-0.5686587765	 0.1552005111	-0.085985
C	-1.4783464484	-1.5700844111	 1.2995233941	-0.226326
C	-0.0300328482	-2.1020683371	 1.4143690695	-0.24533
C	 0.8650792845	-0.9248746491	 0.9372082766	-0.212172
C	 2.1678356745	-1.3193598747	 0.4166770011	 0.293812
C	 3.2357585436	-1.6286454896	-0.0427979335	-0.45668
H	 1.1253358617	 1.1555858945	-0.8709485053	 0.287449
H	-1.0069941497	-0.4445880477	-2.0175596808	 0.114476
H	-0.4622458722	-2.0284391957	-1.289000096	 0.11344
H	-2.219531283	 0.1749715754	 0.0693304091	 0.094287
H	-1.7711417691	-1.0535144453	 2.2212931373	 0.104376
H	-2.1974989239	-2.3807043533	 1.1412654764	 0.100927
H	 0.2275902677	-2.423264083	 2.4259573123	 0.109727
H	 0.1209635114	-2.9635908073	 0.7586086582	 0.117734
H	 1.017387835	-0.2273469224	 1.7721210468	 0.109799
H	 4.1813363278	-1.9092658856	-0.4358975999	 0.193503
102.752	121.8028	231.9922	259.6862	310.6445	355.4747	366.3033	437.7747	492.5922	533.7069	551.8719	620.0593	624.709	634.9437	707.1509	816.3869	843.4895	888.0376	938.3525	945.1274	963.5403	981.9352	1038.3705	1046.2796	1070.0851	1079.6292	1097.3735	1176.8842	1210.4993	1241.4752	1262.7805	1286.7547	1314.9041	1335.0094	1336.7229	1365.7412	1414.2511	1488.1209	1493.5061	1513.7661	2230.4212	3015.4915	3033.9005	3065.8729	3076.7063	3114.349	3130.8266	3176.9481	3220.1509	3503.875	3784.459
OC12CC1CCC2C#C	O[C@]12C[C@H]1CC[C@H]2C#C	
InChI=1S/C8H10O/c1-2-6-3-4-7-5-8(6,7)9/h1,6-7,9H,3-5H2	InChI=1S/C8H10O/c1-2-6-3-4-7-5-8(6,7)9/h1,6-7,9H,3-5H2/t6-,7-,8+/m1/s1
