21
gdb 91458	2.42518	1.87206	1.39536	1.1902	81.58	-0.2353	0.0161	0.2514	1017.3396	0.184311	-387.103031	-387.095119	-387.094175	-387.134634	33.104	
C	-0.1049555572	 1.5475888426	 0.0438858659	-0.415741
C	 0.0328758297	 0.0233566899	 0.0201746125	 0.036018
C	 0.8822066437	-0.5208432236	-1.1724710978	-0.226855
C	 2.0012304298	-1.3664207363	-0.4735091895	-0.06688
C	 2.2790617155	-0.478148029	 0.7601853484	-0.276623
C	 0.8114858528	-0.5568461272	 1.2552219876	 0.401009
O	 0.4555347743	 0.1088203972	 2.4402703016	-0.517323
C	 0.594332317	-2.0662593204	 1.2134419873	-0.160087
C	 1.3051656162	-2.5472567961	 0.1906245083	-0.08001
H	 0.8705993689	 2.0451695161	 0.0574617754	 0.110564
H	-0.6412439438	 1.8963140572	-0.8452753941	 0.106015
H	-0.657112201	 1.8732848509	 0.9287887746	 0.130241
H	-0.9719748	-0.4096042114	 0.0062361575	 0.06969
H	 0.2955662249	-1.1161133986	-1.8763720028	 0.094914
H	 1.3317930442	 0.3055067439	-1.7332964307	 0.09449
H	 2.8469164939	-1.6087765264	-1.1177778632	 0.059488
H	 2.9826765262	-0.9309530058	 1.4645160389	 0.084207
H	 2.6016741639	 0.5375810144	 0.5131924926	 0.093572
H	 0.9427505412	-0.2955846733	 3.1653592678	 0.27487
H	-0.1184522552	-2.5830371892	 1.8451769163	 0.094498
H	 1.3084613548	-3.5602292649	-0.1933150668	 0.093945
148.4061	228.0095	260.6487	279.5568	351.9211	356.515	396.2889	413.2185	511.3132	524.2787	621.916	656.7119	727.3339	768.4574	784.406	845.0446	873.9352	913.1615	920.4398	928.787	947.3834	964.8869	1018.1502	1055.9888	1075.0164	1085.1487	1101.3153	1123.1349	1157.5645	1179.8199	1215.1117	1242.5544	1247.0185	1296.1569	1302.4305	1327.1807	1347.03	1359.3127	1376.6426	1409.294	1485.2605	1495.0036	1497.4542	1506.1357	1645.6533	3033.377	3045.8691	3049.0516	3054.1854	3095.2659	3098.5585	3105.9969	3108.6915	3122.1019	3189.433	3215.6303	3813.8382
CC1CC2CC1(O)C=C2	C[C@H]1C[C@H]2C[C@]1(O)C=C2	
InChI=1S/C8H12O/c1-6-4-7-2-3-8(6,9)5-7/h2-3,6-7,9H,4-5H2,1H3	InChI=1S/C8H12O/c1-6-4-7-2-3-8(6,9)5-7/h2-3,6-7,9H,4-5H2,1H3/t6-,7-,8+/m0/s1
