18
gdb 26713	3.1603	1.2009	0.87973	4.9764	83.78	-0.2123	-0.0262	0.1861	1295.5828	0.147264	-402.016204	-402.006909	-402.005964	-402.050575	33.239	
C	-0.0338798617	 1.5146645701	 0.0998842515	-0.504983
C	 0.004389217	 0.0280374977	-0.0354378889	 0.245349
C	-0.0077030718	-0.8009413126	-1.1343950302	 0.086911
C	-0.0666740905	-0.3880936349	-2.5756234715	-0.514482
C	 0.0472067882	-2.1543820126	-0.6414900994	 0.108153
C	 0.0575684146	-3.3898827466	-1.4096239195	 0.069824
O	 0.1052061784	-4.5076728568	-0.9340281953	-0.298051
C	 0.0905267978	-2.0900801915	 0.7407918089	-0.144169
N	 0.0643171643	-0.7808264635	 1.0909260959	-0.304142
H	 0.8562981736	 1.9046486771	 0.6093576046	 0.130521
H	-0.0791682051	 1.9872439489	-0.8830093915	 0.142312
H	-0.9101910228	 1.8540285546	 0.6664325169	 0.130541
H	 0.806623018	-0.7406476358	-3.1361686463	 0.132552
H	-0.9530147559	-0.7912461424	-3.0786409467	 0.132554
H	-0.101360006	 0.6995918024	-2.6792995449	 0.120078
H	 0.0175166757	-3.2513135625	-2.5136336726	 0.052786
H	 0.1369847336	-2.8842280558	 1.467587361	 0.150819
H	 0.0857053528	-0.436663876	 2.0363100081	 0.263427
74.7334	107.3112	117.1751	172.1021	184.7424	280.8122	286.527	298.5719	364.5564	492.9865	526.5527	630.7534	652.002	676.1549	726.6085	794.8799	810.0597	943.3258	978.3782	1038.8025	1056.6823	1068.8113	1108.6829	1119.5285	1203.4851	1249.8356	1345.4772	1395.757	1417.1567	1429.2551	1461.9821	1468.4749	1480.3881	1485.6319	1492.8754	1501.7728	1548.4801	1636.7003	1774.4049	2872.0022	3017.775	3029.5597	3061.2036	3076.8877	3110.1106	3130.5673	3276.9785	3663.996
CC1=C(C)C(C=O)=CN1	Cc1c(C)c(C=O)c[nH]1	
InChI=1S/C7H9NO/c1-5-6(2)8-3-7(5)4-9/h3-4,8H,1-2H3	InChI=1S/C7H9NO/c1-5-6(2)8-3-7(5)4-9/h3-4,8H,1-2H3
