14
gdb 42250	2.92483	1.11983	0.99026	4.0859	77.51	-0.2549	-0.0655	0.1895	1210.3596	0.097729	-399.451009	-399.442127	-399.441183	-399.4854	31.928	
O	 0.4329276448	 0.3824864813	 1.0965808204	-0.281924
C	 0.2792497163	 1.3579741443	 0.3991919153	 0.287784
C	 1.3665780512	 1.9403855226	-0.371931257	 0.239967
C	 2.255403963	 2.4250481113	-1.0235506362	-0.420497
C	-1.024101546	 2.0978806166	 0.2788474024	-0.147374
N	-2.232242447	 1.3934973541	 0.7050947787	-0.300803
C	-1.780018853	 2.5221867811	 1.5249534294	-0.253325
C	-1.306863104	 2.2559682875	 2.8530300007	 0.409911
C	-0.9227504537	 2.0909529543	 3.9791970638	-0.430919
H	 3.0542862179	 2.8407961639	-1.5884712958	 0.216742
H	-1.0804367139	 2.7912163171	-0.5569607699	 0.106926
H	-3.0193949232	 1.6749739038	 0.1261127193	 0.246505
H	-2.3104422022	 3.4670966286	 1.418172045	 0.121541
H	-0.5772000402	 1.9181261435	 4.9684579141	 0.205465
36.0085	101.6021	141.068	196.9415	224.9945	273.2604	295.9121	461.6196	524.7999	550.989	604.5031	636.1038	652.2142	665.5494	702.2415	739.294	787.5137	855.5964	875.3517	931.5692	989.1084	1084.4182	1109.6112	1184.6844	1187.2993	1235.4547	1405.593	1447.8292	1774.6336	2210.2719	2246.3579	3118.4851	3141.9726	3493.3328	3503.6775	3508.0283
O=C(C#C)C1NC1C#C	O=C(C#C)[C@H]1N[C@H]1C#C	
InChI=1S/C7H5NO/c1-3-5-7(8-5)6(9)4-2/h1-2,5,7-8H	InChI=1S/C7H5NO/c1-3-5-7(8-5)6(9)4-2/h1-2,5,7-8H/t5-,7-/m0/s1
