19
gdb 125668	2.95245	1.26379	0.9574	1.9017	82.49	-0.2152	0.028	0.2432	1256.2817	0.160806	-382.087056	-382.078424	-382.07748	-382.122001	32.059	
C	-0.2208358998	 1.4686447926	-0.0353391682	-0.500125
C	-0.0605216804	-0.0184935729	 0.0218595227	 0.263059
N	-0.1121479028	-0.7440321335	-1.0949308888	-0.286357
N	 0.0661928069	-2.0123502146	-0.6835550628	-0.189326
C	 0.2287288174	-2.1181190571	 0.6579437078	-0.146094
C	 0.1539193719	-0.8349974616	 1.1676524233	 0.180012
C	 0.2660342921	-0.3814623769	 2.5704069012	-0.109863
C	-0.2810273016	-1.2091494725	 3.7170167393	-0.263232
C	 1.2052178508	-1.0583457035	 3.5495034798	-0.263304
H	 0.6623317676	 1.9873052578	 0.3547944723	 0.125617
H	-0.3706540599	 1.781361475	-1.0707551917	 0.138677
H	-1.0816665215	 1.8068850315	 0.552666425	 0.125618
H	 0.0658158278	-2.7514184664	-1.3646942934	 0.27069
H	 0.3816073408	-3.074353407	 1.1339158688	 0.127326
H	 0.170247852	 0.6930059872	 2.6882038508	 0.079805
H	-0.7640847802	-0.691208326	 4.5384675034	 0.112452
H	-0.7323079733	-2.163011184	 3.4650649246	 0.111309
H	 1.7699347423	-1.9091464005	 3.1831387565	 0.111284
H	 1.7448207999	-0.4366412976	 4.2556877194	 0.112451
13.3815	113.8583	153.9463	169.1667	264.4663	273.6135	424.092	459.6611	477.1202	591.625	669.3666	711.2793	713.0222	777.4937	794.9475	817.0213	914.3337	914.4332	949.1686	1005.8315	1058.1055	1066.0555	1066.8808	1074.3144	1100.1143	1125.8416	1133.95	1201.5245	1218.6908	1226.1075	1327.5804	1382.2059	1407.7651	1410.9767	1467.8389	1476.4748	1484.1174	1491.9091	1496.1512	1527.6824	1610.265	3030.1361	3078.9977	3128.0446	3130.9294	3132.2724	3157.7339	3207.3814	3223.9269	3250.9141	3682.9687
CC1=NNC=C1C1CC1	Cc1n[nH]cc1C1CC1	
InChI=1S/C7H10N2/c1-5-7(4-8-9-5)6-2-3-6/h4,6H,2-3H2,1H3,(H,8,9)	InChI=1S/C7H10N2/c1-5-7(4-8-9-5)6-2-3-6/h4,6H,2-3H2,1H3,(H,8,9)
