23
gdb 80388	2.12155	1.57877	1.3412	1.3771	86.	-0.242	0.0724	0.3145	1146.6151	0.203637	-388.27412	-388.264168	-388.263223	-388.307749	38.94	
C	-0.0316936259	 1.5680265377	-0.0231693988	-0.414707
C	 0.1022349356	 0.0616469868	 0.0844151366	-0.052517
C	 1.3441577634	-0.7413742153	-0.1911171313	-0.120417
C	 2.5866401323	-0.0177897429	 0.3329898104	-0.303475
C	 1.9787800193	-0.0821132003	 1.7815068362	 0.336685
C	 2.7832399501	-1.0010070689	 2.6987090357	-0.449988
O	 1.712035285	 1.1480179364	 2.4434375061	-0.475763
C	 0.7066439505	-0.7401156396	 1.2159241566	 0.329886
C	-0.0855860588	-1.7993791456	 1.9349558665	-0.510343
H	 0.8251857934	 2.0950294593	 0.3945423211	 0.133441
H	-0.1540966464	 1.8661636308	-1.0712213569	 0.102463
H	-0.9159571601	 1.9111608307	 0.5250166952	 0.112783
H	-0.7822236112	-0.4537296103	-0.2905911822	 0.076215
H	 1.3602875409	-1.5473395218	-0.9162214447	 0.076858
H	 3.5089602162	-0.5969115576	 0.2403397799	 0.092317
H	 2.7620506076	 0.9870403982	-0.0621109631	 0.094364
H	 3.7605404182	-0.5516626889	 2.9168663208	 0.10262
H	 2.2592347708	-1.1575080378	 3.6464768229	 0.123392
H	 2.9659008736	-1.9751507667	 2.2359146245	 0.121857
H	 2.5358832068	 1.4623347268	 2.8317131013	 0.272426
H	-0.6595763239	-1.3683461909	 2.7642768404	 0.124869
H	-0.8004659461	-2.276658723	 1.2568594862	 0.114894
H	 0.5524657186	-2.5874899669	 2.3492272068	 0.11214
124.9372	175.0197	181.2334	196.8238	221.6935	272.4146	281.4745	294.4356	296.5978	378.7654	393.4197	440.0107	501.6274	557.8109	632.3655	663.0891	739.212	810.7061	873.6915	903.8101	916.292	937.8879	958.9012	990.9037	1014.0619	1059.3259	1089.0818	1105.2439	1118.7745	1128.7914	1161.7207	1183.8328	1220.9839	1243.5138	1261.1819	1269.9446	1340.4426	1380.6956	1401.8016	1411.9963	1415.361	1457.8017	1482.9062	1484.2539	1489.0995	1495.9028	1498.1952	1503.5861	1508.6303	3020.714	3023.0398	3030.615	3049.4126	3080.4364	3084.2545	3089.0937	3094.8752	3099.0809	3103.3643	3116.302	3156.5371	3170.6338	3797.8675
CC1C2CC(C)(O)C12C	C[C@H]1[C@H]2C[C@@](C)(O)[C@@]12C	
InChI=1S/C8H14O/c1-5-6-4-7(2,9)8(5,6)3/h5-6,9H,4H2,1-3H3	InChI=1S/C8H14O/c1-5-6-4-7(2,9)8(5,6)3/h5-6,9H,4H2,1-3H3/t5-,6+,7+,8-/m0/s1
