18
gdb 131813	5.59405	0.65154	0.6213	2.8138	74.27	-0.2613	-0.0061	0.2552	1756.5038	0.147567	-439.076811	-439.067855	-439.06691	-439.112087	31.624	
O	 0.0121438292	 1.3530904756	-0.4668724159	-0.421045
C	 0.0207324262	 0.0346453412	 0.0563952023	-0.072279
C	-1.3685175434	-0.5554614237	-0.1483097537	-0.167224
C	-1.4681542565	-2.0045366225	 0.3558861239	-0.323633
C	-2.8316143083	-2.5952122744	 0.1630626981	 0.391492
N	-3.5570549707	-2.9312173289	 1.2046882943	-0.201249
O	-4.7541593831	-3.4316262435	 0.6946912318	-0.163657
C	-4.7066825963	-3.3788961001	-0.6429177393	 0.084359
C	-3.5245431287	-2.8622441982	-1.0574089475	-0.32884
H	 0.8764831402	 1.7446763193	-0.3118511705	 0.286798
H	 0.7703273124	-0.5933487033	-0.4538897474	 0.083541
H	 0.2707822956	 0.0305000438	 1.1299055491	 0.089402
H	-2.1005543292	 0.0710944265	 0.3724730945	 0.121597
H	-1.6132708715	-0.505256279	-1.2155827155	 0.109502
H	-0.7310138613	-2.6260240603	-0.1689634793	 0.113616
H	-1.2262636673	-2.0526326588	 1.4223148864	 0.127917
H	-5.5812579148	-3.7436528824	-1.1595070523	 0.149786
H	-3.1890525726	-2.6955316914	-2.0674011692	 0.119916
39.9012	79.3221	92.3092	124.2209	251.344	260.1909	318.4297	334.0435	468.0641	615.3282	682.3545	745.9001	764.5505	799.421	868.0362	872.2957	908.1259	942.1886	996.7563	1022.6901	1038.8381	1077.9019	1086.3577	1109.4159	1160.5211	1210.1541	1232.9251	1287.3775	1299.7543	1311.8904	1316.8639	1379.0324	1449.7297	1465.1428	1478.4497	1486.8914	1499.6041	1528.1805	1611.9421	2956.6131	2984.4126	3024.7498	3043.1787	3077.0018	3097.3661	3259.1215	3283.7623	3831.8904
OCCCC1=NOC=C1	OCCCc1nocc1	
InChI=1S/C6H9NO2/c8-4-1-2-6-3-5-9-7-6/h3,5,8H,1-2,4H2	InChI=1S/C6H9NO2/c8-4-1-2-6-3-5-9-7-6/h3,5,8H,1-2,4H2
