20
gdb 112946	3.17488	1.08053	0.95404	11.8299	76.25	-0.1751	0.0008	0.1759	1300.661	0.17188	-440.254682	-440.245537	-440.244593	-440.289984	33.315	
C	 0.2189520572	 1.0839956	-0.5740735926	-0.411896
C	-0.0760454564	-0.378986286	-0.2841855342	-0.177511
N	-1.4909253361	-0.5694642338	 0.1835608185	-0.082484
H	-1.6592676675	 0.0325085471	 0.9875562675	 0.275681
C	-1.9258718498	-2.0199601663	 0.426596453	-0.183708
C	-2.8644206957	-1.9695838818	-0.8002214483	-0.125006
C	-2.596940701	-0.4521210972	-0.8793184012	-0.185338
C	-2.2307154413	-2.7382645763	-2.0328488448	 0.351239
O	-2.9071634687	-3.6466262617	-2.5078495712	-0.441587
O	-1.0881956466	-2.2956004377	-2.3312315806	-0.490457
H	 1.2589089179	 1.1779018242	-0.8968108709	 0.15658
H	-0.4101582224	 1.4713209017	-1.3804624312	 0.148971
H	 0.0866271657	 1.7205858994	 0.3089541048	 0.117987
H	-0.0039546647	-1.0277635478	-1.1663420942	 0.230088
H	 0.5612862796	-0.7650846706	 0.5180009499	 0.125609
H	-1.0702023714	-2.6896457936	 0.3470529359	 0.170362
H	-2.3956149635	-2.0963158156	 1.4092509319	 0.128637
H	-3.8948709307	-2.2641228523	-0.6124138757	 0.093462
H	-3.3779029241	 0.2177626493	-0.51474261	 0.125186
H	-2.1780681905	-0.1151981709	-1.8257876164	 0.174184
18.8804	89.7775	154.1744	203.7484	221.0232	244.0977	265.7693	381.299	412.1813	438.6923	603.9069	725.1425	767.9712	806.2717	814.8242	830.5859	848.5345	911.011	940.8256	988.5375	1013.437	1038.0412	1057.6047	1092.9452	1119.2003	1171.6152	1228.8738	1243.4529	1258.0485	1290.9775	1293.1923	1310.0062	1334.1874	1364.1619	1387.1306	1419.5078	1437.0145	1455.4881	1482.9283	1493.7587	1498.1595	1516.9538	1786.355	3016.0253	3035.6082	3079.1083	3083.1088	3087.7362	3109.7625	3129.1372	3134.1392	3159.2493	3170.7369	3481.5947
CC[NH+]1CC(C1)C([O-])=O	CC[NH]1CC(C1)C(=O)[O]	
InChI=1S/C6H11NO2/c1-2-7-3-5(4-7)6(8)9/h5H,2-4H2,1H3,(H,8,9)	InChI=1S/C6H11NO2/c1-2-7-3-5(4-7)6(8)9/h5,7H,2-4H2,1H3
