21
gdb 122663	4.50426	0.77695	0.69289	2.4132	81.79	-0.2503	0.0147	0.265	1646.1591	0.18281	-424.224583	-424.215293	-424.214348	-424.260054	33.962	
O	-0.1949152197	 1.4725686805	 0.1148507488	-0.422214
C	 0.0389699162	 0.0912090226	-0.069922734	-0.056709
C	-1.2675883925	-0.6876523072	-0.1151966286	-0.079928
O	-2.0201019508	-0.1467558575	-1.1866865789	-0.274559
C	-3.3814684532	-0.5639614191	-1.2447099267	 0.116936
C	-4.1390670448	 0.3435285148	-2.2386635237	-0.244833
C	-5.0816701143	-0.5892966608	-3.0378113513	-0.256198
C	-4.5076312877	-1.9607333514	-2.7764222361	-0.060216
C	-3.5915255912	-1.9525979632	-1.8107847556	-0.089585
H	-0.881518038	 1.701096801	-0.5234286887	 0.28692
H	 0.6029634246	-0.102004447	-0.9966668825	 0.092319
H	 0.6476402218	-0.2544607069	 0.7722232835	 0.105627
H	-1.0715387074	-1.7619279954	-0.2584964691	 0.088152
H	-1.8130437442	-0.5603633683	 0.8336756406	 0.094151
H	-3.8009600862	-0.4964929395	-0.2259718303	 0.069943
H	-4.6632060957	 1.1635486505	-1.7432583118	 0.100945
H	-3.3883443868	 0.7813562112	-2.9029562831	 0.119993
H	-6.1161938243	-0.5278355009	-2.6737807872	 0.110559
H	-5.1199428771	-0.342163379	-4.104803643	 0.107677
H	-4.8466293661	-2.8436950821	-3.3081789556	 0.09618
H	-3.0715570727	-2.8231268921	-1.4276360467	 0.094839
41.858	63.7905	81.8512	164.8347	192.1704	285.2394	322.1596	394.5684	446.4683	486.5087	552.8	650.6907	753.3398	778.8012	840.4425	876.2803	900.3428	911.2365	930.1492	974.603	990.641	1025.5303	1058.4256	1081.5158	1090.2671	1119.6681	1139.8012	1151.2194	1186.9302	1236.6092	1240.3955	1263.1897	1292.4815	1308.5186	1333.478	1350.5981	1385.8868	1387.8013	1419.3572	1442.7842	1480.8617	1498.2817	1500.7849	1509.124	1687.0113	2945.6399	2970.5695	2976.9483	3012.1596	3017.6938	3053.4456	3068.0512	3077.2614	3115.493	3180.7074	3208.6193	3788.3381
OCCOC1CCC=C1	OCCO[C@H]1CCC=C1	
InChI=1S/C7H12O2/c8-5-6-9-7-3-1-2-4-7/h1,3,7-8H,2,4-6H2	InChI=1S/C7H12O2/c8-5-6-9-7-3-1-2-4-7/h1,3,7-8H,2,4-6H2/t7-/m1/s1
