19
gdb 127142	2.47898	1.51839	0.99338	3.1499	79.13	-0.213	0.0088	0.2218	1210.2516	0.159003	-419.196917	-419.187754	-419.18681	-419.230793	33.53	
C	 0.8353934719	-0.0110076103	-0.7783158643	-0.344432
N	-0.1394811905	 0.1371807306	 0.2948644259	-0.152276
C	-0.1440261014	 1.4683784717	 0.8898473895	-0.320908
C	-1.3861355386	-0.4435912729	 0.1181752619	 0.376933
N	-2.4827658905	 0.2311884822	 0.4108555805	-0.236513
O	-3.5392262764	-0.6640859903	 0.2304469136	-0.186161
C	-3.0372035781	-1.8340633684	-0.1813563985	 0.016766
C	-1.6857312696	-1.7974449534	-0.2830228894	 0.066383
C	-0.7716797646	-2.9286583013	-0.6368092097	-0.517847
H	 1.8258099553	 0.2555669263	-0.3972888501	 0.126338
H	 0.8764212152	-1.0419380063	-1.1279216025	 0.132621
H	 0.6147189675	 0.638620676	-1.6413466902	 0.114773
H	-0.5222864258	 2.2397746079	 0.2017724681	 0.118854
H	-0.7800930056	 1.4706024397	 1.7758350136	 0.149681
H	 0.8801380671	 1.7249328031	 1.1760339818	 0.112955
H	-3.7550724082	-2.6233614865	-0.3502882218	 0.142625
H	-1.3160662949	-3.8769623567	-0.6222301971	 0.126563
H	-0.3337306474	-2.8222923624	-1.6361443529	 0.134631
H	 0.0551860845	-3.009225239	 0.0768167918	 0.139016
64.3857	151.0305	193.1608	198.9439	221.5765	238.9931	271.5076	299.7028	381.2215	406.2408	517.3219	595.8788	604.2638	694.1015	746.5746	842.0746	914.5009	943.549	974.9139	1021.0265	1067.9733	1077.9707	1124.8761	1166.2108	1179.2294	1186.9402	1245.4133	1289.5236	1333.9018	1419.27	1429.4893	1446.2082	1462.8678	1476.8403	1483.2982	1493.2068	1498.792	1504.1225	1508.8351	1562.3992	1664.1776	2972.1279	2992.7085	3027.1875	3079.3155	3080.2528	3080.7395	3108.7843	3142.8746	3156.869	3250.6927
CN(C)C1=NOC=C1C	CN(C)c1nocc1C	
InChI=1S/C6H10N2O/c1-5-4-9-7-6(5)8(2)3/h4H,1-3H3	InChI=1S/C6H10N2O/c1-5-4-9-7-6(5)8(2)3/h4H,1-3H3
