24
gdb 118548	1.94789	0.98443	0.7205	3.5276	87.29	-0.2481	0.0344	0.2825	1692.7312	0.215612	-405.592717	-405.581225	-405.58028	-405.631357	40.178	
C	-0.0824912741	 1.4027291478	 0.1370379362	-0.380722
C	 0.0202581202	-0.1216441875	 0.0369043066	-0.169249
C	 0.7219322246	-0.5870954949	-1.2429416495	-0.174575
C	 0.8265329623	-2.1141257387	-1.3954499916	 0.024566
C	 1.4061798933	-2.510130532	-2.7650538534	-0.179814
C	 1.4195594235	-4.0176189469	-3.0272459723	-0.38464
N	 1.6080214025	-2.6996311262	-0.3067347752	-0.266607
C	 1.1178559246	-3.5996555973	 0.5871097451	 0.15451
O	-0.0156640393	-4.0314793371	 0.6065373716	-0.327603
H	 0.9090676946	 1.8697234457	 0.132526769	 0.110467
H	-0.6460914533	 1.8202870898	-0.7048356137	 0.113602
H	-0.5882129414	 1.7069483998	 1.0585779906	 0.114512
H	 0.5575924179	-0.5117183546	 0.9090285649	 0.099136
H	-0.9830900288	-0.5637217403	 0.078572615	 0.107921
H	 0.1838706311	-0.1957453734	-2.1158494312	 0.098283
H	 1.7308327678	-0.1499738672	-1.2921137031	 0.082924
H	-0.1701199438	-2.5544440218	-1.2882128264	 0.1209
H	 0.8154759993	-2.0060505605	-3.5393184057	 0.101575
H	 2.424909086	-2.1054601473	-2.8520885354	 0.086344
H	 0.4088089024	-4.4355408611	-2.9790018206	 0.127998
H	 1.8289332034	-4.2379707148	-4.0177438996	 0.111679
H	 2.0291201828	-4.5450695636	-2.2876643637	 0.118265
H	 2.5738966244	-2.4232615507	-0.2119798367	 0.241092
H	 1.89105444	-3.906026607	 1.3208989191	 0.069434
15.9497	69.5826	81.0955	114.0399	120.2039	179.0009	218.6161	236.3911	248.9821	292.0329	334.2542	368.9667	449.3294	533.8764	555.7014	740.5337	747.7754	789.4176	852.4948	894.8459	915.3158	962.9492	1014.4736	1028.5794	1038.0051	1057.3316	1080.8044	1130.6506	1156.2868	1170.5861	1209.6207	1258.7679	1289.1615	1300.2095	1329.5796	1345.54	1377.2282	1386.1204	1397.6101	1412.1025	1414.2329	1431.8334	1476.0298	1481.3426	1492.4194	1496.3119	1500.6337	1506.5996	1509.6515	1530.5195	1803.074	2924.0345	2995.0823	3007.5116	3027.54	3031.2305	3039.3528	3040.4949	3053.8132	3065.251	3079.3071	3095.7332	3102.9449	3108.0211	3112.412	3613.5419
CCCC(CC)NC=O	CCC[C@@H](CC)NC=O	
InChI=1S/C7H15NO/c1-3-5-7(4-2)8-6-9/h6-7H,3-5H2,1-2H3,(H,8,9)	InChI=1S/C7H15NO/c1-3-5-7(4-2)8-6-9/h6-7H,3-5H2,1-2H3,(H,8,9)/t7-/m1/s1
