18
gdb 63445	1.85455	1.77226	1.08335	4.2934	84.19	-0.2592	0.01	0.2692	1163.1372	0.144548	-364.789245	-364.779504	-364.77856	-364.823183	36.338	
C	-0.0682887236	 1.5210505413	-0.0010409597	-0.455946
C	-0.01114164	 0.007012292	-0.0265867708	 0.285536
C	-1.2589147055	-0.6577066198	-0.5748605187	-0.458373
C	 1.3072497398	-0.6557277912	-0.2536909656	-0.338569
C	 0.7104948171	-0.6920275832	 1.1672096689	-0.037265
C	 1.3259032706	 0.0966095995	 2.2009510442	 0.263553
C	 1.8397204374	 0.7504315452	 3.0687549134	-0.423767
C	 0.1836751424	-1.9579818	 1.6209395136	 0.243488
N	-0.244487614	-2.9725620615	 1.9752045201	-0.354913
H	 0.8333192277	 1.9577367099	 0.4320438958	 0.135127
H	-0.1794588731	 1.9014103505	-1.0223335672	 0.124756
H	-0.9266633088	 1.8693132403	 0.5825789652	 0.130941
H	-1.4160692357	-0.343868781	-1.6126190751	 0.124735
H	-1.1903415988	-1.7474439437	-0.5562348012	 0.144534
H	-2.1427200673	-0.3659929136	 0.0017159928	 0.133381
H	 1.3340949289	-1.6015174555	-0.7832060661	 0.141431
H	 2.1924407416	-0.0400482044	-0.3645575533	 0.138326
H	 2.2926084715	 1.3230401651	 3.8401504237	 0.203025
110.9556	135.2133	158.1457	161.1758	190.6068	231.8052	311.6619	350.5672	375.8117	385.3976	476.0231	504.1745	576.8823	591.7878	599.205	606.8531	671.1002	732.5033	843.1501	917.323	942.9723	976.591	992.2427	1039.8349	1083.2802	1137.0409	1141.6465	1230.1648	1313.8379	1356.3125	1414.3043	1428.2413	1476.8864	1479.0384	1488.2899	1501.8581	1508.9632	2240.0547	2350.3797	3035.7726	3040.2418	3098.0682	3101.6859	3129.2757	3134.6957	3141.1098	3234.7375	3501.207
CC1(C)CC1(C#C)C#N	CC1(C)C[C@]1(C#C)C#N	
InChI=1S/C8H9N/c1-4-8(6-9)5-7(8,2)3/h1H,5H2,2-3H3	InChI=1S/C8H9N/c1-4-8(6-9)5-7(8,2)3/h1H,5H2,2-3H3/t8-/m1/s1
