20
gdb 6472	3.23226	1.48368	1.26779	2.4545	70.54	-0.2551	0.0639	0.319	1050.3489	0.175639	-386.13046	-386.12151	-386.120566	-386.163569	33.966	
C	 0.5980266785	 1.4450065978	 0.2032118021	-0.39949
C	-0.0043241009	 0.0531819846	 0.042629305	 0.043601
C	 0.7109687606	-0.8876020531	-0.977506302	-0.306326
C	 1.2502896703	-1.7456622571	 0.202118841	 0.39503
O	 1.0658995621	-3.1539573283	 0.1281006161	-0.493443
C	 2.7422050463	-1.5816230777	 0.474071011	-0.076893
O	 3.1168187044	-2.2094252235	 1.6824182068	-0.428653
C	 0.3249149448	-0.9659419653	 1.1782091791	-0.307844
H	 1.6755958356	 1.4029973785	 0.396528336	 0.120359
H	 0.4480176466	 2.0455927196	-0.7007724167	 0.114831
H	 0.1350952692	 1.9785752883	 1.0405825748	 0.116352
H	-1.0769280749	 0.1522051053	-0.1468124358	 0.070386
H	 0.0185924745	-1.4549009558	-1.6059390182	 0.093516
H	 1.4648571138	-0.429179751	-1.6262656019	 0.097766
H	 0.1240106416	-3.3428130809	 0.1770800423	 0.279412
H	 3.2967372926	-1.9902466516	-0.3871644946	 0.089646
H	 3.000664795	-0.5227836124	 0.5663797604	 0.104975
H	 2.7310691597	-3.0930639551	 1.6387919373	 0.287311
H	 0.807480906	-0.5773953218	 2.0788298411	 0.115143
H	-0.5449069159	-1.5561959505	 1.4858590163	 0.08432
77.1787	133.3258	191.3515	229.7122	257.2612	295.79	311.4159	361.269	374.6935	443.2792	466.4308	516.7522	680.5671	783.5147	819.4362	834.9779	895.8593	920.8399	933.9455	945.4137	1036.2756	1050.5224	1080.7952	1102.5875	1134.1417	1141.4519	1161.1004	1215.405	1221.294	1251.0639	1275.3023	1299.5997	1367.8111	1369.7279	1396.6217	1411.3504	1443.0667	1465.0455	1485.727	1492.7918	1496.2391	1500.647	2970.3377	3026.0379	3040.1367	3042.5284	3055.8269	3087.037	3092.9216	3094.4032	3099.7885	3104.6394	3785.137	3826.0867
CC1CC(O)(CO)C1	C[C@H]1C[C@@](O)(CO)C1	
InChI=1S/C6H12O2/c1-5-2-6(8,3-5)4-7/h5,7-8H,2-4H2,1H3	InChI=1S/C6H12O2/c1-5-2-6(8,3-5)4-7/h5,7-8H,2-4H2,1H3/t5-,6-
