16
gdb 50402	3.33496	1.22196	0.91499	1.4138	74.29	-0.2576	-0.0445	0.2131	1206.1598	0.124199	-437.912905	-437.904882	-437.903937	-437.946201	29.361	
N	-0.233725695	 1.3842460995	 0.1446193354	-0.513099
C	-0.0945259373	 0.1232087762	 0.1893715444	 0.373994
O	 1.1495192797	-0.4573756597	 0.2341084518	-0.278969
C	 1.2305127167	-1.8098188043	 0.6946763851	 0.018563
C	 0.2462491419	-2.7360432952	-0.0139405626	-0.272109
C	-1.1133787415	-2.0982165572	-0.0148510002	-0.100042
C	-1.2513929404	-0.7763053607	 0.1155247411	-0.086992
C	 2.6854501479	-2.2231997545	 0.5329230755	 0.137876
O	 3.0431820058	-3.3683823988	 0.4572280865	-0.240074
H	 0.6798267967	 1.8407515008	 0.1866103941	 0.222998
H	 1.0127737527	-1.8232820361	 1.7763799391	 0.117794
H	 0.5806784253	-2.937434567	-1.0407022168	 0.136657
H	 0.240252786	-3.7026596409	 0.4980030497	 0.138793
H	-1.9832479768	-2.7359536877	-0.1395636465	 0.11515
H	-2.2147761333	-0.2819935671	 0.1149607358	 0.125171
H	 3.3951574816	-1.3687977571	 0.5044356678	 0.104287
59.9463	122.9863	141.3576	185.1842	328.2769	359.0445	433.7329	467.4051	513.8945	611.3796	638.9293	746.8263	814.8665	859.4097	872.5601	910.5518	921.991	969.5085	1012.9006	1063.1754	1076.4187	1112.9979	1124.0769	1191.2882	1217.1783	1297.0388	1321.2545	1358.2478	1372.2358	1405.8013	1415.7628	1465.6299	1685.8353	1735.3657	1840.7225	2913.5236	2965.4944	3026.1451	3091.3501	3176.9408	3221.3116	3468.6073
N=C1OC(CC=C1)C=O	[NH]C1=C[CH]C[C@H](O1)C=O	
InChI=1S/C6H7NO2/c7-6-3-1-2-5(4-8)9-6/h1,3-5,7H,2H2	InChI=1S/C6H7NO2/c7-6-3-1-2-5(4-8)9-6/h1,3-5,7H,2H2/t5-/m0/s1
