18
gdb 74600	3.88147	1.65725	1.46294	1.8395	78.98	-0.2117	0.013	0.2247	942.3076	0.149847	-364.747588	-364.741013	-364.740068	-364.778235	27.476	
C	-0.0394163595	 1.5229644454	 0.0496898857	-0.504688
C	-0.0398949061	 0.0321591595	-0.0385630926	 0.353365
C	-0.0600870758	-0.7554421108	-1.1225063374	-0.195024
C	 0.0413200241	-2.1790893768	-0.6658330502	-0.03999
C	 1.380049419	-2.5680268181	 0.0192830268	-0.092745
C	 1.3999997133	-1.6713826266	 1.2696944838	-0.093491
C	 0.6385326968	-2.9560461393	 1.2547989936	-0.04745
N	-0.5860537888	-2.1909806497	 0.727922141	-0.167193
C	 0.068207883	-0.8821494313	 1.1549282626	-0.108142
H	 0.8781607607	 1.8932575948	 0.5248880003	 0.128632
H	-0.1156319793	 1.9838456132	-0.9388784208	 0.126114
H	-0.8748684551	 1.884811116	 0.6619556793	 0.130422
H	-0.0730955998	-0.4336168215	-2.1570215908	 0.094675
H	-0.3727812425	-2.9490808987	-1.3181511425	 0.073049
H	 2.2875753983	-2.9803686059	-0.4033586448	 0.087798
H	 2.3210342888	-1.4173932514	 1.7790548314	 0.088211
H	 0.6063405409	-3.8323784125	 1.88535588	 0.097229
H	-0.3190185681	-0.5067083964	 2.1043699945	 0.069228
163.2715	172.8527	278.3882	401.9618	465.9289	555.8313	591.1769	704.9357	761.8728	788.5505	819.2612	829.0288	843.8023	871.8223	886.7457	890.0992	926.8599	955.2856	960.1042	1016.5762	1020.6002	1033.4079	1039.7316	1061.206	1065.3362	1079.4668	1175.0458	1187.6644	1212.3599	1226.1088	1232.1488	1277.7074	1301.6301	1349.378	1367.0447	1413.0618	1478.7684	1487.2123	1692.2578	3017.4969	3063.8997	3088.6743	3101.6491	3110.4144	3187.8292	3193.9456	3201.2621	3225.661
CC1=CC2C3C4C3N2C14	CC1=C[C@H]2[C@H]3[C@@H]4[C@H]3N2[C@H]14	
InChI=1S/C8H9N/c1-3-2-4-5-6-7(3)9(4)8(5)6/h2,4-8H,1H3	InChI=1S/C8H9N/c1-3-2-4-5-6-7(3)9(4)8(5)6/h2,4-8H,1H3/t4-,5-,6-,7+,8-/m0/s1
