16
gdb 10440	2.79401	1.71078	1.25268	0.9427	76.01	-0.2452	0.0429	0.2881	999.6898	0.127669	-309.386451	-309.377986	-309.377042	-309.419297	31.796	
C	-0.2150692249	-1.1137021361	-0.4985247481	-0.453869
C	-0.0907350555	 0.0206297276	-0.1226580936	 0.33092
C	 0.0654764844	 1.401470969	 0.3217725277	-0.437932
C	 1.4774125147	 1.9606650586	 0.1031759857	 0.158629
C	 1.8323185664	 2.4586236791	-1.2874775857	-0.280275
C	 1.603910716	 3.4501878368	-0.1830416389	-0.307272
C	 2.5125458918	 1.3400020828	 0.8851754362	 0.296596
C	 3.3674553051	 0.8224875611	 1.5544340792	-0.465316
H	-0.3232172172	-2.1183058655	-0.824433397	 0.196528
H	-0.6484246607	 2.0387772208	-0.2146853567	 0.126568
H	-0.1892681766	 1.4782703432	 1.3858621607	 0.13952
H	 2.8462998932	 2.2956398259	-1.6312111699	 0.130167
H	 1.0712757723	 2.3504775395	-2.0526278485	 0.124231
H	 0.6881396381	 4.0318337726	-0.1899169251	 0.118061
H	 2.4624537118	 3.9626107783	 0.2336089881	 0.130487
H	 4.123559301	 0.3584796664	 2.137534796	 0.192955
63.0893	117.3607	176.384	218.6174	312.1308	323.7223	351.2772	454.9508	535.4625	563.2625	586.355	620.5159	641.6428	649.3744	709.4816	784.9447	872.3735	912.1857	933.913	950.7914	987.7987	1014.8785	1065.5386	1086.705	1191.7078	1207.4285	1275.6733	1328.7922	1355.9102	1460.9862	1470.6053	1497.3734	2236.3287	2241.7028	3024.7005	3060.3789	3138.1393	3142.5635	3224.5088	3238.5045	3504.6286	3507.3336
C#CCC1(CC1)C#C	C#CCC1(CC1)C#C	
InChI=1S/C8H8/c1-3-5-8(4-2)6-7-8/h1-2H,5-7H2	InChI=1S/C8H8/c1-3-5-8(4-2)6-7-8/h1-2H,5-7H2
