23
gdb 92342	2.35796	1.62259	1.56187	1.3237	82.89	-0.2384	0.0711	0.3095	1049.8453	0.20991	-388.319315	-388.311503	-388.310559	-388.351043	32.448	
C	-0.1349540664	 1.5524399826	 0.0109981662	-0.399898
C	-0.0576877279	 0.0155661544	 0.0041025959	 0.033696
C	 0.4855329791	-0.5658603462	-1.3304290688	-0.222053
C	 1.9980556092	-0.8374786792	-1.3124201462	 0.09705
C	 2.8828590733	 0.4038340221	-1.0456339939	-0.226727
C	 3.0248124733	 0.4040668534	 0.5007171332	-0.226728
C	 2.2034295269	-0.8371542023	 0.9245150671	 0.097052
C	 0.719463596	-0.5655161764	 1.2175673442	-0.222051
O	 2.2909153463	-1.7033249863	-0.211286203	-0.263257
H	 0.8418945115	 2.0332777607	-0.0787220749	 0.120545
H	-0.7534875511	 1.9091968215	-0.8198508837	 0.109303
H	-0.5919178605	 1.9094217859	 0.9404701863	 0.109304
H	-1.0946676459	-0.328281647	 0.0993515138	 0.074394
H	-0.0010289292	-1.5280090256	-1.5263040995	 0.09968
H	 0.2272914191	 0.0955250774	-2.1664905983	 0.086837
H	 2.290308693	-1.366293801	-2.2240262514	 0.07046
H	 3.8579486845	 0.2754162492	-1.521608702	 0.102808
H	 2.4453431318	 1.3225202844	-1.4426551916	 0.099901
H	 4.0702697248	 0.2757573951	 0.791234365	 0.102808
H	 2.6668734091	 1.3228859099	 0.9704864191	 0.099902
H	 2.6568089711	-1.3657075656	 1.7678191725	 0.070459
H	 0.6177544182	 0.0960983127	 2.0864971483	 0.086836
H	 0.2767343539	-1.5276047897	 1.4990192816	 0.099679
163.6944	169.5876	229.1845	291.2852	327.714	351.7492	385.304	473.1031	487.4068	635.9668	730.08	754.3899	801.957	802.7719	815.1345	876.7964	885.2054	897.4947	949.9363	971.1606	990.1742	992.4258	1018.3202	1031.1979	1084.3791	1096.5652	1118.7441	1156.8525	1182.0764	1209.3807	1240.0878	1249.1141	1272.7951	1289.907	1307.0132	1325.2575	1348.26	1368.566	1373.3998	1379.0598	1384.3764	1400.2482	1416.958	1470.6351	1479.1668	1484.5938	1500.2143	1508.7453	1511.2211	3011.6085	3025.4948	3029.9686	3037.0302	3058.4745	3063.4358	3066.9827	3070.4075	3070.5189	3079.7742	3091.98	3101.3269	3116.7134	3126.5039
CC1CC2CCC(C1)O2	C[C@H]1C[C@H]2CC[C@@H](C1)O2	
InChI=1S/C8H14O/c1-6-4-7-2-3-8(5-6)9-7/h6-8H,2-5H2,1H3	InChI=1S/C8H14O/c1-6-4-7-2-3-8(5-6)9-7/h6-8H,2-5H2,1H3/t6-,7+,8-
