20
gdb 67880	2.69519	2.04922	1.35935	1.0774	84.28	-0.2118	0.0161	0.2279	986.6864	0.172598	-365.949849	-365.942595	-365.941651	-365.980915	30.564	
C	-0.0154284694	 1.5671466211	-0.1353055529	-0.501175
C	-0.008052964	 0.0482898691	 0.0044223318	 0.330074
C	 0.2067524708	-0.6048127382	-1.3369499288	-0.113149
C	 0.246135207	-1.9287633795	-1.4330162217	-0.096972
C	 0.069359423	-2.7119934484	-0.1646554802	-0.219899
N	-0.1273308813	-1.8954506227	 1.0368139957	-0.129383
C	 0.7484601705	-0.6552520589	 1.197083408	-0.063952
C	-0.3329514404	-0.1582284481	 2.1828161957	-0.239852
C	-1.0563899874	-0.6891957366	 0.9246850319	-0.063993
H	 0.9348747485	 1.9100762017	-0.5614371754	 0.119445
H	-0.807552378	 1.8771312332	-0.8271877257	 0.119425
H	-0.1687317083	 2.1006221002	 0.8034737122	 0.117279
H	 0.3255234216	 0.0396487796	-2.2037616217	 0.080906
H	 0.3979115547	-2.4509460736	-2.3734388532	 0.088746
H	-0.7907629682	-3.3918763681	-0.2447467659	 0.11297
H	 0.939146857	-3.3594155135	 0.0163972889	 0.112969
H	 1.8280994447	-0.7372120535	 1.3460234182	 0.073736
H	-0.4552491621	-0.7785424997	 3.0703517919	 0.104325
H	-0.386013424	 0.9060185593	 2.4019617717	 0.094759
H	-2.1281376548	-0.8116374231	 0.7489510295	 0.07374
173.8873	187.2791	290.3361	328.0549	359.6352	448.7014	471.3945	535.8278	584.9207	643.5479	666.9807	759.2118	761.9744	796.3047	879.6104	883.5969	901.2604	935.5223	943.8018	982.9457	1011.4122	1027.9386	1041.3831	1084.4473	1108.1327	1123.2103	1130.4762	1161.8164	1183.3091	1204.2444	1210.7443	1226.1675	1262.4828	1271.9196	1291.3414	1356.3318	1406.6614	1412.5189	1463.3818	1485.9311	1493.7712	1511.5985	1721.4646	3003.1507	3026.7924	3027.815	3079.2005	3081.1169	3081.8718	3103.6924	3129.8717	3151.2515	3174.9816	3176.3747
CC12C=CCN3C1CC23	C[C@@]12C=CCN3[C@@H]1C[C@@H]23	
InChI=1S/C8H11N/c1-8-3-2-4-9-6(8)5-7(8)9/h2-3,6-7H,4-5H2,1H3	InChI=1S/C8H11N/c1-8-3-2-4-9-6(8)5-7(8)9/h2-3,6-7H,4-5H2,1H3/t6-,7+,8-
