19
gdb 30783	3.26298	1.2319	0.90867	0.359	80.91	-0.1727	0.0509	0.2237	1292.6799	0.15918	-419.220827	-419.210964	-419.21002	-419.256022	35.047	
C	 0.0418392986	 1.3647069838	 0.0657885231	-0.241616
O	 0.0092453096	-0.0435189754	-0.0211961906	-0.276494
C	-1.2347514835	-0.607062177	 0.0048371145	 0.294666
C	-1.4109351524	-1.9779850274	-0.0196579562	 0.129649
N	-0.4867635424	-3.0448179627	-0.034621729	-0.616227
N	-2.77568293	-2.2141634582	 0.0409269989	-0.00043
C	-3.3892164046	-3.523836437	-0.0058968569	-0.339769
C	-3.4375324256	-1.0208558029	 0.086608911	-0.099121
C	-2.5134314551	 0.0060734513	 0.0745569048	-0.313803
H	 1.0938423644	 1.6568626498	 0.0431691763	 0.124265
H	-0.4796487238	 1.8348954373	-0.7795862112	 0.115926
H	-0.412297108	 1.7235434091	 0.9998976785	 0.116039
H	-0.0761110731	-3.1815982218	-0.954512565	 0.240557
H	 0.2818019831	-2.854188092	 0.6000234692	 0.246645
H	-4.2473467142	-3.556033025	 0.670614309	 0.130072
H	-3.7299946999	-3.7786007818	-1.0169105621	 0.126754
H	-2.6492028876	-4.2612209287	 0.3076278541	 0.158973
H	-4.514957149	-0.9898980673	 0.1175978466	 0.109602
H	-2.7398913364	 1.0590098858	 0.1163174752	 0.094311
56.9322	70.9724	132.3958	163.3232	197.805	212.0131	254.2136	294.6779	330.6586	352.7619	544.1	598.3458	611.6062	657.1588	697.258	736.16	763.9421	769.77	829.8088	1009.5353	1046.3079	1111.8579	1144.8808	1152.7569	1181.3395	1200.2293	1220.4804	1240.0969	1265.5484	1384.1647	1410.9635	1442.6982	1472.9835	1485.1976	1490.0367	1495.2937	1510.1702	1520.4093	1536.6009	1630.0972	1669.2815	2992.0465	3024.4366	3044.7305	3093.6018	3121.7934	3148.6209	3250.0213	3268.1701	3480.4661	3553.1293
COC1=C(N)N(C)C=C1	COc1c(N)n(C)cc1	
InChI=1S/C6H10N2O/c1-8-4-3-5(9-2)6(8)7/h3-4H,7H2,1-2H3	InChI=1S/C6H10N2O/c1-8-4-3-5(9-2)6(8)7/h3-4H,7H2,1-2H3
