17
gdb 6793	5.7315	0.86867	0.83113	5.8594	61.5	-0.2454	0.0236	0.269	1352.7002	0.142119	-438.156745	-438.147966	-438.147022	-438.191162	30.669	
O	-0.0807984241	 1.0808971064	 0.6523015689	-0.421717
C	 0.0135932179	-0.0002822345	-0.2678285947	-0.088113
C	-1.3802117388	-0.5892681008	-0.4033058145	-0.129287
N	-2.302634764	 0.4261765905	-0.9162270706	-0.317864
H	-2.1899185122	 1.2635585313	-0.3565721498	 0.24573
H	-2.4461684123	 0.1961069152	-2.8135470743	 0.299358
C	-3.6982299618	 0.0014247994	-0.9755274773	-0.306226
C	-4.0252581965	-0.6413886505	-2.3341753665	 0.419168
O	-3.1187945836	-0.3492249955	-3.2797788057	-0.363673
O	-5.0014245126	-1.310025997	-2.5357827699	-0.332028
H	 0.7500880262	 1.5641221103	 0.6469325342	 0.296044
H	 0.3638414545	 0.3452178369	-1.2515201774	 0.100415
H	 0.7058047578	-0.7758346165	 0.0912081607	 0.10023
H	-1.3510948459	-1.4356070882	-1.0993365364	 0.12065
H	-1.7034191967	-0.9772122455	 0.5766785729	 0.108553
H	-3.9879126923	-0.7039120063	-0.1852502441	 0.128875
H	-4.3481046059	 0.8778138147	-0.8786170554	 0.139885
58.6396	67.953	105.1858	151.9778	249.6227	291.5799	324.5206	343.9271	479.7124	562.0629	568.9039	668.8139	791.0151	856.9356	864.5672	884.7031	931.4947	992.183	1059.52	1103.803	1121.6636	1145.9716	1201.8035	1220.1316	1252.9662	1286.401	1305.4515	1356.5073	1383.4376	1427.0669	1458.2246	1467.9057	1485.8738	1505.0561	1513.9527	1880.2429	2974.3728	2989.0079	3022.631	3028.2515	3064.4785	3081.651	3461.5816	3550.683	3840.5055
OCC[NH2+]CC([O-])=O	OCCNCC(=O)O	
InChI=1S/C4H9NO3/c6-2-1-5-3-4(7)8/h5-6H,1-3H2,(H,7,8)	InChI=1S/C4H9NO3/c6-2-1-5-3-4(7)8/h5-6H,1-3H2,(H,7,8)
