17
gdb 128117	1.96396	1.70791	0.95315	2.8389	73.19	-0.2034	0.0138	0.2172	1206.4366	0.136451	-455.131248	-455.122344	-455.121399	-455.165276	31.903	
C	 0.5076068455	 1.108707156	-0.2977598144	-0.330978
N	 0.1543430743	-0.2721423055	-0.0105117052	-0.388112
C	 0.5522188324	-0.882876759	 1.1356933406	 0.474223
C	 0.5350443851	-2.2163682077	 1.492295796	-0.001452
C	 0.0542070504	-3.3418497913	 0.6369508187	-0.208597
O	 0.513703459	-3.222025705	-0.7180456243	-0.415889
C	 1.0519687743	-2.1814731076	 2.8086700032	-0.043046
N	 1.3535510704	-0.9773698625	 3.2306610572	-0.178989
O	 1.0342245878	-0.1327534859	 2.1303237597	-0.226799
H	 1.5856999174	 1.2547309222	-0.452657667	 0.127998
H	-0.0237213047	 1.4241120879	-1.1977913701	 0.13292
H	 0.1948673939	 1.7485196511	 0.5302348838	 0.156972
H	 0.1012234956	-0.9164685354	-0.7878338146	 0.261852
H	 0.3485556709	-4.3071551704	 1.0723383738	 0.106753
H	-1.0386456988	-3.3506206676	 0.5471940543	 0.123974
H	 1.4772563784	-3.2220840708	-0.687650552	 0.284262
H	 1.212646548	-3.0145273384	 3.4813107102	 0.124909
88.4502	112.5005	130.991	151.1339	205.6492	258.0124	294.8877	390.873	439.3349	498.3194	611.9063	622.6868	688.6208	735.2091	772.0915	884.9681	917.0768	942.0286	971.954	1020.5359	1073.3417	1139.9375	1155.5447	1178.8188	1217.0144	1232.2743	1332.5989	1377.2949	1402.7326	1432.3085	1453.5818	1482.9427	1488.6202	1506.4102	1515.1839	1580.4942	1676.1368	3005.4778	3008.2009	3050.3135	3098.4488	3140.111	3223.7988	3589.389	3796.9282
CNC1=C(CO)C=NO1	CNc1c(CO)cno1	
InChI=1S/C5H8N2O2/c1-6-5-4(3-8)2-7-9-5/h2,6,8H,3H2,1H3	InChI=1S/C5H8N2O2/c1-6-5-4(3-8)2-7-9-5/h2,6,8H,3H2,1H3
