19
gdb 40929	3.84747	1.27879	1.17006	2.5331	74.37	-0.2452	0.0643	0.3096	1104.0723	0.159829	-422.968489	-422.96086	-422.959916	-423.001077	29.396	
C	 0.1786284574	 1.5185588417	-0.4224192952	-0.23171
C	 1.5837076707	 1.5064694478	 0.2604868985	-0.239648
C	 1.3256105328	 0.0618006521	 0.7779123974	-0.164418
C	-0.041795394	 0.0630282057	 0.0390443406	 0.116629
O	 0.4499687732	-0.9052064119	-0.9170265604	-0.32662
C	 1.6930604816	-1.0539842394	-0.2116148147	 0.375134
C	 3.0036789424	-1.1247236964	-1.0139098096	-0.133421
O	 3.3715388331	-2.3637393691	-0.3730777005	-0.274989
C	 2.0815749012	-2.4689631136	 0.26336701	-0.135213
H	-0.516066453	 2.2281494209	 0.035086773	 0.104093
H	 0.15662041	 1.6477778763	-1.5064343279	 0.113293
H	 2.4434043282	 1.6162106594	-0.4056220187	 0.106921
H	 1.6843887771	 2.2393459481	 1.0633603379	 0.108515
H	 1.4691465403	-0.1404644185	 1.8386606549	 0.079616
H	-1.0052046131	-0.2296644706	 0.463371761	 0.078792
H	 2.8371295645	-1.2430782617	-2.092582609	 0.110334
H	 3.7425916823	-0.3330425356	-0.8408614565	 0.103266
H	 2.1632619709	-2.6315623891	 1.3450135923	 0.101021
H	 1.4544594444	-3.2513065661	-0.1838197832	 0.108406
78.5592	89.8334	192.817	255.5425	344.7649	383.3775	451.4992	509.4719	722.6643	747.2972	782.9848	835.6265	850.7306	902.3008	920.5358	931.6857	952.001	970.9922	994.2915	1008.676	1028.7666	1045.2546	1098.854	1147.3467	1150.7617	1155.351	1176.904	1181.3037	1196.7362	1232.6472	1248.4209	1272.5672	1285.1706	1296.2485	1323.6281	1333.7506	1381.8922	1464.0859	1489.2559	1493.7403	1520.7925	3004.8413	3017.2533	3060.3569	3061.4621	3061.7946	3066.7611	3079.9447	3107.7129	3118.5474	3129.0591
C1CC2C1OC21COC1	C1C[C@H]2[C@@H]1OC12COC1	
InChI=1S/C7H10O2/c1-2-6-5(1)7(9-6)3-8-4-7/h5-6H,1-4H2	InChI=1S/C7H10O2/c1-2-6-5(1)7(9-6)3-8-4-7/h5-6H,1-4H2/t5-,6+/m0/s1
