25
gdb 103650	3.09527	0.97766	0.9768	0.1312	94.76	-0.235	0.0273	0.2624	1446.6774	0.228315	-352.382685	-352.372504	-352.37156	-352.417512	39.256	
C	-0.0629791909	 1.5569726135	 0.2239240007	-0.397288
C	-0.0159929587	 0.0417810565	-0.0039194075	-0.207827
C	 0.716895878	-0.4350953863	-1.2798836807	 0.279813
C	 2.1704796656	 0.0860800387	-1.3081449407	-0.42778
C	 0.6868227675	-1.9919948993	-1.3797703653	-0.270567
C	 0.4323000355	-2.3490363152	-2.8683842511	-0.013624
C	-0.4688072733	-3.5733189295	-3.0689162574	-0.396345
C	-0.1396128655	-1.0569683557	-3.409925743	-0.079934
C	 0.0000966035	-0.0414752633	-2.5616980889	-0.104915
H	 0.9361403147	 1.9823429821	 0.3573794397	 0.117587
H	-0.5386812867	 2.0800012273	-0.6124328483	 0.115619
H	-0.6400759367	 1.7904434605	 1.1243131367	 0.111628
H	 0.4619889145	-0.4345936294	 0.8631991032	 0.090076
H	-1.0417478794	-0.3461172499	-0.0373666102	 0.092054
H	 2.6950764922	-0.1678629301	-0.3792466385	 0.106789
H	 2.7233311858	-0.357834635	-2.1419743714	 0.112747
H	 2.2125414451	 1.1728076247	-1.4304321654	 0.11207
H	 1.6003127327	-2.4477456385	-0.985666435	 0.088781
H	-0.1469107053	-2.375255367	-0.7794144555	 0.090133
H	 1.3873422071	-2.5549986604	-3.3760356398	 0.075359
H	-1.4460281499	-3.4193690963	-2.5978533513	 0.113892
H	-0.6368115269	-3.7739786501	-4.1326848371	 0.109298
H	-0.0195353968	-4.4698385309	-2.6282684174	 0.111552
H	-0.5829234171	-0.9908687784	-4.3990431353	 0.084737
H	-0.3045429549	 0.9810086218	-2.7607844005	 0.086146
51.1023	100.6799	175.7727	213.5866	228.4969	246.1942	274.1037	290.2502	321.9538	355.4575	391.0358	445.5968	547.8298	594.3563	683.7556	775.0509	790.932	803.4996	849.303	878.5334	912.2075	930.2835	951.8923	977.0189	997.3792	1017.0271	1045.9837	1071.1544	1092.6466	1108.6876	1138.1629	1182.4307	1202.1925	1222.8976	1249.2061	1299.5225	1318.2423	1321.1295	1347.5888	1365.3377	1385.2996	1403.8475	1410.7641	1414.6614	1478.0155	1486.4471	1492.8821	1496.0415	1497.4334	1499.7708	1504.5757	1509.9292	1686.2053	2975.9675	3008.4019	3023.5552	3024.7979	3033.4212	3036.9435	3046.9581	3081.7704	3091.9404	3094.435	3096.5501	3099.3657	3101.055	3110.0009	3166.1	3193.0043
CCC1(C)CC(C)C=C1	CC[C@@]1(C)C[C@@H](C)C=C1	
InChI=1S/C9H16/c1-4-9(3)6-5-8(2)7-9/h5-6,8H,4,7H2,1-3H3	InChI=1S/C9H16/c1-4-9(3)6-5-8(2)7-9/h5-6,8H,4,7H2,1-3H3/t8-,9+/m0/s1
