15
gdb 37214	3.39533	2.08391	1.6911	2.3756	67.73	-0.2449	-0.0373	0.2077	804.6717	0.115126	-416.704707	-416.698931	-416.697986	-416.734601	24.05	
C	 0.0951398573	 1.5201436153	 0.2211198334	-0.187128
N	 1.5400034334	 1.7816879548	 0.0881570066	-0.16964
C	 2.0449898126	 0.7170588847	-0.3892504601	 0.133194
C	 3.1840757427	 0.010544122	 0.3262719084	-0.03289
O	 2.8923869203	 0.0839960709	 1.73408958	-0.227231
C	 2.3937935801	-1.0327381756	 1.0065130701	 0.058446
C	 0.9898043253	-1.06555898	 0.3635369237	-0.095809
C	-0.0173906139	 0.0182579591	-0.045963655	-0.063243
N	 1.1228270757	-0.3038498372	-0.9074302242	-0.122611
H	-0.2102902496	 1.8442486088	 1.2207816366	 0.134063
H	-0.5160254414	 2.0681171441	-0.5093339674	 0.124328
H	 4.2217449946	-0.0531967692	 0.0252129207	 0.127456
H	 2.7978270041	-1.9987479287	 1.2969997153	 0.113931
H	 0.6097626482	-2.0803633714	 0.2536091552	 0.102346
H	-0.9852596793	-0.3665609776	-0.3602383834	 0.10479
203.1436	266.7376	386.195	490.5378	546.9325	622.9481	683.5645	728.7734	772.7877	804.2464	826.344	848.0422	867.5432	899.5665	937.7427	968.3067	998.0122	1013.4188	1016.2548	1078.2166	1085.3505	1128.4576	1134.0038	1199.5228	1217.595	1247.9675	1291.2786	1313.5927	1344.9472	1356.8312	1402.5907	1480.313	1661.7112	3018.4451	3080.1566	3114.2969	3140.5874	3154.5506	3203.0173
C1N=C2C3OC3C3C1N23	C1[N][C]2[C@H]3O[C@H]3[C@H]3[C@@H]1N23	
InChI=1S/C6H6N2O/c1-2-3-4-5(9-4)6(7-1)8(2)3/h2-5H,1H2	InChI=1S/C6H6N2O/c1-2-3-4-5(9-4)6(7-1)8(2)3/h2-5H,1H2/t2-,3-,4+,5+,8?/m1/s1
