19
gdb 90935	3.01201	1.45659	1.40719	1.0712	74.07	-0.2205	0.0694	0.2899	1027.1042	0.159599	-422.992896	-422.985082	-422.984138	-423.024672	31.457	
C	-0.1037470505	 1.5772481077	-0.0509935634	-0.406676
C	 0.0395324857	 0.0685497956	 0.0441981733	 0.142097
O	 0.8141030604	-0.4093543	-1.0781582525	-0.282437
C	 1.4818605396	-1.5716335872	-0.6410921544	 0.014657
C	 2.5585101341	-1.442862781	 0.4460680505	-0.145779
C	 2.3087396273	-0.1465885473	 1.2133043476	-0.234712
C	 0.7841971932	-0.5058502171	 1.2557121823	-0.148447
C	 1.1568973221	-1.941913763	 0.761197776	 0.340543
O	 0.7489598576	-3.1562499064	 1.2690833226	-0.46511
H	 0.8653394392	 2.0772300051	 0.0240642742	 0.124718
H	-0.5555596486	 1.8531159848	-1.0080129638	 0.12793
H	-0.7503117522	 1.9467101869	 0.7513673662	 0.113445
H	-0.9653778619	-0.389759346	 0.0002313965	 0.056564
H	 1.6247661545	-2.3239624982	-1.4079153976	 0.102118
H	 3.4868597294	-1.9985752574	 0.3793008615	 0.088308
H	 2.755643861	-0.1709108711	 2.2096388931	 0.106149
H	 2.5845840413	 0.7874162577	 0.7158781547	 0.102421
H	 0.2706657625	-0.4034730753	 2.2109781813	 0.07687
H	-0.0721299149	-3.4115208278	 0.8338384218	 0.28734
150.9541	203.6937	227.6683	257.3229	304.41	307.4956	397.1456	486.0156	520.9951	593.13	621.5152	734.8978	769.1337	802.5947	838.6935	895.6407	911.2379	932.7396	974.3449	981.4539	1020.2584	1039.2174	1071.203	1084.9175	1106.6521	1138.5732	1152.3278	1162.1705	1180.0443	1227.6204	1278.7299	1286.6114	1304.7754	1321.1777	1352.7998	1386.4891	1413.1598	1465.3064	1485.9942	1493.1667	1503.6299	2930.0786	3044.2937	3058.9078	3110.303	3114.0402	3124.4879	3127.3724	3177.2712	3191.4728	3791.5296
CC1OC2C3CC1C23O	C[C@H]1O[C@H]2[C@H]3C[C@@H]1[C@@]23O	
InChI=1S/C7H10O2/c1-3-4-2-5-6(9-3)7(4,5)8/h3-6,8H,2H2,1H3	InChI=1S/C7H10O2/c1-3-4-2-5-6(9-3)7(4,5)8/h3-6,8H,2H2,1H3/t3-,4+,5-,6+,7+/m1/s1
