19
gdb 79352	2.45028	1.94644	1.79788	2.1493	72.46	-0.2317	0.0809	0.3126	905.2523	0.162161	-423.026094	-423.01907	-423.018125	-423.057218	28.652	
C	 0.0048758737	 1.5767262594	 0.0125431669	-0.405712
C	 0.0837593724	 0.0519261994	-0.0262717056	-0.012757
C	 0.9020597709	-0.5726841414	-1.1493300488	-0.130505
C	 2.3874297768	-0.7148880677	-0.8355990651	-0.116104
C	 2.9560227648	-0.0018547698	 0.3790609999	-0.088967
O	 2.0175052708	 0.0661868424	 1.4593190257	-0.266637
C	 0.8013168035	-0.5908963459	 1.1837001267	 0.16215
O	 1.0341228346	-1.9370709512	 0.79626635	-0.252466
C	 1.4406668187	-1.8484039176	-0.55763022	 0.084936
H	 0.9959773202	 2.0313581075	 0.0763466858	 0.128021
H	-0.4885083499	 1.9599595021	-0.8862634201	 0.112737
H	-0.573603286	 1.916717437	 0.8782309701	 0.1168
H	-0.9318416311	-0.3626316669	-0.0711213732	 0.081811
H	 0.5666832738	-0.5072457346	-2.1774017439	 0.08745
H	 3.0676107827	-0.8097017662	-1.6761025041	 0.091861
H	 3.8475051482	-0.534032999	 0.7377897136	 0.110188
H	 3.2635536739	 1.0212300277	 0.1232195406	 0.103203
H	 0.2371172414	-0.5928312591	 2.1168360558	 0.091428
H	 1.4812699405	-2.8094017161	-1.0534573942	 0.102564
161.7672	185.376	232.0592	255.0494	451.5821	460.9451	529.3691	594.6585	636.5502	694.1033	774.0657	786.3091	810.0735	890.4824	901.4958	915.2759	964.9617	974.1663	1004.3427	1038.2416	1050.8285	1080.5082	1095.0664	1110.8802	1127.085	1132.5279	1145.0331	1171.2638	1251.9852	1266.5921	1309.3385	1324.6976	1342.9465	1369.8064	1381.0072	1403.6866	1416.3742	1443.218	1493.8695	1497.7491	1525.3564	3000.4686	3022.0238	3027.5959	3039.7117	3098.8767	3118.7125	3128.0633	3160.2137	3180.9915	3203.2017
CC1C2C3COC1OC23	C[C@H]1[C@H]2[C@H]3CO[C@@H]1O[C@@H]23	
InChI=1S/C7H10O2/c1-3-5-4-2-8-7(3)9-6(4)5/h3-7H,2H2,1H3	InChI=1S/C7H10O2/c1-3-5-4-2-8-7(3)9-6(4)5/h3-7H,2H2,1H3/t3-,4+,5-,6+,7+/m0/s1
