17
gdb 37506	3.77698	1.9934	1.73419	1.639	73.43	-0.2193	0.0097	0.229	812.3361	0.140043	-384.648724	-384.643347	-384.642402	-384.678085	24.269	
O	-0.0951416438	 1.4698132472	-0.0540512648	-0.299607
C	 1.3386408111	 1.4778426116	 0.0224790502	 0.089707
C	 1.3978752203	 0.1707371597	 0.8350376601	-0.087065
C	 2.5319203875	-0.408686051	-0.0817869708	-0.078492
C	 2.2722536466	-1.8028666672	-0.5904512292	-0.089892
C	 1.1843315787	-1.7583163256	-1.3644289823	-0.106782
C	 0.6488088423	-0.3437933526	-1.3719668697	-0.058586
C	 0.0552035969	 0.0231112832	 0.026969067	 0.072375
C	 1.9025935671	 0.5579999446	-1.1346405334	-0.092123
H	 1.7974366307	 2.4347523673	 0.263687467	 0.083488
H	 1.3799517235	 0.1022319879	 1.9202411445	 0.078048
H	 3.5346880743	-0.1704903561	 0.2739793582	 0.067832
H	 2.837840649	-2.6816048875	-0.3064469715	 0.099619
H	 0.6826689108	-2.595176776	-1.8342677938	 0.098534
H	-0.0187345569	-0.0671998558	-2.1875135436	 0.073094
H	-0.8284752958	-0.4998379788	 0.3891324696	 0.080129
H	 2.4564874877	 0.9251312991	-1.9972595675	 0.069721
326.8359	371.3905	474.6859	547.8157	641.5086	698.9239	731.5209	769.9401	808.8493	815.3652	842.0123	853.1835	875.3309	895.4368	937.1654	944.6125	958.2885	961.7693	976.1258	995.999	1003.6922	1052.3984	1099.3641	1108.7087	1132.0991	1141.0006	1170.8561	1201.7413	1225.1731	1241.9446	1257.3663	1279.3134	1288.9787	1297.8604	1334.7336	1358.7504	1649.3848	3109.8405	3117.4613	3129.5547	3133.8459	3139.0395	3151.647	3197.3578	3222.6888
O1C2C3C4C=CC(C13)C24	O1[C@H]2[C@@H]3[C@H]4C=C[C@@H]([C@H]13)[C@@H]24	
InChI=1S/C8H8O/c1-2-4-5-3(1)6-7(4)9-8(5)6/h1-8H	InChI=1S/C8H8O/c1-2-4-5-3(1)6-7(4)9-8(5)6/h1-8H/t3-,4+,5-,6+,7-,8+/m0/s1
