23
gdb 103926	3.10944	1.1109	1.03529	1.7375	85.74	-0.2419	0.085	0.327	1325.0605	0.203345	-388.272395	-388.262499	-388.261555	-388.306474	38.056	
C	-0.2083589928	 1.4978177995	-0.0768755557	-0.390838
C	 0.0867007525	-0.0058306741	-0.0319177822	-0.230381
C	 0.7944211938	-0.4849141259	 1.2391984662	 0.332366
C	 2.1928409458	 0.1073472115	 1.4138125094	-0.458586
C	-0.0472454703	-0.4265765187	 2.5780986621	-0.35547
C	 0.0743680292	-1.9565200523	 2.681278884	 0.428267
C	 0.0752732142	-2.8126376623	 3.9053811215	-0.500644
O	-0.5319130971	-2.4863683702	 1.4870149527	-0.294696
C	 0.8222241335	-2.0223867161	 1.4146475009	-0.089969
H	 0.7077908135	 2.0969768253	-0.0789410081	 0.113672
H	-0.7693679051	 1.7553375412	-0.9806379221	 0.113086
H	-0.8082353169	 1.8129044149	 0.784113078	 0.115829
H	-0.8496693124	-0.5658068166	-0.1225766061	 0.113616
H	 0.7001254913	-0.2813761697	-0.9011762298	 0.086535
H	 2.1552461066	 1.1918360585	 1.55518448	 0.121048
H	 2.6975495249	-0.3223130486	 2.2864057354	 0.110303
H	 2.8168674235	-0.0951488415	 0.5352670692	 0.11271
H	 0.4700459906	 0.1114328156	 3.3771555454	 0.099139
H	-1.0737937421	-0.0588883778	 2.498209807	 0.10233
H	-0.9127766923	-2.8141835894	 4.3801222796	 0.129365
H	 0.3303695746	-3.8444724834	 3.6491982025	 0.132871
H	 0.7984158373	-2.442410213	 4.6393818599	 0.122116
H	 1.5690610077	-2.727067667	 1.0598423304	 0.08733
97.1611	126.0494	163.3172	195.4271	223.139	255.2541	284.8683	312.3065	320.3343	358.5833	431.07	441.2524	551.8409	599.6782	681.439	777.4856	786.0533	859.2619	879.8081	896.3888	926.6336	941.5474	997.2177	1003.8157	1018.058	1035.3368	1060.7288	1078.8192	1149.9166	1168.357	1186.1006	1209.2012	1257.1602	1266.1879	1284.8803	1333.3484	1367.1562	1402.2484	1407.7672	1412.2702	1455.5548	1476.0149	1484.1848	1485.475	1494.6464	1497.5462	1499.479	1504.9701	1510.1624	3011.9321	3023.8182	3031.969	3033.6123	3055.6244	3072.0986	3085.8204	3093.436	3099.1624	3100.0609	3106.4121	3111.7842	3119.4639	3157.4925
CCC1(C)CC2(C)OC12	CC[C@@]1(C)C[C@@]2(C)O[C@@H]12	
InChI=1S/C8H14O/c1-4-7(2)5-8(3)6(7)9-8/h6H,4-5H2,1-3H3	InChI=1S/C8H14O/c1-4-7(2)5-8(3)6(7)9-8/h6H,4-5H2,1-3H3/t6-,7-,8+/m0/s1
