19
gdb 41939	3.27466	1.52299	1.09901	0.6911	76.49	-0.2386	0.0127	0.2513	1096.2145	0.161902	-423.023273	-423.015923	-423.014979	-423.055163	29.002	
C	-0.0000546409	 1.4355701801	 0.0015738589	-0.071389
C	 1.4807785976	 1.9294439564	 0.0022832021	-0.3197
C	 2.194545447	 0.6725816319	 0.4815176355	 0.149207
O	 3.5422914919	 0.5057618348	 0.1158865492	-0.272115
C	 4.0464580217	-0.7205717183	 0.6455231344	-0.129113
C	 3.0545329979	-1.8628472798	 0.6991362905	-0.058073
C	 1.7688580606	-1.744590907	 0.3631992938	-0.148078
C	 1.324748081	-0.4109756392	-0.1471594602	 0.115263
O	 0.0115834744	 0.003437326	 0.1823256111	-0.28426
H	-0.5838430073	 1.8628390527	 0.8221032754	 0.112028
H	-0.5016353286	 1.6878669326	-0.941585798	 0.102423
H	 1.8179303596	 2.1870640241	-1.0061297862	 0.11749
H	 1.6319298421	 2.7976242908	 0.6466988372	 0.109179
H	 2.0842230032	 0.5860696006	 1.5750002632	 0.073692
H	 4.9038498985	-0.9933003807	 0.0185409233	 0.121815
H	 4.4414399551	-0.552104172	 1.6637558633	 0.105682
H	 3.4606257022	-2.8073360942	 1.052777612	 0.098255
H	 1.0735180179	-2.5766483096	 0.4068081279	 0.102414
H	 1.4642533863	-0.3755061491	-1.2443520435	 0.075281
99.5877	157.2875	202.3412	314.6202	365.9488	433.3033	466.0819	545.5195	566.2721	667.5588	701.5492	805.2295	835.8276	885.5874	917.859	933.566	978.4553	984.1036	1020.7121	1030.453	1067.9692	1109.3542	1131.2419	1144.2906	1167.2936	1193.1945	1209.1867	1235.5986	1261.8784	1286.5114	1293.123	1348.1468	1376.4075	1381.8713	1390.4861	1410.1288	1430.6894	1488.2873	1499.1457	1522.996	1701.4534	2915.1492	2945.7462	2969.6154	3017.7982	3048.577	3065.2254	3077.4875	3119.5724	3158.3741	3187.8961
C1CC2OCC=CC2O1	C1C[C@@H]2OCC=C[C@H]2O1	
InChI=1S/C7H10O2/c1-2-6-7(8-4-1)3-5-9-6/h1-2,6-7H,3-5H2	InChI=1S/C7H10O2/c1-2-6-7(8-4-1)3-5-9-6/h1-2,6-7H,3-5H2/t6-,7+/m1/s1
