22
gdb 121957	5.48973	0.52124	0.49821	4.8642	83.79	-0.2718	0.0346	0.3064	2162.7936	0.192327	-404.369063	-404.357975	-404.357031	-404.40639	38.702	
C	-0.0797851975	 1.6145072395	 0.0806480297	-0.401137
C	 0.0020467448	 0.0854918456	 0.0002696272	 0.023034
C	 0.69808543	-0.4139273363	-1.2787884817	-0.193046
C	-0.0288738791	-0.0521135933	-2.5777741801	-0.184047
C	 0.6282945913	-0.6694678899	-3.8062933367	-0.072268
O	-0.1076055316	-0.2550052452	-4.9459814543	-0.42018
C	 0.7398911551	-0.4954030523	 1.2328553126	-0.347497
C	 0.0731085255	-0.1996355095	 2.4990098927	 0.2635
N	-0.4698180841	 0.0392453218	 3.4910579519	-0.313952
H	 0.9203061079	 2.0622373049	 0.0309436237	 0.114425
H	-0.6713269942	 2.0250167192	-0.7411739074	 0.128257
H	-0.5454158011	 1.9342135014	 1.0172505794	 0.142444
H	-1.0188768783	-0.3180386619	 0.0130182308	 0.096488
H	 1.7229986863	-0.0162588875	-1.306330448	 0.096763
H	 0.7973325552	-1.5067560906	-1.2203197301	 0.093665
H	-1.0709523372	-0.3924188935	-2.534703616	 0.108804
H	-0.0588338386	 1.033220274	-2.7199983591	 0.11468
H	 1.6798898894	-0.3431156247	-3.8687618159	 0.084539
H	 0.6353063807	-1.7681201373	-3.7121918	 0.084537
H	 0.2994238676	-0.6421709682	-5.7263289413	 0.286801
H	 0.8300931003	-1.5837992618	 1.140305718	 0.146787
H	 1.7614326876	-0.0972109845	 1.2780335844	 0.147402
47.8689	66.9548	89.3953	101.867	137.6539	176.1509	244.5494	267.1798	271.8603	303.2524	387.6672	400.2617	420.9976	493.1582	578.5912	756.95	833.9307	861.6529	894.6124	921.592	968.8392	1009.5155	1015.6148	1056.6071	1077.9382	1114.8547	1131.584	1176.4394	1210.1963	1234.8709	1254.4687	1286.5366	1307.1992	1320.804	1321.8972	1363.2539	1378.7952	1394.5605	1420.0019	1462.7499	1464.3453	1483.3163	1499.0512	1500.6447	1507.6397	1528.8203	2359.3729	2955.4766	2980.6718	2998.5614	3018.6691	3031.2577	3032.9551	3036.2115	3040.76	3075.3465	3086.9832	3104.0373	3123.1988	3831.6502
CC(CCCO)CC#N	C[C@@H](CCCO)CC#N	
InChI=1S/C7H13NO/c1-7(4-5-8)3-2-6-9/h7,9H,2-4,6H2,1H3	InChI=1S/C7H13NO/c1-7(4-5-8)3-2-6-9/h7,9H,2-4,6H2,1H3/t7-/m0/s1
