24
gdb 118135	2.77853	1.0293	0.87123	2.0178	86.74	-0.2205	0.081	0.3014	1462.9999	0.21511	-405.508254	-405.497399	-405.496455	-405.544297	39.399	
C	-1.1093483185	 0.7911694937	-2.3211812771	-0.23281
O	 0.2519133718	 0.5660349613	-2.6351379044	-0.234386
C	 0.5091965333	-0.6057651595	-3.3773989041	-0.075977
C	 0.6742654049	-1.8872433035	-2.5385670186	 0.050796
C	 1.6611939423	-1.6743329317	-1.3892963875	-0.388346
N	-0.623583235	-2.3050590638	-2.0057257539	-0.07449
C	-1.5181366587	-3.0638180725	-2.8724020925	-0.25705
C	-0.8993952063	-3.7062468792	-1.6767443818	 0.027628
C	 0.1036056073	-4.830308139	-1.8301809617	-0.418843
H	-1.7278413556	 0.8181763561	-3.2327438088	 0.094279
H	-1.5079326554	 0.0226469884	-1.6505488168	 0.130608
H	-1.1627082026	 1.769702039	-1.8358337327	 0.116136
H	-0.2718410573	-0.7634249868	-4.1387562623	 0.082803
H	 1.4548035328	-0.4266289601	-3.9035593083	 0.098676
H	 1.0902469928	-2.639454018	-3.234293516	 0.04962
H	 1.785933348	-2.5880310463	-0.8023526883	 0.109653
H	 2.6421518717	-1.3816813113	-1.7769343277	 0.110408
H	 1.3035425689	-0.8804064372	-0.7304385918	 0.137202
H	-2.5621121169	-2.7598855546	-2.8783710308	 0.110207
H	-1.1359052201	-3.380370028	-3.843874119	 0.102724
H	-1.5197015861	-3.8028072455	-0.7861167223	 0.088994
H	 0.6932693691	-4.7463320559	-2.7460882734	 0.123573
H	 0.7947541466	-4.8695157071	-0.9815633047	 0.125557
H	-0.4255392172	-5.7886817085	-1.8668855958	 0.12304
63.4143	82.4748	110.6985	168.4586	181.0179	202.0984	213.0138	235.0127	265.9078	316.1656	382.1878	410.9366	443.423	531.0345	638.9981	721.6217	792.1833	859.8078	904.8711	914.7455	950.9021	969.9118	1025.593	1030.3652	1054.2245	1108.7009	1119.4687	1137.4374	1146.1701	1171.1219	1186.7226	1190.5092	1193.9733	1229.0656	1316.3496	1332.2055	1352.197	1371.846	1397.6531	1404.5387	1418.2611	1422.1015	1470.4776	1479.9174	1485.7108	1489.619	1492.2321	1497.9946	1502.2206	1510.8531	1521.7457	2921.6518	2973.7648	2981.0215	3037.1431	3047.3854	3053.4289	3066.5931	3075.7207	3094.0267	3100.0225	3112.0801	3114.7238	3125.2738	3137.9448	3163.4531
COCC(C)N1CC1C	COC[C@@H](C)N1C[C@H]1C	
InChI=1S/C7H15NO/c1-6-4-8(6)7(2)5-9-3/h6-7H,4-5H2,1-3H3	InChI=1S/C7H15NO/c1-6-4-8(6)7(2)5-9-3/h6-7H,4-5H2,1-3H3/t6-,7-,8?/m1/s1
