19
gdb 123270	2.67055	1.71041	1.47743	2.9782	79.65	-0.2261	-0.0133	0.2129	974.732	0.162506	-385.941115	-385.934122	-385.933178	-385.972306	28.921	
C	 0.0036035819	 1.4449710223	-0.5749215698	-0.254961
C	 1.2838317729	 2.2414025744	-0.5831533345	-0.043915
C	 2.4456458388	 1.7384694222	-0.1584748291	-0.075826
O	 2.5344852368	 0.5274320116	 2.8231894926	-0.324772
C	 1.9395596069	 0.3798835551	 1.7902676427	 0.420843
C	 0.4156353051	 0.2158514354	 1.627822242	-0.321807
C	 0.1830622663	 0.0749322859	 0.1085677334	-0.0247
C	 1.512777609	-0.5590032899	-0.3700937939	-0.240398
C	 2.5369818286	 0.3185421026	 0.3677886562	-0.150684
H	-0.7847631134	 2.0149793816	-0.0630900363	 0.107183
H	-0.3560180942	 1.3108598207	-1.6052768601	 0.108075
H	 1.2341413535	 3.2626031303	-0.9527312215	 0.09161
H	 3.3434607468	 2.3476120671	-0.1295923297	 0.09952
H	 0.123845682	-0.6941851611	 2.1649687233	 0.128252
H	-0.1174382445	 1.0477562792	 2.0975327404	 0.125597
H	-0.680456667	-0.5584597223	-0.1095918573	 0.070493
H	 1.5866265536	-1.6044373625	-0.0505103506	 0.098328
H	 1.6349826402	-0.5200571974	-1.4558770897	 0.10407
H	 3.5623872667	-0.051151935	 0.3781161419	 0.083092
108.2625	200.0835	329.6417	363.3537	427.1988	445.4162	498.9157	548.4252	621.8504	654.2098	711.1885	797.3311	822.5565	862.8219	871.0697	905.0463	913.9949	948.9413	982.5932	996.4148	1038.1329	1047.1422	1068.027	1118.0754	1136.9907	1159.2129	1174.8682	1206.5486	1232.4421	1262.1573	1290.1881	1325.7409	1335.8633	1345.2096	1373.0294	1406.5949	1447.9571	1474.1236	1497.7639	1698.1946	1850.9343	3001.6946	3025.4308	3041.4885	3046.2307	3074.2856	3095.2831	3097.2172	3112.9561	3154.2114	3184.5267
C1C2C3OC22CC1CC32	C1C=C[C@H]2C(=O)C[C@@H]1C2	
InChI=1S/C8H10O/c1-4-2-6-7-5(1)8(6,3-4)9-7/h4-7H,1-3H2	InChI=1S/C8H10O/c9-8-5-6-2-1-3-7(8)4-6/h1,3,6-7H,2,4-5H2/t6-,7+/m0/s1
