15
gdb 45626	3.98851	1.11439	0.92943	2.9298	67.91	-0.2505	-0.0242	0.2263	1205.7817	0.113491	-453.970873	-453.963327	-453.962383	-454.003438	27.879	
O	 0.0575301255	 0.3891417411	 1.0289290175	-0.352956
C	-0.070433815	 1.4235057343	 0.4261964585	 0.40195
C	-1.1086399931	 1.8453618005	-0.6253878656	-0.302338
N	-0.7397872421	 3.1922961357	-1.0662358736	-0.312133
C	 0.2895989472	 3.5133878656	-0.3768733887	 0.386946
N	 0.7338139208	 2.5578591368	 0.5318658314	-0.377821
C	 0.9949170961	 4.81079322	-0.4752691772	-0.010675
C	 1.3180724792	 5.5936218468	 0.7321648076	-0.178404
O	 2.3220089866	 4.8342427789	 0.0621765723	-0.236363
H	-1.1149273617	 1.1414564761	-1.4645891379	 0.153622
H	-2.1158470067	 1.8345512977	-0.1933874271	 0.152497
H	 1.6091409026	 2.604682019	 1.0295204339	 0.277407
H	 0.8486362967	 5.3311767674	-1.4181447677	 0.130784
H	 1.4106415049	 6.6743880748	 0.6462886006	 0.137527
H	 1.019997739	 5.2204994455	 1.7100553558	 0.129956
93.1558	122.0808	161.8227	209.5624	357.4023	413.937	495.6436	537.4114	574.897	626.6005	700.2008	727.8296	856.5539	880.0357	897.1387	966.4613	975.5974	1001.4682	1039.2939	1092.5426	1153.3235	1167.2241	1178.0184	1185.613	1243.8615	1267.8089	1285.4828	1394.0918	1437.6478	1457.1125	1523.6083	1702.5244	1859.5582	3051.5479	3086.3461	3095.7374	3159.0316	3189.4009	3649.1625
O=C1CN=C(N1)C1CO1	O=C1CN=C(N1)[C@H]1CO1	
InChI=1S/C5H6N2O2/c8-4-1-6-5(7-4)3-2-9-3/h3H,1-2H2,(H,6,7,8)	InChI=1S/C5H6N2O2/c8-4-1-6-5(7-4)3-2-9-3/h3H,1-2H2,(H,6,7,8)/t3-/m1/s1
