20
gdb 105769	2.25316	1.34043	1.12606	3.3569	78.49	-0.281	0.032	0.313	1194.2862	0.172324	-403.179183	-403.170163	-403.169219	-403.213421	33.744	
O	 0.2049014921	 1.1748939997	-0.4718006309	-0.41785
C	-0.0364461312	-0.1815526166	-0.1789467085	-0.103785
C	-1.5292442215	-0.4851096971	 0.120666858	 0.131147
C	-2.4458071095	-0.0466189445	-1.0790447499	-0.251277
C	-3.2119807109	-1.3126714205	-1.5089265231	-0.200862
C	-2.2889208806	-2.4696402137	-1.1019390666	-0.207506
C	-1.7535728681	-2.0245050776	 0.2678156018	-0.257803
C	-1.8779842618	 0.2337806902	 1.348070523	 0.23591
N	-2.1118996326	 0.8283134078	 2.3128775723	-0.357895
H	 0.0327097118	 1.6881331256	 0.326439918	 0.298738
H	 0.2548550078	-0.7453661016	-1.0710871527	 0.115972
H	 0.5783833727	-0.5355311032	 0.661386305	 0.107906
H	-3.111698658	 0.7733668094	-0.8050284299	 0.122842
H	-1.8037638765	 0.325748288	-1.8816209229	 0.126909
H	-4.157315802	-1.3870041149	-0.9588749802	 0.109139
H	-3.4568700301	-1.3082869614	-2.5743814804	 0.104558
H	-2.7974435177	-3.4362385362	-1.0558004634	 0.105579
H	-1.4655602035	-2.5690819979	-1.8197288577	 0.105331
H	-0.8353449728	-2.5367086314	 0.5704921467	 0.109313
H	-2.5014373177	-2.2172470542	 1.0423682213	 0.123635
43.3137	106.8829	167.7989	178.1322	225.627	277.6169	349.849	392.4292	435.8893	502.7781	548.5959	574.5908	651.4294	713.1533	834.608	866.8438	873.5131	911.3392	918.1551	963.5178	999.6437	1034.7344	1070.8352	1084.6576	1095.1849	1123.5893	1185.5457	1214.8622	1247.3151	1264.8959	1286.6464	1319.5013	1340.0252	1349.6066	1358.1909	1387.1928	1420.1837	1488.6168	1491.5323	1493.8485	1502.4503	1514.5715	2341.2349	2998.4569	3034.1559	3041.8949	3055.7131	3071.9592	3080.7464	3092.8027	3095.5522	3104.999	3121.3917	3792.6837
OCC1(CCCC1)C#N	OCC1(CCCC1)C#N	
InChI=1S/C7H11NO/c8-5-7(6-9)3-1-2-4-7/h9H,1-4,6H2	InChI=1S/C7H11NO/c8-5-7(6-9)3-1-2-4-7/h9H,1-4,6H2
