22
gdb 115314	2.75892	1.20034	0.94144	3.4547	83.82	-0.2336	0.0366	0.2702	1349.7798	0.194976	-404.41252	-404.402833	-404.401889	-404.447489	35.447	
C	 0.1889084636	 1.5294000903	 0.2835851128	-0.379144
C	-0.0700560952	 0.080011085	-0.1362936973	-0.154184
N	-1.4678486064	-0.3012760349	-0.062659391	-0.074675
C	-2.151429424	-0.5790446698	 1.1906957614	-0.177989
C	-3.6247928832	-0.7251747557	 0.7622914575	-0.233218
C	-3.5435941289	-1.2052378902	-0.696147403	-0.096469
C	-4.6927035365	-0.7983205853	-1.6140185816	-0.399109
C	-2.1882514152	-0.6648659187	-1.171069969	 0.417094
O	-1.8040722089	-0.5904282906	-2.3220974976	-0.407109
H	 1.2556700612	 1.7601218259	 0.2021714859	 0.119553
H	-0.3621623253	 2.2208943191	-0.3601440632	 0.13186
H	-0.1116653567	 1.7131453409	 1.3202060715	 0.115575
H	 0.2273522315	-0.0717692142	-1.1772809443	 0.143691
H	 0.5234421317	-0.6042977934	 0.4865796688	 0.099122
H	-1.7646546792	-1.5015985632	 1.6518516051	 0.100761
H	-2.0050876593	 0.2319321622	 1.9116849511	 0.111216
H	-4.1809991266	-1.4000378664	 1.4164422787	 0.106323
H	-4.1153281422	 0.2537745331	 0.7979582456	 0.110281
H	-3.4445556663	-2.3005415864	-0.7164748899	 0.098948
H	-4.8609144116	 0.2834098713	-1.5744475203	 0.116344
H	-4.4524862744	-1.0614216921	-2.6472890137	 0.14164
H	-5.6244139779	-1.2971448967	-1.3303753674	 0.109487
53.1199	87.477	126.5147	192.1674	206.0867	213.221	252.6445	324.0812	366.1393	392.1325	515.2392	561.1174	606.6014	721.7241	751.3448	793.5705	849.1332	915.3953	925.4949	968.0554	991.488	1027.1696	1067.8635	1098.2751	1120.7021	1148.581	1160.5879	1206.7526	1229.4308	1262.9418	1291.3188	1315.2673	1321.6553	1348.7524	1367.1246	1397.3081	1406.8767	1411.9274	1453.1184	1482.2065	1492.5435	1494.1351	1498.6708	1499.2727	1503.085	1534.7357	1797.4796	2977.3342	3002.9087	3004.7634	3036.5097	3038.6968	3046.8193	3063.1513	3094.5435	3102.2404	3108.772	3112.4783	3121.0061	3124.6658
CCN1CCC(C)C1=O	CCN1CC[C@@H](C)C1=O	
InChI=1S/C7H13NO/c1-3-8-5-4-6(2)7(8)9/h6H,3-5H2,1-2H3	InChI=1S/C7H13NO/c1-3-8-5-4-6(2)7(8)9/h6H,3-5H2,1-2H3/t6-/m1/s1
