14
gdb 27683	2.83782	1.35998	0.92464	1.9344	76.07	-0.2139	-0.0174	0.1965	1185.4497	0.099529	-436.699784	-436.691421	-436.690477	-436.732664	30.773	
C	-0.0020796473	 1.5197531235	 0.1481606201	-0.501263
C	 0.0130050776	 0.0364659917	 0.0384925923	 0.165259
C	-0.0023149234	-0.7331905572	-1.0891762081	 0.106656
O	 0.022720456	-2.0704515007	-0.6671761385	-0.238289
C	 0.0507076225	-1.9765129199	 0.6728100296	 0.458663
O	 0.0791370648	-3.1106758814	 1.3629594784	-0.399171
N	 0.0471691615	-0.7817571637	 1.1635032408	-0.369472
C	-0.0354175717	-0.4597750069	-2.4601123025	 0.266057
C	-0.0640777028	-0.2073973995	-3.638920859	-0.433521
H	 0.8882102132	 1.8753807515	 0.6775585117	 0.145168
H	-0.0319411652	 1.9813005928	-0.8410237482	 0.137988
H	-0.8734318046	 1.8541094076	 0.72107208	 0.14519
H	 0.0744499163	-3.8494948489	 0.7415951664	 0.321311
H	-0.089266087	 0.0150585412	-4.676713423	 0.195424
132.9785	134.4848	145.3408	211.7703	280.5653	339.7314	372.0906	418.1712	463.7471	505.5325	567.944	590.7839	643.4598	691.4825	702.2471	746.9787	810.9559	992.2995	1044.353	1063.9711	1087.2144	1213.8714	1247.3982	1335.9575	1412.0836	1438.4108	1474.541	1482.3009	1642.4923	1686.7109	2223.217	3039.9614	3095.4929	3134.9038	3503.7755	3810.8659
CC1=C(OC(O)=N1)C#C	Cc1c(oc(O)n1)C#C	
InChI=1S/C6H5NO2/c1-3-5-4(2)7-6(8)9-5/h1H,2H3,(H,7,8)	InChI=1S/C6H5NO2/c1-3-5-4(2)7-6(8)9-5/h1H,2H3,(H,7,8)
