17
gdb 109160	3.30337	1.18868	0.90765	1.9121	72.63	-0.2333	-0.0625	0.1709	1261.9921	0.135837	-455.172417	-455.163175	-455.16223	-455.207017	32.601	
C	 0.0335894832	 1.4284221797	 0.0477599149	-0.320026
N	-0.0707291875	-0.0162342107	 0.0920775851	-0.357839
C	-1.259939499	-0.6542579952	 0.0232066746	 0.313738
N	-2.4305381676	-0.1181788486	 0.0751933119	-0.311545
C	-3.4566260719	-1.1680249381	-0.058445065	-0.19014
C	-2.7485333367	-2.5316244597	 0.05578546	 0.031709
O	-3.1915008322	-3.4903841041	-0.8731525571	-0.432038
C	-1.2901849842	-2.1422299602	-0.1493375231	 0.29366
O	-0.3750764187	-2.8728415202	-0.4475787493	-0.340203
H	 1.0603887828	 1.7211125838	 0.2756092747	 0.127951
H	-0.2466956687	 1.8367607431	-0.9323730681	 0.131739
H	-0.634823062	 1.8655232362	 0.7938911826	 0.154982
H	 0.7308950942	-0.5790774621	-0.1465422397	 0.260028
H	-4.230907101	-1.0224286383	 0.7004322808	 0.113147
H	-3.9414964552	-1.095004587	-1.0390087349	 0.130468
H	-2.8367280252	-2.9042198278	 1.0925253725	 0.101143
H	-2.4536708003	-4.0977539508	-1.0181881298	 0.293225
60.267	90.621	117.514	166.3075	219.1951	232.0411	333.2298	345.6066	379.6078	453.2565	477.9528	599.3264	629.8426	673.3667	782.6614	830.8131	945.5832	997.9713	1020.0538	1037.1335	1128.1943	1153.4471	1172.5573	1193.428	1207.1128	1236.3504	1298.4379	1335.0868	1367.6857	1400.178	1456.1329	1480.1905	1496.8706	1510.4092	1560.7512	1701.8391	1828.8452	2940.6324	3017.0957	3042.0404	3083.9428	3093.9575	3137.5775	3631.1477	3759.2344
CNC1=NCC(O)C1=O	CN[C]1[N]C[C@@H](O)C1=O	
InChI=1S/C5H8N2O2/c1-6-5-4(9)3(8)2-7-5/h3,8H,2H2,1H3,(H,6,7)	InChI=1S/C5H8N2O2/c1-6-5-4(9)3(8)2-7-5/h3,8H,2H2,1H3,(H,6,7)/t3-/m1/s1
