15
gdb 128692	2.74401	1.33162	0.90164	3.7955	71.42	-0.2393	-0.0378	0.2015	1218.5684	0.113532	-453.971712	-453.963506	-453.962562	-454.004925	29.129	
C	-0.0561024296	 1.3865599415	 0.0077181066	-0.239734
O	-0.0269729336	-0.0411292523	 0.0032279164	-0.259912
C	-1.2148719978	-0.6533659477	 0.0106110646	 0.401785
N	-2.3691611602	-0.005351799	 0.0216349591	-0.329312
N	-3.2954463647	-1.0079623255	 0.0257195932	-0.205301
C	-2.7597992119	-2.2354748968	 0.0177848352	-0.072756
C	-1.3798596176	-2.0718088221	 0.0074896738	-0.00354
C	-0.3670137593	-3.1148464108	-0.0036809568	 0.058621
O	-0.6090716088	-4.304882053	-0.0049670758	-0.29615
H	 0.9867780953	 1.7047057924	 0.0004040637	 0.134887
H	-0.5766025868	 1.7673443272	-0.8764755557	 0.138436
H	-0.5624952726	 1.7620350526	 0.9023155953	 0.138433
H	-4.2696111387	-0.7584074107	 0.0340365377	 0.283706
H	-3.3536175672	-3.1355297316	 0.0196354384	 0.171703
H	 0.6780599235	-2.7405535642	-0.0102141057	 0.079134
94.1496	142.7914	164.5817	177.7999	240.6109	257.88	368.9112	395.2107	500.9869	576.8715	658.7214	707.6324	745.5502	820.6115	847.8103	942.7403	1043.0424	1045.6613	1076.4227	1164.0979	1180.5647	1205.1856	1251.0823	1346.1648	1405.4571	1435.7239	1455.5648	1480.6372	1499.1986	1504.8317	1552.8346	1605.735	1777.4717	2912.6161	3037.9634	3107.427	3151.8814	3273.3843	3678.9171
COC1=NNC=C1C=O	COc1n[nH]cc1C=O	
InChI=1S/C5H6N2O2/c1-9-5-4(3-8)2-6-7-5/h2-3H,1H3,(H,6,7)	InChI=1S/C5H6N2O2/c1-9-5-4(3-8)2-6-7-5/h2-3H,1H3,(H,6,7)
