19
gdb 62158	2.56517	0.74204	0.60253	3.5213	75.01	-0.2573	-0.0274	0.2299	1785.7616	0.155459	-460.200916	-460.190483	-460.189539	-460.238313	35.212	
C	-0.1889798854	 1.5569074624	-0.0207501747	-0.39628
C	-0.0422357359	 0.0397545337	 0.0142439027	 0.105843
C	 0.719216489	-0.5138988438	-1.1905912058	-0.199035
C	 0.8315693538	-2.046777835	-1.1887996531	-0.286827
C	 1.6940810199	-2.5433483633	-2.326681595	 0.15775
O	 1.3418385196	-3.3276286411	-3.1685766188	-0.233749
O	 0.6957598433	-0.335222425	 1.1981495863	-0.190783
C	 0.0082180665	-0.7593483187	 2.2751720438	 0.17088
O	 0.5349815275	-1.0420332667	 3.3085193244	-0.272683
H	 0.7944042219	 2.0359290513	-0.0253210218	 0.138892
H	-0.7332348544	 1.8677842746	-0.9175078555	 0.127554
H	-0.7391276419	 1.9138294533	 0.8545618111	 0.129055
H	-1.0354890415	-0.4289956472	 0.0628503005	 0.092823
H	 0.2080318992	-0.1782401025	-2.1000606993	 0.119137
H	 1.7200775958	-0.0647737568	-1.2029677651	 0.120872
H	 1.3050563118	-2.3618165463	-0.249427873	 0.142416
H	-0.1498905626	-2.5251857842	-1.2615260216	 0.119891
H	 2.7236380608	-2.1132611211	-2.3391757822	 0.075223
H	-1.0826365274	-0.8234710338	 2.0915942871	 0.079022
40.8812	60.7202	68.8614	117.3118	151.0232	173.6033	221.1807	262.4083	300.8588	335.942	458.0106	507.4504	540.18	609.5599	772.5016	852.0142	894.1929	948.1844	1000.9426	1025.5001	1045.2436	1048.037	1117.9032	1134.6656	1161.6081	1189.097	1232.1988	1269.5065	1319.0419	1345.3311	1379.8955	1396.4478	1413.9345	1430.4608	1440.0267	1466.1364	1483.0247	1489.6491	1497.451	1838.0167	1865.7765	2853.8557	2942.1691	3007.359	3028.8822	3036.6581	3044.4265	3075.5803	3102.1173	3118.9867	3123.9714
CC(CCC=O)OC=O	C[C@@H](CCC=O)OC=O	
InChI=1S/C6H10O3/c1-6(9-5-8)3-2-4-7/h4-6H,2-3H2,1H3	InChI=1S/C6H10O3/c1-6(9-5-8)3-2-4-7/h4-6H,2-3H2,1H3/t6-/m0/s1
