17
gdb 53034	5.36763	0.88904	0.8477	1.8109	83.95	-0.2174	0.0398	0.2572	1399.9509	0.13506	-384.598309	-384.590137	-384.589193	-384.632694	30.215	
C	-0.0512461455	 1.4349955981	-0.0309840971	-0.514094
C	 0.0038655434	-0.0187817272	-0.013533899	 0.322261
C	 0.0516757309	-1.2242748908	 0.0043015342	-0.314357
C	 0.1075941029	-2.6418254487	 0.0324118765	 0.206324
C	 1.2154106143	-3.5623198378	 0.5666622924	-0.294787
C	 0.4272273542	-4.7044163481	-0.1169340855	 0.03927
O	-0.8019370142	-4.7865634509	 0.6649167169	-0.293951
C	-1.1622525015	-3.5498915223	 0.0674914427	 0.055764
C	-0.2333701271	-3.6528929596	-1.0836563667	-0.191997
H	 0.8285903893	 1.867943322	 0.4582557434	 0.150003
H	-0.0811082654	 1.8223551202	-1.055807507	 0.147297
H	-0.9378098278	 1.8112131276	 0.4921285417	 0.14751
H	 2.1642751356	-3.3613449546	 0.0639915817	 0.111478
H	 1.3553739819	-3.6454897894	 1.6484931804	 0.107632
H	 0.8577238384	-5.6728288671	-0.3587956683	 0.093939
H	-2.1674882069	-3.1670774722	 0.1790496534	 0.118817
H	-0.3316031227	-3.5412322994	-2.1541738199	 0.108892
20.157	93.0705	99.7811	272.0526	299.1227	417.2813	433.8492	493.2822	503.6717	564.9932	721.1117	772.3396	792.6581	827.2463	884.8851	919.188	949.3437	971.8096	985.8996	1014.3544	1041.9235	1045.9398	1053.3805	1055.6548	1120.0402	1146.9471	1164.4236	1196.5125	1252.1918	1276.129	1320.7922	1396.6883	1419.323	1475.8683	1479.0866	1486.851	2358.1492	3023.0668	3055.5115	3081.6256	3084.6755	3121.7958	3155.7598	3210.8325	3225.0559
CC#CC12CC3OC1C23	CC#C[C@@]12C[C@H]3O[C@@H]1[C@@H]23	
InChI=1S/C8H8O/c1-2-3-8-4-5-6(8)7(8)9-5/h5-7H,4H2,1H3	InChI=1S/C8H8O/c1-2-3-8-4-5-6(8)7(8)9-5/h5-7H,4H2,1H3/t5-,6+,7-,8+/m1/s1
