27
gdb 100680	2.64326	0.97544	0.88147	1.0641	92.5	-0.245	0.0787	0.3237	1546.2414	0.248358	-390.694676	-390.682541	-390.681597	-390.731638	44.878	
C	 0.0651848466	 1.6594247819	 0.0677932541	-0.388814
C	 0.0381123512	 0.1271461495	-0.0036698777	-0.190595
C	 0.6790821607	-0.5661730496	 1.214851141	 0.044658
C	-0.0355890405	-0.1884108513	 2.5232250056	-0.413903
C	 0.8240163893	-2.1122741854	 1.0595677341	 0.362075
C	-0.5327528914	-2.8334114814	 1.0776662411	-0.435929
C	 1.601728101	-2.4730267102	-0.2168939392	-0.425944
O	 1.624610698	-2.4661677619	 2.2060129596	-0.281308
C	 1.7862802567	-3.8289635247	 2.5186955509	-0.243162
H	 1.0877846998	 2.0301008475	 0.2026921264	 0.1132
H	-0.3265758941	 2.0965633785	-0.8561216354	 0.108846
H	-0.5389482115	 2.0436191861	 0.8944095646	 0.119415
H	-1.0029688177	-0.2047001207	-0.1132537139	 0.092515
H	 0.5561537626	-0.1792908219	-0.917951357	 0.094964
H	 1.7146805564	-0.2065323716	 1.2927473755	 0.074467
H	-1.117400781	-0.3523283201	 2.4557580152	 0.104019
H	 0.3531899389	-0.7799046005	 3.3535162515	 0.128528
H	 0.1180198617	 0.8674611773	 2.7615173965	 0.109482
H	-1.1846220319	-2.4393973133	 0.2932256181	 0.118676
H	-0.418017269	-3.905581623	 0.8931386779	 0.111667
H	-1.0377615257	-2.7042832694	 2.0382328895	 0.123347
H	 2.5291237069	-1.8957203474	-0.2791048589	 0.116268
H	 1.8620050996	-3.5353884814	-0.2252379893	 0.109962
H	 1.0119933278	-2.2837805471	-1.1173549837	 0.116892
H	 2.2048447453	-4.4165408234	 1.688864017	 0.101802
H	 2.4932308938	-3.8708877105	 3.3520538543	 0.123989
H	 0.8497062866	-4.3065218159	 2.8388651322	 0.104882
63.588	73.6401	88.5106	167.9642	181.8831	213.1386	230.0814	259.5396	265.2567	296.6026	300.7567	338.4225	350.4872	374.3929	397.9338	452.7884	498.7848	566.8401	715.6809	782.5669	816.1233	880.369	913.0908	936.8882	974.1541	984.0438	1008.8835	1035.9792	1080.6309	1100.5711	1142.1335	1169.9517	1180.4782	1194.4339	1208.9358	1216.2601	1276.3475	1298.2032	1332.4745	1365.1541	1378.9264	1396.0269	1401.8949	1409.5166	1414.8477	1473.4196	1479.8565	1482.8061	1485.5825	1492.5777	1497.7019	1500.5387	1507.6338	1509.918	1512.5856	1515.7647	1518.7489	2988.3222	3003.7965	3024.3543	3033.3387	3034.6212	3037.0467	3043.5339	3049.0218	3071.5645	3097.0726	3100.6565	3101.4206	3108.7011	3113.3028	3114.1627	3119.7115	3125.295	3138.5407
CCC(C)C(C)(C)OC	CC[C@@H](C)C(C)(C)OC	
InChI=1S/C8H18O/c1-6-7(2)8(3,4)9-5/h7H,6H2,1-5H3	InChI=1S/C8H18O/c1-6-7(2)8(3,4)9-5/h7H,6H2,1-5H3/t7-/m1/s1
