20
gdb 5976	3.43882	1.08247	1.02742	3.3664	71.72	-0.2474	-0.0189	0.2285	1233.131	0.173379	-386.149546	-386.13931	-386.138366	-386.185078	35.867	
C	 0.0700356729	 1.6134488454	-0.0013488794	-0.41156
C	-0.0018959105	 0.0820921783	 0.0354067258	 0.145096
C	 0.8345607915	-0.4852182355	 1.2056600757	-0.425155
C	-1.4600668247	-0.4439160234	 0.0756813401	-0.192259
C	-2.2770174835	-0.0641012915	 1.3078687233	-0.093748
O	-3.5586157793	-0.6546007299	 1.1436089557	-0.418176
C	 0.6068155534	-0.496178361	-1.239498754	 0.152935
O	 1.0898103341	 0.1408653644	-2.138432225	-0.253041
H	 1.098493488	 1.9447147697	-0.1664944221	 0.127213
H	-0.5359697318	 2.0158443677	-0.8178702737	 0.125062
H	-0.2822744405	 2.0487176962	 0.9381040571	 0.108561
H	 0.463084149	-0.1199137178	 2.166772168	 0.12594
H	 0.8030074901	-1.5800336894	 1.2277966598	 0.119568
H	 1.8816286461	-0.1777526844	 1.1183394664	 0.126963
H	-2.0006206367	-0.0785676953	-0.8058511504	 0.115974
H	-1.457358166	-1.5392419255	 0.0065341077	 0.106831
H	-1.789543432	-0.4327171507	 2.2229340206	 0.088589
H	-2.3549146354	 1.0300719059	 1.3931423879	 0.092752
H	-4.1001228721	-0.4130682424	 1.9006492283	 0.287071
H	 0.5768286773	-1.6116328608	-1.2816500317	 0.071383
53.8967	65.9778	94.2383	178.8397	209.6928	243.5408	259.755	279.3883	321.2248	325.6179	358.3584	398.2054	445.2134	654.6116	770.8999	796.021	878.8204	932.8367	951.5775	994.2452	1011.4077	1045.5916	1068.9735	1076.8039	1192.5993	1206.186	1236.3713	1260.4005	1285.3303	1332.678	1353.2967	1398.4258	1409.942	1432.8665	1458.4564	1479.9676	1486.0598	1490.1136	1505.6559	1509.4927	1529.7168	1833.6012	2844.2342	2978.5938	3006.0061	3024.5176	3034.202	3046.6184	3069.5435	3101.2767	3113.2352	3117.4006	3121.4005	3830.4776
CC(C)(CCO)C=O	CC(C)(CCO)C=O	
InChI=1S/C6H12O2/c1-6(2,5-8)3-4-7/h5,7H,3-4H2,1-2H3	InChI=1S/C6H12O2/c1-6(2,5-8)3-4-7/h5,7H,3-4H2,1-2H3
