21
gdb 9914	4.56418	1.04954	0.9312	2.4932	76.02	-0.2341	0.0821	0.3162	1331.6317	0.187373	-366.236909	-366.227361	-366.226417	-366.271545	34.218	
C	 0.4448299974	 0.6940036394	 1.1485710632	-0.38767
C	-0.1168017112	 0.0285218705	-0.0958863631	-0.026004
O	-1.218394747	-0.7755418689	 0.2793635712	-0.251743
C	-1.8381095069	-1.4318951572	-0.8038298503	-0.12593
C	-3.0255173553	-2.237586418	-0.306838785	 0.314577
C	-3.8252775371	-2.8915274613	-1.4119332608	-0.451219
C	-2.9471966243	-2.8625446182	 1.0359075577	-0.268402
N	-3.8153740702	-1.6852964701	 0.8044766563	-0.354887
H	 1.3020540655	 1.3223188188	 0.8895010126	 0.118082
H	-0.3137582609	 1.3216509309	 1.6248350886	 0.127669
H	 0.7719635255	-0.0579025684	 1.8723502092	 0.128148
H	-0.4363364979	 0.785437106	-0.8314685146	 0.090026
H	 0.6523662559	-0.5915694575	-0.585439661	 0.089913
H	-2.181506836	-0.6926162347	-1.5494350333	 0.088862
H	-1.1214977374	-2.0965414674	-1.3167118341	 0.091804
H	-3.2164665712	-3.6119979272	-1.9704067792	 0.111442
H	-4.6857931527	-3.4171926764	-0.9921386742	 0.130703
H	-4.2018292479	-2.1446750944	-2.1206225939	 0.115896
H	-3.4770636144	-3.7916600336	 1.2293119324	 0.106428
H	-2.0384465426	-2.7168023766	 1.6107290539	 0.118206
H	-3.3263260314	-0.8664290655	 1.1615262443	 0.234098
62.691	76.9728	125.2217	158.102	193.8835	249.6043	294.4402	310.5577	347.8823	401.55	446.4373	524.6477	722.6623	821.4044	836.8804	906.1261	917.9542	932.8493	981.6489	1017.2374	1026.2941	1054.3609	1096.1844	1128.7478	1147.1318	1152.4108	1166.7317	1192.4162	1266.835	1293.4901	1297.4184	1322.4627	1378.9169	1395.8513	1409.6611	1422.7713	1450.0813	1484.4327	1485.3751	1495.6274	1499.2632	1505.6974	1514.5154	1536.3179	2941.5085	2962.5629	2970.0508	2986.8209	3027.6234	3045.6762	3086.3448	3111.7602	3120.7878	3121.7462	3125.2743	3204.7408	3490.4534
CCOCC1(C)CN1	CCOC[C@@]1(C)CN1	
InChI=1S/C6H13NO/c1-3-8-5-6(2)4-7-6/h7H,3-5H2,1-2H3	InChI=1S/C6H13NO/c1-3-8-5-6(2)4-7-6/h7H,3-5H2,1-2H3/t6-/m1/s1
