19
gdb 100199	2.38995	1.29674	1.05704	3.8622	71.56	-0.2522	-0.03	0.2222	1216.8573	0.155106	-460.14186	-460.131682	-460.130738	-460.177412	36.072	
C	-0.4220598611	 1.4850268504	-0.1872711534	-0.396857
C	-0.0667724514	-0.0045178706	-0.165899624	-0.230857
C	 0.9858369246	-0.4127781213	-1.2127563918	 0.212551
O	 0.6677929235	 0.0267289633	-2.5245704118	-0.460376
C	 2.3442048366	 0.2325734241	-0.9063554122	 0.164407
O	 2.7981957361	 0.3292006446	 0.2031508858	-0.263441
C	 1.2022862319	-1.929363648	-1.1529793209	 0.06898
C	 0.7019599939	-2.8417025497	-2.1885660972	-0.18614
O	 2.0846781713	-2.497269002	-2.1178081466	-0.238223
H	 0.443731637	 2.0995454159	 0.0758115873	 0.13737
H	-0.7675623331	 1.8008064197	-1.1755485846	 0.117517
H	-1.2148457152	 1.6988677792	 0.5348564242	 0.118589
H	 0.325003717	-0.2789989463	 0.8184924373	 0.129666
H	-0.9670675639	-0.6126291606	-0.329938344	 0.092631
H	-0.2616618897	-0.1607025688	-2.6904654653	 0.287099
H	 2.8826031975	 0.5854835708	-1.8101583249	 0.107058
H	 1.3407961513	-2.3114595711	-0.1409127352	 0.109828
H	 0.4572904984	-3.8692394229	-1.9229223259	 0.119657
H	 0.1762708853	-2.4423792568	-3.0532788568	 0.110542
63.5663	73.9332	96.2305	163.6698	206.6263	227.2787	249.7862	278.3428	307.8253	343.2361	380.9162	456.7468	547.0416	656.0373	739.9857	794.8956	846.4668	869.6251	952.2882	973.1713	993.5334	1013.139	1061.9119	1097.1763	1122.1898	1135.8948	1166.8923	1168.8015	1203.9543	1277.8314	1301.5638	1360.4271	1371.2745	1404.4073	1411.7538	1416.509	1475.7262	1497.0563	1507.4703	1518.3335	1834.6075	2928.1521	3016.8052	3047.3284	3083.7362	3089.334	3109.7531	3117.8842	3121.449	3178.272	3822.9633
CCC(O)(C=O)C1CO1	CC[C@@](O)(C=O)[C@H]1CO1	
InChI=1S/C6H10O3/c1-2-6(8,4-7)5-3-9-5/h4-5,8H,2-3H2,1H3	InChI=1S/C6H10O3/c1-2-6(8,4-7)5-3-9-5/h4-5,8H,2-3H2,1H3/t5-,6-/m1/s1
