14
gdb 130159	5.76457	1.01153	0.86126	2.9785	67.47	-0.2099	-0.0217	0.1882	1245.3407	0.10413	-466.245221	-466.237507	-466.236563	-466.27756	28.593	
N	 0.0125269403	 1.3557661062	 0.1499419562	-0.585419
C	 0.0124433732	-0.0208406083	 0.0531028266	 0.404823
N	-1.099656541	-0.7412031307	 0.024166062	-0.298109
N	-0.6015956975	-2.0197714792	 0.0011613297	-0.247712
C	 0.7359256057	-1.9766661017	 0.0081138716	 0.512669
N	 1.5585524229	-3.0930883437	-0.0138903173	-0.410264
C	 1.1178166409	-4.3862203019	-0.0512428099	 0.152406
O	-0.0511118107	-4.7123166757	-0.0726419283	-0.318076
N	 1.1810673805	-0.7341838646	 0.0397232935	-0.409859
H	 0.8342489265	 1.7819516897	-0.2522932045	 0.257002
H	-0.8464084874	 1.7807208767	-0.1679534762	 0.258365
H	-1.181722025	-2.8429532752	-0.0246151745	 0.297943
H	 2.5484154715	-2.8976332556	 0.0055552561	 0.280073
H	 1.9519318801	-5.1085591359	-0.0602017851	 0.106158
82.3401	180.3629	199.5967	285.2142	305.5279	331.5482	395.8743	473.0344	579.2922	594.8272	605.3306	637.3502	726.9547	771.2268	796.9629	879.5601	1016.8163	1018.857	1073.9928	1083.7678	1156.7356	1174.4591	1297.5328	1399.6011	1428.741	1462.8951	1537.3042	1596.9115	1633.1013	1654.407	1788.6002	2993.2984	3573.1328	3631.2555	3662.6307	3678.8084
NC1=NNC(NC=O)=N1	Nc1n[nH]c(NC=O)n1	
InChI=1S/C3H5N5O/c4-2-6-3(5-1-9)8-7-2/h1H,(H4,4,5,6,7,8,9)	InChI=1S/C3H5N5O/c4-2-6-3(5-1-9)8-7-2/h1H,(H4,4,5,6,7,8,9)
