19
gdb 76197	2.22245	1.42585	1.18648	4.0435	71.84	-0.2377	0.0585	0.2963	1138.5394	0.15655	-460.110131	-460.100581	-460.099637	-460.144133	35.331	
C	-0.0515860062	 1.562644246	-0.0654463832	-0.461546
C	-0.0001479866	 0.0549860367	-0.0137081377	 0.25444
O	-1.1508972828	-0.6081166341	-0.473225064	-0.455887
C	 1.3220291438	-0.6817229055	-0.1998559448	-0.067837
O	 2.5300837778	 0.0196916093	-0.2766454427	-0.414006
C	 0.647668584	-0.6552619359	 1.1366653712	 0.240748
C	 1.1868926012	-0.0962189855	 2.4469508289	-0.138308
O	 0.6339685742	-1.2177805313	 3.1726710581	-0.280576
C	 0.0997289218	-1.8085913936	 1.9648304636	-0.137328
H	 0.8948917621	 1.9971076918	 0.2647844673	 0.13512
H	-0.2387187292	 1.9074092613	-1.0907022403	 0.10389
H	-0.8576844406	 1.946403533	 0.5675264516	 0.131479
H	-1.242107931	-0.4338343382	-1.4170106065	 0.280367
H	 1.2760059865	-1.619351994	-0.7572294426	 0.089875
H	 2.6256514098	 0.3645487663	-1.1708056864	 0.290372
H	 2.279766619	-0.0494325319	 2.5202395385	 0.115185
H	 0.7598358921	 0.8589898873	 2.7789355171	 0.098801
H	-0.9928749061	-1.8912004721	 1.9900660914	 0.114947
H	 0.5354077702	-2.7951512098	 1.7606324205	 0.100264
89.9713	147.0302	157.5603	196.5371	219.9869	240.6957	266.5824	310.8423	318.1356	390.4707	427.8213	522.8652	564.4776	599.086	709.5206	854.6905	880.1726	956.6337	963.3563	988.1281	1013.5632	1025.6257	1074.0261	1109.5739	1136.0244	1148.6297	1159.7305	1176.9709	1196.6147	1255.7816	1275.5038	1300.0866	1306.3999	1354.9275	1377.6735	1409.3619	1479.3011	1490.3499	1511.4792	1516.5532	1537.2516	3006.4883	3016.6057	3022.5266	3057.9008	3062.078	3084.752	3087.9143	3127.9665	3788.1275	3803.2803
CC1(O)C(O)C11COC1	C[C@@]1(O)[C@@H](O)C21COC2	
InChI=1S/C6H10O3/c1-5(8)4(7)6(5)2-9-3-6/h4,7-8H,2-3H2,1H3	InChI=1S/C6H10O3/c1-5(8)4(7)6(5)2-9-3-6/h4,7-8H,2-3H2,1H3/t4-,5-/m1/s1
