19
gdb 92962	2.36949	1.54578	1.14146	3.139	76.72	-0.2365	-0.0283	0.2082	1132.728	0.15875	-423.057714	-423.048899	-423.047955	-423.09162	33.06	
C	 0.1955078072	 1.2877423418	-0.2956983345	-0.477417
C	 0.0704830219	-0.2001878637	-0.04279146	 0.40893
O	 1.043526543	-0.9289243724	-0.0639763468	-0.32943
C	-1.3370409782	-0.7359035011	 0.2241664123	-0.204936
C	-2.0658962456	-0.8964634516	-1.1009281404	-0.088186
C	-2.1207130968	-2.1738193541	-1.480919237	-0.05033
C	-1.4686031647	-3.0944752802	-0.4827401151	-0.28846
C	-1.3601641923	-2.1985647655	 0.7820123902	 0.137823
O	-0.3364299036	-2.5315026033	 1.6803454481	-0.443018
H	 1.2076067872	 1.5291310312	-0.6224074314	 0.145331
H	-0.5318856748	 1.6226560765	-1.0420947143	 0.141402
H	-0.0260303046	 1.8313157085	 0.6306772032	 0.14864
H	-1.8488445838	-0.0306424188	 0.8908763614	 0.087234
H	-2.4537335737	-0.0534312535	-1.6615235348	 0.098426
H	-2.5741960602	-2.5225164819	-2.4024881009	 0.100145
H	-2.0388524403	-4.0094510245	-0.2920066223	 0.106544
H	-0.470989002	-3.4047734499	-0.8200446538	 0.120407
H	-2.2950375056	-2.2999517419	 1.3446099896	 0.093552
H	 0.4920137769	-2.3230115254	 1.2244728065	 0.293344
57.7539	103.7826	123.1053	190.2311	235.0086	304.9668	396.6302	426.6908	478.0619	544.9952	584.9557	618.7794	660.3039	728.892	764.1607	805.3264	868.1928	959.0154	965.5253	972.8205	979.2567	1010.0289	1047.2853	1087.3989	1123.7327	1140.8963	1153.3185	1190.21	1238.8146	1264.5794	1305.8535	1342.865	1346.9107	1374.4585	1383.8375	1460.19	1461.3212	1475.0528	1481.6514	1673.419	1779.8593	3024.0338	3027.8345	3037.8901	3046.278	3075.2755	3100.2132	3153.4268	3180.1817	3204.8943	3723.1042
CC(=O)C1C=CCC1O	CC(=O)[C@H]1C=CC[C@H]1O	
InChI=1S/C7H10O2/c1-5(8)6-3-2-4-7(6)9/h2-3,6-7,9H,4H2,1H3	InChI=1S/C7H10O2/c1-5(8)6-3-2-4-7(6)9/h2-3,6-7,9H,4H2,1H3/t6-,7-/m1/s1
