23
gdb 118858	2.58009	0.93968	0.78245	0.8532	84.4	-0.2419	0.0881	0.33	1589.9779	0.202526	-425.391243	-425.380234	-425.37929	-425.427712	39.06	
C	-0.2231603568	 1.3598548269	-0.2516205127	-0.221549
O	-0.2706487754	-0.0415716727	-0.3489562588	-0.238152
C	 0.9133748281	-0.5904675965	-0.9000438903	-0.119465
C	 0.788343048	-2.0963520411	-0.903201351	 0.281426
C	 0.6909042563	-2.7261720879	 0.4725836504	-0.463818
C	 1.3355*^-6	-2.7198957945	-2.0454395737	-0.350519
C	 1.5032995758	-2.8548108853	-1.9845445124	 0.077703
O	 2.2987573197	-2.1384240157	-2.876601668	-0.239854
C	 2.4012487681	-2.7579384175	-4.1428486686	-0.231951
H	 0.5970832037	 1.6995194166	 0.4016497226	 0.100809
H	-0.0898543021	 1.8353973326	-1.2369145053	 0.100628
H	-1.1731436841	 1.6928342035	 0.1743009684	 0.123294
H	 1.0796570809	-0.2140046203	-1.9188966806	 0.09644
H	 1.7855676775	-0.2862152475	-0.2946334701	 0.08188
H	-0.1779345091	-2.3332134695	 1.0082414606	 0.135471
H	 0.5895968234	-3.8139120776	 0.4081949106	 0.107407
H	 1.5842515209	-2.5067709131	 1.0694880004	 0.112935
H	-0.6171030203	-3.5887660834	-1.8421213001	 0.10714
H	-0.4025360459	-2.040235613	-2.7889618899	 0.117227
H	 1.9126529033	-3.8318021962	-1.7177306164	 0.080723
H	 2.8601412049	-3.7556408097	-4.0685820395	 0.1059
H	 1.4179490655	-2.8652720363	-4.6225296755	 0.110218
H	 3.0374702421	-2.1218170219	-4.7626807503	 0.126105
63.9644	89.0283	106.0013	127.4421	173.3729	197.4964	220.0336	231.2349	253.736	319.0535	325.5458	378.0844	442.867	486.9807	593.2758	733.8684	832.5255	888.9499	948.0743	980.6573	986.3464	997.2393	1042.4973	1044.123	1077.3051	1124.867	1128.3455	1156.9153	1174.0012	1183.0636	1187.5465	1226.597	1230.3943	1252.8235	1314.079	1335.8557	1408.7616	1412.2921	1426.0136	1474.1462	1480.3987	1484.1377	1484.837	1486.8266	1492.8527	1506.0837	1507.305	1511.4918	1526.8713	2947.6284	2965.2731	2982.915	3005.054	3022.8009	3027.9352	3034.9733	3072.7484	3092.4953	3109.0174	3113.6356	3117.7481	3131.0375	3219.0647
COCC1(C)CC1OC	COC[C@@]1(C)C[C@H]1OC	
InChI=1S/C7H14O2/c1-7(5-8-2)4-6(7)9-3/h6H,4-5H2,1-3H3	InChI=1S/C7H14O2/c1-7(5-8-2)4-6(7)9-3/h6H,4-5H2,1-3H3/t6-,7-/m1/s1
