17
gdb 13389	5.63806	1.14769	1.03926	2.1748	64.89	-0.2482	0.0237	0.2719	1139.8806	0.142644	-400.998887	-400.990842	-400.989898	-401.032416	27.814	
C	 0.5780718364	 1.3802483148	 0.2518047128	-0.227325
O	 0.7573821493	-0.0163849447	 0.1987835219	-0.235508
C	-0.2517961516	-0.7284686846	 0.8745224427	-0.072826
C	 0.0882579064	-2.208593912	 0.7564098688	 0.068766
C	 1.3632962487	-2.6354914862	 1.5291649218	-0.189208
N	 0.8771530799	-3.5113046632	 2.6125792611	-0.260733
C	-0.3702694141	-3.6173433462	 2.4320487754	 0.119045
O	-0.9683374666	-2.9699749266	 1.3987254888	-0.233758
H	 0.5865862228	 1.7526146091	 1.2879495859	 0.10894
H	 1.406076435	 1.8363561569	-0.2956553926	 0.131251
H	-0.3706701476	 1.6860742777	-0.2157576409	 0.108392
H	-0.2963437538	-0.4434766131	 1.9398726758	 0.095143
H	-1.2432807258	-0.5318377068	 0.4359241345	 0.099483
H	 0.1131595415	-2.4941590972	-0.2984425605	 0.102772
H	 2.0717287529	-3.1855138419	 0.9021411439	 0.120554
H	 1.8955727816	-1.7731304979	 1.9417617398	 0.124948
H	-1.0496811749	-4.2024921881	 3.0419218807	 0.140065
56.2774	91.9222	100.4997	175.7515	233.5213	333.0904	394.6003	464.5898	528.7064	735.15	850.1161	906.5196	935.2256	964.0381	971.9959	975.3182	1018.7726	1100.4847	1120.6553	1130.561	1168.8745	1180.7834	1211.9398	1229.6899	1259.4665	1302.3323	1312.462	1344.6045	1371.1558	1423.407	1481.9709	1486.629	1499.9824	1504.827	1526.9979	1712.4861	2956.5177	2976.9086	2996.8166	3022.2086	3052.2755	3075.8225	3092.1316	3118.5982	3216.9762
COCC1CN=CO1	COC[C@H]1CN=CO1	
InChI=1S/C5H9NO2/c1-7-3-5-2-6-4-8-5/h4-5H,2-3H2,1H3	InChI=1S/C5H9NO2/c1-7-3-5-2-6-4-8-5/h4-5H,2-3H2,1H3/t5-/m1/s1
