15
gdb 86930	4.04056	0.93791	0.81885	3.8005	63.81	-0.2636	-0.0566	0.2071	1333.8626	0.109707	-494.909943	-494.900932	-494.899988	-494.944734	30.935	
O	 0.137309686	 1.4789804448	-0.0828557535	-0.41955
C	 0.0851280591	 0.0919166295	-0.0342101336	 0.063769
C	-1.2734976182	-0.6853046146	 0.1502389369	-0.31414
C	-0.7856886844	-1.7703317368	-0.8419314438	 0.013644
O	-1.7544508828	-2.2036049547	-1.7765797078	-0.19293
C	-1.3146501276	-2.9859736238	-2.794803707	 0.179626
O	-2.0466048564	-3.378205582	-3.6494390634	-0.264675
C	 0.2218096987	-0.7060445195	-1.3393885224	 0.31324
O	 0.6081708885	-0.4188665744	-2.4350892488	-0.290636
H	-0.1138312819	 1.7620062338	-0.9702621137	 0.299335
H	 0.8061903518	-0.248025504	 0.7180787749	 0.125681
H	-1.5189792719	-1.0094440792	 1.1603618546	 0.131002
H	-2.1066308121	-0.1287072059	-0.2846075765	 0.142952
H	-0.304275025	-2.6165961013	-0.3390773453	 0.119808
H	-0.2357785838	-3.2143143618	-2.7308852507	 0.092874
57.2649	83.4378	123.2202	138.3607	195.962	253.6045	287.9923	355.2945	396.2659	491.8607	597.9241	672.4188	709.3711	806.6449	872.1474	948.097	994.7485	1024.2138	1035.4308	1060.4775	1116.099	1152.3135	1176.8161	1195.2204	1240.4396	1256.4047	1328.3342	1366.2811	1426.0375	1436.022	1476.3061	1869.5657	1885.338	2983.0212	3046.1043	3054.5741	3088.8985	3161.3792	3792.0862
OC1CC(OC=O)C1=O	O[C@H]1C[C@@H](OC=O)C1=O	
InChI=1S/C5H6O4/c6-2-9-4-1-3(7)5(4)8/h2-4,7H,1H2	InChI=1S/C5H6O4/c6-2-9-4-1-3(7)5(4)8/h2-4,7H,1H2/t3-,4+/m0/s1
