13
gdb 56486	2.79794	1.05553	0.83604	4.0206	62.04	-0.3061	-0.06	0.2462	1307.4633	0.086982	-489.906413	-489.897337	-489.896393	-489.941484	30.473	
O	-0.1774081364	 1.335253819	-0.0746029802	-0.394358
C	 0.0165385424	-0.0438498669	-0.0175170234	-0.098173
C	 0.760394465	-0.5604865098	-1.190116025	 0.267131
N	 1.346409047	-0.9463962651	-2.1073537487	-0.303027
C	 0.7895752692	-0.4204477088	 1.2582639117	 0.449327
O	 1.3494204226	 0.4028648144	 1.9293714663	-0.343135
O	 0.7368255334	-1.7452842237	 1.4872993341	-0.192619
C	 1.4523554054	-2.2581527481	 2.5619514799	 0.122304
N	 1.3226333304	-3.4800115691	 2.8010798884	-0.398346
H	 0.523557855	 1.7358728853	 0.4617570391	 0.309444
H	-0.9576012584	-0.5469820419	 0.0093223461	 0.169753
H	 2.0526151735	-1.5019045081	 3.0663794798	 0.157726
H	 1.8971931008	-3.747942307	 3.5988367118	 0.253973
49.7464	92.2166	100.5982	146.6673	190.3268	251.1619	301.2202	370.1034	393.059	445.7226	534.0629	594.4762	677.389	817.3573	853.9753	921.5625	961.9673	995.0259	1064.8991	1124.8196	1211.6733	1241.5137	1287.3296	1330.1015	1388.1221	1433.4964	1756.058	1838.8078	2360.4158	3053.4337	3149.6204	3515.7412	3727.9864
OC(C#N)C(=O)OC=N	O[C@@H](C#N)C(=O)O[CH][NH]	
InChI=1S/C4H4N2O3/c5-1-3(7)4(8)9-2-6/h2-3,6-7H	InChI=1S/C4H4N2O3/c5-1-3(7)4(8)9-2-6/h2-3,6-7H/t3-/m0/s1
