14
gdb 124675	3.42561	1.09502	0.94824	2.3581	64.18	-0.2743	-0.084	0.1904	1200.1514	0.098543	-469.95655	-469.948189	-469.947245	-469.991978	28.352	
C	-0.0727162716	 1.5013886712	-0.0577931906	-0.410794
C	-0.0166035301	-0.0350756228	 0.067477818	-0.166113
C	 0.6432953384	-0.5949267635	-1.2025524888	 0.161025
O	 0.0409961856	-1.1379836342	-2.084966258	-0.225123
C	 0.7454924287	-0.4794158239	 1.2717113627	 0.392968
N	 1.7925035602	 0.1146823373	 1.772112801	-0.145162
O	 2.1653314137	-0.6605664268	 2.8147052878	-0.134422
N	 1.2891809325	-1.7410682124	 2.9069299991	 0.050926
N	 0.4460199007	-1.6323003602	 1.9836940444	-0.198304
H	 0.929313457	 1.9236750906	-0.1708700321	 0.150982
H	-0.6723788456	 1.7808835705	-0.9272051403	 0.14366
H	-0.5237181722	 1.9389715981	 0.8361209974	 0.14451
H	-1.0222511064	-0.4586019621	 0.1192053707	 0.135258
H	 1.7404278491	-0.4135553619	-1.2558765214	 0.100588
13.8072	59.0977	146.2609	193.9298	214.2084	296.0143	396.2217	431.7143	454.6365	677.3213	684.7973	749.3741	785.0053	892.0556	942.2141	967.5273	1044.7422	1061.0542	1078.5273	1124.3508	1141.6064	1225.7656	1280.8091	1368.8607	1404.3144	1417.4293	1481.3688	1493.9751	1499.4751	1579.8817	1846.3542	2885.2841	3052.5365	3098.2491	3131.001	3135.7125
CC(C=O)C1=NON=N1	C[C@@H](C=O)c1nonn1	
InChI=1S/C4H5N3O2/c1-3(2-8)4-5-7-9-6-4/h2-3H,1H3	InChI=1S/C4H5N3O2/c1-3(2-8)4-5-7-9-6-4/h2-3H,1H3/t3-/m0/s1
