22
gdb 115631	2.24563	1.40079	1.03206	1.7571	84.	-0.2231	0.0743	0.2974	1271.3102	0.192894	-404.296334	-404.286707	-404.285763	-404.33077	35.807	
C	 0.1789743858	 1.5021000037	-0.2204182515	-0.239557
O	-0.3049624825	 0.2399795522	-0.6269364062	-0.242561
C	 0.6916091091	-0.5982383282	-1.1468782573	 0.081821
C	 1.6696994809	-1.3322046174	-0.1770802529	-0.260251
C	 1.4613644502	-2.6324053332	-1.0098376966	-0.315255
C	 0.2179760491	-1.9754141995	-1.616417539	 0.337681
C	-1.1894192472	-2.4400016912	-1.5710687278	-0.306312
N	-0.4605108885	-2.3461862313	-2.839774069	-0.145307
C	-0.8533739241	-1.2615281408	-3.732909224	-0.326963
H	 0.9096453689	 1.4174422656	 0.5973407721	 0.110491
H	 0.6555822956	 2.0411491383	-1.0541651503	 0.105391
H	-0.6777868413	 2.0812129743	 0.1320028915	 0.127754
H	 1.2511855063	-0.074377157	-1.9406746905	 0.064568
H	 2.6864145245	-0.9442407565	-0.0925982764	 0.096937
H	 1.2242222231	-1.4112379863	 0.8178855555	 0.111979
H	 2.2483993783	-2.7885364936	-1.7532744862	 0.108656
H	 1.3118436828	-3.5610803224	-0.4556214312	 0.107007
H	-1.42341616	-3.4474180306	-1.2346389069	 0.108546
H	-1.9479946671	-1.6893532998	-1.3571238611	 0.12121
H	-1.1549853468	-0.3436321383	-3.205044634	 0.117151
H	-0.0174295061	-1.0202133144	-4.3982185881	 0.116645
H	-1.6914057211	-1.5957363635	-4.3525466801	 0.120372
82.7107	100.0564	160.8454	165.5726	201.8692	221.8932	242.6965	323.4425	390.5805	427.5399	459.6903	515.1242	586.5218	728.3119	779.586	802.2654	899.8277	916.8771	937.5116	964.427	1015.4232	1052.1376	1091.4952	1098.2848	1112.6719	1136.0792	1152.6718	1171.0277	1183.4106	1185.5884	1203.6407	1223.5353	1240.0466	1246.0547	1272.5743	1290.3892	1390.849	1417.6922	1447.6809	1476.1404	1480.6578	1487.1433	1492.5986	1497.6172	1504.4892	1509.5402	1514.3518	2954.7402	2977.672	2985.9882	3026.8453	3060.5131	3067.692	3068.2634	3092.5646	3098.527	3111.2869	3116.1326	3129.2011	3180.0564
COC1CCC11CN1C	CO[C@H]1CC[C@]21CN2C	
InChI=1S/C7H13NO/c1-8-5-7(8)4-3-6(7)9-2/h6H,3-5H2,1-2H3	InChI=1S/C7H13NO/c1-8-5-7(8)4-3-6(7)9-2/h6H,3-5H2,1-2H3/t6-,7+,8?/m0/s1
