19
gdb 98290	2.12828	1.34246	0.97867	1.2761	71.31	-0.2628	-0.0301	0.2327	1269.1953	0.156386	-460.156633	-460.146802	-460.145858	-460.192291	34.924	
C	 0.7886362152	 1.4362858094	-0.1069074179	-0.380541
C	 0.4701218121	-0.0568635594	-0.1243027717	-0.293516
C	 0.7256553089	-0.7231067169	-1.4534486545	 0.3528
O	 1.0682806399	-0.1199551587	-2.450614878	-0.332577
C	 0.5263310139	-2.2440462035	-1.5663305041	 0.000837
O	 0.4848549404	-2.6206546623	-2.9191245822	-0.427286
C	 1.6305546945	-3.0553373826	-0.8831838235	 0.058792
C	 2.9807121417	-2.5454537007	-0.6296603026	-0.180925
O	 2.0377242698	-2.71452053	 0.4407111451	-0.229383
H	 1.8456302711	 1.6150457482	-0.3221373138	 0.128707
H	 0.2076806785	 1.9718420047	-0.8617987362	 0.133703
H	 0.5620464913	 1.8634164703	 0.8735143369	 0.116757
H	 1.0336117548	-0.6167780401	 0.6328755235	 0.161293
H	-0.5854799158	-0.2406403353	 0.1241483198	 0.130326
H	-0.4297524375	-2.5039960138	-1.0871123237	 0.093961
H	 0.8257907435	-1.8473107821	-3.39951424	 0.294481
H	 1.5116230054	-4.1244759787	-1.0585340126	 0.115473
H	 3.8240215704	-3.2325956979	-0.6142604231	 0.12794
H	 3.2260853221	-1.5141061007	-0.8767722215	 0.129159
45.9925	68.6713	102.4446	158.8347	197.0232	205.5442	256.557	344.5362	367.807	410.1445	470.7796	511.389	591.0648	679.8795	775.5787	826.7973	856.2649	878.0557	973.1364	987.4485	1037.9146	1044.9256	1095.5547	1108.0376	1119.4209	1151.1489	1159.2526	1176.6018	1254.681	1290.0938	1297.8805	1330.2286	1382.4389	1414.1567	1417.2848	1455.6411	1456.2373	1493.9405	1498.3102	1531.0838	1785.8064	2995.4759	3019.2377	3051.969	3060.5375	3094.694	3117.3356	3122.3231	3127.7668	3183.8939	3663.5639
CCC(=O)C(O)C1CO1	CCC(=O)[C@@H](O)[C@H]1CO1	
InChI=1S/C6H10O3/c1-2-4(7)6(8)5-3-9-5/h5-6,8H,2-3H2,1H3	InChI=1S/C6H10O3/c1-2-4(7)6(8)5-3-9-5/h5-6,8H,2-3H2,1H3/t5-,6-/m1/s1
