22
gdb 119715	3.07305	0.96669	0.86961	1.7999	82.98	-0.2315	0.0801	0.3116	1438.2082	0.19322	-404.296964	-404.287212	-404.286268	-404.331926	36.164	
C	-0.1172216066	 1.5066153331	 0.1098524875	-0.321542
N	 0.0860646882	 0.0692217193	 0.1951353343	-0.11285
C	 1.3333544802	-0.5720560762	-0.1654730848	-0.111546
C	 2.5744726095	 0.2415986119	 0.2462243005	-0.24088
C	 2.0496161177	 0.2514803867	 1.7147008207	-0.294337
C	 0.8248524959	-0.5814447168	 1.2617948329	 0.33531
C	 0.1571774134	-1.6589397315	 2.0687544565	-0.279251
C	-0.7208333719	-1.0951638438	 3.1831336681	-0.072192
O	-1.2569554799	-2.1912354226	 3.9088165881	-0.419767
H	 0.7402347567	 2.1239165966	 0.4129295085	 0.105087
H	-0.3689332405	 1.7641198492	-0.9239213963	 0.122413
H	-0.9689376458	 1.7801681327	 0.7409561285	 0.119619
H	 1.307682201	-1.3537882897	-0.9187279971	 0.08782
H	 3.4969725279	-0.3335023345	 0.141746999	 0.105555
H	 2.7128129523	 1.2080899035	-0.2480887481	 0.099041
H	 2.6999912559	-0.3097024771	 2.3897285122	 0.105772
H	 1.8411238168	 1.2249970579	 2.1690073899	 0.095559
H	-0.4633480559	-2.27445056	 1.4100460168	 0.113834
H	 0.9124991307	-2.3141873242	 2.5196850087	 0.100984
H	-0.121428664	-0.4406025492	 3.8375517658	 0.082699
H	-1.5176993738	-0.4771653938	 2.7406647066	 0.094381
H	-1.8353722081	-1.8443192114	 4.5940378318	 0.28429
62.2053	97.3435	108.685	152.8795	259.4906	265.0131	269.7501	297.1642	340.8429	346.5832	462.6752	546.0696	702.1551	747.6758	765.2	785.8044	814.0765	916.3393	939.8892	955.7828	977.2071	1001.6391	1023.9895	1058.1602	1089.3002	1116.0741	1144.8461	1160.9031	1183.4709	1202.7307	1217.1542	1225.6934	1240.8825	1244.6168	1273.595	1281.2944	1316.2821	1335.34	1430.9879	1453.7572	1459.6866	1471.9842	1480.5527	1486.7242	1503.327	1508.2363	1527.3363	2960.9141	2993.8452	3002.8604	3036.2086	3049.748	3057.0169	3070.49	3091.4579	3098.0522	3100.2858	3115.9365	3154.8997	3830.5769
CN1C2CCC12CCO	CN1[C@H]2CC[C@@]12CCO	
InChI=1S/C7H13NO/c1-8-6-2-3-7(6,8)4-5-9/h6,9H,2-5H2,1H3	InChI=1S/C7H13NO/c1-8-6-2-3-7(6,8)4-5-9/h6,9H,2-5H2,1H3/t6-,7-,8?/m0/s1
