16
gdb 102003	2.48691	1.36508	0.95079	6.2677	74.29	-0.2762	-0.0699	0.2063	1215.3027	0.123225	-434.095941	-434.086454	-434.08551	-434.13109	32.624	
C	-0.0004456591	 1.5216798786	-0.0305129504	-0.379142
C	-0.055490009	-0.0057850207	-0.0025105072	-0.171587
N	-1.4307639057	-0.5310265743	-0.0057971877	-0.116866
C	-2.0444631986	-0.7839026874	-1.2390756595	 0.081857
N	-3.2998285289	-0.8138759114	-1.3841322416	-0.415302
C	-2.0457402498	-0.6618825001	 1.2233824832	 0.367381
O	-1.5375215973	-0.274004751	 2.2546790115	-0.335779
C	-3.3249418423	-1.3788623666	 1.2881032604	 0.263098
N	-4.2865457673	-1.9678189305	 1.5407260112	-0.331082
H	 1.041718339	 1.8543813033	-0.0433440744	 0.129217
H	-0.4981132898	 1.92169624	-0.919205664	 0.126621
H	-0.4825138631	 1.9365640553	 0.8574325147	 0.155307
H	 0.450822667	-0.4298497745	-0.8751470726	 0.117394
H	 0.435499501	-0.3863882252	 0.8941371012	 0.150889
H	-1.3019343317	-0.9354530747	-2.0303168839	 0.1129
H	-3.5544714842	-1.0675120208	-2.3363063309	 0.245093
51.3197	74.164	114.9418	171.0484	199.2845	225.4909	247.84	315.1581	377.4791	424.7497	481.5662	587.9433	621.6267	757.1478	766.7911	790.5053	821.7285	934.7292	1031.2022	1061.7789	1104.8325	1130.0861	1187.5076	1266.0945	1309.9713	1391.5082	1409.5468	1424.1132	1433.1309	1480.9157	1490.1759	1505.4152	1731.2392	1752.7218	2349.3819	3046.4798	3054.7228	3064.6364	3112.0363	3128.8172	3141.7193	3518.1684
CCN(C=N)C(=O)C#N	CCN(C=N)C(=O)C#N	
InChI=1S/C5H7N3O/c1-2-8(4-7)5(9)3-6/h4,7H,2H2,1H3	InChI=1S/C5H7N3O/c1-2-8(4-7)5(9)3-6/h4,7H,2H2,1H3
