16
gdb 37151	4.00402	1.92625	1.66899	1.2948	70.12	-0.2271	0.0456	0.2727	816.1183	0.12554	-400.569707	-400.564068	-400.563124	-400.599251	25.039	
C	-0.0315050501	 1.5061896348	-0.1269312272	-0.29732
C	 1.29332223	 0.8005290581	 0.0203266687	 0.01275
C	-0.0214803894	-0.0051669831	-0.065301712	-0.20559
C	 0.3745219797	-0.6816527068	-1.3538328178	 0.470057
O	 0.0490214642	-1.6275997653	-2.417679429	-0.401208
C	 1.4237642981	-1.1103556854	-2.7479128067	-0.012687
C	 1.880173465	-1.0563997157	-1.2823843772	-0.055198
N	 2.1451440415	 0.4454803654	-1.1803172937	-0.189326
C	 1.1033151372	 0.3156202347	-2.2734873261	-0.072446
H	-0.3875773133	 2.0304359623	 0.7549682775	 0.119254
H	-0.2972567717	 1.9974114046	-1.0556705628	 0.124244
H	 1.8446809639	 0.8884334612	 0.9479835527	 0.103892
H	-0.4119906398	-0.5577782854	 0.7788391769	 0.108713
H	 1.8754716249	-1.5004748967	-3.6569194792	 0.105646
H	 2.3727913061	-1.8033052461	-0.6615536714	 0.093276
H	 0.7071516837	 1.1509543535	-2.8464648029	 0.095942
294.4301	351.3223	423.4083	516.3947	539.5021	634.199	701.0144	734.1964	788.6103	799.7411	811.494	825.5175	847.1032	872.6313	896.9375	909.4038	936.0828	955.5765	1013.4777	1039.1643	1067.5596	1072.8162	1087.4389	1094.1402	1110.0203	1140.2288	1163.3572	1166.134	1180.1127	1229.5072	1249.6541	1314.1349	1335.8517	1352.322	1478.8188	3130.8603	3132.2333	3140.3118	3156.6614	3193.6412	3202.7313	3217.0878
C1C2C1C13OC4C1N2C34	C1[C@H]2[C@@H]1[C@]13O[C@@H]4[C@H]1N2[C@H]34	
InChI=1S/C7H7NO/c1-2-3(1)8-5-4-6(8)7(2,5)9-4/h2-6H,1H2	InChI=1S/C7H7NO/c1-2-3(1)8-5-4-6(8)7(2,5)9-4/h2-6H,1H2/t2-,3+,4-,5-,6+,7+/m1/s1
