17
gdb 26003	4.92014	0.96867	0.8134	2.5191	78.55	-0.1908	0.0247	0.2155	1372.3928	0.137068	-418.079728	-418.071005	-418.070061	-418.114371	31.88	
C	-0.1538679259	 1.5480074029	 0.034360111	-0.489838
C	 0.0948269856	 0.0479536296	 0.0835114889	 0.399034
O	 1.2119502531	-0.4183753411	 0.2242421011	-0.368384
N	-1.0263557235	-0.726529198	-0.0418245651	-0.436645
C	-1.0624477643	-2.1290506132	-0.0282369124	 0.343303
C	-0.0047946501	-3.0041977228	 0.1106095881	-0.155595
N	-0.5327402941	-4.273557139	 0.0631387961	-0.240241
C	-1.8887861452	-4.2226023842	-0.1011708639	-0.05715
C	-2.2550681759	-2.8982431109	-0.1623261784	-0.277874
H	 0.42772511	 1.9738241895	-0.7877490236	 0.152352
H	-1.2042361343	 1.8218710418	-0.0961112661	 0.108606
H	 0.2163451355	 1.996086214	 0.9604362486	 0.15235
H	-1.9113984663	-0.2611653109	-0.1545547171	 0.247618
H	 1.0438498002	-2.8127883351	 0.2347129886	 0.153634
H	 0.0093441216	-5.1154093629	 0.1393287847	 0.263138
H	-2.4815134129	-5.1205583424	-0.1612139836	 0.119537
H	-3.2580522636	-2.5188677674	-0.2882289767	 0.086157
31.5883	75.1241	103.3873	167.176	339.583	351.0888	363.4409	463.0441	484.2519	567.0997	622.7868	633.9795	657.668	684.36	777.9898	778.0015	796.7575	901.9447	956.3573	980.4044	1021.7823	1048.564	1083.1478	1093.981	1166.9814	1247.2842	1275.9659	1304.7445	1396.2219	1413.2762	1469.0531	1472.5825	1488.3913	1502.0081	1575.5529	1621.1091	1770.1981	3047.0975	3124.2352	3125.149	3239.1709	3272.7751	3325.794	3651.4187	3693.2547
CC(=O)NC1=CNC=C1	CC(=O)Nc1c[nH]cc1	
InChI=1S/C6H8N2O/c1-5(9)8-6-2-3-7-4-6/h2-4,7H,1H3,(H,8,9)	InChI=1S/C6H8N2O/c1-5(9)8-6-2-3-7-4-6/h2-4,7H,1H3,(H,8,9)
