19
gdb 111563	3.44844	1.38599	1.23249	0.3802	73.42	-0.2414	0.0618	0.3032	1078.5593	0.160351	-422.971705	-422.96439	-422.963445	-423.003684	29.229	
C	-0.0717126868	 1.5305687433	 0.0296584939	-0.382151
C	 0.0416929548	 0.002667908	-0.0095930873	-0.210994
C	 0.7211103812	-0.5827844029	 1.2264417861	 0.047547
C	-0.1047912	-0.5520651909	 2.5348564032	 0.010842
O	-1.3085190951	-1.2896686374	 2.1589842346	-0.288206
C	-0.4665032251	-2.4402905934	 2.149411211	 0.057845
C	 0.484088265	-1.8826656531	 3.2081194157	 0.055737
O	 1.6591738219	-2.2842845646	 2.508853387	-0.291338
C	 0.8556078249	-2.1211706196	 1.2999218674	-0.005202
H	 0.9120584441	 2.0008559154	 0.1390092981	 0.113296
H	-0.52378288	 1.9146578889	-0.8897787764	 0.114124
H	-0.6941701663	 1.8636889486	 0.8666710839	 0.119818
H	-0.9532302763	-0.4398680492	-0.1163215401	 0.117249
H	 0.6178394903	-0.2959694065	-0.8948210278	 0.092925
H	 1.7156570393	-0.1488769992	 1.3731773979	 0.083845
H	-0.3061207097	 0.3791913304	 3.0595235551	 0.086052
H	-0.9612842697	-3.4082808268	 2.1086566974	 0.097965
H	 0.4774191583	-2.0354385368	 4.2853495008	 0.096802
H	 1.2132656891	-2.6937557044	 0.4463560297	 0.083842
76.7105	168.6449	201.8536	281.0834	354.5392	482.3571	529.3903	581.2866	706.6377	737.5881	761.9375	798.2737	844.0741	848.6209	875.3516	901.2704	938.2632	952.8189	961.0799	993.5911	1025.5431	1045.3372	1073.2875	1105.7125	1115.9461	1140.7157	1161.9449	1163.9554	1198.3135	1227.0411	1253.9265	1276.8574	1294.5814	1304.09	1345.5784	1356.1649	1390.1359	1414.7184	1488.3	1501.2239	1505.4363	3026.7245	3032.0333	3060.4001	3081.0688	3103.7049	3105.2848	3140.3914	3143.9755	3149.7161	3158.4847
CCC1C2OC3C2OC13	CC[C@H]1[C@H]2O[C@@H]3[C@H]2O[C@H]13	
InChI=1S/C7H10O2/c1-2-3-4-6-7(8-4)5(3)9-6/h3-7H,2H2,1H3	InChI=1S/C7H10O2/c1-2-3-4-6-7(8-4)5(3)9-6/h3-7H,2H2,1H3/t4-,5-,6+,7+/m1/s1
