16
gdb 127221	3.04004	1.26092	0.90129	4.996	80.21	-0.2512	-0.0155	0.2358	1249.5854	0.125023	-396.982312	-396.973392	-396.972448	-397.01723	30.803	
C	-0.0243411255	 1.4013649094	 0.089766174	-0.319795
N	-0.012316326	-0.0431826184	-0.0155564806	 0.054003
C	-0.0705350019	-0.7930709507	-1.130018689	-0.115937
C	-0.0284400233	-2.1180816557	-0.7191339573	 0.01067
C	-0.0631422848	-3.2728883618	-1.5325629029	 0.195426
N	-0.0903877292	-4.2322187993	-2.1822840029	-0.352731
C	 0.057375044	-2.0550760211	 0.7029717419	 0.288907
C	 0.1308480667	-3.1903982184	 1.6697170703	-0.500009
N	 0.0659266824	-0.7925309625	 1.1102402546	-0.321267
H	 0.8919804596	 1.7488529505	 0.5731778345	 0.158901
H	-0.0918138054	 1.8281789988	-0.9117705724	 0.146109
H	-0.882690713	 1.7259515418	 0.6830034182	 0.158932
H	-0.1361224065	-0.3607569953	-2.1155110394	 0.159497
H	 1.0096575117	-3.8150391612	 1.4792182915	 0.145753
H	 0.1880338632	-2.8051276804	 2.6891652114	 0.145786
H	-0.7483529221	-3.8375702657	 1.5863576581	 0.145754
34.1169	80.2528	130.4576	138.6513	203.8654	266.6733	296.2379	402.9483	529.1923	534.4497	585.3935	639.7802	643.657	707.7213	792.5558	819.2094	1014.2583	1025.5572	1066.8632	1085.8486	1152.9565	1187.0108	1189.6713	1321.6225	1382.5826	1415.078	1454.3779	1471.67	1474.1362	1480.6269	1484.199	1510.7081	1533.7993	1589.7282	2342.9421	3043.641	3056.3961	3098.148	3126.4585	3142.2999	3153.8676	3268.959
CN1C=C(C#N)C(C)=N1	Cn1cc(C#N)c(C)n1	
InChI=1S/C6H7N3/c1-5-6(3-7)4-9(2)8-5/h4H,1-2H3	InChI=1S/C6H7N3/c1-5-6(3-7)4-9(2)8-5/h4H,1-2H3
