21
gdb 40202	2.92468	1.51989	1.22201	1.7445	81.06	-0.2526	0.0738	0.3264	1092.2712	0.184421	-387.076535	-387.0688	-387.067856	-387.108917	31.073	
C	 0.0110871907	 1.4349112416	 0.0931401523	-0.265039
O	 1.1587091067	 0.5832314553	 0.1692187091	-0.28759
C	-0.140072744	-0.0201244906	 0.0316192691	 0.450805
C	-0.6051527253	-0.8865001834	 1.1935924107	-0.294307
C	-0.2655866306	-2.3162334309	 0.7205448332	-0.227502
C	-0.5266791756	-2.2969343447	-0.7961144117	-0.000042
C	-2.0199767007	-2.2834663208	-1.2422796517	-0.225908
C	-1.8618177558	-0.8232344235	-1.7533949206	-0.230455
C	-0.3873411476	-0.7983291723	-1.2486236473	-0.085206
H	-0.2367321215	 1.9689358054	 1.0106291587	 0.107077
H	-0.0718469649	 2.0283909871	-0.8174292857	 0.107993
H	-0.1163771844	-0.6016167365	 2.1278541834	 0.109706
H	-1.6875451906	-0.772947519	 1.3325300437	 0.103378
H	 0.7951569169	-2.5172099208	 0.9086263989	 0.108603
H	-0.8442798603	-3.0880238627	 1.2379774353	 0.093662
H	 0.0882549611	-3.0214594918	-1.3329153088	 0.066305
H	-2.2722707703	-3.0136634207	-2.01463821	 0.099249
H	-2.7328650972	-2.406166302	-0.4213036172	 0.095305
H	-1.948355489	-0.7217793509	-2.8376078262	 0.10148
H	-2.5229797052	-0.0833471712	-1.2926286304	 0.095762
H	 0.3665445877	-0.5523772378	-1.9977421848	 0.076724
65.1562	144.3207	209.9383	297.5544	349.1887	360.8557	428.5136	550.0352	596.7491	709.3864	736.6093	768.1274	813.7668	833.1122	864.3433	870.7111	929.015	945.0263	957.2545	972.5802	989.7452	1007.675	1039.4818	1062.7665	1124.9943	1134.4338	1146.8511	1176.2782	1186.9763	1203.9938	1234.8171	1246.3648	1258.3429	1267.2082	1283.5122	1294.56	1319.9103	1324.6368	1348.4501	1431.5253	1473.5723	1477.3986	1490.6226	1498.9364	1532.2471	3033.0209	3039.2169	3050.1119	3057.2189	3071.2981	3081.553	3084.9483	3096.2195	3100.9416	3109.217	3117.0085	3153.2235
C1OC11CCC2CCC12	C1O[C@]21CC[C@H]1CC[C@@H]21	
InChI=1S/C8H12O/c1-2-7-6(1)3-4-8(7)5-9-8/h6-7H,1-5H2	InChI=1S/C8H12O/c1-2-7-6(1)3-4-8(7)5-9-8/h6-7H,1-5H2/t6-,7-,8+/m1/s1
