21
gdb 93583	4.32884	0.92145	0.85137	1.8188	87.68	-0.2191	0.0224	0.2415	1447.1692	0.182555	-387.087572	-387.078605	-387.077661	-387.121942	33.631	
C	-0.0243810435	 1.546936	-0.0177767818	-0.385313
C	-0.0451434065	 0.0191276306	 0.0338130472	 0.109981
O	 0.6580948729	-0.5115377692	-1.0982261715	-0.280582
C	 1.6315112979	-1.4567052637	-0.6801035394	-0.17118
C	 1.617776927	-1.4210769849	 0.8320587289	 0.33566
C	 0.6530792457	-0.5864911065	 1.2194072507	-0.251835
C	 2.521788885	-2.2064205896	 1.6892703797	-0.092995
C	 3.0126144264	-3.5862166908	 1.2836303751	-0.272267
C	 3.9778160502	-2.4382743795	 1.3192296937	-0.271258
H	 1.002170753	 1.9182689563	 0.0530990943	 0.116551
H	-0.4590729915	 1.897840379	-0.9582142384	 0.123133
H	-0.6080728649	 1.9673859323	 0.8081659349	 0.108306
H	-1.0965222993	-0.3158698104	-0.0166015333	 0.075471
H	 1.379502675	-2.4582112576	-1.067724483	 0.099119
H	 2.6099899188	-1.185863427	-1.1058110672	 0.103223
H	 0.3792284273	-0.3567627116	 2.2420802858	 0.0925
H	 2.3335358072	-2.0782076835	 2.7508227912	 0.085331
H	 3.0725251559	-4.3419620875	 2.0586842546	 0.117775
H	 2.7106199331	-3.9687602031	 0.3152751805	 0.120439
H	 4.3334471131	-2.0399977948	 0.375920732	 0.120105
H	 4.7066680671	-2.3956554284	 2.120772316	 0.117839
48.7594	86.152	133.705	171.8784	233.5063	259.1261	338.9326	404.7507	496.183	531.9487	573.0282	728.2601	784.201	823.3568	831.8789	843.7628	867.1367	911.0874	917.0775	943.8904	1017.0671	1037.8231	1045.7087	1058.0261	1078.1852	1087.6389	1113.3484	1134.5968	1137.9914	1199.1094	1199.7498	1217.1963	1240.9043	1303.3097	1347.6963	1372.7422	1392.3143	1398.9441	1402.6286	1469.0265	1485.3053	1494.1683	1500.1119	1523.1397	1718.1489	2936.0593	2958.0708	2987.0941	3035.585	3108.9587	3119.301	3137.0626	3141.3296	3152.3376	3205.9148	3215.5848	3231.6061
CC1OCC(=C1)C1CC1	C[C@H]1OCC(=C1)C1CC1	
InChI=1S/C8H12O/c1-6-4-8(5-9-6)7-2-3-7/h4,6-7H,2-3,5H2,1H3	InChI=1S/C8H12O/c1-6-4-8(5-9-6)7-2-3-7/h4,6-7H,2-3,5H2,1H3/t6-/m1/s1
