17
gdb 97642	2.94198	0.68879	0.5788	2.8936	75.48	-0.2511	-0.0329	0.2182	1844.4376	0.132308	-458.922234	-458.911493	-458.910549	-458.960561	35.674	
O	 0.1044926959	 1.2333188065	 0.6071035631	-0.398091
C	 0.0065435149	 0.0106779137	-0.106833859	-0.192777
C	-1.3416672676	-0.5598534824	-0.1019971722	 0.079057
C	-2.4735655897	-0.9745587984	-0.1200028844	 0.021121
C	-3.8292667944	-1.5054760711	-0.0750561525	-0.277744
C	-3.8181043577	-3.0441319136	 0.1202923897	-0.072632
O	-5.1172694725	-3.5673206682	 0.2881593758	-0.403632
C	-4.5942307561	-0.8574452403	 1.0870211557	 0.187227
O	-5.5915327727	-0.2050624004	 0.9531192532	-0.240302
H	-0.5657760557	 1.8293723742	 0.2564856089	 0.290504
H	 0.3469136117	 0.1218822722	-1.1488462176	 0.121888
H	 0.7068391665	-0.6759168893	 0.3814446287	 0.143682
H	-4.377114645	-1.2574494825	-0.9930752907	 0.113448
H	-3.2799170512	-3.505129004	-0.7193780331	 0.112303
H	-3.2696541281	-3.2865736642	 1.0357287408	 0.130698
H	-5.617514184	-3.4161931125	-0.5207298381	 0.292413
H	-4.1346284442	-1.0441426598	 2.0822152116	 0.092836
19.9648	51.3634	80.5282	95.1833	126.4563	181.2795	239.4638	277.2298	314.9332	343.7778	379.6581	450.3207	486.5545	518.5503	585.5787	804.6745	869.5572	971.755	990.5747	1036.4946	1054.5842	1067.0142	1105.0827	1159.5864	1179.6155	1216.5787	1275.17	1315.2367	1361.2447	1380.5527	1401.4821	1417.9151	1420.9164	1491.0175	1505.1109	1844.2279	2352.8154	2897.4493	2977.9094	3011.8844	3031.8542	3064.959	3090.6404	3813.878	3815.8874
OCC#CC(CO)C=O	OCC#C[C@@H](CO)C=O	
InChI=1S/C6H8O3/c7-3-1-2-6(4-8)5-9/h4,6-7,9H,3,5H2	InChI=1S/C6H8O3/c7-3-1-2-6(4-8)5-9/h4,6-7,9H,3,5H2/t6-/m1/s1
