19
gdb 116622	4.38891	0.98716	0.87583	3.5249	80.16	-0.2434	0.0304	0.2737	1382.3103	0.15991	-419.195106	-419.186587	-419.185643	-419.229328	31.313	
C	-0.3984938374	 1.5052854532	-0.107832156	-0.362453
C	 0.2958698229	 0.1612315959	 0.1067158539	-0.131899
N	 1.0103761912	-0.2331709515	-1.1007647319	-0.331044
C	 2.0860377883	-0.8689834047	-1.0048042331	 0.458455
O	 2.673968868	-1.2745702077	 0.1788853367	-0.257241
C	 3.9959121485	-1.7570676259	-0.0687950224	-0.114252
C	 4.0573697095	-1.9317500188	-1.5750400058	-0.037062
C	 2.9975329873	-2.7480013069	-2.2029205225	-0.249453
N	 2.8643958297	-1.2680341597	-2.1330207166	-0.154476
H	 0.3350638509	 2.2935116963	-0.3037196782	 0.116424
H	-1.0733896763	 1.4557230833	-0.967011702	 0.123551
H	-0.9777521707	 1.7876436622	 0.7772971899	 0.102852
H	 0.9569582492	 0.2068920093	 0.9825675447	 0.102504
H	-0.4604411197	-0.6060108883	 0.32481469	 0.103462
H	 4.7291664721	-1.0164558662	 0.2724323393	 0.122091
H	 4.1393820973	-2.6830066817	 0.4967396383	 0.124967
H	 4.9985916185	-1.7494487413	-2.0823080661	 0.113197
H	 3.1285711328	-3.1307405964	-3.2092097715	 0.134608
H	 2.3530596478	-3.3402444012	-1.5583907167	 0.135771
31.5733	111.0567	145.5787	183.7639	242.767	290.817	364.2138	418.7861	476.6048	681.7002	726.2223	754.6794	769.9322	803.8496	842.2664	860.9311	925.075	947.3291	992.0727	1046.1083	1066.0232	1086.56	1110.6529	1116.7606	1122.1238	1131.8702	1156.2046	1178.4577	1222.0484	1286.0804	1301.4821	1377.0184	1385.5349	1395.3136	1409.359	1486.1174	1489.0248	1501.7494	1507.421	1521.8725	1809.0301	3000.1253	3032.2932	3033.629	3038.3755	3081.7063	3108.2957	3117.9014	3118.3143	3171.6494	3214.1847
CCN=C1OCC2CN12	CCN=C1OC[C@H]2CN12	
InChI=1S/C6H10N2O/c1-2-7-6-8-3-5(8)4-9-6/h5H,2-4H2,1H3	InChI=1S/C6H10N2O/c1-2-7-6-8-3-5(8)4-9-6/h5H,2-4H2,1H3/t5-,8?/m1/s1
