15
gdb 28946	2.96013	1.28305	1.03014	2.9977	72.09	-0.2027	0.0248	0.2275	1144.4535	0.112361	-416.793984	-416.785477	-416.784532	-416.828204	30.791	
O	 0.1229362414	 1.350978941	 0.1902091508	-0.439302
C	 0.0918376352	 0.0118070031	-0.0139241467	 0.339407
C	 0.1082540972	-0.8080970067	-1.1101240601	-0.216407
N	 0.065882857	-2.1277059328	-0.6995039659	-0.262659
C	 0.0229304093	-2.0940199647	 0.6055647385	 0.001688
N	 0.0449921506	-0.8051584391	 1.0899395842	-0.038611
C	-0.0293728835	-0.3702659355	 2.477452436	-0.334319
C	-1.394827436	-0.1565746315	 2.9553058534	 0.327448
C	-2.5134505381	 0.0149815219	 3.3559375956	-0.447717
H	 0.1823017477	 1.7896588344	-0.6638849034	 0.313833
H	 0.1539586445	-0.5331542085	-2.1525511126	 0.100933
H	-0.0209593293	-2.9439862119	 1.270129925	 0.128132
H	 0.4693780202	-1.1265786418	 3.0926725697	 0.153101
H	 0.5483631133	 0.554228072	 2.573188792	 0.166096
H	-3.5046559995	 0.16790071	 3.7056859537	 0.208377
27.4633	84.2285	197.3834	231.6677	253.4462	313.4251	320.322	425.7756	502.1357	627.7161	656.3655	673.3623	676.5816	698.1635	768.1149	769.7308	782.2579	920.6993	952.6113	974.8556	1121.7882	1148.0636	1202.0848	1247.5211	1292.9016	1315.2558	1374.4923	1394.9263	1461.4784	1498.7972	1552.0505	1617.4086	2246.0454	3051.3194	3092.3525	3245.8264	3250.109	3504.8803	3847.3661
OC1=CN=CN1CC#C	Oc1cncn1CC#C	
InChI=1S/C6H6N2O/c1-2-3-8-5-7-4-6(8)9/h1,4-5,9H,3H2	InChI=1S/C6H6N2O/c1-2-3-8-5-7-4-6(8)9/h1,4-5,9H,3H2
