19
gdb 124651	4.24718	0.9772	0.87622	1.694	78.47	-0.212	0.0307	0.2427	1374.552	0.159658	-419.233538	-419.224554	-419.22361	-419.267554	33.413	
C	-0.095242674	 1.5231879224	 0.0841667868	-0.395499
C	 0.0061317804	 0.0074049218	-0.018005499	 0.15834
C	 0.7500290507	-0.6214480963	 1.1578740605	-0.395681
O	-1.3549338146	-0.4732924667	-0.0691453092	-0.293232
C	-1.5707361741	-1.6834383672	-0.6101660507	 0.453441
N	-0.6077467259	-2.4559956651	-1.1011361496	-0.324917
N	-1.2726749432	-3.5516157797	-1.5505924402	-0.20768
C	-2.6074179096	-3.47930489	-1.3491551906	-0.002344
C	-2.8532414956	-2.272218463	-0.7340641389	-0.330959
H	 0.9034002485	 1.9693237326	 0.107650892	 0.114129
H	-0.6397092752	 1.933043292	-0.7706175044	 0.121581
H	-0.623422091	 1.8116295017	 0.9986262232	 0.122279
H	 0.4991398979	-0.2761783782	-0.9544724577	 0.102051
H	 0.7891584713	-1.7070762082	 1.0508043289	 0.138371
H	 1.7764187754	-0.2425927109	 1.1999069931	 0.11073
H	 0.2519914733	-0.3734838495	 2.1008699022	 0.115785
H	-0.7465883845	-4.2976237836	-1.9689479904	 0.272708
H	-3.2703516879	-4.2741211571	-1.6534804172	 0.133803
H	-3.7987282919	-1.8629620648	-0.4220144587	 0.107094
64.936	79.2357	161.7279	213.7973	249.575	308.7957	319.5081	381.5453	400.0429	451.0563	494.7961	647.4584	719.9738	743.0236	763.802	828.6642	846.0651	932.0813	936.1347	943.9753	952.0785	1019.5972	1066.9517	1111.7756	1147.2279	1157.9235	1199.6561	1226.4329	1310.8875	1363.7897	1380.1051	1399.93	1405.0048	1417.6409	1480.546	1486.8722	1492.3651	1495.4225	1511.7449	1525.4571	1589.9495	3038.9966	3043.0398	3050.5184	3106.5259	3117.1612	3121.8689	3137.8784	3257.4632	3286.1192	3694.694
CC(C)OC1=NNC=C1	CC(C)Oc1n[nH]cc1	
InChI=1S/C6H10N2O/c1-5(2)9-6-3-4-7-8-6/h3-5H,1-2H3,(H,7,8)	InChI=1S/C6H10N2O/c1-5(2)9-6-3-4-7-8-6/h3-5H,1-2H3,(H,7,8)
