16
gdb 17951	3.24822	2.26699	2.09753	0.8729	62.81	-0.2215	0.0701	0.2916	742.4748	0.131979	-383.69911	-383.692827	-383.691883	-383.729121	25.605	
O	-0.0669816173	 1.4271450965	-0.0550953343	-0.45327
C	 0.0179076506	 0.0551344379	-0.0216945908	 0.306331
C	-1.152092106	-0.8827069638	-0.1182221328	-0.119605
C	-1.0020811421	-1.8470076978	-1.2963647648	-0.227299
C	 0.4492685244	-1.5939949167	-1.8012348669	-0.211514
C	 1.1021356649	-0.8855478752	-0.6208663974	 0.022292
O	 1.0052840974	-1.7619818614	 0.5534703722	-0.306449
C	-0.1233163059	-1.0179970585	 1.0137071169	-0.000195
H	 0.6508541973	 1.7904985092	 0.4761191865	 0.289956
H	-2.1242964683	-0.5078783069	 0.1832825349	 0.093008
H	-1.133683856	-2.8852595064	-0.9790298035	 0.112095
H	-1.7447718451	-1.6436227068	-2.0725738208	 0.102297
H	 0.9740957195	-2.5156872196	-2.0669242533	 0.107807
H	 0.4584707874	-0.9321298796	-2.6756019756	 0.103238
H	 2.1197339405	-0.5135792962	-0.760386792	 0.075648
H	-0.3604260413	-1.0388632847	 2.0708463319	 0.10566
205.2073	230.0148	332.4234	358.8458	409.8082	505.3191	602.7981	672.7737	711.0855	756.3263	829.132	859.3331	884.2039	907.6805	933.8951	967.4135	986.4542	1010.3393	1036.2877	1062.3572	1080.4916	1151.6504	1159.5785	1195.9915	1246.1468	1260.6372	1282.4464	1289.9153	1319.6949	1332.8245	1347.3556	1471.3504	1490.806	1499.9876	3037.903	3059.1852	3089.1111	3094.0403	3106.216	3178.2789	3188.6648	3788.0415
OC12C3CCC1OC23	O[C@@]12[C@H]3CC[C@@H]1O[C@@H]23	
InChI=1S/C6H8O2/c7-6-3-1-2-4(6)8-5(3)6/h3-5,7H,1-2H2	InChI=1S/C6H8O2/c7-6-3-1-2-4(6)8-5(3)6/h3-5,7H,1-2H2/t3-,4-,5+,6-/m0/s1
