17
gdb 25700	3.39564	0.96316	0.75739	1.1073	87.37	-0.2108	0.0029	0.2137	1484.9819	0.134926	-384.707983	-384.698647	-384.697703	-384.744452	32.556	
C	-0.0492033623	 1.4595413108	 0.0595157566	-0.508477
C	-0.012843791	 0.0053982211	 0.0559216659	 0.175673
C	 0.0270734186	-1.200831039	 0.0537843587	-0.096201
C	 0.0354460683	-2.6147618068	 0.0480364678	 0.065566
C	 1.120148535	-3.4425236503	 0.136032172	-0.134344
O	 0.7397933022	-4.7392614064	 0.0979355606	-0.143643
C	-0.619612915	-4.7493369243	-0.0171248729	-0.09151
C	-1.1192253632	-3.4889170908	-0.0536452527	 0.127603
C	-2.5460962306	-3.0612743584	-0.1724206226	-0.513668
H	 0.5260581537	 1.8763185472	-0.7751793596	 0.149317
H	-1.0765227888	 1.8296454113	-0.0300242302	 0.149241
H	 0.3695607958	 1.868096493	 0.9863783132	 0.149305
H	 2.1768293459	-3.2542620505	 0.2262953696	 0.140535
H	-1.0781429158	-5.7236644847	-0.0603638468	 0.136084
H	-2.8515186296	-2.454880627	 0.687353437	 0.135872
H	-2.7032118301	-2.4469662659	-1.0658126348	 0.13587
H	-3.2138278431	-3.9248245692	-0.232807182	 0.122777
10.3206	80.7511	100.1091	128.0599	244.3709	247.412	298.3556	348.8302	463.3298	478.6481	538.216	613.9807	672.6151	674.7504	750.3799	776.1941	889.0309	974.0256	1014.3607	1050.9038	1052.8876	1067.6109	1085.5271	1180.6948	1218.8976	1251.2602	1333.6285	1364.4549	1413.6536	1420.6476	1475.5942	1477.9351	1478.9839	1492.4438	1580.1211	1642.4996	2358.4866	3022.822	3032.6726	3080.456	3084.9934	3086.1413	3114.4107	3272.6656	3281.5072
CC#CC1=COC=C1C	CC#Cc1cocc1C	
InChI=1S/C8H8O/c1-3-4-8-6-9-5-7(8)2/h5-6H,1-2H3	InChI=1S/C8H8O/c1-3-4-8-6-9-5-7(8)2/h5-6H,1-2H3
