17
gdb 18770	3.93906	2.48873	2.15229	1.4556	70.5	-0.2155	0.0859	0.3014	719.0739	0.143696	-326.635755	-326.629708	-326.628764	-326.665438	25.121	
C	 0.0067537317	 1.4234103492	-0.0034742706	-0.513324
C	-0.0002333822	-0.0698123391	-0.0063957955	 0.382182
C	-0.9784269611	-0.9752984647	 0.7524759599	-0.12746
C	 0.5268988779	-1.0829536685	 0.9705478275	-0.17226
C	 0.5314250522	-2.041704714	-0.2381418644	-0.003622
C	-1.0322498028	-2.1540986921	-0.2487172874	-0.074296
C	-0.9837912665	-1.4960885591	-1.6395330905	-0.189305
N	 0.3328880749	-0.8776419032	-1.2300485249	-0.1909
H	 0.9851269401	 1.8123894288	-0.303100818	 0.129492
H	-0.7417761124	 1.8213159979	-0.6988393547	 0.121687
H	-0.2260089714	 1.8088604555	 0.9946614876	 0.119143
H	-1.7427912622	-0.6022381583	 1.4209383829	 0.085774
H	 1.1436153462	-0.9836525073	 1.8535540686	 0.090122
H	 1.2416693662	-2.8271744982	-0.4894193929	 0.075832
H	-1.6024470697	-3.0485234222	 0.0022935086	 0.065835
H	-0.8110198931	-2.2088151406	-2.4519651699	 0.103327
H	-1.7666267778	-0.7855032442	-1.9239684165	 0.097771
196.723	227.3536	286.5907	429.9339	563.7815	606.9813	746.3846	757.4074	797.9179	803.5019	839.1648	862.5469	867.328	885.2311	908.2399	928.9418	941.5031	997.3128	1009.7081	1041.9113	1071.2985	1104.4417	1122.5587	1149.2388	1170.7305	1181.9529	1201.9047	1220.0999	1256.9233	1277.4565	1290.1117	1401.1346	1441.5666	1477.0026	1494.8629	1499.3059	3026.2665	3042.031	3089.2122	3100.5483	3104.2874	3113.1156	3131.9426	3198.5688	3210.0949
CC12C3C1C1C3CN21	C[C@]12[C@@H]3[C@H]1[C@H]1[C@@H]3CN21	
InChI=1S/C7H9N/c1-7-4-3-2-8(7)6(3)5(4)7/h3-6H,2H2,1H3	InChI=1S/C7H9N/c1-7-4-3-2-8(7)6(3)5(4)7/h3-6H,2H2,1H3/t3-,4+,5+,6-,7+/m1/s1
