16
gdb 124340	2.71033	1.7047	1.05432	1.6661	74.54	-0.2082	-0.0295	0.1787	1083.8972	0.125262	-434.123979	-434.115752	-434.114808	-434.156773	30.906	
C	-0.095955476	 1.4783089052	 0.0018787743	-0.478189
C	 0.0475252453	-0.0213789927	-0.0082986929	 0.439834
O	 1.1189094562	-0.5981936674	 0.009224296	-0.353884
N	-1.1490644936	-0.7400775062	-0.0361696689	-0.100551
N	-2.3708887454	-0.0888666495	 0.0088451945	-0.284569
C	-3.2491104064	-1.0677860463	 0.0394635481	 0.026857
C	-2.6608936173	-2.3565449729	 0.0144327771	-0.33795
C	-1.303400607	-2.122304449	-0.038146103	 0.4603
N	-0.2377148213	-2.9687386149	-0.1461673236	-0.599991
H	 0.9027010753	 1.9138598429	 0.0086449919	 0.13947
H	-0.6586309178	 1.8140747398	-0.8723941186	 0.162533
H	-0.6635978919	 1.8007141506	 0.8779348853	 0.162799
H	-4.3034067278	-0.829414558	 0.0773693285	 0.119505
H	-3.1525030877	-3.315366996	 0.0201537481	 0.101505
H	-0.3868140523	-3.9120907617	 0.1719386024	 0.258797
H	 0.6629219378	-2.552090824	 0.0474887306	 0.283534
94.8652	130.946	145.3371	244.8931	300.1526	351.6585	394.0303	446.7628	521.2371	550.1608	592.4348	650.0271	663.6093	704.5603	730.8266	757.7615	914.4358	919.0976	966.3663	1058.7221	1061.8691	1075.909	1116.5512	1186.811	1257.7539	1333.983	1379.0366	1401.5859	1436.4603	1457.1695	1465.6019	1530.3297	1595.1302	1652.9555	1782.7235	3066.2991	3134.6449	3171.1456	3231.5628	3269.0023	3548.6492	3690.6191
CC(=O)N1N=CC=C1N	CC(=O)n1nccc1N	
InChI=1S/C5H7N3O/c1-4(9)8-5(6)2-3-7-8/h2-3H,6H2,1H3	InChI=1S/C5H7N3O/c1-4(9)8-5(6)2-3-7-8/h2-3H,6H2,1H3
