20
gdb 53389	2.85777	1.00996	0.8228	1.8065	89.02	-0.2331	0.0451	0.2781	1468.2722	0.170326	-365.953607	-365.944075	-365.943131	-365.98977	34.443	
C	 0.1661697124	 1.4447085027	-0.5112193905	-0.499554
C	 0.0966907467	 0.013826707	-0.2499817147	 0.087342
C	 0.0522435352	-1.1703710086	-0.0275077223	 0.056292
C	-0.0298751019	-2.5915219943	 0.2381390543	-0.252917
C	-0.0292584408	-3.1159926358	 1.7166118671	-0.227194
C	-1.1168185163	-4.1576030815	 1.3266819582	-0.298743
C	-1.3826010826	-3.3272210289	 0.0700525357	 0.368673
C	-2.64537758	-2.7045554326	-0.3707818159	-0.301626
N	-2.0089697066	-3.7886002757	-1.1561514311	-0.375019
H	 1.0706159659	 1.8837314275	-0.0753306144	 0.149127
H	 0.184505148	 1.6538691316	-1.5866892443	 0.147149
H	-0.6948636506	 1.9723538399	-0.0860940538	 0.14719
H	 0.7394496771	-3.1279574608	-0.3328095731	 0.098528
H	 0.9221887694	-3.4935946686	 2.0940055786	 0.105
H	-0.4114681384	-2.3550781711	 2.3994874777	 0.114498
H	-0.6915204575	-5.1357111699	 1.082327051	 0.110073
H	-1.9493674171	-4.2972187785	 2.0191938697	 0.105624
H	-3.5840838797	-2.9793260246	 0.1035594788	 0.114147
H	-2.5986610981	-1.6873381729	-0.7505806921	 0.120595
H	-1.5306701652	-3.3939943248	-1.963776349	 0.230813
17.7971	72.901	85.9958	146.0985	241.3972	261.2193	319.453	343.7502	379.6258	465.7688	513.1609	561.8455	686.0243	762.065	834.7414	882.9226	900.5373	922.0919	936.1395	964.7907	986.8982	1027.767	1051.846	1053.9107	1078.6011	1099.0227	1124.5423	1186.1757	1194.695	1234.1073	1245.9347	1252.5228	1267.2532	1297.4039	1355.5902	1411.2458	1415.1556	1478.228	1479.1663	1480.0839	1496.2259	1514.0733	2361.7851	3014.6958	3024.8823	3058.0331	3077.7641	3084.8308	3085.309	3103.4856	3111.6695	3137.5086	3192.14	3483.7369
CC#CC1CCC11CN1	CC#C[C@H]1CC[C@]21CN2	
InChI=1S/C8H11N/c1-2-3-7-4-5-8(7)6-9-8/h7,9H,4-6H2,1H3	InChI=1S/C8H11N/c1-2-3-7-4-5-8(7)6-9-8/h7,9H,4-6H2,1H3/t7-,8+/m0/s1
