21
gdb 40348	3.72449	1.27707	1.18048	0.1399	86.33	-0.2216	0.0179	0.2395	1138.6283	0.184428	-349.907023	-349.8995	-349.898556	-349.939028	31.299	
C	-0.2394971707	 1.3343855815	-0.3363690513	-0.277014
C	 1.1726811257	 1.1174810421	 0.1484648906	-0.268389
C	 0.2149645722	-0.0474251409	 0.060870106	-0.12373
C	-0.2956759616	-0.7223917351	 1.2966474538	 0.334195
C	-0.6918636001	 0.0304828488	 2.6227077786	-0.254957
C	-1.3969150782	-1.336920768	 2.9179942977	-0.079631
C	-1.7314355442	-1.3655481576	 1.3893830628	-0.246538
C	-0.1798664645	-2.2729105539	 2.9514293161	-0.09551
C	 0.5377168759	-1.8745132295	 1.899346876	-0.120551
H	-0.9243322551	 1.8559418986	 0.3234118817	 0.109388
H	-0.3975204916	 1.5380508564	-1.3896630082	 0.108395
H	 1.9822549596	 1.176537701	-0.570548787	 0.108681
H	 1.4275009727	 1.4868107687	 1.1360627667	 0.113067
H	 0.3906323672	-0.7344811524	-0.7645119069	 0.079369
H	 0.1177440045	 0.3320687195	 3.2917209506	 0.091311
H	-1.3970712606	 0.8535204337	 2.4648169558	 0.091254
H	-2.1624152689	-1.4403983804	 3.6859513456	 0.058861
H	-2.5284275139	-0.6718447901	 1.1014656765	 0.089716
H	-1.8752187855	-2.3433707335	 0.9233341846	 0.088769
H	 0.0124519518	-3.0539233456	 3.6734079399	 0.097222
H	 1.4832461853	-2.2316305533	 1.5154956004	 0.096094
69.2856	171.2879	189.1949	350.5408	409.4327	467.6551	534.5645	540.1985	583.7967	700.4614	728.2456	786.4532	823.4905	839.9039	844.089	877.4805	894.4463	908.0507	917.1057	935.8312	949.4504	997.0855	1012.0855	1048.4756	1058.1283	1068.3846	1079.0339	1085.3709	1123.3904	1138.4587	1162.4264	1177.4212	1200.4704	1213.4795	1225.5512	1228.7715	1263.4065	1284.2659	1335.0422	1422.1561	1469.3311	1475.9927	1506.0429	1514.7866	1628.68	3036.8674	3047.556	3109.6783	3114.9753	3121.7099	3123.3967	3132.209	3137.1322	3209.7083	3214.7889	3224.7412	3242.7637
C1CC1C12CC(C1)C=C2	C1CC1[C@@]12C[C@@H](C1)C=C2	
InChI=1S/C9H12/c1-2-8(1)9-4-3-7(5-9)6-9/h3-4,7-8H,1-2,5-6H2	InChI=1S/C9H12/c1-2-8(1)9-4-3-7(5-9)6-9/h3-4,7-8H,1-2,5-6H2/t7-,9-
