18
gdb 67200	2.94373	1.51082	1.24486	1.8777	81.96	-0.2286	0.0382	0.2668	1060.269	0.14695	-364.703236	-364.695241	-364.694297	-364.735462	31.505	
C	 0.0068865481	 1.5697536456	-0.1532848813	-0.52815
C	-0.0085763528	 0.0846077457	-0.0835346238	 0.387455
C	-0.0105499942	-1.0481520132	-1.0713382243	-0.153113
C	 1.2401862712	-1.5963933013	-0.4136019806	-0.17987
N	 0.9111966558	-0.7869616113	 0.8264424805	-0.204626
C	-0.359751141	-1.4945669924	 1.3045816059	-0.182203
C	-0.861318682	-0.9430162774	 2.5508903203	 0.340082
C	-1.3039410518	-0.4982400604	 3.5761253163	-0.438273
C	-1.0642571235	-0.970363462	 0.0567008078	-0.122849
H	 0.9860534727	 1.943053403	-0.4724277335	 0.128711
H	-0.7413388425	 1.9227990874	-0.870820899	 0.125072
H	-0.2228204327	 2.0080071087	 0.8232785858	 0.14026
H	-0.3080092487	-1.0317044545	-2.1133124575	 0.091476
H	 1.3435787981	-2.6738693716	-0.2404729223	 0.098723
H	 2.1601028042	-1.2090866147	-0.8591085057	 0.109847
H	-0.228123457	-2.5793122657	 1.4030796853	 0.095921
H	-1.6831336303	-0.1051544618	 4.4867257224	 0.194122
H	-2.1247686637	-0.8979514741	-0.1492915364	 0.097414
100.7532	155.0625	207.3095	230.989	277.307	392.684	460.7104	493.1156	501.2978	610.6114	622.511	648.2116	758.6731	793.2931	838.2106	856.0618	865.8376	896.0702	929.9281	982.3496	989.6839	1024.9409	1034.2135	1051.7492	1085.6354	1135.7394	1149.2452	1165.7887	1215.9303	1233.5722	1269.85	1297.5913	1357.0748	1404.8627	1470.4358	1475.8919	1497.3549	1513.6818	2238.1493	3024.4262	3029.8402	3036.6402	3095.7697	3097.9455	3104.3006	3181.4573	3196.9563	3504.0498
CC12C3CN1C(C#C)C23	C[C@@]12[C@H]3CN1[C@@H](C#C)[C@@H]23	
InChI=1S/C8H9N/c1-3-6-7-5-4-9(6)8(5,7)2/h1,5-7H,4H2,2H3	InChI=1S/C8H9N/c1-3-6-7-5-4-9(6)8(5,7)2/h1,5-7H,4H2,2H3/t5-,6-,7-,8-/m0/s1
