20
gdb 70025	3.26915	1.48778	1.32445	2.6314	77.86	-0.2152	0.0735	0.2888	1047.3553	0.172983	-403.110984	-403.103276	-403.102332	-403.142894	30.766	
C	-0.1321330295	 1.4972906531	 0.1481539053	-0.513131
C	 0.0925434978	 0.024498624	 0.0062040266	 0.343476
N	-0.810362738	-0.974526154	 0.6210711946	-0.374251
C	 0.6405926327	-0.9932115791	 0.9553421264	-0.144726
C	 1.3725398255	-1.7162861796	-0.1954352068	 0.130651
O	 0.998326024	-3.0132860454	-0.5746353721	-0.268821
C	-0.1278440543	-2.9454236191	-1.4594114435	-0.06295
C	-0.0984580006	-1.5526433876	-2.1401978912	-0.248799
C	 0.7523940271	-0.6909247701	-1.1967709569	-0.10468
H	 0.7654506416	 2.0616574118	-0.1271637662	 0.125312
H	-0.949695724	 1.8386979442	-0.4983679688	 0.12846
H	-0.390885956	 1.7598446531	 1.1801611417	 0.117239
H	-1.2805469543	-0.5162793214	 1.4017517331	 0.223741
H	 0.9629023877	-0.8870774005	 1.9851049322	 0.085181
H	 2.4592499308	-1.6797220165	-0.0782288011	 0.077572
H	-0.0245800869	-3.7683545443	-2.1748283541	 0.090586
H	-1.0546907384	-3.0749499579	-0.8944095977	 0.117645
H	 0.3785079411	-1.6128552517	-3.1227694286	 0.099418
H	-1.1093515628	-1.1610211775	-2.2771325095	 0.106644
H	 1.4801140765	-0.0617656617	-1.7117758132	 0.071433
119.0258	197.0837	209.1081	235.3299	251.7526	342.8088	472.7443	547.4408	608.4786	659.2755	697.4543	763.6052	813.8972	842.9343	878.2206	901.4154	914.3615	945.4462	957.4503	972.8586	1025.4515	1037.9625	1056.9598	1092.1275	1114.9307	1118.0202	1133.6547	1185.3821	1228.1201	1232.4769	1247.434	1278.1104	1291.4011	1319.0458	1341.6979	1365.9648	1402.1865	1409.5577	1449.169	1480.2519	1481.8816	1498.2012	1513.3841	3019.9491	3040.3409	3056.7794	3069.9723	3080.9627	3086.6784	3092.7206	3097.8254	3112.8462	3175.3039	3463.3601
CC12NC1C1OCCC21	C[C@]12N[C@H]1[C@H]1OCC[C@@H]21	
InChI=1S/C7H11NO/c1-7-4-2-3-9-5(4)6(7)8-7/h4-6,8H,2-3H2,1H3	InChI=1S/C7H11NO/c1-7-4-2-3-9-5(4)6(7)8-7/h4-6,8H,2-3H2,1H3/t4-,5+,6+,7-/m1/s1
