20
gdb 93959	3.57607	1.16549	1.0724	2.2435	74.28	-0.2411	0.077	0.3181	1208.9848	0.171809	-440.259992	-440.251328	-440.250384	-440.294328	32.053	
C	 0.4691544297	 1.3925591237	-0.254091864	-0.405016
C	-0.1241351578	 0.0866930067	 0.2626488827	 0.214948
O	-0.1826659561	-0.9227609047	-0.7204501685	-0.247487
C	 1.0607137108	-1.6081376723	-0.6565576138	-0.136099
C	 1.4547985873	-1.5176316606	 0.8385704864	 0.065355
O	 0.6485516254	-0.4467823117	 1.3327540388	-0.283162
C	 1.1851362468	-2.7945074626	 1.6114829801	-0.001404
C	 0.6625024149	-2.7563851469	 2.9956887448	-0.240542
N	-0.1916826563	-3.2219141257	 1.8840813646	-0.318971
H	 1.4822988539	 1.2405115292	-0.6372280214	 0.120045
H	-0.1548443777	 1.7929981242	-1.0580309227	 0.127102
H	 0.5136217975	 2.1252140534	 0.5563248833	 0.12842
H	-1.1459639654	 0.2454435246	 0.6276032319	 0.092881
H	 0.9001804931	-2.6337304745	-0.9954244735	 0.130185
H	 1.8132790711	-1.1335568876	-1.300920768	 0.099097
H	 2.5152616977	-1.2538081202	 0.9466012787	 0.08679
H	 1.8519101381	-3.6082558074	 1.3277261128	 0.08976
H	 0.950745688	-3.5263730799	 3.7054190935	 0.114215
H	 0.4568782944	-1.7797934637	 3.4214493253	 0.126227
H	-0.8214418854	-2.466603564	 1.619996099	 0.237655
39.1895	69.7721	155.1931	207.2321	234.8811	248.1035	369.8328	430.7483	476.6832	581.4254	729.5795	758.8097	781.4035	843.2454	855.0736	886.1089	909.7536	953.5426	989.4159	1011.2857	1026.4296	1042.9442	1083.2289	1101.7081	1120.5275	1139.4175	1153.4038	1182.8791	1193.379	1236.8606	1258.4959	1299.6881	1302.0135	1340.3894	1374.8733	1392.676	1397.6941	1415.815	1417.2568	1484.4823	1489.2957	1502.6586	1521.0538	3002.798	3019.874	3040.4493	3046.9579	3107.613	3112.3066	3120.4473	3126.1872	3126.4678	3211.8508	3492.0556
CC1OCC(O1)C1CN1	C[C@H]1OC[C@@H](O1)[C@H]1CN1	
InChI=1S/C6H11NO2/c1-4-8-3-6(9-4)5-2-7-5/h4-7H,2-3H2,1H3	InChI=1S/C6H11NO2/c1-4-8-3-6(9-4)5-2-7-5/h4-7H,2-3H2,1H3/t4-,5+,6+/m0/s1
