21
gdb 90443	2.83139	1.34911	1.15866	1.4997	85.04	-0.2312	0.0164	0.2476	1169.0632	0.183205	-387.076851	-387.06839	-387.067446	-387.109646	33.574	
C	 0.0776163671	 1.5763610246	 0.1384871779	-0.402107
C	 0.0296775913	 0.0595711011	 0.0275636798	-0.067025
C	 1.0138467994	-0.6873739973	-0.9591941214	-0.272536
C	 1.2384350181	-1.783024655	 0.1359612991	-0.056654
C	 2.6010356661	-2.1587292737	 0.781922522	 0.092027
O	 3.677864229	-1.3515890878	 0.3355746719	-0.427293
C	 2.3092243178	-1.9202411415	 2.3019630659	-0.269262
C	 1.2933864114	-0.7771966806	 2.2829825961	-0.271091
C	 0.6652233075	-0.7905396879	 1.108992965	 0.30431
H	 1.0971044076	 1.9199773466	 0.3439060266	 0.109558
H	-0.2593047672	 2.0497371228	-0.7899768333	 0.117449
H	-0.566305753	 1.9354688694	 0.9484905768	 0.119651
H	-0.9963599214	-0.2702946302	-0.1794430697	 0.084555
H	 0.5993265798	-1.0117510649	-1.9163280954	 0.099428
H	 1.9229035264	-0.1074907139	-1.1386053474	 0.106138
H	 0.6185626442	-2.6698959493	-0.0388390711	 0.073645
H	 2.9086688086	-3.1864280111	 0.5703920989	 0.079767
H	 3.4914553073	-0.4477090139	 0.6160450503	 0.277294
H	 1.9065213755	-2.8265301584	 2.7754658983	 0.105907
H	 3.2354134194	-1.670476221	 2.830838247	 0.105341
H	 1.1882650652	-0.0561474478	 3.0853515126	 0.090896
85.6019	146.6997	211.0802	235.2055	257.9422	342.6466	379.86	395.0929	467.0998	517.9888	628.6639	654.0878	731.8954	802.2518	813.0514	843.4944	862.7938	881.3862	919.2588	932.5533	975.6427	991.8356	1031.0853	1065.2485	1089.8387	1102.9523	1126.4794	1153.2584	1169.1943	1194.4626	1218.659	1235.2993	1255.1729	1277.6193	1287.2758	1315.0709	1341.0462	1364.8482	1407.7524	1431.7069	1477.6784	1482.3781	1492.0628	1496.1061	1717.1727	3010.9763	3022.1823	3028.3467	3036.4085	3061.8566	3070.4528	3080.1376	3097.1156	3099.1499	3121.6334	3196.0058	3784.9602
CC1CC2C(O)CC=C12	C[C@H]1C[C@H]2[C@@H](O)C[CH][C]12	
InChI=1S/C8H12O/c1-5-4-7-6(5)2-3-8(7)9/h2,5,7-9H,3-4H2,1H3	InChI=1S/C8H12O/c1-5-4-7-6(5)2-3-8(7)9/h2,5,7-9H,3-4H2,1H3/t5-,7+,8-/m0/s1
