17
gdb 14707	10.90261	0.68933	0.65838	4.3592	69.6	-0.2623	-0.0238	0.2386	1660.5526	0.139863	-401.022647	-401.01341	-401.012466	-401.057494	30.978	
C	 0.2972755675	 1.3454104626	 0.0772459817	-0.39036
C	-0.1428477676	-0.0548037627	-0.3607160191	-0.187553
C	 0.6627995623	-0.5437587606	-1.5694168194	-0.112823
N	 0.3730590892	-1.8576804874	-2.1249596254	-0.241759
C	-0.5086895626	-2.5942938623	-1.6240587821	 0.14086
O	-0.815008115	-3.8410074166	-2.1160637839	-0.199308
C	 0.0907478933	-4.4843813648	-2.9235828521	 0.180057
O	-0.1954372077	-5.504257385	-3.4674096714	-0.254247
H	 1.3558827527	 1.3585231923	 0.3584207459	 0.121067
H	 0.1592099227	 2.0744815985	-0.7284622479	 0.121787
H	-0.2802636465	 1.6895808708	 0.939830882	 0.120109
H	-0.0214262708	-0.7550786108	 0.4755776148	 0.104891
H	-1.2121275976	-0.0418038505	-0.6073269956	 0.106959
H	 0.5555228701	 0.1737611255	-2.3939734639	 0.121393
H	 1.732852497	-0.5360573344	-1.3213562391	 0.119647
H	-1.1641167798	-2.3822193631	-0.7783549925	 0.121013
H	 1.0549291227	-3.9628305113	-2.9722150721	 0.128266
48.5478	90.3329	109.2234	137.118	194.0975	216.0151	237.5472	305.2914	336.4947	471.6745	558.6922	749.0527	774.9524	882.3068	894.9942	983.1215	1007.6796	1042.0416	1046.9276	1097.4141	1116.3916	1163.7063	1195.6319	1284.5672	1323.9632	1329.5704	1388.9971	1395.5604	1411.5822	1418.4383	1477.2067	1493.7842	1501.1072	1510.216	1756.5567	1871.9197	3012.6371	3021.9325	3034.0515	3034.5226	3060.0497	3074.1613	3100.9083	3109.8034	3121.875
CCCN=COC=O	CCCN=COC=O	
InChI=1S/C5H9NO2/c1-2-3-6-4-8-5-7/h4-5H,2-3H2,1H3	InChI=1S/C5H9NO2/c1-2-3-6-4-8-5-7/h4-5H,2-3H2,1H3
