16
gdb 27771	2.06332	1.7446	0.95086	2.5288	79.68	-0.1993	-0.0285	0.1708	1185.9748	0.124142	-437.93669	-437.928499	-437.927555	-437.969353	31.198	
C	-0.0197591015	 1.5213644084	 0.0233214401	-0.484753
C	 0.0008482034	 0.0187508994	-0.0084014428	 0.335543
C	-0.0194361508	-0.6737784318	-1.1760623449	-0.269347
C	-0.0000574691	-2.1131431798	-1.2139903279	 0.379421
N	-0.016862846	-2.8313880583	-2.2596907058	-0.537322
O	 0.0416891317	-2.7462736752	 0.058116566	-0.283556
C	 0.0610980017	-2.0391689509	 1.1986701286	 0.49056
O	 0.1001390028	-2.8230132571	 2.2826933666	-0.401281
C	 0.0431284985	-0.6912456716	 1.2415383271	-0.387655
H	 0.8675943393	 1.9094544077	 0.5368901868	 0.138068
H	-0.0505005897	 1.945322015	-0.9823858522	 0.132247
H	-0.8916076137	 1.8843510911	 0.5800164925	 0.138112
H	-0.0512033548	-0.1809701663	-2.1387623332	 0.112721
H	 0.0031350822	-3.823535448	-2.0280830119	 0.216272
H	 0.1055424215	-3.7421056417	 1.9852335365	 0.310894
H	 0.0605995645	-0.1853605709	 2.1960165047	 0.110076
127.2402	146.8913	176.2887	212.9458	290.0746	340.3606	378.3333	477.0677	524.4963	551.695	558.4703	616.5935	665.9892	715.0909	788.0724	810.4112	860.1046	864.9961	981.3311	993.5894	1046.0141	1061.076	1078.6147	1165.0894	1207.4338	1256.5645	1283.6525	1393.8317	1413.7106	1462.437	1478.2685	1488.5082	1617.6075	1700.5448	1759.9223	3030.7111	3082.6813	3129.6084	3222.09	3234.7957	3503.1967	3795.7186
CC1=CC(=N)OC(O)=C1	C[C@@H]1C=C([NH])OC(=C1)O	
InChI=1S/C6H7NO2/c1-4-2-5(7)9-6(8)3-4/h2-3,7-8H,1H3	InChI=1S/C6H8NO2/c1-4-2-5(7)9-6(8)3-4/h2-4,7-8H,1H3/t4-/m1/s1
