13
gdb 129041	3.06198	1.55518	1.03135	6.7137	76.93	-0.2324	-0.0771	0.1553	1051.1048	0.092219	-411.804968	-411.797825	-411.796881	-411.836779	26.77	
N	-0.0684611676	 1.3347317954	 0.0078569502	-0.5438
C	-0.0079232249	 0.0536443686	 0.000956508	 0.237891
C	-1.2101022911	-0.7668121681	 0.0038938553	-0.145386
C	-1.1199863793	-2.1104476476	-0.0035042746	 0.023532
N	 0.1086310102	-2.7278837698	-0.0139443637	-0.232332
N	 1.2693679317	-2.0808881366	-0.0175332691	-0.229658
C	 1.2264236849	-0.7768223323	-0.0105903078	 0.140019
C	 2.4936514651	-0.1063556896	-0.014867578	 0.272425
N	 3.4819138242	 0.496225317	-0.0177430925	-0.327264
H	 0.8652376285	 1.7509764647	 0.0044563153	 0.229931
H	-2.1710705909	-0.2694652485	 0.0121279402	 0.136492
H	-1.9717411556	-2.779320362	-0.0018711836	 0.147931
H	 0.1945953748	-3.7311420912	-0.0196206598	 0.29022
93.5958	152.7198	211.6777	393.7106	415.9875	428.9896	465.7589	552.479	574.9104	592.7244	602.1218	701.9951	761.7493	841.1087	892.6334	892.681	971.0443	1036.6862	1079.0046	1166.4067	1232.9519	1296.3263	1364.0256	1428.6793	1497.0617	1591.3319	1650.0161	1697.6685	2342.7318	3212.1672	3232.8823	3453.3183	3652.4966
N=C1C=CNN=C1C#N	[NH]C1=CCNN=C1C#N	
InChI=1S/C5H4N4/c6-3-5-4(7)1-2-8-9-5/h1-2H,(H2,7,8)	InChI=1S/C5H5N4/c6-3-5-4(7)1-2-8-9-5/h1,7-8H,2H2
