19
gdb 133799	2.74121	0.92007	0.81376	2.6174	65.35	-0.2313	0.0783	0.3097	1463.3392	0.154164	-550.718005	-550.707825	-550.706881	-550.754092	36.104	
C	 0.0350638292	 1.5612502025	-0.0024912831	-0.388285
C	-0.075514637	 0.0394701683	-0.0324848681	-0.108686
N	 0.6993271498	-0.5062426377	-1.1422702476	-0.292695
C	 0.7058964063	-1.9566252534	-1.2580666011	-0.100181
C	-0.5965926889	-2.5937273403	-1.7710881816	-0.415435
C	 1.8797902656	-2.3432566934	-2.1589306427	 0.29171
F	 3.0533276582	-1.9561146784	-1.6559166487	-0.067711
F	 1.9380387094	-3.6750773349	-2.3365139795	-0.086566
F	 1.7545459652	-1.7832232569	-3.3781045397	-0.095827
H	 1.0815021703	 1.8693705238	 0.071977733	 0.132031
H	-0.3835999438	 2.0035854217	-0.9139209578	 0.114094
H	-0.5157677077	 1.9730819378	 0.8481193771	 0.117066
H	 0.3352847537	-0.3785877916	 0.8954665787	 0.106652
H	-1.1421314953	-0.2477596228	-0.0575897071	 0.082219
H	 0.3978044411	-0.0946008236	-2.0200515363	 0.217959
H	 0.9483967973	-2.3658298349	-0.2700811289	 0.107434
H	-1.4312272819	-2.3201436199	-1.1213539098	 0.125071
H	-0.8183746815	-2.2433732803	-2.7842872288	 0.126756
H	-0.52472838	-3.683725266	-1.795366898	 0.134395
56.7557	63.3363	91.7481	146.8211	210.4665	244.7363	256.5071	289.5915	330.8495	340.9808	428.0767	485.7683	565.5105	575.7015	668.311	736.4593	808.2574	820.2099	898.3875	951.3891	1017.5244	1071.5946	1083.9976	1134.3877	1145.9221	1185.1669	1220.765	1227.1045	1274.9914	1294.4374	1339.5574	1372.2697	1401.6333	1404.4699	1420.8447	1482.0708	1490.9285	1497.2033	1498.51	1512.2872	1524.1854	2936.4992	3032.4282	3037.8546	3046.592	3052.2934	3101.739	3121.1398	3123.3865	3131.6102	3517.1249
CCNC(C)C(F)(F)F	CCN[C@@H](C)C(F)(F)F	
InChI=1S/C5H10F3N/c1-3-9-4(2)5(6,7)8/h4,9H,3H2,1-2H3	InChI=1S/C5H10F3N/c1-3-9-4(2)5(6,7)8/h4,9H,3H2,1-2H3/t4-/m0/s1
