13
gdb 10785	5.74998	1.56866	1.23367	7.5515	70.68	-0.1784	-0.0673	0.1111	902.9711	0.096036	-398.608669	-398.601876	-398.600932	-398.639405	26.008	
N	 0.0992153531	 0.8593294263	-0.0387992922	-0.568718
H	 0.1450807691	 0.058544946	 0.5727741295	 0.27167
H	 0.8737609987	 1.4972036818	 0.0771167015	 0.270486
C	-1.1354118757	 1.4610739023	-0.1302312733	 0.428932
O	-1.0984596963	 2.727506746	-0.4725894969	-0.1399
C	-2.2084882756	 3.4732245022	-0.6844595365	-0.113029
H	-1.9628994165	 4.4870619202	-0.9646823509	 0.139983
C	-3.5330482234	 2.9664043329	-0.5436389133	 0.282284
O	-4.5605495806	 3.6327534008	-0.7254075411	-0.450118
C	-3.5231166403	 1.5550867268	-0.1544092245	-0.162814
C	-2.3708603587	 0.833811052	 0.0398974371	-0.195458
H	-4.4919476322	 1.0827283185	-0.0226262988	 0.124445
H	-2.3898330115	-0.2142287858	 0.3183878393	 0.112237
114.2834	255.0315	308.6197	337.5265	388.7138	439.2363	487.808	497.0179	563.9649	614.1411	708.71	764.8313	797.1772	839.1658	854.9914	969.5792	996.1661	1061.1482	1142.7804	1238.3782	1258.7128	1333.6926	1372.2925	1451.0346	1538.288	1596.6244	1645.9897	1700.9072	3179.8177	3196.0614	3248.0099	3572.2587	3682.098
[NH2+]=C1O[CH-]C(=O)C=C1	NC1=C[CH]C(=O)[CH]O1	
InChI=1S/C5H4NO2/c6-5-2-1-4(7)3-8-5/h1-3,6H/q-1/p+1	InChI=1S/C5H5NO2/c6-5-2-1-4(7)3-8-5/h1-3H,6H2
