22
gdb 101038	2.60669	1.01966	0.98888	3.7313	78.56	-0.245	0.0654	0.3104	1375.1788	0.192301	-441.443524	-441.433033	-441.432089	-441.479348	38.114	
C	 0.1846623737	 1.2516915236	-0.2977367286	-0.233396
O	 0.0603633775	-0.1277394454	-0.0382293289	-0.248457
C	-1.2704706038	-0.5900675311	 0.1430094675	 0.044754
C	-2.0774356949	-0.5776493832	-1.1627489061	-0.41608
C	-1.1536436745	-1.9727538171	 0.7666573269	 0.32093
C	-0.3805991508	-3.0242766039	-0.0263788577	-0.122608
O	-0.4554421972	-4.294157915	 0.5837443069	-0.42602
C	-1.1763591333	-2.0756735345	 2.2442032904	-0.276438
N	-2.3370197554	-2.5318783356	 1.4459187259	-0.389846
H	 1.2516454719	 1.4861673642	-0.273582597	 0.131511
H	-0.2114600003	 1.5372626646	-1.2824992616	 0.109981
H	-0.3272303578	 1.8551200582	 0.4687269005	 0.102837
H	-1.7833179816	 0.0638914936	 0.8722625418	 0.054014
H	-1.5470600514	-1.1118519842	-1.955176665	 0.134793
H	-3.0507930445	-1.0558806473	-1.0150174575	 0.122052
H	-2.2603758433	 0.4447131004	-1.5041102906	 0.118574
H	-0.7662977915	-3.0585247835	-1.0581759156	 0.082019
H	 0.6738760422	-2.7390295911	-0.0783864177	 0.124297
H	-1.3813031285	-4.3933429309	 0.8497238052	 0.291261
H	-0.6282307068	-2.8757555908	 2.7298583972	 0.134322
H	-1.2754916412	-1.1595136838	 2.8195402881	 0.110563
H	-3.0923223185	-1.852428897	 1.4895068159	 0.230938
55.9272	74.8064	109.2761	174.5179	181.9176	225.9169	237.9431	283.6511	316.0579	344.5989	359.6785	477.9966	512.8596	537.6165	599.6046	714.0476	832.0595	851.6502	911.19	947.0202	965.437	1007.6961	1046.4753	1055.6926	1093.5705	1102.8392	1121.5966	1142.8766	1156.2524	1181.507	1219.5539	1236.1771	1254.6506	1294.8795	1328.6671	1367.8544	1383.0633	1399.1907	1426.0927	1447.6102	1475.9913	1482.4745	1491.1204	1500.9387	1504.5555	1511.3627	1513.4238	2928.3986	2969.4201	2976.6332	3029.1755	3045.9424	3090.4257	3112.5614	3114.6385	3119.2194	3125.3342	3212.965	3499.2966	3726.6141
COC(C)C1(CO)CN1	CO[C@@H](C)[C@@]1(CO)CN1	
InChI=1S/C6H13NO2/c1-5(9-2)6(4-8)3-7-6/h5,7-8H,3-4H2,1-2H3	InChI=1S/C6H13NO2/c1-5(9-2)6(4-8)3-7-6/h5,7-8H,3-4H2,1-2H3/t5-,6-/m0/s1
