18
gdb 87425	3.82591	1.38251	1.23393	2.6758	75.56	-0.2297	0.0758	0.3055	1040.1714	0.148127	-401.847704	-401.840391	-401.839447	-401.879223	29.613	
O	-0.1934997905	 1.3948428807	 0.0038110426	-0.420323
C	-0.109913689	-0.0017283193	 0.0275948677	-0.006623
C	-0.6017432151	-0.7612622235	 1.2503918809	-0.410706
C	-1.3958273424	-0.7443269955	-0.0279022833	 0.421278
C	-2.730222124	-0.1178512625	-0.35056232	-0.124265
C	-2.8299789001	-0.8792480977	-1.6184526462	-0.034291
C	-1.778095239	-1.879909842	-0.9885524572	-0.203475
C	-2.9967496011	-2.4885332549	-0.2712837191	-0.145002
N	-3.7599361261	-1.2147846991	-0.5061036537	-0.160084
H	 0.4915872286	 1.7435328104	 0.5839000974	 0.288805
H	 0.7439228737	-0.4192935046	-0.5086779667	 0.085331
H	-0.0801950395	-1.66942988	 1.5382371539	 0.109848
H	-0.9746892996	-0.1642858618	 2.0769772556	 0.117303
H	-3.0980284361	 0.8665530592	-0.0999184974	 0.106916
H	-3.1308671304	-0.6156150337	-2.623458169	 0.098291
H	-1.0187681628	-2.4736648699	-1.4948322369	 0.07297
H	-3.485381333	-3.2864459182	-0.8360873083	 0.105165
H	-2.8825356237	-2.7830162675	 0.7783743699	 0.098861
138.1928	155.3727	221.202	298.3065	366.0847	433.55	475.4208	537.6729	619.4107	744.018	775.8863	791.0771	824.1562	827.231	890.7852	921.0533	930.39	955.6023	973.4819	1004.54	1012.7792	1028.4042	1029.0349	1067.8127	1091.4382	1135.7663	1154.5291	1166.9123	1181.5726	1187.2931	1220.9115	1237.7794	1287.1639	1293.6015	1318.9323	1372.4212	1428.1032	1500.5699	1506.4381	3036.3515	3083.5353	3103.7679	3118.5066	3128.4706	3203.3224	3208.3685	3228.7713	3804.1117
OC1CC11C2C3C1CN23	O[C@H]1C[C@]21[C@H]1[C@H]3[C@@H]2CN13	
InChI=1S/C7H9NO/c9-4-1-7(4)3-2-8-5(3)6(7)8/h3-6,9H,1-2H2	InChI=1S/C7H9NO/c9-4-1-7(4)3-2-8-5(3)6(7)8/h3-6,9H,1-2H2/t3-,4-,5+,6+,7-,8?/m0/s1
