25
gdb 59296	2.50642	1.25661	0.96233	0.1383	93.84	-0.2321	0.0278	0.2599	1364.0723	0.229008	-352.377955	-352.368107	-352.367163	-352.412057	38.542	
C	 0.2251261283	 1.6082381293	 0.1089136392	-0.396301
C	-0.0403561888	 0.0959296813	 0.0406806712	 0.01583
C	-1.5494084333	-0.1527122546	-0.1094261785	-0.387837
C	 0.7450212839	-0.5694699995	-1.1106666454	 0.008949
C	 2.2454440395	-0.3372329599	-1.1463248805	-0.077599
C	 2.8983191092	-1.3856159817	-1.6437046237	-0.077196
C	 1.9520426997	-2.5052630356	-2.0043996421	-0.267094
C	 0.6586774482	-2.130861224	-1.2273212261	-0.009868
C	 0.6413089473	-2.8561271912	 0.1263009208	-0.391221
H	 1.270528225	 1.8370704547	 0.3330232117	 0.113171
H	-0.0287148725	 2.0943714146	-0.8411028431	 0.11017
H	-0.3863670508	 2.0724261976	 0.8899565465	 0.107421
H	 0.2914706187	-0.3424497061	 0.9905999322	 0.074737
H	-1.9233325016	 0.3005902469	-1.0357015278	 0.109056
H	-1.7952112126	-1.2177360889	-0.142474248	 0.114751
H	-2.1045725678	 0.2921967199	 0.7229858593	 0.10727
H	 0.3265335477	-0.1451189018	-2.0410787042	 0.070696
H	 2.7066168118	 0.6000703438	-0.858400753	 0.088761
H	 3.9676146395	-1.4352170762	-1.8184229553	 0.087169
H	 1.778812209	-2.5266553851	-3.0905305282	 0.099103
H	 2.3273174817	-3.4988255092	-1.7321761672	 0.094676
H	-0.2324694122	-2.4231477531	-1.7916639977	 0.064647
H	 1.5290132355	-2.606989477	 0.7174127784	 0.11987
H	-0.2402405185	-2.6108425091	 0.7241668299	 0.113925
H	 0.6399542835	-3.939886695	-0.030531278	 0.106912
86.6449	113.935	182.9147	219.2716	231.9074	254.6057	270.8885	327.201	333.3394	399.2609	426.8095	443.3524	497.6323	678.2947	741.7773	766.382	805.6471	850.1417	887.0775	926.9952	934.0885	952.3243	965.9141	968.3476	993.1619	1027.2437	1052.7259	1059.2636	1102.9637	1133.7033	1142.5322	1162.2657	1193.6284	1221.9783	1246.4426	1289.1038	1294.3672	1317.1263	1346.9294	1360.568	1372.2263	1388.1221	1400.2382	1409.3517	1422.6549	1484.5374	1488.0136	1492.6422	1501.5865	1503.8963	1508.8599	1513.415	1681.809	2934.4939	2996.8125	3019.8761	3024.4894	3030.3006	3036.3586	3048.4386	3051.489	3086.4005	3093.5177	3099.4734	3107.1111	3108.9936	3116.1557	3182.5024	3210.4462
CC(C)C1C=CCC1C	CC(C)[C@H]1C=CC[C@H]1C	
InChI=1S/C9H16/c1-7(2)9-6-4-5-8(9)3/h4,6-9H,5H2,1-3H3	InChI=1S/C9H16/c1-7(2)9-6-4-5-8(9)3/h4,6-9H,5H2,1-3H3/t8-,9-/m1/s1
