22
gdb 117692	4.05358	0.74576	0.73035	4.7934	83.19	-0.2823	0.026	0.3083	1656.7435	0.191297	-404.376977	-404.365972	-404.365028	-404.413101	39.891	
C	-0.0831612176	 1.6219332135	 0.1832349937	-0.383966
C	 0.0126461256	 0.1031888648	 0.0119527375	-0.180304
C	-1.3637086294	-0.5630998845	-0.095307936	-0.200184
C	-1.344086119	-2.1075375363	-0.087112457	 0.330484
C	-0.5346735394	-2.6953871901	-1.2442857704	-0.408338
O	-0.726235285	-2.5995423583	 1.098525825	-0.446138
C	-2.8194643679	-2.603740659	-0.1496576663	-0.38184
C	-2.9507081751	-4.0552089751	-0.0541328375	 0.279116
N	-3.0641231135	-5.2030879277	 0.0132978682	-0.314283
H	 0.9102935434	 2.0748188635	 0.2547891741	 0.117166
H	-0.6004015727	 2.0874437341	-0.6632548059	 0.11485
H	-0.6352737863	 1.88660856	 1.0920975827	 0.113115
H	 0.6036672579	-0.1219329633	-0.8829749826	 0.103768
H	 0.553051589	-0.3379547173	 0.8564141401	 0.111695
H	-1.9865801532	-0.2295026936	 0.749027465	 0.081972
H	-1.8768655233	-0.2145753304	-1.0014283277	 0.097354
H	 0.5160242174	-2.4158252952	-1.1497914833	 0.134308
H	-0.5962156469	-3.7862507139	-1.2318720046	 0.149706
H	-0.909638493	-2.3325493689	-2.2058551599	 0.113476
H	-1.1888871296	-2.2346197573	 1.8613764649	 0.280548
H	-3.3912198786	-2.1498761524	 0.6694669027	 0.137256
H	-3.2889046626	-2.2687494828	-1.0814834829	 0.150238
63.1869	87.5067	110.5663	113.3577	194.2258	232.7823	247.4147	306.8419	309.9859	326.0009	341.1065	397.8433	405.1071	421.1706	467.1802	658.4268	750.8612	782.544	855.6151	880.9406	900.4098	948.3057	964.8806	976.5331	1045.2928	1052.8876	1100.5419	1139.7438	1173.4846	1185.0321	1241.3161	1267.9913	1314.617	1326.0726	1336.3173	1391.1953	1398.0766	1414.7575	1428.5313	1457.667	1478.9788	1487.3482	1495.1459	1499.7434	1508.349	1512.8119	2363.2336	2988.9883	3029.0065	3034.0308	3038.0183	3042.8642	3053.1558	3074.5505	3078.3713	3100.2592	3104.8173	3127.5626	3139.5339	3796.7262
CCCC(C)(O)CC#N	CCC[C@@](C)(O)CC#N	
InChI=1S/C7H13NO/c1-3-4-7(2,9)5-6-8/h9H,3-5H2,1-2H3	InChI=1S/C7H13NO/c1-3-4-7(2,9)5-6-8/h9H,3-5H2,1-2H3/t7-/m1/s1
