15
gdb 108749	2.42843	1.33895	0.87238	3.0106	71.28	-0.2462	-0.087	0.1592	1239.1208	0.11131	-457.812144	-457.803677	-457.802733	-457.845899	30.215	
O	 0.0342192922	 1.4137723391	 0.0069881199	-0.415959
C	-0.0050436308	 0.0028585774	 0.0022289751	-0.173352
C	-1.4219578497	-0.452164094	 0.0120752565	 0.195169
C	-2.5441943293	 0.2884624941	 0.0231809966	-0.268586
C	-3.7554012604	-0.5742754726	 0.0296947903	 0.38627
O	-4.9010682185	-0.1931481043	 0.040535742	-0.311467
C	-3.2788281051	-2.0291735783	 0.0220813896	-0.452359
C	-1.75930746	-1.9100735854	 0.0106179118	 0.331993
O	-0.9488116827	-2.8066419742	 0.001192618	-0.313818
H	 0.9546247942	 1.6914016802	-0.000280258	 0.298454
H	 0.4915316075	-0.4291064897	-0.8826159628	 0.127128
H	 0.5058164287	-0.4354733773	 0.8757279641	 0.127121
H	-2.598922725	 1.3690715114	 0.0269549114	 0.148237
H	-3.6327119118	-2.5720923321	 0.903924197	 0.160599
H	-3.6464896993	-2.5672868543	-0.8570611215	 0.16057
85.7248	89.8614	154.7839	160.666	239.9714	320.2817	346.7031	425.5388	504.5015	567.6042	584.6125	625.2168	662.5106	805.9543	839.1471	885.5744	972.0719	1005.398	1032.03	1107.3199	1135.8157	1164.3132	1207.4604	1233.9011	1242.8117	1251.7481	1319.0603	1420.2731	1464.6408	1488.0658	1671.9781	1801.1009	1835.3189	2969.8148	2986.463	3067.4261	3109.2453	3234.4924	3840.2115
OCC1=CC(=O)CC1=O	OCC1=CC(=O)CC1=O	
InChI=1S/C6H6O3/c7-3-4-1-5(8)2-6(4)9/h1,7H,2-3H2	InChI=1S/C6H6O3/c7-3-4-1-5(8)2-6(4)9/h1,7H,2-3H2
