16
gdb 33887	3.48773	1.52176	1.32658	2.9692	73.25	-0.2594	0.0043	0.2637	962.5578	0.127969	-396.869295	-396.862739	-396.861795	-396.900197	26.672	
N	 0.0905904248	-1.0893558562	-0.0349974619	-0.340532
C	 0.0611111732	 0.0676817502	-0.0008325191	 0.202218
C	-0.0061042807	 1.4947714459	 0.0405330421	 0.20343
N	 0.3213717767	 2.3021916985	-1.1690680622	-0.360926
C	 1.1886775926	 2.3900201072	 0.017716731	-0.095259
C	 0.7450176265	 3.4196885834	 1.0923743196	-0.026937
C	-0.7294127236	 3.7180527833	 0.7189515201	-0.214111
C	-0.854765449	 2.2305348631	 1.1282169832	-0.084803
N	 0.1700711033	 2.5493112324	 2.1826623612	-0.302531
H	 0.75725035	 1.6951898696	-1.8638094919	 0.249931
H	 2.2045040988	 2.0135387837	-0.0211761925	 0.120986
H	 1.4614946296	 4.1878317696	 1.3806270546	 0.084703
H	-1.195577467	 4.3598824916	 1.4636017149	 0.122408
H	-0.9688258334	 4.0075854772	-0.2994309295	 0.13692
H	-1.7844905914	 1.7569833935	 1.4390090901	 0.090679
H	 0.7651008397	 1.7500914069	 2.4128375203	 0.213822
135.9335	157.5019	368.9129	412.0512	479.5346	536.839	560.4016	592.7838	614.4852	710.9762	799.1633	842.0163	860.001	880.9555	901.2319	917.9645	935.9426	992.8257	1016.2034	1037.6042	1062.5171	1088.4709	1125.6886	1135.5454	1171.7641	1223.6293	1239.1937	1251.4611	1282.8445	1289.0491	1319.1896	1344.7941	1391.5389	1478.2848	2342.7976	3121.03	3130.5693	3139.6805	3186.9058	3202.4559	3420.5868	3470.6161
N#CC12NC1C1CC2N1	N#C[C@]12N[C@H]1[C@H]1C[C@@H]2N1	
InChI=1S/C6H7N3/c7-2-6-4-1-3(8-4)5(6)9-6/h3-5,8-9H,1H2	InChI=1S/C6H7N3/c7-2-6-4-1-3(8-4)5(6)9-6/h3-5,8-9H,1H2/t3-,4+,5+,6-/m1/s1
