19
gdb 9647	3.8941	1.2439	1.12408	1.4916	79.73	-0.2293	0.0461	0.2754	1153.0328	0.162462	-327.866157	-327.856879	-327.855935	-327.899748	34.272	
C	-0.186790675	 1.5645884403	 0.2112530541	-0.374015
C	 0.1896762243	 0.1236621624	-0.1277493346	-0.115531
N	 0.7730251173	-0.521436409	 1.044897696	-0.09672
C	-0.0979875049	-1.2667078	 1.934755974	-0.278111
C	 0.9202057274	-1.9890720874	 1.0955612473	 0.099201
C	 0.4498894331	-2.8861094228	-0.0416334914	-0.46134
C	 2.1470394264	-2.4374205588	 1.7166203336	 0.300953
C	 3.1587262828	-2.8517125669	 2.2170554129	-0.429029
H	 0.688031972	 2.1164691964	 0.5651668677	 0.130322
H	-0.5920809583	 2.0737318372	-0.668644266	 0.111162
H	-0.9463780082	 1.5939296998	 0.9993668581	 0.118584
H	-0.6979197203	-0.4035051755	-0.5140382221	 0.08272
H	 0.9433294285	 0.1123204412	-0.9236864228	 0.108104
H	 0.0664401503	-1.1297134822	 2.9998374338	 0.120594
H	-1.1401756429	-1.4029822755	 1.6427246447	 0.105103
H	-0.522251605	-2.5785298525	-0.4309491185	 0.120302
H	 1.1731477382	-2.8820939011	-0.8631856966	 0.13178
H	 0.360262078	-3.9155119175	 0.3167008844	 0.134728
H	 4.0561568566	-3.1992063581	 2.6655895653	 0.191191
75.5801	133.1552	142.9225	179.6986	225.6845	235.578	292.7771	352.6795	408.3721	444.2165	540.5996	577.4527	609.8893	643.7613	690.415	757.0009	813.4069	876.0582	925.5263	950.4313	1007.1232	1067.1654	1090.4174	1102.9835	1121.3025	1174.6527	1199.914	1255.6597	1308.153	1357.6123	1382.4519	1407.5968	1414.78	1482.8236	1487.6265	1489.6924	1497.9484	1501.931	1516.0618	2237.0996	2963.8135	3039.3458	3045.8459	3053.8213	3077.6813	3107.9837	3110.7547	3122.4021	3132.3752	3177.0294	3503.135
CCN1CC1(C)C#C	CCN1C[C@]1(C)C#C	
InChI=1S/C7H11N/c1-4-7(3)6-8(7)5-2/h1H,5-6H2,2-3H3	InChI=1S/C7H11N/c1-4-7(3)6-8(7)5-2/h1H,5-6H2,2-3H3/t7-,8?/m0/s1
