16
gdb 28509	3.17752	1.35937	0.95516	3.5292	78.09	-0.1855	-0.0026	0.1829	1164.4783	0.126947	-434.128899	-434.120877	-434.119933	-434.16087	31.76	
N	 0.0131694784	 1.4013866781	-0.1060549345	-0.607453
C	-0.01015783	 0.0027588508	-0.0487873336	 0.271265
C	-1.1760798295	-0.7504582141	-0.1059779351	-0.315192
C	-1.0956002684	-2.1446229948	-0.0632650276	 0.346897
O	-2.1933891631	-2.956858304	-0.1135131233	-0.44687
C	 0.1579290453	-2.7340742488	 0.0474763588	-0.091027
N	 1.2864517616	-2.0163083855	 0.0799046536	-0.323391
C	 1.2163257912	-0.6955070312	 0.0259446912	 0.286723
N	 2.4088089878	 0.0491665712	 0.1087819013	-0.588343
H	 0.7445288096	 1.7930982549	 0.4768944746	 0.254989
H	-0.8773401858	 1.8352529728	 0.0975269131	 0.242907
H	-2.1429266211	-0.2548173083	-0.1659771039	 0.076067
H	-2.9842793411	-2.4146313078	-0.1927247472	 0.294354
H	 0.2458195139	-3.8147772688	 0.0989958463	 0.105932
H	 3.2059091815	-0.5754585768	 0.0790060678	 0.247314
H	 2.4836040698	 0.7468415323	-0.6245257916	 0.245828
149.2393	225.5461	252.3785	288.737	301.3106	335.1387	391.5332	453.6621	476.8924	487.4551	504.7841	585.053	629.77	718.7227	748.7302	766.7686	803.6183	846.4251	869.4973	900.6198	1008.7523	1094.255	1124.9829	1199.1806	1214.8006	1305.605	1309.0805	1336.1128	1398.3957	1496.0913	1523.4033	1613.8636	1642.912	1645.4261	1665.168	3145.0277	3177.0022	3504.8398	3518.9558	3610.3369	3623.9205	3829.2154
NC1=CC(O)=CN=C1N	Nc1cc(O)cnc1N	
InChI=1S/C5H7N3O/c6-4-1-3(9)2-8-5(4)7/h1-2,9H,6H2,(H2,7,8)	InChI=1S/C5H7N3O/c6-4-1-3(9)2-8-5(4)7/h1-2,9H,6H2,(H2,7,8)
