17
gdb 6493	3.69237	1.46184	1.28512	5.7108	64.32	-0.2519	0.0217	0.2735	989.4694	0.142236	-401.019797	-401.011809	-401.010865	-401.052387	29.654	
C	-0.107761342	 1.6261657802	-0.9602718523	-0.465988
C	-0.0145944595	 0.2387970345	-0.3623378496	 0.32471
C	-1.2458910377	-0.6426529913	-0.5503043061	-0.389962
C	-2.3903295534	-0.3207473619	 0.4196089274	 0.403285
O	-2.0212696447	-0.2488286235	 1.7098483005	-0.371819
O	-3.5325086259	-0.1779067445	 0.0752891225	-0.326989
C	 1.3156847459	-0.4018741222	-0.2000890509	-0.285883
N	 0.5906534708	 0.0934549233	 0.986574143	-0.360596
H	 0.981403406	 0.9778694223	 1.2999054222	 0.243389
H	-1.0416978992	-0.3218907605	 1.7621507872	 0.313571
H	 0.7965557721	 2.208224193	-0.7554958742	 0.116227
H	-0.234898048	 1.5729661263	-2.0463944989	 0.137219
H	-0.9664798758	 2.1709264168	-0.5529307779	 0.146961
H	-1.6364678424	-0.5562879402	-1.5656907022	 0.132799
H	-0.9721932769	-1.6912177053	-0.385916085	 0.129138
H	 1.4126505616	-1.4818799701	-0.2618362539	 0.130082
H	 2.1959237692	 0.1506706131	-0.5164649517	 0.123857
84.1897	87.6378	210.8188	233.6986	339.7369	344.785	372.4368	418.5134	477.5738	581.0444	673.3474	757.4126	816.1867	869.6447	884.6871	929.7424	934.4206	951.7858	994.4474	1023.7209	1059.5572	1124.6119	1132.8282	1189.7341	1259.5723	1271.6097	1303.2291	1354.3573	1383.6487	1423.5119	1447.6794	1466.6701	1486.7114	1500.7542	1514.6254	1865.0286	3031.7057	3048.5049	3101.1824	3105.4495	3115.3175	3125.1151	3202.5583	3423.4146	3511.3285
CC1(CC([O-])=O)C[NH2+]1	C[C@@]1(CC(=O)O)CN1	
InChI=1S/C5H9NO2/c1-5(3-6-5)2-4(7)8/h6H,2-3H2,1H3,(H,7,8)	InChI=1S/C5H9NO2/c1-5(3-6-5)2-4(7)8/h6H,2-3H2,1H3,(H,7,8)/t5-/m1/s1
