18
gdb 118939	2.45228	1.35115	1.1203	3.6659	67.91	-0.2505	0.0055	0.256	1152.5519	0.146623	-476.220036	-476.210504	-476.209559	-476.25476	33.551	
C	 0.3006111783	 0.7921684548	 0.4797530341	-0.265228
O	-0.3871128764	 0.2394250345	-0.6353826514	-0.236887
C	 0.4147646171	-0.5090169812	-1.5162232725	-0.139272
C	 0.5128006192	-1.9962803063	-1.1175035502	 0.051826
N	-0.7634414382	-2.6186465672	-0.7946329868	-0.547499
C	 1.4092435666	-2.8519846293	-2.0376001079	-0.098757
O	 2.35213973	-3.0769457285	-0.9403629857	-0.237346
C	 1.5902108774	-2.3512425976	-0.0684676258	 0.472626
O	 1.8036542872	-2.1418610037	 1.0835053532	-0.330584
H	 0.703012274	 0.0194735305	 1.1439542562	 0.153631
H	 1.1245990042	 1.4417844481	 0.1496293186	 0.109647
H	-0.4277774548	 1.3977778833	 1.0238042756	 0.128769
H	-0.0782124733	-0.4629900716	-2.4970135879	 0.106103
H	 1.4167429891	-0.0641742492	-1.6253193142	 0.096976
H	-1.2042483331	-2.0628395728	-0.0649915664	 0.250017
H	-1.382917446	-2.5445133147	-1.5997000622	 0.232206
H	 0.9616321876	-3.7919749272	-2.3630915127	 0.133005
H	 1.8996900708	-2.3348144821	-2.8658985541	 0.120769
74.6084	104.8924	127.0811	149.1959	189.413	203.7492	260.0038	290.1921	351.2754	424.1187	470.9903	549.8041	734.4482	756.9199	775.0682	892.6445	917.6199	919.7072	956.0995	977.4227	1034.6787	1128.3103	1140.4732	1157.9971	1184.2214	1197.3532	1220.6726	1257.2898	1299.6649	1332.3656	1374.7428	1399.2733	1474.73	1487.0954	1499.4664	1504.5743	1518.8217	1658.2158	1926.0476	2975.9001	2996.8715	3035.6399	3070.1534	3077.6074	3125.8683	3140.1239	3469.399	3547.0307
COCC1(N)COC1=O	COC[C@@]1(N)COC1=O	
InChI=1S/C5H9NO3/c1-8-2-5(6)3-9-4(5)7/h2-3,6H2,1H3	InChI=1S/C5H9NO3/c1-8-2-5(6)3-9-4(5)7/h2-3,6H2,1H3/t5-/m1/s1
