18
gdb 16334	3.02696	1.79004	1.38903	1.4173	67.47	-0.235	0.0658	0.3008	947.366	0.152703	-384.893771	-384.885594	-384.88465	-384.92636	30.549	
C	-0.14148349	 1.5178513149	-0.0598829144	-0.411602
C	 0.0875168766	 0.0229228878	-0.0157455716	 0.116589
O	 1.2305118211	-0.4326843813	-0.8082274225	-0.310164
C	 1.7253980555	-1.1690983476	 0.3088487006	 0.051524
C	 2.1025299943	-0.2511852274	 1.4277771415	-0.363356
C	 0.6467812674	-0.662418546	 1.2377152427	 0.230999
C	-0.1788942403	-1.3173991061	 2.3001642692	-0.178375
O	-0.8216480089	-0.3702441689	 3.1475672546	-0.413019
H	 0.7306249714	 2.0697621533	 0.3005892321	 0.118234
H	-0.3512766267	 1.8420686863	-1.0839977512	 0.127667
H	-1.0015912716	 1.7738407152	 0.5674548579	 0.129913
H	-0.8091782938	-0.5097695344	-0.3613427436	 0.081949
H	 2.1357902201	-2.156695123	 0.1309591923	 0.106515
H	 2.587562774	-0.7265086653	 2.2763944415	 0.112348
H	 2.4509258163	 0.7520082608	 1.2014931805	 0.118386
H	-0.991668162	-1.8985755339	 1.8499850911	 0.112022
H	 0.4421822468	-2.0197732884	 2.8792689293	 0.087582
H	-0.1333264302	 0.1889579539	 3.5234784299	 0.282789
74.3085	122.6604	209.7311	219.3605	282.9918	315.1822	356.1488	403.2813	474.7249	523.805	704.3017	711.2241	844.265	874.1309	887.7348	921.366	963.9691	995.4281	1027.2544	1046.3427	1054.1852	1078.5329	1083.2521	1125.0066	1139.401	1187.4133	1258.0028	1265.82	1304.0514	1364.6163	1384.4057	1396.2742	1414.0614	1428.9839	1480.3571	1485.0413	1495.6221	1502.4118	2974.3439	3009.5361	3040.798	3062.3258	3111.876	3113.5721	3122.1144	3177.337	3203.3926	3807.8587
CC1OC2CC12CO	C[C@H]1O[C@H]2C[C@@]12CO	
InChI=1S/C6H10O2/c1-4-6(3-7)2-5(6)8-4/h4-5,7H,2-3H2,1H3	InChI=1S/C6H10O2/c1-4-6(3-7)2-5(6)8-4/h4-5,7H,2-3H2,1H3/t4-,5+,6-/m1/s1
