17
gdb 111741	2.34118	1.39708	1.07646	2.6246	71.28	-0.2478	-0.0307	0.2171	1155.6125	0.133637	-458.907338	-458.898578	-458.897634	-458.941283	31.104	
C	 0.3804897426	 0.9964358196	-0.2476697654	-0.242485
O	-0.3521477209	 0.0076560768	 0.4582176423	-0.227136
C	 0.4110285941	-0.6773339033	 1.3791779793	 0.046417
C	 0.0368077729	-2.036817157	 1.8064967856	 0.009991
O	-0.5715834307	-2.8058481072	 0.7966903676	-0.268555
C	 0.6014728471	-2.6940725207	-0.0587829874	-0.134845
C	 1.3375116435	-1.8228344905	 0.953599699	 0.10842
C	 2.7504508502	-1.9276809362	 1.3108862704	 0.05501
O	 3.5485859408	-2.6294734856	 0.7314304659	-0.27509
H	 1.2292017331	 0.5577284865	-0.7899229184	 0.120685
H	-0.3084466905	 1.4518803607	-0.9611670902	 0.139959
H	 0.7610983312	 1.7738179258	 0.4305726033	 0.114584
H	 0.8505117471	-0.0692409398	 2.1759326623	 0.101461
H	-0.0892513947	-2.3527118381	 2.8371430627	 0.124922
H	 1.0734416564	-3.6700723971	-0.1937927928	 0.137698
H	 0.3622989658	-2.2417752537	-1.0251261725	 0.122781
H	 3.0569368019	-1.2976624001	 2.1777379484	 0.066184
81.3581	99.7846	161.6513	177.0632	202.7631	234.6288	269.431	358.0788	437.3657	563.1778	587.8468	721.7614	776.1186	810.5624	920.1538	959.8635	982.6349	1008.5017	1019.2453	1059.1205	1085.6878	1104.6198	1145.003	1166.0628	1180.4252	1211.6451	1258.0048	1271.405	1347.6349	1353.0275	1424.2664	1448.3557	1486.8189	1491.6093	1506.3169	1508.4947	1789.3643	2860.5216	2992.2918	3048.2307	3059.7884	3064.8792	3119.7852	3133.4249	3171.0609
COC1C2OCC12C=O	CO[C@H]1[C@H]2OC[C@@]12C=O	
InChI=1S/C6H8O3/c1-8-4-5-6(4,2-7)3-9-5/h2,4-5H,3H2,1H3	InChI=1S/C6H8O3/c1-8-4-5-6(4,2-7)3-9-5/h2,4-5H,3H2,1H3/t4-,5+,6-/m0/s1
