17
gdb 74224	2.4072	1.58084	0.99535	4.2418	77.51	-0.2125	-0.0147	0.1978	1152.922	0.13804	-455.151807	-455.143717	-455.142773	-455.18457	30.917	
N	 0.1814957468	 1.2076158763	 0.5469368131	-0.551494
C	 0.1087834498	-0.0639795852	-0.0090699554	 0.259747
C	-0.9091155859	-0.8989487603	 0.2856032444	-0.194637
C	-1.1910016729	-2.2856890174	-0.0718519519	 0.350694
N	-2.3476039816	-2.7598313029	 0.1838762645	-0.52815
O	-0.2601890263	-3.0898580377	-0.6850345684	-0.246305
C	 1.093069698	-2.7062972636	-0.7318180202	-0.002537
O	 1.3070050309	-1.5894135376	-1.5410975264	-0.224246
C	 1.3287092398	-0.3678451865	-0.8465615115	-0.159406
H	 0.6051342286	 1.9199150888	-0.0310083458	 0.251736
H	-0.6642766065	 1.53383613	 0.9921615072	 0.258394
H	-1.7193460415	-0.4947584004	 0.8853357984	 0.099242
H	-2.3866592029	-3.7366814501	-0.1117871328	 0.214827
H	 1.4823491048	-2.5343951267	 0.2829461322	 0.10057
H	 1.6048847443	-3.5516479038	-1.1961412781	 0.125433
H	 1.4427812785	 0.4093743714	-1.6130153434	 0.124588
H	 2.2155157761	-0.3027512244	-0.1934145761	 0.121546
76.6377	149.2641	185.4064	307.227	330.4999	350.1325	378.6417	458.1605	479.2212	503.4714	580.8629	621.9474	686.8791	708.0986	829.3561	875.1734	899.2358	909.4453	985.2649	1029.2492	1053.045	1115.4107	1139.9348	1175.2322	1218.0781	1258.9386	1286.325	1336.9613	1359.3323	1391.866	1432.3863	1460.8729	1487.6792	1509.3125	1650.2227	1680.765	1719.7907	2965.3249	2993.281	3044.0367	3112.9521	3170.4379	3474.066	3554.9188	3657.0676
NC1=CC(=N)OCOC1	N[C]1C=C([NH])OCOC1	
InChI=1S/C5H8N2O2/c6-4-1-5(7)9-3-8-2-4/h1,7H,2-3,6H2	InChI=1S/C5H8N2O2/c6-4-1-5(7)9-3-8-2-4/h1,7H,2-3,6H2
