17
gdb 46421	3.80629	0.82976	0.72438	5.9587	73.85	-0.263	0.0159	0.279	1500.8726	0.136554	-418.048191	-418.039301	-418.038357	-418.082839	31.375	
O	 0.1200485208	 0.0303937041	 0.0535238577	-0.363623
C	 0.0354470423	 1.2304598776	 0.0132975022	 0.436552
N	-1.0234597727	 2.1000571725	-0.0135546026	-0.318948
C	-0.2195017211	 3.3251287662	 0.0455715023	-0.19184
C	 1.044558705	 2.4114436021	 0.0190365806	-0.153353
C	 1.9903946252	 2.4548272577	 1.2146002668	-0.211859
C	 2.9904609461	 1.2784198582	 1.1692109499	-0.342799
C	 3.8868151424	 1.2713872755	 2.3218719357	 0.256299
N	 4.5879660626	 1.2863801953	 3.2403398039	-0.306113
H	-2.0190460321	 1.9421916314	 0.0374162863	 0.256698
H	-0.3429637303	 3.9869931503	-0.8165443488	 0.12036
H	-0.3462056019	 3.8976508822	 0.9703990424	 0.120099
H	 1.597942313	 2.4794188388	-0.9226384294	 0.107712
H	 2.537376107	 3.4035335073	 1.2331271605	 0.124979
H	 1.4160527301	 2.4003635816	 2.1461864646	 0.127936
H	 2.4422660742	 0.3313884747	 1.1264225999	 0.188018
H	 3.5970137694	 1.3323807943	 0.2574145581	 0.149882
61.8538	85.78	111.1588	147.7844	199.0946	269.3944	340.4178	402.5822	454.0035	495.4893	555.2666	712.0416	760.1216	777.1415	846.2311	894.5465	941.9158	989.3965	1005.9563	1047.1327	1082.8359	1132.2922	1160.5996	1174.3273	1183.9279	1231.1332	1276.1175	1306.6718	1320.5432	1355.4767	1389.9978	1399.4667	1474.8524	1498.2196	1527.5335	1882.6394	2363.0459	3038.285	3043.4273	3049.1064	3065.8548	3080.5269	3093.5216	3099.9497	3612.591
O=C1NCC1CCC#N	O=C1NC[C@H]1CCC#N	
InChI=1S/C6H8N2O/c7-3-1-2-5-4-8-6(5)9/h5H,1-2,4H2,(H,8,9)	InChI=1S/C6H8N2O/c7-3-1-2-5-4-8-6(5)9/h5H,1-2,4H2,(H,8,9)/t5-/m1/s1
