19
gdb 103463	2.56717	1.40278	1.1169	2.253	71.17	-0.2399	0.0544	0.2943	1146.7986	0.157638	-460.109466	-460.100383	-460.099439	-460.142905	34.445	
C	-0.1391408233	 1.6044781236	-0.0149365661	-0.508458
C	 0.025120768	 0.1124406882	 0.0486616551	 0.18458
C	-0.7164382196	-0.8700320695	-0.8562761104	-0.145712
O	-0.8121251516	-1.8640931533	 0.2085650758	-0.31128
C	-0.216098449	-0.9422229483	 1.1331340331	-0.036708
C	 1.1795074654	-0.6570914587	 0.6812710132	 0.335306
O	 1.8838801226	-1.6478565466	-0.0234622299	-0.492095
C	 2.1191708043	 0.0641236701	 1.6216542754	-0.117324
O	 2.7809420285	-0.8509073497	 2.4704619513	-0.422477
H	 0.344693816	 2.0132055929	-0.9100155855	 0.130657
H	-1.198456671	 1.8827295732	-0.0528193355	 0.123802
H	 0.3029380288	 2.1042120861	 0.8508058849	 0.131546
H	-1.7173736147	-0.5270810031	-1.139685777	 0.115099
H	-0.1847350683	-1.2513076944	-1.7347996754	 0.114018
H	-0.5948696687	-0.9209387648	 2.1496168337	 0.111621
H	 1.2701039077	-2.3908202938	-0.1172921527	 0.297949
H	 2.8376019918	 0.6564270702	 1.0313785142	 0.096125
H	 1.5672127038	 0.7581104757	 2.2629554717	 0.105073
H	 3.0784932494	-1.5643588279	 1.8919933539	 0.288277
101.1568	152.473	166.2973	182.204	267.959	272.1567	294.4945	341.3241	400.5415	442.5743	521.6295	529.3165	595.4715	664.7434	742.8917	813.3088	906.6116	929.6398	963.3116	981.6448	990.6864	1014.3075	1025.5457	1076.3979	1115.6094	1136.3329	1167.3264	1180.8573	1217.9346	1253.5338	1276.1509	1308.9432	1371.5443	1400.945	1420.0282	1434.8511	1462.6725	1487.4779	1499.2855	1502.5153	1509.4217	2971.0437	3026.1305	3033.1317	3078.0542	3082.0022	3085.9629	3114.9132	3171.1838	3730.5275	3779.9711
CC12COC1C2(O)CO	C[C@]12CO[C@H]1[C@]2(O)CO	
InChI=1S/C6H10O3/c1-5-3-9-4(5)6(5,8)2-7/h4,7-8H,2-3H2,1H3	InChI=1S/C6H10O3/c1-5-3-9-4(5)6(5,8)2-7/h4,7-8H,2-3H2,1H3/t4-,5+,6-/m1/s1
