20
gdb 106331	2.91981	1.26612	1.07754	1.4564	76.37	-0.1976	0.0639	0.2615	1209.2589	0.168837	-440.209761	-440.200204	-440.199259	-440.243932	35.268	
C	 0.1219673476	 1.3089886603	-0.200416019	-0.259195
O	 0.0040909593	-0.0435683444	 0.2159038323	-0.279011
C	-1.2738298281	-0.536042033	 0.0930867115	 0.372151
C	-2.3816553925	-0.3579849741	 1.1436045817	-0.245471
N	-2.6927211723	-1.8075108927	 1.036168605	-0.065196
C	-4.068707245	-2.2310793043	 0.8394338509	-0.327427
C	-1.7143746667	-1.993402823	-0.0275698181	-0.177314
C	-1.848651774	-1.0251587971	-1.1966693457	 0.013705
O	-3.0614471417	-0.5157544299	-1.6761829674	-0.421663
H	 1.1717645897	 1.5865108887	-0.0843457816	 0.128109
H	-0.1728913358	 1.4312773068	-1.2515714918	 0.118249
H	-0.4945687763	 1.9782005414	 0.415792104	 0.115142
H	-1.9996298673	-0.0900503166	 2.1342906639	 0.107694
H	-3.1969094648	 0.3168616117	 0.8587977501	 0.107906
H	-4.5867849708	-1.7120743361	 0.0186082862	 0.100347
H	-4.0842535922	-3.3076146274	 0.6373456276	 0.115737
H	-4.6345432731	-2.0624590586	 1.7624022699	 0.118658
H	-1.1353832064	-2.9095051148	-0.0995250017	 0.09714
H	-1.0759673282	-1.1809612487	-1.9531102457	 0.092644
H	-3.5049650715	-1.2157925882	-2.1666002622	 0.287795
73.5518	137.5214	162.9105	175.4731	206.4966	229.9672	283.3595	338.9363	355.9467	366.0072	414.2558	502.7349	615.6218	669.7185	716.1824	843.6544	876.5258	925.682	970.8783	988.3257	1044.2943	1053.0136	1079.3832	1120.1644	1140.4324	1164.2273	1179.7427	1199.4974	1218.9086	1234.6755	1237.5184	1279.6115	1295.3107	1310.6418	1354.2935	1444.509	1456.4294	1480.0295	1487.0663	1492.6597	1503.9142	1509.4187	1514.9121	2985.3909	2995.396	3027.503	3050.5548	3059.5387	3078.4393	3084.0586	3092.4619	3124.2715	3152.0456	3806.8187
COC12CN(C)C1C2O	CO[C@]12CN(C)[C@H]1[C@H]2O	
InChI=1S/C6H11NO2/c1-7-3-6(9-2)4(7)5(6)8/h4-5,8H,3H2,1-2H3	InChI=1S/C6H11NO2/c1-7-3-6(9-2)4(7)5(6)8/h4-5,8H,3H2,1-2H3/t4-,5+,6+/m0/s1
