19
gdb 126407	3.41943	0.99715	0.85061	3.6437	78.34	-0.2596	-0.0001	0.2595	1438.0794	0.159095	-419.245944	-419.236658	-419.235714	-419.281263	32.799	
C	 0.4757647331	 1.3373881717	-0.2468190754	-0.382161
C	-0.052207292	-0.0466516693	 0.1671099863	-0.298001
C	 0.5411455583	-0.5416837441	 1.4375706005	 0.390432
N	-0.0414734934	-0.788020386	 2.563467601	-0.270583
N	 0.9604001593	-1.2192563632	 3.4421122797	-0.270581
C	 2.0661414887	-1.1956048899	 2.7753685211	 0.390424
C	 3.4349478167	-1.5666081474	 3.2224902914	-0.297997
C	 4.0111045041	-2.7744166262	 2.4642643738	-0.382159
O	 1.8844271606	-0.775909561	 1.4897457576	-0.202776
H	 1.5602865784	 1.3185814474	-0.3853058945	 0.132246
H	 0.01725763	 1.6514796271	-1.1883416022	 0.123935
H	 0.2423926119	 2.0873440787	 0.5143162852	 0.135031
H	-1.1346700822	-0.021200996	 0.3140359384	 0.14384
H	 0.153048517	-0.7728180376	-0.6287616458	 0.12665
H	 4.097587567	-0.7017959034	 3.0965361717	 0.126646
H	 3.3707850761	-1.7750145237	 4.2931958199	 0.143839
H	 3.3882428716	-3.6611401849	 2.6125464389	 0.135036
H	 4.0677985141	-2.573524959	 1.3908820039	 0.132245
H	 5.0190077706	-3.0006426429	 2.8224538286	 0.123934
38.6879	68.855	116.7863	150.7263	204.6132	225.4078	309.0937	325.4472	433.9692	436.6834	613.4097	694.2802	725.6395	762.9108	789.7892	803.5003	969.0679	975.2258	983.1153	998.0395	1038.9528	1080.9546	1082.759	1104.4276	1110.548	1222.394	1270.8727	1292.6268	1344.1097	1353.9567	1393.7689	1409.2048	1418.0748	1472.9631	1473.4461	1498.4513	1498.8406	1506.5181	1508.1249	1614.3344	1629.5686	3040.1967	3040.4389	3046.9517	3047.0074	3104.7986	3104.8569	3122.087	3122.1135	3127.9719	3128.185
CCC1=NN=C(CC)O1	CCc1nnc(CC)o1	
InChI=1S/C6H10N2O/c1-3-5-7-8-6(4-2)9-5/h3-4H2,1-2H3	InChI=1S/C6H10N2O/c1-3-5-7-8-6(4-2)9-5/h3-4H2,1-2H3
