15
gdb 129027	4.21396	1.42353	1.08362	5.8916	79.85	-0.2185	-0.0537	0.1648	1055.654	0.114793	-412.941444	-412.934433	-412.933489	-412.973197	26.622	
N	-0.0360677354	 1.275714953	 0.1166253839	-0.518567
C	-0.0708555004	 0.0043237214	-0.0056091963	 0.389064
C	-1.3254485848	-0.7446886339	-0.0725110455	-0.387203
C	-1.183151614	-2.0706306365	 0.0366581633	 0.472134
C	-1.8348358899	-3.4406563658	-0.0337603427	-0.374711
C	-0.3713395117	-4.0211624849	-0.0296317303	-0.159773
N	 0.0721580566	-2.6299935385	 0.1606158641	-0.018465
N	 1.2293046054	-1.995693293	-0.0833827686	-0.078457
N	 1.1701886148	-0.7330103879	-0.1539134717	-0.256315
H	 0.9408168142	 1.5794034852	 0.1034952361	 0.22051
H	-2.2648975396	-0.2272007353	-0.2097045668	 0.127797
H	-2.4317474271	-3.7121815402	 0.8385214429	 0.147765
H	-2.4071095509	-3.636392888	-0.941704117	 0.148776
H	-0.1088128238	-4.6861490532	 0.7954363629	 0.141293
H	-0.0476362634	-4.4509099622	-0.9805921743	 0.146152
90.0487	130.24	201.4638	358.6944	458.1749	460.8779	516.2313	535.896	634.7257	729.1829	758.0501	791.4255	835.4535	864.0944	899.8858	911.5464	933.722	1059.1101	1076.9869	1115.4413	1141.4439	1185.9047	1196.9623	1215.9228	1262.9739	1282.0029	1317.5444	1404.6276	1472.1692	1494.8925	1516.6183	1690.1462	1732.9252	3071.1447	3089.138	3126.8	3145.5321	3231.2807	3448.8403
N=C1C=C2CCN2N=N1	[NH]c1cc2CCn2nn1	
InChI=1S/C5H6N4/c6-5-3-4-1-2-9(4)8-7-5/h3,6H,1-2H2	InChI=1S/C5H11N4/c6-5-3-4-1-2-9(4)8-7-5/h4-8H,1-3H2
