17
gdb 79374	3.21034	1.3917	1.10546	2.5971	78.	-0.2598	0.0115	0.2713	1106.0634	0.1365	-380.788938	-380.781352	-380.780408	-380.820954	29.296	
C	-0.1060009942	 1.5914863739	-0.0153952864	-0.42896
C	-0.0455842283	 0.0732514725	-0.0109469603	-0.010568
C	 1.1741851512	-0.6253895439	-0.6326808004	-0.05097
N	 2.0766458958	-0.2610204493	 0.57862511	-0.16782
C	 2.5132123783	-1.7141578152	 0.688592138	-0.229769
C	 1.0519980005	-1.8936288563	 0.2793049089	 0.208917
C	 0.2746874552	-3.0899387687	 0.052590919	 0.147329
N	-0.3458770233	-4.0492197069	-0.1284353291	-0.342415
C	 0.6789129529	-0.6398941752	 1.1418814445	-0.050967
H	 0.8609319654	 2.0208533654	 0.257935518	 0.145309
H	-0.3827924987	 1.9652811394	-1.0066251259	 0.122724
H	-0.8575865147	 1.9513697046	 0.6948699903	 0.122725
H	-1.0023099655	-0.3852743977	-0.2817130486	 0.094497
H	 1.5710734652	-0.5989647838	-1.6489613144	 0.100093
H	 3.2815632991	-1.9991754642	-0.0354336229	 0.119891
H	 2.7968088071	-2.0133720245	 1.7014373522	 0.119892
H	 0.492076264	-0.6305645601	 2.2170790671	 0.100093
114.8187	159.3747	213.3171	238.2548	278.8917	418.8242	440.9531	527.3737	548.6348	615.2898	727.1187	745.4278	842.4118	860.2551	886.5915	918.4806	923.3284	1023.0051	1030.5811	1043.6774	1083.9501	1086.4353	1104.9919	1124.5303	1150.6953	1183.0122	1196.2769	1228.5604	1234.8714	1277.6746	1304.8829	1398.0987	1410.9401	1494.5583	1501.487	1520.1357	2343.852	3039.1402	3053.1924	3059.3867	3100.7635	3105.771	3110.0761	3118.4378	3128.2745
CC1C2N3CC2(C#N)C13	C[C@H]1[C@H]2N3C[C@@]2(C#N)[C@H]13	
InChI=1S/C7H8N2/c1-4-5-7(2-8)3-9(5)6(4)7/h4-6H,3H2,1H3	InChI=1S/C7H8N2/c1-4-5-7(2-8)3-9(5)6(4)7/h4-6H,3H2,1H3/t4-,5+,6-,7+
