17
gdb 17207	4.48073	1.82626	1.59012	2.2543	68.22	-0.2192	0.0708	0.2901	846.4987	0.143204	-363.789515	-363.782782	-363.781838	-363.820449	26.505	
C	-0.2773910985	 1.3644730803	 0.0626659439	-0.299758
C	 1.1635857111	 0.8985586208	-0.044707031	-0.342824
C	 0.0401804163	-0.0922631607	-0.0004218995	 0.366978
N	-0.20990807	-1.0703780189	 1.0863609808	-0.376399
C	-0.5014242391	-2.1229945894	 0.0723333827	-0.051976
C	-1.9859586314	-2.1519550204	-0.333979849	-0.063991
O	-1.7681222313	-1.1485237862	-1.3608940312	-0.29059
C	-0.3569156113	-1.0982681488	-1.0794566702	 0.000848
H	-0.6080279883	 1.7534503438	 1.0197144163	 0.120287
H	-0.7443157372	 1.8244409292	-0.8016500907	 0.123773
H	 1.6908171534	 1.0395147395	-0.9835434252	 0.115879
H	 1.7910887905	 0.9915401562	 0.8369496892	 0.111731
H	 0.6378868252	-1.2796179491	 1.6046589677	 0.218548
H	 0.0399999	-3.063407765	 0.1712666395	 0.080308
H	-2.3335216383	-3.0944544871	-0.7753852567	 0.098194
H	-2.6816556899	-1.8180904608	 0.4427739331	 0.111835
H	 0.2574393189	-1.1774741633	-1.9801892697	 0.077157
82.997	198.8164	251.2264	328.7571	411.9151	474.5186	572.6897	743.7476	761.3864	791.1152	796.3483	845.536	893.2428	916.4806	932.4881	957.3704	985.4056	1009.2493	1025.8955	1040.4881	1049.9824	1068.9251	1106.0877	1156.2635	1182.1855	1185.5125	1205.3512	1243.149	1283.927	1319.8363	1330.6395	1373.623	1403.2318	1457.1392	1497.7066	1505.9188	3017.7339	3073.057	3081.9647	3114.0737	3116.9693	3133.6665	3198.7461	3223.6641	3510.2677
C1CC11NC2COC12	C1CC21N[C@H]1CO[C@@H]21	
InChI=1S/C6H9NO/c1-2-6(1)5-4(7-6)3-8-5/h4-5,7H,1-3H2	InChI=1S/C6H9NO/c1-2-6(1)5-4(7-6)3-8-5/h4-5,7H,1-3H2/t4-,5+/m0/s1
