23
gdb 83757	2.3117	1.78069	1.39317	0.1721	88.4	-0.2415	0.0856	0.3271	1081.8449	0.207487	-351.151032	-351.142643	-351.141699	-351.183244	34.09	
C	-0.2814936321	 1.5638717145	 0.0012002408	-0.42756
C	 0.0478129687	 0.0732542012	 0.0115173491	-0.014778
C	 1.0745215665	-0.5584447803	-0.9952514408	-0.062525
C	 2.234820946	 0.3918901844	-1.330258295	-0.205486
C	 2.9228533939	 0.6580966176	 0.0384861004	-0.241264
C	 2.346610885	-0.4201949053	 0.9547635048	-0.078744
C	 1.5879322061	-1.4528794705	 0.1675732843	-0.135689
C	 0.8418555685	-0.5691426669	 1.1601336837	 0.341647
C	 0.2592733124	-0.9173759591	 2.5017039669	-0.505499
H	 0.6073779307	 2.1930127393	 0.0931464669	 0.11686
H	-0.7964350573	 1.8458518186	-0.9245666036	 0.11053
H	-0.9486567955	 1.8147696388	 0.8337758271	 0.111436
H	-0.8908992659	-0.4883928997	-0.080885493	 0.064163
H	 0.6335648211	-1.0454198577	-1.8660300668	 0.057591
H	 2.9304973018	-0.1027645461	-2.017130038	 0.09305
H	 1.895420764	 1.3099897213	-1.8202303239	 0.093097
H	 4.0104618092	 0.5523239359	-0.034275578	 0.093283
H	 2.7320034522	 1.6692196465	 0.4122816379	 0.097882
H	 2.9412213054	-0.7559022235	 1.7988753078	 0.072827
H	 1.7650105795	-2.5209195722	 0.1680699602	 0.076221
H	 0.9290335591	-1.5717954032	 3.0700243431	 0.114315
H	 0.082904465	-0.0215203145	 3.1097939956	 0.116518
H	-0.7004628641	-1.4371688091	 2.3931249805	 0.112122
179.4566	189.1654	193.0986	218.3952	247.3374	253.1702	316.9007	447.5687	516.0677	563.0888	652.623	703.185	748.6017	771.5638	828.9823	840.3997	870.6897	890.7741	906.2922	933.1265	958.404	998.5894	1009.64	1035.6272	1064.0235	1079.5257	1093.9613	1118.2966	1139.7762	1155.3059	1203.2073	1219.5432	1225.3377	1240.5367	1270.7598	1279.8666	1319.2684	1325.8738	1341.5328	1378.7788	1405.1344	1414.5123	1446.6236	1482.9381	1486.3073	1493.7238	1497.5594	1503.0711	1513.8544	3012.4205	3015.4185	3029.626	3035.1067	3045.444	3067.6676	3071.9592	3084.4911	3087.9012	3088.2994	3099.5258	3117.8423	3158.0376	3190.3227
CC1C2CCC3C2C13C	C[C@H]1[C@H]2CC[C@@H]3[C@H]2[C@]13C	
InChI=1S/C9H14/c1-5-6-3-4-7-8(6)9(5,7)2/h5-8H,3-4H2,1-2H3	InChI=1S/C9H14/c1-5-6-3-4-7-8(6)9(5,7)2/h5-8H,3-4H2,1-2H3/t5-,6+,7+,8-,9+/m0/s1
