16
gdb 17539	3.83197	1.93523	1.67658	2.529	64.05	-0.257	0.0766	0.3336	812.9406	0.129997	-383.679111	-383.671955	-383.671011	-383.710469	27.424	
O	-0.159361049	 1.432137712	 0.1752349858	-0.4333
C	-0.1104742654	 0.0369149435	 0.0943637049	 0.125349
C	-0.4269097701	-0.8237780212	 1.2771843614	-0.095765
C	-1.5373862585	-0.1702155231	 2.1156269027	-0.32263
C	-2.4223965551	-0.1858334251	 0.8572114863	 0.46021
C	-3.8711714431	-0.3152524325	 0.7351482801	-0.274016
O	-3.2088380477	 0.914891535	 0.402129826	-0.285911
C	-1.3418418453	-0.8193198758	 0.017833618	-0.226139
H	-0.9539919471	 1.7323918594	-0.2780336146	 0.304183
H	 0.7160070329	-0.3276641375	-0.5146454354	 0.095822
H	 0.2334954865	-1.6100218491	 1.6194230092	 0.094557
H	-1.922256877	-0.8142257728	 2.9095140095	 0.108389
H	-1.3040251844	 0.8192401824	 2.5144478708	 0.124479
H	-4.3003746374	-0.8577445814	-0.1070473198	 0.115886
H	-4.4939960677	-0.2800040297	 1.6283430284	 0.1176
H	-1.4898331316	-1.5668093041	-0.7527950033	 0.091285
76.1071	187.0965	231.873	298.0557	345.8279	381.3035	505.7934	546.0639	656.1292	735.3309	801.3841	808.9982	864.2598	894.8529	933.3426	959.9251	979.0158	1005.3903	1021.333	1071.5249	1097.1955	1120.4661	1156.4431	1166.5491	1188.0593	1197.5988	1247.6255	1284.8118	1322.0129	1350.0289	1420.7762	1445.0879	1474.9903	1538.2258	3069.547	3076.6427	3115.1651	3126.1598	3162.1571	3178.2925	3200.2922	3820.2812
OC1C2CC3(CO3)C12	O[C@H]1[C@H]2C[C@]3(CO3)[C@@H]12	
InChI=1S/C6H8O2/c7-5-3-1-6(2-8-6)4(3)5/h3-5,7H,1-2H2	InChI=1S/C6H8O2/c7-5-3-1-6(2-8-6)4(3)5/h3-5,7H,1-2H2/t3-,4+,5-,6-/m0/s1
