15
gdb 34713	3.21809	1.66347	1.47031	2.3203	71.8	-0.2378	-0.0198	0.218	903.6324	0.115236	-379.638541	-379.63206	-379.631116	-379.669457	25.744	
N	-0.0473881779	-1.2219177366	-0.0844450088	-0.330745
C	-0.0170641032	-0.0685097651	-0.0131515543	 0.276535
C	 0.025072291	 1.3847702494	 0.0700478959	-0.159471
C	-0.1910194449	 2.1020610003	 1.3962012937	-0.070062
C	 1.0473840104	 2.2247907378	 2.2464693435	-0.068049
C	 2.2103438	 1.3316186984	 1.9930356487	-0.064029
C	 2.4727540253	 1.3434638509	 0.6854037073	-0.086627
C	 1.4049257627	 2.1625443722	 0.0123083616	-0.076101
N	 0.869839341	 3.1214111786	 1.0811847451	-0.12969
H	-0.6524731853	 1.8106210706	-0.6737621776	 0.142896
H	-1.1688631435	 2.3783713012	 1.7773536472	 0.114042
H	 0.9075830501	 2.6958320618	 3.2142905778	 0.106659
H	 2.7155068925	 0.7669423292	 2.7645088049	 0.121912
H	 3.2096563082	 0.7560556211	 0.1547359992	 0.124614
H	 1.6438581833	 2.6341503302	-0.9384220041	 0.098117
121.073	148.6644	336.9742	379.2645	499.425	539.7983	576.3652	723.7558	739.2985	750.2347	778.7845	797.3174	840.0863	856.3839	931.5885	951.801	974.6413	986.5907	1014.8352	1051.8065	1083.7703	1090.4861	1125.9444	1149.0962	1164.9175	1236.6846	1283.9098	1326.1722	1346.4685	1352.5673	1384.734	1656.0296	2354.66	3090.0054	3138.7049	3161.9024	3172.1623	3221.2455	3244.5492
N#CC1C2C3C=CC1N23	N#C[C@H]1[C@H]2[C@H]3C=C[C@@H]1N23	
InChI=1S/C7H6N2/c8-3-4-5-1-2-6-7(4)9(5)6/h1-2,4-7H	InChI=1S/C7H6N2/c8-3-4-5-1-2-6-7(4)9(5)6/h1-2,4-7H/t4-,5+,6-,7+,9?/m1/s1
