15
gdb 19269	3.34191	1.80578	1.3295	3.2936	62.04	-0.2256	-0.0331	0.1925	921.4942	0.117847	-399.749789	-399.742238	-399.741294	-399.781997	27.189	
C	 0.4418779108	 1.2230957106	 0.4580508326	-0.32007
N	-0.34968961	 0.3172335547	-0.3680461914	-0.274748
C	 0.3819921846	-0.3350279154	-1.4125629318	-0.117985
C	 1.2938646271	-1.5579026779	-1.1056140974	 0.010381
O	 0.4215477668	-2.5418344287	-0.5555207393	-0.239971
C	 0.5272510911	-2.4612874097	-1.9988192205	-0.114795
C	-0.401301293	-1.3104188422	-2.3714842181	 0.403297
O	-1.2797150875	-1.1604446828	-3.1632397998	-0.289546
H	 1.3034413216	 0.7513962171	 0.9606239799	 0.100477
H	 0.8238648297	 2.0398617657	-0.1644623865	 0.12602
H	-0.1994860728	 1.6630103261	 1.2266867969	 0.1279
H	-0.8044327693	-0.3848396197	 0.2064059074	 0.232443
H	 0.8944342092	 0.4124556174	-2.0327978425	 0.106972
H	 2.3467746279	-1.6172568263	-0.8569629875	 0.120777
H	 0.8202061537	-3.3577740689	-2.5307170819	 0.128849
90.7078	124.6541	174.5956	202.5958	271.8311	307.4241	524.5986	567.6703	659.1486	688.146	786.3772	817.8146	841.4201	865.1182	926.7822	950.2016	1018.7401	1027.86	1069.8095	1131.922	1157.2875	1181.2724	1208.6299	1231.7802	1252.5212	1335.3039	1340.7312	1458.4121	1489.3432	1500.1458	1522.9409	1907.9345	2958.6974	3035.7625	3061.0045	3109.513	3191.5758	3209.0525	3529.3545
CNC1C2OC2C1=O	CN[C@H]1[C@H]2O[C@H]2C1=O	
InChI=1S/C5H7NO2/c1-6-2-3(7)5-4(2)8-5/h2,4-6H,1H3	InChI=1S/C5H7NO2/c1-6-2-3(7)5-4(2)8-5/h2,4-6H,1H3/t2-,4-,5+/m1/s1
