16
gdb 78583	5.26385	1.0782	1.02917	1.6991	75.95	-0.2369	0.0238	0.2606	1154.8001	0.12323	-400.6011	-400.593507	-400.592563	-400.633028	29.717	
O	 0.0646467329	 1.4926377459	-0.1080578242	-0.439614
C	 0.0759548532	 0.0920402698	-0.0305183651	 0.116919
C	 0.0027969269	-0.5754971824	 1.3521335789	-0.065334
C	-1.499273453	-0.2204250569	 1.5518845589	-0.067106
C	-1.7870666213	-1.7023466559	 1.8269387745	-0.173496
C	-3.0835978484	-2.2581622922	 1.5019918742	 0.327457
C	-4.1676140402	-2.7075419971	 1.2387923562	-0.428457
N	-0.7074533851	-1.8085665108	 0.7271395935	-0.177405
C	-1.3068349724	-0.5455552974	 0.0402956213	-0.031823
H	 0.9702835997	 1.8092780489	-0.0353451671	 0.289485
H	 0.7730039061	-0.3749969721	-0.7386161185	 0.085077
H	 0.7648336323	-0.7129901328	 2.1219346554	 0.081312
H	-1.9399839931	 0.669343107	 2.0060796051	 0.084694
H	-1.4214606751	-2.0957588053	 2.7825675379	 0.100595
H	-5.1222959608	-3.1097211869	 1.0049023601	 0.198204
H	-2.0740496417	-0.6422701617	-0.7265852012	 0.099494
113.4282	140.5528	217.8592	274.5135	305.5172	408.4676	472.9013	518.6161	616.9912	625.8047	652.6459	727.9648	811.8945	821.8043	853.2761	867.3254	896.3257	931.9327	941.8437	1023.6549	1038.3416	1068.7107	1111.8395	1133.4102	1151.5559	1165.6555	1168.801	1195.0164	1221.4302	1247.5675	1290.1109	1318.7511	1372.6428	1438.5259	2232.1	3026.3033	3041.5352	3085.5295	3099.2317	3133.8805	3503.468	3824.0315
OC1C2C3C(C#C)N2C13	O[C@H]1[C@H]2[C@@H]3[C@@H](C#C)N2[C@H]13	
InChI=1S/C7H7NO/c1-2-3-4-5-7(9)6(4)8(3)5/h1,3-7,9H	InChI=1S/C7H7NO/c1-2-3-4-5-7(9)6(4)8(3)5/h1,3-7,9H/t3-,4-,5+,6-,7-/m1/s1
