17
gdb 44506	4.12695	1.35645	1.16622	0.8299	71.13	-0.2435	-0.0244	0.2191	1033.7608	0.136962	-421.78782	-421.780966	-421.780021	-421.820076	27.304	
O	 0.0070123632	-0.0205278272	 0.5135250646	-0.310001
C	-0.0126323496	 1.1109712316	 0.0932554503	 0.381211
C	-1.3205025017	 1.8520953665	-0.1709750823	-0.362152
C	-1.1483816795	 3.1504404378	-0.9452257629	-0.006683
C	-0.0675707464	 3.2634988563	-2.060172806	 0.023807
O	-0.0837294594	 4.7295379317	-1.8883776793	-0.308478
C	-0.0590092234	 4.1740526142	-0.5201089142	 0.028765
C	 1.0442947282	 3.1779419835	-0.9736754173	-0.006683
C	 1.2689467851	 1.8845734184	-0.2045728065	-0.362152
H	-1.9946001311	 1.1618998809	-0.6905723292	 0.139034
H	-1.7922940679	 2.0478693172	 0.8016347431	 0.138535
H	-2.0933216375	 3.6249116952	-1.217664419	 0.088868
H	-0.075918423	 2.8746330221	-3.0794528499	 0.095422
H	-0.0570658539	 4.8799869778	 0.3120792856	 0.094071
H	 1.9696538325	 3.6758713833	-1.270380929	 0.088868
H	 1.7607525134	 2.092433245	 0.7555344856	 0.138535
H	 1.9464343533	 1.2113301296	-0.7417066728	 0.139034
24.7565	220.702	326.636	420.1285	420.5727	446.3074	498.9493	639.6484	712.7943	735.0713	738.9905	756.1916	862.3958	863.7285	882.8963	898.4295	970.5042	1000.5999	1020.7164	1034.4934	1072.389	1146.9232	1158.3888	1160.9018	1181.2637	1193.0995	1222.5294	1257.8469	1266.7698	1276.0445	1299.7844	1328.0205	1362.1779	1406.752	1442.187	1445.4002	1820.992	3025.3719	3027.7535	3071.4673	3071.8002	3093.473	3095.5137	3103.9922	3113.9717	25.1683	220.5668	326.6003	420.1311	420.5147	446.2959	498.9493	639.5608	712.8886	735.0171	738.9642	756.0976	862.419	863.7189	882.9002	898.4195	970.475	1000.6363	1020.7281	1034.5114	1072.4396	1146.9407	1158.4058	1160.9053	1181.2523	1193.1035	1222.5331	1257.8468	1266.7622	1276.0414	1299.7599	1327.9578	1362.1867	1406.7658	1442.2849	1445.4885	1821.0063	3025.3603	3027.741	3071.4577	3071.7924	3093.4868	3095.5493	3103.9396	3113.9384
O=C1CC2C3OC2C3C1	O=C1C[C@@H]2[C@H]3O[C@@H]2[C@H]3C1	
InChI=1S/C7H8O2/c8-3-1-4-6-5(2-3)7(4)9-6/h4-7H,1-2H2	InChI=1S/C7H8O2/c8-3-1-4-6-5(2-3)7(4)9-6/h4-7H,1-2H2/t4-,5+,6-,7+
