18
gdb 98775	4.00677	1.11725	0.97091	2.4606	73.79	-0.234	0.0499	0.2839	1245.8545	0.147597	-439.081457	-439.072782	-439.071838	-439.115628	31.078	
C	-0.0130529585	 1.2242420857	 0.2751647975	-0.230097
O	-0.0615309545	-0.1800452817	 0.0140311271	-0.254603
C	-1.3152738172	-0.6937658302	-0.0675544823	 0.49077
O	-2.3331132482	-0.0565655468	 0.0829050285	-0.418067
N	-1.2614002614	-2.0191157439	-0.3942075338	-0.138409
C	-0.1896763953	-3.0081278912	-0.139740237	-0.185601
C	-1.2790605263	-4.0535563931	 0.1436351806	-0.084802
C	-2.2034145918	-3.56488567	 1.2338135951	-0.280633
C	-2.3228300164	-2.9809435998	-0.143948353	-0.001947
H	 1.0460331437	 1.4787347959	 0.3294923179	 0.12767
H	-0.4976614594	 1.7861416965	-0.5277391305	 0.138219
H	-0.5112423454	 1.4638605777	 1.2182067143	 0.137563
H	 0.4010599618	-3.2106932126	-1.0380698318	 0.120778
H	 0.4806554123	-2.7532212948	 0.6870612762	 0.120784
H	-1.2552852259	-5.0800613791	-0.1927534217	 0.10379
H	-2.9906424109	-4.2594007189	 1.5097649587	 0.12156
H	-1.8265596933	-2.9562945053	 2.0516720875	 0.117903
H	-3.2196812033	-2.9971149184	-0.7489347033	 0.115122
72.4044	81.1764	111.5316	157.912	167.7087	315.3787	347.998	439.0661	467.1821	555.8484	757.696	771.0097	790.1234	809.5919	848.8563	931.5337	955.1044	986.0195	994.0313	1047.5874	1064.366	1077.6086	1107.2208	1145.4736	1162.9355	1182.6922	1188.4942	1206.9195	1223.0971	1270.1827	1310.2185	1361.3289	1402.4342	1477.753	1480.0996	1481.7398	1504.3338	1515.7046	1809.0254	3045.4407	3048.308	3094.0407	3116.5337	3121.1462	3151.5274	3200.9684	3207.6875	3222.5513
COC(=O)N1CC2CC12	COC(=O)N1C[C@H]2C[C@@H]12	
InChI=1S/C6H9NO2/c1-9-6(8)7-3-4-2-5(4)7/h4-5H,2-3H2,1H3	InChI=1S/C6H9NO2/c1-9-6(8)7-3-4-2-5(4)7/h4-5H,2-3H2,1H3/t4-,5-/m1/s1
