17
gdb 85757	3.43424	1.19555	1.02984	1.5434	73.17	-0.2572	0.0446	0.3018	1163.7566	0.135459	-421.778484	-421.770325	-421.76938	-421.811296	31.466	
O	 0.0868619581	 1.3868022402	-0.1115426199	-0.438725
C	 0.0388914193	-0.025371062	-0.0798564709	 0.12707
C	 0.7420212925	-0.6520235806	 1.1529152058	-0.270995
C	 0.0093689055	-1.9958065774	 1.4270543499	-0.206046
C	 0.06478949	-2.4437520071	 2.811790153	 0.319179
C	 0.1076575067	-2.8096264725	 3.9557737894	-0.446312
C	-1.4036741594	-1.7300940883	 0.900094908	 0.041371
O	-1.9408456002	-0.4657555186	 1.2953071288	-0.261489
C	-1.368741647	-0.5943133917	-0.021555285	-0.007943
H	-0.4173325448	 1.7007086816	 0.6488854793	 0.288847
H	 0.5179717535	-0.3532737077	-1.0100840077	 0.0947
H	 1.8138810076	-0.7868384769	 1.0013862563	 0.11633
H	 0.606333255	 0.0118881798	 2.0093533837	 0.124429
H	 0.4387768815	-2.7802415846	 0.7874884815	 0.110536
H	 0.1438744856	-3.1307894579	 4.9672190834	 0.197258
H	-2.1198484148	-2.5437632192	 0.8271861847	 0.107933
H	-2.0606085091	-0.4664013269	-0.8495184003	 0.103856
81.5228	126.4759	154.3378	266.8456	337.7538	380.7338	406.1696	464.5393	526.0259	571.1764	620.048	639.0244	646.4068	670.3894	825.8745	837.3258	875.6988	907.7859	964.8934	1015.6277	1025.547	1060.6949	1098.7801	1104.704	1107.8415	1163.6535	1247.702	1256.3253	1290.0699	1307.3353	1319.3692	1327.8485	1359.0864	1432.4021	1435.6377	1485.2194	2239.0467	3006.9489	3046.731	3082.9034	3134.3927	3152.0024	3164.4404	3504.0494	3788.3924
OC1CC(C#C)C2OC12	O[C@H]1C[C@@H](C#C)[C@H]2O[C@@H]12	
InChI=1S/C7H8O2/c1-2-4-3-5(8)7-6(4)9-7/h1,4-8H,3H2	InChI=1S/C7H8O2/c1-2-4-3-5(8)7-6(4)9-7/h1,4-8H,3H2/t4-,5+,6-,7+/m1/s1
