18
gdb 120725	2.69751	1.26307	1.07028	6.0664	68.59	-0.2516	0.0087	0.2603	1172.5666	0.148135	-476.232425	-476.223824	-476.22288	-476.265721	32.171	
N	 0.1619478148	 2.1651915397	 0.5776229972	-0.504607
H	 0.7892170831	 2.1771199319	 1.3737967595	 0.262743
H	 0.02375176	 3.9079525231	 0.4479463837	 0.334432
H	 0.5854132763	 1.5998021472	-0.1495187061	 0.244634
C	-1.1523265173	 1.6181204339	 0.9771572042	-0.155658
C	-2.1146997952	 2.7363646859	 1.4108564351	-0.256311
C	-1.6566207221	 3.4965258142	 2.6510847027	 0.048559
O	-0.2491215202	 3.5838806219	 2.9084802898	-0.257844
C	-0.9461412046	 4.7968054916	 2.6114052542	-0.076018
C	-0.6491599959	 5.5498755719	 1.329664227	 0.3777
O	-0.9145514819	 6.7254874288	 1.273743848	-0.333463
O	-0.1241507103	 4.8881007705	 0.3041987028	-0.393232
H	-1.5892567181	 1.1106151935	 0.1120379094	 0.117732
H	-1.0572609314	 0.8683249464	 1.7735386974	 0.110939
H	-2.2514297693	 3.4187209644	 0.567111887	 0.138749
H	-3.0937324013	 2.2945499066	 1.6233282159	 0.111541
H	-2.2344925896	 3.3037067609	 3.5551939358	 0.108682
H	-1.0642986471	 5.4766880974	 3.4518283564	 0.121422
92.0067	153.577	159.7189	207.5055	216.7313	289.0854	359.2673	409.2091	416.1031	471.9656	570.0839	676.6862	760.9375	773.4417	826.1378	874.7835	898.6947	899.7167	941.0174	997.841	1029.7114	1049.4687	1100.2523	1110.3326	1146.0787	1195.8157	1254.5207	1278.9614	1315.269	1347.6268	1370.9641	1378.7287	1406.7395	1421.3756	1445.4823	1490.704	1499.9188	1638.0677	1833.0571	3016.7748	3053.5092	3078.4784	3084.978	3095.1528	3111.7439	3151.4239	3519.4924	3604.394
[NH3+]CCC1OC1C([O-])=O	NCC[C@H]1O[C@H]1C(=O)O	
InChI=1S/C5H9NO3/c6-2-1-3-4(9-3)5(7)8/h3-4H,1-2,6H2,(H,7,8)	InChI=1S/C5H9NO3/c6-2-1-3-4(9-3)5(7)8/h3-4H,1-2,6H2,(H,7,8)/t3-,4-/m1/s1
