15
gdb 30547	4.85655	0.91918	0.77292	12.3179	96.76	-0.1326	-0.0514	0.0812	1388.5941	0.112569	-450.101956	-450.093352	-450.092408	-450.135292	31.855	
N	 0.0840723955	 1.307110208	-0.0305261498	-0.524446
C	-0.0120893959	-0.0320741773	-0.0137508659	 0.16492
N	-1.1469713813	-0.6951036369	-0.0021035932	-0.356348
H	-2.037075855	-0.216684385	 0.0065815869	 0.273431
C	-1.1462871449	-2.0974845792	-0.0040799144	 0.361554
C	-2.2298848217	-2.9153561601	 0.0059319308	-0.1718
O	-1.7500034861	-4.1863983961	 8.4082*^-6	-0.226699
C	-0.3023913062	-4.0671498618	-0.0139317851	 0.428169
N	 0.4462869495	-5.0995472877	-0.0218944372	-0.609235
N	 0.0343060259	-2.7467773827	-0.0159795683	-0.454805
H	 0.9904631084	 1.7344437371	 0.0392372989	 0.297863
H	-0.7164202026	 1.9107991585	 0.0583455123	 0.279517
H	 0.8774451242	-0.6529660836	-0.0286392185	 0.220777
H	-3.2964105043	-2.7627852264	 0.0157120058	 0.117282
H	-0.1284665057	-5.9389135666	-0.0170193108	 0.19982
103.5335	118.2831	145.2542	189.2131	217.6344	388.4601	397.8791	428.5105	449.4737	523.8227	560.4003	624.7734	639.0625	702.2477	710.5991	728.1943	752.9263	803.1707	928.224	1019.3854	1049.7414	1098.1451	1118.7753	1213.5149	1277.7537	1301.6425	1348.0019	1421.0206	1449.556	1615.9906	1653.8421	1726.2134	1747.6045	3211.1424	3264.6654	3521.0952	3607.0515	3616.1149	3739.1832
NC=[NH+]C1=COC(=N)[N-]1	[NH2]=CNc1coc([NH])n1	
InChI=1S/C4H5N4O/c5-2-7-3-1-9-4(6)8-3/h1-2H,(H3-,5,6,7,8)/q-1/p+1	InChI=1S/C4H6N4O/c5-2-7-3-1-9-4(6)8-3/h1-2,6H,5H2,(H,7,8)
