19
gdb 55968	2.98266	1.06885	0.92051	3.2226	76.7	-0.243	-0.0269	0.2161	1333.3361	0.156552	-423.059947	-423.05038	-423.049435	-423.096269	33.946	
C	 0.6081293288	 1.1045590809	 0.3089722389	-0.487135
C	-0.2366894286	-0.1447399164	 0.2087964622	 0.404717
O	-0.7729936842	-0.6533872197	 1.1660217568	-0.311666
C	-0.3710175999	-0.7842415052	-1.1799276118	-0.326564
C	 0.1136461664	-2.2320441276	-1.1443728638	-0.063689
C	 0.0844151672	-3.1412793603	-2.4158118215	-0.271018
C	 1.5382395647	-3.6213842371	-2.1111218622	-0.332548
C	 1.6330275625	-2.4507532471	-1.121409853	 0.392631
O	 2.5380840314	-1.8184154097	-0.6539254808	-0.302245
H	 1.6400758621	 0.8390611247	 0.0496289511	 0.16784
H	 0.2766696291	 1.8593018676	-0.4130154255	 0.13171
H	 0.5719815859	 1.5085751357	 1.3212670051	 0.139331
H	-1.4342534634	-0.7596704787	-1.4481120146	 0.13103
H	 0.1781102762	-0.2115518396	-1.9341161459	 0.103118
H	-0.3479249768	-2.7402923765	-0.2899907229	 0.1284
H	-0.6884413785	-3.9100664267	-2.4376209149	 0.114744
H	 0.0326922048	-2.5568728984	-3.3377565799	 0.114838
H	 1.5683614813	-4.5866019076	-1.5954650134	 0.136401
H	 2.2700846808	-3.6334161284	-2.9217760937	 0.130103
18.3535	63.5679	92.8267	148.0891	179.4719	213.4741	304.1131	370.1973	430.6957	509.3549	535.9235	589.2797	698.0466	734.6573	756.8968	807.9235	868.6584	914.9338	928.9678	966.305	995.9943	1039.109	1079.6954	1093.7276	1127.1548	1170.8349	1193.1383	1207.2717	1227.6836	1251.8977	1268.6462	1307.0712	1355.7923	1378.5308	1443.1342	1462.3056	1472.1752	1475.801	1492.8774	1812.4671	1877.4422	3032.1184	3036.4675	3054.9758	3062.0273	3074.7546	3087.5728	3096.6926	3119.0687	3137.3586	3152.7699
CC(=O)CC1CCC1=O	CC(=O)C[C@H]1CCC1=O	
InChI=1S/C7H10O2/c1-5(8)4-6-2-3-7(6)9/h6H,2-4H2,1H3	InChI=1S/C7H10O2/c1-5(8)4-6-2-3-7(6)9/h6H,2-4H2,1H3/t6-/m1/s1
