16
gdb 14435	4.34657	2.20714	1.89551	1.4544	68.87	-0.2199	0.0035	0.2235	751.8428	0.131143	-346.565027	-346.558752	-346.557808	-346.594924	25.723	
C	-0.0124812605	 1.4687672188	-0.0603657669	-0.495891
C	-0.0697606265	-0.0215626934	-0.0292661817	 0.477638
O	 0.7675622163	-0.7328462538	-0.9133120236	-0.330842
C	-0.1015005627	-1.936957211	-0.73480235	 0.044409
C	 0.5756171519	-2.7529208773	 0.3351752821	-0.10674
C	 0.4738006328	-2.06994836	 1.4859037692	-0.05711
C	-0.3655194386	-0.8678904264	 1.2825177132	-0.173101
C	-1.1464169742	-1.0479653358	-0.0040645522	-0.214388
H	 0.9943672251	 1.8153587339	 0.1961770565	 0.137066
H	-0.2590101755	 1.8492507505	-1.0569978763	 0.131024
H	-0.7152883678	 1.8961985111	 0.6603304846	 0.124145
H	-0.3252508389	-2.390433828	-1.6986275183	 0.081313
H	 1.2007045551	-3.6136844106	 0.1391986125	 0.100826
H	 0.9928630861	-2.2902897737	 2.4107493303	 0.101322
H	-0.8060650724	-0.3174241335	 2.1051485643	 0.083936
H	-2.2223949003	-1.0116613109	-0.1213031535	 0.096393
200.1785	214.9048	294.4516	413.6298	442.369	589.1635	621.8421	664.1691	711.9491	763.5357	805.5652	825.1139	855.2806	876.701	912.8869	927.6696	945.7035	976.873	1005.7486	1023.5361	1062.8449	1094.7467	1123.469	1176.3776	1204.8426	1258.0096	1278.2907	1303.3084	1361.0314	1398.9705	1444.1635	1474.7825	1497.9745	1623.6248	3034.7853	3099.5096	3116.1359	3134.9501	3181.4241	3189.9206	3203.8129	3231.0707
CC12OC3C=CC1C23	C[C@@]12O[C@H]3C=C[C@@H]1[C@@H]23	
InChI=1S/C7H8O/c1-7-4-2-3-5(8-7)6(4)7/h2-6H,1H3	InChI=1S/C7H8O/c1-7-4-2-3-5(8-7)6(4)7/h2-6H,1H3/t4-,5+,6-,7-/m1/s1
