20
gdb 95720	2.88991	1.1896	0.9227	4.5652	75.6	-0.2377	0.0335	0.2712	1270.9958	0.172971	-440.331341	-440.322627	-440.321683	-440.364727	33.543	
O	-0.0799341549	 1.4678187515	 0.0022209355	-0.434355
C	 0.0242220805	 0.0492110621	-0.0086551989	 0.127457
C	 0.8836323467	-0.4436450027	 1.1620762712	-0.208393
C	 1.0721591339	-1.9670662922	 1.2093753502	-0.183115
N	-0.086560099	-2.7027517389	 1.6882268406	-0.282978
C	-1.3272812696	-2.7914568651	 1.1162344067	 0.373968
O	-2.2079979463	-3.4613904223	 1.6250122849	-0.367695
C	-1.5447831439	-2.0003894368	-0.1684292011	-0.320316
C	-1.412209881	-0.4737216718	-0.0087584928	-0.190666
H	 0.8097034891	 1.8354943113	 0.0082590154	 0.279909
H	 0.5048192379	-0.2865931646	-0.9460119942	 0.06136
H	 1.8768138276	 0.0186490296	 1.0736388636	 0.085703
H	 0.4472488212	-0.0967449175	 2.1056386742	 0.113417
H	 1.3807696561	-2.331384068	 0.2186551912	 0.113352
H	 1.8939598562	-2.2058379014	 1.8892001281	 0.116164
H	 0.0012834277	-3.2302426515	 2.5435037656	 0.245847
H	-0.8547275107	-2.3550474571	-0.9461139775	 0.108604
H	-2.555106453	-2.253613375	-0.4922502762	 0.130405
H	-1.9154862961	-0.1438742718	 0.9075758596	 0.1163
H	-1.9282297824	 0.0163609723	-0.8401646859	 0.115033
66.4067	134.7602	208.8806	271.8234	278.6544	294.7652	336.4618	382.6417	439.5035	486.2824	509.7099	547.4531	601.8424	722.5472	740.655	818.7161	893.3453	901.2101	942.3782	1003.4505	1041.0066	1080.7313	1083.9103	1103.0799	1131.3808	1172.5768	1211.75	1254.8722	1276.6587	1296.9733	1332.1473	1345.4691	1351.1178	1375.7007	1401.2428	1415.0645	1439.5699	1464.8172	1475.5288	1480.9784	1497.2723	1504.5105	1786.5623	2927.391	3000.8377	3010.6809	3023.1928	3044.6533	3074.9242	3088.6119	3091.6744	3123.3055	3622.2572	3813.6117
OC1CCNC(=O)CC1	O[C@H]1CCNC(=O)CC1	
InChI=1S/C6H11NO2/c8-5-1-2-6(9)7-4-3-5/h5,8H,1-4H2,(H,7,9)	InChI=1S/C6H11NO2/c8-5-1-2-6(9)7-4-3-5/h5,8H,1-4H2,(H,7,9)/t5-/m1/s1
