18
gdb 86172	2.82879	1.22559	0.94548	3.3786	81.85	-0.2557	-0.0501	0.2056	1259.4914	0.146824	-401.98259	-401.973601	-401.972657	-402.016601	32.836	
C	 0.157568185	 1.5512069235	-0.1353178242	-0.393227
C	 0.0052516088	 0.042452688	 0.0532183078	 0.097084
O	 0.5779799517	-0.6483568544	-1.0594384463	-0.287074
C	 1.4346174513	-1.7081868828	-0.6363264338	 0.028683
C	 2.7632421656	-1.6424664492	-1.3815555066	-0.399275
C	 1.5332656047	-1.5080368465	 0.869225125	 0.188156
C	 0.720463119	-0.5202746579	 1.2492820082	-0.217888
C	 2.3634551331	-2.303264297	 1.6996730062	 0.219071
N	 3.054166747	-2.9737911599	 2.3443402485	-0.335745
H	 1.2145589937	 1.8295068699	-0.1650745739	 0.126544
H	-0.3094232698	 1.8536539926	-1.0762564567	 0.136278
H	-0.3298698891	 2.0930316936	 0.6814330449	 0.119191
H	-1.0708384355	-0.1979133174	 0.1182687926	 0.094842
H	 0.9522011848	-2.6771988665	-0.8464882224	 0.096881
H	 3.273527375	-0.6981840391	-1.1722552732	 0.123709
H	 3.4124797274	-2.4706914813	-1.0816288541	 0.135712
H	 2.5860659655	-1.7130296064	-2.4578669384	 0.133655
H	 0.5694795618	-0.166685609	 2.2608361366	 0.133403
63.9485	110.4245	133.6269	221.2037	228.5124	256.727	302.9711	372.7745	432.4572	485.2656	545.3548	563.7718	640.2214	712.4536	799.1928	850.9463	890.1665	898.7403	966.6512	1029.7552	1069.6488	1097.9232	1103.9194	1126.9203	1139.9727	1202.643	1274.6022	1327.0665	1345.9648	1364.3151	1374.4577	1401.8241	1404.959	1483.5301	1486.1574	1493.6175	1496.6102	1689.0753	2339.2464	2943.268	2963.4448	3042.8464	3044.6945	3118.6849	3122.6122	3127.8614	3128.6598	3228.6789
CC1OC(C)C(=C1)C#N	C[C@H]1O[C@@H](C)C(=C1)C#N	
InChI=1S/C7H9NO/c1-5-3-7(4-8)6(2)9-5/h3,5-6H,1-2H3	InChI=1S/C7H9NO/c1-5-3-7(4-8)6(2)9-5/h3,5-6H,1-2H3/t5-,6+/m1/s1
