17
gdb 111967	3.34128	1.18789	0.92797	3.3997	70.99	-0.2549	-0.0322	0.2226	1245.3268	0.134003	-458.961767	-458.952814	-458.95187	-458.996049	32.148	
C	-0.1335358943	 1.5479688367	 0.0751229735	-0.237416
O	 0.0661506324	 0.1504837441	 0.0593236113	-0.230674
C	-1.1168038361	-0.5963488612	-0.0500704674	-0.013927
C	-1.6159270919	-0.8416320541	-1.4599991887	-0.104692
C	-1.9342219482	-2.120069089	-1.6795523507	-0.098714
C	-1.7593411494	-2.9722153671	-0.4476897123	 0.023203
O	-1.1576047702	-4.2224245466	-0.6705492432	-0.441807
C	-0.8772323026	-2.0482037131	 0.4093725145	 0.323791
O	-0.0522138841	-2.4449468203	 1.1854259069	-0.300232
H	 0.8468373739	 2.008103562	 0.2158039808	 0.137909
H	-0.5649601739	 1.9200668423	-0.8658844452	 0.108829
H	-0.7928848384	 1.851599881	 0.9027745066	 0.11082
H	-1.9063554233	-0.1534916959	 0.5856608446	 0.095841
H	-1.6931182946	-0.0410522476	-2.1863065915	 0.112498
H	-2.306803965	-2.5325327842	-2.609645328	 0.119352
H	-2.7292559213	-3.1041919581	 0.0676947191	 0.098995
H	-0.4879591328	-4.321624939	 0.0215329597	 0.296221
59.4531	72.1406	162.6324	186.2823	251.1579	277.1788	331.6218	343.872	353.3596	489.961	561.3216	634.7722	681.7701	739.2982	767.438	916.5654	960.8535	979.8785	1002.1546	1018.29	1083.2825	1120.7002	1160.1586	1175.3119	1182.2377	1212.6793	1227.4333	1256.0131	1333.279	1354.1821	1384.4088	1406.8908	1478.965	1491.1429	1506.0014	1665.1628	1862.9266	2923.3738	2928.1814	2979.1437	3028.4363	3123.2743	3194.7945	3217.2514	3735.3552
COC1C=CC(O)C1=O	CO[C@H]1C=C[C@@H](O)C1=O	
InChI=1S/C6H8O3/c1-9-5-3-2-4(7)6(5)8/h2-5,7H,1H3	InChI=1S/C6H8O3/c1-9-5-3-2-4(7)6(5)8/h2-5,7H,1H3/t4-,5+/m1/s1
