18
gdb 12536	3.28724	1.99451	1.31668	1.8939	70.33	-0.2459	0.0175	0.2634	945.4048	0.154009	-384.939406	-384.931699	-384.930754	-384.971417	28.993	
C	-0.3227192541	 1.394769522	 0.0212204941	-0.39964
C	 0.0999904838	-0.0626514988	-0.0028218644	 0.209611
O	 0.8180152191	-0.2738044368	-1.193024465	-0.234242
C	 0.8786491347	-1.6016717314	-1.6664739667	-0.132577
C	 1.4071995911	-2.6567040744	-0.7331748212	-0.064341
C	 1.4579572355	-2.663958377	 0.5974245331	-0.064328
C	 1.0024594148	-1.6194320373	 1.5797669539	-0.13257
O	 0.9063629949	-0.2864755617	 1.1269227788	-0.234232
H	 0.5686352387	 2.0265722104	-0.0095309995	 0.137572
H	-0.9469746339	 1.6209895696	-0.846019909	 0.11999
H	-0.8787163704	 1.6113934481	 0.9360512626	 0.119994
H	-0.7783582428	-0.7347641897	 0.0269414524	 0.051992
H	-0.1213021361	-1.9252053771	-2.0147937787	 0.100818
H	 1.5118863903	-1.5594935354	-2.5598518888	 0.119043
H	 1.7381558572	-3.5538313632	-1.2551021794	 0.091521
H	 1.8273403078	-3.5665804108	 1.0828213225	 0.091522
H	 0.0318542169	-1.94725285	 1.9997235734	 0.100821
H	 1.7019634124	-1.5867300567	 2.4226876517	 0.119046
80.7748	158.8775	209.7578	235.9197	319.253	366.2805	404.8055	408.193	551.2762	618.7406	695.0537	804.2736	818.5229	880.4937	886.0212	955.1974	1007.5537	1023.2552	1037.9243	1063.2225	1122.344	1147.4827	1156.4846	1182.4728	1266.5994	1278.1031	1302.1983	1383.472	1385.4077	1415.4786	1415.6858	1422.2633	1423.4889	1480.2215	1480.8124	1484.8846	1491.3247	1747.8362	2919.1476	2920.6582	2930.1128	3056.4122	3057.9765	3058.81	3123.3099	3137.7103	3139.2945	3146.9313
CC1OCC=CCO1	C[C@H]1OCC=CCO1	
InChI=1S/C6H10O2/c1-6-7-4-2-3-5-8-6/h2-3,6H,4-5H2,1H3	InChI=1S/C6H10O2/c1-6-7-4-2-3-5-8-6/h2-3,6H,4-5H2,1H3
