15
gdb 28076	5.60358	0.95932	0.82035	3.693	71.57	-0.1873	0.0163	0.2036	1312.2113	0.115066	-450.194011	-450.185837	-450.184893	-450.226872	30.29	
N	-0.0768590151	 1.381893772	 0.1716536148	-0.597956
C	-0.0302822994	-0.00375563	 0.0513659175	 0.403612
N	-1.0715240383	-0.8078161574	 0.0583766262	-0.391212
C	-0.5342996655	-2.0766742686	 0.0145983646	 0.362462
N	-1.4096727854	-3.1634931531	 0.0102615217	-0.393257
C	-1.0432639791	-4.4730036543	-0.0356140289	 0.137436
O	 0.1014245667	-4.8751782661	-0.0812949482	-0.319065
C	 0.829944191	-2.0520347248	-0.0331289042	-0.186689
N	 1.1404537484	-0.6905989636	-0.0104075236	-0.287598
H	 0.4708869711	 1.8709369971	-0.5263011988	 0.249924
H	-1.0382721368	 1.6962418343	 0.1369027522	 0.262123
H	-2.3893679576	-2.9258583007	 0.0454441466	 0.259512
H	-1.9237411948	-5.143574775	-0.0268008508	 0.078519
H	 1.5665333794	-2.8290991917	-0.0961610694	 0.15753
H	 2.0623821754	-0.298579408	 0.0735918803	 0.264661
71.2541	162.5392	200.1937	230.6206	278.3174	292.6566	390.9981	441.3242	480.3669	580.9827	593.6746	653.4062	698.8019	723.1986	745.5532	795.1476	876.4879	1008.9552	1009.947	1018.3068	1097.9362	1137.279	1167.7281	1266.2845	1291.6826	1370.4079	1429.5337	1511.1707	1545.6844	1607.2788	1634.0923	1657.5526	1791.1821	2950.0328	3332.1352	3531.3385	3629.0526	3630.2486	3675.0002
NC1=NC(NC=O)=CN1	Nc1nc(NC=O)c[nH]1	
InChI=1S/C4H6N4O/c5-4-6-1-3(8-4)7-2-9/h1-2H,(H,7,9)(H3,5,6,8)	InChI=1S/C4H6N4O/c5-4-6-1-3(8-4)7-2-9/h1-2H,(H,7,9)(H3,5,6,8)
