20
gdb 107564	3.26897	1.3247	1.09408	2.146	79.39	-0.2411	0.0302	0.2712	1172.9046	0.171912	-403.155055	-403.146617	-403.145673	-403.18815	32.29	
C	 0.129470657	 1.4751822965	 0.3115472175	-0.37912
C	 0.0573792856	-0.0115626812	-0.0551072926	-0.2457
C	-1.3543838846	-0.5383481828	-0.1431697101	 0.43803
C	-2.1274813299	-0.9416072247	 1.085539615	-0.343772
C	-1.6909630936	-1.9842887036	 0.0708594556	-0.122746
C	-2.7151692541	-2.6200050668	-0.8534565247	-0.178815
N	-3.4203312166	-1.7047761866	-1.7411478466	-0.269017
C	-3.0524688825	-0.5000517133	-1.8162192766	 0.115033
O	-2.0762946422	 0.1622033167	-1.1464314503	-0.267584
H	 1.1682144429	 1.816069842	 0.3496043615	 0.111673
H	-0.4018009809	 2.0822239888	-0.4259249562	 0.134455
H	-0.3242590664	 1.6623020336	 1.2902969546	 0.11706
H	 0.5559746887	-0.1836798862	-1.0171688618	 0.106472
H	 0.5951080571	-0.6104215908	 0.6889699275	 0.099197
H	-1.6237122169	-0.9043302254	 2.0454609939	 0.115708
H	-3.1818323911	-0.6853095862	 1.1149007765	 0.126433
H	-0.8681797521	-2.6309226648	 0.3631107856	 0.090505
H	-2.2112230149	-3.3611927819	-1.4872848973	 0.118251
H	-3.465888486	-3.1796412408	-0.2800236663	 0.112652
H	-3.5470570594	 0.1880049272	-2.499487545	 0.121286
93.0496	106.2138	155.048	203.3067	268.1687	356.8246	374.9833	398.0937	507.1629	551.6378	608.8463	671.8475	767.8028	799.5397	876.9366	878.8783	911.9062	939.387	956.1758	976.7247	990.0127	1027.4444	1049.5568	1085.7974	1106.4013	1121.6955	1139.3282	1183.244	1237.9492	1258.4508	1276.5663	1319.9462	1361.2762	1377.2313	1408.0855	1416.034	1425.8302	1476.1178	1484.1204	1494.5702	1496.8285	1510.3175	1742.5575	3013.6211	3028.5271	3037.249	3042.0738	3067.5872	3108.7558	3124.6797	3128.4799	3142.1865	3158.0458	3217.6684
CCC12CC1CN=CO2	CC[C@]12C[C@H]1CN=CO2	
InChI=1S/C7H11NO/c1-2-7-3-6(7)4-8-5-9-7/h5-6H,2-4H2,1H3	InChI=1S/C7H11NO/c1-2-7-3-6(7)4-8-5-9-7/h5-6H,2-4H2,1H3/t6-,7-/m0/s1
