18
gdb 19200	2.72159	2.64911	2.63345	0.3475	74.37	-0.2264	0.0126	0.239	724.0728	0.158102	-310.68355	-310.677678	-310.676734	-310.712937	25.5	
C	-0.0262444304	 1.52723592	 0.0108157075	-0.187634
C	 1.4266282438	 2.0656372267	-0.0007030967	-0.187634
C	 2.4188520618	 0.8415186809	-0.0169634916	-0.106179
C	 2.0758171335	 0.0263741428	 1.2189341722	-0.065746
C	 0.8272358516	-0.4363298548	 1.2288254592	-0.065745
C	 0.0186779085	-0.0479306087	 0.0020592907	-0.106178
C	 0.8027955376	-0.4232756864	-1.2444753918	-0.065745
C	 2.0513808097	 0.0394177807	-1.2543698305	-0.065746
H	-0.5645776273	 1.8671009589	 0.8999588349	 0.095791
H	-0.5820096647	 1.8764073831	-0.8638788189	 0.095791
H	 1.6084062515	 2.688122801	-0.8812457028	 0.095791
H	 1.6258368036	 2.6788205359	 0.8825912419	 0.095791
H	 3.4556696426	 1.1803828027	-0.0254192645	 0.057338
H	 2.7941997257	-0.1073436433	 2.0196044732	 0.088192
H	 0.3807013491	-1.0017530472	 2.0387215699	 0.088191
H	-0.9885880017	-0.4665555385	 0.0098036539	 0.057338
H	 0.3402850448	-0.9801644188	-2.0513129712	 0.088191
H	 2.7537898504	-0.0857737551	-2.0704428752	 0.088192
223.4163	359.0492	403.9616	446.9607	488.2432	641.3262	646.9093	696.9006	702.0708	730.6013	816.0957	833.4794	833.5105	918.8143	947.9276	948.2813	956.3114	961.0921	970.2632	1004.7203	1024.2251	1085.5356	1118.6475	1138.3795	1173.7433	1184.8656	1249.1801	1254.7395	1307.2398	1315.0518	1318.4361	1353.1438	1354.989	1385.6595	1487.9024	1506.8104	1653.2174	1697.4607	3046.2321	3058.3444	3084.5699	3096.0549	3098.7407	3104.2609	3179.6883	3181.3546	3203.7063	3206.7992
C1CC2C=CC1C=C2	C1C[C@H]2C=C[C@@H]1C=C2	
InChI=1S/C8H10/c1-2-8-5-3-7(1)4-6-8/h1-3,5,7-8H,4,6H2	InChI=1S/C8H10/c1-2-8-5-3-7(1)4-6-8/h1-3,5,7-8H,4,6H2/t7-,8+
