16
gdb 72861	3.08476	1.34259	1.1119	3.7588	69.19	-0.2739	-0.0033	0.2706	1095.838	0.123305	-437.853809	-437.845746	-437.844801	-437.886666	29.74	
C	-0.4210871206	 1.5957744829	-0.0075801164	-0.482906
C	-0.0567012416	 0.1415779371	 0.0646182901	 0.384692
C	-1.1257559026	-0.9583688902	 0.2200692949	-0.120594
O	-0.3132398398	-1.6463951211	 1.2131944245	-0.289624
C	 0.6917418367	-0.634955313	 1.1754764819	 0.010755
C	 1.7585553136	-0.9130198268	 0.0836871338	-0.061553
O	 0.9509702932	-0.2461531459	-0.9130613319	-0.321247
C	 3.0481082484	-0.2472733211	 0.2778015914	 0.286292
N	 4.0543332297	 0.2884920435	 0.4677174645	-0.31499
H	 0.4685579153	 2.2240653757	 0.0848652553	 0.145824
H	-0.8927304998	 1.8149954291	-0.9718311398	 0.142442
H	-1.1262585569	 1.8584572931	 0.7864578493	 0.131489
H	-2.077724809	-0.6304531048	 0.6538787292	 0.113059
H	-1.3032658939	-1.5623167253	-0.6748841734	 0.123031
H	 1.0115839352	-0.2815838247	 2.1562018693	 0.114148
H	 1.9075764622	-1.9758274586	-0.1327913828	 0.139181
73.3422	149.3969	197.0966	202.4209	270.0183	332.6647	379.7117	411.553	478.6139	554.7422	649.8745	752.4272	839.0268	886.3759	911.8298	952.3629	964.277	988.2981	1015.8815	1022.865	1045.9394	1139.633	1168.1544	1179.2809	1205.0094	1218.3655	1286.3914	1295.7081	1340.6949	1387.4	1416.1768	1479.3638	1488.4711	1504.5153	2355.2991	3029.6989	3040.4793	3066.0369	3094.8274	3109.6459	3114.127	3126.5669
CC12COC1C(O2)C#N	C[C@]12CO[C@H]1[C@@H](O2)C#N	
InChI=1S/C6H7NO2/c1-6-3-8-5(6)4(2-7)9-6/h4-5H,3H2,1H3	InChI=1S/C6H7NO2/c1-6-3-8-5(6)4(2-7)9-6/h4-5H,3H2,1H3/t4-,5-,6-/m0/s1
