18
gdb 78626	2.75663	1.67048	1.3421	3.1248	75.94	-0.2109	0.0051	0.216	1009.071	0.146441	-401.902555	-401.894427	-401.893483	-401.934787	31.515	
C	 0.00419022	 1.5373954449	-0.049308313	-0.345299
N	 0.0666886653	 0.0816077789	 0.0320609932	-0.118404
C	 1.0591184717	-0.6108525086	-0.8327696876	-0.157462
C	 1.3362643938	-1.6046890309	 0.3529086304	-0.160911
C	 2.2761545473	-0.5036703582	 0.9429866857	-0.2641
C	 2.4496389908	-0.015907102	-0.4583435976	 0.438597
O	 3.3714762279	 0.4125603182	-1.0948968126	-0.343189
C	 0.7425499355	-0.5347779746	 1.1855579547	 0.366162
C	 0.1445213633	-0.5583028139	 2.5576428329	-0.507192
H	 0.9767589538	 2.038946346	 0.0856507961	 0.115406
H	-0.3929035848	 1.8216711316	-1.0286187896	 0.129026
H	-0.6864359306	 1.9101031579	 0.7132805187	 0.123797
H	 0.7846801778	-0.8379882368	-1.8607496606	 0.092609
H	 1.4210466168	-2.6775607466	 0.4218043022	 0.123102
H	 3.0078156876	-0.6050150044	 1.7326003678	 0.108685
H	 0.1397129382	 0.4408068564	 3.0061113793	 0.131954
H	-0.8869710495	-0.9206898908	 2.5110348902	 0.137537
H	 0.715110125	-1.2179925472	 3.2178319299	 0.129684
135.0069	182.7138	199.6945	212.5498	226.7763	288.15	385.4226	452.2251	541.9201	588.0646	668.8116	696.0935	771.2748	783.6361	819.4654	827.8401	862.3307	910.0802	929.49	981.0651	1006.0692	1063.7945	1090.1813	1111.029	1145.4411	1158.8148	1165.6486	1190.6493	1207.6929	1230.967	1287.8168	1399.6983	1442.2073	1450.3152	1479.1498	1490.8192	1497.7086	1500.455	1873.511	2970.3474	3036.8813	3072.1938	3103.1466	3110.0383	3116.7598	3146.6539	3220.0083	3249.5415
CN1C2C3C(C2=O)C13C	CN1[C@@H]2[C@H]3[C@@H](C2=O)[C@@]13C	
InChI=1S/C7H9NO/c1-7-3-4(7)6(9)5(3)8(7)2/h3-5H,1-2H3	InChI=1S/C7H9NO/c1-7-3-4(7)6(9)5(3)8(7)2/h3-5H,1-2H3/t3-,4+,5-,7+/m1/s1
