18
gdb 97849	4.10211	0.69634	0.63245	2.521	78.69	-0.24	0.0218	0.2618	1752.7349	0.14658	-439.011852	-439.002016	-439.001072	-439.04862	34.396	
O	 0.0378543644	 1.5381481121	 0.5994468314	-0.401096
C	 0.0805500653	 0.141684743	 0.339898016	-0.196654
C	-1.2369266181	-0.4545692768	 0.1233968269	 0.125845
C	-2.3377453105	-0.901518936	-0.0827664075	 0.057852
C	-3.6500751262	-1.4779926747	-0.3045218792	-0.256739
N	-3.965364743	-1.8917120409	-1.6998998396	-0.307543
C	-4.6662569199	-3.1035371702	-1.2145859522	-0.21149
C	-3.8975448168	-2.9743876965	 0.1269372047	 0.159184
O	-2.7532555162	-3.766881564	 0.2581509548	-0.422058
H	-0.4748016051	 1.9457457977	-0.1063448456	 0.287103
H	 0.7275118311	-0.0864142959	-0.5224806502	 0.118992
H	 0.5559855136	-0.3096935252	 1.2178628598	 0.14409
H	-4.4203608765	-0.8340289005	 0.147003701	 0.091003
H	-4.5215669846	-1.2315960044	-2.2325231482	 0.220863
H	-5.751963036	-2.9915158229	-1.0824767967	 0.09266
H	-4.4667716634	-4.0090002875	-1.7966475086	 0.108156
H	-4.4765934365	-3.1102016299	 1.0409536179	 0.098219
H	-2.1607941117	-3.5584436475	-0.4741114146	 0.291613
21.4591	60.3681	84.6345	125.7711	166.8324	271.822	303.6084	339.1503	367.5403	401.7823	484.7551	528.3581	582.1705	694.9096	767.0058	845.6582	888.3884	943.3929	983.7748	991.9375	1003.0543	1047.8548	1063.1934	1128.4423	1143.5344	1179.9835	1194.2824	1214.9404	1242.5385	1290.3442	1329.2962	1358.0781	1359.724	1379.302	1417.2473	1444.6205	1490.1623	1512.1313	2351.7979	2975.4978	2977.3641	2998.4491	3063.2309	3072.9957	3112.5961	3527.6371	3793.3175	3816.4074
OCC#CC1NCC1O	OCC#C[C@H]1NC[C@H]1O	
InChI=1S/C6H9NO2/c8-3-1-2-5-6(9)4-7-5/h5-9H,3-4H2	InChI=1S/C6H9NO2/c8-3-1-2-5-6(9)4-7-5/h5-9H,3-4H2/t5-,6-/m1/s1
