13
gdb 25388	3.07039	1.43566	0.97825	2.422	73.05	-0.2537	-0.1062	0.1475	1102.9936	0.08979	-452.781599	-452.774325	-452.773381	-452.813855	26.413	
N	 0.0431056294	 1.3085404753	-0.1561377069	-0.525921
C	-0.027304768	 0.0507429532	-0.2455032226	 0.379003
O	 1.0957981667	-0.7116197311	-0.6243812548	-0.235528
C	 1.0061092235	-2.048181514	-0.7170045607	 0.32194
C	 2.2760025108	-2.7283976516	-1.1318939296	 0.106233
O	 3.3022348664	-2.1492877979	-1.3679937957	-0.233786
N	-0.0320765631	-2.7669744516	-0.4907604442	-0.303272
C	-1.1782064346	-2.0805528435	-0.1102670743	-0.021291
C	-1.2138498373	-0.7396872456	 0.0170526653	-0.123789
H	 0.9771853909	 1.647333716	-0.3873467812	 0.238173
H	 2.1534669006	-3.8262855686	-1.1939191951	 0.119538
H	-2.0489717959	-2.6983858125	 0.0790023772	 0.135244
H	-2.1046482393	-0.201766748	 0.3129041426	 0.143457
99.6822	127.1572	180.1062	227.9739	402.2941	420.6541	479.7819	523.6721	613.8475	676.0112	740.4762	748.0937	848.5792	882.6757	918.2942	973.9584	1010.4787	1027.4048	1028.3571	1122.0779	1222.6841	1244.6858	1340.0978	1385.7047	1426.2779	1598.8152	1665.1804	1759.5149	1820.3339	2967.5361	3197.5767	3235.2948	3498.015
N=C1OC(C=O)=NC=C1	[NH]C1=CCN=C(O1)C=O	
InChI=1S/C5H4N2O2/c6-4-1-2-7-5(3-8)9-4/h1-3,6H	InChI=1S/C5H5N2O2/c6-4-1-2-7-5(3-8)9-4/h1,3,6H,2H2
