21
gdb 92696	2.7513	1.21836	0.89299	2.6047	81.19	-0.2375	0.0221	0.2596	1324.5062	0.182228	-424.242837	-424.233421	-424.232477	-424.276557	36.218	
C	-0.0098583564	 1.5471555638	 0.0218422197	-0.503362
C	 0.0137369501	 0.0437253296	-0.0474353299	 0.329147
C	-0.0385672564	-0.6186715393	-1.2058731177	-0.160513
C	-0.0231191015	-2.119532181	-1.3315490254	-0.281728
C	-0.3477947793	-2.8058314472	 0.0003931739	 0.114376
O	-0.0254048913	-4.1899655592	-0.0120148839	-0.440244
C	 0.4502357677	-2.1584231026	 1.1240322742	-0.198934
C	 0.0786507424	-0.6863303149	 1.286832207	 0.004548
O	 1.0529279056	-0.1160811145	 2.1643533027	-0.432437
H	 0.9115364785	 1.9345181094	 0.4719094374	 0.131866
H	-0.1142867957	 1.9922028608	-0.9706907603	 0.123102
H	-0.8446882647	 1.9072680558	 0.6399131024	 0.114177
H	-0.0955108217	-0.0533278834	-2.1344465615	 0.078158
H	-0.7337060296	-2.4379156333	-2.107421619	 0.089229
H	 0.9654818392	-2.4667019468	-1.6657404913	 0.117508
H	-1.4234119884	-2.670730148	 0.2090843269	 0.062523
H	-0.5142455613	-4.6018060439	-0.7318149992	 0.278294
H	 0.2851813751	-2.6940260838	 2.0628301733	 0.106614
H	 1.5197894508	-2.2228501799	 0.8930604689	 0.114644
H	-0.9165639043	-0.6166893226	 1.7617604282	 0.069641
H	 0.7115310211	 0.7218895509	 2.4895399937	 0.283391
80.9786	150.629	191.2193	248.1062	279.9871	285.6223	299.8629	302.1017	344.3461	385.7831	437.3754	465.6691	511.0002	610.0797	672.5305	756.1378	835.6739	882.0631	935.7846	962.6843	1032.1727	1044.8109	1055.7511	1062.2407	1080.4564	1100.4183	1121.8736	1143.1012	1182.7362	1224.8074	1264.2589	1288.2968	1319.7895	1325.757	1339.9467	1374.2082	1396.4307	1403.2877	1425.0647	1445.3376	1479.9012	1480.943	1498.9148	1501.179	1734.7182	2930.387	2946.793	2998.8341	3008.0587	3027.8285	3049.0401	3064.5884	3100.874	3114.2198	3136.5783	3813.9738	3833.5627
CC1=CCC(O)CC1O	CC1=CC[C@@H](O)C[C@H]1O	
InChI=1S/C7H12O2/c1-5-2-3-6(8)4-7(5)9/h2,6-9H,3-4H2,1H3	InChI=1S/C7H12O2/c1-5-2-3-6(8)4-7(5)9/h2,6-9H,3-4H2,1H3/t6-,7-/m1/s1
