13
gdb 105154	2.56791	1.23303	0.96531	1.0763	64.7	-0.3091	-0.0474	0.2617	1169.3195	0.087364	-452.724364	-452.715634	-452.71469	-452.758425	30.182	
O	 0.0780929522	 1.366608267	-0.3342686004	-0.395149
C	 0.033587537	 0.1122206177	 0.3001070485	-0.139949
C	-1.3593503457	-0.4933317606	 0.2070248992	 0.180677
O	-1.701971361	-1.049686767	-1.0701381133	-0.243072
C	-1.5858872354	-1.9538793031	 0.0249183797	-0.141894
C	-0.4768613018	-2.8837637196	 0.0009624048	 0.317598
N	 0.3924194088	-3.6447969621	-0.0027885589	-0.310188
C	-2.4226174613	 0.2676468192	 0.8413115076	 0.286808
N	-3.2554891987	 0.8650719256	 1.3733835709	-0.308969
H	-0.0447514476	 1.2297952569	-1.2805701907	 0.304053
H	 0.7516108835	-0.6034216378	-0.1204545044	 0.13353
H	 0.2873272279	 0.2787036979	 1.3511913831	 0.147214
H	-2.5241854079	-2.3760282839	 0.3782899737	 0.169341
71.0318	110.8352	123.4572	153.6633	232.4382	272.3338	343.144	409.2951	420.5963	485.5084	554.0324	602.5138	643.4081	715.282	844.9764	943.4876	956.9639	1011.7172	1069.0364	1100.1061	1185.2224	1259.1022	1309.41	1385.5157	1416.5424	1427.4553	1483.6582	2364.0234	2368.352	3030.362	3101.1093	3147.6233	3806.1436
OCC1(OC1C#N)C#N	OC[C@]1(O[C@H]1C#N)C#N	
InChI=1S/C5H4N2O2/c6-1-4-5(2-7,3-8)9-4/h4,8H,3H2	InChI=1S/C5H4N2O2/c6-1-4-5(2-7,3-8)9-4/h4,8H,3H2/t4-,5+/m0/s1
