12
gdb 21811	6.99977	1.19053	1.11361	3.5108	56.07	-0.2867	-0.0626	0.2241	993.1454	0.083636	-410.818522	-410.811561	-410.810617	-410.851713	23.003	
O	-0.242736358	 0.4498253781	 0.8700236924	-0.208871
C	 0.0160183173	 1.129664635	-0.0825178653	 0.147267
C	 1.4105904185	 1.7207800572	-0.3143409841	-0.254154
N	 1.3895450616	 2.859296904	-1.2068700629	 0.03029
C	 1.2409821176	 4.175743733	-0.9625085285	 0.06312
N	 1.2152983522	 4.8241220622	-2.1049689686	-0.213608
N	 1.3437936497	 3.8720610251	-3.0677228353	-0.084792
N	 1.4462487615	 2.6952206543	-2.5494156409	-0.122931
H	-0.7236982501	 1.3666460467	-0.8770296184	 0.119827
H	 1.8550477414	 1.9989467886	 0.6434713932	 0.166341
H	 2.0370027067	 0.9493513795	-0.7735031726	 0.184995
H	 1.1678493816	 4.6057801563	 0.0232519711	 0.172515
28.5138	65.7675	117.9488	328.3068	358.5893	429.3051	675.9631	700.6107	737.2168	797.9477	865.5864	982.3405	1021.5157	1028.7136	1061.3078	1120.4543	1170.2969	1196.9989	1287.241	1324.8533	1339.4054	1406.3378	1440.3076	1463.4762	1511.6676	1849.1025	2915.2965	3070.7218	3132.8714	3283.4023
O=CCN1C=NN=N1	O=CCn1cnnn1	
InChI=1S/C3H4N4O/c8-2-1-7-3-4-5-6-7/h2-3H,1H2	InChI=1S/C3H4N4O/c8-2-1-7-3-4-5-6-7/h2-3H,1H2
