19
gdb 87488	2.98334	1.37027	1.12028	1.6805	76.53	-0.2335	0.0621	0.2956	1141.6101	0.1575	-422.927519	-422.919002	-422.918058	-422.960344	32.989	
C	-0.100935733	 1.5371400262	-0.0176088838	-0.403095
C	 0.0054956008	 0.0278645538	-0.0042679731	-0.11954
C	 1.340457243	-0.6567542041	-0.2854989179	-0.369127
C	 0.7426950762	-0.6794786645	 1.0778382102	 0.481169
C	 1.2054116368	-0.2456177735	 2.4749672365	-0.113495
O	-0.0911379304	-0.7183325672	 3.0156168377	-0.310146
C	 0.3329394303	-1.7793295496	 2.0664476752	-0.089678
C	 1.7300989928	-1.7024056817	 2.7266868164	 0.130318
O	 2.8071449503	-2.2325301874	 2.0139054514	-0.425127
H	 0.8132518338	 1.9991656639	 0.3702849411	 0.109017
H	-0.2569140902	 1.9151644724	-1.0339672436	 0.115634
H	-0.9352564391	 1.8803763159	 0.6033029509	 0.125682
H	-0.870544444	-0.4896173407	-0.3898636172	 0.08598
H	 1.3464528024	-1.5741715425	-0.8647230953	 0.115333
H	 2.2073345428	-0.023873493	-0.4516279385	 0.109341
H	 1.5805858199	 0.7146412527	 2.8308276731	 0.089573
H	-0.3282453364	-2.6358540892	 1.9325940384	 0.093487
H	 1.7197596176	-1.9774564133	 3.7871007569	 0.083845
H	 3.6079139061	-2.0953156482	 2.5288995216	 0.29083
123.3155	130.9613	193.0487	215.4872	229.89	301.7782	357.1494	405.004	430.7746	517.7282	620.2258	674.8315	746.4594	807.7198	833.8028	861.6515	891.3723	893.3454	894.9882	981.3149	1014.4831	1052.5078	1072.2539	1088.5739	1124.2488	1126.8077	1132.9088	1154.909	1166.4204	1184.8642	1205.5742	1235.0222	1246.435	1285.8152	1350.9313	1411.9083	1421.8758	1444.9588	1493.3317	1496.6466	1522.6249	3027.6053	3055.3063	3091.3939	3095.2038	3112.7931	3121.5845	3123.3057	3129.2394	3206.4902	3827.72
CC1CC11C2OC1C2O	C[C@H]1C[C@]21[C@H]1O[C@@H]2[C@H]1O	
InChI=1S/C7H10O2/c1-3-2-7(3)5-4(8)6(7)9-5/h3-6,8H,2H2,1H3	InChI=1S/C7H10O2/c1-3-2-7(3)5-4(8)6(7)9-5/h3-6,8H,2H2,1H3/t3-,4-,5-,6+,7-/m0/s1
