16
gdb 14935	4.50511	1.56048	1.20887	3.0461	68.65	-0.2274	-0.0568	0.1707	969.7726	0.132581	-379.952796	-379.945468	-379.944524	-379.984666	26.92	
O	-0.8584790702	 1.3134830307	-0.0865497922	-0.278908
C	 0.2588598755	 0.8897195867	 0.0928158983	 0.138093
C	 1.4711534459	 1.7654040181	 0.1178429329	 0.274128
N	 2.6033825749	 1.1866729511	 0.3063872808	-0.300361
C	 3.7705095959	 2.0640505283	 0.3099292835	-0.156294
C	 3.5903929324	 3.3347402886	-0.5364400957	-0.218491
C	 2.2993714964	 4.0596270589	-0.1374428453	-0.154595
N	 1.2221812519	 3.0890686502	-0.0661655236	-0.336448
H	 0.4898903031	-0.1801909534	 0.2511862656	 0.107966
H	 3.9988214705	 2.336474671	 1.3516606303	 0.111199
H	 4.6322775013	 1.4898080694	-0.0469533778	 0.110095
H	 4.4477027165	 4.0039957748	-0.4193213612	 0.104508
H	 3.5330729615	 3.0546273687	-1.5942731177	 0.115177
H	 2.4321632248	 4.5646402182	 0.8304594212	 0.111399
H	 2.0438555158	 4.8314998661	-0.8710258973	 0.11412
H	 0.2610255838	 3.3450248625	-0.2300610418	 0.258412
76.6004	135.3681	218.8283	259.0361	328.8474	432.1869	445.2199	524.977	551.133	646.881	731.9148	840.0628	875.9338	891.848	955.9228	988.3862	1030.5194	1086.8381	1129.2455	1164.3797	1216.3394	1222.735	1279.8333	1296.079	1347.8023	1361.4871	1372.3079	1397.8808	1481.1694	1484.5455	1510.1726	1549.3696	1704.5802	1803.5	2973.7262	2991.0719	2997.5792	3041.7596	3059.8298	3066.3452	3095.6853	3628.5902
O=CC1=NCCCN1	O=CC1=NCCCN1	
InChI=1S/C5H8N2O/c8-4-5-6-2-1-3-7-5/h4H,1-3H2,(H,6,7)	InChI=1S/C5H8N2O/c8-4-5-6-2-1-3-7-5/h4H,1-3H2,(H,6,7)
