20
gdb 6895	2.86948	1.42911	1.27722	2.1129	71.62	-0.2296	0.0654	0.295	1090.0955	0.174191	-386.124091	-386.114337	-386.113393	-386.158091	35.922	
C	 0.2352445174	 1.5220059143	 0.1004764163	-0.373985
C	-0.1637431878	 0.0530714471	-0.0873264592	-0.201242
C	 0.5463387798	-0.5824965435	-1.2658223848	-0.054371
C	 1.9093104874	-1.2246879597	-1.1176776294	-0.001092
O	 2.4493513537	-1.2380210132	 0.1748194756	-0.411624
C	 0.6933992024	-2.0720973742	-1.4554250068	 0.31081
C	 0.151026196	-3.0726205644	-0.4623363591	-0.457744
O	 0.5595397288	-2.4579613471	-2.803320266	-0.459138
H	 1.3080232394	 1.6080319603	 0.2984211	 0.129649
H	 0.0105951963	 2.1123265718	-0.7948491892	 0.110083
H	-0.3021837843	 1.972723035	 0.940812867	 0.106265
H	 0.0654733256	-0.4978647099	 0.8284788403	 0.109676
H	-1.2482668643	-0.0199548774	-0.2385440666	 0.094904
H	 0.4139979276	-0.0533137969	-2.2065108889	 0.094609
H	 2.6270134266	-1.0624517213	-1.9223844995	 0.083945
H	 2.9693418599	-2.0418582693	 0.2764826443	 0.287695
H	 0.3511152777	-2.7676880481	 0.5664663816	 0.132007
H	-0.9284530386	-3.2008582656	-0.5890102519	 0.127802
H	 0.6219604898	-4.052984337	-0.6153967923	 0.097719
H	 1.0833529367	-3.2567409408	-2.9357141413	 0.274031
66.6084	138.1673	171.9543	188.5502	225.328	261.285	278.0228	302.3577	308.8635	335.0605	403.5395	490.3643	510.1601	591.0089	711.49	776.3629	845.0693	876.407	953.2716	969.2071	999.3181	1053.9613	1060.4661	1101.1671	1122.4348	1158.8421	1177.6314	1234.1668	1277.5424	1290.2917	1303.0156	1330.6685	1357.6193	1390.3284	1409.2328	1414.0668	1460.8729	1484.5536	1494.0622	1498.2225	1505.5678	1509.3552	3018.4253	3027.759	3032.4192	3084.5219	3086.2617	3095.0009	3103.797	3112.2987	3135.1988	3142.4086	3780.8132	3805.7755
CCC1C(O)C1(C)O	CC[C@H]1[C@@H](O)[C@]1(C)O	
InChI=1S/C6H12O2/c1-3-4-5(7)6(4,2)8/h4-5,7-8H,3H2,1-2H3	InChI=1S/C6H12O2/c1-3-4-5(7)6(4,2)8/h4-5,7-8H,3H2,1-2H3/t4-,5+,6+/m0/s1
