16
gdb 50124	5.30758	0.92259	0.86533	2.7297	78.77	-0.229	-0.0356	0.1934	1304.5723	0.122397	-400.668339	-400.659914	-400.65897	-400.701809	31.433	
O	-0.5653520175	 0.8557182733	 0.9708961307	-0.246071
C	 0.135556853	 0.8136279268	-0.0075391174	 0.162073
C	 1.441256625	 1.5699833497	-0.1404306996	-0.06429
N	 2.4876801254	 0.8806603326	-0.9594244969	-0.382957
C	 2.6793431171	 2.1193289407	-1.7671155862	 0.248776
C	 1.4133063829	 2.3391686608	-2.5456734215	-0.313135
C	 1.4545912248	 2.7734269705	-1.1013228359	-0.16633
C	 3.9601481057	 2.6323675133	-2.0961415691	 0.181149
C	 5.0622706629	 3.0424892563	-2.3537975988	-0.422378
H	-0.1426404403	 0.2182855099	-0.9047869685	 0.08336
H	 1.782220096	 1.8637298485	 0.85680952	 0.103123
H	 3.3081134296	 0.6746655469	-0.3994847147	 0.2363
H	 1.4405293412	 3.1627119981	-3.2507202566	 0.135633
H	 0.8507954483	 1.4693250042	-2.8684070278	 0.128688
H	 1.2936886349	 3.7996702051	-0.800932709	 0.12078
H	 6.030757421	 3.4076848333	-2.5913220487	 0.195279
61.1469	90.5368	147.6634	215.7533	275.3878	398.4844	407.1231	462.6459	491.7411	549.0087	575.3896	626.564	678.463	725.067	801.7081	829.749	874.4021	945.4364	981.1623	992.4188	1008.2458	1041.2454	1075.6572	1095.9003	1142.2825	1164.975	1235.5186	1268.1427	1287.0095	1334.6369	1405.6144	1424.2907	1482.3381	1829.0899	2231.088	2894.6592	3068.7377	3131.637	3208.207	3226.7947	3501.1471	3539.1593
O=CC1NC2(CC12)C#C	O=C[C@H]1N[C@]2(C[C@@H]12)C#C	
InChI=1S/C7H7NO/c1-2-7-3-5(7)6(4-9)8-7/h1,4-6,8H,3H2	InChI=1S/C7H7NO/c1-2-7-3-5(7)6(4-9)8-7/h1,4-6,8H,3H2/t5-,6+,7-/m0/s1
