20
gdb 102436	1.71623	1.30202	0.86518	3.7601	80.89	-0.2898	-0.0836	0.2062	1419.7967	0.168328	-403.181595	-403.170924	-403.16998	-403.218246	37.03	
C	-0.3196641069	 1.4035270833	-0.2588026337	-0.392756
C	-0.0154497976	-0.097286531	-0.2464716214	-0.202742
C	 0.988196189	-0.5401106727	-1.347570675	-0.079708
C	 2.4292661956	-0.076483743	-1.0910439963	-0.190087
C	 3.3653088785	-0.2780675388	-2.2873765311	-0.397891
C	 0.9105240746	-2.0520490274	-1.4645629985	 0.288696
O	 1.7435020216	-2.8345290081	-1.0827241996	-0.276622
C	-0.3395759813	-2.5632671387	-2.0834679269	 0.23919
N	-1.3086484627	-2.9527459021	-2.5801637486	-0.307029
H	 0.5733438487	 2.0073821268	-0.0748519449	 0.127863
H	-0.7424296763	 1.7112484343	-1.2210586671	 0.124974
H	-1.048607987	 1.6488528632	 0.51911408	 0.125956
H	 0.3871208063	-0.396470922	 0.7289327349	 0.117407
H	-0.956141015	-0.6458261077	-0.3746589514	 0.124502
H	 0.6254655109	-0.1317825097	-2.3025688446	 0.102984
H	 2.4083428683	 0.984218277	-0.8223307784	 0.102126
H	 2.8177437745	-0.6164304806	-0.2209840288	 0.120592
H	 3.0053528635	 0.2637665552	-3.1691404515	 0.115356
H	 4.3688891766	 0.0920595311	-2.0586932283	 0.120766
H	 3.4544759288	-1.3354676292	-2.5502623387	 0.136423
41.3764	71.9527	101.2593	135.7454	166.3497	200.5579	221.0985	261.6798	286.0371	317.32	349.793	439.7061	487.2984	605.2774	699.4965	742.7966	770.2663	854.7738	876.8325	940.0556	1026.3146	1032.0594	1054.6126	1061.062	1110.1517	1131.969	1188.1607	1262.962	1287.0326	1330.8652	1353.7449	1369.5179	1397.0277	1414.0322	1418.1322	1478.534	1487.6118	1498.1635	1500.4995	1505.8572	1510.0638	1793.4891	2334.166	3004.1605	3030.4001	3038.2749	3039.7296	3051.2894	3066.8885	3086.4667	3106.5261	3109.1667	3115.2344	3123.5724
CCC(CC)C(=O)C#N	CCC(CC)C(=O)C#N	
InChI=1S/C7H11NO/c1-3-6(4-2)7(9)5-8/h6H,3-4H2,1-2H3	InChI=1S/C7H11NO/c1-3-6(4-2)7(9)5-8/h6H,3-4H2,1-2H3
