16
gdb 33050	4.8047	0.90392	0.78312	3.4726	69.69	-0.2117	0.0319	0.2437	1433.5737	0.123203	-475.031006	-475.022477	-475.021533	-475.065254	30.608	
C	 0.0175358837	 1.4312643671	 0.1415497339	-0.388028
C	-0.0479663012	-0.0399776897	-0.2119008715	-0.069817
O	-1.2893743088	-0.5613788669	 0.3283080573	-0.275084
C	-1.5218594899	-1.8460067771	 0.112783245	 0.39248
C	-2.5846886458	-2.5042507768	-0.3416568455	-0.191881
O	-2.3222578306	-3.8713332216	-0.2538447674	-0.221692
C	-1.050683283	-4.0055051969	 0.2347888101	 0.513048
N	-0.3977676395	-5.0569822544	 0.4474088478	-0.576982
O	-0.5430959609	-2.7588184935	 0.4802760234	-0.235595
H	 0.9428843049	 1.8639558811	-0.2492610765	 0.128803
H	-0.8287499982	 1.9731626049	-0.2890450338	 0.13413
H	 0.0019156752	 1.5678636717	 1.2261314567	 0.138991
H	-0.0490875809	-0.1979437384	-1.2975738822	 0.114911
H	 0.7885325577	-0.5977473888	 0.2195234945	 0.139576
H	-3.5427514461	-2.1957210593	-0.7146691442	 0.160862
H	-0.9502189265	-5.8735221415	 0.1990933523	 0.236278
58.1397	67.1012	115.8063	197.2942	242.5051	329.3901	368.9776	398.8177	540.0313	620.1269	676.2058	707.1188	733.8313	769.1004	779.4402	818.5483	891.4409	926.3983	996.0686	1013.7553	1047.8749	1102.5988	1129.461	1179.3015	1197.7465	1294.2983	1312.4919	1346.2673	1402.2467	1425.5587	1483.2678	1500.3419	1521.6179	1763.9172	1827.31	3030.5016	3050.5537	3089.6562	3126.6329	3131.6499	3320.427	3546.2433
CCOC1=COC(=N)O1	CCOC1=CO[C@@H]([NH])O1	
InChI=1S/C5H7NO3/c1-2-7-4-3-8-5(6)9-4/h3,6H,2H2,1H3	InChI=1S/C5H8NO3/c1-2-7-4-3-8-5(6)9-4/h3,5-6H,2H2,1H3/t5-/m1/s1
