19
gdb 22891	2.27727	1.553	1.00714	1.9588	84.26	-0.1816	-0.0085	0.1731	1204.7212	0.159006	-419.187825	-419.17856	-419.177616	-419.22146	34.899	
C	 0.0395705951	 1.5276934658	 0.0050418174	-0.395555
C	-0.0255573766	-0.0009845599	 0.0646252449	-0.03019
N	 0.6381952604	-0.6417499562	-1.0887942321	-0.320186
C	 1.7975705598	-1.2416293001	-0.6224113724	-0.087315
C	 1.9070254116	-1.2897671674	 0.7271046689	 0.176819
C	 2.9936291287	-1.9759930347	 1.4986090866	-0.492555
C	 0.7482801455	-0.5725118897	 1.2541633545	 0.319408
N	 0.2921899594	-0.3557250468	 2.4324662116	-0.274958
O	 1.1035102882	-0.9361220394	 3.4333558041	-0.403449
H	 1.0787872448	 1.8674763162	-0.0503439873	 0.122713
H	-0.5041304153	 1.9127574031	-0.8648572273	 0.10925
H	-0.4104448789	 1.9450510833	 0.9095303042	 0.142757
H	-1.0728249228	-0.3175547996	 0.1084129368	 0.10678
H	 0.718960663	-0.0767823453	-1.9235631165	 0.235588
H	 2.493988614	-1.6615712177	-1.3394292776	 0.117071
H	 3.7381454588	-2.3960098173	 0.8143955243	 0.10392
H	 3.5020398642	-1.2859488847	 2.1783010784	 0.133688
H	 2.601704478	-2.7882665035	 2.1181377392	 0.135508
H	 0.621389242	-0.7051456063	 4.2333530522	 0.300706
77.209	167.3592	184.9284	218.8301	236.4531	259.8994	312.6492	325.3199	355.7163	396.3221	469.7395	504.7077	597.5039	641.5955	719.2743	737.2199	799.2339	898.8538	917.6172	973.2773	982.2257	1028.3039	1067.8384	1092.6662	1117.0426	1127.1478	1171.0174	1255.2181	1326.3923	1337.0508	1359.0049	1389.363	1399.6576	1423.4981	1434.5295	1475.0764	1491.2393	1495.6688	1497.1677	1666.2523	1714.6317	3031.2835	3035.8268	3048.2175	3098.3758	3103.6286	3104.9225	3125.4042	3201.2624	3574.5221	3827.2207
CC1NC=C(C)C1=NO	C[C@H]1NC=C(C)C1=NO	
InChI=1S/C6H10N2O/c1-4-3-7-5(2)6(4)8-9/h3,5,7,9H,1-2H3	InChI=1S/C6H10N2O/c1-4-3-7-5(2)6(4)8-9/h3,5,7,9H,1-2H3/t5-/m1/s1
