21
gdb 35929	2.22637	1.44736	1.22874	0.6799	88.38	-0.2357	0.0202	0.2559	1159.4078	0.183655	-349.93566	-349.926908	-349.925964	-349.968918	34.253	
C	-0.2668087788	-1.2635181847	-0.247837499	-0.500136
C	-0.1497051173	-0.0721030716	-0.1338673315	 0.357228
C	-0.0164346991	 1.3781803129	-0.0019145244	-0.155471
C	-0.7301026439	 1.9120399114	 1.2647193505	-0.200222
C	-0.2163671098	 1.3872216343	 2.609893356	-0.18415
C	 1.1980351971	 1.8576932955	 2.9972989535	-0.243525
C	 2.3245838475	 1.2497368884	 2.1950724408	-0.045301
C	 2.4322945941	 1.2299607302	 0.8669546534	-0.039172
C	 1.4629363279	 1.8324869952	-0.122804876	-0.263344
H	-0.3681821638	-2.3153037595	-0.3515387411	 0.192972
H	-0.5400347745	 1.8300276605	-0.8562288	 0.101964
H	-0.6563487997	 3.0080085212	 1.2486697353	 0.089444
H	-1.7949241363	 1.6700620515	 1.1751558218	 0.102893
H	-0.912874022	 1.7226575726	 3.3877575915	 0.090388
H	-0.248955114	 0.2918405297	 2.6099747654	 0.113682
H	 1.2377923334	 2.9554627949	 2.9182829654	 0.103102
H	 1.3604257838	 1.6333842528	 4.056665692	 0.097351
H	 3.1225183823	 0.7872027027	 2.7719780324	 0.083477
H	 3.3080881045	 0.7522250562	 0.4347956635	 0.084785
H	 1.8027116345	 1.6042154887	-1.1372464429	 0.107702
H	 1.4721611541	 2.928926327	-0.0366899164	 0.106334
86.7554	96.1281	166.3	230.8589	303.3217	324.6193	340.0336	417.0215	472.5699	544.7311	597.1451	618.4248	631.9581	697.3724	733.4279	774.9864	816.8399	872.0618	881.1658	917.0053	953.873	994.1282	1010.6631	1042.1331	1048.6286	1096.3767	1131.0879	1185.8526	1224.6127	1237.0687	1255.5395	1285.9534	1310.3591	1349.8944	1365.1999	1374.6608	1389.1564	1400.5412	1427.8701	1475.0289	1478.4832	1483.2962	1490.9411	1727.5549	2231.039	2987.4911	2996.1848	3004.3458	3018.5136	3028.2122	3063.0213	3065.8425	3075.6807	3077.7328	3137.9015	3163.2243	3504.3999
C#CC1CCCC=CC1	C#C[C@H]1CCCC=CC1	
InChI=1S/C9H12/c1-2-9-7-5-3-4-6-8-9/h1,3,5,9H,4,6-8H2	InChI=1S/C9H12/c1-2-9-7-5-3-4-6-8-9/h1,3,5,9H,4,6-8H2/t9-/m1/s1
