16
gdb 133838	4.10607	1.84975	1.75785	1.3066	77.8	-0.2034	-0.0616	0.1418	826.7168	0.124194	-363.40227	-363.395911	-363.394967	-363.432446	26.566	
C	 1.2112221126	 0.3713647042	-0.3833550911	-0.520388
C	 2.6523560479	 0.2238473518	-0.032667852	 0.323748
C	 3.4161901142	 0.5077821547	 1.1769295162	-0.12937
N	 3.6848505975	 1.3324091736	-0.0696042839	-0.206887
C	 4.7000939753	 0.393696404	-0.7644481784	-0.018108
C	 5.5802136013	-0.3893856829	 0.219328525	-0.086984
C	 4.4613921938	-0.5848274015	 1.2110169418	-0.003345
C	 4.6192674263	-1.6413140462	 0.2151678489	-0.137699
C	 3.7401016423	-0.7606223298	-0.5808322842	-0.005448
H	 0.8094701195	 1.2881741235	 0.0578386683	 0.138323
H	 0.6303908756	-0.4768316276	-0.0055912282	 0.130329
H	 1.0731367212	 0.4226019287	-1.4684303745	 0.130598
H	 3.1000264302	 1.0532165251	 2.0561591	 0.104206
H	 5.0073093038	 0.7695452767	-1.7408542271	 0.081739
H	 6.6378154541	-0.3468461426	 0.4664730506	 0.088741
H	 4.7080411646	-2.7157301918	 0.3212729785	 0.110545
193.4663	230.1348	260.7001	489.5349	523.1637	536.055	556.876	637.4829	693.9762	730.3308	786.0142	810.2963	849.9627	866.5113	886.1845	921.7961	964.3587	975.1404	983.8284	1009.0908	1054.8611	1064.2789	1089.6886	1112.7938	1161.4301	1177.9824	1192.5089	1211.885	1237.1681	1245.8519	1365.7031	1401.6067	1452.3399	1480.0944	1489.6448	3034.0288	3099.3026	3106.7102	3115.1988	3139.7235	3175.4548	3201.8217
CC12C3N1C1C=C3C=C21	C[C@]12[C@@H]3N1[C@H]1[C@H]4[C@]53[C@H]4[C@]215	
InChI=1S/C8H7N/c1-8-5-2-4-3-6(5)9(8)7(4)8/h2-3,6-7H,1H3	InChI=1S/C8H7N/c1-6-5-7-2-3(7)8(6,7)4(2)9(5)6/h2-5H,1H3/t2-,3-,4-,5-,6+,7+,8+,9?/m0/s1
