17
gdb 45091	2.47194	2.08198	1.42861	4.9902	71.97	-0.2389	0.0135	0.2524	926.3734	0.138888	-417.993679	-417.986799	-417.985855	-418.0248	27.702	
O	-0.2724921213	 0.5856965611	 1.1777434652	-0.333639
C	-0.1470040885	 1.332942435	 0.2400246859	 0.37155
C	-1.2941602667	 1.7526820881	-0.6791279159	-0.311877
C	-1.3523374471	 3.2688538104	-0.764234737	-0.03109
N	-0.9458996121	 3.9586132858	 0.4724025485	-0.334097
C	-0.0693715461	 4.0257674141	-0.7056994259	-0.044321
C	 1.2009653513	 3.2275271907	-0.6385309691	-0.02529
C	 1.8274446478	 2.817708322	 0.6635537725	-0.248304
N	 1.0908668983	 1.8640552266	-0.148993282	-0.094003
H	-1.1409612079	 1.3319871345	-1.6807434429	 0.124836
H	-2.2177578502	 1.3387509935	-0.2682523101	 0.131802
H	-2.1722708157	 3.6904585869	-1.3408974732	 0.092608
H	-1.4481604415	 4.8321584145	 0.5968048563	 0.240007
H	-0.0026493929	 4.965739519	-1.2472742376	 0.091168
H	 1.8464950868	 3.3425005666	-1.5079269224	 0.098468
H	 2.901084782	 2.6643279608	 0.7219065063	 0.123218
H	 1.3397066139	 3.1574081204	 1.5721497816	 0.148965
124.1836	206.0662	264.6742	341.6325	412.1188	455.5702	522.3738	570.0552	645.9928	687.6518	740.1114	807.0516	840.7569	869.4963	904.6624	940.7841	984.4046	988.2193	1014.7437	1067.5934	1082.1366	1105.0053	1129.6551	1139.4825	1167.4573	1169.324	1179.3607	1219.7788	1252.5561	1323.4266	1359.7379	1381.0912	1421.2808	1451.9873	1467.2413	1496.6929	1822.0607	3040.9996	3112.9545	3115.7588	3118.9552	3133.4845	3146.3246	3214.9335	3524.9939
O=C1CC2NC2C2CN12	O=C1C[C@H]2N[C@H]2[C@H]2CN12	
InChI=1S/C6H8N2O/c9-5-1-3-6(7-3)4-2-8(4)5/h3-4,6-7H,1-2H2	InChI=1S/C6H8N2O/c9-5-1-3-6(7-3)4-2-8(4)5/h3-4,6-7H,1-2H2/t3-,4-,6-,8?/m1/s1
