13
gdb 25308	2.83387	1.33229	0.90624	3.6703	71.92	-0.2622	-0.093	0.1692	1163.8588	0.090164	-452.805447	-452.797945	-452.797001	-452.838012	26.45	
O	 0.1024813703	-0.0823206854	-0.0024310384	-0.294871
C	 0.0157923931	 1.1294203819	 0.009471145	 0.076593
C	 1.1879884055	 1.9927780425	 0.0033703851	 0.181089
C	 1.4004163424	 3.3720138157	 0.0131010535	 0.110951
C	 0.3635381637	 4.4174269449	 0.0345313547	 0.086786
O	 0.5807837517	 5.603538451	 0.0426459709	-0.248186
N	 2.7434143917	 3.6438431218	-0.0002374781	-0.290383
C	 3.3357902245	 2.4690408569	-0.0176378551	 0.039588
N	 2.4451649753	 1.4447583172	-0.0162278375	-0.287207
H	-0.9628667404	 1.6444895312	 0.0253853376	 0.101774
H	-0.6763850458	 4.0219188376	 0.0433808874	 0.073
H	 4.4035543272	 2.3060527969	-0.0316199397	 0.158147
H	 2.6161983109	 0.4498426478	-0.0270396355	 0.292719
105.5224	151.9216	164.6516	230.9977	233.8192	329.1203	419.6509	554.1119	637.0908	688.2359	717.4753	768.8254	839.1968	873.0503	957.1525	1017.1196	1024.5425	1084.3581	1128.4637	1280.5316	1336.3786	1376.0722	1399.6589	1415.9875	1449.5212	1522.8852	1576.2207	1760.7562	1808.5506	2879.4352	2957.927	3254.6652	3633.4049
O=CC1=C(C=O)N=CN1	O=Cc1c(C=O)nc[nH]1	
InChI=1S/C5H4N2O2/c8-1-4-5(2-9)7-3-6-4/h1-3H,(H,6,7)	InChI=1S/C5H4N2O2/c8-1-4-5(2-9)7-3-6-4/h1-3H,(H,6,7)
