17
gdb 27931	2.36244	1.39364	0.88624	7.2201	80.9	-0.2293	-0.0283	0.201	1284.7803	0.135469	-418.077363	-418.068265	-418.067321	-418.111588	32.134	
C	 0.0161192994	 1.4772466165	 0.050151344	-0.501124
C	 0.011078371	-0.011895885	-0.0326258453	 0.339467
N	-0.0589357978	-0.7267385482	-1.1218459271	-0.324988
C	-0.0326359819	-2.0511296465	-0.7117376552	 0.088048
C	-0.0919710483	-3.1763537933	-1.6396929386	 0.076689
O	-0.1688103734	-3.0985706074	-2.8444690584	-0.276215
C	 0.0560808413	-2.1285468731	 0.6687778654	 0.261924
C	 0.1179715315	-3.2671921738	 1.6305357575	-0.51195
N	 0.0829204876	-0.8214726571	 1.0832899569	-0.336284
H	 0.9308067091	 1.8553245603	 0.5210103615	 0.1344
H	-0.0451425257	 1.8797057788	-0.9612687009	 0.167884
H	-0.8351886385	 1.8553802791	 0.6277728755	 0.134572
H	-0.060178463	-4.1715158622	-1.1376325503	 0.048492
H	 1.042491122	-3.2470961032	 2.2199735325	 0.140089
H	-0.7222307382	-3.2457319013	 2.3349327554	 0.14002
H	 0.0828199148	-4.2206789782	 1.1022746791	 0.156067
H	 0.1436671402	-0.5116689854	 2.0402512977	 0.262908
95.765	96.2605	134.5988	177.6689	184.7435	223.6394	258.7934	371.6806	384.5984	534.3904	550.6848	616.9587	671.0317	675.8734	709.0601	865.7973	970.0799	1014.5018	1021.6878	1040.1572	1057.1128	1065.2756	1152.5433	1214.1725	1329.3649	1396.8619	1403.9689	1410.9045	1427.1059	1454.0599	1480.1172	1482.5601	1488.7776	1493.3195	1587.87	1621.337	1797.8584	2849.7064	3026.1833	3032.2943	3073.5608	3082.8271	3142.6199	3154.3501	3641.4664
CC1=NC(C=O)=C(C)N1	Cc1nc(C=O)c(C)[nH]1	
InChI=1S/C6H8N2O/c1-4-6(3-9)8-5(2)7-4/h3H,1-2H3,(H,7,8)	InChI=1S/C6H8N2O/c1-4-6(3-9)8-5(2)7-4/h3H,1-2H3,(H,7,8)
