18
gdb 75296	2.31068	1.883	1.18018	2.4782	78.84	-0.2421	0.0105	0.2526	1063.3451	0.148868	-401.971961	-401.964199	-401.963254	-402.004208	30.026	
C	 0.2013605368	 1.442781539	 0.0356504048	-0.498357
C	-0.0134713754	-0.0345749776	-0.0370475146	 0.323719
C	-0.1698092006	-0.7961716483	-1.1244225752	-0.164509
C	-0.3336693544	-2.2671919064	-0.8199466049	-0.281312
C	-0.1258744879	-2.3350934026	 0.6959089186	 0.105606
O	 1.2752321007	-2.5699757585	 1.0766550267	-0.271355
C	 1.3809415449	-1.3143839846	 1.6415684956	 0.442983
N	 2.3260524048	-0.7689557824	 2.2583546313	-0.551807
C	-0.0131777636	-0.8814828489	 1.2185433483	-0.260749
H	 1.1481617155	 1.6672001305	 0.5410999406	 0.154535
H	 0.220200043	 1.8963656334	-0.9586831346	 0.123799
H	-0.5895703559	 1.9297040531	 0.6201468924	 0.125812
H	-0.1719286554	-0.4128957554	-2.1395424878	 0.092901
H	-1.3241599682	-2.6431972319	-1.1079480641	 0.110851
H	 0.4036544295	-2.8978433526	-1.33166628	 0.126567
H	-0.7716122883	-3.0352443281	 1.2273755745	 0.093507
H	 3.1336846149	-1.3906406914	 2.3296299694	 0.227169
H	-0.6672032104	-0.5279835375	 2.0183550491	 0.10064
116.2996	132.7629	184.7405	242.5438	303.3421	353.4503	448.0887	488.8091	566.1187	668.431	701.7894	779.2118	828.3341	844.2791	863.8614	880.1451	932.7587	953.8527	994.0295	1004.8769	1022.7713	1030.8421	1044.2684	1069.0014	1167.7797	1178.2251	1207.2302	1225.2079	1260.0257	1291.0833	1326.5752	1340.0498	1361.2095	1413.3009	1468.6444	1476.3038	1490.693	1714.9808	1817.6066	3020.7425	3022.0044	3057.7108	3073.9197	3092.9823	3108.398	3115.9693	3188.0938	3472.1219
CC1=CCC2OC(=N)C12	CC1=CC[C@H]2O[C]([NH])[C@@H]12	
InChI=1S/C7H9NO/c1-4-2-3-5-6(4)7(8)9-5/h2,5-6,8H,3H2,1H3	InChI=1S/C7H9NO/c1-4-2-3-5-6(4)7(8)9-5/h2,5-6,8H,3H2,1H3/t5-,6+/m1/s1
