15
gdb 24848	2.36049	1.74706	1.00399	2.3302	81.31	-0.246	-0.0881	0.1579	1104.2383	0.115886	-416.860954	-416.853649	-416.852705	-416.893218	27.758	
N	-0.0743681511	 0.9615091971	-1.0859236204	-0.510606
C	-0.0328095114	 0.0603671948	-0.1712726144	 0.351557
N	 1.1720020917	-0.4204989941	 0.3547553054	-0.438986
C	 1.574816442	-1.3515756633	 1.3116381553	 0.381937
O	 2.7714563274	-1.4952812672	 1.4960074165	-0.358385
C	 0.6078902949	-2.1462990971	 2.0856940425	-0.151802
C	-0.7345704969	-2.1491910589	 2.0462770376	-0.076881
C	-1.626522326	-1.3627617924	 1.2212333343	-0.113123
C	-1.3281692791	-0.438410808	 0.2928750067	-0.040679
H	 0.8600726639	 1.2668966745	-1.3650986494	 0.21103
H	 1.9957419713	 0.0068928304	-0.051953524	 0.250174
H	 1.1192987054	-2.8099312641	 2.7739652197	 0.129675
H	-1.2343615446	-2.8354028019	 2.7256432899	 0.117576
H	-2.6832341137	-1.5559174294	 1.3840370622	 0.114664
H	-2.1388782637	 0.0537966496	-0.2319980919	 0.133848
71.1029	117.7376	256.0103	351.1803	379.966	431.5768	449.9638	534.454	588.7617	650.2464	696.6271	749.6022	826.8241	827.307	837.7215	872.9149	890.6447	976.673	994.5593	1027.1145	1035.466	1162.5258	1232.4068	1265.438	1345.6204	1405.3296	1424.8484	1448.9128	1471.1943	1652.4509	1666.9108	1710.2458	1758.6988	3154.264	3171.3497	3203.4204	3207.8238	3452.7244	3567.579
N=C1NC(=O)C=CC=C1	[NH]C1=C[CH]C=CC(=O)N1	
InChI=1S/C6H6N2O/c7-5-3-1-2-4-6(9)8-5/h1-4H,(H2,7,8,9)	InChI=1S/C6H6N2O/c7-5-3-1-2-4-6(9)8-5/h1-4H,(H2,7,8,9)
