15
gdb 100239	2.72694	1.15856	0.97514	5.6806	65.67	-0.3112	-0.0027	0.3085	1203.0138	0.110756	-453.956917	-453.947497	-453.946553	-453.991479	33.296	
O	 0.0694498788	 1.330097646	-0.3059837129	-0.422776
C	 0.0543333735	-0.047447863	 0.0069919978	-0.105537
C	-1.4070636384	-0.5634383656	 0.0043107682	 0.186701
O	-2.0244956961	-0.2074333111	-1.2052120005	-0.427865
C	-1.4462990452	-2.0998115334	 0.1212413229	-0.367897
C	-2.8011964183	-2.6452301152	 0.1144852141	 0.28848
N	-3.8640580075	-3.0958638052	 0.1163029685	-0.291741
C	-2.1000793024	 0.0775876045	 1.1553336482	 0.254646
N	-2.5699210592	 0.6425963285	 2.0472778207	-0.323263
H	-0.2106682434	 1.8246863412	 0.474054143	 0.310195
H	 0.5928998258	-0.555199052	-0.7986999743	 0.135205
H	 0.546021771	-0.2678378125	 0.962863237	 0.122762
H	-1.7286545948	 0.694008092	-1.4028497141	 0.303174
H	-0.8957736743	-2.5093573568	-0.7318340342	 0.170654
H	-0.9377582195	-2.4161083775	 1.0379621956	 0.167262
63.214	105.3366	119.5395	178.1226	193.5039	263.9829	338.6401	382.9809	387.002	410.6269	437.1862	482.2988	546.4005	588.4251	714.1737	721.1742	898.2221	933.2638	949.8198	1037.0944	1090.4608	1104.4293	1156.7318	1211.3353	1302.3609	1326.3877	1381.8319	1402.601	1416.5126	1449.407	1488.4157	2349.6148	2374.2195	3027.974	3055.6564	3098.7933	3104.8414	3732.0123	3791.7298
OCC(O)(CC#N)C#N	OC[C@@](O)(CC#N)C#N	
InChI=1S/C5H6N2O2/c6-2-1-5(9,3-7)4-8/h8-9H,1,4H2	InChI=1S/C5H6N2O2/c6-2-1-5(9,3-7)4-8/h8-9H,1,4H2/t5-/m1/s1
