16
gdb 54931	4.85624	0.88028	0.82291	4.8489	71.56	-0.2534	0.002	0.2553	1356.6924	0.124231	-437.863907	-437.855475	-437.854531	-437.897861	30.871	
O	-0.1917179681	-0.0416513446	 0.4716750911	-0.368425
C	 0.0544399315	 1.2251489959	 0.1050491632	 0.422561
O	 1.134077138	 1.6155159148	-0.2486760075	-0.340493
C	-1.1854338679	 2.1150363982	 0.1377623481	-0.104625
C	-1.962640148	 2.2455542277	-1.2038606332	-0.254605
C	-3.2468068348	 1.8663943659	-0.3989159421	-0.129385
N	-2.370043558	 1.4538169318	 0.746051995	-0.350289
H	-1.1420531286	-0.0605805219	 0.715700752	 0.303766
H	-2.662124202	 1.817325078	 1.6473364822	 0.240406
C	-4.1404317443	 2.9751173187	-0.1090174555	 0.329241
C	-4.8722005197	 3.8919295628	 0.1556072804	-0.463195
H	-0.9148856869	 3.0832994169	 0.567281501	 0.114306
H	-1.9629156733	 3.2311873097	-1.6639628283	 0.138426
H	-1.6862302775	 1.4924800534	-1.942807241	 0.133791
H	-3.8187691445	 1.0251979236	-0.8035408228	 0.117723
H	-5.5242401659	 4.6998055791	 0.3809842975	 0.210797
48.4563	91.3868	130.0479	196.2884	245.6595	312.437	424.665	509.1242	557.2292	614.9329	634.6178	666.53	718.0837	741.5707	793.6196	807.5658	870.1051	913.7663	975.7357	982.4107	1026.4963	1054.9994	1085.1705	1138.2209	1232.1341	1235.5153	1256.4632	1280.4802	1311.9225	1333.7347	1396.2993	1420.6009	1486.1555	1873.4168	2232.5762	3050.6575	3078.3685	3099.3041	3169.1821	3500.418	3501.6926	3533.2801
[O-]C(=O)C1CC([NH2+]1)C#C	OC(=O)[C@H]1C[C@@H](N1)C#C	
InChI=1S/C6H7NO2/c1-2-4-3-5(7-4)6(8)9/h1,4-5,7H,3H2,(H,8,9)	InChI=1S/C6H7NO2/c1-2-4-3-5(7-4)6(8)9/h1,4-5,7H,3H2,(H,8,9)/t4-,5+/m0/s1
