16
gdb 22764	2.02108	1.49946	1.00117	4.5968	73.56	-0.2582	-0.0222	0.236	1194.0464	0.123099	-434.006831	-433.997806	-433.996862	-434.040981	32.469	
C	-0.8164172044	 1.2876859706	 0.0428634357	-0.381728
C	-0.0469596655	-0.0214900257	-0.0338651567	-0.043969
N	 1.2440767971	 0.0491484029	-0.7942558677	-0.322759
C	 2.006090323	-0.6161501281	 0.2983187793	-0.227805
C	 3.2290126081	 0.0805741829	 0.7021571509	 0.32605
N	 4.1998527904	 0.6277299679	 1.0063064047	-0.327198
C	 0.7602198529	-0.4617143923	 1.1696330654	 0.401233
N	 0.4626218189	-0.6069377467	 2.3860470847	-0.221023
O	 1.5591708636	-1.0394839841	 3.1347253553	-0.378816
H	-0.1633336128	 2.094000992	 0.3850367663	 0.136109
H	-1.2102393071	 1.5545436705	-0.9427250286	 0.123114
H	-1.6568594158	 1.1925789749	 0.7370622292	 0.131814
H	-0.7077572804	-0.8292650731	-0.3822462177	 0.097247
H	 1.2570976364	-0.460206956	-1.6702552749	 0.232962
H	 2.2496139415	-1.6746044572	 0.127827632	 0.137465
H	 1.2104556939	-1.0567879684	 4.0331374321	 0.317302
59.8539	110.127	146.5	200.5183	228.5858	249.3676	304.5899	369.4513	456.0247	465.3158	524.4347	557.0933	597.3474	646.3838	777.5341	860.6377	909.6013	951.9016	1002.6307	1024.075	1067.5271	1074.7391	1120.2292	1159.1116	1189.033	1286.5559	1321.392	1372.7046	1381.7621	1406.7544	1418.889	1485.9047	1492.2943	1803.823	2362.1385	2991.3836	3005.8742	3043.3461	3115.7732	3131.9498	3548.3742	3812.7671
CC1NC(C#N)C1=NO	C[C@H]1N[C@@H](C#N)C1=NO	
InChI=1S/C5H7N3O/c1-3-5(8-9)4(2-6)7-3/h3-4,7,9H,1H3	InChI=1S/C5H7N3O/c1-3-5(8-9)4(2-6)7-3/h3-4,7,9H,1H3/t3-,4+/m1/s1
