21
gdb 113662	3.50813	0.8601	0.7874	1.4351	81.32	-0.2652	0.0141	0.2793	1565.895	0.181183	-424.257835	-424.247662	-424.246718	-424.293748	36.088	
C	 0.0469013085	 1.5818655143	 0.1096759301	-0.374008
C	 0.3813387076	 0.1040906775	-0.1270657536	-0.211942
C	 0.8351665998	-0.5831811316	 1.1444198064	 0.020128
C	-0.1367729917	-1.1509329873	 2.1276381896	-0.286311
C	 0.761843969	-2.0986469024	 1.3526606284	-0.172114
C	 0.1379191248	-2.9720614262	 0.3282138511	 0.458845
O	-0.8982563745	-2.7610745826	-0.2601214868	-0.380201
O	 0.8893598459	-4.0767761384	 0.1236825177	-0.238641
C	 0.372847865	-4.9940280469	-0.8468859323	-0.239138
H	 0.9121055785	 2.1316079343	 0.4973877186	 0.109588
H	-0.265681178	 2.0668953709	-0.8201438932	 0.112554
H	-0.7661479063	 1.6903628489	 0.8351247502	 0.118603
H	-0.4880213646	-0.4183919428	-0.5337590298	 0.135482
H	 1.1748377131	 0.0254978478	-0.8817861992	 0.094211
H	 1.7347661311	-0.1519196585	 1.5790871681	 0.090352
H	 0.0467584577	-1.0444019029	 3.1907203772	 0.11517
H	-1.1815092849	-1.1693211189	 1.835640109	 0.137168
H	 1.5964147613	-2.553355632	 1.8713755344	 0.101442
H	-0.6150749625	-5.3556986906	-0.5502328961	 0.139449
H	 0.288862082	-4.5154147506	-1.8259835619	 0.138705
H	 1.0853698282	-5.818309272	-0.8851098378	 0.130657
49.3796	85.3403	112.2	137.7398	155.637	213.0219	231.5291	258.1334	317.4022	385.5542	414.4377	486.9404	672.4788	764.4251	793.438	801.6467	838.4398	868.358	925.8992	950.3496	995.9512	1016.2559	1060.534	1079.0406	1103.2965	1127.528	1146.0661	1179.3666	1192.9702	1207.3077	1221.0934	1236.7547	1300.2531	1346.2974	1408.4517	1411.9386	1427.6184	1474.0553	1480.8648	1482.7786	1495.6156	1498.3812	1499.4661	1510.3342	1796.2922	3024.5085	3030.398	3050.3594	3087.0429	3105.7852	3108.0729	3123.916	3129.2956	3135.949	3156.0813	3189.8114	3228.0439
CCC1CC1C(=O)OC	CC[C@H]1C[C@H]1C(=O)OC	
InChI=1S/C7H12O2/c1-3-5-4-6(5)7(8)9-2/h5-6H,3-4H2,1-2H3	InChI=1S/C7H12O2/c1-3-5-4-6(5)7(8)9-2/h5-6H,3-4H2,1-2H3/t5-,6+/m0/s1
