17
gdb 47026	3.76352	1.33608	1.0331	5.4431	76.48	-0.2554	-0.0401	0.2152	1121.2224	0.137937	-421.855368	-421.848166	-421.847221	-421.887061	28.176	
O	 0.0115249215	-0.0253524873	-0.1464268733	-0.338607
C	 0.0023534006	 1.1657482704	 0.0231607716	 0.442934
O	-1.2037932335	 1.8125022831	 0.1101746742	-0.250227
C	-1.2645232572	 3.1605789012	 0.6175249007	-0.100023
C	-0.2317861292	 4.0181582625	-0.0885499472	-0.076698
C	 0.4907583786	 5.2299552455	 0.5925918404	-0.252224
C	 1.8659551361	 4.5933882712	 0.1823174563	-0.321933
C	 1.0987472433	 3.3133147596	-0.0428948673	 0.377832
C	 1.2251903122	 1.9995029386	 0.118962811	-0.422169
H	-2.2962785914	 3.4807610197	 0.455037812	 0.123116
H	-1.0693013828	 3.146259361	 1.698387503	 0.108274
H	-0.5467327804	 4.2627636962	-1.1094266485	 0.102377
H	 0.2661474777	 6.2227567606	 0.2005133694	 0.114653
H	 0.3525792334	 5.2293827748	 1.6765978101	 0.118587
H	 2.2479327745	 5.024778361	-0.7491283527	 0.129136
H	 2.674282794	 4.5771271422	 0.9167972265	 0.12581
H	 2.1579701126	 1.4753614695	 0.2896755038	 0.119161
108.3307	187.077	217.9674	304.2848	338.3866	445.176	465.9413	528.6233	651.3996	707.2294	734.6889	786.4065	817.247	844.2365	887.1568	916.744	922.6385	986.7719	1054.0208	1066.2282	1093.4942	1099.8284	1146.8003	1189.7261	1198.2305	1224.679	1239.7227	1261.6848	1280.3197	1305.9186	1358.8586	1411.0378	1465.5102	1486.4628	1506.0599	1743.3979	1826.7025	3016.4028	3044.2258	3051.6463	3072.0332	3102.9477	3109.1697	3134.8945	3206.8344
O=C1OCC2CCC2=C1	O=C1OC[C@H]2CC[C]2[CH]1	
InChI=1S/C7H8O2/c8-7-3-5-1-2-6(5)4-9-7/h3,6H,1-2,4H2	InChI=1S/C7H8O2/c8-7-3-5-1-2-6(5)4-9-7/h3,6H,1-2,4H2/t6-/m1/s1
