19
gdb 39838	2.83188	1.80574	1.42248	2.1194	78.9	-0.2185	0.0706	0.2891	971.8637	0.161628	-382.002135	-381.995157	-381.994212	-382.033157	29.374	
C	-0.0169271138	 1.439022078	-0.0362903413	-0.254696
C	 1.2701982262	 0.7010311267	 0.0322329074	-0.033212
C	 1.9100930289	 0.5242839357	 1.3929454178	-0.043463
N	 1.1474287946	 1.1261282204	 2.5101330107	-0.344817
C	 0.9923237826	-0.314650152	 2.2056174185	-0.140707
C	-0.1915101494	-0.6412303813	 1.3319034487	 0.403554
C	-0.8028978217	-2.0173565889	 1.3670355717	-0.322915
C	-1.5867831795	-0.8205017763	 1.857068466	-0.307364
N	-0.0143533602	-0.0363442486	 0.0080756561	-0.161295
H	-0.3142658809	 1.9839113779	 0.8530528716	 0.143843
H	-0.3539726569	 1.8508732942	-0.9836905434	 0.105312
H	 1.9132665318	 0.5991912965	-0.8373121927	 0.086863
H	 2.9892876192	 0.4495442129	 1.4641781586	 0.088293
H	 1.7620870223	 1.2345981489	 3.3140082934	 0.230483
H	 1.3464665477	-1.0470025655	 2.9252575263	 0.08699
H	-1.0805910887	-2.4434877626	 0.4102001192	 0.122727
H	-0.4341924953	-2.7293941126	 2.0986151172	 0.105676
H	-1.7513187762	-0.7037042865	 2.9226409048	 0.113817
H	-2.3958813204	-0.459453977	 1.2320796895	 0.12091
134.6448	215.4007	286.7934	342.9472	373.9009	481.0025	542.3333	582.4733	702.819	713.6647	769.6536	805.5008	812.2017	853.9397	871.7031	895.4067	901.0466	937.9599	949.8842	980.3532	1003.4484	1040.8374	1056.9798	1071.2684	1077.7803	1097.2242	1116.4923	1129.01	1146.7456	1166.6324	1189.9627	1229.5299	1242.5903	1294.3563	1303.1265	1374.9187	1377.0395	1426.662	1456.8553	1490.1068	1500.8212	3113.4396	3129.1896	3135.3764	3145.2843	3148.8452	3178.7284	3214.2823	3215.8175	3229.7873	3489.6435
C1C2C3NC3C3(CC3)N12	C1[C@H]2[C@H]3N[C@H]3C3(CC3)N12	
InChI=1S/C7H10N2/c1-2-7(1)6-5(8-6)4-3-9(4)7/h4-6,8H,1-3H2	InChI=1S/C7H10N2/c1-2-7(1)6-5(8-6)4-3-9(4)7/h4-6,8H,1-3H2/t4-,5+,6+,9?/m0/s1
