18
gdb 79789	3.80331	1.7297	1.60006	1.4499	73.08	-0.2097	0.0705	0.2802	888.3083	0.150148	-401.866356	-401.860109	-401.859164	-401.896667	26.485	
C	-0.2371036634	 1.5213661116	-0.0443276879	-0.329407
N	 0.0140206963	 0.0900073514	 0.0148122396	-0.075821
C	 1.1540903814	-0.4720741564	-0.7501165236	-0.039308
C	 2.4636031849	 0.2330012684	-0.2822952631	 0.076013
O	 3.4776650274	-0.8068537308	-0.2808226243	-0.29994
C	 2.7356576515	-1.345975709	 0.8285767737	 0.076621
C	 2.1737937723	 0.0388962617	 1.2475274486	-0.11015
C	 0.6818703656	-0.4740974557	 1.1986328536	-0.039797
C	 1.2818225875	-1.6133081854	 0.3264689074	-0.081016
H	 0.6261143014	 2.1467340809	 0.2414035665	 0.099602
H	-0.5338197381	 1.7951703069	-1.0622107537	 0.122788
H	-1.0680306216	 1.7700280878	 0.6242329096	 0.121835
H	 1.019449755	-0.6498274745	-1.8169842788	 0.076196
H	 2.7900558569	 1.1609782403	-0.7480918553	 0.085116
H	 3.2730688711	-2.0663721521	 1.442545153	 0.083551
H	 2.6106019168	 0.6991174053	 1.9918917504	 0.078316
H	 0.1160236614	-0.5943566226	 2.1220014191	 0.073392
H	 0.8256520336	-2.5837391378	 0.1574490653	 0.08201
193.9579	218.048	265.6392	475.8765	518.2793	581.8345	648.4634	735.1018	796.194	805.035	821.3039	850.437	852.7081	876.3254	891.4794	925.5271	943.0621	949.2625	976.0675	992.8542	1047.7609	1102.6281	1117.0821	1125.1989	1156.812	1163.4073	1173.3492	1183.1805	1211.4121	1223.2809	1231.8812	1260.6841	1272.5395	1284.8281	1304.478	1341.7469	1445.7689	1485.691	1503.3799	2958.3148	3060.7118	3099.9187	3117.2689	3118.7913	3135.6403	3136.4404	3157.7363	3169.8162
CN1C2C3OC4C3C1C24	CN1[C@H]2[C@@H]3O[C@H]4[C@@H]3[C@@H]1[C@@H]24	
InChI=1S/C7H9NO/c1-8-4-2-5(8)7-3(4)6(2)9-7/h2-7H,1H3	InChI=1S/C7H9NO/c1-8-4-2-5(8)7-3(4)6(2)9-7/h2-7H,1H3/t2-,3-,4-,5+,6+,7+/m0/s1
