17
gdb 57838	2.52042	1.09799	1.03685	2.0619	69.97	-0.2449	-0.111	0.1339	1269.5314	0.130906	-458.990577	-458.98013	-458.979186	-459.027447	34.977	
C	 0.3349052562	 1.2893853063	 0.8751222592	-0.396331
C	-0.1259415218	 0.2102083743	-0.1040736941	-0.086866
C	 0.3830436915	-1.1969758584	 0.2809952835	-0.404688
C	-1.6343820733	 0.1716287327	-0.2179023025	 0.318941
O	-2.413627226	 0.7741880213	 0.4811155999	-0.291112
C	-2.2359657983	-0.6404174623	-1.3798977692	 0.228022
O	-1.8271475516	-0.5490464741	-2.512578949	-0.2663
C	-3.4289255483	-1.5559367087	-1.0753570512	 0.089684
O	-3.6264459669	-2.0247753373	 0.0120548922	-0.203426
H	 1.4272201657	 1.3145725591	 0.9248491728	 0.115748
H	-0.0208255921	 2.277539519	 0.5725372083	 0.129412
H	-0.0520044537	 1.093839629	 1.8793191003	 0.134665
H	 0.2442492558	 0.4275191407	-1.1153136752	 0.11909
H	 0.0177236951	-1.4867779486	 1.2712395381	 0.138877
H	 0.0645863314	-1.9588281239	-0.4372330781	 0.1282
H	 1.4760776788	-1.2008241166	 0.3055555967	 0.132523
H	-4.0235638624	-1.8120139825	-1.9776859418	 0.11356
34.2455	48.8229	106.424	139.276	158.0409	190.2258	209.4688	260.2333	289.302	324.2221	395.8465	497.4939	541.8524	578.9364	696.4766	774.2416	871.3955	931.9502	957.0463	977.6876	1027.2207	1097.9047	1132.5295	1192.9684	1248.0387	1309.9713	1363.3449	1372.1093	1402.0357	1423.2919	1483.3194	1487.6228	1502.0814	1507.2186	1792.3561	1798.6479	1829.7876	2921.3548	3026.0814	3039.5806	3047.5302	3111.0165	3117.0756	3120.9738	3123.8853
CC(C)C(=O)C(=O)C=O	CC(C)C(=O)C(=O)C=O	
InChI=1S/C6H8O3/c1-4(2)6(9)5(8)3-7/h3-4H,1-2H3	InChI=1S/C6H8O3/c1-4(2)6(9)5(8)3-7/h3-4H,1-2H3
