18
gdb 32852	6.22333	0.80543	0.72401	1.1491	77.25	-0.1761	0.0459	0.222	1567.1255	0.148666	-435.299572	-435.290365	-435.289421	-435.334076	33.609	
C	-0.1263504017	 1.4443610067	 0.0281105328	-0.394894
C	 0.2259723001	-0.0360828533	-0.0672921615	-0.12181
N	 0.6978511766	-0.5305779916	 1.2217972733	-0.400111
C	 0.885582734	-1.863422212	 1.447061538	 0.519058
N	 1.6293536216	-2.4003797278	 2.3732621725	-0.413286
C	 1.4121318599	-3.7651629063	 2.2205420537	 0.270974
N	 2.1119390851	-4.6573340317	 3.0263455769	-0.599407
C	 0.5458596645	-3.9847456584	 1.2010170604	-0.148178
O	 0.2015537465	-2.7287088337	 0.6834894682	-0.195586
H	 0.7496878641	 2.0441802268	 0.3006767921	 0.118011
H	-0.4904999706	 1.8111014383	-0.9354838014	 0.124776
H	-0.9009737468	 1.6126483787	 0.7815796991	 0.132106
H	-0.6570774284	-0.6187115685	-0.3421079593	 0.134836
H	 0.9723349774	-0.1970929982	-0.8609352094	 0.104699
H	 1.3943886115	 0.034206178	 1.6857564874	 0.252333
H	 2.3667619605	-4.2324213018	 3.9080122359	 0.251207
H	 1.6367193079	-5.5367682202	 3.1732185653	 0.244275
H	 0.1131579979	-4.8382116249	 0.7141355159	 0.120998
51.2312	74.2999	133.6415	219.211	251.0413	266.3154	334.4051	344.6918	357.4165	499.7782	547.5167	570.8162	645.3821	689.1845	736.3699	771.8353	787.888	817.6656	921.4582	990.4186	1028.0288	1072.8246	1078.5892	1128.4238	1147.8607	1188.9433	1258.3274	1296.3685	1365.1988	1383.3151	1414.7165	1437.4511	1473.8335	1494.2941	1500.188	1524.879	1630.0309	1667.3654	1687.6312	2981.0206	3036.5012	3087.3571	3109.6138	3124.5217	3313.8953	3551.8841	3612.9417	3650.4589
CCNC1=NC(N)=CO1	CCNc1nc(N)co1	
InChI=1S/C5H9N3O/c1-2-7-5-8-4(6)3-9-5/h3H,2,6H2,1H3,(H,7,8)	InChI=1S/C5H9N3O/c1-2-7-5-8-4(6)3-9-5/h3H,2,6H2,1H3,(H,7,8)
