18
gdb 90310	2.63266	1.61777	1.06505	3.7514	80.14	-0.2052	0.0022	0.2075	1130.7137	0.148072	-401.973076	-401.964969	-401.964025	-402.0061	30.705	
C	-0.5876388115	 1.4945474597	-0.4891943886	-0.401276
C	 0.0362412513	 0.179470543	-0.0626439843	 0.053153
C	 1.3335633864	-0.3141655541	-0.8192911042	-0.406386
C	 2.0051892565	-0.3214269742	 0.5448731031	 0.396208
C	 2.9652064078	-0.6538382738	 1.4093326815	-0.316275
C	 2.4206264887	-0.2863102243	 2.7825183136	-0.378191
C	 0.9567895114	 0.1996780734	 2.5368227503	 0.369992
O	 0.1092102469	 0.4825120198	 3.3488486936	-0.368784
N	 0.8805510788	 0.2355764853	 1.1575765116	-0.098213
H	 0.172188962	 2.2772594518	-0.5745658856	 0.125479
H	-1.0831002418	 1.3810125188	-1.459055391	 0.12323
H	-1.3347320256	 1.8193205532	 0.2408008653	 0.145296
H	-0.7243454013	-0.6049432476	 0.0157693663	 0.104756
H	 1.256534447	-1.2823814973	-1.3168655147	 0.132521
H	 1.7311925866	 0.4213994677	-1.5232667687	 0.12975
H	 3.9213334654	-1.1137184021	 1.2153020318	 0.105131
H	 2.4030694137	-1.1265990135	 3.4855188055	 0.141314
H	 2.9763452377	 0.5213294942	 3.2748929045	 0.142296
61.6941	115.0633	194.2814	224.8319	256.5989	385.5144	406.6976	503.589	555.5106	598.0869	632.4302	691.4239	711.2651	747.5056	824.5345	903.4128	935.6025	940.2256	963.6906	1045.4852	1064.6409	1074.4491	1108.5196	1140.9917	1181.1958	1198.4099	1225.8559	1246.0566	1268.256	1310.0397	1357.6706	1380.3213	1411.5423	1438.5551	1472.5365	1485.4145	1495.9955	1720.6432	1827.7361	3038.3407	3039.921	3048.4938	3072.5167	3076.9311	3112.1266	3118.8849	3128.7449	3253.9111
CC1CC2=CCC(=O)N12	C[C@H]1CC2=CCC(=O)N12	
InChI=1S/C7H9NO/c1-5-4-6-2-3-7(9)8(5)6/h2,5H,3-4H2,1H3	InChI=1S/C7H9NO/c1-5-4-6-2-3-7(9)8(5)6/h2,5H,3-4H2,1H3/t5-/m0/s1
