19
gdb 102200	2.98511	0.8711	0.76416	3.2857	79.67	-0.3288	0.0044	0.3332	1492.4206	0.158318	-382.110237	-382.100096	-382.099152	-382.14697	35.285	
C	 0.5232853626	-0.8976740086	 1.3129389021	-0.3933
C	 0.010767108	-0.1428794817	 0.0804968994	-0.204948
C	 0.7705381172	-0.3996123964	-1.2361956569	 0.007294
C	 2.2587826601	 0.0256113359	-1.1780408739	-0.358434
C	 2.4313124451	 1.4375413709	-0.845302306	 0.267166
N	 2.5528823049	 2.5562562547	-0.5828782151	-0.304005
C	 0.7119228965	-1.8763391087	-1.699778958	-0.35843
C	-0.6548729723	-2.3570738552	-1.8863053173	 0.267162
N	-1.7411198062	-2.7234171419	-2.0313201633	-0.304001
H	 0.4648461521	-1.9841305225	 1.1898057327	 0.122666
H	 1.5585052105	-0.6390938008	 1.5587412862	 0.122672
H	-0.0851771362	-0.6420588283	 2.184735182	 0.134135
H	-1.0418732393	-0.3956946281	-0.0859873814	 0.131906
H	 0.0394217168	 0.9339595717	 0.2786900776	 0.131907
H	 0.2897227094	 0.2046705574	-2.0135385635	 0.117791
H	 2.8020031629	-0.5739966664	-0.438746282	 0.15648
H	 2.7398408627	-0.1589203565	-2.1455659868	 0.153729
H	 1.2479979604	-1.9932832358	-2.6487369417	 0.153728
H	 1.2129553746	-2.5277744298	-0.9746768942	 0.15648
23.4077	55.9794	108.8181	121.8197	183.7255	241.2688	255.4037	311.2602	356.9237	394.0958	397.9248	476.2417	527.1071	608.2497	773.7497	774.5115	888.0932	902.6311	959.3089	983.8443	988.0939	995.1572	1094.106	1123.7494	1147.7382	1215.7918	1237.2907	1287.3298	1311.0914	1344.8037	1368.5605	1388.7632	1390.0458	1415.9819	1461.4129	1473.0435	1488.1846	1503.5173	1507.2767	2363.1126	2363.477	3035.5566	3040.688	3042.4594	3046.2595	3053.0709	3076.8274	3080.5815	3085.3781	3106.8063	3112.9029
CCC(CC#N)CC#N	CCC(CC#N)CC#N	
InChI=1S/C7H10N2/c1-2-7(3-5-8)4-6-9/h7H,2-4H2,1H3	InChI=1S/C7H10N2/c1-2-7(3-5-8)4-6-9/h7H,2-4H2,1H3
