19
gdb 98083	3.27177	0.98484	0.84202	1.2733	73.36	-0.2477	-0.0687	0.179	1438.9526	0.155673	-460.211784	-460.201086	-460.200142	-460.248643	36.48	
C	-0.228994597	 1.431960754	-0.2017771627	-0.242716
O	-0.0921898848	 0.003705363	-0.1659725303	-0.205944
C	 0.5231236833	-0.5362921765	-1.2172074	 0.377742
O	 0.9533254965	 0.0803481216	-2.162063223	-0.35539
C	 0.6404251954	-2.0772438048	-1.0790421201	 0.262458
O	 0.3275525241	-2.6216120806	-0.05129669	-0.282171
C	 1.1660817387	-2.7924084661	-2.3117755162	-0.061193
C	 1.6586769111	-4.1976564334	-1.9627070315	-0.392565
C	 0.0574943943	-2.8171714737	-3.3889623285	-0.40162
H	 0.7536908745	 1.9084166989	-0.2420911585	 0.145765
H	-0.8056168262	 1.7387919276	-1.0780608597	 0.144558
H	-0.750140334	 1.7014332236	 0.7159927481	 0.143442
H	 1.9864304167	-2.1826953253	-2.707135815	 0.111577
H	 0.8490477587	-4.7997851292	-1.5414089101	 0.132236
H	 2.0346538023	-4.6998179751	-2.8588782371	 0.111363
H	 2.4635068279	-4.1660250857	-1.2229684536	 0.121916
H	-0.8117144146	-3.3846409643	-3.0401353351	 0.126494
H	-0.263995832	-1.8074815255	-3.6543610964	 0.13817
H	 0.4360224151	-3.3010810386	-4.2938596402	 0.125877
31.654	63.3744	118.4603	140.8644	155.0624	199.4702	215.7806	244.5461	294.3789	301.7542	345.5531	406.2142	509.4637	530.6954	687.1558	811.6953	825.1799	876.2524	932.6309	960.3186	973.8605	1072.0706	1104.8665	1131.1175	1177.2348	1195.9489	1210.5429	1294.7467	1314.4608	1368.5224	1397.0656	1418.582	1472.4331	1482.1825	1486.6714	1488.0395	1493.1504	1501.4163	1512.4543	1799.4919	1820.1181	3039.7693	3045.2972	3052.383	3053.6649	3110.51	3115.8458	3122.5898	3128.8974	3130.1569	3167.8633
COC(=O)C(=O)C(C)C	COC(=O)C(=O)C(C)C	
InChI=1S/C6H10O3/c1-4(2)5(7)6(8)9-3/h4H,1-3H3	InChI=1S/C6H10O3/c1-4(2)5(7)6(8)9-3/h4H,1-3H3
