23
gdb 108178	3.07287	1.34577	1.24928	0.2041	89.05	-0.2314	0.0248	0.2562	1156.9919	0.208464	-351.175238	-351.167122	-351.166178	-351.207453	33.507	
C	 0.0762701114	 1.5471186666	-0.0210477896	-0.389013
C	-0.0323024452	 0.0175866992	 0.0176551228	-0.278125
C	-1.4577548966	-0.524184388	 0.0397369482	 0.316903
C	-2.3573062083	-0.1325058424	-1.1906357657	-0.231335
C	-3.5187467266	-1.1700764437	-1.1375810359	-0.211714
C	-3.1581258217	-2.0281594103	 0.1221227587	-0.065787
C	-1.6199368685	-2.066621486	-0.0018951446	-0.24875
C	-3.305230798	-1.1057245087	 1.3220344863	-0.089358
C	-2.3093735487	-0.2161975573	 1.2702924272	-0.107395
H	 1.1241677195	 1.8628307536	-0.0242975265	 0.111015
H	-0.3968852932	 1.9599129211	-0.9176313346	 0.118779
H	-0.4029340535	 2.0096995855	 0.8483125296	 0.11566
H	 0.4862144875	-0.3993723496	-0.8563765065	 0.089529
H	 0.5034897993	-0.3611419741	 0.8977543211	 0.093224
H	-2.7109165778	 0.8988425604	-1.1252391885	 0.095877
H	-1.7832209029	-0.225842061	-2.1192625834	 0.090489
H	-4.5025970619	-0.7035930972	-1.0460653647	 0.094247
H	-3.5325441919	-1.7964878397	-2.0350443243	 0.093557
H	-3.6818107937	-2.9831293513	 0.1797410794	 0.05479
H	-1.2663137795	-2.5096257788	-0.9405405745	 0.080889
H	-1.1350312751	-2.561973387	 0.8438295733	 0.090009
H	-4.1415326291	-1.1170565742	 2.0106678884	 0.088477
H	-2.1678784756	 0.6460469629	 1.9109811939	 0.088032
96.8553	182.4173	205.3111	251.2113	323.4743	363.7044	398.2229	478.9537	497.8843	599.3629	672.9113	737.0061	774.7722	785.2639	800.8414	827.3904	870.349	916.9686	923.6375	932.2977	952.1943	959.4927	978.6038	998.0888	1032.9684	1049.636	1095.7168	1114.0892	1136.6847	1152.4029	1176.355	1210.4375	1232.134	1256.2405	1260.2216	1292.2211	1303.8288	1321.316	1330.4285	1375.146	1377.3076	1412.5693	1483.195	1485.5692	1489.3353	1501.5726	1507.1886	1511.8535	1644.4101	3010.3335	3033.226	3035.7217	3039.0592	3042.9489	3055.0312	3089.6284	3097.3641	3101.5793	3104.6784	3105.563	3108.4402	3187.6104	3213.7793
CCC12CCC(C1)C=C2	CC[C@@]12CC[C@@H](C1)C=C2	
InChI=1S/C9H14/c1-2-9-5-3-8(7-9)4-6-9/h3,5,8H,2,4,6-7H2,1H3	InChI=1S/C9H14/c1-2-9-5-3-8(7-9)4-6-9/h3,5,8H,2,4,6-7H2,1H3/t8-,9+/m0/s1
