19
gdb 31998	3.66215	1.26078	0.96137	1.938	85.69	-0.1642	0.0532	0.2174	1240.4036	0.161484	-382.060837	-382.052509	-382.051565	-382.094033	31.341	
C	-0.1319616344	 1.4690737311	-0.0268632681	-0.318999
N	 0.0430807855	 0.0304867071	 0.0954673654	-0.387439
C	 0.6607892584	-0.607258913	-0.9845529969	 0.300971
C	 1.2333426049	-0.121226001	-2.1522273761	-0.220688
C	 1.8233667242	-1.217995529	-2.8792387264	-0.303224
C	 1.5253413184	-2.3372449797	-2.1518283469	 0.283847
C	 1.7920737555	-3.7343776673	-1.6127353477	-0.358593
C	 1.1035647329	-3.214086408	-0.2961436327	-0.176937
N	 0.8092422349	-1.9675914127	-1.0317710356	-0.068344
H	 0.8501371349	 1.9454397205	-0.1078132469	 0.136519
H	-0.7260729508	 1.7716151995	-0.9044464308	 0.110102
H	-0.6205264911	 1.8478480064	 0.8742612297	 0.118788
H	-0.8168433532	-0.4311947287	 0.365554744	 0.230991
H	 1.1926707446	 0.9047539373	-2.4846611906	 0.08406
H	 2.3734860766	-1.1463407964	-3.8045982354	 0.08854
H	 1.2671964241	-4.5578624821	-2.1057735092	 0.116038
H	 2.8428503355	-4.0085686056	-1.4902520982	 0.121869
H	 0.216835019	-3.7545571835	 0.0473533095	 0.114264
H	 1.79356666	-3.068808235	 0.540144673	 0.128236
77.064	107.0582	175.7963	189.5887	231.8884	320.8916	344.9656	550.3614	585.0377	627.6492	642.3603	707.9669	742.3347	769.4794	782.7715	806.9715	832.7634	909.6682	1022.7829	1031.0885	1048.6169	1087.4971	1124.2981	1141.1463	1158.3389	1182.6833	1194.5158	1221.2238	1244.2558	1267.9642	1306.6623	1383.4536	1413.6874	1453.7123	1482.2339	1486.7262	1495.2554	1517.4752	1523.4363	1581.2232	1603.2935	2972.1145	3048.1626	3055.478	3071.5747	3093.7784	3109.175	3118.3982	3240.9273	3255.5235	3541.9562
CNC1=CC=C2CCN12	CNc1ccc2CCn12	
InChI=1S/C7H10N2/c1-8-7-3-2-6-4-5-9(6)7/h2-3,8H,4-5H2,1H3	InChI=1S/C7H10N2/c1-8-7-3-2-6-4-5-9(6)7/h2-3,8H,4-5H2,1H3
