15
gdb 11852	6.8534	1.17146	1.09191	3.598	64.18	-0.2492	0.0157	0.2649	1051.4964	0.118253	-399.777699	-399.770271	-399.769327	-399.810333	26.308	
O	 0.1780881429	 0.0742373007	 0.7532076766	-0.32711
C	 0.1358360032	 1.2467661979	 0.4433608949	 0.136388
N	 1.1247418822	 1.8993753492	-0.2082429275	-0.056603
C	 2.490627325	 1.446659436	-0.497348077	-0.250364
C	 2.8432777771	 2.9238153732	-0.7386750749	 0.412507
C	 4.0854251388	 3.6579899831	-0.5227417664	-0.254414
O	 3.5787242311	 3.3872176096	-1.8427871977	-0.253595
C	 1.3827991132	 3.3246638095	-0.458742865	-0.261323
H	-0.7288178778	 1.9086955019	 0.6555484043	 0.071972
H	 2.9799298012	 0.9536616373	 0.3486843755	 0.133731
H	 2.5719481042	 0.8122299344	-1.3860793824	 0.137505
H	 4.0524248615	 4.7027298899	-0.2172330133	 0.124915
H	 4.9923920489	 3.1193080664	-0.2529317175	 0.128019
H	 0.8621507881	 3.7319299461	-1.3326876091	 0.133097
H	 1.2200328503	 3.9786161047	 0.4051768995	 0.125276
37.1352	128.7042	172.9411	281.2286	330.4884	373.7432	387.8469	469.576	638.1	804.8276	849.1192	867.7051	914.8575	946.2287	976.8127	1033.1568	1114.3803	1122.7959	1125.4747	1147.5528	1161.8687	1181.6544	1195.7273	1275.5719	1291.8304	1393.4668	1435.3915	1468.3632	1494.9571	1513.6406	1548.2633	1792.519	2924.4364	3028.464	3044.9838	3078.1954	3086.4234	3093.1397	3175.5026
O=CN1CC2(CO2)C1	O=CN1CC2(CO2)C1	
InChI=1S/C5H7NO2/c7-4-6-1-5(2-6)3-8-5/h4H,1-3H2	InChI=1S/C5H7NO2/c7-4-6-1-5(2-6)3-8-5/h4H,1-3H2
