18
gdb 65826	2.55636	1.27695	1.18491	3.6045	78.05	-0.2419	0.0229	0.2649	1149.2625	0.146985	-401.968731	-401.959895	-401.958951	-402.00208	33.845	
C	-0.0759319745	 1.5725955252	-0.0213064945	-0.426501
C	 0.0204195717	 0.0397292326	-0.0188517331	 0.060932
C	 0.8266146146	-0.5111400134	-1.237559957	-0.23835
C	 1.5049383858	-1.7791255912	-0.7052892827	-0.336409
C	 1.6205384348	-1.5437893065	 0.8032760776	 0.409828
O	 2.2570723287	-2.1864841477	 1.6054544104	-0.372352
N	 0.8445666976	-0.4435741723	 1.0914309089	-0.304719
C	-1.3303462307	-0.5470092303	 0.0307612898	 0.361233
C	-2.4350549904	-1.018525363	 0.082556248	-0.497576
H	 0.9280246274	 2.0055272999	-0.0186094194	 0.125695
H	-0.6127352361	 1.9152318096	-0.9103099135	 0.133009
H	-0.6185964895	 1.9320697196	 0.8577157019	 0.126896
H	 0.178798352	-0.6787900633	-2.0986126743	 0.119286
H	 1.5775369992	 0.235463892	-1.5127505567	 0.112711
H	 0.8846477569	-2.6697777205	-0.8537687846	 0.140016
H	 2.4841990134	-1.9829782415	-1.1410257488	 0.132101
H	 0.5987808406	-0.2514321555	 2.0514377955	 0.250631
H	-3.4076780815	-1.4428724937	 0.1310010625	 0.203571
77.3796	119.0325	191.6567	199.5165	243.8326	300.9245	401.0809	457.3146	477.1136	513.0673	541.0497	595.265	613.2334	640.1086	651.0935	663.2259	747.8792	827.5459	904.3686	920.7438	965.0721	1011.1945	1022.6516	1117.3406	1132.3559	1177.1774	1221.5448	1241.9066	1288.3455	1314.1376	1343.3325	1398.2845	1409.7529	1466.4805	1484.5757	1489.9926	1497.5786	1836.335	2228.5664	3042.5987	3060.2115	3063.5704	3119.1068	3122.5279	3126.4457	3132.2514	3498.9833	3621.3913
CC1(CCC(=O)N1)C#C	C[C@]1(CCC(=O)N1)C#C	
InChI=1S/C7H9NO/c1-3-7(2)5-4-6(9)8-7/h1H,4-5H2,2H3,(H,8,9)	InChI=1S/C7H9NO/c1-3-7(2)5-4-6(9)8-7/h1H,4-5H2,2H3,(H,8,9)/t7-/m1/s1
