20
gdb 62469	2.34396	1.53271	1.28124	2.5225	80.57	-0.2479	0.0325	0.2804	1110.3525	0.169145	-403.143348	-403.134131	-403.133187	-403.176795	35.23	
C	-0.1538887123	 1.4855864178	 0.0329715789	-0.440228
C	-0.0716510617	-0.0402772087	 0.0011732789	 0.035085
C	-1.3989635578	-0.6842467776	-0.3982228911	-0.440259
C	 1.1293300023	-0.5762637488	-0.7694316728	 0.428905
N	 1.4855065517	-0.5420373637	-1.9708707287	-0.558241
O	 1.7350613882	-1.1429185446	 0.3350417842	-0.290778
C	 0.654914448	-0.6934163114	 1.1905520295	 0.455205
C	 0.9242329544	-0.2305264337	 2.5770245203	-0.339308
C	 0.175684752	-1.5355472367	 2.3176211482	-0.339296
H	 0.7988630547	 1.9315570507	 0.3310924169	 0.126642
H	-0.4124013983	 1.8678327257	-0.9587284332	 0.137739
H	-0.9239870953	 1.8175073461	 0.7380320327	 0.113768
H	-1.6878619451	-0.3564714752	-1.4009746713	 0.137763
H	-1.3284300589	-1.7753413465	-0.4047422924	 0.126632
H	-2.1945437468	-0.395681339	 0.2975578859	 0.113762
H	 2.37485166	-1.023927808	-2.1131198917	 0.226038
H	 1.9450248101	-0.303467902	 2.9360392784	 0.131128
H	 0.3680413021	 0.6204123658	 2.9565754532	 0.122157
H	-0.8896373612	-1.5722047102	 2.5207211897	 0.122159
H	 0.7069741239	-2.46187656	 2.5070217148	 0.131128
85.446	176.7496	193.9425	203.3858	209.1592	239.6142	278.4814	320.1751	349.5921	514.7732	515.1595	550.6897	668.1192	693.6364	758.563	784.3969	864.4626	866.326	885.794	962.1136	962.9801	989.2812	994.0343	1016.5431	1036.6011	1048.808	1075.0917	1160.7925	1183.4784	1205.3571	1216.5286	1245.2039	1336.1726	1382.1527	1400.3276	1422.5653	1449.937	1481.2907	1484.0818	1496.1305	1502.6736	1509.4	1826.6736	3033.5832	3037.3551	3103.4082	3106.862	3118.7476	3121.2312	3130.7777	3132.6147	3213.5915	3226.8207	3474.1989
CC1(C)C(=N)OC11CC1	CC1(C)[C]([NH])OC21CC2	
InChI=1S/C7H11NO/c1-6(2)5(8)9-7(6)3-4-7/h8H,3-4H2,1-2H3	InChI=1S/C7H11NO/c1-6(2)5(8)9-7(6)3-4-7/h8H,3-4H2,1-2H3
