20
gdb 126579	5.31287	0.67437	0.64117	3.1055	82.53	-0.2501	-0.0058	0.2443	1796.7485	0.171151	-403.159239	-403.150097	-403.149153	-403.194549	32.792	
C	 0.05561725	 1.5755716191	-0.135694369	-0.383352
C	 0.020226067	 0.0496049418	-0.0177971165	-0.165881
C	 0.7180535385	-0.4672476347	 1.2438202705	-0.158803
C	 0.6798020822	-2.0038235627	 1.3573674678	-0.323475
C	 1.3661699417	-2.5223722784	 2.575003556	 0.438987
C	 0.9380220605	-3.1687022174	 3.6950814978	-0.341897
C	 2.1250395844	-3.3491410442	 4.4524457622	 0.03552
N	 3.1789526319	-2.8578045496	 3.8501288011	-0.142038
O	 2.6972923514	-2.3296174237	 2.6525847338	-0.211164
H	 1.0860679787	 1.9458108667	-0.1685200496	 0.118738
H	-0.450074966	 1.9164459541	-1.0443057528	 0.114046
H	-0.4385296668	 2.0505060818	 0.7190022632	 0.116005
H	-1.0223888481	-0.2955389071	-0.023574172	 0.095235
H	 0.4927744261	-0.398570933	-0.9018822168	 0.098677
H	 1.7630193762	-0.1361548283	 1.2538966988	 0.11903
H	 0.2474998568	-0.0302885671	 2.1337418622	 0.102205
H	-0.357529416	-2.353900727	 1.3745116456	 0.116147
H	 1.1488273024	-2.4434614133	 0.4678801566	 0.126471
H	-0.0665203881	-3.470727188	 3.9394560147	 0.11565
H	 2.2479848173	-3.822646309	 5.4165686763	 0.129898
43.966	78.5622	89.0905	124.3735	236.0101	246.4079	310.8317	332.9428	428.4208	648.2337	671.7478	736.1708	746.7015	793.1617	809.5886	903.234	916.1192	919.2021	939.0595	949.0528	1001.0087	1022.9424	1054.3938	1062.0184	1102.5824	1123.5048	1212.8565	1229.2739	1267.8352	1279.5974	1313.3081	1332.0653	1358.0287	1386.9366	1397.0537	1414.4848	1474.0539	1486.0566	1498.3843	1500.1466	1511.9249	1515.2021	1634.3683	3012.501	3023.8167	3031.3998	3035.1281	3040.9937	3066.8805	3089.3047	3099.9885	3104.458	3241.3389	3279.7468
CCCCC1=CC=NO1	CCCCc1ccno1	
InChI=1S/C7H11NO/c1-2-3-4-7-5-6-8-9-7/h5-6H,2-4H2,1H3	InChI=1S/C7H11NO/c1-2-3-4-7-5-6-8-9-7/h5-6H,2-4H2,1H3
