19
gdb 26293	3.3163	1.06046	0.97411	3.4342	80.19	-0.1871	0.0358	0.2229	1308.2062	0.158787	-419.244937	-419.235498	-419.234554	-419.279562	34.633	
C	-0.0688633716	 1.5486254399	 0.0363475522	-0.384729
C	-0.018255428	 0.008192418	 0.0494851228	-0.095511
C	 0.7122170597	-0.512462605	 1.3028687909	-0.384738
C	-1.3817240398	-0.5810951254	-0.0686772399	 0.373695
C	-1.9826835805	-1.363951187	-0.9728841768	-0.222843
N	-3.2868127099	-1.5852288347	-0.5279722079	-0.330167
C	-3.4904288361	-0.9296054153	 0.664925264	 0.457605
N	-4.5564346273	-0.9118314261	 1.3511929013	-0.609186
O	-2.2926158245	-0.3004822131	 0.9505478031	-0.258083
H	 0.9408725244	 1.9657548355	 0.1005798445	 0.112538
H	-0.5376719062	 1.9198237053	-0.8795225665	 0.117776
H	-0.6464790004	 1.9224219655	 0.886940882	 0.132959
H	 0.5333946015	-0.3278227398	-0.8375190893	 0.086971
H	 0.7972701319	-1.6028024725	 1.285114501	 0.117783
H	 1.7194682983	-0.0887763716	 1.3630431896	 0.112537
H	 0.1694982015	-0.2306998072	 2.2100258494	 0.132965
H	-1.6059764386	-1.783951518	-1.8893998366	 0.144779
H	-4.0028372035	-2.1286219907	-0.9729522868	 0.274003
H	-4.433937451	-0.3506363879	 2.189331443	 0.221646
52.5029	102.6467	123.3465	162.2149	221.4454	257.728	302.4326	320.0852	428.3215	434.6415	505.9294	618.306	658.3391	709.2751	735.3209	754.6235	758.9701	880.3397	928.029	943.4617	961.0065	961.351	1029.092	1071.5817	1101.0101	1118.4077	1179.5994	1218.042	1269.1685	1325.0485	1336.5331	1388.7612	1393.5853	1408.7204	1418.9066	1485.5104	1491.9396	1500.3849	1513.3095	1721.7872	1792.1498	3031.0243	3037.5349	3041.0738	3109.6274	3113.3072	3115.8821	3120.0044	3287.1514	3544.9699	3715.1389
CC(C)C1=CNC(=N)O1	CC(C)C1=CN[C@@H]([NH])O1	
InChI=1S/C6H10N2O/c1-4(2)5-3-8-6(7)9-5/h3-4H,1-2H3,(H2,7,8)	InChI=1S/C6H11N2O/c1-4(2)5-3-8-6(7)9-5/h3-4,6-8H,1-2H3/t6-/m1/s1
