23
gdb 111783	2.81765	1.17703	1.06539	1.3702	85.48	-0.2596	0.0783	0.338	1276.2719	0.20767	-388.276941	-388.268108	-388.267164	-388.310299	34.793	
C	-0.1914337847	 1.6364965364	 0.7157557742	-0.439738
C	-0.0423110605	 0.179224971	 0.3007205605	 0.049583
C	 0.9672934034	-0.2736577804	-0.8050817958	-0.05831
C	 2.3178511923	 0.2361573404	-0.2594304937	-0.220137
C	 2.162543465	-0.2081535456	 1.2363357852	-0.222727
C	 0.7629687812	-0.8521988166	 1.1552967063	-0.027858
C	 0.9127799577	-1.6925005891	-0.1538522349	 0.069755
C	-0.21830021	-2.6238252121	-0.546728838	-0.139542
O	-0.2138628607	-3.7060687469	 0.3792013136	-0.422405
H	 0.7603782165	 2.1174297365	 0.9551548465	 0.116942
H	-0.6623356752	 2.2198451528	-0.0838856997	 0.111741
H	-0.8325400321	 1.7198584028	 1.6007959135	 0.113768
H	-1.0358473715	-0.2174955479	 0.0813609858	 0.066182
H	 0.76587949	-0.1163951462	-1.8670328248	 0.048443
H	 3.1653100696	-0.2461421449	-0.7547556902	 0.093324
H	 2.4400784349	 1.3165676321	-0.3733630468	 0.093421
H	 2.9248157639	-0.931640875	 1.5388686268	 0.096189
H	 2.2073620334	 0.6303506039	 1.9365253524	 0.092917
H	 0.3540051959	-1.2901369888	 2.0660157198	 0.062156
H	 1.8452121787	-2.2656650844	-0.2169997602	 0.063279
H	-1.1931321726	-2.1159608679	-0.5479802841	 0.086507
H	-0.0419617852	-2.9841091472	-1.5738594473	 0.081864
H	-0.90261409	-4.324831313	 0.1194025307	 0.284646
71.0264	157.9516	182.6761	230.2322	265.5462	281.018	306.6628	346.6287	406.3569	523.3406	573.1883	678.0544	725.6366	791.3803	822.4893	851.3938	895.6546	906.0301	943.7528	957.9029	993.7368	1012.8342	1031.3147	1055.9133	1060.3232	1068.6715	1085.9052	1132.0598	1153.1762	1166.7907	1187.9599	1205.8998	1217.7627	1251.6909	1264.5848	1267.259	1278.4649	1285.9975	1315.5265	1327.6335	1398.799	1407.01	1413.611	1463.5289	1486.6859	1495.1337	1510.5726	1521.003	1522.5882	2963.095	3003.0937	3030.5132	3037.8932	3052.5373	3060.9322	3077.8531	3085.3766	3087.3041	3090.3534	3104.74	3115.5261	3119.64	3828.1566
CC1C2CCC1C2CO	C[C@H]1[C@H]2CC[C@@H]1[C@H]2CO	
InChI=1S/C8H14O/c1-5-6-2-3-7(5)8(6)4-9/h5-9H,2-4H2,1H3	InChI=1S/C8H14O/c1-5-6-2-3-7(5)8(6)4-9/h5-9H,2-4H2,1H3/t5-,6+,7-,8-
