20
gdb 74397	2.83737	1.50259	1.16481	2.2477	80.52	-0.2095	0.0147	0.2242	1116.2164	0.171554	-403.123511	-403.115364	-403.114419	-403.155512	33.012	
C	-0.0001065595	 1.5194301651	 0.0321554658	-0.484942
C	 0.0104688224	 0.0212767997	-0.0300110127	 0.306351
C	 0.0115406018	-0.7054819962	-1.1495764082	-0.251809
C	 0.0169799467	-2.2202755683	-1.0288889464	 0.377053
O	-0.0518529828	-2.9057094517	-2.2483919649	-0.491969
C	-1.0174552918	-2.5985697875	 0.0509892083	-0.20097
N	 0.0120437854	-2.2274873797	 1.0921705332	-0.122501
C	 1.0586261885	-2.5887668573	 0.0669804656	-0.228581
C	 0.0077031809	-0.7629589177	 1.2769931399	-0.260903
H	 0.8763186551	 1.9013819205	 0.5717405769	 0.1249
H	-0.0041857233	 1.9643341677	-0.9667260435	 0.122941
H	-0.8812077903	 1.8886062346	 0.5728643538	 0.126032
H	-0.0114251627	-0.2617142448	-2.1423310858	 0.077979
H	 0.5863632624	-2.5156562942	-2.8556547874	 0.27511
H	-1.9552273243	-2.0389136564	 0.086562297	 0.101402
H	-1.2111851346	-3.6742760217	 0.0971633267	 0.10895
H	 1.2647318695	-3.6623153156	 0.1154753149	 0.105187
H	 1.9882933011	-2.0156298123	 0.1190273323	 0.094261
H	 0.8807275186	-0.4905743575	 1.8861565031	 0.110314
H	-0.8732927531	-0.4935261066	 1.8759389013	 0.111196
156.7724	187.4237	244.6823	268.7763	274.3827	378.7422	414.0879	424.5288	439.6525	477.6667	521.2174	590.0727	648.5804	793.009	813.5454	874.2744	885.7874	920.0506	941.4147	979.0203	986.758	1029.6028	1046.6284	1051.0491	1073.6148	1122.3649	1129.4091	1183.5815	1229.4663	1239.945	1272.9659	1276.0593	1277.9695	1343.395	1357.6194	1375.2376	1413.8678	1472.2246	1478.9761	1486.9801	1489.5865	1516.707	1723.7219	3005.2107	3015.1656	3035.2562	3042.2359	3052.3355	3059.8409	3107.9923	3108.3571	3114.4948	3151.2513	3800.0956
CC1=CC2(O)CN(C2)C1	CC1=C[C@]2(O)CN(C2)C1	
InChI=1S/C7H11NO/c1-6-2-7(9)4-8(3-6)5-7/h2,9H,3-5H2,1H3	InChI=1S/C7H11NO/c1-6-2-7(9)4-8(3-6)5-7/h2,9H,3-5H2,1H3
