19
gdb 70259	3.5232	1.18055	1.01242	1.4972	81.62	-0.233	0.0353	0.2683	1223.5484	0.158138	-385.849036	-385.840458	-385.839514	-385.881966	33.519	
C	-0.5151623695	 1.5890484706	 0.4582759044	-0.465943
C	-0.0247144295	 0.1948141143	 0.1941906155	 0.458156
C	-0.8594687545	-1.0337712756	 0.4701017154	-0.351484
C	 0.4384286059	-0.7925242193	 1.2292197802	-0.11841
C	 1.7008778904	-1.4209905205	 0.6730203915	-0.251722
C	 1.6427554653	-1.038994595	-0.8363818114	-0.07621
O	 0.8398995676	 0.1448942262	-0.9217714783	-0.300773
C	 2.9464032667	-0.8063772965	-1.4437378117	 0.294562
C	 4.0318555289	-0.6493957087	-1.9337554733	-0.410943
H	 0.3271693687	 2.2703547681	 0.6138614682	 0.127016
H	-1.1009187368	 1.9608002302	-0.3887575971	 0.129566
H	-1.1510880572	 1.609269154	 1.3474571007	 0.116713
H	-1.7829283897	-0.8907733396	 1.0211173129	 0.110084
H	-0.9039280187	-1.827247051	-0.2687054625	 0.11506
H	 0.3951304758	-0.5658654278	 2.2884387965	 0.091836
H	 2.5812068692	-0.9723178113	 1.1419221031	 0.119466
H	 1.7641473132	-2.5056931674	 0.797237509	 0.111992
H	 1.1433417121	-1.8475304695	-1.3905237051	 0.104255
H	 4.9876217121	-0.5013326513	-2.3723162879	 0.196779
84.4592	143.5413	202.9327	210.2019	263.459	314.7123	390.3347	423.0392	498.2745	511.8146	610.7211	622.7243	638.994	670.0988	725.9718	818.9703	852.5682	858.3851	934.1593	946.0388	961.6438	1010.0344	1041.9082	1057.5223	1087.4301	1089.8277	1103.6814	1127.1682	1203.1476	1242.5127	1278.4041	1306.6687	1338.4992	1383.6771	1394.8323	1429.4127	1476.7628	1485.9478	1496.3376	1507.0214	2243.5282	2983.9418	3038.1312	3057.7741	3103.5136	3103.8742	3119.0097	3129.5761	3172.3754	3214.5848	3504.5735
CC12CC1CC(O2)C#C	C[C@]12C[C@H]1C[C@@H](O2)C#C	
InChI=1S/C8H10O/c1-3-7-4-6-5-8(6,2)9-7/h1,6-7H,4-5H2,2H3	InChI=1S/C8H10O/c1-3-7-4-6-5-8(6,2)9-7/h1,6-7H,4-5H2,2H3/t6-,7+,8+/m1/s1
