23
gdb 105365	2.91221	0.99667	0.82886	1.583	85.65	-0.256	0.0886	0.3446	1492.8343	0.204618	-388.262998	-388.253155	-388.252211	-388.298368	36.876	
C	 0.1327655678	 1.5694661612	-0.1978099175	-0.397926
C	 0.4479170382	 0.0717850397	-0.1948322128	-0.244151
C	 0.8682460549	-0.5074545986	 1.1490385817	 0.41591
C	 1.1519076873	-2.0040312426	 1.1718718671	-0.287762
C	-0.069498075	-2.8565688149	 0.8843367047	 0.041212
C	-0.3813614451	-3.343950489	-0.5103166596	-0.252999
C	 0.089248746	-4.31563235	 0.5432123778	-0.284966
C	 1.4809881632	 0.3312494093	 2.1916025585	-0.236907
O	 0.1059808546	-0.0552420108	 2.2838614294	-0.27656
H	 1.0327129679	 2.1781706668	-0.0657014025	 0.113343
H	-0.3219257598	 1.8618856155	-1.1485710207	 0.111211
H	-0.5665769179	 1.8135839447	 0.6062689506	 0.138193
H	-0.43496184	-0.4847514634	-0.5295666807	 0.118555
H	 1.2378515901	-0.1517162171	-0.9238329564	 0.096852
H	 1.9442463421	-2.2345486602	 0.4470029067	 0.091456
H	 1.5441953656	-2.2613310214	 2.1628528368	 0.100908
H	-0.9257773867	-2.6045803766	 1.5039422525	 0.098022
H	-1.4182081251	-3.3857163562	-0.8257548637	 0.111442
H	 0.3119656847	-3.0882126353	-1.3052061242	 0.108192
H	 1.097635957	-4.7076492366	 0.4545592092	 0.108266
H	-0.6250356693	-5.0223703003	 0.9508715185	 0.111352
H	 2.1444505661	-0.1273410583	 2.9245791792	 0.10576
H	 1.6533888235	 1.391603774	 2.0208568455	 0.110598
53.2719	74.9651	93.0626	154.325	225.5639	260.6748	294.6668	329.6748	363.3382	396.4751	448.8768	554.6771	699.3263	771.2269	777.8816	807.5926	831.0511	836.5422	900.8848	906.9154	944.1581	959.2164	999.7862	1019.4844	1055.5539	1077.345	1083.2873	1107.7297	1139.2337	1145.8295	1157.567	1176.1978	1200.0754	1213.7826	1228.2028	1275.1621	1307.5791	1317.6134	1386.2027	1398.4785	1412.0494	1425.609	1465.4162	1473.4391	1484.4708	1499.4702	1505.8965	1512.6986	1536.9097	3015.5231	3026.9043	3042.8521	3059.5622	3064.4135	3085.0565	3107.4792	3124.6683	3126.2796	3131.2581	3147.9088	3171.8993	3203.9636	3219.5257
CCC1(CC2CC2)CO1	CC[C@@]1(CC2CC2)CO1	
InChI=1S/C8H14O/c1-2-8(6-9-8)5-7-3-4-7/h7H,2-6H2,1H3	InChI=1S/C8H14O/c1-2-8(6-9-8)5-7-3-4-7/h7H,2-6H2,1H3/t8-/m1/s1
