15
gdb 21318	7.15961	1.11769	0.99821	2.6136	63.63	-0.262	-0.0095	0.2525	1138.437	0.118773	-399.778053	-399.770508	-399.769564	-399.810918	26.212	
C	 0.1216246794	 1.4190652644	 0.0491732041	-0.223358
O	 0.255913725	 0.0182151723	 0.1228468566	-0.235682
C	 0.5412797546	-0.5647798543	-1.1297878175	-0.173003
C	 0.6170052045	-2.0490251694	-0.9529289726	 0.376826
N	 1.5267343814	-2.7467206964	-1.5898345606	-0.203437
O	 1.2975492768	-4.0733266284	-1.2393081076	-0.162968
C	 0.2595253628	-4.1227063976	-0.3910576886	 0.081246
C	-0.2278475669	-2.8793084531	-0.1607492101	-0.314944
H	 1.0480266886	 1.8994500737	-0.3016885024	 0.110831
H	-0.6963322772	 1.7154875387	-0.6265773659	 0.10658
H	-0.1030178939	 1.7767325214	 1.0564519475	 0.131878
H	-0.2527267931	-0.315872872	-1.8558369305	 0.106108
H	 1.4905279248	-0.195820956	-1.5461423951	 0.119029
H	-0.0098061703	-5.1059953113	-0.0374934631	 0.151066
H	-1.0426786866	-2.579349332	 0.4748654757	 0.129829
53.0156	90.9504	134.8872	230.474	306.1672	350.1889	406.7754	615.328	674.8506	763.0488	805.9984	874.3859	912.3656	942.984	985.6262	1008.0194	1039.6843	1076.7019	1155.9737	1158.9161	1184.483	1226.9644	1250.0852	1296.5669	1404.3697	1452.493	1479.1051	1485.7248	1494.92	1500.3619	1521.8835	1613.6674	2950.7495	2973.6938	3011.4173	3020.0242	3120.4095	3263.9467	3297.9215
COCC1=NOC=C1	COCc1nocc1	
InChI=1S/C5H7NO2/c1-7-4-5-2-3-8-6-5/h2-3H,4H2,1H3	InChI=1S/C5H7NO2/c1-7-4-5-2-3-8-6-5/h2-3H,4H2,1H3
