15
gdb 79314	4.13526	1.23609	1.14672	1.4651	72.86	-0.2387	0.021	0.2597	1062.581	0.111894	-420.522845	-420.515556	-420.514612	-420.554449	29.024	
O	 0.0065859072	 1.4589251871	-0.0103134206	-0.446104
C	-0.0003176212	 0.066477389	-0.0047709446	 0.189275
C	-1.3308544099	-0.6980857693	-0.0662947749	-0.240067
C	-1.6268541382	-0.7962652437	-1.5558873136	 0.020141
O	-0.6189060726	-0.0639478664	-2.2596352143	-0.300702
C	 0.3442927118	-0.6537845904	-1.3351908498	-0.071633
C	-0.6772631633	-1.7912365602	-0.9456279842	 0.306182
C	-0.6201524696	-3.1956449021	-0.8492920041	-0.022947
C	-0.5569058695	-4.3952089169	-0.7673965983	-0.35466
H	-0.3798805345	 1.7190626822	-0.8580117342	 0.288027
H	 0.6217157794	-0.283893769	 0.821567877	 0.105736
H	-2.0808610943	-0.8366189758	 0.7007136209	 0.111709
H	-2.6021448015	-0.9203598781	-2.005699049	 0.129639
H	 1.346213928	-0.7454399974	-1.7460212546	 0.102971
H	-0.5038615319	-5.4532190289	-0.6972024059	 0.182434
114.9561	147.3413	244.6862	328.6932	452.4975	466.227	505.2148	517.1669	577.3391	627.8659	656.0266	667.456	757.729	780.9124	823.8743	875.781	919.7503	931.0779	972.6754	998.2322	1012.2025	1027.2504	1094.5599	1106.3351	1151.6217	1188.0679	1221.2998	1262.0662	1289.8382	1324.2778	1428.6401	1440.0665	2234.6116	3105.1772	3165.646	3214.5278	3226.4844	3502.3888	3755.0847
OC1C2C3OC1C23C#C	O[C@H]1[C@H]2[C@H]3O[C@@H]1[C@@]23C#C	
InChI=1S/C7H6O2/c1-2-7-3-4(8)6(7)9-5(3)7/h1,3-6,8H	InChI=1S/C7H6O2/c1-2-7-3-4(8)6(7)9-5(3)7/h1,3-6,8H/t3-,4-,5+,6-,7-/m0/s1
