13
gdb 24480	4.06302	1.72996	1.21334	1.9266	75.37	-0.232	-0.0675	0.1645	918.6226	0.093317	-415.652876	-415.647098	-415.646154	-415.682968	23.022	
O	-0.021447923	 1.3173154679	 0.0093648092	-0.167186
C	 1.1336832229	 2.0394499126	 0.0021766581	 0.096876
N	 2.3279557507	 1.5773353161	-0.0117506849	-0.324626
C	 2.4377954778	 0.210234292	-0.0201424303	 0.326035
C	 3.5051072372	-0.6507022935	-0.0350246964	-0.304181
C	 2.908023902	-1.9583028954	-0.0362652551	-0.019343
N	 1.579738739	-1.9751023188	-0.0236591544	-0.343288
C	 1.2458548519	-0.6433376899	-0.0133097102	 0.212337
C	 0.0411921312	-0.0352878748	 0.0014984447	-0.019099
H	 0.9155431912	 3.1001171104	 0.0099567547	 0.151849
H	 4.5573269215	-0.4124065842	-0.0438572249	 0.113157
H	 3.460029254	-2.8927594081	-0.0465835722	 0.113326
H	-0.9345861163	-0.5029493943	 0.0083390417	 0.164142
197.4302	257.8234	400.1728	437.4758	554.7743	568.4662	622.4043	639.39	776.5485	785.1729	824.4947	882.4102	889.3936	900.662	916.0225	957.2939	1022.5177	1033.6849	1145.5403	1210.0294	1265.1053	1306.3823	1342.2059	1393.4252	1412.7476	1427.715	1589.5894	1604.7276	1690.6148	3191.4097	3226.1023	3231.9892	3257.5676
O1C=NC2=CC=NC2=C1	o1cnc2ccnc2c1	
InChI=1S/C6H4N2O/c1-2-7-6-3-9-4-8-5(1)6/h1-4H	InChI=1S/C6H4N2O/c1-2-7-6-3-9-4-8-5(1)6/h1-4H
