21
gdb 118453	2.23228	0.98685	0.75552	2.6254	76.5	-0.2396	-0.0103	0.2293	1567.4551	0.178866	-461.365532	-461.354351	-461.353407	-461.40276	38.529	
C	-0.0354226442	 1.3315782434	-0.0550209193	-0.22923
O	 0.0085580701	-0.075378791	-0.0174573487	-0.242745
C	 0.6994490281	-0.5718350133	 1.1114725288	-0.072987
C	 0.7132809202	-2.0983804116	 1.0242832512	-0.134087
C	 1.551060007	-2.5564222296	-0.1979793955	-0.082257
O	 1.4063055821	-3.9315624333	-0.5165225482	-0.412432
C	 1.2649411654	-2.7077687983	 2.3132310585	 0.382304
C	 0.8958369045	-4.1459033182	 2.6031710056	-0.488956
O	 1.9815502486	-2.0605955282	 3.0461595719	-0.309552
H	 0.9734906704	 1.7708406241	-0.0982348114	 0.107733
H	-0.5855849831	 1.6185874144	-0.9544741872	 0.126399
H	-0.5510108544	 1.7463997879	 0.8253218453	 0.107287
H	 1.728482879	-0.1826229744	 1.1460675351	 0.106319
H	 0.2081017653	-0.2491652683	 2.0420672688	 0.099139
H	-0.3164456667	-2.4455249618	 0.8651453588	 0.080929
H	 1.2808741428	-1.9169632863	-1.0463140956	 0.120957
H	 2.6149044815	-2.4043676341	 0.013921248	 0.124831
H	 0.5360409834	-4.0534253016	-0.9091684586	 0.286663
H	 1.1373550453	-4.7634890962	 1.7322728426	 0.162161
H	 1.4224287668	-4.4969650522	 3.4915255485	 0.135301
H	-0.186297102	-4.2268812116	 2.7626713413	 0.132224
46.9903	82.0799	94.9013	104.8714	155.0498	188.8201	210.7244	232.1986	279.0516	320.2343	327.295	338.0697	376.2759	543.6558	604.5226	615.7615	783.0194	886.594	941.517	966.8537	1002.9805	1051.3573	1077.809	1093.3384	1116.8918	1161.2404	1177.0588	1181.2348	1197.4651	1232.2618	1253.3719	1318.7971	1339.7741	1381.7922	1395.852	1408.4584	1418.7243	1469.9935	1475.3084	1482.4451	1485.4806	1503.6927	1510.3599	1523.2056	1798.1759	2970.695	2985.5253	3010.6212	3018.5099	3026.6194	3034.0564	3035.5692	3087.2343	3101.9255	3113.9853	3153.6388	3819.213
COCC(CO)C(C)=O	COC[C@@H](CO)C(=O)C	
InChI=1S/C6H12O3/c1-5(8)6(3-7)4-9-2/h6-7H,3-4H2,1-2H3	InChI=1S/C6H12O3/c1-5(8)6(3-7)4-9-2/h6-7H,3-4H2,1-2H3/t6-/m1/s1
