13
gdb 25442	5.33338	1.11977	0.92547	4.5437	74.1	-0.2604	-0.0744	0.1861	1151.4857	0.09143	-448.970413	-448.963322	-448.962377	-449.002668	25.652	
N	-0.0549314259	 1.2991365359	-0.3213896948	-0.477229
C	-0.0037098307	 0.0653484181	-0.0182568685	 0.377659
N	 1.2333264245	-0.6272369307	 0.1201780688	-0.302321
C	 1.2008530277	-1.8603367808	 0.4255642309	 0.106058
N	 0.0276537835	-2.5799380425	 0.634231585	-0.133465
C	 0.0379868526	-3.9391903581	 0.9696447737	 0.183295
O	-0.9539270433	-4.5888200439	 1.156435357	-0.278278
C	-1.1705275683	-1.8624455818	 0.4886426053	 0.105107
N	-1.2179780158	-0.6302083002	 0.1855737831	-0.256177
H	 0.9006191807	 1.643691394	-0.4316099373	 0.232099
H	 2.120090283	-2.4335623303	 0.5428730838	 0.149175
H	 1.0671664389	-4.3345106685	 1.0403150589	 0.116466
H	-2.064177017	-2.4548820113	 0.6585036941	 0.17761
53.6931	153.64	224.1251	270.3568	426.3464	444.6752	459.3049	490.0119	650.1336	672.2234	806.8678	813.8971	840.9627	926.3309	966.3888	984.9172	1014.0849	1025.3735	1029.8623	1238.0884	1283.2235	1350.2045	1400.6173	1425.817	1448.3108	1652.0326	1702.9165	1747.0338	1834.5491	2981.2672	3139.3936	3198.1236	3478.2688
N=C1N=CN(C=O)C=N1	[NH][C@H]1N=CN(C=O)C=N1	
InChI=1S/C4H4N4O/c5-4-6-1-8(3-9)2-7-4/h1-3,5H	InChI=1S/C4H5N4O/c5-4-6-1-8(3-9)2-7-4/h1-5H
