17
gdb 70490	3.24052	1.02853	0.90878	3.1839	70.56	-0.2629	0.009	0.2719	1292.9911	0.134323	-458.949224	-458.940629	-458.939685	-458.983407	31.448	
O	 0.1091801751	 1.3800284571	-0.0855010589	-0.461357
C	 0.0294792953	 0.0021664426	-0.0401987975	 0.377237
C	-0.3203112544	-0.8403107719	-1.2338789745	-0.341672
C	-1.2197943694	-0.8844544867	-0.0225351503	-0.10676
C	-0.5813165062	-1.7987070633	 1.0298392817	-0.268141
C	 0.6378832863	-0.8272266628	 1.0798074532	 0.053765
O	 1.9226143963	-1.3956662974	 0.8174712567	-0.195336
C	 2.9060368631	-1.2164538034	 1.718720001	 0.163446
O	 4.0088183452	-1.6496859303	 1.5700910718	-0.276776
H	 0.7780403142	 1.6278219665	-0.7330414471	 0.294123
H	-0.7091375193	-0.2594722947	-2.0642955746	 0.119995
H	 0.2772809672	-1.7031721655	-1.5164120836	 0.12611
H	-2.2582537886	-0.5848644756	-0.0604914839	 0.104965
H	-1.1175382291	-1.8552078421	 1.9789422049	 0.114203
H	-0.3402106544	-2.8093600962	 0.6892089433	 0.117876
H	 0.6672470986	-0.2557230449	 2.0137286241	 0.099805
H	 2.5785237601	-0.6282170915	 2.5987696338	 0.078516
38.6657	101.1755	146.3867	234.1516	275.9732	279.9615	360.8311	380.1856	445.0699	499.4453	616.1382	694.966	729.4115	847.3294	869.8996	895.0827	950.4214	995.7687	1008.8402	1034.4404	1045.3486	1064.4963	1083.2287	1108.1929	1165.3176	1190.2212	1207.1019	1224.9201	1244.5336	1299.0401	1331.6094	1370.8956	1411.3522	1443.2421	1477.377	1506.6543	1864.9139	2942.2179	3054.3946	3064.2573	3114.7742	3121.9827	3205.6573	3214.1516	3800.7662
OC12CC1CC2OC=O	O[C@]12C[C@H]1C[C@H]2OC=O	
InChI=1S/C6H8O3/c7-3-9-5-1-4-2-6(4,5)8/h3-5,8H,1-2H2	InChI=1S/C6H8O3/c7-3-9-5-1-4-2-6(4,5)8/h3-5,8H,1-2H2/t4-,5-,6-/m1/s1
