17
gdb 54717	4.77811	1.18235	1.06756	2.2727	73.33	-0.2306	0.0197	0.2503	1125.8999	0.136729	-417.935474	-417.927703	-417.926759	-417.968667	29.325	
N	 0.020943799	 1.3565399943	 0.4907873615	-0.531284
C	 0.0545610142	 0.2061006623	-0.2419626589	 0.401327
O	 1.0527236626	-0.1528344396	-0.8409738926	-0.371494
C	-1.2420796764	-0.5782697938	-0.2465842389	-0.136694
C	-1.7274538681	-1.1816391279	-1.5767532172	-0.006606
C	-0.7260514833	-2.3754840562	-1.5633047845	-0.051725
C	-1.9012016732	-3.3329029511	-1.7216510192	-0.197552
N	-2.5344533987	-2.2727332694	-0.8218104648	-0.173508
C	-1.1722514783	-2.1082937346	-0.0943804818	-0.006635
H	 0.8537313912	 1.9211484549	 0.5323373257	 0.261274
H	-0.7977898691	 1.6586424402	 0.9874746836	 0.261466
H	-2.0393833544	-0.1133373509	 0.3426892516	 0.075641
H	-2.1565693265	-0.6720299063	-2.4412092707	 0.086259
H	 0.2879797191	-2.4015761091	-1.9594006268	 0.101458
H	-2.3802005375	-3.4103986236	-2.7035953409	 0.10091
H	-1.835742296	-4.3191781465	-1.2498101253	 0.10091
H	-0.9440168743	-2.6959090128	 0.7965452293	 0.086253
31.2785	152.1416	167.3991	185.7947	369.5793	379.9955	424.0154	591.8497	633.2884	709.835	762.7596	801.2105	820.5948	852.0058	862.7895	924.8823	928.0151	932.3948	983.2504	1030.5539	1039.6563	1060.2919	1087.5022	1106.6434	1136.4827	1159.1096	1161.4725	1187.7168	1218.5677	1242.4798	1266.195	1293.4355	1310.7723	1423.1546	1519.0311	1615.7256	1785.4292	3034.482	3056.7996	3092.1923	3099.001	3102.2277	3127.7024	3603.804	3743.5943
NC(=O)C1C2C3CN2C13	NC(=O)[C@H]1[C@H]2[C@@H]3CN2[C@H]13	
InChI=1S/C6H8N2O/c7-6(9)3-4-2-1-8(4)5(2)3/h2-5H,1H2,(H2,7,9)	InChI=1S/C6H8N2O/c7-6(9)3-4-2-1-8(4)5(2)3/h2-5H,1H2,(H2,7,9)/t2-,3-,4+,5-
