17
gdb 38110	2.78638	2.3409	1.64281	3.2196	76.26	-0.2334	-0.0082	0.2252	841.9669	0.139779	-380.835749	-380.829688	-380.828744	-380.865758	25.992	
C	 0.0540100207	 1.6206567265	 0.0435330024	-0.175016
N	 1.5140766855	 1.9277618332	-0.0439495941	-0.222898
C	 2.0136729281	 0.8983948658	-0.5863736757	 0.266564
N	 3.2296133336	 0.1511770101	-0.3031001334	-0.373132
C	 2.2693128048	-1.0529970334	-0.1638514788	-0.076528
C	 1.6841652364	-1.155204761	 1.2271126907	-0.043509
C	 0.4792234598	-0.5826603843	 1.3299083206	-0.058647
C	-0.0315195985	 0.0439971776	 0.0381880282	-0.103511
C	 1.1356927531	-0.2812105448	-0.8989403101	-0.11331
H	-0.33308651	 2.0597284323	 0.9674512432	 0.115371
H	-0.5100610234	 2.0557991649	-0.7919442576	 0.10641
H	 3.8179020388	 0.018197045	-1.1244936867	 0.231822
H	 2.6775387675	-1.9766972657	-0.579673809	 0.083349
H	 2.2259040562	-1.6073645893	 2.049736784	 0.103019
H	-0.0828722598	-0.5128196887	 2.2560894709	 0.100067
H	-1.0214800249	-0.3192326372	-0.2532315507	 0.074866
H	 0.9461530321	-0.5275109312	-1.9428599537	 0.085084
223.5983	257.4403	362.7092	452.4855	500.9489	584.5173	677.05	684.6851	723.1036	771.3246	814.9193	830.7609	848.5023	868.3878	898.3563	942.7649	951.5977	958.9218	973.8855	982.3255	1021.0865	1046.0846	1093.1811	1126.2601	1150.365	1188.6829	1214.9245	1229.1505	1252.9576	1269.5967	1301.6212	1318.0539	1335.8425	1380.6441	1488.4123	1655.0669	1720.1688	3022.6615	3067.4276	3087.3906	3089.2983	3124.3425	3177.7476	3208.3368	3478.2756
C1N=C2NC3C=CC1C23	C1[N][C]2N[C@H]3C=C[C@@H]1[C@@H]23	
InChI=1S/C7H8N2/c1-2-5-6-4(1)3-8-7(6)9-5/h1-2,4-6H,3H2,(H,8,9)	InChI=1S/C7H8N2/c1-2-5-6-4(1)3-8-7(6)9-5/h1-2,4-6H,3H2,(H,8,9)/t4-,5-,6+/m0/s1
