20
gdb 106422	2.76005	1.35614	1.15638	2.4096	79.94	-0.2376	0.0656	0.3033	1143.3416	0.171351	-403.056418	-403.047999	-403.047055	-403.089467	32.727	
O	-0.0821288183	 1.408201326	 0.0444782159	-0.418189
C	-0.0331275194	-0.0092526272	-0.0274339019	-0.221404
C	-1.4415212118	-0.5273262318	-0.0060448689	 0.257868
C	-2.5285480833	-0.3008255418	 1.0986141358	-0.255736
C	-3.223117919	-1.1915523706	 0.0223909629	-0.128964
C	-2.5727890366	-0.2674440575	-1.0518369057	-0.251831
C	-1.9139665938	-1.9955302421	-0.0194764213	 0.406297
C	-1.4514412032	-3.2077109476	-0.7055873772	-0.357904
N	-1.536948449	-3.134828657	 0.7883196538	-0.408266
H	 0.8201460435	 1.7407191288	 0.0316940157	 0.289231
H	 0.4680227549	-0.347366858	-0.9499007862	 0.087732
H	 0.5271987709	-0.4327588025	 0.8239131135	 0.082009
H	-2.3441331917	-0.7637714586	 2.0707849465	 0.097533
H	-2.8986388398	 0.7221554325	 1.1944934453	 0.098611
H	-4.2408140385	-1.579348765	 0.0382874107	 0.077639
H	-2.9471131721	 0.7572798535	-1.0939710952	 0.100509
H	-2.4264054471	-0.6917278434	-2.0487351811	 0.088922
H	-2.15697979	-3.8973081078	-1.1616496259	 0.120728
H	-0.4648852288	-3.2075875046	-1.1638099458	 0.108401
H	-0.6053142368	-3.0164179153	 1.1809649189	 0.226815
72.9203	130.4421	208.538	231.3627	261.9874	269.5812	342.8505	464.3557	481.7227	610.7085	612.8421	683.5039	782.344	802.5228	887.5876	901.5865	915.2172	936.2511	953.7687	965.5175	1006.1666	1015.1448	1051.5186	1063.7754	1079.7076	1089.1328	1126.5928	1145.3007	1161.0055	1191.0144	1207.3596	1210.8211	1227.4743	1252.0902	1268.9107	1273.8239	1335.4753	1435.2276	1468.0225	1490.576	1512.1899	1515.578	1548.2342	2947.5837	2975.2822	3057.1757	3062.0762	3100.2381	3125.8096	3128.4401	3132.336	3182.5704	3482.4809	3829.5971
OCC12CC(C1)C21CN1	OC[C@@]12C[C@@H](C1)[C@]12CN1	
InChI=1S/C7H11NO/c9-4-6-1-5(2-6)7(6)3-8-7/h5,8-9H,1-4H2	InChI=1S/C7H11NO/c9-4-6-1-5(2-6)7(6)3-8-7/h5,8-9H,1-4H2/t5-,6+,7-/m0/s1
