19
gdb 61499	3.15849	0.81809	0.6845	3.6886	77.51	-0.2463	-0.0344	0.2119	1605.0873	0.156259	-419.217717	-419.207157	-419.206213	-419.254781	36.611	
C	 0.2389477043	 0.9468634787	-0.7525135247	-0.399643
C	 0.1197742034	-0.1252916112	 0.3346657421	-0.058372
N	-1.1812345588	-0.7810580373	 0.4597795327	-0.303549
C	-2.1206457951	-0.2748718007	 1.4561500097	-0.103393
C	-2.7473685451	 1.1102273803	 1.184779837	-0.39155
C	-3.1908753233	-1.2745089093	 1.6310561185	 0.275275
N	-4.0504806672	-2.0364537029	 1.7529395691	-0.313543
C	 1.1712306533	-1.2282645788	 0.1476036181	 0.167311
O	 2.1338081035	-1.1431340308	-0.5674342333	-0.239897
H	 1.2747501863	 1.2836700591	-0.8351304609	 0.146381
H	-0.0446736831	 0.5336826825	-1.7263061645	 0.127
H	-0.4009557154	 1.8064932859	-0.5428845922	 0.118245
H	 0.3545990562	 0.3172987369	 1.315578955	 0.108206
H	-1.6308806391	-0.8881641193	-0.4423367855	 0.232821
H	-1.5794387831	-0.2286754709	 2.4099842902	 0.136355
H	-1.9681187007	 1.8753215285	 1.1591950023	 0.13088
H	-3.2750837075	 1.112263789	 0.2267636105	 0.134487
H	-3.4612192735	 1.3718995188	 1.9711543445	 0.141585
H	 0.9492017551	-2.1408515584	 0.7428309311	 0.091402
28.391	61.9512	76.372	143.2486	193.8123	205.6691	247.3842	273.2756	311.1234	332.4781	388.0592	422.1884	557.5494	563.9225	638.8787	688.0327	812.5349	842.7533	899.4975	918.1796	979.9107	1069.0724	1075.915	1111.8938	1126.8336	1175.1517	1191.494	1295.6525	1302.5075	1328.485	1371.383	1392.7489	1404.1603	1413.7714	1478.5852	1484.7362	1491.3885	1496.55	1509.6016	1836.0502	2362.6202	2903.2569	2995.0358	3033.5521	3046.0388	3049.2297	3118.5221	3123.0948	3132.4846	3142.2453	3542.5849
CC(NC(C)C#N)C=O	C[C@@H](N[C@@H](C)C#N)C=O	
InChI=1S/C6H10N2O/c1-5(3-7)8-6(2)4-9/h4-6,8H,1-2H3	InChI=1S/C6H10N2O/c1-5(3-7)8-6(2)4-9/h4-6,8H,1-2H3/t5-,6+/m0/s1
