18
gdb 99387	8.15028	0.53555	0.50728	2.663	72.46	-0.2632	0.0054	0.2686	2091.4689	0.144998	-476.249627	-476.239039	-476.238095	-476.288155	34.252	
C	 0.1075252347	 1.3064849277	 0.0070149464	-0.241846
O	-0.0464391957	-0.1196275738	 0.0009278522	-0.232367
C	-1.3156825553	-0.5633178742	 0.0115267825	 0.45295
O	-2.2821077148	 0.1593341266	 0.0253375147	-0.359285
C	-1.3595323967	-2.0750860036	 0.0041447293	-0.345141
C	-2.7896160553	-2.5909382342	 0.0155369688	-0.069476
O	-2.7166240156	-4.0172896163	 0.0076175806	-0.186603
C	-3.8945594064	-4.6699342834	 0.0146547202	 0.128719
N	-3.9169859229	-5.9317494115	 0.0085004164	-0.43867
H	 1.1820502383	 1.4877228857	-0.0025095617	 0.137386
H	-0.3636920395	 1.7483805369	-0.874409724	 0.142858
H	-0.3463839201	 1.7389437207	 0.9020912763	 0.142879
H	-0.8254582879	-2.4454050321	-0.8772558271	 0.150693
H	-0.8083514561	-2.4543927461	 0.8710822821	 0.150723
H	-3.3185932783	-2.2368517382	 0.9081375134	 0.124935
H	-3.3359441345	-2.2278823707	-0.8629032653	 0.124896
H	-4.7672792446	-4.0018322272	 0.0252536234	 0.087865
H	-4.8800795492	-6.2609916462	 0.0149305919	 0.229485
23.648	45.5768	59.5953	92.6578	120.4679	129.216	181.9765	229.9893	286.5635	342.6719	482.162	590.5826	622.3927	719.3961	807.9208	824.7868	906.2158	1009.8374	1016.4015	1044.995	1087.4557	1105.8745	1140.2002	1179.4998	1206.4441	1214.851	1225.6485	1294.0957	1306.0422	1353.5921	1414.0929	1437.2379	1464.8615	1476.1733	1482.9666	1497.6084	1515.2141	1750.4404	1813.9027	3016.2127	3032.3361	3053.7673	3060.4796	3069.108	3101.0672	3128.9105	3162.704	3518.7165
COC(=O)CCOC=N	COC(=O)CCO[CH][NH]	
InChI=1S/C5H9NO3/c1-8-5(7)2-3-9-4-6/h4,6H,2-3H2,1H3	InChI=1S/C5H9NO3/c1-8-5(7)2-3-9-4-6/h4,6H,2-3H2,1H3
