15
gdb 68954	2.63604	1.6364	1.34594	3.2204	66.72	-0.2464	-0.0301	0.2163	963.5682	0.110869	-457.706403	-457.698747	-457.697802	-457.738564	29.118	
O	-0.1642557277	 1.2907877653	 0.210406973	-0.428506
C	-0.0080626946	-0.0535747902	 0.0701795674	 0.383092
C	-0.2665671088	-0.9647259175	 1.2062603652	-0.369102
C	-1.1533202058	-1.1930069483	-0.0125408817	 0.105998
C	-2.5913795972	-0.9123796232	-0.0051829481	 0.063911
O	-3.1824696745	-0.3755553048	 0.9057687476	-0.275168
C	-0.3550673781	-1.7935111248	-1.1440707272	-0.060963
O	-0.2070292664	-0.8266407303	-2.1991320538	-0.244995
C	 0.6868439841	-0.7547508612	-1.0759291895	-0.0796
H	-0.3909287944	 1.6636131209	-0.6509238329	 0.305716
H	 0.4510883837	-1.7307953425	 1.4860380127	 0.123285
H	-0.7957665398	-0.5020620428	 2.0337260772	 0.162777
H	-3.118851455	-1.2118019543	-0.937663818	 0.076294
H	-0.2344880473	-2.8358251808	-1.4134028692	 0.117023
H	 1.7483786119	-0.8159703054	-1.2846280527	 0.120239
97.2854	157.4754	212.3601	221.1596	308.6942	423.7114	455.0732	502.7593	529.4661	623.0474	641.6112	706.0289	787.6072	813.9847	858.349	876.9674	950.809	970.3604	984.8606	1037.8887	1052.4688	1117.3966	1121.6567	1186.4392	1219.7296	1252.0263	1321.3347	1350.4934	1362.334	1416.1144	1437.0313	1489.5355	1786.7521	2886.4581	3120.1022	3187.7621	3200.9968	3216.6959	3780.8831
OC12CC1(C=O)C1OC21	O[C@@]12C[C@]1(C=O)[C@H]1O[C@@H]21	
InChI=1S/C6H6O3/c7-2-5-1-6(5,8)4-3(5)9-4/h2-4,8H,1H2	InChI=1S/C6H6O3/c7-2-5-1-6(5,8)4-3(5)9-4/h2-4,8H,1H2/t3-,4+,5-,6+/m0/s1
