15
gdb 125033	3.4289	1.29408	0.9474	6.6589	72.11	-0.2369	-0.0593	0.1776	1174.2049	0.112188	-450.137121	-450.128425	-450.127481	-450.170801	30.608	
C	-0.0906034577	 1.5285114073	 0.0845179312	-0.504225
C	-0.0477202391	 0.0421189866	-0.0342864209	 0.256691
C	 0.0412205668	-0.7494028792	-1.1509620639	 0.268353
N	 0.0609296097	-0.4606911269	-2.5104575035	-0.608496
N	 0.0314285725	-2.0402280544	-0.6674563194	-0.062748
C	-0.0002243782	-3.2333498168	-1.4084352816	 0.188241
O	 0.024702117	-4.3306978164	-0.9340873428	-0.249996
N	-0.0395932118	-2.0214532975	 0.7142932867	-0.123973
N	-0.098264799	-0.7885002896	 1.0638968544	-0.21712
H	 0.4593115895	 2.01115979	-0.7311019136	 0.115331
H	-1.1158296961	 1.9165971468	 0.0691988013	 0.142625
H	 0.3642771444	 1.8382033639	 1.0284049902	 0.156808
H	-0.0039804771	 0.5331741554	-2.6863372433	 0.264698
H	 0.8540327837	-0.8440623911	-3.0112264667	 0.264011
H	-0.0642893946	-3.0207835081	-2.4902069782	 0.1098
80.9829	97.2644	175.3142	205.3172	220.4879	264.716	291.7416	321.6303	394.8493	532.8179	655.1404	672.4062	713.6175	736.8284	778.1352	793.5308	991.626	1023.9285	1033.6387	1064.457	1121.168	1215.5683	1263.5818	1332.9735	1394.4829	1427.9693	1440.8099	1476.2083	1491.0699	1498.2356	1634.4096	1673.6877	1850.1413	2985.3408	3029.0089	3081.2431	3123.7043	3531.1753	3625.5319
CC1=C(N)N(C=O)N=N1	Cc1c(N)n(C=O)nn1	
InChI=1S/C4H6N4O/c1-3-4(5)8(2-9)7-6-3/h2H,5H2,1H3	InChI=1S/C4H6N4O/c1-3-4(5)8(2-9)7-6-3/h2H,5H2,1H3
