18
gdb 69751	2.89234	1.55455	1.27755	4.1466	75.99	-0.2183	-0.0124	0.2059	1038.2908	0.147256	-401.903073	-401.895322	-401.894378	-401.935128	30.664	
C	-0.0423350519	 1.5538900849	 0.0513670585	-0.514068
C	 0.1278593874	 0.0683860015	 0.0056579517	 0.357785
N	-0.803757707	-0.8542189402	 0.7000764336	-0.376714
C	 0.6532751126	-0.9229992255	 0.9872227291	-0.112077
C	 1.291851814	-1.7797213882	-0.130494715	-0.036231
C	 0.4247948282	-2.9123545025	-0.753651654	-0.35996
C	-0.1400326474	-1.8783978356	-1.7557558177	 0.428595
O	-0.8979685099	-1.9464072007	-2.6768435377	-0.304223
C	 0.7392361644	-0.744075114	-1.1733747267	-0.219931
H	 0.8711237478	 2.0661993433	-0.2683464632	 0.128393
H	-0.8565738122	 1.877603885	-0.6072142896	 0.139729
H	-0.2779636083	 1.887958317	 1.0682094925	 0.11872
H	-1.2378357769	-0.3298179353	 1.4589987174	 0.228298
H	 1.0182283049	-0.7835747999	 1.9983557832	 0.09296
H	 2.3620593465	-1.9518883531	-0.0358879071	 0.079106
H	 1.0138774607	-3.6824777379	-1.2627219533	 0.122311
H	-0.3187412071	-3.3877360892	-0.1121985835	 0.139178
H	 1.3802261842	-0.1842310696	-1.8551990083	 0.088129
103.435	152.5443	215.2719	255.9581	338.6092	385.0909	432.8036	495.6554	544.1862	603.2739	680.6789	739.2488	779.4631	826.0229	855.6839	873.5513	903.6056	949.6197	957.4963	988.7658	1029.049	1035.0707	1062.3481	1086.8804	1108.6362	1117.4448	1157.9089	1177.5644	1207.6239	1225.993	1261.3532	1300.7433	1339.3887	1407.8829	1421.0334	1443.7814	1480.4264	1497.8847	1892.8668	3024.0927	3058.7642	3089.3749	3096.6177	3113.8485	3131.0814	3137.0062	3178.0353	3474.4087
CC12NC1C1CC(=O)C21	C[C@]12N[C@H]1[C@H]1CC(=O)[C@@H]21	
InChI=1S/C7H9NO/c1-7-5-3(2-4(5)9)6(7)8-7/h3,5-6,8H,2H2,1H3	InChI=1S/C7H9NO/c1-7-5-3(2-4(5)9)6(7)8-7/h3,5-6,8H,2H2,1H3/t3-,5-,6-,7+/m0/s1
