19
gdb 11611	5.42907	0.82124	0.75626	1.8627	83.09	-0.2282	0.0407	0.269	1550.1738	0.164625	-327.879082	-327.869741	-327.868796	-327.915461	32.928	
C	 0.0063787816	 1.5398234876	 0.0335565062	-0.372893
C	-0.0306598078	-0.0005250551	-0.0302378497	-0.125619
C	-1.4792122495	-0.527908854	 0.0035780652	-0.372605
C	 0.685936776	-0.4930703087	-1.2074195994	 0.102801
C	 1.2680929522	-0.8862656486	-2.1884006834	 0.039574
C	 1.93962881	-1.3694047344	-3.3625685922	-0.155421
C	 3.2767717073	-2.0255693706	-3.2445601065	-0.226879
N	 2.0985159218	-2.8299303099	-3.5834082976	-0.308276
H	 1.0351011273	 1.909128489	 0.0408568517	 0.123895
H	-0.5033373065	 1.9729807209	-0.8325695611	 0.124827
H	-0.4961210222	 1.8931241	 0.939673741	 0.112502
H	 0.4862324934	-0.3836015847	 0.8610561562	 0.103725
H	-2.0415109454	-0.1634619097	-0.8616382989	 0.125074
H	-1.5011569081	-1.6206726835	-0.0149909921	 0.12205
H	-1.9862420799	-0.1865904397	 0.9118522912	 0.111871
H	 1.7230296585	-0.8270752829	-4.2796566378	 0.113801
H	 3.9979322824	-1.9068140373	-4.0483821527	 0.122885
H	 3.7040824651	-2.1074720296	-2.2496604898	 0.121007
H	 1.7706718138	-3.3178568988	-2.7530085503	 0.237682
7.1707	87.6354	100.4589	190.4448	209.3107	225.4666	266.2449	346.8166	468.4654	490.5415	512.3843	561.0632	677.8506	809.0858	834.2561	896.1355	930.4781	959.246	963.2086	986.9437	1047.1789	1109.8405	1118.8363	1128.5704	1153.2772	1186.0242	1224.3812	1257.3997	1299.1538	1323.0822	1349.4923	1394.8697	1396.9444	1417.1884	1485.0909	1488.683	1498.016	1504.1723	1509.9103	2354.0697	3003.0187	3036.0921	3039.6162	3107.0853	3112.242	3113.1762	3118.8344	3121.0052	3134.9911	3203.6621	3502.9593
CC(C)C#CC1CN1	CC(C)C#C[C@H]1CN1	
InChI=1S/C7H11N/c1-6(2)3-4-7-5-8-7/h6-8H,5H2,1-2H3	InChI=1S/C7H11N/c1-6(2)3-4-7-5-8-7/h6-8H,5H2,1-2H3/t7-/m0/s1
