12
gdb 133382	3.18831	1.48975	1.01707	4.823	62.93	-0.2412	-0.0852	0.156	1042.9198	0.076901	-510.065981	-510.058523	-510.057579	-510.098437	27.725	
N	-0.0122412284	 1.3299565539	 0.1652093648	-0.562989
C	-0.0282309915	-0.034847576	 0.0289639871	 0.286283
N	-1.142742201	-0.6841690578	-0.0140877404	-0.155605
O	-1.0488261709	-2.0764735623	-0.0437933706	-0.277175
C	 0.1676723231	-2.7596328188	-0.0205736848	 0.461927
N	 0.1901543461	-4.021353479	 0.0120458219	-0.505383
N	 1.3459321702	-2.0162642215	-0.0497658018	-0.31014
C	 1.2370043034	-0.7629635196	-0.0200594407	 0.327009
F	 2.3241056704	-0.0046396847	-0.0570961045	-0.052059
H	 0.7922588615	 1.8039278321	-0.2142417488	 0.274824
H	-0.8976368061	 1.7885133956	 0.0050373259	 0.275965
H	-0.7598079366	-4.3925662719	 0.032791042	 0.237344
46.7669	207.8339	273.0189	307.225	352.786	376.5829	420.7159	490.9372	547.1851	565.969	589.6872	707.9598	714.7889	774.2364	809.6553	861.0446	904.511	968.1642	1082.9727	1155.6859	1277.7196	1291.993	1475.1254	1617.8781	1654.3677	1741.1131	1764.431	3503.0941	3577.277	3694.7624
NC1=NOC(=N)N=C1F	NC1=NO[C]([NH])N=C1F	
InChI=1S/C3H3FN4O/c4-1-2(5)8-9-3(6)7-1/h6H,(H2,5,8)	InChI=1S/C3H3FN4O/c4-1-2(5)8-9-3(6)7-1/h6H,(H2,5,8)
