18
gdb 115252	3.43301	1.00857	0.81891	1.1829	82.94	-0.2457	-0.0296	0.216	1409.9323	0.146785	-401.935021	-401.925966	-401.925022	-401.96953	32.807	
C	 0.0444635214	 1.5347375158	 0.0034658728	-0.3821
C	-0.0178205404	 0.0065861155	 0.0278484039	-0.176505
C	-1.4504517488	-0.5389786904	 0.002186653	 0.005793
C	-1.533076604	-2.0901132565	-0.0066313366	-0.134735
O	-2.3855996401	-2.4135090227	 1.1142643579	-0.257341
C	-2.6558969767	-1.2217499223	 1.7183503174	 0.259812
N	-2.2045641327	-0.1469187735	 1.2065030954	-0.326415
C	-3.4478922836	-1.304284939	 2.8999686219	 0.27039
C	-4.1168453735	-1.3835902395	 3.8944450811	-0.356535
H	 1.0796048785	 1.8865338336	 0.0447525878	 0.110375
H	-0.4073154025	 1.9329099576	-0.9120092676	 0.112153
H	-0.4986174435	 1.9547160287	 0.8536142779	 0.145033
H	 0.521889867	-0.407581864	-0.8340919713	 0.095408
H	 0.4822335931	-0.3780815635	 0.9257914216	 0.101281
H	-1.9674680757	-0.1151452905	-0.8691948123	 0.089111
H	-1.9866019276	-2.5045119892	-0.9101071901	 0.121596
H	-0.5603563861	-2.5672480497	 0.1561753064	 0.116061
H	-4.7078767848	-1.4448371104	 4.7751893911	 0.206618
52.6092	100.5685	122.596	159.0377	213.1882	241.1925	329.2631	389.2898	471.8464	540.0715	586.5518	654.3006	669.5719	704.1805	729.6955	802.2549	851.877	939.8787	965.9653	978.3438	1007.5523	1017.8949	1081.974	1125.9934	1166.6065	1223.9626	1238.9485	1284.8271	1321.8256	1339.4047	1382.3395	1386.3648	1409.9236	1480.9304	1496.4739	1508.5913	1518.1042	1689.9816	2252.4202	3008.7098	3017.3012	3037.2422	3043.3288	3056.905	3100.8822	3102.15	3127.6424	3500.653
CCC1COC(=N1)C#C	CC[C@H]1COC(=N1)C#C	
InChI=1S/C7H9NO/c1-3-6-5-9-7(4-2)8-6/h2,6H,3,5H2,1H3	InChI=1S/C7H9NO/c1-3-6-5-9-7(4-2)8-6/h2,6H,3,5H2,1H3/t6-/m0/s1
