19
gdb 83462	2.95049	1.05073	0.93707	2.2163	76.36	-0.2364	-0.0277	0.2088	1308.5477	0.157178	-422.989991	-422.980925	-422.979981	-423.024709	32.843	
C	 0.1502224012	 1.6409348419	 0.0553298124	-0.424151
C	 0.1070287338	 0.1301058477	 0.1065883233	-0.078722
C	 1.2919641687	-0.7417052823	-0.1861190827	 0.022623
O	 2.5094990037	-0.1259141977	 0.2382570783	-0.280768
C	 2.0636005536	-0.1644996415	 1.619389806	-0.135819
C	 0.7039070715	-0.7362803414	 1.2136840556	 0.238693
C	-0.0646809833	-1.7672814564	 1.9980774273	-0.395721
C	-0.8143652987	-1.1398321077	 3.1602920282	 0.165255
O	-0.7282666284	-1.4967232469	 4.3060197567	-0.235091
H	 1.1622259533	 2.0085843066	 0.2394906368	 0.140701
H	-0.1525764174	 1.9970714633	-0.9347423276	 0.122407
H	-0.5235003275	 2.0889784777	 0.7933220001	 0.116892
H	-0.8168638871	-0.3116157878	-0.2658054205	 0.088166
H	 1.354321008	-1.5033056702	-0.9560928904	 0.10588
H	 2.6689080328	-0.8743173179	 2.1951919007	 0.115456
H	 2.093679682	 0.8199626627	 2.100286862	 0.110116
H	-0.8114736173	-2.2374427507	 1.3428129032	 0.122888
H	 0.5857221874	-2.5560356306	 2.3903993197	 0.123594
H	-1.4687065762	-0.2851437088	 2.8700670908	 0.077602
52.5803	63.2417	143.6218	174.6212	248.8676	257.15	310.1791	315.0536	424.614	490.3602	593.3961	669.0095	757.9451	778.6234	813.3659	927.4815	933.9587	955.2627	996.2932	1005.27	1017.2791	1056.2795	1081.6997	1098.7574	1115.3486	1140.0114	1161.2684	1192.3831	1254.2536	1266.1442	1305.9351	1318.3707	1353.8371	1414.4418	1424.5026	1453.2685	1463.8526	1492.5491	1503.1365	1519.5661	1835.9235	2864.0157	3015.1631	3025.0783	3037.8783	3073.6815	3084.0809	3096.633	3114.652	3130.5057	3171.559
CC1C2OCC12CC=O	C[C@H]1[C@H]2OC[C@@]12CC=O	
InChI=1S/C7H10O2/c1-5-6-7(5,2-3-8)4-9-6/h3,5-6H,2,4H2,1H3	InChI=1S/C7H10O2/c1-5-6-7(5,2-3-8)4-9-6/h3,5-6H,2,4H2,1H3/t5-,6+,7-/m0/s1
