23
gdb 115364	3.09943	1.06793	0.9514	1.021	88.59	-0.242	0.0219	0.2639	1389.2756	0.206079	-388.309232	-388.299798	-388.298853	-388.343387	36.061	
C	 0.0105120951	 1.5534965168	-0.0382540718	-0.384133
C	-0.0107557232	 0.0242735653	 0.0128885622	-0.184449
C	-1.428633176	-0.5563218135	 0.053251193	 0.099341
O	-2.097842842	-0.1171341689	-1.1213134662	-0.266638
C	-3.3289120653	-0.7851348436	-1.3411411423	-0.08918
C	-3.1015684111	-2.2694501013	-1.659828657	-0.029866
C	-2.5559619088	-2.4749050571	-3.0840634197	-0.385802
C	-2.169156255	-2.8379892295	-0.61731072	-0.08572
C	-1.4282057009	-2.0595811389	 0.1679519322	-0.071939
H	 1.0370169532	 1.9297996776	-0.082229765	 0.107635
H	-0.5279383398	 1.9165773547	-0.9166853353	 0.136064
H	-0.4660429365	 1.9846426866	 0.8495171297	 0.109071
H	 0.5030526892	-0.3929355441	-0.8611617266	 0.104931
H	 0.5283941492	-0.3323240247	 0.8991056125	 0.092149
H	-1.9457777822	-0.134046186	 0.938653862	 0.067155
H	-3.9792632504	-0.6863486374	-0.4567323953	 0.085841
H	-3.8115603914	-0.2682509402	-2.1767304764	 0.099316
H	-4.0695349587	-2.7848817149	-1.5823989226	 0.073312
H	-1.6492819701	-1.8795420854	-3.2242378122	 0.130355
H	-2.3057284247	-3.5246195516	-3.267776292	 0.110127
H	-3.2921425339	-2.1667253761	-3.8344807955	 0.108428
H	-2.1158726038	-3.9205719142	-0.5269792581	 0.086353
H	-0.7838753332	-2.4840942438	 0.9340935945	 0.087648
67.0537	108.9271	171.2044	207.039	229.6679	246.8721	272.6809	353.7532	377.1333	425.382	497.6956	563.6109	596.6193	736.3806	765.2058	792.0893	831.8545	875.5984	927.016	957.1094	974.5962	997.8178	1005.0669	1026.2103	1068.6569	1092.7819	1126.8916	1129.9102	1138.6914	1175.2391	1212.6381	1275.8639	1296.3249	1314.6942	1338.9398	1346.5322	1357.6644	1384.3706	1394.45	1401.297	1407.8968	1430.4455	1475.9726	1489.785	1495.5285	1499.5126	1503.2942	1508.9333	1719.9958	2894.1675	2971.1752	3005.7481	3029.9336	3031.9521	3036.1278	3068.6407	3074.1455	3098.7194	3100.7398	3117.7167	3128.5027	3141.8269	3166.1198
CCC1OCC(C)C=C1	CC[C@H]1OC[C@@H](C)C=C1	
InChI=1S/C8H14O/c1-3-8-5-4-7(2)6-9-8/h4-5,7-8H,3,6H2,1-2H3	InChI=1S/C8H14O/c1-3-8-5-4-7(2)6-9-8/h4-5,7-8H,3,6H2,1-2H3/t7-,8+/m0/s1
