21
gdb 72500	2.50916	1.7225	1.44232	1.7377	76.48	-0.2436	0.0727	0.3164	1006.6464	0.185522	-424.247819	-424.240265	-424.239321	-424.279124	31.844	
O	-0.0522788017	 1.3941958273	-0.0348162708	-0.497326
C	 0.027673429	-0.0192104212	 0.0161434196	 0.413168
C	 0.6451309029	-0.5661784593	 1.3348036333	-0.26872
C	-0.053690917	-1.936263254	 1.5656425789	-0.240544
C	-1.0337353081	-2.0841577277	 0.3738773162	 0.113582
C	-1.379966939	-0.6273838188	 0.040686503	-0.243472
O	-0.435991159	-2.7084546506	-0.7637641626	-0.267655
C	 0.7976574525	-2.1280238583	-1.157574699	-0.078283
C	 0.749030127	-0.5918772153	-1.2187282254	-0.272463
H	 0.843406969	 1.7420601728	-0.1046302326	 0.270714
H	 1.735450753	-0.6516012219	 1.2766002406	 0.088278
H	 0.4130933219	 0.1422429677	 2.1346715286	 0.105375
H	 0.6383452319	-2.7809973531	 1.6121114467	 0.108582
H	-0.6190492012	-1.9337312841	 2.5017484957	 0.103157
H	-1.9002207285	-2.7046103494	 0.6110023012	 0.076781
H	-1.9762545968	-0.1676176992	 0.8362917136	 0.098101
H	-1.9117138708	-0.5259347016	-0.9080563059	 0.101639
H	 1.6008895811	-2.4408196225	-0.4720286083	 0.089829
H	 1.0306516601	-2.5519055689	-2.1386184311	 0.108702
H	 0.2158147392	-0.2558732352	-2.1143600245	 0.108821
H	 1.7759645944	-0.2061382168	-1.2788920873	 0.081733
184.2461	265.1871	283.3815	285.0191	339.4093	413.3774	420.4378	425.3705	470.5675	541.7708	623.0456	751.8993	764.0815	788.5848	832.4374	891.0769	894.3095	922.4954	941.2491	979.2537	1003.8867	1018.5451	1024.4626	1082.4255	1092.9603	1120.1163	1162.4529	1203.4006	1206.7931	1237.2174	1256.5415	1269.2344	1277.3563	1288.4869	1311.7529	1328.3592	1359.8803	1376.2903	1405.7212	1416.0911	1474.3346	1482.4613	1487.9054	1502.2742	1518.1549	2977.084	3016.1732	3043.5368	3050.3271	3060.9262	3072.1952	3084.7851	3087.4977	3094.429	3109.3955	3113.3464	3800.8974
OC12CCC(C1)OCC2	O[C@@]12CC[C@@H](C1)OCC2	
InChI=1S/C7H12O2/c8-7-2-1-6(5-7)9-4-3-7/h6,8H,1-5H2	InChI=1S/C7H12O2/c8-7-2-1-6(5-7)9-4-3-7/h6,8H,1-5H2/t6-,7+/m0/s1
