21
gdb 40291	2.51057	1.56885	1.18387	0.8669	78.36	-0.2402	0.0774	0.3176	1116.5544	0.184109	-424.199964	-424.191617	-424.190673	-424.23311	32.343	
C	-0.314104732	 1.4250179175	 0.0574781497	-0.284818
C	 1.110764191	 0.9487965905	-0.0423549186	-0.333906
C	-0.0187153678	-0.0547958232	 0.0562800086	 0.324453
C	-0.1491577304	-0.8173550865	 1.3602677949	-0.139909
O	-1.4673764543	-1.0089044641	 1.8579406275	-0.26455
C	-2.5385960844	-1.1192949502	 0.9364785029	-0.061778
C	-2.281382646	-1.9188297535	-0.343657292	-0.097503
O	-1.7001716857	-1.1544640474	-1.383069886	-0.239065
C	-0.3297892583	-0.853328161	-1.1978995962	-0.156126
H	-0.6412559646	 1.8718021811	 0.9900525614	 0.122053
H	-0.7794521146	 1.8477661512	-0.8264868697	 0.120005
H	 1.618697296	 1.0459439683	-0.9962137945	 0.11408
H	 1.7601501504	 1.0732192296	 0.8175493573	 0.115042
H	 0.3475341439	-1.7951597551	 1.244195775	 0.087681
H	 0.3787398873	-0.283726949	 2.1579276836	 0.10089
H	-3.3426518336	-1.6061934631	 1.5003275164	 0.102701
H	-2.8980605063	-0.1244209332	 0.6319623853	 0.100787
H	-1.6800964611	-2.8164294597	-0.1224600504	 0.093734
H	-3.2481064358	-2.2531326842	-0.7350502458	 0.109542
H	-0.0370965611	-0.2879691177	-2.0881011769	 0.10036
H	 0.2606512774	-1.7865926003	-1.1825862627	 0.086328
58.6332	124.1764	178.4704	278.2725	299.0919	332.0478	372.8235	417.876	430.0081	542.3212	566.8744	774.0264	786.0908	807.7516	884.6548	918.3506	935.8555	962.8913	981.2498	995.5112	1010.6058	1025.0813	1052.3854	1073.4775	1084.3447	1101.4544	1147.1117	1170.6706	1188.5244	1248.3947	1270.0357	1300.6426	1338.4089	1345.6975	1373.9396	1383.6079	1409.1671	1413.1527	1432.5309	1474.7702	1478.9406	1486.6861	1491.3242	1502.885	1517.604	2948.7432	2962.2005	2975.8515	2992.4171	3058.3279	3059.3702	3074.6764	3078.0144	3130.0894	3135.6551	3208.0989	3222.7416
C1CC11COCCOC1	C1CC21COCCOC2	
InChI=1S/C7H12O2/c1-2-7(1)5-8-3-4-9-6-7/h1-6H2	InChI=1S/C7H12O2/c1-2-7(1)5-8-3-4-9-6-7/h1-6H2
