17
gdb 44490	3.78884	1.61412	1.49872	4.3789	70.32	-0.2624	0.014	0.2764	908.1124	0.140149	-421.861473	-421.855488	-421.854543	-421.89167	25.354	
O	-0.0344187569	 0.0362353222	-0.2131573626	-0.342767
C	-0.0048168788	 1.2056858449	 0.0231996369	 0.436531
O	-1.1433478516	 1.9587385904	 0.2256623781	-0.242448
C	-0.7151490722	 3.2628472466	 0.6041856526	 0.132022
C	 0.0075447986	 4.1538009585	-0.4771514658	-0.070805
C	 0.9318198654	 4.6105830712	 0.6848397726	-0.250875
C	 0.7073281652	 3.1726917543	 1.203144522	-0.061206
C	 1.155370505	 2.1894846578	 0.0839707716	-0.178696
C	 0.9018075087	 3.1120651706	-1.1688535967	-0.229141
H	-1.4945583166	 3.7506432768	 1.1854855279	 0.100506
H	-0.5346373735	 4.8611384897	-1.1021933911	 0.076143
H	 1.945385789	 4.926401146	 0.4277210027	 0.105131
H	 0.4652327471	 5.3494361402	 1.3412281522	 0.108569
H	 0.8855713944	 2.8710839609	 2.2346751493	 0.084141
H	 2.1307658527	 1.7153125956	 0.1507212657	 0.096292
H	 0.4183403917	 2.5791411418	-1.9907129683	 0.125894
H	 1.8293377219	 3.5520049226	-1.543219767	 0.110709
159.2397	315.0161	385.235	448.2587	484.6512	558.3464	695.8338	744.2993	776.6408	813.398	828.8327	841.5819	865.6491	893.6925	913.6901	957.3327	962.7272	988.0335	1025.4178	1029.9805	1059.4461	1086.6887	1090.1934	1143.0187	1180.8396	1195.6992	1199.6981	1227.3024	1245.8652	1265.062	1291.2431	1307.5986	1327.1801	1364.165	1494.8114	1515.1198	1899.3236	3064.2451	3067.7019	3114.0035	3121.4665	3125.0779	3133.6451	3150.9268	3159.9343
O=C1OC2C3CC2C1C3	O=C1O[C@@H]2[C@H]3C[C@@H]2[C@@H]1C3	
InChI=1S/C7H8O2/c8-7-5-2-3-1-4(5)6(3)9-7/h3-6H,1-2H2	InChI=1S/C7H8O2/c8-7-5-2-3-1-4(5)6(3)9-7/h3-6H,1-2H2/t3-,4+,5-,6+/m0/s1
