15
gdb 97701	3.05651	0.78595	0.68368	3.6361	77.08	-0.2656	-0.0143	0.2513	1609.625	0.111467	-416.745359	-416.736026	-416.735082	-416.781146	32.262	
O	 0.3159727183	 0.9470645445	-0.8022536097	-0.39561
C	-0.0457142148	 0.1484318549	 0.3122058483	-0.204899
C	-1.3937692837	-0.4136818807	 0.2183566827	 0.129932
C	-2.5201092754	-0.8313199116	 0.120422941	-0.032714
C	-3.855249726	-1.3561510914	 0.021427215	 0.027946
C	-4.3233207459	-1.8946923237	-1.3083661822	-0.250951
N	-4.0544714727	-2.8142404881	-0.2144020563	-0.322177
C	-4.834006069	-0.7551828523	 0.9090368261	 0.252446
N	-5.6119065449	-0.2521563349	 1.599330952	-0.331333
H	-0.3321075	 1.6555982582	-0.877387789	 0.292357
H	 0.6914171202	-0.6609850784	 0.3525785383	 0.148973
H	 0.0417766089	 0.7035177626	 1.2592342065	 0.132876
H	-5.37137758	-1.7817235067	-1.5671628867	 0.153757
H	-3.6190178573	-1.8113148517	-2.1304391288	 0.143665
H	-3.1378309277	-3.2433930608	-0.3204889971	 0.255734
27.3011	80.4139	93.8774	180.9587	225.1677	230.0608	275.8698	351.1815	425.3808	486.8647	511.5694	585.0844	608.816	623.9424	814.4801	845.0656	928.0393	976.1102	989.0494	1019.7108	1059.6727	1103.5946	1145.6082	1215.8462	1255.9274	1321.3386	1339.7939	1365.6787	1415.3574	1483.0992	1501.0364	2355.4135	2365.4043	2987.8107	3068.4036	3122.5747	3220.4356	3507.5901	3814.9005
OCC#CC1(CN1)C#N	OCC#C[C@]1(CN1)C#N	
InChI=1S/C6H6N2O/c7-4-6(5-8-6)2-1-3-9/h8-9H,3,5H2	InChI=1S/C6H6N2O/c7-4-6(5-8-6)2-1-3-9/h8-9H,3,5H2/t6-/m1/s1
