21
gdb 38099	2.56723	1.91946	1.4404	0.3917	86.85	-0.2229	0.0213	0.2442	992.8711	0.186752	-349.939378	-349.932442	-349.931498	-349.970156	29.941	
C	-0.0488102875	 1.4766642255	-0.1754115947	-0.309145
C	 1.2903475059	 0.7764559586	 0.0504055662	-0.053537
C	 2.0823855911	 0.9604072241	 1.2928996826	-0.064109
C	 1.9000450888	 0.3735045965	 2.4805757893	-0.079937
C	 0.8054771865	-0.5935886031	 2.8466408919	-0.04415
C	 0.5204374399	-1.7145023898	 1.7941465243	-0.22378
C	-0.556507005	-0.7827644249	 1.1582320818	-0.025427
C	-0.6174517771	-0.0359593329	 2.5182614886	-0.233994
C	 0.0071423666	-0.0200025207	-0.0282694786	-0.020551
H	-0.4449977344	 2.057995012	 0.6490144679	 0.11803
H	-0.2453408393	 1.9000662486	-1.1548100343	 0.107242
H	 1.9108017272	 0.7340752599	-0.8422094793	 0.085311
H	 2.9140744358	 1.6567185253	 1.1952402604	 0.081616
H	 2.5813423761	 0.6442555698	 3.2839799683	 0.079978
H	 0.949805771	-0.9420689681	 3.8717720078	 0.058095
H	 1.3512483594	-2.0234890205	 1.1558781178	 0.097705
H	 0.0789550697	-2.5964544833	 2.2673783318	 0.091377
H	-1.4939324308	-1.2596635233	 0.8561799206	 0.061073
H	-1.3798997884	-0.4820443372	 3.1636388268	 0.095061
H	-0.7418371887	 1.0485636596	 2.5256147705	 0.096733
H	-0.1016058868	-0.5777048762	-0.9559538595	 0.082409
192.7337	219.1557	309.0544	351.9466	377.3968	439.8548	520.9535	572.6515	710.2513	741.1061	750.7944	793.6902	802.4732	816.1286	850.9216	862.6875	913.6876	934.1737	975.7896	991.1942	994.4725	1013.3202	1055.0891	1062.0027	1085.0013	1098.8366	1116.5525	1143.5797	1153.1639	1170.5024	1173.4869	1230.5906	1258.2242	1262.1153	1268.5687	1277.5542	1358.9755	1370.6917	1389.4516	1412.897	1433.3205	1469.7241	1493.5363	1500.7181	1711.2798	3044.5845	3051.8221	3059.9256	3074.8043	3112.9061	3114.0055	3115.9729	3125.442	3130.3281	3136.3281	3155.8751	3222.5752
C1C2C=CC3CC(C3)C12	C1[C@H]2C=C[C@@H]3C[C@@H](C3)[C@@H]12	
InChI=1S/C9H12/c1-2-7-5-9(7)8-3-6(1)4-8/h1-2,6-9H,3-5H2	InChI=1S/C9H12/c1-2-7-5-9(7)8-3-6(1)4-8/h1-2,6-9H,3-5H2/t6-,7-,8+,9+/m1/s1
