14
gdb 45679	3.17821	1.742	1.1879	3.5015	67.82	-0.2391	-0.0321	0.207	959.7919	0.103504	-432.892888	-432.88629	-432.885346	-432.924002	25.503	
O	-0.1477781071	-0.0202011431	 0.1391960914	-0.268453
C	-0.0510194632	 1.1674228419	 0.0864861853	 0.351044
C	-1.2030507044	 2.2223452105	 0.035887749	-0.2717
N	-0.6648814263	 3.4443520811	 0.660436071	-0.309339
C	 0.6008506772	 3.3084661303	 0.6231195028	 0.380732
N	 1.6333599308	 3.9516731994	 1.2871301322	-0.374699
C	 2.627276821	 2.9654508555	 1.4301154308	 0.058472
N	 2.4645850323	 1.8702823193	 0.7840409708	-0.248785
C	 1.2138500107	 2.066594429	 0.046049558	-0.152361
H	-1.4829741592	 2.3793060271	-1.0156593341	 0.136152
H	-2.094882364	 1.8711987843	 0.5625138025	 0.140811
H	 1.4682825013	 4.6628235417	 1.9837389611	 0.270503
H	 3.4854867269	 3.1753178366	 2.0594758523	 0.145953
H	 1.443190524	 2.1677055462	-1.0275073932	 0.14167
109.5528	204.5331	293.8019	329.9693	447.8713	529.2966	550.0187	595.5245	631.0939	660.9593	743.3298	799.461	900.0556	924.1978	946.9101	953.9845	1014.5704	1047.4577	1057.396	1103.9634	1170.5608	1179.3738	1251.6546	1277.3593	1301.23	1352.8956	1381.493	1467.9652	1642.4808	1748.2306	1890.7648	2982.689	3014.4364	3094.7807	3205.8307	3627.2812
O=C1CN=C2NC=NC12	O=C1C[N][C]2N[CH][N][C@@H]12	
InChI=1S/C5H5N3O/c9-3-1-6-5-4(3)7-2-8-5/h2,4H,1H2,(H,6,7,8)	InChI=1S/C5H5N3O/c9-3-1-6-5-4(3)7-2-8-5/h2,4H,1H2,(H,6,7,8)/t4-/m0/s1
