15
gdb 12935	2.55965	2.2727	1.76223	4.6818	61.86	-0.2394	0.0107	0.2501	817.4369	0.118197	-399.787266	-399.779639	-399.778695	-399.818898	28.33	
C	-0.0129614473	 1.5837222873	 0.059193544	-0.495159
C	 0.0486347581	 0.0849726315	 0.0440770817	 0.107354
C	-0.858758777	-0.8311038001	 0.8417850108	 0.058553
O	-1.6229118517	-1.789227318	 0.1792591855	-0.411404
C	 0.628848766	-0.9582087325	 1.0192160224	-0.112638
N	 1.2498207139	-1.6631556741	-0.1043092589	-0.341204
C	 0.6778781601	-0.7820468433	-1.0468240776	 0.392371
O	 0.7203312067	-0.7549109655	-2.2416413568	-0.335413
H	 0.9755870108	 2.0234215709	-0.1061558538	 0.134888
H	-0.6751454757	 1.9437516486	-0.7350935163	 0.146008
H	-0.3972927802	 1.9592664031	 1.0123385842	 0.12093
H	-1.3729538272	-0.3131684775	 1.6551661805	 0.09473
H	-1.8424443055	-2.4878377011	 0.80559375	 0.290833
H	 1.1730822616	-0.7996713034	 1.9421369641	 0.110359
H	 1.1709200176	-2.6677508461	-0.2211556198	 0.239794
139.8361	152.2256	219.8451	229.9335	253.7224	312.2083	423.5625	485.4363	564.8581	658.3799	676.7832	752.9351	766.7875	821.0177	899.8783	925.8917	963.3427	1042.3453	1062.7677	1101.3794	1137.4119	1163.1407	1251.6025	1268.4385	1290.0987	1330.6466	1353.6272	1417.9163	1472.3885	1485.4176	1496.3939	1905.134	3035.9502	3079.2586	3102.9831	3107.4091	3192.242	3539.3874	3799.731
CC12C(O)C1NC2=O	C[C@]12[C@@H](O)[C@H]1NC2=O	
InChI=1S/C5H7NO2/c1-5-2(3(5)7)6-4(5)8/h2-3,7H,1H3,(H,6,8)	InChI=1S/C5H7NO2/c1-5-2(3(5)7)6-4(5)8/h2-3,7H,1H3,(H,6,8)/t2-,3+,5-/m1/s1
