21
gdb 104919	2.05067	1.55743	1.05421	0.9001	86.53	-0.2375	0.0396	0.2771	1239.9215	0.178177	-387.039304	-387.028737	-387.027792	-387.074038	39.402	
C	 0.041147906	 1.2843333359	-0.3237343546	-0.252108
O	-0.0675356629	 0.0002263034	 0.2671470345	-0.274291
C	-1.3391932512	-0.5743829083	 0.1516827912	 0.202794
C	-1.6861043805	-1.2400278786	-1.1778900215	-0.383991
C	-1.358793984	-2.094517828	 0.0251540557	 0.250384
C	-0.0232991781	-2.8141571953	 0.0509684675	-0.442724
C	-2.4895285264	-2.8597150603	 0.6852196019	-0.454681
C	-2.3738652132	 0.1086073887	 0.8894975212	 0.339092
C	-3.2150922273	 0.7068486568	 1.5082324076	-0.493182
H	 1.075769738	 1.6052574956	-0.1849459115	 0.12651
H	-0.1877093619	 1.2538134189	-1.3984564834	 0.107153
H	-0.6302433071	 2.0064944797	 0.1581053123	 0.122975
H	-2.7130946196	-1.1882364511	-1.5226091609	 0.118042
H	-0.9335222175	-1.1515761283	-1.9546483064	 0.117717
H	 0.7703949935	-2.2080548726	-0.38637597	 0.129612
H	 0.2673348856	-3.0563230575	 1.0791381482	 0.119029
H	-0.0952404668	-3.7550465575	-0.5064792665	 0.111462
H	-2.6543314804	-3.8098451982	 0.1643365999	 0.114163
H	-2.2503756938	-3.0874331938	 1.7299056434	 0.12074
H	-3.4255342476	-2.2971686867	 0.6721729025	 0.126215
H	-3.9595315746	 1.2260462971	 2.0595106689	 0.195089
109.5484	124.4979	145.99	173.6833	184.1722	197.4491	229.7358	271.6347	326.3237	371.7862	378.61	419.1858	471.616	555.4262	573.4358	582.3394	667.5717	675.4989	758.4766	897.1734	915.0161	928.8662	975.3987	981.5222	1033.2918	1054.9764	1074.7271	1152.9496	1163.465	1185.3515	1204.655	1228.4294	1304.8475	1367.1564	1408.7308	1422.7717	1470.3079	1476.5819	1481.5576	1485.9643	1488.803	1502.437	1509.8523	1511.1779	2224.4296	2998.5811	3028.9538	3034.2271	3058.5802	3087.561	3091.1365	3123.5532	3124.3454	3129.3942	3144.7267	3221.587	3500.4579
COC1(CC1(C)C)C#C	CO[C@]1(CC1(C)C)C#C	
InChI=1S/C8H12O/c1-5-8(9-4)6-7(8,2)3/h1H,6H2,2-4H3	InChI=1S/C8H12O/c1-5-8(9-4)6-7(8,2)3/h1H,6H2,2-4H3/t8-/m0/s1
