19
gdb 40189	3.30232	1.42464	1.19783	0.6621	74.13	-0.261	0.0901	0.3511	1068.4248	0.160716	-423.006974	-422.999523	-422.998579	-423.038813	29.846	
C	 0.035462515	 1.4875864654	 0.0156795153	-0.245095
O	 1.2003905192	 0.6593449791	 0.0783076031	-0.281887
C	-0.0942446914	 0.0270823447	 0.0091882278	 0.425058
C	-0.4724070849	-0.732409197	 1.2632297716	-0.286218
C	 0.3273933786	-2.0433937091	 1.3368797727	-0.239686
C	 0.1946211224	-2.8520694535	 0.0657102926	 0.064428
O	-1.1229273946	-2.9527485846	-0.488005512	-0.25987
C	-0.1394021272	-2.1970834129	-1.2099228526	 0.043519
C	-0.3776416917	-0.6985990195	-1.2968646239	-0.301059
H	-0.1919527843	 2.0472588846	 0.922606519	 0.110332
H	-0.0903929823	 2.046725991	-0.9116202004	 0.108687
H	-0.2698446643	-0.1180562716	 2.144688396	 0.101264
H	-1.5439291682	-0.9572235363	 1.2441209628	 0.11838
H	 1.3892697029	-1.8168943277	 1.4923844694	 0.12215
H	-0.0016983217	-2.6448059255	 2.1920516418	 0.105721
H	 0.7621326423	-3.783136042	 0.0342208916	 0.087372
H	 0.179000424	-2.675259084	-2.1363161777	 0.092698
H	-1.420051883	-0.5359543904	-1.5995295858	 0.119118
H	 0.260126829	-0.2680249408	-2.0749204314	 0.115089
90.6159	174.4915	300.3893	303.6681	343.4098	382.6646	415.6261	493.7639	570.188	649.9491	718.4626	789.4126	802.2142	819.5752	881.3539	908.0424	925.8387	960.4456	1001.1578	1014.5093	1041.5245	1052.5062	1082.6594	1128.9477	1150.9034	1166.1244	1189.0199	1237.1265	1250.9333	1288.5023	1291.8174	1322.961	1361.3652	1375.9227	1383.0761	1438.538	1452.4403	1468.7677	1480.795	1487.766	1531.6507	3029.0405	3033.2726	3052.2401	3072.524	3074.0311	3086.4373	3097.7309	3102.7163	3111.9797	3157.1055
C1OC11CCC2OC2C1	C1O[C@]21CC[C@H]1O[C@H]1C2	
InChI=1S/C7H10O2/c1-2-7(4-8-7)3-6-5(1)9-6/h5-6H,1-4H2	InChI=1S/C7H10O2/c1-2-7(4-8-7)3-6-5(1)9-6/h5-6H,1-4H2/t5-,6+,7-/m1/s1
