16
gdb 125103	2.35407	1.88097	1.05243	2.874	80.11	-0.1947	-0.0298	0.1649	1083.453	0.126102	-434.091382	-434.083313	-434.082369	-434.124119	30.45	
C	 0.0275787688	 1.5087375411	 0.0129444465	-0.502948
C	-0.0372022408	 0.0129418788	 0.0506999348	 0.266323
C	-1.176659574	-0.7229292564	-0.05309045	 0.283358
O	-2.3949842517	-0.1799800734	-0.204077994	-0.439133
C	-1.1305507324	-2.1729921772	-0.0043969539	 0.210972
N	-2.272751386	-2.7785513977	-0.1125046365	-0.61625
C	 0.2016688477	-2.7106857065	 0.1590815226	-0.080063
N	 1.2895898702	-1.9951667026	 0.2578190138	-0.194985
N	 1.1506828597	-0.673805395	 0.2026939015	-0.282193
H	 0.6482362771	 1.8624918187	-0.8190092887	 0.137965
H	-0.9765289596	 1.9138929606	-0.1130225091	 0.170264
H	 0.4488958761	 1.9156199534	 0.9400158471	 0.138109
H	-2.9818090759	-0.9688667123	-0.2453594363	 0.306166
H	-2.1855909798	-3.7920533599	-0.0724374684	 0.211696
H	 0.3477375667	-3.7857537014	 0.2075836911	 0.117674
H	 2.015530294	-0.1635214103	 0.2828690495	 0.273045
72.0588	136.7039	190.0994	273.9614	315.4501	317.9652	466.6282	486.1077	508.2239	524.1076	595.398	624.6612	683.9865	684.2928	768.8135	790.3975	880.5357	908.7971	978.3726	1054.2085	1061.4677	1127.3102	1167.0772	1296.8155	1298.5023	1371.3861	1405.1052	1417.338	1463.7802	1486.2118	1487.8233	1534.3703	1580.4055	1644.9439	1715.2809	3026.3245	3075.8549	3154.5501	3174.553	3461.4961	3498.8395	3641.9834
CC1=C(O)C(=N)C=NN1	Cc1c(O)c([NH])cn[nH]1	
InChI=1S/C5H7N3O/c1-3-5(9)4(6)2-7-8-3/h2H,1H3,(H2,6,8)(H,7,9)	InChI=1S/C5H12N3O/c1-3-5(9)4(6)2-7-8-3/h3-9H,2H2,1H3
