15
gdb 133126	2.58478	1.50638	0.95738	2.6715	70.34	-0.2478	-0.0229	0.2249	1138.6751	0.113307	-461.969326	-461.961563	-461.960619	-462.002233	28.479	
O	 0.0189353296	 1.4411991889	 0.0076099345	-0.421284
C	 0.0212400998	 0.0263706456	 0.0019381806	-0.173084
C	-1.4026556164	-0.46532727	 0.0122192847	 0.090373
C	-2.5076448128	 0.3757431297	 0.0233260037	-0.139962
C	-3.7895424948	-0.1765997087	 0.0321639778	-0.128386
C	-3.9172165025	-1.5576132637	 0.0295286639	-0.006131
N	-2.8643725274	-2.3886754459	 0.01889366	-0.320005
C	-1.6798548865	-1.8348139944	 0.0108475842	 0.29527
F	-0.6330424116	-2.669315645	 0.0001126475	-0.078261
H	 0.9314152672	 1.7423796424	 0.0017051785	 0.295925
H	 0.5354724591	-0.3744353821	-0.8862326951	 0.114934
H	 0.5506958342	-0.3816009212	 0.8777790471	 0.114941
H	-2.3511156372	 1.4471292772	 0.0249754397	 0.134839
H	-4.6698163632	 0.4553516759	 0.0409224828	 0.104217
H	-4.8956436374	-2.0296142987	 0.03615683	 0.116613
56.8401	163.9506	197.9429	216.5682	281.0803	341.0888	458.1592	529.4677	562.0829	567.6057	597.2001	778.2464	779.6833	821.2411	875.3017	964.7384	988.4156	1047.565	1076.1813	1086.4266	1130.9807	1199.9792	1209.4206	1250.9344	1294.5911	1312.1584	1345.3946	1453.7463	1480.2402	1489.5609	1510.0616	1622.3975	1646.3687	2970.7516	2990.1673	3168.3059	3201.7612	3223.4548	3845.8034
OCC1=CC=CN=C1F	OCc1cccnc1F	
InChI=1S/C6H6FNO/c7-6-5(4-9)2-1-3-8-6/h1-3,9H,4H2	InChI=1S/C6H6FNO/c7-6-5(4-9)2-1-3-8-6/h1-3,9H,4H2
