17
gdb 55322	1.91311	1.7469	1.1367	3.3861	73.87	-0.239	-0.0205	0.2185	1118.7671	0.132748	-421.78391	-421.774557	-421.773613	-421.818789	33.183	
C	-0.0800396042	 1.4877088572	-0.4222558567	-0.491283
C	 0.0523702377	 0.0357007021	-0.0096585163	 0.364567
O	 1.104608988	-0.4842496165	 0.2662841252	-0.284194
C	-1.260808571	-0.7522970586	 0.0528147777	 0.017796
O	-1.0699738726	-2.1616168852	 0.1761580242	-0.262282
C	-1.4644132707	-2.1565348399	 1.5598956706	-0.078853
C	-1.9900765093	-0.6986020953	 1.4460337872	-0.242697
C	-1.5966419574	 0.2740112622	 2.440971926	 0.33529
C	-1.2665699617	 1.076894557	 3.2731599054	-0.458006
H	 0.8870267659	 1.9844199777	-0.3376323129	 0.146307
H	-0.4369025642	 1.5542768971	-1.4567777463	 0.139799
H	-0.8155345289	 1.9965659188	 0.2102036315	 0.147986
H	-1.8966232919	-0.4944424631	-0.8036566802	 0.094964
H	-2.212878936	-2.9232071764	 1.7820676226	 0.11486
H	-0.6048360825	-2.2608346542	 2.2301251719	 0.127873
H	-3.0735158565	-0.677964068	 1.3024883107	 0.121186
H	-0.9693813747	 1.7799579352	 4.0118341694	 0.206688
64.2744	74.4218	107.9179	123.6328	197.7164	229.2378	288.5376	369.0831	481.9941	503.144	585.6569	607.7525	633.2914	654.0958	704.2861	798.4679	890.0648	936.7405	973.0317	999.169	1008.0907	1069.2743	1075.6397	1112.6786	1162.801	1189.0346	1195.5204	1252.0962	1337.6192	1338.8941	1374.4506	1384.3802	1462.0154	1476.3876	1519.4781	1827.3537	2235.2405	3024.6271	3036.51	3040.4935	3071.4834	3097.868	3099.3459	3153.9454	3501.7898
CC(=O)C1OCC1C#C	CC(=O)[C@H]1OC[C@H]1C#C	
InChI=1S/C7H8O2/c1-3-6-4-9-7(6)5(2)8/h1,6-7H,4H2,2H3	InChI=1S/C7H8O2/c1-3-6-4-9-7(6)5(2)8/h1,6-7H,4H2,2H3/t6-,7-/m1/s1
