17
gdb 34281	3.4577	1.49341	1.33882	1.8243	78.13	-0.2511	0.0055	0.2566	995.0757	0.136801	-384.652528	-384.645344	-384.6444	-384.683765	29.56	
C	 0.0710848955	-1.1658723237	 0.0164945809	-0.332665
C	 0.0507951145	 0.0349969263	 0.0016191884	 0.085417
C	-0.0278505719	 1.4797585012	-0.0070879768	 0.266096
C	-0.7053663315	 2.1413591666	 1.2542779799	-0.254863
C	-0.1040341493	 3.5718427723	 1.1939830534	-0.2188
C	 0.7899655509	 3.4589362445	-0.0845783025	 0.001672
O	 1.2662062332	 2.1121815494	 0.0237410005	-0.273386
C	-0.1541685801	 3.3724603958	-1.2768979081	-0.085223
C	-0.670797987	 2.1468518084	-1.2300923665	-0.122226
H	 0.1022330359	-2.227353463	 0.0253734026	 0.187719
H	-1.7946157154	 2.1120006115	 1.1944244485	 0.108004
H	-0.3902445459	 1.6079312575	 2.1526691768	 0.11883
H	-0.8562566796	 4.3594668927	 1.1130414384	 0.102384
H	 0.5182955107	 3.7748188003	 2.068346041	 0.11042
H	 1.6247734931	 4.1552034824	-0.1476109465	 0.082632
H	-0.4169868956	 4.1911558379	-1.9329184404	 0.108871
H	-1.4488151873	 1.6972907901	-1.8303483698	 0.115118
143.0052	157.1608	249.1661	371.4716	455.7782	486.4132	517.8057	550.7954	602.2408	620.8186	677.2956	710.0682	727.2872	792.4969	829.0535	848.1937	880.3473	915.8868	938.5295	950.2878	976.9008	985.5174	1028.5395	1061.444	1095.8516	1167.2426	1183.7048	1228.7169	1253.0201	1283.0247	1311.7234	1328.3977	1338.3155	1481.0864	1499.505	1645.3518	2249.0699	3068.7914	3082.0386	3114.7011	3134.1036	3136.3294	3220.1583	3248.5691	3502.4952
C#CC12CCC(O1)C=C2	C#C[C@@]12CC[C@@H](O1)C=C2	
InChI=1S/C8H8O/c1-2-8-5-3-7(9-8)4-6-8/h1,3,5,7H,4,6H2	InChI=1S/C8H8O/c1-2-8-5-3-7(9-8)4-6-8/h1,3,5,7H,4,6H2/t7-,8+/m0/s1
