21
gdb 90407	2.23551	1.52334	1.32311	1.3147	78.77	-0.237	0.0664	0.3034	1119.9575	0.179855	-424.198433	-424.188581	-424.187637	-424.232015	37.932	
C	-0.247340835	 1.5195118403	-0.0945759223	-0.425244
C	 0.1067350757	 0.0369642695	-0.07848689	-0.016245
C	 1.3262287584	-0.5041066002	-0.9006787724	-0.261829
C	 1.8348487005	-1.24103678	 0.3437492624	-0.19306
C	 2.1292569205	-0.2550184151	 1.4508720812	 0.314493
C	 2.7392653128	-0.8265692362	 2.7150222074	-0.456539
O	 2.5709190385	 1.0530129288	 1.1641510075	-0.461396
C	 0.6982663068	-0.6123001782	 1.1813744483	 0.32568
O	-0.0967533169	-1.2310902472	 2.1376008401	-0.461436
H	 0.6213198759	 2.1336595873	 0.1491703158	 0.140118
H	-0.6217369313	 1.8184985881	-1.0802757191	 0.106402
H	-1.0381878947	 1.7379554815	 0.6328558966	 0.104291
H	-0.7747378641	-0.5555675693	-0.3469575334	 0.080178
H	 1.0364396773	-1.1665987679	-1.7183414986	 0.098989
H	 2.002431059	 0.2642494184	-1.285142657	 0.093079
H	 2.2326210679	-2.2494068777	 0.3678325217	 0.086005
H	 3.8271974272	-0.9127728202	 2.6089044738	 0.107194
H	 2.5403653181	-0.1676492065	 3.5671416038	 0.117294
H	 2.3373686009	-1.8162191927	 2.941110179	 0.135986
H	 3.5014248903	 1.0011785278	 0.916855687	 0.278378
H	-0.2239702478	-0.6191773805	 2.870922328	 0.287662
146.9782	173.7122	185.0226	209.1281	215.6678	235.7448	260.1244	282.5461	312.2882	383.8774	385.4379	433.6238	545.1366	558.2587	653.6371	660.8884	723.1577	836.0857	870.5314	916.0755	931.9982	963.1632	999.3968	1019.9079	1068.0549	1104.7764	1119.914	1144.7415	1171.4236	1193.7138	1221.497	1238.3895	1256.9437	1292.7896	1300.7723	1339.5267	1383.4984	1403.6757	1411.4229	1442.4755	1486.2141	1487.2233	1493.5593	1507.0681	1511.8625	3027.0214	3028.0554	3044.4659	3060.5203	3081.9829	3085.7214	3114.536	3131.8938	3137.8577	3173.4654	3784.8513	3794.9274
CC1CC2C(C)(O)C12O	C[C@H]1C[C@H]2[C@@](C)(O)[C@@]12O	
InChI=1S/C7H12O2/c1-4-3-5-6(2,8)7(4,5)9/h4-5,8-9H,3H2,1-2H3	InChI=1S/C7H12O2/c1-4-3-5-6(2,8)7(4,5)9/h4-5,8-9H,3H2,1-2H3/t4-,5-,6+,7+/m0/s1
