18
gdb 106485	2.66232	1.66375	1.27416	4.3798	71.36	-0.2488	0.0122	0.261	1017.811	0.149585	-439.093705	-439.086021	-439.085077	-439.125721	30.47	
O	 0.0568274737	 1.4030820486	-0.0056489324	-0.425096
C	 0.0520877163	-0.0113472198	-0.0229284511	-0.182803
C	-1.3560677331	-0.5620052881	-0.0657779995	 0.167432
C	-2.3109546888	-0.5530948169	-1.3115504987	-0.247547
C	-3.111131475	-1.5337756196	-0.4150461369	-0.011461
C	-1.7380460625	-2.0854755805	 0.0691610912	-0.27939
N	-3.5036025124	-0.6122927437	 0.6791661439	-0.321232
C	-2.3094778349	 0.0023207604	 1.0058206515	 0.431529
O	-2.0648618107	 0.7690485687	 1.9126456121	-0.414236
H	-0.4265558743	 1.6560827187	 0.7935689686	 0.299509
H	 0.6138522371	-0.3227852498	-0.9104455501	 0.104197
H	 0.5711269303	-0.4302100723	 0.8551951342	 0.093063
H	-2.7961549904	 0.3850480235	-1.5848002892	 0.119826
H	-1.854629334	-1.0337888636	-2.1796918362	 0.107974
H	-3.9268998309	-2.1559446103	-0.7773093426	 0.087543
H	-1.2283656729	-2.7115451888	-0.6676196013	 0.110373
H	-1.695766145	-2.5414599855	 1.0620030027	 0.106568
H	-4.1813310626	-0.8526360011	 1.3867044238	 0.253753
105.4542	165.6424	198.771	266.959	378.3106	413.5298	466.2932	490.9428	521.8906	565.7945	650.9908	712.3501	753.349	782.3751	848.1118	879.7224	921.381	945.6493	984.1356	993.1381	1030.2608	1060.9808	1082.4558	1087.3978	1153.3707	1173.2664	1177.3969	1217.0706	1225.3298	1268.532	1308.1378	1339.677	1383.7641	1391.515	1451.7306	1479.2528	1498.2167	1517.8033	1832.4373	2968.3799	3056.7128	3063.7292	3072.877	3122.2576	3142.3852	3142.8295	3626.9927	3740.4717
OCC12CC(C1)NC2=O	OC[C@@]12C[C@@H](C1)NC2=O	
InChI=1S/C6H9NO2/c8-3-6-1-4(2-6)7-5(6)9/h4,8H,1-3H2,(H,7,9)	InChI=1S/C6H9NO2/c8-3-6-1-4(2-6)7-5(6)9/h4,8H,1-3H2,(H,7,9)/t4-,6+
