15
gdb 43055	3.4431	1.9832	1.74691	3.012	68.35	-0.2182	-0.0033	0.2149	803.7596	0.115408	-416.726471	-416.72072	-416.719776	-416.75645	24.093	
N	-0.0730798196	 1.275231151	 0.0994899644	-0.523202
C	 0.0487987447	 0.0286949473	 0.0120826949	 0.399578
C	 1.1352118024	-1.0525121814	-0.0580326332	-0.066495
O	 1.4132925798	-1.426062038	 1.2940351786	-0.252848
C	 0.2845664576	-2.1384859743	 1.7405708017	 0.09592
C	-0.356448149	-2.9423439856	 0.6547947665	-0.149341
C	-1.0988177046	-1.7423010075	 1.2474524943	-0.087235
N	-1.0102354716	-0.9650203786	-0.0322619934	-0.155962
C	-0.0266838779	-2.0176184591	-0.5179394371	-0.01697
H	 0.8420491234	 1.7298413742	 0.0724828935	 0.229179
H	 2.0744543775	-0.9181392253	-0.5975192532	 0.092076
H	 0.3941505456	-2.5132757848	 2.7500233546	 0.121694
H	-0.5615979839	-4.0026746008	 0.6431375675	 0.107841
H	-1.976843417	-1.6797864344	 1.8794659303	 0.110386
H	-0.0997726072	-2.3285856927	-1.5571235394	 0.095378
148.9717	289.4992	416.9565	543.8788	597.7641	656.939	718.4445	740.2744	791.0532	809.384	821.6211	846.3159	880.4273	900.0692	940.3226	956.9655	978.8088	983.2737	1008.9722	1047.5834	1055.0402	1060.0682	1096.5918	1120.4669	1165.6618	1201.4554	1232.4597	1256.5796	1264.3454	1300.072	1309.6413	1395.2462	1799.4802	3099.6108	3148.8705	3181.1725	3209.7513	3225.5439	3458.56
N=C1C2OC3C4C3N1C24	[NH][C]1[C@H]2O[C@@H]3[C@H]4[C@@H]3N1[C@@H]24	
InChI=1S/C6H6N2O/c7-6-5-3-1-2(8(3)6)4(1)9-5/h1-5,7H	InChI=1S/C6H6N2O/c7-6-5-3-1-2(8(3)6)4(1)9-5/h1-5,7H/t1-,2-,3+,4+,5-/m0/s1
