23
gdb 58327	3.75276	0.6292	0.60555	3.2399	83.91	-0.2473	-0.0177	0.2295	1921.7429	0.202033	-425.443842	-425.432494	-425.43155	-425.481316	40.213	
C	-0.0665184162	 1.5925036112	-0.1177849827	-0.411114
C	 0.0535303615	 0.0609653946	-0.0694704993	 0.025488
C	 0.8116670685	-0.4628385671	-1.2967970544	-0.393616
C	 0.7152453598	-0.4551914767	 1.2288488364	 0.138328
O	 2.0501703462	 0.0249945561	 1.3827221967	-0.435444
C	-0.1146311235	-0.1914497798	 2.4953984758	-0.233129
C	 0.4880450592	-0.8744658453	 3.7347603113	-0.270625
C	-0.1742469793	-0.4226538519	 5.0124439246	 0.156951
O	-0.6864914869	-1.1469002402	 5.8265648733	-0.239256
H	 0.9203477521	 2.0714809528	-0.1188827288	 0.110376
H	-0.5679058999	 1.9062015068	-1.0382254926	 0.122876
H	-0.6416957235	 1.9962207674	 0.721025844	 0.116585
H	-0.9623023781	-0.3576079056	-0.0870167723	 0.075095
H	 1.8518806009	-0.1242389823	-1.2766785585	 0.127617
H	 0.8187921579	-1.5575994098	-1.3213093628	 0.11165
H	 0.3523258533	-0.1088919805	-2.2250488565	 0.107996
H	 0.8363817589	-1.541263784	 1.1255395892	 0.087464
H	 2.0104958589	 0.9837266747	 1.4708163289	 0.280655
H	-0.1787094913	 0.8916301332	 2.6705212781	 0.094516
H	-1.1416521138	-0.5418031572	 2.337409401	 0.111365
H	 0.4190840144	-1.9642601086	 3.6683844977	 0.119401
H	 1.5507271399	-0.6003490569	 3.7862266671	 0.13317
H	-0.1623739791	 0.684495819	 5.1627326039	 0.063652
51.0616	58.0527	91.6086	95.1063	148.629	210.5739	238.1536	262.5167	284.1569	286.946	337.302	359.0389	419.0941	507.6311	542.0742	608.7125	765.5478	809.192	836.9217	912.9433	930.8255	962.7727	992.7699	1010.7509	1031.1625	1070.2996	1096.9538	1110.5438	1164.0629	1183.6517	1202.3804	1248.512	1271.9486	1319.7471	1322.4762	1360.6254	1368.7062	1389.2142	1397.3239	1415.9012	1427.8239	1432.9744	1465.0518	1487.0885	1489.4014	1493.3087	1508.7847	1512.4253	1836.3018	2835.4803	3006.8086	3011.9712	3024.9546	3027.6731	3031.156	3036.0468	3062.467	3091.8953	3100.2415	3101.2434	3107.4513	3113.8003	3801.8689
CC(C)C(O)CCC=O	CC(C)[C@@H](O)CCC=O	
InChI=1S/C7H14O2/c1-6(2)7(9)4-3-5-8/h5-7,9H,3-4H2,1-2H3	InChI=1S/C7H14O2/c1-6(2)7(9)4-3-5-8/h5-7,9H,3-4H2,1-2H3/t7-/m0/s1
