17
gdb 82997	3.77813	1.60729	1.49148	2.0043	65.7	-0.2524	0.0788	0.3312	905.2936	0.139211	-458.944026	-458.937758	-458.936814	-458.974416	26.371	
O	 0.1530477468	 1.4119172262	-0.1131822493	-0.451672
C	 0.0306554086	 0.0263549195	-0.0351254675	 0.182929
C	 0.1279136852	-0.644894588	 1.3556871079	 0.012025
O	-0.8537794383	 0.1291130307	 2.0902845434	-0.307408
C	-2.0307644554	-0.14095665	 1.2865221699	 0.208432
O	-2.7179581998	-1.226116405	 1.8385418952	-0.251134
C	-1.8054685044	-2.3379309656	 1.7346418453	-0.106841
C	-0.7178007709	-1.8278589029	 0.7894691528	-0.08115
C	-1.3677640208	-0.6531698807	-0.0146594697	-0.170959
H	-0.1923656945	 1.7541298707	 0.7229815078	 0.28948
H	 0.6883268612	-0.421675916	-0.7834879886	 0.093825
H	 1.0396632647	-0.7480289846	 1.941771019	 0.085654
H	-2.6882761583	 0.7261264833	 1.268864724	 0.098462
H	-1.416230613	-2.5930878674	 2.7270936109	 0.114243
H	-2.3456264423	-3.2022276842	 1.3339982082	 0.111351
H	-0.1629178413	-2.5753541404	 0.2256302439	 0.090209
H	-2.0071361777	-0.7875527355	-0.8843052234	 0.082554
201.6977	250.7308	277.343	464.2722	490.2287	515.0739	585.1599	672.5336	743.4266	765.5317	792.1252	826.6557	870.6802	882.9369	922.8933	943.7372	958.871	978.2443	1004.7709	1038.4622	1064.6386	1095.867	1108.3344	1136.2257	1167.0306	1185.7962	1213.4275	1234.4555	1246.4861	1282.2858	1298.2397	1308.6704	1337.8929	1354.2326	1391.7028	1448.7084	1519.1639	3032.4798	3074.2363	3095.6599	3135.5738	3141.6404	3144.4989	3153.876	3750.1519
OC1C2OC3OCC2C13	O[C@H]1[C@H]2O[C@@H]3OC[C@H]2[C@H]13	
InChI=1S/C6H8O3/c7-4-3-2-1-8-6(3)9-5(2)4/h2-7H,1H2	InChI=1S/C6H8O3/c7-4-3-2-1-8-6(3)9-5(2)4/h2-7H,1H2/t2-,3+,4+,5-,6-/m0/s1
