15
gdb 16715	6.17373	1.4052	1.25462	1.8641	76.72	-0.2231	-0.0232	0.2	952.377	0.119739	-325.477927	-325.471168	-325.470223	-325.508647	26.652	
C	 0.0728916069	-1.1702579938	 0.0810529339	-0.419953
C	-0.0157629646	 0.0312892047	 0.0407236464	 0.218578
C	-0.0578789989	 1.4434175617	-0.0169449125	 0.182457
C	-1.159232696	 2.2163218745	-0.0451821858	-0.158404
C	-0.7972190825	 3.6576305186	-0.0208073078	-0.077704
N	-0.0622940017	 4.0398111765	 1.2246752125	-0.32956
C	 0.6918418006	 3.7147664328	-0.001841179	-0.052407
C	 1.2181264067	 2.2862454153	-0.034742492	-0.315049
H	 0.133199045	-2.2294612784	 0.1205367697	 0.191653
H	-2.1763071146	 1.8460863417	-0.0466669076	 0.104906
H	-1.4153682998	 4.4030504535	-0.5087224495	 0.091387
H	-0.0968649086	 5.0543648052	 1.3162112921	 0.228216
H	 1.2410755876	 4.5035142202	-0.5042279811	 0.090293
H	 1.8557386117	 2.0626040261	 0.8268675886	 0.130817
H	 1.8063204284	 2.0875613615	-0.938674598	 0.114772
122.7426	158.7043	300.5109	368.0222	474.2485	521.9565	538.1562	576.6826	593.3188	637.8121	706.1067	801.8771	829.2842	850.2094	887.863	917.2172	953.0634	967.0718	1007.221	1078.3096	1127.1806	1151.6954	1175.7475	1193.1883	1247.6909	1275.9914	1326.566	1368.5437	1407.9766	1465.8926	1651.0764	2219.8407	3037.5669	3081.6271	3166.4283	3176.6397	3218.8061	3472.4989	3504.1589
C#CC1=CC2NC2C1	C#CC1=C[C@H]2N[C@H]2C1	
InChI=1S/C7H7N/c1-2-5-3-6-7(4-5)8-6/h1,3,6-8H,4H2	InChI=1S/C7H7N/c1-2-5-3-6-7(4-5)8-6/h1,3,6-8H,4H2/t6-,7+/m1/s1
