19
gdb 108013	3.58624	1.49066	1.33892	1.3659	77.9	-0.2352	0.0756	0.3109	1005.8308	0.16035	-385.809104	-385.801846	-385.800902	-385.84067	29.628	
O	-0.0454882623	 1.4109135599	 0.2015057218	-0.424391
C	-0.0448490265	 0.0052794126	-0.0190726213	-0.21468
C	-1.4659797288	-0.4756269222	-0.0134336554	 0.373372
C	-2.5823382908	 0.1501345179	-0.8891934992	-0.290999
C	-3.5412978889	-0.4779163146	 0.1503230007	-0.0632
C	-3.2639324347	-2.0011385344	 0.1646953753	-0.071643
C	-2.3980030778	-1.9535713772	 1.4037665064	-0.107327
C	-1.7385398713	-2.0001943853	 0.0419694661	-0.135824
C	-2.4144041781	-0.4032034893	 1.2490352227	-0.092715
H	 0.8662771209	 1.7158600343	 0.1921985977	 0.286807
H	 0.4271129023	-0.2444398065	-0.9851072757	 0.082867
H	 0.5227391589	-0.5215758417	 0.7660213638	 0.08623
H	-2.5636647082	 1.2414059368	-0.8225218677	 0.111915
H	-2.6638515495	-0.1647498443	-1.9349051275	 0.083174
H	-4.5606560734	-0.1270768415	 0.3054448717	 0.061521
H	-3.8760007727	-2.8117246596	-0.2086787915	 0.081853
H	-2.3292770543	-2.6220400607	 2.2515180077	 0.082206
H	-1.1862798777	-2.8047895854	-0.4274219905	 0.077279
H	-2.3397332572	 0.3606626612	 2.0178712249	 0.073555
99.806	170.3388	226.6188	284.6606	367.6078	444.6029	546.4535	631.9484	735.5521	755.519	785.7314	797.0372	828.4163	845.4975	856.2089	866.7145	900.2323	936.3098	973.9327	999.285	1000.9347	1035.9918	1039.7854	1060.9066	1071.5305	1076.7633	1129.7852	1135.5379	1177.4901	1177.5824	1214.0292	1219.7304	1231.0853	1269.1932	1283.0674	1289.0089	1314.8595	1367.135	1463.8551	1489.4644	1510.7491	2949.0634	2977.4428	3042.6034	3109.7379	3122.2181	3156.7616	3185.1156	3192.4873	3207.1859	3832.0183
OCC12CC3C4C(C14)C23	OC[C@@]12C[C@H]3[C@@H]4[C@@H]([C@H]14)[C@@H]23	
InChI=1S/C8H10O/c9-2-8-1-3-4-5(6(3)8)7(4)8/h3-7,9H,1-2H2	InChI=1S/C8H10O/c9-2-8-1-3-4-5(6(3)8)7(4)8/h3-7,9H,1-2H2/t3-,4+,5+,6-,7+,8+/m0/s1
