22
gdb 117252	4.39998	0.75438	0.7403	3.2847	85.24	-0.2398	0.0307	0.2705	1678.8335	0.194551	-404.379892	-404.369894	-404.36895	-404.41696	35.869	
C	-0.9211821574	 1.1070661743	-0.5391421324	-0.37179
C	 0.4164700711	 0.5781574911	-0.0159642803	-0.14421
N	 1.1600799094	-0.1701100059	-1.0166507453	-0.326089
C	 1.3233283989	-1.5248771489	-0.9642792259	 0.413231
O	 0.8921519204	-2.2092499753	-0.0486781965	-0.391205
C	 2.0880550297	-2.1394982692	-2.1208594555	-0.085978
C	 3.259293459	-3.0963792024	-1.7420598278	-0.214244
C	 2.7805415693	-4.0774531032	-2.8432231787	-0.214202
C	 1.4097579476	-3.3528737269	-2.82801172	-0.214475
H	-0.7789396864	 1.7770543804	-1.3944499749	 0.108957
H	-1.5646916356	 0.2816294592	-0.856584017	 0.132921
H	-1.4418485368	 1.6696966228	 0.2423182081	 0.119549
H	 1.0350552272	 1.4078028586	 0.3483137461	 0.10327
H	 0.2585383971	-0.1116524432	 0.8155630578	 0.150912
H	 1.510556689	 0.3231807934	-1.8214720913	 0.240044
H	 2.4095385161	-1.3852406785	-2.8465249297	 0.0521
H	 4.2742616692	-2.6977560528	-1.808688713	 0.093492
H	 3.0910851255	-3.4986127245	-0.7403702823	 0.128588
H	 3.3131831642	-3.9235028851	-3.7864226785	 0.097882
H	 2.7910837498	-5.144350798	-2.6092197952	 0.100297
H	 0.7076188129	-3.8298185261	-2.1402272733	 0.127995
H	 0.9128621997	-3.1640029598	-3.7825004842	 0.092955
20.8506	36.4198	88.1838	121.4313	205.861	229.7703	270.2299	328.0311	349.0307	450.7258	467.8323	601.3442	707.4118	731.657	775.5059	800.944	835.0379	900.5164	900.7903	937.1946	949.6273	958.7046	1028.8231	1041.1719	1080.9581	1109.9825	1140.878	1173.753	1208.8863	1216.2577	1251.0268	1251.2027	1262.2892	1282.5862	1287.3503	1319.5643	1378.4864	1399.5037	1409.8892	1473.7746	1484.0381	1486.7855	1492.6732	1502.1567	1507.4468	1542.4439	1763.6074	3028.6595	3033.5428	3047.2423	3055.4248	3063.3737	3068.0398	3096.119	3102.5494	3116.8252	3123.8057	3127.9788	3131.8539	3639.946
CCNC(=O)C1CCC1	CCNC(=O)C1CCC1	
InChI=1S/C7H13NO/c1-2-8-7(9)6-4-3-5-6/h6H,2-5H2,1H3,(H,8,9)	InChI=1S/C7H13NO/c1-2-8-7(9)6-4-3-5-6/h6H,2-5H2,1H3,(H,8,9)
