16
gdb 124717	5.04305	1.01773	0.85133	3.5328	77.54	-0.2098	-0.0073	0.2025	1303.8207	0.125977	-430.272654	-430.264081	-430.263137	-430.306316	30.889	
C	 0.0888453916	 1.457848473	-0.1489318422	-0.47294
C	 0.0193102967	-0.0115759814	 0.1810259075	 0.380213
N	 0.8303900486	-0.4236947424	 1.1872055424	-0.522902
N	-0.7905224895	-0.7562729227	-0.5028450845	-0.396643
C	-0.9152684825	-2.1057168071	-0.2650948934	 0.386218
N	-0.2651654351	-2.8497017929	 0.6552871933	-0.33811
N	-0.7498192769	-4.0755815922	 0.4642909781	-0.0748
N	-1.6558324867	-4.2102749724	-0.493433211	-0.197168
C	-1.7793730926	-2.9770108957	-0.9718525868	-0.124659
H	 1.1056482671	 1.7436067044	-0.4417966285	 0.131584
H	-0.5945358088	 1.675619876	-0.9677932951	 0.152788
H	-0.1857769561	 2.0654954576	 0.7209819213	 0.131892
H	 1.4263067708	 0.2306787397	 1.6615987444	 0.252788
H	 0.8289565527	-1.3982444447	 1.456009237	 0.280052
H	-0.4437322666	-4.8588328908	 1.0169095135	 0.287961
H	-2.4554785525	-2.7455715985	-1.7782809159	 0.123725
76.8983	92.7145	129.0978	192.9143	217.0988	369.2416	386.2339	390.354	422.9872	525.8406	585.5282	662.9067	709.007	767.0663	794.1899	882.4832	906.3428	983.5448	1007.1003	1033.5695	1059.6802	1124.6383	1168.9231	1201.6498	1244.1534	1347.3684	1380.6101	1400.1299	1421.7695	1474.2824	1484.2147	1499.1895	1549.5094	1608.9611	1701.554	3034.464	3088.151	3169.5251	3279.988	3533.4477	3675.0375	3715.3184
CC(N)=NC1=NNN=C1	CC(=Nc1n[nH]nc1)N	
InChI=1S/C4H7N5/c1-3(5)7-4-2-6-9-8-4/h2H,1H3,(H3,5,6,7,8,9)	InChI=1S/C4H7N5/c1-3(5)7-4-2-6-9-8-4/h2H,1H3,(H3,5,6,7,8,9)
