21
gdb 64131	2.91463	1.1919	1.08712	3.6075	81.94	-0.2391	0.0265	0.2656	1221.1042	0.183352	-383.294454	-383.285057	-383.284113	-383.328798	35.452	
C	-0.3865316332	 1.5474083866	 0.1731700709	-0.442127
C	 0.0907070418	 0.105089574	-0.0236604521	 0.295346
C	-1.1162918266	-0.8314863858	-0.2086746943	-0.431574
C	 1.0753052065	-0.0336546888	-1.2091101524	-0.190289
N	 1.9152403865	-1.2139696391	-0.948070639	-0.31521
C	 1.9091120903	-1.4676948284	 0.5124699645	-0.096383
C	 0.9910363234	-0.3729664572	 1.1384256278	-0.260626
C	 1.4563272682	-2.8291094234	 0.8219373909	 0.263304
N	 1.1046638839	-3.9079272269	 1.0456314131	-0.332503
H	 0.4583896767	 2.2331012362	 0.2990181555	 0.112864
H	-0.9702229133	 1.8891220936	-0.6886915733	 0.116948
H	-1.0257879472	 1.6360040276	 1.0580227645	 0.118227
H	-1.7225711004	-0.5156544298	-1.0646664444	 0.11381
H	-0.8108337383	-1.8680939486	-0.3793467762	 0.12866
H	-1.7593378091	-0.8215499627	 0.6775713783	 0.118847
H	 0.5715926923	-0.135235461	-2.1748211276	 0.105945
H	 1.7120203544	 0.8600458161	-1.2662394803	 0.099426
H	 1.5718503549	-2.0238268492	-1.4467414326	 0.238809
H	 2.9249362257	-1.3752548025	 0.916723946	 0.125955
H	 1.6219691895	 0.4505978865	 1.4868434585	 0.108129
H	 0.4282176639	-0.7462419073	 1.9966095221	 0.122442
37.3936	123.3037	188.0148	219.8071	235.9671	246.4811	297.8619	338.0436	385.28	399.0312	482.6753	566.5104	600.8207	674.4552	729.5712	788.5402	818.6218	909.7796	930.8341	951.2829	956.6707	973.7953	1008.2683	1026.128	1059.8332	1102.6832	1160.9278	1213.2712	1225.1112	1244.2039	1279.6091	1315.9872	1319.8059	1352.8706	1373.8381	1404.6459	1427.2334	1463.5694	1482.9837	1485.5618	1492.1865	1506.0449	1507.8448	1512.7658	2348.6609	3005.3956	3019.4114	3026.1947	3032.8388	3058.0852	3083.6959	3093.3583	3097.0988	3099.2	3109.7364	3115.0251	3573.2265
CC1(C)CNC(C1)C#N	CC1(C)CN[C@@H](C1)C#N	
InChI=1S/C7H12N2/c1-7(2)3-6(4-8)9-5-7/h6,9H,3,5H2,1-2H3	InChI=1S/C7H12N2/c1-7(2)3-6(4-8)9-5-7/h6,9H,3,5H2,1-2H3/t6-/m0/s1
