18
gdb 128333	2.651	1.31287	0.89085	2.5095	76.47	-0.1781	0.0418	0.2199	1301.1003	0.148144	-435.262514	-435.252974	-435.25203	-435.297225	33.69	
C	 0.0807579809	 1.3814993893	-0.0208369104	-0.312299
N	-0.1567431558	-0.0444656243	 0.1292549844	-0.38262
C	 0.5618029049	-0.7259395942	 1.0970747048	 0.330184
N	 1.1764638704	-0.1225295291	 2.1087812896	-0.317376
N	 1.6942089461	-1.1362061755	 2.8468349437	-0.213569
C	 1.4415943626	-2.3663842677	 2.3218089852	-0.160557
C	 0.7027172879	-2.1385665717	 1.1808519601	 0.202907
O	 0.1802086705	-2.985751405	 0.2540396454	-0.273139
C	 0.4427408391	-4.355347189	 0.478926355	-0.247796
H	 1.1279028133	 1.6299463055	-0.2521831765	 0.110281
H	-0.5611376464	 1.7649498049	-0.8177679967	 0.112672
H	-0.1787390104	 1.892225592	 0.9099725657	 0.145011
H	-0.2044917213	-0.5566962449	-0.739510172	 0.240278
H	 2.2169988177	-0.9158222396	 3.6737931965	 0.2686
H	 1.7898060185	-3.2728487369	 2.787475167	 0.128769
H	 1.5231634844	-4.5583474541	 0.4830949576	 0.116907
H	 0.0171338132	-4.6897175639	 1.435544677	 0.118835
H	-0.0260951856	-4.9081650959	-0.3369345166	 0.132912
68.2617	104.7728	147.8951	157.9863	179.8304	225.2749	246.4531	296.9638	344.0414	417.7093	540.9604	582.9145	624.9404	670.8261	717.109	747.1872	793.1903	934.4854	1055.234	1067.5139	1093.88	1143.0391	1160.1739	1182.7518	1217.0084	1219.962	1254.2855	1327.4402	1398.3607	1453.0693	1472.1415	1480.5952	1482.8967	1485.4861	1507.5015	1509.1019	1523.5893	1601.5123	1647.5563	2987.4195	2990.9906	3043.736	3083.2461	3125.9765	3131.5548	3272.5762	3599.1763	3709.1803
CNC1=NNC=C1OC	CNc1n[nH]cc1OC	
InChI=1S/C5H9N3O/c1-6-5-4(9-2)3-7-8-5/h3H,1-2H3,(H2,6,7,8)	InChI=1S/C5H9N3O/c1-6-5-4(9-2)3-7-8-5/h3H,1-2H3,(H2,6,7,8)
