16
gdb 38111	2.82782	2.36989	1.67244	3.7357	71.5	-0.2412	-0.0186	0.2225	818.7558	0.127724	-400.722085	-400.716208	-400.715264	-400.751978	24.919	
C	 0.0516577676	 1.6258976845	 0.0204478422	-0.171401
N	 1.5157586396	 1.9265652389	-0.0781021269	-0.279794
C	 1.9808571761	 0.864850642	-0.5833407991	 0.378687
O	 3.1458643198	 0.1615357884	-0.3826104299	-0.293159
C	 2.2407194407	-1.0490868591	-0.1937981569	 0.033072
C	 1.6978889317	-1.1499647392	 1.2113045646	-0.074364
C	 0.4988151506	-0.5659573075	 1.3372302802	-0.054041
C	-0.0435435878	 0.0443791893	 0.0500610331	-0.110257
C	 1.0972737165	-0.3001008989	-0.9104305303	-0.158917
H	-0.3277029749	 2.0833846789	 0.9381437622	 0.118604
H	-0.5216098123	 2.0389170946	-0.8200010675	 0.109118
H	 2.7294909558	-1.923743951	-0.6205743626	 0.101333
H	 2.2580981433	-1.6018676974	 2.0207331115	 0.110498
H	-0.0387267377	-0.4830021938	 2.2766445695	 0.108632
H	-1.0404859298	-0.3225179141	-0.2104523381	 0.080589
H	 0.8957978708	-0.5296689256	-1.9538799119	 0.1014
243.362	258.4665	367.396	492.1399	512.9445	602.0893	673.1366	682.6584	752.4703	780.8824	830.5339	843.9942	867.4165	896.8712	928.6961	954.8404	957.9141	980.2337	985.7859	998.1829	1052.3282	1109.0802	1140.2414	1175.713	1189.6302	1220.4264	1257.8554	1275.9401	1291.1516	1311.7481	1330.6918	1374.6028	1490.4507	1646.1002	1725.5597	3021.7254	3071.1564	3092.6475	3130.1112	3149.4001	3182.3798	3215.558
C1N=C2OC3C=CC1C23	C1[N][C]2O[C@H]3C=C[C@@H]1[C@@H]23	
InChI=1S/C7H7NO/c1-2-5-6-4(1)3-8-7(6)9-5/h1-2,4-6H,3H2	InChI=1S/C7H7NO/c1-2-5-6-4(1)3-8-7(6)9-5/h1-2,4-6H,3H2/t4-,5-,6+/m0/s1
