13
gdb 28995	3.19403	1.54859	1.04294	2.8473	76.94	-0.2485	-0.0669	0.1816	1045.4086	0.090222	-415.627095	-415.619866	-415.618922	-415.658762	27.505	
O	 0.0739102939	 1.3342284314	-0.0211597747	-0.424707
C	 0.0500991172	-0.0121983318	 0.0016267267	 0.288526
C	 0.0338266061	-0.7277913768	-1.1967306116	-0.045109
N	 0.0101951623	-2.056200605	-1.2245154333	-0.240448
C	 0.0026933241	-2.6794331106	-0.0404139148	 0.048045
N	 0.016368187	-2.1104266065	 1.1591786687	-0.300916
C	 0.040207772	-0.7694677124	 1.1863037558	 0.085388
C	 0.0562470852	-0.0774051985	 2.4356596247	 0.176441
C	 0.0711635772	 0.5944425073	 3.4360395611	-0.354901
H	 0.0823578265	 1.6568026458	 0.8922781232	 0.301544
H	 0.0404765516	-0.1931562624	-2.1433299748	 0.13203
H	-0.0166146697	-3.7651325182	-0.0625148165	 0.122119
H	 0.0836589067	 1.1482305477	 4.3431404055	 0.211989
121.9969	139.2287	236.5555	374.694	385.8614	469.3316	478.3316	497.0476	562.9414	606.4254	627.8924	632.1277	685.0895	748.3895	810.4317	881.1942	940.2917	988.7413	1153.0495	1160.926	1231.1105	1292.7935	1296.6176	1363.513	1450.276	1483.7075	1579.3762	1621.7026	2217.9085	3166.4543	3179.9732	3493.8245	3725.2416
OC1=CN=CN=C1C#C	Oc1cncnc1C#C	
InChI=1S/C6H4N2O/c1-2-5-6(9)3-7-4-8-5/h1,3-4,9H	InChI=1S/C6H4N2O/c1-2-5-6(9)3-7-4-8-5/h1,3-4,9H
