19
gdb 100401	2.56092	1.08593	0.85694	1.3287	80.54	-0.2338	0.0447	0.2785	1401.4122	0.156684	-419.182956	-419.1725	-419.171556	-419.218412	37.856	
C	-0.5024186338	 1.059770265	-0.0470591953	-0.223907
O	 0.2274340805	-0.1659996109	-0.0520543575	-0.253085
C	 0.867642036	-0.4723645328	-1.2005127217	 0.4736
N	 1.4347690438	-1.725959551	-1.109428107	-0.567515
N	 0.8584939223	 0.3229515947	-2.1965121988	-0.349943
C	 1.4968107273	-0.1074995813	-3.4393190838	-0.124486
C	 1.186131013	 0.9210403193	-4.5376158165	-0.377233
C	 2.9517096383	-0.2960908561	-3.3038118787	 0.347331
C	 4.136045027	-0.4665543345	-3.1703774271	-0.503862
H	 0.1641387145	 1.9099218961	-0.2133331981	 0.136945
H	-1.2663004894	 1.061294786	-0.8291061662	 0.134039
H	-0.9635393649	 1.1209062083	 0.9398788193	 0.123012
H	 1.4864196389	-2.0858642764	-0.1679124631	 0.256038
H	 2.2866737809	-1.8433773042	-1.6410183065	 0.265001
H	 1.0781686071	-1.0786274322	-3.7547641283	 0.105
H	 1.593004413	 1.8967959462	-4.2609940813	 0.128768
H	 1.6169426155	 0.6145266455	-5.4946780647	 0.113904
H	 0.1025205048	 1.0161767882	-4.6434279964	 0.118281
H	 5.1850564451	-0.5958813199	-3.0656032682	 0.198113
59.7173	105.9023	140.7237	151.2599	181.4405	202.0737	231.3546	297.0318	303.6569	353.0149	440.4038	498.8166	542.8645	565.0007	606.0871	624.8337	641.8759	674.2681	744.918	817.6105	874.6643	964.5771	1042.6279	1090.2441	1127.9977	1138.9431	1175.4827	1183.932	1228.0726	1323.1477	1332.7132	1384.8662	1401.1203	1474.4642	1481.7417	1484.1291	1494.6577	1503.4984	1640.4	1735.5627	2216.7083	2951.2414	3047.3108	3047.8106	3121.1421	3127.686	3131.5769	3147.32	3500.2019	3553.6802	3665.9054
COC(N)=NC(C)C#C	COC(=N[C@@H](C)C#C)N	
InChI=1S/C6H10N2O/c1-4-5(2)8-6(7)9-3/h1,5H,2-3H3,(H2,7,8)	InChI=1S/C6H10N2O/c1-4-5(2)8-6(7)9-3/h1,5H,2-3H3,(H2,7,8)/t5-/m0/s1
