17
gdb 127309	5.32263	0.8938	0.804	2.471	81.44	-0.2353	0.0206	0.2559	1417.653	0.13565	-380.860785	-380.851784	-380.85084	-380.896452	31.986	
C	-0.6042110382	 1.3917543365	-0.3605021536	-0.31688
N	-0.1801230348	 0.0304452034	-0.1184465139	 0.05989
C	 0.5052710795	-0.7921961212	-0.9496632537	-0.020635
C	 0.7308901022	-1.9641499339	-0.2596078406	-0.301771
C	 0.1363703155	-1.7493872622	 1.0020107911	 0.356011
C	 0.0240615971	-2.6973813846	 2.1692425134	-0.454323
C	 1.2121953691	-3.5204985509	 2.3746563308	 0.309229
C	 2.1841739543	-4.2086317156	 2.5346334762	-0.46011
N	-0.4099059028	-0.5367153059	 1.0828739262	-0.336597
H	-0.0158332365	 2.0950526044	 0.236859973	 0.146841
H	-0.4714837141	 1.6212402025	-1.4191745955	 0.137409
H	-1.6582946324	 1.5024955624	-0.0960654022	 0.15174
H	 0.7768193531	-0.4824365813	-1.9468109886	 0.128727
H	 1.2499983567	-2.8427045415	-0.6049771399	 0.112912
H	-0.1892007186	-2.1084658168	 3.0681945929	 0.150245
H	-0.8433813134	-3.3577097905	 2.0280057775	 0.142954
H	 3.0459363334	-4.8102137548	 2.6844574069	 0.194358
23.8692	34.437	106.6084	181.8143	261.0862	291.4244	332.4435	398.5177	465.0455	613.4213	626.0888	637.3936	664.3331	712.7277	750.7507	772.4596	834.5216	942.2138	957.2356	1015.7156	1023.1858	1066.5136	1090.0262	1151.4142	1209.4349	1235.4598	1305.6376	1340.4921	1403.9644	1436.5024	1457.1201	1463.3035	1475.7478	1501.087	1529.3569	1565.2334	2241.9011	3008.463	3047.18	3066.6456	3115.3709	3146.3568	3253.8373	3279.612	3507.7096
CN1C=CC(CC#C)=N1	Cn1ccc(CC#C)n1	
InChI=1S/C7H8N2/c1-3-4-7-5-6-9(2)8-7/h1,5-6H,4H2,2H3	InChI=1S/C7H8N2/c1-3-4-7-5-6-9(2)8-7/h1,5-6H,4H2,2H3
