16
gdb 87305	2.19384	1.3394	0.95772	5.1638	75.99	-0.2758	0.007	0.2828	1241.1296	0.120894	-400.707772	-400.698308	-400.697364	-400.742514	33.788	
C	 0.0543034623	 1.5134638906	-0.1334786484	-0.43357
C	 0.0658430537	 0.0201608102	 0.0657695364	 0.036752
O	 1.3267708113	-0.6520307926	 0.0645597946	-0.267277
C	 0.5562595969	-0.6919745073	 1.2739025413	 0.155488
C	 1.1511152415	 0.0658285803	 2.4611470909	-0.426845
C	 2.2356517843	-0.6705497448	 3.1113502407	 0.282883
N	 3.094639955	-1.2390541089	 3.6332802111	-0.29928
C	-0.0276661502	-1.9696242656	 1.6114451204	 0.309015
C	-0.5207998199	-3.0205054277	 1.9207773932	-0.411172
H	 0.8537832242	 2.0166744472	 0.4130553902	 0.132712
H	 0.1874449339	 1.7385809293	-1.1965475148	 0.144518
H	-0.9081235005	 1.9320635472	 0.1784753203	 0.135072
H	-0.7055231695	-0.5130937813	-0.4922435595	 0.108869
H	 1.5394878736	 1.0316619398	 2.131534584	 0.160013
H	 0.3645493857	 0.2550503614	 3.2001568156	 0.163512
H	-0.9445614621	-3.9572037079	 2.188905454	 0.209309
49.3789	111.7285	137.8032	160.0215	169.231	247.1618	315.5162	379.4378	388.1987	446.9296	495.3412	556.8615	568.5572	636.5563	679.7177	723.7737	798.4298	898.8458	922.0144	968.5554	999.0022	1026.8109	1118.405	1157.1961	1210.454	1262.4895	1309.2492	1353.5772	1410.4881	1445.7522	1451.3313	1485.0177	1503.0849	2242.1614	2369.9071	3044.8442	3057.7514	3099.2196	3107.4488	3118.372	3140.2495	3499.6311
CC1OC1(CC#N)C#C	C[C@H]1O[C@]1(CC#N)C#C	
InChI=1S/C7H7NO/c1-3-7(4-5-8)6(2)9-7/h1,6H,4H2,2H3	InChI=1S/C7H7NO/c1-3-7(4-5-8)6(2)9-7/h1,6H,4H2,2H3/t6-,7+/m1/s1
