19
gdb 13904	2.68517	1.89802	1.36471	3.4743	73.04	-0.2366	0.0193	0.2559	987.8623	0.163098	-365.077193	-365.067794	-365.06685	-365.111296	33.28	
C	 0.0917610707	 1.3912055692	 0.3255829578	-0.415233
C	-0.0571312248	-0.076099098	-0.005526961	-0.020769
C	 0.6662017126	-0.7403310799	-1.1601526625	-0.005667
C	 1.6154261463	-0.013054812	-2.0847512007	-0.405848
N	 1.0139729257	-1.0327194259	 0.2102233051	-0.090439
C	 2.2488159982	-0.9058462937	 0.8230156856	 0.373089
C	 2.1902298004	-0.4604179632	 2.2746304928	-0.47499
O	 3.2841382658	-1.2061718593	 0.264440138	-0.35364
H	 1.0836997262	 1.7759630418	 0.0786381612	 0.130634
H	-0.6491900365	 1.9752259892	-0.2306920289	 0.129721
H	-0.0830096601	 1.5696125566	 1.3916275124	 0.129691
H	-1.0438631184	-0.4746541378	 0.2334196987	 0.095981
H	 0.1270948916	-1.5544494317	-1.64574052	 0.096724
H	 2.100700512	 0.8385018717	-1.6046450359	 0.125067
H	 2.4066823604	-0.6901854017	-2.4154059911	 0.151469
H	 1.0730167237	 0.3472102395	-2.965142756	 0.115821
H	 2.1647747477	 0.6336543035	 2.3275939694	 0.138922
H	 1.2987446144	-0.8416303353	 2.7785177911	 0.133327
H	 3.089735764	-0.8053699229	 2.785647314	 0.146139
77.9584	97.1596	143.0337	153.6801	161.7979	197.6682	274.3373	314.8972	432.3948	458.8422	493.381	606.283	629.946	669.6813	790.7913	843.3126	956.9169	981.0315	1021.1714	1036.78	1051.0979	1083.9572	1134.0009	1149.1231	1170.8734	1199.4214	1222.3748	1379.63	1381.7039	1406.6099	1415.2783	1419.5415	1454.7961	1471.1216	1477.9983	1481.0138	1487.109	1496.4557	1511.5319	1775.2613	3039.2623	3047.0947	3048.355	3089.4969	3098.0456	3100.1755	3114.8413	3119.1032	3128.7063	3141.0268	3155.6233
CC1C(C)N1C(C)=O	C[C@H]1[C@@H](C)N1C(=O)C	
InChI=1S/C6H11NO/c1-4-5(2)7(4)6(3)8/h4-5H,1-3H3	InChI=1S/C6H11NO/c1-4-5(2)7(4)6(3)8/h4-5H,1-3H3/t4-,5+,7?
