17
gdb 17614	4.13384	1.31083	1.14489	1.7852	66.29	-0.2649	-0.0391	0.2258	1070.9472	0.141268	-400.991236	-400.982752	-400.981807	-401.024632	30.519	
C	 0.1580447186	 1.6645572832	 0.1711462861	-0.402687
C	-0.0399834105	 0.1665972584	-0.1241794446	 0.054378
O	 0.6154386564	-0.1926483615	-1.3108922817	-0.43769
C	 0.4725212402	-0.691673411	 1.0291102808	 0.365933
O	 1.4477847917	-1.4036268658	 0.8603360235	-0.364731
C	-0.2340017108	-0.6483458265	 2.33810407	-0.102853
C	-0.5213987809	-1.9795050875	 2.9727913201	-0.217386
N	 0.5029718453	-1.1099565934	 3.5265530604	-0.300769
H	 1.2162533976	 1.879962516	 0.3458537051	 0.131711
H	-0.1685905153	 2.2365811288	-0.7004028475	 0.139642
H	-0.4196289521	 1.9951427615	 1.03934426	 0.119759
H	-1.1206385345	-0.0300112009	-0.2246748437	 0.094185
H	 1.3151481393	-0.8091182143	-1.0420838544	 0.293149
H	-0.9264403304	 0.169970908	 2.5041835142	 0.1062
H	-1.4237569824	-2.0820478743	 3.5682942072	 0.13227
H	-0.2152030753	-2.8618095842	 2.4181182247	 0.137487
H	 1.4141871031	-1.4340118165	 3.2002474098	 0.251401
68.0902	73.1229	189.9314	212.4416	245.682	284.498	358.0854	385.0453	420.9988	468.0252	657.1705	743.9991	801.9138	847.7443	881.2466	923.5716	967.9133	1005.9406	1036.3982	1078.0066	1097.8989	1122.529	1135.6572	1177.8899	1190.7414	1275.239	1290.0302	1319.7843	1349.4604	1398.9054	1400.6985	1439.1799	1489.3153	1496.9948	1498.0561	1762.1028	2968.6177	3044.0644	3115.5663	3120.1306	3130.2266	3170.5433	3210.6778	3467.9514	3687.2164
CC(O)C(=O)C1CN1	C[C@@H](O)C(=O)[C@H]1CN1	
InChI=1S/C5H9NO2/c1-3(7)5(8)4-2-6-4/h3-4,6-7H,2H2,1H3	InChI=1S/C5H9NO2/c1-3(7)5(8)4-2-6-4/h3-4,6-7H,2H2,1H3/t3-,4-/m1/s1
