17
gdb 24191	4.06683	1.58968	1.38289	3.5381	78.23	-0.1888	0.0364	0.2251	944.4657	0.140758	-380.854707	-380.848393	-380.847448	-380.88586	25.977	
C	-0.0411380676	 1.5732375884	-0.056415049	-0.203401
C	 1.5247917059	 1.3760856017	 0.0108762184	-0.169895
C	 1.1852722392	 0.166925745	 0.9691115638	-0.203411
C	-0.0450910084	-0.0036163263	-0.0037127206	-0.153983
C	 0.6999727143	-0.3005506039	-1.3019373868	 0.304589
C	 1.7211698832	 0.6040050283	-1.2828650063	 0.342484
N	 2.4304549028	 0.387001815	-2.4293548831	-0.422571
C	 1.7865656555	-0.6499697832	-3.0798109666	-0.039758
N	 0.7276621052	-1.0878967948	-2.4151346354	-0.3707
H	-0.4451934986	 2.0345850049	 0.8508889939	 0.093719
H	-0.4497593862	 2.0487817544	-0.9506957783	 0.099828
H	 2.2028937432	 2.1774484624	 0.2988318292	 0.068299
H	 1.9058155864	-0.6523269794	 1.0190322965	 0.099829
H	 0.8969277119	 0.4955753799	 1.9731800674	 0.093743
H	-0.929362811	-0.5733554413	 0.2724732748	 0.075471
H	 3.2526157097	 0.8656787543	-2.7565644454	 0.263109
H	 2.1419038045	-1.0298896454	-4.0251744223	 0.122647
45.105	306.392	408.756	478.5654	496.0306	517.1879	656.1141	667.2615	690.7434	724.2166	764.7583	792.2684	828.6173	857.7145	892.3146	956.9539	998.7294	1000.3085	1018.2653	1069.1982	1075.0352	1084.3775	1097.2264	1150.7407	1208.302	1216.6627	1225.4136	1239.0701	1251.8184	1285.2032	1356.3464	1395.5537	1435.437	1476.3697	1507.1902	1512.805	1571.0455	3038.3854	3049.6114	3116.0416	3120.6898	3131.4551	3146.5442	3259.5566	3665.3951
C1C2CC1C1=C2NC=N1	C1[C@H]2C[C@@H]1c1c2[nH]cn1	
InChI=1S/C7H8N2/c1-4-2-5(1)7-6(4)8-3-9-7/h3-5H,1-2H2,(H,8,9)	InChI=1S/C7H8N2/c1-4-2-5(1)7-6(4)8-3-9-7/h3-5H,1-2H2,(H,8,9)/t4-,5+
