15
gdb 6074	5.21551	1.03465	0.87059	7.5305	61.15	-0.2434	0.0213	0.2648	1232.1423	0.119311	-433.1682	-433.159784	-433.15884	-433.201838	30.369	
N	 0.1165447519	 1.409831304	-0.0516482398	-0.548693
C	-0.0214298583	 0.0360649612	 0.0025463703	 0.419898
N	 1.183971752	-0.636782547	 0.1407933189	-0.549661
H	 1.9491704865	-0.2527442375	-0.3966151696	 0.25562
H	 1.077939721	-1.6320113002	 0.004602324	 0.260841
N	-1.1208844598	-0.6184121309	-0.0626682443	-0.317822
C	-2.3884444414	 0.0790545045	-0.0569668666	-0.320678
C	-3.5424371081	-0.9322493415	 0.0479932403	 0.416652
O	-3.1302309627	-2.2032467258	 0.0842344335	-0.360509
O	-4.6973072787	-0.602593559	 0.0895403108	-0.345297
H	 0.9044893826	 1.7921013096	 0.4496758819	 0.261875
H	-0.7295807254	 1.9440861726	 0.0666432878	 0.268834
H	-2.1485251209	-2.1447477067	 0.0349152539	 0.300075
H	-2.5050512713	 0.7779430705	 0.7867038844	 0.123741
H	-2.5628449772	 0.6598498864	-0.9749861954	 0.135126
52.4963	75.6821	144.0004	230.4409	289.9085	370.792	393.5028	429.7369	522.0142	537.7207	580.0111	612.2483	644.4268	653.6196	756.3678	824.318	884.7163	958.1442	1004.0348	1062.7256	1099.4239	1226.3444	1230.4781	1237.7523	1343.4899	1438.4444	1454.9562	1463.5581	1634.0908	1647.4395	1757.1936	1875.9433	2976.0962	3014.6441	3443.3452	3560.0328	3584.2675	3665.7418	3691.2598
NC(=[NH2+])NCC([O-])=O	NC(=NCC(=O)O)N	
InChI=1S/C3H7N3O2/c4-3(5)6-1-2(7)8/h1H2,(H,7,8)(H4,4,5,6)	InChI=1S/C3H7N3O2/c4-3(5)6-1-2(7)8/h1H2,(H,7,8)(H4,4,5,6)
