23
gdb 70902	2.54113	1.66986	1.25966	0.1764	89.09	-0.242	0.0894	0.3313	1124.6635	0.207003	-351.156009	-351.147622	-351.146678	-351.188091	34.51	
C	-0.0443564599	 1.5169960266	 0.0311905422	-0.503302
C	 0.0229616082	 0.0167963752	-0.0090864336	 0.358045
C	 0.8486666616	-0.7940701276	-1.0111686726	-0.330587
C	-0.159982377	-1.9842080736	-0.8428960618	 0.34277
C	-0.673537314	-2.628115034	-2.1156193467	-0.488754
C	 0.3685779823	-2.9594418197	 0.224857089	-0.238965
C	 0.5494474759	-2.0841452271	 1.4929142276	-0.248237
C	-0.3004274537	-0.8457845175	 1.2041438053	-0.082645
C	-1.0973767102	-1.0123865252	-0.0617351611	-0.168847
H	 0.8993488494	 1.9496046197	 0.3862929086	 0.115865
H	-0.243908993	 1.9331166065	-0.9635558993	 0.112368
H	-0.8381249336	 1.8625174716	 0.7022667441	 0.114181
H	 0.786306005	-0.3583528267	-2.013826134	 0.089472
H	 1.9037177609	-0.9894931102	-0.7801724164	 0.079553
H	 0.1260418036	-3.1690000655	-2.6353264111	 0.112469
H	-1.4738030435	-3.3462466021	-1.9004441615	 0.110669
H	-1.0733404228	-1.8802646391	-2.808755936	 0.111441
H	-0.3751489974	-3.7453477711	 0.40526587	 0.089353
H	 1.2958348103	-3.4512973675	-0.0895259659	 0.088918
H	 0.2001562038	-2.5997270576	 2.3928383831	 0.094545
H	 1.6004030714	-1.8262036643	 1.6653385227	 0.096095
H	-0.7528634201	-0.3095187974	 2.0322100817	 0.073728
H	-2.1688753472	-0.8920050434	-0.1677283845	 0.071863
178.9574	205.3219	216.0204	227.5893	271.0578	294.1043	346.5286	405.1301	430.828	548.3553	565.214	692.4749	711.8539	751.839	813.341	845.8296	885.7121	904.8925	915.8662	921.7626	967.5691	975.8207	994.8503	1014.5885	1044.9408	1052.6526	1086.7446	1109.4938	1135.826	1162.0082	1211.6931	1221.5766	1230.2554	1246.9771	1269.4781	1280.0052	1297.0955	1323.8256	1360.1406	1413.4965	1413.7363	1435.3927	1483.9897	1486.8102	1492.5466	1494.9856	1496.0419	1500.1419	1513.8029	3013.4548	3016.6233	3019.2533	3025.2052	3039.3391	3065.1296	3071.4476	3073.0156	3081.805	3084.0947	3089.9706	3090.8894	3161.8786	3182.4259
CC12CC3(C)CCC1C23	C[C@@]12C[C@@]3(C)CC[C@@H]1[C@@H]23	
InChI=1S/C9H14/c1-8-4-3-6-7(8)9(6,2)5-8/h6-7H,3-5H2,1-2H3	InChI=1S/C9H14/c1-8-4-3-6-7(8)9(6,2)5-8/h6-7H,3-5H2,1-2H3/t6-,7-,8-,9-/m1/s1
