18
gdb 63113	2.21984	1.69505	1.21175	4.378	78.34	-0.2301	0.012	0.2421	1077.7626	0.148187	-398.089144	-398.080387	-398.079443	-398.122025	33.532	
C	 0.0079471719	 1.548670847	-0.0042406731	-0.468614
C	 0.0287864348	 0.034624261	-0.0658133789	 0.224473
N	-1.1127161137	-0.680349368	 0.4558399067	-0.548587
C	 0.6441164206	-0.7500554499	-1.2058878099	-0.157996
C	 1.927493676	-0.1078034591	-1.7346653558	-0.198378
N	 2.4665426635	 0.0379706227	-0.3387363522	-0.377001
C	 1.315048554	-0.7413459926	 0.1766567312	 0.234607
C	 1.4615027666	-1.7592747899	 1.1613808215	 0.206729
N	 1.6324561295	-2.5671658542	 1.9732877607	-0.360908
H	 0.9621975169	 1.9866671382	-0.301107764	 0.148577
H	-0.7823052182	 1.9437610241	-0.6527953272	 0.113299
H	-0.2034872083	 1.875655668	 1.0199463712	 0.119053
H	-1.2768638135	-0.4332343035	 1.4273740062	 0.240392
H	-1.9498488815	-0.4331359194	-0.063557257	 0.233969
H	 0.0912392924	-1.5525925516	-1.6748534801	 0.118594
H	 2.5080468653	-0.8081811971	-2.3417070545	 0.119954
H	 1.8337903404	 0.8415466516	-2.2719722578	 0.112975
H	 3.3317481632	-0.4788440372	-0.2243053971	 0.238863
120.147	145.3094	191.0658	230.6796	242.5435	276.7028	341.095	381.6091	413.0916	480.5894	529.4328	577.0533	611.8752	689.9016	762.1898	794.7897	836.0893	923.6775	946.031	960.6482	990.8869	1014.832	1033.3116	1079.7312	1110.71	1165.5976	1196.1586	1230.1014	1270.0796	1278.5856	1317.4277	1354.1512	1406.9618	1438.9	1484.5469	1497.7154	1515.3454	1661.2	2340.765	3031.3244	3044.52	3089.8936	3093.2483	3137.9964	3210.2454	3491.24	3538.5574	3568.0243
CC1(N)C2CNC12C#N	C[C@@]1(N)[C@H]2CN[C@@]12C#N	
InChI=1S/C6H9N3/c1-5(8)4-2-9-6(4,5)3-7/h4,9H,2,8H2,1H3	InChI=1S/C6H9N3/c1-5(8)4-2-9-6(4,5)3-7/h4,9H,2,8H2,1H3/t4-,5-,6-/m1/s1
