17
gdb 111370	2.24586	1.55175	1.09919	5.1295	72.84	-0.2334	0.0209	0.2543	1131.2942	0.135807	-417.963401	-417.954872	-417.953927	-417.997077	30.943	
C	 0.0523121761	 1.2615458378	-0.7407811323	-0.325386
N	-0.2022800142	 0.3962757067	 0.4055875507	-0.269042
C	-1.4277165819	-0.3390738595	 0.3328115438	 0.001995
C	-1.5367734653	-1.6027585016	-0.5654539059	 0.001051
O	-0.5551884451	-2.5253012894	-0.0709763531	-0.233054
C	-1.8156670481	-2.4672746722	 0.5894253374	 0.024684
C	-1.7637530067	-1.2810917343	 1.573421072	-0.246966
C	-0.7875793642	-1.3665805273	 2.6464523596	 0.306748
N	-0.0057236636	-1.4422889499	 3.4943298135	-0.331355
H	 1.0106500629	 1.768485578	-0.6015848567	 0.131875
H	 0.0803451467	 0.7389070802	-1.7118582587	 0.103434
H	-0.7264529112	 2.0305509684	-0.7966855012	 0.124572
H	 0.5692823418	-0.2483555457	 0.547120284	 0.24166
H	-2.2585551329	 0.3511315592	 0.154990398	 0.094804
H	-1.8341037859	-1.7044571273	-1.6024157153	 0.117982
H	-2.3865439197	-3.3824683201	 0.68206195	 0.125544
H	-2.7464179687	-1.038745023	 1.9856092943	 0.131453
87.0414	102.9421	112.1564	186.6228	219.0997	271.0414	372.6376	391.2669	536.4775	579.2926	669.0071	730.9573	764.1613	833.3813	863.8	876.522	896.3129	931.5568	1019.6762	1030.8935	1050.3859	1060.2413	1139.8484	1150.6334	1159.6477	1225.3099	1230.5674	1251.1925	1259.5396	1326.6928	1350.4438	1386.9752	1459.7915	1490.6626	1502.8921	1525.3462	2358.7794	2961.2792	3059.7438	3062.8106	3090.0662	3112.9327	3188.33	3207.8261	3525.6138
CNC1C2OC2C1C#N	CN[C@H]1[C@H]2O[C@H]2[C@H]1C#N	
InChI=1S/C6H8N2O/c1-8-4-3(2-7)5-6(4)9-5/h3-6,8H,1H3	InChI=1S/C6H8N2O/c1-8-4-3(2-7)5-6(4)9-5/h3-6,8H,1H3/t3-,4+,5-,6+/m0/s1
