17
gdb 10621	2.94422	1.68919	1.29066	2.4392	71.8	-0.2473	0.0253	0.2726	988.5147	0.140745	-363.802661	-363.794063	-363.793119	-363.835273	32.21	
C	 0.3291712925	 1.4457602088	 0.0242729951	-0.419403
C	 0.2444009869	-0.0575082116	 0.139130616	-0.012418
N	 1.4917823237	-0.8366791503	 0.2071483671	-0.389463
C	 0.579391697	-0.8350819676	 1.3802580124	 0.084544
C	 1.2025313537	-0.189508566	 2.6299309386	-0.133142
O	 2.2780911034	 0.6619455412	 2.3164721515	-0.416213
C	-0.199998156	-2.0144022427	 1.6503027613	 0.250816
C	-0.8381361983	-3.000951407	 1.9096502883	-0.409375
H	 1.1000625696	 1.8489546272	 0.680569447	 0.154593
H	 0.5538110899	 1.7309150648	-1.0092484203	 0.12031
H	-0.6326198165	 1.8952840923	 0.2931346499	 0.121272
H	-0.5506063957	-0.506979797	-0.4536474928	 0.095511
H	 1.4165163592	-1.7106893922	-0.3051218308	 0.243956
H	 0.4450330501	 0.3975045202	 3.1613366653	 0.117205
H	 1.5191482979	-1.0036854305	 3.3003777285	 0.100729
H	 2.697290051	 0.2653184093	 1.5369701199	 0.292796
H	-1.4087090484	-3.8687360689	 2.1317262929	 0.198282
121.8306	147.9711	163.3837	204.6529	213.6661	295.2686	349.2371	466.1193	486.4478	521.618	537.8832	562.7213	607.1769	660.9114	691.5577	769.0469	871.967	960.7623	1023.3622	1061.6985	1067.1811	1079.155	1101.7992	1131.1327	1235.4453	1247.5017	1259.898	1318.0422	1373.4719	1410.3764	1438.2108	1467.4539	1495.5555	1507.2859	1516.5998	2231.701	2981.697	3039.1598	3061.897	3097.7167	3120.0366	3159.9098	3501.2525	3520.4431	3699.642
CC1NC1(CO)C#C	C[C@H]1N[C@]1(CO)C#C	
InChI=1S/C6H9NO/c1-3-6(4-8)5(2)7-6/h1,5,7-8H,4H2,2H3	InChI=1S/C6H9NO/c1-3-6(4-8)5(2)7-6/h1,5,7-8H,4H2,2H3/t5-,6+/m1/s1
