25
gdb 115285	3.07296	1.04733	0.98677	1.0652	89.01	-0.2453	0.0783	0.3236	1394.4977	0.228378	-389.507416	-389.497251	-389.496307	-389.54209	38.954	
C	 0.468743449	 0.7637368839	-0.4709950975	-0.236236
O	-0.0290214372	-0.4429437994	 0.0545215074	-0.24159
C	-1.4470670344	-0.4722846492	 0.1825453679	 0.134198
C	-2.1711438908	-0.6564040736	-1.1862831703	-0.242436
C	-2.9754904732	-1.9681539139	-1.0652829419	-0.226168
C	-2.245809969	-2.807969558	 0.0116956016	 0.303689
C	-3.1644899063	-3.8592646956	 0.6431440536	-0.43939
C	-1.0015988615	-3.4966559495	-0.5808916216	-0.420503
C	-1.8326450488	-1.7073371699	 1.0177190537	-0.249491
H	 1.5593573737	 0.690833663	-0.4770445441	 0.124304
H	 0.1255173808	 0.951243365	-1.4997980922	 0.103223
H	 0.1736643932	 1.6262110022	 0.148566801	 0.100841
H	-1.7647616087	 0.4566575597	 0.6801326105	 0.058372
H	-2.8081166961	 0.1947291791	-1.4425677324	 0.093488
H	-1.4120786768	-0.7354690523	-1.9704008387	 0.11029
H	-3.9940466694	-1.7510303122	-0.7203153572	 0.088347
H	-3.068622124	-2.4976705288	-2.018959414	 0.090358
H	-3.48998911	-4.596819061	-0.0994577021	 0.107767
H	-2.6524146975	-4.4043842748	 1.4441558484	 0.109063
H	-4.0613892566	-3.3981817812	 1.0719029163	 0.103772
H	-0.2931605423	-2.7707293484	-0.9867958153	 0.129867
H	-0.4748151411	-4.0696730706	 0.1903773654	 0.106882
H	-1.2843556561	-4.1929642681	-1.3786257185	 0.100995
H	-1.0092453789	-1.9997981572	 1.6749355039	 0.103319
H	-2.691153698	-1.4568544089	 1.6521613763	 0.087041
63.7256	118.1914	149.3429	205.7944	229.2704	237.7688	267.7465	304.2166	343.8669	365.7615	390.744	418.8749	469.9974	575.4713	675.2533	764.4112	800.7687	831.2902	900.0143	913.1018	940.0893	960.3645	982.9643	992.7561	1007.6025	1064.1518	1070.6888	1114.3646	1135.1144	1182.7706	1183.4303	1192.9345	1219.559	1255.0139	1261.4558	1278.9412	1309.8484	1330.8158	1331.7007	1361.681	1396.7589	1401.8466	1423.2333	1473.2171	1477.4689	1478.557	1483.8986	1488.9686	1493.7243	1503.8463	1505.8398	1510.3969	1513.2555	2967.7508	2977.383	3016.0203	3018.7731	3024.4618	3029.0103	3038.2041	3053.7308	3073.634	3084.6718	3088.2731	3090.2493	3097.6618	3099.2582	3109.1575	3125.0429
COC1CCC(C)(C)C1	CO[C@H]1CCC(C)(C)C1	
InChI=1S/C8H16O/c1-8(2)5-4-7(6-8)9-3/h7H,4-6H2,1-3H3	InChI=1S/C8H16O/c1-8(2)5-4-7(6-8)9-3/h7H,4-6H2,1-3H3/t7-/m0/s1
