19
gdb 126777	2.47485	1.33943	0.93376	2.5532	79.39	-0.2076	0.03	0.2375	1282.7078	0.15948	-419.244968	-419.235642	-419.234698	-419.27958	34.11	
C	-0.1424823305	 1.5828501866	-0.1581271182	-0.373305
C	 0.0696106237	 0.069555625	-0.0726048089	-0.14133
N	 0.8045663606	-0.4616906643	-1.2042421418	-0.025969
N	 0.1609199398	-0.5845725744	-2.4012890819	-0.385928
C	 1.0970786542	-1.0161448851	-3.2312647035	 0.447611
O	 0.8291376105	-1.2711981888	-4.5301534735	-0.432744
C	 2.347874485	-1.1730785899	-2.6032593191	-0.426668
C	 2.1185914212	-0.7992468344	-1.290513348	 0.399503
C	 3.0599932404	-0.7518075964	-0.1305003588	-0.506222
H	 0.8131245242	 2.1160740488	-0.1517906565	 0.121528
H	-0.6700499103	 1.8350104555	-1.0811761384	 0.145433
H	-0.7375159554	 1.9314056692	 0.6917812224	 0.11628
H	 0.6176475751	-0.1953613436	 0.8355268807	 0.116096
H	-0.8951020083	-0.4454808608	-0.0382015833	 0.128504
H	-0.1067075807	-1.0766128168	-4.6651059925	 0.299676
H	 3.2722345481	-1.5154769069	-3.0373584882	 0.104563
H	 3.154059133	 0.2572282661	 0.2867967911	 0.135439
H	 2.7455693089	-1.4158525184	 0.6830315732	 0.136944
H	 4.0531669906	-1.0711324514	-0.4526027752	 0.14059
45.3959	103.8996	126.0807	200.7959	212.4004	278.1814	310.4761	342.2423	406.4155	432.4016	515.1524	605.5593	635.229	647.4644	715.1422	768.22	780.8816	818.225	971.2981	990.9075	1038.2916	1060.9096	1095.2494	1099.6187	1165.6302	1189.2944	1241.2559	1288.0396	1344.3932	1391.814	1406.1332	1415.8101	1446.4538	1477.2176	1483.1801	1488.6553	1497.2847	1507.531	1533.7237	1564.1531	1606.7015	3028.6688	3042.4331	3059.0614	3077.9314	3100.659	3115.3673	3128.7064	3134.3754	3273.1198	3795.5181
CCN1N=C(O)C=C1C	CCn1nc(O)cc1C	
InChI=1S/C6H10N2O/c1-3-8-5(2)4-6(9)7-8/h4H,3H2,1-2H3,(H,7,9)	InChI=1S/C6H10N2O/c1-3-8-5(2)4-6(9)7-8/h4H,3H2,1-2H3,(H,7,9)
