20
gdb 86712	2.98155	1.25547	0.9739	4.1716	80.96	-0.2257	0.0331	0.2588	1244.2616	0.172168	-403.174453	-403.165985	-403.165041	-403.207905	32.218	
C	 0.0948082017	 1.5960592932	-0.0419740733	-0.399222
C	 0.0391259027	 0.071841264	 0.0642267463	 0.004599
C	 0.6081007113	-0.6504216785	-1.1848445368	-0.198676
N	 1.1834323679	-1.8914710048	-0.6687089084	-0.030463
C	 1.3693642696	-2.9960859315	-1.430629926	 0.13621
O	 1.0944868823	-3.0794171091	-2.611720275	-0.348029
C	 1.4868569927	-1.7791982349	 0.7338396715	 0.006802
C	 2.3297917822	-0.5945735534	 1.1463434841	-0.316156
C	 0.817632924	-0.530201954	 1.2340266492	-0.064227
H	 1.1292033241	 1.9454488921	-0.1284205536	 0.119114
H	-0.4551459468	 1.9518165866	-0.9195696734	 0.120888
H	-0.3456169186	 2.0685154135	 0.8414944765	 0.118082
H	-1.0069215896	-0.2348166339	 0.1888108041	 0.086114
H	-0.1426754435	-0.8829881969	-1.9422557822	 0.140366
H	 1.3800320214	-0.039401362	-1.6715763069	 0.113201
H	 1.7946265993	-3.8360500429	-0.8451451345	 0.066912
H	 1.5211690584	-2.7116846024	 1.2842003235	 0.108987
H	 2.8733270183	-0.6728218169	 2.081561461	 0.11972
H	 2.8470542407	-0.0356563968	 0.3736773337	 0.121834
H	 0.362455012	-0.4984357113	 2.2173693001	 0.093945
50.8595	139.5514	185.8721	226.3925	248.805	323.5942	339.9547	409.3818	478.4812	518.2015	601.4641	714.6774	774.1755	805.2491	863.1649	905.7219	923.5435	943.5106	975.917	1013.9887	1028.8173	1050.7081	1060.8894	1081.0122	1099.5051	1141.5475	1168.232	1201.3284	1204.6887	1252.4505	1301.5574	1323.0585	1343.0214	1364.4043	1388.7109	1413.3074	1425.9766	1458.2227	1485.7366	1496.1484	1498.2256	1522.8604	1787.0194	2928.5958	3012.9665	3027.4506	3033.002	3101.2125	3105.3241	3113.0102	3133.0558	3172.1722	3185.9039	3220.3404
CC1CN(C=O)C2CC12	C[C@H]1CN(C=O)[C@H]2C[C@@H]12	
InChI=1S/C7H11NO/c1-5-3-8(4-9)7-2-6(5)7/h4-7H,2-3H2,1H3	InChI=1S/C7H11NO/c1-5-3-8(4-9)7-2-6(5)7/h4-7H,2-3H2,1H3/t5-,6-,7-/m0/s1
