23
gdb 76192	2.18494	1.39584	1.16902	1.3257	86.38	-0.2377	0.069	0.3068	1229.4965	0.203721	-388.269362	-388.259175	-388.258231	-388.303952	38.433	
C	-0.1347605491	 1.5387378482	 0.0288254486	-0.44976
C	-0.0426999921	 0.0251145414	 0.0050495469	 0.214747
C	-1.2554732876	-0.6729970556	-0.5822093324	-0.454669
C	 1.3061061985	-0.6089654965	-0.2350714432	-0.013911
O	 2.3886238957	 0.244431843	-0.4777095454	-0.419436
C	 0.6861414986	-0.6643461521	 1.140828359	 0.295604
C	 1.3159725744	-0.0418035055	 2.3938966824	-0.294646
C	 1.2120237674	-1.4349560136	 3.0836410638	-0.208486
C	 0.3163094721	-1.9396032789	 1.9130913371	-0.301745
H	 0.7905841503	 1.9921475675	 0.3869484226	 0.131069
H	-0.3269441391	 1.9299703991	-0.9769307316	 0.113249
H	-0.9575003609	 1.8671507916	 0.6748484635	 0.10571
H	-1.4296468185	-0.3509879281	-1.6156004583	 0.115354
H	-1.1371001345	-1.7607402705	-0.5861014463	 0.113069
H	-2.1594681135	-0.4413744467	-0.0061964861	 0.112711
H	 1.322133598	-1.5356348918	-0.8137595054	 0.072951
H	 3.1681584117	-0.1356679734	-0.0587530487	 0.286327
H	 2.3198469425	 0.3773784104	 2.2765324834	 0.089423
H	 0.6857782251	 0.7196906618	 2.8641094264	 0.101918
H	 2.1732909392	-1.9530919723	 3.129264685	 0.098737
H	 0.7655507773	-1.452649253	 4.0801887258	 0.098442
H	-0.7444218167	-1.989033001	 2.1805028519	 0.099674
H	 0.5977466511	-2.8931672239	 1.455777911	 0.093667
73.4425	150.5666	163.1524	170.1951	190.3682	221.8078	252.3793	264.506	292.6272	341.5387	410.9762	512.6267	535.4016	572.9777	700.3275	722.2137	796.8818	849.4042	869.68	940.4885	943.5979	968.9754	982.3561	992.1006	1032.9959	1065.3437	1106.6906	1122.5039	1148.8119	1173.2729	1195.5649	1210.4684	1243.475	1249.746	1257.4941	1277.897	1280.6425	1307.6654	1353.5563	1403.7024	1418.4556	1460.9012	1479.0492	1481.5125	1482.8237	1488.9055	1499.5784	1507.7574	1515.8829	3020.1046	3027.4198	3038.0871	3044.0545	3063.2852	3065.6947	3078.3283	3080.153	3081.7092	3086.0745	3100.953	3117.812	3136.9433	3799.1566
CC1(C)C(O)C11CCC1	CC1(C)[C@@H](O)C21CCC2	
InChI=1S/C8H14O/c1-7(2)6(9)8(7)4-3-5-8/h6,9H,3-5H2,1-2H3	InChI=1S/C8H14O/c1-7(2)6(9)8(7)4-3-5-8/h6,9H,3-5H2,1-2H3/t6-/m1/s1
