16
gdb 115036	2.19262	1.57866	1.00142	0.359	70.26	-0.2573	0.0055	0.2628	1145.6304	0.123821	-437.851336	-437.842803	-437.841859	-437.885403	31.126	
O	-0.0300213057	 1.4675787887	-0.0881822018	-0.421617
C	 0.0387294475	 0.059010013	-0.1724319655	-0.077839
C	-1.3102523717	-0.57566943	 0.1367211522	 0.060363
O	-2.2667669191	-0.0795224696	-0.8468440062	-0.241739
C	-2.7682768036	-1.1735659699	-1.4640067871	 0.12303
N	-2.4045136586	-2.3335489527	-1.1120193795	-0.252913
C	-1.4259809912	-2.1338918843	-0.0105074898	-0.206804
C	-0.166514476	-2.8241784373	-0.2764067049	 0.365832
C	 0.8694956923	-3.3995636814	-0.4731588121	-0.463376
H	-0.7097270337	 1.7515774057	-0.7097447699	 0.291439
H	 0.3825348447	-0.2809310669	-1.1603339002	 0.106978
H	 0.7753959659	-0.2721285596	 0.5649077574	 0.126123
H	-1.6600856165	-0.2336082222	 1.1140490805	 0.109033
H	-3.4851099213	-0.9568804891	-2.2485030331	 0.149876
H	-1.8593810771	-2.5602916358	 0.901937675	 0.126565
H	 1.7824849042	-3.9111944486	-0.6548889753	 0.205048
36.174	121.7901	133.0886	197.6966	240.6144	355.0541	411.521	420.2436	480.6436	528.6703	587.6004	633.423	662.0859	792.0057	806.0555	863.3581	884.0173	964.3657	983.1292	1029.2344	1076.4694	1088.9789	1110.2039	1135.2738	1218.7967	1263.0943	1292.1737	1317.0443	1349.0021	1361.441	1398.5076	1430.0355	1491.4408	1707.7653	2240.0131	3004.7666	3030.1999	3081.1987	3100.765	3215.765	3501.9236	3805.5303
OCC1OC=NC1C#C	OC[C@H]1OC=N[C@H]1C#C	
InChI=1S/C6H7NO2/c1-2-5-6(3-8)9-4-7-5/h1,4-6,8H,3H2	InChI=1S/C6H7NO2/c1-2-5-6(3-8)9-4-7-5/h1,4-6,8H,3H2/t5-,6+/m0/s1
