18
gdb 18275	4.23439	1.51445	1.26105	0.9851	66.85	-0.2565	0.0777	0.3342	980.6982	0.154866	-384.930113	-384.922587	-384.921643	-384.962026	28.5	
O	-0.0592102221	 1.4053812653	-0.0426450102	-0.424032
C	 0.0071321654	-0.0127323261	 0.0217734731	-0.091992
C	-1.4177811118	-0.5484554788	 0.0075531517	 0.008576
C	-2.2069618805	-0.1962819345	-1.2814098787	-0.215613
C	-3.2265925027	-1.3435604494	-1.4809997241	-0.250035
C	-2.5661057852	-2.5353788517	-0.8171652279	 0.054148
O	-1.1861000105	-2.7065116853	-1.1763135926	-0.264704
C	-1.4985863238	-2.0640390404	 0.0714382769	 0.022446
H	 0.8377403934	 1.7460966266	-0.1040164775	 0.286893
H	 0.5551999415	-0.430581544	-0.8367015588	 0.100788
H	 0.5222358866	-0.3441571939	 0.9385037347	 0.080884
H	-1.9402217897	-0.1484475864	 0.8877829144	 0.080257
H	-2.6797873409	 0.7846433714	-1.2178069002	 0.109411
H	-1.5148598662	-0.168426464	-2.1267574851	 0.114369
H	-4.1728217674	-1.1364573358	-0.9653647323	 0.101858
H	-3.4617264985	-1.5199453168	-2.5352929139	 0.107758
H	-3.1144201881	-3.4572055764	-0.6380556558	 0.090517
H	-1.1876765594	-2.60520761	 0.9625491563	 0.088473
95.7285	135.123	195.2988	264.107	288.5809	380.2334	421.3728	495.2389	659.4692	679.6281	816.096	829.1793	848.103	877.0849	931.6297	963.5536	977.9468	1019.7604	1040.5575	1079.434	1082.1164	1099.4991	1137.8128	1189.2854	1218.5044	1246.5363	1255.4877	1265.3899	1308.0234	1325.0804	1327.5268	1337.7606	1376.3876	1437.7967	1460.5072	1480.6285	1493.5789	1524.6395	2962.9464	2998.4873	3021.7952	3033.6481	3072.1676	3085.2807	3126.6569	3132.7493	3147.7702	3832.0998
OCC1CCC2OC12	OC[C@H]1CC[C@H]2O[C@@H]12	
InChI=1S/C6H10O2/c7-3-4-1-2-5-6(4)8-5/h4-7H,1-3H2	InChI=1S/C6H10O2/c7-3-4-1-2-5-6(4)8-5/h4-7H,1-3H2/t4-,5-,6+/m1/s1
