20
gdb 12812	3.22179	2.01103	1.58	1.1871	74.19	-0.221	0.0826	0.3036	906.0467	0.178511	-349.002182	-348.994665	-348.993721	-349.033442	30.088	
C	-0.0123719194	 1.4956331628	-0.0463182251	-0.441636
C	-0.0099653806	-0.0091652533	 0.047952201	 0.440894
C	-0.8631470471	-0.6936917831	 1.0827555202	-0.352771
C	 0.6573670692	-0.7012649373	 1.2149001786	-0.085056
C	 1.431605981	-1.9974388711	 0.9782692836	-0.229734
C	 1.7085424731	-2.229025383	-0.5162717117	-0.200846
C	 0.4721751902	-1.9092255295	-1.3508567316	-0.077205
O	 0.1063695699	-0.5417582139	-1.2489907848	-0.296772
H	 0.9209812483	 1.8543276036	-0.4921429628	 0.119041
H	-0.8412034554	 1.8370589034	-0.6752385299	 0.123198
H	-0.1221841521	 1.9464363412	 0.943688829	 0.111148
H	-1.4454286898	-0.0780753148	 1.7603408796	 0.105643
H	-1.3371319362	-1.6350231648	 0.8230704871	 0.109268
H	 1.068135861	-0.0478660378	 1.9789011695	 0.082367
H	 2.3782659863	-1.9653760204	 1.5265376194	 0.100364
H	 0.87194706	-2.8488355718	 1.3851903832	 0.100207
H	 2.5239071097	-1.5778332573	-0.8528993721	 0.105074
H	 2.0200909453	-3.2637753508	-0.6959252533	 0.093733
H	 0.6577846708	-2.0774692985	-2.4156347866	 0.10619
H	-0.366808194	-2.5629605236	-1.0585615234	 0.086892
125.9445	196.5679	225.6699	308.9396	328.864	392.6905	417.5516	468.2461	504.8325	611.9762	706.0603	764.3929	834.8417	852.4442	885.2685	905.8492	922.4277	961.5258	985.3844	1031.7607	1040.8053	1096.023	1117.	1123.1435	1136.7778	1154.6626	1224.1568	1236.012	1276.489	1289.4206	1310.0487	1366.7579	1375.4802	1400.5004	1413.9124	1426.2694	1474.7769	1479.02	1483.2488	1492.875	1507.5808	1514.0552	2964.0609	3024.1586	3033.0874	3035.7397	3069.5837	3080.7225	3083.4991	3101.2812	3117.6143	3125.0096	3143.4869	3208.9928
CC12CC1CCCO2	C[C@]12C[C@H]1CCCO2	
InChI=1S/C7H12O/c1-7-5-6(7)3-2-4-8-7/h6H,2-5H2,1H3	InChI=1S/C7H12O/c1-7-5-6(7)3-2-4-8-7/h6H,2-5H2,1H3/t6-,7+/m1/s1
