17
gdb 67624	2.78111	1.75802	1.42033	2.3063	70.66	-0.22	0.0744	0.2944	946.2864	0.13605	-421.76753	-421.760344	-421.7594	-421.798508	30.005	
O	 0.2395286636	 1.3626203999	-0.3031363535	-0.465989
C	 0.1224671653	 0.0047361919	-0.1044677845	 0.408904
C	 1.1234294333	-0.8788158705	 0.6195702471	-0.15188
C	 0.4190548717	-1.9147707454	 1.4783740642	-0.236411
C	-0.8240613144	-2.1094030999	 0.627642009	-0.151896
C	-1.2056340601	-0.8107027248	-0.0896290008	-0.236604
C	-0.5156478346	-1.9114088742	-0.8463451562	 0.408915
O	-1.0226257121	-2.6604764536	-1.8850607598	-0.466006
C	 0.8112154356	-1.0942579356	-0.8647367544	-0.236598
H	 0.105898251	 1.8051821214	 0.5431732435	 0.284072
H	 2.0858982487	-0.4557770873	 0.8844833933	 0.087549
H	 0.99701994	-2.8405701303	 1.5854534278	 0.095147
H	 0.1909285249	-1.5355178747	 2.4817368647	 0.095146
H	-1.6171666716	-2.7967937734	 0.899634396	 0.087544
H	-2.2113446071	-0.4249932111	-0.1809424496	 0.097014
H	-0.6137578887	-3.5334024533	-1.8567965937	 0.284077
H	 1.5362099443	-1.0409715191	-1.6648030032	 0.097017
201.1485	264.1302	288.2183	312.3823	358.9337	362.2112	430.218	545.2508	566.3354	615.2063	713.0529	733.1225	803.3076	808.9916	853.1468	862.5737	911.8566	915.2423	953.4342	973.9653	979.1613	1016.1803	1056.2126	1060.8991	1096.5105	1108.6747	1176.495	1190.9811	1232.8058	1244.4926	1272.8003	1300.4698	1306.7332	1324.0481	1464.3278	1467.5082	1495.8523	3026.4905	3064.2657	3182.934	3185.6017	3217.815	3218.391	3778.0722	3778.3835
OC12C3CC4C1C4(O)C23	O[C@@]12[C@H]3C[C@H]4[C@@H]1[C@@]4(O)[C@@H]23	
InChI=1S/C7H8O2/c8-6-2-1-3-5(6)7(3,9)4(2)6/h2-5,8-9H,1H2	InChI=1S/C7H8O2/c8-6-2-1-3-5(6)7(3,9)4(2)6/h2-5,8-9H,1H2/t2-,3-,4+,5-,6+,7-/m0/s1
