21
gdb 39851	2.98308	1.82819	1.49135	0.1773	85.81	-0.2593	0.0985	0.3578	971.4394	0.185833	-349.907159	-349.900473	-349.899528	-349.937723	29.321	
C	-0.0414675382	 1.4494892537	-0.0187091672	-0.36314
C	 1.2738226598	 0.6913466299	-0.0003687662	-0.36315
C	-0.0285348086	-0.0480953811	-0.0096410258	 0.491495
C	-0.5176314131	-0.941946555	 1.1282562431	-0.135164
C	 0.3182815135	-2.2265911339	 0.8695781326	-0.23685
C	-0.5536632255	-2.3248631369	-0.3914218656	-0.02681
C	-1.7355447277	-1.6435812559	 0.3718087626	-0.026812
C	-2.0873546365	-0.8396519886	-0.8891497396	-0.236843
C	-0.556741521	-0.9192025752	-1.1476868238	-0.135165
H	-0.3380503281	 1.9718833597	 0.885503616	 0.108101
H	-0.323402257	 1.9583267757	-0.9357709069	 0.107652
H	 1.8745859738	 0.6966683756	-0.9045326926	 0.108099
H	 1.8553649242	 0.702289914	 0.9167425723	 0.107649
H	-0.6189222939	-0.504201697	 2.1216872745	 0.056803
H	 1.4035759977	-2.1191376583	 0.7814332534	 0.090748
H	 0.0775543813	-3.0332399831	 1.5690464056	 0.090121
H	-0.6678803079	-3.2250882517	-0.9946798092	 0.062799
H	-2.457385868	-2.1936135172	 0.9749505325	 0.062797
H	-2.6646793367	-1.4521292205	-1.5887603915	 0.090118
H	-2.5382593181	 0.1533658833	-0.800940298	 0.090747
H	-0.1270719799	-0.7873592474	-2.1410584659	 0.056804
176.1836	251.7624	279.7034	410.3511	413.8469	495.8142	569.9215	706.7884	742.7901	773.7514	782.326	820.6404	832.2071	849.6554	910.788	924.7535	929.7465	948.0854	968.3849	973.4409	997.7469	1005.8482	1032.1041	1039.4911	1054.8099	1070.2683	1078.2781	1078.9754	1126.5369	1150.4759	1185.6471	1192.0798	1205.1085	1222.6532	1232.4575	1237.4029	1264.6864	1268.7656	1289.856	1315.5127	1407.2	1469.0326	1494.1655	1495.8414	1513.2897	3043.7237	3044.6533	3098.9453	3098.9535	3107.0029	3108.5393	3115.148	3117.3363	3121.3033	3124.8502	3193.5727	3208.2668
C1CC11C2CC3C2CC13	C1CC21[C@@H]1C[C@H]3[C@@H]1C[C@@H]23	
InChI=1S/C9H12/c1-2-9(1)7-3-5-6(7)4-8(5)9/h5-8H,1-4H2	InChI=1S/C9H12/c1-2-9(1)7-3-5-6(7)4-8(5)9/h5-8H,1-4H2/t5-,6-,7+,8+/m0/s1
