17
gdb 97214	2.36928	1.40849	1.02998	4.4015	75.73	-0.2623	0.0002	0.2625	1191.4022	0.136622	-418.036944	-418.028135	-418.027191	-418.071436	30.863	
C	-0.1908354686	 1.4454022413	-0.1262343031	-0.339004
N	-0.2069115749	-0.0072359039	-0.1964824366	-0.311306
C	 0.606381711	-0.6090002075	-0.9372593447	 0.441126
O	 1.5430267761	-0.0385636302	-1.7545582684	-0.245044
C	 2.2868477493	-1.0446852335	-2.4597111979	-0.086033
C	 1.4010834639	-2.295681446	-2.4352486269	-0.246197
C	 0.6745847416	-2.1345391601	-1.0812755502	-0.25676
C	 1.4314461319	-2.7306140578	 0.0215769634	 0.284727
N	 2.0494701804	-3.2105938277	 0.8720044859	-0.321801
H	 0.484930992	 1.9249430168	-0.8424634856	 0.126374
H	-1.2078763937	 1.8171447802	-0.2886744667	 0.12948
H	 0.0993397565	 1.7465619141	 0.8866631908	 0.13695
H	 2.488531203	-0.6703965694	-3.465229469	 0.130268
H	 3.2395846871	-1.2113883409	-1.9434643722	 0.135081
H	 0.6641573075	-2.2585692011	-3.2418605409	 0.129825
H	 1.9683218442	-3.2229425677	-2.5184059727	 0.13874
H	-0.3347558771	-2.5490832967	-1.0760555251	 0.153573
59.7098	75.4888	116.4749	158.5082	222.5192	240.2796	287.2741	439.0283	453.9129	553.5208	663.9208	678.3871	711.3698	831.4908	861.3892	915.1994	964.6767	1016.8966	1026.5537	1067.7225	1105.7338	1133.1678	1152.5115	1190.9796	1196.0215	1231.4986	1262.7343	1317.1929	1341.8432	1398.0501	1437.904	1487.1602	1493.7363	1496.7862	1522.0618	1809.9808	2358.8228	3023.2288	3041.7758	3074.3221	3086.6351	3097.3049	3109.1192	3115.1344	3142.1558
CN=C1OCCC1C#N	CN=C1OCC[C@H]1C#N	
InChI=1S/C6H8N2O/c1-8-6-5(4-7)2-3-9-6/h5H,2-3H2,1H3	InChI=1S/C6H8N2O/c1-8-6-5(4-7)2-3-9-6/h5H,2-3H2,1H3/t5-/m0/s1
