18
gdb 16373	2.34562	2.29608	1.46657	1.6379	67.78	-0.2503	0.0792	0.3295	930.6637	0.151821	-384.907993	-384.89975	-384.898805	-384.940545	30.524	
C	-0.3632057903	 1.273927664	-1.2907276878	-0.408846
C	 0.2359264175	-0.0388620721	-0.8304844883	 0.085226
O	 1.6252602806	-0.1956209344	-1.2239001264	-0.323143
C	 2.0453958228	-0.5623730272	 0.1172101538	 0.085226
C	 3.2430010484	 0.2305893786	 0.597993359	-0.408846
C	 0.647387334	-0.2189225759	 0.6303179102	 0.334946
C	 0.2036752797	 0.4537254453	 1.8490880354	-0.258205
O	-0.071018059	-0.9378372008	 1.6048649071	-0.264796
H	 0.2107815894	 2.1217675829	-0.9059411469	 0.119168
H	-0.3642538939	 1.3259763868	-2.3838465944	 0.132028
H	-1.3995242882	 1.3619053335	-0.9470115007	 0.121164
H	-0.3667154146	-0.88750957	-1.1858235749	 0.086661
H	 2.2427764576	-1.6424809515	 0.1808762697	 0.086661
H	 3.0361085935	 1.3043514035	 0.5738	 0.119168
H	 3.5052786034	-0.0571390211	 1.6218389436	 0.121164
H	 4.1088373643	 0.031832955	-0.0411016647	 0.132028
H	 0.9141173153	 0.6539766469	 2.6497365321	 0.120197
H	-0.6644262906	 1.1106766365	 1.822987283	 0.120197
71.4145	191.8064	205.1422	217.1773	218.4882	257.3499	352.5551	431.0659	465.7598	526.5901	565.0945	747.2963	846.3637	857.8395	898.455	912.6613	938.5694	1019.8904	1066.018	1093.1877	1109.2023	1126.1643	1127.8154	1155.1483	1166.9384	1187.006	1272.5466	1309.3766	1362.3367	1393.3135	1399.6218	1414.9785	1449.5591	1481.4107	1490.4612	1491.8462	1495.8054	1543.9573	2996.8772	3003.2143	3035.9367	3036.6249	3085.1992	3107.8885	3108.3039	3116.8787	3118.613	3171.8687
CC1OC(C)C11CO1	C[C@H]1O[C@@H](C)[C@]21CO2	
InChI=1S/C6H10O2/c1-4-6(3-7-6)5(2)8-4/h4-5H,3H2,1-2H3	InChI=1S/C6H10O2/c1-4-6(3-7-6)5(2)8-4/h4-5H,3H2,1-2H3/t4-,5+,6-
