20
gdb 17976	2.51273	2.29984	1.40916	1.116	70.89	-0.2389	0.0765	0.3155	938.294	0.1794	-386.127688	-386.120043	-386.119099	-386.159556	29.448	
C	 0.0039018739	 1.5007682671	 0.1965162591	-0.232093
C	 1.4018139402	 2.1145040752	 0.0019736679	-0.072145
O	 2.2025524308	 1.4804121882	-0.9759253419	-0.232263
C	 1.9071197302	 1.763111088	-2.3295697827	-0.072145
C	 0.6735515404	 1.0349077645	-2.8923977623	-0.232098
C	 0.4603405196	-0.3850071194	-2.3280153243	-0.057382
O	-0.4729834267	-0.4515817307	-1.2646011208	-0.247478
C	-0.0487592082	-0.0309342252	 0.0197074827	-0.057385
H	-0.3270300423	 1.7604827665	 1.2095974444	 0.096818
H	-0.7315155583	 1.9393755894	-0.4850622254	 0.111105
H	 1.3215967499	 3.1934239811	-0.2085672539	 0.087136
H	 1.9712456874	 2.0059284945	 0.9317809848	 0.106872
H	 1.8142099868	 2.8506191069	-2.4829269597	 0.08714
H	 2.7968159346	 1.4322183352	-2.8768627768	 0.106874
H	-0.2467994202	 1.6019584978	-2.7216083959	 0.111106
H	 0.7983408116	 0.9776091205	-3.9807182256	 0.096817
H	 0.0293274246	-1.0215959717	-3.106970831	 0.101433
H	 1.4221062392	-0.826562272	-2.0281756907	 0.098132
H	 0.9229594594	-0.4795526404	 0.2734432413	 0.098123
H	-0.7966671429	-0.4470733256	 0.7018008809	 0.101435
88.4782	178.267	212.676	243.8497	338.3132	370.8967	379.4309	494.2019	510.124	580.7766	734.6091	803.3645	853.3952	875.5465	890.4138	968.4683	976.4606	1008.1226	1050.5765	1072.3409	1102.0387	1115.7864	1151.5851	1172.305	1249.1497	1259.0692	1277.1654	1311.2554	1317.4534	1355.7603	1365.1378	1377.1836	1397.7913	1415.7094	1417.4119	1434.2786	1473.5908	1483.8595	1490.0196	1490.1044	1495.8738	1504.9167	2972.0038	2975.2974	2999.4444	3002.165	3033.9564	3035.2263	3054.3228	3057.8691	3074.5054	3077.3042	3084.1916	3093.2421
C1COCCCOC1	C1COCCCOC1	
InChI=1S/C6H12O2/c1-3-7-5-2-6-8-4-1/h1-6H2	InChI=1S/C6H12O2/c1-3-7-5-2-6-8-4-1/h1-6H2
