18
gdb 87663	3.37654	1.20265	1.02309	4.6864	81.79	-0.2296	-0.0263	0.2033	1200.3874	0.14792	-401.987439	-401.979053	-401.978109	-402.02043	32.021	
C	-0.096927724	 1.5266124614	-0.0359406052	-0.404215
C	 0.0143319203	 0.0195113559	-0.0075680235	-0.049695
C	 1.3374429015	-0.6695265286	-0.2194263845	-0.348707
C	 0.694523645	-0.6908155368	 1.1568366407	 0.350697
N	 1.2473425826	 0.0075898748	 2.2743584245	-0.406665
C	 1.1256967045	-0.7100237623	 3.455690905	 0.38372
O	 1.5692655321	-0.3837055111	 4.5369274768	-0.3882
C	 0.3541148602	-1.9285646238	 3.0780380137	-0.223865
C	 0.1273712258	-1.916761156	 1.7593123249	-0.117751
H	 0.8046268087	 2.0080408502	 0.3550442314	 0.111795
H	-0.2407405719	 1.8832684485	-1.0612817123	 0.126428
H	-0.9434912218	 1.8729476435	 0.5652197615	 0.13337
H	-0.8546140214	-0.5015738549	-0.4014703128	 0.096711
H	 1.3773291323	-1.5961161444	-0.7816581637	 0.124704
H	 2.217181226	-0.0423892827	-0.328504758	 0.121065
H	 1.8762771454	 0.7891428238	 2.2071497224	 0.251361
H	 0.0642583421	-2.6754432681	 3.802389447	 0.121211
H	-0.4033422173	-2.6542901894	 1.1707548022	 0.118036
83.0971	135.1308	181.3139	186.0042	283.8007	356.3498	377.3138	434.9431	482.7513	523.0128	571.1993	699.2015	710.3906	799.1002	831.1159	874.6474	881.9014	917.7733	924.2455	953.5594	960.8935	1026.1099	1056.6601	1077.7033	1106.4245	1131.7428	1189.1327	1214.207	1250.0876	1326.2141	1349.5234	1382.9286	1418.0788	1445.299	1482.5962	1487.0559	1504.462	1632.544	1817.1765	3035.9837	3100.022	3105.3864	3126.1434	3140.7332	3213.3145	3215.1673	3253.4952	3673.3367
CC1CC11NC(=O)C=C1	C[C@H]1C[C@]21NC(=O)C=C2	
InChI=1S/C7H9NO/c1-5-4-7(5)3-2-6(9)8-7/h2-3,5H,4H2,1H3,(H,8,9)	InChI=1S/C7H9NO/c1-5-4-7(5)3-2-6(9)8-7/h2-3,5H,4H2,1H3,(H,8,9)/t5-,7+/m0/s1
