20
gdb 53144	2.77128	1.11751	0.95691	1.9341	88.53	-0.218	0.0388	0.2568	1341.4829	0.16978	-365.94391	-365.934372	-365.933428	-365.979237	34.645	
C	 0.5184534379	 1.4695257553	-0.3059670735	-0.503459
C	 0.2680857993	 0.0358020968	-0.2803348391	 0.084611
C	 0.041143503	-1.1484542128	-0.2613738486	 0.098488
C	-0.1175173462	-2.5770022427	-0.2777426344	-0.206259
C	-0.4039620089	-3.395550298	 0.9256136611	-0.023727
C	-1.3307527255	-2.660607758	 1.8911007679	-0.295865
C	-2.374983258	-2.6858257298	 0.7379381698	 0.098307
C	-3.1096645411	-1.443301802	 0.2692784836	-0.413677
N	-1.398426284	-3.3488194095	-0.21585618	-0.178046
H	 1.2780034678	 1.7569133542	 0.4296427307	 0.149539
H	 0.8713129592	 1.7928984757	-1.2914903699	 0.151416
H	-0.3924346052	 2.0349413806	-0.079215549	 0.150381
H	 0.5304870959	-3.066934631	-1.0022379372	 0.114328
H	 0.166681741	-4.291451528	 1.1513752772	 0.095262
H	-1.6278767657	-3.2408911497	 2.7659539854	 0.105577
H	-0.9714916659	-1.6796105004	 2.2146764193	 0.112516
H	-3.1120655343	-3.4672312001	 0.9490830739	 0.088537
H	-2.4356576161	-0.6064814458	 0.0852392665	 0.137396
H	-3.6532018479	-1.6589130188	-0.6568261297	 0.123827
H	-3.8423674652	-1.1389293559	 1.0253325962	 0.110848
32.591	87.5847	93.8486	187.483	216.0719	238.0511	289.9956	328.7678	401.7982	432.491	533.2177	554.0486	692.3557	751.9591	756.6405	816.5369	852.7077	870.0589	950.2367	984.1483	1019.7819	1052.5807	1052.8474	1068.6871	1095.4802	1107.403	1137.0185	1160.978	1201.5603	1250.8456	1268.0377	1297.4591	1341.0856	1386.9007	1406.6143	1408.7808	1416.7281	1476.0714	1478.6967	1486.6418	1488.0484	1501.9525	2358.4089	3025.702	3035.6411	3047.4195	3061.9743	3085.6972	3087.9404	3096.3289	3121.9473	3123.2427	3150.6507	3155.2663
CC#CC1C2CC(C)N12	CC#C[C@H]1[C@H]2C[C@@H](C)N12	
InChI=1S/C8H11N/c1-3-4-7-8-5-6(2)9(7)8/h6-8H,5H2,1-2H3	InChI=1S/C8H11N/c1-3-4-7-8-5-6(2)9(7)8/h6-8H,5H2,1-2H3/t6-,7+,8-,9?/m1/s1
