16
gdb 127557	4.29348	1.07026	0.91326	1.8739	72.84	-0.2514	-0.0112	0.2403	1259.936	0.125449	-434.046196	-434.038055	-434.03711	-434.080703	28.288	
C	 0.0814569054	 1.4327279943	 0.0039072342	-0.311532
N	 0.0482159894	-0.0161839287	 0.0004331424	 0.164385
N	-0.3220280786	-0.7097505738	-1.0700017031	-0.227685
C	-0.280484592	-1.974825677	-0.647570513	-0.146953
C	 0.1222405907	-1.9929831495	 0.6969275031	 0.336409
N	 0.325382134	-0.7269094771	 1.0831566101	-0.314043
C	 0.3143073228	-3.1486639891	 1.5941133541	-0.040395
C	 1.0587549337	-3.051381478	 2.8584334375	-0.176673
O	-0.3638513331	-3.1252667443	 2.8604338951	-0.228396
H	 0.960178734	 1.7663260654	 0.5570142858	 0.158424
H	 0.1317426264	 1.7672309112	-1.0312595554	 0.163851
H	-0.8182049482	 1.8353798427	 0.478378709	 0.154829
H	-0.5274731867	-2.7907678713	-1.3081252847	 0.127036
H	 0.2744941077	-4.114565292	 1.0916831966	 0.094613
H	 1.5783362684	-3.9289770191	 3.2418553406	 0.113843
H	 1.4753270362	-2.0875645337	 3.1430780278	 0.132286
37.3894	49.7716	136.3781	158.8713	234.8475	359.3625	435.2838	459.7824	645.387	680.1748	740.2524	766.2985	841.009	875.7048	910.0353	997.1331	1019.3096	1050.2958	1091.7261	1112.0551	1146.7948	1158.6362	1170.4165	1190.0059	1284.7779	1344.8098	1347.6328	1370.0841	1427.5591	1448.1824	1477.7177	1482.3921	1505.3465	1522.3751	1565.5606	3058.3022	3084.5804	3117.8674	3135.3945	3178.2298	3181.2439	3266.9857
CN1N=CC(=N1)C1CO1	Cn1ncc(n1)[C@H]1CO1	
InChI=1S/C5H7N3O/c1-8-6-2-4(7-8)5-3-9-5/h2,5H,3H2,1H3	InChI=1S/C5H7N3O/c1-8-6-2-4(7-8)5-3-9-5/h2,5H,3H2,1H3/t5-/m1/s1
