12
gdb 16268	3.51835	1.98972	1.43995	3.9786	61.8	-0.2625	-0.0109	0.2516	824.3648	0.082467	-381.29796	-381.291255	-381.29031	-381.328832	25.203	
O	-0.1185514671	 0.0672557339	 0.021371202	-0.30837
C	-0.0094304812	 1.2445143163	 0.0663374922	 0.429971
O	-1.0149189277	 2.1874492083	 0.2585772705	-0.257371
C	-0.0805706741	 3.2673428455	 0.0189747427	 0.056542
C	 0.9358087672	 3.2774588464	 1.0882718628	-0.318728
C	 1.0830172173	 2.2890040202	-0.1014437432	-0.035257
C	 2.2184318051	 2.2285323801	-0.9468472842	 0.18314
C	 3.1823178525	 2.1624690338	-1.6626149464	-0.396439
H	-0.3928657121	 4.0651326211	-0.6387955055	 0.148555
H	 1.6697888651	 4.0762215627	 1.0616119872	 0.150681
H	 0.681215828	 2.8967573242	 2.0718146942	 0.147744
H	 4.0297308072	 2.0979192174	-2.2995742422	 0.199533
131.1518	160.2494	214.1193	386.1275	447.6389	495.2141	527.3331	595.3756	644.8547	671.2438	694.2858	767.7115	838.5338	884.4394	921.0715	936.0003	1021.5077	1044.0065	1069.0355	1088.7099	1223.6822	1277.8853	1378.7405	1477.1759	1955.3763	2244.0513	3132.6758	3229.8394	3239.8262	3500.9373
O=C1OC2CC12C#C	O=C1O[C@H]2C[C@@]12C#C	
InChI=1S/C6H4O2/c1-2-6-3-4(6)8-5(6)7/h1,4H,3H2	InChI=1S/C6H4O2/c1-2-6-3-4(6)8-5(6)7/h1,4H,3H2/t4-,6+/m0/s1
