16
gdb 45351	2.42625	1.80196	1.17909	3.9736	69.72	-0.2363	-0.0537	0.1826	1019.7717	0.124415	-437.898733	-437.891339	-437.890395	-437.931017	28.157	
O	 0.1264579324	 0.066994197	-0.7726757675	-0.266211
C	 0.0474174121	 1.1175309591	-0.2187856012	 0.395397
C	-1.041045744	 1.8831389003	 0.5457026508	-0.297663
N	-0.1550192201	 3.0823694905	 0.5472878407	-0.099317
C	 0.239597666	 3.6119163503	 1.8702742096	-0.185902
C	 1.3909888528	 2.7314434022	 2.3884309684	-0.338368
C	 2.0243571635	 2.1488694774	 1.1197536627	 0.390115
O	 3.1095518019	 1.6503232478	 1.0078796384	-0.289906
C	 0.9938855729	 2.3238152771	-0.0124423163	-0.233148
H	-1.9886233642	 2.0227690147	 0.0156396002	 0.143436
H	-1.252894807	 1.4512294731	 1.5351400022	 0.125808
H	 0.5776634947	 4.6464147611	 1.7459895802	 0.121363
H	-0.6277868799	 3.6310946918	 2.5345011036	 0.119274
H	 2.1382331875	 3.2560826663	 2.9864833457	 0.141206
H	 1.0278722289	 1.8879525939	 2.9895649335	 0.141028
H	 1.4700013224	 2.7215278674	-0.9135795609	 0.132887
80.1298	123.5215	166.1173	329.5795	415.8722	452.4427	461.8715	544.8791	572.6632	650.5116	687.6843	718.4505	810.5427	817.0135	933.0117	954.1093	971.3903	1004.4722	1041.6172	1053.0412	1099.9286	1124.2848	1164.1642	1171.0132	1205.5005	1221.3817	1248.9037	1271.3598	1297.7391	1357.5309	1450.7219	1471.3741	1505.2024	1844.8885	1921.1778	3003.8032	3039.9466	3046.6196	3074.7737	3077.8539	3102.3931	3122.395
O=C1CN2CCC(=O)C12	O=C1CN2CCC(=O)[C@@H]12	
InChI=1S/C6H7NO2/c8-4-1-2-7-3-5(9)6(4)7/h6H,1-3H2	InChI=1S/C6H7NO2/c8-4-1-2-7-3-5(9)6(4)7/h6H,1-3H2/t6-/m0/s1
