16
gdb 102450	2.49161	1.09506	0.82762	4.6085	67.26	-0.2754	-0.0934	0.182	1331.9357	0.122135	-475.025806	-475.016028	-475.015084	-475.061431	33.726	
O	 0.0060247072	 1.3604276181	 0.4239025576	-0.413902
C	-0.0249398943	-0.0120038185	 0.1380801719	-0.069814
C	-1.4781347955	-0.5367610605	-0.072814109	-0.138633
C	-2.066854467	-0.0941860691	-1.4134150946	-0.101388
O	-2.0286830836	 1.3311891909	-1.4516960795	-0.42814
C	-1.520845153	-2.0415750208	 0.0367718115	 0.278975
O	-1.7533833272	-2.7991454456	-0.8733616792	-0.274114
C	-1.2330835458	-2.5814759781	 1.3856416122	 0.247673
N	-1.0180783495	-3.0043417575	 2.4401882106	-0.300448
H	-0.5086736917	 1.796216874	-0.2693292236	 0.296027
H	 0.5655895957	-0.2692642176	-0.7575191559	 0.099839
H	 0.433976535	-0.5223076106	 0.991412749	 0.132765
H	-2.0693534077	-0.1213449966	 0.7542873876	 0.133252
H	-1.476865225	-0.5307035364	-2.2298763047	 0.119467
H	-3.0961627587	-0.4628551204	-1.5152258495	 0.116545
H	-2.2769663789	 1.6227867187	-2.3336585945	 0.301896
39.5189	94.8914	107.0039	153.1906	209.3016	233.9808	272.8153	294.8104	351.0932	382.884	415.6736	482.8954	568.1828	628.7807	705.566	847.6923	887.0575	926.451	1041.	1065.4979	1096.9855	1106.2603	1141.1691	1215.7884	1241.3813	1277.3971	1290.7737	1358.2315	1382.9002	1462.4387	1470.0471	1504.5363	1518.7933	1783.2452	2337.5382	2962.6056	3009.8404	3032.533	3052.6652	3073.7761	3745.5221	3838.4405
OCC(CO)C(=O)C#N	OCC(CO)C(=O)C#N	
InChI=1S/C5H7NO3/c6-1-5(9)4(2-7)3-8/h4,7-8H,2-3H2	InChI=1S/C5H7NO3/c6-1-5(9)4(2-7)3-8/h4,7-8H,2-3H2
