20
gdb 12010	3.10622	1.98104	1.7132	1.2074	73.61	-0.2583	0.0729	0.3312	881.9664	0.17789	-349.011971	-349.004251	-349.003307	-349.043189	31.339	
C	-0.0554191161	 1.543836646	-0.0129702036	-0.442048
C	 0.0403875516	 0.0182077781	-0.0076942191	 0.390073
O	-1.2741958891	-0.557525657	 0.0432425508	-0.47951
C	 0.8277611345	-0.5607164575	-1.2125266735	-0.26661
C	 1.3356412125	-1.9407164281	-0.7401720132	-0.215327
C	 1.5367884923	-1.7778480894	 0.7604924022	-0.025958
C	 2.2588782222	-0.5403923268	 1.2331482204	-0.309983
C	 0.7506506325	-0.5661986471	 1.2056002154	-0.018052
H	 0.9357205577	 2.0039120446	 0.0418856168	 0.116403
H	-0.5398782735	 1.9037441595	-0.9294532357	 0.100191
H	-0.6462312059	 1.8889121718	 0.8406980037	 0.120708
H	-1.7801917629	-0.1899877233	-0.6894012886	 0.271519
H	 0.191034881	-0.6237788422	-2.1001974111	 0.085199
H	 1.6639641126	 0.0978419744	-1.4695148714	 0.097423
H	 0.5694047799	-2.7027376704	-0.9172607969	 0.108005
H	 2.2418211241	-2.2541468608	-1.2697940676	 0.090885
H	 1.5861072846	-2.6682015923	 1.377217799	 0.078978
H	 2.7261432755	-0.5825955225	 2.2109573135	 0.108384
H	 2.8022449362	 0.0699291535	 0.5184991034	 0.105009
H	 0.2031413001	-0.5480816107	 2.1409191854	 0.084711
147.6246	223.5639	248.141	282.8853	311.587	354.4357	386.112	427.9779	479.1221	594.3112	641.5393	732.8573	813.4601	819.8653	842.756	893.6455	926.8571	954.5918	957.7227	998.4311	1020.1299	1035.9999	1069.9339	1083.9054	1105.1277	1111.6436	1154.7389	1194.2123	1203.7969	1222.8223	1231.4026	1308.4479	1327.9104	1341.0763	1386.2426	1404.2295	1404.7055	1480.1408	1487.981	1492.2332	1496.564	1508.7735	3023.2537	3039.667	3049.8296	3074.9425	3089.5833	3093.8834	3115.5615	3128.3999	3168.4671	3178.6902	3209.9058	3802.8778
CC1(O)CCC2CC12	C[C@@]1(O)CC[C@H]2C[C@@H]12	
InChI=1S/C7H12O/c1-7(8)3-2-5-4-6(5)7/h5-6,8H,2-4H2,1H3	InChI=1S/C7H12O/c1-7(8)3-2-5-4-6(5)7/h5-6,8H,2-4H2,1H3/t5-,6+,7+/m0/s1
