18
gdb 126532	4.81271	0.87747	0.79128	3.4258	80.62	-0.2349	-0.0687	0.1662	1465.676	0.148775	-398.14972	-398.14127	-398.140325	-398.184085	30.268	
C	 0.0463868462	 1.5668280449	-0.0501420271	-0.382654
C	 0.1947240824	 0.0443754486	-0.064457028	-0.162354
C	 0.5857532035	-0.5231982011	 1.3155028326	-0.286988
C	 0.6859081825	-2.021966382	 1.2985888172	 0.319986
C	 1.9124837619	-2.7024361752	 1.2943585266	-0.026204
N	 1.9967187061	-4.0267130581	 1.2527411071	-0.16827
N	 0.867286466	-4.7324552564	 1.2123216382	-0.186602
C	-0.2806164912	-4.0567499866	 1.2183917234	 0.097496
N	-0.4407517069	-2.7313788818	 1.2601262473	-0.28346
H	 0.981891865	 2.0557560036	 0.2432767925	 0.117246
H	-0.2302177975	 1.9435057355	-1.039360979	 0.119938
H	-0.7287833804	 1.8822975496	 0.6565341755	 0.120959
H	-0.7443418502	-0.4253692495	-0.3769303353	 0.123679
H	 0.9512273989	-0.2502645578	-0.8023596905	 0.103552
H	 1.539147927	-0.0911311297	 1.639569165	 0.108239
H	-0.1761541107	-0.236629786	 2.0489360957	 0.12716
H	 2.8574686283	-2.1674887399	 1.3294532014	 0.123109
H	-1.181133021	-4.664292768	 1.1880888875	 0.135168
38.6031	85.0126	100.0167	242.5804	243.4002	308.6453	350.3875	370.8177	529.3897	630.5331	697.8308	748.4163	822.1984	868.978	879.1842	904.7896	944.6599	1001.7978	1031.1335	1044.6827	1060.6879	1099.5289	1106.7355	1170.8011	1248.0396	1257.1842	1295.5379	1317.4016	1335.3786	1349.1458	1377.5422	1413.4742	1478.4009	1482.2306	1492.8267	1498.56	1508.3857	1558.9129	1592.8976	3028.7652	3032.0245	3040.7312	3066.6169	3087.9417	3104.26	3107.8732	3171.8779	3177.7767
CCCC1=CN=NC=N1	CCCc1cnncn1	
InChI=1S/C6H9N3/c1-2-3-6-4-8-9-5-7-6/h4-5H,2-3H2,1H3	InChI=1S/C6H9N3/c1-2-3-6-4-8-9-5-7-6/h4-5H,2-3H2,1H3
