16
gdb 34439	3.0435	1.74615	1.28097	5.2261	73.04	-0.2385	0.0213	0.2598	956.9301	0.127811	-396.866666	-396.859986	-396.859042	-396.897659	26.774	
N	-0.0003671792	-1.127574934	 0.0585191076	-0.336826
C	 0.0125964354	 0.0279137403	 0.0287518155	 0.203131
C	-0.0175638872	 1.4712438975	 0.0379777922	 0.220102
C	-0.9192906336	 2.1757427387	 1.0589208018	-0.244388
N	-0.5802345002	 3.5964139805	 0.7836910816	-0.323018
C	 0.317045338	 3.4710758078	-0.3462604577	-0.016512
C	 1.3100181504	 2.3057169567	-0.0789103558	-0.068675
N	 1.3917679058	 1.9371782825	-1.5349453244	-0.320051
C	-0.055487828	 2.2793627751	-1.3058700361	-0.096722
H	-1.9775947849	 1.9476981056	 0.8927504173	 0.120628
H	-0.6674719961	 1.8936758888	 2.0863442987	 0.13022
H	-1.4067862769	 4.1343452941	 0.547395597	 0.228021
H	 0.6876563551	 4.405772168	-0.7681830263	 0.08983
H	 2.1640650194	 2.26729434	 0.5969666625	 0.102556
H	 1.8440699128	 2.6970049442	-2.0521675727	 0.216291
H	-0.8120634006	 2.2077836742	-2.0883379013	 0.095414
152.1384	161.016	278.0992	395.364	414.2333	514.9806	541.2865	594.0249	685.7253	705.8376	750.7016	816.0437	832.7245	890.7166	909.565	951.5028	975.3205	1048.0426	1053.3582	1068.2488	1099.1442	1130.7365	1142.8597	1148.7727	1186.8085	1205.7657	1222.1413	1241.9337	1292.3346	1294.8278	1306.1283	1390.6578	1413.8006	1516.9925	2358.9527	3041.5563	3081.1763	3110.3625	3120.8386	3130.5576	3394.7371	3532.3474
N#CC12CNC3C1NC23	N#C[C@@]12CN[C@H]3[C@@H]1N[C@@H]23	
InChI=1S/C6H7N3/c7-1-6-2-8-3-4(6)9-5(3)6/h3-5,8-9H,2H2	InChI=1S/C6H7N3/c7-1-6-2-8-3-4(6)9-5(3)6/h3-5,8-9H,2H2/t3-,4-,5+,6+
