21
gdb 59892	3.06275	0.91538	0.87355	2.712	81.48	-0.2259	-0.0279	0.198	1468.8061	0.181472	-420.379919	-420.369914	-420.36897	-420.415694	35.805	
C	 0.5308923725	 0.6217468128	-0.720706884	-0.325538
N	-0.3251438642	-0.2958017987	 0.0207374139	-0.057376
C	 0.3937151071	-0.9382321775	 1.1110450701	-0.314558
C	-1.546961278	 0.3514747228	 0.471310634	-0.239513
C	-2.5117569327	 0.6827874911	-0.6671803498	 0.349544
O	-3.136587873	 1.7242134477	-0.6817516106	-0.336576
C	-2.6995853963	-0.3455714613	-1.7364914267	-0.087841
C	-4.1231941558	-0.6830209624	-2.07318541	-0.22201
N	-3.3194209325	 0.1048803296	-2.9948766621	-0.306645
H	 1.4012980574	 0.0825079668	-1.1057036598	 0.123841
H	-0.0119126261	 1.03852752	-1.5747537977	 0.132964
H	 0.8922007321	 1.465147362	-0.1030011402	 0.101105
H	 0.7513098791	-0.2258840479	 1.8780472901	 0.097581
H	-0.2532258171	-1.670941816	 1.6031897059	 0.12011
H	 1.2649383751	-1.467268932	 0.7125837809	 0.122549
H	-2.0799559778	-0.3439552297	 1.1347232738	 0.123065
H	-1.3766181632	 1.2808136279	 1.0433068351	 0.103992
H	-1.9332792918	-1.1058919021	-1.8209782724	 0.114384
H	-4.3535332459	-1.6944652279	-2.3954843561	 0.125552
H	-4.8961396924	-0.1816170363	-1.4971942387	 0.129793
H	-3.5575003563	 1.0890787514	-2.8607475354	 0.245575
48.898	64.3254	102.1696	143.572	240.2076	245.75	268.2145	274.5696	336.1132	369.1902	388.3597	481.6242	607.1188	677.2523	773.4615	842.3821	873.5752	893.024	955.9144	1004.5765	1019.3659	1066.7984	1067.8726	1113.1188	1123.8473	1143.0545	1148.883	1180.5747	1192.3203	1198.6801	1288.2475	1296.9763	1306.5105	1323.5012	1369.2937	1397.0469	1447.3509	1460.03	1479.865	1483.628	1496.4314	1496.9521	1499.9752	1512.7035	1783.0096	2932.4935	2938.8138	2953.7762	3032.6463	3061.8981	3066.3948	3105.7793	3110.3895	3111.1233	3196.1553	3206.6925	3454.4409
CN(C)CC(=O)C1CN1	CN(C)CC(=O)[C@H]1CN1	
InChI=1S/C6H12N2O/c1-8(2)4-6(9)5-3-7-5/h5,7H,3-4H2,1-2H3	InChI=1S/C6H12N2O/c1-8(2)4-6(9)5-3-7-5/h5,7H,3-4H2,1-2H3/t5-/m1/s1
