18
gdb 44545	3.23317	1.47049	1.39753	2.1565	73.66	-0.2363	-0.0232	0.2131	986.7189	0.149334	-401.929021	-401.921985	-401.921041	-401.960631	28.439	
O	 0.0487165695	 0.4658385969	 1.019836799	-0.309566
C	 0.0051264729	 1.3908212807	 0.2529378178	 0.381027
C	-1.2842673915	 2.0668085588	-0.2553204196	-0.341153
C	-0.8443172008	 3.379863873	-0.9046786392	-0.051144
C	-0.6981749608	 4.6320858567	-0.0336799626	-0.030452
C	 0.1764418068	 4.4164609406	 1.1326435559	-0.259982
N	 0.820757899	 4.6582625898	-0.1720776467	-0.14236
C	 0.7181551647	 3.3845037309	-0.9880261416	 0.017273
C	 1.2272858604	 2.0801320936	-0.3841883738	-0.337887
H	-1.7454395394	 1.388279865	-0.9837114672	 0.132326
H	-1.993467063	 2.1783118234	 0.5693765547	 0.134647
H	-1.3439513303	 3.5868483056	-1.8505985847	 0.084536
H	-1.2881395354	 5.5354761233	-0.1517584469	 0.09735
H	 0.3096479672	 5.2532767023	 1.8116523731	 0.127538
H	 0.2483975314	 3.4484447588	 1.620895314	 0.130079
H	 1.1281674216	 3.5904924164	-1.9764186732	 0.089654
H	 2.0275287922	 2.2020828068	 0.3505953124	 0.143565
H	 1.6120031655	 1.4120193177	-1.1646919014	 0.134549
72.6989	164.8486	293.0415	365.6212	439.2607	465.4613	516.8711	627.6963	635.9368	691.164	736.2463	765.8859	799.0194	803.3325	848.6024	895.9212	955.484	998.6271	1032.2737	1035.9403	1064.1376	1088.0287	1113.683	1119.9841	1142.3571	1150.7498	1168.7538	1208.4902	1227.679	1264.4342	1279.2681	1289.8374	1345.6396	1349.5883	1372.7765	1434.9651	1443.7603	1516.4862	1842.4126	3039.8531	3043.3432	3099.0314	3102.2894	3105.8176	3115.074	3119.0751	3160.025	3198.5886
O=C1CC2C3CN3C2C1	O=C1C[C@H]2[C@H]3CN3[C@H]2C1	
InChI=1S/C7H9NO/c9-4-1-5-6(2-4)8-3-7(5)8/h5-7H,1-3H2	InChI=1S/C7H9NO/c9-4-1-5-6(2-4)8-3-7(5)8/h5-7H,1-3H2/t5-,6+,7-,8?/m1/s1
