21
gdb 111321	2.29886	1.45942	1.21289	2.2056	78.81	-0.2427	0.0751	0.3178	1168.6148	0.179588	-424.179533	-424.169874	-424.16893	-424.213753	35.937	
C	-0.0135268536	 1.3539392206	-0.3359231623	-0.239323
O	-0.0505404102	 0.0950587042	 0.2984780776	-0.229222
C	-1.2759616983	-0.561146711	 0.1655365126	 0.074679
C	-1.6753206105	-1.1271845726	-1.2121090412	-0.026792
O	-0.7026704347	-2.112092144	-1.5806345307	-0.242172
C	-1.7280308603	-2.4933808503	-0.664328957	 0.003422
C	-1.3043607183	-2.0314215805	 0.7490896195	 0.235485
C	 0.0354803582	-2.5717514599	 1.2352817872	-0.43669
C	-2.4178367819	-2.2182774209	 1.778497196	-0.455329
H	 0.9702479538	 1.7866364921	-0.1406064262	 0.130121
H	-0.1528290097	 1.2695748552	-1.4236694303	 0.113343
H	-0.7862281955	 2.0316792078	 0.0610528698	 0.101717
H	-2.0954003856	 0.0473894377	 0.5830155022	 0.059321
H	-2.245324212	-0.6701332755	-2.0132833228	 0.101596
H	-2.363175196	-3.3284242234	-0.940791302	 0.098475
H	 0.793628349	-2.4737277322	 0.4572673209	 0.141197
H	 0.3785223971	-2.0204524017	 2.11620471	 0.11757
H	-0.0553476648	-3.6290015206	 1.5095773447	 0.102505
H	-2.5361458867	-3.2765452271	 2.0369497383	 0.115819
H	-2.1890893085	-1.6724774279	 2.6999858709	 0.123296
H	-3.3819783814	-1.8566961199	 1.4035103127	 0.110982
71.1679	129.6166	170.8895	198.8459	204.3817	245.0931	264.671	297.4876	310.9712	329.9341	489.4093	527.6947	585.1179	691.6361	796.6083	840.3571	865.5629	902.0739	911.6179	957.7064	972.3508	995.4728	1019.7618	1045.7555	1052.1184	1160.938	1176.4778	1184.2935	1203.993	1204.1471	1237.5813	1255.035	1275.0713	1302.2361	1376.6321	1382.0272	1397.5644	1420.8525	1479.5229	1482.178	1486.4973	1487.5026	1500.3531	1506.91	1509.934	2962.9441	2975.534	3023.7586	3025.7404	3035.3763	3090.0061	3096.68	3100.5416	3118.3518	3142.9874	3168.2805	3183.9727
COC1C2OC2C1(C)C	CO[C@H]1[C@H]2O[C@H]2C1(C)C	
InChI=1S/C7H12O2/c1-7(2)5(8-3)4-6(7)9-4/h4-6H,1-3H3	InChI=1S/C7H12O2/c1-7(2)5(8-3)4-6(7)9-4/h4-6H,1-3H3/t4-,5+,6-/m1/s1
