27
gdb 117839	2.29868	0.93028	0.82688	1.3054	92.38	-0.2636	0.0689	0.3325	1632.9214	0.249532	-390.700018	-390.687864	-390.68692	-390.737612	44.407	
C	-0.1423132833	 1.6754824637	-0.0046412584	-0.37583
C	 0.0194255438	 0.1530988786	 0.0680538385	-0.193431
C	-1.3293950604	-0.5737225448	-0.0146871407	-0.173544
C	-1.3131403956	-2.1253191692	 0.0112336381	 0.244995
C	-0.5373869887	-2.6457062964	 1.2350136496	-0.431152
C	-2.7944002463	-2.5891786592	 0.0774587377	-0.176219
C	-3.060257601	-4.087418899	-0.1070236049	-0.407161
C	-0.6352951972	-2.6766184303	-1.2529867241	-0.091172
O	-1.3894453588	-2.2864682407	-2.3942704243	-0.426988
H	 0.8253771209	 2.1840948417	 0.0530443535	 0.106448
H	-0.6235766748	 1.9777060486	-0.9413836843	 0.114663
H	-0.7632316579	 2.0473033111	 0.8182978007	 0.111679
H	 0.6767282908	-0.173046201	-0.7474618262	 0.094919
H	 0.5350259885	-0.1066712371	 1.0000586702	 0.094132
H	-1.9594978386	-0.2298386993	 0.8175940925	 0.081248
H	-1.8384601084	-0.2616760983	-0.9338257922	 0.108788
H	-0.9307896963	-2.2041301732	 2.1570728034	 0.111274
H	-0.6143061102	-3.7333597726	 1.3285188469	 0.110685
H	 0.5276835024	-2.3997563956	 1.1778786425	 0.111712
H	-3.1994807169	-2.2666433699	 1.0455168607	 0.083956
H	-3.3563901114	-2.0447888062	-0.6883592171	 0.107332
H	-4.1255841576	-4.2998013816	 0.0292823192	 0.109227
H	-2.7892661835	-4.4170248477	-1.1143023597	 0.122716
H	-2.5134467412	-4.7047403668	 0.6132676842	 0.109997
H	 0.3960494061	-2.2978248253	-1.3154477414	 0.08294
H	-0.5695400212	-3.7730156629	-1.1833590425	 0.082118
H	-0.9449969732	-2.6207383863	-3.178155672	 0.286669
44.3257	73.5821	81.648	143.6997	157.6604	231.8782	238.0511	247.2987	251.7253	261.2089	315.7276	324.676	338.7241	362.4475	402.7751	514.646	550.2732	736.9806	740.7015	779.7822	853.7052	863.7545	922.297	941.1327	991.1942	1010.5366	1024.7353	1046.4698	1063.9929	1080.8181	1107.5138	1122.5355	1178.027	1195.7668	1231.2692	1272.2819	1283.6582	1289.3101	1322.1349	1330.4132	1363.2264	1376.8825	1395.0884	1407.9803	1410.9882	1416.5029	1457.6593	1473.1619	1485.3925	1491.8448	1497.6309	1499.273	1500.3589	1502.4364	1509.2242	1515.7341	1528.1792	2978.9011	3003.86	3006.9781	3021.6061	3026.2124	3028.3124	3032.6263	3037.2321	3050.7919	3069.1373	3073.3658	3095.6737	3096.6777	3098.705	3100.4281	3103.0014	3110.8719	3836.4099
CCCC(C)(CC)CO	CCC[C@@](C)(CC)CO	
InChI=1S/C8H18O/c1-4-6-8(3,5-2)7-9/h9H,4-7H2,1-3H3	InChI=1S/C8H18O/c1-4-6-8(3,5-2)7-9/h9H,4-7H2,1-3H3/t8-/m1/s1
