18
gdb 16531	2.85879	2.25956	1.74311	1.2203	66.57	-0.2466	0.0582	0.3048	832.9269	0.154124	-384.900923	-384.893318	-384.892374	-384.933063	28.905	
C	 0.1401514038	 1.6006343337	 0.0973152892	-0.417831
C	 0.0839820097	 0.0824035891	 0.0160504776	-0.028378
C	 1.0648775878	-0.6739039189	-0.9563797164	 0.095834
O	 2.0821958171	 0.0732418917	-1.5767468529	-0.422478
C	 1.4739346503	-1.6407660395	 0.212135363	-0.104104
C	 2.6898485471	-1.1660742242	 1.00373675	-0.095032
O	 1.8927589208	-0.1778694969	 1.7068582677	-0.302417
C	 0.6601151936	-0.7409452003	 1.1852111281	 0.100111
H	 1.1169640002	 1.9403562121	 0.4539578622	 0.123101
H	-0.0524034383	 2.0552257068	-0.8791728067	 0.124518
H	-0.6079603816	 1.9795137738	 0.8012755227	 0.118875
H	-0.9410478623	-0.2485244047	-0.1888916974	 0.07415
H	 0.5506207475	-1.1924570112	-1.7688846545	 0.090538
H	 2.4417416402	 0.6905456	-0.9309442421	 0.291338
H	 1.3204392903	-2.7077964328	 0.0595733743	 0.075306
H	 3.0934770645	-1.9149333555	 1.6972514875	 0.102152
H	 3.5168396084	-0.7201808858	 0.4390285578	 0.103396
H	-0.0014346391	-1.0920220774	 1.98233487	 0.070921
45.6595	191.8785	225.5999	245.4089	273.1946	352.2265	470.8837	534.7463	540.4441	653.311	758.5912	806.8109	843.6639	895.0955	907.1115	949.0955	993.4963	1004.4399	1022.6941	1060.1773	1098.1992	1122.4503	1151.482	1162.6568	1183.4464	1203.4539	1238.7562	1261.8999	1286.4017	1308.741	1322.744	1349.0885	1365.3766	1406.6571	1438.6894	1487.3727	1510.7555	1529.0473	3013.2616	3033.8032	3039.1575	3060.8612	3066.6409	3080.7237	3103.8607	3114.2965	3124.8226	3813.4138
CC1C(O)C2COC12	C[C@H]1[C@@H](O)[C@H]2CO[C@@H]12	
InChI=1S/C6H10O2/c1-3-5(7)4-2-8-6(3)4/h3-7H,2H2,1H3	InChI=1S/C6H10O2/c1-3-5(7)4-2-8-6(3)4/h3-7H,2H2,1H3/t3-,4+,5+,6-/m0/s1
