20
gdb 97206	2.28056	1.50438	1.13358	2.1299	77.76	-0.253	0.0247	0.2777	1176.1627	0.170049	-440.309552	-440.3	-440.299056	-440.343929	35.194	
C	 0.1428159156	 1.3790774743	-0.1830478863	-0.335268
N	 0.1012069386	-0.0711430682	-0.0884279285	-0.351987
C	 0.6156143972	-0.6613109794	 0.8977001044	 0.4072
O	 1.2491918998	-0.086558241	 1.9535671338	-0.253429
C	 1.8491519958	-1.1107293888	 2.7789834363	-0.096978
C	 1.8537572842	-2.385954924	 1.926960918	-0.270882
C	 0.6292783009	-2.1812987388	 1.0177579188	 0.299106
C	-0.6746764873	-2.6794600914	 1.6628542659	-0.424377
O	 0.8019045998	-2.7734706432	-0.250357499	-0.483821
H	 0.8579475604	 1.8440283149	 0.505023554	 0.125292
H	 0.3973458231	 1.6633988386	-1.2089954015	 0.124437
H	-0.8523380841	 1.7899750611	 0.0256449093	 0.127639
H	 2.8457037318	-0.7645781507	 3.0616014525	 0.124802
H	 1.2467580216	-1.2181260728	 3.6881995129	 0.117558
H	 2.7461784003	-2.4328806145	 1.2973928248	 0.125069
H	 1.8023663639	-3.2935429681	 2.5318994362	 0.111551
H	-0.8206939168	-2.2717678804	 2.6692700468	 0.111369
H	-1.5270471124	-2.3833506391	 1.045873506	 0.131589
H	-0.6497095356	-3.7709849611	 1.7271947933	 0.12551
H	 0.4288761832	-2.1352402075	-0.8779145178	 0.28562
69.1263	93.6394	163.0566	191.0568	200.1084	250.0807	292.1225	331.7701	342.3343	411.1818	443.1567	571.8175	584.4163	668.0357	730.6529	747.5139	824.5269	929.7489	947.4764	975.7492	1002.9209	1033.9054	1056.0005	1125.1523	1133.2253	1156.2018	1170.2905	1185.7606	1224.1761	1239.541	1262.6847	1327.6876	1394.1859	1405.6209	1414.0477	1442.2217	1482.779	1491.6448	1493.0174	1496.6882	1498.556	1524.9112	1805.5926	3017.667	3035.1467	3041.7075	3070.6782	3077.3679	3094.333	3104.227	3108.4573	3124.9086	3127.4649	3706.6321
CN=C1OCCC1(C)O	CN=C1OCC[C@]1(C)O	
InChI=1S/C6H11NO2/c1-6(8)3-4-9-5(6)7-2/h8H,3-4H2,1-2H3	InChI=1S/C6H11NO2/c1-6(8)3-4-9-5(6)7-2/h8H,3-4H2,1-2H3/t6-/m0/s1
