14
gdb 11449	3.44716	1.82781	1.60889	2.2871	53.41	-0.2691	0.0008	0.2699	823.7611	0.107249	-456.844275	-456.837052	-456.836108	-456.876182	25.862	
O	-0.4306827832	 1.4932570875	 0.1279846288	-0.416901
C	-0.1224627899	 0.1145342755	 0.0872665	-0.103065
C	-1.3869080028	-0.7387989357	-0.0177928509	 0.21616
O	-2.2171491682	-0.6083358188	 1.1174993445	-0.258789
C	-3.2455730741	 0.3102051119	 0.806314905	-0.21554
C	-3.2340288562	 0.4057042625	-0.7115125719	 0.390766
O	-3.9861383383	 0.9718008407	-1.4441451403	-0.320266
O	-2.1506298253	-0.3031010724	-1.1445020007	-0.235581
H	-0.6582096999	 1.7691357682	-0.7661695852	 0.302294
H	 0.5543170627	-0.1384558643	-0.7415849313	 0.106704
H	 0.3790757928	-0.1345092273	 1.027338008	 0.131512
H	-1.1413600233	-1.7985443791	-0.1524961568	 0.107735
H	-4.2082356905	-0.0672384606	 1.1634405216	 0.14502
H	-3.0614971537	 1.3018046119	 1.2368834593	 0.149953
82.807	128.2571	167.7746	268.1437	333.9937	392.3421	488.8346	566.9163	629.8719	671.6818	818.4626	851.0155	875.4697	928.7305	1012.4607	1038.7682	1056.6515	1092.716	1126.8401	1200.3518	1212.9726	1236.6488	1340.7923	1370.5678	1378.0568	1404.4952	1410.1607	1483.4405	1493.033	1904.7256	3007.5557	3039.7889	3053.6711	3093.6734	3096.2618	3818.8376
OCC1OCC(=O)O1	OC[C@H]1OCC(=O)O1	
InChI=1S/C4H6O4/c5-1-4-7-2-3(6)8-4/h4-5H,1-2H2	InChI=1S/C4H6O4/c5-1-4-7-2-3(6)8-4/h4-5H,1-2H2/t4-/m0/s1
