19
gdb 120922	3.38591	0.94988	0.86698	1.8165	70.86	-0.2389	0.0607	0.2995	1374.9692	0.158387	-460.101118	-460.092208	-460.091263	-460.135247	33.337	
O	 0.1657571745	 1.3607428473	-0.1407631289	-0.418597
C	-0.0231660669	-0.0107843266	 0.1689634109	-0.058524
C	-1.4045424603	-0.5236221069	-0.2495647977	-0.245809
C	-1.5695645754	-2.0154902867	-0.0217110627	 0.129597
O	-1.4585868937	-2.4467158456	 1.3817031563	-0.326147
C	-2.6287546713	-3.2673565105	 1.234062223	 0.019059
C	-3.8032684014	-2.3762956213	 1.059288835	 0.127639
O	-3.8767829305	-1.1377160967	 1.6924922437	-0.43183
C	-2.9308524545	-2.692088728	-0.1496531177	-0.213423
H	-0.4661613457	 1.8690376816	 0.3775938443	 0.28175
H	 0.7580026426	-0.5476841296	-0.3813030545	 0.109715
H	 0.1408733004	-0.2105614108	 1.2384071409	 0.103485
H	-2.1922516864	 0.0209366429	 0.2809733807	 0.108459
H	-1.5443443177	-0.3260151841	-1.319894457	 0.11222
H	-0.8094865966	-2.5687618862	-0.590253471	 0.089894
H	-2.5935148533	-4.2709044722	 1.643179214	 0.10668
H	-4.7691013964	-2.873131893	 1.0236895753	 0.112202
H	-3.0280232469	-1.0265015593	 2.1425205129	 0.2921
H	-3.3155818505	-3.1665059143	-1.0429028072	 0.10153
71.1706	95.4863	117.614	206.8226	243.6061	296.1646	339.9848	363.1135	456.2369	470.4535	595.8308	661.2183	733.3776	764.2187	808.8073	822.7648	873.8975	939.4416	984.0565	1007.2309	1024.4089	1050.5638	1054.1044	1065.6035	1075.6003	1095.3895	1126.7181	1190.8642	1193.128	1250.029	1255.5443	1303.5364	1313.2554	1322.0443	1373.7725	1386.0992	1417.588	1422.2344	1455.6983	1486.4172	1515.4251	2995.5007	3008.9638	3038.6286	3060.1722	3094.2565	3155.0607	3174.0108	3199.5535	3752.3002	3815.7818
OCCC1OC2C(O)C12	OCC[C@H]1O[C@H]2[C@@H](O)[C@@H]12	
InChI=1S/C6H10O3/c7-2-1-3-4-5(8)6(4)9-3/h3-8H,1-2H2	InChI=1S/C6H10O3/c7-2-1-3-4-5(8)6(4)9-3/h3-8H,1-2H2/t3-,4-,5+,6-/m1/s1
