17
gdb 38458	3.95412	1.30659	1.21596	1.114	66.98	-0.2512	0.0764	0.3276	1041.2907	0.136328	-458.913304	-458.905966	-458.905022	-458.945899	27.868	
C	 0.0506609653	 1.6363676653	-0.0108910197	-0.323646
C	 1.5694170089	 1.4576316205	-0.1127253244	 0.040549
O	 1.9802677075	 0.6830437125	 1.0264600094	-0.249538
C	 1.4548925164	-0.0061602656	-0.1154453007	-0.065214
C	-0.083061129	 0.0742780986	 0.0357808198	 0.392526
C	-0.7063784218	-0.6444442655	 1.2544172556	-0.168545
O	-1.8336924099	-1.330052084	 0.7208427369	-0.235254
C	-1.5068738497	-1.5676560486	-0.6201152399	 0.006829
O	-0.815963969	-0.4201721734	-1.0729906139	-0.293296
H	-0.3121283838	 2.2038057597	 0.8493710728	 0.110207
H	-0.3997500855	 2.0120671095	-0.9322584897	 0.127384
H	 2.311418887	 2.1068774835	-0.5607626665	 0.11012
H	 2.060048572	-0.7796309129	-0.575065974	 0.106754
H	 0.0137758438	-1.3468491037	 1.6982124131	 0.109092
H	-1.055685859	 0.0377589295	 2.0311168303	 0.126509
H	-0.8679279128	-2.4652101577	-0.7195572504	 0.082113
H	-2.4230066104	-1.6885994678	-1.2040507287	 0.123409
42.2433	129.7254	217.2745	288.0897	386.3713	411.2919	439.4367	540.9792	739.9326	763.4455	808.9783	848.6551	864.5988	876.8145	920.9148	968.9526	973.9668	987.664	1033.1048	1040.5557	1097.201	1114.6	1122.7733	1152.372	1177.9647	1206.2758	1225.3646	1231.8328	1255.7552	1265.8759	1288.9261	1360.965	1385.2898	1429.8644	1464.2848	1512.1678	1542.009	2926.7522	3004.9397	3067.6282	3096.6142	3112.6634	3133.2512	3180.9772	3201.6978
C1C2OC2C11COCO1	C1[C@H]2O[C@H]2[C@]21COCO2	
InChI=1S/C6H8O3/c1-4-5(9-4)6(1)2-7-3-8-6/h4-5H,1-3H2	InChI=1S/C6H8O3/c1-4-5(9-4)6(1)2-7-3-8-6/h4-5H,1-3H2/t4-,5-,6+/m1/s1
