19
gdb 57595	2.14968	1.49546	1.31484	3.8118	71.08	-0.2492	-0.0291	0.2201	1094.6583	0.15429	-460.148641	-460.138487	-460.137543	-460.183351	37.184	
C	 0.5184653912	 1.210197216	 0.6010369252	-0.460619
C	-0.0347560231	-0.1187535611	 0.0785392761	 0.188812
O	-0.0159201859	-1.1241352481	 1.0846475333	-0.455413
C	-1.5219350353	 0.0207812592	-0.2772629813	 0.163171
O	-1.9915993267	 0.9742284417	-0.8411424875	-0.259566
C	 0.6881109543	-0.586128018	-1.2086594271	 0.383983
C	 0.908461099	 0.4528450507	-2.2878952673	-0.481387
C	 1.5432542214	-1.7830382744	-1.1555181566	-0.228381
O	 0.2217935433	-1.8562164001	-1.6907835948	-0.27576
H	 1.6067361391	 1.1616960912	 0.7190533558	 0.114123
H	 0.2751360415	 2.0262742736	-0.0809879298	 0.154037
H	 0.0694844697	 1.4325624114	 1.5731334281	 0.131646
H	 0.8070258348	-1.0415464808	 1.5762295014	 0.286652
H	-2.1292531858	-0.8558095819	 0.0266577346	 0.111469
H	 1.6542581354	 1.1935309216	-1.9841852375	 0.122062
H	 1.2588408854	-0.0402724253	-3.1975346845	 0.130362
H	-0.0223946828	 0.9800671358	-2.5139957577	 0.15404
H	 2.3496104146	-1.8840748777	-1.8816889882	 0.111295
H	 1.6846642901	-2.3148805637	-0.2185194421	 0.109473
62.3068	94.154	194.38	203.6754	230.2824	244.478	260.5919	263.6527	340.6309	351.4085	378.123	390.0381	467.3363	511.5211	607.2289	670.7821	805.1742	845.4186	913.4849	931.8132	947.7967	995.2619	1026.3771	1085.4192	1121.7416	1133.2417	1147.9522	1175.2516	1183.2417	1259.56	1359.809	1379.5895	1387.6424	1406.8155	1413.0881	1476.531	1492.1389	1493.3109	1503.4151	1516.7323	1831.9309	2937.0988	3037.9048	3046.6568	3087.3968	3109.5632	3117.1535	3131.5764	3145.1963	3182.1349	3827.2801
CC(O)(C=O)C1(C)CO1	C[C@@](O)(C=O)[C@@]1(C)CO1	
InChI=1S/C6H10O3/c1-5(8,3-7)6(2)4-9-6/h3,8H,4H2,1-2H3	InChI=1S/C6H10O3/c1-5(8,3-7)6(2)4-9-6/h3,8H,4H2,1-2H3/t5-,6-/m1/s1
