15
gdb 132871	3.04572	1.36306	0.9432	4.3446	76.3	-0.1762	-0.0285	0.1477	1153.837	0.114301	-458.125113	-458.117311	-458.116367	-458.157225	30.298	
N	 0.0507387499	 1.4506362181	 0.1479565197	-0.595316
C	 0.0048259383	 0.0425066961	 0.0342556944	 0.226679
C	-1.1458803943	-0.6791512733	-0.0009398754	-0.052518
N	-1.1175203484	-2.0559223839	-0.0060474395	-0.362012
C	 0.0228790881	-2.8470938043	-0.0210607382	 0.290162
N	-0.0837469244	-4.1282650916	-0.0499059928	-0.582111
C	 1.2344006815	-2.0394650505	 0.0032450207	 0.201059
F	 2.3751781623	-2.7330552349	-0.0021230789	-0.075375
C	 1.2416294111	-0.6906098202	 0.0397598243	-0.248964
H	 0.7022037406	 1.8693214275	-0.5063581433	 0.245394
H	-0.8576892859	 1.8779849016	 0.016125029	 0.240823
H	-2.1303886576	-0.2294038847	-0.0108381609	 0.116457
H	-1.9825472105	-2.5751869856	-0.0248650089	 0.262576
H	 0.8430766986	-4.5471875788	-0.0531205798	 0.217364
H	 2.1874887807	-0.1607732653	 0.0823679797	 0.115782
113.8666	202.7617	229.0196	308.1146	319.9549	332.3133	410.0165	464.2359	510.8286	578.9914	588.3992	621.2451	710.2764	741.4382	762.4561	781.275	815.3679	836.0639	908.5879	981.8146	1064.4033	1140.4132	1199.4674	1228.0344	1300.2301	1315.6291	1411.6903	1456.0349	1486.0226	1616.8597	1652.718	1675.9205	1731.2362	3189.5505	3211.9144	3516.1024	3524.6155	3609.0301	3625.3438
NC1=CNC(=N)C(F)=C1	NC1=CC(=C(NC1)[NH])F	
InChI=1S/C5H6FN3/c6-4-1-3(7)2-9-5(4)8/h1-2H,7H2,(H2,8,9)	InChI=1S/C5H7FN3/c6-4-1-3(7)2-9-5(4)8/h1,8-9H,2,7H2
