15
gdb 28613	4.20388	1.15483	0.97498	1.3285	69.48	-0.2132	0.0211	0.2343	1171.7347	0.113775	-453.943628	-453.936202	-453.935257	-453.976043	27.94	
O	-0.1113861175	 1.2605663471	 0.2138393646	-0.400695
C	 0.0726309958	-0.0504567904	 0.0620743776	 0.47485
N	 1.146342652	-0.6769541114	-0.2833937864	-0.383955
C	 0.7476169448	-2.0190203934	-0.2762335256	-0.182889
C	-0.5514309832	-2.1155307426	 0.0759961273	 0.369627
O	-1.0086408268	-0.8042266904	 0.3034590283	-0.209453
N	-1.4090353002	-3.1885174516	 0.2309862305	-0.190427
C	-2.428421328	-3.1488112025	 1.290719144	-0.228765
C	-2.8248963948	-3.0384187504	-0.138436694	-0.228761
H	 0.7350311185	 1.6801764184	 0.0117121103	 0.321679
H	 1.4244779388	-2.8192320953	-0.5252068278	 0.128733
H	-2.5626453592	-4.0837592813	 1.8261607673	 0.127653
H	-2.4873471307	-2.2489371055	 1.8954512023	 0.137369
H	-3.1497020422	-2.0645357065	-0.4919885303	 0.137386
H	-3.2513900572	-3.8919997743	-0.656459978	 0.127649
67.795	152.625	161.8455	293.0473	387.1919	435.6964	462.2215	502.4902	590.7365	676.0802	739.898	748.7737	820.266	835.5431	863.8883	900.3058	944.6114	1019.3017	1039.0165	1105.1799	1129.825	1132.4325	1140.3292	1182.2044	1205.0732	1226.155	1255.9614	1344.2891	1487.3566	1489.8886	1513.3443	1655.8754	1686.8789	3117.7413	3121.1077	3204.9103	3219.6663	3278.6983	3803.3093
OC1=NC=C(O1)N1CC1	Oc1ncc(o1)N1CC1	
InChI=1S/C5H6N2O2/c8-5-6-3-4(9-5)7-1-2-7/h3H,1-2H2,(H,6,8)	InChI=1S/C5H6N2O2/c8-5-6-3-4(9-5)7-1-2-7/h3H,1-2H2,(H,6,8)
