16
gdb 11231	4.1993	1.43149	1.30873	3.5588	68.41	-0.2283	-0.0253	0.203	983.6426	0.12892	-383.752119	-383.744194	-383.74325	-383.784911	28.056	
C	-0.077632938	 1.4943533031	 0.0463700727	-0.494634
C	 0.0124058651	 0.0045294321	 0.0062501205	 0.313327
C	-0.0919829522	-0.8157941715	-1.0371167063	-0.230167
C	 0.0233013828	-2.2487086242	-0.5663850533	-0.008265
O	 0.3688063239	-2.1658155273	 0.7995923512	-0.250894
C	 0.2398319441	-0.8205415493	 1.2491813014	-0.150768
C	-1.3061895367	-2.9763075793	-0.7834605808	 0.152488
O	-2.0753131036	-3.2734879998	 0.0883680152	-0.233207
H	 0.845995946	 1.9362566134	 0.4400388549	 0.134701
H	-0.2620090766	 1.9142600006	-0.9452611098	 0.132207
H	-0.8878761402	 1.8192314148	 0.7108728059	 0.137831
H	-0.2706950049	-0.5383925466	-2.0679421243	 0.107953
H	 0.7984144138	-2.8137919527	-1.1126097576	 0.099746
H	 1.1552677659	-0.5318823781	 1.7863570776	 0.108086
H	-0.5994488375	-0.7274932612	 1.9568743517	 0.115797
H	-1.5173604919	-3.196586424	-1.8580631991	 0.065798
60.6157	121.7891	168.2971	190.923	258.1536	303.3181	352.8061	459.3077	600.1786	698.3975	761.8692	820.9945	841.4329	903.0062	956.8766	997.4653	1000.1865	1018.6503	1047.3871	1093.0073	1131.3066	1201.6719	1215.0288	1254.9156	1303.6485	1341.2126	1384.2106	1414.5366	1417.7754	1479.5672	1487.8178	1515.3241	1724.0857	1847.8706	2837.6592	2957.1451	2978.3683	3008.0226	3024.0539	3071.4785	3120.3343	3218.6774
CC1=CC(OC1)C=O	CC1=C[C@@H](OC1)C=O	
InChI=1S/C6H8O2/c1-5-2-6(3-7)8-4-5/h2-3,6H,4H2,1H3	InChI=1S/C6H8O2/c1-5-2-6(3-7)8-4-5/h2-3,6H,4H2,1H3/t6-/m1/s1
