17
gdb 129822	4.54247	0.99952	0.87671	3.5829	76.83	-0.213	0.0192	0.2323	1318.6992	0.137049	-417.995355	-417.987282	-417.986338	-418.028261	30.86	
N	 0.1413016783	 1.3668764648	-0.2498230192	-0.595214
C	-0.0277620452	 0.009466826	-0.1147037163	 0.49274
C	-1.0298607344	-0.849773198	-0.4662838034	-0.464733
C	-0.5078534988	-2.1258251791	-0.1045742735	 0.440031
N	 0.6951265222	-2.0420418002	 0.4185374621	-0.243842
O	 1.0035587682	-0.6593018567	 0.4112085947	-0.218555
C	-1.1327664351	-3.4535894666	-0.2438120311	-0.089607
C	-2.6289300221	-3.6208155186	-0.0691883744	-0.268441
C	-2.0195482024	-3.7638259891	-1.4330410921	-0.267984
H	 0.8293903094	 1.759131373	 0.3774034495	 0.266645
H	-0.714996853	 1.8994537374	-0.2717696535	 0.264046
H	-1.9783940459	-0.6103711737	-0.9161221803	 0.104025
H	-0.5044971678	-4.25798907	 0.120898667	 0.103833
H	-2.976500077	-4.5116309494	 0.441752045	 0.119593
H	-3.2091259761	-2.7297064858	 0.1435181502	 0.117839
H	-2.1818090777	-2.97063395	-2.1544205778	 0.119731
H	-1.9443181326	-4.7539104041	-1.8683106969	 0.119892
71.7797	135.4131	152.2045	270.4645	280.7606	353.4832	445.207	448.4758	570.2139	596.4311	689.8178	717.0554	737.5977	757.111	790.3752	831.391	899.1349	918.0032	926.031	1008.2662	1034.1628	1055.9156	1063.6507	1078.8079	1092.7701	1135.4704	1200.434	1201.1833	1221.1903	1360.0539	1380.7978	1469.7437	1496.3873	1498.8908	1548.8044	1625.7553	1673.2908	3135.5179	3139.3312	3179.8605	3215.0339	3230.7243	3272.0468	3571.6913	3676.9058
NC1=CC(=NO1)C1CC1	Nc1cc(no1)C1CC1	
InChI=1S/C6H8N2O/c7-6-3-5(8-9-6)4-1-2-4/h3-4H,1-2,7H2	InChI=1S/C6H8N2O/c7-6-3-5(8-9-6)4-1-2-4/h3-4H,1-2,7H2
