19
gdb 89817	2.97603	1.23634	0.9928	1.7465	79.46	-0.2445	0.0042	0.2487	1234.177	0.158251	-423.022529	-423.013679	-423.012735	-423.056689	33.434	
C	-0.152610586	 1.541602709	 0.083093428	-0.490462
C	-0.1210616232	 0.0478958357	 0.0414333365	 0.278301
C	-0.2152882782	-0.753725248	-1.023720503	-0.254496
C	-0.1292536385	-2.1879016869	-0.6560824732	 0.424688
C	-0.665299764	-3.283688594	-1.4756449696	-0.248187
O	 0.7388059075	-3.0286662376	-1.4449231256	-0.281287
C	-0.0158656216	-2.2332215799	 0.8691004297	-0.352463
C	 0.0940584569	-0.7513177425	 1.3178853956	 0.033851
O	 1.3277262188	-0.4135123202	 1.949610852	-0.429195
H	 0.7231926631	 1.923832252	 0.6184336993	 0.140674
H	-0.1753580208	 1.9796039899	-0.9179182907	 0.123536
H	-1.0329612518	 1.8987160598	 0.6330094321	 0.129925
H	-0.3274242676	-0.432129938	-2.0536221838	 0.100265
H	-0.9876431916	-4.2050631456	-0.9896773125	 0.110571
H	-1.162425345	-3.0657557958	-2.4212726581	 0.10892
H	-0.8888934573	-2.7167108665	 1.3164122315	 0.111991
H	 0.8672019997	-2.7976411402	 1.1789036975	 0.124178
H	-0.6612037665	-0.5083183382	 2.0736558184	 0.089697
H	 2.0300080359	-0.569439753	 1.3071696858	 0.279493
29.1067	128.744	170.9935	236.1857	265.7382	325.7002	345.7203	373.5694	433.5272	470.0243	503.408	588.6552	633.881	771.4063	827.6227	834.3029	877.5714	925.5291	931.0697	975.6887	1003.8269	1036.2296	1059.6527	1075.5257	1127.8484	1147.9709	1172.1847	1178.606	1231.3249	1264.781	1286.4804	1308.7009	1336.6605	1405.7253	1421.0537	1431.0043	1474.8835	1475.4863	1489.5736	1528.4638	1714.4398	3024.0158	3045.9792	3064.7532	3067.8545	3079.6012	3111.6617	3119.3342	3151.9145	3190.9456	3789.3903
CC1=CC2(CO2)CC1O	CC1=C[C@]2(CO2)C[C@H]1O	
InChI=1S/C7H10O2/c1-5-2-7(4-9-7)3-6(5)8/h2,6,8H,3-4H2,1H3	InChI=1S/C7H10O2/c1-5-2-7(4-9-7)3-6(5)8/h2,6,8H,3-4H2,1H3/t6-,7-/m1/s1
