20
gdb 128098	3.19399	1.21051	0.89396	2.5389	84.69	-0.1824	0.0323	0.2146	1332.7705	0.171343	-399.345439	-399.33556	-399.334616	-399.38051	35.059	
C	-0.0530688073	 1.4651130235	 0.0085228879	-0.321966
N	 0.0553474145	 0.0159467718	-0.0348039427	-0.393714
C	-1.1479763081	-0.7078158467	 0.0227355634	 0.13346
C	-1.2726529771	-2.0913454189	 0.0247132365	 0.277882
C	-0.2212704831	-3.1490827469	-0.00125001	-0.517685
N	-2.6147491516	-2.3462674538	 0.0470297644	-0.006098
C	-3.265845643	-3.6361370416	 0.0643468383	-0.326522
N	-3.3598707837	-1.2272408846	 0.0398822502	-0.284342
C	-2.4764745806	-0.2277364808	 0.030803568	-0.07236
H	 0.9488893156	 1.9004068382	-0.0293279611	 0.117513
H	-0.6045648166	 1.8169845658	-0.8696272039	 0.13325
H	-0.5668166022	 1.851387785	 0.9047576625	 0.106612
H	 0.73379447	-0.3222627603	 0.6347721832	 0.228421
H	-0.0405417015	-3.6003424236	 0.9835012262	 0.128774
H	-0.4768160258	-3.9634142596	-0.6881982647	 0.131171
H	 0.7215672269	-2.7142188486	-0.3455390162	 0.138962
H	-2.9857012437	-4.2110873733	 0.9537128137	 0.132072
H	-4.3394804361	-3.4521089925	 0.0773756576	 0.160416
H	-3.011948158	-4.222623797	-0.8255673814	 0.133502
H	-2.8256229284	 0.793461174	 0.0228677681	 0.100652
65.1792	93.6084	123.026	149.3995	182.7885	221.2944	247.9148	263.0894	334.7501	351.6999	530.5393	551.068	639.8503	650.1785	702.8582	760.3586	780.0807	839.9611	954.9245	1042.3047	1059.6444	1063.2903	1128.6991	1149.2707	1155.7134	1182.2654	1218.4273	1232.5667	1351.5068	1398.3671	1411.3756	1426.2375	1452.6301	1462.5787	1466.2565	1481.6795	1486.5273	1489.2348	1496.3568	1505.9376	1522.026	1541.6454	1630.1649	2963.022	3013.0762	3029.9486	3064.8647	3068.0691	3083.4622	3107.8586	3112.8515	3163.3954	3250.3722	3556.7266
CNC1=C(C)N(C)N=C1	CNc1c(C)n(C)nc1	
InChI=1S/C6H11N3/c1-5-6(7-2)4-8-9(5)3/h4,7H,1-3H3	InChI=1S/C6H11N3/c1-5-6(7-2)4-8-9(5)3/h4,7H,1-3H3
