20
gdb 92232	2.72637	1.76628	1.35763	2.5906	77.16	-0.2162	0.0647	0.2808	1001.1833	0.173208	-403.107504	-403.099966	-403.099022	-403.139142	30.769	
O	 0.0803065777	 1.4179140123	-0.1834087601	-0.421314
C	 0.0428943781	 0.0174979836	-0.0454145711	 0.135921
C	 0.4008846999	-0.6277761089	 1.3274451048	-0.298703
C	-0.9042377672	-1.4769244099	 1.2441702028	-0.001341
C	-1.9914153308	-1.3277968346	 2.3262757946	-0.259357
C	-2.896985109	-0.2033166511	 1.8294179388	-0.012186
C	-2.3020544311	 1.131620261	 1.589853913	-0.237694
N	-2.5162147408	 0.2165730329	 0.4572422273	-0.096359
C	-1.3795740049	-0.6100258253	 0.0298469517	-0.029273
H	 1.0007008697	 1.6854262892	-0.2697130107	 0.284022
H	 0.6071009145	-0.4681638535	-0.8544966011	 0.069654
H	 1.3393810001	-1.1876913752	 1.3640869893	 0.092272
H	 0.3993428339	 0.0953137658	 2.1476228816	 0.104406
H	-0.7030689067	-2.5238213856	 1.0096985245	 0.071284
H	-2.5712959465	-2.2521910266	 2.415660614	 0.103574
H	-1.5683552706	-1.1179244625	 3.3148912359	 0.105337
H	-3.9633087654	-0.2919827789	 2.0205412319	 0.084987
H	-2.9367059904	 2.0136648189	 1.5624966786	 0.111444
H	-1.2949476916	 1.3304917853	 1.9348432475	 0.11877
H	-1.686504679	-1.1402555967	-0.8753038633	 0.074555
124.081	192.2064	240.8686	252.8049	351.7446	384.3776	416.4653	540.9215	617.6531	672.5859	719.0062	726.3839	799.7125	833.7499	849.1194	865.2429	918.0933	931.4698	966.214	1004.4404	1038.2731	1051.9913	1093.9585	1102.2479	1110.8029	1126.3656	1145.6945	1173.7855	1194.3973	1206.9327	1229.1325	1246.8332	1267.8027	1287.7756	1299.5338	1323.0888	1344.0001	1350.5499	1390.8219	1433.0502	1480.2831	1488.2171	1523.1995	2989.4941	3040.468	3053.6434	3064.1541	3075.3226	3087.67	3109.8354	3120.4598	3139.0865	3215.9499	3817.704
OC1CC2CC3CN3C12	O[C@H]1C[C@H]2C[C@H]3CN3[C@@H]12	
InChI=1S/C7H11NO/c9-6-2-4-1-5-3-8(5)7(4)6/h4-7,9H,1-3H2	InChI=1S/C7H11NO/c9-6-2-4-1-5-3-8(5)7(4)6/h4-7,9H,1-3H2/t4-,5+,6+,7-,8?/m1/s1
