19
gdb 53075	4.37086	0.75169	0.69776	1.8433	92.44	-0.2196	-0.0135	0.2061	1671.3425	0.158423	-385.887617	-385.878109	-385.877165	-385.923293	34.339	
C	-0.0633444937	 1.439596918	 0.0354366998	-0.508705
C	-0.0028697669	-0.0133210044	 0.0246453521	 0.239641
C	 0.06283837	-1.2192910515	 0.0121511862	-0.190373
C	 0.0728864497	-2.6339900427	 0.0122376405	 0.21274
C	 1.138017016	-3.4400148826	-0.1469304869	-0.193699
C	 0.7510804353	-4.8962964749	-0.1324887784	-0.271243
C	-0.6707517058	-4.8734508791	 0.4849268035	 0.123825
O	-0.6334853647	-5.1078332164	 1.8860436962	-0.43621
C	-1.2014261314	-3.4574601802	 0.1585007608	-0.336014
H	 0.4956064586	 1.8544714258	 0.8821580647	 0.150821
H	 0.3647166542	 1.8630472042	-0.8803703249	 0.150895
H	-1.0966138469	 1.7950257912	 0.1145361559	 0.15025
H	 2.1517206832	-3.0904586431	-0.3027153785	 0.095468
H	 0.7419857531	-5.3097605694	-1.1516823683	 0.111061
H	 1.4177371618	-5.532423656	 0.4598014049	 0.110825
H	-1.3130040548	-5.6613491886	 0.0847204794	 0.082166
H	-0.0751170907	-4.4248850322	 2.2757971348	 0.280307
H	-1.8663358679	-3.0972308126	 0.9489944005	 0.115577
H	-1.772416199	-3.4407184359	-0.7790280023	 0.112669
30.4036	68.8965	94.1191	135.3156	251.1496	295.9111	349.6851	372.5246	391.8022	425.8041	479.6627	530.039	546.1773	768.3126	820.5493	835.8304	862.4659	890.7891	946.5164	969.182	980.095	1044.7035	1048.9453	1053.56	1068.9169	1153.2672	1171.7531	1216.9234	1266.889	1290.9785	1301.0105	1317.9224	1341.7991	1413.6149	1432.4861	1468.2821	1476.0531	1476.3577	1478.4392	1664.0386	2347.5718	3002.9822	3023.7079	3026.0881	3066.9298	3081.847	3087.2599	3087.3251	3090.2705	3204.493	3790.0497
CC#CC1=CCC(O)C1	CC#CC1=CC[C@@H](O)C1	
InChI=1S/C8H10O/c1-2-3-7-4-5-8(9)6-7/h4,8-9H,5-6H2,1H3	InChI=1S/C8H10O/c1-2-3-7-4-5-8(9)6-7/h4,8-9H,5-6H2,1H3/t8-/m1/s1
