16
gdb 55595	3.99075	0.78013	0.69283	1.5252	70.75	-0.2369	-0.043	0.1939	1562.7952	0.123133	-471.256409	-471.246935	-471.245991	-471.292251	33.417	
N	 1.220869693	-0.3529895516	-0.4049137999	-0.521597
C	 0.0345092694	 0.0810006844	 0.1007382125	 0.44053
N	-0.115147348	 1.2502094496	 0.5920083438	-0.551714
N	-1.0344843434	-0.8578263599	-0.0090638527	-0.385781
C	-0.9905713348	-2.1811472824	-0.3649823678	 0.427351
O	 0.0266369458	-2.790724044	-0.6530884912	-0.37577
C	-2.3383766089	-2.8917647552	-0.358266885	-0.396631
C	-2.2837929119	-4.1485854458	 0.5056771607	 0.16691
O	-3.1758524536	-4.4879009142	 1.2347157368	-0.228493
H	 2.0137029519	 0.2227508059	-0.1767412695	 0.264373
H	 1.3420432755	-1.3454666489	-0.5471899563	 0.284127
H	-1.0710345262	 1.4277106334	 0.8888489105	 0.204468
H	-1.9335069724	-0.4842227429	 0.250343458	 0.257723
H	-3.1811551948	-2.2734235664	-0.0419236483	 0.127562
H	-2.517368914	-3.2239101378	-1.389507799	 0.16952
H	-1.3468852678	-4.7304952343	 0.3949417675	 0.117424
31.8569	67.6384	102.6709	117.4759	197.1888	284.2377	346.7779	422.2228	449.9632	480.1182	490.7793	533.4797	586.8864	632.3728	723.8548	743.2568	764.1211	810.8772	921.5301	981.1729	1043.9588	1055.9715	1130.8758	1161.95	1162.598	1235.0337	1313.9401	1404.3987	1406.0364	1444.4352	1501.0903	1603.6035	1756.1318	1770.8065	1840.6794	2942.9664	3038.3747	3117.8164	3521.364	3555.1066	3642.5479	3710.9193
NC(=N)NC(=O)CC=O	NC(=N)NC(=O)CC=O	
InChI=1S/C4H7N3O2/c5-4(6)7-3(9)1-2-8/h2H,1H2,(H4,5,6,7,9)	InChI=1S/C4H7N3O2/c5-4(6)7-3(9)1-2-8/h2H,1H2,(H4,5,6,7,9)
