16
gdb 127202	3.04343	1.34944	0.99521	2.6915	68.58	-0.2223	-0.0077	0.2146	1151.8199	0.124417	-471.192832	-471.184093	-471.183149	-471.226548	31.274	
C	-0.5049399848	 1.203528164	 0.2927160486	-0.35291
N	-0.0437403561	-0.1644343698	 0.1467346033	-0.141219
C	 0.0496329169	-0.8222337044	-1.0715868574	 0.477923
N	-0.2431546644	-0.3322795338	-2.200893439	-0.613303
O	 0.5119530679	-2.0773347903	-0.7736053944	-0.247627
N	 0.7039653602	-2.1965959841	 0.6332726671	-0.191758
C	 0.3701429787	-1.042403365	 1.11048783	 0.369239
C	 0.4127552291	-0.7410135737	 2.5769235126	-0.191131
O	-0.8624248126	-0.3874996762	 3.0914500585	-0.401222
H	 0.32559853	 1.9139701404	 0.2224316983	 0.141493
H	-1.2014656458	 1.4067290237	-0.5224837921	 0.173932
H	-1.0059997818	 1.3099035449	 1.2553199109	 0.16334
H	-0.1070502961	-1.0132616368	-2.9431357996	 0.233967
H	 0.8485519054	-1.6105824337	 3.0825820368	 0.142213
H	 1.0598977335	 0.1217338898	 2.7649704637	 0.13806
H	-1.43602288	-1.1581119149	 3.0150893025	 0.299005
85.764	122.8445	127.4829	175.9681	217.0306	277.9935	305.5091	387.0911	420.4911	526.7531	606.0372	690.3358	724.69	737.9871	756.6035	806.9294	894.0021	973.4374	1005.2099	1033.9981	1068.3735	1162.7199	1201.0005	1221.134	1228.8177	1360.6579	1374.6362	1413.9196	1441.6655	1488.6398	1492.609	1501.0657	1532.303	1654.4797	1778.5616	3041.8299	3044.3175	3092.239	3121.8001	3163.9672	3543.6691	3808.3378
CN1C(=N)ON=C1CO	CN1[C@H]([NH])ON=C1CO	
InChI=1S/C4H7N3O2/c1-7-3(2-8)6-9-4(7)5/h5,8H,2H2,1H3	InChI=1S/C4H8N3O2/c1-7-3(2-8)6-9-4(7)5/h4-5,8H,2H2,1H3/t4-/m0/s1
