17
gdb 86922	3.20331	0.92712	0.79466	2.8469	71.14	-0.2514	-0.0434	0.208	1425.7903	0.132274	-458.970225	-458.960745	-458.959801	-459.006237	32.423	
C	 0.2636115715	 1.4617210065	-0.1839274965	-0.404097
C	-8.1542*^-6	-0.0042868248	 0.1032365643	 0.035883
O	 0.7443891466	-0.9210798263	-0.7441943357	-0.314336
C	 1.3378416585	-1.6396250811	 0.3627597767	-0.004018
C	 2.8663699643	-1.6795971223	 0.3242047651	-0.292771
C	 3.3700687337	-2.4539298643	-0.8799095009	 0.152743
O	 4.0822937407	-3.4217573252	-0.8110427036	-0.230992
C	 0.6748064411	-0.6419454398	 1.3286497489	 0.324105
O	 0.7200938841	-0.4207306601	 2.4987143514	-0.274316
H	 1.3309774043	 1.6901902096	-0.1224290892	 0.128304
H	-0.0905387419	 1.7200124778	-1.1859422979	 0.140104
H	-0.2699588929	 2.0814089869	 0.543104846	 0.141226
H	-1.0766311167	-0.2241530116	 0.0632299374	 0.113056
H	 0.9268100316	-2.6558492419	 0.4487727499	 0.120049
H	 3.2454853385	-0.651692394	 0.2593062012	 0.125046
H	 3.2500701329	-2.1450762982	 1.2363062993	 0.14011
H	 3.0211670381	-2.0583273412	-1.8577696464	 0.099905
43.0479	55.4873	83.2003	133.7164	193.4226	199.5489	253.5154	378.3811	394.7792	478.3566	529.63	602.9749	696.8707	824.419	843.4889	868.6418	882.8775	999.5409	1021.7126	1057.6809	1077.3907	1095.4537	1113.9439	1138.2557	1211.5568	1233.7005	1270.5306	1306.7686	1331.5072	1375.7852	1400.1227	1422.677	1450.3206	1480.9268	1493.6865	1832.3432	1922.1403	2908.256	3004.9542	3010.6731	3034.5824	3044.7694	3112.5365	3122.1219	3125.2742
CC1OC(CC=O)C1=O	C[C@H]1O[C@@H](CC=O)C1=O	
InChI=1S/C6H8O3/c1-4-6(8)5(9-4)2-3-7/h3-5H,2H2,1H3	InChI=1S/C6H8O3/c1-4-6(8)5(9-4)2-3-7/h3-5H,2H2,1H3/t4-,5+/m1/s1
