25
gdb 120743	3.04192	0.7619	0.68277	0.9862	90.9	-0.2484	0.0834	0.3318	1805.1882	0.22676	-389.473674	-389.46253	-389.461586	-389.510532	40.305	
C	-1.0541165844	 0.9640475518	 0.2646339797	-0.22462
O	-0.5539857984	-0.3471967012	 0.1852738437	-0.229934
C	-0.0529763474	-0.816568024	 1.4227673658	-0.078477
C	 0.409125518	-2.2375531051	 1.240992599	-0.030674
C	 1.77451842	-2.5311130964	 0.6670169712	-0.302948
C	 1.4759260047	-2.8790227651	 2.1035279819	 0.015701
C	 2.1785611944	-2.1834562624	 3.2590830632	 0.018707
C	 1.3216005802	-2.2184194417	 4.533437913	-0.387678
C	 3.5562225493	-2.8173628974	 3.5049214401	-0.384998
H	-0.2749105344	 1.6845560676	 0.5632050098	 0.099367
H	-1.4221890782	 1.2364179975	-0.7277576064	 0.124911
H	-1.8842197069	 1.0454009518	 0.9854329801	 0.099998
H	 0.7716884785	-0.1698020411	 1.7645985825	 0.082163
H	-0.8442854414	-0.7594975654	 2.1912631753	 0.082045
H	-0.3927000409	-2.8975008715	 0.9210262943	 0.087324
H	 1.8761745995	-3.3248624454	-0.0646512975	 0.108571
H	 2.4222369361	-1.6777931025	 0.4867431161	 0.108807
H	 1.3064758066	-3.9373050333	 2.2981597982	 0.076711
H	 2.3426677964	-1.132677976	 2.9872408714	 0.069257
H	 0.3520833092	-1.7348867046	 4.3787868414	 0.114506
H	 1.130564709	-3.2524274145	 4.8449286165	 0.11135
H	 1.8250770747	-1.7110666712	 5.3632951715	 0.108039
H	 4.1807679402	-2.7686094866	 2.6076362861	 0.114908
H	 4.0860803544	-2.3091649277	 4.3174895992	 0.106791
H	 3.455655171	-3.8732565357	 3.7836549638	 0.110173
55.8241	75.8456	86.4923	112.9577	179.6317	226.0771	234.2702	245.9184	264.5399	308.1362	338.383	378.4495	441.1124	486.2866	573.0809	755.4298	830.9451	865.3329	904.0552	922.0183	928.8125	955.3467	976.8115	1001.4752	1039.1746	1063.8371	1068.1322	1133.2602	1146.8759	1153.1968	1176.4571	1186.5713	1197.8585	1209.1218	1229.4029	1253.1572	1279.8831	1316.3526	1343.453	1375.6486	1398.6418	1414.242	1425.6896	1448.0143	1480.5877	1485.1491	1486.4575	1491.3177	1494.8921	1502.8829	1504.1167	1511.7139	1526.0896	2942.0671	2963.1846	2978.2357	3002.502	3019.2319	3023.9964	3028.4278	3087.8327	3093.9201	3102.6118	3105.0252	3110.4991	3111.1989	3124.7107	3144.0483	3209.3388
COCC1CC1C(C)C	COC[C@H]1C[C@H]1C(C)C	
InChI=1S/C8H16O/c1-6(2)8-4-7(8)5-9-3/h6-8H,4-5H2,1-3H3	InChI=1S/C8H16O/c1-6(2)8-4-7(8)5-9-3/h6-8H,4-5H2,1-3H3/t7-,8+/m1/s1
