15
gdb 27101	3.25172	1.1789	0.90545	2.6105	69.35	-0.2303	-0.0142	0.2161	1220.9142	0.112463	-454.00214	-453.993707	-453.992763	-454.036104	29.564	
C	-0.248417053	 1.3506819532	-0.3348943639	-0.49928
C	-0.0461707335	-0.1172764953	-0.1518113555	 0.192236
C	 0.3272660304	-1.0588603747	-1.0740177921	 0.279385
N	 0.4013921757	-2.2653570018	-0.4122435324	-0.301795
C	 0.0744857503	-2.0054094309	 0.8858000278	 0.013208
N	-0.2045495023	-0.7382835733	 1.0731690589	-0.302298
O	 0.6537990598	-0.9912998157	-2.4012450024	-0.218485
C	-0.3633159241	-0.7215877233	-3.281880693	 0.156168
O	-0.1667601179	-0.6026774547	-4.4474520446	-0.248679
H	 0.3623461017	 1.9119870324	 0.3790598919	 0.144816
H	 0.0310447167	 1.6669519975	-1.3436675509	 0.126241
H	-1.291707867	 1.635851678	-0.1622505788	 0.13771
H	 0.6849486528	-3.1413279811	-0.819369428	 0.277868
H	 0.0600829931	-2.7770878257	 1.6407828425	 0.138384
H	-1.3354537828	-0.6321146646	-2.7660628894	 0.104521
54.6085	110.2352	130.8356	157.9315	249.3483	267.3799	407.1787	431.6286	498.6514	509.2991	672.3157	685.7433	700.9244	809.9169	850.0871	952.6874	983.9051	1043.0157	1065.5571	1097.4589	1108.8641	1170.4381	1263.6	1291.3527	1383.9254	1399.265	1418.0226	1463.6952	1476.3983	1493.9764	1527.3313	1647.844	1883.4799	2992.8729	3037.74	3095.3972	3118.1835	3253.1532	3661.4534
CC1=C(NC=N1)OC=O	Cc1c([nH]cn1)OC=O	
InChI=1S/C5H6N2O2/c1-4-5(9-3-8)7-2-6-4/h2-3H,1H3,(H,6,7)	InChI=1S/C5H6N2O2/c1-4-5(9-3-8)7-2-6-4/h2-3H,1H3,(H,6,7)
