19
gdb 82989	3.72156	1.56542	1.45987	1.8972	73.6	-0.2259	0.0857	0.3116	965.1169	0.161839	-423.007921	-423.001082	-423.000138	-423.038822	28.263	
C	-0.1358890127	 1.5936834961	-0.0383562499	-0.42464
C	 0.0314887811	 0.0848856904	 0.0108929418	 0.011244
C	 1.1957281759	-0.5905167971	-0.7625575269	 0.025796
O	 2.3541932762	 0.1011033077	-0.2643278569	-0.280975
C	 2.2076431542	-0.139852359	 1.1581743946	 0.050539
C	 2.9955801485	-1.4204533517	 1.420706981	-0.073934
O	 2.2811167012	-2.3998082358	 0.6452176349	-0.282048
C	 1.0787975915	-1.7849728485	 0.2505979993	 0.137749
C	 0.7284577531	-0.6129644744	 1.2101376854	-0.13094
H	 0.8290960137	 2.0975838948	 0.0551105242	 0.13318
H	-0.5863959522	 1.9055842958	-0.9868603605	 0.115888
H	-0.7894333418	 1.943723073	 0.7678874922	 0.113786
H	-0.9137672837	-0.4261984937	-0.2013467204	 0.076895
H	 1.2502717503	-0.6844079677	-1.8461424513	 0.077928
H	 2.5012618761	 0.7382910591	 1.7341132962	 0.081844
H	 4.0224361825	-1.3410618679	 1.052435857	 0.116017
H	 3.0092989556	-1.7111239639	 2.4819748427	 0.089134
H	 0.3142498188	-2.5303280432	 0.0377004239	 0.089421
H	 0.2713286517	-0.7512864041	 2.1889813328	 0.073115
187.0576	209.3457	235.5866	274.5663	415.683	473.7368	546.4579	648.7548	713.7683	758.9503	762.8269	825.038	856.2363	871.0982	925.5075	935.4761	950.9745	965.1747	993.4159	1027.3758	1041.6737	1062.2463	1083.8534	1103.3925	1107.5256	1152.5996	1177.3756	1196.288	1205.1747	1232.9054	1253.4093	1284.1505	1289.6301	1324.4459	1346.3403	1379.3814	1401.1198	1414.1215	1492.1561	1504.6971	1507.1864	2992.5007	3035.2944	3053.6713	3085.9758	3093.7713	3113.5713	3125.3474	3127.3473	3132.5113	3142.4648
CC1C2OC3COC2C13	C[C@H]1[C@H]2O[C@@H]3CO[C@H]2[C@H]13	
InChI=1S/C7H10O2/c1-3-5-4-2-8-7(5)6(3)9-4/h3-7H,2H2,1H3	InChI=1S/C7H10O2/c1-3-5-4-2-8-7(5)6(3)9-4/h3-7H,2H2,1H3/t3-,4-,5-,6-,7+/m1/s1
