25
gdb 75598	2.13356	1.45176	1.02052	0.2623	94.76	-0.2239	0.0305	0.2544	1311.8355	0.231427	-352.379884	-352.370678	-352.369734	-352.413202	36.737	
C	 0.0928811912	 1.5491058815	-0.0411540462	-0.477166
C	 0.0770142005	 0.0435805985	 0.0140328631	 0.34313
C	 0.0398173329	-0.7023066429	-1.0949592375	-0.145597
C	 0.003246216	-2.2108609732	-1.1542047613	-0.24938
C	-1.3914308838	-2.8463466722	-0.9526692342	-0.17362
C	-1.9734903635	-2.8150925771	 0.4743181317	-0.182075
C	-2.3924387224	-1.4306179525	 1.0228379375	-0.172667
C	-1.3849851809	-0.7352103591	 1.9547483581	-0.187555
C	 0.0462950688	-0.5767730433	 1.3906763472	-0.291852
H	 0.9965618623	 1.9511335191	 0.4358346459	 0.119311
H	 0.0584780601	 1.9189001394	-1.0695827802	 0.116402
H	-0.7584539988	 1.9803081094	 0.5017530649	 0.120864
H	 0.0125569414	-0.1904685996	-2.0560838721	 0.070665
H	 0.3788307617	-2.5281292016	-2.1338868374	 0.091818
H	 0.6919213961	-2.6429609875	-0.4162651899	 0.099967
H	-2.1045552408	-2.3686128467	-1.6376345169	 0.092918
H	-1.3278919064	-3.8968514538	-1.2648862768	 0.086775
H	-2.857384105	-3.4639343693	 0.4668777585	 0.091626
H	-1.2678128553	-3.294222299	 1.1674179197	 0.088458
H	-2.6271368498	-0.7690736207	 0.1814291511	 0.097624
H	-3.3266137197	-1.5404147614	 1.5863539707	 0.087098
H	-1.7850636986	 0.2522324828	 2.2180104993	 0.092635
H	-1.3163780183	-1.2944825633	 2.8968151508	 0.09163
H	 0.524406332	-1.561274031	 1.3663768685	 0.100741
H	 0.6302122604	 0.0320225133	 2.0920669154	 0.088248
114.5379	161.3165	168.5083	204.3168	244.1679	277.4778	335.3203	356.6168	388.8586	450.6395	477.8096	537.0048	602.648	712.8271	756.3405	789.8867	835.4015	848.8056	887.1965	919.7302	940.9416	970.4204	1006.9021	1026.7563	1055.2914	1062.8694	1084.0076	1111.0902	1120.0626	1166.4984	1183.7083	1202.5533	1260.0726	1278.2283	1291.1148	1309.8397	1339.6532	1359.2982	1366.4766	1376.1479	1386.6686	1396.4599	1400.423	1413.0554	1475.9436	1480.2899	1482.9547	1486.6249	1487.1337	1493.151	1495.0608	1510.6435	1733.1749	3007.6238	3010.366	3010.9243	3012.656	3015.2241	3026.3489	3032.2669	3044.0778	3049.6112	3052.6932	3055.747	3057.9128	3069.6582	3078.7268	3107.7888	3130.2984
CC1=CCCCCCC1	CC1=CCCCCCC1	
InChI=1S/C9H16/c1-9-7-5-3-2-4-6-8-9/h7H,2-6,8H2,1H3/b9-7-	InChI=1S/C9H16/c1-9-7-5-3-2-4-6-8-9/h7H,2-6,8H2,1H3/b9-7-
