21
gdb 75448	2.15938	1.51594	1.22253	0.5558	90.4	-0.2333	0.0242	0.2575	1165.9618	0.180907	-349.946838	-349.937184	-349.93624	-349.980697	36.961	
C	-0.5095768976	 1.4115471252	-0.0038706617	-0.500796
C	-0.1306205336	-0.0347781557	-0.0450758961	 0.317543
C	 0.2304094851	-0.7488173617	-1.1114242137	-0.176111
C	 0.5752009959	-2.1786102934	-0.7819879584	-0.264821
C	 0.0314491438	-2.337076651	 0.6566037597	-0.246663
C	-0.0553282578	-0.8860002735	 1.2347033673	 0.026821
C	 1.2182488175	-0.5248094896	 2.0417142268	-0.426764
C	-1.2320705267	-0.713851127	 2.0879327226	 0.309635
C	-2.1947151056	-0.5707934115	 2.7951646007	-0.485112
H	 0.1808147999	 1.9919017672	 0.6211847009	 0.125217
H	-0.5057308869	 1.8502014663	-1.0051439838	 0.120575
H	-1.5070385696	 1.5419833212	 0.4308396954	 0.139159
H	 0.3094393785	-0.3441177171	-2.1155387348	 0.085913
H	 0.1236763942	-2.8988770639	-1.4734922296	 0.103535
H	 1.6606693751	-2.3446843982	-0.8351873743	 0.10462
H	-0.9742857643	-2.7628093628	 0.6230081844	 0.114702
H	 0.6440364766	-2.9870800413	 1.2869235748	 0.099365
H	 2.1103108045	-0.6917492639	 1.4301169122	 0.116933
H	 1.2052426734	 0.523107045	 2.353498055	 0.122818
H	 1.2877962711	-1.1426068382	 2.9416534748	 0.123111
H	-3.0470215235	-0.4488131161	 3.4165386678	 0.190322
86.6198	137.2102	159.0535	181.7954	230.3022	248.5816	267.0451	313.6612	357.3631	488.8455	510.4858	556.2089	592.539	617.5565	626.5649	644.366	702.1991	809.6863	860.0273	915.2319	930.1199	939.3106	975.1192	1006.4625	1040.0779	1065.5373	1094.2252	1123.2375	1172.7614	1217.4641	1226.2478	1240.1509	1303.9103	1321.3768	1347.8199	1402.5311	1413.8604	1474.1334	1483.702	1486.5326	1489.6931	1499.3547	1501.7556	1724.8123	2227.0449	3005.5125	3022.9457	3038.3739	3050.9209	3066.1425	3074.2472	3110.1315	3113.7853	3114.4265	3118.1424	3179.9072	3502.0346
CC1=CCCC1(C)C#C	CC1=CCC[C@]1(C)C#C	
InChI=1S/C9H12/c1-4-9(3)7-5-6-8(9)2/h1,6H,5,7H2,2-3H3	InChI=1S/C9H12/c1-4-9(3)7-5-6-8(9)2/h1,6H,5,7H2,2-3H3/t9-/m0/s1
