15
gdb 5191	5.79812	1.17481	1.06675	3.7926	68.67	-0.2115	-0.0109	0.2007	1074.1275	0.119557	-362.707475	-362.700008	-362.699063	-362.740998	26.694	
O	 0.1066090336	-0.1817854611	-0.1910872947	-0.244444
C	 0.0697429928	 1.021094996	-0.1657829167	 0.166358
C	 1.285521732	 1.9265434831	-0.0466812358	-0.38581
C	 1.3067241958	 2.938009056	-1.1597125511	 0.244406
C	 1.7135026044	 2.7081704086	-2.4586950868	-0.164392
N	 1.5345810522	 3.8661558908	-3.1685495041	-0.226407
C	 1.0139829135	 4.8379503752	-2.3538440739	-0.070972
C	 0.8587525127	 4.2910778466	-1.1021603462	-0.243899
H	-0.894255772	 1.5732487666	-0.2522032585	 0.074871
H	 1.2216900251	 2.4439392564	 0.9198052293	 0.120629
H	 2.1787808667	 1.2956731666	-0.0321085086	 0.121744
H	 2.1166287835	 1.8226985268	-2.923922036	 0.126911
H	 1.7615429589	 3.9867645348	-4.1399095345	 0.264903
H	 0.808413492	 5.8275034539	-2.7285734378	 0.122074
H	 0.4753920589	 4.8005030396	-0.2306870746	 0.094029
23.6165	58.7581	158.2888	308.9681	360.1008	456.1041	495.676	642.0669	649.18	682.889	698.771	775.2571	816.7997	829.9279	905.0395	968.5275	1013.751	1059.6066	1084.5705	1096.3951	1164.7779	1186.9604	1266.4777	1294.7147	1315.9733	1414.8293	1421.0169	1457.7896	1464.648	1522.1548	1600.7975	1830.5556	2870.3037	3026.7765	3096.6905	3241.6529	3261.8216	3271.6414	3685.5822
O=CCC1=CNC=C1	O=CCc1c[nH]cc1	
InChI=1S/C6H7NO/c8-4-2-6-1-3-7-5-6/h1,3-5,7H,2H2	InChI=1S/C6H7NO/c8-4-2-6-1-3-7-5-6/h1,3-5,7H,2H2
