16
gdb 131050	3.77153	1.15263	0.94273	4.9893	71.2	-0.2376	0.0057	0.2434	1200.9322	0.127361	-434.114925	-434.107016	-434.106072	-434.147991	28.753	
O	 0.9802708419	 1.1791243748	 1.5036321505	-0.338754
C	 0.4359783408	 1.4870819511	 0.4572538282	 0.16351
N	 1.036262064	 1.4647518844	-0.7540420303	-0.254334
C	 2.4336569087	 1.0500441548	-0.9158415988	-0.309954
C	 3.4364849828	 2.0601775974	-0.448975809	 0.378154
C	 4.3976290536	 2.7931396523	-1.1200026516	-0.310367
C	 5.0316541534	 3.55262327	-0.1141736348	-0.005264
N	 4.5082494123	 3.3179993214	 1.0870988632	-0.223778
N	 3.5506777972	 2.4043075647	 0.8594191185	-0.23098
H	-0.6211373197	 1.8073975625	 0.4042835614	 0.095253
H	 0.5372628163	 1.8301378979	-1.5490016925	 0.258837
H	 2.5582437037	 0.1115142709	-0.3653088642	 0.150003
H	 2.597672358	 0.8394522933	-1.9740377776	 0.12957
H	 4.6101089635	 2.7725369663	-2.1771433667	 0.097237
H	 5.8446243099	 4.2565574009	-0.2154267156	 0.109013
H	 2.9512270137	 2.0701801173	 1.6022204793	 0.291853
77.906	115.1454	135.02	227.8431	260.502	327.63	421.1286	499.0788	631.3715	656.6312	726.1653	738.8984	794.0796	813.6407	888.7191	940.0295	942.5015	1001.788	1032.4879	1043.3266	1062.5309	1134.9579	1206.4963	1247.4953	1276.5713	1315.2535	1377.8987	1382.5433	1423.3154	1447.5292	1465.1008	1489.3811	1521.7396	1603.6081	1779.8941	2965.3912	3055.1828	3122.8735	3242.6979	3263.9765	3603.7368	3642.7544
O=CNCC1=CC=NN1	O=CNCc1ccn[nH]1	
InChI=1S/C5H7N3O/c9-4-6-3-5-1-2-7-8-5/h1-2,4H,3H2,(H,6,9)(H,7,8)	InChI=1S/C5H7N3O/c9-4-6-3-5-1-2-7-8-5/h1-2,4H,3H2,(H,6,9)(H,7,8)
