19
gdb 35573	2.6378	1.59635	1.30984	3.3542	78.24	-0.2297	0.0127	0.2424	1035.8357	0.162458	-382.07355	-382.065933	-382.064989	-382.105869	29.68	
N	-0.6501490766	-0.9560573338	-0.8922746054	-0.338853
C	-0.4153273668	 0.1054574454	-0.4968770693	 0.276714
C	-0.108925076	 1.4459154545	-0.0018089748	-0.095339
C	-0.1579953843	 1.6247843668	 1.5454141663	-0.275535
C	 1.33915084	 2.0126449096	 1.4766708007	 0.046304
C	 2.3734082856	 1.0034054041	 2.0120243074	-0.22773
C	 2.5781732486	 0.0130839452	 0.8476913362	-0.227085
C	 2.3481471732	 0.8965425044	-0.3971247672	-0.178402
N	 1.3243024896	 1.8828506518	-0.0230894798	-0.108696
H	-0.7395172146	 2.1512622118	-0.5544093812	 0.128051
H	-0.837572566	 2.4086939982	 1.8819460971	 0.119991
H	-0.369988806	 0.7065253802	 2.0956846854	 0.126465
H	 1.5549182859	 3.0318387136	 1.8094667526	 0.080907
H	 3.3105618665	 1.5235528584	 2.2372593725	 0.106759
H	 2.0395789621	 0.5207888087	 2.9350670496	 0.106483
H	 3.5659452037	-0.4547932993	 0.8596173716	 0.103378
H	 1.8345566261	-0.789682995	 0.8810172264	 0.123797
H	 3.2640454043	 1.4413722618	-0.6564586575	 0.105256
H	 2.0383122945	 0.3325213637	-1.2802247905	 0.127537
70.2543	145.367	210.0086	235.2269	350.3863	377.7117	514.9535	558.4721	603.9341	636.7994	679.5842	774.718	799.547	872.044	879.4919	904.1283	923.131	975.228	985.2903	1013.2628	1033.9227	1080.231	1103.1387	1145.4808	1155.6309	1186.7377	1206.383	1246.5738	1262.4105	1266.0491	1299.3467	1321.4684	1328.3478	1343.6233	1355.6244	1376.9562	1482.5983	1489.1599	1496.8852	1513.212	2343.0509	3030.5371	3039.9488	3044.0779	3058.738	3062.1442	3081.0968	3092.6131	3103.7311	3112.0799	3139.566
N#CC1CC2CCCN12	N#C[C@H]1C[C@H]2CCCN12	
InChI=1S/C7H10N2/c8-5-7-4-6-2-1-3-9(6)7/h6-7H,1-4H2	InChI=1S/C7H10N2/c8-5-7-4-6-2-1-3-9(6)7/h6-7H,1-4H2/t6-,7-/m1/s1
