18
gdb 53616	5.20804	0.71973	0.65833	1.2994	81.6	-0.2384	0.0211	0.2595	1696.9698	0.147386	-401.93913	-401.929735	-401.92879	-401.97598	32.037	
C	 0.0833085989	 1.5188619706	-0.0731873787	-0.497506
C	 0.0401083167	 0.0640574724	-0.0448319108	 0.101105
C	 0.0035090991	-1.1384071757	-0.0097800173	 0.051908
C	-0.0556733803	-2.593616383	 0.0139096435	-0.363974
C	-1.4921483852	-3.1573315373	 0.0227476496	 0.017832
C	-1.5313304066	-4.7089567749	-0.0633910047	-0.126468
O	-2.2675451739	-5.1141877277	 1.1150708686	-0.219692
C	-2.5483030165	-3.9614777299	 1.7700003595	 0.122737
N	-2.1899323069	-2.8484035488	 1.2855886134	-0.258009
H	 0.8752876702	 1.9059542312	 0.5776398025	 0.146245
H	 0.2730950554	 1.8956548466	-1.0844947565	 0.143401
H	-0.8643446735	 1.9495355207	 0.2687174813	 0.150146
H	 0.4646069714	-2.9998149096	-0.8647925443	 0.122702
H	 0.4722954427	-2.9835943625	 0.8941658506	 0.128392
H	-2.0455034327	-2.6961918289	-0.8020755155	 0.100496
H	-2.057715871	-5.0878737545	-0.9425592719	 0.121849
H	-0.5370027686	-5.1661035344	-0.0180046105	 0.11659
H	-3.0857862491	-4.0999260143	 2.7017523714	 0.142246
18.7605	48.4878	70.5782	97.5997	213.1647	250.5262	315.5863	348.8755	383.8686	455.3286	587.7325	727.7417	772.947	827.8139	877.5849	914.0098	964.2239	968.4509	1031.3053	1041.8145	1052.8102	1056.0937	1108.9559	1131.7145	1173.4311	1212.3011	1241.1245	1297.7925	1318.186	1331.014	1374.2567	1381.2383	1414.6306	1465.8543	1478.5598	1479.2302	1516.5225	1707.8727	2377.9455	3006.5238	3025.7118	3036.5201	3045.3716	3054.6516	3084.886	3087.1456	3102.7318	3215.6787
CC#CCC1COC=N1	CC#CC[C@H]1COC=N1	
InChI=1S/C7H9NO/c1-2-3-4-7-5-9-6-8-7/h6-7H,4-5H2,1H3	InChI=1S/C7H9NO/c1-2-3-4-7-5-9-6-8-7/h6-7H,4-5H2,1H3/t7-/m0/s1
