18
gdb 44576	3.02348	1.57627	1.41098	3.7265	74.01	-0.2435	0.0286	0.2721	976.8316	0.150751	-401.970038	-401.96301	-401.962066	-402.001547	28.411	
O	-0.2613464145	 0.1095230978	 0.4341102773	-0.363742
C	-0.1273463691	 1.2702387345	 0.1528114426	 0.398502
N	-1.0213628945	 2.2577249081	-0.2031679579	-0.315537
C	-0.0396692087	 3.3578626172	-0.1614996377	-0.00388
C	-0.0038562907	 4.2454344146	 1.0772783656	-0.04509
C	-0.2799371415	 3.5920542116	 2.4114434045	-0.300555
C	 1.1421605037	 3.7909118222	 1.9690573084	-0.023039
C	 1.8663187568	 2.6145012674	 1.3131415829	-0.25574
C	 1.0606838778	 2.2645111961	 0.0484697961	-0.169169
H	-2.0279197091	 2.2739682347	-0.1145813028	 0.245653
H	-0.0067276108	 3.9387144049	-1.0861742804	 0.083137
H	-0.2365732047	 5.297382703	 0.9583043115	 0.08426
H	-0.651927809	 4.230292579	 3.205554319	 0.113163
H	-0.6909636824	 2.5877407237	 2.4256970354	 0.130461
H	 1.7429724287	 4.5175442587	 2.5053721674	 0.086668
H	 2.8814730617	 2.9162604472	 1.0366449738	 0.106104
H	 1.9597290659	 1.7510459797	 1.9806627041	 0.125171
H	 1.6875747205	 2.0526802896	-0.8193916399	 0.103634
82.2013	188.1971	248.8361	356.6086	409.3381	478.0091	531.268	630.5329	645.1396	702.2904	757.5216	796.6299	811.4046	842.3114	856.8001	907.9424	936.7616	980.9585	999.78	1025.9896	1061.1154	1072.0576	1078.5031	1109.8431	1114.2036	1158.7578	1173.2339	1200.1542	1220.6825	1260.9154	1276.9543	1325.2207	1349.906	1355.595	1366.1154	1397.0153	1488.3076	1499.6944	1887.0888	3045.4827	3079.0313	3081.3636	3103.9926	3131.7973	3162.9911	3174.9379	3215.2283	3593.3414
O=C1NC2C3CC3CC12	O=C1N[C@H]2[C@H]3C[C@H]3C[C@@H]12	
InChI=1S/C7H9NO/c9-7-5-2-3-1-4(3)6(5)8-7/h3-6H,1-2H2,(H,8,9)	InChI=1S/C7H9NO/c9-7-5-2-3-1-4(3)6(5)8-7/h3-6H,1-2H2,(H,8,9)/t3-,4-,5+,6-/m0/s1
