17
gdb 97335	3.70938	0.80481	0.69493	1.5385	77.3	-0.2516	-0.0242	0.2274	1615.4407	0.134892	-455.154021	-455.144848	-455.143904	-455.188719	32.183	
C	-0.5493080628	 1.6991005381	-0.2750390664	-0.312442
N	-0.3848671974	 0.3652942418	-0.8153022383	-0.232693
C	-0.2314763372	-0.5821545343	 0.0078030983	 0.118744
N	-0.0682869964	-1.8868422121	-0.4377576141	-0.350716
C	 0.1344397709	-2.9598772335	 0.395007013	 0.393745
O	 0.2107253821	-2.8942259764	 1.6047030269	-0.362486
C	 0.240057125	-4.277263889	-0.3323199953	-0.027819
C	-0.8859927508	-4.7776448407	-1.1414257093	-0.168091
O	 0.2822291744	-4.2395939469	-1.7605892943	-0.232743
H	-0.5205810153	 1.7419501653	 0.8250073697	 0.10437
H	 0.2379303311	 2.3523746878	-0.6686251103	 0.130833
H	-1.5045814866	 2.1161129524	-0.6143427431	 0.129548
H	-0.2108805649	-0.4972089994	 1.098612044	 0.130125
H	-0.0384061552	-2.0497979483	-1.4361556991	 0.27584
H	 0.9033543178	-4.991884546	 0.148653614	 0.131683
H	-1.0217021154	-5.8513522475	-1.2521535826	 0.137908
H	-1.7861140193	-4.1733691614	-1.235318443	 0.134195
77.2401	104.8149	117.8341	142.7099	215.2954	222.8515	265.6263	363.0539	363.6149	463.4669	522.119	641.2954	721.5791	748.9324	864.1066	881.7058	943.8599	1008.5463	1011.4765	1067.8072	1087.0155	1143.1224	1148.9271	1152.3282	1165.8443	1218.2804	1250.5429	1264.1631	1365.237	1392.2869	1446.3789	1480.2051	1495.8869	1517.1683	1528.8999	1760.6586	1799.707	2979.6539	3062.3269	3077.4268	3090.8726	3097.195	3155.6467	3191.7583	3591.3014
CN=CNC(=O)C1CO1	CN=CNC(=O)[C@H]1CO1	
InChI=1S/C5H8N2O2/c1-6-3-7-5(8)4-2-9-4/h3-4H,2H2,1H3,(H,6,7,8)	InChI=1S/C5H8N2O2/c1-6-3-7-5(8)4-2-9-4/h3-4H,2H2,1H3,(H,6,7,8)/t4-/m1/s1
