15
gdb 54558	3.20003	1.56134	1.19627	2.598	65.67	-0.2417	-0.0383	0.2034	1008.1242	0.108958	-457.654277	-457.646405	-457.645461	-457.688794	28.751	
C	-0.1065641439	 1.4421253454	-0.4107952379	-0.489386
C	-0.023190515	 0.0374638341	 0.1386579027	 0.239239
O	 0.988911695	-0.4697605941	 0.5611578676	-0.290649
C	-1.3090002603	-0.7432461856	 0.1330776641	 0.337288
O	-2.5632112013	-0.1075394567	-0.2486762562	-0.348069
C	-2.9799925346	-1.4697277696	 0.0361668013	 0.020783
C	-1.6818166591	-2.1307821257	-0.5233622661	 0.017758
O	-1.4217512294	-2.9086790079	 0.6690706012	-0.309352
C	-1.9712086068	-1.6796689407	 1.2097962577	 0.015537
H	 0.8761214288	 1.9126643681	-0.3702891301	 0.14315
H	-0.4793347537	 1.4210144179	-1.4407542962	 0.152942
H	-0.8346730084	 2.0239547454	 0.1649224015	 0.156885
H	-4.0302086432	-1.7373806835	-0.0696217376	 0.115358
H	-1.4319112476	-2.5417652139	-1.5006393531	 0.118996
H	-2.0658751605	-1.5621482033	 2.288273171	 0.119519
9.4346	124.6145	145.6705	193.3342	305.1912	439.19	516.4853	548.0486	573.7813	633.736	748.3661	772.7603	796.9322	817.9504	876.6503	897.0333	910.7613	958.3381	1021.8732	1041.1539	1066.9246	1085.2304	1127.3309	1155.2354	1157.6093	1162.267	1250.2496	1300.7873	1359.3794	1386.5794	1454.7275	1462.5925	1809.5388	3040.9502	3101.7374	3130.2897	3136.6627	3149.0382	3158.5501
CC(=O)C12OC3C1OC23	CC(=O)[C@@]12O[C@H]3[C@@H]1O[C@@H]23	
InChI=1S/C6H6O3/c1-2(7)6-4-3(9-6)5(6)8-4/h3-5H,1H3	InChI=1S/C6H6O3/c1-2(7)6-4-3(9-6)5(6)8-4/h3-5H,1H3/t3-,4-,5+,6+
