18
gdb 83145	2.05378	1.89213	1.48692	3.5525	72.09	-0.2457	0.	0.2457	997.9226	0.147472	-439.102925	-439.094494	-439.09355	-439.135603	31.64	
C	-0.2253760491	 1.49002479	 0.0492975296	-0.341418
N	 0.0598391525	 0.0577148649	 0.0720181942	-0.121454
C	 1.3476509042	-0.4780307035	-0.3195643192	-0.108214
C	 2.541702287	 0.4583206533	-0.3255322348	-0.120081
O	 2.6311417105	 1.0136767563	 0.9977565467	-0.226684
C	 1.7963341505	 0.3656819809	 1.8653731068	 0.404945
O	 1.8229629665	 0.5643643408	 3.0456214018	-0.339274
C	 0.891189546	-0.5740537295	 1.1041316049	 0.16075
C	 0.3518995816	-1.774970317	 1.8314014671	-0.47596
H	 0.6149122617	 2.1440522058	 0.3174611515	 0.132128
H	-0.5630734584	 1.752990068	-0.957812046	 0.128702
H	-1.0476534904	 1.6872271541	 0.7424685497	 0.139152
H	 1.3415657538	-1.3208731548	-1.0048561986	 0.107735
H	 3.4678206609	-0.0838177558	-0.5446273953	 0.128648
H	 2.4468315081	 1.2881516696	-1.0330727345	 0.128104
H	-0.2055235397	-1.4561534198	 2.7171391171	 0.144764
H	-0.3169778576	-2.3380000309	 1.1773646748	 0.130319
H	 1.1620302017	-2.4296570825	 2.1671865643	 0.127837
126.0203	163.3335	189.6571	221.7089	237.4451	256.7238	272.3976	404.3638	497.7794	508.5249	589.1119	688.6142	708.0406	780.6487	798.3135	833.5597	925.1883	978.7171	1009.906	1059.477	1086.0897	1102.2938	1111.5301	1161.5153	1167.8958	1186.2798	1233.216	1282.9731	1308.4863	1377.4563	1409.0037	1432.1032	1464.6712	1482.017	1492.7017	1497.808	1503.0124	1517.159	1872.2393	3012.9112	3045.2829	3046.3746	3085.5751	3087.6217	3112.3913	3115.0843	3136.88	3152.525
CN1C2COC(=O)C12C	CN1[C@H]2COC(=O)[C@@]12C	
InChI=1S/C6H9NO2/c1-6-4(7(6)2)3-9-5(6)8/h4H,3H2,1-2H3	InChI=1S/C6H9NO2/c1-6-4(7(6)2)3-9-5(6)8/h4H,3H2,1-2H3/t4-,6-,7?/m0/s1
