16
gdb 83500	3.03164	1.53583	1.49184	2.9642	63.37	-0.2431	0.0015	0.2446	931.2874	0.127681	-475.051227	-475.044449	-475.043504	-475.082243	27.263	
O	 0.058902727	 1.3829423881	 0.1090119075	-0.452202
C	 0.0226295886	-0.0091487212	 0.0007946781	 0.161541
C	-1.3440116267	-0.6215075991	-0.4119647537	 0.049444
C	-1.5477143973	-0.022742569	-1.8095845158	-0.197371
N	-0.141610635	 0.0836462715	-2.2975784604	-0.333898
C	 0.6882375892	-0.5880424211	-1.2612097791	-0.204599
C	 0.2565135332	-2.0482660195	-1.1483670805	 0.448918
O	 0.7995625045	-3.0597606683	-1.4798585456	-0.347301
O	-1.0038201828	-2.0154685187	-0.5967066029	-0.23609
H	 0.1120861031	 1.7277888926	-0.7938307102	 0.300302
H	 0.3940287319	-0.4465163195	 0.9301514336	 0.110468
H	-2.175716751	-0.5455437357	 0.2845676384	 0.104314
H	-2.1684738203	-0.6826193429	-2.4223997799	 0.12606
H	-2.0192434592	 0.9645667705	-1.7635957467	 0.120041
H	-0.013832753	-0.3340467867	-3.2114153209	 0.244646
H	 1.7546320678	-0.437734631	-1.4123682219	 0.105726
151.7007	236.0056	268.8506	313.0251	416.5743	467.1041	523.3798	556.8828	617.1714	702.2538	748.8172	824.594	832.0616	875.8312	895.1492	942.7377	944.7078	977.1599	1031.3137	1045.0149	1077.0504	1123.6358	1155.2226	1194.6263	1200.4005	1233.4851	1270.7322	1290.6621	1315.0974	1345.0193	1366.8669	1404.722	1444.4508	1509.2585	1892.9016	3044.7218	3093.0838	3102.3807	3154.4803	3157.3838	3558.473	3740.4879
OC1C2CNC1C(=O)O2	O[C@H]1[C@H]2CN[C@@H]1C(=O)O2	
InChI=1S/C5H7NO3/c7-4-2-1-6-3(4)5(8)9-2/h2-4,6-7H,1H2	InChI=1S/C5H7NO3/c7-4-2-1-6-3(4)5(8)9-2/h2-4,6-7H,1H2/t2-,3+,4+/m1/s1
