17
gdb 43013	2.34833	2.02118	1.3781	3.4749	73.08	-0.2329	-0.0253	0.2075	953.6899	0.138732	-417.974681	-417.967721	-417.966777	-418.005881	27.957	
O	-0.0229266129	 0.6650337323	-1.3549823731	-0.339403
C	-0.0464857192	 1.3169706215	-0.3312482846	 0.444176
C	-1.3384693424	 1.7514401518	 0.2801161088	-0.138514
C	-1.5843796524	 1.6081163169	 1.760996623	-0.25117
N	-1.4020584141	 2.9198985684	 1.1736607018	-0.106473
C	-0.1825896556	 3.6882468041	 1.4326432175	-0.16746
C	 1.1590114761	 3.0222805959	 1.1743325424	-0.024524
N	 1.3803690565	 1.7019864933	 1.7596274384	-0.337272
C	 1.2225596376	 1.8238664516	 0.2834110333	-0.159932
H	-2.177139148	 1.6369484833	-0.4014838832	 0.111953
H	-2.6010434578	 1.3880737771	 2.0779744656	 0.11992
H	-0.7906209109	 1.1810066343	 2.3617338133	 0.158837
H	-0.2312023551	 4.5826804368	 0.7988187403	 0.11891
H	-0.2276045246	 4.0309464282	 2.4730066575	 0.121363
H	 2.0026349756	 3.7101861276	 1.1353202812	 0.097991
H	 2.3650123587	 1.5633258611	 1.9715988551	 0.243993
H	 2.0961499688	 1.6618650555	-0.3403934573	 0.107605
120.5196	242.6174	260.8004	351.9843	371.6848	425.5298	462.6245	537.702	631.2962	702.1251	746.2004	788.5653	826.8863	889.9819	896.7129	921.1287	950.8055	983.4786	1028.8598	1047.2279	1086.1419	1123.6252	1128.4996	1160.9215	1169.7542	1182.4757	1246.0655	1282.296	1292.4232	1318.7031	1368.8073	1387.2932	1389.8069	1444.5868	1478.6056	1495.5203	1784.8949	3026.2087	3066.9656	3111.8355	3117.2712	3149.8951	3166.2277	3225.2731	3505.2706
O=C1C2CN2CC2NC12	O=C1[C@H]2CN2C[C@H]2N[C@@H]12	
InChI=1S/C6H8N2O/c9-6-4-2-8(4)1-3-5(6)7-3/h3-5,7H,1-2H2	InChI=1S/C6H8N2O/c9-6-4-2-8(4)1-3-5(6)7-3/h3-5,7H,1-2H2/t3-,4-,5-,8?/m1/s1
