16
gdb 29536	3.15585	1.51137	1.03523	1.4882	71.73	-0.1894	0.0436	0.233	1086.5973	0.12601	-437.898462	-437.890446	-437.889502	-437.931325	29.456	
O	 0.1040205048	 1.38036228	-0.105497272	-0.445696
C	 0.0636890715	 0.0168096917	-0.0158030923	 0.154015
C	 0.0516239657	-0.8219205153	-1.111923775	-0.162672
N	 0.0087847575	-2.1320440436	-0.6471252052	-0.384791
C	-0.0053010164	-2.1047925344	 0.7105721425	 0.271297
C	 0.0272938891	-0.807835537	 1.141915707	 0.106677
C	 0.0109927855	-0.8043829088	 2.6380606449	-0.192954
O	-0.033595565	-2.2003033711	 2.9983489772	-0.279009
C	-0.0453585548	-3.0618655583	 1.8533326309	-0.16885
H	 0.1035195108	 1.7459046945	 0.7828854344	 0.297526
H	 0.06975532	-0.5930221474	-2.1638316171	 0.122378
H	-0.0081640665	-2.9464595749	-1.2340049426	 0.262418
H	 0.9063231439	-0.3537499807	 3.0931233294	 0.103397
H	-0.8663645951	-0.3022358355	 3.0737700051	 0.10339
H	-0.9513250952	-3.687861496	 1.8766029942	 0.106448
H	 0.8227331043	-3.7384618433	 1.8963252388	 0.106427
76.4076	142.9028	164.1567	197.9791	263.4954	328.5445	403.4251	509.1334	604.7394	613.3724	623.122	647.5389	695.1696	791.0117	853.4267	895.3664	1022.4616	1036.155	1068.1712	1081.5858	1101.1531	1153.6962	1156.9892	1215.1387	1226.343	1305.8377	1338.623	1351.5201	1400.2757	1482.2429	1525.3748	1533.6938	1547.6066	1564.2205	1647.6963	2967.1206	2976.5585	2983.1877	2991.2826	3277.8949	3692.2647	3855.2638
OC1=CNC2=C1COC2	Oc1c[nH]c2c1COC2	
InChI=1S/C6H7NO2/c8-6-1-7-5-3-9-2-4(5)6/h1,7-8H,2-3H2	InChI=1S/C6H7NO2/c8-6-1-7-5-3-9-2-4(5)6/h1,7-8H,2-3H2
