22
gdb 58087	2.09159	1.35107	1.17432	4.7777	77.4	-0.2489	0.0199	0.2688	1219.2192	0.192467	-441.529598	-441.518967	-441.518023	-441.565049	39.694	
C	 0.1088489373	 1.5549008704	-0.1506358806	-0.429591
C	-0.0272155541	 0.036549119	 0.0609034033	 0.041926
C	 0.7800162147	-0.3836275808	 1.2996589591	-0.409321
C	-1.5169391824	-0.4570371161	 0.1079897421	 0.086338
C	-2.2723881903	 0.0120275022	 1.3577571106	-0.429018
N	-2.1792514629	-0.054987227	-1.1550799976	-0.569412
H	-1.6852682384	-1.7658919069	-1.7311327012	 0.305544
H	-3.1887721604	-0.1132605809	-1.0508777483	 0.240432
H	-1.9675195686	 0.9077092476	-1.3885406181	 0.239109
C	-1.4739141437	-2.0110766949	 0.0911991584	 0.440504
O	-1.3765965583	-2.6894335645	 1.0807162116	-0.349616
O	-1.5165956235	-2.5349465049	-1.14116824	-0.378168
H	 1.169222025	 1.8254211588	-0.1534267418	 0.126159
H	-0.2994026369	 1.9013844613	-1.1056138543	 0.112153
H	-0.368040086	 2.1246533499	 0.6535264192	 0.125102
H	 0.4171821917	-0.4551050149	-0.8146416801	 0.088316
H	 1.8416695135	-0.1762468551	 1.1341341538	 0.111439
H	 0.4711217228	 0.182247301	 2.1849786815	 0.115653
H	 0.6661752619	-1.4450860118	 1.5239639428	 0.153939
H	-2.257189812	 1.1021939829	 1.4431993255	 0.109764
H	-3.3187251992	-0.3082929839	 1.3075479817	 0.115482
H	-1.8450154303	-0.4250717113	 2.2608313024	 0.153263
43.3776	80.2463	185.8369	206.0149	221.3233	241.5911	273.8198	282.0648	289.0315	349.5395	378.5139	392.6907	428.2553	461.1464	561.0161	616.5097	703.0224	768.8998	831.9126	867.8171	898.8534	926.726	937.7769	952.329	971.4255	1049.7679	1073.9392	1112.9851	1165.6185	1189.4181	1203.2349	1252.1328	1298.1466	1348.6075	1369.025	1402.9258	1408.4944	1422.0984	1429.1433	1483.2949	1486.8846	1492.0025	1501.949	1511.6557	1515.2637	1654.0611	1853.5574	3017.1659	3034.0615	3041.1798	3043.9424	3096.53	3099.9936	3102.9589	3110.2438	3144.6607	3148.4845	3456.8354	3502.2911	3591.1492
CC(C)C(C)([NH3+])C([O-])=O	CC(C)[C@@](C)(N)C(=O)O	
InChI=1S/C6H13NO2/c1-4(2)6(3,7)5(8)9/h4H,7H2,1-3H3,(H,8,9)	InChI=1S/C6H13NO2/c1-4(2)6(3,7)5(8)9/h4H,7H2,1-3H3,(H,8,9)/t6-/m1/s1
