16
gdb 96887	2.71424	1.2545	1.10509	2.6409	69.17	-0.2579	-0.0648	0.1931	1158.9352	0.121727	-475.008858	-474.999558	-474.998614	-475.044197	31.801	
C	 0.2002509184	 1.4769031957	-0.1392174763	-0.340638
N	 0.3044945562	 0.0250168434	-0.1841660916	-0.320605
C	 0.6121464313	-0.610105368	 0.8410074786	 0.421063
O	 0.910961835	-0.1718668391	 2.1325153381	-0.266084
C	 0.9256853257	-1.5208567837	 2.6641516144	-0.021553
C	-0.2816096116	-1.7991058024	 3.5354418821	 0.164274
O	-1.4033322782	-1.5514389631	 3.1658072912	-0.258109
C	 0.7524732857	-2.0865846519	 1.1917032515	-0.013784
O	-0.2741984243	-2.9635406024	 0.8914662559	-0.407095
H	 1.0068387873	 1.9117407491	-0.7398497416	 0.134487
H	-0.7438807523	 1.7769069226	-0.6042892379	 0.134187
H	 0.250251602	 1.8960311491	 0.8721215253	 0.129937
H	 1.8683635221	-1.7354421174	 3.1731933535	 0.100366
H	-0.0881127733	-2.2839739119	 4.5149773997	 0.101928
H	 1.6813391832	-2.5292232095	 0.8242066902	 0.13399
H	-1.1088313072	-2.5336433905	 1.1219601668	 0.307635
49.1347	64.6346	89.0866	156.6883	198.0161	210.2857	289.3159	299.7146	454.048	473.0464	547.7505	635.512	691.1819	794.3364	814.8145	887.1332	939.1363	1002.4759	1025.0089	1065.7471	1105.0078	1131.208	1157.0009	1176.5981	1195.3498	1269.6872	1301.6687	1365.2127	1416.2017	1437.4665	1450.3676	1490.6718	1498.9785	1810.9978	1861.5791	2916.2627	3021.7536	3087.0132	3088.4655	3097.9626	3098.5179	3766.922
CN=C1OC(C=O)C1O	CN=C1O[C@@H](C=O)[C@H]1O	
InChI=1S/C5H7NO3/c1-6-5-4(8)3(2-7)9-5/h2-4,8H,1H3	InChI=1S/C5H7NO3/c1-6-5-4(8)3(2-7)9-5/h2-4,8H,1H3/t3-,4+/m0/s1
