19
gdb 73306	3.2238	1.53505	1.33053	0.5389	73.86	-0.2153	0.0702	0.2855	1020.5964	0.158963	-422.996367	-422.988478	-422.987534	-423.028015	32.117	
C	-0.0104682796	 1.4783691515	 0.0845896551	-0.47758
C	-0.0575439107	-0.0174287455	-0.0882878995	 0.412303
C	 0.7854617336	-0.639119129	-1.2076308268	-0.231643
C	 0.3868046321	-2.1391602688	-1.177514725	-0.294758
C	-0.9027884143	-2.1624450498	-0.3530646482	 0.358486
O	-1.8591363724	-3.1512633321	-0.5724783056	-0.475134
C	-0.8401998106	-1.534638192	 1.0311708087	 0.023077
O	 0.3204464676	-0.7204774294	 1.1628826641	-0.34197
C	-1.41627299	-0.7607073476	-0.1157580092	-0.242546
H	 1.0137801733	 1.8023095751	 0.2961496089	 0.127534
H	-0.3490229331	 1.9813884997	-0.8274046052	 0.118278
H	-0.6477467556	 1.7921762096	 0.9152925726	 0.128363
H	 0.5224466629	-0.1796051805	-2.1672855522	 0.099043
H	 1.8529046888	-0.4756632836	-1.0341785623	 0.104944
H	 0.1855423491	-2.5349321882	-2.1768814684	 0.105649
H	 1.1698507176	-2.7557232069	-0.7242948857	 0.102148
H	-1.5464778746	-3.9657443884	-0.1633255487	 0.285608
H	-1.2887243376	-1.9639631555	 1.9206819052	 0.099485
H	-2.4065548765	-0.3831320487	-0.3296521178	 0.098712
185.7554	204.7338	233.7362	255.673	309.7515	367.2335	394.8007	395.6397	481.3557	552.635	598.3545	681.886	753.2553	800.8872	827.4617	851.3974	863.1128	910.9205	919.993	989.0933	993.1918	1020.9213	1036.8707	1049.5621	1102.0545	1126.2477	1175.8569	1193.3151	1212.2309	1244.404	1275.7256	1278.4285	1306.9354	1321.3606	1358.2166	1412.3986	1426.9554	1472.0586	1482.0422	1492.6091	1500.1454	3035.7513	3040.8577	3049.3322	3087.1668	3102.1382	3107.3596	3120.6838	3170.1176	3210.5512	3793.532
CC12CCC3(O)C(O1)C23	C[C@@]12CC[C@@]3(O)[C@@H](O1)[C@@H]23	
InChI=1S/C7H10O2/c1-6-2-3-7(8)4(6)5(7)9-6/h4-5,8H,2-3H2,1H3	InChI=1S/C7H10O2/c1-6-2-3-7(8)4(6)5(7)9-6/h4-5,8H,2-3H2,1H3/t4-,5-,6-,7-/m0/s1
