19
gdb 71855	3.20632	1.59874	1.30002	1.227	79.09	-0.2324	0.0241	0.2565	1010.7886	0.161282	-385.868756	-385.861428	-385.860484	-385.900028	30.318	
O	-0.1663920419	 1.4584118522	-0.0438362006	-0.465392
C	-0.0228913917	 0.0792941951	-0.0505475374	 0.380541
C	 0.7462925821	-0.6838364865	-1.1285902487	-0.309108
C	-0.3121702537	-1.8489425949	-1.0031712708	-0.065156
C	 0.2087415599	-3.1023925038	-0.3559160182	-0.061084
C	 0.6152956708	-3.0970945001	 0.9128061624	-0.054699
C	 0.5443222547	-1.8662445105	 1.7809231382	-0.29355
C	-0.3067918354	-0.745350577	 1.1895153963	-0.094867
C	-1.1385282872	-0.9468785155	-0.055688748	-0.14413
H	 0.537074466	 1.8341047406	 0.4968045249	 0.28254
H	 0.6665398488	-0.1705094275	-2.0904180955	 0.107129
H	 1.7929894198	-0.9425007265	-0.9390760798	 0.088962
H	-0.8101328734	-2.056308121	-1.9507026469	 0.073038
H	 0.279120368	-4.0061006599	-0.9548237157	 0.08283
H	 1.0148270188	-3.9979626524	 1.3712644867	 0.083984
H	 0.128244919	-2.1473041823	 2.758108948	 0.106987
H	 1.5607318425	-1.5055938052	 1.9996409776	 0.106436
H	-0.81374958	-0.1307321765	 1.9293123663	 0.087352
H	-2.213609727	-0.8220078281	-0.0809786888	 0.088187
146.9386	207.8387	267.0116	293.2565	368.1319	432.1745	471.3798	505.8466	570.161	626.2879	704.645	711.521	770.8985	836.7015	894.1755	908.1338	917.5916	949.7137	960.8035	983.5955	996.0267	1006.2625	1055.217	1067.2183	1089.3432	1130.6424	1168.9895	1208.6525	1212.7709	1226.8556	1231.4637	1297.2037	1298.4822	1320.1495	1333.4758	1360.355	1409.4821	1457.4791	1470.5828	1501.0648	1715.3043	2992.5048	3020.8763	3043.9593	3094.4358	3108.4661	3142.057	3149.7116	3173.7728	3192.0545	3792.9117
OC12CC3C=CCC1C23	O[C@@]12C[C@H]3C=CC[C@@H]1[C@@H]23	
InChI=1S/C8H10O/c9-8-4-5-2-1-3-6(8)7(5)8/h1-2,5-7,9H,3-4H2	InChI=1S/C8H10O/c9-8-4-5-2-1-3-6(8)7(5)8/h1-2,5-7,9H,3-4H2/t5-,6-,7+,8+/m1/s1
