12
gdb 23622	3.92749	1.83174	1.24915	5.8522	59.52	-0.2242	-0.019	0.2052	857.3984	0.085053	-422.679993	-422.673749	-422.672804	-422.710402	23.815	
F	 0.0989197628	 0.0349490314	 0.0023342578	-0.060847
C	-0.0363202425	 1.355009229	 0.0108916235	 0.42701
C	-1.2235463024	 1.9893182022	 0.0302451226	-0.438089
C	-1.2815560364	 3.4557329085	 0.0384283698	 0.402329
O	-2.3318113461	 4.085141117	 0.0562077604	-0.395742
C	 0.0417632682	 4.1011056973	 0.0239204493	-0.244619
C	 1.1847661594	 3.3858047901	 0.0047365884	 0.02897
N	 1.1595874066	 2.0087567612	-0.002038842	-0.384948
H	-2.1434268699	 1.420717808	 0.0398608855	 0.127975
H	 0.0741239846	 5.1831199114	 0.0291003519	 0.119089
H	 2.1735406066	 3.8265278888	-0.0063742245	 0.142124
H	 2.0062751492	 1.464185915	-0.0161687127	 0.27675
164.7357	213.8107	358.6375	392.0711	461.9848	493.2437	519.6611	524.2103	653.73	721.6342	758.3802	828.1318	872.2177	926.5534	957.0877	1009.4692	1083.5833	1198.2666	1223.3004	1250.7713	1347.1826	1424.4557	1536.4463	1641.6688	1704.4557	1738.2906	3209.7532	3227.8795	3232.3265	3660.0404
FC1=CC(=O)C=CN1	Fc1cc(=O)cc[nH]1	
InChI=1S/C5H4FNO/c6-5-3-4(8)1-2-7-5/h1-3H,(H,7,8)	InChI=1S/C5H4FNO/c6-5-3-4(8)1-2-7-5/h1-3H,(H,7,8)
