17
gdb 67703	2.34386	2.06691	1.74775	1.2229	71.42	-0.2181	0.0123	0.2304	877.1039	0.137584	-421.806308	-421.799505	-421.79856	-421.837005	28.257	
O	-0.0165204802	 1.3725899436	 0.0474844507	-0.468902
C	 0.0277785747	-0.0116691534	 0.0237447381	 0.335231
C	-0.2314757029	-0.8926425265	-1.1472970239	 0.006674
O	 0.7247728018	-1.9100368117	-1.2419700746	-0.25328
C	 1.7831854261	-1.5823074101	-0.325585704	-0.075364
C	 1.0802161287	-0.8395439006	 0.8288262233	-0.179022
C	 0.2392422727	-1.8319854333	 1.6105916043	-0.088112
C	-1.0107762702	-1.8729162382	 1.1430428277	-0.055158
C	-1.2132023722	-0.8664072875	 0.0654366779	-0.172123
H	 0.6539603619	 1.7098032163	-0.5574678443	 0.282065
H	-0.6005295054	-0.5216140159	-2.0983699952	 0.103198
H	 2.2666128431	-2.517668075	-0.0326248781	 0.112217
H	 2.5276860863	-0.9338221118	-0.8176840662	 0.081373
H	 1.7595775801	-0.2232662908	 1.4234986692	 0.080822
H	 0.6591277402	-2.488670016	 2.3634426362	 0.09665
H	-1.7872436908	-2.5563948242	 1.4646096142	 0.10051
H	-2.1857150638	-0.431306775	-0.1372302654	 0.093223
207.466	252.7287	283.9291	323.1484	338.4222	427.7229	568.9375	596.7195	651.0707	706.021	734.5324	780.3378	794.8098	873.1672	879.3021	931.0668	938.8582	952.303	981.5829	990.1423	1037.1362	1049.6572	1066.7197	1094.3954	1125.7304	1178.4484	1199.5816	1222.186	1239.5946	1291.6807	1301.5369	1319.6527	1364.5332	1381.142	1458.7498	1510.5273	1660.0372	2960.9014	3081.9395	3097.8018	3160.9639	3178.6533	3193.033	3217.5861	3787.9756
OC12C3OCC1C=CC23	O[C@@]12[C@H]3OC[C@@H]1C=C[C@@H]23	
InChI=1S/C7H8O2/c8-7-4-1-2-5(7)6(7)9-3-4/h1-2,4-6,8H,3H2	InChI=1S/C7H8O2/c8-7-4-1-2-5(7)6(7)9-3-4/h1-2,4-6,8H,3H2/t4-,5+,6-,7-/m0/s1
