14
gdb 27664	3.1388	1.30602	0.9245	3.4353	75.95	-0.1818	0.0119	0.1938	1183.7471	0.100997	-432.869456	-432.860924	-432.859979	-432.902235	32.005	
N	 0.0989377936	 1.3372446362	 0.1474184666	-0.599818
C	-0.0448539044	-0.0280674747	 0.0638897513	 0.437182
N	-1.1221292751	-0.7283839335	 0.028559038	-0.385062
C	-0.6597170282	-2.0658832658	 0.0200356184	 0.079125
C	-1.4865813962	-3.2040899471	-0.0281926183	 0.179518
C	-2.159439054	-4.2040251527	-0.075962123	-0.412007
C	 0.7035889958	-2.0521351685	 0.0568619404	 0.263593
N	 1.6775332558	-3.0223200822	 0.1548015946	-0.604686
O	 1.1211611651	-0.7493867109	 0.0878523673	-0.198997
H	 0.9244955751	 1.6979862354	-0.3099270294	 0.261604
H	-0.7436162539	 1.8242748635	-0.1230540775	 0.271461
H	-2.7660341667	-5.0742308134	-0.110768723	 0.182014
H	 1.2924988672	-3.9469658536	 0.0096082525	 0.267336
H	 2.4793973059	-2.8620869127	-0.4433996178	 0.258737
127.8475	137.7568	202.9859	229.8705	262.3573	320.9013	335.9765	414.1416	455.5447	505.9674	540.9149	606.399	635.3205	668.2	680.128	687.8715	733.3579	758.7497	834.916	975.3689	1046.0329	1139.9504	1190.7616	1279.3515	1373.4838	1445.9505	1607.207	1617.4693	1670.6395	1725.9665	2221.8174	3504.3915	3527.7631	3564.8094	3630.7479	3671.6097
NC1=NC(C#C)=C(N)O1	Nc1nc(C#C)c(N)o1	
InChI=1S/C5H5N3O/c1-2-3-4(6)9-5(7)8-3/h1H,6H2,(H2,7,8)	InChI=1S/C5H5N3O/c1-2-3-4(6)9-5(7)8-3/h1H,6H2,(H2,7,8)
