23
gdb 62509	1.58718	1.58693	1.54674	2.0342	82.35	-0.2218	0.0611	0.2829	1165.2308	0.200906	-425.419371	-425.40796	-425.407016	-425.454259	43.103	
C	-0.033384349	 1.5098117234	-0.048510937	-0.450274
C	 0.0048360943	-0.00967569	 0.0186911648	 0.214862
C	-1.2829524338	-0.6367645298	-0.4943318862	-0.450272
C	 1.3322465733	-0.7133805325	-0.2347245959	 0.273211
C	 1.4274012581	-2.004642165	-1.0161681807	-0.458693
O	 2.4011078311	 0.1697841474	-0.4987936436	-0.458449
C	 0.7329525921	-0.6893926523	 1.171625949	 0.273217
C	 1.3945779669	 0.092538208	 2.2842379484	-0.458694
O	 0.1006138758	-1.866342132	 1.6267122202	-0.458445
H	 0.932271455	 1.9667354977	 0.1628506573	 0.133187
H	-0.3325204029	 1.8296286762	-1.0531806333	 0.113359
H	-0.7742248519	 1.9063907956	 0.6552788415	 0.109269
H	-1.3932153397	-0.4605610099	-1.5705448078	 0.109267
H	-1.3356510754	-1.7081081081	-0.3061933309	 0.133189
H	-2.1441113218	-0.1757124823	 0.0026197748	 0.113359
H	 1.3480244607	-1.8158196195	-2.091520088	 0.124868
H	 2.4009845612	-2.4813489867	-0.8370974304	 0.095434
H	 0.6558290575	-2.7168221284	-0.7232482268	 0.133427
H	 3.2169200081	-0.2682084553	-0.2316028251	 0.277226
H	 1.9665902669	 0.9390300876	 1.9039999131	 0.133428
H	 0.6505375161	 0.4578784776	 2.9992710751	 0.124867
H	 2.0905873038	-0.5544266671	 2.8357659161	 0.095434
H	 0.7777299237	-2.4330886047	 2.0128351655	 0.277226
154.5372	157.6435	164.9744	179.3575	194.2223	201.5992	230.6008	264.4804	284.4414	301.2037	309.8028	316.7836	375.8001	417.7669	437.9564	479.5273	505.4492	601.6678	662.7155	693.868	711.6744	951.7264	954.4773	977.0643	1002.8949	1009.8768	1070.7366	1085.8102	1120.3721	1151.076	1168.2055	1220.122	1241.671	1264.8266	1287.5475	1348.9002	1400.7736	1405.7852	1408.0931	1422.542	1448.2976	1480.96	1482.0012	1491.0857	1492.9895	1496.5653	1504.526	1516.3495	1526.1583	3014.8981	3016.4262	3027.9079	3033.4764	3080.2655	3081.3683	3082.413	3084.7313	3146.4599	3146.5091	3157.7317	3157.8251	3789.2514	3790.5884
CC1(C)C(C)(O)C1(C)O	CC1(C)[C@@](C)(O)[C@]1(C)O	
InChI=1S/C7H14O2/c1-5(2)6(3,8)7(5,4)9/h8-9H,1-4H3	InChI=1S/C7H14O2/c1-5(2)6(3,8)7(5,4)9/h8-9H,1-4H3/t6-,7-/m1/s1
