17
gdb 65961	2.34613	1.48505	1.35508	2.1971	74.58	-0.2331	0.021	0.2541	1053.4355	0.132697	-421.745838	-421.736897	-421.735953	-421.779425	33.735	
O	-0.1176929399	 1.3577376364	-0.2867650027	-0.457015
C	 0.0047703171	-0.0332214378	-0.0669183084	 0.069191
C	 0.07917395	-0.4837465914	 1.4268066477	-0.112416
O	-1.1715271641	-1.1933593905	 1.3190725642	-0.308286
C	-1.3618702524	-0.7323233945	-0.0154371939	 0.445168
C	-2.6569664737	-0.2007874789	-0.5249517065	-0.325823
C	-2.0855523273	-1.510408289	-1.0554963251	-0.344592
C	 0.9975455796	-0.6303550265	-0.9488063772	 0.306842
C	 1.8361341176	-1.09135093	-1.6769352195	-0.497568
H	 0.7458913237	 1.6951150985	-0.5475319555	 0.288698
H	 0.9067626128	-1.1456033047	 1.6978410157	 0.112448
H	 0.0184519232	 0.3679150523	 2.1134883217	 0.111262
H	-3.506641098	-0.2611284714	 0.1465850196	 0.124629
H	-2.6255348587	 0.6798661358	-1.1566303494	 0.131282
H	-1.669999431	-1.5349903459	-2.0577051443	 0.123842
H	-2.560254532	-2.4310284254	-0.7334556908	 0.125972
H	 2.5704913231	-1.509685167	-2.3206543855	 0.206366
60.6616	121.8718	173.7878	208.5236	246.2487	259.094	346.2777	386.3719	489.2512	509.675	531.596	629.485	640.408	662.7446	668.2603	757.8809	868.2446	876.9072	918.3989	966.2756	987.0561	993.5294	1022.5982	1048.9636	1066.5096	1119.6273	1152.154	1184.2766	1211.8461	1219.7927	1320.0985	1345.7804	1410.109	1447.0244	1489.4894	1515.4091	2231.8677	3033.0666	3098.048	3130.0866	3136.071	3215.9532	3231.4942	3497.925	3816.3782
OC1(COC11CC1)C#C	O[C@]1(COC21CC2)C#C	
InChI=1S/C7H8O2/c1-2-6(8)5-9-7(6)3-4-7/h1,8H,3-5H2	InChI=1S/C7H8O2/c1-2-6(8)5-9-7(6)3-4-7/h1,8H,3-5H2/t6-/m0/s1
