16
gdb 67978	3.2088	1.67693	1.26112	2.8704	68.41	-0.2381	0.0022	0.2404	970.4348	0.124486	-437.852803	-437.845731	-437.844787	-437.883916	28.531	
C	 0.0363185653	 1.527205576	-0.0398586236	-0.517216
C	 0.0697604118	 0.0259219996	-0.012834595	 0.337371
N	 0.5852321684	-0.6588292105	-1.1893524799	-0.395846
C	 0.4162447893	-2.0161408017	-0.9346687636	 0.418038
O	 0.5703805534	-2.938632592	-1.6948902393	-0.363088
C	-0.0552355804	-2.0010465139	 0.5159303431	-0.201694
C	 0.5990213352	-0.7727360583	 1.2225320435	 0.038063
O	-0.6269432193	-0.4849191509	 1.9749957479	-0.314802
C	-1.091503452	-0.8300239497	 0.6314468148	 0.021642
H	 1.0358357712	 1.9374321272	-0.2143351208	 0.134149
H	-0.6252193658	 1.8941671655	-0.8321244456	 0.125024
H	-0.3349441338	 1.894603241	 0.9192034812	 0.153124
H	 0.4776833352	-0.2967750554	-2.1252902167	 0.250719
H	-0.2092487493	-2.9375523896	 1.0428910012	 0.1056
H	 1.5561286942	-0.7082074952	 1.7417058106	 0.105622
H	-2.1667193333	-0.8403166223	 0.4449780221	 0.103293
164.4812	245.1558	264.0981	277.9771	388.956	408.5844	449.9275	546.9806	625.0257	667.3098	698.238	721.477	765.0153	836.8498	876.2341	892.214	913.0091	955.0016	968.1753	1023.721	1070.5725	1129.7368	1141.7699	1151.272	1170.2478	1208.4198	1250.562	1260.0085	1283.4941	1315.6449	1394.7582	1424.5141	1493.5215	1494.3245	1862.248	3039.226	3101.7714	3107.4186	3115.9771	3135.9169	3182.6513	3620.7068
CC12NC(=O)C3C1OC23	C[C@@]12NC(=O)[C@H]3[C@@H]1O[C@@H]23	
InChI=1S/C6H7NO2/c1-6-3-2(4(6)9-3)5(8)7-6/h2-4H,1H3,(H,7,8)	InChI=1S/C6H7NO2/c1-6-3-2(4(6)9-3)5(8)7-6/h2-4H,1H3,(H,7,8)/t2-,3-,4+,6+
