16
gdb 53916	1.71042	1.5572	1.33679	2.5857	75.54	-0.2672	-0.046	0.2212	1106.9208	0.119654	-400.74351	-400.733327	-400.732382	-400.778902	35.749	
C	-1.0248783261	 0.6222367453	 0.5429862769	-0.492952
C	 0.2700507748	 0.1989752537	-0.1043790245	 0.386777
O	 1.3586785575	 0.4901539761	 0.3074675266	-0.273887
C	 0.1537723996	-0.7086963017	-1.4052044931	-0.188831
C	 1.5364729617	-0.8354224284	-2.0845096091	-0.405456
C	-0.3448812144	-2.0158651155	-0.9697859092	 0.33726
C	-0.7157615782	-3.0860516847	-0.5702531687	-0.456649
C	-0.8062541056	-0.0854569701	-2.3314700246	 0.286364
N	-1.5406931403	 0.44047346	-3.0522878721	-0.339403
H	-1.5307212956	 1.3525492348	-0.0976354399	 0.175892
H	-1.6993552504	-0.2312624987	 0.6528183333	 0.161538
H	-0.8149341118	 1.0721469803	 1.5133795634	 0.151966
H	 2.2463258447	-1.2525100413	-1.3703248981	 0.153687
H	 1.4643305697	-1.4882625322	-2.9557888314	 0.141756
H	 1.8905247103	 0.1490739318	-2.3955831617	 0.14588
H	-1.0514913863	-4.0367064693	-0.2344155278	 0.216059
44.7923	117.2898	122.2466	137.3864	162.9926	216.5704	233.865	272.4845	373.3978	402.8367	475.9764	491.075	570.5585	582.2521	603.4013	648.633	653.3377	664.0759	846.5765	933.4928	964.8595	1046.2455	1091.9827	1149.6289	1175.887	1199.011	1386.9115	1406.1708	1461.5183	1471.6237	1480.1927	1484.9433	1842.5777	2236.8875	2353.8098	3052.0222	3068.5199	3119.2313	3151.8353	3163.1244	3164.8058	3497.1789
CC(=O)C(C)(C#C)C#N	CC(=O)[C@@](C)(C#C)C#N	
InChI=1S/C7H7NO/c1-4-7(3,5-8)6(2)9/h1H,2-3H3	InChI=1S/C7H7NO/c1-4-7(3,5-8)6(2)9/h1H,2-3H3/t7-/m0/s1
