18
gdb 124608	2.66288	1.36949	1.12715	2.4874	73.7	-0.217	0.0173	0.2343	1151.2337	0.14843	-435.320742	-435.311904	-435.31096	-435.354747	32.404	
C	-0.0753651384	 1.5532831521	 0.0777759475	-0.385001
C	 0.0605409967	 0.0284456807	 0.0173944922	 0.038458
C	 0.7824802005	-0.4448110268	-1.2483156205	-0.385001
N	 0.7286306248	-0.4772536777	 1.2115747855	-0.073954
N	 2.0245302994	-0.1234417861	 1.5168502073	-0.238892
C	 2.2822529588	-0.7464348776	 2.6227799043	 0.061729
N	 1.2151600994	-1.4899309109	 3.0529318113	-0.370851
C	 0.1656157875	-1.3334564709	 2.137779352	 0.482714
O	-0.9436565578	-1.8268497743	 2.1634370377	-0.439728
H	 0.9109973092	 2.0253967138	 0.0993552964	 0.136192
H	-0.6146842826	 1.9185153368	-0.8010946499	 0.117518
H	-0.6251871543	 1.8608720706	 0.9716480156	 0.123234
H	-0.9321858643	-0.4297480667	 0.0656276577	 0.125198
H	 1.8020533311	-0.0500365199	-1.2783234405	 0.136188
H	 0.833658422	-1.5366403457	-1.2831587181	 0.123238
H	 0.2501624628	-0.0963637921	-2.1382044139	 0.117517
H	 3.223629983	-0.6893342324	 3.1459157658	 0.15223
H	 1.1480710422	-2.0638464728	 3.8750155095	 0.279209
45.3427	102.9937	184.6845	215.5497	244.6861	252.3917	298.6069	413.6063	425.114	493.9103	581.5681	637.8401	663.8292	745.5536	774.7562	825.2456	886.5282	936.2463	945.5526	950.9117	1049.803	1093.4435	1113.0164	1148.4416	1193.7409	1222.1968	1301.4901	1356.4996	1368.0411	1397.5199	1410.4084	1416.8675	1423.8469	1482.913	1490.0513	1497.0391	1512.3056	1612.5714	1832.3032	3041.5984	3045.77	3074.7952	3115.3367	3120.063	3121.3563	3127.5408	3267.7497	3691.8265
CC(C)N1N=CNC1=O	CC(C)n1nc[nH]c1=O	
InChI=1S/C5H9N3O/c1-4(2)8-5(9)6-3-7-8/h3-4H,1-2H3,(H,6,7,9)	InChI=1S/C5H9N3O/c1-4(2)8-5(9)6-3-7-8/h3-4H,1-2H3,(H,6,7,9)
