19
gdb 107547	2.03449	1.76343	1.15544	4.0105	75.63	-0.2486	-0.0399	0.2087	1107.2743	0.158446	-423.001413	-422.992749	-422.991805	-423.034909	32.522	
O	 0.0726068765	 1.3653284038	 0.334038261	-0.429914
C	 0.0455117926	 0.0566595419	-0.2093099141	-0.162371
C	-1.319211366	-0.5586629086	-0.1127875162	 0.335449
C	-1.88794429	-1.0494457565	 1.1934662584	-0.31425
C	-1.8418199664	-1.9958133677	 0.0297943621	-0.119779
C	-3.0237589481	-1.6985688666	-0.906010837	-0.269762
C	-2.461604325	-0.2460345436	-1.0890768887	-0.150686
C	-3.2989344524	 0.9716816565	-0.8064701448	 0.139609
O	-2.8742624024	 1.9505827289	-0.2358210102	-0.248235
H	-0.7947560993	 1.7657287493	 0.1739127325	 0.292076
H	 0.3772801301	 0.0593109966	-1.2626683884	 0.07487
H	 0.7719175887	-0.5431467719	 0.3530800226	 0.098079
H	-1.1427438435	-1.2117614495	 1.9653767568	 0.123487
H	-2.8409600216	-0.6849932489	 1.5704553075	 0.108354
H	-1.2832380219	-2.9235327283	 0.0509019262	 0.096978
H	-3.0168129757	-2.2687925095	-1.8361798026	 0.113723
H	-4.0151049272	-1.7851191595	-0.4485180322	 0.1056
H	-2.0890577114	-0.1262133076	-2.1162438391	 0.113408
H	-4.3483361971	 0.9487903614	-1.1749405736	 0.093366
87.9433	99.3876	152.3867	176.221	252.3663	303.8952	353.2206	429.3105	455.5981	484.3827	592.42	689.2534	724.9566	804.4065	851.1389	899.3309	912.0083	960.711	978.3165	1017.5704	1023.1288	1039.9405	1067.1544	1071.7221	1087.4388	1120.3621	1159.5338	1182.3066	1207.3617	1251.0214	1264.3743	1300.9184	1335.2723	1365.8571	1396.8718	1411.3991	1465.2523	1487.0247	1505.215	1516.484	1797.5754	2890.9057	2944.785	3015.1301	3041.6191	3047.3464	3109.1164	3116.8083	3186.8955	3203.4666	3712.7203
OCC12CC1CC2C=O	OC[C@]12C[C@H]1C[C@H]2C=O	
InChI=1S/C7H10O2/c8-3-6-1-5-2-7(5,6)4-9/h3,5-6,9H,1-2,4H2	InChI=1S/C7H10O2/c8-3-6-1-5-2-7(5,6)4-9/h3,5-6,9H,1-2,4H2/t5-,6+,7-/m1/s1
