23
gdb 58766	2.92603	1.30899	1.2516	1.4154	84.94	-0.2337	0.0803	0.314	1173.5661	0.206368	-388.283053	-388.274274	-388.273329	-388.316138	34.975	
C	 0.0762953915	 1.5076644667	 0.0612862164	-0.392292
C	-0.0533739013	-0.0210573247	-0.0220726904	-0.080056
C	-1.525022078	-0.4572608893	-0.0909615043	-0.392293
C	 0.7361757527	-0.5739948877	-1.1903091192	 0.495383
C	 2.2757501949	-0.4344628869	-1.370963217	-0.284261
C	 2.0016660476	-1.5062145468	-2.4698176214	-0.079955
C	 0.9286918254	-2.0872699154	-1.4990690287	-0.284258
C	 1.0997034233	-0.6983055043	-3.4091005171	-0.074175
O	 0.229824165	-0.0638760007	-2.4474008313	-0.325151
H	 1.1212605266	 1.8157433365	 0.168340611	 0.109742
H	-0.3213546921	 1.9756153928	-0.8434681095	 0.133448
H	-0.4774111257	 1.895713664	 0.9220660785	 0.105089
H	 0.3929825946	-0.4549642363	 0.8832961316	 0.069319
H	-1.9946687678	-0.0776644994	-1.0025655838	 0.133447
H	-1.6198733707	-1.5478230777	-0.0922731752	 0.109743
H	-2.0821504133	-0.0734052883	 0.7694904441	 0.105089
H	 2.6591884167	 0.5406545075	-1.6816936206	 0.096636
H	 2.8450120611	-0.829140834	-0.5272427611	 0.097273
H	 2.7883698325	-2.1127225441	-2.917059184	 0.070016
H	 1.3665255683	-2.6432051015	-0.6678457883	 0.097273
H	 0.0790223879	-2.6251494342	-1.9270637157	 0.096636
H	 1.6387915814	 0.0606114186	-3.9892273174	 0.096674
H	 0.5132474294	-1.3203994848	-4.0962587768	 0.096674
72.5506	168.0022	190.2423	214.159	250.8475	312.7366	336.6304	405.62	452.8183	509.4776	514.2447	614.7044	669.8193	833.711	854.7374	876.2485	886.7749	911.9391	929.914	935.9773	958.504	962.7326	979.9142	990.8216	1048.4136	1073.63	1093.3664	1101.2087	1132.904	1146.5308	1168.8741	1189.0675	1196.3104	1228.1363	1252.0345	1295.511	1296.531	1343.0518	1353.6087	1394.8736	1395.6635	1417.5603	1474.1098	1488.6156	1492.7473	1502.0029	1504.9197	1516.775	1533.6033	3010.5302	3017.4524	3035.1862	3039.1786	3055.6747	3060.5191	3066.9852	3099.994	3102.9901	3117.1566	3121.7051	3124.2985	3126.716	3133.557
CC(C)C12CC(C1)CO2	CC(C)[C@@]12C[C@@H](C1)CO2	
InChI=1S/C8H14O/c1-6(2)8-3-7(4-8)5-9-8/h6-7H,3-5H2,1-2H3	InChI=1S/C8H14O/c1-6(2)8-3-7(4-8)5-9-8/h6-7H,3-5H2,1-2H3/t7-,8+
