16
gdb 23983	6.45666	1.01998	0.89079	3.3225	89.24	-0.1976	0.0182	0.2158	1262.9822	0.125339	-363.586759	-363.579062	-363.578117	-363.619109	29.41	
C	 0.0946695479	-1.2222530684	-0.2869934508	-0.462909
C	 0.0308678042	-0.0305509658	-0.1164319898	 0.255355
C	-0.0286087361	 1.3682874215	 0.0846522492	 0.158521
C	-1.2024265868	 2.1285756622	 0.1335467405	-0.26333
N	-0.7935670836	 3.4068083794	 0.3412427064	 0.021178
C	-1.0350167984	 4.8447494112	 0.5399674161	-0.169271
C	 0.5328131096	 4.9988283211	 0.6449713688	-0.380259
C	 0.5644472884	 3.4949861083	 0.4260306106	 0.378747
C	 1.1049091747	 2.2443076306	 0.2723749198	-0.474823
H	 0.1471716461	-2.27136961	-0.4373590706	 0.178429
H	-2.2315351971	 1.8273272351	 0.0350659765	 0.131376
H	-1.5020506393	 5.336779796	-0.3175685633	 0.13147
H	-1.5946665695	 5.0768514894	 1.4501898271	 0.131504
H	 0.9801914037	 5.6113395763	-0.1420210309	 0.128309
H	 0.8877382916	 5.3533748611	 1.6160496883	 0.12833
H	 2.1381099345	 1.9387549822	 0.2825365419	 0.107373
73.295	146.1664	151.9388	235.2217	425.0424	448.3302	504.7136	516.354	563.9586	634.2315	645.3559	657.7777	717.6314	788.5796	803.4035	813.1066	818.3525	911.8687	998.0807	1056.95	1084.3178	1129.4918	1139.2323	1180.1404	1188.8476	1232.6108	1273.2665	1322.8719	1400.5	1445.3626	1488.5153	1492.8747	1529.1482	1581.8652	2225.1678	3055.7883	3064.5061	3101.9587	3116.3784	3269.6326	3277.3245	3507.2313
C#CC1=CN2CCC2=C1	C#Cc1cn2CCc2c1	
InChI=1S/C8H7N/c1-2-7-5-8-3-4-9(8)6-7/h1,5-6H,3-4H2	InChI=1S/C8H7N/c1-2-7-5-8-3-4-9(8)6-7/h1,5-6H,3-4H2
