20
gdb 126570	4.95118	0.75968	0.69442	2.9851	83.28	-0.2465	0.0003	0.2468	1693.6625	0.170167	-403.168524	-403.158963	-403.158019	-403.203977	34.068	
C	-0.2113476822	 1.5074288871	 0.0002759634	-0.379569
C	-0.236744633	-0.0085055957	-0.2070085636	-0.162682
C	 0.9402829014	-0.5055079512	-1.0664411015	-0.298889
C	 0.9272402741	-1.9882942674	-1.2802608571	 0.393271
N	 1.8512038533	-2.7408681504	-0.7300486009	-0.210876
O	 1.5463175717	-4.0521262477	-1.1028080156	-0.212392
C	 0.4424080581	-4.050680811	-1.8719197186	 0.442337
C	-0.0316814223	-5.3700428007	-2.3700540775	-0.491263
C	-0.0024514175	-2.7751366898	-2.0239334153	-0.420639
H	 0.7115878974	 1.8226471775	 0.4991477452	 0.119446
H	-0.2686720332	 2.0401964357	-0.955587939	 0.114087
H	-1.0530407569	 1.8373961977	 0.6167397606	 0.114297
H	-0.2065304605	-0.5194486826	 0.7624637544	 0.111704
H	-1.1824817363	-0.3024606577	-0.6789196671	 0.098451
H	 0.9158947786	 0.0004554286	-2.0402821182	 0.108228
H	 1.8879726652	-0.2368215822	-0.5890036466	 0.123791
H	-0.2656641806	-6.0421367793	-1.5379210075	 0.150259
H	-0.9296867452	-5.2434489053	-2.9775457846	 0.139686
H	 0.7358798003	-5.8577434227	-2.9799408137	 0.150363
H	-0.8603542126	-2.4407629928	-2.5838916166	 0.11039
51.8202	83.4585	91.5894	105.2476	220.7804	247.7676	271.3401	313.5254	384.7188	411.9206	621.1175	644.0327	705.9203	747.398	779.2298	812.5411	876.3958	901.682	924.5787	1008.7485	1016.3372	1032.911	1046.7415	1065.7267	1101.9242	1114.2308	1160.7535	1254.3542	1293.5578	1312.2344	1326.5748	1384.3847	1411.9909	1413.3909	1447.6864	1474.0117	1478.5578	1490.3036	1492.6308	1499.9907	1509.9364	1526.6274	1648.2588	3023.713	3029.6312	3032.6514	3042.5352	3059.914	3087.2398	3098.9023	3100.9445	3105.2779	3137.9308	3269.1683
CCCC1=NOC(C)=C1	CCCc1noc(C)c1	
InChI=1S/C7H11NO/c1-3-4-7-5-6(2)9-8-7/h5H,3-4H2,1-2H3	InChI=1S/C7H11NO/c1-3-4-7-5-6(2)9-8-7/h5H,3-4H2,1-2H3
