16
gdb 98126	4.76471	0.83581	0.71423	2.8777	71.88	-0.2343	-0.0614	0.1729	1529.2279	0.122871	-471.236981	-471.22695	-471.226006	-471.274021	33.277	
C	-0.0223306395	 1.412338089	 0.0328164879	-0.309973
N	 0.015675963	-0.0292410509	 0.1257819058	-0.294607
C	 0.6869418126	-0.6620783274	 1.119456873	 0.231764
N	 1.3277282484	-0.0405227432	 2.0369847884	-0.536694
C	 0.5712333979	-2.169410432	 0.9891263663	 0.457832
O	-0.03816306	-2.7300952714	 0.1151522763	-0.361519
O	 1.2451105426	-2.8001552	 1.9872551841	-0.206644
C	 1.2378459545	-4.1781904747	 2.0114351851	 0.120099
N	 1.8649982588	-4.7440548257	 2.9398609604	-0.412982
H	 0.9873256217	 1.8262990345	-0.0681030472	 0.143206
H	-0.6160194994	 1.6963294936	-0.8377234556	 0.123653
H	-0.4673895011	 1.8522494929	 0.9324309248	 0.143311
H	-0.4560514712	-0.607301525	-0.5480073578	 0.26546
H	 1.755965969	-0.7040077957	 2.6778561804	 0.240543
H	 0.6672888821	-4.6121633996	 1.1907378658	 0.150238
H	 1.7846532606	-5.7557959445	 2.8482732621	 0.246311
22.1999	59.3754	105.455	117.8402	135.7091	137.5965	254.7779	342.9266	365.1398	368.69	479.1802	503.654	586.6544	762.3652	803.9974	852.2678	867.1729	913.7356	977.9391	1057.7727	1069.1758	1162.4373	1189.615	1195.3592	1231.5717	1259.0127	1335.1384	1387.9543	1458.0735	1472.0056	1514.027	1562.1831	1712.3141	1749.216	1815.3615	3029.4829	3079.1981	3136.6175	3144.9215	3511.0007	3533.3962	3671.805
CNC(=N)C(=O)OC=N	CNC(=N)C(=O)O[CH][NH]	
InChI=1S/C4H7N3O2/c1-7-3(6)4(8)9-2-5/h2,5H,1H3,(H2,6,7)	InChI=1S/C4H7N3O2/c1-7-3(6)4(8)9-2-5/h2,5H,1H3,(H2,6,7)
