12
gdb 21335	6.31635	1.41797	1.1663	1.45	58.67	-0.2772	-0.0068	0.2705	927.4431	0.086673	-373.741645	-373.735025	-373.734081	-373.773596	22.944	
N	-0.5533370958	-0.3023697934	-1.3605364502	-0.299327
C	-0.2443118984	 0.364931042	-0.4698352765	 0.267439
C	 0.1945663006	 1.2236499795	 0.6281526664	-0.457733
C	 1.5101432136	 1.8916370473	 0.3416692371	 0.404855
N	 2.1377895083	 2.7175094857	 1.1566410841	-0.321891
C	 3.2579146518	 3.0402653975	 0.4505635161	 0.028014
N	 3.3593224445	 2.4700924842	-0.7383223748	-0.205354
N	 2.2244505597	 1.7340428623	-0.7906471121	-0.234813
H	-0.5694511735	 1.9850746311	 0.8210004009	 0.192286
H	 0.2771555028	 0.627738711	 1.5439949684	 0.19228
H	 4.0155108505	 3.7124983812	 0.8238995468	 0.135891
H	 2.0152078557	 1.1711910216	-1.6011214762	 0.298353
35.8923	119.7497	247.8682	336.8727	372.8671	504.0522	597.2713	696.0544	706.3877	737.6238	914.2908	952.2584	952.6057	983.4596	1048.8927	1130.5803	1205.6773	1211.952	1285.8907	1305.3581	1313.6524	1429.792	1452.244	1502.5963	1583.7009	2369.368	3051.6219	3084.8785	3266.8521	3644.7358
N#CCC1=NC=NN1	N#CCc1ncn[nH]1	
InChI=1S/C4H4N4/c5-2-1-4-6-3-7-8-4/h3H,1H2,(H,6,7,8)	InChI=1S/C4H4N4/c5-2-1-4-6-3-7-8-4/h3H,1H2,(H,6,7,8)
