18
gdb 36706	5.20367	0.7475	0.70703	1.2924	78.12	-0.2507	0.0205	0.2712	1577.6479	0.147469	-401.932402	-401.923567	-401.922623	-401.967144	31.883	
C	 0.015120092	-1.1861195309	-0.1588433122	-0.433859
C	-0.0121770796	 0.0120810869	-0.0683346308	 0.290624
C	-0.0093509782	 1.4652315329	 0.0410521665	-0.35925
C	 1.4120456879	 2.0615652873	 0.0155624308	-0.195554
C	 1.4219136419	 3.5786902931	 0.145218342	 0.088026
C	 2.8252730646	 4.2333893805	 0.0155183775	-0.204891
N	 2.7500220352	 5.0812079244	-1.1872387431	-0.259857
C	 1.5651202486	 4.9618400085	-1.6156309695	 0.121925
O	 0.6803502296	 4.1689111262	-0.9640510221	-0.233168
H	 0.0241833521	-2.2446918227	-0.2396247377	 0.195122
H	-0.5924165932	 1.902832523	-0.7771287578	 0.149486
H	-0.5137853046	 1.7637866564	 0.9698758737	 0.128663
H	 2.0024379622	 1.6401706421	 0.8375055169	 0.11757
H	 1.914340788	 1.7766446293	-0.9157567814	 0.122166
H	 0.9043609888	 3.8849248111	 1.0609093372	 0.092736
H	 3.085363748	 4.8458004379	 0.8846392867	 0.119961
H	 3.6169778418	 3.4852798972	-0.1056985232	 0.118102
H	 1.1609324649	 5.4534170168	-2.4937764336	 0.142198
46.0658	80.5642	105.1854	130.915	225.715	343.9508	350.115	420.9844	500.9757	553.0035	618.7891	640.2168	729.4526	769.3625	846.3973	879.9181	935.8517	951.7967	965.2672	977.7682	1017.9532	1054.0718	1070.6397	1115.0593	1125.8344	1185.5683	1233.2318	1274.1782	1308.3699	1315.7786	1322.6455	1348.972	1374.4221	1403.8805	1471.2593	1485.5847	1501.6142	1712.0478	2240.3706	3019.9057	3036.0915	3042.4886	3044.2396	3063.883	3077.4314	3090.6682	3215.512	3507.362
C#CCCC1CN=CO1	C#CCC[C@H]1CN=CO1	
InChI=1S/C7H9NO/c1-2-3-4-7-5-8-6-9-7/h1,6-7H,3-5H2	InChI=1S/C7H9NO/c1-2-3-4-7-5-8-6-9-7/h1,6-7H,3-5H2/t7-/m0/s1
