13
gdb 17147	4.35574	2.01	1.63283	1.4924	65.03	-0.2452	0.0057	0.2509	770.9631	0.094548	-361.30075	-361.294558	-361.293614	-361.330909	24.483	
C	-0.0265801861	-1.1231286354	 0.0637144484	-0.370642
C	-0.0308065253	 0.0787190696	 0.0498139321	 0.0938
C	-0.0282234019	 1.5032452332	 0.021691669	 0.457619
O	-0.7120673716	 2.2785924948	 1.0586049553	-0.353513
C	-0.1574311913	 3.3032348413	 0.1895592695	 0.042679
C	 1.1615027083	 2.5211337284	-0.1176261253	-0.123963
N	 1.0206644259	 2.566430412	-1.6069398746	-0.340165
C	-0.3975648954	 2.5039094277	-1.1329560362	-0.123963
H	-0.0242973436	-2.1852970262	 0.0781646479	 0.191685
H	-0.3289729345	 4.3507610775	 0.4351933802	 0.102366
H	 2.1148650933	 2.5187640747	 0.4103861909	 0.103647
H	 1.2350834032	 3.5050086051	-1.95210935	 0.216804
H	-1.2658064911	 2.4814142276	-1.7912515772	 0.103646
144.7715	172.5388	391.9158	457.7896	527.3603	547.1125	596.2013	624.465	689.7836	750.1635	772.3718	812.4031	848.6605	877.5198	904.3833	927.1834	1004.4798	1051.8236	1087.5742	1107.4597	1130.1315	1151.2647	1203.5099	1244.1037	1273.8885	1290.9378	1365.3913	2241.6028	3121.9945	3126.615	3140.2956	3416.0316	3499.9351
C#CC12OC3C1NC23	C#C[C@@]12O[C@H]3[C@@H]1N[C@@H]23	
InChI=1S/C6H5NO/c1-2-6-4-3(8-6)5(6)7-4/h1,3-5,7H	InChI=1S/C6H5NO/c1-2-6-4-3(8-6)5(6)7-4/h1,3-5,7H/t3-,4-,5+,6+
