24
gdb 57549	3.69134	0.62078	0.60886	4.2372	90.44	-0.3109	0.0372	0.3481	1940.229	0.215152	-368.448644	-368.437478	-368.436534	-368.48524	40.9	
C	-0.120234024	 1.5596762351	 0.1106604975	-0.402813
C	-0.0110317158	 0.0244422766	 0.0573973105	 0.253685
C	 0.643825523	-0.4938927867	 1.3513063498	-0.40281
C	-1.4276554502	-0.5709346211	-0.0555635466	-0.402179
C	 0.790124774	-0.4305453541	-1.1890664181	-0.186243
C	 2.242604693	 0.0504112346	-1.2880322612	-0.202665
C	 2.9182247501	-0.4747305517	-2.5719434932	-0.338483
C	 4.3059601028	-0.0346815194	-2.6990931504	 0.25617
N	 5.401646049	 0.3233191475	-2.7821205675	-0.306139
H	 0.8545848823	 2.0367464956	 0.2509185282	 0.114864
H	-0.5611030143	 1.958098423	-0.8101620328	 0.108515
H	-0.7580405458	 1.8708300601	 0.9448095088	 0.112753
H	 0.0280860353	-0.2418835122	 2.2212361587	 0.112755
H	 0.7566153254	-1.5837676205	 1.3296522793	 0.108515
H	 1.6333550402	-0.0563368155	 1.515403843	 0.114859
H	-1.9344746121	-0.2218066629	-0.9621390528	 0.108793
H	-1.3971720779	-1.6657051692	-0.0899696161	 0.108793
H	-2.0432298691	-0.2814810325	 0.8028628346	 0.1107
H	 0.7813442611	-1.529133039	-1.2212549159	 0.091833
H	 0.2486776531	-0.0982379974	-2.0859584088	 0.09184
H	 2.2910519905	 1.1436519423	-1.2909973763	 0.122989
H	 2.824148596	-0.2878538586	-0.4249454978	 0.122982
H	 2.8989856078	-1.5708699127	-2.590254267	 0.150644
H	 2.3653007858	-0.1383223413	-3.4570081758	 0.150644
48.6239	85.0674	94.8453	129.7752	218.654	230.5097	262.1058	273.3846	285.7404	330.3615	338.7853	400.4799	411.6376	423.1862	475.6831	568.8063	741.4725	744.7432	838.2891	900.5062	932.6423	935.9248	957.8671	964.036	1000.8537	1011.9987	1043.3783	1077.9005	1095.4659	1164.5959	1219.6488	1262.4247	1267.9908	1285.4138	1317.0286	1347.3788	1357.9409	1394.4671	1399.0396	1400.9427	1431.7159	1468.8734	1477.1399	1481.4259	1488.0795	1488.809	1504.021	1508.5461	1509.3007	1519.2734	2361.6672	3000.233	3022.0047	3025.3125	3032.5638	3034.4729	3037.5062	3057.5426	3071.3083	3089.9224	3091.4956	3093.116	3097.4482	3098.3696	3104.1656	3106.8325
CC(C)(C)CCCC#N	CC(C)(C)CCCC#N	
InChI=1S/C8H15N/c1-8(2,3)6-4-5-7-9/h4-6H2,1-3H3	InChI=1S/C8H15N/c1-8(2,3)6-4-5-7-9/h4-6H2,1-3H3
