19
gdb 111346	2.45186	1.40999	1.05597	2.4696	74.85	-0.2496	0.0645	0.3141	1171.842	0.158714	-422.96157	-422.953168	-422.952224	-422.994723	32.255	
O	 0.027233305	 1.5030566781	-0.0894780459	-0.418444
C	 0.1028367796	 0.0971280651	 0.0936898867	-0.088384
C	-1.2696450611	-0.5601530607	 0.0434095479	-0.105174
C	-2.040431022	-0.5684224563	-1.298377652	-0.085622
C	-1.3712955192	-1.4580335888	-2.3106615661	-0.292642
C	-2.1988076961	-2.0923541774	-1.224308646	-0.144047
C	-1.4044240765	-2.0995174438	 0.0647597384	 0.442787
C	-0.5681953628	-3.1468161601	 0.6576537374	-0.27287
O	-1.8408475528	-2.7842300246	 1.2213697	-0.282555
H	-0.3434073666	 1.6582077202	-0.9646115155	 0.285804
H	 0.7790180508	-0.3638651428	-0.6433443535	 0.08446
H	 0.5536361683	-0.0526065746	 1.0808740952	 0.113347
H	-1.8987154475	-0.1471132076	 0.8381445525	 0.101758
H	-2.7891926706	 0.1596911126	-1.5841081872	 0.095765
H	-1.8243966759	-1.461553253	-3.2968643985	 0.118886
H	-0.2917587636	-1.5849833613	-2.3228840198	 0.113357
H	-3.0686959755	-2.705360536	-1.4231433487	 0.103307
H	-0.5264748216	-4.1318804894	 0.1944118098	 0.114986
H	 0.2970563682	-2.8825901296	 1.2643833253	 0.115282
80.5052	130.6784	153.5458	251.7584	277.8106	301.5542	332.5518	451.5064	475.4809	545.5861	586.2207	752.9447	787.3222	811.1422	864.7176	901.5168	917.7042	929.5404	974.2345	1003.8832	1019.0115	1055.38	1066.69	1088.6203	1096.5284	1118.0558	1128.3949	1152.5792	1166.3822	1188.4663	1205.6231	1228.0441	1287.7097	1334.966	1342.2567	1392.1474	1420.5464	1438.0196	1488.2177	1507.2722	1534.4296	2980.1012	3062.506	3075.3598	3079.2837	3115.209	3165.6429	3186.361	3195.268	3206.2163	3811.7172
OCC1C2CC2C11CO1	OC[C@H]1[C@H]2C[C@H]2[C@]21CO2	
InChI=1S/C7H10O2/c8-2-6-4-1-5(4)7(6)3-9-7/h4-6,8H,1-3H2	InChI=1S/C7H10O2/c8-2-6-4-1-5(4)7(6)3-9-7/h4-6,8H,1-3H2/t4-,5+,6-,7-/m0/s1
