20
gdb 7530	4.6994	1.08098	1.01774	2.8696	76.09	-0.242	-0.0193	0.2227	1220.0523	0.174254	-349.009631	-349.000195	-348.999251	-349.044059	33.932	
C	 0.0172629777	 1.471428291	-0.3048423846	-0.41514
C	 0.0693768341	-0.001724694	 0.037992152	-0.035274
C	 1.3657868937	-0.776563252	-0.0003457637	-0.330427
C	 0.6621958603	-0.5448532048	 1.3238710845	 0.336805
C	 1.2919920885	 0.3937607106	 2.338678471	-0.462721
C	-0.0479251586	-1.7370556079	 1.9573186827	-0.342003
C	 0.9065306109	-2.6616542569	 2.6860154113	 0.164784
O	 0.7569756486	-3.0645157962	 3.8109553417	-0.243356
H	 0.9275015784	 1.9987166991	-0.0074095411	 0.117499
H	-0.096787305	 1.6073312645	-1.3859578147	 0.120934
H	-0.8298694004	 1.9671507365	 0.1823390582	 0.119235
H	-0.8018737579	-0.5506782974	-0.3133686462	 0.081263
H	 1.3674390812	-1.7733163642	-0.4298476963	 0.107182
H	 2.2784432295	-0.2183040711	-0.185484867	 0.110166
H	 1.8319105861	 1.2143753568	 1.8614129641	 0.118314
H	 0.5318073768	 0.829357796	 2.9977432541	 0.121789
H	 2.0071531183	-0.139326877	 2.9757680475	 0.125746
H	-0.8256188053	-1.4209446047	 2.6610288086	 0.116779
H	-0.5305053232	-2.3336313934	 1.1700994027	 0.114097
H	 1.7964770464	-2.9615451749	 2.0843995253	 0.074329
55.566	72.7123	157.072	178.2479	183.8737	265.0292	267.5124	326.8925	364.2086	436.1895	476.9063	522.212	696.724	773.7861	811.4497	881.7098	907.7188	940.8578	972.8922	1005.0122	1029.1223	1057.7811	1070.5848	1113.4218	1135.2468	1138.8119	1193.3322	1208.9865	1261.6729	1310.5289	1349.9585	1407.6435	1423.1617	1425.9591	1426.8039	1453.6737	1486.531	1491.7871	1493.8153	1502.1276	1513.5159	1832.7777	2858.213	3012.2946	3027.7148	3032.7338	3080.0656	3082.4305	3088.8125	3105.4063	3120.0506	3123.5983	3129.0436	3204.275
CC1CC1(C)CC=O	C[C@H]1C[C@]1(C)CC=O	
InChI=1S/C7H12O/c1-6-5-7(6,2)3-4-8/h4,6H,3,5H2,1-2H3	InChI=1S/C7H12O/c1-6-5-7(6,2)3-4-8/h4,6H,3,5H2,1-2H3/t6-,7-/m0/s1
