19
gdb 72944	2.70057	1.70632	1.45426	1.9316	73.58	-0.2391	0.0586	0.2977	974.3505	0.159855	-422.9651	-422.95754	-422.956596	-422.996964	30.446	
O	-0.2232699853	 1.4820827838	 0.3218666129	-0.479446
C	 0.0059023445	 0.1410985718	-0.0098256768	 0.41061
C	 0.4012239469	-0.1911120595	-1.4747163765	-0.309048
C	-0.7573402548	-1.2385826716	-1.5351680005	-0.231787
C	-1.2160628224	-0.8259106216	-0.1093055243	-0.08894
C	-0.630556592	-1.6659019381	 1.0667094097	 0.114535
O	 0.1992219737	-2.7865243665	 0.6872707295	-0.288764
C	 1.406522439	-1.9969673613	 0.8349564088	-0.100048
C	 0.6003094498	-0.7273691414	 1.1584198702	-0.158958
H	 0.6263084588	 1.9381910026	 0.3402637442	 0.275362
H	 0.2141835318	 0.6752992665	-2.1141988594	 0.105091
H	 1.4152911591	-0.5521071341	-1.6644208039	 0.093038
H	-1.4945626865	-1.0424064328	-2.3152267942	 0.101789
H	-0.4345632162	-2.2780795584	-1.5995044924	 0.123869
H	-2.2377055862	-0.4663253382	 0.0149290246	 0.071665
H	-1.299372323	-1.9090709388	 1.8965871294	 0.076897
H	 2.0131848511	-2.3628533762	 1.6728385302	 0.103107
H	 2.0204000046	-1.9997117964	-0.0729483854	 0.104204
H	 0.8641361971	-0.1596036297	 2.0502344238	 0.076826
81.1096	227.4943	254.1008	264.3805	308.5436	374.7355	424.8997	513.7007	608.0223	642.6137	729.0024	777.9069	807.3867	840.7062	887.7749	898.9334	933.6368	952.3438	974.9603	991.6505	1003.2119	1045.6498	1065.8273	1089.9573	1126.8539	1152.2784	1169.0627	1180.7979	1208.3152	1220.9002	1238.6437	1248.3576	1269.0814	1285.3344	1301.7631	1316.0174	1355.5142	1372.1965	1468.4636	1488.6921	1521.3738	3015.8484	3055.98	3062.7717	3068.2005	3081.255	3108.3841	3111.3657	3115.9962	3142.5377	3783.5103
OC12CCC1C1OCC21	O[C@]12CC[C@H]1[C@H]1OC[C@@H]21	
InChI=1S/C7H10O2/c8-7-2-1-4(7)6-5(7)3-9-6/h4-6,8H,1-3H2	InChI=1S/C7H10O2/c8-7-2-1-4(7)6-5(7)3-9-6/h4-6,8H,1-3H2/t4-,5+,6+,7+/m0/s1
