17
gdb 28703	3.54901	1.06838	0.94223	2.1672	78.64	-0.2091	0.0188	0.2279	1291.499	0.136087	-418.041467	-418.032576	-418.031632	-418.076316	31.789	
C	-0.1377512806	 1.5071612142	 0.35743206	-0.492096
C	-0.1221160645	 0.0455232598	 0.0872425538	 0.363322
C	-0.9674996108	-0.7913763138	-0.5765098768	-0.255584
C	-0.3883619083	-2.0986126257	-0.5044152215	-0.228166
C	 0.763907709	-1.9654470335	 0.2002550307	 0.407123
N	 1.7299870401	-2.8819583615	 0.6043681523	-0.409007
C	 2.981819092	-2.9795713583	 0.0281481212	 0.063035
N	 3.3237997751	-2.3143770832	-0.9985313087	-0.439486
O	 0.9363737647	-0.6580163979	 0.5746630137	-0.193653
H	 0.7376342886	 2.0030581595	-0.0768031987	 0.143309
H	-1.0351062054	 1.9538915288	-0.0764872986	 0.133429
H	-0.1340278172	 1.7192149621	 1.4327375639	 0.134877
H	-1.8869597817	-0.5086625718	-1.0652071021	 0.104006
H	-0.766105609	-3.0152984588	-0.9282838917	 0.108733
H	 1.6030984403	-3.3491133968	 1.4882979569	 0.251919
H	 3.6078682047	-3.7060846862	 0.5622056507	 0.086826
H	 4.2728662531	-2.556456107	-1.2730233153	 0.221415
26.1251	98.3846	130.595	157.3339	222.3909	291.2598	335.421	352.7962	479.2668	577.4935	629.8905	648.9868	683.1696	796.3635	804.7658	826.1798	863.2615	962.4728	990.2133	1018.224	1044.2068	1051.1602	1064.9652	1095.0068	1204.2522	1224.5484	1248.8443	1291.6946	1389.1275	1410.3955	1415.7661	1472.6161	1491.8885	1504.0358	1603.5513	1667.2714	1737.9389	3030.3688	3034.2489	3081.4193	3128.0296	3250.5006	3266.8396	3517.6488	3614.2111
CC1=CC=C(NC=N)O1	Cc1ccc(NC=N)o1	
InChI=1S/C6H8N2O/c1-5-2-3-6(9-5)8-4-7/h2-4H,1H3,(H2,7,8)	InChI=1S/C6H8N2O/c1-5-2-3-6(9-5)8-4-7/h2-4H,1H3,(H2,7,8)
