22
gdb 22078	2.94823	0.97941	0.92631	0.6037	87.04	-0.2276	0.0119	0.2395	1417.1035	0.190934	-404.312092	-404.301379	-404.300435	-404.348	39.46	
C	-0.8750449427	 1.049965292	 0.0762177697	-0.474246
C	 0.160513583	-0.0449054854	 0.1068960148	 0.355147
N	 0.8405373886	-0.3378360001	 1.1523428343	-0.181244
O	 0.47451688	 0.4657090898	 2.2482055507	-0.402662
C	 0.3887595476	-0.8421177783	-1.1246811207	-0.126036
C	 1.3353207732	-2.0177636549	-1.169767312	-0.337044
C	-0.1431713477	-2.2744313511	-1.2942863374	 0.351991
C	-0.8577626873	-2.945446015	-0.1387592873	-0.460866
C	-0.6914282916	-2.6335933587	-2.6619793508	-0.449613
H	-1.2488034123	 1.214228679	-0.9360247922	 0.116141
H	-1.7204548949	 0.7915246167	 0.7235343356	 0.145463
H	-0.4585821953	 1.9824369631	 0.4679719498	 0.146885
H	 1.0826232651	 0.1619110543	 2.9298200722	 0.303596
H	 0.3248023279	-0.2416056894	-2.0289132503	 0.082349
H	 1.9576978567	-2.1246097942	-2.05240957	 0.103239
H	 1.8210238637	-2.2801258372	-0.2373981088	 0.129364
H	-0.4544731637	-2.6251836507	 0.8240265898	 0.13605
H	-1.930990968	-2.7197386359	-0.1519988688	 0.108351
H	-0.7502448421	-4.0343941158	-0.2061803807	 0.112122
H	-0.6160428185	-3.7130176535	-2.8407467717	 0.11582
H	-1.7490484514	-2.3581080367	-2.7507780265	 0.113723
H	-0.1435219904	-2.125911238	-3.4621521998	 0.111472
51.909	66.3181	120.8041	139.5664	214.848	240.0514	273.9369	302.1872	332.8722	363.7259	369.0408	396.2799	443.1834	482.278	559.4943	649.6563	701.046	776.3186	853.0792	920.7591	935.9499	966.3888	973.3483	991.3452	1034.1082	1047.066	1063.2634	1078.4489	1104.7309	1124.1972	1152.4989	1234.1205	1290.8444	1332.7935	1386.9544	1400.4366	1410.6618	1422.7992	1430.9521	1474.8715	1483.1892	1484.7374	1486.8202	1492.1753	1505.3703	1511.8141	1712.3129	3018.5209	3025.0612	3042.5233	3076.3611	3079.7084	3096.8144	3101.3408	3127.5556	3129.3381	3134.7985	3137.8604	3226.596	3824.2804
CC(=NO)C1CC1(C)C	CC(=NO)[C@H]1CC1(C)C	
InChI=1S/C7H13NO/c1-5(8-9)6-4-7(6,2)3/h6,9H,4H2,1-3H3	InChI=1S/C7H13NO/c1-5(8-9)6-4-7(6,2)3/h6,9H,4H2,1-3H3/t6-/m1/s1
