20
gdb 20018	4.21245	1.26142	1.1399	2.7351	75.28	-0.2324	0.0692	0.3016	1137.0125	0.178469	-345.135123	-345.126728	-345.125783	-345.168279	31.171	
C	-0.0260858165	 1.2738058966	-0.6186789791	-0.376344
C	 0.0102293416	-0.0005863506	 0.2323241711	-0.198323
C	-1.3611409319	-0.6198717603	 0.3898958917	 0.011072
N	-1.9017181995	-1.3865071197	-0.7513061001	-0.347124
C	-1.6201302456	-2.0815162399	 0.5155846162	-0.061691
C	-0.5398157574	-3.1250990954	 0.4680592634	-0.001118
C	-0.6941342329	-4.2950748539	-0.4329475053	-0.240141
N	 0.3037948989	-3.2522919312	-0.7263639802	-0.315468
H	 0.9720925805	 1.7097918182	-0.7214935145	 0.113628
H	-0.4062939651	 1.0549890245	-1.6213711438	 0.126937
H	-0.6770109752	 2.0340726778	-0.1717872227	 0.107869
H	 0.6956682299	-0.728168093	-0.2106458368	 0.127993
H	 0.4023942839	 0.2286190377	 1.23186038	 0.096791
H	-2.0754506645	 0.0216952706	 0.907856372	 0.080283
H	-2.897043837	-1.2245731754	-0.8679506498	 0.233881
H	-2.4738651538	-2.3582449117	 1.1343457371	 0.085106
H	-0.0063978936	-3.264771235	 1.4068393332	 0.091375
H	-0.2870401486	-5.2618534311	-0.1502242766	 0.113496
H	-1.5866677006	-4.3363023161	-1.0526592006	 0.10926
H	-0.0941354626	-2.6327985119	-1.4328984652	 0.242519
69.6294	116.2053	132.1794	208.9928	243.7532	264.187	327.1026	449.7721	551.4228	616.4515	743.1391	766.9183	827.1031	858.7124	868.5978	915.6568	948.2743	961.6023	993.6319	1026.7279	1042.5985	1050.1593	1102.4895	1116.2351	1141.2176	1155.381	1188.631	1203.5661	1244.3323	1266.1791	1297.6367	1305.6858	1322.9327	1346.9343	1392.2164	1407.2543	1431.8685	1473.0906	1485.55	1498.5355	1506.2227	1509.8407	3028.8803	3031.7546	3083.4215	3091.7789	3102.8661	3104.593	3109.6723	3113.2473	3120.7961	3190.9095	3462.6862	3519.7448
CCC1NC1C1CN1	CC[C@H]1N[C@H]1[C@H]1CN1	
InChI=1S/C6H12N2/c1-2-4-6(8-4)5-3-7-5/h4-8H,2-3H2,1H3	InChI=1S/C6H12N2/c1-2-4-6(8-4)5-3-7-5/h4-8H,2-3H2,1H3/t4-,5-,6-/m1/s1
