20
gdb 126390	3.38049	1.05554	0.86023	3.0498	84.18	-0.2013	0.0421	0.2434	1408.7966	0.171619	-399.358848	-399.348985	-399.348041	-399.394313	35.4	
C	-0.5414902165	 1.3472664658	 0.1682957875	-0.367828
C	 0.3860705751	 0.144083303	-0.0700650583	-0.281987
C	 0.9087851196	-0.4614103624	 1.1985360991	 0.368593
N	 2.1898470012	-0.3271719713	 1.528360994	-0.347135
N	 2.3185064282	-0.9801029796	 2.7171389017	 0.008489
C	 3.6000271286	-1.0530628974	 3.3760855682	-0.333719
C	 1.137629704	-1.4950968409	 3.1460405905	 0.384953
N	 1.0691083498	-2.2584698157	 4.3179881731	-0.609225
C	 0.1940305997	-1.1848468083	 2.1841743696	-0.393932
H	-0.0149222672	 2.1415868441	 0.7062175189	 0.121853
H	-0.9015366188	 1.7578866184	-0.7805987428	 0.107213
H	-1.4146022647	 1.0637808132	 0.7649666499	 0.112446
H	-0.1537000137	-0.6185876538	-0.6455226089	 0.099313
H	 1.2444592992	 0.4520495694	-0.6749208722	 0.11356
H	 3.7209851991	-0.2672613187	 4.1329109263	 0.12623
H	 3.7098548528	-2.029234823	 3.8565054914	 0.144564
H	 4.3735499497	-0.9280638309	 2.6181822698	 0.158188
H	 1.4060284553	-1.7670065352	 5.1384150566	 0.249478
H	 0.1254609829	-2.5771356098	 4.4935450488	 0.253626
H	-0.8533072045	-1.442437957	 2.1975312668	 0.08532
34.7864	93.2865	121.1405	172.5147	198.9032	215.7927	262.2273	281.7319	314.7684	415.5595	504.9014	593.8242	649.8618	665.1163	724.473	748.5044	788.5515	792.9435	818.0375	964.704	1018.1531	1043.9979	1075.2602	1096.7208	1107.6632	1149.9084	1187.8535	1252.5951	1283.8382	1311.1719	1351.8225	1404.8595	1426.6456	1450.3774	1478.8507	1487.2915	1492.0423	1496.9042	1507.5509	1512.4594	1555.4099	1598.7127	1658.863	3018.6767	3026.944	3033.719	3080.4862	3095.0075	3103.9246	3111.463	3155.362	3251.7047	3522.2923	3621.7844
CCC1=NN(C)C(N)=C1	CCc1nn(C)c(N)c1	
InChI=1S/C6H11N3/c1-3-5-4-6(7)9(2)8-5/h4H,3,7H2,1-2H3	InChI=1S/C6H11N3/c1-3-5-4-6(7)9(2)8-5/h4H,3,7H2,1-2H3
