18
gdb 50866	4.99802	0.71342	0.66511	3.709	74.91	-0.2472	-0.0267	0.2205	1671.1052	0.1457	-439.108169	-439.098573	-439.097629	-439.144715	33.396	
O	-0.5911188955	 1.0534677928	 0.7405559921	-0.238877
C	 0.0968286544	 1.1741350245	-0.2385566448	 0.166201
C	 1.4724974506	 1.8241668555	-0.231298601	-0.392825
C	 1.6452671081	 2.7242626606	-1.4553643458	 0.395108
O	 1.4476700135	 2.3049411889	-2.5799754599	-0.367699
N	 2.0263943935	 4.0070624917	-1.1854152415	-0.328685
C	 2.1350546373	 5.0009826429	-2.2134351952	 0.062061
C	 3.1952961277	 6.0575141374	-2.0594122	-0.296578
C	 3.3387758654	 4.9902534424	-3.1153541198	-0.237111
H	-0.2203984375	 0.812599859	-1.2377080208	 0.112546
H	 1.6349167995	 2.3193318709	 0.7289778243	 0.116664
H	 2.2078781697	 1.0154589933	-0.3360461591	 0.158115
H	 2.0408886332	 4.3133488683	-0.2256637688	 0.250875
H	 1.1896384346	 5.295572961	-2.66141456	 0.10976
H	 2.9495926613	 7.0686860417	-2.3622559012	 0.123594
H	 3.8431567473	 5.9935958399	-1.1915060005	 0.115888
H	 4.0717543451	 4.2107032247	-2.947886346	 0.125934
H	 3.1891896417	 5.2578318046	-4.1545058721	 0.125028
29.7292	46.0835	85.8332	107.7643	154.772	237.6966	332.5789	373.5356	448.7026	458.5234	486.1565	612.4665	732.4154	765.8165	803.9591	830.4057	852.6511	915.8087	986.4091	1021.6978	1041.2086	1063.1055	1064.3412	1079.805	1124.1895	1152.2543	1193.2547	1201.2853	1231.5675	1263.2676	1316.8892	1399.8352	1404.7619	1444.102	1462.751	1499.1871	1516.4327	1777.622	1836.0611	2937.5242	3035.2141	3110.9445	3134.9256	3137.3643	3151.4576	3220.6139	3241.8609	3629.8623
O=CCC(=O)NC1CC1	O=CCC(=O)NC1CC1	
InChI=1S/C6H9NO2/c8-4-3-6(9)7-5-1-2-5/h4-5H,1-3H2,(H,7,9)	InChI=1S/C6H9NO2/c8-4-3-6(9)7-5-1-2-5/h4-5H,1-3H2,(H,7,9)
