17
gdb 53872	4.39774	0.67926	0.60237	2.8373	71.41	-0.2503	-0.0933	0.157	1767.1262	0.130692	-459.005794	-458.995343	-458.994398	-459.043864	34.349	
C	 0.0366494422	 1.4845542401	 0.2087245805	-0.474665
C	 0.0630388507	-0.0187445774	 0.3119661839	 0.310679
O	 1.0591583812	-0.675284738	 0.5052131244	-0.271075
C	-1.3017546041	-0.736974621	 0.1514092378	 0.271951
O	-2.3039022986	-0.090203916	-0.0431610872	-0.277486
C	-1.2717182938	-2.2496232613	 0.2373876885	-0.314547
C	-2.6712555108	-2.8714317519	 0.2462763401	-0.278152
C	-2.6217451892	-4.363297603	 0.0098794587	 0.159345
O	-3.1285809252	-5.1932288339	 0.7178166462	-0.234304
H	 1.0448508125	 1.8798695093	 0.3322723617	 0.145275
H	-0.3779909134	 1.7872207205	-0.7581135703	 0.15846
H	-0.6332249812	 1.8997650872	 0.9685705105	 0.159444
H	-0.6784709535	-2.6083101677	-0.6167417133	 0.144845
H	-0.6837868199	-2.5374174591	 1.1157213346	 0.155805
H	-3.1950523483	-2.6754933462	 1.1849129516	 0.133252
H	-3.2610098524	-2.4183607963	-0.5621393011	 0.140186
H	-2.0619070563	-4.6593409252	-0.9099579967	 0.070988
35.7767	49.1236	57.949	77.1275	100.7989	142.4801	253.3673	284.7541	351.8916	360.7409	497.6924	535.3847	586.1219	604.7572	754.38	791.6351	844.0349	918.1209	994.7563	1022.9033	1054.2789	1090.597	1098.6082	1182.3408	1228.6344	1274.0845	1300.8567	1376.6353	1386.3386	1429.9787	1436.6429	1451.6084	1459.3144	1464.2218	1802.9237	1810.2983	1840.6252	2843.3546	3021.0198	3033.2038	3049.8793	3078.6668	3110.755	3114.5331	3163.8943
CC(=O)C(=O)CCC=O	CC(=O)C(=O)CCC=O	
InChI=1S/C6H8O3/c1-5(8)6(9)3-2-4-7/h4H,2-3H2,1H3	InChI=1S/C6H8O3/c1-5(8)6(9)3-2-4-7/h4H,2-3H2,1H3
