22
gdb 117341	3.78278	0.74337	0.71204	2.2261	81.1	-0.2467	0.0662	0.3129	1748.0374	0.191847	-441.548205	-441.537006	-441.536062	-441.586621	39.154	
C	-0.1178394591	 1.089565441	 0.7267171669	-0.370319
C	-0.1116633946	 0.1163870904	-0.4551884229	-0.142128
N	-1.3445705419	-0.6385998652	-0.5874636487	-0.357242
C	-1.4652000812	-1.9190292338	-0.1413260436	 0.516614
O	-0.5615018303	-2.5984863416	 0.2995128334	-0.422224
O	-2.7512718916	-2.3318090449	-0.2824774336	-0.294212
C	-3.0384482048	-3.6890172937	 0.1335607974	 0.157048
C	-3.2658226361	-3.731876351	 1.6414694049	-0.395209
C	-4.251755607	-4.1286655296	-0.6734827429	-0.393569
H	 0.8267583598	 1.6411098322	 0.7735134404	 0.117957
H	-0.9290956379	 1.8201839138	 0.6361748219	 0.11072
H	-0.2483450057	 0.549685529	 1.6690098233	 0.132968
H	 0.0724607269	 0.6579909984	-1.3906645707	 0.104893
H	 0.6863533867	-0.6197300735	-0.3375398752	 0.147347
H	-2.1933678447	-0.1677213804	-0.8551211754	 0.247429
H	-2.1672589311	-4.3002594559	-0.11807244	 0.108638
H	-2.3649844754	-3.411296457	 2.1688781733	 0.140874
H	-4.0985276637	-3.0797241958	 1.9249688275	 0.114857
H	-3.5047000023	-4.7522259992	 1.9579271142	 0.114657
H	-4.0472747062	-4.0684865493	-1.7458341412	 0.122066
H	-4.5119867975	-5.1625012084	-0.4279958693	 0.118242
H	-5.1165573623	-3.4950973754	-0.4515769299	 0.120594
15.4461	51.8178	68.9767	101.6342	156.1162	213.8852	237.4028	259.3805	295.9985	328.075	386.9888	413.9462	453.8904	471.5551	516.845	704.986	781.2646	802.3131	834.7456	908.6924	926.01	932.2397	950.2894	1011.6672	1095.3966	1142.4108	1159.8589	1168.1992	1180.9847	1202.1241	1250.2253	1327.3099	1358.754	1385.7548	1397.2075	1401.3717	1411.1986	1416.4333	1479.4464	1480.7657	1485.8019	1493.0865	1495.6319	1502.1291	1511.7045	1547.968	1801.9688	3034.1394	3035.7613	3038.2225	3042.7958	3073.9314	3097.1587	3106.7519	3115.2979	3118.1376	3120.9697	3126.3909	3134.8725	3646.7303
CCNC(=O)OC(C)C	CCNC(=O)OC(C)C	
InChI=1S/C6H13NO2/c1-4-7-6(8)9-5(2)3/h5H,4H2,1-3H3,(H,7,8)	InChI=1S/C6H13NO2/c1-4-7-6(8)9-5(2)3/h5H,4H2,1-3H3,(H,7,8)
