21
gdb 61684	4.53816	0.76375	0.69218	2.1376	80.65	-0.2689	-0.0368	0.2321	1637.5713	0.181242	-424.225706	-424.216224	-424.21528	-424.260899	34.778	
O	 0.0349766496	 1.5104236705	-0.0145650903	-0.427058
C	-0.0067283375	 0.1092846573	 0.0158542559	 0.047848
C	 0.6520471888	-0.5156078988	-1.2289347899	-0.238978
C	-0.0385955626	-0.1269494618	-2.5306155784	 0.065977
C	 0.1128321953	 1.3154243278	-3.0925577025	-0.198456
C	 0.1973459953	 0.7090590038	-4.5184994032	-0.217227
C	 0.5482629285	-0.6574574328	-3.8697051554	-0.2407
C	 0.6530197997	-0.4055677654	 1.2777170513	 0.135773
O	 1.138742639	 0.3400998792	 2.0942318789	-0.261435
H	 0.4811784708	 1.776028399	 0.8052890356	 0.293265
H	-1.056680335	-0.2403918906	 0.0530861027	 0.090422
H	 1.7050780419	-0.2068039323	-1.259116562	 0.103873
H	 0.6378922046	-1.6096808536	-1.1209948507	 0.094118
H	-1.1025224885	-0.3889875799	-2.4671917475	 0.067238
H	-0.6813209912	 2.0316210723	-2.8754535943	 0.103003
H	 1.0641156725	 1.7564229376	-2.781771096	 0.101754
H	-0.7801946819	 0.6833793541	-5.0090831898	 0.099848
H	 0.9210310947	 1.1399139092	-5.2142919538	 0.094886
H	 1.6321372945	-0.7986385192	-3.7960177951	 0.096619
H	 0.1099075079	-1.5634963668	-4.2964956781	 0.092528
H	 0.6704290034	-1.5069646796	 1.4102870628	 0.096702
53.7957	79.4555	98.373	138.8362	212.3059	280.5552	296.2041	337.5777	420.8835	425.0558	502.868	632.474	746.3044	762.2932	788.6517	841.1042	869.4421	902.1879	932.4762	952.1197	967.5431	987.3563	1012.6001	1052.0315	1121.9763	1148.6724	1166.6277	1201.5664	1220.0951	1249.5672	1253.9932	1261.0016	1269.8094	1281.5347	1297.4409	1330.4626	1355.8241	1389.8574	1402.5109	1439.068	1469.892	1478.0343	1487.9881	1510.6321	1811.7519	2917.7058	2934.2062	3006.378	3020.0173	3042.7074	3055.9354	3056.4096	3066.6354	3093.6684	3107.9434	3125.2845	3688.1425
OC(CC1CCC1)C=O	O[C@@H](CC1CCC1)C=O	
InChI=1S/C7H12O2/c8-5-7(9)4-6-2-1-3-6/h5-7,9H,1-4H2	InChI=1S/C7H12O2/c8-5-7(9)4-6-2-1-3-6/h5-7,9H,1-4H2/t7-/m0/s1
