19
gdb 94242	3.07603	1.01733	0.96247	3.0903	72.74	-0.2636	-0.001	0.2626	1309.3907	0.156245	-460.170532	-460.160953	-460.160009	-460.205121	34.439	
C	-0.5021709012	 1.3440909368	-0.0127763416	-0.422908
C	 0.2099633823	 0.0112813572	 0.0109814428	 0.128528
O	 1.5076585235	 0.04546428	-0.6370723956	-0.292154
C	 2.0815899713	-0.7929429151	 0.3796039137	-0.119636
C	 0.8596864868	-0.5534872837	 1.3005119938	 0.300888
C	 1.0824642041	 0.4217550517	 2.4441376741	-0.438858
O	 0.1450498596	-1.7107290168	 1.7634198459	-0.230109
C	 0.8280516813	-2.6425068724	 2.4538146143	 0.157026
O	 0.307757516	-3.6141494162	 2.9144092161	-0.273198
H	 0.0977268558	 2.1338403142	 0.445869103	 0.123614
H	-0.7038745331	 1.6298760588	-1.0496057109	 0.137812
H	-1.4610105304	 1.2742746626	 0.5109798388	 0.130501
H	-0.4212357461	-0.7679579273	-0.4391643893	 0.091795
H	 2.1821792553	-1.8359266321	 0.0496583165	 0.108204
H	 3.0516986701	-0.4207858095	 0.7259808874	 0.11177
H	 1.5828168638	 1.3255275452	 2.0869977343	 0.139395
H	 0.1301144651	 0.7036023587	 2.9018262081	 0.139617
H	 1.7136760358	-0.0281872475	 3.2172945532	 0.125388
H	 1.90896517	-2.4202728745	 2.5389117256	 0.082326
81.1079	95.8733	147.5384	168.5016	206.016	233.3718	280.3223	286.7693	343.9429	395.702	460.0822	498.0241	552.1315	750.6973	785.2947	875.6066	909.6603	923.6097	988.202	1026.9297	1037.4422	1045.1835	1095.8913	1117.1961	1164.3909	1177.4294	1195.4645	1218.3262	1269.9287	1294.2349	1358.5964	1390.1241	1412.0274	1415.7239	1434.0268	1477.3035	1485.102	1494.7406	1500.9855	1516.6558	1863.5222	2952.0494	3004.1974	3012.5872	3041.8123	3045.028	3071.8153	3111.76	3114.0152	3125.4096	3131.1185
CC1OCC1(C)OC=O	C[C@H]1OC[C@]1(C)OC=O	
InChI=1S/C6H10O3/c1-5-6(2,3-8-5)9-4-7/h4-5H,3H2,1-2H3	InChI=1S/C6H10O3/c1-5-6(2,3-8-5)9-4-7/h4-5H,3H2,1-2H3/t5-,6+/m1/s1
