19
gdb 87755	4.62658	0.85478	0.81247	3.5594	79.46	-0.2423	0.0228	0.2651	1450.7523	0.158795	-419.190724	-419.181595	-419.180651	-419.225977	32.717	
C	 0.0987926806	 1.5343604543	-0.2974968965	-0.395116
C	 0.0572609811	 0.0449050647	-0.0617188592	-0.065212
N	 1.3617177021	-0.6512312281	 0.0313931998	-0.374767
C	 0.5018843652	-0.5809626696	 1.2003084502	 0.311759
C	 0.9248085434	 0.0636443251	 2.5336285878	-0.24296
N	 0.2674605131	-1.0683947101	 3.2005162446	-0.051121
C	-0.1383888544	-1.75085283	 1.9705846345	-0.252285
C	-0.0611218752	-1.3379495405	 4.481469426	 0.135845
O	-0.7138025643	-2.299445653	 4.8347578216	-0.333233
H	 0.9292012782	 1.9889159212	 0.2494975933	 0.128484
H	 0.2378333638	 1.7548527323	-1.3608608707	 0.127589
H	-0.8342040544	 2.0077800915	 0.0269235618	 0.120643
H	-0.7408610076	-0.4814402968	-0.5854727479	 0.090014
H	 1.3161445244	-1.5743507718	-0.3940208825	 0.234294
H	 2.0086486174	 0.1113569841	 2.6856975245	 0.126216
H	 0.4796593044	 1.0405379408	 2.7551853193	 0.119327
H	-1.2224016572	-1.8711867422	 1.8676559383	 0.128558
H	 0.3432062846	-2.7266129318	 1.8311629901	 0.12256
H	 0.3404767547	-0.5763657301	 5.181417055	 0.069405
19.7464	106.4263	145.5043	180.4812	194.5207	224.8711	321.5175	380.9782	444.638	447.5368	478.7624	635.6896	777.733	808.4389	859.133	930.0359	939.7325	955.7727	1005.3745	1033.7297	1046.501	1071.2612	1121.5926	1123.915	1133.3451	1171.2667	1177.3062	1230.2384	1265.5852	1275.7641	1298.3611	1367.173	1398.2925	1411.7953	1446.3461	1480.2654	1490.9646	1501.2635	1516.8504	1521.2526	1790.0791	2922.3217	3021.4071	3028.4462	3036.068	3070.5363	3074.466	3100.817	3101.809	3123.17	3494.0407
CC1NC11CN(C1)C=O	C[C@H]1NC21CN(C2)C=O	
InChI=1S/C6H10N2O/c1-5-6(7-5)2-8(3-6)4-9/h4-5,7H,2-3H2,1H3	InChI=1S/C6H10N2O/c1-5-6(7-5)2-8(3-6)4-9/h4-5,7H,2-3H2,1H3/t5-/m1/s1
