20
gdb 76974	2.29481	1.21564	0.9215	3.0943	82.67	-0.2348	-0.0284	0.2065	1331.8557	0.168961	-403.108272	-403.098869	-403.097925	-403.143118	34.505	
C	 0.0018487804	 0.7418201305	-2.2571682364	-0.421055
C	 0.1049917688	-0.243437689	-1.1114166849	-0.003217
C	 1.3966732393	-0.5542524427	-0.3761641323	-0.123745
C	 2.6611453967	 0.1396326588	-0.7241004524	 0.160487
O	 3.7296719947	-0.4235627845	-0.7569037002	-0.268652
N	 0.2643407364	 0.1354113702	 0.2738003205	-0.106489
C	 0.351215945	 1.5148304982	 0.6766609472	 0.063084
C	-0.7382635136	 1.9969407655	 1.5993916923	-0.271918
C	 0.6564462718	 1.7654672069	 2.1282219755	-0.273203
H	 0.7004550184	 1.5763586591	-2.1849923608	 0.126555
H	 0.1946297892	 0.2283498386	-3.2041588862	 0.134429
H	-1.0113181368	 1.1550737361	-2.3034039178	 0.133988
H	-0.5509152248	-1.10541739	-1.236269708	 0.105111
H	 1.5630314232	-1.5735820679	-0.0352380288	 0.109151
H	 2.5851998718	 1.2237698278	-0.95058425	 0.071294
H	 0.733749356	 2.2448986294	-0.0335093293	 0.0838
H	-1.0912723513	 3.0156628524	 1.485245353	 0.113158
H	-1.4977255144	 1.2729489903	 1.8697569559	 0.12417
H	 0.8136750709	 0.8914670042	 2.7491697221	 0.126782
H	 1.2695010482	 2.6229850362	 2.3808219006	 0.11627
48.3153	94.3569	135.5556	166.8546	200.2309	240.0126	301.825	331.4649	411.7727	441.9136	522.6453	585.5507	681.755	765.9237	795.1798	838.4561	888.3754	939.6184	960.3653	971.7558	1015.5055	1029.0283	1058.9755	1079.5234	1082.5996	1114.0755	1127.122	1142.667	1187.5104	1194.2797	1197.1594	1232.9064	1315.1318	1349.5656	1396.7135	1411.4585	1416.2683	1449.9744	1455.9271	1492.0067	1497.0252	1502.1763	1803.8789	2904.1351	3044.7679	3096.1244	3104.0285	3111.5787	3139.18	3140.1585	3141.9316	3145.0933	3225.764	3239.2967
CC1C(C=O)N1C1CC1	C[C@H]1[C@@H](C=O)N1C1CC1	
InChI=1S/C7H11NO/c1-5-7(4-9)8(5)6-2-3-6/h4-7H,2-3H2,1H3	InChI=1S/C7H11NO/c1-5-7(4-9)8(5)6-2-3-6/h4-7H,2-3H2,1H3/t5-,7+,8?/m0/s1
