20
gdb 81499	3.57821	1.27116	1.06555	1.668	86.94	-0.2258	0.0331	0.2589	1189.6727	0.169361	-365.894686	-365.885655	-365.884711	-365.927861	35.154	
C	-0.050611951	 1.6376445976	 0.4342485787	-0.452004
C	 0.0624881467	 0.1431997941	 0.1894451091	 0.093777
C	 0.7989751777	-0.4794320386	-1.0236860286	-0.116667
C	 2.0868800316	-0.0636390495	-0.2857135536	-0.193391
N	 1.2281574596	-0.6302534517	 0.8663655348	-0.192849
C	 0.8870966068	-1.7818909646	-0.1546975534	 0.182653
C	-0.3383174473	-2.6520620782	 0.1487625583	-0.487637
C	 2.0021570143	-2.6882313427	-0.412678823	 0.280447
C	 2.8576187747	-3.5057357062	-0.6293850717	-0.440515
H	 0.8093530936	 2.2244254297	 0.1073513025	 0.122338
H	-0.9316886849	 2.0222625099	-0.0908326137	 0.120824
H	-0.1978522271	 1.8222578485	 1.5037299662	 0.134117
H	-0.8998549193	-0.3008926469	 0.4409996476	 0.069896
H	 0.5585997191	-0.4112219175	-2.0914429381	 0.0649
H	 2.995320376	-0.6338385608	-0.4743309548	 0.12412
H	 2.3112482206	 0.9955326857	-0.1816084909	 0.099362
H	-1.2767032502	-2.1016410881	 0.2106478476	 0.123304
H	-0.4429808699	-3.4067116888	-0.635277382	 0.133671
H	-0.1825165675	-3.175865948	 1.0963491564	 0.14276
H	 3.6275056563	-4.212648364	-0.8178290514	 0.190895
116.9087	131.3722	152.3742	171.828	249.1812	299.0111	306.3876	425.6125	486.0311	524.0702	534.4946	614.4914	629.194	645.825	663.8069	721.6962	791.2361	798.2426	826.3838	905.0525	930.2469	1021.4966	1038.4086	1060.0794	1082.6057	1099.2829	1107.2152	1147.0234	1179.1401	1190.0828	1228.8707	1238.6361	1244.1564	1270.0292	1401.1315	1412.3081	1436.7347	1487.5889	1490.3565	1496.5765	1504.7292	1547.3693	2223.7641	3029.4498	3040.9309	3055.1068	3098.1649	3103.7067	3110.0031	3120.163	3133.1098	3148.6809	3169.578	3501.0849
CC1C2CN1C2(C)C#C	C[C@H]1[C@H]2CN1[C@]2(C)C#C	
InChI=1S/C8H11N/c1-4-8(3)7-5-9(8)6(7)2/h1,6-7H,5H2,2-3H3	InChI=1S/C8H11N/c1-4-8(3)7-5-9(8)6(7)2/h1,6-7H,5H2,2-3H3/t6-,7+,8+/m0/s1
