18
gdb 72638	1.72667	1.27018	1.12026	2.1351	78.63	-0.2407	-0.0637	0.177	1269.2512	0.143695	-439.0404	-439.029566	-439.028622	-439.077088	36.818	
C	 0.0034640003	 1.8945694014	 0.28723564	-0.520225
C	-0.122892735	 0.4839422632	 0.6888938488	 0.225928
N	 0.5744758903	-1.3870021535	-1.4325854895	-0.519906
H	-0.3370048515	-1.8337453912	-1.3808427079	 0.232099
H	 1.0781768826	-1.8607315379	-2.1758845888	 0.230824
C	 1.2857275921	-1.5679632988	-0.1662030696	-0.229216
C	 0.633476483	-0.7703874798	 0.9561575586	 0.252059
O	 1.4142996289	-0.797000819	 2.1346376778	-0.468882
C	-0.8391172001	-0.5546406479	 1.0523335799	 0.00256
C	-2.1526386708	-1.1054947586	 1.3447420666	 0.047448
O	-2.3551310841	-2.2558398678	 1.6658688749	-0.279893
H	 0.7056679428	 2.4127981242	 0.9496517806	 0.158172
H	 0.4200324107	 1.9435638484	-0.7252416015	 0.166731
H	-0.9552899789	 2.4189890462	 0.3032884181	 0.138386
H	 1.3736093861	-2.6200016106	 0.1609476159	 0.081517
H	 2.3090784594	-1.1948326001	-0.2884868023	 0.113967
H	 1.2943196892	-1.6579502672	 2.5502969978	 0.285354
H	-2.987437785	-0.3780143909	 1.2492128907	 0.083076
47.3559	82.6815	107.6962	139.3445	156.5379	173.21	178.1743	202.3896	246.2059	299.7688	429.6169	454.1136	520.1473	576.6541	590.4708	687.1045	712.5397	869.1316	939.1516	1004.4081	1026.5372	1046.924	1062.4731	1082.0649	1124.655	1173.4762	1226.7759	1282.5351	1296.5837	1363.9652	1392.055	1415.973	1422.6747	1472.8751	1476.631	1506.7291	1655.3986	1769.5195	1867.9413	2893.2254	2933.921	3033.7919	3057.0411	3094.4696	3120.5418	3490.0258	3568.4386	3800.8742
CC12[NH2+]CC1(O)[C-]2C=O	CC1=C([C@]1(CN)O)C=O	
InChI=1S/C6H8NO2/c1-5-4(2-8)6(5,9)3-7-5/h2,7,9H,3H2,1H3/q-1/p+1	InChI=1S/C6H9NO2/c1-4-5(2-8)6(4,9)3-7/h2,9H,3,7H2,1H3/t6-/m1/s1
