22
gdb 114705	3.60929	1.11934	1.05331	1.5478	82.55	-0.2174	0.0819	0.2993	1272.3081	0.194315	-404.329434	-404.32039	-404.319446	-404.362832	34.821	
C	 0.2558875424	 0.7268325506	 0.6808377292	-0.239799
O	 0.0779319965	-0.4526081077	-0.0684635666	-0.237492
C	 0.5772046626	-0.3748285072	-1.4002320079	 0.090909
C	 2.1151471626	-0.5570468206	-1.4968707487	-0.180934
N	 2.4106774192	-1.9740518289	-1.7589466908	-0.135462
C	 1.7377591915	-2.8981248181	-0.8230730912	-0.295436
C	 1.1412543147	-2.6238280941	-2.1582567853	 0.343848
C	 1.1899142129	-3.6477072981	-3.2650302888	-0.475994
C	 0.0325599989	-1.5753496329	-2.1939252785	-0.293759
H	 1.3161671042	 0.9769530737	 0.8336036981	 0.107661
H	-0.2321315496	 1.5878301053	 0.1970277255	 0.105037
H	-0.2058880085	 0.5616918851	 1.657376576	 0.128354
H	 0.2599121226	 0.5832675253	-1.8378757964	 0.065939
H	 2.505913041	 0.0258109229	-2.3392894594	 0.102984
H	 2.6296940722	-0.2167571834	-0.5926945871	 0.107727
H	 2.2729437952	-3.8304475679	-0.6612123518	 0.103933
H	 1.2511961973	-2.4835136883	 0.0540516545	 0.131257
H	 2.0822451181	-4.2723666324	-3.1748871148	 0.125813
H	 0.3098234702	-4.3002247119	-3.2329435159	 0.115066
H	 1.2125822078	-3.1635696194	-4.2483166886	 0.113378
H	-0.9115861134	-1.919764621	-1.7641065859	 0.117193
H	-0.1587980185	-1.2838736408	-3.2330833753	 0.099776
99.8927	130.2621	168.1722	199.7887	232.5702	289.8192	315.133	378.8384	389.3541	433.6895	465.844	606.7937	705.034	773.0348	782.0918	809.071	881.6859	905.5265	934.1128	963.3953	987.1623	1029.8973	1043.4618	1087.5461	1111.0002	1122.8815	1139.8651	1175.1788	1183.2442	1199.107	1212.7617	1258.2997	1277.294	1279.8469	1328.9823	1349.8323	1383.8166	1399.1325	1419.4954	1473.1102	1478.1393	1483.1646	1488.4257	1491.3516	1493.9817	1508.5071	1513.7126	2973.79	2988.2983	3022.869	3026.3796	3036.0621	3045.7951	3085.6131	3085.9651	3101.6698	3108.479	3113.6759	3117.5395	3204.9043
COC1CN2CC2(C)C1	CO[C@H]1CN2C[C@@]2(C)C1	
InChI=1S/C7H13NO/c1-7-3-6(9-2)4-8(7)5-7/h6H,3-5H2,1-2H3	InChI=1S/C7H13NO/c1-7-3-6(9-2)4-8(7)5-7/h6H,3-5H2,1-2H3/t6-,7-,8?/m1/s1
