17
gdb 67690	2.37791	1.93379	1.49982	3.2857	73.36	-0.2358	0.0048	0.2406	949.8019	0.137077	-417.965054	-417.957643	-417.956699	-417.996743	28.894	
C	-0.1535415833	 1.4791439649	-0.0235678118	-0.519694
C	 0.0978170596	 0.0091229624	 0.0447754229	 0.347196
C	 0.7870983435	-0.8836314017	-0.8877838114	-0.113063
C	 1.6629870065	-1.8543257678	-0.1081604172	-0.105469
O	 1.359779474	-1.6080577462	 1.2720837943	-0.258811
C	 0.1086075259	-0.9383256781	 1.2734090193	-0.092489
C	-0.939433261	-1.7400364069	 0.4847943296	 0.378371
N	-1.816129806	-2.6194064667	 0.6775294854	-0.532861
N	-0.7144925677	-1.0282136497	-0.757664409	-0.200881
H	 0.6798008219	 2.0346261232	 0.4204955658	 0.134204
H	-0.266392502	 1.8010299973	-1.0623948702	 0.141377
H	-1.0673779211	 1.7497931508	 0.5151772557	 0.135999
H	 1.0834470373	-0.5597683116	-1.8787995057	 0.116214
H	 1.4470153398	-2.8989761404	-0.3683366837	 0.123255
H	 2.7278613782	-1.6610520657	-0.2737598377	 0.119815
H	-0.1145328124	-0.5784334828	 2.2773245008	 0.09929
H	-1.8207424333	-2.9083504309	 1.6576913929	 0.227548
118.1281	184.8353	223.8522	249.0612	292.4668	387.7621	475.6412	576.4866	611.478	662.6983	712.1711	746.1387	835.0286	836.8068	888.9363	925.0512	946.1807	953.647	1001.5794	1034.4778	1057.7487	1082.6504	1093.3843	1110.8068	1175.3745	1218.3626	1238.4926	1265.0878	1296.41	1314.1015	1367.4048	1412.8133	1459.9297	1485.665	1491.3352	1511.8057	1795.3551	3019.9651	3035.353	3076.9789	3099.3571	3117.8416	3130.2032	3187.8666	3463.1737
CC12C3COC1C(=N)N23	C[C@@]12[C@H]3CO[C@@H]1[C]([NH])N23	
InChI=1S/C6H8N2O/c1-6-3-2-9-4(6)5(7)8(3)6/h3-4,7H,2H2,1H3	InChI=1S/C6H8N2O/c1-6-3-2-9-4(6)5(7)8(3)6/h3-4,7H,2H2,1H3/t3-,4-,6-,8?/m1/s1
