19
gdb 108485	2.1611	1.64363	1.27246	0.7923	70.6	-0.2389	0.0599	0.2988	1080.3031	0.157692	-460.106921	-460.097935	-460.096991	-460.140973	33.125	
C	-0.1961350007	 1.4666338978	 0.1205253619	-0.269615
O	-0.0421078632	 0.0570734609	 0.0757090222	-0.293224
C	-1.2498245617	-0.6204480193	-0.0228410248	 0.362254
C	-2.1478606923	-0.7269796714	 1.2268586829	-0.148557
O	-2.2292956505	-2.1655473221	 1.0895150335	-0.290741
C	-1.3324291379	-2.1708792836	-0.0441686943	 0.033599
C	-2.1083127228	-2.14016097	-1.3789854002	-0.286456
C	-2.008849441	-0.5784048739	-1.3906279783	 0.059707
O	-3.174365453	 0.1945372554	-1.5282729403	-0.433276
H	 0.8071115066	 1.896314624	 0.1513635733	 0.130831
H	-0.7252340019	 1.8476094276	-0.7632263722	 0.127369
H	-0.7465898061	 1.7857020449	 1.0176742604	 0.112116
H	-1.6296148716	-0.4366422086	 2.1491517967	 0.109398
H	-3.1328560476	-0.2440844633	 1.1983328682	 0.090461
H	-0.4824821209	-2.8433903987	 0.081952422	 0.08601
H	-1.6134370265	-2.623041337	-2.2247174621	 0.111785
H	-3.1224800818	-2.5369812509	-1.2834046346	 0.108163
H	-1.3190830067	-0.2272253411	-2.1635618825	 0.102797
H	-3.8690046403	-0.2052836908	-0.994604892	 0.28738
55.0241	99.3513	159.4535	179.5443	241.8316	286.5867	329.4348	343.5906	435.0405	445.0268	513.8166	627.0128	670.9374	779.1722	844.635	909.269	928.1597	994.0805	1001.1736	1015.2772	1048.2367	1099.6995	1109.4847	1128.1304	1149.7845	1173.3593	1181.7011	1186.978	1219.8826	1235.4786	1265.5011	1279.065	1304.8584	1313.7383	1374.3957	1426.1245	1461.7333	1484.9226	1488.4192	1505.607	1519.0164	2991.5344	3010.5072	3047.7482	3056.5777	3062.2316	3073.246	3101.5355	3122.837	3125.7983	3812.2509
COC12COC1CC2O	CO[C@]12CO[C@H]1C[C@H]2O	
InChI=1S/C6H10O3/c1-8-6-3-9-5(6)2-4(6)7/h4-5,7H,2-3H2,1H3	InChI=1S/C6H10O3/c1-8-6-3-9-5(6)2-4(6)7/h4-5,7H,2-3H2,1H3/t4-,5+,6+/m1/s1
