21
gdb 115882	2.43899	1.45225	1.08492	1.4392	78.35	-0.2476	0.0841	0.3317	1196.0805	0.182463	-424.214324	-424.205337	-424.204393	-424.247824	34.585	
C	 0.0195656796	 1.3605561982	-0.1202597258	-0.235987
O	-0.0025245023	-0.0143608539	 0.1878062909	-0.259758
C	-1.2896142446	-0.6025653895	 0.107201705	 0.076993
C	-1.8197758216	-0.8323283424	-1.327504331	-0.269759
C	-2.7295945784	-2.0796322779	-1.2185528724	-0.222789
C	-2.1448097839	-2.8849771394	-0.0640515973	-0.0843
C	-0.6413344224	-3.0989940993	-0.0602960111	-0.349984
C	-1.2592780492	-1.9791436421	 0.7409231712	 0.406092
O	-1.2557332535	-2.0388476439	 2.1332268646	-0.480991
H	 1.0395860528	 1.7156938643	 0.0473911707	 0.124902
H	-0.2517333739	 1.5579421634	-1.1679144616	 0.106822
H	-0.6658640194	 1.9327062869	 0.5251782184	 0.103851
H	-2.0024363468	 0.0106613223	 0.6847434275	 0.067154
H	-2.3500038845	 0.0340870301	-1.7301020196	 0.098839
H	-0.9647115651	-1.0230062864	-1.9842483297	 0.113015
H	-3.7556441356	-1.7832017368	-0.9711691687	 0.103345
H	-2.7751392853	-2.641020694	-2.1580120474	 0.100133
H	-2.7590649331	-3.6256796536	 0.4350716492	 0.091573
H	-0.2870821327	-3.9374057056	 0.5287763059	 0.11279
H	-0.0536906258	-2.8850658271	-0.9467846908	 0.112133
H	-0.4033364941	-1.6942091832	 2.423943422	 0.285927
85.7572	118.5799	177.9932	218.1067	233.8895	291.2338	330.0627	364.0155	421.0757	471.7877	523.972	548.0382	625.7054	724.7406	817.9071	839.7347	893.2079	941.6083	942.1585	967.4995	992.5942	1024.8244	1040.8998	1070.7704	1083.7634	1105.352	1147.6463	1178.1688	1186.5855	1204.7667	1230.3872	1254.1525	1269.2129	1300.3914	1329.5442	1337.1259	1356.9882	1398.1542	1418.8691	1479.1675	1487.1156	1490.8401	1493.34	1508.8016	1513.2672	2958.0773	2974.5546	3023.0107	3033.9645	3053.6514	3071.4908	3103.3348	3110.0226	3132.5445	3178.4568	3222.0734	3790.9897
COC1CCC2CC12O	CO[C@H]1CC[C@H]2C[C@@]12O	
InChI=1S/C7H12O2/c1-9-6-3-2-5-4-7(5,6)8/h5-6,8H,2-4H2,1H3	InChI=1S/C7H12O2/c1-9-6-3-2-5-4-7(5,6)8/h5-6,8H,2-4H2,1H3/t5-,6-,7-/m0/s1
