15
gdb 21954	6.97301	1.04223	0.97156	1.3423	62.39	-0.2618	-0.004	0.2579	1154.265	0.120953	-395.979656	-395.972032	-395.971088	-396.012968	26.473	
O	-0.0794433449	 1.4475476059	 0.0245644538	-0.418288
C	 0.0137546232	 0.0377299417	 0.1404649057	-0.064876
C	-1.3663720092	-0.539515732	-0.1846676889	-0.291568
C	-1.4028336073	-2.0298896009	-0.0692011347	 0.291642
N	-0.9321175823	-2.8307923952	-1.0326222213	-0.265418
N	-1.1196578828	-4.0479155436	-0.5402434064	-0.06922
N	-1.674799932	-4.1274701129	 0.6597878113	-0.194278
C	-1.8622920091	-2.8470445361	 0.9818155188	-0.12837
H	 0.7896671384	 1.8221178768	 0.1941823433	 0.287748
H	 0.7539413198	-0.3812500178	-0.5575850876	 0.103227
H	 0.3101208014	-0.2656599935	 1.1574280728	 0.088091
H	-2.0989450625	-0.0952231554	 0.4964531342	 0.116819
H	-1.6381957467	-0.2348355935	-1.199745536	 0.129324
H	-0.8676687867	-4.8723381041	-1.0609667621	 0.292391
H	-2.3108494893	-2.5719808593	 1.9233775972	 0.122776
32.9654	97.376	123.5147	249.6439	335.9052	352.6924	380.0562	527.0383	706.9512	724.8586	789.2501	798.8377	884.0331	996.4249	1007.8933	1029.0336	1054.6119	1081.6724	1163.9723	1203.6252	1212.2711	1241.061	1257.8689	1308.8231	1323.7604	1366.6101	1408.246	1454.9893	1478.7394	1495.5981	1528.4545	1565.6187	2971.4409	3008.83	3056.3863	3103.6618	3267.0341	3669.2972	3833.0946
OCCC1=NNN=C1	OCCc1n[nH]nc1	
InChI=1S/C4H7N3O/c8-2-1-4-3-5-7-6-4/h3,8H,1-2H2,(H,5,6,7)	InChI=1S/C4H7N3O/c8-2-1-4-3-5-7-6-4/h3,8H,1-2H2,(H,5,6,7)
