22
gdb 111882	2.51373	1.29679	1.19259	2.7491	81.71	-0.2073	0.0655	0.2728	1188.625	0.196534	-404.320198	-404.311532	-404.310587	-404.353481	33.725	
O	-0.170612223	 1.4030235175	 0.4863600514	-0.414632
C	-0.106153926	 0.2594881164	-0.3612120066	-0.122106
C	-1.3859300936	-0.5158377908	-0.1891797219	 0.012793
C	-1.4523202028	-2.0026614694	-0.3028002458	-0.035428
C	-0.2560763316	-2.9290994513	-0.521661702	-0.228436
C	 0.7550706956	-2.9710554409	 0.6431427577	-0.202584
C	 0.041008535	-2.829670278	 1.989451656	-0.189698
C	-0.7068006371	-1.4956673284	 2.065673254	-0.150634
N	-1.6961999583	-1.3385474469	 0.9849795776	-0.110004
H	 0.6051088353	 1.9456858901	 0.315251687	 0.286686
H	-0.0257690909	 0.5569099329	-1.4193703833	 0.092416
H	 0.7754524115	-0.3510820181	-0.1309036056	 0.0879
H	-2.2486209741	 0.0553961122	-0.5329323257	 0.087591
H	-2.3670857449	-2.3985427321	-0.744187299	 0.084231
H	-0.6643499032	-3.9389457724	-0.646144897	 0.105644
H	 0.2477364411	-2.6934128735	-1.4669509926	 0.099778
H	 1.3154895066	-3.9107881412	 0.5956281388	 0.093789
H	 1.4984053471	-2.1702613228	 0.5481279888	 0.099865
H	-0.6728084683	-3.654135685	 2.1185496366	 0.099624
H	 0.7553750946	-2.894670117	 2.8173734229	 0.093343
H	-1.2545373522	-1.4304079008	 3.0128791839	 0.099722
H	 0.0088719093	-0.6647823705	 2.0651640349	 0.11014
85.2338	121.829	146.5936	237.1223	283.7901	291.7065	344.4575	439.6781	454.7608	506.0936	547.4607	658.0081	716.4274	771.0375	808.5836	827.2038	871.7736	920.4271	946.2895	999.8627	1018.3279	1051.4488	1064.2112	1078.3257	1083.4278	1129.8233	1142.2217	1180.8215	1202.9863	1217.2427	1246.7949	1265.4306	1281.0343	1289.6018	1352.8713	1355.6631	1366.3079	1376.2201	1384.9573	1389.3996	1435.8573	1471.06	1485.5717	1489.3007	1501.5275	1512.5258	1534.5864	2973.6334	3019.0698	3022.9864	3025.6558	3028.0616	3041.3827	3052.8095	3056.5956	3070.3213	3076.7226	3089.4368	3102.1086	3823.6632
OCC1C2CCCCN12	OC[C@H]1[C@H]2CCCCN12	
InChI=1S/C7H13NO/c9-5-7-6-3-1-2-4-8(6)7/h6-7,9H,1-5H2	InChI=1S/C7H13NO/c9-5-7-6-3-1-2-4-8(6)7/h6-7,9H,1-5H2/t6-,7+,8?/m1/s1
