22
gdb 121895	3.39448	0.66279	0.61888	3.7583	80.34	-0.242	0.0352	0.2772	1883.6721	0.191577	-441.513659	-441.502069	-441.501125	-441.552225	39.591	
C	-0.0033229586	 1.3510685422	 0.3175743953	-0.227645
O	-0.0833242896	-0.0513567716	 0.3859122024	-0.22952
C	-1.316020669	-0.5553713795	-0.0808908325	-0.064552
C	-1.2647389526	-2.076589515	 0.0037604048	-0.186308
C	-2.6061608969	-2.772618666	-0.3145098479	-0.096469
C	-3.0724891893	-2.5562043927	-1.7603669031	-0.390147
C	-2.4230193313	-4.2735329536	-0.0598273115	 0.408045
N	-2.9141719627	-4.7279055252	 1.130854329	-0.525444
O	-1.8644933909	-5.0060340883	-0.8537670288	-0.372081
H	 0.9801865094	 1.6425085907	 0.694363919	 0.127105
H	-0.1109110367	 1.7183911424	-0.7156985457	 0.103331
H	-0.7775220427	 1.8368230717	 0.9336139994	 0.100476
H	-2.1474721985	-0.1628575107	 0.5330957736	 0.07734
H	-1.4953262468	-0.21903379	-1.1150771999	 0.090333
H	-0.4937566099	-2.4558579778	-0.6750294153	 0.127596
H	-0.9469316106	-2.3397709604	 1.0196098406	 0.104986
H	-3.3698754605	-2.3829665545	 0.3726864853	 0.063595
H	-3.1998419945	-1.4942304165	-1.9856222347	 0.110931
H	-2.3424826447	-2.9824557001	-2.4528358758	 0.144604
H	-4.0305475086	-3.0536545406	-1.9395758495	 0.1176
H	-3.3175412446	-4.1139455802	 1.8156959931	 0.25689
H	-2.7375582503	-5.6866475443	 1.3838965621	 0.259335
27.494	53.271	83.0629	107.2126	130.4624	163.058	209.9731	218.4589	232.8497	284.3313	305.1539	362.0792	446.7445	503.6657	593.7901	622.4163	774.3238	790.9069	811.3071	912.2463	972.1641	986.3035	1043.1731	1066.4816	1097.1404	1129.4282	1163.4475	1171.0475	1191.1105	1223.3137	1241.5395	1268.8997	1308.8329	1325.2777	1353.2741	1402.9672	1407.4182	1428.2322	1480.5052	1485.2125	1490.0988	1493.6415	1503.5815	1507.9933	1533.4824	1616.5172	1795.3587	2935.4491	2965.6648	2982.285	3007.3131	3007.8981	3039.4252	3046.9704	3090.1213	3112.409	3112.849	3132.3277	3600.9382	3739.6156
COCCC(C)C(N)=O	COCC[C@@H](C)C(=O)N	
InChI=1S/C6H13NO2/c1-5(6(7)8)3-4-9-2/h5H,3-4H2,1-2H3,(H2,7,8)	InChI=1S/C6H13NO2/c1-5(6(7)8)3-4-9-2/h5H,3-4H2,1-2H3,(H2,7,8)/t5-/m1/s1
