19
gdb 68165	3.48928	1.41212	1.20847	4.7166	75.14	-0.2572	0.019	0.2762	1068.6314	0.160817	-423.065488	-423.057761	-423.056816	-423.097376	30.617	
C	-0.0548444748	 1.5580921743	-0.0194194975	-0.482675
C	 0.0422112292	 0.043493489	 0.00071553	 0.285381
C	 1.0973128534	-0.6819839323	-0.8833787455	-0.266941
C	 1.0932037477	-1.7886909482	 0.2100760361	-0.151405
C	 0.6802276106	-0.6807489433	 1.2212027881	-0.266941
C	-0.0923969834	-2.6983379167	-0.0243564781	 0.43309
O	-0.0629665425	-3.897017558	-0.0177915661	-0.339209
O	-1.2690510145	-2.0519915431	-0.2579409087	-0.243359
C	-1.3122197279	-0.6122236539	-0.2673155673	-0.094744
H	 0.9231572763	 2.009434607	 0.1742209842	 0.121093
H	-0.4054649004	 1.9233194588	-0.9916055563	 0.122755
H	-0.7497880795	 1.9243526951	 0.7450267986	 0.122753
H	 0.8181961596	-0.9603671532	-1.903479452	 0.110785
H	 2.0495351406	-0.1452972351	-0.896963063	 0.106055
H	 1.9844826144	-2.3872963214	 0.3870624792	 0.094841
H	 1.5554179014	-0.1438338072	 1.5963140603	 0.106055
H	 0.0330992321	-0.958043845	 2.0580668402	 0.110785
H	-2.043654896	-0.3123716801	 0.4928180477	 0.11584
H	-1.6984330162	-0.3133694167	-1.24927088	 0.115839
121.1053	190.1522	216.1057	268.7135	317.3951	384.182	412.5649	430.5312	481.0391	615.9482	676.8874	748.	765.2402	860.8841	867.6652	895.5024	928.5739	950.1412	969.0228	1017.734	1025.0697	1050.7177	1083.6058	1089.0126	1154.7951	1203.7804	1206.8838	1225.5675	1250.1741	1288.3851	1293.8211	1301.7415	1335.2509	1415.0293	1423.7612	1479.1963	1492.3847	1495.8539	1506.8707	1516.5387	1858.2158	3022.4052	3027.7578	3051.5477	3056.4553	3064.9968	3090.3157	3102.658	3110.4041	3111.8298	3138.1227
CC12CC(C1)C(=O)OC2	C[C@@]12C[C@@H](C1)C(=O)OC2	
InChI=1S/C7H10O2/c1-7-2-5(3-7)6(8)9-4-7/h5H,2-4H2,1H3	InChI=1S/C7H10O2/c1-7-2-5(3-7)6(8)9-4-7/h5H,2-4H2,1H3/t5-,7+
