15
gdb 65888	4.11839	0.76131	0.71146	3.2102	81.22	-0.2684	-0.05	0.2184	1536.8137	0.112442	-416.757708	-416.748862	-416.747918	-416.792255	31.054	
N	-0.0188947226	 1.4993920163	-0.0262658622	-0.542542
C	-0.0027113716	 0.0373602422	-0.007338713	 0.014762
C	 0.1222242093	-0.5302212446	 1.4381683863	-0.081328
O	-1.2498484868	-0.9506784881	 1.4477840169	-0.256949
C	-1.4369184005	-0.5651252993	 0.0781732526	-0.081317
C	 0.8794378339	-0.553440359	-1.0035191047	 0.159791
C	 1.6248370369	-0.99863186	-1.8466249424	-0.042542
C	 2.4640732186	-1.5059303712	-2.7956231916	 0.204791
N	 3.1790920398	-1.9360701584	-3.6042725968	-0.33366
H	 0.9219879226	 1.8562560466	 0.123645187	 0.24291
H	-0.303399236	 1.8288701803	-0.9458230805	 0.242912
H	 0.816408215	-1.3709578144	 1.5466195063	 0.11586
H	 0.3327777491	 0.2392451984	 2.1883697796	 0.120725
H	-2.2280373872	 0.1819197155	-0.0453591385	 0.120731
H	-1.6170111307	-1.4254430643	-0.5759754291	 0.115856
58.8324	84.3412	100.465	210.2073	231.9745	248.2859	344.6408	375.4741	482.4428	527.6741	540.3527	592.3194	593.159	814.1022	865.699	890.8587	957.7809	962.9742	1000.921	1043.0106	1057.0005	1159.2142	1166.1698	1222.2309	1267.8308	1291.7414	1312.0437	1374.3031	1492.8716	1518.4459	1657.6878	2255.073	2390.2413	3024.3136	3034.4312	3086.3409	3088.2301	3477.1369	3555.502
NC1(COC1)C#CC#N	NC1(COC1)C#CC#N	
InChI=1S/C6H6N2O/c7-3-1-2-6(8)4-9-5-6/h4-5,8H2	InChI=1S/C6H6N2O/c7-3-1-2-6(8)4-9-5-6/h4-5,8H2
