14
gdb 130365	7.33348	0.85389	0.76601	3.9048	74.06	-0.2143	-0.0302	0.1841	1399.7443	0.102222	-466.204006	-466.195556	-466.194612	-466.23775	30.086	
N	-0.0068301727	 1.3080962703	-0.0086107817	-0.488076
C	 0.0725456324	-0.031742427	 0.0654055393	 0.138684
N	 1.2009837536	-0.6413781828	-0.0644888882	-0.369667
C	 1.2137853125	-2.0033064104	-0.0202316921	 0.520225
N	 2.2808970434	-2.7566236388	 0.007547751	-0.39466
C	 1.7397764059	-4.0165219488	 0.0435030368	 0.414995
N	 2.5395665688	-5.1281531617	 0.143974439	-0.587054
N	 0.4259548543	-4.0795027347	 0.0250547415	-0.230905
O	 0.0639474195	-2.7080867915	-0.0127331677	-0.230287
H	 0.8357853608	 1.843776438	-0.1440784069	 0.278528
H	-0.8739415843	 1.7892469112	 0.1443447116	 0.276687
H	-0.8807109638	-0.5375785016	 0.2383858912	 0.146379
H	 3.46240373	-4.996210022	-0.2412290906	 0.263905
H	 2.0979255495	-5.9908449803	-0.1368170832	 0.261246
40.455	125.4803	153.1586	200.923	272.8473	320.0791	375.7683	396.7415	427.2475	547.6327	582.2922	635.8883	724.0954	739.7882	800.0163	806.3464	938.1354	1008.042	1034.1769	1045.2436	1123.5692	1130.3667	1307.285	1330.9495	1386.7806	1458.5193	1581.2155	1612.625	1651.2116	1654.7243	1720.656	3105.7931	3580.8567	3608.9338	3690.0975	3752.5345
NC=NC1=NC(N)=NO1	NC=Nc1nc(N)no1	
InChI=1S/C3H5N5O/c4-1-6-3-7-2(5)8-9-3/h1H,(H4,4,5,6,7,8)	InChI=1S/C3H5N5O/c4-1-6-3-7-2(5)8-9-3/h1H,(H4,4,5,6,7,8)
