16
gdb 62105	3.87741	0.769	0.68321	2.0716	62.91	-0.2687	-0.0128	0.2559	1552.5517	0.123415	-512.207773	-512.198439	-512.197495	-512.243566	32.037	
N	 0.1301394669	 1.1058931265	 0.0102991889	-0.541736
H	 0.7215908246	 0.3329710316	 0.2973947666	 0.255485
H	 0.7378576028	 1.8012545855	-0.411976692	 0.26361
H	-1.562532831	 0.3031363792	-0.3297986034	 0.310076
C	-0.5746915011	 1.6774441856	 1.1625359713	-0.124918
C	-0.8386257339	 3.1697751718	 0.9413910041	-0.097412
O	 0.396957406	 3.8626006335	 0.7439921639	-0.189786
C	 0.8471063422	 4.6649052734	 1.7363501792	 0.167749
O	 1.895707032	 5.2274325833	 1.6766825612	-0.261766
C	-1.9472114172	 0.9938483969	 1.3453715524	 0.42108
O	-2.3120115243	 0.2410850144	 0.3048235881	-0.358467
O	-2.626429394	 1.1666268842	 2.3217193072	-0.340981
H	-0.0308547866	 1.5639295522	 2.1087924601	 0.112841
H	-1.4305550184	 3.3223814889	 0.0338311553	 0.140071
H	-1.3901158579	 3.5704783091	 1.7971256739	 0.151045
H	 0.13461352	 4.7383865839	 2.5801770331	 0.09311
45.4464	61.8015	80.7425	141.5823	195.9521	294.9124	309.0951	327.2982	368.6405	428.129	547.987	641.2901	655.8618	749.3247	860.7514	873.2243	893.4045	964.9009	1012.4461	1042.8242	1059.9154	1125.2605	1150.9024	1213.0649	1259.6195	1291.232	1332.4443	1363.5915	1405.571	1425.7471	1430.0181	1497.8858	1666.0723	1868.4989	1874.9408	2959.5277	3030.5367	3056.011	3112.7118	3458.7315	3510.6324	3584.1892
[NH3+]C(COC=O)C([O-])=O	N[C@@H](COC=O)C(=O)O	
InChI=1S/C4H7NO4/c5-3(4(7)8)1-9-2-6/h2-3H,1,5H2,(H,7,8)	InChI=1S/C4H7NO4/c5-3(4(7)8)1-9-2-6/h2-3H,1,5H2,(H,7,8)/t3-/m0/s1
