16
gdb 7747	3.41796	1.90585	1.24668	3.4189	68.	-0.2074	0.0189	0.2262	946.9006	0.132394	-379.986673	-379.978914	-379.977969	-380.019012	28.474	
C	 0.0099052428	 1.5018683376	 0.0242072343	-0.49092
C	-0.0455243832	 0.0044669745	-0.029964304	 0.385652
C	-1.1687732694	-0.716468565	-0.0835949642	-0.184251
C	-1.1370834132	-2.2161499358	-0.1643127956	-0.202283
N	 0.1931805126	-2.714266876	 0.1710711867	-0.353341
C	 1.3629178964	-2.0043469558	 0.1350245974	 0.444783
O	 2.4631564221	-2.5094090996	 0.2607875443	-0.40996
N	 1.1972753577	-0.6347353726	-0.0308264907	-0.418193
H	 0.5772423375	 1.903270064	-0.8243814188	 0.135614
H	-0.993770029	 1.9288137712	-0.0021196268	 0.13745
H	 0.5075961107	 1.8453196816	 0.9394523413	 0.134925
H	-2.1324229221	-0.2246830299	-0.0968700672	 0.090402
H	-1.863673406	-2.6516178881	 0.5360871838	 0.114547
H	-1.4422773625	-2.5577494535	-1.1697761259	 0.108824
H	 0.3384241256	-3.7099027246	 0.2181362537	 0.252618
H	 2.0457980499	-0.1026726179	 0.0700712717	 0.254133
71.2569	119.6052	172.3988	239.1936	302.707	428.3661	479.1432	512.4662	522.7216	547.5683	594.3842	731.618	749.7933	770.266	920.2573	938.759	1015.8139	1046.7554	1068.8686	1074.5498	1137.9439	1200.0379	1242.4883	1310.7223	1335.5102	1415.449	1426.0481	1469.2798	1476.5928	1491.9058	1498.2757	1536.9434	1761.368	1815.6094	2929.0035	3001.5729	3024.7017	3074.1796	3138.0012	3215.8831	3647.2523	3658.9753
CC1=CCNC(=O)N1	CC1=CCNC(=O)N1	
InChI=1S/C5H8N2O/c1-4-2-3-6-5(8)7-4/h2H,3H2,1H3,(H2,6,7,8)	InChI=1S/C5H8N2O/c1-4-2-3-6-5(8)7-4/h2H,3H2,1H3,(H2,6,7,8)
