19
gdb 40888	3.41068	1.46371	1.30641	2.0069	74.	-0.2409	0.0722	0.3131	1020.0586	0.161044	-422.973729	-422.966523	-422.965579	-423.005577	28.507	
C	 0.0574055763	 1.5183943168	-0.0572777144	-0.165507
O	 1.444343615	 1.5347512555	 0.3349917816	-0.27696
C	 1.4903233923	 0.0936246423	 0.4341022664	-0.170428
C	 0.0347562771	-0.0192989907	-0.0283968678	 0.354319
C	-1.1061668873	-0.8225738371	 0.6639972928	-0.154221
C	-1.8740925657	-0.6815481954	-0.6893342017	-0.249768
C	-0.437868103	-0.8576839912	-1.2368571036	 0.03626
O	-0.0877639335	-2.1984422379	-0.8572140292	-0.282791
C	-0.5518434186	-2.244298107	 0.5150717319	-0.08371
H	-0.5854563302	 2.0163076664	 0.6816455773	 0.099564
H	-0.0987812557	 1.9903646093	-1.0364587633	 0.102218
H	 2.2382573246	-0.3473466499	-0.2359482232	 0.112408
H	 1.6919803537	-0.2400801532	 1.46155022	 0.097887
H	-1.5288280774	-0.5333205101	 1.6258898737	 0.076288
H	-2.6052767288	-1.4491415195	-0.9531276435	 0.102759
H	-2.28259527	 0.3184295638	-0.8448851221	 0.109838
H	-0.1349485732	-0.6721037641	-2.2664867078	 0.084062
H	 0.2869390245	-2.4614254443	 1.1869092056	 0.104039
H	-1.31205984	-3.0252767137	 0.6304925573	 0.103743
79.7656	171.5764	206.7492	295.3038	380.9636	403.699	518.7672	573.9476	677.6927	806.4163	849.5003	856.2051	876.1964	919.3585	939.5338	950.6555	964.7185	980.9702	995.4648	1033.6645	1036.4902	1070.7715	1089.5941	1125.3228	1142.9542	1145.2853	1155.395	1186.0007	1199.2144	1205.8887	1239.9184	1263.9627	1281.2238	1304.0591	1315.8938	1368.0644	1387.395	1489.7416	1506.4208	1526.1999	1532.0322	2992.6421	3004.5409	3024.516	3036.0192	3050.84	3064.7635	3069.8483	3122.9829	3134.5945	3136.2338
C1OCC11C2CC1OC2	C1OCC21[C@H]1C[C@@H]2OC1	
InChI=1S/C7H10O2/c1-5-2-9-6(1)7(5)3-8-4-7/h5-6H,1-4H2	InChI=1S/C7H10O2/c1-5-2-9-6(1)7(5)3-8-4-7/h5-6H,1-4H2/t5-,6-/m0/s1
