20
gdb 101601	3.35911	0.82437	0.73762	2.7969	73.52	-0.2441	0.0621	0.3062	1601.3756	0.168855	-477.463091	-477.452125	-477.451181	-477.50043	37.575	
C	-0.0618364735	 1.291788266	 0.104652123	-0.230565
O	 0.0753377187	-0.1249845813	-0.0065279955	-0.268428
C	 0.6425055857	-0.547513097	-1.1683576801	 0.533643
O	 1.0175447332	 0.1928002452	-2.0532022881	-0.430174
N	 0.7048622918	-1.9029104712	-1.1898614916	-0.373602
C	 1.3961385673	-2.6263352186	-2.2468840027	 0.058705
C	 2.9054308126	-2.7329747859	-1.987009861	-0.390262
C	 0.7319399484	-3.9933904282	-2.3953722155	-0.096327
O	 0.8246368358	-4.6528828122	-1.1362606843	-0.426157
H	 0.9113782674	 1.7860043221	 0.042178858	 0.13586
H	-0.7042205671	 1.6870217613	-0.6869977627	 0.135145
H	-0.5141115808	 1.469182	 1.0812519581	 0.125853
H	 0.4693108166	-2.4140617995	-0.3539817944	 0.256979
H	 1.2335040548	-2.0635085963	-3.1707675033	 0.111057
H	 3.4075371665	-3.2252746387	-2.8266989047	 0.109748
H	 3.3325661564	-1.7339843138	-1.8712823459	 0.134205
H	 3.1013738977	-3.3129440876	-1.0813277225	 0.128593
H	-0.3180963341	-3.8578090891	-2.6913227817	 0.09767
H	 1.2434026802	-4.5645915108	-3.1841365164	 0.093799
H	 0.3267897327	-5.4735428344	-1.1824398986	 0.294258
35.2354	74.1364	91.9434	104.6576	152.489	164.1565	235.4232	254.1626	261.8798	301.5585	346.3912	432.7548	495.4377	533.3573	609.8513	728.9039	784.7089	843.1888	935.6306	945.6055	984.9084	1008.5214	1112.6155	1122.8814	1139.1202	1182.8454	1193.3083	1213.6493	1220.8304	1259.1328	1276.8906	1356.2141	1380.9368	1402.1715	1453.6754	1465.3646	1480.6615	1493.9128	1496.9493	1501.7015	1514.4691	1537.1221	1807.4196	2987.6375	3026.5769	3041.9588	3046.6797	3078.5547	3113.646	3118.2794	3133.228	3148.8812	3643.6655	3842.7328
COC(=O)NC(C)CO	COC(=O)N[C@@H](C)CO	
InChI=1S/C5H11NO3/c1-4(3-7)6-5(8)9-2/h4,7H,3H2,1-2H3,(H,6,8)	InChI=1S/C5H11NO3/c1-4(3-7)6-5(8)9-2/h4,7H,3H2,1-2H3,(H,6,8)/t4-/m0/s1
