22
gdb 120169	3.04771	1.05117	0.91052	1.5192	83.96	-0.226	0.0731	0.2991	1397.0572	0.193574	-404.257497	-404.248029	-404.247085	-404.292626	34.914	
C	 0.7528399356	 1.2814086375	 0.009735743	-0.222799
O	 0.8825381748	-0.0990933667	-0.2299255821	-0.235755
C	-0.0692004236	-0.5898600404	-1.1550509248	-0.122601
C	 0.1437816692	-2.0893889675	-1.2370214716	 0.038809
N	-0.7095420881	-2.9006645846	-2.2337207444	-0.173101
C	 0.2963064605	-2.4341368522	-3.3038946579	-0.217588
C	 1.2360974753	-2.7612245427	-2.1163941543	 0.302847
C	 2.7357025028	-2.6452633828	-2.0138431673	-0.515442
C	 0.3277200184	-4.0090947243	-1.9730628621	-0.201292
H	 0.8980161448	 1.8729001615	-0.9085125804	 0.102902
H	-0.2364410727	 1.5326356152	 0.4241077359	 0.105446
H	 1.5211530873	 1.5617593509	 0.7345392336	 0.126969
H	-1.0961042744	-0.3909453869	-0.8033315014	 0.097736
H	 0.0445732545	-0.0774628461	-2.1216851141	 0.087627
H	 0.0616454069	-2.490430098	-0.2202242699	 0.073932
H	 0.3328457072	-3.0963906167	-4.1740072062	 0.096115
H	 0.1714322841	-1.3981397182	-3.6221748751	 0.098564
H	 3.0533699597	-1.6024853374	-2.114150676	 0.127218
H	 3.0882684325	-3.0065229384	-1.0419014452	 0.123143
H	 3.2332231036	-3.2314942612	-2.7942482582	 0.115147
H	 0.2351961989	-4.4704217175	-0.9852038827	 0.097003
H	 0.3597541929	-4.7630043435	-2.7648158287	 0.095119
37.9552	83.5649	117.2499	173.5621	226.7835	247.3788	298.6472	340.2176	378.455	395.9337	607.4886	612.0122	642.8709	764.16	787.2366	866.0401	905.1747	908.8528	927.2964	991.3653	996.8859	1032.8809	1054.5015	1084.6743	1139.2605	1159.2109	1164.3101	1179.1122	1189.1846	1194.7772	1201.5269	1212.279	1229.4802	1252.1343	1267.443	1333.9837	1387.8826	1409.1714	1450.5987	1480.2377	1485.3038	1486.3095	1488.9467	1502.648	1517.5466	1526.2959	1559.1456	2958.9862	2971.2447	3001.7512	3012.4534	3029.6704	3041.4943	3047.3614	3059.223	3097.6579	3103.6411	3110.4521	3112.8939	3124.1494
COCC1N2CC1(C)C2	COC[C@H]1N2C[C@]1(C)C2	
InChI=1S/C7H13NO/c1-7-4-8(5-7)6(7)3-9-2/h6H,3-5H2,1-2H3	InChI=1S/C7H13NO/c1-7-4-8(5-7)6(7)3-9-2/h6H,3-5H2,1-2H3/t6-/m1/s1
