18
gdb 63860	2.35118	1.58588	1.2713	2.8778	76.93	-0.2586	0.0119	0.2706	1065.7917	0.145904	-401.934535	-401.925808	-401.924864	-401.96742	33.324	
C	-0.0502463876	 1.5643532754	 0.030349632	-0.437497
C	 0.0214918133	 0.0479462853	 0.0582958025	 0.351668
C	-1.3012948055	-0.6070428655	-0.3082782075	-0.431104
O	 1.0804066125	-0.4724010281	-0.823699463	-0.321211
C	 1.6648247942	-1.2028665492	 0.2379290478	 0.065582
C	 2.1922375759	-0.3096774284	 1.3026417295	-0.351251
C	 0.7005879057	-0.6316361019	 1.2768603615	 0.086772
C	 0.0200707714	-1.2461870169	 2.3633900176	 0.202113
N	-0.5469608468	-1.7381033593	 3.245471982	-0.360775
H	 0.9008212808	 2.0234603691	 0.3076918654	 0.124351
H	-0.3091794141	 1.9033809045	-0.97753903	 0.134581
H	-0.8228370988	 1.9192651992	 0.7194564132	 0.132912
H	-1.6083153545	-0.2807385191	-1.3059697355	 0.12985
H	-1.2094672555	-1.6957575644	-0.3109222928	 0.133255
H	-2.0819917105	-0.3273364226	 0.405974554	 0.135154
H	 1.980599851	-2.2233497774	 0.0554620554	 0.129343
H	 2.727303791	-0.8002072083	 2.1090946691	 0.144141
H	 2.5364892975	 0.6881200176	 1.0518725889	 0.132116
119.1716	138.0265	189.8062	221.0547	243.6465	290.478	346.2342	365.683	460.665	485.328	510.2281	570.4974	609.318	651.3921	822.3767	837.7534	890.7704	902.7109	939.8794	987.9748	1004.8037	1015.0011	1036.5406	1061.1878	1098.1139	1152.5674	1198.8222	1233.97	1262.1859	1307.3655	1372.0409	1405.04	1417.7257	1468.4236	1475.4527	1481.9275	1494.671	1501.9898	2341.7776	3042.6417	3047.5676	3113.1263	3120.9994	3127.9196	3129.82	3133.6456	3189.1353	3227.114
CC1(C)OC2CC12C#N	CC1(C)O[C@H]2C[C@@]12C#N	
InChI=1S/C7H9NO/c1-6(2)7(4-8)3-5(7)9-6/h5H,3H2,1-2H3	InChI=1S/C7H9NO/c1-6(2)7(4-8)3-5(7)9-6/h5H,3H2,1-2H3/t5-,7-/m0/s1
