17
gdb 34054	3.29949	1.33231	1.09989	4.2099	72.95	-0.2418	0.0011	0.2429	1102.6289	0.138226	-418.002056	-417.994394	-417.99345	-418.034187	29.513	
N	-0.006940375	-1.1442913832	 0.1352831891	-0.330409
C	 0.0270469945	 0.0103407537	 0.0836462163	 0.244202
C	 0.0298166233	 1.4558851364	-0.0261171161	 0.216679
C	-1.1939412884	 2.0841887913	-0.7165329362	-0.251862
N	-0.904193023	 3.2396726483	-1.5544140003	-0.277962
C	 0.0673018109	 4.1532142104	-0.9565616347	-0.175784
C	 1.4462277112	 3.5062997287	-0.7275439135	-0.250221
C	 1.327474142	 2.1784913896	-0.0171511958	 0.023029
O	 0.5007085474	 2.1417078863	 1.1454975002	-0.270041
H	-1.6976445144	 1.3263853357	-1.3220526507	 0.130119
H	-1.8887972235	 2.3782285711	 0.0804049162	 0.137924
H	-0.5629195842	 2.9274874169	-2.4583613054	 0.220777
H	 0.1705626112	 5.030774858	-1.6013703131	 0.110813
H	-0.338768225	 4.4979406136	 0.000709051	 0.128435
H	 1.9472611872	 3.3334431185	-1.6892459074	 0.109823
H	 2.097348483	 4.1701133636	-0.1457044648	 0.120772
H	 2.2373486328	 1.5845610813	 0.0674227153	 0.113708
111.1443	146.6109	191.4621	285.44	360.0387	372.5691	408.6612	496.5084	548.3497	599.0037	616.9949	695.5917	764.9099	830.4017	863.9496	902.8364	925.7523	956.7833	999.2221	1042.2174	1095.7261	1104.5512	1145.7016	1202.9892	1236.9777	1260.3282	1308.0454	1336.2039	1362.3827	1375.2236	1398.3062	1449.9797	1469.4552	1471.3276	1487.4492	1502.854	2351.9539	3023.3304	3031.2705	3048.1149	3065.6134	3096.9271	3102.5035	3118.3248	3510.3685
N#CC12CNCCC1O2	N#C[C@]12CNCC[C@H]1O2	
InChI=1S/C6H8N2O/c7-3-6-4-8-2-1-5(6)9-6/h5,8H,1-2,4H2	InChI=1S/C6H8N2O/c7-3-6-4-8-2-1-5(6)9-6/h5,8H,1-2,4H2/t5-,6+/m1/s1
