15
gdb 34136	2.95644	1.72925	1.38277	2.3851	73.65	-0.2448	-0.0364	0.2084	930.3401	0.11467	-379.59896	-379.592448	-379.591504	-379.629824	26.155	
N	-0.0159627185	-1.1763121764	 0.0484050423	-0.336118
C	-0.0255975228	-0.0199264937	 0.0425843313	 0.144463
C	-0.032699833	 1.4293905666	 0.0277273113	 0.200497
C	-0.6909788218	 2.4160663358	 1.0012045731	-0.222197
N	-0.0387332346	 3.3722438132	 0.0025472915	-0.150007
C	 1.1913863813	 2.4149462075	-0.0108137905	-0.072816
C	 1.7213443741	 2.4721632858	-1.4254658622	-0.084652
C	 0.6101842071	 2.4591423401	-2.1636467766	-0.084654
C	-0.4874863463	 2.3952753806	-1.1261450552	-0.072815
H	-1.7820649761	 2.4649510599	 1.0116575871	 0.118652
H	-0.2786572488	 2.4825644979	 2.0104302212	 0.118652
H	 1.858569592	 2.4899782219	 0.8472711906	 0.093919
H	 2.7585439452	 2.5318454623	-1.7194971318	 0.126578
H	 0.4783550857	 2.5051142738	-3.2343041094	 0.126579
H	-1.5381484437	 2.4501821248	-1.4092841027	 0.093919
130.5652	162.7197	376.4461	414.2566	469.743	516.2874	537.7886	580.7792	706.4518	741.8423	754.7715	810.5783	832.6719	907.1437	919.0573	925.6152	955.2445	982.8142	1009.3549	1059.466	1082.3422	1120.9071	1129.4772	1145.1615	1178.7417	1233.4496	1255.0727	1264.6758	1324.0524	1335.746	1527.9317	1634.2091	2344.4161	3065.8957	3130.434	3133.2172	3134.2242	3237.7682	3263.1481
N#CC12CN3C1C=CC23	N#C[C@@]12CN3[C@@H]1C=C[C@@H]23	
InChI=1S/C7H6N2/c8-3-7-4-9-5(7)1-2-6(7)9/h1-2,5-6H,4H2	InChI=1S/C7H6N2/c8-3-7-4-9-5(7)1-2-6(7)9/h1-2,5-6H,4H2/t5-,6+,7-
