17
gdb 97290	1.94729	1.06681	0.72277	2.854	76.45	-0.2529	-0.048	0.2049	1529.8199	0.132816	-455.170938	-455.160909	-455.159965	-455.207631	33.396	
C	 0.1792963652	 1.4368271097	-0.1388956519	-0.316296
N	 0.0034246366	 0.0048344043	-0.0229403734	-0.223367
C	 0.5709277906	-0.73013773	-0.8775140864	 0.119444
N	 0.4686524436	-2.1275562411	-0.8835777266	-0.121829
C	 1.1975748468	-2.8874110686	-1.8883570911	-0.276743
C	 2.6923127401	-2.9536734428	-1.6026119917	 0.154553
O	 3.533669069	-2.9825302748	-2.4593779402	-0.225177
C	-0.3284041177	-2.8087396559	 0.0285177539	 0.163899
O	-0.4405906351	-4.0128549929	 0.0419881297	-0.317439
H	 0.8182302973	 1.7371608881	-0.9845363285	 0.104491
H	-0.7985336407	 1.9177268366	-0.2537867562	 0.136405
H	 0.6190625512	 1.8269575639	 0.7856880865	 0.136536
H	 1.195028814	-0.3526003351	-1.6994843008	 0.104913
H	 0.8029978494	-3.9091017319	-1.8480469446	 0.180786
H	 1.0363307596	-2.4867518868	-2.8930495502	 0.143191
H	 2.9461288386	-2.9856836354	-0.5188324925	 0.096647
H	-0.8352450384	-2.1234337976	 0.7199470541	 0.139986
40.604	67.4718	81.8226	115.6977	175.1439	199.09	236.27	294.9316	316.4956	400.8733	427.7159	434.4556	583.7761	695.6545	799.0768	935.4197	982.552	1038.5059	1046.6717	1056.7607	1075.3631	1141.8287	1156.7951	1218.5443	1271.9911	1328.0561	1373.0517	1413.1807	1422.079	1424.5528	1448.0863	1451.2142	1477.7036	1503.8409	1761.9743	1794.8729	1842.102	2885.4306	2976.8248	3020.5636	3052.6004	3066.1648	3069.9707	3084.1166	3109.8015
CN=CN(CC=O)C=O	CN=CN(CC=O)C=O	
InChI=1S/C5H8N2O2/c1-6-4-7(5-9)2-3-8/h3-5H,2H2,1H3	InChI=1S/C5H8N2O2/c1-6-4-7(5-9)2-3-8/h3-5H,2H2,1H3
