17
gdb 85595	2.90962	1.41845	0.99981	2.3721	71.19	-0.2319	-0.0001	0.2318	1150.1574	0.136927	-455.182181	-455.17365	-455.172706	-455.215851	30.712	
C	-0.0832758209	 1.277721036	-0.6860824364	-0.333841
N	 0.0327749283	-0.0387965174	-0.0835915755	-0.075641
C	-1.0914467312	-0.5436821552	 0.6822663884	-0.329695
C	-1.1392623796	-2.0659091152	 0.7124161815	 0.437754
O	-2.1565551393	-2.6973314802	 0.7395819787	-0.320881
O	 0.0606008142	-2.6878086142	 0.6963139318	-0.211614
C	 1.2343197901	-1.8905425048	 0.8989031452	-0.186259
C	 1.2694994397	-0.5925723211	 0.1107507366	 0.350792
N	 2.3397095326	-0.0303933973	-0.3102170893	-0.541244
H	 0.7373003783	 1.4083131488	-1.3908508627	 0.173068
H	-1.041033065	 1.354969348	-1.2089049939	 0.125194
H	-0.022848644	 2.0806614841	 0.0621063013	 0.123605
H	-1.0994774833	-0.1743334854	 1.7234482417	 0.133811
H	-2.0232207395	-0.2098841811	 0.2230409465	 0.154025
H	 1.3364207704	-1.6696586095	 1.9705126426	 0.139305
H	 2.0728162548	-2.5221242444	 0.6038755984	 0.146643
H	 3.1504955944	-0.6214645711	-0.1386950247	 0.214979
75.3593	111.3928	128.5551	173.4126	205.9886	341.1528	394.416	426.1122	436.3667	550.5436	591.7931	617.0567	745.6285	797.3592	805.9224	839.8298	995.3282	1001.4456	1042.2315	1090.8013	1106.1546	1149.9111	1181.5314	1233.9841	1268.9217	1275.419	1315.4075	1349.5256	1403.7234	1438.1272	1467.3857	1481.7957	1489.9377	1501.8321	1528.8744	1707.6038	1866.2004	2947.386	3007.7208	3016.7976	3084.8771	3117.3948	3129.3674	3160.5053	3502.8246
CN1CC(=O)OCC1=N	CN1CC(=O)OC[C]1[NH]	
InChI=1S/C5H8N2O2/c1-7-2-5(8)9-3-4(7)6/h6H,2-3H2,1H3	InChI=1S/C5H8N2O2/c1-7-2-5(8)9-3-4(7)6/h6H,2-3H2,1H3
