13
gdb 5489	3.47689	2.07142	1.29807	3.7636	62.81	-0.2071	-0.0295	0.1775	859.6332	0.096208	-398.64956	-398.642622	-398.641678	-398.680651	25.619	
O	 0.1126984745	 1.3351854299	 0.2063247907	-0.432981
C	 0.0750994606	 0.0000497082	-0.0130240865	 0.403335
C	 0.0669023231	-0.7668635846	-1.1387251066	-0.315577
C	 0.0193703786	-2.1400763985	-0.6984716846	-0.145962
C	 0.0007045188	-2.1578750946	 0.6594334022	-0.086109
N	 0.0350213216	-0.8292351931	 1.1026224937	-0.096572
C	 0.0296185688	-0.4189839403	 2.4323690661	 0.171456
O	-0.0060648576	-1.1832181233	 3.3622382062	-0.298874
H	 0.1370805733	 1.7843058342	-0.6442997961	 0.314974
H	 0.0913783762	-0.4089047161	-2.1563607044	 0.10222
H	 0.001668021	-3.0071921912	-1.3406965722	 0.111546
H	-0.033010075	-2.9505985603	 1.3854713667	 0.150864
H	 0.0614455161	 0.6770304798	 2.5277748547	 0.121679
135.1851	213.0443	217.1193	242.2373	328.8539	375.1486	588.7329	614.8848	642.3348	660.4639	733.4899	753.705	820.1937	857.8245	916.6456	1033.6168	1039.6026	1071.8734	1136.6304	1229.434	1274.0002	1322.7651	1374.8414	1444.7442	1505.0235	1557.2731	1640.8975	1817.6849	3031.1961	3243.8928	3257.5079	3305.2646	3844.3774
OC1=CC=CN1C=O	Oc1cccn1C=O	
InChI=1S/C5H5NO2/c7-4-6-3-1-2-5(6)8/h1-4,8H	InChI=1S/C5H5NO2/c7-4-6-3-1-2-5(6)8/h1-4,8H
