16
gdb 72385	2.85361	2.1623	1.43217	1.5399	67.4	-0.239	0.0024	0.2414	885.1286	0.125347	-437.832436	-437.825791	-437.824847	-437.863083	27.071	
C	 0.0226703047	 1.5301741568	-0.1099476366	-0.48073
C	 0.0101607801	 0.0282209623	 0.00455479	 0.43082
O	 0.3438447506	-0.5229336394	-1.2741594822	-0.274724
C	 0.3701092126	-1.8725948567	-1.3176820588	 0.118751
N	 0.1299004393	-2.6490027618	-0.3458763353	-0.290396
C	-0.1911691767	-1.95003288	 0.8771085478	 0.018031
C	 0.6298771137	-0.6794317187	 1.2509860963	-0.034416
O	-0.510113602	-0.1996195748	 2.0458299709	-0.301562
C	-1.1173545855	-0.6989979895	 0.8034710017	-0.034416
H	 1.0118880729	 1.8781764221	-0.4218780339	 0.130339
H	-0.7019432615	 1.8589925903	-0.8607957793	 0.130338
H	-0.2291886975	 1.9719905758	 0.8541548307	 0.150564
H	 0.6280916571	-2.2349147496	-2.3090714684	 0.134875
H	-0.3970789426	-2.6198749145	 1.7103271612	 0.098889
H	 1.6301522858	-0.5966958345	 1.6740963915	 0.101819
H	-2.1993619011	-0.6395838176	 0.6932519541	 0.101819
208.7957	219.5013	308.3082	313.9098	395.1656	447.1199	574.416	590.7289	607.9011	665.7878	784.8379	844.2531	859.0646	877.3911	905.9297	918.3798	944.1737	969.6706	1031.8735	1055.1671	1089.5026	1143.5548	1149.9398	1179.8007	1190.6376	1207.0006	1216.8263	1257.0242	1315.7768	1355.2508	1388.0591	1408.929	1490.0707	1490.8295	1707.8366	3050.7232	3113.5231	3128.9766	3129.6243	3141.1151	3158.7804	3184.821
CC12OC=NC3C1OC23	C[C@@]12O[CH][N][C@H]3[C@@H]1O[C@@H]23	
InChI=1S/C6H7NO2/c1-6-4-3(5(6)9-4)7-2-8-6/h2-5H,1H3	InChI=1S/C6H7NO2/c1-6-4-3(5(6)9-4)7-2-8-6/h2-5H,1H3/t3-,4-,5+,6+
