19
gdb 119129	2.29293	1.24427	0.98177	1.8099	72.92	-0.2452	-0.0206	0.2246	1299.4444	0.155156	-460.145253	-460.13503	-460.134086	-460.181302	35.419	
C	 0.4082626163	 1.696680168	 0.2152039989	-0.223697
O	 0.0439923965	 0.3361443991	 0.2215197183	-0.23936
C	 0.8892501849	-0.4539052825	 1.0262946635	-0.126367
C	 0.4908276213	-1.8944619826	 0.8305749981	 0.289843
C	 0.5751782369	-2.8473599629	 1.9558872363	-0.225989
O	-0.6793347853	-2.33567716	 1.5294241526	-0.257152
C	 0.6796409016	-2.4350314959	-0.5765713092	 0.332071
C	-0.3478350927	-3.4239980343	-1.0780457416	-0.480781
O	 1.6219293035	-2.0623471428	-1.2364069605	-0.307041
H	 1.4299421306	 1.8422792332	-0.1682279785	 0.111495
H	-0.294062293	 2.2177803919	-0.4393038916	 0.130795
H	 0.3504343671	 2.1393324548	 1.2222204277	 0.104287
H	 1.9413012199	-0.3331480742	 0.7270504773	 0.112882
H	 0.7919785512	-0.181173033	 2.0891597874	 0.089976
H	 0.7515842754	-3.9035165095	 1.7564931528	 0.121971
H	 0.9306101474	-2.4915515984	 2.9220118024	 0.125918
H	-0.5131343043	-4.2344808135	-0.3625005637	 0.14158
H	-1.3102492564	-2.9117590172	-1.1873943556	 0.161211
H	-0.027176311	-3.8225966701	-2.0408937548	 0.138356
59.2716	64.8246	100.6388	131.7339	149.0976	215.7426	242.4991	268.3996	333.3807	347.3918	439.1319	500.9458	523.0052	611.1456	707.0056	829.293	911.152	941.609	952.7985	1001.4369	1036.3507	1051.1466	1132.4298	1138.9732	1158.1082	1178.1911	1184.0871	1227.8809	1261.1053	1320.345	1366.2783	1387.7857	1430.8274	1452.1248	1467.7763	1473.4399	1485.6989	1491.8519	1516.0675	1526.6933	1808.598	2968.8815	2980.2941	3017.8266	3022.1714	3047.6411	3083.3544	3110.8994	3119.3248	3158.5568	3170.507
COCC1(CO1)C(C)=O	COC[C@]1(CO1)C(=O)C	
InChI=1S/C6H10O3/c1-5(7)6(3-8-2)4-9-6/h3-4H2,1-2H3	InChI=1S/C6H10O3/c1-5(7)6(3-8-2)4-9-6/h3-4H2,1-2H3/t6-/m0/s1
