17
gdb 97268	4.20595	0.88132	0.73528	2.2659	85.67	-0.2471	-0.051	0.1961	1506.1907	0.13321	-417.998904	-417.98886	-417.987916	-418.034211	34.906	
C	-0.0600666043	 1.4393457986	-0.0422914056	-0.317047
N	-0.0918288343	-0.0086178406	 0.0036753896	-0.249891
C	 0.5289492153	-0.6294428214	-0.9089616275	 0.114673
N	 0.5478841033	-2.0244022041	-0.9384965266	-0.15095
C	-0.1693400059	-2.7369263334	 0.1138606431	-0.334433
C	 1.2464075797	-2.6483117926	-1.9630075887	 0.323533
O	 1.8403595402	-2.0390331456	-2.8326435001	-0.352357
C	 1.2387590965	-4.1024899518	-1.9538596887	 0.173629
C	 1.3030603235	-5.2997881953	-2.0492236694	-0.370438
H	 0.5173012351	 1.8463499591	-0.8868075783	 0.105404
H	-1.0841624122	 1.8253931811	-0.102883242	 0.129915
H	 0.3681733044	 1.8250770862	 0.8900368669	 0.129901
H	 1.0883538299	-0.1773615991	-1.7301829424	 0.139489
H	-1.2260698926	-2.4591412339	 0.0966838911	 0.148189
H	-0.063534648	-3.808449993	-0.0418613356	 0.148469
H	 0.2331202292	-2.459475669	 1.0912227697	 0.148235
H	 1.3586034302	-6.3581051253	-2.1322928655	 0.213678
57.5203	109.9199	135.4641	139.7365	182.6659	205.4156	219.9294	274.7066	336.9619	402.4606	411.7094	454.1892	544.7127	657.6808	669.2026	691.0634	757.5909	808.5922	991.5182	1009.3247	1070.3515	1133.8611	1141.7395	1154.4238	1159.7079	1319.958	1341.8208	1410.0628	1445.9803	1461.9939	1475.8982	1479.9488	1500.7136	1518.5163	1734.8989	1749.2694	2221.7796	2981.3409	3060.1089	3063.1902	3077.6591	3116.9347	3119.9369	3177.8387	3494.2855
CN=CN(C)C(=O)C#C	CN=CN(C)C(=O)C#C	
InChI=1S/C6H8N2O/c1-4-6(9)8(3)5-7-2/h1,5H,2-3H3	InChI=1S/C6H8N2O/c1-4-6(9)8(3)5-7-2/h1,5H,2-3H3
