17
gdb 73609	2.2791	1.63674	1.30023	2.0894	74.19	-0.2249	0.0434	0.2683	1034.86	0.134872	-421.771411	-421.763044	-421.7621	-421.804122	32.203	
O	-0.0042571172	 1.4449183337	 0.1476040508	-0.461826
C	-0.0089536452	 0.0678249244	-0.0410988825	 0.339431
C	 0.8244171154	-0.5276725169	-1.1688718504	-0.32303
C	 0.0216338667	-1.7747332396	-1.6053050153	-0.088652
O	-1.3028735684	-1.6502092427	-1.052690401	-0.256756
C	-1.289160423	-0.684981495	-0.0570806166	 0.06513
C	-0.3421043385	-0.8398042858	 1.1554379308	-0.371404
C	 0.3742041883	-2.035810861	 1.4674512282	 0.354648
C	 0.9876631845	-3.0333282797	 1.7481081083	-0.448491
H	 0.8117461687	 1.6838504548	 0.6018210631	 0.287513
H	 0.8776244443	 0.2230630261	-1.9626262817	 0.120217
H	 1.8429854343	-0.7915986087	-0.8697562095	 0.114109
H	-0.079639526	-1.855639837	-2.6913233752	 0.111919
H	 0.4806653017	-2.6913334352	-1.2252697725	 0.124462
H	-2.2540434574	-0.2222085971	 0.1136221671	 0.120675
H	-0.6897332522	-0.2685088017	 2.0131637306	 0.11732
H	 1.5123554542	-3.9224971787	 1.9955883859	 0.194734
113.6505	124.1434	162.4913	233.6596	309.3086	350.4694	372.1949	388.092	539.5287	566.5187	582.1071	631.1822	652.1592	702.3418	710.5193	812.0469	860.3695	915.9544	940.7823	960.3034	990.2981	1051.1413	1081.4356	1088.7371	1145.2229	1204.556	1227.4846	1239.4881	1254.265	1303.6521	1320.6095	1330.1791	1400.0875	1462.8103	1494.7047	1520.7116	2226.6532	3052.109	3059.3835	3089.806	3110.6386	3136.9136	3189.7728	3503.0146	3790.6726
OC12CCOC1C2C#C	O[C@]12CCO[C@H]1[C@H]2C#C	
InChI=1S/C7H8O2/c1-2-5-6-7(5,8)3-4-9-6/h1,5-6,8H,3-4H2	InChI=1S/C7H8O2/c1-2-5-6-7(5,8)3-4-9-6/h1,5-6,8H,3-4H2/t5-,6+,7+/m1/s1
