18
gdb 97334	6.54521	0.65524	0.62431	1.7102	83.03	-0.2543	-0.0242	0.2301	1797.7794	0.147849	-435.276378	-435.267056	-435.266112	-435.311262	32.899	
C	-0.7290177118	 1.8032401366	 0.0958732263	-0.31257
N	-1.131119742	 0.4502700436	-0.2308755396	-0.235857
C	-0.2848622295	-0.4707167998	-0.0466380865	 0.118296
N	-0.6079775663	-1.7910251305	-0.3383525181	-0.36308
C	 0.2606556042	-2.8464215935	-0.1799319042	 0.456925
O	 1.3945021811	-2.7145554594	 0.2474179959	-0.383894
C	-0.2901809365	-4.1831900242	-0.5709097302	-0.138599
C	 0.6203545706	-5.0607223173	-1.3703698701	-0.218113
N	 0.3551042409	-5.3562978715	 0.0321986743	-0.300413
H	-0.8188950571	 2.4361309765	-0.7944559018	 0.130771
H	-1.4115725081	 2.2160308973	 0.8475565307	 0.131204
H	 0.3004727359	 1.882263553	 0.4780976891	 0.105612
H	 0.7323098776	-0.3548947471	 0.3375298721	 0.134232
H	-1.5389091581	-1.9505759788	-0.6961594181	 0.26386
H	-1.3656498838	-4.2606184082	-0.7077925906	 0.096344
H	 0.1849217331	-5.7525574888	-2.0852840421	 0.127357
H	 1.585776378	-4.6423958644	-1.6392035415	 0.136583
H	 1.1355959319	-5.0049462932	 0.5886422943	 0.25134
53.678	107.6011	117.1133	136.5633	214.3769	263.3815	269.0369	332.3235	360.4274	373.1502	564.6771	633.6758	707.861	763.3047	837.2402	879.7723	939.7449	986.3461	1007.4191	1018.717	1063.6151	1116.802	1130.013	1138.1152	1142.8699	1171.3277	1191.9773	1250.9484	1292.2444	1324.556	1354.8056	1404.7415	1446.8277	1479.8231	1493.9002	1495.5873	1523.7701	1755.2702	1779.1108	2981.9137	3063.8617	3078.6482	3101.0093	3116.349	3141.772	3211.2378	3465.7679	3614.9689
CN=CNC(=O)C1CN1	CN=CNC(=O)[C@H]1CN1	
InChI=1S/C5H9N3O/c1-6-3-8-5(9)4-2-7-4/h3-4,7H,2H2,1H3,(H,6,8,9)	InChI=1S/C5H9N3O/c1-6-3-8-5(9)4-2-7-4/h3-4,7H,2H2,1H3,(H,6,8,9)/t4-/m1/s1
