18
gdb 53829	3.89364	0.86631	0.75476	1.421	77.15	-0.239	-0.0602	0.1788	1525.9748	0.145575	-439.12178	-439.112042	-439.111098	-439.158591	34.012	
C	 0.0144003122	 1.447038555	 0.0566246725	-0.470605
C	-0.0086606283	-0.0541894352	-0.0269226168	 0.309598
O	 0.9789907205	-0.750632766	-0.1113089194	-0.307349
C	-1.4141558883	-0.6968930737	 0.0009708531	 0.30022
O	-2.4273014818	-0.0212612072	 0.084782765	-0.378081
N	-1.3538932013	-2.0432854093	-0.0771550179	-0.318007
C	-2.5096131888	-2.8826898349	-0.0732490433	 0.086097
C	-2.5370419327	-4.1427673615	-0.8966244588	-0.286251
C	-2.4749698908	-4.2220340942	 0.6136675937	-0.285767
H	 1.0426601818	 1.8076034904	 0.0304357571	 0.13785
H	-0.5664830335	 1.8709253577	-0.7686061988	 0.16129
H	-0.4878193482	 1.7728745367	 0.9729774254	 0.16128
H	-0.4232737365	-2.4340229778	-0.1424266486	 0.263585
H	-3.4105207579	-2.2862061321	-0.0045799206	 0.135051
H	-3.4609986652	-4.4050445864	-1.3996922168	 0.126725
H	-1.639700889	-4.4012228363	-1.4492826627	 0.118823
H	-1.536501041	-4.5328215993	 1.0609930805	 0.11885
H	-3.3558472712	-4.5393500756	 1.1604169263	 0.12669
18.4958	66.5514	84.2567	106.2974	124.5399	279.8546	307.4939	383.3734	387.9976	465.3132	530.0748	598.0476	616.2466	725.0172	761.2783	812.4323	827.2196	896.0351	938.0923	949.5571	1012.2261	1032.5934	1060.6607	1073.2098	1140.215	1167.4722	1196.4882	1209.9533	1242.3007	1272.2357	1381.48	1393.1424	1449.0769	1455.9234	1464.7351	1500.6833	1559.5219	1774.8247	1803.4617	3051.4623	3112.4576	3131.94	3135.887	3164.2045	3203.7949	3212.7804	3228.8941	3590.2897
CC(=O)C(=O)NC1CC1	CC(=O)C(=O)NC1CC1	
InChI=1S/C6H9NO2/c1-4(8)6(9)7-5-2-3-5/h5H,2-3H2,1H3,(H,7,9)	InChI=1S/C6H9NO2/c1-4(8)6(9)7-5-2-3-5/h5H,2-3H2,1H3,(H,7,9)
