16
gdb 27206	3.33558	1.55896	1.06939	0.8568	79.37	-0.1712	0.0177	0.1888	1064.7334	0.126507	-400.787274	-400.779826	-400.778882	-400.818798	29.423	
O	 0.0887835887	 1.3427416667	 0.2025591542	-0.431686
C	 0.0598340682	-0.0002543264	-0.0092389345	 0.227602
C	 0.0499240899	-0.8043773472	-1.122841827	 0.147114
C	 0.0602886076	-0.8196014538	-2.5774053044	-0.233485
C	 0.0348752006	-2.0962272268	-3.0076233776	-0.086459
C	 0.0040270138	-3.0851381441	-1.847548675	-0.42035
C	 0.0159419115	-2.1628262363	-0.6562976911	 0.256846
C	 0.0062050789	-2.1521501824	 0.707650698	-0.254498
N	 0.0332383724	-0.8119936275	 1.093630579	-0.298136
H	 0.1023813169	 1.7811587695	-0.6530589902	 0.308121
H	 0.0846890841	 0.0533973346	-3.2191002587	 0.08065
H	 0.0355221036	-2.412321424	-4.0430789754	 0.087948
H	-0.8877340773	-3.7255411964	-1.8896286288	 0.118893
H	 0.8666278801	-3.7649868597	-1.8765999504	 0.118898
H	-0.0168160596	-2.9318481456	 1.4508965604	 0.116346
H	 0.0343050707	-0.4673240008	 2.0377444715	 0.262195
175.3406	186.2726	213.4221	281.8443	297.1417	430.3693	445.1714	530.0844	602.2077	620.3799	657.6164	669.0938	689.7857	738.014	790.3641	858.0908	930.7961	934.7244	950.3912	1027.3568	1067.5327	1138.5081	1145.7257	1152.2515	1212.7723	1244.9776	1297.7861	1330.1783	1359.0325	1416.0216	1455.2807	1533.8294	1599.8647	1611.8263	1675.3891	3012.1263	3033.1747	3191.5728	3220.4885	3265.8458	3683.9498	3853.3587
OC1=C2C=CCC2=CN1	Oc1c2C=CCc2c[nH]1	
InChI=1S/C7H7NO/c9-7-6-3-1-2-5(6)4-8-7/h1,3-4,8-9H,2H2	InChI=1S/C7H7NO/c9-7-6-3-1-2-5(6)4-8-7/h1,3-4,8-9H,2H2
