15
gdb 30546	5.06991	0.89923	0.76693	7.5528	102.08	-0.1663	-0.0642	0.1021	1411.3222	0.113313	-450.104325	-450.095963	-450.095019	-450.137869	30.349	
N	-0.1805406906	 1.4242349529	-0.0108675046	-0.540046
C	 0.0495047193	 0.0416229792	 0.0372221139	-0.071886
N	-1.0209269792	-0.7454454085	 0.1001912635	-0.263048
H	-1.9045501495	-0.2501680795	 0.1747475728	 0.282495
C	-1.1035482774	-2.0851342296	 0.0629959263	 0.399638
C	-2.1858877347	-2.9591823159	 0.112970652	-0.151769
N	-1.7728257655	-4.2139610664	 0.0327337682	-0.327243
C	-0.3907063555	-4.1580119412	-0.0695033881	 0.432285
N	 0.4966750867	-5.0591923417	-0.1681108109	-0.559273
O	 0.0381814587	-2.8071658893	-0.0536193814	-0.229063
H	 0.5397171527	 1.9458505478	 0.4749892744	 0.259231
H	-0.2430142722	 1.7955183674	-0.9573033359	 0.257596
H	 1.0214489236	-0.4337636041	 0.0205426772	 0.1622
H	-3.2319385826	-2.6911073251	 0.2004116182	 0.120284
H	 0.0305025662	-5.9646640158	-0.1605631654	 0.2286
76.91	105.9105	139.3189	173.5355	224.5486	367.3117	414.9393	437.5037	522.5548	564.5001	625.4056	714.8758	750.5199	775.7937	801.6031	820.7847	848.8996	900.3926	902.5505	981.0427	1034.2428	1110.773	1208.4383	1232.419	1262.8015	1325.6289	1349.2831	1460.6209	1473.789	1545.4256	1651.8234	1692.2637	1727.0889	3207.0011	3219.6602	3449.8935	3519.7575	3550.2518	3568.6051
NC=[NH+]C1=C[N-]C(=N)O1	[NH2]=CNc1cnc([NH])o1	
InChI=1S/C4H5N4O/c5-2-8-3-1-7-4(6)9-3/h1-2H,(H3-,5,6,7,8)/q-1/p+1	InChI=1S/C4H6N4O/c5-2-8-3-1-7-4(6)9-3/h1-2,6,8H,5H2
