12
gdb 5449	3.76234	1.96957	1.29279	3.3737	65.58	-0.202	0.0182	0.2202	858.0459	0.084358	-377.525307	-377.518335	-377.517391	-377.556266	26.277	
O	 0.1048756684	 1.3236700925	 0.1296737459	-0.425251
C	 0.0591327387	-0.0123403162	-0.002202763	 0.310024
C	 0.0211334212	-0.8502543466	-1.098336319	 0.054503
N	-0.0188392851	-2.171242707	-0.6606665784	-0.304643
C	-0.0048409548	-2.1133835517	 0.6409196651	-0.008516
N	 0.0422836253	-0.8128819766	 1.1006899354	-0.298192
C	 0.0233045819	-0.4174062291	-2.4408682842	 0.194998
C	 0.0281186856	 0.0289926831	-3.5615566367	-0.439131
H	 0.1097149593	 1.6997684754	-0.760561043	 0.316216
H	-0.0265841088	-2.9539889524	 1.3172382672	 0.134278
H	 0.0615670698	-0.4927663561	 2.0548366614	 0.278023
H	 0.0314695284	 0.3937480748	-4.5584419908	 0.187691
126.8452	164.9963	296.7055	368.1291	380.4036	447.0525	496.8741	510.1357	533.2616	618.4699	664.3885	684.8235	728.8741	740.9918	779.6767	949.001	1079.7358	1122.1449	1201.2233	1299.3693	1310.955	1394.3784	1513.6601	1561.6565	1628.7127	2220.8489	3258.2762	3502.3428	3664.0321	3781.1116
OC1=C(N=CN1)C#C	Oc1c(nc[nH]1)C#C	
InChI=1S/C5H4N2O/c1-2-4-5(8)7-3-6-4/h1,3,8H,(H,6,7)	InChI=1S/C5H4N2O/c1-2-4-5(8)7-3-6-4/h1,3,8H,(H,6,7)
