19
gdb 86395	2.53598	1.45142	1.10256	2.6954	70.81	-0.2495	0.0672	0.3167	1127.2541	0.158698	-460.148445	-460.139592	-460.138648	-460.181407	34.61	
O	-0.0972297871	 1.4399671611	 0.0223934473	-0.433411
C	-0.011395082	 0.0222619435	-0.0063820998	 0.122168
C	 0.6981457158	-0.5881615312	 1.2284857106	-0.32595
C	 0.0371050265	-1.9666647875	 1.4353965658	 0.053369
O	-0.0151920271	-2.4126767646	 2.7860246114	-0.445946
C	-1.3720490539	-1.799333011	 0.9011399947	 0.412852
O	-2.0565759961	-2.9575292141	 0.5389227311	-0.483356
C	-2.1371593493	-0.5767926097	 1.3367410847	-0.342466
C	-1.3997840389	-0.5897012891	 0.0106195126	-0.089715
H	 0.7941040598	 1.7938555949	-0.060127565	 0.280131
H	 0.5001792707	-0.3024011869	-0.926313004	 0.067446
H	 1.7838242192	-0.6508065413	 1.1042512023	 0.087625
H	 0.497744454	 0.0398238653	 2.1018793543	 0.120936
H	 0.529291237	-2.7262393896	 0.8087744748	 0.072658
H	 0.8707248983	-2.678045383	 3.0510805733	 0.283518
H	-2.2605157144	-3.4284727781	 1.3551581397	 0.288284
H	-3.2153903694	-0.6645272913	 1.2679327868	 0.114495
H	-1.7805727036	 0.0420103005	 2.1518025935	 0.122513
H	-1.9859554995	-0.5876497479	-0.9003942541	 0.094848
116.9607	139.4791	228.5124	260.3726	269.6889	278.5535	319.2152	361.4682	427.6257	449.8144	479.1303	549.9288	599.3883	613.1281	698.2577	818.7656	899.1792	939.4128	941.2482	969.6627	993.5791	1024.722	1048.0281	1063.9287	1082.2406	1098.8988	1119.7269	1176.3217	1201.5143	1241.166	1256.6939	1269.2884	1283.8916	1338.9027	1359.932	1361.6248	1414.8263	1431.8687	1442.0764	1486.5546	1508.1564	2970.0136	2985.2521	3050.2114	3099.1182	3141.9562	3186.9324	3230.6717	3793.8677	3815.2244	3823.4819
OC1CC(O)C2(O)CC12	O[C@H]1C[C@@H](O)[C@@]2(O)C[C@@H]12	
InChI=1S/C6H10O3/c7-4-1-5(8)6(9)2-3(4)6/h3-5,7-9H,1-2H2	InChI=1S/C6H10O3/c7-4-1-5(8)6(9)2-3(4)6/h3-5,7-9H,1-2H2/t3-,4-,5+,6+/m0/s1
