15
gdb 126207	2.47527	1.33744	0.91694	5.3227	71.63	-0.2667	-0.0634	0.2033	1229.5228	0.110529	-453.941291	-453.932679	-453.931734	-453.975561	29.916	
C	-0.2604244208	 1.6233240175	-0.0451368084	-0.38023
C	 0.1171686423	 0.1331788197	 0.04078381	-0.301381
C	 0.8414022739	-0.345201865	-1.1731417725	 0.385181
C	 2.1138107263	-0.8428481297	-1.3629108681	 0.049302
C	 3.1844895842	-1.076269267	-0.3965087241	 0.082042
O	 4.2758126653	-1.5176567894	-0.6635212084	-0.257593
N	 2.2293567476	-1.1092621508	-2.7168933289	-0.117621
N	 1.1988180601	-0.8329229972	-3.337223502	 0.002102
O	 0.2154177423	-0.3051956538	-2.3284397969	-0.236996
H	 0.631690813	 2.2501642955	-0.1293036669	 0.136547
H	-0.8952596755	 1.813510382	-0.9135987073	 0.149349
H	-0.804871443	 1.9214854396	 0.8541639688	 0.132869
H	 0.7386431626	-0.0544602586	 0.9203250732	 0.133128
H	-0.7905888679	-0.4708578573	 0.1541378464	 0.148405
H	 2.9081748697	-0.8055033354	 0.6465035051	 0.074895
38.4506	136.9464	152.8008	174.0684	220.6882	263.9003	296.2037	381.4286	414.4922	548.1721	627.3622	690.1296	754.7033	794.7365	804.0153	963.0529	989.3224	1025.0135	1078.9289	1087.2441	1146.6388	1258.5681	1309.8668	1350.574	1395.294	1415.4498	1433.5887	1477.7974	1496.2974	1505.815	1552.9165	1580.8287	1805.554	2882.4339	3047.0216	3053.0196	3098.0947	3127.5937	3137.4759
CCC1=C(C=O)N=NO1	CCc1c(C=O)nno1	
InChI=1S/C5H6N2O2/c1-2-5-4(3-8)6-7-9-5/h3H,2H2,1H3	InChI=1S/C5H6N2O2/c1-2-5-4(3-8)6-7-9-5/h3H,2H2,1H3
