19
gdb 111867	2.37999	1.50287	1.17051	3.3528	70.35	-0.2392	0.0637	0.3029	1108.5945	0.159292	-460.131853	-460.123161	-460.122217	-460.165529	32.916	
O	 0.1356363812	 1.0460208397	-0.6749401471	-0.423433
C	 0.0325923155	 0.006426303	 0.2827769306	-0.090043
C	-1.3472346858	-0.6286551284	 0.2886388112	-0.096111
C	-1.9040826385	-1.2087063175	-0.997054767	-0.026102
O	-0.9443370009	-1.4269440987	-2.0058312222	-0.269332
C	-0.3439215443	-2.7175226079	-1.7939257652	-0.070057
C	-0.4890690552	-3.0456527784	-0.2913598509	-0.32928
C	-1.6156170978	-2.1133445994	 0.1701408928	 0.352961
O	-2.6049786079	-2.612411465	 1.0147028605	-0.465805
H	-0.0287336198	 0.6273633625	-1.5289283607	 0.292408
H	 0.8117109074	-0.752194154	 0.1219136535	 0.08317
H	 0.2344815413	 0.462217401	 1.256894466	 0.111883
H	-2.0963015701	-0.1206716694	 0.8896937043	 0.103798
H	-2.9021960962	-0.9671023325	-1.3484453596	 0.102335
H	-0.8649525686	-3.465447789	-2.4082811046	 0.100928
H	 0.6932628013	-2.6577827069	-2.133770673	 0.11606
H	-0.7947005438	-4.0839069767	-0.1327212294	 0.105506
H	 0.4429643467	-2.8956054846	 0.2607152069	 0.120946
H	-3.0857067946	-3.3036664076	 0.5444383941	 0.280167
64.3368	88.1626	163.592	228.0692	269.2584	323.5455	339.8822	395.8463	470.0088	514.7408	587.7371	627.6952	683.2823	758.8889	817.26	849.0489	895.6991	941.524	957.93	1003.1765	1009.2171	1036.4553	1070.9461	1084.1566	1112.5703	1118.9095	1194.0233	1204.472	1242.3179	1245.0924	1261.6423	1296.4429	1318.1115	1343.2037	1381.1866	1399.195	1434.3635	1453.2976	1493.8931	1509.2802	1520.6722	2999.3289	3002.1043	3056.8869	3078.0694	3087.6812	3103.0535	3153.4435	3164.2179	3782.3381	3784.7654
OCC1C2OCCC12O	OC[C@H]1[C@H]2OCC[C@@]12O	
InChI=1S/C6H10O3/c7-3-4-5-6(4,8)1-2-9-5/h4-5,7-8H,1-3H2	InChI=1S/C6H10O3/c7-3-4-5-6(4,8)1-2-9-5/h4-5,7-8H,1-3H2/t4-,5+,6+/m0/s1
