21
gdb 59955	2.52279	1.03282	0.89426	2.7762	75.25	-0.2454	-0.0214	0.224	1399.8542	0.178365	-461.378075	-461.367286	-461.366342	-461.414074	39.446	
C	-0.1388433784	 1.5813793679	 0.0111887322	-0.408484
C	-0.0287274503	 0.0592034645	 0.0194367404	 0.102878
O	 0.6538176568	-0.3938800225	 1.2061903481	-0.433176
C	-1.3917388503	-0.624779186	-0.1363824179	-0.228783
C	-1.3518696532	-2.1667242398	-0.1322632974	 0.260055
C	-0.4914975752	-2.7528901037	-1.2720500271	-0.428787
O	-0.9338689766	-2.681345376	 1.1239593271	-0.48563
C	-2.7680318897	-2.7108239997	-0.3258697995	 0.15187
O	-3.5828801965	-2.2451355476	-1.079059621	-0.267484
H	 0.8457781244	 2.0348564959	 0.1541273133	 0.128518
H	-0.5534247201	 1.9386799542	-0.9361544276	 0.128562
H	-0.8007355883	 1.9290456042	 0.814283416	 0.113886
H	 0.6340291279	-0.2498050191	-0.7957585768	 0.101472
H	 0.2092817641	 0.0033419401	 1.9648571697	 0.286535
H	-2.0451149212	-0.3015763672	 0.6853815602	 0.095808
H	-1.8689501964	-0.2915626165	-1.0635430437	 0.122622
H	 0.5612733791	-2.4924895951	-1.1301075676	 0.126113
H	-0.5625782289	-3.8445827827	-1.2664132672	 0.127624
H	-0.8223211636	-2.3853573999	-2.2480898992	 0.127269
H	-0.1401637093	-2.1793010148	 1.363455169	 0.284906
H	-2.9734441343	-3.6117676062	 0.2936735289	 0.094227
51.1051	67.0645	134.3017	153.9811	243.3123	249.0976	254.6996	285.8691	299.7413	310.9012	359.8762	422.9219	432.1157	468.7048	525.6696	625.7728	640.4994	766.9887	847.8426	893.0304	908.5386	942.0967	968.7659	992.161	1033.5315	1078.0984	1106.7129	1149.2485	1167.8682	1212.3793	1253.4791	1311.068	1325.1779	1386.4577	1392.6847	1401.912	1406.2217	1419.5797	1438.5225	1465.9296	1490.7259	1491.9463	1496.4403	1504.5342	1835.8858	2896.901	3020.6292	3028.0945	3039.0516	3060.0861	3088.8641	3102.3955	3113.6452	3120.9507	3122.2489	3698.4807	3788.2519
CC(O)CC(C)(O)C=O	C[C@@H](O)C[C@@](C)(O)C=O	
InChI=1S/C6H12O3/c1-5(8)3-6(2,9)4-7/h4-5,8-9H,3H2,1-2H3	InChI=1S/C6H12O3/c1-5(8)3-6(2,9)4-7/h4-5,8-9H,3H2,1-2H3/t5-,6-/m1/s1
