23
gdb 78555	2.47839	1.44649	1.11527	0.3114	90.91	-0.2326	0.0949	0.3275	1224.2039	0.205078	-351.121183	-351.111988	-351.111044	-351.15439	36.413	
C	-0.0043347141	 1.5731017045	 0.0079515018	-0.419465
C	 0.1160168792	 0.0643431298	-0.0517501267	-0.050231
C	 0.691455995	-0.723098714	-1.2073996345	-0.204854
C	 1.9062941917	-0.0320270832	-1.7930273689	 0.406815
C	 2.5606382963	-0.3834438648	-3.0945098759	-0.345826
C	 1.9643295757	 0.9934102689	-2.8903035767	-0.320884
C	 2.6028143245	-0.0222144096	-0.4177566686	-0.38154
C	 1.3725044194	-0.7389244988	 0.1764826015	 0.344619
C	 1.4678426216	-1.8427177107	 1.1911956657	-0.495169
H	 0.8481111097	 2.0748273131	-0.4555119138	 0.126385
H	-0.9059714114	 1.910366189	-0.5156288368	 0.11251
H	-0.0751160936	 1.9197959311	 1.0452786927	 0.110498
H	-0.7485076051	-0.4442711872	 0.3750549696	 0.076017
H	 0.132588305	-1.5127524227	-1.6997183216	 0.074861
H	 3.6423787001	-0.4740413738	-3.1178067024	 0.10719
H	 2.0431916129	-1.069418177	-3.7583923393	 0.108961
H	 1.0477411298	 1.2379995411	-3.4175752787	 0.109437
H	 2.6478390336	 1.8290342717	-2.7747468216	 0.107231
H	 3.4955722893	-0.6549336125	-0.4000405368	 0.098677
H	 2.8587573309	 0.9525558526	 0.0124427929	 0.090252
H	 1.7574564158	-1.4556574876	 2.1765334093	 0.116344
H	 0.507782745	-2.3560792121	 1.3102398453	 0.114644
H	 2.2142775888	-2.5915749177	 0.9006715435	 0.113529
109.7206	179.88	193.9808	197.6633	214.4884	254.3621	301.9445	349.8394	369.1252	465.9053	490.8409	577.2985	663.6029	734.1658	775.1547	807.0638	853.6951	885.1321	916.0628	927.863	941.9091	966.0052	980.6147	1001.8097	1045.6171	1053.7452	1062.7531	1074.478	1108.5617	1121.8043	1145.6877	1167.7928	1188.0365	1215.9922	1226.0768	1261.6432	1292.3457	1330.2668	1393.4661	1412.2319	1417.2572	1461.0442	1463.8879	1483.8336	1487.7422	1496.9246	1502.9115	1503.9758	1506.312	3014.2748	3029.3516	3033.2099	3069.8369	3082.1525	3084.3298	3091.644	3104.703	3116.8694	3122.4695	3125.1701	3157.1395	3194.7203	3210.4334
CC1C2C3(CC3)CC12C	C[C@H]1[C@H]2C3(CC3)C[C@@]12C	
InChI=1S/C9H14/c1-6-7-8(6,2)5-9(7)3-4-9/h6-7H,3-5H2,1-2H3	InChI=1S/C9H14/c1-6-7-8(6,2)5-9(7)3-4-9/h6-7H,3-5H2,1-2H3/t6-,7+,8-/m0/s1
