14
gdb 16133	4.18725	1.89737	1.53153	2.8614	62.21	-0.2591	-0.0412	0.2179	807.7716	0.107959	-378.708685	-378.702143	-378.701199	-378.739506	24.373	
O	-0.857062244	 1.1473826015	-0.2026867824	-0.251322
C	 0.2588402269	 0.8509511086	 0.1411009094	 0.098968
C	 1.4237030275	 1.7732179878	 0.0413711006	 0.211962
C	 2.7911478593	 1.206821063	-0.1518690373	-0.279553
N	 2.4048043117	 1.7063046115	 1.1776863974	-0.155479
C	 2.7451668997	 3.0934574376	 1.3313845889	 0.038047
N	 2.1560904387	 3.9646480519	 0.621979646	-0.1931
C	 1.2135671755	 3.2544981758	-0.2618832461	-0.250964
H	 0.5013846493	-0.1486958972	 0.5624982512	 0.089568
H	 2.9273002836	 0.1303929517	-0.2086398854	 0.135637
H	 3.4915567391	 1.798926217	-0.7355141384	 0.141709
H	 3.4888976223	 3.3363546001	 2.0843686261	 0.137485
H	 1.4050464737	 3.5284707787	-1.3039825548	 0.129111
H	 0.1838400167	 3.5475454121	-0.0337689853	 0.147931
99.0046	210.8846	222.812	348.0845	379.9808	481.784	537.693	659.4558	776.6466	780.9946	823.1529	926.019	938.6785	943.5108	965.5673	1010.9889	1038.7252	1059.0154	1126.8841	1148.9515	1195.4054	1266.7903	1295.1924	1326.3477	1359.1442	1425.2376	1483.4494	1497.8195	1686.0099	1821.9989	2900.9066	3057.306	3092.9357	3106.9098	3193.7457	3200.4677
O=CC12CN1C=NC2	O=C[C@]12CN1C=NC2	
InChI=1S/C5H6N2O/c8-3-5-1-6-4-7(5)2-5/h3-4H,1-2H2	InChI=1S/C5H6N2O/c8-3-5-1-6-4-7(5)2-5/h3-4H,1-2H2/t5-,7?/m0/s1
