17
gdb 62301	3.41283	1.49846	1.19748	5.3928	77.21	-0.2509	0.0246	0.2755	1037.0875	0.136318	-380.783291	-380.775805	-380.774861	-380.815002	29.225	
C	-0.1608224098	 1.5828863409	-0.0170813639	-0.472815
C	-0.0344558526	 0.0601965087	-0.0058346697	 0.144168
C	-1.3091325014	-0.580327406	-0.3301735531	 0.248969
N	-2.3420680263	-1.0283337072	-0.5920197073	-0.336129
C	 1.2123794513	-0.5868725429	-0.6538503603	-0.039687
C	 2.1564121696	-0.228115425	 0.5333379124	-0.085417
C	 2.5668295811	-1.6944290062	 0.615751485	-0.194233
N	 1.093162948	-1.8411821194	 0.2486280348	-0.142514
C	 0.769511662	-0.6103538748	 1.1331049751	-0.039676
H	 0.7960035111	 2.0519464858	 0.2258712515	 0.128503
H	-0.4791406012	 1.9367626508	-1.0016419316	 0.143141
H	-0.9036684161	 1.9141702691	 0.7139139977	 0.143135
H	 1.4571879801	-0.6820289256	-1.7127297519	 0.10005
H	 2.7397746715	 0.6840536393	 0.6899099235	 0.078937
H	 3.2462183516	-2.0848350526	-0.1480733533	 0.111761
H	 2.8133972646	-2.1078050352	 1.598470676	 0.111759
H	 0.4921897065	-0.7331935297	 2.1810630649	 0.100049
145.5518	162.1146	212.6262	252.2968	266.5875	423.1933	464.6952	518.468	567.1229	630.3155	750.8153	806.0266	846.1408	846.3403	883.7355	893.2682	927.3663	942.7881	1023.4448	1029.2895	1075.9457	1101.4533	1102.6051	1147.0492	1152.2366	1187.2317	1188.7299	1191.7902	1206.5395	1276.1081	1290.3555	1316.4819	1417.2436	1488.1087	1498.1278	1521.2954	2353.254	3044.0522	3047.9754	3060.634	3106.5551	3109.5373	3114.2469	3119.8378	3126.9846
CC1(C#N)C2C3CN2C13	C[C@@]1(C#N)[C@H]2[C@@H]3CN2[C@H]13	
InChI=1S/C7H8N2/c1-7(3-8)5-4-2-9(5)6(4)7/h4-6H,2H2,1H3	InChI=1S/C7H8N2/c1-7(3-8)5-4-2-9(5)6(4)7/h4-6H,2H2,1H3/t4-,5+,6-,7+
