17
gdb 19375	5.11926	1.55426	1.43841	2.3664	67.2	-0.2054	0.0579	0.2633	902.9757	0.1427	-363.766589	-363.759493	-363.758549	-363.797669	28.094	
O	 0.5544223654	 0.4707000611	-0.9543702509	-0.409225
C	-0.0471333894	 0.2103733914	 0.3069322194	-0.208617
C	-1.4647023827	-0.2617938683	 0.1681690259	 0.33531
N	-1.8492980706	-1.2489165594	-0.8653478603	-0.375367
C	-2.5064124497	 0.0881887602	-0.8184360033	-0.126851
C	-3.5982972402	 0.0802427409	 0.2915770704	-0.054254
C	-3.6626023974	-1.2333736206	 1.0236550313	-0.287933
C	-2.5285562234	-0.2856368876	 1.3125675558	-0.122335
H	 0.1198061046	 1.245485868	-1.3264258939	 0.287964
H	 0.5689013945	-0.5671920703	 0.7751597638	 0.123184
H	-0.0098347659	 1.0932604331	 0.9637947197	 0.09826
H	-1.1219267334	-1.1798936512	-1.5791688351	 0.233411
H	-2.4803792913	 0.7493014523	-1.6761748972	 0.083864
H	-4.3661764453	 0.8385274541	 0.3697969214	 0.087468
H	-4.418456487	-1.2746673993	 1.8020481891	 0.105716
H	-3.4805095591	-2.1630861854	 0.5008311937	 0.144016
H	-2.3539077191	 0.1502397009	 2.2880064504	 0.08539
103.8158	184.0537	231.3723	341.2491	374.1141	424.4388	463.261	583.5975	663.4163	716.4931	749.3388	815.5584	854.1289	883.9959	917.063	931.6491	965.5959	973.183	999.1422	1030.6964	1048.9429	1057.9849	1079.5026	1102.856	1152.7457	1188.415	1200.0704	1222.3482	1287.8306	1294.0195	1337.7148	1384.7885	1414.1232	1442.8691	1462.7981	1502.839	2984.7104	3051.4588	3138.3834	3181.0537	3188.9288	3201.23	3235.324	3459.9243	3810.8212
OCC12NC1C1CC21	OC[C@]12N[C@H]1[C@H]1C[C@@H]21	
InChI=1S/C6H9NO/c8-2-6-4-1-3(4)5(6)7-6/h3-5,7-8H,1-2H2	InChI=1S/C6H9NO/c8-2-6-4-1-3(4)5(6)7-6/h3-5,7-8H,1-2H2/t3-,4+,5-,6+/m0/s1
