25
gdb 101822	4.09026	0.57716	0.56791	0.1107	86.33	-0.2582	0.0694	0.3277	2117.1524	0.225874	-426.637293	-426.625475	-426.624531	-426.674929	42.805	
C	 0.05289925	 1.5803928934	-0.1319808988	-0.380466
C	 0.0107298441	 0.0576652499	 0.0142370656	-0.186365
C	-1.4139178059	-0.5110416447	 0.0349861213	 0.132203
O	-2.1385328025	-0.1393101239	-1.140959058	-0.429964
C	-1.4315821507	-2.030493666	 0.2391744514	-0.202906
C	-2.8420647305	-2.6124949059	 0.3660068536	-0.194599
C	-2.8733469309	-4.1454635392	 0.3293469729	 0.134946
C	-4.2781877039	-4.7042483735	 0.5558730631	-0.402314
O	-2.311865414	-4.6482048819	-0.8850238637	-0.429927
H	 1.082142465	 1.9450491183	-0.2016539793	 0.10766
H	-0.4878959318	 1.8962602856	-1.0279012842	 0.125568
H	-0.4179155224	 2.0707417778	 0.7273882967	 0.112884
H	 0.5611615387	-0.415092232	-0.8129330795	 0.084776
H	 0.5259418102	-0.2486858006	 0.9332173097	 0.095465
H	-1.972203802	-0.0316391786	 0.8511188335	 0.080702
H	-1.6720584485	-0.519663422	-1.8944715284	 0.274286
H	-0.923295199	-2.5127678714	-0.6066278692	 0.098862
H	-0.8433229079	-2.2790185184	 1.1323923323	 0.090189
H	-3.3074643672	-2.2665509614	 1.2985196381	 0.089819
H	-3.4642875792	-2.222181241	-0.450471439	 0.097612
H	-2.2061113563	-4.5342583639	 1.1097583881	 0.084397
H	-4.9736270769	-4.3215262866	-0.2020330635	 0.106228
H	-4.2687114806	-5.7957433196	 0.4916938926	 0.121772
H	-4.6675977082	-4.4156517044	 1.5375521705	 0.1153
H	-2.9021723497	-4.3883288199	-1.6015671157	 0.273874
45.3953	62.4928	93.7935	118.4612	160.5431	219.282	229.4751	247.3974	264.1097	284.9677	323.1763	330.0289	412.5065	447.3249	472.5819	497.8004	555.4956	765.6105	783.7338	831.3191	883.9976	930.2298	940.107	984.1155	1013.8156	1027.0451	1065.0512	1077.3186	1099.343	1107.8486	1135.4051	1161.4149	1176.9531	1257.0952	1262.6426	1290.8785	1320.7619	1338.1087	1361.6329	1365.2811	1389.8256	1396.3715	1404.7946	1406.7813	1420.6331	1424.4195	1473.9379	1482.0828	1491.597	1495.3649	1496.0266	1499.0501	1509.1746	2998.8905	3012.4698	3014.2606	3021.2936	3022.4421	3028.817	3036.6923	3044.0908	3052.6275	3068.3027	3093.7839	3100.7224	3117.4787	3121.3711	3787.6422	3791.6367
CCC(O)CCC(C)O	CC[C@@H](O)CC[C@@H](C)O	
InChI=1S/C7H16O2/c1-3-7(9)5-4-6(2)8/h6-9H,3-5H2,1-2H3	InChI=1S/C7H16O2/c1-3-7(9)5-4-6(2)8/h6-9H,3-5H2,1-2H3/t6-,7-/m1/s1
