17
gdb 41580	2.99887	1.86906	1.83073	1.0209	65.	-0.2544	0.0674	0.3218	839.4681	0.139654	-458.939818	-458.93376	-458.932816	-458.970139	25.157	
C	-0.0366287719	 1.5414806058	 0.1745863967	-0.097792
O	 1.409562647	 1.5966874045	 0.0561971075	-0.296561
C	 1.5000541362	 0.1614168245	-0.0542071594	 0.114435
C	-0.0405115872	 0.013319453	-0.0244321809	-0.10004
C	-0.272129609	-0.5643794088	-1.4394837171	 0.178997
O	-0.0657786095	 0.4367201642	-2.4269643779	-0.276018
C	 1.3699889965	 0.552359008	-2.5436160365	-0.089278
C	 1.8395355721	-0.4222222866	-1.457505335	-0.002245
O	 0.831228517	-1.4478277138	-1.5727661812	-0.254294
H	-0.3598172202	 1.871029831	 1.1679709041	 0.104905
H	-0.5360212955	 2.128904859	-0.600603291	 0.121407
H	 2.1040914283	-0.2759849868	 0.7455987501	 0.086067
H	-0.4970351517	-0.5965091282	 0.7546263539	 0.088529
H	-1.2112540815	-1.0832840606	-1.62864319	 0.095074
H	 1.6827580191	 0.230416053	-3.5423236666	 0.106523
H	 1.6782660313	 1.5822281717	-2.3569447987	 0.129662
H	 2.8304250093	-0.8533687298	-1.585236648	 0.090628
151.7727	274.1731	322.5556	434.7575	532.3329	561.4512	631.1375	748.9511	780.3155	822.2684	857.0082	876.8396	905.7491	913.8013	962.2407	980.77	1003.4711	1013.6538	1019.8552	1041.6834	1057.9259	1084.6344	1108.783	1174.7765	1192.4423	1207.0708	1241.7051	1251.8478	1291.3075	1309.5175	1320.245	1329.8498	1351.1239	1360.8926	1382.9152	1507.2862	1514.4826	3038.535	3048.6205	3068.3599	3099.2822	3117.2411	3124.1301	3135.6094	3147.719
C1OC2C1C1OCC2O1	C1O[C@H]2[C@@H]1[C@H]1OC[C@@H]2O1	
InChI=1S/C6H8O3/c1-3-5(7-1)4-2-8-6(3)9-4/h3-6H,1-2H2	InChI=1S/C6H8O3/c1-3-5(7-1)4-2-8-6(3)9-4/h3-6H,1-2H2/t3-,4+,5+,6+/m1/s1
