15
gdb 66463	3.06027	1.7249	1.52281	0.8695	63.19	-0.2411	0.0624	0.3035	885.4912	0.111728	-457.662711	-457.655853	-457.654909	-457.693463	28.274	
O	-0.0824588741	 1.2910207974	 0.0900381967	-0.464204
C	 0.0507976503	-0.0751740374	 0.0545570048	 0.417625
C	-0.1467025432	-0.953468698	-1.1878336551	-0.175059
C	-1.0513344774	-1.095855704	 0.0293185142	-0.225574
C	-0.0172063391	-2.1220413268	 0.5707150063	 0.416054
O	-0.3502774089	-3.1690504373	 1.3859280823	-0.472425
C	 0.7890618759	-2.1218671643	-0.7932893205	-0.034648
O	 1.962513709	-1.5531244194	-0.1644827229	-0.29478
C	 1.059861067	-0.988159505	 0.8108879844	-0.127958
H	 0.6409089913	 1.6795460487	-0.4161005136	 0.290717
H	-0.3873009192	-0.5443952881	-2.1595162273	 0.09737
H	-2.1226864735	-1.0105761627	 0.1291113799	 0.109543
H	 0.4580192732	-3.6368686054	 1.6293809989	 0.293963
H	 0.9964714152	-2.9499211365	-1.4704053368	 0.0833
H	 1.5192029136	-0.675338281	 1.7479865886	 0.086075
215.9513	259.4267	296.6011	309.6372	353.6418	394.0932	547.2315	565.7016	595.3518	663.0474	758.9132	782.6421	815.5599	832.8172	872.7088	901.8515	919.4667	925.7007	939.54	989.8722	998.3328	1056.7145	1082.914	1108.1947	1138.553	1170.8473	1214.0306	1238.6637	1280.2849	1307.8635	1343.1949	1410.0052	1471.5849	3127.9786	3135.0966	3212.4073	3238.8295	3781.9257	3785.7761
OC12C3C1C1(O)C3OC21	O[C@]12[C@@H]3[C@H]1[C@@]1(O)[C@@H]3O[C@@H]21	
InChI=1S/C6H6O3/c7-5-1-2(5)6(8)3(1)9-4(5)6/h1-4,7-8H	InChI=1S/C6H6O3/c7-5-1-2(5)6(8)3(1)9-4(5)6/h1-4,7-8H/t1-,2-,3-,4+,5-,6-/m1/s1
