23
gdb 118963	2.38331	1.00924	0.94502	1.3578	81.93	-0.2486	0.0741	0.3227	1443.6598	0.203709	-425.420696	-425.410209	-425.409265	-425.455976	39.318	
C	 0.0166071906	 1.590396461	-0.0102653446	-0.381474
C	 0.0227271855	 0.0646466958	 0.1157173516	-0.169238
C	-1.3672304703	-0.5512476953	-0.0834073579	-0.227011
C	-1.3834290842	-2.081466773	-0.0084930839	 0.382412
O	-0.4789209651	-2.659574833	-0.9343745444	-0.483138
C	-1.199804825	-2.6617710881	 1.4196722612	-0.261968
C	-2.7434014705	-2.7866934052	 1.5432803148	-0.275278
C	-2.8194420825	-2.6831525461	-0.0028348733	 0.079565
O	-3.808837201	-1.884438934	-0.6103704567	-0.438525
H	 1.0191469021	 2.0060252448	 0.1325132024	 0.109797
H	-0.3368555361	 1.9064466741	-0.998392319	 0.111332
H	-0.6431557955	 2.0491198011	 0.7349174226	 0.111821
H	 0.7147429427	-0.3692933743	-0.614040508	 0.100576
H	 0.412649819	-0.2179632708	 1.1016434843	 0.095982
H	-2.0688457383	-0.1446494324	 0.654592938	 0.100408
H	-1.7721164697	-0.2508167018	-1.0600145967	 0.096286
H	-0.6540818951	-2.2733742461	-1.8001515561	 0.275228
H	-0.7055787213	-3.6342839194	 1.3694687933	 0.113837
H	-0.6841198444	-2.0372089903	 2.1510463965	 0.101742
H	-3.1451703144	-3.6875724358	 2.0118402647	 0.094661
H	-3.1927566824	-1.9083351397	 2.0142429924	 0.10758
H	-2.770766324	-3.682433201	-0.4584013679	 0.070723
H	-4.6535481101	-2.3396120904	-0.5395299133	 0.284681
76.9502	107.7909	121.9929	145.5475	225.1281	246.4332	256.3685	271.7161	310.8254	325.771	372.3706	425.5221	507.4303	555.4783	622.9896	742.8755	757.3684	797.2338	863.3088	881.4466	920.6743	934.4208	970.3461	998.6037	1045.74	1065.1398	1093.8231	1117.2741	1136.7769	1147.4508	1179.2544	1206.8972	1237.1258	1248.1403	1257.8697	1288.1647	1318.6943	1324.0624	1325.1994	1387.2277	1396.8756	1414.1055	1423.1692	1477.5824	1480.2924	1494.0062	1499.4583	1501.0839	1512.6682	3001.8738	3014.7603	3026.9155	3032.2806	3053.9272	3064.3164	3071.6263	3076.7057	3096.056	3099.5534	3115.2208	3134.397	3794.0231	3819.4289
CCCC1(O)CCC1O	CCC[C@@]1(O)CC[C@H]1O	
InChI=1S/C7H14O2/c1-2-4-7(9)5-3-6(7)8/h6,8-9H,2-5H2,1H3	InChI=1S/C7H14O2/c1-2-4-7(9)5-3-6(7)8/h6,8-9H,2-5H2,1H3/t6-,7-/m1/s1
