16
gdb 19201	2.80574	2.79687	2.72451	1.3296	67.46	-0.2278	-0.0058	0.222	678.4632	0.133565	-346.597731	-346.592062	-346.591117	-346.626962	24.216	
C	 0.0099817125	 1.5231831712	 0.0103802998	-0.048683
O	 1.334435209	 2.0225889859	-0.0002089497	-0.271537
C	 2.3281294435	 0.9409467844	-0.0156595454	 0.008182
C	 2.0735134086	 0.1027120791	 1.2220524067	-0.062948
C	 0.8455028095	-0.4128885703	 1.234529644	-0.071508
C	 0.0362360647	-0.053107872	 0.0019764864	-0.149043
C	 0.8208123467	-0.4000452508	-1.2500675777	-0.071505
C	 2.0488962852	 0.1154893564	-1.2566464668	-0.062951
H	-0.5066858206	 1.8804241598	 0.9102999978	 0.096551
H	-0.5244405678	 1.8896459225	-0.8753511535	 0.096552
H	 3.2955938581	 1.4402896259	-0.0226926027	 0.074242
H	 2.8050683522	 0.0170610378	 2.0159588955	 0.099921
H	 0.4077299455	-0.9722142922	 2.0526866379	 0.097179
H	-0.9762638318	-0.4569873435	 0.0099495143	 0.068445
H	 0.3668099686	-0.9509275857	-2.0651024357	 0.097179
H	 2.7645330461	 0.0380994515	-2.0657638708	 0.099921
256.529	388.9785	398.6785	457.2674	482.6157	653.3052	667.5023	696.6606	702.5865	722.9074	823.3544	843.4907	912.8861	937.7573	939.188	939.7216	954.5521	1003.3467	1009.2995	1052.0471	1074.1896	1111.6045	1158.1173	1218.6111	1244.448	1284.7957	1311.7445	1314.8985	1350.4924	1363.1687	1388.3586	1520.5485	1649.3935	1692.6603	3006.7889	3046.362	3110.8488	3128.7298	3189.1616	3190.8495	3213.4502	3216.3814
C1OC2C=CC1C=C2	C1O[C@H]2C=C[C@@H]1C=C2	
InChI=1S/C7H8O/c1-3-7-4-2-6(1)5-8-7/h1-4,6-7H,5H2	InChI=1S/C7H8O/c1-3-7-4-2-6(1)5-8-7/h1-4,6-7H,5H2/t6-,7+
