15
gdb 47325	3.17757	1.33276	0.99687	3.3028	62.3	-0.2565	-0.0518	0.2047	1115.3248	0.11198	-494.922211	-494.914265	-494.913321	-494.955573	28.608	
O	 0.0551008271	-0.0964366683	-0.3225553657	-0.26927
C	-0.0961800227	 1.0193138829	 0.111472298	 0.346315
C	-1.4787466258	 1.4963386349	 0.552782526	-0.183069
O	-1.5093013383	 2.4904388628	 1.5478657723	-0.227799
C	-0.9350993953	 3.7329562072	 1.2038365008	-0.220801
C	 0.5351907537	 3.806169834	 1.6259383963	 0.416396
O	 0.9728799383	 4.6765946353	 2.3213040701	-0.298758
O	 1.3410943403	 2.780807954	 1.2424403842	-0.21471
C	 1.0730288147	 2.0115442447	 0.0692419945	-0.18916
H	-1.9960395365	 1.8385356687	-0.3627671084	 0.124596
H	-2.0264463022	 0.6343939959	 0.9390056276	 0.153668
H	-1.0456973346	 3.9518171231	 0.1297655941	 0.114022
H	-1.4550569645	 4.5103190426	 1.7660511351	 0.153323
H	 1.9760879424	 1.4282494882	-0.1112109133	 0.161123
H	 0.9205281834	 2.6756654639	-0.7946457816	 0.134125
49.6268	94.3997	183.2039	270.7461	312.3008	330.8574	418.2856	447.3718	490.6249	550.3518	637.1217	716.6729	803.6585	816.6263	850.1753	970.3009	1024.2112	1067.202	1091.9214	1165.6177	1203.9468	1223.7306	1275.8601	1304.9716	1321.9931	1365.2386	1374.6721	1387.6241	1454.933	1469.7469	1484.9401	1817.1212	1859.8079	2945.3052	2985.1387	3004.2729	3119.4065	3124.159	3139.5103
O=C1COCC(=O)OC1	O=C1COCC(=O)OC1	
InChI=1S/C5H6O4/c6-4-1-8-3-5(7)9-2-4/h1-3H2	InChI=1S/C5H6O4/c6-4-1-8-3-5(7)9-2-4/h1-3H2
