19
gdb 22414	4.45248	0.84743	0.80429	1.4546	81.08	-0.2415	0.0025	0.244	1467.6344	0.157556	-419.130868	-419.121728	-419.120784	-419.165035	34.392	
C	 0.2046335593	 1.5231753297	-0.327179395	-0.392686
C	 0.1052116588	 0.0396233964	-0.0734911866	-0.0686
N	 1.381938773	-0.700790571	 0.0489192173	-0.382454
C	 0.5020909758	-0.5888353788	 1.2061739641	 0.343833
C	 0.9165248493	 0.0811472367	 2.5349525545	-0.380212
C	 0.1081807845	-0.9973568822	 3.2321359035	 0.418781
C	-0.2158196285	-1.7377299521	 1.9454615987	-0.406921
N	-0.183887207	-1.1396107255	 4.4547313493	-0.23346
O	-0.981227505	-2.284764739	 4.6488087138	-0.394823
H	 1.0391431669	 1.9554315378	 0.231236147	 0.128715
H	 0.3730013365	 1.725065314	-1.3903484807	 0.122531
H	-0.7171359886	 2.0345002231	-0.0283301056	 0.116232
H	-0.7005841134	-0.4631255358	-0.6089571211	 0.082849
H	 1.3026473269	-1.6254799162	-0.3682901858	 0.228649
H	 1.9927680354	 0.0352394532	 2.7293955093	 0.131052
H	 0.5739271749	 1.1081790239	 2.6917255208	 0.124179
H	-1.2813117108	-1.876524272	 1.737633331	 0.129097
H	 0.2805606289	-2.7125864148	 1.8696453939	 0.12674
H	-1.131491417	-2.2670304574	 5.6000562814	 0.306499
41.8005	149.3612	176.1625	198.8578	220.3597	266.3322	344.6028	384.5572	441.3729	449.8752	468.8713	479.5952	609.5415	744.6459	773.5651	808.8096	856.9878	925.3202	931.9943	969.8895	997.2647	1019.7782	1050.2719	1071.8128	1089.5827	1123.0338	1159.3577	1186.0401	1208.7283	1227.2194	1242.1326	1277.8273	1352.6919	1402.5614	1411.1269	1445.4274	1459.7594	1475.9972	1489.7142	1504.2772	1790.1135	3033.5752	3035.912	3051.4131	3086.6223	3096.1615	3098.2309	3099.4118	3122.5753	3489.7971	3818.2311
CC1NC11CC(C1)=NO	C[C@H]1N[C@]21CC(=NO)C2	
InChI=1S/C6H10N2O/c1-4-6(7-4)2-5(3-6)8-9/h4,7,9H,2-3H2,1H3	InChI=1S/C6H10N2O/c1-4-6(7-4)2-5(3-6)8-9/h4,7,9H,2-3H2,1H3/t4-,6-/m1/s1
