16
gdb 25599	6.35721	0.68834	0.65355	2.8839	71.71	-0.2449	-0.0224	0.2224	1623.6151	0.124184	-437.925862	-437.917543	-437.916599	-437.960613	28.845	
O	-0.2387394438	 0.0034547126	-0.0272650353	-0.235884
C	-0.0188561194	 1.1851160663	 0.0361325057	 0.15626
C	 1.3362906151	 1.8286684925	-0.1384018671	-0.265313
C	 1.3127317415	 2.9382008045	-1.2119931279	-0.335692
C	 2.5858676519	 3.7187265065	-1.2456741164	 0.268449
C	 3.4851446543	 3.8825611385	-2.245897355	-0.119648
O	 4.4941770492	 4.6883906306	-1.7913372058	-0.136728
C	 4.1430669746	 4.9691931559	-0.5184202289	 0.078549
N	 3.0340022337	 4.4321613301	-0.1322924074	-0.302461
H	-0.8439102566	 1.910163135	 0.2374019963	 0.071039
H	 1.6155786747	 2.2899893592	 0.8185973353	 0.146712
H	 2.071959178	 1.0553898542	-0.3745347047	 0.123636
H	 1.1236549893	 2.5028567207	-2.1986130756	 0.119897
H	 0.4799021138	 3.6213238443	-0.9997532982	 0.12558
H	 3.5660904342	 3.5356071581	-3.2613927974	 0.150864
H	 4.8113488895	 5.604968631	 0.0409520726	 0.154738
48.1054	67.7192	81.6956	126.3266	280.3252	318.0068	366.1863	516.9985	639.3772	678.7153	736.1265	760.6826	792.2786	851.5363	852.6006	936.8614	983.2987	999.7625	1070.2958	1088.9613	1097.8001	1136.5199	1187.7959	1245.5974	1265.1134	1280.3487	1305.7975	1352.1733	1372.6665	1430.109	1463.3062	1484.9525	1559.7102	1633.2528	1837.4672	2844.9774	3024.418	3031.8271	3078.9739	3110.8637	3275.7745	3295.0969
O=CCCC1=COC=N1	O=CCCc1cocn1	
InChI=1S/C6H7NO2/c8-3-1-2-6-4-9-5-7-6/h3-5H,1-2H2	InChI=1S/C6H7NO2/c8-3-1-2-6-4-9-5-7-6/h3-5H,1-2H2
