20
gdb 99742	2.12145	1.19731	1.04099	1.6715	71.32	-0.2439	0.0245	0.2684	1269.5707	0.169254	-477.452193	-477.44147	-477.440526	-477.488094	38.757	
C	 0.4942597376	-0.1995967627	-1.8217529929	-0.404116
C	 0.0370333075	 0.0297213374	-0.3786054624	 0.142936
O	 0.1897019899	 1.3820388235	 0.014601218	-0.447957
C	-1.4204827876	-0.4588291101	-0.0968941111	-0.140988
C	-2.4449379767	 0.0673981172	-1.103144667	-0.095231
O	-2.3281129446	 1.4920294105	-1.1635903066	-0.433242
C	-1.4776357895	-1.9859478106	-0.0833087789	 0.405257
N	-1.2244384532	-2.5595145794	 1.1278332567	-0.523207
O	-1.7084465122	-2.6487434911	-1.0798088038	-0.371918
H	 1.5522863937	 0.0591831801	-1.9132631276	 0.117968
H	 0.3518086768	-1.2405917582	-2.1258762544	 0.135479
H	-0.0670804676	 0.4402738544	-2.5098125773	 0.111841
H	 0.6984963538	-0.5368846284	 0.2891899316	 0.078666
H	-0.5051901926	 1.8707407513	-0.4475853038	 0.287735
H	-1.6718179776	-0.0723680413	 0.8976566733	 0.087694
H	-2.2610185859	-0.3925213765	-2.0793536134	 0.12722
H	-3.4571712361	-0.2213543683	-0.7867464065	 0.101683
H	-2.8458615431	 1.8097215293	-1.9085048252	 0.295131
H	-0.9904569802	-2.0180697951	 1.9411977438	 0.2638
H	-1.1611089423	-3.563413052	 1.1762378276	 0.261249
45.914	90.9538	128.5807	174.3082	191.4692	227.0153	243.0187	260.4637	288.1557	362.8216	373.2403	389.5315	453.8752	555.8699	567.3911	601.0145	634.7221	726.5834	823.7654	912.2364	932.8135	996.3446	1013.2874	1049.13	1092.2467	1109.2663	1135.0655	1138.0568	1219.5012	1243.451	1278.0494	1322.5183	1324.7153	1377.2262	1399.7022	1408.9765	1453.0487	1463.7556	1496.7062	1500.6802	1528.7453	1617.8273	1780.0504	3004.768	3022.5568	3041.9317	3044.0814	3079.6263	3115.0044	3126.6362	3601.0707	3739.0749	3748.146	3838.8326
CC(O)C(CO)C(N)=O	C[C@@H](O)[C@@H](CO)C(=O)N	
InChI=1S/C5H11NO3/c1-3(8)4(2-7)5(6)9/h3-4,7-8H,2H2,1H3,(H2,6,9)	InChI=1S/C5H11NO3/c1-3(8)4(2-7)5(6)9/h3-4,7-8H,2H2,1H3,(H2,6,9)/t3-,4-/m1/s1
