14
gdb 31940	4.45835	1.0172	0.83262	5.9056	72.91	-0.2335	-0.0668	0.1667	1292.038	0.100066	-473.847811	-473.839666	-473.838722	-473.881378	28.122	
C	 0.0737105353	 1.4607980886	 0.1694515814	-0.254275
O	 0.0321891295	 0.033415357	 0.0447235329	-0.259893
C	 0.6049369896	-0.6824284717	 0.9971421415	 0.415821
C	 0.7257340431	-2.0413671446	 1.1545971167	-0.21345
N	 1.4105134212	-2.2802502082	 2.3151532904	-0.258233
C	 1.6808841029	-1.1113446837	 2.818730682	 0.280963
O	 1.2001938165	-0.0699862384	 2.0354452043	-0.20858
C	 2.3857272637	-0.7233706556	 4.03622784	 0.083881
O	 2.8675018969	-1.4974557771	 4.8285266142	-0.256277
H	 1.1069229171	 1.8195650281	 0.1805505874	 0.148022
H	-0.4473354985	 1.8445316531	-0.706847843	 0.153581
H	-0.4342578176	 1.7855995507	 1.0820590295	 0.148
H	 0.3637843933	-2.8232208661	 0.5085980776	 0.138785
H	 2.4408692369	 0.3788472079	 4.1676618452	 0.081653
64.934	116.326	152.88	170.5337	255.0085	255.6329	336.2046	458.622	512.8224	688.8562	705.4253	708.8432	799.833	820.7929	964.6796	997.0998	1019.3453	1064.9338	1112.4713	1175.7811	1204.4455	1248.696	1316.0039	1380.3927	1438.6695	1467.2314	1487.6	1497.9078	1555.4173	1636.5823	1799.3697	2902.0128	3044.1406	3118.3124	3165.6483	3280.4862
COC1=CN=C(O1)C=O	COc1cnc(o1)C=O	
InChI=1S/C5H5NO3/c1-8-5-2-6-4(3-7)9-5/h2-3H,1H3	InChI=1S/C5H5NO3/c1-8-5-2-6-4(3-7)9-5/h2-3H,1H3
