23
gdb 88589	2.67566	1.12366	0.94231	0.2716	87.52	-0.2058	0.0814	0.2872	1378.4198	0.204138	-384.400548	-384.390205	-384.389261	-384.436289	37.854	
C	-0.200462784	 1.4596896028	 0.58017658	-0.415623
C	 0.0922552659	 0.0087125303	 0.2591813392	-0.008501
C	 0.560397712	-0.4532735473	-1.0914730316	-0.036161
C	 0.8074242117	 0.4980881137	-2.2243968352	 0.005375
C	 1.0921093587	-0.0308353383	-3.593237772	-0.26414
N	-0.1507183453	 0.6781113147	-3.3228353767	-0.090978
C	-1.3914088262	-0.0849081199	-3.3403465665	-0.308309
N	 1.4410753379	-0.5296708782	 0.0798453218	-0.115616
C	 2.6141096889	 0.323757646	 0.2013240034	-0.311884
H	 0.3531013872	 2.1658835332	-0.0405631986	 0.124412
H	-1.2666609221	 1.6598564105	 0.4303971956	 0.124879
H	 0.0307619751	 1.6787414086	 1.628619291	 0.122065
H	-0.5537495843	-0.6778060074	 0.8080871167	 0.085278
H	 0.2288369378	-1.4376139979	-1.4179703502	 0.085492
H	 1.2870417043	 1.4324483747	-1.9476164474	 0.086794
H	 1.7992214473	 0.4671741365	-4.2522476983	 0.112094
H	 1.0440516582	-1.1134345286	-3.7151903576	 0.105951
H	-1.2904880319	-1.1424832025	-3.0537791891	 0.102805
H	-2.1162229292	 0.3847921654	-2.6677694533	 0.123174
H	-1.8018715076	-0.0519034383	-4.3547724058	 0.122928
H	 2.4777604676	 1.379041477	-0.0723745226	 0.102729
H	 2.9556121002	 0.2934024222	 1.2412974905	 0.121879
H	 3.4134411578	-0.0855065771	-0.4245610633	 0.125359
33.2498	112.1545	151.5151	151.9029	181.8544	196.1607	229.8768	265.0535	308.7597	386.5619	426.2407	479.3603	498.768	588.7535	721.0625	747.6694	783.9695	862.8267	897.6075	975.9812	984.8597	1032.9628	1048.4518	1088.3691	1094.745	1123.2351	1134.4315	1137.2538	1155.2015	1165.5333	1170.1211	1193.7081	1204.0397	1220.1346	1314.5493	1337.3475	1351.2959	1400.6261	1417.9446	1450.503	1451.3067	1465.1515	1484.6076	1489.4166	1496.1364	1500.5788	1503.9702	1508.6378	1512.688	2987.0937	3000.205	3038.2191	3066.9433	3067.3191	3078.7519	3084.9659	3093.4392	3099.2497	3100.8184	3107.6215	3131.546	3145.0137	3167.8765
CC1C(C2CN2C)N1C	C[C@H]1[C@@H]([C@H]2CN2C)N1C	
InChI=1S/C7H14N2/c1-5-7(9(5)3)6-4-8(6)2/h5-7H,4H2,1-3H3	InChI=1S/C7H14N2/c1-5-7(9(5)3)6-4-8(6)2/h5-7H,4H2,1-3H3/t5-,6+,7-,8?,9?/m0/s1
