17
gdb 19914	3.90826	1.90391	1.65969	2.2867	67.71	-0.1989	0.0665	0.2654	840.0447	0.141731	-363.743112	-363.735851	-363.734907	-363.774835	27.652	
C	 0.1790310946	 1.0079619651	-0.3428915668	-0.226009
O	-0.1837805538	 0.1017382922	 0.6757744112	-0.216669
C	-1.2940344703	-0.6623161581	 0.3628540567	 0.122234
C	-1.5025454153	-1.6548417524	-0.7629343618	-0.134368
C	-0.3466938987	-2.6516976551	-1.0382485586	-0.056323
N	 0.8353117769	-2.2842161875	-0.2210017714	-0.318375
C	-0.2975669965	-3.0441877982	 0.379075929	-0.05182
C	-1.4766864781	-2.0936755808	 0.729655743	-0.123905
H	 1.0134953936	 1.6000263236	 0.0401912467	 0.121784
H	 0.5003968953	 0.4785704948	-1.2496192272	 0.114167
H	-0.6481412415	 1.6875035273	-0.6027879555	 0.093617
H	-2.2296741886	-0.1077119667	 0.508059654	 0.084334
H	-2.361612434	-1.5801612142	-1.4190210636	 0.088488
H	-0.2573079963	-3.2492215732	-1.9361318013	 0.092128
H	 1.553984862	-2.9791608476	-0.4306881107	 0.22532
H	-0.1441880426	-4.0147021051	 0.831647132	 0.094551
H	-2.3041802668	-2.4308025539	 1.3425592743	 0.090846
60.8566	164.5926	182.3725	270.9055	331.3344	413.0206	589.6997	648.4903	696.062	712.3706	744.9221	830.5851	850.2124	880.2153	905.4413	943.1613	985.3399	999.5076	1003.5689	1048.8261	1081.6391	1093.4212	1130.3454	1147.0278	1176.8269	1211.854	1242.2324	1258.1853	1278.6653	1320.178	1354.4491	1378.7174	1436.8261	1486.9962	1490.7192	1501.9242	2977.2253	3020.0538	3043.0512	3117.0872	3173.6535	3182.7294	3192.9699	3206.7953	3447.6565
COC1C2C3NC3C12	CO[C@H]1[C@H]2[C@H]3N[C@H]3[C@@H]12	
InChI=1S/C6H9NO/c1-8-6-2-3(6)5-4(2)7-5/h2-7H,1H3	InChI=1S/C6H9NO/c1-8-6-2-3(6)5-4(2)7-5/h2-7H,1H3/t2-,3+,4-,5+,6+
