17
gdb 19663	4.35649	2.09097	1.96332	1.1139	66.84	-0.2288	0.064	0.2928	748.2981	0.145335	-363.802955	-363.796978	-363.796034	-363.832652	24.939	
O	 0.042244541	 1.4989176949	-0.081904242	-0.435848
C	 0.0142901489	 0.1003624581	 0.021054002	 0.143293
C	 0.1213906143	-0.6092544453	 1.4011192782	-0.064628
C	-0.9159147945	 0.166854583	 2.235634278	-0.218669
C	-2.1091391417	-0.3111676309	 1.3826642025	-0.056057
C	-1.9790942614	-1.8317370791	 1.5799577509	-0.159829
N	-0.7104002676	-1.7562317466	 0.7739159228	-0.164318
C	-1.3468521245	-0.5749733025	 0.0217906002	-0.025857
H	 0.9602318308	 1.7839105062	-0.1271603231	 0.287522
H	 0.6623277692	-0.3888823059	-0.7159031352	 0.085306
H	 1.074366735	-0.8904374435	 1.8478304186	 0.066839
H	-0.9867432557	-0.1542469834	 3.2780584023	 0.090702
H	-0.7418775582	 1.2432023417	 2.1946113412	 0.111248
H	-3.0531231021	 0.2302796676	 1.4476874767	 0.064307
H	-1.885324827	-2.2260624072	 2.5975673998	 0.095281
H	-2.7047339958	-2.426522221	 1.0175443543	 0.105214
H	-1.9279585908	-0.7855146062	-0.8764434672	 0.075495
214.0481	265.5243	293.3707	476.6844	480.9856	563.6836	704.6365	716.6772	746.9333	824.5914	840.7785	868.8208	912.2562	936.0994	969.6624	979.1816	986.5985	1002.4759	1018.0398	1061.9602	1110.1154	1137.6349	1158.2011	1161.3379	1189.4644	1205.2789	1239.7822	1247.7437	1268.0794	1277.915	1286.0717	1317.1207	1341.7692	1440.8054	1492.5638	1515.389	3039.1344	3039.6463	3067.8201	3098.4166	3107.8204	3117.1359	3123.7313	3127.3339	3821.2641
OC1C2CC3CN2C13	O[C@H]1[C@H]2C[C@@H]3CN2[C@H]13	
InChI=1S/C6H9NO/c8-6-4-1-3-2-7(4)5(3)6/h3-6,8H,1-2H2	InChI=1S/C6H9NO/c8-6-4-1-3-2-7(4)5(3)6/h3-6,8H,1-2H2/t3-,4-,5+,6+/m1/s1
