17
gdb 76439	3.10365	0.98657	0.94117	4.436	65.76	-0.2509	0.0008	0.2517	1289.163	0.13203	-496.087957	-496.078161	-496.077216	-496.122705	34.893	
C	 0.0522532421	 1.5808082262	-0.3189890736	-0.441773
C	-0.0006576674	 0.1043583909	-0.0256339727	 0.298022
O	-1.1896642306	-0.5437444118	-0.4670393139	-0.223445
C	-2.2927499381	-0.3905290905	 0.2997798639	 0.158643
O	-3.3508548284	-0.85347863	-0.0018913156	-0.272312
C	 1.2272096493	-0.7704278318	-0.175822611	 0.049519
O	 2.4536012971	-0.1930152428	-0.481243716	-0.430885
C	 0.6450151412	-0.5104846402	 1.1996725399	-0.034333
O	 1.3670727838	 0.3689184587	 2.0215346508	-0.424428
H	 1.0449602438	 1.9805999519	-0.1113276999	 0.136399
H	-0.171482923	 1.7474902415	-1.3766626939	 0.14192
H	-0.6729691223	 2.1373483861	 0.2829643214	 0.12575
H	-2.1005978075	 0.1918336204	 1.2199453186	 0.089556
H	 1.0823039998	-1.7448323414	-0.6322210205	 0.124014
H	 2.7360760208	 0.286598685	 0.3098554992	 0.287882
H	 0.1079322484	-1.305938095	 1.7116876133	 0.111578
H	 1.9232011312	-0.1599073771	 2.60485718	 0.303892
87.662	116.633	127.6441	155.4247	198.1534	214.2275	259.663	293.6953	353.0371	382.6785	427.6064	479.9845	528.4551	654.9846	667.1963	750.3779	861.8618	914.1868	976.261	1020.2244	1052.0061	1073.6786	1102.8198	1146.7046	1170.5355	1175.4692	1196.9868	1252.4635	1305.7204	1336.6877	1402.4575	1416.0183	1423.0661	1466.3161	1477.5706	1503.2037	1866.3962	2968.9631	3047.6918	3112.1256	3127.7591	3152.3421	3164.0187	3742.2051	3801.2958
CC1(OC=O)C(O)C1O	C[C@@]1(OC=O)[C@@H](O)[C@H]1O	
InChI=1S/C5H8O4/c1-5(9-2-6)3(7)4(5)8/h2-4,7-8H,1H3	InChI=1S/C5H8O4/c1-5(9-2-6)3(7)4(5)8/h2-4,7-8H,1H3/t3-,4+,5+
