16
gdb 34207	4.00741	1.40863	1.24624	2.7615	72.56	-0.2622	0.0138	0.276	988.7557	0.126085	-400.714249	-400.707545	-400.706601	-400.745263	26.836	
N	 0.0781916909	-1.1593151753	 0.1423158868	-0.343197
C	 0.035635208	-0.0044565443	 0.0845016371	 0.176705
C	-0.0206282432	 1.4337006256	 0.0029778911	 0.177807
C	-1.1198228014	 2.1808530608	 0.8239453161	-0.283593
C	-1.2702564672	 3.1951833305	-0.3315537398	 0.102802
O	-0.1951225749	 4.1592540819	-0.3452237279	-0.300653
C	 0.6831729419	 3.2323487918	-1.0197508942	 0.102798
C	 1.3243850248	 2.2273875733	-0.0371257242	-0.283564
C	-0.48895633	 2.2475094352	-1.2825093418	-0.134806
H	-2.0149877476	 1.5595111032	 0.9161256545	 0.126995
H	-0.8355708114	 2.5723855455	 1.8029911201	 0.121439
H	-2.2410227386	 3.6550378426	-0.5185461437	 0.094174
H	 1.3062778881	 3.7225317438	-1.7682708255	 0.094174
H	 1.7032504489	 2.6207654831	 0.9085724573	 0.12144
H	 2.100155709	 1.6377984142	-0.533549579	 0.127
H	-0.8134992672	 1.821491908	-2.2267023571	 0.100479
151.7186	152.9066	306.394	340.9692	431.0214	499.198	561.2311	561.3577	658.1602	752.5556	815.9853	838.3565	860.9594	883.7146	911.9219	949.852	965.1106	980.1544	989.2546	1044.4208	1080.6037	1145.6351	1147.3345	1165.3902	1167.4787	1210.6342	1235.8229	1262.1325	1267.3381	1292.6681	1309.0879	1351.0182	1462.2752	1474.9655	2346.6556	3062.8348	3063.5069	3107.2653	3110.4832	3126.8507	3129.0248	3170.6739
N#CC12CC3OC(C1)C23	N#C[C@@]12C[C@H]3O[C@@H](C1)[C@@H]23	
InChI=1S/C7H7NO/c8-3-7-1-4-6(7)5(2-7)9-4/h4-6H,1-2H2	InChI=1S/C7H7NO/c8-3-7-1-4-6(7)5(2-7)9-4/h4-6H,1-2H2/t4-,5+,6+,7-
