21
gdb 87719	2.42223	1.26273	1.11006	1.239	78.58	-0.2527	0.056	0.3087	1233.5366	0.179973	-424.20156	-424.191769	-424.190825	-424.236071	36.623	
C	 0.050553427	 1.5631614805	-0.2087508906	-0.417696
C	-0.0045055599	 0.070516119	-0.0130348715	-0.03494
O	 1.2456239156	-0.6383839856	-0.0918932318	-0.299722
C	 0.5731704729	-0.6129703251	 1.1533964365	 0.415151
C	 1.1282447006	-0.0140842586	 2.4505212278	-0.355141
C	 0.2452061638	-1.0366464679	 3.2276459144	 0.11435
O	-0.9429728113	-0.4992768764	 3.7716625883	-0.427336
C	 0.0686775118	-1.857136098	 1.9007464071	-0.083209
C	-1.2826331824	-2.4702993995	 1.5734983513	-0.412427
H	 0.8735461204	 2.0039028864	 0.3592251128	 0.130093
H	 0.1983637998	 1.8049433902	-1.2664312268	 0.132997
H	-0.887908456	 2.0303388684	 0.1111255723	 0.116504
H	-0.8192503427	-0.4351049324	-0.5353295272	 0.090196
H	 2.1993391823	-0.2068800235	 2.5599535661	 0.118189
H	 0.9341603388	 1.0409444217	 2.6637394316	 0.104341
H	 0.7268791086	-1.5670084917	 4.050752369	 0.088971
H	-1.350492324	 0.0735063249	 3.1132650393	 0.280928
H	 0.8538084233	-2.6217006049	 1.854011236	 0.087298
H	-2.0930158241	-1.7431824287	 1.6828846871	 0.105612
H	-1.300891669	-2.8478609213	 0.5457785317	 0.122647
H	-1.5039252754	-3.3083363773	 2.2419293365	 0.123193
57.5815	136.84	171.9971	181.8323	203.5816	223.6126	254.9213	286.4649	373.6828	422.8557	454.6516	489.1607	523.4925	613.0359	746.738	786.1951	823.8346	842.3747	903.9655	957.3305	973.1135	997.4132	1020.5596	1051.7865	1097.4976	1126.5171	1132.0204	1148.9708	1177.6239	1183.5139	1213.6907	1247.32	1266.8481	1316.1623	1347.6583	1364.295	1408.3015	1410.4029	1432.8745	1461.7858	1476.8963	1488.7315	1491.2161	1497.4114	1517.7845	3034.276	3034.7514	3036.5812	3054.8736	3085.5784	3096.7813	3098.2586	3102.7983	3106.1985	3110.6834	3126.5606	3807.1295
CC1OC11CC(O)C1C	C[C@H]1O[C@]21C[C@@H](O)[C@H]2C	
InChI=1S/C7H12O2/c1-4-6(8)3-7(4)5(2)9-7/h4-6,8H,3H2,1-2H3	InChI=1S/C7H12O2/c1-4-6(8)3-7(4)5(2)9-7/h4-6,8H,3H2,1-2H3/t4-,5-,6-,7-/m1/s1
