17
gdb 66628	2.67461	1.97115	1.4759	2.0317	70.44	-0.2361	0.0654	0.3015	918.5052	0.135447	-421.739138	-421.731887	-421.730943	-421.770329	29.463	
C	-0.0366829418	 1.5900133795	 0.00115092	-0.53926
C	-0.0643247862	 0.0930493458	-0.0084603269	 0.23746
C	 0.7452914232	-0.8561486907	-0.966217956	 0.026855
O	 1.7265197971	-1.1449386949	 0.0555802265	-0.296322
C	 0.6704744059	-0.86299387	 0.9998580771	 0.029925
C	-0.485139001	-1.8643868553	 0.7396515255	-0.148045
C	-0.4206577993	-1.8648933667	-0.8099889127	-0.198401
C	-1.2949814729	-0.8887266241	-0.0559904802	 0.31534
O	-2.649732022	-0.6803088715	-0.0196206059	-0.448993
H	 0.9958293131	 1.9530707363	 0.0503357966	 0.134818
H	-0.4964081046	 2.0065340699	-0.902618491	 0.116682
H	-0.5795883853	 1.9912104932	 0.8638930084	 0.129689
H	 1.1697292971	-0.6141893064	-1.940251185	 0.076615
H	 1.0158665021	-0.6315286174	 2.0067369523	 0.079394
H	-0.8021801209	-2.7337949147	 1.2984801292	 0.098162
H	-0.6756179418	-2.7415798821	-1.3897299478	 0.095643
H	-2.9392372929	-0.3893598709	-0.8916353601	 0.290438
179.9827	209.3838	229.0861	287.3866	329.2576	348.6653	563.1352	587.0448	596.1952	621.6821	769.2159	793.8531	809.1925	835.7339	848.6225	858.7855	879.2135	900.5372	928.7031	948.9686	1025.2938	1030.9641	1092.8191	1120.8432	1136.73	1152.6124	1186.8721	1202.5177	1224.1284	1243.0313	1292.2631	1308.7753	1363.7659	1411.5029	1475.4786	1487.9548	1495.7981	3023.8108	3086.4261	3096.4784	3124.0462	3129.9565	3207.6685	3218.5697	3791.5156
CC12C3OC1C1C3C21O	C[C@@]12[C@H]3O[C@@H]1[C@@H]1[C@H]3[C@]21O	
InChI=1S/C7H8O2/c1-6-4-2-3(5(6)9-4)7(2,6)8/h2-5,8H,1H3	InChI=1S/C7H8O2/c1-6-4-2-3(5(6)9-4)7(2,6)8/h2-5,8H,1H3/t2-,3+,4+,5-,6-,7-
