21
gdb 92214	2.97907	1.63685	1.50069	1.8378	79.59	-0.2353	0.0813	0.3165	993.5198	0.186261	-387.082787	-387.075794	-387.07485	-387.11379	29.635	
C	-0.4010148591	 1.5549936394	-0.0169844132	-0.406147
C	-0.0265202565	 0.0694978691	-0.0402406078	 0.00548
C	 0.7528827749	-0.4092908506	-1.3161704686	-0.243892
C	 2.1334161887	-0.8233382658	-0.7779110538	-0.040978
C	 2.8274272964	 0.4303568107	-0.1673463759	-0.221713
C	 2.3228653982	 0.2151105855	 1.2726763011	 0.060217
O	 2.8325624307	-1.1325265069	 1.5258794554	-0.301996
C	 1.8034804636	-1.527206363	 0.5867596229	 0.076429
C	 0.8886597387	-0.3956819358	 1.0975054744	-0.025893
H	 0.4798608185	 2.2019610599	-0.0754320805	 0.118597
H	-1.0522086511	 1.8070610077	-0.8605724622	 0.11462
H	-0.9376704029	 1.8098782083	 0.9035515609	 0.113299
H	-0.9595877936	-0.5017502342	 0.0357193743	 0.073416
H	 0.240377743	-1.2595643519	-1.7802008537	 0.093728
H	 0.8286427246	 0.372480273	-2.0789505419	 0.096676
H	 2.7455026518	-1.3943978421	-1.4761774917	 0.063368
H	 3.917712079	 0.369963142	-0.1842990267	 0.106717
H	 2.5169879905	 1.3673942656	-0.6354588654	 0.094483
H	 2.5799757258	 0.9379078241	 2.0472495809	 0.074459
H	 1.5577275315	-2.5892109445	 0.5970662917	 0.075746
H	 0.4125090174	-0.5901165004	 2.0587289498	 0.073385
158.6968	216.3084	236.935	368.9741	390.1917	453.0039	528.4603	579.9998	642.7748	749.1641	791.5778	823.2301	840.8733	859.2771	884.2251	898.5139	937.854	952.0534	954.6523	976.8842	998.8685	1020.0486	1044.0746	1060.3701	1096.8535	1105.2724	1137.5045	1175.8584	1191.6529	1214.7488	1224.1092	1243.1257	1259.0234	1298.5507	1303.1108	1314.1265	1320.3862	1348.1118	1363.6436	1374.815	1413.1504	1483.8109	1498.1845	1501.302	1504.8134	3018.8838	3030.8547	3039.0353	3068.7129	3078.0118	3094.9739	3104.097	3107.061	3112.2109	3117.4995	3121.1312	3127.3558
CC1CC2CC3OC2C13	C[C@H]1C[C@H]2C[C@@H]3O[C@H]2[C@H]13	
InChI=1S/C8H12O/c1-4-2-5-3-6-7(4)8(5)9-6/h4-8H,2-3H2,1H3	InChI=1S/C8H12O/c1-4-2-5-3-6-7(4)8(5)9-6/h4-8H,2-3H2,1H3/t4-,5-,6-,7+,8+/m0/s1
