19
gdb 57934	3.16169	0.97396	0.76572	3.8881	74.73	-0.2429	-0.0146	0.2284	1486.5692	0.157437	-456.392243	-456.381838	-456.380894	-456.429083	36.57	
C	-0.023228778	 1.6166962812	 0.6835949598	-0.398901
C	-0.1370379587	 0.2651383918	-0.0061996009	 0.059709
O	 0.6827684023	-0.73481503	 0.6118807893	-0.436266
C	-1.5916271374	-0.2103906548	-0.1317467419	 0.327015
N	-2.5429363484	 0.6245686833	-0.2069765212	-0.511252
N	-1.6746487526	-1.6113624749	-0.1970022333	-0.370086
C	-2.8123861014	-2.3682189524	-0.3875243791	 0.414398
C	-2.5588388006	-3.8662079702	-0.3963436708	-0.494625
O	-3.9177221347	-1.8840298188	-0.5372946854	-0.34431
H	 1.0166882179	 1.9530704969	 0.6792888515	 0.119097
H	-0.6524062623	 2.3499827302	 0.1781089233	 0.160004
H	-0.3726486851	 1.5497609393	 1.7206574021	 0.114151
H	 0.2597201044	 0.3411765781	-1.0269156401	 0.120342
H	 0.5594878029	-0.6606890153	 1.5653548246	 0.286652
H	-3.4310525577	 0.138322631	-0.3391999663	 0.251035
H	-0.7931003992	-2.0804004632	-0.0368839525	 0.259498
H	-1.8615599037	-4.1378523949	-1.1956303216	 0.145833
H	-2.1197893642	-4.1921282579	 0.5525296854	 0.142104
H	-3.5062225937	-4.3808083297	-0.551595943	 0.155602
34.8427	47.7949	90.9794	113.2731	158.4112	227.121	290.3503	305.2941	363.8304	383.6091	413.6844	479.265	518.2373	585.6262	614.9033	723.8965	736.4685	840.03	912.2172	949.0503	973.6755	1004.9549	1047.7004	1052.2497	1080.3636	1120.4197	1141.3485	1250.9995	1287.2401	1317.6898	1366.2102	1388.6465	1400.1569	1412.222	1467.0877	1481.4621	1485.0849	1491.2204	1512.8419	1729.8431	1795.3633	3030.5279	3040.8857	3043.6514	3106.4224	3112.4343	3155.7069	3166.2613	3476.8598	3583.8399	3794.5364
CC(O)C(=N)NC(C)=O	C[C@@H](O)C(=N)NC(=O)C	
InChI=1S/C5H10N2O2/c1-3(8)5(6)7-4(2)9/h3,8H,1-2H3,(H2,6,7,9)	InChI=1S/C5H10N2O2/c1-3(8)5(6)7-4(2)9/h3,8H,1-2H3,(H2,6,7,9)/t3-/m1/s1
