17
gdb 87071	2.52331	1.38306	1.12405	2.5228	74.03	-0.2542	0.0074	0.2616	1130.8654	0.134395	-417.96168	-417.952698	-417.951754	-417.995567	32.801	
O	-0.084611628	 1.3702389789	-0.465042653	-0.413091
C	 0.0053593403	 0.0238769565	-0.1528064442	 0.112329
C	-0.0653650779	-0.5053022334	 1.244416665	-0.364625
C	-1.2075891773	-0.8095670417	 0.2657991329	 0.16556
C	-2.4295537096	-0.0640008034	 0.4663082075	 0.220503
N	-3.4082107586	 0.54244173	 0.5965642417	-0.364775
N	-1.276463245	-2.1523619319	-0.2393152242	-0.124235
C	-2.3621243222	-3.0265120085	 0.2073214925	-0.239521
C	-2.331874083	-2.5041998041	-1.1881895189	-0.239781
H	-0.817828377	 1.7697041691	 0.0179762625	 0.299863
H	 0.6662670011	-0.486600723	-0.8438354519	 0.136523
H	 0.5537433661	-1.3545000909	 1.5089769812	 0.142292
H	-0.278674389	 0.1905309941	 2.0484928255	 0.136998
H	-2.0714570453	-4.050171092	 0.4222383438	 0.126571
H	-3.1151666454	-2.6091262636	 0.87173546	 0.13713
H	-3.0658788932	-1.7438761893	-1.4446655313	 0.140983
H	-2.018404886	-3.1397881565	-2.0105010191	 0.127275
74.1207	113.2242	148.9428	178.6043	202.2711	232.3865	354.4551	376.7249	405.1196	480.458	590.4928	609.0887	660.3244	800.3916	822.6687	844.1038	881.8008	913.2876	967.261	1003.0041	1047.1005	1054.7455	1097.8993	1119.2412	1131.1181	1142.2868	1176.8407	1178.9488	1212.1563	1283.1453	1323.6691	1351.1316	1423.5033	1467.9488	1492.0218	1518.0326	2324.6032	3109.8171	3113.0501	3140.7446	3191.0625	3194.4699	3208.1081	3238.6549	3793.7399
OC1CC1(C#N)N1CC1	O[C@H]1C[C@]1(C#N)N1CC1	
InChI=1S/C6H8N2O/c7-4-6(3-5(6)9)8-1-2-8/h5,9H,1-3H2	InChI=1S/C6H8N2O/c7-4-6(3-5(6)9)8-1-2-8/h5,9H,1-3H2/t5-,6+/m0/s1
