14
gdb 33346	5.47757	0.75952	0.72707	5.3358	80.29	-0.2621	-0.0569	0.2052	1492.5307	0.100702	-399.481109	-399.473421	-399.472476	-399.514159	28.064	
N	-0.0628475727	-3.7631294969	-0.1453440008	-0.331218
C	-0.0353309892	-2.6032966941	-0.0859429551	 0.210831
C	-0.001796943	-1.2402209815	-0.0192288097	 0.046202
C	 0.0317655752	-0.0337765213	 0.0401668428	 0.145545
C	 0.0724554669	 1.418104997	 0.0942269351	-0.101325
O	-0.1295372841	 1.9640126627	 1.4295039122	-0.282952
C	 1.0815864994	 2.7255712132	 1.3115158646	 0.110688
C	 2.2654271695	 1.8249477051	 1.1950155343	-0.298583
C	 1.4286279199	 2.127043653	-0.0307689003	-0.131151
H	-0.6766114449	 1.8370076685	-0.5887132805	 0.128914
H	 1.0725635329	 3.7414983005	 1.685666817	 0.119574
H	 3.2319173848	 2.3190175768	 1.1981421855	 0.128182
H	 2.2444429023	 0.8431367036	 1.658479615	 0.135932
H	 1.8153274031	 2.5650633434	-0.9395501801	 0.119361
69.4972	87.0977	178.8362	232.6357	329.255	427.6513	448.0922	521.8907	571.3422	590.9668	716.1215	771.7085	798.2212	829.5807	941.6438	955.0469	982.2799	1005.5318	1040.7527	1048.9216	1062.1993	1086.5038	1173.1634	1193.3153	1239.1754	1271.1985	1348.7375	1356.2783	1470.876	2263.3157	2398.1312	3034.7044	3124.2348	3197.1769	3214.0321	3222.8144
N#CC#CC1OC2CC12	N#CC#C[C@H]1O[C@H]2C[C@@H]12	
InChI=1S/C7H5NO/c8-3-1-2-6-5-4-7(5)9-6/h5-7H,4H2	InChI=1S/C7H5NO/c8-3-1-2-6-5-4-7(5)9-6/h5-7H,4H2/t5-,6+,7-/m0/s1
