21
gdb 94660	3.32033	0.74417	0.67117	3.8854	80.	-0.2445	-0.016	0.2285	1693.9453	0.180658	-424.222355	-424.212402	-424.211458	-424.258539	35.542	
O	 0.2713155184	 1.2137334774	-0.4810651469	-0.43058
C	 0.0931989417	-0.0336562274	 0.1486832765	 0.12915
C	-0.2132127319	-0.0863633734	 1.6694589269	-0.258648
C	-1.305107544	-1.1478262369	 1.3599897963	-0.22991
C	-1.2783423722	-0.7058556559	-0.136392293	-0.019729
C	-2.384440577	 0.2740214885	-0.5326121433	-0.191341
C	-3.7434889662	-0.422593448	-0.7251807571	-0.281202
C	-4.8028094226	 0.5437906526	-1.2010210513	 0.159486
O	-5.8553762211	 0.746259088	-0.6523496889	-0.239573
H	 1.1271078607	 1.5678435203	-0.2200167956	 0.285255
H	 0.9128567349	-0.7222567343	-0.1041578177	 0.066676
H	 0.5985585644	-0.3658935121	 2.3455725651	 0.093289
H	-0.6456497274	 0.8596799686	 2.006184465	 0.110523
H	-0.9451092145	-2.1701219842	 1.498812137	 0.103519
H	-2.257119026	-1.0439864161	 1.8857813966	 0.105255
H	-1.2434633167	-1.5201154494	-0.8679640638	 0.065174
H	-2.4817196408	 1.0605397286	 0.2249677604	 0.111116
H	-2.0942944824	 0.7824035489	-1.4591450086	 0.116917
H	-3.6388293687	-1.2022548338	-1.4946650823	 0.114762
H	-4.0960820904	-0.8996898579	 0.1937533072	 0.120565
H	-4.5316078179	 1.0914519663	-2.1353110227	 0.069296
51.2414	60.2287	104.8796	121.1631	146.5183	235.7803	249.068	290.0773	396.7517	409.9404	498.6356	559.9489	656.3339	757.857	765.0081	837.683	860.6609	905.8814	935.3042	956.5	982.4265	1008.067	1062.6696	1070.6629	1110.8622	1142.2877	1161.6376	1189.8281	1200.1274	1229.1625	1251.2876	1262.4366	1267.132	1284.7939	1313.6244	1335.0937	1351.2034	1392.5587	1423.1733	1429.0138	1462.5961	1479.6194	1490.0577	1499.9886	1835.4936	2847.0467	2986.7164	3006.3695	3034.5818	3043.6243	3058.4037	3066.4659	3073.6761	3099.2444	3105.5602	3122.0561	3820.6583
OC1CCC1CCC=O	O[C@H]1CC[C@H]1CCC=O	
InChI=1S/C7H12O2/c8-5-1-2-6-3-4-7(6)9/h5-7,9H,1-4H2	InChI=1S/C7H12O2/c8-5-1-2-6-3-4-7(6)9/h5-7,9H,1-4H2/t6-,7+/m1/s1
