15
gdb 8170	3.01058	2.69311	1.82197	2.1344	61.88	-0.2638	0.0232	0.2871	742.8111	0.120503	-399.792779	-399.786514	-399.78557	-399.822793	25.542	
O	 0.0443792579	 1.4129512305	 0.0082448812	-0.47787
C	-0.015760787	 0.0440836185	 0.0380411287	 0.326187
C	 0.3487356374	-0.8472770794	 1.2845443956	-0.288099
C	-0.3573005632	-1.901222609	 0.404987472	 0.079214
C	-1.3416207277	-0.8018732052	-0.0483001426	-0.288073
O	 0.5514098482	-2.0075041348	-0.7510686112	-0.254157
C	 0.789162193	-0.6888070924	-1.0076753265	 0.405433
N	 1.5004402791	-0.1421628197	-1.8909534554	-0.609492
H	 0.632485046	 1.6412413608	-0.7291009552	 0.299764
H	 1.4025994158	-1.0081274993	 1.520031765	 0.117041
H	-0.223804624	-0.5715986933	 2.1713038296	 0.118843
H	-0.6404662286	-2.8969173344	 0.7301813094	 0.1029
H	-2.0611699364	-0.5222573696	 0.7225482648	 0.118845
H	-1.8210907981	-0.9215412623	-1.0218220067	 0.117044
H	 1.9638775978	-0.8144176705	-2.5014538487	 0.232418
176.6585	268.0004	351.231	426.4063	465.5333	468.1792	523.2277	610.4569	691.7119	710.4916	804.5126	853.5765	866.9587	887.9504	929.9915	937.7051	978.969	988.5474	1027.4987	1034.7149	1108.9489	1150.1489	1163.9547	1228.4682	1229.8017	1235.4366	1322.895	1400.2967	1422.6742	1470.8136	1510.9285	1812.9284	3075.0388	3080.6988	3145.8978	3151.5847	3182.3749	3498.7803	3700.8317
OC12CC(C1)OC2=N	O[C@@]12C[C@@H](C1)O[C]2[NH]	
InChI=1S/C5H7NO2/c6-4-5(7)1-3(2-5)8-4/h3,6-7H,1-2H2	InChI=1S/C5H7NO2/c6-4-5(7)1-3(2-5)8-4/h3,6-7H,1-2H2/t3-,5-
