21
gdb 104688	2.45519	1.34327	1.08051	1.8712	78.15	-0.2342	0.0681	0.3023	1212.6749	0.181612	-424.171203	-424.16187	-424.160925	-424.205277	35.178	
C	 0.1767560123	 0.7409081633	 0.9506703043	-0.407322
C	 0.2601965613	-0.6421156106	 0.2875729227	-0.262451
C	 0.5214247348	-0.6162777761	-1.2114252272	 0.273595
C	 1.7216027096	 0.1988715779	-1.6877632914	-0.150432
O	 1.4577987538	 1.5858154831	-1.8614228362	-0.419388
C	 0.2836223976	-1.8477907415	-2.0880085104	-0.198849
C	-1.0009082295	-2.5629772198	-1.6877578788	-0.112934
O	-1.7544506587	-1.3208278797	-1.7271574092	-0.293082
C	-0.6006146521	-0.6261970611	-2.2125195174	 0.079753
H	 1.1381357696	 1.2685794498	 0.9303477742	 0.112457
H	-0.5778314371	 1.3696708109	 0.4656744513	 0.129975
H	-0.1026781698	 0.6469620862	 2.0045083038	 0.11906
H	 1.0479415082	-1.2293386913	 0.7778133548	 0.095119
H	-0.6832605964	-1.1626648586	 0.4704369271	 0.121377
H	 2.5651818638	 0.0370173212	-0.9981777501	 0.092988
H	 2.0448849053	-0.1473524305	-2.6746117508	 0.106426
H	 1.1773347405	 1.9451751654	-1.0152909405	 0.284045
H	 1.0395766709	-2.2447472412	-2.7530024584	 0.096749
H	-1.3641160266	-3.2503187142	-2.4600411721	 0.112604
H	-1.0462734751	-3.0540232985	-0.708799485	 0.105383
H	-0.7422176224	 0.1163344051	-2.9889251106	 0.114925
76.6101	95.3563	180.4188	199.205	232.6581	240.1337	308.6582	323.038	372.3764	387.0866	497.633	558.8741	704.5087	775.0498	797.706	817.2268	894.6374	939.5983	952.9892	979.6058	994.721	1007.2918	1018.3389	1037.7142	1060.0168	1077.3115	1094.314	1118.6033	1161.9451	1181.608	1214.9182	1246.6968	1293.7005	1318.1718	1334.7001	1366.5623	1381.0635	1404.7313	1424.3347	1433.8859	1475.6924	1497.615	1505.7377	1518.3191	1518.3281	2978.8181	3021.4413	3023.1317	3025.9936	3071.7303	3072.3754	3078.8655	3101.9333	3103.8021	3182.9265	3195.609	3842.0462
CCC1(CO)C2COC12	CC[C@@]1(CO)[C@H]2CO[C@@H]12	
InChI=1S/C7H12O2/c1-2-7(4-8)5-3-9-6(5)7/h5-6,8H,2-4H2,1H3	InChI=1S/C7H12O2/c1-2-7(4-8)5-3-9-6(5)7/h5-6,8H,2-4H2,1H3/t5-,6+,7+/m0/s1
