24
gdb 100152	3.10915	0.85574	0.80374	3.5269	86.67	-0.2498	0.0313	0.2811	1571.3351	0.215318	-405.589019	-405.577746	-405.576802	-405.625839	40.988	
C	 0.143181476	 1.5094706004	-0.1369871472	-0.404191
C	-0.0359029664	 0.0056349571	 0.0983981228	-0.174054
C	-1.4912840129	-0.5267774333	 0.1181942607	 0.257526
C	-2.2974655233	 0.1259578369	 1.2554516054	-0.41921
C	-2.1894926967	-0.2765236749	-1.2291219041	-0.405793
C	-1.3794115988	-2.0534946535	 0.370886281	-0.178181
N	-2.6448362146	-2.7685887074	 0.4348789245	-0.279649
C	-3.0849296005	-3.594978047	-0.5519787042	 0.153767
O	-2.514605512	-3.8019370977	-1.6022300157	-0.325442
H	 1.2068756666	 1.7673377387	-0.1315206855	 0.114977
H	-0.2632198129	 1.8239317079	-1.1027425446	 0.121713
H	-0.3402449439	 2.1081722305	 0.6410463441	 0.116654
H	 0.5163393847	-0.5402875338	-0.6779523397	 0.097912
H	 0.4422983831	-0.260031048	 1.0513179574	 0.088049
H	-2.4064369913	 1.2033775809	 1.1031801307	 0.120534
H	-3.308980919	-0.2909004818	 1.309428822	 0.10251
H	-1.8140870795	-0.0265121898	 2.2279738171	 0.104682
H	-1.6275162175	-0.7220469105	-2.055991383	 0.124304
H	-3.1904966897	-0.7171674018	-1.2371036625	 0.117101
H	-2.3006370468	 0.7937034774	-1.4263791906	 0.10849
H	-0.8102542882	-2.5189371808	-0.4377670538	 0.140703
H	-0.8347014764	-2.2237859627	 1.3081598625	 0.09862
H	-3.200886159	-2.7040728547	 1.2719384269	 0.247137
H	-4.048966101	-4.0731043721	-0.2846946842	 0.071841
47.3627	61.764	77.2108	166.6619	204.2258	231.9101	247.1728	265.6424	284.2508	315.5388	338.4059	374.1196	401.3592	416.9393	535.0581	558.0269	727.8785	754.5221	785.2114	857.6786	931.3146	950.2468	965.6227	991.6993	1000.5444	1031.0622	1033.8602	1084.2805	1096.7696	1204.1381	1215.2778	1229.0696	1259.2705	1294.0831	1356.499	1372.0605	1386.9516	1399.6117	1412.704	1427.0863	1431.7154	1468.7141	1479.9912	1482.8319	1492.1063	1505.949	1508.2299	1511.4424	1516.0756	1534.0715	1805.3768	2928.2967	3005.0666	3022.1403	3026.3765	3038.8257	3040.5491	3042.432	3087.855	3101.4279	3104.2415	3107.9169	3111.2168	3111.6178	3114.4419	3641.8224
CCC(C)(C)CNC=O	CCC(C)(C)CNC=O	
InChI=1S/C7H15NO/c1-4-7(2,3)5-8-6-9/h6H,4-5H2,1-3H3,(H,8,9)	InChI=1S/C7H15NO/c1-4-7(2,3)5-8-6-9/h6H,4-5H2,1-3H3,(H,8,9)
