18
gdb 43109	2.49041	2.09626	1.5938	3.8244	73.7	-0.2348	-0.0055	0.2292	902.2432	0.151162	-401.950856	-401.944147	-401.943203	-401.982059	26.967	
O	 0.0119373801	-0.0086477024	 0.3386050064	-0.322655
C	-0.0341220032	 1.1631720631	 0.1034662956	 0.386174
C	-1.157173022	 2.228864882	 0.0204228263	-0.184858
C	-1.8531741824	 2.4291160918	 1.37646837	-0.208772
C	-0.7628604492	 2.9858462479	 2.3364327529	-0.241931
C	 0.3845383659	 3.5580902877	 1.4569880406	-0.033812
C	 1.597258018	 2.5960004319	 1.2575503962	-0.198076
N	 1.0200255644	 2.1183180669	-0.0490677339	-0.155401
C	 0.0082495411	 3.2385427596	-0.0219258845	 0.00345
H	-1.8387469493	 2.161155111	-0.8293425598	 0.097206
H	-2.6638303589	 3.1553432688	 1.2545407255	 0.106586
H	-2.2987939729	 1.5008167899	 1.744101934	 0.124883
H	-1.1777147124	 3.7544658905	 2.99346733	 0.107159
H	-0.3823389479	 2.1935581215	 2.988836066	 0.116665
H	 0.6375159673	 4.5897318597	 1.705237685	 0.0778
H	 2.5455383269	 3.1098114433	 1.0829567361	 0.11864
H	 1.7432400778	 1.8008578378	 1.9942041457	 0.125884
H	 0.0779900066	 4.001324559	-0.796062412	 0.081059
97.5322	172.6005	227.5383	377.9249	471.1635	563.8596	608.2212	678.734	702.865	782.982	816.4124	820.2163	843.8297	893.2771	914.0117	923.0526	962.0663	978.5473	993.5593	1041.1386	1055.4893	1070.4861	1113.4983	1161.3755	1184.1999	1191.1163	1215.581	1220.9285	1255.0193	1270.1286	1272.4944	1298.5911	1315.8454	1340.0092	1352.8968	1484.1189	1496.1765	1508.5202	1886.0413	3046.3095	3054.2432	3056.9262	3085.678	3097.8081	3100.4331	3106.4401	3115.6398	3126.7987
O=C1C2CCC3CN1C23	O=C1[C@H]2CC[C@H]3CN1[C@@H]23	
InChI=1S/C7H9NO/c9-7-5-2-1-4-3-8(7)6(4)5/h4-6H,1-3H2	InChI=1S/C7H9NO/c9-7-5-2-1-4-3-8(7)6(4)5/h4-6H,1-3H2/t4-,5-,6+/m0/s1
