21
gdb 114131	4.16309	0.88381	0.81956	0.8642	79.74	-0.2442	0.076	0.3202	1469.1855	0.181527	-424.181321	-424.171822	-424.170878	-424.215924	35.137	
C	-0.1984421201	 1.2721851266	 0.0525996479	-0.23678
O	 0.29243764	-0.0331701449	-0.1520881278	-0.243105
C	 0.8137103016	-0.6183663728	 1.0139243672	 0.148863
C	-0.1876384776	-1.1576572829	 2.0994097988	-0.331812
C	 0.4157999592	-2.5561140489	 1.904530274	 0.334336
C	 0.7007578467	-3.5330821322	 3.0041307889	-0.17278
O	-0.4832220003	-4.0950326083	 3.5580656927	-0.414225
C	 0.2308094942	-2.9699314347	 0.4674427841	-0.329775
C	 1.3524761144	-2.0262217641	 0.8081324431	-0.148345
H	 0.5900582985	 1.9509805732	 0.4150276658	 0.103045
H	-0.5630645467	 1.6382962481	-0.9101429772	 0.126668
H	-1.0275432636	 1.2940659114	 0.775986662	 0.107974
H	 1.5619463808	 0.0474972812	 1.4691167124	 0.066701
H	-0.0070076913	-0.7380305868	 3.0919736648	 0.103784
H	-1.2502805574	-1.0595894413	 1.8578767876	 0.099385
H	 1.3833881539	-4.316327614	 2.6343483302	 0.083169
H	 1.2019247784	-3.0348261924	 3.8420811518	 0.106422
H	-0.9844788136	-4.4748959527	 2.8285729074	 0.281224
H	 0.5513076464	-3.9789024948	 0.2241448665	 0.108278
H	-0.6182109625	-2.6146115598	-0.1091818736	 0.120265
H	 2.3880278489	-2.2769042398	 0.6115870435	 0.086707
80.6433	80.8691	130.8715	159.074	192.6181	276.1821	308.1055	334.4164	371.4705	411.2309	456.0199	553.753	674.5247	723.5014	831.6682	868.1468	918.0224	936.0672	970.6245	977.6855	986.32	1030.6534	1048.7504	1060.8747	1079.4394	1101.7682	1132.7548	1163.687	1180.6302	1183.6847	1220.3788	1241.8026	1267.8208	1282.3264	1316.7888	1367.2899	1385.6342	1400.7016	1431.6094	1475.9533	1481.3909	1486.3567	1496.3916	1506.8584	1509.4208	2965.5478	2971.3464	2988.716	3019.3994	3052.0125	3058.1784	3109.1057	3114.326	3117.009	3181.0058	3202.5054	3807.1513
COC1CC2(CO)CC12	CO[C@H]1C[C@@]2(CO)C[C@@H]12	
InChI=1S/C7H12O2/c1-9-6-3-7(4-8)2-5(6)7/h5-6,8H,2-4H2,1H3	InChI=1S/C7H12O2/c1-9-6-3-7(4-8)2-5(6)7/h5-6,8H,2-4H2,1H3/t5-,6-,7+/m0/s1
