18
gdb 72588	2.23754	1.60757	1.46038	3.2484	72.36	-0.239	0.0167	0.2556	1022.9997	0.146503	-439.098879	-439.089998	-439.089053	-439.132118	33.401	
C	-0.0297014643	 1.5568308318	 0.0327979255	-0.467942
C	 0.0481301932	 0.0513422828	 0.0400861956	 0.284595
C	 0.8660581367	-0.7034806254	-1.0483781516	-0.265905
C	 1.5962520874	-1.5219701009	 0.0585290382	-0.278627
C	 0.7779911246	-0.8107307794	 1.1654122801	 0.232262
O	 1.5196519728	-0.337081401	 2.2345079279	-0.468092
C	-0.6061982135	-1.4497668545	 1.4099897749	 0.340488
O	-1.0478584494	-2.2876236299	 2.1527958505	-0.366931
N	-1.1791169504	-0.6641708652	 0.4306024456	-0.371962
H	 0.9722897213	 1.9889910043	-0.0492401635	 0.129804
H	-0.6218036237	 1.922962694	-0.8143017451	 0.120051
H	-0.4899149811	 1.9269460862	 0.9537693485	 0.122761
H	 0.2583975972	-1.2807935299	-1.7486619461	 0.099929
H	 1.5353465981	-0.0562790317	-1.6198876378	 0.108314
H	 1.5192480778	-2.6106790791	 0.0255930459	 0.117574
H	 2.6492482116	-1.2474723806	 0.1528194623	 0.123402
H	 0.9461053568	-0.2673160523	 3.0053537454	 0.29753
H	-2.0184722152	-0.8462342094	-0.1043121263	 0.24275
103.1469	131.9553	172.9225	187.4288	211.1626	297.2835	319.9183	358.5904	425.8543	500.5867	565.4679	619.8711	644.9699	723.0489	755.2773	760.2613	851.0868	872.5823	923.4354	953.7185	984.4148	1053.2725	1076.1938	1126.4046	1157.312	1208.3622	1222.3654	1237.1951	1267.4807	1294.1926	1336.4671	1358.3744	1368.7781	1412.9899	1471.5685	1484.3058	1490.18	1490.876	1879.2024	3029.5085	3065.3466	3073.3788	3094.5754	3112.0949	3115.3912	3132.0196	3576.3761	3810.0231
CC12CCC1(O)C(=O)N2	C[C@@]12CC[C@]1(O)C(=O)N2	
InChI=1S/C6H9NO2/c1-5-2-3-6(5,9)4(8)7-5/h9H,2-3H2,1H3,(H,7,8)	InChI=1S/C6H9NO2/c1-5-2-3-6(5,9)4(8)7-5/h9H,2-3H2,1H3,(H,7,8)/t5-,6+/m1/s1
