15
gdb 26792	3.62962	1.13253	0.86785	2.967	82.29	-0.1948	-0.0067	0.1881	1270.7406	0.111347	-416.818543	-416.809546	-416.808602	-416.852626	32.568	
C	-0.0936789594	 1.5163428123	 0.013196267	-0.506174
C	-0.005205146	 0.0248982308	-0.0157306466	 0.132052
C	 0.2167144977	-0.803012653	-1.0953818993	 0.324923
O	 0.4204503584	-0.6052318344	-2.4176603569	-0.435501
N	 0.2114346293	-2.0815684169	-0.6211178031	-0.354761
C	-0.014215832	-2.0018307882	 0.7400452785	 0.170081
N	-0.1458309751	-0.7433920174	 1.1151569124	-0.344206
C	-0.0814293874	-3.153314167	 1.5515041158	 0.268892
C	-0.1329354874	-4.1573044116	 2.2153246682	-0.415311
H	 0.0433593673	 1.9504685323	-0.9842128882	 0.092885
H	-1.0678918021	 1.8507608684	 0.3853497836	 0.142809
H	 0.6714707632	 1.9485242848	 0.6668095445	 0.142786
H	 0.3955529004	 0.3411073584	-2.592226755	 0.310889
H	 0.3469442732	-2.9164759357	-1.1667639294	 0.277367
H	-0.1813341301	-5.0318537328	 2.8153000386	 0.193269
45.2572	123.7517	140.312	218.0438	248.2332	259.7532	323.6576	407.7331	468.1173	503.1732	534.616	546.3842	589.7062	645.314	686.2161	687.1638	721.7555	799.6839	996.5921	1028.7011	1058.7304	1143.528	1214.8797	1240.5725	1313.4512	1410.4051	1420.491	1467.8503	1497.8777	1510.299	1545.7247	1644.1552	2229.2707	3024.242	3086.2584	3089.3576	3503.3406	3665.3186	3835.9536
CC1=C(O)NC(=N1)C#C	Cc1c(O)[nH]c(n1)C#C	
InChI=1S/C6H6N2O/c1-3-5-7-4(2)6(9)8-5/h1,9H,2H3,(H,7,8)	InChI=1S/C6H6N2O/c1-3-5-7-4(2)6(9)8-5/h1,9H,2H3,(H,7,8)
