19
gdb 70693	2.18861	1.92639	1.28122	3.1463	75.84	-0.229	0.0207	0.2498	1040.9101	0.160967	-419.224263	-419.215968	-419.215024	-419.257061	31.913	
C	 0.1000958594	 1.4962506259	-0.0062026809	-0.453109
C	-0.0235448868	-0.0129913895	 0.0061777936	 0.212533
C	-0.8629520763	-0.6948211536	 1.033200571	-0.274296
N	 0.59459822	-0.7148430265	 1.1468050972	-0.142041
C	 1.2599167202	-1.9970234741	 0.8636051188	-0.146083
C	 1.9149026213	-1.9863429834	-0.5120427792	-0.166835
N	 0.9063963002	-1.6675582527	-1.5150712862	-0.321411
C	 0.0275427504	-0.6295261949	-1.377982982	 0.34874
O	-0.6545446586	-0.2142996916	-2.296393862	-0.378982
H	 1.0790555452	 1.8072123231	-0.3868362238	 0.117938
H	-0.6677565914	 1.9229566142	-0.6560621868	 0.145344
H	-0.0130381921	 1.8930402702	 1.0052101801	 0.12138
H	-1.3906115819	-0.0984514054	 1.7736974267	 0.11695
H	-1.364750772	-1.6193141384	 0.7517043641	 0.117242
H	 2.0193777111	-2.167938923	 1.6344914083	 0.112361
H	 0.5481943422	-2.8317850653	 0.9078920097	 0.105568
H	 2.7431966188	-1.2630289073	-0.5311612403	 0.118366
H	 2.3347588618	-2.9713528509	-0.7346968551	 0.118145
H	 1.0188045187	-2.0035040869	-2.4606096732	 0.24819
67.1437	166.136	199.1081	225.7942	288.9425	308.8463	426.2721	438.5291	476.9595	521.111	559.648	646.3442	694.6599	746.4138	775.1627	853.3704	917.4966	944.9984	971.0594	990.306	1062.5891	1093.7909	1107.1919	1116.5559	1134.683	1172.5859	1226.8512	1253.5674	1271.1438	1342.4235	1371.9267	1385.6	1401.1445	1406.3388	1464.8416	1481.8901	1494.6258	1496.7466	1513.4983	1519.0064	1789.0223	2997.9887	3015.607	3041.2997	3064.5482	3086.7946	3090.3977	3110.5365	3137.8363	3176.8153	3610.0897
CC12CN1CCNC2=O	C[C@]12CN1CCNC2=O	
InChI=1S/C6H10N2O/c1-6-4-8(6)3-2-7-5(6)9/h2-4H2,1H3,(H,7,9)	InChI=1S/C6H10N2O/c1-6-4-8(6)3-2-7-5(6)9/h2-4H2,1H3,(H,7,9)/t6-,8?/m1/s1
