18
gdb 17034	3.6043	1.7107	1.38142	2.4265	72.98	-0.2452	-0.025	0.2202	945.2951	0.153745	-347.759041	-347.751571	-347.750626	-347.790816	28.356	
C	-0.2224343083	 1.5267316651	 0.1806161082	-0.445736
C	 0.0141264454	 0.0276706725	 0.072004669	 0.064659
C	 1.1498701886	-0.5602803442	-0.8286656655	-0.078053
C	 2.1799189797	-0.1114052312	 0.2476766619	-0.236159
C	 0.9894350317	-0.7299807501	 1.0421353809	-0.063647
C	 1.027037263	-1.892248755	 0.0096005719	-0.056237
C	-0.1351531689	-2.8201652205	-0.1953912837	 0.115497
O	-1.1585909878	-2.8300988807	 0.4444589066	-0.247692
H	 0.687679751	 2.1143020877	 0.3220620545	 0.116588
H	-0.7172372108	 1.8973204411	-0.7241513807	 0.118589
H	-0.8882795458	 1.7407986343	 1.0237412576	 0.123149
H	-0.9462744499	-0.476496954	-0.0447738339	 0.09365
H	 1.2493100751	-0.4908955714	-1.9135467312	 0.074347
H	 3.1236036565	-0.6629584418	 0.276188816	 0.091645
H	 2.3550130196	 0.9583807933	 0.355065672	 0.099255
H	 0.894584538	-0.8345807988	 2.1233031472	 0.078563
H	 1.9502545047	-2.4860110033	-0.0067653441	 0.080188
H	 0.0247711782	-3.5599832932	-1.0159233266	 0.071395
93.3362	169.4092	184.2472	233.6632	290.1291	350.4505	458.7555	562.8683	705.2312	752.8375	778.9013	792.2177	828.4448	886.8132	904.5433	1003.1965	1017.3938	1023.3049	1023.5676	1044.2063	1080.6419	1102.5255	1123.6246	1133.9119	1159.8899	1187.7376	1210.1746	1231.5331	1241.3388	1268.8431	1386.6123	1412.2869	1427.5606	1439.4467	1496.2159	1499.8252	1532.3972	1816.2922	2845.7791	3026.742	3035.245	3064.5459	3091.1133	3093.3874	3099.1399	3111.9468	3120.7863	3143.082
CC1C2CC1C2C=O	C[C@H]1[C@H]2C[C@@H]1[C@H]2C=O	
InChI=1S/C7H10O/c1-4-5-2-6(4)7(5)3-8/h3-7H,2H2,1H3	InChI=1S/C7H10O/c1-4-5-2-6(4)7(5)3-8/h3-7H,2H2,1H3/t4-,5+,6-,7-
