12
gdb 131242	5.57474	1.3377	1.07882	2.7919	62.49	-0.2199	-0.0249	0.195	992.779	0.079878	-468.801998	-468.795745	-468.7948	-468.832532	24.354	
O	 0.0820957622	 1.3185367837	-0.0097293604	-0.420414
C	 0.0655214273	-0.0211250405	-0.0757799893	 0.363985
C	 0.0038749771	-0.7720420804	-1.2276439441	-0.268196
N	 0.0135107527	-2.0863969628	-0.741308101	-0.045831
C	-0.0126043455	-3.4236234061	-1.0124792338	 0.043417
N	 0.0309761437	-4.1444598604	 0.0706164368	-0.132847
O	 0.0907878122	-3.2207538673	 1.1486342384	-0.242071
C	 0.0783673061	-1.9919599572	 0.6207056892	 0.539662
N	 0.1124278479	-0.7756240397	 1.0856889569	-0.478496
H	 0.1285081949	 1.5500308704	 0.9264448809	 0.311574
H	-0.0424672462	-0.5177994878	-2.2690261651	 0.148148
H	-0.0631791923	-3.8603267018	-1.9969468786	 0.18107
157.8718	316.6938	339.1226	339.1954	391.654	555.442	567.7138	582.6057	611.7024	703.5963	750.3486	791.1136	859.3645	860.0451	886.7984	989.5374	1002.4601	1157.3765	1204.5496	1225.435	1253.5011	1382.1947	1398.1418	1451.0561	1584.6169	1639.6023	1659.9054	3282.204	3318.3891	3800.2432
OC1=CN2C=NOC2=N1	Oc1cn2cnoc2n1	
InChI=1S/C4H3N3O2/c8-3-1-7-2-5-9-4(7)6-3/h1-2,8H	InChI=1S/C4H3N3O2/c8-3-1-7-2-5-9-4(7)6-3/h1-2,8H
