16
gdb 43806	2.46229	1.69952	1.1896	3.016	70.12	-0.2687	-0.0057	0.263	1041.6749	0.124121	-437.86132	-437.853618	-437.852674	-437.893583	29.273	
O	-0.049790176	 0.1377039644	 0.4207896096	-0.344181
C	 0.019068577	 1.2770673103	 0.0864214841	 0.439763
O	-0.978547088	 2.0923641304	-0.403792116	-0.301206
C	-0.0454974835	 3.1948095612	-0.6049610881	 0.425647
C	-0.0888470157	 4.0529576326	-1.8141332008	-0.325625
C	-0.4481120122	 4.6135248529	-0.4399510874	-0.338478
C	 1.0638240424	 2.3613756762	-0.0204667531	 0.018292
C	 2.1713372598	 2.6263185897	 0.9263049041	-0.292777
N	 2.4395385904	 2.2464257759	-0.4672643589	-0.35667
H	 0.8598705462	 4.3301722988	-2.2610682553	 0.13944
H	-0.9012952692	 3.8908978074	-2.5135120676	 0.137573
H	-1.4957204283	 4.8113929375	-0.2419592403	 0.13861
H	 0.244314999	 5.2922222693	 0.0472946184	 0.12671
H	 2.4210277963	 3.6536582388	 1.1753585207	 0.134989
H	 2.3342287102	 1.8992307463	 1.717424599	 0.141835
H	 2.7021738615	 1.2647356384	-0.5339775484	 0.256078
111.4948	172.2505	179.627	212.7278	256.7686	339.6532	514.2633	524.0126	563.223	637.4023	738.1989	760.3649	825.1565	848.5871	867.3103	915.4449	949.2976	969.3217	986.0586	1030.6416	1033.5865	1053.7123	1077.0651	1080.8974	1131.7193	1184.2653	1231.4087	1250.8488	1270.7292	1366.5224	1448.4711	1453.8533	1499.6037	1528.355	1938.109	3112.0421	3133.4048	3138.423	3203.8762	3219.0036	3233.4689	3491.7692
O=C1OC2(CC2)C11CN1	O=C1OC2(CC2)[C@]21CN2	
InChI=1S/C6H7NO2/c8-4-6(3-7-6)5(9-4)1-2-5/h7H,1-3H2	InChI=1S/C6H7NO2/c8-4-6(3-7-6)5(9-4)1-2-5/h7H,1-3H2/t6-/m1/s1
