17
gdb 87069	2.56922	1.3269	1.08149	3.0418	73.41	-0.251	0.0202	0.2712	1154.0883	0.135678	-417.969636	-417.960868	-417.959923	-418.003319	32.322	
O	 0.1963529087	 1.2984611318	 0.2482499836	-0.399468
C	 0.0604677199	-0.072103353	 0.1043787967	 0.075945
C	-0.4669691803	-0.7979791564	 1.2895104773	-0.331007
C	-1.344264388	-0.700988852	 0.0376406582	 0.114543
C	-2.4506346602	 0.2163925126	 0.0616558913	 0.224862
N	-3.3555026186	 0.9370798842	 0.0183199482	-0.358819
C	-1.5386536105	-1.9356860168	-0.8041430841	-0.047949
C	-2.8613719821	-2.5949183593	-0.9332195861	-0.255105
N	-2.2581846175	-1.8907408683	-2.0813063999	-0.324984
H	 0.0131287546	 1.7225637977	-0.5978093427	 0.301679
H	 0.8099374133	-0.56752045	-0.5131561987	 0.110672
H	-0.0731935746	-1.7786746721	 1.5306768937	 0.135651
H	-0.7560277116	-0.1873497184	 2.1361479515	 0.154197
H	-0.6474512827	-2.5606064262	-0.8301293228	 0.095747
H	-2.9213179557	-3.6745453703	-1.0346685799	 0.124183
H	-3.7067096372	-2.1322966245	-0.4315504228	 0.135687
H	-2.7105011476	-0.9854421491	-2.1970616935	 0.244164
68.7803	131.2375	146.273	170.6507	225.4339	313.791	358.7529	392.7074	405.1937	483.477	580.2508	648.1738	662.9512	820.4378	833.6751	861.7128	895.8715	932.2178	968.065	1002.6325	1023.3797	1060.5683	1095.5949	1115.588	1150.162	1176.5231	1190.0179	1236.6231	1266.1267	1293.2994	1307.0161	1335.1134	1411.9326	1432.4516	1481.2671	1510.9958	2343.6766	3104.826	3114.4279	3118.9918	3148.3521	3203.4506	3245.225	3486.8799	3800.8071
OC1CC1(C#N)C1CN1	O[C@H]1C[C@]1(C#N)[C@H]1CN1	
InChI=1S/C6H8N2O/c7-3-6(1-5(6)9)4-2-8-4/h4-5,8-9H,1-2H2	InChI=1S/C6H8N2O/c7-3-6(1-5(6)9)4-2-8-4/h4-5,8-9H,1-2H2/t4-,5+,6+/m1/s1
