12
gdb 21904	5.61924	1.64832	1.27447	2.6342	61.8	-0.2343	-0.0733	0.161	864.723	0.084574	-414.645534	-414.63915	-414.638206	-414.676137	24.231	
O	-0.0665419014	 1.2914734838	-0.3327192542	-0.405336
C	 0.0116959412	-0.0163060301	-0.0195267587	 0.438711
N	 1.178825959	-0.5347093748	 0.1347669216	-0.194919
O	 1.2256155977	-1.8986047605	 0.4604466497	-0.289869
C	 0.0937202767	-2.6774960979	 0.6156503318	 0.413224
N	 0.1886243339	-3.9101358065	 0.9113999277	-0.527537
C	-1.1898368697	-2.0214083027	 0.4255403327	-0.109476
C	-1.2439969243	-0.7200670846	 0.1145489682	-0.154803
H	 0.8391611153	 1.6300265564	-0.3892129153	 0.312688
H	 1.1682652072	-4.1851880703	 1.0028301404	 0.230066
H	-2.0675492375	-2.6426957347	 0.5500372619	 0.147295
H	-2.1675430981	-0.1760957382	-0.0393592858	 0.139956
91.4071	287.5378	328.9624	357.9938	453.8995	482.1011	502.804	577.0207	626.61	741.3424	785.4606	806.7381	845.7653	879.1935	942.317	1016.0703	1018.2766	1085.1282	1157.8278	1247.5629	1306.7077	1374.0287	1476.8746	1639.0872	1683.2256	1732.9366	3212.2602	3231.2787	3477.2508	3756.1765
OC1=NOC(=N)C=C1	OC1=NOC(=C[CH]1)[NH]	
InChI=1S/C4H4N2O2/c5-3-1-2-4(7)6-8-3/h1-2,5H,(H,6,7)	InChI=1S/C4H4N2O2/c5-3-1-2-4(7)6-8-3/h1-2,5H,(H,6,7)
