19
gdb 53937	1.99808	1.44908	1.28296	0.5822	72.59	-0.2443	-0.0499	0.1945	1140.0644	0.15408	-460.212086	-460.201527	-460.200583	-460.247695	37.943	
C	-0.4711672334	 0.376693807	 0.7600688926	-0.491771
C	 0.4373588448	 0.2589916407	-0.4340807781	 0.360717
O	 1.4627472388	 0.8976712189	-0.5514281834	-0.331131
C	 0.0556961302	-0.7016756121	-1.5896492544	 0.165101
C	-1.3800096313	-0.4382486573	-2.0772662179	-0.42213
O	 0.9668659308	-0.5127650479	-2.6392877542	-0.462039
C	 0.1546089243	-2.1559734244	-1.0371670615	 0.337077
C	 1.3502977479	-2.9647709482	-1.4800015342	-0.465311
O	-0.6927517473	-2.5875926809	-0.2890107657	-0.309717
H	 0.0616602646	 0.859289324	 1.5803250394	 0.146333
H	-1.3339190117	 0.9968007784	 0.4890558286	 0.155094
H	-0.8593772101	-0.6005460234	 1.0550886335	 0.176258
H	-1.5063419453	 0.6172211956	-2.3332624947	 0.124503
H	-1.5586605698	-1.0292517483	-2.9792860988	 0.137533
H	-2.1088460908	-0.7277126197	-1.3193668673	 0.14294
H	 1.613681729	 0.1312873746	-2.3007564376	 0.292824
H	 2.2753842275	-2.4311251538	-1.2379218426	 0.146411
H	 1.3302767849	-3.9381667635	-0.9891408815	 0.136164
H	 1.3461139771	-3.0790940397	-2.5674907821	 0.161144
50.9817	81.6604	143.9293	154.5309	176.0925	216.3371	246.5813	264.0359	328.3977	377.8702	399.8849	461.8237	507.7232	518.9881	568.8612	610.9728	627.1906	677.3922	809.1123	929.6432	974.1513	982.4975	1006.6919	1049.7589	1111.2879	1123.2124	1179.3513	1203.9361	1257.0891	1382.0988	1390.0109	1392.4889	1404.1925	1450.5376	1462.1382	1463.1984	1470.9303	1487.7202	1497.0812	1782.1064	1801.8935	3044.7459	3050.0006	3052.461	3114.3784	3115.5418	3123.6506	3153.9063	3160.2327	3161.7401	3632.3928
CC(=O)C(C)(O)C(C)=O	CC(=O)C(C)(O)C(=O)C	
InChI=1S/C6H10O3/c1-4(7)6(3,9)5(2)8/h9H,1-3H3	InChI=1S/C6H10O3/c1-4(7)6(3,9)5(2)8/h9H,1-3H3
