25
gdb 77674	1.75152	1.57219	1.51171	0.062	92.52	-0.2426	0.0809	0.3235	1185.7441	0.228726	-352.37427	-352.364124	-352.36318	-352.408607	38.819	
C	-0.2621601345	 1.5068358662	-0.0552865651	-0.430885
C	 0.0326331618	 0.0229208356	 0.0379155204	-0.089456
C	 1.3326991369	-0.6720638924	-0.3278833438	 0.291963
C	 1.2907044545	-1.8805264279	-1.2376390989	-0.479363
C	 2.6054564084	 0.1714552289	-0.391801341	-0.266749
C	 2.7502737279	 0.8931998288	 0.9717325107	-0.229753
C	 1.8031316819	 0.1594259839	 1.9543877811	-0.266749
C	 0.8386635295	-0.6794676797	 1.1167828905	 0.291962
C	 0.2521873465	-1.8960861202	 1.799194372	-0.479363
H	 0.5779444767	 2.1387325354	 0.2352081132	 0.119122
H	-0.5372871642	 1.7810603605	-1.0804256447	 0.114576
H	-1.1082084113	 1.7725158476	 0.5892453954	 0.114576
H	-0.8332729205	-0.5677779755	-0.261241324	 0.070621
H	 1.319578396	-1.5789208374	-2.2919700695	 0.113422
H	 2.1483805765	-2.5423063826	-1.0643912286	 0.108978
H	 0.3801664756	-2.469844558	-1.0945979068	 0.111119
H	 3.4550479875	-0.5015796495	-0.5604743285	 0.093312
H	 2.6018267263	 0.8777807501	-1.2307449532	 0.092634
H	 3.7850947818	 0.8738312029	 1.325510032	 0.094501
H	 2.4830338343	 1.9491307801	 0.8857583742	 0.106065
H	 2.373655413	-0.5177896453	 2.6017786943	 0.093312
H	 1.2843444483	 0.858030718	 2.6218798178	 0.092634
H	-0.3715113755	-1.6042579695	 2.6531557942	 0.113422
H	-0.3782596822	-2.4812014542	 1.1231669346	 0.111119
H	 1.0384276947	-2.5589420055	 2.1813244841	 0.108978
96.9084	133.1829	152.7945	179.1466	188.8629	210.9927	240.3249	263.2596	335.0587	345.816	492.0294	507.453	528.9239	618.9037	684.8234	699.9132	744.5991	824.7354	891.4577	908.0736	923.446	979.6336	980.3158	1008.8469	1037.3047	1068.6726	1085.0444	1105.6148	1110.081	1140.0757	1145.1236	1204.3693	1220.2755	1247.4146	1261.0696	1268.4597	1323.4279	1324.6271	1351.8268	1357.4083	1409.8387	1412.5419	1422.864	1460.7766	1480.9373	1485.7647	1488.4268	1492.6835	1496.1438	1498.6576	1501.4107	1514.8496	1520.6806	3014.7874	3016.758	3021.7863	3023.7029	3030.1811	3048.2421	3053.0159	3061.7919	3069.275	3070.6682	3078.1823	3093.8339	3096.7784	3097.7383	3105.6028	3141.0197
CC1C2(C)CCCC12C	C[C@H]1[C@@]2(C)CCC[C@@]12C	
InChI=1S/C9H16/c1-7-8(2)5-4-6-9(7,8)3/h7H,4-6H2,1-3H3	InChI=1S/C9H16/c1-7-8(2)5-4-6-9(7,8)3/h7H,4-6H2,1-3H3/t7-,8+,9-
