14
gdb 21255	7.2655	1.31399	1.12218	1.9634	61.57	-0.2183	0.027	0.2453	1012.3321	0.107572	-415.845957	-415.838399	-415.837455	-415.877922	27.315	
C	 0.0097958274	 1.413439967	 0.085647245	-0.249848
O	 0.0102147878	-0.0177657208	 0.0109883147	-0.268854
C	 0.6149321987	-0.6741064625	 0.993390697	 0.575741
C	 0.7778197589	-2.0149010602	 1.170521848	-0.496229
C	 1.5047531017	-2.07759363	 2.3930505146	 0.452805
N	 1.9999199056	-3.2181460998	 3.0009872237	-0.587177
N	 1.7458700401	-0.8893540181	 2.9127284358	-0.254788
O	 1.1705790855	 0.0251214732	 1.9852964052	-0.232928
H	 1.0311413308	 1.8041518694	 0.0812929812	 0.146774
H	-0.525380907	 1.7501965088	-0.8018484585	 0.141961
H	-0.5031208899	 1.7566268214	 0.9884202302	 0.145913
H	 0.4557052392	-2.8138052378	 0.5264926277	 0.114302
H	 1.3883442281	-4.0191313683	 2.9367542252	 0.253906
H	 2.3020410829	-3.0530103923	 3.9521859501	 0.258422
75.1712	149.119	213.1983	220.6443	302.1246	372.3163	395.8411	520.2242	624.3003	637.2253	688.9963	722.1183	757.951	771.9235	919.0208	983.5938	1022.192	1062.148	1137.4367	1176.3252	1196.9136	1230.2428	1346.6242	1467.1926	1485.2584	1499.683	1522.5554	1568.4249	1646.5881	1678.4442	3045.5675	3119.2758	3159.9948	3288.6831	3555.2653	3656.1558
COC1=CC(N)=NO1	COc1cc(N)no1	
InChI=1S/C4H6N2O2/c1-7-4-2-3(5)6-8-4/h2H,1H3,(H2,5,6)	InChI=1S/C4H6N2O2/c1-7-4-2-3(5)6-8-4/h2H,1H3,(H2,5,6)
