18
gdb 31320	2.24097	1.40615	0.92315	2.7648	84.51	-0.2249	-0.0413	0.1836	1270.6498	0.148661	-402.015553	-402.006897	-402.005953	-402.049698	31.724	
C	 0.0541797989	 1.5805581714	 0.1864622224	-0.364236
C	 0.0101937902	 0.0580566082	-0.0384082786	-0.307259
C	-1.3855230021	-0.4980130888	-0.0248892189	 0.214764
C	-2.194911653	-0.774523438	-1.1306124843	 0.131905
N	-3.4065490383	-1.2328998526	-0.6586786077	-0.277701
C	-3.3937933162	-1.2570485867	 0.6944191166	-0.059948
C	-2.1549358349	-0.8060510278	 1.1219474053	-0.240569
C	-1.9861682561	-0.674740334	-2.5542048108	 0.068603
O	-2.8344031358	-0.9665365398	-3.3816281389	-0.327103
H	 1.0865765542	 1.9441714762	 0.1886193228	 0.113719
H	-0.4924564415	 2.1072337276	-0.6017880797	 0.121982
H	-0.4035775018	 1.8488294131	 1.1435296432	 0.121652
H	 0.5018337984	-0.1813656551	-0.9871518225	 0.10804
H	 0.5984761648	-0.4369245753	 0.74329384	 0.109748
H	-4.1509877122	-1.5047181971	-1.2807221694	 0.278062
H	-4.2498627586	-1.5927305791	 1.2588388227	 0.133175
H	-1.8383270366	-0.7154426933	 2.1503685522	 0.102924
H	-0.9851736694	-0.3090206288	-2.8617206143	 0.072243
36.3	145.5504	159.3757	171.8119	227.1584	282.0665	318.8949	400.7729	543.5032	578.5647	613.119	668.0215	722.6834	771.9502	788.0314	806.3189	849.5543	915.871	967.948	1022.6347	1040.5543	1074.539	1090.3516	1112.9756	1187.7263	1263.1249	1286.1984	1335.4552	1355.4135	1391.6952	1407.0873	1461.4831	1470.095	1487.331	1495.5698	1504.396	1515.7338	1592.1641	1746.6388	2917.9217	3034.6444	3036.7628	3070.7647	3109.2909	3113.9555	3240.8379	3264.0024	3657.8342
CCC1=C(NC=C1)C=O	CCc1c([nH]cc1)C=O	
InChI=1S/C7H9NO/c1-2-6-3-4-8-7(6)5-9/h3-5,8H,2H2,1H3	InChI=1S/C7H9NO/c1-2-6-3-4-8-7(6)5-9/h3-5,8H,2H2,1H3
