13
gdb 42160	4.06876	1.00371	0.85037	1.691	67.35	-0.2593	-0.1131	0.1462	1278.4769	0.08552	-456.511688	-456.502898	-456.501953	-456.546669	29.991	
O	 0.1393971999	-0.0281228481	-0.3587309015	-0.271729
C	 0.1351913314	 1.1269508322	 0.0105286018	 0.108241
C	 1.3157007114	 1.9550135506	 0.0572676664	 0.29625
C	 2.308151406	 2.6351020148	 0.0846832928	-0.36603
C	-1.1734996223	 1.8008729682	 0.4806171066	 0.279836
O	-1.1686966353	 2.9283992676	 0.9069900935	-0.276351
C	-2.4039929827	 0.9459438683	 0.3950775244	-0.031445
C	-3.3681101697	 1.0026898955	 1.5184743166	-0.160025
O	-3.6326139841	 1.6650904411	 0.2985489198	-0.208741
H	 3.1844543684	 3.2373362458	 0.109248409	 0.224674
H	-2.3303471118	 0.0413742447	-0.199421099	 0.13466
H	-3.9729397926	 0.1221524565	 1.7284057481	 0.131658
H	-3.1418238586	 1.653197823	 2.3611582915	 0.139001
35.5776	55.5564	119.9928	211.9359	220.5896	257.0434	292.0758	385.9408	482.1005	514.7313	655.4559	672.0884	724.1571	773.8938	819.5398	856.7096	901.1274	954.3602	1029.0046	1097.944	1162.0079	1170.5816	1221.1802	1271.2872	1412.7703	1509.2859	1753.4802	1811.5911	2216.4624	3090.3409	3177.928	3191.0978	3491.1754
O=C(C#C)C(=O)C1CO1	O=C(C#C)C(=O)[C@H]1CO1	
InChI=1S/C6H4O3/c1-2-4(7)6(8)5-3-9-5/h1,5H,3H2	InChI=1S/C6H4O3/c1-2-4(7)6(8)5-3-9-5/h1,5H,3H2/t5-/m1/s1
