18
gdb 102774	2.29018	1.22609	0.91928	4.2257	71.49	-0.2513	-0.0283	0.223	1304.6289	0.144543	-476.228176	-476.218112	-476.217168	-476.263931	35.226	
C	 0.1198492862	 1.3484325369	-0.4840952778	-0.492738
C	 0.0294026712	-0.0410652639	 0.1088978978	 0.392044
O	 0.9705683144	-0.5943263272	 0.6216458586	-0.286388
C	-1.3503945806	-0.7325556958	 0.0506942597	-0.039211
C	-1.9701998582	-0.6827728125	-1.3475824148	-0.08097
O	-1.0847996186	-1.2060540455	-2.3149601884	-0.419219
O	-1.2498814903	-2.1124336343	 0.3596063733	-0.19855
C	-0.9135662898	-2.4659310655	 1.6240934125	 0.149148
N	-0.7612835043	-3.6852378148	 1.9000768961	-0.447494
H	 1.0436061636	 1.8243033859	-0.1536674312	 0.149693
H	 0.1305718342	 1.2606600248	-1.5762600294	 0.174177
H	-0.7414471165	 1.9665805757	-0.2101096775	 0.134028
H	-2.0156946977	-0.2175364191	 0.7641070366	 0.101062
H	-2.9229341352	-1.2298127735	-1.3198601682	 0.115773
H	-2.1816209813	 0.3509612022	-1.6329722478	 0.1183
H	-0.862411181	-2.1022511218	-2.0342816859	 0.304993
H	-0.8333220592	-1.616728631	 2.3111648876	 0.093875
H	-0.536288627	-3.7930107204	 2.886707959	 0.231478
57.9205	83.6017	93.9783	133.2114	187.5837	194.8973	265.2988	276.8697	361.229	380.929	452.1151	480.1528	565.0048	623.5579	697.6518	787.4407	816.6077	909.3105	956.6574	968.2907	1034.3492	1047.0312	1066.2874	1101.3351	1150.3838	1188.2262	1238.1586	1269.1969	1296.6537	1349.5039	1379.8019	1395.884	1424.4521	1428.0184	1466.4323	1478.3755	1499.93	1747.4897	1825.2774	2972.5389	3014.6406	3040.7294	3062.5201	3100.9788	3106.6135	3154.74	3522.1377	3792.8953
CC(=O)C(CO)OC=N	CC(=O)[C@@H](CO)O[CH][NH]	
InChI=1S/C5H9NO3/c1-4(8)5(2-7)9-3-6/h3,5-7H,2H2,1H3	InChI=1S/C5H9NO3/c1-4(8)5(2-7)9-3-6/h3,5-7H,2H2,1H3/t5-/m1/s1
