24
gdb 22050	2.6042	0.99078	0.92395	0.5863	88.69	-0.2388	0.0193	0.2581	1457.0861	0.213584	-405.523577	-405.512034	-405.51109	-405.559957	42.733	
C	-0.0915631414	 1.5195967654	 0.1391932415	-0.401247
C	-0.0085170133	 0.0014446344	-0.0592703475	-0.186549
C	 0.7481916088	-0.4913065559	-1.3294751037	 0.178752
C	 0.0457070862	 0.0185562932	-2.5998028352	-0.404503
C	 2.2116158977	 0.0095139252	-1.3346933156	-0.419174
C	 0.7556630441	-2.0204636087	-1.2878113949	 0.348663
C	 1.4536725646	-2.7607559075	-0.1731439605	-0.47121
N	 0.1447756445	-2.634615415	-2.227745997	-0.180227
O	 0.2176845445	-4.031883204	-2.0722310541	-0.408368
H	 0.8980463879	 1.9771712522	 0.2331401019	 0.11733
H	-0.613719543	 2.0156578032	-0.6840219119	 0.121326
H	-0.6424945788	 1.7457045119	 1.0577122	 0.11376
H	 0.4628209913	-0.4359469247	 0.8286259032	 0.093624
H	-1.0248965355	-0.4099234931	-0.0968343603	 0.101898
H	 0.086679118	 1.1104882893	-2.643888446	 0.100799
H	 0.5276984607	-0.3760495067	-3.4972844355	 0.119033
H	-1.0014549835	-0.2920852947	-2.6295499242	 0.118349
H	 2.7487385527	-0.2621206464	-0.4210884696	 0.110983
H	 2.7580426665	-0.4104636642	-2.1851751704	 0.119338
H	 2.2455556877	 1.0986028539	-1.4264603941	 0.11837
H	 0.7421172897	-3.4036045828	 0.3547568213	 0.14474
H	 2.217416959	-3.4265574023	-0.5875800711	 0.144038
H	 1.9236483399	-2.0903067872	 0.5456907771	 0.117667
H	-0.2743924682	-4.3422673156	-2.8393080932	 0.302611
59.2675	76.2263	95.3219	173.5117	208.0485	227.2601	263.5387	274.4702	287.7441	318.6499	346.0272	363.2259	370.7761	398.1133	447.5507	471.3352	589.4298	613.4438	727.5577	783.5407	820.4075	917.3294	946.7077	964.6028	1001.3986	1016.3248	1022.6888	1039.0457	1070.1574	1082.5466	1159.0838	1217.7815	1221.8727	1282.7932	1331.8834	1368.4476	1389.9682	1397.1682	1402.3253	1410.0485	1425.4725	1472.1076	1478.0124	1480.4245	1483.8054	1487.0955	1505.5087	1508.7967	1510.2345	1512.7154	1715.43	3025.5119	3037.9987	3040.8758	3047.5502	3050.2306	3060.8058	3099.99	3102.2403	3106.3724	3110.0601	3115.7435	3120.4446	3126.5541	3148.8205	3822.2879
CCC(C)(C)C(C)=NO	CCC(C)(C)C(=NO)C	
InChI=1S/C7H15NO/c1-5-7(3,4)6(2)8-9/h9H,5H2,1-4H3	InChI=1S/C7H15NO/c1-5-7(3,4)6(2)8-9/h9H,5H2,1-4H3
