17
gdb 47905	2.60397	1.69032	1.19463	3.8805	71.46	-0.2684	-0.056	0.2124	1035.1287	0.137365	-458.985577	-458.977835	-458.976891	-459.018217	29.191	
O	-0.5154861758	 1.0378347318	-1.252182737	-0.309257
C	-0.0956208106	 1.3433036254	-0.1698152518	 0.394824
O	-0.8868685185	 1.2226102618	 0.9677404977	-0.252739
C	-1.6917353275	 2.3543944002	 1.2609109607	-0.016125
O	-0.9390262944	 3.5153676276	 1.4247636536	-0.219142
C	-0.0721932711	 3.5337388279	 2.5479076551	-0.069308
C	 1.0321662881	 2.448567582	 2.5463397529	-0.285053
C	 1.7562902686	 2.3126908019	 1.2312892043	-0.051953
C	 1.2749615657	 1.8246330097	 0.0792868471	-0.120813
H	-2.3815132489	 2.5564596078	 0.4347432087	 0.129886
H	-2.2417303858	 2.0810494583	 2.1712023881	 0.105441
H	 0.3817409799	 4.5284112854	 2.5296558579	 0.119447
H	-0.6539015993	 3.4418909633	 3.478237244	 0.100224
H	 1.745944479	 2.7181498353	 3.3320937826	 0.10367
H	 0.5909458646	 1.4887794255	 2.8223688639	 0.142616
H	 2.7852166965	 2.6665111521	 1.2154876614	 0.11299
H	 1.9058415895	 1.7961611641	-0.8032643691	 0.115293
54.9382	163.6435	225.9276	256.5469	307.5583	343.4843	374.0815	526.4506	545.7522	613.4959	701.0628	745.7157	785.2788	831.3403	868.6934	883.313	989.297	1007.4373	1017.377	1024.2167	1085.2997	1112.6568	1178.5515	1204.4823	1256.1717	1274.4593	1286.4765	1322.3582	1361.5467	1403.2902	1419.734	1443.9056	1482.9319	1494.796	1513.0333	1686.9678	1820.7138	2989.7215	3016.2102	3053.4925	3085.1236	3086.2294	3112.4016	3148.7952	3191.4372
O=C1OCOCCC=C1	O=C1OCOCCC=C1	
InChI=1S/C6H8O3/c7-6-3-1-2-4-8-5-9-6/h1,3H,2,4-5H2/b3-1-	InChI=1S/C6H8O3/c7-6-3-1-2-4-8-5-9-6/h1,3H,2,4-5H2/b3-1-
