19
gdb 108594	2.63961	1.4184	1.24265	1.2597	70.68	-0.2294	0.0666	0.296	1098.0737	0.159137	-460.128845	-460.120268	-460.119324	-460.16197	32.439	
C	 0.017145207	 1.3142863746	-0.2750297086	-0.258015
O	-0.0787049206	 0.0139009197	 0.2856803978	-0.283095
C	-1.327561034	-0.5705742754	 0.134006019	 0.336344
C	-2.4463071358	-0.163467725	 1.0875593481	-0.167874
O	-3.3747939797	-1.24973935	 1.0653071422	-0.274542
C	-2.6325529444	-2.4648715497	 0.8675467251	-0.111044
C	-1.4577791801	-2.0774656406	-0.0053105557	-0.199947
C	-1.7729832456	-1.1672434312	-1.1781331367	 0.06216
O	-3.0511724175	-1.0128556367	-1.7138141311	-0.43414
H	 1.0557727781	 1.6320229129	-0.1603193196	 0.129902
H	-0.2451719198	 1.3127316558	-1.3415113772	 0.119173
H	-0.6315762561	 2.0346837798	 0.242770062	 0.112316
H	-2.0222610831	-0.0060107932	 2.0910666156	 0.109356
H	-3.0012867237	 0.732647043	 0.7928351681	 0.115572
H	-2.2878527906	-2.874055864	 1.8285329137	 0.108817
H	-3.3206307246	-3.1819989163	 0.4092897695	 0.120506
H	-0.5793705431	-2.7111126336	-0.0390899962	 0.103497
H	-1.0270176152	-1.1607259451	-1.9665138045	 0.112616
H	-3.6748733012	-1.030984925	-0.9742673313	 0.298397
86.4795	161.3431	176.4999	199.7806	229.6637	272.4434	359.967	370.0019	499.7557	534.7113	556.0126	591.2852	728.5209	736.3555	844.2906	909.9224	930.6921	939.359	1008.4782	1032.6167	1058.3773	1091.2315	1097.0446	1108.2687	1148.9871	1180.1926	1204.5019	1214.4502	1237.3173	1250.7741	1269.9567	1316.2129	1335.0051	1358.9972	1418.9087	1464.57	1486.7129	1492.9165	1506.3687	1509.7018	1522.983	2992.6089	2995.7281	3000.265	3050.9337	3077.1972	3079.7475	3123.2264	3168.2839	3187.6651	3735.9421
COC12COCC1C2O	CO[C@]12COC[C@H]1[C@H]2O	
InChI=1S/C6H10O3/c1-8-6-3-9-2-4(6)5(6)7/h4-5,7H,2-3H2,1H3	InChI=1S/C6H10O3/c1-8-6-3-9-2-4(6)5(6)7/h4-5,7H,2-3H2,1H3/t4-,5+,6+/m0/s1
