12
gdb 131007	7.57564	0.90796	0.81079	5.0764	74.96	-0.2603	-0.0806	0.1797	1286.9739	0.076706	-431.638776	-431.631272	-431.630327	-431.671106	26.932	
O	-0.0215014486	-0.0656377501	-0.0006481602	-0.229436
C	-0.0120831359	 1.1262977551	 0.0088818357	 0.201482
N	 1.1622138935	 1.916860466	 0.0025926837	-0.012537
C	 1.2390785897	 3.2791559547	 0.0129923446	-0.189261
C	 2.5816814816	 3.5531607691	 0.0006620492	 0.180322
N	 3.2609355226	 2.3393773504	-0.016826674	-0.226713
N	 2.4216974416	 1.3706181002	-0.0156518903	-0.095812
C	 3.2411731378	 4.8008352473	 0.003795527	 0.29707
C	 3.804491488	 5.863351224	 0.0064417805	-0.423618
H	-0.9104074739	 1.7686078251	 0.0241311675	 0.117731
H	 0.370646288	 3.9150289533	 0.0277028898	 0.173463
H	 4.3064566055	 6.7994255951	 0.0087092365	 0.20731
85.0227	132.5094	192.3106	245.871	250.929	446.675	475.6397	542.3217	610.4903	653.9026	655.0731	682.7942	732.481	773.5192	820.5987	972.9754	1024.7731	1043.0305	1154.8347	1207.0454	1233.945	1397.2305	1413.6318	1453.3897	1580.0728	1862.7974	2247.3396	2985.3191	3291.6057	3502.0705
O=CN1C=C(N=N1)C#C	O=Cn1cc(nn1)C#C	
InChI=1S/C5H3N3O/c1-2-5-3-8(4-9)7-6-5/h1,3-4H	InChI=1S/C5H3N3O/c1-2-5-3-8(4-9)7-6-5/h1,3-4H
