17
gdb 102345	1.79375	1.47384	1.22961	1.961	76.37	-0.2656	0.0043	0.2699	1158.5815	0.130814	-421.727176	-421.716756	-421.715812	-421.762204	37.501	
C	-0.0577909089	 1.3789217844	-0.0609179013	-0.250209
O	 0.005041155	-0.0357549227	 0.0326289551	-0.247865
C	 0.6600406711	-0.5515986385	 1.1820289155	-0.058805
C	 0.5687410085	-2.0997542605	 1.0054900734	-0.096647
O	 1.238127018	-2.8068877127	 2.0140752935	-0.410492
C	 2.0870877848	-0.1726179167	 1.2186617443	 0.327387
C	 3.264421228	 0.0721720185	 1.2216686156	-0.474297
C	-0.0010507893	-0.1374101237	 2.4302405296	 0.372778
C	-0.574655172	 0.1915806026	 3.4330074809	-0.478443
H	 0.9450793389	 1.8233319233	-0.0969799361	 0.120591
H	-0.5827215839	 1.5973931602	-0.9928387667	 0.131742
H	-0.612235374	 1.8129419663	 0.7800955033	 0.124717
H	-0.4861515936	-2.3776368446	 1.0548232004	 0.130085
H	 0.9473614602	-2.3204946731	-0.0018340646	 0.108169
H	 2.1700288426	-2.5611308394	 1.973268236	 0.289103
H	 4.2985439477	 0.316888025	 1.2319527712	 0.207963
H	-1.0735851731	 0.4771289115	 4.3264086698	 0.204224
103.8943	111.5092	118.4144	143.9568	171.0148	201.4444	214.4125	264.0619	369.6027	392.5912	421.8821	471.6516	508.8924	561.1836	640.5467	645.3043	666.2897	674.8789	682.6429	686.2847	918.657	986.611	1082.3019	1103.1494	1120.5287	1141.392	1185.132	1228.351	1254.8471	1372.3688	1417.5537	1472.5544	1484.5396	1498.3049	1511.231	2224.3368	2235.0335	3011.5313	3016.2487	3073.622	3117.4907	3130.5371	3495.7917	3499.7427	3788.3859
COC(CO)(C#C)C#C	COC(CO)(C#C)C#C	
InChI=1S/C7H8O2/c1-4-7(5-2,6-8)9-3/h1-2,8H,6H2,3H3	InChI=1S/C7H8O2/c1-4-7(5-2,6-8)9-3/h1-2,8H,6H2,3H3
