23
gdb 101688	2.66314	0.92204	0.84016	2.3162	81.83	-0.2386	0.0643	0.3029	1513.5576	0.202887	-425.405856	-425.394922	-425.393978	-425.44219	40.276	
C	-1.4712112602	-0.2867744536	-0.0262490346	-0.397866
C	 0.0474321613	-0.2101746892	 0.1709025821	 0.009293
C	 0.5014007211	-1.1528680602	 1.2949118213	-0.05998
O	-0.1440197023	-0.8889379519	 2.5348679785	-0.421803
C	 0.7835059909	-0.4820346004	-1.1552729234	-0.239139
C	 2.2840984425	-0.2728644891	-1.1219506	 0.428469
O	 2.5718722261	 1.0022890012	-0.5981885871	-0.47283
C	 3.224038391	-1.4176357092	-0.8399718419	-0.31877
C	 3.1322964867	-0.8202452871	-2.2370332094	-0.34253
H	-1.8195987813	 0.4709706911	-0.7355458512	 0.105883
H	-1.7662154662	-1.2693506048	-0.415368974	 0.1063
H	-1.9875882609	-0.1388846981	 0.9249789886	 0.124029
H	 0.3093567219	 0.8107297056	 0.4811060085	 0.083495
H	 0.2382753906	-2.188466528	 1.0442423614	 0.098208
H	 1.5930250228	-1.1086264255	 1.4071311525	 0.094997
H	 0.124179147	-0.0083046645	 2.8165949394	 0.279854
H	 0.580137166	-1.5069671024	-1.4905136265	 0.092199
H	 0.3640608747	 0.183371197	-1.920708841	 0.102897
H	 3.5232086914	 1.1418046399	-0.6243202159	 0.280443
H	 4.1183797633	-1.206942048	-0.2606993985	 0.106052
H	 2.8162010763	-2.4090309303	-0.6734969518	 0.118592
H	 2.6586468923	-1.4021899595	-3.0209035675	 0.116598
H	 3.965536425	-0.2139631729	-2.5801629594	 0.105609
40.9809	87.2253	112.6833	160.9804	167.0138	230.2202	245.431	287.63	300.5001	317.4393	362.0231	413.3668	438.3472	461.1705	558.6631	741.9494	765.6864	814.1361	872.3355	889.4845	911.422	927.2959	959.8855	969.6908	985.2628	1049.6068	1062.1907	1065.9553	1093.481	1125.6018	1140.2624	1180.1498	1183.472	1188.7107	1264.558	1311.9863	1329.3025	1357.983	1382.5026	1398.02	1405.0964	1420.4298	1436.6355	1459.3666	1477.4644	1491.4375	1501.2352	1507.0851	1507.3454	3009.5391	3014.3816	3019.1977	3027.9584	3055.3822	3061.6953	3090.5226	3118.5202	3123.2803	3124.4985	3198.0492	3213.145	3812.6479	3827.4744
CC(CO)CC1(O)CC1	C[C@@H](CO)CC1(O)CC1	
InChI=1S/C7H14O2/c1-6(5-8)4-7(9)2-3-7/h6,8-9H,2-5H2,1H3	InChI=1S/C7H14O2/c1-6(5-8)4-7(9)2-3-7/h6,8-9H,2-5H2,1H3/t6-/m1/s1
