14
gdb 35157	2.52535	1.32108	1.00925	1.4107	83.09	-0.2449	-0.0053	0.2396	1169.9395	0.096742	-362.268851	-362.259794	-362.258849	-362.302401	33.86	
C	-0.1446532634	-1.1914624468	-0.0261703769	-0.413068
C	-0.0536597011	 0.0057371108	 0.0175725151	 0.396345
C	 0.0282110594	 1.4365115866	 0.0266400393	-0.314406
N	 0.5434660059	 2.0967496487	 1.2318779941	-0.340415
C	 1.3716127938	 2.1685767543	-0.0000729447	-0.034437
C	 2.6042226993	 1.4230034503	 0.0199991659	 0.312906
C	 3.6353852808	 0.8083925816	 0.0064316623	-0.423855
C	 1.4014844687	 3.4153677112	-0.724743698	 0.266631
C	 1.4114445404	 4.4666207136	-1.3077350245	-0.439584
H	-0.2139950935	-2.2508063223	-0.054820449	 0.203458
H	-0.754612882	 1.9468072553	-0.5298254291	 0.129168
H	 0.0735992886	 2.9909689498	 1.3595025649	 0.250517
H	 4.5463150848	 0.2625162467	 0.0052620818	 0.200746
H	 1.4306945983	 5.3910379103	-1.8305133211	 0.205992
97.956	109.8792	130.7926	203.8573	229.6124	260.7779	412.0429	451.5381	472.9121	566.0188	571.0228	606.8439	618.4741	627.3443	633.4271	659.9684	664.4122	669.1909	670.8877	785.1913	905.1044	976.0307	1030.7222	1069.1466	1194.1451	1228.8987	1326.5579	1415.8358	2236.5302	2246.1393	2250.457	3137.0626	3498.4709	3501.0488	3503.0258	3503.692
C#CC1NC1(C#C)C#C	C#C[C@H]1NC1(C#C)C#C	
InChI=1S/C8H5N/c1-4-7-8(5-2,6-3)9-7/h1-3,7,9H	InChI=1S/C8H5N/c1-4-7-8(5-2,6-3)9-7/h1-3,7,9H/t7-/m1/s1
