15
gdb 6684	5.61409	0.86927	0.8272	3.5231	58.71	-0.2635	-0.0482	0.2153	1317.5612	0.117511	-436.963492	-436.955016	-436.954072	-436.998141	28.641	
O	-0.5800457866	 0.0324015045	 0.6821354191	-0.359841
C	-0.323349166	 1.3391332004	 0.5114459289	 0.422312
O	 0.6050549245	 1.9011268225	 1.0212377465	-0.321813
C	-1.3147522817	 2.0379439899	-0.4336176078	-0.306174
N	-2.5505015637	 1.2663741185	-0.5824221005	-0.332561
H	-2.9272491709	 1.3786699151	-1.5163617599	 0.244125
H	-1.3884914559	-0.1448385085	 0.159146639	 0.301042
C	-3.5758444686	 1.5710759804	 0.4139949976	-0.234573
C	-4.7064221604	 0.5558626011	 0.3625167784	 0.150645
O	-5.8576197559	 0.8180432425	 0.5836024616	-0.222002
H	-1.4644648387	 3.0630184711	-0.0726080423	 0.138105
H	-0.8214291008	 2.1079850308	-1.4088397052	 0.146764
H	-3.1192201806	 1.4802975573	 1.4106836379	 0.15514
H	-3.9969660034	 2.5838015402	 0.3396863316	 0.131577
H	-4.3728412114	-0.4766882757	 0.1108865649	 0.087255
53.6609	63.1356	84.1813	115.8722	234.5394	315.2892	361.8968	500.3649	540.0632	562.7157	664.1996	731.2364	791.6993	835.0283	885.3226	958.6314	1015.9669	1079.0798	1117.2964	1141.2929	1209.3325	1234.5286	1274.0075	1341.3196	1357.7626	1402.0909	1411.6789	1471.4534	1474.9153	1491.9789	1845.0359	1883.6561	2879.3007	3001.4676	3033.7134	3044.7274	3087.6566	3537.449	3547.7024
[O-]C(=O)C[NH2+]CC=O	OC(=O)CNCC=O	
InChI=1S/C4H7NO3/c6-2-1-5-3-4(7)8/h2,5H,1,3H2,(H,7,8)	InChI=1S/C4H7NO3/c6-2-1-5-3-4(7)8/h2,5H,1,3H2,(H,7,8)
