16
gdb 79221	2.69397	1.66066	1.32751	3.3242	73.69	-0.2419	0.0043	0.2462	978.1808	0.126683	-396.863432	-396.856199	-396.855255	-396.894911	28.879	
N	-0.1064661253	 1.5169148529	-0.0361881772	-0.522748
C	-0.0653788855	 0.0881586799	-0.049442387	 0.034266
C	-1.3787338737	-0.6863426587	-0.0997519069	-0.091687
C	-1.7361127397	-0.8443323976	-1.5777771145	-0.024735
N	-0.7135451263	-0.0831058403	-2.3399812544	-0.3593
C	 0.2775139312	-0.7079847672	-1.3860094174	 0.187414
C	 1.6258318865	-0.9066855431	-1.8332500699	 0.12564
N	 2.7212136228	-1.0669519235	-2.1703829584	-0.337844
C	-0.775604311	-1.802335	-0.9403710658	-0.157883
H	 0.8226982903	 1.9133154592	 0.0598864318	 0.23507
H	-0.5017968945	 1.8485358225	-0.9122013899	 0.245894
H	 0.5655172495	-0.2871361271	 0.7597431024	 0.100342
H	-2.1248609357	-0.7711150998	 0.6788635615	 0.105875
H	-2.7489691536	-0.9818507177	-1.9301886064	 0.11218
H	-0.5973243106	-0.5450295537	-3.2417417	 0.23267
H	-0.7277358645	-2.8732927557	-0.8049213579	 0.114847
127.7865	165.8238	244.3614	302.187	370.7843	476.4612	504.4139	540.9749	592.1926	636.7763	729.5187	762.3937	782.9332	811.2941	861.4032	872.1892	931.3302	946.4954	960.955	984.2214	1012.3874	1043.7197	1057.7592	1124.7289	1160.6064	1175.8029	1200.5476	1241.4801	1250.0136	1295.2435	1330.7098	1383.3274	1437.9385	1662.7084	2345.0593	3092.5159	3209.9311	3212.9772	3228.15	3464.8502	3492.6293	3580.0298
NC1C2C3NC1(C#N)C23	N[C@H]1[C@H]2[C@H]3N[C@]1(C#N)[C@@H]23	
InChI=1S/C6H7N3/c7-1-6-3-2(5(6)8)4(3)9-6/h2-5,9H,8H2	InChI=1S/C6H7N3/c7-1-6-3-2(5(6)8)4(3)9-6/h2-5,9H,8H2/t2-,3+,4-,5+,6-/m1/s1
