20
gdb 58577	2.5536	1.43851	1.24183	1.1546	74.67	-0.253	0.0157	0.2687	1111.6752	0.170717	-440.306277	-440.29716	-440.296216	-440.339862	34.663	
C	 0.0720958409	 1.5321061682	-0.0139418929	-0.417138
C	-0.0334099156	 0.0097843816	 0.0874931494	 0.101576
O	 0.5654782284	-0.4632917692	 1.2871716738	-0.442188
C	-1.4833316514	-0.530833139	-0.0184948722	 0.271333
C	-2.2058161779	-0.0291679285	-1.2733964523	-0.443749
C	-1.5001775713	-2.0854811305	 0.0828299481	-0.151692
O	-2.3710277891	-2.3665133075	 1.2091712343	-0.216085
C	-2.6549028454	-1.1634738739	 1.7432631836	 0.111799
N	-2.2331590576	-0.1018100394	 1.1908897444	-0.311742
H	 1.1025162681	 1.8324163597	 0.1928442227	 0.121792
H	-0.1963403789	 1.8953235788	-1.0099084226	 0.11494
H	-0.5875944345	 2.011917353	 0.7155943206	 0.134406
H	 0.5524087977	-0.4486387024	-0.719901562	 0.083912
H	 0.0230166226	-0.1228557874	 2.0102941861	 0.283221
H	-1.6241675965	-0.2534567691	-2.1748155057	 0.114052
H	-3.1816571807	-0.5150664331	-1.3684015033	 0.120284
H	-2.3729164979	 1.0486196399	-1.2246911185	 0.134978
H	-1.9215693138	-2.575604958	-0.7978096234	 0.113966
H	-0.5163327912	-2.5005828212	 0.3116793335	 0.134426
H	-3.260870366	-1.2050443418	 2.6426570762	 0.14191
76.7927	103.5006	215.143	231.0054	253.131	272.2936	334.9599	353.5691	384.5619	414.3262	478.8893	502.9936	602.2112	657.6064	786.3549	857.6652	869.6766	930.1691	944.7211	964.389	969.5008	973.3751	1028.427	1087.8728	1106.8947	1139.5266	1161.9755	1206.2243	1227.0309	1260.0592	1302.4309	1325.0692	1357.8076	1385.0081	1400.8173	1409.5155	1427.8451	1485.1664	1491.661	1500.358	1501.8922	1509.4134	1692.7841	3026.764	3035.1107	3044.675	3067.3311	3101.7578	3118.2391	3122.8377	3124.2399	3133.3593	3206.2198	3770.7648
CC(O)C1(C)COC=N1	C[C@@H](O)[C@@]1(C)COC=N1	
InChI=1S/C6H11NO2/c1-5(8)6(2)3-9-4-7-6/h4-5,8H,3H2,1-2H3	InChI=1S/C6H11NO2/c1-5(8)6(2)3-9-4-7-6/h4-5,8H,3H2,1-2H3/t5-,6-/m1/s1
