20
gdb 91934	2.15986	1.73663	1.547	1.9497	73.57	-0.2368	0.071	0.3078	1004.5425	0.171588	-440.274768	-440.266318	-440.265374	-440.306968	34.21	
C	-0.0124850161	 1.559001961	 0.0068742556	-0.444247
C	 0.0633568668	 0.0371609638	 0.0204669755	 0.363951
O	-1.2423632135	-0.5481963923	-0.0462054581	-0.477289
C	 0.7989317594	-0.5761895756	-1.1627637916	-0.046532
N	 2.2703970215	-0.5431721734	-1.0010373585	-0.371163
C	 1.5150214641	-1.7883031444	-0.7031833205	-0.028474
C	 1.2660805494	-1.9672661401	 0.7826236241	-0.23851
C	 0.8293548711	-0.5546406097	 1.2536088328	 0.060633
O	 1.9250928358	 0.2395626417	 1.6623455581	-0.438212
H	 0.9842349038	 2.0025693862	-0.0003936201	 0.132599
H	-0.5660252666	 1.8991229983	-0.8738305928	 0.112232
H	-0.5267257404	 1.9290659893	 0.9019098016	 0.108063
H	-1.7788274141	-0.136215985	 0.6395014291	 0.278119
H	 0.3669827298	-0.4880523537	-2.1539508566	 0.090107
H	 2.7159036909	-0.6133215921	-1.9112043351	 0.237737
H	 1.659718371	-2.6452030538	-1.3522914816	 0.0888
H	 0.4584639699	-2.6918128183	 0.9264029442	 0.111494
H	 2.1443544392	-2.3034433867	 1.3403573969	 0.105847
H	 0.1506330222	-0.6047034925	 2.11090916	 0.06639
H	 2.5246927256	 0.2449403473	 0.8991581071	 0.288453
140.8795	212.0895	227.045	247.2347	285.9873	340.6624	346.7343	372.205	447.8514	461.0694	529.3553	598.6484	632.503	722.9422	806.4835	819.6654	865.1378	885.1434	901.275	931.3133	939.7107	985.8857	1020.8801	1051.9731	1104.0616	1109.9603	1119.6173	1134.3803	1173.0945	1203.0587	1212.9542	1254.2963	1263.2491	1300.191	1318.0846	1348.2881	1402.1902	1407.3026	1434.2848	1462.704	1472.9075	1489.2846	1492.3032	3032.1469	3052.7517	3064.423	3096.8128	3107.6667	3142.4259	3165.5963	3176.4063	3518.327	3677.9599	3808.8952
CC1(O)C2NC2CC1O	C[C@@]1(O)[C@H]2N[C@H]2C[C@H]1O	
InChI=1S/C6H11NO2/c1-6(9)4(8)2-3-5(6)7-3/h3-5,7-9H,2H2,1H3	InChI=1S/C6H11NO2/c1-6(9)4(8)2-3-5(6)7-3/h3-5,7-9H,2H2,1H3/t3-,4+,5-,6-/m0/s1
