21
gdb 82925	2.47684	1.77412	1.37945	0.9606	81.14	-0.2256	0.0821	0.3078	1034.7498	0.184025	-383.230305	-383.222036	-383.221092	-383.262496	32.966	
C	 1.1050693467	 2.6230386966	-0.1823381982	-0.319958
N	 0.8852978155	 1.1995826839	-0.3888831574	-0.0943
C	 1.9881636627	 0.2451082053	-0.3925027584	-0.03434
C	 3.3413216408	 0.6458359615	 0.2018192098	-0.279532
C	 3.0766672525	 0.812220291	 1.6950202275	-0.053546
N	 2.652205743	-0.3774253734	 2.4500459234	-0.386605
C	 1.6304418934	 0.5895744064	 1.9978255526	 0.335795
C	 0.8516163049	 1.2893148227	 3.08343359	-0.473409
C	 0.9545018946	 0.2261742146	 0.6967344567	-0.123592
H	 1.8643324533	 2.885523446	 0.5668012521	 0.112389
H	 1.4000020949	 3.0703781907	-1.1371464693	 0.121712
H	 0.1579878249	 3.0810319878	 0.120220232	 0.125216
H	 1.9763002829	-0.4626211589	-1.217352603	 0.08939
H	 4.0932809094	-0.1287807357	 0.0090816745	 0.105783
H	 3.7268646003	 1.5724609409	-0.2400711259	 0.10811
H	 3.6778832488	 1.5181541608	 2.2616561804	 0.088553
H	 2.6602603828	-1.1996738911	 1.8482461518	 0.2242
H	 1.4909376733	 1.4774898597	 3.9494331041	 0.129086
H	 0.4447339699	 2.2428484717	 2.731544963	 0.117975
H	 0.011063338	 0.6699120745	 3.4167772358	 0.12042
H	 0.1353762773	-0.4915178647	 0.7269129785	 0.086654
164.4882	167.6505	199.0759	204.5795	281.0556	301.088	352.3336	443.588	483.7276	528.9904	577.3108	727.6019	740.0916	764.3068	819.0751	840.8869	883.7884	924.8435	965.9422	971.2892	1022.9193	1040.9013	1075.716	1083.1875	1112.5878	1118.0758	1126.426	1158.2632	1169.559	1188.8653	1234.0748	1283.313	1298.0064	1314.0565	1321.2297	1346.7324	1390.4447	1411.3981	1432.4611	1453.3977	1486.5623	1488.0152	1494.0084	1496.9407	1508.0072	3004.5025	3029.5834	3033.7231	3061.0806	3072.2141	3094.2051	3099.3596	3109.3762	3123.5405	3138.39	3144.848	3469.9995
CN1C2CC3NC3(C)C12	CN1[C@H]2C[C@@H]3N[C@]3(C)[C@@H]12	
InChI=1S/C7H12N2/c1-7-5(8-7)3-4-6(7)9(4)2/h4-6,8H,3H2,1-2H3	InChI=1S/C7H12N2/c1-7-5(8-7)3-4-6(7)9(4)2/h4-6,8H,3H2,1-2H3/t4-,5-,6-,7-,9?/m0/s1
