19
gdb 86450	2.00168	1.65962	0.95913	5.7884	73.04	-0.2739	0.044	0.3179	1240.7253	0.158677	-460.227421	-460.218503	-460.217559	-460.261437	32.913	
C	-0.0083406191	 1.5185019097	 0.1348066889	-0.402272
C	-0.0408257573	 0.017281534	-0.0981435541	 0.136008
C	 0.8306903305	-0.4629173152	-1.2458981871	-0.23687
C	 0.8215506963	-1.9819107704	-1.2536953638	 0.136097
C	 1.7764689953	-2.6144685184	-2.252213108	-0.402221
O	 1.2000867643	-2.4835195467	 0.0475197418	-0.27131
C	 0.9513083469	-1.8234938808	 1.1991128212	 0.468879
O	 1.2437454362	-2.3059754215	 2.2521944613	-0.363175
O	 0.3897228399	-0.5969233356	 1.1368743255	-0.271198
H	 1.0163720423	 1.8576662798	 0.3125347017	 0.132232
H	-0.406610433	 2.0447620439	-0.7379587994	 0.120451
H	-0.6136372265	 1.7803008256	 1.0060549461	 0.139849
H	-1.077494275	-0.3037101954	-0.2740437176	 0.093275
H	 0.445346873	-0.0801256804	-2.1960496952	 0.116672
H	 1.8555784258	-0.0923958831	-1.1217059708	 0.117772
H	-0.2008104639	-2.3350143666	-1.4504915669	 0.093298
H	 2.8007117721	-2.2747916562	-2.0727629976	 0.132208
H	 1.7538491086	-3.7031389182	-2.1612004598	 0.139861
H	 1.4897533137	-2.3433679445	-3.2728001463	 0.120445
60.0021	111.9515	148.276	227.6637	229.6984	259.3585	308.4118	416.6284	463.5878	468.4737	484.6833	566.2247	649.6369	766.5718	804.6241	888.63	890.9114	932.8614	976.5824	1002.6209	1048.0736	1060.784	1138.7286	1158.6796	1169.3348	1203.8143	1203.9484	1257.0275	1301.8695	1374.6163	1392.1338	1392.6907	1411.7939	1414.369	1416.8692	1472.3609	1483.7815	1485.4422	1497.9526	1499.2362	1874.9522	3000.0633	3006.6535	3038.6688	3045.8627	3047.2602	3094.7275	3120.6051	3121.5624	3129.9177	3130.1272
CC1CC(C)OC(=O)O1	C[C@H]1C[C@@H](C)OC(=O)O1	
InChI=1S/C6H10O3/c1-4-3-5(2)9-6(7)8-4/h4-5H,3H2,1-2H3	InChI=1S/C6H10O3/c1-4-3-5(2)9-6(7)8-4/h4-5H,3H2,1-2H3/t4-,5+
