23
gdb 118101	2.88285	0.92643	0.80868	1.169	82.35	-0.25	0.0855	0.3355	1544.2532	0.202409	-425.400808	-425.38984	-425.388896	-425.437526	39.132	
C	-0.0515481748	 1.2602432174	 0.9854321652	-0.226704
O	-0.1697064608	 0.1070160837	 0.189630196	-0.236113
C	-1.3032564473	-0.6719508282	 0.5180902774	-0.067805
C	-1.3204719606	-1.8888048662	-0.4111944676	-0.081491
C	-0.0658480713	-2.7553111391	-0.2156852162	-0.396458
C	-2.5989933613	-2.71912479	-0.2802884113	 0.414042
C	-2.9390732582	-3.5771906878	-1.4807528495	-0.459721
C	-3.1193239994	-3.113721883	 1.0390710294	-0.228928
O	-3.74024573	-2.0585118479	 0.2976993441	-0.27591
H	 0.8397881462	 1.7986178719	 0.6534590656	 0.124618
H	-0.9263826887	 1.921538564	 0.8806568392	 0.104796
H	 0.0608022017	 1.0119940772	 2.0532518378	 0.101629
H	-1.2493247797	-0.9835370697	 1.5759575783	 0.078728
H	-2.2250481992	-0.0874562674	 0.3962753401	 0.108513
H	-1.2986509356	-1.4859554765	-1.4331393909	 0.084979
H	-0.0124408467	-3.566168332	-0.9478789934	 0.111662
H	 0.8296134499	-2.1396695157	-0.3213430655	 0.137352
H	-0.0552884407	-3.2043746871	 0.7840899119	 0.109471
H	-2.1442535617	-4.2990345919	-1.6932231363	 0.124714
H	-3.868402138	-4.1255999015	-1.3089078163	 0.124982
H	-3.0705732536	-2.9513585959	-2.3701335778	 0.126622
H	-3.7069514126	-4.0269051752	 1.1312471678	 0.109509
H	-2.6113291978	-2.8059667289	 1.9516079121	 0.111513
37.5292	83.4741	96.1039	144.4321	175.0199	209.0563	231.5329	248.49	294.306	311.963	346.3772	377.6	476.9223	491.2626	529.6037	720.3358	827.8301	875.6367	917.5501	933.6143	941.8069	990.2007	1017.8763	1055.8613	1094.2402	1135.8865	1147.7262	1154.2127	1167.2334	1171.091	1189.6959	1218.3355	1241.8032	1276.5004	1341.8371	1359.7741	1396.2453	1401.9977	1414.6635	1429.3811	1480.2469	1482.7567	1484.1114	1493.7105	1495.559	1504.4059	1506.1384	1527.8736	1533.384	2949.475	2968.5756	3010.1506	3013.3117	3032.0352	3036.8563	3038.6075	3079.9948	3100.0374	3104.4707	3110.6414	3124.0611	3133.113	3162.9368
COCC(C)C1(C)CO1	COC[C@@H](C)[C@@]1(C)CO1	
InChI=1S/C7H14O2/c1-6(4-8-3)7(2)5-9-7/h6H,4-5H2,1-3H3	InChI=1S/C7H14O2/c1-6(4-8-3)7(2)5-9-7/h6H,4-5H2,1-3H3/t6-,7-/m1/s1
