22
gdb 6474	3.20699	1.47581	1.26384	1.447	78.21	-0.2382	0.0812	0.3193	1109.5353	0.198527	-350.210711	-350.201326	-350.200381	-350.244573	35.16	
C	 0.3432473777	 1.4057353314	-0.219252552	-0.388984
C	 0.1005305937	-0.0788476474	 0.0709625235	-0.215405
C	 0.6245998047	-0.5413495266	 1.4323749784	 0.453419
C	-0.0637127371	 0.1418039157	 2.6102817184	-0.436583
C	 0.7952642772	-2.0742286033	 1.593020209	-0.362707
C	 2.2914186946	-1.757618133	 1.7984428489	 0.175638
C	 3.3035976769	-2.3901778055	 0.8638969103	-0.399626
O	 2.0721144334	-0.3552236115	 1.5149924708	-0.343947
H	 1.4023533674	 1.6461731573	-0.0896017677	 0.136892
H	 0.0608435476	 1.6500880466	-1.2476826406	 0.109
H	-0.2365224076	 2.0547637552	 0.4438751928	 0.114277
H	-0.9708725896	-0.3129477886	 0.0108647057	 0.090894
H	 0.5960127388	-0.6792490424	-0.7007539185	 0.092466
H	-1.1448981884	-0.0353628843	 2.5862377384	 0.110749
H	 0.3254977465	-0.2425793674	 3.5575891321	 0.114316
H	 0.1094643077	 1.2212462523	 2.5916034929	 0.126019
H	 0.2747408503	-2.5285110809	 2.438063352	 0.100407
H	 0.579717545	-2.6454584496	 0.6865197373	 0.099418
H	 2.6184801759	-1.8862754626	 2.8404427659	 0.068973
H	 2.9823248529	-2.3007626468	-0.1785496353	 0.116738
H	 4.2763044673	-1.8982398274	 0.9656239392	 0.125265
H	 3.431917255	-3.4525873513	 1.1000341283	 0.11278
56.5121	94.8145	199.091	211.6527	236.2885	245.3742	294.5749	329.8859	380.4415	385.3118	458.2934	494.1887	637.7895	770.6243	785.7963	873.6301	894.0639	898.0936	926.9672	941.6359	979.6074	1000.3566	1051.2827	1068.2283	1089.4493	1115.6704	1174.371	1199.4287	1219.1473	1256.0536	1273.6193	1313.3117	1328.1866	1372.3316	1391.9497	1405.2443	1408.1664	1409.9565	1471.5359	1482.451	1486.4621	1490.8123	1492.4491	1498.1102	1507.207	1512.3426	2990.869	3018.558	3030.6758	3035.3876	3042.7848	3058.5766	3066.4961	3102.4441	3103.9397	3107.3134	3109.9202	3118.4804	3121.5882	3123.5351
CCC1(C)CC(C)O1	CC[C@@]1(C)C[C@@H](C)O1	
InChI=1S/C7H14O/c1-4-7(3)5-6(2)8-7/h6H,4-5H2,1-3H3	InChI=1S/C7H14O/c1-4-7(3)5-6(2)8-7/h6H,4-5H2,1-3H3/t6-,7+/m1/s1
