19
gdb 36036	2.51349	1.24488	0.99432	1.2197	80.26	-0.2595	0.0469	0.3064	1254.0494	0.157259	-385.822263	-385.813198	-385.812253	-385.856441	34.225	
C	-0.4545206648	-0.3027825886	 1.5680416931	-0.46052
C	-0.1466014814	 0.2177047727	 0.5293218577	 0.311535
C	 0.2470785167	 0.8594184829	-0.7195698702	-0.421238
C	 1.4389840011	 1.8036897503	-0.5547902219	 0.387674
C	 2.7941265821	 1.2727916148	-0.7525174337	-0.217855
O	 2.1463057701	 2.0482124186	-1.7731385555	-0.278852
C	 1.1954108577	 3.0057517514	 0.310131235	-0.064593
C	 2.038117697	 4.2419982869	 0.1606043463	-0.276718
C	 0.6033862255	 4.2521469867	-0.3051089417	-0.264828
H	-0.7327034054	-0.769302011	 2.4805070617	 0.198212
H	 0.5036555142	 0.1036035673	-1.4700764752	 0.137491
H	-0.597359675	 1.431478651	-1.1248961591	 0.139342
H	 3.6343986959	 1.7628175241	-0.2651176492	 0.117978
H	 2.9368697141	 0.2200977637	-0.9916712108	 0.115963
H	 0.8573435918	 2.7519927591	 1.3100452826	 0.102416
H	 2.2988329033	 4.7930355378	 1.0570860438	 0.110038
H	 2.7997725233	 4.2322743885	-0.6106357842	 0.127836
H	 0.4364632719	 4.2485549416	-1.3768399352	 0.123569
H	-0.129715478	 4.8093220624	 0.2669683264	 0.112549
56.9864	91.2013	127.1707	204.7606	236.1418	326.3111	349.6104	368.2872	429.9908	480.1751	597.4217	625.4023	647.5502	681.0118	794.5168	831.1488	857.7337	870.2496	903.872	944.5985	960.1138	972.5213	1021.2059	1062.5708	1092.6974	1103.9061	1128.165	1141.436	1165.9012	1183.8676	1203.4551	1226.3806	1242.5251	1323.6647	1389.2258	1430.966	1459.4245	1466.9718	1500.677	1527.3292	2238.8397	3028.3116	3070.4392	3090.0617	3135.6648	3140.3482	3160.8093	3180.5089	3218.3288	3233.4445	3504.7191
C#CCC1(CO1)C1CC1	C#CC[C@]1(CO1)C1CC1	
InChI=1S/C8H10O/c1-2-5-8(6-9-8)7-3-4-7/h1,7H,3-6H2	InChI=1S/C8H10O/c1-2-5-8(6-9-8)7-3-4-7/h1,7H,3-6H2/t8-/m0/s1
