17
gdb 22896	2.30246	1.58216	1.06584	2.8352	74.82	-0.2509	-0.044	0.2069	1135.7012	0.136074	-455.118019	-455.109484	-455.10854	-455.151458	31.677	
C	 0.250091716	 1.5978776734	 0.037552419	-0.39734
C	 0.0056224641	 0.0805067108	 0.0735491354	-0.081482
C	 0.6356146714	-0.6534649396	-1.1237682846	-0.105526
O	 1.9373522298	-1.0871557825	-0.688551069	-0.248824
C	 1.9884855764	-1.1801251122	 0.6783093251	 0.36075
N	 2.958684173	-1.6727629658	 1.3229694864	-0.521365
C	 0.7410926445	-0.5788013363	 1.2207458606	 0.297698
N	 0.2599789011	-0.5493607223	 2.4027753603	-0.222644
O	 1.0399685823	-1.1744411051	 3.352839143	-0.344884
H	 1.3182778267	 1.8213276728	-0.0526535007	 0.131924
H	-0.2668817826	 2.0525650937	-0.8136842027	 0.117728
H	-0.1175914263	 2.06217187	 0.9562238747	 0.136348
H	-1.0673891514	-0.1149292002	 0.1372918661	 0.103293
H	 0.0513012092	-1.5337116092	-1.4171614332	 0.116349
H	 0.7762147083	-0.0148520176	-1.9989615783	 0.120683
H	 3.6733701285	-2.0038338091	 0.6703467235	 0.225025
H	 0.5136725791	-1.0648053009	 4.1536332845	 0.312269
58.7783	144.3574	168.3053	223.1074	256.0135	312.9704	328.6944	424.8794	451.6358	508.4511	521.7604	664.8723	721.5685	741.3399	784.0067	870.4619	895.4879	959.1343	974.5026	1016.1195	1042.5616	1057.5855	1108.5628	1154.0143	1203.5277	1244.1596	1279.9658	1301.1023	1346.3965	1392.1434	1406.783	1433.7151	1495.1459	1498.991	1521.3925	1731.2603	1746.4515	3032.4159	3036.2635	3081.1617	3102.8394	3108.533	3123.4296	3457.9241	3796.6389
CC1COC(=N)C1=NO	C[C@H]1CO[C]([NH])C1=NO	
InChI=1S/C5H8N2O2/c1-3-2-9-5(6)4(3)7-8/h3,6,8H,2H2,1H3	InChI=1S/C5H8N2O2/c1-3-2-9-5(6)4(3)7-8/h3,6,8H,2H2,1H3/t3-/m0/s1
