12
gdb 43606	2.42465	1.45428	1.05867	2.4273	66.36	-0.3159	-0.0621	0.2538	1081.8616	0.076639	-431.667173	-431.659324	-431.65838	-431.700054	27.993	
N	 0.0148944429	 1.1016831044	 0.7785944075	-0.513515
C	-0.0326108112	 0.0297518768	 0.1502537806	 0.454015
C	-1.133174527	-0.9175794802	-0.2729040544	-0.399339
C	 0.0437843366	-1.7346555517	-0.903302695	 0.131001
O	 0.9892820921	-0.7330755122	-0.4286869395	-0.253552
C	 0.2965773275	-3.0447282496	-0.2974836171	 0.28438
N	 0.4720977546	-4.0700675242	 0.2029154009	-0.300816
C	 0.0383409181	-1.8207003932	-2.3661010489	 0.28438
N	 0.0074606943	-1.8677123004	-3.5190813293	-0.300816
H	 0.9625495293	 1.4670719675	 0.8764984578	 0.253269
H	-1.653982395	-1.4247954929	 0.5386734611	 0.180496
H	-1.8453366121	-0.5178140242	-0.9941387839	 0.180496
76.8125	128.8601	178.0991	192.2009	272.4621	422.2559	478.638	485.2823	519.0344	521.6668	589.4261	614.3432	787.8494	862.4702	894.6695	937.2108	952.2604	1005.3143	1073.4401	1104.6	1215.9167	1230.7684	1255.6429	1455.4755	1863.9352	2369.454	2371.4893	3107.9969	3172.6861	3500.1666
N=C1CC(O1)(C#N)C#N	[NH][C]1CC(O1)(C#N)C#N	
InChI=1S/C5H3N3O/c6-2-5(3-7)1-4(8)9-5/h8H,1H2	InChI=1S/C5H3N3O/c6-2-5(3-7)1-4(8)9-5/h8H,1H2
