20
gdb 18292	3.0832	1.95294	1.67761	1.3781	73.94	-0.2235	0.0784	0.3019	895.8811	0.178666	-348.993795	-348.985891	-348.984947	-349.02732	29.689	
C	-0.3927174314	 1.4439730334	 0.2327764323	-0.408329
C	-0.0457260438	-0.0173610169	 0.0650848757	-0.049224
C	 0.579123677	-0.5835562114	-1.2045269012	-0.081567
C	 1.0362678633	 0.2823764178	-2.3717035339	-0.231638
C	 2.558563292	 0.4621531818	-2.2932271503	-0.210339
C	 2.9372950598	 1.0966479553	-0.9601350054	-0.046945
O	 2.4462662649	 0.4102969573	 0.192356985	-0.26767
C	 1.3869611681	-0.495573445	 0.0683531336	 0.096447
H	 0.3878029309	 2.1034356318	-0.1521540938	 0.12434
H	-1.3284449073	 1.694652876	-0.2798560907	 0.112859
H	-0.5186999876	 1.6852326732	 1.2935092673	 0.120379
H	-0.7479285596	-0.6911506419	 0.5506090927	 0.078602
H	 0.2516003635	-1.5810592418	-1.4816438004	 0.083603
H	 0.7520090608	-0.1876163518	-3.317443979	 0.099005
H	 0.5518921821	 1.2660679418	-2.3579237313	 0.101073
H	 3.0504363827	-0.5124888335	-2.3983232795	 0.103354
H	 2.9289636543	 1.1046985447	-3.0997442261	 0.095529
H	 4.0261220653	 1.1426940935	-0.8442703226	 0.101897
H	 2.5651161537	 2.1337838406	-0.9418525047	 0.090436
H	 1.6156024013	-1.4149643749	 0.6014350221	 0.088189
16.4942	113.654	176.8848	215.2652	305.5998	423.7528	456.9964	499.1444	569.3384	681.0544	745.227	760.871	804.6399	881.14	886.7239	926.136	968.2774	972.0785	1027.674	1071.1965	1073.3512	1085.6468	1120.9843	1143.6208	1159.5788	1185.2646	1221.3871	1236.1815	1273.2899	1296.5303	1343.4348	1370.3102	1371.8333	1381.6244	1416.0411	1421.1177	1442.6395	1480.9861	1485.5207	1497.1596	1501.7536	1519.6836	2969.1013	3029.1692	3032.6732	3035.9075	3053.0625	3075.6403	3082.9632	3089.3624	3117.4847	3127.3064	3133.3557	3149.1609
CC1C2CCCOC12	C[C@H]1[C@H]2CCCO[C@@H]12	
InChI=1S/C7H12O/c1-5-6-3-2-4-8-7(5)6/h5-7H,2-4H2,1H3	InChI=1S/C7H12O/c1-5-6-3-2-4-8-7(5)6/h5-7H,2-4H2,1H3/t5-,6+,7-/m0/s1
