19
gdb 62969	2.29885	1.57938	1.29348	2.6544	79.11	-0.2536	0.0191	0.2727	1075.361	0.158684	-382.047926	-382.039182	-382.038238	-382.080874	33.52	
C	-0.1947671045	 1.5978095118	 0.0701097518	-0.446492
C	-0.0093762643	 0.0892964321	 0.0152928535	 0.316465
C	-1.3441748701	-0.6245943069	-0.1620697921	-0.426718
C	 1.0842827258	-0.5048332907	-0.9676231932	-0.236972
C	 1.876923458	 0.4001631102	-1.7848516242	 0.289195
N	 2.497370806	 1.1476227654	-2.4128389653	-0.34088
C	 1.7470229855	-1.0829797827	 0.287197569	-0.027955
C	 2.0697346634	-0.0292205986	 1.2624974093	-0.254081
N	 0.6852860176	-0.5336097364	 1.2134975412	-0.146082
H	 0.7481962678	 2.1459775174	 0.1154566832	 0.13496
H	-0.7303592044	 1.9462292113	-0.8184466549	 0.131551
H	-0.7889312894	 1.8589475786	 0.9517003556	 0.13119
H	-1.8136408097	-0.3407610095	-1.1095173552	 0.120166
H	-1.2117660162	-1.7102754016	-0.145968915	 0.123496
H	-2.0202442468	-0.3589743181	 0.6560517127	 0.130638
H	 0.6493101681	-1.274968585	-1.6079298863	 0.125583
H	 2.1112587697	-2.1014529892	 0.3632355457	 0.110177
H	 2.5867816292	-0.3337337588	 2.1668034721	 0.131975
H	 2.3072682044	 0.9747483407	 0.9247765321	 0.133784
109.7861	135.4331	175.3942	240.2302	260.1829	269.6713	358.7336	368.068	404.4252	489.5867	542.0356	562.8311	643.209	761.3818	782.8488	796.829	888.0866	947.5046	949.7146	979.5021	1010.1345	1011.3976	1056.8491	1071.7054	1115.4318	1128.4042	1155.9002	1186.2615	1232.8134	1243.9958	1278.9402	1337.6199	1366.0034	1403.3127	1418.8669	1475.5171	1479.0328	1494.2899	1503.5296	1513.1202	2348.4026	3036.4657	3044.8836	3092.9986	3108.8862	3114.3438	3116.5723	3124.2274	3132.4924	3173.3832	3212.9507
CC1(C)C(C#N)C2CN12	CC1(C)[C@@H](C#N)[C@H]2CN12	
InChI=1S/C7H10N2/c1-7(2)5(3-8)6-4-9(6)7/h5-6H,4H2,1-2H3	InChI=1S/C7H10N2/c1-7(2)5(3-8)6-4-9(6)7/h5-6H,4H2,1-2H3/t5-,6+,9?/m0/s1
