24
gdb 88663	3.89995	0.86263	0.77782	1.1737	91.32	-0.2188	0.0827	0.3015	1594.6714	0.216767	-368.379516	-368.369735	-368.368791	-368.414569	37.176	
C	 0.0418621916	 1.5290830123	-0.4905598281	-0.413774
C	 0.0016659054	 0.0577137321	-0.1362136674	 0.030924
C	 1.2374982782	-0.7752532626	-0.1275585129	-0.258032
N	 0.5283777222	-0.4913780837	 1.1193695412	-0.08656
C	 1.1747355003	 0.3789535765	 2.0811790563	 0.082674
C	 0.2645753294	 1.0072250624	 3.1669230901	-0.255373
C	 1.3663313038	 0.6942269754	 4.2195995061	 0.055707
C	 0.9510407957	 0.2137933333	 5.6012584273	-0.403888
C	 1.962411119	-0.3314772407	 3.2125144234	-0.253275
H	 1.0080839462	 1.9884072273	-0.2694842149	 0.121281
H	-0.1454431638	 1.6560159345	-1.5622449888	 0.12067
H	-0.7317351359	 2.0874665444	 0.0481136448	 0.124193
H	-0.9242004747	-0.4325058132	-0.4359291711	 0.086952
H	 1.2254463737	-1.8094412207	-0.4625870532	 0.109421
H	 2.1794330099	-0.2550898879	-0.3039050984	 0.101972
H	 1.8061457116	 1.1507989747	 1.6144561649	 0.050497
H	-0.0525215948	 2.0454284315	 3.0379522326	 0.088374
H	-0.618594018	 0.3787925864	 3.3200177385	 0.103749
H	 2.0403276342	 1.5534573909	 4.3149420706	 0.066783
H	 0.2769309702	-0.6473084214	 5.5301270058	 0.112618
H	 1.8201774292	-0.0914760596	 6.1951988701	 0.111486
H	 0.4290822797	 1.0010912039	 6.1572504727	 0.111096
H	 1.551142559	-1.3321577503	 3.3773257232	 0.104139
H	 3.049450038	-0.3999198957	 3.1212435774	 0.088366
46.9963	75.0692	138.9808	202.1531	210.998	236.5382	299.7874	358.1286	381.5602	398.6902	419.7669	531.5403	588.8442	737.1388	778.9929	815.6718	854.3036	892.1448	907.9057	924.5371	953.4619	964.2685	987.1	1029.6443	1058.2177	1079.4348	1113.5541	1122.2356	1140.7977	1142.1173	1150.2683	1188.6785	1197.8515	1226.2246	1242.4769	1264.6881	1269.4302	1304.4854	1335.5177	1366.6778	1387.6299	1403.4974	1410.5748	1420.7474	1472.0207	1493.5916	1494.4172	1497.263	1497.4815	1501.4221	1510.2659	2968.7116	3021.1853	3032.4012	3035.9251	3048.1744	3053.8284	3081.1485	3087.0785	3091.0269	3092.5058	3099.7178	3105.2797	3111.0913	3127.893	3168.0395
CC1CN1C1CC(C)C1	C[C@H]1CN1[C@H]1C[C@@H](C)C1	
InChI=1S/C8H15N/c1-6-3-8(4-6)9-5-7(9)2/h6-8H,3-5H2,1-2H3	InChI=1S/C8H15N/c1-6-3-8(4-6)9-5-7(9)2/h6-8H,3-5H2,1-2H3/t6-,7-,8+,9?/m0/s1
