23
gdb 73833	2.28846	1.60489	1.07408	0.1253	92.79	-0.2065	0.0336	0.2401	1226.6434	0.20691	-351.174062	-351.16498	-351.164036	-351.207377	35.613	
C	 0.1131037038	 1.5717060278	-0.0415281304	-0.485333
C	 0.006339117	 0.0726259029	 0.0653845017	 0.195635
C	-1.1331789999	-0.6363813529	-0.0108733185	 0.242601
C	-2.5143942841	-0.0556676504	-0.1833081445	-0.495405
C	-1.1206643559	-2.1297578366	 0.0531576806	-0.092328
C	-0.2764091432	-2.9335160981	-0.9278239177	-0.295632
C	 0.1303317284	-2.8385276366	 0.5165551885	-0.022933
C	 1.2768123818	-1.9635109699	 0.9758875502	-0.222246
C	 1.345927217	-0.6246477156	 0.2239977489	-0.303527
H	 0.8102583074	 1.8515853122	-0.84312631	 0.118623
H	-0.8356786544	 2.069593912	-0.2440791976	 0.117679
H	 0.5247986527	 1.9993902213	 0.8827163668	 0.119053
H	-2.5311481677	 1.0334771647	-0.2270853534	 0.11816
H	-2.9813304428	-0.4364610531	-1.1010916493	 0.12383
H	-3.1668724736	-0.3647659967	 0.6439896806	 0.120728
H	-2.0717990752	-2.5768110993	 0.3280332869	 0.072109
H	-0.6727111432	-3.8779611678	-1.2854942777	 0.105186
H	 0.2824927634	-2.3751695451	-1.670762128	 0.11351
H	-0.0221182497	-3.735274623	 1.1108156687	 0.078757
H	 1.1397565361	-1.7601728755	 2.0459638768	 0.098284
H	 2.2330984744	-2.4913029102	 0.8786834621	 0.093431
H	 1.7963644251	-0.7780202012	-0.7677080092	 0.105975
H	 2.0413092924	 0.0419600711	 0.7491273644	 0.093843
123.5262	137.7195	142.0671	157.4276	268.4181	316.4846	348.9245	363.8872	383.9551	481.2202	496.3789	578.57	667.9118	677.3511	759.3464	825.6914	852.3567	879.5809	921.9428	944.0589	992.8838	1014.5287	1024.5038	1051.2647	1062.8325	1064.5587	1085.4133	1119.3501	1132.3236	1152.4124	1171.5195	1219.7111	1222.7572	1248.669	1272.1482	1348.7281	1381.1571	1391.856	1402.5177	1421.1653	1425.196	1477.309	1481.8426	1485.2661	1486.6729	1489.9427	1500.0765	1504.0729	1731.2585	2996.402	3009.3115	3015.676	3016.1241	3040.3833	3047.196	3054.3359	3055.2541	3126.7369	3131.0663	3134.8477	3143.3004	3145.9685	3217.4392
CC1=C(C)C2CC2CC1	CC1=C(C)[C@H]2C[C@H]2CC1	
InChI=1S/C9H14/c1-6-3-4-8-5-9(8)7(6)2/h8-9H,3-5H2,1-2H3	InChI=1S/C9H14/c1-6-3-4-8-5-9(8)7(6)2/h8-9H,3-5H2,1-2H3/t8-,9-/m1/s1
