21
gdb 122325	5.6743	0.70639	0.64272	1.563	81.52	-0.2121	0.0645	0.2766	1799.4807	0.183929	-420.431358	-420.421846	-420.420902	-420.466766	34.058	
C	-0.0117495801	 1.4602348767	 0.1314196338	-0.383056
C	-0.0005637696	-0.0607575384	-0.0446780367	-0.189813
C	 0.7320691167	-0.4763017433	-1.3095285978	-0.038953
O	 0.6822149224	-1.9108171913	-1.3953575007	-0.273958
C	 1.2925755893	-2.4464007123	-2.4531109402	 0.476171
N	 1.9185199782	-1.817930635	-3.3727042101	-0.364125
C	 2.3836466449	-2.8563643884	-4.3042417201	-0.153046
C	 2.1956684279	-4.2093412699	-3.5574193444	-0.180569
N	 1.1910616642	-3.8300835302	-2.555861591	-0.363574
H	 1.0052081912	 1.8620129614	 0.1973040899	 0.119965
H	-0.5090004282	 1.9549182295	-0.7098946055	 0.12079
H	-0.5414764724	 1.7446238914	 1.0448499883	 0.118349
H	 0.4786824142	-0.5388177561	 0.8175955863	 0.10526
H	-1.0261543318	-0.44532145	-0.0863136273	 0.108566
H	 0.2705512265	-0.0503871565	-2.2071873104	 0.120166
H	 1.7796427326	-0.1553026191	-1.2992897464	 0.118821
H	 1.779010959	-2.8293306408	-5.2209554421	 0.104874
H	 3.4234998842	-2.6852704406	-4.5978314861	 0.104866
H	 1.8347767383	-5.0130839962	-4.2045588201	 0.109514
H	 3.1322108717	-4.5395431353	-3.0858895655	 0.099384
H	 1.1648448808	-4.3401061956	-1.684275144	 0.240368
46.6822	73.1599	111.3405	150.541	189.3506	231.8771	284.6615	292.9425	332.5301	518.062	560.6067	706.6285	747.3757	762.3026	767.0243	870.1497	892.0708	913.0093	919.9033	991.4922	1024.2531	1053.5592	1061.4129	1102.1784	1117.6319	1151.7596	1191.0533	1210.028	1240.2531	1268.0802	1301.1994	1310.2939	1315.1159	1331.1218	1358.8048	1410.8357	1418.7806	1482.9627	1493.3271	1500.978	1504.6028	1508.1043	1523.2937	1534.289	1716.1744	2997.6595	3011.6752	3034.2989	3034.4082	3043.8434	3063.3798	3071.9108	3085.5736	3086.7654	3105.035	3111.2673	3598.0325
CCCOC1=NCCN1	CCCO[C]1[N]CCN1	
InChI=1S/C6H12N2O/c1-2-5-9-6-7-3-4-8-6/h2-5H2,1H3,(H,7,8)	InChI=1S/C6H12N2O/c1-2-5-9-6-7-3-4-8-6/h2-5H2,1H3,(H,7,8)
