19
gdb 98859	3.05269	1.07152	0.932	2.7421	72.26	-0.2605	-0.0382	0.2223	1303.8324	0.1583	-460.165395	-460.156307	-460.155363	-460.199939	33.704	
O	 0.0875935756	 1.3885837881	 0.1120779764	-0.418891
C	 0.0255278194	-0.0033598958	 0.0692867543	-0.132338
C	-1.4005936912	-0.5043963349	-0.086563377	 0.377249
O	-2.294900579	 0.3160994043	-0.2303000558	-0.365407
C	-1.6442420636	-1.9835161377	-0.0413347883	-0.183092
C	-2.2879921408	-2.4197960028	 1.3271330833	-0.230442
C	-3.6863157646	-2.4058750324	 0.6598696942	-0.25254
C	-2.9894814782	-2.4311276797	-0.7270227686	 0.166077
O	-3.5048137835	-1.6880899476	-1.7858305986	-0.431623
H	-0.8216377279	 1.6879429997	-0.0480702264	 0.295165
H	 0.6085729827	-0.4139050386	-0.7745473106	 0.121254
H	 0.4549731987	-0.4513537391	 0.9805386691	 0.120772
H	-0.73629178	-2.5215640294	-0.327177832	 0.085149
H	-1.9539053849	-3.4214623698	 1.6049877458	 0.116384
H	-2.1332056573	-1.7512033085	 2.1761797633	 0.116052
H	-4.3746111125	-3.2199137751	 0.8961106821	 0.104484
H	-4.193436804	-1.450690094	 0.8161598077	 0.120103
H	-2.8783704857	-3.4570448272	-1.0907399802	 0.09594
H	-3.5370538732	-0.7683963595	-1.4875169387	 0.295703
39.6904	111.7676	129.3111	183.4164	230.3068	267.5865	365.3952	405.7865	419.5938	480.4714	544.0032	588.5694	632.1859	721.8523	757.1069	839.6448	870.3136	911.3578	956.9654	972.1107	1002.9289	1060.9035	1072.8115	1115.1192	1154.8095	1156.1115	1187.6333	1228.9082	1239.7472	1249.1815	1260.4754	1269.4574	1306.1313	1338.883	1384.4431	1446.9445	1455.4799	1479.7342	1486.3269	1495.8746	1753.2963	2957.6861	2987.3044	3063.1705	3068.6265	3071.4889	3078.9576	3118.5441	3134.5508	3688.7439	3743.9458
OCC(=O)C1CCC1O	OCC(=O)[C@H]1CC[C@H]1O	
InChI=1S/C6H10O3/c7-3-6(9)4-1-2-5(4)8/h4-5,7-8H,1-3H2	InChI=1S/C6H10O3/c7-3-6(9)4-1-2-5(4)8/h4-5,7-8H,1-3H2/t4-,5+/m0/s1
