23
gdb 97581	2.97369	0.72213	0.64869	1.9627	91.54	-0.2474	0.0393	0.2866	1874.9928	0.202476	-388.275136	-388.263382	-388.262438	-388.313727	41.482	
C	-0.6537287932	 1.1845274881	-0.1182183648	-0.364893
C	 0.5208773933	 0.2161221746	 0.11023792	-0.318191
C	 1.0002557065	-0.4121149045	-1.1168240585	 0.116917
C	 1.3995296187	-0.9201123366	-2.134943274	 0.010502
C	 1.8541913656	-1.5584318098	-3.3730642953	-0.055356
O	 1.5400063484	-2.9536009754	-3.3924397525	-0.426258
C	 1.3272218697	-0.829776715	-4.6386132616	 0.04809
C	 2.0032044027	-1.4006403019	-5.8907044779	-0.400533
C	-0.2007785704	-0.9023315872	-4.7424576362	-0.404188
H	-0.3662039995	 1.9902426173	-0.799061021	 0.128885
H	-1.509186212	 0.6625802337	-0.5559037182	 0.126893
H	-0.9705873211	 1.6302772107	 0.8293322837	 0.115736
H	 1.3510209153	 0.7520460913	 0.5882943428	 0.132035
H	 0.2208871361	-0.5643294549	 0.8213766518	 0.131254
H	 2.9510385286	-1.5238986839	-3.4043525958	 0.106349
H	 0.6423291534	-3.0492648818	-3.0580097263	 0.285098
H	 1.6179252693	 0.2231601349	-4.5271217735	 0.078461
H	 1.7967604869	-2.4711511482	-5.9804762068	 0.13119
H	 1.6375436264	-0.9022740485	-6.7938988207	 0.105486
H	 3.0902470494	-1.2706195091	-5.8515436531	 0.107735
H	-0.5334437648	-1.9379520747	-4.8749844127	 0.111832
H	-0.681417857	-0.49742383	-3.8467678341	 0.119726
H	-0.557377892	-0.3325393491	-5.6058039654	 0.113229
15.6384	62.2197	70.6427	130.4614	180.8487	211.0277	223.2224	236.732	272.4516	287.8522	313.7993	332.8336	364.2046	422.1709	533.1416	555.5565	624.1928	767.2326	783.7717	814.5845	917.0188	931.7719	964.0182	977.1287	1010.2231	1078.2594	1101.6674	1104.3746	1133.3935	1166.5244	1202.2812	1258.7578	1285.8689	1302.738	1345.4995	1350.9088	1367.2687	1394.6826	1408.8366	1414.551	1420.1669	1472.9919	1486.7668	1494.5747	1496.5072	1502.6698	1504.6442	1515.7562	2355.5	3018.7508	3020.3598	3025.4713	3031.9618	3035.7485	3044.0369	3047.3912	3097.8143	3099.8975	3110.2438	3116.1543	3117.3707	3122.7292	3821.0186
CCC#CC(O)C(C)C	CCC#C[C@@H](O)C(C)C	
InChI=1S/C8H14O/c1-4-5-6-8(9)7(2)3/h7-9H,4H2,1-3H3	InChI=1S/C8H14O/c1-4-5-6-8(9)7(2)3/h7-9H,4H2,1-3H3/t8-/m1/s1
