20
gdb 60266	3.97997	0.81996	0.80584	2.4956	75.96	-0.2442	0.0238	0.2681	1505.1475	0.170985	-440.30039	-440.291076	-440.290132	-440.335383	33.835	
C	 0.0185544505	 1.5446792017	-0.0335362601	-0.408909
C	 0.0211780004	 0.0189501614	 0.0435170957	 0.13851
O	 0.6902314524	-0.4373534397	 1.2204681793	-0.431315
C	-1.3916226151	-0.5739387563	-0.0483902618	-0.206446
C	-1.3865258812	-2.1035513594	-0.1253673996	 0.01678
C	-2.7971493825	-2.7507612791	-0.0621052139	-0.130471
O	-2.8739337861	-3.5641749961	-1.2590159686	-0.222238
C	-1.7148997471	-3.3307793705	-1.9200200408	 0.121637
N	-0.8379386829	-2.5683793084	-1.4192670562	-0.271268
H	 1.0368879869	 1.9298087154	 0.0671437013	 0.125236
H	-0.3927634097	 1.8941031879	-0.9859117313	 0.118721
H	-0.592027477	 1.9766195737	 0.770550289	 0.101794
H	 0.6149729778	-0.3878470018	-0.7814649588	 0.117698
H	 0.2668697855	-0.0155130183	 1.9768985927	 0.273129
H	-1.9683696766	-0.2571382101	 0.8336779082	 0.080136
H	-1.9084040476	-0.1713603116	-0.9285609886	 0.098956
H	-0.7385038325	-2.4767359838	 0.6744036535	 0.10506
H	-2.9464685204	-3.4026866557	 0.8018932697	 0.120593
H	-3.6084488165	-2.0156922374	-0.0992852554	 0.112117
H	-1.6345174782	-3.8467762218	-2.8707255142	 0.140278
59.5052	66.944	107.5453	152.2205	238.0529	285.1462	317.0439	334.8093	382.5585	463.6441	481.8739	592.3406	725.0718	826.5154	837.9432	878.8772	907.2902	945.939	962.4893	966.3883	986.0291	1035.9103	1073.6515	1078.6264	1131.3248	1139.5061	1160.4324	1202.9852	1231.8	1290.9881	1315.8022	1319.0566	1337.349	1363.238	1382.8864	1395.5747	1404.1697	1427.5232	1467.7738	1491.2153	1496.697	1518.7418	1709.7555	2997.8648	3020.0256	3043.9588	3047.2227	3062.9876	3069.8218	3094.9601	3101.5542	3118.3665	3212.5453	3791.1796
CC(O)CC1COC=N1	C[C@@H](O)C[C@H]1COC=N1	
InChI=1S/C6H11NO2/c1-5(8)2-6-3-9-4-7-6/h4-6,8H,2-3H2,1H3	InChI=1S/C6H11NO2/c1-5(8)2-6-3-9-4-7-6/h4-6,8H,2-3H2,1H3/t5-,6+/m1/s1
