13
gdb 53719	8.36006	0.44964	0.43558	3.1164	95.63	-0.2767	-0.0997	0.1769	2337.4036	0.085343	-419.397297	-419.387564	-419.386619	-419.434032	31.349	
C	 0.1762263051	 1.495408671	-0.011042758	-0.482853
C	-0.2192859332	 0.0373216791	 0.0406455533	 0.19749
O	-0.5727251408	-0.5318212796	 1.0501833572	-0.257518
C	-0.1527306567	-0.6770424926	-1.2238678546	 0.35867
C	-0.1047906706	-1.2953155453	-2.2686318554	-0.252623
C	-0.0494755896	-1.9767682116	-3.4341847097	-0.131853
C	 0.0022533302	-2.5878056354	-4.4834989311	 0.233401
C	 0.0341303184	-3.3053850285	-5.7318498257	-0.029443
O	 1.0184138666	-3.8531077235	-6.1715362106	-0.213117
H	 1.2056396987	 1.5934961926	-0.3724273069	 0.155981
H	-0.4646119091	 2.0353004906	-0.7165323906	 0.154383
H	 0.0861029719	 1.9300670774	 0.9853878354	 0.152933
H	-0.934443241	-3.3162076642	-6.2697990835	 0.114549
41.8259	58.2332	67.4117	115.5213	151.7113	155.0434	285.2422	299.7558	346.6943	500.488	551.1958	575.1952	621.6105	630.7488	686.167	866.3409	969.749	1014.4147	1043.6693	1148.6369	1300.9439	1384.6308	1417.1253	1458.7852	1466.2656	1756.5228	1764.0294	2231.8093	2320.7428	2932.6542	3039.6593	3104.3263	3154.0836
CC(=O)C#CC#CC=O	CC(=O)C#CC#CC=O	
InChI=1S/C7H4O2/c1-7(9)5-3-2-4-6-8/h6H,1H3	InChI=1S/C7H4O2/c1-7(9)5-3-2-4-6-8/h6H,1H3
