17
gdb 108449	2.28534	1.74803	1.2238	0.9267	68.64	-0.2339	-0.0366	0.1972	1046.8819	0.133802	-458.925038	-458.916483	-458.915539	-458.958601	30.973	
C	-0.1080001232	 1.4781588925	 0.1035215599	-0.274507
O	-0.0127715905	 0.0559359979	 0.0695528082	-0.288797
C	-1.2365370784	-0.577952951	-0.0269382633	 0.269317
C	-2.1556731131	-0.6612329846	 1.2256355874	-0.143489
O	-2.2803201254	-2.0943578288	 1.0946100521	-0.284319
C	-1.4091726032	-2.131841275	-0.0494813165	 0.031797
C	-2.1902207126	-2.0643269251	-1.3858391349	-0.361838
C	-2.0208363982	-0.529428427	-1.3631381994	 0.333344
O	-2.276905319	 0.3487472987	-2.1356362811	-0.296703
H	 0.9139535862	 1.8560356788	 0.1670958365	 0.134549
H	-0.5904417153	 1.8660802803	-0.7995355688	 0.148992
H	-0.6682018463	 1.8200926875	 0.9856612239	 0.112914
H	-1.6133371817	-0.386563086	 2.1386451912	 0.118169
H	-3.1228409357	-0.1480473943	 1.1963965285	 0.116047
H	-0.5877611479	-2.8420883335	 0.0473238874	 0.099848
H	-1.6596839643	-2.5058154249	-2.2366247459	 0.141822
H	-3.2119689413	-2.4489066654	-1.3572281353	 0.142851
77.9771	100.4627	149.3281	181.063	222.5134	296.9464	327.2027	424.1387	471.6473	509.1651	613.8765	681.5435	752.8173	834.9536	909.3887	943.5763	998.0077	1001.0341	1033.6515	1038.7245	1077.4803	1118.3817	1124.2988	1167.047	1180.5539	1186.0877	1213.5558	1240.9835	1277.3333	1313.008	1360.9703	1416.6267	1482.0039	1488.0472	1509.256	1510.6532	1881.3806	3000.0969	3021.1224	3056.6553	3077.7571	3082.3123	3116.5818	3125.6662	3136.4002
COC12COC1CC2=O	CO[C@]12CO[C@H]1CC2=O	
InChI=1S/C6H8O3/c1-8-6-3-9-5(6)2-4(6)7/h5H,2-3H2,1H3	InChI=1S/C6H8O3/c1-8-6-3-9-5(6)2-4(6)7/h5H,2-3H2,1H3/t5-,6-/m0/s1
