18
gdb 42989	2.85451	1.70106	1.27916	4.0559	75.77	-0.2473	-0.0072	0.2401	1011.6649	0.149139	-401.948014	-401.940547	-401.939603	-401.980135	29.409	
O	 0.0476249165	 0.0239008447	-0.1036112075	-0.33428
C	 0.0154073432	 1.2251543211	-0.0726209905	 0.33193
N	-1.2017696692	 1.9902888643	-0.0750941365	-0.141615
C	-1.3875563986	 2.6987067775	 1.2220094919	-0.252196
C	-0.817840634	 3.4138995771	 0.0612582908	-0.018408
C	 0.6985397323	 3.5796591983	-0.0463879083	-0.353423
C	 1.2060290125	 2.1448493448	-0.0282197253	 0.240878
C	 2.4024817686	 1.6634842929	 0.7780209737	-0.293127
C	 2.4754505405	 1.679845112	-0.7125664617	-0.297728
H	-2.4254155961	 2.8412055082	 1.5052610191	 0.133963
H	-0.7236973327	 2.4285650141	 2.0400650651	 0.131123
H	-1.4471321338	 4.1086601755	-0.4858108562	 0.104547
H	 0.9447193841	 4.0787226806	-0.9891999012	 0.1174
H	 1.1047273292	 4.1931612463	 0.7643669924	 0.11427
H	 2.9504824595	 2.4170105152	 1.3337673917	 0.117927
H	 2.2981534944	 0.702293613	 1.2689424512	 0.139241
H	 2.4144241923	 0.7292358237	-1.2310423749	 0.140807
H	 3.0779170311	 2.4409851408	-1.1966954437	 0.11869
57.5666	210.4594	243.43	256.8526	337.4978	359.3229	460.9616	555.9063	659.9383	695.4475	765.6364	781.8009	796.7549	846.7384	858.3537	897.2969	943.9852	951.3783	973.7367	1009.8312	1048.8507	1070.1413	1081.8588	1095.6241	1106.1483	1116.8205	1170.0819	1202.0652	1209.9988	1253.9397	1289.1219	1304.6793	1356.1078	1395.1172	1452.7649	1485.5201	1496.0826	1508.0322	1844.1994	3043.2712	3079.6152	3111.179	3131.6143	3133.5232	3159.9294	3202.9675	3218.9134	3233.3362
O=C1N2CC2CC11CC1	O=C1N2C[C@H]2CC21CC2	
InChI=1S/C7H9NO/c9-6-7(1-2-7)3-5-4-8(5)6/h5H,1-4H2	InChI=1S/C7H9NO/c9-6-7(1-2-7)3-5-4-8(5)6/h5H,1-4H2/t5-,8?/m1/s1
