20
gdb 98837	3.12328	1.05427	0.92192	2.9297	75.81	-0.2311	-0.0103	0.2208	1355.1659	0.169434	-440.274687	-440.26485	-440.263905	-440.310751	35.192	
C	-0.4835708742	 1.4372151549	 0.1278242563	-0.377724
C	-0.0587160171	-0.0236470091	-0.002376221	-0.286628
C	 0.8391649617	-0.2909832338	-1.2011815056	 0.371516
O	 1.3100204577	 0.5925778316	-1.878265859	-0.301317
C	 1.1394171271	-1.758406458	-1.4766386012	-0.122086
N	 2.1722441404	-2.0470578003	-2.4825042804	-0.306142
C	 2.692953087	-3.1710986984	-1.6750616654	-0.200854
C	 2.026427784	-2.5261991956	-0.4329793666	 0.135561
O	 2.8618489292	-1.7047133794	 0.3445752237	-0.42981
H	 0.3905397711	 2.0902611568	 0.1817556028	 0.135428
H	-1.0722030749	 1.7541554345	-0.7376360494	 0.124907
H	-1.0865522807	 1.5863937492	 1.0277739145	 0.109164
H	 0.5102814663	-0.3488201234	 0.8802443329	 0.143767
H	-0.9278280633	-0.6930981309	-0.0528559887	 0.109559
H	 0.1844276193	-2.2918091042	-1.6228262799	 0.075092
H	 1.8570207621	-2.2506689612	-3.4231919364	 0.22461
H	 2.2604172032	-4.1554563145	-1.907731413	 0.093099
H	 3.7850395566	-3.256162708	-1.6502491528	 0.106687
H	 1.5100388532	-3.1892343478	 0.2612768179	 0.095409
H	 3.3462933113	-1.1275196424	-0.2594206087	 0.299764
30.7668	59.4874	112.727	125.7136	187.2294	206.5676	289.2054	350.6057	400.5572	447.5469	452.3716	532.9236	666.9034	691.0771	754.2079	823.0511	851.6859	927.4081	931.7346	985.2054	996.051	1018.8043	1050.4228	1067.8607	1094.1655	1126.9422	1136.7399	1162.1339	1188.6388	1234.9545	1273.127	1294.9484	1323.4542	1359.3667	1372.9625	1393.257	1413.2228	1441.6467	1456.477	1493.146	1498.9322	1515.8202	1811.5632	2952.8052	2991.2021	3019.1236	3048.6051	3051.3653	3061.5157	3117.6108	3118.9124	3129.8727	3549.6164	3780.6249
CCC(=O)C1NCC1O	CCC(=O)[C@H]1NC[C@H]1O	
InChI=1S/C6H11NO2/c1-2-4(8)6-5(9)3-7-6/h5-7,9H,2-3H2,1H3	InChI=1S/C6H11NO2/c1-2-4(8)6-5(9)3-7-6/h5-7,9H,2-3H2,1H3/t5-,6-/m1/s1
