18
gdb 35583	2.75633	1.54002	1.29948	4.2699	74.58	-0.2742	0.0011	0.2753	1028.4579	0.150075	-401.961923	-401.954443	-401.953499	-401.994097	28.923	
N	 0.1510369858	-1.1420744857	 0.4324557664	-0.331938
C	 0.106408536	-0.0022127954	 0.245744049	 0.294719
C	 0.074806571	 1.4398434365	-0.0132552244	-0.00979
O	-0.3250945564	 2.2134315175	 1.1293010959	-0.302833
C	 0.8425002178	 3.0795685405	 1.0160653495	 0.135323
C	 1.7753160015	 2.9650629371	 2.2148847412	-0.218154
C	 2.4851406804	 1.6114409607	 2.0148828758	-0.221865
C	 2.6677384569	 1.5056218455	 0.4844057952	-0.227863
C	 1.4326245801	 2.1919986755	-0.1173324243	-0.095532
H	-0.5883857901	 1.6186074983	-0.869936831	 0.122369
H	 0.5395176847	 4.1016492647	 0.7701132907	 0.081738
H	 2.4964759764	 3.7914235132	 2.177475728	 0.101966
H	 1.2295119568	 3.0412103627	 3.1593247234	 0.11817
H	 3.4333021958	 1.5446742839	 2.5537475115	 0.103307
H	 1.8481310399	 0.7983710096	 2.375672977	 0.131664
H	 3.5592439272	 2.0603577745	 0.1708337729	 0.103986
H	 2.7883445297	 0.4747550728	 0.1399708227	 0.125479
H	 1.6090128566	 2.643954968	-1.0928283896	 0.089253
80.8078	138.2706	227.5473	239.256	357.3522	369.3679	523.919	551.1743	593.5505	641.856	768.7972	826.2191	855.8179	867.0638	888.6854	906.3108	940.3752	966.9408	988.3385	1032.0616	1054.737	1082.4713	1102.1867	1137.5506	1189.0046	1200.3808	1247.76	1270.2454	1285.657	1315.5777	1325.0497	1336.2664	1347.2078	1361.3888	1385.7668	1469.6115	1488.0318	1506.1504	2352.7024	3018.2536	3033.469	3044.3718	3063.949	3066.4751	3096.7833	3099.1146	3112.9451	3118.2729
N#CC1OC2CCCC12	N#C[C@H]1O[C@H]2CCC[C@@H]12	
InChI=1S/C7H9NO/c8-4-7-5-2-1-3-6(5)9-7/h5-7H,1-3H2	InChI=1S/C7H9NO/c8-4-7-5-2-1-3-6(5)9-7/h5-7H,1-3H2/t5-,6+,7-/m1/s1
