18
gdb 92898	2.31732	1.76222	1.03824	4.0991	74.41	-0.2435	0.0066	0.25	1130.5447	0.148323	-439.125109	-439.116524	-439.115579	-439.158556	31.891	
C	 0.0079850425	 1.3595607393	-0.2688617692	-0.346623
N	 0.0213953406	-0.072542138	-0.0160458694	-0.11083
C	-1.2396774119	-0.6631465689	 0.4185751574	-0.200083
C	-1.293090758	-2.154112054	 0.2660090484	-0.085186
C	-0.2023198121	-2.8907205177	 0.0986064259	-0.072005
C	 1.161137299	-2.2671725833	 0.1296080867	-0.009259
O	 2.0612881325	-2.9646319991	-0.6945797653	-0.438869
C	 1.1434369125	-0.7881185883	-0.2816264394	 0.39441
O	 2.1489852798	-0.3162817021	-0.7990557513	-0.414114
H	 1.0173294473	 1.6704316886	-0.533433219	 0.171494
H	-0.6722272603	 1.6052921593	-1.0938743215	 0.128278
H	-0.3242492231	 1.8996356433	 0.6254329369	 0.125382
H	-1.450156474	-0.3742670582	 1.4624512235	 0.123298
H	-2.0428525273	-0.2084388456	-0.1791120514	 0.122583
H	-2.2818192268	-2.6004051568	 0.3030326056	 0.105059
H	-0.2419363853	-3.9680737245	-0.0254260508	 0.114459
H	 1.524120192	-2.2770169061	 1.1774097667	 0.098365
H	 2.6659947527	-2.2791313079	-1.0222842239	 0.293642
73.4462	111.5735	136.6149	210.0449	296.5546	326.7211	371.6222	445.444	469.8693	493.8507	503.4014	565.3181	644.9855	697.3426	843.4154	870.0868	945.346	976.3021	1001.6637	1015.1887	1073.6531	1114.8229	1149.7565	1155.4052	1193.8244	1251.3899	1257.4046	1272.0064	1332.2145	1350.6697	1403.1136	1434.5296	1446.8457	1473.3507	1492.764	1502.5231	1543.1516	1739.403	1746.7257	2890.5292	2960.2411	3007.3909	3020.168	3070.6836	3169.1668	3173.4121	3195.5348	3686.792
CN1CC=CC(O)C1=O	CN1CC=C[C@@H](O)C1=O	
InChI=1S/C6H9NO2/c1-7-4-2-3-5(8)6(7)9/h2-3,5,8H,4H2,1H3	InChI=1S/C6H9NO2/c1-7-4-2-3-5(8)6(7)9/h2-3,5,8H,4H2,1H3/t5-/m1/s1
