20
gdb 57650	2.96565	1.00209	0.9258	1.4243	75.45	-0.25	-0.0297	0.2203	1349.4075	0.168349	-440.264224	-440.254182	-440.253238	-440.299814	36.437	
C	 0.3472297042	 1.5117236699	 0.2756940408	-0.437289
C	-0.0213079461	 0.0325439241	 0.0564057831	 0.260431
O	 0.4460349105	-0.7690033062	 1.1387136771	-0.477218
C	-1.531429113	-0.1807963011	-0.193404183	-0.238831
C	-2.3852945066	 0.1714758692	 1.0019882367	-0.002451
C	-3.5906789207	-0.6176894961	 1.3472081414	-0.250459
N	-2.3818602075	-0.7171596593	 2.1872377542	-0.331518
C	 0.7754928515	-0.4540214714	-1.1542358088	 0.150933
O	 0.4506742919	-0.2645446158	-2.2966989028	-0.262109
H	 1.4268299278	 1.6146887454	 0.4191558181	 0.131214
H	 0.0471181445	 2.11864412	-0.5827714672	 0.138557
H	-0.1493883757	 1.9023467578	 1.1698569944	 0.125979
H	 0.0784300862	-0.4113652076	 1.9548415645	 0.298552
H	-1.8262765118	 0.4021973431	-1.0720464738	 0.125024
H	-1.6870976892	-1.2364603948	-0.4474382457	 0.101699
H	-2.3969296861	 1.2255237838	 1.2731258146	 0.09634
H	-4.4399698198	-0.133801364	 1.8204534074	 0.121995
H	-3.8467812386	-1.4603116549	 0.7100429026	 0.116865
H	-1.8854541747	-1.5728812033	 1.9466197744	 0.235506
H	 1.7104026533	-0.9894939989	-0.877860908	 0.096782
46.1358	67.0719	119.2535	150.9514	228.4067	241.2017	275.0496	323.259	356.0302	380.2278	426.7444	431.0348	513.4709	623.8307	759.539	799.2941	838.2518	901.0992	913.3968	950.882	959.003	979.9059	1003.0832	1047.0601	1083.8125	1121.9872	1131.8261	1174.0231	1210.4576	1227.3567	1267.5727	1280.8256	1312.0619	1324.3494	1373.9429	1390.6084	1406.4046	1433.6983	1466.7139	1489.9254	1498.2625	1512.7726	1837.8376	2899.5495	3032.9799	3038.0504	3085.9901	3108.2291	3110.9474	3125.1667	3126.8318	3196.8946	3489.0725	3804.1458
CC(O)(CC1CN1)C=O	C[C@@](O)(C[C@H]1CN1)C=O	
InChI=1S/C6H11NO2/c1-6(9,4-8)2-5-3-7-5/h4-5,7,9H,2-3H2,1H3	InChI=1S/C6H11NO2/c1-6(9,4-8)2-5-3-7-5/h4-5,7,9H,2-3H2,1H3/t5-,6+/m0/s1
