20
gdb 64451	2.19452	1.73876	1.26468	3.2138	75.56	-0.2342	0.0297	0.2639	1084.3427	0.171235	-440.33172	-440.322693	-440.321749	-440.365087	34.502	
C	 0.0958552224	 1.478870226	-0.0682350332	-0.405359
C	-0.0421014602	-0.0441266341	-0.0027571054	 0.242124
C	-1.521505331	-0.4577475369	 0.066286755	-0.410624
O	 0.5631152569	-0.5344981362	-1.2097565946	-0.291046
C	 0.9789789948	-1.8807100594	-1.1550891682	-0.087554
C	 2.0977216117	-2.0326633523	-0.134476605	-0.158303
N	 1.6367623636	-1.4816449739	 1.1288467356	-0.333877
C	 0.6655902726	-0.5375068118	 1.2778888713	 0.393942
O	 0.3454393424	-0.1034939348	 2.3710913632	-0.396244
H	 1.1478349064	 1.7613868507	-0.1637605217	 0.118608
H	-0.4430203702	 1.8584612232	-0.940663127	 0.117485
H	-0.3098326731	 1.9279746273	 0.8393269045	 0.142012
H	-2.0569349922	-0.0444685192	-0.7927136062	 0.118996
H	-1.6388930587	-1.5456689403	 0.0563622314	 0.114438
H	-1.9669011753	-0.0814617152	 0.9894152964	 0.144472
H	 0.1464305068	-2.5535298398	-0.898776877	 0.099362
H	 1.3326718976	-2.1431869183	-2.1558728644	 0.114801
H	 2.3519010471	-3.0906187099	-0.0010578921	 0.112004
H	 2.9971517858	-1.5116681894	-0.4914014942	 0.116423
H	 2.1071749827	-1.7333307856	 1.9864031116	 0.24834
69.3061	154.8227	199.7271	236.392	246.3233	297.3592	310.1131	339.3652	423.4565	466.6564	477.0416	524.3366	575.7648	669.5823	682.008	759.9807	846.7077	891.3795	939.3428	947.4602	991.9667	1021.6841	1080.7615	1125.2463	1134.0137	1190.5533	1199.0276	1236.0501	1265.2794	1289.8907	1356.3391	1385.9438	1393.5218	1400.9591	1416.9284	1474.5689	1477.7628	1481.7754	1493.7943	1502.033	1509.1551	1518.3998	1777.2712	2992.3168	3006.586	3045.8207	3051.1596	3059.6549	3094.4052	3114.6261	3120.9522	3140.0185	3152.6302	3605.1645
CC1(C)OCCNC1=O	CC1(C)OCCNC1=O	
InChI=1S/C6H11NO2/c1-6(2)5(8)7-3-4-9-6/h3-4H2,1-2H3,(H,7,8)	InChI=1S/C6H11NO2/c1-6(2)5(8)7-3-4-9-6/h3-4H2,1-2H3,(H,7,8)
