18
gdb 82724	2.67993	1.86436	1.36991	3.2834	74.78	-0.2385	-0.0252	0.2133	969.6635	0.149164	-401.930749	-401.923479	-401.922535	-401.962276	28.965	
C	-0.0476205778	 1.6121590128	 0.0312970193	-0.413461
C	 0.0505502142	 0.0908475507	-0.0170651536	-0.091321
C	 0.8174657511	-0.5478853648	-1.1856009711	-0.087045
C	 2.3365786871	-0.2747706762	-1.0492954241	-0.163961
N	 2.559088937	-1.5859193343	-0.3483297349	-0.140162
C	 1.1692826947	-1.9849533776	-0.7089037402	-0.058643
C	 1.5030283086	-1.7413969181	 0.718559554	-0.139147
C	 0.7519600827	-0.532455427	 1.2021340735	 0.403682
O	 0.6663469757	-0.1526622177	 2.3437546959	-0.335457
H	 0.9349204568	 2.083557816	-0.0711650092	 0.12298
H	-0.6902807531	 1.99461818	-0.7670210046	 0.11504
H	-0.4635677427	 1.9218697378	 0.993777748	 0.143672
H	-0.9644178293	-0.3364398164	-0.0092021654	 0.107224
H	 0.3623095463	-0.4138251662	-2.1660947814	 0.081372
H	 2.8714404114	-0.3153667509	-2.0005516589	 0.119784
H	 2.65815761	 0.6098448115	-0.4895383456	 0.114142
H	 0.9155541467	-2.9442060203	-1.144718897	 0.104914
H	 1.7363698605	-2.5376444293	 1.4145418353	 0.116389
117.6771	190.6486	234.0444	240.1328	365.2545	444.7471	504.083	546.7052	623.5213	674.8031	755.6321	767.1058	811.6558	845.1652	872.7985	906.7705	951.9021	983.2205	992.6606	1019.7346	1041.2624	1087.4923	1106.8141	1122.547	1151.8055	1176.3282	1197.3232	1220.8283	1254.9606	1272.5096	1302.3983	1329.9381	1330.8367	1355.471	1409.7396	1493.9403	1498.8179	1509.1332	1830.7412	2993.1715	3042.758	3050.2913	3109.0427	3111.5514	3121.9454	3122.5389	3181.9842	3200.8203
CC1C2CN3C2C3C1=O	C[C@H]1[C@H]2CN3[C@H]2[C@@H]3C1=O	
InChI=1S/C7H9NO/c1-3-4-2-8-5(4)6(8)7(3)9/h3-6H,2H2,1H3	InChI=1S/C7H9NO/c1-3-4-2-8-5(4)6(8)7(3)9/h3-6H,2H2,1H3/t3-,4+,5+,6+,8?/m0/s1
