20
gdb 114712	2.74508	1.36955	1.09725	2.1939	78.71	-0.2373	-0.0241	0.2132	1178.4563	0.171566	-403.151697	-403.143126	-403.142182	-403.185244	32.435	
C	 0.0770489189	 1.3453406283	-0.3710303883	-0.386001
C	 0.2342234694	-0.15520091	-0.1099909034	-0.194358
C	 0.7433475809	-0.4878629174	 1.3100451934	-0.114879
C	 0.7023823051	-1.9824437481	 1.7160851909	-0.199966
N	 2.0862932653	-2.4724412359	 1.9750374028	-0.093812
C	 2.941673526	-2.3755767897	 0.8045947963	-0.244005
C	 2.9937357336	-1.3146610529	 1.8596397714	-0.134752
C	 2.2101545918	-0.0773932935	 1.5487965293	 0.410896
O	 2.6454708127	 1.0483126968	 1.5393390129	-0.331542
H	 1.0205128957	 1.873630745	-0.2178793772	 0.150755
H	-0.2633171667	 1.526834008	-1.3951318318	 0.109757
H	-0.6614767026	 1.7835416492	 0.3096110927	 0.114156
H	-0.7321396616	-0.65656829	-0.2460630467	 0.102232
H	 0.9078650759	-0.5930178424	-0.8577402683	 0.101514
H	 0.1495310535	 0.1003517339	 2.019334971	 0.109962
H	 0.137388956	-2.1182071332	 2.6420849497	 0.117071
H	 0.239474672	-2.6146160585	 0.9517700652	 0.111543
H	 3.7554183938	-3.093460848	 0.7594306435	 0.131795
H	 2.4969167652	-2.1318551442	-0.1576533947	 0.123981
H	 3.8443557853	-1.2397932473	 2.528151131	 0.115652
60.5871	100.4045	186.7179	203.062	241.4681	311.7072	363.6634	390.1634	457.0414	592.298	664.3672	685.7667	749.8565	776.6639	816.3235	873.536	881.1039	949.6726	977.5825	982.9001	1020.5159	1053.1848	1074.8824	1102.4244	1116.0188	1136.0656	1163.878	1194.7416	1235.1315	1248.504	1269.61	1291.8255	1319.2969	1335.8012	1363.5774	1372.2674	1415.2728	1487.6446	1494.9608	1498.0366	1507.8814	1512.1717	1824.6502	3017.047	3036.6164	3037.7803	3049.8778	3056.5581	3095.1418	3100.5549	3106.2667	3134.1371	3176.9421	3194.4006
CCC1CN2CC2C1=O	CC[C@H]1CN2C[C@H]2C1=O	
InChI=1S/C7H11NO/c1-2-5-3-8-4-6(8)7(5)9/h5-6H,2-4H2,1H3	InChI=1S/C7H11NO/c1-2-5-3-8-4-6(8)7(5)9/h5-6H,2-4H2,1H3/t5-,6-,8?/m0/s1
