14
gdb 54751	3.09554	1.32779	1.21052	3.0011	62.09	-0.2564	-0.0267	0.2297	1027.1545	0.100885	-473.845016	-473.837379	-473.836435	-473.877829	28.489	
N	 0.5821225688	 0.3401539748	-0.8064269059	-0.541821
C	-0.0378151356	 0.0233861868	 0.3583629172	 0.406394
O	 0.2746528941	 0.489697544	 1.4364246993	-0.365004
C	-1.1948624487	-0.9601979612	 0.2869861407	-0.12664
C	-1.8815304433	-1.5309411871	-0.8993990583	 0.047442
O	-0.951343573	-1.7005797266	-2.0081856143	-0.282562
C	-0.241765227	-2.6606379136	-1.2620031772	 0.475415
O	 0.6486745521	-3.339444881	-1.6437020211	-0.301879
C	-1.084915111	-2.4728688832	-0.0321341014	-0.286509
H	 1.367643695	 0.9681910079	-0.7585809461	 0.265175
H	 0.3004111974	-0.0560188337	-1.688215625	 0.279697
H	-1.8498973826	-0.8104185535	 1.1409379511	 0.141751
H	-2.9328067578	-1.4961869876	-1.147468053	 0.144089
H	-1.3701664485	-3.233575216	 0.6787975837	 0.144452
50.3921	108.5253	228.7896	284.7316	350.5791	362.3687	464.8738	495.4963	609.2855	640.5527	684.2267	746.0257	777.0231	813.7718	824.3336	886.2381	916.9287	943.2336	982.054	1041.6649	1063.731	1099.1557	1110.1034	1140.7034	1269.1287	1296.7722	1371.6772	1411.6258	1612.9983	1795.5021	1959.6423	3166.1274	3226.4456	3241.9725	3583.1208	3723.6804
NC(=O)C1C2OC(=O)C12	NC(=O)[C@H]1[C@H]2OC(=O)[C@@H]12	
InChI=1S/C5H5NO3/c6-4(7)1-2-3(1)9-5(2)8/h1-3H,(H2,6,7)	InChI=1S/C5H5NO3/c6-4(7)1-2-3(1)9-5(2)8/h1-3H,(H2,6,7)/t1-,2+,3-/m1/s1
