23
gdb 64480	2.41993	1.47749	1.21083	0.7141	81.62	-0.238	0.0767	0.3147	1164.8997	0.205737	-425.42758	-425.418336	-425.417392	-425.460682	36.515	
C	 0.1037914548	 1.4829708858	 0.3894367437	-0.399005
C	-0.1176385493	 0.0148037099	 0.0067726836	 0.359496
C	-1.6145894967	-0.3234700916	 0.0719624359	-0.436198
C	 0.4972190077	-0.2393041414	-1.3904093248	-0.249399
C	 0.1397722033	-1.5610563184	-2.0898130856	-0.083861
O	 0.0275280776	-2.7017888787	-1.2527619716	-0.246083
C	 0.9994805851	-2.8254523298	-0.2308147535	-0.092863
C	 0.5750690342	-2.1043639937	 1.0482578339	-0.072985
O	 0.6422167806	-0.6943400874	 1.0030061922	-0.288697
H	 1.1686923486	 1.729868743	 0.3501188417	 0.116658
H	-0.4358129946	 2.1510597219	-0.2880347757	 0.107205
H	-0.2474844327	 1.6594412842	 1.409661424	 0.118228
H	-2.1726446576	 0.3138611995	-0.6217901991	 0.110434
H	-1.8126705306	-1.3632621112	-0.1937232782	 0.138168
H	-1.9958770231	-0.1392463736	 1.0810080842	 0.116708
H	 0.2020794316	 0.5699554194	-2.0700002714	 0.09692
H	 1.5824209933	-0.1555561934	-1.2688709886	 0.107816
H	-0.8375962626	-1.4797084734	-2.5765074483	 0.109719
H	 0.8815598967	-1.7471970667	-2.8834858536	 0.09071
H	 1.0811191401	-3.8971123292	-0.0109997829	 0.103897
H	 1.988175135	-2.4766208717	-0.5633986288	 0.095783
H	-0.4337897173	-2.4528048046	 1.3158683565	 0.096388
H	 1.2512288059	-2.395145769	 1.8612099166	 0.100961
120.7229	176.34	218.0942	222.8609	257.0405	273.3647	300.3651	361.1082	367.9412	399.8664	432.7765	463.4809	562.3552	610.9859	711.3052	794.5894	833.7503	869.9111	909.1182	934.9248	950.6491	978.1509	1006.3755	1041.4897	1064.6303	1117.6443	1141.9833	1153.1506	1201.7456	1210.8836	1239.4597	1282.1019	1288.9384	1305.552	1331.6558	1378.1978	1388.7511	1395.2299	1411.2493	1412.7394	1425.4135	1466.8483	1476.0491	1485.2416	1487.5826	1490.6673	1497.2964	1511.0046	1523.0868	2971.9451	2993.5914	2999.7296	3031.9337	3039.2301	3045.1669	3058.1203	3060.2142	3061.046	3082.9563	3105.8278	3117.2002	3121.3111	3135.2788
CC1(C)CCOCCO1	CC1(C)CCOCCO1	
InChI=1S/C7H14O2/c1-7(2)3-4-8-5-6-9-7/h3-6H2,1-2H3	InChI=1S/C7H14O2/c1-7(2)3-4-8-5-6-9-7/h3-6H2,1-2H3
