18
gdb 87334	2.12946	1.23338	0.89662	3.4255	80.11	-0.2396	-0.0217	0.2179	1330.5125	0.144027	-401.899731	-401.889798	-401.888853	-401.935258	35.453	
C	-0.0372807168	 1.5126211349	-0.1388441441	-0.405269
C	-0.0070845213	 0.0172070925	 0.0592329529	-0.035986
N	 1.2787173187	-0.6710871756	-0.0933154733	-0.364437
C	 0.617722858	-0.6739887541	 1.2410259701	 0.073892
C	 1.3642625079	 0.0779639458	 2.3343204508	-0.341869
C	 2.5481234712	-0.7148462256	 2.8597464216	 0.169932
O	 2.8666903472	-0.7714751086	 4.0184180008	-0.242864
C	-0.0005146482	-1.9032287988	 1.6744648543	 0.299725
C	-0.4914545928	-2.9351169035	 2.050951128	-0.436486
H	 0.8821235813	 1.9880800108	 0.2078081145	 0.131376
H	-0.1436181906	 1.7426902752	-1.2042599517	 0.129524
H	-0.8866491918	 1.9587732936	 0.3886160325	 0.127352
H	-0.8819499562	-0.5003376942	-0.3304915392	 0.099176
H	 1.1539367985	-1.5759723131	-0.5397302061	 0.242621
H	 1.7668815221	 1.0077235494	 1.916809349	 0.13242
H	 0.7076666398	 0.3311460965	 3.1708463037	 0.127508
H	 3.1315373094	-1.2372606739	 2.0696482117	 0.089666
H	-0.9283636864	-3.8440877313	 2.3841468145	 0.203719
54.4878	71.6891	135.2274	140.2942	162.0782	191.8159	253.9922	352.5714	380.0603	464.2706	488.6552	544.3904	573.2929	609.8957	663.2569	689.2481	762.8306	821.6077	873.9382	971.6487	989.5265	1035.2127	1060.9753	1080.5779	1097.0346	1128.569	1206.7567	1243.7434	1278.7274	1305.6193	1344.2581	1407.7743	1420.8536	1441.3465	1450.2652	1486.3317	1499.4086	1836.4495	2231.1252	2892.8951	3041.0979	3051.3018	3102.1686	3112.7389	3119.6699	3139.4658	3500.5195	3510.6978
CC1NC1(CC=O)C#C	C[C@H]1N[C@]1(CC=O)C#C	
InChI=1S/C7H9NO/c1-3-7(4-5-9)6(2)8-7/h1,5-6,8H,4H2,2H3	InChI=1S/C7H9NO/c1-3-7(4-5-9)6(2)8-7/h1,5-6,8H,4H2,2H3/t6-,7+/m1/s1
