18
gdb 10829	4.589	1.47435	1.17252	3.8663	68.44	-0.2145	0.0325	0.247	1021.0999	0.15635	-381.160015	-381.15222	-381.151276	-381.192108	29.42	
C	 0.0049618505	 1.566791799	 0.0141633223	-0.404939
C	 0.0201274804	 0.0409304728	 0.0034087857	 0.049858
C	 0.7207850498	-0.507373087	-1.2484804367	-0.152092
N	 0.901593373	-1.9490755156	-1.1473605964	-0.315355
C	 0.9348437137	-2.6885007776	 0.0012949828	 0.383932
O	 1.1797595888	-3.8810835606	 0.0015237468	-0.377627
C	 0.5890181731	-1.9320611801	 1.2872956077	-0.285343
N	 0.6338563112	-0.47290253	 1.2287199324	-0.292219
H	 1.0253285187	 1.9675239066	 0.0396110961	 0.114314
H	-0.4877440019	 1.9651752295	-0.8781254061	 0.118263
H	-0.5229028627	 1.9307880514	 0.8985089098	 0.133149
H	-1.0155901692	-0.3270389586	-0.0016151733	 0.091132
H	 0.1295712509	-0.2830541533	-2.1449331756	 0.110124
H	 1.6919755336	 0.0004796309	-1.3682924237	 0.097178
H	 1.1642647715	-2.4644312357	-1.9755653198	 0.24472
H	-0.4228140658	-2.2502395998	 1.5741391376	 0.135294
H	 1.2581409141	-2.2969272812	 2.0700648803	 0.134244
H	 1.6002073603	-0.1592484104	 1.27168196	 0.215369
81.1939	155.622	207.7787	230.5462	295.2564	410.7693	432.9024	458.4061	498.845	543.5054	646.6067	719.2514	764.494	829.2449	870.0228	916.4346	947.6794	998.0711	1087.8102	1102.6192	1136.9734	1147.8356	1178.27	1244.5025	1294.2295	1302.543	1343.3488	1358.9621	1384.2762	1394.0191	1410.687	1457.9563	1477.8217	1483.8656	1496.1627	1501.2614	1524.4699	1790.9637	2966.0538	3011.6856	3022.8822	3033.5825	3041.3984	3099.6157	3108.7753	3128.6381	3491.5919	3600.1969
CC1CNC(=O)CN1	C[C@H]1CNC(=O)CN1	
InChI=1S/C5H10N2O/c1-4-2-7-5(8)3-6-4/h4,6H,2-3H2,1H3,(H,7,8)	InChI=1S/C5H10N2O/c1-4-2-7-5(8)3-6-4/h4,6H,2-3H2,1H3,(H,7,8)/t4-/m0/s1
