13
gdb 15026	2.53976	2.00189	1.17311	5.0958	63.17	-0.2866	-0.0258	0.2608	956.4206	0.095025	-357.615061	-357.607451	-357.606507	-357.647555	26.484	
N	-0.2639273061	-1.0301836662	 0.1141078766	-0.297806
C	-0.0833251892	 0.1075317633	 0.0504304019	 0.33
C	 0.0996656084	 1.5701367644	-0.0036182027	-0.276669
C	 1.5331779064	 1.9152908702	-0.0424503046	 0.330006
N	 2.6452238831	 2.2224029044	-0.0524676563	-0.297793
N	-0.5748914434	 2.1129000937	-1.182160019	-0.059365
C	-2.0014656329	 2.3996926463	-1.0047620689	-0.219353
C	-1.0104339481	 3.5074417527	-1.0620103014	-0.219335
H	-0.3020499909	 1.9779974824	 0.943456449	 0.155123
H	-2.6220730428	 2.1641222468	-1.8624477435	 0.145719
H	-2.4522042515	 2.1782393516	-0.0395292501	 0.13187
H	-0.7917277708	 4.0342506522	-0.1354467146	 0.13188
H	-0.8904052422	 4.0999284282	-1.9624694864	 0.145723
72.8231	131.7218	153.8905	186.6612	344.3795	357.7008	384.5392	529.4444	534.0355	579.0343	768.4623	868.6434	903.6176	909.9243	1003.6176	1027.3495	1075.3524	1116.3461	1129.0417	1177.1512	1179.0892	1303.7018	1317.0688	1323.4677	1492.6958	1517.3053	2375.2423	2379.4389	2926.5169	3110.2723	3114.5668	3202.763	3215.3561
N#CC(C#N)N1CC1	N#CC(C#N)N1CC1	
InChI=1S/C5H5N3/c6-3-5(4-7)8-1-2-8/h5H,1-2H2	InChI=1S/C5H5N3/c6-3-5(4-7)8-1-2-8/h5H,1-2H2
