23
gdb 112176	2.43877	1.14799	0.96647	2.8251	86.2	-0.232	-0.0132	0.2187	1372.5766	0.203014	-388.315877	-388.305365	-388.304421	-388.351202	38.933	
C	-0.2159054108	 1.7144805788	 0.0912229667	-0.382453
C	-0.1968334453	 0.2242851118	 0.4499701786	-0.201533
C	-1.3780243525	-0.5382408341	-0.140509529	-0.00064
C	-1.419458575	-0.7488852376	-1.6879007941	-0.375325
C	-1.8545225499	-2.194584943	-1.4185940017	 0.387196
O	-2.359569089	-3.0516673907	-2.0863850372	-0.311376
C	-1.5100295992	-2.0977502666	 0.0831924139	 0.166724
C	-0.1912766312	-2.8250179951	 0.3848647442	-0.436342
C	-2.6190770718	-2.5590847845	 1.0267126922	-0.443653
H	 0.6401913951	 2.2383681044	 0.5272741221	 0.114084
H	-0.1795573294	 1.862569486	-0.9934751681	 0.120041
H	-1.1270338669	 2.1985601008	 0.4599402066	 0.116021
H	 0.744265774	-0.2196793578	 0.1030032114	 0.095982
H	-0.2023421246	 0.1138960131	 1.5423275676	 0.098028
H	-2.3085503383	-0.0601765754	 0.1872434718	 0.073594
H	-2.1005883546	-0.1408103733	-2.2877248064	 0.125757
H	-0.4249333214	-0.7101121193	-2.148483333	 0.125754
H	 0.606746919	-2.5517649811	-0.3122944034	 0.117033
H	 0.1556944628	-2.5978932676	 1.3985792298	 0.119597
H	-0.3386485053	-3.9068339875	 0.3105725451	 0.129692
H	-2.7865551888	-3.6360425419	 0.9254497713	 0.131232
H	-2.354766084	-2.3529516535	 2.0702014941	 0.114316
H	-3.565472903	-2.0531489359	 0.8108870774	 0.116271
64.2132	93.2164	152.5444	175.6034	185.3082	224.3059	238.607	278.3459	298.0411	311.5687	393.6957	425.9564	496.8371	565.7815	643.7386	712.4071	754.2257	785.851	870.0628	915.512	949.7602	960.3717	978.5221	990.9203	1039.8733	1065.6464	1081.8843	1116.4402	1155.6527	1185.3583	1210.598	1230.1707	1254.8261	1283.0391	1301.6997	1342.9084	1393.2244	1397.1336	1412.716	1417.1309	1441.77	1480.2729	1484.4176	1488.0967	1499.8155	1501.9693	1506.1554	1507.4762	1882.4893	3018.296	3026.5637	3029.8037	3032.0474	3034.7161	3042.9957	3057.4095	3094.857	3098.7832	3101.6799	3104.1168	3105.2204	3108.8219	3111.2081
CCC1CC(=O)C1(C)C	CC[C@H]1CC(=O)C1(C)C	
InChI=1S/C8H14O/c1-4-6-5-7(9)8(6,2)3/h6H,4-5H2,1-3H3	InChI=1S/C8H14O/c1-4-6-5-7(9)8(6,2)3/h6H,4-5H2,1-3H3/t6-/m0/s1
