14
gdb 15219	2.83636	1.65079	1.3351	3.5658	65.31	-0.2466	-0.0266	0.2199	939.3305	0.103945	-382.492457	-382.48411	-382.483166	-382.525493	29.598	
O	-0.0853337142	 1.3960459335	 0.0684648719	-0.416229
C	-0.0888101021	 0.0118485963	-0.0036532704	 0.104189
C	-1.41091821	-0.7401846622	-0.0202120439	-0.169471
C	-2.6952719835	 0.0027165172	 0.0368438707	 0.17574
O	-3.6796350779	-0.4281235067	 0.5863209485	-0.267772
C	-0.5151527343	-0.6666699968	-1.2813922622	-0.267391
C	-0.8614352216	 0.1681919986	-2.3929338085	 0.287159
C	-1.0878462692	 0.9195796871	-3.3060726135	-0.420847
H	-0.0536088108	 1.7495182422	-0.830697893	 0.297264
H	 0.7175799154	-0.4512786368	 0.5597552847	 0.121416
H	-1.4398534602	-1.7058181619	 0.4723231546	 0.118691
H	-2.6930581011	 0.9946180574	-0.4555690459	 0.089391
H	-0.0199314777	-1.5982152799	-1.5366870127	 0.135654
H	-1.3200921827	 1.5512838919	-4.1281295604	 0.212204
80.5099	123.2662	130.6568	180.0951	230.7771	294.6186	377.5711	452.4016	494.2329	604.3641	618.0274	649.3401	675.0675	764.5096	811.6047	906.9948	967.5588	990.3484	1044.1859	1112.4711	1125.2421	1164.825	1226.8075	1327.8425	1353.5735	1356.0338	1409.4532	1441.8959	1813.2335	2228.6766	2943.4715	3138.0678	3158.9853	3183.9652	3499.6478	3746.4701
OC1C(C=O)C1C#C	O[C@H]1[C@@H](C=O)[C@H]1C#C	
InChI=1S/C6H6O2/c1-2-4-5(3-7)6(4)8/h1,3-6,8H	InChI=1S/C6H6O2/c1-2-4-5(3-7)6(4)8/h1,3-6,8H/t4-,5+,6-/m1/s1
