16
gdb 69876	2.75695	1.64959	1.18825	2.9261	76.65	-0.2188	0.0175	0.2363	1033.7766	0.121495	-400.618095	-400.609957	-400.609012	-400.650394	31.74	
C	-0.1495899716	 1.5314068089	 0.1355496775	-0.521923
C	 0.0923216384	 0.062591966	 0.0617524691	 0.379424
O	-0.7915433061	-0.8508315191	 0.6990332935	-0.253479
C	 0.6074653447	-0.9476044112	 0.9870156319	-0.063164
C	 1.3101586538	-1.7136271864	-0.1836073055	-0.176508
N	 0.285230529	-2.0989670708	-1.1646008247	-0.352605
C	 0.7968227631	-0.6959478926	-1.1526467776	 0.149095
C	 1.4282323342	-0.0822941524	-2.2601154824	 0.174148
C	 1.947178051	 0.4724706005	-3.1953241489	-0.408234
H	 0.7411536268	 2.0831106841	-0.1792647292	 0.136876
H	-0.9741735003	 1.8188239037	-0.5259403499	 0.140668
H	-0.4077936967	 1.8221743745	 1.1569895806	 0.136371
H	 0.9253137082	-0.8915113055	 2.0208672459	 0.11315
H	 2.2897000485	-2.1713217354	-0.1482164688	 0.115287
H	 0.7694549336	-2.5677676799	-1.9318035616	 0.241138
H	 2.4084486533	 0.9553125455	-4.02081861	 0.189756
126.6994	130.8926	188.4199	242.9047	286.3446	413.1918	440.3068	478.0516	501.9278	556.0598	568.5373	607.3982	667.3683	693.7286	775.7423	820.6475	839.05	861.8947	878.752	954.4238	991.0549	1006.59	1028.045	1103.8539	1116.8499	1166.1092	1220.4749	1252.6777	1316.7254	1373.5608	1404.5564	1466.1547	1482.6097	1497.9038	2225.3619	3039.3683	3105.0014	3127.2704	3193.639	3212.0716	3466.1028	3502.0275
CC12OC1C1NC21C#C	C[C@]12O[C@H]1[C@H]1N[C@@]21C#C	
InChI=1S/C7H7NO/c1-3-7-4(8-7)5-6(7,2)9-5/h1,4-5,8H,2H3	InChI=1S/C7H7NO/c1-3-7-4(8-7)5-6(7,2)9-5/h1,4-5,8H,2H3/t4-,5+,6+,7-/m1/s1
