20
gdb 90362	2.32263	1.5406	1.31549	2.9839	80.3	-0.255	0.0293	0.2843	1103.1184	0.170447	-403.150457	-403.141709	-403.140765	-403.18359	33.664	
C	 0.4468515608	 1.5593341567	 0.0556183857	-0.408979
C	 0.137615544	 0.0697760525	 0.0482496135	-0.022117
C	 0.9428721526	-0.8618828931	-0.9152098817	-0.258183
C	 1.3526540916	-1.7678259554	 0.2898376211	-0.220666
C	 2.5946719	-1.2643203075	 0.9756824097	 0.432153
N	 3.8180533368	-1.5343264136	 0.9093536031	-0.555964
O	 1.9252954275	-0.335166388	 1.7547475295	-0.299109
C	 0.6140033327	-0.7891584938	 1.2532346615	 0.430802
C	-0.3169034752	-1.1453763702	 2.3781075435	-0.480941
H	 1.5088662477	 1.7380582229	 0.2436805468	 0.132959
H	 0.1884994023	 2.0110132487	-0.9079366962	 0.116338
H	-0.123596616	 2.0812296414	 0.8316671739	 0.116648
H	-0.9378752711	-0.0868147136	-0.0911570418	 0.075541
H	 0.324961179	-1.3753883932	-1.6537715255	 0.109726
H	 1.7855214254	-0.3956946953	-1.4307866024	 0.119362
H	 1.1893060627	-2.8414791338	 0.2272076585	 0.098032
H	 4.3605852235	-0.9454447713	 1.5441704321	 0.224551
H	-0.5774237653	-0.2525093001	 2.9573226967	 0.133768
H	-1.2425652938	-1.5778393242	 1.98605319	 0.123972
H	 0.1466938647	-1.8677955489	 3.0562083621	 0.132107
78.2919	167.7918	198.729	210.0323	225.0654	276.417	308.0407	384.9849	421.6758	523.4641	596.0053	618.2657	704.6743	786.9899	801.6918	859.0844	869.4795	878.3943	901.2081	947.6218	993.5228	1002.1623	1023.9631	1082.1003	1102.5979	1122.6598	1146.8269	1181.5017	1193.5332	1232.8721	1260.3198	1266.0378	1310.4192	1328.6294	1367.105	1408.8345	1414.4265	1481.8844	1486.3621	1488.9754	1492.8733	1498.2241	1819.3162	3033.7582	3034.3842	3042.6414	3071.5388	3096.426	3103.5108	3115.9605	3118.4444	3124.8224	3142.8183	3470.2373
CC1CC2C(=N)OC12C	C[C@H]1C[C@H]2[C]([NH])O[C@@]12C	
InChI=1S/C7H11NO/c1-4-3-5-6(8)9-7(4,5)2/h4-5,8H,3H2,1-2H3	InChI=1S/C7H11NO/c1-4-3-5-6(8)9-7(4,5)2/h4-5,8H,3H2,1-2H3/t4-,5-,7-/m0/s1
