17
gdb 88332	4.27282	0.80993	0.77641	2.2837	75.75	-0.2637	-0.0325	0.2312	1500.9882	0.135034	-455.159856	-455.150686	-455.149741	-455.194572	32.569	
C	 0.6001159839	 1.236215068	-0.8395645756	-0.435507
C	-0.0926223413	 0.1457590633	-0.0678068433	 0.085691
O	 0.6571043494	-1.0189588807	 0.259118777	-0.227965
C	 0.2142614649	-0.2140689766	 1.3410934374	-0.080707
C	 1.2795004645	 0.5036876057	 2.1299642587	 0.428429
O	 2.3760157933	 0.7860576167	 1.6961764348	-0.353442
N	 0.8733181941	 0.8318863803	 3.4113474334	-0.321856
C	 1.6629280446	 1.5266893029	 4.3156692828	 0.105418
N	 1.2143773891	 1.7949521091	 5.4726801872	-0.463216
H	 1.5985152713	 1.4191851626	-0.4424933128	 0.16988
H	 0.6826086037	 0.9437868722	-1.8914576137	 0.132244
H	 0.0133781607	 2.1600152266	-0.7950109012	 0.12141
H	-1.1158463096	-0.0723988211	-0.3826482886	 0.09972
H	-0.587798262	-0.6548044795	 1.936872731	 0.095583
H	-0.0437656779	 0.5657175031	 3.7418879222	 0.264416
H	 2.6407103978	 1.7763262055	 3.9001738809	 0.144088
H	 1.9113876737	 2.3037454619	 6.0132778599	 0.235813
42.562	124.4647	145.6376	166.031	196.256	230.4241	283.9203	357.1271	396.1116	449.5076	503.8881	630.6353	730.1561	773.9612	812.4316	834.5395	848.3702	956.3584	1004.6026	1043.069	1075.6063	1083.4441	1089.3116	1160.3693	1168.8586	1177.7341	1289.1806	1306.7164	1387.0611	1393.6708	1416.0396	1451.6738	1494.5053	1499.8452	1502.4165	1728.5854	1798.8761	3042.1574	3078.078	3090.8092	3102.3995	3128.4704	3161.6079	3508.3618	3607.2579
CC1OC1C(=O)NC=N	C[C@H]1O[C@H]1C(=O)NC=N	
InChI=1S/C5H8N2O2/c1-3-4(9-3)5(8)7-2-6/h2-4H,1H3,(H2,6,7,8)	InChI=1S/C5H8N2O2/c1-3-4(9-3)5(8)7-2-6/h2-4H,1H3,(H2,6,7,8)/t3-,4-/m1/s1
