22
gdb 107243	2.82582	1.41837	1.09771	1.7033	85.4	-0.2113	0.0797	0.2911	1201.8461	0.193387	-367.135795	-367.126773	-367.125829	-367.169186	35.467	
C	 2.2081019734	 1.9688037067	 0.3977475313	-0.390982
C	 1.0107882231	 1.5401318055	-0.4568983904	-0.2865
C	 1.2783874151	 0.3918099546	-1.3995190912	 0.295858
C	 2.2436110679	-0.7363371452	-1.136876449	-0.366137
C	 2.4050714174	 0.1137809033	-2.3700386821	-0.04852
N	 1.4702722973	-0.1396006261	-3.5344328786	-0.177256
C	 0.5613575894	-1.2641448926	-3.2168605397	-0.295941
C	 0.3177474667	 0.0522312025	-2.5838930451	 0.270268
C	-0.8509262531	 0.9253923422	-2.9445909336	-0.481919
H	 2.5189708897	 1.1785958863	 1.0878897351	 0.12105
H	 3.0697364182	 2.2310607715	-0.2257718515	 0.120348
H	 1.9530459101	 2.8475021663	 0.9972954417	 0.114882
H	 0.1754870402	 1.2714751556	 0.2055078759	 0.100294
H	 0.6664077557	 2.4058603861	-1.0356382684	 0.103233
H	 2.988691729	-0.5066985147	-0.3815849604	 0.114542
H	 1.9654587792	-1.7840604516	-1.1442394812	 0.109049
H	 3.3154761275	 0.6590764904	-2.5877237454	 0.097686
H	-0.0732447178	-1.5154495708	-4.0627526226	 0.115577
H	 0.9157603674	-2.1302027332	-2.6718003272	 0.11511
H	-1.6812177138	 0.7847542513	-2.2424336052	 0.118459
H	-0.5797181857	 1.9858514481	-2.9398462393	 0.124817
H	-1.209032727	 0.6788075037	-3.9479990234	 0.126082
72.1444	134.6444	178.2917	202.9799	246.3009	308.544	332.762	393.4904	439.9684	493.2598	511.0289	607.2398	618.5727	718.5897	777.7229	794.6606	820.0453	875.1557	912.3259	935.3888	968.8844	984.7377	1002.7174	1031.8479	1053.0994	1072.7265	1088.4288	1103.4436	1112.8841	1128.8415	1143.9315	1158.6668	1255.9789	1280.165	1303.9839	1344.8833	1374.8521	1392.0354	1409.7525	1417.8054	1476.9519	1486.1909	1491.1689	1497.5859	1500.4805	1511.0395	1528.7016	3004.8513	3029.6549	3036.3311	3044.7653	3093.0779	3103.7727	3109.4767	3113.1598	3122.3364	3137.3059	3179.8376	3203.2404	3214.3426
CCC12CC1N1CC21C	CC[C@]12C[C@H]1N1C[C@@]21C	
InChI=1S/C8H13N/c1-3-8-4-6(8)9-5-7(8,9)2/h6H,3-5H2,1-2H3	InChI=1S/C8H13N/c1-3-8-4-6(8)9-5-7(8,9)2/h6H,3-5H2,1-2H3/t6-,7+,8+,9?/m1/s1
