21
gdb 78552	2.55722	1.46544	1.13458	1.997	83.59	-0.2518	0.0836	0.3354	1173.3837	0.181266	-387.048669	-387.039768	-387.038824	-387.081714	34.684	
C	 0.0738765541	 1.5806767993	 0.0242558558	-0.422771
C	 0.1318550985	 0.0672999952	 0.0867800228	-0.055076
C	 1.3577764262	-0.7660156019	-0.2212363021	-0.214908
C	 2.5927340426	-0.1259771023	 0.3571790569	 0.475653
C	 3.9909602178	-0.3242513719	-0.0174126134	-0.273534
O	 3.330041223	 0.9268791991	-0.2555336633	-0.279753
C	 1.9828638231	-0.075258059	 1.7690171657	-0.394654
C	 0.7258674773	-0.760086571	 1.194583192	 0.336366
C	-0.0192415283	-1.8534143292	 1.9050777065	-0.495318
H	 1.0036042562	 2.0481309578	 0.3546042029	 0.140941
H	-0.105579982	 1.9118360615	-1.004117318	 0.119599
H	-0.7425156452	 1.966409778	 0.6454422694	 0.110516
H	-0.7643569241	-0.4068360176	-0.3128811695	 0.08143
H	 1.3502595755	-1.5445317061	-0.9762302673	 0.082045
H	 4.7652960756	-0.3072543079	 0.7495833655	 0.110766
H	 4.2393794115	-0.8965750638	-0.911265467	 0.112319
H	 2.5221104875	-0.709379228	 2.4788532927	 0.104682
H	 1.8511295075	 0.9167277508	 2.2110378639	 0.106691
H	-0.5846821715	-1.4589677062	 2.7584313625	 0.121253
H	-0.7336791729	-2.3452912224	 1.2368486604	 0.118171
H	 0.6639579278	-2.6197324344	 2.2897293537	 0.115584
101.9565	177.7174	198.3698	208.9163	227.9112	273.7269	317.6519	360.523	402.0982	471.7862	496.6829	595.1581	666.8935	734.4295	798.0165	834.7308	885.0541	917.7926	934.9156	947.3792	964.108	997.1869	1045.0479	1053.7307	1099.3005	1121.7629	1124.3315	1141.4228	1158.0116	1163.3406	1190.3813	1222.1568	1256.6292	1287.7676	1335.013	1416.502	1418.4309	1440.9992	1461.9421	1483.4564	1487.187	1497.205	1502.6202	1506.0748	1538.3147	3018.2264	3034.064	3049.4748	3071.5401	3074.6754	3090.5531	3094.912	3098.1783	3108.9482	3135.1312	3155.7329	3170.2922
CC1C2C3(CO3)CC12C	C[C@H]1[C@H]2[C@]3(CO3)C[C@@]12C	
InChI=1S/C8H12O/c1-5-6-7(5,2)3-8(6)4-9-8/h5-6H,3-4H2,1-2H3	InChI=1S/C8H12O/c1-5-6-7(5,2)3-8(6)4-9-8/h5-6H,3-4H2,1-2H3/t5-,6+,7-,8+/m0/s1
