20
gdb 26189	3.73113	0.99816	0.81609	0.6962	83.61	-0.196	0.0403	0.2363	1438.3554	0.170809	-403.195185	-403.18559	-403.184646	-403.229867	35.69	
C	 0.2910252456	 1.2217101014	-0.5648502131	-0.397888
C	-0.0078206012	-0.0063117258	 0.2927048934	 0.007231
O	 0.2206534786	 0.2471282246	 1.6866870672	-0.432967
C	-1.3942641133	-0.5447190651	 0.0823342779	 0.312914
C	-2.3159789972	-0.4169917687	-0.9354397114	-0.357047
C	-3.4620022579	-1.2000993053	-0.5989400444	 0.287393
C	-4.7123218306	-1.3631538345	-1.410298882	-0.498367
C	-3.1956102332	-1.7771931117	 0.623317436	-0.180969
N	-1.9434837923	-1.3828241819	 1.0210976957	-0.295046
H	 1.2996144814	 1.5842543753	-0.3513083409	 0.121926
H	 0.2253048231	 0.9808697403	-1.630036691	 0.125958
H	-0.4248867896	 2.0243554566	-0.3564312691	 0.113985
H	 0.7327889307	-0.7833747398	 0.0582187071	 0.100944
H	-0.3967223584	 0.9400179201	 1.9505686879	 0.277055
H	-2.1871234752	 0.1655942818	-1.835627329	 0.085591
H	-4.5067814511	-1.8055630021	-2.3924121475	 0.12176
H	-5.4304882577	-2.0134107785	-0.9017575641	 0.11587
H	-5.2091472301	-0.4026006754	-1.5919081448	 0.12071
H	-3.8002091154	-2.4252095575	 1.2386336962	 0.110589
H	-1.4937522161	-1.5902770737	 1.8964011461	 0.260358
50.5295	100.6123	135.8802	160.9825	237.1321	273.3288	313.4727	329.48	366.8298	456.7403	486.7153	542.7882	603.9392	642.6752	683.5719	721.0258	738.0141	811.2211	885.9294	977.877	986.3607	1003.3212	1032.5878	1064.0185	1081.3061	1104.0724	1136.0371	1182.0449	1250.6228	1278.6623	1309.4637	1360.9346	1399.1039	1413.8935	1419.1118	1421.5648	1457.6295	1483.4519	1488.5365	1492.3399	1503.1061	1536.9901	1628.5355	3009.8801	3021.3128	3037.1501	3067.9078	3100.7108	3108.4383	3125.7511	3239.5089	3253.2657	3676.1799	3783.7932
CC(O)C1=CC(C)=CN1	C[C@@H](O)c1cc(C)c[nH]1	
InChI=1S/C7H11NO/c1-5-3-7(6(2)9)8-4-5/h3-4,6,8-9H,1-2H3	InChI=1S/C7H11NO/c1-5-3-7(6(2)9)8-4-5/h3-4,6,8-9H,1-2H3/t6-/m1/s1
