17
gdb 54373	3.24001	1.33724	1.24227	2.2736	73.33	-0.2352	-0.0184	0.2168	1067.496	0.134882	-421.777986	-421.770097	-421.769153	-421.811052	29.554	
C	 0.1370560431	 1.4144494019	 0.410048564	-0.494744
C	 0.0308635671	-0.0009081363	-0.1232112261	 0.219505
O	 0.9503658723	-0.5605109212	-0.6868000693	-0.324009
C	-1.2615392184	-0.6802743479	 0.0565911897	 0.244832
C	-1.5875759302	-2.174479307	 0.2821618435	-0.155101
C	-2.5825178649	-1.8114218071	 1.3887525965	-0.231724
C	-2.6979142033	-0.4468587391	 0.6652532379	-0.022646
O	-3.3190092374	-0.7933840032	-0.6084193267	-0.285797
C	-2.1029787903	-1.4507458906	-0.9410194396	 0.060232
H	 1.1340126619	 1.8088863679	 0.2104155964	 0.14362
H	-0.6172164811	 2.0550673021	-0.0611265333	 0.143976
H	-0.0591019703	 1.4315436657	 1.4884668969	 0.136542
H	-0.8783897556	-2.9893262418	 0.2277570615	 0.118995
H	-3.5067764903	-2.3905505004	 1.4744024892	 0.109642
H	-2.0863820661	-1.7219246956	 2.3576178634	 0.112421
H	-3.1154725384	 0.4481332258	 1.1206327873	 0.094015
H	-1.8926170178	-1.7082450634	-1.9698752711	 0.130241
56.7986	132.8094	143.3903	152.4487	333.9207	419.3293	481.5319	542.8272	589.7571	615.6354	754.5913	768.2295	833.7434	851.4968	882.7852	915.8234	938.2487	962.6302	992.3446	1004.5996	1034.4022	1049.2575	1073.6067	1103.0435	1108.8982	1147.5011	1175.6295	1225.1992	1255.8857	1287.3436	1322.7809	1377.2965	1421.6621	1462.2488	1474.2989	1486.0005	1773.0359	3033.1214	3056.6294	3093.3626	3123.5053	3152.0117	3152.7915	3216.5847	3227.4447
CC(=O)C12C3CC1OC23	CC(=O)[C@@]12[C@H]3C[C@@H]1O[C@@H]23	
InChI=1S/C7H8O2/c1-3(8)7-4-2-5(7)9-6(4)7/h4-6H,2H2,1H3	InChI=1S/C7H8O2/c1-3(8)7-4-2-5(7)9-6(4)7/h4-6H,2H2,1H3/t4-,5-,6+,7+/m0/s1
