21
gdb 116973	6.96709	0.3972	0.38863	2.8055	90.95	-0.2441	-0.0254	0.2188	2794.3858	0.17926	-387.083709	-387.072477	-387.071532	-387.123352	37.682	
C	 0.2270499463	 1.5427994058	-0.0854692341	-0.381811
C	 0.3094550134	 0.0162133018	-0.0342371175	-0.153509
C	 0.2142093876	-0.5286147958	 1.4057511812	-0.336168
C	 0.2945721798	-1.9834550849	 1.4791142945	 0.080334
C	 0.354332517	-3.1862468946	 1.5080055648	 0.070011
C	 0.4588784182	-4.6389991962	 1.5620553295	-0.365413
C	 1.875181418	-5.1210011952	 1.9569157627	-0.259186
C	 1.9305943843	-6.6224119718	 2.124446053	 0.155835
O	 2.7350828231	-7.3478348748	 1.6006117635	-0.232975
H	 1.0395047992	 2.0044309499	 0.486869001	 0.116065
H	 0.2964510383	 1.9077250479	-1.1145207841	 0.115721
H	-0.7188969054	 1.9046968073	 0.3328950286	 0.115975
H	-0.4944409238	-0.4259713693	-0.6332637081	 0.108891
H	 1.2498834978	-0.3265229427	-0.4800460169	 0.108867
H	 1.0154486877	-0.0858877341	 2.0131756146	 0.124725
H	-0.726842069	-0.188933132	 1.8596077984	 0.125076
H	-0.2711544868	-5.0380246474	 2.2795516275	 0.131414
H	 0.1909553489	-5.068306641	 0.5879999739	 0.14014
H	 2.6212015816	-4.8130582331	 1.2207976451	 0.133024
H	 2.1408201133	-4.6679190256	 2.9216941498	 0.132657
H	 1.1426215804	-7.0356548644	 2.7994726425	 0.070327
12.7886	52.7421	59.5817	76.8533	106.4682	120.8231	241.8071	264.7008	276.1458	294.041	364.1716	453.8253	502.5394	543.3025	743.324	755.5524	788.1096	849.5855	873.5226	895.1749	989.5296	1042.293	1075.8406	1092.8612	1108.8958	1123.7909	1167.5232	1198.6313	1260.113	1263.5414	1303.6457	1306.9907	1322.56	1363.2961	1381.5691	1413.8219	1430.7459	1462.0231	1473.0684	1481.2737	1491.9463	1499.4359	1509.2807	1838.764	2368.9253	2842.6169	3008.3895	3011.8824	3028.7395	3029.97	3034.8052	3041.477	3045.5488	3073.2674	3100.2432	3106.308	3117.2439
CCCC#CCCC=O	CCCC#CCCC=O	
InChI=1S/C8H12O/c1-2-3-4-5-6-7-8-9/h8H,2-3,6-7H2,1H3	InChI=1S/C8H12O/c1-2-3-4-5-6-7-8-9/h8H,2-3,6-7H2,1H3
