19
gdb 52414	8.83974	0.47426	0.46738	3.0812	74.96	-0.2557	-0.0274	0.2284	2256.7936	0.155827	-460.130105	-460.120033	-460.119088	-460.167581	33.649	
O	-0.230877999	 0.1371419413	 0.1317804437	-0.231618
C	-0.0406334351	 1.3229918056	 0.0570158825	 0.152723
C	 1.3106128521	 1.973352879	-0.1325216406	-0.280496
C	 1.3381793273	 2.8937899691	-1.3525393589	-0.056562
O	 2.5445158757	 3.6214246295	-1.3231546887	-0.246346
C	 2.7001304408	 4.4881835634	-2.4268633079	-0.079877
C	 4.0091823277	 5.2129897038	-2.2828497341	 0.082307
C	 4.226369825	 6.5199572854	-2.9126766166	-0.181249
O	 4.0033923841	 6.411676439	-1.5076298405	-0.225327
H	-0.8898212986	 2.043140945	 0.1319055107	 0.074114
H	 1.5146455933	 2.5918859928	 0.7524683671	 0.13679
H	 2.0796293666	 1.2008149888	-0.2014054144	 0.131316
H	 1.2626514098	 2.3029356227	-2.2807701269	 0.101531
H	 0.4736494398	 3.5801839575	-1.3345648367	 0.09381
H	 2.6940537663	 3.9146506382	-3.3704587918	 0.093265
H	 1.8797068437	 5.2222383968	-2.4728950631	 0.097578
H	 4.8694536544	 4.5670466299	-2.1060051213	 0.103833
H	 5.2315461587	 6.8119511415	-3.2123248852	 0.119736
H	 3.4210472973	 6.9870011309	-3.4790473876	 0.114472
35.3163	46.7516	69.3382	95.1913	124.3559	151.0803	231.104	293.7771	369.5351	435.9201	509.2782	535.5196	789.3821	806.2278	868.5739	874.941	947.5709	989.8411	1004.961	1033.2809	1090.0592	1120.7907	1135.5958	1152.8232	1158.6684	1166.8017	1176.2751	1228.591	1270.1248	1277.4544	1293.3124	1308.2081	1366.1238	1424.9876	1431.7461	1467.0656	1469.4192	1496.638	1529.7501	1534.1629	1838.6103	2850.9627	2946.9709	2957.2704	2980.9189	2997.7076	3029.5968	3082.8856	3116.6541	3119.0953	3169.0629
O=CCCOCC1CO1	O=CCCOC[C@H]1CO1	
InChI=1S/C6H10O3/c7-2-1-3-8-4-6-5-9-6/h2,6H,1,3-5H2	InChI=1S/C6H10O3/c7-2-1-3-8-4-6-5-9-6/h2,6H,1,3-5H2/t6-/m0/s1
