15
gdb 124103	3.67652	1.6117	1.15595	1.8647	66.56	-0.2165	0.0152	0.2317	985.5024	0.116696	-453.952865	-453.946298	-453.945354	-453.983819	25.788	
C	 0.0287143266	 1.4185479965	 0.0095045177	-0.002676
O	 1.3223711787	 1.9379394919	-0.0097733885	-0.235082
C	 2.058384692	 1.6479569686	 1.1868943152	-0.193722
C	 1.8528088978	 0.2017842249	 1.5114474155	 0.220217
N	 2.5373241187	-0.5562781202	 2.3618780529	-0.305812
N	 1.9665981448	-1.7694012483	 2.2475577239	-0.184894
C	 0.9362469659	-1.8162780478	 1.3550077168	-0.176608
C	 0.8419636114	-0.5337215062	 0.8607917245	 0.26592
O	-0.0046857656	-0.0085349653	-0.064207582	-0.276003
H	-0.5052195821	 1.7305104706	 0.9231025672	 0.092769
H	-0.4821764176	 1.7786999382	-0.8836969752	 0.126954
H	 3.1032605852	 1.8797938805	 0.9659690052	 0.138705
H	 1.7288895195	 2.3081743572	 2.0041635852	 0.113578
H	 2.326338782	-2.5273957194	 2.800691247	 0.2773
H	 0.3851978425	-2.7179961112	 1.1483904848	 0.139355
125.7624	226.9611	331.9913	385.011	420.5147	458.2741	479.1142	588.0544	653.4119	697.8866	717.5229	757.2335	788.5008	948.8193	959.8397	999.6762	1028.9672	1061.1078	1098.5955	1136.1639	1200.3197	1230.6309	1251.5559	1318.0511	1325.3927	1368.5938	1419.8281	1443.1176	1478.7672	1492.6059	1507.4763	1540.7938	1641.0865	2961.5882	2984.4249	3096.43	3134.4121	3278.7063	3686.3153
C1OCC2=NNC=C2O1	C1OCc2n[nH]cc2O1	
InChI=1S/C5H6N2O2/c1-5-4(7-6-1)2-8-3-9-5/h1H,2-3H2,(H,6,7)	InChI=1S/C5H6N2O2/c1-5-4(7-6-1)2-8-3-9-5/h1H,2-3H2,(H,6,7)
