20
gdb 41028	3.29071	1.78778	1.51419	1.4992	83.84	-0.2019	0.0624	0.2642	947.1157	0.172913	-365.858169	-365.851424	-365.85048	-365.88876	29.107	
C	 0.0133132231	 1.5206873649	-0.1756868162	-0.15785
C	 1.5320167703	 1.5507980921	 0.1314333072	-0.362144
C	 1.4088420872	 0.0711139574	 0.5166445873	 0.414878
C	 2.3555452363	-0.8600539564	 1.3266906949	-0.17275
C	 1.4687231588	-2.0246991246	 0.8457744966	-0.235078
C	 1.6367157058	-1.097850651	-0.4067364781	 0.225385
C	 3.1584158054	-1.0190601105	-0.0557895196	-0.320048
C	 0.3325959925	-0.7415096425	-1.1513023565	-0.293603
N	-0.1080314673	 0.0512835805	 0.0911952574	-0.202237
H	-0.5854861714	 2.086677818	 0.5440264113	 0.106885
H	-0.2933648898	 1.8104714851	-1.1850494433	 0.101802
H	 2.1979044365	 1.771325072	-0.7100114634	 0.104073
H	 1.8088992867	 2.2062448512	 0.9611496129	 0.109267
H	 2.8094315965	-0.728118341	 2.313451359	 0.067718
H	 1.9452243433	-3.0061647005	 0.7753452583	 0.084639
H	 0.4660221979	-2.0813498541	 1.2698498737	 0.117289
H	 3.7031790179	-0.14268161	-0.413522818	 0.102244
H	 3.7620946449	-1.9275999055	-0.1435805919	 0.098424
H	 0.4452473951	-0.1020057763	-2.0340337925	 0.101335
H	-0.3305536094	-1.5768035986	-1.3891210593	 0.109771
171.1987	233.9819	313.2472	371.8963	461.6168	479.553	534.7077	582.3126	697.2769	731.6712	750.5033	792.0898	808.8073	851.9233	879.6756	915.515	942.4259	949.4508	963.1323	982.3258	1011.8899	1035.7801	1048.7788	1084.3162	1108.5344	1125.8273	1143.2145	1165.1758	1183.8405	1190.9219	1204.9442	1215.017	1223.0765	1248.4952	1260.0511	1277.9167	1298.9093	1317.3737	1477.0795	1489.4315	1492.7916	1509.5262	1526.1539	3033.4965	3038.4977	3046.2297	3048.7965	3056.2499	3069.274	3085.1014	3099.8565	3104.6571	3123.0126	3142.6367
C1CC23C4CC2(C4)CN13	C1C[C@]23[C@H]4C[C@@]2(C4)CN13	
InChI=1S/C8H11N/c1-2-9-5-7-3-6(4-7)8(1,7)9/h6H,1-5H2	InChI=1S/C8H11N/c1-2-9-5-7-3-6(4-7)8(1,7)9/h6H,1-5H2/t6-,7+,8-/m0/s1
