20
gdb 95693	2.88215	1.34783	1.03078	4.1228	76.25	-0.2555	0.0256	0.2811	1202.068	0.171831	-440.292733	-440.283917	-440.282972	-440.326571	32.866	
C	 0.0128947653	 1.5685574449	 0.0300582887	-0.409773
C	-0.0182652888	 0.0336598	-0.0140925351	 0.008511
C	 0.6768267973	-0.4993114635	-1.2825837295	-0.235246
C	 0.2190035428	-1.9137781473	-1.6483059521	-0.096307
O	-0.1037178608	-2.6895052013	-0.4895717797	-0.248518
C	 0.8595841161	-2.7742773201	 0.4846505552	 0.420209
N	 1.7581292744	-3.6581825069	 0.5525295457	-0.507109
O	 0.685464152	-1.9037776625	 1.4971675541	-0.235805
C	 0.6637556528	-0.4893546569	 1.2598527738	-0.057068
H	 1.0421752088	 1.9452418504	 0.0088247719	 0.121258
H	-0.5123284478	 1.9903418626	-0.8318624098	 0.120447
H	-0.4656136636	 1.9543046672	 0.9359070526	 0.120256
H	-1.0633175405	-0.2977166015	-0.0123117797	 0.097148
H	 0.4778566776	 0.1598485474	-2.1352390926	 0.104083
H	 1.7635769307	-0.4808874631	-1.1283797471	 0.11369
H	-0.7120099502	-1.8867493665	-2.2205371796	 0.121101
H	 0.9750073864	-2.4330974631	-2.2525831679	 0.107442
H	 1.6553718315	-4.302103782	-0.231605031	 0.226556
H	 1.7055739395	-0.1357543137	 1.267810787	 0.109664
H	 0.1664747262	-0.079260334	 2.142605985	 0.119462
64.9957	103.4896	157.9671	179.8408	227.1625	302.9318	330.7511	399.7378	427.9417	528.3812	564.1255	614.1772	781.2929	808.2952	836.1339	878.8812	885.6509	906.9421	954.1071	991.6813	996.402	1027.739	1079.74	1119.2716	1139.6446	1161.8792	1172.0762	1248.8634	1269.4331	1286.7346	1310.2552	1324.3942	1356.7894	1394.3055	1407.7309	1419.0582	1441.1208	1484.3445	1499.0591	1501.0274	1507.8778	1509.6533	1746.8694	2997.8906	3013.0908	3026.0818	3031.2918	3045.5581	3064.1186	3092.2444	3097.9641	3101.5281	3109.1935	3497.3123
CC1CCOC(=N)OC1	C[C@H]1CCO[C]([NH])OC1	
InChI=1S/C6H11NO2/c1-5-2-3-8-6(7)9-4-5/h5,7H,2-4H2,1H3	InChI=1S/C6H11NO2/c1-5-2-3-8-6(7)9-4-5/h5,7H,2-4H2,1H3/t5-/m0/s1
