20
gdb 126679	3.01305	1.22765	0.98127	3.7883	82.16	-0.1877	0.0448	0.2325	1261.7351	0.172221	-399.339483	-399.330168	-399.329224	-399.374147	34.084	
C	-0.3198442691	 1.6125789171	 0.0414691615	-0.384201
C	-0.0579339682	 0.1005857464	-0.0062229997	-0.172121
N	-1.251522612	-0.7403761432	 0.0072849573	-0.15679
C	-1.994882192	-0.8375119979	-1.2364310254	-0.336307
C	-2.0071476398	-0.8060276808	 1.165667582	 0.493804
C	-3.351520118	-1.0927427774	 1.3650364596	-0.340989
C	-3.5121129969	-1.0791255359	 2.768162995	-0.000974
N	-2.3883813176	-0.8000785016	 3.410404243	-0.245652
N	-1.4786726936	-0.6320831779	 2.4095062869	-0.29466
H	 0.6260701484	 2.1635195275	 0.0312392407	 0.11878
H	-0.9079532408	 1.9380307406	-0.8219281231	 0.125555
H	-0.8667888834	 1.8881231266	 0.947640795	 0.137387
H	 0.5014228296	-0.1536923522	-0.912617938	 0.112488
H	 0.5903081203	-0.1945164698	 0.8279468349	 0.102954
H	-2.6092945381	-1.7422611423	-1.2265621808	 0.139129
H	-2.6581042973	 0.0221796803	-1.4218477784	 0.116373
H	-1.2892322362	-0.9169037822	-2.0674604876	 0.123107
H	-4.0998371531	-1.2715255301	 0.6124259402	 0.093921
H	-4.4168190483	-1.2581016006	 3.3318063707	 0.103242
H	-0.5240118138	-0.4428620166	 2.6549339564	 0.264955
44.9686	81.9107	142.0804	189.2857	210.5679	263.1944	285.1705	386.0427	396.6434	444.3815	505.0111	606.7746	669.551	702.6145	743.7217	791.5587	879.6133	891.0608	931.3203	980.7355	1041.8609	1072.1798	1084.6172	1104.1707	1111.0848	1152.127	1201.4474	1239.8642	1277.259	1303.7497	1374.4517	1384.5661	1387.9478	1406.2682	1431.4523	1459.9498	1485.0389	1489.8747	1494.5081	1512.2637	1517.3555	1540.9258	1621.8689	2978.4445	3027.2992	3041.0289	3069.1652	3074.4968	3111.0849	3117.4307	3121.5155	3237.0959	3280.5564	3697.1735
CCN(C)C1=CC=NN1	CCN(C)c1ccn[nH]1	
InChI=1S/C6H11N3/c1-3-9(2)6-4-5-7-8-6/h4-5H,3H2,1-2H3,(H,7,8)	InChI=1S/C6H11N3/c1-3-9(2)6-4-5-7-8-6/h4-5H,3H2,1-2H3,(H,7,8)
