15
gdb 97051	6.26384	0.87163	0.77252	2.4445	84.05	-0.2563	-0.0814	0.1749	1402.2369	0.112789	-416.841616	-416.83319	-416.832245	-416.875771	29.315	
C	 0.0585886135	 1.4533710016	 0.009172526	-0.340642
N	 0.1512094764	 0.0064596841	-0.0619709744	-0.330021
C	 0.6239021272	-0.6442163948	 0.9096481388	 0.483235
O	 1.089215844	-0.1126556974	 2.0983746621	-0.260306
C	 1.5453941132	-1.1542789074	 2.9541661658	-0.175169
C	 1.3130886099	-2.4239596329	 2.1616779114	 0.176841
C	 0.7767027609	-2.0986445459	 0.9772159403	-0.306515
C	 1.6355777971	-3.7096350483	 2.6578245477	 0.220338
N	 1.9122346255	-4.7453065419	 3.0967888028	-0.318171
H	 0.622620177	 1.8846128389	-0.8258393797	 0.134897
H	-0.9873381335	 1.7475729865	-0.135126374	 0.134892
H	 0.4235715489	 1.8874451673	 0.9459728795	 0.129082
H	 2.6050589452	-1.0001052433	 3.192630952	 0.147105
H	 0.9764982765	-1.1386971432	 3.8920574671	 0.147105
H	 0.4870723182	-2.7566548335	 0.1724633147	 0.15733
40.1918	86.1957	135.5142	186.1967	241.6406	257.7915	391.7044	433.839	534.0828	568.9596	602.7233	694.4968	698.9737	875.9093	913.8875	929.3253	1029.0859	1031.3839	1067.9776	1127.483	1137.4596	1183.4043	1201.1407	1206.9459	1310.2901	1374.3722	1435.7063	1491.825	1493.0024	1504.2645	1664.2011	1772.2385	2341.8239	3019.3807	3024.7865	3060.4667	3077.6798	3095.1484	3267.1056
CN=C1OCC(=C1)C#N	C[N]C1=C[C](CO1)C#N	
InChI=1S/C6H6N2O/c1-8-6-2-5(3-7)4-9-6/h2H,4H2,1H3	InChI=1S/C6H6N2O/c1-8-6-2-5(3-7)4-9-6/h2H,4H2,1H3
