19
gdb 127105	2.55069	1.44149	0.99386	3.666	78.63	-0.2084	0.0019	0.2103	1216.8275	0.158572	-419.191966	-419.182784	-419.18184	-419.225964	33.624	
C	 0.4488920064	 0.9143188111	-0.5089875339	-0.340346
N	 0.0350651006	-0.2540905924	 0.2630046443	-0.159739
C	 0.4595121444	-0.1812214292	 1.6514963265	-0.333284
C	-1.2949300149	-0.65960193	 0.0853940614	 0.101216
C	-2.2856993848	-0.8152359649	 1.0095746222	-0.010545
O	-3.3919342425	-1.3216273267	 0.4325737316	-0.177206
N	-3.1494663296	-1.4982769472	-0.9208257201	-0.198381
C	-1.9121239037	-1.1169761849	-1.1309946443	 0.33181
C	-1.3190245443	-1.2315067212	-2.498265085	-0.503958
H	 1.5364555846	 1.0182622381	-0.4470201034	 0.123566
H	 0.1813582866	 0.7920135418	-1.5593916409	 0.131118
H	-0.0097823713	 1.8492167786	-0.1436593396	 0.107952
H	-0.032857497	 0.6330491959	 2.2135526876	 0.103336
H	 0.2409532827	-1.1280496122	 2.1530720662	 0.13187
H	 1.5390877404	-0.0094967217	 1.6900679656	 0.124142
H	-2.3445014943	-0.6433551331	 2.071643884	 0.141507
H	-1.9516325437	-1.8658918838	-3.1220145773	 0.14897
H	-1.2324253236	-0.2550933395	-2.9878054452	 0.137856
H	-0.3157616961	-1.6657320187	-2.4458711296	 0.140116
57.8011	151.3406	167.1753	199.8113	219.4201	260.7611	279.6938	301.78	374.973	434.021	506.3915	599.8961	614.1486	705.5784	714.7371	796.6278	909.0017	954.9535	959.1115	1030.4463	1065.9784	1071.9913	1121.3983	1152.7057	1171.9961	1180.3611	1227.6542	1283.552	1345.4526	1401.5645	1429.233	1443.5568	1470.4566	1474.7869	1483.1811	1486.1118	1494.0251	1502.2858	1513.0617	1543.5985	1653.9558	2942.4626	2961.1199	3037.5759	3068.7206	3077.2389	3094.9998	3115.9338	3136.8536	3140.2138	3275.5317
CN(C)C1=CON=C1C	CN(C)c1conc1C	
InChI=1S/C6H10N2O/c1-5-6(8(2)3)4-9-7-5/h4H,1-3H3	InChI=1S/C6H10N2O/c1-5-6(8(2)3)4-9-7-5/h4H,1-3H3
