15
gdb 14716	9.96934	0.62099	0.59107	5.647	77.1	-0.2774	-0.0501	0.2273	1793.5582	0.116946	-362.638332	-362.629363	-362.628419	-362.672991	29.896	
C	 0.0027232458	 1.5152184859	-0.028325667	-0.388458
C	 0.0192647538	-0.0023572343	-0.0285901471	-0.024373
O	 0.6872028591	-0.4395145803	-1.2036226709	-0.240233
C	 0.7529684714	-1.8421586605	-1.2927018392	-0.215005
C	 1.4468009552	-2.2272392611	-2.5143744064	 0.020787
C	 2.0180916884	-2.5744182792	-3.5191778065	 0.124155
C	 2.6648980864	-2.9639397085	-4.6569222279	 0.208516
N	 3.2146102438	-3.2974459201	-5.6242370893	-0.332912
H	 1.0222722057	 1.9097132922	-0.0380534978	 0.134734
H	-0.5213973773	 1.8929239385	-0.9102823088	 0.134747
H	-0.5064781116	 1.8866843806	 0.8656932769	 0.121658
H	 0.5384366781	-0.3889516195	 0.8640880482	 0.094513
H	-1.0068190005	-0.4056017202	-0.0080869551	 0.094516
H	 1.2851539276	-2.2741339415	-0.426668703	 0.133683
H	-0.2560962259	-2.2911494417	-1.2967056161	 0.133671
60.7319	64.5884	109.3804	152.1944	189.1231	244.8189	292.6705	359.4082	389.7821	505.8275	575.5706	586.4628	751.0406	824.339	906.4082	1018.3543	1035.5015	1133.6118	1145.5447	1178.2739	1186.9702	1245.8175	1297.7402	1376.4561	1407.8897	1446.4672	1483.6319	1489.069	1499.8425	1529.3478	2271.3898	2408.2552	2946.0187	2963.3636	2965.1667	2990.0612	3049.3641	3124.3281	3128.7622
CCOCC#CC#N	CCOCC#CC#N	
InChI=1S/C6H7NO/c1-2-8-6-4-3-5-7/h2,6H2,1H3	InChI=1S/C6H7NO/c1-2-8-6-4-3-5-7/h2,6H2,1H3
