22
gdb 26344	2.38142	1.33465	0.97905	1.6227	89.04	-0.1954	0.0541	0.2494	1310.4101	0.194163	-367.264658	-367.254769	-367.253825	-367.29941	37.215	
C	 0.353635127	 1.6832253673	-0.1615689375	-0.388578
C	-0.01704477	 0.2216834866	 0.1283107006	-0.076297
C	 0.2190166598	-0.6513116044	-1.121178519	-0.376664
C	 0.7026868131	-0.3334680828	 1.3329101276	 0.20146
C	 1.9119377532	 0.0837282409	 1.8467752558	-0.179855
N	 2.2162729422	-0.7050173227	 2.9270316658	-0.251263
C	 1.215486996	-1.6226762983	 3.120313538	-0.163481
C	 0.2582420977	-1.4269161262	 2.1513092886	 0.181655
C	-1.0140155315	-2.2065855038	 2.0009292303	-0.511417
H	 1.4106793524	 1.7755405077	-0.4370370445	 0.110011
H	-0.2349554792	 2.0742733352	-0.9979519464	 0.104401
H	 0.1763191764	 2.3198525328	 0.7102996796	 0.112804
H	-1.0944732737	 0.192060467	 0.3447470106	 0.070779
H	 1.2789068726	-0.6429284432	-1.398479859	 0.111339
H	-0.0676129258	-1.691829643	-0.9431322803	 0.115162
H	-0.359965597	-0.2814195989	-1.9750996584	 0.101746
H	 2.5736057993	 0.8777208236	 1.5406038782	 0.111905
H	 3.0351245604	-0.610241229	 3.5002251452	 0.256683
H	 1.2584821337	-2.3350868763	 3.9294080708	 0.110836
H	-1.8957070737	-1.5539643561	 1.9998694848	 0.121617
H	-1.0452071056	-2.779796788	 1.0662266003	 0.122334
H	-1.1356261172	-2.9182933483	 2.8230882889	 0.114823
43.8282	125.7104	153.0518	178.1012	237.1775	252.0305	266.6469	288.243	351.9505	412.2923	447.8996	491.1376	591.6331	639.1701	671.2359	698.9352	728.5907	763.726	883.9767	910.7188	926.2884	963.0141	1001.459	1062.4772	1080.7025	1087.5179	1099.3593	1128.7162	1173.0107	1208.5639	1261.3012	1324.6649	1339.271	1351.2765	1392.5605	1405.2347	1415.1816	1422.3492	1473.8215	1482.0552	1484.9326	1491.5884	1498.635	1501.8683	1510.8829	1557.1756	1618.9543	2996.2873	3017.328	3024.1952	3029.0753	3061.3388	3088.3237	3095.0015	3098.1748	3105.5371	3107.311	3252.2384	3262.0481	3691.8386
CC(C)C1=CNC=C1C	CC(C)c1c[nH]cc1C	
InChI=1S/C8H13N/c1-6(2)8-5-9-4-7(8)3/h4-6,9H,1-3H3	InChI=1S/C8H13N/c1-6(2)8-5-9-4-7(8)3/h4-6,9H,1-3H3
