20
gdb 98473	2.32486	1.36041	0.99635	2.8883	77.25	-0.2367	0.0328	0.2695	1267.8672	0.169333	-440.29663	-440.286519	-440.285575	-440.331948	36.172	
C	-1.5424750265	 1.5637866015	-0.0903672907	-0.332483
N	-1.2016958564	 0.158721136	-0.1718094552	-0.323986
C	-1.6532317679	-0.7546186345	 0.7297435552	 0.352412
O	-2.3230810088	-0.4773324634	 1.7127273975	-0.398271
C	-1.2787802714	-2.1818289204	 0.3969846915	 0.303324
C	-1.3627155496	-3.1981741648	 1.5110599838	-0.310778
C	-2.4115681182	-3.180378466	 0.4338239411	-0.294619
O	-0.3394173561	-2.3552242528	-0.628750794	-0.296038
C	 1.0130867752	-2.2349838299	-0.2047796585	-0.260797
H	-2.0184004815	 1.7289573687	 0.8771522028	 0.168625
H	-0.6474330432	 2.1902011241	-0.1653302061	 0.123201
H	-2.24207688	 1.8587868158	-0.8817031023	 0.12532
H	-0.7593423599	-0.2091000259	-0.9993350067	 0.256519
H	-0.6394822335	-4.0052172729	 1.4921594882	 0.117051
H	-1.6286901352	-2.8147363672	 2.4883175539	 0.145369
H	-3.3947016034	-2.7989677192	 0.6817561104	 0.13519
H	-2.3749371599	-3.9570285367	-0.3211243578	 0.124322
H	 1.63339849	-2.3865120602	-1.0911153331	 0.128305
H	 1.2203101239	-1.2424220587	 0.2162569217	 0.118025
H	 1.2675017325	-2.9934797035	 0.5456739382	 0.119309
72.2601	86.9759	114.2165	150.5074	168.5216	213.5881	257.7639	271.136	315.1903	354.1919	474.0425	492.625	560.8154	616.0325	758.1058	779.6721	794.9721	883.2225	930.4323	960.3899	977.7964	1057.2568	1071.2237	1087.9263	1092.1225	1153.6436	1174.1494	1184.8209	1201.6203	1204.1358	1226.4584	1300.1553	1323.1245	1436.2527	1439.3424	1471.5233	1481.9848	1489.4279	1494.2586	1500.7889	1510.0323	1564.1704	1768.5326	3007.7842	3024.8253	3067.4382	3078.6154	3122.9616	3144.6835	3146.2446	3150.4814	3236.3563	3249.3604	3634.4252
CNC(=O)C1(CC1)OC	CNC(=O)C1(CC1)OC	
InChI=1S/C6H11NO2/c1-7-5(8)6(9-2)3-4-6/h3-4H2,1-2H3,(H,7,8)	InChI=1S/C6H11NO2/c1-7-5(8)6(9-2)3-4-6/h3-4H2,1-2H3,(H,7,8)
