25
gdb 100783	2.95516	0.92838	0.75529	1.3032	89.26	-0.2546	0.0693	0.3239	1616.5287	0.226721	-389.483958	-389.472794	-389.47185	-389.520903	41.136	
C	 0.0020892726	 1.5460349189	-0.2391516365	-0.379277
C	 0.0186425533	 0.0253921112	-0.0611197704	-0.191795
C	-1.3895470517	-0.5797220239	 0.0474253423	 0.138113
O	-2.1743509298	-0.2178794818	-1.0879163731	-0.427838
C	-1.390092944	-2.1087514197	 0.2864556941	-0.033992
C	-0.7656601891	-2.4748020783	 1.6439836832	-0.399329
C	-2.795523933	-2.6802010655	 0.1825895126	 0.067151
C	-3.3557522699	-3.1773143994	-1.1212932401	-0.267096
C	-3.0072581126	-4.1594481359	-0.0295050405	-0.285811
H	 1.0143593815	 1.9401322015	-0.371041763	 0.105671
H	-0.5966891935	 1.8256571532	-1.1092064291	 0.127933
H	-0.4361905518	 2.0381942379	 0.6363565605	 0.11202
H	 0.5326646565	-0.444875508	-0.9129764906	 0.081487
H	 0.6022602518	-0.2341310488	 0.8284594807	 0.098564
H	-1.9115441748	-0.1056701856	 0.8911749227	 0.07964
H	-1.8147862943	-0.682056485	-1.8518294209	 0.273889
H	-0.7797905817	-2.5716867254	-0.5064754218	 0.054734
H	 0.2857271675	-2.1839498714	 1.7137124911	 0.114391
H	-1.3044471881	-1.9849183316	 2.4637873356	 0.113742
H	-0.8249005878	-3.5542029694	 1.8099237244	 0.117957
H	-3.5117654199	-2.1947330113	 0.8423396651	 0.079258
H	-4.4003548159	-2.9886430094	-1.3418902615	 0.112299
H	-2.7119331841	-3.1548142624	-1.9952509292	 0.093995
H	-2.1298229426	-4.7828168451	-0.1738895119	 0.105575
H	-3.8132921984	-4.6517104247	 0.5034840063	 0.108718
26.8958	81.4672	104.143	143.0264	193.6472	223.2206	241.5548	247.9389	272.6629	305.5329	346.2902	392.4128	438.5464	519.2659	535.1273	762.8298	779.628	818.9216	825.7548	852.4216	928.5562	939.3275	960.9978	985.777	1000.7569	1053.1878	1058.3177	1075.2414	1080.3783	1099.9254	1113.0726	1135.9945	1153.4824	1196.9585	1204.86	1230.4809	1253.0238	1270.1285	1317.1715	1328.749	1364.16	1382.5426	1403.1857	1409.4154	1415.4468	1423.815	1469.3782	1480.0825	1496.2587	1497.3951	1501.4667	1507.3155	1510.5037	2969.3898	2996.2636	3014.7247	3032.7276	3037.2063	3069.2914	3099.5777	3099.7996	3115.3797	3123.6784	3125.608	3127.0776	3129.8238	3201.4496	3216.936	3801.3535
CCC(O)C(C)C1CC1	CC[C@@H](O)[C@@H](C)C1CC1	
InChI=1S/C8H16O/c1-3-8(9)6(2)7-4-5-7/h6-9H,3-5H2,1-2H3	InChI=1S/C8H16O/c1-3-8(9)6(2)7-4-5-7/h6-9H,3-5H2,1-2H3/t6-,8+/m0/s1
