16
gdb 54348	1.89725	1.77924	1.25607	2.5316	71.11	-0.2389	0.0145	0.2534	1062.6459	0.122402	-437.861075	-437.851966	-437.851021	-437.895548	33.113	
N	 0.0668662703	 1.2343787821	 0.3762098633	-0.51684
C	 0.0811114835	 0.0231836257	-0.2260793465	 0.32354
O	 1.0057365327	-0.4440824679	-0.8571924464	-0.364903
C	-1.2372193988	-0.7678814051	-0.0339900113	 0.140788
C	-1.0404665733	-2.0757904637	 0.7853470843	-0.317229
C	-1.8336464226	-1.3467346208	 1.8843768916	-0.077675
O	-2.0709752285	-0.2042488048	 1.0221663396	-0.321121
C	-1.9380368499	-0.8769098983	-1.3009452965	 0.338721
C	-2.5271344378	-0.9649516379	-2.3443780852	-0.454312
H	 0.8760465858	 1.8283365924	 0.3081578872	 0.265353
H	-0.7331052945	 1.5046309349	 0.924432042	 0.276576
H	-1.5456035111	-2.9377637945	 0.3520130902	 0.131545
H	-0.0011810567	-2.3228492732	 0.9977030159	 0.140183
H	-2.7741247465	-1.8122895985	 2.1938830654	 0.119513
H	-1.2584679145	-1.066025138	 2.7740068499	 0.111325
H	-3.0405015879	-1.0408732625	-3.2712486535	 0.204536
43.2992	80.6831	136.194	174.3217	229.1757	297.3541	332.2668	407.7729	443.11	515.944	557.3991	625.0276	634.7322	645.3137	673.5933	763.7021	780.9756	860.8518	904.7277	976.043	1002.1469	1019.7898	1097.2869	1124.6238	1163.1738	1194.0555	1213.7971	1254.0899	1345.9115	1356.9686	1490.6864	1527.0098	1589.832	1811.0032	2236.3411	3034.2981	3084.9419	3104.3124	3165.4042	3500.5747	3593.6094	3735.738
NC(=O)C1(CCO1)C#C	NC(=O)[C@]1(CCO1)C#C	
InChI=1S/C6H7NO2/c1-2-6(5(7)8)3-4-9-6/h1H,3-4H2,(H2,7,8)	InChI=1S/C6H7NO2/c1-2-6(5(7)8)3-4-9-6/h1H,3-4H2,(H2,7,8)/t6-/m1/s1
