14
gdb 34155	2.93707	1.68459	1.36876	4.3461	66.22	-0.2654	-0.0155	0.2499	924.2985	0.101797	-436.620931	-436.614403	-436.613459	-436.651967	25.503	
N	-0.0405304224	-1.1164879935	 0.1109730027	-0.339321
C	-0.0391844512	 0.0394476391	 0.0829173836	 0.155596
C	-0.0131507546	 1.4730441626	-0.0046876369	 0.333852
O	-0.6583439649	 2.2850520874	 1.0218962069	-0.329045
C	-0.0866044586	 3.271508074	 0.0982392788	 0.00234
C	 1.2228365939	 2.4380028229	-0.0675610374	-0.12721
C	 1.6392988016	 2.5349655987	-1.5233712477	-0.118325
O	 0.3514963046	 2.5284258141	-2.1896189524	-0.260774
C	-0.5477490644	 2.4364299242	-1.1342064428	 0.063113
H	-0.214916077	 4.3261241167	 0.3297975455	 0.115626
H	 1.9618276117	 2.4096834718	 0.7296309543	 0.113753
H	 2.1725905599	 3.4618298607	-1.760159535	 0.12631
H	 2.2328879948	 1.681864238	-1.86793572	 0.13526
H	-1.5862697135	 2.3979675135	-1.4526927297	 0.128822
130.9464	157.8545	306.9756	376.746	465.6634	529.2705	541.6827	581.6133	704.9126	740.4958	782.817	808.8037	907.2601	928.6752	942.5381	968.1472	977.1086	1027.0291	1037.5585	1108.4284	1117.5579	1162.4146	1182.4135	1216.7485	1227.3269	1259.4164	1270.1156	1332.1347	1393.6813	1516.2477	2352.6072	3043.5975	3088.4459	3154.4726	3165.133	3176.8882
N#CC12OC3C1COC23	N#C[C@@]12O[C@H]3[C@@H]1CO[C@@H]23	
InChI=1S/C6H5NO2/c7-2-6-3-1-8-5(6)4(3)9-6/h3-5H,1H2	InChI=1S/C6H5NO2/c7-2-6-3-1-8-5(6)4(3)9-6/h3-5H,1H2/t3-,4-,5+,6+/m0/s1
