19
gdb 39051	2.37051	1.98519	1.30645	1.6618	79.19	-0.2289	0.0085	0.2373	1003.6997	0.161873	-385.859984	-385.852779	-385.851835	-385.891295	29.59	
C	-0.1286848001	 1.3136846362	-0.1492465527	-0.304199
C	 1.3261270604	 0.9138331005	 0.0035025706	-0.064163
C	 2.1262359186	 1.1986476091	 1.2207195572	-0.031671
C	 1.7613512541	 1.1483489151	 2.5052031048	-0.092844
C	 0.3991721004	 0.7497004181	 3.0304336661	-0.314048
C	-0.0522611055	-0.61808303	 2.53821487	 0.052068
O	-1.3215461693	-0.7223998039	 1.8863046503	-0.261697
C	-0.1382808503	-1.0014873637	 1.119145311	 0.053147
C	 0.2144509787	-0.1424159906	-0.0551446682	-0.045299
H	-0.6311672314	 1.7712262705	 0.6919453241	 0.13185
H	-0.444106555	 1.6975923171	-1.1128517244	 0.115586
H	 1.9074362256	 0.9846300247	-0.9103082135	 0.086613
H	 3.1514746549	 1.496083694	 1.0107026732	 0.086345
H	 2.5066220346	 1.4143394624	 3.2499262705	 0.088063
H	 0.419047234	 0.7355677009	 4.1244227159	 0.10487
H	-0.3616791009	 1.4895600893	 2.7598728405	 0.131447
H	 0.1442681326	-1.4303610197	 3.2401801578	 0.090643
H	-0.0135787993	-2.0652426806	 0.9100397107	 0.084396
H	 0.1768085279	-0.6891366092	-0.992468734	 0.088895
142.4865	185.6412	271.2107	320.5276	332.3405	425.0106	504.8196	552.1663	650.9153	705.3432	736.6262	759.7334	770.0027	810.4151	839.9495	896.2361	918.4681	957.2259	992.9953	996.7759	1031.2296	1035.4958	1051.3246	1081.6336	1119.0429	1134.322	1147.7101	1163.4998	1207.2275	1228.4522	1277.9991	1322.559	1348.5932	1386.3931	1411.884	1418.842	1434.3854	1472.891	1489.6642	1503.8961	1718.7221	3044.2951	3072.085	3084.8492	3096.8498	3134.9222	3145.9441	3149.5779	3158.116	3168.2073	3244.4158
C1C2C=CCC3OC3C12	C1[C@H]2C=CC[C@H]3O[C@H]3[C@@H]12	
InChI=1S/C8H10O/c1-2-5-4-6(5)8-7(3-1)9-8/h1-2,5-8H,3-4H2	InChI=1S/C8H10O/c1-2-5-4-6(5)8-7(3-1)9-8/h1-2,5-8H,3-4H2/t5-,6+,7-,8+/m1/s1
