14
gdb 128621	3.10741	1.44569	0.99283	1.8387	69.27	-0.2486	-0.0802	0.1684	1114.9372	0.102514	-466.167226	-466.159572	-466.158628	-466.199776	27.654	
C	-0.0358028164	 1.3723233242	 0.0478632624	-0.233492
O	 0.0335737656	-0.0558753341	-0.056098078	-0.221057
C	 0.6411244428	-0.5500191431	-1.1205091001	 0.494923
N	 1.1525200791	 0.2134586813	-2.0302257122	-0.403806
C	 1.7647515515	-0.4199266443	-3.1000482344	 0.440977
N	 2.3339664122	 0.1002839629	-4.109174551	-0.555816
N	 1.7312562942	-1.8269901579	-3.023194924	-0.216013
N	 1.1873227224	-2.5448401439	-2.0563010333	-0.013956
N	 0.627809752	-1.9513066037	-1.0787710809	-0.256795
H	 0.9677334625	 1.8035638934	 0.0765556079	 0.148464
H	-0.5773855536	 1.7925750237	-0.8029673994	 0.148511
H	-0.5670662435	 1.566660063	 0.9788786587	 0.144955
H	 2.2859501646	 1.1152209865	-4.0376693567	 0.228843
H	 2.1580365867	-2.3608945481	-3.7678900191	 0.294262
100.1713	144.8664	167.8913	222.6366	227.7219	421.8332	440.5886	506.7402	573.2085	622.2204	700.4465	730.0456	771.1194	810.6316	846.3607	969.1532	1004.6749	1061.2295	1125.7248	1179.8205	1184.8742	1229.2003	1291.6202	1379.9514	1409.5744	1478.9398	1480.831	1494.3088	1545.9096	1642.8691	1751.0807	3055.1284	3132.2693	3167.7577	3513.9436	3613.0563
COC1=NC(=N)NN=N1	COc1nc([NH])[nH]nn1	
InChI=1S/C3H5N5O/c1-9-3-5-2(4)6-8-7-3/h1H3,(H2,4,5,6,7)	InChI=1S/C3H10N5O/c1-9-3-5-2(4)6-8-7-3/h2-8H,1H3
