20
gdb 114925	5.20338	0.7947	0.71161	4.6988	88.28	-0.2584	-0.0384	0.22	1586.4438	0.171802	-366.056666	-366.047633	-366.046689	-366.090853	33.42	
C	-0.02245101	 1.5161400602	 0.1164382773	-0.386191
C	-0.0323699147	-0.0089907066	-0.0257736774	-0.192079
C	 0.7454962721	-0.5197755029	-1.2417357381	 0.038614
C	 2.2723418402	-0.2240977807	-1.2151847795	-0.266925
C	 2.8801258079	-1.4148470747	-1.9032647326	-0.151421
C	 1.9983221116	-2.4148860493	-2.0375061626	 0.201175
C	 0.6439764949	-2.0547312115	-1.4526965379	-0.3398
C	 2.2743033442	-3.6876699324	-2.6066751865	 0.198607
N	 2.4642904818	-4.7339333853	-3.0670899289	-0.33776
H	 0.9946943444	 1.9028794007	 0.2391765612	 0.11937
H	-0.4555117373	 1.9979539917	-0.7673216267	 0.117132
H	-0.6036999247	 1.8346784132	 0.98687075	 0.117422
H	 0.3832081826	-0.46834371	 0.8816022706	 0.097231
H	-1.0699164781	-0.359574803	-0.0957953717	 0.100964
H	 0.3376238885	-0.0390139043	-2.140098848	 0.083396
H	 2.5336161902	 0.721570892	-1.7015625166	 0.118271
H	 2.6520717607	-0.1528834604	-0.1842198381	 0.118473
H	 3.9167284248	-1.4629376493	-2.2155141878	 0.119688
H	 0.4915064114	-2.5862323386	-0.5032372933	 0.120427
H	-0.1864103706	-2.3374918885	-2.1065629235	 0.123406
57.5225	105.5424	145.9848	175.4514	217.7767	246.9917	362.9205	382.7506	413.0359	520.9338	571.8954	573.6011	635.9905	778.4527	834.0401	861.8444	874.2336	932.2302	950.5289	977.4344	989.9442	1031.488	1070.629	1122.191	1135.5767	1152.1838	1188.7412	1225.7582	1278.2785	1294.2649	1309.3572	1315.4941	1338.1496	1367.9054	1389.9706	1414.3808	1476.8602	1486.3404	1492.7836	1501.3748	1507.2805	1678.3064	2335.9787	2994.5233	3011.2003	3015.052	3024.71	3032.7806	3049.2805	3066.5393	3081.1777	3099.1696	3106.5662	3208.8372
CCC1CC=C(C1)C#N	CC[C@H]1CC=C(C1)C#N	
InChI=1S/C8H11N/c1-2-7-3-4-8(5-7)6-9/h4,7H,2-3,5H2,1H3	InChI=1S/C8H11N/c1-2-7-3-4-8(5-7)6-9/h4,7H,2-3,5H2,1H3/t7-/m0/s1
