21
gdb 78419	4.94519	1.21236	1.18935	0.1893	86.36	-0.2453	0.1065	0.3518	1140.7018	0.185235	-349.899415	-349.892401	-349.891457	-349.930368	29.844	
C	 0.0062127079	 1.5452979513	 0.0311697642	-0.426215
C	 0.0156329567	 0.0324065447	 0.0225147146	-0.013821
C	 1.3164559311	-0.6904663907	-0.2530085526	-0.075777
C	 0.7219974026	-0.7021398551	 1.1414813525	-0.075775
C	 0.4449372402	-2.1901748575	 1.3153520075	-0.017508
C	-0.0680993954	-2.7889055856	-0.0367976511	-0.063944
C	 0.674657401	-4.1091241574	 0.2687799338	-0.25723
C	 1.6502017109	-2.9930987793	 0.6939883283	-0.052718
C	 1.2590230907	-2.1741882556	-0.5943472542	-0.017507
H	 0.9432230603	 1.9450860825	 0.4338878164	 0.112718
H	-0.1176450195	 1.9474383523	-0.9805419656	 0.116027
H	-0.8117862291	 1.9337992328	 0.6480678737	 0.116027
H	-0.8945887113	-0.4130827359	-0.3692354492	 0.080588
H	 2.2007219256	-0.112906663	-0.5007530139	 0.076895
H	 1.1521004029	-0.1334973716	 1.959122056	 0.076895
H	-0.0014724344	-2.5430190758	 2.2471961203	 0.058672
H	-1.0675894037	-2.6824709492	-0.4619797016	 0.067143
H	 0.2581727635	-4.7322689826	 1.0655537238	 0.086851
H	 0.9648365492	-4.7183934512	-0.5921521376	 0.086851
H	 2.6507354555	-3.0980267757	 1.1196273254	 0.063155
H	 1.6242925944	-2.5110938073	-1.5665545588	 0.058672
182.8443	207.317	236.5867	335.363	376.0364	431.0943	476.4378	689.3719	736.4654	764.6318	802.9857	822.7114	828.0124	867.9251	892.8159	893.7802	917.406	957.1634	989.4179	995.6178	998.9248	1038.4841	1046.6153	1064.7392	1077.0103	1095.3898	1100.6716	1119.5648	1131.9697	1137.1728	1175.0427	1188.0111	1211.0464	1230.3335	1238.2981	1267.3849	1272.5883	1299.3674	1309.963	1346.0281	1414.761	1433.9139	1494.6677	1500.7292	1519.9247	3025.0432	3044.4363	3083.0672	3085.7059	3087.9348	3091.6899	3093.8923	3102.9865	3103.1557	3143.712	3160.3396	3170.2731
CC1C2C1C1C3CC1C23	C[C@H]1[C@H]2[C@@H]1[C@H]1[C@@H]3C[C@H]1[C@H]23	
InChI=1S/C9H12/c1-3-6-7(3)9-4-2-5(9)8(4)6/h3-9H,2H2,1H3	InChI=1S/C9H12/c1-3-6-7(3)9-4-2-5(9)8(4)6/h3-9H,2H2,1H3/t3-,4-,5+,6-,7+,8-,9+
