19
gdb 35706	2.31237	1.38395	0.96093	1.2533	81.51	-0.249	0.0407	0.2897	1254.5783	0.158208	-385.82001	-385.81111	-385.810166	-385.854562	33.005	
C	-0.1699596184	-1.2016383307	-0.3068358958	-0.475351
C	-0.0983260562	-0.0117615868	-0.147060047	 0.354284
C	-0.017433148	 1.4174235355	 0.0656314344	-0.274728
C	-0.0158142553	 1.9108692883	 1.53862663	-0.074125
O	 1.3073859442	 2.4539520566	 1.4126049451	-0.287202
C	 1.3979368907	 2.0964238259	 0.0125037408	 0.126691
C	 2.5959622343	 1.2644664813	-0.312399059	 0.023862
C	 3.1402586018	 1.2720558515	-1.7216343913	-0.26873
C	 3.9071253679	 1.9470259307	-0.6166235515	-0.275187
H	-0.236018684	-2.2511396937	-0.4541736502	 0.198926
H	-0.7506321655	 1.9310029325	-0.5614926597	 0.10917
H	-0.7637318852	 2.6819311487	 1.76106406	 0.102423
H	-0.0710822083	 1.1204693975	 2.2945383441	 0.113343
H	 1.3920520875	 2.9996937621	-0.6150939282	 0.069712
H	 2.6454566233	 0.3224012023	 0.2236034919	 0.095487
H	 3.5156139031	 0.3375993771	-2.1220675519	 0.116887
H	 2.6456077665	 1.9007036263	-2.455119389	 0.111412
H	 3.9290025815	 3.0316436138	-0.5990675463	 0.11723
H	 4.8159228302	 1.479492611	-0.2554013265	 0.115896
44.2722	75.9136	118.3848	190.5185	210.22	290.3939	346.5905	437.8611	504.4371	574.6841	621.5294	635.5949	750.9791	774.108	826.2137	838.1722	878.4327	923.3889	927.7178	978.8351	1011.9674	1024.8936	1061.429	1064.8404	1079.9653	1112.2787	1129.745	1166.9984	1183.3131	1196.1856	1220.789	1232.1647	1269.2176	1324.1379	1346.2873	1355.1663	1441.6911	1472.1508	1506.5954	1526.2598	2234.1757	2990.6873	3019.7348	3067.0186	3079.7132	3133.2823	3137.8578	3165.508	3212.134	3227.0426	3503.6807
C#CC1COC1C1CC1	C#C[C@H]1CO[C@H]1C1CC1	
InChI=1S/C8H10O/c1-2-6-5-9-8(6)7-3-4-7/h1,6-8H,3-5H2	InChI=1S/C8H10O/c1-2-6-5-9-8(6)7-3-4-7/h1,6-8H,3-5H2/t6-,8+/m0/s1
