21
gdb 95209	2.4757	1.63082	1.17009	2.4354	77.09	-0.2564	0.0734	0.3298	1115.4761	0.183987	-424.22913	-424.220757	-424.219813	-424.261751	33.323	
C	-0.1612975867	 1.5772809172	 0.0063837018	-0.40431
C	-0.0025544316	 0.0551325334	-0.0257662761	 0.018133
C	 0.6914885604	-0.4353715935	-1.3054074793	-0.213339
C	 0.6366171271	-1.9651234862	-1.4175176533	-0.252735
C	 1.076183715	-2.6522136995	-0.1459962823	 0.078538
O	 2.3075547542	-2.2050332091	 0.4405592137	-0.269362
C	 1.0785746713	-1.9425692367	 1.1444599655	-0.011952
C	 0.7380863031	-0.4535677798	 1.2321099258	 0.110783
O	 1.9273763032	 0.2788276276	 1.4951272405	-0.439131
H	 0.8166196402	 2.0651379196	 0.0110089971	 0.131752
H	-0.723885482	 1.9292462222	-0.8643580803	 0.103791
H	-0.6951901819	 1.9015243837	 0.9062514881	 0.108764
H	-1.0047425286	-0.4003671768	 0.0038153573	 0.063735
H	 0.2177816569	 0.0121941609	-2.1853659349	 0.094327
H	 1.7340174988	-0.0965077741	-1.3080623313	 0.106288
H	-0.3920483301	-2.2876293772	-1.6290015226	 0.105341
H	 1.2510935928	-2.3210762505	-2.2531431996	 0.108149
H	 0.9618822764	-3.7370246747	-0.1301777523	 0.090752
H	 0.9775387674	-2.5184153197	 2.0635021036	 0.097699
H	 0.0881932683	-0.2942837341	 2.1011102262	 0.076987
H	 2.6312906158	-0.1822512526	 1.0204467023	 0.295789
81.3629	194.3796	217.0651	272.4762	287.0176	316.3225	347.2075	417.6968	466.9138	470.8129	564.4432	658.7238	696.2807	749.5069	804.9803	829.515	885.3927	905.8328	955.7635	974.766	1006.2554	1022.3725	1056.6269	1080.1794	1093.4161	1117.2043	1160.6176	1181.9251	1201.3059	1255.739	1275.8398	1288.9473	1329.0579	1340.2091	1357.5392	1374.9313	1384.5619	1400.4644	1409.3012	1439.8639	1462.1296	1480.752	1491.3352	1496.3642	1504.7948	2983.2899	3019.0195	3033.0133	3035.8625	3039.8895	3059.082	3079.1811	3097.3765	3099.0037	3119.6829	3123.195	3764.3743
CC1CCC2OC2C1O	C[C@H]1CC[C@H]2O[C@H]2[C@H]1O	
InChI=1S/C7H12O2/c1-4-2-3-5-7(9-5)6(4)8/h4-8H,2-3H2,1H3	InChI=1S/C7H12O2/c1-4-2-3-5-7(9-5)6(4)8/h4-8H,2-3H2,1H3/t4-,5+,6-,7+/m0/s1
