19
gdb 111434	2.99629	1.47204	1.18587	3.0159	73.53	-0.2595	0.0571	0.3166	1095.2579	0.159445	-422.990768	-422.982907	-422.981963	-423.023345	30.471	
C	 0.0860440146	 1.5073769141	-0.0615897724	-0.392091
C	-0.01612911	-0.0198431256	-0.0215956843	-0.172016
C	-1.4605818258	-0.5420866871	 0.0358058985	-0.055801
C	-2.3086547881	-0.195625952	-1.1947211734	 0.023894
O	-1.815913066	-0.7114492096	-2.4349629852	-0.23604
C	-2.8679589186	-1.4245880076	-1.783757645	 0.006552
C	-2.3916363589	-2.6013469758	-0.9469033756	 0.003464
O	-0.9756336236	-2.7854427796	-0.9603728772	-0.234043
C	-1.5489865829	-2.0690844812	 0.1373316789	 0.012935
H	 1.1319929148	 1.8282461401	-0.0755008092	 0.116705
H	-0.3951306188	 1.9178045045	-0.9553299182	 0.124713
H	-0.3894192314	 1.9649031135	 0.8138532305	 0.109075
H	 0.4598236735	-0.4549746188	-0.9055259425	 0.133369
H	 0.5298201042	-0.4014120816	 0.8500834862	 0.09375
H	-1.9688143781	-0.1210559725	 0.915352796	 0.075546
H	-2.8004431197	 0.7723424016	-1.2625751755	 0.098119
H	-3.8157589376	-1.4729272972	-2.3122729937	 0.097928
H	-2.9945503741	-3.5015286294	-0.8687944943	 0.098086
H	-1.4413152534	-2.5519632958	 1.1069542264	 0.095855
77.7113	139.9104	170.9879	252.4536	302.9688	324.6182	446.6916	531.3493	574.38	706.138	715.8904	789.3968	814.2946	857.1751	860.4312	887.4576	891.2136	946.1294	954.5844	980.3288	1045.4452	1047.3629	1054.5396	1093.8641	1100.2522	1127.6645	1156.9344	1242.9379	1265.5464	1274.514	1279.5184	1305.9809	1336.2331	1354.4338	1374.0868	1412.4209	1419.9461	1432.0186	1489.6278	1502.0905	1506.7024	3010.7467	3029.9991	3032.2408	3082.1034	3103.8451	3106.7694	3126.6477	3133.2878	3151.2284	3165.2566
CCC1C2OC2C2OC12	CC[C@H]1[C@H]2O[C@H]2[C@H]2O[C@@H]12	
InChI=1S/C7H10O2/c1-2-3-4-6(8-4)7-5(3)9-7/h3-7H,2H2,1H3	InChI=1S/C7H10O2/c1-2-3-4-6(8-4)7-5(3)9-7/h3-7H,2H2,1H3/t3-,4+,5-,6+,7-
