16
gdb 25799	3.89791	1.11851	0.87857	3.5661	75.84	-0.2507	-0.0568	0.1939	1281.353	0.123068	-437.954692	-437.945889	-437.944945	-437.988984	30.664	
C	-0.1636209323	 1.5087626504	 0.0830986682	-0.488325
C	 0.0254239543	 0.0069613776	 0.0067391072	 0.290442
O	 1.1201503376	-0.5196767456	-0.037472505	-0.309077
C	-1.1839322164	-0.8231835871	-0.0132225764	 0.222616
C	-1.3851469224	-2.1695258102	-0.0755114902	-0.165356
N	-2.7371825767	-2.4382393774	-0.0656900785	-0.294163
C	-3.3047348937	-1.2669927529	 0.0011082394	 0.382746
C	-4.7547604737	-0.9504381569	 0.041199921	-0.492677
O	-2.4301971551	-0.2363070164	 0.0365609692	-0.201998
H	 0.814607971	 1.9898231315	 0.0907886283	 0.143703
H	-0.7496654364	 1.8661681983	-0.7702332405	 0.144898
H	-0.7215150516	 1.7806014139	 0.9854239631	 0.144871
H	-0.6402327529	-2.9470794967	-0.1260846942	 0.153012
H	-5.0116185003	-0.407141543	 0.9562893022	 0.152551
H	-5.0416672428	-0.3212438972	-0.8075188001	 0.152552
H	-5.3211564685	-1.8808374284	 0.0055346064	 0.164206
73.751	94.013	116.7943	145.2538	149.5943	292.8961	332.8185	370.7721	501.4947	555.9467	625.7311	679.8014	697.9053	708.1516	909.0621	938.4269	981.8263	987.4313	1025.7657	1042.9725	1066.4887	1117.1218	1170.3894	1234.0185	1311.257	1352.9421	1386.4398	1410.8474	1461.1568	1471.8476	1475.2437	1477.043	1567.7341	1618.76	1771.4999	3043.2895	3047.109	3102.7763	3105.034	3158.9315	3162.3091	3277.778
CC(=O)C1=CN=C(C)O1	CC(=O)c1cnc(C)o1	
InChI=1S/C6H7NO2/c1-4(8)6-3-7-5(2)9-6/h3H,1-2H3	InChI=1S/C6H7NO2/c1-4(8)6-3-7-5(2)9-6/h3H,1-2H3
