19
gdb 52776	2.49966	1.21921	0.93682	1.5116	85.23	-0.2195	0.057	0.2765	1329.1315	0.157117	-385.822512	-385.813031	-385.812087	-385.857962	34.178	
C	-0.0069631279	 1.4697327629	 0.0414011263	-0.503405
C	 0.0025715137	 0.0140187717	 0.05149581	 0.111172
C	 6.15*^-7	-1.1911652368	 0.0524382242	-0.004986
C	 0.0246072929	-2.6297684521	 0.0406718349	 0.112226
C	 1.1974369374	-3.2651173668	-0.6943355673	-0.465936
C	-0.4548934409	-3.440342676	 1.2525091067	-0.175011
C	-1.6804334277	-2.7720420489	 1.8640431882	-0.106567
O	-2.3575823274	-2.7532120574	 0.5741017174	-0.279367
C	-1.2619552629	-3.4338136155	-0.0197303634	 0.063299
H	 0.5315783086	 1.8636035436	-0.8278635961	 0.146884
H	-1.0305159802	 1.8584649166	-0.0012550511	 0.150601
H	 0.4677097468	 1.8827464634	 0.9387035036	 0.144369
H	 2.1452844911	-3.0058790944	-0.2127721517	 0.129312
H	 1.1082582324	-4.3567491185	-0.7002867203	 0.114466
H	 1.2369040684	-2.9191489253	-1.7312495733	 0.130391
H	 0.1621223583	-4.2023024043	 1.7103995179	 0.099549
H	-2.223286916	-3.4121680915	 2.5675604154	 0.109569
H	-1.5522898607	-1.766975749	 2.2788425503	 0.117823
H	-1.4698591709	-4.1791933516	-0.7804408117	 0.105613
25.0832	81.8359	113.6658	215.3752	222.9888	234.8467	296.3469	304.3926	367.0217	433.1053	534.9812	575.3037	602.2818	764.0099	808.7835	867.216	907.1169	947.6762	977.85	1000.6085	1047.7706	1050.8093	1052.556	1054.4687	1071.6907	1107.1552	1117.7054	1161.1091	1172.1955	1244.5108	1310.3081	1335.6456	1392.4508	1412.4974	1417.1508	1477.5663	1479.378	1487.2109	1501.6184	1504.9817	2364.3972	3023.9345	3032.8985	3035.0884	3082.4774	3085.8997	3089.4208	3102.1936	3109.851	3164.2631	3196.6166	25.0786	81.8359	113.6655	215.3759	222.9887	234.8466	296.3467	304.3922	367.021	433.1052	534.9811	575.3037	602.2818	764.0099	808.7833	867.2159	907.1169	947.6755	977.8497	1000.6082	1047.7704	1050.8089	1052.5559	1054.4687	1071.6904	1107.1551	1117.7052	1161.1093	1172.1954	1244.5104	1310.3081	1335.6455	1392.4507	1412.4972	1417.1507	1477.5665	1479.3785	1487.2102	1501.618	1504.9818	2364.3969	3023.9345	3032.8985	3035.0883	3082.4774	3085.8997	3089.4206	3102.1936	3109.8511	3164.263	3196.6166
CC#CC1(C)C2COC12	CC#C[C@@]1(C)[C@H]2CO[C@@H]12	
InChI=1S/C8H10O/c1-3-4-8(2)6-5-9-7(6)8/h6-7H,5H2,1-2H3	InChI=1S/C8H10O/c1-3-4-8(2)6-5-9-7(6)8/h6-7H,5H2,1-2H3/t6-,7+,8-/m0/s1
