20
gdb 83744	2.65219	1.57373	1.34233	2.1218	78.52	-0.2226	0.075	0.2976	1051.4249	0.171444	-403.104948	-403.096651	-403.095707	-403.138105	31.791	
C	-0.0652799665	 1.638631121	-0.1559789137	-0.318714
N	 0.0726437487	 0.199994714	 0.0109652897	-0.090473
C	 1.3036929115	-0.5280388024	-0.2341995161	-0.034764
C	 2.6392909243	 0.2129597898	-0.2936185676	-0.241955
C	 2.806890771	 0.935732038	 1.0672120795	-0.326925
C	 1.6931140268	 0.4010103339	 1.975768953	 0.468219
C	 1.8741235897	 0.1533505869	 3.4119123856	-0.25176
O	 1.1460132985	 1.295605491	 2.957370162	-0.285298
C	 0.7365625298	-0.4167923604	 1.1504248391	-0.131908
H	 0.8364329407	 2.2361550112	 0.0317439093	 0.108128
H	-0.3917281637	 1.835479447	-1.1823810583	 0.120643
H	-0.8463748567	 1.9927999928	 0.5224499492	 0.136413
H	 1.1970260668	-1.4278662799	-0.8357452605	 0.088485
H	 3.4363313677	-0.5216394446	-0.4459971438	 0.108056
H	 2.687049465	 0.9063610681	-1.1401789013	 0.109049
H	 3.7941761873	 0.7519364018	 1.5001015648	 0.107699
H	 2.7016333332	 2.0205711448	 0.9767758893	 0.12718
H	 1.2820296585	-0.6111348931	 3.9153153789	 0.112161
H	 2.8394844785	 0.3651527523	 3.8718142257	 0.108897
H	 0.180291909	-1.2086728021	 1.6461804551	 0.086867
65.8014	89.4233	179.7903	228.1378	307.5081	334.2601	372.5982	448.2979	496.7436	575.6977	705.3427	734.4513	775.9069	810.1055	832.6787	865.796	903.8391	939.0882	975.5784	979.6252	1041.5454	1056.3574	1105.135	1118.7745	1130.6632	1160.8133	1163.7038	1171.5132	1196.7084	1236.3195	1263.5312	1276.5441	1295.5396	1326.7585	1336.2998	1393.7814	1430.6286	1459.4887	1479.5192	1486.6996	1500.4556	1509.574	1530.1555	3012.5867	3043.6585	3058.4521	3070.2537	3073.994	3075.7259	3100.1685	3110.7927	3126.7087	3136.5494	3155.2712
CN1C2CCC3(CO3)C12	CN1[C@H]2CC[C@]3(CO3)[C@@H]12	
InChI=1S/C7H11NO/c1-8-5-2-3-7(4-9-7)6(5)8/h5-6H,2-4H2,1H3	InChI=1S/C7H11NO/c1-8-5-2-3-7(4-9-7)6(5)8/h5-6H,2-4H2,1H3/t5-,6-,7-,8?/m0/s1
