16
gdb 27932	2.44374	1.39395	0.89755	5.0294	76.35	-0.2472	-0.0454	0.2018	1257.4231	0.122826	-437.949009	-437.94016	-437.939216	-437.982937	30.944	
C	 0.0392281652	 1.4373485284	 0.1199762683	-0.490979
C	 0.0169863428	-0.0367135546	-0.0543138015	 0.375259
N	-0.0723235905	-0.7263742152	-1.1373609531	-0.323943
C	-0.0467787278	-2.0583903619	-0.7160546348	 0.056613
C	-0.1247284466	-3.1997325147	-1.6267702212	 0.074435
O	-0.2187998554	-3.1309090752	-2.8292737461	-0.263589
C	 0.0605965027	-2.0931706643	 0.6478783997	 0.294528
C	 0.1349692077	-3.1599217561	 1.6761847583	-0.497893
O	 0.1022836307	-0.8046168205	 1.0832728214	-0.208415
H	 0.9654950407	 1.761354606	 0.6053541267	 0.149403
H	-0.0355796758	 1.9081529918	-0.8601234853	 0.166072
H	-0.7954336153	 1.7714821938	 0.7446580216	 0.149395
H	-0.0895632346	-4.1858227173	-1.1100403588	 0.060267
H	 1.0662031775	-3.087418696	 2.2486017368	 0.153567
H	-0.6947281842	-3.0769287233	 2.3867189991	 0.15358
H	 0.0925539528	-4.145552141	 1.2102767387	 0.1517
106.3012	114.7363	139.2791	172.8562	188.5702	223.4012	256.7983	374.3306	384.2154	531.5246	629.0068	671.4839	672.9084	706.3197	859.7525	932.3293	1001.4879	1022.4256	1048.46	1059.4986	1068.9884	1137.3787	1214.9304	1304.2148	1378.7765	1410.3079	1420.7555	1437.5865	1470.3794	1475.3405	1478.3789	1482.7323	1629.9144	1656.2467	1802.5269	2866.0467	3038.2848	3046.7995	3091.5992	3102.3281	3143.1306	3162.2119
CC1=NC(C=O)=C(C)O1	Cc1nc(C=O)c(C)o1	
InChI=1S/C6H7NO2/c1-4-6(3-8)7-5(2)9-4/h3H,1-2H3	InChI=1S/C6H7NO2/c1-4-6(3-8)7-5(2)9-4/h3H,1-2H3
