21
gdb 123208	5.78281	0.48305	0.46042	5.1159	82.33	-0.2363	0.0383	0.2746	2332.9223	0.181619	-420.401116	-420.390365	-420.389421	-420.438639	36.556	
C	 0.0330992523	 1.3213057617	-0.1143406407	-0.227069
O	 0.0191321281	-0.083203696	-0.0126233871	-0.237943
C	 0.6773652798	-0.5656594709	 1.1424182587	-0.067851
C	 0.6640007379	-2.0836025476	 1.0810520913	-0.143344
N	 1.4056783562	-2.5394236422	-0.0891000972	-0.300774
C	 1.3126233688	-3.9704268167	-0.3169851376	-0.120987
C	 2.2058287729	-4.3607644225	-1.508639667	-0.345483
C	 2.1843961862	-5.7957638619	-1.7771212604	 0.255616
N	 2.1578425334	-6.9340581838	-1.9743070835	-0.305731
H	 1.0596460876	 1.7169336452	-0.1623450039	 0.108431
H	-0.4932426861	 1.588864733	-1.0336780359	 0.129238
H	-0.4777210062	 1.795453106	 0.7381865154	 0.107707
H	 1.7166416714	-0.2005152691	 1.1709507115	 0.096989
H	 0.1672114727	-0.2164731248	 2.05486218	 0.09002
H	 1.1396315825	-2.4818192195	 1.9861449251	 0.105747
H	-0.3861242795	-2.4282529316	 1.085957073	 0.091812
H	 1.0437100984	-2.0333289518	-0.8926775904	 0.227294
H	 1.668713633	-4.4909117093	 0.5796870558	 0.123295
H	 0.2835997764	-4.3280826197	-0.4998650453	 0.102674
H	 1.8776506061	-3.8325684351	-2.4121651898	 0.14883
H	 3.2341877481	-4.0419791834	-1.3104103019	 0.161528
40.6513	60.3364	89.8912	110.6973	119.9021	168.5856	208.2859	253.2374	294.4199	335.0654	400.8603	406.3131	516.4083	588.9674	788.4939	811.63	858.2565	913.5682	960.435	1023.2083	1047.2577	1058.504	1125.919	1137.7066	1152.6225	1173.2045	1187.6022	1196.1642	1243.6608	1264.0948	1280.3641	1310.2743	1324.2844	1372.1967	1409.4469	1430.3424	1468.8914	1479.1884	1486.2088	1495.4596	1500.8271	1502.2109	1521.1579	1524.3493	2363.7802	2940.1034	2947.1263	2964.4256	2977.4845	3004.8412	3020.51	3040.3285	3047.5601	3057.2435	3092.2009	3116.0979	3508.6251
COCCNCCC#N	COCCNCCC#N	
InChI=1S/C6H12N2O/c1-9-6-5-8-4-2-3-7/h8H,2,4-6H2,1H3	InChI=1S/C6H12N2O/c1-9-6-5-8-4-2-3-7/h8H,2,4-6H2,1H3
