18
gdb 127014	3.19538	1.05974	0.80787	3.801	75.19	-0.2273	0.0012	0.2285	1412.5431	0.146332	-439.079304	-439.070146	-439.069201	-439.113919	32.573	
C	 0.0540420188	 1.5365691998	 0.0715563614	-0.391999
C	 0.0323458143	 0.0212628906	 0.0137807534	-0.057816
O	 0.7073796684	-0.4790631225	 1.1665704491	-0.26703
C	 0.7722184347	-1.8225808297	 1.2614822954	 0.166329
C	 0.3136789711	-2.8221337488	 0.4600782327	-0.058231
O	 0.6385644427	-4.0153647742	 1.0047411111	-0.177118
N	 1.3265030569	-3.8021408833	 2.1904422353	-0.192723
C	 1.4075770754	-2.5027168162	 2.3470697819	 0.293273
C	 2.0885860372	-1.8939172064	 3.5268224432	-0.495813
H	 1.0826602766	 1.9071308998	 0.0802783934	 0.13442
H	-0.4575360389	 1.952413605	-0.801163338	 0.124042
H	-0.4502324459	 1.8949841257	 0.9730537638	 0.134408
H	-0.9986360429	-0.3619599837	 0.003154194	 0.107428
H	 0.5366165796	-0.3498289764	-0.8905989479	 0.107427
H	-0.2269754622	-2.853665128	-0.4704870784	 0.143434
H	 2.9253482917	-1.2626229894	 3.2105455854	 0.140589
H	 1.3980104941	-1.2570394385	 4.0890057629	 0.140496
H	 2.4655197084	-2.6776502437	 4.1862458115	 0.148881
70.3353	97.9768	118.9319	126.3732	242.5455	254.6105	262.8217	348.9463	374.0755	500.7277	602.9933	641.4201	701.2674	770.4534	779.0733	828.7156	906.8673	927.3454	948.0046	1026.9015	1067.0654	1076.1207	1138.7845	1142.7156	1187.14	1236.9832	1296.8851	1301.8546	1398.2484	1406.8592	1422.8985	1448.0357	1477.46	1483.7362	1488.916	1500.3164	1523.9568	1552.2278	1669.2551	2989.1503	3023.9844	3043.6642	3049.2391	3099.0266	3124.8332	3127.5881	3142.2054	3282.6567
CCOC1=CON=C1C	CCOc1conc1C	
InChI=1S/C6H9NO2/c1-3-8-6-4-9-7-5(6)2/h4H,3H2,1-2H3	InChI=1S/C6H9NO2/c1-3-8-6-4-9-7-5(6)2/h4H,3H2,1-2H3
