14
gdb 28129	5.2965	1.30073	1.04557	2.028	72.74	-0.173	0.0176	0.1906	1061.3639	0.10319	-436.708123	-436.70117	-436.700226	-436.739332	27.131	
N	 0.089832433	 1.3474077578	 0.1694496919	-0.590049
C	-0.068222683	-0.023773974	 0.0531835446	 0.390908
C	-1.1794368411	-0.8302262993	 0.0119985838	-0.47593
C	-0.6213234715	-2.1446283615	 0.0041575815	 0.33884
C	 0.7367331845	-2.0446156115	 0.0306007886	 0.264601
O	 1.1097075875	-0.7274577737	 0.0645752195	-0.229974
C	 1.2845887271	-3.3535133278	-0.0090430638	-0.357842
C	 0.1803981896	-4.1618469479	-0.0513042944	-0.019131
O	-0.9991920776	-3.4411921467	-0.0453915537	-0.205831
H	 0.9241219677	 1.6851227461	-0.2943349788	 0.259062
H	-0.7247465949	 1.8642830664	-0.1310178527	 0.258512
H	-2.2065233992	-0.5077864611	-0.0088032444	 0.113529
H	 2.3122126567	-3.6777934152	-0.00262668	 0.120695
H	 0.0615122312	-5.2312734017	-0.0799794121	 0.132609
142.1668	166.7035	266.5797	316.5614	357.1712	519.946	566.4037	590.8999	641.9998	664.6358	697.1298	727.8157	734.4221	757.7415	799.1618	827.8725	920.7026	965.5768	1023.4343	1088.2734	1125.7806	1166.6229	1189.5413	1284.1847	1379.827	1443.2883	1497.383	1539.4216	1591.7453	1617.6569	1657.458	3266.2723	3273.6406	3295.3225	3543.7249	3648.0952
NC1=CC2=C(O1)C=CO2	Nc1cc2c(o1)cco2	
InChI=1S/C6H5NO2/c7-6-3-5-4(9-6)1-2-8-5/h1-3H,7H2	InChI=1S/C6H5NO2/c7-6-3-5-4(9-6)1-2-8-5/h1-3H,7H2
