14
gdb 31477	4.36083	0.92638	0.77288	4.0777	71.68	-0.2492	-0.0331	0.2161	1367.2242	0.101613	-436.722382	-436.714373	-436.713429	-436.755692	28.667	
O	 0.2708287222	 1.0403395544	-0.6973318106	-0.398593
C	-0.0342149783	 0.0588344601	 0.2708676673	-0.168196
C	-1.4034134398	-0.5112796067	 0.0664798159	 0.342765
C	-2.2480195027	-0.5161762779	-0.9949886613	-0.395314
C	-3.4249720628	-1.2280457573	-0.5624624498	 0.157356
C	-3.1900294696	-1.5963766494	 0.7322561057	-0.102186
O	-1.9736945691	-1.1644291361	 1.1245523153	-0.169167
C	-4.5968832501	-1.4963831912	-1.3121654725	 0.202206
N	-5.5508337698	-1.7096332695	-1.932721511	-0.336407
H	-0.3546145723	 1.7653263259	-0.5903356227	 0.291429
H	 0.7281466829	-0.7211006883	 0.1564729725	 0.143151
H	 0.0497267962	 0.4346976954	 1.3023537127	 0.118496
H	-2.0683837545	-0.0873416845	-1.9664858649	 0.146542
H	-3.7727187422	-2.1370413648	 1.4588734235	 0.167917
69.6807	115.4458	135.0462	216.6648	262.9697	352.2737	433.5627	514.4658	539.38	575.6582	633.7424	666.1784	733.3626	778.656	843.3509	958.0808	993.2748	998.9041	1088.112	1148.5112	1183.544	1190.8831	1225.2686	1288.958	1354.2974	1396.0314	1424.0329	1497.3011	1570.0209	1637.8166	2352.5752	2990.5086	3054.2666	3283.7215	3289.0763	3807.5028
OCC1=CC(=CO1)C#N	OCc1cc(co1)C#N	
InChI=1S/C6H5NO2/c7-2-5-1-6(3-8)9-4-5/h1,4,8H,3H2	InChI=1S/C6H5NO2/c7-2-5-1-6(3-8)9-4-5/h1,4,8H,3H2
