17
gdb 36012	2.51062	1.08099	0.81112	6.1542	77.08	-0.3164	0.0127	0.3291	1384.8655	0.135695	-380.88516	-380.876063	-380.875119	-380.919975	32.231	
N	-0.0369875907	-1.1474891176	 0.140127675	-0.29096
C	 0.0044931231	 0.005687512	 0.0890056553	 0.267348
C	 0.0732527915	 1.4636600967	 0.0479134676	-0.347649
C	 1.5155971409	 2.0063749315	-0.1544432514	-0.18015
C	 2.0414243447	 1.6165388498	-1.4689726606	 0.295279
N	 2.446777758	 1.3377754967	-2.5141957259	-0.310401
C	 1.5540139579	 3.5188854018	 0.0129467886	 0.022621
C	 1.6631055771	 4.1067321317	 1.3981856356	-0.282932
C	 2.8265405743	 4.1967576986	 0.4424359275	-0.271008
H	-0.5776817163	 1.8329333052	-0.7511499251	 0.169711
H	-0.3113444368	 1.8630295489	 0.991729903	 0.165711
H	 2.1600789453	 1.5507175967	 0.606824222	 0.143495
H	 0.9350126011	 4.0536806028	-0.7016771545	 0.108438
H	 1.0986190829	 5.0056954126	 1.61694253	 0.128105
H	 1.7511139147	 3.4227146775	 2.2364648077	 0.122153
H	 3.6922395892	 3.5728759513	 0.637524607	 0.12905
H	 3.063020513	 5.1573552137	 0.0005436183	 0.131189
58.8149	78.4187	117.1596	143.7532	201.3547	258.9111	335.8942	388.9566	400.4484	490.2932	529.0633	605.4077	770.4488	818.283	835.3171	871.408	928.2772	949.6149	972.0176	1037.6215	1062.7577	1063.6793	1088.5417	1137.4127	1160.0871	1196.4118	1215.8335	1227.8505	1273.4253	1334.3441	1348.4616	1410.2152	1464.849	1471.8019	1505.9296	2362.4951	2368.1553	3043.9934	3058.2611	3101.9632	3133.3007	3142.0779	3152.438	3215.9205	3231.5801
N#CCC(C#N)C1CC1	N#CC[C@@H](C#N)C1CC1	
InChI=1S/C7H8N2/c8-4-3-7(5-9)6-1-2-6/h6-7H,1-3H2	InChI=1S/C7H8N2/c8-4-3-7(5-9)6-1-2-6/h6-7H,1-3H2/t7-/m0/s1
