15
gdb 45842	2.412	1.78224	1.04709	5.1243	72.63	-0.2075	-0.0097	0.1978	1068.7212	0.116409	-450.183046	-450.175325	-450.174381	-450.215639	29.222	
N	-0.1851692686	 1.138346575	 0.7157195829	-0.545381
C	 0.0290492016	 0.0858787441	 0.0225031156	 0.422467
N	 1.2656156344	-0.4693499182	-0.2425017348	-0.373535
C	 1.6023186665	-1.4532778493	-1.1772909998	-0.035015
C	 0.8381158805	-2.4812571126	-1.5458194751	-0.028279
N	-0.448418892	-2.753444353	-1.0737286257	-0.368012
C	-1.4441348785	-1.8685389883	-0.7250256835	 0.435396
O	-2.5996558292	-2.2254157616	-0.6190551281	-0.381488
N	-1.0976594542	-0.5264973895	-0.5447987748	-0.369631
H	 0.680616007	 1.5646968055	 1.0394076268	 0.207504
H	 2.0331806442	 0.0596497597	 0.1366038218	 0.252167
H	 2.5839845817	-1.3394374518	-1.6199173184	 0.121247
H	 1.2101356433	-3.1795073595	-2.2848351226	 0.123964
H	-0.8262882281	-3.6708194329	-1.2520719205	 0.263545
H	-1.9235343785	 0.0029155324	-0.2965206938	 0.27505
92.3068	104.9813	141.6568	334.8256	394.9523	438.0382	452.2111	517.8027	541.5997	571.4509	657.7099	689.7374	719.4797	737.1426	775.7788	797.0418	871.2952	899.988	904.6539	987.5057	1049.2911	1147.5969	1199.174	1278.6341	1331.3541	1428.2171	1453.979	1465.9717	1490.1133	1505.5738	1726.8918	1773.9186	1806.4706	3199.1582	3217.498	3505.858	3598.8889	3639.0028	3650.0567
N=C1NC=CNC(=O)N1	[NH][C]1NC=CNC(=O)N1	
InChI=1S/C4H6N4O/c5-3-6-1-2-7-4(9)8-3/h1-2H,(H4,5,6,7,8,9)	InChI=1S/C4H6N4O/c5-3-6-1-2-7-4(9)8-3/h1-2H,(H4,5,6,7,8,9)
