23
gdb 115149	2.943	1.08494	0.87974	2.8213	85.2	-0.2316	-0.0129	0.2187	1405.175	0.205494	-388.33793	-388.328163	-388.327219	-388.372717	36.715	
C	-0.101808555	 1.6719915146	 0.1205852481	-0.388549
C	 0.0009493804	 0.1426991801	 0.099414499	-0.195792
C	-1.349100241	-0.5619796084	-0.0683214533	 0.033248
C	-2.0576848013	-0.3169497354	-1.4234264573	-0.22705
C	-3.163667337	-1.3803560722	-1.4661602691	-0.324023
C	-2.5988076289	-2.5625153845	-0.6730883815	 0.404796
O	-3.0539781253	-3.6776976321	-0.6486012437	-0.325641
C	-1.3309950172	-2.1062489749	 0.0695038922	-0.11856
C	-0.1156396697	-2.8219309528	-0.5505790766	-0.399165
H	 0.8790983759	 2.1288640223	 0.2833508189	 0.11384
H	-0.495373013	 2.065080945	-0.8222208185	 0.119063
H	-0.7645406039	 2.0129172325	 0.9240608081	 0.114395
H	 0.6793163371	-0.1640695712	-0.706218138	 0.09823
H	 0.4655729261	-0.1968626662	 1.034327379	 0.09577
H	-2.019904612	-0.1822076184	 0.7171286161	 0.070811
H	-2.4425494171	 0.7010539655	-1.5182192246	 0.103606
H	-1.3500515103	-0.4718655312	-2.247711956	 0.102906
H	-4.0644255724	-1.0348230755	-0.9411123333	 0.129021
H	-3.4796583526	-1.6934294293	-2.4641211255	 0.125754
H	-1.4088817595	-2.4201325667	 1.1158223712	 0.092809
H	 0.0332370466	-2.5453638518	-1.5999904828	 0.117238
H	 0.8030416489	-2.5847416758	-0.0075500931	 0.119909
H	-0.273059839	-3.9029721934	-0.5097769894	 0.137384
56.0907	94.1926	151.3574	181.736	225.8836	232.3361	267.7089	294.2117	346.0067	447.3493	491.5882	525.4543	603.5979	644.7428	755.9691	766.9492	817.4792	826.8172	927.6014	947.9681	963.1277	997.8471	1015.8094	1031.7141	1053.3115	1086.9794	1111.6811	1153.2959	1174.2133	1196.0171	1230.9628	1264.064	1284.8598	1298.1941	1320.4336	1325.0366	1336.5747	1372.1411	1396.2473	1403.7248	1410.8257	1451.3723	1485.708	1495.4615	1498.5997	1500.306	1504.7458	1509.56	1839.7354	2985.8962	3018.6064	3028.5603	3031.7684	3034.1409	3039.1844	3052.1008	3055.7397	3095.9999	3099.5672	3105.1532	3106.7082	3108.0332	3122.444
CCC1CCC(=O)C1C	CC[C@H]1CCC(=O)[C@H]1C	
InChI=1S/C8H14O/c1-3-7-4-5-8(9)6(7)2/h6-7H,3-5H2,1-2H3	InChI=1S/C8H14O/c1-3-7-4-5-8(9)6(7)2/h6-7H,3-5H2,1-2H3/t6-,7-/m0/s1
