15
gdb 42221	3.55513	1.2284	1.05317	4.3887	71.29	-0.2596	-0.0971	0.1625	1118.388	0.112933	-416.731127	-416.723526	-416.722581	-416.764433	27.644	
O	 0.8642467477	 1.09835249	-0.969744571	-0.262711
C	 0.0914866187	 1.1863659554	-0.0487487767	 0.270407
C	 0.4196916733	 0.5919094412	 1.2656703315	 0.238454
N	 0.6773913765	 0.1415947242	 2.2990020202	-0.2987
C	-1.2341282802	 1.9057904542	-0.0869083688	-0.04499
C	-1.9089617295	 2.2859725046	-1.4187150906	-0.076849
C	-2.1968872983	 0.7742666186	-1.5660757876	-0.179193
N	-2.5031992748	 1.0089214595	-0.068004596	-0.15156
C	-3.202675019	 2.2901253571	-0.5719724186	-0.170771
H	-1.255807055	 2.6406791079	 0.7272682013	 0.112681
H	-1.566485529	 3.0034453242	-2.1685861255	 0.089598
H	-3.0825865793	 0.4816694057	-2.1338431988	 0.114052
H	-1.3650365351	 0.0964821004	-1.7568415553	 0.130187
H	-3.3220225942	 3.0550000126	 0.1996606317	 0.113098
H	-4.1450892919	 2.0833168144	-1.0833884257	 0.116297
32.3808	110.5274	188.7971	222.5249	295.3752	431.081	461.2551	598.6849	625.7813	671.5815	765.2128	783.9642	866.7161	899.5583	907.71	913.8188	944.4567	1023.8511	1066.5668	1082.2701	1109.0482	1119.9979	1160.8738	1194.8511	1199.8493	1224.0201	1247.5776	1279.8697	1397.1852	1517.525	1556.2113	1790.811	2337.98	3039.1553	3060.2767	3074.2154	3085.7641	3132.4546	3152.0544
O=C(C#N)C1C2CN1C2	O=C(C#N)[C@H]1[C@H]2CN1C2	
InChI=1S/C6H6N2O/c7-1-5(9)6-4-2-8(6)3-4/h4,6H,2-3H2	InChI=1S/C6H6N2O/c7-1-5(9)6-4-2-8(6)3-4/h4,6H,2-3H2/t6-/m1/s1
