16
gdb 96786	3.7639	1.13415	0.87679	1.1534	82.49	-0.2175	-0.0518	0.1657	1275.4457	0.124884	-434.13001	-434.12119	-434.120245	-434.163877	32.315	
C	 0.0200207922	 1.4446876841	 0.0664475151	-0.336008
N	 0.0949608016	-0.00050859	 0.0699054441	-0.314356
C	 0.565420117	-0.6263984431	-0.9311672248	 0.437774
N	 1.073549129	-0.0982359885	-2.1448732709	-0.426504
C	 1.5321922857	-1.1018521506	-2.9679453026	 0.400812
O	 2.0812500456	-0.9955725586	-4.0435183379	-0.379468
C	 1.2301625229	-2.384996609	-2.2411011475	 0.274806
N	 1.5154247945	-3.5423876421	-2.8902509109	-0.598729
C	 0.6793152263	-2.0818616549	-1.0446812651	-0.332697
H	 0.8428155909	 1.864198527	 0.6606802446	 0.131704
H	 0.0430999151	 1.9187434546	-0.9269412909	 0.092911
H	-0.9097175446	 1.7537724624	 0.5551234904	 0.134658
H	 1.2345360822	 0.8741677059	-2.340787109	 0.266494
H	 2.1070578714	-3.4428715184	-3.7023457053	 0.272216
H	 1.5960863396	-4.4010730229	-2.3729974416	 0.264
H	 0.3402981606	-2.7420204059	-0.2615214778	 0.112387
49.6551	115.7218	146.3485	218.7394	274.5383	300.8324	358.8882	422.2056	445.8418	472.5034	505.9999	572.1348	615.9349	670.466	713.2137	797.3888	814.4656	821.1345	923.7521	1031.6124	1081.9789	1116.1333	1145.5143	1168.8045	1267.8945	1331.9681	1361.4916	1396.3622	1439.7157	1478.9139	1511.1748	1616.7318	1712.1164	1760.0498	1828.3373	2977.2781	3043.7751	3080.15	3254.3167	3579.7581	3686.0248	3707.8623
CN=C1NC(=O)C(N)=C1	CN=C1NC(=O)C(=C1)N	
InChI=1S/C5H7N3O/c1-7-4-2-3(6)5(9)8-4/h2H,1H3,(H3,6,7,8,9)	InChI=1S/C5H7N3O/c1-7-4-2-3(6)5(9)8-4/h2H,1H3,(H3,6,7,8,9)
