16
gdb 67378	2.64649	1.7973	1.73321	1.2748	66.79	-0.2326	0.0138	0.2464	876.479	0.126149	-437.853535	-437.84664	-437.845696	-437.884509	27.603	
O	-0.0381123879	 1.425275638	-0.0468404944	-0.464488
C	 0.0110848685	 0.0468769049	-0.0326220178	 0.343033
C	-1.1363517025	-0.9559241271	 0.1208904905	-0.145504
C	-0.6033326191	-1.7757318371	-1.0548821235	-0.239051
C	 0.6664659875	-0.8489770996	-1.1037039223	-0.083808
N	 1.913682505	-1.4791369989	-0.6761607044	-0.264777
C	 1.9201583953	-1.8921798048	 0.5201708558	 0.120033
O	 0.9313518968	-1.7866364917	 1.4497512111	-0.235024
C	-0.0634326036	-0.8046673288	 1.1788586308	 0.015637
H	 0.7968572455	 1.7666590145	 0.294001176	 0.291702
H	-2.1759973325	-0.7814040345	 0.3704766935	 0.098541
H	-0.4066862946	-2.8349887726	-0.8719758493	 0.112952
H	-1.2213160275	-1.671702511	-1.9493329206	 0.113886
H	 0.8102540631	-0.3566629577	-2.0650446883	 0.09222
H	 2.7760446372	-2.4172153002	 0.938803139	 0.127036
H	-0.3791740712	-0.3320603936	 2.1013805539	 0.117609
177.4103	194.3776	255.8206	315.4378	367.0397	457.2687	545.057	557.4904	561.9881	688.1325	754.1513	810.1712	835.8077	896.0585	925.4151	939.0662	971.88	984.2451	1006.8504	1042.6591	1062.5708	1105.3014	1130.1937	1173.069	1194.8982	1211.8141	1234.8836	1290.9119	1311.134	1329.4512	1335.1864	1397.812	1468.2511	1502.051	1704.4163	3064.3178	3110.8332	3122.9325	3166.4811	3186.1198	3196.2745	3787.5828
OC12C3CC1N=COC23	O[C@@]12[C@H]3C[C@@H]1[N][CH]O[C@@H]23	
InChI=1S/C6H7NO2/c8-6-3-1-4(6)7-2-9-5(3)6/h2-5,8H,1H2	InChI=1S/C6H7NO2/c8-6-3-1-4(6)7-2-9-5(3)6/h2-5,8H,1H2/t3-,4-,5+,6-/m0/s1
