20
gdb 101929	2.0205	1.38654	0.96664	2.746	75.85	-0.231	0.031	0.262	1292.4505	0.169416	-440.29493	-440.284796	-440.283852	-440.330576	36.394	
C	-0.8362546655	 0.8127987092	 0.1914918332	-0.248309
O	-0.2776249265	-0.4783722493	 0.0359072928	-0.251451
C	 0.6874640245	-0.5595969775	-1.0048506946	-0.001907
C	 1.5443433967	-1.7801355941	-0.7582118197	 0.012565
C	 2.8855054604	-1.8896860753	-1.4333929453	-0.256002
C	 2.8080898133	-1.663737949	 0.0551024612	-0.280454
C	 0.0407694496	-0.6471849571	-2.4033822697	 0.366088
N	-1.20748666	-1.1852072275	-2.3978896962	-0.512437
O	 0.6344562657	-0.3001250221	-3.4058203577	-0.367022
H	-0.0625005306	 1.5551962715	 0.4347960288	 0.116387
H	-1.3665363586	 1.1459590595	-0.7120908493	 0.116513
H	-1.5468197531	 0.7580109282	 1.0197175656	 0.128782
H	 1.3226002301	 0.3375507896	-1.0178773604	 0.088183
H	 0.9687608305	-2.6947615828	-0.6485916184	 0.08834
H	 3.1931734702	-2.8643564764	-1.7943611573	 0.113524
H	 3.190782574	-1.0654779218	-2.0675454686	 0.133698
H	 3.0736250544	-0.6835972702	 0.4374550187	 0.112458
H	 3.0636821631	-2.4828302521	 0.7178681205	 0.113284
H	-1.6452089968	-1.4271047038	-1.5252586943	 0.267276
H	-1.6936193414	-1.3143507989	-3.2690927192	 0.260486
60.8709	65.0157	121.2414	153.6563	177.4058	193.2763	269.4388	295.769	321.4126	379.8359	442.3838	510.8022	571.7311	626.486	734.0224	774.9829	824.6752	883.0932	896.143	938.7807	987.7691	1016.7941	1060.0423	1077.1521	1084.2297	1123.2176	1133.2945	1176.3669	1185.4605	1194.1999	1225.5198	1237.4237	1287.8051	1334.3389	1354.3021	1418.2005	1473.2033	1480.8161	1490.369	1507.6618	1508.5538	1591.8642	1802.641	2988.7184	3010.9735	3041.9915	3117.0613	3132.7453	3143.6081	3151.0311	3213.4594	3231.5794	3600.0446	3741.4497
COC(C1CC1)C(N)=O	CO[C@@H](C1CC1)C(=O)N	
InChI=1S/C6H11NO2/c1-9-5(6(7)8)4-2-3-4/h4-5H,2-3H2,1H3,(H2,7,8)	InChI=1S/C6H11NO2/c1-9-5(6(7)8)4-2-3-4/h4-5H,2-3H2,1H3,(H2,7,8)/t5-/m0/s1
