18
gdb 29963	3.54289	1.02435	0.80264	2.048	84.8	-0.2018	0.0435	0.2453	1405.0267	0.147011	-364.813321	-364.804167	-364.803223	-364.848164	33.387	
C	 0.3543039598	 1.3707745938	 0.0716710627	-0.335919
N	 0.056456225	-0.0434558602	-0.0004504695	 0.013446
C	-0.7189414339	-0.6480886054	-0.957127979	-0.084972
C	-0.6780899344	-2.0071960864	-0.7520497203	-0.272585
C	 0.1615163642	-2.2418415119	 0.3754242532	 0.256778
C	 0.4829945709	-3.5888551189	 0.9761850853	-0.47755
C	 1.3919676424	-3.5348581549	 2.1172683981	 0.318841
C	 2.1394858781	-3.489394058	 3.0574261003	-0.457753
C	 0.599049948	-1.0113684582	 0.8093497846	-0.173861
H	 1.2615356355	 1.6274495765	-0.4882355027	 0.137238
H	-0.4816155194	 1.9424173075	-0.3384839748	 0.138605
H	 0.493633292	 1.6664549006	 1.1145311289	 0.141048
H	-1.2323732969	-0.0581067298	-1.7002785238	 0.113382
H	-1.2038631462	-2.7514504191	-1.3317004009	 0.089418
H	-0.4445856996	-4.0897454792	 1.2882477513	 0.138204
H	 0.9192674167	-4.2432975162	 0.2082427028	 0.137983
H	 2.7998186141	-3.4598627703	 3.8880889357	 0.191678
H	 1.2504231335	-0.7530501699	 1.628417418	 0.126019
37.3498	85.8278	108.7955	156.5404	256.3623	266.5246	329.7793	394.5578	455.0302	603.7944	614.7269	630.9285	632.1767	650.5824	686.3757	749.9778	771.7466	800.8064	955.3815	956.8773	996.7241	1018.9975	1078.9134	1107.1377	1148.4545	1182.1805	1221.7027	1237.0854	1314.9225	1386.4889	1404.914	1423.4046	1454.9699	1470.7129	1488.9917	1514.8513	1545.7089	1606.028	2239.5478	3000.7325	3019.3531	3027.6543	3096.6798	3129.6712	3236.1442	3259.7635	3267.9472	3506.5924
CN1C=CC(CC#C)=C1	Cn1ccc(CC#C)c1	
InChI=1S/C8H9N/c1-3-4-8-5-6-9(2)7-8/h1,5-7H,4H2,2H3	InChI=1S/C8H9N/c1-3-4-8-5-6-9(2)7-8/h1,5-7H,4H2,2H3
