15
gdb 132496	3.09368	1.33148	0.9362	1.0782	71.8	-0.2263	-0.0261	0.2003	1155.3187	0.11288	-461.986512	-461.978832	-461.977887	-462.018726	29.184	
C	-0.0383670466	 1.5480195483	-0.0194631894	-0.489097
C	 0.0049307775	 0.045787652	-0.0396929122	 0.201429
C	-0.0687364025	-0.7020871599	-1.2052353501	-0.291222
C	-0.0209248905	-2.0911755267	-1.1298187187	 0.243917
F	-0.0913129376	-2.8219629841	-2.2489507616	-0.080693
C	 0.0988388649	-2.7123965006	 0.0973801923	-0.124997
N	 0.1713288616	-2.0066163737	 1.2337151749	-0.358588
C	 0.1255828496	-0.6872617529	 1.1577926048	 0.368054
O	 0.2002364016	 0.0091607993	 2.3172162198	-0.416856
H	 0.8676857475	 1.9612525174	 0.4363701553	 0.143695
H	-0.1341010734	 1.9529619683	-1.0297279778	 0.122121
H	-0.8802043832	 1.9089139372	 0.5809825362	 0.1437
H	-0.1629157048	-0.2216110201	-2.1733076066	 0.1167
H	 0.1371222646	-3.7948593938	 0.1692088912	 0.123527
H	 0.2778013814	-0.6516036308	 3.0189873719	 0.298309
120.9426	146.7232	211.6372	271.3444	343.2983	400.7985	463.1731	480.6081	494.319	539.7118	580.0933	594.2406	725.5967	784.6158	801.7839	922.783	931.3753	996.9812	1018.7946	1065.8079	1134.6952	1188.0252	1275.618	1300.4754	1337.696	1366.0225	1415.5257	1459.6519	1475.8062	1485.0634	1517.8512	1643.3715	1655.2282	3037.3964	3091.7891	3123.1681	3181.1406	3192.4613	3773.0324
CC1=CC(F)=CN=C1O	Cc1cc(F)cnc1O	
InChI=1S/C6H6FNO/c1-4-2-5(7)3-8-6(4)9/h2-3H,1H3,(H,8,9)	InChI=1S/C6H6FNO/c1-4-2-5(7)3-8-6(4)9/h2-3H,1H3,(H,8,9)
