18
gdb 61532	3.20833	0.96628	0.83454	4.0163	72.71	-0.2789	0.0091	0.288	1382.5827	0.145317	-439.073686	-439.06408	-439.063135	-439.108592	34.759	
C	 0.2666429587	 1.57815926	-0.541855545	-0.472384
C	 0.0001718463	 0.1241815272	-0.2174042547	 0.419379
C	-1.4173799166	-0.3960315142	-0.4154622898	-0.29427
C	-2.3745151063	 0.0654457544	 0.7043635447	-0.016009
O	-2.6319780523	 1.459133809	 0.7130822212	-0.404198
C	-3.638968844	-0.6960095118	 0.638076847	 0.256064
N	-4.6370103544	-1.2717773983	 0.5489982793	-0.315348
C	 1.1093230658	-0.8428881272	-0.2480212005	-0.22819
O	 0.6038550002	-0.3523582914	 0.997029776	-0.274544
H	 1.3096077111	 1.8276802446	-0.3324990679	 0.127824
H	 0.0691664619	 1.7773322123	-1.6011968069	 0.117239
H	-0.3789714162	 2.2281678132	 0.0525763692	 0.151727
H	-1.8142908902	-0.0792805263	-1.3876555327	 0.111697
H	-1.4072124766	-1.4903406555	-0.413221216	 0.128983
H	-1.8952760473	-0.1496029473	 1.6652023802	 0.164433
H	-3.1353787577	 1.6801867738	-0.0793027222	 0.295299
H	 0.9118027282	-1.8945282395	-0.4523900863	 0.115371
H	 2.1102202694	-0.501950353	-0.5095045456	 0.116928
50.7045	86.7494	134.174	196.5701	224.227	254.1695	306.0652	348.2084	362.3543	395.7659	404.575	507.6947	561.6042	595.9986	736.8576	839.9566	859.0729	912.0782	929.8867	941.1417	1000.2211	1063.7027	1087.7878	1112.3375	1137.5883	1160.0845	1191.3902	1274.5313	1283.9862	1320.892	1366.4255	1401.4586	1420.7787	1425.7025	1466.6644	1485.2459	1506.1023	1532.7597	2354.532	3036.8852	3042.9007	3074.5822	3081.3487	3093.3097	3112.763	3139.0617	3167.9659	3797.8048
CC1(CC(O)C#N)CO1	C[C@@]1(C[C@@H](O)C#N)CO1	
InChI=1S/C6H9NO2/c1-6(4-9-6)2-5(8)3-7/h5,8H,2,4H2,1H3	InChI=1S/C6H9NO2/c1-6(4-9-6)2-5(8)3-7/h5,8H,2,4H2,1H3/t5-,6-/m1/s1
