18
gdb 73170	2.38225	1.4593	1.32118	4.2192	75.6	-0.2577	0.0202	0.2779	1068.5075	0.147665	-401.933744	-401.925443	-401.924499	-401.966888	31.123	
C	-0.2423113256	 1.431496082	-0.233682541	-0.507618
C	 0.0144529959	-0.0309237237	 0.0404185415	 0.28637
C	-1.149507868	-0.906883188	 0.5521711828	-0.133642
O	-0.3570652592	-1.4107722754	 1.6552359917	-0.286713
C	 0.7810523121	-0.6305412241	 1.260376656	 0.076207
C	 1.7368053377	-1.4056278	 0.3249865209	-0.255774
C	 1.005427666	-0.7856908726	-0.9200016999	-0.209376
C	 0.4352467954	-1.6924098518	-1.9008563017	 0.278015
N	-0.0402307847	-2.4186850215	-2.665517912	-0.336666
H	 0.6924193242	 1.9859802398	-0.3698396274	 0.122581
H	-0.8396613797	 1.558249471	-1.1444142361	 0.136268
H	-0.791015059	 1.8945306049	 0.5928457861	 0.131308
H	-2.0110711104	-0.3309760655	 0.9121909526	 0.106129
H	-1.5010505655	-1.7028343567	-0.1140459321	 0.13102
H	 1.207465849	-0.0537993093	 2.0852716628	 0.083414
H	 2.7875513428	-1.1154640591	 0.3848449205	 0.117432
H	 1.6491535588	-2.4877601024	 0.4263942458	 0.137296
H	 1.6481739001	-0.0712049077	-1.4414919402	 0.123749
59.3729	138.7139	181.7368	216.7688	255.2393	330.7391	370.062	397.8523	522.6511	539.8087	637.8115	656.6634	761.1535	841.888	874.534	908.9488	953.579	976.9052	1002.2157	1013.3694	1039.9834	1072.1434	1126.4426	1147.9928	1167.8449	1183.7078	1185.9247	1237.4868	1270.3286	1286.2279	1319.2756	1333.7354	1385.8454	1416.2099	1464.9436	1491.44	1492.9834	1523.074	2348.8356	3017.3148	3026.4092	3070.3146	3071.2939	3073.624	3084.494	3090.885	3101.9554	3146.8817
CC12COC1CC2C#N	C[C@]12CO[C@H]1C[C@H]2C#N	
InChI=1S/C7H9NO/c1-7-4-9-6(7)2-5(7)3-8/h5-6H,2,4H2,1H3	InChI=1S/C7H9NO/c1-7-4-9-6(7)2-5(7)3-8/h5-6H,2,4H2,1H3/t5-,6-,7+/m0/s1
