19
gdb 95856	2.4182	1.38368	1.10664	4.8637	75.65	-0.235	0.0265	0.2615	1170.5446	0.160873	-419.214587	-419.206065	-419.205121	-419.247672	32.314	
C	 0.0324489037	 1.5727618607	-0.0002748087	-0.414671
C	 0.0192828857	 0.0494222301	-0.0496967268	 0.03148
C	 0.7582758424	-0.4994701373	-1.2760493919	-0.075029
O	 0.7923966473	-1.9203611536	-1.2688203248	-0.23911
C	 1.4359753199	-2.4319004544	-0.1263347385	-0.082876
C	 0.7386817416	-1.9508772444	 1.1661007565	-0.159561
N	 0.5779129422	-0.4915698104	 1.203185138	-0.298079
C	-0.5759425674	-2.600614192	 1.3191985033	 0.314379
N	-1.5931767901	-3.1347792108	 1.4376959107	-0.32648
H	 1.0589347772	 1.9578921458	 0.0389964634	 0.112739
H	-0.4479326362	 1.9957045256	-0.8873227708	 0.125854
H	-0.4979745528	 1.9282506041	 0.8865382532	 0.13797
H	-1.0188969113	-0.3029512109	-0.1039039557	 0.114942
H	 0.2562715718	-0.212925084	-2.2049357814	 0.115789
H	 1.7873974973	-0.0968226498	-1.2997621598	 0.078279
H	 1.4184691497	-3.5220417497	-0.2095250871	 0.129779
H	 2.4872922755	-2.0970265354	-0.0835880153	 0.087852
H	 1.3468859454	-2.2474181151	 2.0291442359	 0.127347
H	 1.490680308	-0.0760074385	 1.3730100398	 0.219396
99.81	114.0132	201.0924	223.391	278.7705	302.8111	350.9185	411.5667	426.9819	467.1628	534.0088	610.6946	737.1842	763.992	798.9603	882.104	902.2179	938.0098	971.2125	995.2182	1019.6945	1122.7936	1126.7169	1152.1063	1161.4346	1175.5454	1252.713	1290.7033	1304.2108	1327.3356	1352.874	1377.3822	1387.052	1411.7342	1420.5357	1474.3138	1482.7036	1489.4203	1498.5275	1504.3102	2362.7505	2942.8206	2956.274	3028.3364	3036.8957	3045.2399	3085.5323	3094.2884	3101.2775	3126.9604	3492.5409
CC1COCC(N1)C#N	C[C@H]1COC[C@@H](N1)C#N	
InChI=1S/C6H10N2O/c1-5-3-9-4-6(2-7)8-5/h5-6,8H,3-4H2,1H3	InChI=1S/C6H10N2O/c1-5-3-9-4-6(2-7)8-5/h5-6,8H,3-4H2,1H3/t5-,6-/m0/s1
