16
gdb 127050	3.36185	1.08754	0.8309	4.5128	68.41	-0.2341	-0.016	0.218	1344.0581	0.12376	-471.161707	-471.152969	-471.152025	-471.195687	31.464	
C	-0.0914661832	 1.4959398707	 0.0034980757	-0.395118
C	-0.017786971	-0.0172343215	 0.0038089668	-0.053672
O	-1.3692806129	-0.5220194626	-0.013594727	-0.280064
C	-1.4940987691	-1.8486872124	-0.0174641706	 0.387033
N	-0.5318532315	-2.7239248326	-0.0013225036	-0.184356
O	-1.1585803658	-3.9483854832	-0.0011928604	-0.187658
N	-2.5376252217	-3.809145978	-0.0097715214	-0.167677
C	-2.7603131707	-2.5247854573	-0.0268840589	 0.281242
N	-3.9967919285	-1.9265342769	-0.1094357401	-0.591558
H	 0.9190707405	 1.9140207395	 0.0151305	 0.130182
H	-0.6059412861	 1.860528758	-0.8898202258	 0.134811
H	-0.6256216466	 1.8606895754	 0.8852958272	 0.131205
H	 0.5105604217	-0.4038776098	-0.8746996736	 0.131548
H	 0.489918046	-0.4053237728	 0.8939936157	 0.129621
H	-4.7659133968	-2.5183301398	 0.1702232303	 0.268494
H	-4.0362038944	-1.0050511465	 0.3010806556	 0.265967
67.4855	98.0662	127.8253	242.9149	259.2392	275.9632	316.5609	348.7679	427.1193	531.8679	577.979	614.9727	679.5275	769.2228	814.728	816.8278	893.8882	919.4973	942.9799	1043.9341	1060.1674	1137.2054	1152.7434	1182.513	1294.902	1330.5823	1399.8974	1423.1643	1484.4765	1490.6094	1497.8636	1519.4254	1611.6535	1630.3107	1677.0475	3039.7316	3048.7904	3079.6207	3125.0819	3127.6374	3568.347	3673.0799
CCOC1=NON=C1N	CCOc1nonc1N	
InChI=1S/C4H7N3O2/c1-2-8-4-3(5)6-9-7-4/h2H2,1H3,(H2,5,6)	InChI=1S/C4H7N3O2/c1-2-8-4-3(5)6-9-7-4/h2H2,1H3,(H2,5,6)
