18
gdb 44946	2.59915	1.79976	1.5864	2.5067	71.1	-0.2634	0.0225	0.2859	934.0239	0.151495	-439.122132	-439.115312	-439.114368	-439.153167	27.844	
N	-0.0445816963	 1.2848951119	-0.0908914746	-0.555034
C	-0.0114913431	 0.0264045009	-0.048173098	 0.422912
O	 1.1055195135	-0.7634622786	-0.0428580908	-0.253623
C	 0.6457328136	-2.1320763847	 0.0509377115	 0.185571
C	 0.5648054078	-2.5681400494	 1.5148219823	-0.220231
C	-0.3440876464	-1.6034056162	 2.306815539	-0.225396
C	-1.5915623548	-1.1884144738	 1.4968856039	-0.211834
C	-1.1996934972	-0.9175201405	 0.0359278128	-0.014118
O	-0.6405749083	-2.1176022622	-0.5196822167	-0.253343
H	 0.8992691178	 1.6747518504	-0.1162325813	 0.225432
H	 1.3052677987	-2.7522627094	-0.5592010138	 0.101385
H	 0.1608662107	-3.5867462871	 1.5212562371	 0.113774
H	 1.5667052855	-2.6075352622	 1.953804251	 0.110562
H	-0.6386162819	-2.0565510447	 3.2576773653	 0.103552
H	 0.2296355412	-0.7048200263	 2.5570649873	 0.125268
H	-2.3377346404	-1.9903010217	 1.489946162	 0.111128
H	-2.0569271067	-0.2994762681	 1.9334976368	 0.121072
H	-2.0367157537	-0.5963851683	-0.5824230335	 0.112922
132.6143	223.3836	265.4022	360.7275	427.7918	450.1351	483.3644	611.4706	681.9696	699.4815	786.4725	823.9526	843.4675	874.2382	894.7902	902.3105	904.6025	938.5359	1002.7796	1027.7493	1048.5231	1082.0893	1090.3119	1140.7773	1165.4039	1213.713	1259.9427	1270.8382	1308.2549	1327.0794	1350.414	1361.3213	1378.8022	1393.6526	1395.5265	1470.4918	1477.4247	1499.6679	1798.2903	3044.6579	3046.3429	3050.067	3084.3716	3093.3202	3101.9207	3103.8074	3134.0624	3472.1163
N=C1OC2CCCC1O2	[NH][C]1O[C@H]2CCC[C@@H]1O2	
InChI=1S/C6H9NO2/c7-6-4-2-1-3-5(8-4)9-6/h4-5,7H,1-3H2	InChI=1S/C6H9NO2/c7-6-4-2-1-3-5(8-4)9-6/h4-5,7H,1-3H2/t4-,5-/m0/s1
