21
gdb 59026	3.03155	1.17209	1.06338	1.7689	84.17	-0.234	0.0096	0.2437	1260.6807	0.182154	-387.088684	-387.079795	-387.078851	-387.122319	34.063	
C	 0.0218796208	 1.5582178559	-0.0324306688	-0.389485
C	-0.0114355697	 0.0197148389	 0.0453651469	-0.089762
C	 0.7326722922	-0.4828835359	 1.2965487272	-0.384668
C	-1.4209390869	-0.5053319661	 0.0035802569	 0.371708
C	-1.9656823186	-1.3115864493	-0.9158408218	-0.213334
C	-3.4174831061	-1.6419588047	-0.6347175946	-0.288055
C	-3.6701108811	-0.9445116751	 0.6966090385	 0.046047
O	-2.8630323989	-1.4212440391	 1.7749638379	-0.261229
C	-2.4406761062	-0.2274121719	 1.0719955724	-0.072976
H	 1.055272299	 1.9197979458	-0.0473474685	 0.11327
H	-0.4807751599	 1.9206241648	-0.9340800001	 0.116415
H	-0.4716488841	 2.0122392632	 0.8342239205	 0.115477
H	 0.507978943	-0.369976809	-0.8394633058	 0.074675
H	 0.7457576077	-1.5757101348	 1.3351935949	 0.123581
H	 1.7674634618	-0.1244746623	 1.301078578	 0.109209
H	 0.2509401748	-0.1237486008	 2.2126314257	 0.120366
H	-1.4294842736	-1.7321404767	-1.7604970376	 0.091725
H	-4.0870761779	-1.2570655751	-1.4152216474	 0.109269
H	-3.5962482528	-2.7220571461	-0.5664628069	 0.122957
H	-4.6664183868	-0.6095473556	 0.9729672614	 0.092774
H	-2.4277585967	 0.6750404339	 1.6760883311	 0.092036
61.0198	116.8065	184.249	227.0788	252.4743	308.9329	313.9795	322.2784	410.3986	473.2118	581.607	679.9793	743.9539	819.9315	825.8195	855.3248	867.6184	900.3577	926.6545	929.2766	955.8872	965.0178	1014.5276	1034.9438	1046.6634	1105.8711	1119.3077	1169.428	1184.6094	1215.8702	1256.5624	1274.3859	1309.3082	1341.4523	1342.0757	1382.2733	1395.6424	1411.3052	1417.41	1462.5618	1486.5527	1490.5232	1501.8268	1508.9082	1694.8425	3020.4185	3022.6991	3029.0191	3033.2922	3058.8843	3094.3205	3100.7185	3108.0248	3113.013	3144.9467	3159.685	3182.7841
CC(C)C1=CCC2OC12	CC(C)C1=CC[C@H]2O[C@@H]12	
InChI=1S/C8H12O/c1-5(2)6-3-4-7-8(6)9-7/h3,5,7-8H,4H2,1-2H3	InChI=1S/C8H12O/c1-5(2)6-3-4-7-8(6)9-7/h3,5,7-8H,4H2,1-2H3/t7-,8+/m1/s1
