20
gdb 31609	3.09318	1.12793	0.88172	0.8879	85.02	-0.1983	0.0316	0.2299	1361.1392	0.170953	-403.186776	-403.177051	-403.176107	-403.221414	35.337	
C	-0.3997713013	 1.2651792105	 0.3268255307	-0.352429
N	-0.1342005842	-0.1532031494	 0.1783490705	-0.037204
C	-0.2282072671	-0.8617340146	-0.9935816743	-0.194321
C	 0.1498367769	-2.1677420735	-0.7673292893	 0.278551
C	 0.1814595746	-3.2768368397	-1.7757681725	-0.497433
C	 0.488384461	-2.2453940862	 0.6130792905	-0.349938
C	 0.3128925613	-0.996194991	 1.1743014575	 0.269176
C	 0.51478886	-0.543567368	 2.5801765381	-0.186628
O	-0.6897526005	-0.101985834	 3.2192207866	-0.412443
H	 0.5177833507	 1.8608150951	 0.2458939795	 0.131086
H	-1.0886931871	 1.5858727619	-0.4576768779	 0.134116
H	-0.857670169	 1.4480184057	 1.3005691115	 0.164162
H	-0.5673199527	-0.3799472176	-1.8984850813	 0.108805
H	 1.1872275242	-3.6998317275	-1.8848185125	 0.122411
H	-0.4824309823	-4.1034860295	-1.4956998802	 0.121144
H	-0.1339256553	-2.9225783398	-2.7617755898	 0.115985
H	 0.8259248408	-3.1240256317	 1.1447548163	 0.088085
H	 0.9842311326	-1.3634139671	 3.1415570382	 0.104446
H	 1.1906137725	 0.3175553167	 2.6421485479	 0.111943
H	-1.3440215949	-0.7967605601	 3.0856712906	 0.280486
88.2499	94.8625	146.9828	150.1973	173.0632	245.8165	259.3916	279.2665	370.3599	409.8095	460.4359	590.5269	623.7826	638.8718	716.2478	742.8246	790.7357	802.4502	961.9148	991.7044	1015.3818	1024.5441	1062.5572	1083.8023	1153.5364	1163.311	1189.309	1201.7321	1253.2822	1350.3204	1377.9777	1399.17	1416.9041	1423.4423	1440.318	1467.9506	1483.4582	1495.6663	1499.0923	1506.1846	1523.334	1548.562	1622.2185	3008.7985	3021.525	3025.7256	3054.3049	3068.2178	3100.7009	3102.7604	3144.3374	3228.4835	3242.5447	3802.69
CN1C=C(C)C=C1CO	Cn1cc(C)cc1CO	
InChI=1S/C7H11NO/c1-6-3-7(5-9)8(2)4-6/h3-4,9H,5H2,1-2H3	InChI=1S/C7H11NO/c1-6-3-7(5-9)8(2)4-6/h3-4,9H,5H2,1-2H3
