18
gdb 23128	1.83398	1.77244	0.94388	2.4707	79.28	-0.2304	-0.0375	0.1928	1215.2234	0.148083	-439.060043	-439.051466	-439.050522	-439.093558	32.356	
O	 0.0297064298	 1.4672332778	-0.0547567158	-0.426168
C	 0.0409971624	 0.0605314819	-0.0118803374	-0.057343
C	-1.3749179551	-0.5377095784	 0.0418172821	-0.10172
C	-1.4056002509	-2.0900332746	 0.0077677401	-0.299882
C	-2.215477702	-2.4781341461	 1.2175752245	-0.06288
C	-2.5902183567	-1.4221610784	 1.9528085169	-0.153617
C	-2.0960288448	-0.1925812283	 1.340112128	 0.392881
N	-2.169949122	 1.018943035	 1.7506792958	-0.258937
O	-2.8370162786	 1.1194991309	 2.9831123156	-0.394173
H	-0.5588557235	 1.7591168767	 0.6582027521	 0.287401
H	 0.5466782375	-0.2827163558	-0.9218923245	 0.101953
H	 0.6201529975	-0.3216880292	 0.8474811016	 0.080735
H	-1.9361002387	-0.1236038633	-0.8026586175	 0.106916
H	-1.8437225611	-2.4786490798	-0.9185915955	 0.120764
H	-0.3942561373	-2.516484716	 0.0656142381	 0.120054
H	-2.4436228401	-3.5117421018	 1.4542682761	 0.111206
H	-3.156876741	-1.4391345638	 2.8723649031	 0.12546
H	-2.8518732955	 2.070486933	 3.1330456368	 0.307351
56.217	154.3881	181.0937	213.0895	266.0979	293.4877	377.1806	388.5178	427.4781	529.0202	550.0267	629.0897	700.9555	770.2086	801.4171	825.4385	908.6789	957.1422	967.1263	990.9971	1009.5336	1051.0413	1087.3427	1100.0587	1124.1722	1189.288	1220.3798	1240.6232	1283.084	1299.1612	1342.1362	1367.844	1384.2825	1408.4283	1464.9591	1477.0558	1510.1677	1646.4518	1717.7642	2947.1169	3015.9409	3045.6232	3056.0477	3064.0464	3195.2837	3250.3266	3690.5375	3824.4024
OCC1CC=CC1=NO	OC[C@H]1CC=CC1=NO	
InChI=1S/C6H9NO2/c8-4-5-2-1-3-6(5)7-9/h1,3,5,8-9H,2,4H2	InChI=1S/C6H9NO2/c8-4-5-2-1-3-6(5)7-9/h1,3,5,8-9H,2,4H2/t5-/m1/s1
