16
gdb 29025	2.59462	1.70331	1.15239	4.4051	82.6	-0.2461	-0.0752	0.1709	1059.2033	0.125231	-400.795896	-400.788083	-400.787139	-400.82827	29.221	
C	 0.0409898922	 1.5084304103	 0.4688264506	-0.477416
C	-0.0384870169	 0.0489969556	 0.1276565219	 0.171519
C	-1.2113911213	-0.6288940673	 0.0630390159	-0.128443
C	-1.4103556458	-2.0193040766	-0.2416103627	-0.070016
C	-0.4978323992	-3.0230356435	-0.1647752206	-0.115874
C	 0.854707922	-2.851485575	 0.3034745557	 0.001264
N	 1.5842067826	-1.7936466437	 0.2847623114	-0.226878
C	 1.2337743619	-0.5904809299	-0.3200941716	 0.288703
O	 1.9756711305	-0.0335002177	-1.1004872841	-0.323907
H	 0.6367840628	 1.6593522608	 1.3772993752	 0.1456
H	 0.5489686991	 2.0488827558	-0.3348508493	 0.16572
H	-0.9496805399	 1.9389012999	 0.6322653616	 0.123525
H	-2.1227072321	-0.056971323	 0.226303909	 0.102661
H	-2.4334965053	-2.2996886505	-0.4805957079	 0.113302
H	-0.8304304394	-4.0439240721	-0.3278415189	 0.109049
H	 1.3097442588	-3.733335103	 0.7635457838	 0.121191
93.2109	147.2885	179.7819	287.7236	291.7502	328.1218	372.2722	482.0455	541.819	614.9819	638.1446	741.9657	763.6848	815.8188	895.9311	920.0926	945.8524	980.7294	996.5033	1014.683	1061.7032	1090.5787	1117.336	1224.0479	1264.6653	1389.1685	1400.3863	1429.3068	1464.2718	1468.9026	1489.6052	1563.6993	1663.6078	1687.088	1772.7765	3034.0915	3085.9117	3096.6671	3131.456	3142.665	3159.2341	3180.3605
CC1=CC=CC=NC1=O	Cc1ccccnc1=O	
InChI=1S/C7H7NO/c1-6-4-2-3-5-8-7(6)9/h2-5H,1H3	InChI=1S/C7H7NO/c1-6-4-2-3-5-8-7(6)9/h2-5H,1H3
