17
gdb 64613	2.82273	1.49341	1.37356	4.9547	77.31	-0.2476	-0.0179	0.2297	1012.3809	0.136447	-380.86021	-380.852367	-380.851423	-380.892235	30.521	
C	-0.1753535637	 1.6254042391	 0.008274549	-0.419761
C	 0.0167257199	 0.0985125576	-0.0136524516	 0.071338
C	 0.7051861733	-0.4376716059	-1.2689258389	-0.11712
C	 1.7389366621	-1.2091087862	-0.9387252679	-0.078745
C	 1.9148804026	-1.2386285046	 0.5397294715	-0.068855
C	 2.2396937081	 0.085120846	 1.147954325	-0.246133
N	 0.8507626578	-0.3904100062	 1.1222180456	-0.108989
C	-1.3149690359	-0.5375693686	 0.1154407456	 0.294989
N	-2.3606118239	-1.0252575375	 0.1778625586	-0.341911
H	 0.7807435174	 2.1321471607	-0.1368198551	 0.12681
H	-0.8542583459	 1.9323832343	-0.7911854278	 0.140338
H	-0.6031226301	 1.9348472575	 0.964600626	 0.150335
H	 0.3653655411	-0.1885807079	-2.2662068082	 0.11993
H	 2.3913436721	-1.7308126024	-1.6276897397	 0.118436
H	 2.1575487796	-2.1662035784	 1.0495893766	 0.110671
H	 2.6585042364	 0.1429904134	 2.148638902	 0.127186
H	 2.555526679	 0.8706644093	 0.4674488794	 0.121481
126.2227	156.2664	205.5167	241.9312	277.8097	383.0244	426.9663	495.9003	523.3673	576.716	633.9463	711.0613	777.3926	781.1158	816.3596	870.4608	914.8338	928.0233	956.9406	990.8032	1047.3744	1065.9001	1102.7742	1112.2368	1134.2963	1168.887	1173.0651	1202.3516	1256.2934	1328.4499	1368.1462	1406.0474	1486.3465	1488.5835	1497.4897	1668.8732	2355.1962	3056.0797	3110.6381	3133.5539	3141.4358	3156.9311	3201.4466	3206.458	3229.6518
CC1(C=CC2CN12)C#N	C[C@]1(C=C[C@H]2CN12)C#N	
InChI=1S/C7H8N2/c1-7(5-8)3-2-6-4-9(6)7/h2-3,6H,4H2,1H3	InChI=1S/C7H8N2/c1-7(5-8)3-2-6-4-9(6)7/h2-3,6H,4H2,1H3/t6-,7-,9?/m0/s1
