17
gdb 78789	2.19645	1.85313	1.59702	2.7128	71.54	-0.2413	0.0049	0.2462	948.8439	0.135091	-421.800604	-421.792755	-421.791811	-421.832561	30.813	
C	 0.0370401909	 1.5998421515	 0.0100378567	-0.429808
C	 0.0683853786	 0.0788883953	-0.028337524	-0.033835
C	 0.8184773354	-0.685020237	-1.1384401345	-0.083365
C	 2.3060290606	-0.749709811	-0.7712150838	-0.193012
C	 1.265526727	-1.7632419026	-0.2177734531	-0.172095
C	 0.9898529236	-0.6789123451	 0.9547290415	 0.288272
O	 0.6412174298	-0.8588398832	 2.2636741769	-0.473583
C	 2.4185641451	-0.24158457	 0.6217202248	 0.359586
O	 3.3209407172	 0.0477321644	 1.3664445475	-0.369936
H	 1.0385734137	 2.0258883232	-0.1099699849	 0.125898
H	-0.5972587443	 2.0004974648	-0.7872453341	 0.118317
H	-0.3657941795	 1.9505589431	 0.9655802182	 0.132448
H	-0.9420425605	-0.3379274813	 0.0479223143	 0.089747
H	 0.531770551	-0.7846524502	-2.177335286	 0.103017
H	 3.0862263247	-0.9399143417	-1.4939637867	 0.117337
H	 1.313082658	-2.8403223075	-0.251292184	 0.122256
H	 1.4539974288	-0.7784663826	 2.7847747011	 0.298755
129.401	195.8042	201.8108	216.8995	258.063	377.2262	429.2069	487.2766	553.7362	639.1058	656.8366	701.3111	757.5248	798.0873	825.2062	827.9027	868.1214	898.4647	924.8834	962.2043	1009.5107	1022.8899	1092.5069	1098.7063	1118.1872	1137.4336	1171.5719	1204.3612	1276.3736	1334.1969	1357.9739	1381.8099	1411.3134	1427.0304	1494.041	1496.4884	1852.7147	3035.0583	3051.9751	3104.367	3107.6465	3200.0008	3228.4242	3250.3822	3724.114
CC1C2C3C2C1(O)C3=O	C[C@H]1[C@H]2[C@@H]3[C@H]2[C@@]1(O)C3=O	
InChI=1S/C7H8O2/c1-2-3-4-5(3)7(2,9)6(4)8/h2-5,9H,1H3	InChI=1S/C7H8O2/c1-2-3-4-5(3)7(2,9)6(4)8/h2-5,9H,1H3/t2-,3-,4+,5-,7+/m0/s1
