20
gdb 7585	3.01197	1.60195	1.5266	2.0981	70.28	-0.2532	0.0607	0.3139	975.1391	0.175797	-386.132938	-386.124136	-386.123192	-386.16567	33.912	
C	-0.4020661286	 1.4035856275	 0.0427886413	-0.422305
C	-0.0353181797	-0.0850820232	 0.0731808653	 0.110338
O	 0.558857206	-0.4800922583	-1.155186634	-0.444434
C	 0.9081867084	-0.4628439707	 1.2283075324	 0.391586
O	 2.1697536244	 0.1694452397	 1.0271722199	-0.492135
C	 0.2850065706	-0.3840152588	 2.6523669086	-0.292059
C	 0.0716992406	-1.9223543796	 2.6037844036	-0.213298
C	 1.0576499504	-1.9927012149	 1.4056110018	-0.258746
H	 0.4921293391	 2.0278614239	-0.0725108792	 0.100557
H	-1.0469320619	 1.6025608957	-0.8165374021	 0.130886
H	-0.9290404239	 1.7178204393	 0.9493980809	 0.114662
H	-0.9564345202	-0.6738317587	 0.1681517656	 0.081718
H	 1.4872106816	-0.2202529188	-1.0838054862	 0.280944
H	 2.0642069198	 1.1132230145	 1.1917078401	 0.279671
H	 1.0479363627	-0.1001240583	 3.3823851812	 0.105139
H	-0.5944619578	 0.2499090236	 2.7918767076	 0.095108
H	 0.3407175808	-2.4845832761	 3.499651499	 0.102748
H	-0.9494974752	-2.1919158154	 2.3232268981	 0.106699
H	 0.7896710233	-2.6081089611	 0.5453278574	 0.114529
H	 2.0745611097	-2.2356529402	 1.7219449787	 0.108391
98.0368	124.1382	207.4878	230.8339	274.9468	290.1346	324.7717	361.9802	435.023	471.97	503.2018	516.8872	674.371	720.8442	790.8406	822.3844	892.4142	923.8097	935.9625	964.8333	1007.1774	1030.5551	1037.6281	1104.1594	1113.5881	1133.8557	1197.3925	1202.0107	1250.647	1263.6119	1273.7474	1294.0505	1299.341	1333.6144	1372.8626	1399.3494	1430.2421	1469.8182	1485.9267	1489.4528	1501.055	1506.1222	3028.5445	3034.5299	3054.8887	3068.6137	3075.7222	3096.9903	3105.4095	3120.3961	3123.2674	3137.0522	3757.4834	3801.8634
CC(O)C1(O)CCC1	C[C@@H](O)C1(O)CCC1	
InChI=1S/C6H12O2/c1-5(7)6(8)3-2-4-6/h5,7-8H,2-4H2,1H3	InChI=1S/C6H12O2/c1-5(7)6(8)3-2-4-6/h5,7-8H,2-4H2,1H3/t5-/m1/s1
