17
gdb 41090	3.3979	1.81235	1.65116	0.6459	71.74	-0.2466	0.0443	0.2909	860.693	0.137224	-421.685123	-421.678949	-421.678004	-421.715307	26.256	
C	 0.0349893442	 1.5719531324	 0.1218301344	-0.214583
O	 1.4978811488	 1.5356257761	-0.0788601652	-0.322723
C	 1.2806662807	 0.294905685	-0.8555852299	 0.152883
C	 1.6236414764	-1.2008596484	-0.6966578559	-0.16457
C	 1.7640917574	-1.3772730954	 0.8145906609	-0.206751
C	 0.3246410061	-0.9352956024	 1.0925684642	 0.046251
O	-0.442086007	-2.0028554906	 0.4539705265	-0.262006
C	-0.0828517372	-1.3954582297	-0.7577841672	-0.047298
C	 0.0211063149	 0.0453245256	-0.1359927628	 0.220448
H	-0.2302014224	 1.9113700206	 1.126908442	 0.118488
H	-0.4493485714	 2.1926360497	-0.6404793245	 0.114266
H	 1.1378078636	 0.5652177316	-1.9095537074	 0.080684
H	 2.2972353722	-1.723181382	-1.3748366721	 0.072792
H	 1.9329695435	-2.4046464994	 1.1419535248	 0.109026
H	 2.5195558538	-0.7122280791	 1.2383746495	 0.119866
H	-0.0136161956	-0.7108721355	 2.1031726113	 0.085843
H	-0.5719345579	-1.7611534885	-1.6595362085	 0.097384
218.0103	243.6047	327.9512	443.2321	485.8814	576.428	595.0665	662.6059	691.7313	800.5138	821.5602	848.2322	877.9348	906.2147	923.3315	942.1546	969.1027	1002.6833	1007.9189	1023.0961	1048.6725	1088.5507	1106.3768	1113.8745	1131.9309	1165.5164	1193.8999	1212.6153	1222.8109	1242.4301	1272.9796	1295.8587	1326.8117	1331.0467	1368.6379	1472.8292	1499.8122	3022.8046	3034.5654	3077.0203	3103.1027	3126.668	3133.6388	3136.1672	3138.4512
C1OC2C3CC4OC3C124	C1O[C@H]2[C@H]3C[C@@H]4O[C@H]3[C@]124	
InChI=1S/C7H8O2/c1-3-5-7(2-8-5)4(1)9-6(3)7/h3-6H,1-2H2	InChI=1S/C7H8O2/c1-3-5-7(2-8-5)4(1)9-6(3)7/h3-6H,1-2H2/t3-,4+,5+,6-,7+/m1/s1
