18
gdb 63329	2.5334	1.42498	1.14302	1.9533	72.7	-0.2555	-0.0176	0.2378	1123.4043	0.147523	-439.18391	-439.175114	-439.17417	-439.218314	32.83	
C	-0.0353314906	 1.5435202848	 0.0215551769	-0.425708
C	-0.011185436	 0.0062545435	-0.0308998737	 0.158024
C	-1.443900492	-0.5536964885	-0.0108232723	-0.425688
C	 0.8273115303	-0.538808367	-1.2123229882	-0.399646
C	 1.9817623176	-1.3251606826	-0.5977913675	 0.417657
O	 2.8677525054	-1.912832207	-1.1625870003	-0.342361
N	 1.8296270303	-1.2441018604	 0.7827399265	-0.361008
C	 0.7321712306	-0.5124024634	 1.2144076479	 0.41602
O	 0.4311670877	-0.3276874029	 2.3671985761	-0.363503
H	 0.9766996876	 1.9606053195	-0.0070743009	 0.121372
H	-0.5912698561	 1.9430754967	-0.8325292773	 0.12029
H	-0.5159419538	 1.8839114127	 0.9423126967	 0.143327
H	-2.0118273011	-0.1720536819	-0.8652118478	 0.120302
H	-1.4465889495	-1.6474443861	-0.0627568655	 0.121386
H	-1.95397779	-0.2571140702	 0.9092355248	 0.143326
H	 0.2607322823	-1.2058471843	-1.8682158136	 0.141995
H	 1.2412422038	 0.2517605821	-1.8446465221	 0.141992
H	 2.4728577434	-1.6868072151	 1.4244694304	 0.272223
18.5372	133.9487	223.8974	236.3009	256.056	293.6237	322.2696	374.0618	399.1826	556.7806	557.1127	596.2056	637.4147	682.1461	734.3232	767.6351	871.2003	911.3433	916.8498	965.7817	986.2579	1038.7989	1123.9076	1139.6419	1220.3812	1250.4349	1251.9045	1297.3315	1343.1911	1360.9215	1397.9903	1421.2622	1463.7292	1482.6059	1490.4943	1501.695	1511.3733	1829.4034	1873.1994	3034.2245	3037.2233	3066.7351	3102.0265	3105.0339	3107.0634	3122.8868	3126.4969	3614.2487
CC1(C)CC(=O)NC1=O	CC1(C)CC(=O)NC1=O	
InChI=1S/C6H9NO2/c1-6(2)3-4(8)7-5(6)9/h3H2,1-2H3,(H,7,8,9)	InChI=1S/C6H9NO2/c1-6(2)3-4(8)7-5(6)9/h3H2,1-2H3,(H,7,8,9)
