15
gdb 5409	5.19886	1.49354	1.16868	3.7134	69.42	-0.2471	-0.0169	0.2301	971.4487	0.121025	-362.713773	-362.706668	-362.705724	-362.746342	25.738	
O	 0.3087441551	 0.786030953	 1.0295659502	-0.414469
C	-0.0671452146	 0.2113893777	-0.2060864991	-0.166707
C	-1.4370119844	-0.4111226036	-0.0866834674	 0.279355
C	-2.1618432144	-0.3818569668	 1.101174498	-0.187445
C	-3.4205447165	-0.9785824775	 1.1331813509	 0.008404
N	-3.9895153353	-1.5856744186	 0.0896509157	-0.271836
C	-3.2841786713	-1.6077992037	-1.0463575151	 0.011953
C	-2.0222896587	-1.0435367367	-1.1848760621	-0.192161
H	 1.1816014437	 1.1749373751	 0.9283047104	 0.294624
H	-0.0892246437	 0.9660754253	-1.0096148677	 0.108663
H	 0.6490656379	-0.5650276297	-0.5221540315	 0.108654
H	-1.7500281118	 0.0968823405	 1.979757793	 0.120621
H	-4.0017461398	-0.965579779	 2.0528035984	 0.106127
H	-3.7543848357	-2.1042618996	-1.8922968904	 0.105289
H	-1.5049160706	-1.0981568464	-2.1384210636	 0.088928
21.7477	181.1985	223.7621	230.9296	390.4733	417.623	495.4258	580.0097	681.2181	752.671	806.5302	823.0257	903.1669	986.7593	1002.8026	1009.5384	1045.2607	1086.6009	1093.617	1116.6422	1200.2541	1233.079	1251.0002	1256.0502	1306.1107	1360.6275	1440.3131	1456.8866	1507.1807	1530.2968	1606.8473	1640.9726	2960.464	2980.988	3148.5587	3151.1083	3173.2097	3225.8674	3844.9748
OCC1=CC=NC=C1	OCc1ccncc1	
InChI=1S/C6H7NO/c8-5-6-1-3-7-4-2-6/h1-4,8H,5H2	InChI=1S/C6H7NO/c8-5-6-1-3-7-4-2-6/h1-4,8H,5H2
