21
gdb 103218	3.61328	1.26301	1.12046	1.3892	82.55	-0.2517	0.0701	0.3218	1178.958	0.181978	-387.017035	-387.008616	-387.007672	-387.049763	33.494	
C	 0.048866524	 1.6102029913	 0.129302033	-0.401733
C	-0.1346023828	 0.1000491535	-0.0700634814	-0.240481
C	 0.6494750477	-0.4615321321	-1.2545305824	 0.424404
O	 0.2210972042	 0.1103432602	-2.4807913145	-0.494489
C	 2.1774966608	-0.6881056374	-1.1130561885	-0.113664
C	 1.9733084238	-2.0234007641	-0.3140009356	-0.054876
C	 2.907209404	-2.8109425499	-1.2525164478	-0.272869
C	 2.1596167312	-1.8378740747	-2.1829964232	-0.042439
C	 0.8195488647	-1.9839801493	-1.3781921874	-0.084738
H	 1.1033201113	 1.8709654858	 0.2731245561	 0.118305
H	-0.3274658785	 2.181250063	-0.7272991155	 0.109717
H	-0.501072932	 1.9592967371	 1.0080459229	 0.119199
H	 0.1664773637	-0.4236261156	 0.8438344318	 0.098374
H	-1.1972473555	-0.1216976013	-0.2277845871	 0.102003
H	 0.3746306715	 1.059570806	-2.4415598939	 0.276634
H	 2.9818375758	 0.0353076958	-0.9605982852	 0.061061
H	 1.8526459382	-2.118313833	 0.7655994104	 0.069324
H	 3.9827831985	-2.6479214022	-1.1268406182	 0.08889
H	 2.6935965972	-3.8775398323	-1.3786454001	 0.090338
H	 2.2424435902	-1.707415648	-3.2600665355	 0.080415
H	 0.052621512	-2.7454883827	-1.531376358	 0.066623
80.6059	169.1951	189.6138	239.2083	263.2877	322.7276	351.2858	383.4055	505.1214	556.1208	635.6758	751.6136	783.5282	815.4653	844.9173	851.9802	879.5654	918.1556	938.3282	964.3027	969.5715	1002.0189	1006.2968	1031.6758	1064.1525	1077.0374	1116.0941	1142.4907	1144.7099	1153.8823	1163.9351	1172.3027	1199.5419	1212.7814	1245.4886	1268.917	1307.3733	1309.5421	1345.4165	1400.0735	1409.7436	1476.4613	1500.5119	1510.5763	1513.8334	3027.6391	3032.0277	3034.0033	3067.3068	3083.182	3089.4901	3093.7086	3095.7593	3105.5346	3107.9384	3136.569	3817.3798
CCC1(O)C2C3CC2C13	CC[C@@]1(O)[C@H]2[C@@H]3C[C@H]2[C@H]13	
InChI=1S/C8H12O/c1-2-8(9)6-4-3-5(6)7(4)8/h4-7,9H,2-3H2,1H3	InChI=1S/C8H12O/c1-2-8(9)6-4-3-5(6)7(4)8/h4-7,9H,2-3H2,1H3/t4-,5+,6-,7+,8-
