16
gdb 65302	2.70434	1.39261	1.15364	4.8471	70.72	-0.2498	0.0098	0.2596	1091.7516	0.12277	-437.851314	-437.842821	-437.841876	-437.884589	31.333	
O	-0.1498371758	 1.3445746516	-0.2366553898	-0.442997
C	-0.036562785	-0.0305252428	-0.0293243499	 0.145863
C	-0.3653756473	-0.5954889386	 1.3614827023	-0.421052
C	-1.345159187	-0.7409495859	 0.2520143285	 0.436225
C	-2.7323542592	-0.1590980507	 0.0269173488	-0.352919
C	-2.9884469864	-1.5059688286	-0.6878566622	-0.076678
O	-1.6656312302	-1.9897177666	-0.3232087178	-0.294347
C	 0.9710910509	-0.7004784996	-0.8177664828	 0.262498
N	 1.7969670001	-1.2054504986	-1.4509221239	-0.346161
H	 0.6308102933	 1.7750484355	 0.1322882345	 0.298433
H	 0.1720221601	-1.4842828292	 1.6743582175	 0.151439
H	-0.5659350034	 0.1397652224	 2.1340183732	 0.133969
H	-3.3139640611	-0.004268367	 0.9371474079	 0.123156
H	-2.7657197584	 0.7379708112	-0.5906650847	 0.141364
H	-3.7723428872	-2.14068596	-0.2652127231	 0.118456
H	-3.1058420335	-1.4463937132	-1.7745546884	 0.12275
84.9071	119.8245	139.2434	211.1308	250.7571	313.7118	384.811	404.0963	441.842	529.7558	582.0372	661.3071	697.413	791.7768	865.242	870.5703	889.2609	917.6059	967.1377	1006.3283	1045.6053	1103.0699	1127.1874	1158.2805	1178.0588	1207.9408	1247.5369	1256.9265	1323.7741	1356.1227	1395.3288	1465.2604	1489.9852	1530.662	2347.5008	3045.9979	3087.5955	3098.0487	3131.0556	3150.2011	3231.0313	3783.97
OC1(CC11CCO1)C#N	O[C@]1(C[C@]21CCO2)C#N	
InChI=1S/C6H7NO2/c7-4-5(8)3-6(5)1-2-9-6/h8H,1-3H2	InChI=1S/C6H7NO2/c7-4-5(8)3-6(5)1-2-9-6/h8H,1-3H2/t5-,6+/m1/s1
