18
gdb 63776	3.14215	1.37481	1.22587	4.101	72.55	-0.244	0.0128	0.2567	1071.9094	0.145975	-439.062482	-439.053867	-439.052923	-439.095406	32.761	
C	-0.1840073118	 1.2759169955	-0.1800923695	-0.443603
C	 0.0558169748	-0.1957649556	 0.1351758183	 0.379734
O	-1.1621564063	-0.9063817233	 0.2572457037	-0.466695
C	 1.1795852491	-0.8614587463	-0.7508038034	-0.318461
C	 2.0342693091	-1.0131249532	 0.5151061654	-0.035863
C	 0.9396466624	-0.4070114124	 1.3808426642	-0.099022
N	 1.3347397517	-1.7841138669	 1.5041728773	-0.068586
C	 0.5747309473	-2.9312257022	 1.3023282929	 0.161274
O	 0.8852921865	-3.8270638463	 0.5568970949	-0.301787
H	 0.7530432995	 1.8412731989	-0.1886001785	 0.123766
H	-0.6507661926	 1.3867001267	-1.1656308851	 0.114532
H	-0.8517218939	 1.7159362066	 0.5668788652	 0.129641
H	-1.5931280863	-0.9263661004	-0.6042281091	 0.284713
H	 0.9156224847	-1.8015695006	-1.2385506202	 0.130196
H	 1.6010025236	-0.1664053728	-1.480222162	 0.105305
H	 3.1077507075	-0.8960757386	 0.6005074177	 0.110048
H	 1.0019250558	 0.2512469734	 2.2407139884	 0.101451
H	-0.3009549913	-2.9628471724	 1.9733838998	 0.093359
96.0426	130.9967	212.1752	253.3203	255.1106	295.3209	299.1205	363.4523	428.511	447.9372	581.2791	639.4391	669.7978	778.2249	831.7096	885.7139	891.729	936.9251	951.8899	979.8938	1029.7069	1039.7356	1049.6925	1082.6984	1121.2065	1138.8713	1180.643	1230.0303	1236.8123	1261.555	1296.2138	1362.4709	1406.2746	1416.191	1422.8204	1480.1302	1489.0922	1494.1131	1799.9044	2987.9954	3029.6416	3073.3728	3098.2249	3114.5021	3133.985	3172.025	3193.0554	3806.1386
CC1(O)CC2C1N2C=O	C[C@@]1(O)C[C@H]2[C@@H]1N2C=O	
InChI=1S/C6H9NO2/c1-6(9)2-4-5(6)7(4)3-8/h3-5,9H,2H2,1H3	InChI=1S/C6H9NO2/c1-6(9)2-4-5(6)7(4)3-8/h3-5,9H,2H2,1H3/t4-,5-,6+,7?/m0/s1
