16
gdb 17947	3.33693	2.28842	2.09322	2.3816	63.21	-0.2149	0.0733	0.2882	746.8404	0.131174	-383.690675	-383.684217	-383.683272	-383.720999	25.355	
C	-0.0117579805	 1.5483463575	-0.0326604683	-0.518661
C	-0.016871675	 0.0509886764	-0.0067353751	 0.214033
C	 0.4943540172	-1.0507821825	-0.9099350141	 0.013973
O	 1.1368621376	-1.775098989	 0.1389065917	-0.302014
C	 0.4734844889	-0.9092057386	 1.1127871105	 0.014998
C	-0.7810133299	-1.6378845119	 1.5661481168	-0.076431
O	-1.5330531492	-1.8132878968	 0.3570511905	-0.266614
C	-0.9915384477	-0.9288632981	-0.5955414164	 0.034499
H	 0.9906618483	 1.9514419092	 0.1496311863	 0.126625
H	-0.3479734382	 1.9214300831	-1.0053257918	 0.126926
H	-0.6855034708	 1.9621566954	 0.7270115469	 0.125621
H	 0.9513989299	-1.0544031858	-1.8936800541	 0.10275
H	 1.1514128497	-0.550627211	 1.8890690833	 0.086529
H	-0.5566405252	-2.6229473259	 1.985482188	 0.120865
H	-1.3538549697	-1.0491761245	 2.3006389706	 0.091135
H	-1.6882460653	-0.6416899175	-1.3747797047	 0.105767
176.7255	205.3636	247.5089	283.885	407.4346	556.4308	594.6095	683.8524	756.0665	778.7221	850.0297	878.4545	912.1265	929.2101	955.3454	995.3667	1011.3689	1026.468	1036.8305	1074.5384	1113.6119	1143.6143	1184.7287	1203.2174	1241.9352	1254.6116	1280.5782	1315.9436	1371.7813	1416.3078	1469.263	1486.9606	1496.9947	1499.87	2978.6919	3023.3408	3083.5856	3088.1272	3098.9845	3107.081	3170.5929	3188.3695
CC12C3OC1COC23	C[C@@]12[C@H]3O[C@@H]1CO[C@@H]23	
InChI=1S/C6H8O2/c1-6-3-2-7-4(6)5(6)8-3/h3-5H,2H2,1H3	InChI=1S/C6H8O2/c1-6-3-2-7-4(6)5(6)8-3/h3-5H,2H2,1H3/t3-,4-,5+,6-/m1/s1
