21
gdb 32416	2.83702	1.21152	0.918	1.2613	87.47	-0.1851	0.0534	0.2385	1345.9241	0.182665	-383.314789	-383.304495	-383.30355	-383.350563	37.366	
C	 0.1138765866	 1.561797281	 0.1288172678	-0.359966
C	-0.0291617925	 0.0413278339	-0.0616127693	-0.304744
C	 0.6900430786	-0.4816736539	-1.2708642996	 0.243085
C	 0.124308956	-0.8815305373	-2.4586988799	-0.19759
N	 1.1338760559	-1.2654950803	-3.3093027444	-0.315508
C	 2.3534880032	-1.1392339586	-2.6876554101	 0.31748
C	 3.6442515722	-1.4981428574	-3.34032177	-0.509654
C	 2.1089574736	-0.6464937075	-1.4217165728	 0.018221
N	 3.1395335365	-0.3904151435	-0.4653694858	-0.614598
H	 1.1656862004	 1.8458788211	 0.2369038094	 0.105383
H	-0.2861760507	 2.1001767932	-0.7359408464	 0.116478
H	-0.4198564502	 1.9024818651	 1.0225298611	 0.104464
H	 0.3397006935	-0.463264738	 0.8424165949	 0.089295
H	-1.0925636425	-0.2152413689	-0.1324706917	 0.097007
H	-0.9095410743	-0.9277524003	-2.7637750821	 0.107706
H	 1.0013187582	-1.6130254909	-4.242425647	 0.252651
H	 3.9080393595	-0.8192878106	-4.1620699928	 0.118216
H	 4.43716487	-1.4423068827	-2.5910057386	 0.152342
H	 3.6311477503	-2.5159597532	-3.7500980267	 0.116007
H	 3.3645881417	 0.5992416235	-0.4137769466	 0.233272
H	 2.843790414	-0.6648458945	 0.4662607205	 0.230453
36.2023	79.6228	112.625	169.7433	195.212	224.8229	260.9699	284.7244	290.2681	386.9428	451.8749	482.5908	568.4986	646.7338	689.2449	712.0053	717.109	747.8076	788.2905	843.2796	955.7289	973.1946	1035.9558	1065.0871	1071.5911	1085.4851	1117.8492	1214.0904	1227.2366	1249.2475	1298.3862	1332.4121	1361.2105	1399.2803	1404.0519	1423.8853	1475.5853	1482.3623	1488.4409	1495.3955	1503.5133	1507.2076	1568.3952	1626.7494	1674.3086	3005.0127	3010.5207	3031.2902	3052.0335	3053.7925	3099.6402	3107.793	3126.7646	3250.8732	3482.0572	3551.2466	3684.4211
CCC1=CNC(C)=C1N	CCc1c[nH]c(C)c1N	
InChI=1S/C7H12N2/c1-3-6-4-9-5(2)7(6)8/h4,9H,3,8H2,1-2H3	InChI=1S/C7H12N2/c1-3-6-4-9-5(2)7(6)8/h4,9H,3,8H2,1-2H3
