17
gdb 50267	2.7807	1.30604	1.09529	2.1565	80.87	-0.234	-0.027	0.2069	1140.2549	0.134082	-384.638148	-384.629658	-384.628713	-384.671529	31.88	
O	-0.8689307223	 1.0601051267	-0.3474717194	-0.249641
C	 0.1713525025	 0.9413860912	 0.252248773	 0.141564
C	 1.3602534229	 1.8489510286	 0.0925103965	-0.149772
C	 1.278017564	 3.0333632162	-0.9118818759	-0.253526
C	 1.4488893803	 4.0226774163	 0.2462002177	-0.0977
C	 0.3711205998	 3.8395622102	 1.2642324937	-0.326071
C	 1.5321588587	 2.8620589602	 1.2692951558	 0.180123
C	 2.3963292	 2.6718899124	 2.3799682187	 0.169959
C	 3.1376156539	 2.4837616144	 3.3103035553	-0.405232
H	 0.3000111508	 0.1482334389	 1.0240257907	 0.084854
H	 2.2671071186	 1.2486349606	-0.0224230269	 0.103114
H	 2.116256695	 3.0351612646	-1.610113056	 0.112401
H	 0.3410282133	 3.107258339	-1.468570222	 0.127616
H	 2.0741070109	 4.9062753426	 0.2291882926	 0.107354
H	 0.3804048873	 4.5387321145	 2.0927503164	 0.13142
H	-0.6164553048	 3.49794426	 0.9652308661	 0.135134
H	 3.788247809	 2.3254425235	 4.1341481037	 0.188403
71.2411	101.8906	154.6339	200.4219	243.0021	339.702	406.4462	488.8257	511.7753	560.174	584.3621	653.5347	670.1709	698.6493	807.1547	825.7247	867.7329	927.809	951.5371	995.8221	1029.2917	1035.5638	1083.929	1097.2164	1104.2035	1150.429	1181.202	1206.2919	1268.8437	1281.4136	1347.6547	1373.1749	1420.6366	1478.2552	1496.0937	1816.5855	2228.4375	2872.6516	3073.39	3078.0934	3120.5193	3131.1541	3197.0638	3220.0032	3502.4843
O=CC1CC2CC12C#C	O=C[C@H]1C[C@H]2C[C@@]12C#C	
InChI=1S/C8H8O/c1-2-8-4-6(8)3-7(8)5-9/h1,5-7H,3-4H2	InChI=1S/C8H8O/c1-2-8-4-6(8)3-7(8)5-9/h1,5-7H,3-4H2/t6-,7+,8+/m0/s1
