20
gdb 36358	4.39629	0.8061	0.74189	1.8818	87.2	-0.2359	0.0619	0.2977	1563.777	0.169332	-365.928373	-365.919088	-365.918144	-365.963187	34.74	
C	-0.0697112686	-1.079195638	-0.5659361541	-0.455023
C	-0.0024397162	 0.0288905599	-0.10459257	 0.310934
C	 0.1011795262	 1.3724928776	 0.4566450469	-0.377991
C	 1.4746860292	 1.994820208	 0.2468447714	-0.020203
C	 1.810014247	 2.667053282	-1.062887617	-0.30422
C	 1.6321875208	 3.4950324012	 0.1834490159	 0.030645
N	 0.451373488	 4.3092182954	 0.2759325646	-0.059562
C	 0.3357748602	 5.1643814565	 1.4540275992	-0.224221
C	 0.6356141903	 5.748527384	 0.117211866	-0.221911
H	-0.139617151	-2.0559814919	-0.9755336208	 0.190382
H	-0.6561831015	 2.0273833659	 0.0135589064	 0.146232
H	-0.1248439023	 1.3337299988	 1.5307770675	 0.124923
H	 2.2837678865	 1.4549024743	 0.7298426683	 0.093395
H	 2.8054904195	 2.5501885875	-1.4759176002	 0.111026
H	 1.0162065518	 2.7317554822	-1.7992765976	 0.12402
H	 2.5362424536	 3.910345665	 0.6387740947	 0.071307
H	-0.6582898057	 5.2473933342	 1.8839284893	 0.118259
H	 1.1465625571	 5.1402608319	 2.1802394318	 0.111678
H	 1.6464492267	 6.1158797212	-0.0506465835	 0.112029
H	-0.1360851117	 6.2645468642	-0.4468120485	 0.118303
47.6402	77.4557	106.9652	169.9933	233.5677	299.8966	336.4016	353.1298	429.2784	506.843	587.2342	611.1391	632.0434	725.5727	808.6579	823.102	849.1985	883.8062	900.2522	949.7552	956.2138	1010.7529	1041.4268	1057.3461	1067.5478	1099.1487	1118.9266	1119.9856	1130.6686	1148.9795	1175.761	1206.9661	1229.0346	1247.15	1315.9966	1326.8396	1388.1056	1418.0705	1471.5712	1488.8835	1491.7074	1519.0789	2237.3488	3019.5408	3045.1086	3075.3843	3096.2274	3100.654	3136.3096	3151.1544	3178.5501	3193.152	3224.7718	3507.8635
C#CCC1CC1N1CC1	C#CC[C@H]1C[C@H]1N1CC1	
InChI=1S/C8H11N/c1-2-3-7-6-8(7)9-4-5-9/h1,7-8H,3-6H2	InChI=1S/C8H11N/c1-2-3-7-6-8(7)9-4-5-9/h1,7-8H,3-6H2/t7-,8+/m0/s1
