17
gdb 111712	3.0674	1.21052	1.0184	5.1161	74.95	-0.2335	-0.0108	0.2228	1197.9613	0.135958	-417.955138	-417.946632	-417.945688	-417.988487	31.211	
C	 0.2861319224	 1.0363228643	-0.5692338762	-0.31665
N	-0.2125545924	 0.2671271596	 0.5651967321	-0.293514
C	-1.4571423393	-0.3847286803	 0.3409397937	-0.04062
C	-1.6994460652	-1.5996540308	-0.5591575059	-0.201706
C	-0.5220778908	-2.55971179	-0.4522692962	-0.109487
O	-0.5616151317	-2.5232813762	 1.0058098362	-0.319708
C	-1.7425429056	-1.7149575176	 0.9704826985	 0.300166
C	-2.8004947763	-2.0012147373	 1.8868585988	 0.228168
N	-3.6702508413	-2.2164796104	 2.6187287472	-0.343689
H	 1.2593013	 1.4630941534	-0.3132440559	 0.128645
H	 0.3932724373	 0.4536103222	-1.4995796915	 0.100717
H	-0.3963170331	 1.8679794545	-0.7768194027	 0.12843
H	 0.471526395	-0.4000605916	 0.9027244794	 0.240578
H	-2.3184876915	 0.2817204122	 0.3449511779	 0.1241
H	-2.5174838815	-1.6658315924	-1.2633225008	 0.12335
H	-0.7387034264	-3.5708209528	-0.8087898039	 0.13327
H	 0.4429418503	-2.2210475568	-0.8436417307	 0.11795
87.8324	128.2871	155.3269	192.7097	221.2001	267.5023	324.9194	445.6386	503.7019	538.3073	586.7364	692.0354	726.4358	788.4363	855.1824	900.1127	964.5328	969.4095	987.7607	1018.1967	1028.8324	1105.1426	1131.1175	1153.7748	1161.3807	1183.4185	1207.3998	1269.0865	1322.5462	1334.3946	1410.4027	1461.0492	1485.2415	1507.1014	1511.3913	1528.3241	2350.3718	2962.8324	3043.6101	3061.9871	3097.6952	3114.2836	3129.5066	3212.8439	3550.7315
CNC1C2COC12C#N	CN[C@H]1[C@H]2CO[C@@]12C#N	
InChI=1S/C6H8N2O/c1-8-5-4-2-9-6(4,5)3-7/h4-5,8H,2H2,1H3	InChI=1S/C6H8N2O/c1-8-5-4-2-9-6(4,5)3-7/h4-5,8H,2H2,1H3/t4-,5+,6-/m1/s1
