19
gdb 81803	2.11097	1.77855	1.26398	3.2587	75.17	-0.2442	0.0775	0.3217	1084.0934	0.156769	-422.971403	-422.962624	-422.96168	-423.004459	33.384	
C	-0.1931676423	 1.5396644816	-0.0348498831	-0.413533
C	 0.0117899129	 0.0304116155	-0.0005277532	-0.120895
C	 1.180382976	-0.5167062367	-0.8479516472	-0.056886
O	 1.2338016913	-1.9256140044	-0.6170128402	-0.289031
C	 1.8931584628	-1.0592735538	 0.3299789679	 0.331194
C	 3.3314562541	-1.3129058277	 0.6393260396	-0.519815
C	 0.7899967412	-0.5192538392	 1.2287284243	 0.40763
C	 0.9000221869	 0.0476031631	 2.5733676072	-0.268674
O	 0.2405103848	-1.2047003045	 2.3348300714	-0.271121
H	 0.7441489205	 2.0755795474	 0.1507425589	 0.114717
H	-0.5752705936	 1.8593585393	-1.0101264609	 0.121316
H	-0.9164914493	 1.8562046932	 0.7231568796	 0.126129
H	-0.9211596161	-0.506539492	-0.1937746423	 0.099545
H	 1.5736533363	-0.1367801147	-1.7845425954	 0.103831
H	 3.8764337579	-1.5601510267	-0.2751839088	 0.137929
H	 3.7944824822	-0.4341053257	 1.0992965528	 0.124657
H	 3.4328536612	-2.1533251792	 1.3346884308	 0.141629
H	 1.8405538433	-0.0180496589	 3.119585125	 0.114769
H	 0.2510731799	 0.8706109734	 2.8691344735	 0.116608
97.6968	180.1685	198.494	214.9435	227.6517	236.0675	276.2105	385.1569	419.752	512.2413	529.3321	602.9467	659.5625	781.2135	840.0431	851.5283	865.7431	916.1852	959.4434	974.6839	1016.1267	1053.7508	1091.9822	1107.4342	1117.1724	1126.5789	1131.6192	1163.431	1226.3646	1246.247	1259.1029	1348.0515	1394.8322	1407.0439	1428.8186	1462.948	1482.6846	1492.9896	1496.745	1499.9383	1536.9153	3030.5321	3037.4144	3071.85	3080.1771	3098.7895	3100.49	3103.6381	3124.2388	3165.2976	3181.174
CC1C2OC2(C)C11CO1	C[C@H]1[C@@H]2O[C@]2(C)[C@]21CO2	
InChI=1S/C7H10O2/c1-4-5-6(2,9-5)7(4)3-8-7/h4-5H,3H2,1-2H3	InChI=1S/C7H10O2/c1-4-5-6(2,9-5)7(4)3-8-7/h4-5H,3H2,1-2H3/t4-,5-,6-,7+/m0/s1
