17
gdb 102853	1.78812	1.33968	0.83955	3.1478	71.43	-0.2704	0.0029	0.2733	1347.6465	0.132592	-458.945232	-458.935332	-458.934387	-458.980875	34.687	
O	 0.1345285534	 1.5207080876	-0.0040591685	-0.413849
C	 0.1511193314	 0.1166159512	 0.138915442	-0.076488
C	-1.2525024842	-0.4843543471	 0.0528909198	 0.074284
C	-2.1975931362	 0.0718336396	 1.1334407316	-0.346231
C	-3.5341999019	-0.5002309703	 1.0613467092	 0.2749
C	-4.6263979417	-0.9944038359	 0.9741745886	-0.419615
O	-1.7495653154	-0.1282869318	-1.2486731128	-0.207468
C	-2.451967423	-1.0428837834	-1.9547534791	 0.177239
O	-2.90384245	-0.8053985683	-3.0325437499	-0.273066
H	-0.2527006533	 1.7085730994	-0.8673636091	 0.300309
H	 0.7845979864	-0.3639156711	-0.6215106499	 0.104337
H	 0.5827897101	-0.098070787	 1.1219157329	 0.117432
H	-1.1918528677	-1.5772483074	 0.1366102075	 0.098726
H	-1.7529540651	-0.1326390193	 2.1154261324	 0.137035
H	-2.2329397705	 1.1607027665	 1.0256536744	 0.157329
H	-5.6000021614	-1.4136144406	 0.9074885031	 0.20482
H	-2.5397079208	-2.011418952	-1.4304599622	 0.090306
60.1856	79.514	104.2184	129.4646	177.5001	211.2938	301.8462	325.3456	347.8176	386.7984	443.8543	537.8214	585.727	629.6622	659.0743	690.6678	884.3427	919.3292	930.4942	988.6812	1035.072	1061.1215	1090.5184	1112.5313	1170.4183	1232.7719	1238.455	1285.1265	1360.6276	1371.0604	1402.5808	1425.8896	1437.7704	1463.6841	1495.3603	1867.3764	2240.2493	2979.8528	2996.9709	3030.4851	3036.4717	3082.189	3088.1104	3504.2321	3798.4545
OCC(CC#C)OC=O	OC[C@@H](CC#C)OC=O	
InChI=1S/C6H8O3/c1-2-3-6(4-7)9-5-8/h1,5-7H,3-4H2	InChI=1S/C6H8O3/c1-2-3-6(4-7)9-5-8/h1,5-7H,3-4H2/t6-/m1/s1
