19
gdb 106286	2.82147	1.25228	1.02953	0.4938	72.09	-0.2556	0.073	0.3286	1193.5749	0.15765	-460.103341	-460.094059	-460.093115	-460.137078	35.124	
O	-0.0830518714	 1.4209194602	 0.0507904461	-0.423265
C	-0.0512031254	 0.0003333621	 0.001496097	-0.222401
C	-1.4648292483	-0.4969731269	 0.0038317805	 0.337017
C	-2.5367172885	-0.2928340352	 1.1174427942	-0.331644
C	-3.2242780445	-1.135016816	 0.0015590771	 0.338255
O	-4.481779829	-1.7120035341	-0.0094375651	-0.477661
C	-2.577087396	-0.1753048716	-1.0446680023	-0.33011
C	-1.9256023971	-1.9778495313	-0.0439170068	 0.059419
O	-1.5939061418	-2.6875397293	-1.2102326983	-0.452265
H	 0.8221302601	 1.7410435065	-0.0024280002	 0.288359
H	 0.4564415405	-0.3598052003	-0.90681464	 0.101526
H	 0.4861984585	-0.4184686604	 0.8684068506	 0.086197
H	-2.3566596735	-0.7892741233	 2.075615913	 0.089227
H	-2.8897816781	 0.7316428366	 1.2467772101	 0.101423
H	-5.1411105384	-1.0121290547	-0.0649497237	 0.284214
H	-2.9367638463	 0.8561156805	-1.0528191695	 0.091721
H	-2.4256533443	-0.5768282962	-2.0457549749	 0.106603
H	-1.7165683139	-2.5669532082	 0.8604449107	 0.062002
H	-2.2397085127	-3.3936321183	-1.3176772086	 0.291381
84.5767	136.4208	178.1632	210.2771	241.8391	267.0771	279.8373	316.8114	372.1542	418.731	520.8869	533.6524	612.1097	661.9513	672.0625	775.5606	819.7845	917.815	970.0564	985.0433	1030.9914	1044.4478	1068.6589	1106.3278	1118.3692	1126.3976	1138.8106	1146.5655	1163.8962	1167.0252	1248.7815	1258.276	1277.4507	1323.5601	1349.0953	1371.7338	1429.6107	1470.118	1486.8907	1515.5544	1546.6254	2963.1798	2998.0417	3004.2586	3054.9725	3074.5742	3130.1524	3155.3785	3810.6866	3814.6089	3830.6037
OCC12CC(O)(C1)C2O	OC[C@@]12C[C@@](O)(C1)[C@H]2O	
InChI=1S/C6H10O3/c7-3-5-1-6(9,2-5)4(5)8/h4,7-9H,1-3H2	InChI=1S/C6H10O3/c7-3-5-1-6(9,2-5)4(5)8/h4,7-9H,1-3H2/t4-,5-,6-/m0/s1
