20
gdb 78296	2.83316	1.39085	1.11005	2.8714	80.71	-0.2053	0.0651	0.2704	1192.4613	0.167325	-403.057042	-403.047855	-403.046911	-403.090169	35.356	
C	-0.1961996374	 1.3402667916	-0.0675942793	-0.317299
N	 0.101590848	-0.0846899434	 0.0617239803	-0.076161
C	 1.5313897724	-0.3899243703	-0.1068824747	-0.13202
C	 0.9189544399	-0.395228734	 1.2455435331	-0.132015
C	 1.1365457671	-1.9555613255	 1.3301060234	 0.336194
C	 1.3565097222	-2.7501402982	 2.5741071192	-0.510023
O	 0.4658707386	-2.5598457421	 0.2171249916	-0.30136
C	 1.7429289508	-1.9503331168	-0.0094775927	 0.336203
C	 2.8250697	-2.7375044422	-0.6702411405	-0.51002
H	 0.6033010249	 2.0084788873	 0.2970413504	 0.093
H	-0.3780357222	 1.5688587848	-1.1223592819	 0.125907
H	-1.109518735	 1.5625723877	 0.4930072582	 0.125904
H	 2.2158140205	 0.3223733043	-0.550982703	 0.090348
H	 1.0345650006	 0.3121507437	 2.0575025164	 0.090341
H	 0.4223635493	-2.8523030632	 3.1384798637	 0.134673
H	 1.7185773003	-3.7529363495	 2.3321808944	 0.132959
H	 2.0894725229	-2.2595895046	 3.2236288695	 0.12287
H	 2.6330158876	-2.8331942058	-1.7452028692	 0.134674
H	 3.7953572453	-2.2449802528	-0.5448785444	 0.122867
H	 2.885076414	-3.7429310811	-0.2451102245	 0.132957
170.524	181.2761	186.8711	191.6734	199.5622	230.223	273.7432	326.4474	356.6093	415.5214	540.9562	571.3387	580.5868	735.9684	750.7436	801.6872	814.8844	845.9887	854.2149	872.7228	938.5635	983.9726	1076.2055	1091.5725	1117.2965	1125.4765	1133.3348	1135.3339	1173.3741	1205.9688	1254.6482	1285.3171	1327.3463	1407.6745	1409.2435	1449.1597	1472.1406	1475.0159	1486.4988	1490.2752	1492.4677	1500.0162	1530.7428	2950.1261	3029.8276	3031.3876	3066.5664	3090.9609	3091.5689	3105.3501	3117.3513	3119.4655	3184.1075	3197.1747
CN1C2C1C1(C)OC21C	CN1[C@H]2[C@@H]1[C@@]1(C)O[C@@]21C	
InChI=1S/C7H11NO/c1-6-4-5(8(4)3)7(6,2)9-6/h4-5H,1-3H3	InChI=1S/C7H11NO/c1-6-4-5(8(4)3)7(6,2)9-6/h4-5H,1-3H3/t4-,5+,6-,7+,8?
