21
gdb 94058	4.32175	0.95397	0.82381	1.1281	85.56	-0.2446	0.0548	0.2994	1425.1195	0.182536	-387.077063	-387.068025	-387.06708	-387.11047	35.111	
C	-0.0037943108	 1.5321855993	 0.0844041278	-0.403257
C	 0.0267384828	 0.0146910674	-0.0126402435	 0.150437
C	 0.7041740273	-0.498390348	-1.2890701479	-0.211797
C	 0.820163147	-2.0277635946	-1.2754458731	-0.215473
C	 1.4848748928	-2.5032961162	 0.0366282015	-0.176612
C	 0.7407829813	-1.869060144	 1.2344122299	-0.081582
O	 0.7176488971	-0.4619338227	 1.1407724566	-0.258143
C	 1.5145014435	-3.9552281492	 0.1498642531	 0.299828
C	 1.5092170115	-5.1531431918	 0.2547163885	-0.443832
H	 1.0138799157	 1.9347310291	 0.0716138941	 0.122965
H	-0.5580400926	 1.9606573562	-0.7560068265	 0.113202
H	-0.4835037148	 1.8454502219	 1.0154357124	 0.12355
H	-1.0076605529	-0.3745854686	 0.0138760178	 0.061115
H	 0.1371588367	-0.1685248225	-2.1669275295	 0.095562
H	 1.7022671353	-0.0465541245	-1.3582720418	 0.100278
H	-0.1773061939	-2.4799825357	-1.3442251417	 0.106654
H	 1.3901680102	-2.387451377	-2.1373194992	 0.107156
H	 2.5148303322	-2.1213837848	 0.0605626275	 0.107976
H	-0.282893177	-2.2772293501	 1.2774589162	 0.093523
H	 1.2443018125	-2.1144076201	 2.1728985098	 0.11564
H	 1.518609456	-6.2110120042	 0.3451666879	 0.19281
82.5044	135.4794	194.0227	216.3035	249.2659	303.3905	325.0775	372.6922	456.3204	481.8053	502.3434	529.2609	591.0459	630.7641	639.4427	790.1766	828.3542	875.3636	914.6377	943.6997	997.1149	1008.2687	1037.8315	1072.5256	1099.7588	1136.8623	1146.0188	1176.7532	1214.1276	1247.3407	1287.1479	1311.95	1327.6957	1337.3313	1359.2407	1382.8552	1397.694	1411.2542	1414.9511	1474.3585	1485.1285	1488.7476	1498.3209	1502.2172	2234.3186	2934.1021	2969.5468	3013.243	3023.8399	3033.0421	3042.4564	3071.7249	3085.0232	3096.526	3115.6181	3121.9123	3505.0635
CC1CCC(CO1)C#C	C[C@H]1CC[C@@H](CO1)C#C	
InChI=1S/C8H12O/c1-3-8-5-4-7(2)9-6-8/h1,7-8H,4-6H2,2H3	InChI=1S/C8H12O/c1-3-8-5-4-7(2)9-6-8/h1,7-8H,4-6H2,2H3/t7-,8-/m0/s1
