17
gdb 48761	3.02836	1.28258	1.04021	3.4902	73.71	-0.2511	-0.0298	0.2213	1143.4256	0.135373	-421.863556	-421.855667	-421.854723	-421.896352	29.972	
O	-0.3691713286	 0.1543416678	 0.1917111484	-0.266841
C	-0.1006788691	 1.3206812012	 0.0341809781	 0.085599
C	 1.2689136197	 1.8640443768	-0.0446811399	 0.244963
C	 1.4899212748	 3.3280341564	 0.3063260107	-0.336819
C	 1.5732778573	 2.9312171063	-1.1277901681	-0.081021
C	 2.9342986484	 2.6258931467	-1.71625993	-0.33512
C	 3.5480789696	 1.5313302385	-0.8221210947	 0.383645
O	 4.7047474333	 1.2069279112	-0.8239097588	-0.297657
C	 2.4532114871	 0.9318906592	 0.0702575195	-0.408394
H	-0.9026025284	 2.0878530533	-0.0798242318	 0.067455
H	 0.6203068156	 3.8953913008	 0.6221761134	 0.12991
H	 2.4005768927	 3.5704743495	 0.8467542209	 0.132472
H	 0.7740959857	 3.2451412484	-1.7898470863	 0.106135
H	 2.846929179	 2.2263186007	-2.7340447173	 0.140605
H	 3.6077705343	 3.4866553385	-1.7662446582	 0.139741
H	 2.8312066402	 0.7991046424	 1.0879349251	 0.139111
H	 2.1826458684	-0.0643805677	-0.3001486711	 0.156218
73.5346	109.4943	197.2259	241.0406	349.2504	382.9099	457.3959	469.1478	489.1361	603.5918	628.2908	755.7183	769.6991	806.8133	827.8367	882.7083	923.6342	967.7156	1021.926	1041.5094	1068.1977	1081.2957	1094.7017	1146.387	1165.0938	1197.925	1244.5785	1267.1643	1281.8628	1350.8374	1392.8633	1434.6203	1449.7306	1454.3384	1487.8724	1810.8405	1851.6843	2853.1079	3043.728	3050.7019	3093.0848	3097.0534	3122.5336	3174.0073	3209.1097
O=CC12CC1CC(=O)C2	O=C[C@]12C[C@H]1CC(=O)C2	
InChI=1S/C7H8O2/c8-4-7-2-5(7)1-6(9)3-7/h4-5H,1-3H2	InChI=1S/C7H8O2/c8-4-7-2-5(7)1-6(9)3-7/h4-5H,1-3H2/t5-,7-/m1/s1
