15
gdb 54564	3.2009	1.5717	1.22123	3.9621	65.52	-0.2376	0.0055	0.243	986.0327	0.1126	-453.851196	-453.843757	-453.842812	-453.883531	28.443	
N	-0.0060801854	 1.0998903965	-0.6628883429	-0.539047
C	 0.0155481365	-0.013542513	 0.1223732717	 0.246151
O	 0.9772145496	-0.3942736319	 0.757755569	-0.350873
C	-1.3026281315	-0.7391337905	 0.1236674491	 0.243763
N	-2.6053930733	-0.1096292003	-0.2788422757	-0.398184
C	-2.9924320344	-1.5230024776	 0.0412491831	-0.087575
C	-1.6875781773	-2.0946293572	-0.5782836267	 0.076426
O	-1.3568847648	-2.9266381178	 0.5586041129	-0.313584
C	-1.9186028533	-1.7306786136	 1.1671158045	 0.038768
H	 0.8512009821	 1.6080878122	-0.8069860254	 0.263637
H	-0.8109365562	 1.2994407489	-1.234618906	 0.272495
H	-2.930576769	 0.5191943415	 0.4600099903	 0.220016
H	-4.0105971059	-1.9052677998	-0.0249449198	 0.101979
H	-1.4687051753	-2.4428535206	-1.5860910579	 0.115062
H	-1.9798867617	-1.6650123868	 2.2533607835	 0.110965
57.0515	151.7626	190.4029	309.8223	344.9494	439.9273	492.8849	558.8758	605.4426	664.3116	708.8977	764.7013	787.7842	834.8278	844.8967	903.7179	925.8798	931.641	1018.3139	1040.933	1087.2209	1103.2905	1106.5062	1158.6574	1166.4498	1189.5806	1217.859	1262.8702	1295.8147	1326.2003	1403.9777	1604.0391	1804.6677	3122.1822	3132.1774	3147.8608	3409.3136	3584.9234	3724.8982
NC(=O)C12NC3C1OC23	NC(=O)[C@@]12N[C@H]3[C@@H]1O[C@@H]23	
InChI=1S/C5H6N2O2/c6-4(8)5-2-1(7-5)3(5)9-2/h1-3,7H,(H2,6,8)	InChI=1S/C5H6N2O2/c6-4(8)5-2-1(7-5)3(5)9-2/h1-3,7H,(H2,6,8)/t1-,2-,3+,5+
