19
gdb 102783	1.76624	1.38565	0.82123	5.9582	74.18	-0.2624	-0.0336	0.2288	1405.7604	0.155249	-460.208192	-460.19778	-460.196836	-460.244415	35.987	
C	 0.0015990719	 1.5841138377	 0.1306295435	-0.387633
C	-0.0419208642	 0.0542083959	 0.1075272702	-0.203655
C	-1.4696258489	-0.4985795919	 0.0320704186	-0.004609
O	-2.0496005368	-0.0055107634	-1.1693900878	-0.177556
C	-3.3890677561	-0.1200335456	-1.3196043349	 0.186416
O	-3.9462537147	 0.2104347234	-2.3207139712	-0.276604
C	-1.5485112665	-2.0383577293	 0.074073009	 0.373608
C	-0.8021404805	-2.7374270353	 1.1930778938	-0.48516
O	-2.2098656916	-2.6396771303	-0.7364466407	-0.27971
H	 1.0353085859	 1.9383349933	 0.1736597468	 0.121164
H	-0.4667892117	 1.9996014289	-0.764188349	 0.150047
H	-0.5254058929	 1.9809965987	 1.0054182957	 0.115759
H	 0.5188019625	-0.3259523163	-0.7543209338	 0.125614
H	 0.4388542796	-0.34635178	 1.0055862255	 0.109003
H	-2.0407560791	-0.1318776074	 0.9023429056	 0.103778
H	-3.8952359752	-0.508404467	-0.4174220299	 0.079442
H	-0.9107004854	-2.2068721057	 2.1445047058	 0.138695
H	-1.1720546884	-3.7589238731	 1.2874349228	 0.153809
H	 0.2684344223	-2.7698605826	 0.9612510901	 0.157592
54.6648	83.4888	98.6856	151.6811	166.4893	187.5344	208.9715	253.2037	295.341	349.3146	404.5931	442.9867	551.4914	585.7	673.3424	791.9315	809.1772	941.8086	966.285	1001.5165	1011.3184	1035.1784	1075.9659	1133.4542	1139.438	1192.0359	1204.0518	1274.4902	1313.4506	1361.4835	1377.2006	1384.786	1414.0342	1439.0004	1463.1494	1472.5137	1483.7606	1497.1697	1509.443	1819.9128	1872.5424	2961.9033	2977.0468	3040.0559	3040.6077	3045.1631	3086.6523	3103.8307	3108.9304	3135.5165	3154.3434
CCC(OC=O)C(C)=O	CC[C@@H](OC=O)C(=O)C	
InChI=1S/C6H10O3/c1-3-6(5(2)8)9-4-7/h4,6H,3H2,1-2H3	InChI=1S/C6H10O3/c1-3-6(5(2)8)9-4-7/h4,6H,3H2,1-2H3/t6-/m1/s1
