16
gdb 18304	3.63375	2.17312	1.55573	3.5958	70.35	-0.2321	-0.0434	0.1888	819.8384	0.132655	-346.629133	-346.622664	-346.62172	-346.66006	24.982	
O	-0.0456455482	 0.0522329405	 0.3688816493	-0.339735
C	-0.0606077746	 1.2213477192	 0.0571506144	 0.376891
C	-1.2571426315	 2.0647201957	-0.2011627138	-0.180751
C	-0.896540129	 3.3143360315	-0.5240798598	-0.061001
C	 0.5923889328	 3.5125063255	-0.5417392112	-0.068411
C	 1.1998035667	 4.1752215797	 0.7435743675	-0.226731
C	 1.6723658195	 2.7772884217	 1.2279241047	-0.223314
C	 1.1550756726	 2.1342462552	-0.105168651	-0.129677
H	-2.2651671042	 1.6794703017	-0.1119764687	 0.114299
H	-1.5853741584	 4.1287737133	-0.728407491	 0.113612
H	 0.9435552267	 3.9389092163	-1.4852078724	 0.085334
H	 2.0200184025	 4.8610236206	 0.5209244223	 0.108573
H	 0.4830042136	 4.6909884562	 1.386590441	 0.105195
H	 2.7499635168	 2.6859117672	 1.3730967024	 0.114584
H	 1.1749239601	 2.4003721327	 2.1241520063	 0.117234
H	 1.9267648648	 1.670260863	-0.7196216698	 0.093897
68.8913	197.7292	240.233	375.2612	467.8785	587.4719	710.4819	716.5239	739.0278	761.2832	817.4291	840.6215	871.0296	918.7654	964.501	967.912	1004.8639	1018.4796	1045.5836	1095.9251	1119.3982	1178.6929	1198.8797	1221.6856	1226.8039	1257.1773	1266.6834	1282.3898	1315.9975	1365.5539	1478.8756	1495.0585	1636.683	1808.181	3064.0952	3069.8396	3075.6237	3109.5386	3114.9801	3133.0103	3177.1445	3222.5165
O=C1C=CC2CCC12	O=C1C=C[C@H]2CC[C@@H]12	
InChI=1S/C7H8O/c8-7-4-2-5-1-3-6(5)7/h2,4-6H,1,3H2	InChI=1S/C7H8O/c8-7-4-2-5-1-3-6(5)7/h2,4-6H,1,3H2/t5-,6-/m1/s1
