22
gdb 7343	4.17482	0.93865	0.87765	2.3853	78.99	-0.237	-0.0064	0.2306	1457.6642	0.197304	-350.242871	-350.232375	-350.231431	-350.27942	36.771	
C	-0.0542292894	 1.5950209405	-0.051425577	-0.386326
C	 0.0028669506	 0.0739069164	 0.1072824328	-0.159751
C	-1.358352059	-0.5935491421	-0.0835428247	-0.288801
C	-1.3337150477	-2.1110735511	 0.0281099389	 0.380832
O	-0.297755864	-2.7315362957	 0.1193012277	-0.319371
C	-2.6930349859	-2.8201074974	 0.0472875373	-0.057864
C	-2.6315180603	-4.1480972508	-0.7146228934	-0.384497
C	-3.1027092003	-3.0345474315	 1.5191853923	-0.385616
H	 0.9335483308	 2.0442447739	 0.089967	 0.115266
H	-0.4085021674	 1.8796432226	-1.048777961	 0.112144
H	-0.7326760723	 2.0490228566	 0.6799575097	 0.111471
H	 0.7105374917	-0.3569466874	-0.6084142702	 0.115244
H	 0.3916843436	-0.1868678124	 1.0980403972	 0.108119
H	-2.0985186191	-0.2044948439	 0.6305557052	 0.115035
H	-1.7761469462	-0.3522156119	-1.0734786059	 0.120502
H	-3.4333429608	-2.1583088827	-0.4198545693	 0.073914
H	-1.8398905926	-4.7796393238	-0.3040036711	 0.139242
H	-3.583905774	-4.6817403042	-0.6383510806	 0.107424
H	-2.414554416	-3.9897830775	-1.775604164	 0.113593
H	-3.1577469452	-2.0904695562	 2.0710987406	 0.115166
H	-4.0854478428	-3.5126203173	 1.5745790613	 0.118835
H	-2.3776264237	-3.680473624	 2.0240378042	 0.13544
24.4529	65.9042	91.3226	138.4258	206.5069	232.5131	243.2997	251.1424	288.3079	305.6556	355.7681	440.2879	572.4794	648.5261	746.9751	805.8995	872.5703	880.3741	916.8425	932.2126	972.235	1036.2221	1050.7267	1064.6877	1119.8259	1137.8498	1143.5295	1198.836	1248.1282	1309.2187	1319.7873	1334.2987	1369.2845	1393.5558	1394.7287	1413.9837	1415.7093	1447.6805	1485.9566	1486.5717	1489.7453	1500.7591	1501.7262	1507.7278	1512.3377	1802.7019	2998.5185	3025.4037	3027.3314	3028.2543	3033.8416	3041.2618	3047.7013	3074.7528	3099.5428	3102.346	3102.8221	3106.5358	3112.726	3128.2838
CCCC(=O)C(C)C	CCCC(=O)C(C)C	
InChI=1S/C7H14O/c1-4-5-7(8)6(2)3/h6H,4-5H2,1-3H3	InChI=1S/C7H14O/c1-4-5-7(8)6(2)3/h6H,4-5H2,1-3H3
