21
gdb 115708	2.5803	1.11341	0.84792	3.6539	74.46	-0.2449	0.0561	0.3011	1392.5689	0.181149	-461.334561	-461.324499	-461.323555	-461.370085	36.524	
C	-0.0444141653	 1.6182408664	-0.1317549881	-0.410322
C	 0.0361195828	 0.1273211336	 0.1976627824	 0.117403
O	 0.6018004144	-0.0949464883	 1.4881828539	-0.430785
C	-1.3227680642	-0.5581186679	 0.0760453763	-0.074836
C	-1.8795991999	-0.8271249539	-1.3397257818	-0.090881
O	-1.9974391313	-2.2407767266	-1.0816501059	-0.30683
C	-1.4160624067	-2.0974996881	 0.2463389697	 0.105519
C	-0.160795859	-2.94903113	 0.3499896765	-0.06831
O	-0.4912140057	-4.3031783777	 0.1000828894	-0.427648
H	 0.9397096183	 2.0824071322	-0.0272299067	 0.129778
H	-0.3978669236	 1.7825740773	-1.1551665936	 0.122601
H	-0.7398910276	 2.1287815163	 0.5465484796	 0.108639
H	 0.7440178936	-0.3463869157	-0.4921559301	 0.095547
H	 0.0569589563	 0.3702887589	 2.1331698031	 0.278262
H	-2.0405983422	-0.0342090439	 0.717114665	 0.070362
H	-2.8484165486	-0.3729927725	-1.5768207087	 0.105501
H	-1.1810182523	-0.6155216665	-2.1612102801	 0.099577
H	-2.133117806	-2.4304471477	 1.0071337866	 0.082548
H	 0.6029288523	-2.5913661446	-0.3572899628	 0.08087
H	 0.2619358199	-2.887990583	 1.3562330202	 0.121406
H	-0.9641073252	-4.3071925484	-0.741445145	 0.291598
52.1828	94.6975	112.8138	130.1222	205.7253	241.0843	284.832	288.7683	344.288	368.2389	465.1523	477.0357	486.3505	567.419	772.6447	815.0191	878.2291	916.2145	926.1211	994.636	1021.8959	1035.2299	1053.5852	1070.8371	1084.2509	1103.1066	1142.9194	1162.9633	1191.897	1213.7174	1254.022	1263.539	1296.6178	1331.4002	1342.5105	1361.8448	1400.7936	1404.5876	1409.8036	1422.001	1433.9219	1489.8615	1494.8777	1497.7471	1526.1316	2987.0932	3003.0439	3023.4004	3025.0809	3037.7833	3050.5683	3062.0474	3093.8336	3102.2341	3120.2314	3782.6135	3795.8024
CC(O)C1COC1CO	C[C@@H](O)[C@H]1CO[C@H]1CO	
InChI=1S/C6H12O3/c1-4(8)5-3-9-6(5)2-7/h4-8H,2-3H2,1H3	InChI=1S/C6H12O3/c1-4(8)5-3-9-6(5)2-7/h4-8H,2-3H2,1H3/t4-,5-,6+/m1/s1
