14
gdb 124058	3.8956	1.6166	1.15071	3.504	69.3	-0.2147	-0.0109	0.2038	968.0801	0.105259	-432.888322	-432.881738	-432.880794	-432.920209	24.639	
C	-0.0059536874	 1.4899471117	 0.1283688183	-0.177454
O	 1.246885758	 2.041345797	-0.3354949644	-0.240129
C	 2.2594365364	 1.2483198736	-0.7761631828	 0.118103
N	 2.3126823191	-0.0186673132	-0.8640884354	-0.356026
C	 1.1474040832	-0.6659052057	-0.4393906621	 0.190321
C	 0.0412310646	 0.0046444717	 0.0315498979	 0.292326
N	-0.8766407118	-0.9362849712	 0.3433048954	-0.300337
N	-0.4328191148	-2.1942110106	 0.1021108703	-0.22018
C	 0.7988564083	-2.0337967812	-0.3743258933	-0.100088
H	-0.1537027857	 1.845394667	 1.1578435309	 0.131699
H	-0.8013063422	 1.9320789118	-0.4880219232	 0.131696
H	 3.0967585969	 1.8731824939	-1.0728469346	 0.133589
H	-1.8039212162	-0.8166874605	 0.7148732877	 0.274623
H	 1.3902538615	-2.8929619343	-0.6525228246	 0.121855
36.506	217.6343	244.703	405.5805	479.0203	480.715	550.0097	631.5562	681.9352	728.0102	749.8305	867.3568	893.5666	935.0458	947.5693	965.2344	1047.537	1092.8543	1122.6174	1216.6123	1226.6211	1229.3445	1300.8004	1385.4352	1402.5835	1434.923	1446.003	1522.7361	1543.0791	1617.7011	1679.2724	2992.7965	3014.557	3189.3876	3256.6197	3667.4581
C1OC=NC2=C1NN=C2	C1OC=Nc2c1[nH]nc2	
InChI=1S/C5H5N3O/c1-4-5(8-7-1)2-9-3-6-4/h1,3H,2H2,(H,7,8)	InChI=1S/C5H5N3O/c1-4-5(8-7-1)2-9-3-6-4/h1,3H,2H2,(H,7,8)
