19
gdb 116265	2.1712	1.5547	1.07749	1.4745	75.87	-0.2627	0.0252	0.2879	1158.6618	0.159396	-422.986794	-422.977831	-422.976887	-423.020915	33.522	
O	 0.2625105407	 1.3231916061	 0.0347611027	-0.429682
C	 0.0708201014	-0.070289858	-0.1362156858	-0.09004
C	-1.4046483033	-0.4773393845	-0.0922331277	-0.009258
C	-1.628434392	-2.0104801652	-0.1869504056	-0.256255
C	-2.4601262051	-2.3447195435	 1.0658254305	-0.082088
O	-3.1063966681	-1.129774175	 1.4328785855	-0.235646
C	-2.165375011	-0.085866344	 1.2184969037	-0.089847
C	-1.2875102322	 0.0932220514	 2.3870657553	 0.333436
C	-0.5766520399	 0.2497676132	 3.3457780328	-0.484575
H	 0.1437648193	 1.5074569988	 0.9735556261	 0.285394
H	 0.4815245172	-0.321615925	-1.1200025651	 0.107563
H	 0.6357565848	-0.6463544672	 0.6112680951	 0.096046
H	-1.9166982056	 0.0285394817	-0.9148494105	 0.093859
H	-2.1712862465	-2.2663622861	-1.0994712936	 0.114269
H	-0.6825047952	-2.5609454348	-0.1998301042	 0.105183
H	-3.2393830957	-3.0912554269	 0.8971191895	 0.113099
H	-1.8136976325	-2.6940549749	 1.8842258122	 0.101721
H	-2.7429336778	 0.8326635876	 1.0799276325	 0.119363
H	 0.0346212614	 0.3835231263	 4.2046323265	 0.20746
43.8358	132.5079	146.1284	175.9428	219.848	278.7954	377.8662	389.8038	439.236	526.6016	580.5978	629.1874	664.4779	678.2131	703.4882	836.4061	840.505	923.8533	940.0237	958.779	1005.2891	1029.883	1077.9526	1085.4667	1108.4198	1130.5255	1205.2899	1236.2254	1251.8494	1272.4929	1310.9561	1321.5814	1346.8303	1371.7206	1389.1766	1411.8077	1422.0727	1496.1283	1500.4365	1519.2534	2217.9192	2998.4349	3000.0915	3057.8959	3060.1908	3069.6646	3080.9004	3097.3169	3113.4797	3496.7818	3794.6927
OCC1CCOC1C#C	OC[C@H]1CCO[C@H]1C#C	
InChI=1S/C7H10O2/c1-2-7-6(5-8)3-4-9-7/h1,6-8H,3-5H2	InChI=1S/C7H10O2/c1-2-7-6(5-8)3-4-9-7/h1,6-8H,3-5H2/t6-,7+/m1/s1
