18
gdb 11031	4.24169	1.77891	1.45985	1.7449	72.5	-0.2411	0.0049	0.2459	916.6389	0.153266	-347.803634	-347.795981	-347.795036	-347.835048	29.646	
C	-0.0268369303	 1.5976834205	 0.0620751709	-0.392958
C	 0.012783652	 0.0631022478	 0.0036544052	-0.061974
C	 0.7638754196	-0.4831473494	-1.200200114	-0.07829
C	 1.7449045995	-1.3198678548	-0.858127269	-0.139504
C	 1.8319095353	-1.4489676304	 0.6346292854	 0.390329
C	 2.393456598	-2.6720186015	 1.3010956527	-0.494082
O	 2.1450092964	-0.175240584	 1.2652548499	-0.299487
C	 0.7730407525	-0.5739730249	 1.1684998342	-0.035773
H	 0.988547795	 1.9934886051	 0.1454385425	 0.139289
H	-0.4897751584	 2.0145796019	-0.8379254821	 0.111789
H	-0.6035723423	 1.9424897327	 0.9262396737	 0.114561
H	-1.0191330242	-0.3172502133	 0.0026180613	 0.08184
H	 0.5310212605	-0.1655229297	-2.2113409803	 0.097746
H	 2.418392481	-1.8300995873	-1.536891799	 0.09686
H	 3.4523023007	-2.7995785861	 1.0495977828	 0.127907
H	 2.3111225152	-2.5891719473	 2.3874624726	 0.13094
H	 1.8610366309	-3.5716420571	 0.9742958447	 0.124374
H	 0.2750185086	-0.7543467423	 2.1188180387	 0.086432
138.893	191.4944	208.3142	228.2246	272.7809	344.5503	415.9684	514.1836	540.651	627.1568	706.0644	749.3699	801.3553	844.8787	854.6195	919.9681	925.7884	963.2127	1002.8149	1027.73	1054.3774	1096.8802	1100.8375	1122.5661	1145.4886	1240.7002	1286.508	1315.9734	1323.7419	1365.1544	1398.4394	1410.8279	1448.6998	1484.1	1494.1655	1495.4788	1504.38	1667.0146	3001.0789	3034.2287	3037.8138	3094.9042	3102.6977	3124.4371	3125.3194	3133.4273	3180.184	3208.351
CC1C=CC2(C)OC12	C[C@H]1C=C[C@@]2(C)O[C@@H]12	
InChI=1S/C7H10O/c1-5-3-4-7(2)6(5)8-7/h3-6H,1-2H3	InChI=1S/C7H10O/c1-5-3-4-7(2)6(5)8-7/h3-6H,1-2H3/t5-,6-,7+/m0/s1
