23
gdb 69311	2.81705	1.31908	1.2559	0.1918	91.02	-0.2238	0.0239	0.2476	1187.5318	0.204962	-351.167314	-351.158027	-351.157082	-351.200281	37.204	
C	 0.0246475049	 1.5749121701	 0.0380131837	-0.487302
C	 0.0401184974	 0.0653806389	-0.0059941653	 0.324379
C	-0.8732492114	-0.7518681015	 0.8907905899	-0.344184
C	 0.6224261098	-0.8251889493	 1.0816784786	-0.099951
C	 1.4252372006	-1.9598572235	 0.4221322783	 0.244483
C	 2.9327052492	-1.7458668957	 0.668489487	-0.418996
C	 1.019993125	-3.3603692046	 0.9166852472	-0.416949
C	 1.1018338157	-1.7526427193	-1.0521939454	-0.109882
C	 0.3940290671	-0.6446295141	-1.2759545228	-0.158635
H	 0.9871528369	 1.9946492509	-0.2757551338	 0.116934
H	-0.7474132373	 1.983540821	-0.6251628422	 0.115662
H	-0.1856292279	 1.9382620498	 1.048889508	 0.114031
H	-1.4304752688	-0.2162717913	 1.6541784029	 0.102724
H	-1.4029597618	-1.5928359634	 0.4556441653	 0.107696
H	 1.0281711314	-0.384477824	 1.9871494316	 0.073613
H	 3.1714032852	-1.8548217098	 1.7331863366	 0.107088
H	 3.5301193541	-2.478481092	 0.1150210649	 0.107682
H	 3.2421203538	-0.7466779884	 0.3478486195	 0.115429
H	-0.0481742354	-3.5440947581	 0.7729721604	 0.114011
H	 1.5703021064	-4.1396040344	 0.3772741551	 0.10725
H	 1.2426416533	-3.4751521721	 1.9831764598	 0.110383
H	 1.4250182774	-2.4589357574	-1.8105774748	 0.086134
H	 0.0694951044	-0.2885403915	-2.2486967744	 0.088398
128.1777	183.5692	199.6655	216.6885	244.7881	276.7266	319.2915	327.6051	373.5606	384.6667	458.9708	550.3375	595.7075	638.8966	759.5371	775.2224	791.1078	831.7953	902.1786	934.5204	941.2464	945.6107	959.8042	975.4017	988.0675	1028.5034	1056.356	1065.9853	1081.8871	1111.5203	1130.3758	1180.1777	1206.8643	1251.2735	1285.9668	1289.8948	1346.1328	1393.8318	1398.7649	1417.3133	1425.9048	1476.2507	1482.2053	1486.2657	1488.5516	1500.9174	1502.101	1506.6697	1669.9819	3021.2627	3021.9773	3029.3515	3079.3906	3087.1279	3092.3168	3097.8524	3106.1674	3111.1986	3116.7696	3152.915	3167.6536	3193.1348	3204.0717
CC12CC1C(C)(C)C=C2	C[C@]12C[C@H]1C(C)(C)C=C2	
InChI=1S/C9H14/c1-8(2)4-5-9(3)6-7(8)9/h4-5,7H,6H2,1-3H3	InChI=1S/C9H14/c1-8(2)4-5-9(3)6-7(8)9/h4-5,7H,6H2,1-3H3/t7-,9-/m0/s1
