14
gdb 56432	2.40872	1.33543	0.96556	3.7884	64.58	-0.2664	-0.0994	0.1669	1173.1971	0.099462	-470.022521	-470.013279	-470.012334	-470.057185	32.801	
N	-0.0250900107	 1.2373857854	 0.4705535621	-0.512086
C	 0.0846945795	-0.0691171646	 0.1068892244	 0.2851
N	 1.210798514	-0.6237283907	-0.1414012559	-0.500892
C	-1.2626413555	-0.7635988299	 0.0724583664	 0.338581
O	-2.2996738924	-0.15927008	 0.2148744454	-0.317015
C	-1.3455697559	-2.3024010034	-0.1191415198	-0.094754
O	-2.6459267603	-2.7409943582	 0.1192142745	-0.400058
C	-0.8902807317	-2.6555883151	-1.4820849288	 0.254367
N	-0.5417743184	-2.936307077	-2.5474307667	-0.306764
H	 0.7863491214	 1.8227664192	 0.3621364819	 0.273379
H	-0.9376128139	 1.6605285311	 0.4574165654	 0.277159
H	 1.1208650764	-1.6053415234	-0.3878722307	 0.23724
H	-0.6614313656	-2.7770372399	 0.5978607744	 0.158737
H	-3.2060434968	-1.9476522135	 0.0848388275	 0.307006
49.9371	69.0232	133.2258	212.7748	248.9178	319.3131	348.868	374.7399	390.2568	421.0602	460.4793	510.7751	549.5346	604.3709	646.1157	727.5133	801.5684	880.873	953.3288	1056.4674	1120.3462	1130.8127	1161.5987	1241.436	1340.0363	1419.0524	1434.2536	1599.8468	1715.2671	1795.0939	2353.5381	3024.4613	3540.591	3607.0854	3679.6066	3736.5686
NC(=N)C(=O)C(O)C#N	NC(=N)C(=O)[C@@H](O)C#N	
InChI=1S/C4H5N3O2/c5-1-2(8)3(9)4(6)7/h2,8H,(H3,6,7)	InChI=1S/C4H5N3O2/c5-1-2(8)3(9)4(6)7/h2,8H,(H3,6,7)/t2-/m0/s1
