17
gdb 98119	4.66895	0.83678	0.71576	1.9226	72.52	-0.258	-0.0749	0.1831	1535.5946	0.134692	-455.20418	-455.194623	-455.193679	-455.239629	33.14	
C	 0.2360957174	 1.4472496788	-0.0155396933	-0.384923
C	 0.1353005346	-0.0755678766	-0.0080671604	-0.275459
C	-1.2859742923	-0.5772992267	 0.0401270873	 0.36393
O	-2.2584465413	 0.1499685812	 0.0694116756	-0.331889
C	-1.4968127271	-2.0856952044	 0.0531932142	 0.280098
N	-0.5001013503	-2.872724559	 0.0234348765	-0.494717
N	-2.8574422278	-2.4026122344	 0.0994491619	-0.335571
C	-3.3987246032	-3.6607377922	 0.1225284734	 0.165253
O	-2.7662144889	-4.6938191842	 0.1050798461	-0.300471
H	 1.2833696536	 1.7582129195	-0.0514019569	 0.117346
H	-0.2794856133	 1.8727480523	-0.8805473942	 0.130647
H	-0.2205588041	 1.8774939738	 0.8797185374	 0.130607
H	 0.6131752374	-0.5258864564	-0.8866268212	 0.148446
H	 0.6703573496	-0.5213813169	 0.8392304317	 0.148489
H	-0.8106586139	-3.846665335	 0.0376214261	 0.260867
H	-3.4649129333	-1.5910942829	 0.116386859	 0.274502
H	-4.5035126871	-3.6319094568	 0.1584309267	 0.102844
46.9836	69.5054	108.7055	148.3331	204.3021	249.624	260.9332	310.7669	338.4729	416.3789	513.1095	599.9801	658.7628	730.621	744.4079	821.3961	922.1994	945.3827	979.6992	1010.4331	1030.6354	1086.4839	1096.1565	1154.544	1179.242	1262.5746	1332.2177	1389.8615	1417.4743	1433.2826	1434.7312	1495.5458	1499.2665	1520.7293	1712.4246	1781.9714	1805.6505	2965.7448	3047.9714	3052.2075	3070.0522	3124.7292	3125.4776	3466.6416	3557.2894
CCC(=O)C(=N)NC=O	CCC(=O)C(=N)NC=O	
InChI=1S/C5H8N2O2/c1-2-4(9)5(6)7-3-8/h3H,2H2,1H3,(H2,6,7,8)	InChI=1S/C5H8N2O2/c1-2-4(9)5(6)7-3-8/h3H,2H2,1H3,(H2,6,7,8)
