15
gdb 64626	3.00668	1.43983	1.35094	5.1293	69.89	-0.2626	-0.0297	0.2329	984.6369	0.113629	-416.787672	-416.780274	-416.77933	-416.819396	28.901	
O	 0.0419388766	 1.3856778922	-0.0518926024	-0.457177
C	 0.050871195	-0.0292470027	-0.036063382	 0.236039
C	 0.6997839094	-0.5838080631	 1.2370613623	-0.133792
C	-0.1570308669	-1.2904292087	 1.973207781	-0.058614
C	-1.4965179504	-1.357331194	 1.3131234201	-0.075199
N	-2.1132441952	-0.0014102294	 1.1548948411	-0.356535
C	-1.3772555314	-0.6215549252	 0.0383606646	-0.107038
C	 0.7523720212	-0.4846824113	-1.2473446596	 0.266034
N	 1.2907903198	-0.8917510554	-2.1845370188	-0.333162
H	-0.631041447	 1.6255159953	 0.6040844797	 0.298041
H	 1.7156652822	-0.3132220157	 1.4950222288	 0.127944
H	 0.0508391928	-1.7239433937	 2.9436543417	 0.12016
H	-2.1509824315	-2.2127089211	 1.432950293	 0.110607
H	-3.1130944169	-0.0945945633	 0.985154427	 0.243052
H	-1.8939116077	-0.897364344	-0.8722565665	 0.119639
118.2901	149.3266	224.7288	289.6431	398.8203	464.8006	473.6781	519.063	531.0148	576.7127	652.5137	737.5518	783.8922	811.5776	838.2693	871.4243	927.4285	959.3763	980.6854	1033.8796	1041.0559	1096.8524	1101.7773	1142.3727	1153.2935	1178.9309	1257.6732	1313.5414	1371.2573	1401.0238	1416.9263	1667.6444	2365.071	3184.3747	3198.7731	3206.9323	3231.6289	3489.3107	3716.1915
OC1(C=CC2NC12)C#N	O[C@]1(C=C[C@H]2N[C@@H]12)C#N	
InChI=1S/C6H6N2O/c7-3-6(9)2-1-4-5(6)8-4/h1-2,4-5,8-9H	InChI=1S/C6H6N2O/c7-3-6(9)2-1-4-5(6)8-4/h1-2,4-5,8-9H/t4-,5-,6-/m1/s1
