23
gdb 101238	3.11224	0.91273	0.82073	1.3209	82.9	-0.2406	0.0857	0.3263	1541.9238	0.20322	-425.409839	-425.399251	-425.398307	-425.44627	38.023	
C	-0.0361449849	 1.4204982308	-0.1544722088	-0.232353
O	-0.0067690202	 0.0280933264	 0.0527526686	-0.25141
C	-1.2823516799	-0.5870798204	 0.1604844862	 0.124047
C	-2.0202054787	-0.6911393149	-1.1745072549	-0.415554
C	-1.0080480706	-1.9648352029	 0.7513774047	 0.152457
C	-0.5932671966	-2.0492009795	 2.2312552816	-0.321473
C	-1.83876423	-2.9507043235	 2.385081059	 0.173847
C	-2.9145206952	-2.5544447608	 3.3750524209	-0.397518
O	-2.2282058954	-2.6962964713	 1.0082297517	-0.31918
H	 0.9973333924	 1.7739496124	-0.111670203	 0.125915
H	-0.4565349759	 1.6942038894	-1.1328249013	 0.10846
H	-0.618546256	 1.9355778608	 0.6260006165	 0.101421
H	-1.9046481507	-0.0237524711	 0.8775208108	 0.058468
H	-2.3051524765	 0.2913556162	-1.5609810858	 0.111528
H	-1.3871384018	-1.1857685942	-1.918482869	 0.119765
H	-2.9304046246	-1.2816466873	-1.039711658	 0.141099
H	-0.3464243106	-2.518355346	 0.0701029053	 0.075864
H	 0.3723216476	-2.5095472777	 2.4416059353	 0.108286
H	-0.6617413808	-1.0968839686	 2.7629245788	 0.105271
H	-1.5849565042	-4.0128094374	 2.5107690665	 0.072757
H	-3.1638475096	-1.4934169937	 3.2754869722	 0.11655
H	-3.8249027672	-3.1385357894	 3.2061890979	 0.126285
H	-2.5759196007	-2.7389259773	 4.4007364347	 0.115468
46.3934	66.9718	76.4576	156.9974	195.8223	226.2672	229.024	271.7294	320.0641	331.5815	400.0402	448.4497	461.9601	500.052	718.6574	816.4975	864.2469	895.0744	913.9996	919.8848	988.6885	1016.4204	1049.8166	1075.8701	1096.0928	1116.5808	1141.2443	1150.8026	1180.9087	1192.2849	1209.9415	1232.9065	1252.6383	1274.1641	1320.3347	1327.3613	1367.6099	1382.9797	1396.6627	1403.7501	1422.8679	1476.4271	1481.6211	1483.9282	1491.6354	1494.4357	1497.1099	1502.5581	1512.4313	2951.2003	2975.7339	2997.8578	3006.802	3026.3826	3031.5791	3042.213	3074.4534	3103.6461	3108.5985	3110.7235	3113.2694	3126.0178	3134.7496
COC(C)C1CC(C)O1	CO[C@@H](C)[C@H]1C[C@@H](C)O1	
InChI=1S/C7H14O2/c1-5-4-7(9-5)6(2)8-3/h5-7H,4H2,1-3H3	InChI=1S/C7H14O2/c1-5-4-7(9-5)6(2)8-3/h5-7H,4H2,1-3H3/t5-,6+,7-/m1/s1
