19
gdb 32447	3.11367	1.21968	0.89029	1.1326	80.08	-0.1817	0.0583	0.24	1307.9088	0.158795	-419.230194	-419.220096	-419.219152	-419.265587	35.937	
C	-0.1485313647	 1.3618686452	-0.0186011585	-0.241335
O	-0.0655506051	-0.0464595844	-0.024591808	-0.263415
C	 0.5909043443	-0.5848376531	-1.0891987489	 0.286
C	 1.1858324754	 0.0477490317	-2.1614445959	-0.234869
N	 1.7102315861	-0.9491263469	-2.9575487564	-0.268741
C	 1.457246755	-2.1788184076	-2.4094679154	 0.183348
N	 1.9225639533	-3.3311238203	-3.0901856797	-0.612694
C	 0.7546558331	-1.993794621	-1.2325391224	 0.103194
C	 0.2587478649	-3.0428101045	-0.288722843	-0.508911
H	 0.8500253686	 1.8215914455	 0.001916939	 0.113378
H	-0.6867173245	 1.7348879325	-0.9018303112	 0.113377
H	-0.6947878318	 1.6453632707	 0.8830611493	 0.126671
H	 1.2801701252	 1.087183326	-2.4216253994	 0.113723
H	 2.2103494535	-0.8256355372	-3.8198871863	 0.255789
H	 2.5648555786	-3.8709281154	-2.5189280449	 0.242223
H	 1.1597303189	-3.9503351039	-3.3449799408	 0.242224
H	 0.5248466871	-4.0431736791	-0.6451177629	 0.097709
H	 0.6825009745	-2.9226087393	 0.7152936801	 0.126166
H	-0.8311737025	-3.008072439	-0.175000805	 0.126163
53.0812	83.9667	109.2558	169.0168	189.2146	223.7908	254.529	274.5818	323.0697	360.1734	465.1673	529.7835	599.1848	620.5798	643.8004	705.1906	738.338	756.0254	816.4785	941.7501	1059.9583	1064.3758	1089.2795	1164.0229	1182.7036	1207.011	1210.0114	1226.0543	1264.7927	1340.3845	1414.6399	1434.4157	1471.3705	1481.5082	1482.1485	1498.2675	1502.6199	1512.7312	1573.3222	1632.3943	1666.9911	2987.4747	3021.462	3038.2831	3068.8584	3095.3672	3126.1649	3282.7497	3496.7067	3559.4007	3690.5247
COC1=CNC(N)=C1C	COc1c[nH]c(N)c1C	
InChI=1S/C6H10N2O/c1-4-5(9-2)3-8-6(4)7/h3,8H,7H2,1-2H3	InChI=1S/C6H10N2O/c1-4-5(9-2)3-8-6(4)7/h3,8H,7H2,1-2H3
