16
gdb 25604	6.93661	0.73071	0.66383	3.8828	72.88	-0.2023	-0.0287	0.1735	1584.2643	0.123503	-437.908628	-437.900064	-437.89912	-437.943057	30.504	
O	-0.2246160196	 0.1879285006	 0.5440951502	-0.239751
C	 0.0372055388	 1.0989432696	-0.1948217636	 0.139204
C	 1.3428673676	 1.8697942315	-0.1410324597	-0.159343
O	 1.303041044	 2.855656038	-1.1436656621	-0.273599
C	 2.4071030789	 3.6478334554	-1.237687461	 0.362355
C	 3.5631273007	 3.617991849	-0.4838316553	-0.211732
N	 4.3744343144	 4.6227101942	-0.9708598505	-0.251912
C	 3.7547035497	 5.2699149463	-2.0023876202	-0.054725
C	 2.5233607645	 4.6889749362	-2.1977912545	-0.279475
H	-0.6599215513	 1.4551734196	-0.9844169381	 0.100517
H	 1.4605924822	 2.3136995207	 0.8605659922	 0.130458
H	 2.1822260159	 1.1718458914	-0.2908303195	 0.130466
H	 3.8743063904	 2.991051396	 0.3331142097	 0.11921
H	 5.2872941371	 4.841087172	-0.6150289192	 0.263465
H	 4.2332491605	 6.0886626075	-2.5147773594	 0.12287
H	 1.7837582161	 4.962399022	-2.932654559	 0.101993
49.1296	78.0527	116.1817	121.0352	305.5797	318.6744	383.4861	406.9979	565.9575	624.3433	628.2402	677.2174	727.3163	741.4325	759.7956	818.003	896.7736	983.2945	1050.312	1075.6265	1087.0126	1115.5214	1127.775	1172.1297	1232.476	1280.6419	1316.7997	1356.2674	1404.6466	1430.8145	1478.5267	1480.9246	1535.0005	1617.7664	1845.2315	2904.4783	2974.5892	3007.244	3258.1337	3276.4184	3284.7242	3697.1048
O=CCOC1=CNC=C1	O=CCOc1c[nH]cc1	
InChI=1S/C6H7NO2/c8-3-4-9-6-1-2-7-5-6/h1-3,5,7H,4H2	InChI=1S/C6H7NO2/c8-3-4-9-6-1-2-7-5-6/h1-3,5,7H,4H2
