19
gdb 8293	5.77223	0.9579	0.89489	2.8665	73.93	-0.2589	0.0309	0.2899	1340.6416	0.165197	-365.075679	-365.067156	-365.066212	-365.10935	30.945	
C	-0.2782299313	 1.5548358681	 0.1057915377	-0.382743
C	 0.0670680347	 0.0641023239	 0.0709195578	-0.167156
C	 0.468800636	-0.4222279417	-1.3265474517	-0.187103
C	 0.8437932907	-1.8891361298	-1.3624587619	 0.130698
C	 1.5629184963	-2.4355671077	-2.6153647606	-0.385937
C	 2.714917638	-2.6712428836	-1.6621222147	 0.440517
N	 3.869852048	-3.1468553123	-1.7701152921	-0.540268
O	 2.0493911008	-2.1732499236	-0.5611415351	-0.265062
H	 0.574758556	 2.1658904401	-0.2093740096	 0.117753
H	-1.1147904317	 1.7855156192	-0.5633562928	 0.11359
H	-0.5606093516	 1.8732783799	 1.1137788254	 0.116098
H	 0.8891433161	-0.1455058717	 0.7646185393	 0.119593
H	-0.7914286751	-0.5219451114	 0.4247246594	 0.095913
H	-0.3583989763	-0.2661505668	-2.0330696908	 0.10199
H	 1.3161054673	 0.1685326202	-1.6989699362	 0.103295
H	 0.0242738753	-2.51991554	-1.001895295	 0.09137
H	 1.1446216796	-3.3397532413	-3.0599685539	 0.136536
H	 1.7621722664	-1.7018764614	-3.3991518247	 0.134606
H	 4.3557295009	-3.1422256201	-0.8714727505	 0.226309
62.966	93.5974	115.4399	166.3289	246.2442	316.731	356.674	446.1892	490.968	509.496	711.9474	752.3619	826.7716	858.5605	868.4559	901.5809	930.4177	958.0074	1011.0661	1024.0753	1051.6228	1085.5407	1097.0158	1125.6577	1193.8021	1225.5834	1243.0546	1266.9546	1285.1234	1328.0374	1347.1838	1382.2862	1409.9807	1415.7387	1466.0373	1472.7667	1493.2391	1499.9815	1509.6321	1824.3697	3011.7762	3022.9526	3030.4623	3042.6296	3058.9283	3071.9143	3084.8053	3098.7039	3105.2213	3139.9505	3474.2775
CCCC1CC(=N)O1	CCC[C@H]1C[C]([NH])O1	
InChI=1S/C6H11NO/c1-2-3-5-4-6(7)8-5/h5,7H,2-4H2,1H3	InChI=1S/C6H11NO/c1-2-3-5-4-6(7)8-5/h5,7H,2-4H2,1H3/t5-/m0/s1
