16
gdb 5390	5.08715	1.55094	1.20056	3.4201	76.15	-0.2027	-0.0115	0.1912	982.0214	0.133448	-342.83746	-342.830341	-342.829397	-342.868732	26.868	
C	 0.0190272294	 1.4515398333	-0.0712423376	-0.324593
N	-0.1163229047	 0.0181641474	 0.0932335134	-0.373668
C	 0.5754940475	-0.6744603613	 1.0718051902	 0.317953
C	 1.2037378889	-0.03354175	 2.1553463802	-0.068721
N	 1.8391767091	-0.6777871136	 3.1342611334	-0.256342
C	 1.8921938841	-2.00886398	 3.085709712	-0.02223
C	 1.3124960561	-2.7455817713	 2.0535487738	-0.102777
C	 0.6493822611	-2.0758025112	 1.0394513165	-0.16955
H	 1.0618330132	 1.7794324345	-0.2023882091	 0.121137
H	-0.55323151	 1.7589419112	-0.9490545666	 0.126336
H	-0.39422615	 1.981457877	 0.7938673147	 0.139672
H	-0.2555303372	-0.4961229215	-0.7619066505	 0.237551
H	 1.1882305474	 1.0496091443	 2.2321496595	 0.094934
H	 2.4186086237	-2.5051235422	 3.8964744513	 0.098494
H	 1.3810146074	-3.8282487769	 2.0464003831	 0.094738
H	 0.183965974	-2.6220044196	 0.2232135459	 0.087066
102.2472	181.742	233.4482	252.3182	383.3385	425.4759	471.1177	534.4565	594.3661	636.4649	734.348	820.2127	828.587	910.5801	935.2977	978.6292	1022.5331	1058.5666	1092.1504	1136.7661	1152.6664	1177.7362	1234.2184	1292.5347	1330.7656	1370.4033	1444.8763	1472.2094	1484.5137	1499.8948	1523.1138	1542.7594	1610.3269	1637.6604	2984.9102	3063.0361	3122.7826	3156.755	3160.9129	3168.3115	3192.404	3621.3882
CNC1=CN=CC=C1	CNc1cnccc1	
InChI=1S/C6H8N2/c1-7-6-3-2-4-8-5-6/h2-5,7H,1H3	InChI=1S/C6H8N2/c1-7-6-3-2-4-8-5-6/h2-5,7H,1H3
