20
gdb 14881	3.58907	1.21947	0.99502	2.4304	71.19	-0.2593	0.0731	0.3324	1194.7117	0.176524	-386.113212	-386.104096	-386.103152	-386.147101	33.047	
O	-0.1082993036	 1.4869952762	-0.2566142755	-0.423208
C	 0.0363135389	 0.1082934351	 0.0581995654	-0.087077
C	-1.3553191505	-0.5061235041	 0.0380179266	-0.009768
C	-1.9417905872	-0.646117657	-1.3971165023	-0.217707
C	-1.5565846239	-2.1509153194	-1.384072129	-0.219548
C	-1.4142244517	-2.0632698508	 0.1597306743	 0.042305
C	-0.2994298168	-2.8301849451	 0.8439582407	-0.107881
O	-0.5978555065	-4.2144530228	 0.7128658864	-0.423269
H	 0.7682207115	 1.880315121	-0.2958340796	 0.284589
H	 0.6893702943	-0.3938453958	-0.6739145363	 0.082321
H	 0.4955265948	-0.0237032247	 1.0516286155	 0.082029
H	-1.9736171295	 0.0445788916	 0.7529834334	 0.072259
H	-3.0245377374	-0.4972684008	-1.4130548057	 0.098102
H	-1.4942149129	-0.0087066233	-2.1627206317	 0.103233
H	-2.2804651984	-2.8661590686	-1.7788986754	 0.100331
H	-0.5931959074	-2.3378353952	-1.869092948	 0.094791
H	-2.3575002529	-2.3533679334	 0.6345917189	 0.08165
H	 0.6712681153	-2.5936735102	 0.3789515174	 0.078533
H	-0.2351154952	-2.536095401	 1.9050870351	 0.083262
H	 0.1186383092	-4.7161408316	 1.1123671297	 0.285051
89.3875	106.6907	136.4705	146.6871	232.7233	258.2106	268.4042	317.0873	388.702	426.3011	520.5556	696.4926	764.2174	839.7439	889.3839	902.8622	935.029	951.9388	992.6218	1059.2631	1066.7174	1075.9474	1107.9394	1148.5774	1156.929	1197.508	1221.4257	1232.9764	1253.4263	1262.2034	1267.0072	1282.4792	1289.9083	1307.219	1365.8012	1372.5708	1457.0334	1465.3575	1482.5969	1497.9164	1518.1509	1525.9043	2953.0622	2961.6629	2981.1151	2989.5369	3047.8853	3055.745	3060.4809	3069.9445	3107.0968	3121.6299	3828.427	3830.2112
OCC1CCC1CO	OC[C@H]1CC[C@H]1CO	
InChI=1S/C6H12O2/c7-3-5-1-2-6(5)4-8/h5-8H,1-4H2	InChI=1S/C6H12O2/c7-3-5-1-2-6(5)4-8/h5-8H,1-4H2/t5-,6+
