18
gdb 31740	4.47119	0.96411	0.80701	3.3167	77.11	-0.1672	0.0589	0.2261	1419.7582	0.148082	-435.289633	-435.280127	-435.279183	-435.324549	33.696	
C	 0.2100574361	 1.3102767577	 0.2094394746	-0.338201
N	-0.1756117263	-0.0488320728	-0.1274598361	-0.372226
C	 0.5368977153	-0.7403045162	-1.0891391287	 0.453678
N	 0.6313641716	-2.0561345102	-1.1453710039	-0.437967
C	 1.3524695399	-2.3084662266	-2.2864822995	 0.379666
O	 1.6641658007	-3.5579861791	-2.6895415573	-0.278878
C	 1.1770456377	-4.6147625083	-1.8744637812	-0.228106
C	 1.7100421199	-1.156990061	-2.9301107362	-0.250365
N	 1.176871441	-0.1404241443	-2.1234831183	-0.307745
H	 1.2734709179	 1.4180168066	 0.4743394261	 0.119805
H	-0.0044072171	 1.986707039	-0.6268564354	 0.125274
H	-0.3949646709	 1.649630132	 1.0525444767	 0.136876
H	-0.3652281625	-0.6451846234	 0.6647891279	 0.252078
H	 1.5177911914	-5.5374617041	-2.3482568331	 0.118313
H	 1.5733711862	-4.5502759859	-0.8554401582	 0.123772
H	 0.0831787137	-4.606229399	-1.81851125	 0.125046
H	 2.2817503213	-0.9550915923	-3.8169532927	 0.119492
H	 1.2006150642	 0.8428869779	-2.3260856047	 0.259487
54.1035	74.2222	147.7588	167.53	184.8976	238.5608	269.5341	307.0685	422.8366	438.5693	526.7284	554.4657	582.6487	691.0866	701.2898	745.3977	752.119	993.2745	1004.7957	1079.114	1092.3132	1106.4673	1153.9922	1180.1869	1183.0274	1209.4533	1272.7133	1319.9727	1384.1393	1407.0528	1464.4632	1478.7839	1479.0207	1489.595	1504.3546	1517.9074	1543.3998	1632.1075	1644.5727	2981.1378	3026.6691	3050.1406	3089.748	3124.3627	3131.6855	3300.0915	3610.9098	3686.2213
CNC1=NC(OC)=CN1	CNc1nc(OC)c[nH]1	
InChI=1S/C5H9N3O/c1-6-5-7-3-4(8-5)9-2/h3H,1-2H3,(H2,6,7,8)	InChI=1S/C5H9N3O/c1-6-5-7-3-4(8-5)9-2/h3H,1-2H3,(H2,6,7,8)
