22
gdb 6797	6.29173	0.62407	0.591	0.054	75.61	-0.2612	0.0727	0.334	1896.3366	0.197986	-387.341625	-387.331063	-387.330119	-387.377718	37.261	
C	 0.0048825083	 1.5699868627	 0.0662336355	-0.401627
C	 0.0041750258	 0.0412644434	 0.0374214008	 0.135754
O	 0.7365671883	-0.4927488838	 1.1409043959	-0.428254
C	-1.4133293436	-0.541618316	-0.0330733045	-0.19091
C	-1.4396029163	-2.0694359816	-0.1382068259	-0.180202
C	-2.8557394971	-2.6503983443	-0.1245452039	-0.168109
C	-2.874544014	-4.1690921482	-0.2343975881	-0.073522
O	-4.2286819663	-4.5968815869	-0.2042619455	-0.422398
H	 1.0281837831	 1.948774949	 0.1358606199	 0.122624
H	-0.4605981629	 1.9854921387	-0.8334598844	 0.115248
H	-0.557386531	 1.9418626933	 0.9324824056	 0.104799
H	 0.5666611842	-0.2976951905	-0.8423885069	 0.086146
H	 0.3120387153	-0.178521795	 1.947372737	 0.274339
H	-1.9685652753	-0.2217581484	 0.8622616821	 0.081772
H	-1.9386769575	-0.0977228789	-0.8890942013	 0.093772
H	-0.9255834556	-2.3735621163	-1.0608944693	 0.090815
H	-0.8513753274	-2.4863152768	 0.6874275603	 0.10794
H	-3.3734885416	-2.3646944078	 0.7998314371	 0.100874
H	-3.4469818971	-2.2360720885	-0.95094577	 0.101174
H	-2.3796204917	-4.4800247232	-1.1694503942	 0.082291
H	-2.2990108683	-4.6081243939	 0.5973329555	 0.083423
H	-4.2420183693	-5.555909787	-0.2712902656	 0.284048
60.5743	70.2812	98.4086	140.283	150.3531	234.8888	248.2039	265.6382	276.9085	301.9497	401.5897	435.3854	483.5817	527.5954	745.5854	797.7353	845.7839	913.387	936.4173	1008.3576	1012.746	1028.0033	1066.1196	1074.835	1096.2696	1130.4036	1165.0707	1202.0531	1228.5981	1268.4752	1283.4256	1312.3795	1316.147	1334.2766	1346.0343	1380.719	1399.4004	1406.4585	1421.8457	1464.0521	1476.1976	1491.1494	1493.3184	1496.5466	1508.0115	1529.6404	2957.3922	2981.8302	2991.7804	3012.0798	3021.379	3026.252	3029.4369	3041.8644	3056.5252	3079.1724	3092.893	3117.6813	3792.5753	3829.6549
CC(O)CCCCO	C[C@@H](O)CCCCO	
InChI=1S/C6H14O2/c1-6(8)4-2-3-5-7/h6-8H,2-5H2,1H3	InChI=1S/C6H14O2/c1-6(8)4-2-3-5-7/h6-8H,2-5H2,1H3/t6-/m1/s1
