16
gdb 33644	3.20726	1.50196	1.40606	4.3163	78.38	-0.247	-0.0158	0.2312	966.8251	0.12694	-363.601674	-363.595045	-363.594101	-363.632597	26.92	
N	-0.0990956594	-1.1493978318	 0.0575001199	-0.358033
C	-0.0609944615	 0.0076150037	 0.020465679	 0.144019
C	 0.0022088982	 1.4259185119	-0.0132454181	 0.260292
C	-0.7316042097	 2.4829422485	 0.8044986133	-0.121953
C	 0.5870254204	 3.1698657207	 1.1380854538	-0.22517
C	 1.2721382425	 2.3544744799	-0.0292013075	-0.164958
C	 1.1222838601	 3.1738959734	-1.2915497267	-0.08882
C	-0.1679477783	 3.2225192758	-1.6352860696	-0.076644
C	-0.9659802639	 2.3608160749	-0.7138716925	-0.132648
H	-1.5601888695	 2.3280326582	 1.4842075108	 0.113938
H	 0.6411889908	 4.2604512301	 1.0758955725	 0.104806
H	 0.9493613637	 2.83172472	 2.1114538441	 0.120073
H	 2.2458551489	 1.9174077116	 0.178544339	 0.094972
H	 1.9306094007	 3.7460503506	-1.7288386688	 0.108479
H	-0.6104851413	 3.8144074722	-2.4256767673	 0.110227
H	-1.9392126116	 1.9771710605	-0.9952008219	 0.11142
132.1577	161.7847	349.2788	393.6106	489.3017	504.9967	534.8061	582.881	696.1151	723.339	760.0461	799.3402	835.3017	885.2585	899.9822	918.8601	935.3565	973.1548	984.7535	1032.2048	1040.0648	1072.799	1109.9872	1134.5011	1144.2918	1169.205	1203.5772	1263.9865	1278.8349	1314.8496	1355.8255	1411.7707	1487.2035	1648.7279	2341.0015	3056.6169	3117.57	3146.3135	3191.0767	3200.0352	3207.5844	3231.743
N#CC12C3CC1C=CC23	N#C[C@@]12[C@H]3C[C@@H]1C=C[C@@H]23	
InChI=1S/C8H7N/c9-4-8-5-1-2-6(8)7(8)3-5/h1-2,5-7H,3H2	InChI=1S/C8H7N/c9-4-8-5-1-2-6(8)7(8)3-5/h1-2,5-7H,3H2/t5-,6+,7-,8+/m0/s1
