17
gdb 47416	2.82652	1.63463	1.25754	2.7229	67.97	-0.267	0.0027	0.2697	1016.4463	0.136822	-458.993532	-458.985838	-458.984893	-459.026181	28.681	
O	-0.0042260032	-0.0082491259	-0.1702790889	-0.340976
C	 0.0159224225	 1.1790423568	-0.0289390756	 0.398586
O	-1.0981693429	 1.9303723322	 0.1839278664	-0.226985
C	-0.7061484917	 3.2853920265	 0.3819176714	 0.009642
O	 0.625529514	 3.4077171282	-0.0544072466	-0.295666
C	 1.2092791403	 2.1205266163	-0.0418597272	 0.260725
C	 2.2812340863	 1.7760582921	 1.0400308434	-0.280479
C	 3.0945094177	 1.0577978682	-0.0703911289	-0.210483
C	 2.2584628724	 1.8177719251	-1.1363530326	-0.273338
H	-1.3492813157	 3.9353670484	-0.2183849888	 0.133507
H	-0.8096579783	 3.5260713019	 1.4503139108	 0.115023
H	 2.7597823656	 2.6990985555	 1.3767371047	 0.11716
H	 1.9604811918	 1.1925136498	 1.9053442725	 0.114855
H	 4.1732562904	 1.2188601976	-0.0774677794	 0.105826
H	 2.8873309715	-0.0129817338	-0.0900268328	 0.133807
H	 1.9127100219	 1.2658322027	-2.0119711557	 0.119956
H	 2.7330850375	 2.7500394285	-1.4517451426	 0.118839
74.0307	127.3348	171.7017	208.1588	286.1423	377.1437	458.4029	530.6176	681.9882	719.3591	739.551	754.3226	795.0546	840.5369	912.466	933.7231	967.6477	1008.8057	1047.7352	1052.2378	1077.5748	1140.1087	1159.9072	1184.5562	1211.6662	1214.201	1218.3664	1248.6853	1279.7952	1291.2211	1318.2242	1443.4905	1464.4879	1478.422	1498.2666	1549.5252	1887.5354	2995.5803	3066.0707	3072.59	3084.5907	3086.6099	3122.0474	3130.4052	3147.0306
O=C1OCOC11CCC1	O=C1OCOC21CCC2	
InChI=1S/C6H8O3/c7-5-6(2-1-3-6)9-4-8-5/h1-4H2	InChI=1S/C6H8O3/c7-5-6(2-1-3-6)9-4-8-5/h1-4H2
