17
gdb 112496	2.83979	1.05278	0.92077	5.8186	75.95	-0.266	0.0054	0.2714	1322.4017	0.135837	-418.045589	-418.03646	-418.035516	-418.080616	31.75	
C	-0.197886534	 1.5669533166	-0.0666607902	-0.381534
C	 0.1718269005	 0.0829307117	-0.0064251997	-0.163087
N	 0.7837923168	-0.402794959	-1.2254448861	-0.073229
C	 0.2591239985	-0.5917599195	-2.5800265653	-0.185628
C	 1.6538112032	-1.1794951586	-2.9702359865	-0.309298
C	 2.3999060015	-0.4756763854	-3.9927775491	 0.284685
N	 2.9884500375	 0.0997778426	-4.8045227989	-0.316648
C	 2.0410781456	-0.8780450816	-1.4727587906	 0.41731
O	 3.0182578877	-1.0203746887	-0.7948839266	-0.35153
H	 0.6883505473	 2.1814572375	-0.2473472069	 0.140253
H	-0.9223145363	 1.766316391	-0.862685577	 0.124801
H	-0.648461277	 1.8797000115	 0.8798114493	 0.129581
H	 0.9009057444	-0.1021857454	 0.7879375047	 0.149578
H	-0.7170467699	-0.5221549138	 0.2163142065	 0.116133
H	-0.5686741471	-1.3054598392	-2.645322347	 0.125554
H	-0.004797966	 0.3338417114	-3.0986503192	 0.139793
H	 1.6376618073	-2.2517502212	-3.1779976175	 0.153265
53.6136	64.2632	124.2657	143.3154	194.3057	256.4691	281.1752	360.5975	436.29	485.6839	567.3255	630.0136	752.4139	787.8952	805.3045	844.0621	927.0257	997.8403	1030.0139	1078.6825	1081.5109	1109.4996	1145.9378	1161.8276	1235.4883	1262.6685	1320.234	1348.2616	1390.4198	1412.9354	1431.5175	1480.5703	1492.869	1502.9781	1527.8296	1898.9152	2359.1327	3020.291	3042.1818	3045.8232	3092.8821	3095.1764	3104.3698	3116.3105	3125.5055
CCN1CC(C#N)C1=O	CCN1C[C@@H](C#N)C1=O	
InChI=1S/C6H8N2O/c1-2-8-4-5(3-7)6(8)9/h5H,2,4H2,1H3	InChI=1S/C6H8N2O/c1-2-8-4-5(3-7)6(8)9/h5H,2,4H2,1H3/t5-/m1/s1
