20
gdb 96021	2.77694	1.36598	0.99782	2.5097	74.75	-0.2431	0.069	0.3121	1202.4342	0.172245	-440.245588	-440.237161	-440.236217	-440.279416	31.998	
O	 0.2078817489	 0.9721220895	-0.7291342292	-0.434098
C	 0.0460994165	-0.2565039644	-0.0647006405	 0.113305
C	 0.521841027	-0.2545057541	 1.4018721859	-0.113057
O	-0.2075414817	-1.2955523107	 2.0253572409	-0.244612
C	-1.5387992532	-1.1852528265	 1.5427433815	-0.084279
C	-1.4448426797	-0.7247546235	 0.068435677	-0.034278
N	-2.3310428847	 0.4070981028	-0.1887435136	-0.089529
C	-2.9032841567	 0.5021431444	-1.5309957747	-0.216552
C	-3.749603613	 0.1024013438	-0.3758450165	-0.225661
H	-0.5386619879	 1.5204938364	-0.4503812147	 0.287945
H	 0.6152202345	-0.9979602042	-0.6326364706	 0.092181
H	 1.5872972964	-0.4616204426	 1.5226484734	 0.110745
H	 0.2978041251	 0.7277392472	 1.8523848617	 0.086448
H	-2.0209665049	-2.1574792535	 1.6705017826	 0.106085
H	-2.1022421598	-0.4315050437	 2.1146707811	 0.097267
H	-1.6550936005	-1.5593213878	-0.6170881929	 0.062705
H	-2.9753420403	 1.5034874235	-1.9440541086	 0.122914
H	-2.6347573303	-0.2684283633	-2.2502091666	 0.121985
H	-4.0551870736	-0.9404350331	-0.3180801083	 0.11692
H	-4.445987232	 0.8063906099	 0.0694881621	 0.123567
42.1808	86.6544	184.6288	230.3586	289.9834	313.8009	389.2422	436.6717	489.3075	552.4159	612.4845	680.2599	754.8981	828.3965	888.3756	899.9837	952.5067	971.0885	1007.8933	1025.2587	1064.0865	1080.1078	1091.4742	1115.7552	1123.6552	1130.8826	1141.7712	1175.7157	1185.4361	1216.7644	1260.8461	1279.4181	1306.7652	1318.4161	1327.215	1357.1987	1377.3504	1400.8624	1446.246	1492.1439	1500.4843	1513.4939	1520.4643	2962.6643	2976.0541	2986.1703	3069.3267	3095.1901	3104.2054	3108.614	3110.1224	3187.2887	3201.6953	3742.5354
OC1COCC1N1CC1	O[C@H]1COC[C@H]1N1CC1	
InChI=1S/C6H11NO2/c8-6-4-9-3-5(6)7-1-2-7/h5-6,8H,1-4H2	InChI=1S/C6H11NO2/c8-6-4-9-3-5(6)7-1-2-7/h5-6,8H,1-4H2/t5-,6+/m1/s1
