17
gdb 71038	3.92483	1.64417	1.37423	1.392	71.46	-0.2272	0.0693	0.2965	929.8351	0.136707	-421.720873	-421.714248	-421.713304	-421.751369	27.908	
O	 0.0127855366	 1.3707276548	 0.049213937	-0.465264
C	 0.028636889	-0.0067804716	 0.0344847788	 0.354009
C	 0.6617243386	-0.9818823324	 1.1274362203	-0.404933
C	-0.0378049483	-1.8566573352	 0.0880566861	 0.470963
O	-0.3514131355	-3.1625466376	-0.2817151002	-0.350574
C	-1.1081013171	-2.8680531682	-1.504071777	-0.10916
C	-1.0645536619	-1.3111027001	-1.5898868812	-0.138093
C	-1.2360534429	-0.8800770158	-0.1127421801	-0.126886
C	 0.3776468784	-0.9816398868	-1.1321596112	-0.167658
H	 0.9199099581	 1.68984346	-0.0087711846	 0.285884
H	 1.754167514	-1.0334122634	 1.1729618399	 0.098343
H	 0.2221068549	-0.9392667182	 2.127787077	 0.108731
H	-0.6159278013	-3.3591994332	-2.3505170322	 0.110846
H	-2.1232357811	-3.2650293865	-1.3950418285	 0.111866
H	-1.5724737745	-0.8509248695	-2.4380587591	 0.075335
H	-2.1286142447	-0.8615938573	 0.5125526417	 0.076615
H	 1.3214245376	-1.0829488591	-1.6697069966	 0.069976
235.185	267.5514	287.4262	313.7485	418.632	479.1124	500.364	591.2849	688.492	721.872	745.3852	822.7564	840.8967	848.8799	912.3396	932.8363	954.1446	969.3112	974.9556	1002.7449	1026.0648	1066.7855	1083.251	1113.3183	1135.1241	1156.442	1178.6804	1203.8919	1227.901	1230.679	1254.909	1278.08	1317.2817	1368.7774	1417.8418	1504.9803	1515.2638	3036.4358	3045.1453	3084.9393	3103.2179	3110.9597	3112.3013	3122.3633	3804.9074
OC12CC34OCC(C13)C24	O[C@@]12C[C@@]34OC[C@@H]([C@H]13)[C@@H]24	
InChI=1S/C7H8O2/c8-6-2-7-4(6)3(1-9-7)5(6)7/h3-5,8H,1-2H2	InChI=1S/C7H8O2/c8-6-2-7-4(6)3(1-9-7)5(6)7/h3-5,8H,1-2H2/t3-,4+,5-,6-,7+
