20
gdb 74289	2.60892	1.16483	1.10544	4.2906	86.07	-0.2519	0.0034	0.2553	1256.0796	0.170615	-366.057217	-366.047904	-366.04696	-366.091121	34.868	
C	-0.0090736226	 1.5340316616	 0.0623404483	-0.490954
C	 0.0435905504	 0.0406023999	 0.013764743	 0.33061
C	-0.0134260032	-0.7321229866	-1.0715825776	-0.20304
C	 0.0297846917	-2.220051297	-0.7467574709	 0.102461
C	 1.0000679306	-3.0175386021	-1.6411339332	-0.431802
C	 0.461723629	-2.2073053699	 0.75763272	-0.253092
C	 0.1251533089	-0.7930694547	 1.2760802736	-0.303669
C	-1.3237741926	-2.7896512335	-0.8902227547	 0.257479
N	-2.3856989396	-3.233388046	-1.0055236257	-0.349417
H	 0.8855749077	 1.9443178226	 0.547127871	 0.129109
H	-0.0898669299	 1.9710209596	-0.9361154527	 0.128852
H	-0.8675294038	 1.8744802795	 0.6549561321	 0.13478
H	-0.123923429	-0.382744244	-2.0921445917	 0.0998
H	 1.999643942	-2.5789378999	-1.5731704315	 0.123296
H	 1.0527354478	-4.0636401412	-1.3256112491	 0.133101
H	 0.6811869451	-2.9946205019	-2.6869249714	 0.133281
H	-0.0089977585	-3.0074601256	 1.3318673773	 0.120256
H	 1.5436598132	-2.3667705867	 0.791608151	 0.109689
H	 0.8761841968	-0.4184004212	 1.9809408111	 0.106941
H	-0.8360485041	-0.767714823	 1.8075853209	 0.12232
76.2284	120.4638	180.2524	192.0983	215.487	238.8844	286.5447	357.9101	380.328	466.0827	491.5841	549.913	609.8496	626.9816	732.2502	831.8783	864.2443	893.5255	911.0896	944.7517	997.4712	998.5075	1025.102	1054.8726	1105.995	1136.7146	1169.415	1217.9147	1222.3854	1269.9386	1290.7585	1327.4193	1360.2521	1408.1536	1414.2179	1478.6095	1480.7924	1486.0661	1489.5502	1494.1169	1499.1396	1720.9642	2343.418	3016.1232	3021.6938	3040.1274	3051.3583	3064.9689	3068.4582	3116.1824	3116.9333	3117.8821	3121.2467	3194.1886
CC1=CC(C)(CC1)C#N	CC1=C[C@@](C)(CC1)C#N	
InChI=1S/C8H11N/c1-7-3-4-8(2,5-7)6-9/h5H,3-4H2,1-2H3	InChI=1S/C8H11N/c1-7-3-4-8(2,5-7)6-9/h5H,3-4H2,1-2H3/t8-/m1/s1
