17
gdb 68810	2.91182	1.27951	1.07966	1.8333	74.88	-0.2284	0.0466	0.2751	1142.3012	0.132889	-421.750441	-421.7413	-421.740356	-421.784044	34.598	
O	 0.0052540632	 1.4472042988	-0.1241054661	-0.460407
C	-0.0319610384	 0.0686222073	-0.0814511413	 0.373777
C	-0.2466696875	-0.7728581649	 1.1516603642	-0.429342
C	-1.1575322614	-0.9621337958	-0.0507737864	 0.311406
O	-2.5223712892	-0.7800977125	 0.0116181215	-0.460627
C	-0.446581429	-1.7990373732	-1.1361680805	-0.236248
C	 0.7150604077	-0.7261871941	-1.1416057447	-0.287056
C	-0.1135973899	-3.1777122027	-0.8281143643	 0.315419
C	 0.1615476605	-4.313294089	-0.540472996	-0.468913
H	-0.4878988119	 1.7969063443	 0.6249867806	 0.289219
H	 0.4586890978	-1.5362399512	 1.4760001342	 0.117795
H	-0.7462881603	-0.2436524777	 1.9603568556	 0.105087
H	-2.9014314401	-1.4833887084	 0.5521230539	 0.290331
H	-1.0109790907	-1.7408438771	-2.0714755436	 0.113388
H	 0.7694204231	-0.1984724008	-2.0953304484	 0.120966
H	 1.7058871587	-1.0943948211	-0.8645281004	 0.110318
H	 0.4047526273	-5.3187811919	-0.3012207885	 0.194886
92.0254	117.3433	129.1573	203.0585	253.0558	308.8619	360.2238	370.6322	415.3836	479.2386	490.0747	595.4434	617.7717	627.0087	635.2341	696.1987	778.4058	809.6383	862.0896	943.4512	980.8596	993.79	1047.7879	1073.2596	1112.6948	1124.8032	1165.5368	1192.3082	1231.4494	1268.0525	1321.9494	1336.8418	1407.3645	1421.4507	1476.8996	1526.0285	2227.7038	3065.1783	3068.7346	3089.2713	3130.7408	3179.8178	3503.8294	3777.1194	3823.9353
OC12CC1(O)C(C2)C#C	O[C@@]12C[C@]1(O)[C@@H](C2)C#C	
InChI=1S/C7H8O2/c1-2-5-3-6(8)4-7(5,6)9/h1,5,8-9H,3-4H2	InChI=1S/C7H8O2/c1-2-5-3-6(8)4-7(5,6)9/h1,5,8-9H,3-4H2/t5-,6+,7+/m1/s1
