17
gdb 29704	2.4949	1.53928	0.96451	1.7416	72.54	-0.1652	0.0587	0.2238	1175.4351	0.135081	-455.158551	-455.14869	-455.147746	-455.193203	35.429	
C	-0.1353538514	 1.4522425152	 0.040436266	-0.339026
N	 0.0204747076	 0.0135037513	-0.0025860099	-0.065743
C	 0.0582546426	-0.7846216127	-1.1450032289	 0.228558
N	-0.0514605555	-0.1715726021	-2.414591693	-0.606023
C	 0.2381864081	-2.0914676793	-0.7461780295	-0.341998
C	 0.2984549089	-2.0938620503	 0.6777583594	 0.151491
O	 0.5286882053	-3.1346218998	 1.5584943661	-0.464522
C	 0.1555473934	-0.7930761091	 1.0919051604	 0.300265
O	 0.1501008011	-0.2484473975	 2.3368595995	-0.453666
H	 0.6693197287	 1.90694041	 0.6253351644	 0.137336
H	-0.097929397	 1.8171194363	-0.9857582788	 0.155451
H	-1.0917695733	 1.735519653	 0.4931194942	 0.130138
H	 0.6973300425	-0.4581277716	-3.0345266378	 0.242817
H	-0.929843995	-0.387106512	-2.8753609393	 0.239678
H	 0.320567245	-2.9472403084	-1.3992108373	 0.084702
H	-0.1579005394	-3.7985468384	 1.4371053904	 0.293367
H	 0.2939043583	-0.9799905546	 2.9492013241	 0.307175
55.7321	114.0056	178.9026	193.3967	202.3192	251.3291	275.4725	286.4264	315.3108	330.0501	369.361	567.5038	605.1869	614.7129	625.2566	665.1029	735.7984	760.321	792.9441	884.1479	1063.5621	1156.947	1160.0094	1179.8651	1193.8672	1211.5047	1279.6593	1288.337	1398.4384	1420.092	1447.36	1495.1476	1516.3729	1552.1068	1573.7083	1656.8482	1676.8735	3037.2139	3094.9605	3159.172	3241.9917	3496.8187	3567.4877	3796.0797	3806.127
CN1C(N)=CC(O)=C1O	Cn1c(N)cc(O)c1O	
InChI=1S/C5H8N2O2/c1-7-4(6)2-3(8)5(7)9/h2,8-9H,6H2,1H3	InChI=1S/C5H8N2O2/c1-7-4(6)2-3(8)5(7)9/h2,8-9H,6H2,1H3
