19
gdb 85527	2.40636	1.67449	1.13454	3.8182	75.87	-0.2225	0.0267	0.2492	1103.2383	0.161177	-419.224362	-419.216233	-419.215289	-419.256986	31.567	
C	-1.0217254525	 1.066308474	 0.1069395571	-0.402798
C	 0.0775000148	 0.0041397211	 0.0324266075	 0.02716
N	 0.918401251	 0.2387901135	-1.1341711752	-0.31687
C	 2.1840363475	-0.2465085804	-1.3104102627	 0.366663
O	 2.7827950235	-0.1518101179	-2.3647007101	-0.372286
C	 2.7959435591	-0.9154545925	-0.0777127932	-0.269569
N	 2.2995282412	-0.510791926	 1.2377046912	-0.108449
C	 2.0714394223	 0.9195822482	 1.4618822634	-0.25654
C	 0.9268925057	-0.0176922212	 1.2940446118	 0.000729
H	-0.5871229903	 2.0649759851	 0.2078029158	 0.132504
H	-1.645010811	 1.0462456501	-0.7936377749	 0.120096
H	-1.6731408623	 0.881427797	 0.9656918252	 0.129083
H	-0.4088405926	-0.9822460095	-0.0493881885	 0.091013
H	 0.492917105	 0.6252417121	-1.9655417527	 0.244245
H	 2.6362320768	-1.996950057	-0.1776105167	 0.133355
H	 3.8752025988	-0.7499516875	-0.125276447	 0.141282
H	 2.3413649086	 1.2801411098	 2.4502658804	 0.119145
H	 2.2776264664	 1.6121583179	 0.6493229433	 0.126848
H	 0.371761958	-0.3358070168	 2.1750870154	 0.094391
94.1331	117.4113	226.2744	252.8295	297.6622	353.6684	424.0875	457.6261	501.4843	515.5086	580.565	637.9519	691.2989	741.4012	845.3912	857.7415	904.6537	974.734	986.3698	1027.3761	1044.7074	1075.2539	1092.9797	1116.058	1142.1463	1166.7644	1219.0389	1263.0302	1315.5106	1330.461	1337.2327	1356.3318	1376.5826	1407.527	1418.6521	1456.9028	1468.3324	1496.8399	1498.3751	1508.1777	1795.9901	2954.9107	3032.3209	3037.2768	3104.7049	3107.1347	3107.6924	3116.391	3124.4433	3193.312	3595.3107
CC1NC(=O)CN2CC12	C[C@H]1NC(=O)CN2C[C@@H]12	
InChI=1S/C6H10N2O/c1-4-5-2-8(5)3-6(9)7-4/h4-5H,2-3H2,1H3,(H,7,9)	InChI=1S/C6H10N2O/c1-4-5-2-8(5)3-6(9)7-4/h4-5H,2-3H2,1H3,(H,7,9)/t4-,5+,8?/m1/s1
