19
gdb 74633	2.98754	1.4868	1.34734	1.0435	81.21	-0.207	0.0179	0.225	1051.274	0.159365	-385.845271	-385.837471	-385.836526	-385.877066	31.512	
C	-0.0339920871	 1.502287261	 0.0196192512	-0.509436
C	-0.0116423714	 0.013359484	-0.0354494049	 0.320113
C	-0.0742860574	-0.8339522024	-1.0695964502	-0.221115
C	 0.0207443775	-2.2077718842	-0.442257695	-0.127874
C	-0.805181664	-2.1600741496	 0.8921014299	-0.046289
C	 0.2085835457	-3.088116938	 1.5971208264	-0.321734
C	 1.0564243211	-2.0951323465	 0.7640853804	 0.405506
O	 2.4280101986	-1.9725875718	 0.7123531344	-0.472117
C	 0.112916414	-0.9118070853	 1.1694335501	-0.145887
H	 0.8822245668	 1.8984069432	 0.4764776787	 0.129656
H	-0.1281292727	 1.9370432173	-0.9795075202	 0.123112
H	-0.8689974187	 1.8712788494	 0.6295071539	 0.122892
H	-0.1505767682	-0.6117580881	-2.1252457826	 0.093051
H	-0.0034366042	-3.1100904193	-1.0557568812	 0.054147
H	-1.8918957349	-2.1807417415	 0.9680484621	 0.0771
H	 0.2832780987	-3.0027515481	 2.6848825077	 0.092391
H	 0.2175164605	-4.1355310784	 1.2789142227	 0.08386
H	 2.8066868002	-2.8357613441	 0.5134902477	 0.283736
H	 0.1744111757	-0.5007360575	 2.1788502688	 0.058887
144.4757	173.1155	222.7685	263.6474	300.4498	335.8918	452.494	478.5215	556.5153	588.7961	651.0273	738.3801	768.6409	800.1942	821.1982	891.0702	907.5898	928.784	967.9191	982.7513	996.815	1013.8137	1036.3192	1057.7423	1070.181	1106.0361	1123.8211	1168.2734	1189.3411	1198.5803	1216.8472	1248.824	1290.5094	1291.2881	1328.0326	1372.2922	1413.6442	1477.7974	1488.0379	1515.3605	1692.8758	3012.6333	3041.0863	3055.9662	3101.2092	3103.3818	3103.6914	3106.287	3126.0758	3223.1282	3808.9273
CC1=CC2C3CC2(O)C13	CC1=C[C@@H]2[C@H]3C[C@]2(O)[C@@H]13	
InChI=1S/C8H10O/c1-4-2-6-5-3-8(6,9)7(4)5/h2,5-7,9H,3H2,1H3	InChI=1S/C8H10O/c1-4-2-6-5-3-8(6,9)7(4)5/h2,5-7,9H,3H2,1H3/t5-,6-,7+,8-/m1/s1
