14
gdb 133059	4.95485	1.00885	0.84255	2.6139	66.89	-0.2584	-0.0624	0.1959	1243.514	0.101268	-478.013354	-478.00582	-478.004876	-478.046134	27.476	
O	 0.3869542582	 0.8377873021	 0.8356617751	-0.426397
C	-0.026748492	 0.1461433247	-0.3106872661	-0.11564
C	-1.4211028736	-0.4274391798	-0.1828783808	 0.335699
N	-2.05364805	-0.2046559926	 0.9698945749	-0.296029
C	-3.2848040926	-0.7017709948	 1.1038848782	-0.099124
C	-3.8674501855	-1.4193044376	 0.0741718014	 0.214694
F	-5.0939709103	-1.9196993388	 0.1961744654	-0.062618
C	-3.1364155669	-1.6044250713	-1.0941485699	-0.094709
N	-1.9104122186	-1.1083396269	-1.225190708	-0.269789
H	-0.3502806106	 0.7813800413	 1.4611496526	 0.292716
H	-0.0114370715	 0.805111918	-1.1926553716	 0.120459
H	 0.6610261009	-0.6833590794	-0.5369433488	 0.120505
H	-3.814429733	-0.5294193869	 2.0370212099	 0.141141
H	-3.5590466945	-2.1625023379	-1.9261770422	 0.13909
51.7003	127.1527	211.3612	328.0192	366.2397	375.8097	431.9879	439.1598	516.263	580.6535	647.2284	762.1724	769.8927	878.4719	950.5418	983.3213	1041.5776	1047.7857	1119.1568	1236.3925	1244.0308	1258.795	1290.1887	1314.4958	1331.2189	1412.8392	1453.1343	1486.4481	1509.9425	1602.7093	1639.2726	2987.4002	3003.3216	3166.8018	3173.2761	3712.6171
OCC1=NC=C(F)C=N1	OCc1ncc(F)cn1	
InChI=1S/C5H5FN2O/c6-4-1-7-5(3-9)8-2-4/h1-2,9H,3H2	InChI=1S/C5H5FN2O/c6-4-1-7-5(3-9)8-2-4/h1-2,9H,3H2
