21
gdb 103779	3.09011	1.18801	1.05041	1.1521	79.81	-0.2226	0.0775	0.3	1253.606	0.180006	-424.18141	-424.171684	-424.17074	-424.21594	35.767	
C	-0.1883803001	 1.2177971715	-0.0330211483	-0.245112
O	 0.3679062914	-0.08134465	-0.096376168	-0.281636
C	 0.8179113826	-0.5832764832	 1.1329606333	 0.333416
C	 2.089148718	 0.0267997071	 1.6775162201	-0.457918
C	-0.2526456856	-1.0959886076	 2.0985541492	-0.430411
C	 0.578669078	-2.0493522269	 1.2930410265	 0.409187
C	 0.1853352349	-3.0599502092	 0.2261373377	-0.347249
C	 1.297129598	-3.9196780975	 0.8671594146	-0.07537
O	 1.5418905062	-2.9192336222	 1.888010482	-0.312261
H	 0.5618005794	 1.9785336528	 0.2234130792	 0.110523
H	-0.5864874668	 1.4413987817	-1.0257732389	 0.124904
H	-1.0045984696	 1.2735282292	 0.7013654218	 0.107203
H	 1.9335124503	 1.0484693923	 2.0399171245	 0.113808
H	 2.4725890924	-0.5756783676	 2.5040939886	 0.139347
H	 2.8539729034	 0.0514685911	 0.8943933391	 0.123251
H	-0.0499074886	-1.0275561558	 3.1627719855	 0.119852
H	-1.2942235031	-0.9780261282	 1.8159240554	 0.115424
H	-0.8230109261	-3.4671552036	 0.3218721322	 0.111577
H	 0.3532882892	-2.7339464699	-0.8005559962	 0.127679
H	 0.9814412148	-4.871547369	 1.307056013	 0.106584
H	 2.1836401111	-4.084506305	 0.2441137488	 0.107205
87.0196	104.794	134.7764	163.7909	182.1882	203.2813	245.1495	329.6014	384.7643	417.5972	426.8298	507.5926	660.1192	701.0145	792.6024	864.4959	870.1836	895.0278	914.1105	937.8697	977.9325	1011.3381	1022.4339	1075.1521	1113.8658	1127.5573	1162.891	1174.8626	1181.7205	1188.0503	1209.9431	1219.095	1252.3259	1269.3441	1353.4735	1394.9718	1415.3223	1470.4812	1474.9788	1481.1575	1492.2423	1494.7824	1506.48	1512.5113	1533.2211	2992.6138	3028.643	3035.3078	3045.2162	3073.0907	3082.1579	3098.2005	3114.7135	3121.057	3129.4909	3139.9951	3214.2379
COC1(C)CC11CCO1	CO[C@@]1(C)C[C@]21CCO2	
InChI=1S/C7H12O2/c1-6(8-2)5-7(6)3-4-9-7/h3-5H2,1-2H3	InChI=1S/C7H12O2/c1-6(8-2)5-7(6)3-4-9-7/h3-5H2,1-2H3/t6-,7-/m0/s1
