21
gdb 53437	2.35108	1.11837	0.91491	1.7164	86.54	-0.2421	0.047	0.289	1411.2036	0.181693	-387.077543	-387.067369	-387.066425	-387.11531	35.56	
C	 0.2036862006	 1.2361250769	 0.7578058786	-0.498487
C	 0.0459479277	-0.1495713277	 0.3395807436	 0.002539
C	-0.0738351511	-1.2949610775	-0.0150697211	 0.14227
C	-0.1969173006	-2.6957185303	-0.4396377933	-0.090547
O	 0.8314282817	-3.5132808123	 0.1170011239	-0.252418
C	 0.3915524315	-4.018045088	 1.384446257	-0.07211
C	-1.1266268788	-3.7575152006	 1.4734928959	-0.248404
C	-1.5062462323	-3.3765911683	 0.0310037016	 0.033196
C	-2.7873187617	-2.5634427594	-0.1173414108	-0.416778
H	 1.262168758	 1.5118715597	 0.8203363978	 0.151749
H	-0.2748340722	 1.9206555313	 0.0486933769	 0.149253
H	-0.2440823698	 1.4123117551	 1.742035759	 0.146721
H	-0.0844209959	-2.7532549408	-1.5282209062	 0.101725
H	 0.6375955183	-5.0854112095	 1.4128662504	 0.102863
H	 0.938142435	-3.5224327048	 2.1966283026	 0.099947
H	-1.6812464946	-4.6255910774	 1.8381929729	 0.102211
H	-1.3378331968	-2.9196080486	 2.1455883249	 0.110329
H	-1.5892006447	-4.2957394636	-0.5618819367	 0.08055
H	-2.7232814426	-1.625877044	 0.4423450134	 0.127595
H	-2.9822219213	-2.3154798729	-1.1661620675	 0.114797
H	-3.6486633102	-3.1271610973	 0.255249587	 0.112998
10.6147	48.4894	91.6754	95.8343	179.7785	223.1279	250.5077	310.1373	332.0229	406.2723	469.1298	563.6916	593.9856	700.1951	795.0561	840.101	884.3954	915.9374	937.3063	976.8342	1000.4699	1051.8135	1053.3648	1055.2502	1092.516	1127.8089	1153.8344	1180.8596	1208.8061	1238.468	1284.6417	1304.2174	1326.3209	1366.647	1375.0857	1391.5577	1412.7669	1414.7051	1477.3613	1478.8533	1491.5909	1497.1123	1500.0081	1527.8789	2360.9031	3017.6871	3026.5465	3026.779	3034.6406	3045.9471	3052.1878	3058.6164	3087.401	3088.3065	3097.9036	3104.8292	3115.1122
CC#CC1OCCC1C	CC#C[C@H]1OCC[C@H]1C	
InChI=1S/C8H12O/c1-3-4-8-7(2)5-6-9-8/h7-8H,5-6H2,1-2H3	InChI=1S/C8H12O/c1-3-4-8-7(2)5-6-9-8/h7-8H,5-6H2,1-2H3/t7-,8-/m1/s1
