20
gdb 46509	3.5694	1.20846	1.03908	2.5326	79.26	-0.2141	-0.0149	0.1992	1190.7349	0.172727	-403.158926	-403.150823	-403.149879	-403.191597	32.082	
O	 0.0260301593	-0.0826347486	 0.0648925982	-0.306251
C	-0.0142434102	 1.1237949941	-0.0094294179	 0.382187
C	-1.318348734	 1.9105094153	-0.0416533757	-0.300386
C	-1.3052821165	 3.0051872086	-1.1302133918	-0.279108
C	-0.0180562836	 3.8104123889	-1.0602501838	 0.355162
C	 0.0542259275	 5.1751305716	-1.6838059499	-0.327983
C	 0.0467604428	 5.034691029	-0.1778890055	-0.28464
N	 1.1967175933	 3.0232654505	-1.1197529245	-0.339681
C	 1.2473812367	 1.9876735637	-0.076512834	-0.268266
H	-2.1498758032	 1.2119068547	-0.1618255297	 0.117616
H	-1.4241142793	 2.3915488822	 0.9414320553	 0.12167
H	-1.3796390989	 2.5328352723	-2.1195524517	 0.101848
H	-2.1830728542	 3.6524110802	-1.0250904687	 0.099289
H	 0.9916811536	 5.4516582864	-2.1518492918	 0.12084
H	-0.8341292227	 5.5636390492	-2.1701493811	 0.111901
H	-0.8475270246	 5.3289862904	 0.361007321	 0.110549
H	 0.9788072343	 5.2214558115	 0.3424539954	 0.120906
H	 1.2660145406	 2.5788509863	-2.0318708884	 0.220928
H	 1.3717693867	 2.4878735328	 0.8946395538	 0.121156
H	 2.1130710222	 1.339735051	-0.2324297791	 0.122261
71.6519	155.4084	168.6132	281.8323	351.5711	378.7521	419.7022	437.7578	489.442	516.1132	678.0267	701.3908	764.0043	781.0753	789.0787	850.4371	901.5046	922.7263	933.0366	970.7301	996.2111	1006.866	1054.262	1083.7872	1085.8944	1117.2422	1159.6654	1174.0478	1193.0444	1242.8029	1267.0545	1289.2588	1318.3404	1338.059	1356.7704	1382.9751	1451.3715	1456.1509	1464.9489	1471.2255	1490.423	1507.3444	1817.2743	3008.9687	3011.7979	3018.6461	3063.0794	3104.2312	3108.981	3134.6019	3138.7764	3219.9553	3233.2036	3488.3183
O=C1CCC2(CC2)NC1	O=C1CCC2(CC2)NC1	
InChI=1S/C7H11NO/c9-6-1-2-7(3-4-7)8-5-6/h8H,1-5H2	InChI=1S/C7H11NO/c9-6-1-2-7(3-4-7)8-5-6/h8H,1-5H2
