16
gdb 80271	2.80617	1.63275	1.4298	3.1337	73.16	-0.2391	-0.0375	0.2016	956.5639	0.125496	-437.874801	-437.8673	-437.866356	-437.906914	29.086	
O	 0.1854586706	 1.1746377618	-0.4527567555	-0.414083
C	 0.0174928367	-0.1689935545	-0.1696775948	 0.080898
C	-0.4331927889	-0.5647684135	 1.2024056495	 0.040459
O	-0.6226635369	 0.456601551	 2.1438561842	-0.252403
C	-1.6204594019	 1.3911315267	 2.0124324172	 0.363968
N	-1.5666314202	 2.3542811562	 2.841223412	-0.502009
C	-2.6367874928	 1.1737130911	 0.9785526618	-0.154528
C	-2.5602066258	 0.1837076198	 0.0828090303	-0.050689
C	-1.4088275296	-0.7238649738	 0.0564693275	-0.194092
H	 0.5383627777	 1.6060767396	 0.3355656899	 0.309161
H	 0.6966816253	-0.8350033021	-0.698307072	 0.106798
H	-0.0144924578	-1.4391811054	 1.6874491018	 0.119665
H	-2.3510111379	 2.9851343915	 2.6858614219	 0.222457
H	-3.4743507768	 1.8621267047	 0.9911630155	 0.105371
H	-3.3476357281	 0.039202727	-0.6504836847	 0.113409
H	-1.5810812037	-1.7263564299	-0.3204127047	 0.105619
68.882	156.8719	221.9009	293.5397	336.1935	427.5103	488.3913	533.6739	574.6305	650.9406	720.3847	746.1954	777.5271	796.0089	816.8598	863.6709	892.7395	947.2774	987.8396	990.4213	1057.5663	1074.8079	1111.2403	1116.3304	1184.7635	1193.9698	1261.5944	1316.9088	1352.1139	1364.656	1390.4732	1424.1138	1440.2562	1669.4955	1719.9014	3123.241	3162.3482	3173.569	3177.9448	3198.7427	3506.7277	3774.017
OC1C2OC(=N)C=CC12	O[C@H]1[C@H]2OC(=C[CH][C@@H]12)[NH]	
InChI=1S/C6H7NO2/c7-4-2-1-3-5(8)6(3)9-4/h1-3,5-8H	InChI=1S/C6H7NO2/c7-4-2-1-3-5(8)6(3)9-4/h1-3,5-8H/t3-,5+,6-/m0/s1
