19
gdb 77986	2.83835	1.30963	1.06187	1.8072	84.67	-0.2276	0.0208	0.2484	1201.6541	0.156861	-385.820272	-385.811155	-385.810211	-385.853562	34.938	
C	-0.7691859976	 1.2379277094	-0.3490522209	-0.424698
C	-0.3995099593	-0.2162283477	-0.546119654	-0.06902
C	 0.5410038684	-0.806503595	-1.5800655218	-0.23216
C	 1.8218965432	 0.0051185908	-1.7609635283	 0.151291
C	 1.8659344218	 1.3113693645	-2.52767782	-0.424917
O	 1.9803880305	 0.1382718658	-0.3148262584	-0.338332
C	 0.9127384877	-0.8002368052	-0.0916077976	 0.27234
C	 1.0909968789	-1.8375490595	 0.8624806319	 0.228537
C	 1.2316027927	-2.7109992193	 1.6782737027	-0.410927
H	-1.3545180807	 1.6215846822	-1.1913395628	 0.11708
H	-1.3748425343	 1.3485601616	 0.5562080486	 0.120607
H	 0.1228037044	 1.8549568421	-0.2307427546	 0.142392
H	-1.2161149503	-0.9125404023	-0.3636935791	 0.101526
H	 0.2551955459	-1.6497199406	-2.1949918299	 0.106443
H	 2.618787012	-0.6579873875	-2.125350621	 0.09028
H	 2.8192060387	 1.8180971432	-2.3448449092	 0.130689
H	 1.7956412788	 1.1073304555	-3.6016724921	 0.120547
H	 1.0555078349	 1.9869071053	-2.2517673243	 0.127189
H	 1.3611695345	-3.481370863	 2.3973804309	 0.191133
116.2798	145.0105	172.2918	195.081	224.823	255.8124	303.1105	356.0025	442.5908	495.6956	527.5399	565.1395	595.2987	673.9259	684.1174	703.7401	786.044	867.9611	869.7149	925.6452	966.315	998.3897	1040.2526	1055.6454	1093.0304	1120.7004	1133.9994	1150.498	1185.7526	1261.7421	1310.038	1331.9497	1392.0097	1407.5429	1410.0407	1458.4899	1484.7679	1493.9153	1499.8355	1510.2784	2232.0944	3005.5425	3038.7689	3043.3536	3096.1298	3103.9201	3127.6583	3141.8218	3150.5782	3200.4793	3502.46
CC1C2C(C)OC12C#C	C[C@H]1[C@H]2[C@@H](C)O[C@@]12C#C	
InChI=1S/C8H10O/c1-4-8-5(2)7(8)6(3)9-8/h1,5-7H,2-3H3	InChI=1S/C8H10O/c1-4-8-5(2)7(8)6(3)9-8/h1,5-7H,2-3H3/t5-,6+,7-,8-/m0/s1
