20
gdb 113157	3.10899	1.00237	0.86284	18.6091	84.91	-0.1487	-0.0435	0.1052	1382.0698	0.169941	-440.221677	-440.211674	-440.21073	-440.257035	36.194	
C	 0.1138955412	 1.53806489	-0.2202013759	-0.466311
C	 0.0073717561	 0.0502705413	 0.0161389599	 0.181021
C	 1.2476856022	-0.7981306526	 0.0764664755	-0.348155
C	 0.4092353217	-0.5917733584	 1.3338879966	-0.028039
C	 0.9963906171	 0.1751691542	 2.4549544161	-0.257197
N	 2.1303014479	-0.7018805203	 3.0663400585	-0.405495
H	 2.7330092519	-0.9754908441	 2.2827009801	 0.32371
H	 2.682994122	-0.2453775569	 3.7970623864	 0.315202
H	 1.7230226409	-1.5618088212	 3.4405623065	 0.332878
C	-1.2450086989	-0.6836405846	-0.6289015387	 0.327573
O	-1.8892459894	 0.0231685563	-1.4135774795	-0.467586
O	-1.3783205681	-1.8677199225	-0.2554568289	-0.49403
H	 1.0806763523	 1.9670364233	 0.080939838	 0.055613
H	-0.0331638043	 1.7204918364	-1.2864369068	 0.155381
H	-0.6853364524	 2.0774344816	 0.2983794035	 0.116809
H	 1.1932373192	-1.7832931767	-0.372403677	 0.143557
H	 2.2135103472	-0.2924621426	 0.0104408356	 0.068594
H	-0.251551726	-1.4227458848	 1.5778700022	 0.127413
H	 1.4913387729	 1.1002188068	 2.1516650334	 0.158203
H	 0.3140285367	 0.3772921946	 3.2845150745	 0.160858
61.9179	81.3726	115.1844	151.1923	181.258	236.969	266.6538	286.2716	338.4512	399.4754	433.4731	513.4722	585.041	725.8442	753.2256	776.3383	813.4931	832.7317	840.4293	897.9754	943.1081	963.891	1020.0886	1059.6589	1077.5059	1095.3894	1109.8256	1181.283	1214.1862	1304.7438	1308.1229	1324.2431	1354.18	1377.974	1410.1054	1434.4339	1455.3073	1470.6743	1486.0802	1497.0312	1623.6079	1655.9657	1782.5908	2993.2294	3063.0555	3074.4578	3081.0226	3117.33	3131.8918	3141.885	3206.1324	3370.9552	3468.9013	3505.8678
CC1(CC1C[NH3+])C([O-])=O	C[C@]1(C[C@H]1C[NH3])C(=O)[O]	
InChI=1S/C6H11NO2/c1-6(5(8)9)2-4(6)3-7/h4H,2-3,7H2,1H3,(H,8,9)	InChI=1S/C6H11NO2/c1-6(5(8)9)2-4(6)3-7/h4H,2-3H2,1,7H3/t4-,6+/m0/s1
