19
gdb 71931	2.85283	1.97984	1.49817	1.6666	78.87	-0.2292	0.0054	0.2345	938.2152	0.160696	-385.872684	-385.865632	-385.864688	-385.903576	29.475	
C	 0.0013182021	 1.5302355028	-0.0629144304	-0.471132
C	-0.048850374	 0.0234189975	 0.0531398628	 0.409683
O	 0.2714522629	-0.6069959665	-1.2497899341	-0.35335
C	-0.9561672803	-1.3635354213	-1.2450690841	 0.120733
C	-0.8432368089	-2.7448978649	-0.5531349295	-0.248703
C	-1.0780004149	-2.047667333	 0.8459918985	-0.087594
C	 0.187529522	-1.7280577176	 1.6021769735	-0.08767
C	 0.75502949	-0.5994467458	 1.1731190705	-0.106203
C	-1.4066440025	-0.7247426515	 0.0863786248	-0.152266
H	 1.015924737	 1.8558370864	-0.3163001932	 0.126567
H	-0.6730729679	 1.8822856954	-0.8485193306	 0.120824
H	-0.2838271379	 2.0006130479	 0.8842836022	 0.117479
H	-1.4824713598	-1.2981117589	-2.2004651874	 0.072407
H	-1.6776133399	-3.3982078214	-0.826271482	 0.098236
H	 0.0991803322	-3.2787702166	-0.6889153505	 0.106679
H	-1.8632722416	-2.5025973966	 1.4524855111	 0.071328
H	 0.6050422179	-2.3927396371	 2.3513885704	 0.098237
H	 1.6999340907	-0.1917276771	 1.5145844445	 0.094952
H	-2.3337636871	-0.1839591016	 0.2677276235	 0.069792
201.0796	211.5926	249.451	308.367	344.9204	424.0101	529.8182	573.0295	668.2649	706.4275	769.0587	788.3214	810.1822	845.6161	867.105	887.4954	906.2434	935.386	959.7014	969.4215	981.8459	1009.5727	1041.5166	1090.9251	1113.7313	1134.832	1165.3823	1172.8675	1210.7318	1219.4499	1255.0891	1266.9858	1296.0354	1317.2624	1328.0516	1376.1759	1405.0471	1462.6666	1481.6015	1488.5448	1665.2068	3032.5788	3052.5713	3074.9096	3087.2345	3102.4292	3113.8839	3122.6352	3128.6609	3178.4733	3204.9698
CC12OC3CC(C=C1)C23	C[C@@]12O[C@H]3C[C@@H](C=C1)[C@@H]23	
InChI=1S/C8H10O/c1-8-3-2-5-4-6(9-8)7(5)8/h2-3,5-7H,4H2,1H3	InChI=1S/C8H10O/c1-8-3-2-5-4-6(9-8)7(5)8/h2-3,5-7H,4H2,1H3/t5-,6+,7-,8-/m1/s1
