18
gdb 101940	2.25148	1.31046	0.88419	4.677	67.96	-0.2542	0.0215	0.2758	1284.5723	0.147659	-476.230022	-476.221004	-476.22006	-476.264571	32.624	
N	 0.0085422319	 0.9586530006	 0.2026183874	-0.528597
H	 0.1742031772	-0.042171763	 0.2571970546	 0.248879
H	 0.9164158927	 1.4109827391	 0.1958173273	 0.251686
H	-1.252446218	 1.4165162741	-0.9405027976	 0.313412
C	-0.7990428712	 1.4116703428	 1.3526648399	-0.188639
C	-2.2769132079	 1.017656342	 1.1547731437	-0.187137
C	-3.0852955896	 1.3219872738	 2.3967525108	 0.111103
C	-4.0604517455	 0.3798696998	 2.9434989648	-0.174553
O	-2.7693409373	 0.5293661408	 3.5470119638	-0.258058
C	-2.9282525628	 1.6797289228	-0.0747127691	 0.419482
O	-2.1628406494	 1.7463958125	-1.167643698	-0.382441
O	-4.0590118038	 2.0944932985	-0.0545924504	-0.334384
H	-0.454353684	 1.0012445746	 2.3094420925	 0.132769
H	-0.7121238114	 2.50227375	 1.410479244	 0.127626
H	-2.3075148639	-0.0690013319	 0.9878230946	 0.103514
H	-3.2297227163	 2.3817876605	 2.6053459438	 0.106948
H	-4.8977798435	 0.7508926407	 3.5310949735	 0.123488
H	-4.2325221773	-0.5681483377	 2.4360563843	 0.114902
62.6239	73.2656	141.6843	170.1635	253.1815	263.0948	332.7608	358.7945	412.2823	455.9643	522.6945	614.4064	727.946	811.8605	855.1504	882.179	906.544	938.3198	981.5128	1018.1718	1044.1561	1066.4976	1092.4951	1133.8806	1158.9236	1170.3382	1185.3086	1224.4506	1278.9177	1294.6722	1323.0557	1353.2048	1416.2932	1451.2284	1499.4518	1512.709	1532.9662	1650.2552	1845.9678	3009.0113	3028.7965	3079.5112	3090.336	3118.1227	3179.1348	3206.5938	3501.8775	3584.074
[NH3+]CC(C1CO1)C([O-])=O	NC[C@@H]([C@H]1CO1)C(=O)O	
InChI=1S/C5H9NO3/c6-1-3(5(7)8)4-2-9-4/h3-4H,1-2,6H2,(H,7,8)	InChI=1S/C5H9NO3/c6-1-3(5(7)8)4-2-9-4/h3-4H,1-2,6H2,(H,7,8)/t3-,4+/m0/s1
