19
gdb 77454	1.86946	1.56103	1.49049	4.3616	76.32	-0.2617	0.0081	0.2698	1098.171	0.156884	-423.046332	-423.036877	-423.035932	-423.080114	34.733	
C	 0.0420060636	 1.5988313758	 0.0712915589	-0.429109
C	 0.0815809952	 0.0868909954	 0.0711487561	-0.110207
C	 1.2901716147	-0.74344762	-0.195887401	 0.407141
C	 1.534819627	-1.7732740199	-1.245891901	-0.489533
O	 2.4656209079	-0.0345440871	 0.3170724455	-0.301735
C	 1.9787680016	-0.1567999091	 1.6126605445	 0.426988
O	 2.5397418686	 0.1275673245	 2.6216792696	-0.332815
C	 0.6785622954	-0.7928824175	 1.196798982	 0.018255
C	-0.0838369876	-1.8262218268	 1.9728696759	-0.497287
H	 1.0020440484	 2.0231730728	 0.372156528	 0.148666
H	-0.190612808	 1.9736016368	-0.9311512401	 0.123568
H	-0.7290798188	 1.9685533001	 0.7543101835	 0.12596
H	-0.8269453529	-0.3826975059	-0.3076278223	 0.096984
H	 1.8713178056	-1.305509719	-2.1773053904	 0.142096
H	 2.3019784013	-2.4837583303	-0.9241053919	 0.1399
H	 0.6131041818	-2.3227807994	-1.4578102437	 0.130379
H	-0.6157410828	-1.369164148	 2.8138740249	 0.141485
H	-0.8270459696	-2.321218699	 1.3399925202	 0.122966
H	 0.5828871686	-2.5934078834	 2.3787205313	 0.136301
124.5854	149.6358	162.5856	187.9096	197.5778	204.8907	241.9076	252.8576	340.3068	441.675	515.6166	581.1233	620.6114	682.3955	721.6549	752.1782	812.9441	879.0216	889.4826	987.8979	1016.2669	1051.7916	1086.3423	1109.7771	1124.4363	1142.0582	1178.5866	1218.3905	1322.4938	1341.3757	1415.0277	1415.1431	1419.47	1474.4904	1481.048	1488.9027	1493.548	1496.4316	1498.7745	1520.8568	1931.9868	3035.0664	3038.3116	3040.7917	3099.7359	3100.4127	3104.3239	3106.2482	3109.6893	3119.9864	3135.5973
CC1C2(C)OC(=O)C12C	C[C@H]1[C@@]2(C)OC(=O)[C@@]12C	
InChI=1S/C7H10O2/c1-4-6(2)5(8)9-7(4,6)3/h4H,1-3H3	InChI=1S/C7H10O2/c1-4-6(2)5(8)9-7(4,6)3/h4H,1-3H3/t4-,6-,7-/m1/s1
