17
gdb 12454	3.21616	1.99215	1.41621	3.1039	70.18	-0.221	-0.0085	0.2125	894.2293	0.144011	-363.876246	-363.869053	-363.868108	-363.907807	27.61	
O	 0.2806270398	 1.238203776	-1.7035195838	-0.301667
C	 0.1092635229	 1.5222538865	-0.5438026587	 0.391079
C	-1.2238900865	 2.1226744957	-0.0765579522	-0.268974
N	-1.2507616453	 2.4405366145	 1.341241427	-0.295002
C	-0.5931133557	 3.6935860847	 1.69196258	-0.217659
C	 0.9007627663	 3.6612999399	 1.5232142023	-0.0041
C	 1.6534738853	 2.6662643709	 1.0530516595	-0.088437
C	 1.1751881952	 1.325580087	 0.5298255368	-0.333195
H	-1.4454184344	 2.9796849459	-0.7383137336	 0.114028
H	-1.9862092361	 1.3640768064	-0.2869505978	 0.131899
H	-2.2066090065	 2.4572442567	 1.6731574219	 0.226798
H	-0.9862658631	 4.5565768678	 1.1140681615	 0.090918
H	-0.8242297932	 3.9121673462	 2.7433339715	 0.112591
H	 1.3982377244	 4.5808540798	 1.8258734431	 0.090047
H	 2.7257093608	 2.8301208334	 0.9890706851	 0.098964
H	 0.7477038465	 0.7285479372	 1.3424892588	 0.137574
H	 2.0008567198	 0.7727096814	 0.0788473086	 0.115138
73.513	141.6014	309.8774	318.2339	368.6473	412.2004	465.5245	515.6174	579.2895	668.0191	681.4488	804.3816	843.4046	872.0702	909.0848	948.114	990.5004	1013.3238	1024.5603	1062.9714	1131.5999	1192.5707	1226.4036	1247.9424	1255.6798	1303.5961	1308.9234	1327.7261	1408.8152	1411.5474	1451.9202	1456.9503	1486.5656	1496.111	1727.4353	1822.7583	2878.4073	2945.4202	3025.227	3051.1409	3068.1678	3120.4831	3141.3455	3168.9693	3555.2605
O=C1CNCC=CC1	O=C1CNCC=CC1	
InChI=1S/C6H9NO/c8-6-3-1-2-4-7-5-6/h1-2,7H,3-5H2	InChI=1S/C6H9NO/c8-6-3-1-2-4-7-5-6/h1-2,7H,3-5H2
