17
gdb 128647	3.59415	1.18051	0.89874	3.2901	73.54	-0.1808	0.0524	0.2331	1271.5842	0.135863	-451.331531	-451.321989	-451.321045	-451.366919	32.97	
C	-0.016252784	 1.3669739847	-0.0613937872	-0.239104
O	-0.0353264123	-0.0642673241	-0.0040659962	-0.267568
C	-1.2498296284	-0.6071705047	-0.017034243	 0.523516
N	-2.3869388512	 0.0006340721	-0.0744404171	-0.364604
N	-3.3179550077	-1.0407130005	-0.0590025158	-0.049097
C	-4.728034548	-0.7668644273	-0.111093147	-0.322783
C	-2.7398452704	-2.2882642789	 0.0082238104	 0.452017
N	-3.362288901	-3.4062302034	 0.0356069992	-0.622442
N	-1.3700385743	-1.9714526488	 0.0348673517	-0.444138
H	 1.036081424	 1.6491268467	-0.0429434107	 0.1378
H	-0.4937797132	 1.7187298229	-0.980213305	 0.146304
H	-0.5442030911	 1.790610372	 0.7975625909	 0.146276
H	-5.0428344779	-0.162954555	 0.7470769804	 0.128474
H	-4.9910208415	-0.2347643278	-1.0319377287	 0.128477
H	-5.2401097853	-1.7296842456	-0.0871119404	 0.172315
H	-2.723522609	-4.1936992562	 0.0858795531	 0.202935
H	-0.6164452089	-2.6329434062	 0.0834092755	 0.271623
36.8724	86.4378	108.5281	153.919	188.4765	194.0755	302.4984	330.106	360.5685	398.9388	555.9642	635.3598	673.7599	678.1247	690.7336	731.0016	840.34	1001.9911	1035.1732	1057.8579	1093.5556	1160.0776	1182.2387	1221.2335	1229.1785	1271.2741	1291.6412	1435.7538	1452.5469	1457.9272	1476.7853	1483.3418	1500.5594	1518.5883	1530.2065	1688.0304	1755.6797	3027.3709	3046.0066	3080.6227	3119.0215	3153.7613	3161.6452	3539.6354	3699.7732
COC1=NN(C)C(=N)N1	COC1=NN(C)[C@H]([NH])N1	
InChI=1S/C4H8N4O/c1-8-3(5)6-4(7-8)9-2/h1-2H3,(H2,5,6,7)	InChI=1S/C4H9N4O/c1-8-3(5)6-4(7-8)9-2/h3,5H,1-2H3,(H,6,7)/t3-/m1/s1
