19
gdb 28325	4.57099	1.18568	0.96434	1.8405	84.7	-0.1663	0.0574	0.2236	1225.5203	0.163072	-382.114592	-382.106652	-382.105708	-382.146839	31.079	
N	-0.0096450062	 1.4036048316	 0.1595300231	-0.60448
C	 0.0094923544	-0.0018167284	 0.0401962969	 0.272236
C	-1.0862539936	-0.8472316199	-0.0004582576	-0.229789
N	-0.5948134811	-2.1334810049	-0.0716789256	 0.00853
C	-1.172691705	-3.4613614445	-0.0040321283	-0.175506
C	 0.0282130561	-4.3501403524	-0.4105413413	-0.208978
C	 1.2921124367	-3.5250458568	-0.0339138491	-0.349449
C	 0.769272936	-2.1203579099	-0.0545896138	 0.389992
C	 1.1889011061	-0.808855758	 0.0114541841	-0.422691
H	 0.7515334485	 1.8358859629	-0.3493927981	 0.236621
H	-0.8800357885	 1.8043725051	-0.1671517526	 0.23374
H	-2.1432505375	-0.6368583476	-0.0127579852	 0.097436
H	-1.5238821057	-3.6868884121	 1.0128076021	 0.110985
H	-2.0253868416	-3.5651227041	-0.6828255865	 0.113282
H	-0.0022819832	-5.3286967971	 0.0735198022	 0.104685
H	 0.0063443386	-4.5125931439	-1.4920043098	 0.115637
H	 1.6593977956	-3.80180764	 0.9636491529	 0.112982
H	 2.1163636103	-3.6968709959	-0.7326008042	 0.113306
H	 2.2079389002	-0.4530748942	 0.0349338907	 0.081461
112.8658	170.7717	185.0007	212.7979	287.7162	315.4975	487.4523	521.5874	611.9393	620.9926	646.3984	667.7928	730.5392	739.0041	783.1591	818.7813	877.232	901.3865	921.3806	999.6248	1007.7586	1089.3541	1098.3151	1117.4327	1167.8637	1180.1154	1212.6115	1230.8461	1253.2501	1305.2267	1326.0613	1337.4579	1401.0417	1449.5842	1473.7891	1494.3387	1502.279	1526.263	1545.4872	1623.3054	1655.5576	3001.622	3011.7982	3056.9088	3068.1932	3076.2946	3114.8078	3240.7921	3260.0302	3526.2507	3613.8481
NC1=CN2CCCC2=C1	Nc1cn2CCCc2c1	
InChI=1S/C7H10N2/c8-6-4-7-2-1-3-9(7)5-6/h4-5H,1-3,8H2	InChI=1S/C7H10N2/c8-6-4-7-2-1-3-9(7)5-6/h4-5H,1-3,8H2
