22
gdb 95631	2.25718	1.51193	1.10046	3.0628	83.32	-0.2532	0.0247	0.2779	1204.8258	0.195438	-404.378609	-404.369402	-404.368458	-404.412307	35.24	
C	-0.0670325682	 1.5745823815	-0.0504091818	-0.418823
C	 0.0472986169	 0.0477809466	-0.0452213421	 0.013958
C	 0.7346374047	-0.4958571602	-1.3039098566	-0.215084
C	 0.7392330194	-2.0173672317	-1.2744822139	-0.083319
O	 1.2855144014	-2.5602603038	-0.0627086881	-0.258397
C	 0.8939650479	-2.0239574852	 1.1357651767	 0.359577
N	 0.7755641123	-2.7441956677	 2.1705183091	-0.503483
C	 0.7523440665	-0.5142390614	 1.2135812923	-0.037462
C	 2.1427464638	 0.0949613682	 1.4950427313	-0.406065
H	 0.9098011861	 2.0558052244	-0.1611510657	 0.120693
H	-0.6944716253	 1.9094723447	-0.8829491807	 0.113169
H	-0.5190320554	 1.9421586201	 0.8770886886	 0.117059
H	-0.9752761729	-0.3583901029	-0.0355916332	 0.077334
H	 0.2093966914	-0.162928235	-2.206830856	 0.100627
H	 1.760878215	-0.1168880236	-1.3747451614	 0.108788
H	-0.2856736574	-2.398281506	-1.3932457973	 0.104686
H	 1.3491591151	-2.4395068841	-2.0770693819	 0.115762
H	 0.951891135	-3.722942487	 1.9315835867	 0.214706
H	 0.1233201842	-0.319301361	 2.0865893119	 0.099212
H	 2.8496165636	-0.0995331108	 0.6830177132	 0.120599
H	 2.0775146665	 1.1764880796	 1.6396443636	 0.117329
H	 2.5543379191	-0.3444769045	 2.4069201253	 0.139133
75.3096	125.8603	202.1736	222.4356	225.8571	278.113	292.6693	297.8795	403.6836	432.1788	485.8905	573.4778	638.2284	703.8794	749.3965	818.5365	876.7175	900.6533	934.0758	969.4317	975.0168	1002.2764	1027.4478	1046.2177	1074.7124	1114.1353	1141.8811	1167.3003	1195.5102	1228.24	1281.3216	1306.6675	1320.112	1340.4618	1348.1134	1374.2957	1402.5664	1403.0975	1413.0408	1430.3797	1481.4986	1492.2437	1497.9099	1503.5125	1509.2294	1512.9536	1742.9909	2988.1688	3000.7523	3030.5347	3035.1602	3048.7858	3071.5753	3075.1126	3096.4974	3098.4773	3102.913	3120.246	3125.6055	3454.0704
CC1CCOC(=N)C1C	C[C@H]1CCO[C]([NH])[C@H]1C	
InChI=1S/C7H13NO/c1-5-3-4-9-7(8)6(5)2/h5-6,8H,3-4H2,1-2H3	InChI=1S/C7H13NO/c1-5-3-4-9-7(8)6(5)2/h5-6,8H,3-4H2,1-2H3/t5-,6-/m0/s1
