16
gdb 25772	4.1783	1.08317	0.86942	4.22	75.94	-0.2512	-0.0627	0.1885	1305.0592	0.122906	-437.945225	-437.936477	-437.935532	-437.979305	30.806	
C	-0.1560747245	 1.4796930852	 0.0087621853	-0.48461
C	 0.021748576	-0.0237958939	 0.0795954912	 0.299365
O	 1.1017383293	-0.5607200642	 0.1633491263	-0.279444
C	-1.2215937783	-0.840264485	 0.0408458017	 0.285174
N	-1.3446266226	-2.1333115805	 0.0859948238	-0.31444
C	-2.7050189413	-2.3734924821	 0.0172448351	 0.248698
C	-3.270291548	-3.7534092306	 0.0404044329	-0.491984
C	-3.344243429	-1.1732911291	-0.0681342078	-0.113851
O	-2.4131061514	-0.1846178991	-0.0544130126	-0.163568
H	 0.825479217	 1.952172475	 0.0458891458	 0.145329
H	-0.6740568669	 1.763499688	-0.9131422415	 0.147411
H	-0.7743281426	 1.8341547088	 0.8399614546	 0.147413
H	-2.9867101402	-4.2723659884	 0.9614279078	 0.147892
H	-4.3610168795	-3.7340379505	-0.0241387978	 0.126313
H	-2.8839673468	-4.3438018695	-0.7963675552	 0.147912
H	-4.3745994711	-0.8680304939	-0.1398803197	 0.152388
62.9671	123.3499	124.8483	153.5706	163.5864	302.656	311.0494	392.56	496.3671	559.3388	611.7355	653.3157	700.6583	735.5432	780.6361	931.1123	973.1684	1018.9649	1024.8107	1041.9543	1067.4339	1131.0991	1148.9566	1240.1503	1304.3359	1340.1412	1383.8786	1418.1648	1461.2401	1470.8801	1475.6872	1489.6807	1560.2514	1620.5522	1799.5434	3043.8162	3045.606	3103.5518	3107.9949	3126.2398	3161.2285	3286.6681
CC(=O)C1=NC(C)=CO1	CC(=O)c1nc(C)co1	
InChI=1S/C6H7NO2/c1-4-3-9-6(7-4)5(2)8/h3H,1-2H3	InChI=1S/C6H7NO2/c1-4-3-9-6(7-4)5(2)8/h3H,1-2H3
