17
gdb 29395	3.61651	1.05576	0.82135	4.8928	80.96	-0.1864	0.0086	0.1949	1357.6091	0.13634	-418.070506	-418.061461	-418.060517	-418.105166	32.509	
C	-0.008137908	 1.5763354346	-0.1267728868	-0.499367
C	-0.0019496786	 0.0797511863	-0.0468594742	 0.301769
C	-0.0361244064	-0.7940866355	-1.1048994637	-0.183701
N	-0.0158976319	-2.0816699981	-0.6015167817	-0.344332
C	 0.0309164337	-2.0247625206	 0.7695799923	 0.435423
N	 0.0590377877	-3.2105720748	 1.5116365	-0.409871
C	 0.106028993	-3.3024475813	 2.8763177446	 0.143978
O	 0.1300905204	-2.3689323285	 3.6458201978	-0.30169
C	 0.0408419452	-0.7030464099	 1.1499860677	-0.326408
H	 0.8878632203	 2.0097202732	 0.3326811853	 0.126001
H	-0.0449987652	 1.9163138192	-1.1659984034	 0.114864
H	-0.8720787259	 2.0056891123	 0.3937956418	 0.126001
H	-0.0729321839	-0.6186185869	-2.167815547	 0.113456
H	-0.0329198866	-2.9185070929	-1.1569643444	 0.25295
H	 0.044006109	-4.0813494272	 1.0035440353	 0.246574
H	 0.1196797677	-4.3616221525	 3.199389815	 0.077868
H	 0.0748121695	-0.3528563574	 2.1666569814	 0.126485
31.8795	111.608	149.8583	157.1032	262.9239	276.9927	285.	391.5649	398.5626	486.8978	553.8409	634.9193	661.7518	693.6418	704.3439	814.2904	858.0872	984.8285	998.7071	999.1223	1010.2362	1064.6431	1122.1322	1145.9077	1203.466	1251.8678	1302.5579	1401.9892	1420.041	1432.3059	1458.3983	1482.4543	1499.9794	1563.4829	1578.9021	1637.4039	1805.3578	2942.0133	3024.9748	3073.7928	3103.3266	3264.4849	3294.6889	3624.1405	3682.0681
CC1=CNC(NC=O)=C1	Cc1c[nH]c(NC=O)c1	
InChI=1S/C6H8N2O/c1-5-2-6(7-3-5)8-4-9/h2-4,7H,1H3,(H,8,9)	InChI=1S/C6H8N2O/c1-5-2-6(7-3-5)8-4-9/h2-4,7H,1H3,(H,8,9)
