23
gdb 86615	2.63258	1.16942	1.01313	1.5272	85.39	-0.2452	0.0687	0.3139	1318.4489	0.205518	-388.266117	-388.256421	-388.255477	-388.300751	36.818	
C	 0.8245385922	 1.4672432304	 0.1244861229	-0.403258
C	 0.0359736168	 0.1654132819	 0.0224475987	-0.014781
C	 0.5382001294	-0.8508558221	-1.0488851222	-0.26158
C	 1.1574912226	-1.7448138174	 0.0706868329	-0.044117
C	 2.6622660025	-1.6692526361	 0.1907505404	 0.003175
C	 3.3935518409	-2.5831503355	 1.1503728887	-0.268925
C	 3.5240640142	-2.7917157621	-0.3358678098	-0.284818
C	 0.3558266221	-0.9041557364	 1.1197968448	 0.130883
O	 0.9819356653	-0.51491871	 2.3173659787	-0.428661
H	 1.9068805465	 1.2993215314	 0.1525349718	 0.105582
H	 0.6201168984	 2.1108008311	-0.7377561721	 0.112695
H	 0.5548310508	 2.0145888582	 1.0327983024	 0.126004
H	-1.029837156	 0.4040419662	-0.0496097235	 0.065771
H	-0.2717137362	-1.3435590972	-1.5920164808	 0.097082
H	 1.2504441622	-0.4578138814	-1.7804488614	 0.09518
H	 0.8646546442	-2.7995199175	 0.0377944828	 0.060378
H	 3.0877265155	-0.6753390193	 0.0698106405	 0.08516
H	 4.2489552644	-2.194540663	 1.6923658074	 0.111268
H	 2.798072946	-3.2929576684	 1.7142394107	 0.121069
H	 3.0202439113	-3.6457625775	-0.7762895663	 0.114972
H	 4.4659193233	-2.5387683438	-0.8097274093	 0.112498
H	-0.5583122695	-1.426677994	 1.4187057814	 0.079707
H	 1.919287833	-0.3931966576	 2.1362672911	 0.284717
64.1983	85.1479	157.1144	196.1527	216.3329	228.8206	260.2038	307.8748	352.2771	383.7505	523.4059	574.4762	727.7411	751.8908	794.5015	798.4506	832.4299	855.107	907.894	922.7688	931.459	967.083	1025.3047	1037.6488	1044.6183	1059.9573	1079.4148	1095.6066	1137.7062	1148.9273	1168.5377	1191.0574	1199.242	1224.7707	1234.1522	1261.3304	1275.0759	1281.2753	1311.3131	1316.586	1369.3295	1409.1427	1425.7352	1436.3939	1470.4498	1488.685	1496.0715	1497.3897	1504.3557	3031.7169	3037.3228	3044.2122	3052.2561	3063.2531	3093.4306	3105.9585	3108.1766	3125.1808	3131.0636	3136.2527	3209.3817	3224.2837	3820.524
CC1CC(C2CC2)C1O	C[C@H]1C[C@@H](C2CC2)[C@H]1O	
InChI=1S/C8H14O/c1-5-4-7(8(5)9)6-2-3-6/h5-9H,2-4H2,1H3	InChI=1S/C8H14O/c1-5-4-7(8(5)9)6-2-3-6/h5-9H,2-4H2,1H3/t5-,7-,8-/m0/s1
