17
gdb 51482	3.1065	1.24253	1.15764	4.9859	68.81	-0.2561	0.0027	0.2588	1110.6065	0.136334	-458.963729	-458.955825	-458.954881	-458.996927	28.748	
O	 0.0981053781	 0.0834039585	 0.1805768816	-0.270642
C	 0.2926103754	 1.2473298731	 0.3549587323	 0.175213
O	 0.8815436455	 2.0326846375	-0.5738628906	-0.17875
C	 0.980318354	 3.4088573614	-0.2738963566	 0.096756
C	 1.9035161795	 3.9520984364	 0.7897805007	-0.124679
C	 3.0029391486	 3.0487800702	 1.3219192124	-0.091504
O	 3.6195773105	 2.4526909143	 0.1921113971	-0.246522
C	 3.4628847412	 3.3018200868	-0.9380423787	-0.082844
C	 2.2189139079	 4.1394465659	-0.6848590374	-0.122196
H	 0.0182631007	 1.8041612123	 1.2709512019	 0.080871
H	 0.038486424	 3.9336144362	-0.4112827885	 0.11441
H	 1.5503564765	 4.761544582	 1.4182859765	 0.102523
H	 3.7153184974	 3.656960311	 1.9028611003	 0.100822
H	 2.6500210941	 2.2363975436	 1.967341361	 0.116732
H	 4.3298531894	 3.9693150622	-1.0634045366	 0.097948
H	 3.3876117467	 2.6575026908	-1.8191061686	 0.127963
H	 2.1247285608	 5.0938627478	-1.1888315669	 0.103901
63.8883	120.4659	150.2216	210.8955	237.8701	281.4631	472.9249	505.6815	639.2943	730.3392	762.0196	778.6311	820.8133	917.1011	929.0618	983.9051	1012.809	1031.9669	1048.2505	1055.9087	1097.7991	1108.9777	1131.2969	1135.2951	1164.8195	1223.5251	1229.2935	1245.1786	1323.8014	1357.8671	1359.2947	1371.921	1418.7318	1449.7042	1511.4101	1525.2998	1870.7581	2961.037	2972.572	2983.9726	3057.7921	3082.6125	3139.6104	3178.3278	3189.1569
O=COC1C2COCC12	O=CO[C@H]1[C@H]2COC[C@@H]12	
InChI=1S/C6H8O3/c7-3-9-6-4-1-8-2-5(4)6/h3-6H,1-2H2	InChI=1S/C6H8O3/c7-3-9-6-4-1-8-2-5(4)6/h3-6H,1-2H2/t4-,5+,6-
