19
gdb 53185	3.1691	0.96859	0.8851	1.2863	85.43	-0.2219	0.0551	0.277	1409.6718	0.157619	-385.836549	-385.827037	-385.826093	-385.872685	34.625	
C	 0.0056766201	 1.4843706164	 0.0098837926	-0.499439
C	-0.0318008629	 0.0287170606	 0.0149140836	 0.071084
C	-0.0499531656	-1.1772717486	 0.0172730485	 0.093564
C	-0.0860375064	-2.6121253922	 0.0126761783	-0.298994
C	-0.4654163393	-3.4659255079	 1.2266358619	-0.117413
C	-1.5449967369	-2.7543926164	 2.0493379518	-0.22699
C	-2.4815755065	-2.7578640015	 0.7932046973	-0.301396
C	-1.3591211129	-3.4458578384	 0.0063432618	 0.385025
O	-1.5463378943	-4.4635891816	-0.9091287733	-0.457914
H	 1.0367864412	 1.8554621052	-0.0003373997	 0.147498
H	-0.5031996638	 1.8987555417	-0.8679650702	 0.144391
H	-0.4827598533	 1.8975421924	 0.8994829501	 0.147008
H	 0.6882261484	-3.0941088546	-0.5804660208	 0.107219
H	 0.2111602537	-4.2358597546	 1.5770080306	 0.094494
H	-1.9344513073	-3.3679240994	 2.8638505652	 0.104427
H	-1.2668236536	-1.7713639384	 2.4371495048	 0.110235
H	-3.3393154497	-3.4211687589	 0.922244567	 0.108668
H	-2.8192703385	-1.7874078099	 0.4188936248	 0.101517
H	-1.7207515822	-4.0687805537	-1.7711272542	 0.287015
11.6197	88.0914	92.7725	223.8933	240.6587	252.1659	297.8528	369.7505	389.5047	400.1696	512.6399	529.777	625.2468	740.312	779.8052	790.6545	871.3656	909.2212	926.0062	958.9404	1008.8333	1023.0685	1052.2857	1053.4472	1078.1664	1129.9745	1175.4139	1206.1311	1218.6422	1232.2127	1240.3784	1296.6863	1307.2631	1330.9669	1414.8633	1449.2576	1470.8347	1477.6457	1480.067	1502.8177	2359.4038	3023.5203	3058.4261	3068.319	3081.2589	3084.8883	3111.5384	3128.4307	3134.4365	3188.4304	3788.7391
CC#CC1C2CCC12O	CC#C[C@H]1[C@H]2CC[C@@]12O	
InChI=1S/C8H10O/c1-2-3-6-7-4-5-8(6,7)9/h6-7,9H,4-5H2,1H3	InChI=1S/C8H10O/c1-2-3-6-7-4-5-8(6,7)9/h6-7,9H,4-5H2,1H3/t6-,7+,8+/m0/s1
