12
gdb 14607	7.02195	0.70275	0.65582	1.9353	63.35	-0.283	-0.0796	0.2034	1555.4578	0.080675	-418.461972	-418.453429	-418.452485	-418.497422	26.82	
O	 0.3795604621	 0.091634916	-0.1918063119	-0.255569
C	 0.4317877545	 1.2775645771	-0.2840744557	 0.183042
O	 0.6732745412	 2.0767148851	 0.7823495811	-0.164005
C	 0.7642840093	 3.4845773081	 0.5305469365	-0.255467
C	 2.1253430313	 3.9162781291	 0.2504594562	 0.154094
C	 3.2492488151	 4.2880267548	 0.0148923742	-0.002236
C	 4.6046776703	 4.7008906572	-0.2623271263	 0.027693
O	 4.9334535497	 5.844057437	-0.4735852278	-0.219218
H	 0.2805742286	 1.8458001034	-1.2224948825	 0.087752
H	 0.1031215979	 3.7714708298	-0.2983766138	 0.156165
H	 0.3895595655	 3.9763587935	 1.4328872884	 0.174275
H	 5.3372790945	 3.8696454489	-0.2667421383	 0.113474
30.3303	50.1737	93.7577	149.6392	174.7439	228.4831	355.0751	388.0411	475.2131	600.2447	683.565	831.0573	976.3456	1019.9486	1032.2619	1044.9426	1141.6572	1148.7183	1297.1774	1384.373	1419.3789	1429.3186	1470.2118	1772.4057	1879.8392	2332.1212	2933.9965	2951.7569	3024.4094	3092.8569
O=COCC#CC=O	O=COCC#CC=O	
InChI=1S/C5H4O3/c6-3-1-2-4-8-5-7/h3,5H,4H2	InChI=1S/C5H4O3/c6-3-1-2-4-8-5-7/h3,5H,4H2
