16
gdb 46139	4.91601	1.02631	0.87857	4.2728	73.53	-0.2527	0.0283	0.281	1258.3197	0.124507	-437.860475	-437.852252	-437.851308	-437.893755	30.358	
N	-0.0716243803	 1.2583322794	 0.444008289	-0.538724
C	-0.0077248528	 0.0822043848	-0.0048979642	 0.455506
O	 1.17427737	-0.564784158	-0.2172599013	-0.265633
C	 1.2511731698	-1.7008409975	-1.0794791764	-0.08025
C	 0.0334931591	-2.6127128671	-0.8970846897	-0.221144
C	-1.196702406	-1.7164933845	-1.0783911206	-0.076856
O	-1.1539810836	-0.6118935584	-0.1800977008	-0.233364
C	 0.0439293881	-3.7178296167	-1.8422701017	 0.296177
C	 0.0526213834	-4.6105179049	-2.6465107405	-0.425336
H	 0.8696931983	 1.6214626676	 0.5795167538	 0.227913
H	 1.3129251134	-1.3700722768	-2.1244930106	 0.124119
H	 2.181573818	-2.2095274252	-0.821427026	 0.136775
H	 0.033180616	-2.9956165794	 0.1312475881	 0.130166
H	-1.2481135244	-1.3585589048	-2.1152999914	 0.124108
H	-2.1216750211	-2.2476380443	-0.8495514292	 0.139546
H	 0.059572572	-5.4100293843	-3.3459569785	 0.206995
65.0944	131.558	134.6852	161.6102	306.7325	407.9721	416.815	472.6383	505.2878	572.3096	651.8794	660.3778	675.9344	731.1431	813.6108	835.816	917.7416	941.8511	987.8692	1031.2757	1104.7744	1120.9713	1129.1191	1177.8594	1236.9089	1278.1639	1287.8828	1314.1304	1342.8614	1423.6379	1425.6467	1509.0568	1517.2847	1764.6083	2241.9128	3020.8161	3023.0086	3041.9785	3117.9977	3123.7177	3501.7036	3526.0798
N=C1OCC(CO1)C#C	[NH][C]1OC[C@@H](CO1)C#C	
InChI=1S/C6H7NO2/c1-2-5-3-8-6(7)9-4-5/h1,5,7H,3-4H2	InChI=1S/C6H7NO2/c1-2-5-3-8-6(7)9-4-5/h1,5,7H,3-4H2/t5-
