21
gdb 97073	4.06782	1.00828	0.84738	2.9604	83.4	-0.2285	0.0261	0.2546	1416.8893	0.183313	-420.413184	-420.403782	-420.402837	-420.44764	34.635	
C	-0.2354783887	 1.4461254202	 0.0532283936	-0.324982
N	-0.1438518254	-0.0043332016	 0.0660235186	-0.290942
C	 0.6366313491	-0.5767671685	 0.876697951	 0.417078
C	 0.6812453838	-2.0870732137	 0.9594426861	-0.256998
N	 2.0276417132	-2.5634727993	 1.2705795061	-0.314046
C	 2.5173602255	-1.9634266438	 2.5083229478	 0.042578
C	 3.875842186	-2.5438633765	 2.8897406931	-0.414802
C	 2.6143797504	-0.4652163446	 2.2465547758	-0.051261
O	 1.3767839547	 0.1070878722	 1.8028949638	-0.267817
H	 0.6314259684	 1.9527200316	 0.4917536921	 0.11686
H	-0.3659467888	 1.7813262239	-0.9805320496	 0.118308
H	-1.1285647639	 1.7632414298	 0.6068320501	 0.122684
H	-0.0591177623	-2.3891287155	 1.7265809025	 0.098796
H	 0.3471599628	-2.484920571	 0.000597434	 0.13218
H	 2.0219178657	-3.5751541243	 1.3486484961	 0.220163
H	 1.8096741679	-2.1153810196	 3.3475056477	 0.061304
H	 4.5975903872	-2.3978308883	 2.0803725303	 0.13158
H	 4.2642523385	-2.0729728555	 3.7979265634	 0.120989
H	 3.7958607796	-3.6190371742	 3.0819262787	 0.116944
H	 2.8776171819	 0.079784498	 3.1569134858	 0.111112
H	 3.3842775544	-0.2821279091	 1.485324253	 0.110274
60.2608	86.3492	162.7612	204.4452	222.6725	235.0009	282.6831	304.3054	384.915	469.4774	491.3496	535.306	590.2025	716.7195	768.927	791.6641	897.3034	947.7771	980.7149	998.741	1033.2595	1070.6396	1091.5305	1126.2837	1132.5706	1146.5584	1169.0511	1194.4671	1233.0737	1260.4918	1277.6559	1330.8933	1356.4472	1401.6424	1409.3046	1429.5397	1437.3934	1474.913	1486.4401	1490.7925	1495.565	1499.5959	1502.3841	1503.1628	1775.5138	2900.3159	2907.2147	3014.8492	3021.1939	3036.5839	3071.2995	3093.8714	3098.2802	3103.2939	3117.2931	3122.4414	3517.5367
CN=C1CNC(C)CO1	CN=C1CN[C@@H](C)CO1	
InChI=1S/C6H12N2O/c1-5-4-9-6(7-2)3-8-5/h5,8H,3-4H2,1-2H3	InChI=1S/C6H12N2O/c1-5-4-9-6(7-2)3-8-5/h5,8H,3-4H2,1-2H3/t5-/m0/s1
