19
gdb 70062	3.03381	1.57337	1.26803	1.171	81.33	-0.2147	0.0144	0.2291	1038.1859	0.16027	-385.851841	-385.844396	-385.843452	-385.883204	30.905	
O	 0.0437007521	 1.4526411141	 0.2013228201	-0.47655
C	 0.1039723094	 0.0673571612	 0.0406900659	 0.401037
C	-0.5518660359	-0.7227128418	 1.1248653816	-0.316612
C	 0.9651340033	-0.8273985802	 0.9643685868	-0.149187
C	 1.3932338117	-1.9960824391	 0.1295070447	-0.232237
C	 1.0339236443	-1.7932180262	-1.1406331066	 0.258165
C	 0.397168239	-2.4920143307	-2.323216832	-0.308666
C	-0.7351455961	-1.4077885495	-2.185058425	-0.246476
C	 0.2636935777	-0.5143094556	-1.3526309421	-0.116613
H	 0.8422589287	 1.8303541083	-0.184034143	 0.278088
H	-0.9068453491	-0.1241630094	 1.9569603859	 0.121285
H	-1.160594049	-1.5887130883	 0.8860405063	 0.108478
H	 1.5874090501	-0.4005325032	 1.744030112	 0.086632
H	 1.7595507546	-2.9236162327	 0.5566966637	 0.092446
H	 0.9527340767	-2.3663084568	-3.2586812067	 0.109982
H	 0.1235961826	-3.5431987448	-2.2099980927	 0.110002
H	-1.1190031774	-0.975227524	-3.1113911627	 0.103357
H	-1.5656830594	-1.7680561221	-1.5745022367	 0.114256
H	 0.7547911969	 0.2101720708	-2.0173104492	 0.062615
153.8896	203.3345	265.6714	319.6221	336.7457	373.1107	471.3014	481.8647	582.3034	647.9554	677.5119	742.7523	777.9448	827.8231	848.6375	851.5668	879.2664	925.0211	940.9136	966.2484	996.6009	1027.3925	1052.3224	1068.1036	1070.2348	1082.5921	1121.9794	1169.715	1201.8217	1222.3274	1234.3507	1236.0081	1250.1217	1287.405	1314.8793	1353.7338	1415.0006	1470.0343	1475.0529	1484.195	1703.7733	3002.1615	3046.3095	3068.3733	3106.9802	3125.1156	3132.924	3163.0417	3184.1923	3218.4588	3791.5241
OC12CC1C=C1CCC21	O[C@]12C[C@H]1[CH][C]1CC[C@@H]21	
InChI=1S/C8H10O/c9-8-4-6(8)3-5-1-2-7(5)8/h3,6-7,9H,1-2,4H2	InChI=1S/C8H10O/c9-8-4-6(8)3-5-1-2-7(5)8/h3,6-7,9H,1-2,4H2/t6-,7-,8-/m1/s1
