19
gdb 68055	2.00527	1.82534	1.14516	5.3436	81.4	-0.25	0.0272	0.2771	1127.1097	0.158814	-382.034589	-382.025789	-382.024845	-382.067622	33.591	
C	 0.0186770455	 1.4604836716	 0.0820522007	-0.514914
C	 0.0140543211	-0.0338206787	-0.0342274101	 0.328453
C	 0.5858877645	-0.9516246747	-1.152954311	-0.318295
C	 0.0574226443	-1.8821057124	-0.0234240616	 0.328471
C	 0.132069243	-3.3730979822	 0.1102819542	-0.51492
N	 0.6359300355	-0.937744497	 1.0228924937	-0.366369
C	-1.2263906388	-0.9873148014	 0.0158718742	-0.21282
C	-2.0431578407	-0.9993526138	 1.2163327959	 0.284329
N	-2.7459148805	-1.0110373383	 2.1343975898	-0.338286
H	 1.0432243698	 1.8467887705	 0.065623522	 0.127092
H	-0.5286348686	 1.9165942506	-0.7488918131	 0.129013
H	-0.4507479651	 1.7693302666	 1.0206191186	 0.151968
H	 0.0824305479	-0.9691374879	-2.1260792231	 0.095628
H	 1.6737078365	-0.9267377203	-1.264421238	 0.09703
H	 1.1735943066	-3.7111394066	 0.0980503291	 0.127089
H	-0.3225956129	-3.6926792397	 1.0525177603	 0.151978
H	-0.3930647948	-3.8640132337	-0.7151221092	 0.129012
H	 1.6563526035	-0.9145105531	 0.9214356	 0.203784
H	-1.8488273666	-1.0071856694	-0.8808516822	 0.111756
111.0672	159.6406	198.3473	203.8178	220.9493	232.4373	352.7856	376.5186	432.8604	505.4923	540.8264	590.1057	648.146	684.382	747.4514	791.9956	876.7281	904.7981	927.4205	1010.3423	1023.1837	1049.9433	1082.6401	1086.9518	1137.9855	1145.5747	1152.2262	1177.9147	1241.6476	1276.6904	1298.2588	1342.5658	1390.6698	1412.1619	1424.8143	1482.4737	1482.8624	1487.1911	1488.3497	1518.5729	2355.7617	3030.9702	3037.2991	3037.8117	3099.3243	3104.6741	3106.1114	3107.3187	3118.3508	3118.4469	3376.3821
CC12CC(C)(N1)C2C#N	C[C@@]12C[C@@](C)(N1)[C@H]2C#N	
InChI=1S/C7H10N2/c1-6-4-7(2,9-6)5(6)3-8/h5,9H,4H2,1-2H3	InChI=1S/C7H10N2/c1-6-4-7(2,9-6)5(6)3-8/h5,9H,4H2,1-2H3/t5-,6-,7+
