21
gdb 99110	2.78755	1.02666	0.93586	2.4108	79.9	-0.2406	0.032	0.2726	1380.3292	0.181964	-420.418902	-420.408662	-420.407718	-420.454709	36.839	
C	 1.0503132211	-0.3536362656	-0.914169667	-0.335101
N	-0.0083769362	-1.2332221709	-0.4568068648	-0.31546
C	-0.0596244778	-2.5510263137	-0.8073852511	 0.400861
O	 0.7756288412	-3.0883543443	-1.5129677706	-0.378239
C	-1.2216794429	-3.3644022209	-0.213842517	-0.385187
C	-2.4460831264	-2.5912786677	 0.238079317	 0.314008
C	-3.2532703388	-1.9304319138	-0.8633982124	-0.442344
C	-3.157366464	-3.0213787659	 1.4668881823	-0.287486
N	-2.3375982555	-1.790805724	 1.4888559205	-0.357176
H	 1.6090194145	 0.0681569036	-0.0711786893	 0.123984
H	 1.7260584003	-0.9491384847	-1.528726409	 0.170623
H	 0.6516663013	 0.4714978833	-1.5148079861	 0.125474
H	-0.7488384707	-0.8491119981	 0.1086714452	 0.267199
H	-1.4874443647	-4.103013207	-0.9763141134	 0.135497
H	-0.8041153146	-3.9331912121	 0.6269990352	 0.120924
H	-3.6949514138	-2.6887748005	-1.518951839	 0.12315
H	-4.0582175856	-1.3272816541	-0.4371381857	 0.128931
H	-2.6287847502	-1.2778352428	-1.4816680544	 0.12382
H	-4.2280628677	-2.8575146084	 1.5521478901	 0.120956
H	-2.7902514558	-3.8909091107	 2.0053935249	 0.11579
H	-1.4564684637	-2.0049842618	 1.9528875547	 0.229777
63.9564	67.7045	93.5229	131.2942	178.37	207.2279	274.3145	329.6382	349.7383	359.8387	411.0937	479.1697	543.7565	643.5264	685.0853	737.3357	832.0232	863.5799	908.6564	937.2907	945.0032	995.1057	1047.3773	1085.4014	1089.6949	1113.0264	1145.0377	1153.3879	1173.9883	1205.1212	1272.6028	1275.4947	1302.5681	1360.2254	1387.2278	1421.1426	1437.5988	1456.1618	1487.3242	1495.7087	1500.9582	1502.0492	1515.1241	1571.2617	1777.4977	3027.8021	3032.4707	3038.6217	3078.8204	3089.8055	3101.8623	3108.9989	3126.4544	3155.4054	3194.0769	3476.8419	3628.7452
CNC(=O)CC1(C)CN1	CNC(=O)C[C@@]1(C)CN1	
InChI=1S/C6H12N2O/c1-6(4-8-6)3-5(9)7-2/h8H,3-4H2,1-2H3,(H,7,9)	InChI=1S/C6H12N2O/c1-6(4-8-6)3-5(9)7-2/h8H,3-4H2,1-2H3,(H,7,9)/t6-/m0/s1
