20
gdb 120595	3.87451	0.77172	0.71921	1.2036	84.45	-0.2395	0.0366	0.2761	1643.4871	0.167708	-403.077225	-403.066763	-403.065819	-403.113125	37.399	
C	 0.0904529926	 1.3400316771	 0.2046502961	-0.225258
O	 0.0127848264	-0.0643765649	 0.1649081088	-0.234422
C	-1.2800466867	-0.5315622195	-0.1581117289	-0.06553
C	-1.2298638009	-2.0377234019	-0.1628451686	-0.060697
N	-1.6007590926	-2.7396152329	 1.0691745933	-0.360356
C	-2.4509091763	-2.9110544554	-0.1371336193	 0.126489
C	-3.8597314323	-2.3503851969	-0.0390722112	-0.457211
C	-2.3517302623	-4.1631002437	-0.8489339037	 0.278395
C	-2.2918731953	-5.2171760251	-1.4260399693	-0.450638
H	 1.1212970773	 1.6035126507	 0.4532687131	 0.128192
H	-0.1679365356	 1.7921821619	-0.7666595906	 0.102235
H	-0.5794064264	 1.7657172247	 0.9685888496	 0.105915
H	-2.0163897228	-0.1731562483	 0.5760811235	 0.09672
H	-1.5844564776	-0.1589023576	-1.1523342127	 0.088035
H	-0.3873636199	-2.4288558523	-0.7290810336	 0.102182
H	-1.0152695678	-3.5602928022	 1.2019186394	 0.240302
H	-3.874373742	-1.4450291482	 0.5694899601	 0.130122
H	-4.2560772495	-2.1209804495	-1.0328375546	 0.12606
H	-4.5216941487	-3.0851285255	 0.4284867085	 0.132217
H	-2.2317404996	-6.1441613804	-1.94049976	 0.197247
56.988	85.3698	104.7684	150.9572	174.1182	196.4955	233.1781	266.0491	327.467	371.0538	402.8677	490.2302	552.3946	584.42	606.0641	652.6076	681.7533	832.0451	874.65	950.1626	982.7991	1008.2257	1069.3741	1085.0501	1098.8157	1117.5851	1157.9935	1182.8936	1213.4091	1236.4449	1277.046	1293.3718	1324.817	1387.6535	1414.4741	1462.8657	1478.2273	1485.2368	1486.5518	1498.579	1500.2634	1522.5501	2231.0893	2948.7316	2968.5021	3009.4216	3012.434	3047.7672	3112.8687	3114.6693	3137.8688	3143.0003	3501.7855	3509.3398
COCC1NC1(C)C#C	COC[C@H]1N[C@]1(C)C#C	
InChI=1S/C7H11NO/c1-4-7(2)6(8-7)5-9-3/h1,6,8H,5H2,2-3H3	InChI=1S/C7H11NO/c1-4-7(2)6(8-7)5-9-3/h1,6,8H,5H2,2-3H3/t6-,7-/m1/s1
