19
gdb 53121	4.35867	0.96222	0.92498	0.0796	87.91	-0.2339	0.0529	0.2868	1357.8049	0.159603	-348.67997	-348.671669	-348.670725	-348.71442	31.161	
C	-0.0173213871	 1.5275665149	-0.0172693947	-0.499804
C	-0.0097441282	 0.0721881388	 0.0265944557	 0.085894
C	-0.000510435	-1.1326784158	 0.0636987582	 0.050868
C	 0.0100506014	-2.5857928431	 0.1065234864	-0.168751
C	 0.1591729639	-3.3418043482	 1.4355380892	-0.065077
C	-1.2408331898	-3.5076329058	 2.0432597117	-0.055885
C	-2.2372296458	-2.8506550373	 1.0900216284	-0.23145
C	-1.3310927079	-3.3853446158	-0.0500679791	-0.066352
C	-0.7514798956	-4.4492449395	 0.9682653753	-0.10684
H	 0.8370964131	 1.9149414612	-0.5836294253	 0.145708
H	-0.9280399551	 1.9070789289	-0.4942436378	 0.146088
H	 0.0309406359	 1.9577404897	 0.9894606037	 0.146197
H	 0.7410185041	-2.9812461401	-0.6075599142	 0.09213
H	 1.0492841187	-3.4203255872	 2.046316591	 0.086922
H	-1.3578968142	-3.7129009529	 3.0997062584	 0.082415
H	-3.1990232598	-3.3707323546	 1.1073438882	 0.095558
H	-2.3930950622	-1.7683445374	 1.1416564725	 0.10169
H	-1.728827714	-3.5803421189	-1.0435199872	 0.07193
H	-0.6256524824	-5.5211015967	 0.9335869697	 0.088759
21.899	87.974	97.8097	246.5556	282.0025	392.0636	416.0293	469.8707	537.0024	723.9854	738.7595	786.9212	797.0778	813.0906	845.2528	887.6533	935.2878	968.4272	990.6142	998.7372	1017.8154	1032.1247	1045.6447	1053.0362	1053.6949	1065.1826	1129.9545	1161.6179	1165.7017	1184.6487	1196.3537	1236.091	1271.5268	1313.9628	1352.3814	1367.5593	1414.6865	1478.7041	1479.1391	1495.9663	2361.8526	3024.1844	3042.1298	3046.536	3083.7442	3084.0795	3102.0573	3139.6101	3192.2878	3199.8901	3228.5563
CC#CC1C2C3CC1C23	CC#C[C@H]1[C@H]2[C@H]3C[C@@H]1[C@@H]23	
InChI=1S/C9H10/c1-2-3-5-6-4-7-8(5)9(6)7/h5-9H,4H2,1H3	InChI=1S/C9H10/c1-2-3-5-6-4-7-8(5)9(6)7/h5-9H,4H2,1H3/t5-,6+,7-,8+,9-/m1/s1
