16
gdb 62464	3.87059	1.19393	1.17823	5.0438	69.63	-0.261	0.0121	0.2731	1079.4339	0.124823	-437.876222	-437.868363	-437.867419	-437.908655	29.621	
O	-0.0316337468	 1.3423830126	-0.0040923363	-0.457738
C	-0.0153099286	-0.0457072603	 0.0123092514	 0.24658
C	 1.0781170094	-0.6269825481	 0.7519955628	 0.260061
N	 1.9413789084	-1.1269373209	 1.3375639468	-0.339214
C	-1.3468455133	-0.8138858483	 0.0068383106	-0.147776
C	-2.5776652987	 0.0397347991	-0.2880864374	-0.264192
C	-2.4714708112	 0.2891185837	-1.8080940384	-0.081061
O	-1.0840877328	 0.0938326213	-2.1628328985	-0.270199
C	-0.5096541723	-0.7788177705	-1.2339786427	 0.003122
H	-0.0508051966	 1.6003138555	-0.9374283018	 0.302262
H	-1.4242416539	-1.7042420863	 0.6175269111	 0.124558
H	-3.4952755997	-0.4918207316	-0.0283378633	 0.118684
H	-2.5473106985	 0.9766507126	 0.2730605866	 0.137211
H	-3.0849447091	-0.4234952232	-2.3743066899	 0.115705
H	-2.7451151639	 1.3030887902	-2.1079763289	 0.123908
H	 0.0357919375	-1.6179002859	-1.6508288621	 0.128088
109.3883	131.8089	169.3253	223.1027	270.88	396.8338	442.3439	462.957	564.5121	597.8966	666.5906	719.2949	756.9157	831.154	862.1186	872.6523	936.9522	956.6725	1016.6453	1050.0453	1069.7344	1115.2002	1129.8441	1153.0341	1226.2533	1242.9849	1260.7213	1288.1571	1313.7827	1364.5812	1395.8652	1397.7101	1484.4038	1519.5059	2350.021	3024.0391	3074.6474	3106.1239	3126.5685	3178.3778	3200.2375	3731.2834
OC1(C#N)C2CCOC12	O[C@@]1(C#N)[C@H]2CCO[C@@H]12	
InChI=1S/C6H7NO2/c7-3-6(8)4-1-2-9-5(4)6/h4-5,8H,1-2H2	InChI=1S/C6H7NO2/c7-3-6(8)4-1-2-9-5(4)6/h4-5,8H,1-2H2/t4-,5+,6-/m0/s1
