16
gdb 56623	1.98944	1.36239	1.0102	3.4064	73.24	-0.2764	-0.0401	0.2363	1212.9387	0.123484	-434.104233	-434.094898	-434.093954	-434.139114	32.454	
C	 0.2035798144	 1.1407385581	-0.3430109284	-0.393202
C	-0.1451441513	-0.2573034175	 0.1956969439	-0.119504
C	 0.4415477064	-0.4849374012	 1.5232525223	 0.277303
N	 0.9316425855	-0.643794598	 2.5573218646	-0.313283
N	-1.5946283449	-0.5073614067	 0.209215029	-0.089638
C	-2.1661607328	-1.1505019214	-0.8889721698	 0.100824
N	-1.4536398012	-1.5214964249	-1.8720741372	-0.47006
C	-2.4077871952	-0.0570137448	 1.2436886518	 0.164746
O	-3.6075325096	-0.178555531	 1.268002597	-0.307276
H	 1.2880546572	 1.2699651031	-0.380336228	 0.148256
H	-0.1990208799	 1.2398350881	-1.3530796939	 0.15441
H	-0.2185653667	 1.9234096565	 0.2924044433	 0.139715
H	 0.2656510712	-1.0071751353	-0.4873682772	 0.183644
H	-3.2429352832	-1.2674349878	-0.7651445982	 0.157177
H	-2.0253303177	-1.9835502939	-2.5757403909	 0.242859
H	-1.8267485123	 0.4204963568	 2.0503568516	 0.124031
37.3776	114.3238	161.517	187.3949	222.8323	235.5287	255.8162	277.0012	336.7292	427.0186	477.4091	571.566	632.5859	699.6061	825.4277	836.8816	894.7953	1009.4505	1032.8144	1081.6356	1089.0253	1122.0575	1150.2086	1245.9491	1324.7968	1338.5039	1389.4676	1407.8761	1419.1779	1456.3548	1490.324	1492.1557	1712.5246	1813.2484	2361.6387	3001.9957	3054.6131	3075.9117	3134.9056	3141.2632	3145.3221	3518.2651
CC(C#N)N(C=N)C=O	C[C@@H](C#N)N(C=N)C=O	
InChI=1S/C5H7N3O/c1-5(2-6)8(3-7)4-9/h3-5,7H,1H3	InChI=1S/C5H7N3O/c1-5(2-6)8(3-7)4-9/h3-5,7H,1H3/t5-/m0/s1
