18
gdb 17524	4.48274	1.68314	1.56428	1.5407	71.01	-0.2421	0.0676	0.3097	875.6924	0.1547	-347.745262	-347.738171	-347.737227	-347.776485	27.938	
O	-0.0683777794	 1.4131930427	 0.0399569613	-0.423219
C	 0.0406671544	-0.0044693801	-0.0082590642	-0.213132
C	-1.350250831	-0.5676324769	 0.0064715047	 0.360074
C	-2.2686465259	-0.4197523191	 1.2553703168	-0.259299
C	-2.9460362848	-1.7009098563	 0.777489298	-0.061268
C	-2.9823075289	-1.6516653871	-0.7594225503	-0.061263
C	-2.3262543163	-0.3415404072	-1.1857478279	-0.259311
C	-1.739213305	-2.1075904157	-0.0336972423	-0.151944
H	 0.8191579427	 1.7831428872	 0.0322823613	 0.288245
H	 0.5662801552	-0.3338075606	-0.9201888624	 0.083154
H	 0.6081994354	-0.3909814837	 0.8547827767	 0.083161
H	-1.7104955514	-0.5859769087	 2.181909551	 0.090984
H	-2.8571404721	 0.5002920069	 1.3387247717	 0.093496
H	-3.6179675505	-2.3495594171	 1.3251823256	 0.080896
H	-3.6802833577	-2.2649514318	-1.3152240054	 0.080897
H	-2.9166338013	 0.5810630651	-1.1822486207	 0.093496
H	-1.8126315039	-0.4473093145	-2.1462897705	 0.090998
H	-1.1634758598	-3.0210463833	-0.0765505634	 0.084035
85.4136	168.29	243.1313	315.6914	369.2252	437.7791	449.4892	657.9144	716.9904	752.5482	780.6296	801.4714	906.8758	915.2516	933.484	941.7911	980.9457	997.2753	1005.4709	1027.8755	1040.613	1065.728	1098.6132	1113.0204	1145.4161	1173.1298	1175.0495	1210.6098	1243.1643	1264.8552	1265.204	1314.7757	1330.8624	1369.2933	1466.9175	1491.2508	1508.1336	1517.8604	2953.3976	2980.0861	3033.5292	3040.3433	3089.7745	3093.4656	3188.6771	3195.1716	3218.957	3829.8286
OCC12CC3C(C1)C23	OC[C@@]12C[C@H]3[C@@H](C1)[C@@H]23	
InChI=1S/C7H10O/c8-3-7-1-4-5(2-7)6(4)7/h4-6,8H,1-3H2	InChI=1S/C7H10O/c8-3-7-1-4-5(2-7)6(4)7/h4-6,8H,1-3H2/t4-,5+,6-,7+
