23
gdb 92201	2.89464	1.59407	1.32457	0.2414	87.4	-0.2624	0.075	0.3373	1082.9973	0.208984	-351.149689	-351.142064	-351.14112	-351.181451	31.894	
C	-0.3024296008	 1.5519832868	-0.0013687552	-0.406444
C	 0.0234826889	 0.0581560257	 0.0020440725	 0.045808
C	 0.8507638079	-0.4225149623	-1.2188590563	-0.244141
C	 1.6815741139	-1.6408013528	-0.7431366303	-0.012403
C	 3.1899239825	-1.3574341938	-0.4526249013	-0.234209
C	 2.8843050788	-1.2316201976	 1.0554636214	-0.012629
C	 2.2443322401	 0.1228668167	 1.4763039698	-0.251445
C	 0.8066560583	-0.4486786387	 1.2211951252	-0.013989
C	 1.4441161149	-1.7961909531	 0.8009283027	-0.048003
H	 0.6101843443	 2.1583816912	 0.0178165589	 0.114157
H	-0.8644771843	 1.8329503987	-0.8985823475	 0.110646
H	-0.9065770263	 1.830806813	 0.8688527565	 0.108488
H	-0.9265193481	-0.4963330667	-0.0013563161	 0.066272
H	 0.199308966	-0.6707629273	-2.0624882321	 0.091895
H	 1.5131855367	 0.3785206768	-1.5689745092	 0.091473
H	 1.5028991655	-2.5281626102	-1.3528009599	 0.062748
H	 3.8116219051	-2.2329356961	-0.66239565	 0.093649
H	 3.6375600477	-0.4898771216	-0.9511475776	 0.085023
H	 3.5982574633	-1.6675732718	 1.7555518019	 0.056708
H	 2.4146083461	 0.3652883733	 2.5279759919	 0.09783
H	 2.5421341428	 0.9920212262	 0.8809205677	 0.090096
H	 0.1932561777	-0.4646337579	 2.1258643831	 0.057141
H	 1.0671053991	-2.7424539186	 1.188592834	 0.051329
95.6587	208.985	224.825	284.1132	324.7317	394.3561	475.6145	540.8408	624.077	631.1792	730.7743	787.3603	803.8146	853.4373	869.1822	878.347	916.8823	917.9176	941.4974	948.9691	963.8946	1010.6362	1037.6632	1054.1705	1064.4512	1074.7902	1130.4302	1147.4924	1161.4156	1172.3935	1182.2591	1209.9208	1232.9379	1250.603	1257.9614	1268.3702	1287.4769	1298.602	1311.3213	1322.1689	1328.6648	1359.3907	1374.8497	1408.7962	1474.1097	1482.193	1496.2431	1497.8094	1505.2374	2989.3618	3025.202	3029.1323	3031.9082	3045.2438	3064.8721	3068.6365	3079.0071	3087.6893	3092.2044	3092.5866	3093.4918	3102.2604	3113.0127
CC1CC2CC3CC1C23	C[C@H]1C[C@H]2C[C@H]3C[C@@H]1[C@@H]23	
InChI=1S/C9H14/c1-5-2-6-3-7-4-8(5)9(6)7/h5-9H,2-4H2,1H3	InChI=1S/C9H14/c1-5-2-6-3-7-4-8(5)9(6)7/h5-9H,2-4H2,1H3/t5-,6-,7-,8-,9-/m0/s1
