19
gdb 38861	2.77196	1.99387	1.85613	1.8444	72.89	-0.2378	0.0819	0.3196	867.0872	0.163681	-423.027357	-423.021072	-423.020128	-423.05765	26.947	
C	-0.049618111	 1.5274493128	 0.0883099153	-0.23997
C	 1.4886227801	 1.4136025538	-0.0680700154	 0.098983
O	 2.0586212009	 1.1310550993	 1.2156599547	-0.28837
C	 1.7352722796	-0.1961965395	 1.6121946609	 0.196631
C	 2.6110066662	-1.1879101484	 0.848543202	-0.220084
C	 2.3117670345	-1.0202366093	-0.6637169243	-0.242772
C	 1.2581324105	 0.0684811164	-0.8251502047	-0.049065
C	-0.0165926548	-0.0224525132	 0.0706533679	 0.098976
O	 0.3635604965	-0.486097276	 1.3718875227	-0.288367
H	-0.4184630597	 2.0020076837	 0.9988403284	 0.106138
H	-0.5315068756	 1.9468398403	-0.7989934844	 0.095599
H	 2.0713986361	 2.2197124499	-0.5178976361	 0.074284
H	 1.8842328549	-0.2479345008	 2.6928452958	 0.086072
H	 3.6597240692	-0.9817057027	 1.0801119895	 0.105239
H	 2.3836153035	-2.1990346739	 1.197648496	 0.105241
H	 3.2160229353	-0.7476435733	-1.2173873299	 0.10545
H	 1.9493395589	-1.9562761538	-1.1007629355	 0.105448
H	 0.9868215026	 0.2522178163	-1.8669166485	 0.076284
H	-0.8861484477	-0.6019493618	-0.2453233546	 0.074284
166.9357	325.1931	332.7587	405.9169	461.1644	525.8293	557.3156	666.8106	744.5058	792.5707	827.8255	834.3571	850.7397	871.8464	892.5411	910.9154	961.3645	969.6626	995.029	1044.9393	1048.0613	1095.437	1124.2214	1130.7094	1147.6376	1158.1738	1186.1146	1240.0877	1256.1712	1270.0941	1278.8573	1294.1796	1323.7494	1341.1569	1358.0472	1376.9545	1393.6572	1396.4464	1466.5033	1476.0181	1498.7863	3041.0939	3057.559	3063.1674	3074.7706	3084.9787	3090.8875	3093.6547	3100.0316	3105.2114	3137.0064
C1C2OC3CCC2C1O3	C1[C@H]2O[C@@H]3CC[C@H]2[C@H]1O3	
InChI=1S/C7H10O2/c1-2-7-8-5-3-6(9-7)4(1)5/h4-7H,1-3H2	InChI=1S/C7H10O2/c1-2-7-8-5-3-6(9-7)4(1)5/h4-7H,1-3H2/t4-,5-,6+,7+
