15
gdb 105444	2.3501	1.53975	1.21409	3.5087	65.53	-0.28	-0.0102	0.2698	1042.9095	0.112906	-453.957492	-453.949282	-453.948338	-453.990791	29.545	
O	 0.0435439266	 1.3685144459	 0.0468838516	-0.404902
C	-0.0330437398	-0.030890739	 0.0687040295	-0.091565
C	-1.4700959554	-0.5479637259	-0.1023430961	 0.163245
C	-1.6016420126	-2.0942483273	 0.1060759349	-0.234963
N	-2.3912428608	-2.2436473588	 1.3331272334	-0.244116
C	-2.6882793505	-1.076421228	 1.7122843907	 0.122222
O	-2.2594786153	 0.0010933531	 0.9949467563	-0.255824
C	-2.0618890389	-0.0870444787	-1.3631265747	 0.28043
N	-2.5144058203	 0.2273876272	-2.3780962409	-0.325072
H	-0.5297342972	 1.7019335604	 0.7470211097	 0.298992
H	 0.582784493	-0.4035102718	-0.7558348117	 0.137197
H	 0.3527061722	-0.4610592177	 1.0066986711	 0.108466
H	-2.1048566614	-2.5840811662	-0.7309156345	 0.151795
H	-0.6183948439	-2.5610108212	 0.2279348341	 0.134944
H	-3.2757891955	-0.8200309021	 2.5860705867	 0.159151
68.4157	112.4109	166.1023	184.9354	242.8799	369.727	409.0766	426.6003	504.942	514.5376	570.9031	690.4353	781.8269	871.3676	896.8989	941.3378	971.1092	983.3273	1045.5833	1087.3685	1122.0236	1135.751	1158.9696	1227.3728	1280.135	1318.9142	1334.2748	1389.2425	1421.415	1490.2369	1497.1278	1718.9324	2363.8249	2985.0231	3053.2499	3090.0923	3103.5134	3228.29	3801.7936
OCC1(CN=CO1)C#N	OC[C@]1(CN=CO1)C#N	
InChI=1S/C5H6N2O2/c6-1-5(3-8)2-7-4-9-5/h4,8H,2-3H2	InChI=1S/C5H6N2O2/c6-1-5(3-8)2-7-4-9-5/h4,8H,2-3H2/t5-/m1/s1
