18
gdb 77918	2.18101	1.51049	1.49269	1.8368	73.36	-0.2396	-0.0073	0.2323	1039.303	0.145592	-439.030868	-439.021984	-439.02104	-439.063959	33.484	
C	-0.0143727726	 1.446392218	-0.1437877219	-0.347719
N	-0.0325506553	-0.0038708795	 0.0607508845	-0.1624
C	-1.1798667333	-0.6122143325	 0.8641747551	-0.204637
C	-0.2276639594	-1.8376978704	 1.0530104252	 0.164182
O	 0.0507209294	-2.6290093047	-0.0521740519	-0.453008
C	 0.6934685719	-0.5856257097	 1.2942801666	 0.147237
C	 2.1764863345	-0.5259847638	 1.4735002718	-0.529972
C	-0.484892417	 0.0191049951	 2.0875669457	 0.402492
O	-0.6966312153	 0.7776661527	 2.9840290032	-0.324091
H	 0.9714218038	 1.7311004828	-0.5232559665	 0.131313
H	-0.7539573768	 1.6959777041	-0.9103275542	 0.132563
H	-0.2294537463	 2.039720535	 0.7568873045	 0.134022
H	-2.2092207517	-0.5785594325	 0.5130284145	 0.100909
H	-0.4169094579	-2.4829312138	 1.9111089098	 0.104725
H	 0.1926793974	-2.003387222	-0.7787243609	 0.288733
H	 2.6804575411	-1.1098312451	 0.6967540556	 0.138011
H	 2.5441562193	 0.5041060569	 1.4327354237	 0.135457
H	 2.452348738	-0.9411977006	 2.4475439052	 0.142183
134.6043	155.1871	184.1249	194.2091	206.5253	229.8634	280.1144	381.6947	412.8417	550.7712	572.2565	584.3536	670.4991	703.2684	732.3073	751.1177	803.6835	829.8216	872.6294	1007.7266	1070.0712	1096.9327	1115.6351	1130.2046	1164.0248	1169.9814	1194.8786	1200.3309	1221.1126	1304.0495	1349.8988	1413.7106	1446.2285	1460.516	1481.4366	1484.563	1495.3736	1502.1796	1896.7707	2998.3985	3038.4472	3083.0861	3109.2283	3112.7961	3113.9954	3123.8421	3149.4333	3722.9297
CN1C2C(O)C1(C)C2=O	CN1[C@H]2[C@@H](O)[C@]1(C)C2=O	
InChI=1S/C6H9NO2/c1-6-4(8)3(5(6)9)7(6)2/h3-4,8H,1-2H3	InChI=1S/C6H9NO2/c1-6-4(8)3(5(6)9)7(6)2/h3-4,8H,1-2H3/t3-,4+,6+/m0/s1
