13
gdb 21594	3.40701	1.9385	1.23723	6.0143	64.1	-0.2175	-0.0423	0.1752	896.124	0.097225	-394.80017	-394.793025	-394.792081	-394.831579	25.982	
N	 0.0070285327	 1.4223758832	 0.1535958179	-0.608535
C	 0.002185849	 0.0319413131	 0.038233121	 0.128149
C	-1.0926926866	-0.8109583733	 0.0189983021	-0.099638
N	-0.5847529247	-2.0784899805	-0.0237021005	-0.167089
N	 0.7355550859	-2.1345828263	-0.0379783651	-0.257569
C	 1.128391204	-0.8475560509	 0.0037236722	 0.210973
C	 2.5421089411	-0.4728248016	 0.0173055434	 0.091587
O	 3.4815001181	-1.2327867464	-0.026313599	-0.269847
H	 0.7952029763	 1.8695801545	-0.2925111306	 0.25522
H	-0.8528869104	 1.8578577713	-0.149855674	 0.25001
H	-2.1528614622	-0.6177272094	 0.0353241149	 0.133325
H	-1.1073732751	-2.9391470002	-0.0478911395	 0.283541
H	 2.7092385818	 0.6286593965	 0.078669027	 0.049873
134.6994	169.5521	193.8823	239.725	341.8015	351.8183	542.7978	561.862	636.4815	662.5628	687.745	710.5064	759.9767	836.0349	951.1539	1027.7095	1075.1785	1101.9308	1192.4508	1284.6546	1348.3034	1380.2901	1428.1188	1484.9458	1526.2941	1611.5291	1662.6669	1799.9839	2841.656	3267.7878	3557.9993	3648.3834	3656.4848
NC1=CNN=C1C=O	Nc1c[nH]nc1C=O	
InChI=1S/C4H5N3O/c5-3-1-6-7-4(3)2-8/h1-2H,5H2,(H,6,7)	InChI=1S/C4H5N3O/c5-3-1-6-7-4(3)2-8/h1-2H,5H2,(H,6,7)
