21
gdb 62694	3.08296	1.61714	1.37126	0.8636	89.13	-0.2055	-0.0268	0.1786	1040.1091	0.182068	-349.862257	-349.854266	-349.853322	-349.893886	33.171	
C	 0.2068073307	 1.4082088977	 0.3020519473	-0.448487
C	-0.0239852593	-0.0857799075	 0.1151081442	 0.284074
C	-1.5214986329	-0.4057339171	 0.0944111398	-0.430189
C	 0.6865353135	-0.827656468	-1.0990602438	-0.086395
C	 2.1367893239	-1.4478107617	-0.9266926132	-0.063562
C	 3.1147537177	-1.0712225307	 0.2024998631	-0.263459
C	 2.1029745771	-0.6568466794	 1.2679862961	-0.122481
C	 0.8727678894	-1.0753879559	 0.9075284192	 0.011923
C	 0.9459341461	-2.0533446016	-0.2800350076	-0.112477
H	 1.2631857063	 1.6702585431	 0.2036923165	 0.113817
H	-0.3572474115	 1.9739194464	-0.4483150443	 0.110986
H	-0.1367567076	 1.7423415203	 1.2877993018	 0.117151
H	-2.021106899	 0.1063047624	-0.7361841664	 0.108128
H	-1.7016911197	-1.478964823	-0.0089716222	 0.116953
H	-1.9944990388	-0.0697166618	 1.0232809761	 0.116117
H	 0.2747107199	-0.806897532	-2.1072575433	 0.081379
H	 2.5214830321	-1.8593868085	-1.8591007344	 0.075482
H	 3.7778012868	-1.9199661353	 0.4258655556	 0.105732
H	 3.7624057637	-0.2124799443	-0.0147918555	 0.105941
H	 2.2674910632	 0.2511161342	 1.8401355645	 0.094075
H	 0.5437500084	-3.0549066875	-0.3544578134	 0.085293
170.3718	204.8964	226.9999	251.8498	329.3193	346.9647	357.4593	445.2933	494.3959	590.1953	639.4633	717.4962	743.8065	785.1799	808.5345	828.7647	860.7985	897.4408	931.8693	944.9573	948.8205	983.8696	991.8967	997.9083	1010.8931	1063.2971	1073.9057	1098.2079	1163.3939	1170.8244	1207.0482	1224.279	1237.0282	1271.5624	1278.3209	1305.3841	1373.0557	1398.0545	1414.9989	1475.7452	1478.4728	1484.1762	1500.6726	1501.437	1587.0877	2994.4273	3025.2474	3030.6238	3044.205	3085.9809	3092.3965	3111.5985	3113.7603	3114.767	3125.0979	3168.7725	3195.5054
CC1(C)C2C3CC=C1C23	CC1(C)[C@H]2[C@H]3C[CH][C]1[C@@H]23	
InChI=1S/C9H12/c1-9(2)6-4-3-5-7(6)8(5)9/h4-5,7-8H,3H2,1-2H3	InChI=1S/C9H12/c1-9(2)6-4-3-5-7(6)8(5)9/h4-5,7-8H,3H2,1-2H3/t5-,7-,8-/m0/s1
