15
gdb 45006	2.52748	1.84266	1.23033	3.5359	67.36	-0.2756	-0.0202	0.2554	981.6733	0.11376	-453.963405	-453.956123	-453.955178	-453.995899	27.344	
N	-0.1060237463	 1.3389816006	 0.2070940662	-0.48527
C	-0.0546042893	 0.103428693	-0.0300396012	 0.381289
C	-1.2603068249	-0.7884619571	-0.0305346305	-0.297712
C	-1.1715177981	-1.8423983202	-1.1080343847	-0.014921
C	-0.6571108607	-1.5325120828	-2.4608872301	-0.259917
N	 0.1604902549	-2.326997215	-1.50497636	-0.176523
C	 1.3120741207	-1.6922850784	-0.9886605909	 0.441593
O	 2.4160497904	-2.1008068383	-1.1661109407	-0.299835
O	 1.1576225255	-0.5350057846	-0.2382866777	-0.244021
H	 0.8310590292	 1.747216566	 0.1938946608	 0.237432
H	-1.3130538443	-1.288245409	 0.9455207379	 0.147353
H	-2.154171959	-0.1703271134	-0.1316463723	 0.153996
H	-1.8871984039	-2.655153154	-1.0156437108	 0.1216
H	-0.9954570507	-2.0915228833	-3.3267538259	 0.145577
H	-0.3399033436	-0.5129006835	-2.6651431403	 0.149358
53.8174	98.6729	238.3123	333.9706	379.9585	471.1133	492.0654	527.555	572.8656	682.3829	750.906	761.4361	832.2273	880.1517	929.2765	938.1216	965.8058	985.1954	1060.6211	1077.6236	1081.5307	1123.7299	1132.8878	1181.3026	1229.0079	1305.7242	1340.3799	1347.7307	1424.3839	1468.7808	1510.0286	1770.9274	1883.4154	3034.8166	3118.4221	3121.4296	3144.6334	3212.7229	3471.0849
N=C1CC2CN2C(=O)O1	[NH][C]1C[C@H]2CN2C(=O)O1	
InChI=1S/C5H6N2O2/c6-4-1-3-2-7(3)5(8)9-4/h3,6H,1-2H2	InChI=1S/C5H6N2O2/c6-4-1-3-2-7(3)5(8)9-4/h3,6H,1-2H2/t3-,7?/m0/s1
