19
gdb 81146	2.51286	1.62944	1.21767	3.0509	79.66	-0.2476	0.0197	0.2673	1070.7012	0.16171	-382.057491	-382.049609	-382.048665	-382.089651	30.985	
C	-0.1327460526	 1.5277554036	-0.0393171598	-0.434793
C	 0.0269221144	 0.0209031169	 0.0136976709	 0.033535
N	 1.1116566584	-0.5526308909	-0.8886959207	-0.135121
C	 2.0684188566	-0.3014275149	 0.2546562905	-0.226591
C	 0.8588875417	-0.6224862063	 1.1809194332	 0.216597
C	 0.6584334902	-2.1224959142	 0.8679222217	-0.284166
C	 0.8610411057	-2.0091124023	-0.6870089428	-0.177833
C	 0.7639802137	-0.1859214059	 2.554721452	 0.154482
N	 0.6848974548	 0.1942768328	 3.6445178497	-0.344302
H	 0.795971396	 2.0712935947	 0.1462484354	 0.12987
H	-0.5020003844	 1.8200871889	-1.0265418802	 0.135981
H	-0.8631545631	 1.8497442917	 0.7093666921	 0.137198
H	-0.9459040775	-0.4533423212	-0.1552721171	 0.082622
H	 2.9302349631	-0.9719444322	 0.2956995437	 0.114367
H	 2.3978963769	 0.7350086893	 0.2816517151	 0.128747
H	 1.403121326	-2.7513383713	 1.3610377876	 0.11926
H	-0.3357605437	-2.4738256037	 1.1534522947	 0.119682
H	-0.0219305405	-2.3125565071	-1.2534840727	 0.115443
H	 1.7173441044	-2.5841426479	-1.0455832133	 0.115022
124.6413	152.5228	178.2075	278.9467	291.8482	346.5942	484.4918	489.3055	531.7434	542.603	591.4357	683.5826	793.1321	829.3751	845.3332	870.1671	894.6424	928.1279	990.6862	995.9069	1029.1636	1075.8816	1099.0684	1123.9883	1164.8877	1175.8835	1202.3328	1223.0807	1234.2248	1255.7038	1268.6258	1306.4166	1326.5147	1398.4613	1418.9699	1486.304	1491.0978	1498.3751	1510.5426	1532.5054	2346.6395	3045.4882	3049.7516	3068.4075	3074.8978	3081.1092	3112.1165	3116.1278	3128.4557	3131.2455	3162.9795
CC1N2CC1(CC2)C#N	C[C@H]1N2C[C@@]1(CC2)C#N	
InChI=1S/C7H10N2/c1-6-7(4-8)2-3-9(6)5-7/h6H,2-3,5H2,1H3	InChI=1S/C7H10N2/c1-6-7(4-8)2-3-9(6)5-7/h6H,2-3,5H2,1H3/t6-,7-/m1/s1
