23
gdb 89417	2.62234	1.43269	1.15022	1.2614	85.	-0.2212	0.0799	0.3011	1203.3484	0.205087	-388.294548	-388.285154	-388.28421	-388.328051	36.873	
C	 0.6108818362	 1.447893903	-0.3323488922	-0.395256
C	 0.0536640601	 0.0837377288	 0.0756906169	 0.103383
O	 0.1118969025	-0.8203670726	-1.0407009279	-0.313274
C	 0.997191756	-1.8866588304	-0.7842175394	 0.446792
C	 0.6048310025	-3.1394478786	-1.5153488713	-0.463854
C	 2.4379209318	-1.5182156871	-0.5136155736	-0.359894
C	 1.4749840325	-1.8058091424	 0.6315141077	-0.114791
C	 0.7476882893	-0.6374957058	 1.281226316	-0.018625
C	 1.6155497356	 0.2429722938	 2.1856622775	-0.398508
H	 1.6804182713	 1.4167224879	-0.555849937	 0.118299
H	 0.0907913693	 1.7893158006	-1.2316840116	 0.123703
H	 0.4470911768	 2.1888983882	 0.4565361582	 0.11132
H	-1.0112195641	 0.2221685422	 0.3039867041	 0.077974
H	 0.6116004062	-2.9728965152	-2.5976997296	 0.12623
H	 1.3026588028	-3.9513704415	-1.2923171956	 0.113614
H	-0.4032520842	-3.4562125442	-1.2284359646	 0.119744
H	 3.1955943387	-2.2697445208	-0.7123393612	 0.107245
H	 2.7617460735	-0.5009173909	-0.7009930575	 0.111387
H	 1.6374064164	-2.6986910183	 1.2263080196	 0.083202
H	-0.0463848966	-1.0686881937	 1.9035843853	 0.076875
H	 2.4658878368	 0.6678217977	 1.6449809981	 0.118146
H	 1.0415534659	 1.0690433109	 2.6181301431	 0.112956
H	 2.0155563107	-0.3489793217	 3.015053055	 0.113331
84.2448	142.6144	204.4761	232.8666	239.8845	262.6978	277.7535	336.8535	387.219	438.9122	440.5879	497.6239	601.086	679.5486	726.4468	745.3075	829.1045	856.4408	886.2261	945.9781	969.7712	987.0542	1003.0478	1028.9428	1037.8704	1043.394	1078.9175	1097.7058	1123.7886	1134.3776	1153.0712	1183.3949	1248.8324	1269.0475	1324.1594	1354.5731	1369.9954	1389.3281	1393.237	1409.0197	1414.5376	1429.9607	1476.9139	1481.3652	1486.2373	1491.7668	1502.4642	1505.5048	1509.9492	3001.7753	3025.0364	3034.6122	3036.292	3043.8064	3098.4529	3098.7305	3112.5026	3114.5366	3115.3675	3122.2507	3130.1102	3157.7846	3217.4368
CC1OC2(C)CC2C1C	C[C@H]1O[C@@]2(C)C[C@H]2[C@H]1C	
InChI=1S/C8H14O/c1-5-6(2)9-8(3)4-7(5)8/h5-7H,4H2,1-3H3	InChI=1S/C8H14O/c1-5-6(2)9-8(3)4-7(5)8/h5-7H,4H2,1-3H3/t5-,6+,7-,8-/m0/s1
