17
gdb 67835	2.61155	2.08404	1.60883	2.159	73.21	-0.2258	0.0016	0.2275	883.6551	0.13625	-421.741922	-421.735057	-421.734113	-421.772538	28.976	
O	 0.3673767625	 1.4259733922	 0.1782626127	-0.475419
C	 0.1255036076	 0.0475592012	 0.0345151218	 0.407378
C	 0.6790792693	-0.5285456288	-1.2438962377	-0.203677
C	-0.3228025826	-0.875948987	-2.0656781253	-0.042207
C	-1.7224091482	-0.782540722	-1.4391442504	-0.411084
C	-1.3147317351	-0.5543358987	-0.0048637531	 0.352437
C	-1.588635653	 0.0032355228	 1.4103766159	-0.321821
C	-0.1672597701	-0.6704431166	 1.3819076609	-0.015725
O	-0.7504935886	-1.7816177855	 0.6330441419	-0.337147
H	 0.3597151189	 1.8204721801	-0.7008611707	 0.279702
H	 1.730010532	-0.5305511822	-1.5108271083	 0.09985
H	-0.1861072295	-1.2357036216	-3.0804863121	 0.103238
H	-2.3127008925	 0.037450824	-1.8657482662	 0.11842
H	-2.2958821856	-1.7059836749	-1.5691145626	 0.131589
H	-1.6447979945	 1.0854007397	 1.5267291123	 0.116348
H	-2.3252091195	-0.5444750048	 1.9987934493	 0.106805
H	 0.4884386389	-0.9066396479	 2.2217712316	 0.091313
224.073	257.051	305.9	354.103	362.2346	468.6763	480.0435	519.8058	623.9996	640.2943	714.1128	753.5515	778.2146	819.0543	840.815	890.8391	926.0767	958.8355	965.1605	986.0979	1022.7909	1043.4032	1083.9691	1110.2531	1134.7642	1169.1057	1181.2665	1188.6269	1211.1837	1241.0364	1257.6834	1323.829	1355.5286	1380.3876	1461.4403	1475.8513	1632.459	3038.1298	3084.4812	3085.1695	3105.0321	3168.1303	3179.178	3203.5076	3800.8136
OC12C=CCC11CC2O1	O[C@]12C=CC[C@@]31C[C@H]2O3	
InChI=1S/C7H8O2/c8-7-3-1-2-6(7)4-5(7)9-6/h1,3,5,8H,2,4H2	InChI=1S/C7H8O2/c8-7-3-1-2-6(7)4-5(7)9-6/h1,3,5,8H,2,4H2/t5-,6+,7+/m1/s1
