18
gdb 97086	2.72868	1.26781	1.04122	3.7451	75.65	-0.2459	-0.0363	0.2096	1210.2659	0.146583	-439.110561	-439.101504	-439.10056	-439.145662	31.728	
C	 0.1571974894	 1.4155441785	-0.0545116253	-0.333117
N	-0.0781969303	 0.0161781695	 0.260820326	-0.32527
C	 0.6782351402	-0.5885137885	 1.0587574589	 0.453481
C	 0.5321309214	-2.029755988	 1.4997026729	-0.319742
C	 1.9209807086	-2.3726152256	 2.055965919	-0.260937
C	 2.405020254	-0.9802239944	 2.5334640761	 0.004507
O	 1.7921336146	-0.0406744479	 1.6669667711	-0.233998
C	 2.0007225049	-0.7493917754	 3.9839950847	 0.152523
O	 1.0807808224	-0.0628817541	 4.335725576	-0.228792
H	 0.2097971703	 1.5299348104	-1.1429235365	 0.122171
H	-0.70254287	 2.0051796651	 0.2840101542	 0.12889
H	 1.0651884886	 1.835807213	 0.3913491016	 0.123556
H	-0.232939061	-2.0868391884	 2.2814138309	 0.144472
H	 0.2125916099	-2.6625460428	 0.672098006	 0.138667
H	 1.9064257147	-3.114704281	 2.8578233826	 0.11967
H	 2.5844061195	-2.7385160338	 1.2680262071	 0.126703
H	 3.492781399	-0.8686369213	 2.4554664979	 0.108037
H	 2.6282143236	-1.3151505051	 4.712640227	 0.079178
48.0813	68.7461	80.7912	159.0726	216.2685	251.8653	285.5496	341.7415	483.9916	567.9214	621.3338	663.1674	776.962	802.7761	830.3612	900.97	921.1873	960.6953	1016.3005	1040.1403	1077.2908	1100.895	1134.6196	1148.5673	1162.1861	1204.5053	1216.7584	1274.2052	1314.5335	1334.6769	1376.0316	1414.7765	1439.6313	1474.3695	1495.3505	1496.2254	1499.7802	1816.5519	1847.244	2857.3047	3019.8163	3046.6687	3059.9675	3068.864	3079.0508	3091.9011	3113.634	3138.957
CN=C1CCC(O1)C=O	CN=C1CC[C@@H](O1)C=O	
InChI=1S/C6H9NO2/c1-7-6-3-2-5(4-8)9-6/h4-5H,2-3H2,1H3	InChI=1S/C6H9NO2/c1-7-6-3-2-5(4-8)9-6/h4-5H,2-3H2,1H3/t5-/m1/s1
