16
gdb 46233	2.68933	1.38648	1.11281	2.4834	77.71	-0.2322	-0.0314	0.2008	1115.2261	0.122395	-400.688076	-400.679606	-400.678662	-400.721413	31.695	
O	-0.0143859769	 0.046446476	-0.2103966146	-0.295277
C	-0.0319327936	 1.2251914825	-0.0201692799	 0.333496
C	-1.0992068251	 2.2702864753	 0.3637649715	-0.282381
N	-0.0071144589	 3.289593338	 0.4769826814	-0.383802
C	 0.9922469047	 2.3305853338	-0.0190905267	 0.232716
C	 2.4382018256	 2.2572514371	 0.3563632583	-0.323986
C	 2.0679352411	 2.599065329	-1.0755837983	-0.288113
C	 2.2919129708	 1.6817603618	-2.1512805429	 0.351057
C	 2.4827774476	 0.9179309366	-3.0601418431	-0.447895
H	-1.8314198789	 2.4488700663	-0.43235815	 0.132427
H	-1.6277349766	 2.0839513829	 1.3034879029	 0.139258
H	-0.1468075432	 4.0740679187	-0.1513005053	 0.228417
H	 2.8273831487	 3.0601550937	 0.9726014699	 0.13424
H	 2.8465436511	 1.2702772774	 0.5440044825	 0.147695
H	 2.1626567746	 3.6516358894	-1.3347430989	 0.120743
H	 2.645448379	 0.2338057715	-3.8555950668	 0.201404
82.8641	91.8658	140.783	225.1128	234.342	338.9297	445.4051	470.4464	514.3271	559.5026	596.7306	647.996	656.7823	701.9553	761.8864	788.9381	860.2973	915.2062	956.5386	971.6291	1027.0355	1038.6446	1072.6415	1078.9335	1121.7739	1137.9026	1204.6461	1275.0593	1307.787	1364.8381	1391.2124	1460.0665	1476.1802	1907.2066	2238.892	3038.1229	3093.2456	3128.1692	3136.6857	3235.4137	3504.7386	3524.3361
O=C1CNC11CC1C#C	O=C1CN[C@]21C[C@H]2C#C	
InChI=1S/C7H7NO/c1-2-5-3-7(5)6(9)4-8-7/h1,5,8H,3-4H2	InChI=1S/C7H7NO/c1-2-5-3-7(5)6(9)4-8-7/h1,5,8H,3-4H2/t5-,7-/m1/s1
