20
gdb 32433	3.09101	1.1871	0.87259	0.8564	84.16	-0.166	0.0626	0.2287	1347.4066	0.171293	-399.354722	-399.344495	-399.343551	-399.389855	37.11	
C	 0.0640076936	 1.4166635009	 0.0585661842	-0.317298
N	-0.0871972801	-0.0241476697	-0.0155903886	-0.383031
C	 0.5764190582	-0.6795630575	-1.0636473333	 0.217748
C	 1.1634521419	-0.1123377669	-2.1776856129	-0.185208
N	 1.6251312924	-1.1470774104	-2.9649352288	-0.267312
C	 1.3547643266	-2.3493348474	-2.3698847608	 0.17285
N	 1.7556417319	-3.5390710306	-3.0281730332	-0.613363
C	 0.6970787474	-2.1013810408	-1.1786995623	 0.151906
C	 0.1903860623	-3.1126048044	-0.1992650611	-0.524901
H	 1.1148881539	 1.7531934267	 0.0857705783	 0.100784
H	-0.4083545883	 1.8796481296	-0.8155094542	 0.126299
H	-0.445983354	 1.7909459423	 0.9499464919	 0.114284
H	 0.0829256643	-0.4713924424	 0.8754411302	 0.225697
H	 1.2803813322	 0.9152042546	-2.4756811115	 0.105804
H	 2.0953324275	-1.0654289948	-3.8486166426	 0.253408
H	 2.3926159401	-4.0875787196	-2.4593913165	 0.240002
H	 0.9625108474	-4.1348031991	-3.2440490097	 0.240816
H	 0.7055248918	-3.0572126437	 0.7703437323	 0.111463
H	-0.8798332537	-2.981999788	 0.0037801602	 0.127157
H	 0.3349418146	-4.1294470088	-0.5782820517	 0.102895
71.052	84.8214	140.5966	160.2544	181.3413	222.6462	250.925	276.6555	316.5486	347.9511	460.552	522.9673	554.4688	621.6913	639.1573	650.44	713.9729	750.3684	771.2726	815.0025	940.7287	1056.6224	1063.0711	1087.5594	1127.4157	1157.7677	1182.7679	1208.4887	1222.0159	1269.9785	1342.6626	1407.1819	1414.8783	1455.7508	1477.49	1482.7139	1487.6784	1501.4428	1510.4502	1522.502	1573.6847	1637.6012	1667.4092	2953.5584	3000.4195	3047.4249	3052.8794	3092.0929	3109.7908	3276.9184	3494.9389	3557.3452	3560.5882	3692.583
CNC1=CNC(N)=C1C	CNc1c[nH]c(N)c1C	
InChI=1S/C6H11N3/c1-4-5(8-2)3-9-6(4)7/h3,8-9H,7H2,1-2H3	InChI=1S/C6H11N3/c1-4-5(8-2)3-9-6(4)7/h3,8-9H,7H2,1-2H3
