21
gdb 78233	2.31256	1.55201	1.25349	1.6887	84.08	-0.2172	0.0152	0.2324	1134.7207	0.182599	-387.092235	-387.083405	-387.082461	-387.125069	34.831	
C	-0.2476041751	 1.6025857026	 0.0707715521	-0.401469
C	 0.0268467092	 0.0903437134	-0.0012846471	-0.023779
C	 0.8801978643	-0.3612850109	-1.1736397127	-0.218929
C	 1.8570027703	-1.2092954109	-0.8203610938	 0.308014
C	 2.835353674	-1.8997989238	-1.7194749988	-0.49728
C	 1.903401793	-1.3773562725	 0.6673526081	-0.204987
C	 2.2218819877	-0.1004135441	 1.4202722538	 0.1265
O	 2.8442620452	 0.9971049649	 0.8236924789	-0.424405
C	 0.7788192514	-0.4806789458	 1.2077472307	-0.120139
H	 0.6793260026	 2.165160924	 0.2018472712	 0.134564
H	-0.7468647882	 1.9531404747	-0.8389945563	 0.106559
H	-0.9014204468	 1.8336169587	 0.9178289999	 0.113902
H	-0.948181691	-0.4155627647	-0.0758409428	 0.083362
H	 0.6810451061	-0.0372030207	-2.1907035652	 0.086898
H	 2.666862944	-1.6473840363	-2.7697944994	 0.123635
H	 3.8683373278	-1.6367294332	-1.4608440101	 0.133403
H	 2.7576320268	-2.9895279487	-1.615901615	 0.129167
H	 2.1695690892	-2.3391365874	 1.0946625186	 0.080763
H	 2.5992720292	-0.2262345566	 2.4301457844	 0.104429
H	 2.6940504072	 0.9259668986	-0.1288018826	 0.278479
H	 0.2025830833	-0.7716875715	 2.079393706	 0.081314
140.1813	166.2208	179.125	193.4082	240.7295	278.7147	330.0578	392.9553	431.3782	474.4061	577.6944	587.9717	648.611	733.1947	748.0041	770.5448	843.3904	856.2978	900.9048	965.1255	1005.7236	1017.3034	1026.4562	1039.5673	1052.136	1072.0291	1104.3208	1112.1771	1131.7839	1179.3717	1203.0395	1263.6436	1297.3705	1321.6181	1347.8793	1365.9168	1367.3851	1409.8261	1413.8638	1451.7083	1478.3795	1489.4666	1498.2714	1509.0747	1694.4889	2976.3082	3020.2338	3036.7373	3067.8182	3097.9549	3112.8356	3131.4116	3151.6706	3158.4844	3171.242	3177.4874	3737.967
CC1C=C(C)C2C(O)C12	C[C@H]1C=C(C)[C@H]2[C@@H](O)[C@@H]12	
InChI=1S/C8H12O/c1-4-3-5(2)7-6(4)8(7)9/h3-4,6-9H,1-2H3	InChI=1S/C8H12O/c1-4-3-5(2)7-6(4)8(7)9/h3-4,6-9H,1-2H3/t4-,6-,7+,8-/m0/s1
