15
gdb 12337	3.21896	2.24874	1.40091	3.2855	63.5	-0.2599	-0.004	0.2559	849.3047	0.119798	-399.809232	-399.802213	-399.801269	-399.840621	26.654	
O	 0.449770691	 0.8768638714	 0.7022290734	-0.440176
C	-0.0594496711	-0.2123805481	-0.0144501302	 0.025837
C	-1.5315527192	-0.0658914432	-0.3073387766	-0.078578
C	-2.068970629	-0.7929361251	-1.279952799	-0.097563
C	-1.1921761501	-1.7069444327	-2.0847826431	-0.122768
O	 0.1504953121	-1.2055720822	-2.2587678506	-0.245352
C	 0.6942753012	-0.402842689	-1.3241755973	 0.383439
N	 1.7976578564	 0.200269678	-1.4774537279	-0.549719
H	 1.2807077036	 1.1056232995	 0.2517158067	 0.297425
H	 0.0815695785	-1.1461477257	 0.5666257425	 0.103631
H	-2.0920751381	 0.6270127472	 0.3099777393	 0.120318
H	-3.1256222729	-0.7626044585	-1.5231964954	 0.110544
H	-1.1256198507	-2.7036032592	-1.6240577071	 0.130095
H	-1.5745679499	-1.8421670002	-3.0999362934	 0.134158
H	 2.2104786382	 0.0209912678	-2.3918194514	 0.22871
83.4229	129.4672	324.5179	328.7679	409.4807	456.2913	476.2486	527.9113	549.0786	637.2139	693.1321	827.6811	868.2141	888.0754	924.5955	980.5252	995.537	1021.7185	1065.683	1129.0561	1162.8693	1190.5039	1245.6151	1255.2291	1301.0942	1336.1221	1392.5043	1429.7752	1456.8544	1501.5034	1717.1314	1746.9113	2894.7646	3000.1075	3091.1445	3183.8654	3208.9621	3502.0322	3651.7723
OC1C=CCOC1=N	O[C@H]1C=CCO[C]1[NH]	
InChI=1S/C5H7NO2/c6-5-4(7)2-1-3-8-5/h1-2,4,6-7H,3H2	InChI=1S/C5H7NO2/c6-5-4(7)2-1-3-8-5/h1-2,4,6-7H,3H2/t4-/m0/s1
