20
gdb 5984	4.17068	0.9938	0.96779	2.1145	67.	-0.254	0.0504	0.3044	1274.016	0.174493	-423.268277	-423.258232	-423.257287	-423.302924	36.598	
C	-0.1127339768	 1.5714867613	 0.0840629872	-0.428938
C	-0.0031455434	 0.0405796772	-0.032440303	 0.329413
O	 0.6913512829	-0.4804024505	 1.0993985803	-0.472982
C	-1.4057203063	-0.6007742779	-0.0552631222	-0.105224
O	-2.0458240028	-0.4854508608	 1.2138837681	-0.429945
C	 0.7759430165	-0.3948825753	-1.281448959	-0.208235
C	 2.2259230634	 0.0970138926	-1.340090639	-0.075964
O	 2.9098450548	-0.4052444434	-2.4803501619	-0.421372
H	 0.8728800417	 2.0164451737	 0.235174489	 0.135036
H	-0.563353496	 2.0153487155	-0.810425965	 0.112226
H	-0.723816378	 1.8491048789	 0.9504911941	 0.094339
H	 0.0311586867	-0.5364885178	 1.803729352	 0.282474
H	-2.022168518	-0.1740207608	-0.8581545642	 0.094925
H	-1.3034360047	-1.6753719848	-0.2344428117	 0.115054
H	-2.3999482484	 0.4053442647	 1.2953497304	 0.291866
H	 0.7864737567	-1.4929471172	-1.2990463194	 0.088413
H	 0.2496630413	-0.0626896497	-2.1843076203	 0.098146
H	 2.2625808035	 1.1859995207	-1.4400634785	 0.107743
H	 2.7421462327	-0.166820345	-0.4076203429	 0.113215
H	 2.9858311541	-1.3590683515	-2.3766628138	 0.27981
79.9497	86.9182	134.6334	145.7821	241.2326	281.1631	297.4504	318.2589	338.8874	346.6027	366.0497	415.5984	464.3305	519.1328	652.0246	772.5465	791.2055	899.0831	924.822	967.0588	991.6351	1044.8561	1064.5311	1074.4255	1113.8425	1131.9967	1180.2867	1217.5199	1270.6175	1299.9713	1336.5418	1365.8376	1390.7394	1399.6761	1414.2842	1419.9752	1424.7542	1469.1791	1489.1371	1491.3701	1507.1644	1517.223	3011.3074	3015.7789	3022.0218	3030.4505	3061.1492	3087.709	3090.0582	3094.0878	3127.6141	3750.5119	3816.2939	3828.425
CC(O)(CO)CCO	C[C@@](O)(CO)CCO	
InChI=1S/C5H12O3/c1-5(8,4-7)2-3-6/h6-8H,2-4H2,1H3	InChI=1S/C5H12O3/c1-5(8,4-7)2-3-6/h6-8H,2-4H2,1H3/t5-/m0/s1
