19
gdb 36396	5.05527	0.79127	0.73994	1.613	81.88	-0.26	0.0483	0.3083	1531.0247	0.157374	-385.824801	-385.815921	-385.814977	-385.858938	33.593	
C	-0.0584760266	-1.1452905205	-0.2391713365	-0.445389
C	-0.0461257658	 0.0460143818	-0.078883276	 0.301309
C	 0.0081361036	 1.4907702777	 0.1141123388	-0.37419
C	 1.4403990372	 2.0354086198	 0.130254982	 0.041413
C	 2.2556478304	 2.0000070568	-1.1991312781	-0.324069
C	 2.716585821	 3.4220062919	-0.8750909916	 0.468025
C	 4.0733857919	 3.9698507425	-0.8748607026	-0.266117
O	 3.0858320862	 4.3997726424	-1.8256282871	-0.270575
C	 1.6192954301	 3.5846432757	 0.1786919867	-0.348168
H	-0.0837281444	-2.1971315223	-0.3812329738	 0.195582
H	-0.5588498677	 1.988993049	-0.6839447372	 0.127821
H	-0.493412029	 1.7551172317	 1.0546765012	 0.131093
H	 2.0018510787	 1.5548804828	 0.9358859382	 0.087945
H	 3.0165426137	 1.2254784288	-1.3125016013	 0.111106
H	 1.6011934357	 1.9855660803	-2.0770521276	 0.115444
H	 4.3592454846	 4.7141837499	-0.1322247626	 0.114182
H	 4.8949985435	 3.3861366475	-1.2889022194	 0.115453
H	 0.7507713562	 4.1092358869	-0.2343332088	 0.112294
H	 1.8869839109	 4.0402160673	 1.1348946756	 0.106841
56.3383	71.5892	130.0799	254.7098	310.0661	316.491	352.2578	397.126	412.4324	465.3188	575.0826	620.3449	638.3046	739.1779	821.1067	843.7379	872.7061	887.2055	901.524	945.2333	974.8396	1009.7837	1048.5477	1078.9073	1124.7565	1126.5946	1159.5624	1188.6891	1194.6698	1220.9556	1249.5734	1255.3668	1283.8223	1327.5621	1375.5177	1436.9774	1465.9448	1470.6972	1494.1005	1538.2012	2237.8863	3011.6312	3041.2977	3048.2812	3055.5387	3073.6784	3077.1171	3109.0727	3118.2463	3163.8491	3506.8884
C#CCC1CC2(CO2)C1	C#CC[C@H]1C[C@]2(CO2)C1	
InChI=1S/C8H10O/c1-2-3-7-4-8(5-7)6-9-8/h1,7H,3-6H2	InChI=1S/C8H10O/c1-2-3-7-4-8(5-7)6-9-8/h1,7H,3-6H2/t7-,8+
