16
gdb 29206	3.06628	1.44203	0.98867	5.8639	78.57	-0.2062	-0.0543	0.1519	1148.8266	0.124689	-434.092839	-434.084499	-434.083554	-434.125847	31.414	
C	-0.0743511848	 1.4993855743	-0.0212750108	-0.489628
C	-0.019812497	-0.0014476424	-0.0217107501	 0.320867
N	-0.0229058383	-0.6146643227	-1.1606341817	-0.318503
C	 0.0108722839	-1.9938818828	-1.2205607106	 0.414412
N	 0.03103428	-2.6243281508	-2.3195070851	-0.52629
O	 0.0141451489	-2.7134122892	-0.0085725212	-0.227782
C	 0.0538780801	-2.0536972739	 1.1669086502	 0.0179
C	 0.0311865539	-0.7093257882	 1.2510149364	 0.117172
N	-0.0536752674	 0.0077353298	 2.4622143603	-0.58987
H	 0.849691098	 1.9236933316	 0.3929112479	 0.131178
H	-0.1975141318	 1.8601782131	-1.0419436415	 0.156801
H	-0.8970050043	 1.852892711	 0.6089897342	 0.152062
H	 0.0547063201	-3.6285800076	-2.1458002313	 0.221223
H	 0.0782848059	-2.7285846694	 2.0160150573	 0.125751
H	 0.0296710254	-0.5922046356	 3.2741958691	 0.244999
H	 0.6334146277	 0.7495016527	 2.5325879868	 0.24971
58.4365	167.7991	209.0305	234.8972	294.2958	335.8481	357.0439	374.2209	472.6709	528.9534	580.7423	636.273	720.9126	751.1019	767.7172	796.0166	826.5956	845.1604	875.1024	985.1775	1050.7615	1087.9769	1126.8756	1182.8183	1225.5754	1291.3415	1349.3965	1395.2042	1449.3588	1467.088	1478.7635	1601.8351	1652.3223	1720.1518	1738.5902	3027.1224	3088.391	3161.5825	3191.3519	3504.181	3517.1472	3606.3521
CC1=NC(=N)OC=C1N	CC1=C(COC(=N1)[NH])N	
InChI=1S/C5H7N3O/c1-3-4(6)2-9-5(7)8-3/h2,7H,6H2,1H3	InChI=1S/C5H8N3O/c1-3-4(6)2-9-5(7)8-3/h7H,2,6H2,1H3
