14
gdb 49345	2.33255	1.86816	1.0442	2.2016	67.47	-0.2677	-0.0363	0.2314	1055.5497	0.102019	-470.051413	-470.043704	-470.04276	-470.084182	27.725	
N	 0.1353320967	 1.3029653571	 0.0049994936	-0.400351
C	 0.0150766426	 0.046579372	 0.001679104	 0.084682
N	-1.2286751277	-0.6135165705	 0.0091746912	-0.184871
C	-2.5279714907	-0.0601694485	 0.0197998856	 0.491518
N	-2.8164144454	 1.159745931	 0.0243501536	-0.521667
O	-3.4252562078	-1.0978680856	 0.0241224453	-0.249783
C	-2.7548715402	-2.3520547662	 0.016041613	-0.217909
C	-1.2773538976	-2.0089473829	 0.0061491356	 0.410348
O	-0.3383928361	-2.761530873	-0.0026481463	-0.35012
H	 1.125714971	 1.5468429666	-0.0019989709	 0.240143
H	 0.8141288071	-0.6988865895	-0.0070704964	 0.142448
H	-3.8292080183	 1.275597856	 0.0318224697	 0.237912
H	-3.0153736232	-2.9318253993	 0.9075230788	 0.158827
H	-3.0283302006	-2.9272819573	-0.8745127768	 0.158823
75.8015	149.8772	164.7314	216.5998	224.621	369.7005	453.3992	577.9506	589.0327	634.3908	706.2549	709.7799	755.7553	837.0351	854.0652	984.371	1026.4254	1057.9236	1093.1798	1102.8429	1127.0904	1201.8992	1221.2035	1306.6476	1357.6175	1421.0814	1424.0343	1491.2516	1729.2242	1799.9937	1865.8824	3051.5369	3095.9902	3104.7638	3489.1732	3510.2136
N=CN1C(=N)OCC1=O	[NH][CH]N1[C]([NH])OCC1=O	
InChI=1S/C4H5N3O2/c5-2-7-3(8)1-9-4(7)6/h2,5-6H,1H2	InChI=1S/C4H5N3O2/c5-2-7-3(8)1-9-4(7)6/h2,5-6H,1H2
