18
gdb 109598	2.91984	1.05858	1.00867	4.3093	73.52	-0.2645	0.0211	0.2856	1250.6569	0.146678	-439.077588	-439.068138	-439.067194	-439.11164	34.865	
C	 0.017463593	 1.5314975285	-0.1203267924	-0.469338
C	-0.0035192268	 0.0187568181	 0.0250873892	 0.097969
C	-1.1366329997	-0.6360580433	-0.5766040393	 0.240768
N	-2.0457892911	-1.1672483344	-1.0574108012	-0.346755
C	 1.3196041104	-0.7566345534	-0.0142223792	 0.082971
O	 2.4895824426	-0.0249117177	-0.1400300607	-0.422925
C	 0.5542108097	-0.6852439921	 1.2788700923	-0.150059
C	 1.1508851147	 0.1034924902	 2.4312170302	-0.12536
O	 2.5274742113	-0.2364456112	 2.6584502571	-0.412189
H	 1.0214180828	 1.9124244533	 0.071402432	 0.147066
H	-0.2500063325	 1.8064315466	-1.1439268967	 0.144271
H	-0.69448254	 2.0131855855	 0.5563486402	 0.130855
H	 1.3088179849	-1.6958151761	-0.5638522951	 0.115691
H	 2.9328485436	-0.0583230112	 0.7225604524	 0.303181
H	 0.0212639687	-1.5872624813	 1.5638144867	 0.114326
H	 1.158156995	 1.1751043678	 2.2275838264	 0.135067
H	 0.5620134683	-0.0511493952	 3.3435102382	 0.118572
H	 2.5673992451	-1.1609369241	 2.92632407	 0.295888
88.7405	132.2907	163.218	172.0947	208.3328	240.2938	288.8603	333.0784	396.3464	409.6023	457.3786	557.1742	568.2525	631.0133	668.9921	723.7906	798.5599	855.0281	952.685	987.9822	990.6261	1040.6054	1072.2716	1098.085	1131.2794	1170.6115	1211.9128	1256.4167	1294.6848	1355.1863	1378.1342	1401.4318	1409.0014	1423.8714	1430.4839	1493.0988	1496.292	1511.3723	2344.7523	3033.9152	3050.7471	3117.4034	3120.5715	3124.0677	3145.8413	3157.2243	3678.3589	3812.114
CC1(C#N)C(O)C1CO	C[C@@]1(C#N)[C@@H](O)[C@H]1CO	
InChI=1S/C6H9NO2/c1-6(3-7)4(2-8)5(6)9/h4-5,8-9H,2H2,1H3	InChI=1S/C6H9NO2/c1-6(3-7)4(2-8)5(6)9/h4-5,8-9H,2H2,1H3/t4-,5+,6+/m1/s1
