16
gdb 10325	2.2859	1.84046	1.21632	2.9357	62.61	-0.2358	-0.0358	0.1999	1014.0936	0.129347	-417.091983	-417.083101	-417.082157	-417.125926	31.111	
C	 0.9871351763	 1.4961201784	 0.4071113985	-0.324351
N	 0.2797110151	 0.2276475288	 0.263119877	-0.308085
C	 0.2457842127	-0.5908093966	 1.453893774	-0.155264
C	-1.122134581	-1.2406929017	 1.6355139487	 0.150737
O	-2.0781105113	-0.9509218276	 0.9618029094	-0.253968
C	 1.3014992405	-1.7235552029	 1.5018451702	 0.382738
N	 1.9520467568	-1.902087507	 0.331608727	-0.510811
O	 1.4662769714	-2.3734567949	 2.5164082469	-0.371424
H	 2.0497606938	 1.3100014963	 0.5957593166	 0.129985
H	 0.9081461384	 2.0620167664	-0.5250720696	 0.127285
H	 0.6052795721	 2.1260222332	 1.2276667954	 0.110253
H	-0.6780371476	 0.3696735925	-0.0465855907	 0.242282
H	 0.4138798466	-0.0222646318	 2.3861597144	 0.11786
H	-1.1619656186	-1.9984448171	 2.4397758879	 0.127774
H	 1.6804962925	-1.3292310782	-0.4535345164	 0.270683
H	 2.6199035725	-2.6486339378	 0.2415409807	 0.264304
62.5137	84.677	136.6378	201.7692	218.3234	256.3086	332.1724	353.9824	374.1546	503.6982	543.8623	645.5924	703.7528	747.7749	788.4789	818.463	948.2322	1027.3732	1069.7942	1096.4475	1149.6275	1169.9442	1199.0477	1252.1403	1320.2717	1354.9728	1391.3784	1461.5886	1483.0513	1498.3292	1518.2207	1571.4119	1798.4151	1823.1053	2952.6791	2969.2092	2975.9034	3066.3432	3112.3638	3501.1081	3569.2162	3724.4273
CNC(C=O)C(N)=O	CN[C@@H](C=O)C(=O)N	
InChI=1S/C4H8N2O2/c1-6-3(2-7)4(5)8/h2-3,6H,1H3,(H2,5,8)	InChI=1S/C4H8N2O2/c1-6-3(2-7)4(5)8/h2-3,6H,1H3,(H2,5,8)/t3-/m0/s1
