19
gdb 126462	2.94309	1.22589	0.93728	3.7506	79.74	-0.2081	0.0057	0.2139	1298.5143	0.158497	-419.21558	-419.205781	-419.204837	-419.250573	34.955	
C	 0.0149559626	 1.522770605	 0.0918735274	-0.378499
C	-0.0500304754	-0.0099937716	-0.0283737094	-0.297185
C	 0.7021996825	-0.5388793414	-1.2106508338	 0.377569
N	 0.0749138439	-0.8983150967	-2.3056339645	-0.222122
O	 1.0549849132	-1.3309559833	-3.1876320917	-0.222696
C	 2.2714643371	-1.2050282409	-2.6052236738	 0.38543
C	 3.4538553242	-1.628633561	-3.4003454488	-0.502151
C	 2.1168673978	-0.7116295341	-1.3435935868	-0.044245
N	 3.0692534654	-0.5073828225	-0.3287508514	-0.614517
H	 1.0459983159	 1.8816586819	 0.1868118723	 0.107511
H	-0.4197409722	 1.9980249524	-0.7920274366	 0.1358
H	-0.5363325878	 1.8650259005	 0.9727354608	 0.119599
H	 0.3569981624	-0.4691278175	 0.8804594745	 0.117006
H	-1.092977773	-0.3273688464	-0.1157575125	 0.128281
H	 3.3705314933	-1.27603738	-4.4328422573	 0.150225
H	 4.3712442676	-1.2131024	-2.9722996239	 0.123747
H	 3.5619727709	-2.7193052447	-3.4300667164	 0.147294
H	 4.0175658056	-0.6466005961	-0.6550800554	 0.241152
H	 3.0036194061	 0.4139311264	 0.0880669674	 0.247801
67.2527	97.5604	108.8393	159.4809	181.6594	227.035	255.2975	278.3404	322.425	433.2186	482.7734	572.6427	628.8334	706.7862	726.1447	759.4513	783.416	808.0663	943.9098	969.4751	999.2561	1024.9922	1059.9552	1074.8827	1094.6399	1224.1307	1248.6798	1272.2909	1308.6321	1360.4129	1410.2928	1414.9076	1470.8835	1476.5922	1488.0637	1494.0761	1498.2233	1506.5241	1538.3426	1646.9482	1701.5604	3029.7242	3034.0022	3039.4175	3086.7103	3087.9032	3106.08	3112.5881	3119.7868	3520.1698	3608.8235
CCC1=NOC(C)=C1N	CCc1noc(C)c1N	
InChI=1S/C6H10N2O/c1-3-5-6(7)4(2)9-8-5/h3,7H2,1-2H3	InChI=1S/C6H10N2O/c1-3-5-6(7)4(2)9-8-5/h3,7H2,1-2H3
