23
gdb 60367	3.89695	0.61745	0.59535	2.2601	84.1	-0.2718	-0.0364	0.2354	1960.5192	0.202438	-425.447371	-425.436298	-425.435354	-425.484617	39.632	
C	-0.0967764167	 1.5614679838	 0.1663899195	-0.381072
C	-0.0415809811	 0.0334513638	 0.022893998	 0.036892
C	-1.4576487658	-0.5585935039	 0.03256887	-0.388575
C	 0.7126912776	-0.4125324075	-1.2428598374	-0.16361
C	 2.2029313017	-0.0555278283	-1.2642609066	-0.218998
C	 2.8958593702	-0.5540065576	-2.5460378527	 0.048245
O	 2.330415443	 0.0173940944	-3.694781124	-0.433281
C	 4.3804950529	-0.2629511067	-2.4925438779	 0.136103
O	 4.9353961595	 0.3878280143	-3.3453926775	-0.261826
H	 0.8992161018	 2.007947172	 0.2404200767	 0.111697
H	-0.6018941099	 2.0144883491	-0.6952403824	 0.115399
H	-0.6522339729	 1.8490036128	 1.0651827645	 0.110453
H	 0.4964255317	-0.3692281918	 0.8942381556	 0.066701
H	-2.0390442162	-0.1943857934	-0.8228734675	 0.114562
H	-1.434304791	-1.6520469832	-0.0232623467	 0.108602
H	-1.9979168559	-0.279684181	 0.9432009413	 0.108918
H	 0.6153583649	-1.5022129997	-1.3457238055	 0.08697
H	 0.2346182608	 0.0229369729	-2.128489922	 0.118898
H	 2.3414430806	 1.0300938399	-1.2066094317	 0.112036
H	 2.7061873266	-0.4952844193	-0.3918944432	 0.091999
H	 2.7979258043	-1.6564528185	-2.5803627969	 0.08978
H	 3.064633321	 0.4487437287	-4.1599429987	 0.293853
H	 4.9323810429	-0.6764504407	-1.6233041851	 0.096254
38.8016	58.1499	86.7218	130.4426	167.5587	222.8703	249.9869	256.3371	292.2426	330.5462	385.3054	400.792	431.4087	462.5137	512.1624	746.068	771.7533	824.17	848.0958	920.4921	926.5645	947.0528	966.7427	983.0964	1033.2996	1062.7962	1123.9728	1149.3985	1186.6565	1192.991	1232.7484	1251.9669	1294.9165	1322.001	1346.1561	1360.4727	1370.8045	1390.7626	1402.7251	1403.9139	1425.0672	1439.4632	1471.8222	1486.8322	1489.9177	1499.1447	1506.1191	1512.297	1811.846	2916.3578	2932.9553	2989.3479	3010.2584	3015.1007	3024.0891	3029.5769	3058.2688	3077.337	3089.2831	3095.0995	3099.0568	3104.9284	3690.4912
CC(C)CCC(O)C=O	CC(C)CC[C@@H](O)C=O	
InChI=1S/C7H14O2/c1-6(2)3-4-7(9)5-8/h5-7,9H,3-4H2,1-2H3	InChI=1S/C7H14O2/c1-6(2)3-4-7(9)5-8/h5-7,9H,3-4H2,1-2H3/t7-/m1/s1
