20
gdb 40314	2.70874	1.39732	1.07634	2.3715	78.32	-0.2404	0.0723	0.3127	1176.2864	0.170907	-403.077877	-403.069262	-403.068318	-403.111805	32.713	
C	-0.464876502	 1.2768761578	-0.0701988121	-0.250954
C	 1.0236741515	 1.0889951465	 0.0895091911	-0.303607
C	 0.1047945936	-0.104740299	 0.1333647822	-0.062546
C	-0.1889860966	-0.8795437006	 1.3914484819	 0.281252
C	 0.932935084	-1.5122649162	 2.1397489921	-0.272908
N	 0.1991674429	-0.3704850079	 2.7116910892	-0.347446
C	-1.5231793823	-1.5733860094	 1.3544915392	 0.027637
C	-2.3525501658	-1.7614131318	 2.5482951592	-0.175468
O	-2.6755196973	-0.7572418425	 1.5805905013	-0.242094
H	-1.0102324905	 1.7101714535	 0.7603421086	 0.132257
H	-0.8545804959	 1.5385656551	-1.0472386154	 0.115594
H	 1.6589796848	 1.2014391595	-0.7819697509	 0.116133
H	 1.4858680685	 1.4409878932	 1.0068032242	 0.107242
H	 0.1258541067	-0.7379454517	-0.7508890852	 0.088851
H	 0.7847845527	-2.4555703308	 2.6586226561	 0.115586
H	 1.9389494321	-1.3464925317	 1.7633398717	 0.114311
H	 0.7481289216	 0.4801298846	 2.6242912987	 0.230288
H	-1.6392878603	-2.2774974576	 0.5275362474	 0.086111
H	-3.0426042197	-2.6033986202	 2.5930649629	 0.105141
H	-1.9868889281	-1.3831766509	 3.4989711678	 0.13462
49.9033	75.6579	170.0082	211.0654	239.8508	286.3362	396.5916	417.7295	511.1519	540.4967	683.6263	779.0597	809.8134	828.1743	865.2314	880.7486	897.7455	926.1652	956.4544	964.4912	984.5215	1024.3166	1058.8198	1070.4932	1075.9879	1107.7885	1115.141	1135.2339	1154.9749	1158.9994	1173.8681	1194.8101	1223.0385	1248.3955	1265.379	1291.8543	1371.7899	1408.1266	1449.1011	1472.237	1502.6056	1512.2836	1518.5887	3082.2461	3091.5013	3105.7681	3126.1707	3128.4606	3143.1013	3192.8376	3193.3014	3205.2338	3230.7759	3511.4075
C1CC1C1(CN1)C1CO1	C1CC1[C@]1(CN1)[C@H]1CO1	
InChI=1S/C7H11NO/c1-2-5(1)7(4-8-7)6-3-9-6/h5-6,8H,1-4H2	InChI=1S/C7H11NO/c1-2-5(1)7(4-8-7)6-3-9-6/h5-6,8H,1-4H2/t6-,7-/m1/s1
