16
gdb 97266	2.22877	1.1592	1.04002	5.309	74.47	-0.2459	-0.0357	0.2103	1244.7832	0.121237	-434.088988	-434.078866	-434.077922	-434.124536	35.137	
C	 0.0443919772	 1.8019044637	 0.2234348318	-0.404223
C	-0.1402771135	 0.2808041993	-0.0001174433	 0.018643
C	 0.455141076	-0.4360273873	 1.2335327353	 0.175523
O	 1.4818946926	-1.0519596223	 1.2538302757	-0.236258
N	-1.5594896758	-0.0347753455	 0.0088389375	-0.287579
C	-2.1109092241	-0.5785478648	-1.0065152729	 0.114938
N	-3.4449923415	-0.8378459328	-1.0473197046	-0.504031
C	 0.5792250853	-0.1302612641	-1.2203095293	 0.278468
N	 1.0647380167	-0.4521364833	-2.2184299497	-0.347865
H	 1.1036727039	 2.0630352433	 0.2893868571	 0.143802
H	-0.41147204	 2.3492428908	-0.6047590499	 0.143469
H	-0.4634875342	 2.088078179	 1.1479447351	 0.137348
H	-0.1956251161	-0.3074417509	 2.1239254908	 0.10273
H	-1.5798576215	-0.8435383395	-1.9271912423	 0.131345
H	-3.796957591	-1.4767007796	-1.7387084192	 0.268542
H	-3.966611374	-0.7558936859	-0.188613292	 0.265148
40.6267	103.4343	138.7413	154.2898	185.2118	228.1171	231.4337	306.0441	324.1119	367.9428	409.427	441.4964	491.0224	583.0595	598.975	705.9357	740.6345	888.3795	931.9964	985.9626	1027.2044	1094.0973	1128.073	1176.3055	1221.9511	1314.9514	1387.4072	1402.5277	1421.7225	1480.9903	1489.5528	1629.2623	1745.6481	1848.0035	2350.4814	2920.1484	3049.352	3072.7296	3134.5418	3137.2759	3598.7275	3729.2675
CC(C=O)(N=CN)C#N	C[C@@](C=O)(N=CN)C#N	
InChI=1S/C5H7N3O/c1-5(2-6,3-9)8-4-7/h3-4H,1H3,(H2,7,8)	InChI=1S/C5H7N3O/c1-5(2-6,3-9)8-4-7/h3-4H,1H3,(H2,7,8)/t5-/m1/s1
