18
gdb 103386	2.58487	1.55383	1.26492	2.8851	72.36	-0.2476	-0.0328	0.2148	1049.5426	0.146718	-439.053827	-439.04527	-439.044326	-439.086609	32.613	
C	-0.1453579446	 1.6649553607	-0.0864462907	-0.460104
C	-0.0000617539	 0.1534437806	-0.0525339948	 0.141237
C	-1.363990768	-0.5269788239	 0.2015351856	-0.092061
O	-1.867763326	-0.1910638305	 1.475042857	-0.422805
N	 0.6702723408	-0.5152606512	-1.2444075873	-0.136215
C	 2.0431380306	-0.0394732748	-1.279375557	-0.243705
C	 1.7231587732	-1.1313184511	-0.3109972977	-0.1547
C	 1.0108031997	-0.5612776147	 0.8702359141	 0.391368
O	 0.9963372192	-0.8151453043	 2.0473190328	-0.343589
H	 0.8071058998	 2.198108771	-0.0542438636	 0.118651
H	-0.6784687146	 1.9619899849	-0.9965592926	 0.132203
H	-0.7398923276	 1.9768648857	 0.7754455985	 0.155444
H	-2.0883824209	-0.1717982998	-0.5388693603	 0.117815
H	-1.2569514479	-1.613590805	 0.066471917	 0.099993
H	-1.2095765784	-0.4763953051	 2.1238375888	 0.299528
H	 2.5859186128	-0.3448083419	-2.1692089443	 0.140125
H	 2.293934803	 0.9528667792	-0.9181423055	 0.130085
H	 2.1020554829	-2.1408094299	-0.4203871298	 0.126731
133.9115	146.052	176.8824	203.302	251.5851	275.2245	336.1973	398.0501	471.0547	511.5586	518.5505	659.5345	696.1112	713.3088	788.2161	838.1156	908.6301	928.8497	957.1812	982.7973	1032.5938	1086.0044	1088.3605	1119.254	1125.486	1155.1773	1167.0503	1211.2662	1220.6341	1295.4353	1308.0926	1369.1327	1403.7195	1438.9256	1484.608	1491.7556	1508.847	1514.2302	1852.7135	2994.9421	3041.6518	3075.285	3113.1765	3124.54	3134.4579	3190.3635	3209.3858	3749.3468
CC1(CO)N2CC2C1=O	C[C@@]1(CO)N2C[C@H]2C1=O	
InChI=1S/C6H9NO2/c1-6(3-8)5(9)4-2-7(4)6/h4,8H,2-3H2,1H3	InChI=1S/C6H9NO2/c1-6(3-8)5(9)4-2-7(4)6/h4,8H,2-3H2,1H3/t4-,6-,7?/m0/s1
