14
gdb 128664	5.57816	0.97896	0.83721	4.152	69.01	-0.2527	-0.0597	0.1931	1294.2805	0.101511	-470.032048	-470.02411	-470.023166	-470.06523	27.474	
C	-0.0037667701	 1.3725303639	-0.0057683296	-0.235085
O	 0.026013029	-0.0575204458	-0.0457200494	-0.241592
C	 0.6230344377	-0.6100572672	-1.0913490754	 0.487602
N	 0.695293151	-1.9214191386	-1.2041847684	-0.317697
N	 1.3686790552	-2.0543761768	-2.3894473295	-0.020176
C	 1.7046179239	-3.2888428557	-2.9675604445	 0.193471
O	 1.4466545309	-4.3577735634	-2.5010442215	-0.244746
C	 1.6506789401	-0.8202240133	-2.9000438974	 0.035201
N	 1.1976365647	 0.1186047679	-2.1119085185	-0.353906
H	 1.0088710382	 1.7846181217	 0.0111588321	 0.141869
H	-0.5386176993	 1.7770478585	-0.869358177	 0.141955
H	-0.5290306039	 1.6248725745	 0.9153043195	 0.141886
H	 2.2435599205	-3.1266429176	-3.9192513457	 0.105442
H	 2.1785457722	-0.678409418	-3.8318568047	 0.165777
73.4078	133.0838	155.141	171.5106	240.2711	269.6583	389.2689	507.344	540.001	633.1214	707.4495	775.1585	839.1628	860.2297	985.0629	1007.1156	1013.8164	1112.3119	1180.4666	1202.1021	1224.0965	1303.008	1364.8985	1401.1243	1454.7406	1457.5283	1484.9457	1497.6919	1542.8422	1625.3869	1856.2304	2971.0678	3046.5663	3120.3567	3158.6588	3253.3198
COC1=NN(C=O)C=N1	COc1nn(C=O)cn1	
InChI=1S/C4H5N3O2/c1-9-4-5-2-7(3-8)6-4/h2-3H,1H3	InChI=1S/C4H5N3O2/c1-9-4-5-2-7(3-8)6-4/h2-3H,1H3
