18
gdb 7178	2.85545	1.09461	0.83373	3.1715	65.91	-0.2708	0.0051	0.2759	1343.8508	0.150972	-422.098808	-422.089122	-422.088177	-422.13435	32.961	
C	-0.0716941227	 1.5762508791	 0.0808786266	-0.392842
C	-0.0065963162	 0.0543502277	 0.0134006391	 0.102446
C	 0.7237134041	-0.5712306473	 1.1983926782	-0.199934
C	 0.8816278029	-2.0912106866	 1.0960031914	-0.075384
O	 1.6279794696	-2.6272852457	 2.1758611658	-0.415453
O	-1.3546024112	-0.4758606432	 0.0117212869	-0.190966
C	-1.9261634302	-0.7577509903	-1.1718967428	 0.170817
O	-3.0527375359	-1.1418641842	-1.2735784496	-0.276668
H	 0.9364680776	 2.001225709	 0.0878449663	 0.126393
H	-0.6090843325	 1.9826958296	-0.7810340551	 0.125546
H	-0.5907751471	 1.8958128053	 0.9892644578	 0.136907
H	 0.4835081281	-0.2538867239	-0.9217409692	 0.09002
H	 1.7180124981	-0.1185604228	 1.2791849391	 0.113165
H	 0.1789441522	-0.317428936	 2.1172506512	 0.104895
H	-0.1049256115	-2.5667967484	 1.0097808285	 0.111884
H	 1.4460986496	-2.3457754732	 0.1910182289	 0.108935
H	 1.0887756256	-2.559255959	 2.9700867924	 0.284445
H	-1.2399327707	-0.60614729	-2.0289633855	 0.075794
45.2754	82.8599	103.5892	151.9805	170.1813	220.512	262.4753	283.0823	340.7127	355.6046	474.0441	539.1529	613.1733	787.9015	894.8212	949.8598	976.241	1014.639	1046.8337	1075.874	1107.3339	1116.5867	1143.8864	1177.065	1235.3873	1291.1267	1319.1385	1369.6645	1375.5314	1408.2186	1412.1269	1422.1328	1439.654	1475.2156	1488.4789	1495.8969	1515.2258	1863.68	2937.7174	3001.1021	3011.5535	3028.7591	3042.4458	3058.3537	3086.7669	3116.3765	3122.1	3818.7075
CC(CCO)OC=O	C[C@@H](CCO)OC=O	
InChI=1S/C5H10O3/c1-5(2-3-6)8-4-7/h4-6H,2-3H2,1H3	InChI=1S/C5H10O3/c1-5(2-3-6)8-4-7/h4-6H,2-3H2,1H3/t5-/m0/s1
