16
gdb 12772	3.96793	1.6681	1.32112	1.109	68.37	-0.2397	0.0232	0.2629	950.2685	0.130268	-379.879085	-379.871183	-379.870238	-379.911296	29.084	
C	 0.0417664932	 1.4227655912	 0.0782766996	-0.340101
N	 0.1625254545	-0.0247876449	-0.0301986391	-0.349464
C	 0.5561980502	-0.681820635	 0.9561082164	 0.424308
O	 0.973358236	-0.257982465	 2.2301741805	-0.290716
C	 1.4244332237	-1.6023837171	 2.5347466092	 0.064786
C	 0.2539389722	-2.5180593061	 2.553418924	-0.321133
C	 0.8840875138	-2.1253564564	 1.2126108752	 0.149641
N	 1.3749174925	-3.107576247	 0.3202809512	-0.593483
H	 0.5609631644	 1.8884218124	-0.7660276395	 0.125418
H	-1.0147665848	 1.7020724372	-0.0035692071	 0.128901
H	 0.4411085083	 1.8341118352	 1.012432445	 0.129443
H	 2.3789676651	-1.7133137539	 3.0290917004	 0.126024
H	 0.4695634329	-3.547152484	 2.8241212305	 0.132449
H	-0.7214568292	-2.1423964079	 2.8461486549	 0.127365
H	 0.6114095965	-3.5605365904	-0.1726030833	 0.24354
H	 1.9758192707	-2.6858359284	-0.3811305779	 0.243023
99.4956	120.0436	190.3195	223.2814	283.2558	298.419	386.0987	463.0573	527.2753	637.4364	717.9531	755.3233	799.3087	874.4457	897.5584	902.4207	941.3409	1019.2329	1030.083	1060.8407	1081.662	1086.249	1132.5023	1169.8148	1236.9366	1259.86	1300.4784	1415.4382	1440.0361	1487.5313	1493.2216	1498.8319	1667.0713	1850.3228	3018.6194	3082.9414	3090.8537	3124.4602	3219.5735	3227.869	3498.1322	3571.4924
CN=C1OC2CC12N	CN=C1O[C@H]2C[C@@]12N	
InChI=1S/C5H8N2O/c1-7-4-5(6)2-3(5)8-4/h3H,2,6H2,1H3	InChI=1S/C5H8N2O/c1-7-4-5(6)2-3(5)8-4/h3H,2,6H2,1H3/t3-,5-/m0/s1
