24
gdb 105080	2.3894	1.19724	1.09488	1.274	89.87	-0.2083	0.0872	0.2955	1316.3522	0.215978	-368.366774	-368.356669	-368.355725	-368.401981	38.567	
C	-0.7927681794	 0.6195450475	 1.9135882628	-0.405127
C	-0.5413939867	-0.7227821754	 1.2177205086	-0.260377
C	 0.2957180948	-0.688312447	-0.0600184853	 0.384266
C	 0.2276698393	 0.4729227271	-1.0218201095	-0.301814
C	 1.4553472856	 0.2800539809	-0.1630181305	-0.294613
N	 0.5855646838	-1.9508605319	-0.7267097212	-0.140315
C	 0.1556302683	-3.2466385275	-0.2255998217	-0.261334
C	-0.3937670879	-2.7085355145	-1.5059715584	 0.032439
C	-1.8495016658	-2.3178836935	-1.6446173963	-0.417685
H	 0.1360056605	 1.0944154106	 2.2417918899	 0.123524
H	-1.3233813917	 1.3240522517	 1.2658629883	 0.120568
H	-1.4111097894	 0.4661067636	 2.8033850706	 0.114349
H	-0.041979136	-1.3955867235	 1.9273295905	 0.10526
H	-1.5148147084	-1.1804046097	 1.0055173819	 0.09938
H	 0.3102672943	 0.2378464261	-2.0767575759	 0.112662
H	-0.4315028427	 1.303989225	-0.7985031508	 0.108525
H	 1.6324602448	 0.9875276804	 0.6385142243	 0.104174
H	 2.3470683454	-0.1039215211	-0.6428734506	 0.115144
H	 0.9123338057	-4.0290443866	-0.216278681	 0.106878
H	-0.5346308327	-3.2883419675	 0.6145439643	 0.10525
H	 0.0331530777	-3.0929616427	-2.4328814777	 0.083267
H	-2.3155837213	-2.0827500197	-0.6856045769	 0.122066
H	-1.9640458661	-1.4457966674	-2.2972020809	 0.124766
H	-2.4124082322	-3.1427730749	-2.0951262246	 0.118745
49.1586	61.3417	150.3376	191.7482	224.4742	261.135	276.8286	321.1727	350.5102	386.4697	402.0151	466.0794	569.9887	608.5461	769.5171	773.9457	791.3144	797.6275	889.5818	904.245	923.9185	941.0087	959.117	1027.4485	1036.4931	1050.719	1054.8108	1078.9014	1084.9089	1119.2804	1139.0909	1140.7142	1157.7842	1188.7117	1194.4121	1218.7034	1311.4539	1329.3586	1347.093	1382.4358	1404.4453	1413.7076	1421.2956	1449.7364	1480.792	1492.3647	1494.2246	1501.8834	1507.2513	1512.0149	1516.6962	3017.4393	3036.9249	3042.9377	3051.1687	3088.1035	3090.9295	3093.5347	3105.434	3114.9116	3129.6167	3136.9135	3144.8683	3167.9873	3218.5656	3237.391
CCC1(CC1)N1CC1C	CCC1(CC1)N1C[C@H]1C	
InChI=1S/C8H15N/c1-3-8(4-5-8)9-6-7(9)2/h7H,3-6H2,1-2H3	InChI=1S/C8H15N/c1-3-8(4-5-8)9-6-7(9)2/h7H,3-6H2,1-2H3/t7-,9?/m1/s1
