18
gdb 68209	3.61509	1.20585	1.05965	3.4529	73.94	-0.2365	0.0337	0.2702	1145.4426	0.14869	-439.08996	-439.082127	-439.081183	-439.122861	30.476	
O	-0.0448925674	 1.3741895573	-0.0051582875	-0.476886
C	-0.0148089211	-0.0112489915	 0.005551704	 0.381486
C	 0.2945223172	-0.8783611226	 1.2791046369	-0.29141
C	-0.4472794704	-1.944195537	 0.4253382417	-0.022617
C	-1.3562596065	-0.7895723497	-0.080656697	-0.256363
N	 0.4688839743	-2.1043293677	-0.7118497732	-0.01589
C	 0.8318817017	-0.7313442252	-1.0778643454	-0.235353
C	 1.0697496436	-3.2256887569	-1.1658892944	 0.131033
O	 1.9278861563	-3.2513593267	-2.0259373442	-0.344106
H	 0.8595284322	 1.7065110445	 0.0119997931	 0.286706
H	 1.3362327529	-1.0785138765	 1.5424438022	 0.101547
H	-0.2794620658	-0.5447968381	 2.1446673492	 0.113592
H	-0.8265440041	-2.8825824512	 0.8226987504	 0.091325
H	-2.0733193288	-0.4519162832	 0.668768223	 0.115508
H	-1.8272136486	-0.9057361875	-1.0590441531	 0.109192
H	 0.5220768137	-0.4744506459	-2.0954911926	 0.12807
H	 1.9097762627	-0.5585170624	-0.9815841276	 0.117253
H	 0.6750735379	-4.1354748998	-0.6686397054	 0.066914
35.5989	178.5054	264.3083	276.5291	350.7826	366.715	419.7382	455.0779	481.699	545.7344	624.0492	701.0047	814.9608	838.9824	867.3654	891.1601	952.3265	957.4085	1003.7153	1029.1752	1030.0208	1081.3349	1095.435	1131.1487	1150.1465	1170.3752	1204.6337	1227.6531	1233.4873	1267.6141	1279.1294	1342.2813	1389.4241	1415.3703	1460.0652	1475.2731	1506.9503	1528.2467	1788.1565	2921.9049	3039.7983	3065.8218	3076.4351	3087.1158	3139.7232	3147.2117	3155.2378	3802.5911
OC12CC(C1)N(C2)C=O	O[C@@]12C[C@@H](C1)N(C2)C=O	
InChI=1S/C6H9NO2/c8-4-7-3-6(9)1-5(7)2-6/h4-5,9H,1-3H2	InChI=1S/C6H9NO2/c8-4-7-3-6(9)1-5(7)2-6/h4-5,9H,1-3H2/t5-,6-
