18
gdb 49239	3.55609	1.2081	1.0034	2.2726	80.07	-0.2351	-0.0562	0.1789	1181.9412	0.148873	-401.94741	-401.939688	-401.938744	-401.979911	29.616	
O	 0.0973250367	-0.0110915076	 0.4051358968	-0.272858
C	 0.2257051537	 1.1888003613	 0.4983411621	 0.088743
C	 1.3332555456	 1.9574768786	-0.0957327291	 0.210552
C	 1.3826267566	 3.2838767448	 0.0881912153	-0.144935
C	 2.4746215285	 4.1462767173	-0.4757384958	-0.209707
N	 3.7063878143	 3.4618613988	-0.8712750671	-0.099834
C	 4.3320015421	 2.5979974037	 0.132457387	-0.249923
C	 3.6632846735	 2.0057468477	-1.0576918601	-0.010003
C	 2.3672826762	 1.2268364255	-0.9078288706	-0.3262
H	-0.51013346	 1.8068082067	 1.061412607	 0.067868
H	 0.5975072255	 3.7769739704	 0.6599510804	 0.103666
H	 2.0846689676	 4.6700760891	-1.3619596645	 0.13133
H	 2.737165151	 4.9351395133	 0.2407326666	 0.123437
H	 5.4153501066	 2.6585981215	 0.1890246362	 0.117103
H	 3.8306283591	 2.4778085771	 1.0909830839	 0.112932
H	 4.294542019	 1.6629177181	-1.8750499519	 0.094423
H	 2.5531175722	 0.2419780844	-0.4647290798	 0.136113
H	 1.9525334718	 1.0213535193	-1.9040229264	 0.127293
73.98	134.8791	210.8619	287.2065	324.8246	356.0529	429.0864	451.5597	576.4436	620.1635	702.4807	756.9475	801.4541	832.0318	864.2864	929.1356	960.7679	990.1329	1013.361	1044.1991	1073.4444	1080.5008	1115.0866	1132.3008	1172.6982	1187.9375	1238.2	1268.7931	1314.2702	1321.8244	1352.9446	1397.8565	1412.6473	1430.5041	1465.1524	1478.1484	1509.1459	1707.642	1789.8586	2873.2094	2993.9728	3020.7788	3040.7767	3064.9163	3099.165	3121.9709	3139.3254	3184.8133
O=CC1=CCN2CC2C1	O=CC1=CCN2C[C@H]2C1	
InChI=1S/C7H9NO/c9-5-6-1-2-8-4-7(8)3-6/h1,5,7H,2-4H2	InChI=1S/C7H9NO/c9-5-6-1-2-8-4-7(8)3-6/h1,5,7H,2-4H2/t7-,8?/m1/s1
