15
gdb 24943	4.91449	1.28187	1.02324	4.0514	73.09	-0.1814	0.0156	0.197	1082.7669	0.115136	-416.873596	-416.866211	-416.865267	-416.905709	28.186	
O	 0.0421138917	 0.0049271812	 0.0231842767	-0.360886
C	-0.018158117	 1.2094126488	 0.0021528261	 0.409827
C	-1.2899498947	 2.1061607777	 0.0279526447	-0.499001
C	-0.7207615078	 3.4950249854	 0.0498279001	 0.255521
C	 0.6421271299	 3.3852766462	 0.0151340912	 0.409309
N	 1.2196005262	 4.6127646166	-0.0047536861	-0.392065
C	 0.1896433932	 5.5547058677	 0.0266775137	-0.087831
C	-1.0154245311	 4.8876153413	 0.0555841143	-0.313101
N	 1.0864369936	 2.0657506584	-0.0450557603	-0.447722
H	-1.8964176888	 1.8706234568	-0.8542665516	 0.143581
H	-1.8873495144	 1.8290428875	 0.9036509951	 0.142979
H	 2.2008899046	 4.8249912402	-0.0269124733	 0.263524
H	 0.4189211756	 6.6068616009	 0.0365201519	 0.119024
H	-1.9857323522	 5.359287884	 0.0825518702	 0.097615
H	 2.0280227911	 1.7222796172	 0.0412319575	 0.259228
66.2166	122.7338	265.9464	344.1558	371.8678	386.8238	543.3642	548.6706	562.7355	611.0782	625.7629	708.1427	721.4639	820.0142	826.7002	836.9169	938.2637	960.2741	1065.0923	1074.6258	1135.28	1153.4167	1210.8072	1243.4843	1263.0186	1303.2253	1384.1713	1437.1367	1456.5158	1493.0685	1598.3852	1615.2368	1841.5502	3042.9543	3074.6103	3247.5548	3280.8298	3667.0618	3689.6221
O=C1CC2=C(NC=C2)N1	O=C1Cc2c([nH]cc2)N1	
InChI=1S/C6H6N2O/c9-5-3-4-1-2-7-6(4)8-5/h1-2,7H,3H2,(H,8,9)	InChI=1S/C6H6N2O/c9-5-3-4-1-2-7-6(4)8-5/h1-2,7H,3H2,(H,8,9)
