20
gdb 13286	6.76294	0.82429	0.77664	1.1303	72.7	-0.2447	0.0844	0.3291	1504.0228	0.176132	-386.109613	-386.100488	-386.099544	-386.144614	31.399	
C	-0.015264477	 1.3413442633	 0.2022831114	-0.227367
O	-0.0019244368	-0.0553267543	 0.03950665	-0.232137
C	-1.2979190475	-0.6137359375	-0.000432245	-0.051062
C	-1.1685495459	-2.1250817617	-0.1415120973	-0.220183
C	-2.5183290981	-2.8168081889	-0.1868615595	 0.161097
C	-2.5561441113	-4.3551733596	-0.0455198493	-0.30003
C	-3.4505238775	-4.0773583913	 1.1789816653	-0.056942
O	-3.2711755281	-2.6527515346	 1.0436207148	-0.294474
H	 1.0237719533	 1.6795548005	 0.2265280913	 0.124067
H	-0.5332042819	 1.8465932726	-0.6291513071	 0.100654
H	-0.5083904373	 1.6402622015	 1.1411515739	 0.103647
H	-1.8560527338	-0.3712483671	 0.9178737269	 0.107239
H	-1.8697554185	-0.196022351	-0.8484560627	 0.079348
H	-0.6143128113	-2.357772014	-1.0596571763	 0.104233
H	-0.5855915497	-2.5134914086	 0.7013615372	 0.106082
H	-3.1055159525	-2.4443151906	-1.0400466677	 0.070393
H	-3.0170824278	-4.9045992281	-0.8673922956	 0.10958
H	-1.588035364	-4.8027325002	 0.1890858907	 0.111396
H	-4.50226912	-4.3688673373	 1.0611207123	 0.099849
H	-3.0889846141	-4.4466635631	 2.1456996768	 0.10461
57.2906	74.5317	95.9059	117.68	148.953	233.6819	289.0115	321.0543	461.3036	489.5083	741.3368	793.5503	824.4991	884.056	931.6902	975.0885	984.6365	1016.4391	1039.9809	1091.7728	1109.799	1154.8234	1164.2991	1173.9317	1187.9503	1214.6897	1225.6543	1242.5837	1257.4676	1282.04	1310.1966	1313.8073	1366.902	1401.9653	1428.3701	1478.3056	1481.5951	1484.9316	1490.5469	1505.3221	1532.5707	1534.3539	2943.7806	2967.0793	2983.811	2995.2972	3008.7751	3013.17	3031.645	3054.8748	3076.5527	3080.6265	3110.3671	3132.8722
COCCC1CCO1	COCC[C@H]1CCO1	
InChI=1S/C6H12O2/c1-7-4-2-6-3-5-8-6/h6H,2-5H2,1H3	InChI=1S/C6H12O2/c1-7-4-2-6-3-5-8-6/h6H,2-5H2,1H3/t6-/m0/s1
