21
gdb 97944	5.1263	0.56719	0.54329	1.9529	88.17	-0.2429	0.0512	0.2942	2097.2484	0.181407	-387.046639	-387.036356	-387.035412	-387.085256	35.273	
C	-0.3523531289	 1.4743216952	-0.1967241696	-0.363101
C	 0.1520956498	 0.0386243166	 0.0380384632	-0.313155
C	 0.9097483668	-0.4929151823	-1.0908796801	 0.105051
C	 1.5368880162	-0.8981184912	-2.036701266	 0.023282
C	 2.281281249	-1.4344800081	-3.1719616191	-0.374089
C	 2.0696656608	-2.9418280006	-3.3594890672	-0.012872
C	 0.6829544808	-3.3744363706	-3.8831868431	-0.070971
O	 1.2471381832	-3.8358580116	-5.1297809133	-0.272114
C	 2.5858065593	-3.5353425572	-4.6891980218	-0.090761
H	 0.4846763728	 2.1563715263	-0.3688682072	 0.127742
H	-1.0071312051	 1.5176577821	-1.0712634913	 0.127686
H	-0.9136818845	 1.8290743432	 0.6728647071	 0.113759
H	 0.7758624805	 0.0134680254	 0.9409453579	 0.127224
H	-0.7018585513	-0.6190512783	 0.2459107816	 0.127416
H	 1.9808604846	-0.9152238703	-4.0926063391	 0.130083
H	 3.3538848316	-1.2334021543	-3.0461131185	 0.125877
H	 2.3977346646	-3.4757019319	-2.4654878142	 0.088235
H	 0.198092283	-4.187036226	-3.3282299655	 0.100008
H	-0.0413404399	-2.5634769098	-4.0301198858	 0.105469
H	 3.0933157786	-2.8294068068	-5.3606549422	 0.097536
H	 3.2012766881	-4.4394114997	-4.5971371558	 0.097697
11.3311	44.1381	57.8833	79.9985	158.3966	182.9769	266.514	297.9988	360.6345	384.3719	479.6315	515.3523	740.8613	779.3381	785.754	866.6034	887.173	889.0957	959.1963	977.4414	1036.7763	1052.698	1079.5224	1095.2408	1105.3459	1136.1677	1158.3041	1163.5191	1164.1689	1238.8292	1266.878	1286.4388	1309.6548	1325.5112	1350.9072	1369.6254	1393.2245	1408.677	1473.1541	1476.8053	1494.8445	1505.8906	1511.9593	1537.1354	2365.4553	2999.2352	3006.8434	3016.0712	3018.4677	3036.2456	3041.7393	3044.2029	3044.9721	3054.6466	3093.4095	3117.4235	3123.7466
CCC#CCC1COC1	CCC#CCC1COC1	
InChI=1S/C8H12O/c1-2-3-4-5-8-6-9-7-8/h8H,2,5-7H2,1H3	InChI=1S/C8H12O/c1-2-3-4-5-8-6-9-7-8/h8H,2,5-7H2,1H3
