17
gdb 108725	3.23245	1.17852	0.96833	4.1653	75.98	-0.241	-0.0654	0.1755	1235.7472	0.1355	-421.83262	-421.824433	-421.823489	-421.865932	30.337	
C	-0.2085403701	 1.5331684614	-0.0482251965	-0.381116
C	 0.0734384416	 0.0189647029	 0.0061478941	-0.296843
C	 0.803587821	-0.4797800421	-1.199685842	 0.347831
C	 2.0501152753	-0.9792827113	-1.2685859109	-0.330223
C	 2.4111998769	-1.3414435603	-2.6648392067	 0.416614
O	 3.4768833945	-1.7239602959	-3.0834508054	-0.32132
C	 1.1531916114	-1.0828974107	-3.497094208	-0.094849
O	 0.0325010286	-1.8748184001	-3.0607204334	-0.247154
C	 0.1667436834	-0.5266646417	-2.5708377025	-0.063872
H	 0.7242597317	 2.1021082274	-0.1001614418	 0.131018
H	-0.8142971317	 1.7996087388	-0.9200063298	 0.125008
H	-0.7537606462	 1.8504806642	 0.8449601651	 0.127057
H	 0.6509141467	-0.2164507913	 0.905675059	 0.116721
H	-0.8811929124	-0.5182628351	 0.0879746619	 0.125382
H	 2.7269509488	-1.1373226379	-0.4380460997	 0.119601
H	 1.2159345324	-0.8678842484	-4.5587522712	 0.116847
H	-0.6180085119	 0.1620033901	-2.867223102	 0.109298
58.1347	122.6938	184.7229	199.9483	261.5897	303.3721	380.335	468.4267	548.774	602.1304	679.0524	749.4215	793.3744	830.8989	845.9767	863.9951	896.1307	918.2161	963.5204	1015.8932	1058.1475	1082.6256	1094.9875	1165.9936	1184.569	1236.5663	1262.0009	1289.3412	1343.1258	1352.4047	1399.3469	1411.3586	1479.9928	1499.7228	1506.1611	1664.0987	1825.0717	3020.2937	3041.7774	3076.8701	3113.5546	3119.952	3167.7251	3181.4734	3213.9484
CCC1=CC(=O)C2OC12	CCC1=CC(=O)[C@H]2O[C@@H]12	
InChI=1S/C7H8O2/c1-2-4-3-5(8)7-6(4)9-7/h3,6-7H,2H2,1H3	InChI=1S/C7H8O2/c1-2-4-3-5(8)7-6(4)9-7/h3,6-7H,2H2,1H3/t6-,7+/m0/s1
