17
gdb 70015	3.64521	1.47689	1.22379	2.5456	73.69	-0.2201	0.0088	0.2289	1024.8131	0.13751	-417.950843	-417.94358	-417.942635	-417.98222	28.901	
O	-0.005888755	 1.4286959542	-0.0469095742	-0.44878
C	 0.0158052493	 0.0673297886	 0.1049896914	 0.291076
C	-0.1744855769	-0.922383261	-1.0454521124	-0.346822
C	-1.1559826084	-0.9021513763	 0.1047709456	-0.07812
N	-0.6127529362	-1.5396202676	 1.3210683207	-0.078337
C	-0.1274668646	-2.893461531	 1.6129243892	-0.205028
C	 1.186590924	-2.5086389107	 2.3764048845	-0.167045
N	 1.6226421496	-1.1995732663	 1.7973926864	-0.342864
C	 0.5591526931	-0.7716488361	 1.2531593719	 0.263932
H	 0.8133621087	 1.7017825659	-0.4754962498	 0.298891
H	-0.5321453546	-0.4566455844	-1.9599320038	 0.125627
H	 0.5078806103	-1.7550291134	-1.188148938	 0.12627
H	-2.2152580936	-0.7077929696	 0.0015209476	 0.119225
H	-0.8300553118	-3.4666560659	 2.2215584994	 0.1137
H	 0.0949802125	-3.4600091396	 0.6956643485	 0.098474
H	 0.9937423471	-2.3950251026	 3.4506796462	 0.116237
H	 1.9787262164	-3.2511328743	 2.2552175568	 0.113563
168.9643	179.8404	255.0855	270.6271	303.8101	400.1911	482.1045	524.0304	589.6206	670.3331	707.0978	785.453	841.2888	858.5632	899.863	912.3217	950.6874	966.0332	986.7091	1014.3263	1039.4345	1063.7799	1092.944	1141.63	1175.4511	1191.1145	1222.7035	1240.3693	1266.4175	1297.498	1320.3225	1345.6201	1421.0709	1486.9725	1488.4495	1509.4465	1741.6908	2989.0772	3030.8026	3098.1109	3105.62	3116.6102	3203.7726	3210.5753	3793.4213
OC12CC1N1CCN=C21	O[C@]12C[C@H]1N1CC[N][C]21	
InChI=1S/C6H8N2O/c9-6-3-4(6)8-2-1-7-5(6)8/h4,9H,1-3H2	InChI=1S/C6H8N2O/c9-6-3-4(6)8-2-1-7-5(6)8/h4,9H,1-3H2/t4-,6-/m1/s1
