16
gdb 23889	3.16448	1.40313	1.22022	0.9193	53.59	-0.2572	0.0788	0.336	1020.4129	0.126621	-511.437536	-511.428809	-511.427865	-511.471093	31.242	
C	-0.07387604	 1.5712954585	 0.0357648937	-0.388597
C	 0.0434413738	 0.0460955039	 0.0224841041	-0.175914
C	 0.7653922174	-0.4837345029	-1.2244344845	-0.110772
N	 2.1501398565	-0.0277132931	-1.2615415018	-0.50821
C	 0.65547424	-2.0091600362	-1.3067917697	 0.270749
F	-0.6196913549	-2.4239716384	-1.3614468142	-0.077757
F	 1.2748522081	-2.4786623645	-2.4053618994	-0.086904
F	 1.229787308	-2.6032178131	-0.2449451882	-0.089245
H	 0.911159979	 2.0377020297	-0.0383786408	 0.138655
H	-0.6771216243	 1.9268324675	-0.8068801319	 0.114658
H	-0.553665799	 1.9147496344	 0.9568165719	 0.113572
H	 0.5870838041	-0.2999403473	 0.9105839036	 0.105405
H	-0.9498226654	-0.4113548494	 0.0709864159	 0.114745
H	 0.259354745	-0.1053760408	-2.1215332073	 0.106347
H	 2.660798559	-0.4295597873	-0.4794593158	 0.234417
H	 2.604839383	-0.359292391	-2.1065848554	 0.238851
74.6076	93.3864	174.4136	211.4644	250.7148	290.6082	311.2959	344.4167	403.5143	474.2691	555.7871	572.4899	685.2303	783.3759	818.4568	886.1243	928.4642	1011.8776	1047.3686	1074.4905	1158.4437	1164.835	1201.8761	1243.598	1275.8817	1330.9218	1335.9235	1393.1067	1404.523	1415.1244	1489.363	1495.9946	1511.33	1665.829	3030.9678	3039.8507	3045.7894	3082.415	3105.4192	3130.8047	3491.9109	3574.1193
CCC(N)C(F)(F)F	CC[C@@H](N)C(F)(F)F	
InChI=1S/C4H8F3N/c1-2-3(8)4(5,6)7/h3H,2,8H2,1H3	InChI=1S/C4H8F3N/c1-2-3(8)4(5,6)7/h3H,2,8H2,1H3/t3-/m1/s1
