22
gdb 101726	3.35343	0.76877	0.71205	2.5646	79.32	-0.2265	0.0577	0.2843	1663.3418	0.192506	-441.44115	-441.430834	-441.42989	-441.477055	37.92	
C	-0.3500014481	 1.3337344469	 0.0592291315	-0.317443
N	 0.047192431	-0.0632493321	 0.1261508903	-0.074256
C	 1.4215399037	-0.3959171566	-0.2266187851	-0.267528
C	 0.9479516288	-0.5384363821	 1.1803349659	 0.032186
C	 1.496306731	 0.3424882409	 2.2861857614	-0.261534
C	 0.5831172754	 0.4071066976	 3.5143186758	 0.103138
O	 0.3763935186	-0.8859769779	 4.0989374383	-0.438078
C	 1.0982116007	 1.3600853876	 4.5958707379	-0.061976
O	 0.2670593301	 1.3297772549	 5.7341777288	-0.424273
H	 0.4501966179	 2.0574498579	 0.2825697761	 0.097202
H	-0.7074335425	 1.5429746858	-0.9542136663	 0.12695
H	-1.1798757262	 1.5126295991	 0.750946661	 0.125755
H	 1.5612830132	-1.2648516785	-0.8651191511	 0.113559
H	 2.1055888892	 0.4288441786	-0.4310838468	 0.100357
H	 0.6814165985	-1.5343366318	 1.5291773562	 0.098041
H	 2.4749068452	-0.0531174595	 2.5984344437	 0.094457
H	 1.6880106036	 1.3584475238	 1.9253671384	 0.106194
H	-0.4218611058	 0.7296379526	 3.2190497768	 0.105389
H	 1.2448518569	-1.2667927997	 4.2794553265	 0.281464
H	 2.1405870956	 1.0854703188	 4.8474247085	 0.0692
H	 1.1147897701	 2.3903777079	 4.222890238	 0.106281
H	 0.0202331833	 0.4016252059	 5.8424497142	 0.284917
54.727	62.0812	118.8034	143.7326	200.7658	251.1339	290.1814	315.3797	340.4141	365.1472	402.5333	465.1724	510.6549	520.4107	591.188	744.8261	787.0914	849.4616	892.6482	935.752	1016.5114	1038.5861	1045.4485	1087.7748	1096.4488	1114.0949	1122.4295	1134.0208	1143.383	1170.6844	1203.0127	1206.1427	1227.1004	1268.4595	1317.5248	1341.8811	1360.8453	1380.1439	1420.181	1427.1354	1444.3539	1448.5505	1472.6743	1490.777	1503.7915	1508.0384	1514.1615	2921.8287	2970.3389	2999.2372	3055.0452	3061.4236	3065.1517	3075.8598	3079.4892	3098.9248	3124.7968	3165.2938	3759.2848	3777.5571
CN1CC1CC(O)CO	CN1C[C@H]1C[C@@H](O)CO	
InChI=1S/C6H13NO2/c1-7-3-5(7)2-6(9)4-8/h5-6,8-9H,2-4H2,1H3	InChI=1S/C6H13NO2/c1-7-3-5(7)2-6(9)4-8/h5-6,8-9H,2-4H2,1H3/t5-,6-,7?/m1/s1
