12
gdb 21584	6.05196	1.64379	1.2943	4.3305	60.81	-0.2284	-0.0673	0.1611	857.1968	0.085761	-410.860843	-410.854421	-410.853477	-410.891253	24.529	
N	-0.0401461027	 1.3751551342	-0.0827121684	-0.570109
C	-0.0236967576	-0.0070986102	-0.0348296881	 0.375304
C	-1.1989352557	-0.7813443594	-0.0730821498	-0.049478
N	-1.1358046934	-2.0972351993	-0.0868466793	-0.313247
C	 0.1030511517	-2.6119082672	-0.0744336373	 0.480564
O	 0.2199145929	-3.9491638936	-0.0987009861	-0.393051
N	 1.2413822297	-1.9312037031	-0.0348581129	-0.234242
N	 1.1683279053	-0.6055552575	-0.005346819	-0.243796
H	 0.8509226123	 1.7860892776	 0.1605875852	 0.263018
H	-0.8223269456	 1.8270257708	 0.3665986609	 0.255893
H	-2.1848327053	-0.3202846285	-0.0901897772	 0.122494
H	-0.6785920115	-4.3028613738	-0.1247740079	 0.306651
115.0018	310.0903	342.6492	380.3011	426.2681	474.8653	494.756	535.9902	555.4476	639.5829	672.3184	820.2233	828.6466	890.851	953.6991	1055.8906	1083.0818	1166.5722	1213.7196	1340.2712	1382.6379	1442.4799	1500.7458	1568.5577	1627.9343	1650.1307	3143.8446	3562.1547	3670.9155	3795.0967
NC1=CN=C(O)N=N1	Nc1cnc(O)nn1	
InChI=1S/C3H4N4O/c4-2-1-5-3(8)7-6-2/h1H,(H2,4,6)(H,5,7,8)	InChI=1S/C3H4N4O/c4-2-1-5-3(8)7-6-2/h1H,(H2,4,6)(H,5,7,8)
