21
gdb 88001	2.83065	1.28173	1.12361	1.7681	83.16	-0.2199	0.0764	0.2963	1209.0394	0.181174	-387.041609	-387.032702	-387.031757	-387.075124	34.381	
C	-0.1200787016	 1.43882455	-0.0917335597	-0.408792
C	 0.0950606739	-0.0570118367	-0.0311076211	-0.056412
C	 1.4868396668	-0.645431614	-0.1348454777	-0.356225
C	 0.7394538318	-0.6952667212	 1.1631457565	 0.201138
C	 1.1014155702	-0.0741266626	 2.5099559008	-0.146407
O	 0.6309517103	-1.2558859838	 3.2033156611	-0.319525
C	 0.2928383283	-1.8931671848	 1.9679238288	 0.41816
C	-0.903381897	-2.7757570336	 1.8385159391	-0.339897
C	 0.5055551413	-3.354382857	 1.7525632599	-0.336226
H	 0.7041117099	 1.9784546464	 0.3871358338	 0.115675
H	-0.1825686036	 1.7867250596	-1.1284802279	 0.120281
H	-1.0462454626	 1.731045642	 0.4154509361	 0.121615
H	-0.6943556467	-0.6447910295	-0.4955341171	 0.084989
H	 1.6220997272	-1.5720261166	-0.6843804797	 0.112321
H	 2.3253212693	 0.0417401134	-0.209314949	 0.110571
H	 2.1699627616	 0.1005979767	 2.6864690674	 0.102908
H	 0.5335758961	 0.8186174417	 2.7999492897	 0.103546
H	-1.4696570344	-2.9710834309	 2.7429496255	 0.124161
H	-1.4991865312	-2.7193312327	 0.9326698934	 0.112207
H	 0.8720801046	-3.691393855	 0.7877481672	 0.111743
H	 0.8624202657	-3.9297528514	 2.6001425629	 0.124168
73.7716	129.8359	164.5355	194.7433	230.9444	258.4088	355.281	400.9764	439.7767	524.6774	547.7614	598.0768	755.7597	790.334	857.1721	870.4021	875.4037	894.3031	922.976	954.3928	975.5226	1008.7785	1020.2106	1042.2876	1047.292	1061.8609	1084.7826	1115.4315	1127.2445	1155.1311	1169.0572	1185.2571	1191.4644	1235.5747	1309.3052	1356.9335	1374.174	1416.5502	1443.6785	1447.749	1485.6756	1491.643	1498.4218	1518.0676	1528.917	3010.6617	3027.5539	3053.6963	3090.9802	3093.2963	3115.5127	3123.2106	3125.6935	3127.1014	3199.7458	3206.9339	3221.3857
CC1CC11COC11CC1	C[C@H]1C[C@]21COC12CC1	
InChI=1S/C8H12O/c1-6-4-7(6)5-9-8(7)2-3-8/h6H,2-5H2,1H3	InChI=1S/C8H12O/c1-6-4-7(6)5-9-8(7)2-3-8/h6H,2-5H2,1H3/t6-,7+/m0/s1
