16
gdb 44063	3.23861	1.70208	1.51806	3.6918	71.04	-0.25	0.0183	0.2683	904.9442	0.12551	-437.777755	-437.771321	-437.770377	-437.808313	26.748	
N	 0.0398496943	 1.2041144181	 0.0105956808	-0.576574
C	-0.0453765028	-0.0515443432	 0.024391643	 0.470442
O	 0.9745259149	-0.9645476303	 0.1168696081	-0.279343
C	 0.2766112591	-2.2643080814	 0.0825983316	 0.317855
C	 1.0527269419	-3.0538947184	-0.997993818	-0.171762
O	 0.2735668443	-2.3127203438	-2.0174161674	-0.307073
C	-0.7408936186	-2.0962592307	-0.9893817582	 0.133658
C	-1.2552300138	-0.9273359962	-0.049788789	-0.215521
C	-0.858840136	-2.0009737621	 1.1148928424	-0.33146
H	 1.0164607764	 1.4991573927	 0.0678071097	 0.225627
H	 2.1216380755	-2.8512147787	-1.0755563756	 0.139819
H	 0.8343042176	-4.1255043343	-1.0409961144	 0.119059
H	-1.4969109116	-2.8841020692	-1.0532294492	 0.100662
H	-2.2322227249	-0.4575601206	-0.1200130534	 0.109682
H	-1.5875588256	-2.8052324754	 1.2111952619	 0.128923
H	-0.5859294008	-1.5827851565	 2.0847693677	 0.136007
149.5571	296.3988	337.4576	359.3246	453.1334	477.0108	572.877	615.2179	728.696	752.985	789.6405	825.9847	848.7323	885.3331	888.6181	896.5669	921.2413	964.8743	992.5327	1005.5554	1030.899	1066.5741	1113.8811	1123.7422	1172.3819	1189.0705	1206.0662	1220.9546	1267.8447	1295.5981	1326.4717	1380.8088	1480.7369	1489.556	1811.0579	3053.3145	3065.1584	3090.2688	3139.6693	3166.1251	3170.2509	3470.1752
N=C1OC23COC2C1C3	[NH][C]1O[C@]23CO[C@@H]2[C@H]1C3	
InChI=1S/C6H7NO2/c7-5-3-1-6(9-5)2-8-4(3)6/h3-4,7H,1-2H2	InChI=1S/C6H7NO2/c7-5-3-1-6(9-5)2-8-4(3)6/h3-4,7H,1-2H2/t3-,4-,6-/m1/s1
