17
gdb 125212	3.18381	1.363	0.96576	2.8525	82.22	-0.2319	-0.0425	0.1893	1205.1832	0.13533	-418.007266	-417.998734	-417.99779	-418.040357	31.812	
C	 0.0084899958	 1.5077905644	-0.0565208453	-0.46859
C	-0.0602112016	 0.0177818485	 0.0426834946	 0.408655
C	-1.1381442396	-0.750357434	-0.204186797	-0.306658
C	-1.0508630652	-2.1855078545	-0.0651823233	 0.236471
N	-1.9648161005	-3.0711269679	-0.2571097029	-0.529802
C	 0.2908594143	-2.6466381766	 0.355954274	 0.340067
C	 0.5302212318	-4.1145551805	 0.541417089	-0.451946
N	 1.3004280963	-1.8794725338	 0.5834567148	-0.145135
O	 1.1296692563	-0.4973917675	 0.4235764151	-0.285424
H	 0.7717467614	 1.8070385084	-0.7820967485	 0.153914
H	-0.9554354087	 1.9156239907	-0.364601397	 0.139107
H	 0.2885486549	 1.9419952988	 0.908679996	 0.153906
H	-2.0702958609	-0.2876382592	-0.5072745028	 0.105957
H	-2.8378809641	-2.6215952881	-0.5433097558	 0.210482
H	 0.3165226818	-4.6453137869	-0.3908324447	 0.151558
H	 1.5601518046	-4.2944339236	 0.8509811169	 0.135929
H	-0.1645334066	-4.5116942484	 1.2870895068	 0.151509
97.0254	128.2719	174.6215	181.5378	287.1977	317.4544	332.4838	424.5107	457.2458	502.0457	554.374	575.6901	722.8659	748.5047	756.7656	832.8903	886.5005	906.1838	989.8138	1029.6336	1059.0091	1059.726	1065.1885	1122.9588	1182.6233	1250.0132	1351.1325	1405.323	1413.1104	1447.7841	1462.655	1465.0806	1469.0251	1483.6259	1642.2665	1655.1215	1707.6479	3045.2666	3054.7293	3104.3509	3115.1316	3145.2664	3156.7145	3196.7346	3436.8719
CC1=CC(=N)C(C)=NO1	C[C]1C=C([NH])C(=NO1)C	
InChI=1S/C6H8N2O/c1-4-3-6(7)5(2)8-9-4/h3,7H,1-2H3	InChI=1S/C6H8N2O/c1-4-3-6(7)5(2)8-9-4/h3,7H,1-2H3
