15
gdb 54899	3.96939	1.13114	0.88418	6.7329	83.83	-0.19	-0.043	0.1471	1230.4616	0.114064	-454.004009	-453.996006	-453.995062	-454.036459	30.803	
N	 0.155999447	 1.3637257908	 0.178299091	-0.563716
C	-0.0173839183	-0.0009632381	 0.0069923117	 0.185435
N	 1.1521432154	-0.7089403747	-0.1616626717	-0.541393
H	 1.9229257229	-0.4005426162	 0.4154116766	 0.259016
H	 1.0204809401	-1.7110376371	-0.1559508621	 0.280212
C	-1.2323720308	-0.6213760964	 0.009848895	 0.385677
O	-1.2688676423	-2.0042032353	 0.0360154344	-0.282483
C	-2.6148294001	-2.4160996816	 0.0280350477	 0.38775
O	-2.9049120467	-3.5823875412	 0.0440828248	-0.365338
C	-3.4106148488	-1.1938403382	-0.0050149155	-0.27435
C	-2.5663064229	-0.1295586982	-0.0211855352	-0.221861
H	 0.8122846666	 1.7768034218	-0.473085211	 0.2594
H	-0.6989722371	 1.8959137245	 0.240710455	 0.260445
H	-4.4888051258	-1.1991679571	-0.0199972579	 0.120975
H	-2.8433548792	 0.9154621071	-0.0612811828	 0.110231
118.0595	133.3163	171.2031	293.9004	352.775	379.045	422.3811	443.7559	519.2446	573.0457	607.7221	621.9858	671.9328	714.5816	732.9057	736.3625	800.2395	884.381	901.3046	904.9412	1050.074	1088.1202	1106.4889	1140.1504	1253.6822	1281.0906	1401.9084	1458.951	1559.2904	1630.1045	1636.458	1730.6173	1853.0033	3218.4067	3268.0466	3540.1222	3550.1538	3658.4114	3660.1981
NC(=[NH2+])[C-]1OC(=O)C=C1	NC(=[NH2])[C]1OC(=O)C=C1	
InChI=1S/C5H5N2O2/c6-5(7)3-1-2-4(8)9-3/h1-2H,(H3,6,7)/q-1/p+1	InChI=1S/C5H6N2O2/c6-5(7)3-1-2-4(8)9-3/h1-2H,6-7H2
