20
gdb 40549	3.60593	1.19384	1.02061	1.3309	86.21	-0.2124	0.0228	0.2352	1226.3254	0.173298	-365.982999	-365.97525	-365.974306	-366.01554	30.789	
C	 0.2171092234	 1.5086804832	 0.0436640613	-0.245218
N	 1.2820250467	 0.5164254827	-0.1276828708	-0.308818
C	-0.1124872019	 0.0513590767	 0.0500118162	-0.146119
C	-0.437583919	-0.6948455324	 1.2810131883	 0.416164
C	-1.3772123929	-1.6435584672	 1.3940385385	-0.217901
C	-1.5032490257	-2.1740587953	 2.8057026619	-0.265693
C	-0.3673244719	-1.4718823127	 3.549961768	-0.042608
C	 1.0423477952	-1.7052161176	 3.0741261875	-0.271727
C	 0.2790621981	-0.4945746621	 2.5795421414	-0.131207
H	 0.252916961	 2.060923568	 0.978447456	 0.120009
H	-0.1105863019	 2.0935120943	-0.8123217582	 0.111874
H	 1.5453861839	 0.4483836796	-1.1070045558	 0.233031
H	-0.6322580279	-0.3071643232	-0.8366608599	 0.078202
H	-1.9814993704	-2.0158028259	 0.5733393051	 0.08075
H	-2.481641396	-1.9238156551	 3.2394295685	 0.103227
H	-1.4205621946	-3.2682557039	 2.8497151538	 0.105525
H	-0.5120994475	-1.2043343385	 4.5899922101	 0.081178
H	 1.8381064716	-1.5341204796	 3.7917784698	 0.106113
H	 1.2357311004	-2.5030532481	 2.364042259	 0.109599
H	 0.6165403293	 0.4918769472	 2.8756153693	 0.083621
67.3088	137.7311	177.0088	289.1647	328.9505	389.7652	411.0113	574.9517	663.685	706.7578	779.2404	802.0034	809.3772	837.4646	858.224	894.7235	905.3475	915.6129	957.921	971.6128	993.0247	1007.4578	1053.3467	1070.9454	1082.3814	1094.7119	1099.9429	1115.2079	1148.8619	1183.3471	1204.586	1212.4928	1243.5046	1279.1496	1288.161	1317.0458	1371.0096	1396.1434	1430.1057	1474.0406	1485.4972	1512.3439	1695.0493	3005.3218	3033.1378	3106.0576	3121.4641	3122.8312	3171.1161	3178.5432	3184.5578	3191.5719	3211.8968	3506.4064
C1NC1C1=CCC2CC12	C1N[C@H]1C1=CC[C@H]2C[C@@H]12	
InChI=1S/C8H11N/c1-2-6(8-4-9-8)7-3-5(1)7/h2,5,7-9H,1,3-4H2	InChI=1S/C8H11N/c1-2-6(8-4-9-8)7-3-5(1)7/h2,5,7-9H,1,3-4H2/t5-,7+,8+/m0/s1
