17
gdb 47530	2.65263	1.8298	1.33083	4.2335	67.4	-0.2522	-0.0032	0.249	965.9881	0.138284	-458.977404	-458.970326	-458.969381	-459.008958	27.734	
O	 0.0270569964	 0.0327752729	-0.4076828048	-0.316192
C	 0.0134895459	 1.1514850139	 0.0297080048	 0.398065
O	-1.1663424082	 1.7182925108	 0.3792629554	-0.239463
C	-1.2710967834	 2.9027380499	 1.1946442166	-0.053621
C	-0.6547764117	 4.1743269117	 0.609576265	-0.248319
C	 0.8444377678	 3.9999543412	 0.3263230757	 0.104163
C	 1.1698396608	 3.1862304822	-0.9443202492	-0.270057
C	 1.2797944193	 2.0083907597	 0.0518546214	-0.030458
O	 1.3861294232	 2.9313220377	 1.1565082926	-0.286316
H	-2.3475615702	 3.0368051338	 1.3207805234	 0.121262
H	-0.8273684999	 2.696951694	 2.1710952431	 0.135854
H	-1.1755282516	 4.481512186	-0.3043713521	 0.11746
H	-0.8140628909	 4.9665792691	 1.3507362875	 0.115921
H	 1.3977509882	 4.9320701505	 0.4677799873	 0.089421
H	 0.4107368256	 3.1275942845	-1.7256643416	 0.124101
H	 2.1362764133	 3.4453468975	-1.3778427748	 0.123445
H	 2.1381648854	 1.3396394546	-0.0203517402	 0.114735
96.4424	204.4525	262.561	317.9822	363.6981	385.873	445.0117	577.1333	644.0477	709.3662	758.2589	797.991	845.3179	891.1337	921.0499	941.5657	957.5412	1011.7718	1047.7081	1061.2546	1088.6274	1113.8754	1132.9372	1208.4421	1238.8942	1245.934	1263.9252	1312.1997	1322.4779	1330.9518	1360.3777	1380.9806	1428.4956	1472.0154	1489.8095	1498.977	1836.1377	3035.9696	3069.928	3073.0361	3083.969	3085.4467	3114.5566	3125.3304	3146.066
O=C1OCCC2CC1O2	O=C1OCC[C@@H]2C[C@H]1O2	
InChI=1S/C6H8O3/c7-6-5-3-4(9-5)1-2-8-6/h4-5H,1-3H2	InChI=1S/C6H8O3/c7-6-5-3-4(9-5)1-2-8-6/h4-5H,1-3H2/t4-,5-/m1/s1
