15
gdb 127326	3.45294	1.79876	1.19171	4.4007	72.76	-0.2178	0.013	0.2308	972.5562	0.116312	-413.019779	-413.012666	-413.011722	-413.052078	26.161	
C	-0.0056693308	 1.4454976557	 0.0301336039	-0.352556
N	-0.0258634269	-0.0033082862	 0.0111682165	-0.168249
C	-0.0012005868	-0.8356932953	-1.1076877386	-0.116129
C	 0.0382965633	-2.1382986963	-0.7054041148	-0.128594
N	 0.045318672	-2.0966839455	 0.6779528821	 0.032662
N	 0.0700010014	-2.939604739	 1.7493425944	-0.292632
C	 0.0512477549	-2.0592756187	 2.7525129897	 0.031468
N	 0.0166559654	-0.7312711117	 2.431089191	-0.413329
C	 0.0120179734	-0.8102501057	 1.1091010093	 0.517846
H	 0.9966628498	 1.8367932879	-0.1749688372	 0.146175
H	-0.702709623	 1.8398289972	-0.7137080125	 0.143716
H	-0.3174860603	 1.7794153346	 1.0208990755	 0.176053
H	-0.0199058644	-0.4247818342	-2.1028042124	 0.145119
H	 0.054101411	-3.0532003232	-1.2696286905	 0.157168
H	 0.0642152909	-2.3995392995	 3.7777758435	 0.121283
44.8377	138.6894	224.2689	252.3245	348.118	536.5849	587.8644	621.092	648.6831	689.5525	739.2958	760.1389	775.6026	853.201	900.0588	979.6742	1038.4344	1099.9412	1139.5159	1154.9289	1203.8004	1251.0193	1264.1172	1286.0334	1330.1732	1417.0859	1439.3626	1460.5017	1488.1552	1505.3378	1508.0448	1584.1568	1647.7358	3037.9208	3105.143	3149.1227	3254.4995	3281.4871	3308.7174
CN1C=CN2N=CN=C12	Cn1ccn2ncnc12	
InChI=1S/C5H6N4/c1-8-2-3-9-5(8)6-4-7-9/h2-4H,1H3	InChI=1S/C5H6N4/c1-8-2-3-9-5(8)6-4-7-9/h2-4H,1H3
