19
gdb 68327	3.2755	1.04461	0.9323	3.9463	78.53	-0.2766	0.0091	0.2857	1311.1594	0.158475	-423.006279	-422.997719	-422.996775	-423.040389	31.836	
C	-0.1315644499	 1.4008181894	 0.0621682493	-0.520074
C	 0.0089306644	-0.0964482747	 0.0512294097	 0.289843
C	 0.6682076646	-1.0027314886	-1.0376100261	-0.262031
C	 0.1550559162	-1.9940879661	 0.0455215882	-0.096777
C	 0.7241776308	-1.007504372	 1.1079522983	-0.262177
C	-1.1368163193	-1.1455664038	 0.046195429	 0.156517
O	-1.9493519778	-1.1888272232	 1.2146525413	-0.209885
C	-3.2636035498	-1.4386386322	 1.0789075093	 0.159105
O	-4.0104423837	-1.4993833231	 2.009033988	-0.278128
H	 0.8490176255	 1.886966739	 0.0932381959	 0.125178
H	-0.6545758229	 1.7562980854	-0.8325177294	 0.119595
H	-0.6988291249	 1.7298570516	 0.9391379879	 0.134321
H	 0.1855269237	-1.0351687419	-2.0195827584	 0.091493
H	 1.7530620305	-0.9205059907	-1.1278195132	 0.102204
H	 0.2267065575	-3.0810923785	 0.0363908563	 0.082179
H	 1.8133021277	-0.9228780667	 1.1476342466	 0.091714
H	 0.2838589492	-1.0447014457	 2.1040263428	 0.12079
H	-1.7642480405	-1.1900524636	-0.8514090878	 0.078764
H	-3.5692585713	-1.5760275647	 0.0233171624	 0.077368
32.708	134.6811	163.2206	205.9353	215.4439	292.6397	368.7503	425.9796	448.6928	570.4639	635.7074	735.6891	756.2336	812.7867	902.8179	909.2465	921.0075	971.0903	1012.8152	1018.1177	1028.9208	1045.4903	1086.1181	1099.3737	1112.8631	1143.6142	1179.6458	1193.3739	1203.8716	1227.2215	1234.2116	1260.6712	1336.8787	1398.7075	1412.1551	1450.2	1488.706	1491.4618	1497.2561	1541.38	1863.9291	2946.5155	3030.0245	3043.1418	3051.1708	3066.7803	3097.2374	3103.1834	3122.3748	3124.7533	3147.2079
CC12CC(C1)C2OC=O	C[C@@]12C[C@@H](C1)[C@H]2OC=O	
InChI=1S/C7H10O2/c1-7-2-5(3-7)6(7)9-4-8/h4-6H,2-3H2,1H3	InChI=1S/C7H10O2/c1-7-2-5(3-7)6(7)9-4-8/h4-6H,2-3H2,1H3/t5-,6-,7+/m1/s1
