17
gdb 98239	2.46561	1.26953	0.90732	2.4654	66.28	-0.2618	-0.0022	0.2596	1267.7479	0.136283	-492.354868	-492.345443	-492.344499	-492.389965	33.198	
C	 0.1115904036	 1.3832400204	-0.225920998	-0.335212
N	-0.097956421	-0.052894176	-0.2039413867	-0.302681
C	-1.2527034754	-0.6079787529	 0.2089919134	 0.415541
O	-2.2111730083	-0.0024869753	 0.6644541278	-0.387667
C	-1.2966690382	-2.1594828777	 0.1164285024	-0.251867
N	-2.6469096828	-2.6341938183	 0.4019070551	-0.535719
H	-3.2069920578	-1.814243942	 0.6408169664	 0.264488
H	-2.5309021912	-3.3607324287	-1.2707762835	 0.313957
H	-2.6617334662	-3.264972875	 1.1938903759	 0.250199
C	-0.8394861708	-2.6563599298	-1.274568329	 0.434888
O	 0.2569154653	-2.4182190191	-1.7267561144	-0.359909
O	-1.7655083243	-3.361740938	-1.9043603079	-0.351269
H	 1.0885558441	 1.6317965646	 0.1989447792	 0.132105
H	 0.0617265374	 1.7808542112	-1.2460416499	 0.136644
H	-0.6720067404	 1.8495527966	 0.3716395133	 0.166457
H	 0.5367301915	-0.6654188468	-0.7048590905	 0.274393
H	-0.5557927256	-2.5413423332	 0.8280814164	 0.135653
68.6965	73.2212	96.9167	135.3791	196.2415	279.6333	323.9974	351.0136	382.0262	407.5634	507.1598	594.8438	629.6479	677.1671	721.3887	811.1229	888.2796	906.456	951.6034	987.9393	1054.3082	1128.7571	1151.4911	1179.9009	1185.1421	1251.7309	1263.5297	1278.8294	1371.1638	1444.3228	1462.0443	1495.6204	1502.7278	1597.8199	1645.903	1781.0509	1838.5377	3034.4472	3051.3219	3093.3381	3157.404	3297.0999	3447.1422	3531.3613	3586.0421
CNC(=O)C([NH3+])C([O-])=O	CNC(=O)[C@@H](N)C(=O)O	
InChI=1S/C4H8N2O3/c1-6-3(7)2(5)4(8)9/h2H,5H2,1H3,(H,6,7)(H,8,9)	InChI=1S/C4H8N2O3/c1-6-3(7)2(5)4(8)9/h2H,5H2,1H3,(H,6,7)(H,8,9)/t2-/m1/s1
