19
gdb 46899	3.36922	1.38264	1.06416	3.2564	77.4	-0.2335	0.0265	0.26	1132.1327	0.162425	-419.190072	-419.182361	-419.181417	-419.222351	30.573	
N	-0.0699326718	 1.2688090125	 0.3899292145	-0.488838
C	 0.0044248983	 0.0707210298	-0.0176354147	 0.383016
C	-1.2894085535	-0.7278437748	-0.1383173949	-0.232887
N	-1.332627583	-1.6803301564	-1.2469549121	-0.307557
C	-0.6982123382	-2.9265200587	-0.9261017047	 0.015583
C	 0.0950223407	-3.6255097727	-1.9955918218	-0.322957
C	 0.8069073024	-2.8572468853	-0.9016237403	-0.022369
C	 1.4169156311	-1.5190719254	-1.2310260432	-0.095359
O	 1.2182997702	-0.5269143172	-0.2046975217	-0.259838
H	 0.8712400868	 1.6577392993	 0.4835476986	 0.215816
H	-1.4533571227	-1.2212684996	 0.8368558644	 0.107689
H	-2.0816322258	 0.0119726942	-0.258700608	 0.132973
H	-2.2870543807	-1.8180853523	-1.5556065471	 0.227591
H	-1.1682124876	-3.5525385129	-0.1626096401	 0.077023
H	 0.1429463422	-4.7080861437	-1.9729107615	 0.116836
H	 0.0800638498	-3.1887285862	-2.9879473228	 0.12261
H	 1.3180855756	-3.4308200859	-0.135533581	 0.095207
H	 2.5042887329	-1.597630443	-1.3127542856	 0.113845
H	 1.0253355433	-1.1409914617	-2.1785814881	 0.121615
68.0387	173.983	268.9206	288.4941	330.314	359.115	422.0759	489.8216	512.4	605.5092	685.9753	730.9679	791.6131	835.497	857.7886	868.5031	926.8528	957.1618	975.1011	999.5762	1043.4707	1060.9585	1067.478	1098.9776	1135.8278	1142.7776	1169.9573	1183.8129	1238.0021	1290.1569	1303.6498	1330.6418	1354.1306	1383.745	1420.379	1431.5475	1466.3463	1477.4386	1488.341	1502.0599	1731.6074	2939.7898	3053.7264	3061.3461	3108.8133	3124.2693	3140.3051	3165.8444	3229.5237	3456.0084	3547.5326
N=C1CNC2CC2CO1	[NH][C]1CN[C@H]2C[C@H]2CO1	
InChI=1S/C6H10N2O/c7-6-2-8-5-1-4(5)3-9-6/h4-5,7-8H,1-3H2	InChI=1S/C6H10N2O/c7-6-2-8-5-1-4(5)3-9-6/h4-5,7-8H,1-3H2/t4-,5-/m0/s1
