15
gdb 126965	6.4756	0.81806	0.73499	5.9083	64.93	-0.2466	0.0214	0.268	1485.1807	0.11209	-491.103858	-491.095429	-491.094484	-491.137865	29.706	
C	-0.1008882199	 1.5443460235	-0.1004235337	-0.404587
C	-0.0221556859	 0.0434038384	 0.1495342816	-0.121189
N	-1.3489157282	-0.5622783581	 0.0382793705	-0.405003
C	-1.4826513329	-1.9032821248	 0.0159127771	 0.557618
N	-0.5386334413	-2.7814412416	-0.0969700641	-0.243815
O	-1.2610221567	-4.0239396769	-0.1484365751	-0.233254
C	-2.5791113608	-3.7892009663	-0.0304942454	 0.513477
O	-3.465612826	-4.5762169494	-0.0161129682	-0.361767
O	-2.7370966981	-2.4084010108	 0.0760939897	-0.24096
H	 0.8937028546	 1.9898126537	-0.0189413044	 0.137535
H	-0.4955310286	 1.7567849355	-1.0978855905	 0.13858
H	-0.7451906223	 2.0363882359	 0.6370320489	 0.123544
H	 0.6182824281	-0.4421094197	-0.5924139108	 0.151263
H	 0.4180856516	-0.1647625371	 1.1344305827	 0.12358
H	-2.1283332437	-0.0603895123	 0.4372497416	 0.264978
50.2297	92.461	126.3346	206.4278	260.9358	332.6896	342.9465	373.7034	437.9006	579.618	702.3171	728.9928	776.8996	794.9891	813.3192	889.188	922.6548	987.3141	1004.4934	1084.0349	1152.8661	1169.6541	1175.8608	1292.7005	1332.5312	1408.1034	1421.9855	1493.4077	1498.4585	1523.9755	1561.8128	1707.5859	1951.5221	3015.0757	3039.483	3086.5706	3112.7654	3130.4628	3619.4965
CCNC1=NOC(=O)O1	CCNc1noc(=O)o1	
InChI=1S/C4H6N2O3/c1-2-5-3-6-9-4(7)8-3/h2H2,1H3,(H,5,6)	InChI=1S/C4H6N2O3/c1-2-5-3-6-9-4(7)8-3/h2H2,1H3,(H,5,6)
