19
gdb 91185	2.05139	1.77426	1.60282	0.9283	75.19	-0.2375	0.0159	0.2534	987.9774	0.159571	-423.020458	-423.012312	-423.011368	-423.053025	32.492	
O	-0.1480211851	 1.4098598727	 0.6996757925	-0.427367
C	-0.0930132576	 0.1321592232	 0.1065102438	 0.071276
C	 0.4931016019	-1.0196182013	 0.9739923115	-0.274604
C	-0.914330452	-1.6885430294	 1.0246438658	-0.086549
C	-1.7354090999	-1.3602494346	 2.2415319986	-0.088385
C	-2.6820294278	-0.4493616954	 1.9973403627	-0.078037
C	-2.7009997024	 0.0041242866	 0.5547132901	-0.346828
C	-1.4453154722	-0.6705421141	-0.0335093908	 0.375732
O	-1.6181592728	-1.2568493511	-1.305097879	-0.490699
H	-0.4650641241	 1.3029612354	 1.6036005176	 0.282326
H	 0.3995095747	 0.2681704029	-0.8604544079	 0.085608
H	 1.2439512201	-1.6151764367	 0.4493948357	 0.108923
H	 0.9100094981	-0.6995504807	 1.9335714617	 0.094101
H	-0.9478486774	-2.7447246407	 0.7436843223	 0.084126
H	-1.5558047775	-1.8243664223	 3.2062413676	 0.094404
H	-3.3880250292	-0.0776004478	 2.7329805607	 0.095305
H	-3.6001363072	-0.3460858985	 0.0308660051	 0.11015
H	-2.6644739862	 1.0952342172	 0.4547046867	 0.113068
H	-1.7773781732	-0.5486997453	-1.939365555	 0.27745
53.2498	212.7094	235.2964	277.4335	334.6684	346.9434	375.0827	445.863	460.0846	510.586	570.8446	659.0626	742.2577	754.8253	808.4536	850.547	886.6503	923.8155	955.0978	979.7442	1012.4155	1030.3428	1039.3566	1090.4625	1096.1954	1132.6218	1138.5904	1159.53	1185.8197	1210.7999	1254.9701	1272.8678	1285.7118	1295.9581	1310.0579	1363.8689	1391.983	1423.9826	1470.1414	1475.538	1670.4182	3020.1201	3053.4947	3061.6159	3070.1233	3071.9868	3112.1767	3171.0159	3195.9907	3793.9372	3798.4024
OC1CC2C=CCC12O	O[C@H]1C[C@H]2C=CC[C@@]12O	
InChI=1S/C7H10O2/c8-6-4-5-2-1-3-7(5,6)9/h1-2,5-6,8-9H,3-4H2	InChI=1S/C7H10O2/c8-6-4-5-2-1-3-7(5,6)9/h1-2,5-6,8-9H,3-4H2/t5-,6+,7+/m1/s1
