15
gdb 26072	3.33314	1.19058	0.91074	2.2582	70.59	-0.2365	0.0024	0.2388	1204.0149	0.114378	-416.833894	-416.82591	-416.824966	-416.867129	29.268	
N	 0.5640685282	 1.5931681801	-0.1537903959	-0.496753
C	 0.1243958301	 0.2071957762	 0.0245826776	-0.254918
C	 0.3446887892	-0.6376852812	-1.1753841139	 0.266685
N	 0.517475825	-1.2583434307	-2.1353535778	-0.329922
C	 0.7839638508	-0.4016968467	 1.2357133296	 0.265904
C	 1.3053961188	 0.2866850112	 2.2875522164	-0.092248
O	 1.7911061861	-0.5716153322	 3.2200872122	-0.141614
C	 1.5749638287	-1.8298859554	 2.7544916405	 0.008432
C	 0.9622064497	-1.7928015905	 1.5444496858	-0.299257
H	 1.5553998481	 1.6076795389	-0.3771460659	 0.245951
H	 0.0758303084	 2.0153528707	-0.937696082	 0.246731
H	-0.9628114487	 0.2351000944	 0.1816986519	 0.148483
H	 1.3934853023	 1.3364165036	 2.5060503852	 0.155048
H	 1.915879379	-2.6300801821	 3.3900360412	 0.144044
H	 0.6824308842	-2.6360796063	 0.9327536452	 0.133435
52.1844	116.7596	177.1846	230.316	288.3033	333.9094	423.3217	473.0814	595.8681	622.0664	625.733	746.3553	759.0201	815.0421	844.3354	854.8441	894.4257	948.0161	998.7926	1051.067	1100.76	1109.0375	1186.1204	1206.0818	1253.802	1273.9598	1324.4143	1392.0182	1408.2645	1534.9887	1624.1422	1659.8422	2346.8513	3014.4447	3258.8154	3288.017	3299.4045	3495.5608	3579.0736
NC(C#N)C1=COC=C1	N[C@@H](C#N)c1cocc1	
InChI=1S/C6H6N2O/c7-3-6(8)5-1-2-9-4-5/h1-2,4,6H,8H2	InChI=1S/C6H6N2O/c7-3-6(8)5-1-2-9-4-5/h1-2,4,6H,8H2/t6-/m0/s1
