18
gdb 67846	2.30631	2.11421	1.54183	0.7454	75.01	-0.2264	0.0101	0.2365	925.5914	0.148944	-401.901891	-401.894751	-401.893807	-401.932881	29.667	
O	-0.0737676005	 1.3682332752	-0.0822357606	-0.494557
C	 0.0156015977	-0.0348703949	-0.0374390898	 0.397598
C	-1.2546942181	-0.6648400067	-0.5285721444	-0.110203
C	-1.7159238018	-1.574030236	 0.3332667237	-0.069294
C	-0.8500386889	-1.735485735	 1.5686763723	-0.294129
C	 0.295963196	-0.7390853442	 1.3202818329	-0.04156
N	 1.6488340206	-1.2476398188	 0.8460665448	-0.147446
C	 1.4443749063	-2.0747621615	-0.3579393987	-0.247717
C	 1.3754156414	-0.6122313139	-0.5105920923	-0.123485
H	 0.7607090338	 1.7317603279	 0.2351602147	 0.281294
H	-1.7127099889	-0.3929728453	-1.472518623	 0.102103
H	-2.6188325804	-2.1586756755	 0.187203776	 0.09958
H	-1.4090086334	-1.5120887793	 2.4856692148	 0.112661
H	-0.4758319626	-2.761166658	 1.6818722396	 0.11968
H	 0.4675394111	-0.0544429473	 2.1528197738	 0.08336
H	 2.3587995417	-2.5703365173	-0.6712593941	 0.120966
H	 0.546058017	-2.6743416929	-0.4717513836	 0.121015
H	 2.128655389	-0.0304874865	-1.0363825261	 0.090134
182.2551	229.9148	278.5957	313.5389	342.2781	416.9686	467.2442	530.2046	619.6925	659.0549	721.9007	754.609	769.7324	781.8116	858.4503	902.9457	933.2812	970.757	978.5897	1017.5931	1038.6262	1047.4979	1070.4244	1087.6741	1113.5265	1127.6502	1145.7982	1178.1798	1181.8843	1215.1091	1246.7623	1308.0118	1316.092	1338.1639	1352.4746	1420.7283	1475.3821	1501.8175	1672.3194	3024.4013	3051.0527	3094.1576	3116.4912	3140.4299	3179.0457	3200.1753	3209.6577	3796.1008
OC12C=CCC1N1CC21	O[C@]12C=CC[C@H]1N1C[C@@H]21	
InChI=1S/C7H9NO/c9-7-3-1-2-5(7)8-4-6(7)8/h1,3,5-6,9H,2,4H2	InChI=1S/C7H9NO/c9-7-3-1-2-5(7)8-4-6(7)8/h1,3,5-6,9H,2,4H2/t5-,6+,7-,8?/m1/s1
