15
gdb 51383	3.23021	1.20771	1.08266	4.6929	69.09	-0.2702	-0.001	0.2692	1131.072	0.112006	-453.894328	-453.886513	-453.885569	-453.927577	28.52	
N	-0.3280267703	 1.1164611472	-0.0916551973	-0.4332
C	-0.5850809937	-0.0696718583	 0.2405881478	 0.1379
O	-0.9041200443	-0.9755145607	-0.7218023966	-0.18594
C	-1.0186446163	-2.306056929	-0.3230833729	 0.092574
C	-1.9208447489	-2.7605775425	 0.7731646412	 0.012499
O	-3.0643349685	-1.8854001715	 0.8656671956	-0.267393
C	-3.4589546839	-2.2559194101	-0.4289284295	 0.476748
N	-4.4988923348	-1.9921623366	-1.0658536061	-0.542177
C	-2.2554180842	-3.1099450482	-0.6762875245	-0.258222
H	-0.132780534	 1.6752296281	 0.7364889896	 0.234088
H	-0.595450293	-0.4918141351	 1.2519350394	 0.098843
H	-0.0962798045	-2.8769175819	-0.4225866639	 0.126008
H	-1.678638984	-3.3628959861	 1.6384347135	 0.133394
H	-5.1218231595	-1.3794282134	-0.5378416877	 0.239942
H	-2.2238115601	-4.031777082	-1.2376685487	 0.134936
57.5896	117.1155	128.3583	190.1871	291.595	415.0637	438.5695	531.9473	692.3475	706.3419	751.5713	786.9341	823.4303	843.0282	871.3648	911.3532	958.5699	983.0901	990.9057	1038.3777	1043.6479	1052.1554	1074.8564	1103.4435	1188.8358	1212.2848	1274.8162	1293.1601	1326.5324	1402.4196	1428.621	1750.4208	1848.2165	3057.0829	3123.699	3211.0758	3236.3449	3489.6115	3519.8799
N=COC1C2OC(=N)C12	[NH][CH]O[C@H]1[C@H]2O[C]([NH])[C@@H]12	
InChI=1S/C5H6N2O2/c6-1-8-3-2-4(3)9-5(2)7/h1-4,6-7H	InChI=1S/C5H6N2O2/c6-1-8-3-2-4(3)9-5(2)7/h1-4,6-7H/t2-,3+,4-/m0/s1
