16
gdb 125791	3.27882	1.49181	1.04546	2.0248	71.33	-0.2428	-0.0093	0.2335	1099.9953	0.125389	-437.871792	-437.864153	-437.863209	-437.904297	27.883	
C	-0.0029702135	 1.5201965612	-0.0352174665	-0.501071
C	-0.0038521248	 0.0277770513	 0.0478353306	 0.223762
N	-0.0032090539	-0.6846472517	-1.0635526865	-0.202818
O	-0.0043031222	-2.0441107124	-0.6735915365	-0.227824
C	-0.0053799888	-2.0625060104	 0.6541888518	 0.344161
C	-0.0051950741	-0.8256641115	 1.1869269459	 0.085409
C	-0.0065173161	-0.9455131007	 2.6762458521	-0.189074
O	-0.0075090113	-2.3740253026	 2.9082261576	-0.28216
C	-0.0068276028	-3.1326224167	 1.691237381	-0.179633
H	 0.8805451851	 1.9379395045	 0.4585873747	 0.139956
H	-0.0039099249	 1.8374267417	-1.0794311226	 0.155656
H	-0.8847456338	 1.9391242081	 0.4606560448	 0.139892
H	 0.8804957029	-0.5099325466	 3.1563509245	 0.1181
H	-0.8938597145	-0.5089575224	 3.154852695	 0.118101
H	-0.8958902959	-3.7774125365	 1.6482367771	 0.128773
H	 0.8816556586	-3.7783139153	 1.6497842071	 0.12877
99.1618	139.4747	155.2371	230.991	237.265	339.545	480.1881	575.1401	628.6108	629.7668	676.7398	776.441	851.6037	886.0713	897.1234	1017.7765	1026.6581	1051.6644	1060.0692	1073.545	1091.7637	1159.305	1213.7963	1228.8142	1315.7929	1350.8231	1409.4842	1413.4207	1465.7755	1482.0627	1512.617	1515.9389	1519.5218	1529.836	1664.6129	2997.2984	3002.7813	3023.1633	3026.018	3042.4776	3098.4152	3142.6653
CC1=NOC2=C1COC2	Cc1noc2c1COC2	
InChI=1S/C6H7NO2/c1-4-5-2-8-3-6(5)9-7-4/h2-3H2,1H3	InChI=1S/C6H7NO2/c1-4-5-2-8-3-6(5)9-7-4/h2-3H2,1H3
