16
gdb 66814	3.74103	1.806	1.78415	1.9667	68.63	-0.2252	0.067	0.2922	816.5993	0.12651	-400.66619	-400.660326	-400.659381	-400.69599	25.522	
O	-0.148862251	 1.4166996994	 0.0743634671	-0.463264
C	 0.015320775	 0.0501261641	 0.0475297673	 0.385385
C	-0.0834732255	-0.8415080406	-1.1738168797	-0.16494
C	 0.9516937233	-1.9424350497	-1.0866527685	-0.062881
C	 1.7524763624	-1.7892391232	 0.1544918343	-0.058663
C	 0.8793715566	-0.8364253604	 0.9977360785	-0.170509
C	-0.2298823551	-1.9229538759	 0.8964096444	-0.005896
C	-1.0643226218	-1.0080715692	-0.0140991512	-0.129844
N	 0.6741984258	-2.8399198572	 0.0705175011	-0.157546
H	 0.5888459491	 1.8230440942	-0.3949946459	 0.287115
H	-0.4377531426	-0.439344227	-2.1135675806	 0.093901
H	 1.3421199935	-2.4315291468	-1.9705237632	 0.094275
H	 2.7994021462	-2.0430168348	 0.2816227739	 0.091674
H	 1.2193259696	-0.4328979867	 1.9473301282	 0.080481
H	-0.675171053	-2.4050865579	 1.7625914247	 0.082769
H	-2.1392749725	-0.9303692485	-0.1153113904	 0.097944
239.1615	299.9798	341.893	551.289	564.9281	595.0703	707.6881	744.5918	763.1746	776.8561	807.706	814.7573	839.7563	881.3431	899.5962	915.7165	920.9641	940.8596	968.0175	982.1405	1028.0436	1050.783	1059.1483	1132.1596	1142.4936	1150.0477	1180.9763	1215.3508	1232.1252	1249.1252	1266.241	1297.0273	1304.2157	1345.3792	1453.6519	3150.7728	3158.6641	3169.1261	3193.0203	3196.3478	3215.178	3785.9727
OC12C3C4C5C1C(C23)N45	O[C@@]12[C@H]3[C@H]4[C@H]5[C@@H]1[C@@H]([C@@H]23)N45	
InChI=1S/C7H7NO/c9-7-1-2(7)5-6-3(7)4(1)8(5)6/h1-6,9H	InChI=1S/C7H7NO/c9-7-1-2(7)5-6-3(7)4(1)8(5)6/h1-6,9H/t1-,2+,3-,4+,5-,6+,7-,8?/m0/s1
