15
gdb 24178	4.08372	1.69683	1.19874	1.3614	83.1	-0.1974	-0.03	0.1673	958.729	0.117377	-379.747717	-379.741685	-379.740741	-379.77791	24.847	
C	-0.0280746611	 1.4083139458	 0.0102878347	-0.138656
C	 1.2800379984	 1.8450361519	 0.0000562983	-0.11587
N	 2.088448057	 0.7330162958	-0.0136379532	-0.083343
C	 3.4553931161	 0.6243420465	-0.0273221852	 0.094596
N	 4.0866292738	-0.5030658803	-0.039520004	-0.289066
C	 3.3372817292	-1.6561675648	-0.0386018027	-0.025188
C	 1.9726010663	-1.6613160079	-0.0255350661	-0.216189
C	 1.280522601	-0.428451384	-0.0122019033	 0.380683
C	-0.0386285992	-0.0060783084	 0.0028213538	-0.302023
H	-0.8943255153	 2.0530352217	 0.022079319	 0.109738
H	 1.70449746	 2.8356380551	 0.0012928443	 0.128602
H	 4.001370163	 1.5638335057	-0.0275126752	 0.130893
H	 3.9047703286	-2.5800078405	-0.0490398951	 0.110892
H	 1.4114927786	-2.5882618699	-0.0251526936	 0.109783
H	-0.9031365265	-0.6508386968	 0.0076932182	 0.105148
207.7205	218.5006	403.7225	423.8651	586.9473	597.6656	616.6223	619.9321	690.2195	739.4848	775.3065	784.6311	832.9831	874.1197	892.4724	901.3478	926.3628	963.1911	1040.083	1059.8533	1104.8264	1204.7192	1241.3348	1260.5311	1304.8033	1344.1058	1402.7581	1414.1376	1457.9449	1499.974	1553.6237	1570.5526	1663.1868	3171.9804	3187.8772	3209.1305	3242.3822	3260.3893	3273.4467
C1=CN2C=NC=CC2=C1	c1cn2cnccc2c1	
InChI=1S/C7H6N2/c1-2-7-3-4-8-6-9(7)5-1/h1-6H	InChI=1S/C7H6N2/c1-2-7-3-4-8-6-9(7)5-1/h1-6H
