19
gdb 22963	3.75804	0.84913	0.73271	1.3574	76.93	-0.2268	-0.0015	0.2253	1539.2234	0.157662	-456.254939	-456.2451	-456.244156	-456.290717	34.611	
C	 0.4329142343	 0.8667551776	-0.376359344	-0.236825
O	-0.4547738278	 0.1866882964	 0.4901342	-0.239318
C	 0.1767714823	-0.5147576858	 1.5410893803	-0.063801
C	 0.5556038158	-1.9436431889	 1.157620501	-0.08126
N	 1.7776631467	-2.0928163385	 0.2976382892	-0.329192
C	 2.3904779569	-3.0723337446	 1.2458680764	-0.260218
C	 1.2646514264	-2.771874833	 2.2091805111	 0.401457
N	 0.9764500779	-3.0061649351	 3.4170406448	-0.237373
O	 1.962983534	-3.8026009933	 4.024881548	-0.390109
H	 1.1240448067	 0.1864034235	-0.8884924063	 0.12023
H	-0.1825251344	 1.3846046344	-1.1167563837	 0.120474
H	 1.0312829074	 1.6125483267	 0.1695018572	 0.104838
H	 1.0712195791	 0.0184190618	 1.8947406848	 0.091017
H	-0.5413956156	-0.5655932715	 2.3679311114	 0.115975
H	-0.3337607612	-2.4420648569	 0.7471675617	 0.095336
H	 1.5758522644	-2.4922004781	-0.6117190322	 0.224857
H	 2.4038462505	-4.1164937031	 0.9062509264	 0.121279
H	 3.3987085112	-2.8049437092	 1.5801598482	 0.133251
H	 1.6263845153	-3.8947171824	 4.9227888356	 0.309381
44.9497	89.9974	99.6909	123.6392	174.7412	211.6156	266.4076	329.2277	361.9126	433.3766	466.0168	488.7545	577.148	719.7337	769.7304	860.9125	922.826	945.9391	973.2229	1002.1327	1012.9	1059.37	1106.7006	1119.4853	1162.7256	1176.6167	1185.8857	1217.8212	1239.6807	1284.4504	1308.7642	1359.1158	1373.6933	1403.3572	1411.2819	1470.9661	1483.4618	1488.6248	1490.8539	1515.9241	1800.1201	2985.1198	2998.9539	3010.7784	3017.4501	3055.1977	3066.439	3068.9734	3112.5981	3540.2574	3816.167
COCC1NCC1=NO	COC[C@H]1NCC1=NO	
InChI=1S/C5H10N2O2/c1-9-3-5-4(7-8)2-6-5/h5-6,8H,2-3H2,1H3	InChI=1S/C5H10N2O2/c1-9-3-5-4(7-8)2-6-5/h5-6,8H,2-3H2,1H3/t5-/m1/s1
