12
gdb 9165	6.85903	0.76098	0.7053	3.7154	64.14	-0.2793	-0.0876	0.1917	1471.3213	0.079822	-418.446501	-418.437577	-418.436632	-418.48169	28.309	
O	 0.0719486982	 1.3853779992	 0.0406097482	-0.392027
C	-0.0318008221	 0.0010546651	-0.1244501787	-0.17765
C	-1.4340283195	-0.4467909068	 0.2603416883	 0.238758
O	-2.3135004172	 0.295210124	 0.6203618377	-0.247288
C	-1.6465877307	-1.8857059704	 0.1546378055	 0.06483
C	-1.8481235704	-3.0752602817	 0.063717042	 0.033627
C	-2.0873057551	-4.498597954	-0.0107170703	 0.023873
O	-2.2972847595	-5.0923243613	-1.0408727347	-0.212356
H	 0.953833486	 1.6559838257	-0.2311528619	 0.300117
H	 0.1382622287	-0.3305737603	-1.1639474523	 0.128621
H	 0.6767717138	-0.569100302	 0.5023154801	 0.12289
H	-2.0612693722	-5.0116922874	 0.9708587562	 0.116606
44.3529	68.9225	89.9471	120.427	200.1063	241.7813	274.6491	300.9738	398.0985	568.136	577.5462	674.0423	796.2085	969.1951	1011.5178	1017.6211	1119.1738	1166.7801	1239.6391	1245.8572	1417.0791	1442.8242	1488.7514	1772.4786	1792.9775	2298.6244	2935.1966	2951.7486	2974.7769	3838.2997
OCC(=O)C#CC=O	OCC(=O)C#CC=O	
InChI=1S/C5H4O3/c6-3-1-2-5(8)4-7/h3,7H,4H2	InChI=1S/C5H4O3/c6-3-1-2-5(8)4-7/h3,7H,4H2
