19
gdb 72444	2.39696	2.22303	1.54619	1.858	73.03	-0.2478	0.0843	0.3321	924.7799	0.161347	-423.024541	-423.017538	-423.016594	-423.055416	29.32	
C	-0.0006002308	 1.4754625736	 0.0730081523	-0.486902
C	-0.0206259051	-0.0298480126	-0.0149969007	 0.334657
C	 0.7876222601	-0.6882062585	-1.1674548488	-0.102644
O	 1.0925103429	-1.9878515243	-0.6347812384	-0.274933
C	 0.5086709268	-1.9716839879	 0.6709936493	 0.172411
O	 0.66083492	-0.6363938661	 1.1066251285	-0.278947
C	-1.0009095174	-2.1338910888	 0.4996526991	-0.067895
C	-1.8737913739	-1.2391427722	 1.3409579006	-0.321408
C	-1.3779047974	-0.7495293208	 0.0055901342	-0.073988
H	 1.0266308789	 1.8450121037	 0.1413203993	 0.130108
H	-0.467708121	 1.9135799071	-0.8145842186	 0.122118
H	-0.5541076151	 1.8158509547	 0.9522895443	 0.132988
H	 0.2088854721	-0.7792384929	-2.0933520548	 0.098659
H	 1.7201699341	-0.1486742999	-1.3718954005	 0.100249
H	 1.0454271504	-2.6639597433	 1.3190689153	 0.090622
H	-1.3812361269	-3.0415340139	 0.0492919157	 0.098219
H	-2.9240810891	-1.50513877	 1.3894666268	 0.111491
H	-1.4664373016	-0.8088966686	 2.2484187439	 0.125117
H	-2.0619927269	-0.5995646593	-0.8210180675	 0.090078
209.1716	217.9442	277.2006	313.5574	348.1985	402.448	496.9653	615.7354	632.1848	656.1748	757.8901	796.1531	831.7796	851.3114	895.4623	902.2749	916.2045	948.0494	991.2133	999.7371	1012.3386	1039.6221	1051.3369	1090.6713	1102.0226	1108.6617	1166.8138	1180.0221	1188.0823	1231.0806	1249.4565	1293.7752	1324.9377	1336.1071	1350.1575	1396.8974	1417.4082	1469.9832	1484.1962	1494.9718	1518.0651	3023.1706	3043.6892	3070.2777	3114.6312	3122.3162	3131.6297	3138.55	3183.5761	3201.5624	3227.2828
CC12COC(O1)C1CC21	C[C@@]12CO[C@@H](O1)[C@H]1C[C@@H]21	
InChI=1S/C7H10O2/c1-7-3-8-6(9-7)4-2-5(4)7/h4-6H,2-3H2,1H3	InChI=1S/C7H10O2/c1-7-3-8-6(9-7)4-2-5(4)7/h4-6H,2-3H2,1H3/t4-,5+,6-,7-/m0/s1
