25
gdb 119003	2.40639	1.14102	0.99081	0.9194	88.98	-0.2432	0.0803	0.3235	1402.6318	0.228563	-389.511358	-389.501105	-389.500161	-389.547521	38.543	
C	-0.3068373281	 1.4836545036	 0.303154816	-0.379497
C	-0.0608549098	 0.0203510715	-0.0341990319	-0.047676
O	-1.3037089009	-0.6510745891	 0.0376727328	-0.300578
C	-1.3123280219	-2.0866305965	-0.0754861678	 0.42482
C	-0.6085501413	-2.5562865033	-1.3501885667	-0.463822
C	-0.7595687234	-2.7262050643	 1.2187136308	-0.237999
C	-1.891656429	-2.5247102733	 2.2331833252	-0.197893
C	-3.1586733834	-2.8564750532	 1.4185042746	-0.202329
C	-2.820940749	-2.4557519669	-0.0433991626	-0.232663
H	 0.6247500252	 2.0540519927	 0.236280527	 0.11
H	-1.0312636004	 1.91817794	-0.3916926709	 0.124405
H	-0.7053871206	 1.5836194675	 1.3168220137	 0.122257
H	 0.3734338315	-0.06300859	-1.0419474031	 0.087478
H	 0.6703175424	-0.4086966362	 0.6679971527	 0.084902
H	 0.4671623382	-2.3571273767	-1.3252644772	 0.113735
H	-0.7399606212	-3.6350662256	-1.4759239671	 0.112966
H	-1.0289616897	-2.0555977544	-2.2284923181	 0.119257
H	-0.5935030834	-3.7970249267	 1.0436941736	 0.08978
H	 0.1980588976	-2.3003916901	 1.530819894	 0.090568
H	-1.7854591808	-3.141916717	 3.1296829462	 0.085773
H	-1.9099075716	-1.4769641812	 2.5490153263	 0.106853
H	-3.3651875218	-3.9308892276	 1.4762359888	 0.093637
H	-4.0467363477	-2.3445863734	 1.7983170398	 0.095636
H	-3.3901670759	-1.586928664	-0.3803665576	 0.110821
H	-3.031458185	-3.2741496658	-0.7375566586	 0.089572
28.2248	51.5876	118.1099	192.5176	212.3769	247.3584	262.9182	309.7943	343.4961	367.8702	437.9372	481.0328	569.8009	628.0065	748.3027	780.6076	822.2929	849.8397	854.4161	905.4075	914.1907	930.2671	962.8603	985.3911	1026.8769	1045.2467	1062.3084	1098.3122	1131.3044	1152.9012	1184.8261	1195.2216	1229.3665	1230.2393	1257.8319	1284.6371	1300.7794	1304.8015	1335.0594	1349.1813	1363.7418	1397.8116	1404.1694	1422.5046	1478.7115	1481.4828	1483.0278	1488.3412	1490.0942	1499.6693	1502.5534	1511.1732	1531.1748	2976.8414	3004.3388	3028.2068	3036.135	3039.2522	3041.9291	3051.5471	3062.6698	3083.9174	3088.7942	3100.7966	3105.3129	3108.461	3115.7746	3116.597	3119.2166	28.2274	51.5883	118.1105	192.5178	212.3771	247.3593	262.9184	309.7946	343.4962	367.8702	437.9374	481.0329	569.8009	628.0064	748.3027	780.6076	822.2928	849.8397	854.4162	905.4075	914.1907	930.267	962.8603	985.3911	1026.8769	1045.2465	1062.3083	1098.3123	1131.3044	1152.9012	1184.8259	1195.2215	1229.3665	1230.2391	1257.8317	1284.6368	1300.7792	1304.8013	1335.0594	1349.1811	1363.7416	1397.8115	1404.1691	1422.5044	1478.7111	1481.4826	1483.0279	1488.3411	1490.0936	1499.6691	1502.5529	1511.173	1531.1745	2976.8415	3004.3389	3028.2068	3036.1351	3039.2522	3041.9292	3051.5472	3062.6698	3083.9174	3088.7942	3100.7966	3105.3129	3108.461	3115.7746	3116.597	3119.2166
CCOC1(C)CCCC1	CCOC1(C)CCCC1	
InChI=1S/C8H16O/c1-3-9-8(2)6-4-5-7-8/h3-7H2,1-2H3	InChI=1S/C8H16O/c1-3-9-8(2)6-4-5-7-8/h3-7H2,1-2H3
