17
gdb 71093	2.69033	1.56132	1.31679	1.1834	80.53	-0.2273	0.0269	0.2542	1030.6383	0.134247	-384.600434	-384.592474	-384.59153	-384.632588	31.417	
C	 0.1174545077	 1.5664536077	 0.0776498461	-0.502717
C	-0.0523790438	 0.0876939832	-0.045153111	 0.361005
C	 0.3539435627	-0.7553034299	-1.2851756273	-0.271961
C	-0.5799032156	-1.8243740377	-0.7245007652	-0.173126
C	-0.4582883257	-1.6754595252	 0.7913359321	 0.036749
O	 0.5164559715	-0.6801719958	 1.0633208444	-0.324911
C	-1.3993801955	-0.7700273667	 0.0469747914	 0.228264
C	-2.7719676799	-0.466387566	 0.1222073525	-0.00676
C	-3.9420115954	-0.1845893803	 0.1816992025	-0.370171
H	 1.1827840327	 1.8216322947	 0.0790480641	 0.13585
H	-0.3604876863	 2.0774756043	-0.7629798493	 0.130518
H	-0.32626936	 1.9299012734	 1.0083738981	 0.139853
H	-0.0369257746	-0.3280818927	-2.2118012023	 0.110224
H	 1.4202601281	-0.9833879611	-1.3802410746	 0.102605
H	-0.9637638964	-2.7172361358	-1.2000324083	 0.106169
H	-0.6475388824	-2.4506461367	 1.5214154143	 0.120686
H	-4.9731981469	 0.0606673547	 0.2387269026	 0.177723
117.9831	135.7843	185.9769	272.7898	303.6164	409.8023	472.9477	506.3892	561.8156	563.7626	575.7792	634.5722	663.6292	755.3786	795.3837	820.276	873.0942	889.0418	906.4998	965.4049	993.5243	1011.6477	1034.3755	1089.3951	1107.5723	1137.7612	1163.8291	1220.5663	1247.4689	1289.3481	1336.7025	1412.1654	1422.4758	1476.1523	1486.6387	1487.4411	2226.7805	3040.0382	3050.3563	3110.9026	3116.7626	3124.9553	3208.0144	3220.26	3502.7201
CC12CC3C(O1)C23C#C	C[C@@]12C[C@H]3[C@@H](O1)[C@@]23C#C	
InChI=1S/C8H8O/c1-3-8-5-4-7(8,2)9-6(5)8/h1,5-6H,4H2,2H3	InChI=1S/C8H8O/c1-3-8-5-4-7(8,2)9-6(5)8/h1,5-6H,4H2,2H3/t5-,6+,7-,8-/m0/s1
