23
gdb 108473	2.12162	1.52116	1.20091	1.7423	84.84	-0.2347	0.0698	0.3045	1199.8135	0.205049	-388.271613	-388.262187	-388.261243	-388.30581	35.969	
C	-0.2557157654	 1.3249056879	-0.2681667093	-0.38251
C	-0.0571564129	-0.1943351708	-0.1820371432	-0.297137
C	 0.7583366192	-0.7541310577	-1.3302757861	 0.308265
C	 0.0987533712	-0.8051918548	-2.7440812231	-0.295571
C	 0.468619676	-2.3163515689	-2.8720696523	-0.230563
C	 1.1667744726	-2.2487441941	-1.4972027306	 0.061928
O	 2.5622498371	-1.9039899313	-1.5987280253	-0.319647
C	 2.291743996	-0.5024758228	-1.3277321355	 0.119539
C	 2.967395492	 0.4257329067	-2.3167461604	-0.41369
H	 0.7024993448	 1.8547100333	-0.2364462525	 0.119468
H	-0.7599987791	 1.6070654998	-1.1985776066	 0.119883
H	-0.8636812071	 1.6912941484	 0.5644939592	 0.114643
H	 0.4331569179	-0.4472842404	 0.7674325453	 0.097114
H	-1.0375548626	-0.6884074187	-0.1611470131	 0.093602
H	-0.9793501998	-0.6268867535	-2.7055827353	 0.100102
H	 0.5188503472	-0.1382785197	-3.5000575102	 0.100246
H	-0.4020659608	-2.9776091119	-2.89387862	 0.098012
H	 1.1412036975	-2.5873246104	-3.688647215	 0.108248
H	 0.9830341651	-3.0391202199	-0.7625594038	 0.066943
H	 2.6316311337	-0.253992031	-0.3094036209	 0.065893
H	 2.6724374321	 0.2060989723	-3.3462121141	 0.121603
H	 2.723719917	 1.4706617666	-2.0958642575	 0.116525
H	 4.0538833382	 0.3095624012	-2.2479820197	 0.127102
73.836	87.1095	147.1929	200.9697	211.7052	274.4094	293.3559	334.4991	384.8124	425.0375	509.4854	627.0429	645.1454	734.8506	782.9433	826.7729	857.6465	884.5469	909.5906	945.0879	949.1678	990.3511	1024.279	1030.4027	1063.5303	1093.2841	1107.971	1132.2817	1139.515	1190.5496	1216.4678	1219.8557	1240.8957	1263.592	1272.3708	1314.2723	1323.6754	1348.6369	1371.5511	1394.72	1407.8888	1412.7705	1461.7083	1477.7104	1481.0812	1488.2247	1499.4603	1506.334	1507.2388	2965.7342	3011.9282	3032.865	3036.6458	3043.3525	3051.1501	3057.8282	3066.7116	3099.0082	3102.6596	3103.9204	3105.5024	3118.9971	3124.075
CCC12CCC1OC2C	CC[C@]12CC[C@H]1O[C@H]2C	
InChI=1S/C8H14O/c1-3-8-5-4-7(8)9-6(8)2/h6-7H,3-5H2,1-2H3	InChI=1S/C8H14O/c1-3-8-5-4-7(8)9-6(8)2/h6-7H,3-5H2,1-2H3/t6-,7+,8+/m0/s1
