15
gdb 60524	2.43298	1.32509	1.05343	1.0486	62.9	-0.2697	-0.1135	0.1562	1143.303	0.109288	-494.880936	-494.871986	-494.871042	-494.915482	31.117	
O	-0.1554138554	 1.4613943752	-0.0651137634	-0.428041
C	-0.0854864519	 0.0808037556	 0.1440722639	-0.001485
C	 0.2917890527	-0.6919854387	-1.1250469166	 0.033769
C	 0.2408620313	-0.0388067616	-2.4355406887	-0.164469
O	 1.488756483	-0.2603370277	-1.7662808231	-0.237847
C	 0.9380147135	-0.221460484	 1.2320901535	 0.285306
O	 1.6784743783	 0.6345032166	 1.6593879355	-0.291849
C	 1.0296083861	-1.6386744031	 1.7985065051	 0.094856
O	 0.299671966	-2.5316167924	 1.4560446412	-0.215749
H	 0.6477158976	 1.8373353383	 0.3258485131	 0.301128
H	-1.0632802435	-0.2964112826	 0.4780157211	 0.120776
H	 0.1629439021	-1.7708366356	-1.0524276325	 0.121789
H	 0.0772213353	-0.6439280701	-3.3255389579	 0.11863
H	-0.073318492	 0.9993093576	-2.4864063075	 0.139113
H	 1.8236671669	-1.7514795575	 2.5642863864	 0.124072
60.1323	82.4921	126.2851	156.2433	201.4399	260.4212	339.7235	378.2711	388.559	504.8123	523.7579	651.244	694.6862	776.4896	852.455	887.0208	957.4957	1003.1459	1026.4458	1103.5755	1139.713	1167.2637	1169.6411	1185.4991	1274.9317	1282.4084	1330.7184	1365.9816	1405.0399	1435.2484	1513.3271	1796.8539	1818.61	2943.4726	3012.4825	3100.4124	3132.2634	3205.5251	3717.9711
OC(C1CO1)C(=O)C=O	O[C@@H]([C@H]1CO1)C(=O)C=O	
InChI=1S/C5H6O4/c6-1-3(7)5(8)4-2-9-4/h1,4-5,8H,2H2	InChI=1S/C5H6O4/c6-1-3(7)5(8)4-2-9-4/h1,4-5,8H,2H2/t4-,5-/m1/s1
