19
gdb 40349	3.74109	1.31307	1.24006	1.6617	79.1	-0.2311	0.002	0.2331	1084.8152	0.160078	-385.826488	-385.81914	-385.818196	-385.858347	30.066	
C	-0.0564260604	 1.4619783656	-0.1639073589	-0.277823
C	 1.3137989341	 0.8781001929	 0.0469575729	-0.264524
C	 0.10580154	-0.0279155808	 0.0341321648	-0.128951
C	-0.3681887399	-0.6795023548	 1.2836074147	 0.409584
C	-1.7440146534	-1.4210537281	 1.4180976031	-0.260438
C	-0.8748197137	-2.1203802647	 2.5004898885	 0.012509
O	 0.265643264	-1.9791603562	 1.5963641859	-0.324132
C	-0.6321064739	-0.9650310288	 3.4916571811	-0.091154
C	-0.2852938683	 0.0209283587	 2.6642936828	-0.129505
H	-0.4981828012	 2.0371452631	 0.6426630802	 0.11498
H	-0.3253620948	 1.8120409771	-1.1539875221	 0.115323
H	 1.9907841751	 0.8283763769	-0.7981427238	 0.116456
H	 1.8032023952	 1.0490645654	 0.9993694081	 0.120933
H	-0.0198798921	-0.6474960621	-0.8483364147	 0.09002
H	-2.6209392072	-0.849286455	 1.7289487739	 0.095137
H	-1.9531285153	-2.0662064607	 0.5606705541	 0.102105
H	-1.0458754676	-3.1323119057	 2.8640454397	 0.078523
H	-0.7389135455	-0.9841323062	 4.5661760221	 0.109225
H	-0.0212367151	 1.0487257034	 2.8649879675	 0.111733
76.6535	173.2229	184.2861	357.9563	407.005	484.2584	541.331	575.0808	624.6915	703.5882	752.7036	785.5353	819.5113	840.1519	858.3816	881.9736	899.2816	906.7854	913.0602	953.105	970.749	994.0592	1048.6707	1059.7257	1062.6391	1077.8847	1080.7665	1135.4025	1148.9535	1197.8188	1203.2361	1221.6451	1236.7757	1254.6951	1292.1098	1337.2961	1431.6346	1471.0639	1486.5756	1506.3429	1621.4401	3058.4145	3130.9897	3136.1481	3137.8523	3140.1483	3155.4403	3214.0768	3227.9643	3230.2516	3257.0029
C1CC1C12CC(O1)C=C2	C1CC1[C@@]12C[C@@H](O1)C=C2	
InChI=1S/C8H10O/c1-2-6(1)8-4-3-7(5-8)9-8/h3-4,6-7H,1-2,5H2	InChI=1S/C8H10O/c1-2-6(1)8-4-3-7(5-8)9-8/h3-4,6-7H,1-2,5H2/t7-,8+/m0/s1
