24
gdb 82308	2.20419	1.64655	1.30981	1.4253	87.43	-0.2212	0.0758	0.297	1139.5192	0.217923	-368.404647	-368.395447	-368.394502	-368.43755	37.154	
C	-0.9169832604	 0.9597034886	-0.0353095025	-0.399428
C	 0.0759246457	-0.1880540874	-0.1933639289	 0.02406
N	 0.9564313207	 0.0108833182	-1.3643753434	-0.099033
C	 2.029987384	 1.0015031661	-1.1867435195	-0.259786
C	 2.3038264857	-0.4444215861	-0.9864989444	-0.013724
C	 2.302765899	-0.9989424998	 0.4285026394	-0.266095
C	 0.9503654168	-0.5557107305	 1.0684345665	 0.277408
C	 1.1525236013	 0.5970166066	 2.0723384584	-0.437332
C	 0.2957749967	-1.7231541712	 1.8273897107	-0.431717
H	-0.4178849261	 1.9083695582	 0.1834454729	 0.114041
H	-1.4866738941	 1.0854630235	-0.9602215392	 0.124623
H	-1.625327832	 0.7565133574	 0.7742487537	 0.113075
H	-0.5026838358	-1.0870061618	-0.4427019129	 0.074739
H	 2.3429670055	 1.4875597483	-2.1069159925	 0.111556
H	 2.0189523742	 1.6570227374	-0.3226177417	 0.109853
H	 2.8596222094	-0.9904316863	-1.7447271495	 0.083937
H	 2.362498136	-2.0920965986	 0.3821112731	 0.098045
H	 3.1632522832	-0.6599073817	 1.0149022077	 0.099991
H	 1.6476790856	 1.4697736701	 1.6401663145	 0.115584
H	 0.1992207605	 0.9331395081	 2.4919859036	 0.114426
H	 1.7737574606	 0.2549964767	 2.907697982	 0.11136
H	 0.9118274467	-2.0378608327	 2.6770388086	 0.11018
H	-0.686442474	-1.4377397323	 2.2219528322	 0.111566
H	 0.1543454806	-2.5910475209	 1.1749906411	 0.112669
110.1219	201.3549	230.0675	236.2683	255.8487	283.6408	294.8747	359.8189	372.9483	399.2015	425.841	517.3534	606.6734	655.042	727.7527	746.0655	841.2575	861.6673	889.09	915.5634	945.8147	959.484	975.7238	1011.0083	1040.8862	1069.9502	1078.9244	1104.5076	1111.7788	1135.2223	1156.4657	1182.8898	1208.9253	1226.3837	1266.3464	1284.7507	1325.2269	1360.7176	1374.3148	1392.5	1400.9778	1405.3967	1429.6087	1482.5318	1483.0918	1489.0848	1497.2457	1500.894	1502.2332	1511.2482	1520.153	3009.1713	3021.0624	3033.9431	3038.4052	3041.2369	3073.4877	3086.2894	3095.2756	3097.6642	3107.8838	3112.5315	3115.6847	3121.261	3135.175	3203.4892
CC1N2CC2CC1(C)C	C[C@H]1N2C[C@H]2CC1(C)C	
InChI=1S/C8H15N/c1-6-8(2,3)4-7-5-9(6)7/h6-7H,4-5H2,1-3H3	InChI=1S/C8H15N/c1-6-8(2,3)4-7-5-9(6)7/h6-7H,4-5H2,1-3H3/t6-,7-,9?/m1/s1
