18
gdb 99799	2.43561	0.96998	0.8398	3.9875	81.95	-0.2738	-0.0002	0.2736	1486.1945	0.143867	-401.93563	-401.9247	-401.923755	-401.972877	37.602	
C	-0.0579765061	 1.5612144049	-0.1097574173	-0.409641
C	-0.0292808863	 0.0339850078	-0.0445557721	-0.17571
C	 0.7652172353	-0.5207440191	 1.1633064474	 0.006086
O	 2.0849875454	 0.0013683148	 1.0535250638	-0.424348
C	 0.1505142952	-0.042992412	 2.4349376239	 0.274316
N	-0.3093537155	 0.3389568552	 3.4238388937	-0.347088
C	 0.7611726046	-1.9890748294	 1.1663243948	 0.047805
C	 0.7803359367	-3.1925903832	 1.1575908137	 0.113375
C	 0.7966998243	-4.647215409	 1.1519753092	-0.502634
H	 0.9536320671	 1.9685362444	-0.1674387443	 0.142256
H	-0.6114589301	 1.8859665243	-0.9952841821	 0.117049
H	-0.5494501705	 1.9880930871	 0.7697186803	 0.140351
H	-1.0420459334	-0.3765553153	 0.0058855133	 0.122624
H	 0.4506113988	-0.3847837979	-0.9342901553	 0.122835
H	 2.6308788513	-0.4251159664	 1.7240497925	 0.295447
H	 1.5811482963	-5.035460966	 1.810063763	 0.158046
H	-0.1604421059	-5.0490236264	 1.5008519345	 0.16171
H	 0.9782495927	-5.0375336237	 0.1451264511	 0.157521
23.7497	80.447	91.9938	114.0218	161.6729	215.3695	232.8565	265.0602	304.7652	336.564	348.7733	396.9084	464.2052	517.7751	548.704	603.2895	674.5597	789.4306	905.0588	946.9475	983.5417	1051.1973	1052.7707	1057.9261	1102.1253	1168.2276	1210.1655	1304.5727	1340.1669	1377.8505	1413.0875	1413.9568	1473.1888	1474.4392	1475.7398	1496.4297	1508.8017	2351.5468	2370.7443	3033.8308	3049.5079	3058.4535	3098.2911	3098.9472	3101.0653	3117.8063	3137.3883	3806.3721
CCC(O)(C#N)C#CC	CC[C@@](O)(C#N)C#CC	
InChI=1S/C7H9NO/c1-3-5-7(9,4-2)6-8/h9H,4H2,1-2H3	InChI=1S/C7H9NO/c1-3-5-7(9,4-2)6-8/h9H,4H2,1-2H3/t7-/m0/s1
