15
gdb 18633	3.28438	2.09766	1.83151	2.9364	61.95	-0.2544	0.0144	0.2688	776.9025	0.120479	-399.796285	-399.789569	-399.788625	-399.827067	25.918	
O	 0.1175546226	 1.3719269452	 0.020824906	-0.424893
C	-0.0245933732	-0.0106409747	-0.035511267	 0.131083
C	-1.3476900886	-0.7060709779	 0.0374082893	-0.132366
C	-2.5423074932	 0.1666121079	-0.2973076903	-0.121553
O	-2.2546579015	 0.767625672	-1.5782436788	-0.265269
C	-1.2699713677	 0.054748747	-2.2382346262	 0.405827
N	-1.0414553691	 0.1382967887	-3.4755545005	-0.540771
C	-0.5282513542	-0.7689316794	-1.2543302572	-0.180976
H	-0.5141102155	 1.7805418467	-0.5833232395	 0.301718
H	 0.8016994294	-0.4841546228	 0.4832518641	 0.121439
H	-1.4965231784	-1.5692376955	 0.6748618685	 0.106194
H	-3.4635723606	-0.4207883853	-0.377379267	 0.124469
H	-2.7005816629	 0.980291777	 0.4173175473	 0.129706
H	-1.7219279224	 0.7528416007	-3.9255174619	 0.225767
H	-0.0067548246	-1.6454658997	-1.6125573269	 0.119623
130.2664	183.0545	215.1581	347.9237	429.1382	440.2358	544.6617	648.766	714.1432	758.5514	770.6954	800.4902	867.3804	899.1097	950.959	976.0438	984.6473	1029.6753	1056.1208	1085.6159	1106.6675	1117.8349	1187.8171	1228.7253	1264.6372	1320.7199	1332.519	1350.5001	1407.4835	1458.2801	1517.943	1781.1001	3040.9398	3087.6392	3177.5186	3187.7519	3218.8476	3476.7593	3787.9829
OC1C2COC(=N)C12	O[C@H]1[C@H]2CO[C]([NH])[C@@H]12	
InChI=1S/C5H7NO2/c6-5-3-2(1-8-5)4(3)7/h2-4,6-7H,1H2	InChI=1S/C5H7NO2/c6-5-3-2(1-8-5)4(3)7/h2-4,6-7H,1H2/t2-,3+,4-/m0/s1
