19
gdb 92717	2.07194	1.77531	1.10503	2.6204	77.79	-0.2378	-0.0203	0.2174	1130.3703	0.157935	-423.051153	-423.042076	-423.041132	-423.085115	33.66	
C	-0.18746073	 1.4491480427	 0.2350562326	-0.505012
C	-0.0242706184	-0.0307238309	 0.0837285288	 0.340093
C	 0.0484675817	-0.721825342	-1.0582813188	-0.183177
C	 0.1205653534	-2.2121957912	-0.8408647752	-0.279935
C	 0.4933846723	-2.328478225	 0.6540711648	 0.108969
O	 1.8932381147	-2.4854794287	 0.8431080636	-0.42645
C	-0.0091792705	-0.9794941647	 1.2720333509	-0.238392
C	 0.8568992662	-0.6061702888	 2.458879809	 0.16679
O	 1.6148584926	 0.3299758928	 2.5030850669	-0.25749
H	 0.635686625	 1.8732303404	 0.816533684	 0.158587
H	-0.2316833201	 1.9435456813	-0.7391960723	 0.118456
H	-1.1122720603	 1.6872414598	 0.7770863065	 0.120507
H	 0.0083136944	-0.2739293687	-2.0457890713	 0.091705
H	-0.8456609667	-2.6911315741	-1.0531790925	 0.109681
H	 0.8694336693	-2.7252947527	-1.4543097925	 0.114114
H	 0.0453427253	-3.1983514549	 1.1388187985	 0.091507
H	 2.3324521298	-1.7360492646	 0.4220975188	 0.289558
H	-1.0304360498	-1.1193596504	 1.664460353	 0.097289
H	 0.748274801	-1.2928383302	 3.3278813054	 0.0832
61.2457	99.2164	179.3279	210.0527	226.8353	245.0031	315.3352	375.8183	395.8095	452.5332	474.579	634.4232	714.6228	745.6816	780.3787	831.037	868.8416	926.8812	963.8324	969.0784	1010.3964	1037.7004	1044.2459	1070.4414	1093.7035	1174.3002	1180.8902	1218.0331	1258.7383	1292.0465	1313.9061	1322.1399	1352.2792	1408.9942	1428.9058	1435.5719	1475.2242	1478.2212	1497.7454	1710.4701	1823.2703	2881.9693	2972.1304	3010.2107	3022.6145	3065.0493	3087.7665	3094.8957	3124.264	3186.238	3782.7727
CC1=CCC(O)C1C=O	CC1=CC[C@@H](O)[C@H]1C=O	
InChI=1S/C7H10O2/c1-5-2-3-7(9)6(5)4-8/h2,4,6-7,9H,3H2,1H3	InChI=1S/C7H10O2/c1-5-2-3-7(9)6(5)4-8/h2,4,6-7,9H,3H2,1H3/t6-,7+/m0/s1
