17
gdb 62151	2.88777	0.79251	0.67241	4.7271	71.86	-0.2753	0.0072	0.2826	1619.9264	0.13403	-455.14601	-455.136046	-455.135102	-455.182633	34.006	
O	 0.957480269	 1.7282919199	 0.5087317413	-0.413596
C	 0.4365349761	 0.6050520229	-0.1690884215	 0.113221
C	 1.2663720495	 0.3205447027	-1.4291819375	-0.128012
O	 0.7450464445	-0.7787897795	-2.1634604339	-0.179893
C	-0.0672309963	-0.5038227407	-3.2106491976	 0.128712
N	-0.6672208751	-1.4418216861	-3.7984042477	-0.432676
C	 0.3439518766	-0.6491486785	 0.7238272313	-0.368816
C	-0.4918195032	-0.4395341264	 1.9020209949	 0.27001
N	-1.1551460483	-0.2747004033	 2.8331708706	-0.298932
H	 1.8062718839	 1.4921923808	 0.9006075079	 0.289908
H	-0.5764873277	 0.8929377447	-0.4715036505	 0.121214
H	 1.3048222992	 1.2300616617	-2.040266863	 0.127134
H	 2.2932338901	 0.0539095147	-1.1516967218	 0.114844
H	-0.1066693095	 0.5660581818	-3.4593849077	 0.094514
H	-1.2134707009	-1.0773959943	-4.5758367134	 0.236547
H	-0.0524621454	-1.4820608988	 0.1343064432	 0.184284
H	 1.3503513676	-0.9451484015	 1.0498096655	 0.141538
34.021	76.818	80.4404	110.713	152.9157	222.4735	281.3845	343.5408	376.0538	400.6776	425.271	439.9146	571.7378	662.7884	820.7271	834.3545	898.3346	963.9175	978.9261	1041.378	1059.8594	1088.9078	1125.5707	1142.8163	1192.7876	1225.8073	1309.3251	1315.1221	1329.5117	1378.125	1400.503	1415.3763	1422.5178	1465.2158	1496.4744	1748.8742	2367.9747	3018.4769	3026.9594	3029.3245	3058.769	3082.9704	3095.2432	3524.2971	3795.0947
OC(COC=N)CC#N	O[C@@H](CO[CH][NH])CC#N	
InChI=1S/C5H8N2O2/c6-2-1-5(8)3-9-4-7/h4-5,7-8H,1,3H2	InChI=1S/C5H8N2O2/c6-2-1-5(8)3-9-4-7/h4-5,7-8H,1,3H2/t5-/m1/s1
