15
gdb 26996	2.92289	1.20993	0.95107	3.3615	71.75	-0.2521	-0.0128	0.2393	1208.9505	0.113098	-416.86046	-416.852175	-416.851231	-416.894479	29.064	
C	-0.1362497689	 1.5432679187	 0.1999632809	-0.493699
C	 0.0087104685	 0.0689879871	 0.0310023045	 0.174852
C	 0.0974764718	-0.6831237478	-1.0964302491	 0.275131
C	 0.073148938	-0.3914734756	-2.5600631393	-0.451486
C	 1.357660254	-0.6418814289	-3.226641758	 0.269823
N	 2.367235288	-0.8395065153	-3.7513425176	-0.298103
O	 0.2250153889	-1.9984205565	-0.7237655755	-0.173782
C	 0.2061609925	-1.9628232159	 0.6257519303	 0.070981
N	 0.0788600079	-0.7839304126	 1.1342623697	-0.298035
H	 0.713990434	 1.9524646619	 0.755041381	 0.151508
H	-0.1926735281	 2.0581602073	-0.7624574851	 0.122709
H	-1.0399895458	 1.7797220176	 0.7705851099	 0.147434
H	-0.6960816851	-0.9925769688	-3.0605510818	 0.173842
H	-0.1983743643	 0.6579501094	-2.7093522799	 0.171102
H	 0.2967316286	-2.9086689206	 1.13659618	 0.157723
40.6317	100.7896	122.0157	238.1298	242.2904	306.9623	374.9435	388.2508	494.228	639.1027	665.8888	689.9528	788.1599	852.9475	907.423	932.6779	960.1628	979.0626	1065.3553	1103.4898	1151.235	1213.3742	1262.1189	1294.4121	1338.415	1373.2939	1422.145	1445.5806	1472.7066	1490.0896	1561.5084	1679.9921	2367.6052	3039.5203	3042.5249	3095.93	3101.2421	3122.7804	3277.3947
CC1=C(CC#N)OC=N1	Cc1c(CC#N)ocn1	
InChI=1S/C6H6N2O/c1-5-6(2-3-7)9-4-8-5/h4H,2H2,1H3	InChI=1S/C6H6N2O/c1-5-6(2-3-7)9-4-8-5/h4H,2H2,1H3
