21
gdb 80932	2.18024	1.65268	1.50066	1.1975	83.89	-0.2139	0.0778	0.2917	1059.1961	0.181827	-383.165981	-383.157194	-383.15625	-383.198697	34.531	
C	 0.0780587688	 1.4642142794	-0.3067190958	-0.337361
N	 0.039377909	 0.0282584039	-0.0347018043	-0.122783
C	-1.0409716019	-0.4995721053	 0.8908631888	-0.13253
C	-0.1339981912	-1.748580676	 1.0636909312	-0.252784
C	 0.7913744344	-0.5000591966	 1.191265193	 0.261969
C	 2.2827227636	-0.4409593893	 1.3295516572	-0.527048
C	-0.3075777294	 0.0995988033	 2.1045135322	 0.395867
C	-0.4684564117	 1.2834029765	 2.9591693079	-0.351897
N	-0.4789324916	-0.0904861098	 3.5338390971	-0.405337
H	 1.0440054608	 1.7041878881	-0.7637215423	 0.118927
H	-0.6975608957	 1.6963366056	-1.0445356825	 0.117498
H	-0.0649383917	 2.1239614718	 0.5595137673	 0.107122
H	-2.0994469522	-0.4566075437	 0.6268894124	 0.075762
H	-0.2756015945	-2.3479121384	 1.9637763933	 0.101818
H	 0.0126860302	-2.3369697824	 0.1573322852	 0.098213
H	 2.7702683706	-0.9807596715	 0.5119405258	 0.129529
H	 2.6404429738	 0.5943994861	 1.3182228412	 0.121708
H	 2.5899703465	-0.8926169642	 2.2779373943	 0.137006
H	 0.3894672448	 1.88608261	 3.2468338146	 0.120513
H	-1.4055044809	 1.8340763966	 2.912232331	 0.113663
H	-1.4331468917	-0.3700210441	 3.7512301223	 0.230144
160.734	172.402	182.7765	194.6372	218.2259	240.3727	328.9418	391.724	407.2282	498.7822	584.6629	648.8076	676.5359	732.1423	758.2919	796.7705	892.4233	905.6366	932.7255	953.4353	964.5553	994.9177	1019.9564	1056.493	1090.0032	1123.6236	1140.2517	1143.1747	1166.9463	1182.9048	1193.5238	1211.7552	1233.0198	1244.6325	1259.5867	1329.3304	1406.099	1432.4468	1442.0249	1482.0631	1486.1909	1488.5756	1491.2174	1503.008	1527.2936	3007.5063	3034.019	3070.8328	3078.8138	3092.8311	3097.7727	3099.4463	3101.356	3113.1415	3160.4217	3178.7842	3487.1973
CN1C2CC1(C)C21CN1	CN1[C@H]2C[C@]1(C)[C@]12CN1	
InChI=1S/C7H12N2/c1-6-3-5(9(6)2)7(6)4-8-7/h5,8H,3-4H2,1-2H3	InChI=1S/C7H12N2/c1-6-3-5(9(6)2)7(6)4-8-7/h5,8H,3-4H2,1-2H3/t5-,6+,7+/m0/s1
