17
gdb 36823	11.75217	0.45001	0.43815	2.2746	75.16	-0.2953	0.0176	0.313	2296.2914	0.134682	-418.028828	-418.01886	-418.017916	-418.065603	33.009	
N	-0.1188087542	-1.1133848629	-0.0039941969	-0.295418
C	-0.0563881338	 0.0400684658	 0.0019626827	 0.248843
C	 0.0475344441	 1.4956321816	 0.0093069427	-0.340689
C	 1.5068490765	 1.9652375251	-0.0027066448	-0.058007
O	 1.4797788085	 3.3747283672	 0.0056915492	-0.248156
C	 2.7630290759	 3.9583659749	-0.0037736095	-0.058006
C	 2.5571497958	 5.4775031322	 0.0072685547	-0.340692
C	 3.8254802694	 6.1991593669	-0.0012768007	 0.248848
N	 4.8391288667	 6.7531060603	-0.0082104475	-0.295421
H	-0.47229958	 1.9021825737	-0.8643797887	 0.165432
H	-0.4545575628	 1.8920163063	 0.8979083772	 0.165433
H	 2.0391131943	 1.5747288306	 0.8778265546	 0.119242
H	 2.0211878448	 1.5849580739	-0.8982401946	 0.119243
H	 3.3454114855	 3.6472786182	 0.8766786128	 0.119241
H	 3.3275264965	 3.6577728961	-0.8993883149	 0.119241
H	 1.9656381667	 5.7704902581	-0.8662909852	 0.165434
H	 1.9834441561	 5.760089702	 0.895997289	 0.165433
38.9644	61.5239	68.8776	119.6792	144.9718	153.6968	215.6062	363.128	398.2211	398.2792	414.6958	557.0831	560.2513	794.331	800.2338	944.3646	959.3065	1032.2134	1040.6141	1084.7112	1097.8494	1101.6648	1167.8243	1221.1405	1241.8756	1298.9094	1301.8452	1304.9891	1313.7313	1400.3188	1451.45	1470.6977	1472.1178	1515.8474	1537.7621	2368.5059	2368.622	2981.6179	2990.8877	3019.6395	3022.6328	3057.5908	3057.7732	3101.1264	3101.2828
N#CCCOCCC#N	N#CCCOCCC#N	
InChI=1S/C6H8N2O/c7-3-1-5-9-6-2-4-8/h1-2,5-6H2	InChI=1S/C6H8N2O/c7-3-1-5-9-6-2-4-8/h1-2,5-6H2
