17
gdb 91087	3.54764	1.48026	1.27954	2.5032	72.17	-0.2227	0.0054	0.2281	1002.9252	0.13784	-417.961433	-417.954224	-417.95328	-417.99301	28.542	
O	-0.0618287094	 1.3741713917	-0.1393217542	-0.418812
C	 0.0674334147	-0.0079233741	-0.0393313371	 0.052481
C	 0.3034225069	-0.6878719257	 1.3733917935	-0.225788
N	-0.7414257413	-1.691126681	 0.99832073	-0.08081
C	-1.9309615816	-2.1637930471	 1.6618582332	-0.043981
C	-2.9364429117	-1.1475073029	 2.158800586	-0.306409
C	-3.0516236465	-1.6393483131	 0.7368079793	 0.000397
N	-2.444960704	-0.7637662175	-0.2671389735	-0.338153
C	-1.1973632989	-0.849664682	-0.016492598	 0.269819
H	-0.9566229956	 1.6084002285	 0.133422405	 0.294117
H	 0.8116498503	-0.3347495332	-0.769360366	 0.124152
H	 1.2835740191	-1.1202549463	 1.5817259337	 0.120694
H	-0.0045233179	-0.0151331323	 2.1820621891	 0.11426
H	-1.9071074143	-3.1630239232	 2.0779847284	 0.104879
H	-3.6652968196	-1.520732889	 2.8695375779	 0.122308
H	-2.6324222523	-0.1173292722	 2.3180030257	 0.107835
H	-3.9023428777	-2.2329962406	 0.4265697969	 0.103011
110.6352	156.753	236.0772	316.8626	380.0416	410.4355	513.4778	526.3853	663.337	686.0948	752.0937	756.7556	804.2202	836.5109	887.5491	930.2818	955.2933	1007.241	1027.6685	1046.4878	1068.5451	1081.3133	1106.2282	1121.2633	1137.2668	1178.1188	1179.6074	1209.2713	1243.6704	1297.9624	1315.5912	1330.6064	1355.118	1431.8807	1462.1669	1503.7571	1712.2948	3039.5924	3090.2415	3119.9718	3124.311	3183.6247	3193.0851	3218.1333	3797.0496
OC1CN2C3CC3N=C12	O[C@H]1CN2[C@H]3C[C@H]3[N][C]12	
InChI=1S/C6H8N2O/c9-5-2-8-4-1-3(4)7-6(5)8/h3-5,9H,1-2H2	InChI=1S/C6H8N2O/c9-5-2-8-4-1-3(4)7-6(5)8/h3-5,9H,1-2H2/t3-,4+,5+/m1/s1
