19
gdb 104134	2.5677	1.34034	1.20234	3.6303	71.5	-0.2633	0.0144	0.2777	1142.6097	0.15791	-460.219455	-460.210356	-460.209412	-460.253344	33.646	
C	-0.1661292538	 1.3347723457	-0.1849384774	-0.261156
O	-0.0759113737	-0.0826522011	-0.2419315687	-0.273447
C	 0.809194989	-0.6235860186	-1.1882548284	 0.461886
C	 2.2549991323	-0.1908781249	-0.9943352004	-0.450955
C	 0.5620100463	-2.1429037092	-1.1687564471	-0.262218
C	-0.6149271886	-2.2985004914	-2.1330615216	-0.364153
C	-0.4735809022	-1.1010683668	-3.0648151426	 0.423284
O	-1.0012256803	-0.9053521097	-4.1187854736	-0.332681
O	 0.4068580704	-0.2097171468	-2.5149291165	-0.250901
H	 0.7220010913	 1.7848683673	 0.2767662116	 0.114146
H	-0.3150426409	 1.766821968	-1.1799299136	 0.138775
H	-1.0339298896	 1.5598135665	 0.4383539136	 0.13196
H	 2.5895931219	-0.4656499252	 0.0097865101	 0.130617
H	 2.8946152395	-0.6829005185	-1.7302022902	 0.131771
H	 2.3661815694	 0.8880451351	-1.1209642916	 0.135852
H	 1.4464624264	-2.6654291684	-1.5424838209	 0.11362
H	 0.3571248261	-2.4805673311	-0.1528310642	 0.125891
H	-0.6234439716	-3.2237397303	-2.7103745439	 0.13716
H	-1.577535072	-2.2139748405	-1.6197343847	 0.150549
84.4987	117.8771	125.7192	175.9811	227.6393	269.5219	314.2797	365.0592	419.127	502.4786	522.8562	572.9145	620.1984	675.4835	774.9656	803.8414	892.7268	903.5842	944.5018	1006.5059	1014.2137	1087.9827	1098.4889	1140.6217	1152.9536	1179.8762	1205.3898	1237.9247	1250.253	1291.1192	1307.3908	1351.1267	1409.2454	1457.9876	1471.2251	1482.3113	1486.057	1487.7575	1505.0976	1511.9438	1889.6598	3014.4792	3055.3419	3072.9686	3074.9084	3085.7973	3129.0571	3130.6093	3133.451	3136.8995	3142.4329
COC1(C)CCC(=O)O1	CO[C@@]1(C)CCC(=O)O1	
InChI=1S/C6H10O3/c1-6(8-2)4-3-5(7)9-6/h3-4H2,1-2H3	InChI=1S/C6H10O3/c1-6(8-2)4-3-5(7)9-6/h3-4H2,1-2H3/t6-/m1/s1
