13
gdb 127374	2.53707	1.86648	1.08276	6.0359	63.32	-0.2721	-0.0735	0.1987	1015.7002	0.088651	-489.897396	-489.889459	-489.888515	-489.931272	27.518	
C	 0.0054880725	 1.4615511646	 0.0065867536	-0.368446
N	-0.0258092455	-0.0036195475	-0.0108425746	-0.143756
C	-0.1176496989	-0.6744495343	-1.2081541688	 0.150746
N	-0.1559297951	-1.9379097949	-1.399474205	-0.125714
O	-0.0969366987	-2.7405892748	-0.2451492206	-0.254018
C	-0.0039885203	-2.2296177866	 1.0220831707	 0.374252
O	 0.042272671	-2.9711195196	 1.9542377834	-0.275126
C	 0.0375399327	-0.7085480702	 1.182572227	 0.299279
O	 0.1193919478	-0.1872372244	 2.2653489081	-0.321496
H	 0.8721081572	 1.8289678285	-0.5493766975	 0.155026
H	-0.9095849028	 1.8656134194	-0.434416259	 0.155009
H	 0.0790328306	 1.7721734577	 1.0470922365	 0.191461
H	-0.1634181805	-0.0619841078	-2.1021878037	 0.162783
32.4577	82.4616	133.1771	228.7794	321.9606	365.6409	457.0156	494.5831	525.0944	579.0895	583.2386	674.7503	806.1096	876.725	916.7101	955.6098	1026.9585	1064.8984	1153.0854	1175.0935	1295.3147	1351.1694	1402.2152	1445.9085	1502.3855	1504.9113	1709.9902	1816.3665	1870.9019	3053.9519	3121.8385	3181.4617	3203.6348
CN1C=NOC(=O)C1=O	Cn1cnoc(=O)c1=O	
InChI=1S/C4H4N2O3/c1-6-2-5-9-4(8)3(6)7/h2H,1H3	InChI=1S/C4H4N2O3/c1-6-2-5-9-4(8)3(6)7/h2H,1H3
