19
gdb 34651	3.32406	1.15239	0.89331	1.4125	94.82	-0.2116	-0.0365	0.175	1309.8858	0.160076	-348.741987	-348.733505	-348.732561	-348.775379	32.831	
C	 0.0815743559	-1.2685969053	 0.1133090294	-0.434703
C	 0.0032772475	-0.0681083248	 0.0484285879	 0.237825
C	-0.0452396407	 1.3612281123	-0.0309302091	 0.109133
C	-1.2561593232	 1.9611520572	-0.0229695532	-0.146642
C	-1.5391958932	 3.4333345231	-0.0925994212	-0.252924
C	-0.6000893665	 4.3165253842	 0.7478464808	-0.208436
C	 0.7897412973	 4.5267631419	 0.1438550936	-0.253198
C	 1.6216692284	 3.3028444433	-0.1079373715	-0.062361
C	 1.2737556322	 2.0098746831	-0.1570004436	-0.110153
H	 0.1360521633	-2.3271010035	 0.1725036953	 0.191568
H	-2.1218881646	 1.3087777348	 0.0451466175	 0.097082
H	-1.5094662303	 3.7670135593	-1.141249124	 0.117706
H	-2.5715269914	 3.596725514	 0.2354496025	 0.105021
H	-1.0660108123	 5.2997280689	 0.8791622202	 0.095959
H	-0.5034500653	 3.8800036126	 1.7482529829	 0.110852
H	 0.7023077099	 5.0885740814	-0.7988784346	 0.112903
H	 1.3612928001	 5.1904994178	 0.8076855065	 0.107757
H	 2.6773755333	 3.5150422758	-0.2697193091	 0.090624
H	 2.0774991997	 1.299644374	-0.3310870003	 0.091987
43.8931	151.7213	157.4801	244.3912	322.358	349.2694	384.1955	437.5613	532.7979	563.0043	568.5187	601.0601	639.1439	664.8375	773.8345	784.3271	836.0733	881.0587	895.4761	915.0872	968.7667	1017.4883	1065.2932	1074.3821	1103.8899	1145.6223	1173.3407	1253.9997	1283.0385	1294.702	1357.1263	1370.2702	1388.2987	1398.8722	1449.9732	1464.8346	1476.6731	1491.4802	1658.6815	1709.9182	2219.6054	2990.153	2996.3769	3019.6245	3036.6857	3061.0958	3076.3221	3132.7327	3166.2696	3169.1603	3504.3399
C#CC1=CCCCC=C1	C#CC1=CCCCC=C1	
InChI=1S/C9H10/c1-2-9-7-5-3-4-6-8-9/h1,5,7-8H,3-4,6H2	InChI=1S/C9H10/c1-2-9-7-5-3-4-6-8-9/h1,5,7-8H,3-4,6H2
