19
gdb 89195	2.54706	1.54476	1.19964	1.613	76.79	-0.2423	0.0259	0.2682	1103.5265	0.159746	-419.1919	-419.183193	-419.182248	-419.225069	33.205	
C	-0.8262818142	 1.2568130612	-0.0074514694	-0.409529
C	-0.0408672577	-0.0440270489	 0.056134254	 0.020566
C	 1.1212659773	-0.2809324909	-0.964140448	-0.299267
C	 2.1004241363	-0.6253403835	 0.2045753094	 0.207182
N	 2.7653730901	-1.889478352	 0.1168534141	-0.602441
C	 0.9614878192	-0.2411665906	 1.2109370849	 0.062962
O	 1.6922007624	 0.9860447992	 1.5389404252	-0.275658
C	 2.7733695451	 0.6209582605	 0.7544427297	 0.375508
N	 3.9066748433	 1.142956879	 0.627116864	-0.558192
H	-0.1591689455	 2.1189362229	 0.0767629317	 0.131968
H	-1.3706000395	 1.3354013369	-0.9543565433	 0.116515
H	-1.5576914262	 1.3178380468	 0.8056192504	 0.118323
H	-0.7229229697	-0.9006956799	 0.0381446938	 0.086125
H	 0.9583318748	-1.1353975793	-1.6242878312	 0.11379
H	 1.4157802302	 0.5836669063	-1.5628715519	 0.115661
H	 3.2025247082	-1.987626176	-0.7946230539	 0.24025
H	 3.5114591432	-1.952740818	 0.8035436654	 0.239441
H	 0.690644749	-0.7897988832	 2.1128403082	 0.089624
H	 4.0015862036	 1.9827336396	 1.2012568669	 0.227173
83.9444	137.2091	198.7552	221.0606	236.3286	258.8446	306.089	382.7563	420.1108	579.3194	581.7631	684.4623	709.7426	786.1338	816.3862	854.5026	866.3215	884.0267	897.1294	943.7185	963.9369	992.0335	992.9322	1055.4417	1113.0683	1145.9385	1171.7	1191.1118	1237.405	1246.2397	1276.3085	1306.1185	1329.6577	1358.0357	1383.5101	1409.7409	1475.6995	1492.4849	1500.6486	1661.4525	1815.2075	3034.871	3050.477	3068.871	3098.087	3117.9172	3120.0466	3127.6215	3471.0607	3494.2485	3569.9633
CC1CC2(N)C1OC2=N	C[C@H]1C[C@]2(N)[C@H]1O[C]2[NH]	
InChI=1S/C6H10N2O/c1-3-2-6(8)4(3)9-5(6)7/h3-4,7H,2,8H2,1H3	InChI=1S/C6H10N2O/c1-3-2-6(8)4(3)9-5(6)7/h3-4,7H,2,8H2,1H3/t3-,4-,6-/m0/s1
