21
gdb 88203	3.40277	1.18604	1.01401	2.6275	78.99	-0.2407	0.0814	0.322	1251.1112	0.183124	-424.222188	-424.213603	-424.212659	-424.25521	33.222	
C	-0.051699755	 1.5159431915	-0.1773138494	-0.426646
C	-0.001263042	 0.0311499208	 0.0807360601	 0.008716
O	 1.2681793488	-0.6257250683	-0.0330271322	-0.299034
C	 0.6200826113	-0.6073992573	 1.2523289759	 0.388995
C	 1.3363924206	 0.1533482939	 2.352960358	-0.286821
C	 2.3527286868	-0.7732834893	 3.0425688703	-0.20784
C	 1.6790844754	-2.0831885506	 3.454657087	-0.064254
O	 1.0955243407	-2.7380358047	 2.3404420334	-0.241071
C	 0.0942114298	-1.9542150363	 1.7179072991	-0.136582
H	 0.7526408852	 2.0492432547	 0.332358964	 0.127015
H	 0.0396597893	 1.7120765223	-1.2507516277	 0.131879
H	-1.0109135065	 1.9268922017	 0.1561489427	 0.121701
H	-0.8139727402	-0.5248666045	-0.3953857408	 0.080591
H	 1.8314948605	 1.038721636	 1.9486201318	 0.107421
H	 0.5944996938	 0.4949061093	 3.0881246088	 0.098641
H	 3.1686218176	-1.0001554693	 2.347362424	 0.121167
H	 2.7893408725	-0.2837434926	 3.9201575282	 0.093777
H	 2.4020565981	-2.787342492	 3.876064095	 0.108197
H	 0.9102512304	-1.8867171185	 4.2241167745	 0.079977
H	-0.7500624906	-1.7916461663	 2.4128243755	 0.081963
H	-0.2649466365	-2.5311202306	 0.8620484118	 0.11221
94.0758	155.878	180.5185	196.9364	262.5937	305.8277	392.2973	402.5955	439.833	497.304	505.8269	592.9039	714.3458	790.583	864.3929	866.1219	899.8754	931.0953	968.9623	978.9056	1019.3826	1040.737	1051.3048	1106.3583	1124.5053	1142.6549	1174.8074	1207.9041	1227.7268	1278.629	1281.3882	1324.3676	1335.7385	1365.9466	1373.4858	1401.817	1408.2058	1420.7241	1468.7461	1470.1118	1476.4951	1479.5519	1491.7736	1499.9217	1516.1994	2939.0076	2945.1031	3017.8409	3038.8695	3039.2412	3064.0757	3083.6884	3088.0841	3098.1553	3099.3277	3102.3844	3137.0041
CC1OC11CCCOC1	C[C@H]1O[C@]21CCCOC2	
InChI=1S/C7H12O2/c1-6-7(9-6)3-2-4-8-5-7/h6H,2-5H2,1H3	InChI=1S/C7H12O2/c1-6-7(9-6)3-2-4-8-5-7/h6H,2-5H2,1H3/t6-,7-/m1/s1
