21
gdb 120797	4.7464	0.63498	0.59953	1.0302	86.63	-0.2528	0.0543	0.307	1888.4232	0.179777	-387.027881	-387.017443	-387.016499	-387.064477	37.132	
C	 0.3259624625	 1.3501661794	-0.2586832935	-0.22661
O	 0.4009589364	-0.051024619	-0.1650697526	-0.23122
C	 0.4327181426	-0.5080831171	 1.1722202526	-0.070865
C	 0.4577586127	-2.01352494	 1.1580050626	-0.035937
C	 1.7599599969	-2.7650937921	 1.0192867107	-0.276078
C	 0.9863160823	-2.8405076454	 2.3090723865	-0.004116
C	 1.528926111	-2.2234634764	 3.5939695524	-0.384514
C	 2.3812561683	-3.1481351431	 4.3364877845	 0.305576
C	 3.0725678769	-3.9247797225	 4.939298163	-0.441155
H	 1.1980331071	 1.8402779451	 0.2041620204	 0.101149
H	 0.3010552594	 1.607238613	-1.3204873325	 0.126962
H	-0.5821477191	 1.7464667237	 0.224099979	 0.101587
H	 1.3167593624	-0.0987277337	 1.6891548022	 0.078852
H	-0.4551400333	-0.1399790892	 1.7167337279	 0.083987
H	-0.3971157722	-2.4377526674	 0.6386375455	 0.093105
H	 1.7981655427	-3.6363804348	 0.3755493637	 0.114657
H	 2.6713359972	-2.1745084092	 1.0198191288	 0.114382
H	 0.4520364595	-3.7691585286	 2.487453217	 0.09688
H	 2.0992766659	-1.3148280594	 3.36915751	 0.128949
H	 0.6957563671	-1.9079273211	 4.236461551	 0.13063
H	 3.6885730337	-4.6043039222	 5.4739085307	 0.19378
43.0181	77.1465	80.5717	100.652	156.679	227.7207	243.0469	293.9714	338.9237	367.5404	458.9596	465.0484	556.61	615.3178	636.3111	799.0577	837.0081	868.3777	908.425	927.2583	963.9968	986.8864	1033.5891	1061.3473	1073.3875	1136.907	1145.9706	1154.8129	1178.1033	1197.1729	1224.6738	1248.8666	1251.537	1280.2112	1318.5503	1373.6829	1413.1675	1448.1801	1468.8887	1481.1633	1484.93	1496.591	1503.4821	1526.0606	2238.9972	2941.443	2964.7119	2973.785	3005.3203	3016.7667	3057.942	3112.9146	3129.0072	3142.5432	3153.271	3214.8417	3507.7618
COCC1CC1CC#C	COC[C@H]1C[C@H]1CC#C	
InChI=1S/C8H12O/c1-3-4-7-5-8(7)6-9-2/h1,7-8H,4-6H2,2H3	InChI=1S/C8H12O/c1-3-4-7-5-8(7)6-9-2/h1,7-8H,4-6H2,2H3/t7-,8-/m1/s1
