17
gdb 35631	3.35169	1.37224	1.07987	1.8443	78.86	-0.2449	-0.0049	0.24	1106.9556	0.136216	-384.647415	-384.639697	-384.638753	-384.679538	30.329	
C	 0.1004035206	-1.2142457198	 0.0758631529	-0.445312
C	 0.0500596135	-0.0138930693	 0.0428675758	 0.312346
C	-0.0060614904	 1.4449970187	 0.017975466	-0.214043
C	-0.8229945138	 2.0022991463	 1.2163346124	-0.262293
C	-0.7321571885	 3.5015987989	 1.3186680793	-0.103173
C	 0.3638207013	 4.1700245969	 0.9555064923	-0.0348
C	 1.5482940613	 3.4545845499	 0.4211053348	-0.015508
O	 2.0396811197	 2.3267212943	 1.1911905193	-0.247974
C	 1.3875739083	 2.0651777441	-0.0409024948	 0.05234
H	 0.1455569952	-2.2748119323	 0.101583586	 0.195843
H	-0.5101754872	 1.7554926792	-0.9096051658	 0.111962
H	-1.8631451962	 1.6789110592	 1.1179447693	 0.115032
H	-0.4379415359	 1.5449003457	 2.1345862328	 0.144644
H	-1.5875386893	 4.0325335323	 1.7264877432	 0.099464
H	 0.4210674313	 5.2503630634	 1.0418217057	 0.094441
H	 2.3432884755	 4.0590482022	-0.0101529235	 0.095302
H	 2.0316827446	 1.6846717504	-0.8336277755	 0.101728
95.8879	141.3895	216.2929	280.1727	333.3466	413.2218	490.1248	524.9909	534.4167	621.5274	643.4383	660.5502	708.0857	717.1789	822.7746	863.1099	912.987	945.6663	958.1478	982.2157	1017.1992	1046.8424	1051.1354	1126.0724	1136.203	1189.7614	1212.0997	1277.9411	1298.685	1325.7369	1336.2492	1380.875	1415.352	1454.8176	1473.2362	1707.1969	2237.9452	2996.0442	3048.1442	3090.0843	3111.7065	3136.2444	3163.7419	3188.217	3504.7616
C#CC1CC=CC2OC12	C#C[C@H]1CC=C[C@H]2O[C@@H]12	
InChI=1S/C8H8O/c1-2-6-4-3-5-7-8(6)9-7/h1,3,5-8H,4H2	InChI=1S/C8H8O/c1-2-6-4-3-5-7-8(6)9-7/h1,3,5-8H,4H2/t6-,7+,8-/m0/s1
