23
gdb 83814	2.0672	1.62235	1.33099	0.2145	91.24	-0.225	0.0241	0.2491	1150.9373	0.207029	-351.167401	-351.158439	-351.157495	-351.200383	35.533	
C	-0.1383491846	 1.5634162647	 0.0153743378	-0.414508
C	 0.0071526764	 0.0590126275	 0.0435147079	-0.05089
C	 1.3027345836	-0.6561017683	-0.3100205217	-0.092599
C	 2.5877184886	 0.1120345656	-0.61794583	-0.232385
C	 3.5666261245	 0.1459356224	 0.5732692166	-0.25488
C	 2.8615327615	 0.4452519478	 1.874508997	-0.057096
C	 1.599139825	 0.0808719389	 2.1040375152	-0.131916
C	 0.7909563671	-0.6863774519	 1.1157991068	 0.303134
C	 0.1936708375	-1.972045159	 1.6616087198	-0.464946
H	 0.7190430799	 2.0669538853	 0.468367616	 0.12252
H	-0.244861751	 1.9327466866	-1.0113795202	 0.111959
H	-1.0302745907	 1.8744017604	 0.5707167237	 0.112076
H	-0.8896980267	-0.4641249077	-0.2827855442	 0.074163
H	 1.1810261633	-1.5801781487	-0.8684366416	 0.073425
H	 3.0803397633	-0.3353617987	-1.4874497217	 0.093521
H	 2.354136161	 1.1438312475	-0.903106251	 0.103761
H	 4.0883387665	-0.8190287509	 0.6578546767	 0.108199
H	 4.3506099872	 0.8892067659	 0.3884663968	 0.097003
H	 3.4239332398	 0.9668352018	 2.6450712458	 0.083795
H	 1.1278867661	 0.3080776422	 3.0589670023	 0.077694
H	-0.4796089982	-1.7692387379	 2.5035844718	 0.111953
H	-0.3843668586	-2.4960678519	 0.8935025695	 0.110335
H	 0.9744596585	-2.6530300414	 2.0192571166	 0.115681
108.6915	169.2303	187.5741	210.845	240.3057	272.2698	292.7042	385.8835	453.3856	496.579	520.0594	559.3862	643.1121	734.7445	765.1935	777.5871	807.8829	886.9108	922.5468	958.7126	970.4799	997.4939	1003.5763	1034.1199	1051.5414	1068.9902	1115.8479	1121.8324	1140.4268	1145.3006	1200.9196	1214.55	1235.2859	1269.4574	1316.231	1348.0218	1363.2375	1383.7183	1412.7216	1415.775	1423.4795	1445.7861	1479.7408	1488.6291	1489.8684	1499.377	1503.8385	1506.6192	1709.4075	2997.0824	3018.1246	3027.9363	3034.7548	3054.5083	3071.8306	3078.5403	3082.1759	3095.0798	3110.2899	3124.8072	3130.4782	3138.304	3161.3836
CC1C2CCC=CC12C	C[C@H]1[C@H]2CCC=C[C@@]12C	
InChI=1S/C9H14/c1-7-8-5-3-4-6-9(7,8)2/h4,6-8H,3,5H2,1-2H3	InChI=1S/C9H14/c1-7-8-5-3-4-6-9(7,8)2/h4,6-8H,3,5H2,1-2H3/t7-,8+,9-/m0/s1
