21
gdb 93104	2.30071	1.62951	1.32989	1.6956	82.73	-0.2402	0.0284	0.2686	1086.9173	0.183219	-387.092716	-387.084302	-387.083358	-387.125329	33.258	
C	-0.104700367	 1.570912668	-0.0052604138	-0.4036
C	 0.0176547738	 0.0393044504	 0.0249141168	-0.065471
C	 0.76493734	-0.5056227457	-1.2118156885	-0.263448
C	 2.2586581204	-0.3299857447	-1.1070693705	-0.054904
C	 2.8970987312	-0.1267369525	 0.0444018661	-0.041977
C	 2.1968422559	-0.0449696134	 1.3765740793	-0.335118
C	 0.7350433305	-0.4448143195	 1.2753762966	 0.449371
C	-0.0200581404	-0.7835543179	 2.4862417242	-0.254803
O	 0.4579108685	-1.8153166627	 1.6176259577	-0.291127
H	 0.8748505457	 2.0502741392	-0.0952775587	 0.127135
H	-0.707720413	 1.8888784398	-0.8617053117	 0.11477
H	-0.5865016227	 1.9490782111	 0.9024067207	 0.111984
H	-0.989517029	-0.3916475779	 0.0410829326	 0.075311
H	 0.5341224994	-1.5730042669	-1.3335819716	 0.122917
H	 0.3910746693	-0.0130745288	-2.1182042671	 0.096189
H	 2.8273173038	-0.3920783769	-2.0318197039	 0.084819
H	 3.9777525281	-0.0080037894	 0.0539694881	 0.084724
H	 2.6846165165	-0.7004621312	 2.1076035482	 0.118027
H	 2.28022902	 0.9755683726	 1.7795045448	 0.111274
H	 0.4659158002	-0.7320755794	 3.4606865407	 0.1068
H	-1.1018506912	-0.6515184443	 2.5059328798	 0.107125
105.8423	135.7914	213.6939	227.7608	289.2788	326.4337	392.5659	397.3683	449.6881	516.0511	563.695	670.1874	677.0762	813.9804	816.3797	883.4829	886.3724	915.628	951.7077	967.8229	999.1686	1004.0589	1019.126	1042.7622	1103.7476	1104.4456	1129.0432	1160.2053	1179.9177	1220.5384	1238.5741	1291.7598	1295.0409	1327.3902	1345.3496	1369.3297	1407.2998	1414.5881	1441.1937	1460.1887	1473.3511	1498.8	1505.128	1531.2571	1725.4168	2997.8448	3011.4818	3034.625	3043.3477	3045.0114	3055.0987	3071.458	3101.0146	3110.0161	3143.6101	3154.4064	3167.2466
CC1CC=CCC11CO1	C[C@H]1CC=CC[C@]21CO2	
InChI=1S/C8H12O/c1-7-4-2-3-5-8(7)6-9-8/h2-3,7H,4-6H2,1H3	InChI=1S/C8H12O/c1-7-4-2-3-5-8(7)6-9-8/h2-3,7H,4-6H2,1H3/t7-,8+/m0/s1
