20
gdb 81920	2.17364	1.92595	1.14964	3.7921	79.68	-0.2322	0.0303	0.2625	1103.8095	0.172056	-403.189706	-403.181108	-403.180164	-403.222628	32.878	
C	-0.1871521621	 1.587039053	-0.0188370037	-0.396884
C	 0.0390323	 0.0736224738	-0.0013641775	 0.018517
C	 0.7973392938	-0.4653940938	-1.2147927105	-0.050895
C	 2.2387643907	-0.0739228528	-1.362434548	-0.29094
C	 1.8758980974	-1.3878662768	-0.6998263488	-0.16
C	 1.7939117121	-1.3351053178	 0.8005195628	 0.41594
O	 2.4320418695	-1.9955777675	 1.5948174604	-0.401939
N	 0.8485483095	-0.3838317155	 1.1265911475	-0.085023
C	 0.4692694333	-0.1417579371	 2.4993745355	-0.348771
H	 0.762679704	 2.1268447585	-0.069822887	 0.12392
H	-0.7869397445	 1.8620263604	-0.8919432148	 0.121761
H	-0.7260631859	 1.9211346431	 0.8728538361	 0.121043
H	-0.9477095298	-0.4176002616	 0.0432620518	 0.078074
H	 0.2222569534	-0.7019018556	-2.1013950349	 0.095875
H	 2.6664658121	-0.1343231593	-2.357083301	 0.120487
H	 2.6477340197	 0.7173978144	-0.7432185185	 0.124951
H	 2.1524648979	-2.3282817452	-1.1566847094	 0.109795
H	 1.1342814737	-0.7358508783	 3.1287849648	 0.164712
H	 0.5669642805	 0.9155697101	 2.7694508538	 0.12289
H	-0.5686232553	-0.4504978919	 2.6848117315	 0.116486
110.4853	145.4705	176.3988	216.1675	244.1326	270.8612	319.0073	369.1914	482.9668	494.9652	607.7109	662.8172	725.3698	760.6367	796.3052	829.1592	935.5015	947.0413	955.7842	999.3008	1033.5018	1065.2087	1078.9913	1101.9247	1110.6868	1136.6674	1156.8865	1165.0517	1200.0858	1282.0294	1295.7221	1336.0416	1371.5726	1382.3328	1409.4764	1414.5951	1445.7976	1483.5728	1490.7104	1493.953	1503.7054	1520.9036	1804.9577	2953.6479	3008.2429	3041.6756	3064.9663	3110.4311	3120.519	3132.4021	3140.4944	3186.1562	3210.0656	3221.4205
CC1C2CC2C(=O)N1C	C[C@H]1[C@H]2C[C@H]2C(=O)N1C	
InChI=1S/C7H11NO/c1-4-5-3-6(5)7(9)8(4)2/h4-6H,3H2,1-2H3	InChI=1S/C7H11NO/c1-4-5-3-6(5)7(9)8(4)2/h4-6H,3H2,1-2H3/t4-,5+,6+/m0/s1
