21
gdb 39284	2.59101	2.01511	1.45199	1.5675	79.47	-0.2384	0.0703	0.3086	969.6245	0.187162	-387.101568	-387.0948	-387.093856	-387.132581	28.591	
C	 0.0091091923	 1.5491702004	-0.2728558775	-0.257772
C	 1.5474386043	 1.5784177076	-0.0068907134	-0.004707
C	 2.0287726276	 2.3748246534	 1.2126908493	-0.219446
C	 1.4979319175	 1.5916068595	 2.428203516	-0.245664
C	 1.477646411	 0.0962336165	 1.9982256263	 0.114516
O	 0.3029788285	-0.5973641824	 2.4011514875	-0.262909
C	-0.7322747746	-0.3399735466	 1.4524302528	-0.100574
C	-0.0475472642	 0.0403841344	 0.1241159588	-0.025676
C	 1.4695818125	 0.093097089	 0.4517314319	-0.052542
H	-0.5848990246	 2.2108519411	 0.3666510585	 0.093384
H	-0.2660059291	 1.7483099003	-1.3109517688	 0.100047
H	 2.1373695217	 1.7800876715	-0.9029831237	 0.062624
H	 3.1259344119	 2.3903635183	 1.2219887728	 0.095668
H	 1.6945974251	 3.4180865784	 1.2013521405	 0.095586
H	 2.0938695183	 1.7530284607	 3.3300581953	 0.09774
H	 0.4743160754	 1.8958608523	 2.6713140597	 0.107637
H	 2.3215387579	-0.4510097591	 2.426820629	 0.077511
H	-1.3368837672	-1.2499040962	 1.3799475479	 0.102791
H	-1.3903316514	 0.4707960097	 1.8017689975	 0.08764
H	-0.339063364	-0.6200185366	-0.693601054	 0.07221
H	 2.128652561	-0.6491803523	 0.0014597735	 0.061938
119.8341	179.5283	330.4887	367.3293	410.7024	560.6881	574.6617	655.8505	685.9954	740.9917	810.5066	817.9703	850.9756	883.4684	906.613	917.761	935.706	958.1293	962.3919	994.9227	1029.0287	1050.0668	1074.3494	1080.781	1107.925	1150.6459	1168.9414	1171.696	1219.8948	1226.3715	1242.6026	1253.1644	1272.735	1287.5797	1299.2243	1309.3725	1317.2489	1334.6998	1354.9436	1362.6781	1389.8291	1480.5901	1485.9364	1500.5792	1525.4646	2978.9198	3025.2346	3044.8605	3052.1711	3060.7132	3066.8309	3071.8454	3081.189	3091.7153	3100.8382	3104.8145	3114.7845
C1C2CCC3OCC1C23	C1[C@H]2CC[C@H]3OC[C@@H]1[C@@H]23	
InChI=1S/C8H12O/c1-2-7-8-5(1)3-6(8)4-9-7/h5-8H,1-4H2	InChI=1S/C8H12O/c1-2-7-8-5(1)3-6(8)4-9-7/h5-8H,1-4H2/t5-,6-,7-,8-/m1/s1
