21
gdb 64493	3.30094	1.29734	1.13419	1.7687	82.77	-0.2352	0.0854	0.3206	1165.7587	0.182331	-386.99982	-386.991534	-386.99059	-387.032821	33.093	
C	-0.0453178895	 1.6337098701	-0.0801673915	-0.51141
C	 0.0015073421	 0.1079439048	-0.0466319714	 0.340028
C	-1.3693442417	-0.5427198495	-0.088070555	-0.034408
C	-2.6187300516	 0.0972571255	 0.4703130022	-0.282551
C	-2.4720782262	-0.0919223159	-1.0183252998	-0.282971
C	 1.1017009209	-0.6580777299	-0.8730573628	 0.013754
C	 2.2200070677	-0.1327512213	 0.0578686427	-0.242995
C	 1.0235766082	-0.6083659576	 0.9138390394	 0.009449
O	 0.9574797801	-1.8111475511	 0.0492181104	-0.310712
H	 0.938577688	 2.0939104602	-0.1684523177	 0.119285
H	-0.640310943	 1.9889928912	-0.9271526929	 0.125419
H	-0.5073866689	 2.0250616998	 0.8316241091	 0.127291
H	-1.3080690466	-1.6150840267	 0.0438265833	 0.106705
H	-3.3127788014	-0.5375802028	 1.0103596274	 0.110027
H	-2.5673215094	 1.1112922462	 0.850037979	 0.107673
H	-2.3231751484	 0.7955216892	-1.6237183099	 0.108366
H	-3.0616518764	-0.8596966717	-1.5074620475	 0.111314
H	 1.1325600293	-0.877647579	-1.941756008	 0.089565
H	 3.0857196828	-0.792477301	 0.1137562359	 0.109346
H	 2.5004430438	 0.9198882189	 0.0429193199	 0.097433
H	 0.9600730901	-0.7660470896	 1.9921473571	 0.089393
51.1697	146.8324	187.2683	244.8989	299.27	343.3064	418.7299	450.8831	510.148	628.2044	651.6822	738.8821	776.2247	788.1517	842.9677	857.631	862.3952	888.382	918.335	931.599	960.479	1021.0135	1033.3847	1051.1919	1058.6488	1080.81	1113.1629	1115.202	1131.3748	1165.2605	1168.6286	1182.9692	1203.1723	1207.3043	1218.5387	1265.8635	1279.8748	1292.1703	1399.6369	1418.9998	1466.6902	1487.8843	1502.2343	1506.3867	1517.729	3049.2058	3085.7531	3099.1351	3104.9638	3108.7602	3133.307	3137.9852	3139.2198	3162.4133	3194.6814	3208.2553	3224.994
CC1(C2CC2)C2CC1O2	C[C@@]1(C2CC2)[C@H]2C[C@@H]1O2	
InChI=1S/C8H12O/c1-8(5-2-3-5)6-4-7(8)9-6/h5-7H,2-4H2,1H3	InChI=1S/C8H12O/c1-8(5-2-3-5)6-4-7(8)9-6/h5-7H,2-4H2,1H3/t6-,7+,8-
