19
gdb 68640	2.40336	1.94535	1.49349	2.708	79.12	-0.222	-0.0179	0.204	966.0287	0.160669	-385.927054	-385.919505	-385.918561	-385.958628	30.695	
C	 0.0123169664	 1.5353616554	 0.0216640359	-0.494996
C	-0.0035859618	 0.0231102736	-0.0488379135	 0.182083
C	 0.7071222451	-0.7135532835	-1.2157792464	-0.257772
C	 0.3182987113	-2.1332877273	-0.7324494557	-0.076703
C	 0.9609803153	-2.1370987654	 0.6837092893	-0.325927
C	 0.6770706579	-0.6947579457	 1.1509162962	 0.411541
O	 0.9351820763	-0.2085100369	 2.2198475509	-0.335754
C	-1.17969986	-1.9358090667	-0.5115676532	-0.084385
C	-1.3645347375	-0.6801049446	-0.0943939383	-0.11285
H	 1.0365921884	 1.9187201777	-0.0173941078	 0.121138
H	-0.5506680338	 1.9772081291	-0.8062825556	 0.113316
H	-0.4264826503	 1.8785903817	 0.9633808007	 0.133844
H	 0.2711134658	-0.457247134	-2.1848872323	 0.103858
H	 1.7901159146	-0.5449267143	-1.2404629162	 0.095838
H	 0.6099373458	-2.9679967141	-1.3695318127	 0.069499
H	 0.5409106776	-2.8752362298	 1.36971836	 0.12615
H	 2.046008704	-2.2879495318	 0.6501782001	 0.123605
H	-1.9221090683	-2.7209711628	-0.5798185492	 0.10198
H	-2.279344297	-0.2242859206	 0.2631680378	 0.105534
125.3448	165.6816	244.0791	300.7939	349.8387	419.2333	441.6654	534.9134	595.8347	614.8285	623.7713	715.3113	758.7361	793.6202	846.4387	868.4717	905.9838	930.3611	941.6554	954.7495	993.414	1001.6932	1043.0092	1095.8065	1098.5114	1145.618	1164.8555	1190.0805	1215.3457	1252.7438	1273.6412	1290.3027	1322.9772	1365.5727	1413.0501	1457.1074	1488.9481	1492.319	1494.8955	1640.1068	1848.2691	3037.4158	3040.2063	3051.329	3104.2319	3108.0412	3111.4965	3113.767	3115.3081	3199.5445	3224.7581
CC12CC(CC1=O)C=C2	C[C@@]12C[C@@H](CC1=O)C=C2	
InChI=1S/C8H10O/c1-8-3-2-6(5-8)4-7(8)9/h2-3,6H,4-5H2,1H3	InChI=1S/C8H10O/c1-8-3-2-6(5-8)4-7(8)9/h2-3,6H,4-5H2,1H3/t6-,8-/m1/s1
