19
gdb 14762	11.44222	0.54033	0.52432	5.0724	73.27	-0.272	0.0369	0.3089	1996.9681	0.164491	-365.080302	-365.070571	-365.069626	-365.11584	33.156	
O	-0.0506485091	 1.462330673	 0.0104093082	-0.419853
C	 0.0402935398	 0.0464235019	 0.001957604	-0.07334
C	-1.3769311548	-0.5119948894	 0.0123822163	-0.171572
C	-1.4156526779	-2.042628987	 0.0045257549	-0.190932
C	-2.8431958068	-2.597072538	 0.0150553984	-0.178545
C	-2.864445883	-4.1386278644	 0.0071002144	-0.342295
C	-4.2194184636	-4.6858268942	 0.0172618918	 0.256895
N	-5.2974986856	-5.1018891069	 0.0251770875	-0.304455
H	 0.8406402331	 1.8232395258	 0.0039868562	 0.286981
H	 0.5757273748	-0.3143923796	-0.8920247379	 0.084585
H	 0.5925238913	-0.3239033744	 0.8817191964	 0.084585
H	-1.8953989022	-0.1256204782	 0.8982744337	 0.11043
H	-1.9120478572	-0.1161885102	-0.8593314952	 0.11043
H	-0.8857535625	-2.4211115493	-0.8807431536	 0.099624
H	-0.8691379539	-2.4305308389	 0.8755016796	 0.099623
H	-3.3795363852	-2.2365781517	 0.8999440858	 0.122898
H	-3.3961424313	-2.227231802	-0.8556447875	 0.1229
H	-2.3434436628	-4.5206370786	-0.8789656264	 0.151025
H	-2.3266414129	-4.5299299077	 0.8789281932	 0.151017
57.9459	80.2267	80.7043	133.3738	154.551	183.7899	269.9597	283.1354	358.912	400.593	487.075	559.7437	737.9598	767.0897	844.649	935.1272	967.6755	991.4669	1032.7396	1055.2605	1065.4768	1093.6587	1140.0474	1200.5329	1223.4603	1264.7409	1277.514	1309.9776	1325.9306	1326.5743	1334.3873	1377.2272	1404.0275	1464.3271	1469.02	1487.7391	1494.6933	1509.7873	1529.4614	2362.482	2956.0618	2980.8298	3005.4555	3032.4478	3033.8735	3035.5822	3046.8896	3066.9607	3077.4774	3094.0834	3830.4115
OCCCCCC#N	OCCCCCC#N	
InChI=1S/C6H11NO/c7-5-3-1-2-4-6-8/h8H,1-4,6H2	InChI=1S/C6H11NO/c7-5-3-1-2-4-6-8/h8H,1-4,6H2
