23
gdb 94678	2.40318	1.61333	1.14941	1.7463	85.15	-0.2451	0.084	0.3291	1183.8981	0.204621	-388.315026	-388.305398	-388.304454	-388.348618	37.33	
C	 0.0154744344	 1.5503168625	 0.0242174945	-0.409268
C	 0.0034759443	 0.0201841819	 0.001965779	-0.02412
C	 0.7754769914	-0.5846907454	-1.1958875495	-0.227498
C	 1.2641133883	-1.969480409	-0.7246904751	-0.282432
C	 1.4217115365	-1.8176609506	 0.7815762448	 0.351253
C	 1.7420599155	-3.0259090678	 1.6186308005	-0.485996
O	 2.1030937749	-0.593209549	 1.1343155208	-0.346089
C	 0.6612084513	-0.6308344229	 1.2202126281	 0.354655
C	 0.0669298432	-0.4246851093	 2.5872171752	-0.493665
H	 1.0397523694	 1.9198926966	 0.1401137359	 0.128875
H	-0.3877974446	 1.9585407343	-0.9083157502	 0.111728
H	-0.5857379403	 1.9519418187	 0.8464919267	 0.110153
H	-1.0393577098	-0.3289035803	-0.0238745247	 0.065684
H	 0.1617605737	-0.6367772251	-2.0990580923	 0.091837
H	 1.6370166887	 0.0494417792	-1.4206406737	 0.112859
H	 0.5184474649	-2.7495900004	-0.9255180106	 0.096191
H	 2.1956134752	-2.2784588319	-1.2110879752	 0.101265
H	 2.7130171796	-3.4426705904	 1.3282368812	 0.126362
H	 1.7903956211	-2.7768991635	 2.6807375269	 0.126732
H	 0.9884608088	-3.8079535796	 1.4750306991	 0.118219
H	 0.1080676124	 0.6326685261	 2.8700436016	 0.129097
H	-0.9844156994	-0.7326229546	 2.6021337207	 0.117873
H	 0.6074278407	-0.9920083093	 3.3477143862	 0.126285
109.9699	165.3879	172.2337	198.1712	223.9148	243.7721	262.2673	301.8482	353.0955	408.3417	460.3393	523.2224	568.5757	613.6178	665.5214	697.8322	822.4615	839.1432	889.1341	921.298	948.8853	971.8861	995.6164	1028.4948	1041.6239	1070.4713	1097.1432	1141.1882	1159.2444	1202.7261	1221.0377	1241.7094	1249.7584	1316.9884	1333.9762	1344.0579	1368.1243	1404.3583	1410.0961	1416.3467	1453.5283	1475.6978	1477.972	1485.6866	1491.979	1496.6314	1499.0524	1504.6699	1515.8372	2997.7314	3025.9336	3030.8565	3034.5564	3037.5386	3061.2315	3072.7551	3092.9017	3094.3341	3097.8289	3103.4373	3108.868	3124.5856	3130.705
CC1CCC2(C)OC12C	C[C@H]1CC[C@@]2(C)O[C@@]12C	
InChI=1S/C8H14O/c1-6-4-5-7(2)8(6,3)9-7/h6H,4-5H2,1-3H3	InChI=1S/C8H14O/c1-6-4-5-7(2)8(6,3)9-7/h6H,4-5H2,1-3H3/t6-,7+,8-/m0/s1
