13
gdb 132190	2.02541	1.85725	0.97471	5.5986	63.22	-0.2606	-0.0479	0.2127	1101.5951	0.088439	-497.910072	-497.902594	-497.90165	-497.942455	27.095	
C	 0.1174239221	 1.4773252993	 0.0138597738	-0.476564
C	-0.0493191908	-0.0015182069	 0.0015740399	 0.390445
C	-1.1716859192	-0.7145813428	-0.1483102217	-0.313867
C	-1.1485341891	-2.1846979196	-0.134204625	 0.398872
O	-2.1320738036	-2.8728942417	-0.2641387369	-0.333006
N	 0.1381983233	-2.7662202555	 0.0468255987	-0.404033
C	 1.1196320147	-1.9883571538	 0.1766769085	 0.400433
F	 2.3370885793	-2.4356987442	 0.3473492007	-0.035618
O	 1.1602745378	-0.6477192462	 0.1731827721	-0.229942
H	 0.7959636736	 1.7934532871	-0.7855522165	 0.158845
H	-0.8466973048	 1.968402073	-0.1226130231	 0.152389
H	 0.5548622049	 1.8060194238	 0.9625523032	 0.158844
H	-2.1241452181	-0.2200482826	-0.2834372338	 0.133201
114.8209	158.2803	175.808	213.4753	287.7908	388.2319	493.5601	544.7124	557.6551	605.3064	628.1898	729.7712	780.5863	889.7129	906.6793	968.5667	1000.7248	1067.9182	1081.0401	1149.4628	1238.2936	1340.2209	1358.1526	1418.5413	1468.0543	1479.5341	1680.4948	1750.6086	1816.2977	3043.8226	3101.1835	3151.5793	3231.3492
CC1=CC(=O)N=C(F)O1	Cc1cc(=O)nc(F)o1	
InChI=1S/C5H4FNO2/c1-3-2-4(8)7-5(6)9-3/h2H,1H3	InChI=1S/C5H4FNO2/c1-3-2-4(8)7-5(6)9-3/h2H,1H3
