15
gdb 16087	4.42137	1.74499	1.4912	4.2746	70.69	-0.2532	-0.0035	0.2497	848.836	0.120789	-325.542333	-325.535824	-325.53488	-325.572817	25.457	
N	 0.0229357926	-1.1170477053	-0.081361115	-0.350392
C	 0.0206211208	 0.0392814583	-0.0288564321	 0.203329
C	 0.0029902547	 1.469967961	 0.0454114333	 0.187406
C	 0.3985905158	 2.260440547	-1.1901699126	-0.30739
C	 1.308050873	 2.2863833458	 0.0109705849	-0.107403
C	 1.0753636112	 3.4048463325	 0.9693374439	-0.070267
C	-0.1439480274	 3.3584274132	 1.5092205698	-0.080567
C	-0.9288659158	 2.1434222039	 1.065958517	-0.332908
H	 0.7108839116	 1.6775740835	-2.0492403619	 0.138213
H	-0.1742093865	 3.1537181693	-1.4158681939	 0.127115
H	 2.272169539	 1.7954277615	-0.0523641068	 0.116453
H	 1.8190440501	 4.170702781	 1.1539115501	 0.109102
H	-0.5608181764	 4.0967173233	 2.183895265	 0.107335
H	-1.8983255078	 2.4040253027	 0.6248834456	 0.126241
H	-1.1376620548	 1.4693156722	 1.9054887028	 0.133734
145.1071	168.6398	307.5189	339.0359	478.8589	501.4729	559.6416	586.4523	716.2859	743.9687	759.2356	845.7723	885.28	933.1865	955.9297	965.7695	994.4496	1015.5237	1047.6184	1080.5499	1085.8659	1144.7837	1174.3188	1240.1057	1253.8287	1310.7884	1358.9446	1387.5426	1469.8759	1483.5391	1671.6561	2348.5062	3032.3446	3063.4557	3133.4817	3184.1664	3196.9227	3220.1163	3229.4881
N#CC12CC1C=CC2	N#C[C@]12C[C@H]1C=CC2	
InChI=1S/C7H7N/c8-5-7-3-1-2-6(7)4-7/h1-2,6H,3-4H2	InChI=1S/C7H7N/c8-5-7-3-1-2-6(7)4-7/h1-2,6H,3-4H2/t6-,7+/m1/s1
