18
gdb 98802	3.03383	1.17389	0.86458	1.8908	75.22	-0.2578	-0.0283	0.2294	1328.9902	0.146504	-439.150618	-439.141271	-439.140326	-439.186113	32.596	
C	-0.0442383196	 1.5521311041	-0.043195248	-0.380895
C	 0.023946758	 0.0293056268	 0.0439542818	-0.29351
C	 0.7607804072	-0.4469219077	 1.2806781041	 0.397698
O	 1.2435412988	 0.2764651419	 2.1240088358	-0.336844
N	 0.8660055158	-1.8296396233	 1.4185430195	-0.144606
C	 1.5102933807	-2.6068365024	 2.4918696049	-0.166323
C	 1.0884091913	-3.8960926794	 1.7309692305	-0.377931
C	 0.4581308262	-2.9559140872	 0.687673462	 0.426668
O	-0.1435309637	-3.064843701	-0.342537659	-0.345113
H	 0.9568733293	 1.9892886714	-0.074498465	 0.131783
H	-0.5835769188	 1.8554772923	-0.9444824501	 0.113593
H	-0.5561251678	 1.9729466962	 0.8257626636	 0.132099
H	-0.9756858636	-0.4217459983	 0.0487116356	 0.140933
H	 0.5143884764	-0.4064429485	-0.8346760701	 0.141187
H	 2.5845369634	-2.4263664303	 2.564600893	 0.135725
H	 1.0449780886	-2.4554718543	 3.467795279	 0.135678
H	 1.9044996675	-4.5067389139	 1.3412311848	 0.14496
H	 0.3678959303	-4.5360435166	 2.2429326678	 0.1449
33.1041	82.4921	112.4196	136.5503	182.6338	215.7704	265.7337	365.7356	398.5089	536.7315	576.4354	602.819	732.1009	769.4994	798.2402	811.185	918.8496	978.5059	1025.1044	1045.1829	1050.2421	1103.3843	1115.3457	1155.0652	1172.6214	1188.9642	1228.0526	1283.5301	1301.8819	1346.2865	1405.1892	1414.7559	1441.5439	1458.089	1491.6643	1498.8104	1521.0377	1789.3066	1883.8108	3045.2759	3053.0812	3071.0512	3077.4278	3092.121	3125.3262	3127.7388	3128.816	3149.8077
CCC(=O)N1CCC1=O	CCC(=O)N1CCC1=O	
InChI=1S/C6H9NO2/c1-2-5(8)7-4-3-6(7)9/h2-4H2,1H3	InChI=1S/C6H9NO2/c1-2-5(8)7-4-3-6(7)9/h2-4H2,1H3
