19
gdb 72869	2.92691	1.40801	1.13952	3.3749	76.27	-0.2401	-0.0274	0.2127	1121.9604	0.15742	-423.007633	-422.999002	-422.998058	-423.041188	32.195	
C	-0.3653416241	 1.5735783187	 0.0427386153	-0.478158
C	-0.0693347122	 0.0988979281	 0.0649436496	 0.457646
C	-1.210792134	-0.9445085594	 0.1558796288	-0.266968
C	-0.3834631865	-1.753956882	 1.2043780333	-0.242465
C	 0.7390997386	-0.6837904458	 1.1536352927	-0.145768
C	 1.763669361	-0.8907298027	 0.0118844593	 0.026785
O	 0.9015498648	-0.282267332	-0.9520309802	-0.315954
C	 3.053059958	-0.1319433517	 0.2491572697	 0.137244
O	 3.2901793236	 0.975787633	-0.1531061311	-0.235616
H	 0.564032162	 2.1473483081	 0.0835987773	 0.145985
H	-0.8884100116	 1.8353229589	-0.8842361181	 0.130058
H	-1.0042213486	 1.8569418813	 0.885333412	 0.113673
H	-2.1422854546	-0.5386737938	 0.5598625386	 0.103473
H	-1.4213939886	-1.4446144748	-0.7915005944	 0.113196
H	-0.8656531508	-1.8243258109	 2.1815848669	 0.1089
H	-0.0775437643	-2.7586438848	 0.9017193289	 0.105718
H	 1.0938046987	-0.2542744953	 2.0906130561	 0.084369
H	 2.0045782428	-1.9382712473	-0.2249414251	 0.087695
H	 3.7772235657	-0.6914727075	 0.8895734403	 0.070189
65.4541	97.6568	178.8672	216.0944	239.4371	293.432	328.25	349.4535	412.0111	615.1248	664.5038	731.7619	781.4126	808.1283	851.6193	894.3664	916.0285	922.1805	940.3571	963.8286	1010.057	1023.538	1080.0108	1113.9625	1139.6517	1161.3768	1198.2704	1222.8956	1229.9038	1236.9598	1273.4755	1298.0632	1327.9884	1362.6512	1408.9284	1413.5556	1464.0905	1478.8268	1487.4764	1491.9558	1838.2907	2841.8299	2994.0004	3033.3004	3060.2475	3065.73	3100.2047	3104.1781	3113.4639	3125.5105	3128.9122
CC12CCC1C(O2)C=O	C[C@]12CC[C@H]1[C@@H](O2)C=O	
InChI=1S/C7H10O2/c1-7-3-2-5(7)6(4-8)9-7/h4-6H,2-3H2,1H3	InChI=1S/C7H10O2/c1-7-3-2-5(7)6(4-8)9-7/h4-6H,2-3H2,1H3/t5-,6-,7-/m0/s1
