20
gdb 84512	2.61608	1.81355	1.43214	1.8153	83.04	-0.206	0.0064	0.2124	1001.5718	0.172916	-365.966296	-365.958727	-365.957783	-365.997784	31.196	
C	-0.1397858721	 1.5803155041	-0.1182545141	-0.393356
C	-0.0411757847	 0.0520734525	-0.0054011849	-0.13548
C	 0.6696722952	-0.5775929466	-1.2094871995	-0.080479
C	 1.8161471426	-1.1990237592	-0.8874890214	-0.195062
C	 2.0013536312	-1.1875416656	 0.584454805	 0.224441
C	 2.9834622393	-0.5066464661	 1.5541500333	-0.270568
C	 1.7632296243	 0.2933001577	 2.1483046124	-0.271123
C	 0.8379873089	-0.432745106	 1.1464920316	 0.242766
N	 0.9755407822	-1.8720044334	 1.4178579029	-0.401278
H	 0.8504944745	 2.0320880521	-0.2318042703	 0.120304
H	-0.7369140933	 1.8642626492	-0.9904032684	 0.1148
H	-0.6140924503	 2.0096163516	 0.7702272661	 0.119724
H	-1.0638724749	-0.3433432721	 0.0782562589	 0.084189
H	 0.2407863359	-0.5418989553	-2.2069099529	 0.094467
H	 2.4843939956	-1.6813444744	-1.5924733445	 0.09935
H	 3.5122014362	-1.1756764416	 2.2366728438	 0.10649
H	 3.7016351529	 0.1428642112	 1.0494422157	 0.103571
H	 1.5311406558	 0.1208571562	 3.2018889084	 0.106342
H	 1.8427383798	 1.3662746121	 1.9653168575	 0.104133
H	 0.3626594909	-2.3815502462	 0.7840495403	 0.22677
132.7994	216.4133	232.6271	266.8178	323.978	408.5603	460.9259	522.7958	567.061	665.4773	684.8152	730.0938	762.3459	782.7292	794.8245	822.9711	887.6904	927.0236	948.621	954.5553	994.3225	1039.1195	1070.4067	1079.3979	1095.9957	1118.8126	1125.4046	1139.5023	1216.8153	1232.1244	1235.5318	1273.9931	1305.8116	1321.6614	1344.1165	1366.8678	1381.7852	1407.0205	1465.3462	1483.5134	1493.8831	1500.9941	1623.0962	2998.1379	3033.9918	3064.4047	3070.7597	3104.7687	3108.189	3117.1878	3134.7784	3168.7226	3197.2339	3494.6458
CC1C=CC23CCC12N3	C[C@H]1C=C[C@@]23CC[C@@]12N3	
InChI=1S/C8H11N/c1-6-2-3-7-4-5-8(6,7)9-7/h2-3,6,9H,4-5H2,1H3	InChI=1S/C8H11N/c1-6-2-3-7-4-5-8(6,7)9-7/h2-3,6,9H,4-5H2,1H3/t6-,7+,8+/m0/s1
