23
gdb 122657	5.28191	0.64243	0.59592	0.9758	89.27	-0.2368	0.0263	0.2631	1926.6652	0.205804	-388.293859	-388.28402	-388.283076	-388.329681	35.546	
C	 0.0860674399	 1.4135979403	-0.1014249929	-0.22688
O	 0.0552678306	 0.0088745027	-0.0601054661	-0.22893
C	-1.2549444952	-0.510566238	 0.0200870664	-0.057219
C	-1.1708034656	-2.0308437123	 0.0674484402	-0.208757
C	-2.5396066453	-2.7273918686	 0.1030644261	-0.016113
C	-2.438604959	-4.2731015183	-0.0226069989	-0.228433
C	-3.5675655192	-4.8493599779	 0.8673531026	-0.255452
C	-3.8733820416	-3.7027220114	 1.8020571905	-0.068529
C	-3.3250536961	-2.5614172676	 1.3900569438	-0.060834
H	 1.1339251266	 1.7183178462	-0.1621144211	 0.124958
H	-0.4499931003	 1.8107631286	-0.9788036975	 0.100644
H	-0.3615442045	 1.8611926144	 0.8008974889	 0.100779
H	-1.7649320937	-0.1147595948	 0.9153746666	 0.083494
H	-1.8490041782	-0.1873715245	-0.8537076033	 0.081062
H	-0.6144327584	-2.3657960717	-0.8164553465	 0.103292
H	-0.5810625322	-2.3281169067	 0.9429614641	 0.103673
H	-3.1392470739	-2.327095712	-0.7311185306	 0.072649
H	-2.4935828623	-4.6136479538	-1.059920174	 0.094848
H	-1.467821958	-4.5939635082	 0.3719364968	 0.102843
H	-4.4578713946	-5.1146443645	 0.2791201291	 0.103923
H	-3.2658844852	-5.7631829366	 1.3916717824	 0.101487
H	-4.5034943176	-3.8134440414	 2.6781550253	 0.088842
H	-3.4453841063	-1.6023140641	 1.8824671181	 0.088652
58.0946	72.5675	89.2195	121.9875	159.1557	232.9276	269.9127	294.9524	333.0592	462.5626	521.5261	629.1343	742.5115	760.9119	803.0853	850.661	872.6448	924.5427	965.3452	973.4059	985.613	991.9653	1049.0587	1077.5342	1100.2871	1115.5992	1144.8142	1165.2717	1176.2494	1183.3415	1227.2938	1227.8481	1235.6312	1279.895	1303.5701	1313.551	1321.2734	1339.4913	1360.4897	1391.5785	1427.7529	1481.5249	1482.9844	1485.1924	1491.049	1499.9297	1505.2953	1531.7747	1684.9483	2938.4031	2960.5191	2964.6081	2967.9616	3004.0971	3004.9301	3027.9916	3039.1672	3056.0914	3072.1571	3095.4983	3109.9473	3175.6525	3201.5581
COCCC1CCC=C1	COCC[C@H]1CCC=C1	
InChI=1S/C8H14O/c1-9-7-6-8-4-2-3-5-8/h2,4,8H,3,5-7H2,1H3	InChI=1S/C8H14O/c1-9-7-6-8-4-2-3-5-8/h2,4,8H,3,5-7H2,1H3/t8-/m1/s1
