19
gdb 76566	2.85354	1.29475	1.25677	2.6334	79.07	-0.2144	0.0094	0.2238	1122.826	0.158389	-423.008666	-422.999904	-422.99896	-423.042125	33.013	
C	-0.0513483162	 1.5433028924	 0.0887040987	-0.396952
C	-0.0035986313	 0.0352334429	 0.0030652818	-0.134131
C	 1.283424843	-0.689736541	-0.3656940858	 0.042081
O	 2.4654528317	 0.0291740211	-0.5242749187	-0.430781
C	 0.7377644694	-0.7851222247	 1.0443976716	 0.368963
O	 1.5179658727	-0.0793926723	 2.0013791804	-0.325384
C	 1.5300387846	-0.810376873	 3.2353953474	-0.130454
C	 0.688271569	-2.0289735272	 2.9726637058	-0.114068
C	 0.2425452666	-1.9983511936	 1.7192316191	-0.161046
H	 0.9212832994	 1.9512738873	 0.3675730882	 0.129682
H	-0.328712308	 1.9716125247	-0.8799519728	 0.117775
H	-0.7853929466	 1.8755580941	 0.8297853663	 0.114239
H	-0.9114280732	-0.4373133938	-0.367115884	 0.082972
H	 1.2238228258	-1.5561266422	-1.0204948156	 0.092318
H	 2.7992047132	 0.1962248427	 0.3687502682	 0.295151
H	 2.56741418	-1.0582652198	 3.5059278796	 0.112409
H	 1.1249005218	-0.1749789029	 4.0372321069	 0.114013
H	 0.5007138445	-2.7917569996	 3.7165345118	 0.11017
H	-0.3866171262	-2.728821445	 1.2283910211	 0.113044
92.5185	106.252	160.6981	170.6801	232.8782	245.3732	393.2839	424.1417	440.6462	548.7142	603.6414	628.2936	707.3248	778.9902	803.7185	844.3811	879.3786	943.5434	947.8736	969.5351	993.9807	1042.7725	1049.4296	1074.867	1100.9899	1120.3797	1149.0477	1159.6479	1197.9507	1217.5404	1264.2811	1337.2739	1353.1759	1380.3411	1401.2346	1417.5988	1455.3644	1488.6466	1499.7124	1519.8913	1674.9643	2984.5455	3004.8796	3041.0641	3098.0236	3118.5975	3130.6225	3143.1492	3215.1667	3238.3221	3729.5818
CC1C(O)C11OCC=C1	C[C@H]1[C@@H](O)[C@]21OCC=C2	
InChI=1S/C7H10O2/c1-5-6(8)7(5)3-2-4-9-7/h2-3,5-6,8H,4H2,1H3	InChI=1S/C7H10O2/c1-5-6(8)7(5)3-2-4-9-7/h2-3,5-6,8H,4H2,1H3/t5-,6+,7-/m0/s1
