14
gdb 53073	5.56236	0.79675	0.70301	3.3384	76.98	-0.2665	-0.0502	0.2163	1542.0266	0.09976	-436.713825	-436.705332	-436.704388	-436.749755	29.036	
C	-0.10626977	 1.4237473858	 0.0121945195	-0.512417
C	-0.0179734871	-0.0250401275	 0.0110880443	 0.303989
C	 0.0616771981	-1.2270251923	 0.0117917362	-0.06355
C	 0.1424013749	-2.6392935268	 0.0095117294	 0.220672
N	 1.1743190425	-3.3523331293	 0.2450408364	-0.309822
C	 0.7331665502	-4.7334654878	 0.118634251	-0.322256
C	-0.7474235109	-4.6613197187	-0.2337945618	 0.393761
O	-1.5605477715	-5.5042870095	-0.4408031767	-0.309948
O	-1.0425726632	-3.3025072816	-0.2835473509	-0.226274
H	 0.5868451042	 1.8564993791	-0.7170515531	 0.166733
H	-1.1181027485	 1.7561039156	-0.2408217418	 0.166076
H	 0.1486435747	 1.8283505879	 0.9975102586	 0.166741
H	 1.290497717	-5.2635579557	-0.6619070526	 0.163147
H	 0.8814742895	-5.2896907993	 1.0510926015	 0.163146
8.3019	84.443	90.0734	177.1163	275.0197	303.9674	428.4154	439.8106	474.1535	544.944	578.8103	698.0626	737.966	860.9652	894.5481	984.9938	1002.2835	1038.1655	1046.9138	1052.3318	1144.9439	1181.933	1267.3744	1335.944	1410.3746	1439.7807	1469.5726	1470.3796	1686.0846	1921.4532	2372.0795	3034.1175	3049.4766	3082.2206	3098.5114	3103.829
CC#CC1=NCC(=O)O1	CC#CC1=NCC(=O)O1	
InChI=1S/C6H5NO2/c1-2-3-5-7-4-6(8)9-5/h4H2,1H3	InChI=1S/C6H5NO2/c1-2-3-5-7-4-6(8)9-5/h4H2,1H3
