20
gdb 122691	4.57875	0.59248	0.5809	5.1564	85.71	-0.256	-0.0385	0.2175	1967.8988	0.169714	-399.347389	-399.336727	-399.335783	-399.384183	37.49	
C	-0.3704251211	 1.7876863704	-0.1505646104	-0.380012
C	-0.2681128685	 0.2782884809	 0.0851276365	-0.162358
C	-1.6094091085	-0.4437172006	-0.0783203879	-0.161753
C	-1.5058369723	-1.9598324355	 0.1628068654	-0.19351
N	-2.8091304998	-2.6038538282	 0.1129780654	-0.256355
C	-3.2374132845	-3.050090875	-1.0003293798	 0.262015
N	-2.6136522293	-3.0694212912	-2.2366078735	-0.556001
C	-4.5438774309	-3.6886726955	-1.0091158151	 0.271036
N	-5.5820196632	-4.194555005	-1.0551379634	-0.319203
H	 0.6004651418	 2.2767645768	-0.0258803665	 0.115518
H	-0.7266505096	 2.007754358	-1.1631064248	 0.11322
H	-1.0704618813	 2.2511512828	 0.5530303632	 0.119953
H	 0.4669448647	-0.1522045475	-0.6082430725	 0.092553
H	 0.1214913907	 0.0892838992	 1.0936984616	 0.103163
H	-2.3463822003	-0.0332172395	 0.6217237006	 0.118613
H	-2.010623134	-0.2563538124	-1.0841959797	 0.08537
H	-0.784543063	-2.4043916643	-0.5431499585	 0.088378
H	-1.0996005837	-2.1285877616	 1.1661340319	 0.115871
H	-1.8835798653	-2.3953569175	-2.398418447	 0.269978
H	-3.1884791821	-3.2694606544	-3.0393607554	 0.273523
42.7995	68.4801	77.3629	124.7385	176.9383	207.6255	248.3882	294.7472	314.1476	355.798	388.9994	421.2876	494.8732	554.8196	610.7662	719.9276	740.5004	796.2732	837.6704	907.757	956.6926	987.8649	1022.7486	1060.6776	1117.9549	1138.7789	1192.8707	1251.7356	1286.9523	1315.1758	1321.5125	1335.7444	1368.7694	1392.311	1416.5013	1486.3371	1494.9142	1501.1581	1509.3863	1526.5318	1640.5998	1720.2359	2358.3228	2963.4537	3011.1372	3016.1657	3031.6019	3043.2792	3054.2095	3074.4916	3098.6867	3104.9978	3598.8048	3711.1316
CCCCN=C(N)C#N	CCCCN=C(N)C#N	
InChI=1S/C6H11N3/c1-2-3-4-9-6(8)5-7/h2-4H2,1H3,(H2,8,9)	InChI=1S/C6H11N3/c1-2-3-4-9-6(8)5-7/h2-4H2,1H3,(H2,8,9)
