14
gdb 125433	3.33056	1.45091	1.01735	2.0556	68.55	-0.2488	-0.0582	0.1907	1097.7331	0.100228	-470.024901	-470.016537	-470.015593	-470.058502	29.981	
C	-0.0097064494	 1.4941332022	 0.0152335727	-0.46577
C	-0.0411328435	-0.0028963224	 0.0074857024	 0.439096
N	-1.1228817014	-0.6637974621	 0.2604624808	-0.365304
C	-1.0449140813	-2.0391942218	 0.2330268596	 0.36489
O	-1.9855934081	-2.7846441627	 0.4218131611	-0.35325
C	 0.3090983724	-2.6143085735	-0.0621216185	 0.330065
N	 0.3741669115	-3.959398594	-0.0283656516	-0.544976
N	 1.3649236108	-1.9065419467	-0.3316392744	-0.211083
O	 1.1546450225	-0.5113843225	-0.2873621497	-0.233268
H	 0.6978550682	 1.8522577951	 0.7691568297	 0.159152
H	 0.328460632	 1.8700719936	-0.9549216155	 0.158557
H	-1.0076394528	 1.870548701	 0.2339425578	 0.163983
H	-0.5096062089	-4.4379079117	 0.0483260108	 0.285059
H	 1.1968381081	-4.4418412743	-0.3462834052	 0.272849
50.8056	81.7279	183.7553	233.9631	304.1909	323.8997	340.3925	454.149	497.2513	545.7018	560.7246	588.5899	634.8245	705.7963	806.602	835.9126	906.8228	1005.944	1057.7343	1063.1159	1136.6114	1214.177	1336.001	1403.8367	1453.5622	1467.1421	1473.7396	1583.8986	1628.6998	1657.214	1784.7355	3054.8182	3116.0847	3174.8934	3594.1238	3733.3625
CC1=NC(=O)C(N)=NO1	Cc1nc(=O)c(N)no1	
InChI=1S/C4H5N3O2/c1-2-6-4(8)3(5)7-9-2/h1H3,(H2,5,7)	InChI=1S/C4H5N3O2/c1-2-6-4(8)3(5)7-9-2/h1H3,(H2,5,7)
