16
gdb 30246	4.65448	1.12489	0.94661	1.8911	73.04	-0.1956	0.0259	0.2214	1197.6699	0.126818	-434.059947	-434.052142	-434.051198	-434.09236	29.613	
N	 0.1656672179	 1.4138167117	 0.4511901557	-0.502793
C	 0.0891115468	 0.0642557076	-0.0651328197	-0.117393
C	-1.319386402	-0.6473297566	 0.0821729425	-0.17546
N	-1.3169595536	-0.7856167332	-1.3893687207	 0.020165
C	-1.6460465991	-1.4697976879	-2.5445952095	-0.271027
C	-0.5663742359	-1.193497795	-3.3699049515	 0.334434
O	-0.4448800203	-1.5652544752	-4.6627266852	-0.43117
N	 0.4186179185	-0.4555895068	-2.753799411	-0.450352
C	-0.0957434239	-0.2443322739	-1.5567018142	 0.319003
H	 1.1157846666	 1.7635475992	 0.3788366863	 0.240438
H	-0.4150312585	 2.0363461473	-0.1038138326	 0.233137
H	 0.8872882599	-0.525573434	 0.395294325	 0.108606
H	-1.2971920773	-1.6014621556	 0.6156515282	 0.132689
H	-2.1230282497	-0.0157239576	 0.4689622069	 0.127334
H	-2.5780587814	-1.9737305901	-2.7248534265	 0.131206
H	 0.413269862	-1.23524084	-4.9555105437	 0.301186
82.1364	139.2941	234.7174	266.731	296.9453	381.4162	396.0482	446.3145	539.5539	603.3166	656.2098	702.1207	735.121	777.3714	807.9546	887.5252	913.9935	974.9471	1007.3314	1071.5863	1129.5983	1135.8846	1154.9069	1207.804	1234.4636	1238.1787	1258.346	1337.7427	1407.9502	1443.3664	1446.6996	1500.5587	1551.3362	1615.5721	1664.6879	3057.9642	3072.0577	3117.4228	3297.8014	3494.279	3575.1998	3804.1568
NC1CN2C=C(O)N=C12	N[C@H]1Cn2cc(O)nc12	
InChI=1S/C5H7N3O/c6-3-1-8-2-4(9)7-5(3)8/h2-3,9H,1,6H2	InChI=1S/C5H7N3O/c6-3-1-8-2-4(9)7-5(3)8/h2-3,9H,1,6H2/t3-/m0/s1
