16
gdb 17980	3.95086	1.74753	1.49811	1.6549	69.71	-0.2437	0.0412	0.2849	870.3742	0.130399	-346.530544	-346.523456	-346.522511	-346.562089	27.087	
C	-0.362077209	-1.2247050563	-0.4869673586	-0.46767
C	-0.2135708077	-0.0551072462	-0.2467820047	 0.329871
C	-0.0138722533	 1.3457214713	 0.0611358408	-0.177529
C	-0.0578696621	 1.7985306544	 1.5701065705	-0.253698
C	 1.3522730912	 2.4131285674	 1.4171787521	 0.123318
O	 2.3991042156	 1.508502405	 1.8127428081	-0.289998
C	 2.5659082411	 1.0339662065	 0.452457379	-0.085686
C	 1.4331127988	 1.9364426279	-0.0593648532	-0.094802
H	-0.5038622678	-2.2545914407	-0.7032812066	 0.197709
H	-0.7064687534	 1.9502833389	-0.5323368072	 0.107212
H	-0.8573902837	 2.5126328922	 1.7804620927	 0.10666
H	-0.0912241906	 0.9863647178	 2.2973450261	 0.124448
H	 1.522713645	 3.433330119	 1.7702737561	 0.077706
H	 3.5590945926	 1.2904476021	 0.0639075348	 0.101853
H	 2.4064217061	-0.0461946679	 0.3600967843	 0.11838
H	 1.6349069572	 2.5721652485	-0.9198065043	 0.082227
66.2397	150.6555	202.9723	333.9298	382.499	495.4534	545.6233	617.0466	629.2585	651.423	745.574	775.1727	850.688	903.1992	921.5619	978.5814	993.6922	1009.6273	1036.4964	1067.642	1095.5713	1134.5114	1162.3164	1187.6632	1201.3031	1244.6721	1268.0377	1293.2028	1318.4877	1333.4137	1369.1808	1463.1592	1519.8439	2229.8105	3018.9923	3054.0969	3068.628	3070.4508	3079.4076	3124.3436	3140.5962	3503.5594
C#CC1CC2OCC12	C#C[C@H]1C[C@H]2OC[C@@H]12	
InChI=1S/C7H8O/c1-2-5-3-7-6(5)4-8-7/h1,5-7H,3-4H2	InChI=1S/C7H8O/c1-2-5-3-7-6(5)4-8-7/h1,5-7H,3-4H2/t5-,6-,7+/m0/s1
