19
gdb 107516	1.99729	1.65642	1.09472	5.494	79.91	-0.2431	0.0311	0.2742	1167.9904	0.159662	-382.048209	-382.039409	-382.038465	-382.081965	32.788	
C	-0.311027905	 1.5013833022	-0.1230315449	-0.378036
C	 0.1429659732	 0.0489019719	 0.0868207327	-0.317939
C	 0.8331700552	-0.5302444156	-1.1119790862	 0.357258
N	 0.10937034	-0.9198487097	-2.3422029883	-0.3585
C	 0.95953766	-1.9162950384	-1.6445496713	-0.119868
C	 2.3797669544	-1.6694819359	-2.1558036696	-0.233829
C	 2.279337743	-0.2063487363	-1.5719777512	-0.203768
C	 2.4716648603	 0.9185520143	-2.4749182321	 0.295171
N	 2.6343894616	 1.8214436369	-3.1785831054	-0.339964
H	 0.5373278901	 2.15310141	-0.3528839594	 0.138969
H	-1.0169054006	 1.5764618632	-0.9555174571	 0.131232
H	-0.7997663687	 1.888029239	 0.7757432452	 0.11728
H	 0.8167760577	-0.0079661165	 0.9514368218	 0.106652
H	-0.7215015081	-0.5825610374	 0.3310372203	 0.101434
H	-0.8580233523	-1.0987007404	-2.0721043907	 0.230805
H	 0.5396981924	-2.8421800335	-1.2713471346	 0.102946
H	 3.1504174806	-2.2525737411	-1.6497119095	 0.115605
H	 2.5016689941	-1.7397723087	-3.2376828906	 0.132336
H	 2.9440956922	-0.0904578438	-0.7116880592	 0.122215
78.3025	94.3449	138.7102	200.4184	216.3744	295.4429	336.7337	401.9819	466.2338	529.6085	557.7632	669.0095	705.361	780.6411	807.4867	894.9558	903.1653	938.1526	966.1451	969.7975	1022.2136	1041.4717	1059.043	1098.518	1102.916	1122.7803	1164.8756	1194.8708	1230.2787	1273.9603	1293.4276	1326.6877	1347.5956	1367.77	1414.3381	1442.4557	1476.7208	1480.1998	1498.4756	1506.0523	2354.6535	3016.0869	3043.615	3049.7695	3076.5133	3083.7774	3116.1344	3117.0959	3145.4303	3194.16	3470.7983
CCC12NC1CC2C#N	CC[C@]12N[C@H]1C[C@H]2C#N	
InChI=1S/C7H10N2/c1-2-7-5(4-8)3-6(7)9-7/h5-6,9H,2-3H2,1H3	InChI=1S/C7H10N2/c1-2-7-5(4-8)3-6(7)9-7/h5-6,9H,2-3H2,1H3/t5-,6-,7+/m0/s1
