18
gdb 73618	2.45875	1.66257	1.307	4.2407	72.96	-0.2486	0.008	0.2566	1033.8457	0.147575	-439.088097	-439.079843	-439.078899	-439.120761	30.798	
C	-0.1908917432	 1.6298082187	 0.091430407	-0.47982
C	 0.0487771254	 0.1427808236	 0.0785369703	 0.265102
C	-1.035189611	-0.7972008428	-0.4418894444	-0.13615
O	-0.6572853298	-2.0991576712	-0.0248799538	-0.249077
C	 0.0371714354	-1.9932186377	 1.2166018728	-0.107047
C	 0.7332270155	-0.6445273899	 1.1700802938	-0.097913
N	 1.412063168	-0.3422161255	-0.0689987631	-0.103298
C	 1.910641449	-1.2789080309	-0.9602869627	 0.158523
O	 2.5879523657	-2.2262284253	-0.6452078193	-0.3011
H	 0.6446953419	 2.1490194249	 0.5660454184	 0.138991
H	-0.2944267751	 2.0190715189	-0.9273679211	 0.130887
H	-1.1094071685	 1.8697145214	 0.6369417767	 0.127103
H	-2.0023516564	-0.4914384376	-0.0088688922	 0.100384
H	-1.1375849476	-0.8129824891	-1.5315095274	 0.119411
H	-0.6567091017	-2.0169285013	 2.0714636792	 0.101263
H	 0.7219641767	-2.8417455933	 1.2784618146	 0.146525
H	 1.1130361793	-0.1916670877	 2.0806440972	 0.106967
H	 1.6938762965	-1.0085646654	-2.012012756	 0.079251
118.653	158.8153	191.7298	212.8757	231.7883	278.2677	306.0241	399.6126	459.0531	585.58	609.2247	738.287	781.2108	875.8627	899.3953	942.8685	969.0223	993.1498	1008.4343	1032.2606	1039.7947	1099.4837	1119.1517	1140.3737	1214.7451	1225.0732	1252.0367	1260.5331	1300.3051	1352.7326	1378.1435	1415.524	1418.7018	1455.8235	1487.1787	1494.9064	1498.8024	1512.7195	1798.3019	2944.1994	2968.9036	2988.7527	3037.6417	3077.2647	3099.0923	3111.9041	3128.992	3164.6487
CC12COCC1N2C=O	C[C@]12COC[C@H]1N2C=O	
InChI=1S/C6H9NO2/c1-6-3-9-2-5(6)7(6)4-8/h4-5H,2-3H2,1H3	InChI=1S/C6H9NO2/c1-6-3-9-2-5(6)7(6)4-8/h4-5H,2-3H2,1H3/t5-,6+,7?/m1/s1
