25
gdb 117835	2.32151	1.01787	0.85915	2.0501	85.78	-0.2526	0.073	0.3256	1534.9069	0.225883	-426.626209	-426.614501	-426.613557	-426.663029	42.515	
C	-1.4387580585	 0.0338536016	 0.2935943531	-0.398102
C	 0.0629426835	 0.1963999973	 0.0325997625	-0.210507
C	 0.6446752364	-0.5729306904	-1.1769310729	 0.346052
O	 2.0665326321	-0.4201101149	-1.1701084017	-0.480652
C	 0.3745347974	-2.0855034865	-1.1359364754	-0.19114
C	 0.9174212361	-2.7920731372	 0.1103237974	-0.398633
C	 0.1232730037	-0.0024503581	-2.5048588232	-0.093837
O	 0.5740254694	 1.3375103223	-2.6024830741	-0.253646
C	 0.2809076844	 1.9400476553	-3.8409967605	-0.22824
H	-2.0438017369	 0.357625626	-0.5597720248	 0.114295
H	-1.7074045587	-1.003456437	 0.5169453934	 0.118326
H	-1.7422748062	 0.6411226527	 1.1522335326	 0.114349
H	 0.290041623	 1.2571542878	-0.1194065439	 0.102279
H	 0.6284579055	-0.116790798	 0.9156098174	 0.103343
H	 2.2338805784	 0.4837952412	-1.4643895281	 0.281211
H	-0.7033916644	-2.2624835892	-1.2305303206	 0.09197
H	 0.8439857109	-2.5224771249	-2.0249120596	 0.098515
H	 0.7945920324	-3.8756513031	 0.0195006436	 0.106647
H	 1.9812043774	-2.5773739828	 0.2378455928	 0.139448
H	 0.3968259701	-2.4782368406	 1.0203828887	 0.114246
H	 0.5297489449	-0.596508918	-3.3383679415	 0.089237
H	-0.9755023959	-0.0447826466	-2.5613448351	 0.088645
H	 0.6806794078	 2.9566942918	-3.8143787593	 0.128796
H	 0.7440926846	 1.3951508926	-4.6780779554	 0.109222
H	-0.8038883375	 1.9891367287	-4.0214274152	 0.108178
62.9501	86.936	106.8762	135.2259	144.9339	214.7263	225.3031	243.0748	252.1777	301.7587	334.548	353.843	387.9802	417.0407	443.2231	487.3019	596.8789	742.2978	775.0296	804.8363	910.022	932.9707	983.669	999.6076	1012.0982	1051.7505	1060.7506	1082.9177	1152.3473	1162.2933	1177.3662	1196.9807	1216.8887	1235.5179	1270.441	1292.4143	1318.3703	1349.9197	1366.6661	1403.5298	1405.3178	1412.8687	1440.2024	1474.2267	1479.9501	1484.93	1485.6086	1498.4538	1500.4369	1502.9348	1507.6337	1514.6126	1523.6765	2969.3854	2980.5862	3010.4835	3023.6203	3031.2274	3036.5337	3041.7567	3048.8178	3067.2487	3081.1978	3100.6623	3103.6035	3108.9975	3114.554	3127.4477	3780.9195
CCC(O)(CC)COC	CCC(O)(CC)COC	
InChI=1S/C7H16O2/c1-4-7(8,5-2)6-9-3/h8H,4-6H2,1-3H3	InChI=1S/C7H16O2/c1-4-7(8,5-2)6-9-3/h8H,4-6H2,1-3H3
