23
gdb 118971	2.46735	1.0675	0.97601	2.423	82.6	-0.2387	0.0799	0.3186	1404.1884	0.203074	-425.403472	-425.392886	-425.391942	-425.439266	38.254	
C	-0.3605073052	 1.2850091576	-0.1026354805	-0.224383
O	-0.1133175168	-0.0945241878	 0.0087155977	-0.232124
C	 0.5394074049	-0.6289531095	-1.1189413696	-0.089124
C	 0.691834712	-2.1388183344	-0.9436221173	 0.397565
C	 1.3087777154	-2.4962711234	 0.399268271	-0.44077
O	-0.5914938655	-2.8054277241	-1.124805948	-0.32106
C	-0.179730999	-3.3729924347	-2.3808502357	-0.082646
C	 1.270142218	-2.8857157851	-2.1891207686	-0.075681
C	 1.9488280381	-2.1346821464	-3.326655099	-0.422912
H	 0.5725225552	 1.8617214815	-0.2114494297	 0.100216
H	-1.0068577894	 1.5161537377	-0.9643144859	 0.104623
H	-0.8664793565	 1.602035491	 0.8125249734	 0.127806
H	-0.0417880938	-0.4184261364	-2.030756293	 0.085006
H	 1.5348268562	-0.166211066	-1.2458591294	 0.079855
H	 0.7034691625	-2.0923107724	 1.213049846	 0.145062
H	 1.3701700311	-3.5824845384	 0.5061186475	 0.111818
H	 2.3186948914	-2.0782857553	 0.4821115617	 0.107863
H	-0.3424246836	-4.4565152231	-2.4187156428	 0.099297
H	-0.6997505431	-2.9104227882	-3.2329141496	 0.090134
H	 1.9199761528	-3.7001625971	-1.8551561175	 0.079822
H	 1.3257555504	-1.3243645336	-3.717583953	 0.120357
H	 2.9056137669	-1.7047474818	-3.0119237954	 0.120575
H	 2.1565580677	-2.8167606202	-4.1584177025	 0.118701
61.7513	91.5928	107.8174	142.9322	203.0992	225.8868	241.6969	258.9849	278.7079	341.2568	363.7696	397.5073	478.877	509.7424	678.2443	763.9472	870.9296	901.0353	922.3025	940.4875	971.2881	999.6009	1022.2141	1048.8325	1123.4153	1143.8734	1154.0422	1165.2347	1178.1709	1187.3466	1208.1797	1236.7193	1245.8365	1280.8621	1308.5644	1344.1859	1392.2978	1398.6298	1411.3403	1421.8423	1476.5403	1481.562	1486.2903	1492.4402	1495.4904	1498.3359	1501.8533	1520.5912	1529.1019	2942.0445	2966.9871	2988.1777	2990.9043	3009.5883	3032.3711	3037.586	3042.9447	3061.3857	3093.7957	3106.7132	3108.666	3113.7775	3139.2076
COCC1(C)OCC1C	COC[C@@]1(C)OC[C@H]1C	
InChI=1S/C7H14O2/c1-6-4-9-7(6,2)5-8-3/h6H,4-5H2,1-3H3	InChI=1S/C7H14O2/c1-6-4-9-7(6,2)5-8-3/h6H,4-5H2,1-3H3/t6-,7-/m1/s1
