18
gdb 15583	3.4484	1.72194	1.2795	1.0737	73.35	-0.2472	0.0498	0.297	973.2442	0.153352	-347.780583	-347.772366	-347.771422	-347.813707	30.581	
C	 0.4426945812	 1.5073552413	-0.3966749428	-0.390966
C	 0.0297998866	 0.1091204772	 0.0435153407	 0.141311
O	 0.1251700906	-0.7783743297	-1.077583575	-0.272947
C	 0.9484557716	-1.896156928	-0.7731342023	-0.073723
C	 1.8748254126	-1.4306305002	 0.3470241188	-0.228753
C	 0.9151769744	-0.5351019188	 1.1633257758	-0.213115
C	 1.5669639313	 0.3949308993	 2.069446071	 0.320219
C	 2.1123464689	 1.1535536135	 2.826319869	-0.456362
H	 1.5002245775	 1.5370351287	-0.6758786573	 0.118026
H	-0.1497263165	 1.8009635545	-1.2675760271	 0.122171
H	 0.2766478848	 2.2331085851	 0.403768255	 0.122432
H	-1.0152510435	 0.1300863825	 0.3803850495	 0.079599
H	 0.3370877288	-2.752233305	-0.4436378229	 0.088871
H	 1.4770348706	-2.1900200635	-1.6851674709	 0.108505
H	 2.2917037641	-2.2476253391	 0.9396458101	 0.111098
H	 2.7012898022	-0.83441599	-0.0503695307	 0.119754
H	 0.2678856767	-1.1944832422	 1.7555973864	 0.109354
H	 2.5931920681	 1.8254747244	 3.4932654228	 0.194525
33.8139	150.2004	158.8021	228.3798	261.3384	338.7435	403.542	496.987	506.0791	596.4105	626.195	633.8887	693.9988	772.6847	863.7886	874.8912	941.8682	987.4453	1022.1868	1062.6677	1065.3303	1116.8316	1138.6884	1145.8486	1194.6806	1235.7773	1296.0327	1300.9233	1329.3322	1359.1741	1384.9594	1394.2357	1412.1036	1483.2545	1488.5056	1494.134	1527.3227	2235.7911	2968.6867	3003.758	3025.3737	3045.1492	3063.532	3078.6944	3119.0935	3122.0576	3126.7202	3503.9074
CC1OCCC1C#C	C[C@H]1OCC[C@H]1C#C	
InChI=1S/C7H10O/c1-3-7-4-5-8-6(7)2/h1,6-7H,4-5H2,2H3	InChI=1S/C7H10O/c1-3-7-4-5-8-6(7)2/h1,6-7H,4-5H2,2H3/t6-,7-/m1/s1
