18
gdb 47746	2.53157	1.77259	1.18053	3.8987	72.58	-0.2288	0.0119	0.2407	1050.4728	0.149744	-439.103207	-439.095488	-439.094544	-439.135513	30.047	
O	-0.0093259747	 0.095126958	 0.5531714684	-0.345557
C	 0.0146133839	 1.1961454513	 0.0656324105	 0.396373
O	-1.1475444054	 1.7397022107	-0.3759707814	-0.239112
C	-1.1980518934	 3.0270385078	-1.0146447446	-0.064208
C	-0.0542353141	 3.9359823197	-0.5883945642	-0.202525
N	 1.2335740497	 3.2715292309	-0.7644409567	-0.357566
C	 1.2614829851	 2.0317087323	-0.0232203097	 0.159806
C	 2.1171813008	 2.006697383	 1.2441173146	-0.26335
C	 2.5746007204	 1.2866033693	 0.0167416132	-0.306992
H	-1.1699208847	 2.8677631158	-2.1013397628	 0.109047
H	-2.1770539835	 3.4455587389	-0.7599727576	 0.122342
H	-0.0808096896	 4.8612177929	-1.1730590564	 0.113374
H	-0.1601204081	 4.2074386039	 0.468618585	 0.124986
H	 1.3816709764	 3.0814889357	-1.7526099648	 0.221103
H	 2.5946461388	 2.9471254005	 1.4914691501	 0.124991
H	 1.7495680599	 1.4140532504	 2.0724458799	 0.140175
H	 2.5122303801	 0.2057201164	 0.0089149156	 0.146167
H	 3.3809198986	 1.7261224124	-0.5595246092	 0.120945
82.0618	135.1645	266.3201	269.7989	284.4823	408.9735	434.6717	470.1282	539.0042	608.3679	685.1762	744.3367	791.436	809.3527	861.6118	904.6083	920.3717	956.0034	974.8892	1007.2865	1058.938	1081.6815	1097.56	1109.9431	1153.4705	1173.4765	1206.7208	1257.561	1276.0418	1316.5602	1339.3178	1380.677	1427.1477	1438.4683	1468.7248	1479.1448	1482.216	1509.6647	1821.6894	3013.5852	3039.3766	3078.7707	3091.2917	3145.7292	3149.6401	3240.5939	3254.3858	3483.4549
O=C1OCCNC11CC1	O=C1OCCNC21CC2	
InChI=1S/C6H9NO2/c8-5-6(1-2-6)7-3-4-9-5/h7H,1-4H2	InChI=1S/C6H9NO2/c8-5-6(1-2-6)7-3-4-9-5/h7H,1-4H2
