20
gdb 40371	3.82396	1.3252	1.19371	1.4417	81.68	-0.2173	0.074	0.2913	1109.7145	0.171788	-365.90956	-365.901935	-365.900991	-365.941616	31.118	
C	-0.0609413804	 1.4859656953	 0.0389418772	-0.268272
C	 1.2856589622	 0.814409107	 0.1218736583	-0.261552
C	 0.0284527918	-0.0182983466	 0.0217119085	-0.106675
C	-0.4343426149	-0.8047022285	 1.1974165856	 0.314126
C	-1.7750094385	-0.6750513229	 1.8101338972	-0.289522
N	-0.5986149627	-0.1691095401	 2.5540234075	-0.184085
C	 0.1964530366	-1.3267937966	 3.1309428617	 0.009154
C	-0.2852276835	-2.7255476737	 2.8682458646	-0.310083
C	 0.4174299886	-1.9610444547	 1.7793635405	-0.121287
H	-0.4346743431	 1.9435049927	 0.9480849089	 0.132967
H	-0.3352762112	 1.9924906205	-0.8794746822	 0.107269
H	 1.9440133903	 0.8565354161	-0.7386158937	 0.107388
H	 1.7895789045	 0.8390283401	 1.0817982511	 0.120928
H	-0.1486150234	-0.5066333577	-0.9341882973	 0.084643
H	-2.393032216	 0.1395783777	 1.4441404794	 0.121169
H	-2.3399338914	-1.5233748838	 2.1773136842	 0.116989
H	 0.892362382	-1.0837919423	 3.9236442732	 0.101541
H	 0.341773784	-3.4752335322	 3.3429525574	 0.117219
H	-1.328016675	-3.0174702862	 2.8165724597	 0.114193
H	 1.3364969902	-2.292265084	 1.3150250282	 0.093888
83.9228	147.9908	180.1704	280.9213	404.0333	463.5993	480.7967	549.1634	590.0769	702.909	740.5332	780.5813	800.0321	821.5105	828.8196	891.9035	903.7979	925.3808	947.0075	958.7046	977.2555	1022.3518	1059.4251	1061.5986	1066.0261	1087.2249	1089.6986	1099.2284	1115.0819	1132.2993	1138.1186	1172.8205	1202.0329	1210.6177	1228.2924	1282.4936	1319.0455	1354.1301	1425.4462	1459.2559	1477.1487	1500.4944	1524.1727	3123.3611	3126.0928	3134.983	3136.3357	3139.4719	3188.5017	3197.608	3206.7263	3217.0744	3217.6597	3232.0961
C1CC1C12CN1C1CC21	C1CC1[C@]12CN1[C@H]1C[C@@H]21	
InChI=1S/C8H11N/c1-2-5(1)8-4-9(8)7-3-6(7)8/h5-7H,1-4H2	InChI=1S/C8H11N/c1-2-5(1)8-4-9(8)7-3-6(7)8/h5-7H,1-4H2/t6-,7+,8+,9?/m1/s1
