16
gdb 31297	2.34225	1.51593	0.92957	1.7309	85.37	-0.1779	0.0023	0.1802	1216.1538	0.124797	-396.93587	-396.926959	-396.926015	-396.96964	32.476	
C	-0.0768579418	 1.4641530118	-0.0818458487	-0.322337
N	 0.2262296741	 0.0518422046	 0.0793254031	-0.400361
C	 0.6949658692	-0.6710995563	-0.9914109319	 0.260149
C	 0.6854023466	-2.0581130861	-1.1419853578	 0.10234
N	 1.3335932859	-2.2674032762	-2.3631338332	-0.328753
C	 1.6698765065	-1.0586225458	-2.8569423644	 0.011047
N	 1.3001618212	-0.0715292177	-2.0613582696	-0.31456
C	 0.1759014342	-3.0750337028	-0.3290044111	 0.228503
C	-0.2816159637	-3.9341978501	 0.3871938258	-0.452412
H	 0.795758789	 1.9750375189	-0.4923246888	 0.155551
H	-0.9257146401	 1.6560512746	-0.7554176058	 0.112201
H	-0.3031540178	 1.8893621673	 0.8990747375	 0.117528
H	-0.412498887	-0.4640409157	 0.665814325	 0.242501
H	 1.5012118816	-3.16612375	-2.7824289982	 0.270534
H	 2.1814051457	-0.9399098314	-3.8003466955	 0.133967
H	-0.6683555035	-4.6904746451	 1.0234281635	 0.184102
80.2879	117.6209	134.0949	162.2887	231.0771	311.7884	375.4816	399.4668	462.5887	494.1006	506.1939	580.3664	618.0355	656.923	693.6144	752.7512	771.6614	810.2598	951.835	1061.8803	1108.8821	1139.3442	1153.38	1196.9632	1251.6318	1322.8436	1391.2353	1443.1248	1468.3943	1485.4994	1494.4639	1514.6512	1538.4477	1631.5331	2206.6006	2990.0791	3090.9918	3139.9553	3252.8716	3503.3399	3610.0214	3673.0368
CNC1=C(NC=N1)C#C	CNc1c([nH]cn1)C#C	
InChI=1S/C6H7N3/c1-3-5-6(7-2)9-4-8-5/h1,4,7H,2H3,(H,8,9)	InChI=1S/C6H7N3/c1-3-5-6(7-2)9-4-8-5/h1,4,7H,2H3,(H,8,9)
