12
gdb 132074	2.40107	1.86328	1.04913	5.0363	62.7	-0.224	-0.0457	0.1783	998.6537	0.078126	-518.082453	-518.075536	-518.074592	-518.113996	26.021	
F	 0.0317822209	 0.052971832	 0.0030378609	-0.041395
C	-0.0149242409	 1.3738819702	 0.0105323953	 0.211749
C	-1.2123646494	 2.01013506	 0.0305899893	 0.072772
F	-2.3548812259	 1.3418174439	 0.0431224821	-0.034721
C	-1.2837672791	 3.4599106041	 0.0391394782	 0.291275
N	-2.384056651	 4.1058620065	 0.0579315051	-0.542939
N	 0.0185341898	 4.0184727242	 0.0237677547	-0.363158
C	 1.1612623016	 3.2855288075	 0.0039781907	 0.104766
N	 1.1947229441	 1.9948931693	-0.0031715369	-0.318014
H	-2.2402295146	 5.1155118451	 0.0611718865	 0.206574
H	 0.0838445783	 5.0266994012	 0.0280687281	 0.265127
H	 2.0879411263	 3.8518936961	-0.0060500739	 0.147964
125.7329	188.0453	286.8014	303.0448	340.6429	510.7479	526.0322	527.0743	569.9423	608.4234	683.5494	711.7234	742.6565	786.313	885.9169	937.9131	1022.6138	1119.8612	1181.3647	1270.4525	1310.0093	1396.8671	1444.6817	1475.8378	1639.4497	1691.2142	1739.1021	3181.8874	3479.9505	3605.3078
FC1=C(F)C(=N)NC=N1	F[C@H]1C(=C([NH])NC=N1)F	
InChI=1S/C4H3F2N3/c5-2-3(6)8-1-9-4(2)7/h1H,(H2,7,8,9)	InChI=1S/C4H4F2N3/c5-2-3(6)8-1-9-4(2)7/h1,3,7H,(H,8,9)/t3-/m1/s1
