17
gdb 18504	5.99518	1.14343	1.08451	3.0271	69.1	-0.223	-0.024	0.199	1098.0507	0.141189	-363.814301	-363.806686	-363.805742	-363.847092	27.804	
O	-0.4861863792	 0.4838346174	 0.6751149852	-0.237641
C	 0.0309453592	 1.0568115417	-0.2476236137	 0.159059
C	 1.3681356675	 1.7778198411	-0.1768718275	-0.241008
N	 1.3699939881	 2.9430570846	-1.037537327	-0.093274
C	 0.7679431675	 4.2218972874	-0.5490457338	-0.187537
C	 2.0594128813	 4.959950486	-0.9078022881	-0.067726
C	 3.2118003281	 4.3540551021	-0.1461744371	-0.292048
C	 2.6339096945	 3.6181898042	-1.3278331866	 0.000198
H	-0.4365415353	 1.0966148375	-1.2575536326	 0.082896
H	 1.6107957986	 1.9661687065	 0.8816503482	 0.10705
H	 2.1202268833	 1.0737507139	-0.5635114069	 0.129743
H	-0.1068921142	 4.5095644765	-1.1401022056	 0.11367
H	 0.4979343321	 4.2279745508	 0.5159262837	 0.104116
H	 2.1202325159	 5.9128534555	-1.4147816141	 0.098185
H	 4.1769465865	 4.8177879946	-0.3249272969	 0.116504
H	 3.0709429888	 3.9888465611	 0.8678716979	 0.111512
H	 3.2188536473	 3.3405702693	-2.1984098849	 0.0963
56.56	80.2604	141.399	254.6972	345.4473	382.7637	459.0385	519.8888	680.3274	769.1914	785.6317	803.0437	867.7305	926.7112	958.9608	968.431	1004.8543	1050.7828	1062.6083	1068.9869	1075.1477	1106.0198	1146.0787	1156.4574	1185.2644	1243.6314	1253.6347	1276.8604	1309.9101	1334.3	1367.2985	1403.8172	1452.6235	1476.85	1507.1564	1838.5732	2883.0857	2971.2095	3008.8326	3028.3094	3073.1105	3113.0776	3162.3631	3200.7568	3213.3409
O=CCN1CC2CC12	O=CCN1C[C@H]2C[C@@H]12	
InChI=1S/C6H9NO/c8-2-1-7-4-5-3-6(5)7/h2,5-6H,1,3-4H2	InChI=1S/C6H9NO/c8-2-1-7-4-5-3-6(5)7/h2,5-6H,1,3-4H2/t5-,6-/m1/s1
