18
gdb 69204	2.61686	1.69244	1.21695	4.429	78.15	-0.2414	-0.0402	0.2012	1051.9244	0.148327	-401.966292	-401.958338	-401.957394	-401.998835	30.774	
C	-0.125963667	 1.4401328792	 0.1682040418	-0.456484
C	-0.0258579017	-0.0499306683	-0.0899026481	 0.31182
C	 0.8965804175	-0.5368420435	-1.1713339107	-0.288603
N	 1.2745667359	-0.6317915361	 0.2334310032	-0.131825
C	 1.3848741934	-1.8656794565	 0.8939568957	 0.359001
O	 2.3437270585	-2.5925563176	 0.7525957693	-0.340419
C	 0.2380043441	-2.2052656067	 1.7725852805	-0.145874
C	-0.9910462215	-1.7776259888	 1.4729751705	-0.051892
C	-1.2661052589	-0.8591240859	 0.3069664526	-0.360113
H	 0.819147732	 1.9367443032	-0.0643371533	 0.131536
H	-0.917188496	 1.8873335525	-0.4436319312	 0.119795
H	-0.3610247036	 1.6336654906	 1.2206229525	 0.126323
H	 0.6525039467	-1.4654391541	-1.6824462666	 0.126661
H	 1.4578118214	 0.1778026529	-1.7678287742	 0.123215
H	 0.4317597312	-2.9179076495	 2.5661183527	 0.116506
H	-1.8487635529	-2.1257225735	 2.0438156869	 0.109179
H	-2.0766632249	-0.1705024827	 0.5682436031	 0.121411
H	-1.6487639542	-1.4529489153	-0.5338182445	 0.129762
62.7259	145.0654	232.9498	298.0779	324.4804	356.0299	379.8774	452.479	493.1317	550.9503	646.9256	682.0389	715.8548	822.6523	882.8899	897.5453	929.5613	937.6394	963.1723	977.2105	1012.8393	1058.0135	1112.4514	1122.9291	1135.3129	1166.204	1196.2216	1256.149	1292.2076	1354.4453	1385.3518	1405.5791	1419.6025	1476.4269	1486.7883	1495.5628	1516.4103	1686.7898	1788.0546	3019.943	3031.9973	3065.1225	3095.8177	3101.9515	3124.1232	3155.93	3189.4256	3205.0285
CC12CN1C(=O)C=CC2	C[C@@]12CN1C(=O)C=CC2	
InChI=1S/C7H9NO/c1-7-4-2-3-6(9)8(7)5-7/h2-3H,4-5H2,1H3	InChI=1S/C7H9NO/c1-7-4-2-3-6(9)8(7)5-7/h2-3H,4-5H2,1H3/t7-,8?/m1/s1
