21
gdb 91940	2.09046	1.73431	1.30697	1.919	76.83	-0.254	0.0657	0.3196	1089.4284	0.181403	-424.221756	-424.212687	-424.211743	-424.255093	35.551	
C	-0.927253466	 1.0982594686	-0.0370094843	-0.420837
C	 0.0864376561	-0.0419682575	-0.1140020436	 0.001658
C	 1.2141413004	 0.1835482814	-1.1583070431	-0.263833
C	 2.4067733553	-0.5860461745	-0.6180658803	 0.030211
O	 3.0598068871	 0.1009731119	 0.4605551949	-0.255979
C	 2.1581317098	-0.9611883145	 0.7790872428	 0.021414
C	 0.7794900488	-0.4710633775	 1.2321769074	 0.328378
C	 0.902130327	 0.6315698899	 2.285753776	-0.438163
O	 0.131882355	-1.6165468449	 1.7923268465	-0.478496
H	-0.4538066517	 2.0434456175	 0.2478966246	 0.122598
H	-1.4075749815	 1.2501973656	-1.0093818248	 0.116352
H	-1.7227358563	 0.8891944588	 0.6874274461	 0.104711
H	-0.4428392694	-0.9530691972	-0.4173502667	 0.085735
H	 0.9128036463	-0.1739283037	-2.1477835692	 0.102034
H	 1.476027373	 1.243171047	-1.2596254067	 0.110135
H	 3.0682129215	-1.1447646971	-1.2754278477	 0.095899
H	 2.5865165929	-1.8284449861	 1.2752503887	 0.099397
H	 1.4651770261	 1.4835982518	 1.899166059	 0.136789
H	-0.0850766836	 0.9844047864	 2.6040741874	 0.102605
H	 1.4244582348	 0.2438333247	 3.1651881286	 0.121765
H	-0.7015959056	-1.3262550907	 2.1765169146	 0.277628
56.0978	212.6859	235.998	241.8958	260.7477	275.1732	281.9695	359.0539	390.5021	428.1917	476.6207	509.2529	578.3931	678.95	714.6875	821.1891	861.9666	878.922	929.4028	936.2381	955.7976	989.2346	1019.4076	1032.083	1094.9822	1110.193	1122.9708	1144.493	1160.0664	1200.3584	1228.1127	1249.5343	1297.6208	1313.9976	1341.0032	1366.8007	1388.1812	1402.6851	1411.9885	1434.6485	1483.094	1486.1459	1492.4409	1504.2263	1505.5896	3026.7685	3030.2855	3037.7842	3040.3382	3085.5593	3089.4968	3102.1529	3104.5124	3133.6961	3141.4316	3154.7607	3816.2758
CC1CC2OC2C1(C)O	C[C@H]1C[C@H]2O[C@H]2[C@]1(C)O	
InChI=1S/C7H12O2/c1-4-3-5-6(9-5)7(4,2)8/h4-6,8H,3H2,1-2H3	InChI=1S/C7H12O2/c1-4-3-5-6(9-5)7(4,2)8/h4-6,8H,3H2,1-2H3/t4-,5+,6+,7+/m0/s1
