18
gdb 41727	3.34137	1.75293	1.74536	1.0452	69.27	-0.2209	0.0804	0.3013	866.7954	0.152504	-439.070732	-439.064674	-439.06373	-439.100835	25.91	
C	-0.009331431	 1.5941554747	-0.0168513381	-0.053982
O	 1.3988863394	 1.9296069345	-0.0043890413	-0.288549
C	 2.1010604133	 0.7168593097	-0.1793423799	 0.106934
C	 2.0857165187	-0.2174608596	 1.0643311161	-0.057942
C	 2.4945221873	-1.5331320103	 0.4053390364	-0.091973
O	 1.701231177	-1.5473367257	-0.8022084218	-0.287321
C	 1.1720112244	-0.2394226762	-0.9528097231	 0.100226
C	 0.0105579227	 0.0693057488	 0.0324160774	-0.084254
N	 0.6231841035	-0.268467816	 1.3506531591	-0.302437
H	-0.4900120331	 2.0244055079	 0.8652915684	 0.11584
H	-0.4774377537	 1.9948718368	-0.9269567414	 0.092025
H	 3.0895628065	 0.9169654508	-0.5920323327	 0.087607
H	 2.678693471	 0.0924601634	 1.9256612569	 0.080804
H	 3.5655697598	-1.5819815338	 0.1560632241	 0.096301
H	 2.2416005676	-2.4102965863	 1.0125084847	 0.102943
H	 0.9892263603	-0.0328273136	-2.0072069813	 0.086742
H	-0.9460299184	-0.4251659894	-0.1323759423	 0.076476
H	 0.3631775247	-1.2112480356	 1.622488839	 0.220558
232.1262	284.6958	360.6068	383.8902	451.4427	558.9517	636.5231	724.8253	763.2803	794.6745	853.4649	877.3994	898.6327	913.6637	933.2409	960.4958	968.8964	987.8736	1006.3981	1042.6017	1061.8092	1091.3196	1106.7338	1113.9893	1180.9555	1183.4961	1201.9588	1234.7241	1243.4367	1252.953	1275.5349	1313.6829	1321.709	1351.4043	1372.5761	1398.4284	1429.2208	1508.7721	1523.0835	2986.8029	3005.3918	3050.7801	3094.6852	3108.599	3119.6269	3126.6986	3134.0795	3515.507
C1OC2C3COC2C1N3	C1O[C@H]2[C@@H]3CO[C@H]2[C@H]1N3	
InChI=1S/C6H9NO2/c1-3-5-6(8-1)4(7-3)2-9-5/h3-7H,1-2H2	InChI=1S/C6H9NO2/c1-3-5-6(8-1)4(7-3)2-9-5/h3-7H,1-2H2/t3-,4-,5-,6-/m0/s1
