22
gdb 6087	4.36088	0.87271	0.76693	2.5631	79.26	-0.2414	-0.0069	0.2346	1551.9028	0.196729	-350.242898	-350.232322	-350.231378	-350.279945	36.926	
C	-0.0616239708	 1.5540331556	 0.1468962879	-0.381072
C	-0.0335509266	 0.0258830221	-0.0016135991	 0.033812
C	-1.4597387311	-0.5413196357	 0.0137702947	-0.388072
C	 0.7065480468	-0.4321271612	-1.2706068583	-0.156145
C	 2.1949026006	-0.0847139192	-1.304427037	-0.313777
C	 2.9392583871	-0.6845179569	-2.4925884877	 0.379283
C	 4.3955699304	-0.2759861211	-2.6442947753	-0.472538
O	 2.4066620043	-1.4406396591	-3.2723623016	-0.290705
H	 0.9426779865	 1.9831337856	 0.2174255829	 0.108355
H	-0.5638288399	 2.01846319	-0.7105967894	 0.111919
H	-0.6073028673	 1.8497306761	 1.0490960557	 0.110865
H	 0.5013637163	-0.3877561006	 0.8666458273	 0.067074
H	-2.0397578422	-0.1621202535	-0.8361723282	 0.113056
H	-1.455004808	-1.6343997951	-0.0498868474	 0.111642
H	-1.9903308137	-0.2589699373	 0.9291384929	 0.107343
H	 0.6067501259	-1.5173901244	-1.3792677336	 0.109789
H	 0.2163397215	-0.0036962123	-2.1544494197	 0.100931
H	 2.3643470658	 0.9999358219	-1.314641811	 0.116714
H	 2.698381083	-0.4394889433	-0.3920335318	 0.117393
H	 4.9474817515	-0.440650029	-1.7125309696	 0.133448
H	 4.8571812031	-0.8406272743	-3.4552080817	 0.14153
H	 4.4610022669	 0.7956742018	-2.8660573402	 0.139153
20.0615	65.7709	97.5345	117.3136	128.9761	220.6931	246.0017	255.6254	304.6516	399.1301	411.4932	464.9755	481.8588	590.1704	739.4569	801.7682	850.4201	897.0083	924.5436	932.035	966.7431	974.4002	1014.8635	1064.3953	1141.0329	1150.6365	1178.5107	1193.4112	1229.1452	1295.7188	1316.825	1357.7543	1369.5575	1381.0769	1394.9665	1401.1855	1422.5042	1450.5643	1465.344	1477.457	1482.9511	1488.4806	1496.4214	1505.0964	1510.2529	1811.6931	2988.863	3004.1049	3023.3564	3026.6821	3033.0695	3035.9771	3043.3451	3077.516	3087.8792	3094.4267	3096.5305	3099.0668	3101.3599	3151.2272
CC(C)CCC(C)=O	CC(C)CCC(=O)C	
InChI=1S/C7H14O/c1-6(2)4-5-7(3)8/h6H,4-5H2,1-3H3	InChI=1S/C7H14O/c1-6(2)4-5-7(3)8/h6H,4-5H2,1-3H3
