21
gdb 17347	4.08397	1.26754	1.07622	1.3649	80.06	-0.2155	0.0858	0.3013	1179.7092	0.188037	-329.08102	-329.07211	-329.071165	-329.114943	33.112	
C	-1.6515281315	-0.1401619267	 2.2888506169	-0.40414
C	-0.8723845314	-1.4317300234	 2.1595185892	-0.006176
C	 0.0322408175	-1.6857939832	 0.9809941309	-0.304799
C	 0.6286209001	-1.5233165911	 2.364916479	-0.007912
C	 1.4567799112	-0.3225432529	 2.7005386555	 0.012597
C	 2.2384775125	-0.2564578568	 3.970918372	-0.263399
N	 2.924916945	-0.3351301302	 2.6866463426	-0.088643
C	 3.6356253991	-1.5653925612	 2.3731856812	-0.307151
H	-1.1205140956	 0.7075881661	 1.8471266258	 0.119704
H	-2.6150400854	-0.2221106819	 1.7738261739	 0.116388
H	-1.8544757814	 0.1039096504	 3.337568205	 0.118259
H	-1.4183680449	-2.3006165293	 2.5189908997	 0.083301
H	 0.0437036439	-2.6671267221	 0.5191716645	 0.108338
H	 0.1771625367	-0.8658693593	 0.283428454	 0.111691
H	 0.9581208777	-2.4415520329	 2.8406271254	 0.08053
H	 1.0596756374	 0.6132286994	 2.3119071328	 0.082739
H	 2.3468736106	 0.6749575294	 4.5216913993	 0.109439
H	 2.2277607632	-1.1506516605	 4.5953627946	 0.099671
H	 3.210024366	-2.4744828404	 2.8263060695	 0.096347
H	 3.660236334	-1.7049804732	 1.2877389672	 0.123051
H	 4.6678123654	-1.4702671703	 2.7260239309	 0.120165
33.7037	121.5866	172.6393	203.0897	222.7961	243.2856	334.6829	382.9932	431.3235	435.9571	555.6663	730.9754	765.1357	819.1926	864.219	878.7054	915.6411	929.2426	1009.5851	1021.6658	1035.6883	1068.202	1097.867	1108.1665	1127.8558	1131.2987	1150.7602	1160.8833	1197.9994	1202.1932	1210.0714	1253.7019	1318.4356	1340.5966	1399.1083	1422.2583	1448.0845	1454.8469	1488.1873	1491.4733	1494.8207	1501.207	1505.2092	1514.6184	2976.4344	3030.8512	3064.1882	3077.312	3088.5086	3100.079	3102.15	3119.021	3124.4581	3133.035	3153.84	3164.4864	3208.8966
CC1CC1C1CN1C	C[C@H]1C[C@H]1[C@H]1CN1C	
InChI=1S/C7H13N/c1-5-3-6(5)7-4-8(7)2/h5-7H,3-4H2,1-2H3	InChI=1S/C7H13N/c1-5-3-6(5)7-4-8(7)2/h5-7H,3-4H2,1-2H3/t5-,6+,7+,8?/m0/s1
