17
gdb 12221	3.92122	1.42663	1.13612	4.0659	66.95	-0.2402	0.0239	0.2641	1038.7296	0.141063	-401.006857	-400.998223	-400.997278	-401.04072	30.258	
C	-0.3207135458	 1.462892939	 0.0313455006	-0.386678
C	 0.0045531467	-0.0230350731	-0.0242513384	 0.017549
C	 0.8082863092	-0.5274535437	-1.2676823535	 0.085522
O	 1.0634824794	 0.5021258131	-2.188039647	-0.420965
C	 1.970678234	-0.9159408071	-0.3025109272	-0.19812
N	 1.1404492968	-0.457447068	 0.8098678272	-0.047575
C	 1.2469135464	-0.758765793	 2.1227885823	 0.125126
O	 2.1973969907	-1.3244403579	 2.6252216915	-0.33231
H	 0.5650266837	 2.0662444406	-0.1756772084	 0.136849
H	-1.0850453385	 1.7097807381	-0.7113497802	 0.128178
H	-0.7059241689	 1.7289312726	 1.0204790349	 0.119197
H	-0.8997080661	-0.6154618304	 0.1614780514	 0.089846
H	 0.3433325229	-1.3937117033	-1.7527143854	 0.081852
H	 1.5794113842	 0.1412360641	-2.9155600364	 0.292618
H	 2.2301900358	-1.9778569347	-0.2469187663	 0.122532
H	 2.8811702582	-0.3248441192	-0.4486041836	 0.120143
H	 0.3610716211	-0.4213061072	 2.7000879981	 0.066235
44.8412	80.1081	172.3574	206.6382	239.3397	250.1925	313.8137	354.4347	419.384	499.5587	601.3722	734.7693	805.6497	861.6409	899.7363	1000.724	1031.3364	1037.5168	1052.5926	1115.7154	1153.919	1174.967	1196.0007	1218.9777	1280.1528	1309.5242	1311.7355	1371.8714	1393.5016	1406.2118	1428.619	1450.3973	1486.0649	1490.6231	1504.2297	1788.5047	2917.046	3020.4006	3034.677	3039.9891	3047.3894	3090.6109	3114.9234	3140.786	3826.4956
CC1C(O)CN1C=O	C[C@H]1[C@@H](O)CN1C=O	
InChI=1S/C5H9NO2/c1-4-5(8)2-6(4)3-7/h3-5,8H,2H2,1H3	InChI=1S/C5H9NO2/c1-4-5(8)2-6(4)3-7/h3-5,8H,2H2,1H3/t4-,5-/m0/s1
