23
gdb 41734	3.41332	1.3709	1.18914	0.1281	88.52	-0.2464	0.0902	0.3365	1153.7527	0.210514	-351.183759	-351.176298	-351.175354	-351.215157	31.45	
C	 0.3404333414	 1.4498514034	-0.4325456676	-0.220793
C	 1.4703185746	 1.9574870305	 0.4969965012	-0.229604
C	 2.0716475136	 0.7017166304	 1.1170250287	-0.078571
C	 2.4311705579	-0.4282640515	 0.1832596735	-0.078571
C	 3.2563824264	-1.5742422845	 0.756629731	-0.229603
C	 2.5402330357	-1.9718829266	 2.0709327013	-0.220794
C	 1.0538162522	-1.612518524	 1.846837383	-0.304316
C	 1.0867703879	-0.4344113995	 0.8928783398	 0.389965
C	-0.1412806212	 0.1252994625	 0.2017357506	-0.304317
H	-0.4646637738	 2.1802911735	-0.5484419246	 0.093232
H	 0.7363718626	 1.2580434959	-1.4349900254	 0.10355
H	 2.2022655633	 2.5705061925	-0.0411193619	 0.093113
H	 1.0539714476	 2.5842206707	 1.2951423726	 0.095572
H	 2.6195249363	 0.808322846	 2.0489883201	 0.069606
H	 2.5155966035	-0.224797359	-0.8804898597	 0.069606
H	 3.2438040957	-2.4113203956	 0.0478841731	 0.095572
H	 4.3075960852	-1.3128075869	 0.9230874329	 0.093113
H	 2.6868375681	-3.0252451136	 2.3240938135	 0.093232
H	 2.9399792943	-1.3898497603	 2.9075295084	 0.103551
H	 0.5217420112	-2.4484949552	 1.3729996907	 0.093101
H	 0.5319317936	-1.394648531	 2.7862527338	 0.090127
H	-0.9228027424	 0.3170777931	 0.9493481548	 0.093101
H	-0.5708929938	-0.559185171	-0.5393764296	 0.090127
193.6771	203.4638	228.974	266.8983	308.3359	368.0771	452.5027	602.676	626.307	646.2345	689.9193	820.4494	843.0188	862.9921	876.7849	892.803	900.8795	910.6853	942.9824	956.9305	1001.7915	1017.738	1022.927	1057.8466	1086.6146	1096.0977	1102.1894	1157.5036	1163.0826	1199.348	1200.6251	1237.0689	1253.3882	1267.0927	1279.1331	1283.8147	1323.5818	1329.471	1332.1586	1339.6859	1350.4778	1377.303	1436.8594	1490.1718	1492.663	1493.0847	1494.9576	1511.1844	1513.4909	3011.7286	3015.5768	3026.5862	3027.3862	3043.8699	3044.623	3056.6762	3057.5545	3065.5642	3065.8662	3096.674	3096.82	3143.4231	3146.56
C1CC2C3CCCC23C1	C1C[C@@H]2[C@H]3CCC[C@@]23C1	
InChI=1S/C9H14/c1-3-7-8-4-2-6-9(7,8)5-1/h7-8H,1-6H2	InChI=1S/C9H14/c1-3-7-8-4-2-6-9(7,8)5-1/h7-8H,1-6H2/t7-,8-,9+/m1/s1
