14
gdb 123642	2.68257	1.61993	1.08697	4.7219	75.49	-0.2313	-0.0638	0.1676	1041.8123	0.101734	-432.84428	-432.837016	-432.836072	-432.876415	27.152	
C	-0.0620078408	 1.696651101	 0.0083287495	-0.318509
C	 1.4416009854	 1.8852017413	-0.0367624277	-0.039561
N	 2.1526919185	 1.3843326436	 1.1565367694	-0.326687
C	 2.1180328549	 0.5572796075	-0.0755934511	-0.189941
C	 1.0322378885	-0.4520602253	-0.0658063343	 0.270663
C	-0.3019022023	 0.1682511323	 0.0299955144	 0.319374
O	-1.3722079009	-0.3834499801	 0.116152151	-0.340918
N	 1.2828759016	-2.868564771	 0.0137031597	-0.223357
N	 1.1962108089	-1.7392007656	-0.0217469693	 0.119619
H	-0.5227798545	 2.1420569731	 0.8941185431	 0.147822
H	-0.5550870481	 2.1166580158	-0.8747635936	 0.133801
H	 1.8578257548	 2.72502225	-0.5822703985	 0.1015
H	 3.0590537345	 1.8434433623	 1.2276096707	 0.236078
H	 3.0307584294	 0.3813960351	-0.6334378435	 0.110114
98.6458	134.3397	144.4503	343.9469	407.8564	453.9649	507.1422	527.3357	594.4546	612.3982	673.0234	740.4424	802.7306	849.8759	879.0984	966.5173	982.4851	1022.1082	1069.5942	1116.6647	1158.4078	1186.369	1220.3547	1250.0828	1287.9434	1327.4099	1395.9592	1436.9882	1446.7308	1802.1429	2214.6929	3059.0101	3109.1221	3168.1297	3179.3746	3486.0583
C1C2NC2C2=C1ON=N2	C1[C@H]2N[C@H]2[C](C1=O)[N][N]	
InChI=1S/C5H5N3O/c1-2-4(6-2)5-3(1)9-8-7-5/h2,4,6H,1H2	InChI=1S/C5H5N3O/c6-8-5-3(9)1-2-4(5)7-2/h2,4,7H,1H2/t2-,4-/m1/s1
