17
gdb 60991	2.39135	1.24568	0.94424	4.117	73.99	-0.259	-0.0353	0.2236	1247.6323	0.133383	-417.993848	-417.98444	-417.983495	-418.029078	32.889	
C	-0.4618847851	 1.3234356789	 0.0636181758	-0.397756
C	 0.0149682031	-0.1048665404	-0.1846758558	-0.058466
C	 0.8868709044	-0.2013544682	-1.4375242702	 0.173396
O	 0.763668146	 0.5150524393	-2.3943658931	-0.238229
N	 0.8009039576	-0.5885075941	 0.9556260488	-0.086778
C	 0.0797765627	-1.070005157	 2.1167563369	-0.235929
C	 0.8345639851	-2.0318758535	 1.248099696	-0.153447
C	 0.0919069106	-2.9723560829	 0.4440854715	 0.285779
N	-0.4797023427	-3.7263920471	-0.2216503286	-0.328997
H	 0.3830331706	 1.9659017722	 0.3257302987	 0.137015
H	-0.924152382	 1.7130957831	-0.8449681913	 0.149777
H	-1.1913188082	 1.3560322496	 0.8771998112	 0.117911
H	-0.8607365207	-0.7524704146	-0.3784418525	 0.11705
H	 1.6509692363	-1.0088887985	-1.4088471063	 0.090964
H	 0.4906410331	-0.8017219059	 3.0853631176	 0.140575
H	-1.0063645403	-1.1198592887	 2.0668036811	 0.140029
H	 1.8018514194	-2.4019619022	 1.5747740701	 0.147108
44.6825	71.0681	112.5814	174.7859	208.2125	235.3066	271.2437	301.846	398.5551	428.3254	551.2117	577.9149	652.1015	754.2765	804.1047	857.7922	914.466	928.071	998.0979	1026.1021	1065.2458	1118.1721	1124.6951	1137.179	1157.2567	1166.1202	1313.3374	1329.3699	1338.1754	1368.1778	1400.0954	1424.7737	1487.3044	1497.7304	1503.4711	1840.5696	2349.8955	2895.3685	2934.7228	3053.722	3104.2098	3125.8196	3146.6523	3156.6892	3198.7337
CC(C=O)N1CC1C#N	C[C@@H](C=O)N1C[C@H]1C#N	
InChI=1S/C6H8N2O/c1-5(4-9)8-3-6(8)2-7/h4-6H,3H2,1H3	InChI=1S/C6H8N2O/c1-5(4-9)8-3-6(8)2-7/h4-6H,3H2,1H3/t5-,6+,8?/m0/s1
