14
gdb 25081	3.46298	1.7042	1.15023	5.0489	70.35	-0.2063	-0.0133	0.193	976.8723	0.103299	-436.742331	-436.735825	-436.734881	-436.773304	25.402	
O	 0.0016945681	-0.0434807088	 0.0027817059	-0.406227
C	 0.0163170917	 1.1568263381	 0.0086933967	 0.489851
O	-1.1092757621	 1.9696030336	 0.0295602305	-0.230745
C	-0.7159627663	 3.3014066771	 0.0304484844	-0.18061
C	 0.6194575006	 3.3681801445	 0.0111300124	 0.312249
C	 1.8261708886	 4.2694750829	-0.0023113051	-0.412026
C	 2.9570647165	 3.2422049387	-0.0245087606	-0.140501
C	 2.4686116877	 1.996582337	-0.0235179155	-0.010919
N	 1.0693227582	 2.0412686877	-0.0022449694	-0.143657
H	-1.502633823	 4.0344163575	 0.0457644801	 0.156411
H	 1.849987145	 4.9297708033	-0.8782665811	 0.143766
H	 1.8763357448	 4.9207210899	 0.8792933717	 0.143762
H	 4.0038409923	 3.5059482518	-0.0388363261	 0.119699
H	 2.9716399578	 1.0419764367	-0.035894254	 0.158947
136.1682	170.7662	312.4694	338.1994	450.4843	574.1209	621.4559	657.7127	676.8702	699.3438	728.5953	750.5034	801.1204	877.0277	921.1866	934.5644	963.1311	1014.9567	1045.6097	1100.2472	1157.409	1166.3229	1252.3801	1282.1409	1294.8374	1376.5265	1422.2304	1468.4927	1650.7916	1718.2066	1885.1903	3025.4417	3047.5537	3248.1291	3273.5505	3299.0722
O=C1OC=C2CC=CN12	O=c1occ2CC=Cn12	
InChI=1S/C6H5NO2/c8-6-7-3-1-2-5(7)4-9-6/h1,3-4H,2H2	InChI=1S/C6H5NO2/c8-6-7-3-1-2-5(7)4-9-6/h1,3-4H,2H2
