17
gdb 34400	2.41246	1.67675	1.26295	1.0933	73.73	-0.254	0.0319	0.2859	1029.9186	0.136098	-421.768044	-421.760201	-421.759257	-421.800574	29.848	
C	 0.0062921903	-1.2149098222	-0.0866762535	-0.424069
C	-0.0032911984	-0.0140801505	-0.0228071593	 0.223804
C	-0.0278764652	 1.4277410055	 0.0441587587	 0.070771
C	-0.3161179288	 2.2321312268	-1.2511128504	-0.125697
O	 0.805749633	 3.1010356878	-1.0046552053	-0.290884
C	 1.3063533854	 2.2341929038	 0.0373185654	 0.064472
C	 1.4083637505	 2.8916387671	 1.4199316841	-0.099989
O	 0.3483659819	 2.3463641543	 2.1973191678	-0.245973
C	-0.7061886382	 2.0051389086	 1.317976339	-0.129711
H	 0.0184203045	-2.2754891296	-0.1396876441	 0.196049
H	-0.1849040584	 1.6429557132	-2.1656277725	 0.112975
H	-1.2670457034	 2.7748626665	-1.2911409031	 0.110702
H	 2.2070017284	 1.6998097797	-0.2789821973	 0.093027
H	 2.3451623916	 2.6707235491	 1.9383641013	 0.114576
H	 1.3071780804	 3.9803738501	 1.2999887825	 0.108337
H	-1.3003509685	 2.8930444561	 1.0492330393	 0.095326
H	-1.349627075	 1.2844597436	 1.8249976774	 0.126286
92.2244	137.2939	151.7651	212.3402	356.4181	366.0583	480.8047	519.9799	556.479	624.3847	636.3751	680.258	687.9968	829.6766	876.284	934.025	951.5672	976.4358	1020.317	1033.4587	1042.8311	1083.3264	1113.404	1144.8947	1181.6508	1194.6953	1218.3541	1266.3775	1294.7407	1336.7437	1351.2049	1358.6149	1396.6824	1496.659	1510.9572	1522.1884	2235.9348	2976.8126	3002.483	3026.2895	3065.9288	3079.4038	3096.3756	3118.5076	3500.9361
C#CC12COC1COC2	C#C[C@]12CO[C@H]1COC2	
InChI=1S/C7H8O2/c1-2-7-4-8-3-6(7)9-5-7/h1,6H,3-5H2	InChI=1S/C7H8O2/c1-2-7-4-8-3-6(7)9-5-7/h1,6H,3-5H2/t6-,7-/m0/s1
