17
gdb 79301	3.87864	1.26072	1.17349	5.0143	78.67	-0.2515	0.0007	0.2522	1089.2643	0.13719	-380.811289	-380.803752	-380.802808	-380.843244	29.234	
C	-0.0335998142	 1.6058697152	 0.0183118116	-0.435164
C	 0.0818890332	 0.0943787741	-0.0447849093	 0.06915
C	 0.8068301183	-0.621664546	-1.1785328415	-0.154837
C	 2.2781003052	-0.7085470914	-0.764983484	-0.140559
C	 2.3747929826	-0.0515570248	 0.6017690924	-0.18502
N	 1.0085574415	-0.6133147688	 0.9485086893	-0.213089
C	 1.2557217719	-1.6562060415	-0.1726030125	 0.321463
C	 1.1428192847	-3.0610575951	-0.0880446625	 0.132007
N	 1.0535699976	-4.2143683267	-0.0274560058	-0.358399
H	 0.8826453546	 2.1183818904	-0.2836630865	 0.124456
H	-0.8336155018	 1.9415028233	-0.6494662673	 0.127934
H	-0.2910364105	 1.92130085	 1.0349438557	 0.138084
H	-0.9030817527	-0.3578714441	 0.1049434078	 0.101222
H	 0.4971347128	-0.8053138045	-2.199841814	 0.115804
H	 3.0520407208	-0.955615034	-1.4804148894	 0.118353
H	 3.1192955258	-0.5335390171	 1.2388509827	 0.12846
H	 2.4675288703	 1.033907471	 0.6837882632	 0.110135
110.2322	149.5594	188.0456	258.0606	320.5785	440.4307	473.8368	536.1432	573.4973	617.1819	696.543	758.3264	786.0696	856.7182	899.0428	912.255	929.4461	949.4628	993.5772	1018.7278	1059.9711	1085.6147	1096.9538	1102.7265	1140.8887	1177.5303	1234.516	1256.4788	1290.0173	1301.2892	1392.2986	1403.6902	1427.0005	1488.3663	1494.7303	1524.068	2341.1921	3040.9454	3063.093	3070.2343	3106.7892	3119.9203	3129.1092	3196.9538	3207.4837
CC1C2C3CN1C23C#N	C[C@H]1[C@H]2[C@H]3CN1[C@@]23C#N	
InChI=1S/C7H8N2/c1-4-6-5-2-9(4)7(5,6)3-8/h4-6H,2H2,1H3	InChI=1S/C7H8N2/c1-4-6-5-2-9(4)7(5,6)3-8/h4-6H,2H2,1H3/t4-,5+,6-,7+/m0/s1
