18
gdb 106081	2.72465	1.61554	1.41924	2.3271	78.09	-0.2148	-0.0506	0.1641	995.8989	0.147635	-401.814268	-401.806544	-401.8056	-401.84645	30.326	
O	 0.2557394665	 1.2971413127	-0.5672124242	-0.414391
C	 0.1275990219	-0.0852530213	-0.2588797103	-0.203525
C	-1.2977836091	-0.4691682213	-0.0170724691	 0.305875
C	-2.0320052208	-1.7469094135	 0.08912506	-0.116824
C	-2.4823612538	-1.4340616238	 1.5782926408	-0.275491
C	-2.2359852146	 0.0147545261	 1.1271615501	-0.04171
C	-3.3084910962	 0.6219224791	 0.5813440812	-0.105457
C	-3.2880941755	 0.3354156702	-0.9167306871	-0.185433
N	-2.2741033387	-0.7484872619	-1.0491832171	-0.150879
H	-0.0898793737	 1.7911410003	 0.1842193191	 0.28606
H	 0.5087826808	-0.6307238178	-1.1270181369	 0.12315
H	 0.7444539928	-0.3592984228	 0.6118250127	 0.090036
H	-1.7253453487	-2.7283813899	-0.2588703884	 0.111171
H	-3.4946042404	-1.6827616277	 1.9058905511	 0.109027
H	-1.7451858939	-1.8840556336	 2.2529385605	 0.113612
H	-4.2543244455	 0.7287639085	 1.1059424163	 0.105331
H	-4.2872202557	 0.0037214706	-1.222740335	 0.118774
H	-2.9803873654	 1.141714946	-1.5935949937	 0.130675
92.5398	115.1386	241.4118	268.9073	343.762	378.0266	420.0762	499.9105	584.1572	622.6562	702.748	771.423	777.8653	821.9678	845.7492	884.7768	912.8578	956.596	991.2767	1003.6376	1025.2361	1048.8483	1058.2945	1065.2563	1094.6522	1117.162	1193.6621	1201.839	1230.2259	1245.3462	1285.4916	1306.3826	1370.2476	1398.4979	1446.2766	1468.6748	1490.786	1501.267	1581.5164	2977.2662	3028.3677	3033.8792	3070.2096	3090.6008	3104.6006	3161.2433	3166.533	3806.3715
OCC12C3CC1=CCN23	OC[C@@]12[C@H]3C[C]1[CH]CN23	
InChI=1S/C7H9NO/c9-4-7-5-1-2-8(7)6(7)3-5/h1,6,9H,2-4H2	InChI=1S/C7H9NO/c9-4-7-5-1-2-8(7)6(7)3-5/h1,6,9H,2-4H2/t6-,7+,8?/m1/s1
