16
gdb 126110	6.7294	0.67767	0.62039	1.9059	84.2	-0.2317	-0.0088	0.2229	1765.8093	0.125859	-396.934423	-396.92589	-396.924945	-396.969428	29.907	
C	 0.0014375191	 1.5478354818	 0.0104535454	-0.365854
C	-0.0490247555	 0.0090117517	 0.0023976693	-0.331217
C	-1.4074298241	-0.5180416636	 0.0123464214	 0.284955
C	-2.5380851668	-0.9353986937	 0.0208925272	-0.068674
C	-3.8594715891	-1.4481170191	 0.0308139774	 0.157446
N	-4.9345285454	-0.6584749867	 0.0400923334	-0.268971
N	-5.9431370534	-1.5556385779	 0.0465887405	-0.177834
C	-5.458838768	-2.8148126815	 0.0402304913	-0.012779
N	-4.1445758649	-2.7931309855	 0.0293797059	-0.297463
H	 1.0394969417	 1.8927139123	 0.0024352712	 0.115666
H	-0.5061629598	 1.9577317218	-0.8666325453	 0.132276
H	-0.4892364414	 1.9479349434	 0.9015872643	 0.132262
H	 0.4790067632	-0.3735068205	-0.8807652886	 0.134718
H	 0.4955870654	-0.3832380797	 0.8710887739	 0.134732
H	-6.8969627726	-1.2331617866	 0.054727064	 0.284707
H	-6.0881350882	-3.6921953964	 0.0432762887	 0.146031
25.044	72.171	103.5021	187.9279	219.224	319.5752	426.2442	483.5052	514.0102	548.7905	574.0425	677.9798	782.0064	785.9013	852.7831	895.6747	984.2773	997.9126	1059.1854	1093.4305	1102.9988	1108.8747	1166.8018	1283.3786	1294.0204	1321.6074	1347.5017	1410.8073	1465.3133	1472.4182	1486.2289	1495.0403	1506.1774	1531.9959	2367.6921	3019.6288	3046.6907	3046.7147	3120.585	3126.7391	3258.5892	3662.8159
CCC#CC1=NNC=N1	CCC#Cc1n[nH]cn1	
InChI=1S/C6H7N3/c1-2-3-4-6-7-5-8-9-6/h5H,2H2,1H3,(H,7,8,9)	InChI=1S/C6H7N3/c1-2-3-4-6-7-5-8-9-6/h5H,2H2,1H3,(H,7,8,9)
