15
gdb 29464	3.37513	1.63453	1.10289	1.239	73.09	-0.1793	0.0435	0.2228	1025.4377	0.115704	-416.833871	-416.826617	-416.825673	-416.865133	28.848	
N	 0.0135734314	 1.423104154	 0.1579842613	-0.605644
C	 0.0414951576	 0.0276324444	 0.0370427242	 0.052271
C	-1.0192507529	-0.833770634	 0.0024435745	-0.117335
O	-0.6027277771	-2.1771829151	-0.0273711343	-0.231358
C	 0.7312773132	-2.0819701816	-0.0241858291	 0.420517
C	 1.2257576285	-0.7999330501	 0.0180720296	 0.22264
C	 2.6531096914	-0.9261135869	 0.0225494327	-0.351863
C	 2.9285995289	-2.2733120718	-0.0185288116	-0.065581
N	 1.733766891	-2.9972565394	-0.0476414836	-0.408211
H	 0.7406678499	 1.8709407841	-0.3853538402	 0.245647
H	-0.8823026761	 1.8234976419	-0.0894052804	 0.241232
H	-2.085728019	-0.6912574239	 0.0090151962	 0.115853
H	 3.3944773126	-0.143191106	 0.0587472502	 0.094232
H	 3.8715902581	-2.7948913117	-0.0279647031	 0.119272
H	 1.6468452222	-3.997044464	-0.0759531765	 0.268328
171.0996	232.3878	237.6798	279.5525	332.4015	416.2783	533.19	558.2552	602.0575	616.8024	624.453	667.1989	690.5263	739.4015	770.0941	786.1164	801.2266	927.4161	1046.4006	1050.867	1073.2639	1119.0957	1170.0993	1239.5433	1269.316	1333.0672	1371.4752	1485.5136	1513.6526	1569.7738	1594.478	1636.3535	1665.3254	3248.563	3274.2437	3288.9283	3532.8058	3623.3644	3695.8679
NC1=COC2=C1C=CN2	Nc1coc2c1cc[nH]2	
InChI=1S/C6H6N2O/c7-5-3-9-6-4(5)1-2-8-6/h1-3,8H,7H2	InChI=1S/C6H6N2O/c7-5-3-9-6-4(5)1-2-8-6/h1-3,8H,7H2
