12
gdb 20318	6.43796	1.321	1.10347	3.3093	60.33	-0.2727	-0.0422	0.2305	977.6816	0.082643	-377.462779	-377.45582	-377.454876	-377.494697	24.838	
C	-0.3909738779	-0.809737323	-0.9654227334	-0.437011
C	-0.0818608363	 0.0594554911	-0.1964240251	 0.300478
C	 0.3040788182	 1.1180865534	 0.7295453425	-0.46538
C	 1.5263882857	 1.8650241511	 0.2842464372	 0.254967
C	 2.323384693	 1.7333967665	-0.8067706906	-0.024589
O	 3.2925062013	 2.6438780873	-0.7477967576	-0.164676
N	 3.07530996	 3.3801614184	 0.4558547331	-0.004377
N	 2.0563080116	 2.9050383672	 1.0182513728	-0.174833
H	-0.6765091712	-1.582156414	-1.636224161	 0.207025
H	-0.5259238163	 1.8257460229	 0.8542133105	 0.163611
H	 0.4829342569	 0.6948382388	 1.7265966219	 0.163609
H	 2.3089217451	 1.0671386804	-1.6524359503	 0.181176
48.1725	118.0208	260.8881	315.5752	326.2669	462.7045	628.1844	632.201	639.4151	662.3547	700.4537	734.5565	852.1764	959.0381	965.1968	992.7043	1045.8352	1143.5218	1222.4682	1223.9162	1303.5771	1364.7797	1464.036	1465.671	1624.6857	2247.415	3023.0981	3048.0366	3297.2304	3503.9802
C#CCC1=CON=N1	C#CCc1conn1	
InChI=1S/C5H4N2O/c1-2-3-5-4-8-7-6-5/h1,4H,3H2	InChI=1S/C5H4N2O/c1-2-3-5-4-8-7-6-5/h1,4H,3H2
