18
gdb 100902	2.52694	1.03554	0.85042	3.6974	69.25	-0.2676	0.0041	0.2717	1383.9698	0.145377	-476.209378	-476.199161	-476.198217	-476.245021	35.725	
C	 0.2661242628	 1.3087992188	 0.2924871996	-0.252068
O	-0.0916976119	-0.0248554118	-0.0411477726	-0.250141
C	 0.5245255895	-0.5355081528	-1.2039890782	-0.06748
C	 1.9923435826	-0.6252573241	-1.0410862586	 0.28762
N	 3.1397230691	-0.6697373753	-0.9143226014	-0.317531
C	-0.0960373909	-1.923684062	-1.4514574566	 0.094527
O	 0.0134416241	-2.7276882637	-0.2884967048	-0.440327
C	-1.5651947934	-1.8300082184	-1.8857813756	-0.076806
O	-2.1100007253	-3.1221810067	-2.0217203229	-0.421884
H	 1.3390757471	 1.3951415389	 0.5037644479	 0.145506
H	 0.0023485183	 2.0018387423	-0.5182701186	 0.121903
H	-0.3017728407	 1.5686760431	 1.1871814916	 0.144638
H	 0.3255454269	 0.1160183879	-2.0702721122	 0.121474
H	 0.4736421835	-2.4361328067	-2.233117004	 0.118682
H	-0.2338664201	-2.1658124182	 0.4583532158	 0.29878
H	-2.1207229584	-1.2221699372	-1.1541135911	 0.096434
H	-1.6429037004	-1.3374458955	-2.8619146607	 0.106947
H	-1.8192199929	-3.6104906487	-1.2403793277	 0.289726
72.6831	93.6838	104.4069	132.3667	177.2021	209.8064	247.8143	276.5829	346.3578	357.9035	420.5203	442.868	517.6226	532.1016	609.9694	732.4206	876.1697	889.354	961.876	1023.0969	1085.3628	1095.6426	1112.1188	1149.1766	1183.2208	1198.8409	1216.0218	1283.9121	1299.8825	1340.7495	1356.4089	1391.1938	1431.7401	1440.8851	1481.7696	1488.7636	1507.3751	1510.6709	2356.6399	2982.4693	2984.6388	3004.8342	3060.7084	3070.396	3078.9271	3139.4326	3765.1957	3771.1662
COC(C#N)C(O)CO	CO[C@@H](C#N)[C@@H](O)CO	
InChI=1S/C5H9NO3/c1-9-5(2-6)4(8)3-7/h4-5,7-8H,3H2,1H3	InChI=1S/C5H9NO3/c1-9-5(2-6)4(8)3-7/h4-5,7-8H,3H2,1H3/t4-,5-/m0/s1
