16
gdb 31851	5.13038	1.04543	0.87376	1.5956	77.17	-0.2049	-0.0295	0.1754	1280.3258	0.12627	-434.118478	-434.110455	-434.109511	-434.151158	30.158	
C	-0.0641087607	 1.3889716403	 0.0858846509	-0.247286
O	 0.0015985398	-0.0218069646	-0.0008372575	-0.267324
C	 0.6359348485	-0.5540745236	-1.0814480079	 0.296978
C	 1.2313233334	 0.146618589	-2.1274029564	-0.109922
N	 1.8335595995	-0.4696433514	-3.1477605946	-0.311761
C	 1.8446079719	-1.8059357035	-3.1199468495	 0.423112
N	 2.514941381	-2.452001708	-4.1302450576	-0.558103
N	 1.2876919684	-2.5820114734	-2.1714165036	-0.304489
C	 0.6955830821	-1.9485599173	-1.170478849	-0.05297
H	 0.9366224156	 1.8390839509	 0.1303150239	 0.125869
H	-0.6112874653	 1.8221192759	-0.7621209252	 0.124979
H	-0.5993619945	 1.6137543187	 1.009653023	 0.138409
H	 1.2282190086	 1.232058083	-2.1614021907	 0.107649
H	 2.6729426963	-1.9102227405	-4.9641105069	 0.257791
H	 2.2743951151	-3.4209239417	-4.2612826684	 0.258355
H	 0.2355802205	-2.5525908439	-0.3911273903	 0.118714
71.7288	132.6065	222.4387	243.2432	374.6248	392.787	430.3867	437.8858	466.2022	476.3186	549.0665	554.9053	657.5184	774.6532	822.1252	891.8035	944.8553	982.9626	1036.3749	1074.6095	1081.2807	1177.6172	1210.5907	1254.6988	1310.5713	1328.7313	1392.7725	1439.6864	1475.1535	1489.152	1502.2655	1510.5234	1591.5595	1623.8426	1658.8604	2999.2653	3056.9639	3135.5357	3155.3007	3172.1743	3599.468	3723.1305
COC1=CN=C(N)N=C1	COc1cnc(N)nc1	
InChI=1S/C5H7N3O/c1-9-4-2-7-5(6)8-3-4/h2-3H,1H3,(H2,6,7,8)	InChI=1S/C5H7N3O/c1-9-4-2-7-5(6)8-3-4/h2-3H,1H3,(H2,6,7,8)
