19
gdb 73487	2.46893	2.18165	1.55375	1.3321	72.58	-0.2437	0.0837	0.3274	910.8356	0.162397	-423.015106	-423.008453	-423.007509	-423.045609	28.747	
O	 0.1717003447	 1.3609733561	-0.0633579937	-0.51358
C	 0.1005157176	-0.0303238242	-0.0915644108	 0.492995
C	 0.7381430448	-0.6490997048	-1.3294035737	-0.292906
C	-0.0771415483	-1.9650354933	-1.5131829665	-0.22062
C	-0.7805673176	-2.1459456807	-0.1533230947	-0.053939
C	 0.3022057115	-2.2326598074	 0.9674009495	-0.224957
C	 0.3252422495	-0.7345586094	 1.2981742591	-0.011004
O	-1.0892748248	-0.4887221045	 1.6008339684	-0.324375
C	-1.277072128	-0.7045792354	 0.1757016514	 0.008352
H	-0.3116029889	 1.6436389267	 0.7244000964	 0.283679
H	 0.6333562903	 0.0310085666	-2.1782004866	 0.114962
H	 1.8081029843	-0.8322615994	-1.1910413346	 0.105544
H	-0.8160740288	-1.8461769988	-2.3136641889	 0.101047
H	 0.5473505689	-2.8237247548	-1.7749631851	 0.101174
H	-1.5319046466	-2.9348574447	-0.1291798368	 0.069549
H	-0.023082055	-2.80559241	 1.8384026392	 0.10982
H	 1.2558232793	-2.6336060573	 0.6124994931	 0.097859
H	 1.0145353607	-0.3464975637	 2.0495521584	 0.076694
H	-2.2302546337	-0.3501013811	-0.2169009441	 0.079709
212.4398	274.4481	325.8818	379.9505	418.5946	484.9483	504.969	579.5818	627.4337	678.4474	725.5335	806.1873	836.3054	854.7747	896.8357	905.8756	932.2128	949.3428	960.0359	996.562	1017.1156	1026.461	1066.3212	1095.4467	1120.8028	1138.4861	1176.9133	1201.6987	1214.6437	1235.6751	1259.3713	1277.3395	1291.9043	1307.4542	1315.8082	1347.8808	1362.3306	1412.8507	1483.4857	1488.1097	1508.6179	3040.6016	3057.1462	3061.9533	3086.8063	3106.5941	3109.5594	3113.1014	3117.1624	3126.2754	3765.8372
OC12CCC3CC1OC23	O[C@@]12CC[C@H]3C[C@@H]1O[C@@H]23	
InChI=1S/C7H10O2/c8-7-2-1-4-3-5(7)9-6(4)7/h4-6,8H,1-3H2	InChI=1S/C7H10O2/c8-7-2-1-4-3-5(7)9-6(4)7/h4-6,8H,1-3H2/t4-,5-,6+,7-/m0/s1
