13
gdb 130534	4.00119	1.67965	1.18303	2.9164	78.9	-0.2142	-0.1036	0.1106	938.8504	0.089786	-415.577706	-415.571266	-415.570322	-415.608323	25.344	
O	-0.1094108193	 1.2836956087	 0.0100332685	-0.272989
N	 1.1531071187	 2.1153164724	 0.002263459	 0.004965
N	 2.2244497952	 1.5149604625	-0.0111897585	-0.09148
C	 2.4133548536	 0.1460215991	-0.0201794137	-0.111518
C	 1.3459751703	-0.6856850617	-0.0142861957	 0.222657
C	 1.1096523814	-2.0796165811	-0.019424794	-0.284611
C	-0.2657838333	-2.2451107494	-0.0068555251	-0.051638
C	-0.9695518754	-0.99182428	 0.0063940373	-0.302439
C	-0.0026485748	-0.0253128215	 0.0021487541	 0.397369
H	 3.4510818327	-0.1615953486	-0.0318270991	 0.146134
H	 1.8591572995	-2.8552910109	-0.0308077339	 0.109081
H	-0.7663503959	-3.2062248125	-0.0070569954	 0.118286
H	-2.0380203725	-0.849896557	 0.0174137065	 0.116184
177.643	223.9554	269.0419	358.9095	476.3302	538.908	564.4719	585.4366	627.3716	706.7885	765.5684	770.8772	794.5766	849.9495	881.338	920.8427	952.3451	1022.8212	1087.0036	1105.1551	1183.905	1258.6856	1309.244	1363.4019	1408.2206	1430.7347	1549.629	1599.3469	1679.6987	3211.0201	3216.5406	3256.4527	3265.383
O1N=NC=C2C=CC=C12	o1nncc2cccc12	
InChI=1S/C6H4N2O/c1-2-5-4-7-8-9-6(5)3-1/h1-4H	InChI=1S/C6H4N2O/c1-2-5-4-7-8-9-6(5)3-1/h1-4H
