25
gdb 60460	4.66041	0.56317	0.54321	0.9599	90.97	-0.2455	0.088	0.3335	2177.6897	0.226845	-389.480752	-389.469706	-389.468761	-389.5183	39.933	
C	 0.2305216594	 1.3260289839	-0.3488170469	-0.392356
C	-0.0221978069	-0.1347736373	 0.0386273277	 0.162422
C	 0.4905587708	-0.4504350471	 1.4399110651	-0.386442
O	-1.4076250705	-0.4571598992	 0.0374010321	-0.259
C	-2.0015620644	-0.5874438427	-1.2368917717	-0.05138
C	-3.4175982525	-1.125219842	-1.0525711953	-0.221212
C	-4.1597253225	-1.2692017966	-2.3632907691	 0.032938
C	-3.9850857007	-2.5067990448	-3.2107866205	-0.254775
C	-5.2914229611	-2.2548732891	-2.4983517329	-0.276391
H	 1.3011754503	 1.5512299369	-0.3106472897	 0.112281
H	-0.1170859546	 1.5447776698	-1.3624336495	 0.115316
H	-0.2889374574	 1.9954759617	 0.3446844257	 0.120174
H	 0.4936061975	-0.7875423368	-0.6873034031	 0.060056
H	-0.0157984224	 0.1788126441	 2.1789868752	 0.121296
H	 0.2943283583	-1.4961552336	 1.6907057149	 0.11861
H	 1.5670481777	-0.2682106569	 1.5098884892	 0.1095
H	-2.0378707464	 0.3799067442	-1.764141648	 0.082705
H	-1.4126657347	-1.2749586713	-1.8675867977	 0.084196
H	-3.3615425511	-2.0954346585	-0.5443084302	 0.098189
H	-3.9603519793	-0.4509113934	-0.3786185348	 0.104942
H	-4.2816041776	-0.3387198523	-2.9134876482	 0.079744
H	-3.9563481154	-2.4004428651	-4.2896444863	 0.108879
H	-3.3450162019	-3.2949821558	-2.826942707	 0.109772
H	-5.5266170043	-2.8737622194	-1.6385236977	 0.110937
H	-6.1551166104	-1.9727591286	-3.0902856312	 0.1096
33.2681	51.5165	94.6195	120.4224	135.9852	202.8751	229.3121	256.4861	273.3191	364.8786	390.2738	420.4328	477.3659	520.1787	775.8329	787.2702	820.7919	829.207	851.2827	913.0365	924.8115	937.4103	949.538	968.0025	1038.0572	1064.493	1075.8736	1086.5911	1114.1648	1141.2146	1152.9851	1174.4151	1193.4742	1199.0007	1201.1052	1228.5093	1253.3641	1301.1435	1315.79	1364.421	1371.4812	1397.2109	1412.7411	1415.7758	1438.6141	1470.3001	1479.4476	1485.6183	1490.6503	1495.4369	1508.7875	1510.2429	1527.7936	2946.065	2957.4189	2983.4199	3028.5286	3036.6869	3042.0897	3068.7183	3107.0409	3112.782	3115.5756	3121.7577	3127.6373	3128.494	3133.9681	3205.426	3220.8527
CC(C)OCCC1CC1	CC(C)OCCC1CC1	
InChI=1S/C8H16O/c1-7(2)9-6-5-8-3-4-8/h7-8H,3-6H2,1-2H3	InChI=1S/C8H16O/c1-7(2)9-6-5-8-3-4-8/h7-8H,3-6H2,1-2H3
