17
gdb 105913	2.18425	1.88128	1.23163	1.3311	67.59	-0.2261	0.0582	0.2843	1031.6342	0.133871	-458.844104	-458.835822	-458.834877	-458.877258	30.844	
C	 0.1013386016	 1.346363507	 0.1007383904	-0.26608
O	 0.2010275579	-0.0682034685	 0.0165766858	-0.280572
C	 0.7985188144	-0.5186082127	-1.1238087816	 0.35776
C	 2.2216355287	-0.2595486958	-1.6810474882	 0.050652
O	 3.3449632239	-0.5890621775	-0.9063139086	-0.4422
C	 1.6355761473	-1.2819608551	-2.6792358156	-0.144678
C	 0.8042084633	-2.0178595121	-1.5735840192	-0.007695
O	-0.4509112377	-1.9412074989	-2.3005516012	-0.320905
C	 0.2069846333	-0.6704838262	-2.5841416687	-0.003071
H	 1.0913912216	 1.8202026284	 0.087019932	 0.126597
H	-0.5013235814	 1.7536080875	-0.7224010821	 0.116237
H	-0.3906079119	 1.5716925336	 1.0484479609	 0.1371
H	 2.4136454093	 0.736513508	-2.0888763623	 0.09243
H	 3.1647528983	-1.4038634122	-0.4251076762	 0.287486
H	 2.0815593298	-1.7351870385	-3.5600837857	 0.096777
H	 1.0212777575	-2.9229330051	-1.0070643189	 0.099959
H	-0.285677726	 0.0484683784	-3.2361906909	 0.100203
61.3017	157.908	194.7848	206.7698	209.0969	282.9892	333.4367	436.0163	559.3673	596.5936	675.4426	755.2255	801.1615	839.3495	861.1941	903.6852	908.2218	946.6863	1003.0145	1031.3022	1059.3531	1080.3168	1119.9685	1128.0325	1142.0908	1175.3182	1179.8007	1203.5897	1230.675	1264.2766	1290.8827	1304.4798	1364.4057	1453.9533	1490.2134	1492.3338	1503.7553	3001.8442	3060.8291	3081.4496	3123.5894	3133.5165	3136.7006	3169.6958	3807.7459
COC12C(O)C3C1OC23	CO[C@@]12[C@@H](O)[C@H]3[C@@H]1O[C@@H]23	
InChI=1S/C6H8O3/c1-8-6-3(7)2-4(6)9-5(2)6/h2-5,7H,1H3	InChI=1S/C6H8O3/c1-8-6-3(7)2-4(6)9-5(2)6/h2-5,7H,1H3/t2-,3-,4-,5+,6-/m0/s1
