15
gdb 124202	4.56921	0.80975	0.77589	3.3039	75.03	-0.2687	-0.0247	0.244	1490.662	0.112971	-412.945491	-412.936832	-412.935888	-412.982278	28.71	
C	-0.0071309046	 1.4960917427	 0.0460197771	-0.497224
C	-0.0105578702	 0.0417840433	 0.0129677627	 0.052534
C	-0.0168562675	-1.1603883444	-0.0143172767	 0.10639
C	-0.0092769843	-2.6159337896	-0.0459800219	-0.302496
N	-1.3513391981	-3.1988058787	 0.0081385577	 0.163001
N	-2.1077933904	-3.2006147494	 1.0976906766	-0.239155
C	-3.1993865409	-3.8071627475	 0.6493022086	 0.080714
N	-3.1073419581	-4.1580711655	-0.6535718133	-0.20745
N	-1.9234226598	-3.7622029494	-1.0493563716	-0.117139
H	 1.0139931468	 1.8863330586	-0.0214875589	 0.156208
H	-0.5793946688	 1.9120456038	-0.7897985072	 0.15783
H	-0.447389513	 1.8712453859	 0.9758230958	 0.157813
H	 0.4322687381	-2.994726567	-0.9717184404	 0.174996
H	 0.5563662936	-3.0253554499	 0.7967896399	 0.166084
H	-4.0627445929	-4.002141773	 1.2642974114	 0.147895
11.2905	33.8522	67.816	188.8684	202.5719	319.1631	342.8491	373.4009	455.0884	692.303	727.1115	770.9	789.7978	903.0322	955.8225	1027.3133	1046.5497	1051.9817	1053.213	1151.9898	1166.6632	1174.9921	1253.4671	1319.4215	1344.4807	1381.3222	1390.7625	1414.1794	1461.6922	1474.5322	1477.2509	1495.0295	2383.6635	3033.3502	3060.3335	3097.141	3098.1954	3109.6683	3287.5372
CC#CCN1N=CN=N1	CC#CCn1ncnn1	
InChI=1S/C5H6N4/c1-2-3-4-9-7-5-6-8-9/h5H,4H2,1H3	InChI=1S/C5H6N4/c1-2-3-4-9-7-5-6-8-9/h5H,4H2,1H3
