22
gdb 101796	2.79288	0.90752	0.76147	5.1022	79.5	-0.2264	0.0472	0.2736	1562.6258	0.192253	-441.51991	-441.508871	-441.507927	-441.557269	39.11	
C	-0.6849949591	 0.9850882257	-0.0838435829	-0.245266
O	-0.5264446867	-0.3802097175	-0.4070447662	-0.240589
C	 0.6573649302	-0.7007048473	-1.1450344525	 0.135975
C	 1.8883382381	-0.7180601994	-0.2367653481	-0.402761
C	 0.4345476799	-2.0505728985	-1.8321343249	-0.224097
C	-0.7461543504	-2.0977155193	-2.8305327763	-0.297565
C	-2.035708875	-2.7740981423	-2.348417236	 0.367496
N	-2.425444668	-2.452567485	-1.0845855889	-0.513347
O	-2.6580296909	-3.5407711792	-3.0609128835	-0.368025
H	 0.0725104922	 1.3356654735	 0.6298809535	 0.117075
H	-0.6374855591	 1.6178843416	-0.9823614914	 0.113598
H	-1.6706833561	 1.0961627467	 0.3742893633	 0.131602
H	 0.7907200667	 0.0695014638	-1.9237021962	 0.071422
H	 2.7868105439	-0.9505755055	-0.8164723341	 0.121851
H	 2.0494105995	 0.2495918938	 0.2464651694	 0.117904
H	 1.7735923386	-1.4768484465	 0.5436154608	 0.127736
H	 1.3608361473	-2.290167612	-2.3647284382	 0.107801
H	 0.314623736	-2.8229434752	-1.0637434096	 0.116984
H	-1.0054632386	-1.0792342118	-3.1476658273	 0.11538
H	-0.4645347162	-2.6426129004	-3.7330306182	 0.125406
H	-1.9528904416	-1.7228555261	-0.5694537552	 0.271986
H	-3.3044790008	-2.8202462892	-0.7605182175	 0.249434
39.9094	53.1365	69.2609	122.4045	161.7367	204.711	239.0126	271.8778	298.3182	338.1232	390.0203	443.2345	479.606	495.7923	551.3353	634.076	719.6801	761.7106	831.1852	888.5144	922.1956	957.549	1043.1159	1065.9254	1109.0469	1118.5301	1133.357	1161.6563	1183.3935	1209.1132	1229.5144	1273.7957	1331.2745	1344.632	1366.9212	1389.2499	1397.3998	1407.7675	1467.0529	1476.7394	1479.2995	1484.3515	1494.4241	1504.0043	1512.7117	1631.1417	1794.6341	2959.4081	2991.351	3032.9621	3039.8248	3044.4142	3048.1556	3081.703	3114.8371	3116.3807	3117.6699	3118.4748	3539.065	3702.4535
COC(C)CCC(N)=O	CO[C@@H](C)CCC(=O)N	
InChI=1S/C6H13NO2/c1-5(9-2)3-4-6(7)8/h5H,3-4H2,1-2H3,(H2,7,8)	InChI=1S/C6H13NO2/c1-5(9-2)3-4-6(7)8/h5H,3-4H2,1-2H3,(H2,7,8)/t5-/m0/s1
