16
gdb 43069	2.87849	1.98738	1.51979	2.3956	72.81	-0.228	-0.0289	0.1991	880.461	0.126674	-400.73093	-400.724563	-400.723618	-400.76163	25.768	
O	 0.0384249008	-0.0241285335	-0.0436567896	-0.288506
C	 0.0067918145	 1.1668441632	 0.0121201204	 0.39607
C	-1.1020436094	 2.2332142266	 0.0640091614	-0.11005
C	-1.5110749361	 2.8197969715	 1.4410716641	-0.26915
C	-0.2794081497	 3.779849027	 1.2917323447	-0.03356
C	 0.9501501422	 3.3627127114	 2.0427036679	-0.075987
C	 1.7056829388	 2.546294398	 1.3059961399	-0.071298
C	 1.0703736272	 2.3112096289	-0.0354720583	-0.181694
N	-0.0539823457	 3.3091116557	-0.1298430841	-0.128397
H	-1.8873291538	 2.1221273226	-0.6893392371	 0.104769
H	-2.4761461458	 3.3302021649	 1.4025689008	 0.119
H	-1.5001642516	 2.1412178857	 2.295200776	 0.122133
H	-0.514029944	 4.8447036042	 1.3799112316	 0.08624
H	 1.1555980267	 3.6712889295	 3.0609444904	 0.109159
H	 2.624310313	 2.0627507447	 1.6135346504	 0.11703
H	 1.7586054829	 2.2859669796	-0.8859699387	 0.104242
124.3967	207.9123	286.0177	408.2524	515.4857	551.2624	655.8488	658.6587	745.9185	789.6343	804.7147	817.2683	853.176	917.7157	939.5521	962.9268	970.0605	990.6684	1021.401	1043.3102	1065.0521	1071.7563	1109.0075	1129.513	1177.2232	1198.7533	1239.0249	1242.8439	1271.7489	1296.6319	1316.5273	1358.1138	1484.3294	1660.9375	1896.9908	3057.6695	3063.0305	3066.9268	3076.944	3130.8915	3199.8115	3225.7301
O=C1C2CC3C=CC1N23	O=C1[C@H]2C[C@H]3C=C[C@@H]1N23	
InChI=1S/C7H7NO/c9-7-5-2-1-4-3-6(7)8(4)5/h1-2,4-6H,3H2	InChI=1S/C7H7NO/c9-7-5-2-1-4-3-6(7)8(4)5/h1-2,4-6H,3H2/t4-,5+,6-/m1/s1
