18
gdb 67093	2.62973	2.16668	1.766	1.9031	79.56	-0.2165	-0.0063	0.2102	872.3916	0.148471	-364.693859	-364.687111	-364.686167	-364.724385	28.558	
C	-0.061288168	 1.5717873407	-0.08244397	-0.530073
C	-0.0497860529	 0.0691776953	-0.0471906457	 0.346453
C	 0.7903106605	-0.9427960763	-0.8652560129	-0.086651
C	 1.9536753129	-0.9774229892	 0.1679656721	-0.354103
C	 0.6547645455	-0.8997565956	 0.9817405495	 0.267675
C	-0.1683420131	-0.9406414862	 2.2483747756	-0.221601
C	-1.4104305791	-0.9347547119	 1.7396924589	-0.080065
C	-1.2199897002	-0.912311697	 0.2139644313	-0.136017
N	-0.0432246795	-1.8938637972	 0.0202150215	-0.155006
H	 0.9553475887	 1.9785273089	-0.1204881382	 0.120312
H	-0.6010832332	 1.9430632305	-0.9607657649	 0.12335
H	-0.5562066364	 1.9695668461	 0.810850272	 0.125413
H	 0.8489316308	-1.0792939088	-1.9455965743	 0.077692
H	 2.5059252522	-1.9184582109	 0.230756221	 0.113931
H	 2.6188052442	-0.1117550134	 0.2033265407	 0.103292
H	 0.1650265545	-0.9754313972	 3.2744071058	 0.116339
H	-2.3545147019	-0.9762359197	 2.2646782668	 0.108701
H	-2.0982228652	-1.0192300981	-0.4263518592	 0.060358
210.7834	219.9405	243.6109	384.5488	448.0133	467.8209	559.4513	600.9999	702.44	718.6778	744.7705	759.0533	823.7951	853.6271	860.5462	888.1971	892.4339	909.5521	926.5403	953.7356	1004.3613	1024.3446	1092.8156	1106.2046	1123.0193	1146.5922	1162.8438	1197.2586	1200.381	1225.6884	1241.3822	1275.9681	1324.5993	1339.9887	1403.2024	1483.2394	1486.5696	1492.5869	1586.5881	3023.8503	3062.4244	3090.6852	3091.8552	3095.142	3107.9794	3130.1104	3226.4261	3256.5034
CC12C3CC11C=CC2N31	C[C@@]12[C@H]3C[C@]41C=C[C@@H]2N34	
InChI=1S/C8H9N/c1-7-5-2-3-8(7)4-6(7)9(5)8/h2-3,5-6H,4H2,1H3	InChI=1S/C8H9N/c1-7-5-2-3-8(7)4-6(7)9(5)8/h2-3,5-6H,4H2,1H3/t5-,6+,7+,8-/m0/s1
