23
gdb 59049	3.11093	0.99906	0.93261	1.3856	88.55	-0.2329	0.0276	0.2605	1414.1222	0.206079	-388.306826	-388.297302	-388.296358	-388.341238	36.155	
C	-0.1045574544	 1.5499985892	-0.0091966945	-0.387059
C	 0.0420240637	 0.0164293117	-0.0334742378	-0.062633
C	 0.7422835165	-0.4435080632	-1.325458341	-0.389297
C	 0.7378302312	-0.5112020849	 1.2069642316	 0.336361
C	 0.0965568452	-1.2457673872	 2.1178942531	-0.194749
C	 0.7581851099	-1.8082761417	 3.3460708405	-0.117253
O	 2.1665832585	-1.6842794777	 3.3395110103	-0.245644
C	 2.5900510196	-0.4118577482	 2.8850815935	-0.085092
C	 2.2039875889	-0.1936630314	 1.4210068079	-0.301729
H	 0.8691831943	 2.0507929282	-0.0369163525	 0.114689
H	-0.6720730147	 1.8939605158	-0.8803879026	 0.11151
H	-0.629018039	 1.8824502733	 0.8917238576	 0.114762
H	-0.9698829422	-0.4084973126	-0.0349168966	 0.072287
H	 1.7538233058	-0.0303230975	-1.401615268	 0.115608
H	 0.8203196895	-1.5342944846	-1.3673500385	 0.116939
H	 0.1837481614	-0.1080610009	-2.205490526	 0.11068
H	-0.9625289541	-1.4689883716	 2.0034037157	 0.079327
H	 0.3329362225	-1.3307662196	 4.2497765509	 0.092122
H	 0.5491020955	-2.8817270339	 3.4342936429	 0.114364
H	 2.1503650792	 0.3847921864	 3.5087174148	 0.086053
H	 3.6752352454	-0.3845072479	 3.0195963324	 0.103619
H	 2.8279306183	-0.8275812759	 0.7773197488	 0.115625
H	 2.424910779	 0.8432071844	 1.1383682179	 0.099508
54.7238	99.5004	191.1386	216.8743	229.3723	255.0791	283.0825	304.8925	341.4851	434.4208	493.134	517.7065	580.6211	669.4797	789.7319	841.6703	861.165	888.0115	925.1381	937.7491	961.638	988.8853	1022.8812	1041.6772	1057.9226	1092.1456	1119.4967	1148.2466	1183.5253	1209.7905	1230.7101	1259.6866	1298.2683	1318.9844	1340.8586	1359.8009	1377.6673	1393.285	1393.6257	1416.4444	1425.1	1468.3202	1487.4715	1488.9225	1492.9846	1501.7315	1503.2731	1510.8814	1735.3865	2919.6772	2964.5973	3017.0761	3018.9177	3028.6599	3033.6155	3040.7053	3053.6201	3083.5282	3094.3027	3101.1854	3105.2054	3107.6887	3144.9598
CC(C)C1=CCOCC1	CC(C)C1=CCOCC1	
InChI=1S/C8H14O/c1-7(2)8-3-5-9-6-4-8/h3,7H,4-6H2,1-2H3	InChI=1S/C8H14O/c1-7(2)8-3-5-9-6-4-8/h3,7H,4-6H2,1-2H3
