23
gdb 96551	2.26928	1.49068	1.05284	1.871	81.59	-0.2515	0.0795	0.331	1239.5879	0.20694	-425.433293	-425.424185	-425.423241	-425.466835	35.535	
C	 0.0495726639	 1.5901753296	-0.0833012623	-0.400665
C	 0.0183437248	 0.0589888273	 0.0299243136	 0.026281
C	 0.5892829221	-0.5556398115	-1.2768511372	-0.20527
C	 1.2904609087	-1.9150928087	-1.1892127197	-0.095083
O	 2.6170319138	-1.8079464949	-0.6867241168	-0.2318
C	 2.7101380835	-1.6327637872	 0.6973358335	 0.008647
O	 2.1380964263	-0.449702108	 1.1832969558	-0.25258
C	 0.7130337199	-0.4749675838	 1.3049956713	 0.129013
C	 0.3494620918	 0.2793051003	 2.5806073096	-0.410816
H	 1.0822068764	 1.9533049902	-0.0457654597	 0.130903
H	-0.3826767113	 1.9106508239	-1.0369017523	 0.109556
H	-0.5147819736	 2.0794269895	 0.7151352216	 0.111519
H	-1.0313653583	-0.2536127304	 0.1222928971	 0.067666
H	-0.2238717675	-0.6294103494	-2.009344194	 0.094572
H	 1.3259292565	 0.1338527163	-1.7046036681	 0.113942
H	 0.7119769388	-2.6433444069	-0.5975822425	 0.086289
H	 1.3982566903	-2.3284886949	-2.1967594923	 0.107365
H	 2.2578178092	-2.4988299459	 1.2170937748	 0.073425
H	 3.7788180213	-1.5785237119	 0.9189256937	 0.112465
H	 0.4019782495	-1.5233021624	 1.4359720667	 0.063882
H	 0.7582514952	 1.2927194859	 2.5653081423	 0.131844
H	-0.7365448729	 0.3448304687	 2.7015439758	 0.112006
H	 0.7643568015	-0.2376386459	 3.450018599	 0.116837
64.6212	149.3603	237.5408	245.0897	258.7126	306.6201	322.3398	330.0776	361.7755	412.5959	441.7535	531.0576	608.7789	646.5707	735.7282	832.3179	856.0196	910.0967	958.7361	989.3496	1007.7561	1014.5622	1048.5779	1072.3152	1098.9484	1126.4371	1139.7507	1165.4647	1174.6227	1220.3705	1258.9318	1292.1441	1326.8746	1338.9473	1356.3433	1366.9824	1392.022	1399.2828	1405.5555	1410.2161	1416.0423	1453.9977	1473.7098	1483.4967	1492.5013	1497.3264	1502.6797	1504.7321	1514.5929	2919.6136	2963.2899	2980.4568	3002.933	3028.9029	3034.9783	3044.9968	3073.52	3076.5609	3100.4042	3101.5275	3111.1521	3115.6232	3127.8024
CC1CCOCOC1C	C[C@H]1CCOCO[C@H]1C	
InChI=1S/C7H14O2/c1-6-3-4-8-5-9-7(6)2/h6-7H,3-5H2,1-2H3	InChI=1S/C7H14O2/c1-6-3-4-8-5-9-7(6)2/h6-7H,3-5H2,1-2H3/t6-,7-/m0/s1
