17
gdb 116685	2.96839	0.96357	0.77533	1.9624	79.95	-0.2483	0.0035	0.2518	1472.9465	0.134125	-418.000271	-417.990739	-417.989795	-418.035699	33.137	
C	 0.0413822568	 1.3348909246	 0.1921741618	-0.253659
O	-0.0348609597	-0.0089070813	-0.2786602665	-0.195517
C	-1.1789858071	-0.6531875722	-0.0041046109	 0.103646
N	-1.3287754941	-1.8484617151	-0.3850444883	-0.294707
C	-2.5371656457	-2.5469526363	-0.1015864633	 0.257989
C	-2.9754962509	-3.5641900957	-1.1521644037	-0.294711
C	-2.3935559199	-4.0480611143	 0.1364428779	-0.294714
C	-3.5836430045	-1.8618304136	 0.6282628609	 0.23335
N	-4.3818675989	-1.2618789454	 1.2140184659	-0.360961
H	 1.0202309861	 1.7078255844	-0.1099528864	 0.149958
H	-0.7382039297	 1.9599947017	-0.2581980959	 0.135516
H	-0.0411813177	 1.3800401435	 1.2841834004	 0.135519
H	-1.9237386658	-0.0691864458	 0.5515224883	 0.111456
H	-4.0393502328	-3.6811948054	-1.3195442797	 0.139489
H	-2.3531436579	-3.5879434324	-2.0379310082	 0.143928
H	-1.3710925905	-4.4044850981	 0.1366401293	 0.143928
H	-3.0518629577	-4.5022871087	 0.8670603882	 0.13949
43.5692	91.0237	107.7106	158.0491	192.0136	203.4055	251.9458	301.174	429.5281	432.4023	505.0676	588.3707	602.7666	739.7117	788.9963	870.4514	927.5615	955.1524	1002.4681	1004.3515	1059.664	1071.0276	1091.5891	1170.676	1177.242	1199.4378	1257.2772	1289.1779	1309.1253	1423.1114	1453.6462	1483.9684	1490.0315	1494.9273	1499.8664	1762.5921	2336.7174	3020.4912	3045.241	3088.7191	3150.7248	3151.261	3153.7975	3242.5296	3255.7247
COC=NC1(CC1)C#N	COC=NC1(CC1)C#N	
InChI=1S/C6H8N2O/c1-9-5-8-6(4-7)2-3-6/h5H,2-3H2,1H3	InChI=1S/C6H8N2O/c1-9-5-8-6(4-7)2-3-6/h5H,2-3H2,1H3
