25
gdb 60269	3.66411	0.85714	0.73101	1.5895	89.84	-0.2418	0.0838	0.3256	1660.6431	0.228946	-389.512666	-389.502278	-389.501333	-389.550562	37.896	
C	-0.2343866524	 1.5746101099	 0.1457682682	-0.378732
C	-0.0545279399	 0.0550863941	 0.0159583857	 0.038484
C	-1.4144355685	-0.6553221375	 0.0776722774	-0.389011
C	 0.7029077377	-0.3541145771	-1.2625371131	-0.19066
C	 2.1877017093	-0.0047057754	-1.3076594491	 0.140744
C	 2.960164995	-0.6152986062	-2.4833575979	-0.221665
C	 4.1810804738	 0.311378277	-2.5817301158	-0.24622
C	 3.6216143583	 1.6677220494	-2.0957992843	-0.060259
O	 2.3655857152	 1.4042304235	-1.4709158855	-0.264044
H	 0.7230086378	 2.0965187986	 0.1167677383	 0.136942
H	-0.8461842456	 1.9611982545	-0.6786125383	 0.104473
H	-0.7457739633	 1.8240559671	 1.0820297905	 0.097454
H	 0.5414533322	-0.2911901438	 0.8737345722	 0.066349
H	-2.0440044119	-0.3688799683	-0.7736159945	 0.110243
H	-1.302537819	-1.7448842448	 0.0559379673	 0.103958
H	-1.9567852663	-0.3910114234	 0.9915098991	 0.107533
H	 0.6287228002	-1.4440462584	-1.3759013853	 0.08765
H	 0.2173336702	 0.0879529729	-2.1430912485	 0.094694
H	 2.660444255	-0.3264257306	-0.361074962	 0.055453
H	 3.2247659426	-1.6629568176	-2.3188270356	 0.098805
H	 2.3481859299	-0.5558519889	-3.3908878936	 0.101978
H	 4.9769063266	-0.036447995	-1.9156121071	 0.105803
H	 4.5985604612	 0.3695934414	-3.5895640459	 0.104654
H	 4.3022588321	 2.156615286	-1.3858116234	 0.094175
H	 3.4453964496	 2.3653166326	-2.9234311389	 0.101202
8.1263	48.7659	93.7393	127.7403	206.1137	229.2147	262.2486	283.8552	307.6839	418.9466	427.0952	484.5057	602.2326	691.5305	807.5514	831.7194	849.8282	889.3392	913.8779	932.6786	936.4593	957.3147	966.4176	983.6689	1031.3693	1061.7197	1092.5781	1124.3834	1151.6874	1176.1034	1193.3559	1199.557	1217.6625	1248.4512	1264.5844	1295.4518	1319.8935	1331.0196	1359.2672	1368.5195	1377.1076	1398.1724	1402.9051	1408.9926	1426.4488	1464.7734	1485.8535	1488.7659	1494.4343	1501.6877	1504.6974	1512.6678	1533.3074	2925.2489	2990.0196	3007.2038	3010.6037	3021.3541	3028.7465	3042.0467	3042.6194	3053.4005	3057.0734	3083.0039	3089.2157	3095.9992	3099.8531	3110.6239	3142.4927
CC(C)CC1CCCO1	CC(C)C[C@H]1CCCO1	
InChI=1S/C8H16O/c1-7(2)6-8-4-3-5-9-8/h7-8H,3-6H2,1-2H3	InChI=1S/C8H16O/c1-7(2)6-8-4-3-5-9-8/h7-8H,3-6H2,1-2H3/t8-/m1/s1
