19
gdb 87783	3.70733	1.05976	1.05113	2.1542	76.28	-0.2316	0.0691	0.3007	1218.5729	0.157817	-422.966119	-422.957507	-422.956563	-422.998968	33.914	
O	-0.0286401835	 1.3661222333	 0.1170456647	-0.418652
C	-0.023680438	-0.031203847	 0.0255353112	 0.032223
C	-0.4405800345	-0.7637779731	 1.2700836299	-0.381514
C	-1.3284366824	-0.7784930744	 0.0557573833	 0.361124
C	-2.7465069999	-0.1773895064	-0.0336696716	-0.379717
C	-3.1426911483	-1.3899299125	-0.8958836339	 0.408922
O	-4.3480372868	-2.0569757123	-0.7745884728	-0.46041
C	-2.2657579995	-1.5182331545	-2.1089115628	-0.343048
C	-1.7465571976	-1.9855127134	-0.7610584019	-0.205444
H	-0.276541675	 1.7187269645	-0.7439207607	 0.284651
H	 0.7932330376	-0.4549067232	-0.5607821453	 0.081284
H	 0.0938938843	-1.668857116	 1.5405663626	 0.112669
H	-0.7521039112	-0.1480991544	 2.1077689198	 0.123053
H	-3.2623087552	-0.18555291	 0.9297829127	 0.11532
H	-2.8499400404	 0.814145218	-0.4891698761	 0.082761
H	-4.9669131777	-1.6845174689	-1.4121268941	 0.284825
H	-2.556820856	-2.3215076109	-2.7790808322	 0.112318
H	-1.8321202121	-0.6487400264	-2.5996886445	 0.094593
H	-1.4503513738	-3.0120665125	-0.5834013584	 0.095042
98.2819	141.9937	206.3238	244.3108	282.6402	327.8691	384.3328	402.4152	438.715	455.4161	490.56	555.3841	671.1783	773.5485	836.4731	842.2578	881.7707	905.3912	937.7801	953.2593	983.7336	998.2811	1030.9404	1042.3529	1067.5387	1091.6128	1106.4789	1134.6343	1172.1173	1192.1018	1210.9161	1238.5262	1271.7303	1295.6997	1302.1216	1360.6356	1399.8361	1428.868	1475.6483	1488.2504	1505.0009	3034.3721	3085.8314	3095.9652	3102.4357	3125.879	3187.7622	3198.1049	3215.1161	3794.3938	3806.6567
OC1CC11CC2(O)CC12	O[C@H]1C[C@]21C[C@@]1(O)C[C@@H]21	
InChI=1S/C7H10O2/c8-5-2-6(5)3-7(9)1-4(6)7/h4-5,8-9H,1-3H2	InChI=1S/C7H10O2/c8-5-2-6(5)3-7(9)1-4(6)7/h4-5,8-9H,1-3H2/t4-,5-,6-,7-/m0/s1
