21
gdb 88751	3.66679	1.0475	0.91416	1.7549	82.57	-0.2455	0.0881	0.3336	1339.7659	0.182326	-387.037378	-387.028784	-387.02784	-387.071041	33.088	
C	-0.0453333949	 1.5214881358	-0.2529142738	-0.406347
C	 0.0268046231	 0.0241699622	-0.0432439981	 0.003416
C	 1.3383431054	-0.7158127707	-0.1482989346	-0.313004
C	 0.6388942802	-0.6077887512	 1.1892850442	 0.003861
C	 1.2333032231	 0.1953317903	 2.3143982728	-0.026396
C	 0.2932352916	 0.6724146301	 3.4927798247	-0.278797
C	 1.1735483052	-0.1294391353	 4.4577505118	 0.035434
O	 1.146427269	-1.4934047519	 4.016273269	-0.246555
C	 2.0469171883	-0.588079129	 3.366799347	 0.011918
H	 0.8525199147	 2.0303472469	 0.1103047483	 0.113006
H	-0.1437739805	 1.75938749	-1.3179597591	 0.115972
H	-0.9066395693	 1.9582277436	 0.2652787814	 0.116379
H	-0.8362701779	-0.5084570561	-0.4355441791	 0.081736
H	 1.3669443285	-1.6778730063	-0.6482313414	 0.109108
H	 2.2338026002	-0.1172692551	-0.2921752996	 0.102856
H	 0.1472522408	-1.5103897823	 1.5408592393	 0.094234
H	 1.8171088771	 1.040832129	 1.9396179126	 0.071607
H	 0.3353035838	 1.7527345232	 3.6504362442	 0.103153
H	-0.7493900105	 0.3486815022	 3.4451568582	 0.10905
H	 1.383268002	 0.044438384	 5.506707602	 0.101819
H	 3.0964244799	-0.8609156494	 3.3568115703	 0.097551
55.935	120.7262	147.2409	209.2082	214.5205	338.9252	382.384	394.0292	496.5821	561.8659	738.4985	766.2652	800.5099	839.3847	851.8081	866.3472	894.0262	900.3403	938.5315	946.8979	987.8085	1003.1909	1031.8873	1047.7149	1055.6811	1070.2707	1116.632	1127.1917	1154.9358	1194.2312	1204.1131	1214.0812	1237.7461	1240.723	1253.1011	1276.4952	1296.2723	1386.6326	1396.2361	1420.6742	1437.7347	1474.1246	1492.8685	1494.2497	1506.0874	3028.2187	3063.2488	3069.4237	3085.4138	3101.3485	3120.8729	3122.6987	3131.4986	3151.5428	3174.7134	3192.266	3205.941
CC1CC1C1CC2OC12	C[C@H]1C[C@H]1[C@H]1C[C@H]2O[C@@H]12	
InChI=1S/C8H12O/c1-4-2-5(4)6-3-7-8(6)9-7/h4-8H,2-3H2,1H3	InChI=1S/C8H12O/c1-4-2-5(4)6-3-7-8(6)9-7/h4-8H,2-3H2,1H3/t4-,5+,6+,7+,8-/m0/s1
