13
gdb 20476	6.40433	1.42377	1.26206	2.3742	59.76	-0.2693	-0.0182	0.2511	911.2736	0.096265	-398.565047	-398.558688	-398.557744	-398.596207	23.072	
C	 0.8926068474	 0.9802867698	-0.0908874561	-0.176444
O	-0.0269929992	 0.2065516748	-0.8558893652	-0.227933
C	-0.4483107221	 0.6648249381	 0.4325459205	-0.025281
C	-0.6493853325	-0.3816747494	 1.4560464116	 0.398564
N	-1.4575255042	-0.1643226527	 2.4681040068	-0.209024
O	-1.4164430291	-1.3216538815	 3.2356539629	-0.161936
C	-0.5879720462	-2.2004800981	 2.6513642757	 0.083998
C	-0.0622454323	-1.6797101451	 1.5163808509	-0.341069
H	 1.7561175477	 0.4402917935	 0.2939527572	 0.121443
H	 1.0930477953	 1.9824857575	-0.4665015505	 0.128058
H	-1.2040716457	 1.4473795269	 0.4263481023	 0.118106
H	-0.4808395632	-3.1489082658	 3.1546315342	 0.155416
H	 0.6132423441	-2.135760128	 0.8133679998	 0.136102
67.8389	176.7046	180.4957	412.4907	440.7631	614.1059	660.2044	726.9107	803.9453	859.4532	873.4989	898.6721	917.3656	951.6865	985.7212	1011.4293	1077.9339	1095.9563	1153.7964	1156.5613	1168.9379	1270.6665	1301.1854	1394.4264	1454.4794	1499.4453	1522.6562	1611.0238	3086.7998	3141.7867	3178.4246	3264.7301	3295.1371
C1OC1C1=NOC=C1	C1O[C@H]1c1nocc1	
InChI=1S/C5H5NO2/c1-2-8-6-4(1)5-3-7-5/h1-2,5H,3H2	InChI=1S/C5H5NO2/c1-2-8-6-4(1)5-3-7-5/h1-2,5H,3H2/t5-/m1/s1
