19
gdb 30127	3.56576	1.09043	1.05601	3.224	81.58	-0.2119	0.0346	0.2465	1233.3566	0.161305	-382.101096	-382.092804	-382.09186	-382.134888	31.491	
C	-0.0891503139	 1.5258496031	-0.1825618871	-0.405495
C	-0.0209552167	 0.0279722299	 0.001638693	 0.0252
C	 1.2678883346	-0.7207938446	-0.2210142582	-0.309929
C	 0.7126185214	-0.6017652851	 1.1788649383	-0.124992
C	 1.3827823597	 0.2078876963	 2.2180410375	 0.296588
C	 2.6420838932	 0.7571908395	 2.2254948804	-0.195681
N	 2.7594580306	 1.403397727	 3.4379956339	-0.233206
C	 1.5884004159	 1.2145618228	 4.1072397694	 0.009533
N	 0.7386409917	 0.5030336753	 3.4068047303	-0.311307
H	 0.8295541115	 2.0084231495	 0.1633316424	 0.114879
H	-0.2303444157	 1.7862294382	-1.237614549	 0.109077
H	-0.9210981418	 1.956387708	 0.3852787713	 0.121538
H	-0.9251546462	-0.4994543778	-0.2910299148	 0.081831
H	 1.2434954	-1.6918301102	-0.703446216	 0.106762
H	 2.1448175528	-0.1299707942	-0.4676579665	 0.103642
H	 0.2337245207	-1.4900844954	 1.5806330255	 0.093856
H	 3.4488086327	 0.7382487224	 1.5125442166	 0.126108
H	 3.564019545	 1.9099913347	 3.7661840627	 0.264869
H	 1.4178890444	 1.6174390604	 5.0947776603	 0.126729
29.851	111.0955	173.3778	218.2393	273.3853	346.0365	422.1682	502.9389	511.0178	625.6858	664.7812	714.904	757.9128	783.1813	819.5361	849.1743	877.9892	930.4734	948.8759	972.466	1027.2126	1075.7905	1081.9774	1100.9206	1112.4051	1137.9306	1146.2251	1196.0127	1214.2859	1234.7448	1258.3713	1349.9382	1387.8434	1410.3479	1425.1599	1458.6521	1486.4837	1493.8425	1503.576	1531.2753	1599.3344	3029.9202	3089.1665	3106.0311	3126.4597	3137.2979	3148.2623	3208.8424	3247.5261	3277.3405	3668.5369
CC1CC1C1=CNC=N1	C[C@H]1C[C@H]1c1c[nH]cn1	
InChI=1S/C7H10N2/c1-5-2-6(5)7-3-8-4-9-7/h3-6H,2H2,1H3,(H,8,9)	InChI=1S/C7H10N2/c1-5-2-6(5)7-3-8-4-9-7/h3-6H,2H2,1H3,(H,8,9)/t5-,6+/m0/s1
