23
gdb 104221	2.39532	1.36865	1.23111	1.071	86.13	-0.2415	0.0882	0.3297	1201.1021	0.204084	-388.261573	-388.251837	-388.250893	-388.295693	37.378	
C	-0.2951393471	 1.3381537807	-0.1057086469	-0.251071
O	-0.3600609692	-0.0421325456	-0.3867331737	-0.285154
C	 0.6658193556	-0.5549531332	-1.2153907165	 0.355162
C	 0.6202698713	 0.0345538435	-2.6252016568	-0.443817
C	 2.1059680132	-0.5943801849	-0.6026112285	-0.274047
C	 2.2007262801	-2.101387898	-0.9823476035	-0.315904
C	 0.6845413831	-2.0943555643	-1.2019766206	 0.336145
C	-0.3075370843	-2.9410289222	-0.4650782665	-0.31223
C	-0.1833304724	-3.046003716	-1.9685085104	-0.341726
H	 0.6871898838	 1.6312169272	 0.2937303162	 0.105613
H	-0.5101203719	 1.9617064866	-0.9850211077	 0.106865
H	-1.0535710441	 1.5424001395	 0.6545407653	 0.124593
H	 0.8556367524	 1.1035738195	-2.626680922	 0.111764
H	 1.348857161	-0.465096065	-3.270395994	 0.118834
H	-0.3734469147	-0.1021974024	-3.0630782803	 0.119023
H	 2.8525855541	 0.0790008045	-1.0306521548	 0.090501
H	 2.0664345198	-0.4514217687	 0.4798036022	 0.107836
H	 2.7703207334	-2.269752374	-1.9018763895	 0.100094
H	 2.5812455768	-2.7760416676	-0.2114695043	 0.100276
H	 0.0736546258	-3.7585251373	 0.1393170982	 0.103812
H	-1.179740598	-2.4420357335	-0.059153923	 0.126958
H	-0.9855954319	-2.6350761745	-2.5737618923	 0.110398
H	 0.2801554731	-3.9336318841	-2.3883645005	 0.106074
88.812	97.2441	170.5169	189.8415	221.6088	260.181	279.3762	309.1894	349.075	395.0013	465.3924	483.4564	567.7641	669.2927	754.5661	782.2284	867.7559	890.1319	895.2018	915.4959	928.3884	949.8491	961.8152	996.8686	1052.8086	1074.9471	1097.6127	1131.9087	1158.3034	1181.1195	1186.1737	1191.1945	1191.8406	1208.9651	1228.9069	1256.845	1262.8382	1303.5107	1382.4782	1401.7452	1461.7384	1471.5921	1475.4157	1482.9913	1488.868	1496.9853	1502.854	1506.4492	1512.1772	2986.4446	3033.147	3039.438	3047.0958	3061.6779	3095.2993	3104.9232	3108.3808	3112.5857	3120.1477	3121.9699	3128.6284	3200.0442	3223.5017
COC1(C)CCC11CC1	CO[C@@]1(C)CCC21CC2	
InChI=1S/C8H14O/c1-7(9-2)3-4-8(7)5-6-8/h3-6H2,1-2H3	InChI=1S/C8H14O/c1-7(9-2)3-4-8(7)5-6-8/h3-6H2,1-2H3/t7-/m0/s1
