14
gdb 43862	3.89632	1.02019	0.89347	2.7697	67.53	-0.2653	-0.0487	0.2166	1233.7307	0.098465	-436.675189	-436.66723	-436.666286	-436.708468	29.071	
O	 0.1028252807	 0.0722700976	-0.6215680744	-0.274058
C	 0.041755677	 1.1625592013	-0.1414723555	 0.409845
C	-1.1218538174	 2.0553108328	 0.3428840896	-0.437075
C	-0.0532945965	 3.0366352149	 0.8443407057	 0.437475
C	 1.1049198439	 2.2095288607	 0.2663091377	-0.439854
O	-0.1568337418	 4.4396032543	 0.7275247943	-0.254474
C	-0.0671709258	 3.8858275869	 2.0486148933	-0.213344
C	-1.2561793443	 3.9698024065	 2.8682136302	 0.315164
N	-2.1990924266	 4.0096288681	 3.5353468398	-0.32134
H	-1.7310300682	 2.4555134069	-0.4740356836	 0.160756
H	-1.783853405	 1.6133539705	 1.0924794273	 0.161778
H	 1.8737153057	 1.8596958578	 0.960075911	 0.148737
H	 1.5896924229	 2.6865042257	-0.5919332814	 0.159373
H	 0.8640871653	 4.0888753559	 2.5735982761	 0.147016
49.0507	113.0159	153.4306	294.9746	334.7993	357.0546	416.2796	467.3647	501.078	573.2996	604.6187	643.2382	721.9952	817.3746	881.5911	948.5375	979.8107	989.3073	1018.7712	1069.0143	1081.9059	1177.6969	1193.7245	1198.7519	1211.0221	1332.7335	1413.1954	1424.5485	1479.3766	1912.1065	2361.9697	3059.3592	3064.0909	3117.731	3119.3143	3138.9393
O=C1CC2(C1)OC2C#N	O=C1CC2(C1)O[C@H]2C#N	
InChI=1S/C6H5NO2/c7-3-5-6(9-5)1-4(8)2-6/h5H,1-2H2	InChI=1S/C6H5NO2/c7-3-5-6(9-5)1-4(8)2-6/h5H,1-2H2/t5-/m0/s1
