15
gdb 67515	2.40681	1.75084	1.32725	3.0209	65.21	-0.2331	-0.0081	0.225	966.7524	0.11007	-457.673573	-457.665922	-457.664977	-457.705803	29.317	
O	-0.1001996235	 1.4090306624	 0.0476263359	-0.453868
C	-0.0435051697	 0.0371631213	 0.0161837897	 0.356683
C	 0.6667778695	-0.7530943907	-1.1386645261	-0.058136
O	 0.8240601739	-2.1171190978	-0.7264170604	-0.231175
C	-0.4586012806	-1.6780973436	-1.2137758731	 0.029777
C	-1.211245644	-0.9366725944	-0.0674727855	-0.197514
C	-0.3640326598	-0.8609775402	 1.1863777918	-0.184589
C	 0.526654973	-1.942479906	 1.7457232766	 0.14816
O	 1.4970758154	-1.6911915855	 2.4155012083	-0.275678
H	 0.6544302758	 1.7328788508	 0.5542939874	 0.299243
H	 1.3437047053	-0.3551187606	-1.8849310158	 0.123302
H	-0.8928217014	-2.2242109077	-2.0414110543	 0.121863
H	-2.2718742439	-0.7261328364	-0.0781883854	 0.110844
H	-0.8546322164	-0.285119095	 1.9697663712	 0.128401
H	 0.1915401164	-2.9832439064	 1.5645214695	 0.082686
84.6546	132.4119	245.7458	301.2333	324.9242	353.7296	418.846	481.8894	570.5227	587.5346	692.7215	758.9993	780.04	820.8694	854.7763	900.5377	941.8088	947.5897	977.9576	985.7979	1033.452	1050.6949	1101.1474	1171.8033	1181.4871	1232.8288	1269.9626	1289.7424	1308.0796	1372.2438	1415.9829	1463.5315	1807.5981	2923.6281	3136.4896	3191.8978	3206.4713	3216.1021	3779.2983
OC12C3OC3C1C2C=O	O[C@]12[C@H]3O[C@H]3[C@H]1[C@H]2C=O	
InChI=1S/C6H6O3/c7-1-2-3-4-5(9-4)6(2,3)8/h1-5,8H	InChI=1S/C6H6O3/c7-1-2-3-4-5(9-4)6(2,3)8/h1-5,8H/t2-,3-,4+,5+,6+/m1/s1
