20
gdb 122092	3.16823	0.77186	0.6538	3.5033	77.53	-0.2688	0.0167	0.2854	1761.4805	0.16782	-440.276262	-440.265318	-440.264374	-440.313684	36.79	
C	 1.0339542499	 1.0930629942	 0.8709886888	-0.387127
C	 0.1798795317	 0.3040246183	-0.1051667655	-0.030501
O	 1.0350529723	-0.4952395908	-0.9051960178	-0.245742
C	 0.3530239142	-1.2663688424	-1.8558691728	-0.080691
C	 1.4063334854	-1.9638361847	-2.7227909844	-0.026117
O	 0.7224988034	-2.8316839085	-3.5902291421	-0.234897
C	 1.56496303	-3.6970169101	-4.3333949834	-0.249172
C	 2.2216428601	-0.9751629405	-3.4668593658	 0.278072
N	 2.8547061908	-0.2307953818	-4.0832082096	-0.328809
H	 1.6037788806	 0.4184059418	 1.5160129754	 0.1282
H	 1.7394223214	 1.7313891901	 0.3322065215	 0.136358
H	 0.4020798764	 1.7255463748	 1.5013137295	 0.118547
H	-0.5380763541	-0.3367939142	 0.4330715079	 0.090423
H	-0.4066069777	 0.9813195797	-0.746918509	 0.096253
H	-0.2686441832	-2.0458097786	-1.3889318077	 0.106944
H	-0.2977268759	-0.6507569496	-2.4952626253	 0.113743
H	 2.0894790217	-2.5171588307	-2.0585579515	 0.122199
H	 2.2302899706	-3.1371253291	-5.0033727074	 0.138262
H	 2.17569886	-4.3256627596	-3.6690254269	 0.114621
H	 0.9094577223	-4.3351070783	-4.9285142238	 0.139433
47.1672	62.5687	88.9573	116.4171	129.7811	173.4322	210.4368	244.7754	257.3129	273.6659	335.049	411.865	488.5378	593.9103	621.475	815.5176	824.3737	895.8925	992.8493	1047.7305	1072.9213	1102.1635	1147.1181	1167.6874	1176.9619	1185.0616	1188.4664	1224.4051	1240.0731	1299.1554	1320.7036	1368.4411	1384.5574	1406.8876	1447.6286	1480.1429	1483.513	1488.6779	1499.4855	1508.594	1515.046	1535.9626	2355.9048	2963.2042	2982.503	2986.1871	2993.2294	2995.1612	3024.5176	3047.5145	3057.8633	3122.1801	3126.0013	3134.6136
CCOCC(OC)C#N	CCOC[C@@H](OC)C#N	
InChI=1S/C6H11NO2/c1-3-9-5-6(4-7)8-2/h6H,3,5H2,1-2H3	InChI=1S/C6H11NO2/c1-3-9-5-6(4-7)8-2/h6H,3,5H2,1-2H3/t6-/m0/s1
