21
gdb 88276	3.60923	0.9581	0.90383	2.4326	86.02	-0.2399	-0.0134	0.2265	1411.9594	0.181993	-387.095016	-387.08571	-387.084766	-387.129802	34.778	
C	-0.3297309706	 1.4718204067	 0.1046014807	-0.417848
C	-0.0539478259	-0.0143105979	 0.1103565484	 0.016737
C	 1.2716373712	-0.5728399355	-0.2795966841	-0.287017
C	 0.8378174534	-0.6860550745	 1.1722351924	-0.13636
C	 1.5415651882	 0.1375183359	 2.1944480582	 0.395758
O	 2.1727866028	 1.1418530462	 1.9049239432	-0.366977
C	 1.435463796	-0.3209202861	 3.6111686742	-0.109152
C	 2.6420218965	-0.0845771808	 4.5105093695	-0.248468
C	 1.4248139075	 0.7525570554	 4.6914044543	-0.248244
H	 0.5474540746	 2.036171186	 0.4248850805	 0.156635
H	-0.602551323	 1.7977765523	-0.9052106579	 0.114728
H	-1.1621260657	 1.7224751332	 0.7712632633	 0.112632
H	-0.9129879482	-0.6279809357	-0.1502102627	 0.091125
H	 1.3185939801	-1.4872695827	-0.8603442706	 0.112422
H	 2.0742689571	 0.1358182178	-0.4548447066	 0.137597
H	 0.4942250088	-1.6554730808	 1.5163080868	 0.083753
H	 0.84811285	-1.2136080348	 3.7920972942	 0.085408
H	 2.8695582256	-0.8506095364	 5.2427947855	 0.115915
H	 3.4964147901	 0.3759367485	 4.0281427175	 0.138092
H	 1.4643651094	 1.773934909	 4.3311593855	 0.137613
H	 0.7889703321	 0.5795067739	 5.5520348874	 0.115651
45.4433	63.9248	166.109	183.3347	233.4118	260.593	288.0111	337.1166	379.785	421.0799	649.6944	727.4195	765.2879	784.7712	810.0606	828.1578	844.8479	859.2572	909.7797	924.4551	954.6981	1003.353	1054.6431	1075.7135	1085.8365	1093.9799	1104.5641	1109.322	1126.4845	1130.0084	1146.3367	1206.4381	1211.0445	1222.131	1239.2979	1375.538	1392.3103	1421.1171	1428.2932	1451.4344	1474.2021	1483.2917	1499.8717	1505.5215	1750.4992	3034.0604	3089.3953	3128.0111	3133.8058	3140.5998	3142.12	3146.558	3165.0549	3178.6082	3227.2019	3228.6811	3243.1277
CC1CC1C(=O)C1CC1	C[C@H]1C[C@H]1C(=O)C1CC1	
InChI=1S/C8H12O/c1-5-4-7(5)8(9)6-2-3-6/h5-7H,2-4H2,1H3	InChI=1S/C8H12O/c1-5-4-7(5)8(9)6-2-3-6/h5-7H,2-4H2,1H3/t5-,7+/m0/s1
