18
gdb 124638	4.36274	0.94132	0.87367	2.0768	74.78	-0.2203	-0.0157	0.2046	1368.308	0.148793	-431.439079	-431.430235	-431.429291	-431.473258	32.207	
C	 0.0117714156	 1.5210867651	 0.1295219627	-0.387147
C	 0.0053896746	-0.0090547523	 0.005104276	 0.064132
C	 0.7141403242	-0.4868249708	-1.2626590574	-0.399975
N	 0.6200117685	-0.6723452765	 1.1602618576	-0.382359
C	-0.0044636753	-0.6892447523	 2.3735215285	 0.503068
N	 0.614143556	-0.9639385565	 3.5247448168	-0.327058
N	-0.4212382654	-0.9160676154	 4.3684890264	-0.067762
N	-1.5805346512	-0.632108998	 3.8184644366	-0.106994
N	-1.3432049269	-0.4789861815	 2.5372106606	-0.280424
H	 1.0378855438	 1.9056142237	 0.1646772581	 0.106424
H	-0.4916069242	 1.9800663846	-0.7275570094	 0.116305
H	-0.5091399057	 1.836403086	 1.0372320173	 0.136529
H	-1.0342790454	-0.3494138977	-0.0186960634	 0.121878
H	 1.7689874308	-0.1845673373	-1.2592911481	 0.110819
H	 0.6717110135	-1.5758078732	-1.348074918	 0.126899
H	 0.2496561234	-0.0475613297	-2.1497216435	 0.122533
H	 1.6260832782	-0.6063840159	 1.2204998968	 0.245188
H	-0.3217253245	-1.0825067923	 5.3578262323	 0.297946
55.6793	73.8879	141.6436	228.1538	258.4894	308.6221	323.9801	381.443	437.9616	483.9681	525.6353	534.4118	716.947	783.0506	792.5875	855.4021	931.5505	951.0551	985.0395	1020.3517	1077.9732	1147.5569	1163.6099	1168.7856	1183.5942	1199.4762	1264.6493	1326.0505	1359.1991	1387.3811	1398.9139	1419.7151	1461.643	1485.036	1487.4439	1502.5804	1508.3774	1517.4813	1625.1332	3027.4827	3031.651	3068.5868	3095.4389	3106.3105	3121.4359	3124.9566	3602.8392	3659.4407
CC(C)NC1=NNN=N1	CC(C)Nc1n[nH]nn1	
InChI=1S/C4H9N5/c1-3(2)5-4-6-8-9-7-4/h3H,1-2H3,(H2,5,6,7,8,9)	InChI=1S/C4H9N5/c1-3(2)5-4-6-8-9-7-4/h3H,1-2H3,(H2,5,6,7,8,9)
