21
gdb 63034	3.42634	1.23362	1.15684	1.5165	83.57	-0.2208	0.08	0.3008	1187.219	0.180624	-387.036401	-387.027556	-387.026612	-387.069206	35.015	
C	-0.0154604942	 1.5504702201	 0.0370578068	-0.46109
C	 0.0406908962	 0.0374405495	 0.0592004525	 0.292678
C	-1.1594140622	-0.6556560167	-0.5633476753	-0.456915
C	 1.3355360852	-0.7040913404	-0.1247987059	 0.042562
O	 2.4600261649	 0.0169084328	 0.3978591234	-0.314947
C	 1.9020561619	-0.0863122403	 1.7210182183	 0.46036
C	 2.7554825693	-0.4725067569	 2.8819088806	-0.347742
C	 2.1685654373	 0.9314531205	 2.7779537107	-0.332581
C	 0.6433004463	-0.748979635	 1.2240738544	-0.267882
H	 0.9277417519	 1.9882474674	 0.3664821135	 0.139755
H	-0.2144044531	 1.9076576225	-0.9801018272	 0.110352
H	-0.8178884153	 1.9247979012	 0.6828234515	 0.109393
H	-1.2983556447	-0.3353580195	-1.601943549	 0.118809
H	-1.0458598885	-1.7450429171	-0.559952511	 0.113613
H	-2.0772597877	-0.4162227144	-0.0144631321	 0.119538
H	 1.5334899573	-1.461979433	-0.8750832609	 0.098966
H	 2.3451202904	-1.1544106045	 3.6199701193	 0.114048
H	 3.8181056718	-0.5845442695	 2.6964754514	 0.125477
H	 2.8535829045	 1.7341910068	 2.5266479815	 0.12495
H	 1.3632319405	 1.2140252007	 3.4476533742	 0.117175
H	 0.1236395481	-1.5578299343	 1.721998263	 0.093482
122.7876	175.0284	191.1422	207.4611	238.865	299.6122	326.669	353.275	388.324	485.1104	542.3296	605.526	691.7065	754.6785	814.4785	831.7326	877.8661	899.1477	907.5192	954.4669	965.8194	973.9238	985.9005	1033.3945	1041.2911	1048.4532	1049.8328	1068.9859	1076.4117	1157.2818	1186.2718	1193.1714	1195.9515	1269.0805	1297.8367	1391.3743	1400.9759	1407.475	1424.3281	1446.9565	1483.8439	1488.8233	1501.4904	1504.6457	1510.6219	3022.9639	3030.1664	3082.8594	3087.5923	3094.8003	3127.6559	3131.4624	3140.5738	3167.4565	3189.7653	3211.7195	3225.779
CC1(C)C2OC3(CC3)C12	CC1(C)[C@H]2OC3(CC3)[C@@H]12	
InChI=1S/C8H12O/c1-7(2)5-6(7)9-8(5)3-4-8/h5-6H,3-4H2,1-2H3	InChI=1S/C8H12O/c1-7(2)5-6(7)9-8(5)3-4-8/h5-6H,3-4H2,1-2H3/t5-,6+/m1/s1
