17
gdb 98166	2.58045	1.15384	1.0494	5.1739	70.49	-0.2594	0.0015	0.2609	1235.8178	0.133548	-455.185914	-455.175621	-455.174677	-455.221481	35.96	
C	 0.0359655809	 1.4638518173	 0.1345186656	-0.33505
N	-0.0970684322	 0.0225442299	 0.2265543199	-0.317826
C	-1.2276536541	-0.6272154414	-0.1275147926	 0.373085
O	-2.25191959	-0.1126079498	-0.5309194208	-0.376532
C	-1.1113348881	-2.1809401282	-0.0300587901	 0.12729
C	-1.0493418242	-2.7446338421	-1.4566051034	-0.393827
O	 0.0721626015	-2.6065955065	 0.6458429769	-0.45589
C	-2.2984315452	-2.6917841128	 0.680541497	 0.26025
N	-3.1779281159	-3.1256285138	 1.2911783917	-0.329867
H	 0.8068748224	 1.7453360724	-0.5908975177	 0.133444
H	-0.9248036567	 1.8624974459	-0.1934497125	 0.175022
H	 0.2928632065	 1.8973237175	 1.1064796831	 0.133548
H	 0.6859508485	-0.5496402412	 0.5021273968	 0.259262
H	-0.1256598023	-2.4007256735	-1.9293763335	 0.135709
H	-1.0503984792	-3.8357664173	-1.4279932958	 0.144385
H	-1.9044510388	-2.3860462705	-2.0308715281	 0.164579
H	-0.0940663232	-2.593696716	 1.5956798636	 0.30242
48.148	94.7617	123.0744	162.4875	186.929	226.0169	248.553	275.9984	321.961	341.0052	372.7437	447.2155	474.1962	579.1537	634.6532	646.2718	767.1552	802.2278	896.294	957.1813	1043.989	1071.6227	1153.941	1158.6641	1183.4242	1194.3225	1252.5526	1353.0819	1399.5497	1444.0659	1485.6419	1487.0691	1494.6173	1499.9007	1564.8145	1794.3944	2358.655	3034.5609	3059.4165	3090.3526	3139.9677	3154.5489	3161.5942	3629.5685	3804.4653
CNC(=O)C(C)(O)C#N	CNC(=O)[C@@](C)(O)C#N	
InChI=1S/C5H8N2O2/c1-5(9,3-6)4(8)7-2/h9H,1-2H3,(H,7,8)	InChI=1S/C5H8N2O2/c1-5(9,3-6)4(8)7-2/h9H,1-2H3,(H,7,8)/t5-/m0/s1
