20
gdb 113656	3.61893	0.81895	0.75258	3.9318	77.02	-0.2451	-0.0216	0.2235	1584.1582	0.169186	-440.27217	-440.261969	-440.261025	-440.308657	36.006	
C	 0.0872050836	 1.7152998554	 0.3120317458	-0.379682
C	-0.1468094641	 0.2219214251	 0.5171663375	-0.287414
C	-1.0946399783	-0.3926404483	-0.5037740813	 0.404735
O	-1.6487547129	 0.2686504398	-1.3522354569	-0.308812
C	-1.2737493139	-1.8840010644	-0.3835521547	-0.149239
N	-2.5112653694	-2.4769650612	-0.9252459336	-0.322338
C	-1.2430991988	-2.8129208857	-1.5676039921	-0.025744
C	-1.1077316421	-2.3588274303	-3.0038283873	-0.084931
O	-1.8778960868	-3.1973213945	-3.8537320563	-0.42281
H	 0.7577785219	 2.1113278886	 1.079579925	 0.11028
H	 0.5296567765	 1.9097142269	-0.6684119623	 0.13147
H	-0.8560738451	 2.2650539964	 0.3557211829	 0.135845
H	 0.7965207412	-0.3420367772	 0.4841501066	 0.122754
H	-0.5606357536	 0.0174423563	 1.5156411103	 0.124307
H	-0.879525198	-2.3052353364	 0.5394801321	 0.087864
H	-2.8215881237	-3.227294355	-0.3137097085	 0.239906
H	-0.8278305059	-3.8006409241	-1.369587996	 0.096655
H	-1.4041937172	-1.3088492975	-3.0905465573	 0.132446
H	-0.0681719458	-2.4592238525	-3.3334049159	 0.104022
H	-2.7985907173	-3.0556912913	-3.606054128	 0.290686
36.6487	67.9445	77.5634	131.8229	185.006	208.7165	234.7113	307.7516	360.095	382.8754	421.4994	501.7142	586.7915	656.2684	783.7904	814.1548	836.8396	891.575	922.7357	971.0244	1002.7081	1006.6271	1038.6405	1065.099	1090.4182	1116.7884	1134.7724	1177.1996	1201.4462	1249.9507	1273.3311	1276.2174	1359.6877	1372.4624	1408.402	1414.2928	1436.4937	1450.0289	1470.7333	1492.3404	1497.614	1502.6756	1805.8033	3008.5158	3034.5507	3047.6626	3052.4272	3094.9178	3115.1775	3123.2402	3126.2804	3129.2959	3506.2206	3802.4425
CCC(=O)C1NC1CO	CCC(=O)[C@H]1N[C@H]1CO	
InChI=1S/C6H11NO2/c1-2-5(9)6-4(3-8)7-6/h4,6-8H,2-3H2,1H3	InChI=1S/C6H11NO2/c1-2-5(9)6-4(3-8)7-6/h4,6-8H,2-3H2,1H3/t4-,6-/m0/s1
