15
gdb 28729	5.66493	0.84338	0.75879	4.3296	71.57	-0.1958	-0.0027	0.1931	1421.0129	0.11287	-453.989498	-453.980948	-453.980004	-454.023369	30.65	
N	-0.1720799443	 1.5060475495	 0.0868474322	-0.609542
C	-0.0758483983	 0.1034422131	 0.0052496673	 0.286141
C	-0.9056621291	-0.8707892177	-0.4983228975	-0.199077
C	-0.2372810885	-2.129359414	-0.3633002777	-0.256312
C	 0.9717885209	-1.8639066007	 0.2203939983	 0.355899
N	 1.0779327109	-0.5136101393	 0.4387871589	-0.322281
O	 1.9984737105	-2.6766322351	 0.626027632	-0.219307
C	 2.5781750646	-3.4704705598	-0.3247101161	 0.153776
O	 3.4146645807	-4.2709626314	-0.0505012923	-0.257211
H	-0.8973089338	 1.8489883976	-0.5309044191	 0.250081
H	-0.3899058733	 1.826547852	 1.0265028858	 0.24709
H	-1.8947288259	-0.709804688	-0.8986286559	 0.09204
H	-0.6168350639	-3.1046458415	-0.6230614087	 0.108131
H	 1.8979003776	-0.0405001689	 0.778749415	 0.270398
H	 2.165943222	-3.2695130258	-1.3289839721	 0.100176
55.9166	118.1389	130.4788	160.9542	251.6909	307.5533	396.4147	440.9059	461.3398	508.4675	634.4127	666.5242	686.4842	761.971	804.2945	819.2377	825.6854	1005.306	1025.6001	1044.5783	1059.4842	1114.4069	1154.3186	1221.0663	1271.4265	1298.6075	1399.0175	1459.9914	1462.1567	1563.914	1629.8012	1658.9018	1876.1432	2993.7911	3247.3266	3263.6275	3488.8005	3597.8206	3677.4874
NC1=CC=C(N1)OC=O	Nc1ccc([nH]1)OC=O	
InChI=1S/C5H6N2O2/c6-4-1-2-5(7-4)9-3-8/h1-3,7H,6H2	InChI=1S/C5H6N2O2/c6-4-1-2-5(7-4)9-3-8/h1-3,7H,6H2
