14
gdb 125391	3.31459	1.66941	1.11793	3.063	70.13	-0.2321	-0.028	0.204	1011.8262	0.10262	-436.678887	-436.672063	-436.671119	-436.710218	25.89	
C	-0.0145758303	 1.5276515915	 0.0372064747	-0.503685
C	-0.0069275483	 0.0327694405	 0.032189603	 0.045424
C	-0.0370260742	-0.8020303432	-1.0542607797	-0.075799
O	-0.019771458	-2.1400810752	-0.7342368	-0.203315
C	 0.0233682163	-2.1563250896	 0.620373118	 0.214772
C	 0.0326875502	-0.8892087121	 1.1259648696	 0.299213
O	 0.0753100362	-0.9226654053	 2.4633402119	-0.236195
N	 0.0945703543	-2.2867339829	 2.8467899738	-0.140043
C	 0.0634912984	-3.0071796419	 1.7409298973	-0.116227
H	 0.8814327288	 1.9278114681	 0.5234066933	 0.144646
H	-0.0507386041	 1.920545052	-0.9819764681	 0.132354
H	-0.8802093606	 1.9185489443	 0.5823679674	 0.144646
H	-0.0717685792	-0.5875270855	-2.110769309	 0.147687
H	 0.0718207604	-4.0834933507	 1.8233858479	 0.146523
135.9897	175.5252	228.3193	266.1241	394.4333	515.5231	599.169	602.7656	615.438	678.3411	748.299	768.9011	798.0434	849.9358	887.7885	959.2121	1013.1685	1066.0369	1096.0283	1125.6866	1199.4267	1238.7107	1293.751	1417.2166	1424.3099	1439.2876	1480.3117	1494.0454	1531.5354	1586.304	1638.0951	3037.6282	3092.2558	3120.6751	3257.1955	3269.4339
CC1=COC2=C1ON=C2	Cc1coc2c1onc2	
InChI=1S/C6H5NO2/c1-4-3-8-5-2-7-9-6(4)5/h2-3H,1H3	InChI=1S/C6H5NO2/c1-4-3-8-5-2-7-9-6(4)5/h2-3H,1H3
