20
gdb 80238	2.59967	1.42848	1.24324	2.3219	79.47	-0.2143	-0.0079	0.2064	1119.146	0.171336	-403.128216	-403.119579	-403.118635	-403.162194	32.785	
C	-0.2357763046	 1.5267021194	-0.3572296398	-0.447392
C	-0.0946962413	 0.0149812033	-0.2990088783	 0.075404
C	 0.6816586485	-0.8042804565	-1.3836271852	-0.176031
C	 1.9342903264	-0.6171408537	-0.4651583541	 0.075732
C	 2.8905038081	 0.5534062379	-0.6255080206	-0.447699
N	 0.9248971734	-0.5632569081	 0.6840584442	-0.151031
C	 0.4792567714	-1.9872570031	 0.6540880787	-0.296026
C	 0.2889558051	-2.1950828273	-0.8803331539	 0.413224
O	-0.0642183176	-3.1722234356	-1.4791200769	-0.329382
H	 0.6695311391	 2.0651587328	-0.6277544237	 0.128991
H	-1.0097350342	 1.7871290327	-1.0871344163	 0.124042
H	-0.5627399625	 1.8899308313	 0.6226753154	 0.133654
H	-1.097747294	-0.3772063887	-0.0908101706	 0.084818
H	 0.6482549406	-0.6323393224	-2.4584194077	 0.080188
H	 2.5591777562	-1.5148788453	-0.384263865	 0.084867
H	 3.4557704847	 0.6833872785	 0.3031976701	 0.134392
H	 3.6039048306	 0.3240214227	-1.4241874559	 0.124065
H	 2.4196116994	 1.5027644429	-0.8705640258	 0.128534
H	 1.2374536933	-2.6557345077	 1.0705536718	 0.129828
H	-0.4519264025	-2.1294045731	 1.2089188835	 0.129821
27.6748	131.3576	160.5639	248.8803	264.1087	292.0381	331.2324	456.9649	457.9546	545.5941	604.8687	619.5975	762.383	782.3398	788.2083	815.5958	845.5545	939.1675	989.0113	1001.8693	1033.6911	1045.1595	1064.7794	1091.1617	1126.0565	1131.1172	1163.5458	1198.3973	1215.9429	1225.0481	1245.2649	1265.2169	1302.6184	1401.3686	1419.1006	1427.5758	1450.6339	1480.6242	1481.2873	1484.5183	1503.1411	1512.3817	1876.2422	3018.0554	3021.685	3045.4556	3048.6591	3066.8149	3103.2802	3104.2155	3116.7961	3131.4758	3155.8544	3185.4826
CC1C2C(C)N1CC2=O	C[C@H]1[C@H]2[C@@H](C)N1CC2=O	
InChI=1S/C7H11NO/c1-4-7-5(2)8(4)3-6(7)9/h4-5,7H,3H2,1-2H3	InChI=1S/C7H11NO/c1-4-7-5(2)8(4)3-6(7)9/h4-5,7H,3H2,1-2H3/t4-,5+,7-
