20
gdb 22262	2.62449	1.17908	1.08024	1.1381	78.2	-0.2433	0.0102	0.2536	1242.4275	0.16801	-440.235226	-440.225181	-440.224237	-440.270666	36.43	
C	-0.4012099804	 1.3928312474	-0.0756315449	-0.4847
C	-0.0390068089	-0.0658238568	-0.0162139388	 0.330817
N	 0.1199521124	-0.7358952856	 1.0584806586	-0.187079
O	-0.0532378735	 0.058278054	 2.2035359326	-0.395977
C	 0.1668913691	-0.8040957311	-1.3259162047	 0.348463
C	 1.4466167031	-0.3468880383	-2.0173092133	-0.444898
C	-0.0996014276	-2.3283641903	-1.2982175058	-0.328592
C	-1.3637545931	-1.9855414345	-2.1062521724	-0.06727
O	-0.9944230403	-0.5904545663	-2.1859027991	-0.323511
H	 0.4673356558	 2.0181520274	 0.1606383925	 0.139515
H	-0.7717222173	 1.6537011222	-1.0677208688	 0.144353
H	-1.1663131404	 1.6187774843	 0.6707492911	 0.147784
H	 0.056382123	-0.5839390862	 2.9126723028	 0.304923
H	 2.318767674	-0.6024450719	-1.4066531857	 0.127454
H	 1.5396394389	-0.8341612131	-2.9918684975	 0.120677
H	 1.4412414949	 0.7357669974	-2.1767400815	 0.126304
H	 0.6439210177	-2.9117501399	-1.8439014655	 0.104193
H	-0.2496309178	-2.7523354626	-0.3078237026	 0.130375
H	-1.44770803	-2.4381106489	-3.1005998159	 0.102692
H	-2.3116185894	-2.124615947	-1.5718340812	 0.104477
53.2476	71.8226	94.1756	180.8988	203.7127	230.941	293.1073	320.8953	351.3452	365.9499	427.4056	482.0191	523.9852	595.5913	714.2305	777.2492	840.0495	875.7807	907.6215	964.4281	977.4792	990.3821	1017.0105	1031.0253	1047.3027	1126.6122	1153.5526	1171.4996	1206.2507	1219.8447	1268.2086	1309.4463	1351.2171	1393.6686	1398.8424	1399.7813	1474.2671	1477.5645	1486.6878	1491.2473	1496.3319	1529.9749	1728.024	3019.7828	3036.6196	3043.7718	3061.9948	3091.008	3108.9994	3112.0604	3117.2654	3150.6724	3165.245	3819.5749
CC(=NO)C1(C)CCO1	CC(=NO)[C@@]1(C)CCO1	
InChI=1S/C6H11NO2/c1-5(7-8)6(2)3-4-9-6/h8H,3-4H2,1-2H3	InChI=1S/C6H11NO2/c1-5(7-8)6(2)3-4-9-6/h8H,3-4H2,1-2H3/t6-/m1/s1
