19
gdb 106851	2.56484	1.3123	1.00692	1.8492	84.	-0.2374	0.0219	0.2592	1248.0171	0.15677	-385.831133	-385.821955	-385.821011	-385.865091	34.657	
C	 0.2728550712	 1.4471657198	 0.2330748208	-0.380136
C	-0.2159322624	 0.0296667403	-0.0992224949	-0.292805
C	 0.4017198961	-0.50792332	-1.3515090841	 0.330004
C	 0.0987820346	-0.1498153165	-2.8194761042	-0.287491
C	 0.545501328	-1.5945628104	-3.2272254692	-0.308224
C	 0.8264064982	-1.8824403236	-1.7407176357	 0.209075
O	 1.782191122	-0.8887739364	-1.3106328621	-0.321925
C	 0.7662727199	-3.1245072533	-1.0507962433	 0.198392
C	 0.6894891515	-4.1917611196	-0.5007785113	-0.385748
H	 1.3587340077	 1.4584453346	 0.3637167257	 0.136948
H	 0.0217390658	 2.1535483858	-0.5650692455	 0.118867
H	-0.1868834594	 1.8093496374	 1.1569849018	 0.116227
H	 0.0249631713	-0.6542283337	 0.7217208124	 0.119669
H	-1.3068773461	 0.0250000053	-0.2134781099	 0.104019
H	-0.9622544932	 0.0296792554	-3.0089372469	 0.107719
H	 0.687734581	 0.6780144899	-3.2202636415	 0.112814
H	-0.2730685637	-2.1944861201	-3.6292862502	 0.117094
H	 1.4201342894	-1.6795689725	-3.8752216974	 0.115062
H	 0.6315085182	-5.1304155922	-0.0075467345	 0.190437
71.4544	101.4474	158.5524	182.8951	213.1501	270.6509	332.6306	380.0565	456.948	538.5166	558.7708	597.3923	613.67	668.638	693.2542	725.1053	773.9529	788.3038	891.6553	936.9972	948.2178	975.4595	1023.6224	1078.6029	1084.4678	1142.5851	1184.2404	1204.3881	1217.8391	1225.6832	1286.7543	1316.2828	1353.9875	1409.0054	1447.736	1465.0731	1473.8098	1494.6092	1499.1851	1510.4864	2237.0179	3033.0045	3040.0173	3066.3641	3076.1392	3076.6155	3109.3156	3119.3144	3119.9333	3138.5101	3501.761
CCC12CCC1(O2)C#C	CC[C@]12CC[C@]1(O2)C#C	
InChI=1S/C8H10O/c1-3-7-5-6-8(7,4-2)9-7/h1H,4-6H2,2H3	InChI=1S/C8H10O/c1-3-7-5-6-8(7,4-2)9-7/h1H,4-6H2,2H3/t7-,8+/m1/s1
