15
gdb 129908	3.22427	1.32109	1.03957	5.268	73.05	-0.2195	0.0086	0.2281	1116.1529	0.113152	-412.942623	-412.934359	-412.933415	-412.97575	30.51	
N	 0.2419832221	 1.3400522438	-0.2952377108	-0.611449
C	 0.0311379596	-0.0195484746	-0.1111528656	 0.330903
C	-1.0950854502	-0.7947377847	 0.0810480001	-0.135196
N	-0.7042454338	-2.0800089705	 0.3053443072	-0.183581
N	 0.5865570483	-2.1611566667	 0.2584289792	-0.159601
N	 1.0565384827	-0.8992787201	 0.0133810492	 0.011332
C	 2.4849989403	-0.651600094	-0.0469011456	-0.294861
C	 2.9154005151	-0.0799345802	-1.3222479006	 0.297102
C	 3.253636855	 0.4216742876	-2.3604244559	-0.444446
H	 0.9423331459	 1.5494312926	-0.9983324529	 0.261982
H	-0.6144732946	 1.840475163	-0.4886130959	 0.260259
H	-2.1329079566	-0.5041515142	 0.0681655332	 0.111779
H	 2.7761936028	 0.0163506663	 0.7735477141	 0.161603
H	 2.9597081918	-1.6212679914	 0.1275438155	 0.179136
H	 3.5703131815	 0.8371209531	-3.2857796112	 0.215038
63.9476	104.2986	213.49	254.7178	286.6286	311.5622	329.7773	427.8556	474.9383	635.5375	655.8449	682.5492	709.0328	714.469	751.4292	789.9085	799.2473	943.7267	954.7528	992.1678	1099.3683	1108.512	1169.8848	1268.121	1301.1852	1322.0924	1367.2088	1381.6246	1458.3071	1523.3021	1612.613	1662.1552	2240.2457	3032.7448	3100.9354	3268.3423	3500.222	3522.9438	3632.3179
NC1=CN=NN1CC#C	Nc1cnnn1CC#C	
InChI=1S/C5H6N4/c1-2-3-9-5(6)4-7-8-9/h1,4H,3,6H2	InChI=1S/C5H6N4/c1-2-3-9-5(6)4-7-8-9/h1,4H,3,6H2
