15
gdb 31375	2.97819	1.44361	0.97831	2.8428	71.91	-0.2346	-0.0228	0.2119	1145.5898	0.114113	-453.977558	-453.969798	-453.968853	-454.010163	28.363	
C	 0.0493496746	 1.3771325297	 0.0071509549	-0.230488
O	-0.0435343974	-0.054030986	 0.0039067372	-0.238022
C	-1.2678436037	-0.5574967491	 0.0113038504	 0.514103
N	-2.3337186406	 0.1415469667	 0.0207088401	-0.450989
C	-3.5843408566	-0.5142985402	 0.0274995174	 0.330134
N	-4.7020943432	 0.1045590386	 0.0371673074	-0.529264
C	-3.5319345228	-1.976017002	 0.02285981	-0.156969
C	-2.3514644787	-2.5928125461	 0.0127789976	 0.040188
O	-1.1615080163	-1.9075104391	 0.0065064514	-0.211382
H	 1.1171477662	 1.5937792376	-0.0001574351	 0.141635
H	-0.4377653219	 1.7938233333	-0.8772720165	 0.148998
H	-0.4245798015	 1.7889105173	 0.9009936207	 0.148985
H	-4.5221733713	 1.1111078301	 0.038864055	 0.21412
H	-4.4553159364	-2.5386209814	 0.0276625552	 0.131203
H	-2.1809172803	-3.6603950192	 0.0084324143	 0.147748
105.9858	145.0181	158.3502	217.1121	235.2185	396.651	431.3298	504.2062	533.7286	607.7901	708.0669	762.6482	764.3923	840.4322	917.8371	932.2607	963.2922	967.4893	1031.2019	1083.1767	1157.7103	1183.8929	1223.4403	1249.5808	1323.5766	1377.6507	1428.9336	1479.2919	1479.7185	1498.4276	1644.3149	1712.231	1729.1609	3057.4938	3136.5085	3166.6354	3229.6145	3248.9407	3456.5498
COC1=NC(=N)C=CO1	COC1=NC(=CCO1)[NH]	
InChI=1S/C5H6N2O2/c1-8-5-7-4(6)2-3-9-5/h2-3,6H,1H3	InChI=1S/C5H7N2O2/c1-8-5-7-4(6)2-3-9-5/h2,6H,3H2,1H3
