20
gdb 57098	2.39231	1.39197	1.14686	3.684	78.26	-0.2604	0.0366	0.2969	1175.0544	0.171846	-403.17913	-403.170047	-403.169103	-403.213446	33.154	
C	-0.2170131668	 1.5071712451	 0.0583185658	-0.394359
C	-0.0163017074	-0.0185521595	-0.0008775348	-0.15844
C	-1.3070905792	-0.7165396694	 0.0151441223	 0.290707
N	-2.3185492278	-1.2760692068	 0.0309257477	-0.341137
C	 0.8200686695	-0.4405969984	-1.2318524053	 0.13906
C	 1.0100933958	-1.9686228769	-1.4086070779	-0.270123
C	 0.1388145089	-2.3011801597	-2.6338485415	-0.220078
C	 0.1723899645	-0.98130931	-3.4047261377	-0.067404
O	 0.1690360121	 0.0350142602	-2.4049838	-0.266087
H	 0.7565064173	 2.0024654343	 0.1196945064	 0.121725
H	-0.7265963527	 1.8534536249	-0.842264148	 0.157949
H	-0.8069366471	 1.7915889205	 0.932682687	 0.131933
H	 0.5345075364	-0.3426251328	 0.8918291835	 0.122334
H	 1.7943280026	 0.0604760014	-1.1291523272	 0.077052
H	 2.0622373048	-2.1917759308	-1.6073244945	 0.107445
H	 0.7156508741	-2.5296659558	-0.5185375669	 0.119321
H	 0.5225362139	-3.1438377597	-3.2135697246	 0.102895
H	-0.8846402368	-2.5283009243	-2.3251769079	 0.139236
H	 1.0801720237	-0.9050029527	-4.0243083011	 0.090697
H	-0.6972800058	-0.8173221796	-4.0462139552	 0.117275
66.8653	75.5603	143.7731	190.8797	215.3903	243.8485	256.5819	371.9912	395.6208	574.2264	594.314	658.2669	707.998	751.3115	846.842	890.9274	910.5919	935.1947	950.3263	978.7985	1035.7378	1050.5936	1078.254	1106.5178	1122.4093	1157.9423	1201.1771	1206.5502	1263.4796	1295.9904	1319.1743	1323.6169	1326.729	1353.4343	1382.7393	1400.0982	1411.3672	1487.1458	1490.4332	1499.5486	1502.9471	1523.4078	2353.9412	2977.0938	2984.2514	3031.482	3052.3082	3061.6499	3071.1915	3095.1166	3106.0448	3124.2954	3125.7723	3149.739
CC(C#N)C1CCCO1	C[C@@H](C#N)[C@H]1CCCO1	
InChI=1S/C7H11NO/c1-6(5-8)7-3-2-4-9-7/h6-7H,2-4H2,1H3	InChI=1S/C7H11NO/c1-6(5-8)7-3-2-4-9-7/h6-7H,2-4H2,1H3/t6-,7+/m0/s1
