23
gdb 118103	2.24074	1.11676	0.94162	1.8021	82.33	-0.2557	0.0678	0.3236	1411.1928	0.202977	-425.399099	-425.388218	-425.387273	-425.435469	39.506	
C	 0.9218567552	 1.139294572	-0.0766939501	-0.223481
O	 0.9894536854	-0.2322917036	-0.3838922136	-0.229156
C	-0.1060082533	-0.6767819625	-1.1497751816	-0.079462
C	 0.0073614311	-2.1860332165	-1.3926931341	 0.008277
O	-1.1478254398	-2.6180619859	-2.1092140797	-0.436248
C	 1.3074262166	-2.6199106487	-2.0564001919	 0.397794
C	 1.6410383569	-1.9595436379	-3.3813428157	-0.490423
C	 2.4509080477	-2.9896879364	-1.1445885067	-0.28754
C	 1.6879864552	-4.0705506276	-1.8683926922	-0.316958
H	 0.9134388308	 1.7618561789	-0.9857545643	 0.10231
H	 0.0225662332	 1.3825947142	 0.5111366378	 0.104945
H	 1.8076221608	 1.3881452965	 0.5129013026	 0.126811
H	-1.0588905824	-0.4778527442	-0.6339862382	 0.095284
H	-0.1466620618	-0.1417570147	-2.1162143011	 0.072974
H	-0.0636513788	-2.6891660625	-0.4219584896	 0.088405
H	-1.0956841543	-2.2575604714	-3.0007709681	 0.279261
H	 1.8190292134	-0.885325327	-3.2640643048	 0.126205
H	 2.5463053483	-2.3970755073	-3.8124832408	 0.118675
H	 0.8425174127	-2.0932916949	-4.1231176933	 0.100656
H	 3.4565276141	-2.757696622	-1.4792243727	 0.10463
H	 2.3056470939	-2.8766971085	-0.0764480732	 0.117208
H	 1.0159612777	-4.7016950372	-1.2968242523	 0.115424
H	 2.1759785377	-4.5784899831	-2.6936149464	 0.104409
39.5677	83.6022	98.7416	159.0202	220.6071	225.6551	245.9664	262.3592	278.9392	314.6837	326.0469	393.407	422.3077	529.3528	564.5159	707.1724	778.1595	872.7103	885.2619	943.7045	955.3781	997.1887	1008.7351	1046.05	1060.9209	1072.9752	1085.5668	1098.1329	1128.2429	1167.032	1182.048	1184.9498	1220.9406	1240.8296	1253.5698	1310.7235	1337.9579	1377.371	1415.7632	1418.2015	1429.8248	1472.5057	1479.6754	1484.7588	1495.4331	1496.3956	1504.9534	1510.23	1527.8257	2938.4835	2968.8847	2992.3093	3012.2117	3015.8218	3053.413	3077.4571	3103.0515	3113.2078	3129.009	3136.5429	3207.7384	3223.1909	3809.3816
COCC(O)C1(C)CC1	COC[C@@H](O)C1(C)CC1	
InChI=1S/C7H14O2/c1-7(3-4-7)6(8)5-9-2/h6,8H,3-5H2,1-2H3	InChI=1S/C7H14O2/c1-7(3-4-7)6(8)5-9-2/h6,8H,3-5H2,1-2H3/t6-/m1/s1
