15
gdb 11665	3.1407	1.94993	1.56095	4.3442	61.95	-0.2515	-0.0071	0.2443	845.5087	0.118758	-399.729573	-399.722347	-399.721403	-399.761222	26.88	
O	 0.0074157021	 1.419692438	-0.0499714573	-0.41198
C	 0.0372746898	 0.0074383175	-0.0294567653	-0.184057
C	-1.3548329598	-0.5499808827	-0.0878784189	 0.151085
C	-1.9193372974	-2.0010867382	 0.0642347947	-0.294591
C	-3.176083195	-1.07041089	 0.0530466374	-0.157036
N	-2.4151365924	-0.0623356715	 0.9157292336	-0.366299
C	-2.4868434874	-0.3668398293	-1.1322860177	 0.494347
O	-2.6869358749	 0.0215197049	-2.2341357348	-0.306842
H	-0.736956851	 1.6928516421	 0.5007478346	 0.297523
H	 0.6091804174	-0.322188274	-0.9039949062	 0.125399
H	 0.5546906884	-0.3781066275	 0.8661451362	 0.090863
H	-1.7755827963	-2.71981611	-0.7480482472	 0.121734
H	-1.7198652839	-2.4446232068	 1.044357671	 0.113771
H	-4.2183113542	-1.3209107692	 0.2365385098	 0.109006
H	-2.2165051551	-0.5255159634	 1.8097292402	 0.217078
89.274	149.8701	193.949	239.3205	376.5256	430.1773	471.1808	548.6577	685.9694	695.0567	775.1693	787.9918	815.0091	889.5118	947.0879	985.4405	1007.7988	1042.5828	1066.1899	1083.5155	1123.5383	1164.059	1197.3891	1211.0104	1271.155	1291.8897	1349.7749	1361.31	1444.5962	1496.219	1503.2045	1948.9732	2954.7384	3043.0192	3066.4912	3116.366	3153.949	3372.3704	3778.5884
OCC12CC(N1)C2=O	OC[C@@]12C[C@@H](N1)C2=O	
InChI=1S/C5H7NO2/c7-2-5-1-3(6-5)4(5)8/h3,6-7H,1-2H2	InChI=1S/C5H7NO2/c7-2-5-1-3(6-5)4(5)8/h3,6-7H,1-2H2/t3-,5-/m1/s1
