19
gdb 18790	3.37644	2.27584	2.00634	1.7666	73.12	-0.2185	0.0769	0.2954	790.8885	0.168058	-327.875544	-327.868954	-327.86801	-327.905878	26.83	
C	-0.2544955268	 1.5931403063	 0.0234378873	-0.424766
C	 0.0463858683	 0.1027388439	 0.014920245	 0.03722
C	 1.0562440824	-0.5201081735	-0.9767786614	-0.012324
C	 2.4350900825	 0.1648234323	-1.0635506411	-0.24733
C	 2.7924230531	-0.5494430975	 0.2526017601	 0.020715
C	 2.1970880202	 0.1021345365	 1.5140086963	-0.247331
C	 0.8604757344	-0.5716882884	 1.1434596757	-0.012317
N	 1.5686238387	-1.4713922709	 0.1171726272	-0.163669
H	 0.6526386729	 2.1973269198	 0.1215844562	 0.116932
H	-0.7545892475	 1.8967100084	-0.902959912	 0.118027
H	-0.9164802043	 1.8539413634	 0.8566388494	 0.11803
H	-0.892519249	-0.4541722607	-0.08531737	 0.082697
H	 0.6533855391	-0.9515029006	-1.8962207319	 0.067441
H	 3.0160259359	-0.2257687788	-1.9031627596	 0.108384
H	 2.4810049886	 1.257805584	-1.0885041076	 0.096301
H	 3.7811290348	-1.0063929866	 0.332781645	 0.069865
H	 2.6162978688	-0.3310526371	 2.4259343874	 0.108383
H	 2.2327822248	 1.1924291484	 1.5995938207	 0.096301
H	 0.2980896931	-1.045111159	 1.9517689434	 0.06744
183.7293	187.9031	226.1557	358.2458	391.4655	530.8176	613.3688	661.4935	718.7522	811.7771	820.6545	881.8164	901.5555	916.2393	935.3432	948.979	960.2082	976.9462	1037.3598	1038.3321	1078.0683	1115.7019	1127.2241	1141.1783	1167.5936	1189.11	1216.2384	1246.5087	1252.1125	1284.0997	1284.8097	1315.1233	1360.3161	1365.9501	1373.811	1410.6236	1473.9389	1484.0215	1498.0164	1500.5966	3029.2526	3033.7979	3047.6822	3048.8168	3069.9053	3074.1582	3078.7724	3092.356	3100.5563	3100.9371	3106.5697
CC1C2CC3CC1N23	C[C@H]1[C@H]2C[C@H]3C[C@@H]1N23	
InChI=1S/C7H11N/c1-4-6-2-5-3-7(4)8(5)6/h4-7H,2-3H2,1H3	InChI=1S/C7H11N/c1-4-6-2-5-3-7(4)8(5)6/h4-7H,2-3H2,1H3/t4-,5-,6+,7-
