16
gdb 52338	4.09048	0.74995	0.65816	2.8201	73.95	-0.2429	-0.0259	0.217	1607.7592	0.122452	-434.080847	-434.071109	-434.070165	-434.117021	32.804	
O	 1.2090858827	 0.1383316976	 0.4390550317	-0.238573
C	 0.9884321084	 1.2916377874	 0.1906647955	 0.184445
C	 1.0101206347	 1.859984386	-1.2281925343	-0.248861
N	 1.1021475206	 3.3045418633	-1.2391768083	-0.303953
C	 2.2251705502	 3.9311074287	-0.7898256586	 0.105904
N	 3.1550635844	 3.2758951345	-0.2123126568	-0.255323
C	 4.3194458351	 3.9620516312	 0.3078406734	-0.241567
C	 4.3753241318	 5.4181181072	 0.0817050261	 0.23375
N	 4.3629677924	 6.5553598302	-0.1259328639	-0.316315
H	 0.703836339	 2.0297288768	 0.9725172712	 0.087547
H	 1.8342469296	 1.3824973801	-1.7715669122	 0.148294
H	 0.0705843083	 1.5712123539	-1.7121308979	 0.137303
H	 0.485114411	 3.8272768902	-1.8356238475	 0.25988
H	 2.23087544	 5.0143034155	-0.9532445467	 0.127029
H	 4.3925823893	 3.7853357556	 1.3889566047	 0.160375
H	 5.2237970425	 3.5180616218	-0.1275312264	 0.160064
39.5996	48.3339	124.6019	144.1934	178.5661	201.6827	254.4945	312.7497	372.6136	373.0033	461.1707	513.9848	612.8958	698.4176	794.8578	898.8961	969.2267	1003.8333	1023.7849	1035.3139	1051.3309	1113.6126	1262.7497	1263.9126	1275.6108	1331.0331	1348.0039	1406.8724	1417.3769	1445.2028	1470.5501	1525.8367	1745.3365	1846.3709	2348.7552	2894.827	3025.2862	3036.1383	3047.8711	3069.9618	3089.0668	3672.2335
O=CCNC=NCC#N	O=CCNC=NCC#N	
InChI=1S/C5H7N3O/c6-1-2-7-5-8-3-4-9/h4-5H,2-3H2,(H,7,8)	InChI=1S/C5H7N3O/c6-1-2-7-5-8-3-4-9/h4-5H,2-3H2,(H,7,8)
