21
gdb 90722	4.12323	1.14906	1.04359	1.5559	83.34	-0.2363	0.0747	0.311	1239.2994	0.182476	-387.048696	-387.040357	-387.039412	-387.081707	32.754	
C	-0.3570843007	 1.2321698194	-0.2994552028	-0.404246
C	 0.3060511979	-0.1152714458	-0.0936303451	 0.159852
O	 1.6800807428	-0.1131387857	-0.5745125708	-0.309262
C	 2.1856164777	-0.4464738465	 0.7320332051	 0.024256
C	 0.7557398724	-0.4660985701	 1.3435431802	-0.084438
C	 0.8956352489	-1.9845939648	 1.6397295761	-0.348004
C	 2.2966903768	-1.9507170979	 0.9978743787	 0.379268
C	 2.9372950434	-2.9547889613	 0.089619239	-0.309714
C	 3.5273676711	-2.6824358175	 1.4524225604	-0.333823
H	 0.1920294507	 2.020502612	 0.2250647204	 0.119035
H	-0.3819974459	 1.4838316451	-1.3643513855	 0.126084
H	-1.3868382816	 1.2143930542	 0.0749734135	 0.11241
H	-0.2765470052	-0.9075782868	-0.5849306306	 0.072256
H	 3.0169468193	 0.1985000107	 1.0320519043	 0.068465
H	 0.4153323314	 0.1919962739	 2.1424204242	 0.072482
H	 0.9112677668	-2.2162357136	 2.7088378004	 0.102538
H	 0.1515073614	-2.6261473623	 1.1561653631	 0.097736
H	 2.4231812688	-3.8983993792	-0.0640249036	 0.11035
H	 3.4556693948	-2.5801730649	-0.7867120175	 0.123038
H	 4.4584063815	-2.1263647943	 1.5075477199	 0.112261
H	 3.4136379079	-3.4391472148	 2.2226885404	 0.109455
54.1065	155.574	214.6524	241.5088	262.2137	302.3989	352.2655	396.5906	528.6795	561.4756	755.4172	776.0651	784.3742	834.566	862.4786	870.1242	893.7412	904.3576	951.1718	975.3615	991.9876	1003.7653	1031.8722	1050.1515	1071.3249	1078.6601	1106.1972	1128.9908	1167.7805	1170.2454	1186.8335	1216.7066	1255.1265	1258.2178	1274.1478	1292.7852	1329.6046	1371.1046	1393.8589	1406.1046	1465.0865	1481.2243	1484.6981	1492.7775	1500.7173	2999.5044	3031.0469	3039.1884	3061.9163	3088.1524	3103.6361	3110.8218	3115.563	3119.0234	3127.6434	3198.4033	3215.6895
CC1OC2C1CC21CC1	C[C@H]1O[C@H]2[C@@H]1CC12CC1	
InChI=1S/C8H12O/c1-5-6-4-8(2-3-8)7(6)9-5/h5-7H,2-4H2,1H3	InChI=1S/C8H12O/c1-5-6-4-8(2-3-8)7(6)9-5/h5-7H,2-4H2,1H3/t5-,6-,7+/m1/s1
