19
gdb 51786	4.25164	0.96734	0.86418	4.4589	78.37	-0.2402	0.029	0.2692	1358.4084	0.161078	-419.188743	-419.180515	-419.179571	-419.22265	30.798	
N	-0.0848092285	 1.3003159199	 0.1118564965	-0.445796
C	-0.0479355826	 0.0408991798	 0.0285304045	 0.125917
O	-1.1869136004	-0.6734680768	 0.0263412051	-0.191013
C	-1.0690555777	-2.0970017867	 0.0354532273	 0.157917
C	-1.1204686314	-2.6938264928	 1.4596634451	-0.254538
C	-1.7057318737	-4.113000668	 1.2796450537	-0.214447
C	-2.5992056305	-3.981146079	 0.0545591485	-0.029775
N	-3.4649371928	-2.787410312	 0.1170144387	-0.324774
C	-2.2261229554	-2.7514253927	-0.688112404	-0.071669
H	 0.8606983125	 1.675602739	 0.0784063357	 0.225797
H	 0.8576546816	-0.5779527467	-0.0593468483	 0.078656
H	-0.1371874725	-2.3807431768	-0.4754282384	 0.078586
H	-0.1435366492	-2.6900495436	 1.9489187275	 0.095138
H	-1.8008037321	-2.0754371058	 2.0477301682	 0.145122
H	-0.9160946553	-4.8450488146	 1.0727480207	 0.100277
H	-2.2487086756	-4.4538533232	 2.1664496544	 0.110837
H	-2.9566570606	-4.8672946097	-0.4598887281	 0.087926
H	-4.2570523481	-2.9069247925	-0.5088806141	 0.235239
H	-2.2942946976	-2.6749137779	-1.7678649231	 0.090601
41.141	103.5933	103.9757	235.9404	297.0703	366.4613	402.2026	415.5421	616.6007	650.2864	695.933	807.7831	816.2303	833.6502	870.6143	900.3127	911.4854	942.109	985.9795	1010.167	1038.3019	1045.1041	1083.5324	1087.5332	1125.159	1137.8815	1167.2959	1208.0411	1232.6665	1254.7958	1295.8051	1307.5577	1328.3463	1348.1194	1360.9114	1400.3373	1428.2806	1431.8724	1481.2417	1494.7047	1744.5819	2992.6623	3006.1265	3038.8584	3076.4621	3085.2781	3132.2147	3161.6075	3174.7945	3510.6817	3517.1683
N=COC1CCC2NC12	[NH][CH]O[C@H]1CC[C@H]2N[C@@H]12	
InChI=1S/C6H10N2O/c7-3-9-5-2-1-4-6(5)8-4/h3-8H,1-2H2	InChI=1S/C6H10N2O/c7-3-9-5-2-1-4-6(5)8-4/h3-8H,1-2H2/t4-,5+,6-/m1/s1
