18
gdb 67965	2.29366	1.80778	1.29967	4.6464	71.51	-0.232	0.0224	0.2544	1024.6069	0.148498	-439.115869	-439.107879	-439.106935	-439.148277	30.897	
C	-0.0339702117	 1.5179267224	-0.0226428258	-0.464859
C	-0.0119099163	-0.0008906972	 0.0089591796	 0.323132
C	-1.3830885617	-0.6943609042	-0.0749907056	-0.265244
C	-1.1715686157	-1.9902861947	 0.7284957269	-0.098932
O	-0.2596928908	-1.6398653183	 1.7714905881	-0.246431
C	 0.666789121	-0.7434796162	 1.2196483927	-0.095229
C	 1.6589568897	-1.3296881181	 0.1550428102	 0.402571
O	 2.5830113159	-2.0964695918	 0.1498075901	-0.363835
N	 1.0278154234	-0.6180100403	-0.8379757081	-0.365279
H	 0.9719798437	 1.9238751042	 0.1188815886	 0.126804
H	-0.4150276308	 1.8892296888	-0.9807977585	 0.121388
H	-0.6826189257	 1.9111922628	 0.7661145643	 0.129199
H	-2.1386551277	-0.0679976234	 0.4097088136	 0.111809
H	-1.7017817423	-0.880930904	-1.1041173088	 0.105024
H	-2.0794335154	-2.3752071869	 1.1970960095	 0.117089
H	-0.7442100839	-2.7805395258	 0.0949839381	 0.112936
H	 1.1211376397	-0.1502337978	 2.0144460964	 0.104974
H	 1.1728303685	-0.6024906694	-1.8378651911	 0.244883
80.6245	181.8752	223.7325	257.2864	290.0627	339.8766	380.7921	413.3287	511.7442	598.2945	627.5159	651.7078	735.7643	812.1459	833.0532	902.5831	929.9193	950.9435	973.4041	986.7527	1031.3959	1118.2409	1126.1199	1145.1038	1173.1708	1211.3304	1222.6739	1254.4888	1274.894	1318.7978	1336.1223	1379.4501	1389.902	1414.4247	1476.2358	1488.691	1498.4797	1516.6089	1893.7615	3007.4296	3032.1421	3055.1823	3096.8729	3104.0335	3111.4569	3114.1622	3116.3699	3594.2145
CC12CCOC1C(=O)N2	C[C@]12CCO[C@H]1C(=O)N2	
InChI=1S/C6H9NO2/c1-6-2-3-9-4(6)5(8)7-6/h4H,2-3H2,1H3,(H,7,8)	InChI=1S/C6H9NO2/c1-6-2-3-9-4(6)5(8)7-6/h4H,2-3H2,1H3,(H,7,8)/t4-,6-/m0/s1
