20
gdb 102442	1.95698	1.37499	0.91265	3.3666	83.99	-0.2341	-0.0377	0.1965	1340.8459	0.17012	-399.348158	-399.337757	-399.336813	-399.384268	36.721	
C	-0.053895089	 1.6083974626	-0.112148322	-0.376626
C	-0.0375281387	 0.0825507165	 0.0230441574	-0.177731
N	-1.3687862358	-0.5170820687	 0.0375183016	-0.073671
C	-2.0365295376	-0.7680757268	-1.2400505745	-0.156685
C	-1.8204047698	-2.1927807732	-1.7584411214	-0.378582
C	-2.0228706288	-0.859917492	 1.1824707668	 0.308652
N	-3.1848898714	-1.4123999699	 1.1825735579	-0.543703
C	-1.3327114763	-0.5579675426	 2.4302091082	 0.219994
N	-0.8548694566	-0.3475190695	 3.4625935195	-0.342652
H	 0.9696314592	 1.993115178	-0.1600388831	 0.12477
H	-0.5762217696	 1.9246211456	-1.0203081625	 0.125696
H	-0.552291056	 2.0675239545	 0.7464434199	 0.135936
H	 0.5192915018	-0.3654951332	-0.8079545739	 0.115611
H	 0.4890783987	-0.2029233975	 0.9370388181	 0.146515
H	-3.1044518815	-0.5815637503	-1.1037006981	 0.145597
H	-1.6547719846	-0.0357655065	-1.9580295793	 0.105223
H	-0.756403101	-2.4107514859	-1.8965893584	 0.115468
H	-2.2385463834	-2.916975717	-1.055858906	 0.149153
H	-2.3200384434	-2.3204213202	-2.7238783691	 0.119382
H	-3.5107897461	-1.5736981638	 2.1312885589	 0.237655
60.6295	68.2116	86.3978	115.677	174.9076	226.0679	241.9335	306.7878	338.2255	345.8711	415.4282	454.3171	535.7213	598.2957	709.3365	720.5453	780.543	786.3943	791.4256	907.4683	947.8728	1015.9335	1089.1322	1099.5514	1118.4059	1125.8889	1221.684	1258.3486	1324.9021	1360.7724	1384.2566	1401.4293	1410.2622	1413.0272	1463.8622	1476.2905	1489.332	1493.5353	1493.8408	1505.5701	1507.2826	1660.8587	2341.4154	3039.9136	3041.0612	3042.7199	3056.765	3095.7371	3100.8384	3115.0346	3115.4272	3122.9775	3137.013	3539.0043
CCN(CC)C(=N)C#N	CCN(CC)C(=N)C#N	
InChI=1S/C6H11N3/c1-3-9(4-2)6(8)5-7/h8H,3-4H2,1-2H3	InChI=1S/C6H11N3/c1-3-9(4-2)6(8)5-7/h8H,3-4H2,1-2H3
