18
gdb 67693	2.35464	1.83846	1.4656	2.8844	75.81	-0.2272	-0.0079	0.2193	980.9339	0.14876	-401.941865	-401.93434	-401.933396	-401.973677	29.564	
C	 0.022431329	 1.4922478739	-0.0196361193	-0.512002
C	-0.0221760143	-0.0034194243	 0.0046240238	 0.325737
C	 0.5461860855	-1.0228919599	-0.9891543783	-0.228195
N	 1.0914310991	-0.8350329799	 0.3781360125	-0.129628
C	 0.6845917711	-1.8339461912	 1.3994137445	-0.167919
C	-0.8465565548	-1.6912078868	 1.5803326998	-0.235415
C	-1.2393161886	-0.9386027075	 0.3033853261	-0.218626
C	-0.7849184801	-1.7148425256	-0.9590481907	 0.429359
O	-1.3619899839	-2.4251784106	-1.7360571534	-0.33701
H	 1.011720381	 1.8367341701	-0.3309490847	 0.140913
H	-0.7238409865	 1.8950619547	-0.7114914941	 0.1319
H	-0.1836413375	 1.9043572588	 0.9746443275	 0.129981
H	 1.2239703097	-0.9080803316	-1.8282500235	 0.109697
H	 0.9770766498	-2.8324373602	 1.0631528006	 0.122629
H	 1.2333825976	-1.615739637	 2.3195083647	 0.115677
H	-1.3498157308	-2.6581896799	 1.6624481679	 0.121702
H	-1.0975738454	-1.1060526248	 2.4716477991	 0.107475
H	-2.2544429609	-0.5442202582	 0.2628485876	 0.093724
116.3214	192.6976	202.8069	225.7226	290.2445	425.7032	474.3348	551.2553	597.911	666.7115	692.8864	743.2393	788.4571	848.8108	857.0075	888.4779	920.9378	975.7635	991.9706	1011.6885	1046.753	1072.8393	1084.5945	1126.6252	1150.0745	1192.118	1207.9634	1229.767	1236.1791	1267.9322	1330.541	1340.7668	1399.4348	1431.3741	1483.4509	1489.923	1492.3745	1509.0114	1868.2988	3035.2149	3044.9482	3061.7529	3094.7837	3098.1017	3112.056	3124.7611	3127.5063	3175.9697
CC12C3N1CCC2C3=O	C[C@@]12[C@H]3N1CC[C@@H]2C3=O	
InChI=1S/C7H9NO/c1-7-4-2-3-8(7)6(7)5(4)9/h4,6H,2-3H2,1H3	InChI=1S/C7H9NO/c1-7-4-2-3-8(7)6(7)5(4)9/h4,6H,2-3H2,1H3/t4-,6+,7-,8?/m1/s1
