16
gdb 99839	2.05566	1.58492	1.13417	4.9417	66.85	-0.2534	0.0007	0.2542	1105.364	0.122314	-475.009371	-475.000015	-474.999071	-475.043603	34.491	
N	-0.0259266811	 0.798603283	 0.2404722818	-0.537087
H	 0.0850229349	-0.2006844717	 0.3692694312	 0.25133
H	 1.2474888147	 1.9312029912	 0.3072854249	 0.325207
H	-0.5825698267	 0.9542441374	-0.5944156789	 0.263895
C	-0.6957570662	 1.4103257081	 1.3975093531	-0.194818
C	-0.7083140708	 2.9437916599	 1.2439342506	-0.017735
O	-1.4386393071	 3.1882691289	 0.0325475173	-0.457956
C	-1.3786299388	 3.5360906847	 2.4029484063	 0.341651
C	-1.9600012721	 3.9790842044	 3.3558806796	-0.429496
C	 0.7033966268	 3.5995345095	 1.0497408455	 0.406738
O	 0.8702004618	 4.7657684969	 1.2936040298	-0.340516
O	 1.647368326	 2.8204704884	 0.5345877289	-0.383578
H	-1.7348172758	 1.0826478036	 1.5245209159	 0.128765
H	-0.1425337184	 1.1499670907	 2.3037674252	 0.137525
H	-1.4494951099	 4.1435686699	-0.1047319232	 0.302461
H	-2.4578030774	 4.3973308451	 4.1961099421	 0.203614
45.5959	139.4088	152.812	195.4358	244.1767	302.3258	320.054	370.2092	394.8933	412.2296	463.3001	504.0072	559.5712	634.3633	651.9885	682.6262	745.3171	781.7446	874.9367	932.861	1014.6103	1038.0587	1065.3597	1093.2896	1110.9657	1207.2394	1266.9313	1337.9835	1360.3782	1422.0152	1493.051	1525.1188	1634.6239	1848.5295	2240.2303	3029.3761	3085.2851	3104.7786	3499.6352	3512.1361	3597.568	3794.462
[NH3+]CC(O)(C#C)C([O-])=O	NC[C@@](O)(C#C)C(=O)O	
InChI=1S/C5H7NO3/c1-2-5(9,3-6)4(7)8/h1,9H,3,6H2,(H,7,8)	InChI=1S/C5H7NO3/c1-2-5(9,3-6)4(7)8/h1,9H,3,6H2,(H,7,8)/t5-/m0/s1
