23
gdb 81695	2.52051	1.54918	1.26194	0.1507	90.28	-0.2337	0.0372	0.2709	1138.0731	0.208586	-351.166169	-351.158076	-351.157132	-351.198165	33.266	
C	-0.4004071519	 1.2703604444	-0.0603341639	-0.414247
C	 0.0638294055	-0.180358264	 0.0157339037	 0.028956
C	 1.3175944671	-0.5031751823	-0.8555229741	-0.002468
C	 2.2015952256	-0.3494202175	 0.4136471127	-0.239371
C	 0.9196043818	-0.518773362	 1.2760319325	-0.00247
C	 0.7133006861	-1.9365737738	 1.802150113	-0.269954
C	 0.8265644676	-3.0711585322	 0.8163551112	-0.046158
C	 1.071701335	-3.0615503791	-0.4965418428	-0.046158
C	 1.3187748691	-1.9128396789	-1.4406400418	-0.269954
H	 0.4303450554	 1.9674493753	 0.0999052091	 0.111816
H	-0.8357992762	 1.4958021637	-1.0403965821	 0.109976
H	-1.1607374631	 1.4830625816	 0.6996444997	 0.109976
H	-0.7893151481	-0.8482126608	-0.148444841	 0.064019
H	 1.5162077778	 0.215107686	-1.6580989164	 0.055104
H	 2.9970047977	-1.0861926252	 0.5567704573	 0.094774
H	 2.6344386103	 0.6502003673	 0.5017791344	 0.092915
H	 0.8133464776	 0.1875545526	 2.1062821412	 0.055104
H	 1.4299514836	-2.1230315319	 2.6170544523	 0.102455
H	-0.2772563243	-1.9994030766	 2.2795057275	 0.102645
H	 0.679600085	-4.0490683664	 1.274221108	 0.07897
H	 1.1024325721	-4.0324953518	-0.9903725655	 0.07897
H	 0.5673631464	-1.9662939948	-2.2440964801	 0.102645
H	 2.2816776301	-2.0896412537	-1.9446073248	 0.102455
136.2554	212.5189	229.7964	247.1182	317.5109	335.2093	377.2384	400.7734	408.4816	575.1151	676.1185	751.809	785.423	801.4152	834.4632	861.5955	876.3712	876.6048	941.3015	948.7749	969.0141	1021.5843	1053.9596	1072.2305	1083.2661	1086.8364	1115.4471	1120.0935	1138.4113	1178.7243	1226.4058	1237.7466	1245.8914	1277.4164	1285.0112	1311.9778	1332.5863	1333.981	1379.1355	1383.2185	1406.8716	1412.8411	1436.0238	1463.9608	1466.6161	1488.4699	1499.093	1499.3136	1731.9095	2983.0331	2983.1972	3003.3563	3004.4493	3021.0331	3036.2916	3041.157	3041.3048	3058.6041	3088.4685	3088.5399	3105.7332	3113.0368	3138.3285
CC1C2CC1CC=CC2	C[C@H]1[C@H]2C[C@@H]1CC=CC2	
InChI=1S/C9H14/c1-7-8-4-2-3-5-9(7)6-8/h2-3,7-9H,4-6H2,1H3	InChI=1S/C9H14/c1-7-8-4-2-3-5-9(7)6-8/h2-3,7-9H,4-6H2,1H3/t7-,8+,9-
