20
gdb 89904	4.31175	0.94818	0.9156	3.6806	81.05	-0.2394	0.029	0.2685	1356.1503	0.170928	-403.148183	-403.139263	-403.138319	-403.182228	33.617	
C	-0.1767070302	 1.5892355383	 0.1746075417	-0.402215
C	 0.011935471	 0.0809318376	 0.0697952685	 0.038084
C	 0.9960378628	-0.4876243124	-1.0153162006	-0.308538
C	 1.7637223256	-1.2230665549	 0.0931676579	 0.418728
C	 2.2773967706	-0.2515523426	 1.1066044252	-0.281486
C	 0.823948118	-0.6421333206	 1.1597238569	-0.147702
N	 2.2978716853	-2.5341539356	-0.0152041018	-0.398246
C	 3.6283464243	-2.8265459918	-0.1417268201	 0.132134
O	 4.5366980915	-2.0285449527	-0.1152473457	-0.310693
H	 0.7789313217	 2.1094343807	 0.2944179942	 0.118456
H	-0.6599467822	 1.9869544631	-0.7245251831	 0.114764
H	-0.8060776996	 1.8475814932	 1.0332801001	 0.11529
H	-0.9657281547	-0.3984410035	-0.0430461818	 0.072999
H	 0.4986923273	-1.1633364323	-1.7159893662	 0.096565
H	 1.5783133581	 0.2426513322	-1.5874260067	 0.103634
H	 2.8989642099	-0.6914729201	 1.8776602369	 0.128216
H	 2.5926035293	 0.7410446043	 0.7974659206	 0.113273
H	 0.4071507309	-1.1294914336	 2.033924608	 0.085558
H	 1.652425977	-3.3017793043	-0.1300895924	 0.242369
H	 3.7844556435	-3.9190775751	-0.2597456614	 0.068807
43.4199	106.9423	180.075	203.3488	232.7862	279.9826	332.8492	402.9305	437.5841	502.2376	544.9863	586.0724	686.3372	804.7121	811.4573	854.3749	898.2173	931.8408	969.2212	976.5083	992.617	1021.7204	1031.5821	1085.4108	1091.7697	1102.5076	1126.9835	1159.8887	1193.1332	1220.6221	1240.7581	1274.5805	1304.4786	1367.4229	1396.145	1416.9701	1439.3777	1482.3713	1495.6829	1498.5376	1507.9289	1515.0766	1816.9437	2916.4025	3030.8068	3043.3153	3047.292	3094.004	3100.0757	3106.5098	3127.3935	3174.7206	3220.4246	3599.5837
CC1CC2(CC12)NC=O	C[C@H]1C[C@]2(C[C@@H]12)NC=O	
InChI=1S/C7H11NO/c1-5-2-7(8-4-9)3-6(5)7/h4-6H,2-3H2,1H3,(H,8,9)	InChI=1S/C7H11NO/c1-5-2-7(8-4-9)3-6(5)7/h4-6H,2-3H2,1H3,(H,8,9)/t5-,6-,7+/m0/s1
