21
gdb 122360	3.42837	0.69828	0.66435	1.0122	75.41	-0.2314	0.0505	0.2819	1744.7345	0.18069	-461.326171	-461.315731	-461.314787	-461.362488	37.679	
O	-0.0623754757	 1.3002802411	-0.5065269071	-0.422898
C	-0.0020033027	-0.0217490886	 0.0100283198	-0.074108
C	-1.3752726044	-0.6575109195	-0.1564569316	-0.161702
C	-1.431564317	-2.0920421814	 0.3830747162	-0.207027
C	-2.8072934811	-2.7136714173	 0.258815891	-0.0926
C	-3.3206820079	-3.2537687868	-1.0558188642	 0.022849
O	-2.4003836316	-3.246886839	-2.1238442316	-0.423036
C	-2.9914376608	-4.210975393	 0.0669180713	 0.071002
O	-1.8791920415	-5.0353020163	-0.1061098532	-0.42994
H	 0.8063880208	 1.7002899135	-0.4082758684	 0.283374
H	 0.7523951506	-0.6237056283	-0.5232653197	 0.083334
H	 0.2810854271	-0.0192743285	 1.0760743415	 0.080448
H	-2.1125215918	-0.0282587184	 0.3575917872	 0.098038
H	-1.6405447515	-0.652707187	-1.2190581268	 0.119001
H	-0.6974005214	-2.7128165719	-0.138581457	 0.100822
H	-1.1398159911	-2.1052609659	 1.4415981995	 0.096851
H	-3.573113745	-2.2305620366	 0.8620143147	 0.087008
H	-4.3518331847	-3.0597098101	-1.3431193094	 0.090328
H	-2.7414727031	-3.8323324345	-2.8088904867	 0.296991
H	-3.7891273013	-4.7162698862	 0.60323759	 0.098061
H	-1.498803916	-4.7901909351	-0.9612519954	 0.283205
48.5131	82.5937	93.4063	125.0314	199.0327	211.9913	262.2185	271.0267	299.8258	334.352	426.1353	507.7823	556.3378	621.2263	658.2778	756.6463	766.8369	787.4593	866.5486	922.5038	1010.3858	1021.2339	1043.2511	1059.5459	1076.7395	1095.1295	1121.2694	1152.4713	1167.9033	1214.6159	1233.5823	1238.8496	1267.1178	1297.9784	1308.9154	1317.6662	1326.9422	1361.7311	1398.4314	1413.6451	1462.606	1473.756	1487.344	1500.9588	1528.765	2954.8768	2979.8431	3022.7847	3034.4465	3076.8626	3094.7459	3117.82	3130.2376	3153.305	3736.6377	3804.2278	3829.188
OCCCC1C(O)C1O	OCCC[C@H]1[C@@H](O)[C@H]1O	
InChI=1S/C6H12O3/c7-3-1-2-4-5(8)6(4)9/h4-9H,1-3H2	InChI=1S/C6H12O3/c7-3-1-2-4-5(8)6(4)9/h4-9H,1-3H2/t4-,5+,6-
