18
gdb 40477	3.77614	1.34181	1.21639	0.8623	76.31	-0.2225	0.0634	0.286	1063.4031	0.150025	-397.976567	-397.969458	-397.968514	-398.008395	28.263	
C	-0.4246077836	 1.0165029702	-0.5299163554	-0.236377
N	 0.5900054016	 1.5326854543	 0.4072597111	-0.325277
C	 0.4132809744	 0.0747898836	 0.2536143097	-0.207316
C	-0.1303339727	-0.6216171381	 1.4440618921	 0.451942
N	-1.2732463043	-0.0990550477	 2.2615695279	-0.387156
C	-0.8900448879	-1.3751209335	 2.9494191697	-0.045294
C	-0.6160345811	-2.0974441713	 1.5923717171	-0.065228
N	 0.7600486092	-2.5815555777	 1.940655652	-0.356622
C	 0.6442878682	-1.26557096	 2.6511307559	-0.092332
H	-1.4504878689	 1.1874224975	-0.2197504033	 0.136867
H	-0.241418697	 1.0958845978	-1.5980772594	 0.111734
H	 1.414870589	 1.8346426244	-0.1044502815	 0.233548
H	 1.1813911699	-0.4846886573	-0.2754423035	 0.101182
H	-0.9606106368	 0.7107638798	 2.8028011846	 0.218765
H	-1.3973503872	-1.7563749148	 3.8376677617	 0.080576
H	-1.3132284417	-2.6429611023	 0.9562663104	 0.089072
H	 0.7004245593	-3.3509936386	 2.6130248741	 0.208759
H	 1.4410454996	-0.8321887864	 3.2591743169	 0.083156
83.895	152.8596	178.0371	307.7431	421.3749	515.9976	548.0548	633.3424	752.2831	789.5452	828.0548	844.3611	867.109	882.242	894.062	907.4779	917.4198	948.4164	973.9343	997.3929	1039.9027	1074.3794	1098.0729	1108.9839	1121.0976	1133.7225	1151.4406	1177.2454	1196.004	1209.7459	1245.359	1253.5659	1271.284	1286.1748	1296.0851	1315.8835	1348.8999	1467.8263	1510.5747	3093.0492	3103.881	3115.1189	3123.0544	3138.9469	3208.2745	3400.7615	3416.2526	3504.3006
C1NC1C12NC3C1NC23	C1N[C@H]1[C@@]12N[C@H]3[C@@H]1N[C@@H]23	
InChI=1S/C6H9N3/c1-2(7-1)6-4-3(9-6)5(6)8-4/h2-5,7-9H,1H2	InChI=1S/C6H9N3/c1-2(7-1)6-4-3(9-6)5(6)8-4/h2-5,7-9H,1H2/t2-,3-,4-,5+,6+/m1/s1
