16
gdb 96626	3.7898	0.88798	0.72634	6.2688	74.17	-0.2593	-0.0731	0.1862	1488.6136	0.122014	-434.103506	-434.093531	-434.092587	-434.139572	34.339	
C	-0.1000499465	 1.3721194615	 0.1022306565	-0.347324
N	-0.0256065272	-0.0748106504	 0.0275046616	-0.283117
C	 0.6177139723	-0.5833457039	-0.9555701159	 0.292287
N	 1.2864419949	 0.0451972597	-1.9646149267	-0.553386
C	 0.7012171968	-2.0911684517	-1.041645471	 0.360887
O	 1.2364813246	-2.6291883385	-1.9806087109	-0.296643
C	 0.0689143596	-2.8566348011	 0.1213110378	-0.458821
C	 0.1170143823	-4.3020396684	-0.0549400086	 0.283956
N	 0.1399687685	-5.4503933723	-0.1710295705	-0.29914
H	 0.8987838915	 1.8342343758	 0.135015269	 0.124253
H	-0.6323172507	 1.8027382402	-0.7614147273	 0.117959
H	-0.6410211449	 1.6665983835	 1.0038146133	 0.134382
H	 1.1104495384	 1.0145377267	-2.1619926309	 0.265594
H	 1.6070459985	-0.5422400815	-2.7194386056	 0.277708
H	 0.578294274	-2.5671913391	 1.0469728001	 0.189029
H	-0.9620889923	-2.5137533106	 0.2509704692	 0.192376
27.4996	83.1822	118.2539	136.7855	189.4922	205.1237	299.1037	308.1384	371.4995	377.9758	438.1733	489.2843	495.2054	563.4527	697.073	712.4277	826.0105	943.3149	952.0078	995.9968	1081.027	1097.9806	1112.658	1190.75	1202.7079	1315.9278	1384.8241	1414.8429	1432.1223	1489.1379	1501.4155	1605.8496	1727.2281	1807.6387	2375.7381	2968.7297	3016.3421	3068.82	3102.2621	3113.1302	3592.4239	3726.4276
CN=C(N)C(=O)CC#N	CN=C(N)C(=O)CC#N	
InChI=1S/C5H7N3O/c1-8-5(7)4(9)2-3-6/h2H2,1H3,(H2,7,8)	InChI=1S/C5H7N3O/c1-8-5(7)4(9)2-3-6/h2H2,1H3,(H2,7,8)
