22
gdb 102720	2.63384	0.95867	0.74614	1.1865	89.28	-0.2366	0.0576	0.2942	1574.9084	0.192141	-367.149293	-367.138991	-367.138047	-367.185028	37.803	
C	-1.6009685623	-0.2227511482	-0.6016599599	-0.388232
C	-0.1050344773	-0.040785002	-0.3361985079	-0.173871
C	 0.7942633249	-0.6221360401	-1.4509326967	-0.161249
C	 2.2975643606	-0.3447634086	-1.2175468883	-0.154778
N	 2.5853112605	 1.0850890961	-1.222660045	-0.066382
C	 2.7760620776	 1.7357186752	 0.0717286604	-0.218857
C	 3.9355587348	 1.4620308449	-0.8177486519	-0.226058
C	 0.5897590285	-2.0608920539	-1.6144162761	 0.333136
C	 0.4484518583	-3.2501960891	-1.7249645525	-0.476086
H	-1.8991176044	 0.2722129926	-1.532733326	 0.11441
H	-1.8612465302	-1.2816045921	-0.6883909443	 0.130547
H	-2.1961226075	 0.2085839037	 0.2090135123	 0.11016
H	 0.124571545	 1.0249622702	-0.2442645093	 0.113768
H	 0.1653377992	-0.5131046212	 0.616511874	 0.09653
H	 0.5254012597	-0.1223239688	-2.3918562064	 0.111723
H	 2.6210323767	-0.8383706802	-0.2836393056	 0.089494
H	 2.8623976901	-0.803977794	-2.0355611053	 0.113899
H	 2.3721887055	 2.7402099485	 0.1615652063	 0.117838
H	 2.682603437	 1.1245949171	 0.9680141835	 0.112924
H	 4.6165800241	 0.6682220517	-0.5141451554	 0.110713
H	 4.3955168649	 2.2611037839	-1.3922303096	 0.117689
H	 0.3141860142	-4.2974941056	-1.8369172565	 0.192681
63.2749	83.9603	109.4435	124.9197	165.6676	231.0176	258.7951	278.2915	332.4471	382.9415	468.3905	522.9351	564.3718	625.3051	640.4172	766.3943	774.7324	827.4092	841.6069	895.4745	951.366	980.5576	1015.0938	1036.7909	1043.8866	1088.7356	1112.5541	1121.1629	1126.3775	1149.3682	1178.6222	1186.6764	1262.6977	1277.2449	1317.7709	1327.7143	1347.1265	1367.8799	1394.436	1411.7515	1485.1075	1487.8866	1494.2621	1497.4317	1507.6726	1521.3169	2230.5355	2945.0859	3014.0187	3032.7596	3035.647	3068.3014	3084.856	3092.8724	3097.8196	3101.489	3117.0303	3175.5291	3190.2246	3504.8076
CCC(CN1CC1)C#C	CC[C@@H](CN1CC1)C#C	
InChI=1S/C8H13N/c1-3-8(4-2)7-9-5-6-9/h1,8H,4-7H2,2H3	InChI=1S/C8H13N/c1-3-8(4-2)7-9-5-6-9/h1,8H,4-7H2,2H3/t8-/m0/s1
