20
gdb 68325	2.91018	1.13299	1.02382	3.6311	82.11	-0.2438	0.0304	0.2743	1261.9562	0.171366	-403.131777	-403.123074	-403.12213	-403.165992	32.959	
C	-0.3320700421	 1.3866985061	-0.0486989799	-0.515114
C	-0.0334311549	-0.0864021195	 0.0022028755	 0.315093
C	 0.6899747014	-0.9614932115	-1.068447193	-0.248988
C	 0.3225083195	-1.9514047194	 0.0724852461	-0.088585
C	 0.8207379333	-0.8571772885	 1.0633358274	-0.279149
C	-1.0711155979	-1.2636324754	 0.0836322175	 0.073908
N	-1.9333726012	-1.4043969722	 1.2300078709	-0.317299
C	-3.2919140716	-1.4484134331	 1.137538779	 0.14768
O	-3.9333609531	-1.352441616	 0.1131846252	-0.32245
H	 0.5897682582	 1.977847943	-0.0746139012	 0.119529
H	-0.919860848	 1.6366514426	-0.9382915897	 0.128544
H	-0.9075044922	 1.6991686207	 0.8297004388	 0.121068
H	 0.1771385249	-1.0958611925	-2.0250553077	 0.096007
H	 1.755784132	-0.7647592986	-1.2058468365	 0.093715
H	 0.5273346372	-3.021750921	 0.1091068799	 0.07588
H	 1.8952025076	-0.6531559808	 1.0557783122	 0.094771
H	 0.4541143301	-0.8810434935	 2.0939073953	 0.07706
H	-1.6914827027	-1.4020152268	-0.8022703029	 0.110851
H	-1.5288091271	-1.5091962264	 2.1460942597	 0.247091
H	-3.7619629334	-1.5879534974	 2.1320908535	 0.070387
26.5852	142.2739	170.6566	202.2646	255.2745	287.7757	312.7191	437.8749	519.681	524.8886	584.3512	636.4079	747.3773	753.5748	807.8542	900.6046	905.1385	926.8015	968.1598	1001.9409	1018.5816	1028.5939	1028.9702	1088.802	1098.1013	1120.5441	1145.3553	1174.2828	1202.0178	1212.0089	1226.9423	1233.2011	1250.7182	1329.8686	1387.935	1410.615	1435.6025	1489.1918	1489.5133	1498.0648	1539.3663	1549.6187	1807.351	2926.872	3027.9475	3046.2477	3053.791	3094.5077	3099.1406	3100.4605	3109.4651	3120.1044	3123.1521	3641.7506
CC12CC(C1)C2NC=O	C[C@@]12C[C@@H](C1)[C@H]2NC=O	
InChI=1S/C7H11NO/c1-7-2-5(3-7)6(7)8-4-9/h4-6H,2-3H2,1H3,(H,8,9)	InChI=1S/C7H11NO/c1-7-2-5(3-7)6(7)8-4-9/h4-6H,2-3H2,1H3,(H,8,9)/t5-,6-,7+/m1/s1
