21
gdb 63684	4.77417	0.63653	0.60794	3.2512	81.37	-0.2496	-0.0209	0.2287	1861.2188	0.178525	-424.229812	-424.219224	-424.218279	-424.266621	37.244	
C	 0.1233604697	 1.483550141	-0.2243943617	-0.456549
C	-0.0661470129	 0.0147698814	 0.0873537702	 0.39373
C	-1.1225255743	-0.6769751526	-0.7496217713	-0.451691
O	 1.1467256559	-0.7467014291	 0.2544491773	-0.29985
C	 0.2944485999	-0.5720707319	 1.3936429805	 0.016915
C	 0.8752576682	 0.1679820091	 2.5760681767	-0.251183
C	 1.9848907006	-0.6607443025	 3.2545936649	-0.260612
C	 2.6612663587	 0.1071908167	 4.3646945473	 0.154927
O	 2.7456052699	-0.2570576441	 5.5089808026	-0.236007
H	 0.9551269032	 1.9172594521	 0.3321200866	 0.128168
H	 0.33345884	 1.6127588197	-1.2916737005	 0.127772
H	-0.7861770279	 2.0490334459	 0.0055165246	 0.122866
H	-0.8769602849	-0.5983434691	-1.8142764177	 0.126196
H	-1.1917978871	-1.7366700734	-0.4928085956	 0.127638
H	-2.1040208162	-0.2149024542	-0.5978542431	 0.120973
H	-0.2387880465	-1.4845984088	 1.6753062146	 0.084382
H	 1.2831791862	 1.1333284531	 2.2623970543	 0.107277
H	 0.0728041262	 0.3736504131	 3.2954854905	 0.115737
H	 1.5980205984	-1.599728646	 3.6610147401	 0.12073
H	 2.7424217049	-0.8974561667	 2.4945542015	 0.139211
H	 3.094167418	 1.0850099663	 4.0435255585	 0.069371
45.1987	63.8371	81.1481	117.7066	156.0437	199.5654	243.4249	276.8546	299.1149	369.8603	422.3532	470.9705	527.6289	537.7919	704.0569	758.8635	811.8867	850.0178	919.7189	945.2518	981.7144	1001.1755	1014.6496	1063.482	1102.0636	1136.2326	1143.8928	1157.2989	1204.9111	1263.0068	1267.7147	1311.6154	1353.0854	1368.658	1409.5154	1419.8115	1430.2804	1462.9663	1467.0098	1473.3792	1482.5396	1488.4926	1501.7553	1521.6449	1837.0471	2845.1356	3023.2449	3033.7763	3037.3844	3040.9883	3062.815	3087.7295	3095.3077	3100.5045	3106.4066	3124.4173	3140.3944
CC1(C)OC1CCC=O	CC1(C)O[C@H]1CCC=O	
InChI=1S/C7H12O2/c1-7(2)6(9-7)4-3-5-8/h5-6H,3-4H2,1-2H3	InChI=1S/C7H12O2/c1-7(2)6(9-7)4-3-5-8/h5-6H,3-4H2,1-2H3/t6-/m0/s1
