22
gdb 94874	2.47013	1.77302	1.40562	1.9763	84.35	-0.2118	0.0712	0.283	1046.3452	0.196875	-367.177876	-367.169999	-367.169055	-367.209635	32.67	
C	 0.4384514189	 1.5225697024	-0.2850822892	-0.395703
C	-0.0667014887	 0.1193235734	 0.0765454093	-0.081913
C	 0.1026588889	-0.8964673626	-1.1101605182	-0.248436
C	 1.4706516396	-1.6252051525	-0.9008386868	-0.309162
C	 1.66925854	-1.5526956894	 0.5932220286	 0.267525
C	 2.8296838884	-1.1117752303	 1.5046733715	-0.27256
C	 1.870948748	-0.0278838658	 2.1278070213	-0.280935
C	 0.7663512206	-0.5231303816	 1.1701138231	 0.277043
N	 0.560671304	-1.9525701973	 1.486132393	-0.415331
H	 1.4831886129	 1.5011652421	-0.6153318019	 0.114602
H	-0.1588341729	 1.9490124125	-1.0970071319	 0.112761
H	 0.374122837	 2.2018911321	 0.5706123693	 0.120031
H	-1.127595423	 0.1995623329	 0.3468758692	 0.071847
H	-0.715700925	-1.6236576826	-1.1094606845	 0.102611
H	 0.0553970334	-0.3896669252	-2.07833305	 0.102391
H	 1.4607942301	-2.6367732625	-1.3227477955	 0.100189
H	 2.2808978346	-1.0811349003	-1.4004970396	 0.104426
H	 3.2179528969	-1.8756526222	 2.1823760811	 0.103785
H	 3.6579155777	-0.6628498621	 0.9507434448	 0.097457
H	 1.6436334259	-0.1277438234	 3.191644265	 0.103827
H	 2.2052375088	 0.9909170397	 1.9227731277	 0.100649
H	-0.2069151162	-2.3088988274	 0.9217323537	 0.224895
130.3227	198.3964	248.1952	254.5715	309.516	363.8528	425.3389	476.3751	510.9162	624.9518	659.4122	720.4924	749.2183	766.3498	777.8369	843.8461	899.7801	922.7305	934.7916	952.3392	955.4201	1004.9548	1040.5819	1060.1219	1067.0014	1075.3992	1124.5609	1137.1453	1192.3904	1210.7266	1222.0224	1232.3576	1237.0331	1276.8348	1293.6842	1317.2561	1351.7064	1355.5811	1369.3353	1393.9704	1410.2848	1466.0703	1486.9137	1493.5262	1499.2852	1502.4823	1507.9034	3012.2572	3030.1855	3031.5425	3050.2973	3059.8548	3064.8394	3070.2882	3092.0307	3098.1141	3105.4874	3111.8525	3131.8017	3505.8081
CC1CCC23CCC12N3	C[C@H]1CC[C@@]23CC[C@@]12N3	
InChI=1S/C8H13N/c1-6-2-3-7-4-5-8(6,7)9-7/h6,9H,2-5H2,1H3	InChI=1S/C8H13N/c1-6-2-3-7-4-5-8(6,7)9-7/h6,9H,2-5H2,1H3/t6-,7+,8+/m0/s1
