20
gdb 55281	2.39646	1.39053	1.16069	4.9841	74.47	-0.2467	0.0155	0.2622	1157.4358	0.170693	-440.312157	-440.302945	-440.302001	-440.346139	34.572	
C	-0.2206990953	 1.5012741061	 0.0497994823	-0.452175
C	-0.0706556456	-0.0165527562	-0.0568247553	 0.323691
C	-1.3896826313	-0.6790402362	-0.4359177861	-0.453413
C	 1.1765528262	-0.4526410737	-0.8854917684	-0.20459
N	 1.9150400011	-0.7430166441	 0.3728479029	-0.34129
H	 2.4035796417	-1.6313015	 0.3966944729	 0.233384
H	 2.4789227623	 0.5081911701	 1.7354815906	 0.300773
C	 0.6668770718	-0.6781694834	 1.1698565804	-0.176588
C	 0.798620611	 0.1577182651	 2.4379709255	 0.436747
O	 1.9820560877	 0.7823262087	 2.5383628122	-0.374517
O	-0.082593859	 0.2715933915	 3.2485706822	-0.3492
H	 0.725056452	 1.9842208871	 0.3124295085	 0.125791
H	-0.5582667493	 1.9161878087	-0.9059322798	 0.112816
H	-0.9554548326	 1.7669160763	 0.8159049484	 0.142341
H	-1.758666961	-0.2931894211	-1.3929460138	 0.11829
H	-1.2839787968	-1.7648920611	-0.5288881722	 0.111877
H	-2.1530943743	-0.4786606863	 0.3232632697	 0.13716
H	 0.9880407556	-1.3405830207	-1.5003296419	 0.101664
H	 1.6501714211	 0.3140479462	-1.5072359948	 0.110778
H	 0.2255712648	-1.644104737	 1.4365337766	 0.096464
66.147	108.8962	155.8605	214.8767	247.7275	265.9601	312.6169	343.5531	379.6692	421.2573	474.9262	618.1486	632.8638	714.1194	769.6396	856.494	867.1796	914.1786	936.5071	958.4477	962.5814	995.9044	1022.6673	1035.1717	1042.7241	1150.4203	1186.7525	1200.085	1231.4175	1255.9401	1283.1941	1322.9071	1349.6242	1370.6019	1404.5694	1423.8668	1426.9056	1483.1622	1487.7726	1502.4204	1507.101	1520.3622	1864.9899	3022.9914	3027.3304	3036.2574	3055.3876	3075.1358	3094.959	3101.8652	3105.3669	3115.0519	3468.397	3532.7554
CC1(C)C[NH2+]C1C([O-])=O	CC1(C)CN[C@H]1C(=O)O	
InChI=1S/C6H11NO2/c1-6(2)3-7-4(6)5(8)9/h4,7H,3H2,1-2H3,(H,8,9)	InChI=1S/C6H11NO2/c1-6(2)3-7-4(6)5(8)9/h4,7H,3H2,1-2H3,(H,8,9)/t4-/m0/s1
