20
gdb 127123	4.01725	1.04208	0.84512	1.842	84.64	-0.1798	0.0366	0.2164	1403.5611	0.171066	-399.349801	-399.339863	-399.338919	-399.385335	35.282	
C	 0.0590107189	 1.3976498634	 0.0308091724	-0.328002
N	 0.0107415438	-0.0195440454	-0.2684266263	-0.148168
C	 1.185447877	-0.782070057	 0.1175738466	-0.320828
C	-1.2149114059	-0.6547004509	-0.1214601129	 0.450059
N	-1.2851583885	-1.9705501702	 0.082608466	-0.337253
N	-2.6205089308	-2.2306701171	 0.1041926724	-0.26853
C	-3.3894793834	-1.1287301888	-0.0548556128	 0.403481
C	-4.8827968359	-1.1752806276	-0.0527038739	-0.502157
C	-2.5122375087	-0.0735782876	-0.2040430971	-0.425149
H	 1.0277271833	 1.7952471584	-0.2850904257	 0.118948
H	-0.7142879871	 1.9321663625	-0.5270635032	 0.12758
H	-0.0716061719	 1.6250913149	 1.1030988422	 0.104057
H	 1.2758032462	-0.9095165229	 1.2092419147	 0.102932
H	 1.136711887	-1.7757889157	-0.3293422427	 0.14899
H	 2.0790480302	-0.2675323015	-0.2479386412	 0.107683
H	-2.9232886136	-3.1761409383	 0.2589894646	 0.262878
H	-5.277141303	-1.5716015104	 0.8902599487	 0.133576
H	-5.2892374716	-0.1708519764	-0.1870567554	 0.140706
H	-5.2718880754	-1.8036801071	-0.8622270093	 0.134909
H	-2.7807910707	 0.9584441877	-0.353772667	 0.094289
45.5192	59.09	131.7554	169.5446	179.7281	222.2931	242.0158	335.1966	359.6707	381.3342	426.6198	511.0865	588.4687	653.4698	715.7992	723.2922	763.651	942.6545	990.7939	1015.3595	1050.0245	1060.4004	1082.4065	1128.4402	1163.1603	1168.6749	1180.4271	1256.2571	1298.6162	1324.9588	1412.4026	1433.8251	1444.881	1461.0429	1472.3264	1482.4134	1483.1327	1491.2989	1499.5922	1509.4141	1521.0858	1569.5418	1621.7075	2953.9983	2969.2163	3028.8057	3072.5473	3076.1733	3077.9363	3113.8598	3129.2744	3140.4897	3269.8924	3683.861
CN(C)C1=NNC(C)=C1	CN(C)c1n[nH]c(C)c1	
InChI=1S/C6H11N3/c1-5-4-6(8-7-5)9(2)3/h4H,1-3H3,(H,7,8)	InChI=1S/C6H11N3/c1-5-4-6(8-7-5)9(2)3/h4H,1-3H3,(H,7,8)
