19
gdb 46499	3.49501	1.22942	1.08268	2.5424	76.66	-0.2493	0.0283	0.2776	1158.7567	0.161908	-419.198409	-419.190477	-419.189532	-419.231782	30.728	
N	-0.0507813362	 1.3117088938	 0.6843028247	-0.517772
C	 0.0477332875	 0.0892427852	 0.3693195416	 0.39996
C	-1.1172864202	-0.7016983531	-0.1693904173	-0.295924
C	-1.3009866801	-2.0469210447	 0.5682236003	-0.312804
C	 0.0564658343	-2.6767116475	 0.8863546629	 0.325672
C	 0.3112429246	-3.2847890051	 2.2174383252	-0.275857
N	 0.2075052065	-4.1307224233	 1.0112771907	-0.358003
C	 1.198246606	-1.993614272	 0.1650013026	-0.137246
O	 1.2238287381	-0.5959480619	 0.4867611769	-0.245986
H	 0.853124324	 1.6609864294	 1.0112553513	 0.216795
H	-2.0095529829	-0.079618891	-0.1069547904	 0.136688
H	-0.9313114161	-0.8955556175	-1.2335171417	 0.126663
H	-1.869990276	-1.8887471558	 1.4893662325	 0.121814
H	-1.893309659	-2.7193120358	-0.0636778433	 0.109174
H	 1.301675833	-3.2417971255	 2.6630718725	 0.123376
H	-0.5074143746	-3.2960205722	 2.9323487606	 0.116057
H	-0.7061361207	-4.5774178014	 0.9778807154	 0.231493
H	 2.1612809509	-2.3959969826	 0.4822230685	 0.12669
H	 1.115375001	-2.130655569	-0.9218434829	 0.10921
25.4737	142.1295	206.3279	304.1432	363.515	380.6917	406.6128	456.0747	482.2118	579.4281	673.237	748.8917	789.8536	825.5069	910.655	919.9541	923.9474	941.0389	978.5101	994.5618	1015.7198	1047.3072	1051.9194	1099.7932	1130.1814	1139.6648	1202.5209	1232.5314	1238.0818	1267.9026	1301.9226	1322.8135	1356.843	1361.8863	1399.2426	1424.0774	1478.2033	1492.0126	1508.8329	1520.9759	1755.5735	3013.7114	3029.4996	3035.7014	3080.8127	3106.2526	3122.2126	3139.5315	3192.346	3456.9593	3491.6825
N=C1CCC2(CN2)CO1	[NH][C]1CC[C@]2(CN2)CO1	
InChI=1S/C6H10N2O/c7-5-1-2-6(3-8-6)4-9-5/h7-8H,1-4H2	InChI=1S/C6H10N2O/c7-5-1-2-6(3-8-6)4-9-5/h7-8H,1-4H2/t6-/m0/s1
