19
gdb 73544	2.54351	2.02336	1.63132	0.9305	74.48	-0.2445	0.0794	0.3238	918.3183	0.159961	-422.943638	-422.936291	-422.935347	-422.975005	30.026	
C	-0.147833446	 1.5617814883	-0.0962664376	-0.477365
C	-0.013158319	 0.0518123927	-0.0107432647	 0.432471
O	-1.3107328763	-0.5130959802	 0.229255736	-0.341631
C	-1.3337708969	-0.8333488308	 1.6374570095	-0.012702
O	-0.0100419535	-0.7000705096	 2.2049712267	-0.331051
C	 0.766075624	-0.6912129315	 1.0488017742	 0.381742
C	 2.0892252988	-0.1528552691	 0.4556441143	-0.317109
C	 1.1832908035	-0.6642259982	-0.7589099501	-0.150378
C	 0.90235657	-1.9213389962	 0.0844797298	-0.291848
H	 0.7695758973	 2.0582315295	-0.419664893	 0.11679
H	-0.9292264372	 1.7974989322	-0.8250136431	 0.130868
H	-0.4545140092	 1.9873972879	 0.8656562551	 0.123846
H	-1.9960753279	-0.1500317958	 2.1808746164	 0.11641
H	-1.6814363255	-1.8690109689	 1.7374927861	 0.112017
H	 2.2885064485	 0.9150122096	 0.5334861271	 0.110685
H	 2.9882431891	-0.7451777039	 0.6346211827	 0.107239
H	 1.4556302946	-0.6155040391	-1.8117820378	 0.085415
H	 1.7521800664	-2.5812535298	 0.267436629	 0.091056
H	-0.0083029907	-2.4696887771	-0.1486835406	 0.113543
132.6443	183.8566	219.3073	333.3767	371.4735	405.8332	496.4662	535.1677	568.1032	634.8064	730.2376	761.6765	791.3738	831.7473	862.9461	893.2946	921.8167	953.264	985.2061	999.5585	1036.6765	1053.8549	1072.8618	1116.4518	1122.4243	1129.4061	1139.0775	1174.9853	1179.596	1195.2952	1215.593	1224.941	1274.2484	1316.9745	1409.6638	1417.52	1484.4319	1490.3168	1502.2108	1535.1855	1540.6069	3017.2102	3038.4989	3067.9691	3080.5353	3084.887	3102.5712	3124.0537	3132.4375	3157.5459	3164.5838
CC12OCOC11CC2C1	C[C@]12OCO[C@@]31C[C@H]2C3	
InChI=1S/C7H10O2/c1-6-5-2-7(6,3-5)9-4-8-6/h5H,2-4H2,1H3	InChI=1S/C7H10O2/c1-6-5-2-7(6,3-5)9-4-8-6/h5H,2-4H2,1H3/t5-,6-,7-/m1/s1
