18
gdb 50318	3.52719	1.23078	1.00033	2.5888	78.05	-0.2242	-0.0289	0.1954	1176.7067	0.148221	-401.93154	-401.923714	-401.922769	-401.964351	29.808	
O	-0.4929242966	 0.6278380001	-0.6822535532	-0.240581
C	 0.2199641375	 0.9286626385	 0.2389807923	 0.150687
C	 1.358654404	 1.9298330213	 0.1695700396	-0.137115
C	 1.4141899109	 2.6414925532	-1.1883171778	-0.166146
N	 2.4316287905	 3.7086110078	-1.2274754708	-0.108076
C	 1.9294091871	 5.0837384587	-1.2302659234	-0.244696
C	 2.5775960924	 4.516285144	-0.0117972687	-0.048707
C	 1.8084190848	 4.1360326294	 1.1971191416	-0.083496
C	 1.2719891634	 2.9221264618	 1.3097684009	-0.081709
H	 0.0873667917	 0.4630405824	 1.2439930505	 0.081714
H	 2.2705184931	 1.3226120499	 0.3134200848	 0.121547
H	 1.6452669445	 1.9229015775	-1.9800306818	 0.118727
H	 0.4118559526	 3.0324131792	-1.4014518634	 0.111765
H	 2.4687468678	 5.7855225154	-1.8614606738	 0.115437
H	 0.8508450536	 5.2264628618	-1.1988500158	 0.113804
H	 3.606485096	 4.8186031499	 0.187926258	 0.10054
H	 1.753162357	 4.8524886807	 2.012517956	 0.099933
H	 0.7530381298	 2.6205143184	 2.216210445	 0.096373
66.3067	111.6209	192.6683	224.0071	336.533	409.6293	434.5975	500.0531	544.5002	639.6858	710.1374	730.5187	792.261	821.9651	874.2659	920.9902	943.6169	987.871	1032.3047	1044.0727	1064.6668	1069.354	1100.0083	1116.8984	1142.3875	1162.1882	1202.6457	1234.8816	1272.4021	1301.8966	1317.2522	1356.917	1400.7095	1420.1934	1429.541	1493.0308	1512.4207	1707.366	1833.4359	2856.055	2953.9333	3029.6353	3078.8767	3090.9198	3093.8605	3148.8761	3171.4462	3182.0824
O=CC1CN2CC2C=C1	O=C[C@H]1CN2C[C@H]2C=C1	
InChI=1S/C7H9NO/c9-5-6-1-2-7-4-8(7)3-6/h1-2,5-7H,3-4H2	InChI=1S/C7H9NO/c9-5-6-1-2-7-4-8(7)3-6/h1-2,5-7H,3-4H2/t6-,7-,8?/m1/s1
