13
gdb 44197	5.8667	1.05377	0.96829	4.0013	64.65	-0.2724	-0.0273	0.2451	1140.6415	0.087967	-456.510111	-456.50278	-456.501836	-456.542315	27.027	
O	-0.3993170249	 0.2431046923	 0.615134215	-0.300223
C	-0.1233836234	 1.2852403779	 0.1272519565	 0.445844
O	-0.9961227347	 2.2658051987	-0.3334675642	-0.2549
C	 0.0915889598	 3.1216911311	-0.7690376639	 0.050701
C	 0.5927948321	 4.0521246212	 0.3639804873	-0.112933
O	 1.5026682333	 3.0035800838	 0.833651523	-0.287604
C	 1.1245464566	 2.1188287139	-0.2384207231	-0.071465
C	 1.2955101269	 5.2451169913	-0.0622409014	 0.339252
C	 1.8646294264	 6.2321871285	-0.4431612075	-0.418159
H	-0.0357617403	 3.4905260797	-1.7823121745	 0.130602
H	-0.1745660487	 4.2783068468	 1.111987847	 0.137662
H	 1.9638076492	 1.6541972891	-0.7543112351	 0.127241
H	 2.3691754877	 7.1101771058	-0.7652215291	 0.213983
80.3681	128.175	180.4144	271.2237	361.2433	447.7398	463.9894	533.1065	648.7513	687.7146	717.8053	763.7551	814.4128	876.3694	923.8068	939.9434	964.3056	983.9571	1037.5399	1058.9815	1086.1808	1200.7953	1209.7672	1232.3937	1277.3357	1307.9935	1356.3527	1954.1414	2241.0645	3059.4416	3132.1729	3172.4734	3499.4075
O=C1OC2C(OC12)C#C	O=C1O[C@H]2[C@@H](O[C@@H]12)C#C	
InChI=1S/C6H4O3/c1-2-3-4-5(8-3)6(7)9-4/h1,3-5H	InChI=1S/C6H4O3/c1-2-3-4-5(8-3)6(7)9-4/h1,3-5H/t3-,4-,5+/m0/s1
