21
gdb 82587	2.27538	1.99167	1.54614	1.2064	81.79	-0.1874	0.0769	0.2643	988.5352	0.183768	-383.19015	-383.182217	-383.181273	-383.222076	31.782	
C	-0.2038652474	 1.5399175969	 0.0497953309	-0.427839
C	-0.0142975391	 0.0360749687	-0.0269956378	 0.06973
C	 0.5434317568	-0.7205910542	-1.2698069899	-0.059471
C	 1.278289476	-1.6219222124	-0.2338660143	-0.004342
C	 2.5771530143	-0.8667859391	-0.6230590355	-0.022878
C	 2.3783248062	-0.0617830284	 0.6856168386	-0.194029
N	 0.9938998692	-0.6248570515	 0.8870630635	-0.175028
N	 1.864015783	-0.3292080025	-1.7877131036	-0.051542
C	 2.1762129919	 0.9529101732	-2.3783525273	-0.333119
H	 0.7078240458	 2.1000176612	-0.1645110702	 0.120784
H	-0.9663075634	 1.8592760803	-0.6689970617	 0.118404
H	-0.5465267975	 1.8242305303	 1.0507064214	 0.126785
H	-0.973880639	-0.4411044955	 0.219254009	 0.080499
H	-0.1696330034	-1.0380422419	-2.0382752652	 0.06449
H	 1.1457510364	-2.6890076957	-0.071065302	 0.077832
H	 3.558256523	-1.3028453982	-0.8362507656	 0.066913
H	 3.0241987791	-0.4173365623	 1.4958742298	 0.105668
H	 2.4528988271	 1.0289111711	 0.6399707423	 0.097044
H	 3.1510404409	 0.8933512079	-2.8776266659	 0.118956
H	 1.4266540487	 1.1884136088	-3.1412715823	 0.122179
H	 2.2166135813	 1.7998591433	-1.6744388743	 0.098963
157.5982	176.115	177.9614	246.9946	264.7334	305.2109	443.6792	452.4323	557.4745	637.429	666.4562	741.2042	783.8745	830.3248	849.6815	870.4315	889.9664	941.7131	949.3179	983.5096	996.5866	1064.0144	1092.4043	1114.0774	1140.8073	1151.331	1167.2075	1178.7464	1189.9807	1201.31	1232.5398	1250.1821	1260.8803	1291.4126	1297.8347	1310.4512	1356.0633	1385.0732	1407.3898	1449.0085	1478.0999	1481.2171	1495.7002	1505.7117	1518.0208	2968.1458	2993.6588	3034.3787	3037.5712	3041.4807	3043.9534	3051.2164	3087.0635	3092.1853	3097.5839	3133.8878	3141.559
CC1C2C3C(CN13)N2C	C[C@H]1[C@@H]2[C@H]3[C@H](CN13)N2C	
InChI=1S/C7H12N2/c1-4-6-7-5(8(6)2)3-9(4)7/h4-7H,3H2,1-2H3	InChI=1S/C7H12N2/c1-4-6-7-5(8(6)2)3-9(4)7/h4-7H,3H2,1-2H3/t4-,5-,6+,7+/m0/s1
