15
gdb 51280	5.25083	0.91411	0.78614	4.2001	69.94	-0.238	-0.0349	0.2031	1350.6021	0.11221	-453.997784	-453.98958	-453.988636	-454.031706	29.203	
O	-0.4000879283	 0.0807087462	 0.0023722406	-0.252747
C	-0.0971009899	 1.2413008225	 0.0073729174	 0.158178
N	 1.1894925911	 1.7652988748	-0.0012166537	-0.383002
C	 2.4086545395	 1.0943546032	-0.0167791961	 0.418146
N	 2.5392195651	-0.1739234544	-0.0291260271	-0.24601
C	 3.9570255955	-0.5090525193	-0.0433405245	-0.264577
C	 4.7399174107	 0.8114003606	-0.0382544914	 0.389505
O	 5.9310162785	 0.9568706897	-0.0465296964	-0.294913
C	 3.6761453658	 1.921001192	-0.0197875298	-0.465079
H	-0.8364558104	 2.0685003423	 0.0198848667	 0.083008
H	 1.2445545163	 2.7724353806	 0.0057052652	 0.257804
H	 4.2271993379	-1.1202254803	 0.8272480233	 0.146282
H	 4.2131862601	-1.1051743987	-0.9284721916	 0.146258
H	 3.772822368	 2.5703568315	-0.8976195959	 0.153554
H	 3.7870668402	 2.5547038396	 0.8677402931	 0.153594
41.2155	83.5526	154.6979	193.7565	299.9445	306.9887	447.4257	486.0592	516.8208	549.453	591.7974	672.3335	795.067	823.6953	833.0304	903.9392	1002.6013	1022.1719	1052.2061	1113.6986	1136.8356	1149.1517	1193.9457	1211.3009	1294.4762	1319.8373	1431.0391	1445.2502	1452.7968	1536.0788	1714.4897	1850.8886	1866.6275	2920.872	3030.7499	3043.143	3059.2342	3082.694	3624.5558
O=CNC1=NCC(=O)C1	O=CNC1=NCC(=O)C1	
InChI=1S/C5H6N2O2/c8-3-7-5-1-4(9)2-6-5/h3H,1-2H2,(H,6,7,8)	InChI=1S/C5H6N2O2/c8-3-7-5-1-4(9)2-6-5/h3H,1-2H2,(H,6,7,8)
