17
gdb 62099	2.64021	1.17742	0.85904	3.8216	65.92	-0.259	0.0029	0.2619	1285.1855	0.136127	-492.344177	-492.334971	-492.334027	-492.37876	33.551	
N	-0.9034809416	 1.1757630805	 0.4880317929	-0.522571
C	-0.4024022152	 0.0220184409	 0.0140161057	 0.35418
O	 0.664861561	-0.0884493776	-0.5756200243	-0.391727
C	-1.2680174903	-1.2424439303	 0.2237726732	 0.055187
O	-0.5630146584	-2.3376306588	-0.2890509876	-0.43918
C	-1.6378872536	-1.4890513472	 1.7184270384	-0.215438
N	-3.0689752032	-1.5060934643	 1.9931927664	-0.253484
C	-3.8099558001	-0.3841382996	 2.0836723968	 0.155985
O	-3.3817038997	 0.7523674693	 1.946439119	-0.333559
H	-0.36463125	 2.0169396732	 0.3611030179	 0.261067
H	-1.7788208517	 1.2003734893	 1.0068728406	 0.29917
H	-2.2081938026	-1.0934904807	-0.3312151777	 0.094349
H	 0.2425856425	-1.9378884613	-0.6697854202	 0.294903
H	-1.2295945674	-2.4651833954	 1.9823957146	 0.139632
H	-1.1806831123	-0.7366843047	 2.3664034031	 0.139145
H	-3.5403908373	-2.3933523304	 2.0665643911	 0.26352
H	-4.87219831	-0.5866726729	 2.3091492401	 0.098822
51.5716	84.9328	143.1973	191.4104	236.8949	294.8336	339.9433	398.0614	416.0341	482.2972	483.9289	532.7105	560.2264	635.7333	689.8739	742.2558	767.8895	875.2833	963.8725	996.4393	1031.0504	1041.1314	1140.6848	1160.3905	1225.1008	1255.6583	1294.0608	1344.2547	1356.7568	1401.571	1427.8394	1468.8493	1473.7579	1535.7806	1653.4224	1770.0808	1783.1453	2974.7247	2979.0807	3072.278	3138.2423	3436.543	3582.4172	3641.1579	3677.4573
NC(=O)C(O)CNC=O	NC(=O)[C@@H](O)CNC=O	
InChI=1S/C4H8N2O3/c5-4(9)3(8)1-6-2-7/h2-3,8H,1H2,(H2,5,9)(H,6,7)	InChI=1S/C4H8N2O3/c5-4(9)3(8)1-6-2-7/h2-3,8H,1H2,(H2,5,9)(H,6,7)/t3-/m0/s1
