16
gdb 78795	2.22628	1.87057	1.63492	1.1476	68.17	-0.2392	-0.0116	0.2276	922.7594	0.12324	-437.836736	-437.828997	-437.828053	-437.868642	29.929	
C	-0.0174966544	 1.5801081257	 0.0249301947	-0.427649
C	 0.0567500948	 0.0670182164	 0.0431242221	 0.028936
N	 1.1267846916	-0.603285848	-0.8125668867	-0.142567
C	 2.3896917679	-0.6194152085	-0.002480449	-0.172892
C	 1.3048446951	-1.6628543859	 0.1723000475	-0.134482
C	 0.6265953517	-0.6708017699	 1.2573737039	 0.260978
O	-0.0856331244	-0.9031797198	 2.3964975303	-0.468383
C	 2.0633028665	-0.1470519382	 1.3724826859	 0.354993
O	 2.6830821282	 0.1857192399	 2.3488322583	-0.359691
H	 0.9336255984	 2.0380298109	 0.3143385707	 0.131556
H	-0.2806171832	 1.9382495034	-0.9745839032	 0.134176
H	-0.7860738778	 1.9247047252	 0.7240305875	 0.136921
H	-0.8881038215	-0.3787746045	-0.2817104975	 0.101087
H	 3.3327117182	-0.6853048018	-0.525834962	 0.127707
H	 1.3404523652	-2.7292067335	-0.0014999645	 0.128303
H	 0.5209781835	-0.7912430312	 3.1438492019	 0.301006
133.6623	187.7454	203.7007	216.5894	263.7866	373.8358	431.2732	489.1525	559.7958	642.8895	680.3971	719.1159	759.7548	812.0369	821.8139	848.0668	879.4306	899.062	964.4866	978.9219	1077.1488	1088.4167	1123.3865	1142.6102	1149.0144	1209.0169	1227.7023	1273.0073	1358.454	1386.0649	1410.4179	1435.3556	1490.176	1493.1339	1861.0606	3039.661	3067.6372	3112.0692	3116.9312	3218.7799	3230.8253	3719.783
CC1N2C3C2C1(O)C3=O	C[C@H]1N2[C@@H]3[C@H]2[C@@]1(O)C3=O	
InChI=1S/C6H7NO2/c1-2-6(9)4-3(5(6)8)7(2)4/h2-4,9H,1H3	InChI=1S/C6H7NO2/c1-2-6(9)4-3(5(6)8)7(2)4/h2-4,9H,1H3/t2-,3-,4+,6-,7?/m1/s1
