19
gdb 109212	3.98333	1.10408	0.98341	3.5463	76.58	-0.2487	0.0013	0.25	1250.5705	0.159443	-419.197825	-419.189173	-419.188229	-419.230978	32.682	
C	-0.0298286053	 1.4669857936	 0.0147313204	-0.478995
C	 0.0312194022	-0.0382950439	-0.001302992	 0.318434
C	-0.7643197869	-0.8537346681	 0.9476859365	-0.291678
N	 0.7101214155	-0.7257925129	 1.1357456322	-0.18888
C	 1.380795333	-1.806475514	 0.487552667	 0.316119
C	 2.1505052401	-2.7909119938	 1.314059569	-0.127156
O	 2.7265354402	-3.8023475724	 0.5314381687	-0.423337
N	 1.3313677807	-1.8843547802	-0.7833407465	-0.291045
C	 0.5197625746	-0.7582557456	-1.2666003818	-0.240849
H	 0.9265330984	 1.8985614386	-0.2988607759	 0.128643
H	-0.8044116022	 1.8282397916	-0.6707600536	 0.125935
H	-0.2601167114	 1.8395615365	 1.0161080511	 0.132215
H	-1.3544018553	-0.3623225802	 1.7155665452	 0.124612
H	-1.1395078275	-1.8219104712	 0.6250033673	 0.128981
H	 2.9173764915	-2.2341758854	 1.8767724895	 0.120202
H	 1.4732389484	-3.2207520074	 2.0695918181	 0.113213
H	 2.5217535132	-3.572454023	-0.3869002272	 0.294916
H	-0.2904822608	-1.1229222498	-1.907506108	 0.120509
H	 1.1403758717	-0.0931168226	-1.8802979999	 0.118161
84.0778	153.7976	182.4116	203.8362	246.4848	304.2656	342.8357	365.1326	391.356	472.8926	597.9676	627.6798	708.855	750.4573	812.6991	865.1747	929.3233	963.4213	990.9882	1018.0398	1031.8974	1058.5901	1098.6171	1102.8012	1127.2696	1135.7571	1204.3507	1230.1346	1243.6101	1267.5886	1318.7869	1346.9087	1385.3335	1420.3915	1473.6351	1484.6736	1489.1085	1493.8708	1499.6963	1509.2925	1708.7856	2979.8119	2993.1619	3028.2226	3035.0908	3065.8845	3098.2219	3107.8696	3120.5697	3199.935	3715.819
CC12CN1C(CO)=NC2	C[C@]12CN1C(=NC2)CO	
InChI=1S/C6H10N2O/c1-6-3-7-5(2-9)8(6)4-6/h9H,2-4H2,1H3	InChI=1S/C6H10N2O/c1-6-3-7-5(2-9)8(6)4-6/h9H,2-4H2,1H3/t6-,8?/m0/s1
