17
gdb 36191	3.99762	1.11633	1.10095	3.1208	75.46	-0.2376	0.029	0.2666	1141.2311	0.137379	-380.80445	-380.797048	-380.796104	-380.836926	28.449	
N	-0.1889758008	-1.0591120985	-0.4909651702	-0.30474
C	-0.0859729199	 0.0454615678	-0.1683788668	 0.266624
C	 0.0687542609	 1.4444697455	 0.2417789257	-0.475193
C	 1.493907518	 1.9248997901	 0.1317203716	 0.336028
C	 2.6876615333	 1.6239944784	 1.0226115438	-0.225533
N	 3.3922485089	 2.8296390524	 0.4307988027	-0.166352
C	 3.6044605168	 2.3723923003	-1.0031802901	-0.177102
C	 2.100786408	 2.4140471344	-1.2040669636	-0.120854
C	 2.0000915887	 3.3300825713	-0.0178642743	-0.097341
H	-0.5914726571	 2.0618299826	-0.3792178183	 0.15547
H	-0.2915921788	 1.544201925	 1.273199904	 0.156815
H	 2.4769452338	 1.8101450941	 2.079838053	 0.110223
H	 3.2269188075	 0.6770416981	 0.9128429853	 0.112688
H	 4.1260509012	 3.1563630373	-1.5575805715	 0.116005
H	 4.1431144616	 1.4241500515	-1.1043726961	 0.108441
H	 1.512398685	 2.4203106033	-2.1137602212	 0.099294
H	 1.5858840428	 4.3123720663	 0.1610433359	 0.105528
58.5546	99.1262	267.0774	279.3682	390.5263	432.7011	459.883	481.7298	682.4774	723.8232	781.1527	832.1893	845.2702	863.3369	887.4389	928.7711	939.1994	955.4726	977.9062	1016.8675	1051.3588	1086.3634	1105.4264	1124.7137	1153.6859	1182.202	1196.8831	1230.4906	1264.601	1288.5153	1324.4712	1333.2489	1416.3066	1457.215	1502.5551	1522.6927	2363.2864	3031.7271	3038.195	3047.3678	3068.401	3097.3413	3107.6571	3187.312	3217.4914
N#CCC12CN3CC1C23	N#CC[C@@]12CN3C[C@@H]1[C@@H]23	
InChI=1S/C7H8N2/c8-2-1-7-4-9-3-5(7)6(7)9/h5-6H,1,3-4H2	InChI=1S/C7H8N2/c8-2-1-7-4-9-3-5(7)6(7)9/h5-6H,1,3-4H2/t5-,6+,7-/m1/s1
