19
gdb 79764	2.64811	1.93052	1.78981	1.8227	75.66	-0.239	0.0681	0.3071	885.7719	0.16314	-385.888649	-385.882041	-385.881097	-385.919252	28.195	
O	 0.3100930881	 1.2831917296	-0.4484512666	-0.44349
C	 0.0548345463	-0.0566445238	-0.0476390443	 0.140149
C	 0.6425209667	-0.4530607463	 1.3017164057	-0.107507
C	-0.1031111595	-0.020372254	 2.5492745868	-0.067929
C	-1.3929521146	 0.7708511891	 2.3783584258	-0.253243
C	-2.1624541422	 0.0020290986	 1.3126588061	-0.067929
C	-1.6029641954	-1.4044703297	 1.2065110162	-0.075427
C	-0.294771699	-1.4187006736	 1.9920666289	-0.075427
C	-1.4185743863	-0.4306414083	 0.0640490832	-0.107507
H	-0.0802367709	 1.8640957886	 0.2121127423	 0.280066
H	 0.519984392	-0.6642029159	-0.83326193	 0.085471
H	 1.7184901169	-0.5653367218	 1.3753521958	 0.083929
H	 0.4874577304	 0.1366678152	 3.4453192666	 0.083228
H	-1.9576337095	 0.7709529571	 3.3187277584	 0.103454
H	-1.2242012297	 1.823842867	 2.1164109127	 0.088907
H	-3.2282694209	 0.1770874506	 1.2140606216	 0.083228
H	-2.226706544	-2.285959079	 1.1396280573	 0.083049
H	 0.043217027	-2.3106506982	 2.5026927055	 0.083049
H	-1.9908782154	-0.5249902952	-0.8520864622	 0.083929
170.5664	193.7215	314.0442	357.0952	515.8507	534.0893	633.1452	647.4892	681.6621	747.747	778.6202	795.5741	812.8523	826.6827	891.6202	913.5676	956.9775	979.9759	1000.8117	1001.4736	1036.0543	1043.1511	1049.7671	1079.0009	1085.6393	1090.0352	1105.1892	1137.5468	1137.6757	1196.9045	1265.5405	1269.9758	1297.2954	1308.2631	1308.3809	1325.0166	1363.2455	1404.7541	1420.1337	1432.3109	1501.3551	3013.834	3038.1018	3047.5356	3162.9403	3164.4566	3172.0356	3174.7119	3194.6322	3205.7381	3825.3614
OC1C2C3CC4C(C23)C14	O[C@H]1[C@H]2[C@H]3C[C@@H]4[C@H]([C@@H]23)[C@H]14	
InChI=1S/C8H10O/c9-8-6-2-1-3-5(4(2)6)7(3)8/h2-9H,1H2	InChI=1S/C8H10O/c9-8-6-2-1-3-5(4(2)6)7(3)8/h2-9H,1H2/t2-,3+,4-,5+,6-,7+,8-
