20
gdb 31240	2.23534	1.36426	0.91168	1.4034	84.12	-0.1754	0.0398	0.2152	1337.8211	0.170931	-403.175412	-403.165819	-403.164875	-403.210905	34.692	
C	 0.1906844173	 1.5110742897	 0.2757405939	-0.360492
C	-0.0105039179	 0.0337760798	-0.1076599632	-0.316173
C	-1.4407262657	-0.4167538849	-0.06659094	 0.156945
C	-2.3149174484	-0.5178712417	-1.115732373	 0.326389
N	-2.214373263	-0.1991076843	-2.4603671111	-0.389232
C	-2.8408332542	-1.0930439727	-3.433043761	-0.329986
O	-3.531360085	-0.952554788	-0.6999238475	-0.181154
C	-3.4467154913	-1.1338553059	 0.6589281738	-0.034195
C	-2.2052290959	-0.8128879515	 1.0897200053	-0.259889
H	 1.2495791835	 1.7886480176	 0.2398427196	 0.106025
H	-0.3598581177	 2.1701969522	-0.4029527812	 0.117992
H	-0.1759849234	 1.7036195797	 1.2888996876	 0.120059
H	 0.402897522	-0.1357028108	-1.1115815723	 0.083758
H	 0.5882815074	-0.5940347669	 0.5642221203	 0.105147
H	-1.2637059403	 0.0414726754	-2.7036822474	 0.239856
H	-2.7079325742	-0.6707515867	-4.4318783527	 0.12299
H	-2.4307823102	-2.1145434392	-3.4218440604	 0.112409
H	-3.9113413751	-1.1536730706	-3.2288458356	 0.151159
H	-4.3404109699	-1.5009814931	 1.1330837168	 0.12661
H	-1.849442608	-0.8626510281	 2.1081296182	 0.101784
36.047	60.8813	149.8049	158.9109	181.7843	220.2744	292.9247	317.7039	401.2879	484.5193	593.8646	624.6492	634.1336	668.9481	726.7863	764.3667	781.8056	818.6608	904.9991	958.4956	1018.9213	1057.0871	1069.0192	1082.7784	1100.6839	1150.781	1178.5166	1197.9517	1265.1077	1283.8151	1330.4546	1356.9662	1406.6513	1439.1822	1452.2811	1477.276	1487.7705	1492.1459	1495.8578	1508.2429	1516.2964	1573.2605	1671.1272	2986.5392	3005.7047	3032.0926	3041.3359	3094.7829	3102.2812	3108.477	3138.3866	3242.1867	3292.2349	3593.193
CCC1=C(NC)OC=C1	CCc1c(NC)occ1	
InChI=1S/C7H11NO/c1-3-6-4-5-9-7(6)8-2/h4-5,8H,3H2,1-2H3	InChI=1S/C7H11NO/c1-3-6-4-5-9-7(6)8-2/h4-5,8H,3H2,1-2H3
