15
gdb 46291	3.25573	1.40535	1.27016	3.9383	66.18	-0.2471	0.0084	0.2555	1003.0882	0.114119	-453.972506	-453.965038	-453.964094	-454.004976	27.332	
O	-0.2708211815	 0.004552312	 0.1226913185	-0.351644
C	-0.1453275773	 1.1939379463	 0.0343632472	 0.384394
N	-1.0261087427	 2.2424102191	-0.0501856312	-0.335942
C	-0.0193865551	 3.3076230203	-0.1116501391	-0.214418
C	 1.0579518688	 2.1886457846	 0.0171638743	 0.24104
C	 2.0480751877	 2.163406336	 1.2057359599	-0.259128
N	 3.3831090124	 2.1421866183	 0.5873549344	-0.253435
C	 3.1795400514	 2.0724932134	-0.6579533486	 0.113403
O	 1.9032822895	 2.0635471225	-1.1332722919	-0.249034
H	-2.0339790497	 2.2701616844	-0.0236489741	 0.259821
H	 0.0172939287	 3.8421633308	-1.0648534816	 0.129109
H	-0.0567077097	 4.0162513163	 0.7221130116	 0.118154
H	 1.9422305228	 3.0336354328	 1.8606986061	 0.124105
H	 1.9137204285	 1.2639686657	 1.8160642251	 0.145157
H	 3.9401909664	 2.0175417175	-1.4277795804	 0.14842
86.0042	104.4904	169.0904	265.2562	289.2578	438.7795	464.7729	506.8618	619.3735	724.3912	760.9954	810.5168	875.2781	880.8363	940.9914	958.2868	984.2889	996.8754	1085.5161	1113.3159	1142.3749	1161.3454	1171.4649	1206.9238	1243.0081	1293.5365	1321.6215	1335.3674	1389.5257	1487.2985	1520.0543	1714.3974	1905.4263	3041.3664	3046.4009	3084.6297	3100.3256	3227.0881	3625.0113
O=C1NCC11CN=CO1	O=C1NC[C@]21CN=CO2	
InChI=1S/C5H6N2O2/c8-4-5(2-7-4)1-6-3-9-5/h3H,1-2H2,(H,7,8)	InChI=1S/C5H6N2O2/c8-4-5(2-7-4)1-6-3-9-5/h3H,1-2H2,(H,7,8)/t5-/m0/s1
