14
gdb 34130	3.6928	1.49165	1.40657	3.9886	65.74	-0.27	-0.0105	0.2595	915.4467	0.102113	-436.636216	-436.629944	-436.629	-436.666895	25.119	
N	 0.0097871816	-1.1093531869	 0.0811448485	-0.331099
C	-0.0143451464	 0.046121956	 0.0557097183	 0.17394
C	-0.0015098989	 1.4841145191	-0.0098547839	 0.280455
C	-0.8509056429	 2.2531699006	-1.0455232455	-0.246437
C	-0.0725380797	 3.5570550716	-0.8000347722	 0.015109
O	 1.2600879649	 3.1913458014	-1.2753582305	-0.277004
C	 1.3464821721	 2.3915119503	-0.1149157655	 0.020625
C	 0.4022305691	 3.2711750394	 0.7028230323	 0.057233
O	-0.3494918369	 2.175752502	 1.2248477207	-0.310821
H	-0.7362450306	 1.9127042556	-2.0750480408	 0.137487
H	-1.8983644375	 2.2669352182	-0.7419842128	 0.133677
H	-0.4369738138	 4.5085304857	-1.178267302	 0.10595
H	 2.3179661345	 1.9763371061	 0.1415506219	 0.124598
H	 0.6434138545	 4.0686696809	 1.4002545616	 0.116288
151.309	162.2549	401.3801	463.9538	489.0906	549.2133	570.6832	580.4108	704.8116	739.6485	785.4824	852.3659	857.6977	894.7334	934.2998	961.4001	988.3406	1017.7929	1026.6788	1077.2138	1095.1527	1159.3407	1162.9556	1209.0518	1219.4494	1262.7999	1279.0302	1309.6963	1343.3505	1459.9137	2358.3666	3093.5686	3160.1451	3161.6412	3164.4098	3174.6294
N#CC12CC3OC1C3O2	N#C[C@]12C[C@@H]3O[C@H]1[C@@H]3O2	
InChI=1S/C6H5NO2/c7-2-6-1-3-4(9-6)5(6)8-3/h3-5H,1H2	InChI=1S/C6H5NO2/c7-2-6-1-3-4(9-6)5(6)8-3/h3-5H,1H2/t3-,4+,5-,6+/m0/s1
