19
gdb 38947	3.04584	1.90227	1.61798	1.2833	73.47	-0.2248	0.0852	0.31	899.3501	0.163521	-423.012284	-423.006005	-423.005061	-423.042548	27.04	
C	-0.0869128866	 1.5796414423	 0.0418488513	-0.250291
C	 1.4528605428	 1.4207605247	 0.010229021	 0.041369
O	 1.7201196354	 0.7959835666	 1.2773473782	-0.294645
C	 0.7704555287	-0.3071850824	 1.2673151034	 0.098754
C	 1.5356261977	-1.6244385474	 1.1144367088	-0.246166
C	 2.6088129775	-1.4502399535	 0.0343786645	-0.058209
O	 2.1132444522	-0.8213221479	-1.1479301421	-0.284949
C	 1.2051443302	 0.2208732999	-0.9623067734	 0.157674
C	-0.0193913504	 0.02862601	-0.0106231341	-0.112151
H	-0.4933642782	 2.0446657676	 0.9412867033	 0.106776
H	-0.5161248431	 2.0198021992	-0.8600406422	 0.103511
H	 2.1608473787	 2.2287407647	-0.1646500342	 0.080865
H	 0.1719961229	-0.270694974	 2.1829281154	 0.073361
H	 2.0216007614	-1.9076568282	 2.0540080235	 0.106087
H	 0.8324846853	-2.4233767633	 0.8504127177	 0.102105
H	 3.4374245855	-0.862278531	 0.4451024349	 0.11221
H	 3.0022432858	-2.4180798349	-0.2896885336	 0.101915
H	 0.9122430507	 0.5599751435	-1.9574238154	 0.089231
H	-0.8670721365	-0.6076403459	-0.260766897	 0.072555
221.7023	260.4591	339.6022	410.2322	465.1606	479.4169	600.0872	669.2969	748.0109	790.2267	809.9445	844.4139	859.2345	876.0445	904.8445	930.7864	960.4624	984.9474	1015.9879	1028.961	1057.5058	1062.6563	1088.3574	1097.038	1115.5469	1169.6519	1185.8455	1210.8713	1227.4413	1250.2721	1273.4595	1279.8733	1295.1813	1335.2382	1354.5498	1371.4042	1400.9628	1427.4821	1477.209	1489.6468	1509.8496	3035.1599	3037.2667	3054.889	3076.576	3080.9008	3091.9882	3103.5676	3130.3969	3142.719	3144.2576
C1C2OC3CCOC2C13	C1[C@H]2O[C@@H]3CCO[C@H]2[C@H]13	
InChI=1S/C7H10O2/c1-2-8-7-4-3-6(7)9-5(1)4/h4-7H,1-3H2	InChI=1S/C7H10O2/c1-2-8-7-4-3-6(7)9-5(1)4/h4-7H,1-3H2/t4-,5-,6-,7+/m1/s1
