19
gdb 8149	3.68102	1.75502	1.59455	2.6454	70.67	-0.228	0.068	0.2961	898.8208	0.167082	-365.058859	-365.051309	-365.050364	-365.090058	30.065	
C	 0.2494757535	 1.4251309423	-0.2435106437	-0.470868
C	-0.1289282938	 0.010158607	 0.1130248946	 0.345882
C	-1.6076216736	-0.3586187186	 0.1984825429	-0.2686
C	-1.6631436627	-1.7087971607	 0.9377467811	 0.079782
O	-1.6456412356	-2.7365552625	-0.0604271226	-0.425258
C	-0.3910138418	-1.7305502067	 1.8204426526	-0.257211
C	 0.6046774263	-0.8436025649	 1.0932015543	-0.051546
N	 0.7799088802	-1.0511347287	-0.3535176645	-0.380671
H	 1.3357664132	 1.5433820727	-0.2327424995	 0.127275
H	-0.1037458792	 1.6831380276	-1.2487913241	 0.117269
H	-0.1891276745	 2.1430399687	 0.4592078327	 0.10766
H	-2.1455149638	 0.4073118781	 0.7700171019	 0.098317
H	-2.0923044465	-0.4402198662	-0.7799751499	 0.113859
H	-2.575317318	-1.8036659952	 1.540708893	 0.072883
H	-1.5889618826	-3.5863204078	 0.3890961774	 0.282911
H	-0.6088245192	-1.3112751486	 2.8109157812	 0.102624
H	-0.0315519563	-2.7554018642	 1.9784009632	 0.091372
H	 1.4879858794	-0.4977022241	 1.6240595749	 0.080241
H	 0.2505767151	-1.8655590882	-0.6595094156	 0.234079
165.585	189.6074	216.0372	301.4869	342.3684	375.6127	402.2918	432.3147	464.2591	589.1262	697.2778	773.5957	823.1992	841.6855	896.3944	912.7364	940.9943	954.3806	1005.3897	1022.1148	1060.5448	1086.9527	1095.9038	1151.0979	1185.1301	1190.4113	1226.2635	1253.3607	1296.4048	1315.2822	1326.635	1339.8832	1367.1043	1409.4232	1416.3674	1449.6632	1472.1574	1484.4213	1489.715	1499.1205	3008.7084	3022.6466	3026.1607	3039.8545	3057.9607	3082.4233	3085.3883	3119.8429	3137.7073	3486.7109	3810.6173
CC12CC(O)CC1N2	C[C@]12C[C@@H](O)C[C@H]1N2	
InChI=1S/C6H11NO/c1-6-3-4(8)2-5(6)7-6/h4-5,7-8H,2-3H2,1H3	InChI=1S/C6H11NO/c1-6-3-4(8)2-5(6)7-6/h4-5,7-8H,2-3H2,1H3/t4-,5+,6-/m0/s1
