18
gdb 113521	3.49099	0.97587	0.87361	4.6233	74.33	-0.2472	0.0322	0.2794	1341.5537	0.146945	-439.08201	-439.072759	-439.071815	-439.116843	32.982	
O	-0.0518812002	 1.3270687617	-0.4906508055	-0.413829
C	-0.0048525614	 0.0502390131	 0.1290095108	-0.099314
C	-1.3924231522	-0.5335259244	 0.1006333152	-0.052835
C	-1.889947647	-1.2298758646	-1.1379197069	-0.334478
C	-1.5851116529	-2.0246664694	 0.0988930264	 0.156909
C	-0.5902594718	-3.1797401631	 0.330753482	-0.242314
N	-1.6526341321	-3.805173991	 1.1292400626	-0.34845
C	-2.5841193765	-2.8054317346	 0.9393513237	 0.397431
O	-3.7185906891	-2.6524118415	 1.3066179002	-0.373277
H	 0.8027219896	 1.7511760197	-0.3677859825	 0.287138
H	 0.6911558395	-0.6237394062	-0.398389372	 0.08024
H	 0.3442266719	 0.1281653607	 1.1709985818	 0.09212
H	-2.1300521503	 0.0269354882	 0.6685116814	 0.113897
H	-2.9338746692	-1.1187666374	-1.4102993245	 0.135569
H	-1.203855028	-1.3180402163	-1.9745313805	 0.119952
H	-0.3116881562	-3.7424477562	-0.5665168958	 0.115675
H	 0.3086560774	-2.9297062454	 0.90442529	 0.113417
H	-1.7077024315	-4.6959588933	 1.5979111136	 0.252149
60.0666	78.6307	116.8613	152.7799	206.5761	257.0731	265.2875	341.5353	419.3879	450.93	564.6315	631.7295	735.5979	780.5051	863.5189	870.8961	907.2154	927.2351	989.129	1023.8421	1068.8773	1069.2812	1086.1061	1107.1026	1150.458	1154.7642	1168.8032	1187.7654	1252.0898	1274.4172	1295.0239	1323.1723	1382.6374	1424.7805	1466.2398	1499.3606	1519.7396	1525.6466	1892.0552	2955.6046	2987.9256	3032.9409	3077.7223	3129.0383	3152.94	3218.7894	3628.5992	3825.9646
OCC1CC11CNC1=O	OC[C@H]1C[C@]21CNC2=O	
InChI=1S/C6H9NO2/c8-2-4-1-6(4)3-7-5(6)9/h4,8H,1-3H2,(H,7,9)	InChI=1S/C6H9NO2/c8-2-4-1-6(4)3-7-5(6)9/h4,8H,1-3H2,(H,7,9)/t4-,6-/m1/s1
