12
gdb 131989	2.89796	1.61205	1.03662	1.351	61.49	-0.2565	-0.0937	0.1628	1021.3011	0.077825	-505.852703	-505.845468	-505.844524	-505.884661	26.647	
N	 0.0237875964	 1.3834270167	 0.1369346196	-0.592644
C	 0.0261270055	 0.0324461838	 0.0435992982	 0.409279
N	-1.076330246	-0.6933814756	 0.0180643014	-0.229375
O	-0.6373537038	-2.0422055397	-0.0218500911	-0.156994
C	 0.6786888407	-2.0873298689	-0.0247610769	 0.073991
C	 1.1816055359	-0.8211135408	 0.0114381914	 0.155761
N	 2.5527421284	-0.4452087873	-0.0095397119	 0.340491
O	 3.393299242	-1.3358485979	-0.0071532774	-0.364916
O	 2.8029409415	 0.7635553172	-0.0352579192	-0.390142
H	 0.8955045683	 1.8417908974	-0.076701122	 0.286325
H	-0.8370889897	 1.8629314645	-0.0688932205	 0.274268
H	 1.1550192809	-3.0543319394	-0.0573726818	 0.193955
90.6977	196.677	216.1991	308.9339	348.033	397.9414	442.1081	490.0255	565.6397	582.1265	711.6723	730.5988	789.7106	843.8333	889.01	898.2226	909.8111	1119.3072	1177.2943	1223.9247	1326.0843	1421.1025	1473.6272	1531.6824	1590.1312	1631.1447	1668.9855	3279.1293	3589.7303	3717.8602
NC1=NOC=C1N(=O)=O	Nc1nocc1N(=O)=O	
InChI=1S/C3H3N3O3/c4-3-2(6(7)8)1-9-5-3/h1H,(H2,4,5)	InChI=1S/C3H3N3O3/c4-3-2(6(7)8)1-9-5-3/h1H,(H2,4,5)
