17
gdb 63131	2.31709	1.57836	1.16344	3.6472	70.54	-0.2397	-0.0251	0.2146	1082.9902	0.13331	-458.922232	-458.913466	-458.912522	-458.955328	32.697	
C	 0.0038835398	 1.5973012294	-0.0704357983	-0.462302
C	 0.0274461196	 0.0917145152	 0.0303065701	 0.284216
O	-1.1316190409	-0.5574499667	-0.4247984923	-0.456101
C	 1.2644905126	-0.7243719557	-0.1459286204	-0.008458
O	 2.4312223416	-0.0800482325	 0.3280195646	-0.275605
C	 1.8993932463	-0.0492206928	 1.6884259719	-0.15601
C	 0.5768089389	-0.6579898146	 1.2469511522	 0.13227
C	-0.1485322208	-1.6908875192	 1.9976776897	 0.055982
O	 0.1959462897	-2.0628824287	 3.0986455575	-0.281549
H	 0.9702870548	 2.027967944	 0.1969583409	 0.146473
H	-0.213281877	 1.8933280985	-1.1037500796	 0.115944
H	-0.7728658839	 2.0178675874	 0.5744299288	 0.134419
H	-1.1865327254	-0.4336595619	-1.379157304	 0.292658
H	 1.3614550445	-1.5546330623	-0.8384343213	 0.121408
H	 2.4613396637	-0.7244910911	 2.3386271437	 0.141517
H	 1.8902173205	 0.9613887472	 2.1078251362	 0.116047
H	-1.0341478639	-2.1140619061	 1.4875527801	 0.09909
100.967	178.6991	192.8802	213.3341	253.7647	274.6304	286.9104	336.3894	387.8991	426.3169	548.7825	567.0297	647.3715	717.8535	785.5263	886.7285	952.7649	957.6982	992.6789	1008.0276	1034.9373	1058.8133	1086.865	1134.8658	1156.6467	1199.4298	1231.9446	1301.5083	1314.6728	1349.1096	1410.6147	1413.4358	1452.363	1488.8302	1495.9452	1519.1652	1781.8075	2959.3341	3035.4653	3052.2892	3101.4443	3111.8408	3143.9319	3168.8392	3796.111
CC1(O)C2OCC12C=O	C[C@@]1(O)[C@H]2OC[C@@]12C=O	
InChI=1S/C6H8O3/c1-5(8)4-6(5,2-7)3-9-4/h2,4,8H,3H2,1H3	InChI=1S/C6H8O3/c1-5(8)4-6(5,2-7)3-9-4/h2,4,8H,3H2,1H3/t4-,5-,6-/m1/s1
