12
gdb 43425	3.10932	1.55079	1.03472	3.3968	68.23	-0.2781	-0.1259	0.1521	1033.7559	0.077947	-472.678737	-472.671627	-472.670682	-472.710931	25.918	
N	-0.1161601243	 1.3164707312	 0.2383219487	-0.479536
C	-0.0656891509	 0.0856506948	-0.0559394103	 0.405044
O	 1.1152192696	-0.4854217178	-0.4864427535	-0.250709
C	 1.2487093442	-1.8157087045	-0.825400879	 0.348329
O	 2.3072059732	-2.2195643311	-1.1869983943	-0.263021
C	-0.0079979261	-2.709271576	-0.7107110483	 0.231634
O	 0.0787996786	-3.8779713212	-1.0007509197	-0.272167
C	-1.2394393517	-2.0636923568	-0.2495411431	-0.164906
C	-1.25202506	-0.7585215413	 0.0525427354	-0.110622
H	 0.7965823917	 1.7579873138	 0.1073444202	 0.249129
H	-2.1200302664	-2.691326708	-0.169323207	 0.148562
H	-2.1406369177	-0.2429289432	 0.3965610409	 0.158263
64.1804	125.8357	268.6807	342.0303	380.6947	445.8404	446.8841	492.9227	608.5412	640.3999	674.3965	800.9397	808.3496	892.124	929.5408	934.7838	1036.869	1071.5436	1107.9909	1152.8944	1269.5896	1347.9504	1406.2208	1670.682	1721.3839	1793.2144	1879.1307	3201.8362	3222.6616	3476.5466
N=C1OC(=O)C(=O)C=C1	[NH]C1=C[CH]C(=O)C(=O)O1	
InChI=1S/C5H3NO3/c6-4-2-1-3(7)5(8)9-4/h1-2,6H	InChI=1S/C5H3NO3/c6-4-2-1-3(7)5(8)9-4/h1-2,6H
