19
gdb 52769	3.45545	1.04441	0.88674	2.2048	85.3	-0.2321	0.0439	0.276	1365.5508	0.157017	-385.798139	-385.78894	-385.787996	-385.833206	33.892	
C	 0.0503574134	 1.5148991234	-0.0680038203	-0.50509
C	 0.0362636062	 0.0594416932	-0.0316735433	 0.143115
C	 0.0196594809	-1.1454740443	 0.0028549114	-0.086775
C	 0.0451243887	-2.5990697658	 0.0035403805	 0.20831
C	 1.1079834767	-3.1488195398	-0.946659173	-0.482955
C	-0.1314138943	-3.3511397643	 1.3784056414	 0.018801
C	-1.5886529272	-2.849161349	 1.4820055399	-0.241219
C	-1.328200057	-3.3727966415	 0.0522480739	 0.018784
O	-0.627469415	-4.5334551558	 0.6421123595	-0.31839
H	 0.8576709804	 1.8891079966	-0.7072164243	 0.149816
H	-0.8927169964	 1.9127012114	-0.4591736807	 0.148925
H	 0.1974609754	 1.9371488121	 0.9323397244	 0.148787
H	 2.0993396988	-2.7859645176	-0.6585206026	 0.12086
H	 1.1030559748	-4.2390371511	-0.9245127453	 0.140497
H	 0.9171270084	-2.8072099375	-1.9685926568	 0.120876
H	 0.6123802893	-3.5168820752	 2.1589935504	 0.095881
H	-2.2402005865	-3.4854602032	 2.080383415	 0.106863
H	-1.7637382704	-1.7827564706	 1.6225331185	 0.117035
H	-2.0257105868	-3.5646402711	-0.7642638892	 0.095879
24.0178	96.1555	103.0976	223.4124	243.0955	290.8246	316.1821	331.697	463.6682	494.2831	503.5915	570.1265	677.964	729.5653	809.9047	844.181	870.5748	893.5656	918.4597	1017.8894	1018.0374	1052.9856	1053.0505	1058.574	1101.6545	1107.1505	1149.1246	1168.6672	1186.1718	1207.4226	1260.1517	1268.2545	1295.5609	1392.2559	1414.6605	1477.7618	1478.3785	1479.7636	1491.1825	1498.9758	2359.3997	3026.1184	3045.318	3086.3433	3087.5613	3087.9206	3106.4353	3107.9242	3116.2167	3148.5094	3168.9057
CC#CC1(C)C2CC1O2	CC#C[C@@]1(C)[C@H]2C[C@@H]1O2	
InChI=1S/C8H10O/c1-3-4-8(2)6-5-7(8)9-6/h6-7H,5H2,1-2H3	InChI=1S/C8H10O/c1-3-4-8(2)6-5-7(8)9-6/h6-7H,5H2,1-2H3/t6-,7+,8+
