16
gdb 125982	3.74799	1.33094	1.04628	4.5933	73.22	-0.2228	-0.0006	0.2223	1125.3638	0.125155	-434.025268	-434.017497	-434.016553	-434.057916	28.894	
C	-0.3510780087	 1.4956613973	 0.1323018529	-0.403532
C	 0.0109539194	 0.0224431318	-0.0044083133	-0.135331
C	 0.8369622979	-0.3913926833	-1.2950907215	-0.184006
N	 1.9711598713	-0.6634554727	-0.3835043793	-0.099363
C	 1.2441450127	-0.4720438055	 0.7466419312	 0.410488
N	 1.7613528581	-0.9243517817	 1.8314589379	-0.255644
O	 3.0084711663	-1.4969157152	 1.3291662107	-0.263547
C	 3.0685380941	-1.4432699961	-0.0580488405	 0.464962
N	 3.9321512412	-1.9548692358	-0.8234575413	-0.595361
H	 0.5224914044	 2.1331762767	-0.0329033102	 0.13788
H	-1.1192971914	 1.7676311234	-0.5978075529	 0.131817
H	-0.7418772852	 1.706082934	 1.131546876	 0.14538
H	-0.8584253657	-0.6167660552	 0.164328917	 0.124885
H	 0.4699506678	-1.284256982	-1.8062246891	 0.146524
H	 1.0366117706	 0.4059630789	-2.0135064872	 0.13988
H	 4.623543257	-2.4771730946	-0.2901006404	 0.234968
81.2528	107.6482	213.6529	224.9496	270.0257	351.3107	421.6947	552.5303	642.6666	689.4154	703.5848	735.3603	761.0422	771.8391	815.8621	876.1229	917.858	973.261	995.74	1086.933	1122.2959	1136.1687	1178.8751	1185.7364	1236.9051	1261.2432	1330.2036	1356.8366	1412.0631	1435.4744	1494.1684	1496.2158	1512.0556	1685.7886	1784.3608	3043.8273	3072.0508	3092.8106	3118.218	3123.3587	3134.1802	3530.9494
CC1CN2C1=NOC2=N	C[C@H]1CN2C1=NO[C@@H]2[NH]	
InChI=1S/C5H7N3O/c1-3-2-8-4(3)7-9-5(8)6/h3,6H,2H2,1H3	InChI=1S/C5H8N3O/c1-3-2-8-4(3)7-9-5(8)6/h3,5-6H,2H2,1H3/t3-,5+/m0/s1
