15
gdb 10474	3.35865	1.27252	1.00095	4.4186	75.87	-0.2502	0.0149	0.2652	1176.1277	0.117383	-325.505	-325.496337	-325.495393	-325.539897	29.883	
C	-0.0016811072	 1.4541135914	 0.0042597097	-0.502589
C	 0.0083395823	-0.0008268145	 0.0097581442	 0.135152
C	 0.0245368261	-1.2045311789	 0.0096633622	-0.038926
C	 0.0409017555	-2.6435665979	 0.0113337492	 0.042199
C	-0.5239388667	-3.3947540717	 1.2268366196	-0.281806
C	-1.2922321758	-3.4049811706	-0.0501286692	-0.281809
C	 1.1633770426	-3.2609739958	-0.6590568694	 0.223908
N	 2.0556892466	-3.7682413023	-1.1918577731	-0.343967
H	 0.8868161253	 1.8456346558	-0.5026165929	 0.159963
H	-0.8815927709	 1.8458721973	-0.5174331422	 0.152413
H	-0.0078260679	 1.857370687	 1.0227058587	 0.15236
H	-0.0007592872	-4.2952979866	 1.5248406465	 0.14807
H	-0.8700129268	-2.7673465636	 2.0386986848	 0.143479
H	-2.1760292828	-2.7847202141	-0.1320190922	 0.143486
H	-1.304046593	-4.3126489754	-0.6413160061	 0.148068
16.3029	83.4915	129.085	191.4383	219.945	300.2418	301.9276	455.9487	478.1795	532.0019	595.5938	598.0426	780.3438	838.9749	854.9474	960.8461	965.2913	1050.1246	1054.2368	1069.3411	1081.298	1095.2649	1199.2223	1271.3235	1336.6044	1414.3848	1462.6663	1475.0703	1477.5473	1489.2749	2354.9649	2375.3347	3029.5905	3090.9571	3094.4515	3151.1987	3154.2534	3240.7607	3254.8607
CC#CC1(CC1)C#N	CC#CC1(CC1)C#N	
InChI=1S/C7H7N/c1-2-3-7(6-8)4-5-7/h4-5H2,1H3	InChI=1S/C7H7N/c1-2-3-7(6-8)4-5-7/h4-5H2,1H3
