18
gdb 44504	4.08873	1.39906	1.21878	2.5473	75.61	-0.2379	-0.0177	0.2202	1029.8116	0.150043	-401.905743	-401.898972	-401.898027	-401.9371	27.554	
O	 0.0193422342	-0.0515174895	 0.3221203663	-0.31111
C	-0.0083669124	 1.1293656219	 0.0730085064	 0.384655
C	-1.296176095	 1.9195535793	-0.0793978742	-0.354532
C	-1.1174369308	 3.1568442738	-0.944236036	 0.045876
C	-0.0904395891	 3.1936181225	-2.108517343	-0.097413
C	-0.1157430854	 4.7153403566	-1.8796454598	-0.168643
N	-0.0774647794	 4.1854816107	-0.4354063186	-0.168949
C	 0.9812665812	 3.1975680305	-0.9846477814	 0.045852
C	 1.2410112165	 1.9687830201	-0.1282535091	-0.354519
H	-2.0751371107	 1.2588322665	-0.4719311677	 0.130743
H	-1.6220902646	 2.2350893212	 0.9218822215	 0.142774
H	-2.0814534219	 3.6340731915	-1.1465386141	 0.077895
H	-0.0977678591	 2.6354221729	-3.051722071	 0.069733
H	 0.7714102705	 5.2927546261	-2.1523980462	 0.103098
H	-1.0346472217	 5.2574755349	-2.1174687393	 0.10312
H	 1.9175549021	 3.7116581882	-1.2235440089	 0.077894
H	 1.5927355763	 2.2974649998	 0.8599788965	 0.142778
H	 2.0293229792	 1.338470053	-0.5509667315	 0.130748
67.9961	224.4093	333.6013	399.9454	413.6053	470.7917	517.8974	623.3797	713.3362	744.8641	766.0434	768.8958	832.4455	836.4338	846.9003	913.0803	984.5785	1007.2996	1025.336	1056.7809	1073.8021	1109.1313	1132.3447	1154.4823	1184.0958	1191.7776	1216.5246	1220.5993	1226.5936	1248.0147	1299.1846	1302.7622	1330.6253	1405.7964	1431.8926	1432.8137	1439.6552	1530.555	1829.3259	3021.9166	3024.4892	3034.6418	3052.2309	3054.4467	3064.1752	3090.4289	3091.1288	3120.0836
O=C1CC2C3CN2C3C1	O=C1C[C@@H]2[C@H]3CN2[C@H]3C1	
InChI=1S/C7H9NO/c9-4-1-6-5-3-8(6)7(5)2-4/h5-7H,1-3H2	InChI=1S/C7H9NO/c9-4-1-6-5-3-8(6)7(5)2-4/h5-7H,1-3H2/t5-,6-,7+
