22
gdb 6107	4.0251	0.95313	0.81134	1.8703	75.64	-0.2516	0.0766	0.3282	1468.427	0.19675	-387.342406	-387.3318	-387.330856	-387.378523	37.748	
C	 0.1517095331	 0.5370994698	-0.7917681941	-0.397665
C	 0.0833858317	-0.1093018509	 0.5881706752	 0.112792
O	 0.3677418683	 0.8155535436	 1.632614785	-0.430717
C	-1.2658014766	-0.7837364286	 0.8565533942	-0.072581
O	-1.4598266957	-1.8044343048	-0.0962100198	-0.259883
C	-2.7422430976	-2.4243282656	-0.0842776932	 0.165488
C	-2.8783854408	-3.1567018129	-1.4146527895	-0.388578
C	-2.9107073463	-3.3668749909	 1.1111015118	-0.392683
H	 1.1365832693	 0.9811049812	-0.9595182216	 0.12026
H	-0.0467903404	-0.2040391209	-1.5695710028	 0.135537
H	-0.6035339048	 1.3294400159	-0.882965742	 0.098319
H	 0.8618692539	-0.8767129661	 0.6677748442	 0.098662
H	-0.2107914487	 1.5768656972	 1.5131675551	 0.276839
H	-1.2613024575	-1.1703849675	 1.8858514063	 0.097353
H	-2.0745848649	-0.0317734182	 0.7888622377	 0.066768
H	-3.5127107007	-1.6360064384	-0.0273490788	 0.062119
H	-2.1114401529	-3.9332271879	-1.4996263371	 0.123033
H	-3.8608505322	-3.6308738552	-1.4971196212	 0.111833
H	-2.7542111347	-2.4608802454	-2.2485932881	 0.118862
H	-2.8269293895	-2.8355814409	 2.0631613164	 0.118239
H	-3.8949926535	-3.8452310133	 1.0840131484	 0.113796
H	-2.1449218892	-4.1489556201	 1.0853714739	 0.122207
33.9262	67.8591	124.3777	152.7281	203.9086	239.5806	245.0268	274.0924	280.2889	322.9021	392.1536	432.8235	451.4381	469.991	536.2875	825.6658	855.4389	925.5158	930.7056	934.5527	947.5503	971.8056	1079.7593	1116.7209	1134.189	1154.6802	1163.3467	1181.8385	1201.1229	1244.4092	1300.2559	1355.6171	1366.6021	1375.2444	1395.2189	1397.8901	1412.504	1418.1418	1431.4989	1480.0211	1485.4692	1488.4338	1494.518	1496.3796	1508.5758	1520.265	2930.3889	2952.9738	3012.5663	3020.0014	3037.3369	3042.6314	3054.185	3100.0848	3107.5504	3113.6009	3116.4849	3121.7385	3134.3586	3798.0141
CC(O)COC(C)C	C[C@@H](O)COC(C)C	
InChI=1S/C6H14O2/c1-5(2)8-4-6(3)7/h5-7H,4H2,1-3H3	InChI=1S/C6H14O2/c1-5(2)8-4-6(3)7/h5-7H,4H2,1-3H3/t6-/m1/s1
