19
gdb 103714	3.00976	1.14659	0.97218	1.9989	79.55	-0.2361	0.037	0.2731	1278.2772	0.154582	-422.971183	-422.960812	-422.959868	-423.005876	38.785	
C	 0.1657293228	 1.4597601687	 0.2822442454	-0.398104
C	-0.1915943641	 0.0207876093	-0.1075277548	-0.218713
C	 0.5952328634	-0.4663806404	-1.3095504825	 0.361177
O	 0.3368072276	 0.2298931406	-2.4972290513	-0.463247
C	 1.9877242128	-1.0315429536	-1.1365948606	-0.413758
C	 0.816253877	-1.950946523	-1.5020318867	 0.137572
O	 0.2904440557	-2.7614237174	-0.4836066561	-0.454133
C	 0.7712770369	-2.5261197168	-2.8203276707	 0.342784
C	 0.7465378714	-3.0771177021	-3.8888689945	-0.477322
H	 1.2252548082	 1.5507166536	 0.5466939606	 0.114161
H	-0.0408613013	 2.155658549	-0.5379788642	 0.112204
H	-0.4229934478	 1.787592132	 1.1437355554	 0.118754
H	-0.0200808796	-0.6566371341	 0.7320409846	 0.116731
H	-1.2579460524	-0.0422446624	-0.3537511881	 0.11165
H	 0.8486826095	 1.0453717619	-2.478539179	 0.285607
H	 2.7177558583	-0.8292083243	-1.9119777992	 0.122413
H	 2.3756225601	-1.1402641079	-0.1292918209	 0.118926
H	 0.793976916	-3.5832351895	-0.4797872606	 0.288358
H	 0.7057342054	-3.5423036535	-4.8424166469	 0.194941
81.1072	115.1366	132.1637	205.2753	215.507	245.3682	263.4365	286.2711	298.1657	385.7122	414.492	423.7734	463.4372	556.3211	592.1081	628.991	673.6862	720.8664	733.987	792.6493	898.9448	907.9772	923.9284	987.9884	1025.9071	1043.8897	1084.3852	1127.8867	1195.9052	1249.0502	1282.1985	1315.2338	1340.4256	1365.5481	1402.2114	1406.1502	1473.1078	1482.0622	1500.8134	1511.0148	2234.3913	3030.885	3046.5469	3089.6318	3107.8131	3116.5263	3131.9332	3232.1518	3502.8774	3798.9867	3808.9034
CCC1(O)CC1(O)C#C	CC[C@@]1(O)C[C@]1(O)C#C	
InChI=1S/C7H10O2/c1-3-6(8)5-7(6,9)4-2/h1,8-9H,4-5H2,2H3	InChI=1S/C7H10O2/c1-3-6(8)5-7(6,9)4-2/h1,8-9H,4-5H2,2H3/t6-,7-/m1/s1
