15
gdb 21003	5.259	1.36297	1.09738	3.3277	64.13	-0.2421	0.007	0.2491	1043.021	0.119256	-395.973293	-395.96524	-395.964295	-396.007053	27.439	
C	-0.0005826798	 1.4575445454	 0.0520405977	-0.330996
N	 0.0014305499	 0.0145931149	-0.0728391857	 0.075644
C	 0.0381314036	-0.7498061883	-1.1917682145	-0.171858
C	 0.0195958921	-2.0402199044	-0.7197910641	 0.303844
C	 0.0438065857	-3.3226951444	-1.485155762	-0.175913
O	 0.0736618143	-3.0025799188	-2.8675905537	-0.421027
N	-0.0266387542	-2.0010189279	 0.6398617757	-0.265178
N	-0.037488806	-0.7572704366	 1.0304443746	-0.149819
H	 0.907499499	 1.8846826645	-0.3824849375	 0.147102
H	-0.8742969154	 1.887545069	-0.4455238873	 0.147151
H	-0.0378513482	 1.6884915344	 1.116514711	 0.169936
H	 0.0722066907	-0.3408505221	-2.1860546943	 0.153222
H	 0.924608675	-3.9122939561	-1.1860864481	 0.112243
H	-0.8432512748	-3.9214000208	-1.2255288128	 0.11256
H	 0.0968670381	-3.8252712688	-3.363760619	 0.293088
28.7654	92.6332	164.9504	167.5455	228.2831	309.7745	357.3024	469.1961	637.2045	651.9838	709.8978	769.7571	797.4902	1028.2797	1048.8936	1050.4839	1068.3155	1089.2901	1151.4062	1152.0435	1219.2831	1235.7505	1289.9858	1310.4329	1360.188	1441.1742	1469.8728	1484.8714	1485.5856	1512.9506	1516.0086	1605.188	2975.1055	2996.8824	3049.6822	3114.48	3163.925	3299.4179	3842.8546
CN1C=C(CO)N=N1	Cn1cc(CO)nn1	
InChI=1S/C4H7N3O/c1-7-2-4(3-8)5-6-7/h2,8H,3H2,1H3	InChI=1S/C4H7N3O/c1-7-2-4(3-8)5-6-7/h2,8H,3H2,1H3
