19
gdb 104130	3.75997	1.04273	0.99149	3.3915	70.99	-0.2663	0.0056	0.2718	1261.7423	0.158292	-460.214621	-460.205563	-460.204619	-460.248375	33.945	
C	-0.0548929905	 1.6136122353	-0.043717597	-0.394527
C	-0.0747172552	 0.0815721775	-0.055664379	-0.210918
C	 0.7287062705	-0.5368697357	-1.1989608759	 0.355607
O	 0.129750737	-0.0799311951	-2.4098556052	-0.475762
C	 2.2341150339	-0.1912416704	-1.1793544067	-0.126212
O	 2.8833927876	-1.2538457706	-1.8992464994	-0.226732
C	 2.1150504922	-2.3858392417	-1.8840359708	 0.405694
O	 2.484358108	-3.4115464386	-2.3731129047	-0.328887
C	 0.8004698903	-2.0724832369	-1.1791248062	-0.404433
H	 0.953195649	 2.0051728824	 0.1312983817	 0.11498
H	-0.4110164986	 2.0096246858	-0.9972941409	 0.142582
H	-0.6978308535	 2.0001032455	 0.7520296661	 0.117329
H	 0.3101236828	-0.3112463586	 0.8925161251	 0.097217
H	-1.1075398284	-0.2725433811	-0.149179811	 0.11513
H	 0.6589710196	-0.3855023195	-3.1553381946	 0.290315
H	 2.4509553853	 0.7477548289	-1.6910811287	 0.131671
H	 2.6354807573	-0.15141642	-0.1597189688	 0.114386
H	 0.8594812141	-2.4633799452	-0.1568935168	 0.13692
H	-0.0419262915	-2.5497480219	-1.6806657471	 0.14564
83.3091	106.1673	160.1996	195.8124	225.7558	322.0186	340.6199	352.5729	398.8948	420.3828	539.9552	557.9882	622.7731	694.9427	785.5368	811.965	848.8535	903.6402	932.7005	972.2681	1017.4953	1055.3847	1064.6893	1092.2009	1125.7666	1152.9657	1190.018	1224.4388	1244.8248	1268.1949	1332.0921	1353.6924	1378.061	1409.6104	1417.508	1447.6294	1477.8735	1498.8574	1509.4009	1511.4675	1889.15	3034.3873	3039.3716	3041.2145	3056.8858	3074.3879	3105.563	3123.2919	3133.3402	3136.4626	3799.4342
CCC1(O)COC(=O)C1	CC[C@@]1(O)COC(=O)C1	
InChI=1S/C6H10O3/c1-2-6(8)3-5(7)9-4-6/h8H,2-4H2,1H3	InChI=1S/C6H10O3/c1-2-6(8)3-5(7)9-4-6/h8H,2-4H2,1H3/t6-/m0/s1
