12
gdb 21457	6.30241	1.48057	1.19892	4.1285	59.75	-0.2352	-0.0248	0.2104	913.683	0.086606	-406.997871	-406.991156	-406.990212	-407.02994	23.399	
N	 0.2636356984	 1.2998758785	 0.0057687272	-0.407037
C	 0.0355727129	 0.0535084279	 0.0019889277	 0.074749
N	-1.2300920067	-0.5081679648	 0.0115978168	-0.375932
C	-2.4616012222	 0.1065799731	 0.0271441631	 0.521927
N	-3.5739810876	-0.6303626138	 0.0374094095	-0.306238
N	-4.4940454866	 0.3302168614	 0.0494062435	-0.065737
N	-4.0164145663	 1.5585037441	 0.0474954317	-0.089534
N	-2.7101239744	 1.4423663992	 0.0339979116	-0.246837
H	 1.267271878	 1.4688066048	-0.0032801447	 0.228656
H	 0.7934182104	-0.7396413788	-0.0092811733	 0.094477
H	-1.2798759471	-1.513860152	 0.0083988247	 0.268977
H	-5.4834725487	 0.1347419005	 0.0592750721	 0.302529
30.6886	173.2032	176.0756	364.6114	365.9572	496.5291	545.1595	625.9292	723.6648	778.4599	808.1192	823.8941	1024.6797	1049.6249	1051.6445	1119.5508	1146.2223	1191.2363	1230.7305	1273.6416	1363.8478	1419.3352	1479.3841	1521.4893	1626.3872	1744.6959	3040.2341	3511.6157	3653.908	3655.2515
N=CNC1=NNN=N1	N=CNc1n[nH]nn1	
InChI=1S/C2H4N6/c3-1-4-2-5-7-8-6-2/h1H,(H3,3,4,5,6,7,8)	InChI=1S/C2H4N6/c3-1-4-2-5-7-8-6-2/h1H,(H3,3,4,5,6,7,8)
