15
gdb 11208	3.8824	1.53021	1.42665	2.4341	61.11	-0.2397	-0.0408	0.1989	900.721	0.118619	-399.824021	-399.816658	-399.815714	-399.856342	26.545	
O	 0.5709976828	-0.1952968876	 0.3383570279	-0.244183
C	 0.2650727507	 0.9688240533	 0.380814931	 0.150363
C	 1.1880483543	 2.1028487234	-0.0552147061	-0.085356
C	 1.4424919225	 3.1007498848	 1.0878762	-0.343008
C	 2.778106564	 2.6369491308	 1.6838640079	 0.413819
O	 3.2725514071	 3.0340213411	 2.7036260239	-0.29966
C	 3.3528096943	 1.5749286817	 0.7492495992	-0.274244
N	 2.5223770167	 1.654461367	-0.4557579679	-0.305662
H	-0.7443581441	 1.2917724175	 0.7268899593	 0.084707
H	 0.6762587841	 2.5949893611	-0.8959243581	 0.107297
H	 1.5710514635	 4.1185769458	 0.706197568	 0.150501
H	 0.6615951366	 3.1315269182	 1.8521892144	 0.137324
H	 4.4077923088	 1.7761330462	 0.5381924901	 0.136399
H	 3.2941448432	 0.6075262593	 1.2743812783	 0.135264
H	 2.4543021156	 0.7489138975	-0.9080887481	 0.236439
58.6627	120.5523	145.1677	274.837	327.6098	453.8355	476.9834	564.1916	635.5965	704.7758	760.2886	787.8887	837.3323	871.2859	934.5859	1007.5539	1030.8624	1078.7507	1133.6235	1160.0041	1193.2853	1214.4548	1222.6652	1282.4092	1329.6067	1342.7456	1407.1967	1451.146	1463.3552	1480.8765	1825.7819	1862.077	2865.987	2979.976	2996.8152	3063.3427	3074.0956	3111.2586	3536.4709
O=CC1CC(=O)CN1	O=C[C@H]1CC(=O)CN1	
InChI=1S/C5H7NO2/c7-3-4-1-5(8)2-6-4/h3-4,6H,1-2H2	InChI=1S/C5H7NO2/c7-3-4-1-5(8)2-6-4/h3-4,6H,1-2H2/t4-/m1/s1
