19
gdb 93933	3.37807	1.09587	1.00166	3.6702	73.73	-0.2389	0.0258	0.2647	1268.0261	0.159736	-456.353885	-456.344825	-456.343881	-456.388542	33.56	
C	-0.2543167169	 1.308696667	-0.2240735381	-0.410278
C	 0.076321618	-0.17222468	-0.200578459	 0.127256
C	 1.1884248752	-0.6261148762	-1.1454942642	-0.104182
O	 1.6944810699	-1.7877385747	-0.4964417343	-0.282827
C	 1.5541261462	-1.5752357903	 0.9002522162	 0.195985
O	 0.6193344208	-0.5215779245	 1.074326341	-0.279204
C	 1.0789489416	-2.8592985817	 1.576805001	 0.322628
N	 0.1667525678	-3.5761752457	 0.831344131	-0.539276
N	 1.5019072198	-3.082690404	 2.7588389804	-0.510445
H	 0.6429428318	 1.9063377821	-0.0385810477	 0.127138
H	-0.6736417098	 1.5912605093	-1.1952131566	 0.118022
H	-0.9911120931	 1.5464529583	 0.5473494671	 0.137132
H	-0.8315080126	-0.7662465003	-0.3893906	 0.078931
H	 0.8439962314	-0.9113594952	-2.1421599381	 0.114943
H	 1.9683572185	 0.1445502248	-1.2366936425	 0.101974
H	 2.5014402261	-1.2756503557	 1.3643068144	 0.101773
H	 0.27969276	-3.4822582775	-0.1678444339	 0.25673
H	-0.0379787731	-4.5124683621	 1.1465520002	 0.244706
H	 1.0937617885	-3.9360192735	 3.1481651831	 0.198994
35.4663	71.1816	158.2997	211.058	222.5263	302.3035	330.6583	412.6452	466.8832	474.6513	547.4793	577.254	611.8119	683.3812	774.4936	863.2398	880.6691	901.2285	919.6906	957.8006	993.7607	1035.9505	1101.0993	1117.155	1124.7521	1147.7997	1164.2099	1176.6387	1243.4237	1315.2736	1354.2636	1358.8396	1379.8753	1406.5653	1416.4564	1428.3673	1485.0858	1498.7416	1512.793	1620.2217	1743.2153	2979.4159	3001.2749	3042.2184	3043.726	3105.4263	3115.294	3125.8083	3436.3078	3563.3088	3675.8481
CC1COC(O1)C(N)=N	C[C@H]1CO[C@@H](O1)C(=N)N	
InChI=1S/C5H10N2O2/c1-3-2-8-5(9-3)4(6)7/h3,5H,2H2,1H3,(H3,6,7)	InChI=1S/C5H10N2O2/c1-3-2-8-5(9-3)4(6)7/h3,5H,2H2,1H3,(H3,6,7)/t3-,5-/m0/s1
