15
gdb 20817	4.87885	1.55761	1.29735	2.7102	68.73	-0.2351	-0.071	0.1641	943.5754	0.12031	-358.859587	-358.852472	-358.851528	-358.89192	25.43	
C	-0.3104946311	 1.5046180702	 0.1240146778	-0.375638
C	 0.1668276444	 0.0530940626	-0.0566109527	-0.268569
C	 0.8005518563	-0.4930154971	 1.1943888705	 0.339114
C	 0.1187622674	-1.3203648505	 2.0972816178	-0.047208
N	 0.6961817991	-1.7614942565	 3.2042192023	-0.228418
C	 1.958149657	-1.3501526014	 3.3712601278	 0.105158
N	 2.6579727109	-0.5721562728	 2.5485464566	-0.182343
N	 2.0652223854	-0.1388395842	 1.4401527921	-0.231092
H	 0.5282464522	 2.1478226555	 0.4040315709	 0.144035
H	-0.7429476224	 1.8855657147	-0.8054052252	 0.122626
H	-1.071365661	 1.5780559722	 0.9078003981	 0.120501
H	-0.6744781661	-0.5855524534	-0.3472498738	 0.108039
H	 0.9072538228	 0.0113133738	-0.8611679547	 0.131801
H	-0.9081583309	-1.6287232619	 1.908886056	 0.125031
H	 2.478625696	-1.6817632211	 4.2648582466	 0.136962
32.88	130.4796	221.7368	268.8146	354.4752	390.6557	516.0483	610.8765	649.7185	788.4748	807.6959	828.2939	942.3723	977.256	1008.753	1065.506	1066.1911	1081.4657	1103.737	1160.4301	1225.4954	1267.4998	1300.6419	1356.633	1404.6092	1417.8259	1445.8886	1480.1523	1496.781	1507.7156	1552.3955	1606.0367	3039.9385	3045.3149	3088.9288	3113.714	3124.8262	3144.6405	3185.2695
CCC1=CN=CN=N1	CCc1cncnn1	
InChI=1S/C5H7N3/c1-2-5-3-6-4-7-8-5/h3-4H,2H2,1H3	InChI=1S/C5H7N3/c1-2-5-3-6-4-7-8-5/h3-4H,2H2,1H3
