17
gdb 75791	2.28105	1.33239	1.22671	3.4152	68.61	-0.2714	-0.0499	0.2215	1124.3871	0.132726	-459.005689	-458.996348	-458.995404	-459.040262	33.081	
C	-0.5243116792	 1.1845183922	-0.1580512758	-0.422564
C	 0.0894357419	-0.2081460139	-0.0950892062	-0.245428
C	 1.4335491094	-0.4098470562	-0.7956468192	 0.456469
O	 1.9015340158	-0.2463078844	-1.8743440051	-0.317403
O	 2.0793486152	-0.8786376713	 0.3316156562	-0.295608
C	 0.8645868762	-0.6935638816	 1.1548253704	 0.31528
C	 1.1225715909	 0.2621157551	 2.3057078359	-0.455913
C	 0.4510018738	-2.0638131418	 1.6739805073	 0.120584
O	-0.6596087341	-2.5137657733	 1.5800541037	-0.236264
H	 0.1800637644	 1.9623779764	 0.1482698596	 0.128939
H	-0.8314409501	 1.4014888628	-1.1847973787	 0.148237
H	-1.4098714147	 1.2479585513	 0.4807354564	 0.134382
H	-0.6394991883	-0.9602573414	-0.4101588816	 0.136636
H	 1.5551094128	 1.1961999594	 1.9396990124	 0.144158
H	 0.1898147674	 0.4854173294	 2.8324496682	 0.144399
H	 1.8255649224	-0.179522843	 3.0190438608	 0.140013
H	 1.2790077263	-2.6243648097	 2.1608034956	 0.104083
52.5844	93.1207	165.9252	188.6189	204.3992	239.835	267.4292	301.9427	349.1798	418.7827	527.9585	558.2665	671.8301	708.1409	782.0893	835.8624	870.2681	929.9288	986.0824	1036.3156	1048.7957	1075.8985	1134.0283	1172.8046	1212.4075	1245.073	1275.6841	1367.5975	1402.1582	1406.7264	1416.9812	1479.3449	1487.2942	1499.106	1504.199	1837.0718	1941.3967	2901.3324	3043.4586	3048.4416	3081.0522	3115.2478	3120.3714	3123.2406	3131.9218
CC1C(=O)OC1(C)C=O	C[C@H]1C(=O)O[C@]1(C)C=O	
InChI=1S/C6H8O3/c1-4-5(8)9-6(4,2)3-7/h3-4H,1-2H3	InChI=1S/C6H8O3/c1-4-5(8)9-6(4,2)3-7/h3-4H,1-2H3/t4-,6+/m0/s1
