19
gdb 89912	4.51018	0.96308	0.93353	2.7598	78.05	-0.211	0.0253	0.2363	1316.3011	0.158868	-419.178463	-419.169598	-419.168654	-419.212582	32.812	
C	-0.2725494084	 1.5000248597	 0.1813789407	-0.324935
N	 0.0454585363	 0.0870426214	 0.0847090115	-0.069297
C	 1.008170135	-0.3586396992	-0.9640884356	-0.232786
C	 1.8358463529	-1.071413061	 0.114461665	 0.391349
C	 2.2949241177	-0.0725711057	 1.139158927	-0.296354
C	 0.8536612631	-0.5218219841	 1.1394969051	-0.098723
N	 2.3929297783	-2.3688062984	 0.0078428271	-0.402436
C	 3.7264359789	-2.6204306452	-0.1700728459	 0.13118
O	 4.6027994417	-1.7882622262	-0.2048230693	-0.308364
H	 0.6077740315	 2.1578562457	 0.2876078942	 0.097308
H	-0.8211851989	 1.8110154959	-0.7135477648	 0.12175
H	-0.9235265295	 1.664598489	 1.0463246216	 0.122227
H	 0.5374243178	-1.0284997922	-1.6926115262	 0.102299
H	 1.5301342898	 0.4451030208	-1.5001292226	 0.104572
H	 2.906904048	-0.4932640166	 1.9293844176	 0.128257
H	 2.5844264262	 0.9275382736	 0.8305856013	 0.116716
H	 0.3869318355	-1.0021082813	 1.9937188803	 0.097258
H	 1.7638980525	-3.1558640585	-0.0539980727	 0.247727
H	 3.9167782315	-3.7091718179	-0.2660042942	 0.07225
39.5716	106.7758	186.6241	202.1412	203.502	290.1187	335.6531	396.484	438.9283	494.9054	543.5944	586.0395	691.1939	810.1795	838.8269	883.2654	933.949	970.0275	982.4444	1004.1686	1032.0209	1054.8718	1072.252	1083.7354	1128.5655	1158.8582	1169.0148	1218.8028	1221.1716	1230.2459	1290.1511	1312.3463	1401.6443	1437.588	1451.1581	1481.572	1487.7005	1500.9059	1511.4109	1518.7266	1818.4063	2923.5033	2950.7786	3010.1441	3059.881	3060.9101	3101.2358	3128.5314	3159.0043	3219.6091	3601.9512
CN1CC2(CC12)NC=O	CN1C[C@]2(C[C@@H]12)NC=O	
InChI=1S/C6H10N2O/c1-8-3-6(7-4-9)2-5(6)8/h4-5H,2-3H2,1H3,(H,7,9)	InChI=1S/C6H10N2O/c1-8-3-6(7-4-9)2-5(6)8/h4-5H,2-3H2,1H3,(H,7,9)/t5-,6+/m1/s1
