14
gdb 97879	6.77144	0.54809	0.52294	3.9622	73.77	-0.2663	-0.0908	0.1755	1973.0752	0.097316	-436.658587	-436.64855	-436.647606	-436.696241	32.641	
O	-0.0208151764	 1.3185006704	 0.6619464201	-0.407787
C	-0.0118999344	 0.1574157842	-0.1567577727	-0.216244
C	-1.3431078282	-0.4363895015	-0.1725811549	 0.176782
C	-2.4328589754	-0.942638124	-0.1963450127	 0.029123
C	-3.7497127292	-1.5496546915	-0.2123772809	-0.476005
C	-3.7774310072	-2.9932974258	 0.2788776419	 0.305484
O	-2.8314070737	-3.6324063829	 0.6482820692	-0.237758
C	-5.1321031377	-3.5911028409	 0.2637887658	 0.218808
N	-6.1949737932	-4.0460148215	 0.2465204324	-0.291576
H	 0.8748743615	 1.6711990655	 0.6704392742	 0.293674
H	 0.2854036121	 0.3964054575	-1.1908500487	 0.121406
H	 0.7029845764	-0.594053261	 0.2152975999	 0.127906
H	-4.4587428991	-0.9821268896	 0.4082786183	 0.180739
H	-4.1926301554	-1.5433957888	-1.2195049519	 0.175448
18.2489	38.7687	69.3881	141.3337	158.475	214.5403	247.8237	269.4818	331.5564	385.0007	454.3194	554.9697	571.7458	599.0705	783.2512	834.594	937.3716	1025.8963	1051.4909	1061.8979	1158.4762	1214.548	1246.6573	1257.4857	1348.4226	1425.2911	1461.2794	1501.5981	1815.8253	2337.7844	2386.0514	2967.0103	2987.7372	3007.0303	3032.648	3819.8873
OCC#CCC(=O)C#N	OCC#CCC(=O)C#N	
InChI=1S/C6H5NO2/c7-5-6(9)3-1-2-4-8/h8H,3-4H2	InChI=1S/C6H5NO2/c7-5-6(9)3-1-2-4-8/h8H,3-4H2
