19
gdb 126428	2.85688	1.23592	0.93219	2.5919	78.24	-0.2078	0.0432	0.2511	1284.8699	0.158915	-419.241237	-419.231437	-419.230493	-419.276226	35.161	
C	 0.0246671572	 1.5370989204	 0.0833540941	-0.372307
C	-0.0722240884	 0.012002811	-0.0942917469	-0.28228
C	 0.7191735421	-0.5004647259	-1.2600854836	 0.293346
N	 0.107081595	-0.8137791103	-2.3973485733	-0.310405
N	 1.1114438932	-1.2082857038	-3.2251862578	-0.265102
C	 2.3189415739	-1.153686491	-2.625207452	 0.380373
O	 3.413677289	-1.5346452153	-3.3224968939	-0.430451
C	 2.1292774713	-0.6959032849	-1.3359981774	-0.000518
C	 3.1746947318	-0.4783180116	-0.2858157457	-0.52754
H	 1.0588889806	 1.8561135344	 0.248985554	 0.113756
H	-0.344075335	 2.0519898928	-0.8087496296	 0.126846
H	-0.5696624962	 1.8691941987	 0.9406375524	 0.109447
H	 0.2658306021	-0.4820553135	 0.8257027075	 0.096508
H	-1.1174853794	-0.274986447	-0.2442493773	 0.118086
H	 0.9091282149	-1.5199812517	-4.1590587128	 0.273371
H	 4.1902593784	-1.393842921	-2.7711829109	 0.308801
H	 3.460293055	 0.5754961426	-0.1768052444	 0.131782
H	 2.8318627362	-0.8214481314	 0.6962329181	 0.136041
H	 4.0928115883	-1.0381252025	-0.5059386604	 0.100246
54.1525	89.9452	119.9084	194.6628	214.7756	246.0308	249.6543	299.4706	314.0218	389.4887	477.6977	501.0658	579.4998	686.2167	698.5834	738.946	776.2924	797.3389	955.0383	976.1496	1051.9506	1058.615	1083.5676	1135.9514	1150.2235	1176.2854	1246.8519	1287.7247	1350.8762	1367.6459	1405.7346	1423.8031	1433.922	1474.6094	1482.6513	1493.3575	1497.4759	1501.1203	1518.1467	1584.0595	1646.1165	3010.4347	3024.8301	3035.3587	3057.5982	3080.8543	3081.9234	3104.9293	3114.137	3684.3181	3831.4722
CCC1=NNC(O)=C1C	CCc1n[nH]c(O)c1C	
InChI=1S/C6H10N2O/c1-3-5-4(2)6(9)8-7-5/h3H2,1-2H3,(H2,7,8,9)	InChI=1S/C6H10N2O/c1-3-5-4(2)6(9)8-7-5/h3H2,1-2H3,(H2,7,8,9)
