22
gdb 64490	3.24835	1.3762	1.19666	1.0705	87.15	-0.2209	0.0898	0.3107	1140.4173	0.194987	-367.119858	-367.111689	-367.110744	-367.152434	33.178	
C	 0.0404368037	 1.6496935757	 0.0078485306	-0.50408
C	 0.0467474168	 0.1180391687	-0.0110740143	 0.407282
C	 1.209790638	-0.6425386912	-0.7496312211	-0.084589
C	 2.1716583791	-0.1850576766	 0.3866973797	-0.239877
C	 0.8652790544	-0.6424312379	 1.0992865118	-0.083315
C	 0.9002035777	-1.8782979815	 0.1505638499	-0.218761
N	-1.2720052552	-0.4731601793	-0.2603391577	-0.111419
C	-2.5166926268	 0.2330237525	-0.0087622119	-0.231419
C	-2.0770313362	-0.0697120998	-1.4011453189	-0.236086
H	 1.0408378535	 2.0797412993	-0.0085432146	 0.122976
H	-0.4887130525	 2.0578705522	-0.8595150524	 0.1179
H	-0.4593708753	 2.0263336614	 0.9063785428	 0.122062
H	 1.4072285593	-0.638163808	-1.8240304761	 0.061722
H	 3.0385391191	-0.8302923031	 0.5461096217	 0.09161
H	 2.4635923508	 0.862696489	 0.4436482403	 0.087848
H	 0.6611118815	-0.6353496532	 2.172150836	 0.062522
H	-0.0390114214	-2.395531669	-0.0208383131	 0.114442
H	 1.7358894025	-2.5648963546	 0.3061207922	 0.079546
H	-3.2982796846	-0.3547246774	 0.4666705167	 0.112254
H	-2.4921858769	 1.2761845425	 0.2960866092	 0.108614
H	-1.7527977925	 0.7739451973	-2.0086143721	 0.107991
H	-2.5298874949	-0.8801510072	-1.9672930885	 0.112776
68.9644	161.6517	187.7242	253.728	301.7351	373.3548	434.179	468.6535	502.3333	583.0027	644.3926	769.1351	800.6996	805.5669	852.7273	866.1452	897.4679	902.1798	919.4987	966.4448	1003.0081	1012.4756	1024.5063	1035.7455	1064.5938	1091.7119	1106.0245	1108.5114	1120.0833	1131.7829	1148.1601	1169.4038	1184.2346	1189.7251	1196.4387	1204.7081	1241.8861	1248.2219	1283.2747	1332.121	1409.4111	1482.8867	1489.0079	1499.3163	1509.1193	1528.935	1546.0063	3042.4527	3070.3788	3071.0877	3083.0846	3090.1588	3094.4542	3096.6119	3103.8344	3131.4426	3152.6124	3166.7877	3180.4272	3185.2838
CC1(C2CC1C2)N1CC1	C[C@]1([C@H]2C[C@@H]1C2)N1CC1	
InChI=1S/C8H13N/c1-8(9-2-3-9)6-4-7(8)5-6/h6-7H,2-5H2,1H3	InChI=1S/C8H13N/c1-8(9-2-3-9)6-4-7(8)5-6/h6-7H,2-5H2,1H3/t6-,7+,8-
