20
gdb 103786	3.59376	0.78041	0.7165	1.4949	86.49	-0.2265	0.0412	0.2676	1660.6392	0.168041	-403.099229	-403.088166	-403.087222	-403.137333	38.057	
C	 0.4288818964	 1.3581476102	 0.1590582842	-0.501726
C	 0.1339939196	-0.0671763409	 0.1674088143	 0.15098
C	-0.1105421003	-1.2469429414	 0.1854527994	 0.094174
C	-0.3766126427	-2.658277609	 0.1738717102	-0.311007
N	-1.2741323979	-3.2181998721	 1.2297865199	-0.365611
C	-1.7147616393	-3.2383639394	-0.1672077105	 0.293239
C	-2.884020642	-2.3426788524	-0.5048477408	-0.449109
C	-1.7304158734	-4.5750977667	-0.9028343095	-0.161711
O	-0.6858317288	-5.4459660392	-0.4846669671	-0.409995
H	 1.5048867235	 1.5425541479	 0.2532916393	 0.147439
H	 0.0917621653	 1.8329960627	-0.7693472865	 0.145149
H	-0.0676243012	 1.8695311792	 0.9912879065	 0.149639
H	 0.4704982351	-3.2858383254	-0.0927800349	 0.116333
H	-0.9004997984	-4.1375072437	 1.4639322448	 0.217124
H	-2.7874341054	-1.3812999362	 0.0014946826	 0.143535
H	-2.9369509725	-2.15965809	-1.5842243233	 0.114901
H	-3.8268649513	-2.8049274203	-0.191222094	 0.113416
H	-2.7135045687	-5.0479914432	-0.7666817901	 0.099893
H	-1.6053079332	-4.3967189403	-1.9782794632	 0.118097
H	-1.0586645147	-6.1149911499	 0.0939725386	 0.295242
13.8968	76.7003	85.6827	106.3485	146.5081	170.1287	220.9213	253.1455	269.9844	349.7497	374.7719	387.8841	490.6876	514.4067	596.0534	705.6063	768.222	856.475	903.6796	956.4479	978.4905	1032.8838	1052.5026	1053.4148	1064.9374	1091.5516	1118.4865	1173.8819	1223.472	1237.9277	1306.6721	1325.2617	1379.7418	1412.2642	1414.0366	1420.0349	1446.4255	1477.7427	1478.7799	1488.4879	1489.8035	1502.8622	2369.0186	3000.4312	3024.6811	3031.6989	3050.0945	3083.4704	3086.3374	3090.2743	3138.5715	3140.6187	3470.78	3858.3237
CC#CC1NC1(C)CO	CC#C[C@H]1N[C@]1(C)CO	
InChI=1S/C7H11NO/c1-3-4-6-7(2,5-9)8-6/h6,8-9H,5H2,1-2H3	InChI=1S/C7H11NO/c1-3-4-6-7(2,5-9)8-6/h6,8-9H,5H2,1-2H3/t6-,7-/m1/s1
