17
gdb 41623	3.46302	1.67131	1.40475	1.3155	72.93	-0.2313	0.0176	0.2489	936.9252	0.139523	-417.96027	-417.953742	-417.952797	-417.991118	26.341	
C	 0.066041321	 1.5680564275	-0.1236607593	-0.20861
N	 1.5420145184	 1.2399599754	-0.1218626217	-0.355031
C	 1.2214094874	-0.0074537321	 0.4054256932	 0.359947
N	 1.6273775574	-0.7958711514	 1.3157549965	-0.308408
C	 0.4198970928	-1.5199991319	 1.7526295119	-0.050316
C	-0.1158565836	-0.9198341104	 3.0668460254	-0.06728
O	-1.0342944725	-0.0570377201	 2.3511637951	-0.294189
C	-0.830461537	-0.7721646279	 1.1176942795	 0.070865
C	-0.2201276505	 0.0307379407	-0.0226955749	-0.113238
H	-0.2493829375	 2.1087813369	 0.7722967881	 0.137643
H	-0.2675383962	 2.0743260213	-1.0307668774	 0.119789
H	 2.2049682361	 1.8288870155	 0.3703222683	 0.243999
H	 0.5139254375	-2.6062034072	 1.6918439376	 0.080843
H	-0.6540442433	-1.6331356159	 3.7051718105	 0.096735
H	 0.6074343854	-0.3531676452	 3.6604644312	 0.114261
H	-1.7059743283	-1.3710818995	 0.8457084056	 0.07128
H	-0.4272351272	-0.4110695958	-0.9998878196	 0.101708
155.9156	174.6055	245.5639	416.8975	440.8279	489.6435	635.9782	676.8653	716.7109	798.9681	803.7547	833.9467	880.3415	902.1703	920.3367	929.2378	971.3828	1001.1789	1033.6475	1054.5432	1079.1215	1113.6281	1144.4524	1169.4583	1178.1262	1193.9299	1222.5563	1226.1957	1299.4072	1313.1156	1328.939	1331.478	1347.9756	1373.5983	1498.8213	1510.7773	1752.4847	3013.0117	3049.1682	3064.9056	3087.0791	3090.2423	3093.7426	3133.5653	3545.0347
C1NC2=NC3COC3C12	C1N[C]2[N][C@H]3CO[C@H]3[C@@H]12	
InChI=1S/C6H8N2O/c1-3-5-4(2-9-5)8-6(3)7-1/h3-5H,1-2H2,(H,7,8)	InChI=1S/C6H8N2O/c1-3-5-4(2-9-5)8-6(3)7-1/h3-5H,1-2H2,(H,7,8)/t3-,4+,5+/m1/s1
