19
gdb 35316	4.34842	1.00597	0.91065	0.8705	89.13	-0.228	0.0175	0.2455	1318.6647	0.159046	-348.718716	-348.710363	-348.709419	-348.751812	32.865	
C	-0.039840132	-1.2477948691	-0.0391458082	-0.47158
C	-0.0167585601	-0.0457013947	-0.0241090495	 0.319732
C	 0.0162652094	 1.4125180138	-0.0003327148	-0.207123
C	-0.6444164258	 2.0388308984	 1.2713241957	-0.31315
C	 0.2291411484	 3.2525792991	 1.6106484423	 0.347443
C	-0.3395171735	 4.654907128	 1.7337998698	-0.310838
C	 0.1652877777	 3.9332216324	 2.9557149249	-0.319061
C	 1.5089321664	 3.0155416139	 0.8929131201	-0.137393
C	 1.4191082207	 2.0096019483	 0.0257574508	-0.090485
H	-0.0599780258	-2.3091541345	-0.0537037673	 0.192733
H	-0.5014990801	 1.7735288053	-0.9023165118	 0.110429
H	-1.6946252753	 2.2919179751	 1.1068174744	 0.105197
H	-0.6006783753	 1.3082578631	 2.0846569896	 0.119021
H	 0.246860305	 5.4804466404	 1.3440308899	 0.112757
H	-1.4117045495	 4.7742074053	 1.6152125713	 0.11386
H	-0.5648219328	 3.5640846127	 3.6691758828	 0.11345
H	 1.0946149409	 4.2681052948	 3.40526331	 0.112427
H	 2.3890458168	 3.6284696868	 1.0568586218	 0.097595
H	 2.203112055	 1.6529723107	-0.6304120719	 0.104984
51.9072	133.3347	181.4889	265.7919	295.9252	331.4902	442.2417	462.0574	528.9345	587.8363	615.6244	631.8447	676.1915	770.7317	780.2308	816.1816	851.7898	866.7772	927.8551	937.076	963.9276	982.8389	1010.3723	1033.3551	1057.3311	1062.2805	1078.3604	1127.6352	1184.5185	1191.5211	1267.9173	1271.0427	1289.7086	1315.709	1334.8094	1402.908	1467.03	1487.453	1500.5098	1678.4987	2234.53	2980.0282	3055.8781	3104.2231	3122.229	3126.4837	3183.7608	3201.1734	3217.0346	3219.0904	3505.6041
C#CC1CC2(CC2)C=C1	C#C[C@H]1CC2(CC2)C=C1	
InChI=1S/C9H10/c1-2-8-3-4-9(7-8)5-6-9/h1,3-4,8H,5-7H2	InChI=1S/C9H10/c1-2-8-3-4-9(7-8)5-6-9/h1,3-4,8H,5-7H2/t8-/m1/s1
