16
gdb 44418	3.68362	1.46185	1.43654	2.5671	70.97	-0.2669	-0.0087	0.2582	949.1139	0.124695	-437.754177	-437.747399	-437.746455	-437.785143	27.557	
N	-0.0291573662	 1.2373669083	 0.3179892177	-0.544797
C	 0.0365976569	 0.0302100215	 0.0213124855	 0.333507
O	 1.1748075381	-0.8036918543	-0.262944355	-0.307043
C	 0.2208187115	-1.677503089	-1.0365330911	 0.08812
C	-0.6980657296	-2.974417407	-1.0045651604	-0.007109
C	-0.7475770346	-3.467948249	 0.4331641448	-0.215598
C	-0.8970495996	-2.0736827935	 1.0969924848	-0.239768
C	-0.8610176054	-1.1941983122	-0.1795068356	 0.29248
O	-1.8120345143	-1.9688793829	-1.0602308203	-0.360604
H	 0.8941733648	 1.6715250902	 0.3606097381	 0.244871
H	 0.1916776648	-1.2785792966	-2.0497251913	 0.124815
H	-0.7243471614	-3.6661767345	-1.8459169808	 0.102561
H	-1.6071329383	-4.1198226695	 0.5995310536	 0.120126
H	 0.1615420234	-3.9997603408	 0.7249531067	 0.11625
H	-1.8563033215	-1.9329781642	 1.5991035711	 0.125457
H	-0.0948249186	-1.8348921165	 1.7964151221	 0.126732
139.9151	199.3637	293.7779	325.1963	440.4422	504.2718	534.0377	625.9912	674.0328	700.5414	743.9295	799.6306	823.9439	833.66	861.0386	876.2708	924.6281	946.8652	969.8358	997.0953	1015.1358	1081.2805	1124.0359	1148.9536	1183.791	1199.6613	1244.3602	1246.9943	1280.2135	1304.2426	1346.1648	1396.7142	1470.5916	1494.2116	1827.9749	3071.9572	3084.5816	3116.1819	3119.7653	3139.2072	3140.0501	3484.3571
N=C1OC2C3CCC12O3	[NH][C]1O[C@H]2[C@H]3CC[C@@]12O3	
InChI=1S/C6H7NO2/c7-5-6-2-1-3(9-6)4(6)8-5/h3-4,7H,1-2H2	InChI=1S/C6H7NO2/c7-5-6-2-1-3(9-6)4(6)8-5/h3-4,7H,1-2H2/t3-,4+,6+/m1/s1
