20
gdb 9349	7.41522	0.77649	0.71846	1.885	72.95	-0.2646	0.0217	0.2862	1632.1555	0.174663	-386.192464	-386.18235	-386.181406	-386.229117	34.197	
C	 0.1152659511	 1.4534634044	 0.008145431	-0.383512
C	-0.0245534125	-0.0713567577	 0.0011548446	-0.189158
C	-1.4807719869	-0.5067131106	 0.0130654763	-0.042378
O	-1.5115929328	-1.946128461	 0.0054339574	-0.249367
C	-2.7365707049	-2.5104769155	 0.0147978287	 0.44321
O	-3.7635803232	-1.8786019332	 0.0285839698	-0.355133
C	-2.6318133203	-4.0228705241	 0.0057884093	-0.301575
C	-3.9948099701	-4.7103095041	 0.0134571695	-0.3696
H	 1.1679647693	 1.7493534865	-0.0005362372	 0.119782
H	-0.3639364189	 1.9022795786	-0.8686944679	 0.120514
H	-0.3466338073	 1.8925882006	 0.8990650914	 0.120514
H	 0.4647002079	-0.4925675807	-0.8846479471	 0.108171
H	 0.4819508289	-0.5022082485	 0.8725069417	 0.108169
H	-2.0066551075	-0.1416552906	 0.9021660162	 0.117712
H	-2.0239638749	-0.131948906	-0.8614755354	 0.117703
H	-2.0411824996	-4.3102428002	-0.8722180532	 0.130378
H	-2.0269368831	-4.3194323031	 0.8709788188	 0.130416
H	-3.8755062021	-5.7973045437	 0.0070436044	 0.11045
H	-4.5693305698	-4.4301250247	 0.899909701	 0.131891
H	-4.583708163	-4.4213762562	-0.8606797093	 0.131813
28.9752	53.498	76.8251	109.2268	172.0546	216.9886	231.931	242.302	320.7128	340.2427	509.8077	580.7262	663.2481	760.1033	810.4462	879.2937	891.8329	926.8257	990.3677	1029.7886	1054.743	1104.0653	1107.1672	1147.9197	1189.4001	1217.3056	1269.6505	1277.5638	1313.0681	1333.3891	1377.0495	1413.1688	1416.6518	1425.7556	1459.3016	1491.9069	1493.2334	1500.0473	1500.4606	1505.334	1521.0845	1817.0845	3033.9921	3035.1923	3041.4209	3044.3694	3052.0243	3063.9678	3070.7435	3086.6566	3105.0145	3111.6854	3123.3445	3129.0528
CCCOC(=O)CC	CCCOC(=O)CC	
InChI=1S/C6H12O2/c1-3-5-8-6(7)4-2/h3-5H2,1-2H3	InChI=1S/C6H12O2/c1-3-5-8-6(7)4-2/h3-5H2,1-2H3
