23
gdb 120646	4.34916	0.71602	0.67881	1.5142	84.48	-0.2458	0.0829	0.3287	1774.7231	0.202242	-425.390318	-425.379257	-425.378313	-425.426947	39.255	
C	 0.1553570355	 1.2506581963	 0.3074664552	-0.223616
O	-0.016798537	-0.1438545634	 0.2606469129	-0.228394
C	-1.2933472779	-0.5204230449	-0.2178728606	-0.08961
C	-1.3522348493	-2.0226223619	-0.2758250989	-0.06686
C	-1.6914724629	-2.851146732	 0.9490166209	-0.342479
C	-2.6332125394	-2.8094129433	-0.2325638196	 0.415062
C	-3.9908053168	-2.14714604	-0.1237702397	-0.45888
O	-2.6012375035	-3.9173483986	-1.0977149084	-0.280852
C	-3.2605996581	-5.0697239018	-0.6123999823	-0.245334
H	 1.1636371011	 1.4448026358	 0.6815957921	 0.125937
H	 0.0512484682	 1.7118068273	-0.6882451833	 0.101498
H	-0.5716473045	 1.7325090357	 0.981798111	 0.099466
H	-2.0773918636	-0.1140056455	 0.4427646936	 0.078957
H	-1.4632523402	-0.0880311373	-1.2196967701	 0.087866
H	-0.6041317114	-2.4604754574	-0.9294746695	 0.102582
H	-1.1212541689	-3.7582803111	 1.1135202923	 0.115036
H	-1.9784804575	-2.3247438893	 1.8540924459	 0.10875
H	-3.9555061893	-1.2614078284	 0.5144224565	 0.119631
H	-4.3512996529	-1.847484546	-1.1134072139	 0.124489
H	-4.7281893211	-2.8292862294	 0.3120686809	 0.118513
H	-2.8923310333	-5.3616150838	 0.3814933713	 0.10602
H	-4.3502044696	-4.9380996671	-0.5529215621	 0.106407
H	-3.0488379075	-5.875090494	-1.320006194	 0.125812
56.8639	87.1221	90.0417	124.6176	176.7226	187.3102	221.6684	239.5482	284.137	319.0308	331.1755	380.0509	424.1652	476.7673	598.3459	693.8628	868.3839	879.7126	897.0775	941.6961	956.6982	983.7334	1041.5159	1064.6997	1096.2943	1122.7153	1133.3125	1152.6352	1175.5984	1181.3307	1193.2289	1219.3041	1227.2683	1250.2115	1278.8834	1316.2055	1386.4007	1413.0077	1439.7326	1472.6866	1480.1291	1480.6322	1481.6869	1485.9062	1495.9647	1502.7666	1509.6167	1514.2414	1524.9854	2944.0883	2964.6365	2973.4467	2990.3128	3004.0466	3036.3697	3042.6464	3097.7493	3111.6812	3113.5362	3123.8348	3130.0076	3162.8623	3219.2515
COCC1CC1(C)OC	COC[C@H]1C[C@]1(C)OC	
InChI=1S/C7H14O2/c1-7(9-3)4-6(7)5-8-2/h6H,4-5H2,1-3H3	InChI=1S/C7H14O2/c1-7(9-3)4-6(7)5-8-2/h6H,4-5H2,1-3H3/t6-,7+/m1/s1
