19
gdb 52088	5.03678	0.80214	0.77672	3.8018	79.04	-0.2347	0.0167	0.2515	1502.8487	0.15981	-419.115977	-419.107385	-419.106441	-419.151872	30.897	
N	-0.0966313612	 1.2841252937	 0.0503132836	-0.435927
C	-0.0542094543	 0.0236873987	 0.0175873983	 0.140678
O	-1.1972709441	-0.6892051709	 0.0257969657	-0.19078
C	-1.0583622555	-2.1114935732	-0.015425887	-0.243667
C	-2.4416643528	-2.7032326198	 0.0141379958	 0.316842
C	-3.6086200254	-2.5123443209	-0.981763575	-0.196617
N	-4.2224653012	-3.4763565558	 0.0518121949	-0.143256
C	-2.8585712491	-4.1899790148	-0.012216639	-0.220417
C	-3.5403521964	-2.5684813056	 1.0933582332	-0.196693
H	 0.8474496048	 1.6642194368	 0.0388283494	 0.229866
H	 0.8515472838	-0.5984018785	-0.0184385217	 0.084577
H	-0.5314717162	-2.4155208158	-0.9311879307	 0.109895
H	-0.4737792092	-2.4616552561	 0.84729423	 0.109789
H	-4.0973898184	-1.5363697852	-1.0153335709	 0.116441
H	-3.5114030056	-2.949048045	-1.9798081018	 0.099517
H	-2.7042988428	-4.753582054	-0.9368539976	 0.101951
H	-2.6450071943	-4.8022198032	 0.8686806172	 0.101937
H	-3.3785628468	-3.0582783859	 2.0578252294	 0.099472
H	-4.0241631252	-1.5966309944	 1.2116097962	 0.116394
12.2739	61.8543	102.8302	125.8823	290.1459	300.9584	350.5741	580.1176	582.2338	634.3116	694.8149	772.8741	797.7253	821.5092	903.1981	909.9035	942.5312	979.9815	982.7318	1022.5516	1032.0473	1043.6931	1051.6162	1137.1563	1159.869	1165.5364	1171.849	1175.2561	1198.3664	1202.3277	1270.3857	1282.89	1296.3344	1332.4941	1403.936	1428.1258	1502.636	1511.5268	1511.814	1565.9658	1750.2086	2988.7236	3018.5068	3033.9434	3044.8686	3052.3533	3060.2492	3112.0645	3125.3811	3129.706	3519.4875
N=COCC12CN(C1)C2	[NH][CH]OC[C@@]12CN(C1)C2	
InChI=1S/C6H10N2O/c7-5-9-4-6-1-8(2-6)3-6/h5,7H,1-4H2	InChI=1S/C6H10N2O/c7-5-9-4-6-1-8(2-6)3-6/h5,7H,1-4H2
