18
gdb 8415	3.57579	1.90847	1.60318	1.7557	66.96	-0.2331	0.0685	0.3015	868.4212	0.152242	-384.899584	-384.891694	-384.89075	-384.931055	30.983	
C	-0.0972136315	 1.5978964002	 0.0969856474	-0.449319
C	 0.0629428503	 0.0846071585	 0.1118232055	 0.399068
C	-1.2052955319	-0.624145354	-0.3493922782	-0.416748
O	 1.1889997569	-0.3798514016	-0.7335733564	-0.347904
C	 1.6803846906	-1.1945101427	 0.3393710099	 0.013729
C	 2.191141434	-0.3052737632	 1.4132594138	 0.11918
O	 2.7979555439	 0.915197729	 1.1242439588	-0.434632
C	 0.6961526591	-0.5891829706	 1.3357552736	-0.219703
H	 0.7889000223	 2.0993172642	 0.4858574608	 0.138524
H	-0.2934917051	 1.9457473216	-0.9230048289	 0.120955
H	-0.9519424346	 1.8851816908	 0.7184163322	 0.119565
H	-1.476426583	-0.294192546	-1.3569544691	 0.123816
H	-1.0624358842	-1.7077220075	-0.3652598319	 0.120882
H	-2.038709996	-0.394029742	 0.3232932084	 0.114719
H	 1.9878132209	-2.2078349266	 0.1047403719	 0.100319
H	 2.6720442395	-0.8069068701	 2.2491680191	 0.109134
H	 2.7170562782	 1.0247356588	 0.1666934826	 0.294
H	 0.1423032307	-1.0470214689	 2.1459618205	 0.094414
174.404	180.7372	203.3262	244.5076	287.6951	350.9982	387.2869	412.3	466.2599	596.1917	634.3879	686.4609	732.2766	799.969	837.0911	913.8172	929.9171	945.4214	978.4321	1007.3204	1027.417	1051.9178	1063.4469	1073.5452	1157.5426	1172.6705	1227.9279	1249.7226	1292.3982	1332.3568	1358.847	1399.6402	1414.2327	1452.3593	1476.4492	1482.0593	1496.0027	1512.6434	3034.224	3041.8475	3100.0554	3108.214	3121.2353	3149.7549	3151.4192	3167.6097	3190.5393	3751.5097
CC1(C)OC2C(O)C12	CC1(C)O[C@H]2[C@@H](O)[C@@H]12	
InChI=1S/C6H10O2/c1-6(2)3-4(7)5(3)8-6/h3-5,7H,1-2H3	InChI=1S/C6H10O2/c1-6(2)3-4(7)5(3)8-6/h3-5,7H,1-2H3/t3-,4+,5-/m1/s1
