19
gdb 117433	6.34722	0.56147	0.52259	3.3254	79.83	-0.2482	-0.017	0.2312	2065.8949	0.154423	-422.994491	-422.983592	-422.982648	-423.033131	36.742	
C	 0.0417327662	 1.4347145739	 0.1045169379	-0.226742
O	 0.0374068681	 0.0319119629	-0.027608085	-0.210331
C	 0.6194515587	-0.6161003526	 1.0597251072	-0.147312
C	 0.5736812921	-2.1299068617	 0.8654690786	 0.345618
O	 0.0440887712	-2.6450580815	-0.0870182295	-0.274962
C	 1.2468214188	-2.9390851418	 1.967593427	-0.303079
C	 1.0799435511	-4.4541042293	 1.7668527657	-0.358719
C	 1.7398528805	-5.2259866534	 2.8117219994	 0.28439
C	 2.2923311268	-5.8392981264	 3.6854921545	-0.428617
H	 1.0648269558	 1.835696554	 0.1819457521	 0.105897
H	-0.4320912987	 1.8439109681	-0.7902973279	 0.136136
H	-0.5239535596	 1.7639717298	 0.9905594151	 0.106084
H	 1.6732239121	-0.3130408089	 1.2067487653	 0.105141
H	 0.1017178919	-0.376959043	 2.0082006192	 0.106816
H	 2.3115927092	-2.6742594013	 1.9969859013	 0.137419
H	 0.843595723	-2.6318482128	 2.9405924125	 0.132884
H	 0.0123563924	-4.6985111021	 1.7332406658	 0.145931
H	 1.4736543625	-4.7308892458	 0.7829710167	 0.149589
H	 2.7748401479	-6.3979568079	 4.448496094	 0.193857
15.6197	49.3936	77.7397	85.6888	97.4988	179.771	234.4201	254.7195	330.788	343.7462	390.0633	473.9038	512.7193	620.6534	642.0263	697.3528	737.0216	881.2719	909.4955	945.617	993.3979	1052.9293	1066.7383	1096.7096	1171.2958	1174.942	1187.5212	1241.2715	1261.4619	1294.0401	1308.4987	1379.565	1409.176	1451.2467	1468.263	1471.102	1486.9075	1491.6417	1516.4824	1827.1025	2240.1587	2927.8926	2946.5356	2970.3947	3014.6984	3031.8462	3048.4523	3060.5335	3084.2605	3121.7726	3507.6307
COCC(=O)CCC#C	COCC(=O)CCC#C	
InChI=1S/C7H10O2/c1-3-4-5-7(8)6-9-2/h1H,4-6H2,2H3	InChI=1S/C7H10O2/c1-3-4-5-7(8)6-9-2/h1H,4-6H2,2H3
