19
gdb 58006	4.11019	0.65558	0.59943	1.7552	74.3	-0.2593	-0.0379	0.2215	1815.3048	0.154998	-460.192691	-460.182149	-460.181205	-460.230363	36.128	
C	-0.2626872803	 1.6570366826	 0.0651232548	-0.402782
C	 0.0136423797	 0.1424108601	 0.0734885738	 0.062217
O	 0.7639467442	-0.2104644227	 1.2047654033	-0.435085
C	-1.2898866341	-0.6610745006	 0.047857019	 0.363686
O	-1.6015736961	-1.3111505942	 1.0233266806	-0.324327
C	-2.1311247342	-0.6481143156	-1.2170810805	-0.325338
C	-3.5511215804	-1.1864948284	-1.0024878173	-0.270107
C	-4.223724262	-1.5282595225	-2.3112189234	 0.157901
O	-5.2923583651	-1.1096205075	-2.6711626652	-0.233587
H	 0.6893883438	 2.1815385717	 0.1737527952	 0.142944
H	-0.7342599834	 1.9890649306	-0.8645227864	 0.116846
H	-0.9021920248	 1.9334424405	 0.9089011586	 0.13107
H	 0.579828315	-0.1140130356	-0.8372183159	 0.089999
H	 0.1795135415	-0.7724660484	 1.737876789	 0.29363
H	-2.1446551621	 0.3585588975	-1.6471155808	 0.140652
H	-1.5905060036	-1.2693737514	-1.9481102977	 0.140993
H	-3.4815681399	-2.1025914771	-0.4014584704	 0.147961
H	-4.1737797171	-0.4747171128	-0.4552968576	 0.132463
H	-3.6377498711	-2.230333686	-2.9527091292	 0.070863
35.2454	44.1496	65.16	85.8497	154.7164	210.1369	253.9609	299.7997	324.6228	387.571	419.8845	453.9119	520.0624	586.4367	675.4459	765.097	825.3382	850.7082	923.9055	1003.4487	1019.7369	1045.7101	1068.7476	1108.0798	1114.6901	1175.5745	1192.0982	1262.938	1276.9683	1316.2376	1349.4822	1376.9183	1399.7201	1430.0989	1435.046	1450.2242	1467.7773	1490.5732	1498.2606	1791.1473	1840.4203	2840.4108	2971.8233	3007.8901	3039.4428	3042.9362	3081.4991	3116.1378	3119.2478	3130.3564	3690.5909
CC(O)C(=O)CCC=O	C[C@@H](O)C(=O)CCC=O	
InChI=1S/C6H10O3/c1-5(8)6(9)3-2-4-7/h4-5,8H,2-3H2,1H3	InChI=1S/C6H10O3/c1-5(8)6(9)3-2-4-7/h4-5,8H,2-3H2,1H3/t5-/m1/s1
