19
gdb 41541	4.02523	1.52657	1.42587	2.1873	76.97	-0.226	0.0769	0.3028	962.2572	0.162022	-385.816952	-385.810592	-385.809648	-385.847586	27.003	
C	-0.0276000615	 1.5075423689	 0.3743081505	-0.233502
C	 1.4484091714	 1.6447289231	-0.1105887544	-0.233504
C	 1.4603269846	 0.1397668115	-0.5181660528	-0.043027
C	-0.0263360693	 0.0016087615	-0.0298210094	-0.043027
C	-0.7080772783	-0.3682299397	-1.3348764968	-0.040415
C	-0.0508984492	 0.4082223226	-2.5162500344	 0.043457
O	-0.2432876802	-0.7306528975	-3.4241122647	-0.316965
C	 0.2256246739	-1.3119766882	-2.1610170947	 0.038406
C	 1.2934435273	-0.1822515151	-1.9923336717	-0.040414
H	-0.1569430719	 1.6792933614	 1.4451585072	 0.101525
H	-0.7588711828	 2.1240534096	-0.155820532	 0.099104
H	 1.6123757381	 2.3444015375	-0.9348789402	 0.099105
H	 2.1522996689	 1.8939933651	 0.6865009094	 0.101524
H	 2.2162264404	-0.475241093	-0.0249189418	 0.068159
H	-0.2318531714	-0.7027733591	 0.7792037904	 0.068159
H	-1.7830465906	-0.5422316534	-1.3786059258	 0.076254
H	-0.2699703833	 1.4047413556	-2.9012867588	 0.090202
H	 0.3427916507	-2.3953993654	-2.1107978424	 0.088703
H	 2.1472531532	-0.1770370254	-2.6696295776	 0.076255
123.2234	204.0624	322.7969	477.1909	493.6017	646.2427	655.2797	745.6314	751.6467	771.9929	807.2227	854.3468	881.1207	883.7787	901.4639	922.4785	948.2649	961.363	963.8056	985.3436	1016.3342	1054.7281	1072.6024	1101.9176	1126.4896	1159.3396	1166.7931	1172.0961	1196.1111	1216.1695	1235.3315	1249.7152	1255.3836	1268.8697	1275.4547	1279.74	1331.3314	1336.497	1363.276	1478.258	1495.2671	3055.2213	3061.4112	3073.8068	3085.1755	3099.7935	3105.2891	3107.114	3119.4194	3126.2746	3133.3029
C1CC2C1C1C3OC1C23	C1C[C@H]2[C@@H]1[C@H]1[C@@H]3O[C@H]1[C@H]23	
InChI=1S/C8H10O/c1-2-4-3(1)5-7-6(4)8(5)9-7/h3-8H,1-2H2	InChI=1S/C8H10O/c1-2-4-3(1)5-7-6(4)8(5)9-7/h3-8H,1-2H2/t3-,4+,5-,6+,7-,8+
