19
gdb 39303	2.58717	2.06257	1.82027	1.1052	72.1	-0.2392	0.0776	0.3168	869.424	0.163643	-423.022246	-423.015946	-423.015001	-423.052608	26.829	
C	-0.05672023	 1.5512362793	-0.062967287	-0.082352
O	 1.3046265822	 2.015164672	-0.039271198	-0.268684
C	 2.1245347444	 0.9479952505	-0.4430241056	 0.095216
C	 2.6421691419	-0.0590769628	 0.6384378816	 0.056981
C	 1.7519642799	-0.0249666423	 1.87940287	-0.223699
C	 0.3305529176	-0.4655091824	 1.4489286784	-0.199927
C	 0.018606138	 0.0187086354	 0.015867558	-0.084189
C	 1.2822327747	-0.2630215563	-0.855402948	 0.066757
O	 2.2148696471	-1.1641122902	-0.2196469444	-0.30402
H	-0.5886452218	 1.9998461539	 0.7819358115	 0.109569
H	-0.5422023571	 1.8871183516	-0.9912502999	 0.096425
H	 2.8948400036	 1.2933548638	-1.134717898	 0.086376
H	 3.7138267322	-0.1004042995	 0.8470681356	 0.07528
H	 2.1385980639	-0.693984519	 2.6541521509	 0.100223
H	 1.7520534148	 0.9915239307	 2.2872688269	 0.114986
H	 0.2891034009	-1.5573716909	 1.453520881	 0.114748
H	-0.4272864298	-0.1066180557	 2.152199747	 0.092463
H	-0.8897964137	-0.4503307539	-0.3703946958	 0.073721
H	 1.0866978212	-0.5214310642	-1.8979852542	 0.080127
170.5742	263.3153	360.8373	413.1661	420.4858	537.3507	620.6133	676.0947	731.4064	775.6222	810.9473	828.3464	856.5627	901.8654	924.0582	948.8687	975.8495	985.6415	999.5477	1026.9778	1033.8376	1077.2993	1089.7791	1144.7884	1153.5019	1172.7943	1215.7591	1228.8332	1249.3681	1277.7945	1287.0543	1311.0616	1322.9844	1337.4009	1347.1834	1370.1353	1379.2135	1399.7175	1475.5965	1489.554	1521.8452	2993.8757	3046.1566	3056.3741	3073.937	3077.0549	3080.5951	3087.7012	3090.924	3103.7079	3106.9981
C1OC2C3CCC1C2O3	C1O[C@H]2[C@H]3CC[C@@H]1[C@@H]2O3	
InChI=1S/C7H10O2/c1-2-5-7-6(9-5)4(1)3-8-7/h4-7H,1-3H2	InChI=1S/C7H10O2/c1-2-5-7-6(9-5)4(1)3-8-7/h4-7H,1-3H2/t4-,5+,6-,7-/m0/s1
