23
gdb 94729	2.67958	1.43452	1.21929	1.7134	84.47	-0.2391	0.0801	0.3192	1166.9083	0.206456	-388.305239	-388.296378	-388.295434	-388.338191	35.06	
C	 0.0731310446	 1.635391356	-0.0947348581	-0.41265
C	 0.0665636068	 0.107037048	-0.0790496375	 0.032244
C	 0.8581451036	-0.5627817035	-1.2241831497	-0.225992
C	 1.0012129529	-2.0251439158	-0.7688764911	-0.25219
C	 1.21520376	-1.9341277964	 0.7477452785	 0.446515
C	 0.8704722362	-3.1836664835	 1.5333771351	-0.461619
O	 2.5699705245	-1.4814997028	 1.0470523592	-0.33328
C	 2.0927446752	-0.2263567132	 1.5686557521	-0.089913
C	 0.6341191704	-0.5537446178	 1.1918923608	-0.116007
H	 1.0902908773	 2.0348756211	-0.021572388	 0.11602
H	-0.3625117402	 2.0177817167	-1.0239069818	 0.114408
H	-0.5081339795	 2.0470847056	 0.7375011314	 0.111275
H	-0.9778298889	-0.2273507283	-0.1627594422	 0.069833
H	 0.3627576691	-0.4582594636	-2.1938509971	 0.090791
H	 1.8489932455	-0.1020770796	-1.3138659593	 0.107454
H	 0.0785513132	-2.5816844006	-0.976019185	 0.09073
H	 1.8274611995	-2.5570616939	-1.2495335216	 0.104353
H	 1.4919079892	-4.0242704177	 1.2059883634	 0.123604
H	 1.0457423284	-3.0317062605	 2.6024898766	 0.117237
H	-0.1796657081	-3.4589991046	 1.3881212609	 0.111412
H	 2.2809253752	-0.1344297056	 2.6464110806	 0.094685
H	 2.554496386	 0.6299388752	 1.0617156691	 0.095887
H	-0.0696774612	-0.5513335852	 2.0266370538	 0.065203
98.2508	182.728	214.3471	222.9319	239.4862	246.0294	335.4605	342.4916	403.0425	497.4886	544.2742	584.4677	646.1548	777.481	811.8465	866.9007	885.5536	916.6368	939.1237	953.1868	987.0926	989.3689	1012.8794	1030.6027	1044.3572	1080.9789	1119.3082	1157.1433	1170.457	1178.9436	1212.3816	1218.8114	1245.1515	1267.3282	1314.8326	1319.8983	1339.1376	1351.5486	1371.362	1381.0098	1405.4519	1412.7092	1469.2482	1482.6126	1491.874	1492.7045	1497.6994	1499.1262	1524.1081	2993.987	3005.5207	3027.8639	3029.155	3033.5689	3040.2724	3044.8039	3085.3778	3088.2692	3094.273	3095.0265	3099.0273	3101.4674	3109.2156
CC1CCC2(C)OCC12	C[C@H]1CC[C@@]2(C)OC[C@@H]12	
InChI=1S/C8H14O/c1-6-3-4-8(2)7(6)5-9-8/h6-7H,3-5H2,1-2H3	InChI=1S/C8H14O/c1-6-3-4-8(2)7(6)5-9-8/h6-7H,3-5H2,1-2H3/t6-,7-,8+/m0/s1
