19
gdb 62871	2.86488	1.83234	1.43769	1.5416	73.99	-0.2428	0.07	0.3128	960.9032	0.159545	-422.966683	-422.959028	-422.958084	-422.998137	31.576	
C	-0.083711496	 1.5337319266	-0.0384248662	-0.46593
C	-0.0613538712	 0.0064146501	-0.0330599171	 0.398895
O	-1.3586568914	-0.4756924576	-0.2995247795	-0.477215
C	 1.2136866196	-0.5899183063	-0.730645496	-0.008449
O	 1.9387589162	-0.1358411306	 0.4722149167	-0.303895
C	 0.721989083	-0.5963183861	 1.1701118835	 0.01458
C	 0.8292292305	-2.1175807959	 0.963771825	-0.048177
C	-0.0180445032	-2.8525463029	-0.0473167047	-0.307101
C	 1.2130764678	-2.1115406797	-0.5114255673	-0.0469
H	 0.8930725326	 1.9523994801	 0.1956150997	 0.150974
H	-0.3875016743	 1.8996913668	-1.0284146445	 0.106182
H	-0.8152409287	 1.8943849514	 0.6927266867	 0.120721
H	-1.8160077763	 0.1788542536	-0.8354259496	 0.282339
H	 1.6232513491	-0.192559301	-1.6602742323	 0.070318
H	 0.6280098384	-0.2104452963	 2.1858096257	 0.07456
H	 1.3995052722	-2.6735919369	 1.6983292381	 0.093631
H	 0.0985139953	-3.9330911759	-0.0210017615	 0.102449
H	-1.0077424613	-2.5144303558	-0.3027384437	 0.150074
H	 2.0709727175	-2.6628320337	-0.8778284731	 0.092945
163.3264	204.3118	230.067	294.7185	309.5806	386.7495	424.7815	461.3718	581.2982	608.9119	668.0812	694.8417	759.1872	804.5287	833.5938	847.354	864.2088	912.6042	923.2793	973.2281	1005.8695	1024.668	1041.0041	1064.5769	1096.7766	1102.1474	1106.3323	1156.4556	1180.8486	1200.5279	1217.728	1249.6334	1259.8707	1282.9793	1318.5759	1367.2912	1399.0909	1415.8492	1489.6461	1492.5649	1508.4087	3019.4405	3083.7822	3113.0306	3118.0383	3133.3293	3167.9567	3176.1445	3185.8303	3281.9726	3825.6214
CC1(O)C2OC1C1CC21	C[C@@]1(O)[C@H]2O[C@@H]1[C@H]1C[C@@H]21	
InChI=1S/C7H10O2/c1-7(8)5-3-2-4(3)6(7)9-5/h3-6,8H,2H2,1H3	InChI=1S/C7H10O2/c1-7(8)5-3-2-4(3)6(7)9-5/h3-6,8H,2H2,1H3/t3-,4+,5+,6-,7-
