17
gdb 46200	3.19721	1.59522	1.22561	4.107	72.22	-0.2665	0.0025	0.269	1009.372	0.13768	-421.797851	-421.790899	-421.789955	-421.829305	27.349	
O	-0.125391627	 0.0666138615	-0.2733423029	-0.336593
C	-0.0456079903	 1.2240257654	-0.0066843651	 0.394219
O	-1.0409457892	 2.0414583676	 0.4784312026	-0.245694
C	-0.1553042928	 3.2064971046	 0.5194037992	-0.190931
C	 0.9928735647	 2.3408967813	-0.0210458122	 0.190245
C	 2.4323351822	 2.2316865205	 0.5522780183	-0.10484
C	 2.8044109637	 1.4637544131	-0.7516904801	-0.231165
C	 1.934311389	 2.672144143	-1.2112727769	-0.104841
C	 2.7485508295	 3.5502947999	-0.2147892976	-0.229382
H	-0.5270295322	 3.9956695945	-0.1385117088	 0.125969
H	-0.0523483137	 3.575722426	 1.5425842988	 0.125969
H	 2.6976573385	 1.9743114854	 1.5778763079	 0.087395
H	 3.8576283852	 1.5009002441	-1.0398397606	 0.096252
H	 2.3742165779	 0.4704529357	-0.8782864421	 0.137319
H	 1.623625161	 2.9242000556	-2.225388877	 0.087398
H	 2.2733533123	 4.4656756147	 0.148027869	 0.09757
H	 3.7979540114	 3.7204242973	-0.4686465526	 0.10111
134.2433	161.4434	188.2848	317.487	367.3262	463.9656	581.3537	657.9487	688.5854	787.6208	796.0609	816.6118	876.3342	901.4537	907.6958	950.3995	982.4964	1021.9414	1028.6455	1050.4991	1075.8848	1096.5075	1115.6284	1122.8881	1155.3035	1157.1709	1192.5043	1201.8601	1214.9099	1241.8242	1252.8227	1293.2965	1353.5395	1500.0346	1513.6164	1536.6037	1921.9912	3052.5793	3062.628	3070.735	3112.4983	3116.2149	3118.3209	3121.0216	3153.9538
O=C1OCC11C2CC1C2	O=C1OC[C@]21[C@H]1C[C@@H]2C1	
InChI=1S/C7H8O2/c8-6-7(3-9-6)4-1-5(7)2-4/h4-5H,1-3H2	InChI=1S/C7H8O2/c8-6-7(3-9-6)4-1-5(7)2-4/h4-5H,1-3H2/t4-,5+,7-
