18
gdb 86958	3.25932	1.06465	0.92523	3.1836	76.72	-0.2607	-0.0031	0.2576	1309.4997	0.146871	-439.093298	-439.084502	-439.083558	-439.12781	31.808	
C	 0.5161082193	 1.459932795	-0.3611157942	-0.391332
C	 0.0414356238	 0.0562060778	 0.0153304266	 0.071411
O	 0.3181663827	-0.8827409619	-1.0405528486	-0.262991
C	 1.2838819194	-1.8115080452	-0.6282094764	 0.16298
O	 2.5536920402	-1.5642011158	-1.2426361886	-0.195707
C	 2.6771550829	-1.9506146159	-2.5308349522	 0.132935
N	 3.7283746391	-1.6785934667	-3.1728398215	-0.442838
C	 1.4361328653	-1.6041941175	 0.8523729193	-0.119783
C	 0.7404143005	-0.5328507103	 1.2107466946	-0.081897
H	 1.597672754	 1.4637733754	-0.5193016272	 0.140754
H	 0.0250811624	 1.787040816	-1.2815334295	 0.130223
H	 0.2705819382	 2.1737972866	 0.4321672418	 0.114757
H	-1.0487392888	 0.0647406584	 0.1545682034	 0.093786
H	 0.9512304691	-2.8150170196	-0.929131608	 0.089297
H	 1.8049414737	-2.5005491263	-2.9092424955	 0.091024
H	 3.6634547246	-2.0552203035	-4.1165532536	 0.227739
H	 2.0709759137	-2.2273836095	 1.4664285135	 0.122202
H	 0.6783780098	-0.0962551371	 2.1993437562	 0.11744
47.2468	89.837	107.9443	161.8132	240.0939	276.681	350.7633	419.8694	447.9102	529.4467	673.5039	729.2342	787.4469	824.0036	826.5103	845.8298	900.6007	961.1576	1001.2349	1010.1472	1015.7913	1044.7659	1072.3312	1095.6082	1109.4708	1137.5719	1143.9495	1284.7008	1298.2496	1355.658	1360.8002	1373.4105	1387.7032	1401.9036	1430.1324	1485.8193	1496.5444	1690.9112	1748.7025	3002.7959	3008.4118	3030.0572	3041.1559	3115.0194	3131.547	3216.2062	3245.2569	3512.9642
CC1OC(OC=N)C=C1	C[C@H]1O[C@@H](O[CH][NH])C=C1	
InChI=1S/C6H9NO2/c1-5-2-3-6(9-5)8-4-7/h2-7H,1H3	InChI=1S/C6H9NO2/c1-5-2-3-6(9-5)8-4-7/h2-7H,1H3/t5-,6-/m1/s1
