23
gdb 81348	2.347	1.42155	1.29141	1.5644	84.17	-0.2418	0.0725	0.3143	1158.9756	0.206756	-388.279269	-388.270361	-388.269416	-388.312008	35.841	
C	-0.1500878833	 1.5553719869	-0.0781790685	-0.414259
C	 0.0736502115	 0.042488919	-0.0454789459	 0.018328
C	 0.9589803166	-0.5069636431	-1.1862253749	-0.059152
C	 1.1960458173	-1.9753324835	-0.7225249751	-0.282068
C	 1.9998648083	-1.2765917377	 0.4145641066	-0.059169
C	 2.4000549587	-0.2124948284	-0.6578655507	 0.190491
O	 3.4813687621	-0.5174438322	-1.507575175	-0.460156
C	 0.8779285275	-0.5522085582	 1.1914434694	 0.018329
C	 1.366198276	 0.4341920158	 2.2537760367	-0.414262
H	 0.7849359096	 2.1230122803	-0.0723351922	 0.118599
H	-0.6971697071	 1.8355171155	-0.9849092611	 0.111933
H	-0.7440227014	 1.8900455758	 0.7782984317	 0.113625
H	-0.9110032136	-0.4369141521	-0.0928595232	 0.067572
H	 0.6697515621	-0.2581158248	-2.2090226169	 0.056409
H	 0.3210184099	-2.5677763313	-0.4383832886	 0.091276
H	 1.8104835961	-2.5671333246	-1.4065913902	 0.081861
H	 2.7567831503	-1.8012595365	 1.0006471828	 0.056408
H	 2.6048667142	 0.799746054	-0.3043890421	 0.07357
H	 3.3663816888	-1.4054916327	-1.8594482798	 0.278936
H	 0.2527152248	-1.2973949695	 1.6968342485	 0.067573
H	 2.0334841076	 1.1997984526	 1.8474524168	 0.118598
H	 0.5290338205	 0.9490149825	 2.7358859272	 0.113626
H	 1.9173243034	-0.0979934577	 3.0367042344	 0.111932
146.3847	200.4572	204.1663	211.5485	249.9659	265.8081	323.6673	359.7463	376.9788	482.4027	489.3493	543.5243	635.3307	728.0258	809.6983	833.9552	880.1431	880.3917	912.2696	929.6868	997.2701	1008.327	1018.0061	1038.1606	1042.5544	1049.9735	1084.6245	1123.6181	1129.8181	1163.4259	1166.0936	1200.1222	1215.3849	1246.846	1268.1673	1268.863	1291.4432	1317.6949	1323.4319	1375.9629	1376.0404	1410.7873	1418.083	1452.3669	1490.5756	1494.2341	1507.1397	1510.992	1518.7375	3015.6983	3032.8306	3033.127	3038.5178	3048.396	3085.0074	3092.5009	3095.4976	3097.3256	3098.4695	3102.3434	3105.8847	3115.9338	3821.6164
CC1C2CC(C2O)C1C	C[C@H]1[C@@H]2C[C@@H]([C@H]2O)[C@H]1C	
InChI=1S/C8H14O/c1-4-5(2)7-3-6(4)8(7)9/h4-9H,3H2,1-2H3	InChI=1S/C8H14O/c1-4-5(2)7-3-6(4)8(7)9/h4-9H,3H2,1-2H3/t4-,5+,6+,7-,8+
