17
gdb 65356	3.23716	0.96189	0.91979	2.6375	74.46	-0.2695	0.0095	0.2791	1321.4029	0.134839	-417.969482	-417.960531	-417.959586	-418.003739	32.19	
C	-0.3535254533	 1.5669988795	 0.1987630036	-0.45175
C	 0.0109077774	 0.1022202515	 0.0440597368	 0.150445
N	 1.3315451071	-0.1995668544	-0.5459658077	-0.357854
C	 1.0895876351	-0.5762272147	 0.8479512311	-0.071767
C	 1.8785919232	 0.1291624365	 1.9026844411	 0.076148
C	 1.6822480469	-0.1817496158	 3.3250250747	-0.180777
O	 2.8107734754	-0.6891002864	 2.613596098	-0.228818
C	-1.0928890198	-0.7529949159	-0.3428424095	 0.24095
N	-1.9750129121	-1.4281910752	-0.6662701058	-0.334924
H	 0.5369574799	 2.1549583814	 0.424412564	 0.139968
H	-0.7871781013	 1.9480104149	-0.7300052483	 0.145281
H	-1.0848719994	 1.7028742815	 1.0005374331	 0.139646
H	 1.2869822489	-1.0083116356	-1.1605763641	 0.256128
H	 0.9251068836	-1.6283959358	 1.0714869794	 0.118618
H	 2.2624208547	 1.1090294719	 1.6251058563	 0.112794
H	 1.8995536946	 0.5769132864	 4.0750299105	 0.124249
H	 0.9404114592	-0.9243683396	 3.6162818068	 0.121661
61.0776	105.9729	133.8421	171.1425	205.3207	273.5861	334.434	356.3483	424.3749	476.0857	583.1845	598.2265	691.7573	811.7209	850.4995	860.063	909.9863	951.1551	999.4281	1043.64	1083.1996	1096.8929	1105.979	1128.0815	1158.2775	1169.7937	1227.5661	1275.7396	1288.4427	1326.4849	1364.5514	1417.8055	1474.4303	1485.2234	1498.9175	1529.6949	2346.824	3052.9096	3085.4136	3121.0165	3129.8608	3139.2285	3149.9525	3173.8468	3515.4646
CC1(NC1C1CO1)C#N	C[C@]1(N[C@H]1[C@H]1CO1)C#N	
InChI=1S/C6H8N2O/c1-6(3-7)5(8-6)4-2-9-4/h4-5,8H,2H2,1H3	InChI=1S/C6H8N2O/c1-6(3-7)5(8-6)4-2-9-4/h4-5,8H,2H2,1H3/t4-,5+,6+/m1/s1
