19
gdb 71790	2.94464	1.91039	1.73269	1.2467	77.26	-0.2421	0.0771	0.3192	882.3208	0.161402	-385.822565	-385.816035	-385.815091	-385.852895	28.486	
O	-0.0357850411	 1.4127645971	 0.0077774161	-0.492031
C	-0.0130810558	 0.0188303218	-0.0279557056	 0.421507
C	 0.4592885289	-0.743142958	-1.2879006998	-0.310404
C	-0.5454288222	-1.8482270842	-0.8801484978	-0.050535
C	-0.1367534021	-2.5891714234	 0.4550195542	-0.039812
C	 1.1772538187	-2.0365433674	 1.0529036896	-0.247061
C	 0.414837473	-0.7187290916	 1.3111503745	-0.117669
C	-0.9410750437	-1.5138423051	 1.2737458996	-0.035883
C	-1.3492817292	-0.7935772972	-0.036247825	-0.088854
H	 0.8624318944	 1.7256435793	 0.1663844176	 0.27381
H	 0.1011437301	-0.2181367548	-2.1790924747	 0.101397
H	 1.5178114795	-0.9926435513	-1.413781459	 0.086682
H	-0.9974467963	-2.4670103464	-1.6538917736	 0.06653
H	-0.3418638816	-3.6594288615	 0.4890532071	 0.060225
H	 1.4015810806	-2.5373945198	 2.0003888084	 0.096779
H	 2.0842113731	-2.0231951642	 0.4397126186	 0.090557
H	 0.7063827541	-0.0476658556	 2.1208880082	 0.058691
H	-1.561157141	-1.7240411834	 2.1435007712	 0.060227
H	-2.3159637994	-0.3749881344	-0.3092083496	 0.065842
200.8715	267.1473	339.9112	412.2883	420.327	465.2084	571.7614	665.9461	687.9049	728.3344	779.9013	816.6331	840.6378	864.4436	895.5302	899.5446	938.6577	960.3247	965.2469	984.203	994.3224	1031.8459	1061.2447	1086.7738	1090.6993	1117.7181	1142.9191	1165.5492	1184.4301	1196.5283	1201.6982	1217.4237	1234.2674	1260.8196	1269.0814	1282.3655	1302.6777	1319.0741	1376.9046	1478.0748	1510.9411	3037.288	3043.7956	3086.2505	3093.4189	3096.7953	3098.838	3116.7995	3120.6877	3137.0927	3786.0376
OC12CC3C4CC1C4C23	O[C@@]12C[C@H]3[C@H]4C[C@@H]1[C@H]4[C@@H]23	
InChI=1S/C8H10O/c9-8-2-4-3-1-5(8)6(3)7(4)8/h3-7,9H,1-2H2	InChI=1S/C8H10O/c9-8-2-4-3-1-5(8)6(3)7(4)8/h3-7,9H,1-2H2/t3-,4+,5-,6+,7+,8+/m1/s1
