14
gdb 128068	4.59633	1.05169	0.86051	3.1365	67.65	-0.2742	-0.0721	0.2021	1260.9127	0.100565	-470.01153	-470.003198	-470.002254	-470.045547	28.648	
C	 0.0871394806	 1.4149882239	 0.0624912034	-0.338284
N	-0.0547343405	-0.028621248	 0.0684319307	-0.327968
C	-1.2612129953	-0.6408803811	-0.0263664048	 0.326778
O	-2.3367202747	-0.0771517183	-0.1243460587	-0.368151
C	-1.1997650516	-2.1308737826	-0.0037442323	 0.338303
C	-2.2012657882	-3.048556242	-0.0784480324	-0.168309
N	-1.608453631	-4.2855151718	-0.0131123238	-0.10527
N	-0.3628007687	-4.1881150965	 0.0912019118	-0.003119
O	-0.0388765422	-2.7764812352	 0.1021450647	-0.244373
H	 0.6875577702	 1.7480629853	-0.7905188267	 0.137644
H	-0.9122067791	 1.8437756843	-0.0142269553	 0.176917
H	 0.5600128403	 1.7665521909	 0.9852818092	 0.137549
H	 0.7663637149	-0.6082413449	 0.1438719661	 0.269525
H	-3.2635805049	-2.9105914842	-0.1703683919	 0.168759
65.6144	78.3236	120.1075	145.6307	234.5535	305.1762	390.4489	464.746	514.8566	601.308	640.7938	695.3242	787.1233	813.1146	869.8987	979.2095	993.6497	1067.5589	1117.8162	1152.9481	1172.9124	1207.5872	1280.3649	1361.4117	1444.1063	1453.4587	1494.1314	1498.5963	1564.8465	1612.4401	1777.7915	3036.759	3092.4536	3160.3233	3311.3418	3636.3913
CNC(=O)C1=CN=NO1	CNC(=O)c1cnno1	
InChI=1S/C4H5N3O2/c1-5-4(8)3-2-6-7-9-3/h2H,1H3,(H,5,8)	InChI=1S/C4H5N3O2/c1-5-4(8)3-2-6-7-9-3/h2H,1H3,(H,5,8)
