22
gdb 88983	3.03483	1.0256	0.95598	1.4955	82.93	-0.2163	0.0863	0.3026	1371.5044	0.192643	-404.295665	-404.285897	-404.284953	-404.330669	36.262	
C	-0.2831835261	 1.4029868811	 0.0205526543	-0.420729
C	 0.5971660565	 0.1791355944	 0.0325233391	 0.075218
O	 1.9143848231	 0.310367396	 0.5847642531	-0.25407
C	 0.9892872153	-0.5787722957	 1.2338184503	 0.047139
C	 0.548440944	-0.2508056117	 2.6408210934	-0.179915
N	 1.4734444668	-0.6724268129	 3.7051998692	-0.105465
C	 2.8883447511	-0.9287697955	 3.4198479341	-0.260967
C	 2.4847095877	 0.2589431612	 4.2192033081	 0.040826
C	 2.6559101248	 1.6538098255	 3.6610273133	-0.432503
H	-0.2504628925	 1.9417786825	 0.9688366174	 0.13112
H	 0.0401178857	 2.0883402107	-0.7698803156	 0.131347
H	-1.3211322032	 1.1208469135	-0.1867997853	 0.125302
H	 0.584387307	-0.3833678297	-0.9038251803	 0.089987
H	 1.2350159709	-1.6327744081	 1.0880725383	 0.097163
H	 0.3373780189	 0.8189882304	 2.7281085226	 0.105797
H	-0.4011734111	-0.7755073194	 2.8153403705	 0.107781
H	 3.3036690959	-1.8139670947	 3.8965281466	 0.106248
H	 3.2658608402	-0.7337992166	 2.4187965404	 0.134183
H	 2.5852493218	 0.20018817	 5.3029706192	 0.081727
H	 2.6109580739	 1.6606763688	 2.5689994664	 0.148245
H	 1.8832326559	 2.331514925	 4.0446547488	 0.113056
H	 3.6255746632	 2.060812155	 3.9671971359	 0.118509
62.1686	65.4233	136.9228	176.1835	224.6481	234.8374	266.1546	321.7426	377.5153	428.4999	473.8174	515.0563	525.3678	744.8962	759.7724	791.2362	839.423	906.261	913.5401	940.3235	987.2258	1004.548	1043.3753	1064.9922	1097.719	1114.9073	1124.6162	1148.8417	1168.8851	1178.1977	1186.9476	1197.6177	1266.6273	1305.9403	1326.7079	1362.5125	1399.8953	1405.7093	1417.5671	1425.4685	1465.8915	1484.6127	1489.7829	1499.7023	1509.5192	1510.9663	1518.4723	3008.6433	3025.6836	3040.7306	3070.9548	3079.8455	3084.729	3093.9735	3095.9721	3098.9403	3100.7838	3126.5905	3140.1438	3182.3651
CC1OC1CN1CC1C	C[C@H]1O[C@H]1CN1C[C@H]1C	
InChI=1S/C7H13NO/c1-5-3-8(5)4-7-6(2)9-7/h5-7H,3-4H2,1-2H3	InChI=1S/C7H13NO/c1-5-3-8(5)4-7-6(2)9-7/h5-7H,3-4H2,1-2H3/t5-,6-,7+,8?/m1/s1
