14
gdb 133645	4.42732	0.6244	0.62044	1.9518	52.79	-0.2907	-0.0037	0.2869	1674.5356	0.095722	-605.354752	-605.345771	-605.344827	-605.390781	30.104	
F	-0.1815671362	 0.2371937847	-0.2653475754	-0.082428
C	-0.0215639605	 1.518327376	 0.106649636	 0.280531
F	 1.3014329896	 1.7566811387	 0.1495858373	-0.084181
F	-0.5403215239	 2.2885497454	-0.856129186	-0.069183
C	-0.6741480836	 1.7942197795	 1.4455701948	-0.332157
C	-0.0898410119	 0.9190788279	 2.5533120491	-0.096765
O	-0.7733623419	 1.1859991447	 3.7778175984	-0.176889
C	-0.0780003104	 1.7577258247	 4.7842653064	 0.169682
O	-0.5735738182	 2.0328254949	 5.8326907521	-0.264042
H	-0.5304014529	 2.8530580833	 1.6780717471	 0.143442
H	-1.7472824813	 1.6122622325	 1.3472741562	 0.153146
H	-0.2327324051	-0.1396673935	 2.3234150618	 0.145681
H	 0.984910225	 1.1052400219	 2.6631896255	 0.129621
H	 0.9848511415	 1.9310365192	 4.5238023567	 0.083544
37.3611	49.5636	96.165	132.7485	182.7813	305.042	340.7406	369.3685	419.05	538.8535	555.8659	626.7477	703.1335	793.8774	857.585	1013.1738	1043.0907	1050.8278	1063.9368	1137.3642	1195.2932	1221.6121	1266.4282	1293.8448	1340.3327	1359.4282	1414.4754	1438.9224	1479.6583	1514.1489	1874.863	2946.5331	3042.6425	3075.5433	3104.0109	3131.9504
FC(F)(F)CCOC=O	FC(F)(F)CCOC=O	
InChI=1S/C4H5F3O2/c5-4(6,7)1-2-9-3-8/h3H,1-2H2	InChI=1S/C4H5F3O2/c5-4(6,7)1-2-9-3-8/h3H,1-2H2
