16
gdb 13465	3.32586	1.8942	1.23494	3.2045	68.99	-0.2552	-0.0174	0.2379	951.9035	0.130628	-379.959143	-379.951191	-379.950246	-379.991848	28.4	
C	-0.0336332145	 1.4779553361	 0.0089924509	-0.438267
C	 0.0555625274	-0.0232143806	 0.0027726487	 0.362283
N	 1.1838363377	-0.6170951375	-0.0092545648	-0.500407
N	-1.171036245	-0.6925113093	 0.0110495992	-0.133055
C	-1.4657759447	-2.1347609888	 0.0081391281	-0.186455
C	-2.9760491438	-1.7689895693	 0.0231042409	-0.37751
C	-2.5143797202	-0.3000139684	 0.0236802826	 0.422567
O	-3.0378284524	 0.7782225955	 0.032388586	-0.349212
H	 0.9775621523	 1.8832191778	 0.0012899657	 0.143068
H	-0.59006125	 1.8386710788	-0.8607454732	 0.149194
H	-0.5740822517	 1.8322951291	 0.8913473003	 0.149183
H	 1.0761678639	-1.6335710452	-0.0119635265	 0.21171
H	-1.1150972339	-2.6483042171	-0.8916859498	 0.12918
H	-1.0990637248	-2.6551478904	 0.8975768781	 0.12917
H	-3.5411439596	-2.0582642791	-0.8643068381	 0.144247
H	-3.5249366007	-2.0641953016	 0.918703352	 0.144304
73.5403	119.1881	167.5507	188.3058	202.3942	377.7228	386.2756	532.3255	571.5616	573.1817	673.578	777.7991	815.3978	892.352	931.1109	977.3814	1029.794	1048.6441	1077.1255	1093.5164	1150.2709	1152.1864	1192.9999	1229.0738	1252.328	1351.7466	1378.6362	1420.6298	1459.2914	1461.0939	1477.8893	1522.8601	1711.3744	1882.553	3051.8483	3057.4415	3092.0306	3100.9917	3117.557	3149.3599	3166.9343	3451.4244
CC(=N)N1CCC1=O	C[C]([NH])N1CCC1=O	
InChI=1S/C5H8N2O/c1-4(6)7-3-2-5(7)8/h6H,2-3H2,1H3	InChI=1S/C5H8N2O/c1-4(6)7-3-2-5(7)8/h6H,2-3H2,1H3
