22
gdb 105053	2.5339	1.24353	1.13455	2.3621	81.4	-0.2375	0.0718	0.3093	1244.5865	0.192606	-404.307309	-404.297403	-404.296459	-404.342643	37.014	
C	-0.6017277446	 1.5550159785	-0.4470980339	-0.418671
C	-0.4949433883	 0.0456908782	-0.6822831865	-0.255216
C	 0.8415767667	-0.4864446293	-1.1967495585	 0.255476
C	 1.6910339506	 0.3046854483	-2.1255735251	-0.279379
N	 2.1047879981	 0.1020832277	-0.7240223662	-0.348715
C	 0.8588442279	-1.9968428662	-1.3303847978	 0.364701
C	 0.0144874488	-2.5796231864	-2.4450852148	-0.468158
C	 1.998177133	-2.7608024817	-0.8040136513	-0.21778
O	 0.763776486	-2.6962222706	-0.0780842158	-0.292484
H	 0.1053308058	 1.9119798367	 0.3094974009	 0.120093
H	-0.4396786866	 2.1313826162	-1.3634033822	 0.121684
H	-1.6031161739	 1.801708489	-0.0825080493	 0.12401
H	-0.7100885423	-0.4840023816	 0.2535761404	 0.127161
H	-1.280299243	-0.2544626235	-1.3863110785	 0.106381
H	 2.3108480003	-0.2065105806	-2.8580118307	 0.113283
H	 1.3556982928	 1.2908801421	-2.4329403767	 0.110832
H	 1.9181019349	 0.9436759509	-0.1858243244	 0.228537
H	 0.3365038098	-2.1964943378	-3.4190527261	 0.12106
H	 0.099642293	-3.6688251837	-2.4526278291	 0.126998
H	-1.0430986496	-2.3278917263	-2.3180016914	 0.125595
H	 2.2277869258	-3.7340510232	-1.2380799369	 0.099249
H	 2.8283812847	-2.224062017	-0.3552164463	 0.135341
35.6798	58.5164	175.4294	184.0489	217.7166	266.994	285.7163	321.7267	346.8938	372.6366	456.0671	497.2903	537.6105	619.1544	777.6396	782.111	842.5769	878.0674	909.467	920.7649	933.5999	975.6486	1005.411	1026.7285	1037.3352	1080.1757	1108.326	1125.3571	1142.6395	1148.2779	1172.4324	1208.9256	1263.1963	1300.2236	1319.154	1358.2692	1384.1483	1408.5389	1415.439	1425.8413	1482.5216	1488.9028	1496.1587	1498.9925	1505.001	1518.0648	1523.1991	3030.7475	3037.0029	3040.946	3063.1922	3085.2184	3100.3844	3105.1053	3107.29	3110.8913	3124.8096	3191.292	3197.2502	3511.704
CCC1(CN1)C1(C)CO1	CC[C@]1(CN1)[C@@]1(C)CO1	
InChI=1S/C7H13NO/c1-3-7(4-8-7)6(2)5-9-6/h8H,3-5H2,1-2H3	InChI=1S/C7H13NO/c1-3-7(4-8-7)6(2)5-9-6/h8H,3-5H2,1-2H3/t6-,7+/m1/s1
