18
gdb 95467	3.02339	1.17802	0.89111	2.9462	77.14	-0.2207	-0.0093	0.2114	1284.4794	0.147447	-439.119331	-439.110477	-439.109533	-439.153491	32.06	
C	 0.1258258673	 1.5532627739	-0.0685883781	-0.394955
C	-0.0177629526	 0.0365278825	 0.0767113817	 0.043238
O	 0.4544942991	-0.6058972832	-1.1002286435	-0.276112
C	 1.421528965	-1.6090782129	-0.7768247662	-0.110505
C	 1.6270386445	-1.5093257538	 0.7055309938	-0.224974
C	 0.8046611994	-0.578551881	 1.1899276261	 0.368162
N	 0.6067189603	-0.1466884872	 2.5011500041	-0.391982
C	 1.2473519986	-0.6213605482	 3.6168132235	 0.148166
O	 2.0884579221	-1.4899037663	 3.6243963764	-0.29721
H	 1.1793763813	 1.8313778128	-0.1608904334	 0.128463
H	-0.4045150192	 1.88634257	-0.9645868515	 0.135572
H	-0.3050721945	 2.0832161121	 0.7892893636	 0.099127
H	-1.0878956282	-0.2025954709	 0.2188192891	 0.079998
H	 1.0459081182	-2.5995377732	-1.08104781	 0.105824
H	 2.3403240732	-1.4226530033	-1.3529759382	 0.108493
H	 2.3188898969	-2.110765977	 1.2721434153	 0.139426
H	-0.0705244554	 0.586000276	 2.6480454797	 0.254628
H	 0.8965335241	-0.1040712101	 4.5307490178	 0.084642
62.6721	81.2503	173.3894	191.8352	231.4145	243.4043	314.048	374.8872	412.8061	537.2429	569.8007	621.6847	761.6682	784.8102	833.7798	873.827	899.45	958.2803	1013.3816	1038.8018	1048.0919	1063.4417	1109.9107	1119.4089	1154.6488	1195.5332	1248.1227	1275.2481	1341.6792	1374.5832	1384.2488	1403.4687	1435.6267	1482.1336	1494.1897	1526.8387	1546.1573	1726.1876	1809.1611	2926.5584	2946.97	2970.9738	2996.3671	3032.1413	3103.085	3128.4851	3276.894	3622.9429
CC1OCC=C1NC=O	C[C@H]1OCC=C1NC=O	
InChI=1S/C6H9NO2/c1-5-6(7-4-8)2-3-9-5/h2,4-5H,3H2,1H3,(H,7,8)	InChI=1S/C6H9NO2/c1-5-6(7-4-8)2-3-9-5/h2,4-5H,3H2,1H3,(H,7,8)/t5-/m1/s1
