17
gdb 44000	3.58169	1.41278	1.30871	1.7838	71.05	-0.2378	-0.0274	0.2105	997.8533	0.136264	-421.800669	-421.793563	-421.792619	-421.832233	28.586	
O	 0.0257276405	 0.0374302554	-0.3244983276	-0.2849
C	-0.0138925465	 1.1873168194	 0.0075203593	 0.380019
C	-1.3169205979	 1.9984845534	 0.3066963587	-0.413204
C	-0.8423747837	 3.2577450634	 0.9739820288	 0.156637
C	-0.0342700051	 3.1897529337	 2.2576071252	-0.376339
C	 0.6839742657	 3.2879795677	 0.9539148487	 0.388155
C	 1.234044002	 2.1054245403	 0.2224071519	-0.414843
O	 0.7407911979	 4.633959352	 0.4656527367	-0.322812
C	-0.7147662673	 4.6559705436	 0.3655744364	-0.143396
H	-1.8070488651	 2.205768914	-0.6526113116	 0.135969
H	-2.003651405	 1.373108853	 0.8847352784	 0.137111
H	-0.021313466	 4.0458144313	 2.9247279643	 0.126676
H	-0.0203242314	 2.2245904619	 2.7550866997	 0.125761
H	 2.0260212612	 1.5401575031	 0.7201134293	 0.137102
H	 1.60755274	 2.4085566324	-0.7626681159	 0.148552
H	-1.0295599292	 4.7010914452	-0.6840441868	 0.108809
H	-1.1522880101	 5.4971613303	 0.9158958045	 0.110702
71.1967	225.673	313.7698	340.3231	395.8949	445.7591	455.9227	574.0883	582.0781	647.8396	718.5366	729.0466	801.5741	828.3027	843.4572	928.2842	952.3976	970.8208	978.2705	1017.5429	1028.8933	1074.1264	1088.3872	1151.8026	1162.29	1211.8054	1224.6638	1241.8978	1284.6226	1317.7937	1358.9499	1381.2195	1446.329	1451.8964	1476.8987	1516.2437	1856.9413	3018.285	3043.1924	3054.3519	3068.554	3090.6327	3105.58	3123.3596	3213.5842
O=C1CC23CC2(C1)OC3	O=C1C[C@@]23C[C@]2(C1)OC3	
InChI=1S/C7H8O2/c8-5-1-6-3-7(6,2-5)9-4-6/h1-4H2	InChI=1S/C7H8O2/c8-5-1-6-3-7(6,2-5)9-4-6/h1-4H2/t6-,7-/m0/s1
