15
gdb 132747	2.39179	1.78284	1.02791	1.7415	71.61	-0.2332	-0.0143	0.219	1077.5082	0.112422	-461.97723	-461.969388	-461.968443	-462.009596	29.562	
C	-0.0171220434	 1.5229366785	 0.051633864	-0.474033
C	-0.0012538246	 0.0194498686	 0.0205293276	 0.250193
C	 0.0694589532	-0.6531797329	-1.2079539192	 0.191856
O	 0.1235982561	 0.0508742173	-2.3694799493	-0.437789
C	 0.0817377547	-2.0425529162	-1.1898398867	 0.20902
F	 0.1496827857	-2.6759757401	-2.3736999218	-0.090737
C	 0.0260719358	-2.7399402313	 0.0015554177	-0.264237
C	-0.0420775015	-1.9805850466	 1.1654970326	-0.012193
N	-0.0555490421	-0.6454327134	 1.1789249792	-0.31926
H	 0.8851375074	 1.9368459313	-0.4118614921	 0.136302
H	-0.8685179846	 1.9205276663	-0.5115235318	 0.136287
H	-0.0787930424	 1.8598060434	 1.086755265	 0.139369
H	 0.1675255062	-0.5784471451	-3.099963459	 0.305082
H	 0.0359028844	-3.822775136	 0.0107931801	 0.117559
H	-0.088010555	-2.4726058137	 2.1329310036	 0.112582
102.2994	140.1044	250.6504	278.8949	297.8767	308.2957	427.1499	484.6671	529.9275	550.8902	563.915	597.4771	706.179	767.2293	836.1349	857.6978	946.7973	952.5226	1020.5616	1058.9879	1097.7929	1244.6658	1271.3222	1300.0659	1312.9595	1342.0265	1405.9542	1470.0873	1478.9958	1495.4036	1521.1544	1624.1594	1649.7346	3038.4404	3090.1411	3151.7348	3166.6343	3213.6437	3794.3973
CC1=C(O)C(F)=CC=N1	Cc1c(O)c(F)ccn1	
InChI=1S/C6H6FNO/c1-4-6(9)5(7)2-3-8-4/h2-3,9H,1H3	InChI=1S/C6H6FNO/c1-4-6(9)5(7)2-3-8-4/h2-3,9H,1H3
