20
gdb 96287	2.21659	1.56653	1.11969	2.9788	75.61	-0.237	0.0276	0.2646	1148.3418	0.172631	-440.323266	-440.31459	-440.313646	-440.356649	33.052	
C	-0.2000971794	 1.5040017513	 0.050568495	-0.383802
C	 0.0385111587	-0.0117987459	-0.0270396385	 0.008392
C	 0.5646857437	-0.4526267804	-1.4013978865	-0.071955
O	 1.7517864801	 0.1889421177	-1.812177477	-0.238179
C	 2.9230168921	-0.2677820143	-1.1612602774	-0.089249
C	 3.0805067918	 0.2337463098	 0.2777268651	-0.310945
C	 2.1899097971	-0.4088118387	 1.3380604112	 0.369082
O	 2.6536239267	-0.8095102129	 2.3914147565	-0.367922
N	 0.8482743821	-0.5280253839	 1.079151016	-0.303277
H	 0.7209255194	 2.0597688097	-0.1372937676	 0.13627
H	-0.9332564294	 1.8128534356	-0.7016817884	 0.118956
H	-0.5805411495	 1.7816341507	 1.0370798157	 0.118915
H	-0.9303821844	-0.5143317143	 0.0809238142	 0.091581
H	 0.6974973362	-1.5460692839	-1.3988684799	 0.094652
H	-0.1872026739	-0.1995373129	-2.156546184	 0.109106
H	 2.9681331342	-1.3684899292	-1.1872621542	 0.099854
H	 3.7557310824	 0.1138962196	-1.7596916694	 0.114361
H	 4.1039810814	 0.0514495412	 0.6145440739	 0.131129
H	 2.9247071709	 1.3194144657	 0.2885572765	 0.128785
H	 0.3485480497	-0.9059357749	 1.8712657888	 0.244247
70.9194	134.7051	173.7943	192.9213	272.2751	330.6303	369.7054	406.3641	454.7097	494.1348	532.6155	570.2092	679.9977	699.1327	769.5608	828.3119	859.637	936.5992	959.6014	993.4644	1036.7692	1051.995	1090.8177	1133.7654	1163.9992	1172.1202	1211.162	1292.6067	1323.9569	1330.2472	1340.0623	1368.5934	1386.6833	1403.2807	1420.7033	1429.975	1457.1028	1473.0661	1478.5353	1490.5446	1500.1421	1503.2966	1775.7585	2979.5333	2984.5057	3036.1385	3042.998	3046.6737	3073.5728	3081.866	3111.1043	3114.6071	3135.7799	3604.9564
CC1COCCC(=O)N1	C[C@H]1COCCC(=O)N1	
InChI=1S/C6H11NO2/c1-5-4-9-3-2-6(8)7-5/h5H,2-4H2,1H3,(H,7,8)	InChI=1S/C6H11NO2/c1-5-4-9-3-2-6(8)7-5/h5H,2-4H2,1H3,(H,7,8)/t5-/m0/s1
