23
gdb 58606	2.18442	1.36851	1.06424	2.7865	85.69	-0.2394	-0.0082	0.2312	1276.0616	0.203408	-388.308191	-388.297859	-388.296915	-388.343209	39.11	
C	-1.3310883011	-0.0858697076	-0.1679211194	-0.381922
C	 0.1949916865	-0.0027652085	 0.0208092089	-0.070878
C	 0.5853646166	-0.5539879974	 1.4001024014	-0.410836
C	 0.9141431439	-0.6664856015	-1.1628204335	 0.246839
C	 2.1521479325	-1.5512738462	-0.9640087226	-0.300029
C	 0.8480714163	-2.1739637429	-1.3332177683	-0.284496
C	 0.991459453	 0.0919506735	-2.4694597189	 0.331532
C	 0.7977559812	 1.6001520941	-2.4592333906	-0.498656
O	 1.2615964656	-0.4783087748	-3.5071335533	-0.319112
H	-1.6476343566	 0.3125546937	-1.1370845558	 0.114357
H	-1.6704020571	-1.1260906891	-0.1177823402	 0.118958
H	-1.854309342	 0.4761689714	 0.6125436809	 0.110832
H	 0.4733983769	 1.0578754001	 0.0246702807	 0.075347
H	 0.390454406	-1.6287652514	 1.4853045273	 0.119121
H	 1.6407270216	-0.3803846191	 1.6270592095	 0.11857
H	-0.0041010638	-0.0570037284	 2.177038815	 0.114614
H	 2.9129007634	-1.4869807065	-1.7331352647	 0.129608
H	 2.5246427906	-1.6796553275	 0.0444973677	 0.115246
H	 0.3149714114	-2.7324230195	-0.5718692476	 0.11045
H	 0.73036583	-2.5313543767	-2.3487864029	 0.13859
H	 1.5184532137	 2.0769442377	-1.7853751643	 0.140965
H	 0.9438247646	 1.9753397575	-3.4724957552	 0.13897
H	-0.2005980029	 1.877996679	-2.1079422139	 0.141929
49.0869	97.8114	185.8059	193.0331	223.0961	236.7132	263.2399	292.6124	311.8185	352.8805	392.881	427.8901	481.7855	569.5258	614.7089	645.5604	791.848	830.8645	859.782	894.1303	927.7066	947.9272	959.6865	972.0052	993.8129	1051.1694	1065.6264	1098.4092	1115.6173	1130.6929	1152.865	1187.7029	1207.3734	1285.069	1317.4328	1343.4914	1374.3343	1388.1524	1401.7304	1422.3364	1450.9245	1465.1344	1477.6882	1481.6041	1490.5043	1494.1588	1506.8336	1512.6564	1777.4672	3028.0418	3031.0402	3036.1945	3041.8442	3096.6434	3100.7331	3103.7578	3105.4557	3110.5168	3141.658	3147.1661	3153.262	3230.5151	3243.5616
CC(C)C1(CC1)C(C)=O	CC(C)C1(CC1)C(=O)C	
InChI=1S/C8H14O/c1-6(2)8(4-5-8)7(3)9/h6H,4-5H2,1-3H3	InChI=1S/C8H14O/c1-6(2)8(4-5-8)7(3)9/h6H,4-5H2,1-3H3
