13
gdb 124428	3.28372	1.22222	0.99092	3.7277	63.22	-0.3381	-0.0891	0.249	1135.0673	0.088395	-448.881387	-448.873489	-448.872544	-448.91514	27.365	
C	 0.0016522965	 1.6001111486	 0.1511116542	-0.394638
C	-0.0572277276	 0.0682725801	-0.0075062411	-0.234264
C	 0.7590859647	-0.6024238558	 1.0158860696	 0.282183
N	 1.412971645	-1.1067272404	 1.8231106598	-0.302264
C	-1.4628029729	-0.4655876177	 0.0278743155	 0.427033
N	-2.5183406091	 0.2126499012	 0.3693011441	-0.135405
O	-3.5414189463	-0.6582382675	 0.2358759252	-0.135514
N	-3.0360237783	-1.8828422844	-0.2028761078	 0.056617
N	-1.7931100425	-1.7621549322	-0.3265802659	-0.189295
H	 1.0382599367	 1.9359957145	 0.0906078926	 0.148008
H	-0.5761789057	 2.0766380037	-0.6434224349	 0.147062
H	-0.4126925719	 1.9066551245	 1.1130424007	 0.163463
H	 0.3635081712	-0.2138725745	-0.9810189521	 0.167013
31.0579	109.7623	189.5345	218.3971	229.0878	326.0554	407.3823	480.2467	567.2828	669.8299	680.8545	692.052	802.5856	868.7247	966.0432	1018.2279	1060.2146	1077.9474	1092.6547	1143.1949	1247.0506	1312.5911	1350.2409	1418.6297	1482.7669	1491.4234	1498.7233	1593.8837	2366.9912	3041.4501	3065.9769	3147.7749	3152.4805
CC(C#N)C1=NON=N1	C[C@@H](C#N)c1nonn1	
InChI=1S/C4H4N4O/c1-3(2-5)4-6-8-9-7-4/h3H,1H3	InChI=1S/C4H4N4O/c1-3(2-5)4-6-8-9-7-4/h3H,1H3/t3-/m0/s1
