20
gdb 67289	3.03428	1.58776	1.31304	1.7365	83.9	-0.2332	0.0733	0.3065	1045.5544	0.171475	-365.910189	-365.902487	-365.901543	-365.941896	31.298	
C	-0.0481058347	 1.4763514131	 0.0291309723	-0.533295
C	-0.0546011257	-0.0267270082	 0.0170676446	 0.248433
C	 0.810783879	-0.9873712389	-0.8962841624	-0.071117
C	 1.9823379712	-1.000854728	 0.1043548337	-0.289307
C	 0.7199103591	-1.0026852674	 0.988644708	-0.069401
C	-0.0564407749	-1.9436588902	-0.0007998254	-0.136791
C	-1.2394880627	-0.9905701324	-0.0423098793	 0.369751
C	-2.5843888447	-0.9666095672	 0.5529050728	-0.340493
N	-2.3909955007	-1.0330861575	-0.9261325236	-0.396785
H	 0.9742510717	 1.8678174352	 0.0601847803	 0.127425
H	-0.5297219658	 1.8829491835	-0.8678751725	 0.118517
H	-0.5821056112	 1.8676430719	 0.9024009864	 0.122299
H	 0.8309040998	-0.9811478961	-1.9871448207	 0.074217
H	 2.5971191199	-1.9060924974	 0.1264658563	 0.09309
H	 2.6177238767	-0.1099962309	 0.1429761199	 0.090908
H	 0.6346742692	-1.0120603658	 2.0767580124	 0.068848
H	-0.0331825623	-3.0329379545	-0.0098349299	 0.074232
H	-3.0186113278	-1.8620166916	 0.9902765283	 0.11723
H	-2.945404859	-0.0356423331	 0.9847388799	 0.106796
H	-2.5646410073	-0.1175044643	-1.336215911	 0.225445
154.3273	191.0774	205.4125	230.8651	285.1851	335.4971	490.1608	513.5398	585.5576	638.834	719.9597	809.1438	829.042	850.9285	861.5272	902.7019	908.6881	917.1875	941.9044	966.1438	981.1284	1020.1242	1032.7902	1054.8317	1074.473	1112.3764	1129.3765	1149.0128	1153.9058	1169.9848	1175.8792	1206.7894	1235.6395	1237.9064	1259.0315	1292.5957	1341.6438	1409.4565	1455.6032	1486.6135	1492.3018	1513.7241	1529.8626	3023.5887	3037.3035	3085.2579	3091.5957	3095.5116	3096.013	3098.4587	3101.7256	3125.2598	3180.7373	3480.6141
CC12C3CC1C3C21CN1	C[C@@]12[C@H]3C[C@@H]1[C@H]3[C@]12CN1	
InChI=1S/C8H11N/c1-7-4-2-5(7)6(4)8(7)3-9-8/h4-6,9H,2-3H2,1H3	InChI=1S/C8H11N/c1-7-4-2-5(7)6(4)8(7)3-9-8/h4-6,9H,2-3H2,1H3/t4-,5+,6-,7+,8-/m0/s1
