18
gdb 63785	3.52903	1.27276	1.18673	5.0078	71.52	-0.2394	0.0027	0.242	1101.7722	0.146935	-439.085192	-439.076884	-439.075939	-439.117784	31.944	
C	 0.3382689589	 1.4265180312	 0.0324175827	-0.422472
C	 0.0647293461	-0.0698270347	 0.0223501595	 0.284794
C	-1.4093475155	-0.3936262855	-0.2174012517	-0.443753
N	 0.9822966498	-0.8365117829	-0.8980265414	-0.357596
C	 1.3451340515	-1.7827563029	 0.1884741982	-0.208681
C	 0.61199073	-0.9018182609	 1.2173014835	 0.067119
O	 1.8911958062	-0.4433284195	 1.7479149212	-0.261714
C	 2.609586607	-1.2792662114	 0.9059565276	 0.483252
O	 3.7846865072	-1.4298862592	 0.8707087475	-0.31807
H	 1.3888904273	 1.6244053152	 0.2510439766	 0.142303
H	 0.1034773336	 1.8582257344	-0.9459981234	 0.118684
H	-0.2768902239	 1.9314947273	 0.7848935791	 0.115341
H	-1.7209949931	-0.0392703858	-1.206020447	 0.126477
H	-1.5968742441	-1.4721072766	-0.1682189574	 0.11714
H	-2.0447645203	 0.0950804238	 0.5289998265	 0.127008
H	 0.4976177147	-1.2829087231	-1.6685213013	 0.224751
H	 1.2211159357	-2.8517440066	 0.0212236505	 0.107393
H	-0.0572931807	-1.2227489526	 2.0136888193	 0.098024
95.735	184.6387	201.9258	222.3064	259.5516	311.3362	367.2541	389.6119	452.1737	494.2049	632.4823	692.6085	742.8985	796.8853	825.9736	873.3723	909.4604	937.2998	944.9351	957.4763	989.1604	1012.414	1038.2845	1097.9687	1165.2164	1176.5668	1198.8327	1219.1815	1276.3552	1288.3181	1328.3452	1382.5559	1400.5761	1420.6324	1478.5008	1480.7879	1499.6724	1503.3302	1948.1861	3024.6236	3039.1409	3095.2998	3097.7069	3105.2818	3123.8289	3135.5264	3139.9354	3538.7546
CC1(C)NC2C1OC2=O	CC1(C)N[C@@H]2[C@H]1OC2=O	
InChI=1S/C6H9NO2/c1-6(2)4-3(7-6)5(8)9-4/h3-4,7H,1-2H3	InChI=1S/C6H9NO2/c1-6(2)4-3(7-6)5(8)9-4/h3-4,7H,1-2H3/t3-,4-/m1/s1
