24
gdb 6857	2.9788	1.67351	1.47129	0.094	84.25	-0.2845	0.0757	0.3602	1034.7208	0.22519	-314.307197	-314.298688	-314.297743	-314.339138	34.553	
C	 0.026327166	 1.5312054247	 0.0100292651	-0.418902
C	-0.0577028707	-0.0043854476	 0.0025828415	 0.290101
C	-1.5457229253	-0.4067000134	 0.0146494307	-0.410645
C	 0.6473451803	-0.5425969707	-1.2665095625	-0.193757
C	 0.821266039	-2.0691144561	-1.2830414448	-0.205381
C	 1.552254531	-2.5611508974	-0.0265478689	-0.175578
C	 0.845476738	-2.0827175951	 1.2489076026	-0.205381
C	 0.6714277084	-0.5561285619	 1.2521062346	-0.193757
H	 1.0677979019	 1.8716949133	 0.0018970538	 0.105441
H	-0.4714699281	 1.9588632263	-0.8678380323	 0.104797
H	-0.454543602	 1.9493554668	 0.9018016447	 0.104797
H	-2.0627431748	-0.0016211064	-0.8625505695	 0.106716
H	-1.6927767275	-1.4900283085	 0.0102367526	 0.112086
H	-2.0458343626	-0.0111196486	 0.905875198	 0.106716
H	 0.0982888812	-0.2138372518	-2.158010386	 0.082744
H	 1.6419037441	-0.0788688204	-1.3303977046	 0.084424
H	-0.1589086347	-2.5586288265	-1.3496983714	 0.094144
H	 1.3712401694	-2.366446104	-2.183446027	 0.08757
H	 1.630527879	-3.6543278994	-0.0331693909	 0.085874
H	 2.5815016566	-2.1748587844	-0.0343143411	 0.089109
H	-0.1332941839	-2.5730209946	 1.3290321447	 0.094144
H	 1.4125373125	-2.3896492047	 2.135384551	 0.08757
H	 1.6670734031	-0.0930109668	 1.3019441593	 0.084424
H	 0.139552039	-0.2370229429	 2.1574235203	 0.082744
149.9979	181.9076	233.9179	256.0851	298.587	312.7284	345.0597	401.7878	416.8882	452.0642	456.3931	550.0172	701.8334	786.2179	832.6511	856.8379	868.7451	920.5806	937.0489	941.2547	970.0803	996.6918	1023.4623	1037.9059	1066.0929	1088.9196	1114.0767	1169.7568	1195.045	1214.6125	1269.809	1289.3286	1306.2407	1320.5376	1353.0915	1369.1917	1379.5537	1381.68	1386.4789	1399.6945	1424.7085	1475.6338	1475.759	1480.8765	1486.0204	1493.1975	1497.1672	1503.4084	1507.9823	1513.6055	3000.836	3004.9797	3007.3321	3019.1998	3020.6959	3020.7415	3029.8418	3044.8805	3047.5534	3057.541	3059.5829	3067.3288	3084.6862	3089.6822	3091.0233	3109.8954
CC1(C)CCCCC1	CC1(C)CCCCC1	
InChI=1S/C8H16/c1-8(2)6-4-3-5-7-8/h3-7H2,1-2H3	InChI=1S/C8H16/c1-8(2)6-4-3-5-7-8/h3-7H2,1-2H3
