19
gdb 98695	3.46488	0.95666	0.89314	2.8261	74.15	-0.268	-0.0049	0.2631	1404.7041	0.155752	-460.18444	-460.174294	-460.17335	-460.219866	35.759	
C	-0.4422052437	 1.5667960881	-0.4136746303	-0.241514
O	-0.4540138722	 0.1359732177	-0.4987505619	-0.234965
C	 0.7531227612	-0.4393520552	-0.6766554566	 0.445863
O	 1.7848667864	 0.1739536834	-0.7761151624	-0.364581
C	 0.5895819588	-1.9308334606	-0.7151624495	-0.134731
O	 1.6173653881	-2.6741245845	-1.3595488939	-0.269338
C	 1.4707531005	-2.8550533085	 0.0513201279	 0.397232
C	 2.6146983882	-2.3436931678	 0.8972231396	-0.469869
C	 0.8968934517	-4.1954590542	 0.4612820742	-0.447309
H	 0.1753221808	 1.8978752002	 0.4251351013	 0.141746
H	-0.0458045779	 2.0025449053	-1.3341134215	 0.145444
H	-1.4802528884	 1.8639667124	-0.2655942888	 0.135321
H	-0.4283844724	-2.2540594991	-0.9260057817	 0.103235
H	 2.9802068518	-1.3876558484	 0.5241390704	 0.166471
H	 2.2995102743	-2.2298873937	 1.9399981381	 0.117547
H	 3.4355686591	-3.0686821854	 0.8757994421	 0.124819
H	 1.682156404	-4.95897181	 0.4472095243	 0.130393
H	 0.4923496162	-4.1500261881	 1.4776508987	 0.125098
H	 0.1024739835	-4.5081687217	-0.2203227201	 0.129139
55.6105	107.2113	125.422	148.6856	180.4126	200.2141	242.2908	283.1918	332.1596	356.9488	392.3898	446.0318	467.7569	689.4922	741.3558	769.3983	836.0023	931.67	941.0578	953.0117	1011.9599	1029.8309	1078.4327	1119.5239	1152.7388	1179.5166	1206.5149	1220.8001	1268.7185	1343.0608	1408.4954	1417.5047	1440.217	1474.579	1476.6041	1481.3368	1484.7283	1496.9894	1503.4191	1511.2623	1824.1791	3035.9994	3041.4157	3052.7942	3096.4009	3103.7388	3125.2413	3127.6348	3129.198	3161.1552	3163.0433
COC(=O)C1OC1(C)C	COC(=O)[C@H]1OC1(C)C	
InChI=1S/C6H10O3/c1-6(2)4(9-6)5(7)8-3/h4H,1-3H3	InChI=1S/C6H10O3/c1-6(2)4(9-6)5(7)8-3/h4H,1-3H3/t4-/m1/s1
