15
gdb 9086	4.49885	1.02646	0.87085	3.5684	65.5	-0.253	0.014	0.267	1248.3606	0.116892	-399.78213	-399.773244	-399.772299	-399.816485	31.002	
O	-0.4385854582	 1.2299712831	 0.0071447897	-0.427294
C	 0.0920343959	-0.0944081763	-0.1029971861	-0.0552
C	 1.0849083251	-0.1750549043	-1.2791027269	-0.161092
N	 0.4616752273	 0.3208617469	-2.4870390876	-0.276404
C	 0.405896628	-0.393364299	-3.643203832	 0.151831
O	 0.9225135036	-1.4754682281	-3.8242059656	-0.321065
C	 0.7098969025	-0.5439578625	 1.1421968573	 0.288688
C	 1.2596372057	-0.8750861196	 2.1584536163	-0.432737
H	 0.1997181725	 1.7577879869	 0.5005294838	 0.290849
H	-0.7724698711	-0.7255756851	-0.3392212063	 0.131657
H	 1.9805606103	 0.408756801	-1.028007601	 0.110912
H	 1.3928404111	-1.2062753674	-1.4624837864	 0.159516
H	-0.059316093	 1.1809162992	-2.408895941	 0.255021
H	-0.1709077097	 0.1400504893	-4.4243061685	 0.076725
H	 1.7270228701	-1.183800394	 3.0612938845	 0.208593
41.5862	78.7521	133.5329	200.424	238.4107	269.1015	304.632	348.6623	465.1036	524.1856	568.2344	594.3015	645.8798	685.132	760.0141	880.9256	974.5685	1002.1458	1033.9514	1076.8074	1098.8261	1209.4024	1230.1139	1279.1078	1308.2477	1385.0248	1418.6844	1429.4809	1489.7548	1521.6394	1805.2937	2236.1819	2940.7318	3017.1251	3053.1606	3127.743	3501.1631	3628.5862	3803.1859
OC(CNC=O)C#C	O[C@@H](CNC=O)C#C	
InChI=1S/C5H7NO2/c1-2-5(8)3-6-4-7/h1,4-5,8H,3H2,(H,6,7)	InChI=1S/C5H7NO2/c1-2-5(8)3-6-4-7/h1,4-5,8H,3H2,(H,6,7)/t5-/m1/s1
