14
gdb 133232	3.202	1.44962	1.00408	1.1003	70.21	-0.2233	-0.0847	0.1386	1079.9187	0.10126	-474.151497	-474.143915	-474.14297	-474.183952	27.945	
C	-0.0320506174	 1.4513182618	-0.0127553045	-0.306499
N	-0.0033086071	-0.0035612326	 0.0087299739	-0.04207
N	-0.0257341457	-0.6268128791	-1.1704747005	-0.22548
C	-0.0000527657	-1.9116889307	-1.1473198598	 0.29109
F	-0.0216111273	-2.5573114221	-2.3070207902	-0.0596
C	 0.0503309871	-2.6575271697	 0.0717336236	-0.096053
N	 0.0724446129	-2.0648305112	 1.217637861	-0.288657
C	 0.045940081	-0.6652815573	 1.2534707109	 0.451825
N	 0.0642351507	 0.0452211956	 2.3146433585	-0.561478
H	 0.8574486423	 1.8460218074	 0.4855293128	 0.157692
H	-0.0686333439	 1.7644943366	-1.0547463019	 0.14732
H	-0.9054437571	 1.8119107453	 0.5371886547	 0.157665
H	 0.0704554303	-3.7458340207	 0.0362447966	 0.145755
H	 0.1005456001	-0.5748996833	 3.1211322249	 0.228489
70.2289	158.9727	192.3025	318.4737	338.3163	365.2734	403.2762	508.074	535.8265	570.2463	598.9496	695.6193	760.455	835.6449	839.2375	972.5239	972.5396	1032.3032	1086.5031	1150.6086	1218.2781	1295.4333	1320.7519	1383.3529	1437.8959	1461.9197	1464.49	1504.8	1567.0042	1671.0054	1704.2539	3054.5764	3116.5862	3146.4498	3176.6865	3519.2633
CN1N=C(F)C=NC1=N	CN1N=C(F)CN=C1[NH]	
InChI=1S/C4H5FN4/c1-9-4(6)7-2-3(5)8-9/h2,6H,1H3	InChI=1S/C4H6FN4/c1-9-4(6)7-2-3(5)8-9/h6H,2H2,1H3
