16
gdb 6752	7.37051	0.68776	0.63658	4.3917	74.02	-0.2577	-0.0485	0.2092	1727.9894	0.126607	-383.712587	-383.702864	-383.70192	-383.748852	31.656	
C	-0.0104798362	 1.4024311567	-0.0315220359	-0.222068
O	 0.0414737838	-0.0038182684	 0.0657222295	-0.223439
C	 0.5413627357	-0.5980675961	-1.1107285357	-0.20276
C	 0.580243092	-2.0459375586	-0.9733161906	-0.018333
C	 0.621354579	-3.2484912152	-0.8810590854	 0.12973
C	 0.6703919861	-4.6948163907	-0.7690045378	 0.246767
C	 1.1979149837	-5.4213350027	-1.9899857518	-0.478511
O	 0.311293089	-5.2670953903	 0.2373162666	-0.272253
H	 0.9874857326	 1.8377454597	-0.1981734595	 0.108381
H	-0.6710477696	 1.7314504821	-0.8492033664	 0.108381
H	-0.4060820478	 1.774093914	 0.9156127933	 0.138286
H	-0.0848648119	-0.3338191722	-1.9818283714	 0.12473
H	 1.5576948585	-0.2284716333	-1.3371488938	 0.124733
H	 2.2142848249	-5.0833903715	-2.2194392181	 0.146004
H	 1.1943222628	-6.4962151777	-1.8036603095	 0.144343
H	 0.5785443575	-5.1894464358	-2.8631741135	 0.146009
34.9085	68.3506	72.0144	117.5106	156.2559	174.049	230.166	320.7977	376.968	418.1579	478.1525	601.2841	623.9209	706.6604	958.4124	980.5766	1014.2883	1042.8398	1052.9265	1152.9453	1182.1383	1220.1871	1245.7305	1253.1389	1381.0953	1405.7132	1460.8061	1468.9254	1474.7792	1485.2977	1488.2709	1513.2833	1770.703	2333.5421	2941.3588	2957.8621	2971.9611	3017.0644	3038.6714	3102.9542	3127.6284	3151.6743
COCC#CC(C)=O	COCC#CC(=O)C	
InChI=1S/C6H8O2/c1-6(7)4-3-5-8-2/h5H2,1-2H3	InChI=1S/C6H8O2/c1-6(7)4-3-5-8-2/h5H2,1-2H3
