19
gdb 96612	1.95547	1.55797	0.89177	8.6882	76.79	-0.2202	-0.03	0.1902	1299.113	0.157647	-456.367218	-456.356941	-456.355997	-456.402971	35.73	
C	 0.1338978098	 1.4526246724	-0.4652279266	-0.343802
N	 0.3310497514	 0.0660162033	-0.0808057705	-0.254386
H	-0.0716496491	-0.7018839189	-0.6571978593	 0.29251
C	 0.7395260498	-0.5295465027	 1.0225334473	 0.249206
N	 1.3676578938	 0.0463444652	 2.0407205075	-0.094775
C	 1.9225934725	 1.4006662337	 2.0102336944	-0.350339
C	 1.5689343385	-0.6286758534	 3.3308218336	-0.359277
C	 0.4066606479	-2.1352613326	 0.8912997454	 0.384353
O	-0.1647109958	-2.3517241763	-0.1894800459	-0.453976
O	 0.764681922	-2.8587658578	 1.8145900297	-0.42621
H	 1.0173168009	 1.8849571439	-0.9481301535	 0.145795
H	-0.686632229	 1.4835001195	-1.1855883905	 0.154066
H	-0.1442335663	 2.0727106712	 0.389161912	 0.146349
H	 2.1247311032	 1.7210958442	 0.9913993949	 0.151347
H	 1.2609231495	 2.1236327441	 2.5008612251	 0.142338
H	 2.8709724613	 1.388667701	 2.5546764616	 0.147159
H	 2.6421769893	-0.7086843645	 3.5347866406	 0.130656
H	 1.1100699772	-0.0202150842	 4.118818505	 0.120793
H	 1.1330850734	-1.6233378681	 3.282994339	 0.218193
61.1822	64.4439	146.0045	159.6646	168.9835	202.9559	257.1691	268.7641	295.8109	336.0208	401.7131	412.8143	521.3403	540.0642	683.8321	775.122	802.9389	904.2195	937.6172	1015.3572	1071.5464	1123.8936	1139.7649	1156.3029	1178.6644	1186.6978	1251.5304	1300.0368	1351.7704	1436.9784	1441.6004	1465.3864	1480.4524	1486.9577	1495.8727	1508.2603	1512.5627	1518.6141	1565.4263	1696.9002	1855.8817	3022.2588	3032.7633	3038.3318	3084.0835	3098.1191	3106.2804	3133.0263	3143.5349	3175.7152	3183.6642
C[NH+]=C(N(C)C)C([O-])=O	CN[C](N(C)C)C(=O)[O]	
InChI=1S/C5H10N2O2/c1-6-4(5(8)9)7(2)3/h1-3H3,(H,8,9)	InChI=1S/C5H10N2O2/c1-6-4(5(8)9)7(2)3/h6H,1-3H3
