14
gdb 49877	3.1047	1.27399	0.94096	2.6775	66.45	-0.2516	-0.0499	0.2017	1157.6311	0.101326	-470.062577	-470.0545	-470.053556	-470.096069	29.08	
N	-0.0577060469	 1.3587934738	 0.0894914426	-0.563224
C	 0.025988583	 0.0985512227	-0.015084437	 0.440998
N	-1.060727123	-0.7469082342	-0.1702334326	-0.321662
C	-0.7060904827	-2.1426564168	-0.0402076516	-0.199879
C	-1.2000177275	-2.9827587133	-1.22075527	 0.165353
O	-1.6128983351	-4.1028888679	-1.1144634819	-0.221054
C	 0.842308689	-2.0877978766	-0.024233238	 0.411095
O	 1.6067780156	-3.0152182091	-0.0266602075	-0.336388
N	 1.1502878655	-0.7452956232	-0.0118496062	-0.377044
H	 0.8539133777	 1.7979224199	 0.1861140018	 0.220223
H	-1.9585916688	-0.3968608741	 0.1218997335	 0.270283
H	-1.0482285956	-2.6190378037	 0.8871825023	 0.138276
H	-1.1489254994	-2.4449831293	-2.1926344259	 0.097572
H	 2.0999483382	-0.4096357982	 0.0100956307	 0.27545
62.0598	85.7703	135.1875	225.2619	346.416	368.2064	433.084	456.1791	524.8133	550.7333	632.009	682.4891	717.9514	738.0529	769.5213	886.8531	973.259	1021.1318	1060.4265	1078.1577	1128.6112	1205.7543	1235.3957	1298.6101	1352.9765	1401.3485	1405.1056	1422.3948	1787.109	1835.7856	1873.784	2901.4188	3039.2975	3530.7737	3654.4988	3656.3857
N=C1NC(C=O)C(=O)N1	[NH][C]1N[C@@H](C=O)C(=O)N1	
InChI=1S/C4H5N3O2/c5-4-6-2(1-8)3(9)7-4/h1-2H,(H3,5,6,7,9)	InChI=1S/C4H5N3O2/c5-4-6-2(1-8)3(9)7-4/h1-2H,(H3,5,6,7,9)/t2-/m0/s1
