19
gdb 64076	3.32349	1.22101	1.11986	4.9455	78.28	-0.262	-0.0452	0.2168	1164.4046	0.159059	-423.080042	-423.0714	-423.070456	-423.112946	33.149	
C	-0.1324378569	 1.5449567652	-0.0070697313	-0.429219
C	-0.0029086629	 0.0118554733	 0.0069024286	 0.181188
C	-1.4034448386	-0.6379302029	 0.0472102445	-0.415258
C	 0.7746009525	-0.4320823746	-1.2390878729	-0.095565
O	 1.157705915	-1.8137135522	-1.2113905109	-0.245347
C	 1.7814607819	-2.2829160782	-0.0956965055	 0.412617
O	 2.3433180911	-3.3467439057	-0.1293022916	-0.338912
C	 1.6513625606	-1.4627815331	 1.1308664114	-0.217287
C	 0.7987609353	-0.438779345	 1.2050927546	-0.058634
H	 0.8482172926	 2.0311883734	 0.0076301784	 0.124082
H	-0.6658923912	 1.8816352728	-0.9023231211	 0.122681
H	-0.6947042862	 1.8924233504	 0.8655898427	 0.122663
H	-2.0215910655	-0.2627365305	-0.7758047836	 0.11839
H	-1.3330119227	-1.724818107	-0.0428967621	 0.13939
H	-1.9157186152	-0.4059545375	 0.9862687712	 0.118928
H	 0.1716277995	-0.31946286	-2.1439901108	 0.119778
H	 1.6786490203	 0.1815097433	-1.3482944387	 0.109437
H	 2.2250481961	-1.8173979023	 1.978887366	 0.122849
H	 0.6419419543	 0.0853962106	 2.1458833412	 0.108221
84.5155	202.9079	210.6805	223.0895	242.9831	305.808	318.3079	367.4045	442.1619	453.7066	488.6066	586.1633	709.4447	726.9556	793.9635	849.8063	852.9326	914.7657	937.3309	953.8566	1004.7432	1022.023	1046.7373	1092.0771	1133.0955	1190.7423	1219.2157	1236.237	1287.8397	1322.8921	1394.2901	1395.2912	1408.5225	1433.4113	1483.1403	1484.1471	1500.6356	1503.1609	1507.6376	1689.0067	1828.0922	3018.8334	3030.3564	3034.8818	3095.543	3099.5711	3104.4465	3105.7613	3123.1554	3148.218	3209.9239
CC1(C)COC(=O)C=C1	CC1(C)COC(=O)C=C1	
InChI=1S/C7H10O2/c1-7(2)4-3-6(8)9-5-7/h3-4H,5H2,1-2H3	InChI=1S/C7H10O2/c1-7(2)4-3-6(8)9-5-7/h3-4H,5H2,1-2H3
