18
gdb 23480	3.49333	1.39085	1.20586	1.1957	79.37	-0.2356	0.0107	0.2463	1060.4193	0.149093	-401.863798	-401.856588	-401.855643	-401.895355	29.176	
O	-0.1196336567	 1.3292066761	 0.0505313691	-0.398527
N	 0.0276989443	-0.0751739538	 0.0488344594	-0.273924
C	-1.0981925365	-0.6498671895	-0.0440079614	 0.454231
C	-2.546527622	-0.2128330164	-0.0223964024	-0.141243
C	-3.2524550334	-0.440083183	-1.392725009	-0.229839
C	-3.299030439	-1.9669187939	-1.1302361334	-0.036236
C	-1.9361721711	-2.6737336113	-1.3398833971	-0.230591
C	-1.421581892	-2.1225378385	 0.0241995918	-0.138202
C	-2.9078435403	-1.7010334172	 0.3682056426	-0.037015
H	 0.789985622	 1.6239406854	 0.1653264632	 0.304472
H	-2.7935973958	 0.6804798702	 0.5489267043	 0.089415
H	-4.2594141526	-0.0134222577	-1.3653164118	 0.105018
H	-2.7429625847	-0.0843934838	-2.2930810256	 0.103708
H	-4.1929848358	-2.5015846963	-1.4514980024	 0.067972
H	-2.0532687387	-3.7597713308	-1.2788878393	 0.104316
H	-1.3584364588	-2.4303134854	-2.2366277933	 0.102423
H	-0.7792619286	-2.7603804831	 0.6303360928	 0.082345
H	-3.4561850203	-2.001897551	 1.2563165727	 0.071677
102.135	184.7476	253.0658	338.9088	360.2631	408.3153	479.1314	600.739	618.0408	709.1079	740.1168	822.1207	828.0076	835.819	883.1853	897.9246	952.7775	961.05	973.6071	989.6682	993.2001	1063.1633	1081.7446	1106.0738	1108.5203	1150.5194	1159.1911	1200.9518	1213.4654	1231.8094	1243.5235	1264.2501	1290.5973	1313.3444	1317.74	1407.1973	1478.4701	1490.6668	1775.6857	3046.4627	3048.0732	3096.8797	3099.4432	3105.9224	3117.1997	3125.4555	3157.3441	3818.8469
ON=C1C2CC3CC1C23	ON=C1[C@H]2C[C@H]3C[C@@H]1[C@@H]23	
InChI=1S/C7H9NO/c9-8-7-4-1-3-2-5(7)6(3)4/h3-6,9H,1-2H2	InChI=1S/C7H9NO/c9-8-7-4-1-3-2-5(7)6(3)4/h3-6,9H,1-2H2/t3-,4-,5+,6+
