20
gdb 62601	3.38028	1.7656	1.54635	1.4604	80.44	-0.2147	0.08	0.2947	943.0223	0.171461	-365.923849	-365.916478	-365.915534	-365.954956	30.86	
C	-0.0387929842	 1.573837888	 0.0006460826	-0.453152
C	-0.0184406015	 0.0541471106	-0.0489178508	 0.334238
C	-1.4025685817	-0.5228298953	 0.2413411407	-0.437151
C	 0.7092706565	-0.6630722095	-1.2199651325	-0.107262
C	 2.1803682277	-0.1840880992	-1.1600457015	-0.09349
C	 2.6610013455	-1.4009072481	-0.3866651738	-0.133326
C	 2.3338884162	-0.149404747	 0.3669740869	-0.026203
N	 1.0037065537	-0.6165495706	 0.8690963675	-0.182277
C	 1.168864474	-1.7381418836	-0.1798667438	-0.013095
H	 0.9407327278	 2.0021798006	-0.2242414927	 0.118431
H	-0.7572294601	 1.9726109429	-0.7238269016	 0.112462
H	-0.3420114315	 1.9178354938	 0.9957645819	 0.121137
H	-2.1292275644	-0.1690710711	-0.4978621243	 0.109691
H	-1.4069855999	-1.6160792941	 0.218434836	 0.11531
H	-1.7425924263	-0.2089748025	 1.2330129905	 0.122423
H	 0.2532717048	-0.8764713222	-2.1873944922	 0.059961
H	 2.7277917617	 0.4611111709	-1.8330616801	 0.08908
H	 3.5622375307	-1.9942874741	-0.4469837603	 0.094099
H	 2.9681516434	 0.5397061173	 0.9085200839	 0.090009
H	 0.7167342474	-2.7090292066	 0.0066328835	 0.079114
180.9247	222.4091	231.5948	242.6135	339.2881	357.88	531.954	588.2661	604.1339	751.9104	782.3502	803.1807	813.6447	825.2704	839.556	865.8678	881.3341	917.2806	931.8793	947.4411	968.5373	979.6356	1014.101	1021.47	1039.1167	1051.1413	1072.5588	1137.2444	1169.4952	1175.3121	1185.8324	1201.9014	1239.315	1256.1793	1282.4757	1286.0078	1356.7341	1400.1698	1416.1753	1480.1468	1483.5549	1499.9206	1508.0833	3032.6394	3038.3924	3094.8321	3103.7566	3106.9944	3113.2544	3121.3958	3142.5023	3197.6118	3206.6717	3220.8414
CC1(C)C2C3C4C3N1C24	CC1(C)[C@H]2[C@@H]3[C@H]4[C@@H]3N1[C@@H]24	
InChI=1S/C8H11N/c1-8(2)5-3-4-6(3)9(8)7(4)5/h3-7H,1-2H3	InChI=1S/C8H11N/c1-8(2)5-3-4-6(3)9(8)7(4)5/h3-7H,1-2H3/t3-,4-,5-,6+,7+/m0/s1
