21
gdb 72698	2.50704	1.95757	1.6071	1.4864	81.62	-0.2314	0.0874	0.3188	959.1396	0.184162	-387.043845	-387.036503	-387.035558	-387.074835	31.475	
C	-0.0991259655	 1.507474546	 0.0735275177	-0.467085
C	-0.007115676	-0.0171732254	 0.0658490832	 0.34993
C	 1.1962093331	-0.4995895659	-0.8254570497	-0.296431
C	 2.0812442407	-0.5571308291	 0.4802814472	-0.352551
C	 0.7594447646	-0.6847798412	 1.2374371856	 0.414197
C	-0.1172485887	-0.4934691024	 2.484013234	-0.344895
C	-0.9818597366	-1.4598249001	 1.5995716085	 0.073714
C	-1.380093991	-0.7160232636	 0.2897135973	-0.315036
O	 0.2635217408	-2.0649046021	 1.1579861352	-0.32435
H	 0.88509303	 1.9784269533	 0.171251759	 0.112307
H	-0.5366058128	 1.8629908369	-0.8668644714	 0.118399
H	-0.7306571519	 1.8794526996	 0.8870145073	 0.112129
H	 1.0455619424	-1.4919544441	-1.2489424708	 0.120016
H	 1.522301049	 0.1898640152	-1.6080075319	 0.091174
H	 2.7832621397	-1.3846118484	 0.5971065627	 0.112
H	 2.5971213261	 0.387268648	 0.6655053251	 0.111587
H	 0.2390855932	-1.0164390667	 3.3723871082	 0.111674
H	-0.4794815319	 0.5086856423	 2.7248967995	 0.096702
H	-1.6902322383	-2.1603896205	 2.0436328256	 0.077958
H	-2.2033436369	-0.0040182038	 0.4027884774	 0.090118
H	-1.655793	-1.4483375879	-0.4733921197	 0.108443
195.9856	245.7591	270.5431	317.753	353.2878	407.7674	444.1934	509.5309	563.3331	612.1635	684.3024	737.7377	808.0323	814.3208	850.5245	872.3958	879.0225	894.2353	937.6486	948.3712	965.3054	992.0555	1000.5929	1032.7224	1097.7325	1099.5887	1147.5583	1162.6832	1189.7819	1207.7245	1211.6024	1231.1807	1245.0943	1253.0703	1274.1452	1283.8133	1306.1302	1329.76	1412.6181	1467.2054	1478.0157	1484.9035	1489.2953	1496.5692	1505.6384	3024.3616	3055.1658	3070.4873	3072.673	3077.6821	3085.4186	3096.8032	3106.5798	3115.3044	3129.643	3143.0282	3148.8464
CC12CCC11CC(C2)O1	C[C@@]12CC[C@]31C[C@@H](C2)O3	
InChI=1S/C8H12O/c1-7-2-3-8(7)5-6(4-7)9-8/h6H,2-5H2,1H3	InChI=1S/C8H12O/c1-7-2-3-8(7)5-6(4-7)9-8/h6H,2-5H2,1H3/t6-,7+,8-/m1/s1
