20
gdb 85171	2.2173	1.42409	0.94414	3.6534	80.16	-0.237	0.0382	0.2752	1273.2257	0.170763	-403.162363	-403.153214	-403.15227	-403.196916	33.937	
C	-0.1432220085	 1.5327088328	-0.040448815	-0.396165
C	 0.0265685407	 0.0237577607	 0.0521812988	 0.048158
N	 1.0392449377	-0.5533718099	-0.8436056918	-0.337741
C	 1.8236852763	-1.1071561151	 0.1383607128	 0.424014
O	 2.8388194425	-1.7501823184	 0.1082108998	-0.367272
C	 0.8682067798	-0.5723753991	 1.2427969873	-0.192232
C	 1.4559365066	 0.3417940776	 2.2811330702	 0.034403
C	 0.7054833495	 0.6258690578	 3.5630801802	-0.280176
C	 1.9431260982	-0.2329307948	 3.5877001588	-0.266964
H	 0.8191452364	 2.0467855155	 0.0281161831	 0.123615
H	-0.6074817488	 1.8113938471	-0.9925492383	 0.114953
H	-0.7890106274	 1.8951516992	 0.7654020889	 0.127884
H	-0.9489519227	-0.4678180761	-0.0506390598	 0.081709
H	 1.0853681819	-0.6265588434	-1.8496781495	 0.244962
H	 0.3426887332	-1.4012058997	 1.7286613469	 0.092711
H	 2.0466972767	 1.1626421798	 1.8859055496	 0.087902
H	 0.7613009254	 1.6256938369	 3.9789825139	 0.113247
H	-0.253823358	 0.1392457813	 3.7069666077	 0.109661
H	 1.8231568672	-1.2990878364	 3.7461670735	 0.120362
H	 2.8492452031	 0.1780188242	 4.0176021231	 0.116971
61.4457	67.8829	130.3184	176.069	227.8312	279.2514	323.3916	378.3399	407.5082	488.1404	546.1746	675.278	729.5024	767.266	800.5497	840.6959	877.9553	901.6136	922.6467	954.1324	1030.7046	1042.6839	1060.8337	1074.0944	1079.2629	1130.3162	1136.5739	1172.3853	1182.4837	1198.1812	1208.9413	1230.7123	1285.1082	1295.1047	1383.0702	1392.1741	1413.1064	1428.8014	1471.2533	1487.1526	1499.4169	1505.8347	1890.0979	3020.2275	3037.7661	3059.918	3103.083	3121.3121	3130.1909	3139.9083	3150.2758	3209.8241	3227.0747	3602.5594
CC1NC(=O)C1C1CC1	C[C@H]1NC(=O)[C@H]1C1CC1	
InChI=1S/C7H11NO/c1-4-6(5-2-3-5)7(9)8-4/h4-6H,2-3H2,1H3,(H,8,9)	InChI=1S/C7H11NO/c1-4-6(5-2-3-5)7(9)8-4/h4-6H,2-3H2,1H3,(H,8,9)/t4-,6-/m1/s1
