15
gdb 124972	3.10876	1.26961	0.96369	3.9719	70.99	-0.261	-0.0119	0.2491	1164.1378	0.113661	-413.012415	-413.004042	-413.003098	-413.046588	29.223	
C	 0.3595374349	 1.4728915054	-0.066103042	-0.522187
C	 0.0932257699	 0.0044330632	-0.0838690104	 0.263695
C	 0.0224190607	-0.9415556587	-1.0879941445	 0.234086
C	 0.1887682056	-0.8139027601	-2.576484572	-0.444795
C	 1.3376787082	 0.0046961269	-2.9684915386	 0.269825
N	 2.2329205672	 0.6731183973	-3.2636176307	-0.31797
N	-0.2705859948	-2.1544735558	-0.537657776	-0.248947
N	-0.3898563036	-2.0252669612	 0.7500081999	-0.117313
N	-0.1721382856	-0.7262211757	 1.0278202783	-0.21774
H	 0.9975487375	 1.7562355709	-0.9057534725	 0.180375
H	-0.5688900804	 2.0509627682	-0.1390935632	 0.149727
H	 0.8662204306	 1.7724626195	 0.8563331052	 0.139526
H	 0.3072942044	-1.8209664625	-2.9887231701	 0.183798
H	-0.7067957667	-0.386974017	-3.0460518562	 0.165598
H	-0.2027402979	-0.4165222304	 1.9870136828	 0.28232
46.157	69.4428	117.15	239.9699	246.0202	303.8578	379.0959	396.5448	483.6279	594.5772	667.9109	694.0913	729.3503	775.4058	937.9417	948.1792	999.1068	1028.5016	1061.46	1091.465	1184.1351	1228.9511	1260.2406	1288.668	1359.7148	1375.9244	1425.9552	1456.9704	1472.0923	1490.5265	1512.3833	1626.2681	2362.4402	3031.7456	3037.0412	3090.6427	3096.0564	3135.1696	3646.6284
CC1=C(CC#N)N=NN1	Cc1c(CC#N)nn[nH]1	
InChI=1S/C5H6N4/c1-4-5(2-3-6)8-9-7-4/h2H2,1H3,(H,7,8,9)	InChI=1S/C5H6N4/c1-4-5(2-3-6)8-9-7-4/h2H2,1H3,(H,7,8,9)
