18
gdb 23457	3.17509	1.32792	1.02798	1.3325	84.24	-0.2166	-0.0263	0.1902	1163.8341	0.149309	-401.918378	-401.910657	-401.909713	-401.950463	30.717	
O	-0.0492255319	 1.3321283015	-0.2674166969	-0.39744
N	 0.0116566751	-0.0712711608	-0.245491959	-0.228917
C	-1.1177679755	-0.6032166969	 0.0696775199	 0.369852
C	-2.3498929654	 0.1263702114	 0.360473894	-0.132566
C	-3.392034287	-0.4551590384	 0.9683964124	-0.071137
C	-3.4073652634	-1.8787968015	 1.4497295859	-0.287864
C	-2.3165018692	-2.7466105818	 0.8470676273	-0.036601
C	-2.1827090241	-2.8547653124	-0.6449264995	-0.295723
C	-1.1416947169	-2.0845758073	 0.1501979354	-0.097017
H	 0.8431007169	 1.5638716789	-0.5434193293	 0.305564
H	-2.3804032135	 1.1723822029	 0.0835384136	 0.115708
H	-4.283644384	 0.1333293483	 1.1713193139	 0.098695
H	-3.3088603922	-1.8721667575	 2.5456543842	 0.121372
H	-4.3936011593	-2.3227458113	 1.2540599639	 0.112778
H	-2.0873504463	-3.6422880585	 1.4159506513	 0.08896
H	-1.8795882358	-3.804983307	-1.0697649306	 0.115699
H	-2.866138797	-2.2805339046	-1.2613394199	 0.121106
H	-0.1624917504	-2.539110055	 0.2430323935	 0.097533
90.5283	192.3335	246.7392	304.0476	317.1959	385.8774	417.6724	434.7403	528.5269	596.0057	630.8602	757.0777	764.5957	785.9419	831.1833	875.9194	894.7555	929.7956	972.2872	1012.3931	1020.3494	1028.7603	1053.3967	1071.5737	1119.7975	1130.3838	1196.1916	1213.6164	1238.7096	1293.3392	1341.1195	1367.398	1394.72	1425.7542	1435.6291	1469.9095	1485.7591	1673.8353	1698.5408	2996.9439	3020.216	3134.4041	3152.0705	3156.1861	3181.709	3218.842	3222.964	3828.396
ON=C1C=CCC2CC12	ON=C1C=CC[C@H]2C[C@@H]12	
InChI=1S/C7H9NO/c9-8-7-3-1-2-5-4-6(5)7/h1,3,5-6,9H,2,4H2	InChI=1S/C7H9NO/c9-8-7-3-1-2-5-4-6(5)7/h1,3,5-6,9H,2,4H2/t5-,6+/m0/s1
