21
gdb 115841	2.67731	1.28794	1.14295	2.6554	77.89	-0.2451	0.0746	0.3198	1184.049	0.183738	-424.215685	-424.206978	-424.206034	-424.24886	33.628	
C	-0.1922931948	 1.5399068246	-0.1545009367	-0.423587
C	 0.0383552827	 0.0479514501	-0.014123079	-0.006938
C	 1.3827947336	-0.621531159	-0.1739721901	-0.0871
C	 2.6244120657	 0.2245759949	 0.0534902869	-0.098358
O	 2.42691676	 0.8976798624	 1.296867231	-0.284639
C	 1.572658392	 0.0966401984	 2.1261229888	 0.100734
C	 0.9208113073	 1.0319042451	 3.1374759243	-0.073561
O	 1.8947314201	 1.6995133511	 3.9178091376	-0.425616
C	 0.6741179491	-0.6616568398	 1.1659411171	-0.101747
H	 0.6445545551	 2.124461171	 0.2291668178	 0.139684
H	-0.3361300996	 1.800854515	-1.2092060667	 0.111591
H	-1.0958416725	 1.8468580047	 0.3837025493	 0.117134
H	-0.7702902088	-0.54019696	-0.443768982	 0.086898
H	 1.4790275865	-1.5027059421	-0.7982894678	 0.088294
H	 3.5155728753	-0.4210643584	 0.0947765456	 0.098049
H	 2.7956187179	 0.9946077733	-0.7067308706	 0.108779
H	 2.1851884411	-0.6315658801	 2.6853669941	 0.0743
H	 0.2627794121	 1.7423465055	 2.6166432024	 0.091579
H	 0.3038060209	 0.4478066055	 3.8287662966	 0.10424
H	 2.516589724	 2.0854179744	 3.2900160011	 0.29158
H	 0.2172938124	-1.5746455768	 1.5313590003	 0.088685
96.7149	142.4809	186.1019	214.9326	229.9207	249.175	356.6803	429.6565	437.7051	470.3144	539.9748	683.6762	727.5145	775.8908	785.7477	837.5216	892.6293	962.2471	986.8125	1011.6106	1023.0711	1030.4259	1069.0353	1082.2823	1112.2378	1115.5865	1118.5254	1136.8506	1151.2012	1221.8017	1225.9406	1249.2935	1320.5657	1333.3645	1350.4232	1363.6151	1377.8016	1403.2262	1420.4307	1439.958	1450.7936	1496.0279	1501.4386	1512.4719	1520.7186	2954.3411	2983.852	3007.0925	3032.2799	3062.4299	3075.0189	3085.0626	3119.2291	3143.0212	3166.982	3177.2356	3800.6698
CC1C2COC(CO)C12	C[C@H]1[C@H]2CO[C@@H](CO)[C@@H]12	
InChI=1S/C7H12O2/c1-4-5-3-9-6(2-8)7(4)5/h4-8H,2-3H2,1H3	InChI=1S/C7H12O2/c1-4-5-3-9-6(2-8)7(4)5/h4-8H,2-3H2,1H3/t4-,5+,6-,7-/m0/s1
