21
gdb 81266	2.52076	1.45879	1.24731	3.0601	82.45	-0.228	-0.0026	0.2254	1134.8484	0.183385	-387.10668	-387.09821	-387.097266	-387.139334	33.252	
C	-0.1122257831	 1.5687158067	 0.0926795709	-0.434649
C	 0.027569077	 0.0519188943	 0.0495485298	 0.03493
C	 0.7339387931	-0.5846606062	-1.1935749509	-0.040341
C	 2.0855583164	-0.2780752516	-0.4883372612	-0.257015
C	 1.2618439625	-0.5764429689	 0.8074918979	-0.135852
C	 0.9401737084	-2.0469816353	 0.5938730124	 0.432361
O	 0.9140580377	-2.9499411935	 1.3876274593	-0.350187
C	 0.5930842005	-2.1012296559	-0.9181444192	-0.085425
C	-0.7432215613	-2.7755226293	-1.2241846068	-0.423365
H	 0.817910271	 2.0957203465	-0.1346752679	 0.120954
H	-0.8642772467	 1.8984157822	-0.6328341019	 0.120407
H	-0.4448701741	 1.8957505084	 1.0833553134	 0.122927
H	-0.9385128765	-0.3925358137	 0.3120599441	 0.07652
H	 0.5234920007	-0.2387990973	-2.206693337	 0.063635
H	 2.9360188562	-0.9291622068	-0.710878289	 0.101176
H	 2.3965224073	 0.763627997	-0.5574385155	 0.109956
H	 1.5678846645	-0.270605537	 1.8064331581	 0.076536
H	 1.3917356472	-2.6539754383	-1.4304858797	 0.093538
H	-1.5896645916	-2.2182038665	-0.8112255414	 0.119949
H	-0.8975878155	-2.8698967684	-2.303582764	 0.114732
H	-0.7615040535	-3.7774129765	-0.7855872715	 0.139212
125.0172	177.9027	193.3828	202.3325	227.4941	263.1744	354.763	449.926	474.1046	522.5844	592.7892	687.1374	757.3911	782.2447	815.9018	852.3958	872.7158	886.7791	960.9969	994.5465	1021.5923	1032.0458	1064.5601	1078.8811	1085.3942	1102.2908	1119.5155	1144.3809	1170.361	1213.8477	1232.6519	1252.4659	1258.1516	1272.2019	1304.965	1349.9836	1395.3339	1408.9429	1415.6747	1494.3137	1497.1616	1497.5686	1498.3895	1519.7913	1862.4532	3019.9052	3034.6053	3037.2643	3044.0202	3063.9129	3094.5602	3101.9373	3105.5489	3114.6787	3115.898	3136.0462	3141.9134
CC1C2CC1C(=O)C2C	C[C@H]1[C@H]2C[C@@H]1C(=O)[C@H]2C	
InChI=1S/C8H12O/c1-4-6-3-7(4)8(9)5(6)2/h4-7H,3H2,1-2H3	InChI=1S/C8H12O/c1-4-6-3-7(4)8(9)5(6)2/h4-7H,3H2,1-2H3/t4-,5-,6+,7-/m0/s1
