20
gdb 124579	4.08489	0.92721	0.86771	6.1796	79.54	-0.2468	0.019	0.2658	1406.6088	0.171879	-399.352737	-399.343696	-399.342752	-399.38739	32.961	
C	-0.0675084193	 1.5702767943	 0.0087529272	-0.390199
C	 0.0188448681	 0.0387296564	 0.0110771096	 0.028914
C	 0.8872503165	-0.4738079624	 1.1653401704	-0.394033
C	-1.4030914012	-0.552123387	 0.0508424395	-0.177762
N	-1.4467283591	-2.003122599	-0.0742041792	 0.000065
C	-1.2928221744	-2.7546356793	-1.2055926156	 0.015531
N	-1.3604002459	-4.0335440876	-0.9358162076	-0.223912
N	-1.5655298872	-4.1502338443	 0.4249690564	-0.227594
C	-1.6121054799	-2.9361858045	 0.9107586621	 0.015356
H	 0.9297046908	 2.014405702	-0.059222211	 0.12428
H	-0.6584716958	 1.9413212265	-0.8352710973	 0.11658
H	-0.5315657298	 1.9393928264	 0.9310513559	 0.119248
H	 0.4773611771	-0.2821730837	-0.9341280862	 0.089116
H	 0.4742314233	-0.1647778516	 2.1334024775	 0.11329
H	 0.9640925526	-1.5645817831	 1.1627781102	 0.138926
H	 1.9008034965	-0.0679779949	 1.0943189603	 0.122951
H	-1.8923298684	-0.2887882581	 0.9947511752	 0.125432
H	-2.0081935245	-0.1230170513	-0.7545850481	 0.126473
H	-1.1447908547	-2.3215747279	-2.1831360994	 0.137888
H	-1.7668012146	-2.671912031	 1.9456408699	 0.139452
47.669	76.3467	101.468	222.4316	247.5867	271.8477	316.8641	342.3434	415.507	426.8459	652.7615	697.4444	750.2913	818.8924	821.2237	848.5923	897.8294	933.2388	953.1904	960.5089	971.0662	1025.57	1087.8694	1127.0614	1146.8649	1195.9078	1210.9477	1230.2401	1250.6526	1329.8985	1366.9451	1380.1427	1388.9447	1404.2729	1408.9768	1428.6195	1480.3774	1488.3524	1494.4358	1497.9761	1506.4452	1511.552	1553.7601	3015.5686	3028.3445	3031.9155	3045.7834	3089.1627	3094.7803	3100.5872	3110.2112	3117.2748	3259.129	3263.8424
CC(C)CN1C=NN=C1	CC(C)Cn1cnnc1	
InChI=1S/C6H11N3/c1-6(2)3-9-4-7-8-5-9/h4-6H,3H2,1-2H3	InChI=1S/C6H11N3/c1-6(2)3-9-4-7-8-5-9/h4-6H,3H2,1-2H3
