17
gdb 89680	3.0706	1.31789	1.08882	2.3478	70.53	-0.2602	-0.0462	0.214	1121.2013	0.133053	-458.937279	-458.928426	-458.927482	-458.970797	32.572	
C	-0.1221313391	 1.3992794744	 0.2726627031	-0.514099
C	 0.1654730093	-0.0425343457	 0.0225863986	 0.308312
O	-0.6774636366	-1.0167182708	 0.6302379681	-0.303531
C	 0.7264646638	-1.1168813988	 0.9130999293	 0.25469
C	 1.3651912612	-1.8496127922	-0.2678995322	-0.359863
C	 0.7597890601	-0.7474621644	-1.2195867339	 0.103305
O	-0.1575911867	-1.137148605	-2.1991190817	-0.431171
C	 1.1952350293	-0.9444778684	 2.3043121279	 0.057446
O	 0.5436280776	-0.4501655718	 3.1911725992	-0.259462
H	 0.7286250992	 2.0212106757	-0.0214848364	 0.130104
H	-0.9917270526	 1.717700923	-0.3126143497	 0.144499
H	-0.3373271651	 1.5581189351	 1.3321205887	 0.162173
H	 2.4578943998	-1.844474457	-0.2549301869	 0.117301
H	 1.0010839318	-2.8662216025	-0.4331126668	 0.116149
H	 1.5344813412	-0.1588945745	-1.7168723919	 0.101416
H	-0.8905214245	-1.5602248743	-1.7331871714	 0.29109
H	 2.2432666212	-1.2826694928	 2.4654254659	 0.081639
85.6473	119.8181	181.7317	193.7187	206.6106	284.6324	291.1233	381.182	451.0471	486.5306	504.7609	609.0875	697.0649	728.5149	789.9071	806.4726	846.8229	926.1316	963.1384	1023.0267	1067.4012	1104.5622	1121.1805	1129.3187	1198.2156	1205.0802	1223.3413	1294.4204	1311.8989	1390.8872	1424.7318	1430.8494	1450.2247	1476.3317	1482.5906	1488.3799	1807.752	2882.9768	3039.5247	3066.8906	3091.751	3105.209	3127.7891	3132.4553	3772.5887
CC12OC1(CC2O)C=O	C[C@]12O[C@]1(C[C@H]2O)C=O	
InChI=1S/C6H8O3/c1-5-4(8)2-6(5,3-7)9-5/h3-4,8H,2H2,1H3	InChI=1S/C6H8O3/c1-5-4(8)2-6(5,3-7)9-5/h3-4,8H,2H2,1H3/t4-,5-,6-/m1/s1
