19
gdb 92674	2.72084	1.32032	1.00736	1.1134	86.75	-0.2312	-0.0232	0.2081	1210.6519	0.158099	-385.876993	-385.867911	-385.866967	-385.910473	34.937	
C	-0.0966643181	 1.5868187752	-0.0147022172	-0.395804
C	 0.0831617153	 0.0694542398	-0.0115379391	-0.119979
C	 0.8721080775	-0.5051506926	-1.224753879	 0.115315
O	 1.8858480178	 0.3760574044	-1.6845979996	-0.428931
C	 1.4768148138	-1.8244848868	-0.6882486041	-0.278559
C	 1.6205572227	-1.5502490953	 0.7863245853	-0.195387
C	 0.8638570232	-0.5088363636	 1.1735621593	 0.192827
C	 0.7244823018	-0.0146455207	 2.4920780678	 0.18922
C	 0.5739045791	 0.4415697548	 3.5979008588	-0.408772
H	 0.8650575544	 2.1034696551	-0.0595654587	 0.115479
H	-0.6820407079	 1.9032374196	-0.883228199	 0.116525
H	-0.6182598534	 1.9124586773	 0.8895268623	 0.123071
H	-0.9142054589	-0.3955615625	-0.0069722998	 0.090088
H	 0.2225886564	-0.6608164919	-2.0898363939	 0.082844
H	 2.5096706352	 0.505707212	-0.960467514	 0.281178
H	 0.8007385286	-2.6748882192	-0.8604085219	 0.114772
H	 2.4178615976	-2.0597957632	-1.1963404277	 0.112823
H	 2.2280879015	-2.1496860112	 1.4539307788	 0.102311
H	 0.4507792533	 0.8309907389	 4.5779414818	 0.190976
77.1239	139.2572	165.1915	207.299	266.6976	279.9752	358.4749	386.9452	406.8761	478.6808	528.6147	578.8176	595.0696	630.9622	636.7757	753.5425	776.1929	831.5931	861.486	900.3603	967.8164	998.9829	1017.5381	1049.6954	1099.9462	1128.6145	1172.4658	1189.8566	1241.8479	1259.3401	1290.4216	1319.7446	1334.3726	1351.4714	1412.0808	1434.1185	1471.2073	1493.6863	1494.5967	1657.0146	2217.9803	2991.1615	3003.9908	3046.885	3071.08	3084.8791	3115.0259	3125.464	3204.8047	3502.9249	3788.5424
CC1C(O)CC=C1C#C	C[C@H]1[C@@H](O)CC=C1C#C	
InChI=1S/C8H10O/c1-3-7-4-5-8(9)6(7)2/h1,4,6,8-9H,5H2,2H3	InChI=1S/C8H10O/c1-3-7-4-5-8(9)6(7)2/h1,4,6,8-9H,5H2,2H3/t6-,8+/m1/s1
