23
gdb 109942	2.13743	1.3538	1.00071	1.8526	85.33	-0.2534	0.0693	0.3226	1315.4751	0.204578	-388.268423	-388.258762	-388.257818	-388.30274	36.792	
C	 0.4272560918	 1.7972532293	 0.1094127278	-0.384543
C	 0.3960836191	 0.2725906737	-0.0478596508	-0.209844
C	 0.7321440755	-0.4715429618	 1.2385719279	-0.049057
C	-0.2926365848	-0.5805019069	 2.4307948055	-0.004139
C	-1.7683003509	-0.4809371832	 2.0524904585	-0.398451
C	 0.1877958418	-2.0508777483	 2.658630578	-0.334354
C	 0.8015689037	-2.0013857934	 1.2605124861	 0.450907
C	 0.6397854973	-2.9521276201	 0.1579317639	-0.269126
O	 1.9021798909	-2.7728324268	 0.8176963752	-0.279784
H	 1.4192229058	 2.1394373071	 0.424342276	 0.1167
H	 0.1845022501	 2.2992906448	-0.8322283812	 0.112456
H	-0.2916946679	 2.1371870825	 0.8623689711	 0.118539
H	-0.5874223565	-0.0419878966	-0.4170165537	 0.095051
H	 1.1202125354	-0.0250588534	-0.8178167589	 0.103116
H	 1.6830691476	-0.0917485601	 1.6350088626	 0.079996
H	-0.0796438979	 0.0973914176	 3.2609596266	 0.069627
H	-2.0252236464	-1.1699920107	 1.2404177848	 0.11666
H	-2.3993213989	-0.7367394579	 2.9105005983	 0.114715
H	-2.0407228652	 0.5294221175	 1.730067944	 0.117653
H	 0.959891995	-2.1277787039	 3.4295199378	 0.110916
H	-0.5827259517	-2.8028012685	 2.8498024951	 0.099757
H	 0.1506824434	-3.9093231768	 0.3381842645	 0.110637
H	 0.5990545029	-2.5993321138	-0.8718418091	 0.112568
81.4583	103.7863	145.1236	198.049	250.6612	262.5276	268.8588	293.5098	342.6964	383.4416	478.026	498.9036	595.376	728.5574	790.3319	821.3011	834.6941	877.0919	886.968	917.9676	937.5446	979.3338	1020.8168	1044.1711	1061.5337	1099.6797	1114.0148	1126.6799	1158.3451	1170.4568	1185.6527	1196.4075	1222.5696	1263.4523	1281.6828	1293.7162	1338.0648	1365.0539	1397.2213	1410.6697	1414.6422	1430.4329	1481.6602	1484.2937	1496.3606	1500.7736	1501.5571	1508.2015	1535.3585	3018.4461	3019.9887	3029.3346	3032.2074	3053.1918	3056.0997	3067.9652	3075.4029	3095.3436	3098.2983	3100.4267	3103.9087	3108.5674	3160.5111
CCC1C(C)CC11CO1	CC[C@H]1[C@@H](C)C[C@]21CO2	
InChI=1S/C8H14O/c1-3-7-6(2)4-8(7)5-9-8/h6-7H,3-5H2,1-2H3	InChI=1S/C8H14O/c1-3-7-6(2)4-8(7)5-9-8/h6-7H,3-5H2,1-2H3/t6-,7-,8+/m0/s1
