16
gdb 74648	3.03515	1.87403	1.33819	3.6484	68.87	-0.2217	0.013	0.2347	926.3671	0.126447	-433.99436	-433.987242	-433.986298	-434.02535	29.135	
N	-0.0220056702	 1.3356399258	 0.1362522471	-0.597015
C	-0.0463425225	-0.0224306563	 0.0373522467	 0.32709
N	-1.0661225194	-0.8058439517	 0.0405981669	-0.327066
C	-0.3936560984	-2.1199287849	-0.0267322557	 0.032075
C	 0.8899837035	-2.1365995473	 0.8581170752	-0.100588
N	 1.5537601393	-3.0731918954	-0.1184891882	-0.348122
C	 0.8457561248	-2.0559739728	-0.976866134	-0.061206
C	 1.2147734034	-0.866347685	-0.0248688621	 0.272228
O	 2.4772209451	-0.2865075795	-0.1053353374	-0.485808
H	 0.7939811193	 1.7882860279	-0.2473376474	 0.259453
H	-0.8974470886	 1.8115527439	-0.0278149143	 0.263457
H	-1.0390764363	-2.9931837697	-0.0485151904	 0.093579
H	 0.976861053	-2.246120081	 1.9426308567	 0.080906
H	 2.5571036927	-2.8675326784	-0.1382118015	 0.212433
H	 0.8793398754	-2.0709684727	-2.0685271511	 0.085642
H	 2.7260718089	 0.0312790071	 0.7697430795	 0.292942
179.3931	239.0841	273.514	331.1143	361.2552	426.9702	482.2086	522.1986	548.1001	622.1578	669.9693	688.9946	728.4248	807.1451	854.559	879.8785	915.6265	931.5947	990.8574	1006.8679	1047.3188	1120.4339	1133.4572	1142.4033	1149.2086	1172.9275	1217.2694	1259.0659	1276.7605	1300.7209	1314.9551	1352.7864	1445.7978	1612.0795	1708.3282	3080.4188	3096.5593	3171.573	3391.678	3566.105	3680.7152	3803.4084
NC1=NC2C3NC2C13O	N[C]1[N][C@@H]2[C@H]3N[C@@H]2[C@@]13O	
InChI=1S/C5H7N3O/c6-4-5(9)2-1(7-4)3(5)8-2/h1-3,8-9H,(H2,6,7)	InChI=1S/C5H7N3O/c6-4-5(9)2-1(7-4)3(5)8-2/h1-3,8-9H,(H2,6,7)/t1-,2-,3+,5-
