16
gdb 73737	2.02813	1.78218	0.96547	6.7185	80.06	-0.258	-0.0708	0.1871	1170.75	0.123986	-400.818236	-400.809646	-400.808702	-400.851946	30.71	
C	-0.0038093988	 1.4911286219	 0.0747648214	-0.50656
C	 0.0121459394	 0.0047238026	-0.0073695256	 0.223496
C	-0.0131653448	-0.7497515092	-1.128867776	 0.007762
C	-0.0606473747	-0.2591510965	-2.4612340325	 0.218154
N	-0.099966535	 0.1456681487	-3.5452223796	-0.342469
C	 0.0148465094	-2.2068627561	-0.7991813714	 0.324653
O	-0.0003238775	-3.1244787848	-1.5777136878	-0.301556
C	 0.0669014511	-2.3042630558	 0.7313252887	-0.337623
C	 0.0606147535	-0.8518875928	 1.2365564252	-0.307763
H	 0.8866107602	 1.8518596883	 0.6043253121	 0.150004
H	-0.0400526978	 1.9569787087	-0.9116212218	 0.163073
H	-0.8686747537	 1.829993228	 0.6583915415	 0.150013
H	-0.7898940898	-2.8859839898	 1.0819456646	 0.146094
H	 0.9648331847	-2.8561452901	 1.0226071167	 0.146215
H	 0.9489287687	-0.6029642404	 1.8299060719	 0.133151
H	-0.7999399849	-0.6284972527	 1.8790854727	 0.133357
80.1941	122.1741	134.1008	139.3148	204.1289	286.1369	428.873	435.4545	515.5647	516.8629	556.4538	632.8538	664.289	692.9474	824.1315	916.007	966.1543	1002.0401	1023.0091	1058.607	1065.1747	1163.3233	1189.7372	1234.4919	1269.7373	1297.683	1347.7514	1412.1882	1451.1943	1472.4836	1475.3686	1477.502	1671.876	1830.7804	2344.9554	3026.5675	3033.8598	3058.6202	3072.2803	3077.7463	3113.4866	3137.5656
CC1=C(C#N)C(=O)CC1	CC1=C(C#N)C(=O)CC1	
InChI=1S/C7H7NO/c1-5-2-3-7(9)6(5)4-8/h2-3H2,1H3	InChI=1S/C7H7NO/c1-5-2-3-7(9)6(5)4-8/h2-3H2,1H3
