16
gdb 47284	3.11614	1.28085	0.94614	0.9205	74.17	-0.2293	-0.0992	0.1302	1174.2103	0.125282	-437.911641	-437.903606	-437.902662	-437.945697	29.5	
O	 0.0031755859	 0.7889496518	 1.5354438901	-0.304176
C	-0.055612569	 1.3928734826	 0.483220794	 0.347368
C	-1.4101464214	 1.8973242745	-0.0286407099	-0.286525
N	-1.5795011456	 2.1339544489	-1.4446973782	-0.278899
C	-0.9194990422	 3.2963113575	-1.9953545042	-0.286521
C	 0.6045307703	 3.2751187794	-2.1630238436	 0.347375
O	 1.1300845623	 4.0019341435	-2.9820998152	-0.304177
C	 1.4741174147	 2.3773342985	-1.3505525813	-0.140729
C	 1.2066284253	 1.6146548108	-0.2782688417	-0.140722
H	-2.149764419	 1.1707724336	 0.3234190813	 0.140032
H	-1.6256445279	 2.8321804109	 0.5078248541	 0.13925
H	-1.3957040145	 1.3012783831	-1.9911485521	 0.229155
H	-1.3240051643	 3.5254232003	-2.9866888101	 0.140031
H	-1.1587240878	 4.1633313796	-1.3635023047	 0.139242
H	 2.5018167701	 2.4156619878	-1.7046214737	 0.129646
H	 2.031439533	 1.0745039374	 0.1809960253	 0.129647
33.8487	45.2951	264.8569	272.3326	337.2296	345.7999	419.909	458.2451	513.5297	587.5854	611.1838	654.0663	728.2425	743.4086	830.1463	850.1491	943.0778	986.6915	1057.9399	1079.8197	1144.2816	1197.5622	1214.2367	1260.0354	1309.9492	1337.8598	1339.6197	1358.3149	1395.18	1436.633	1449.5432	1508.2717	1669.9268	1759.6594	1761.2418	3020.5968	3021.7901	3081.4167	3082.7331	3155.2322	3174.1408	3550.9249
O=C1CNCC(=O)C=C1	O=C1CNCC(=O)C=C1	
InChI=1S/C6H7NO2/c8-5-1-2-6(9)4-7-3-5/h1-2,7H,3-4H2	InChI=1S/C6H7NO2/c8-5-1-2-6(9)4-7-3-5/h1-2,7H,3-4H2
