15
gdb 56105	4.36334	0.75397	0.65823	3.1727	69.82	-0.2643	-0.1014	0.1629	1604.1804	0.109663	-453.996836	-453.986888	-453.985944	-454.034645	32.68	
C	-0.1174120345	 1.4411259162	-0.0433834646	-0.488269
C	-0.1249487501	-0.0746964956	 0.0282105645	 0.411228
O	-0.6192729839	-0.6966560944	 0.9489164649	-0.360652
N	 0.4648681251	-0.7098728724	-1.0364119426	-0.332124
C	 0.3749775989	-2.1363373741	-1.1725585354	-0.240045
C	 0.3125506945	-2.5331279895	-2.6277415019	 0.278801
O	 0.3765592753	-1.7575870083	-3.5491571851	-0.269482
C	 0.1933831445	-3.9830498271	-2.8662156518	 0.238936
N	 0.0970005987	-5.121611377	-3.0419691413	-0.285461
H	-1.0988949622	 1.7862177901	-0.3845557399	 0.15711
H	 0.0441190882	 1.8390313156	 0.9595490534	 0.159108
H	 0.6443403532	 1.834362754	-0.7211394715	 0.124902
H	 0.7223014318	-0.1933128524	-1.8636263128	 0.262619
H	 1.2290718946	-2.6691207447	-0.7224675219	 0.159591
H	-0.5102580543	-2.5069503704	-0.6388534838	 0.18374
19.9746	35.6046	58.4202	93.9153	169.3419	220.0563	272.8046	284.7841	379.6213	473.1593	507.4879	567.7218	591.0529	620.6562	653.165	818.771	954.9538	991.6475	1015.6727	1053.0665	1089.0232	1175.5297	1223.4381	1257.9981	1366.6401	1396.777	1463.6053	1469.1806	1486.7292	1521.0981	1782.8409	1797.6645	2342.159	2983.6604	3050.4686	3050.6267	3120.0123	3150.4491	3626.6364
CC(=O)NCC(=O)C#N	CC(=O)NCC(=O)C#N	
InChI=1S/C5H6N2O2/c1-4(8)7-3-5(9)2-6/h3H2,1H3,(H,7,8)	InChI=1S/C5H6N2O2/c1-4(8)7-3-5(9)2-6/h3H2,1H3,(H,7,8)
