18
gdb 71439	4.0774	1.38564	1.2479	3.2917	76.95	-0.2424	0.027	0.2694	1044.3734	0.149349	-401.939499	-401.932233	-401.931289	-401.970888	29.3	
C	-0.0208732421	 1.5028585968	-0.0190768229	-0.504968
C	-0.0307923413	 0.0017620486	-0.0129660424	 0.295255
C	-1.2745743476	-0.8803751226	-0.1255427396	-0.282256
C	-0.4783298003	-2.0464758729	 0.5654442881	-0.142056
C	 0.5994029523	-1.0029458735	 0.9734724799	-0.161314
C	 1.1883203545	-0.8257575971	-0.3804627668	 0.042597
O	 1.0566712322	-1.9989064965	-1.1748708607	-0.246004
C	 0.1763032571	-2.8430917091	-0.5328602271	 0.429822
N	-0.063978962	-4.0353543035	-0.8659877109	-0.555554
H	 0.9736855659	 1.8981995995	 0.21295543	 0.121232
H	-0.3120147811	 1.8922700584	-1.0017329479	 0.129058
H	-0.7207503891	 1.907063146	 0.7209000463	 0.122954
H	-2.0666606671	-0.5191143118	 0.5351482402	 0.110466
H	-1.6904636939	-1.0737051861	-1.1200278083	 0.110039
H	-0.9943284683	-2.6448334488	 1.3093437171	 0.100853
H	 1.0994798176	-0.8828661418	 1.925611905	 0.097781
H	 2.1327450289	-0.3231201985	-0.543641617	 0.110005
H	 0.4986072243	-4.3016818468	-1.676279913	 0.22209
131.841	203.7734	226.2182	289.4408	330.8539	426.2139	468.4141	549.8386	665.0591	708.7002	733.846	791.7996	803.3937	852.9716	884.8839	892.0301	916.5487	926.7972	948.58	1001.7949	1023.0647	1034.4133	1052.3267	1091.3847	1112.8606	1150.4609	1198.959	1206.1915	1235.4555	1252.3273	1274.3279	1306.2545	1346.1579	1415.0886	1433.6392	1485.3877	1495.3502	1501.7455	1785.523	3023.4666	3044.978	3085.4243	3095.7192	3104.7449	3174.2334	3196.3716	3209.1126	3468.8047
CC12CC3C1C2OC3=N	C[C@]12C[C@@H]3[C@H]1[C@H]2O[C]3[NH]	
InChI=1S/C7H9NO/c1-7-2-3-4(7)5(7)9-6(3)8/h3-5,8H,2H2,1H3	InChI=1S/C7H9NO/c1-7-2-3-4(7)5(7)9-6(3)8/h3-5,8H,2H2,1H3/t3-,4+,5-,7+/m1/s1
