17
gdb 52912	2.16889	1.17746	0.86801	3.2941	82.32	-0.2446	0.0131	0.2577	1378.3674	0.135244	-380.829242	-380.819661	-380.818716	-380.86643	33.011	
C	 0.0205723979	 1.5077920945	-0.0310329919	-0.501126
C	 0.0365140822	 0.0529803982	-0.0187654626	 0.106175
C	 0.0525752457	-1.150105208	-0.0114822953	 0.040756
C	 0.065454206	-2.6042155397	 0.0038114198	-0.039843
C	 0.1315332187	-3.2402249856	 1.4451625816	-0.18924
N	-1.3315223258	-3.4272747957	 1.407929337	-0.303888
C	-1.3628859226	-3.2692766627	-0.0586851771	-0.189239
C	 1.0356685487	-3.1388565989	-0.9499919027	 0.236366
N	 1.7951158731	-3.5890196468	-1.6959814274	-0.344358
H	 0.7420261723	 1.9019077651	-0.754654636	 0.158132
H	-0.9689243134	 1.8905327968	-0.3029775626	 0.154486
H	 0.2773975893	 1.9147760649	 0.9528130216	 0.154486
H	 0.7239622151	-4.1638173694	 1.4420497094	 0.116265
H	 0.4915746303	-2.5727817109	 2.2318365813	 0.127833
H	-1.6594047042	-4.3223781644	 1.7510478433	 0.2291
H	-2.1599555619	-2.6243270097	-0.4364234747	 0.127833
H	-1.3380996514	-4.2039042776	-0.633020864	 0.116264
6.9184	76.4636	113.6632	115.8957	186.7053	223.6659	302.4588	309.2034	444.9652	486.5881	512.2841	562.9377	571.6195	671.5942	812.626	928.4705	931.6563	992.48	1007.5977	1035.7568	1051.5008	1051.8298	1059.4233	1131.1347	1158.0446	1189.2603	1271.7126	1297.2343	1353.0733	1381.5911	1413.8097	1475.7469	1476.2642	1501.3886	1525.1951	2356.4026	2376.567	3017.7435	3023.8244	3031.2235	3094.1942	3095.5122	3096.9755	3097.7802	3544.24	6.9314	76.4629	113.6608	115.8948	186.7044	223.6653	302.4609	309.2047	444.966	486.5897	512.2842	562.9386	571.6198	671.5932	812.6257	928.4706	931.6565	992.4798	1007.5973	1035.757	1051.5008	1051.8298	1059.4232	1131.1353	1158.0446	1189.2609	1271.7132	1297.2342	1353.0737	1381.5919	1413.8095	1475.7465	1476.2639	1501.3895	1525.1959	2356.404	2376.5674	3017.7433	3023.8243	3031.2235	3094.1942	3095.5122	3096.9753	3097.78	3544.2395
CC#CC1(CNC1)C#N	CC#CC1(CNC1)C#N	
InChI=1S/C7H8N2/c1-2-3-7(4-8)5-9-6-7/h9H,5-6H2,1H3	InChI=1S/C7H8N2/c1-2-3-7(4-8)5-9-6-7/h9H,5-6H2,1H3
