19
gdb 74496	3.39597	1.17576	0.99774	1.232	89.65	-0.2186	0.0178	0.2364	1249.4712	0.158419	-348.730407	-348.721848	-348.720904	-348.763128	33.728	
C	 0.074007343	 1.5020362728	 0.0720941879	-0.487075
C	-0.0015955725	 0.0097797166	 0.0018382938	 0.3139
C	-0.0737150479	-0.7473787197	-1.0972213253	-0.27003
C	-0.0588622769	-2.2145009879	-0.790475313	 0.192843
C	 1.2247411409	-2.6954714295	-0.1101193927	-0.312506
C	 0.0629610516	-2.2796617178	 0.7415202972	-0.09465
C	 0.0119765701	-0.8462693241	 1.2587562261	-0.322871
C	-0.8488172643	-3.129242945	-1.5577430646	 0.188591
C	-1.5096102385	-3.8891959089	-2.2168167382	-0.420067
H	 1.0119324359	 1.834086195	 0.535530161	 0.125251
H	 0.009376975	 1.955564597	-0.9205453868	 0.125825
H	-0.7377041816	 1.9100866679	 0.6881598052	 0.125003
H	-0.1124944205	-0.3788028097	-2.1157508413	 0.09615
H	 1.4378870567	-3.7573336763	-0.1659810448	 0.121853
H	 2.0900937384	-2.0448259733	-0.185709387	 0.114622
H	-0.4666715635	-3.0553323218	 1.2804586082	 0.100742
H	 0.8675451946	-0.6080876109	 1.9050924828	 0.109132
H	-0.8878731062	-0.6672943044	 1.8632696659	 0.109499
H	-2.0963409142	-4.55983922	-2.7936022445	 0.183786
115.1108	141.12	182.4515	194.4009	311.6545	334.4787	394.8542	461.6838	480.2486	509.197	559.4442	575.735	617.1606	645.6149	753.0876	811.2458	853.3092	859.8701	885.7381	927.6391	954.8284	999.8399	1018.6871	1064.0157	1067.7218	1075.111	1100.2387	1166.697	1195.1512	1234.5769	1260.8566	1314.3551	1333.629	1386.3521	1415.0094	1467.7226	1479.3562	1480.1592	1490.3424	1709.5029	2233.3872	3008.9826	3016.6924	3037.044	3060.5129	3111.7266	3125.9989	3189.3926	3200.0026	3221.0863	3504.8004
CC1=CC2(CC2C1)C#C	CC1=C[C@]2(C[C@H]2C1)C#C	
InChI=1S/C9H10/c1-3-9-5-7(2)4-8(9)6-9/h1,5,8H,4,6H2,2H3	InChI=1S/C9H10/c1-3-9-5-7(2)4-8(9)6-9/h1,5,8H,4,6H2,2H3/t8-,9+/m1/s1
