20
gdb 22672	3.50369	0.92628	0.88746	0.9732	78.42	-0.2468	0.0036	0.2504	1409.3108	0.16996	-440.256273	-440.246924	-440.245979	-440.290808	34.583	
C	 0.4419625654	 1.2821410249	-0.2532079005	-0.381272
C	 0.3893056027	-0.2243235563	 0.0079925075	-0.182438
C	 0.4293968638	-0.5700387987	 1.501067758	 0.117254
C	 0.4989045437	-2.0863370534	 1.77360308	-0.328971
C	 1.9875353078	-2.3150551573	 1.8261864564	 0.366066
C	 2.6552348291	-0.9790928919	 2.0553459262	-0.156518
O	 1.5975069971	-0.0343019645	 2.142674917	-0.271291
N	 2.53475995	-3.4492905223	 1.6622882519	-0.216451
O	 3.9367085514	-3.3385425816	 1.7635365913	-0.398233
H	 1.3399157096	 1.7170753884	 0.1931697515	 0.133489
H	 0.4481849581	 1.4989905669	-1.3253885494	 0.110492
H	-0.4252635954	 1.7883811465	 0.1856378966	 0.113152
H	-0.5285998977	-0.6520971252	-0.4154036974	 0.096493
H	 1.2236367427	-0.7259045339	-0.500378758	 0.100596
H	-0.425744464	-0.1047841938	 2.0029130894	 0.081219
H	 0.0495442555	-2.3186384527	 2.746001753	 0.12581
H	 0.0043393361	-2.6972781598	 1.016061076	 0.126178
H	 3.2337845835	-0.9571583818	 2.9855377723	 0.133671
H	 3.3498578405	-0.7544159658	 1.2321142341	 0.1228
H	 4.2251477199	-4.2440391177	 1.6084272041	 0.307956
53.7537	99.4986	141.6455	216.7729	227.9381	231.242	284.8661	358.6223	374.626	452.7743	496.5193	534.9957	667.1609	731.4071	771.7044	826.4105	853.1503	903.5015	945.1097	975.0953	987.901	1010.755	1049.5268	1075.1352	1105.7492	1136.3406	1198.1319	1215.6062	1230.7679	1272.3989	1294.4176	1312.9665	1334.0038	1368.7123	1400.7376	1405.3679	1412.4819	1469.9893	1479.5853	1495.5888	1497.8237	1509.1961	1768.8848	2995.7309	3017.7036	3036.883	3038.8402	3046.4049	3060.2525	3064.3365	3102.1704	3116.0317	3123.9107	3822.6467
CCC1CC(CO1)=NO	CC[C@H]1CC(=NO)CO1	
InChI=1S/C6H11NO2/c1-2-6-3-5(7-8)4-9-6/h6,8H,2-4H2,1H3	InChI=1S/C6H11NO2/c1-2-6-3-5(7-8)4-9-6/h6,8H,2-4H2,1H3/t6-/m0/s1
