16
gdb 47062	3.18858	1.53784	1.2784	4.5467	64.38	-0.2601	0.0399	0.3	982.5065	0.126973	-475.046743	-475.039624	-475.03868	-475.07881	26.966	
O	-0.0718846844	-0.0447137858	 0.1313348536	-0.377798
C	-0.0716030232	 1.1509561682	 0.0013375604	 0.44707
N	-1.199374918	 1.8973501098	-0.2833721119	-0.362053
C	-1.3212190031	 3.29296038	 0.0698319978	-0.055339
C	-1.1911459707	 3.7117374126	 1.5606353234	-0.085197
O	 0.0377712284	 4.4183902438	 1.2908379869	-0.285007
C	 0.0048815996	 4.0644128071	-0.1034849556	 0.118504
C	 1.1384095585	 3.1531389348	-0.5214506678	-0.101827
O	 1.0741276968	 1.87365882	 0.1205100667	-0.23651
H	-2.0379922742	 1.3357478485	-0.2742538025	 0.258395
H	-2.1853424641	 3.7136343118	-0.4453925281	 0.104251
H	-1.9746371886	 4.3810640587	 1.9348739159	 0.1074
H	-1.0477082951	 2.8814216913	 2.2616012669	 0.121161
H	-0.0259793419	 4.9502795793	-0.7502024075	 0.089066
H	 1.12046977	 3.020968218	-1.6114706544	 0.118369
H	 2.10195551	 3.5783920519	-0.2320309838	 0.139515
79.2052	115.5448	207.4749	332.7133	409.0221	436.4253	535.3546	569.9357	615.913	748.3806	782.4601	789.8519	839.8261	878.8935	888.7864	968.6329	1001.9762	1023.7665	1063.6092	1082.0911	1135.4376	1145.7185	1164.2126	1244.0481	1252.981	1274.2616	1298.3122	1351.1739	1362.736	1395.8019	1422.5235	1463.5896	1485.6101	1517.9	1856.2304	3019.6357	3023.2106	3037.4531	3073.7146	3105.9729	3115.1858	3619.2506
O=C1NC2COC2CO1	O=C1N[C@H]2CO[C@H]2CO1	
InChI=1S/C5H7NO3/c7-5-6-3-1-8-4(3)2-9-5/h3-4H,1-2H2,(H,6,7)	InChI=1S/C5H7NO3/c7-5-6-3-1-8-4(3)2-9-5/h3-4H,1-2H2,(H,6,7)/t3-,4-/m0/s1
