19
gdb 65426	4.19277	0.78524	0.74935	2.4451	83.93	-0.2506	-0.0186	0.232	1540.607	0.155894	-385.860914	-385.850985	-385.850041	-385.896193	36.017	
C	 0.0079957584	 1.552727742	-0.1079931594	-0.466755
C	-0.0422294345	 0.0493902359	 0.0618832305	 0.204823
C	 1.2359867786	-0.7883963052	-0.0089015463	-0.319265
C	 0.5264668239	-0.6601990779	 1.2947318929	-0.031153
C	 1.1115428942	 0.1266552823	 2.4609858604	-0.388617
C	 1.9707693274	-0.7014284297	 3.3022800169	 0.30422
C	 2.6685916726	-1.4017055481	 3.9853316915	-0.437363
C	-1.2494620395	-0.6063928547	-0.5042423362	 0.125004
O	-2.1537654092	-0.026955965	-1.053401852	-0.268617
H	 0.961938383	 1.9704557957	 0.2212664033	 0.112973
H	-0.1302447141	 1.8121136677	-1.1611782335	 0.137657
H	-0.7960693054	 2.0397849823	 0.4519845911	 0.132894
H	 1.2056433236	-1.7385370482	-0.5320420267	 0.124191
H	 2.154488876	-0.2285123667	-0.150800785	 0.127912
H	-0.0308842871	-1.5370137988	 1.6148466712	 0.105373
H	 1.6849200975	 0.9838501597	 2.0918863311	 0.133985
H	 0.2985128058	 0.5429518648	 3.0698902341	 0.140322
H	 3.2901136004	-2.010901887	 4.5935843712	 0.198732
H	-1.2659913917	-1.7160883191	-0.383325085	 0.063682
48.7359	97.0418	107.9743	145.8234	213.8146	255.5212	268.4318	336.0022	347.9776	400.1262	433.6593	486.2132	597.8707	621.7801	645.5067	761.1461	810.575	869.985	885.1422	922.9829	953.353	980.9629	1026.1116	1061.1574	1075.2886	1110.8161	1122.3287	1168.0033	1242.6693	1268.2537	1325.7671	1342.5507	1415.7338	1419.0247	1442.2072	1466.8239	1485.033	1490.5069	1499.5478	1816.1	2240.6558	2846.1998	3025.3987	3048.5313	3067.1517	3112.7131	3127.4592	3130.6377	3140.1505	3216.1641	3506.1521
CC1(CC1CC#C)C=O	C[C@]1(C[C@H]1CC#C)C=O	
InChI=1S/C8H10O/c1-3-4-7-5-8(7,2)6-9/h1,6-7H,4-5H2,2H3	InChI=1S/C8H10O/c1-3-4-7-5-8(7,2)6-9/h1,6-7H,4-5H2,2H3/t7-,8+/m1/s1
