13
gdb 7027	7.49969	0.8748	0.81434	1.0783	57.67	-0.2648	-0.0417	0.2231	1290.1995	0.092262	-435.764212	-435.755865	-435.754921	-435.798612	27.395	
N	-0.040889605	 1.5309516233	 0.1999388687	-0.476396
C	 0.0287681011	 0.3156233732	-0.128000183	 0.405841
C	-1.1724237462	-0.5841286934	-0.1733732997	-0.368155
C	-2.4860620158	 0.1647303936	-0.0064115305	 0.18028
O	-3.3756257838	-0.2192457849	 0.7041381579	-0.235336
O	 1.1719306619	-0.3710001725	-0.5215491498	-0.200445
C	 2.3523375524	-0.1345949379	 0.1311392173	 0.158181
O	 3.3838550603	-0.5753138265	-0.2611984085	-0.239429
H	 0.8477542606	 2.0261736872	 0.1372376206	 0.240727
H	-1.1804053353	-1.0975954633	-1.1453633305	 0.161103
H	-1.0972534069	-1.3642913852	 0.5911143929	 0.15781
H	-2.5752563355	 1.0860779784	-0.6159196845	 0.104223
H	 2.2147323924	 0.4650477379	 1.0463192091	 0.111595
42.2523	69.2413	103.8131	143.8847	210.5878	285.2866	351.6964	456.0178	548.7174	555.248	684.5903	797.2092	895.979	938.1094	1037.3436	1041.4529	1059.4804	1064.3804	1118.0182	1206.4055	1227.343	1347.8753	1411.861	1427.0403	1434.4132	1751.852	1842.0689	1881.4279	2938.4126	3005.2924	3029.5045	3091.3715	3500.1285
N=C(CC=O)OC=O	[NH][C](CC=O)OC=O	
InChI=1S/C4H5NO3/c5-4(1-2-6)8-3-7/h2-3,5H,1H2	InChI=1S/C4H5NO3/c5-4(1-2-6)8-3-7/h2-3,5H,1H2
