16
gdb 51100	4.4869	0.90418	0.82719	1.2819	71.18	-0.2525	-0.0405	0.212	1338.7529	0.122698	-437.866014	-437.857686	-437.856742	-437.90027	29.949	
O	-0.322978285	 0.1221357565	 0.2391494901	-0.229262
C	 0.0010984167	 1.2784091482	 0.1779331156	 0.156609
C	 1.3978869584	 1.7632613108	-0.1774938977	-0.370443
C	 1.3672958602	 2.750974132	-1.3118185122	 0.316999
C	 1.1457648769	 2.4310543463	-2.8045000088	-0.426373
C	 2.197571805	 3.5422765775	-3.0998001183	 0.422815
O	 2.7797205148	 3.8753132682	-4.0898535264	-0.300218
C	 2.3486379023	 3.8725949272	-1.6331456263	-0.219904
N	 1.0167443546	 4.13146815	-1.0499381899	-0.345688
H	-0.7234434035	 2.0973070205	 0.3869105219	 0.090851
H	 1.8061589006	 2.266487102	 0.7083270904	 0.139569
H	 2.0209416281	 0.8968547002	-0.4153178598	 0.129545
H	 1.534022534	 1.4610367744	-3.1307254362	 0.144479
H	 0.1265745751	 2.55312149	-3.1832397992	 0.126887
H	 3.2212370462	 4.2388340232	-1.105316107	 0.119815
H	 0.3597083654	 4.516339883	-1.7263709062	 0.244318
46.8597	65.3975	106.9591	197.3801	294.7888	378.023	421.56	458.5955	486.0737	579.1292	638.5417	688.8556	789.437	833.9655	838.0369	956.7362	962.3903	989.9327	1027.8454	1051.2103	1079.2201	1107.8812	1125.9097	1152.5815	1188.8959	1212.287	1243.0623	1297.1333	1314.0907	1411.9762	1420.3624	1447.1046	1464.3447	1838.2374	1889.4763	2885.211	3035.4291	3054.172	3107.2948	3109.7955	3193.4923	3468.4422
O=CCC12CC(=O)C1N2	O=CC[C@]12CC(=O)[C@H]1N2	
InChI=1S/C6H7NO2/c8-2-1-6-3-4(9)5(6)7-6/h2,5,7H,1,3H2	InChI=1S/C6H7NO2/c8-2-1-6-3-4(9)5(6)7-6/h2,5,7H,1,3H2/t5-,6+/m1/s1
