17
gdb 8862	3.6856	1.42222	1.12754	3.5665	73.65	-0.2426	-0.0232	0.2194	1078.9506	0.139866	-363.855526	-363.846153	-363.845209	-363.889883	32.713	
C	-0.0220734762	 1.5423744923	 0.0426702669	-0.378548
C	 0.0328212894	 0.0134204238	-0.0250425333	-0.152703
N	 0.7245151822	-0.4837467722	-1.2140123472	-0.092118
C	 2.1612753642	-0.6643942019	-1.1326639758	-0.346576
C	-0.0189845516	-0.6812736633	-2.3431558643	 0.31046
O	-1.2206818922	-0.4655302742	-2.3976432692	-0.382581
C	 0.691312675	-1.1821694741	-3.5154979751	 0.191174
C	 1.176514677	-1.5908551056	-4.5376409123	-0.395101
H	 0.9797679164	 1.9837362073	 0.0370563138	 0.115401
H	-0.5815978776	 1.9355455154	-0.8096064496	 0.146125
H	-0.5246768261	 1.8611184455	 0.9611741534	 0.119539
H	 0.5498904829	-0.3940437566	 0.8505589275	 0.099877
H	-0.9807677415	-0.3914700621	-0.0443469437	 0.143564
H	 2.4144727968	-1.4058224139	-0.3647108463	 0.12904
H	 2.5463603157	-1.0096737507	-2.0913886254	 0.156235
H	 2.6623646816	 0.2771929915	-0.8761241086	 0.129616
H	 1.6004762141	-1.9521741112	-5.4426553007	 0.206596
60.8234	80.2262	125.7389	168.3484	183.7877	235.1942	280.8353	335.6529	400.3253	428.5601	540.6747	584.7551	647.6167	678.3672	729.8559	756.2352	788.4687	905.881	1022.5343	1094.0165	1106.1874	1157.93	1169.4502	1262.1341	1332.9074	1392.6241	1409.7261	1435.9037	1466.5036	1479.3674	1486.9194	1495.6136	1504.7879	1527.6084	1724.9134	2219.8425	3014.8291	3041.7488	3046.7085	3061.922	3103.0432	3119.7098	3133.4055	3156.6809	3495.9204
CCN(C)C(=O)C#C	CCN(C)C(=O)C#C	
InChI=1S/C6H9NO/c1-4-6(8)7(3)5-2/h1H,5H2,2-3H3	InChI=1S/C6H9NO/c1-4-6(8)7(3)5-2/h1H,5H2,2-3H3
