19
gdb 67891	2.67238	1.903	1.39868	1.2511	79.36	-0.2227	0.0208	0.2435	970.3629	0.161066	-385.869142	-385.861942	-385.860998	-385.900114	30.334	
O	-0.0294655839	 1.3165672482	 0.0153019681	-0.487366
C	 0.0325212768	-0.0876198938	-0.000967622	 0.394406
C	 1.1282966754	-0.6670078691	-0.8252125904	-0.118819
C	 1.0036721399	-1.8290808471	-1.4672206469	-0.077258
C	-0.2461307306	-2.6711150246	-1.3676924941	-0.269625
C	-1.1148366688	-2.2443768584	-0.1815839221	-0.04141
C	-0.3932779256	-2.260887682	 1.2158665941	-0.256068
C	-0.5085285156	-0.7405376772	 1.2736281416	-0.122964
C	-1.3198967422	-0.7211852246	-0.0224705981	-0.117339
H	 0.6771274302	 1.6368731542	 0.5865380582	 0.281439
H	 2.0394887031	-0.0787190862	-0.9046629503	 0.076973
H	 1.8172473068	-2.2029694999	-2.0832709985	 0.086467
H	-0.8146340843	-2.613552424	-2.3083879902	 0.107489
H	 0.0290841422	-3.7285045478	-1.2550428077	 0.102979
H	-2.0538118551	-2.8015848668	-0.1651469401	 0.072961
H	-1.0004245569	-2.75146487	 1.9804809557	 0.101754
H	 0.6162390139	-2.6839787257	 1.238810123	 0.095434
H	-0.6434942474	-0.1296607008	 2.1593007391	 0.080551
H	-2.2005340581	-0.1471828943	-0.2817331296	 0.090396
185.2242	258.8034	283.5637	306.1765	364.5091	386.8658	500.8195	510.9483	526.9582	648.8372	696.4352	740.0619	806.7602	832.8632	873.9458	881.8636	898.5995	915.3114	978.6604	985.4884	996.695	1010.9283	1038.7635	1062.1821	1068.401	1118.216	1161.5858	1173.418	1208.2208	1236.9272	1250.7637	1252.1869	1291.0152	1308.8024	1324.1743	1372.4832	1421.3211	1430.9464	1470.1819	1484.9365	1709.616	2994.0014	3028.1541	3046.4643	3079.0801	3103.7597	3144.7458	3168.7381	3170.0494	3194.3043	3795.9438
OC12C=CCC3CC1C23	O[C@@]12C=CC[C@H]3C[C@@H]1[C@@H]23	
InChI=1S/C8H10O/c9-8-3-1-2-5-4-6(8)7(5)8/h1,3,5-7,9H,2,4H2	InChI=1S/C8H10O/c9-8-3-1-2-5-4-6(8)7(5)8/h1,3,5-7,9H,2,4H2/t5-,6+,7-,8-/m0/s1
