18
gdb 31160	1.98229	1.79671	0.99944	0.7229	76.07	-0.1788	0.0407	0.2195	1191.3611	0.146484	-439.098316	-439.088645	-439.0877	-439.133014	34.474	
C	-0.1110997841	 1.446353214	 0.0770273605	-0.2518
O	 0.0918042675	 0.0424690606	-0.0550476646	-0.283829
C	 0.6778812437	-0.5511902496	 1.0335857553	 0.095093
C	 1.9864178314	-0.9292959806	 1.1084809585	 0.301268
N	 3.0678630976	-0.7397983947	 0.2569835483	-0.601418
O	 2.2230410954	-1.5599022018	 2.2796827212	-0.179244
C	 1.0293053594	-1.5897240616	 2.9686433506	-0.136858
C	 0.0463143485	-0.9824395967	 2.2587661046	 0.17898
C	-1.3926376631	-0.8180342196	 2.6315362056	-0.504891
H	 0.8365768391	 1.9707083082	 0.2552521058	 0.117548
H	-0.5481509572	 1.7918321039	-0.8630929885	 0.124983
H	-0.8000756822	 1.6791971935	 0.8988326434	 0.117191
H	 2.7444911699	-0.4853478797	-0.6686132737	 0.257342
H	 3.6645894891	-1.5576841469	 0.2022044081	 0.25315
H	 1.060963327	-2.0802557264	 3.9264762369	 0.127533
H	-1.6474008182	 0.2298587996	 2.8305428784	 0.126105
H	-2.0490353428	-1.1580422557	 1.8232890058	 0.134834
H	-1.634941021	-1.3924284763	 3.529796634	 0.124013
61.1069	123.474	148.7636	161.4858	188.8799	204.3315	240.2677	277.054	340.9569	439.1692	529.2132	565.3721	621.8434	661.5767	685.3782	724.4221	767.5187	807.3397	993.6435	1014.9262	1041.2655	1064.4017	1104.8671	1151.2842	1176.9019	1211.9444	1245.0129	1286.8516	1354.1344	1417.4457	1451.4484	1478.971	1484.0097	1489.7807	1500.2059	1506.2394	1616.6814	1633.8722	1700.6787	3004.9066	3027.1835	3065.2814	3078.2322	3111.8298	3118.9569	3282.8344	3519.3421	3617.7521
COC1=C(N)OC=C1C	COc1c(N)occ1C	
InChI=1S/C6H9NO2/c1-4-3-9-6(7)5(4)8-2/h3H,7H2,1-2H3	InChI=1S/C6H9NO2/c1-4-3-9-6(7)5(4)8-2/h3H,7H2,1-2H3
