19
gdb 7186	4.12058	1.04042	0.92736	4.1258	70.36	-0.2452	0.0367	0.2819	1292.6523	0.163874	-402.219904	-402.210212	-402.209268	-402.255435	33.195	
C	-0.1894144631	 1.3608008748	-0.2223054331	-0.228048
O	-0.0980436535	-0.0392565385	-0.0933419582	-0.244639
C	 0.7133397893	-0.6405844901	-1.0849296057	-0.074148
C	 0.7009608824	-2.1499749568	-0.852401961	 0.028669
C	 1.3892594757	-2.5457325837	 0.4609509479	-0.388089
N	-0.6811178161	-2.6134689277	-0.8990456027	-0.273056
C	-1.056210855	-3.7772264376	-1.4847562765	 0.156226
O	-0.3080496397	-4.5508830483	-2.0477320999	-0.333739
H	 0.7961961924	 1.8414549396	-0.1264808098	 0.11062
H	-0.6215737059	 1.6530956325	-1.1918999042	 0.109396
H	-0.838263854	 1.7222425708	 0.5789553948	 0.130483
H	 0.3215170951	-0.408404069	-2.0882245933	 0.095954
H	 1.7447306031	-0.2571057345	-1.0267936735	 0.093495
H	 1.2138351681	-2.6353718154	-1.6875099118	 0.118083
H	 0.9006679942	-2.0655945504	 1.3129484346	 0.126922
H	 1.3486596161	-3.6295890727	 0.5925181659	 0.134829
H	 2.440701195	-2.2398315131	 0.4512284836	 0.113052
H	-1.367862588	-2.0431550755	-0.430158691	 0.252912
H	-2.1482564859	-3.9483532845	-1.3991633763	 0.071079
31.4954	79.2307	113.1148	161.0131	213.6781	225.6796	233.3806	249.5044	342.2075	372.6054	469.4322	582.7608	613.418	766.6	865.2185	927.9577	945.877	972.9032	1032.6158	1090.948	1134.8759	1149.8328	1164.7401	1188.4605	1214.7867	1230.7979	1275.3091	1339.6671	1376.4467	1395.9648	1417.4522	1428.6621	1478.6331	1485.0704	1491.2595	1494.7592	1501.9534	1521.4969	1526.1412	1798.6781	2929.6347	2965.525	2979.335	3003.9213	3023.9077	3042.9456	3084.4424	3114.9164	3117.2787	3133.4518	3632.41
COCC(C)NC=O	COC[C@@H](C)NC=O	
InChI=1S/C5H11NO2/c1-5(3-8-2)6-4-7/h4-5H,3H2,1-2H3,(H,6,7)	InChI=1S/C5H11NO2/c1-5(3-8-2)6-4-7/h4-5H,3H2,1-2H3,(H,6,7)/t5-/m1/s1
