17
gdb 48199	2.07085	1.3965	0.8874	2.8169	74.73	-0.2516	-0.0409	0.2108	1267.508	0.133238	-421.768893	-421.759585	-421.758641	-421.804425	32.311	
O	 0.1667976719	 0.0020242807	 0.3859024421	-0.240639
C	 0.1367662911	 1.107392675	-0.0843184718	 0.155955
C	 1.3500428902	 2.0442123128	-0.1076061831	-0.282239
C	 1.3414584928	 2.8780589168	-1.3023326641	 0.299509
C	 1.2928603627	 3.5684286321	-2.285160585	-0.428941
C	 1.3282565349	 2.898536837	 1.1832683862	-0.038528
C	 1.678846062	 2.1355758541	 2.4803423802	-0.09562
O	 2.9561936345	 2.800230254	 2.5712453241	-0.27055
C	 2.6338099058	 3.6726393238	 1.4705811952	-0.08501
H	-0.7947438211	 1.5460070833	-0.5031009878	 0.099323
H	 2.2445730751	 1.4103698449	-0.0843843913	 0.136336
H	 1.2680427987	 4.1729021724	-3.1583146636	 0.206073
H	 0.4159599002	 3.4976733467	 1.2161008	 0.094638
H	 1.0325959204	 2.3692728193	 3.335897021	 0.103224
H	 1.7761821176	 1.0485318405	 2.3903190248	 0.127136
H	 3.3933409263	 3.6486977504	 0.6807228095	 0.114127
H	 2.4872843369	 4.7107561661	 1.7952012534	 0.105204
54.5068	67.2384	76.7122	122.359	175.6011	223.0496	336.1464	361.8817	460.969	510.7501	525.3383	642.8457	656.868	816.0734	847.4519	879.6158	939.8726	972.7852	996.8535	1039.1193	1049.0121	1081.1457	1088.714	1141.0908	1159.4044	1169.7207	1246.7726	1250.977	1296.8395	1309.5231	1358.1924	1382.6575	1414.3649	1513.7068	1538.1685	1830.3338	2236.0444	2901.308	3011.7401	3021.341	3045.7449	3063.3031	3074.2976	3092.5975	3501.4883
O=CC(C#C)C1COC1	O=C[C@@H](C#C)C1COC1	
InChI=1S/C7H8O2/c1-2-6(3-8)7-4-9-5-7/h1,3,6-7H,4-5H2	InChI=1S/C7H8O2/c1-2-6(3-8)7-4-9-5-7/h1,3,6-7H,4-5H2/t6-/m1/s1
