16
gdb 35606	2.64591	1.70987	1.25107	3.174	73.66	-0.2448	-0.0065	0.2382	1002.5953	0.126845	-396.9243	-396.916949	-396.916005	-396.956348	27.653	
N	-0.0253766355	-1.2441653501	 0.0335892616	-0.323268
C	-0.053623574	-0.0883882548	 0.0311118835	 0.280745
C	-0.0518240815	 1.3822859358	 0.0169475873	-0.172952
C	-0.4820911347	 2.0113795888	 1.4121252429	-0.184283
N	 0.7778414318	 2.2748449989	 2.1493340129	-0.324047
C	 1.6644623779	 2.2269042919	 1.2451049378	 0.373406
C	 3.1423577156	 2.0135563614	 0.984475738	-0.342981
C	 2.6413099092	 1.3242139182	-0.3341232212	-0.185442
N	 1.3025847387	 1.9420605899	-0.0747604448	-0.080295
H	-0.6960282751	 1.7222161965	-0.7978304827	 0.135135
H	-1.0256475266	 2.9460730341	 1.2327711643	 0.126382
H	-1.1283054716	 1.341032742	 1.9812784171	 0.138325
H	 3.7112458252	 2.9291242255	 0.8152960098	 0.14207
H	 3.6573867176	 1.3818503715	 1.707510956	 0.148533
H	 3.0932819014	 1.6411423534	-1.2751010452	 0.125663
H	 2.6319182816	 0.232022067	-0.2628559673	 0.14301
95.1577	132.3794	212.1069	256.8959	299.9341	421.0984	476.5613	573.4338	632.5854	693.0965	778.3215	788.1455	824.6137	845.3372	918.5463	944.6704	980.2129	1037.6624	1054.3272	1069.0524	1136.71	1159.3897	1195.6662	1202.2241	1206.8927	1229.9051	1250.948	1305.3132	1345.1612	1353.1984	1465.0773	1488.0319	1513.3352	1760.5926	2348.909	3044.2673	3058.1708	3081.7944	3095.3947	3118.9881	3125.593	3158.9749
N#CC1CN=C2CCN12	N#C[C@H]1C[N][C]2CCN12	
InChI=1S/C6H7N3/c7-3-5-4-8-6-1-2-9(5)6/h5H,1-2,4H2	InChI=1S/C6H7N3/c7-3-5-4-8-6-1-2-9(5)6/h5H,1-2,4H2/t5-/m0/s1
