20
gdb 94651	3.48088	0.85131	0.72922	3.6674	77.29	-0.2452	0.0333	0.2785	1560.3993	0.170725	-440.294266	-440.284639	-440.283695	-440.330357	33.911	
C	-0.2073847351	 1.5631527626	-0.2849943061	-0.41492
C	-0.0511656996	 0.0827995112	 0.0349231194	-0.044442
C	 1.1509400612	-0.6806432448	-0.5642494803	-0.080125
O	 1.5455030142	-1.1768466013	 0.7339133017	-0.305467
C	 0.5336100568	-0.3765518765	 1.4002271821	 0.122919
C	 1.1871876496	 0.6505818528	 2.315163267	-0.174282
N	 2.0250375899	-0.0303978061	 3.2853782122	-0.273261
C	 1.9100715106	 0.1447098934	 4.6269998457	 0.154381
O	 1.1395533513	 0.907751914	 5.1720822909	-0.326611
H	 0.7255568676	 2.1171226526	-0.1433230398	 0.123591
H	-0.5123982238	 1.6957863893	-1.3284467624	 0.121743
H	-0.9745001964	 2.0284621004	 0.342584296	 0.127791
H	-0.9922459126	-0.4352993243	-0.1671055156	 0.089532
H	 0.9224538061	-1.4955871374	-1.2600860406	 0.106949
H	 1.9248278813	-0.0403040675	-1.0095248925	 0.098863
H	-0.1289267659	-1.0171122595	 1.9957029652	 0.086704
H	 1.7892317464	 1.3547540123	 1.7285963577	 0.106089
H	 0.4415377052	 1.220463231	 2.8751673767	 0.147004
H	 2.6711159243	-0.7170340801	 2.9272357743	 0.25943
H	 2.6187312893	-0.4989285119	 5.1849458183	 0.074112
36.9811	65.3449	71.6935	150.7183	207.4649	228.5354	265.6128	321.5631	368.123	475.8498	491.3425	590.2635	712.8327	754.0571	866.7322	881.9564	918.8484	930.6813	970.8903	1013.8856	1033.2967	1038.2666	1076.5971	1134.1936	1147.7445	1162.1577	1186.7225	1212.2814	1250.6911	1269.5666	1294.556	1333.208	1356.5606	1388.9917	1414.1904	1418.2505	1428.6855	1485.3723	1499.3349	1500.7231	1525.7879	1531.2075	1802.584	2937.5544	3005.3179	3021.7029	3034.3501	3038.6936	3055.9289	3074.8983	3099.5474	3110.2824	3116.4866	3630.6401
CC1COC1CNC=O	C[C@H]1CO[C@H]1CNC=O	
InChI=1S/C6H11NO2/c1-5-3-9-6(5)2-7-4-8/h4-6H,2-3H2,1H3,(H,7,8)	InChI=1S/C6H11NO2/c1-5-3-9-6(5)2-7-4-8/h4-6H,2-3H2,1H3,(H,7,8)/t5-,6-/m0/s1
