16
gdb 28359	3.16635	1.40816	0.98065	2.5978	79.45	-0.1931	-0.0314	0.1617	1157.0735	0.12641	-434.122502	-434.11455	-434.113605	-434.154836	30.595	
C	 0.0634626489	 1.5049906535	 0.0461383044	-0.496031
C	-0.050793451	 0.0164639399	-0.0627679205	 0.375576
C	 0.0878470024	-0.693835378	-1.2089041318	-0.153085
N	-0.0297793704	-2.0700931296	-1.2393746015	-0.348376
C	-0.2788341997	-2.6896811532	-0.1411361073	 0.354411
O	-0.4016707795	-4.0318594418	-0.1244620976	-0.409371
C	-0.4552199299	-2.0574867091	 1.1792467485	 0.305539
N	-0.703598514	-2.6143035885	 2.305336302	-0.561756
N	-0.3172785093	-0.6790984317	 1.0955379821	-0.392855
H	 0.8712906028	 1.7950650801	 0.7289960478	 0.139018
H	 0.2724925937	 1.9413111164	-0.9320286572	 0.145409
H	-0.8635195318	 1.9502548544	 0.4275150022	 0.138916
H	 0.2976446086	-0.2036593926	-2.1502114263	 0.107853
H	-0.2672455395	-4.3269660615	-1.0362457678	 0.302389
H	-0.7716327946	-3.6216322433	 2.1806479836	 0.232214
H	-0.4280249066	-0.1885006249	 1.9718310893	 0.260148
113.6756	158.4462	166.2114	289.0811	332.7985	375.6981	419.3159	483.5942	524.6695	558.962	585.5077	600.7979	660.467	702.5724	775.8944	787.641	822.3521	826.8493	1003.4659	1036.0464	1065.3744	1125.1468	1152.8143	1225.7428	1287.0756	1356.5848	1377.0779	1416.8348	1435.7015	1476.6423	1481.0726	1509.7155	1623.1337	1674.4075	1705.5631	3024.0675	3073.2361	3136.4229	3215.0096	3527.8773	3607.7745	3766.1423
CC1=CN=C(O)C(=N)N1	Cc1cnc(O)c([NH])[nH]1	
InChI=1S/C5H7N3O/c1-3-2-7-5(9)4(6)8-3/h2H,1H3,(H2,6,8)(H,7,9)	InChI=1S/C5H12N3O/c1-3-2-7-5(9)4(6)8-3/h3-9H,2H2,1H3
