16
gdb 26790	3.68647	1.08457	0.84242	1.913	86.63	-0.1796	0.0101	0.1897	1317.0297	0.122794	-400.761278	-400.751992	-400.751048	-400.79541	34.001	
C	 0.038154673	 1.5468155535	-0.0367913407	-0.520657
C	 0.0306090534	 0.048425092	 0.0130674	 0.159403
C	 0.0029130529	-0.8124966566	-1.0692818417	 0.306407
O	-0.0380220928	-0.6006127731	-2.4067743017	-0.43666
N	 0.0143056658	-2.0977961185	-0.6319664617	-0.377035
C	 0.0506673667	-2.1091604358	 0.7610056847	 0.177375
C	 0.0627090432	-0.7865340779	 1.1647520987	-0.346937
C	 0.0655734677	-3.3085987788	 1.49111092	 0.269574
C	 0.0784104907	-4.3484963222	 2.1033560696	-0.463958
H	 1.0383090485	 1.9705538043	 0.118231527	 0.131984
H	-0.3260096095	 1.9265296866	-0.9998783656	 0.099923
H	-0.6157548997	 1.972585173	 0.7311641756	 0.136109
H	 0.0000872782	 0.3479168304	-2.5651172858	 0.307381
H	-0.0077261036	-2.9103555012	-1.2236030525	 0.27163
H	 0.0876420124	-0.4564740554	 2.1920361653	 0.100904
H	 0.089613023	-5.2565218302	 2.6525361988	 0.184556
55.4466	118.7265	139.4577	208.6074	248.4335	256.692	307.8178	409.3676	434.8876	439.3803	484.0298	526.499	575.09	638.8505	656.3053	679.1196	685.0793	794.238	818.9377	992.3256	1011.2696	1058.3655	1153.062	1177.2704	1217.4423	1248.215	1376.8891	1394.8123	1422.9126	1481.0038	1502.1503	1519.544	1570.074	1645.2667	2217.8506	3011.9869	3059.6518	3086.8765	3250.8154	3505.0366	3683.172	3837.4081
CC1=C(O)NC(=C1)C#C	Cc1c(O)[nH]c(c1)C#C	
InChI=1S/C7H7NO/c1-3-6-4-5(2)7(9)8-6/h1,4,8-9H,2H3	InChI=1S/C7H7NO/c1-3-6-4-5(2)7(9)8-6/h1,4,8-9H,2H3
