20
gdb 90072	2.93831	1.66922	1.36934	2.5567	80.99	-0.198	0.0698	0.2678	1022.9189	0.168919	-402.992926	-402.984696	-402.983752	-403.024932	33.085	
C	 0.0057399824	 1.5662340899	-0.1291027038	-0.328993
N	 0.0771288602	 0.1429492002	 0.1004459198	-0.101943
C	-1.158047556	-0.610953539	 0.4918216517	-0.280747
C	-0.1977543843	-1.572026594	 1.2098340135	 0.294615
C	 0.5709995014	-2.3952530491	 2.2688709243	-0.321402
C	 1.5697963309	-1.8544780834	 1.1433762533	-0.026525
O	 0.6031099459	-2.2872633421	 0.1597652652	-0.31259
C	 0.8388941197	-0.4463474282	 1.2407105748	 0.327317
C	 1.1326382988	 0.4789265027	 2.4027269823	-0.482341
H	 1.0063612571	 1.9566186529	-0.3407109282	 0.124666
H	-0.6112420644	 1.7578352619	-1.0141804996	 0.123936
H	-0.4210836369	 2.1509229913	 0.7071391188	 0.087772
H	-1.8170583976	-0.0505590788	 1.1733179151	 0.096498
H	-1.7350333978	-1.0249003644	-0.3400234582	 0.122077
H	 0.6217487489	-2.0078855909	 3.2882447102	 0.103429
H	 0.4323898103	-3.4758444237	 2.2303288745	 0.117312
H	 2.6143491767	-2.1500669906	 0.9947099741	 0.085173
H	 1.8271182115	 1.2647137015	 2.0840862314	 0.128196
H	 0.231744533	 0.976230163	 2.7792567932	 0.121797
H	 1.6074188403	-0.0461612494	 3.2347562577	 0.121752
150.8982	189.2111	211.2633	250.2547	298.2214	322.0055	344.9322	411.1073	490.097	510.199	610.9423	632.5997	676.6601	726.9969	793.6637	824.2931	849.4584	919.9585	955.3515	969.9534	1008.4476	1051.5294	1077.4158	1116.9141	1120.032	1133.2704	1150.3658	1161.2915	1180.8181	1199.2811	1206.9663	1229.6304	1280.3424	1303.9433	1308.5781	1409.4877	1447.9872	1476.759	1481.0812	1489.4713	1494.9452	1505.2208	1511.0637	2926.9513	2984.0413	3031.7285	3047.0074	3051.2617	3075.9438	3085.8525	3088.1865	3096.3546	3119.3842	3157.3667
CN1CC23CC(O2)C13C	CN1C[C@@]23C[C@@H](O2)[C@@]13C	
InChI=1S/C7H11NO/c1-6-5-3-7(6,9-5)4-8(6)2/h5H,3-4H2,1-2H3	InChI=1S/C7H11NO/c1-6-5-3-7(6,9-5)4-8(6)2/h5H,3-4H2,1-2H3/t5-,6-,7-/m1/s1
