18
gdb 12239	3.09332	1.52617	1.246	2.1799	68.07	-0.2495	-0.0265	0.223	1036.6421	0.151861	-384.948238	-384.939443	-384.938499	-384.981786	31.638	
C	 0.159581928	 1.3728491199	-0.3014533185	-0.3879
C	-0.0554505297	-0.137556505	-0.1720682588	-0.17198
C	-1.4817586968	-0.5116897776	 0.22496988	-0.057917
C	-2.5195610539	-0.4428128365	-0.9480614621	-0.345942
C	-2.2731875628	-1.946613929	-1.1157031138	 0.340716
O	-2.1898180824	-2.6869731048	-2.0566641219	-0.309273
C	-1.7238923958	-2.0720279653	 0.3039920622	 0.051641
O	-0.6750488859	-2.9630006568	 0.531145679	-0.428262
H	 1.1921996289	 1.6007479976	-0.5825851998	 0.117725
H	-0.4952473953	 1.811030243	-1.0624335819	 0.11668
H	-0.048556431	 1.883030775	 0.6455328143	 0.117058
H	 0.2018195801	-0.6289154792	-1.1205837137	 0.097551
H	 0.6313482586	-0.5525866457	 0.5737307549	 0.115902
H	-1.7822507749	 0.0218123828	 1.1298375228	 0.078911
H	-3.5358270978	-0.2190941487	-0.6118493839	 0.129487
H	-2.2819319148	 0.1782283343	-1.8140720786	 0.131089
H	-2.536472861	-2.2681090464	 1.017043347	 0.106506
H	-0.4435353634	-3.3534541274	-0.3208747572	 0.298007
76.0149	100.8271	157.4804	166.7245	220.0187	244.2066	295.1849	384.0751	417.2295	545.7645	601.5668	726.0079	759.9289	773.5717	806.7146	874.0459	927.2938	974.2741	1023.0682	1055.1675	1074.2487	1105.4161	1134.7686	1169.8941	1191.9967	1224.8423	1260.161	1288.9709	1332.0632	1336.1499	1395.4084	1407.0715	1412.4833	1447.2015	1485.9168	1499.2729	1506.2258	1870.6938	3016.256	3016.6813	3031.4147	3063.8082	3067.5476	3082.0364	3098.8774	3105.2009	3128.2202	3777.2323
CCC1CC(=O)C1O	CC[C@H]1CC(=O)[C@H]1O	
InChI=1S/C6H10O2/c1-2-4-3-5(7)6(4)8/h4,6,8H,2-3H2,1H3	InChI=1S/C6H10O2/c1-2-4-3-5(7)6(4)8/h4,6,8H,2-3H2,1H3/t4-,6-/m0/s1
