20
gdb 50531	2.80714	1.21975	0.99066	1.7042	80.54	-0.2151	-0.0305	0.1847	1256.1199	0.170054	-403.110624	-403.101647	-403.100703	-403.145554	32.706	
O	-0.7085536975	 0.9280819541	-0.6682366386	-0.241061
C	 0.2274979909	 0.8714851591	 0.0898434746	 0.133814
C	 1.3620525457	 1.8831258817	 0.1468642251	-0.052489
C	 1.2337529889	 3.0404731191	-0.8679202475	-0.244107
C	 0.6985911684	 3.8967301224	 0.3051190935	-0.166453
N	 1.2094706502	 2.8807068898	 1.2525758316	-0.082323
C	 0.4858885442	 2.5884935814	 2.447497631	 0.042341
C	 1.2242172645	 1.8903643253	 3.5615028016	-0.27679
C	 0.8724310171	 3.3511588645	 3.6899868637	-0.273176
H	 0.2989365656	 0.0558138238	 0.844567128	 0.085282
H	 2.3139189166	 1.3368771336	 0.1949347635	 0.082226
H	 2.1968921245	 3.3779862826	-1.2514937353	 0.10961
H	 0.5411388885	 2.8554677566	-1.6874713697	 0.129874
H	 1.1263834976	 4.8940999981	 0.4489331129	 0.103691
H	-0.3982932438	 3.9785278172	 0.2995047762	 0.101517
H	-0.5781320967	 2.3529387931	 2.3446732832	 0.080524
H	 0.6809812573	 1.1693448523	 4.1617308266	 0.114571
H	 2.2642213857	 1.644756895	 3.3807626289	 0.118806
H	 1.6796032191	 4.0670332139	 3.5891965233	 0.120359
H	 0.085498583	 3.6372378964	 4.3785053374	 0.113783
39.1171	71.3234	103.256	168.579	213.3738	266.9163	308.7966	390.1248	479.158	597.8869	670.3366	774.9103	781.4348	796.6532	835.7236	900.469	907.1397	945.1046	961.6617	1000.1265	1050.04	1054.9026	1068.864	1076.6721	1097.2363	1103.9755	1138.3978	1153.1245	1196.7805	1215.5589	1224.0413	1258.3538	1266.0957	1275.8232	1320.271	1357.1013	1403.4956	1421.1819	1455.3997	1476.9666	1494.6604	1519.5164	1819.8361	2875.6017	2994.9273	3008.6966	3037.3957	3064.6163	3097.798	3139.0028	3143.8341	3161.7866	3223.5401	3237.4523
O=CC1CCN1C1CC1	O=C[C@H]1CCN1C1CC1	
InChI=1S/C7H11NO/c9-5-7-3-4-8(7)6-1-2-6/h5-7H,1-4H2	InChI=1S/C7H11NO/c9-5-7-3-4-8(7)6-1-2-6/h5-7H,1-4H2/t7-/m1/s1
