20
gdb 101958	2.74645	1.25495	1.09207	2.2325	75.13	-0.2241	0.0764	0.3005	1195.8917	0.170761	-440.213077	-440.204205	-440.203261	-440.247316	33.289	
O	 0.3171334331	 0.0419006248	-0.6162534628	-0.416899
C	-0.382357849	-1.0166157765	 0.0065033845	-0.103366
C	-1.8455421555	-0.7033240311	 0.3929088322	-0.022513
C	-1.9699952887	 0.4483464539	 1.3817295875	 0.097607
C	-1.0529752389	 0.685400258	 2.5021550583	-0.196982
O	-0.9941295983	 1.5125952466	 1.3314768929	-0.242848
N	-2.8267179349	-0.449681553	-0.6689855118	-0.090718
C	-2.4660264352	 0.2672818969	-1.892932237	-0.224472
C	-2.7884887731	-1.1886819817	-1.9211485216	-0.237919
H	 0.192477878	 0.8152090391	-0.0460695537	 0.296984
H	-0.3635767774	-1.8605450912	-0.6904019986	 0.112292
H	 0.1386008157	-1.3658560762	 0.914428234	 0.087399
H	-2.2139953811	-1.5990711797	 0.9169984731	 0.093171
H	-2.9918907569	 0.8117645841	 1.4779378932	 0.114166
H	-1.4199968812	 1.1854230709	 3.3964703157	 0.125749
H	-0.1936055187	 0.0369870756	 2.6575743496	 0.125682
H	-3.2015802245	 0.9931954321	-2.2301800874	 0.109906
H	-1.4274479973	 0.5412746186	-2.0403265312	 0.146744
H	-1.9644056067	-1.8719072293	-2.1133883329	 0.112674
H	-3.7527627996	-1.537927892	-2.281608794	 0.113343
46.5248	72.4248	185.7063	204.9706	250.2985	299.595	323.517	360.7252	426.8473	486.4331	624.3916	690.9351	765.8068	795.5055	824.5304	855.7845	884.1412	927.4966	935.3048	984.0522	1035.8754	1061.0582	1087.347	1108.2809	1118.0244	1133.4724	1138.938	1160.2751	1178.5067	1181.3023	1192.4401	1229.3374	1282.5025	1325.2253	1339.5592	1347.3726	1393.6575	1428.1895	1459.5517	1488.5953	1508.8503	1521.9171	1535.7714	2955.6562	2992.0039	3070.0294	3097.9766	3100.9815	3113.9268	3131.6432	3179.274	3185.1669	3220.1123	3707.6907
OCC(C1CO1)N1CC1	OC[C@@H]([C@H]1CO1)N1CC1	
InChI=1S/C6H11NO2/c8-3-5(6-4-9-6)7-1-2-7/h5-6,8H,1-4H2	InChI=1S/C6H11NO2/c8-3-5(6-4-9-6)7-1-2-7/h5-6,8H,1-4H2/t5-,6+/m0/s1
