17
gdb 85694	2.20954	1.5051	1.13428	1.7788	74.33	-0.2575	0.0141	0.2716	1132.931	0.132866	-421.747498	-421.738654	-421.73771	-421.781296	32.739	
C	-0.7927252833	 1.3079930879	-0.0290267553	-0.407021
C	-0.0325831214	-0.0013365766	-0.0294573794	 0.077737
O	 1.1946204574	 0.0638792201	-0.8101414186	-0.311303
C	 2.0074606289	-0.4612242789	 0.2727921668	-0.126653
C	 3.1629361181	 0.3541061343	 0.5969547907	 0.328584
C	 4.117984971	 1.0225428637	 0.890413764	-0.443438
C	 0.7821292945	-0.3966897884	 1.200696346	 0.338637
C	 0.6778517178	-0.0300529438	 2.6073295233	-0.252654
O	 0.4387673106	-1.3755344014	 2.1442501051	-0.261035
H	-0.1682287058	 2.1193972024	 0.3548228962	 0.127857
H	-1.1038439331	 1.5621457978	-1.0467820472	 0.134985
H	-1.6927849262	 1.22682021	 0.5899327914	 0.1226
H	-0.6680920926	-0.82703111	-0.3788525277	 0.092607
H	 2.3126119802	-1.4972345239	 0.0704621757	 0.117631
H	 4.9653641933	 1.6132515956	 1.1382692249	 0.204628
H	 1.5860356581	 0.1070603961	 3.1908751414	 0.133006
H	-0.2024902875	 0.4990336751	 2.9676452026	 0.123831
52.8577	120.6954	186.8626	202.0076	215.0375	287.9948	325.6649	380.1753	496.0294	511.1374	528.6628	600.3199	621.7959	678.0086	780.4034	855.7655	887.7133	909.1651	956.3896	970.1719	1024.6246	1089.7064	1108.7623	1119.1447	1133.6881	1160.41	1176.516	1234.7745	1292.9181	1340.4415	1390.689	1408.5053	1447.6294	1485.215	1493.2487	1542.765	2235.0718	3008.8859	3013.9494	3038.0291	3092.3519	3109.6281	3122.4304	3184.4279	3500.6975
CC1OC(C#C)C11CO1	C[C@H]1O[C@@H](C#C)[C@]21CO2	
InChI=1S/C7H8O2/c1-3-6-7(4-8-7)5(2)9-6/h1,5-6H,4H2,2H3	InChI=1S/C7H8O2/c1-3-6-7(4-8-7)5(2)9-6/h1,5-6H,4H2,2H3/t5-,6+,7-/m1/s1
