12
gdb 49349	2.37943	1.86062	1.0511	3.9131	57.04	-0.2893	-0.0632	0.2261	1015.4423	0.077364	-509.852071	-509.84463	-509.843686	-509.884631	25.893	
O	-0.2065371868	-0.0210721899	 0.0019045229	-0.24066
C	-0.0907441169	 1.1672132428	 0.0102394929	 0.173527
N	 1.1489029897	 1.8560686606	 0.0024700617	-0.263485
C	 1.2268991278	 3.2556160541	 0.0130405188	 0.410819
O	 0.3085094468	 4.0276591782	 0.0287773632	-0.327273
C	 2.7166195921	 3.5538807358	-0.0011045307	-0.211662
O	 3.355000299	 2.2787867575	-0.0181924844	-0.238575
C	 2.4453048229	 1.2670554074	-0.0162546334	 0.531917
O	 2.7224905599	 0.1146284339	-0.0285817957	-0.320825
H	-0.9182175632	 1.8937701669	 0.0251363823	 0.144975
H	 2.9940236601	 4.1262984797	-0.8911181365	 0.170635
H	 3.0136749486	 4.1122715628	 0.891472209	 0.170606
83.5596	160.9882	189.6462	200.3147	223.887	361.2155	478.0627	577.5102	600.6349	634.9376	711.6132	768.8169	787.4726	1022.5434	1038.6876	1045.9634	1080.4851	1095.7263	1205.5575	1207.1144	1337.8607	1371.6629	1429.1687	1484.5763	1839.2383	1863.2607	1951.9181	3030.2139	3064.012	3112.3274
O=CN1C(=O)COC1=O	O=CN1C(=O)COC1=O	
InChI=1S/C4H3NO4/c6-2-5-3(7)1-9-4(5)8/h2H,1H2	InChI=1S/C4H3NO4/c6-2-5-3(7)1-9-4(5)8/h2H,1H2
