12
gdb 129058	2.67246	1.88514	1.18754	2.3269	65.68	-0.2922	-0.1192	0.173	945.0615	0.077538	-468.767227	-468.760122	-468.759178	-468.799295	25.731	
N	-0.147158469	 1.2444764122	 0.0400672859	-0.426997
C	-0.0083971448	-0.0180645434	 0.051224863	 0.127535
C	-1.202906345	-0.8808092726	-0.1131858066	 0.018821
N	-1.4027386157	-2.0175020118	 0.4284454174	-0.205175
C	-0.476252154	-2.5741741798	 1.29065329	 0.137969
N	 0.804417535	-2.6464907009	 1.2689012395	-0.114016
O	 1.4812277244	-2.006102418	 0.1856849758	-0.232956
C	 1.3745230691	-0.6604760833	-0.004925623	 0.396263
O	 2.3288816195	-0.0236480516	-0.3431474961	-0.288824
H	 0.7779381275	 1.6876172726	 0.0927358549	 0.262708
H	-1.9771050272	-0.4797903457	-0.7678955257	 0.161903
H	-0.9072380897	-3.1256721378	 2.1242418248	 0.162771
68.6241	131.8387	278.5268	311.212	341.7611	414.804	430.7361	550.384	609.2318	678.1697	705.9229	789.6814	863.9601	914.4301	948.2363	972.2249	1008.4078	1072.774	1078.9378	1163.7903	1354.1289	1374.9492	1382.1928	1629.9041	1693.0337	1716.4251	1834.6746	3138.7648	3165.5789	3412.0102
N=C1C=NC=NOC1=O	[NH][C]1C=NC=NOC1=O	
InChI=1S/C4H3N3O2/c5-3-1-6-2-7-9-4(3)8/h1-2,5H	InChI=1S/C4H3N3O2/c5-3-1-6-2-7-9-4(3)8/h1-2,5H
