17
gdb 93995	2.95154	1.37714	0.9738	4.0833	70.93	-0.261	-0.033	0.228	1161.3706	0.137447	-455.188909	-455.180712	-455.179768	-455.221827	30.566	
O	 0.2977401318	 1.1580382445	 0.5765877678	-0.439303
C	 0.0452419943	-0.1223307243	 0.0761528992	 0.090168
C	-1.4414552804	-0.4463348611	-0.1220415139	-0.248538
C	-1.4029033691	-1.5667034287	-1.1754649337	-0.197466
N	-0.2285097763	-1.2166033378	-1.9956662559	-0.11335
C	-0.0359678466	-1.6707091308	-3.2764291752	 0.15096
O	 0.9032214869	-1.3810083781	-3.9838889092	-0.307792
C	 0.6174593579	-0.3148110724	-1.3206156491	 0.37654
N	 1.645858838	 0.3063635141	-1.7121772095	-0.561972
H	 1.070569517	 1.4776716688	 0.0846815788	 0.298482
H	 0.4961891282	-0.8935142568	 0.7276499649	 0.091602
H	-1.9496227159	-0.7511039949	 0.7937898009	 0.12068
H	-1.9394308745	 0.4422754892	-0.521971147	 0.129302
H	-1.2630318388	-2.5494491197	-0.7089193086	 0.127787
H	-2.3027195864	-1.6085538762	-1.7936934153	 0.13239
H	-0.8526015325	-2.3419269694	-3.6049575767	 0.093207
H	 1.8875405464	 0.0762596235	-2.6754704575	 0.257305
81.3116	142.2574	207.3372	242.3612	249.0755	305.3126	402.9773	422.3902	463.745	503.8694	570.6669	672.2045	714.8882	799.418	877.3865	937.6742	959.5586	979.6732	1029.8563	1037.3311	1099.8311	1152.226	1174.9757	1203.3158	1217.424	1266.3737	1297.9554	1312.7563	1337.805	1381.3247	1423.0237	1436.5514	1445.0166	1495.1475	1521.3537	1734.8071	1812.8537	2933.9959	2950.3685	3031.5095	3068.0351	3099.8806	3132.5779	3504.3417	3699.5998
OC1CCN(C=O)C1=N	O[C@H]1CCN(C=O)[C]1[NH]	
InChI=1S/C5H8N2O2/c6-5-4(9)1-2-7(5)3-8/h3-4,6,9H,1-2H2	InChI=1S/C5H8N2O2/c6-5-4(9)1-2-7(5)3-8/h3-4,6,9H,1-2H2/t4-/m0/s1
