20
gdb 116633	3.20547	1.00949	0.84918	1.2257	78.98	-0.2513	0.0226	0.274	1437.4098	0.170212	-440.303228	-440.293604	-440.29266	-440.338993	33.978	
C	-0.0101869338	 1.5717144167	 0.1394800091	-0.359632
C	-0.0113580941	 0.0827395566	-0.2112111768	-0.146331
N	-1.3701838275	-0.4452662621	-0.1633750212	-0.325837
C	-1.837899297	-1.0872526703	-1.1356284168	 0.407055
O	-1.1998898606	-1.3701696453	-2.3164882462	-0.246926
C	-2.0531279599	-2.2103930028	-3.0876709245	 0.016125
O	-3.3516541194	-2.0641976874	-2.5827848539	-0.255878
C	-3.2274707153	-1.6970076564	-1.20586233	 0.008856
C	-3.4048635767	-2.8804379589	-0.2558537901	-0.398536
H	 1.0132113622	 1.9585107465	 0.1749474402	 0.107849
H	-0.5674554657	 2.1471759594	-0.606314423	 0.117153
H	-0.4804551287	 1.7372832273	 1.1129386508	 0.123744
H	 0.4705009665	-0.0791801383	-1.1836909865	 0.106972
H	 0.5793359065	-0.4615077399	 0.5374755718	 0.106096
H	-2.0304461855	-1.8844312218	-4.1317867554	 0.127551
H	-1.6910055244	-3.2480326341	-3.0063481264	 0.102851
H	-3.9834947706	-0.9339227214	-1.0016519933	 0.117439
H	-2.6648539056	-3.6622681463	-0.4535129576	 0.120141
H	-3.2758129137	-2.5390373706	 0.7746453125	 0.143891
H	-4.4037239869	-3.309514291	-0.3695883826	 0.127417
28.948	82.713	122.9373	162.7377	169.1783	229.8637	235.4836	290.5736	394.7223	428.5197	493.727	680.8305	701.0296	750.0335	798.4314	826.6239	877.0868	917.0949	1003.5726	1039.8421	1063.3089	1070.9755	1109.9988	1116.4158	1126.4092	1151.5238	1172.8283	1220.8289	1237.9604	1300.7094	1325.7463	1365.9897	1382.789	1399.727	1406.8058	1439.7145	1488.2432	1488.986	1492.1509	1493.3754	1510.4544	1548.2953	1815.4736	2972.2552	3011.3492	3038.4848	3044.1973	3048.1128	3074.487	3082.9718	3109.3588	3118.419	3120.1869	3132.0191
CCN=C1OCOC1C	CCN=C1OCO[C@H]1C	
InChI=1S/C6H11NO2/c1-3-7-6-5(2)8-4-9-6/h5H,3-4H2,1-2H3	InChI=1S/C6H11NO2/c1-3-7-6-5(2)8-4-9-6/h5H,3-4H2,1-2H3/t5-/m0/s1
