24
gdb 5990	3.82944	0.98058	0.96087	1.299	81.61	-0.2633	0.0717	0.335	1382.0187	0.220618	-351.415036	-351.40412	-351.403175	-351.450514	39.693	
C	 0.0219848673	 1.6345364228	 0.0825213485	-0.37564
C	-0.0073767446	 0.1055025847	-0.01222867	-0.186276
C	 0.7017953855	-0.5627331909	 1.1728530641	-0.183451
C	 0.7352172332	-2.1106979739	 1.1845720504	 0.256371
C	-0.6870895457	-2.6991111945	 1.2403611128	-0.40966
C	 1.4864114796	-2.6619197019	-0.0418716213	-0.409674
C	 1.494116674	-2.5240664167	 2.4589436197	-0.084548
O	 1.5625165557	-3.9418641576	 2.5338686489	-0.42774
H	 1.0509944983	 2.0110875961	 0.1001390905	 0.112016
H	-0.4870219303	 2.0972641437	-0.7688734361	 0.109438
H	-0.4715689169	 1.984803461	 0.9961266586	 0.112019
H	-1.0492380764	-0.2314790211	-0.0631769469	 0.099042
H	 0.4620539999	-0.2053869079	-0.9527667443	 0.099056
H	 1.7363936344	-0.1919208158	 1.2109034164	 0.084458
H	 0.2241351191	-0.2178033431	 2.1013995468	 0.084464
H	-1.2422327931	-2.5002688744	 0.3190774671	 0.107752
H	-0.6443212339	-3.7813906436	 1.3832340718	 0.130325
H	-1.2565544611	-2.2720854221	 2.0744246772	 0.100019
H	 2.4802743938	-2.2073826164	-0.1309303619	 0.100017
H	 1.6190841356	-3.7425298413	 0.0489992031	 0.130335
H	 0.9429775088	-2.4637824669	-0.9702640346	 0.107758
H	 2.5051365844	-2.0856409687	 2.4359129911	 0.078635
H	 0.9743072049	-2.1117412839	 3.339105677	 0.078637
H	 2.0384201075	-4.1780435274	 3.3345552809	 0.286647
67.8042	94.3272	125.0961	147.4135	218.6956	229.118	242.387	245.7787	279.3569	312.5333	325.6957	365.5233	408.4279	409.3369	583.9043	744.368	748.9546	868.2796	871.8727	932.1121	933.5993	957.7915	988.7536	1013.9672	1051.6659	1069.1623	1107.3457	1117.6074	1196.2843	1219.9022	1225.4646	1264.2509	1291.695	1311.8224	1331.0192	1356.9239	1393.776	1395.9054	1406.6874	1413.3372	1452.7314	1477.6219	1482.8976	1493.3025	1495.0229	1499.2476	1499.4543	1510.478	1512.6097	1520.1924	2955.5693	2987.723	2992.809	3024.9039	3027.1778	3028.3753	3031.663	3035.6755	3065.9439	3094.1826	3097.282	3098.3327	3100.3973	3122.4333	3126.1282	3840.126
CCCC(C)(C)CO	CCCC(C)(C)CO	
InChI=1S/C7H16O/c1-4-5-7(2,3)6-8/h8H,4-6H2,1-3H3	InChI=1S/C7H16O/c1-4-5-7(2,3)6-8/h8H,4-6H2,1-3H3
