21
gdb 112426	2.52247	1.19645	0.89522	4.5837	78.26	-0.2595	0.0187	0.2782	1353.5292	0.182512	-424.289948	-424.280698	-424.279754	-424.324075	34.65	
C	-0.1385304277	 1.7594727625	-0.2394705405	-0.388304
C	-0.2960307347	 0.2351222058	-0.2295537852	-0.202624
C	 0.7792258868	-0.4852378528	-1.0460250208	 0.010569
C	 2.2168196443	-0.3793151643	-0.5225999809	-0.381494
C	 2.8941774701	-1.6240645881	-1.0844612487	 0.42693
O	 4.0632498565	-1.8558267609	-1.1887176317	-0.339075
O	 1.9383016194	-2.5066519703	-1.4853028566	-0.225696
C	 0.6090949248	-2.021678084	-1.1830385074	 0.094727
C	 0.0817177107	-2.7580654063	 0.0438915328	-0.3982
H	 0.815814068	 2.0665752157	 0.2004732364	 0.12393
H	-0.1763320582	 2.1553991023	-1.2601928929	 0.119283
H	-0.9369402764	 2.2395319762	 0.3339417813	 0.118427
H	-0.276111013	-0.12551405	 0.8060135401	 0.102857
H	-1.2845087268	-0.0280710359	-0.6282061162	 0.100605
H	 0.7659979804	-0.0764566162	-2.0650591515	 0.087643
H	 2.7596132289	 0.5139555987	-0.8331583405	 0.139103
H	 2.2616375361	-0.4259111383	 0.5728311706	 0.132925
H	-0.0090490669	-2.2711119813	-2.0506154982	 0.095753
H	 0.6618618368	-2.5174455235	 0.9404149983	 0.122983
H	-0.9650366011	-2.5025033119	 0.2312086964	 0.123749
H	 0.1477767021	-3.8365157574	-0.1211971349	 0.135911
99.2236	107.4889	119.8472	173.1191	234.3506	265.4844	291.0866	360.8012	417.6786	455.9668	507.9794	558.6259	648.125	696.0926	784.8455	797.6605	835.2991	931.0321	939.0446	973.7713	988.2273	1042.1175	1064.5458	1085.5852	1115.4559	1140.5926	1172.7903	1183.5288	1201.25	1266.0932	1304.0277	1319.2999	1341.8036	1378.0348	1388.268	1400.7319	1413.1569	1416.6502	1466.6723	1483.2133	1492.2876	1498.9477	1501.6155	1508.0731	1881.9386	3013.9608	3019.193	3035.2044	3042.0919	3045.5901	3057.1996	3064.3581	3103.3528	3108.8263	3117.1678	3125.6004	3128.6202
CCC1CC(=O)OC1C	CC[C@H]1CC(=O)O[C@H]1C	
InChI=1S/C7H12O2/c1-3-6-4-7(8)9-5(6)2/h5-6H,3-4H2,1-2H3	InChI=1S/C7H12O2/c1-3-6-4-7(8)9-5(6)2/h5-6H,3-4H2,1-2H3/t5-,6-/m0/s1
