19
gdb 85190	2.65277	1.15684	0.89998	3.1288	81.75	-0.2376	-0.0194	0.2182	1328.2604	0.156457	-385.867295	-385.857745	-385.856801	-385.90225	35.131	
C	-0.2449159815	 1.5427907065	-0.0832425042	-0.392908
C	 0.0221328156	 0.0405700896	-0.0423825945	-0.037475
C	 1.2349266021	-0.3975891489	-0.9263212137	-0.346637
C	 2.0581126236	-0.4967477122	 0.3679972272	 0.389575
O	 3.2271636798	-0.4462340095	 0.6154873515	-0.28875
C	 0.7858640082	-0.4780903237	 1.2324239302	-0.090101
C	 0.778781052	 0.3101029874	 2.5498867255	-0.387564
C	 1.4603243389	-0.3931625908	 3.6295965621	 0.301146
C	 2.0049153114	-0.9940041683	 4.5161094416	-0.428676
H	 0.6720574076	 2.1210914459	 0.0787768987	 0.123633
H	-0.6464247901	 1.8332160682	-1.0592798937	 0.120113
H	-0.9705046778	 1.8462846326	 0.6783009073	 0.120868
H	-0.9005576887	-0.5081866314	-0.2436405091	 0.079434
H	 1.1002069156	-1.3782675808	-1.3935139634	 0.129312
H	 1.599190249	 0.3054975003	-1.6800018259	 0.125543
H	 0.4914635058	-1.5155634318	 1.4308813853	 0.114884
H	 1.2446505378	 1.2911136721	 2.4001702736	 0.137629
H	-0.2611999198	 0.5039038049	 2.8440420279	 0.133973
H	 2.5019689106	-1.5142985401	 5.2966960338	 0.196001
54.5667	66.3693	112.1219	190.4994	214.449	260.7376	334.8453	350.735	402.1211	454.6882	480.8944	550.7566	620.0035	641.6075	706.3479	741.2161	828.4728	840.6097	878.946	943.2532	967.8891	1013.2659	1026.8688	1082.7115	1093.2166	1130.8799	1145.4884	1202.6261	1213.1033	1247.0953	1268.3817	1318.6437	1358.3096	1367.8634	1415.1691	1443.6611	1466.1983	1497.8138	1501.6267	1890.5417	2242.305	3019.4248	3029.4559	3041.6603	3056.5882	3061.9663	3076.3835	3099.4616	3102.1079	3114.9135	3507.7502
CC1CC(=O)C1CC#C	C[C@H]1CC(=O)[C@H]1CC#C	
InChI=1S/C8H10O/c1-3-4-7-6(2)5-8(7)9/h1,6-7H,4-5H2,2H3	InChI=1S/C8H10O/c1-3-4-7-6(2)5-8(7)9/h1,6-7H,4-5H2,2H3/t6-,7-/m0/s1
