18
gdb 75085	2.98143	1.40111	1.1009	3.2188	78.5	-0.2257	-0.0177	0.2079	1131.169	0.148444	-401.960172	-401.952158	-401.951214	-401.992684	30.959	
C	 0.1153224433	 1.5437647194	 0.0895469942	-0.494519
C	-0.0022286663	 0.0488107234	-0.0213819739	 0.387641
C	-0.0272469482	-0.6052402775	-1.1847557869	-0.182874
C	-0.1410644666	-2.1066640154	-1.2990694724	-0.375304
C	-0.808960744	-2.7545260575	-0.0931530031	 0.428314
O	-1.6105264126	-3.6564393247	-0.1936081029	-0.325568
C	-0.4574642995	-2.1650914943	 1.2339325177	-0.146504
N	 0.9568942003	-1.7706141196	 1.429621471	-0.332444
C	-0.0590266288	-0.7174482274	 1.2598150915	-0.148648
H	 1.0217229794	 1.8309341892	 0.6378253054	 0.130233
H	 0.1496302902	 2.0162157856	-0.8951188166	 0.126416
H	-0.732716509	 1.9699176233	 0.6410185424	 0.125902
H	 0.0587856122	-0.0518716691	-2.1162872878	 0.09204
H	-0.6972514668	-2.40782487	-2.1906172178	 0.128026
H	 0.8648878268	-2.5442919891	-1.3886620261	 0.150684
H	-1.0132602325	-2.5741279314	 2.0719948382	 0.101119
H	 1.1877420793	-1.8791233907	 2.4145760063	 0.242259
H	-0.3466113471	-0.1549955841	 2.1451167408	 0.093227
79.1901	183.7738	192.3221	252.3895	292.9461	311.9143	447.9122	457.7071	486.5685	558.8097	613.459	707.0338	748.1221	817.1475	836.6573	886.9606	903.4207	931.5973	963.2629	982.5383	1060.068	1070.7463	1073.0324	1131.5932	1176.8491	1183.8099	1196.4218	1225.3159	1259.2822	1312.8532	1355.0807	1392.7214	1413.7987	1443.0202	1445.7691	1478.7418	1491.6369	1735.6596	1807.1246	3004.5523	3016.0546	3062.2101	3095.0133	3116.6678	3135.028	3158.5631	3166.0617	3497.9301
CC1=CCC(=O)C2NC12	CC1=CCC(=O)[C@H]2N[C@@H]12	
InChI=1S/C7H9NO/c1-4-2-3-5(9)7-6(4)8-7/h2,6-8H,3H2,1H3	InChI=1S/C7H9NO/c1-4-2-3-5(9)7-6(4)8-7/h2,6-8H,3H2,1H3/t6-,7+/m0/s1
