21
gdb 83935	2.19907	1.66912	1.45527	3.0251	81.33	-0.2282	-0.006	0.2222	1053.808	0.184807	-387.112743	-387.104665	-387.103721	-387.144976	32.198	
C	-0.1556038529	 1.5871861021	-0.0017527659	-0.433389
C	 0.0601953643	 0.0796616187	 0.012725437	 0.034259
C	 1.0744036711	-0.6046178113	-0.9712453516	-0.153523
C	 2.3986823335	 0.1888523442	-1.0287279283	-0.214137
C	 3.0989496986	 0.1897056946	 0.3527120595	-0.210655
C	 2.1112517755	 0.1724579397	 1.5455684677	-0.214136
C	 0.833376946	-0.6183688266	 1.1874581537	-0.153523
C	 1.189000327	-1.6775083673	 0.1275672979	 0.420632
O	 1.3304280414	-2.8664085467	 0.1357834229	-0.326912
H	 0.7703095173	 2.1575341043	 0.1051884813	 0.121731
H	-0.6260273131	 1.8974932355	-0.9410740348	 0.120094
H	-0.8219168086	 1.8863092868	 0.814621483	 0.120095
H	-0.9112069125	-0.4147056925	-0.0988870864	 0.084651
H	 0.7229851517	-0.9078357056	-1.9594147973	 0.07906
H	 3.0652805947	-0.261054712	-1.7712088966	 0.109159
H	 2.1913506397	 1.2069995485	-1.3754660469	 0.106115
H	 3.7088712452	-0.718876304	 0.415027278	 0.120472
H	 3.7938856071	 1.031115838	 0.435664029	 0.09567
H	 2.5983159033	-0.2876850032	 2.4110655221	 0.109159
H	 1.8311186398	 1.1864532608	 1.8508161528	 0.106115
H	 0.2730996307	-0.933498014	 2.0698966829	 0.07906
133.1634	147.6354	189.1823	272.5585	284.6925	287.1222	468.9205	482.0946	502.3582	511.1049	655.3562	685.9786	780.3178	782.8986	807.0132	865.9913	867.7077	920.5253	970.6774	1019.1577	1040.0564	1041.5869	1066.5837	1095.5205	1107.6934	1130.7214	1141.3408	1143.4932	1216.696	1224.6558	1268.9265	1270.2958	1307.0603	1307.8431	1356.171	1370.3421	1374.6238	1397.6227	1409.0828	1482.7169	1486.2599	1494.3993	1511.2038	1513.9737	1886.4867	3034.7361	3035.664	3040.2865	3041.9461	3043.3326	3071.4802	3078.6475	3090.798	3093.2019	3094.7612	3095.7603	3120.4306
CC1C2CCCC1C2=O	C[C@H]1[C@H]2CCC[C@@H]1C2=O	
InChI=1S/C8H12O/c1-5-6-3-2-4-7(5)8(6)9/h5-7H,2-4H2,1H3	InChI=1S/C8H12O/c1-5-6-3-2-4-7(5)8(6)9/h5-7H,2-4H2,1H3/t5-,6+,7-
