17
gdb 82867	2.58673	2.07944	1.78193	1.7642	65.32	-0.2381	0.0562	0.2943	843.5284	0.138791	-458.947599	-458.9412	-458.940256	-458.978078	26.688	
O	-0.0389344003	 1.4237946667	 0.1456454624	-0.423585
C	-0.0128417756	 0.0249813288	-0.0155038856	 0.123423
C	-1.4411243783	-0.5387029907	-0.1886782932	 0.033775
O	-2.1759065028	 0.2275299023	-1.1632685901	-0.286718
C	-1.5430809822	-0.5255798126	-2.2248563125	 0.059213
C	-0.1541214785	 0.0621485855	-2.5321448339	-0.223775
C	 0.6324621248	-0.504501862	-1.330481338	-0.010366
O	 0.2262586459	-1.8824141756	-1.2988978443	-0.25634
C	-1.1678231087	-1.6689597691	-1.2250636972	 0.058569
H	 0.8480002937	 1.7129507113	 0.3811546405	 0.288678
H	 0.4703512992	-0.4808308731	 0.8329649207	 0.076205
H	-2.0008563846	-0.6949035625	 0.7342609729	 0.082779
H	-2.2042875032	-0.6859571831	-3.0773138903	 0.081885
H	 0.2559852376	-0.3237682829	-3.4697060262	 0.103489
H	-0.1843811099	 1.1528065943	-2.5556926732	 0.125585
H	 1.7198983919	-0.4437066854	-1.3853673713	 0.073281
H	-1.7240163591	-2.6018781219	-1.2017124808	 0.093901
186.7642	254.8572	267.5834	420.7926	451.3185	517.0258	565.3619	646.8157	661.8408	785.4373	820.8099	842.5317	864.3372	894.0996	908.0716	922.8228	984.0183	1004.7663	1020.8531	1040.9539	1066.0475	1083.7818	1114.7186	1145.4415	1154.6471	1204.7067	1214.6548	1245.2866	1266.0073	1279.2822	1301.0469	1316.0691	1345.038	1352.8353	1367.1388	1427.1368	1458.9716	3001.1539	3065.445	3106.0506	3107.674	3114.6504	3134.6259	3165.6796	3823.2555
OC1C2OC3CC1OC23	O[C@H]1[C@H]2O[C@H]3C[C@@H]1O[C@@H]23	
InChI=1S/C6H8O3/c7-4-2-1-3-5(8-2)6(4)9-3/h2-7H,1H2	InChI=1S/C6H8O3/c7-4-2-1-3-5(8-2)6(4)9-3/h2-7H,1H2/t2-,3-,4+,5+,6+/m0/s1
