22
gdb 53952	2.44465	1.31955	1.08225	3.4802	81.57	-0.2344	0.0382	0.2726	1229.7047	0.192664	-404.376718	-404.366347	-404.365403	-404.41214	39.068	
C	-0.5121594803	 1.6219121409	-0.3649451639	-0.399902
C	-0.0281514883	 0.2050485999	 0.0012292844	 0.138473
C	 0.838026176	 0.2815055246	 1.277406718	-0.431035
C	-1.2494997873	-0.7072581899	 0.1410031232	-0.01208
C	-1.3006217264	-1.9632857344	 0.9892425045	-0.295531
C	-2.1072393844	-0.7489164543	 1.377810809	-0.289855
C	 0.9282996544	-0.269981431	-1.1239604724	 0.404003
N	 0.8298170794	-1.5787207311	-1.4896590691	-0.535646
O	 1.7420736062	 0.4814023291	-1.6295471887	-0.385804
H	 0.3412936803	 2.2639682325	-0.5876841201	 0.139763
H	-1.1574772805	 1.6014858587	-1.2494020356	 0.110252
H	-1.0853956497	 2.0513091571	 0.4623129252	 0.105414
H	 0.2708897186	 0.6926530815	 2.1177304493	 0.114978
H	 1.2300736686	-0.6973109132	 1.5700289791	 0.114743
H	 1.6911576153	 0.9381353366	 1.0910249013	 0.142315
H	-1.8135613678	-0.7733176592	-0.7870337839	 0.09293
H	-1.8274894229	-2.8279015942	 0.5981845814	 0.112137
H	-0.4462330662	-2.2106152517	 1.6092589125	 0.120013
H	-1.7834264922	-0.1973135865	 2.25300909	 0.118775
H	-3.1834528912	-0.7806914993	 1.2502556358	 0.11491
H	 0.2104446731	-2.2148291084	-1.0201961117	 0.265196
H	 1.4987221152	-1.9321150877	-2.1538764282	 0.255952
31.3902	82.1297	183.6234	208.5412	246.9019	259.6615	264.3279	277.5453	304.0217	347.0763	380.585	404.3131	513.9769	569.0764	613.6047	679.7486	780.7818	790.5304	809.6214	839.6733	901.2388	938.5643	954.7605	971.1603	1025.7723	1057.3563	1077.3659	1084.5478	1101.3452	1156.3232	1184.1756	1197.4215	1205.2392	1221.3559	1273.6367	1346.3093	1388.9689	1393.2831	1420.5036	1464.2266	1480.1925	1493.0401	1502.3286	1506.3136	1515.8343	1604.0883	1782.8807	3038.327	3042.1674	3102.9069	3108.6403	3124.1906	3125.6242	3130.745	3139.8448	3142.8691	3209.5145	3225.5366	3602.1192	3741.837
CC(C)(C1CC1)C(N)=O	CC(C)(C1CC1)C(=O)N	
InChI=1S/C7H13NO/c1-7(2,6(8)9)5-3-4-5/h5H,3-4H2,1-2H3,(H2,8,9)	InChI=1S/C7H13NO/c1-7(2,6(8)9)5-3-4-5/h5H,3-4H2,1-2H3,(H2,8,9)
