21
gdb 74809	3.41487	1.20228	1.03231	1.3573	85.16	-0.2109	0.0242	0.2351	1236.1813	0.18304	-387.100696	-387.09209	-387.091146	-387.133244	34.583	
C	 0.0571496993	 1.5361446315	 0.0195082095	-0.476422
C	-0.0429367316	 0.0367199748	-0.0101255932	 0.290019
C	 0.0113096993	-0.6704893357	-1.1447747316	-0.131592
C	-0.0283945106	-2.1519389643	-1.1864441742	-0.142519
C	 0.986396337	-2.9642956067	-0.3704009403	-0.325154
C	-0.4340593608	-2.8837415039	 0.0764924213	 0.418452
O	-1.1361025227	-4.091698667	-0.0589638035	-0.472415
C	-0.8739284628	-2.027908827	 1.2480677204	-0.273852
C	-0.1697324752	-0.6625226441	 1.3289081089	-0.319412
H	 0.9067271796	 1.8666033304	 0.632528334	 0.119915
H	 0.1832562104	 1.9536610614	-0.9832072571	 0.118201
H	-0.8382531253	 1.9870371784	 0.4677967001	 0.118558
H	 0.1157725451	-0.1518036433	-2.0952768348	 0.075847
H	-0.3350890116	-2.6077067094	-2.1223018121	 0.082903
H	 1.3007489686	-3.9161247943	-0.7828029289	 0.120681
H	 1.753244908	-2.4162564019	 0.1653612257	 0.114287
H	-2.0588975023	-3.8756606383	-0.2359684464	 0.27638
H	-1.9548618464	-1.8572775577	 1.1357196561	 0.08771
H	-0.7416640806	-2.5824945896	 2.1835148872	 0.105688
H	 0.8294107469	-0.7795700179	 1.7727785776	 0.112712
H	-0.7185564542	-0.0227889355	 2.0306589212	 0.100012
115.1252	182.1621	207.9872	265.3488	309.7471	327.3891	367.4026	370.9259	406.9815	448.6446	501.1339	573.1785	653.4168	693.8886	761.9984	837.5785	849.2554	895.7587	914.0635	940.8878	978.0868	992.5854	1029.221	1047.7865	1057.6576	1082.7758	1094.8999	1113.7812	1177.7288	1208.565	1224.5622	1259.9625	1273.7569	1329.1421	1348.1115	1366.8408	1395.4793	1413.7034	1424.0673	1476.4523	1477.9084	1484.411	1492.4087	1504.9219	1727.5171	2996.2198	3004.0857	3008.8864	3046.6298	3050.6176	3063.8009	3107.1309	3137.8757	3143.3996	3163.5553	3230.3492	3787.6286
CC1=CC2CC2(O)CC1	CC1=C[C@H]2C[C@@]2(O)CC1	
InChI=1S/C8H12O/c1-6-2-3-8(9)5-7(8)4-6/h4,7,9H,2-3,5H2,1H3	InChI=1S/C8H12O/c1-6-2-3-8(9)5-7(8)4-6/h4,7,9H,2-3,5H2,1H3/t7-,8-/m0/s1
