22
gdb 112669	3.3646	0.98656	0.79421	3.7307	83.98	-0.2326	0.0382	0.2708	1496.7123	0.194816	-404.409611	-404.399886	-404.398942	-404.44442	35.493	
C	-0.0028217067	 1.5483089002	 0.1150020954	-0.386289
C	-0.0389228298	 0.0212037984	 0.0043807889	-0.189684
C	 0.6213044208	-0.5178339975	-1.266229589	 0.025483
C	 0.6764108975	-2.0631456914	-1.321780642	-0.190364
N	 0.6536656093	-2.3631075546	-2.7401976284	-0.066329
C	 0.8701504112	-3.6915119715	-3.2597442975	-0.3432
C	 0.2038830163	-1.3289132253	-3.5216247244	 0.403019
O	 0.0378478934	-1.3718717322	-4.7235073961	-0.396271
C	-0.0679388368	-0.1459221183	-2.5915661117	-0.350408
H	 1.0273594576	 1.9212930838	 0.1034799109	 0.116695
H	-0.5362337189	 2.0234250811	-0.7147539425	 0.123924
H	-0.4685935595	 1.8868463902	 1.0452931062	 0.11573
H	 0.4598034802	-0.4179766855	 0.8786847901	 0.096572
H	-1.0798705708	-0.3278550744	 0.0404131519	 0.097059
H	 1.6546330059	-0.1502977973	-1.3066014551	 0.082988
H	 1.5815819659	-2.463992728	-0.8499226514	 0.106906
H	-0.1870505702	-2.5151466713	-0.8059346979	 0.097165
H	 0.137931896	-4.4048512922	-2.8577564692	 0.119206
H	 0.7624841598	-3.6426476759	-4.3447095201	 0.164501
H	 1.8741975903	-4.0543896242	-3.0088446823	 0.120783
H	-1.1559102744	-0.0580886081	-2.4715931499	 0.123116
H	 0.2838526829	 0.7826771538	-3.0437892659	 0.129397
74.3214	101.9985	145.8357	159.9577	187.5652	203.6275	248.1901	292.3581	364.359	407.2432	492.9021	557.4643	605.6958	663.422	780.2188	787.6543	861.8904	919.7694	956.6464	1000.735	1014.9755	1024.2353	1076.8686	1122.544	1127.4654	1153.3642	1170.3283	1200.3289	1236.9668	1270.9759	1282.2681	1306.2306	1311.8457	1338.7462	1366.8897	1394.3213	1414.8926	1431.014	1452.3014	1469.2203	1486.8964	1493.7356	1501.0703	1507.2043	1512.356	1542.2472	1807.5435	2965.9513	3007.9814	3009.503	3018.369	3033.5924	3034.2444	3039.7965	3049.6376	3058.3865	3100.5109	3107.1895	3118.6071	3141.9933
CCC1CN(C)C(=O)C1	CC[C@H]1CN(C)C(=O)C1	
InChI=1S/C7H13NO/c1-3-6-4-7(9)8(2)5-6/h6H,3-5H2,1-2H3	InChI=1S/C7H13NO/c1-3-6-4-7(9)8(2)5-6/h6H,3-5H2,1-2H3/t6-/m1/s1
