16
gdb 27361	1.965	1.86125	0.9616	5.5908	77.31	-0.1993	-0.007	0.1922	1171.0885	0.125487	-434.119618	-434.111273	-434.110329	-434.152533	31.415	
C	-0.0184472486	 1.4705255003	 0.0560283463	-0.488058
C	 0.0004891051	-0.0290172314	-0.0431554256	 0.388597
N	-0.0184235427	-0.6198710209	-1.1817031246	-0.352567
C	-0.0002150711	-2.0380937468	-1.2490608731	 0.332937
N	-0.0179363373	-2.6643900345	-2.3679265917	-0.551771
C	 0.040065064	-2.7640005348	 0.0156207905	-0.313501
C	 0.0581602199	-2.0793878772	 1.1730204826	 0.470671
O	 0.0950010054	-2.5688789814	 2.4318683141	-0.425962
N	 0.038799157	-0.7021527661	 1.1627313396	-0.392722
H	 0.8724949806	 1.8399348068	 0.5765782371	 0.139131
H	-0.0463492514	 1.8903893403	-0.9480678331	 0.164067
H	-0.8960042038	 1.8148889977	 0.6150854436	 0.139267
H	-0.0454703458	-1.9734052849	-3.1204674584	 0.206027
H	 0.0547082687	-3.8462666745	-0.0031177461	 0.100765
H	 0.1073144169	-3.531598934	 2.3881033226	 0.315255
H	 0.0527017431	-0.2109328285	 2.0418550662	 0.267865
109.3046	119.6577	172.7447	233.6702	292.1343	355.5975	370.2771	423.6155	505.0838	523.4503	565.4716	582.4263	624.0136	665.3006	733.7878	832.5505	897.1366	912.2493	973.832	1006.1676	1060.1325	1075.7805	1131.5501	1198.5037	1227.5426	1271.2466	1364.9378	1399.9284	1425.7838	1475.5827	1483.4965	1532.3202	1662.5247	1691.3063	1740.5421	3035.8748	3091.0539	3170.8041	3212.4242	3458.6052	3649.9684	3824.0233
CC1=NC(=N)C=C(O)N1	C[C@@H]1N=C([NH])C=C(O)N1	
InChI=1S/C5H7N3O/c1-3-7-4(6)2-5(9)8-3/h2H,1H3,(H3,6,7,8,9)	InChI=1S/C5H8N3O/c1-3-7-4(6)2-5(9)8-3/h2-3,6,8-9H,1H3/t3-/m1/s1
