18
gdb 79592	2.23716	1.89648	1.25222	3.0971	76.31	-0.2499	-0.0282	0.2218	1029.5976	0.147524	-401.900627	-401.892533	-401.891588	-401.93329	30.786	
C	-0.109260579	 1.4914578435	 0.3115519712	-0.412138
C	 0.0979493139	-0.0070463026	 0.2583283058	-0.000197
C	 1.3583409691	-0.7046350036	-0.1952035023	-0.106231
C	 2.6118196951	-0.0065950416	 0.2873539213	-0.098798
N	 3.3592246509	-0.7700074758	 1.2648571434	-0.36155
C	 2.1228181176	-0.1238636531	 1.736143161	 0.223348
C	 2.2460714249	 0.8824321308	 2.8086131505	 0.086781
O	 1.3137905272	 1.2933142102	 3.4573999384	-0.266465
C	 0.8674601373	-0.8242921175	 1.2657747226	-0.159399
H	 0.792913544	 2.0267804258	 0.6121815202	 0.125036
H	-0.4136896263	 1.8696044361	-0.6704395815	 0.114057
H	-0.8940828608	 1.7430261583	 1.031275618	 0.133999
H	-0.7892121201	-0.5423965886	-0.080692593	 0.092041
H	 1.3482773781	-1.4724954008	-0.9611248153	 0.096868
H	 3.1082461843	 0.8413896681	-0.1706453852	 0.1137
H	 3.2242895677	-1.7732751269	 1.1556228431	 0.236767
H	 3.2853761304	 1.2409015151	 2.9691821482	 0.085046
H	 0.4347496457	-1.6915713074	 1.7511775336	 0.097135
92.8017	138.6743	179.9824	208.4586	238.5682	321.0348	428.3501	475.7083	511.7968	638.2603	702.7946	735.0489	770.3838	792.9873	885.3876	894.5444	947.1125	983.407	988.2568	1010.547	1043.0062	1067.3799	1071.704	1088.5188	1105.7461	1136.3541	1147.3561	1207.0444	1265.2264	1285.1405	1302.5197	1327.0738	1383.592	1413.8394	1425.5921	1442.3228	1488.8403	1496.3008	1806.2648	2909.3891	3041.2555	3102.8974	3108.6438	3135.7711	3168.0866	3180.9447	3184.3487	3476.2216
CC1C2C3NC3(C=O)C12	C[C@H]1[C@H]2[C@@H]3N[C@]3(C=O)[C@@H]12	
InChI=1S/C7H9NO/c1-3-4-5(3)7(2-9)6(4)8-7/h2-6,8H,1H3	InChI=1S/C7H9NO/c1-3-4-5(3)7(2-9)6(4)8-7/h2-6,8H,1H3/t3-,4+,5-,6-,7+/m0/s1
