15
gdb 14089	3.54706	1.75618	1.43911	2.6924	63.5	-0.242	-0.0289	0.2131	878.0164	0.118251	-399.768051	-399.760734	-399.75979	-399.799711	27.483	
O	 0.0201867839	 1.2855676496	-0.025300941	-0.424727
C	 0.0755366666	-0.0891635346	 0.1070747694	 0.102391
C	-0.4691495525	-0.7425540552	 1.344411729	-0.38513
C	-1.2844641949	-0.7848743467	 0.0782696484	 0.173188
N	-2.4511475239	 0.0546158163	-0.2592048584	-0.389711
C	-2.9381130582	-0.9803666508	-1.2356367148	-0.282824
C	-1.725429344	-1.8642796515	-0.8566491587	 0.315601
O	-1.3196193454	-2.9417513023	-1.1805963389	-0.304549
H	-0.8842390565	 1.4832669549	-0.329920721	 0.292931
H	 0.902743746	-0.5654304709	-0.4129743358	 0.118011
H	-0.0371183597	-1.6835137253	 1.6702360598	 0.13964
H	-0.8250795164	-0.0887930545	 2.1345827079	 0.129122
H	-3.091099209	 0.1518302488	 0.5230923896	 0.235445
H	-3.9086209205	-1.4248625078	-0.9940513454	 0.136124
H	-2.9510256553	-0.62418219	-2.2696203001	 0.144488
109.2849	123.0604	198.6807	253.5094	363.4849	460.9265	499.7554	519.9464	595.2842	615.5465	738.9514	774.5279	826.8977	872.762	893.7916	964.9786	1007.4144	1021.4492	1049.2591	1059.4713	1099.0198	1130.6288	1176.9509	1216.8717	1282.2583	1299.1045	1352.0394	1385.111	1415.6204	1452.1512	1470.3732	1898.8899	3053.0982	3107.5988	3124.9662	3146.2189	3220.8316	3516.0245	3609.2782
OC1CC11NCC1=O	O[C@H]1C[C@]21NCC2=O	
InChI=1S/C5H7NO2/c7-3-1-5(3)4(8)2-6-5/h3,6-7H,1-2H2	InChI=1S/C5H7NO2/c7-3-1-5(3)4(8)2-6-5/h3,6-7H,1-2H2/t3-,5+/m0/s1
