20
gdb 95538	2.66187	1.36128	1.05957	3.9221	84.01	-0.2145	-0.0007	0.2138	1192.51	0.172635	-403.200837	-403.192325	-403.191381	-403.233896	32.571	
C	-0.1638358145	 1.5094965437	 0.1008647899	-0.384723
C	 0.0332345763	-0.0092002383	-0.0104878231	 0.005293
C	 0.797638858	-0.4262835848	-1.2784465842	-0.222123
C	 2.2574719278	 0.0534356224	-1.24657596	-0.265259
C	 2.8738858943	-0.2304273742	 0.0954518867	-0.132278
C	 2.1412490744	-0.5216935186	 1.1735881936	 0.028036
N	 0.7398268545	-0.5377326485	 1.1651476261	-0.061299
C	 0.0470954723	-0.9781484137	 2.2655366131	 0.144742
O	 0.5449660151	-1.381982776	 3.2934888347	-0.331105
H	 0.7943002305	 2.0281195759	 0.1906368115	 0.137284
H	-0.6829290454	 1.8922767964	-0.7837326702	 0.118561
H	-0.7623481703	 1.7569155292	 0.9823527616	 0.123424
H	-0.9526942399	-0.4871643698	-0.0252764164	 0.091935
H	 0.7806391466	-1.5194265943	-1.3469813753	 0.112829
H	 0.2763221048	-0.0371381289	-2.1584910501	 0.102042
H	 2.8267522095	-0.4480947695	-2.0382810354	 0.109617
H	 2.3165177083	 1.1263539859	-1.48050687	 0.110973
H	 3.9537055437	-0.2147176467	 0.1924261128	 0.095353
H	 2.5608033821	-0.7712043623	 2.1395439042	 0.141854
H	-1.047187188	-0.9241079976	 2.1042398004	 0.074845
81.2715	148.3237	201.3867	226.1503	249.5319	294.9954	348.2163	403.9084	429.2266	521.1724	577.2349	625.8057	746.9896	779.3379	822.8379	856.3589	889.3112	953.761	962.0602	982.8424	1019.9372	1024.1097	1055.9306	1110.4139	1125.9765	1153.0108	1218.5887	1244.5044	1293.4886	1321.4534	1346.3535	1362.7409	1378.428	1381.6525	1408.7671	1436.3786	1455.6868	1477.6328	1486.0313	1494.4789	1503.8262	1719.5946	1793.8372	2940.6365	3001.5411	3036.5447	3040.8829	3045.5824	3054.9867	3089.9097	3111.91	3123.5602	3189.3015	3229.4379
CC1CCC=CN1C=O	C[C@H]1CCC=CN1C=O	
InChI=1S/C7H11NO/c1-7-4-2-3-5-8(7)6-9/h3,5-7H,2,4H2,1H3	InChI=1S/C7H11NO/c1-7-4-2-3-5-8(7)6-9/h3,5-7H,2,4H2,1H3/t7-/m0/s1
