17
gdb 45644	3.04313	1.6474	1.25072	2.6259	78.53	-0.2293	-0.0147	0.2146	1005.3972	0.136791	-384.658562	-384.651542	-384.650598	-384.69005	28.168	
O	-0.1200116748	-0.0202926002	 0.2549452014	-0.293143
C	-0.0360617576	 1.1676565891	 0.1187508778	 0.350741
C	-1.2291953183	 2.1825067608	 0.1238527862	-0.351236
C	-0.5943193132	 3.4600094493	 0.6566718996	-0.236958
C	 0.7300234925	 3.3579583816	 0.5479487471	 0.290907
C	 2.0707668415	 3.6338310098	 1.1793875837	-0.171187
C	 2.2804641967	 2.5322179139	 2.2023903829	-0.267578
C	 2.5189170233	 2.2099205427	 0.7583084809	-0.085962
C	 1.202062003	 2.0635407264	-0.0481993969	-0.149428
H	-1.6273032262	 2.2664285377	-0.8980824309	 0.129432
H	-2.0470493727	 1.8077229589	 0.7481450897	 0.130817
H	-1.1620178023	 4.2388512826	 1.1523104133	 0.102549
H	 2.63422854	 4.5573124621	 1.2004007929	 0.102581
H	 3.1820630889	 2.6294939	 2.7998838232	 0.118722
H	 1.4302255707	 2.1220665776	 2.7392829076	 0.121831
H	 3.4883039222	 1.8924790141	 0.397130286	 0.097151
H	 1.4154862164	 2.1512357636	-1.1226806745	 0.110761
91.5055	164.7929	265.3972	331.7982	405.3222	500.5689	556.1533	612.6868	636.0506	715.4555	748.6083	775.5919	812.5078	849.3328	903.7288	911.5833	930.5564	970.7255	996.1613	1012.7895	1021.5504	1059.0753	1087.4091	1092.0965	1120.865	1153.4733	1163.9186	1178.6942	1248.6109	1271.0901	1281.9499	1299.1014	1340.3263	1453.0168	1484.8697	1719.2865	1862.361	3006.5993	3012.6584	3078.4228	3118.6334	3194.8941	3195.9007	3198.4421	3209.8846
O=C1CC=C2C3CC3C12	O=C1C[CH][C]2[C@H]3C[C@H]3[C@@H]12	
InChI=1S/C8H8O/c9-7-2-1-4-5-3-6(5)8(4)7/h1,5-6,8H,2-3H2	InChI=1S/C8H8O/c9-7-2-1-4-5-3-6(5)8(4)7/h1,5-6,8H,2-3H2/t5-,6-,8+/m1/s1
