21
gdb 70032	3.22391	1.40008	1.20055	1.1535	80.88	-0.2377	0.0817	0.3193	1107.9817	0.184676	-387.069099	-387.061369	-387.060425	-387.100841	32.008	
O	-0.0960966994	 1.4454227848	 0.0694031526	-0.466067
C	-0.0255721763	 0.0617825617	 0.0348278462	 0.389104
C	-0.3446303371	-0.7243639828	-1.2042450824	-0.356149
C	-1.192330253	-0.9146391399	 0.0372102487	-0.132093
C	-0.4711583209	-1.795676197	 1.0784066529	 0.01074
C	 0.1246728538	-3.1690449759	 0.713587789	-0.239159
C	 1.6192278052	-3.0401882794	 1.0926502045	-0.185475
C	 1.9987001415	-1.5781261636	 0.7513491298	-0.245975
C	 0.7249201033	-0.780063906	 1.0886781167	-0.071084
H	 0.6169424305	 1.7980713154	-0.4743881009	 0.282557
H	-0.8304145837	-0.1328816979	-1.97421767	 0.111813
H	 0.3004823347	-1.510246663	-1.5882969051	 0.103
H	-2.2554337938	-0.7077372929	 0.0198594023	 0.088772
H	-1.0114797722	-1.8227330652	 2.0271390027	 0.070353
H	-0.3649477065	-3.9979284077	 1.2327128794	 0.092227
H	 0.0242178985	-3.3637836588	-0.3598103712	 0.099153
H	 1.7360628633	-3.2025520797	 2.1715476275	 0.097276
H	 2.254345032	-3.7762654579	 0.5893048262	 0.090967
H	 2.8797940291	-1.2397364877	 1.3041079845	 0.091861
H	 2.2379697922	-1.4930817793	-0.3152183029	 0.094123
H	 0.8030803087	-0.2280670473	 2.0277725395	 0.074056
151.2886	167.412	242.9117	261.6969	310.199	383.106	478.4663	502.424	541.734	593.9396	657.9303	720.6994	787.3857	850.7285	853.0872	868.1538	903.5444	916.9334	937.3732	968.9114	976.5143	1010.7898	1026.2957	1042.9338	1063.1013	1086.785	1101.2427	1142.4564	1171.0792	1185.9209	1213.6342	1236.6885	1255.0183	1278.0422	1303.7095	1311.0947	1327.8011	1331.823	1338.1695	1353.0094	1406.6375	1486.8713	1494.145	1497.9886	1510.8342	3027.0647	3036.8208	3044.1614	3069.8856	3073.9454	3083.6015	3090.2009	3099.2278	3112.3994	3184.3769	3200.4386	3790.9688
OC12CC1C1CCCC21	O[C@]12C[C@H]1[C@H]1CCC[C@@H]21	
InChI=1S/C8H12O/c9-8-4-7(8)5-2-1-3-6(5)8/h5-7,9H,1-4H2	InChI=1S/C8H12O/c9-8-4-7(8)5-2-1-3-6(5)8/h5-7,9H,1-4H2/t5-,6+,7-,8-/m0/s1
