18
gdb 11826	3.11649	1.83196	1.4554	1.9972	67.75	-0.2549	0.0647	0.3196	920.7716	0.152375	-384.905424	-384.897267	-384.896323	-384.937763	30.78	
C	-0.5852559334	 1.3027830548	-0.0895370382	-0.41707
C	 0.0038503613	-0.0972223592	-0.0464945791	-0.058024
C	 1.2719291135	-0.4261984474	-0.8955255332	 0.097798
O	 2.0078478666	 0.7609665059	-1.1192083804	-0.430909
C	 1.8205311362	-1.2799256212	 0.2898153774	-0.354074
C	 0.7943568171	-0.5757856048	 1.1795407752	 0.459846
C	 0.9977702713	 0.0911089508	 2.4647488837	-0.261184
O	 0.2251223146	-1.1162023607	 2.3551279093	-0.278238
H	 0.1890346758	 2.0567839968	 0.0671813233	 0.133914
H	-1.0576270476	 1.5018892795	-1.0569209624	 0.116412
H	-1.3513618171	 1.4194787116	 0.6844859752	 0.117438
H	-0.7657478066	-0.8462981289	-0.2676457095	 0.085406
H	 1.0925878146	-0.9640900628	-1.8346713543	 0.064556
H	 2.8684807967	 0.5152581223	-1.4725145413	 0.284816
H	 1.5955304857	-2.3450397364	 0.1791156244	 0.112222
H	 2.8798185277	-1.1539438117	 0.5291913968	 0.099841
H	 1.9515969793	-0.0105060739	 2.9814930137	 0.111464
H	 0.4291255941	 0.9863897354	 2.7117360894	 0.115785
72.0191	195.1498	204.5699	236.0166	270.4841	296.4828	344.2983	393.0762	459.5291	530.542	609.2136	753.6369	821.7629	840.4354	880.3127	886.2782	934.9519	983.704	1004.141	1062.8622	1099.9605	1123.6701	1139.7507	1161.1593	1172.4002	1177.4476	1215.7507	1235.4759	1283.7706	1314.5826	1368.516	1401.7808	1414.6331	1435.5443	1468.3861	1494.2185	1499.3933	1538.4664	3016.8764	3037.205	3043.075	3055.6774	3080.6422	3098.7945	3111.081	3130.4381	3167.0851	3819.7616
CC1C(O)CC11CO1	C[C@H]1[C@@H](O)C[C@]21CO2	
InChI=1S/C6H10O2/c1-4-5(7)2-6(4)3-8-6/h4-5,7H,2-3H2,1H3	InChI=1S/C6H10O2/c1-4-5(7)2-6(4)3-8-6/h4-5,7H,2-3H2,1H3/t4-,5-,6+/m0/s1
