19
gdb 76222	2.72675	1.50677	1.19526	1.9517	76.5	-0.2411	-0.0036	0.2375	1108.3096	0.157932	-423.025299	-423.016459	-423.015514	-423.058296	33.901	
C	-0.0240656788	 1.5212546342	 0.025343438	-0.48663
C	-0.0683805663	 0.0310791953	-0.0450832993	 0.271722
C	-0.00594641	-0.7565693387	-1.1245436016	-0.196896
C	 0.0307725151	-2.1944075065	-0.7240149461	-0.059502
O	 1.1893789225	-2.5325901709	 0.1009983641	-0.316059
C	-0.0727050088	-2.2552906371	 0.7368966921	 0.37769
C	-0.6770808335	-3.3563730405	 1.5577992039	-0.498285
C	-0.0929620507	-0.8006614768	 1.2399966419	-0.013334
O	 1.0108453441	-0.5203798798	 2.0880248836	-0.43423
H	 0.8027787329	 1.8416558195	 0.66910356	 0.144716
H	 0.1003094604	 1.974511043	-0.9614002204	 0.12259
H	-0.9415209776	 1.9217259922	 0.4759614975	 0.127271
H	 0.0594461595	-0.4203933165	-2.1529611438	 0.099997
H	-0.3001964736	-2.9936337504	-1.3802209765	 0.096876
H	-0.5359389637	-4.3246044032	 1.0712226763	 0.129509
H	-0.2031587434	-3.3922434196	 2.5448771699	 0.137669
H	-1.7491420934	-3.1881839009	 1.7052800266	 0.123462
H	-0.9885472849	-0.59398265	 1.8391824932	 0.084359
H	 1.7780359204	-0.8873609234	 1.6265790004	 0.289077
106.4956	170.6439	192.3535	211.8395	238.9287	242.1425	300.5333	364.6774	479.9445	507.9566	533.4765	556.575	619.2724	695.2034	740.4658	832.8922	872.608	874.0245	895.8012	955.0427	1002.1454	1024.8073	1060.6645	1079.3299	1083.9325	1111.0392	1186.3996	1223.5782	1264.9868	1280.2039	1305.2218	1336.6489	1404.5608	1407.4034	1429.7244	1461.3421	1474.281	1484.491	1488.2908	1497.3578	1703.2739	3022.1385	3033.5628	3038.0774	3076.3921	3099.1335	3118.2211	3123.977	3163.5685	3198.4013	3749.9338
CC1=CC2OC2(C)C1O	CC1=C[C@H]2O[C@@]2(C)[C@H]1O	
InChI=1S/C7H10O2/c1-4-3-5-7(2,9-5)6(4)8/h3,5-6,8H,1-2H3	InChI=1S/C7H10O2/c1-4-3-5-7(2,9-5)6(4)8/h3,5-6,8H,1-2H3/t5-,6+,7-/m1/s1
