16
gdb 131526	3.15177	1.67264	1.21714	2.3701	69.45	-0.2575	0.0061	0.2635	991.2135	0.128535	-434.096145	-434.089093	-434.088148	-434.127873	26.696	
O	-0.4124289375	 1.4097119548	-0.3702744515	-0.428724
C	 0.0526904614	 0.1097480608	-0.0203781103	-0.02331
C	-1.1804455128	-0.8199210484	 0.1480114771	-0.232779
C	-1.370028408	-1.5645277119	-1.2047965721	-0.176013
N	-0.0404682968	-1.4320717048	-1.7744063781	 0.065197
N	 0.5488506417	-1.9459703959	-2.8699545801	-0.273069
C	 1.7249649485	-1.319551771	-2.8440074487	 0.018211
N	 1.9107401273	-0.4420953628	-1.8133933912	-0.373872
C	 0.763158875	-0.5484578915	-1.1658581336	 0.36547
H	 0.3432493186	 1.9132109961	-0.6935548573	 0.296653
H	 0.6598140325	 0.1486837631	 0.8921872414	 0.095821
H	-0.9823285694	-1.5453814264	 0.9407474462	 0.124586
H	-2.0564003725	-0.2336030582	 0.4276693467	 0.135112
H	-1.6438499028	-2.6144105838	-1.0815007051	 0.1382
H	-2.1085850096	-1.084380892	-1.8539042463	 0.142267
H	 2.4777964044	-1.5105742183	-3.5944862169	 0.126248
100.3924	149.9255	206.0173	307.2606	358.1995	438.069	471.048	631.2267	679.9864	730.8209	750.8031	809.7581	848.4657	901.2951	924.8628	984.768	1000.1995	1006.6121	1113.5592	1125.9103	1194.0853	1209.0648	1222.4441	1249.0743	1285.595	1307.4516	1327.6765	1336.0002	1357.845	1394.758	1429.7792	1475.9069	1499.5	1533.7545	1566.3623	3029.9774	3061.7618	3080.3783	3112.8959	3141.6928	3258.4101	3806.5592
OC1CCN2N=CN=C12	O[C@H]1CCn2ncnc12	
InChI=1S/C5H7N3O/c9-4-1-2-8-5(4)6-3-7-8/h3-4,9H,1-2H2	InChI=1S/C5H7N3O/c9-4-1-2-8-5(4)6-3-7-8/h3-4,9H,1-2H2/t4-/m0/s1
