21
gdb 92636	2.985	1.38926	1.07946	1.254	85.3	-0.233	0.0181	0.2511	1187.9256	0.183973	-387.084046	-387.075824	-387.07488	-387.116622	32.436	
C	 0.2648346709	 1.6072907951	 0.0692150064	-0.404025
C	 0.0663179623	 0.0998005424	 0.0172592391	-0.055096
C	 1.0736299631	-0.7859231769	-0.8034017527	-0.283827
C	 0.9577051302	-1.8635175146	 0.3298528743	 0.096224
O	 2.0457405259	-2.6368501598	 0.7810790672	-0.272854
C	 2.7435813784	-2.110855059	 1.9051649408	-0.069365
C	 1.8052464752	-1.6222085697	 3.0260492964	-0.255481
C	 0.8943258434	-0.5551628738	 2.4562093545	-0.243558
C	 0.4784393917	-0.7443135064	 1.2104296634	 0.267664
H	 1.2842989386	 1.8543244601	 0.3827835038	 0.115187
H	 0.0895356174	 2.0613335632	-0.9119207609	 0.11619
H	-0.4271662091	 2.0734969689	 0.7789949349	 0.118315
H	-0.9583958549	-0.1329747703	-0.2991982604	 0.082298
H	 0.7899795362	-1.0841846745	-1.8153307858	 0.097399
H	 2.0679643601	-0.3314260193	-0.8134326037	 0.108806
H	 0.1605878832	-2.572343928	 0.0711780003	 0.088276
H	 3.3821064584	-2.9287555993	 2.2519963678	 0.103708
H	 3.3950051546	-1.2758771693	 1.6031483811	 0.088012
H	 1.2446036288	-2.474214061	 3.431883985	 0.114545
H	 2.4109923801	-1.222364208	 3.8465938998	 0.101649
H	 0.7088059455	 0.3610762701	 3.0093891686	 0.085932
110.5225	130.8228	199.6316	224.6043	298.99	327.6949	415.9234	437.9161	487.127	517.5196	643.2744	676.2035	771.0225	798.324	847.9882	877.1877	905.5357	922.7343	949.5892	987.5424	1012.5367	1056.73	1064.2306	1083.9537	1098.3447	1122.6538	1146.2645	1173.837	1209.1967	1231.1926	1248.2105	1266.2716	1290.9293	1330.7244	1339.8379	1367.0559	1382.5502	1407.083	1416.3373	1472.9908	1479.8491	1491.2613	1497.6042	1503.9426	1758.241	2980.9657	3017.0056	3023.2893	3023.4132	3029.3512	3059.6436	3072.2641	3081.3359	3095.4436	3102.9943	3123.2012	3163.7613
CC1CC2OCCC=C12	C[C@H]1C[C@H]2OCC[CH][C]12	
InChI=1S/C8H12O/c1-6-5-8-7(6)3-2-4-9-8/h3,6,8H,2,4-5H2,1H3	InChI=1S/C8H12O/c1-6-5-8-7(6)3-2-4-9-8/h3,6,8H,2,4-5H2,1H3/t6-,8+/m0/s1
