21
gdb 103289	2.37658	1.49137	1.26517	2.9086	78.15	-0.2461	0.0813	0.3273	1127.2579	0.181531	-424.18912	-424.179938	-424.178994	-424.222487	35.443	
C	 0.2335544536	 1.1180956966	 0.3448015347	-0.255813
O	-0.1440723824	-0.1670387759	-0.1201429805	-0.296904
C	 0.6253331342	-0.6541664055	-1.203165028	 0.437928
C	 0.3928307667	 0.0811292857	-2.5073568297	-0.465258
C	 2.0002543607	-1.2081986001	-0.9554521158	-0.134461
C	 2.1000157749	-1.8165747671	 0.4466893346	-0.291708
C	 0.9073241625	-2.7778253233	 0.0975676399	 0.14618
O	-0.2291669973	-2.8049663371	 0.9157699686	-0.442231
C	 0.7966621442	-2.1351079815	-1.2924367287	-0.177164
H	 1.3116114444	 1.1719279517	 0.5468667991	 0.117616
H	-0.0295678664	 1.9063473312	-0.3725339278	 0.116058
H	-0.3147840667	 1.2946568488	 1.2729553044	 0.129976
H	 0.7297918688	 1.1213121017	-2.4542250895	 0.119938
H	 0.9410351748	-0.4004748795	-3.3214287252	 0.125278
H	-0.672176436	 0.0782257686	-2.7598204682	 0.128597
H	 2.8413025062	-0.9456344425	-1.5866897378	 0.083686
H	 3.0351598149	-2.3533133753	 0.6204187812	 0.101821
H	 1.9219780857	-1.1362431199	 1.2837646078	 0.096806
H	 1.2587631026	-3.8101986959	 0.023740228	 0.088122
H	-0.5819123719	-1.9054574048	 0.9012762085	 0.289182
H	 0.5635689465	-2.6650055458	-2.2098388458	 0.082353
112.3808	146.7074	169.5314	200.0413	210.9155	266.9376	292.5413	361.7083	406.4283	436.5769	535.5245	554.6483	609.7981	657.8514	738.1395	826.2893	838.1457	868.178	917.7197	971.6867	1003.922	1024.8614	1026.4515	1050.8091	1076.1965	1096.4834	1129.4842	1145.0904	1174.4903	1182.1365	1223.9531	1244.8798	1259.6519	1263.6586	1286.9584	1333.5622	1411.7185	1415.6935	1459.4459	1476.1819	1481.9835	1483.5051	1492.7201	1508.4428	1511.403	3002.0323	3038.698	3058.5383	3061.6475	3075.7368	3103.2699	3115.3231	3118.9233	3120.5841	3163.71	3178.4869	3760.4592
COC1(C)C2CC(O)C12	CO[C@@]1(C)[C@H]2C[C@@H](O)[C@@H]12	
InChI=1S/C7H12O2/c1-7(9-2)4-3-5(8)6(4)7/h4-6,8H,3H2,1-2H3	InChI=1S/C7H12O2/c1-7(9-2)4-3-5(8)6(4)7/h4-6,8H,3H2,1-2H3/t4-,5+,6-,7-/m0/s1
