18
gdb 13203	5.42926	1.08328	1.04093	3.0694	69.07	-0.2622	-0.028	0.2342	1176.7722	0.1533	-384.945606	-384.9373	-384.936356	-384.97953	29.931	
O	 0.526535228	 1.1952335781	-0.1017045494	-0.41992
C	 0.1988491216	-0.1596799342	-0.0914231811	-0.137483
C	-1.3008858936	-0.3751444662	 0.0347651217	 0.344495
O	-2.0328047512	 0.5951443957	 0.0737311166	-0.338283
C	-1.8189425833	-1.7846211219	 0.1336278224	-0.071804
C	-2.4866603717	-2.1765726895	 1.4985069788	-0.218447
C	-3.6005610761	-2.9076660324	 0.7060982433	-0.211997
C	-3.1799641557	-2.1051869932	-0.5519102734	-0.22324
H	-0.32770167	 1.655385195	-0.0536442738	 0.293502
H	 0.5322594358	-0.6671386371	-1.0141715236	 0.114861
H	 0.6941424976	-0.6898231476	 0.7402901827	 0.115542
H	-1.0392909262	-2.5021048408	-0.1387708239	 0.075856
H	-1.8801393434	-2.7574407274	 2.1963084285	 0.10634
H	-2.865626788	-1.285293542	 2.0046124974	 0.125324
H	-3.388028718	-3.9751369959	 0.5998642131	 0.105784
H	-4.6270726981	-2.7913987529	 1.0596605031	 0.106068
H	-3.7607708111	-1.1869794853	-0.6652447145	 0.129783
H	-3.1402788467	-2.6298614225	-1.5086992279	 0.103618
27.0083	112.1752	120.2055	215.6101	235.7236	324.6953	369.7189	436.8816	559.3058	600.8109	711.6292	777.4221	798.7831	878.4138	913.2593	926.898	944.6245	990.751	1002.5916	1057.2329	1093.8613	1135.6831	1156.2924	1211.0546	1239.9986	1245.9172	1256.9671	1262.8336	1282.9656	1284.2142	1306.5394	1381.9067	1451.3184	1474.15	1486.7437	1487.8268	1506.6531	1783.8126	2957.6108	2974.8561	3061.2819	3064.0776	3066.858	3071.7832	3108.5994	3126.2208	3135.136	3672.2337
OCC(=O)C1CCC1	OCC(=O)C1CCC1	
InChI=1S/C6H10O2/c7-4-6(8)5-2-1-3-5/h5,7H,1-4H2	InChI=1S/C6H10O2/c7-4-6(8)5-2-1-3-5/h5,7H,1-4H2
