25
gdb 113370	2.23702	1.1352	0.91752	1.0542	89.7	-0.2311	0.0752	0.3064	1453.4573	0.226632	-389.474718	-389.463629	-389.462685	-389.510652	40.797	
C	 0.966352282	-0.0373290691	-1.1926718863	-0.395287
C	-0.0210953935	-0.2927447861	-0.0459786254	-0.250467
C	 0.6103164793	-0.7632957124	 1.2593314211	 0.325583
C	 1.7802428171	 0.0461579526	 1.8037229665	-0.256371
C	 1.4184483805	 1.4913308594	 2.1703152101	-0.378766
C	-0.3435087955	-1.3531846648	 2.290319438	-0.374011
C	 0.6090990089	-2.2533270793	 1.5699908797	 0.080861
O	 0.0409198466	-3.1797478067	 0.6967232651	-0.233393
C	 0.988355401	-3.8207857956	-0.1325056845	-0.243654
H	 1.5748886932	-0.9217764375	-1.4077664749	 0.118567
H	 0.4290130106	 0.2261171252	-2.1091251132	 0.111301
H	 1.6515014085	 0.7864129884	-0.9681928675	 0.117065
H	-0.5906954786	 0.626450455	 0.1423056499	 0.095629
H	-0.7506751141	-1.0456213477	-0.3603882755	 0.109474
H	 2.1717040671	-0.4592920715	 2.6955629289	 0.088819
H	 2.601524368	 0.0475126616	 1.0759790907	 0.095683
H	 2.2761147813	 2.0112832714	 2.6085431142	 0.10946
H	 1.099400041	 2.0628295034	 1.2927852764	 0.118534
H	 0.6001505262	 1.5189969366	 2.89768161	 0.117432
H	-0.1783531296	-1.1528137961	 3.3440625042	 0.105511
H	-1.3868020692	-1.442761703	 2.0056487165	 0.117292
H	 1.4650673722	-2.6446772614	 2.1243503484	 0.074566
H	 0.4423443748	-4.5375391557	-0.7505058857	 0.126208
H	 1.5148984025	-3.1122563494	-0.7867020576	 0.113308
H	 1.7389784195	-4.3642491873	 0.4617163907	 0.106658
86.578	99.6023	118.7319	132.3328	171.8363	187.2752	221.4324	252.7186	275.3033	290.2696	349.4861	400.5895	437.2279	489.1482	575.4551	690.7873	766.2899	796.3113	815.0691	885.9326	897.4556	964.9985	978.6349	1025.7035	1040.3519	1053.2616	1069.4825	1088.6385	1111.6122	1133.1133	1139.0801	1182.094	1183.6349	1236.6152	1261.8521	1276.0749	1316.9612	1338.1983	1364.522	1393.6768	1406.0756	1408.9479	1416.8947	1471.1446	1480.8705	1484.872	1489.1363	1494.2313	1498.1467	1500.3078	1502.7027	1509.6367	1515.597	2983.5327	3018.7854	3023.6258	3034.8006	3035.7344	3038.4094	3049.6259	3072.834	3074.349	3102.4831	3102.9171	3103.7186	3106.7078	3117.2328	3125.5745	3212.8305
CCC1(CC)CC1OC	CCC1(CC)C[C@H]1OC	
InChI=1S/C8H16O/c1-4-8(5-2)6-7(8)9-3/h7H,4-6H2,1-3H3	InChI=1S/C8H16O/c1-4-8(5-2)6-7(8)9-3/h7H,4-6H2,1-3H3/t7-/m1/s1
