21
gdb 59065	2.09486	1.37243	1.03811	3.0685	83.47	-0.2454	0.0146	0.26	1266.1662	0.180741	-383.260771	-383.250517	-383.249573	-383.29587	37.229	
C	-1.1940095755	 0.8858522596	 0.0809086983	-0.395341
C	 0.3165096823	 0.6218667396	-0.0193321393	 0.001109
C	 1.0919732032	 1.9207826097	-0.29024828	-0.397842
C	 0.8093093404	-0.0248294006	 1.265190468	 0.01531
C	 0.6811034494	-1.5049166298	 1.5325996049	-0.192545
C	 0.1603064845	-2.3614723161	 0.4952413201	 0.298798
N	-0.2488047752	-3.0659668748	-0.3270382633	-0.350744
N	 1.9939846953	-0.8607832135	 1.3852047813	-0.107768
C	 2.8197870842	-1.1832740982	 0.2258123618	-0.33006
H	-1.4232665981	 1.5372156502	 0.9324729874	 0.11438
H	-1.5589968022	 1.3819261445	-0.8235665238	 0.119135
H	-1.7540710968	-0.0453471825	 0.2043715	 0.132349
H	 0.4818587107	-0.0650138484	-0.8558630103	 0.097144
H	 0.9505901689	 2.6372800274	 0.5272504888	 0.118165
H	 2.1659809588	 1.7394295846	-0.3923231987	 0.120292
H	 0.7407627009	 2.3945441469	-1.2121096326	 0.119537
H	 0.6619364949	 0.6093736453	 2.1413992821	 0.102107
H	 0.4523504941	-1.8562828046	 2.535739132	 0.133623
H	 2.2694829848	-1.3481296425	-0.7092758336	 0.13181
H	 3.5343814773	-0.3692065204	 0.0764388082	 0.132978
H	 3.383639558	-2.0930765164	 0.4504507386	 0.13756
65.1245	100.8936	148.3525	176.4933	194.5839	214.9991	233.8932	257.0029	329.6037	360.2511	365.2247	437.6599	530.876	612.1621	627.5175	725.6845	820.4676	851.8351	900.6226	932.0199	967.7012	989.0538	1040.9009	1074.2288	1127.0678	1151.714	1157.3616	1170.2405	1190.4746	1210.3273	1308.73	1333.9246	1338.8782	1361.5608	1400.2566	1417.3808	1434.5706	1457.2192	1484.9605	1489.4553	1492.0221	1502.3791	1504.5196	1509.3905	2343.316	3015.8385	3029.5198	3033.2576	3054.4573	3087.3871	3090.7154	3096.0448	3104.6284	3110.4337	3115.1364	3118.0199	3137.794
CC(C)C1C(C#N)N1C	CC(C)[C@H]1[C@@H](C#N)N1C	
InChI=1S/C7H12N2/c1-5(2)7-6(4-8)9(7)3/h5-7H,1-3H3	InChI=1S/C7H12N2/c1-5(2)7-6(4-8)9(7)3/h5-7H,1-3H3/t6-,7+,9?/m1/s1
