19
gdb 22153	3.24236	0.71212	0.61836	3.304	76.	-0.2359	-0.0203	0.2155	1773.1919	0.155568	-456.298552	-456.287777	-456.286833	-456.336299	36.658	
C	-0.2006676722	 1.3942044824	 0.051212194	-0.473676
C	 0.1177711313	-0.0750658867	 0.0715804587	 0.351267
C	 0.8601704572	-0.6398484713	 1.2711334091	-0.248343
N	 1.0704349911	-2.0755879481	 1.3127507285	-0.289284
C	-0.114305361	-2.8675194383	 1.6171550939	-0.224724
C	 0.2774167494	-4.2865531544	 1.9945809197	 0.150566
O	-0.4328337396	-5.2479883297	 1.857528829	-0.240215
N	-0.1653981293	-0.8880811954	-0.8705764345	-0.169635
O	-0.8198486129	-0.2478620687	-1.9342145097	-0.396801
H	 0.1817480516	 1.8563925561	-0.8636448972	 0.153019
H	-1.2848162331	 1.5496636989	 0.0506482469	 0.151588
H	 0.2265365623	 1.9048149309	 0.9175823758	 0.121503
H	 1.8365596011	-0.1339019288	 1.3206597047	 0.121119
H	 0.3306530948	-0.3358985851	 2.1846495619	 0.119277
H	 1.4416106821	-2.3706147409	 0.4147421482	 0.230038
H	-0.5937270155	-2.4381648784	 2.5103369205	 0.127304
H	-0.8767130718	-2.9015823288	 0.827233958	 0.127538
H	 1.2989453335	-4.3615213975	 2.4325319445	 0.081779
H	-0.9665887489	-0.9731977561	-2.5504724922	 0.30768
48.6484	53.604	67.7942	84.8531	96.7652	208.7776	244.5488	284.6164	300.0916	332.449	399.1033	508.5981	527.7177	530.5875	641.8301	717.6562	792.6785	842.7506	922.2311	980.3261	1006.2158	1041.1507	1047.5249	1074.0051	1142.0845	1172.2685	1217.7756	1235.3526	1302.3722	1340.9438	1372.5513	1397.3937	1400.7867	1403.4227	1461.7594	1470.6464	1474.3787	1484.0503	1518.2651	1738.5539	1838.4962	2879.6013	2992.6241	2998.6337	3034.5182	3041.2502	3042.7598	3104.3488	3127.9125	3519.1882	3819.8908
CC(CNCC=O)=NO	CC(=NO)CNCC=O	
InChI=1S/C5H10N2O2/c1-5(7-9)4-6-2-3-8/h3,6,9H,2,4H2,1H3	InChI=1S/C5H10N2O2/c1-5(7-9)4-6-2-3-8/h3,6,9H,2,4H2,1H3
