13
gdb 27452	2.71976	1.77149	1.22824	5.5958	68.17	-0.246	-0.0996	0.1464	961.9785	0.090971	-448.961052	-448.953821	-448.952877	-448.992717	27.192	
N	 0.1197444601	 1.2509588506	 0.3741084165	-0.524372
C	-0.0925500625	-0.0316375597	-0.0192259289	 0.422919
N	-1.2646311376	-0.5622796091	 0.0902155419	-0.312234
C	-1.4549103908	-1.8976549588	-0.2217663364	 0.354169
O	-2.278943629	-2.3151812793	-0.9911868851	-0.304269
N	-0.6798686555	-2.815328214	 0.5537457059	-0.192906
C	 0.5870459291	-2.8102318399	 0.4012657309	-0.017614
C	 1.3542372463	-1.8370070199	-0.3965608558	 0.001174
N	 1.0717568735	-0.5991797749	-0.5744722214	-0.248526
H	 0.9344440368	 1.7218013025	 0.0196987226	 0.274034
H	-0.6889476623	 1.8014174563	 0.6110116307	 0.277018
H	 1.1753195549	-3.5765549615	 0.9138277082	 0.133087
H	 2.296213257	-2.1886049124	-0.8249953591	 0.137521
120.1334	143.941	262.166	331.6666	380.202	401.7909	454.2626	475.453	541.4296	574.5014	673.0369	748.2531	757.4012	849.0177	868.9574	902.4665	944.5154	958.087	1026.0906	1091.8925	1259.6967	1365.6124	1398.7923	1420.6246	1593.8695	1632.2054	1680.4211	1706.932	1824.4906	3086.0731	3105.6902	3610.7298	3741.2318
NC1=NC(=O)N=CC=N1	Nc1nc(=O)nccn1	
InChI=1S/C4H4N4O/c5-3-6-1-2-7-4(9)8-3/h1-2H,(H2,5,8,9)	InChI=1S/C4H4N4O/c5-3-6-1-2-7-4(9)8-3/h1-2H,(H2,5,8,9)
