18
gdb 67308	3.13573	1.43385	1.20763	4.1746	80.79	-0.2974	0.0292	0.3266	1067.9416	0.148158	-364.761712	-364.75404	-364.753095	-364.793729	30.008	
C	-0.0569153667	 1.4693270793	 0.026549109	-0.526665
C	-0.0312140301	-0.0323505279	 0.0115134968	 0.361153
C	 0.8222850238	-0.9833526521	-0.9085144825	-0.093146
C	 2.006107498	-0.9886137498	 0.0782342843	-0.277174
C	 0.7562633468	-0.9948517277	 0.9804382328	-0.084204
C	-0.0248210416	-1.9321863145	 0.0014116419	-0.040468
C	-1.2548750048	-0.9951471431	-0.0586904238	-0.233669
C	-2.1769827297	-0.9959768735	 1.0669893916	 0.264473
N	-2.8979811324	-0.9845394215	 1.9715394201	-0.337747
H	 0.9574024167	 1.8776440099	 0.0876722058	 0.128642
H	-0.5250414661	 1.8657531071	-0.8809257743	 0.125825
H	-0.6228518252	 1.8399553536	 0.8875980563	 0.141101
H	 0.8250174219	-0.9797583772	-1.9998908646	 0.077
H	 2.6255493097	-1.8902786194	 0.0937251755	 0.100669
H	 2.6346654025	-0.0935675484	 0.1048257075	 0.100435
H	 0.6847491271	-1.0037794331	 2.0680891209	 0.094253
H	-0.0158733328	-3.0215106868	-0.003242011	 0.089382
H	-1.808103687	-0.9912781049	-1.0037658263	 0.11014
126.4671	128.0416	213.2545	261.4904	292.4616	384.3936	410.7491	524.1379	565.7779	642.7222	738.0077	784.522	852.5398	862.0014	865.6427	900.4224	918.5771	944.6936	987.9264	1017.5942	1022.9685	1059.2651	1074.3851	1119.9923	1139.8302	1155.057	1164.5635	1174.3693	1198.0205	1237.7768	1248.1251	1281.1376	1318.9982	1380.165	1414.2624	1484.1553	1491.5336	1512.3585	2347.9218	3031.0102	3047.2821	3059.0899	3098.6129	3099.6179	3102.2777	3104.7331	3116.1398	3128.6166
CC12C3CC1C3C2C#N	C[C@@]12[C@H]3C[C@@H]1[C@H]3[C@H]2C#N	
InChI=1S/C8H9N/c1-8-4-2-5(8)7(4)6(8)3-9/h4-7H,2H2,1H3	InChI=1S/C8H9N/c1-8-4-2-5(8)7(4)6(8)3-9/h4-7H,2H2,1H3/t4-,5+,6-,7-,8+/m1/s1
