19
gdb 57596	2.08478	1.58235	1.32451	1.7102	71.58	-0.252	-0.0454	0.2066	1079.5251	0.155472	-460.154602	-460.144948	-460.144003	-460.188576	36.741	
C	 0.3571100594	 1.4492939748	 0.3744115878	-0.412998
C	 0.0398481545	-0.0253020044	 0.1042422946	 0.1754
O	 0.5312095437	-0.7511918281	 1.226899883	-0.457442
C	-1.4851129619	-0.1882147592	 0.0903874381	 0.127902
O	-2.1761487477	-0.3369468757	-0.8885619658	-0.268328
C	 0.6514879534	-0.4868885102	-1.2236364309	 0.413863
O	 0.1521457038	 0.2152538032	-2.3249772972	-0.480344
C	 2.1011991307	-0.8397148084	-1.3019633867	-0.308592
C	 1.0528849582	-1.9281422596	-1.4421967693	-0.350283
H	 1.426964723	 1.5429244042	 0.578948129	 0.138643
H	 0.1050662487	 2.0502648834	-0.5004609657	 0.147387
H	-0.1923173796	 1.8155677136	 1.2466964449	 0.12062
H	 0.3341936447	-1.6857204808	 1.097500921	 0.288068
H	-1.9258179062	-0.17254715	 1.112119396	 0.10308
H	-0.7969798868	 0.0227566769	-2.352828742	 0.292814
H	 2.6255196771	-0.5248796346	-2.1965081277	 0.126942
H	 2.6789320738	-0.8171700401	-0.3855129723	 0.124392
H	 0.9682203526	-2.6624874691	-0.6467603097	 0.09312
H	 0.8645659884	-2.3219014757	-2.434065837	 0.125754
83.7782	88.8332	204.0599	219.6546	244.7647	278.601	318.1463	344.4068	369.9316	392.2314	408.0721	460.8551	509.3757	599.8419	620.3657	647.802	770.425	863.6865	897.0754	909.9	943.7102	968.8004	990.5555	1000.3252	1049.6526	1081.0942	1087.2237	1172.6785	1188.4505	1197.6858	1284.9673	1299.1057	1339.4632	1391.6596	1404.4976	1415.4931	1443.7718	1484.7539	1490.5037	1502.7154	1811.983	2894.039	3048.8107	3119.9222	3124.9136	3144.4953	3152.9225	3216.0191	3239.32	3720.9095	3801.8783
CC(O)(C=O)C1(O)CC1	C[C@@](O)(C=O)C1(O)CC1	
InChI=1S/C6H10O3/c1-5(8,4-7)6(9)2-3-6/h4,8-9H,2-3H2,1H3	InChI=1S/C6H10O3/c1-5(8,4-7)6(9)2-3-6/h4,8-9H,2-3H2,1H3/t5-/m1/s1
