18
gdb 35603	2.55513	1.62579	1.21197	3.7172	81.81	-0.2427	0.0014	0.2441	1060.5586	0.149718	-364.813647	-364.806061	-364.805116	-364.845897	29.474	
N	-0.1561847769	-1.1586945764	-0.0951919913	-0.3386
C	-0.1243915307	-0.003662083	-0.0472485327	 0.291826
C	-0.071411021	 1.4556122374	 0.0163970017	-0.201871
C	-0.5349956846	 1.9767778856	 1.4339902627	-0.258064
C	 0.7732090018	 2.1497711422	 2.1991750914	-0.232747
C	 1.7809035582	 2.2367848442	 1.3398908717	 0.323646
C	 3.2316587167	 1.8923976514	 1.0912024041	-0.323188
C	 2.7124345218	 1.1686342971	-0.2090706764	-0.2512
C	 1.38558436	 1.9991043079	-0.0909828783	-0.046065
H	-0.715721435	 1.8430923061	-0.7784906719	 0.119145
H	-1.0887309564	 2.9181137417	 1.3211397912	 0.115235
H	-1.2121187862	 1.2684482587	 1.9196198488	 0.129322
H	 0.8241993018	 2.1163318179	 3.2806478058	 0.102506
H	 3.8500776796	 2.7616091178	 0.8442371662	 0.116276
H	 3.7473316001	 1.2939748994	 1.8450337921	 0.120614
H	 3.2991348577	 1.3063152989	-1.1194664901	 0.106471
H	 2.5425788752	 0.1040704868	-0.0378469837	 0.139983
H	 1.4203630278	 2.8878894363	-0.7304996313	 0.086712
76.8192	140.8623	215.37	252.9359	330.807	376.9986	467.5648	568.7643	642.9385	677.9537	720.5272	774.5973	811.3015	828.0517	840.2551	900.3369	920.5143	943.0709	981.8954	996.5483	1037.5622	1078.0673	1096.5296	1124.8478	1173.7593	1189.6636	1199.2775	1226.738	1237.2674	1258.6517	1291.6273	1313.2192	1321.0333	1353.3134	1474.3828	1486.7022	1489.4456	1741.3135	2351.0146	3020.8571	3040.6929	3051.4558	3070.5935	3075.0049	3088.5733	3111.4785	3140.7178	3206.7521
N#CC1CC=C2CCC12	N#C[C@H]1C[CH][C]2CC[C@@H]12	
InChI=1S/C8H9N/c9-5-7-2-1-6-3-4-8(6)7/h1,7-8H,2-4H2	InChI=1S/C8H9N/c9-5-7-2-1-6-3-4-8(6)7/h1,7-8H,2-4H2/t7-,8-/m1/s1
