21
gdb 61837	3.23472	0.79791	0.7292	3.6427	80.12	-0.2404	-0.0183	0.222	1615.781	0.179314	-424.220807	-424.210244	-424.2093	-424.257628	37.36	
C	 0.171369958	 1.5512227621	-0.3158894955	-0.400865
C	 0.0895382453	 0.060102186	-0.0674226654	-0.006141
C	 1.3260126739	-0.803375422	-0.0463809621	-0.302427
C	 0.5423497836	-0.5768240881	 1.2277551604	-0.01936
C	 1.1156453762	 0.2358288828	 2.3667413862	 0.096803
O	 0.1152865514	 1.0062992757	 3.0349035764	-0.434795
C	 1.8747650259	-0.659204959	 3.3689354951	-0.289522
C	 2.5355004766	 0.1355119597	 4.4749809103	 0.151259
O	 3.6743351349	-0.0220627569	 4.8372819551	-0.244738
H	 1.1072607305	 1.9776166164	 0.055634047	 0.11837
H	 0.1205501388	 1.7639929495	-1.3890604405	 0.115527
H	-0.6495014704	 2.0821220206	 0.1762401686	 0.127182
H	-0.7895956367	-0.4058148929	-0.5059086376	 0.085421
H	 1.2999761264	-1.7854274988	-0.5052661687	 0.113642
H	 2.284708224	-0.3001632239	-0.1347399702	 0.114863
H	-0.0534690311	-1.4232581507	 1.5694224775	 0.074358
H	 1.8130530434	 0.9812739922	 1.9691786134	 0.096248
H	-0.6286738281	 0.4226973608	 3.2210223104	 0.278537
H	 1.1488080495	-1.3438136497	 3.8344397461	 0.108257
H	 2.6329962964	-1.2665584178	 2.8666192521	 0.124885
H	 1.8798089014	 0.9001635641	 4.9431383913	 0.092497
39.8712	70.6992	81.8511	106.3484	160.2331	217.8757	228.7984	283.2722	331.3509	371.0872	390.0921	456.009	512.704	578.9444	776.7856	818.6985	825.1571	858.9007	892.084	915.5342	990.5687	1026.7834	1039.3301	1067.6716	1084.575	1089.1799	1110.7357	1148.2961	1159.9261	1195.4302	1200.9313	1239.1219	1274.7615	1291.1766	1349.6494	1392.0088	1409.1659	1418.2053	1420.7517	1436.5853	1451.6608	1488.8018	1492.6737	1501.01	1828.5811	2912.3697	2999.9287	3036.0371	3053.6156	3098.5477	3100.1757	3102.6548	3108.4139	3125.5315	3137.0803	3210.4893	3800.8259
CC1CC1C(O)CC=O	C[C@H]1C[C@H]1[C@@H](O)CC=O	
InChI=1S/C7H12O2/c1-5-4-6(5)7(9)2-3-8/h3,5-7,9H,2,4H2,1H3	InChI=1S/C7H12O2/c1-5-4-6(5)7(9)2-3-8/h3,5-7,9H,2,4H2,1H3/t5-,6+,7-/m0/s1
