17
gdb 32542	2.82547	1.41568	1.01433	3.314	77.29	-0.2358	-0.035	0.2007	1166.9079	0.13704	-421.881357	-421.873288	-421.872344	-421.914231	30.207	
C	-0.0887065415	 1.5656993187	 0.0174607124	-0.37636
C	 0.0880107652	 0.0373914148	 0.0304846709	-0.27448
C	 0.7571888767	-0.4848650015	-1.2124588827	 0.078193
C	 2.0189721231	-0.952879256	-1.1993102597	-0.008889
O	 2.6806209005	-1.4280615934	-2.2853249468	-0.189046
C	 2.026353298	-1.4380571647	-3.4657725476	 0.070338
C	 0.7631146876	-1.0089614067	-3.6161499881	-0.249275
C	 0.0011107489	-0.4869606999	-2.4812951134	 0.326465
O	-1.1557729898	-0.092266343	-2.5659251249	-0.380122
H	 0.87950811	 2.0737868791	-0.0383250911	 0.109524
H	-0.6906234459	 1.8686312719	-0.8416881526	 0.151385
H	-0.5952221012	 1.8992559315	 0.9281988705	 0.113192
H	 0.6609432156	-0.2671911254	 0.9136655436	 0.094348
H	-0.9001653339	-0.4299985705	 0.1029592331	 0.1277
H	 2.6463088004	-1.0033628059	-0.3171956577	 0.137266
H	 2.6515430605	-1.8346367704	-4.2561925781	 0.145365
H	 0.2882409759	-1.0449327986	-4.5888404077	 0.124397
84.4833	116.8519	185.6604	212.041	299.906	344.929	431.5488	460.5855	514.5341	537.4243	602.5988	720.4663	771.3247	788.7286	865.9873	868.8949	910.6219	960.9099	968.921	1005.6445	1064.1583	1085.9011	1134.9744	1167.4187	1248.3544	1287.1682	1349.4034	1355.0465	1398.6876	1410.9159	1429.98	1472.3134	1494.7884	1512.8757	1624.2532	1686.4964	1735.6594	3034.9706	3041.0893	3077.5177	3107.7962	3138.8896	3206.9899	3208.7995	3227.1098
CCC1=COC=CC1=O	CCc1coccc1=O	
InChI=1S/C7H8O2/c1-2-6-5-9-4-3-7(6)8/h3-5H,2H2,1H3	InChI=1S/C7H8O2/c1-2-6-5-9-4-3-7(6)8/h3-5H,2H2,1H3
