17
gdb 13770	3.1623	1.4453	1.18129	2.4756	71.12	-0.2457	0.0362	0.282	1060.8034	0.139975	-363.79586	-363.787009	-363.786065	-363.829276	32.559	
C	 0.0163113878	 1.4003599997	-0.3260674121	-0.409769
C	 0.0445813286	-0.010361954	 0.2602169284	 0.131237
O	 0.5733518736	-0.0300188149	 1.5822405771	-0.4286
C	-1.3308869983	-0.6500102137	 0.2323585406	-0.029495
N	-1.8192791892	-1.1082195752	-1.0684810149	-0.32787
C	-1.5379059277	-2.1123423819	-0.0098936046	-0.246524
C	-0.4542372596	-3.0290245991	-0.2340605243	 0.388001
C	 0.4392850231	-3.8163984637	-0.3974996545	-0.445595
H	 1.0158344573	 1.8424138054	-0.298113199	 0.124836
H	-0.3343515117	 1.3776231675	-1.3616237716	 0.136329
H	-0.6608180605	 2.0485494325	 0.2464205323	 0.098236
H	 0.7213899077	-0.6363371816	-0.3288992786	 0.109687
H	 0.0929496336	 0.6247367828	 2.1009023878	 0.2748
H	-2.0500318547	-0.1846663893	 0.9095767902	 0.077372
H	-2.8235140723	-0.9728693314	-1.150032483	 0.237349
H	-2.3988194845	-2.5536020048	 0.4885078002	 0.110828
H	 1.2340183568	-4.5048671581	-0.5453624941	 0.199179
60.8696	105.1383	180.6946	239.416	245.1599	269.5898	304.4947	358.0352	441.6098	486.8942	557.3983	606.8738	630.6968	661.5048	784.3016	834.1293	881.7955	934.3972	953.7211	991.3812	1033.3375	1076.5564	1117.4763	1141.3469	1191.7648	1224.3039	1242.7111	1301.6468	1333.6753	1398.189	1405.6938	1413.8163	1461.1727	1494.2789	1496.8212	2241.7275	3019.4433	3072.2896	3086.3865	3100.5663	3124.1272	3126.9195	3504.5677	3505.4144	3799.6034
CC(O)C1NC1C#C	C[C@@H](O)[C@H]1N[C@H]1C#C	
InChI=1S/C6H9NO/c1-3-5-6(7-5)4(2)8/h1,4-8H,2H3	InChI=1S/C6H9NO/c1-3-5-6(7-5)4(2)8/h1,4-8H,2H3/t4-,5+,6-/m1/s1
