19
gdb 55295	2.4159	1.50099	1.10034	2.2481	76.07	-0.2288	-0.0164	0.2123	1148.9556	0.158622	-419.171084	-419.162017	-419.161072	-419.20579	33.121	
C	 0.7331037042	 0.3880775088	-0.6011786527	-0.469821
C	-0.6079309255	 0.7232092015	 0.0050773422	 0.371661
O	-0.8849929361	 1.8191380531	 0.4466008991	-0.321028
C	-1.6459946836	-0.3832213083	 0.1103261981	-0.145957
N	-1.269917359	-1.7528476236	-0.310626818	-0.33465
C	-1.8380890122	-2.344048558	 0.9355083164	-0.233961
C	-1.8891203538	-0.9368109457	 1.5316283586	 0.341689
C	-1.3679234864	-0.416537137	 2.8118078548	-0.302529
N	-2.8214825511	-0.4568245152	 2.5276321243	-0.363234
H	 1.3846049976	 1.2619741819	-0.5686465392	 0.134134
H	 1.1823710344	-0.4551807025	-0.0679606324	 0.153095
H	 0.603486222	 0.050839794	-1.6357906261	 0.138771
H	-2.5837162238	-0.0041126632	-0.3233112292	 0.092701
H	-1.7161641611	-2.0674920544	-1.1645388149	 0.223592
H	-2.8399996476	-2.7777758896	 0.822266729	 0.107183
H	-1.1827467701	-3.0752524288	 1.41989668	 0.111056
H	-1.0358877366	-1.1095509507	 3.5802337695	 0.118881
H	-0.8688906075	 0.5477768383	 2.8053715246	 0.136579
H	-3.1429842538	 0.4756898093	 2.2745920559	 0.241838
36.7631	90.235	121.4237	148.9583	230.3682	280.7491	335.3216	397.3609	458.9445	487.21	569.4686	604.4579	702.4758	800.3339	835.2314	901.1013	925.4021	948.445	969.6086	999.7522	1006.6117	1012.0879	1048.6749	1059.8318	1105.9214	1131.6301	1135.149	1208.779	1249.6639	1268.8076	1277.1482	1291.5092	1347.4317	1379.3396	1381.9365	1426.3639	1447.5895	1462.8939	1511.7806	1514.9025	1789.8662	2988.8607	3017.4196	3043.4771	3071.5548	3105.1761	3112.2846	3157.1542	3204.1667	3488.7775	3536.725
CC(=O)C1NCC11CN1	CC(=O)[C@H]1NC[C@]21CN2	
InChI=1S/C6H10N2O/c1-4(9)5-6(2-7-5)3-8-6/h5,7-8H,2-3H2,1H3	InChI=1S/C6H10N2O/c1-4(9)5-6(2-7-5)3-8-6/h5,7-8H,2-3H2,1H3/t5-,6-/m1/s1
