19
gdb 109003	3.68388	1.07448	1.02587	1.6888	77.29	-0.2362	0.004	0.2402	1255.7186	0.159267	-422.983974	-422.975758	-422.974813	-423.017027	31.941	
C	 0.2278479888	 1.5219301908	-0.094833716	-0.371257
C	-0.0253925636	 0.0189922367	 0.123142766	-0.320768
C	 0.6680030965	-0.5235562986	 1.3281565006	 0.373991
C	 0.2128772861	-1.0371471698	 2.4814412796	-0.218398
C	 1.4994211757	-1.4126476366	 3.1964948289	-0.036016
O	 2.3715951062	-0.2527960457	 2.9251462798	-0.313025
C	 2.1782661418	-0.6644273568	 1.5255489071	-0.10145
C	 2.2864605463	-2.1506048541	 2.0457804832	 0.199782
O	 3.5631422273	-2.593408449	 2.3599407141	-0.445446
H	 1.2957121587	 1.7335400394	-0.2089309928	 0.122139
H	-0.2823141784	 1.8729545728	-0.9969129334	 0.114969
H	-0.1369723495	 2.1049575836	 0.7557466863	 0.128135
H	-1.1019071252	-0.1651990735	 0.2119202602	 0.107846
H	 0.3098148872	-0.5294168517	-0.7683398504	 0.109303
H	-0.7994558302	-1.2017033354	 2.8213462288	 0.10819
H	 1.4992452619	-1.7455470712	 4.2335076673	 0.083072
H	 2.8846252381	-0.2249782846	 0.8214045088	 0.080549
H	 1.7729802888	-2.9367139306	 1.4887256962	 0.091478
H	 3.9770882334	-1.8700520958	 2.8519003055	 0.286906
65.9219	116.9131	182.6515	242.5992	291.1241	359.5448	393.9139	500.2095	557.9285	573.2875	612.57	691.8792	771.9791	795.1349	805.0214	847.9118	863.868	914.4499	928.1369	939.2358	959.9209	1041.3473	1055.929	1088.4106	1123.4211	1131.0183	1184.4835	1198.1099	1205.5526	1233.4039	1270.5755	1295.9243	1299.0198	1333.4582	1350.2014	1409.6362	1432.251	1478.4818	1496.8339	1504.9371	1668.3352	3010.4676	3039.4694	3061.2064	3106.0072	3109.6398	3116.4228	3128.5076	3137.9388	3236.0793	3748.7592
CCC1=CC2OC1C2O	CCC1=C[C@@H]2O[C@H]1[C@H]2O	
InChI=1S/C7H10O2/c1-2-4-3-5-6(8)7(4)9-5/h3,5-8H,2H2,1H3	InChI=1S/C7H10O2/c1-2-4-3-5-6(8)7(4)9-5/h3,5-8H,2H2,1H3/t5-,6-,7+/m0/s1
