18
gdb 109634	2.08381	1.35481	1.04292	4.832	74.57	-0.2525	0.0135	0.266	1228.2782	0.144879	-439.06577	-439.055785	-439.054841	-439.100758	35.419	
C	-0.384333148	 1.2330893196	-0.2650720207	-0.254411
O	 0.2219953491	-0.0177417709	 0.0523922378	-0.252064
C	 0.858952657	-0.6023195793	-1.0365328208	 0.02974
C	 1.3498148798	-2.0115055709	-0.8888304606	-0.135097
C	 1.2760073888	-2.7649633575	 0.4189659479	-0.403434
C	 0.0691246843	-1.7438175449	-1.692797248	 0.223971
O	-1.1587155709	-2.058291471	-1.1165307546	-0.459811
C	 0.0986180385	-1.8880034125	-3.1248284694	 0.268396
N	 0.1687368921	-1.9874527172	-4.2755344019	-0.346282
H	 0.3699838134	 1.9589880403	-0.5952452885	 0.130179
H	-1.1422074427	 1.1272200695	-1.0519412466	 0.132075
H	-0.8558949732	 1.5951314448	 0.6501364403	 0.142542
H	 1.4105687885	 0.0874663945	-1.6723089456	 0.114678
H	 2.2208469178	-2.2311740068	-1.4998577701	 0.11663
H	 0.3476038778	-2.5586274439	 0.9519346218	 0.130831
H	 1.3307292169	-3.8423180343	 0.2389414032	 0.134059
H	 2.1103141161	-2.4831458124	 1.0684140044	 0.128821
H	-1.3062445853	-1.3982426871	-0.4237429587	 0.299175
83.471	112.4003	130.7046	152.4127	165.8788	182.9624	231.5823	290.7739	340.9158	420.4287	448.6478	492.4774	568.8261	582.3935	623.7586	734.3661	790.426	866.7246	977.6628	1020.531	1023.7195	1075.6307	1111.8263	1148.5569	1156.8891	1182.8556	1210.8604	1242.3245	1274.3767	1358.3843	1377.651	1419.3102	1440.3903	1482.835	1488.1359	1489.5294	1500.0262	1508.6382	2347.7671	3006.5968	3051.5909	3068.012	3113.0318	3126.1292	3137.3148	3144.226	3158.8466	3731.7161
COC1C(C)C1(O)C#N	CO[C@H]1[C@@H](C)[C@]1(O)C#N	
InChI=1S/C6H9NO2/c1-4-5(9-2)6(4,8)3-7/h4-5,8H,1-2H3	InChI=1S/C6H9NO2/c1-4-5(9-2)6(4,8)3-7/h4-5,8H,1-2H3/t4-,5+,6-/m1/s1
