16
gdb 84622	2.79349	1.53214	1.20824	2.3795	70.56	-0.2514	-0.0445	0.2068	1026.6225	0.124814	-437.870824	-437.863158	-437.862214	-437.902956	29.343	
O	 0.2652090105	 1.4196793523	-0.0327457848	-0.429185
C	 0.1477217872	 0.0094256368	-0.0228458898	 0.007754
C	 0.6774730472	-0.6221262549	 1.2595414089	-0.118993
C	-0.2520439916	-1.3218596	 1.9099169513	-0.053933
C	-1.5586012412	-1.2759791189	 1.1835198043	-0.107071
N	-2.1084665445	 0.0835777487	 1.0558152286	-0.370767
C	-1.308872078	-0.4663168692	-0.0601453257	 0.214775
C	-2.0217549006	-0.8185664748	-1.307714966	 0.061591
O	-3.2261935815	-0.9138216665	-1.3798292747	-0.279959
H	-0.3542816416	 1.7331877703	 0.6407008236	 0.292326
H	 0.6965251254	-0.3404265072	-0.9066755474	 0.095196
H	 1.6888583124	-0.4309638217	 1.5983723104	 0.114808
H	-0.1255694632	-1.8369411528	 2.8546468419	 0.114601
H	-2.245575384	-2.1155637914	 1.1703238463	 0.117783
H	-3.0853828625	 0.014598179	 0.760006128	 0.252789
H	-1.3721590838	-0.9994921498	-2.1899835251	 0.088284
111.8705	152.0639	214.6504	243.7681	280.7895	376.8533	466.2397	487.4357	554.2814	588.3068	700.3671	742.9382	790.5375	821.5107	868.5404	924.4281	945.1964	968.3114	986.3667	1029.8006	1055.1524	1082.0028	1097.1032	1133.6419	1189.932	1235.5114	1274.8393	1293.8455	1345.306	1357.5627	1408.2189	1426.9597	1439.1227	1670.1378	1791.0761	2912.2283	3032.5673	3176.1222	3197.0768	3220.7102	3438.4109	3755.2262
OC1C=CC2NC12C=O	O[C@H]1C=C[C@H]2N[C@@]12C=O	
InChI=1S/C6H7NO2/c8-3-6-4(7-6)1-2-5(6)9/h1-5,7,9H	InChI=1S/C6H7NO2/c8-3-6-4(7-6)1-2-5(6)9/h1-5,7,9H/t4-,5+,6-/m1/s1
