14
gdb 27982	2.70617	1.40441	0.92711	5.6157	68.96	-0.201	-0.0174	0.1836	1157.2986	0.101208	-470.043957	-470.035876	-470.034931	-470.076576	29.955	
O	 0.0832902838	 1.3588903442	-0.1006581963	-0.423642
C	-0.0128733203	 0.0161707308	-0.0188416266	 0.346622
C	-1.0954804578	-0.7690024918	-0.0198172162	-0.198656
N	-0.634125834	-2.1063596263	-0.0056145639	-0.111623
C	-1.4494264333	-3.2241045114	 0.0075534268	 0.164558
O	-2.6559651527	-3.156760043	 0.0006068144	-0.318336
C	 0.7757896967	-2.1365562254	-0.0077241527	 0.464625
N	 1.4680814977	-3.2029214341	-0.0577091173	-0.581693
N	 1.1445944338	-0.7858161453	 0.0580523041	-0.43978
H	 0.6211098483	 1.6906358553	 0.6298276712	 0.309623
H	-2.1458905483	-0.5481522366	 0.0014076608	 0.172281
H	-0.8614867644	-4.1528045749	 0.0270545984	 0.136305
H	 2.4652651143	-3.0082568354	-0.0322119735	 0.217547
H	 2.0214313262	-0.4826627959	-0.3363448493	 0.262167
116.703	179.926	195.8548	221.3264	237.0265	337.108	393.0443	414.0142	450.4672	599.8168	607.1666	656.228	706.9173	717.5758	738.6815	757.0243	899.3794	1008.8174	1040.3739	1068.8024	1161.1746	1193.6967	1253.2107	1278.7573	1301.6455	1407.7143	1419.8337	1441.313	1745.8332	1767.8461	1800.8861	3050.5391	3322.5722	3531.3671	3638.0622	3764.365
OC1=CN(C=O)C(=N)N1	OC1=CN(C=O)[C@H]([NH])N1	
InChI=1S/C4H5N3O2/c5-4-6-3(9)1-7(4)2-8/h1-2,9H,(H2,5,6)	InChI=1S/C4H6N3O2/c5-4-6-3(9)1-7(4)2-8/h1-2,4-6,9H/t4-/m1/s1
