21
gdb 26135	2.44971	1.36099	1.06892	2.117	87.06	-0.1932	0.0511	0.2443	1245.3541	0.182219	-383.297037	-383.287145	-383.286201	-383.332098	36.323	
C	 0.0040800787	 1.4849874388	-0.0286162848	-0.327946
N	-0.0348333336	 0.0325334934	 0.0900496021	-0.149031
C	 0.8153507458	-0.4778436086	 1.1586543216	-0.327945
C	-1.3180742488	-0.5416512678	 0.0176442093	 0.215585
C	-1.8574080676	-1.3550772607	-0.9584481875	 0.23658
C	-1.1510696316	-1.8126593798	-2.1972781613	-0.507981
C	-3.1915532592	-1.6613711064	-0.5534801555	-0.24043
C	-3.4267265473	-1.0331407998	 0.645843544	-0.087237
N	-2.2890621659	-0.3533366981	 0.9923644116	-0.285653
H	 1.0362281996	 1.8115908752	-0.1984797166	 0.116186
H	-0.6031601088	 1.7967499242	-0.8814942707	 0.130774
H	-0.3662501553	 2.0146929991	 0.8694476996	 0.083977
H	 0.52008454	-0.1297638634	 2.166577624	 0.083977
H	 0.7883364488	-1.5699031031	 1.1549145867	 0.130773
H	 1.8489752154	-0.1548111048	 0.9909534585	 0.116184
H	-1.0813364762	-2.9058950482	-2.2469814541	 0.117074
H	-1.668911934	-1.4852098628	-3.106732568	 0.117072
H	-0.1362822787	-1.406911417	-2.2203092173	 0.124638
H	-3.8968400514	-2.2778701058	-1.0908409925	 0.085545
H	-4.3019550823	-1.0138451861	 1.2757089103	 0.111462
H	-2.1717140775	 0.1981125617	 1.8237961707	 0.256396
33.5597	139.9638	145.4226	151.1897	230.6312	232.2915	244.4258	276.2516	365.5489	409.1805	460.3273	477.9642	600.739	642.7454	689.8987	694.6408	742.1908	822.9947	907.1008	950.9641	985.6772	1061.0444	1067.0965	1075.5086	1112.6519	1120.9933	1172.4731	1184.2825	1194.9082	1235.3381	1285.7427	1333.0753	1406.7593	1433.5351	1440.338	1456.1472	1474.5793	1479.824	1492.6654	1494.3772	1495.8575	1500.0842	1511.0282	1521.671	1643.9358	2922.7279	2929.0983	3021.756	3052.4567	3054.765	3067.0373	3114.8016	3118.0511	3120.3881	3236.5429	3262.8325	3686.7486
CN(C)C1=C(C)C=CN1	CN(C)c1c(C)cc[nH]1	
InChI=1S/C7H12N2/c1-6-4-5-8-7(6)9(2)3/h4-5,8H,1-3H3	InChI=1S/C7H12N2/c1-6-4-5-8-7(6)9(2)3/h4-5,8H,1-3H3
