20
gdb 39815	2.7282	1.65636	1.59791	0.4296	78.16	-0.2104	0.0873	0.2978	974.1494	0.173201	-403.088592	-403.081231	-403.080287	-403.119982	30.191	
C	 0.1231914588	 1.3854744761	 0.0616731001	-0.364457
C	 1.3852016468	 0.5418536184	 0.0652159293	-0.359762
C	 0.0432720779	-0.1062952047	 0.0529954532	 0.399207
C	-0.7055950071	-1.0007427268	 1.0407231048	 0.030944
C	-1.7149918586	-1.1479850615	-0.1176276536	-0.187198
N	-0.5798331891	-0.8550900607	-1.0805720374	-0.167644
C	 0.1715248484	-2.1230582475	-1.2360937857	-0.187283
C	 0.7413821758	-2.6418632331	 0.1127891706	-0.072877
O	-0.0370732101	-2.2391642892	 1.243663485	-0.277211
H	-0.1447940249	 1.9150568817	 0.9702110616	 0.114759
H	-0.133832206	 1.8962865094	-0.8598967996	 0.124446
H	 1.9693724007	 0.5115706875	-0.8489256486	 0.121901
H	 1.9722336396	 0.488106694	 0.9764390168	 0.122318
H	-1.0119572463	-0.6326105597	 2.0234766704	 0.075425
H	-2.1853378343	-2.1270003311	-0.2371694427	 0.100614
H	-2.4611578841	-0.3511470443	-0.1691772749	 0.107379
H	-0.5080688574	-2.8501812982	-1.692378477	 0.108762
H	 0.9994248748	-1.9682226521	-1.9367925582	 0.103053
H	 0.7799857837	-3.7353104586	 0.1319595976	 0.105078
H	 1.7672399615	-2.2729203996	 0.2391256982	 0.102548
161.3605	194.1413	212.2678	247.5336	378.0087	422.137	475.7703	517.2307	611.1517	665.1992	765.2374	814.4367	824.6303	838.5711	880.2284	902.2601	904.6618	940.2072	962.6357	983.2172	1008.7629	1049.1164	1057.7986	1077.2079	1110.4714	1129.6193	1146.6045	1182.85	1188.2049	1220.8543	1235.3176	1261.884	1279.8746	1283.9587	1331.7364	1361.1131	1384.7521	1411.446	1453.8024	1484.2442	1496.1858	1506.0298	1516.7194	3014.0131	3036.6415	3056.1846	3069.2934	3076.1389	3087.5087	3122.0342	3126.1113	3129.6338	3206.8879	3222.4431
C1CC11C2CN1CCO2	C1CC21[C@H]1CN2CCO1	
InChI=1S/C7H11NO/c1-2-7(1)6-5-8(7)3-4-9-6/h6H,1-5H2	InChI=1S/C7H11NO/c1-2-7(1)6-5-8(7)3-4-9-6/h6H,1-5H2/t6-/m1/s1
