17
gdb 76864	2.41503	1.91929	1.6484	3.5124	65.77	-0.2434	0.0554	0.2989	894.5374	0.136318	-458.887611	-458.880312	-458.879368	-458.918997	29.596	
O	 0.1194414957	 1.4149383509	-0.1937941644	-0.430608
C	 0.0189994497	 0.0327728514	-0.0229046267	 0.091986
C	 0.3125686129	-0.5960727579	 1.4091915501	 0.091956
O	 0.6640173652	 0.2476075854	 2.464831679	-0.430623
C	-1.1066849534	-1.2503364469	 1.4014576706	-0.110134
C	-2.2578863376	-0.3865710867	 1.9634944416	 0.012948
O	-1.9578648159	 1.0019192886	 1.6934666728	-0.281945
C	-2.5297527685	 0.1967360499	 0.63727793	 0.012801
C	-1.3967003097	-0.6291356185	-0.0119329223	-0.110165
H	-0.4349077592	 1.8252631325	 0.4801285117	 0.289458
H	 0.6645525954	-0.4161071413	-0.7827753982	 0.092313
H	 1.1012578151	-1.3508391007	 1.3464912494	 0.092287
H	-0.0166950302	 0.9281091469	 2.5230410539	 0.289466
H	-1.1980487013	-2.3188401137	 1.5927390433	 0.077274
H	-2.9047539478	-0.570289183	 2.8132616768	 0.117847
H	-3.4414583173	 0.5811419547	 0.1953265687	 0.117847
H	-1.701616093	-1.2406912718	-0.8602610561	 0.077292
125.9292	221.0098	264.66	268.2389	319.7354	404.3627	528.57	578.0514	600.5967	677.6422	680.4226	763.7603	778.2624	807.9648	833.7351	854.4089	888.6163	949.2915	963.0102	970.143	1016.6067	1067.119	1089.9135	1122.814	1169.3332	1190.4163	1194.9541	1217.1379	1229.7933	1248.9814	1258.3637	1289.3294	1314.8806	1326.2631	1378.5187	1427.5688	1461.0021	3063.2215	3079.1104	3118.6462	3128.1285	3182.9195	3197.6803	3787.9355	3797.469
OC1C(O)C2C3OC3C12	O[C@H]1[C@@H](O)[C@H]2[C@H]3O[C@H]3[C@@H]12	
InChI=1S/C6H8O3/c7-3-1-2(4(3)8)6-5(1)9-6/h1-8H	InChI=1S/C6H8O3/c7-3-1-2(4(3)8)6-5(1)9-6/h1-8H/t1-,2+,3-,4+,5+,6-
