20
gdb 86352	2.76298	1.10807	0.96673	4.68	79.24	-0.269	0.0446	0.3135	1295.8226	0.170369	-403.155457	-403.145956	-403.145012	-403.190015	35.161	
C	-0.3003241634	 1.5682947198	-0.0507642032	-0.402959
C	-0.0584036861	 0.0609552011	-0.0280466366	-0.016277
C	 1.1431187906	-0.404203161	-0.9077050694	-0.258733
C	 2.0191573235	-0.5158586644	 0.3718095265	 0.108413
O	 2.7625653875	 0.6571115861	 0.6558877952	-0.430221
C	 0.7150906156	-0.5042491909	 1.2113768208	 0.012078
C	 0.7095796489	 0.2646135649	 2.537821487	-0.365814
C	 1.4621113147	-0.4353126282	 3.577541069	 0.262657
N	 2.0539332506	-1.0106366273	 4.3865671186	-0.31509
H	 0.6288006357	 2.1213230945	 0.1114823169	 0.134316
H	-0.7047293829	 1.8699629936	-1.0230681895	 0.114069
H	-1.0227361825	 1.8752684518	 0.7137603049	 0.111879
H	-0.998216486	-0.4619599298	-0.2279789665	 0.072422
H	 0.97387903	-1.375323112	-1.3807077516	 0.103131
H	 1.4993432907	 0.3024970184	-1.6626469021	 0.096305
H	 2.6495006448	-1.4085307306	 0.4661508504	 0.07677
H	 3.5079695493	 0.6967140159	 0.0486260637	 0.289597
H	 0.401704293	-1.5360507714	 1.393682154	 0.094884
H	 1.1481098032	 1.2564852232	 2.4026865264	 0.167968
H	-0.3196940773	 0.4021860762	 2.8889971657	 0.144603
54.4405	99.4391	128.2707	220.354	245.1668	263.564	278.2459	334.9099	388.1015	399.1881	435.4156	486.2834	575.1702	742.2551	808.1989	816.6159	864.7762	901.1348	930.3681	946.2987	964.5936	1030.6461	1042.5511	1090.5734	1130.8197	1144.6005	1165.2507	1208.8146	1223.7581	1251.12	1275.0354	1277.2693	1305.7801	1334.8565	1368.5952	1384.3981	1408.5126	1419.7683	1458.3891	1471.7439	1497.8349	1511.147	2360.1922	3021.6462	3030.8777	3049.2546	3050.7261	3055.9265	3073.3451	3091.3728	3110.0724	3111.9162	3120.5123	3823.1157
CC1CC(O)C1CC#N	C[C@H]1C[C@@H](O)[C@H]1CC#N	
InChI=1S/C7H11NO/c1-5-4-7(9)6(5)2-3-8/h5-7,9H,2,4H2,1H3	InChI=1S/C7H11NO/c1-5-4-7(9)6(5)2-3-8/h5-7,9H,2,4H2,1H3/t5-,6-,7+/m0/s1
