16
gdb 33422	2.86123	1.04749	0.80778	5.3092	75.15	-0.2793	0.0123	0.2916	1370.3815	0.122001	-400.693633	-400.684435	-400.683491	-400.728664	32.446	
C	-0.0492842591	-1.1947033528	 0.0003939812	-0.410987
C	-0.0424674971	 0.0047159121	-0.0376286464	 0.315932
C	 0.0051743771	 1.4679182214	-0.0591639355	-0.336254
C	 1.4576400646	 1.9886610095	 0.151397084	-0.223292
C	 1.5280323281	 3.4778921111	 0.3828583299	 0.083215
C	 2.6985500463	 4.2646736497	-0.024479975	-0.183144
O	 1.4808490029	 4.3199917545	-0.7670401631	-0.211917
C	-0.5931527831	 1.9826630233	-1.3034516729	 0.311937
N	-1.0786613155	 2.3738446783	-2.2751325607	-0.317549
H	-0.0702281398	-2.2566080157	 0.026279442	 0.21035
H	-0.6110447723	 1.8474954471	 0.7685898673	 0.157512
H	 1.8610144628	 1.465361558	 1.0248196564	 0.128868
H	 2.0667228762	 1.7142681918	-0.7137897669	 0.13655
H	 0.9378897316	 3.8457806559	 1.2255211578	 0.096866
H	 2.9571212216	 5.169598688	 0.5228239974	 0.121892
H	 3.5297243856	 3.7695139778	-0.5249726857	 0.120018
45.6589	78.7789	124.6103	132.3919	203.3755	243.6104	355.8674	375.7063	421.9681	492.1975	575.6955	586.5653	651.4012	669.2707	793.6241	827.5685	873.4568	944.3423	961.0537	1039.1554	1043.6599	1101.0321	1110.4298	1162.2504	1169.1486	1224.0086	1277.4377	1296.4376	1332.2495	1349.521	1447.4387	1468.0118	1530.6525	2248.9847	2368.6425	3010.7468	3055.808	3081.2402	3086.9842	3115.4365	3173.7484	3502.0513
C#CC(CC1CO1)C#N	C#C[C@@H](C[C@H]1CO1)C#N	
InChI=1S/C7H7NO/c1-2-6(4-8)3-7-5-9-7/h1,6-7H,3,5H2	InChI=1S/C7H7NO/c1-2-6(4-8)3-7-5-9-7/h1,6-7H,3,5H2/t6-,7-/m0/s1
