21
gdb 37521	3.44134	1.85741	1.61667	0.1066	84.16	-0.2602	0.0915	0.3517	919.7175	0.187953	-349.943245	-349.937179	-349.936235	-349.973274	27.148	
C	-0.0680091539	 1.6110479541	-0.0606445373	-0.24835
C	 1.4635891223	 1.5173006952	 0.0136991611	-0.036826
C	 1.3483604723	 0.1996473342	 0.8446234946	-0.035845
C	 2.4726895842	-0.4618174792	 0.0210676593	-0.003593
C	 2.2343321059	-1.9103027379	-0.4133240686	-0.236004
C	 1.0689499013	-1.7805730475	-1.4378107805	-0.234488
C	 0.6526863336	-0.3028862421	-1.3606770583	 0.015392
C	 0.008074227	 0.064154426	-0.0056533718	-0.038618
C	 1.9580847261	 0.5053171735	-1.0904494352	-0.064902
H	-0.4841453296	 2.0430927667	 0.8549042238	 0.09156
H	-0.5417061882	 2.0714946577	-0.9348882761	 0.084207
H	 2.1167873324	 2.3471499782	 0.281580062	 0.059079
H	 1.2768776323	 0.1650927188	 1.9317935904	 0.05693
H	 3.4669014994	-0.23798201	 0.4145159755	 0.057179
H	 3.126245303	-2.3460244549	-0.8750049627	 0.093132
H	 1.9740274342	-2.5467944423	 0.4390952215	 0.094709
H	 1.4136697669	-2.0239118987	-2.448733517	 0.092374
H	 0.2310780437	-2.4504369336	-1.2188723046	 0.091882
H	 0.058983298	 0.0274399536	-2.2171425402	 0.054523
H	-0.8345754016	-0.5415835418	 0.3309828452	 0.053869
H	 2.5709133706	 0.8062745399	-1.9402660412	 0.05379
177.4515	314.6735	370.7867	428.0551	596.7634	614.8696	741.5305	750.884	787.3136	800.5133	832.0994	842.5618	859.0245	880.7233	900.0312	929.9469	939.691	952.8764	976.5372	1001.1094	1011.9696	1025.6331	1053.46	1065.9949	1078.023	1085.561	1144.1376	1160.4789	1169.1274	1178.8608	1209.1701	1231.7427	1234.9263	1242.6524	1262.9609	1274.5478	1284.2431	1299.5869	1310.3855	1325.4239	1342.0149	1370.0405	1486.4866	1493.4925	1506.486	3032.7122	3034.3101	3044.5151	3066.1059	3071.6981	3084.9672	3088.7532	3089.9398	3099.074	3108.8743	3111.4936	3124.3398
C1C2C3C4CCC(C13)C24	C1[C@H]2[C@@H]3[C@H]4CC[C@@H]([C@H]13)[C@@H]24	
InChI=1S/C9H12/c1-2-5-8-4(1)6-3-7(8)9(5)6/h4-9H,1-3H2	InChI=1S/C9H12/c1-2-5-8-4(1)6-3-7(8)9(5)6/h4-9H,1-3H2/t4-,5-,6-,7+,8+,9+/m0/s1
