19
gdb 33079	4.55891	0.80492	0.71679	1.545	79.15	-0.2025	0.0341	0.2366	1607.9697	0.160051	-419.255897	-419.246746	-419.245801	-419.29036	33.712	
C	-0.032666938	 1.5718987199	 0.00598786	-0.381453
C	-0.1155695721	 0.0483177016	-0.1060362841	-0.152889
C	 0.7868218067	-0.516732622	-1.217858897	-0.30572
C	 0.7566965759	-2.0075603656	-1.2923058189	 0.268846
C	 0.3202883056	-2.8128983409	-2.284420299	-0.150308
O	 0.4867130085	-4.1287911012	-1.8758426437	-0.183598
C	 1.0226960815	-4.0149452258	-0.643239898	 0.452055
N	 1.2381884957	-5.1833953823	 0.0443000289	-0.588929
N	 1.2154599471	-2.8005098761	-0.2317061928	-0.38209
H	 0.9895716484	 1.8977134566	 0.2292968439	 0.113777
H	-0.3364028261	 2.0582651457	-0.9282008921	 0.110142
H	-0.6825529709	 1.9479003114	 0.8023276838	 0.111057
H	 0.1705245215	-0.4166035572	 0.8435727139	 0.119441
H	-1.1512884119	-0.2573699384	-0.2990105043	 0.09524
H	 0.489706524	-0.0999775507	-2.187599755	 0.096684
H	 1.8192207332	-0.1889254827	-1.0365824866	 0.10967
H	-0.0949638658	-2.6693769724	-3.2659067856	 0.134984
H	 1.4510271659	-5.9815977442	-0.5359050734	 0.263267
H	 1.8729276609	-5.0685640755	 0.8203520501	 0.269825
63.807	87.9779	101.8392	240.8014	245.3264	281.809	308.2236	327.4677	394.2226	455.6635	595.316	648.0145	676.1203	710.1601	749.2301	770.4774	794.1559	875.7104	898.818	969.7826	1005.7962	1045.8966	1085.6435	1111.2032	1113.7203	1142.7614	1227.6588	1253.8613	1303.4342	1315.4503	1333.0412	1385.8601	1411.1642	1446.6556	1474.7665	1493.3351	1498.7128	1510.3464	1603.8571	1644.6842	1684.1699	3015.4764	3026.6425	3034.4357	3055.677	3074.747	3098.0649	3101.022	3300.3387	3576.1815	3684.8906
CCCC1=COC(N)=N1	CCCc1coc(N)n1	
InChI=1S/C6H10N2O/c1-2-3-5-4-9-6(7)8-5/h4H,2-3H2,1H3,(H2,7,8)	InChI=1S/C6H10N2O/c1-2-3-5-4-9-6(7)8-5/h4H,2-3H2,1H3,(H2,7,8)
