18
gdb 105661	2.02006	1.35786	1.20424	3.7845	72.13	-0.2734	0.0216	0.295	1151.8878	0.14697	-439.080031	-439.070741	-439.069797	-439.114055	34.208	
O	 0.0999890618	 1.2475934412	-0.5263031953	-0.418832
C	-0.0535689581	-0.1252543647	-0.2407156528	-0.111552
C	-1.5175454259	-0.5069091118	 0.0585720174	 0.079872
C	-2.4385569616	-0.4015784188	-1.2004927828	-0.25716
C	-2.2515268345	-1.9228211259	-1.4436747436	-0.280082
C	-1.774576167	-2.068277218	 0.0223471425	 0.118413
O	-0.7424991503	-2.9484413149	 0.3573966954	-0.416758
C	-1.9605508887	 0.2022556567	 1.2495492705	 0.215565
N	-2.295650972	 0.7842308168	 2.1921818887	-0.348257
H	-0.1068900207	 1.7443620698	 0.2739542447	 0.300189
H	 0.2791624425	-0.6530504971	-1.1411109855	 0.102041
H	 0.5815896835	-0.4502034392	 0.5944844251	 0.120707
H	-3.4649964317	-0.143642309	-0.9358708644	 0.128491
H	-2.0832536738	 0.2882581452	-1.9665624392	 0.134475
H	-3.1241328909	-2.5057895549	-1.7416244556	 0.119583
H	-1.4414891728	-2.1288098498	-2.1514194377	 0.105978
H	-2.6073762616	-2.3101876998	 0.6871061172	 0.118298
H	-0.076358738	-2.9288433958	-0.3372196846	 0.289029
95.2638	108.9224	145.491	171.6094	194.3145	289.6902	314.9313	343.4064	389.8978	431.0982	504.5188	540.2665	595.8511	626.3494	715.7045	798.3161	890.7477	918.9996	952.0944	968.8687	1019.9332	1073.7133	1089.8532	1129.6508	1145.6603	1167.554	1217.0527	1245.0632	1252.1847	1267.8812	1309.199	1335.1585	1381.0648	1425.2621	1434.251	1483.1883	1496.0769	1507.3327	2339.2694	3012.8747	3051.707	3072.7663	3085.8943	3088.7043	3123.1212	3146.3338	3796.397	3818.7817
OCC1(CCC1O)C#N	OC[C@]1(CC[C@H]1O)C#N	
InChI=1S/C6H9NO2/c7-3-6(4-8)2-1-5(6)9/h5,8-9H,1-2,4H2	InChI=1S/C6H9NO2/c7-3-6(4-8)2-1-5(6)9/h5,8-9H,1-2,4H2/t5-,6+/m1/s1
