15
gdb 45183	2.91652	1.91971	1.66017	2.8997	63.01	-0.2415	-0.0318	0.2097	839.9412	0.114042	-457.734196	-457.728036	-457.727092	-457.764734	25.064	
O	 0.0300603917	-0.0008830795	-0.0245421895	-0.314922
C	 0.0028249924	 1.2005224843	 0.0118846567	 0.450344
C	-1.2682099452	 2.0600283613	 0.0626623137	-0.331305
C	-0.8732068048	 3.364773736	 0.7513464008	 0.040966
O	-0.1108525335	 3.0106787694	 1.9523520413	-0.300777
C	 1.0942593139	 3.1526586028	 1.2010318168	 0.070232
C	 0.4298431438	 3.9691535987	 0.0962719988	 0.069988
O	 0.9522056309	 3.1579507337	-0.9583518976	-0.298198
C	 1.2329061923	 2.1050830999	 0.0187669382	-0.075697
H	-1.6327376212	 2.2375762465	-0.9553253341	 0.142749
H	-2.0422108516	 1.5277584989	 0.6203723399	 0.139312
H	-1.7042472203	 4.0328954243	 0.982110057	 0.096437
H	 1.9755291236	 3.3906063691	 1.7958033157	 0.106892
H	 0.4870466448	 5.0422017046	-0.084604102	 0.101175
H	 2.1750213533	 1.58878489	-0.1640815857	 0.102804
109.752	317.4764	372.8779	414.1819	455.0493	534.3143	610.2319	665.4568	746.0361	763.1424	811.2873	818.811	851.3698	892.2506	946.1088	966.682	1001.5984	1033.9419	1041.2972	1070.1726	1102.3245	1149.7963	1186.1558	1200.0169	1232.8833	1246.2358	1275.2196	1284.0936	1325.6751	1342.3055	1349.8296	1434.9817	1851.33	3057.2878	3102.7543	3117.4577	3120.0452	3124.6821	3133.6588
O=C1CC2OC3C2OC13	O=C1C[C@H]2O[C@@H]3[C@H]2O[C@H]13	
InChI=1S/C6H6O3/c7-2-1-3-5-6(8-3)4(2)9-5/h3-6H,1H2	InChI=1S/C6H6O3/c7-2-1-3-5-6(8-3)4(2)9-5/h3-6H,1H2/t3-,4-,5+,6+/m1/s1
