21
gdb 41472	3.09307	1.58575	1.31093	1.463	81.3	-0.2454	0.0839	0.3293	1044.8333	0.185288	-387.071326	-387.063959	-387.063015	-387.103059	30.021	
C	 0.259101764	 1.6316748485	 0.4770310674	-0.224653
C	 1.6233954674	 1.5510312617	-0.2782779438	-0.319968
C	 1.3252923893	 0.0812999429	-0.6161559585	 0.374414
C	 1.6938223586	-0.6074019287	-1.9145415516	-0.19459
O	 1.5588847352	-2.0022086169	-1.6560222036	-0.253462
C	 2.0436669334	-2.2174476619	-0.3318463298	-0.094908
C	 1.5945896893	-1.0043238442	 0.4874766548	-0.080911
C	 0.0930604872	-0.9562141138	 0.9022836104	-0.241853
C	-0.1379471667	 0.2246505085	-0.0663526245	-0.057146
H	 0.3485549194	 1.6703875525	 1.5666643049	 0.098145
H	-0.3911993697	 2.4504117977	 0.1617995629	 0.101526
H	 1.6349702158	 2.1852645628	-1.1708635974	 0.100203
H	 2.5330460768	 1.7546495475	 0.2951563112	 0.094247
H	 1.0379315061	-0.3607861952	-2.7551657762	 0.105394
H	 2.7318763746	-0.3581098744	-2.2006300022	 0.082352
H	 1.63460284	-3.1699596603	 0.0186351639	 0.105764
H	 3.1440707541	-2.2908214	-0.3341796431	 0.084554
H	 2.3093271512	-0.7416544141	 1.2709384704	 0.064842
H	-0.4456490987	-1.8612223502	 0.6048817543	 0.10293
H	-0.1129077473	-0.761940384	 1.9594007288	 0.091617
H	-1.01581845	 0.1922837316	-0.7146992384	 0.061502
88.33	199.5969	212.8057	317.6	347.1982	395.7721	450.0166	610.8462	676.534	706.7318	761.5519	795.1993	841.6316	849.3725	880.093	908.5688	936.9439	943.6188	969.4927	1016.1885	1025.307	1039.0601	1080.6986	1124.9156	1128.5805	1135.9913	1164.6458	1199.0578	1214.0562	1218.9001	1232.7822	1244.8895	1260.7739	1271.2589	1289.6401	1297.0932	1311.2192	1332.557	1356.9722	1396.0557	1472.9022	1478.6649	1493.6618	1497.1149	1508.969	2939.7352	2963.7698	3038.9595	3041.1033	3055.3888	3074.6394	3076.3145	3079.9394	3081.8024	3086.9036	3096.1518	3113.5764
C1CC23COCC2CC13	C1C[C@@]23COC[C@@H]2C[C@@H]13	
InChI=1S/C8H12O/c1-2-8-5-9-4-7(8)3-6(1)8/h6-7H,1-5H2	InChI=1S/C8H12O/c1-2-8-5-9-4-7(8)3-6(1)8/h6-7H,1-5H2/t6-,7+,8+/m1/s1
