21
gdb 68852	2.3867	1.77272	1.37685	1.2841	81.47	-0.2424	0.0801	0.3225	1041.7245	0.183	-387.081609	-387.07324	-387.072296	-387.113745	34.095	
C	-0.0377390712	 1.5114553747	-0.0273651743	-0.474943
C	-0.01443296	 0.0021265531	 0.0113452948	 0.29945
C	 1.2076814116	-0.7476609447	-0.499708061	-0.40475
C	 0.8690173144	-0.76453516	 0.9736594968	 0.369449
O	 1.6767813125	-0.0447396153	 1.858611284	-0.47444
C	 0.1343340833	-1.9962654849	 1.5096187223	-0.310656
C	-1.219940196	-1.9808695655	 0.799905088	-0.019711
C	-2.1534278195	-0.841697114	 1.1337089483	-0.300455
C	-1.3019768048	-0.7694717271	-0.1086739843	-0.097416
H	 0.9308089103	 1.9208532515	 0.2711444482	 0.125259
H	-0.2733510161	 1.8794072277	-1.0324728709	 0.109736
H	-0.7945421036	 1.9076387698	 0.6584633643	 0.116089
H	 1.0696276407	-1.650141668	-1.0881019011	 0.103165
H	 2.0601354433	-0.1393441063	-0.7852325732	 0.105235
H	 2.5317607211	-0.4849857232	 1.9088890174	 0.281569
H	 0.6835706791	-2.9231782718	 1.3023004234	 0.089604
H	 0.0343110927	-1.9130929689	 2.5979938449	 0.103641
H	-1.6585127115	-2.9247400185	 0.4968877179	 0.079458
H	-3.2176242351	-1.0104758497	 1.0095077569	 0.106964
H	-1.895923663	-0.1985558382	 1.9704325374	 0.114693
H	-1.7853360385	-0.8341914304	-1.0792862996	 0.078058
148.505	195.9749	204.7265	225.7383	277.0207	350.112	380.7364	429.0572	450.5203	495.3612	539.1804	635.7115	705.6151	740.6141	798.4018	826.4219	882.1466	909.792	923.6532	941.6672	963.0502	997.9186	1012.2424	1035.2566	1050.9206	1067.5037	1101.1291	1113.2246	1133.2897	1154.4263	1187.3699	1202.2648	1258.9231	1260.5099	1295.0195	1325.3737	1364.1532	1386.6495	1401.2325	1414.4108	1474.8243	1488.3052	1490.4546	1497.9145	1504.5508	3020.4115	3028.8558	3061.2291	3086.9065	3114.9864	3117.6412	3121.4061	3145.0378	3171.65	3206.8347	3209.4799	3801.2319
CC12CC1(O)CC1CC21	C[C@@]12C[C@]1(O)C[C@H]1C[C@@H]21	
InChI=1S/C8H12O/c1-7-4-8(7,9)3-5-2-6(5)7/h5-6,9H,2-4H2,1H3	InChI=1S/C8H12O/c1-7-4-8(7,9)3-5-2-6(5)7/h5-6,9H,2-4H2,1H3/t5-,6-,7+,8-/m1/s1
