19
gdb 92470	2.59244	1.68758	1.66309	1.0461	73.78	-0.2399	0.0064	0.2462	940.6144	0.162258	-423.030122	-423.022857	-423.021913	-423.061549	29.849	
O	 0.079143405	 1.4173226817	-0.1293673912	-0.451084
C	 0.0363796471	 0.0022599727	-0.0232579132	 0.159411
C	 0.7769192552	-0.5455188957	 1.2307644552	-0.252808
C	-0.2156217196	-1.4047576104	 2.0371043691	 0.05953
O	-1.3043146678	-0.5427287152	 2.4408103136	-0.280317
C	-2.067315611	-0.0711038224	 1.3321049485	-0.076002
C	-1.4256000493	-0.5404449166	 0.0080483505	-0.107584
C	-1.3716558696	-2.0464056232	 0.0675643052	-0.087737
C	-0.7382069344	-2.5088933838	 1.1466435636	-0.070357
H	-0.129305784	 1.7928582958	 0.7323100008	 0.283808
H	 0.5150485698	-0.3549754695	-0.9382748196	 0.089588
H	 1.6610840478	-1.1278334515	 0.9565647453	 0.105185
H	 1.1161887876	 0.2931324128	 1.8481828375	 0.098149
H	 0.2216230469	-1.7707850125	 2.967182699	 0.075967
H	-3.0968608044	-0.4440955376	 1.4107090892	 0.097439
H	-2.1072498842	 1.0260684013	 1.3736205339	 0.088907
H	-1.9835239515	-0.1541928843	-0.8468736431	 0.073747
H	-1.8394436792	-2.6678631218	-0.6878348817	 0.096575
H	-0.6099869045	-3.5559622898	 1.3955698073	 0.097586
90.9489	254.3966	305.1515	333.4939	364.2347	384.1481	450.0263	504.3269	614.4675	643.8087	672.3369	722.3465	800.348	838.3661	866.1513	905.7544	949.3965	967.1848	990.6129	1004.4074	1027.9958	1033.731	1062.6199	1084.9226	1103.0717	1144.2814	1172.4366	1208.8856	1237.5299	1279.9567	1301.3023	1311.1215	1338.7785	1341.9132	1359.245	1386.9925	1398.7079	1432.0631	1482.2129	1527.3408	1679.9409	3000.7456	3031.6506	3045.4548	3072.8101	3095.1061	3097.7816	3102.5691	3180.4064	3204.7506	3814.6158
OC1CC2OCC1C=C2	O[C@H]1C[C@H]2OC[C@@H]1C=C2	
InChI=1S/C7H10O2/c8-7-3-6-2-1-5(7)4-9-6/h1-2,5-8H,3-4H2	InChI=1S/C7H10O2/c8-7-3-6-2-1-5(7)4-9-6/h1-2,5-8H,3-4H2/t5-,6-,7-/m0/s1
