12
gdb 130780	2.53959	1.83853	1.16726	5.6691	66.08	-0.2734	-0.115	0.1584	968.9693	0.076277	-472.601837	-472.594464	-472.59352	-472.634637	26.272	
O	 0.1455099453	-0.1106681065	 0.2074669858	-0.260301
C	 0.0406088726	 1.0450892449	-0.0633675471	 0.350462
O	-1.1677396994	 1.4793517468	-0.5663246177	-0.246091
N	-1.6263599382	 2.7934346221	-0.731255559	-0.062189
C	-0.8512189662	 3.6853815443	-1.2290426354	 0.048021
C	 0.5555307983	 3.6814287403	-1.5990489295	-0.080814
C	 1.512176226	 2.9441298906	-1.0176959611	-0.167516
C	 1.256130416	 1.9896381683	 0.0766451854	 0.241065
O	 2.0223528578	 1.8191316835	 0.9918697054	-0.266074
H	-1.3862657121	 4.620821663	-1.3894808586	 0.152511
H	 0.8390171561	 4.4331703563	-2.3303358375	 0.138896
H	 2.5572827339	 3.0828291662	-1.2764448907	 0.152029
52.4773	79.8595	247.46	311.9964	325.9218	404.1575	431.8589	542.278	579.5307	653.8341	718.5811	759.1682	853.8087	887.4996	928.9017	951.3076	986.655	1021.2975	1040.9245	1177.2079	1256.6156	1364.842	1415.86	1645.9222	1683.9045	1795.2762	1850.0956	3145.4832	3173.7129	3195.1721
O=C1ON=CC=CC1=O	O=c1oncccc1=O	
InChI=1S/C5H3NO3/c7-4-2-1-3-6-9-5(4)8/h1-3H	InChI=1S/C5H3NO3/c7-4-2-1-3-6-9-5(4)8/h1-3H
