18
gdb 123749	4.9384	1.056	1.00879	0.6334	78.77	-0.2532	-0.0009	0.2523	1225.3611	0.151111	-398.127197	-398.119788	-398.118843	-398.160057	27.857	
C	-0.0622191047	 1.5333728759	-0.0310474257	-0.21487
C	 1.4912027001	 1.5156951087	-0.0601159555	-0.239724
C	 1.4326328929	 0.095039482	 0.5573934543	 0.104774
C	-0.0390437307	-0.0160395372	 0.0832314516	-0.239725
N	 2.3841450222	-0.8981553028	 0.1025203759	 0.11585
N	 2.5510290546	-1.1856026524	-1.183530916	-0.232054
C	 3.4958462345	-2.1281609544	-1.17692794	-0.056768
C	 3.8684825344	-2.3761702929	 0.1499572144	-0.066983
N	 3.1492639933	-1.5835222062	 0.9476436372	-0.221983
H	-0.4494866941	 2.0051512706	 0.8759801361	 0.107499
H	-0.5733078635	 1.9632273183	-0.8937432876	 0.107614
H	 1.8728833105	 1.4650257398	-1.082066525	 0.132375
H	 2.0358098016	 2.2818604669	 0.4953997252	 0.105843
H	 1.5231167669	 0.1062632181	 1.6432012144	 0.111818
H	-0.7472014975	-0.5038588589	 0.7560974831	 0.105841
H	-0.0817776474	-0.4915356988	-0.8989636696	 0.132387
H	 3.8492101452	-2.5670383943	-2.096337545	 0.123703
H	 4.5939257117	-3.0625907325	 0.5561785523	 0.124402
46.8581	121.0933	132.1575	258.1647	385.9791	406.509	570.791	680.5099	704.3004	736.1124	786.0819	846.2019	876.4895	893.3322	921.1447	928.6854	949.5012	980.5818	991.8574	1032.4316	1051.4337	1101.6507	1119.0029	1192.6154	1202.1471	1245.7262	1253.2693	1257.8664	1267.9019	1288.9206	1293.4242	1301.0114	1389.2497	1419.99	1446.9215	1472.7493	1487.4308	1502.5724	1513.4904	3067.676	3071.7864	3076.0795	3113.9141	3124.9914	3132.1972	3144.9431	3262.1124	3280.0095
C1CC(C1)N1N=CC=N1	C1CC(C1)n1nccn1	
InChI=1S/C6H9N3/c1-2-6(3-1)9-7-4-5-8-9/h4-6H,1-3H2	InChI=1S/C6H9N3/c1-2-6(3-1)9-7-4-5-8-9/h4-6H,1-3H2
