23
gdb 41951	2.14462	1.91456	1.59341	1.1994	83.66	-0.238	0.0722	0.3102	1015.1146	0.211413	-388.321654	-388.314411	-388.313466	-388.352747	30.932	
C	-0.0093583599	 1.5188037708	-0.2086030499	-0.18471
C	 1.4026230343	 2.1048846884	-0.0120959165	-0.19908
C	 2.1185671012	 1.5654086166	 1.2442151569	-0.001236
C	 1.4363264574	 1.9697291087	 2.561314224	-0.075982
O	 0.1327391909	 1.4245030368	 2.7030963725	-0.246743
C	 0.0942815373	 0.0118029706	 2.5634057042	-0.075982
C	 0.716149955	-0.4805829279	 1.2463972224	-0.001237
C	-0.0465049811	-0.0092378174	-0.0098354456	-0.19908
C	 2.1665184597	 0.0288406584	 1.1856671793	-0.222095
H	-0.6938653293	 1.9887587977	 0.5010439145	 0.119008
H	-0.3723450235	 1.7665387807	-1.213081079	 0.081068
H	 2.0248606132	 1.8577341881	-0.8830572721	 0.087657
H	 1.3475736262	 3.199708229	 0.025618196	 0.087572
H	 3.1372510472	 1.9731202723	 1.2703823768	 0.061718
H	 2.0708462307	 1.6510415588	 3.4077186415	 0.080234
H	 1.3120868744	 3.0557157124	 2.6273430691	 0.100482
H	 0.6212343516	-0.4638210048	 3.4099754401	 0.080234
H	-0.9633444716	-0.2639394497	 2.6308952593	 0.100481
H	 0.7033454815	-1.5777131767	 1.2741605814	 0.061718
H	-1.0874500314	-0.3527272677	 0.0294245059	 0.087572
H	 0.4075665519	-0.5017117049	-0.8805387145	 0.087657
H	 2.6583778813	-0.3092806379	 0.2657727754	 0.086953
H	 2.7477382332	-0.3686584322	 2.0273346583	 0.083791
173.2361	258.8924	269.6841	344.0605	388.6545	393.963	410.3784	484.862	541.321	668.0891	750.6648	781.0106	791.0011	849.606	873.2241	874.4651	916.3241	937.9396	975.0753	983.2545	1012.4122	1041.0971	1056.0233	1089.7353	1100.298	1130.2051	1130.7882	1147.1135	1197.506	1228.6789	1276.7838	1277.6317	1299.9843	1318.8256	1347.3652	1353.4259	1365.6409	1367.3064	1376.4115	1392.4558	1402.8488	1407.8492	1424.6564	1481.3938	1483.8161	1491.7325	1496.9577	1506.9864	1513.4561	2942.8754	2948.4545	3006.6933	3007.2985	3012.7171	3024.6427	3030.915	3038.4911	3048.4707	3049.386	3057.8431	3068.5239	3071.2644	3106.7589
C1CC2COCC(C1)C2	C1C[C@H]2COC[C@@H](C1)C2	
InChI=1S/C8H14O/c1-2-7-4-8(3-1)6-9-5-7/h7-8H,1-6H2	InChI=1S/C8H14O/c1-2-7-4-8(3-1)6-9-5-7/h7-8H,1-6H2/t7-,8+
