15
gdb 131796	6.57628	0.77871	0.70232	3.0168	65.05	-0.2533	-0.0081	0.2452	1512.1832	0.111561	-491.066279	-491.057746	-491.056801	-491.100719	29.87	
O	-0.2399483246	 1.4709020093	 0.0123018972	-0.417956
C	 0.0153186662	 0.0779627263	 0.0032013784	-0.079225
C	-1.3519683312	-0.6009093294	 0.0113422729	-0.310408
C	-1.2724876617	-2.0824764675	 0.0029834466	 0.436274
N	-0.2094829907	-2.7961744503	-0.0086025414	-0.183384
O	-0.6858225502	-4.1389320751	-0.0120647277	-0.245893
C	-2.050506051	-4.1156902489	-0.0017921186	 0.50442
N	-2.8721643505	-5.0606165686	-0.0006499194	-0.576488
O	-2.4284652968	-2.7932660444	 0.0078512262	-0.207158
H	 0.6035150132	 1.9325173177	 0.0090196939	 0.294298
H	 0.5782667505	-0.2314683475	-0.8887538382	 0.114146
H	 0.5932502585	-0.2403146344	 0.8823591999	 0.114174
H	-1.9184772933	-0.2822205887	 0.8942638532	 0.155408
H	-1.9333928695	-0.2731609033	-0.8584653997	 0.155416
H	-2.395221359	-5.9586011151	-0.0088867233	 0.246378
41.2943	81.4562	127.2223	173.0387	248.0993	302.8106	332.4629	360.7701	509.1811	631.0053	725.6883	730.12	784.4236	784.6913	802.2948	909.2162	942.6137	979.6936	1032.5499	1057.8177	1085.4746	1096.8031	1218.8207	1228.5304	1252.8145	1293.5011	1300.8969	1410.2099	1470.506	1473.9962	1527.8263	1697.9167	1816.0531	2997.4225	3028.4983	3046.4913	3083.5551	3546.9319	3837.1241
OCCC1=NOC(=N)O1	OCCC1=NO[C@H]([NH])O1	
InChI=1S/C4H6N2O3/c5-4-8-3(1-2-7)6-9-4/h5,7H,1-2H2	InChI=1S/C4H7N2O3/c5-4-8-3(1-2-7)6-9-4/h4-5,7H,1-2H2/t4-/m1/s1
