25
gdb 114658	3.14591	1.08009	0.98944	0.098	92.53	-0.2783	0.0932	0.3715	1384.4082	0.230888	-352.356782	-352.347758	-352.346814	-352.390133	36.061	
C	 0.1423825444	 1.5994522977	-0.2559596944	-0.38085
C	 0.2198777268	 0.0703187386	-0.184683898	-0.203694
C	-1.1430323788	-0.5927069841	 0.031514911	 0.061479
C	-2.156766913	-0.4836187909	-1.1677111005	-0.237073
C	-2.4876277061	-1.9781004996	-1.3564475732	-0.018325
C	-2.6526161585	-2.4524552121	 0.1160681359	-0.24364
C	-1.1307897769	-2.1340947719	 0.1723602725	-0.039328
C	-1.0612060984	-2.6156798045	-1.3159835059	 0.060254
C	-0.9393406197	-4.113889217	-1.5705764679	-0.435513
H	 1.1329622756	 2.0421050543	-0.4001650986	 0.109065
H	-0.4924593734	 1.9304057046	-1.0848489878	 0.117093
H	-0.2775842396	 2.0161912697	 0.6665444907	 0.111747
H	 0.6850104551	-0.3122222345	-1.101748218	 0.094513
H	 0.887918637	-0.2180687314	 0.6379879753	 0.0895
H	-1.5857232463	-0.1541333319	 0.9351159142	 0.059995
H	-3.0386495031	 0.1161322569	-0.9244384986	 0.090223
H	-1.6944643403	-0.0506651762	-2.0615127678	 0.091023
H	-3.209554226	-2.2378038238	-2.133038248	 0.05021
H	-3.3148868616	-1.8726359732	 0.7669885274	 0.082797
H	-2.8862360878	-3.512666072	 0.2122862415	 0.095247
H	-0.48031159	-2.5550761648	 0.9421378494	 0.047954
H	-0.3195995054	-2.099050752	-1.9358884399	 0.056098
H	-1.6424118545	-4.711708316	-0.9842076118	 0.115984
H	-1.1176056327	-4.3402417214	-2.6279114933	 0.112356
H	 0.0702560531	-4.4639238744	-1.3274242741	 0.112884
95.3414	137.3503	185.364	204.1534	258.1644	275.0273	284.7121	372.5003	437.3952	469.9889	536.1119	645.8945	768.1094	778.9784	827.9269	832.4208	840.0552	870.9966	929.7779	944.9715	962.8902	972.6909	998.3513	1029.4258	1041.3067	1052.6844	1074.6874	1084.6644	1105.432	1107.8863	1137.9068	1166.7775	1202.7323	1221.673	1237.21	1256.8434	1270.2833	1276.6256	1292.1513	1311.5814	1316.114	1354.8064	1391.7234	1401.5663	1410.3885	1416.0083	1485.3855	1493.2814	1497.7094	1499.2792	1503.4908	1507.9697	1518.9084	3010.4794	3014.9287	3027.6122	3029.5031	3032.4769	3041.4819	3052.0005	3052.4916	3085.8151	3085.9211	3088.1785	3095.1979	3096.3473	3101.0575	3106.455	3132.6129
CCC1CC2CC1C2C	CC[C@H]1C[C@@H]2C[C@H]1[C@H]2C	
InChI=1S/C9H16/c1-3-7-4-8-5-9(7)6(8)2/h6-9H,3-5H2,1-2H3	InChI=1S/C9H16/c1-3-7-4-8-5-9(7)6(8)2/h6-9H,3-5H2,1-2H3/t6-,7-,8+,9-/m0/s1
