18
gdb 93112	2.52548	1.67763	1.36182	1.5962	72.15	-0.2481	0.0176	0.2657	1007.1921	0.148275	-439.078069	-439.069943	-439.068998	-439.110761	31.153	
O	 0.0400750164	 1.4040679296	-0.1019289667	-0.437547
C	 0.0214826073	-0.0136854464	-0.0035449817	 0.014481
C	 0.6871492705	-0.5084270072	 1.2857427653	-0.185406
N	-0.1503071955	-0.297589132	 2.4676804702	-0.271521
C	-1.3999531574	-0.2071184823	 2.2975569119	 0.097193
O	-2.120801848	-0.2701340961	 1.1487563802	-0.267965
C	-1.3885231994	-0.5620633504	-0.0389350062	 0.460475
C	-2.2146202609	-0.5625645251	-1.2779159658	-0.333353
C	-1.7071465734	-1.8726588581	-0.7018503044	-0.326737
H	-0.2986007075	 1.7650870049	 0.7250022275	 0.291416
H	 0.5677154943	-0.3747024231	-0.8805785772	 0.091251
H	 0.9245896473	-1.5769604811	 1.2045508633	 0.116429
H	 1.6344560404	 0.0198924574	 1.4334758478	 0.117836
H	-2.0689901996	-0.0339419139	 3.138446222	 0.127382
H	-3.2700593569	-0.3459121154	-1.1600309598	 0.129842
H	-1.7646956889	-0.1738986935	-2.1844221835	 0.12967
H	-0.9079126261	-2.3975500901	-1.2151536203	 0.119289
H	-2.4289921527	-2.5103812774	-0.2050923925	 0.127263
80.625	120.6173	206.2813	252.4377	279.1518	335.6148	388.1383	446.7345	494.3671	558.7993	633.8574	735.3093	762.2552	851.4566	878.4176	903.1152	926.5363	946.5427	965.0738	982.9406	1027.2499	1035.4802	1057.3465	1078.6757	1106.5069	1175.454	1186.1304	1224.188	1249.7419	1285.0794	1293.8436	1364.0492	1390.6944	1410.8562	1427.4411	1454.4483	1475.8536	1499.8167	1727.0156	3025.8552	3067.5724	3074.7738	3133.5379	3142.5019	3161.0247	3221.6994	3236.1035	3803.8796
OC1CN=COC11CC1	O[C@H]1CN=COC21CC2	
InChI=1S/C6H9NO2/c8-5-3-7-4-9-6(5)1-2-6/h4-5,8H,1-3H2	InChI=1S/C6H9NO2/c8-5-3-7-4-9-6(5)1-2-6/h4-5,8H,1-3H2/t5-/m0/s1
