18
gdb 70488	2.68225	1.53106	1.18641	4.1487	72.39	-0.2369	0.0159	0.2528	1068.2494	0.147971	-439.080246	-439.071999	-439.071055	-439.113135	31.734	
O	 0.3290583129	 1.2064548227	 0.7479972894	-0.478259
C	 0.1183980467	-0.0998107901	 0.3853310776	 0.450763
C	 0.0582063278	-0.568007438	-1.043252439	-0.33836
C	-1.1410161928	-0.7748647997	-0.1431695238	-0.120633
C	-0.8714378879	-2.005677222	 0.7353799286	-0.274473
C	 0.3588196357	-1.2625672119	 1.3451863246	-0.036109
N	 1.6625173342	-1.9102987883	 1.2898370235	-0.28606
C	 2.8158409497	-1.2055724618	 1.2834994571	 0.16074
O	 2.8972791234	 0.0118127489	 1.2544059712	-0.340994
H	 1.2832419232	 1.2543646819	 0.9283736904	 0.299782
H	-0.0342622208	 0.2536116349	-1.7453996979	 0.121016
H	 0.6299653486	-1.4199350275	-1.4069377798	 0.095791
H	-2.1147948885	-0.3547672751	-0.3587669713	 0.098103
H	-1.6405819193	-2.2174871245	 1.4800528646	 0.113475
H	-0.6441794567	-2.9260431118	 0.1852491614	 0.094223
H	 0.1433369139	-0.9349898996	 2.36835715	 0.101376
H	 1.7169806831	-2.9131147244	 1.3774319314	 0.252411
H	 3.7114757168	-1.8547010839	 1.297170412	 0.08721
65.2981	145.1219	187.9264	261.0106	280.8753	351.6112	376.2688	452.4843	501.2089	553.8591	570.98	620.6221	708.7766	806.7954	823.7281	859.4092	897.0739	953.6638	1007.9862	1015.0398	1030.8252	1036.3848	1060.6261	1078.6747	1108.1669	1159.8654	1210.0751	1216.6009	1225.5314	1249.645	1298.9139	1353.4699	1379.6904	1428.0286	1432.6171	1481.5928	1509.9171	1516.1574	1774.4441	2959.3292	3037.7402	3042.2709	3098.8832	3114.0691	3197.6619	3209.1461	3627.2724	3674.2875
OC12CC1CC2NC=O	O[C@]12C[C@H]1C[C@H]2NC=O	
InChI=1S/C6H9NO2/c8-3-7-5-1-4-2-6(4,5)9/h3-5,9H,1-2H2,(H,7,8)	InChI=1S/C6H9NO2/c8-3-7-5-1-4-2-6(4,5)9/h3-5,9H,1-2H2,(H,7,8)/t4-,5-,6-/m1/s1
