21
gdb 56260	5.14731	0.62962	0.60746	4.3044	81.49	-0.2354	0.0363	0.2717	1892.9218	0.181281	-420.408846	-420.398365	-420.397421	-420.447072	36.214	
C	-0.0907245511	 1.391427213	-0.1031318876	-0.481212
C	-0.1666060062	-0.1242616941	-0.216910132	 0.406051
O	 0.4129660256	-0.7384314363	-1.0944304885	-0.373818
N	-0.9232776005	-0.7450372999	 0.7371061037	-0.308969
C	-1.1178869959	-2.1846573808	 0.7506838327	-0.168259
C	-2.3088087072	-2.6308680032	-0.1068562881	-0.134043
N	-2.4604527726	-4.0767376136	-0.0347208059	-0.055242
C	-3.3500992447	-4.5875884721	 1.0041967758	-0.221385
C	-3.7557697197	-4.6144150423	-0.4282258372	-0.217421
H	 0.960912828	 1.6860497507	-0.0646318063	 0.153582
H	-0.5199073155	 1.8347342898	-1.0059644445	 0.151325
H	-0.607105523	 1.7970966657	 0.7709836882	 0.107711
H	-1.4215932591	-0.1827972255	 1.4058033347	 0.242348
H	-0.2086175324	-2.6500611367	 0.3652511826	 0.152659
H	-1.2571685927	-2.5109007897	 1.7868093573	 0.101993
H	-3.2225113555	-2.0957941092	 0.2160824484	 0.066359
H	-2.1134173445	-2.3523135802	-1.1475695705	 0.128674
H	-3.0256605437	-5.4946789073	 1.5057926906	 0.118371
H	-3.8531210866	-3.8653528982	 1.646799253	 0.103349
H	-4.5275879843	-3.9108974841	-0.737650018	 0.108603
H	-3.7317957284	-5.5414929562	-0.9937386283	 0.119324
29.9165	33.7064	57.2162	75.8003	100.917	202.7747	278.0564	317.3048	397.2698	406.4495	424.146	484.8009	622.8836	646.6645	771.5727	782.0888	846.6943	891.1575	913.5447	992.1249	1013.6452	1034.3055	1050.0012	1069.5782	1108.9525	1113.0607	1117.4449	1140.5932	1175.8435	1191.9439	1254.9121	1279.3894	1322.4272	1335.3274	1343.1087	1394.8333	1415.9064	1469.9643	1471.5136	1486.3067	1488.2982	1497.8194	1522.9967	1537.5616	1780.2152	2918.1579	3049.0963	3050.7799	3076.63	3088.2972	3095.5541	3124.7847	3127.2822	3131.2552	3175.3273	3189.4973	3655.667
CC(=O)NCCN1CC1	CC(=O)NCCN1CC1	
InChI=1S/C6H12N2O/c1-6(9)7-2-3-8-4-5-8/h2-5H2,1H3,(H,7,9)	InChI=1S/C6H12N2O/c1-6(9)7-2-3-8-4-5-8/h2-5H2,1H3,(H,7,9)
