19
gdb 99826	1.88205	1.53961	1.24612	1.8752	77.69	-0.2377	-0.0209	0.2169	1154.8684	0.153276	-422.99699	-422.986013	-422.985069	-423.032958	38.878	
C	-0.1727977042	 1.4461036562	-0.0053018099	-0.252003
O	 0.0857035909	 0.0525348793	 0.0286457968	-0.265649
C	 0.6696666616	-0.5084762114	-1.143014027	 0.033774
C	 0.5479409126	-2.0367279489	-0.972346783	-0.416927
C	-0.0108642696	-0.0881311284	-2.3716277773	 0.356369
C	-0.5962164816	 0.2521536661	-3.3639196509	-0.468919
C	 2.1981956057	-0.186886155	-1.2222092047	 0.364182
C	 2.9115029055	 0.0232873848	 0.0999817507	-0.482402
O	 2.7715060735	-0.1674425305	-2.281550612	-0.292279
H	 0.7328124166	 2.0359059645	-0.2079190055	 0.108515
H	-0.9243538385	 1.6988274955	-0.7616816924	 0.131439
H	-0.5497754492	 1.70975682	 0.9851859825	 0.130563
H	-0.5086729384	-2.3034141229	-0.9050054353	 0.140542
H	 0.9980435027	-2.547530092	-1.8256131672	 0.14583
H	 1.0476047063	-2.3521204189	-0.052702516	 0.127215
H	-1.0984199709	 0.5530397511	-4.2503425768	 0.201511
H	 2.5419619618	-0.6493048366	 0.8767991549	 0.145835
H	 3.9836975079	-0.1075832316	-0.052752297	 0.14191
H	 2.7300775972	 1.0432452786	 0.4563554301	 0.150493
50.8372	100.9538	135.0169	149.6392	165.7679	176.4096	222.1039	238.0904	272.7917	289.9469	403.1783	433.0919	459.3115	530.4527	605.0984	631.145	632.9028	650.4285	671.1287	855.2554	905.2572	975.57	1003.1904	1083.0442	1115.752	1135.1719	1170.0085	1185.0154	1230.3205	1247.227	1383.2843	1394.2858	1455.8292	1466.4796	1476.1147	1480.8463	1485.4726	1489.5605	1512.8069	1821.9226	2234.6217	2998.9202	3049.3288	3054.6798	3068.8484	3116.6752	3125.6508	3134.465	3149.0419	3157.5865	3499.7642
COC(C)(C#C)C(C)=O	CO[C@@](C)(C#C)C(=O)C	
InChI=1S/C7H10O2/c1-5-7(3,9-4)6(2)8/h1H,2-4H3	InChI=1S/C7H10O2/c1-5-7(3,9-4)6(2)8/h1H,2-4H3/t7-/m0/s1
