15
gdb 123618	4.18389	1.57691	1.25093	3.9576	70.47	-0.2309	-0.007	0.2239	946.7008	0.116826	-412.947829	-412.941671	-412.940727	-412.978281	24.778	
C	 0.0618700507	 1.4821593791	-0.0222049196	-0.232578
C	 1.3283487839	 0.6912065999	 0.0382276109	-0.183129
N	-0.0131003186	 0.0221260086	-0.0257238351	-0.097072
C	-0.1854864492	-0.6077012012	-1.3753881471	-0.28568
C	 1.0882957084	-0.2673276083	-2.0994812706	 0.270193
C	 1.934372548	 0.4274635666	-1.2782647343	 0.379433
N	 3.0280276745	 0.6394513482	-2.0317570161	-0.348407
N	 2.8582889066	 0.097211065	-3.2741100982	-0.124451
N	 1.6697951847	-0.4461611564	-3.309150987	-0.286243
H	-0.3243310146	 1.9513388552	 0.8790610608	 0.125455
H	-0.1373121435	 2.0226461185	-0.9457021189	 0.123228
H	 1.8907508772	 0.5897103458	 0.9609129424	 0.112965
H	-0.3235380977	-1.6856229625	-1.240276195	 0.13318
H	-1.0895708724	-0.2150094118	-1.8515888274	 0.131815
H	 3.8936931919	 1.1102784733	-1.8240594048	 0.281291
153.1257	242.0541	354.5242	427.4788	444.2395	560.0757	595.929	699.2689	708.0996	727.3289	748.5599	797.8697	839.7297	957.3334	997.1182	1019.3101	1023.9655	1036.2115	1070.1733	1119.9016	1145.1354	1184.1019	1204.6431	1224.9587	1254.083	1292.0024	1313.8378	1368.784	1417.2724	1489.2647	1501.6322	1530.9292	1600.2194	3044.8192	3082.2994	3095.8606	3158.9658	3185.9987	3663.6676
C1C2N1CC1=C2NN=N1	C1[C@H]2N1Cc1c2[nH]nn1	
InChI=1S/C5H6N4/c1-3-5(7-8-6-3)4-2-9(1)4/h4H,1-2H2,(H,6,7,8)	InChI=1S/C5H6N4/c1-3-5(7-8-6-3)4-2-9(1)4/h4H,1-2H2,(H,6,7,8)/t4-,9?/m1/s1
