19
gdb 119495	4.18837	1.00287	0.93853	1.2515	75.45	-0.23	0.0638	0.2938	1320.859	0.157103	-422.932941	-422.924439	-422.923494	-422.966605	32.371	
C	 0.0713273404	 1.5295571024	-0.042452982	-0.388189
C	 0.2079139359	 0.0206717482	 0.0488248074	-0.060835
O	 0.4842826546	-0.4813147345	-1.2597006389	-0.28632
C	 0.6178986265	-1.8458152753	-1.3077459734	 0.415292
C	 1.8397514404	-2.6052167724	-0.8660622479	-0.347039
C	 1.390952268	-2.6619043991	-2.3172005361	-0.20014
C	 0.1402818148	-3.5831127985	-2.4838313343	 0.027073
O	-0.2201636876	-4.1513404531	-1.2122396239	-0.236783
C	-0.6160336042	-2.8065213251	-1.5107806182	-0.063217
H	 0.9945272274	 1.9760111254	-0.4227007505	 0.128114
H	-0.7443045799	 1.8029826124	-0.7178229757	 0.127546
H	-0.1384324278	 1.9520931885	 0.9446597509	 0.117368
H	 1.0222640903	-0.2634802567	 0.7309319985	 0.098898
H	-0.7167170879	-0.4328666445	 0.436783839	 0.09491
H	 2.7072728626	-1.9705320861	-0.7130150014	 0.115796
H	 1.7747603328	-3.4795578424	-0.2308101744	 0.134812
H	 2.006705853	-2.3204593355	-3.1378182673	 0.103986
H	-0.1663161918	-4.1166964667	-3.3748842874	 0.110073
H	-1.6660893875	-2.5464459269	-1.4454855542	 0.108654
58.5686	89.0751	131.6125	244.4661	310.3134	330.6558	363.038	412.6129	461.6503	565.7685	685.2411	746.0058	795.4129	812.3068	817.2711	852.3786	884.9628	907.5584	927.3594	971.0755	994.0608	1011.311	1023.447	1063.7717	1076.9562	1089.7004	1143.2915	1171.7957	1186.2596	1204.8892	1254.5942	1264.2709	1292.758	1351.4877	1388.9287	1402.7055	1426.278	1475.9557	1483.6552	1499.2514	1526.1633	2986.4642	3020.5533	3045.5098	3120.392	3122.2974	3136.8699	3182.8146	3199.0698	3214.8752	3232.3426
CCOC12CC1C1OC21	CCO[C@]12C[C@H]1[C@H]1O[C@@H]21	
InChI=1S/C7H10O2/c1-2-8-7-3-4(7)5-6(7)9-5/h4-6H,2-3H2,1H3	InChI=1S/C7H10O2/c1-2-8-7-3-4(7)5-6(7)9-5/h4-6H,2-3H2,1H3/t4-,5+,6+,7+/m0/s1
