21
gdb 56902	2.41833	1.10265	0.92976	1.2558	84.74	-0.2566	0.049	0.3056	1389.5497	0.178206	-387.052904	-387.042235	-387.041291	-387.088605	39.16	
C	-0.2909652702	 1.361085832	 0.1319142123	-0.393022
C	 0.1381931764	-0.0815981227	-0.2090765126	-0.194138
C	 0.9039557344	-0.1408752941	-1.4531474392	 0.329689
C	 1.5565449261	-0.1795632237	-2.4621076729	-0.47848
C	 0.9594912338	-0.66697463	 0.934168978	 0.020307
O	 0.2510640804	-0.9925078619	 2.1314090013	-0.303432
C	 0.9051048999	-2.0606133388	 1.410045704	 0.395657
C	-0.0131881604	-3.094937157	 0.7962219845	-0.458626
C	 2.1182890657	-2.6309663815	 2.1148752807	-0.451708
H	 0.5843380109	 2.0053407967	 0.2575813837	 0.125503
H	-0.9096720103	 1.7794496896	-0.6657493703	 0.124723
H	-0.8627455555	 1.3615392204	 1.0636416343	 0.135474
H	-0.7694371341	-0.6832781582	-0.3263508565	 0.107558
H	 2.1220085996	-0.2188975276	-3.3599853996	 0.19661
H	 1.8933066532	-0.1242744288	 1.1023763386	 0.088918
H	-0.9189501995	-2.6480024976	 0.3843161115	 0.128427
H	 0.5014785358	-3.6404689712	-0.0017246789	 0.127994
H	-0.3162500528	-3.8222146353	 1.5572477954	 0.12479
H	 1.809782831	-3.3111301235	 2.9163047074	 0.123884
H	 2.7421429387	-3.1977964741	 1.4154813431	 0.123074
H	 2.7232165569	-1.8351947125	 2.5558876853	 0.126797
45.5683	95.5843	144.0676	175.8728	186.423	210.422	226.3263	267.8504	309.9113	369.1801	408.9972	440.464	494.9104	520.0889	563.2817	631.5134	642.993	710.1791	814.6317	859.4418	932.6329	947.254	949.9761	1005.0151	1054.6081	1074.6048	1089.4762	1146.1234	1147.9867	1167.616	1262.1534	1284.5326	1319.8825	1356.1527	1402.7355	1409.6329	1420.4544	1462.6594	1473.6012	1486.1013	1494.1924	1497.4539	1501.9481	1520.7294	2234.6402	3034.0545	3040.6472	3044.8876	3050.983	3076.8808	3096.3624	3101.7739	3121.1434	3124.3071	3129.5881	3138.7035	3504.1642
CC(C#C)C1OC1(C)C	C[C@@H](C#C)[C@H]1OC1(C)C	
InChI=1S/C8H12O/c1-5-6(2)7-8(3,4)9-7/h1,6-7H,2-4H3	InChI=1S/C8H12O/c1-5-6(2)7-8(3,4)9-7/h1,6-7H,2-4H3/t6-,7+/m0/s1
