19
gdb 107074	4.58296	0.92357	0.90359	2.1387	82.45	-0.2449	0.0452	0.2901	1373.1393	0.156947	-385.82513	-385.816	-385.815056	-385.859161	34.272	
C	 0.0613128131	 1.5044392829	-0.2592200224	-0.379641
C	 0.0450747823	 0.0137451002	 0.1083810081	-0.301345
C	-1.3436851806	-0.5245791337	 0.2558409117	 0.436621
C	-2.3751574018	-0.2396746023	 1.3647736105	-0.311853
C	-2.9838249012	-1.6765489818	 1.1045176873	-0.200909
C	-4.3852504224	-1.7942588202	 0.7565527832	 0.339288
C	-5.5490334741	-1.8934831041	 0.4714934483	-0.462257
C	-1.9395363657	-1.8420874603	-0.0253143953	-0.064343
O	-2.1117435312	-0.7602821587	-0.9389008445	-0.280473
H	 1.0873053059	 1.8675783228	-0.36710874	 0.115608
H	-0.4629094178	 1.6736733619	-1.2041615207	 0.137399
H	-0.4286912747	 2.1094233656	 0.5107799094	 0.12036
H	 0.5604663831	-0.5677718171	-0.6639232361	 0.112838
H	 0.5887015839	-0.1463035388	 1.0479533243	 0.102637
H	-1.9461684799	-0.1507560983	 2.3653685881	 0.108845
H	-3.043951787	 0.5992297339	 1.1672605123	 0.121289
H	-2.7413919773	-2.3384784706	 1.9424115452	 0.106537
H	-6.5747003327	-1.9781151499	 0.2102812475	 0.19511
H	-1.516608112	-2.7632698813	-0.4113360468	 0.10429
74.1652	87.3694	126.6471	197.9187	211.3899	281.9169	338.4601	391.4609	447.1844	500.2965	605.9301	618.5462	628.4614	667.6151	721.2129	782.994	802.2661	896.0549	915.9472	935.3187	961.6031	989.6893	1028.1361	1060.6194	1072.4229	1104.3297	1150.1755	1194.9405	1202.3306	1242.8262	1260.7754	1312.6924	1339.1106	1352.763	1409.0409	1453.8978	1473.5047	1485.4235	1498.3356	1510.7816	2236.4746	3029.6126	3040.2197	3054.1831	3072.0532	3075.485	3109.412	3119.5924	3138.9542	3178.0223	3503.3688
CCC12CC(C#C)C1O2	CC[C@]12C[C@@H](C#C)[C@H]1O2	
InChI=1S/C8H10O/c1-3-6-5-8(4-2)7(6)9-8/h1,6-7H,4-5H2,2H3	InChI=1S/C8H10O/c1-3-6-5-8(4-2)7(6)9-8/h1,6-7H,4-5H2,2H3/t6-,7-,8+/m1/s1
