17
gdb 50864	5.38947	0.65885	0.62598	2.5584	71.	-0.2532	-0.0406	0.2126	1729.904	0.13211	-458.960092	-458.950544	-458.9496	-458.99707	32.331	
O	-0.0974750044	 1.1057375188	 1.2474801488	-0.231482
C	 0.0770277195	 1.2911738379	 0.073005217	 0.162943
C	 1.4315276917	 1.6289459013	-0.5359619219	-0.379883
C	 1.3069573877	 2.7440415132	-1.5746549782	 0.374639
O	 0.4706754754	 2.6838979289	-2.4449793341	-0.29887
C	 2.2526034824	 3.9272743841	-1.4180781803	-0.350662
C	 2.2207835288	 4.8784556711	-2.5877825712	 0.108785
C	 3.3388667956	 5.7874030995	-2.8632457047	-0.186784
O	 3.1454287479	 4.6063229636	-3.6423991397	-0.229829
H	-0.7464744562	 1.2329356942	-0.6674006871	 0.11247
H	 2.1490947412	 1.8469847124	 0.2575291486	 0.129735
H	 1.7710691372	 0.7358378674	-1.0790819454	 0.164214
H	 1.9673077013	 4.4420476387	-0.4876648129	 0.140445
H	 3.2730267768	 3.5591757843	-1.2587749859	 0.13621
H	 1.2253320705	 5.1556598147	-2.9295819703	 0.11522
H	 3.1553377661	 6.7278768851	-3.3804568706	 0.120654
H	 4.2129239186	 5.7807931449	-2.2124683022	 0.112196
23.582	45.8863	75.8481	100.4446	148.8487	232.4767	305.8393	365.1613	421.3473	465.3281	517.5814	648.292	769.518	800.3309	858.5271	869.2515	909.8855	963.8538	1005.8231	1035.8207	1083.1535	1096.3334	1124.2776	1159.6747	1165.0602	1186.068	1242.6184	1278.3048	1297.9684	1339.5978	1407.5109	1422.3809	1441.2564	1453.4149	1533.7514	1800.6163	1840.6538	2936.216	3009.1053	3030.2726	3068.8728	3082.0641	3121.7895	3136.382	3168.7858
O=CCC(=O)CC1CO1	O=CCC(=O)C[C@H]1CO1	
InChI=1S/C6H8O3/c7-2-1-5(8)3-6-4-9-6/h2,6H,1,3-4H2	InChI=1S/C6H8O3/c7-2-1-5(8)3-6-4-9-6/h2,6H,1,3-4H2/t6-/m0/s1
