18
gdb 24636	4.43923	1.09867	0.94636	2.9161	86.18	-0.2476	-0.018	0.2297	1247.4139	0.150942	-364.861195	-364.853872	-364.852928	-364.893449	28.58	
C	-0.1414105401	 1.4273553382	-0.2111986235	-0.266181
C	 1.2675501435	 1.0129314323	 0.0760896168	-0.266233
C	 0.1691743052	-0.0346419577	 0.0543958296	-0.093747
C	-0.2821005741	-0.7051221366	 1.299290908	 0.350685
C	-0.3452992109	-0.0618247143	 2.5409391252	-0.229311
C	-0.7806038297	-0.767514478	 3.6559209017	 0.014857
N	-1.154838259	-2.0506028889	 3.6350570208	-0.278121
C	-1.094074187	-2.6629794404	 2.4500969677	 0.015829
C	-0.6732003728	-2.0468474176	 1.2764377473	-0.219024
H	-0.6888702142	 1.9647581507	 0.5554007999	 0.123424
H	-0.4050638881	 1.7057046792	-1.2254254771	 0.120501
H	 1.9830687421	 1.0032208549	-0.7385207902	 0.120495
H	 1.6939104667	 1.2640365661	 1.0411554828	 0.123419
H	 0.1560762462	-0.6825240864	-0.8159183232	 0.086472
H	-0.0603735061	 0.979522892	 2.6500554011	 0.093832
H	-0.8309592823	-0.2707305635	 4.6224903	 0.104925
H	-1.3987474313	-3.7072638846	 2.4336603017	 0.105273
H	-0.649889688	-2.6091351257	 0.3481513115	 0.092904
61.0032	152.2362	187.3781	336.8753	375.4623	393.3907	539.6911	565.3722	681.7346	749.0377	768.1152	799.8262	827.0252	833.3551	887.917	923.9728	929.8215	987.725	1000.5004	1008.9534	1058.677	1066.997	1080.4725	1096.2113	1116.6516	1131.3588	1203.1742	1204.5116	1247.0651	1255.8594	1297.0512	1357.0936	1407.516	1449.5873	1471.7039	1503.7269	1531.6549	1597.5408	1638.6048	3134.7395	3137.3734	3147.3724	3149.421	3158.5514	3178.5677	3181.8315	3214.0427	3229.2538
C1CC1C1=CC=NC=C1	C1CC1c1ccncc1	
InChI=1S/C8H9N/c1-2-7(1)8-3-5-9-6-4-8/h3-7H,1-2H2	InChI=1S/C8H9N/c1-2-7(1)8-3-5-9-6-4-8/h3-7H,1-2H2
