15
gdb 13309	5.66015	1.28106	1.10822	5.5125	67.34	-0.2525	-0.0044	0.2481	1029.7533	0.119341	-362.678078	-362.670716	-362.669772	-362.710501	26.269	
N	-0.0494099399	-1.1549733568	-0.1731231018	-0.304743
C	-0.0225815968	-0.0004373674	-0.1409412751	 0.270023
C	 0.0088588382	 1.4584029716	-0.0811492524	-0.347157
C	 1.4367702978	 2.0159789218	 0.1360443277	 0.090346
O	 2.2661875987	 1.6654061074	-0.9645841592	-0.26654
C	 2.8088224066	 2.835490158	-1.5763905153	-0.115823
C	 2.2451837401	 3.9830405674	-0.7885377818	-0.091521
C	 1.4739592197	 3.5213132463	 0.188237237	-0.103694
H	-0.3962205669	 1.8678941365	-1.0121621036	 0.153798
H	-0.6413935172	 1.788960394	 0.7372260456	 0.146903
H	 1.8416338178	 1.5625924055	 1.0543744783	 0.105343
H	 3.908145195	 2.7996309339	-1.5353609777	 0.117038
H	 2.5245837411	 2.8688309534	-2.6389014568	 0.115611
H	 2.4674104283	 5.0193464924	-1.0085857456	 0.116962
H	 0.9379479274	 4.099466066	 0.9299472408	 0.113453
63.7204	92.2788	141.7347	276.7987	352.8619	394.5439	460.9744	551.7129	709.0461	760.7693	809.6785	841.8474	931.9453	955.1212	961.6953	978.8189	1006.1086	1044.8681	1059.0693	1117.2426	1130.939	1195.1813	1234.5362	1274.5334	1324.885	1360.9489	1375.4203	1390.0041	1452.7212	1520.6588	1691.1917	2365.1058	2979.8694	2987.3093	3006.4736	3046.1907	3094.4258	3209.6932	3233.7885
N#CCC1OCC=C1	N#CC[C@H]1OCC=C1	
InChI=1S/C6H7NO/c7-4-3-6-2-1-5-8-6/h1-2,6H,3,5H2	InChI=1S/C6H7NO/c7-4-3-6-2-1-5-8-6/h1-2,6H,3,5H2/t6-/m0/s1
