18
gdb 50731	2.55946	1.50242	0.98306	1.6927	75.35	-0.2272	-0.0171	0.2101	1174.0346	0.151054	-435.302113	-435.294019	-435.293075	-435.335057	30.427	
N	 0.9643131629	-0.0760995729	-0.2393551665	-0.472845
C	-0.1889243633	 0.3799292609	 0.0433111141	 0.086687
N	-1.3042016057	-0.4549244377	 0.047845314	-0.121161
C	-1.101569011	-1.869573547	-0.3034672385	-0.143007
C	-2.2936954833	-2.7244287335	 0.1143536287	-0.195576
N	-3.5710572109	-2.1587042495	-0.308371331	-0.283736
C	-3.7562279751	-0.8414078041	 0.2837693561	-0.288867
C	-2.553889973	 0.1066965133	 0.3060700784	 0.403995
O	-2.6962620618	 1.2836268912	 0.5703273157	-0.363951
H	 1.6549916374	 0.6702870554	-0.1859214522	 0.23181
H	-0.4498704579	 1.4059709484	 0.3014934856	 0.145683
H	-0.9361091035	-1.9446305785	-1.3865108007	 0.116084
H	-0.1750239097	-2.1996207915	 0.1734645291	 0.143736
H	-2.1785268626	-3.7294343735	-0.3028843595	 0.115999
H	-2.318726774	-2.8286991297	 1.2066151075	 0.118007
H	-3.5889182479	-2.0846832409	-1.3213624967	 0.22297
H	-4.5690184673	-0.3079094373	-0.2148838266	 0.141336
H	-4.0654955332	-0.9573049632	 1.3323429927	 0.142836
83.7167	116.3379	176.4438	253.2819	295.7355	340.2606	369.9553	480.6362	494.7518	560.8139	600.9945	675.6679	747.0948	811.5809	840.8382	886.6443	944.7935	976.7056	1016.8327	1087.7952	1089.9357	1134.7962	1153.8073	1170.5747	1220.443	1252.3717	1314.7325	1329.9512	1353.5906	1356.7085	1390.9847	1396.5744	1427.1663	1454.5837	1484.0159	1490.2327	1516.7182	1708.1973	1781.2396	3017.3323	3019.8652	3033.3473	3088.0144	3096.7197	3107.6212	3143.0681	3504.8392	3506.5644
N=CN1CCNCC1=O	[NH][CH]N1CCNCC1=O	
InChI=1S/C5H9N3O/c6-4-8-2-1-7-3-5(8)9/h4,6-7H,1-3H2	InChI=1S/C5H9N3O/c6-4-8-2-1-7-3-5(8)9/h4,6-7H,1-3H2
