22
gdb 63403	4.06174	0.86218	0.8586	2.1297	83.9	-0.2299	0.0729	0.3028	1475.0403	0.19273	-404.3083	-404.298909	-404.297965	-404.342425	36.338	
C	-0.2531128659	 1.5149492578	-0.0668190795	-0.448012
C	-0.0245478545	 0.0065524939	-0.0434359297	 0.417501
O	-1.2291228282	-0.692186207	-0.298359001	-0.473605
C	 1.2322926303	-0.45164412	-0.8501115851	-0.303947
C	 2.0171157975	-0.523882058	 0.4848290884	 0.0719
C	 0.6653017323	-0.5106723383	 1.243351828	-0.279588
N	 2.8406067785	-1.701788935	 0.6755599978	-0.057004
C	 4.2462969153	-1.5736857337	 0.2988344138	-0.224567
C	 3.8468478881	-1.6208369331	 1.7317630553	-0.224017
H	 0.6604629425	 2.0650233793	 0.1810604871	 0.117301
H	-0.572727949	 1.8435573451	-1.0642689351	 0.103884
H	-1.0302024298	 1.7920964593	 0.6524649647	 0.123292
H	-1.6189456566	-0.3351033947	-1.104040394	 0.270917
H	 1.0760762346	-1.4569610006	-1.2477567218	 0.113184
H	 1.6107145732	 0.207583982	-1.6362203665	 0.08534
H	 2.585689467	 0.4049059258	 0.6646977179	 0.047589
H	 0.5810180761	 0.098182746	 2.1467219807	 0.091076
H	 0.3408516521	-1.5322088504	 1.4522927081	 0.120746
H	 4.6883967752	-2.4416641932	-0.1816158834	 0.115955
H	 4.5849037165	-0.6146267972	-0.0908825625	 0.107583
H	 3.9193296549	-0.6935533507	 2.2982666545	 0.108085
H	 3.9909244797	-2.5240999374	 2.3174123122	 0.116388
75.5274	77.8982	173.4465	262.3879	265.8474	281.4849	297.8639	311.6418	400.4294	432.5282	439.9388	510.2307	591.5313	712.5546	799.6478	829.4744	864.2234	894.7703	901.0552	914.2344	961.5436	976.626	998.2112	1032.3186	1064.3445	1075.0706	1109.6658	1116.4613	1131.0152	1136.3466	1174.2578	1190.3804	1215.7751	1216.5445	1268.8733	1286.2003	1287.348	1324.2079	1375.5559	1389.7138	1407.0147	1461.2804	1485.6339	1488.7294	1490.8758	1500.3476	1516.2399	2938.1542	3018.8567	3055.9079	3066.2858	3085.5131	3091.6926	3096.8921	3108.8394	3124.5011	3131.5616	3176.3941	3190.7515	3796.1813
CC1(O)CC(C1)N1CC1	C[C@@]1(O)C[C@@H](C1)N1CC1	
InChI=1S/C7H13NO/c1-7(9)4-6(5-7)8-2-3-8/h6,9H,2-5H2,1H3	InChI=1S/C7H13NO/c1-7(9)4-6(5-7)8-2-3-8/h6,9H,2-5H2,1H3/t6-,7+
