20
gdb 75303	2.942	1.58239	1.24727	1.7879	80.34	-0.2327	0.0389	0.2716	1074.3691	0.172577	-403.158364	-403.150463	-403.149519	-403.190561	31.242	
C	 0.5425504271	 1.4160593299	 0.1338377463	-0.432863
C	-0.0065343446	 0.0153429696	 0.0327895206	 0.376994
N	 0.320634807	-0.7292097459	-0.9360248933	-0.302382
C	-0.0848234906	-2.0888556659	-1.2239101485	-0.163849
C	-1.0426977727	-2.8050364659	-0.2732063178	-0.024912
C	-2.2831653971	-1.9354607784	 0.0701417685	-0.250398
C	-1.5064484643	-1.4280949275	 1.3104045507	 0.128568
C	-0.5973709602	-2.6780783532	 1.2094784402	-0.250441
O	-0.8273204822	-0.1951008616	 1.1091748307	-0.271257
H	 1.2006448449	 1.6140583279	-0.710469455	 0.137927
H	-0.2755608276	 2.1434532013	 0.1454712321	 0.132151
H	 1.0940078122	 1.5398431966	 1.0714489442	 0.132147
H	-0.5246886557	-2.0822936158	-2.231979171	 0.108291
H	 0.8365587706	-2.6827939886	-1.3133076379	 0.108273
H	-1.2355088957	-3.8152353768	-0.646370232	 0.064823
H	-2.6025001522	-1.1831112149	-0.6554777249	 0.109114
H	-3.146322676	-2.5360252506	 0.3692452762	 0.102516
H	-2.0655838298	-1.2780895607	 2.2354600008	 0.083633
H	-0.9802756122	-3.4902783951	 1.8330890425	 0.102521
H	 0.4658085992	-2.5347622044	 1.4183215977	 0.109144
105.7594	131.5651	238.5235	290.6431	314.9206	334.8194	397.4802	411.6087	522.7482	610.7198	677.527	766.9235	784.7622	806.1245	876.2863	885.2129	892.4403	945.9636	954.9737	1035.1072	1040.8966	1061.1688	1065.7107	1097.8117	1102.564	1159.1231	1167.1197	1215.6221	1228.476	1250.2505	1266.4234	1276.2504	1320.3426	1343.6621	1382.0574	1398.9118	1403.6214	1461.8808	1468.7561	1478.5696	1478.7331	1489.5507	1767.9523	2995.4515	3018.3882	3046.6728	3055.2586	3057.8367	3067.9349	3095.3347	3102.5308	3116.1469	3117.781	3169.7488
CC1=NCC2CC(C2)O1	CC1=NC[C@@H]2C[C@@H](C2)O1	
InChI=1S/C7H11NO/c1-5-8-4-6-2-7(3-6)9-5/h6-7H,2-4H2,1H3	InChI=1S/C7H11NO/c1-5-8-4-6-2-7(3-6)9-5/h6-7H,2-4H2,1H3/t6-,7+
