15
gdb 56972	4.06491	0.90545	0.834	2.9343	67.46	-0.2667	-0.0471	0.2196	1328.4208	0.111454	-453.925063	-453.916276	-453.915332	-453.959473	30.964	
O	-0.1142751486	 1.3695136915	-0.1937621324	-0.401026
C	-0.0367283853	-0.0255158057	-0.0694380901	-0.024117
C	 0.7139041795	-0.6280868221	-1.199570185	 0.255377
N	 1.3116567511	-1.1045375112	-2.065759147	-0.30825
C	 0.6350635627	-0.4531736529	 1.2419788939	-0.042189
N	 1.5192103893	 0.546136591	 1.8125921474	-0.347029
C	 0.3152837674	 0.1553492658	 2.5763801243	-0.122212
C	-0.735024208	 1.1995719215	 2.8072798323	 0.159145
O	-1.5288555209	 1.1090271054	 3.7095399806	-0.248138
H	 0.7149143045	 1.7118463858	 0.1778654775	 0.30411
H	-1.0596919038	-0.4171737349	-0.107067359	 0.15351
H	 0.9347302364	-1.4983765583	 1.2660597185	 0.129401
H	 2.3662744102	 0.1502935963	 2.2071077997	 0.261458
H	 0.4371555085	-0.510311094	 3.4279800625	 0.12217
H	-0.7305314232	 2.0494196218	 2.100495127	 0.10779
56.3387	69.7162	130.7228	214.0098	228.2903	267.1845	319.1471	390.0224	468.5116	520.4407	547.9522	575.4401	696.2323	825.2104	852.432	900.6296	950.3971	992.0788	1008.5219	1034.0024	1080.4282	1123.8414	1184.9418	1221.5499	1237.5462	1284.8569	1327.1925	1365.6221	1417.2737	1445.4367	1456.9704	1818.256	2356.2296	2975.0374	3058.2335	3140.039	3149.8902	3537.4612	3694.5785
OC(C#N)C1NC1C=O	O[C@@H](C#N)[C@H]1N[C@H]1C=O	
InChI=1S/C5H6N2O2/c6-1-4(9)5-3(2-8)7-5/h2-5,7,9H	InChI=1S/C5H6N2O2/c6-1-4(9)5-3(2-8)7-5/h2-5,7,9H/t3-,4-,5-/m0/s1
