21
gdb 122853	7.28426	0.47576	0.45283	0.3013	76.75	-0.2641	0.0184	0.2825	2367.6933	0.179829	-461.395858	-461.384623	-461.383678	-461.434226	37.673	
C	-0.088812199	 1.3353519913	 0.1478524793	-0.239126
O	 0.0186475551	-0.0834512073	-0.0171752619	-0.234083
C	 0.6537688748	-0.4882594983	-1.1375390991	 0.447709
O	 1.1070614912	 0.2719751294	-1.9561313586	-0.35665
C	 0.7078290451	-2.0005052309	-1.2062199928	-0.33331
C	 1.4181250514	-2.5165307218	-2.457367499	-0.176651
C	 1.4655623396	-4.0453096762	-2.5140056757	-0.17109
C	 2.1719945542	-4.5666619793	-3.7582586649	-0.07561
O	 2.1579032954	-5.9855435497	-3.7077416575	-0.42203
H	 0.90147802	 1.7961835753	 0.1906500828	 0.139179
H	-0.6449341162	 1.7804872196	-0.6812687111	 0.139198
H	-0.6202276565	 1.4860983661	 1.0876828759	 0.131831
H	 1.1978745298	-2.3611834975	-0.2933132605	 0.131748
H	-0.321237394	-2.3765814136	-1.1494087416	 0.131753
H	 0.9114680918	-2.1201615458	-3.3449022139	 0.11157
H	 2.4335304969	-2.104713075	-2.487176597	 0.11156
H	 1.9804785557	-4.4439997445	-1.6308655755	 0.104011
H	 0.4496771041	-4.4595387111	-2.4934784154	 0.104013
H	 1.658571923	-4.1940855556	-4.6599830887	 0.085362
H	 3.2034128461	-4.1784309483	-3.7894525401	 0.085362
H	 2.6033984717	-6.3186102068	-4.4919679846	 0.285256
32.9071	50.1613	83.5968	115.3565	124.1399	132.5052	180.4088	211.4745	263.627	267.4559	329.5656	432.728	507.0072	586.3815	703.4553	742.8858	808.9064	897.727	930.8882	997.7465	1027.8745	1053.2492	1069.2587	1100.6469	1127.3395	1179.685	1193.3149	1202.7052	1213.2683	1241.384	1275.6674	1300.0458	1316.5234	1324.483	1365.2029	1407.3629	1459.2369	1466.4639	1474.3318	1482.4664	1488.1409	1498.5383	1503.7013	1529.7028	1819.5013	2959.5287	2984.4994	3024.8893	3033.5418	3043.7231	3050.5968	3054.455	3065.6783	3088.1934	3123.9063	3157.0784	3830.7169
COC(=O)CCCCO	COC(=O)CCCCO	
InChI=1S/C6H12O3/c1-9-6(8)4-2-3-5-7/h7H,2-5H2,1H3	InChI=1S/C6H12O3/c1-9-6(8)4-2-3-5-7/h7H,2-5H2,1H3
