19
gdb 65771	3.21732	1.1597	1.10461	2.8473	76.77	-0.2465	-0.035	0.2114	1185.5285	0.158244	-423.050015	-423.04128	-423.040336	-423.083932	32.879	
O	-0.1032945378	 1.3711539937	 0.1496196038	-0.487617
C	 0.022042299	-0.0445927043	 0.0508932213	 0.384516
C	 0.8083424646	-0.571350809	 1.2719435437	-0.344626
C	 2.1901299463	 0.0114301466	 1.436483687	 0.159155
O	 2.6206048267	 0.9612172448	 0.8225463151	-0.25868
C	-1.4055581688	-0.6477744946	-0.0314023922	-0.267037
C	-1.3856809481	-1.6933967813	-1.173564297	-0.261341
C	-0.1089029508	-1.3735506826	-1.9109405621	-0.064674
C	 0.6483259035	-0.4957816575	-1.2590011193	-0.132856
H	 0.7985881915	 1.7201131291	 0.1680227832	 0.287531
H	 0.2613821122	-0.3299392806	 2.1967555958	 0.138022
H	 0.8981650482	-1.665840837	 1.2536658957	 0.123757
H	 2.8234592083	-0.4884982864	 2.2023976164	 0.094253
H	-1.7385858924	-1.0671939814	 0.9216766228	 0.091117
H	-2.076343333	 0.1782535628	-0.2790190848	 0.126045
H	-1.3688954013	-2.7227659003	-0.7897922652	 0.104748
H	-2.2701260093	-1.6272821482	-1.817500778	 0.108891
H	 0.1472418778	-1.8368321049	-2.858221845	 0.09487
H	 1.6154587433	-0.1250077588	-1.5786260812	 0.103925
50.3567	91.6437	153.1682	192.6242	256.249	304.4162	369.3893	418.6427	499.6872	556.8326	580.7988	673.4117	707.0553	771.0405	794.6631	830.9434	850.3673	916.866	930.9801	974.533	980.4588	986.5521	999.3751	1072.3217	1106.7737	1139.4543	1145.584	1203.5053	1242.7471	1264.3031	1300.4331	1320.458	1332.4618	1382.7402	1408.8635	1421.5465	1431.7677	1478.771	1497.7011	1690.0198	1806.3179	2889.5288	3004.3666	3013.351	3049.294	3052.3922	3065.6642	3113.9071	3179.7326	3209.8499	3747.3372
OC1(CC=O)CCC=C1	O[C@@]1(CC=O)CCC=C1	
InChI=1S/C7H10O2/c8-6-5-7(9)3-1-2-4-7/h1,3,6,9H,2,4-5H2	InChI=1S/C7H10O2/c8-6-5-7(9)3-1-2-4-7/h1,3,6,9H,2,4-5H2/t7-/m1/s1
