19
gdb 41574	2.91953	1.79897	1.74509	1.7317	72.09	-0.2519	0.0758	0.3277	896.1478	0.163416	-423.016459	-423.010083	-423.009138	-423.047109	26.928	
C	-0.0176937795	 1.6005141995	 0.1956147616	-0.250204
C	 1.5394933063	 1.6248964649	 0.1251085249	-0.237662
C	 1.5543171273	 0.0768015721	-0.0309217857	-0.035274
C	-0.0106697995	 0.0613348072	-0.045318066	-0.011407
C	-0.2708879156	-0.5602621878	-1.4411295737	 0.014622
C	 0.1418622235	 0.3788704625	-2.5852293821	-0.092181
O	 1.575774842	 0.3908126715	-2.4525162117	-0.274309
C	 1.8438554934	-0.5498076104	-1.4127513749	 0.177555
O	 0.8120609902	-1.5149975568	-1.5265047601	-0.252561
H	-0.4070436941	 1.8598460141	 1.1827263355	 0.101778
H	-0.5482717967	 2.2118088184	-0.5379383861	 0.100421
H	 1.9509924264	 2.1515489527	-0.7365920535	 0.118026
H	 2.0251494447	 1.9928502473	 1.0310143701	 0.097877
H	 2.0477000529	-0.4822185496	 0.766232481	 0.074046
H	-0.5061728052	-0.5325975007	 0.724303436	 0.077879
H	-1.2248416486	-1.0682663834	-1.5753005248	 0.085789
H	-0.1354545119	-0.0384002092	-3.5601162598	 0.107839
H	-0.2510874087	 1.3955527858	-2.5059613814	 0.108542
H	 2.821323753	-1.003578048	-1.5750965992	 0.089222
111.9403	276.2264	316.9406	395.9042	507.0788	567.9463	627.2095	704.803	735.1148	778.8617	792.9462	837.1998	864.5656	893.6283	918.6417	942.5723	970.9313	977.7015	988.5472	1008.0828	1036.611	1056.101	1081.9765	1104.6283	1122.239	1176.9377	1194.1765	1228.3529	1243.6158	1252.2322	1262.3852	1277.3034	1304.8712	1314.7058	1325.356	1333.7086	1350.869	1378.0168	1475.6216	1494.5874	1529.7091	3036.1412	3066.7045	3077.4035	3084.5836	3093.5363	3096.4768	3111.4953	3129.164	3135.4846	3139.6564
C1CC2C1C1COC2O1	C1C[C@H]2[C@@H]1[C@H]1CO[C@@H]2O1	
InChI=1S/C7H10O2/c1-2-5-4(1)6-3-8-7(5)9-6/h4-7H,1-3H2	InChI=1S/C7H10O2/c1-2-5-4(1)6-3-8-7(5)9-6/h4-7H,1-3H2/t4-,5+,6-,7-/m1/s1
