18
gdb 122798	2.8258	0.81481	0.65966	3.0205	72.26	-0.2485	-0.0727	0.1758	1672.2035	0.145493	-476.246721	-476.236589	-476.235645	-476.283636	34.105	
C	 0.0652479305	 1.1793556796	 0.4560108025	-0.229483
O	 0.1109591754	-0.1902638749	 0.1251624033	-0.238329
C	-1.1673350028	-0.7687104921	-0.034856987	-0.061656
C	-0.9643352175	-2.2522817362	-0.3031824669	-0.171787
N	-0.2501918309	-2.8801845748	 0.7899331398	-0.303144
C	-0.6546006381	-4.0140018931	 1.3962391161	 0.305422
O	-1.6368024989	-4.6825500872	 1.1203725089	-0.365514
C	 0.2662808665	-4.4409457729	 2.5436986533	 0.102863
O	 1.2468860247	-3.8283776763	 2.879323399	-0.246313
H	 1.0963660941	 1.5243041499	 0.56013307	 0.133732
H	-0.4307407493	 1.7695317082	-0.3297272622	 0.109633
H	-0.4670043972	 1.3510729745	 1.4042009402	 0.110885
H	-1.773516652	-0.6249440935	 0.8745285049	 0.098948
H	-1.7070137484	-0.3056638807	-0.8771839044	 0.096152
H	-1.9232735717	-2.7647218817	-0.4079215955	 0.146596
H	-0.4056746239	-2.3733822667	-1.2399907695	 0.124658
H	 0.5815598706	-2.4306978863	 1.1473727579	 0.272051
H	-0.0705510411	-5.3761419157	 3.0333997396	 0.115287
36.8376	57.6583	98.0556	111.6759	171.8627	189.4598	228.2182	267.8495	294.9094	372.1466	507.1759	537.5268	587.1258	677.0914	695.6148	817.6215	906.7085	977.9713	1026.1596	1056.7707	1117.6774	1133.6717	1166.7794	1187.3873	1219.3366	1246.2874	1258.4997	1303.168	1363.1729	1388.3369	1420.8178	1480.8185	1486.3762	1487.5553	1501.4484	1523.4094	1549.8881	1783.3872	1823.9371	2952.987	2963.8365	2980.1202	2998.027	3025.6302	3033.1456	3120.7911	3121.1447	3607.9063
COCCNC(=O)C=O	COCCNC(=O)C=O	
InChI=1S/C5H9NO3/c1-9-3-2-6-5(8)4-7/h4H,2-3H2,1H3,(H,6,8)	InChI=1S/C5H9NO3/c1-9-3-2-6-5(8)4-7/h4H,2-3H2,1H3,(H,6,8)
