19
gdb 121597	4.51051	0.69522	0.6115	0.8285	74.67	-0.2412	-0.0838	0.1575	1831.6564	0.154127	-460.184535	-460.173601	-460.172657	-460.22237	36.48	
C	 0.0509444955	 1.5007208884	 0.0508746005	-0.38516
C	 0.0539125227	-0.0170926855	 0.0086408016	-0.027825
O	 0.7927279954	-0.4306727349	-1.1275279629	-0.230252
C	 0.8587234263	-1.8154023374	-1.262908086	-0.153917
C	 1.664020052	-2.1729632503	-2.4981730843	 0.244721
O	 2.1659015653	-1.3687692192	-3.2423994782	-0.259819
C	 1.8127607145	-3.690112501	-2.7625776792	 0.297134
C	 2.60795615	-4.0745682349	-3.9836060066	-0.47537
O	 1.3006164239	-4.4795509488	-2.0020059911	-0.275417
H	 1.0728438688	 1.8838754072	 0.1181414196	 0.13138
H	-0.4084037882	 1.9079996124	-0.8539642748	 0.131378
H	-0.5128483122	 1.8552822482	 0.9187587452	 0.11604
H	 0.5061102663	-0.4321588098	 0.9250273611	 0.08981
H	-0.9759322431	-0.4079870638	-0.0474650871	 0.089806
H	 1.3287332762	-2.3063153972	-0.3920842023	 0.124037
H	-0.1382558378	-2.2820140785	-1.3555637424	 0.124025
H	 3.617974888	-3.6574043731	-3.9184645154	 0.158645
H	 2.647856359	-5.1603598495	-4.0711648266	 0.142146
H	 2.1560604976	-3.6337916924	-4.8779879711	 0.158638
43.5433	54.0713	78.0051	100.3809	101.3578	141.3073	216.1794	243.5665	300.9932	325.7634	354.1731	449.4426	536.4945	587.4654	613.4277	799.057	822.5535	900.8577	929.693	935.9783	1042.706	1057.8622	1075.7714	1152.2044	1187.4606	1192.9696	1236.8703	1255.4996	1297.6576	1379.886	1387.0111	1406.4887	1437.9965	1451.792	1459.1346	1472.4162	1483.1839	1499.3863	1530.5191	1804.1163	1821.508	2951.2981	2962.4591	2970.6942	2985.0315	3047.3441	3049.6035	3110.7833	3122.0102	3125.4664	3162.541
CCOCC(=O)C(C)=O	CCOCC(=O)C(=O)C	
InChI=1S/C6H10O3/c1-3-9-4-6(8)5(2)7/h3-4H2,1-2H3	InChI=1S/C6H10O3/c1-3-9-4-6(8)5(2)7/h3-4H2,1-2H3
