21
gdb 106829	2.23154	1.33529	0.99192	1.2854	78.72	-0.2296	0.0619	0.2916	1286.4305	0.181096	-424.182431	-424.172799	-424.171854	-424.21727	35.702	
C	-0.5544626232	 1.3046072799	 0.3237219823	-0.371332
C	-0.0281451257	-0.1200687546	 0.1000934948	-0.297859
C	 0.9449171503	-0.5668456258	 1.1553110469	 0.237265
C	 0.5280637437	-1.0991325981	 2.5229214976	-0.399969
C	 1.385859604	-1.9365075202	 1.6182299523	 0.388089
C	 1.1216918289	-3.3419478916	 1.1527474452	-0.182784
O	-0.2620127097	-3.6480810345	 1.1113321463	-0.407341
O	 2.758225571	-1.542450995	 1.7449826716	-0.331617
C	 2.4315035512	-0.2211556262	 1.2277224556	-0.13197
H	 0.261213933	 2.0358926378	 0.3195847082	 0.115118
H	-1.2615952262	 1.5910476651	-0.460752148	 0.112544
H	-1.0666896096	 1.3859023724	 1.2879078677	 0.119094
H	-0.8641728457	-0.8284499634	 0.0736241107	 0.116003
H	 0.4531731857	-0.1821774679	-0.8850429382	 0.097438
H	 0.9518078725	-0.6968880124	 3.4399073578	 0.108361
H	-0.5207502156	-1.3758475256	 2.5771628883	 0.108131
H	 1.4969950217	-3.4746215004	 0.13259948	 0.120746
H	 1.6826697003	-4.039075572	 1.7959041532	 0.104823
H	-0.5778665827	-3.6823143411	 2.0199267729	 0.288432
H	 2.8916306563	-0.0716709187	 0.2432082039	 0.104675
H	 2.7470239998	 0.5786007324	 1.9083765408	 0.102153
56.2621	85.4746	120.6214	203.4719	214.8964	237.5108	313.9099	331.7902	355.4672	410.6799	442.9946	521.9159	625.6085	736.8283	759.4056	787.5442	850.9575	917.0485	964.5128	976.6408	983.1961	1020.0201	1036.1537	1047.949	1063.8966	1082.6081	1099.5579	1145.7062	1154.3972	1209.8154	1214.3444	1277.7508	1311.8043	1345.8069	1364.1435	1383.7715	1409.1575	1412.7173	1421.1275	1484.8444	1494.3335	1499.0635	1503.7923	1509.4445	1521.7148	2979.1018	3014.9262	3020.1258	3033.1275	3061.2461	3065.1836	3071.5	3101.3347	3106.7438	3107.3919	3201.5959	3819.0121
CCC12CC1(CO)OC2	CC[C@@]12C[C@]1(CO)OC2	
InChI=1S/C7H12O2/c1-2-6-3-7(6,4-8)9-5-6/h8H,2-5H2,1H3	InChI=1S/C7H12O2/c1-2-6-3-7(6,4-8)9-5-6/h8H,2-5H2,1H3/t6-,7+/m0/s1
