17
gdb 43217	2.89239	1.81394	1.61016	1.5769	70.21	-0.2376	-0.0215	0.2161	888.7048	0.138534	-421.815893	-421.80947	-421.808526	-421.846533	26.532	
O	 0.063023118	 0.0250793153	 0.2241076739	-0.323379
C	 0.030897445	 1.2191064236	 0.1275326948	 0.437221
C	-1.0927706716	 2.2576243996	-0.0476533897	-0.211582
C	-1.4048157364	 2.8775050325	 1.3330909375	-0.206167
C	-0.0657429476	 3.188259726	 2.0488561143	-0.238705
C	 0.9617283735	 3.4811959027	 0.9585336053	 0.101719
O	 0.326297678	 4.3440849769	-0.0321779308	-0.297402
C	-0.0099417237	 3.1649365474	-0.7684601871	 0.118193
C	 1.0825101918	 2.2955690525	-0.0821927826	-0.225382
H	-1.9836774639	 1.9593116887	-0.6012831043	 0.090948
H	-1.964923005	 3.8029482449	 1.1776954623	 0.123785
H	-2.0275013697	 2.2015066154	 1.9242427091	 0.115446
H	-0.170624006	 4.0523423289	 2.7116554153	 0.112792
H	 0.2727400481	 2.3425291177	 2.6584056235	 0.117738
H	 1.9043546082	 3.9010978099	 1.3149343902	 0.090719
H	-0.1117652933	 3.3215985388	-1.8418255478	 0.097223
H	 2.0747336047	 2.0776085791	-0.4730305639	 0.096832
134.9595	245.6894	318.3509	400.5315	464.1344	519.3912	569.8195	643.2797	748.8318	781.5562	794.8464	819.7002	832.1444	862.4657	889.4903	933.6968	987.813	1010.6705	1041.4119	1051.7266	1059.7387	1080.24	1083.0881	1126.9975	1191.7858	1196.5478	1224.2141	1235.0672	1274.6964	1278.6083	1325.7143	1335.4989	1354.7298	1366.9173	1475.2691	1490.0143	1882.7647	3042.7933	3065.791	3087.7679	3094.8008	3110.174	3114.8216	3122.7886	3137.8581
O=C1C2CCC3OC2C13	O=C1[C@H]2CC[C@@H]3O[C@H]2[C@H]13	
InChI=1S/C7H8O2/c8-6-3-1-2-4-5(6)7(3)9-4/h3-5,7H,1-2H2	InChI=1S/C7H8O2/c8-6-3-1-2-4-5(6)7(3)9-4/h3-5,7H,1-2H2/t3-,4+,5+,7-/m1/s1
