18
gdb 95671	3.41859	1.22508	0.94981	6.8114	79.46	-0.2125	-0.0171	0.1955	1224.4476	0.149153	-439.120236	-439.11183	-439.110886	-439.153597	30.944	
C	-0.0390653729	 1.3772280184	 0.7799610978	-0.339959
N	-0.0430895289	 0.2745219574	-0.1637450071	-0.063006
C	-1.3320912996	-0.3367970218	-0.433969307	-0.17207
C	-1.3681258353	-1.0692709223	-1.77274522	-0.095627
O	-0.8536013285	-2.387729355	-1.7191368927	-0.23478
C	 0.4976546727	-2.6014223396	-1.5841862568	 0.382493
O	 0.9131187826	-3.7049316707	-1.8419785141	-0.352477
C	 1.3683619711	-1.5193565808	-1.1267130499	-0.289634
C	 1.1206553866	-0.3474290266	-0.4875854094	 0.043029
H	 0.952364115	 1.83334135	 0.8131018387	 0.14047
H	-0.7597912373	 2.1417687402	 0.4694480541	 0.132604
H	-0.3038368921	 1.0542084586	 1.7975378094	 0.131244
H	-1.6209170117	-1.0402561658	 0.3623820703	 0.125587
H	-2.079701209	 0.4648363372	-0.4490597904	 0.113373
H	-2.4111123575	-1.1888924049	-2.0763818378	 0.126549
H	-0.8537113237	-0.4764241387	-2.538895086	 0.124467
H	 2.4138952732	-1.7757635535	-1.2422676039	 0.109951
H	 1.9920693454	 0.223865978	-0.1779478051	 0.117786
80.2905	109.2657	141.74	202.2504	292.5893	334.4352	363.213	407.136	438.7556	509.6585	604.7517	721.5835	731.116	788.479	818.0831	877.7873	928.4312	978.8833	996.6709	1089.1893	1093.7338	1121.1426	1152.5668	1200.5946	1212.6846	1273.1006	1279.7245	1335.0051	1390.0049	1415.1312	1421.4376	1458.4965	1473.6929	1480.9292	1491.9972	1495.4458	1529.9916	1685.1139	1799.2954	2988.3594	2997.2307	3036.4189	3058.3104	3063.8479	3104.2048	3126.7485	3160.9493	3210.3391
CN1CCOC(=O)C=C1	CN1CCOC(=O)C=C1	
InChI=1S/C6H9NO2/c1-7-3-2-6(8)9-5-4-7/h2-3H,4-5H2,1H3	InChI=1S/C6H9NO2/c1-7-3-2-6(8)9-5-4-7/h2-3H,4-5H2,1H3
