21
gdb 115513	2.15752	1.39003	0.99892	2.0224	74.62	-0.253	0.079	0.3319	1264.0638	0.182727	-461.367518	-461.358084	-461.35714	-461.402521	34.527	
C	-0.147639891	 1.0856554496	 0.8844263299	-0.242116
O	-0.2935376611	-0.2992369665	 0.6344812707	-0.245351
C	-1.4170509825	-0.6202100411	-0.1463724159	 0.221425
C	-1.4105296416	-2.1273248186	-0.3827129171	-0.24519
C	-2.0766256425	-2.6506858331	 0.9011064135	-0.263766
C	-3.0524063971	-1.5200404716	 1.2741456957	 0.114794
C	-3.0648223029	-1.1544232459	 2.7537776023	-0.063251
O	-3.9033670967	-0.0456673695	 3.0081479018	-0.427329
O	-2.636126496	-0.3556466443	 0.521144395	-0.290691
H	 0.7714344097	 1.2132701456	 1.460264112	 0.128056
H	-0.0632783476	 1.6541906221	-0.0543702758	 0.106464
H	-0.9915627006	 1.486138138	 1.4591780194	 0.116354
H	-1.4245395447	-0.0064119281	-1.0585049945	 0.070424
H	-2.0186777958	-2.3556294434	-1.2628761487	 0.109326
H	-0.4009343465	-2.5077805871	-0.5425455301	 0.117797
H	-2.5878210306	-3.6048931412	 0.7602689117	 0.108136
H	-1.3261532924	-2.7799456851	 1.6870615274	 0.11803
H	-4.0782697415	-1.741877772	 0.9550400376	 0.082805
H	-3.452856253	-1.9925253853	 3.3440411226	 0.103773
H	-2.0279635996	-0.9635660897	 3.0749795543	 0.091793
H	-3.6532110959	 0.6253561371	 2.3618711082	 0.288517
42.6479	102.7592	124.0392	149.9197	194.9504	246.9	291.0379	395.4344	419.2698	446.2102	470.8919	542.7554	637.4473	765.501	814.9746	860.9645	897.0162	946.41	964.975	994.9299	1024.6442	1061.1557	1077.5718	1099.3347	1123.1895	1136.0581	1179.7263	1186.9699	1218.2859	1230.3087	1240.7863	1295.2799	1334.4629	1347.7332	1353.8158	1378.8568	1396.5718	1399.2681	1437.6561	1478.153	1478.4233	1485.1405	1495.4455	1502.687	1512.3867	2976.0751	2988.939	3008.7462	3031.0903	3057.2937	3060.8102	3067.5127	3067.927	3115.5557	3124.2295	3134.0146	3792.5576
COC1CCC(CO)O1	CO[C@H]1CC[C@@H](CO)O1	
InChI=1S/C6H12O3/c1-8-6-3-2-5(4-7)9-6/h5-7H,2-4H2,1H3	InChI=1S/C6H12O3/c1-8-6-3-2-5(4-7)9-6/h5-7H,2-4H2,1H3/t5-,6+/m0/s1
