21
gdb 79734	2.42279	1.6889	1.34861	1.5397	81.17	-0.2288	0.0715	0.3003	1062.7499	0.183509	-387.065894	-387.0576	-387.056656	-387.098022	33.61	
C	-0.0001324466	 1.4556953553	-0.0707637592	-0.480842
C	-0.007912097	-0.0549135808	 0.0043268427	 0.280116
C	-1.3309140027	-0.7795678763	-0.3178199525	-0.303926
C	-1.5476544435	-1.8636065008	 0.7462501343	-0.030576
C	-0.6828703476	-3.0993204293	 0.7556674217	-0.300895
C	-0.3092843795	-1.9141427668	 1.6187472823	-0.034171
C	 0.6511420061	-0.8449247411	 1.1409892739	-0.12158
C	 1.2736833106	-0.8162563795	-0.2347446951	 0.034517
O	 1.3514775653	-1.9624935921	-1.035467652	-0.407661
H	 0.9761955444	 1.8628043726	 0.2122458884	 0.112407
H	-0.2231786372	 1.8105541725	-1.084869007	 0.112031
H	-0.7483713067	 1.8913427607	 0.6023167765	 0.11577
H	-2.1477720778	-0.0517923401	-0.2739402137	 0.098478
H	-1.334518541	-1.1913048246	-1.3348767463	 0.09049
H	-2.5385006612	-1.9398903967	 1.1817627212	 0.077022
H	-1.0867224994	-3.9611023251	 1.2783348089	 0.096595
H	-0.0738609041	-3.330764324	-0.104586551	 0.141653
H	-0.3883888279	-2.0245544272	 2.694559611	 0.078025
H	 1.2089973179	-0.3287414211	 1.9163531157	 0.078168
H	 2.1667053774	-0.1904314774	-0.3033900519	 0.077863
H	 1.2466402104	-1.6851112282	-1.9521072178	 0.286516
158.7831	192.0515	214.4879	245.1023	274.0233	285.3648	333.6221	387.8863	511.1818	560.9719	653.685	670.4021	700.3641	772.6072	802.1526	809.4783	850.322	882.3275	946.3454	960.1043	974.0426	1010.0349	1060.3431	1073.2362	1077.1786	1088.2033	1102.5578	1111.0987	1125.848	1169.5392	1199.4757	1232.5276	1243.308	1287.3	1297.2714	1325.1813	1347.7921	1369.7651	1385.7997	1416.9554	1465.0182	1477.7957	1488.0271	1495.1918	1501.5942	3014.4575	3026.64	3063.7874	3069.8984	3071.8743	3092.6229	3137.8702	3148.408	3155.8552	3170.8941	3264.4397	3798.246
CC12CC3CC3C1C2O	C[C@]12C[C@H]3C[C@H]3[C@H]1[C@H]2O	
InChI=1S/C8H12O/c1-8-3-4-2-5(4)6(8)7(8)9/h4-7,9H,2-3H2,1H3	InChI=1S/C8H12O/c1-8-3-4-2-5(4)6(8)7(8)9/h4-7,9H,2-3H2,1H3/t4-,5-,6+,7-,8+/m1/s1
