16
gdb 130311	3.02339	1.34348	0.98215	2.6996	70.67	-0.2357	-0.0019	0.2339	1156.0035	0.126319	-434.027241	-434.01938	-434.018436	-434.060306	29.441	
N	 0.0666969465	 1.3736506684	-0.0556470254	-0.588604
C	 0.0301593465	-0.0063623866	 0.0007018073	 0.347107
N	-1.1036891445	-0.6713088664	 0.005761727	-0.228744
O	-0.7354201873	-2.0251781626	-0.0194068941	-0.174851
C	 0.5987616227	-2.108223424	-0.0289843626	-0.00194
C	 1.1727678642	-0.8776412917	-0.0074448358	 0.085572
C	 2.5987791583	-0.4865003321	-0.0352322878	-0.148519
C	 3.2863711881	-0.027927588	 1.2088003417	-0.238563
N	 3.6278986377	-1.3241107878	 0.6015939359	-0.313617
H	 0.8422182934	 1.7863730404	 0.4427910698	 0.257266
H	-0.8154645896	 1.8092509775	 0.1769513214	 0.262859
H	 1.0098855863	-3.1063082225	-0.0592012647	 0.151378
H	 2.9371870131	-0.0468614768	-0.9722617133	 0.115416
H	 4.0669622926	 0.7249642061	 1.1491621977	 0.124774
H	 2.711454003	-0.0250240824	 2.131060277	 0.11693
H	 3.1781872491	-2.0662613715	 1.1327828059	 0.233536
48.4533	146.3022	152.6862	281.3242	318.3467	331.4784	435.4675	515.2746	585.5003	602.8131	662.9884	738.069	767.8926	843.1756	854.9159	881.7512	916.4297	934.6359	965.9647	1004.0248	1098.9037	1132.8278	1145.3471	1174.6322	1177.7147	1218.1933	1262.5015	1300.1746	1311.6113	1411.7432	1462.3357	1504.9797	1550.5063	1638.9004	1677.3468	3109.8062	3114.4046	3199.1818	3254.194	3497.8015	3557.3862	3659.6182
NC1=NOC=C1C1CN1	Nc1nocc1[C@H]1CN1	
InChI=1S/C5H7N3O/c6-5-3(2-9-8-5)4-1-7-4/h2,4,7H,1H2,(H2,6,8)	InChI=1S/C5H7N3O/c6-5-3(2-9-8-5)4-1-7-4/h2,4,7H,1H2,(H2,6,8)/t4-/m1/s1
