19
gdb 63893	2.80516	1.7142	1.52977	2.8476	73.75	-0.2455	0.0074	0.2529	955.16	0.159774	-423.021856	-423.014159	-423.013215	-423.053341	31.681	
C	-0.1330144379	 1.5688579675	-0.0138172989	-0.46215
C	 0.0243728249	 0.0498582783	-0.0249846031	 0.444703
O	-1.2587258072	-0.5706741745	-0.0094559395	-0.483896
C	 0.9271762996	-0.5109927957	-1.1756987827	-0.292515
C	 1.9745665003	-1.3365244846	-0.3597643667	 0.027555
O	 1.1638072453	-1.8313152598	 0.7101225729	-0.244812
C	 0.7755724277	-0.5498790804	 1.2157370457	-0.015191
C	 2.1204485045	 0.1597629132	 1.3476723813	-0.088778
C	 2.8713297547	-0.3314981028	 0.362481835	-0.083228
H	 0.8349532599	 2.0759750833	 0.0074661772	 0.120061
H	-0.6636707749	 1.9042918781	-0.9133441211	 0.106047
H	-0.7186648054	 1.8847380001	 0.8555155248	 0.121506
H	-1.7360200678	-0.2820083043	-0.7943083777	 0.272684
H	 0.3325642704	-1.1746783203	-1.8075290738	 0.103626
H	 1.3821718518	 0.2646861051	-1.7962366334	 0.095843
H	 2.4576996338	-2.1553838838	-0.8914768438	 0.080396
H	 0.1478673082	-0.6490621675	 2.0997793999	 0.085432
H	 2.3488162898	 0.9535883107	 2.0452373565	 0.107966
H	 3.8647663926	-0.0372012926	 0.0521491273	 0.10475
151.9076	234.2625	244.731	251.5043	353.0632	385.6236	408.3406	427.1444	531.3809	592.4359	630.3044	727.2722	769.4934	797.1554	852.6715	869.1826	907.9569	924.4907	929.6617	944.253	952.1785	954.3663	991.9482	1048.4942	1095.2731	1100.2287	1129.8476	1156.1261	1208.5975	1238.9317	1249.0061	1267.8512	1306.856	1329.2485	1343.6683	1367.3245	1403.4869	1475.0489	1492.015	1494.0746	1641.4744	3026.3164	3063.5596	3090.1262	3117.0565	3121.9685	3128.1832	3140.647	3216.018	3241.9051	3808.0301
CC1(O)CC2OC1C=C2	C[C@@]1(O)C[C@@H]2O[C@H]1C=C2	
InChI=1S/C7H10O2/c1-7(8)4-5-2-3-6(7)9-5/h2-3,5-6,8H,4H2,1H3	InChI=1S/C7H10O2/c1-7(8)4-5-2-3-6(7)9-5/h2-3,5-6,8H,4H2,1H3/t5-,6+,7-/m1/s1
