17
gdb 28550	2.37137	1.75799	1.01777	1.6432	80.19	-0.1789	-0.0277	0.1512	1130.0923	0.136805	-418.069321	-418.06086	-418.059916	-418.101984	32.23	
C	-0.0373553822	 1.4947265625	 0.0772472209	-0.504348
C	-0.0231927645	 0.0077801143	-0.0369702069	 0.301304
C	-0.0018264041	-0.7945827497	-1.1317620346	-0.221117
C	 0.0070083225	-2.1719922029	-0.7174219588	-0.25167
C	-0.011864623	-2.1914377772	 0.6483430972	 0.353378
N	-0.1007076194	-3.2338758425	 1.5488007124	-0.602358
N	-0.0242772386	-0.852903418	 1.0953536293	-0.151832
C	 0.0515055207	-0.4352581897	 2.4040281644	 0.183161
O	 0.1332819961	-1.1625426342	 3.3717292109	-0.333001
H	 0.8422675733	 1.8978412223	 0.5963333356	 0.12846
H	-0.0414925814	 1.9196628938	-0.929461685	 0.137286
H	-0.9254161761	 1.8779880348	 0.5964148046	 0.130136
H	 0.0054141796	-0.4425124725	-2.1530127075	 0.101544
H	 0.0080131072	-3.0401245931	-1.3576604605	 0.093511
H	 0.2764622489	-4.1047431585	 1.2074384531	 0.251355
H	 0.180436865	-2.9933626682	 2.490185134	 0.275632
H	 0.034137706	 0.6622544887	 2.4917767409	 0.108559
111.3925	174.1734	207.1884	250.0386	256.1094	305.6771	317.0304	376.9892	436.6232	527.2039	606.2476	613.5679	623.6627	687.5912	738.0381	754.3278	822.7656	832.2274	991.3963	1034.1416	1038.13	1053.0415	1065.0592	1118.9023	1264.9214	1270.2991	1332.6444	1354.3918	1419.8206	1442.5845	1458.0652	1478.2842	1498.8401	1600.4799	1635.4853	1666.75	1790.9589	3005.7245	3020.9667	3047.9845	3117.1592	3238.4656	3256.325	3543.0271	3665.9584
CC1=CC=C(N)N1C=O	Cc1ccc(N)n1C=O	
InChI=1S/C6H8N2O/c1-5-2-3-6(7)8(5)4-9/h2-4H,7H2,1H3	InChI=1S/C6H8N2O/c1-5-2-3-6(7)8(5)4-9/h2-4H,7H2,1H3
