18
gdb 101493	2.81244	0.93593	0.78149	5.1189	78.16	-0.2579	-0.0475	0.2104	1463.9841	0.146221	-435.276038	-435.265873	-435.264929	-435.311406	36.461	
C	-0.1609759806	 1.5729312108	-0.3090249309	-0.383134
C	 0.1050725142	 0.0748914056	-0.085383846	-0.004405
C	 0.8635676378	-0.1650753654	 1.2329551024	-0.056838
O	 0.0948318579	 0.2306116623	 2.3466051397	-0.418536
N	-1.1551241212	-0.6544609262	 0.0369498237	-0.286325
C	-1.7546320457	-1.0743714354	-1.0053924114	 0.275466
N	-1.3703073367	-0.9760911139	-2.3260029537	-0.556954
C	-2.9969961702	-1.8065263687	-0.8192242908	 0.269686
N	-3.9910073866	-2.3840146505	-0.7017846142	-0.315263
H	 0.7841203427	 2.1102365031	-0.4347166996	 0.121117
H	-0.7771811823	 1.7512121466	-1.196074134	 0.102747
H	-0.6795189964	 1.9831513576	 0.5599373327	 0.148943
H	 0.7239807955	-0.320731964	-0.9081441893	 0.065017
H	 1.1430375772	-1.2288040565	 1.2914778182	 0.089319
H	 1.7854002709	 0.4264850691	 1.2481548243	 0.102099
H	-0.7610862765	-0.2044121171	 2.2317745205	 0.293404
H	-0.692023066	-0.2738779623	-2.5703103751	 0.275841
H	-2.0558689041	-1.1830855852	-3.0339437464	 0.277816
64.3251	96.4778	105.9698	158.3411	222.666	229.698	272.1752	313.0605	337.4564	378.9753	387.3984	483.145	497.9745	538.6936	581.2391	662.6576	724.0581	826.921	852.1434	931.3818	937.6904	1011.942	1082.8964	1120.3501	1130.994	1159.9482	1231.3296	1324.028	1337.5064	1355.7604	1390.6362	1408.2019	1437.4637	1485.3172	1502.536	1507.216	1636.2148	1722.5361	2360.3105	2955.0019	2983.1639	3040.5029	3071.5364	3105.6531	3138.8048	3604.0578	3719.7888	3757.3934
CC(CO)N=C(N)C#N	C[C@@H](CO)N=C(N)C#N	
InChI=1S/C5H9N3O/c1-4(3-9)8-5(7)2-6/h4,9H,3H2,1H3,(H2,7,8)	InChI=1S/C5H9N3O/c1-4(3-9)8-5(7)2-6/h4,9H,3H2,1H3,(H2,7,8)/t4-/m0/s1
