16
gdb 49460	2.63135	1.70975	1.42441	3.8549	69.67	-0.2366	-0.0503	0.1862	946.7585	0.12394	-437.889494	-437.881939	-437.880995	-437.921641	28.655	
O	-0.5314562189	 0.6280562433	 0.192621704	-0.274878
C	 0.2105110569	 1.2616257622	-0.5257825129	 0.143744
C	 1.4213664413	 1.9944971343	-0.0836039976	-0.098688
C	 1.41986792	 2.7834244502	 1.2081538598	-0.046014
C	 0.3253516945	 2.5642584473	 2.2272176434	-0.35419
C	 0.5293892179	 1.1112630088	 2.7031363211	 0.419894
O	-0.1056566097	 0.5462349295	 3.5473006888	-0.302063
C	 1.7493844673	 0.5446506024	 1.9558656534	-0.275555
N	 2.2671438206	 1.5930119529	 1.0681281016	-0.114253
H	 0.0131478631	 1.3383626301	-1.6167994384	 0.095268
H	 2.0104199828	 2.3972256344	-0.9040568544	 0.106957
H	 1.9376125863	 3.7382421298	 1.188257389	 0.112195
H	 0.4389024809	 3.2429669444	 3.0785351594	 0.137809
H	-0.6907680947	 2.6805468895	 1.8446954083	 0.155411
H	 2.5353360702	 0.298630691	 2.6786628228	 0.139875
H	 1.4795713915	-0.3716308904	 1.4285997417	 0.154487
83.9282	157.6029	208.7195	220.3755	361.144	399.3302	454.3156	456.5986	612.7008	694.4779	702.7908	747.6379	781.7975	805.7414	854.7047	884.6703	968.6269	982.9734	1055.3964	1069.6328	1099.0354	1120.9867	1135.7518	1171.2982	1224.7076	1266.7126	1289.473	1292.201	1367.7468	1387.923	1428.1212	1449.8205	1457.9696	1790.0925	1867.0198	2900.0061	3053.4804	3067.0413	3117.8949	3124.2663	3138.6774	3149.8432
O=CC1C2CC(=O)CN12	O=C[C@H]1[C@H]2CC(=O)CN12	
InChI=1S/C6H7NO2/c8-3-6-5-1-4(9)2-7(5)6/h3,5-6H,1-2H2	InChI=1S/C6H7NO2/c8-3-6-5-1-4(9)2-7(5)6/h3,5-6H,1-2H2/t5-,6+,7?/m1/s1
