17
gdb 47904	2.64386	1.62734	1.17456	2.3336	71.03	-0.2555	-0.0659	0.1896	1042.063	0.136992	-458.969956	-458.962064	-458.96112	-459.002995	29.497	
O	-0.461234784	 0.9473359458	-1.2235889131	-0.306353
C	-0.0720845889	 1.3066474746	-0.1449242202	 0.3793
O	-0.8782773731	 1.243380762	 0.9716731706	-0.254046
C	-1.6818921386	 2.392876385	 1.2679570902	-0.10379
C	-0.8551678719	 3.661555706	 1.4590237147	-0.088192
O	 0.0784518542	 3.6135305923	 2.5203224793	-0.260359
C	 1.018468053	 2.5336234616	 2.5333349544	-0.107298
C	 1.7705604794	 2.3367928746	 1.2325729832	-0.089888
C	 1.3034994533	 1.796314107	 0.0988759205	-0.124636
H	-2.4173777387	 2.5524617478	 0.4673427952	 0.121293
H	-2.2127957952	 2.1358059157	 2.1877126734	 0.127948
H	-0.362257638	 3.9277722424	 0.5124959257	 0.107462
H	-1.5362330121	 4.4822445104	 1.7084617925	 0.12023
H	 1.7259616146	 2.8083653355	 3.3196564457	 0.111764
H	 0.5290626628	 1.59908245	 2.8238507828	 0.128453
H	 2.796611343	 2.6978942079	 1.2198360595	 0.117543
H	 1.9423293003	 1.7288072614	-0.7764568546	 0.12057
40.7493	143.9737	241.8219	259.9484	291.6418	330.1619	348.5871	513.5963	538.4207	561.214	696.556	716.9369	791.9225	837.532	873.5296	905.866	956.6244	975.9555	1026.0213	1043.9993	1091.8782	1131.282	1154.7805	1184.8469	1266.6223	1276.8394	1289.7011	1318.7706	1398.5879	1400.6403	1416.6398	1425.5016	1489.4957	1494.5108	1504.6688	1685.9381	1812.7122	3001.0067	3020.2283	3049.9038	3076.2973	3098.1339	3108.9012	3152.3868	3187.1925
O=C1OCCOCC=C1	O=C1OCCOCC=C1	
InChI=1S/C6H8O3/c7-6-2-1-3-8-4-5-9-6/h1-2H,3-5H2/b2-1-	InChI=1S/C6H8O3/c7-6-2-1-3-8-4-5-9-6/h1-2H,3-5H2/b2-1-
