17
gdb 127383	3.95703	1.1444	1.06947	1.6294	75.35	-0.2328	-0.0005	0.2323	1160.0247	0.138711	-414.180866	-414.173087	-414.172142	-414.213674	28.88	
C	 0.3042197713	 1.5579141012	-0.4761274301	-0.327726
N	 0.0461422002	 0.1715779593	-0.0937018626	-0.088085
C	 1.1828609602	-0.7245250668	 0.0050373113	-0.241316
C	 0.4573144108	-0.3032982839	 1.2417831307	-0.128379
C	 1.1294567448	 0.5613807481	 2.2273954911	 0.406403
N	 2.2358398541	 1.2791150571	 2.0812481652	-0.320651
C	 2.3812131954	 1.8772484774	 3.2947949462	 0.023964
N	 1.4522826628	 1.5799114616	 4.1874668129	-0.211931
N	 0.6566714096	 0.740054038	 3.4828292348	-0.258557
H	 1.2543974763	 1.9581535053	-0.1014405292	 0.143273
H	 0.3028992334	 1.6079401259	-1.5691860659	 0.125258
H	-0.5128123838	 2.1864202037	-0.1078266593	 0.121256
H	 1.0391900858	-1.7290993783	-0.3847339539	 0.117975
H	 2.1801076927	-0.3075372484	-0.1217686868	 0.13962
H	-0.2633817923	-0.9874610792	 1.6862449831	 0.09028
H	 3.1972228348	 2.5447712731	 3.5278883852	 0.128245
H	-0.1605204259	 0.3421272459	 3.9165139975	 0.280373
59.9188	137.2055	185.1409	216.5651	297.5127	359.4352	434.5534	482.5307	567.2149	691.4835	696.8115	734.6521	799.7449	879.1206	911.9386	978.2072	982.6579	1038.4616	1046.821	1101.4259	1124.8806	1132.5771	1136.8285	1172.7935	1213.1402	1219.7051	1238.9968	1310.3338	1328.0121	1396.7211	1421.9426	1450.4031	1490.8366	1495.0302	1507.3798	1518.2137	1585.0377	3018.6654	3090.6251	3097.7435	3105.9858	3118.6742	3188.6656	3261.908	3660.3726
CN1CC1C1=NC=NN1	CN1C[C@H]1c1ncn[nH]1	
InChI=1S/C5H8N4/c1-9-2-4(9)5-6-3-7-8-5/h3-4H,2H2,1H3,(H,6,7,8)	InChI=1S/C5H8N4/c1-9-2-4(9)5-6-3-7-8-5/h3-4H,2H2,1H3,(H,6,7,8)/t4-,9?/m0/s1
