18
gdb 103383	2.62522	1.49985	1.26771	3.6883	71.34	-0.2505	-0.0209	0.2296	1056.883	0.146739	-439.061082	-439.05237	-439.051426	-439.094165	32.726	
C	-0.0801392764	 1.6237247919	-0.1194718272	-0.450993
C	-0.0124666239	 0.1003304579	-0.0975608052	 0.125881
C	-1.4047329026	-0.5155465483	 0.1747209989	-0.10018
O	-1.9106261003	-0.1183601178	 1.4298154344	-0.421685
C	 0.7690989113	-0.6409243582	-1.193249886	-0.076335
C	 2.2078551287	-0.3736897029	-1.1270429142	-0.256983
N	 1.6556807949	-1.3758026566	-0.1599780287	-0.180291
C	 0.9713255781	-0.6037993953	 0.8567697527	 0.384806
O	 1.0479123816	-0.694996787	 2.0473090057	-0.330858
H	 0.9061464298	 2.0870631746	-0.2015216805	 0.116885
H	-0.6866179344	 1.9615534972	-0.9671837593	 0.122997
H	-0.5548541588	 1.9789999507	 0.7977657797	 0.151443
H	-2.1173724836	-0.1570755425	-0.577181882	 0.112168
H	-1.3474820342	-1.611979042	 0.08355041	 0.102477
H	-1.2645989551	-0.3833542312	 2.0980509908	 0.299999
H	 0.3195813065	-1.2180607513	-1.9929623611	 0.118675
H	 2.8524131783	-0.8417097504	-1.863671975	 0.144978
H	 2.5806860199	 0.5697326812	-0.738663613	 0.137017
113.8799	134.0352	176.4189	195.9681	242.1172	250.229	315.5371	391.6525	468.8582	489.1871	511.0215	665.3677	689.9107	754.2461	780.1613	830.2085	896.2437	943.1458	977.707	998.3321	1032.3252	1045.6245	1082.3575	1117.8613	1146.7472	1159.8544	1180.6903	1201.7028	1243.2491	1284.5033	1363.1051	1382.2359	1409.3465	1439.1248	1486.6724	1494.3511	1509.9529	1513.6586	1882.7942	2977.8647	3040.4135	3058.7067	3109.1329	3124.7038	3135.3094	3187.599	3213.8401	3763.1449
CC1(CO)C2CN2C1=O	C[C@@]1(CO)[C@H]2CN2C1=O	
InChI=1S/C6H9NO2/c1-6(3-8)4-2-7(4)5(6)9/h4,8H,2-3H2,1H3	InChI=1S/C6H9NO2/c1-6(3-8)4-2-7(4)5(6)9/h4,8H,2-3H2,1H3/t4-,6-,7?/m1/s1
