19
gdb 106633	2.71328	1.38675	1.24101	1.9418	70.47	-0.2417	0.066	0.3078	1084.0309	0.160034	-460.130881	-460.12267	-460.121725	-460.163562	32.103	
O	-0.0751016777	 1.4294206145	 0.0279755846	-0.425721
C	 0.0001639643	 0.0080350649	 0.0177866062	-0.212226
C	-1.3990514987	-0.5392045342	 0.0554413435	 0.264035
C	-2.3387514901	-0.4763709325	 1.3002941484	-0.279066
C	-3.0884420371	-1.5693269465	 0.5125668552	 0.037669
O	-3.5463479352	-0.8994395778	-0.6815605102	-0.302202
C	-2.3840531017	-0.0964714465	-1.033299547	-0.128388
C	-1.7041010339	-2.0894399043	 0.0603545908	 0.120754
O	-1.6225358542	-2.831152925	-1.1175857321	-0.452745
H	 0.818961568	 1.7789905012	-0.0298945923	 0.290028
H	 0.5051107874	-0.3594449264	-0.8906623929	 0.098599
H	 0.5681428811	-0.3672880672	 0.8839210733	 0.087855
H	-1.8660115825	-0.8478343983	 2.2118714515	 0.10244
H	-2.8735157154	 0.4554577404	 1.487818777	 0.114735
H	-3.8858141712	-2.1954614319	 0.9093889806	 0.081887
H	-2.6294569568	 0.967268635	-0.9879492094	 0.12199
H	-2.0480227426	-0.3494792719	-2.0453736685	 0.098489
H	-1.1478469313	-2.6102532155	 0.8428913416	 0.087897
H	-2.3983506824	-2.5869041379	-1.6402753303	 0.293969
82.3926	153.3441	227.2176	255.7985	283.6631	311.2586	358.7008	473.0582	479.252	513.4153	608.177	668.3447	754.3447	809.6736	846.0994	875.0079	901.0487	945.0336	956.0429	975.6018	995.1249	1059.3941	1078.0121	1116.9507	1127.4954	1169.375	1185.1372	1194.6779	1215.367	1222.3039	1241.2227	1279.3738	1285.7061	1308.9202	1325.16	1389.0211	1434.3351	1465.3839	1491.823	1517.2892	1530.0299	2964.1155	2993.5248	3037.604	3076.8383	3096.2872	3100.0054	3140.3856	3144.2504	3755.2933	3829.1288
OCC12CC(OC1)C2O	OC[C@@]12C[C@@H](OC1)[C@H]2O	
InChI=1S/C6H10O3/c7-2-6-1-4(5(6)8)9-3-6/h4-5,7-8H,1-3H2	InChI=1S/C6H10O3/c7-2-6-1-4(5(6)8)9-3-6/h4-5,7-8H,1-3H2/t4-,5-,6+/m1/s1
