18
gdb 107696	3.19196	1.36741	1.13856	1.0116	72.09	-0.2362	0.057	0.2932	1111.5849	0.146311	-438.972423	-438.964105	-438.963161	-439.005255	31.899	
C	 0.1771365854	 1.3279557904	-0.1500474178	-0.531293
C	 0.0585826825	-0.1502205155	 0.0031199262	 0.491261
O	 0.6015749279	-1.0395705408	-1.0276474232	-0.397527
C	 0.0351489411	-1.9668966426	-0.0450430211	 0.449505
C	 0.1986977291	-3.426684608	-0.3297540251	-0.209642
O	 1.568309037	-3.7717853414	-0.4265086311	-0.413061
C	 0.4431288065	-1.0898413923	 1.1876375716	-0.174955
N	-0.9362296263	-1.0035353117	 1.7697709399	-0.343236
C	-1.1881850928	-1.0509728609	 0.2926643348	-0.198952
H	 1.2280994855	 1.6276293184	-0.2039548631	 0.135232
H	-0.3269856913	 1.6645510974	-1.0608839527	 0.135187
H	-0.2854551124	 1.8183856826	 0.7113611087	 0.147954
H	-0.2288526599	-4.0180267341	 0.48780556	 0.11362
H	-0.3526484089	-3.6791275784	-1.2496906599	 0.102984
H	 1.9713547847	-3.1254981593	-1.0185670658	 0.296806
H	 1.3580548274	-1.1115882219	 1.7799878786	 0.094041
H	-1.1945017279	-1.8934153217	 2.2030575827	 0.213719
H	-2.1798430478	-1.0188370702	-0.1607636425	 0.088357
88.7505	129.6781	213.3084	222.2144	255.702	286.2607	374.1221	424.1961	535.6016	558.5867	633.157	690.1167	746.1793	765.8296	790.8812	849.2122	874.7959	917.1033	972.4013	1021.081	1038.0863	1055.1042	1085.1303	1098.9536	1144.8352	1150.6561	1152.552	1183.5173	1242.4369	1275.3708	1283.4066	1288.7535	1368.4676	1393.6064	1427.8144	1458.6391	1476.6045	1489.5323	1491.1321	2980.4584	3042.2012	3068.1133	3112.0379	3114.265	3122.6585	3123.8359	3411.3334	3794.2278
CC12OC3(CO)C1NC23	C[C@@]12O[C@@]3(CO)[C@@H]1N[C@@H]23	
InChI=1S/C6H9NO2/c1-5-3-6(2-8,9-5)4(5)7-3/h3-4,7-8H,2H2,1H3	InChI=1S/C6H9NO2/c1-5-3-6(2-8,9-5)4(5)7-3/h3-4,7-8H,2H2,1H3/t3-,4+,5-,6+
