16
gdb 34978	4.23816	1.35597	1.29846	2.7837	71.45	-0.2607	0.0226	0.2834	975.8828	0.127063	-400.718338	-400.711957	-400.711013	-400.749166	25.865	
N	-0.2058415795	-1.2379983357	-0.1443286924	-0.334863
C	-0.1262420988	-0.086474997	-0.0721019796	 0.270419
C	-0.0133407566	 1.3605615364	 0.0236200422	-0.156993
C	-0.1301532599	 2.061254414	 1.4172131215	-0.106327
C	 0.9605231747	 1.3433173687	 2.2352155788	-0.225219
C	 2.1050666998	 1.8778743885	 1.3535386852	 0.071735
O	 1.9947894152	 3.3155739737	 1.5984980939	-0.286606
C	 0.8111611182	 3.2191734038	 0.8126986532	 0.096906
C	 1.365286436	 2.0551797107	-0.0342125512	-0.088897
H	-0.6823930684	 1.8231867507	-0.7084837034	 0.126466
H	-1.1028081043	 2.2496821195	 1.8644966211	 0.0889
H	 1.0645143757	 1.7138587286	 3.2559220447	 0.119115
H	 0.8461361959	 0.2574300185	 2.2411238673	 0.132049
H	 3.1156453782	 1.4880663647	 1.4521379838	 0.096698
H	 0.3871281227	 4.1566846917	 0.4584943415	 0.098398
H	 1.9544555512	 2.1704057634	-0.9404577465	 0.09822
128.273	157.413	373.0023	421.2071	505.7246	524.3406	582.2807	716.7089	730.5111	761.3608	822.5307	844.0467	854.7735	913.0549	931.4855	957.4514	973.3722	990.1037	1012.9216	1043.7877	1059.5726	1073.1818	1127.6003	1150.9416	1165.39	1187.0171	1220.5589	1238.8119	1257.8044	1304.9703	1310.7033	1327.1412	1365.4795	1487.8007	2351.0582	3070.5854	3082.9738	3139.9191	3142.377	3150.0312	3154.689	3161.2771
N#CC1C2CC3OC2C13	N#C[C@H]1[C@H]2C[C@@H]3O[C@H]2[C@H]13	
InChI=1S/C7H7NO/c8-2-4-3-1-5-6(4)7(3)9-5/h3-7H,1H2	InChI=1S/C7H7NO/c8-2-4-3-1-5-6(4)7(3)9-5/h3-7H,1H2/t3-,4+,5+,6-,7-/m1/s1
