15
gdb 126362	2.98939	1.35867	0.94486	1.9747	70.33	-0.2585	-0.0956	0.1628	1185.6368	0.112998	-450.137581	-450.129591	-450.128647	-450.170834	28.692	
C	-0.0772980166	 1.5294975465	 0.1322003966	-0.381969
C	 0.0263175406	 0.0190565625	-0.0521620325	-0.256022
C	 0.738525176	-0.4221599398	-1.2981919786	 0.392043
N	 1.2155301514	 0.4466386237	-2.1339326335	-0.334872
C	 1.8619809122	-0.0268454483	-3.2649939599	 0.46917
O	 2.3592883214	 0.6389577379	-4.136140917	-0.354947
N	 1.9010750867	-1.438801581	-3.3322552391	-0.247337
N	 1.3961384404	-2.2918583605	-2.4475608932	-0.019074
N	 0.8103323958	-1.8168785908	-1.422495919	-0.235577
H	 0.9123189174	 1.9909471299	 0.1753244709	 0.137208
H	-0.6150570427	 1.9928356557	-0.6986034516	 0.137293
H	-0.6079876505	 1.7580499486	 1.0602549613	 0.116036
H	 0.5410452619	-0.4559016148	 0.7938471515	 0.142166
H	-0.9649012345	-0.4537948962	-0.0678699636	 0.142184
H	 2.3557208202	-1.8697136035	-4.1277192623	 0.2937
66.4027	117.9988	159.2416	184.528	237.6107	404.1076	412.5344	496.547	567.3707	607.0679	615.5448	747.4048	753.8635	791.9686	831.2794	936.1437	987.974	1019.4987	1089.3136	1102.0266	1104.6013	1204.8464	1251.9442	1275.6434	1377.9072	1398.5528	1421.5867	1447.6277	1493.0591	1498.6748	1535.0653	1632.1442	1848.0618	3028.5833	3051.4759	3054.4949	3126.9921	3130.4471	3590.168
CCC1=NC(=O)NN=N1	CCc1nc(=O)[nH]nn1	
InChI=1S/C4H6N4O/c1-2-3-5-4(9)7-8-6-3/h2H2,1H3,(H,5,6,7,9)	InChI=1S/C4H6N4O/c1-2-3-5-4(9)7-8-6-3/h2H2,1H3,(H,5,6,7,9)
