14
gdb 129032	2.79831	1.67416	1.04748	5.4066	75.35	-0.2356	-0.0864	0.1492	1052.6578	0.102535	-432.888945	-432.881627	-432.880682	-432.92138	26.992	
N	-0.070781172	 1.3374133093	 0.0109002443	-0.547512
C	 0.0394439626	 0.0613497041	 0.0032034948	 0.402591
C	 1.2724139177	-0.7151506115	-0.0080964192	-0.141422
C	 1.2466717188	-2.0604398259	-0.0156878744	-0.116429
C	-0.031081431	-2.7234639385	-0.0123378062	 0.003659
N	-1.1597072468	-2.09760001	-0.0023262381	-0.148128
N	-1.1390908123	-0.7414794457	 0.0054058065	-0.137296
C	-2.4232347174	-0.1195227379	 0.0164975155	 0.175127
O	-3.4518761473	-0.7316334306	 0.0187702355	-0.258434
H	 0.8501401479	 1.7707459911	 0.0081677699	 0.222626
H	 2.2005268692	-0.1537557285	-0.0100681724	 0.123736
H	 2.1570458175	-2.6496401886	-0.0241657996	 0.126958
H	-0.0986861	-3.806336139	-0.0182289493	 0.137831
H	-2.3204573968	 0.9713512117	 0.0222815226	 0.156693
55.2603	133.7595	243.1762	258.7971	373.2115	392.984	519.9666	542.9356	576.9147	631.6026	735.4518	776.3037	826.0235	850.746	883.8707	928.5925	1010.9572	1027.4918	1050.95	1071.8158	1152.2899	1180.4189	1213.8307	1355.5494	1390.5987	1421.5631	1434.1483	1595.811	1650.3945	1706.1482	1838.275	3092.5549	3182.7567	3191.053	3205.7852	3505.6436
N=C1C=CC=NN1C=O	[NH]C1=CCC=NN1C=O	
InChI=1S/C5H5N3O/c6-5-2-1-3-7-8(5)4-9/h1-4,6H	InChI=1S/C5H6N3O/c6-5-2-1-3-7-8(5)4-9/h2-4,6H,1H2
