17
gdb 22401	5.77408	0.68821	0.66539	3.1805	75.89	-0.2507	-0.003	0.2478	1635.0111	0.134797	-455.114203	-455.105126	-455.104182	-455.149341	32.579	
O	-0.239663404	 1.4283743935	 0.1320296284	-0.393027
N	 0.0286609431	 0.0477816466	 0.100041282	-0.227592
C	-1.0386548377	-0.6164693827	-0.0430737737	 0.418607
C	-2.5036691461	-0.2949217048	-0.2596077239	-0.343884
C	-2.6890952255	-1.784357805	-0.7003330057	 0.052316
C	-1.2463380228	-2.1093337546	-0.1811670632	-0.337017
N	-3.7916165089	-2.5240164897	-0.1435497724	-0.285327
C	-4.6941866122	-3.2108599448	-0.9008128422	 0.154478
O	-4.6814635244	-3.2848342233	-2.1100359633	-0.317064
H	 0.6431178863	 1.8049122377	 0.2148171562	 0.308195
H	-3.0262721662	-0.0548442043	 0.6739402335	 0.119701
H	-2.7360470344	 0.4810548698	-0.9922999908	 0.13998
H	-2.7667605476	-1.8859475729	-1.7821177244	 0.136827
H	-0.5822203057	-2.6525096018	-0.8570606405	 0.135148
H	-1.2588322901	-2.6267798483	 0.7855259691	 0.116308
H	-3.9097718621	-2.5380100739	 0.8580460783	 0.245479
H	-5.4601152716	-3.7061648015	-0.2718021672	 0.076874
35.795	50.3636	157.6301	203.7589	227.4957	269.36	341.8135	389.6665	417.9894	472.9354	534.1804	539.6166	658.1898	760.5467	787.8141	831.2861	938.1288	957.545	971.7811	1024.4953	1042.5659	1047.6781	1100.689	1171.2052	1181.7409	1208.6186	1236.4128	1258.0988	1279.4724	1361.8003	1406.1589	1432.4585	1450.1216	1471.5064	1533.4659	1790.8321	1808.487	2938.1933	3039.1153	3044.7649	3107.9938	3111.4554	3138.5908	3619.8595	3817.2469
ON=C1CC(C1)NC=O	ON=C1C[C@@H](C1)NC=O	
InChI=1S/C5H8N2O2/c8-3-6-4-1-5(2-4)7-9/h3-4,9H,1-2H2,(H,6,8)	InChI=1S/C5H8N2O2/c8-3-6-4-1-5(2-4)7-9/h3-4,9H,1-2H2,(H,6,8)/t4-
