14
gdb 51939	3.76137	0.57366	0.53544	3.4665	71.82	-0.2873	-0.0138	0.2735	1947.889	0.098557	-436.678847	-436.669307	-436.668363	-436.716589	30.979	
O	 0.4068643515	 0.4813990915	-1.1547439987	-0.260369
C	 0.4521095606	 1.5989872301	-0.7439071478	 0.181504
O	 0.7789648099	 1.8860592298	 0.5368826942	-0.166265
C	 0.8513043274	 3.2767284911	 0.8888890332	-0.250403
C	 2.1690658162	 3.8446872064	 0.6333980214	 0.138031
C	 3.2557786373	 4.3072321729	 0.4118489629	 0.057207
C	 4.5803733245	 4.8630092646	 0.1481315358	-0.471076
C	 4.5699538859	 5.9071596494	-0.8848698008	 0.279382
N	 4.5712588145	 6.7305958461	-1.6937887871	-0.292862
H	 0.2256951398	 2.501412023	-1.3442744123	 0.088292
H	 0.0822058704	 3.8452001362	 0.3496443415	 0.150477
H	 0.6081137764	 3.3205191769	 1.9536957113	 0.163607
H	 5.0079755796	 5.2869562807	 1.0655509369	 0.189054
H	 5.2654752759	 4.0667753314	-0.1699721107	 0.193423
13.7543	36.6696	85.0871	114.8967	171.4245	230.3462	315.5864	354.0782	372.3634	382.6004	476.8882	571.2602	681.8509	798.257	929.5995	934.1342	985.1601	1031.5904	1045.5366	1142.8155	1166.4382	1234.4629	1298.8502	1338.0137	1389.6002	1431.1979	1443.9963	1481.4826	1876.1178	2372.8424	2384.8791	2953.2561	3027.0796	3030.2535	3061.8927	3097.0445
O=COCC#CCC#N	O=COCC#CCC#N	
InChI=1S/C6H5NO2/c7-4-2-1-3-5-9-6-8/h6H,2,5H2	InChI=1S/C6H5NO2/c7-4-2-1-3-5-9-6-8/h6H,2,5H2
