17
gdb 28588	3.76441	1.13735	0.93338	3.242	78.84	-0.1813	0.0252	0.2065	1244.587	0.137765	-418.006321	-417.998176	-417.997232	-418.039428	30.711	
N	 0.2814696881	 1.2754540294	-0.2011826398	-0.595054
C	-0.0142909577	-0.0755435221	-0.0843800497	 0.361549
C	-1.1092692638	-0.7727310444	 0.3285218115	-0.257213
C	-0.7126495365	-2.1546210483	 0.3252589111	-0.266757
C	 0.5747157782	-2.2025481046	-0.1004460533	 0.36747
O	 1.0177990291	-0.9155057385	-0.3497780319	-0.223046
C	 1.5289867709	-3.2908986163	-0.3242101342	-0.103397
C	 2.621358153	-3.1735909333	-1.3299088411	-0.241381
N	 2.9425764411	-3.169318329	 0.1057898492	-0.326911
H	 0.8858974884	 1.4793723129	-0.9878341466	 0.254737
H	-0.549426843	 1.849746733	-0.2349502325	 0.256276
H	-2.0688099096	-0.363203229	 0.5997939202	 0.097535
H	-1.3192553801	-3.0041622917	 0.5984987256	 0.107166
H	 1.1004170034	-4.2714999176	-0.1361999732	 0.096773
H	 2.9520833928	-4.0549931326	-1.872698893	 0.117539
H	 2.6906726285	-2.2407576003	-1.8817374106	 0.117298
H	 3.1060123772	-2.2110122477	 0.4081392184	 0.237415
68.3711	138.781	153.6747	180.6641	276.7506	370.8464	421.7702	458.5568	620.1376	649.6817	669.4903	706.8066	736.6168	762.8793	800.9217	822.3316	871.7668	960.9863	971.0674	982.1523	1014.732	1036.1401	1090.565	1109.9717	1138.0329	1169.0158	1223.5967	1262.474	1275.3901	1299.1358	1304.9553	1391.3895	1441.6936	1503.7438	1610.5838	1647.5584	1674.6918	3110.3422	3149.1938	3199.9538	3250.8152	3265.9964	3494.7584	3539.5653	3643.3771
NC1=CC=C(O1)C1CN1	Nc1ccc(o1)[C@H]1CN1	
InChI=1S/C6H8N2O/c7-6-2-1-5(9-6)4-3-8-4/h1-2,4,8H,3,7H2	InChI=1S/C6H8N2O/c7-6-2-1-5(9-6)4-3-8-4/h1-2,4,8H,3,7H2/t4-/m1/s1
