17
gdb 14622	13.37579	0.57338	0.56405	3.2521	69.36	-0.259	-0.029	0.23	1858.1187	0.139637	-401.002396	-400.992913	-400.991969	-401.038852	30.694	
N	-0.0611279428	 1.3066338297	 0.1994490041	-0.434825
C	-0.025464139	 0.04807501	 0.1213065035	 0.128413
O	-1.1701102724	-0.652417969	 0.0006377302	-0.183123
C	-1.0387551472	-2.0616467491	-0.1782282537	-0.070059
C	-2.418837516	-2.6808033498	-0.0124999267	-0.20844
C	-2.3939215818	-4.2040155837	-0.213176981	-0.280479
C	-3.7847470075	-4.7992305212	-0.1645873738	 0.161356
O	-4.1184104956	-5.712511006	 0.5432642443	-0.231511
H	 0.8819331218	 1.6753283025	 0.3026088903	 0.230555
H	 0.8746172098	-0.582690858	 0.1490948299	 0.084185
H	-0.6385833155	-2.2761119614	-1.1795271757	 0.110331
H	-0.3380333623	-2.4744514191	 0.5608412807	 0.111415
H	-2.7987391241	-2.4356948124	 0.9851765171	 0.131042
H	-3.0997436131	-2.2144435675	-0.733926007	 0.125294
H	-1.9778985752	-4.4328858966	-1.2060709882	 0.123196
H	-1.7753938595	-4.7075662286	 0.5356657652	 0.12638
H	-4.5117119996	-4.3146698797	-0.8584192593	 0.076268
33.9059	56.024	81.6244	88.0049	113.1629	163.4786	265.0131	300.8209	439.193	524.4172	637.7118	755.8218	812.4541	824.4332	924.1097	998.0104	1003.1557	1045.3482	1056.1731	1116.074	1140.7042	1154.0663	1215.0196	1259.5216	1291.0412	1301.5394	1323.0634	1360.1435	1411.5919	1429.5764	1436.0449	1464.7171	1498.0666	1520.3168	1750.9031	1840.5778	2856.1212	2992.3253	3006.729	3018.0074	3034.9047	3044.6627	3083.5773	3101.808	3519.5678
N=COCCCC=O	[NH][CH]OCCCC=O	
InChI=1S/C5H9NO2/c6-5-8-4-2-1-3-7/h3,5-6H,1-2,4H2	InChI=1S/C5H9NO2/c6-5-8-4-2-1-3-7/h3,5-6H,1-2,4H2
