18
gdb 31824	4.82426	0.96915	0.81322	1.87	85.47	-0.1774	0.0063	0.1838	1385.024	0.149178	-402.009984	-402.00156	-402.000616	-402.042761	32.594	
C	 0.0275875887	 1.4500974444	 0.0972488514	-0.321221
N	-0.1671407013	 0.0291693011	-0.1041971501	-0.371173
C	 0.5424386464	-0.6516552808	-1.0972325521	 0.333556
C	 1.1830404099	 0.0076438613	-2.1529596759	-0.183324
C	 1.8355215306	-0.7128654916	-3.1536303083	-0.246831
C	 1.8741457947	-2.1026432379	-3.1200422902	 0.364554
O	 2.504032889	-2.8602825445	-4.0718894953	-0.453118
C	 1.2462334893	-2.7711910944	-2.0670650502	-0.169573
C	 0.5917707578	-2.0561358094	-1.077383723	-0.183956
H	 1.083115107	 1.7381840289	 0.2331668326	 0.11056
H	-0.3659014201	 2.0170450006	-0.7541345749	 0.131729
H	-0.5320979439	 1.7608687991	 0.9825804851	 0.121384
H	-0.2452191826	-0.4937139769	 0.7545647778	 0.231804
H	 1.1773580183	 1.0892618977	-2.2076657288	 0.08783
H	 2.3236996593	-0.1762760059	-3.9636815472	 0.077537
H	 2.885217424	-2.2732241652	-4.732229455	 0.291751
H	 1.2787527201	-3.8545855993	-2.0391230411	 0.098469
H	 0.1010571226	-2.5919244472	-0.2693614648	 0.080021
89.0148	151.462	210.1155	236.072	321.7283	352.4903	378.1262	421.4143	434.6411	457.4054	535.2088	580.6126	654.9422	726.784	765.1537	808.8526	839.0028	853.9942	896.3623	935.0508	1017.1729	1081.3496	1119.5179	1152.3021	1176.5476	1196.6055	1197.3841	1283.8166	1303.7615	1344.9886	1371.1611	1443.1429	1468.0747	1483.8271	1516.2741	1530.9814	1555.5361	1634.6923	1669.8937	2967.4505	3054.7069	3115.7887	3150.5687	3160.3675	3197.1269	3204.9181	3607.4529	3827.7433
CNC1=CC=C(O)C=C1	CNc1ccc(O)cc1	
InChI=1S/C7H9NO/c1-8-6-2-4-7(9)5-3-6/h2-5,8-9H,1H3	InChI=1S/C7H9NO/c1-8-6-2-4-7(9)5-3-6/h2-5,8-9H,1H3
