17
gdb 56998	2.94809	1.26002	0.99052	4.3362	72.01	-0.2503	0.006	0.2563	1181.4183	0.136051	-417.956727	-417.948314	-417.94737	-417.990284	31.125	
O	-0.0795183477	 1.3992397361	-0.0191866283	-0.407019
C	 0.0255824529	-0.0100318295	-0.1196655208	-0.037718
C	 0.782931804	-0.4112264415	-1.3226946232	 0.270137
N	 1.4024850366	-0.6872850549	-2.2580315451	-0.314864
C	 0.6529242262	-0.6094524158	 1.1452089498	 0.044949
C	-0.1007364176	-0.4533769016	 2.4915350673	-0.290534
C	-0.0375117753	-1.9780362008	 2.581744199	-0.003849
C	-0.6808525948	-2.5987450874	 1.4138654028	-0.241574
N	 0.7071908194	-2.110801484	 1.2550737979	-0.142715
H	 0.8109914152	 1.7691794682	 0.0009315605	 0.298126
H	-1.0029759477	-0.3635262585	-0.2377754433	 0.136195
H	 1.6822593409	-0.2434899798	 1.2150154407	 0.096702
H	 0.4875833394	 0.0675287705	 3.2473964781	 0.119846
H	-1.1015469521	-0.0133419345	 2.460553269	 0.117656
H	 0.269316345	-2.5447781528	 3.4538710188	 0.105654
H	-0.7301650895	-3.6820056611	 1.375539443	 0.133797
H	-1.5084227449	-2.0976646726	 0.9174269639	 0.11521
51.2503	120.9118	168.4434	213.067	259.3517	316.4661	368.2902	408.9572	462.9899	543.3858	608.0042	730.0577	760.9536	788.404	838.9521	921.9425	955.8277	973.3349	1005.2435	1054.4917	1072.6351	1080.6847	1106.0304	1118.2826	1130.4609	1173.0054	1225.7478	1257.636	1266.785	1284.2649	1303.624	1364.2685	1393.8227	1420.6857	1489.39	1507.5296	2356.7866	3051.9707	3064.1863	3079.641	3113.892	3129.8119	3174.9971	3204.5587	3798.5526
OC(C#N)C1CC2CN12	O[C@@H](C#N)[C@H]1C[C@H]2CN12	
InChI=1S/C6H8N2O/c7-2-6(9)5-1-4-3-8(4)5/h4-6,9H,1,3H2	InChI=1S/C6H8N2O/c7-2-6(9)5-1-4-3-8(4)5/h4-6,9H,1,3H2/t4-,5+,6-,8?/m0/s1
