18
gdb 11508	4.84953	1.09663	0.95356	4.0902	72.94	-0.2511	0.0394	0.2904	1210.774	0.153481	-343.969668	-343.961069	-343.960125	-344.003195	30.826	
C	 0.0987387613	 1.5951936704	-0.0521625553	-0.39276
C	 0.0888461436	 0.0557856605	-0.0072881662	-0.138765
C	 0.7379449862	-0.6035734743	-1.2458758063	-0.140772
N	-0.0128622281	-0.2755444704	-2.4491130038	-0.071995
C	 0.5361170688	 0.7624904336	-3.3212265293	-0.221666
C	 0.6045473481	-0.6702696349	-3.7117716115	-0.223674
C	 0.7542121252	-0.4301093357	 1.20574391	 0.261008
N	 1.2926535656	-0.8119739232	 2.1546251947	-0.323068
H	 1.1218097179	 1.9777344171	-0.1168354489	 0.130448
H	-0.4626188223	 1.940609513	-0.9222140178	 0.141277
H	-0.3628868271	 2.0112416501	 0.8464988426	 0.137431
H	-0.9524022841	-0.2863744973	 0.0290526557	 0.137832
H	 1.7994388697	-0.3053627386	-1.3077069528	 0.099647
H	 0.7135953522	-1.6904562251	-1.1149756584	 0.125736
H	-0.1904918812	 1.4264056112	-3.7803897686	 0.122882
H	 1.4666981682	 1.2411411602	-3.0208612592	 0.11636
H	 1.5815118568	-1.1492547659	-3.6734294681	 0.116348
H	-0.0716563909	-1.0741899205	-4.459427287	 0.123731
68.4706	96.1575	127.8945	204.8584	233.8084	294.4506	311.4596	371.4958	451.246	544.0657	568.9105	773.2277	819.0012	839.8151	898.1408	926.0636	935.36	1028.6405	1038.8937	1080.5929	1113.1494	1120.9586	1124.4882	1152.8243	1179.5761	1194.0103	1273.1168	1309.0873	1322.7565	1347.3172	1391.0081	1413.1484	1485.6225	1493.59	1498.393	1499.815	1522.4208	2356.4532	2951.6227	3045.3026	3052.0255	3071.6592	3096.5893	3101.2108	3123.8905	3141.9432	3180.712	3195.0256
CC(CN1CC1)C#N	C[C@@H](CN1CC1)C#N	
InChI=1S/C6H10N2/c1-6(4-7)5-8-2-3-8/h6H,2-3,5H2,1H3	InChI=1S/C6H10N2/c1-6(4-7)5-8-2-3-8/h6H,2-3,5H2,1H3/t6-/m1/s1
