17
gdb 56066	5.30815	0.60874	0.57396	5.6993	76.88	-0.2404	-0.0256	0.2147	1889.8143	0.132294	-455.17896	-455.168657	-455.167713	-455.216554	34.118	
C	-0.3327606403	 1.6570586194	-0.0957309181	-0.500035
C	 0.1544981136	 0.2145295718	-0.0956396569	 0.409924
O	 1.3154382713	-0.0988290764	-0.1578920499	-0.297742
N	-0.8977092513	-0.7055535744	-0.0146350119	-0.356654
C	-0.8462714379	-2.0942012042	 0.0132585467	 0.107884
N	 0.2102771937	-2.7850489487	-0.0274024528	-0.186013
C	 0.0631928801	-4.2207161134	-0.0009299101	-0.230519
C	 0.7950967327	-4.8537186391	-1.1793633488	 0.154566
O	 0.4915822996	-5.9112811411	-1.6650708096	-0.23806
H	 0.533187728	 2.3136359088	-0.1666477754	 0.159615
H	-1.0003958706	 1.8465259921	-0.9432043381	 0.141591
H	-0.8846177245	 1.8848869702	 0.8226516752	 0.14175
H	-1.8259949364	-0.3158352899	 0.0280441757	 0.255067
H	-1.8555237118	-2.5285517775	 0.0792084486	 0.091033
H	 0.5568555346	-4.6114604127	 0.9033362583	 0.139064
H	-0.9766857609	-4.586063597	 0.008653482	 0.106717
H	 1.6545958902	-4.2528319777	-1.5467397349	 0.101813
40.8539	49.2751	64.4977	85.6012	117.4482	141.6059	250.2117	327.0937	341.8004	405.1667	480.9705	542.9503	564.1256	621.1783	735.007	766.8303	874.6028	980.5506	991.1788	1039.9201	1049.9507	1084.1756	1113.8942	1177.9304	1225.0206	1247.3164	1321.8365	1385.1149	1402.8114	1427.129	1455.6564	1468.894	1483.03	1530.4656	1762.8972	1836.5003	1841.9405	2911.8417	2967.0525	2997.0681	3011.5502	3040.3854	3102.5651	3168.313	3636.2206
CC(=O)NC=NCC=O	CC(=O)NC=NCC=O	
InChI=1S/C5H8N2O2/c1-5(9)7-4-6-2-3-8/h3-4H,2H2,1H3,(H,6,7,9)	InChI=1S/C5H8N2O2/c1-5(9)7-4-6-2-3-8/h3-4H,2H2,1H3,(H,6,7,9)
