14
gdb 24468	4.01006	1.71364	1.20059	6.5576	78.61	-0.2263	-0.0447	0.1816	940.1604	0.107171	-395.806678	-395.800885	-395.799941	-395.836702	23.576	
N	 0.000520232	 1.3189299175	 0.0097491803	-0.293974
C	 1.1332365863	 2.0880899481	 0.0026420895	 0.008998
C	 2.376359985	 1.5116796694	-0.0129972673	-0.251817
C	 2.4511320574	 0.1061159754	-0.0214972244	 0.29756
N	 3.4920673331	-0.7314188579	-0.0365810181	-0.364304
C	 2.8799796043	-1.9543329077	-0.0371049674	 0.015885
N	 1.5463987195	-2.0016531561	-0.0240711521	-0.359958
C	 1.222601465	-0.675741602	-0.0135008896	 0.234349
C	 0.0083382345	-0.0415507949	 0.002163779	-0.086406
H	-0.8909402837	 1.7894618209	 0.0212769806	 0.277603
H	 0.9686764846	 3.1568466204	 0.0101783758	 0.138691
H	 3.2642219984	 2.1317401853	-0.0184821713	 0.124403
H	 3.4727930232	-2.8621513432	-0.0481101277	 0.107147
H	-0.9520607997	-0.5404960553	 0.0090344726	 0.151823
231.2429	256.9561	419.6509	429.2364	562.4005	583.5772	626.885	647.375	652.9578	775.688	792.0407	845.7695	896.7089	912.0818	941.1553	943.4789	964.7801	1022.9179	1141.1393	1178.0206	1219.3814	1266.7236	1282.765	1320.4804	1370.3215	1421.2862	1442.9799	1522.1706	1568.254	1624.9045	1664.3677	3210.0499	3211.1612	3221.2367	3233.1669	3639.4897
N1C=CC2=NC=NC2=C1	[nH]1ccc2ncnc2c1	
InChI=1S/C6H5N3/c1-2-7-3-6-5(1)8-4-9-6/h1-4,7H	InChI=1S/C6H5N3/c1-2-7-3-6-5(1)8-4-9-6/h1-4,7H
