18
gdb 41198	2.97191	1.76168	1.5768	2.0496	72.6	-0.2365	0.0339	0.2703	917.1337	0.149613	-438.937	-438.930218	-438.929273	-438.967837	28.047	
C	-0.016705422	 1.5854761045	 0.0947648494	-0.285823
N	 1.5200360166	 1.490574449	-0.000591898	-0.366257
C	 1.2424841427	 0.3096357341	-0.8993551035	 0.042947
C	 1.2059743248	-1.2506872526	-1.1449282011	-0.025191
C	 1.6812933647	-2.1306332747	-0.0145618607	-0.063401
O	 1.4585226759	-1.5092094221	 1.2346744269	-0.258764
C	 0.323437236	-0.6528348676	 1.2631051746	-0.078207
C	 0.0556652429	 0.0262193793	-0.0812472121	 0.33757
O	-0.2827699252	-1.0933165983	-1.0094072306	-0.368409
H	-0.3801941786	 1.9901562942	 1.0433028539	 0.116597
H	-0.4700750084	 2.1057924683	-0.7557913521	 0.115908
H	 1.9358289234	 2.2780151112	-0.4940324195	 0.224853
H	 0.8978886678	 0.6959650583	-1.868536591	 0.091488
H	 1.4773185881	-1.6207140829	-2.1364461471	 0.090951
H	 1.1582749322	-3.0982274565	-0.0833236681	 0.101467
H	 2.7592337484	-2.3155118509	-0.0930834857	 0.111131
H	-0.5882233725	-1.2176980901	 1.5189388177	 0.096553
H	 0.5253235333	 0.0747320267	 2.0515803768	 0.116589
160.9994	221.0864	292.8975	357.1573	425.1082	458.0916	519.8182	535.7852	649.7039	704.1302	765.7303	796.3765	837.2797	873.7195	885.2728	924.1272	939.0179	989.5253	995.3686	1017.1854	1057.2138	1083.0808	1105.3978	1147.5255	1172.9925	1192.944	1212.8572	1248.362	1262.1948	1276.1724	1305.6894	1315.3371	1362.0126	1380.9137	1426.5492	1476.693	1480.9937	1494.6636	1503.5261	2971.7655	2979.2464	2984.7992	3037.9564	3057.2991	3091.9303	3103.4351	3111.4825	3481.1617
C1NC2C3COCC12O3	C1N[C@H]2[C@H]3COC[C@@]12O3	
InChI=1S/C6H9NO2/c1-4-5-6(9-4,2-7-5)3-8-1/h4-5,7H,1-3H2	InChI=1S/C6H9NO2/c1-4-5-6(9-4,2-7-5)3-8-1/h4-5,7H,1-3H2/t4-,5+,6+/m1/s1
