16
gdb 34684	2.75289	1.86135	1.44244	0.648	73.87	-0.2327	0.0234	0.2561	922.7463	0.124144	-400.613166	-400.606013	-400.605068	-400.644502	28.517	
C	-0.5255350705	-1.2337380307	-0.2076336615	-0.435968
C	-0.2074935217	-0.091718076	-0.0043209999	 0.335477
C	-0.0022205613	 1.3279146324	 0.1093692605	-0.183329
C	 0.49669343	 2.1057764109	 1.2651071337	-0.06481
C	 1.7083944252	 1.4978261982	 1.991027464	 0.095966
O	 1.7797334632	 0.0620015022	 2.0715816986	-0.290644
C	 2.6086188858	 0.0009648088	 0.8734474104	-0.101671
C	 2.4490935724	 1.5134473972	 0.6572946249	-0.025874
N	 1.2521410859	 2.1165733592	-0.0709732817	-0.187737
H	-0.7738563031	-2.2575185877	-0.34232922	 0.198849
H	-0.7849079919	 1.8677793101	-0.4243975638	 0.133818
H	-0.0379585787	 2.9850054472	 1.61507863	 0.100784
H	 2.0265194308	 2.0035599714	 2.9050578565	 0.090979
H	 3.6387933696	-0.2780016894	 1.1293355472	 0.10528
H	 2.2130164558	-0.681557015	 0.120754216	 0.130068
H	 3.3325141084	 2.1109187313	 0.4418508251	 0.098814
129.592	166.3779	241.5336	302.3269	375.7682	434.134	577.9085	616.8193	625.243	664.3813	682.4809	705.6437	743.2184	850.1227	883.8021	916.2171	923.1424	929.1815	966.763	996.3078	1057.1727	1071.9566	1079.2603	1108.973	1161.5077	1205.7532	1238.1435	1252.3914	1294.5741	1311.6627	1351.2694	1353.0686	1415.2946	1510.3122	2229.8731	3023.0075	3087.8645	3103.2441	3125.4975	3134.3411	3145.0536	3501.8904
C#CC1C2C3OCC3N12	C#C[C@H]1[C@H]2[C@H]3OC[C@H]3N12	
InChI=1S/C7H7NO/c1-2-4-6-7-5(3-9-7)8(4)6/h1,4-7H,3H2	InChI=1S/C7H7NO/c1-2-4-6-7-5(3-9-7)8(4)6/h1,4-7H,3H2/t4-,5+,6-,7-,8?/m0/s1
