21
gdb 69365	4.0587	0.99593	0.93899	1.8107	84.21	-0.2352	0.0872	0.3223	1350.9668	0.182775	-383.199173	-383.190572	-383.189628	-383.232553	33.257	
C	-0.1556908656	 1.5725989884	-0.1109604061	-0.485278
C	-0.1274380021	 0.0820344269	 0.0366041667	 0.358422
C	-1.3495330857	-0.854591161	 0.0202098166	-0.322294
C	-0.6166300226	-1.7889564982	 1.038951718	 0.046557
C	 0.5762212167	-0.8192880609	 1.0133004215	-0.104225
N	 1.0779069121	-0.6529841212	-0.3476091452	-0.365263
N	-1.2860019527	-1.8222914628	 2.3252491995	-0.064658
C	-2.1934979676	-2.9435857447	 2.5528195926	-0.22299
C	-0.8736675412	-2.8842522752	 3.2389926767	-0.226053
H	 0.8334273879	 1.9929820103	 0.0886883046	 0.131126
H	-0.4436406548	 1.8604643701	-1.1294394159	 0.117549
H	-0.8758792072	 2.0221427709	 0.5807761708	 0.119597
H	-2.2341580223	-0.4149502859	 0.4863770388	 0.117299
H	-1.6219004524	-1.2758467095	-0.9539564434	 0.087008
H	-0.3786513223	-2.8039370761	 0.6685379659	 0.045647
H	 1.2339264162	-0.5951496638	 1.8460785766	 0.091033
H	 0.8859005879	-1.4611078301	-0.9387211835	 0.218667
H	-3.1076406371	-2.7108984705	 3.09101132	 0.117302
H	-2.3062865049	-3.6778411167	 1.7565792736	 0.110499
H	-0.1067792182	-3.5798308224	 2.9014874207	 0.111858
H	-0.8074621038	-2.6068089975	 4.2869197513	 0.118196
79.0305	94.951	180.5307	206.3712	285.7314	307.8697	360.5695	396.1288	465.7043	482.2447	633.6572	739.2814	788.8924	811.3149	836.2453	899.7789	915.0322	926.3297	963.308	985.8125	997.6489	1031.8585	1049.1336	1083.7618	1098.4892	1110.8641	1116.8131	1120.4781	1150.3814	1172.2966	1178.2518	1209.7985	1235.6892	1249.8588	1276.7849	1296.912	1322.2465	1375.071	1399.2027	1446.452	1478.0778	1484.2869	1491.0455	1494.3442	1518.7849	2911.3954	3027.0664	3039.7204	3087.3312	3094.5038	3098.861	3113.5179	3119.5658	3173.7646	3178.5385	3192.6676	3444.6059
CC12CC(C1N2)N1CC1	C[C@]12C[C@@H]([C@H]1N2)N1CC1	
InChI=1S/C7H12N2/c1-7-4-5(6(7)8-7)9-2-3-9/h5-6,8H,2-4H2,1H3	InChI=1S/C7H12N2/c1-7-4-5(6(7)8-7)9-2-3-9/h5-6,8H,2-4H2,1H3/t5-,6+,7-/m0/s1
