22
gdb 39508	2.13737	1.80778	1.27348	1.2751	81.49	-0.2333	0.0674	0.3007	1094.5043	0.197751	-404.318008	-404.309949	-404.309005	-404.350215	32.472	
C	-0.0399536918	 1.3864650436	 0.2021815131	-0.211154
C	 1.1469558069	 2.2889040559	-0.176559601	-0.17967
C	 2.575491175	 1.7579461452	 0.0654894933	-0.211723
C	 2.9244240452	 1.2576691696	 1.4650202349	-0.009531
N	 1.9369582539	 1.3788747152	 2.5516178031	-0.335017
C	 2.3706201091	 0.0370059017	 2.118805798	-0.017749
C	 1.3704526552	-0.9305437313	 1.4861388099	-0.101705
O	 1.1802545065	-0.7724817717	 0.0924855749	-0.23887
C	 0.026132699	-0.0500552512	-0.3104699058	-0.068538
H	-0.1419161746	 1.3748394302	 1.2894892245	 0.130405
H	-0.9620874618	 1.8321722472	-0.1943237994	 0.084439
H	 1.0800129466	 2.5454191802	-1.2423114638	 0.086776
H	 1.0297787759	 3.2307722063	 0.3714848219	 0.098293
H	 2.8064553339	 0.9630841709	-0.6485181014	 0.120322
H	 3.2612130409	 2.5838030179	-0.1635442327	 0.085551
H	 3.9594236366	 1.4648756451	 1.7364710103	 0.079168
H	 2.3849421284	 1.6334399837	 3.4269005107	 0.228119
H	 3.0606921799	-0.4729188182	 2.7905152392	 0.077821
H	 1.7705792304	-1.9434527491	 1.6187037493	 0.101338
H	 0.4121894405	-0.8869588528	 2.0243193227	 0.098855
H	-0.8820926555	-0.5902864094	 0.0065500409	 0.083784
H	 0.0545659	-0.072645839	-1.4062524526	 0.099085
111.1446	193.1623	241.3882	255.7742	287.949	313.3494	373.5875	401.8286	508.0575	595.7239	652.5418	725.6733	755.3059	795.7616	808.0576	865.3054	887.9645	936.8383	940.8544	991.6444	1014.4851	1025.9403	1054.0314	1094.9975	1119.5867	1144.893	1157.6238	1178.3395	1210.7193	1242.9317	1252.5742	1282.0113	1303.9111	1323.6458	1334.2334	1379.6601	1383.3936	1408.5223	1409.7122	1415.461	1422.9347	1464.9119	1476.096	1483.8231	1490.0036	1494.0315	1502.8789	2961.0077	2994.5254	3010.9641	3023.4605	3030.6367	3044.2446	3054.3392	3056.1764	3091.1593	3095.4163	3107.8141	3113.2034	3506.3265
C1CCC2NC2COC1	C1CC[C@H]2N[C@H]2COC1	
InChI=1S/C7H13NO/c1-2-4-9-5-7-6(3-1)8-7/h6-8H,1-5H2	InChI=1S/C7H13NO/c1-2-4-9-5-7-6(3-1)8-7/h6-8H,1-5H2/t6-,7+/m1/s1
