21
gdb 69491	2.8975	1.38797	1.27287	1.0576	81.46	-0.2377	0.0804	0.3181	1112.4984	0.1827	-387.073152	-387.064793	-387.063849	-387.105279	34.28	
C	-0.0216182818	 1.5328651657	 0.0169794523	-0.489298
C	 0.0497073687	 0.0233186123	 0.0046192856	 0.374184
C	-0.616089251	-0.7694687887	 1.1047226732	-0.345076
C	 0.8906584825	-0.770941208	 0.9940873696	-0.072282
C	 1.6094417607	-1.8945988921	 0.2475307958	-0.315414
C	 1.17763121	-1.7979237114	-1.2250182782	 0.401122
O	 2.1678185396	-1.9898089624	-2.1947604598	-0.465816
C	-0.2550012224	-2.0646455888	-1.5977945452	-0.369115
C	 0.2221383734	-0.6401118433	-1.3535702074	-0.147609
H	 0.8278923622	 1.9753054824	-0.5165613248	 0.118196
H	-0.9391756491	 1.8940084609	-0.4627728046	 0.116999
H	-0.0101442851	 1.9195030458	 1.0409016033	 0.111846
H	-1.0394057191	-0.1993116856	 1.9262158055	 0.103743
H	-1.1793978465	-1.6669638256	 0.8742311485	 0.105659
H	 1.4435240505	-0.2610501739	 1.776590086	 0.080816
H	 2.6901688986	-1.7228605212	 0.2758382071	 0.111513
H	 1.4257980693	-2.8851387439	 0.6817534486	 0.094083
H	 2.236077381	-2.9349913255	-2.3673345131	 0.280083
H	-0.4251938035	-2.3240195686	-2.6380467485	 0.108263
H	-0.9281879062	-2.5526870262	-0.9019213238	 0.109349
H	 0.2764300182	 0.0102191381	-2.2193767301	 0.088755
144.079	195.8635	217.903	276.9817	295.707	322.0941	373.2135	411.0076	430.7949	480.3146	573.8915	602.1299	689.812	744.944	816.2369	842.6949	857.1286	894.4109	906.4838	941.1197	973.6306	985.3259	1020.4399	1034.0563	1047.7598	1056.8932	1070.3587	1089.5987	1112.7005	1124.0392	1187.9959	1221.9788	1248.834	1270.9249	1298.9714	1309.1411	1350.8815	1386.9079	1406.8683	1419.4027	1478.8758	1485.9254	1488.8026	1501.0571	1504.8291	3020.1267	3029.1724	3078.3913	3079.9654	3096.9326	3123.1531	3130.3147	3155.0091	3175.5125	3203.9393	3214.0283	3796.4873
CC12CC1CC1(O)CC21	C[C@]12C[C@H]1C[C@@]1(O)C[C@@H]21	
InChI=1S/C8H12O/c1-7-2-5(7)3-8(9)4-6(7)8/h5-6,9H,2-4H2,1H3	InChI=1S/C8H12O/c1-7-2-5(7)3-8(9)4-6(7)8/h5-6,9H,2-4H2,1H3/t5-,6-,7-,8+/m0/s1
