13
gdb 7900	3.57577	2.00266	1.37946	3.3302	56.72	-0.2839	-0.0611	0.2228	853.6139	0.095771	-435.78991	-435.78298	-435.782036	-435.821388	25.038	
C	-0.0043462771	 1.5308646516	 0.0137706628	-0.399933
C	 0.0638794012	 0.0224328051	-0.0127934105	 0.21446
O	 0.7333229041	-0.4361098227	-1.188787066	-0.220185
C	 1.7800535746	-1.2162614886	-0.8347471877	 0.277792
N	 2.539252567	-1.7817583238	-1.6622898153	-0.498001
C	 1.8311204187	-1.2398723823	 0.6739638338	 0.356793
O	 2.614183977	-1.803865621	 1.3758322045	-0.322434
O	 0.801352427	-0.4749540022	 1.1093844966	-0.225415
H	 1.0037809267	 1.9525588356	-0.0044055594	 0.144064
H	-0.5572700954	 1.8855366658	-0.8594122944	 0.148774
H	-0.517987291	 1.8618211909	 0.9196146993	 0.146333
H	-0.9305894245	-0.4374938025	 0.014018319	 0.123783
H	 3.2491769917	-2.3039330359	-1.1453905627	 0.253968
86.7786	140.5355	233.3684	319.237	333.6586	441.1164	481.7294	593.9623	636.1259	730.3254	771.0056	795.6047	903.6602	928.1242	946.4264	1030.2064	1089.7319	1135.7495	1148.0012	1200.2949	1356.9014	1392.7458	1398.2932	1419.6204	1483.2797	1484.1499	1780.935	1901.8072	3051.8757	3056.0512	3141.7104	3142.1657	3483.4997
CC1OC(=N)C(=O)O1	C[C@H]1O[C]([NH])C(=O)O1	
InChI=1S/C4H5NO3/c1-2-7-3(5)4(6)8-2/h2,5H,1H3	InChI=1S/C4H5NO3/c1-2-7-3(5)4(6)8-2/h2,5H,1H3/t2-/m0/s1
