20
gdb 17627	3.18433	1.4533	1.0761	1.7235	70.79	-0.2596	0.0666	0.3261	1130.1376	0.174555	-386.119611	-386.110153	-386.109209	-386.153841	34.401	
C	-0.0501968708	 1.5102302077	 0.3131658465	-0.413266
C	-0.1255631465	-0.00677269	 0.1356424615	 0.134681
O	 0.2288452942	-0.6736071281	 1.3468346451	-0.432227
C	-1.487697162	-0.5027847541	-0.3920662305	-0.028114
C	-1.8572356644	 0.097247366	-1.7578019166	-0.412249
C	-1.4920905439	-2.0161979141	-0.4844915644	 0.123602
C	-2.0590691057	-2.8805818069	 0.5505996409	-0.176398
O	-2.769616345	-2.6358927679	-0.6670564023	-0.25217
H	 0.9099712778	 1.7775983877	 0.7623061467	 0.126234
H	-0.1444569367	 2.0408650229	-0.6379450298	 0.123368
H	-0.8495547179	 1.8661416086	 0.9758663035	 0.106789
H	 0.6513341234	-0.3175814313	-0.5759153333	 0.088389
H	-0.3909028667	-0.3893082567	 2.0279202264	 0.274494
H	-2.2616895582	-0.2139667654	 0.3349492966	 0.064468
H	-2.0092468399	 1.1780917125	-1.7025273458	 0.116375
H	-1.0712679652	-0.0959613327	-2.4977162211	 0.114352
H	-2.7819305981	-0.356900842	-2.123469783	 0.138832
H	-0.7062995474	-2.4367216175	-1.1171296002	 0.087442
H	-1.6844465521	-3.894688629	 0.6811202138	 0.114333
H	-2.4955527549	-2.4325441796	 1.442615876	 0.101066
57.498	82.5149	167.049	217.062	223.0479	261.0323	282.0279	298.4185	351.5332	399.802	455.2983	487.4892	538.4141	804.0603	830.6167	872.6474	924.2632	950.0904	963.4683	987.2396	1062.5162	1074.9711	1095.3357	1123.6791	1152.5317	1166.3084	1171.2062	1198.5591	1248.496	1296.5038	1307.1687	1334.5392	1377.0387	1400.1204	1407.2811	1417.9197	1449.2804	1492.2054	1494.0401	1498.4517	1510.3242	1532.5398	2993.6573	3020.6485	3029.3712	3034.2573	3078.4262	3083.0511	3100.0761	3104.3896	3121.2307	3127.2596	3166.4614	3797.5104
CC(O)C(C)C1CO1	C[C@@H](O)[C@@H](C)[C@H]1CO1	
InChI=1S/C6H12O2/c1-4(5(2)7)6-3-8-6/h4-7H,3H2,1-2H3	InChI=1S/C6H12O2/c1-4(5(2)7)6-3-8-6/h4-7H,3H2,1-2H3/t4-,5-,6-/m1/s1
