23
gdb 109873	2.1567	1.51375	1.06673	1.0332	86.5	-0.239	0.0816	0.3206	1259.4888	0.204188	-388.261427	-388.251429	-388.250485	-388.295903	37.425	
C	 0.0218793706	 1.3692398166	-0.0919921534	-0.239332
O	-0.0046934158	 0.0061151948	 0.2685296363	-0.243088
C	-1.2550747057	-0.6144824395	 0.0807989618	 0.051222
C	-1.5785625962	-1.28220393	-1.3180728216	-0.016162
C	-0.5827161181	-1.1424675186	-2.4639194079	-0.406666
C	-1.6786124426	-2.6295178045	-0.5902271085	-0.113468
C	-0.4024448459	-2.9332658687	 0.1469808104	-0.328448
C	-1.380453907	-1.9720483948	 0.7662318688	 0.345121
C	-1.9994394352	-2.18068604	 2.119063756	-0.506824
H	 1.0245632171	 1.7442309439	 0.1288139094	 0.124876
H	-0.1834346479	 1.5255782437	-1.1607381351	 0.107514
H	-0.7103078431	 1.9542004392	 0.4869824141	 0.102894
H	-2.0599541471	 0.0707757598	 0.3857568889	 0.057062
H	-2.5689204463	-0.9550001937	-1.6514851666	 0.065702
H	 0.4428122028	-1.3287677126	-2.1353358954	 0.125195
H	-0.8162551692	-1.8547331256	-3.2630498454	 0.11162
H	-0.6131449006	-0.1378066387	-2.8991137251	 0.109349
H	-2.4069859327	-3.4019892367	-0.8097795775	 0.078857
H	-0.3696290258	-3.9078766156	 0.6247931685	 0.104521
H	 0.5590762921	-2.5885400398	-0.2194599072	 0.118081
H	-1.3488593826	-1.7962375833	 2.9137274736	 0.125442
H	-2.9652923246	-1.6687097243	 2.2039750169	 0.111125
H	-2.1673828564	-3.2444835116	 2.3171393291	 0.115408
97.592	113.8272	157.3172	184.9274	201.3931	216.4216	225.1754	245.2176	331.7857	347.5744	467.9847	511.3347	537.7729	661.9801	718.7502	792.1862	831.1383	861.2119	945.801	959.7309	979.7797	1003.9324	1016.3428	1032.1812	1072.6169	1085.772	1115.1323	1117.0006	1147.0093	1157.3731	1183.053	1207.6914	1226.0186	1256.1242	1274.4775	1319.2908	1363.9009	1374.3671	1407.603	1410.6706	1427.1091	1480.1183	1485.0459	1486.1611	1493.6689	1496.8553	1500.243	1504.4508	1513.2996	2974.398	2986.5625	3019.4694	3027.2439	3033.9748	3047.4643	3077.452	3092.5935	3093.7172	3110.2789	3117.5235	3124.2094	3172.6721	3204.3297
COC1C(C)C2CC12C	CO[C@H]1[C@@H](C)[C@H]2C[C@@]12C	
InChI=1S/C8H14O/c1-5-6-4-8(6,2)7(5)9-3/h5-7H,4H2,1-3H3	InChI=1S/C8H14O/c1-5-6-4-8(6,2)7(5)9-3/h5-7H,4H2,1-3H3/t5-,6+,7-,8+/m0/s1
