12
gdb 50800	5.00309	0.61284	0.55786	2.4153	72.64	-0.2928	-0.0906	0.2021	1830.3904	0.074498	-472.612679	-472.603528	-472.602584	-472.648694	29.221	
N	-0.2347492033	 1.2762298606	 0.4000792589	-0.415594
C	-0.053497305	 0.077365867	 0.0780524058	 0.126635
O	-1.1476979761	-0.7656041101	 0.1357655667	-0.187558
C	-0.9683206234	-2.0652080595	-0.2272755756	 0.293388
O	 0.0599804445	-2.5545275266	-0.609590269	-0.324739
C	-2.2078697817	-2.7913745332	-0.091831936	-0.018328
C	-3.2060852039	-3.4641754544	 0.0043493083	 0.189141
C	-4.414461458	-4.2558688054	 0.0918881789	 0.018722
O	-4.7408693681	-4.8691930672	 1.0781060999	-0.206228
H	 0.6389322705	 1.7948619858	 0.3207294247	 0.248013
H	 0.8546932378	-0.4267429503	-0.2498759164	 0.154869
H	-5.0226604933	-4.2518491867	-0.8335298964	 0.121678
45.7939	75.2661	84.9438	101.2657	141.8198	226.528	287.9126	309.9762	412.5281	502.0156	615.6517	694.7589	764.8769	851.7873	887.4233	970.2193	1015.5274	1068.0877	1088.5147	1239.6226	1251.8327	1389.2048	1416.0843	1749.2963	1775.9219	1809.0845	2321.0284	2942.4322	3150.0244	3511.4303
N=COC(=O)C#CC=O	[NH][CH]OC(=O)C#CC=O	
InChI=1S/C5H3NO3/c6-4-9-5(8)2-1-3-7/h3-4,6H	InChI=1S/C5H3NO3/c6-4-9-5(8)2-1-3-7/h3-4,6H
