14
gdb 26648	3.40469	1.28514	0.93298	0.8793	74.48	-0.1791	0.0119	0.191	1157.7932	0.099368	-436.681391	-436.672436	-436.671491	-436.714558	33.162	
O	 0.0928071655	 1.35531119	 0.1642567366	-0.447254
C	 0.0673551792	 0.0051130748	 0.024189682	 0.334565
C	 0.1052969362	-0.8149310502	-1.0706344143	 0.05877
O	 0.1846668213	-0.376595211	-2.3624334812	-0.469501
C	 0.0468144556	-2.169036389	-0.5944698837	 0.087425
C	-0.024746917	-2.1077705078	 0.7878557125	-0.211691
N	-0.0110929808	-0.7848680497	 1.144817061	-0.30249
C	 0.0636130057	-3.2984689568	-1.4384572942	 0.21081
C	 0.083036673	-4.2095265222	-2.2296349311	-0.468372
H	 0.1508928005	 1.734961218	-0.7194900161	 0.315422
H	 0.1952150742	-1.1539759857	-2.933105663	 0.300149
H	-0.082845877	-2.8934553044	 1.5204854137	 0.131849
H	-0.0513328221	-0.4225103961	 2.0811561239	 0.27326
H	 0.0982828958	-5.0316255998	-2.9009274161	 0.187057
115.9213	121.2485	193.2049	243.4387	251.6431	268.5262	313.0771	389.8912	414.768	470.0033	514.1683	514.9805	588.4289	622.6233	652.0097	669.1385	685.0427	730.9759	779.1443	1016.9684	1098.4457	1170.987	1218.1544	1284.1732	1316.6848	1402.9998	1428.2928	1543.8452	1562.6583	1712.0608	2218.9467	3288.9728	3501.8724	3689.8607	3797.3232	3827.1326
OC1=C(O)C(=CN1)C#C	Oc1c(O)c(c[nH]1)C#C	
InChI=1S/C6H5NO2/c1-2-4-3-7-6(9)5(4)8/h1,3,7-9H	InChI=1S/C6H5NO2/c1-2-4-3-7-6(9)5(4)8/h1,3,7-9H
