21
gdb 49731	2.30159	1.51659	1.46111	2.4796	82.65	-0.2427	-0.022	0.2206	1069.1362	0.185017	-387.107512	-387.099325	-387.098381	-387.14018	31.904	
O	-0.9127077069	 1.0362069091	 0.1006232888	-0.274912
C	 0.2611573862	 0.9150918116	-0.1761268861	 0.142065
C	 1.3305923774	 1.9094436248	 0.0241213197	-0.127534
C	 1.1403251448	 3.4187745613	-0.2545445212	-0.050242
C	-0.2134553786	 4.0112510274	-0.6370883868	-0.218384
C	-0.8847435786	 4.6919546877	 0.5663550762	-0.190923
C	-1.0626494988	 3.6936297951	 1.7152030695	-0.195767
C	 0.2902382855	 3.1433075789	 2.2151482546	-0.217306
C	 1.3634348334	 2.9565078568	 1.1470624932	-0.034799
H	 0.622145382	-0.0288309876	-0.6452166971	 0.075115
H	 2.306867671	 1.5247552948	-0.2554984133	 0.087537
H	 1.993740119	 3.8538630346	-0.765311071	 0.094138
H	-0.0633259912	 4.730192451	-1.4484100249	 0.092234
H	-0.8831724902	 3.2359577188	-1.0210536153	 0.124857
H	-0.2735442682	 5.5439111988	 0.8962170963	 0.085959
H	-1.856751303	 5.0982985426	 0.2662425196	 0.091794
H	-1.5795355078	 4.1675765765	 2.5568239005	 0.083174
H	-1.6875691439	 2.8686742603	 1.3681283404	 0.135324
H	 0.7100690902	 3.8602835959	 2.9323391536	 0.099137
H	 0.1362996073	 2.2134111018	 2.7734512373	 0.105884
H	 2.3719869705	 3.0806176898	 1.5318974359	 0.092648
98.4306	144.8454	168.0928	180.9325	306.4448	353.61	399.444	448.5376	474.6733	641.4866	688.1659	755.3866	770.3471	789.9687	819.771	871.0817	904.0764	936.1749	946.3556	1006.93	1015.4142	1046.7809	1063.524	1086.7727	1102.4271	1125.4508	1160.9007	1188.6098	1196.2803	1258.9785	1292.262	1304.8099	1347.9182	1369.3393	1374.0806	1387.9271	1390.9245	1400.0608	1428.5619	1443.2257	1482.8765	1486.7768	1490.5178	1504.6054	1794.4427	2864.718	3009.3958	3020.2209	3045.6454	3048.799	3062.2336	3067.0269	3090.6836	3120.3315	3133.5878	3143.9178	3158.2723
O=CC1C2CCCCC12	O=C[C@H]1[C@H]2CCCC[C@@H]12	
InChI=1S/C8H12O/c9-5-8-6-3-1-2-4-7(6)8/h5-8H,1-4H2	InChI=1S/C8H12O/c9-5-8-6-3-1-2-4-7(6)8/h5-8H,1-4H2/t6-,7+,8-
