20
gdb 61840	4.2102	0.77209	0.72132	3.8935	77.36	-0.2102	-0.0229	0.1873	1576.833	0.167913	-440.240625	-440.230602	-440.229658	-440.27641	36.188	
C	 0.2126461628	 1.4863409412	-0.3362052481	-0.35102
N	 0.0742411274	 0.0562469819	-0.0782058024	-0.08199
C	 0.693057047	-0.3058541159	 1.1862521293	-0.233388
C	 2.2111712437	-0.2448633276	 1.090155776	 0.149769
O	 2.9442722262	-0.0168655886	 2.0156881083	-0.240628
C	-1.2393051386	-0.5158357693	-0.2366288795	 0.063028
C	-2.5652102041	 0.2100635065	-0.0146351381	-0.368623
C	-2.170333284	-0.2914754814	-1.3921639229	 0.064581
O	-1.8255459885	 0.6156306095	-2.4000316893	-0.411189
H	 1.2756992576	 1.7488596322	-0.3254494126	 0.122747
H	-0.1960653009	 1.7289853844	-1.3147318145	 0.157262
H	-0.2866281679	 2.1090831483	 0.4283965457	 0.096739
H	 0.3646001701	 0.2995901184	 2.0491718207	 0.108843
H	 0.4518629522	-1.3525367251	 1.418289263	 0.12512
H	 2.5946560792	-0.4671353788	 0.0680101782	 0.087931
H	-1.2318308115	-1.5506328507	 0.0940500596	 0.097983
H	-3.3687082232	-0.2730496111	 0.5314784941	 0.110568
H	-2.5112747599	 1.2857617686	 0.1144509174	 0.120226
H	-2.6798712469	-1.182769616	-1.7603260396	 0.092175
H	-2.6303493208	 1.0652497235	-2.6790760853	 0.289864
38.3669	69.5065	104.1808	183.1319	234.1582	258.1081	271.443	302.9368	314.5733	376.7436	410.5034	475.6056	523.0738	654.678	724.0345	762.356	797.7356	850.9271	946.1997	999.5992	1022.0412	1049.496	1068.3497	1075.3047	1106.2405	1137.4915	1155.2909	1174.0534	1207.7922	1235.0203	1253.138	1291.9307	1319.9786	1362.7223	1398.6561	1406.5308	1427.1034	1453.9219	1472.2024	1491.4623	1504.4804	1519.3091	1840.4009	2878.2578	2942.1352	2956.0812	3035.4663	3066.433	3086.7301	3130.9954	3141.5148	3174.0586	3221.8257	3800.8826
CN(CC=O)C1CC1O	CN(CC=O)[C@H]1C[C@H]1O	
InChI=1S/C6H11NO2/c1-7(2-3-8)5-4-6(5)9/h3,5-6,9H,2,4H2,1H3	InChI=1S/C6H11NO2/c1-7(2-3-8)5-4-6(5)9/h3,5-6,9H,2,4H2,1H3/t5-,6+/m0/s1
