12
gdb 8758	3.30206	1.52758	1.18683	4.2346	59.18	-0.2716	-0.0818	0.1898	962.219	0.079705	-418.448865	-418.440635	-418.439691	-418.482187	28.31	
O	-0.0064759182	 1.4756408191	 0.0760893834	-0.39834
C	 0.029626545	 0.0956728235	 0.1185678032	-0.057948
C	 0.6888118687	-0.4781508653	-1.1344113868	 0.129103
O	 1.1460470111	 0.256516055	-1.9730866217	-0.245323
C	 0.7799389632	-0.434586667	 1.3693192195	 0.207922
O	 1.4459558333	 0.2791952887	 2.0739844228	-0.249492
C	 0.6063592686	-1.855524269	 1.6120818427	 0.263157
C	 0.4476836026	-3.0373143178	 1.7791423111	-0.424381
H	 0.5219157316	 1.7360658616	-0.6954177975	 0.302534
H	-0.9865888691	-0.3348806495	 0.1684670311	 0.126052
H	 0.7272759173	-1.5794551887	-1.2220586109	 0.120717
H	 0.3200622059	-4.0800373007	 1.9458754932	 0.226
52.9832	107.3139	132.0241	224.3359	269.5508	315.888	329.7569	417.9203	480.077	587.1613	664.3014	672.7161	720.0907	753.8796	800.687	904.3829	1014.6669	1058.6566	1183.128	1218.1984	1334.1557	1391.817	1420.2925	1787.1878	1821.654	2208.928	2957.662	2975.1469	3490.4746	3691.6088
OC(C=O)C(=O)C#C	O[C@@H](C=O)C(=O)C#C	
InChI=1S/C5H4O3/c1-2-4(7)5(8)3-6/h1,3,5,8H	InChI=1S/C5H4O3/c1-2-4(7)5(8)3-6/h1,3,5,8H/t5-/m0/s1
