21
gdb 103669	3.66301	0.94838	0.92034	1.6697	85.18	-0.2501	0.0263	0.2764	1395.8604	0.179704	-387.050718	-387.040737	-387.039793	-387.085858	37.354	
C	-0.014629953	 1.6470160596	 0.0687934685	-0.39088
C	-0.2754804028	 0.1421493573	 0.1870534802	-0.21798
C	 0.6950247824	-0.5879688442	 1.1190336489	 0.44866
C	 0.6219061016	-0.1247989291	 2.5676795056	-0.438019
C	 0.7381912791	-2.1253460823	 0.9242441786	-0.361677
C	 2.1732228413	-1.8903861453	 0.3858106234	-0.034201
O	 2.0671093536	-0.465945409	 0.6175701467	-0.328838
C	 3.2658798435	-2.5161073915	 1.1146212311	 0.331391
C	 4.1622632743	-3.0438634452	 1.7174547747	-0.459907
H	 1.0281974033	 1.8289688678	-0.2062912681	 0.13838
H	-0.652858014	 2.0899676723	-0.7014804458	 0.111172
H	-0.2164768376	 2.1743203343	 1.0059108758	 0.116237
H	-1.3003129902	-0.0448192531	 0.5348323039	 0.093977
H	-0.1959598366	-0.314296645	-0.8069380511	 0.094673
H	-0.3856733786	-0.2746978158	 2.9715655272	 0.112619
H	 1.3308480131	-0.6873118683	 3.1808833109	 0.125552
H	 0.8725736793	 0.9361315583	 2.6519684258	 0.12863
H	 0.6902708336	-2.7116612222	 1.841936664	 0.117566
H	 0.0348190564	-2.5259541345	 0.1927330193	 0.109274
H	 2.2832577888	-2.1001608889	-0.6861441215	 0.102755
H	 4.9589120925	-3.5048558154	 2.2473662318	 0.200618
37.0709	92.0735	135.6756	206.2358	218.2198	233.9502	269.9573	336.1529	349.3067	404.8278	457.705	520.3685	542.2046	617.1148	664.9774	675.065	769.5171	785.3695	883.4143	892.0223	909.77	969.6807	991.6566	1000.089	1024.2598	1068.517	1071.3435	1114.0412	1172.224	1215.806	1256.6338	1267.5139	1277.3871	1326.3932	1364.7807	1377.3452	1408.3394	1410.0792	1472.816	1485.9843	1489.1459	1495.725	1508.0382	1513.6421	2233.2473	3013.2983	3018.3578	3037.624	3044.4364	3055.7084	3083.4177	3108.6882	3111.133	3120.553	3124.1497	3144.876	3502.9585
CCC1(C)CC(O1)C#C	CC[C@@]1(C)C[C@@H](O1)C#C	
InChI=1S/C8H12O/c1-4-7-6-8(3,5-2)9-7/h1,7H,5-6H2,2-3H3	InChI=1S/C8H12O/c1-4-7-6-8(3,5-2)9-7/h1,7H,5-6H2,2-3H3/t7-,8-/m0/s1
