18
gdb 55303	2.613	1.43737	1.02381	4.4126	72.16	-0.2471	0.0256	0.2727	1161.845	0.146857	-439.085975	-439.077072	-439.076128	-439.120466	32.845	
N	-0.0994831943	 1.3273069048	-0.1542951995	-0.518113
C	-0.108202128	 0.0931008474	 0.4317908117	 0.382116
O	 0.7178611749	-0.2354577643	 1.262275413	-0.358823
C	-1.2331148008	-0.8184085184	-0.0333013028	-0.192721
C	-1.608744908	-0.8974057874	-1.5497765153	-0.25891
C	-1.72831203	-2.4445194631	-1.4196120485	-0.317592
C	-1.0158770894	-2.3395161717	-0.0677482162	 0.45325
C	 0.088259708	-3.1372331094	 0.4677669425	-0.262659
O	-1.241384445	-3.2044233318	 1.0189926155	-0.273749
H	 0.5616697994	 2.00775052	 0.1837579258	 0.261838
H	-0.8351500009	 1.6316478482	-0.767450353	 0.260755
H	-2.1167646183	-0.5950441004	 0.5771556898	 0.117706
H	-2.5068428682	-0.3618984363	-1.8639913071	 0.104223
H	-0.7755093276	-0.5988385791	-2.1904154681	 0.11654
H	-2.7636401265	-2.7747069814	-1.2961717512	 0.118734
H	-1.2527836543	-3.0501541661	-2.1940996412	 0.110663
H	 0.4073908377	-4.0288519826	-0.0714767753	 0.105083
H	 0.8271829111	-2.6570686485	 1.1011463498	 0.151657
30.3714	89.1587	174.4215	200.8867	223.7388	306.7455	325.9707	380.2124	468.5868	496.8808	582.5632	627.5772	672.1679	746.9723	798.0361	854.9802	883.5658	911.3562	946.6417	972.0948	1024.8837	1067.7362	1090.5956	1109.6471	1134.4858	1160.7048	1171.7675	1213.5343	1230.6387	1255.3582	1267.2687	1297.9122	1370.9629	1428.6389	1477.1573	1498.164	1527.7596	1613.6831	1787.8169	3041.2753	3061.8381	3067.8352	3090.1984	3110.5337	3126.6426	3208.0178	3598.7382	3736.2503
NC(=O)C1CCC11CO1	NC(=O)[C@H]1CC[C@]21CO2	
InChI=1S/C6H9NO2/c7-5(8)4-1-2-6(4)3-9-6/h4H,1-3H2,(H2,7,8)	InChI=1S/C6H9NO2/c7-5(8)4-1-2-6(4)3-9-6/h4H,1-3H2,(H2,7,8)/t4-,6-/m1/s1
