18
gdb 94282	2.96631	1.6296	1.24407	3.6126	72.21	-0.229	0.0539	0.2829	1018.983	0.148427	-438.983822	-438.976156	-438.975212	-439.016078	29.836	
O	 0.1450473276	 1.2461434421	-0.3671987822	-0.424545
C	 0.1345551723	-0.0842282832	 0.0891324123	-0.064871
C	-0.0230014136	-0.3494714036	 1.6031310762	-0.114913
O	-1.2083192752	-1.1424798484	 1.3668753605	-0.340717
C	-1.2438901359	-0.7564675631	-0.0156514522	 0.52735
C	-2.5402492431	-0.126585263	-0.5882411608	-0.101043
C	-2.0463283895	-0.5396543807	-1.9942322984	-0.204438
C	-1.8016930309	-1.7486035498	-1.0567812761	-0.13083
N	-3.2036725627	-1.4989165465	-0.5059314145	-0.34176
H	 1.0484569134	 1.5758483053	-0.3397267771	 0.291556
H	 0.9366243852	-0.678333555	-0.3674277924	 0.083663
H	 0.7601868261	-0.9297241475	 2.1020119466	 0.103665
H	-0.2416198672	 0.5609174897	 2.1746727201	 0.106247
H	-3.0527093813	 0.7852975736	-0.283040979	 0.086448
H	-2.8411651227	-0.695461301	-2.7233992879	 0.109163
H	-1.1799599761	-0.0133335147	-2.3948865922	 0.109124
H	-1.4479985792	-2.7502743725	-1.3060771522	 0.078923
H	-3.2244368672	-1.7916326517	 0.4759564094	 0.226978
80.4559	159.9676	195.6581	252.6085	311.2769	384.0533	460.565	480.7854	592.1001	638.0394	760.0073	788.4059	813.4005	876.0544	887.5503	911.6449	961.9522	1008.7472	1015.1701	1046.3937	1068.6253	1079.0605	1094.3296	1116.5737	1148.1253	1167.9352	1174.709	1187.8934	1197.4128	1216.7362	1229.3307	1291.4811	1301.0461	1314.5937	1327.7736	1332.8325	1444.4644	1490.6905	1512.8776	3018.1671	3022.4619	3081.3721	3087.183	3105.6597	3124.281	3167.6637	3399.4149	3824.4324
OC1COC11C2CC1N2	O[C@H]1CO[C@]21[C@H]1C[C@@H]2N1	
InChI=1S/C6H9NO2/c8-5-2-9-6(5)3-1-4(6)7-3/h3-5,7-8H,1-2H2	InChI=1S/C6H9NO2/c8-5-2-9-6(5)3-1-4(6)7-3/h3-5,7-8H,1-2H2/t3-,4+,5-,6-/m0/s1
