19
gdb 70689	2.25142	1.86727	1.22879	1.7083	75.66	-0.239	-0.015	0.224	1054.938	0.159347	-423.040872	-423.032579	-423.031635	-423.073585	32.006	
C	 0.0125903047	 1.5151031003	-0.0048306925	-0.458434
C	 0.0449654927	 0.0011588422	-0.0172608119	 0.17617
C	-0.8240262383	-0.7369295893	 1.0129215403	-0.336421
C	 0.6616233905	-0.7491558482	 1.1578733388	 0.062204
O	 1.3157769426	-1.9698052256	 0.9656010982	-0.255595
C	 1.8487743317	-2.1700922351	-0.3330551466	-0.083807
C	 0.7481573421	-2.0389784996	-1.3943560652	-0.323277
C	 0.2003496367	-0.6192090241	-1.3720008829	 0.338732
O	-0.016749559	 0.0081792274	-2.38638076	-0.323713
H	 0.9204074204	 1.9322449775	-0.4512080994	 0.127388
H	-0.8372460071	 1.8820751774	-0.5862730977	 0.140243
H	-0.075243526	 1.8953923509	 1.0171824545	 0.109309
H	-1.4234171736	-0.1132256428	 1.6672669391	 0.123007
H	-1.2867432794	-1.6720476499	 0.7194958214	 0.127166
H	 1.1203654357	-0.1402383913	 1.9338562144	 0.103522
H	 2.6595298062	-1.4538109434	-0.5383296782	 0.102315
H	 2.2789036853	-3.1750684677	-0.3301826304	 0.118108
H	 1.1185517568	-2.2464710152	-2.4015303278	 0.125512
H	-0.0460288822	-2.7601862837	-1.166167804	 0.127571
83.7415	154.768	193.683	218.9496	293.1016	322.3625	397.1217	449.7886	473.318	496.785	563.2095	643.5287	750.5131	775.156	854.5836	865.0776	903.6171	927.0929	963.0478	1021.5457	1038.891	1047.1203	1079.71	1105.013	1121.3848	1126.8384	1193.7949	1214.0677	1270.1541	1293.7637	1327.5011	1344.284	1387.3635	1413.5116	1417.7327	1452.5581	1477.5558	1483.5219	1495.9788	1509.1302	1791.8014	2987.4324	3040.6659	3041.4934	3094.4922	3109.832	3110.5705	3119.7584	3129.1528	3138.7127	3230.5013
CC12CC1OCCC2=O	C[C@]12C[C@H]1OCCC2=O	
InChI=1S/C7H10O2/c1-7-4-6(7)9-3-2-5(7)8/h6H,2-4H2,1H3	InChI=1S/C7H10O2/c1-7-4-6(7)9-3-2-5(7)8/h6H,2-4H2,1H3/t6-,7-/m1/s1
