18
gdb 87419	3.69842	1.32804	1.29435	3.1356	75.1	-0.2409	0.0739	0.3148	1057.6908	0.147845	-401.865823	-401.858402	-401.857458	-401.897581	29.304	
C	-0.0801150275	 1.5321388258	-0.0807703654	-0.417594
C	-0.07037173	 0.0352780138	 0.090468161	-0.055284
O	 1.2168076548	-0.6210146271	-0.0057137209	-0.312969
C	 0.541261838	-0.6328536497	 1.2378873786	 0.522554
C	 1.2158414998	-0.1749978935	 2.4992412729	-0.164782
C	 0.4393005264	-0.7501558656	 3.6433861108	-0.042131
C	-0.7343285529	-1.5516108924	 3.1002044121	-0.24338
C	 0.2552336666	-1.9321755785	 1.9809481173	-0.125226
N	 1.455052144	-1.6015826018	 2.9434615581	-0.156083
H	 0.718679764	 1.9979630311	 0.5017529501	 0.12681
H	 0.0613238944	 1.8005505718	-1.132757126	 0.13252
H	-1.0393915687	 1.9477005301	 0.2464415047	 0.123153
H	-0.8627753948	-0.4994116329	-0.4377038877	 0.089133
H	 1.9746266924	 0.5881932459	 2.6215867932	 0.106913
H	 0.6014557713	-0.4118044695	 4.6611448032	 0.101054
H	-0.9544426658	-2.4016144594	 3.7508118745	 0.116912
H	-1.6631220302	-1.042240269	 2.8229167544	 0.100016
H	 0.2250358481	-2.8841617291	 1.4558140089	 0.098383
126.9554	161.6298	188.394	236.152	375.2161	423.8155	481.5756	501.6304	613.484	745.0395	772.4849	800.7176	811.9278	823.3681	897.9268	932.5668	952.5147	974.3264	1006.1531	1014.0402	1030.0563	1046.9846	1074.7604	1121.3893	1123.8254	1139.8976	1150.2568	1189.7698	1197.4467	1244.0572	1271.9214	1294.0363	1357.1295	1373.0331	1409.8828	1477.2095	1491.6123	1495.3722	1544.387	3037.2577	3044.6086	3084.2773	3101.4652	3107.1981	3126.0797	3152.4082	3172.6437	3197.7449
CC1OC11C2C3CC1N23	C[C@H]1O[C@]21[C@H]1[C@H]3C[C@@H]2N13	
InChI=1S/C7H9NO/c1-3-7(9-3)5-2-4-6(7)8(4)5/h3-6H,2H2,1H3	InChI=1S/C7H9NO/c1-3-7(9-3)5-2-4-6(7)8(4)5/h3-6H,2H2,1H3/t3-,4-,5+,6-,7+,8?/m1/s1
