17
gdb 46187	3.22959	1.64665	1.25677	2.8113	73.91	-0.2435	0.0051	0.2486	992.6143	0.137848	-417.916744	-417.909769	-417.908825	-417.94813	27.666	
N	 0.0299991048	 1.2263177645	-0.2517992229	-0.555209
C	 0.0300810593	-0.000615732	 0.0081386122	 0.363053
O	 1.0547128885	-0.8373927089	 0.3987432576	-0.25892
C	 0.1650839359	-1.9972840546	 0.4583793194	-0.188432
C	-1.0104678872	-1.1000718667	 0.0423052381	 0.272312
C	-2.4252844437	-1.0340870223	 0.6426908475	-0.132761
C	-2.7772734551	-0.2931342936	-0.6678681856	-0.182994
N	-1.8744648978	-1.4419653454	-1.1794491451	-0.179392
C	-2.6663439986	-2.3150150051	-0.1830172619	-0.178033
H	 0.96254438	 1.6320094535	-0.1564545166	 0.231774
H	 0.4587096959	-2.7546375415	-0.2724264032	 0.134659
H	 0.1361928913	-2.4161725476	 1.4674954821	 0.123798
H	-2.7113213976	-0.8026563459	 1.6734378245	 0.07858
H	-3.8053825603	-0.3744384112	-1.028904123	 0.103056
H	-2.3540951006	 0.697426403	-0.8307721364	 0.154611
H	-2.149313673	-3.2340144315	 0.1072422897	 0.104605
H	-3.6864082519	-2.5234185345	-0.5149286366	 0.109293
124.1627	174.0806	211.6735	311.3872	372.5456	474.8572	592.4356	629.9626	640.4665	769.7175	782.5551	790.0106	840.2398	869.1399	905.4383	927.5348	967.3321	997.1558	1018.5262	1046.7452	1058.9705	1091.967	1106.1722	1142.7845	1159.6394	1172.1116	1201.2145	1213.8776	1226.0635	1249.3172	1267.6046	1287.2375	1375.2566	1504.6642	1514.1099	1548.8671	1817.3535	3049.111	3058.5762	3061.7047	3073.7569	3120.1857	3122.857	3161.7968	3476.958
N=C1OCC11C2CN1C2	[NH][C]1OC[C@]21[C@H]1CN2C1	
InChI=1S/C6H8N2O/c7-5-6(3-9-5)4-1-8(6)2-4/h4,7H,1-3H2	InChI=1S/C6H8N2O/c7-5-6(3-9-5)4-1-8(6)2-4/h4,7H,1-3H2/t6-/m1/s1
