19
gdb 87064	2.48599	1.3349	1.00338	1.4957	81.96	-0.2395	0.0395	0.2789	1227.4533	0.156766	-385.821353	-385.811954	-385.81101	-385.855674	35.63	
O	 0.2113537281	 1.1801925489	 0.1048596788	-0.429545
C	-0.0730655739	-0.1752480345	 0.1941606511	 0.112992
C	-0.7624980981	-0.7540286051	 1.3931973998	-0.368845
C	-1.504024457	-0.6985413592	 0.0502717871	 0.084817
C	-2.4962960067	 0.3354189919	-0.0771320167	 0.24643
C	-3.2701424057	 1.2478499982	-0.2213839739	-0.437429
C	-1.7798082128	-1.9412771601	-0.7571817839	-0.068705
C	-1.1559165901	-3.2786141214	-0.448619625	-0.28797
C	-2.6276710209	-3.0603234711	-0.2050611097	-0.253326
H	-0.6189404823	 1.6496528639	-0.0559829887	 0.287244
H	 0.6920410416	-0.7819749866	-0.2817665694	 0.110029
H	-0.4492395799	-1.722563523	 1.7669285413	 0.119853
H	-1.0978183616	-0.0577861931	 2.1529747063	 0.128227
H	-3.9876110255	 2.0236333694	-0.3280303807	 0.198434
H	-1.917135069	-1.7273313256	-1.8136895056	 0.094859
H	-0.8554025897	-3.8927861096	-1.2901811122	 0.115046
H	-0.5080812841	-3.3771700309	 0.4153217665	 0.115387
H	-2.953593041	-2.9728548533	 0.8257887724	 0.1177
H	-3.3441124916	-3.5397256087	-0.8622812373	 0.114801
47.5395	130.2546	139.9037	176.2095	219.8804	254.413	317.3498	386.3922	431.2964	461.1984	539.2134	590.3304	621.6029	652.9859	663.2614	771.4451	818.1225	831.1181	866.7733	896.8581	936.2007	952.0894	998.2307	1041.2229	1060.2286	1078.284	1083.0816	1119.5386	1140.906	1174.1682	1196.9121	1208.8172	1258.0188	1285.9566	1356.9243	1407.2583	1421.0364	1463.7951	1479.6045	1507.383	2218.9699	3134.0975	3136.7898	3139.1005	3142.3033	3153.5354	3211.0438	3226.4297	3232.779	3499.2095	3732.4239
OC1CC1(C#C)C1CC1	O[C@H]1C[C@]1(C#C)C1CC1	
InChI=1S/C8H10O/c1-2-8(5-7(8)9)6-3-4-6/h1,6-7,9H,3-5H2	InChI=1S/C8H10O/c1-2-8(5-7(8)9)6-3-4-6/h1,6-7,9H,3-5H2/t7-,8+/m0/s1
