15
gdb 93196	2.90015	1.45844	1.02669	6.1827	62.92	-0.2763	-0.0658	0.2105	1111.7874	0.112133	-494.959971	-494.951936	-494.950992	-494.992976	29.139	
C	-0.2552558628	 1.4326171182	 0.0544492022	-0.406165
C	-0.0124781971	-0.057997198	-0.1046688277	 0.097727
C	 1.0277109398	-0.3950439179	-1.1515083434	-0.093703
O	 1.1880156941	-1.8162716184	-1.2584914706	-0.221922
C	 1.2176900723	-2.5340184733	-0.1138526539	 0.304002
O	 1.364160612	-3.7178043934	-0.1272563643	-0.282733
C	 1.0560746596	-1.7573656719	 1.2215887351	 0.301588
O	 1.4514417487	-2.2135910415	 2.2509700046	-0.283287
O	 0.4474458934	-0.5529863677	 1.1738276873	-0.233811
H	 0.6775318069	 1.9563588652	 0.2821715619	 0.140182
H	-0.6800953611	 1.8482601925	-0.8635430666	 0.133081
H	-0.9565119838	 1.6096120443	 0.8727935089	 0.151106
H	-0.9497416383	-0.5733834686	-0.3527151202	 0.116004
H	 0.7194960583	-0.0550622911	-2.1420643068	 0.143378
H	 1.988835798	 0.0709581317	-0.9004793763	 0.134555
77.7134	104.6743	218.5306	224.356	275.9544	353.3986	394.1364	437.5719	477.6912	499.8772	610.5998	653.5555	749.5859	820.1523	896.9254	949.954	972.206	1074.9673	1098.307	1137.9224	1150.4116	1185.2405	1254.3513	1297.731	1352.0097	1382.588	1416.4379	1427.3358	1485.7416	1497.7047	1501.4575	1863.0915	1873.8653	3025.8863	3040.6699	3052.0661	3120.4323	3128.7067	3137.0364
CC1COC(=O)C(=O)O1	C[C@H]1COC(=O)C(=O)O1	
InChI=1S/C5H6O4/c1-3-2-8-4(6)5(7)9-3/h3H,2H2,1H3	InChI=1S/C5H6O4/c1-3-2-8-4(6)5(7)9-3/h3H,2H2,1H3/t3-/m0/s1
