21
gdb 41427	3.5514	1.7983	1.43587	0.1057	85.32	-0.2722	0.1014	0.3735	967.1226	0.187142	-349.937752	-349.931371	-349.930426	-349.968029	28.034	
C	-0.0415278383	 1.5614051381	-0.0363101221	-0.232922
C	 1.4920531681	 1.8751517115	-0.0209892093	-0.342631
C	 2.0265621377	 0.4537740687	 0.0424976151	 0.406247
C	 3.4423596221	-0.0970738371	 0.088603307	-0.342631
C	 3.1104723751	-1.626020797	 0.140730209	-0.232922
C	 1.5716916454	-1.5833224207	 0.1117918433	-0.033763
C	 1.1128104263	-0.396805854	 0.9968689479	-0.080357
C	-0.0168587608	 0.0230816761	 0.0225514044	-0.033763
C	 1.1460960822	-0.4679571596	-0.8764325839	-0.080358
H	-0.5647509315	 1.9988940008	 0.8204388822	 0.094601
H	-0.5334610651	 1.9319784689	-0.9417675918	 0.094601
H	 1.8204365341	 2.4097082331	-0.9187055851	 0.094659
H	 1.7891205831	 2.4767040953	 0.8446699563	 0.094659
H	 4.0300783233	 0.1753364483	-0.7944920021	 0.094659
H	 3.9986378272	 0.2422554426	 0.9688841546	 0.09466
H	 3.5243645178	-2.1714436872	-0.7138967967	 0.094602
H	 3.493128589	-2.1046029545	 1.0483131259	 0.094601
H	 1.0320371921	-2.5322455462	 0.1382438144	 0.053372
H	 1.1076369731	-0.3412187647	 2.0894536074	 0.054658
H	-0.9725762147	-0.5051003984	 0.0256314433	 0.053372
H	 1.179756354	-0.495406174	-1.9695801098	 0.054657
223.6601	226.1728	353.741	386.0318	390.1501	624.3531	703.3427	730.6386	731.1243	748.2178	814.1601	826.4034	835.9662	887.2121	904.6091	913.9082	932.4629	947.7451	978.2935	997.0357	1000.6853	1027.5889	1031.0889	1087.4587	1101.5877	1135.3078	1141.6215	1165.2463	1183.725	1195.7533	1222.0534	1239.6414	1242.1203	1256.4672	1261.4968	1274.0397	1274.8179	1313.5747	1326.3148	1351.7233	1364.7275	1487.9151	1489.2977	1509.1525	1510.3965	3035.2274	3036.4406	3045.2633	3047.1185	3062.4648	3065.6935	3068.1686	3068.854	3088.4893	3089.043	3091.307	3098.8769
C1CC23CCC4C2C1C34	C1C[C@@]23CC[C@H]4[C@@H]2[C@@H]1[C@@H]34	
InChI=1S/C9H12/c1-3-9-4-2-6-7(9)5(1)8(6)9/h5-8H,1-4H2	InChI=1S/C9H12/c1-3-9-4-2-6-7(9)5(1)8(6)9/h5-8H,1-4H2/t5-,6+,7+,8-,9-
