15
gdb 19319	4.91331	1.68665	1.50096	1.7095	72.35	-0.2085	0.0342	0.2427	851.81	0.118381	-325.403211	-325.396504	-325.395559	-325.433687	27.161	
C	 0.0491176895	-1.1921078994	-0.0359332476	-0.412011
C	 0.0277397317	 0.0124579097	-0.0233549904	 0.187192
C	-0.0173366264	 1.428688857	 0.0247719258	 0.187906
C	 0.2303245238	 2.3360602851	-1.1669051098	-0.331933
C	 1.1505595038	 2.4416322687	 0.0090643054	-0.115691
C	 0.4997944947	 3.1729599119	 1.2159732043	-0.048158
N	-0.8618732992	 3.6246469132	 0.8256805825	-0.339013
C	-0.6228365475	 2.2215882413	 1.2346457196	-0.123983
H	 0.0706881154	-2.2530469335	-0.0566928366	 0.182733
H	 0.6476469708	 1.819926276	-2.0245783913	 0.123775
H	-0.4734491606	 3.1285453707	-1.3855669252	 0.148518
H	 2.2040157078	 2.2019121224	-0.0401785767	 0.106855
H	 1.0380610184	 3.637588178	 2.0307975109	 0.100087
H	-1.2617070206	 4.1064360392	 1.6301787008	 0.233878
H	-1.1512915616	 1.7613804097	 2.0585602783	 0.099844
149.1357	153.1067	360.1654	415.2218	470.4744	498.27	530.3115	544.245	620.9711	650.8082	736.4139	773.0676	818.5632	835.8945	850.7072	904.2207	917.9622	963.0887	975.6602	1010.7413	1054.5429	1099.4826	1103.4833	1116.3388	1184.0603	1230.1047	1282.2397	1297.8851	1340.2151	1384.9097	1461.601	2226.3117	3148.4708	3199.71	3209.4842	3215.8728	3244.5662	3479.9636	3504.9929
C#CC12CC1C1NC21	C#C[C@]12C[C@H]1[C@H]1N[C@@H]21	
InChI=1S/C7H7N/c1-2-7-3-4(7)5-6(7)8-5/h1,4-6,8H,3H2	InChI=1S/C7H7N/c1-2-7-3-4(7)5-6(7)8-5/h1,4-6,8H,3H2/t4-,5+,6+,7-/m0/s1
