15
gdb 30538	4.82389	0.89337	0.75681	6.9444	99.18	-0.1665	-0.0602	0.1063	1422.4272	0.112311	-453.951698	-453.943177	-453.942233	-453.986962	30.644	
N	 0.1663280589	 1.4119520808	-0.0484317753	-0.543674
C	-0.0433633932	 0.0186486351	-0.079222613	-0.095421
N	 1.0465615805	-0.7422334101	-0.0047905576	-0.234991
H	 1.9088542879	-0.2094143893	 0.0664780035	 0.279733
C	 1.1835169858	-2.0758041541	-0.0089833814	 0.445668
C	 2.3406526692	-2.8563173793	 0.0703642592	-0.240889
C	 1.9402400901	-4.1720621256	 0.025562334	-0.28347
C	 0.5016718322	-4.2184407198	-0.0842045605	 0.39363
O	-0.3165008449	-5.0945947917	-0.1559251493	-0.359637
O	 0.0711704554	-2.8366095941	-0.1017887232	-0.250655
H	-0.1766398882	 1.8719816863	-0.8884033698	 0.252493
H	-0.3019605459	 1.8548029271	 0.7385640249	 0.252498
H	-0.9998176103	-0.4826486105	-0.157128901	 0.151429
H	 3.3479738563	-2.472078559	 0.151073829	 0.114948
H	 2.5523012662	-5.0581706456	 0.0623311806	 0.118338
10.7632	111.6445	125.3568	179.038	248.3399	372.9545	406.3208	444.563	543.1818	565.1573	629.7756	662.6351	702.5724	761.7664	766.761	820.2889	860.7715	871.0467	886.5439	970.1804	1068.9111	1092.0436	1132.8737	1186.39	1266.9567	1336.6326	1355.604	1461.5833	1485.9953	1539.6355	1652.1765	1687.9723	1854.3948	3211.2262	3229.3419	3274.2974	3463.5062	3512.6826	3546.7778
NC=[NH+]C1=CC=C([O-])O1	[NH2]=CNC1=C[CH]C(=O)O1	
InChI=1S/C5H6N2O2/c6-3-7-4-1-2-5(8)9-4/h1-3,8H,(H2,6,7)	InChI=1S/C5H6N2O2/c6-3-7-4-1-2-5(8)9-4/h1-3,7H,6H2
