13
gdb 21538	3.44864	1.94435	1.24477	3.5885	65.76	-0.2201	-0.0539	0.1662	890.6155	0.097583	-394.809795	-394.802748	-394.801804	-394.841013	25.817	
N	 0.0433603416	 1.4259673536	 0.1484451217	-0.607926
C	 0.0147374396	 0.0446943579	 0.038639807	 0.111541
C	-1.0996046546	-0.804052469	 0.0139070134	 0.248536
N	-0.586889983	-2.0767405097	-0.0272087195	-0.241295
N	 0.7359203085	-2.1114353657	-0.0315229258	-0.19453
C	 1.1220998834	-0.8327424363	 0.0096125377	-0.055053
C	-2.5231275038	-0.5753539542	 0.0270885291	 0.069129
O	-3.3517700661	-1.4674782179	-0.0012657636	-0.311833
H	 0.8959572761	 1.8520120852	-0.1845596021	 0.257838
H	-0.7678777655	 1.908115636	-0.209469073	 0.256841
H	-1.1343522799	-2.9216980419	-0.0549960529	 0.289174
H	 2.1728140764	-0.5832838749	 0.0182173926	 0.11468
H	-2.8297052826	 0.4924594168	 0.0668211456	 0.062897
152.9425	168.345	214.2641	271.4628	332.2579	352.8561	531.7602	558.1039	593.7385	666.9525	691.745	726.9727	816.7159	846.0214	960.2638	1020.6901	1068.2975	1164.5031	1235.6372	1277.8658	1307.0487	1391.3912	1419.9949	1463.1956	1538.0279	1611.2718	1664.3227	1755.5655	2887.3723	3247.5678	3568.5007	3663.3584	3665.0939
NC1=C(NN=C1)C=O	Nc1c([nH]nc1)C=O	
InChI=1S/C4H5N3O/c5-3-1-6-7-4(3)2-8/h1-2H,5H2,(H,6,7)	InChI=1S/C4H5N3O/c5-3-1-6-7-4(3)2-8/h1-2H,5H2,(H,6,7)
