25
gdb 122955	5.88903	0.45358	0.43617	0.1216	86.82	-0.2615	0.0711	0.3326	2550.7587	0.226336	-426.63034	-426.618386	-426.617441	-426.668565	42.173	
C	-0.148303056	 1.5688712353	-0.0112644248	-0.380554
C	-0.004788579	 0.045309646	-0.0061446814	-0.185937
C	 0.742385212	-0.4893524793	 1.2224444795	 0.134328
O	 0.1022015299	-0.0868712455	 2.435480939	-0.428781
C	 0.939049362	-2.0095358422	 1.1710003708	-0.202831
C	 1.7500024839	-2.5617312898	 2.347631271	-0.183374
C	 1.882929609	-4.0865916295	 2.3239198836	-0.167111
C	 2.6937967884	-4.6296049614	 3.4929103764	-0.07391
O	 2.7466365652	-6.0441319358	 3.3737046499	-0.42247
H	 0.8321142373	 2.0554304735	-0.0623747673	 0.113272
H	-0.7354949632	 1.9102741793	-0.8690610967	 0.107681
H	-0.6389961128	 1.9123503243	 0.9031477903	 0.126355
H	-0.9989385812	-0.4251130133	-0.0409680075	 0.083279
H	 0.5188997337	-0.2880968578	-0.9108807865	 0.095466
H	 1.7285719766	-0.0072295875	 1.272151603	 0.082569
H	-0.7792869156	-0.477937074	 2.4384465871	 0.274681
H	-0.0503835575	-2.4917321008	 1.1444810262	 0.082387
H	 1.4285598392	-2.2728009209	 0.224158248	 0.094619
H	 2.7495317314	-2.1048329211	 2.3387239808	 0.091333
H	 1.2779000308	-2.2374248737	 3.2821806172	 0.106876
H	 0.8903766865	-4.5540325952	 2.3454128279	 0.100829
H	 2.35884317	-4.4140054098	 1.3909612114	 0.101416
H	 3.7053725035	-4.1910168874	 3.4788282307	 0.082449
H	 2.223385797	-4.326905763	 4.4430732325	 0.08335
H	 3.2585057788	-6.3884597107	 4.1111503489	 0.284079
49.777	63.0523	79.8107	111.2	143.8885	146.7457	202.0021	221.5388	257.4295	264.5279	305.763	307.7196	404.2524	459.5787	494.0235	551.4434	743.7615	777.5633	797.6896	864.8783	915.5555	968.8648	996.8027	1021.7331	1030.4311	1047.2678	1069.8304	1082.5417	1107.1037	1128.8769	1146.9605	1200.486	1225.5076	1259.9879	1272.077	1281.5873	1312.4555	1316.7877	1322.2327	1358.5628	1368.0437	1390.4844	1399.4925	1406.3034	1422.0166	1463.8516	1473.2883	1485.3908	1491.0637	1495.2404	1507.4504	1509.6763	1529.4062	2957.4576	2982.0602	2990.7322	2998.8041	3012.1081	3021.504	3027.2771	3036.433	3038.8687	3052.2158	3057.9489	3079.6462	3100.8676	3121.3946	3788.4084	3830.0764
CCC(O)CCCCO	CC[C@@H](O)CCCCO	
InChI=1S/C7H16O2/c1-2-7(9)5-3-4-6-8/h7-9H,2-6H2,1H3	InChI=1S/C7H16O2/c1-2-7(9)5-3-4-6-8/h7-9H,2-6H2,1H3/t7-/m1/s1
