18
gdb 6995	2.72858	1.92007	1.4859	2.1982	68.06	-0.2443	-0.0264	0.2179	929.9759	0.1507	-384.953708	-384.944641	-384.943697	-384.987189	33.025	
C	-0.6541611709	 1.3041545296	-0.0498927496	-0.422463
C	 0.1095917421	-0.0107717312	-0.0218744279	-0.009844
C	 1.5098303245	-0.0873815762	-0.7187218455	-0.366484
C	 1.9281913745	-0.9925728977	 0.4390340134	 0.339755
O	 2.6710048999	-1.9280284061	 0.5593033358	-0.317409
C	 0.758382874	-0.5279723089	 1.3218902637	 0.296331
C	 1.1306251708	 0.5653616486	 2.3234441504	-0.428602
O	 0.0797653342	-1.5733342435	 1.9804453283	-0.482646
H	-0.0387050333	 2.1403378317	 0.2964634733	 0.116656
H	-0.9842679101	 1.5368250188	-1.067707704	 0.12149
H	-1.5453385486	 1.2559820984	 0.5844472446	 0.129107
H	-0.5215624588	-0.8230808539	-0.3946383169	 0.094411
H	 1.582370578	-0.5137144552	-1.7210221096	 0.130457
H	 2.0344104667	 0.8742503788	-0.7013221349	 0.128442
H	 1.6637519735	 1.3986852221	 1.8559963888	 0.114835
H	 0.2239481332	 0.9550861711	 2.7954287022	 0.132884
H	 1.7686348741	 0.1412223178	 3.1036813192	 0.130024
H	 0.6628455662	-2.3429062443	 1.9608954984	 0.293054
50.6529	154.556	183.5892	204.8814	231.046	260.5875	277.7479	288.0083	403.6323	427.6784	497.4175	591.7102	663.0546	705.7451	797.5238	841.6314	868.4442	950.7075	1000.9481	1029.5504	1060.9389	1093.3483	1127.5513	1157.0629	1187.7983	1214.4768	1228.155	1287.8387	1351.5652	1379.6397	1399.515	1413.4997	1447.7482	1481.2224	1487.3436	1498.9831	1500.931	1873.122	3033.2991	3040.8514	3052.6309	3065.2948	3099.6563	3106.0731	3115.7676	3120.0262	3124.4417	3771.7219
CC1CC(=O)C1(C)O	C[C@H]1CC(=O)[C@]1(C)O	
InChI=1S/C6H10O2/c1-4-3-5(7)6(4,2)8/h4,8H,3H2,1-2H3	InChI=1S/C6H10O2/c1-4-3-5(7)6(4,2)8/h4,8H,3H2,1-2H3/t4-,6+/m0/s1
