15
gdb 51610	2.37268	1.12985	0.82823	6.1896	64.04	-0.282	-0.0134	0.2686	1324.0289	0.109663	-494.909733	-494.900867	-494.899922	-494.944732	30.139	
O	 0.4101597463	 0.1324922152	-0.2848812816	-0.254491
C	 0.4937459569	 1.2658201637	 0.0689257244	 0.178269
O	 1.057456389	 2.2265925622	-0.7106248727	-0.187017
C	 1.0262241633	 3.5443247243	-0.2238515553	 0.056459
C	 1.8732620399	 3.9326472963	 0.9643652469	-0.344511
C	 2.28662288	 4.3490664351	-0.4170761032	 0.081063
O	 3.4311898361	 3.708102718	-0.9141740759	-0.189353
C	 3.4061120382	 3.3376102755	-2.2244080291	 0.189145
O	 4.3478364786	 2.8353472171	-2.7512858808	-0.261721
H	 0.1385821974	 1.6616135398	 1.0375584881	 0.093394
H	 0.0754344691	 4.0458850639	-0.3810231013	 0.125045
H	 1.4961286779	 4.6786207192	 1.6536352109	 0.138382
H	 2.4815289763	 3.1510658972	 1.4056096511	 0.157509
H	 2.1921961129	 5.3898758357	-0.7126630605	 0.123651
H	 2.441690668	 3.5592758667	-2.7137952909	 0.094176
54.0016	78.2222	130.3518	154.948	178.1577	188.4796	306.668	368.6528	482.9644	552.8371	616.1886	692.6156	817.8727	830.0336	921.5216	1035.5177	1041.3241	1048.0356	1049.257	1079.3367	1128.9784	1135.2553	1146.4083	1165.8425	1179.4796	1258.9975	1365.5291	1392.8589	1420.8634	1423.9535	1472.4889	1874.2522	1885.1182	2980.3886	2991.731	3144.2431	3146.4576	3154.7893	3241.735
O=COC1CC1OC=O	O=CO[C@H]1C[C@H]1OC=O	
InChI=1S/C5H6O4/c6-2-8-4-1-5(4)9-3-7/h2-5H,1H2	InChI=1S/C5H6O4/c6-2-8-4-1-5(4)9-3-7/h2-5H,1H2/t4-,5+
