15
gdb 49155	4.00143	1.41003	1.20848	4.5477	74.09	-0.2399	-0.0598	0.1801	998.3491	0.113085	-420.592157	-420.585509	-420.584565	-420.623339	26.208	
O	-0.0304764137	-0.0494446114	 0.0713178269	-0.285886
C	 0.0144883185	 1.163191733	 0.0622774486	 0.063257
C	 1.2394425506	 1.9406463556	-0.043523486	 0.235862
C	 1.3615649427	 3.287702897	 0.0309757899	-0.136189
C	 2.772105155	 3.66967182	-0.0588634944	-0.141682
C	 3.7749265238	 2.7754314389	 0.8168517845	 0.110502
O	 3.1632064362	 1.6207444616	 1.3065191927	-0.281269
C	 2.6288022503	 1.360540701	-0.0659183481	-0.038113
C	 3.5538268144	 2.4894682487	-0.6143838984	-0.167729
H	-0.914408496	 1.7745322213	 0.1157750021	 0.065909
H	 0.5510273015	 3.9841778224	 0.2143082548	 0.12243
H	 3.0993026843	 4.6832447362	-0.2515968943	 0.102399
H	 4.5634264437	 3.2358475351	 1.3989423495	 0.126834
H	 2.7548473533	 0.317995228	-0.3439184267	 0.111434
H	 4.1923702154	 2.4989697827	-1.4881997411	 0.11224
107.3973	176.5147	238.2638	411.1269	466.1372	504.9767	606.5447	616.1009	690.7507	783.815	797.7954	805.7723	836.9732	856.6527	897.7559	919.529	947.719	1001.942	1031.6156	1038.9261	1058.2897	1083.7162	1114.3432	1190.0117	1220.3906	1241.2107	1252.3485	1330.8128	1359.6902	1377.9799	1419.9466	1629.351	1774.0165	2875.9942	3169.5527	3191.3137	3196.1053	3204.0126	3213.1256
O=CC1=CC2C3OC1C23	O=CC1=C[C@H]2[C@H]3O[C@@H]1[C@@H]23	
InChI=1S/C7H6O2/c8-2-3-1-4-5-6(3)9-7(4)5/h1-2,4-7H	InChI=1S/C7H6O2/c8-2-3-1-4-5-6(3)9-7(4)5/h1-2,4-7H/t4-,5-,6+,7-/m1/s1
