21
gdb 102509	2.06019	1.21671	0.8234	4.7316	79.05	-0.2589	0.0132	0.272	1424.3291	0.181377	-420.408876	-420.398058	-420.397113	-420.445073	38.82	
C	-0.1010512267	 1.5551974768	 0.0641933043	-0.393297
C	 0.1429454455	 0.0423164424	 0.0645175263	-0.195109
C	 0.7910537679	-0.4893914478	-1.2283839611	 0.017263
C	 2.2983646667	-0.1435337759	-1.2785119174	-0.088146
O	 2.8208840253	-0.0201426233	-2.5836590791	-0.424743
C	 0.5230169759	-2.0220950869	-1.3587019188	-0.153529
N	-0.8582259722	-2.4354670256	-1.6152890036	-0.507118
C	 1.3723417248	-2.6208740349	-2.404993818	 0.31278
N	 2.0646691193	-3.0534083785	-3.2239793785	-0.339924
H	 0.8242263634	 2.1223192786	-0.0734458127	 0.130597
H	-0.7854958773	 1.8410147014	-0.7415157922	 0.121779
H	-0.5459188364	 1.8766439402	 1.0106500629	 0.12002
H	 0.7768779712	-0.2340675542	 0.9187031492	 0.103714
H	-0.8177826355	-0.4599897884	 0.2297734512	 0.083931
H	 0.3274865569	-0.0017842317	-2.0961382907	 0.087916
H	 2.452373667	 0.8314847193	-0.8071042856	 0.110039
H	 2.8633227616	-0.8751270398	-0.6760207341	 0.092668
H	 2.901575393	-0.8992552799	-2.9708095774	 0.301103
H	 0.8298300338	-2.4953948073	-0.4155551101	 0.134865
H	-1.4441671695	-2.1996299305	-0.8223288147	 0.243312
H	-1.226916545	-1.940811004	-2.4225045297	 0.24188
48.3454	79.5799	118.2323	163.8564	200.2165	203.8443	232.9017	265.2735	287.8371	304.3777	400.3397	415.9986	433.8156	490.1762	559.9655	608.3078	765.0738	816.2217	838.1753	917.0324	926.143	968.2084	1037.4522	1080.5231	1085.376	1109.0363	1121.3371	1148.7408	1181.3116	1243.0572	1261.2694	1287.7292	1332.5297	1346.6397	1381.1601	1399.4118	1406.2155	1415.113	1436.0625	1483.9617	1494.3212	1504.3787	1506.4076	1655.8203	2349.6542	2963.5499	3011.5516	3017.1049	3033.2704	3039.1667	3049.0075	3079.1319	3106.6782	3112.9088	3501.0478	3593.0274	3797.3287
CCC(CO)C(N)C#N	CC[C@@H](CO)[C@@H](N)C#N	
InChI=1S/C6H12N2O/c1-2-5(4-9)6(8)3-7/h5-6,9H,2,4,8H2,1H3	InChI=1S/C6H12N2O/c1-2-5(4-9)6(8)3-7/h5-6,9H,2,4,8H2,1H3/t5-,6-/m0/s1
