18
gdb 11910	3.71517	1.73531	1.52911	1.7592	67.19	-0.2472	0.0781	0.3253	901.5636	0.15365	-384.927106	-384.919448	-384.918504	-384.959345	28.814	
C	 0.7181186857	 1.3002877592	 0.049438002	-0.398045
C	-0.154599983	 0.0545417636	-0.1042898248	 0.126936
C	 0.246247721	-0.8334111715	-1.2953120967	-0.309453
C	 1.3245297379	-1.701255254	-0.6727748198	 0.393489
C	 2.1649468617	-2.6620516059	-1.3853557416	-0.257571
O	 2.68997572	-1.3918275001	-0.9832692242	-0.270472
C	 0.9545677996	-1.8021289219	 0.8036087452	-0.133465
O	-0.0374288757	-0.8088561004	 1.0382069429	-0.276822
H	 1.7819297448	 1.0428345427	 0.0359150351	 0.136788
H	 0.5292292909	 2.0053769928	-0.7672751569	 0.111209
H	 0.4933068841	 1.799618553	 0.9958469844	 0.123381
H	-1.2081801155	 0.3488964255	-0.1518623216	 0.0787
H	-0.6020400586	-1.4509990655	-1.6092236307	 0.109552
H	 0.6211191622	-0.2794297569	-2.1579213013	 0.117456
H	 2.5723757425	-3.5239263453	-0.8568391005	 0.11498
H	 2.0396548954	-2.800539718	-2.4590650492	 0.114839
H	 0.5301859065	-2.7812724686	 1.0596599875	 0.105094
H	 1.8471330404	-1.6374146084	 1.4212284501	 0.113404
60.2777	107.4375	242.6937	270.3714	349.2584	380.8749	396.008	414.7588	529.1585	727.1342	773.8104	818.5721	835.4837	871.6765	916.2181	932.7374	967.5659	1002.7029	1049.6659	1068.7744	1112.9818	1125.2306	1141.7971	1170.0164	1199.5251	1231.736	1243.1958	1285.8206	1330.333	1357.228	1384.7694	1410.4204	1441.5288	1471.7934	1493.2364	1495.7938	1516.243	1536.36	3010.9706	3036.3833	3044.9035	3047.6297	3058.4267	3074.2412	3107.546	3120.5255	3123.4669	3157.4178
CC1CC2(CO2)CO1	C[C@H]1C[C@]2(CO2)CO1	
InChI=1S/C6H10O2/c1-5-2-6(3-7-5)4-8-6/h5H,2-4H2,1H3	InChI=1S/C6H10O2/c1-5-2-6(3-7-5)4-8-6/h5H,2-4H2,1H3/t5-,6+/m0/s1
