18
gdb 8631	2.04766	1.85695	1.54942	0.5812	79.14	-0.2612	0.0326	0.2938	997.9591	0.149655	-310.604907	-310.595273	-310.594328	-310.638433	35.751	
C	-0.0722612592	 1.5679111093	 0.1054404774	-0.39696
C	 0.0070167815	 0.0467510271	-0.0074746698	-0.180994
C	 0.7345865509	-0.4794155248	-1.285837085	-0.130083
C	 0.7391298728	-2.0325257229	-1.2655451786	-0.40615
C	 0.028906322	-0.0179337978	-2.4914621169	 0.371869
C	-0.5776327811	 0.3315837981	-3.4680744176	-0.496261
C	 2.1240600484	 0.0036486652	-1.3079329558	 0.371875
C	 3.2680002731	 0.3711744739	-1.2957388	-0.496266
H	 0.9266351272	 2.0129291846	 0.1295606654	 0.130488
H	-0.6146883805	 1.9972802549	-0.7418160414	 0.13049
H	-0.5941043159	 1.8547076335	 1.0233039645	 0.111868
H	 0.5357308578	-0.3691889964	 0.8574804875	 0.104881
H	-1.000159165	-0.3848452491	-0.010218455	 0.104885
H	-0.2884860959	-2.4053348742	-1.2509205911	 0.124654
H	 1.2428675901	-2.4270537018	-2.1501276321	 0.134849
H	 1.2627782472	-2.3893407361	-0.3746637864	 0.124654
H	-1.0994155075	 0.6491551641	-4.3368249271	 0.1981
H	 4.2763706842	 0.7043477426	-1.3002523181	 0.1981
101.015	125.8504	158.6065	173.3939	227.6136	248.4811	266.5994	275.4329	394.7252	462.4157	488.8762	562.9203	604.6593	633.2589	634.9371	641.709	643.7435	653.2011	786.9414	899.2382	924.9796	1009.3629	1039.2865	1074.7553	1112.5635	1192.8717	1225.7963	1321.0778	1356.0566	1404.279	1410.397	1474.132	1487.5046	1493.962	1496.4383	1507.5912	2232.0783	2238.0755	3034.8987	3043.4804	3047.9245	3077.4687	3112.7003	3121.2947	3127.2979	3137.3711	3501.4899	3502.2582
CCC(C)(C#C)C#C	CCC(C)(C#C)C#C	
InChI=1S/C8H10/c1-5-8(4,6-2)7-3/h1-2H,7H2,3-4H3	InChI=1S/C8H10/c1-5-8(4,6-2)7-3/h1-2H,7H2,3-4H3
