21
gdb 112916	2.5808	1.24639	1.08821	3.1247	74.73	-0.2408	0.0607	0.3015	1229.1357	0.182444	-461.356721	-461.347433	-461.346489	-461.391023	35.277	
C	 0.1038235711	 1.2292845397	 0.1746891248	-0.235726
O	-0.0586158586	-0.153013508	-0.0365362444	-0.230922
C	 0.5220803951	-0.6168600157	-1.2291920874	 0.117791
C	 2.081111034	-0.7112135756	-1.2076595781	-0.244976
C	 2.4299044972	-2.1308860831	-1.6939903119	 0.098967
O	 2.6678122296	-2.9236892725	-0.5175891156	-0.434278
C	 1.1604730113	-2.597453551	-2.4292369032	-0.26868
C	 0.0247495847	-2.055848551	-1.5421649145	 0.1041
O	-0.1761183053	-2.8441202646	-0.3898151408	-0.432444
H	 1.160694418	 1.5158844047	 0.2867396263	 0.103448
H	-0.3250012038	 1.8205977281	-0.6507932132	 0.100441
H	-0.4242122792	 1.479293395	 1.098222274	 0.128233
H	 0.2156787943	 0.0361440007	-2.0642295928	 0.057972
H	 2.5392375319	 0.0418166359	-1.8538238505	 0.099205
H	 2.4674497968	-0.5661032144	-0.1957148467	 0.125932
H	 3.3237035117	-2.1473726172	-2.3300995008	 0.068101
H	 2.7861438782	-3.8384164442	-0.7964237009	 0.286689
H	 1.1246216798	-2.1388465455	-3.4255391999	 0.099066
H	 1.1045937655	-3.683102877	-2.5559051718	 0.096468
H	-0.9391600102	-2.0313328716	-2.0576231719	 0.077974
H	 0.6818472181	-2.9184066126	 0.0508298892	 0.28264
45.317	107.0747	185.0477	202.552	214.4292	318.5509	344.2548	379.3569	391.9278	418.6175	448.1324	510.9678	576.2939	724.7753	779.637	808.8759	829.7069	870.8673	959.4611	969.3485	987.6986	991.9703	1037.9644	1064.2891	1110.4327	1170.1777	1180.2998	1183.4274	1188.9699	1230.148	1245.165	1249.0823	1280.0395	1315.0831	1339.0418	1355.8135	1365.0912	1397.7565	1413.5177	1466.2361	1473.9528	1479.6192	1482.7441	1490.3101	1509.2242	2946.8292	2968.3476	3014.4128	3016.0602	3035.7838	3066.7926	3078.2882	3089.5252	3112.0182	3116.3443	3738.6376	3807.176
COC1CC(O)CC1O	CO[C@H]1C[C@@H](O)C[C@H]1O	
InChI=1S/C6H12O3/c1-9-6-3-4(7)2-5(6)8/h4-8H,2-3H2,1H3	InChI=1S/C6H12O3/c1-9-6-3-4(7)2-5(6)8/h4-8H,2-3H2,1H3/t4-,5+,6-/m0/s1
