17
gdb 41638	3.61721	1.98557	1.65532	3.8138	74.7	-0.2255	-0.0164	0.209	838.438	0.139216	-380.775644	-380.769764	-380.76882	-380.805438	25.539	
C	-0.0684450557	 1.4805352474	-0.0643843017	-0.176048
C	 1.3607312982	 2.1164014297	-0.0236279168	-0.238195
C	 2.1930952113	 1.4903747854	 1.1285385944	-0.00622
C	 3.0047493815	 0.1433053781	 1.0261666915	-0.055632
C	 2.4545670379	-0.3569112051	 2.3107503135	-0.047029
C	 1.3067651945	 0.6755549114	 2.1327519707	-0.199542
C	 0.8318351628	-0.2358422377	 0.9996205188	 0.284118
N	 0.1718561882	 0.0263712722	-0.0406282942	-0.217131
N	 2.0370847937	-1.0531393199	 1.0676449434	-0.177737
H	-0.660040287	 1.8428530623	 0.7884461719	 0.104044
H	-0.6025278902	 1.7506641049	-0.97720272	 0.109902
H	 1.8501969367	 1.9521734031	-0.9885966273	 0.120238
H	 1.28535093	 3.1993771632	 0.1222670672	 0.101223
H	 2.8282957876	 2.2277967921	 1.6261916032	 0.088272
H	 3.9612217703	-0.0345675343	 0.5514103667	 0.106864
H	 2.902593307	-0.849278231	 3.1619317852	 0.108298
H	 0.6763435332	 1.1512711582	 2.8777374335	 0.094576
237.2789	303.6264	397.8813	479.6237	513.278	609.92	619.2545	716.9356	733.4415	806.9563	826.8167	835.3022	866.562	886.2181	898.8299	920.1866	939.1798	995.7928	1017.7601	1023.5283	1046.317	1054.7106	1085.0103	1109.5351	1159.917	1189.8272	1202.2758	1219.2306	1231.9145	1252.8064	1296.6721	1318.866	1335.3947	1345.8562	1479.5169	1504.8	1736.8968	3002.2532	3044.9576	3076.2033	3091.6257	3107.4181	3164.528	3199.8414	3224.0151
C1CC2C3C4C2C(=N1)N34	C1C[C@@H]2[C@H]3[C@H]4[C@@H]2[C]([N]1)N34	
InChI=1S/C7H8N2/c1-2-8-7-4-3(1)5-6(4)9(5)7/h3-6H,1-2H2	InChI=1S/C7H8N2/c1-2-8-7-4-3(1)5-6(4)9(5)7/h3-6H,1-2H2/t3-,4+,5-,6+,9?/m0/s1
