17
gdb 110763	2.56651	1.29317	1.09095	3.1562	70.35	-0.229	0.0128	0.2418	1157.3508	0.135336	-455.093067	-455.084201	-455.083257	-455.126855	32.992	
N	-0.0226101901	 1.4958967706	 0.0809381801	-0.598176
C	 0.0006997971	 0.0892949007	-0.0238535309	 0.174519
C	 1.1908871184	-0.7097689039	-0.5453257021	-0.101024
C	 2.0052127058	-1.7029825474	 0.2585406744	-0.101356
O	 2.67551293	-2.6302331808	-0.5803112765	-0.4139
C	-0.1704133071	-0.9972150715	-1.1026112301	-0.003906
O	-0.9083684689	-1.8346778933	-0.175618611	-0.27812
C	-0.866000075	-0.8258874759	 0.7936550475	 0.403586
N	-1.4548872275	-0.7393028617	 1.8944749604	-0.544681
H	 0.6805041506	 1.9433728729	-0.4920379393	 0.240304
H	-0.9329735584	 1.8877857132	-0.1316719944	 0.245722
H	 1.7910545928	-0.1111759573	-1.231600204	 0.101415
H	 2.7879713877	-1.1739714161	 0.8108109567	 0.120165
H	 1.3675460801	-2.2086522034	 0.9944470584	 0.113349
H	 2.0015479739	-3.1705210336	-1.0060953118	 0.288134
H	-0.497120643	-0.9856093378	-2.1333801036	 0.121541
H	-2.0168962664	-1.5716735145	 2.0810594363	 0.232426
63.386	110.5908	169.7229	203.1679	270.3734	285.8669	301.7337	337.2778	437.99	494.1064	598.1172	659.1257	708.1912	738.6193	781.4085	799.4527	866.0972	899.5515	913.9295	931.4307	966.984	1002.4534	1047.6047	1068.808	1070.1397	1162.6454	1202.8851	1215.5446	1277.4406	1311.9104	1352.4283	1399.5586	1416.4437	1478.991	1497.7789	1650.0635	1829.6616	3029.1288	3085.5982	3117.2266	3215.6891	3478.4584	3523.9241	3621.5876	3812.6192
NC12C(CO)C1OC2=N	N[C@]12[C@@H](CO)[C@H]1O[C]2[NH]	
InChI=1S/C5H8N2O2/c6-4-5(7)2(1-8)3(5)9-4/h2-3,6,8H,1,7H2	InChI=1S/C5H8N2O2/c6-4-5(7)2(1-8)3(5)9-4/h2-3,6,8H,1,7H2/t2-,3+,5+/m0/s1
