18
gdb 97562	3.065	0.81243	0.66471	5.5612	77.85	-0.2542	0.0138	0.268	1667.3923	0.146154	-439.086531	-439.076158	-439.075214	-439.123944	35.799	
C	-0.1636205554	 1.6044227271	 0.1201065481	-0.382719
C	 0.0249419479	 0.072656196	 0.1225781185	-0.329967
C	 0.8282785063	-0.402741268	 1.2444481078	-0.002467
C	 1.4235454919	-0.8340799903	 2.2005374055	 0.170609
C	 2.1404756061	-1.4028252403	 3.3402537632	-0.302101
N	 1.7461188197	-2.8055828495	 3.5435495092	-0.501383
H	 2.0755734966	-3.3648970202	 2.7622098682	 0.236206
H	 2.2100434349	-3.16577156	 4.372446698	 0.235401
H	-0.8293437546	-1.6955766598	 1.5200161186	 0.310912
C	-1.3604888291	-0.622869875	 0.0455892591	 0.450893
O	-2.1751015419	-0.3030203095	-0.775632738	-0.329007
O	-1.5942667729	-1.6067458151	 0.9261832803	-0.369706
H	 0.8014565615	 2.1059198907	 0.0192368947	 0.125295
H	-0.8080820424	 1.8806578845	-0.7158586084	 0.15147
H	-0.6306493632	 1.937682208	 1.0506704441	 0.132254
H	 0.5214758983	-0.2058195364	-0.8169224	 0.14216
H	 3.2228968386	-1.249382835	 3.1900702354	 0.120009
H	 1.8750904076	-0.8456207372	 4.2474146755	 0.142141
26.0707	47.7989	62.443	128.2883	187.628	229.517	244.9188	269.6883	327.2716	408.8744	434.41	502.1106	566.2574	604.777	653.1536	716.9834	768.9153	828.5692	855.1608	969.886	1004.9285	1043.7534	1080.5387	1090.6019	1171.078	1193.6711	1212.1133	1278.7627	1303.8882	1322.2405	1355.916	1401.5616	1420.4041	1493.5325	1494.715	1499.9048	1655.0967	1865.2426	2356.5948	2952.9889	3021.233	3042.5304	3055.5	3130.2334	3150.9995	3490.2996	3572.7252	3660.4509
CC(C#CC[NH3+])C([O-])=O	C[C@@H](C#CCN)C(=O)O	
InChI=1S/C6H9NO2/c1-5(6(8)9)3-2-4-7/h5H,4,7H2,1H3,(H,8,9)	InChI=1S/C6H9NO2/c1-5(6(8)9)3-2-4-7/h5H,4,7H2,1H3,(H,8,9)/t5-/m0/s1
