18
gdb 40793	3.8326	1.1963	1.01461	2.3208	72.05	-0.2434	0.0713	0.3146	1178.1976	0.148872	-439.030657	-439.023019	-439.022075	-439.063401	28.994	
C	 0.1665268492	 1.4608045326	-0.0148145911	-0.174866
O	 1.0929557344	 0.4013025601	-0.2692465186	-0.24444
C	-0.2673349658	 0.0621344698	 0.0171941733	 0.075291
C	-0.4849013416	-0.6652313058	 1.3212845724	 0.110859
O	-1.863665291	-0.535928075	 1.6728670919	-0.278339
C	-2.3275431604	-1.7194359603	 2.318295972	-0.074858
C	-1.39044523	-2.8233873578	 1.8788804726	-0.055884
N	-1.2180328006	-2.8574262801	 0.4129184558	-0.332287
C	-0.2245325103	-2.1600932114	 1.2572701162	-0.082013
H	 0.3166939141	 1.9976046493	 0.9211459648	 0.114102
H	-0.0808859997	 2.0819436221	-0.8739622772	 0.116381
H	-0.8328489649	-0.3416796227	-0.8206054706	 0.111298
H	 0.1671896502	-0.2210654251	 2.0911801447	 0.071219
H	-2.2924665059	-1.616156207	 3.4144352627	 0.092594
H	-3.3669057461	-1.8762394767	 2.0120542532	 0.115551
H	-1.3052368426	-3.7343662851	 2.4612401623	 0.096474
H	-0.8430955223	-3.7629321208	 0.1406282663	 0.235141
H	 0.7887704533	-2.5357810462	 1.3384754892	 0.103775
70.1837	109.8185	164.3613	269.8882	315.9201	385.5854	430.3904	521.6505	673.4888	767.5886	808.0198	847.7557	867.4685	876.6172	886.402	926.0641	958.419	979.8793	1017.8618	1028.3111	1083.5722	1099.1377	1102.8845	1147.4169	1151.8722	1156.5464	1168.5431	1187.2361	1231.7663	1253.6475	1278.2005	1302.4895	1316.3905	1360.0423	1388.0977	1430.5151	1458.6939	1509.5386	1529.4872	2971.6352	2983.2884	3072.9752	3084.4154	3138.3063	3172.5748	3172.7656	3187.1138	3502.6028
C1OC1C1OCC2NC12	C1O[C@H]1[C@H]1OC[C@H]2N[C@@H]12	
InChI=1S/C6H9NO2/c1-3-5(7-3)6(9-1)4-2-8-4/h3-7H,1-2H2	InChI=1S/C6H9NO2/c1-3-5(7-3)6(9-1)4-2-8-4/h3-7H,1-2H2/t3-,4-,5-,6-/m1/s1
