20
gdb 95230	3.25748	1.36717	1.07492	1.9398	80.41	-0.2398	0.	0.2398	1160.1742	0.172683	-403.117231	-403.10919	-403.108246	-403.149435	32.038	
C	 0.1300817101	 1.6109622007	-0.0841839136	-0.404014
C	-0.0555890088	 0.106023096	 0.0571536162	 0.116571
O	 0.3134303669	-0.4566588871	-1.211461607	-0.279407
C	 0.5857743213	-1.8483535517	-1.2457636383	-0.059304
C	-0.4050610619	-2.7074480958	-0.4802862867	-0.070632
N	 0.2134857777	-3.8023304992	 0.2951119148	-0.337572
C	-0.3858838221	-2.6529055569	 1.0066746728	-0.072082
C	 0.5491839063	-1.7063261078	 1.6814623434	-0.070304
C	 0.7163294993	-0.4599860218	 1.2393087586	-0.069271
H	 1.1880035465	 1.852073958	-0.2286273205	 0.122347
H	-0.4273716334	 1.9804678399	-0.9483539611	 0.123283
H	-0.2277833812	 2.1276091964	 0.8118671015	 0.113053
H	-1.1236707799	-0.1018361838	 0.2225175115	 0.075678
H	 0.5866723728	-2.1139086045	-2.3081414145	 0.103522
H	 1.5833679442	-2.0671020055	-0.8460554703	 0.107845
H	-1.361306733	-2.8983289984	-0.9620545882	 0.086226
H	-0.4218337437	-4.5952032673	 0.3402884867	 0.232015
H	-1.324620179	-2.8442194995	 1.526768369	 0.093884
H	 1.1080553159	-2.0753733945	 2.5383861978	 0.097519
H	 1.4278196419	 0.2012086529	 1.7286449679	 0.090645
104.4666	212.5777	233.8877	251.1708	306.0394	331.6128	356.1616	422.8368	438.0284	580.3653	620.611	727.3872	747.0907	819.0987	841.9407	843.9112	905.725	922.89	979.2981	998.5419	1001.9756	1026.4989	1046.3607	1109.9115	1131.3247	1132.9289	1154.1562	1182.4427	1217.2121	1224.4759	1260.4818	1299.2226	1343.3348	1363.8359	1372.0049	1404.8231	1407.5682	1426.8623	1456.5466	1484.1962	1497.1844	1504.8503	1705.4638	2974.9544	3029.8391	3040.5642	3076.0153	3098.5322	3112.7572	3125.392	3134.6499	3143.2056	3166.2201	3499.6337
CC1OCC2NC2C=C1	C[C@H]1OC[C@H]2N[C@H]2C=C1	
InChI=1S/C7H11NO/c1-5-2-3-6-7(8-6)4-9-5/h2-3,5-8H,4H2,1H3	InChI=1S/C7H11NO/c1-5-2-3-6-7(8-6)4-9-5/h2-3,5-8H,4H2,1H3/t5-,6+,7-/m1/s1
