15
gdb 125598	3.15341	1.46155	1.00511	5.9461	72.79	-0.2383	-0.0537	0.1846	1113.3547	0.114093	-450.182819	-450.174666	-450.173722	-450.215385	30.503	
C	-0.0434028736	 1.5383843412	-0.0181490823	-0.504142
C	-0.013388865	 0.0381185328	-0.0138125852	 0.296241
N	-0.0220138136	-0.5848706784	-1.1534141216	-0.20889
N	-0.0010403216	-1.91416005	-1.1153610365	-0.274009
C	 0.0320447436	-2.7339826208	 0.0353440191	 0.440018
O	 0.0491339375	-3.9380090863	-0.0960594165	-0.387335
N	 0.046284986	-2.0529170393	 1.232193248	-0.403221
C	 0.0201979496	-0.7452098703	 1.2154737298	 0.351481
N	-0.0009121579	-0.0919682735	 2.4044239455	-0.552754
H	 0.8501224015	 1.9646503479	 0.4561772166	 0.132033
H	-0.0832497906	 1.895599789	-1.0482288438	 0.155107
H	-0.9186599809	 1.9254082079	 0.5177009346	 0.13816
H	-0.008881525	-2.3812577098	-2.0109388009	 0.276077
H	 0.1235480541	-0.6484565986	 3.2349742581	 0.274156
H	 0.1603233958	 0.897060508	 2.4607307851	 0.267078
90.5032	193.0747	198.5809	229.7641	299.508	310.8518	369.8059	420.3761	504.6178	539.4281	564.1438	584.1787	669.2664	724.0595	766.553	795.3471	797.5095	938.7793	1011.9289	1060.6388	1108.5869	1207.4288	1239.6421	1308.0417	1410.7667	1424.2358	1459.2102	1482.7498	1490.1586	1569.0165	1628.3379	1671.3505	1818.5173	3017.8419	3067.8374	3141.2932	3608.2292	3612.4015	3746.3588
CC1=NNC(=O)N=C1N	Cc1n[nH]c(=O)nc1N	
InChI=1S/C4H6N4O/c1-2-3(5)6-4(9)8-7-2/h1H3,(H3,5,6,8,9)	InChI=1S/C4H6N4O/c1-2-3(5)6-4(9)8-7-2/h1H3,(H3,5,6,8,9)
