21
gdb 79627	2.09645	1.84579	1.51526	1.4031	80.64	-0.238	0.0626	0.3006	1022.7984	0.184315	-387.056985	-387.048817	-387.047873	-387.089151	33.09	
C	-0.4433346863	 1.5985946532	-0.0097285048	-0.430672
C	-0.1282555185	 0.1195644997	-0.1777353762	-0.000417
C	 0.5643221014	-0.6073867351	-1.3167427254	-0.073426
C	 1.5249183482	 0.0345767699	-2.3030965043	-0.032214
C	 1.8901032069	 1.497260982	-2.2328002787	-0.301861
C	 2.7602316565	 0.4716162535	-1.5470883746	-0.083092
C	 2.540058353	 0.1630210113	-0.0558738577	 0.084885
O	 2.5702225911	 1.3026033274	 0.8045031069	-0.425544
C	 1.1973572699	-0.5719378991	 0.0640790983	-0.081243
H	-1.0222338025	 1.9880333092	-0.8543040045	 0.111423
H	-1.0533237905	 1.7302590832	 0.8903157819	 0.108252
H	 0.4500111492	 2.2043707881	 0.1290219964	 0.1508
H	-0.9463536697	-0.4928604852	 0.1992998414	 0.08234
H	 0.0762520932	-1.5080510967	-1.674621393	 0.077491
H	 1.6113646744	-0.4550596702	-3.2668564823	 0.080836
H	 2.2957270452	 1.9360334651	-3.1392687936	 0.104538
H	 1.2991781479	 2.1817605565	-1.6450147589	 0.123547
H	 3.7556464665	 0.3023033265	-1.9455859045	 0.077005
H	 3.3272289924	-0.5406353958	 0.2560170789	 0.067858
H	 3.3892800833	 1.7768956355	 0.6287130787	 0.280536
H	 1.1945309786	-1.4415696091	 0.712869576	 0.078957
137.8511	149.0719	205.9575	260.3494	283.3704	323.6924	339.303	488.8911	544.0167	601.3314	674.059	690.1231	726.0343	735.1943	798.0031	830.4672	835.4481	935.7546	948.0639	980.4428	1013.1971	1029.7998	1045.8099	1063.9385	1068.4393	1079.651	1098.8079	1110.9373	1119.4059	1139.4996	1148.9508	1208.4786	1239.1145	1262.2436	1322.7308	1340.8696	1363.4039	1379.7079	1385.9468	1406.2827	1421.7633	1447.5891	1486.5424	1497.8472	1524.2521	2973.7752	3035.8979	3085.3836	3103.697	3142.0438	3146.757	3151.8562	3156.5716	3161.337	3171.3849	3269.6121	3814.0755
CC1C2C3CC3C(O)C12	C[C@H]1[C@H]2[C@H]3C[C@H]3[C@@H](O)[C@@H]12	
InChI=1S/C8H12O/c1-3-6-4-2-5(4)8(9)7(3)6/h3-9H,2H2,1H3	InChI=1S/C8H12O/c1-3-6-4-2-5(4)8(9)7(3)6/h3-9H,2H2,1H3/t3-,4-,5+,6-,7-,8+/m0/s1
