16
gdb 18508	5.89354	1.20732	1.14236	3.5511	66.26	-0.246	0.0227	0.2688	1043.3695	0.131714	-379.89369	-379.886372	-379.885427	-379.926345	26.716	
O	-0.1182569246	-0.052628041	 0.2512377822	-0.317282
C	-0.0623470362	 1.1458164796	 0.0816671937	 0.153246
N	 1.0806662692	 1.8578711755	-0.133206497	-0.291504
C	 2.3932080769	 1.257679162	-0.1593903865	 0.039463
C	 3.2864864246	 1.3286852001	-1.4346920977	-0.192906
N	 4.4460725747	 1.8856818686	-0.6498934022	-0.11835
C	 3.9753880138	 3.1830135312	-0.146394154	-0.245759
C	 3.5305787528	 1.9658677295	 0.5657588354	-0.050285
H	-0.9571192002	 1.7995363985	 0.0835746036	 0.076597
H	 1.0014439086	 2.8564471147	-0.245498184	 0.245443
H	 2.2631951951	 0.228188206	 0.1722545352	 0.135516
H	 3.534336806	 0.3521612486	-1.85316385	 0.125695
H	 2.9424738446	 1.9906668854	-2.2366368566	 0.103431
H	 4.7574129085	 3.7697695106	 0.3254469208	 0.129691
H	 3.2844604587	 3.766456264	-0.7540822575	 0.102203
H	 3.8813159577	 1.7230922667	 1.5636513144	 0.104799
31.375	129.775	191.553	231.0267	390.5208	421.5176	521.3824	532.739	670.5823	751.2618	772.1256	815.315	890.7255	954.7025	991.8175	994.4452	1032.6327	1057.658	1067.9618	1100.9277	1119.3366	1131.7691	1190.4599	1209.9603	1233.7098	1262.6776	1295.4387	1365.8906	1372.9035	1431.736	1489.101	1507.5033	1527.255	1808.1285	2936.3422	3046.6357	3091.3408	3120.9077	3136.9316	3165.1171	3193.2231	3629.422
O=CNC1CN2CC12	O=CN[C@H]1CN2C[C@@H]12	
InChI=1S/C5H8N2O/c8-3-6-4-1-7-2-5(4)7/h3-5H,1-2H2,(H,6,8)	InChI=1S/C5H8N2O/c8-3-6-4-1-7-2-5(4)7/h3-5H,1-2H2,(H,6,8)/t4-,5-,7?/m0/s1
