17
gdb 52778	2.595	1.20084	0.93532	0.9407	78.01	-0.2182	0.0344	0.2527	1292.6686	0.133419	-421.743304	-421.734141	-421.733196	-421.778711	32.949	
C	 0.0022525688	 1.5054685764	 0.0034776973	-0.502486
C	 0.0163095709	 0.051474459	 0.0552220227	 0.041948
C	 0.0250453731	-1.1530198001	 0.1004120532	 0.079659
C	 0.0512312802	-2.590398381	 0.1090812487	 0.173801
O	 1.1796815127	-3.2007535136	-0.4676675994	-0.456894
C	-0.4303584818	-3.4361111308	 1.2786597918	-0.170619
C	-1.6874650336	-2.8163304597	 1.8720266674	-0.10635
O	-2.336429474	-2.7932936613	 0.5654488575	-0.27788
C	-1.2090792893	-3.4331363395	-0.0143567178	 0.018086
H	 0.5960114691	 1.8746570253	-0.8401117651	 0.150366
H	-1.0177792447	 1.8858449992	-0.1193818773	 0.153983
H	 0.4159741945	 1.9455727347	 0.9175882239	 0.149471
H	 1.2267297558	-2.9080359218	-1.3848855489	 0.287921
H	 0.2200278336	-4.1766710733	 1.7229346576	 0.114193
H	-2.225470112	-3.4856895	 2.5514799447	 0.114131
H	-1.6014445472	-1.8160681039	 2.3085769354	 0.118664
H	-1.3562962661	-4.1666858994	-0.7993494718	 0.112007
19.3366	81.102	111.9295	224.5009	236.7501	295.2118	339.3211	350.2581	367.7854	453.42	541.1181	583.3728	618.9191	767.924	821.7526	916.714	929.8951	948.0468	985.9885	1000.6228	1047.4115	1051.7206	1053.5378	1074.0693	1111.9768	1141.5794	1161.0332	1225.8422	1297.4941	1301.8659	1334.5747	1411.609	1421.9427	1475.1538	1478.6766	1506.7587	2360.0449	3026.3623	3036.4439	3086.6626	3089.3646	3090.4899	3175.2808	3213.1217	3797.3202
CC#CC1(O)C2COC12	CC#C[C@@]1(O)[C@H]2CO[C@@H]12	
InChI=1S/C7H8O2/c1-2-3-7(8)5-4-9-6(5)7/h5-6,8H,4H2,1H3	InChI=1S/C7H8O2/c1-2-3-7(8)5-4-9-6(5)7/h5-6,8H,4H2,1H3/t5-,6+,7+/m0/s1
