20
gdb 93282	2.18337	1.80556	1.11066	4.2773	79.19	-0.2294	-0.0193	0.2101	1128.6574	0.171677	-403.159483	-403.151001	-403.150057	-403.192505	32.888	
C	-0.1056381744	 1.5641671001	-0.0641085919	-0.417459
C	 0.0431540164	 0.0467468206	 0.0062207214	-0.073683
C	 0.8662601889	-0.5610996295	-1.1560421481	-0.229297
C	 1.257785211	-1.9656186658	-0.6692803799	-0.334113
C	 1.4230116963	-1.8083664779	 0.8427081828	 0.372712
O	 2.0195063222	-2.5451766246	 1.5847930726	-0.31684
C	 0.7346886846	-0.5196268831	 1.2460345776	 0.223118
C	 1.3607111475	 0.3002819208	 2.3285214768	-0.275009
N	 0.1513560929	-0.4778654154	 2.599333035	-0.343797
H	 0.8711794038	 2.0582449766	-0.0851088126	 0.122985
H	-0.6486448411	 1.8553200123	-0.9689264271	 0.120778
H	-0.6658657099	 1.9597529123	 0.7913110925	 0.112041
H	-0.9621943618	-0.4004634406	-0.0312651253	 0.083825
H	 0.3081092946	-0.5687656979	-2.0958197874	 0.104016
H	 1.7673872326	 0.0437143268	-1.3158913753	 0.106929
H	 0.4400252789	-2.6798103993	-0.837012428	 0.131387
H	 2.1545407557	-2.3868080617	-1.1282629337	 0.127414
H	 2.257603379	-0.0861763939	 2.8039810688	 0.137701
H	 1.2918992646	 1.3817068479	 2.2565393262	 0.116233
H	-0.6597047619	 0.139459062	 2.5808839755	 0.231059
63.0557	165.9977	237.4973	241.1492	263.1151	278.6982	298.6992	465.3109	467.8337	528.5822	555.3787	634.5239	671.7282	797.8537	836.1955	851.649	900.4437	939.1222	958.2479	981.4383	993.5158	1025.0108	1062.1177	1074.6454	1116.9245	1137.3467	1140.4924	1187.4802	1225.6708	1273.1849	1293.7645	1307.0453	1317.3893	1338.6453	1373.0743	1383.0767	1413.9179	1454.7812	1491.5648	1495.8331	1500.1098	1502.2506	1845.3878	2983.5481	3026.0989	3028.119	3036.8666	3089.1891	3094.4731	3104.8081	3113.4633	3114.6929	3207.1829	3469.2786
CC1CCC(=O)C11CN1	C[C@H]1CCC(=O)[C@]21CN2	
InChI=1S/C7H11NO/c1-5-2-3-6(9)7(5)4-8-7/h5,8H,2-4H2,1H3	InChI=1S/C7H11NO/c1-5-2-3-6(9)7(5)4-8-7/h5,8H,2-4H2,1H3/t5-,7+/m0/s1
