21
gdb 113557	2.40225	1.22998	1.20478	2.5616	79.16	-0.2149	0.0667	0.2816	1218.5591	0.180197	-424.175828	-424.166144	-424.1652	-424.210684	35.316	
C	-0.468443189	 0.9644840962	-0.2822081683	-0.232234
O	 0.5249565289	 0.0133976987	 0.0585590429	-0.233473
C	 1.0175258798	-0.6739776518	-1.0433709701	 0.028594
C	 1.4575772438	-2.0959340466	-0.7838173299	-0.401143
C	 0.2278567126	-1.8300858418	-1.5972098881	 0.430369
O	-1.0742470835	-2.1400200749	-1.0988794674	-0.30353
C	-1.5346254529	-2.455027189	-2.4350655684	-0.081662
C	-0.1314195372	-2.2026661958	-3.0371458838	-0.119033
C	-0.0078166469	-1.1346449446	-4.1143954508	-0.409505
H	-0.0787271109	 1.7226499175	-0.9791009094	 0.097854
H	-1.3448497552	 0.4810916004	-0.7299011985	 0.122753
H	-0.764226935	 1.4605778754	 0.6453150039	 0.12566
H	 1.6005648557	-0.0676708717	-1.74201873	 0.078451
H	 2.351894926	-2.4711824921	-1.271388769	 0.111752
H	 1.2884009849	-2.4550503376	 0.2260887325	 0.136002
H	-1.9168975931	-3.479378658	-2.4987439977	 0.106344
H	-2.3112652645	-1.7564645595	-2.7713348539	 0.099131
H	 0.3563886316	-3.1277503573	-3.3591360966	 0.083612
H	-0.4958227887	-0.2043468443	-3.8056664536	 0.120748
H	 1.0410865742	-0.9076311581	-4.3331739314	 0.120412
H	-0.4741078107	-1.467672945	-5.0477564824	 0.118896
61.1177	107.1751	115.703	148.5083	199.0117	223.805	247.0159	316.4155	363.7525	447.3909	476.371	527.238	647.7532	753.5268	794.1667	861.62	877.6584	902.319	926.7262	1005.1628	1012.6129	1054.5286	1065.7164	1080.3268	1115.5818	1126.2278	1150.5205	1169.8313	1185.2881	1186.4903	1200.8764	1242.8011	1265.6599	1306.1378	1342.4664	1373.3229	1405.0218	1411.8304	1460.9237	1485.2744	1487.8041	1495.7053	1497.9919	1507.1353	1524.6311	2983.6694	3016.2794	3030.4117	3052.4959	3056.9471	3061.1128	3072.5616	3097.0263	3104.6433	3119.4948	3125.1176	3220.4203
COC1CC11OCC1C	CO[C@H]1C[C@]21OC[C@H]2C	
InChI=1S/C7H12O2/c1-5-4-9-7(5)3-6(7)8-2/h5-6H,3-4H2,1-2H3	InChI=1S/C7H12O2/c1-5-4-9-7(5)3-6(7)8-2/h5-6H,3-4H2,1-2H3/t5-,6+,7+/m1/s1
