17
gdb 43107	2.86268	1.85822	1.43972	4.0089	71.05	-0.224	-0.0279	0.1961	923.7695	0.137855	-421.815272	-421.808428	-421.807484	-421.846892	26.806	
O	-0.0340817317	 0.0068793945	-0.1440980335	-0.300894
C	-0.0511762053	 1.1969142446	-0.0244318713	 0.411635
C	-1.1649915385	 2.2450298864	-0.0335492357	-0.171384
C	-1.445393815	 2.8542847745	 1.378558309	-0.249737
C	-0.2974624579	 3.8955127927	 1.193042565	-0.042402
C	 1.0034659849	 3.6182091747	 1.9374100237	-0.082777
O	 1.5995775735	 2.473948586	 1.3192574725	-0.269175
C	 1.0618319159	 2.2872976766	 0.0158041269	-0.018333
C	-0.0476795594	 3.3474534342	-0.2369641815	-0.075768
H	-2.0197634674	 2.0671616308	-0.685451756	 0.093411
H	-2.4275941558	 3.3292196326	 1.4135656691	 0.117716
H	-1.3608045262	 2.1711497343	 2.2280031838	 0.118064
H	-0.6133962424	 4.9358850397	 1.2802711494	 0.082082
H	 1.6841738605	 4.4801367129	 1.8644762155	 0.096851
H	 0.8531831183	 3.3886620549	 2.998190154	 0.113168
H	 1.8668068063	 2.1734622093	-0.7173013623	 0.097726
H	 0.0278469103	 4.0007585615	-1.1024362685	 0.079818
68.5367	172.6031	217.4695	336.8187	422.5678	519.3537	609.1396	698.3516	713.3009	770.2567	816.2954	829.6382	862.9749	894.272	924.2711	928.1908	975.073	992.0943	1025.8551	1039.5713	1093.4889	1110.5287	1127.1808	1141.1653	1170.5264	1206.7301	1221.5753	1240.0786	1245.0105	1270.9556	1290.1943	1311.7463	1327.0149	1386.6239	1482.046	1516.5727	1888.3667	2987.2233	3060.4636	3062.5376	3065.0322	3099.9435	3116.0598	3124.6314	3149.0171
O=C1C2CC3COC1C23	O=C1[C@H]2C[C@H]3CO[C@@H]1[C@@H]23	
InChI=1S/C7H8O2/c8-6-4-1-3-2-9-7(6)5(3)4/h3-5,7H,1-2H2	InChI=1S/C7H8O2/c8-6-4-1-3-2-9-7(6)5(3)4/h3-5,7H,1-2H2/t3-,4-,5+,7+/m0/s1
