21
gdb 83737	2.93526	1.34077	1.08254	1.723	83.07	-0.2264	0.0786	0.3049	1199.594	0.184421	-383.232771	-383.224551	-383.223607	-383.265255	32.633	
C	-0.011023963	 1.5273891611	-0.037356442	-0.417428
C	-0.0208023494	 0.0187790482	-0.084853699	 0.011852
C	 0.6903736306	-0.7396082997	-1.151980108	-0.126392
N	 1.2525271011	-0.6493974547	 0.2141347164	-0.119394
C	 1.1028339266	-1.9920291059	 0.819787038	-0.157701
C	 0.1279232879	-2.8174949798	-0.0572677588	-0.322789
C	 0.2591328783	-2.1543641346	-1.4245635341	 0.379027
C	-0.4961768399	-2.5436853438	-2.6368883509	-0.303143
N	 0.9224244892	-2.9263800261	-2.4909378783	-0.360089
H	 0.9268958963	 1.9175502688	-0.4415999429	 0.125731
H	-0.8415097679	 1.9434441151	-0.6181256865	 0.114166
H	-0.1059613619	 1.8845333823	 0.9937598431	 0.121297
H	-0.9264584138	-0.4420190105	 0.3091749194	 0.080482
H	 1.2137115554	-0.2024409511	-1.9418367977	 0.078317
H	 2.0952316779	-2.4541699219	 0.8236876563	 0.113655
H	 0.7744460047	-1.8984889575	 1.8593710696	 0.103537
H	 0.3958559993	-3.874187772	-0.1071943366	 0.119082
H	-0.9009801111	-2.7503708683	 0.3104303504	 0.106041
H	-1.198862865	-3.372302529	-2.6003942483	 0.116983
H	-0.7579783469	-1.7646099734	-3.3492685072	 0.109878
H	 1.5057987114	-2.3137408875	-3.0576377332	 0.226889
110.651	182.711	192.6867	215.715	302.551	309.9743	376.8371	416.7307	457.5454	534.7122	672.5669	767.8355	786.8919	799.9611	845.1528	880.7115	909.5459	938.2823	948.3724	975.8299	991.2034	1035.5516	1049.6407	1062.0281	1087.07	1100.7387	1137.2511	1149.3839	1173.4295	1196.4639	1223.9725	1261.1814	1264.454	1294.2597	1301.9958	1324.9344	1355.5891	1398.8952	1414.2937	1456.9815	1488.3675	1489.8458	1495.9016	1506.9054	1516.7577	3032.7412	3048.1175	3053.1349	3090.8165	3095.8997	3099.8354	3104.0322	3114.8796	3121.0005	3125.0035	3182.617	3480.9781
CC1C2N1CCC21CN1	C[C@H]1[C@H]2N1CC[C@]12CN1	
InChI=1S/C7H12N2/c1-5-6-7(4-8-7)2-3-9(5)6/h5-6,8H,2-4H2,1H3	InChI=1S/C7H12N2/c1-5-6-7(4-8-7)2-3-9(5)6/h5-6,8H,2-4H2,1H3/t5-,6+,7+,9?/m0/s1
