19
gdb 90197	2.952	1.73482	1.54715	1.8598	79.31	-0.2105	0.0584	0.269	955.4986	0.158729	-385.734883	-385.727586	-385.726642	-385.766101	30.114	
C	-0.5253492897	 1.3702397392	-0.0337952415	-0.406637
C	 0.0185219205	-0.0524201895	-0.0003921188	-0.070504
C	 1.2233351248	-0.3688011968	-0.985145846	-0.339394
C	 2.1948528236	-0.3751397621	 0.2299452002	 0.180993
C	 2.8136509384	 0.7962392823	 1.0263018095	-0.312209
C	 2.1323734752	-0.0462392921	 2.1305060302	-0.155492
C	 2.4438436882	-1.4050004902	 1.3671680115	 0.047885
O	 1.0838490318	-1.8988162997	 1.4006195206	-0.350985
C	 0.9646489395	-0.4494106767	 1.1701235265	 0.337881
H	 0.2694455729	 2.1191358596	 0.0279248107	 0.123159
H	-1.0683189816	 1.543711032	-0.9691087317	 0.120773
H	-1.2174088256	 1.5448100677	 0.7961821948	 0.1252
H	-0.8049423522	-0.7684758034	-0.0715871516	 0.098858
H	 1.1316014459	-1.3352931156	-1.4831435736	 0.124398
H	 1.4323474544	 0.3986884349	-1.7346983413	 0.10903
H	 3.9059258291	 0.8572834492	 1.0545302066	 0.098009
H	 2.392073843	 1.7903198166	 0.856917859	 0.104043
H	 2.1203668345	 0.1062056006	 3.2138977759	 0.078678
H	 3.2556907173	-2.117089336	 1.5487798489	 0.086314
146.6415	211.3765	223.8518	315.1573	360.3009	418.2747	462.1034	530.5614	605.3147	712.2122	738.0596	755.5528	806.369	813.9017	848.0046	896.586	915.2462	939.5894	942.3063	973.6791	1016.5843	1033.2648	1081.9103	1091.2001	1117.8307	1145.3353	1157.5751	1164.5584	1195.7642	1223.8712	1231.5235	1246.0281	1266.0377	1275.9981	1301.9585	1338.5279	1410.7722	1454.2326	1491.8232	1497.3545	1522.074	3035.4174	3047.5812	3052.4813	3066.0405	3068.2759	3075.5892	3099.9792	3102.9425	3115.1959	3130.9667
CC1CC23CC4C2OC134	C[C@H]1C[C@]23C[C@@H]4[C@H]2O[C@]134	
InChI=1S/C8H10O/c1-4-2-7-3-5-6(7)9-8(4,5)7/h4-6H,2-3H2,1H3	InChI=1S/C8H10O/c1-4-2-7-3-5-6(7)9-8(4,5)7/h4-6H,2-3H2,1H3/t4-,5+,6+,7-,8-/m0/s1
