19
gdb 6093	3.83998	1.10891	0.96267	5.3854	68.12	-0.2445	0.0225	0.2671	1247.9358	0.164516	-402.236508	-402.227325	-402.226381	-402.271136	33.006	
C	-0.2956315548	 1.4890387752	 0.0899796997	-0.389577
C	-0.1403066172	-0.0320731188	 0.1417196609	 0.056983
C	 1.1245946181	-0.4381160742	 0.9119033865	-0.385793
N	-1.3766642408	-0.622038842	 0.6935111971	-0.315718
H	-1.4642374524	-0.3793036622	 1.6741452994	 0.227632
H	-2.7427450276	-0.5470134334	-0.6410183023	 0.301807
C	-1.5489605872	-2.0598323786	 0.4896075096	-0.320088
C	-2.3521859457	-2.3471900316	-0.7918535838	 0.424877
O	-2.9973926082	-1.2693659339	-1.2588049143	-0.36266
O	-2.4130277176	-3.4322372516	-1.3022757425	-0.334214
H	 0.5921932326	 1.9553195097	-0.3466945338	 0.122949
H	-1.1665802759	 1.7746768714	-0.5059408167	 0.124004
H	-0.4246536557	 1.9011680819	 1.0981579149	 0.113461
H	-0.0613424627	-0.4073071891	-0.8868890195	 0.101756
H	 1.0884637905	-0.0564689075	 1.9394824009	 0.112463
H	 1.2460104509	-1.5241465828	 0.9582205623	 0.123806
H	 2.0190222712	-0.0259071563	 0.4344695552	 0.1249
H	-0.6145196132	-2.6301792869	 0.4335843153	 0.13356
H	-2.1248689543	-2.4799596293	 1.3208004112	 0.139851
51.4346	65.0636	98.1907	221.5692	243.7366	257.2667	313.996	346.6003	427.9327	444.2976	551.71	558.1887	649.7928	758.9478	821.0966	867.8105	888.2026	919.4008	928.7723	950.0596	1011.8145	1106.7952	1145.8312	1158.7761	1191.0499	1213.9608	1275.4626	1335.5951	1352.9296	1368.0749	1401.0102	1420.4849	1428.4894	1466.2117	1474.2138	1482.0334	1489.8996	1506.5666	1509.4451	1878.5275	3025.0209	3028.1934	3035.5766	3040.5638	3087.6212	3095.9008	3103.5404	3111.2729	3121.8726	3452.3141	3531.2457
CC(C)[NH2+]CC([O-])=O	CC(C)NCC(=O)O	
InChI=1S/C5H11NO2/c1-4(2)6-3-5(7)8/h4,6H,3H2,1-2H3,(H,7,8)	InChI=1S/C5H11NO2/c1-4(2)6-3-5(7)8/h4,6H,3H2,1-2H3,(H,7,8)
