13
gdb 129266	6.71677	0.83833	0.75589	1.0889	62.37	-0.2651	-0.0503	0.2148	1382.0048	0.087373	-489.874747	-489.866801	-489.865857	-489.908874	27.434	
N	-0.2655538066	 1.2893816753	-0.2202697314	-0.570895
C	-0.0347763847	 0.0711667346	-0.0607570065	 0.509646
O	 1.1499517669	-0.5857795397	 0.1241213838	-0.241101
N	 0.882235269	-1.9739387545	 0.2623537254	-0.171242
C	-0.3895411336	-2.0641095139	 0.1520090647	 0.433229
C	-1.1896234221	-3.3138039385	 0.2251135694	-0.416468
C	-0.341183049	-4.5790657392	 0.1132806871	 0.176334
O	-0.5710522026	-5.5706919665	 0.7482002782	-0.225468
O	-1.0272512433	-0.8859314275	-0.047139705	-0.206784
H	 0.5927438877	 1.8339651528	-0.1997862089	 0.251075
H	-1.7743141108	-3.3522081316	 1.1494748306	 0.174176
H	-1.9071714131	-3.3096789178	-0.6076730087	 0.171583
H	 0.4835244921	-4.5260406136	-0.6254433587	 0.115914
38.1324	59.728	154.5681	174.3953	290.8265	335.8155	446.4713	508.6788	629.2673	690.7801	727.7811	761.5302	786.4166	812.5558	912.0349	935.0784	978.4063	1044.0079	1051.9817	1062.0016	1207.1853	1234.3171	1262.2078	1394.3818	1425.347	1446.7682	1698.8922	1822.3147	1845.8932	2938.6754	3030.3434	3095.4669	3550.0635
N=C1ON=C(CC=O)O1	[NH][C@@H]1ON=C(CC=O)O1	
InChI=1S/C4H4N2O3/c5-4-8-3(1-2-7)6-9-4/h2,5H,1H2	InChI=1S/C4H5N2O3/c5-4-8-3(1-2-7)6-9-4/h2,4-5H,1H2/t4-/m0/s1
