17
gdb 114584	2.13833	1.60383	1.10034	3.7535	74.34	-0.2658	-0.0072	0.2586	1126.8919	0.135635	-417.960449	-417.951934	-417.95099	-417.993991	30.944	
C	-0.4832586442	 1.0394587017	-0.0878150489	-0.252395
O	 0.6236511938	 0.1684040799	 0.0729419464	-0.234351
C	 0.9485071452	-0.5370560976	-1.0833672569	 0.04556
C	 2.1134825697	-1.5322142559	-0.9142390874	-0.199655
N	 1.2768832892	-2.7039437823	-1.365710437	-0.150404
C	 0.1773940204	-2.7991199389	-0.4041449021	-0.269897
C	 0.0724841936	-1.756792141	-1.4571720973	 0.176603
C	-0.8784436731	-1.7952753888	-2.5234191406	 0.198978
N	-1.6594703486	-1.7740178758	-3.3774595842	-0.337715
H	-0.2973749096	 1.7787193131	-0.8803549635	 0.119057
H	-1.4014641653	 0.4878232669	-0.3328841835	 0.1268
H	-0.6231014451	 1.5590062922	 0.8619090369	 0.13764
H	 1.074343315	 0.1353917778	-1.9425200825	 0.095617
H	 2.9410127357	-1.3712955976	-1.605329433	 0.129303
H	 2.4905477533	-1.6310745983	 0.1069429406	 0.12762
H	-0.4302548478	-3.6880373082	-0.535017328	 0.148258
H	 0.3301882678	-2.4756035573	 0.622745541	 0.138981
84.7839	97.4751	163.7382	172.2	226.3249	267.3385	408.4132	427.7809	477.0876	533.9184	563.3787	668.7774	733.1579	786.4644	851.3349	879.3773	979.5119	1006.8115	1030.4742	1087.3104	1123.0657	1132.8508	1151.5124	1178.6358	1199.8551	1212.6247	1243.3166	1260.3907	1299.872	1344.7244	1399.0798	1481.4111	1483.8815	1489.4266	1501.5883	1507.4821	2344.3222	2992.4645	3019.5651	3047.8341	3072.6602	3115.1908	3130.9021	3141.1162	3217.5471
COC1CN2CC12C#N	CO[C@H]1CN2C[C@@]12C#N	
InChI=1S/C6H8N2O/c1-9-5-2-8-4-6(5,8)3-7/h5H,2,4H2,1H3	InChI=1S/C6H8N2O/c1-9-5-2-8-4-6(5,8)3-7/h5H,2,4H2,1H3/t5-,6-,8?/m0/s1
