20
gdb 10341	2.11448	1.60452	1.13269	2.1362	71.53	-0.2424	-0.013	0.2293	1157.273	0.173791	-386.161867	-386.151543	-386.150599	-386.198162	35.593	
C	-1.5187392202	-0.0275856933	 0.2747118497	-0.397755
C	 0.0107001813	-0.0389738145	 0.2061142076	-0.168446
C	 0.5581582229	-0.6388863847	-1.0978016733	-0.064564
C	 2.0703616383	-0.3974120866	-1.2349234927	-0.089533
O	 2.2785762195	 0.9988443099	-1.3759680702	-0.421198
C	 0.3225536401	-2.151958502	-1.1756533568	 0.38296
C	-0.0985779429	-2.7115387225	-2.5209648255	-0.482671
O	 0.488754725	-2.8623660244	-0.2097505477	-0.314252
H	-1.9509166001	 0.5481302095	-0.5518099778	 0.110904
H	-1.9289476618	-1.0422537818	 0.229318176	 0.120819
H	-1.8658173633	 0.4241493334	 1.2089524627	 0.115278
H	 0.3993975968	 0.9792849557	 0.2973478281	 0.11094
H	 0.4142070983	-0.6225152699	 1.0407707141	 0.114042
H	 0.0804389374	-0.1569437208	-1.9604873536	 0.080048
H	 2.5744099942	-0.7973063624	-0.3425941634	 0.107189
H	 2.464191955	-0.9417349999	-2.1090205987	 0.084984
H	 3.2243835532	 1.1676737915	-1.3343932935	 0.28924
H	-1.1008848411	-2.3424196427	-2.7699569655	 0.144974
H	 0.5694283113	-2.3598644687	-3.3152314552	 0.137441
H	-0.1080333239	-3.8018543258	-2.4924649542	 0.1396
22.7244	86.0252	114.7235	150.6167	168.268	196.8008	221.8176	252.0327	283.3179	343.6423	396.58	480.4162	591.2735	600.089	743.2618	838.8711	882.4172	949.6746	969.966	991.4427	1035.8719	1064.6709	1092.5897	1125.8437	1152.7564	1188.6979	1229.8852	1265.0228	1289.4143	1324.4276	1361.9113	1375.7951	1391.4379	1411.7576	1449.3	1461.3964	1474.4799	1487.4002	1500.47	1505.4161	1521.2347	1807.1621	2962.6102	3008.3052	3028.6869	3030.2752	3035.2251	3051.6242	3083.7927	3091.7267	3102.792	3108.4786	3150.2248	3830.662
CCC(CO)C(C)=O	CC[C@@H](CO)C(=O)C	
InChI=1S/C6H12O2/c1-3-6(4-7)5(2)8/h6-7H,3-4H2,1-2H3	InChI=1S/C6H12O2/c1-3-6(4-7)5(2)8/h6-7H,3-4H2,1-2H3/t6-/m0/s1
