19
gdb 73102	2.62041	1.54305	1.28671	4.3423	74.74	-0.2616	0.0172	0.2789	1063.8019	0.159711	-423.078604	-423.070578	-423.069633	-423.111265	31.202	
C	-0.0887450222	 1.5461914388	 0.0602473465	-0.454332
C	 0.0234359353	 0.0375156168	 0.0546254372	 0.399702
C	-1.2411233927	-0.8227185377	 0.301489285	-0.259559
C	-0.4194193427	-1.7361865292	 1.2557480748	-0.242026
C	 0.7634071122	-0.7217044633	 1.2053600333	-0.059369
C	 2.0684795706	-1.197695924	 0.5909372638	-0.37933
C	 1.8350080671	-1.0828661031	-0.9169644064	 0.407668
O	 2.5148131429	-1.5106239392	-1.8031206139	-0.333758
O	 0.6911184458	-0.380886159	-1.154031571	-0.256586
H	 0.9014879312	 2.0110735853	 0.015034211	 0.124218
H	-0.6659760975	 1.8925554372	-0.8028361042	 0.135536
H	-0.5908524668	 1.8880543687	 0.9703236099	 0.118149
H	-2.026222096	-0.2615616792	 0.8146479875	 0.105497
H	-1.6622186658	-1.2853452664	-0.5928217312	 0.118806
H	-0.8517726621	-1.9087932211	 2.2428709277	 0.108113
H	-0.1658534638	-2.7064880354	 0.820251586	 0.112345
H	 0.8866834349	-0.1435076609	 2.1219279112	 0.078573
H	 2.921330495	-0.5609487496	 0.8503850403	 0.137562
H	 2.3432008245	-2.2251229785	 0.8414313926	 0.138789
88.7274	98.8269	215.0992	245.7028	316.6695	366.0702	397.0511	496.0307	553.6058	592.4733	652.0255	660.1718	748.8134	800.2809	831.8502	868.6099	913.7907	938.9622	955.1451	976.1113	998.6766	1064.4982	1102.0742	1133.756	1141.6902	1197.3705	1204.5219	1218.2136	1237.2714	1262.4383	1276.316	1297.7787	1322.7769	1339.704	1412.0874	1458.464	1469.684	1483.7996	1490.2262	1494.1119	1879.1784	3036.0487	3055.712	3064.4779	3069.2853	3098.3874	3108.0862	3108.8311	3113.4938	3117.2934	3132.9484
CC12CCC1CC(=O)O2	C[C@]12CC[C@H]1CC(=O)O2	
InChI=1S/C7H10O2/c1-7-3-2-5(7)4-6(8)9-7/h5H,2-4H2,1H3	InChI=1S/C7H10O2/c1-7-3-2-5(7)4-6(8)9-7/h5H,2-4H2,1H3/t5-,7-/m0/s1
