16
gdb 76356	2.0152	1.41196	1.22101	5.7566	75.27	-0.264	-0.0123	0.2517	1124.1957	0.123316	-396.933093	-396.923475	-396.922531	-396.967646	33.781	
C	-0.1445700204	 1.500713693	-0.0179367335	-0.425237
C	-0.0090137447	-0.0003161895	-0.0933395107	-0.062487
C	 0.6969124391	-0.7083947407	-1.2142368883	-0.014741
N	 1.3837332031	-0.0910823414	-2.3049213851	-0.516275
C	 1.3635490166	-0.6850109442	 0.1810927448	-0.013855
C	 2.5123356229	 0.1667605566	 0.3420998377	 0.258918
N	 3.4138160549	 0.8861984537	 0.4295526532	-0.34179
C	 1.3720545783	-1.9006300492	 0.952315537	 0.248635
N	 1.3379471772	-2.8832073711	 1.5607888707	-0.328679
H	 0.7023766138	 2.0186638455	-0.472638655	 0.137717
H	-1.0535445517	 1.8126745144	-0.5423556796	 0.135999
H	-0.2217744366	 1.8355061898	 1.0201903025	 0.148871
H	-0.8271065753	-0.5567862949	 0.3549777626	 0.128498
H	 0.3007191722	-1.6863863703	-1.4725137486	 0.14012
H	 0.7317569796	 0.1913066241	-3.0290291594	 0.248035
H	 1.922513791	 0.7207014343	-2.0250041182	 0.256272
93.6909	120.315	132.5447	145.5607	163.1421	169.1934	229.8976	345.5205	384.7894	476.292	491.9872	571.2739	596.6323	619.2088	645.6613	776.5757	783.7405	842.0094	970.0176	1018.4936	1062.8043	1090.8171	1120.8578	1153.7179	1224.9937	1281.6725	1292.4473	1387.1303	1423.9629	1437.6004	1487.895	1500.3691	1653.5618	2352.6101	2358.9594	3047.9559	3112.8266	3131.9367	3153.5397	3163.264	3513.8901	3600.1149
CC1C(N)C1(C#N)C#N	C[C@H]1[C@@H](N)C1(C#N)C#N	
InChI=1S/C6H7N3/c1-4-5(9)6(4,2-7)3-8/h4-5H,9H2,1H3	InChI=1S/C6H7N3/c1-4-5(9)6(4,2-7)3-8/h4-5H,9H2,1H3/t4-,5+/m0/s1
