16
gdb 49490	2.1674	1.74912	1.18231	5.5427	74.86	-0.2656	-0.046	0.2196	1049.8781	0.124662	-400.716903	-400.709215	-400.708271	-400.749497	28.72	
O	-0.6846723321	 0.8275983221	 0.5717338134	-0.238703
C	 0.1808162359	 1.0045269075	-0.2481809542	 0.124738
C	 1.3236004881	 1.9744313925	-0.1173468488	-0.109075
C	 1.1434849956	 3.4708230483	-0.5867485423	-0.088883
C	 0.2708666646	 3.7129647731	 0.6783605529	-0.261074
C	 1.4907230989	 2.8573561494	 1.1608193326	 0.234195
C	 2.3857360952	 3.7986368413	 0.2888056201	-0.254996
C	 1.7689153543	 2.394673101	 2.4969669068	 0.166367
N	 2.0103019245	 2.033940504	 3.5685207799	-0.348782
H	 0.1912484331	 0.4288813822	-1.2022176027	 0.087915
H	 2.2437924247	 1.5084721025	-0.4881472962	 0.099358
H	 0.9467717624	 3.8041082657	-1.60393983	 0.099719
H	 0.2460606626	 4.7394618054	 1.0493045995	 0.113568
H	-0.7034740839	 3.2332119565	 0.731755709	 0.144689
H	 3.3472899019	 3.3931118837	-0.0333606522	 0.113521
H	 2.4722125143	 4.8275749848	 0.6430676723	 0.117444
79.4779	123.1847	181.4789	225.7054	280.7808	416.5978	517.5045	534.3955	551.6861	559.1154	745.7765	768.4139	804.9791	862.6446	913.7148	952.4086	958.0294	991.6841	1045.9806	1051.092	1075.9852	1111.3046	1138.6725	1153.3128	1165.6834	1214.7727	1228.228	1233.6339	1270.004	1386.4342	1424.1443	1503.0133	1541.4495	1822.1832	2355.3669	2869.4087	3050.5401	3067.3506	3086.656	3138.949	3139.5694	3179.0581
O=CC1C2CC1(C2)C#N	O=C[C@H]1[C@H]2C[C@@]1(C2)C#N	
InChI=1S/C7H7NO/c8-4-7-1-5(2-7)6(7)3-9/h3,5-6H,1-2H2	InChI=1S/C7H7NO/c8-4-7-1-5(2-7)6(7)3-9/h3,5-6H,1-2H2/t5-,6-,7+/m0/s1
