15
gdb 64854	2.78629	1.25227	1.00105	6.1356	70.22	-0.3098	-0.0309	0.2788	1171.9072	0.111436	-416.81095	-416.802328	-416.801384	-416.844925	30.777	
C	-0.3972424877	 1.6061934544	 0.0170928038	-0.438677
C	 0.0880419812	 0.1666192807	-0.0752175674	 0.259428
C	 0.9010711047	-0.2314452761	-1.3411118388	-0.345576
C	 2.0709888096	-0.4522959364	-0.3506730091	-0.008485
O	 1.2501110926	-0.0638294594	 0.7710592948	-0.293929
C	 2.5807774375	-1.8206743639	-0.2414047726	 0.287948
N	 2.9967789996	-2.896552767	-0.1784197697	-0.30175
C	-0.9942505841	-0.7730657964	 0.2574257737	 0.278488
N	-1.8585901742	-1.5003955828	 0.4994170353	-0.319208
H	 0.417691306	 2.2859697387	-0.2442227105	 0.13325
H	-1.2362856975	 1.771552967	-0.6651338398	 0.147411
H	-0.7277656423	 1.8264100735	 1.0352604365	 0.158455
H	 0.555773367	-1.123017459	-1.8604953771	 0.163622
H	 1.0526924658	 0.5831284834	-2.0486149724	 0.139806
H	 2.9196707418	 0.2289764233	-0.4737897567	 0.139217
36.9076	145.6282	182.3928	199.1092	229.4435	238.3418	334.9331	382.3742	487.9895	540.623	565.3123	587.7907	651.4646	775.7025	861.2817	903.3632	929.354	971.6578	1004.7445	1046.5804	1106.8531	1135.0008	1200.4591	1259.1418	1266.1263	1273.8786	1370.7247	1408.3511	1477.088	1484.3131	1490.0229	2358.0067	2361.2697	3048.0775	3055.2616	3106.7294	3128.2467	3134.9619	3175.3504
CC1(CC(O1)C#N)C#N	C[C@]1(C[C@@H](O1)C#N)C#N	
InChI=1S/C6H6N2O/c1-6(4-8)2-5(3-7)9-6/h5H,2H2,1H3	InChI=1S/C6H6N2O/c1-6(4-8)2-5(3-7)9-6/h5H,2H2,1H3/t5-,6+/m1/s1
