20
gdb 68205	3.52739	1.19956	1.0505	4.4629	81.51	-0.231	0.0398	0.2708	1200.7113	0.17224	-403.165814	-403.157637	-403.156693	-403.199354	31.689	
C	-0.0589146929	 1.4982962893	 0.0678500093	-0.498405
C	 0.0105301281	-0.0091847245	 0.0367804989	 0.297109
C	 1.0097173935	-0.7997707717	-0.8791680778	-0.257738
C	 0.6587886312	-1.9482509783	 0.1037928884	-0.016787
C	 0.6041087956	-0.8613683952	 1.2125365586	-0.259308
N	-0.7652404522	-2.140626511	-0.1837084207	-0.015765
C	-1.3056147763	-0.7751244947	-0.2440452743	-0.199079
C	-1.4871956866	-3.2797958839	-0.2121406169	 0.128349
O	-2.6919418609	-3.3328762836	-0.369465151	-0.347959
H	 0.924714224	 1.934514821	 0.2686635599	 0.118904
H	-0.4139275543	 1.8976832508	-0.8889212376	 0.123266
H	-0.7459294968	 1.8464594504	 0.8473994596	 0.123681
H	 0.7516933251	-0.9413852038	-1.931844427	 0.10303
H	 2.0367600465	-0.4448401384	-0.7731165454	 0.1039
H	 1.2198566905	-2.877646477	 0.1845201469	 0.084095
H	 1.5922943536	-0.511928556	 1.5184404969	 0.103983
H	-0.0268426537	-1.0595682843	 2.0829440472	 0.103056
H	-2.0765639917	-0.613900878	 0.516523906	 0.122287
H	-1.7344850192	-0.5507836506	-1.2264053544	 0.119661
H	-0.8493439735	-4.1785551702	-0.0845326368	 0.063722
23.9055	174.361	214.3141	251.944	313.1966	324.0592	395.6671	452.335	481.8817	538.9016	611.0554	703.4282	807.5361	841.7835	853.2903	864.681	933.9221	943.6111	960.936	1020.9002	1028.0366	1038.3426	1051.3876	1089.3051	1127.6695	1143.7052	1175.0178	1212.4873	1231.8352	1243.5032	1257.0119	1269.947	1284.689	1366.1306	1416.155	1418.3591	1465.4143	1477.5219	1492.8472	1493.4554	1507.2197	1526.4398	1785.8929	2919.3646	3027.5136	3042.2596	3059.5241	3066.3187	3083.6877	3091.609	3100.6943	3126.7874	3132.5427	3140.1797
CC12CC(C1)N(C2)C=O	C[C@@]12C[C@@H](C1)N(C2)C=O	
InChI=1S/C7H11NO/c1-7-2-6(3-7)8(4-7)5-9/h5-6H,2-4H2,1H3	InChI=1S/C7H11NO/c1-7-2-6(3-7)8(4-7)5-9/h5-6H,2-4H2,1H3/t6-,7+
