21
gdb 106644	2.743	1.21568	1.00374	3.4183	84.54	-0.2342	-0.0014	0.2327	1284.8533	0.18084	-387.100283	-387.090673	-387.089729	-387.134765	35.741	
C	 0.0814065798	 1.4928722179	-0.235974264	-0.373784
C	-0.0114350931	 0.0107937062	 0.1554127104	-0.293452
C	-1.4226508466	-0.5084597361	 0.1433410306	 0.326306
C	-2.1291941918	-0.999055834	-1.0722040852	-0.369088
C	-1.9122740258	-1.9988287106	 0.0631977925	 0.151668
C	-1.1923870056	-3.3037170692	-0.1220574576	-0.497609
C	-2.8739248055	-1.6835951412	 1.164697363	 0.379204
O	-3.5176612263	-2.3768102672	 1.904134237	-0.324964
C	-2.4883525889	-0.1816050552	 1.2066452066	-0.422883
H	 1.1189600412	 1.8393911755	-0.2128511567	 0.115814
H	-0.309064784	 1.6575824332	-1.2453337315	 0.120606
H	-0.496521039	 2.1198203239	 0.4508916579	 0.122886
H	 0.5995845013	-0.5870159186	-0.5323700359	 0.100574
H	 0.4197664173	-0.1306344204	 1.1549910468	 0.103078
H	-3.1277762036	-0.6481249246	-1.3212429976	 0.115659
H	-1.506530529	-1.2030275734	-1.9394284093	 0.118101
H	-0.3198981142	-3.1856441555	-0.7726657716	 0.119009
H	-0.8534935052	-3.7062517666	 0.8375325953	 0.132362
H	-1.8487510047	-4.0509100052	-0.5810736566	 0.136248
H	-2.0811210659	 0.0695665714	 2.1913820425	 0.125241
H	-3.2522865005	 0.5536416797	 0.9361099433	 0.115023
79.1945	95.4133	136.113	146.6096	214.815	237.9798	262.7142	345.5717	395.4741	444.0327	496.8468	564.839	623.7726	670.324	708.4913	778.9359	790.5155	857.4013	944.6613	965.7739	980.5948	1006.9536	1031.1203	1041.2093	1074.6798	1086.0538	1104.2217	1111.038	1189.3076	1205.5811	1237.3415	1319.5118	1345.8019	1362.2619	1395.8185	1411.8505	1417.9993	1460.3657	1479.015	1482.6687	1496.9098	1498.814	1507.5174	1508.8103	1867.5557	3017.702	3032.5824	3035.9506	3048.1629	3052.7209	3095.7258	3101.1333	3103.6694	3105.9786	3106.759	3109.4195	3187.3898
CCC12CC1(C)C(=O)C2	CC[C@@]12C[C@]1(C)C(=O)C2	
InChI=1S/C8H12O/c1-3-8-4-6(9)7(8,2)5-8/h3-5H2,1-2H3	InChI=1S/C8H12O/c1-3-8-4-6(9)7(8,2)5-8/h3-5H2,1-2H3/t7-,8-/m1/s1
