20
gdb 58179	2.71331	1.08326	0.91656	2.8111	78.28	-0.2471	-0.0703	0.1769	1356.3057	0.16803	-440.319181	-440.3085	-440.307555	-440.356072	37.154	
C	-0.0760407671	 1.4895765494	 0.102905122	-0.391188
C	-0.024112724	-0.0439731354	 0.0858266932	 0.044565
C	 0.7318199705	-0.6175969656	 1.2873236166	-0.404911
N	-1.3845676316	-0.6155103333	-0.0310152538	-0.107619
C	-2.2002262464	-0.7038332478	 1.1755641204	-0.37355
C	-1.8101378411	-0.9377251992	-1.2786787785	 0.317344
O	-1.141868647	-0.7797613189	-2.2953131652	-0.380378
C	-3.1974455825	-1.5530240228	-1.5483766275	 0.100593
O	-4.1632178638	-1.6151141542	-0.8336993549	-0.246719
H	 0.9381999023	 1.8992637232	 0.1381775519	 0.120946
H	-0.5641852603	 1.8651117888	-0.7999941977	 0.136565
H	-0.6173011297	 1.869137684	 0.9764525651	 0.115515
H	 0.4847125549	-0.3528633087	-0.8288896286	 0.128223
H	 0.3091773699	-0.291191602	 2.2426491544	 0.119769
H	 0.7387603498	-1.7115827679	 1.2677322083	 0.124684
H	 1.7695419383	-0.2737092425	 1.2541298415	 0.12564
H	-3.2232469426	-0.9565192449	 0.9159312282	 0.188511
H	-1.8073786811	-1.4627072912	 1.8607003961	 0.130525
H	-2.1982319825	 0.2587084926	 1.6988564504	 0.129531
H	-3.207110886	-1.9119009037	-2.597327652	 0.121955
32.5504	44.8563	108.0009	143.8022	194.8045	214.2801	240.0427	260.3859	271.3467	349.4278	395.0331	428.1413	479.9496	522.2318	600.8228	688.854	712.2951	862.3376	930.4164	953.4767	965.6104	1027.87	1086.2827	1143.083	1159.7721	1161.7229	1206.9075	1248.5022	1357.6384	1377.2073	1386.25	1398.8161	1419.157	1447.8415	1470.0118	1486.4591	1490.6371	1500.4417	1505.2924	1513.9786	1529.2849	1722.4895	1823.3249	2946.6997	3032.2133	3035.6569	3042.2891	3082.2968	3091.036	3103.7516	3115.2229	3120.0602	3124.2048	3201.4683
CC(C)N(C)C(=O)C=O	CC(C)N(C)C(=O)C=O	
InChI=1S/C6H11NO2/c1-5(2)7(3)6(9)4-8/h4-5H,1-3H3	InChI=1S/C6H11NO2/c1-5(2)7(3)6(9)4-8/h4-5H,1-3H3
