21
gdb 106830	3.1069	1.10367	0.95818	1.8019	80.	-0.2276	0.0756	0.3032	1342.8635	0.180236	-424.175196	-424.16545	-424.164506	-424.210152	35.591	
C	-0.300209036	 1.4332508708	-0.1356771658	-0.378193
C	 0.122471654	-0.0315491805	 0.043831877	-0.284382
C	 0.7922119982	-0.5854345355	-1.1729637485	 0.397515
C	 0.1225118329	-1.1414815059	-2.4110208174	-0.399734
C	 1.1664466643	-1.9568764647	-1.6663229187	 0.288993
C	 2.549852192	-1.3640623621	-1.9300038059	-0.142599
O	 2.0766695364	-0.046256426	-1.5392003338	-0.327352
O	 0.9170443061	-3.1863529324	-1.1069310061	-0.279431
C	 0.7912827289	-4.2333829102	-2.0583867783	-0.253456
H	 0.565598668	 2.0571898262	-0.3754666402	 0.136382
H	-1.0246552041	 1.5361634559	-0.9498226379	 0.117646
H	-0.7575538335	 1.8221539617	 0.778819006	 0.110403
H	 0.809838852	-0.1190299089	 0.8937422978	 0.109684
H	-0.7485385504	-0.6559870556	 0.2727122067	 0.108482
H	-0.8926167849	-1.4941282487	-2.2523156919	 0.116712
H	 0.3245897398	-0.7081291188	-3.3872529329	 0.109003
H	 3.3077789908	-1.7306271697	-1.2280490752	 0.111678
H	 2.9425213739	-1.3792376262	-2.9534715028	 0.100541
H	 1.726642506	-4.3931496849	-2.612534221	 0.112817
H	 0.5503073936	-5.1411072305	-1.501163786	 0.129826
H	-0.0112751881	-4.0242575041	-2.778348845	 0.115465
62.9411	93.3047	105.0057	175.0012	199.549	219.7625	279.2498	294.1741	383.6951	402.6773	447.691	537.6501	642.4837	742.5464	756.3744	793.3697	889.9721	910.9337	971.2944	982.6702	986.3223	990.891	1045.5406	1050.8344	1090.1201	1105.9886	1146.2791	1167.2949	1179.3029	1208.2176	1218.5107	1272.0338	1308.6435	1331.9687	1368.3679	1407.1482	1414.8834	1471.2115	1472.9482	1488.6151	1497.0517	1502.2362	1505.4663	1509.3116	1527.1126	2996.3318	3021.7428	3033.4079	3040.0258	3052.559	3072.3465	3075.0875	3107.8182	3110.375	3118.2444	3124.9565	3204.9538
CCC12CC1(CO2)OC	CC[C@]12C[C@]1(CO2)OC	
InChI=1S/C7H12O2/c1-3-6-4-7(6,8-2)5-9-6/h3-5H2,1-2H3	InChI=1S/C7H12O2/c1-3-6-4-7(6,8-2)5-9-6/h3-5H2,1-2H3/t6-,7+/m0/s1
