20
gdb 117243	4.20749	0.77152	0.74224	2.509	79.39	-0.2285	-0.0243	0.2042	1626.5387	0.167927	-440.248662	-440.238511	-440.237567	-440.28466	35.51	
C	-1.5406263439	 0.770523669	-0.3588893991	-0.226892
O	-0.3986662226	-0.0261219366	-0.1423242801	-0.211781
C	-0.1538861533	-0.9168204521	-1.1832709753	-0.16189
C	 1.087244661	-1.7544626634	-0.8932742046	 0.356426
O	 1.7122797575	-1.6553600229	 0.13785933	-0.3075
C	 1.4400185586	-2.7119532944	-1.9919923383	-0.108928
C	 2.8634094045	-3.1772728472	-2.1003599736	-0.236485
N	 1.8331787347	-4.1102691907	-1.7190311167	-0.082193
C	 1.8277290863	-4.6214943843	-0.3494042078	-0.327228
H	-1.4429689812	 1.3883386125	-1.265657648	 0.105862
H	-2.4526181281	 0.1604696757	-0.4557430775	 0.106282
H	-1.644275815	 1.4273641143	 0.5074131998	 0.135495
H	-1.0021620001	-1.6094698033	-1.3470232642	 0.112069
H	-0.00137768	-0.3965686817	-2.1487928473	 0.107984
H	 0.8501567906	-2.6074780163	-2.9007028491	 0.090641
H	 3.2986054438	-3.3136693326	-3.0872536211	 0.119403
H	 3.5361063228	-2.8066883658	-1.3285898366	 0.135059
H	 2.1580349804	-3.8976093019	 0.4033649728	 0.148494
H	 0.814885993	-4.9534543628	-0.1008312089	 0.120929
H	 2.485591121	-5.4955618954	-0.3231865943	 0.124253
42.27	84.972	108.3117	132.4545	181.9523	232.3299	241.0203	258.5004	322.7096	376.7973	400.5117	411.9202	592.4243	705.8798	739.6945	833.3914	886.2241	980.4069	998.0028	1018.0097	1041.0752	1079.4511	1102.3341	1126.0187	1140.27	1170.4138	1176.4141	1183.394	1215.0275	1243.4361	1254.5093	1329.8847	1380.4045	1417.4281	1443.7561	1465.879	1485.6664	1486.4605	1490.8682	1495.1626	1510.488	1515.5713	1803.8571	2921.5045	2939.0258	2971.2107	3015.7137	3027.4442	3093.959	3101.0537	3106.1637	3120.9547	3122.0535	3186.7259
COCC(=O)C1CN1C	COCC(=O)[C@H]1CN1C	
InChI=1S/C6H11NO2/c1-7-3-5(7)6(8)4-9-2/h5H,3-4H2,1-2H3	InChI=1S/C6H11NO2/c1-7-3-5(7)6(8)4-9-2/h5H,3-4H2,1-2H3/t5-,7?/m1/s1
