18
gdb 79307	3.98491	1.21835	1.13492	1.9879	84.65	-0.2339	0.0231	0.257	1137.6434	0.147377	-364.714691	-364.706754	-364.70581	-364.746859	31.351	
C	 0.0804874593	 1.6461810772	-0.0197224023	-0.431373
C	 0.0889923253	 0.1238584688	 0.0226211288	 0.02305
C	 0.7298631183	-0.7035601739	-1.0945691485	-0.113371
N	 2.1868596744	-0.9426870591	-0.8154976773	-0.186243
C	 2.4429821358	-0.2694047316	 0.5019364323	-0.161561
C	 1.0390297114	-0.6610950316	 0.9789193656	-0.159281
C	 1.1283956192	-1.7816263853	-0.1445421162	 0.353122
C	 1.0292983775	-3.1891266189	-0.147990229	-0.013851
C	 0.9262572125	-4.3881280491	-0.1145439481	-0.351472
H	 1.0704276349	 2.065523196	-0.2172387021	 0.124414
H	-0.5884348935	 2.0016549863	-0.8109191094	 0.121927
H	-0.2805729198	 2.0608425201	 0.9280182191	 0.118967
H	-0.9297122517	-0.2513300983	 0.1703383619	 0.08646
H	 0.4271008282	-0.8072669823	-2.1287706231	 0.108378
H	 3.2361083158	-0.8205723186	 1.0122514479	 0.117694
H	 2.7096568426	 0.7907358072	 0.4431443606	 0.09994
H	 0.7867119899	-0.803144146	 2.0278016405	 0.082362
H	 0.8417988201	-5.4462466312	-0.0949352207	 0.180836
113.5772	142.8792	180.7025	255.0774	292.6216	426.1005	448.7103	511.8203	565.4334	589.7163	619.6252	665.2814	673.3277	745.9287	788.1557	843.0855	911.8818	926.4418	933.9771	984.8989	1012.4924	1040.3899	1068.3721	1080.5687	1099.0436	1129.6768	1157.2805	1184.9556	1207.2545	1246.4119	1295.7598	1306.4747	1381.1292	1399.6538	1417.1847	1491.5703	1496.3107	1519.7168	2232.9575	3034.2384	3048.5776	3051.8791	3095.3396	3110.1947	3118.4564	3139.7994	3203.5616	3502.661
CC1C2N3CC1C23C#C	C[C@H]1[C@H]2N3C[C@@H]1[C@@]23C#C	
InChI=1S/C8H9N/c1-3-8-6-4-9(8)7(8)5(6)2/h1,5-7H,4H2,2H3	InChI=1S/C8H9N/c1-3-8-6-4-9(8)7(8)5(6)2/h1,5-7H,4H2,2H3/t5-,6+,7-,8+,9?/m1/s1
