22
gdb 78542	2.19852	1.63706	1.27284	1.328	86.79	-0.2061	0.0753	0.2814	1149.8655	0.19245	-367.133733	-367.124363	-367.123419	-367.167132	36.618	
C	-0.0951759177	 1.6508298409	 0.0443995633	-0.441305
C	 0.0598295103	 0.1350332506	 0.1196057891	-0.025716
N	 1.1680790681	-0.7310270702	-0.3880464149	-0.248469
C	 2.5594084514	-0.3027446923	 0.0531521568	 0.368871
C	 3.6788160155	-0.9517701392	-0.6999965917	-0.463098
C	 2.698637537	 0.9528691553	 0.8641475596	-0.354656
C	 2.1825462488	-0.3064063161	 1.5205595729	-0.18279
C	 0.77118277	-0.7406300054	 1.0793145043	 0.308263
C	 0.1524995599	-1.9525989452	 1.7162959956	-0.475544
H	 0.5314383146	 2.0853046837	-0.7394692731	 0.137655
H	-1.1336359357	 1.8868632602	-0.2054168839	 0.115661
H	 0.131350288	 2.1523179407	 0.9879038483	 0.134727
H	-0.8527998091	-0.3560560399	-0.2187669315	 0.095903
H	 3.743564485	-0.547863934	-1.7177624397	 0.121862
H	 4.6381822955	-0.7764016673	-0.2034012647	 0.111967
H	 3.5189263447	-2.0313018882	-0.7825885681	 0.125098
H	 3.7347035497	 1.1550317548	 1.126249763	 0.109601
H	 2.116574092	 1.849746932	 0.7275251165	 0.111403
H	 2.6873776095	-0.7732956605	 2.3571303192	 0.087085
H	-0.2252220845	-1.7147474042	 2.718464616	 0.117367
H	-0.6799365957	-2.3290535817	 1.1155235661	 0.124465
H	 0.8889355725	-2.7577174338	 1.8192412667	 0.121649
84.473	181.3067	195.1404	205.4184	221.322	274.5569	303.3281	310.5536	346.8997	424.0618	508.4122	567.7795	579.4584	635.4744	709.5566	757.9875	806.7187	873.4645	887.7884	921.6727	938.8095	973.3598	1002.9333	1033.6943	1048.3753	1066.276	1081.7335	1104.1256	1116.6569	1136.1155	1144.4806	1199.9753	1219.8692	1311.3771	1362.6519	1383.0194	1408.9114	1411.0655	1423.0119	1463.546	1474.0932	1480.4869	1491.3488	1495.1552	1500.2571	1503.3674	1517.8464	3022.4641	3025.1507	3043.6854	3081.6578	3087.6363	3089.8151	3109.1799	3111.0606	3114.673	3120.3724	3134.8723	3185.9374	3261.5385
CC1N2C3(C)CC3C12C	C[C@H]1N2[C@@]3(C)C[C@H]3[C@@]12C	
InChI=1S/C8H13N/c1-5-8(3)6-4-7(6,2)9(5)8/h5-6H,4H2,1-3H3	InChI=1S/C8H13N/c1-5-8(3)6-4-7(6,2)9(5)8/h5-6H,4H2,1-3H3/t5-,6-,7+,8-,9?/m1/s1
