15
gdb 78656	2.95524	1.53598	1.16895	2.4876	65.53	-0.2367	-0.0007	0.236	1015.7207	0.111115	-457.713133	-457.70534	-457.704396	-457.745163	29.89	
O	-0.009525114	 1.3099217184	 0.1344004411	-0.435123
C	 0.0531631616	-0.0826115458	-0.0692597873	 0.116389
C	-1.3614948968	-0.6391596015	-0.1627514392	-0.142548
C	-1.3779057737	-0.5460459407	-1.655977721	-0.106918
C	 0.1961240505	-0.5173648688	-1.5654718427	-0.245682
C	 0.1100989762	-2.0622051043	-1.4956723676	 0.361724
O	 0.8074659787	-2.9614826417	-1.8684329896	-0.340986
C	-1.3068418007	-1.9410459072	-1.0103890509	 0.256931
O	-2.3131298736	-2.8680520168	-0.9846732359	-0.45168
H	 0.8850978562	 1.6613547328	 0.0752480541	 0.286734
H	 0.7481867833	-0.5591125332	 0.6384708508	 0.073873
H	-2.1865984013	-0.5075275302	 0.5267798425	 0.108063
H	-2.0866071979	-0.1869765112	-2.3848752828	 0.123998
H	 0.8835269014	-0.0237215325	-2.2467247584	 0.095209
H	-2.2603414597	-3.3649173174	-0.1605080531	 0.300015
138.9497	178.2637	218.6135	268.3448	279.9659	301.3101	360.2856	464.9302	477.9821	622.0277	710.6249	770.3449	786.0085	834.9769	846.5173	879.7212	916.1121	943.7226	954.7795	984.2482	1037.6641	1088.2425	1114.468	1135.1068	1164.2381	1205.6973	1210.1333	1278.3555	1300.9791	1323.9263	1429.2977	1450.7688	1881.9726	2988.6908	3167.0953	3195.8598	3253.8661	3797.9512	3811.676
OC1C2C3C1C(=O)C23O	O[C@H]1[C@H]2[C@H]3[C@@H]1C(=O)[C@@]23O	
InChI=1S/C6H6O3/c7-4-1-2-3(4)6(2,9)5(1)8/h1-4,7,9H	InChI=1S/C6H6O3/c7-4-1-2-3(4)6(2,9)5(1)8/h1-4,7,9H/t1-,2+,3+,4+,6-/m0/s1
