12
gdb 23670	3.98638	1.82482	1.25179	3.0751	58.8	-0.2572	-0.0187	0.2385	857.2273	0.085298	-422.692506	-422.686495	-422.685551	-422.722632	23.274	
O	 0.1046241991	 1.3538454959	 0.1272610011	-0.428147
C	 0.0696385598	 0.0060530422	 0.0339953502	 0.445995
C	 0.0729522541	-0.6713531584	-1.1828806713	-0.433085
C	 0.0343021242	-2.0606135172	-1.1279984844	 0.367774
F	 0.0364954997	-2.7227389375	-2.2824679025	-0.074138
N	-0.0051712131	-2.7912350003	-0.0390540471	-0.329178
C	-0.0075469038	-2.1156109283	 1.1206270887	 0.012766
C	 0.0282833144	-0.7358822236	 1.2202946427	-0.209256
H	 0.130839612	 1.7385986286	-0.7560577701	 0.305641
H	 0.1038891385	-0.1576901193	-2.1371327992	 0.106764
H	-0.0401740159	-2.7232362405	 2.0207770462	 0.12121
H	 0.0248921013	-0.2321210615	 2.1782879159	 0.113655
216.9993	240.7872	344.3985	433.2461	475.8408	489.3082	528.2425	572.0524	672.5613	750.167	787.4226	841.2732	854.7201	987.3842	996.9082	1005.2559	1114.1835	1186.4832	1212.8993	1326.239	1354.1478	1376.2573	1471.0657	1526.4104	1634.1069	1651.3985	3168.8965	3192.2367	3219.4247	3811.2308
OC1=CC(F)=NC=C1	Oc1cc(F)ncc1	
InChI=1S/C5H4FNO/c6-5-3-4(8)1-2-7-5/h1-3H,(H,7,8)	InChI=1S/C5H4FNO/c6-5-3-4(8)1-2-7-5/h1-3H,(H,7,8)
