17
gdb 117418	5.12549	0.6528	0.61157	3.9834	71.89	-0.269	0.0066	0.2755	1796.8404	0.134541	-455.197805	-455.187665	-455.186721	-455.236245	33.759	
C	 0.4361868056	 1.3166751943	 0.0194095395	-0.371979
C	-0.4231131434	 0.0853615592	-0.2740736173	-0.148737
N	 0.0330333958	-0.6678132478	-1.4321937168	-0.364885
C	 0.7163088076	-1.8293919558	-1.3182311432	 0.54283
O	 0.9694479213	-2.4309903032	-0.2985907961	-0.406927
O	 1.0929594924	-2.2652772619	-2.5637563662	-0.272578
C	 1.798077147	-3.5029776278	-2.5382351967	-0.192911
C	 2.2575739682	-3.78653097	-3.8976682818	 0.264427
N	 2.6355282795	-4.0425667165	-4.9579138169	-0.291928
H	 1.4692493734	 1.0263934073	 0.2309000708	 0.135019
H	 0.4420771637	 2.0093643856	-0.8289258865	 0.116863
H	 0.0442981208	 1.854221247	 0.8884799938	 0.124673
H	-0.4020132211	-0.6075533978	 0.5695583882	 0.151731
H	-1.4667027852	 0.3786387537	-0.4359523735	 0.114195
H	-0.0447658231	-0.2671081635	-2.3531029137	 0.259168
H	 2.6516124412	-3.4499792606	-1.8550686189	 0.172879
H	 1.1499381764	-4.313734512	-2.188133655	 0.168159
13.1105	24.5723	73.4657	116.7152	140.1584	209.5656	265.7665	329.3427	372.4501	376.2168	461.8717	481.6925	573.2029	711.7863	773.1449	803.8166	900.7767	958.6616	984.694	1019.464	1055.8018	1102.5072	1168.7139	1179.9048	1245.3677	1248.5467	1326.1252	1384.4969	1399.2442	1413.3467	1483.657	1487.7793	1492.5787	1502.6211	1555.9654	1823.2494	2376.0437	3037.3021	3042.4335	3054.0841	3093.4263	3101.0885	3118.3046	3129.31	3644.3328
CCNC(=O)OCC#N	CCNC(=O)OCC#N	
InChI=1S/C5H8N2O2/c1-2-7-5(8)9-4-3-6/h2,4H2,1H3,(H,7,8)	InChI=1S/C5H8N2O2/c1-2-7-5(8)9-4-3-6/h2,4H2,1H3,(H,7,8)
