17
gdb 38784	2.92561	2.0388	1.67406	3.1866	69.58	-0.2268	0.0751	0.302	853.5893	0.138369	-421.768755	-421.762594	-421.761649	-421.798956	26.061	
C	 0.0320581265	 1.5093690412	 0.1216826481	-0.257936
C	 1.3858861798	 2.1673719332	-0.0628599583	 0.042094
O	 2.4525578279	 1.7488642418	 0.7922258236	-0.248714
C	 2.5180375312	 1.3884554583	-0.5918767849	 0.047619
C	 2.3138526441	-0.041949282	-1.0024654415	-0.089271
C	 1.7532059219	-1.1437065983	-0.1288335829	 0.094534
O	 0.9211098238	-0.6604201934	 0.9141727915	-0.287016
C	 0.0607862799	-0.0069652012	-0.0685310383	 0.096613
C	 0.9040175735	-0.5678870872	-1.2255626498	-0.186973
H	-0.3595270087	 1.7353001917	 1.1206243449	 0.124966
H	-0.6700433408	 1.9430795256	-0.6027564086	 0.104685
H	 1.358916328	 3.2425256454	-0.2440101797	 0.089177
H	 3.2968616226	 1.9131010443	-1.1455715873	 0.086022
H	 3.0338330469	-0.4150709696	-1.7256900699	 0.090202
H	 2.2318739765	-2.1062759323	 0.0072802502	 0.109106
H	-0.9468996192	-0.4308146514	-0.0164506561	 0.087306
H	 0.5353317461	-0.9761433462	-2.1563622709	 0.097587
201.7355	264.6376	346.1721	406.9376	477.6968	502.3916	686.0093	714.4354	729.4468	787.8134	802.8716	828.5499	865.4276	886.4234	908.4829	932.8827	978.0023	1012.1864	1030.3303	1039.3897	1045.509	1059.1806	1078.6551	1108.0485	1127.4205	1162.0568	1226.0967	1254.7726	1283.6331	1296.274	1313.0584	1343.0181	1382.605	1395.3115	1434.0453	1455.6622	1475.4363	3024.743	3058.4559	3068.2797	3095.0736	3106.7257	3151.9873	3183.5213	3205.7157
C1C2OC2C2C3OC1C23	C1[C@H]2O[C@H]2[C@H]2[C@H]3O[C@@H]1[C@@H]23	
InChI=1S/C7H8O2/c1-2-4-5(7(4)8-2)6-3(1)9-6/h2-7H,1H2	InChI=1S/C7H8O2/c1-2-4-5(7(4)8-2)6-3(1)9-6/h2-7H,1H2/t2-,3+,4-,5-,6+,7-/m0/s1
