19
gdb 90341	2.33872	1.57928	1.49123	1.3313	77.71	-0.2304	0.0116	0.242	1023.4766	0.158899	-423.000995	-422.992526	-422.991582	-423.033613	33.194	
O	 0.0273928435	 1.369251721	-0.0616470509	-0.429908
C	 0.0366155095	-0.0346476379	 0.0309705495	 0.075608
C	 0.1133211597	-0.5871379348	 1.5169672211	-0.371748
C	-1.3966571955	-0.6446276605	 1.4508521883	 0.237135
C	-2.5311719518	-0.2290000339	 2.0020056654	-0.218008
C	-3.553527015	 0.0823722016	 0.9078413978	-0.25701
C	-2.6838460799	 0.2067996828	-0.3877475013	-0.307367
C	-1.4210310128	-0.6046181368	-0.0546720261	 0.386438
O	-1.3157033522	-1.8702793818	-0.6991449685	-0.497756
H	 0.9018630044	 1.6926274493	 0.1754990645	 0.287394
H	 0.7336644216	-0.496454547	-0.6791387935	 0.075844
H	 0.6001704076	-1.5659094088	 1.5476913774	 0.117393
H	 0.5612641558	 0.0716446521	 2.2656248622	 0.103024
H	-2.7186166189	-0.0242776454	 3.050783312	 0.092684
H	-4.3273771003	-0.6934005693	 0.8211825498	 0.099354
H	-4.0862162806	 1.0142106895	 1.1263528185	 0.107833
H	-3.1810581238	-0.1610642175	-1.2892031699	 0.095203
H	-2.4164611714	 1.2545477405	-0.5475091326	 0.128619
H	-2.0368487598	-2.4216952532	-0.3760983536	 0.275268
90.5405	184.9744	222.1021	229.0713	260.5594	300.0463	335.567	408.6103	458.5935	511.5144	551.182	653.9329	726.2835	754.8202	798.9026	841.0319	854.0194	894.0317	928.3304	960.2094	977.2639	1008.7023	1067.4301	1084.8748	1096.4337	1142.5395	1175.0577	1182.4236	1206.2582	1213.2682	1239.5336	1276.0502	1294.9601	1312.1528	1327.8319	1360.399	1409.74	1453.2365	1472.3565	1494.7055	1734.5239	3006.9917	3026.5316	3055.7283	3059.4452	3067.8513	3111.4675	3116.0261	3185.8398	3800.7716	3824.0242
OC1CC2=CCCC12O	O[C@H]1C[C]2[CH]CC[C@@]12O	
InChI=1S/C7H10O2/c8-6-4-5-2-1-3-7(5,6)9/h2,6,8-9H,1,3-4H2	InChI=1S/C7H10O2/c8-6-4-5-2-1-3-7(5,6)9/h2,6,8-9H,1,3-4H2/t6-,7-/m0/s1
