15
gdb 84470	4.18312	1.21184	1.05889	1.8249	71.37	-0.2608	-0.0311	0.2297	1092.9405	0.114046	-416.79231	-416.784856	-416.783911	-416.824218	28.753	
O	 0.01577676	 1.4325794027	-0.0664086829	-0.429441
C	 0.0599336642	 0.0196343583	-0.0406772381	 0.093728
C	 0.7182086274	-0.5316451296	 1.2190336235	-0.117153
C	-0.0865493872	-1.3276499288	 1.9206212593	-0.131565
C	-1.4224052379	-1.4389459864	 1.243158883	 0.202319
N	-2.1206343947	-0.112282125	 1.1432502329	-0.370822
C	-1.3389196753	-0.614347287	 0.002314257	-0.125291
C	-2.2120124287	-2.6344501596	 1.3243179271	 0.190323
N	-2.8531299806	-3.5939657441	 1.4062408852	-0.3343
H	-0.5858587243	 1.6889428343	 0.646274616	 0.29371
H	 0.5992838061	-0.2785581911	-0.9461717017	 0.104648
H	 1.711785527	-0.2164203275	 1.5143005282	 0.121476
H	 0.1284240592	-1.8115437966	 2.8643705317	 0.127648
H	-3.11274981	-0.2652929156	 0.9652806771	 0.253765
H	-1.8510381452	-0.8992594639	-0.9088912484	 0.120955
113.4057	142.6892	194.6179	286.8237	407.3767	443.9303	477.0264	498.7723	557.1137	597.8289	613.3892	718.2838	764.0931	824.1818	857.6698	888.0209	946.4095	972.7139	1003.0155	1011.3474	1072.759	1091.0379	1123.7779	1158.6094	1260.7165	1264.3075	1301.8179	1324.0017	1353.4381	1404.6695	1438.7947	1669.9854	2352.8777	3058.2124	3191.4105	3206.0195	3231.0793	3482.488	3755.5238
OC1C=CC2(NC12)C#N	O[C@H]1C=C[C@]2(N[C@@H]12)C#N	
InChI=1S/C6H6N2O/c7-3-6-2-1-4(9)5(6)8-6/h1-2,4-5,8-9H	InChI=1S/C6H6N2O/c7-3-6-2-1-4(9)5(6)8-6/h1-2,4-5,8-9H/t4-,5-,6-/m0/s1
