23
gdb 65656	3.44425	0.88663	0.84584	2.0007	85.15	-0.2409	0.0753	0.3161	1491.9516	0.205341	-388.257801	-388.248224	-388.247279	-388.293137	35.676	
C	 0.2190314486	 1.5705393243	 0.3064546205	-0.462391
C	 0.0096435963	 0.0868935236	 0.0606397439	 0.389797
C	-1.4294260807	-0.4035371434	 0.1676695045	-0.300783
C	-2.4027525311	 0.216271402	-0.8308114656	-0.013732
C	-2.367692043	-0.2422541838	-2.3081668157	-0.075924
O	-3.7714250243	-0.5719990402	-2.2855193277	-0.272708
C	-3.8469654665	-0.3339549455	-0.8655913796	-0.092102
C	 0.9253143585	-0.592758411	-0.9339104253	-0.295163
C	 1.0917709827	-0.8482197544	 0.5459347273	-0.313473
H	 1.2828262255	 1.8255777099	 0.2774505275	 0.113331
H	-0.2841120424	 2.1869797728	-0.4466416141	 0.117298
H	-0.1663471654	 1.8661021436	 1.28988457	 0.113699
H	-1.4480617728	-1.4948855715	 0.0481659245	 0.092087
H	-1.7977526892	-0.20212705	 1.1845186547	 0.096327
H	-2.3950559005	 1.3061151956	-0.7479976585	 0.082327
H	-2.1355037975	 0.5183198817	-3.0626138908	 0.100163
H	-1.7456320847	-1.1282084775	-2.496749854	 0.093865
H	-3.9890631255	-1.2669943912	-0.3006138383	 0.092223
H	-4.6533617653	 0.3622349277	-0.6063564862	 0.099518
H	 0.5259168142	-1.3960701619	-1.5434035616	 0.110706
H	 1.6740241165	 0.0107969003	-1.436387073	 0.108686
H	 1.9533052567	-0.4176294835	 1.0455399766	 0.108093
H	 0.7976719999	-1.8194784076	 0.930496201	 0.108155
43.6665	75.2841	92.6429	157.0573	219.3249	283.7119	304.5045	351.3309	367.3122	407.8719	465.743	718.7372	741.8004	786.9124	855.2191	870.4378	889.5939	899.3005	928.9512	948.7245	954.6684	993.2356	1029.8102	1035.3592	1051.2222	1060.1858	1077.9962	1109.23	1126.5827	1139.7486	1161.7418	1165.6171	1188.28	1246.3567	1269.1323	1308.3856	1313.4283	1339.6574	1351.1208	1381.4592	1408.9791	1423.3844	1468.5078	1476.9074	1494.9834	1500.4151	1509.9936	1512.5508	1537.6212	2989.1518	2997.1245	3006.302	3023.0524	3036.5419	3046.3326	3051.528	3078.6013	3085.1276	3099.3351	3125.4416	3130.8559	3203.0303	3217.3554
CC1(CC2COC2)CC1	CC1(CC2COC2)CC1	
InChI=1S/C8H14O/c1-8(2-3-8)4-7-5-9-6-7/h7H,2-6H2,1H3	InChI=1S/C8H14O/c1-8(2-3-8)4-7-5-9-6-7/h7H,2-6H2,1H3
