21
gdb 79893	3.93045	1.32056	1.15461	1.4112	82.58	-0.2419	0.0962	0.3381	1132.6374	0.185155	-387.046438	-387.038966	-387.038022	-387.078001	30.428	
C	-0.2245743448	 1.5977369981	-0.0214876301	-0.444951
C	-0.0040326541	 0.0924555543	 0.0185777039	 0.05028
C	 1.1768649656	-0.5933986027	-0.735089194	-0.077172
C	 2.143986584	-0.0819607846	 0.3771152322	-0.01131
C	 3.4310181092	-0.8624213511	 0.6107926795	-0.114799
O	 3.1834410445	-2.1783292403	 1.0705485039	-0.244918
C	 2.1042777809	-2.7937718888	 0.3913317717	-0.118751
C	 0.9423654753	-1.8339420354	 0.1797293882	-0.00717
C	 0.8633796359	-0.5878948416	 1.1239162145	-0.073211
H	 0.6878966239	 2.1788722646	 0.1336534496	 0.118554
H	-0.6451389682	 1.8956729227	-0.9883844617	 0.116672
H	-0.9407169811	 1.8983656902	 0.7513476838	 0.117391
H	-0.9599210984	-0.4219935877	-0.1418399342	 0.059436
H	 1.3629598611	-0.6024730469	-1.8121243773	 0.060485
H	 2.3351571799	 0.9927607318	 0.3905301148	 0.062561
H	 4.0337052308	-0.8753228268	-0.3157869692	 0.082828
H	 4.0371677143	-0.3842037525	 1.3878185995	 0.105493
H	 2.433179656	-3.205226514	-0.5802885132	 0.083243
H	 1.7987786706	-3.6387647629	 1.0177961406	 0.106093
H	 0.0003075618	-2.3658327428	 0.0087361215	 0.06091
H	 0.685014183	-0.5895551436	 2.200799666	 0.068339
171.9402	184.5868	230.0911	245.8763	278.6146	386.2126	449.014	530.569	601.7946	733.0879	766.8985	783.5724	798.686	853.5937	858.2541	894.5563	983.6595	990.6206	1011.2635	1024.4959	1031.2881	1056.9446	1080.251	1088.5889	1116.2444	1120.3272	1154.4583	1168.901	1184.0842	1195.6338	1237.9503	1244.7261	1264.2082	1266.417	1311.4325	1337.2056	1383.073	1391.7427	1412.4908	1424.9991	1442.888	1496.5087	1499.5134	1502.0339	1509.5961	2937.2689	2943.9792	3021.8488	3033.8946	3047.6563	3059.2865	3065.0599	3076.7027	3086.6586	3089.6809	3098.0305	3114.6697
CC1C2C3COCC2C13	C[C@H]1[C@H]2[C@@H]3COC[C@H]2[C@H]13	
InChI=1S/C8H12O/c1-4-7-5-2-9-3-6(7)8(4)5/h4-8H,2-3H2,1H3	InChI=1S/C8H12O/c1-4-7-5-2-9-3-6(7)8(4)5/h4-8H,2-3H2,1H3/t4-,5-,6+,7-,8+
