20
gdb 76533	2.51748	1.2297	1.19046	3.9709	82.13	-0.2212	-0.0229	0.1984	1203.0247	0.168687	-403.12834	-403.118845	-403.117901	-403.162661	34.894	
C	-0.1308368834	 1.5199431062	 0.2013339564	-0.41868
C	 0.0715923205	 0.0242319777	 0.112348084	-0.056869
N	 1.3348973792	-0.6088862209	-0.2308874418	-0.142904
C	 2.5204271855	 0.1931680664	-0.5011388772	-0.321844
C	 0.8748718531	-0.718499918	 1.1474782856	 0.229817
C	 1.4788591815	-0.164840829	 2.4578837557	-0.335273
C	 0.9718934003	-1.4377765697	 3.2071178589	-0.347998
C	 0.4873091133	-2.0015300653	 1.8514288477	 0.347064
O	-0.0097819438	-3.0329954984	 1.5032255782	-0.304496
H	 0.6855896198	 2.031678111	 0.7153584281	 0.124781
H	-0.2278135854	 1.9562899685	-0.798961519	 0.130809
H	-1.0558596345	 1.7369664288	 0.7454813512	 0.129338
H	-0.7819023333	-0.5160553857	-0.2971925101	 0.10858
H	 2.6491688858	 1.0733916205	 0.1446932557	 0.10705
H	 3.4034747022	-0.442655979	-0.3858708075	 0.130913
H	 2.4840886599	 0.5326082248	-1.5408106966	 0.130165
H	 2.5683187887	-0.0792392119	 2.4378670604	 0.114513
H	 1.0621912998	 0.7798080657	 2.8134497622	 0.110711
H	 1.7366873735	-2.0459902211	 3.6968768114	 0.132452
H	 0.1586143973	-1.2646550606	 3.9175347666	 0.131871
77.4542	112.2234	156.2893	170.0083	188.9757	193.8595	256.3535	316.3121	411.9737	493.0179	534.5881	540.7818	611.8968	708.8427	731.9715	772.2577	791.9507	928.0255	952.2457	1005.9439	1026.5615	1050.4012	1076.3449	1087.9909	1115.0797	1146.6159	1154.0598	1180.0721	1186.3102	1216.9081	1234.6496	1256.6471	1363.4259	1402.1363	1422.3951	1441.2554	1457.3275	1486.015	1487.0825	1490.3263	1499.4046	1508.7955	1887.186	2997.2829	3038.3722	3063.614	3069.4532	3075.5567	3096.7253	3102.7753	3107.2274	3108.5619	3124.6114	3129.0963
CC1N(C)C11CCC1=O	C[C@H]1N(C)[C@]21CCC2=O	
InChI=1S/C7H11NO/c1-5-7(8(5)2)4-3-6(7)9/h5H,3-4H2,1-2H3	InChI=1S/C7H11NO/c1-5-7(8(5)2)4-3-6(7)9/h5H,3-4H2,1-2H3/t5-,7+,8?/m1/s1
