18
gdb 30828	2.26655	1.36672	0.89989	2.4617	77.6	-0.1693	0.0457	0.2151	1300.6028	0.146661	-439.115053	-439.105337	-439.104393	-439.149867	35.128	
C	-0.3455723819	 1.5484466493	-0.2231586887	-0.366654
C	 0.0634589663	 0.0785241399	-0.0164686915	-0.29882
C	 0.8555853238	-0.4943036929	-1.1333922426	 0.248416
C	 2.1314883412	-0.9422339797	-1.2599920236	 0.240734
O	 3.0479971565	-0.9535156799	-0.2491288502	-0.449296
C	 2.3277399248	-1.3689991487	-2.6206224026	-0.41655
C	 1.1304664922	-1.1445870848	-3.233960174	 0.390943
N	 0.649307652	-1.4146902431	-4.5079128418	-0.595346
O	 0.2338495002	-0.6217619776	-2.3757562372	-0.219378
H	 0.5367580525	 2.1881133435	-0.3223669717	 0.117529
H	-0.9447019938	 1.6597282213	-1.1318951059	 0.119785
H	-0.9405823775	 1.9113393534	 0.6212431956	 0.106054
H	 0.6731463194	-0.0157784186	 0.8882661269	 0.121458
H	-0.840404486	-0.5235097588	 0.1539109263	 0.105482
H	 3.8325807206	-1.4176641656	-0.5527667381	 0.297363
H	 3.2222241916	-1.7782760001	-3.0636418095	 0.089769
H	 1.3775504562	-1.4309500473	-5.2084074086	 0.253806
H	-0.0933986682	-0.7823225203	-4.778590413	 0.254708
58.4987	118.1564	137.3484	171.1542	188.9982	218.4991	276.7685	289.4518	336.1265	424.4518	523.3421	599.7343	628.1352	659.3413	670.5846	689.6839	734.8911	776.5976	814.5892	964.4679	994.31	1054.5233	1077.3292	1094.2832	1123.1268	1200.8547	1218.7388	1279.6154	1317.1982	1361.7503	1396.2439	1403.4055	1468.3018	1473.2642	1495.5839	1507.323	1615.8398	1662.8315	1726.1254	3003.7356	3035.226	3075.9873	3105.9027	3114.5478	3248.0655	3544.953	3645.7265	3851.3278
CCC1=C(O)C=C(N)O1	CCc1c(O)cc(N)o1	
InChI=1S/C6H9NO2/c1-2-5-4(8)3-6(7)9-5/h3,8H,2,7H2,1H3	InChI=1S/C6H9NO2/c1-2-5-4(8)3-6(7)9-5/h3,8H,2,7H2,1H3
