19
gdb 116425	2.88056	1.27852	0.94903	2.6706	71.53	-0.2514	-0.0327	0.2187	1227.7292	0.160416	-460.183728	-460.175325	-460.174381	-460.216946	31.823	
O	 0.1035975014	 1.3985236389	-0.054837075	-0.427072
C	 0.044890192	-0.0100510813	-0.0637563787	-0.07476
C	-1.3907528458	-0.5425288312	 0.0494812608	-0.131509
C	-1.4589798001	-2.0822008887	-0.0790358509	-0.104759
O	-2.7695683807	-2.5811802283	 0.0954335871	-0.234927
C	-3.2691159802	-2.3148820083	 1.3899141279	-0.090934
C	-3.3812671744	-0.7988948471	 1.6415656987	-0.29945
C	-2.0597645994	-0.1139535222	 1.3505847409	 0.386134
O	-1.5692093573	 0.703913225	 2.103379066	-0.332315
H	-0.2418566476	 1.6594242504	 0.8094431476	 0.294648
H	 0.4818888732	-0.3404437721	-1.0129180208	 0.106012
H	 0.6538789895	-0.4460331434	 0.7448927269	 0.091235
H	-1.9935095902	-0.1180889136	-0.7658479132	 0.115975
H	-1.1377403594	-2.3906066374	-1.0775951579	 0.122362
H	-0.7744026971	-2.5438274454	 0.653097405	 0.098262
H	-4.2506601238	-2.7911754009	 1.4531293768	 0.120806
H	-2.619329364	-2.7728544613	 2.1539748349	 0.10167
H	-4.1324791964	-0.3905122643	 0.9534643995	 0.134267
H	-3.6897541897	-0.5750491989	 2.6657842943	 0.124356
81.7842	123.4945	169.5775	215.8479	285.8811	340.3542	362.5427	438.5605	475.6789	511.8158	576.7987	593.4777	694.6915	738.9233	849.1597	901.2128	933.9478	982.8874	1003.6963	1056.5988	1083.2628	1089.0576	1113.4961	1129.8598	1179.8818	1222.5645	1235.0295	1246.0543	1269.2253	1310.2883	1337.143	1356.5213	1395.8604	1398.9669	1417.1101	1450.2226	1455.8019	1497.2299	1503.775	1511.3954	1788.1338	2960.9262	2972.6046	2974.8908	3022.1665	3037.3331	3061.0389	3090.7483	3097.4839	3112.6559	3756.8545
OCC1COCCC1=O	OC[C@H]1COCCC1=O	
InChI=1S/C6H10O3/c7-3-5-4-9-2-1-6(5)8/h5,7H,1-4H2	InChI=1S/C6H10O3/c7-3-5-4-9-2-1-6(5)8/h5,7H,1-4H2/t5-/m0/s1
