15
gdb 42874	3.2649	1.40955	1.37841	3.853	65.14	-0.2317	-0.0376	0.1941	965.8722	0.114374	-453.976746	-453.969436	-453.968491	-454.008448	28.273	
O	 0.0043121926	 0.0007043895	 0.2123830666	-0.300013
C	-0.0136455386	 1.1803259024	 0.0484942501	 0.46649
C	-1.1009011225	 2.289396609	 0.0341141068	-0.127438
C	-0.0299518801	 3.1398887417	 0.7961679802	-0.260579
C	 1.0427955295	 2.3180765447	 0.0056976029	-0.12744
N	 1.0992127337	 2.7805230065	-1.3820073392	-0.330503
C	-0.0677830827	 3.1737409287	-2.0244798158	 0.423578
O	-0.0898692354	 3.7891568448	-3.0696371766	-0.398095
N	-1.2063973261	 2.7496809958	-1.3514447334	-0.330499
H	-2.0844194905	 2.099913	 0.4605296816	 0.105304
H	-0.0466943623	 4.2164365479	 0.6197829639	 0.124509
H	-0.0127520261	 2.9126535379	 1.8645226022	 0.127813
H	 2.0419775764	 2.1551042554	 0.4058455702	 0.105305
H	 1.9340056373	 3.2321277372	-1.7190492271	 0.260783
H	-2.0616456953	 3.1785385285	-1.6661686325	 0.260786
100.2246	177.2202	239.6204	305.5413	417.6581	432.4356	460.1555	473.4447	521.4445	557.5919	679.0661	763.5824	816.12	830.3287	864.412	884.8241	974.6507	986.3156	1023.8872	1095.8938	1103.9868	1120.7835	1127.1431	1212.8894	1218.8457	1232.7573	1331.1107	1380.9554	1429.1742	1431.4102	1472.8167	1826.5779	1917.115	3074.0179	3137.6264	3139.0567	3145.9083	3647.8137	3650.0621
O=C1C2CC1NC(=O)N2	O=C1[C@H]2C[C@@H]1NC(=O)N2	
InChI=1S/C5H6N2O2/c8-4-2-1-3(4)7-5(9)6-2/h2-3H,1H2,(H2,6,7,9)	InChI=1S/C5H6N2O2/c8-4-2-1-3(4)7-5(9)6-2/h2-3H,1H2,(H2,6,7,9)/t2-,3+
