21
gdb 105685	3.43594	0.75557	0.67417	2.8972	79.97	-0.2504	-0.0212	0.2293	1697.1446	0.179518	-424.221238	-424.21095	-424.210005	-424.25795	36.28	
C	 0.028285797	 1.6873988151	 0.0621863333	-0.399114
C	-0.209447763	 0.1828578151	-0.0859138266	-0.249454
C	 0.4915784215	-0.4802318139	-1.2637043551	 0.415618
C	 0.2824382172	-1.982359697	-1.3959067171	-0.279042
C	 0.9706715618	-2.7834848106	-0.2727300078	-0.271159
C	 0.9655545455	-4.2651092485	-0.5670548651	 0.155653
O	 0.5101056499	-5.1136623588	 0.1550106363	-0.236349
C	 0.8657732549	 0.2791653521	-2.4675733283	-0.232336
O	 1.8518257679	-0.0760617737	-1.4913261208	-0.274248
H	 1.0980542168	 1.9120832207	 0.0392639502	 0.139815
H	-0.4595096019	 2.2586299315	-0.7335329211	 0.116869
H	-0.3756853189	 2.0435899741	 1.0138272945	 0.116355
H	 0.1230568983	-0.3219007603	 0.8295415016	 0.113335
H	-1.2839350937	-0.0251270859	-0.1699737182	 0.105579
H	-0.7916370564	-2.2039621637	-1.4086984501	 0.113587
H	 0.6875593161	-2.3073481056	-2.3609838945	 0.106204
H	 2.01839193	-2.4558644423	-0.2186514458	 0.138421
H	 0.503633088	-2.6247669616	 0.7022178744	 0.123054
H	 1.4288154365	-4.5358278536	-1.5461197127	 0.070814
H	 0.9468815438	-0.2390725791	-3.4225843736	 0.110088
H	 0.6509618285	 1.342729656	-2.5413242234	 0.116308
50.6614	59.3526	78.7025	89.5366	163.5271	216.0459	264.6846	300.6005	355.2653	362.3372	437.2245	524.9721	555.8555	700.8104	767.7515	777.0937	827.5092	872.447	911.0634	943.7003	1005.5727	1019.337	1051.892	1075.6737	1100.3234	1124.9757	1143.8183	1171.1032	1196.8135	1236.7073	1262.8308	1305.7718	1317.3613	1361.8362	1387.0159	1400.8108	1425.9655	1430.3357	1462.838	1482.3856	1485.2829	1497.7217	1511.2935	1534.0037	1836.8317	2846.7005	3021.8608	3025.8957	3032.8093	3044.5448	3056.6051	3072.5346	3087.2499	3110.4891	3113.3925	3124.0557	3175.3217
CCC1(CCC=O)CO1	CC[C@@]1(CCC=O)CO1	
InChI=1S/C7H12O2/c1-2-7(6-9-7)4-3-5-8/h5H,2-4,6H2,1H3	InChI=1S/C7H12O2/c1-2-7(6-9-7)4-3-5-8/h5H,2-4,6H2,1H3/t7-/m1/s1
