20
gdb 14514	3.40252	1.79855	1.47046	1.9236	74.43	-0.2338	0.0852	0.319	947.149	0.17622	-348.936017	-348.927952	-348.927007	-348.968314	31.329	
C	 0.8888156823	-0.6063123083	 1.2130221447	-0.378302
C	 0.0499811132	 0.0048686959	 0.0813361303	-0.272457
C	-1.3843221262	-0.541126321	 0.0128234204	 0.372108
C	-2.2651695505	 0.0792127532	 1.0960741451	-0.470665
C	-2.0742400511	-0.7418731339	-1.383437627	-0.003668
C	-1.1224412459	-1.9158490001	-1.7197532485	-0.237882
C	-1.6328794628	-2.0677534665	-0.2688249152	 0.010949
O	-2.9887555764	-1.7316013439	-0.7663902577	-0.312453
H	 1.8867309723	-0.1582928952	 1.2427155853	 0.114691
H	 0.4289408662	-0.450617261	 2.1936214419	 0.121975
H	 1.0142132464	-1.6855601207	 1.073615475	 0.117233
H	-0.0086022221	 1.0915194887	 0.2219486014	 0.097088
H	 0.5781770725	-0.1410808993	-0.8646580575	 0.097258
H	-2.3287409965	 1.1649712993	 0.9597201533	 0.109684
H	-3.2720051102	-0.3358138752	 1.0648396832	 0.140494
H	-1.8468827554	-0.0966293715	 2.0926891941	 0.1125
H	-2.5206348648	 0.000932755	-2.047505129	 0.087299
H	-1.5465321483	-2.6405463573	-2.4147497749	 0.107662
H	-0.0652829758	-1.7276139325	-1.9061515056	 0.09843
H	-1.5503365371	-2.9198389657	 0.4083303407	 0.088057
62.5014	171.8723	201.8437	216.9476	290.879	353.6067	399.4455	431.8222	531.8929	604.502	679.1112	738.3811	784.34	803.8812	866.6068	876.9556	904.4826	925.6033	997.2363	1010.7391	1014.6783	1048.6608	1064.0795	1113.6587	1121.8428	1159.1032	1169.8328	1206.6852	1211.7456	1228.7425	1273.1176	1280.0454	1342.8792	1366.0898	1398.8012	1414.6022	1477.9894	1491.2289	1498.2339	1502.0777	1511.1217	1519.7787	3029.6132	3036.5371	3037.7675	3072.0389	3087.5744	3090.7169	3096.3559	3102.3739	3106.7643	3112.3683	3153.4147	3158.5224
CCC1(C)C2CC1O2	CC[C@@]1(C)[C@H]2C[C@@H]1O2	
InChI=1S/C7H12O/c1-3-7(2)5-4-6(7)8-5/h5-6H,3-4H2,1-2H3	InChI=1S/C7H12O/c1-3-7(2)5-4-6(7)8-5/h5-6H,3-4H2,1-2H3/t5-,6+,7+
