18
gdb 43642	4.34118	1.00842	0.86405	4.4421	79.22	-0.2405	-0.0258	0.2147	1325.4631	0.148943	-401.982892	-401.974801	-401.973857	-402.016206	30.696	
O	-0.2165234841	-0.0480716702	 0.1064066065	-0.385232
C	-0.0570009896	 1.1534544112	 0.0686290499	 0.392221
N	-1.0447861888	 2.1163852598	 0.0896403088	-0.325019
C	-0.5436395438	 3.4711028223	-0.0243927953	-0.049364
C	 0.9498243054	 3.2318507119	-0.0680111341	-0.068045
C	 1.2212236072	 1.9281269009	-0.0142203454	-0.195702
C	-1.0767070512	 4.2161767572	-1.2355349902	 0.023845
C	-2.3947853151	 4.946191552	-1.151927463	-0.278394
C	-1.1049926208	 5.7229159701	-1.236818588	-0.268548
H	-2.021005164	 1.8767534841	 0.0511189014	 0.252088
H	-0.7953637195	 4.0585672331	 0.8747312955	 0.092501
H	 1.6507087758	 4.0534569802	-0.1403927303	 0.11956
H	 2.1852173286	 1.4399907713	-0.0308422277	 0.123146
H	-0.8479234836	 3.728561409	-2.1787280136	 0.096697
H	-3.0462844742	 4.9280093846	-2.0180528714	 0.120557
H	-2.9191338947	 4.9439463127	-0.2014146894	 0.114599
H	-0.7688148785	 6.2399007076	-0.3436081843	 0.11513
H	-0.8694170191	 6.2385359721	-2.1605761693	 0.11996
64.4198	80.4292	160.4621	240.5881	307.0817	400.3079	418.1338	459.1828	508.7078	685.7062	692.0024	770.761	814.254	829.9212	833.02	878.6403	916.1523	922.9142	949.9118	975.6014	1011.1704	1059.4842	1077.415	1083.4256	1125.4814	1138.5571	1168.7668	1196.8421	1215.9568	1223.969	1286.1506	1307.7847	1356.1416	1401.6109	1417.2577	1468.889	1504.0926	1654.6862	1822.9918	2961.1105	3130.1989	3135.0071	3152.2282	3210.3897	3217.0093	3224.899	3249.691	3668.929
O=C1NC(C=C1)C1CC1	O=C1N[C@@H](C=C1)C1CC1	
InChI=1S/C7H9NO/c9-7-4-3-6(8-7)5-1-2-5/h3-6H,1-2H2,(H,8,9)	InChI=1S/C7H9NO/c9-7-4-3-6(8-7)5-1-2-5/h3-6H,1-2H2,(H,8,9)/t6-/m0/s1
