23
gdb 115969	2.39685	1.14964	0.8194	1.3976	88.59	-0.2236	0.0375	0.2611	1460.5027	0.206349	-388.315464	-388.30584	-388.304895	-388.349728	36.614	
C	-0.0292321888	 1.5291536895	 0.0701916166	-0.475213
C	-0.0217592486	 0.0269658256	-0.0196799946	 0.308493
C	-0.0156517616	-0.6180716335	-1.188911641	-0.131558
C	 0.0207927949	-2.11696284	-1.3321662499	-0.262264
C	 0.3961686309	-2.8164001241	-0.0185450018	-0.21094
C	-0.3655079373	-2.2037705604	 1.1636249694	 0.026404
C	-0.1028299407	-2.9670934748	 2.4569905777	-0.096404
O	-0.8869793293	-2.3867957108	 3.491033321	-0.425152
C	-0.0160961109	-0.7134113186	 1.2996134709	-0.275802
H	 0.8329874396	 1.8949676898	 0.6435879353	 0.118001
H	-0.0013649395	 1.995847388	-0.9183585283	 0.115282
H	-0.923081998	 1.8905361048	 0.5951971303	 0.120262
H	-0.0384155754	-0.0415063299	-2.1121326226	 0.069593
H	-0.958475812	-2.4788661483	-1.6814553721	 0.103526
H	 0.7300387318	-2.3970966835	-2.1217459012	 0.097509
H	 0.1959643038	-3.8918713063	-0.0928339675	 0.086588
H	 1.4753252248	-2.706791169	 0.1556546437	 0.0942
H	-1.4422028898	-2.2817740373	 0.9558409662	 0.080472
H	-0.3596238572	-4.0297222403	 2.3160110204	 0.081471
H	 0.9723555435	-2.9188874752	 2.700564849	 0.079735
H	-0.6843704222	-2.8406643464	 4.3138241528	 0.285958
H	 0.9762946235	-0.6085628422	 1.7681935459	 0.094589
H	-0.7122048113	-0.2367760272	 1.9987031598	 0.115248
101.0341	104.7417	164.1772	185.1361	207.3927	259.2168	275.8279	326.1083	387.0639	423.5821	442.107	476.2649	512.3269	632.0163	791.696	835.2281	862.1533	892.7901	908.9354	948.403	975.9773	1025.0288	1038.5564	1053.811	1087.984	1089.136	1107.5905	1143.2552	1167.6839	1174.4752	1217.0764	1242.7839	1268.6147	1291.4943	1318.9925	1324.8983	1370.1757	1377.5889	1383.7072	1401.3061	1413.6427	1458.3364	1473.0233	1479.0151	1480.5609	1491.825	1496.7657	1520.4578	1743.2141	2951.9981	2975.9425	2980.1775	2989.7112	3007.3582	3011.4302	3017.8001	3034.7193	3055.8039	3058.4648	3062.3257	3106.7466	3137.0733	3834.1579
CC1=CCCC(CO)C1	CC1=CCC[C@@H](CO)C1	
InChI=1S/C8H14O/c1-7-3-2-4-8(5-7)6-9/h3,8-9H,2,4-6H2,1H3	InChI=1S/C8H14O/c1-7-3-2-4-8(5-7)6-9/h3,8-9H,2,4-6H2,1H3/t8-/m1/s1
