15
gdb 18555	3.96394	2.05423	1.68095	2.8687	61.68	-0.2649	0.0219	0.2868	783.7852	0.121204	-399.800949	-399.794728	-399.793784	-399.831387	23.937	
N	-0.1066358844	 1.2354046166	-0.5055842664	-0.546117
C	-0.0375699953	 0.0590826944	-0.0824146215	 0.448368
O	 1.0262778082	-0.6570596173	 0.4310167591	-0.267086
C	 0.1933311464	-1.8474017494	 0.6170395317	 0.101193
C	-0.1492626735	-2.0978711366	 2.0780373693	-0.104967
O	-1.1241584858	-1.1204175593	 2.4133213295	-0.245522
C	-1.9646930532	-0.9614987072	 1.275836891	-0.093797
C	-1.0325481424	-1.0755414488	 0.0628205049	-0.196276
H	 0.7926312847	 1.7142733018	-0.4336028582	 0.230545
H	 0.6011187306	-2.6996937056	 0.0731688002	 0.09972
H	-0.552198171	-3.1193587506	 2.1857464187	 0.095683
H	 0.704315135	-1.9777668909	 2.7491655533	 0.130534
H	-2.7301610108	-1.7531474423	 1.2372067063	 0.096828
H	-2.4587819089	 0.0090340153	 1.3536518223	 0.139193
H	-1.5129223794	-1.41344691	-0.8539717702	 0.1117
118.2493	209.3983	266.8572	367.1203	454.1857	572.264	659.4737	750.7199	786.5854	856.7221	864.3888	877.5413	897.5572	942.0629	993.332	1006.8023	1035.1379	1053.4852	1072.7259	1112.4168	1193.6591	1209.6589	1222.0784	1264.4723	1286.748	1294.3492	1348.5338	1359.7703	1400.0366	1487.3619	1506.8003	1829.8794	2966.4173	2978.7681	3108.6409	3114.551	3118.1864	3136.9239	3478.7193
N=C1OC2COCC12	[NH][C]1O[C@H]2COC[C@@H]12	
InChI=1S/C5H7NO2/c6-5-3-1-7-2-4(3)8-5/h3-4,6H,1-2H2	InChI=1S/C5H7NO2/c6-5-3-1-7-2-4(3)8-5/h3-4,6H,1-2H2/t3-,4+/m1/s1
