14
gdb 49395	2.60723	1.8725	1.45465	4.1884	65.16	-0.2456	-0.0431	0.2026	896.6393	0.09994	-436.627501	-436.62043	-436.619485	-436.65954	26.272	
O	-0.1518972413	 0.0684846578	 0.4730709607	-0.231194
C	-0.0492819348	 1.2001833644	 0.0780365414	 0.15412
C	 1.2427556269	 1.9801923213	 0.0750532857	-0.051188
C	 1.5212815563	 2.9597249381	 1.242808766	-0.239204
C	 3.003774743	 2.4301358185	 1.1378677651	-0.04573
C	 2.5869638836	 1.2081662061	 1.9167553881	-0.156559
N	 2.5146956239	 1.2452996832	 0.4165158995	-0.128747
C	 1.4463708844	 2.0120417088	 2.4699030732	 0.453912
O	 0.8826750409	 2.0658123453	 3.5220786309	-0.32319
H	-0.9268428187	 1.7688561919	-0.3075871648	 0.084192
H	 1.3862749198	 2.4546736068	-0.9021522247	 0.114224
H	 1.1527688085	 3.9801471192	 1.2918566179	 0.106369
H	 3.9712092034	 2.8987077242	 1.0310168627	 0.131163
H	 3.1864413143	 0.4279882244	 2.3629473783	 0.131831
69.6446	144.8761	162.9269	281.685	394.1775	443.7964	586.3057	661.	757.813	765.2282	790.2158	835.1421	840.6862	854.1204	889.6998	951.7201	969.2624	1008.4842	1028.2449	1076.3764	1092.2248	1121.2878	1155.9641	1177.3774	1225.3666	1241.7214	1281.6341	1359.4716	1416.5554	1829.9826	1896.0055	2868.3355	3055.1113	3170.3979	3227.2084	3238.4402
O=CC1C2C3C(N13)C2=O	O=C[C@H]1[C@@H]2[C@H]3[C@H](N13)C2=O	
InChI=1S/C6H5NO2/c8-1-2-3-4-5(6(3)9)7(2)4/h1-5H	InChI=1S/C6H5NO2/c8-1-2-3-4-5(6(3)9)7(2)4/h1-5H/t2-,3+,4-,5-,7?/m0/s1
