22
gdb 99993	2.62289	1.15289	0.99203	3.8564	82.45	-0.2656	0.0372	0.3028	1312.8481	0.190658	-404.366107	-404.354976	-404.354032	-404.402129	40.264	
C	 0.1417920023	 1.3468444049	 0.071920353	-0.248933
O	-0.060628419	-0.048551249	 0.010439342	-0.283977
C	-1.4085561123	-0.5306355689	 0.013861698	 0.36114
C	-2.1887993154	-0.0575617912	 1.2487089828	-0.442638
C	-2.133380246	-0.1260237821	-1.2783487918	-0.438039
C	-1.1886166801	-2.0810077028	 0.0313116171	-0.143088
C	-0.392649932	-2.5912067961	 1.249104722	-0.409808
C	-2.4602906242	-2.7996025774	-0.0803772484	 0.275113
N	-3.4643578073	-3.3686842177	-0.1508292738	-0.343987
H	 1.2235139802	 1.4993272436	 0.0425030067	 0.132056
H	-0.3040448872	 1.8778938796	-0.779958348	 0.111531
H	-0.2448666868	 1.7882279909	 0.9999949695	 0.112273
H	-2.4320685046	 1.0058372095	 1.1778392889	 0.120716
H	-3.1322896341	-0.6044050148	 1.331533843	 0.143928
H	-1.613525109	-0.2159262064	 2.1643398547	 0.126751
H	-1.5470028636	-0.423602272	-2.1528986487	 0.122573
H	-3.1149823681	-0.6028615083	-1.3384016026	 0.146902
H	-2.2900265619	 0.9551012906	-1.3202741881	 0.118338
H	-0.6083093682	-2.3042877502	-0.8720247419	 0.129814
H	-0.9636111535	-2.4852378555	 2.1745551999	 0.133271
H	-0.1511456701	-3.6496138894	 1.12451514	 0.131443
H	 0.5326576608	-2.0208702174	 1.3336759957	 0.144622
57.1602	68.2155	141.9419	176.6668	200.9346	218.6565	238.8994	263.8634	271.7671	300.1941	359.3437	363.4698	408.4996	437.8633	471.2731	579.1819	602.7565	725.2093	818.7963	886.989	923.4471	945.3372	997.9934	1044.4902	1077.228	1098.982	1121.8009	1179.8757	1188.6277	1201.107	1220.8457	1269.7327	1318.8593	1330.5181	1396.9681	1402.1262	1416.2031	1475.0488	1480.0569	1481.5825	1493.6466	1500.0355	1500.146	1507.1581	1511.8794	1517.5155	2352.4332	3000.2474	3041.8877	3043.9597	3050.5475	3055.2702	3060.2944	3113.1559	3116.9901	3121.1718	3124.1962	3127.8907	3130.8002	3157.3694
COC(C)(C)C(C)C#N	COC(C)(C)[C@@H](C)C#N	
InChI=1S/C7H13NO/c1-6(5-8)7(2,3)9-4/h6H,1-4H3	InChI=1S/C7H13NO/c1-6(5-8)7(2,3)9-4/h6H,1-4H3/t6-/m0/s1
