23
gdb 86308	2.09642	1.54117	1.16818	1.6277	85.23	-0.238	0.0785	0.3165	1208.3299	0.204937	-388.275454	-388.266033	-388.265089	-388.309686	36.019	
C	-0.3261369048	 1.2626674424	-1.3053153274	-0.407701
C	 0.2767956373	-0.0591893485	-0.8749979198	 0.11626
O	 1.6685723108	-0.1698516913	-1.2522636537	-0.322584
C	 2.0505129718	-0.5792928876	 0.0823782708	 0.097712
C	 3.207132249	 0.2358735188	 0.6250340835	-0.406059
C	 0.62247595	-0.3323757222	 0.6145656469	 0.266931
C	 0.2730482631	 0.7066064293	 1.7149485992	-0.284848
C	-0.8471653129	-0.2436988598	 2.2171973848	-0.211998
C	-0.187110312	-1.389607823	 1.4038113438	-0.291529
H	 0.2319302186	 2.1064424278	-0.8896957777	 0.120228
H	-0.2982413808	 1.3433182127	-2.3966885542	 0.126253
H	-1.3716237472	 1.3385658217	-0.9862585385	 0.112683
H	-0.3030679191	-0.8889960728	-1.3095047096	 0.06487
H	 2.3104903418	-1.6498415774	 0.0938654922	 0.064003
H	 2.9579466199	 1.3005633021	 0.6595059898	 0.118647
H	 3.4767249498	-0.0948642766	 1.6341700962	 0.112338
H	 4.0844757748	 0.1109436285	-0.0175894714	 0.126031
H	 1.0828389282	 0.8057099412	 2.4443451778	 0.101134
H	-0.0191023199	 1.7090583553	 1.393748134	 0.100034
H	-0.9416097271	-0.381942974	 3.2965198704	 0.097691
H	-1.827751592	 0.0303788912	 1.81827421	 0.103555
H	-0.8416163028	-2.0458613142	 0.8221850659	 0.097121
H	 0.4636925235	-2.0148254436	 2.0243456869	 0.09923
57.196	97.1514	184.6743	210.1686	222.1404	235.9861	269.5888	342.5514	416.8365	461.5511	494.6948	507.5609	686.8699	741.1453	781.4141	814.9079	874.4921	878.2086	913.9285	940.8831	958.0566	970.5611	1021.6381	1055.0962	1076.3824	1102.554	1118.2297	1121.8238	1172.2141	1188.8392	1204.8413	1220.178	1256.7873	1265.7335	1273.4714	1281.7663	1304.4832	1340.6076	1362.1622	1396.1092	1399.144	1417.659	1471.0435	1478.6344	1481.3804	1485.9372	1491.8469	1498.2031	1506.2512	2966.1032	2973.3291	3032.912	3033.6747	3039.6442	3055.0286	3060.6114	3087.0391	3100.6772	3103.2195	3103.7795	3113.3225	3116.1144	3117.9415
CC1OC(C)C11CCC1	C[C@H]1O[C@@H](C)C21CCC2	
InChI=1S/C8H14O/c1-6-8(4-3-5-8)7(2)9-6/h6-7H,3-5H2,1-2H3	InChI=1S/C8H14O/c1-6-8(4-3-5-8)7(2)9-6/h6-7H,3-5H2,1-2H3/t6-,7+
