15
gdb 128084	4.49076	1.14808	0.91965	3.7233	70.8	-0.2644	-0.039	0.2254	1215.5183	0.114457	-450.162511	-450.154379	-450.153435	-450.196245	28.242	
C	 0.0849089375	 1.3767335143	 0.07651118	-0.333356
N	-0.0751198371	-0.0631173859	 0.0755691059	-0.356782
C	-1.2865470034	-0.6415648612	-0.0637594108	 0.552644
O	-2.3540034819	-0.10249369	-0.1995371135	-0.355035
N	-1.1829289084	-2.0910623551	-0.0333032857	 0.012313
N	-0.0128336731	-2.7277652969	 0.1148051053	-0.22704
C	-0.3488911606	-4.0100523621	 0.0909751124	-0.055624
C	-1.7450265059	-4.1021974789	-0.0754286638	-0.049755
N	-2.2501826782	-2.8776263375	-0.1512106793	-0.180632
H	 0.7301004328	 1.7018352586	-0.7465765138	 0.134334
H	-0.9022203357	 1.8228463375	-0.0478901184	 0.174451
H	 0.5173723686	 1.724257085	 1.0208028958	 0.134333
H	 0.719803177	-0.6754959544	 0.1787567589	 0.274236
H	 0.3957505426	-4.7840424569	 0.1902531044	 0.138222
H	-2.3814406143	-4.9703338966	-0.1404757073	 0.13769
74.2994	78.2661	108.4613	187.4959	197.3935	324.7357	417.459	513.3636	563.8942	674.7389	679.0966	756.7115	819.9514	861.2377	905.7354	971.7446	977.5487	1048.2746	1086.0435	1156.8377	1178.7222	1195.9298	1225.8719	1290.8822	1309.0604	1358.3128	1435.652	1448.7693	1496.6036	1498.6093	1525.5197	1570.9472	1860.7552	3033.9152	3088.0159	3156.7363	3262.2439	3279.3161	3621.7042
CNC(=O)N1N=CC=N1	CNC(=O)n1nccn1	
InChI=1S/C4H6N4O/c1-5-4(9)8-6-2-3-7-8/h2-3H,1H3,(H,5,9)	InChI=1S/C4H6N4O/c1-5-4(9)8-6-2-3-7-8/h2-3H,1H3,(H,5,9)
