22
gdb 78227	2.23245	1.55393	1.24744	1.7469	82.28	-0.226	0.0654	0.2914	1154.9648	0.192379	-404.310076	-404.300404	-404.29946	-404.343497	37.739	
C	-0.086280643	 1.5640071869	 0.0616538058	-0.428561
C	 0.0729757674	 0.0677051733	-0.0985998321	 0.009592
C	 0.6219422428	-0.6593021469	-1.264027418	-0.076707
N	 1.3284070023	-0.690179525	 0.093692482	-0.165969
C	 2.4548944733	 0.1183880144	-0.5121863395	 0.0059
C	 3.8028170342	-0.5197543335	-0.2285239873	-0.412084
C	 1.818413542	 0.0029727788	-1.9402303177	 0.37092
C	 2.5270063608	-0.9339376358	-2.9132557133	-0.45448
O	 1.485838061	 1.2222029719	-2.5931600665	-0.473181
H	 0.5700558636	 2.1346778179	-0.592817358	 0.147391
H	-1.1163394374	 1.8398971061	-0.1872199151	 0.118892
H	 0.0912126795	 1.856856347	 1.102926204	 0.116101
H	-0.7337478764	-0.4874671353	 0.3801484613	 0.092284
H	 0.1346615051	-1.5441793975	-1.6661627834	 0.082409
H	 2.4635257737	 1.1540435537	-0.1576264939	 0.073797
H	 3.8153978014	-1.5796083147	-0.4951176791	 0.121808
H	 4.6048593003	-0.0116537734	-0.7752717363	 0.106042
H	 4.0251327164	-0.4484138771	 0.8407950367	 0.124469
H	 2.7120789696	-1.9172759189	-2.4747482399	 0.133301
H	 1.9036954612	-1.0659236327	-3.8032404629	 0.125547
H	 3.4923558302	-0.5201905422	-3.2288412392	 0.108111
H	 2.264469202	 1.5257439831	-3.0728692176	 0.27442
120.8206	175.9356	213.1137	222.3731	245.2731	246.8846	268.9026	302.3839	334.499	374.2823	395.761	426.125	553.6485	623.7504	626.1005	706.0597	771.6935	807.5156	894.2563	911.402	936.4217	966.582	1007.983	1032.0965	1069.7878	1076.2435	1107.6428	1112.816	1138.4934	1180.1253	1189.6762	1212.7469	1262.0552	1274.5108	1323.234	1373.2328	1401.2324	1403.0144	1412.9414	1417.2416	1441.6687	1478.8847	1489.5818	1495.5021	1498.5362	1508.8014	1512.0502	3028.7575	3036.715	3036.924	3052.4383	3092.531	3096.2415	3102.5164	3104.9643	3117.9204	3128.2332	3137.5444	3167.9422	3798.1394
CC1C2N1C(C)C2(C)O	C[C@H]1[C@@H]2N1[C@@H](C)[C@]2(C)O	
InChI=1S/C7H13NO/c1-4-6-7(3,9)5(2)8(4)6/h4-6,9H,1-3H3	InChI=1S/C7H13NO/c1-4-6-7(3,9)5(2)8(4)6/h4-6,9H,1-3H3/t4-,5-,6-,7-,8?/m0/s1
