17
gdb 69529	2.41361	1.7039	1.34696	2.4858	67.63	-0.1967	0.0462	0.2429	995.4357	0.132922	-458.867473	-458.858765	-458.857821	-458.900078	34.088	
O	-0.0776248401	 1.3932873355	 0.0156698842	-0.459293
C	-0.0034907	 0.0203961894	 0.0575337241	 0.391997
C	-0.8853353665	-0.8027493209	 0.9226746049	-0.357453
C	 0.625774339	-0.963013642	 1.0501892491	-0.227976
C	 1.2784554783	-1.7133247268	-0.1545743456	 0.295371
O	 2.612564177	-2.0816429524	-0.1413836873	-0.459818
C	 0.3071918896	-2.2143208811	-1.2181794108	-0.422794
C	 0.6713970075	-0.7501952581	-1.122383954	 0.257044
O	 1.2524298408	 0.0027659308	-2.1344359818	-0.462514
H	 0.5862568335	 1.6788025484	-0.6259159359	 0.289636
H	-1.3107347565	-0.2330536224	 1.74520455	 0.123905
H	-1.5420863193	-1.5855784645	 0.5549564174	 0.109542
H	 1.1531693002	-0.7933815241	 1.98031824	 0.097034
H	 2.6826747436	-2.9795919421	 0.202265108	 0.290971
H	 0.8251973515	-2.71001718	-2.0356738156	 0.116027
H	-0.6807655124	-2.6116201781	-1.0102611753	 0.114939
H	 2.2068334139	-0.1289718917	-2.0893130113	 0.303381
137.6585	154.3945	198.8357	212.7796	274.5915	341.0905	385.2614	396.5046	442.7502	453.5272	467.5664	536.055	562.4933	684.7188	739.5066	802.6949	832.4303	840.4328	892.1137	939.5939	971.284	988.1965	1022.2609	1044.0072	1095.0333	1101.1974	1150.4002	1173.0181	1210.1686	1262.8	1284.1784	1337.6861	1368.8517	1418.4374	1431.8326	1510.9453	1520.4251	3108.4261	3122.228	3189.4477	3197.4891	3204.4883	3766.5637	3782.6912	3788.8348
OC12CC1C1(O)CC21O	O[C@]12C[C@H]1[C@@]1(O)C[C@@]21O	
InChI=1S/C6H8O3/c7-4-1-3(4)5(8)2-6(4,5)9/h3,7-9H,1-2H2	InChI=1S/C6H8O3/c7-4-1-3(4)5(8)2-6(4,5)9/h3,7-9H,1-2H2/t3-,4-,5+,6-/m1/s1
