17
gdb 26961	3.1559	1.28655	0.98665	2.4698	76.62	-0.1928	0.0199	0.2127	1192.1152	0.137411	-418.02425	-418.016034	-418.015089	-418.057777	30.48	
N	 0.196644522	 1.3332906909	-0.5112920891	-0.600642
C	-0.0089601334	 0.0202211634	-0.1076407095	 0.238069
C	-1.0966070469	-0.7505947738	 0.1746354792	 0.235765
N	-0.6493279754	-2.0547242017	 0.4098930523	-0.316872
C	 0.6293655892	-1.9993216929	 0.2756615	 0.052543
O	 1.1068298748	-0.7666088113	-0.0487505268	-0.166112
C	-2.5221667655	-0.3850362683	 0.2427610563	-0.12004
C	-3.5813208871	-1.339624227	-0.2715848066	-0.259727
C	-3.44538782	-1.1013342764	 1.2063436749	-0.261752
H	 0.9401595965	 1.7926568844	 0.0030456301	 0.256578
H	-0.6509653677	 1.881627963	-0.4526912366	 0.256753
H	 1.3597164465	-2.7831993778	 0.3940889337	 0.144809
H	-2.7211058947	 0.6719977534	 0.0887443597	 0.063555
H	-4.4361496967	-0.9207548867	-0.7912334547	 0.107422
H	-3.2286175922	-2.2886798372	-0.6584865855	 0.130787
H	-3.0019199617	-1.892068802	 1.8001493182	 0.132506
H	-4.2064132078	-0.5168669499	 1.7117163744	 0.106355
48.7047	119.7898	161.6193	170.355	276.2801	298.0654	434.4459	499.9279	605.4688	641.6852	715.5017	731.5434	769.4286	785.0671	796.8333	817.2043	913.2303	916.36	955.8947	1020.6384	1058.5877	1068.2518	1084.3543	1119.3165	1127.0919	1176.4058	1203.3192	1222.5724	1278.3386	1301.531	1396.4482	1445.9136	1458.5592	1494.7491	1574.3624	1628.7226	1698.7896	3134.8336	3135.7672	3141.5633	3221.17	3235.4855	3280.8853	3522.6713	3628.925
NC1=C(N=CO1)C1CC1	Nc1c(nco1)C1CC1	
InChI=1S/C6H8N2O/c7-6-5(4-1-2-4)8-3-9-6/h3-4H,1-2,7H2	InChI=1S/C6H8N2O/c7-6-5(4-1-2-4)8-3-9-6/h3-4H,1-2,7H2
