18
gdb 77533	3.06896	1.30964	1.08653	3.7526	79.3	-0.2439	0.012	0.2559	1145.1299	0.148578	-398.07861	-398.070114	-398.06917	-398.111328	32.841	
C	 0.0134515915	 1.4519437002	 0.0791863906	-0.513979
C	-0.008188833	-0.041915723	-0.030979819	 0.304337
C	 0.5810604631	-0.9629532087	-1.1382969508	-0.301819
C	 0.0632841299	-1.8881054204	-0.01093998	 0.210833
N	 0.6203490175	-0.9456382703	 1.0427945079	-0.391534
C	 0.166458894	-3.3189852048	 0.0961543912	 0.147083
N	 0.2127098998	-4.4726165848	 0.1717812095	-0.350252
C	-1.2482133626	-0.9828305314	 0.0368579639	 0.014173
N	-2.0729777972	-0.8950946099	 1.1936769238	-0.530107
H	 1.0390475035	 1.8343424825	 0.1069104685	 0.124739
H	-0.4947462851	 1.9047755895	-0.778119256	 0.131446
H	-0.5020892754	 1.7704096138	 0.989742732	 0.146221
H	 0.0746824367	-1.0011766926	-2.1078175923	 0.10817
H	 1.668129175	-0.9338720042	-1.2468333714	 0.108701
H	 1.6415387913	-0.9175891816	 0.9574249408	 0.214082
H	-1.8487941372	-1.0324362977	-0.8738574744	 0.087641
H	-2.7615627754	-1.6385889729	 1.2206644806	 0.239953
H	-1.4972368365	-0.9510178737	 2.028583855	 0.250312
120.5177	143.863	179.1227	206.8868	297.0479	326.1417	365.6739	393.0953	518.4516	524.5192	548.6057	560.8575	647.3101	685.0874	740.4965	791.527	855.5545	889.1923	930.4074	976.291	1025.3864	1062.128	1074.2555	1115.978	1136.7048	1163.9728	1197.2576	1223.1409	1239.0132	1276.3819	1287.823	1357.9141	1414.8521	1449.7944	1482.8981	1485.811	1516.8066	1645.6158	2343.7497	3038.0731	3046.8806	3098.5639	3106.3038	3118.5968	3121.3158	3389.5219	3505.4757	3593.5109
CC12CC(N1)(C#N)C2N	C[C@@]12C[C@](N1)(C#N)[C@H]2N	
InChI=1S/C6H9N3/c1-5-2-6(3-7,9-5)4(5)8/h4,9H,2,8H2,1H3	InChI=1S/C6H9N3/c1-5-2-6(3-7,9-5)4(5)8/h4,9H,2,8H2,1H3/t4-,5-,6-/m0/s1
