16
gdb 5262	7.15847	1.12975	0.98787	2.3765	67.24	-0.2162	0.0373	0.2534	1155.4195	0.131692	-379.945427	-379.937601	-379.936657	-379.978669	27.42	
C	-0.0484912567	 1.3989520296	 0.0103127527	-0.220593
O	 0.0115006767	-0.0057205272	 0.0022484968	-0.234244
C	-1.2648915938	-0.6071294464	 0.0107326127	-0.163205
C	-1.0980111024	-2.0917195361	 0.002027331	 0.256397
C	 0.0663629803	-2.8120216209	-0.009450941	-0.165293
N	-0.3290094495	-4.1339030396	-0.0126374909	-0.23534
C	-1.6905701345	-4.1487591805	-0.0043793139	 0.008888
N	-2.1882456203	-2.9337127864	 0.0049266953	-0.314205
H	 0.9788986161	 1.7713354407	 0.0027664104	 0.124264
H	-0.5753638096	 1.7914252882	-0.8742098423	 0.104539
H	-0.5588246091	 1.7819165387	 0.908596516	 0.104526
H	-1.8380897067	-0.2943150878	 0.9009271485	 0.101644
H	-1.8539773861	-0.2859017578	-0.8659626899	 0.101701
H	 1.0997533216	-2.5142116721	-0.0149978275	 0.138642
H	 0.278838591	-4.9351615499	-0.0203421986	 0.265309
H	-2.2585386971	-5.0671365423	-0.0051969992	 0.126969
43.8073	78.5593	141.41	220.1706	266.5505	354.0232	418.0585	516.78	652.5292	688.3257	741.3677	750.1104	816.8823	949.019	987.9258	1000.0114	1050.3525	1087.6259	1135.6399	1165.7783	1185.2151	1221.2751	1240.4837	1241.6893	1268.8777	1351.8729	1420.8328	1459.3219	1480.1036	1483.6673	1501.9965	1522.4676	1528.759	1609.4024	2946.9971	2965.9098	2969.3137	3010.6269	3112.2399	3251.6347	3297.9731	3670.4121
COCC1=CNC=N1	COCc1c[nH]cn1	
InChI=1S/C5H8N2O/c1-8-3-5-2-6-4-7-5/h2,4H,3H2,1H3,(H,6,7)	InChI=1S/C5H8N2O/c1-8-3-5-2-6-4-7-5/h2,4H,3H2,1H3,(H,6,7)
