16
gdb 123951	3.53798	1.6354	1.15752	3.066	70.57	-0.1984	0.0286	0.227	1004.7782	0.129003	-434.074515	-434.067685	-434.066741	-434.105609	27.21	
C	-0.020795539	 1.4473832811	 0.0633797424	-0.188645
C	 1.4295705937	 1.9541520706	 0.0345995436	-0.083587
O	 2.1844391853	 1.4688455187	 1.1497663464	-0.262397
C	 1.975774331	 0.1471496743	 1.35453884	 0.39552
N	 2.7674564819	-0.5774862992	 2.1273937738	-0.331833
N	 2.202249564	-1.8079583904	 2.0770244736	-0.189144
C	 1.0815979603	-1.8669286719	 1.311046593	-0.148208
C	 0.8987447357	-0.5938520633	 0.8095064007	 0.131967
N	-0.1203723473	-0.0162266383	 0.0173467588	-0.411996
H	-0.493942431	 1.7996882874	 0.9881219118	 0.126648
H	-0.5764255966	 1.8729118471	-0.7768820362	 0.108654
H	 1.9176821941	 1.6417410766	-0.9004329084	 0.100015
H	 1.4667870498	 3.0444325533	 0.100150043	 0.117313
H	 2.6421584691	-2.5576789799	 2.5792112286	 0.274875
H	 0.5209960128	-2.7785691927	 1.1807801852	 0.130614
H	-0.1005646237	-0.3545647832	-0.9381460461	 0.230203
120.2308	235.1006	327.3906	345.5654	410.4821	435.4787	475.1655	540.1907	634.4694	678.1342	713.2661	720.2834	744.1495	790.5916	882.347	945.3144	955.3416	1042.9894	1067.6299	1085.7363	1129.5546	1191.4477	1236.7775	1273.0414	1283.1947	1329.2731	1381.268	1391.5362	1420.5727	1459.3643	1478.2118	1485.3204	1495.1429	1559.1553	1644.2786	2998.7404	3036.7506	3098.8959	3101.4024	3263.8041	3519.3762	3698.8741
C1COC2=NNC=C2N1	C1COc2n[nH]cc2N1	
InChI=1S/C5H7N3O/c1-2-9-5-4(6-1)3-7-8-5/h3,6H,1-2H2,(H,7,8)	InChI=1S/C5H7N3O/c1-2-9-5-4(6-1)3-7-8-5/h3,6H,1-2H2,(H,7,8)
