19
gdb 87752	4.72582	0.85816	0.81589	3.0209	77.29	-0.2353	-0.034	0.2013	1445.7881	0.156507	-423.001806	-422.992592	-422.991647	-423.036693	33.431	
C	 0.1794818103	 1.6039515679	-0.1853509206	-0.408554
C	 0.1360577591	 0.0980733621	-0.0557541458	-0.071006
C	 1.4222821565	-0.7212633774	 0.0218474042	-0.363264
C	 0.5301996149	-0.5872260398	 1.2108945248	 0.451488
C	 0.8033927706	-0.0192719431	 2.5992269112	-0.384363
C	-0.0516941403	-1.2264150044	 3.080275093	 0.043774
O	-0.2094495586	-1.7021191949	 1.7284755939	-0.315963
C	 0.6920531039	-2.2177335976	 3.9501462813	 0.138914
O	 0.5990531606	-2.262898433	 5.1487596294	-0.240154
H	 0.9976810661	 2.0303191041	 0.4051027983	 0.115443
H	 0.3356891421	 1.905856974	-1.2265489928	 0.12454
H	-0.7538052448	 2.062662156	 0.1595005046	 0.121731
H	-0.6782604308	-0.3911553167	-0.5848944635	 0.101122
H	 1.4411033365	-1.6838681387	-0.4779869036	 0.125673
H	 2.3711234068	-0.1920091108	 0.0291715848	 0.113596
H	 1.8485594642	-0.0372501125	 2.9168676782	 0.123443
H	 0.3747879889	 0.9599676945	 2.8166302478	 0.128487
H	-1.0053318437	-0.9631695892	 3.5496450609	 0.106285
H	 1.3624894176	-2.8959042205	 3.3741695537	 0.088807
43.3772	62.8432	141.794	192.7328	204.0672	270.89	312.8089	365.643	401.4128	457.3622	475.5127	610.262	785.3868	831.4549	857.0107	884.2528	902.5256	903.0826	936.2908	999.6114	1032.4914	1038.7471	1063.6122	1096.8454	1117.6707	1134.9936	1169.549	1177.7332	1199.2866	1236.6951	1268.553	1312.189	1341.8393	1398.8347	1411.039	1422.7259	1481.6447	1492.0931	1496.1307	1508.2242	1833.616	2880.2839	3026.813	3058.3675	3071.6722	3091.5807	3092.9895	3120.2699	3129.4391	3142.0701	3212.4481
CC1CC11CC(O1)C=O	C[C@H]1C[C@]21C[C@@H](O2)C=O	
InChI=1S/C7H10O2/c1-5-2-7(5)3-6(4-8)9-7/h4-6H,2-3H2,1H3	InChI=1S/C7H10O2/c1-5-2-7(5)3-6(4-8)9-7/h4-6H,2-3H2,1H3/t5-,6+,7+/m0/s1
