16
gdb 43450	3.04666	1.44843	1.0642	1.7795	72.23	-0.253	-0.0144	0.2386	1088.4533	0.126745	-434.102443	-434.094919	-434.093975	-434.13475	28.97	
N	-0.1724178334	 1.2825121359	-0.0876363839	-0.555761
C	-0.0481654987	 0.0218890764	-0.0022807665	 0.340278
N	 1.0931747798	-0.7707031297	 0.0425985054	-0.379891
C	 0.8596880815	-2.1454038035	 0.0283346356	 0.41438
O	 1.7206641893	-2.9860956147	 0.0648129054	-0.345574
C	-0.6537211408	-2.3333127061	-0.053505686	-0.444537
C	-1.2148001038	-0.9239145216	 0.036099072	 0.293018
C	-2.4298114664	-0.5184477271	 0.7950857832	-0.27052
N	-2.4419424752	-0.5470857164	-0.6698432169	-0.351356
H	 0.7215411894	 1.7711520071	-0.118075203	 0.219183
H	 2.0349360118	-0.4066183723	 0.0510190404	 0.26264
H	-0.9046804731	-2.8105578992	-1.005763559	 0.158305
H	-0.9854853523	-2.9998700317	 0.7461958318	 0.145802
H	-3.0267288214	-1.2889696077	 1.2761431475	 0.123479
H	-2.4000497997	 0.4446810629	 1.295896184	 0.138644
H	-2.3164841569	 0.4043947178	-1.01672187	 0.251911
69.0822	140.8045	270.4599	274.0443	356.2591	360.8997	498.3689	537.7686	578.7036	628.4597	644.7073	714.1664	739.805	830.9765	854.7065	871.7473	921.8604	961.3632	993.6242	1019.9699	1088.483	1104.8765	1132.0949	1173.1403	1205.1889	1248.7972	1289.5601	1320.2524	1358.6313	1371.1636	1421.9352	1459.5748	1498.0642	1759.3532	1859.6498	3069.1091	3109.4275	3113.3048	3206.2855	3467.3693	3488.8775	3621.7244
N=C1NC(=O)CC11CN1	[NH][C]1NC(=O)C[C@]21CN2	
InChI=1S/C5H7N3O/c6-4-5(2-7-5)1-3(9)8-4/h7H,1-2H2,(H2,6,8,9)	InChI=1S/C5H7N3O/c6-4-5(2-7-5)1-3(9)8-4/h7H,1-2H2,(H2,6,8,9)/t5-/m1/s1
