20
gdb 59008	3.66022	1.0359	0.87432	3.7542	82.92	-0.2258	0.0032	0.2289	1377.6716	0.171217	-399.370244	-399.360812	-399.359868	-399.404822	34.841	
C	 0.0057061997	 1.5921992599	 0.0647730915	-0.375798
C	-0.0540078457	 0.064058868	-0.0135045094	-0.090399
C	 0.7466822593	-0.5931802661	 1.1301650992	-0.38568
C	-1.4753540859	-0.4322565711	-0.0111624482	 0.392282
N	-2.5109322173	 0.2576872501	 0.2836353432	-0.307204
C	-3.6625820227	-0.6442811111	 0.1705376481	-0.239526
C	-3.1146421862	-2.0005130894	-0.2657381322	 0.378196
N	-3.7905659774	-3.0506003674	-0.4970323298	-0.55309
N	-1.741909376	-1.767923478	-0.3330058043	-0.381044
H	 1.0461543086	 1.9295605228	 0.0354643462	 0.105527
H	-0.5356224232	 2.0520132565	-0.7651289946	 0.126985
H	-0.4523524548	 1.9478054806	 0.9910008715	 0.138143
H	 0.3955598824	-0.2591701118	-0.9641820611	 0.085697
H	 0.3419005179	-0.2919372126	 2.1015014633	 0.134242
H	 0.7180767841	-1.6860636962	 1.0799287941	 0.108875
H	 1.794345721	-0.281663021	 1.0857856448	 0.122733
H	-4.1864042663	-0.7252066271	 1.1294100603	 0.142284
H	-4.3879685985	-0.2608051808	-0.5549183752	 0.142547
H	-3.1962944691	-3.8339731211	-0.7736142976	 0.203759
H	-1.06055505	-2.4431402142	-0.6364780699	 0.251472
45.7215	94.3388	173.7701	189.8542	206.8923	248.9074	306.5095	344.9073	388.1958	413.2797	498.8504	525.4987	621.0004	684.8657	732.1698	850.0766	877.3595	895.8565	935.7382	968.4034	976.0371	985.0822	1025.2151	1091.9581	1115.0022	1129.4905	1160.7314	1184.5435	1212.5594	1284.5609	1319.3082	1331.4567	1365.6931	1400.9957	1421.1734	1443.4688	1455.3293	1483.1058	1486.4474	1500.186	1511.2609	1704.9344	1762.2067	2997.4685	3037.776	3048.8637	3049.8724	3080.9334	3107.8156	3114.2519	3121.8048	3132.0856	3452.2794	3659.4516
CC(C)C1=NCC(=N)N1	CC(C)C1=NC[C]([NH])N1	
InChI=1S/C6H11N3/c1-4(2)6-8-3-5(7)9-6/h4H,3H2,1-2H3,(H2,7,8,9)	InChI=1S/C6H11N3/c1-4(2)6-8-3-5(7)9-6/h4H,3H2,1-2H3,(H2,7,8,9)
