21
gdb 107250	2.4572	1.56876	1.18952	1.8927	81.72	-0.2206	0.069	0.2896	1143.8912	0.180627	-387.026959	-387.017935	-387.016991	-387.060405	34.976	
C	-0.5631384812	 1.1185460442	 0.0483223825	-0.380789
C	-0.0512635548	 1.3729032582	 1.4737218918	-0.308485
C	 0.7506313517	 0.2271657215	 2.0069760006	 0.386346
O	 0.0486912623	-0.9839505466	 2.3512032639	-0.2919
C	 0.9074385539	-0.3717901491	 3.3289464977	-0.075225
C	 2.3856657079	-0.7598976929	 3.0329815929	-0.145254
C	 2.4883722735	-1.614204951	 1.7926779536	-0.334901
C	 2.2505005687	-0.134568115	 1.6486715139	 0.280439
C	 3.1749780963	 0.8127187472	 0.940163547	-0.500296
H	-1.1880609967	 0.2213736743	 0.0207237709	 0.136098
H	-1.159513796	 1.9632041519	-0.3087872536	 0.112905
H	 0.2650889579	 0.972041938	-0.6524308406	 0.121294
H	 0.5614672237	 2.2823319761	 1.4965548933	 0.103189
H	-0.8972800148	 1.5419818764	 2.1492728952	 0.110633
H	 0.471055709	-0.1260007376	 4.2905134798	 0.101693
H	 3.1928583987	-0.643520644	 3.7446537817	 0.088146
H	 3.4975889829	-1.9327680316	 1.5485578599	 0.105165
H	 1.7093726514	-2.3289008465	 1.5599821465	 0.132008
H	 2.9541018939	 0.8707447994	-0.1328456722	 0.121895
H	 3.1070519683	 1.8285486113	 1.3473329372	 0.116766
H	 4.2153816934	 0.4872753357	 1.0432536181	 0.120273
76.3652	125.7099	184.6414	206.8948	223.9233	254.7793	365.3664	377.5999	440.1515	453.7284	559.1913	604.024	664.2323	746.3159	777.8041	815.4141	853.9221	874.8096	907.5979	928.0527	960.5951	969.9344	994.5649	1017.1063	1049.04	1081.0235	1095.618	1102.3314	1120.47	1168.7993	1230.7248	1246.5538	1260.5603	1311.6918	1346.5939	1367.7082	1407.1146	1418.4696	1457.5938	1469.7408	1484.6611	1485.5435	1496.8375	1499.087	1510.6443	3016.3532	3031.9143	3040.7911	3069.5595	3072.312	3093.0338	3110.0266	3119.2397	3134.722	3177.4511	3197.2811	3229.7393
CCC12OC1C1CC21C	CC[C@]12O[C@H]1[C@H]1C[C@@]21C	
InChI=1S/C8H12O/c1-3-8-6(9-8)5-4-7(5,8)2/h5-6H,3-4H2,1-2H3	InChI=1S/C8H12O/c1-3-8-6(9-8)5-4-7(5,8)2/h5-6H,3-4H2,1-2H3/t5-,6+,7-,8+/m1/s1
