21
gdb 59523	3.7505	1.00887	0.88799	3.0702	79.07	-0.2438	0.0698	0.3136	1384.4861	0.180124	-424.19645	-424.186805	-424.185861	-424.230692	36.387	
C	 0.1098097114	 1.4934254422	-0.0556671269	-0.408012
C	 0.032894786	-0.0269179709	 0.0790103939	 0.128631
O	 0.680095593	-0.4761889172	 1.2701512833	-0.436091
C	-1.3976332801	-0.5552772535	 0.0225639575	-0.014675
C	-2.2076075133	-0.4547274112	-1.3235941398	-0.328688
C	-2.3398147576	-1.9901584447	-1.3073604455	 0.424301
C	-3.4176060469	-2.8373705081	-1.8993297533	-0.500367
O	-0.994967668	-2.4983556864	-1.3125259218	-0.286746
C	-1.5594105533	-2.0827583285	-0.0598547002	-0.054338
H	 1.149639599	 1.8262536425	 0.0046153892	 0.124841
H	-0.3087578201	 1.8336306411	-1.0080545204	 0.120201
H	-0.4537656891	 1.9845737641	 0.7486598343	 0.10088
H	 0.5967751394	-0.4969398269	-0.733747854	 0.104872
H	 0.2655874964	-0.0250770252	 2.0143049485	 0.272244
H	-1.9815143346	-0.1410484216	 0.8545019037	 0.060777
H	-3.1570493939	 0.0736441617	-1.2081014595	 0.102595
H	-1.6722927729	-0.0558412614	-2.1897144653	 0.105625
H	-3.3799286457	-2.8061038015	-2.9943772455	 0.130213
H	-3.300758493	-3.8779761068	-1.5851407013	 0.13491
H	-4.4061340855	-2.4840746554	-1.5881185839	 0.122139
H	-1.5713977814	-2.8135704925	 0.7407322769	 0.096689
81.709	109.0164	138.0892	198.7017	238.0631	277.6517	284.8302	302.2321	360.2924	396.373	436.0575	467.8282	581.7398	663.5564	731.5749	800.9806	867.9282	891.3912	909.103	936.7753	966.6205	989.1001	1005.1655	1041.1097	1060.6373	1079.678	1111.8002	1153.3711	1184.4828	1204.967	1216.9609	1256.7254	1268.1041	1280.6601	1324.8041	1389.6353	1402.3549	1405.096	1424.9441	1456.3139	1476.663	1485.9746	1491.7614	1494.5587	1498.3919	3019.8001	3026.1247	3032.4897	3058.8969	3064.3072	3093.7297	3093.8264	3115.6426	3118.2725	3120.1946	3185.1371	3792.9984
CC(O)C1CC2(C)OC12	C[C@@H](O)[C@H]1C[C@@]2(C)O[C@@H]12	
InChI=1S/C7H12O2/c1-4(8)5-3-7(2)6(5)9-7/h4-6,8H,3H2,1-2H3	InChI=1S/C7H12O2/c1-4(8)5-3-7(2)6(5)9-7/h4-6,8H,3H2,1-2H3/t4-,5-,6+,7-/m1/s1
