17
gdb 55526	4.51224	0.84867	0.75299	5.0547	72.88	-0.2512	-0.0305	0.2207	1494.5923	0.134953	-455.15681	-455.147579	-455.146635	-455.191975	32.479	
C	 0.215355231	 1.584527172	 0.3608203848	-0.469732
C	 0.2284112229	 0.1258862868	-0.0199603928	 0.380558
N	 1.3058628794	-0.4762747454	-0.303754373	-0.482392
N	-1.0711355395	-0.447300769	-0.0167006549	-0.400198
C	-1.4032769197	-1.7454615773	-0.3300789826	 0.447789
O	-0.6019239384	-2.604342945	-0.6391717801	-0.356379
C	-2.8887821184	-2.0251606498	-0.2747719031	-0.05176
C	-3.428759756	-3.1057175519	-1.1182320935	-0.161284
O	-3.2421432034	-3.2886853888	 0.2778448391	-0.206293
H	 1.2364737336	 1.9619940137	 0.3365077239	 0.161873
H	-0.4001839158	 2.1692689348	-0.3329574977	 0.132127
H	-0.1947589912	 1.7258780371	 1.3678523569	 0.134001
H	 1.1243467933	-1.4546712958	-0.5314360524	 0.253368
H	-1.8280838594	 0.1638041837	 0.2493164062	 0.254308
H	-3.5441143676	-1.202429864	 0.0148186794	 0.093992
H	-4.4622802767	-3.044025436	-1.4548893257	 0.123336
H	-2.734261724	-3.6531327151	-1.7506281244	 0.146685
39.2677	82.2184	121.7836	153.2766	167.8548	298.7051	302.3931	323.3561	392.673	540.4784	542.6885	573.9254	705.7024	762.8252	844.1164	889.2541	919.4967	933.8342	971.6656	1011.305	1048.1947	1082.5008	1097.8657	1121.8404	1160.0945	1166.4874	1203.8019	1296.231	1348.2659	1406.4101	1428.7756	1472.3891	1484.7106	1504.7597	1517.1859	1742.8265	1797.7653	3031.2137	3085.566	3093.099	3101.274	3167.758	3198.6112	3482.8291	3620.333
CC(=N)NC(=O)C1CO1	CC(=N)NC(=O)[C@H]1CO1	
InChI=1S/C5H8N2O2/c1-3(6)7-5(8)4-2-9-4/h4H,2H2,1H3,(H2,6,7,8)	InChI=1S/C5H8N2O2/c1-3(6)7-5(8)4-2-9-4/h4H,2H2,1H3,(H2,6,7,8)/t4-/m1/s1
