13
gdb 133370	3.18493	1.47305	1.00853	3.8457	67.23	-0.2075	-0.0676	0.14	1063.4232	0.090644	-490.223071	-490.21555	-490.214606	-490.255269	28.436	
N	-0.0420770542	 1.3716067155	 0.1723956553	-0.56906
C	-0.0474731232	-0.0069115875	 0.0454866211	 0.249282
N	-1.1536879316	-0.6823424871	 0.028253031	-0.233329
N	-1.0410601786	-2.0223209381	 0.003611483	-0.263456
C	 0.1383819772	-2.7666272274	-0.0096566382	 0.442387
N	 0.0713721566	-4.0387793718	-0.004837051	-0.563878
N	 1.3165958681	-2.0012659602	-0.0361986353	-0.352388
C	 1.2035514524	-0.7393220469	-0.0036363673	 0.310226
F	 2.3016584326	 0.0096283092	-0.0388139778	-0.059067
H	 0.7324216293	 1.8337624163	-0.2807489146	 0.264871
H	-0.9363738886	 1.798440675	-0.0262117135	 0.264925
H	-1.9114860573	-2.5308183107	 0.0084764258	 0.282003
H	 1.0113304971	-4.4265797763	-0.0246283084	 0.227483
66.2535	212.5532	268.7486	313.4015	350.8074	367.6214	408.1163	505.8737	547.2117	582.0686	594.9762	630.4156	712.5805	729.3281	772.8389	809.1844	832.8169	974.292	1071.0704	1128.9747	1238.1828	1290.0802	1345.9219	1429.4515	1489.0773	1613.1885	1632.9981	1717.4209	1742.6297	3532.3825	3563.3393	3640.6691	3673.5855
NC1=NNC(=N)N=C1F	NC1=NN[C@@H]([NH])N=C1F	
InChI=1S/C3H4FN5/c4-1-2(5)8-9-3(6)7-1/h(H2,5,8)(H2,6,7,9)	InChI=1S/C3H5FN5/c4-1-2(5)8-9-3(6)7-1/h3,6,9H,(H2,5,8)/t3-/m0/s1
