21
gdb 109992	2.067	1.4147	1.02081	3.9741	79.16	-0.2396	-0.013	0.2266	1252.6025	0.181186	-424.221681	-424.211953	-424.211009	-424.256509	35.773	
C	-0.6086758277	 1.0826228469	-1.2695482109	-0.414607
C	 0.2026467158	-0.1012806307	-0.7591690309	 0.028042
C	 1.7099964084	-0.1932465951	-1.1161160935	-0.250934
C	 2.0026964563	-0.7325551109	 0.3036220736	-0.079925
C	 3.2067492216	-0.1934362059	 1.0338538218	 0.154212
O	 3.8606062653	 0.7452628052	 0.6487375824	-0.258579
C	 0.5823428924	-0.2090453677	 0.7561102935	-0.054585
C	 0.6211571788	 1.0986945297	 1.5373121595	-0.083045
O	 1.2161861433	 0.9308474391	 2.8185759803	-0.416134
H	-0.142037147	 2.0393003127	-1.0141103372	 0.122082
H	-0.6927959032	 1.0418362409	-2.3611577242	 0.118329
H	-1.6255363545	 1.0834899206	-0.8613562277	 0.114019
H	-0.2985355266	-1.0300197853	-1.0537513646	 0.074099
H	 1.9910198072	-0.828537404	-1.9588087192	 0.100148
H	 2.1718328909	 0.7889158994	-1.2481807416	 0.124063
H	 2.0249495238	-1.8266927106	 0.3499595356	 0.080887
H	 3.4683609723	-0.7211142139	 1.9759140674	 0.074949
H	-0.0063795636	-0.9383552531	 1.3252882915	 0.059099
H	 1.2413144156	 1.8429432742	 1.0289951037	 0.131831
H	-0.3937652858	 1.5159416929	 1.6214045752	 0.0951
H	 0.6784924367	 0.3032606154	 3.3130654052	 0.280949
60.2425	88.2703	139.5323	180.5351	225.2444	245.9604	267.2919	316.0914	338.9146	361.2236	443.6718	526.4389	617.1919	671.7856	775.703	824.808	902.6268	906.8173	931.8991	951.8239	973.3452	1014.7236	1056.8245	1080.6935	1107.1199	1126.4587	1142.7371	1159.3612	1186.4176	1237.4158	1246.7588	1267.3512	1300.8654	1342.6404	1349.8136	1384.0615	1390.3991	1413.3067	1424.7693	1425.9454	1493.1038	1495.2353	1499.9606	1509.2155	1812.3802	2898.1122	2991.4178	3021.6807	3028.6912	3039.8427	3054.1903	3066.7335	3089.5223	3091.9088	3102.9763	3121.4932	3807.7817
CC1CC(C=O)C1CO	C[C@H]1C[C@@H](C=O)[C@H]1CO	
InChI=1S/C7H12O2/c1-5-2-6(3-8)7(5)4-9/h3,5-7,9H,2,4H2,1H3	InChI=1S/C7H12O2/c1-5-2-6(3-8)7(5)4-9/h3,5-7,9H,2,4H2,1H3/t5-,6-,7-/m0/s1
