17
gdb 108393	2.38279	1.45766	1.11906	2.075	75.1	-0.2315	0.0448	0.2763	1132.2588	0.133187	-421.725424	-421.716571	-421.715627	-421.759115	32.601	
C	-0.2434115484	 1.3527596249	 0.1311005342	-0.258762
O	 0.1906807428	 0.0145960904	-0.0881850425	-0.270567
C	 0.7710894976	-0.5605832993	 1.008121771	 0.338629
C	 2.2500451526	-0.469016555	 1.4010771043	-0.159952
O	 2.2374277034	-1.8677218607	 1.8101384447	-0.275611
C	 0.8874042317	-2.0008576238	 1.3906018504	 0.001723
C	-0.0397212561	-1.0910409861	 2.1993332585	-0.336596
C	 0.1977153365	-0.7276548769	 3.563273323	 0.345791
C	 0.4081770169	-0.406522931	 4.7035690502	-0.445131
H	 0.5998047939	 2.0176178772	 0.3611184014	 0.119352
H	-0.7174366425	 1.6847249353	-0.7943005202	 0.134553
H	-0.9684532412	 1.4047017806	 0.9534419477	 0.124528
H	 2.90428085	-0.327322145	 0.5347867956	 0.119704
H	 2.5290765451	 0.1993798777	 2.2206973474	 0.121885
H	 0.5696135255	-2.9310342151	 0.9348188074	 0.123272
H	-1.0800147402	-1.2371781345	 1.9143416264	 0.121764
H	 0.5926522725	-0.1377585886	 5.7139630205	 0.19542
83.792	112.069	137.0078	174.8505	211.5525	314.9412	352.3835	381.5116	421.2838	527.3929	578.1336	618.5893	657.1205	677.3711	769.4262	842.1104	904.7897	929.6836	983.1009	1025.0499	1037.2243	1064.7116	1075.0075	1085.9661	1155.3057	1179.1929	1197.7285	1222.1097	1277.9263	1280.0547	1339.9561	1439.621	1488.0561	1494.685	1502.3852	1507.6655	2232.8831	3004.1432	3043.4943	3063.6396	3105.2812	3133.3367	3135.4324	3190.3875	3504.0317
COC12COC1C2C#C	CO[C@]12CO[C@H]1[C@H]2C#C	
InChI=1S/C7H8O2/c1-3-5-6-7(5,8-2)4-9-6/h1,5-6H,4H2,2H3	InChI=1S/C7H8O2/c1-3-5-6-7(5,8-2)4-9-6/h1,5-6H,4H2,2H3/t5-,6+,7+/m1/s1
