19
gdb 114577	2.57772	1.28242	1.01204	1.5347	84.31	-0.2319	0.0392	0.2711	1245.0896	0.157507	-385.819443	-385.810425	-385.809481	-385.853146	34.058	
C	-0.2573438819	 1.3212938608	 0.0662801952	-0.237379
O	 0.3028327638	 0.0428206769	-0.1371515551	-0.244349
C	 0.7762843814	-0.5503337521	 1.041164259	 0.059864
C	-0.2623803548	-1.195730532	 2.028102842	-0.267697
C	 0.4111172366	-2.5508635863	 1.8067436978	-0.111007
C	 0.3762746242	-2.9092628089	 0.3572886625	-0.320708
C	 1.4274859889	-1.9187165907	 0.8162532257	 0.212661
C	 2.8244387385	-2.1409247713	 0.669575413	 0.156762
C	 4.0113272559	-2.3088912257	 0.5559156012	-0.417981
H	 0.4757193667	 2.0209928992	 0.4971082781	 0.107285
H	-0.5723337251	 1.6966594745	-0.9101122681	 0.129704
H	-1.1333577325	 1.2877009485	 0.731514991	 0.107295
H	 1.4556673777	 0.1313724737	 1.5713451725	 0.07722
H	-0.1686955647	-0.8117272194	 3.0457277791	 0.106059
H	-1.3096388185	-1.1365096519	 1.7152325919	 0.103116
H	 0.63388285	-3.278779309	 2.5760682088	 0.104059
H	 0.7725493719	-3.8849277062	 0.0996457163	 0.127229
H	-0.4316482389	-2.5592011098	-0.2785783998	 0.125233
H	 5.0566657507	-2.4598097003	 0.4504374488	 0.182636
84.5315	126.6131	153.9363	163.7966	199.2924	285.2823	371.1436	408.2314	450.5001	517.6284	540.8302	562.4482	628.4416	646.8661	731.3297	820.4218	838.7198	869.6867	941.2471	988.4811	1019.5624	1029.3272	1042.6448	1087.3684	1099.9106	1139.4193	1178.5975	1184.8844	1205.4861	1215.2836	1242.7246	1269.8689	1297.2052	1369.8669	1399.2442	1475.2035	1481.1356	1488.402	1497.1289	1509.4782	2231.048	2975.9148	3007.8676	3023.8325	3051.8696	3114.7011	3117.0618	3126.3891	3200.0637	3221.8325	3504.6502
COC1CC2CC12C#C	CO[C@H]1C[C@H]2C[C@@]12C#C	
InChI=1S/C8H10O/c1-3-8-5-6(8)4-7(8)9-2/h1,6-7H,4-5H2,2H3	InChI=1S/C8H10O/c1-3-8-5-6(8)4-7(8)9-2/h1,6-7H,4-5H2,2H3/t6-,7-,8+/m0/s1
