17
gdb 46726	3.20196	1.70233	1.28799	4.6415	72.39	-0.2559	0.0097	0.2656	971.8032	0.139093	-421.822056	-421.815549	-421.814605	-421.85302	26.175	
O	-0.0268584598	-0.0132869816	-0.321125073	-0.335739
C	-0.0117533907	 1.1370145551	 0.0255321813	 0.404352
O	-1.1556302056	 1.7250307801	 0.4530324122	-0.233262
C	-1.1291225097	 3.1000450069	 0.8649326518	-0.109541
C	 0.2336882534	 3.7452599965	 0.7638615234	-0.015902
C	 1.0842358684	 3.4657079983	-0.5114086461	-0.064602
C	 2.3439652466	 3.8141793534	 0.3247489889	-0.237738
C	 1.4686945509	 2.9301909232	 1.2520931216	-0.064626
C	 1.2207686574	 1.9990277375	 0.0184175515	-0.134359
H	-1.8558318729	 3.6345204108	 0.2410897875	 0.121529
H	-1.4945533509	 3.1310240698	 1.898592536	 0.121514
H	 0.1906841048	 4.7892081326	 1.090245769	 0.078092
H	 0.8557551639	 3.7604512163	-1.5361653918	 0.087222
H	 3.2875223218	 3.3788673415	-0.013146251	 0.103362
H	 2.4631531772	 4.8611950822	 0.6167223076	 0.097812
H	 1.6855299259	 2.6046342967	 2.2700315421	 0.087215
H	 2.0712386391	 1.4203220306	-0.342766851	 0.094672
131.4997	167.5385	314.7385	374.7163	471.8048	476.0018	591.3872	701.1725	728.2935	790.1014	819.8085	845.6958	892.5789	906.4845	924.8594	970.2292	1003.3104	1020.4081	1030.0619	1065.3746	1094.5057	1112.4154	1123.8801	1154.3733	1173.3112	1209.6301	1229.3549	1230.6151	1246.216	1272.4494	1286.6817	1325.0324	1391.8452	1435.132	1512.3747	1517.4165	1846.6498	3025.6706	3053.286	3061.5306	3066.1667	3108.6456	3109.2399	3119.533	3122.652
O=C1OCC2C3CC2C13	O=C1OC[C@@H]2[C@H]3C[C@@H]2[C@@H]13	
InChI=1S/C7H8O2/c8-7-6-3-1-4(6)5(3)2-9-7/h3-6H,1-2H2	InChI=1S/C7H8O2/c8-7-6-3-1-4(6)5(3)2-9-7/h3-6H,1-2H2/t3-,4+,5-,6+
