20
gdb 88481	2.22033	1.46402	1.11615	1.9108	84.96	-0.2409	0.0423	0.2832	1188.0817	0.16952	-365.93512	-365.925775	-365.924831	-365.969136	35.71	
C	 0.5168170378	 1.4598631111	-0.5009232898	-0.418447
C	 0.0866823111	 0.0747463418	-0.0682412746	 0.022691
C	 1.0886105544	-1.0525046944	 0.0240119461	-0.331043
C	 0.462508197	-0.4951481958	 1.2802867001	-0.086398
C	 1.2322551537	 0.2910765904	 2.3164757466	 0.063259
C	 2.3141333342	-0.4022226633	 3.0864209249	-0.268299
N	 2.6583519658	 0.65306679	 2.1298227943	-0.331766
C	 0.4402424217	 1.2932082622	 2.9942521213	 0.346559
C	-0.2570640085	 2.09560711	 3.5557473964	-0.442804
H	 1.5107659194	 1.7153696734	-0.1236180459	 0.130152
H	 0.5423005798	 1.5346938766	-1.593537703	 0.113672
H	-0.1761163456	 2.2199338181	-0.1261482285	 0.130456
H	-0.902227987	-0.2084721297	-0.4195836863	 0.085554
H	 0.8017741613	-2.0507400996	-0.2880980232	 0.114206
H	 2.123387247	-0.8106808826	-0.2019494537	 0.107404
H	-0.296383076	-1.1238748239	 1.7390112431	 0.097
H	 2.4755863092	-0.1480641791	 4.1293029882	 0.127714
H	 2.5150732136	-1.4371204907	 2.8210128567	 0.117362
H	 3.0038969706	 0.2328901526	 1.2707535716	 0.230168
H	-0.8582053495	 2.8154625128	 4.0535224259	 0.192558
59.316	121.1046	164.6402	182.2812	220.1119	256.5156	318.5374	355.5049	453.2908	471.3625	551.8175	574.7776	607.9429	646.9977	666.6355	786.6152	835.6356	849.9435	859.6821	912.4239	925.8941	962.7242	991.8346	1017.4339	1071.3934	1074.1893	1106.2574	1123.9462	1145.0202	1156.5071	1196.6363	1222.7437	1258.0373	1287.2994	1337.9629	1392.4299	1414.7905	1426.5273	1489.9291	1495.56	1502.0027	1505.8579	2237.8371	3036.0701	3097.2091	3109.3875	3112.6452	3124.3143	3132.5197	3143.0651	3203.3226	3205.6791	3503.5161	3504.9633
CC1CC1C1(CN1)C#C	C[C@H]1C[C@H]1[C@]1(CN1)C#C	
InChI=1S/C8H11N/c1-3-8(5-9-8)7-4-6(7)2/h1,6-7,9H,4-5H2,2H3	InChI=1S/C8H11N/c1-3-8(5-9-8)7-4-6(7)2/h1,6-7,9H,4-5H2,2H3/t6-,7+,8+/m0/s1
