20
gdb 39314	2.86481	1.80179	1.34546	0.4551	77.87	-0.2125	0.0789	0.2914	998.7239	0.17376	-403.106931	-403.099741	-403.098797	-403.138702	29.335	
C	 0.1111604255	 1.575377139	-0.05632081	-0.250856
C	 1.302354432	 0.6900825002	-0.0407553669	-0.010419
C	 2.1378357015	 0.6468458833	 1.2274231313	-0.115997
O	 1.3269272799	 0.7552453488	 2.3849967454	-0.258716
C	 0.4668809188	-0.3645287336	 2.4951574458	 0.106045
C	-0.7729781925	-0.0411682746	 3.35385049	-0.246797
C	-1.6339572157	 0.0831586044	 2.0615226392	-0.238593
C	-0.4573309868	-0.5202260504	 1.246241052	 0.028578
N	-0.0495148201	 0.1182080638	-0.0048283951	-0.108874
H	-0.0689410848	 2.1573902962	 0.8433974105	 0.123563
H	-0.2261488528	 2.0371570945	-0.9806464559	 0.109854
H	 1.8574600194	 0.5009793719	-0.9588638132	 0.086925
H	 2.7295912337	-0.2835734159	 1.2611113787	 0.093191
H	 2.837489906	 1.4887153458	 1.2521986093	 0.114612
H	 1.0516560253	-1.2526253098	 2.7782587081	 0.060463
H	-1.0674030942	-0.872467763	 3.9984853791	 0.104427
H	-0.6712988416	 0.8592528558	 3.9629344284	 0.113134
H	-2.5692217401	-0.4795462673	 2.0373405538	 0.101986
H	-1.8488613559	 1.1183315616	 1.7890192765	 0.109419
H	-0.6313303678	-1.5786185609	 1.0252666028	 0.078056
57.5666	225.4569	284.2642	336.9441	375.2328	419.3723	463.5073	566.1126	665.5615	722.428	742.9889	777.4746	804.7578	852.0263	898.0747	927.0135	951.2237	957.1288	987.4515	1031.9121	1053.1032	1085.3064	1113.8813	1116.5331	1130.7183	1145.9618	1159.032	1166.6937	1217.0317	1239.5337	1265.3362	1282.6672	1289.9482	1308.0972	1313.2918	1350.4034	1369.1861	1385.7704	1420.7426	1466.5953	1487.6092	1496.5616	1503.0529	2964.9723	2982.1889	3040.7041	3069.335	3071.2849	3075.2659	3103.1306	3110.7599	3116.6241	3133.6182	3190.5125
C1C2COC3CCC3N12	C1[C@H]2CO[C@H]3CC[C@H]3N12	
InChI=1S/C7H11NO/c1-2-7-6(1)8-3-5(8)4-9-7/h5-7H,1-4H2	InChI=1S/C7H11NO/c1-2-7-6(1)8-3-5(8)4-9-7/h5-7H,1-4H2/t5-,6+,7-,8?/m0/s1
