18
gdb 94779	3.56351	1.21608	1.03877	1.6268	73.26	-0.2586	-0.0376	0.221	1151.3309	0.148364	-439.080798	-439.072728	-439.071783	-439.113753	30.909	
O	-0.1840899113	 1.3776433028	 0.6422486457	-0.435709
C	 0.0123775732	 0.1280320981	 0.01395434	 0.131801
C	 0.9119709122	-0.8441148235	 0.8229612174	-0.232673
C	-0.0296425306	-1.7634076412	 1.6419291062	-0.305334
C	-1.3379477194	-1.7540552355	 0.8655724922	 0.262261
N	-2.1405794622	-0.5182073442	 1.0512161019	-0.374839
C	-1.316505732	-0.6358580024	-0.1452302204	-0.121263
C	-2.0642780508	-2.9991410729	 0.5287526568	 0.074749
O	-1.6878255462	-4.1139468952	 0.7888433751	-0.25632
H	-0.880473867	 1.2364190204	 1.299021345	 0.290971
H	 0.4510905628	 0.3436195479	-0.9646525919	 0.088869
H	 1.4853226935	-1.4580368779	 0.1191686767	 0.104942
H	 1.6250037892	-0.2865711205	 1.4342023739	 0.11425
H	 0.3474898907	-2.7848452487	 1.7247064686	 0.132216
H	-0.1970653846	-1.3848759972	 2.6540726439	 0.118673
H	-3.1221184266	-0.6867110064	 0.8330491165	 0.241271
H	-1.7995940818	-0.7264646235	-1.1131601824	 0.103097
H	-3.0254081691	-2.8202673003	-0.0138389552	 0.063038
70.4702	98.9489	210.8444	227.6004	326.3562	385.7521	413.082	472.0642	491.466	553.5663	651.3764	718.5281	760.6839	805.9584	826.4803	850.9759	927.724	964.3437	979.7614	995.6517	1032.6043	1051.9026	1101.2243	1112.8358	1131.9007	1175.3146	1217.6949	1257.2383	1295.3825	1308.1902	1314.0989	1343.2732	1368.9469	1396.3726	1432.8211	1451.0852	1477.5494	1495.0557	1817.7968	2828.1863	3043.1726	3068.0942	3071.8937	3110.5414	3123.3932	3162.3316	3467.8549	3736.0286
OC1CCC2(NC12)C=O	O[C@H]1CC[C@]2(N[C@@H]12)C=O	
InChI=1S/C6H9NO2/c8-3-6-2-1-4(9)5(6)7-6/h3-5,7,9H,1-2H2	InChI=1S/C6H9NO2/c8-3-6-2-1-4(9)5(6)7-6/h3-5,7,9H,1-2H2/t4-,5-,6-/m0/s1
