15
gdb 94137	1.97043	1.57371	1.24655	2.9876	70.19	-0.2932	-0.0251	0.268	1072.5082	0.111579	-416.806449	-416.797739	-416.796794	-416.840185	30.758	
C	-0.4121006621	 1.4290089158	 0.0269764535	-0.418965
C	 0.1904534841	 0.0503046989	-0.0701030027	 0.133024
O	 1.4774159085	 0.0285543979	-0.714925829	-0.271333
C	 2.0536527082	-0.8040961235	 0.2931325954	-0.091342
C	 0.8039954811	-0.6310684431	 1.2253508079	-0.08783
C	 1.0291942963	 0.2796296091	 2.342653784	 0.27751
N	 1.2249560741	 1.0247227261	 3.2032761404	-0.322075
C	 0.1488350173	-1.8571267096	 1.6624672652	 0.258441
N	-0.3749054214	-2.8415735701	 1.9636644084	-0.316194
H	 0.253939721	 2.1192855231	 0.5494670571	 0.152906
H	-0.5886852367	 1.8096178825	-0.9834318897	 0.146974
H	-1.3711867255	 1.3905696012	 0.5526687863	 0.14242
H	-0.4999316749	-0.654039474	-0.5514816732	 0.111235
H	 2.1898989879	-1.841262216	-0.032882427	 0.137475
H	 2.9890494621	-0.4026734381	 0.6903299432	 0.147755
70.3006	133.3069	142.9836	164.3164	229.6925	234.639	316.5579	419.3428	488.3902	512.5949	542.8601	593.1656	602.4081	762.3807	887.8545	912.4753	956.3557	1022.0899	1042.8802	1099.1795	1125.4191	1156.2698	1171.8246	1228.9218	1300.1808	1355.1206	1384.7265	1414.7053	1479.538	1490.6084	1520.2852	2362.8571	2367.0074	3027.6857	3040.7822	3047.8403	3110.8832	3121.092	3138.2069
CC1OCC1(C#N)C#N	C[C@H]1OCC1(C#N)C#N	
InChI=1S/C6H6N2O/c1-5-6(2-7,3-8)4-9-5/h5H,4H2,1H3	InChI=1S/C6H6N2O/c1-5-6(2-7,3-8)4-9-5/h5H,4H2,1H3/t5-/m1/s1
