18
gdb 56362	1.99296	1.52545	1.29434	1.0478	83.95	-0.2433	0.0212	0.2645	1118.5403	0.143561	-364.70139	-364.691702	-364.690758	-364.735363	36.579	
C	 0.1213880018	 1.4710834525	 0.0071237444	-0.398032
C	-0.0230776816	-0.0681537047	 0.0596677127	-0.131605
C	 0.5649109408	-0.5738310577	 1.3178650405	 0.346662
C	 1.0830250143	-0.9828808748	 2.3229468779	-0.496655
C	-1.4469821421	-0.4391349292	 0.0200083476	 0.393801
C	-2.6126546274	-0.7245079785	-0.0143032003	-0.466714
N	 0.611172256	-0.6040305505	-1.1697256246	-0.080699
C	 2.0418319123	-0.899922625	-1.1582367747	-0.233067
C	 1.0350753751	-1.99779067	-1.200513004	-0.220231
H	 1.180667476	 1.7385829979	 0.0348333044	 0.126116
H	-0.3185508154	 1.8353415754	-0.9230436313	 0.137775
H	-0.3843572468	 1.9313660598	 0.8579161546	 0.132793
H	 1.519754685	-1.3432236235	 3.2219445871	 0.203214
H	-3.6421607739	-0.9837953337	-0.0437688329	 0.198896
H	 2.5788859025	-0.5997993497	-2.0531835378	 0.117226
H	 2.5858250695	-0.7788028551	-0.2247597741	 0.125202
H	 0.9243310119	-2.5881125443	-0.2941571867	 0.127061
H	 0.820547822	-2.5237458889	-2.1259517129	 0.118257
85.3007	128.6543	154.2716	163.6897	224.7509	244.7515	263.2692	343.1497	417.2309	470.6543	501.6653	559.7363	583.0771	631.9751	634.5606	637.9133	653.9476	662.2937	803.488	836.0953	913.9042	941.0479	980.5094	1031.6528	1093.4423	1114.6358	1127.2213	1146.6494	1170.38	1191.4927	1217.8209	1305.466	1396.259	1482.6435	1483.8442	1485.5442	1510.7905	2222.1571	2243.4333	3055.4507	3108.7486	3110.7674	3137.7138	3149.7773	3190.7256	3203.7802	3497.8536	3501.8417
CC(C#C)(C#C)N1CC1	CC(C#C)(C#C)N1CC1	
InChI=1S/C8H9N/c1-4-8(3,5-2)9-6-7-9/h1-2H,6-7H2,3H3	InChI=1S/C8H9N/c1-4-8(3,5-2)9-6-7-9/h1-2H,6-7H2,3H3
