24
gdb 6172	3.11181	1.3032	1.17157	0.1034	85.87	-0.2556	0.0823	0.3379	1213.1308	0.221334	-314.276964	-314.266862	-314.265918	-314.311072	38.244	
C	 0.151645178	 0.8524968423	 1.6884194677	-0.382053
C	-0.5103472096	-0.5323844142	 1.7565758656	 0.013446
C	-1.245671023	-0.7255509155	 3.0915078756	-0.386318
C	-1.451494741	-0.7324027526	 0.5801130387	 0.003082
C	-0.9403686284	-1.1218461583	-0.7895400264	-0.347819
C	-1.8199599347	-2.0788642565	-0.0136428495	 0.338352
C	-1.2014460455	-3.3591252611	 0.5178682924	-0.456602
C	-3.2512105289	-2.253330756	-0.4892394177	-0.448579
H	 0.8600923902	 0.9938553311	 2.5116693613	 0.105355
H	 0.6923270868	 0.9872305205	 0.7464904023	 0.113336
H	-0.5999645665	 1.6481120375	 1.7576991469	 0.108901
H	 0.2879511018	-1.2829602415	 1.6969505566	 0.0669
H	-2.0603965834	 0.0013690832	 3.1947456433	 0.109621
H	-1.6825772307	-1.7260099788	 3.1658779116	 0.113659
H	-0.5692871933	-0.5865737149	 3.9417702019	 0.106435
H	-2.2667645553	-0.0087121882	 0.575131684	 0.068845
H	-1.3493909553	-0.6266565549	-1.6646210554	 0.101593
H	 0.1144108413	-1.3681478756	-0.8760426133	 0.1013
H	-1.2110854635	-4.1366769661	-0.2554139054	 0.11164
H	-0.1632520499	-3.2231085582	 0.8303432004	 0.115046
H	-1.7620632139	-3.7470640783	 1.3769637572	 0.112452
H	-3.3125953433	-2.9998843173	-1.2906266184	 0.110493
H	-3.90219168	-2.5908874604	 0.3264521834	 0.111107
H	-3.662362152	-1.3157454163	-0.8766444129	 0.109806
73.414	130.4868	169.8888	213.6153	225.5766	235.7968	249.5969	289.192	344.6709	364.8474	373.7373	394.5816	472.0581	508.3257	706.9964	769.7267	867.6552	900.675	920.4257	928.8585	953.2618	967.9069	976.5426	985.8837	1038.4764	1060.0736	1091.4855	1123.1568	1141.5902	1157.8671	1185.072	1218.2414	1275.115	1323.5054	1342.0741	1343.9236	1398.0691	1411.2703	1416.4568	1424.9991	1432.5108	1481.6129	1486.8457	1490.5022	1492.2052	1493.5963	1502.0995	1502.9505	1508.8641	1516.9653	3015.7062	3020.3698	3022.8279	3025.2491	3027.782	3073.1091	3076.418	3085.9318	3091.71	3094.249	3102.2206	3102.735	3105.4033	3112.864	3116.6094	3197.871
CC(C)C1CC1(C)C	CC(C)[C@H]1CC1(C)C	
InChI=1S/C8H16/c1-6(2)7-5-8(7,3)4/h6-7H,5H2,1-4H3	InChI=1S/C8H16/c1-6(2)7-5-8(7,3)4/h6-7H,5H2,1-4H3/t7-/m1/s1
