18
gdb 40394	3.83863	1.3507	1.20889	2.0165	74.62	-0.2263	0.0642	0.2905	1063.8039	0.147691	-401.829417	-401.822005	-401.82106	-401.861444	29.409	
C	-0.5011689419	 1.1948956379	-0.3219696889	-0.166363
O	 0.6950568081	 1.3965324828	 0.4326401427	-0.234409
C	 0.2884741238	 0.0522513271	 0.1539929908	-0.045388
C	-0.1549261619	-0.7557148636	 1.3206149651	 0.296861
C	-1.3448543052	-1.6346744909	 1.2974922871	-0.289996
N	-1.3857840984	-0.398235884	 2.1071629275	-0.178027
C	-0.5541871516	-0.5617194192	 3.3685247872	 0.013481
C	 0.1613400403	-1.8650854495	 3.5874982191	-0.31413
C	 0.7071086671	-0.8686344558	 2.60129472	-0.118552
H	-1.4223394853	 1.4382636324	 0.2020889659	 0.136543
H	-0.4478848215	 1.4838426136	-1.3706465563	 0.111029
H	 0.9379805149	-0.4660816507	-0.5544181805	 0.09339
H	-1.9870576301	-1.5603940257	 0.4242536634	 0.122486
H	-1.3541159407	-2.6118426379	 1.7653521267	 0.121673
H	-0.7428020118	 0.1508449815	 4.1604338213	 0.107832
H	 0.7065237821	-1.8850611679	 4.5269670316	 0.121607
H	-0.2288038441	-2.8362854365	 3.3048950193	 0.115022
H	 1.6844697662	-0.4135249338	 2.6803396078	 0.106942
80.595	140.5235	189.224	281.3022	432.8617	462.9181	480.3542	574.5892	595.1548	708.0061	746.0376	798.0929	818.4462	860.2984	892.9062	917.4712	928.9721	953.1591	965.0383	1019.0997	1036.1869	1060.4894	1066.3425	1084.3066	1097.8236	1114.4249	1133.0457	1160.2829	1163.4211	1181.2443	1218.2541	1282.4929	1289.9924	1322.6555	1366.6774	1441.3622	1474.6984	1516.0009	1521.7436	3085.6041	3093.2412	3122.4394	3134.2559	3189.4437	3196.7121	3200.982	3213.5189	3216.2112
C1OC1C12CN1C1CC21	C1O[C@H]1[C@]12CN1[C@H]1C[C@@H]21	
InChI=1S/C7H9NO/c1-4-5(1)8-3-7(4,8)6-2-9-6/h4-6H,1-3H2	InChI=1S/C7H9NO/c1-4-5(1)8-3-7(4,8)6-2-9-6/h4-6H,1-3H2/t4-,5+,6-,7-,8?/m1/s1
