18
gdb 19708	5.20216	1.73105	1.56481	1.6751	70.82	-0.2494	0.0783	0.3277	854.921	0.156419	-347.7672	-347.760817	-347.759872	-347.797319	26.309	
O	 0.2044190109	 1.3966233371	-0.1905939568	-0.454004
C	 0.0487948578	 0.0101202907	-0.0406605891	 0.180565
C	 0.0306897318	-0.6526051436	 1.3596498195	-0.111433
C	-1.4477259826	-0.1695429033	 1.5614125289	-0.02041
C	-2.2108864115	-1.2231770734	 2.3666655848	-0.243035
C	-1.6277301651	-2.5132741399	 1.7258112646	-0.238466
C	-0.6716472479	-1.8888637992	 0.7085088886	 0.005698
C	-1.3548378011	-0.6368555764	 0.0671659043	-0.111445
H	-0.374045796	 1.8447483712	 0.4347062197	 0.281003
H	 0.7252181392	-0.4419026452	-0.7712802503	 0.07893
H	 0.8228965918	-0.6715533931	 2.1113773347	 0.065139
H	-1.6534484336	 0.8782500324	 1.7947227503	 0.046956
H	-2.0038729212	-1.1511571734	 3.4391992815	 0.098156
H	-3.2942355648	-1.1364879696	 2.235478661	 0.098155
H	-1.1026626412	-3.1454364382	 2.4488937909	 0.098319
H	-2.3931041406	-3.1307738001	 1.2451137767	 0.098319
H	-0.0832916795	-2.5507268574	 0.0697306336	 0.062416
H	-2.1598579765	-0.6376469688	-0.6710673328	 0.065138
219.2098	237.9132	252.3962	296.793	445.6599	518.1983	687.7103	720.2264	738.6541	794.1572	830.3745	845.128	914.3571	918.3309	932.8189	954.3889	977.4571	991.2091	1029.0721	1067.9656	1077.9248	1093.5271	1121.3364	1125.4811	1169.0853	1204.0413	1212.5596	1246.2	1251.4881	1264.7331	1275.4644	1281.5154	1296.5726	1320.2621	1382.3286	1455.282	1490.0438	1510.1648	3041.2844	3050.6354	3073.3917	3074.6177	3077.7821	3086.0789	3089.5337	3094.5619	3103.9981	3818.0584
OC1C2C3CCC2C13	O[C@H]1[C@H]2[C@@H]3CC[C@H]2[C@H]13	
InChI=1S/C7H10O/c8-7-5-3-1-2-4(5)6(3)7/h3-8H,1-2H2	InChI=1S/C7H10O/c8-7-5-3-1-2-4(5)6(3)7/h3-8H,1-2H2/t3-,4+,5-,6+,7-
