20
gdb 55916	3.48938	1.06492	0.90614	3.4672	79.21	-0.2362	-0.0082	0.2281	1316.0974	0.170058	-403.120421	-403.11145	-403.110506	-403.155254	33.19	
C	 0.7490804753	 0.779052715	 0.4330128121	-0.484199
C	-0.5053660748	 0.0947565407	-0.0706473798	 0.379625
O	-1.5809238879	 0.2346612388	 0.4649504137	-0.301154
C	-0.3470860118	-0.8290085503	-1.2799323226	-0.308317
C	 0.2368992032	-2.1855563087	-0.8757056663	 0.068868
C	 0.4379109214	-3.3017714707	-1.9411407033	-0.292549
C	 1.8983169346	-3.326984801	-1.4966212278	-0.008708
C	 2.5126561887	-2.0001568457	-1.6642770246	-0.242552
N	 1.6925712993	-2.2349074267	-0.4569987132	-0.140213
H	 1.5076144622	 0.0235468139	 0.6678815879	 0.171438
H	 1.1707492985	 1.4213521363	-0.3490649002	 0.129954
H	 0.5196212195	 1.37678749	 1.3159508552	 0.135938
H	-1.3445506988	-0.9937734723	-1.6985364886	 0.12447
H	 0.2747873538	-0.3557391823	-2.048023922	 0.101102
H	-0.3398839468	-2.5711944748	-0.0305226803	 0.104569
H	-0.1215926044	-4.2098877277	-1.7122671094	 0.117405
H	 0.2668615726	-3.0372382408	-2.9893126277	 0.105841
H	 2.4750143783	-4.2178971017	-1.2716258511	 0.100896
H	 3.5660954067	-1.8919603028	-1.426242255	 0.125203
H	 2.1592496105	-1.3349245691	-2.4488555669	 0.11238
32.156	71.9746	144.6878	171.5626	206.0839	274.5186	379.3465	399.6893	488.6415	536.4665	589.0217	709.2056	755.9795	762.4131	793.4044	841.4462	873.2204	931.1817	943.671	980.504	1010.2939	1059.9702	1064.6703	1084.0584	1101.7109	1113.2188	1130.4644	1161.7905	1193.4427	1230.2529	1251.5029	1268.4186	1289.7088	1311.2329	1366.7495	1382.838	1384.8658	1460.9697	1472.2985	1477.3752	1488.0357	1506.4538	1812.0288	3031.3346	3042.0294	3053.7486	3065.8559	3094.698	3100.0755	3109.3674	3122.2337	3151.6087	3168.5937	3199.6424
CC(=O)CC1CC2CN12	CC(=O)C[C@H]1C[C@H]2CN12	
InChI=1S/C7H11NO/c1-5(9)2-6-3-7-4-8(6)7/h6-7H,2-4H2,1H3	InChI=1S/C7H11NO/c1-5(9)2-6-3-7-4-8(6)7/h6-7H,2-4H2,1H3/t6-,7-,8?/m0/s1
