19
gdb 109332	1.92302	1.72405	0.92982	2.8357	79.66	-0.2388	-0.0136	0.2252	1257.8533	0.159842	-419.25888	-419.249703	-419.248759	-419.293841	32.384	
C	-0.0452686894	 1.5850627788	 0.0630036657	-0.379614
C	 0.0163223008	 0.0601817651	-0.0235953847	-0.26586
C	 0.7177531386	-0.428442522	-1.2560745629	 0.391602
N	 1.2163812418	 0.3313806292	-2.1496562466	-0.289479
C	 1.8169981027	-0.4965662767	-3.199200284	-0.177127
C	 1.59539697	-1.9759381484	-2.7813603367	-0.204968
N	 0.8731486254	-1.8167786388	-1.5088314431	-0.125344
C	 0.4538129855	-2.8790932119	-0.7527383001	 0.14396
O	-0.1431906248	-2.8223071384	 0.2994973267	-0.318514
H	 0.9566740386	 2.0208689993	 0.0730109884	 0.129221
H	-0.5752087565	 2.0082006548	-0.7937443008	 0.129254
H	-0.5650629473	 1.8848701691	 0.977355188	 0.109183
H	 0.517328863	-0.3689910102	 0.8510208963	 0.138095
H	-0.9860218048	-0.3813121708	 0.0002089827	 0.138146
H	 1.3482070565	-0.2672127089	-4.1618377076	 0.121767
H	 2.8799153543	-0.2524427468	-3.2971553672	 0.121773
H	 0.9914081247	-2.5331235676	-3.5037874057	 0.126903
H	 2.5341675912	-2.5172531307	-2.6300427277	 0.126883
H	 0.7317884396	-3.839971795	-1.2293291605	 0.08412
36.8765	90.007	148.3214	186.1974	190.9327	244.2691	256.0348	267.4754	415.9019	501.2473	599.1002	673.1529	779.5115	796.8521	813.5639	835.135	961.6175	981.7447	1015.2516	1030.4054	1086.7927	1098.5369	1120.2564	1124.3186	1217.8217	1234.0733	1253.8931	1284.8291	1310.3457	1333.2372	1380.051	1412.6552	1418.2279	1447.7823	1454.0408	1490.5971	1500.3969	1501.0401	1526.8393	1720.0244	1799.2706	2936.4166	3040.2639	3049.1871	3051.7041	3055.5571	3066.7357	3078.5548	3091.6502	3123.2112	3130.5287
CCC1=NCCN1C=O	CCC1=NCCN1C=O	
InChI=1S/C6H10N2O/c1-2-6-7-3-4-8(6)5-9/h5H,2-4H2,1H3	InChI=1S/C6H10N2O/c1-2-6-7-3-4-8(6)5-9/h5H,2-4H2,1H3
