16
gdb 16726	4.96764	1.43688	1.30713	1.8624	69.61	-0.2557	0.0497	0.3054	948.3089	0.130769	-346.560678	-346.553559	-346.552615	-346.592468	27.29	
C	 0.1091494196	-1.2016403123	 0.1319723177	-0.46111
C	 0.0504218116	-0.0022036139	 0.0715300039	 0.315828
C	-0.0108351952	 1.4503739074	 0.0132244486	-0.149337
C	-0.7061826556	 2.1132613274	 1.2497380372	-0.25052
C	 0.0233547556	 3.4313944728	 1.442787881	 0.034156
O	 1.3109690258	 3.2686041476	 2.048836121	-0.248081
C	 1.2498317574	 3.4504651717	 0.6293523925	 0.034155
C	 1.3841116692	 2.1457633919	-0.1366047575	-0.250519
H	 0.1596740647	-2.2609301795	 0.1833048239	 0.195392
H	-0.6003478127	 1.7293668755	-0.8690871249	 0.108294
H	-1.7746363089	 2.2559524503	 1.0673131119	 0.108695
H	-0.5973227561	 1.4932286753	 2.1435362458	 0.130428
H	-0.5153694343	 4.3313310671	 1.7299798423	 0.096749
H	 1.7043686487	 4.3658461287	 0.2577844817	 0.096749
H	 2.1784364013	 1.5363890681	 0.3025735028	 0.130427
H	 1.628395209	 2.308866552	-1.1896744179	 0.108695
45.7958	161.3934	236.0174	333.3031	407.539	513.608	517.8818	555.7894	622.2275	635.1198	704.3155	787.6304	817.8425	857.0829	919.0394	928.2505	966.7021	1033.6979	1053.8852	1060.7299	1082.758	1103.4269	1178.0736	1226.0228	1261.5212	1294.6867	1303.1254	1306.2943	1337.9855	1357.3053	1431.2978	1478.1005	1486.4577	2235.8777	3020.201	3063.2457	3064.9049	3109.9657	3112.0567	3135.8306	3148.572	3505.3915
C#CC1CC2OC2C1	C#C[C@H]1C[C@H]2O[C@H]2C1	
InChI=1S/C7H8O/c1-2-5-3-6-7(4-5)8-6/h1,5-7H,3-4H2	InChI=1S/C7H8O/c1-2-5-3-6-7(4-5)8-6/h1,5-7H,3-4H2/t5-,6+,7-
