19
gdb 47433	2.7764	1.34612	0.99136	1.6639	75.67	-0.2379	-0.0244	0.2135	1215.7378	0.159327	-423.032788	-423.024368	-423.023423	-423.066757	31.333	
O	 0.0780977395	-0.0197402222	 0.281805135	-0.302431
C	 0.0064329127	 1.15881235	 0.0585539829	 0.373001
C	-1.2606558805	 1.9991612225	-0.1049291845	-0.338424
C	-0.7207701378	 3.4274576816	-0.0114685829	-0.094837
O	 0.6227611763	 3.362315698	-0.4992450322	-0.262898
C	 1.1981743497	 2.1194829403	-0.1131258753	-0.013381
C	 2.0349675788	 2.2106094289	 1.145444782	 0.019785
C	 3.1199668062	 1.1919283246	 1.3806977176	-0.253535
C	 3.4835204811	 2.6173393959	 1.052085419	-0.279825
H	-1.6762013441	 1.7937635134	-1.0984362303	 0.141658
H	-2.0138937173	 1.7327554491	 0.6389638639	 0.134442
H	-1.2575844772	 4.1484686392	-0.631602452	 0.118066
H	-0.7413749006	 3.788368197	 1.0283044019	 0.100663
H	 1.8281437055	 1.7680317158	-0.940322263	 0.10217
H	 1.4902378816	 2.5509352714	 2.0221634255	 0.08357
H	 3.2728300296	 0.835607336	 2.3927182564	 0.115865
H	 3.2720313472	 0.434646114	 0.6197236997	 0.123797
H	 3.8847966361	 2.8297238098	 0.0666342019	 0.117413
H	 3.8879632032	 3.2429372947	 1.8396651643	 0.1149
62.213	63.7894	145.6823	167.2032	282.1164	300.2751	410.675	486.7408	541.419	634.3689	662.2265	760.7208	816.586	818.2363	842.5236	884.13	925.401	949.5274	969.9668	992.7158	1041.8492	1060.1191	1077.9799	1088.3459	1128.8771	1149.9168	1175.0584	1193.6841	1205.9376	1226.544	1238.6153	1263.3957	1286.4591	1323.0773	1387.2363	1414.2184	1448.1575	1472.3393	1505.7149	1523.1875	1856.1099	2986.9181	3029.4652	3051.096	3102.1202	3122.7273	3134.5005	3139.3192	3143.8013	3213.9414	3229.1774
O=C1CCOC1C1CC1	O=C1CCO[C@H]1C1CC1	
InChI=1S/C7H10O2/c8-6-3-4-9-7(6)5-1-2-5/h5,7H,1-4H2	InChI=1S/C7H10O2/c8-6-3-4-9-7(6)5-1-2-5/h5,7H,1-4H2/t7-/m0/s1
