18
gdb 65935	2.21734	1.48297	1.40459	5.2515	75.9	-0.2766	0.03	0.3066	1063.5894	0.146514	-401.933707	-401.924998	-401.924054	-401.967025	32.629	
C	-0.4287492209	 1.5125905613	 0.0930722176	-0.458658
C	 0.0043787429	 0.0465499322	 0.0255975716	 0.034805
C	 1.3067317933	-0.2914908291	-0.7941642484	-0.260901
C	 1.8103984827	-1.1941323566	 0.3677759379	-0.319678
C	 0.7439139399	-0.5580804825	 1.2554452002	 0.438906
C	 0.8725890525	 0.0317240406	 2.5890559132	-0.263222
O	 0.1167185706	-1.1675061833	 2.3530923425	-0.257397
C	-1.1131291143	-0.8039747663	-0.38227629	 0.271899
N	-1.9959223896	-1.4699738119	-0.7196506553	-0.340557
H	 0.4143696022	 2.1365360341	 0.4023573983	 0.122773
H	-0.7759546523	 1.8588719046	-0.8846806339	 0.140792
H	-1.2460628306	 1.6487597093	 0.8072272309	 0.143687
H	 1.1507243004	-0.7696897955	-1.760550153	 0.13091
H	 1.9147729198	 0.6057511606	-0.9281408467	 0.116028
H	 1.5995682788	-2.2524126233	 0.1928186851	 0.138428
H	 2.8510388922	-1.0832831608	 0.6777759805	 0.115402
H	 1.7993868928	-0.1029401637	 3.1452092075	 0.123282
H	 0.2836613597	 0.9043834602	 2.8654152922	 0.123499
69.2659	129.571	191.2229	215.2865	239.0773	286.1011	325.3344	379.9087	445.4904	499.4692	558.5872	625.2989	645.1125	741.266	864.488	877.6491	892.8316	910.3276	921.6805	960.3431	1009.8379	1114.2852	1123.8474	1130.7701	1147.5912	1172.6727	1191.0925	1212.1181	1244.2966	1272.1042	1281.0885	1405.3311	1425.0191	1475.5718	1488.6782	1492.2762	1495.1976	1535.0611	2351.669	3041.5082	3071.1315	3079.9093	3086.364	3117.3733	3120.2894	3124.6337	3148.6896	3175.4751
CC1(CCC11CO1)C#N	C[C@]1(CC[C@]21CO2)C#N	
InChI=1S/C7H9NO/c1-6(4-8)2-3-7(6)5-9-7/h2-3,5H2,1H3	InChI=1S/C7H9NO/c1-6(4-8)2-3-7(6)5-9-7/h2-3,5H2,1H3/t6-,7+/m0/s1
