18
gdb 104811	2.62324	1.34936	1.20554	1.4966	67.23	-0.2534	0.0126	0.266	1098.2346	0.148268	-476.226451	-476.217871	-476.216927	-476.259922	31.984	
O	 0.2654853223	 1.4172061787	-0.1198840826	-0.431092
C	 0.1610980765	 0.0166898049	-0.0560590297	-0.082841
C	-1.2712218092	-0.5245439292	 0.0130573617	 0.28646
C	-2.1353307344	-0.1057328679	-1.179288167	-0.117157
O	-2.2750083838	 1.3062502559	-1.28556595	-0.42201
C	-1.3115330503	-2.0579073036	 0.2645029797	-0.238796
N	-2.0094219565	-2.2264532485	 1.5496587518	-0.257227
C	-2.2843540422	-1.057657143	 1.9498598119	 0.113927
O	-1.9290431382	 0.0185222531	 1.2057823306	-0.261018
H	-0.3894478914	 1.723653614	-0.7622783252	 0.289258
H	 0.6492011226	-0.4780590548	-0.9159821254	 0.085879
H	 0.6967344591	-0.303748773	 0.8449032769	 0.112885
H	-1.6684811021	-0.4442376385	-2.1100929385	 0.124726
H	-3.1189071859	-0.5910495496	-1.0990413008	 0.109188
H	-2.6493311047	 1.6061925264	-0.4474464021	 0.301716
H	-1.8479178758	-2.5974585943	-0.5247627183	 0.11859
H	-0.3067823666	-2.4915780347	 0.3259350224	 0.122924
H	-2.7958769893	-0.8139243558	 2.8745755447	 0.144589
66.4367	128.7694	142.4938	242.6523	243.8955	321.9464	364.9403	407.3644	448.0152	450.4751	554.6285	628.1755	721.6815	779.3853	891.0669	906.5944	926.3205	950.8746	981.1923	982.8786	1056.4609	1077.7497	1101.7401	1144.8703	1152.3742	1167.0236	1216.1272	1269.8495	1313.3465	1322.8001	1338.0607	1367.61	1401.2209	1423.9028	1470.1577	1490.6386	1500.1877	1503.6154	1710.6837	2939.3526	3001.4614	3031.0279	3059.1633	3063.89	3084.4574	3215.9912	3732.365	3786.2251
OCC1(CO)CN=CO1	OCC1(CO)CN=CO1	
InChI=1S/C5H9NO3/c7-2-5(3-8)1-6-4-9-5/h4,7-8H,1-3H2	InChI=1S/C5H9NO3/c7-2-5(3-8)1-6-4-9-5/h4,7-8H,1-3H2
