18
gdb 41406	2.563	1.99667	1.41719	2.0626	70.5	-0.2275	0.058	0.2855	943.6506	0.149818	-439.035757	-439.028648	-439.027704	-439.067412	28.008	
C	-0.0758615127	 1.4135435477	 0.1393512985	-0.213807
N	 1.4183227123	 1.5481711569	 0.1448419313	-0.399343
C	 1.5619222417	 0.0896512546	 0.0397101925	 0.250166
C	 2.581988172	-0.7689661538	-0.7047313878	-0.166664
O	 2.5551458594	-1.7376802857	 0.3700612356	-0.296449
C	 1.9027138307	-0.7928969784	 1.2572209272	 0.093396
C	 0.5708487612	-1.2457776602	 1.8362192563	-0.120539
O	-0.417220263	-1.0593675643	 0.8156262841	-0.268288
C	 0.0466100524	-0.1220818448	-0.1251371949	 0.070955
H	-0.5150272421	 1.669235066	 1.1086765162	 0.115394
H	-0.5894375726	 1.9816927275	-0.6418256682	 0.106258
H	 1.764527823	 2.0329461851	-0.6760509609	 0.223185
H	 2.2784649664	-1.199340302	-1.6659202871	 0.107182
H	 3.5728322361	-0.3033053509	-0.8056738434	 0.103328
H	 2.5956820056	-0.3875397246	 2.0017533598	 0.084419
H	 0.5667834915	-2.3016146522	 2.1227763316	 0.123339
H	 0.3330089112	-0.6389667926	 2.7225440704	 0.100719
H	-0.316373103	-0.4240569583	-1.1113551211	 0.086749
90.2247	161.036	245.9824	294.26	383.3723	411.554	500.9136	632.5743	689.6137	738.1378	775.3057	824.8747	846.3237	904.8209	912.2793	963.0842	967.3503	997.4493	1013.8897	1027.0713	1074.9578	1095.9054	1134.8241	1152.3989	1170.9905	1183.5194	1212.4594	1235.542	1256.855	1266.0326	1306.8059	1335.8687	1354.1265	1363.052	1375.7347	1398.6706	1496.4245	1502.2204	1515.9692	2997.4816	2999.4195	3043.6173	3060.2867	3061.2459	3071.0775	3087.6366	3096.8209	3532.5934
C1NC23COC2COC13	C1N[C@@]23CO[C@@H]2CO[C@@H]13	
InChI=1S/C6H9NO2/c1-4-6(7-1)3-9-5(6)2-8-4/h4-5,7H,1-3H2	InChI=1S/C6H9NO2/c1-4-6(7-1)3-9-5(6)2-8-4/h4-5,7H,1-3H2/t4-,5+,6+/m0/s1
