17
gdb 81678	3.59441	1.30786	1.21911	3.5465	67.65	-0.2624	0.0069	0.2693	1044.3391	0.137232	-458.985242	-458.977909	-458.976965	-459.016897	29.118	
O	 0.0799497509	 1.2893059806	 0.1403519262	-0.438382
C	 0.0323681994	-0.1103715863	-0.0044866308	 0.11482
C	-1.4430740504	-0.5794415109	-0.1072880955	-0.045966
C	-1.3580741073	-0.287156275	-1.6355230621	-0.254424
C	 0.1483436858	-0.5908121941	-1.4815219397	 0.076227
O	 0.3963460012	-2.0066932045	-1.5141397939	-0.235278
C	-0.3976891142	-2.8052891779	-0.7458825314	 0.413726
O	-0.232478992	-3.9920601014	-0.7515858562	-0.328526
C	-1.4670394188	-2.0950115763	 0.090915617	-0.362864
H	 0.9917951846	 1.5755049487	 0.021326774	 0.289964
H	 0.6774538748	-0.6272429162	 0.7201449516	 0.076124
H	-2.180176712	-0.0531801083	 0.501120541	 0.085275
H	-1.9264585702	-0.9192732316	-2.3218436208	 0.109111
H	-1.5254126061	 0.7664386729	-1.8573481875	 0.127828
H	 0.8845370314	-0.1375039662	-2.1466663408	 0.088787
H	-1.2953557552	-2.3760906193	 1.13582263	 0.141024
H	-2.4338902417	-2.524406014	-0.1921490112	 0.142553
97.1158	243.7929	283.2583	308.9462	328.2661	408.4359	436.1668	450.3967	546.2569	576.8844	659.279	764.2685	858.8634	873.7954	882.623	913.0756	959.5824	995.9607	1002.8902	1069.054	1087.7371	1115.1602	1134.1215	1141.647	1166.7544	1206.3043	1230.9859	1257.6711	1289.1661	1295.6333	1328.3048	1347.5133	1365.1359	1423.9649	1458.016	1479.8017	1859.5614	3004.3122	3050.8853	3076.2815	3089.7631	3101.7685	3107.8438	3150.6676	3810.0989
OC1C2CC1OC(=O)C2	O[C@H]1[C@H]2C[C@@H]1OC(=O)C2	
InChI=1S/C6H8O3/c7-5-2-3-1-4(9-5)6(3)8/h3-4,6,8H,1-2H2	InChI=1S/C6H8O3/c7-5-2-3-1-4(9-5)6(3)8/h3-4,6,8H,1-2H2/t3-,4-,6-/m0/s1
