16
gdb 43296	3.10836	1.77174	1.36477	1.7385	75.15	-0.2197	-0.0648	0.1549	931.1686	0.126431	-400.655947	-400.649545	-400.648601	-400.686575	26.261	
O	-0.0292873621	 0.002836402	 0.3417369397	-0.315519
C	-0.0150419183	 1.1758758059	 0.0684614902	 0.262371
C	-1.2237270338	 2.0867981152	-0.074640197	-0.140638
C	-0.9166469956	 3.3134579353	-0.5415404705	-0.169013
C	 0.5349081234	 3.3224334133	-0.9456442849	 0.028229
N	 1.820458151	 3.9890021399	-0.31512949	-0.182381
C	 1.4080857358	 3.2451194225	 0.9528954552	-0.182186
C	 1.1166537249	 2.1697570989	-0.144181532	 0.148046
C	 2.4895258811	 2.6382779112	-0.7080646016	-0.255551
H	-2.2146969495	 1.7261829371	 0.175960955	 0.126038
H	-1.6317272353	 4.107071602	-0.7326759635	 0.12132
H	 0.6347978511	 3.2953974667	-2.0362374504	 0.098591
H	 2.2400683368	 3.0467722845	 1.6322025619	 0.110395
H	 0.5582626289	 3.6871154198	 1.4746193722	 0.115756
H	 2.6639529472	 2.5240344507	-1.7797388536	 0.116615
H	 3.3891342245	 2.4342323551	-0.1247410808	 0.117927
141.0834	261.0102	306.5149	367.2556	483.7969	558.1457	601.8109	623.9624	682.3116	743.616	751.8001	803.8484	848.5128	876.5263	914.7201	966.3647	989.0188	996.8601	1011.485	1044.2933	1066.1044	1084.4558	1113.0984	1134.5076	1160.8658	1191.7848	1202.0814	1261.0489	1279.0106	1337.8907	1354.388	1507.381	1543.0779	1592.3966	1827.4142	3045.1687	3068.4112	3073.5057	3141.7632	3145.2213	3180.8827	3213.5961
O=C1C=CC2N3CC12C3	O=C1C=C[C@H]2N3C[C@@]12C3	
InChI=1S/C7H7NO/c9-6-2-1-5-7(6)3-8(5)4-7/h1-2,5H,3-4H2	InChI=1S/C7H7NO/c9-6-2-1-5-7(6)3-8(5)4-7/h1-2,5H,3-4H2/t5-/m1/s1
