19
gdb 18262	4.22201	1.58051	1.31325	2.7073	71.51	-0.2369	0.0746	0.3115	991.1138	0.166863	-365.044612	-365.037003	-365.036059	-365.076546	28.988	
C	 0.0517543663	 1.4890137072	 0.127718911	-0.381488
C	 0.0100189307	-0.0369579582	 0.0133779471	-0.184776
C	 0.6577488717	-0.5592581236	-1.2648003342	 0.154745
O	 2.0270038726	-0.1400541126	-1.2925532277	-0.272228
C	 2.8267246462	-1.1028572066	-1.9675374202	-0.073913
C	 2.0793626115	-2.4143274178	-1.8464813134	-0.056305
N	 1.6616445303	-2.6928454032	-0.4562263882	-0.328547
C	 0.7116708333	-2.0710980132	-1.4045009502	-0.081925
H	 1.0842867809	 1.8464915	 0.1106165075	 0.136942
H	-0.4819862558	 1.9649826406	-0.7030828113	 0.106196
H	-0.4134786344	 1.8262943139	 1.0590071507	 0.106535
H	 0.525693082	-0.5004825375	 0.8604764528	 0.119705
H	-1.0304078582	-0.3868551561	 0.0351138297	 0.084598
H	 0.1238655205	-0.1547777313	-2.1442735841	 0.05891
H	 2.9538671121	-0.8481613849	-3.0327207349	 0.08728
H	 3.8115824683	-1.1100575849	-1.4887873269	 0.111967
H	 2.2913527654	-3.2314428883	-2.5276452987	 0.091875
H	 1.4402541706	-3.682184215	-0.3705713293	 0.231009
H	-0.1670607741	-2.6161279286	-1.7325106197	 0.089419
100.5269	131.4989	184.8722	233.8992	291.9392	375.6851	424.2819	507.8589	659.9324	749.1219	782.4453	806.3249	859.7714	878.7215	884.3153	943.8309	962.2165	995.8545	1021.7834	1056.9652	1082.0171	1104.7788	1111.3503	1147.4747	1156.5775	1172.3005	1233.6515	1254.5321	1289.3763	1316.0547	1342.4914	1362.4443	1388.6216	1408.4415	1410.0803	1434.694	1480.1214	1498.0113	1508.2199	1509.4072	2934.7078	2971.1451	3026.4062	3034.3888	3069.0741	3080.7021	3100.7777	3125.4021	3165.3533	3176.2017	3497.6156
CCC1OCC2NC12	CC[C@H]1OC[C@H]2N[C@@H]12	
InChI=1S/C6H11NO/c1-2-5-6-4(7-6)3-8-5/h4-7H,2-3H2,1H3	InChI=1S/C6H11NO/c1-2-5-6-4(7-6)3-8-5/h4-7H,2-3H2,1H3/t4-,5-,6-/m1/s1
