19
gdb 86756	2.89439	1.17145	0.94639	3.76	82.83	-0.2381	0.0006	0.2387	1286.9116	0.159491	-382.095162	-382.086027	-382.085083	-382.129092	33.885	
C	 0.1199043466	 1.6427843895	-0.0237099718	-0.382295
C	 0.0068969617	 0.1188603031	 0.0782105827	-0.053536
N	 0.6508224061	-0.5324740871	-1.078776963	-0.317992
C	 1.3288803256	-1.75706628	-0.6373961021	-0.145699
C	 1.4732962697	-1.5338898029	 0.8528316067	-0.190652
C	 0.7383351948	-0.4997082311	 1.254689368	 0.354503
C	 0.5779098902	 0.0115465398	 2.6498326537	-0.497924
C	 0.5615109769	-2.9930401461	-0.9222554804	 0.247956
N	-0.0545085811	-3.9398718567	-1.1707130138	-0.32956
H	 1.1703022919	 1.9451980398	-0.0621817137	 0.123882
H	-0.3693488514	 1.9990950128	-0.9353480426	 0.118411
H	-0.3638248789	 2.1328953673	 0.8274958997	 0.113298
H	-1.0651260389	-0.139546066	 0.1608803512	 0.082035
H	 0.0141595834	-0.6950822539	-1.8481558027	 0.234005
H	 2.3003650814	-1.8657251913	-1.1403906785	 0.126258
H	 2.0763444648	-2.1826187512	 1.4746976656	 0.11288
H	 1.142497306	-0.5929802431	 3.3636501045	 0.131539
H	 0.9175874898	 1.050072622	 2.7367464301	 0.137437
H	-0.4769265687	-0.0003347949	 2.9515538661	 0.135456
71.2115	105.0584	175.8348	201.9949	230.8763	263.5824	288.8107	353.4612	379.6556	489.4329	528.5708	573.0063	601.4377	695.8511	775.6386	807.7019	840.0476	920.8477	947.8843	980.0096	1018.545	1030.8534	1062.93	1099.8148	1116.9709	1136.669	1203.1069	1259.7214	1299.065	1337.4316	1350.2791	1371.1401	1403.1558	1415.6824	1441.6737	1479.2952	1484.3317	1496.1737	1499.2248	1727.2723	2340.9018	2923.6311	2998.6892	3026.3473	3037.4242	3076.7797	3107.4985	3119.4933	3120.8887	3220.4598	3572.1134
CC1NC(C=C1C)C#N	C[C@H]1N[C@@H](C=C1C)C#N	
InChI=1S/C7H10N2/c1-5-3-7(4-8)9-6(5)2/h3,6-7,9H,1-2H3	InChI=1S/C7H10N2/c1-5-3-7(4-8)9-6(5)2/h3,6-7,9H,1-2H3/t6-,7+/m1/s1
