18
gdb 90267	3.40591	1.55048	1.28099	2.1914	71.51	-0.2136	0.0516	0.2652	1003.6019	0.148467	-439.006106	-438.998604	-438.99766	-439.037972	29.8	
O	-0.2042893763	 1.4388384533	 0.104488678	-0.414241
C	-0.0310203182	 0.0461672329	 0.0254100784	 0.086225
C	 0.3502855831	-0.6729057182	 1.3708806453	-0.373296
C	-1.1008938536	-1.1264311783	 1.4830357837	 0.348296
N	-1.7079936218	-2.196301388	 2.2513235883	-0.411733
C	-2.9986463829	-1.4447446526	 2.3534534193	-0.192847
C	-2.2908910672	-0.1831319526	 1.7930993115	 0.052546
O	-2.5507158935	 0.0880564486	 0.4009695189	-0.289267
C	-1.4158190568	-0.7000510947	 0.0181896307	 0.044492
H	 0.6598127534	 1.8333209489	 0.2600459598	 0.286557
H	 0.6096598221	-0.237967654	-0.8203086673	 0.069014
H	 1.0404363005	-1.5070029078	 1.2049013	 0.1023
H	 0.7437505051	-0.0397925942	 2.1718708249	 0.098777
H	-1.7487420668	-3.1086832916	 1.8077587185	 0.21575
H	-3.802237899	-1.7850518828	 1.6912090201	 0.109206
H	-3.3729088345	-1.3841337811	 3.3809051432	 0.105828
H	-2.2497995291	 0.7185077852	 2.4054303863	 0.09065
H	-1.6108035148	-1.3585152629	-0.8324614095	 0.071742
85.8938	189.8662	240.7364	288.4033	329.6495	393.5162	422.7877	501.1765	591.4595	665.6757	703.4217	791.7596	832.2696	842.2959	880.8348	887.4815	934.3308	968.7617	986.607	1027.397	1048.26	1060.5686	1099.4253	1129.6297	1151.4109	1170.2798	1176.1891	1202.8838	1213.6985	1257.655	1277.2752	1293.5045	1319.0416	1331.2354	1350.9777	1377.2244	1412.8597	1470.3128	1501.4758	3001.1933	3028.721	3042.8206	3075.8111	3079.0963	3096.1233	3109.1074	3511.8402	3816.4212
OC1CC23NCC2OC13	O[C@H]1C[C@@]23NC[C@@H]2O[C@@H]13	
InChI=1S/C6H9NO2/c8-3-1-6-4(2-7-6)9-5(3)6/h3-5,7-8H,1-2H2	InChI=1S/C6H9NO2/c8-3-1-6-4(2-7-6)9-5(3)6/h3-5,7-8H,1-2H2/t3-,4-,5-,6+/m0/s1
