21
gdb 100952	2.65966	0.91985	0.80396	3.1365	71.59	-0.2447	0.0657	0.3104	1498.2622	0.179846	-498.471682	-498.460609	-498.459665	-498.508392	38.973	
C	 0.4461416702	 0.5926695341	 1.063325162	-0.240607
O	-0.2563858498	-0.1050138067	 0.0481278004	-0.275185
C	 0.504232462	-0.5075582293	-1.0853397691	 0.085532
C	 1.1469611463	-1.8766575624	-0.8764653931	-0.081424
O	 2.1453881548	-1.7657422529	 0.127791821	-0.423703
C	-0.4892304318	-0.5271146947	-2.2574285398	 0.095299
O	-1.6671058786	-1.2476365799	-1.8916950559	-0.452559
C	-0.8851113375	 0.8782272695	-2.7236727809	-0.072336
O	-1.9059049136	 0.8063774458	-3.6953603204	-0.427913
H	 1.2109781425	-0.0357626646	 1.5275124382	 0.13832
H	 0.9234587957	 1.4990776717	 0.662779481	 0.107875
H	-0.2952005513	 0.8885304025	 1.81006614	 0.122801
H	 1.2991738601	 0.2273294665	-1.2864452644	 0.081364
H	 0.3598049055	-2.5887730617	-0.5942540408	 0.106866
H	 1.5825987843	-2.2116109781	-1.8314497032	 0.088988
H	 2.4359911253	-2.6512908376	 0.3637491474	 0.290889
H	-0.05932155	-1.0695253375	-3.1069627496	 0.089118
H	-1.8779704412	-0.948929165	-0.9955686323	 0.295259
H	-1.1962873438	 1.4693937727	-1.8466889111	 0.086599
H	-0.026765074	 1.382644842	-3.1825263032	 0.099754
H	-2.5125650251	 0.1284263356	-3.3685996362	 0.285062
63.0119	77.9643	102.3725	111.2522	161.6519	198.7159	236.9359	240.1302	277.6565	321.9933	344.3379	376.87	455.3457	504.8849	530.0147	573.7305	727.5011	859.2466	873.9274	966.1252	1000.3867	1065.2184	1086.9421	1095.2751	1110.1182	1117.5684	1147.9448	1182.7263	1201.0846	1218.0376	1231.4602	1269.531	1296.3261	1305.9557	1345.5093	1381.8742	1394.7545	1436.7373	1445.6492	1456.0368	1481.5567	1483.5302	1509.8135	1511.5019	1519.2248	2972.9877	2974.39	2991.6388	2998.768	3036.9849	3050.7862	3066.4001	3086.1897	3126.0579	3747.3146	3760.1375	3833.0144
COC(CO)C(O)CO	CO[C@@H](CO)[C@@H](O)CO	
InChI=1S/C5H12O4/c1-9-5(3-7)4(8)2-6/h4-8H,2-3H2,1H3	InChI=1S/C5H12O4/c1-9-5(3-7)4(8)2-6/h4-8H,2-3H2,1H3/t4-,5-/m0/s1
