19
gdb 108922	3.31861	1.09591	0.9179	1.0504	77.17	-0.2366	0.0049	0.2415	1308.3581	0.158149	-423.018506	-423.009737	-423.008793	-423.051845	33.367	
C	-0.1235465768	 1.5483451955	 0.1057318805	-0.49207
C	 0.1321770629	 0.0741759422	-0.0243650849	 0.402985
O	-0.749563787	-0.7973228564	 0.7379534928	-0.302684
C	 0.649983844	-0.8167190149	 1.0308365474	-0.027344
C	 1.410964519	-1.9593337126	 0.3701280039	-0.347466
C	 1.2234157719	-1.6858420694	-1.1154211994	 0.264014
C	 1.7198803676	-2.6393778197	-2.1601544115	-0.157434
O	 1.3153041416	-2.3176615984	-3.4769386018	-0.406749
C	 0.5471313889	-0.5502909028	-1.3219187981	-0.249937
H	 0.749213542	 2.1242166257	-0.2197215701	 0.125579
H	-0.9743020001	 1.8503054027	-0.5152339771	 0.12798
H	-0.3518679965	 1.8085610749	 1.1420392395	 0.130492
H	 0.9250265693	-0.4697127662	 2.0240294271	 0.090931
H	 2.4715911943	-1.9475720439	 0.6547539716	 0.112052
H	 1.012415787	-2.9378294628	 0.6653615823	 0.122688
H	 2.8183721301	-2.6383276087	-2.1763038317	 0.124547
H	 1.42463307	-3.6669215623	-1.8836510567	 0.098381
H	 0.352085262	-2.3230764383	-3.4887248621	 0.284943
H	 0.3057803398	-0.1320353945	-2.2912036418	 0.099092
88.1294	152.2661	168.5444	189.4009	239.0405	327.8497	336.3637	398.8442	409.2258	474.458	521.5939	590.7884	683.4204	736.5067	806.1054	860.9114	900.8939	911.238	943.5719	963.9843	995.5138	1032.8168	1059.2274	1072.5368	1102.2353	1151.4023	1180.5448	1212.1622	1223.4224	1292.1083	1307.247	1323.7828	1386.9649	1408.8498	1420.476	1443.3718	1460.1007	1484.5296	1488.7386	1495.3825	1696.8285	2951.5519	3021.7937	3030.3555	3035.3359	3059.2488	3096.2766	3125.2269	3139.7801	3210.7294	3807.8814
CC12OC1CC(CO)=C2	C[C@]12O[C@H]1CC(=C2)CO	
InChI=1S/C7H10O2/c1-7-3-5(4-8)2-6(7)9-7/h3,6,8H,2,4H2,1H3	InChI=1S/C7H10O2/c1-7-3-5(4-8)2-6(7)9-7/h3,6,8H,2,4H2,1H3/t6-,7+/m0/s1
