18
gdb 107769	2.6881	1.67161	1.27158	2.72	75.46	-0.2438	-0.0118	0.232	1036.3656	0.147791	-401.917179	-401.909232	-401.908288	-401.949762	30.332	
C	 0.0736778909	 1.5325343322	-0.0031954765	-0.394549
C	 0.0471046226	-0.0031208345	 0.0145398975	-0.299519
C	-1.3573268652	-0.5333645743	 0.0344301192	 0.20106
C	-2.3335573667	-0.3767106339	 1.2255421928	-0.294762
C	-2.8978552701	-1.702086009	 0.7388473591	-0.025157
C	-2.9204901817	-1.7328380856	-0.7623455854	-0.190062
N	-1.6572527513	-2.0930828432	 0.0298724511	-0.182804
C	-2.2600314041	-0.4724635662	-1.2054336605	 0.448105
O	-2.240685987	 0.1731626631	-2.2160356752	-0.3457
H	 1.1037869336	 1.8983871759	-0.0273177485	 0.119633
H	-0.4480551553	 1.9156477605	-0.8840718627	 0.150289
H	-0.4076512377	 1.9501982093	 0.8875115608	 0.117716
H	 0.5571441358	-0.3947428752	-0.8730988718	 0.12012
H	 0.5884633994	-0.3870776659	 0.8874408874	 0.107908
H	-1.8184219442	-0.5065712187	 2.1817510275	 0.118901
H	-2.9732165707	 0.5098781994	 1.2624776207	 0.115433
H	-3.4738118149	-2.4316025351	 1.2983853714	 0.11064
H	-3.4710338933	-2.4696098588	-1.3327440371	 0.122746
79.1063	139.5064	193.2671	202.0242	280.8389	357.4852	398.3944	476.6059	624.361	678.4507	717.1821	758.0946	782.4621	805.1444	827.8831	837.2102	942.3479	965.7734	993.737	1002.078	1022.5318	1046.6771	1072.7066	1094.5127	1118.8629	1147.961	1208.9401	1238.8483	1283.4675	1313.6972	1327.8621	1348.912	1375.6856	1409.5609	1486.8006	1498.7357	1499.35	1513.0086	1881.2158	3032.7064	3041.127	3050.4715	3070.2506	3104.978	3109.0467	3127.6459	3172.8474	3212.394
CCC12CC3C(N13)C2=O	CC[C@]12C[C@H]3[C@H](N13)C2=O	
InChI=1S/C7H9NO/c1-2-7-3-4-5(6(7)9)8(4)7/h4-5H,2-3H2,1H3	InChI=1S/C7H9NO/c1-2-7-3-4-5(6(7)9)8(4)7/h4-5H,2-3H2,1H3/t4-,5-,7+,8?/m0/s1
