21
gdb 114632	2.13979	1.41575	1.00843	1.884	79.32	-0.2415	0.078	0.3195	1265.7477	0.18135	-424.181326	-424.171695	-424.170751	-424.21632	35.266	
C	 0.1850756145	 1.373684265	 0.1265473882	-0.236604
O	-0.2649997877	 0.0926702868	-0.2525342915	-0.245972
C	 0.5527644677	-0.5220336841	-1.2159115029	 0.078806
C	 1.9080973965	-1.1671893378	-0.7471073015	-0.268359
C	 1.3766919658	-2.5254628017	-1.2176418202	-0.117772
C	 0.1021409194	-2.8462974309	-0.4920879215	-0.328602
C	 0.0516357721	-1.8919169645	-1.663521911	 0.302027
C	-0.7959884073	-2.1315970503	-2.8760901076	-0.16776
O	-2.0959135557	-1.5708778889	-2.7474950052	-0.414854
H	 1.1855619151	 1.3418608753	 0.584172697	 0.106242
H	 0.2219883579	 2.0612859839	-0.7329847872	 0.106415
H	-0.523829932	 1.7647775979	 0.8603106566	 0.126654
H	 0.7067666402	 0.1537138687	-2.070483208	 0.068819
H	 2.7679544913	-0.802777514	-1.313360678	 0.102562
H	 2.124631624	-1.091049456	 0.3233349701	 0.099761
H	 1.9534802946	-3.2861818415	-1.7292491289	 0.09048
H	-0.3134107289	-3.8295744582	-0.6918536847	 0.110548
H	-0.0603172753	-2.4815738007	 0.5180118329	 0.119926
H	-0.3562752115	-1.6509591374	-3.7585179126	 0.101986
H	-0.8403653847	-3.2140327344	-3.0851469423	 0.08034
H	-2.402661256	-1.7641102573	-1.8552954019	 0.285356
51.6614	90.7374	123.6733	155.3103	201.2017	256.0155	277.813	331.9946	357.7245	415.8558	471.0157	509.895	675.9754	750.3651	824.2176	857.5159	907.766	943.5973	952.8399	995.2252	1022.9567	1026.1142	1039.4607	1063.5012	1081.2648	1106.9757	1142.2849	1175.8276	1184.5585	1199.8602	1208.1232	1242.4251	1258.6496	1265.0989	1310.5614	1354.2618	1379.4737	1406.9612	1437.812	1474.5377	1482.1006	1487.9869	1498.4325	1508.9067	1511.6743	2958.8624	2973.7786	2989.966	3021.4446	3046.9649	3048.5946	3109.7488	3114.2591	3116.696	3186.6394	3204.0643	3812.0727
COC1CC2CC12CO	CO[C@H]1C[C@H]2C[C@@]12CO	
InChI=1S/C7H12O2/c1-9-6-2-5-3-7(5,6)4-8/h5-6,8H,2-4H2,1H3	InChI=1S/C7H12O2/c1-9-6-2-5-3-7(5,6)4-8/h5-6,8H,2-4H2,1H3/t5-,6-,7-/m0/s1
