18
gdb 104923	2.09936	1.57135	1.07385	3.7462	74.03	-0.2633	0.0193	0.2826	1168.578	0.14409	-439.071313	-439.061336	-439.060392	-439.105766	36.176	
C	 0.216975793	 1.2988460325	 0.1893794232	-0.260882
O	-0.1976547997	-0.0094375706	-0.1897841101	-0.277213
C	 0.5594771676	-0.5701554529	-1.2109545702	 0.20504
C	 1.919527648	-1.1799176285	-0.8640744262	-0.375079
C	 0.7684420592	-2.0876213147	-1.1673454339	 0.333697
C	 0.0871749173	-2.8871364506	-0.0825796655	-0.450843
O	 0.8953978872	-2.7273796346	-2.4001505537	-0.443291
C	 0.3849940904	 0.047270701	-2.508196576	 0.265077
N	 0.2072314968	 0.5665692047	-3.5265587883	-0.357967
H	 1.2624687408	 1.3043334921	 0.5250406364	 0.116862
H	 0.1049360883	 2.0075510076	-0.6405414695	 0.138825
H	-0.4311764027	 1.601700664	 1.013430053	 0.13746
H	 2.7085193295	-1.1155009055	-1.6035393071	 0.148049
H	 2.2240067382	-1.0711159467	 0.170753416	 0.133295
H	-0.0041734466	-2.308039149	 0.8370119777	 0.139379
H	-0.921621288	-3.1777026283	-0.3973886695	 0.121124
H	 0.6591903965	-3.7982201633	 0.1163459658	 0.133448
H	 0.0145540042	-2.8670659772	-2.7679621822	 0.293021
102.5308	120.4629	143.2484	174.4363	181.6375	217.8953	267.2184	305.9787	342.2217	391.9317	409.7034	415.5076	487.7317	581.1807	619.1841	668.4046	782.704	903.2885	916.3081	926.5413	988.4221	1047.6697	1059.5376	1088.3504	1132.0822	1183.7151	1212.1459	1234.4258	1272.9337	1308.1801	1394.7824	1415.7098	1460.1766	1477.7688	1487.6867	1490.2076	1499.9327	1507.2674	2344.6699	3007.633	3039.0065	3070.3935	3103.661	3136.4891	3144.1539	3149.5987	3244.3656	3789.1105
COC1(CC1(C)O)C#N	CO[C@]1(C[C@]1(C)O)C#N	
InChI=1S/C6H9NO2/c1-5(8)3-6(5,4-7)9-2/h8H,3H2,1-2H3	InChI=1S/C6H9NO2/c1-5(8)3-6(5,4-7)9-2/h8H,3H2,1-2H3/t5-,6+/m0/s1
