21
gdb 115078	2.75153	1.27892	0.97318	2.5273	83.85	-0.2357	-0.0121	0.2236	1281.3782	0.182828	-387.134497	-387.125481	-387.124537	-387.168391	34.061	
C	 0.0911680545	 1.5669103642	 0.1541571158	-0.395788
C	-0.0362328019	 0.0484943634	-0.0035666393	-0.179277
C	 0.5943350308	-0.4981131984	-1.2882677284	-0.079276
C	 0.7832829835	-2.0352186299	-1.2554397659	-0.271592
C	 1.2570617749	-2.590707755	-2.571532126	-0.066407
C	 1.1268150187	-1.9437908223	-3.728241556	-0.050395
C	 0.4467617621	-0.6040916067	-3.8540517517	-0.352563
C	-0.1874021937	-0.1368003805	-2.5479651764	 0.389002
O	-1.2401656693	 0.4589414657	-2.5295130173	-0.317871
H	 1.1420781199	 1.879094239	 0.1525360718	 0.104947
H	-0.4225839578	 2.0867670852	-0.6577813632	 0.139673
H	-0.3496729835	 1.8989730571	 1.0991870701	 0.111128
H	 0.4365995064	-0.4496375344	 0.8521738459	 0.086793
H	-1.0951884562	-0.2324868445	 0.0121542939	 0.111008
H	 1.5990260031	-0.0668253333	-1.420713845	 0.090418
H	 1.4966965516	-2.2865810614	-0.4612222688	 0.110928
H	-0.162604562	-2.5150634232	-0.9621492993	 0.12068
H	 1.7258462898	-3.5713829414	-2.5530491083	 0.091831
H	 1.4964844935	-2.3892202362	-4.6483971394	 0.093765
H	 1.1697740796	 0.1627863597	-4.1742868683	 0.131287
H	-0.333652314	-0.6169949771	-4.6229088542	 0.13171
85.0918	93.5195	125.8719	192.5368	225.6883	288.8969	374.3697	389.7443	418.1163	484.3881	547.2691	609.0947	680.109	705.7817	781.7959	819.1096	907.061	927.2165	945.7825	965.9298	997.8931	1006.8712	1039.0377	1071.3023	1100.0916	1129.3806	1153.0481	1172.7421	1209.9066	1229.4922	1285.8252	1294.6261	1330.2416	1341.1924	1379.3493	1395.6685	1407.0599	1411.1124	1448.9853	1476.3257	1485.3853	1497.7456	1512.3125	1727.7904	1810.369	2986.3118	2994.3111	3002.3479	3026.4993	3033.4785	3046.1707	3066.8952	3070.7048	3097.7506	3128.3735	3147.7121	3170.7209
CCC1CC=CCC1=O	CC[C@H]1CC=CCC1=O	
InChI=1S/C8H12O/c1-2-7-5-3-4-6-8(7)9/h3-4,7H,2,5-6H2,1H3	InChI=1S/C8H12O/c1-2-7-5-3-4-6-8(7)9/h3-4,7H,2,5-6H2,1H3/t7-/m0/s1
