19
gdb 41183	2.99666	1.7531	1.5616	2.1114	80.45	-0.2259	0.0156	0.2415	936.9947	0.161464	-385.783424	-385.776767	-385.775822	-385.813897	28.752	
C	 0.0687704423	 1.611600055	-0.2353634434	-0.181191
O	 1.5074272052	 1.4476147354	 0.1017713881	-0.362219
C	 1.0811768059	 0.3056418335	 0.9380006694	 0.378869
C	 1.1912118021	-1.2547397607	 1.0809631724	-0.323545
C	-0.426214284	-1.1499250522	 1.0068458104	-0.10397
C	-1.0300482625	-0.8168066118	 2.3722768519	-0.249214
C	-0.2640684605	 0.3193899379	 3.0005301602	-0.064588
C	 0.7470151262	 0.845214885	 2.3130425819	-0.117189
C	-0.1075850527	 0.0904452726	 0.0726987533	-0.005344
H	-0.409828128	 2.3100348956	 0.4567756566	 0.115178
H	-0.0627954612	 1.9274294865	-1.2726789741	 0.11157
H	 1.5839884011	-1.7659014629	 0.2008932517	 0.114662
H	 1.629104415	-1.6555908817	 1.9987504547	 0.103166
H	-0.9362577219	-1.9882282626	 0.5287072107	 0.078536
H	-2.093545291	-0.5645783115	 2.2626548162	 0.111896
H	-1.0005453323	-1.7036681984	 3.021613824	 0.108979
H	-0.5391958273	 0.6661020003	 3.9921851622	 0.090569
H	 1.3609350995	 1.6645411033	 2.6735930855	 0.099446
H	 0.2592651144	-0.3757451132	-0.8476602218	 0.094389
210.2122	254.9797	348.1871	392.0973	436.9465	464.0906	523.8834	548.4563	634.3399	693.6392	731.9532	747.0803	829.4008	843.6176	887.1702	916.6439	923.3125	957.2441	984.1716	1002.5208	1007.7307	1032.7446	1080.57	1089.3308	1118.7644	1128.0671	1143.6558	1172.6781	1196.5529	1228.4958	1238.0395	1246.4074	1287.0526	1308.7798	1358.3673	1394.0845	1453.1544	1472.8388	1489.6462	1503.0143	1701.2659	3004.0196	3030.3427	3034.6821	3054.0288	3062.9093	3089.8176	3123.5719	3139.4457	3164.4529	3190.0019
C1OC23CC(CC=C2)C13	C1O[C@@]23C[C@@H](CC=C2)[C@@H]13	
InChI=1S/C8H10O/c1-2-6-4-8(3-1)7(6)5-9-8/h1,3,6-7H,2,4-5H2	InChI=1S/C8H10O/c1-2-6-4-8(3-1)7(6)5-9-8/h1,3,6-7H,2,4-5H2/t6-,7-,8-/m1/s1
