19
gdb 34067	3.8074	1.37188	1.37178	0.8727	84.04	-0.2539	0.0595	0.3134	1019.0681	0.16177	-348.738239	-348.731215	-348.730271	-348.769221	29.935	
C	 0.027844496	-1.1471467885	-0.0111851133	-0.334753
C	 0.017325482	 0.0555392322	-0.0003665245	 0.055831
C	 0.0038146909	 1.499713845	 0.013271243	 0.18916
C	-0.6850427829	 2.1871874421	 1.2313240412	-0.247779
C	-0.4465543712	 3.6266474361	 0.7973263248	-0.070048
C	 0.8595285286	 3.6464993102	 0.0247083414	-0.070175
C	 1.3871202934	 2.2187058125	 0.0056439669	-0.247752
C	-0.462781308	 3.6411157964	-0.7201361885	-0.069938
C	-0.7112139177	 2.2102126235	-1.1762076983	-0.247869
H	 0.0368283676	-2.2086777656	-0.0205642194	 0.175421
H	-1.7441631463	 1.9215206633	 1.3019918551	 0.10303
H	-0.1951978587	 1.9277047114	 2.1747254509	 0.103045
H	-0.7793532418	 4.4738814029	 1.3821537018	 0.08323
H	 1.5131380437	 4.5086776054	 0.0258473205	 0.083216
H	 1.9834573349	 1.9611686976	 0.8862050544	 0.103051
H	 1.9652710957	 1.977888651	-0.8915820411	 0.103022
H	-0.8078405279	 4.4992595293	-1.2814717419	 0.083228
H	-0.241667729	 1.9690092703	-2.1346966065	 0.103008
H	-1.7716586993	 1.945803875	-1.2293353766	 0.103072
150.2239	151.2898	401.3771	406.5068	435.8678	515.7502	522.6682	523.5964	627.2273	627.3152	651.8457	652.1197	783.8874	814.3181	815.4577	900.5897	901.6773	955.4725	957.0808	969.9341	971.2612	1020.8937	1021.3235	1057.2996	1075.4977	1109.3116	1110.1173	1145.5998	1150.7114	1218.9638	1219.5523	1268.1188	1268.5626	1300.9659	1301.7092	1324.0114	1394.6631	1487.8713	1489.7636	1516.4301	2238.1104	3048.8426	3049.241	3055.8042	3094.2936	3099.3466	3099.6101	3196.1034	3196.5312	3210.3844	3503.8272
C#CC12CC3C(C1)C3C2	C#C[C@@]12C[C@H]3[C@@H](C1)[C@H]3C2	
InChI=1S/C9H10/c1-2-9-3-6-7(4-9)8(6)5-9/h1,6-8H,3-5H2	InChI=1S/C9H10/c1-2-9-3-6-7(4-9)8(6)5-9/h1,6-8H,3-5H2/t6-,7+,8-,9+
