21
gdb 104395	2.26948	1.42377	1.09513	2.5969	73.86	-0.2439	0.0574	0.3013	1194.7118	0.182076	-461.36239	-461.352842	-461.351898	-461.39674	36.091	
C	-0.1819018616	 1.5542741355	 0.0830190892	-0.393484
C	 0.0819173473	 0.0518497564	 0.0112695658	-0.059867
C	 0.982553325	-0.3800706513	-1.162778739	-0.092455
O	 1.622544306	-1.5723027853	-0.7350421356	-0.245795
C	 1.9974299137	-1.3266854033	 0.6089392441	-0.139134
C	 0.8167155291	-0.5467640083	 1.2525105386	 0.388653
O	 1.2745610149	 0.4769882146	 2.1198193815	-0.47914
C	-0.1100973482	-1.4779259462	 2.0333340005	-0.146121
O	 0.6081950764	-1.8935699428	 3.1930661071	-0.438161
H	 0.7507231592	 2.1132748953	 0.1916368262	 0.131475
H	-0.6870177966	 1.8957225498	-0.8269356038	 0.105601
H	-0.8148135394	 1.8061975399	 0.9378097726	 0.118835
H	-0.8774224248	-0.4701060946	-0.0942804539	 0.071565
H	 0.4348512683	-0.5983598433	-2.0830653015	 0.104798
H	 1.7281709546	 0.4044413625	-1.3787623814	 0.087246
H	 2.2089109996	-2.2838339583	 1.0909203369	 0.111927
H	 2.8922907856	-0.6876730997	 0.6657894378	 0.091211
H	 1.4303369795	 0.0452414153	 2.9699909377	 0.28688
H	-1.0240313727	-0.9332670105	 2.3121160487	 0.095189
H	-0.3897926297	-2.3352248714	 1.4040195518	 0.104345
H	 0.0001485038	-2.3242978544	 3.7997136365	 0.296433
44.3383	137.6142	196.6124	220.4015	232.9429	250.7415	282.3585	331.2065	365.4569	418.968	448.1878	454.5079	547.0693	617.8525	640.6225	770.2942	894.0297	930.8007	936.9086	962.8685	986.015	1015.6328	1056.4522	1099.1319	1109.166	1121.9768	1149.7678	1168.7491	1195.0904	1219.8372	1261.1546	1276.5988	1285.1444	1327.5837	1344.6216	1362.0301	1382.4012	1411.2963	1428.0458	1441.0631	1492.5297	1495.7283	1505.1388	1510.0082	1520.5091	2958.3189	2986.2112	2987.8502	3019.9938	3031.2442	3041.7205	3094.2005	3106.3127	3109.0351	3127.0839	3765.4796	3845.42
CC1COCC1(O)CO	C[C@H]1COC[C@]1(O)CO	
InChI=1S/C6H12O3/c1-5-2-9-4-6(5,8)3-7/h5,7-8H,2-4H2,1H3	InChI=1S/C6H12O3/c1-5-2-9-4-6(5,8)3-7/h5,7-8H,2-4H2,1H3/t5-,6+/m0/s1
