17
gdb 13963	5.07348	1.24496	1.13546	2.9027	69.09	-0.2418	-0.0218	0.22	1061.0675	0.141956	-363.830246	-363.822588	-363.821644	-363.863171	27.925	
O	-0.3749333775	 0.1548997766	 0.2116665273	-0.238526
C	-0.0093487674	 1.3012600327	 0.1724288175	 0.156133
C	 1.3993746483	 1.7510936133	-0.1672439072	-0.369347
C	 1.4015270006	 2.7531447876	-1.291932706	 0.331445
C	 1.220896155	 2.4427490305	-2.7904751608	-0.291047
C	 2.1875948423	 3.6289808007	-3.1207912928	-0.23407
C	 2.3238130015	 3.8982383061	-1.6160101598	-0.09042
N	 1.0212861136	 4.1345739979	-1.0000484084	-0.354395
H	-0.7093752319	 2.1398436829	 0.3879203797	 0.086424
H	 1.8138556842	 2.2358340463	 0.7263364435	 0.131608
H	 2.0028076426	 0.8707783115	-0.4069917463	 0.117856
H	 1.6395057363	 1.4765392875	-3.0822005699	 0.115947
H	 0.1950125393	 2.5045827908	-3.1687413471	 0.101316
H	 3.1151500447	 3.2889020387	-3.5867707825	 0.112746
H	 1.7826228791	 4.4568439311	-3.7122994162	 0.101918
H	 3.2036089544	 4.2588492855	-1.0944920422	 0.097165
H	 0.3386637947	 4.5100840702	-1.6566916089	 0.225246
50.8249	71.6404	164.5325	263.2111	311.2541	389.2008	471.289	482.1889	662.2494	753.6672	782.2033	827.8175	835.6347	924.6394	931.8464	953.291	983.8851	1029.4916	1049.5309	1081.5405	1107.8947	1129.0315	1184.6992	1188.64	1223.1451	1234.432	1256.489	1277.8836	1304.4978	1316.903	1420.5912	1427.1415	1448.2766	1479.9693	1501.2604	1833.1168	2881.457	3030.8185	3044.1045	3052.2648	3099.0466	3102.0413	3116.0833	3174.9734	3456.8777
O=CCC12CCC1N2	O=CC[C@]12CC[C@H]1N2	
InChI=1S/C6H9NO/c8-4-3-6-2-1-5(6)7-6/h4-5,7H,1-3H2	InChI=1S/C6H9NO/c8-4-3-6-2-1-5(6)7-6/h4-5,7H,1-3H2/t5-,6-/m1/s1
