21
gdb 120043	2.8218	0.95037	0.86761	3.1748	74.75	-0.2473	0.055	0.3024	1424.4705	0.181607	-461.337212	-461.327367	-461.326423	-461.372335	36.691	
O	 0.5203707374	 1.2322391459	-0.428947668	-0.420015
C	 0.2416606048	-0.1057943344	-0.0449512143	-0.0587
C	-1.2089496157	-0.509366564	-0.3165231224	-0.221918
C	-1.4962582898	-1.9668130853	 0.0130731409	-0.023396
C	-1.4191592651	-2.4764752284	 1.4802206642	 0.082522
O	-1.8275421716	-1.4124346822	 2.3428945869	-0.43726
C	-2.5906891934	-3.4408714561	 1.1577994269	-0.282418
C	-2.9672267175	-2.5032056343	-0.0276974606	 0.12537
O	-3.9476425333	-1.542394577	 0.2950508482	-0.436772
H	-0.0426710075	 1.8079875108	 0.0983465067	 0.280018
H	 0.9254172993	-0.7271873877	-0.6350002365	 0.103156
H	 0.4813312028	-0.2737146608	 1.0165361523	 0.094227
H	-1.8752567779	 0.1373015911	 0.2648273684	 0.093837
H	-1.4367289799	-0.32387855	-1.3729130269	 0.106137
H	-0.8715049734	-2.6248274276	-0.6028269483	 0.077024
H	-0.472731779	-2.9097914729	 1.8255585936	 0.067674
H	-1.9732854403	-1.7812558139	 3.2205675457	 0.289076
H	-2.2359680661	-4.4192334193	 0.8209608012	 0.104097
H	-3.3521395886	-3.5763256127	 1.9312576915	 0.094511
H	-3.2946428258	-2.9742049238	-0.9575036971	 0.080483
H	-3.6713176894	-1.1373489771	 1.1278880876	 0.282349
62.4306	87.2651	110.3584	145.5133	250.5284	267.6891	301.0754	335.6655	362.3909	383.6267	444.3597	498.9711	541.7618	613.6313	750.0269	781.517	842.6002	868.5013	885.9903	904.5094	985.4284	1009.5415	1022.4447	1058.3904	1076.668	1117.6079	1128.9662	1143.6391	1176.6815	1188.508	1217.4898	1242.2714	1261.4632	1297.6504	1303.7514	1324.4075	1333.3685	1376.7821	1403.7734	1408.694	1423.6784	1450.6615	1469.4804	1482.6287	1512.6246	2985.2364	3022.2201	3037.5891	3039.4708	3054.4453	3054.6052	3083.7024	3086.3271	3112.5948	3760.4211	3809.9884	3814.5452
OCCC1C(O)CC1O	OCC[C@H]1[C@@H](O)C[C@H]1O	
InChI=1S/C6H12O3/c7-2-1-4-5(8)3-6(4)9/h4-9H,1-3H2	InChI=1S/C6H12O3/c7-2-1-4-5(8)3-6(4)9/h4-9H,1-3H2/t4-,5-,6+
