17
gdb 131850	5.65881	0.76332	0.69466	6.9807	72.14	-0.2094	0.0201	0.2295	1558.5524	0.137536	-451.305799	-451.297119	-451.296175	-451.340145	31.193	
O	-0.0460494042	 1.4136536904	-0.2209228558	-0.42227
C	 0.0047026963	 0.0144484307	 0.0358332529	-0.096596
C	-1.4308162545	-0.4829545106	 0.063661078	-0.127102
N	-2.0631832054	-0.1866623964	-1.2150207751	-0.413152
C	-3.3845576421	-0.5520049897	-1.3724381444	 0.424553
C	-4.2395422755	-1.3532925408	-0.6390485859	-0.147304
N	-5.4331853947	-1.4327767624	-1.2965160667	-0.184545
N	-5.3850549403	-0.7341422548	-2.384355984	-0.12726
N	-4.133660249	-0.192752081	-2.4446026509	-0.275053
H	 0.8468326779	 1.7293026469	-0.3853547557	 0.296963
H	 0.5599862515	-0.5124779924	-0.7532228043	 0.10533
H	 0.4840551375	-0.2011782628	 1.0015060302	 0.10142
H	-1.4359258962	-1.5663227863	 0.225160834	 0.122937
H	-1.9636475135	-0.0159399802	 0.907078981	 0.114377
H	-1.8457333999	 0.7590099782	-1.5052813017	 0.247812
H	-4.0698918387	-1.8593013535	 0.2960474651	 0.109564
H	-3.8728174093	 0.3697253049	-3.2377493666	 0.270326
57.835	69.4674	126.5354	183.953	269.2406	293.7751	320.9354	425.3947	487.8655	494.0625	629.1148	701.1431	720.916	777.0448	786.1761	899.2882	927.7929	993.234	1022.5738	1065.588	1092.2613	1100.4206	1139.0956	1147.5069	1205.7138	1248.9694	1270.3028	1301.3947	1354.739	1365.6019	1403.4371	1429.5173	1459.9191	1504.3788	1512.8168	1518.7143	1642.1092	2981.822	2993.2991	3034.2587	3071.2361	3279.5929	3558.3295	3662.9554	3841.1257
OCCNC1=CN=NN1	OCCNc1cnn[nH]1	
InChI=1S/C4H8N4O/c9-2-1-5-4-3-6-8-7-4/h3,9H,1-2H2,(H2,5,6,7,8)	InChI=1S/C4H8N4O/c9-2-1-5-4-3-6-8-7-4/h3,9H,1-2H2,(H2,5,6,7,8)
