16
gdb 130945	6.40801	0.70289	0.66628	4.9167	71.62	-0.2464	-0.0191	0.2273	1601.0217	0.125324	-434.103898	-434.095553	-434.094609	-434.138731	28.835	
O	-0.4829198102	 0.5043578913	 0.6390504697	-0.237013
C	 0.0822910093	 0.9995906539	-0.3009783194	 0.158777
C	 1.3666142975	 1.7912045827	-0.2272472162	-0.270295
C	 1.2528576937	 3.14624582	-0.9551278994	-0.317483
C	 2.5749531343	 3.8325194931	-1.0789238797	 0.356186
N	 2.8030781576	 5.0419304121	-0.5880297669	-0.264223
N	 4.0986627986	 5.2502879502	-0.9286933288	-0.178156
C	 4.5847571663	 4.1833869078	-1.5909569206	 0.018743
N	 3.6497640062	 3.2628150877	-1.706628146	-0.301652
H	-0.3266525712	 0.8930330451	-1.3348094883	 0.06954
H	 1.649166567	 1.9167066438	 0.8212546217	 0.126744
H	 2.1491121367	 1.2020816878	-0.7251664122	 0.146215
H	 0.8449323837	 2.9783476392	-1.9602332759	 0.124442
H	 0.5628042528	 3.8111343097	-0.4291311315	 0.134692
H	 4.5521201712	 6.1126828684	-0.6756082167	 0.28455
H	 5.5976503765	 4.1247287873	-1.9604270097	 0.148933
43.234	70.4681	75.1929	130.36	282.2915	323.1134	377.0462	519.3832	542.7903	681.7081	711.1048	753.5316	803.0818	855.6599	859.6903	990.0674	1002.3964	1009.4054	1070.6902	1088.2337	1104.7611	1164.4125	1196.9323	1262.9164	1290.5463	1300.6715	1357.4697	1366.0584	1431.3698	1461.6447	1471.8605	1477.7802	1494.1564	1564.2931	1838.5853	2842.3932	3027.2433	3031.9316	3097.9594	3113.8929	3257.6397	3666.7641
O=CCCC1=NNC=N1	O=CCCc1n[nH]cn1	
InChI=1S/C5H7N3O/c9-3-1-2-5-6-4-7-8-5/h3-4H,1-2H2,(H,6,7,8)	InChI=1S/C5H7N3O/c9-3-1-2-5-6-4-7-8-5/h3-4H,1-2H2,(H,6,7,8)
