17
gdb 65942	2.25866	1.50091	1.40919	4.1161	72.77	-0.2596	0.0144	0.274	1040.7998	0.135088	-417.972277	-417.963681	-417.962737	-418.005418	31.963	
C	-0.3510933513	 1.5478833854	 0.1091583728	-0.437485
C	 0.0437525891	 0.0746914277	 0.0597801268	 0.056495
N	 1.3047969343	-0.2049750657	-0.6920387815	-0.347599
C	 1.8120190568	-1.1236078866	 0.3648090322	-0.258144
C	 0.7455580076	-0.5542320689	 1.2960729335	 0.415313
C	 0.8291159993	-0.042719482	 2.6609311703	-0.257749
O	 0.1033787577	-1.2425827353	 2.3296707281	-0.252934
C	-1.0838000435	-0.758073878	-0.3876397636	 0.26338
N	-1.9500151156	-1.4137742709	-0.7837811377	-0.336219
H	 0.506056511	 2.1382033855	 0.4399620424	 0.132007
H	-0.6519833801	 1.8958906857	-0.883015328	 0.140081
H	-1.190457681	 1.703653183	 0.7936354696	 0.137451
H	 1.1640363607	-0.6315991993	-1.601309041	 0.238939
H	 1.6468341986	-2.1907721882	 0.1703492336	 0.12844
H	 2.860435769	-0.9595906509	 0.6300104724	 0.120754
H	 1.7414509995	-0.1944712787	 3.2351987158	 0.128741
H	 0.2133264579	 0.8001959472	 2.9681226343	 0.128528
82.8032	130.2746	197.6674	214.1794	225.6358	291.7782	327.6187	390.743	452.831	508.1148	555.4623	631.0202	653.0573	728.1129	870.8445	884.0273	913.1904	930.3837	965.6675	1007.0104	1061.8341	1121.1717	1129.7057	1147.4823	1167.7075	1172.5866	1195.8038	1214.5751	1301.466	1374.8391	1404.6558	1445.2312	1482.98	1488.3482	1511.1545	1541.7203	2344.8219	3026.7	3045.6405	3085.8674	3091.916	3119.8283	3136.5798	3182.6752	3541.1247
CC1(NCC11CO1)C#N	C[C@]1(NC[C@]21CO2)C#N	
InChI=1S/C6H8N2O/c1-5(2-7)6(3-8-5)4-9-6/h8H,3-4H2,1H3	InChI=1S/C6H8N2O/c1-5(2-7)6(3-8-5)4-9-6/h8H,3-4H2,1H3/t5-,6+/m0/s1
