23
gdb 60258	2.95416	0.97949	0.81562	3.453	82.25	-0.2454	0.0698	0.3153	1506.4869	0.204898	-425.417354	-425.407314	-425.40637	-425.452678	37.389	
C	 0.1027038762	 1.5086015185	 0.1984057044	-0.383508
C	 0.0054913266	-0.0107973965	 0.1206039555	 0.1557
O	 0.5806151032	-0.5269119513	 1.3098320926	-0.450659
C	-1.4480232593	-0.4923681682	-0.0443626648	-0.230393
C	-1.536491101	-1.9811102391	-0.3532764103	 0.117825
O	-0.8868903145	-2.8006615142	 0.6671076671	-0.299142
C	-2.1430801249	-3.3979777295	 1.057230127	-0.083895
C	-2.8801914298	-2.7359236468	-0.1270816079	-0.042315
C	-4.1647410372	-1.970289911	 0.1535785559	-0.414318
H	 1.1393242701	 1.8041298045	 0.3817925979	 0.123281
H	-0.2340802606	 1.9746761895	-0.732818847	 0.102889
H	-0.5084637425	 1.8884936342	 1.0236759546	 0.115717
H	 0.5810327436	-0.3516392876	-0.7604936619	 0.055087
H	 0.3248337524	-1.4589829923	 1.3649544067	 0.289826
H	-1.9869959996	-0.2529761735	 0.8795317549	 0.100994
H	-1.9319965153	 0.0565198672	-0.8627154496	 0.09513
H	-1.0705432322	-2.178130574	-1.327661982	 0.080674
H	-2.0863341378	-4.4916948858	 1.0636372647	 0.108691
H	-2.4690700005	-3.0506433475	 2.0467927328	 0.103817
H	-3.0508013165	-3.4536589488	-0.9342888343	 0.086334
H	-4.0478035074	-1.2606643755	 0.9777515427	 0.125476
H	-4.4972016167	-1.4117196394	-0.7275761864	 0.122512
H	-4.9685701262	-2.6630170528	 0.4250673474	 0.120277
54.8563	83.335	123.7787	162.7657	218.5279	236.7919	258.7996	308.3151	354.0758	394.1927	472.3382	499.079	523.5571	559.495	713.2943	831.4063	849.4847	879.8367	914.989	924.4621	951.097	964.1805	1010.6313	1027.518	1075.5131	1082.3042	1134.9058	1155.7512	1162.9213	1165.0587	1190.6784	1238.8815	1264.3759	1290.3526	1307.3299	1336.2206	1358.8061	1380.1343	1390.2609	1398.6225	1407.7207	1419.9193	1460.4737	1476.0132	1489.2346	1498.0797	1501.1739	1502.5819	1526.2893	2919.0022	3009.9037	3016.1865	3024.3886	3036.1077	3038.4396	3058.2131	3074.6789	3076.4342	3098.0985	3110.1854	3113.7931	3119.1873	3714.8986
CC(O)CC1OCC1C	C[C@@H](O)C[C@H]1OC[C@H]1C	
InChI=1S/C7H14O2/c1-5-4-9-7(5)3-6(2)8/h5-8H,3-4H2,1-2H3	InChI=1S/C7H14O2/c1-5-4-9-7(5)3-6(2)8/h5-8H,3-4H2,1-2H3/t5-,6-,7-/m1/s1
