23
gdb 39291	2.44124	1.93771	1.7156	0.0414	86.68	-0.269	0.0777	0.3466	968.1984	0.211831	-351.174331	-351.167613	-351.166669	-351.204905	29.771	
C	-0.0228053019	 1.4955923308	 0.1868564174	-0.244396
C	 1.5230126634	 1.4084056181	 0.020752558	-0.022474
C	 2.1684313169	 1.0841640634	 1.3741365357	-0.206889
C	 1.2771160858	 0.0903062397	 2.1591584443	-0.208008
C	 0.4984749956	-0.8502157356	 1.2126463868	-0.010539
C	 1.4204160831	-1.9020169155	 0.5518037345	-0.19905
C	 2.1461010056	-1.1476342385	-0.5966488561	-0.246609
C	 1.2810955507	 0.1021642453	-0.8228632879	 0.027612
C	-0.0337381997	-0.04134469	-0.0053521359	-0.020933
H	-0.4243955833	 1.9245113273	 1.1099364636	 0.086111
H	-0.4919279938	 1.9967715532	-0.6643118325	 0.091312
H	 2.0325723146	 2.2356226394	-0.4809506462	 0.052573
H	 3.1731659669	 0.6737167227	 1.2203553699	 0.096396
H	 2.3009540345	 2.0039695886	 1.9558569055	 0.088824
H	 1.8716762467	-0.4895473056	 2.8734249556	 0.086377
H	 0.5539317518	 0.6560644622	 2.7559144866	 0.097046
H	-0.3086737899	-1.3336621236	 1.7728005502	 0.056299
H	 2.1073809491	-2.3625925455	 1.269089152	 0.087749
H	 0.8099314526	-2.7100802162	 0.1326120463	 0.091919
H	 3.176678378	-0.8913443886	-0.3298495971	 0.09749
H	 2.2038917467	-1.7597997933	-1.5016535191	 0.089931
H	 1.1282777859	 0.3508484651	-1.8758994699	 0.058108
H	-0.9075464691	-0.5106776834	-0.4657196116	 0.051149
157.4249	299.4882	349.7827	371.0291	398.3713	474.5482	553.1296	648.0717	684.668	751.6555	770.7992	817.109	823.679	832.2418	886.4219	890.5237	919.1834	942.4926	959.7063	982.3719	993.7666	1004.6561	1043.8099	1065.5198	1083.1541	1098.0817	1113.5306	1137.0136	1164.7843	1186.7599	1215.0406	1225.2802	1246.9785	1258.7244	1279.1399	1290.176	1292.0224	1314.0918	1322.4678	1342.784	1347.5495	1360.4569	1373.8717	1385.7452	1478.3548	1488.3955	1496.375	1507.8974	1520.8364	3026.1187	3030.6609	3036.1867	3045.7371	3046.4887	3051.0982	3054.9319	3061.7133	3064.3863	3068.953	3077.1521	3080.4119	3091.3565	3097.9361
C1C2CCC3CCC2C13	C1[C@H]2CC[C@@H]3CC[C@H]2[C@H]13	
InChI=1S/C9H14/c1-2-7-5-9-6(1)3-4-8(7)9/h6-9H,1-5H2	InChI=1S/C9H14/c1-2-7-5-9-6(1)3-4-8(7)9/h6-9H,1-5H2/t6-,7-,8-,9-/m1/s1
