18
gdb 18057	3.51321	2.11614	1.56675	2.5453	67.08	-0.2399	0.0824	0.3222	846.5497	0.156644	-384.922137	-384.915489	-384.914545	-384.953021	25.912	
C	 0.0738318365	 1.5751331011	 0.1552169769	-0.080818
O	 1.4961367641	 1.5206536236	-0.0814476796	-0.290209
C	 1.3795255589	 0.1656480778	-0.5708704249	 0.141197
C	 2.4643879112	-0.7832222429	-0.0940829141	-0.111721
O	 2.3096941439	-1.2074881103	 1.2450361997	-0.236636
C	 1.0306799961	-1.7738022317	 1.469956722	-0.07503
C	-0.050093601	-0.6940620477	 1.4068900479	-0.216303
C	-0.037750972	 0.0395055938	 0.0516158388	-0.074483
H	-0.1676045612	 2.0314158954	 1.1218001455	 0.10501
H	-0.4490976055	 2.1197412777	-0.6439282418	 0.093226
H	 1.3611162867	 0.1605322099	-1.6720696416	 0.06643
H	 2.4766830706	-1.6588552941	-0.7677413442	 0.082942
H	 3.4381985122	-0.2875872295	-0.1604797591	 0.121964
H	 0.8319878303	-2.5736032378	 0.7346049334	 0.081558
H	 1.0654436812	-2.2329383862	 2.4620596013	 0.108516
H	-1.0357370655	-1.1304722573	 1.6016202404	 0.096144
H	 0.1540660435	 0.0168670884	 2.2147431737	 0.113999
H	-0.8085703998	-0.3444047703	-0.6198160143	 0.074214
107.8496	158.1341	301.9764	372.8529	380.4004	444.3732	500.8857	705.2094	755.919	788.6438	838.8531	873.2721	885.5429	954.2992	993.9746	1011.5888	1025.3538	1052.0314	1082.6811	1101.129	1148.3912	1166.2876	1174.8535	1228.1702	1248.0918	1261.7963	1296.9298	1327.0079	1341.8823	1364.0681	1376.1518	1387.4808	1390.0688	1424.4642	1473.2691	1478.9144	1500.1972	1525.3487	2944.9281	2953.0367	2979.0816	2998.973	3038.1455	3061.6027	3073.38	3082.4828	3085.9438	3093.0558
C1OC2COCCC12	C1O[C@H]2COCC[C@@H]12	
InChI=1S/C6H10O2/c1-2-7-4-6-5(1)3-8-6/h5-6H,1-4H2	InChI=1S/C6H10O2/c1-2-7-4-6-5(1)3-8-6/h5-6H,1-4H2/t5-,6-/m0/s1
