19
gdb 73401	2.63349	2.0013	1.49822	1.5955	73.54	-0.2196	0.0749	0.2945	934.8124	0.161238	-423.004544	-422.99747	-422.996526	-423.035567	29.036	
C	 0.006500141	 1.5495907197	-0.0480958029	-0.513892
C	 0.0374271044	 0.0422056435	 0.0053395014	 0.273542
C	 0.4892178136	-0.7309076036	-1.2308194376	-0.131438
O	 0.348592027	-2.0951984108	-0.7853314737	-0.283603
C	-0.1226608198	-1.9217631454	 0.5405348821	 0.098196
C	 0.7163991847	-0.7708645041	 1.1811640269	-0.138484
C	-0.1060099138	-0.3858319375	 2.4018844427	-0.109442
O	-1.4404541306	-0.4047746895	 1.8420704391	-0.282411
C	-1.1940410189	-0.7985575163	 0.4999126449	 0.054725
H	 1.0144570022	 1.9686277234	-0.1444348503	 0.119459
H	-0.5805801804	 1.8981302642	-0.9053616437	 0.121457
H	-0.4518359352	 1.9638955105	 0.8543216149	 0.136249
H	-0.1498005611	-0.5508334953	-2.1051272929	 0.101039
H	 1.531153865	-0.5316714769	-1.5137005243	 0.100559
H	-0.2862022669	-2.8825724776	 1.026322936	 0.086957
H	 1.8000127089	-0.8429335138	 1.2778531223	 0.074
H	-0.0328904948	-1.110360988	 3.2222284247	 0.105094
H	 0.1210718301	 0.6118749854	 2.7961677872	 0.104503
H	-2.1266083954	-0.8796420279	-0.0577920468	 0.083491
187.6402	229.7238	254.038	297.075	366.3463	378.2753	415.1031	609.0221	638.2751	676.6	703.4323	763.462	909.7377	928.7654	936.0701	954.5375	962.3809	970.3617	1003.2023	1014.8803	1018.3637	1064.2612	1082.2864	1103.5769	1154.729	1170.8256	1191.4196	1204.9195	1226.7732	1238.5054	1257.9357	1264.1078	1293.1462	1329.6408	1370.7375	1402.9272	1414.6607	1490.4583	1496.846	1526.2818	1530.4407	3007.5498	3019.669	3029.925	3043.4272	3054.9611	3088.8256	3110.6741	3118.1624	3129.028	3141.3293
CC12COC3C1COC23	C[C@@]12CO[C@H]3[C@@H]1CO[C@@H]23	
InChI=1S/C7H10O2/c1-7-3-9-5-4(7)2-8-6(5)7/h4-6H,2-3H2,1H3	InChI=1S/C7H10O2/c1-7-3-9-5-4(7)2-8-6(5)7/h4-6H,2-3H2,1H3/t4-,5-,6+,7+/m0/s1
