20
gdb 79188	2.62245	1.81151	1.47137	3.0925	76.68	-0.2238	0.059	0.2828	978.2562	0.172896	-403.105632	-403.097954	-403.09701	-403.137246	31.282	
C	-0.1050910705	 1.5966081111	-0.0269646865	-0.43142
C	 0.0435241452	 0.0765793361	-0.0100627571	 0.013134
C	 0.826188727	-0.5321287604	-1.1847878544	-0.077959
C	 2.3490379465	-0.2734112308	-1.0466150807	-0.155948
N	 2.5600229997	-1.5903274895	-0.350206638	-0.145971
C	 1.1550656476	-1.9734484834	-0.7223078233	-0.06291
C	 1.5024546016	-1.7319949918	 0.6941754064	-0.020391
C	 0.7891058213	-0.5039550608	 1.2387945623	 0.055137
O	 1.7467983821	 0.3711436693	 1.8276466075	-0.42003
H	 0.8666790672	 2.0977607642	-0.0308333702	 0.1304
H	-0.6552493201	 1.9223629602	-0.9154571916	 0.117532
H	-0.6639687572	 1.9530390096	 0.8469301273	 0.105708
H	-0.958500721	-0.3738825507	-0.0164175557	 0.072426
H	 0.3762433542	-0.3756684193	-2.1658753402	 0.065129
H	 2.8751946225	-0.313266263	-2.00341544	 0.103168
H	 2.678910842	 0.5967935062	-0.4752911978	 0.117864
H	 0.8961080923	-2.9223631669	-1.1776289912	 0.08931
H	 1.7158915139	-2.55642543	 1.3654577519	 0.095457
H	 0.0618592857	-0.8165092038	 2.0025780724	 0.065125
H	 1.2694680399	 1.0833639139	 2.264543509	 0.284238
139.2643	212.8707	238.1363	264.3001	313.8239	316.2048	433.608	483.7582	562.6705	622.388	688.0654	768.6568	780.3862	798.4969	850.554	877.2584	911.8101	952.3059	975.4635	992.8152	1003.4544	1032.3737	1051.4638	1056.9823	1108.9167	1136.397	1153.557	1175.5299	1202.9382	1222.2493	1239.1627	1270.9163	1280.1924	1308.709	1333.9768	1346.1212	1364.3788	1392.7342	1407.3815	1427.1053	1495.6338	1502.6661	1505.1069	2981.8057	3012.5449	3029.2503	3063.3239	3089.2304	3102.4601	3116.0041	3123.5312	3170.4077	3181.9795	3821.2651
CC1C2CN3C2C3C1O	C[C@H]1[C@H]2CN3[C@H]2[C@@H]3[C@H]1O	
InChI=1S/C7H11NO/c1-3-4-2-8-5(4)6(8)7(3)9/h3-7,9H,2H2,1H3	InChI=1S/C7H11NO/c1-3-4-2-8-5(4)6(8)7(3)9/h3-7,9H,2H2,1H3/t3-,4+,5+,6+,7-,8?/m0/s1
