19
gdb 61955	2.27977	0.95598	0.71164	5.8827	77.66	-0.247	-0.0379	0.2091	1558.9483	0.157148	-419.220054	-419.209857	-419.208913	-419.256325	35.327	
C	-0.0107676717	 1.4520735192	-0.1978320446	-0.397976
C	 0.036147044	-0.0785678172	-0.1486847887	 0.072216
C	 0.8795278484	-0.5415612523	 1.0458126972	-0.303222
C	 1.1322094963	-2.0280912469	 1.1312491358	 0.154031
O	 0.6172482091	-2.861060204	 0.4251009412	-0.242934
N	-1.3104991848	-0.6506246764	-0.013552186	-0.317197
C	-2.1774897809	-0.3980460943	-1.1615952878	-0.271064
C	-3.4381736351	-1.1330389751	-1.028559892	 0.26187
N	-4.4285972703	-1.7198771477	-0.9364923679	-0.29963
H	 1.0031971131	 1.8630369481	-0.2094587202	 0.118548
H	-0.5152602746	 1.818760771	-1.0958873426	 0.121972
H	-0.53806059	 1.8466339607	 0.6766805594	 0.130319
H	 0.5312989613	-0.4407935333	-1.069292212	 0.072877
H	 1.8595124287	-0.0453386822	 1.0410019849	 0.125536
H	 0.4006550077	-0.2386912999	 1.9890865133	 0.143984
H	 1.8534036459	-2.3285770566	 1.9237707572	 0.093995
H	-1.2023179422	-1.6561418473	 0.0818640925	 0.249981
H	-2.4204722202	 0.6683503384	-1.219915557	 0.155249
H	-1.7262081647	-0.6724372342	-2.1334901027	 0.131445
51.2308	84.2132	96.3282	112.5545	171.8359	194.9487	241.1743	277.6773	329.2594	391.6335	425.2879	449.3717	550.8962	673.6774	759.5875	826.412	847.537	913.0781	950.8854	971.3608	994.7754	1009.3969	1090.4847	1138.6621	1154.33	1183.3584	1242.8547	1248.922	1321.8104	1353.1862	1384.7136	1397.3684	1409.2658	1419.1261	1435.0299	1488.7047	1497.2183	1505.7656	1531.9864	1819.793	2369.0769	2887.612	2922.4734	2932.8902	3015.2963	3040.5893	3051.9602	3066.5873	3112.3645	3115.9091	3519.6367
CC(CC=O)NCC#N	C[C@@H](CC=O)NCC#N	
InChI=1S/C6H10N2O/c1-6(2-5-9)8-4-3-7/h5-6,8H,2,4H2,1H3	InChI=1S/C6H10N2O/c1-6(2-5-9)8-4-3-7/h5-6,8H,2,4H2,1H3/t6-/m0/s1
