17
gdb 91291	2.84061	1.4794	1.28346	3.7506	67.07	-0.2689	0.0082	0.2772	1021.3378	0.136782	-458.996313	-458.988624	-458.98768	-459.029539	29.281	
O	 0.1942549744	 1.3857971135	-0.3172517729	-0.424977
C	 0.0568139135	 0.0190104253	-0.0102778705	 0.119662
C	 0.1739631951	-0.3891595908	 1.4888696631	-0.282286
C	-1.3151772171	-0.7990364462	 1.4939261068	 0.087882
O	-2.1552229836	 0.1971494229	 2.0871606675	-0.22748
C	-2.8723740856	 0.9012773675	 1.158948318	 0.401775
O	-3.6215576108	 1.7776424641	 1.473624142	-0.325597
C	-2.5452304086	 0.3937418694	-0.2458204532	-0.379883
C	-1.3998587515	-0.5825543536	-0.045252887	-0.070908
H	-0.1584283974	 1.9116719268	 0.4083786938	 0.292592
H	 0.7490019263	-0.501283775	-0.6758700707	 0.098456
H	 0.8576615234	-1.2234974734	 1.6633001706	 0.116613
H	 0.4253056245	 0.418436017	 2.1819373235	 0.119354
H	-1.5774037072	-1.7679449737	 1.922437605	 0.09451
H	-3.4430969446	-0.0724618524	-0.66174577	 0.141655
H	-2.2849223511	 1.2421074313	-0.8831473784	 0.154038
H	-1.4755071297	-1.4897728326	-0.6446372777	 0.084596
31.9567	92.0127	232.3038	304.3205	359.6957	400.195	469.8883	513.6262	575.5462	634.5888	657.6561	741.5821	803.3528	819.7013	871.6373	922.5583	932.891	977.8692	1023.4433	1032.3843	1058.5805	1123.7831	1136.1497	1149.5105	1172.0928	1206.9949	1245.7976	1264.7565	1274.6197	1291.2455	1313.8202	1337.6154	1370.787	1431.8262	1453.0688	1459.1321	1882.2243	3062.8095	3069.4481	3083.698	3092.3609	3110.9609	3118.1626	3122.5104	3811.1566
OC1CC2OC(=O)CC12	O[C@H]1C[C@H]2OC(=O)C[C@@H]12	
InChI=1S/C6H8O3/c7-4-2-5-3(4)1-6(8)9-5/h3-5,7H,1-2H2	InChI=1S/C6H8O3/c7-4-2-5-3(4)1-6(8)9-5/h3-5,7H,1-2H2/t3-,4-,5+/m0/s1
