20
gdb 111566	3.31817	1.48971	1.2784	1.8845	78.42	-0.2217	0.0897	0.3114	1058.3252	0.17323	-403.079762	-403.072405	-403.071461	-403.111562	29.519	
C	-0.0075489516	 1.3234030364	 0.0909162107	-0.244753
O	-0.0269010768	-0.0741818345	-0.0888851769	-0.260819
C	-1.3112692568	-0.6427122251	 0.0188778055	 0.183159
C	-1.2930379635	-2.1356090253	-0.3459156459	-0.114818
C	-0.3254273155	-2.6640167967	 0.730112929	-0.16387
N	-1.3970062155	-2.3447971616	 1.7381920394	-0.151697
C	-2.4303581078	-2.6199368728	 0.6427491202	 0.002511
C	-3.2591610558	-1.4383180007	 1.1505739959	-0.24387
C	-1.8489987784	-0.8925781544	 1.4568640678	-0.056188
H	 1.0238793949	 1.6535194945	-0.0539308192	 0.128542
H	-0.6504102486	 1.8353641775	-0.6424744284	 0.104923
H	-0.3334237605	 1.6203515573	 1.0986583344	 0.108799
H	-2.0237361057	-0.0577800643	-0.5813065368	 0.05971
H	-1.2397640708	-2.4039641985	-1.4015532389	 0.064364
H	-0.1962491755	-3.7498840324	 0.7063717191	 0.100859
H	 0.6356593189	-2.1654685326	 0.859618623	 0.11955
H	-2.8072401314	-3.6381478164	 0.5352207663	 0.077877
H	-3.8972351595	-0.8768331843	 0.4641622415	 0.095262
H	-3.8089944497	-1.7143859551	 2.0521977493	 0.115411
H	-1.6463200903	-0.1547898409	 2.2318016641	 0.075049
100.1131	172.5231	185.4981	286.4687	389.5276	416.9801	485.7996	512.5838	696.5138	738.8734	754.1213	827.8064	850.8477	882.0068	901.6138	939.9602	952.6778	979.6401	1000.451	1015.3058	1019.7551	1058.5726	1074.4018	1096.6251	1142.0974	1161.6027	1179.2029	1182.8187	1197.855	1212.5564	1226.3287	1238.8609	1252.2862	1262.625	1291.8928	1304.2827	1326.6612	1408.0375	1481.0601	1484.9971	1487.6433	1502.511	1511.0059	2974.9354	2992.0623	3024.6413	3063.4545	3066.7973	3101.244	3112.0635	3115.25	3127.358	3131.3186	3136.8872
COC1C2CN3C2CC13	CO[C@H]1[C@H]2CN3[C@H]2C[C@H]13	
InChI=1S/C7H11NO/c1-9-7-4-3-8-5(4)2-6(7)8/h4-7H,2-3H2,1H3	InChI=1S/C7H11NO/c1-9-7-4-3-8-5(4)2-6(7)8/h4-7H,2-3H2,1H3/t4-,5-,6+,7-/m0/s1
