16
gdb 23593	3.19896	1.48226	1.15886	1.8098	72.32	-0.2437	-0.0138	0.2299	1040.4689	0.125064	-437.81154	-437.804411	-437.803467	-437.842972	28.541	
O	-0.13239641	 1.3422065425	 0.0246318296	-0.389959
N	 0.0127733354	-0.0525156815	 0.0480500551	-0.236249
C	-1.1152784132	-0.6472192515	 0.0395445728	 0.414187
C	-1.2082285257	-2.1372356354	-0.0161790021	-0.128083
C	-2.0524958382	-2.8699990634	 1.009778108	-0.292353
C	-2.6649028625	-2.4768316587	-0.3071943168	-0.070906
C	-3.4210179943	-1.1589580868	-0.320760496	 0.026963
O	-3.4123526356	-0.4596260409	 0.9260858966	-0.249608
C	-2.4812407849	-0.0428930986	-0.0963640819	-0.068463
H	 0.7827392629	 1.6416409022	 0.0072340238	 0.309849
H	-0.3842977248	-2.6706332459	-0.4733774726	 0.105363
H	-1.812917194	-3.9176930242	 1.1534930314	 0.116204
H	-2.3794037789	-2.3391297193	 1.8939555608	 0.145862
H	-2.939958944	-3.2307160907	-1.0341471269	 0.093874
H	-4.3277128597	-1.0551593386	-0.9095351288	 0.103311
H	-2.6016891526	 0.9707891907	-0.4586964531	 0.120008
122.3786	214.0259	249.0485	317.7534	360.9771	433.2868	474.9982	539.8044	638.8964	688.985	709.623	775.4458	803.0615	828.6352	864.4429	887.2385	930.145	961.164	995.7083	1022.7554	1035.5075	1078.4278	1088.8447	1099.1707	1109.0839	1187.2117	1236.7099	1254.3401	1309.4962	1336.4668	1348.5537	1392.7446	1426.0457	1476.2369	1744.0715	3147.8558	3158.0784	3188.4964	3195.1471	3198.1842	3247.4266	3820.3936
ON=C1C2CC2C2OC12	ON=C1[C@H]2C[C@H]2[C@H]2O[C@@H]12	
InChI=1S/C6H7NO2/c8-7-4-2-1-3(2)5-6(4)9-5/h2-3,5-6,8H,1H2	InChI=1S/C6H7NO2/c8-7-4-2-1-3(2)5-6(4)9-5/h2-3,5-6,8H,1H2/t2-,3+,5+,6-/m0/s1
