16
gdb 77665	2.24495	1.42948	1.27403	2.8489	68.81	-0.2324	-0.0339	0.1985	1062.6387	0.123197	-474.973322	-474.964973	-474.964029	-475.006155	31.523	
O	 0.0029726273	 1.4185281625	-0.0259851387	-0.432225
C	 0.0162919891	 0.0356622326	 0.0635680274	 0.070394
C	-0.329902582	-0.7355081147	 1.2858858154	 0.262981
O	 0.5436808145	-1.6531837738	 1.7949043743	-0.42763
C	-1.5210668369	-0.1216617232	 2.0206121399	-0.244091
N	-2.2652975334	 0.0692170807	 0.735420937	-0.385843
C	-1.2873597814	-0.7349149454	-0.0072842869	 0.121699
C	-1.6729429655	-1.7918075942	-0.925763761	 0.039411
O	-2.8278612624	-2.1172763823	-1.1166093152	-0.295175
H	-0.9260461283	 1.6780426261	 0.0796728759	 0.302364
H	 0.8351709247	-0.413158394	-0.4943216045	 0.124653
H	 0.0511799073	-2.333851085	 2.2696344733	 0.29599
H	-2.0041838679	-0.8511291059	 2.6809292479	 0.111678
H	-1.3295552697	 0.8014062467	 2.5778912054	 0.127143
H	-3.1727983478	-0.3853501651	 0.7234611486	 0.247947
H	-0.8273476374	-2.3061742251	-1.4303227287	 0.080706
94.7718	159.1844	202.4059	220.8138	271.2686	303.8951	369.2084	423.3129	482.1499	508.422	554.0038	606.0643	627.7164	729.5833	789.4302	833.556	855.4497	994.194	1015.472	1025.9765	1060.1191	1082.99	1119.757	1173.2319	1213.7165	1261.7814	1283.829	1291.8467	1356.4817	1383.494	1412.2869	1427.3725	1485.9062	1513.4462	1763.3658	2903.3996	3031.4768	3082.9395	3154.2992	3534.7391	3696.0858	3777.5707
OC1C2(O)CNC12C=O	O[C@H]1[C@@]2(O)CN[C@@]12C=O	
InChI=1S/C5H7NO3/c7-2-4-3(8)5(4,9)1-6-4/h2-3,6,8-9H,1H2	InChI=1S/C5H7NO3/c7-2-4-3(8)5(4,9)1-6-4/h2-3,6,8-9H,1H2/t3-,4+,5+/m1/s1
