17
gdb 35058	2.51138	1.51995	1.48532	1.2055	74.19	-0.2225	0.0444	0.2669	997.5226	0.135976	-421.757118	-421.749275	-421.748331	-421.789451	30.338	
C	-0.3712354752	-1.2098585594	-0.1935084408	-0.445224
C	-0.210951243	-0.0217671442	-0.0899209008	 0.356993
C	-0.0526692698	 1.3949315821	 0.0001847595	-0.323465
C	 0.5050180146	 2.0538792397	 1.2750356538	 0.035071
O	 0.9103951774	 1.2293917731	 2.3191346184	-0.246716
C	 2.3262965036	 1.0660339719	 2.359639539	-0.090611
C	 2.8240061713	 0.4908850253	 1.0460412806	-0.084217
O	 2.5212507499	 1.3551157682	-0.0529003083	-0.259863
C	 1.3307691485	 2.0636419772	 0.0259320435	 0.074677
H	-0.5113805528	-2.2584031938	-0.2815833047	 0.194219
H	-0.8166926821	 1.9740990429	-0.5123705152	 0.114538
H	 0.021593358	 2.9704945101	 1.6084882431	 0.102358
H	 2.818380852	 2.0272102434	 2.5706881601	 0.101551
H	 2.5327638371	 0.3764275169	 3.1821143302	 0.118509
H	 3.9131157726	 0.3853632076	 1.0539795192	 0.110971
H	 2.368964489	-0.492858131	 0.8831278163	 0.126773
H	 1.4120476789	 2.9901864401	-0.5335691338	 0.114436
104.8394	121.6605	159.3293	295.193	344.5063	362.4051	461.5871	510.8007	565.1095	625.6571	641.6671	654.6997	721.5307	739.6382	765.9863	838.611	908.0136	917.7998	994.2625	1049.5255	1067.8198	1078.7386	1118.9509	1130.4734	1139.8034	1198.2658	1259.5039	1270.6598	1313.3449	1342.766	1359.038	1398.5751	1406.8911	1439.9371	1492.8124	1500.8364	2233.5494	2998.2932	3042.101	3094.3795	3103.9223	3112.424	3136.112	3159.2197	3505.3908
C#CC1C2OCCOC12	C#C[C@H]1[C@H]2OCCO[C@@H]12	
InChI=1S/C7H8O2/c1-2-5-6-7(5)9-4-3-8-6/h1,5-7H,3-4H2	InChI=1S/C7H8O2/c1-2-5-6-7(5)9-4-3-8-6/h1,5-7H,3-4H2/t5-,6+,7-
