21
gdb 112456	3.14983	1.04133	0.83707	2.8313	85.32	-0.2354	-0.0104	0.2249	1423.0586	0.18266	-387.132877	-387.123801	-387.122857	-387.16718	34.134	
C	-0.1765767817	 1.5792921361	-0.0351955463	-0.395025
C	-0.0171147753	 0.0571853902	 0.0235196244	-0.179506
C	 0.8179373391	-0.4506902891	 1.2176715552	-0.029135
C	 0.6637141854	-1.9796833433	 1.3791649874	-0.317422
C	 1.6186418154	-2.5427793446	 2.4150805623	 0.375275
O	 1.2553972251	-3.2217460462	 3.3464343318	-0.310374
C	 3.0858590795	-2.1933026645	 2.1900472554	-0.351683
C	 3.2794629579	-0.8603508701	 1.5157817603	-0.079209
C	 2.2786367767	-0.082484455	 1.1051360216	-0.043421
H	 0.7837190399	 2.0922697851	-0.1473841136	 0.121074
H	-0.802861199	 1.8719738259	-0.8834402481	 0.117274
H	-0.6509967459	 1.960702846	 0.8757852975	 0.118592
H	-1.0117077527	-0.4020447564	 0.0819453952	 0.099131
H	 0.4358591326	-0.308889102	-0.9073085063	 0.098388
H	 0.4094867601	 0.0277926688	 2.1223807379	 0.09375
H	-0.3574182127	-2.2573223779	 1.6515360713	 0.116064
H	 0.9026993579	-2.4505133521	 0.414350692	 0.115715
H	 3.6005725065	-2.2390601301	 3.1565022033	 0.133908
H	 3.5309280961	-2.996362255	 1.5815358764	 0.133732
H	 4.3071924784	-0.5269291176	 1.3932176533	 0.093249
H	 2.5104179165	 0.881027832	 0.6589600991	 0.089623
70.3534	78.3215	113.6612	200.8243	236.5213	300.7714	340.3424	400.9225	451.8473	485.8515	530.1128	583.4495	693.8893	719.7992	771.6628	818.5122	872.4736	913.1366	951.8047	958.3972	990.9053	1006.7359	1037.1689	1065.674	1107.4747	1129.9665	1144.2218	1201.7736	1233.0455	1246.8119	1268.9866	1292.3595	1329.4647	1334.7521	1356.9005	1375.5977	1412.9798	1420.8805	1443.534	1465.3019	1486.7314	1501.2499	1506.4003	1721.8729	1821.7094	2971.6608	2995.167	3012.2631	3019.5599	3035.4923	3053.9058	3063.5768	3101.8931	3104.8357	3107.2948	3146.8648	3171.0126
CCC1CC(=O)CC=C1	CC[C@H]1CC(=O)CC=C1	
InChI=1S/C8H12O/c1-2-7-4-3-5-8(9)6-7/h3-4,7H,2,5-6H2,1H3	InChI=1S/C8H12O/c1-2-7-4-3-5-8(9)6-7/h3-4,7H,2,5-6H2,1H3/t7-/m1/s1
