13
gdb 49966	2.82327	1.2239	0.98081	3.5459	66.11	-0.2877	-0.0722	0.2155	1151.7847	0.086586	-452.743303	-452.734705	-452.733761	-452.777297	29.255	
O	 0.4134540194	 0.002528344	 0.7742447697	-0.253112
C	 0.1849190999	 1.0813034094	 0.3027534314	 0.15268
N	 1.0907856439	 1.770208528	-0.5219717259	-0.103283
C	 2.4900798332	 1.8639942893	-0.2563637503	-0.251761
C	 1.6060256106	 3.1117625752	-0.2401760211	 0.020929
C	 1.6595887576	 4.0255182388	-1.4421801998	 0.134583
O	 1.6385970776	 5.2211483935	-1.3807445457	-0.216236
C	 1.3324927835	 3.728632696	 1.0381991021	 0.265824
N	 1.0929988002	 4.2146986044	 2.0584445316	-0.312741
H	-0.7733567486	 1.6192023907	 0.398958671	 0.123166
H	 2.8509681696	 1.5151795697	 0.7073151452	 0.176107
H	 3.1583922047	 1.7189504994	-1.1008488761	 0.154796
H	 1.7255998584	 3.4602937915	-2.3958583621	 0.109048
74.9341	91.5555	144.4718	172.4874	199.3607	272.3232	323.7934	347.9494	433.0367	549.1144	567.8758	683.6423	745.4933	839.776	918.8103	954.8172	1026.8051	1040.1571	1086.8556	1130.0325	1145.6739	1275.681	1370.0131	1409.5536	1414.0194	1501.8627	1821.3786	1846.6741	2364.7709	2921.297	3002.6279	3115.9968	3214.1041
O=CN1CC1(C=O)C#N	O=CN1C[C@]1(C=O)C#N	
InChI=1S/C5H4N2O2/c6-1-5(3-8)2-7(5)4-9/h3-4H,2H2	InChI=1S/C5H4N2O2/c6-1-5(3-8)2-7(5)4-9/h3-4H,2H2/t5-,7?/m0/s1
