18
gdb 37663	3.66963	2.09601	2.06293	1.6037	75.71	-0.2338	0.0952	0.329	777.0809	0.152852	-364.766997	-364.761878	-364.760934	-364.796077	23.732	
C	-0.0618549183	 1.5591230734	 0.05302238	-0.250468
C	 1.4838749166	 1.4422846967	-0.0057439075	-0.044229
C	 1.8744102084	 0.6930727842	 1.2783002114	-0.066546
C	 2.8606046892	-0.4225408367	 0.8695702236	-0.062027
C	 1.785918928	-1.4477050296	 0.8771867936	-0.062027
C	 0.7210681271	-0.4071191132	 1.2864705588	-0.066545
C	-0.0184154585	 0.0092238976	 0.0049005665	-0.04423
C	 1.2971532668	 0.1278782744	-0.8334215917	 0.013167
N	 2.2797272148	-0.8989762467	-0.4038249814	-0.128272
H	-0.511699174	 2.0371972237	 0.9279804044	 0.093198
H	-0.4827031724	 1.9935377394	-0.8574767421	 0.100213
H	 2.1206116942	 2.2614807453	-0.3412168132	 0.064397
H	 2.0560549151	 1.2639647701	 2.1868047832	 0.068649
H	 3.9302015316	-0.4913212645	 1.0332810979	 0.087981
H	 1.8054416812	-2.5181692018	 1.0483439388	 0.087981
H	 0.1490115296	-0.5552000415	 2.2003175524	 0.068648
H	-0.8691676163	-0.5905200308	-0.3200387239	 0.064398
H	 1.2089854769	 0.2122700301	-1.9149988509	 0.075711
380.3193	428.1164	528.261	658.2154	688.6749	744.1458	794.7476	796.102	819.8805	849.7545	857.5724	879.9921	882.5845	892.087	936.9994	938.2619	953.9741	954.3699	980.9492	1013.2635	1028.4027	1037.75	1054.5842	1089.8954	1101.7409	1129.6843	1191.3689	1196.1596	1208.5571	1217.7115	1224.3133	1244.4453	1255.4554	1261.161	1282.286	1297.5058	1302.1372	1355.4946	1502.5567	3052.7375	3105.783	3108.4867	3110.7744	3131.9526	3136.8458	3142.1121	3165.6852	3180.292
C1C2C3C4C5C3C1C2N45	C1[C@H]2[C@@H]3[C@H]4[C@H]5[C@@H]3[C@@H]1[C@@H]2N45	
InChI=1S/C8H9N/c1-2-4-5-3(1)6(2)9-7(4)8(5)9/h2-8H,1H2	InChI=1S/C8H9N/c1-2-4-5-3(1)6(2)9-7(4)8(5)9/h2-8H,1H2/t2-,3+,4-,5+,6+,7-,8+,9?
