19
gdb 57701	3.50999	0.8179	0.77895	2.4429	78.46	-0.2556	-0.0295	0.2261	1519.6698	0.153234	-422.989156	-422.978219	-422.977275	-423.028508	38.093	
C	-0.0223479636	 1.6582834044	 0.0133072798	-0.430848
C	-0.0456056844	 0.1209199015	 0.0196523895	 0.292892
C	 0.8488036377	-0.4511983235	 1.1321195097	-0.430924
O	-1.3712649919	-0.4111691526	 0.0488220557	-0.297055
C	-2.1543349	-0.1266890927	 1.1956072292	-0.231285
C	-3.4640165521	-0.7484278906	 1.044803806	 0.288194
C	-4.5509288173	-1.2491778107	 0.9483129787	-0.41321
C	 0.4876517615	-0.376953458	-1.3314327926	 0.139866
O	 1.5902571425	-0.1306114377	-1.7426547323	-0.261922
H	 0.9812074944	 1.9985889798	-0.253317746	 0.145341
H	-0.7306947009	 2.0505924203	-0.7222404061	 0.130148
H	-0.2733236784	 2.0684007534	 0.9956965757	 0.119599
H	 0.5919748296	-0.0329441132	 2.1095602519	 0.119826
H	 0.7539610949	-1.5399571737	 1.1804387122	 0.130155
H	 1.8904330596	-0.201216501	 0.9162871565	 0.145254
H	-1.6751968004	-0.5093837752	 2.1091900613	 0.124765
H	-2.2820241255	 0.9578005313	 1.3307853409	 0.124807
H	-5.5109407333	-1.6942101325	 0.857709973	 0.202709
H	-0.2433184023	-0.9910573294	-1.8989689731	 0.101686
3.6274	32.3931	105.4685	109.2898	220.5648	226.4622	267.0115	282.8785	299.1652	329.7255	358.7661	405.8057	427.9297	497.6757	611.8992	657.8954	677.8555	764.2854	892.5342	911.2607	956.731	970.6069	1002.9935	1027.6432	1042.9334	1095.683	1197.7208	1204.0655	1260.5228	1261.0676	1379.2894	1385.7665	1407.9665	1416.6873	1483.0253	1485.1954	1498.1896	1501.5555	1513.1583	1838.3363	2249.0327	2917.0865	2985.5749	3009.6073	3042.2843	3045.6074	3114.8065	3117.6172	3129.3918	3133.4147	3506.0953
CC(C)(OCC#C)C=O	CC(C)(OCC#C)C=O	
InChI=1S/C7H10O2/c1-4-5-9-7(2,3)6-8/h1,6H,5H2,2-3H3	InChI=1S/C7H10O2/c1-4-5-9-7(2,3)6-8/h1,6H,5H2,2-3H3
