21
gdb 104219	2.55481	1.29776	1.15476	3.0676	78.38	-0.2516	0.0621	0.3138	1201.5395	0.180255	-424.194117	-424.184568	-424.183624	-424.228244	36.211	
C	 0.0123245939	 1.6143032321	-0.069759592	-0.408601
C	 0.0316358305	 0.0842943576	 0.0244305921	-0.234708
C	-1.3576792874	-0.5464729836	 0.0161814723	 0.317292
O	-2.1399159506	-0.1211767921	 1.1254447862	-0.481433
C	-2.1864652397	-0.5241491088	-1.3145762219	-0.280753
C	-2.60964151	-2.0027416194	-1.0622818816	-0.324378
C	-1.4722224228	-2.0827648673	-0.0465474251	 0.456769
C	-0.3997679288	-3.0751196477	 0.0514237515	-0.268818
O	-1.4075648125	-2.9456733963	 1.0642656178	-0.266319
H	 1.0284897271	 2.0184218934	-0.0852966005	 0.120876
H	-0.4931602479	 1.9548973157	-0.9804822634	 0.11859
H	-0.4980415235	 2.0604391028	 0.7905450355	 0.115597
H	 0.6112761839	-0.3282284687	-0.809980389	 0.092663
H	 0.5375679217	-0.2200917926	 0.9489337891	 0.111236
H	-2.350045564	 0.809740355	 0.9966770364	 0.279403
H	-2.9902152742	 0.2140984779	-1.3539230797	 0.097063
H	-1.5524056178	-0.4131761635	-2.1982435551	 0.101776
H	-3.5828373051	-2.0725002066	-0.5711736114	 0.126108
H	-2.5809223787	-2.6904929555	-1.9099013751	 0.102679
H	-0.4533780894	-3.9822692872	-0.5500081594	 0.111356
H	 0.6028689354	-2.7757355553	 0.3529696734	 0.113601
79.5519	98.4651	151.8732	203.9635	241.946	280.5901	286.6817	311.7307	360.9479	392.6845	476.7453	502.7662	601.1711	678.7866	743.4438	789.928	873.2002	884.7525	904.2513	919.1322	949.5498	967.9161	998.8363	1026.8615	1089.0711	1112.9695	1132.2285	1153.0278	1168.4001	1191.1115	1204.9277	1209.0742	1256.3829	1278.1653	1309.8593	1332.7323	1384.9019	1406.7325	1430.5496	1465.6838	1478.4396	1487.1914	1500.7636	1509.9648	1537.4016	3026.1247	3031.4239	3060.9129	3064.2414	3071.4063	3078.587	3098.2655	3107.2757	3113.7552	3130.7448	3164.9996	3809.6152
CCC1(O)CCC11CO1	CC[C@@]1(O)CC[C@]21CO2	
InChI=1S/C7H12O2/c1-2-6(8)3-4-7(6)5-9-7/h8H,2-5H2,1H3	InChI=1S/C7H12O2/c1-2-6(8)3-4-7(6)5-9-7/h8H,2-5H2,1H3/t6-,7-/m1/s1
