14
gdb 14636	12.55092	0.56236	0.54528	2.9417	86.63	-0.2361	-0.0355	0.2006	1942.097	0.103671	-345.372524	-345.363171	-345.362227	-345.409257	30.171	
C	 0.0169901695	 1.5155314958	 0.0675802264	-0.518647
C	 0.0288687792	 0.0646729757	 0.0259068763	 0.262799
C	 0.0389169396	-1.1450489528	-0.0093955797	-0.203749
C	 0.0494216038	-2.5040177556	-0.0496436309	-0.180036
C	 0.0671949251	-3.7141013525	-0.0842344825	 0.244292
C	 0.0304528615	-5.1639950337	-0.1373344623	-0.447735
C	-1.397077458	-5.7132597889	-0.2562771021	 0.172458
O	-1.6801882239	-6.6794058105	-0.9088432105	-0.226849
H	 1.0312276984	 1.9159196874	 0.1762171923	 0.15878
H	-0.4109827967	 1.9349527177	-0.8498451913	 0.15878
H	-0.5780598472	 1.8820663596	 0.9116295899	 0.158425
H	 0.620320957	-5.5671793873	-0.9675525605	 0.160771
H	 0.4520722637	-5.5881282471	 0.7878656754	 0.160972
H	-2.1547293621	-5.1496506177	 0.3290575594	 0.099739
15.7564	43.354	75.928	101.4554	162.5635	247.1306	318.2399	378.0482	429.0254	448.7903	544.3461	558.1643	624.8969	744.3996	972.2373	1025.405	1040.3152	1048.0036	1048.8862	1208.5643	1259.6296	1317.2936	1412.0789	1413.2557	1436.6549	1471.0661	1471.5843	1841.302	2280.4401	2387.5864	2908.459	2994.9819	3025.2579	3074.7803	3088.0028	3088.2461
CC#CC#CCC=O	CC#CC#CCC=O	
InChI=1S/C7H6O/c1-2-3-4-5-6-7-8/h7H,6H2,1H3	InChI=1S/C7H6O/c1-2-3-4-5-6-7-8/h7H,6H2,1H3
