16
gdb 87077	4.47717	0.70223	0.67782	5.0741	87.67	-0.2627	-0.047	0.2158	1652.4021	0.122368	-400.722281	-400.712931	-400.711987	-400.756758	33.708	
C	-0.0388963902	 1.5400856475	 0.057676651	-0.407706
C	 0.0438283765	 0.0315339169	 0.0136774046	-0.029719
C	 1.3478391136	-0.6768506046	-0.2292673761	-0.33973
C	 0.7077744066	-0.7243817442	 1.1568263028	 0.143411
O	 1.2567174522	 0.0731296432	 2.1671564834	-0.436768
C	 0.1256740465	-1.9569453172	 1.6033000791	 0.138832
C	-0.3402911989	-3.0001913355	 2.0032458506	 0.007105
C	-0.870974019	-4.1761116805	 2.4447220583	 0.197115
N	-1.3216476689	-5.179846459	 2.8196942037	-0.338564
H	 0.8403085433	 1.9692902332	 0.541148182	 0.138171
H	-0.109241332	 1.9424640924	-0.9581835525	 0.124784
H	-0.9226072061	 1.8680890934	 0.6134539437	 0.13187
H	-0.8344479151	-0.4646967742	-0.3881264012	 0.113207
H	 1.3620786684	-1.5834234459	-0.822846292	 0.133136
H	 2.2434439864	-0.0667229269	-0.2857928268	 0.129479
H	 2.0322454467	-0.3785882786	 2.5191984694	 0.295375
71.6387	80.7176	175.914	186.78	218.6258	257.4113	305.3569	321.6602	368.0739	459.1985	525.4717	543.2386	585.9968	598.6152	619.412	777.7135	842.1359	891.8146	931.0309	997.8124	1025.6028	1062.2337	1112.5008	1140.7069	1193.7524	1246.9699	1293.9545	1339.9845	1402.4641	1420.1631	1472.3329	1491.9277	1500.0047	2256.5348	2386.1147	3043.6255	3105.0656	3134.84	3136.6286	3160.6858	3232.016	3796.6021
CC1CC1(O)C#CC#N	C[C@H]1C[C@]1(O)C#CC#N	
InChI=1S/C7H7NO/c1-6-5-7(6,9)3-2-4-8/h6,9H,5H2,1H3	InChI=1S/C7H7NO/c1-6-5-7(6,9)3-2-4-8/h6,9H,5H2,1H3/t6-,7+/m0/s1
