18
gdb 14610	12.20361	0.5723	0.56179	2.1742	75.87	-0.2512	-0.0232	0.2281	1875.1727	0.150593	-347.785255	-347.775664	-347.77472	-347.82091	32.806	
O	-0.6798776845	 0.8180249582	 0.7810053998	-0.235222
C	 0.0180141058	 1.0174100034	-0.1790340838	 0.160168
C	 1.3120463825	 1.7984311784	-0.1682215717	-0.278256
C	 1.2872578932	 2.9627919218	-1.1737593773	-0.193457
C	 2.6271744464	 3.6996049384	-1.2568041793	-0.170945
C	 2.5915423715	 4.8740300022	-2.255779314	-0.357459
C	 3.8630762118	 5.5809035873	-2.3458928945	 0.290331
C	 4.9229784029	 6.1451126545	-2.4000255697	-0.432616
H	-0.2669239476	 0.6236435285	-1.184276562	 0.069216
H	 1.5012766643	 2.1492254519	 0.850438272	 0.124118
H	 2.1189500423	 1.1037471311	-0.4450127347	 0.11981
H	 1.0164212205	 2.5808101206	-2.1675791804	 0.103879
H	 0.4956878868	 3.6681028836	-0.8894995465	 0.11365
H	 2.9061688703	 4.0809499107	-0.2679978121	 0.116424
H	 3.4188338542	 3.0018564282	-1.5539918199	 0.112363
H	 2.3097956523	 4.4999245191	-3.2490373815	 0.130271
H	 1.8016081538	 5.5782347017	-1.9628966555	 0.132224
H	 5.8539566636	 6.6523755604	-2.4564592089	 0.1955
46.1127	55.5692	97.275	121.399	127.494	205.6492	317.1405	349.3831	361.2099	521.5924	530.5591	619.4151	639.712	736.744	773.8197	838.1762	938.5786	959.1551	994.5869	1023.1684	1055.6356	1102.3504	1127.3911	1177.1911	1241.7806	1267.8262	1306.9009	1321.4601	1331.9449	1369.053	1395.4577	1429.7954	1464.2532	1474.7497	1488.9147	1507.6762	1837.7915	2239.9389	2845.0904	3008.2548	3013.9761	3015.8487	3038.8657	3042.8281	3048.6923	3084.4903	3100.4395	3507.5047
O=CCCCCC#C	O=CCCCCC#C	
InChI=1S/C7H10O/c1-2-3-4-5-6-7-8/h1,7H,3-6H2	InChI=1S/C7H10O/c1-2-3-4-5-6-7-8/h1,7H,3-6H2
