20
gdb 115213	4.12884	0.9974	0.83972	3.0599	77.74	-0.2538	0.0187	0.2725	1393.5715	0.171437	-440.298825	-440.289844	-440.2889	-440.332921	33.213	
C	-0.0832355959	 1.5998283937	-0.0534187134	-0.386286
C	-0.0325238595	 0.0699212026	-0.0766553301	-0.198268
C	-1.4118730547	-0.5700001432	 0.0404160596	 0.11027
C	-1.3582397695	-2.0880643791	-0.0328654702	-0.084463
O	-2.6395249569	-2.6952784728	 0.2015502027	-0.255357
C	-3.475201537	-2.1412330758	 1.123546404	 0.369532
N	-4.430163024	-2.7844517545	 1.6456133194	-0.507237
C	-3.2999412545	-0.6639801508	 1.4190698314	-0.160235
O	-1.9668755401	-0.2106919778	 1.2991093769	-0.256216
H	 0.9231785887	 2.0247156548	-0.1054438593	 0.115207
H	-0.6554468736	 1.9894150454	-0.9025075221	 0.114131
H	-0.5592862786	 1.9531774992	 0.8642563891	 0.139545
H	 0.4344900649	-0.2803320671	-1.0053667399	 0.100975
H	 0.58769971	-0.2968757531	 0.7500103244	 0.111001
H	-2.0673685687	-0.1946870449	-0.7663425389	 0.071802
H	-1.0452038228	-2.431913023	-1.0223678449	 0.118413
H	-0.6484116794	-2.4656881954	 0.7146864597	 0.114648
H	-4.4429081849	-3.7448025963	 1.2947944606	 0.22019
H	-3.9567897059	-0.1049411925	 0.7304264225	 0.116271
H	-3.6317862775	-0.4678949595	 2.4387030586	 0.146076
66.0618	94.5005	161.2797	172.8856	209.737	269.1985	349.4099	400.0887	439.6074	493.1263	516.8765	547.4602	713.0385	766.6365	804.8341	895.3737	912.1412	941.8819	985.4338	1002.1871	1024.0872	1054.986	1095.7835	1132.7828	1149.9231	1167.0933	1169.7045	1267.2884	1268.1683	1296.8756	1313.7282	1331.8132	1372.5683	1396.3716	1404.5775	1412.6152	1437.2591	1474.2552	1477.6719	1496.8596	1499.454	1509.7648	1756.6818	2943.5882	2962.8265	3023.2718	3031.4503	3040.1953	3067.8297	3099.0924	3106.7713	3130.1475	3135.2449	3459.7498
CCC1COC(=N)CO1	CC[C@H]1CO[C]([NH])CO1	
InChI=1S/C6H11NO2/c1-2-5-3-9-6(7)4-8-5/h5,7H,2-4H2,1H3	InChI=1S/C6H11NO2/c1-2-5-3-9-6(7)4-8-5/h5,7H,2-4H2,1H3/t5-/m0/s1
