16
gdb 16990	3.91019	2.32324	2.20752	2.3781	64.78	-0.2315	0.0518	0.2833	704.2617	0.131906	-383.617363	-383.611625	-383.610681	-383.646784	24.087	
C	 0.0889338293	 1.5474734747	-0.2042422206	-0.172454
O	 1.5331478325	 1.4715154945	 0.1223865563	-0.313737
C	 1.20381661	 0.3342437047	 0.9808177591	 0.135013
C	 1.333572416	-1.2399752686	 0.9789082378	-0.144084
C	-0.280946988	-1.1475329091	 1.1381502517	-0.32826
C	-0.0186616185	 0.0505581796	 0.1775868597	 0.334214
O	 0.4578994142	-0.6365268345	-1.0082696042	-0.292769
C	 1.4401733877	-1.5539686719	-0.5017561459	-0.074889
H	-0.4233969256	 2.2446639575	 0.4666688004	 0.109366
H	-0.0787916272	 1.7940653433	-1.2536132373	 0.130924
H	 1.0233282525	 0.6943824731	 1.9980335856	 0.088049
H	 1.9555142096	-1.7902496974	 1.6847491696	 0.082963
H	-0.8555644143	-1.9938197125	 0.7566503	 0.1165
H	-0.5897212691	-0.8736580568	 2.14634062	 0.117701
H	 2.4272469967	-1.3255032724	-0.9204881493	 0.112034
H	 1.1714472041	-2.5864533043	-0.7549702929	 0.099429
248.3924	314.7179	374.1868	426.5702	475.3735	592.0754	666.594	764.8586	811.5938	815.883	840.4365	878.5317	910.8109	931.3407	962.7342	990.7552	1002.5922	1005.4157	1045.0157	1063.9592	1119.0525	1125.3822	1170.599	1186.9401	1205.2124	1217.1373	1238.8466	1275.1773	1302.0157	1356.631	1387.3843	1480.9422	1489.8499	1527.2755	3023.2104	3047.7585	3059.4691	3063.3523	3082.1642	3124.3155	3134.6881	3160.7237
C1OC2C3CC12OC3	C1O[C@@H]2[C@H]3C[C@@]12OC3	
InChI=1S/C6H8O2/c1-4-2-8-6(1)3-7-5(4)6/h4-5H,1-3H2	InChI=1S/C6H8O2/c1-4-2-8-6(1)3-7-5(4)6/h4-5H,1-3H2/t4-,5+,6+/m0/s1
