21
gdb 62959	2.04622	1.85432	1.41319	1.2697	82.47	-0.243	0.0762	0.3192	1056.994	0.181157	-387.046207	-387.037418	-387.036474	-387.078798	35.365	
C	-0.1214613902	 1.5598180197	-0.0478498886	-0.451152
C	 0.035832733	 0.045597886	-0.0021488227	 0.312614
O	-1.2320612142	-0.5890568773	-0.124047112	-0.47441
C	 1.0898004254	-0.609779254	-0.9266406557	-0.096375
C	 2.4968098574	-0.2439460686	-0.5372884782	-0.304612
C	 1.7627553095	-1.275660227	 0.2739311742	-0.142273
C	 0.774867769	-0.5944262404	 1.1992490122	 0.374712
C	 1.0182218575	-0.0150876663	 2.564802283	-0.339258
C	 0.0928332311	-1.1978303598	 2.3833470479	-0.325761
H	 0.8363470784	 2.0723478296	 0.0718076215	 0.120116
H	-0.5486170712	 1.8732965997	-1.0089734443	 0.102531
H	-0.795842466	 1.8971072042	 0.7460090236	 0.121356
H	-1.6492611142	-0.2509396119	-0.9243932764	 0.271877
H	 0.8492261421	-1.0415352625	-1.8914103008	 0.079979
H	 3.2668199102	-0.6276029705	-1.2000811652	 0.109536
H	 2.7289373993	 0.7273441054	-0.1076940359	 0.106305
H	 2.1128833554	-2.2961247186	 0.3750483713	 0.085046
H	 1.9875890884	-0.1828804481	 3.023625381	 0.108306
H	 0.5726111818	 0.9459417918	 2.802342746	 0.107942
H	-0.9754830966	-1.039020478	 2.4763219566	 0.125491
H	 0.4330061338	-2.1712250933	 2.7226394826	 0.108031
118.7256	199.1549	211.2332	236.8457	258.1326	278.4529	300.9861	375.3169	413.1396	494.5315	547.0046	580.3592	648.0044	763.5342	781.6775	798.918	872.2962	907.5743	931.3264	937.9898	951.0932	956.939	987.1809	1013.213	1043.89	1049.3726	1062.4355	1074.5398	1084.245	1100.9023	1161.1025	1180.6915	1190.3764	1210.5518	1235.0416	1280.8264	1315.2431	1358.187	1405.001	1415.4233	1462.7329	1481.9931	1486.4041	1495.3487	1505.8706	3022.7338	3088.559	3109.1486	3118.553	3119.7164	3131.1686	3171.5514	3180.087	3196.8811	3200.4958	3220.9132	3794.9131
CC1(O)C2CC2C11CC1	C[C@@]1(O)[C@H]2C[C@H]2C21CC2	
InChI=1S/C8H12O/c1-7(9)5-4-6(5)8(7)2-3-8/h5-6,9H,2-4H2,1H3	InChI=1S/C8H12O/c1-7(9)5-4-6(5)8(7)2-3-8/h5-6,9H,2-4H2,1H3/t5-,6+,7+/m0/s1
