16
gdb 26873	2.95402	1.44485	0.97653	3.3914	79.97	-0.1951	-0.0453	0.1497	1154.4067	0.123552	-437.921739	-437.913138	-437.912193	-437.955056	31.687	
C	 0.0773905839	 1.4856261497	 0.0319851933	-0.480807
C	-0.0621731627	 0.0029335301	 0.0163748067	 0.311455
C	-1.219034438	-0.6938718504	-0.0398325563	 0.202811
O	-2.4184913829	-0.0231226015	-0.0537820058	-0.451765
C	-1.1640255828	-2.1301541803	-0.0449893298	-0.16375
C	 0.0209986802	-2.7721502644	 0.0007875377	-0.155744
C	 1.2638938291	-2.0316412305	 0.0686778413	 0.37647
N	 2.4106382026	-2.582131921	 0.1158184819	-0.545705
O	 1.1383469461	-0.6469932322	 0.0829072766	-0.279254
H	 0.7478810696	 1.8155989033	-0.7692627276	 0.140861
H	-0.8979464849	 1.9546851221	-0.098466578	 0.15229
H	 0.5108573541	 1.8272318063	 0.9792549021	 0.142859
H	-3.0981370596	-0.6076679412	-0.4023250032	 0.298857
H	-2.0950623053	-2.6905192961	-0.0830178009	 0.10615
H	 0.1046824088	-3.8506299047	-0.0054163189	 0.127968
H	 3.1453511919	-1.8756069994	 0.160103591	 0.217302
102.376	107.9598	144.5232	175.2541	279.9142	322.3716	345.7169	413.8127	476.7354	484.5476	576.5742	578.9492	720.2025	721.6078	782.745	822.7878	849.2359	874.1644	981.162	1000.8208	1060.9285	1078.2107	1128.4088	1176.4154	1205.1029	1285.6248	1292.0534	1367.9867	1412.3554	1454.092	1476.1977	1482.8699	1619.0035	1693.3609	1751.2497	3033.3555	3083.8409	3155.8568	3160.0397	3230.9959	3489.1851	3834.6679
CC1=C(O)C=CC(=N)O1	C[C@@H]1C(=CC=C([NH])O1)O	
InChI=1S/C6H7NO2/c1-4-5(8)2-3-6(7)9-4/h2-3,7-8H,1H3	InChI=1S/C6H8NO2/c1-4-5(8)2-3-6(7)9-4/h2-4,7-8H,1H3/t4-/m1/s1
