17
gdb 10281	2.56717	1.68468	1.08171	2.101	69.08	-0.2674	-0.0355	0.232	1096.7754	0.139431	-363.90541	-363.896018	-363.895074	-363.940455	32.239	
C	 0.1229451329	 1.547904704	-0.1890859021	-0.404488
C	 0.075165709	 0.0196712168	-0.1917271452	-0.171899
C	-1.3431429209	-0.5474539675	 0.0234169768	-0.249556
C	-2.2563213646	-0.1733670952	-1.0564682356	 0.278116
N	-2.9653465297	 0.1143326433	-1.9233833635	-0.331405
C	-1.3373153489	-2.0869216502	 0.2661793272	 0.385309
C	-2.6580136672	-2.8098391089	 0.1378468584	-0.486007
O	-0.3131587017	-2.6374624764	 0.5798427687	-0.27833
H	 1.1482944391	 1.8973743522	-0.3388269127	 0.12598
H	-0.4954316136	 1.9719237454	-0.9863464499	 0.141333
H	-0.2317601088	 1.9562763442	 0.763860758	 0.117849
H	 0.467768318	-0.3736573854	-1.1351271502	 0.122939
H	 0.7038175325	-0.3945485747	 0.5998876947	 0.131989
H	-1.7591547097	-0.1202192799	 0.9500394576	 0.148387
H	-3.4457158698	-2.2877554894	 0.6914683137	 0.146816
H	-2.9714343685	-2.8233493745	-0.9114913329	 0.173644
H	-2.5517417481	-3.8313640538	 0.5033051268	 0.149323
31.4919	84.0678	138.1227	152.838	184.2708	202.1071	270.7325	343.799	376.3009	468.0843	524.7421	566.2695	612.5451	747.8797	797.3737	896.1925	942.2053	982.7085	1018.7318	1069.0678	1121.6081	1132.5797	1192.1186	1248.8436	1265.4194	1332.3225	1362.9263	1387.2562	1417.871	1458.3425	1472.6295	1486.2866	1498.8846	1507.4232	1827.1287	2350.6923	2994.1656	3035.5704	3044.6074	3060.7119	3095.7587	3106.6739	3112.6357	3121.7092	3159.5513
CCC(C#N)C(C)=O	CC[C@@H](C#N)C(=O)C	
InChI=1S/C6H9NO/c1-3-6(4-7)5(2)8/h6H,3H2,1-2H3	InChI=1S/C6H9NO/c1-3-6(4-7)5(2)8/h6H,3H2,1-2H3/t6-/m0/s1
