18
gdb 108154	3.31327	1.42712	1.22303	3.9736	76.	-0.2165	-0.0541	0.1624	1064.4308	0.145717	-401.811858	-401.803921	-401.802977	-401.844273	30.96	
C	 0.2756989865	 1.5309744749	 0.0854051487	-0.378391
C	-0.0701047724	 0.0471072811	-0.0991357065	-0.288382
C	 0.549327191	-0.5650777995	-1.3346311669	 0.279218
C	 0.1248900058	-0.0991045499	-2.7582391778	-0.218156
N	 1.033888451	-0.8749663128	-3.6710597698	-0.231374
C	 1.4719188845	-1.7517358702	-2.8699270183	 0.264516
O	 2.7742095635	-1.6920502224	-2.3475976259	-0.266784
C	 1.9928863433	-1.3109755864	-1.1262773244	 0.028095
C	 0.7804884513	-2.0313355691	-1.4976885407	-0.25386
H	 1.3582759939	 1.6752737855	 0.1569808093	 0.124957
H	-0.0847634308	 2.1347095313	-0.7532060575	 0.125754
H	-0.1808914092	 1.9255791276	 0.9976942002	 0.118098
H	 0.2463329332	-0.5179294848	 0.7863984042	 0.102662
H	-1.160677528	-0.0737492731	-0.1573687712	 0.108202
H	-0.9547339725	-0.2550839059	-2.9119752086	 0.108111
H	 0.3492145562	 0.9517443294	-2.9653759159	 0.133256
H	 2.5756298258	-1.2557885063	-0.2142961374	 0.128479
H	 0.2871706869	-2.9197183494	-1.1251888016	 0.115597
74.8314	156.0985	200.0141	255.4392	297.5578	354.0146	438.9695	485.4838	584.3459	593.1344	627.8204	718.6167	768.8392	793.353	829.9981	837.9494	897.1573	942.1483	961.518	977.7461	1012.0517	1026.1295	1062.7535	1097.376	1110.3633	1158.2235	1174.4731	1213.8509	1222.0931	1292.6678	1311.6333	1332.1273	1387.9762	1412.8928	1480.9518	1482.7408	1498.1399	1506.8183	1619.5301	2978.0977	3013.2863	3039.9909	3047.2981	3076.8119	3110.2507	3112.689	3187.1839	3199.078
CCC12CN=C3OC1C23	CC[C@@]12C[N][C]3O[C@@H]1[C@@H]23	
InChI=1S/C7H9NO/c1-2-7-3-8-6-4(7)5(7)9-6/h4-5H,2-3H2,1H3	InChI=1S/C7H9NO/c1-2-7-3-8-6-4(7)5(7)9-6/h4-5H,2-3H2,1H3/t4-,5-,7+/m1/s1
