21
gdb 106671	2.53232	1.27237	1.01159	2.398	79.21	-0.2329	0.0662	0.2992	1273.4624	0.180339	-424.191667	-424.181853	-424.180908	-424.226246	36.582	
C	-0.0083539369	 1.5123043767	-0.0501184165	-0.412325
C	 0.1727374694	 0.0108372117	 0.0263245879	 0.115986
O	 1.2542965794	-0.4931606567	-0.8173421342	-0.363012
C	 1.7875144062	-1.2389058395	 0.2913084223	 0.424794
C	 2.3125231511	-2.6008616698	-0.0311834262	-0.172866
O	 3.4546864225	-2.5381651587	-0.8732277471	-0.412681
C	 2.2524496839	-0.2887896283	 1.3516826218	-0.388458
C	 0.7797746819	-0.6633503054	 1.2648863141	 0.168367
C	-0.0081838959	-1.2579846967	 2.3955650482	-0.495765
H	 0.8881314843	 2.0436650983	 0.2794319582	 0.123025
H	-0.2265250219	 1.8144737673	-1.0794474946	 0.12857
H	-0.8497168898	 1.822590563	 0.5790646849	 0.118095
H	-0.7593123015	-0.4972227184	-0.2596972302	 0.077067
H	 2.6267737658	-3.1091290125	 0.8859943896	 0.109837
H	 1.5137626374	-3.2009930925	-0.4945547788	 0.091881
H	 3.1974384605	-2.0273895097	-1.6490834951	 0.294584
H	 2.7725283353	-0.7434665487	 2.1900378714	 0.113336
H	 2.6129202348	 0.6968056501	 1.0718946518	 0.112319
H	-0.3973241318	-0.4774340184	 3.0606443637	 0.124418
H	-0.8619903663	-1.8387955804	 2.0283357626	 0.119715
H	 0.6114168615	-1.9234135815	 3.0049383061	 0.123112
62.684	113.8023	165.2139	182.6364	204.1073	219.1681	297.5015	304.853	336.2308	390.0529	449.0279	479.7895	566.3786	617.5249	710.3242	776.5812	855.131	873.0733	909.3575	940.317	966.9862	984.2715	1047.5559	1054.0816	1059.5895	1087.2347	1108.818	1128.968	1146.8634	1231.1585	1244.7273	1266.985	1333.3855	1374.6093	1378.607	1399.304	1413.3508	1419.2354	1442.0304	1484.2997	1486.7267	1491.0256	1493.3381	1498.2418	1513.3493	2981.5171	2999.7886	3021.5698	3037.891	3078.7292	3079.7427	3098.7338	3105.1253	3116.1636	3122.3748	3204.3053	3805.3613
CC1OC2(CO)CC12C	C[C@H]1O[C@@]2(CO)C[C@@]12C	
InChI=1S/C7H12O2/c1-5-6(2)3-7(6,4-8)9-5/h5,8H,3-4H2,1-2H3	InChI=1S/C7H12O2/c1-5-6(2)3-7(6,4-8)9-5/h5,8H,3-4H2,1-2H3/t5-,6+,7-/m1/s1
