18
gdb 92680	2.84132	1.36091	1.02332	5.2538	79.99	-0.226	-0.0413	0.1847	1179.7397	0.148008	-398.153458	-398.144331	-398.143387	-398.187681	32.574	
C	 0.0657586629	 1.5575845051	 0.0784030435	-0.401541
C	-0.0198449445	 0.0295565102	 0.0070077539	 0.003049
C	 0.8101547651	-0.57682339	-1.1647898912	-0.188967
N	 2.0181068683	-1.175190015	-0.5690813451	-0.317816
C	 1.8059936166	-1.163698557	 0.696074733	 0.303951
C	 2.754013345	-1.7109657021	 1.6326750378	 0.260493
N	 3.4942581712	-2.1391857047	 2.4099479117	-0.33416
N	 0.6191714287	-0.6382415848	 1.1552651913	-0.112193
C	 0.3037317046	-0.3289037349	 2.5320794679	-0.355172
H	 1.1086774697	 1.8875465969	 0.1297007203	 0.133047
H	-0.3851511788	 1.9916486277	-0.8195537813	 0.127822
H	-0.4681976611	 1.9593337266	 0.9446040608	 0.122687
H	-1.0719567184	-0.272860569	-0.0452689814	 0.089009
H	 0.2561492162	-1.3625011984	-1.6930300364	 0.122583
H	 1.0879708504	 0.1786252778	-1.9063822752	 0.1196
H	 0.8526927476	-1.0054557566	 3.1903530395	 0.16338
H	 0.5592992684	 0.7023917965	 2.8114790222	 0.129627
H	-0.7667875018	-0.4775278686	 2.7092788587	 0.134601
64.3571	98.8687	153.9109	164.3135	181.1513	265.9414	297.3193	369.4609	392.607	456.2366	536.1184	583.8547	679.2948	711.2038	763.587	862.2859	921.1359	931.3428	1007.9475	1063.0673	1102.4491	1119.3129	1152.2223	1168.4314	1229.6237	1268.3293	1286.8881	1330.9744	1375.0003	1405.011	1430.0423	1469.2873	1482.9468	1487.1943	1495.428	1502.9952	1527.4045	1656.1724	2364.184	3006.4971	3024.1941	3036.8878	3039.6862	3071.0797	3076.5115	3110.9048	3113.4751	3130.6533
CC1CN=C(C#N)N1C	C[C@H]1C[N][C](C#N)N1C	
InChI=1S/C6H9N3/c1-5-4-8-6(3-7)9(5)2/h5H,4H2,1-2H3	InChI=1S/C6H9N3/c1-5-4-8-6(3-7)9(5)2/h5H,4H2,1-2H3/t5-/m0/s1
