22
gdb 13212	3.86273	1.16552	0.96742	1.973	77.76	-0.2413	0.0724	0.3136	1271.4548	0.199653	-350.190919	-350.181587	-350.180642	-350.225293	33.73	
C	-0.1458548694	 1.5600766887	-0.0246929373	-0.391775
C	-0.0209731757	 0.0342086295	-0.0816686831	-0.17019
C	 0.8295835251	-0.5016477531	-1.2492726023	 0.020053
C	 2.2996943268	-0.0683270033	-1.1506514898	-0.400833
C	 0.7265330147	-2.0246000989	-1.3291708137	-0.006643
C	-0.6255309166	-2.6477822865	-1.748729019	-0.094025
O	-0.0144568471	-3.3545044337	-2.8464658595	-0.274167
C	 1.2609720416	-2.7308069853	-2.597025966	-0.095614
H	 0.8198773421	 2.0450185945	 0.1468037319	 0.119085
H	-0.5559837715	 1.9580231217	-0.9597952854	 0.114787
H	-0.8136651949	 1.866674047	 0.7863870082	 0.113574
H	 0.4008195295	-0.3361735681	 0.86317841	 0.092766
H	-1.027548079	-0.3978561291	-0.15255208	 0.097165
H	 0.4139957814	-0.0930273289	-2.1836161552	 0.069733
H	 2.4062194994	 1.0196210969	-1.1737027739	 0.117688
H	 2.7502488589	-0.4286107016	-0.2177971338	 0.112508
H	 2.8889967338	-0.4710518426	-1.9810630216	 0.115978
H	 1.1217720539	-2.4684903179	-0.4092573183	 0.07354
H	-1.1009107242	-3.3309493881	-1.0349152902	 0.100011
H	-1.3751322508	-1.9222562073	-2.0964512921	 0.093222
H	 1.5499185394	-2.0515999994	-3.4120385049	 0.093433
H	 2.0582864226	-3.4699285945	-2.4546883937	 0.099703
69.0959	97.4291	104.3574	158.7379	216.3579	229.3571	279.3334	314.7325	389.4587	426.3826	469.8434	740.0171	784.9549	838.2909	878.1936	894.4927	959.4414	975.415	987.7941	1004.1585	1028.1725	1041.5479	1054.6243	1097.3373	1155.4697	1162.9914	1167.3163	1185.2497	1215.0908	1269.2735	1283.5976	1307.7539	1312.5525	1353.8783	1371.0197	1383.598	1406.5082	1412.1057	1417.1332	1483.2279	1497.0689	1499.7163	1506.6644	1510.9735	1511.89	1536.746	2982.3449	2990.1211	3002.4217	3010.2662	3028.5146	3034.0147	3037.6062	3044.4327	3047.4036	3062.429	3092.2088	3098.9601	3104.6122	3112.6412
CCC(C)C1COC1	CC[C@@H](C)C1COC1	
InChI=1S/C7H14O/c1-3-6(2)7-4-8-5-7/h6-7H,3-5H2,1-2H3	InChI=1S/C7H14O/c1-3-6(2)7-4-8-5-7/h6-7H,3-5H2,1-2H3/t6-/m1/s1
