18
gdb 108285	2.89118	1.33154	1.05917	4.788	72.35	-0.2374	0.0084	0.2458	1166.7142	0.147364	-439.080148	-439.071739	-439.070795	-439.113362	31.496	
C	-0.1114287553	 1.5812907145	 0.0444132276	-0.388336
C	 0.0353428576	 0.0568129387	-0.0479885141	-0.271127
C	 0.7257760321	-0.5409961183	 1.1570221006	 0.333769
C	 2.256684545	-0.3802504645	 1.3491814171	-0.117084
O	 2.4163770923	-1.7889014683	 1.6323121434	-0.283576
C	 1.012613831	-2.0498930923	 1.4214715255	-0.13279
C	 0.2182670551	-1.8660492395	 2.7449315574	 0.437749
O	-0.0465013336	-2.52707347	 3.7091051816	-0.353839
N	-0.0292474403	-0.5400642414	 2.4190027621	-0.381691
H	 0.8631194341	 2.0731136068	 0.1371544884	 0.122717
H	-0.6010521628	 1.9812750275	-0.8477377325	 0.126113
H	-0.7168935703	 1.869292138	 0.9103688723	 0.119843
H	-0.9525295218	-0.4063527085	-0.1514359092	 0.111883
H	 0.6074097456	-0.2064520164	-0.9454943039	 0.109965
H	 2.7976019479	-0.1030969768	 0.4360375228	 0.108177
H	 2.5802501181	 0.2573796994	 2.1790559548	 0.107496
H	 0.8106542521	-2.8874592814	 0.7528195139	 0.102769
H	-0.2520324568	 0.2279898725	 3.0385734523	 0.24796
78.7496	123.306	166.255	224.1547	236.088	340.5638	349.7958	409.3678	469.2213	512.1275	640.4804	699.7375	757.8595	789.381	824.1694	896.4498	949.0346	980.1309	987.7932	1001.6346	1022.7611	1028.8636	1112.9207	1136.0735	1159.2712	1167.3968	1223.8761	1264.2387	1276.2316	1310.3787	1343.0408	1353.9569	1395.13	1414.1705	1477.4894	1502.5444	1505.0292	1511.3938	1898.2394	3020.0004	3033.1545	3036.0835	3069.9814	3075.9965	3102.9529	3112.6718	3115.0228	3580.2628
CCC12COC1C(=O)N2	CC[C@]12CO[C@H]1C(=O)N2	
InChI=1S/C6H9NO2/c1-2-6-3-9-4(6)5(8)7-6/h4H,2-3H2,1H3,(H,7,8)	InChI=1S/C6H9NO2/c1-2-6-3-9-4(6)5(8)7-6/h4H,2-3H2,1H3,(H,7,8)/t4-,6-/m0/s1
