16
gdb 98251	2.61037	1.23731	0.94146	5.401	62.56	-0.268	-0.0104	0.2576	1234.1049	0.122217	-512.219562	-512.209807	-512.208863	-512.254906	34.068	
C	-0.1708804426	 1.3546527031	 0.0877257187	-0.247276
O	-0.1120792639	-0.0690614727	-0.0954735847	-0.24731
C	 0.6991903929	-0.4879377782	-1.1039107667	 0.401774
O	 1.3228796771	 0.2485471777	-1.8113502791	-0.327263
C	 0.6819823408	-2.0214989167	-1.177519727	-0.063488
O	 1.1456399384	-2.4744584535	-2.4003586569	-0.407972
C	 1.5576897937	-2.6279219129	-0.0465831524	 0.369084
N	 1.1950090967	-2.3368903328	 1.2206630322	-0.513929
O	 2.491466583	-3.346506495	-0.3542570613	-0.366429
H	 0.8153611703	 1.7512043805	 0.3413838216	 0.145965
H	-0.5211423853	 1.8393426926	-0.8260563497	 0.153116
H	-0.8740324855	 1.5219116977	 0.9035099917	 0.135237
H	-0.3566914803	-2.3390137206	-1.0018603483	 0.121215
H	 1.9542252819	-2.9752119202	-2.190016744	 0.300972
H	 0.4942057368	-1.6359018575	 1.3985019829	 0.275275
H	 1.7733683163	-2.6688779815	 1.975267613	 0.27103
63.0434	71.2143	109.3393	123.4367	205.5788	247.054	323.2604	336.3443	358.8434	382.1707	458.884	506.2889	548.5426	649.6998	668.0128	678.4391	774.5371	902.4421	928.988	1008.7825	1118.7711	1166.3776	1179.1536	1195.8233	1210.1109	1230.3339	1338.1147	1386.1987	1447.9784	1471.3947	1481.1018	1497.5145	1619.5172	1797.9965	1860.2066	3002.9451	3056.0582	3134.7374	3162.3566	3589.2492	3632.4315	3723.9375
COC(=O)C(O)C(N)=O	COC(=O)[C@@H](O)C(=O)N	
InChI=1S/C4H7NO4/c1-9-4(8)2(6)3(5)7/h2,6H,1H3,(H2,5,7)	InChI=1S/C4H7NO4/c1-9-4(8)2(6)3(5)7/h2,6H,1H3,(H2,5,7)/t2-/m0/s1
