18
gdb 23099	2.29289	1.36579	1.01298	0.9895	80.81	-0.2443	0.0017	0.246	1213.6511	0.146913	-401.890588	-401.881776	-401.880832	-401.924256	33.43	
O	-0.1709835207	 1.3511574115	 0.2751355058	-0.393805
N	-0.0006174041	-0.044477134	 0.2983446922	-0.221826
C	-1.0788886907	-0.6397587199	-0.01143399	 0.411252
C	-2.4329126831	-0.0414350184	-0.3233461542	-0.291058
C	-3.3427144383	-1.2610162244	-0.5813896094	-0.220119
C	-2.6706872589	-2.4088314048	 0.1963252367	-0.21997
C	-1.1523243724	-2.1671798842	-0.0271586519	-0.250865
C	-0.7005407449	-2.7068599802	-1.3088505331	 0.354826
C	-0.3501944682	-3.1526717514	-2.3690028546	-0.491534
H	 0.7025742562	 1.6660579773	 0.5308012703	 0.306925
H	-2.7652026163	 0.546229161	 0.5412451186	 0.129231
H	-2.3782679942	 0.6577702584	-1.162584668	 0.131904
H	-4.3770804727	-1.0918470815	-0.2731228094	 0.101878
H	-3.3516555714	-1.5021703645	-1.6491314665	 0.119748
H	-2.8844335817	-2.3176171533	 1.2674418612	 0.104643
H	-2.9857087086	-3.4013679959	-0.1307799613	 0.113284
H	-0.5405617189	-2.5880333916	 0.776076699	 0.117855
H	-0.0240482713	-3.543638224	-3.3007716054	 0.197631
65.3442	113.3629	147.2781	225.4539	248.2293	312.9396	383.7994	436.0331	449.1926	518.5051	550.2998	620.501	628.9603	633.5459	710.8689	819.2768	837.6832	851.6084	901.7854	936.7204	979.9463	988.1583	1036.9127	1076.324	1147.6428	1166.0153	1208.5443	1241.7523	1253.2182	1307.7019	1315.5083	1335.0859	1351.4224	1400.9074	1463.2511	1488.1336	1500.2821	1755.3656	2232.4268	3040.7957	3043.5436	3057.1163	3069.4111	3088.1134	3107.2447	3118.8236	3503.9745	3818.5202
ON=C1CCCC1C#C	ON=C1CCC[C@H]1C#C	
InChI=1S/C7H9NO/c1-2-6-4-3-5-7(6)8-9/h1,6,9H,3-5H2	InChI=1S/C7H9NO/c1-2-6-4-3-5-7(6)8-9/h1,6,9H,3-5H2/t6-/m1/s1
