17
gdb 88303	2.42261	1.25956	1.06287	3.1201	73.87	-0.2638	-0.016	0.2478	1196.07	0.134679	-418.024056	-418.014776	-418.013832	-418.059151	32.555	
C	 0.5877558842	 1.3415157802	 0.4966370945	-0.406839
C	 0.4728386696	 0.0884372201	-0.3374365258	 0.012814
C	 1.6694128779	-0.4695451177	-1.0666052273	-0.270215
N	 1.1061831624	-1.1386928277	 0.091324385	-0.080162
C	 1.6503656249	-1.4242649096	 1.3192891778	 0.37356
O	 1.1207051621	-1.1604535146	 2.3733935969	-0.333955
C	 2.958241648	-2.2496037325	 1.2580626487	-0.407108
C	 4.1067842276	-1.4206461858	 0.9078152605	 0.261475
N	 4.9973753845	-0.7409056303	 0.622534024	-0.312498
H	 1.6103092607	 1.487533985	 0.8558639223	 0.134505
H	 0.3046357557	 2.2128688857	-0.1017849275	 0.12654
H	-0.0693907249	 1.2874283031	 1.3682402266	 0.152695
H	-0.4984816102	-0.070572901	-0.8030782241	 0.109459
H	 1.5397326907	-0.9809975505	-2.0167738237	 0.131342
H	 2.6177752562	 0.04633835	-0.9434410569	 0.160049
H	 3.1100775189	-2.6913741636	 2.2452524001	 0.179001
H	 2.8588631617	-3.0529255106	 0.5210405689	 0.169339
39.9685	70.644	139.8531	150.4378	190.0304	233.5511	362.1287	378.4485	380.7833	430.8456	460.7839	617.8048	648.6595	756.007	831.6471	912.1343	918.3627	958.053	959.7334	1045.3957	1064.749	1118.0028	1135.8037	1163.4665	1168.2445	1195.4176	1228.7472	1288.5957	1386.8944	1416.423	1445.534	1450.8488	1485.3369	1492.7733	1516.0012	1795.9119	2356.9766	3046.289	3064.5462	3110.9192	3112.9959	3123.5107	3126.1458	3133.018	3204.8442
CC1CN1C(=O)CC#N	C[C@H]1CN1C(=O)CC#N	
InChI=1S/C6H8N2O/c1-5-4-8(5)6(9)2-3-7/h5H,2,4H2,1H3	InChI=1S/C6H8N2O/c1-5-4-8(5)6(9)2-3-7/h5H,2,4H2,1H3/t5-,8?/m0/s1
