18
gdb 89344	1.96397	1.71637	1.12985	2.0517	74.28	-0.2484	-0.0313	0.2171	1126.5841	0.146136	-439.060895	-439.051956	-439.051012	-439.094472	33.226	
C	 0.0708747139	 1.5349475486	 0.0354228254	-0.478297
C	-0.0446338715	 0.0405611235	 0.0609427915	 0.27178
C	-1.3520948157	-0.7643982141	-0.0431673139	-0.301051
C	-0.7778619375	-1.8038199263	 0.9595117136	 0.026277
O	-0.6701968696	-3.0940914579	 0.3963986453	-0.428342
C	 0.5227065712	-0.9902911447	 1.0514947414	 0.181014
N	 1.0958312027	-0.7753664962	-0.2829493594	-0.39752
C	 1.3619084072	-0.8061220488	 2.2432382285	 0.060803
O	 1.1041136007	-1.2928600301	 3.3211423287	-0.276695
H	 1.0872195164	 1.8512239499	 0.280434007	 0.138261
H	-0.1659431716	 1.9124493642	-0.9665855825	 0.131596
H	-0.6272049248	 1.9977300465	 0.7398759176	 0.126973
H	-2.2271896546	-0.2403698612	 0.3468537024	 0.1157
H	-1.5792432521	-1.1576158511	-1.0384528295	 0.112794
H	-1.313850813	-1.8157831747	 1.9143567457	 0.098263
H	-0.2670878437	-3.6738388836	 1.0521528492	 0.292861
H	 0.8658136206	-1.5649374832	-0.8866673049	 0.243626
H	 2.2621032314	-0.1749529108	 2.0810772339	 0.081958
85.2704	124.0815	169.1619	204.5329	226.2089	257.915	331.6479	364.6916	425.0662	471.1719	502.7059	575.2229	628.8247	737.4448	781.5056	792.9125	879.9444	943.6048	969.1584	1037.5252	1042.7211	1089.9204	1106.2999	1126.6995	1147.0542	1180.2991	1210.7779	1241.52	1253.1634	1283.4618	1358.0315	1392.1355	1410.6201	1417.6582	1463.9104	1482.1744	1484.2742	1497.0983	1793.5128	2902.9893	3033.1084	3054.2461	3060.4966	3094.8314	3120.3727	3130.1807	3454.0316	3806.2916
CC12CC(O)C1(N2)C=O	C[C@]12C[C@@H](O)[C@]1(N2)C=O	
InChI=1S/C6H9NO2/c1-5-2-4(9)6(5,3-8)7-5/h3-4,7,9H,2H2,1H3	InChI=1S/C6H9NO2/c1-5-2-4(9)6(5,3-8)7-5/h3-4,7,9H,2H2,1H3/t4-,5+,6-/m1/s1
