15
gdb 65908	3.14503	1.25479	1.06882	3.9344	68.6	-0.2565	-0.0792	0.1772	1118.1431	0.109108	-457.704189	-457.695162	-457.694217	-457.738943	32.047	
O	-0.0038122412	 1.4510059714	-0.1109405498	-0.471015
C	-0.0037515722	 0.0551429716	 0.0014869171	 0.23007
C	 0.1602529831	-0.536780482	 1.4416092445	-0.107849
O	-1.1479762776	-1.1209171231	 1.3942864512	-0.265472
C	-1.4207792776	-0.541946299	 0.1027869139	-0.104031
C	 0.9036021562	-0.630751733	-1.0182544484	 0.205929
O	 0.7231693696	-1.7630125828	-1.4034838867	-0.282977
C	 2.0440837337	 0.1604169228	-1.4638084875	 0.195256
C	 2.9915621107	 0.8228940715	-1.803206006	-0.373479
H	 0.8985700667	 1.7508782071	-0.2801331355	 0.284622
H	 0.9459458485	-1.2871854674	 1.5874808997	 0.111537
H	 0.2466514641	 0.2570793131	 2.1940820874	 0.109498
H	-2.1959420697	 0.2311281929	 0.1413305957	 0.114736
H	-1.6604289576	-1.3022378074	-0.6458230878	 0.127323
H	 3.8358637135	 1.3849097942	-2.124316388	 0.225853
28.2897	84.6468	144.0457	193.22	268.8924	273.5245	290.5995	379.1429	386.9565	469.37	536.7695	665.0656	684.0185	707.9013	736.6348	790.9932	886.8726	946.4043	994.3141	1018.9481	1048.7808	1059.3747	1160.6881	1163.2784	1178.7259	1273.2665	1304.7277	1356.3687	1402.7718	1488.4238	1514.4605	1772.098	2201.5227	3013.1981	3040.1663	3071.6499	3103.7888	3486.4864	3766.5331
OC1(COC1)C(=O)C#C	OC1(COC1)C(=O)C#C	
InChI=1S/C6H6O3/c1-2-5(7)6(8)3-9-4-6/h1,8H,3-4H2	InChI=1S/C6H6O3/c1-2-5(7)6(8)3-9-4-6/h1,8H,3-4H2
