16
gdb 40977	4.18445	1.31608	1.30381	3.108	70.72	-0.2526	-0.0059	0.2467	1008.5932	0.125892	-437.907746	-437.900736	-437.899792	-437.939473	26.956	
C	 0.0057141563	 1.4569185092	 0.327809339	-0.138303
O	 1.1175546427	 1.9394099571	-0.4260543239	-0.27906
C	 1.9297656789	 0.8724776477	-0.8403573439	 0.442668
C	 2.4681123604	 1.1023374213	-2.275853605	-0.242278
N	 3.8954382336	 1.4120242974	-2.1357731727	-0.263133
C	 4.1486707598	 1.2511165932	-0.9046797513	 0.111196
O	 3.166608734	 0.8689081436	-0.0532739494	-0.250989
C	 1.1412019484	-0.3653895921	-0.5207374166	-0.150872
C	 0.0509454955	-0.0342090574	 0.1597028061	-0.098411
H	 0.092278076	 1.7568254893	 1.382837869	 0.12226
H	-0.9099346295	 1.9102323505	-0.0731487186	 0.12159
H	 2.3391996642	 0.215307771	-2.9050522072	 0.117257
H	 1.9292005538	 1.9313078828	-2.7418014083	 0.13283
H	 5.1195758981	 1.3865923497	-0.4402308764	 0.137133
H	 1.4839268635	-1.3540193095	-0.7932884166	 0.118841
H	-0.6988309756	-0.7019110437	 0.5634558058	 0.119271
96.8883	112.2117	233.7947	358.3968	419.212	438.3027	509.0109	536.6632	731.3775	760.8884	788.775	853.0343	872.9749	899.39	950.6102	956.4849	959.5759	980.9439	1010.6784	1036.7265	1040.8448	1119.5935	1147.5225	1154.3046	1201.9167	1209.082	1240.11	1317.3905	1335.9881	1369.8875	1377.8637	1476.9518	1509.2023	1687.7616	1704.7515	2998.6966	3040.113	3050.1897	3101.6017	3209.7338	3217.9465	3242.8935
C1OC2(CN=CO2)C=C1	C1O[C@]2(CN=CO2)C=C1	
InChI=1S/C6H7NO2/c1-2-6(8-3-1)4-7-5-9-6/h1-2,5H,3-4H2	InChI=1S/C6H7NO2/c1-2-6(8-3-1)4-7-5-9-6/h1-2,5H,3-4H2/t6-/m1/s1
