21
gdb 70743	2.43369	1.65051	1.22534	0.3761	78.62	-0.2331	0.0905	0.3236	1101.237	0.1836	-424.208498	-424.200253	-424.199309	-424.240741	32.966	
C	-0.0491052505	 1.5026849552	 0.0147963542	-0.469839
C	-0.0148928758	-0.0114825575	-0.0172978275	 0.307518
C	-0.815869611	-0.8029556395	 1.0061608674	-0.375148
C	 0.6772782125	-0.7352669191	 1.1109643356	 0.078869
O	 1.4001883616	-1.8996429619	 0.8411554304	-0.252298
C	 2.5811766826	-1.6490416475	 0.0848851768	-0.082441
C	 2.3153623725	-1.6163459523	-1.4201394939	-0.071291
O	 1.5024572881	-0.545993542	-1.8607060255	-0.246193
C	 0.1581479063	-0.6229710978	-1.3990600985	-0.153918
H	 0.8278963636	 1.9137608337	-0.4968830306	 0.129693
H	-0.944302098	 1.8913787338	-0.4850104542	 0.115077
H	-0.0516154126	 1.8829870555	 1.0412033562	 0.111227
H	-1.4094885527	-0.2631411491	 1.736445546	 0.111409
H	-1.2372449803	-1.7516674254	 0.6914929521	 0.12081
H	 1.1094639768	-0.1225275256	 1.9043732464	 0.080703
H	 3.0532014962	-0.710106803	 0.4074946025	 0.097954
H	 3.2726387545	-2.4724086794	 0.3008571504	 0.104144
H	 3.2708145798	-1.5121649447	-1.9478691712	 0.103276
H	 1.865778768	-2.5789558782	-1.715141704	 0.093932
H	-0.1798519965	-1.6679515177	-1.4074726801	 0.094417
H	-0.4442112151	-0.0681837879	-2.1273821424	 0.102102
145.1417	164.7517	225.6223	259.9712	327.654	329.9746	349.0007	396.4203	431.885	472.7288	560.8036	578.3642	780.0338	786.1555	843.7775	873.4996	908.3427	931.1222	978.8324	989.1762	989.7233	1038.0946	1060.8662	1096.9359	1120.1496	1128.6508	1134.9002	1146.1528	1194.0264	1255.7103	1301.381	1312.2752	1328.4821	1345.1208	1387.8597	1397.6015	1410.2324	1419.8239	1425.8641	1475.9022	1477.8261	1490.0293	1491.8641	1498.4959	1504.9257	2972.2878	3003.8643	3007.7094	3023.8778	3063.2695	3066.253	3066.636	3082.0748	3087.2514	3101.7158	3131.1297	3219.0064
CC12CC1OCCOC2	C[C@]12C[C@H]1OCCOC2	
InChI=1S/C7H12O2/c1-7-4-6(7)9-3-2-8-5-7/h6H,2-5H2,1H3	InChI=1S/C7H12O2/c1-7-4-6(7)9-3-2-8-5-7/h6H,2-5H2,1H3/t6-,7-/m1/s1
