20
gdb 84930	2.17245	1.63048	1.09876	2.6703	81.94	-0.2187	-0.0138	0.2049	1162.6464	0.172407	-403.160657	-403.151876	-403.150932	-403.194461	33.165	
C	-0.904276984	 1.1817304904	 0.2488812394	-0.398797
C	 0.0262129778	-0.0319847017	-0.0141046203	-0.124174
C	 0.7277671885	 0.143233773	-1.3389762934	-0.068026
C	 2.0105798586	 0.2877132378	-1.6716432835	-0.063937
C	 3.2622441339	 0.3265316599	-0.824443802	-0.222042
N	 3.2140839927	-0.0996222435	 0.5635615361	-0.285136
C	 2.1785108901	 0.5140442154	 1.3955324483	-0.239159
C	 0.8714672235	-0.2548104303	 1.2373087012	 0.357787
O	 0.5270987291	-1.0626269366	 2.0731663295	-0.323747
H	-0.3282718754	 2.104070521	 0.3737581881	 0.12429
H	-1.5830259073	 1.325728687	-0.5971798118	 0.123491
H	-1.5040857477	 1.0183167959	 1.1484200175	 0.135086
H	-0.6186125078	-0.9170605052	-0.0808880316	 0.105024
H	 0.0146341255	 0.1818008095	-2.1626529028	 0.092687
H	 2.2213874847	 0.4390753581	-2.7306662262	 0.088515
H	 4.0333519774	-0.2754402875	-1.3218245457	 0.116552
H	 3.6487670398	 1.3585224871	-0.84929589	 0.120049
H	 3.1641184544	-1.1100486124	 0.6344904907	 0.230325
H	 2.4696484225	 0.4665077108	 2.4492788449	 0.120075
H	 2.0770038636	 1.5647863614	 1.1034681015	 0.111139
51.2271	89.6667	220.797	236.1369	239.6856	285.5074	335.7863	363.7221	448.6122	496.5734	568.8397	677.5526	692.6411	748.9328	772.2072	826.5462	862.7185	921.7608	933.8541	968.3803	1011.7075	1021.2942	1025.7035	1092.3188	1111.8083	1174.9318	1199.2913	1258.4544	1278.2306	1305.6204	1330.4353	1351.0415	1358.7207	1391.5418	1396.5315	1428.9816	1465.4353	1476.6645	1494.7524	1498.2434	1503.5438	1736.141	1790.773	2978.3349	3030.6048	3037.4315	3041.5955	3043.4207	3097.9172	3108.2362	3110.292	3120.1662	3133.8438	3532.7429
CC1C=CCNCC1=O	C[C@H]1C=CCNCC1=O	
InChI=1S/C7H11NO/c1-6-3-2-4-8-5-7(6)9/h2-3,6,8H,4-5H2,1H3	InChI=1S/C7H11NO/c1-6-3-2-4-8-5-7(6)9/h2-3,6,8H,4-5H2,1H3/t6-/m0/s1
