15
gdb 12189	3.95157	1.48533	1.20951	3.6381	70.15	-0.2446	0.025	0.2696	1000.1138	0.117592	-362.648822	-362.640578	-362.639634	-362.68176	28.996	
C	-0.0333020285	 1.4616946681	 0.0097944833	-0.344638
N	-0.0129615921	 0.0233505869	-0.0451029004	-0.069301
C	-1.0832492115	-0.9710416747	-0.0971626384	-0.18302
C	 0.0278803812	-2.0754283362	-0.1061773353	-0.327131
C	 0.086657331	-2.9610151119	-1.2454464917	 0.335471
C	 0.1386770227	-3.684128852	-2.2041849821	-0.457677
C	 1.0286718404	-0.8633043376	-0.0860197226	 0.406899
O	 2.2203027401	-0.7228750129	-0.0887732018	-0.362652
H	 1.0031572364	 1.8064768481	 0.0283973775	 0.165448
H	-0.533132627	 1.8895866402	-0.867584498	 0.132793
H	-0.5432722872	 1.8221846324	 0.911390074	 0.130532
H	-1.735661523	-0.9766172789	 0.7829053205	 0.114514
H	-1.6874118505	-0.9328597987	-1.0088017525	 0.124667
H	 0.0726633638	-2.633092264	 0.8341139453	 0.13177
H	 0.1938495642	-4.3273532789	-3.0472310677	 0.202323
82.1174	121.8503	140.5817	164.907	241.9071	253.607	388.4249	459.7391	552.1492	612.5385	623.2037	643.9217	761.9443	809.0383	841.7403	967.2794	1013.3419	1064.8432	1091.4903	1125.6825	1161.5744	1175.8552	1254.1967	1285.4047	1336.4331	1418.754	1448.7007	1482.5888	1510.4108	1532.7931	1891.1029	2239.744	3017.1075	3036.0949	3069.2718	3069.8852	3089.7144	3132.4465	3504.4229
CN1CC(C#C)C1=O	CN1C[C@@H](C#C)C1=O	
InChI=1S/C6H7NO/c1-3-5-4-7(2)6(5)8/h1,5H,4H2,2H3	InChI=1S/C6H7NO/c1-3-5-4-7(2)6(5)8/h1,5H,4H2,2H3/t5-/m1/s1
