18
gdb 37545	3.86427	1.73178	1.47751	1.8129	80.77	-0.227	0.0097	0.2367	916.633	0.149829	-364.692085	-364.685857	-364.684912	-364.722242	26.769	
C	-0.0755558918	 1.5471917291	-0.0831242754	-0.193328
C	 1.4186635417	 1.2706125458	 0.0094328292	-0.102409
C	 1.1531477859	 0.1288461323	 1.0123837307	-0.046659
C	 1.9041745219	-0.9419176141	 0.1973756517	-0.066564
C	 3.2868543962	-0.9581078274	-0.4062697597	-0.136452
C	 3.1991684362	-0.6739685257	-1.7175417756	-0.044694
C	 1.7808478708	-0.3008352042	-2.1904632086	-0.435585
C	 1.2081032231	-0.0470231392	-0.8141307143	 0.402743
N	-0.0960670309	 0.0245376201	 0.0277711256	-0.238059
H	-0.557836986	 2.0475955716	 0.7631271184	 0.097274
H	-0.4839166	 1.9186088294	-1.0286810752	 0.099111
H	 2.2781995341	 1.9466966666	-0.017451766	 0.067338
H	 0.9594742769	 0.2055300586	 2.0846933649	 0.079452
H	 1.4777952251	-1.9462130106	 0.3181958604	 0.089863
H	 4.1982442325	-1.2672040397	 0.0932925916	 0.095983
H	 4.0323593237	-0.7086363303	-2.4121218098	 0.098072
H	 1.7698374666	 0.5680681323	-2.8563081446	 0.111627
H	 1.3068706941	-1.1377102246	-2.7206808135	 0.122288
209.5448	276.0094	296.4077	411.1505	512.0079	546.0115	672.1348	678.2649	702.3537	778.5434	816.3524	847.6323	871.4889	902.0929	907.6896	918.2637	930.8926	964.3786	978.5926	1022.0273	1061.8954	1071.428	1076.4053	1107.5686	1111.2587	1125.6116	1156.9131	1170.511	1190.9414	1223.9608	1261.1026	1267.7367	1287.3448	1301.9553	1353.1886	1361.2292	1474.4971	1519.0788	1620.5422	3022.307	3024.4609	3035.2487	3061.6364	3075.5511	3090.0437	3093.6706	3177.4383	3201.7924
C1C2C3C4C=CCC24N13	C1[C@H]2[C@@H]3[C@@H]4C=CC[C@]24N13	
InChI=1S/C8H9N/c1-2-5-7-6-4-9(7)8(5,6)3-1/h1-2,5-7H,3-4H2	InChI=1S/C8H9N/c1-2-5-7-6-4-9(7)8(5,6)3-1/h1-2,5-7H,3-4H2/t5-,6-,7-,8+/m0/s1
