19
gdb 77759	2.48505	1.64467	1.14769	4.0913	76.25	-0.2354	0.019	0.2544	1107.7356	0.157074	-422.99549	-422.986591	-422.985647	-423.028274	34.626	
C	-0.1817134174	 1.544883438	 0.7926034019	-0.437845
C	-0.0630713962	 0.0591801777	 0.4905905343	 0.01085
C	 1.0576255301	-0.4631441767	-0.4822431866	-0.260893
C	 1.9977412362	-0.1664398499	 0.7039710712	 0.457209
O	 3.0192257389	 0.3904637231	 0.950121726	-0.331505
C	 0.8154030909	-0.8648381507	 1.4132574524	-0.228607
C	 0.8956625036	-1.8694360524	 0.2188176522	 0.450476
C	-0.2812241463	-2.76942332	-0.1310428986	-0.482815
O	 2.0779297714	-2.6425002948	 0.3034202297	-0.47422
H	 0.786274466	 2.0028505465	 1.0155304234	 0.143107
H	-0.6170721682	 2.0759745116	-0.0605357579	 0.121052
H	-0.8386073162	 1.7099026295	 1.6532952224	 0.121835
H	-1.042974019	-0.366994211	 0.2761478163	 0.079501
H	 1.1787210361	-0.2478580853	-1.5432051582	 0.081135
H	 0.6717145641	-1.0990270993	 2.4664444676	 0.088722
H	-1.2418463708	-2.25543938	-0.1767800226	 0.129353
H	-0.1133473945	-3.2321193457	-1.1114261741	 0.114529
H	-0.3530546152	-3.5731724291	 0.6072676004	 0.136795
H	 2.1902095064	-3.1231360515	-0.5238180298	 0.281321
161.2868	180.4224	205.1799	209.722	222.7395	252.8131	282.691	400.2318	442.1578	453.3908	484.3958	513.2099	629.5225	704.5061	734.8621	770.2845	792.2546	831.9441	944.6996	957.0734	1014.2146	1042.2078	1053.1289	1078.8914	1095.463	1110.1359	1122.7581	1144.4078	1207.4044	1209.6799	1227.3078	1243.3162	1364.1501	1388.6713	1419.9054	1426.7707	1491.4483	1496.516	1497.3086	1502.595	1925.9009	3033.6427	3034.9976	3096.7043	3098.364	3104.743	3121.3262	3129.8029	3141.5362	3143.9987	3806.9425
CC1C2C(=O)C1C2(C)O	C[C@H]1[C@H]2C(=O)[C@@H]1[C@]2(C)O	
InChI=1S/C7H10O2/c1-3-4-6(8)5(3)7(4,2)9/h3-5,9H,1-2H3	InChI=1S/C7H10O2/c1-3-4-6(8)5(3)7(4,2)9/h3-5,9H,1-2H3/t3-,4-,5+,7+
