17
gdb 90639	3.85326	1.08864	1.02123	3.2372	75.05	-0.2398	0.0064	0.2462	1205.4459	0.135518	-417.971569	-417.963049	-417.962104	-418.00443	32.262	
C	-0.1093341686	 1.4366129386	-0.0689746062	-0.38982
C	 0.0205952168	-0.0699235283	 0.0761606981	 0.031292
N	 1.0643574892	-0.6427919327	-0.8400864086	-0.329041
C	 1.8412054491	-1.1141922008	 0.2931421183	-0.081514
C	 0.8431270949	-0.5346348656	 1.2866929356	-0.142349
C	 1.0253669383	-2.0296741343	 1.2132707388	 0.246083
O	-0.0272480394	-2.8086163547	 0.7305481941	-0.451668
C	 1.7744807436	-2.6225591737	 2.2990024042	 0.23341
N	 2.3869806595	-3.1294846593	 3.1399437043	-0.338777
H	 0.8667280049	 1.9216359544	 0.0235512237	 0.126381
H	-0.5212097981	 1.6866828372	-1.0512204672	 0.124045
H	-0.7781118008	 1.8416474651	 0.6984399441	 0.116702
H	-0.9551399026	-0.5572882814	-0.0091924648	 0.100626
H	 0.7223476851	-1.3906901149	-1.4389653174	 0.219995
H	 2.9255754212	-1.1335443563	 0.2871824697	 0.116374
H	 1.0035928984	 0.0178587095	 2.203301022	 0.120466
H	 0.3371244085	-3.6290520428	 0.3780053713	 0.297795
118.3159	139.7943	171.642	237.4087	249.8793	299.3127	333.4122	377.5224	462.237	500.2701	559.7344	610.5674	684.6822	733.6875	839.3999	850.1795	898.1359	917.2516	948.5052	1019.0001	1024.9474	1059.2467	1093.8077	1118.0357	1131.536	1161.9483	1231.0883	1258.54	1279.5015	1316.0791	1357.5467	1383.4619	1399.3745	1411.4245	1486.72	1493.264	2341.9985	3035.4649	3065.1507	3107.9395	3119.3051	3172.7837	3205.0066	3487.2935	3792.9395
CC1NC2C1C2(O)C#N	C[C@H]1N[C@H]2[C@@H]1[C@]2(O)C#N	
InChI=1S/C6H8N2O/c1-3-4-5(8-3)6(4,9)2-7/h3-5,8-9H,1H3	InChI=1S/C6H8N2O/c1-3-4-5(8-3)6(4,9)2-7/h3-5,8-9H,1H3/t3-,4-,5+,6-/m1/s1
