15
gdb 133551	2.98997	1.31341	1.31009	2.633	58.11	-0.2539	0.0798	0.3337	1001.8131	0.110311	-548.244591	-548.237223	-548.236279	-548.277304	27.828	
F	 0.0432601867	 0.0906300987	 0.0260128505	-0.077465
C	-0.056032968	 1.4288310714	 0.0656132089	 0.186688
F	 1.1885633496	 1.9324573507	 0.0229472979	-0.080667
F	-0.6967178343	 1.8269468978	-1.0372658009	-0.065422
C	-0.767372239	 1.8655800688	 1.3167210083	 0.17236
C	-2.2504337839	 1.6442518941	 1.6991908476	-0.238403
C	-1.5903278274	 2.5298992307	 2.7888485087	-0.033772
C	-0.3694852526	 1.5663523019	 2.7860006538	-0.273022
N	-0.9751933204	 3.331107067	 1.6435418656	-0.350421
H	-2.9741559836	 2.1462124079	 1.058402493	 0.124145
H	-2.542127302	 0.6331458115	 1.9833181055	 0.109629
H	-2.0662348	 3.0223247341	 3.6357131965	 0.097796
H	-0.5108030786	 0.5472836392	 3.157061836	 0.108488
H	 0.5815995787	 1.9935113636	 3.1144748979	 0.106901
H	-0.0818743052	 3.7263182026	 1.9552469406	 0.213166
45.9016	157.7452	162.6624	350.3177	383.6536	388.6799	528.9106	553.1572	579.6971	618.2552	737.4427	785.0539	807.4862	905.3175	938.9256	951.3716	966.7784	993.1813	1062.7357	1095.3229	1136.5052	1144.027	1146.7789	1179.7816	1190.014	1207.1732	1221.4309	1232.5035	1289.2619	1302.0813	1399.9925	1481.1579	1527.7158	3049.3328	3091.7384	3121.344	3128.9125	3173.7872	3384.8269
FC(F)(F)C12CC(C1)N2	FC(F)(F)[C@@]12C[C@@H](C1)N2	
InChI=1S/C5H6F3N/c6-5(7,8)4-1-3(2-4)9-4/h3,9H,1-2H2	InChI=1S/C5H6F3N/c6-5(7,8)4-1-3(2-4)9-4/h3,9H,1-2H2/t3-,4+
