20
gdb 119494	4.11332	1.00426	0.9379	1.2175	79.54	-0.2074	0.0789	0.2863	1340.7523	0.169748	-403.048528	-403.039924	-403.038979	-403.082218	33.157	
C	-0.1172960182	 1.5280975575	-0.0528043348	-0.387751
C	-0.060643602	 0.01739479	-0.1916604531	-0.058545
O	-1.3194197044	-0.5149436225	 0.2183182886	-0.288459
C	-1.3889098477	-1.8850883603	 0.1377225857	 0.451617
C	-1.5923710231	-2.6484149172	-1.1431811614	-0.352834
C	-2.6228900135	-2.7379185724	-0.0282714387	-0.163565
C	-2.1348835763	-3.6322500256	 1.1502025196	-0.04671
N	-0.7990657824	-4.1997869027	 0.8190636941	-0.337339
C	-0.9256329432	-2.8075903957	 1.3201248942	-0.136756
H	 0.8325024197	 1.9745905518	-0.3620607773	 0.115183
H	-0.9150378761	 1.9407604199	-0.6770344374	 0.12694
H	-0.3136521912	 1.8131051708	 0.9847671425	 0.125747
H	 0.1434807811	-0.277290047	-1.2314149591	 0.097302
H	 0.745299209	-0.4015152323	 0.4302072339	 0.092217
H	-1.9168264011	-2.0162821894	-1.9645687573	 0.109456
H	-0.9832623056	-3.5013885945	-1.4133145812	 0.138675
H	-3.6510480329	-2.4292586401	-0.160498049	 0.097999
H	-2.7722589936	-4.0969084968	 1.8909678478	 0.094244
H	-0.5167918166	-4.7792294804	 1.6098496682	 0.228409
H	-0.427851022	-2.4665536929	 2.2188142347	 0.094172
60.2982	88.083	130.8473	242.4829	301.3538	331.569	363.8784	415.7118	451.1408	557.1202	678.6515	727.5344	800.5236	816.7858	817.4303	836.5184	862.0588	895.6311	912.7992	930.216	977.3089	993.5754	1012.6552	1052.4714	1074.0952	1088.9488	1093.4353	1122.537	1143.7567	1185.1738	1193.3805	1217.0477	1287.3844	1291.5726	1304.0824	1341.8287	1378.1599	1401.8439	1425.5253	1474.1523	1483.3021	1499.5403	1526.6265	2983.7522	3017.6631	3044.5264	3119.001	3120.9977	3135.0488	3190.4853	3202.2569	3209.8369	3232.4445	3465.8277
CCOC12CC1C1NC21	CCO[C@]12C[C@H]1[C@H]1N[C@@H]21	
InChI=1S/C7H11NO/c1-2-9-7-3-4(7)5-6(7)8-5/h4-6,8H,2-3H2,1H3	InChI=1S/C7H11NO/c1-2-9-7-3-4(7)5-6(7)8-5/h4-6,8H,2-3H2,1H3/t4-,5+,6+,7+/m0/s1
