18
gdb 49436	2.87846	1.6831	1.44434	1.3828	73.84	-0.2337	-0.0273	0.2064	955.5509	0.14943	-401.925066	-401.917842	-401.916898	-401.957	28.095	
O	-0.609517591	 0.674779263	 0.7432360359	-0.251328
C	 0.146370673	 0.9203461741	-0.1643810962	 0.136851
C	 1.2451106052	 1.9502481951	-0.1356346149	-0.092783
C	 1.3976513402	 2.9197308821	-1.3058248134	-0.084714
C	 0.4906200138	 4.092907711	-1.1897088247	-0.011628
C	-0.7600523659	 4.0304175149	-0.3201716889	-0.258219
C	-0.1873542521	 3.7232075489	 1.0876071741	-0.208727
C	 1.2147976096	 3.2100199738	 0.7791299527	-0.022525
N	 1.7311310381	 4.0692952705	-0.3793272884	-0.145327
H	 0.0789933667	 0.3613713005	-1.1284724973	 0.076897
H	 2.1891120182	 1.4061639393	-0.0001118893	 0.116129
H	 1.9827684074	 2.7284078722	-2.2005719493	 0.095628
H	 0.5238721021	 4.7972864493	-2.0152547036	 0.095628
H	-1.2955387456	 4.9830178106	-0.3455048566	 0.109794
H	-1.4594036382	 3.2598741321	-0.6586782561	 0.115763
H	-0.110646401	 4.6408819545	 1.6792107255	 0.107317
H	-0.7802163507	 2.9961848743	 1.6436856968	 0.135549
H	 1.8993849103	 3.1982183237	 1.6258571638	 0.085696
76.9503	151.4806	193.7186	261.3393	354.1049	474.1095	566.3308	690.6554	702.4643	724.2235	768.723	796.7096	812.6832	855.9267	890.1509	925.4513	970.9718	993.0298	1025.7955	1045.1804	1068.675	1072.3012	1083.7938	1119.7347	1155.6728	1188.2307	1203.11	1229.3138	1267.9205	1285.5007	1314.4405	1321.5878	1343.3883	1363.0461	1407.8542	1422.6822	1479.2099	1509.3708	1817.3773	2844.7144	3029.094	3056.8573	3059.2995	3096.2338	3124.9968	3135.4604	3148.1032	3164.0122
O=CC1C2C3CCC1N23	O=C[C@H]1[C@H]2[C@H]3CC[C@@H]1N23	
InChI=1S/C7H9NO/c9-3-4-5-1-2-6-7(4)8(5)6/h3-7H,1-2H2	InChI=1S/C7H9NO/c9-3-4-5-1-2-6-7(4)8(5)6/h3-7H,1-2H2/t4-,5+,6-,7+,8?/m1/s1
