17
gdb 109204	3.25382	1.14264	0.9805	1.1934	70.49	-0.2284	-0.0346	0.1938	1232.847	0.136375	-455.166425	-455.157789	-455.156845	-455.200367	30.601	
C	 0.0757245053	 1.3108838426	-0.0638367304	-0.234034
O	-0.0089432694	-0.1086646736	 0.0985186084	-0.255586
C	 0.5826558809	-0.5930676157	 1.1862626615	 0.486424
N	 1.188676508	 0.0809762884	 2.0869895119	-0.356797
C	 1.6708810872	-0.8941241068	 3.0625166508	-0.186834
C	 1.433958842	-2.300282714	 2.3979724269	-0.095927
N	 0.4822757773	-1.9771373764	 1.3426273832	-0.360049
C	 2.713620145	-2.9056146504	 1.851365405	 0.157676
O	 2.8952781968	-3.1601388795	 0.6880275981	-0.247894
H	 1.1201537283	 1.6292768394	-0.1147628707	 0.142469
H	-0.4399981545	 1.5319087924	-0.9985724631	 0.132503
H	-0.4075731185	 1.8215185464	 0.7730025157	 0.142719
H	 2.7260754058	-0.724387027	 3.3079260463	 0.110292
H	 1.1068109852	-0.8143040244	 3.999325883	 0.116967
H	 1.0239841013	-3.012214842	 3.1263345802	 0.107147
H	 0.6121054165	-2.5061014352	 0.4866340767	 0.253731
H	 3.4924166728	-3.1078050642	 2.6209703364	 0.087194
65.3753	128.3701	134.4429	156.1372	219.1745	247.1824	312.9624	351.0812	488.6296	596.1537	684.8859	717.5399	729.7349	796.3867	848.2964	914.5617	944.6784	1017.4021	1048.225	1084.1372	1094.6827	1148.9611	1183.9526	1211.2194	1220.9335	1253.8868	1308.068	1330.2196	1372.6445	1407.0826	1444.0841	1478.557	1493.4719	1505.37	1510.7694	1721.9594	1824.8826	2882.9698	3017.1089	3029.5059	3050.2558	3053.7302	3125.6114	3156.9393	3549.6598
COC1=NCC(N1)C=O	CO[C]1[N]C[C@@H](N1)C=O	
InChI=1S/C5H8N2O2/c1-9-5-6-2-4(3-8)7-5/h3-4H,2H2,1H3,(H,6,7)	InChI=1S/C5H8N2O2/c1-9-5-6-2-4(3-8)7-5/h3-4H,2H2,1H3,(H,6,7)/t4-/m1/s1
