15
gdb 51053	2.67904	1.26592	1.00672	3.6675	63.18	-0.2735	-0.0577	0.2158	1156.8003	0.109784	-494.892307	-494.883727	-494.882783	-494.926349	29.642	
O	-0.0788463308	-0.0430967881	-0.1182172265	-0.263566
C	-0.0350513136	 1.1395825996	 0.0108808751	 0.170455
O	 1.1290428907	 1.8306786246	-0.1310379822	-0.229822
C	 1.0817998012	 3.2327916683	-0.0333622247	 0.228653
C	 0.8455496771	 3.8892906777	 1.3606971724	-0.128419
O	 2.0458503236	 4.6673135225	 1.2274414805	-0.26154
C	 2.4774373409	 3.8827598	 0.0986586161	-0.1248
C	 0.2354993062	 3.871192049	-1.120313439	 0.135379
O	-0.4689217317	 3.2571676748	-1.8745510204	-0.246482
H	-0.8922500068	 1.7780722881	 0.2831280235	 0.093246
H	-0.0438369079	 4.5152447169	 1.4890857846	 0.124842
H	 0.9036035201	 3.1504207645	 2.1704623704	 0.127511
H	 3.2395676028	 3.1398608606	 0.3604879055	 0.136165
H	 2.8274915574	 4.5052937578	-0.7308726976	 0.125865
H	 0.3160553007	 4.9797598539	-1.1494850778	 0.112514
79.9981	106.6795	114.0402	146.5845	224.474	285.4827	321.1891	374.3355	448.551	468.2795	614.761	797.0276	869.8445	899.3817	940.4981	988.9867	1009.2631	1029.8117	1037.4924	1103.601	1135.1033	1153.3269	1167.5486	1204.5161	1280.5833	1301.7608	1375.0152	1409.9338	1433.4034	1500.7844	1527.538	1838.0805	1877.8096	2903.9858	2996.0209	3017.4046	3035.8676	3079.0865	3091.3847
O=COC1(COC1)C=O	O=COC1(COC1)C=O	
InChI=1S/C5H6O4/c6-1-5(9-4-7)2-8-3-5/h1,4H,2-3H2	InChI=1S/C5H6O4/c6-1-5(9-4-7)2-8-3-5/h1,4H,2-3H2
