19
gdb 94995	2.80559	1.7404	1.33952	2.0714	73.15	-0.2321	0.0708	0.3029	990.4912	0.161727	-422.993741	-422.986548	-422.985604	-423.025073	29.605	
O	-0.0106511337	 1.4402639082	-0.0082151439	-0.442008
C	 0.0529191146	 0.0200932912	-0.0199950969	 0.13168
C	 0.8957815092	-0.5080211848	 1.1511377195	-0.225436
C	 0.8505142184	-2.0410268708	 1.3105636341	-0.243914
C	-0.5166522011	-2.6536030822	 1.0536532099	-0.044821
C	-1.8607129632	-2.0461429351	 1.3764897493	 0.086608
O	-1.8550881951	-0.6176270426	 1.3974112309	-0.313376
C	-1.3392455835	-0.6031677485	 0.0234068971	 0.069511
C	-1.4015096101	-2.1343445513	-0.057755625	-0.176471
H	-0.4208493968	 1.6960911576	 0.8263267487	 0.284326
H	 0.5127152747	-0.239890602	-0.9821711601	 0.088254
H	 1.9294525308	-0.1690690238	 1.0346239602	 0.098505
H	 0.502899481	-0.0436192781	 2.0611525482	 0.107944
H	 1.5514672852	-2.502899591	 0.6020977165	 0.101685
H	 1.2078545671	-2.311056822	 2.311465368	 0.102473
H	-0.544568303	-3.739015598	 1.1337872601	 0.088771
H	-2.6496394768	-2.5484631078	 1.9248860407	 0.103514
H	-2.0348704251	-0.0724309008	-0.6326310755	 0.087112
H	-1.7613913426	-2.713819518	-0.8970519618	 0.095643
122.6319	208.6947	283.8822	345.1296	369.1053	392.0627	469.4988	509.5668	615.2102	691.2163	718.4481	774.2814	806.5805	851.3038	875.6774	915.9929	947.1611	958.8366	1005.7168	1013.8056	1044.2655	1052.6909	1064.1375	1087.4997	1108.0048	1129.7624	1140.3586	1196.6138	1235.5742	1247.959	1279.0848	1295.0632	1309.2119	1333.5891	1362.8478	1376.1244	1392.9917	1423.6893	1441.6599	1479.6957	1495.8198	3013.1781	3034.0595	3044.8934	3057.0124	3073.5458	3096.6357	3128.4963	3175.9351	3201.7049	3793.1159
OC1CCC2C3OC1C23	O[C@H]1CC[C@H]2[C@H]3O[C@@H]1[C@@H]23	
InChI=1S/C7H10O2/c8-4-2-1-3-5-6(3)9-7(4)5/h3-8H,1-2H2	InChI=1S/C7H10O2/c8-4-2-1-3-5-6(3)9-7(4)5/h3-8H,1-2H2/t3-,4+,5+,6-,7+/m1/s1
