15
gdb 133277	4.83082	1.03589	0.85758	0.1948	75.05	-0.2108	-0.0611	0.1497	1258.1536	0.112912	-458.098388	-458.090606	-458.089661	-458.130797	29.151	
C	-0.0058742833	 1.4240879127	 0.0070868719	-0.344061
N	 0.0485984623	-0.0230033263	 0.0022030921	-0.32362
C	-1.0657298581	-0.6610402885	 0.009024103	 0.420014
N	-2.3373607431	-0.0773949848	 0.0208110408	-0.330181
N	-3.5353420207	-0.7129133946	 0.0281056993	-0.248035
C	-3.4872160859	-1.9929484589	 0.0237987231	 0.339445
F	-4.6467879545	-2.6414576713	 0.0303588851	-0.066857
C	-2.2839680838	-2.7743879091	 0.0119380671	-0.231457
C	-1.1084226813	-2.1134901172	 0.0048649606	-0.106124
H	 1.0099529831	 1.826455808	 0.0000792499	 0.128354
H	-0.5262561497	 1.8360566824	-0.8755811935	 0.106526
H	-0.5118397925	 1.8305983177	 0.9005983679	 0.106551
H	-2.4232437403	 0.9250231581	 0.0244344751	 0.275486
H	-2.3533272747	-3.8553450674	 0.0090334764	 0.132579
H	-0.1500518675	-2.6172315208	-0.0042114787	 0.141379
85.8521	196.4246	207.5839	212.1011	360.9808	374.8567	382.0435	469.2774	494.3391	552.9222	614.4333	625.9352	739.218	785.7891	825.3301	850.6962	991.3464	1014.8858	1049.211	1102.8088	1123.7174	1169.6814	1245.9429	1296.1744	1314.4385	1423.0598	1461.0408	1470.477	1504.0102	1505.2032	1612.8313	1679.4142	1707.4702	2936.8834	2975.4148	3100.1416	3208.1407	3228.0146	3664.7013
CN=C1NN=C(F)C=C1	C[N]C1=CCC(=NN1)F	
InChI=1S/C5H6FN3/c1-7-5-3-2-4(6)8-9-5/h2-3H,1H3,(H,7,9)	InChI=1S/C5H7FN3/c1-7-5-3-2-4(6)8-9-5/h3,9H,2H2,1H3
