19
gdb 82851	3.01773	1.75927	1.74966	2.2705	72.61	-0.2401	0.0757	0.3158	890.886	0.163511	-423.030546	-423.024217	-423.023273	-423.060855	27.605	
O	 0.1079851251	 1.4240208003	 0.0502243437	-0.44664
C	-0.0037246429	 0.0300178649	 0.0091647503	 0.170359
C	-1.4085690303	-0.6524066529	-0.0452036437	-0.095695
C	-2.3278765788	 0.1331322543	-1.010858285	-0.238916
C	-1.7277441677	-0.270925148	-2.3710428763	 0.089379
C	-1.6473919625	-1.799791688	-2.2516228815	-0.227045
C	-0.7771984065	-1.7461190769	-0.9982264536	-0.061665
C	 0.2909571186	-0.6609555659	-1.3360089186	 0.044863
O	-0.3334793721	 0.1176446038	-2.3798170505	-0.303714
H	-0.0359841824	 1.7205992384	-0.8588808632	 0.287348
H	 0.6001308061	-0.3859209398	 0.8220775473	 0.07992
H	-1.8780081326	-0.9468608236	 0.8934166141	 0.065136
H	-3.3714556794	-0.1893919796	-0.938304309	 0.098208
H	-2.2906879503	 1.2099985605	-0.8275382586	 0.107218
H	-2.1993007313	 0.1508745887	-3.2587196023	 0.0771
H	-2.621461673	-2.2695702325	-2.0921328555	 0.101896
H	-1.149835	-2.2619489519	-3.1082173339	 0.105986
H	-0.4232786032	-2.6728071687	-0.5526929014	 0.073793
H	 1.312337693	-0.8982999428	-1.639880842	 0.072471
183.2861	257.6893	423.1381	452.1603	486.129	531.6273	544.0882	598.4259	680.066	771.6357	796.4677	836.4802	842.436	863.492	872.1075	913.4798	937.3174	963.1753	982.0458	990.4768	1023.069	1047.1729	1063.145	1114.3149	1120.5465	1137.1557	1184.5151	1204.411	1209.6071	1229.7553	1251.8179	1279.7039	1292.528	1296.8812	1305.4921	1337.5047	1351.7283	1365.2885	1437.7571	1478.7195	1498.3962	3052.1376	3060.9479	3064.5162	3090.5463	3102.7762	3107.1967	3118.3173	3123.0056	3147.5947	3750.6543
OC1C2CC3CC2C1O3	O[C@H]1[C@H]2C[C@@H]3C[C@H]2[C@H]1O3	
InChI=1S/C7H10O2/c8-6-4-1-3-2-5(4)7(6)9-3/h3-8H,1-2H2	InChI=1S/C7H10O2/c8-6-4-1-3-2-5(4)7(6)9-3/h3-8H,1-2H2/t3-,4+,5-,6+,7-/m1/s1
