13
gdb 42235	4.37124	0.98757	0.87885	1.9934	66.02	-0.2908	-0.1053	0.1855	1241.9549	0.087998	-452.750191	-452.742044	-452.7411	-452.784275	28.185	
N	 0.0216624148	 1.0523490794	 0.6152889949	-0.521677
C	-0.0261556445	-0.0500124354	 0.0338599147	 0.450018
C	-1.1376196147	-1.0032034148	-0.3600275343	-0.375929
C	 0.0397784176	-1.8353677002	-0.9457275294	 0.004368
O	 0.9840096006	-0.8397991991	-0.5052137819	-0.235783
C	 0.2711257672	-3.180549331	-0.2886561627	 0.287145
O	 1.0516443286	-3.3946706773	 0.5975791151	-0.240127
C	-0.6011776382	-4.2476005995	-0.828244674	 0.21507
N	-1.2989339591	-5.0593912979	-1.265449003	-0.284591
H	 0.9766679596	 1.4027070488	 0.7005293126	 0.243221
H	-1.6746634224	-1.4535271502	 0.476204517	 0.160709
H	-1.8473398266	-0.6155139277	-1.0904972936	 0.161385
H	 0.0351712071	-1.9433190451	-2.0354156855	 0.136189
40.7045	73.99	132.1742	203.4928	268.9645	310.6083	421.7426	483.5331	496.315	580.4584	713.5666	753.625	772.4545	868.1314	918.0285	981.2217	983.8206	1005.2552	1028.6024	1112.9219	1121.287	1200.6705	1228.4239	1281.5098	1369.5356	1463.6159	1815.505	1848.2929	2337.5384	3065.1732	3097.0518	3157.5613	3491.0367
N=C1CC(O1)C(=O)C#N	[NH][C]1C[C@@H](O1)C(=O)C#N	
InChI=1S/C5H4N2O2/c6-2-3(8)4-1-5(7)9-4/h4,7H,1H2	InChI=1S/C5H4N2O2/c6-2-3(8)4-1-5(7)9-4/h4,7H,1H2/t4-/m1/s1
