19
gdb 97613	4.00227	0.55631	0.5135	4.0403	83.01	-0.2431	-0.0235	0.2196	2143.6977	0.155369	-423.00657	-422.995573	-422.994629	-423.044925	37.153	
C	 0.176918214	 1.4808457289	-0.3561707074	-0.365436
C	-0.045051594	 0.1453748081	 0.3777078575	-0.318339
C	-1.4195412197	-0.335539696	 0.2840229253	 0.121592
C	-2.563456401	-0.7012479395	 0.180470793	 0.013139
C	-3.9335166766	-1.2037311218	 0.0871623748	-0.074246
O	-4.014870824	-2.4139825921	-0.6661661029	-0.417605
C	-4.5577648563	-1.3827911385	 1.4921091599	-0.276766
C	-6.0068393156	-1.8219641329	 1.4288137925	 0.14771
O	-6.8785271061	-1.3714538675	 2.1280901724	-0.242786
H	 1.2189534694	 1.7986863699	-0.258393775	 0.118483
H	-0.0568337795	 1.3828980621	-1.4194892195	 0.132325
H	-0.4629812937	 2.263390653	 0.0599344568	 0.131432
H	 0.629893469	-0.6163590189	-0.0329916782	 0.133715
H	 0.2311172718	 0.2542503567	 1.4342077674	 0.133314
H	-4.5431572965	-0.4857038103	-0.4760695944	 0.126458
H	-3.2804578315	-2.9734671788	-0.3899402114	 0.286265
H	-3.9876775175	-2.1620326832	 2.0175790541	 0.122005
H	-4.48660769	-0.4630166598	 2.078483481	 0.13122
H	-6.2155433123	-2.6132876894	 0.678300054	 0.09752
25.3892	58.985	67.809	84.8767	130.156	180.6585	219.7105	247.3166	287.6873	335.6031	401.7621	439.0714	512.368	539.9673	563.4025	758.0076	786.1143	808.066	886.1877	966.566	1029.8773	1066.8223	1083.5715	1089.1374	1106.0405	1163.1459	1202.7543	1262.8214	1286.6585	1291.3434	1348.8799	1351.9562	1410.371	1413.4902	1423.079	1449.1988	1473.6811	1495.2674	1505.312	1829.33	2359.1303	2917.3644	3018.2794	3023.1167	3034.8831	3047.2562	3051.1584	3109.3719	3121.3948	3127.4753	3807.0526
CCC#CC(O)CC=O	CCC#C[C@@H](O)CC=O	
InChI=1S/C7H10O2/c1-2-3-4-7(9)5-6-8/h6-7,9H,2,5H2,1H3	InChI=1S/C7H10O2/c1-2-3-4-7(9)5-6-8/h6-7,9H,2,5H2,1H3/t7-/m1/s1
