19
gdb 54932	3.84247	0.90452	0.80855	0.2109	76.96	-0.2472	-0.0253	0.2219	1429.6753	0.156694	-423.048699	-423.039097	-423.038152	-423.084919	33.532	
C	-0.6345792663	 1.4772639423	-0.3828548835	-0.481094
C	-0.0772379426	 0.1844329813	 0.1828644498	 0.369281
O	 0.9811551111	 0.142708629	 0.7698366106	-0.301037
C	-0.9040882751	-1.0622879916	-0.065204465	-0.066619
C	-0.637391178	-1.764649317	-1.4450724239	-0.251647
C	-0.5332406794	-3.1195318175	-0.7072195104	-0.092146
C	-0.4624921459	-2.3550046686	 0.6609251732	-0.265631
C	-1.7671619431	-3.9784638274	-0.792668454	 0.147257
O	-2.76833243	-3.7005328741	-1.4044585747	-0.244528
H	 0.1049308119	 2.2744839036	-0.2999239697	 0.142538
H	-0.9344895583	 1.348086006	-1.4285785146	 0.14176
H	-1.5374657059	 1.7601994412	 0.1713945946	 0.144201
H	-1.9686240492	-0.8417713459	 0.0521791503	 0.0926
H	-1.4388984067	-1.6994631151	-2.1814149623	 0.131026
H	 0.3099426267	-1.4585349904	-1.8943150491	 0.113535
H	 0.3398060406	-3.7441656664	-0.9231533037	 0.095201
H	 0.5577095607	-2.260676907	 1.0355535247	 0.137772
H	-1.1097555544	-2.717956524	 1.4633019918	 0.108632
H	-1.7056969661	-4.9189211985	-0.1971820842	 0.078898
40.2115	40.724	100.6133	122.6482	148.9077	225.0778	287.742	313.1154	397.4938	565.0712	594.1977	620.2233	672.1989	775.4724	821.318	865.3954	910.5022	933.3731	954.4442	978.8424	982.0684	1028.0945	1077.8003	1102.1887	1125.4504	1170.3999	1197.7284	1211.69	1252.1892	1253.9422	1277.1652	1347.8508	1368.2287	1385.0961	1419.969	1462.0756	1464.7661	1475.2642	1488.8493	1804.7147	1821.5202	2865.2209	3034.631	3054.8646	3066.6218	3073.3193	3076.3612	3095.2367	3135.7511	3141.7786	3152.1961
CC(=O)C1CC(C1)C=O	CC(=O)[C@H]1C[C@@H](C1)C=O	
InChI=1S/C7H10O2/c1-5(9)7-2-6(3-7)4-8/h4,6-7H,2-3H2,1H3	InChI=1S/C7H10O2/c1-5(9)7-2-6(3-7)4-8/h4,6-7H,2-3H2,1H3/t6-,7-
