21
gdb 91949	2.35232	1.70377	1.36454	1.8337	81.43	-0.2537	0.0849	0.3386	1061.1614	0.183483	-387.076134	-387.06806	-387.067116	-387.10827	32.641	
C	-0.242886118	 1.5240405015	 0.0232895937	-0.39163
C	 0.0127578979	 0.0107622666	-0.0148038258	-0.090345
C	 0.9357031275	-0.3945304211	-1.2063663181	-0.257109
C	 2.3220769606	-0.5287488962	-0.606606624	 0.045058
O	 2.717434767	 0.5862904309	 0.2080594145	-0.265389
C	 2.2082515904	-0.5947822606	 0.8538516613	-0.03141
C	 0.7597729994	-0.5135443143	 1.2293794875	 0.380017
C	 0.3186476178	-0.2269018003	 2.6395533278	-0.320871
C	 0.1968745441	-1.6246501875	 2.0874833426	-0.326997
H	 0.6988617784	 2.0707790725	 0.1054717086	 0.141738
H	-0.7537577324	 1.8480761453	-0.8901991605	 0.1034
H	-0.8769254386	 1.8004273295	 0.8717558066	 0.105338
H	-0.9524381164	-0.4987101636	-0.1065966244	 0.070073
H	 0.6422524823	-1.3656791846	-1.6227792539	 0.101088
H	 0.898956373	 0.3353318664	-2.0214346638	 0.106235
H	 3.1262851817	-1.0055604444	-1.1620875644	 0.090151
H	 2.9167164484	-1.1194486709	 1.4915221034	 0.088644
H	 1.082067341	-0.0321600628	 3.3856546786	 0.115082
H	-0.5923115114	 0.344367914	 2.7820547379	 0.114877
H	-0.7941820353	-1.9941492173	 1.8453869842	 0.112038
H	 0.8755820528	-2.3865784931	 2.4585391581	 0.110012
110.5516	205.4645	222.063	247.1223	273.7792	334.2291	373.0026	435.9956	492.1483	557.1256	704.3981	754.4822	780.8756	814.1873	853.6094	880.1711	893.7337	926.4512	934.3698	959.4709	969.652	998.2428	1020.8804	1047.3633	1061.1127	1079.1067	1095.9077	1114.3478	1143.282	1189.4438	1224.1798	1238.2402	1263.551	1287.2778	1297.0457	1334.7207	1354.2444	1386.8026	1402.561	1448.0358	1467.5594	1481.6667	1496.2753	1502.248	1511.75	3031.645	3033.9075	3045.9077	3082.1886	3094.8826	3121.8445	3130.1491	3132.1499	3134.2328	3145.8443	3200.9912	3217.1023
CC1CC2OC2C11CC1	C[C@H]1C[C@H]2O[C@H]2C21CC2	
InChI=1S/C8H12O/c1-5-4-6-7(9-6)8(5)2-3-8/h5-7H,2-4H2,1H3	InChI=1S/C8H12O/c1-5-4-6-7(9-6)8(5)2-3-8/h5-7H,2-4H2,1H3/t5-,6+,7+/m0/s1
