23
gdb 109151	2.9622	1.00761	0.9318	1.1388	87.92	-0.2275	0.0312	0.2587	1420.7556	0.204563	-388.317752	-388.307781	-388.306836	-388.352612	38.116	
C	-0.3066652405	 1.6094173901	 0.4879739646	-0.373016
C	-0.1645951012	 0.2419690871	-0.2043773647	-0.291658
C	-1.4063858272	-0.5982922334	-0.1393603529	 0.34567
C	-2.1667003185	-0.9841153166	-1.167949745	-0.175543
C	-3.3159642866	-1.8602116065	-0.745136725	-0.314232
C	-3.3456501546	-1.7028397204	 0.8071438924	 0.410759
C	-4.4306331648	-0.7082317233	 1.2314009147	-0.434257
O	-3.5226004866	-2.9434941698	 1.4884401582	-0.478693
C	-1.9338399868	-1.1698106085	 1.1594751079	-0.342564
H	 0.6231375516	 2.1815353105	 0.4117793435	 0.112728
H	-1.1063246923	 2.1979409352	 0.0271447729	 0.118098
H	-0.5426032289	 1.499998277	 1.5510828551	 0.119836
H	 0.1135941571	 0.3935666228	-1.253559026	 0.099693
H	 0.6678762719	-0.3033550249	 0.2626786712	 0.101926
H	-1.9690388307	-0.7340756748	-2.2058230176	 0.080461
H	-4.269612068	-1.5804653235	-1.2113605363	 0.088931
H	-3.1334703763	-2.913204961	-0.999624057	 0.106538
H	-5.425224298	-1.0667941595	 0.9378863425	 0.100549
H	-4.4194287565	-0.5707837603	 2.3168069692	 0.119368
H	-4.274721857	 0.2641338127	 0.7530218034	 0.121698
H	-4.4271687611	-3.237099809	 1.3363608038	 0.271663
H	-1.308109442	-2.0039384422	 1.503620128	 0.115707
H	-1.9634975928	-0.4423657718	 1.9788985571	 0.09634
61.1439	66.1302	162.4279	198.7048	262.6477	285.2353	294.4414	323.9561	348.6747	355.0534	446.4679	460.684	509.6456	554.9783	652.7582	770.7865	794.2268	840.8103	866.0968	917.59	946.3948	963.4342	966.021	969.4736	1001.3259	1065.2605	1075.211	1106.0312	1122.6585	1150.458	1180.884	1209.0277	1264.7011	1274.2372	1299.2284	1304.6264	1356.3786	1363.2484	1385.4762	1401.3876	1407.1481	1477.9663	1480.2206	1483.6884	1494.1452	1498.1345	1499.5834	1508.0189	1716.6728	3006.5554	3008.3167	3019.9633	3022.7536	3036.4863	3040.6056	3057.0651	3058.5183	3089.1355	3107.132	3109.0032	3112.6923	3175.7706	3805.2666
CCC1=CCC(C)(O)C1	CCC1=CC[C@@](C)(O)C1	
InChI=1S/C8H14O/c1-3-7-4-5-8(2,9)6-7/h4,9H,3,5-6H2,1-2H3	InChI=1S/C8H14O/c1-3-7-4-5-8(2,9)6-7/h4,9H,3,5-6H2,1-2H3/t8-/m1/s1
