21
gdb 22282	4.2611	0.82433	0.71316	0.9181	84.87	-0.2195	0.0062	0.2258	1600.3687	0.180207	-420.341966	-420.332062	-420.331117	-420.376713	36.801	
C	-1.451912114	-0.473536418	-0.2268487051	-0.387654
C	 0.0061757565	-0.0488653941	-0.0340694176	 0.074438
C	 0.1559245365	 1.4714273969	-0.1330900515	-0.387721
N	 0.4813185717	-0.5052028489	 1.2661080794	-0.08067
C	 1.9242853838	-0.3229182533	 1.5870533048	-0.266031
C	 1.9235392543	-1.7375419166	 2.1137841478	 0.415542
C	 0.5586346632	-1.9714504114	 1.5093730947	-0.270682
N	 2.756950441	-2.3729965859	 2.8177383133	-0.235115
O	 2.3007400714	-3.6793350862	 3.077768089	-0.394288
H	-2.0833200771	-0.0252008225	 0.5469810055	 0.123094
H	-1.8184510281	-0.1505227139	-1.2058857894	 0.112718
H	-1.5665516791	-1.5604049214	-0.1710838957	 0.116209
H	 0.610272757	-0.5092321857	-0.8449030523	 0.047418
H	-0.4373151198	 1.9626254933	 0.6448864929	 0.123153
H	 1.1979775829	 1.7836120966	-0.0136520279	 0.115509
H	-0.1870238168	 1.8269061755	-1.1093650282	 0.112903
H	 2.5674501462	-0.2067480464	 0.6986999424	 0.107499
H	 2.1458737471	 0.4840232654	 2.2925883068	 0.125457
H	-0.216430374	-2.3808699754	 2.1646593383	 0.129615
H	 0.6079299724	-2.58348829	 0.5932066798	 0.1108
H	 3.0071548146	-4.0352970678	 3.627362343	 0.307807
68.0464	97.7114	141.9278	220.3073	233.9408	238.9653	274.6497	309.9654	326.563	371.5104	439.2762	461.0208	479.3522	552.3826	663.6572	769.2562	885.0062	911.7777	931.5669	948.5157	955.188	979.1274	1050.3956	1058.2289	1081.7477	1100.1712	1151.9006	1165.1312	1190.881	1192.737	1237.2334	1275.7891	1316.129	1366.8129	1374.9041	1399.3874	1411.9689	1417.5083	1477.6998	1485.812	1488.3002	1497.2492	1503.1983	1512.9089	1814.011	2867.6747	2962.0173	2971.5934	3034.9764	3039.3697	3067.7007	3070.3909	3106.5299	3108.704	3109.5676	3115.5673	3818.0282
CC(C)N1CC(C1)=NO	CC(C)N1CC(=NO)C1	
InChI=1S/C6H12N2O/c1-5(2)8-3-6(4-8)7-9/h5,9H,3-4H2,1-2H3	InChI=1S/C6H12N2O/c1-5(2)8-3-6(4-8)7-9/h5,9H,3-4H2,1-2H3
