18
gdb 19065	4.99212	1.62225	1.61006	1.6033	70.61	-0.2355	0.0773	0.3128	864.1625	0.156218	-347.753152	-347.746756	-347.745812	-347.783225	26.811	
O	 0.0968005134	 1.3846094241	-0.0249713714	-0.447577
C	 0.0852324913	-0.0142511442	-0.0412351007	 0.119771
C	-0.3121498313	-0.7536378488	 1.2128220236	-0.095979
C	-1.2419406686	-0.7317507792	-0.0084922124	-0.095978
C	-1.3351350956	-2.2427125247	-0.2926405743	-0.040866
C	-1.5589557835	-2.7916788592	 1.1607241873	-0.205022
C	-0.0892130143	-2.2720396186	 1.3439129425	-0.040867
C	 0.1221437835	-2.7564919402	-0.1184816674	-0.233629
H	-0.6265817154	 1.6922948191	 0.5312927964	 0.281634
H	 0.9005398125	-0.3534890988	-0.668010835	 0.105035
H	-0.5191065467	-0.1739084657	 2.1074508324	 0.078926
H	-2.149224513	-0.1355340761	-0.0337723428	 0.078927
H	-1.9540578048	-2.5566966607	-1.133244305	 0.062087
H	-2.3417452967	-2.3247035018	 1.7650366874	 0.085931
H	-1.6380120826	-3.8816217258	 1.2013803847	 0.091553
H	 0.5506651557	-2.6156534306	 2.1567791736	 0.062087
H	 0.1653133745	-3.846311728	-0.1708770273	 0.096633
H	 0.9272064615	-2.3387113509	-0.7238961516	 0.097334
226.3324	232.4872	305.4187	338.6451	434.6677	490.9481	571.0743	656.1416	774.3623	823.6284	835.7606	845.0308	849.3103	914.9741	923.9805	963.6515	977.4683	1013.4346	1027.3521	1038.5346	1065.9398	1079.2804	1095.34	1101.5534	1118.1539	1128.4355	1165.4162	1216.0461	1236.6666	1236.8711	1257.229	1275.6504	1304.2512	1309.5488	1366.2457	1450.8988	1491.7696	1534.8954	3050.6464	3076.4927	3111.1706	3111.5635	3116.46	3126.1454	3147.6912	3158.3307	3183.9382	3812.0632
OC1C2C1C1CC2C1	O[C@H]1[C@H]2[C@@H]1[C@@H]1C[C@H]2C1	
InChI=1S/C7H10O/c8-7-5-3-1-4(2-3)6(5)7/h3-8H,1-2H2	InChI=1S/C7H10O/c8-7-5-3-1-4(2-3)6(5)7/h3-8H,1-2H2/t3-,4+,5-,6+,7+
