20
gdb 133862	2.70455	1.6461	1.41364	2.7921	80.93	-0.2206	0.0723	0.2929	1018.8859	0.17104	-403.006103	-402.998386	-402.997441	-403.037739	31.855	
C	 1.117620934	-0.2889404289	-0.0510062265	-0.341466
N	 2.5074517989	 0.1556018179	-0.0545141381	-0.136384
C	 2.9279090411	 1.2929336969	 0.8289445109	-0.050379
C	 2.8076873591	 0.3646226469	 2.1195625801	-0.342864
C	 3.4930433343	-0.4433660199	 0.9755565907	 0.294744
C	 4.4733520581	-1.4223831559	 0.3120850729	-0.363516
C	 5.0412884912	-0.1364478302	-0.4701250757	 0.1077
O	 4.6305613257	 0.0212890334	-1.7883260664	-0.420979
C	 4.3853123251	 0.7626096139	 0.6719378487	-0.048821
H	 0.5310707496	 0.4070287845	-0.6602607616	 0.125023
H	 0.6349730052	-0.3632761808	 0.9331029938	 0.104304
H	 1.0647026985	-1.2727812179	-0.5281475839	 0.126938
H	 2.5174912323	 2.3005940501	 0.7037906747	 0.081645
H	 1.8049546534	 0.0968648616	 2.4553597912	 0.106131
H	 3.4436693503	 0.6197756184	 2.9705639339	 0.106773
H	 4.0535215235	-2.2252925569	-0.2993832914	 0.107475
H	 5.2132803708	-1.8286690521	 1.0069453358	 0.108413
H	 6.1328089371	-0.0761234506	-0.456542859	 0.086121
H	 3.6654893127	 0.1173042996	-1.7082941737	 0.274013
H	 5.0896954892	 1.0615223601	 1.4490666534	 0.075127
159.5926	182.7571	214.5733	263.9459	341.1023	408.2091	434.6294	467.0862	558.0952	637.8576	704.5893	711.5582	726.6648	763.5169	779.6409	845.4067	871.8906	885.0916	933.4325	973.1703	1012.9278	1014.0335	1043.9697	1089.3123	1126.1744	1144.7697	1154.8184	1169.1803	1176.5608	1185.4266	1197.3413	1215.2506	1225.7267	1242.5454	1268.7344	1299.5258	1355.1217	1440.9921	1457.0941	1474.7341	1482.4861	1500.3626	1525.1587	3001.609	3051.0026	3056.8405	3067.0615	3072.0653	3075.0093	3099.1164	3106.2042	3122.0128	3134.2667	3627.6446
CN1C2CC11CC(O)C21	CN1[C@H]2C[C@]31C[C@@H](O)[C@@H]23	
InChI=1S/C7H11NO/c1-8-4-2-7(8)3-5(9)6(4)7/h4-6,9H,2-3H2,1H3	InChI=1S/C7H11NO/c1-8-4-2-7(8)3-5(9)6(4)7/h4-6,9H,2-3H2,1H3/t4-,5+,6+,7-/m0/s1
