19
gdb 41504	2.9668	1.59456	1.0903	0.79	86.86	-0.211	-0.0249	0.1861	1114.0097	0.161205	-385.881236	-385.873753	-385.872809	-385.913131	29.826	
C	-0.0193909881	 1.4515536754	-0.1962793067	-0.255604
C	 1.5105433304	 1.5226980088	 0.1208520672	-0.328804
C	 1.3864829128	 0.1160747047	 0.6724190285	 0.322115
C	 1.980065469	-0.615440413	 1.6147250705	-0.263377
C	 1.4869878341	-1.9145596611	 2.0674123982	-0.052806
C	 0.3073266814	-2.5027920555	 1.8124971768	-0.097191
C	-0.8914174669	-2.0047582068	 1.0437717849	-0.142673
O	-0.9896677031	-0.615921466	 0.8069943318	-0.244918
C	 0.040402153	-0.0861532939	 0.0087817949	 0.058404
H	-0.6204079203	 1.9058228428	 0.5937119372	 0.123375
H	-0.3558521637	 1.8135940354	-1.1692930046	 0.101623
H	 2.1227165143	 1.5792511172	-0.7864690549	 0.113119
H	 1.8460154874	 2.30421223	 0.8075229488	 0.115549
H	 2.8924981373	-0.251313599	 2.0823186391	 0.085744
H	 2.1838912536	-2.4761806595	 2.686329972	 0.086174
H	 0.1511004852	-3.501763071	 2.2176708048	 0.089504
H	-0.9651136763	-2.5671928191	 0.0939566034	 0.098802
H	-1.7945816406	-2.2553555398	 1.6141719021	 0.119133
H	 0.1112769205	-0.6311242397	-0.947048284	 0.071831
88.1257	192.6581	248.9322	275.0533	336.0628	395.0565	439.5908	497.6872	611.7648	681.4591	711.1251	771.0754	780.0395	834.5353	875.3604	906.6405	925.4731	951.4675	996.7545	1001.8723	1024.8561	1062.6942	1077.371	1110.7425	1128.6885	1168.5846	1197.3716	1228.4183	1256.8561	1266.914	1274.0232	1285.2519	1358.027	1378.8418	1408.9248	1437.3068	1469.9872	1475.9897	1486.6841	1688.5413	1749.7576	2926.0344	2961.9876	3038.3719	3044.3172	3076.845	3091.9961	3126.6706	3138.6094	3142.2644	3157.0497
C1CC2=CC=CCOC12	C1CC2=CC=CCO[C@@H]12	
InChI=1S/C8H10O/c1-2-6-9-8-5-4-7(8)3-1/h1-3,8H,4-6H2	InChI=1S/C8H10O/c1-2-6-9-8-5-4-7(8)3-1/h1-3,8H,4-6H2/t8-/m0/s1
