25
gdb 121090	3.49703	0.76037	0.65833	0.2752	97.17	-0.224	0.0336	0.2576	1837.4115	0.228799	-352.389206	-352.378876	-352.377932	-352.424963	38.373	
C	 0.0996641951	 1.6568073985	-0.0838328341	-0.379314
C	 0.0337387155	 0.1271882104	-0.0509216837	-0.170218
C	 0.6859374686	-0.4729724201	 1.1997326572	-0.170405
C	 0.6689783402	-2.0091447069	 1.2536485566	-0.010737
C	 1.4724663548	-2.5898266581	 2.4499208585	-0.233138
C	 0.7031060362	-3.8524061626	 2.9011994644	-0.300458
C	-0.689348791	-3.633215373	 2.3430674036	 0.325742
C	-1.8421755521	-4.4956005929	 2.7498988493	-0.489623
C	-0.6934838901	-2.6393527061	 1.4519334064	-0.16675
H	 1.1372761251	 2.0086358556	-0.0606781789	 0.112146
H	-0.3681585153	 2.0592931279	-0.9879230157	 0.108969
H	-0.4143871866	 2.0936740711	 0.7796768198	 0.113074
H	-1.0145467036	-0.1911630445	-0.1114663006	 0.097182
H	 0.525622703	-0.28006833	-0.9444928491	 0.092657
H	 1.7296804886	-0.1321507299	 1.2526968132	 0.087367
H	 0.1904849512	-0.0797270789	 2.0984724366	 0.08844
H	 1.0991206939	-2.3749977984	 0.3063173494	 0.067853
H	 2.5177651419	-2.7894077019	 2.1983338393	 0.091441
H	 1.4718535307	-1.8546948247	 3.2631755817	 0.097774
H	 1.1389721775	-4.7715992898	 2.4820096432	 0.09935
H	 0.7072313842	-3.9860278672	 3.9900689121	 0.095193
H	-2.0212353631	-4.4349433787	 3.8312671796	 0.121859
H	-2.7641808929	-4.2101867197	 2.2357595553	 0.119931
H	-1.6438387	-5.5528744369	 2.5296306767	 0.122209
H	-1.5686501021	-2.3303214833	 0.888893269	 0.079456
62.857	81.8638	104.381	164.9604	171.5499	196.137	244.4028	288.3534	321.2254	384.8959	417.3563	506.1795	590.3842	637.4119	745.0011	823.0045	852.4307	856.5544	887.2708	899.626	905.2983	969.8712	994.7244	1017.4385	1030.04	1040.6796	1063.8147	1085.5134	1129.6388	1136.8308	1179.4082	1191.6417	1245.5348	1253.0942	1278.0299	1282.0806	1318.5858	1323.5372	1343.5451	1351.308	1376.0924	1393.0545	1412.552	1414.2715	1479.0867	1481.5307	1483.7728	1489.1219	1493.7844	1498.9676	1500.1453	1510.4901	1720.6478	2956.5795	2996.4691	2999.9125	3013.4818	3016.5998	3027.8751	3030.6428	3032.6046	3047.025	3054.7555	3057.3042	3090.9057	3094.4925	3099.4146	3107.0023	3176.243
CCCC1CCC(C)=C1	CCC[C@H]1CCC(=C1)C	
InChI=1S/C9H16/c1-3-4-9-6-5-8(2)7-9/h7,9H,3-6H2,1-2H3	InChI=1S/C9H16/c1-3-4-9-6-5-8(2)7-9/h7,9H,3-6H2,1-2H3/t9-/m0/s1
