21
gdb 63376	2.81808	1.23008	1.16575	1.7824	80.21	-0.248	0.0101	0.2581	1195.575	0.179962	-424.242161	-424.232405	-424.231461	-424.275817	38.172	
C	-0.0142415046	 1.5688422247	-0.0351908543	-0.439229
C	 0.0525172002	 0.042288004	 0.007110197	 0.345717
O	-1.2847822671	-0.4988670626	-0.0237049859	-0.469436
C	 0.80349125	-0.5894210188	-1.1836545019	-0.269633
C	 1.5304667212	-1.8370877486	-0.6311618138	 0.363939
C	 0.7679335907	-3.1419543001	-0.8938128132	-0.445382
O	 2.824602259	-1.8853063618	-1.2411860912	-0.479234
C	 1.6036681966	-1.5260000522	 0.8547770644	-0.126627
C	 0.819196408	-0.5095798047	 1.1975140594	-0.124537
H	 0.9878529779	 2.0088249669	-0.0340211979	 0.120642
H	-0.5440578775	 1.9010378282	-0.9329572473	 0.124288
H	-0.5523784135	 1.9572774809	 0.8381443923	 0.100153
H	-1.7200833054	-0.2534356067	 0.7999472846	 0.27183
H	 0.1166361348	-0.8160744233	-2.0017662959	 0.106456
H	 1.5694357237	 0.0977913974	-1.5503979634	 0.112273
H	 0.7528287793	-3.3545430891	-1.9675844553	 0.120587
H	 1.2438168061	-3.9878739602	-0.3815244835	 0.097111
H	-0.2605291834	-3.059135281	-0.5334250598	 0.140941
H	 3.2280474838	-2.7294439731	-1.0124507897	 0.272231
H	 2.215194715	-2.1168176511	 1.5304146295	 0.089418
H	 0.6801087352	-0.1211605289	 2.202531966	 0.08849
79.5083	162.5362	236.6708	256.8535	259.6048	274.6572	281.7722	311.0547	332.3344	372.2604	398.0568	434.4388	470.5345	576.441	587.7593	669.8828	796.4842	801.6091	833.9163	889.4794	934.1405	939.8859	952.355	970.6343	979.2863	1041.2753	1085.3882	1116.4294	1148.1466	1150.1872	1183.1974	1236.1927	1258.0546	1300.3372	1348.5965	1371.826	1391.4734	1400.8275	1405.2634	1472.1035	1488.4884	1490.858	1492.6122	1497.0634	1687.5359	3020.807	3024.7977	3072.565	3090.8333	3092.1394	3114.5364	3126.2436	3127.3074	3159.9237	3187.2405	3803.5964	3806.3596
CC1(O)CC(C)(O)C=C1	C[C@@]1(O)C[C@@](C)(O)C=C1	
InChI=1S/C7H12O2/c1-6(8)3-4-7(2,9)5-6/h3-4,8-9H,5H2,1-2H3	InChI=1S/C7H12O2/c1-6(8)3-4-7(2,9)5-6/h3-4,8-9H,5H2,1-2H3/t6-,7-/m0/s1
