19
gdb 92828	2.46271	1.736	1.27689	2.2124	77.15	-0.2373	0.0048	0.2421	1040.7916	0.15861	-422.992453	-422.984022	-422.983078	-423.024907	32.874	
C	-0.118857784	 1.610117858	-0.1300185708	-0.43663
C	-0.0172645521	 0.1044646468	 0.0339323056	 0.391937
O	 1.0030584971	-0.4447362062	-0.8905722493	-0.348335
C	 1.9259457001	-0.6779718052	 0.2167271028	-0.169657
C	 0.7671079096	-0.4956853911	 1.1605837199	 0.163435
C	 0.017609504	-1.0888683415	 2.0835516774	-0.213839
C	-1.4479939761	-0.8427040353	 1.7357742906	-0.2915
C	-1.3740083928	-0.6177965464	 0.1818998542	 0.057469
O	-2.4408592961	 0.1213363103	-0.3729335341	-0.436725
H	 0.8647625642	 2.0767006157	-0.031328934	 0.110966
H	-0.5237730602	 1.844111352	-1.1183406255	 0.137893
H	-0.792554215	 2.0402931999	 0.6163202902	 0.12383
H	 2.3892457488	-1.6697192961	 0.1840843924	 0.117701
H	 2.7096301557	 0.0901626809	 0.2468679807	 0.108363
H	 0.3442974967	-1.7608621222	 2.8684428401	 0.099886
H	-2.0832991194	-1.6952262026	 2.0004606873	 0.098931
H	-1.8792470523	 0.0426978782	 2.2208558151	 0.114829
H	-1.2711668195	-1.5997199055	-0.3022487795	 0.084501
H	-3.2366233089	-0.4171972197	-0.334186823	 0.286945
118.0232	211.8597	219.7766	239.8137	259.5597	264.259	295.5898	372.6382	477.8859	513.2649	549.8975	631.0731	704.3927	787.7586	819.4909	866.1472	892.5269	919.229	945.7504	972.7718	1007.5749	1017.812	1065.5207	1096.251	1119.0025	1137.8016	1166.5774	1195.0756	1221.4092	1257.6412	1269.3685	1305.767	1318.7897	1346.4076	1404.274	1423.013	1480.9037	1484.2446	1488.3229	1511.1399	1741.21	3003.4992	3013.8918	3021.886	3046.8903	3068.2265	3071.8832	3122.1357	3124.9018	3197.8161	3830.6176
CC12OCC1=CCC2O	C[C@@]12OC[C]1[CH]C[C@H]2O	
InChI=1S/C7H10O2/c1-7-5(4-9-7)2-3-6(7)8/h2,6,8H,3-4H2,1H3	InChI=1S/C7H10O2/c1-7-5(4-9-7)2-3-6(7)8/h2,6,8H,3-4H2,1H3/t6-,7-/m1/s1
