20
gdb 36289	3.797	1.03541	0.97671	4.084	82.45	-0.3043	0.0375	0.3418	1274.2175	0.174043	-366.021811	-366.01408	-366.013136	-366.054476	30.485	
N	 0.0154910441	-1.1513707256	-0.0555780851	-0.312465
C	-0.0050398332	-0.0040784596	 0.0821774653	 0.265533
C	-0.004911365	 1.4493965704	 0.2514047367	-0.394361
C	 1.3989201565	 2.0469096148	 0.0828597556	 0.0515
C	 1.9995653306	 2.0882791385	-1.3589633198	-0.017942
C	 1.1743112518	 3.390391766	-1.5803069016	-0.235653
C	 1.4801809183	 3.6001779361	-0.0676333387	-0.034808
C	 3.0075367117	 3.813133303	-0.0891827685	-0.220672
C	 3.4037124462	 2.6583118777	-1.0750087693	-0.216012
H	-0.7205293649	 1.8754456541	-0.4582424658	 0.150635
H	-0.3872655733	 1.6780540105	 1.2535068765	 0.150375
H	 2.0527369735	 1.6125035356	 0.8470800597	 0.079006
H	 1.9280989653	 1.2323006713	-2.0303493701	 0.077522
H	 1.5717798408	 4.1286042572	-2.2826979652	 0.094272
H	 0.1208633987	 3.2161436924	-1.8019559665	 0.098835
H	 0.8871541262	 4.2686305817	 0.5587365873	 0.060393
H	 3.2789973804	 4.8027189304	-0.4666446865	 0.100357
H	 3.4580870861	 3.695518917	 0.9003632302	 0.09972
H	 4.0657258141	 1.9201262717	-0.6140676039	 0.103332
H	 3.8901150722	 3.0265047569	-1.9822347803	 0.100432
63.2297	107.698	270.2625	277.1278	320.5591	392.1938	411.8702	495.0024	584.9922	647.3119	783.2033	832.5442	840.8128	841.6976	888.0885	905.0605	937.7389	948.1877	963.3683	977.0776	1002.7721	1030.4134	1067.9622	1074.1823	1086.6356	1133.7023	1163.3474	1198.9462	1212.1257	1234.4543	1253.461	1260.4753	1269.7667	1288.7675	1305.6805	1323.2254	1335.8526	1406.8268	1464.742	1494.1526	1505.3493	1527.2342	2360.3918	3041.8029	3044.3724	3053.0514	3061.2694	3065.2029	3091.2115	3093.8608	3101.4965	3109.8071	3115.7643	3129.6144
N#CCC1C2CC1CC2	N#CC[C@H]1[C@H]2C[C@@H]1CC2	
InChI=1S/C8H11N/c9-4-3-8-6-1-2-7(8)5-6/h6-8H,1-3,5H2	InChI=1S/C8H11N/c9-4-3-8-6-1-2-7(8)5-6/h6-8H,1-3,5H2/t6-,7+,8+
