14
gdb 28858	3.35717	1.40742	1.05031	0.9215	78.34	-0.234	-0.0816	0.1524	1074.7145	0.103184	-432.886765	-432.879633	-432.878689	-432.918676	27.126	
O	-0.1693746611	 1.2217113493	-0.3633242431	-0.36446
C	 0.0273109609	-0.051355069	 0.0041249653	 0.466004
N	 1.240221091	-0.4966194717	 0.0226049335	-0.362517
C	 1.5804168851	-1.8132715937	 0.1810883489	 0.001478
C	 0.8299524552	-2.9342385523	 0.0444270806	-0.111972
C	-0.6086902887	-3.0007747518	-0.1664226365	 0.231819
N	-1.160985951	-4.054137785	-0.6513933365	-0.495386
C	-1.4052233	-1.8708946376	 0.3874547631	-0.032389
N	-1.1532241625	-0.6189299628	 0.4261923671	-0.23635
H	 0.7021095937	 1.5639654659	-0.6106679973	 0.309996
H	 2.6439962583	-1.9487961594	 0.3646735696	 0.11889
H	 1.3297751099	-3.8962946252	 0.0974688722	 0.119638
H	-2.1809931403	-3.9662596772	-0.6422051811	 0.217756
H	-2.3628663605	-2.1743686095	 0.8233975942	 0.137494
67.2578	182.3277	304.2635	329.0687	371.6652	390.4029	479.0686	524.308	599.7613	622.2475	727.7524	755.7822	783.422	828.9002	860.6287	890.1404	935.8752	989.9335	1011.7565	1058.3805	1154.7537	1222.2399	1351.7583	1374.3709	1389.3125	1437.1558	1457.8561	1583.2489	1617.8494	1674.4262	1708.5013	3077.8582	3152.0715	3187.8608	3427.4645	3762.8691
OC1=NC=CC(=N)C=N1	O[C]1[N]C=C[C]([NH])C=N1	
InChI=1S/C5H5N3O/c6-4-1-2-7-5(9)8-3-4/h1-3,6H,(H,7,9)	InChI=1S/C5H5N3O/c6-4-1-2-7-5(9)8-3-4/h1-3,6H,(H,7,9)
