20
gdb 8406	3.42516	1.67495	1.46289	1.5606	75.56	-0.2195	0.0851	0.3047	974.322	0.175582	-348.978829	-348.970197	-348.969253	-349.011651	32.375	
C	-0.1351332305	 1.5087618035	 0.0909014845	-0.452541
C	-0.003032833	-0.0007994222	 0.0414534519	 0.254954
C	-1.239309468	-0.7424017868	-0.4285515307	-0.448503
C	 1.359177271	-0.5840088285	-0.3391369697	-0.404828
C	 0.8598414376	-0.6746924997	 1.068304867	 0.436301
C	 1.4507696036	-0.1476628682	 2.3729545638	-0.359156
C	 1.0088860842	-1.5146715381	 2.9371381126	-0.07183
O	 0.5001590569	-1.9331422924	 1.6499324719	-0.305866
H	 0.7755551181	 1.9847054136	 0.4682277545	 0.111502
H	-0.3300842775	 1.9160458561	-0.9083494639	 0.116479
H	-0.9651259188	 1.8133403152	 0.7397942479	 0.113169
H	-1.4684107127	-0.4998471815	-1.4727494665	 0.109931
H	-1.1087638191	-1.8237229986	-0.3447329912	 0.132933
H	-2.1114014803	-0.4681901703	 0.1765903726	 0.11108
H	 1.3684850461	-1.5053323217	-0.9132676098	 0.116418
H	 2.1763326503	 0.0970727616	-0.5602911903	 0.104631
H	 2.5289727979	 0.0240789898	 2.3617829383	 0.112632
H	 0.9507496297	 0.7238232294	 2.8007067015	 0.112701
H	 1.814184126	-2.1707378747	 3.285868557	 0.10561
H	 0.2173206784	-1.4820161863	 3.6947750686	 0.104384
76.5437	164.3835	174.5649	189.7914	205.4783	264.7052	353.7334	411.5872	417.615	491.712	564.3313	700.3501	792.7912	853.9375	874.978	897.272	912.6342	961.3665	974.2884	1000.4386	1022.786	1032.8391	1044.2863	1108.9472	1155.1862	1164.1426	1167.4587	1215.1336	1218.5371	1256.3664	1292.6219	1355.5616	1403.5193	1409.3711	1423.2193	1479.1789	1482.2852	1489.8927	1492.5132	1500.2407	1514.9013	1532.5716	3018.3299	3024.2234	3026.3872	3066.6864	3070.8854	3077.2691	3081.904	3095.3584	3115.3545	3122.8537	3123.1157	3205.206
CC1(C)CC11CCO1	CC1(C)C[C@]21CCO2	
InChI=1S/C7H12O/c1-6(2)5-7(6)3-4-8-7/h3-5H2,1-2H3	InChI=1S/C7H12O/c1-6(2)5-7(6)3-4-8-7/h3-5H2,1-2H3/t7-/m0/s1
