18
gdb 6685	5.19886	0.74816	0.7305	0.7	82.53	-0.247	0.0405	0.2874	1616.3096	0.150539	-310.613675	-310.603803	-310.602859	-310.650603	34.603	
C	 0.3628565139	 1.3105151537	 0.2590744056	-0.374359
C	-0.1768546578	-0.1004657512	-0.048085007	-0.122285
C	-1.7174091722	-0.1129220586	-0.1032718186	-0.374361
C	 0.3997415542	-0.6280952139	-1.2855077634	 0.118994
C	 0.8676371139	-1.0507361584	-2.3107514815	 0.031943
C	 1.4385116103	-1.5676802572	-3.5566998031	-0.490641
C	 2.2407990131	-2.7799918856	-3.377415622	 0.320013
C	 2.9008701253	-3.7738854138	-3.2437607102	-0.447946
H	 1.4539648412	 1.3087192235	 0.3246312004	 0.124218
H	 0.0715329218	 2.0139215187	-0.5272245522	 0.122308
H	-0.0411107659	 1.6724889872	 1.2099903428	 0.111653
H	 0.1338481547	-0.7632478256	 0.7717796971	 0.106837
H	-2.0795114063	 0.5421242993	-0.9018404995	 0.122309
H	-2.0961278503	-1.1204383648	-0.293806717	 0.124207
H	-2.1338434456	 0.2404435615	 0.8455016949	 0.111658
H	 0.6321849107	-1.7735306789	-4.2745285964	 0.158382
H	 2.0592482953	-0.7926224281	-4.0276431013	 0.158382
H	 3.4834726737	-4.6527068777	-3.1195095186	 0.198688
6.0373	75.5521	110.4899	166.4744	228.6541	264.8399	282.4144	308.1245	323.6357	360.3186	502.7224	539.5307	540.5229	620.3738	645.8299	722.1468	878.8719	930.8237	935.2057	943.3723	964.1225	1066.5266	1120.913	1150.4317	1208.5594	1230.9095	1325.0757	1333.1301	1351.0536	1395.1365	1417.2153	1454.1572	1485.7637	1489.1447	1498.4206	1510.2148	2246.3646	2371.3435	3004.8564	3005.1307	3028.2326	3035.1217	3038.6377	3105.6292	3110.8855	3118.3158	3120.087	3507.5534	6.0444	75.5525	110.4896	166.4743	228.6538	264.8397	282.4147	308.1238	323.6298	360.3184	502.7227	539.5311	540.5224	620.3708	645.8268	722.1469	878.8719	930.8237	935.2055	943.372	964.1225	1066.5267	1120.9131	1150.4317	1208.5594	1230.9098	1325.0758	1333.1303	1351.0537	1395.1366	1417.2153	1454.1577	1485.7639	1489.1447	1498.4207	1510.2149	2246.3641	2371.3437	3004.8565	3005.1307	3028.2325	3035.1217	3038.6377	3105.6292	3110.8855	3118.3158	3120.087	3507.5531
CC(C)C#CCC#C	CC(C)C#CCC#C	
InChI=1S/C8H10/c1-4-5-6-7-8(2)3/h1,8H,5H2,2-3H3	InChI=1S/C8H10/c1-4-5-6-7-8(2)3/h1,8H,5H2,2-3H3
