19
gdb 99649	2.50549	1.18664	0.89843	3.798	77.1	-0.25	0.0245	0.2745	1329.927	0.158043	-419.18646	-419.176631	-419.175686	-419.221479	35.048	
C	 0.3832237784	 1.5249637608	 0.2382040673	-0.331384
N	-0.1197462938	 0.2348955612	-0.2207575667	-0.268046
C	 0.6818668358	-0.4209331676	-1.2345693309	-0.14667
C	 2.1088424234	-0.5804208955	-0.8348533556	 0.255995
N	 3.2070369499	-0.6788952112	-0.4869133753	-0.325046
C	 0.1269033886	-1.8038419251	-1.6030039392	 0.045409
O	-0.6400589247	-2.47468508	-0.6087930566	-0.253232
C	-1.2872562135	-2.1282678327	-1.8508026872	 0.073695
C	-2.4475433887	-1.1686058815	-1.8252517597	-0.435918
H	 1.4022796152	 1.4889866926	 0.6528677223	 0.130631
H	 0.3828373411	 2.2349770988	-0.596350504	 0.126824
H	-0.2916923286	 1.9115625349	 1.0056989948	 0.13054
H	-0.2671161323	-0.4113384021	 0.5468574455	 0.245613
H	 0.6835370169	 0.2021012386	-2.1405304649	 0.136473
H	 0.8746986748	-2.4296238694	-2.092426672	 0.11359
H	-1.4470468311	-3.0035243666	-2.4847494297	 0.097733
H	-2.2290470139	-0.2985446585	-1.2072758551	 0.153998
H	-2.6710235795	-0.8382172101	-2.8459173181	 0.121461
H	-3.339108158	-1.6755127166	-1.441278555	 0.128333
58.4925	111.1679	134.242	174.7338	197.2744	209.7794	241.0308	269.9499	340.2548	372.1702	440.3508	524.7712	593.456	658.6854	756.2855	783.0572	843.2918	887.1821	948.9285	993.0327	1014.1686	1072.3485	1103.0454	1151.8517	1161.8375	1170.1061	1189.2308	1219.0509	1284.9294	1321.6661	1337.6997	1392.2232	1419.716	1460.2621	1466.9991	1486.1383	1495.9499	1505.3062	1507.8383	1521.131	2341.8694	2989.7415	3012.2967	3038.5993	3067.6263	3080.9793	3096.5809	3102.138	3117.6074	3161.8365	3543.9667
CNC(C#N)C1OC1C	CN[C@@H](C#N)[C@H]1O[C@H]1C	
InChI=1S/C6H10N2O/c1-4-6(9-4)5(3-7)8-2/h4-6,8H,1-2H3	InChI=1S/C6H10N2O/c1-4-6(9-4)5(3-7)8-2/h4-6,8H,1-2H3/t4-,5-,6-/m0/s1
