20
gdb 37085	2.23887	1.93785	1.32662	1.4947	83.23	-0.2231	0.0843	0.3074	1040.8397	0.171117	-365.932301	-365.924494	-365.92355	-365.964203	31.85	
C	 0.0828633116	 1.4301595404	-0.1112901987	-0.243639
C	 1.3067950342	 0.6090695264	-0.0133768508	-0.131253
N	-0.0723285152	-0.0381749541	-0.0090313879	-0.174277
C	 0.2381466363	-0.5688647861	-1.3675181719	 0.309939
C	-0.2369615222	-1.9162478392	-1.7910738665	-0.340198
C	-0.7765837642	-0.6648214792	-2.4626145619	-0.330366
C	 1.6485116904	-0.0072708257	-1.3499452419	 0.318065
C	 2.5026982223	 0.5426663093	-2.4541067984	-0.332573
C	 2.9196030648	-0.7095991141	-1.71231926	-0.333448
H	-0.2514758743	 1.9494150826	 0.7820078149	 0.117489
H	-0.1643123953	 1.9192747664	-1.050564954	 0.115385
H	 1.9409928145	 0.5894905862	 0.8675334304	 0.097598
H	 0.4399698105	-2.5529152779	-2.35199384	 0.111006
H	-0.8912726075	-2.4410386977	-1.103500068	 0.125877
H	-1.7935047715	-0.3648944944	-2.2314905025	 0.120408
H	-0.4619743049	-0.4496957909	-3.4791400824	 0.111978
H	 2.1452386626	 0.4337843566	-3.4734882718	 0.112935
H	 3.0534537449	 1.4595676405	-2.2705092833	 0.114552
H	 3.7535789389	-0.6412183274	-1.0207922168	 0.115589
H	 2.8502785242	-1.6612528815	-2.2298615586	 0.11493
119.0599	189.8268	196.5144	261.9905	285.1128	350.2727	502.4369	529.6509	570.8682	580.6843	750.0725	760.3582	772.0868	796.4444	871.8584	881.3235	898.2658	924.2433	945.4706	970.51	998.7389	1005.2345	1041.7838	1044.0581	1052.6086	1059.1655	1071.4844	1076.6714	1109.276	1138.7627	1183.3217	1184.1654	1189.9259	1230.5644	1252.9447	1299.7884	1362.3866	1430.9803	1450.5187	1464.5822	1491.2553	1496.5175	1517.8298	3106.6566	3121.1071	3124.1888	3124.7016	3128.2858	3157.7263	3198.7484	3199.5247	3206.0568	3213.7893	3221.4128
C1C2N1C1(CC1)C21CC1	C1[C@H]2N1C1(CC1)C12CC1	
InChI=1S/C8H11N/c1-2-7(1)6-5-9(6)8(7)3-4-8/h6H,1-5H2	InChI=1S/C8H11N/c1-2-7(1)6-5-9(6)8(7)3-4-8/h6H,1-5H2/t6-,9?/m1/s1
