20
gdb 119601	4.13926	0.92876	0.85145	2.5728	80.46	-0.218	0.0124	0.2304	1401.6883	0.171187	-403.120828	-403.112114	-403.111169	-403.15463	33.026	
O	-0.2061254496	 1.5124956061	-0.0574666676	-0.418368
C	-0.0490369879	 0.1132427606	-0.2345994529	-0.070074
C	-1.3310859275	-0.5596762933	 0.2469459122	-0.278255
C	-1.2947286867	-2.0647454632	 0.1043803144	 0.303113
C	-1.6311947217	-2.7430036016	-1.1857739059	-0.277448
N	-2.5762559181	-2.8005156703	-0.0644862992	-0.148262
C	-2.4804230356	-4.0305678343	 0.7524563477	-0.21254
C	-1.0998712546	-4.0085771339	 1.3709749511	-0.093109
C	-0.4522179983	-2.8988472369	 1.0193040595	-0.133047
H	 0.5939827301	 1.9468081527	-0.3667785397	 0.284991
H	 0.1266171543	-0.1411922602	-1.2923125923	 0.08819
H	 0.8156146761	-0.2630880008	 0.3365500994	 0.083281
H	-1.5032687874	-0.2833303278	 1.293965828	 0.10811
H	-2.1740289319	-0.1665735116	-0.3295811126	 0.118514
H	-1.9842544324	-2.1605749679	-2.0340216327	 0.110833
H	-1.0699538834	-3.6389393122	-1.4435856956	 0.106785
H	-3.2705132045	-4.0199629269	 1.5154930075	 0.114623
H	-2.656354827	-4.9167888224	 0.1289816313	 0.112827
H	-0.7124958438	-4.8058342594	 1.9947658144	 0.099914
H	 0.5445516001	-2.6133519565	 1.3329114331	 0.099924
73.137	84.8116	128.6128	261.6184	271.8918	277.5154	335.9658	376.3149	460.0947	507.4322	678.1595	744.8622	758.175	769.7773	800.0365	839.1446	916.0503	920.8113	951.2655	962.0196	999.4502	1015.796	1028.5396	1075.4361	1092.1302	1112.2484	1121.7897	1163.8874	1207.2233	1215.7402	1243.558	1265.5357	1300.157	1321.697	1342.4122	1363.0886	1378.6011	1463.2746	1483.1584	1491.2177	1500.7165	1527.8411	1671.4367	2960.7363	2986.7939	3009.813	3040.8788	3041.4472	3088.7475	3093.7971	3176.7606	3192.2211	3217.7744	3831.0214
OCCC12CN1CC=C2	OCC[C@]12CN1CC=C2	
InChI=1S/C7H11NO/c9-5-3-7-2-1-4-8(7)6-7/h1-2,9H,3-6H2	InChI=1S/C7H11NO/c9-5-3-7-2-1-4-8(7)6-7/h1-2,9H,3-6H2/t7-,8?/m1/s1
