19
gdb 38067	3.42686	1.43887	1.26535	1.8113	79.96	-0.2422	-0.0015	0.2407	1052.7199	0.160633	-385.863947	-385.856629	-385.855684	-385.895648	29.564	
C	-0.0581063522	 1.5542085342	-0.1039945122	-0.213233
C	 1.4853896006	 1.5488000042	 0.0567827973	-0.258342
C	 1.4002307601	 0.0915223401	 0.6147789003	 0.322021
C	-0.0378509572	 0.0069990075	 0.0072251387	-0.27598
C	 2.4409035706	-0.9231099113	 0.2137914962	-0.169839
C	 2.9753526382	-1.5638681615	 1.2578680326	-0.102122
C	 2.4001171322	-1.027847198	 2.5282120122	-0.015245
O	 2.6741962354	 0.3829044655	 2.7282518795	-0.265374
C	 1.428269307	 0.0060074826	 2.1402694706	-0.030627
H	-0.5581040838	 2.0227240632	 0.7481526236	 0.105638
H	-0.4675282544	 1.9846609939	-1.0202995031	 0.098826
H	 1.9975635969	 1.5751680886	-0.9094641515	 0.09983
H	 1.9462642278	 2.2867515427	 0.716748327	 0.115699
H	-0.8018675034	-0.4780491204	 0.6219532565	 0.098825
H	-0.0258920278	-0.4778627446	-0.9730530887	 0.101527
H	 2.7252345822	-1.0625434917	-0.8244618864	 0.09816
H	 3.7402788875	-2.3294524083	 1.2194549568	 0.103337
H	 2.3380973431	-1.6152101479	 3.4391623566	 0.095941
H	 0.5420475072	 0.2490400713	 2.7227939241	 0.090957
117.9603	131.6134	206.4418	321.9057	394.2808	435.5742	482.2024	591.4835	671.4117	745.095	758.1993	798.9295	828.4943	850.5445	859.6945	879.7325	913.7699	939.4747	950.1364	974.6466	978.288	1028.7703	1036.9877	1067.1199	1106.7703	1108.8531	1159.9557	1205.9118	1208.615	1253.2362	1254.9433	1272.6628	1273.4022	1290.0782	1317.0031	1377.8799	1408.7848	1474.241	1485.3341	1506.2637	1652.443	3049.5248	3057.7149	3063.0897	3096.2157	3110.0301	3122.7014	3132.126	3164.6341	3178.282	3216.3131
C1CC2(C1)C=CC1OC21	C1CC2(C1)C=C[C@H]1O[C@@H]21	
InChI=1S/C8H10O/c1-3-8(4-1)5-2-6-7(8)9-6/h2,5-7H,1,3-4H2	InChI=1S/C8H10O/c1-3-8(4-1)5-2-6-7(8)9-6/h2,5-7H,1,3-4H2/t6-,7-/m1/s1
