14
gdb 16042	3.58547	1.79429	1.48201	3.6838	63.99	-0.2402	-0.0098	0.2304	854.507	0.108028	-378.674517	-378.667371	-378.666427	-378.705803	26.513	
N	-0.0816092492	 1.4950742205	 0.0314872562	-0.519965
C	-0.0769279917	 0.0634429014	 0.0001716151	-0.043994
C	-1.3286923925	-0.7688294554	 0.0673012106	-0.182162
C	-2.4152282759	-0.1499916979	-0.801540804	-0.109996
O	-1.5062255161	-0.0357403467	-1.9378457786	-0.321615
C	-0.4908187325	-0.7474935296	-1.2207228154	 0.307018
C	 0.2807901839	-1.7391400483	-1.8904027207	 0.21356
N	 0.9399178675	-2.5375374625	-2.4092343016	-0.346376
H	 0.8551191618	 1.8418038485	-0.1523742301	 0.243841
H	-0.6674425223	 1.8468629724	-0.7218213366	 0.250751
H	 0.7454188615	-0.3810452199	 0.5531159324	 0.124927
H	-1.4686252694	-1.5728798397	 0.7768657156	 0.125995
H	-3.2301582702	-0.8394578579	-1.0407884773	 0.132666
H	-2.819546665	 0.8193319451	-0.4925110656	 0.125348
134.5062	167.7085	203.9647	259.2064	283.8214	442.7167	507.2633	535.9324	567.7006	679.6811	773.5317	799.5229	883.2619	918.7124	960.7332	975.4568	988.2224	1036.4508	1099.3167	1107.2069	1162.2882	1186.8625	1215.8202	1290.74	1318.7052	1341.4495	1469.0913	1519.9346	1666.7683	2338.3835	3045.734	3099.3652	3168.6362	3211.4805	3491.427	3567.2821
NC1C2COC12C#N	N[C@H]1[C@H]2CO[C@@]12C#N	
InChI=1S/C5H6N2O/c6-2-5-3(1-8-5)4(5)7/h3-4H,1,7H2	InChI=1S/C5H6N2O/c6-2-5-3(1-8-5)4(5)7/h3-4H,1,7H2/t3-,4+,5-/m1/s1
