16
gdb 18517	5.54261	1.12345	1.05742	1.7483	73.49	-0.2316	0.0283	0.2599	1158.119	0.129217	-346.530202	-346.522235	-346.52129	-346.564027	28.344	
C	 0.0429923907	 1.5187066347	-0.0358893782	-0.499558
C	 0.0122165793	 0.0654379876	 0.0264078863	 0.072907
C	-0.0129802341	-1.137518721	 0.0824754154	 0.103346
C	-0.036885715	-2.5874062156	 0.1376135388	-0.073796
O	 0.1164567997	-3.1466045235	 1.4865714311	-0.293024
C	-1.0666528176	-3.9295436541	 1.3068216212	 0.107879
C	-2.266841806	-3.0537621045	 1.1378698332	-0.296665
C	-1.3657384109	-3.3356231951	-0.0457515663	-0.130618
H	 0.9558601136	 1.8790329114	-0.5225170973	 0.150658
H	-0.8122270228	 1.9102177815	-0.5976692998	 0.150649
H	 0.0068800706	 1.9546357247	 0.9685013524	 0.154466
H	 0.7473207618	-3.0100315218	-0.5024746982	 0.10565
H	-1.0617766734	-4.9464107053	 1.680511373	 0.104656
H	-3.2224292012	-3.5679193846	 1.1010667422	 0.113849
H	-2.2826638227	-2.0701755824	 1.5979171519	 0.126117
H	-1.704233812	-3.7822176621	-0.9700928558	 0.103485
24.3025	89.5169	110.0623	226.2402	305.6467	364.9699	435.0024	482.3442	536.179	717.7143	773.2639	803.999	849.514	927.6819	955.055	981.8719	1006.5716	1039.764	1048.1775	1050.859	1053.5213	1064.6836	1084.5014	1178.7679	1197.0184	1245.8045	1279.0911	1358.0392	1360.2896	1413.5706	1469.9559	1475.9398	1477.7698	2367.2924	3026.6389	3028.5973	3090.0341	3091.3974	3120.0373	3185.2011	3206.9197	3215.7082
CC#CC1OC2CC12	CC#C[C@H]1O[C@H]2C[C@@H]12	
InChI=1S/C7H8O/c1-2-3-6-5-4-7(5)8-6/h5-7H,4H2,1H3	InChI=1S/C7H8O/c1-2-3-6-5-4-7(5)8-6/h5-7H,4H2,1H3/t5-,6+,7-/m0/s1
