13
gdb 5478	3.44261	1.95199	1.24691	5.5225	66.64	-0.2195	-0.0429	0.1765	893.2122	0.096323	-398.636178	-398.629228	-398.628284	-398.667284	25.782	
N	 0.0422220225	 1.4078144853	 0.1491995302	-0.603125
C	 0.0177761588	 0.0332731785	 0.041584457	 0.180232
C	-1.0855357829	-0.8097459662	 0.0135075323	 0.223727
O	-0.6515855529	-2.1193211108	-0.0265007779	-0.163415
C	 0.6861144267	-2.0896622341	-0.0263093605	 0.015441
C	 1.167438993	-0.8159152889	 0.0147126973	-0.242709
C	-2.4944980547	-0.5324305619	 0.0140854372	 0.060209
O	-3.3945270007	-1.3478126456	-0.0155165856	-0.301738
H	 0.8717744679	 1.8539884051	-0.2114046348	 0.259331
H	-0.800463297	 1.893218046	-0.1177631164	 0.261546
H	 1.1794225116	-3.0487101154	-0.0579068337	 0.149083
H	 2.2031012886	-0.5139692188	 0.0303623434	 0.116513
H	-2.713013661	 0.5621685268	 0.0450684416	 0.044905
141.7611	181.9621	223.0023	321.4587	343.4594	350.1933	547.5449	556.9758	617.7857	656.2301	704.9266	781.7809	808.0879	847.4799	898.9227	1005.7982	1034.6228	1089.7275	1176.3975	1228.4437	1294.9402	1337.0024	1418.3655	1499.8318	1535.2449	1626.3339	1668.2267	1771.567	2829.033	3250.9534	3273.7885	3579.7008	3679.52
NC1=C(OC=C1)C=O	Nc1c(occ1)C=O	
InChI=1S/C5H5NO2/c6-4-1-2-8-5(4)3-7/h1-3H,6H2	InChI=1S/C5H5NO2/c6-4-1-2-8-5(4)3-7/h1-3H,6H2
