20
gdb 55158	3.00745	1.30482	1.20355	3.4666	77.78	-0.2448	0.0289	0.2737	1125.61	0.173135	-403.187888	-403.179426	-403.178482	-403.221317	32.75	
N	 0.1714973877	 1.0919727087	-0.2769783822	-0.517923
C	-0.0126372805	-0.2619727436	-0.3309951673	 0.402093
O	 0.8580854892	-1.007187547	-0.7416469428	-0.360137
C	-1.3823372135	-0.7280646126	 0.1734594632	-0.12083
C	-2.5163204789	-0.4591653912	-0.8742837102	-0.241784
C	-2.8237322342	-1.8033683999	-1.513770033	-0.019232
C	-1.6765753997	-2.6073217778	-2.0780611042	-0.294927
C	-2.1809399456	-2.8927291808	-0.6859197935	-0.021425
C	-1.4311055026	-2.2487941178	 0.4730484401	-0.233674
H	 1.0055121095	 1.4722654969	-0.6938543062	 0.259102
H	-0.5716842414	 1.7220865201	-0.0310305324	 0.257044
H	-1.5893550929	-0.1529562721	 1.0821815578	 0.083779
H	-3.4104921933	-0.0891472211	-0.3600009627	 0.097988
H	-2.2267254997	 0.3080454792	-1.6015577208	 0.098924
H	-3.8080341657	-1.9385107871	-1.9490264904	 0.076149
H	-1.9224232204	-3.3286300228	-2.8502703004	 0.101639
H	-0.6995122903	-2.1496335377	-2.1835632767	 0.143007
H	-2.6931476123	-3.8305884069	-0.5012035237	 0.075532
H	-0.4203131582	-2.6465800414	 0.5949794289	 0.125469
H	-1.9782961573	-2.423119415	 1.4057499863	 0.089206
43.2296	124.5072	205.3654	210.3873	279.0233	307.2798	379.8545	412.8986	557.9078	585.1366	632.9216	696.9371	750.4013	759.5637	787.043	827.2904	882.216	896.2532	928.0144	972.8944	993.5127	1041.8966	1060.9722	1072.5633	1091.9237	1097.9875	1112.9383	1121.9755	1204.5586	1210.9725	1226.4925	1242.378	1283.6332	1323.7949	1328.3457	1353.6492	1393.6606	1401.6414	1481.7889	1494.5841	1504.031	1617.331	1785.7927	3028.2406	3038.031	3052.3388	3067.5352	3101.2978	3134.2468	3159.7218	3170.347	3224.3415	3600.1634	3735.7555
NC(=O)C1CC2CC2C1	NC(=O)[C@H]1C[C@H]2C[C@H]2C1	
InChI=1S/C7H11NO/c8-7(9)6-2-4-1-5(4)3-6/h4-6H,1-3H2,(H2,8,9)	InChI=1S/C7H11NO/c8-7(9)6-2-4-1-5(4)3-6/h4-6H,1-3H2,(H2,8,9)/t4-,5+,6+
