13
gdb 28785	3.48162	1.76398	1.17079	3.5722	64.74	-0.1977	0.0064	0.2041	942.372	0.091437	-452.767197	-452.760453	-452.759509	-452.798332	25.731	
O	 0.255831445	 1.3853025039	 0.2863868932	-0.437631
C	 0.163379981	 0.0482914253	 0.0812395555	 0.304514
C	 0.117848599	-0.78113472	-1.0137058613	-0.223122
N	 0.0177130811	-2.1266636631	-0.6400747388	-0.392311
C	 0.0070067584	-2.057197603	 0.6512408495	 0.492441
O	-0.0690738473	-2.9548405426	 1.6650925901	-0.219823
C	-0.030306042	-2.2074061551	 2.8254148268	-0.046299
C	 0.0665225132	-0.8882430521	 2.564290615	-0.138332
N	 0.0906471287	-0.7885842159	 1.1736933361	-0.085373
H	 0.297430432	 1.8220990891	-0.5700486124	 0.312231
H	 0.1508035589	-0.4954901498	-2.0537544628	 0.106209
H	-0.0808057476	-2.7603125963	 3.7464573799	 0.159388
H	 0.1185097195	-0.0421510304	 3.2257954394	 0.168108
150.2731	186.0752	225.7379	282.0862	401.9489	573.2834	582.4034	618.5408	640.2386	706.8451	729.5407	738.5281	761.3929	783.4777	799.7819	933.4612	1041.9434	1081.0427	1148.5856	1168.5195	1187.7784	1252.5695	1284.0074	1327.2607	1434.4657	1511.1502	1591.4026	1623.9927	1664.0351	3249.3813	3295.6135	3316.6503	3844.0648
OC1=CN=C2OC=CN12	Oc1cnc2occn12	
InChI=1S/C5H4N2O2/c8-4-3-6-5-7(4)1-2-9-5/h1-3,8H	InChI=1S/C5H4N2O2/c8-4-3-6-5-7(4)1-2-9-5/h1-3,8H
