23
gdb 58254	2.57633	1.08162	0.89522	2.2935	81.72	-0.2503	0.0609	0.3113	1415.4771	0.203853	-425.414597	-425.40401	-425.403065	-425.450068	39.779	
C	 0.0113998841	 0.7860015943	 1.2707821034	-0.415057
C	-0.2335571791	 0.3748894084	-0.1758648468	 0.106248
O	 0.8969731122	-0.3092850569	-0.7343387169	-0.447904
C	-1.5043501816	-0.4692077208	-0.4112571274	 0.114857
O	-1.5985614333	-0.7486921431	-1.8028072313	-0.44575
C	-1.5445377134	-1.745408905	 0.4094253156	-0.016638
C	-2.287908527	-1.8241582296	 1.7265656418	-0.304013
C	-2.8052511339	-2.5703642366	 0.5220783145	-0.003114
C	-4.0977318153	-2.1768399201	-0.1606262851	-0.398112
H	 0.9055089113	 1.4121009112	 1.3381105844	 0.124596
H	-0.8373779166	 1.3537179704	 1.6652413505	 0.121854
H	 0.1500394936	-0.0893358346	 1.9146870975	 0.119427
H	-0.3362248125	 1.2694318211	-0.8003840224	 0.093945
H	 1.1846105928	-0.9726619778	-0.0975821955	 0.284275
H	-2.3733275227	 0.1518912911	-0.1646972329	 0.075655
H	-0.7004006681	-0.980967688	-2.07534354	 0.281005
H	-0.6279473013	-2.3298311621	 0.3459561068	 0.058997
H	-1.845413234	-2.3778291732	 2.5479235368	 0.10561
H	-2.8402675341	-0.9423155652	 2.0389793233	 0.107414
H	-2.6335027455	-3.643926485	 0.5377424331	 0.081307
H	-4.2999161142	-1.1061155092	-0.0675236137	 0.113997
H	-4.0655889	-2.4124495458	-1.2286078594	 0.132477
H	-4.9457067115	-2.7087122934	 0.2845152935	 0.108924
55.1898	93.9122	129.6544	189.113	199.0652	243.5645	264.7087	278.2798	321.4555	356.5757	377.6519	401.7835	489.5423	511.4545	572.8212	627.6813	774.2265	819.9967	856.4779	862.7956	905.9287	929.4009	986.9009	1022.3988	1026.6844	1067.3678	1075.1854	1094.7966	1106.9375	1131.2842	1150.708	1184.4024	1197.6256	1240.5608	1261.2925	1290.2092	1317.3701	1345.7668	1398.7982	1405.0852	1420.5447	1425.9487	1429.9858	1438.8493	1490.1308	1491.9779	1495.319	1496.0154	1502.3544	3034.2081	3035.9994	3042.7233	3053.0306	3098.0851	3105.0352	3108.9583	3110.7937	3116.3837	3120.6891	3135.8792	3203.1687	3754.4758	3805.751
CC(O)C(O)C1CC1C	C[C@@H](O)[C@@H](O)[C@H]1C[C@H]1C	
InChI=1S/C7H14O2/c1-4-3-6(4)7(9)5(2)8/h4-9H,3H2,1-2H3	InChI=1S/C7H14O2/c1-4-3-6(4)7(9)5(2)8/h4-9H,3H2,1-2H3/t4-,5-,6+,7-/m1/s1
