20
gdb 9146	4.94071	0.74042	0.68692	1.4113	81.03	-0.2423	0.0599	0.3022	1700.5253	0.174655	-348.983529	-348.973086	-348.972142	-349.020173	35.948	
C	 0.1308945073	 1.4351996325	-0.4222272191	-0.362392
C	-0.056287204	 0.1467440835	 0.3996890935	-0.313702
C	-1.413704446	-0.3858631519	 0.328583829	 0.072858
C	-2.5415210785	-0.8023885043	 0.2446350818	 0.039419
C	-3.9024322734	-1.3317052689	 0.1697533139	-0.134405
C	-3.9238979119	-2.799056483	-0.299982429	-0.381562
C	-4.6093373456	-1.1642324847	 1.5250971514	-0.067864
O	-5.9620454056	-1.5598828583	 1.3583189815	-0.420376
H	 1.1603615266	 1.7965825028	-0.3386655227	 0.112062
H	-0.0873814711	 1.2564690452	-1.4785969491	 0.127453
H	-0.5409894731	 2.2220286106	-0.0686448791	 0.126324
H	 0.6534452153	-0.6148852892	 0.0513880626	 0.126674
H	 0.2050172015	 0.3413393768	 1.4480390517	 0.12534
H	-4.47490854	-0.7334148843	-0.5527985196	 0.109324
H	-3.3460301403	-3.4283462964	 0.3846272803	 0.115892
H	-4.9526580557	-3.1641280793	-0.3262972635	 0.132454
H	-3.4850764896	-2.8925843192	-1.296578071	 0.117539
H	-4.0959600796	-1.7819259411	 2.2784338237	 0.092097
H	-4.5339234231	-0.1148084881	 1.8450619335	 0.094289
H	-6.3974540633	-1.5145748728	 2.2140076404	 0.288577
23.0102	81.3886	91.0039	136.887	193.7136	213.5229	221.9301	237.3677	301.5981	326.8251	406.0364	489.3366	511.7477	536.0794	737.0959	786.1145	861.5148	930.6361	952.1604	1022.2288	1076.867	1078.6747	1100.2818	1108.2253	1140.151	1189.7971	1237.1394	1262.1162	1287.2891	1327.9146	1346.8563	1354.2111	1396.1924	1408.6484	1450.5886	1476.1552	1493.0991	1494.6821	1500.4421	1505.8841	1520.5278	2363.4998	2978.0494	3005.4909	3017.5147	3022.7874	3043.2583	3043.7609	3044.7269	3115.0981	3116.0866	3123.0433	3137.6158	3837.7038
CCC#CC(C)CO	CCC#C[C@@H](C)CO	
InChI=1S/C7H12O/c1-3-4-5-7(2)6-8/h7-8H,3,6H2,1-2H3	InChI=1S/C7H12O/c1-3-4-5-7(2)6-8/h7-8H,3,6H2,1-2H3/t7-/m1/s1
