15
gdb 55250	3.32976	1.28647	1.07571	2.7654	62.49	-0.2519	0.0033	0.2552	1095.3798	0.112967	-491.119369	-491.111113	-491.110169	-491.153657	29.777	
N	-0.1705465368	 0.9416259948	 0.8738438849	-0.521608
C	-0.0478416917	-0.1573693911	 0.0840973548	 0.353747
O	 0.9998181004	-0.6064414404	-0.3262843796	-0.344454
C	-1.375047979	-0.8756602604	-0.26747336	 0.110531
O	-1.4299128666	-2.1583977884	 0.3022863448	-0.237221
C	-2.1600320689	-2.0439868715	 1.5151439444	-0.171936
C	-3.024142086	-0.8209341723	 1.3070940626	 0.381929
N	-4.00686935	-0.4614831431	 2.0034447337	-0.524258
O	-2.5232280535	-0.1634452098	 0.2091961951	-0.251558
H	 0.6589136739	 1.4805431258	 1.065783815	 0.268957
H	-1.0729103806	 1.3527633581	 1.040211476	 0.275131
H	-1.4383405698	-0.9718660995	-1.3547608098	 0.134292
H	-2.7540074833	-2.9469397554	 1.6635004759	 0.15562
H	-1.499425822	-1.9032798808	 2.382282796	 0.13963
H	-4.4126848462	 0.4091033939	 1.6582085763	 0.231198
26.4325	77.3213	124.4366	253.7595	324.0813	368.6492	395.1636	472.0393	507.7127	538.112	621.9535	676.0411	717.6243	791.5977	868.3065	892.3725	917.3781	983.2788	1010.2888	1026.8871	1061.5504	1090.4351	1158.711	1211.5957	1270.8812	1336.6786	1351.4119	1362.1392	1380.0882	1501.3995	1602.086	1804.8888	1820.4485	3014.4456	3087.3297	3123.685	3484.8968	3596.9978	3733.5161
NC(=O)C1OCC(=N)O1	NC(=O)[C@H]1OC[C]([NH])O1	
InChI=1S/C4H6N2O3/c5-2-1-8-4(9-2)3(6)7/h4-5H,1H2,(H2,6,7)	InChI=1S/C4H6N2O3/c5-2-1-8-4(9-2)3(6)7/h4-5H,1H2,(H2,6,7)/t4-/m0/s1
