14
gdb 56387	3.23957	0.71946	0.6278	2.2085	73.33	-0.2779	-0.0728	0.2051	1704.6203	0.097381	-436.667739	-436.657798	-436.656854	-436.704726	32.996	
C	-0.0436454068	 1.5059627775	 0.0171690727	-0.481671
C	 0.0677616232	-0.0011774161	 0.0450204401	 0.25779
O	 1.1199604625	-0.5989594738	 0.0689139852	-0.263494
C	-1.1992779974	-0.7239547712	 0.0443239793	 0.048877
C	-2.2419858444	-1.3298572838	 0.0477207558	 0.076348
C	-3.4784101215	-2.118105274	 0.0591502329	-0.181654
O	-3.2666979608	-3.5089121405	-0.0484672355	-0.376728
C	-4.2786693961	-1.7756818844	 1.2619872439	 0.280659
N	-4.903368105	-1.5326857081	 2.2022799197	-0.307683
H	 0.954693177	 1.9452076472	 0.0218732072	 0.151626
H	-0.5916157384	 1.8258207734	-0.8758293972	 0.152771
H	-0.6136736778	 1.8562243596	 0.8845595839	 0.156611
H	-4.0804217634	-1.849147183	-0.8182406967	 0.179675
H	-2.6537455511	-3.7770602529	 0.6471451688	 0.306872
22.2506	63.7466	88.2033	126.4286	173.7011	198.6489	236.0501	324.1327	375.5273	390.6046	480.9108	547.5164	594.1526	605.3319	635.0377	730.7344	880.0951	969.7685	1037.292	1044.1528	1081.7949	1232.2793	1265.6473	1303.1242	1384.3495	1412.9056	1459.162	1467.0053	1777.7564	2334.1484	2362.4592	3040.2569	3042.9564	3104.3303	3155.8045	3797.0165
CC(=O)C#CC(O)C#N	CC(=O)C#C[C@@H](O)C#N	
InChI=1S/C6H5NO2/c1-5(8)2-3-6(9)4-7/h6,9H,1H3	InChI=1S/C6H5NO2/c1-5(8)2-3-6(9)4-7/h6,9H,1H3/t6-/m1/s1
