16
gdb 52055	2.93044	0.88949	0.73822	4.642	70.72	-0.2634	-0.0345	0.2289	1476.5776	0.121501	-437.878673	-437.869414	-437.86847	-437.914344	31.714	
O	-0.1314256306	-0.0086294156	 0.1262309711	-0.22547
C	-0.0536329991	 1.157997431	-0.1531455579	 0.156468
C	 1.2089104631	 1.9883587436	-0.0641918551	-0.280688
C	 1.532755148	 2.6686077067	-1.406709281	-0.297972
C	 2.6758506781	 3.6589200919	-1.2870706671	 0.256505
C	 2.6615276061	 4.9520790856	-2.0011478376	-0.208919
O	 2.3738802237	 4.8814042421	-0.6066933013	-0.247317
C	 3.9702919577	 3.0853898356	-0.9481908718	 0.268711
N	 4.9866227963	 2.5996607395	-0.6904156793	-0.325387
H	-0.9473007121	 1.7237900129	-0.5098265012	 0.074517
H	 1.0395798566	 2.7710788519	 0.6883348851	 0.142689
H	 2.0295104461	 1.3511718721	 0.2752475728	 0.147651
H	 1.7869612194	 1.916427226	-2.1619067897	 0.138313
H	 0.657328773	 3.2175895072	-1.7701216037	 0.122184
H	 3.6018972459	 5.4319747412	-2.2626257921	 0.145446
H	 1.8146928079	 5.1749690085	-2.6478264113	 0.133269
48.1545	61.1412	88.5035	135.0741	184.4923	239.1215	309.8158	346.1541	411.7065	518.6476	575.518	597.7273	709.5245	766.7157	824.3445	881.0769	914.7187	959.025	1011.49	1075.7389	1087.1421	1132.7836	1170.3473	1190.227	1252.0618	1267.3523	1316.5671	1357.6883	1396.5402	1431.8267	1462.1133	1479.1372	1519.852	1842.1543	2359.8774	2849.4132	3025.2245	3043.8234	3087.4948	3095.2105	3115.0178	3192.336
O=CCCC1(CO1)C#N	O=CCC[C@]1(CO1)C#N	
InChI=1S/C6H7NO2/c7-4-6(5-9-6)2-1-3-8/h3H,1-2,5H2	InChI=1S/C6H7NO2/c7-4-6(5-9-6)2-1-3-8/h3H,1-2,5H2/t6-/m1/s1
