16
gdb 50943	2.29425	1.29099	0.93281	3.8941	67.38	-0.2604	-0.0532	0.2072	1233.989	0.122173	-475.010738	-475.00177	-475.000826	-475.045492	30.854	
O	-0.3818893624	 0.3141172581	-0.2562870668	-0.263883
C	-0.2041737303	 1.4305639945	 0.1162771752	 0.189615
O	 0.7285583387	 2.236025946	-0.4568410686	-0.193471
C	 0.9271960916	 3.5258540501	 0.0979960882	-0.036719
C	 1.5549378141	 3.4442121678	 1.4878545213	 0.157304
O	 1.6589819114	 2.4241695788	 2.1131556532	-0.227033
C	 1.82501566	 4.3246665114	-0.8363399751	-0.014045
C	 2.9467428179	 3.6658674205	-1.549645401	-0.231591
N	 1.7523801863	 4.1300428894	-2.2821152924	-0.321593
H	-0.775582157	 1.9321867204	 0.9160067696	 0.092698
H	-0.0372987345	 4.0520849611	 0.2010381335	 0.119692
H	 1.9059123367	 4.4210798249	 1.8859302535	 0.101273
H	 1.9289439795	 5.3629140063	-0.5280160169	 0.107641
H	 3.8564689138	 4.2225574693	-1.7524539945	 0.127109
H	 3.07465525	 2.5973746641	-1.4072159247	 0.142347
H	 1.1602391141	 3.3260671974	-2.4808631746	 0.250655
64.5346	88.4131	116.6394	147.8266	182.4413	222.9715	291.1903	342.0314	405.945	533.2928	641.6475	690.998	818.3266	860.7498	885.6375	956.4572	980.9779	1000.504	1030.2831	1059.4117	1103.2181	1132.8037	1157.5428	1162.8771	1219.384	1267.7426	1289.7477	1310.0224	1350.7056	1405.5515	1419.7323	1434.916	1506.7276	1838.446	1878.5935	2901.3574	2966.1726	2994.4251	3122.4082	3130.5001	3214.1591	3500.5659
O=COC(C=O)C1CN1	O=CO[C@@H](C=O)[C@H]1CN1	
InChI=1S/C5H7NO3/c7-2-5(9-3-8)4-1-6-4/h2-6H,1H2	InChI=1S/C5H7NO3/c7-2-5(9-3-8)4-1-6-4/h2-6H,1H2/t4-,5+/m1/s1
