18
gdb 28282	4.91594	1.23197	1.11384	1.5467	84.6	-0.1951	0.0227	0.2178	1133.9826	0.149271	-364.786129	-364.778724	-364.777779	-364.8179	29.33	
C	-0.0701254651	 1.5005958833	 0.0579300047	-0.494629
C	 0.0786132192	 0.0093422426	-0.0162420684	 0.297432
C	-0.071641708	-0.7647716332	-1.1545331838	-0.24186
N	-0.0639041548	-2.0797894249	-0.7453940325	 0.011962
C	 0.5428098132	-3.3934995998	-1.0233221195	-0.021231
C	 1.9657631065	-3.454494363	-0.5321673318	-0.272649
C	 0.8196824172	-3.5371327503	 0.4695849257	-0.190472
C	 0.2399975445	-2.1439148445	 0.6012534504	 0.233258
C	 0.3416375535	-0.8667636501	 1.0965913312	-0.358213
H	 0.7584083787	 1.9585124217	 0.6102483402	 0.121159
H	-0.0900289875	 1.9463797481	-0.9410128467	 0.117783
H	-0.9951655161	 1.7956131753	 0.5684815619	 0.125623
H	-0.3118551135	-0.4682707852	-2.1641731275	 0.11103
H	 0.0939681805	-4.0865683493	-1.722579813	 0.112905
H	 2.491334435	-4.3848399681	-0.7358833393	 0.117035
H	 2.5835633831	-2.5626967431	-0.5659510623	 0.133673
H	 0.6518075321	-4.3974526632	 1.1023540454	 0.10555
H	 0.5551039116	-0.5585351965	 2.1091713052	 0.091645
113.4503	118.898	253.3021	271.9742	302.7031	486.7853	503.7355	576.3105	626.8017	700.2804	743.7543	761.8623	776.3356	797.1192	852.0685	867.1479	937.3934	980.553	996.3515	1000.1603	1010.0632	1047.4012	1060.5639	1083.7593	1099.0376	1129.4068	1182.0811	1210.0716	1253.5355	1292.0147	1320.8327	1380.1192	1387.1225	1417.4001	1471.9634	1483.617	1496.6967	1516.5234	1595.3497	3021.8266	3070.968	3102.9362	3112.6183	3200.0657	3204.1588	3215.5983	3242.3639	3247.3598
CC1=CN2C3CC3C2=C1	Cc1cn2[C@H]3C[C@H]3c2c1	
InChI=1S/C8H9N/c1-5-2-7-6-3-8(6)9(7)4-5/h2,4,6,8H,3H2,1H3	InChI=1S/C8H9N/c1-5-2-7-6-3-8(6)9(7)4-5/h2,4,6,8H,3H2,1H3/t6-,8-/m0/s1
