23
gdb 120694	3.02289	0.81121	0.72699	2.5419	88.17	-0.2397	-0.0097	0.23	1703.6172	0.203713	-388.313834	-388.303204	-388.30226	-388.350377	38.278	
C	-0.0532224925	 1.5541986929	-0.1199475448	-0.381885
C	 0.1457766833	 0.0373297909	-0.0644794342	-0.156692
C	 0.445126138	-0.4717250239	 1.3528880671	-0.205045
C	 0.6229179585	-1.9750168358	 1.3926261499	 0.005142
C	 1.9313287437	-2.6241120215	 1.0884068689	-0.284089
C	 1.3945742433	-2.699987153	 2.5080603591	-0.147366
C	 2.0895600976	-1.9296002988	 3.5802144825	 0.391226
C	 1.8732422807	-2.4287805754	 4.9980779903	-0.482253
O	 2.7876871102	-0.9626497234	 3.3473069058	-0.326798
H	 0.8395275487	 2.0819313908	 0.2330831601	 0.118859
H	-0.2603024583	 1.893205848	-1.1398623064	 0.109335
H	-0.892007864	 1.8676993589	 0.5117956766	 0.112079
H	-0.750126319	-0.4653145525	-0.4533510343	 0.088544
H	 0.9686082392	-0.2519472163	-0.7303166676	 0.099488
H	 1.3452829659	 0.0136766714	 1.7400222011	 0.133929
H	-0.3787646712	-0.183951281	 2.0207978745	 0.088219
H	-0.2566918643	-2.5303098306	 1.0728312713	 0.088752
H	 1.9566381946	-3.5414754273	 0.5111184363	 0.112962
H	 2.7894953198	-1.970858561	 0.967239516	 0.137007
H	 0.962394916	-3.6424155116	 2.828239134	 0.082701
H	 2.2412330222	-3.4568447563	 5.0961208582	 0.138621
H	 2.3960946853	-1.7835004539	 5.7046670306	 0.139164
H	 0.8033381422	-2.4518849908	 5.234905055	 0.138098
51.8817	78.7992	87.9842	119.613	140.7613	203.5754	234.7647	249.7883	333.8544	342.6099	420.3549	447.4605	595.7739	632.4473	749.3364	759.2189	805.8177	861.0725	865.722	892.5611	924.9113	950.0402	1003.119	1027.1739	1048.3372	1058.2949	1079.6859	1118.4014	1124.6523	1144.3049	1183.7243	1205.026	1236.9736	1273.8176	1308.4763	1329.1314	1375.0859	1383.597	1407.5725	1412.9415	1426.4737	1464.0957	1475.519	1478.9949	1488.258	1498.3391	1500.0529	1512.8878	1784.0253	3011.2651	3015.9208	3029.4252	3032.898	3048.1771	3092.6144	3093.1578	3099.5913	3102.1123	3127.0017	3132.3805	3152.3907	3160.2557	3225.2115
CCCC1CC1C(C)=O	CCC[C@H]1C[C@H]1C(=O)C	
InChI=1S/C8H14O/c1-3-4-7-5-8(7)6(2)9/h7-8H,3-5H2,1-2H3	InChI=1S/C8H14O/c1-3-4-7-5-8(7)6(2)9/h7-8H,3-5H2,1-2H3/t7-,8-/m0/s1
