14
gdb 24476	4.09159	1.61666	1.1588	3.7192	80.05	-0.2008	-0.0609	0.1399	965.3268	0.104828	-399.590801	-399.584802	-399.583858	-399.621056	24.252	
O	-0.0527990357	 1.338302908	 0.0097427774	-0.184687
C	 1.0941888596	 2.088692691	 0.0027718541	 0.036351
C	 2.3311873505	 1.546588944	-0.0119961883	-0.269862
C	 2.4587927499	 0.1308801258	-0.0208081847	 0.233165
C	 3.4594975491	-0.8060590617	-0.0353824627	-0.178219
N	 2.9459464754	-2.0982910918	-0.0374892966	-0.238521
C	 1.6317973014	-2.0170691091	-0.024398633	-0.13996
C	 1.2103862209	-0.6450290747	-0.0130059117	 0.136592
C	 0.023477682	 0.0008249589	 0.0018342714	-0.027094
H	 0.8603272104	 3.1428578064	 0.0106783426	 0.143342
H	 3.1895920999	 2.2086010422	-0.0166592982	 0.121483
H	 4.5289076009	-0.6495242198	-0.0447669553	 0.103146
H	 1.0004992793	-2.8964044347	-0.0230795284	 0.109381
H	-0.9592273836	-0.4559836444	 0.0087990734	 0.154882
193.2968	238.2395	392.3141	407.8579	545.3771	547.2982	608.774	644.8747	734.896	772.6988	789.7224	819.423	842.4321	872.4163	896.4317	925.3113	936.1445	980.657	1091.7507	1156.3351	1211.7385	1235.9535	1282.5934	1310.1261	1333.4668	1384.6309	1401.1807	1472.7725	1574.129	1624.0563	1677.323	3199.7809	3211.2067	3213.1357	3232.0171	3253.8741
O1C=CC2=CN=CC2=C1	o1ccc2cncc2c1	
InChI=1S/C7H5NO/c1-2-9-5-7-4-8-3-6(1)7/h1-5H	InChI=1S/C7H5NO/c1-2-9-5-7-4-8-3-6(1)7/h1-5H
