18
gdb 37643	3.2105	2.33487	2.06922	1.5149	75.67	-0.2173	0.0754	0.2927	772.3784	0.15244	-364.741609	-364.736366	-364.735422	-364.770787	24.106	
C	-0.0694312079	 1.5604564272	 0.0533454279	-0.245246
C	 1.4888441171	 1.5426813799	-0.0025051832	-0.064149
C	 2.0950355	 1.3014099188	 1.3711848194	-0.054422
C	 1.3748268652	 0.2420961747	 2.1962818323	-0.119459
C	 2.6736900928	-0.0807236745	 1.4771830847	-0.040448
N	 1.9501936374	-0.8705061227	 0.4426609767	-0.147244
C	 0.6478781709	-0.6640525419	 1.1940080594	 0.002819
C	-0.0276783459	 0.0240577591	-0.0384338981	-0.051858
C	 1.4254980572	 0.0852633883	-0.5951988821	-0.008299
H	-0.5290420884	 2.0164688112	 0.9358736858	 0.092973
H	-0.5090811604	 1.9958944508	-0.8483101698	 0.09895
H	 1.9944037059	 2.3259629233	-0.5697108721	 0.064705
H	 2.559662423	 2.1111205143	 1.922325059	 0.086714
H	 1.1705869656	 0.3555037965	 3.2537410438	 0.085644
H	 3.6617736373	-0.3428094515	 1.8343434708	 0.091284
H	 0.1829105319	-1.5625330926	 1.6058674532	 0.073538
H	-0.8424403266	-0.5283900985	-0.5057021536	 0.067023
H	 1.7240272449	-0.0877994625	-1.629655004	 0.067474
324.7421	404.6365	558.8261	654.1946	668.7064	697.3871	716.2303	774.5318	788.918	819.2757	845.7088	861.7293	870.8038	922.9333	951.7033	961.3105	977.4034	987.0364	1004.7967	1022.0641	1025.2538	1045.4093	1064.5734	1075.8667	1087.6876	1122.253	1134.7807	1186.7747	1211.3641	1222.9147	1230.419	1244.9061	1267.72	1277.1729	1303.9335	1324.6634	1330.7714	1381.4025	1484.9187	3044.5104	3075.8463	3088.0598	3099.7312	3101.974	3115.083	3177.6114	3179.8885	3195.0481
C1C2C3C4C3N3C4C1C23	C1[C@H]2[C@H]3[C@@H]4[C@H]3N3[C@@H]4[C@@H]1[C@@H]23	
InChI=1S/C8H9N/c1-2-4-5-7-3(1)6(2)9(7)8(4)5/h2-8H,1H2	InChI=1S/C8H9N/c1-2-4-5-7-3(1)6(2)9(7)8(4)5/h2-8H,1H2/t2-,3-,4-,5-,6+,7+,8-/m0/s1
