19
gdb 71830	2.45118	2.08755	1.38687	1.5321	80.16	-0.2161	0.0048	0.2209	983.7315	0.158605	-385.856991	-385.849043	-385.848098	-385.888806	31.92	
C	-0.0908640605	 1.4755126043	-0.07488748	-0.499896
C	-0.0646557711	-0.013667676	 0.0382738791	 0.43486
O	-0.0877199552	-0.7314685355	-1.17817078	-0.33436
C	-0.5512156238	-1.9415083114	-0.4383926497	 0.033256
C	 0.7015478193	-2.7304297229	-0.1629924176	-0.107154
C	 1.4278704234	-2.025610111	 0.7161404584	-0.123315
C	 0.6672089305	-0.8404924044	 1.1905055237	 0.224677
C	 1.0399801052	-0.1399951426	 2.4742343337	-0.501848
C	-0.788075082	-1.0608781469	 0.8177635844	-0.252623
H	 0.7615675558	 1.8138934876	-0.6742422691	 0.136645
H	-1.0061280648	 1.8094738682	-0.5744016659	 0.131372
H	-0.0338209327	 1.9579513525	 0.9029150205	 0.125582
H	-1.3812702379	-2.4138558899	-0.9613052502	 0.079916
H	 1.024921564	-3.5840192502	-0.7438736519	 0.101136
H	 2.455879913	-2.2186603078	 1.0013608567	 0.096963
H	 2.0356292564	 0.3134261182	 2.4121078814	 0.121547
H	 0.3308422375	 0.6540856151	 2.7263019829	 0.117685
H	 1.046877902	-0.8454457451	 3.3132082303	 0.122864
H	-1.632031909	-1.0420390122	 1.4978459232	 0.092693
157.321	169.7756	199.7052	250.2029	307.4925	339.1647	413.0969	430.7293	577.8879	589.6834	634.2421	698.3939	727.1687	771.2674	823.295	840.9394	874.941	910.2207	925.0177	942.8682	971.8487	979.835	988.5926	1079.0623	1096.6731	1097.775	1166.3061	1192.3426	1224.8356	1252.9098	1260.6544	1314.3423	1379.6863	1391.2979	1419.0759	1430.7157	1474.1352	1489.367	1494.3569	1506.3629	1629.2741	3025.5675	3037.977	3082.9548	3097.0417	3101.0509	3129.3789	3132.0279	3172.7684	3191.402	3226.5144
CC12OC3C=CC1(C)C23	C[C@@]12O[C@H]3C=C[C@]1(C)[C@@H]23	
InChI=1S/C8H10O/c1-7-4-3-5-6(7)8(7,2)9-5/h3-6H,1-2H3	InChI=1S/C8H10O/c1-7-4-3-5-6(7)8(7,2)9-5/h3-6H,1-2H3/t5-,6-,7+,8-/m0/s1
