12
gdb 16606	3.25257	2.39855	1.55955	4.4623	54.71	-0.2442	-0.0959	0.1483	761.7475	0.083389	-418.483318	-418.476985	-418.476041	-418.514086	23.316	
O	 0.010498958	 0.0070656173	-0.1886169788	-0.266633
C	-0.0457247868	 1.1843012712	 0.0252976274	 0.308623
C	-1.3005717676	 2.0361637975	 0.2369975797	-0.358819
C	-0.7643269292	 3.3731851175	 0.7075289329	 0.037695
O	 0.0642098614	 3.237496675	 1.8567610562	-0.237316
C	 0.7104028511	 3.4491780488	 0.5828663749	-0.089029
C	 1.1991173504	 2.1344233003	 0.0502286751	 0.332664
O	 2.2957926186	 1.8452508818	-0.3402876049	-0.281444
H	-1.839817206	 2.1228874566	-0.7143248931	 0.145868
H	-1.9753884863	 1.5744041279	 0.9629018252	 0.156235
H	-1.370854491	 4.2733955308	 0.6659921743	 0.121394
H	 1.2726115673	 4.3688933853	 0.4638686212	 0.130762
86.2324	193.4121	313.8859	354.8968	427.7155	505.4367	613.1822	640.2662	698.7248	731.0351	829.9978	857.3561	923.5127	986.347	1012.8734	1064.6247	1103.3296	1169.2669	1186.3318	1236.0963	1283.4749	1317.8843	1403.9979	1440.7961	1851.9006	1868.9406	3048.044	3105.8287	3160.4327	3187.5708
O=C1CC2OC2C1=O	O=C1C[C@H]2O[C@H]2C1=O	
InChI=1S/C5H4O3/c6-2-1-3-5(8-3)4(2)7/h3,5H,1H2	InChI=1S/C5H4O3/c6-2-1-3-5(8-3)4(2)7/h3,5H,1H2/t3-,5-/m1/s1
