19
gdb 126334	2.04954	1.58624	0.95574	1.5705	78.72	-0.2097	0.034	0.2437	1262.1082	0.159978	-419.229025	-419.219699	-419.218755	-419.263516	33.581	
C	 0.141199646	 1.5401825175	 0.1651649812	-0.36993
C	-0.0861389984	 0.0340162697	-0.0503041132	-0.30565
C	 0.6277478834	-0.5068234296	-1.2520795701	 0.097504
C	 0.1125605505	-0.9741059585	-2.4427741163	-0.111676
N	 1.1578191753	-1.3430956166	-3.221439353	-0.220245
N	 2.357910416	-1.1500306201	-2.61785322	-0.328123
C	 2.030124103	-0.6471096963	-1.436525263	 0.394825
O	 2.9375199327	-0.3053999742	-0.5012023131	-0.268388
C	 4.2993412344	-0.5245119635	-0.8521907547	-0.233338
H	 1.2077178487	 1.753035583	 0.2799091912	 0.133434
H	-0.2275195848	 2.117777304	-0.6884714324	 0.112132
H	-0.3765092181	 1.8901194404	 1.0641854184	 0.105579
H	 0.2483795644	-0.5046678155	 0.845132069	 0.110498
H	-1.159043485	-0.1677753274	-0.1472145846	 0.095735
H	-0.9082515665	-1.070716215	-2.780052597	 0.131914
H	 1.1380062135	-1.7313064061	-4.1470507021	 0.27063
H	 4.888269923	-0.2019932148	 0.0078243014	 0.123993
H	 4.4853339804	-1.5832759573	-1.06192019	 0.130511
H	 4.5753305516	 0.0568333101	-1.7385037119	 0.130598
63.4804	100.6638	145.5181	177.5947	184.6717	247.5213	305.1456	318.9277	349.7132	441.8854	528.1479	619.8663	653.7529	745.4547	753.947	786.4318	801.8879	942.7173	967.1523	1050.5307	1066.9829	1082.6645	1094.4882	1181.7082	1183.3534	1210.3552	1258.8641	1284.147	1325.9718	1366.3538	1406.677	1422.7895	1452.8503	1478.4828	1481.1788	1489.5872	1495.5467	1503.1037	1509.724	1557.476	1629.1811	3024.2257	3029.2138	3036.0266	3061.0462	3093.6309	3104.307	3119.1958	3140.056	3251.2727	3696.8029
CCC1=CNN=C1OC	CCc1c[nH]nc1OC	
InChI=1S/C6H10N2O/c1-3-5-4-7-8-6(5)9-2/h4H,3H2,1-2H3,(H,7,8)	InChI=1S/C6H10N2O/c1-3-5-4-7-8-6(5)9-2/h4H,3H2,1-2H3,(H,7,8)
