10
gdb 21352	5.59954	2.30772	1.63421	5.1214	55.12	-0.2632	-0.0664	0.1968	676.9491	0.063012	-409.59584	-409.590584	-409.58964	-409.625042	20.007	
N	 0.0368257251	 1.3318344282	 0.0093237909	-0.170195
C	 1.2760287337	 1.8752194541	-2.876*^-7	-0.14652
C	 2.1127733181	 0.7716719232	-0.0138413122	 0.201118
N	 3.4013245416	 0.3011648912	-0.0285455742	-0.186141
N	 3.4249977237	-0.9350066088	-0.0360701968	-0.012918
O	 1.9649864065	-1.4647630443	-0.0246787643	-0.272764
C	 1.2622911314	-0.3491972722	-0.0118299793	 0.471017
N	-0.0241554112	-0.0391323815	 0.0023522174	-0.344332
H	-0.8354876625	 1.8350708597	 0.0206732912	 0.292709
H	 1.4383781537	 2.9398145203	 0.0041697694	 0.168028
260.9332	322.2285	357.2125	538.6924	553.1565	628.3525	652.5458	717.2775	765.9649	771.1426	798.1609	942.8639	985.8539	1036.4965	1174.9068	1244.3785	1339.5399	1440.7809	1471.1374	1518.8932	1543.8026	1643.5494	3284.4385	3666.7846
N1C=C2N=NOC2=N1	[nH]1cc2nnoc2n1	
InChI=1S/C3H2N4O/c1-2-3(6-4-1)8-7-5-2/h1H,(H,4,6)	InChI=1S/C3H2N4O/c1-2-3(6-4-1)8-7-5-2/h1H,(H,4,6)
