21
gdb 115942	3.5508	1.08376	0.91553	2.5602	77.67	-0.2219	0.0708	0.2927	1311.1577	0.183855	-424.205253	-424.196638	-424.195693	-424.238538	33.351	
O	-0.0103240436	 1.424174762	-0.0214129212	-0.424045
C	 0.0228042928	 0.0040716224	-0.0089191628	-0.092795
C	-1.4105105001	-0.5133300936	 0.0171996778	 0.02035
C	-2.1792825901	-0.0947125931	-1.2384475044	-0.086957
O	-3.5553257848	-0.4350242478	-1.1599005695	-0.255537
C	-3.8407655591	-1.7559392144	-0.8063424168	 0.136472
C	-3.2503286348	-2.9420440998	-1.518383698	-0.330324
C	-2.835140628	-2.6201397533	-0.0879635169	-0.074918
C	-1.4461981088	-2.0437986895	 0.1820079446	-0.251036
H	 0.8928082787	 1.7481185924	-0.0811229077	 0.287902
H	 0.5403538065	-0.3893575244	-0.9004565894	 0.08367
H	 0.5636425277	-0.37431796	 0.8737166221	 0.085881
H	-1.9187529146	-0.0504396786	 0.8726663938	 0.090842
H	-2.1488131111	 0.9890440033	-1.3606478004	 0.127655
H	-1.7132873957	-0.5451062729	-2.1322646468	 0.080482
H	-4.8812185457	-1.8191327783	-0.5052999735	 0.096979
H	-3.887988488	-3.8004876238	-1.7000881435	 0.108068
H	-2.5130625964	-2.765368313	-2.2948628285	 0.112469
H	-3.2248122817	-3.274143245	 0.6854272523	 0.086178
H	-0.7097615002	-2.5006128771	-0.4932160126	 0.096692
H	-1.1309053828	-2.3066191155	 1.1972445315	 0.101973
78.8269	126.209	184.6561	226.1459	258.0879	313.3237	358.8114	399.0075	441.5739	501.892	511.3101	689.9146	753.7203	798.5816	835.0108	859.5054	894.0067	936.6105	971.0582	1003.3966	1033.1196	1047.5754	1070.7155	1086.6178	1107.3037	1127.0841	1142.6795	1164.4505	1190.4062	1223.7831	1239.414	1248.6276	1260.31	1305.8042	1315.2397	1346.4069	1367.4124	1381.2453	1401.9232	1425.6527	1456.2471	1478.9761	1493.5451	1514.3968	1519.9609	2950.5341	2956.1712	2982.8771	3009.4078	3035.7549	3065.6204	3118.6356	3129.7448	3149.4689	3164.389	3214.8326	3834.8451
OCC1COC2CC2C1	OC[C@H]1CO[C@H]2C[C@H]2C1	
InChI=1S/C7H12O2/c8-3-5-1-6-2-7(6)9-4-5/h5-8H,1-4H2	InChI=1S/C7H12O2/c8-3-5-1-6-2-7(6)9-4-5/h5-8H,1-4H2/t5-,6+,7-/m0/s1
