13
gdb 131261	3.38994	1.83674	1.19128	5.3738	65.01	-0.207	0.0219	0.2288	928.729	0.09216	-448.945833	-448.938768	-448.937824	-448.977301	26.24	
O	-0.1697867058	 1.3405454139	 0.0103205835	-0.412128
C	 0.0108512651	 0.0084911847	 0.0025375871	 0.353708
C	 1.1115937291	-0.7983899026	-0.0068091954	-0.234268
N	 0.6715376539	-2.1363123225	-0.0116494167	-0.420944
C	-0.6854657662	-2.1295014911	-0.0054480618	 0.513297
N	-1.718391198	-2.9562624476	-0.0049025093	-0.406624
C	-2.7524285419	-2.0610835083	 0.0043356021	 0.037655
N	-2.4528943217	-0.7623968313	 0.010028076	-0.286446
N	-1.0879030969	-0.8279909663	 0.0032153391	-0.002544
H	 0.688522999	 1.7768335868	 0.0095995838	 0.313676
H	 2.15643411	-0.5443463081	-0.0103629052	 0.139295
H	 1.2544785948	-2.9525535447	-0.0188250029	 0.28187
H	-3.7842760513	-2.381211313	 0.0074927097	 0.123455
126.7283	200.2879	217.6591	249.8845	289.2015	435.372	576.3611	579.1016	634.6615	646.5531	663.0832	738.2355	762.6195	825.7842	904.065	979.155	1075.6984	1115.1789	1176.721	1216.9514	1257.2044	1281.9215	1297.8257	1347.2672	1423.6489	1472.5505	1528.654	1648.4798	1686.3321	3255.7495	3292.3891	3711.7356	3836.2983
OC1=CNC2=NC=NN12	Oc1c[nH]c2ncnn12	
InChI=1S/C4H4N4O/c9-3-1-5-4-6-2-7-8(3)4/h1-2,9H,(H,5,6,7)	InChI=1S/C4H4N4O/c9-3-1-5-4-6-2-7-8(3)4/h1-2,9H,(H,5,6,7)
