17
gdb 125143	2.82823	1.50736	1.03643	3.4898	76.81	-0.2156	0.0052	0.2208	1137.9273	0.136117	-417.975447	-417.967097	-417.966153	-418.009763	29.868	
C	 0.2628362053	 1.4496981917	-0.0752560484	-0.518317
C	 0.0558529645	-0.0301491304	-0.00131693	 0.052165
C	-0.0989632483	-0.9197052043	-1.0306117736	 0.407669
O	-0.285829974	-2.1659739959	-0.5604788878	-0.215623
N	-0.2617790381	-2.1312214578	 0.8416677446	-0.160713
C	-0.0556889798	-0.8710048721	 1.1378336184	-0.023043
N	-0.1729291278	-0.7319496728	-2.4009219837	-0.162738
C	 1.0489056136	-0.4565358379	-3.1695435118	-0.227596
C	 0.3461711748	-1.7622802008	-3.296673607	-0.221732
H	 1.3147687465	 1.7323167427	 0.053603709	 0.129264
H	-0.0674939776	 1.8376488834	-1.0429025562	 0.136785
H	-0.3077862664	 1.9679044678	 0.7018562775	 0.133178
H	-0.0000231089	-0.5875890844	 2.1809982129	 0.124889
H	 0.9440793952	 0.3024269717	-3.9380641039	 0.131592
H	 1.988427648	-0.4430127257	-2.6237049848	 0.133995
H	 0.8084315324	-2.6327549382	-2.8418975371	 0.147621
H	-0.2736956894	-1.965459347	-4.164028308	 0.132604
39.4741	55.6709	157.3219	174.8336	255.1481	287.0495	378.3827	504.1692	571.04	638.3501	682.058	733.1951	818.7571	886.1543	908.5793	914.6666	931.4223	959.0801	1005.3905	1041.6287	1068.3088	1116.7037	1138.6144	1159.4405	1173.9006	1195.8921	1207.7373	1239.212	1351.8251	1402.858	1430.1097	1488.0652	1493.2737	1498.1847	1517.6167	1529.5424	1674.4731	3026.4366	3081.6671	3112.583	3117.4006	3127.544	3206.2096	3221.4765	3227.1377
CC1=C(ON=C1)N1CC1	Cc1c(onc1)N1CC1	
InChI=1S/C6H8N2O/c1-5-4-7-9-6(5)8-2-3-8/h4H,2-3H2,1H3	InChI=1S/C6H8N2O/c1-5-4-7-9-6(5)8-2-3-8/h4H,2-3H2,1H3
