17
gdb 98534	3.77296	1.08854	0.98117	3.386	69.92	-0.2576	-0.0402	0.2175	1219.6425	0.134089	-458.900153	-458.891827	-458.890883	-458.93413	30.822	
O	 0.163065361	 1.2659485464	-0.2249382304	-0.42207
C	 0.009208301	-0.1191237565	-0.2959316941	-0.137398
C	-1.3861273318	-0.5379131465	 0.1221072015	 0.184989
O	-2.2066760163	 0.2890618843	 0.4618996688	-0.337046
C	-1.7080790447	-1.9975617768	 0.0991259288	 0.366059
C	-2.051864409	-2.9477885221	 1.2817956924	-0.245004
C	-1.8555599098	-3.7760981677	-0.009248858	 0.04106
C	-2.7274901573	-2.765519141	-0.7902165665	-0.244942
O	-0.6588139789	-2.9541863876	-0.3272593255	-0.343618
H	-0.6926378326	 1.6041710548	 0.0837121923	 0.294359
H	 0.1875566171	-0.5032629588	-1.313780744	 0.131966
H	 0.7294634216	-0.6487117566	 0.3491639382	 0.131942
H	-1.2636701511	-3.0521135242	 2.0275489768	 0.11917
H	-3.0527851309	-2.8793203157	 1.7111938802	 0.116185
H	-1.7633998891	-4.8538765943	-0.1340668474	 0.109011
H	-3.7851798258	-2.6817336061	-0.534928227	 0.116164
H	-2.5316700935	-2.7100174017	-1.8611311561	 0.119173
33.1666	104.604	138.8561	204.5363	307.3953	354.6847	404.2406	443.5052	536.9857	537.3911	601.2202	743.5387	789.1642	790.1544	889.6895	931.5103	932.0411	936.0886	982.7659	1000.8575	1053.0092	1085.7478	1093.173	1121.9741	1140.2812	1162.5487	1215.9256	1228.4897	1236.8306	1241.1151	1291.1258	1346.5643	1448.7589	1466.1003	1480.011	1508.5124	1788.908	2982.6587	2996.3337	3076.3287	3082.3724	3135.1965	3160.2239	3165.3691	3688.2785
OCC(=O)C12CC(C1)O2	OCC(=O)[C@@]12C[C@@H](C1)O2	
InChI=1S/C6H8O3/c7-3-5(8)6-1-4(2-6)9-6/h4,7H,1-3H2	InChI=1S/C6H8O3/c7-3-5(8)6-1-4(2-6)9-6/h4,7H,1-3H2/t4-,6+
