19
gdb 91354	1.92939	1.6248	1.55525	0.9028	70.61	-0.242	0.0576	0.2996	1036.1201	0.157626	-460.122824	-460.113927	-460.112983	-460.155968	34.262	
C	-0.5662791731	 1.4607008782	-0.051113384	-0.428791
C	 0.0089695811	 0.0560607276	-0.0331558254	 0.114146
O	 1.1738284528	-0.0962227155	-0.8860689688	-0.308556
C	 1.9499364961	-0.6870523947	 0.1713504747	 0.039768
C	 2.752711959	 0.3754052035	 0.9610173156	-0.295959
C	 1.6466824676	 0.3685791877	 2.0683449026	 0.060153
O	 1.1724209157	 1.5488210675	 2.6581074135	-0.425059
C	 0.7522109874	-0.5400143842	 1.1849560299	 0.29632
O	 0.001601348	-1.5436209225	 1.7906005797	-0.474924
H	 0.2112998141	 2.2196940474	 0.0844892144	 0.10864
H	-1.0336712251	 1.6607620786	-1.0202940109	 0.133147
H	-1.3294693079	 1.5762404442	 0.7249490913	 0.13561
H	-0.7674754313	-0.6626679695	-0.3278674274	 0.095468
H	 2.4333343929	-1.6224042539	-0.1160131847	 0.081044
H	 3.7436812239	 0.0794103269	 1.3114911087	 0.106857
H	 2.8352250372	 1.312764931	 0.4058207431	 0.1107
H	 1.9952062667	-0.2436901645	 2.9116482067	 0.083952
H	 0.8930192598	 2.1492074914	 1.9610604262	 0.284631
H	 0.4433329051	-1.8173108193	 2.6011879348	 0.282851
81.2518	150.86	217.3832	244.3355	274.4339	289.9768	316.556	355.3129	388.8889	430.1608	464.6192	585.7184	603.0736	671.6577	743.8101	838.1515	870.9449	904.0681	972.8143	997.1044	1006.21	1038.3222	1087.2129	1105.9963	1116.23	1141.9892	1150.0794	1158.8884	1209.2673	1247.3512	1263.2784	1298.3435	1307.0816	1345.1252	1380.6217	1401.1045	1411.1016	1442.8949	1469.9305	1481.5781	1510.9625	3010.8732	3015.6482	3033.2291	3067.3733	3097.2158	3099.9746	3114.719	3126.6934	3810.9732	3838.3488
CC1OC2CC(O)C12O	C[C@H]1O[C@H]2C[C@@H](O)[C@@]12O	
InChI=1S/C6H10O3/c1-3-6(8)4(7)2-5(6)9-3/h3-5,7-8H,2H2,1H3	InChI=1S/C6H10O3/c1-3-6(8)4(7)2-5(6)9-3/h3-5,7-8H,2H2,1H3/t3-,4-,5+,6+/m1/s1
