16
gdb 44070	3.3656	1.53982	1.41672	3.6282	69.75	-0.2409	-0.0193	0.2216	939.1199	0.124771	-437.756565	-437.749875	-437.748931	-437.787466	27.399	
O	-0.0290399537	 0.015899125	 0.1136210292	-0.329499
C	 0.002624647	 1.2137276759	 0.0872988904	 0.501609
C	-1.1320503115	 2.2403106294	 0.1427790071	-0.339591
C	-0.2849910603	 3.5241132466	 0.0187556549	 0.22974
C	-0.8910440662	 4.5253080546	-1.00847363	-0.198685
O	-0.294587405	 3.6666497442	-2.0711587438	-0.317909
C	 0.6991493048	 3.279346819	-1.03913666	 0.122146
C	 1.2003608634	 2.1384852918	-0.0394453999	-0.218649
N	 0.8154564629	 3.1720562545	 1.0681428734	-0.404271
H	-1.8261671052	 2.0966208576	-0.6878467167	 0.143388
H	-1.6747164115	 2.1966901463	 1.090361541	 0.137485
H	-1.978440372	 4.5765848767	-1.0989264938	 0.12986
H	-0.440150591	 5.5233204828	-1.0219730579	 0.119783
H	 1.5064153318	 4.0212546946	-1.0881025601	 0.092558
H	 2.2067739804	 1.7240658284	-0.0273211467	 0.101366
H	 1.5358578163	 3.8980631726	 1.0499311929	 0.230669
120.7534	287.8113	302.8914	333.8721	468.5512	471.5367	533.2218	572.5925	616.4356	713.7686	752.0833	781.5519	815.9	839.0152	873.2884	896.8868	925.9724	966.4189	1024.833	1039.7827	1082.9626	1111.4626	1133.4212	1146.098	1152.7031	1175.4237	1230.7967	1263.1654	1275.891	1319.8457	1332.1398	1407.7028	1435.2877	1500.4962	1886.0691	3015.7832	3043.9875	3076.642	3121.6925	3134.2705	3150.8188	3434.1586
O=C1CC23COC2C1N3	O=C1C[C@]23CO[C@@H]2[C@H]1N3	
InChI=1S/C6H7NO2/c8-3-1-6-2-9-5(6)4(3)7-6/h4-5,7H,1-2H2	InChI=1S/C6H7NO2/c8-3-1-6-2-9-5(6)4(3)7-6/h4-5,7H,1-2H2/t4-,5+,6-/m0/s1
