18
gdb 69637	3.48851	1.21902	1.1811	3.4517	78.	-0.2316	-0.0297	0.2019	1124.125	0.146094	-401.880954	-401.872758	-401.871813	-401.91345	31.709	
C	 0.0556881835	 1.487707351	-0.2581303343	-0.480934
C	-0.117315562	 0.0073240463	-0.0969318153	 0.329993
C	-1.0208016387	-0.6301697946	 0.8873995058	-0.30149
N	 0.4405834481	-0.735015189	 1.0913741777	-0.21374
C	 1.0315934147	-1.7489542532	 0.1391183927	 0.250775
C	 0.1323191167	-2.4002679934	-0.888404907	-0.353371
C	 0.51806763	-0.9809767523	-1.0967565213	-0.150673
C	 2.4017697955	-2.218514185	 0.3841659762	 0.078508
O	 3.0242655904	-2.9330857959	-0.3700448646	-0.281593
H	 1.090286707	 1.7339060537	-0.5213431099	 0.129178
H	-0.5956279813	 1.8701326546	-1.0527272262	 0.126377
H	-0.1915919868	 2.0090832582	 0.6703417514	 0.132603
H	-1.4785789375	 0.0315668278	 1.6172752215	 0.128006
H	-1.6156773172	-1.5078619411	 0.6637636316	 0.12424
H	 0.69234302	-3.1030162568	-1.4972494221	 0.154609
H	-0.878920862	-2.7123849206	-0.6576077513	 0.124539
H	 1.1270917197	-0.6544822368	-1.929850367	 0.118398
H	 2.83793619	-1.837564483	 1.3323207721	 0.084575
102.8559	171.0545	186.5431	209.8777	296.0089	315.9885	372.9486	468.5471	478.0538	540.8505	611.9419	692.9713	735.3042	770.2391	811.5661	892.7348	918.5305	930.3419	967.3804	1003.4628	1010.383	1047.5696	1060.6156	1075.3784	1103.0945	1115.9552	1132.5971	1189.5013	1215.6587	1314.6442	1348.651	1384.8065	1413.2007	1421.1183	1470.6447	1482.175	1493.8002	1520.6859	1790.2379	2908.5036	3029.2343	3090.6178	3118.5717	3127.7351	3143.2908	3202.939	3212.1671	3226.9414
CC12CN1C1(CC21)C=O	C[C@]12CN1[C@]1(C[C@@H]21)C=O	
InChI=1S/C7H9NO/c1-6-3-8(6)7(4-9)2-5(6)7/h4-5H,2-3H2,1H3	InChI=1S/C7H9NO/c1-6-3-8(6)7(4-9)2-5(6)7/h4-5H,2-3H2,1H3/t5-,6+,7+,8?/m0/s1
