18
gdb 94961	3.28799	1.2853	1.01591	3.6653	71.62	-0.2452	0.0328	0.2779	1153.8452	0.149268	-439.115215	-439.107185	-439.106241	-439.148101	30.791	
O	-0.0069600951	 1.3978720201	-0.0963879377	-0.439938
C	 0.045693076	-0.0159256655	-0.0042382139	 0.11228
C	 0.6496286458	-0.5500111638	 1.3116299731	-0.237138
C	 0.0588483273	-1.9652748501	 1.4686577517	-0.244974
C	-1.3836794385	-1.8234166527	 0.9333022414	-0.186264
C	-1.3907998782	-0.5761608654	-0.0051184527	 0.036519
N	-1.7720256843	-1.4829956509	-1.0931490738	-0.332639
C	-1.7540023077	-2.6339605158	-0.3386249362	 0.418896
O	-1.9392612963	-3.7902829408	-0.6065218809	-0.364254
H	 0.8920063872	 1.7365066853	-0.0405452481	 0.285326
H	 0.5902798444	-0.4420330343	-0.8613280252	 0.070443
H	 1.7446795582	-0.5330991323	 1.320693717	 0.094407
H	 0.2993243515	 0.09943694	 2.123620158	 0.110206
H	 0.6194088271	-2.6891371107	 0.867459244	 0.118213
H	 0.091169025	-2.3183743537	 2.5015910468	 0.112521
H	-2.1497050559	-1.8465927558	 1.7090819183	 0.100435
H	-2.1146914369	 0.217379292	 0.1967812298	 0.09683
H	-1.8918750695	-1.3359043156	-2.0848630416	 0.249132
60.3474	129.7796	214.3771	270.5635	315.3419	344.9586	393.9753	475.1444	482.5	526.8641	643.1497	706.251	789.6384	830.7381	838.808	898.2231	911.1377	962.8588	1004.5526	1046.8947	1067.6047	1096.3937	1103.1361	1151.2719	1159.7713	1178.6382	1205.1472	1238.7436	1259.0122	1304.2779	1316.4215	1326.1704	1337.8277	1358.4716	1382.0558	1431.6883	1491.7313	1504.5972	1892.3592	2977.2485	3031.9416	3051.2017	3081.8217	3082.2219	3100.937	3117.3161	3604.709	3822.0525
OC1CCC2C1NC2=O	O[C@H]1CC[C@H]2[C@@H]1NC2=O	
InChI=1S/C6H9NO2/c8-4-2-1-3-5(4)7-6(3)9/h3-5,8H,1-2H2,(H,7,9)	InChI=1S/C6H9NO2/c8-4-2-1-3-5(4)7-6(3)9/h3-5,8H,1-2H2,(H,7,9)/t3-,4-,5-/m0/s1
