20
gdb 68898	2.66006	1.45628	1.10611	4.2325	79.18	-0.2357	-0.0098	0.2259	1155.8147	0.169949	-403.17272	-403.163835	-403.162891	-403.205896	34.387	
C	-0.2219305101	 1.5526526475	 0.1000375994	-0.494399
C	 0.1852669212	 0.1051933782	-0.0024560614	 0.278853
C	 0.6457105767	-0.4273194009	-1.347042597	-0.363506
C	 1.4286494684	-1.7081631633	-1.0270837288	 0.398475
O	 1.7586098433	-2.5432805492	-1.8264357368	-0.30735
C	 1.7459976814	-1.736028376	 0.4743949724	-0.363498
C	 0.846422443	-0.6810971626	 1.0919318419	 0.278856
C	 1.1993615576	-0.1376395072	 2.4526449456	-0.494407
N	-0.5708841361	-0.9393258682	 0.7332919998	-0.40756
H	 0.5748216538	 2.2130565927	-0.2598729556	 0.124309
H	-1.1107516135	 1.7466941533	-0.5114831615	 0.130144
H	-0.4589685868	 1.8413125957	 1.12805457	 0.116979
H	-0.1747801544	-0.6472526744	-2.0356960166	 0.13374
H	 1.321432462	 0.2781945698	-1.848842893	 0.12094
H	 1.5846189322	-2.7399218346	 0.8768627071	 0.13374
H	 2.8073975602	-1.4892524369	 0.6110593966	 0.12093
H	 2.2229297823	 0.2529397934	 2.4681269099	 0.124311
H	 0.5273213275	 0.6685766009	 2.7603889739	 0.11698
H	 1.137590521	-0.9273332749	 3.2103910508	 0.130143
H	-1.1747393896	-0.4910319731	 1.4203692334	 0.222319
80.3672	176.3159	189.0894	193.4496	249.6349	294.3906	330.2705	425.8516	446.8095	480.9972	510.3874	527.5716	580.6889	689.5157	714.8947	798.9828	820.3823	872.1628	937.8837	968.2974	981.9039	1021.0493	1063.5091	1085.0624	1093.9501	1130.9454	1160.8728	1196.2012	1226.7399	1243.052	1243.5096	1333.155	1369.3769	1413.0551	1416.1078	1425.8053	1443.1865	1452.8418	1480.3563	1490.8677	1493.6074	1510.0803	1852.8187	3025.7034	3029.1044	3030.6504	3034.7887	3086.4383	3087.4274	3097.8708	3097.918	3101.3919	3111.0748	3480.6588
CC12CC(=O)CC1(C)N2	C[C@@]12CC(=O)C[C@]1(C)N2	
InChI=1S/C7H11NO/c1-6-3-5(9)4-7(6,2)8-6/h8H,3-4H2,1-2H3	InChI=1S/C7H11NO/c1-6-3-5(9)4-7(6,2)8-6/h8H,3-4H2,1-2H3/t6-,7+
