21
gdb 64403	2.18792	1.4591	1.10299	3.4988	78.74	-0.2468	-0.0201	0.2267	1189.0572	0.181334	-424.253824	-424.244418	-424.243474	-424.288311	35.657	
C	-0.336196826	 1.5295395115	-0.0046314827	-0.460003
C	 0.0301003056	 0.0456539077	-0.0134307245	 0.3749
O	-1.1646187509	-0.7462055533	-0.0425314552	-0.47143
C	 0.9566199357	-0.3734650128	-1.1720989729	-0.236429
C	 1.4850730499	-1.7419066876	-0.7305090627	-0.200807
C	 1.8003035331	-1.5260293192	 0.7632844633	-0.245114
C	 0.7784424907	-0.4656506836	 1.2697839364	-0.0688
C	 1.4817787659	 0.6382519204	 2.0272062785	 0.143926
O	 1.1679049491	 1.0414636081	 3.1170814067	-0.254504
H	 0.5505108654	 2.1706044539	 0.0254447392	 0.119382
H	-0.8936577715	 1.7857504401	-0.9133746022	 0.103741
H	-0.9634906239	 1.7661223267	 0.8591208406	 0.140701
H	-1.6617091078	-0.4945893783	-0.8292037643	 0.275294
H	 0.4250896061	-0.3873969928	-2.1299691599	 0.086501
H	 1.7815703525	 0.3450501506	-1.2651626483	 0.095278
H	 0.6944561196	-2.4888652728	-0.8440755444	 0.115393
H	 2.354217164	-2.0783543485	-1.3015922565	 0.094603
H	 1.7549638817	-2.44554387	 1.3506046001	 0.113441
H	 2.8203458861	-1.1334988003	 0.8691046829	 0.099056
H	 0.0257933856	-0.8895640982	 1.9360823758	 0.108145
H	 2.3662576991	 1.0686388484	 1.4957310703	 0.066726
47.8634	65.644	218.0746	233.7482	256.1092	298.903	312.804	329.6248	365.2846	422.2435	462.6201	482.0335	578.8726	609.8637	764.7136	832.6808	876.3514	906.8483	912.4606	935.1923	968.874	992.2051	1033.8096	1037.674	1078.9969	1099.0343	1151.6675	1181.4556	1191.1506	1215.1948	1247.9108	1290.8573	1300.0738	1335.0038	1345.7105	1352.9539	1368.3078	1411.5744	1431.2873	1480.5513	1486.9169	1491.3067	1495.4685	1502.8805	1830.4955	2825.3172	3019.8982	3022.7868	3030.1179	3060.1132	3074.6503	3094.1661	3096.918	3108.5508	3114.4928	3120.1899	3795.7814
CC1(O)CCCC1C=O	C[C@@]1(O)CCC[C@H]1C=O	
InChI=1S/C7H12O2/c1-7(9)4-2-3-6(7)5-8/h5-6,9H,2-4H2,1H3	InChI=1S/C7H12O2/c1-7(9)4-2-3-6(7)5-8/h5-6,9H,2-4H2,1H3/t6-,7+/m0/s1
