18
gdb 12012	3.20908	2.01745	1.75686	1.7617	66.37	-0.2564	0.0702	0.3266	838.6912	0.153444	-384.939113	-384.931456	-384.930511	-384.970481	29.963	
C	-0.0020390042	 1.5236585892	 0.0040902076	-0.45588
C	 0.042032175	-0.0018402637	-0.0180761458	 0.364783
O	-1.2748486939	-0.5585972944	 0.0625689915	-0.481351
C	 0.8221099643	-0.5846258816	-1.2289528033	-0.256528
C	 1.3707041392	-1.9517890868	-0.7590885377	-0.243732
C	 1.550429597	-1.7636421551	 0.7337268178	 0.052686
O	 2.1890743789	-0.5206639022	 1.0811483455	-0.272274
C	 0.7649344325	-0.6102287887	 1.1771505772	 0.045228
H	 1.0076124781	 1.9356980789	 0.0880874713	 0.136041
H	-0.4513501264	 1.9172856529	-0.9159975541	 0.105364
H	-0.5971508322	 1.8749122708	 0.8524463469	 0.121303
H	-1.8081049608	-0.151724294	-0.6283021769	 0.277834
H	 0.1707638327	-0.6680090941	-2.1034940844	 0.088209
H	 1.6480329991	 0.0811985148	-1.4896488359	 0.113254
H	 0.6408897412	-2.7517610287	-0.9257667644	 0.112781
H	 2.2976254959	-2.2323559011	-1.2682681443	 0.105523
H	 1.7830089087	-2.60069805	 1.3865156326	 0.092881
H	 0.3351151249	-0.5115132962	 2.1706052964	 0.093877
126.1811	212.0517	237.6626	250.0139	322.2647	343.1331	384.3021	417.5812	511.8764	596.0982	684.8227	767.5939	833.8192	844.1068	873.1829	922.4675	936.8275	967.8561	995.1289	1010.9378	1038.4143	1101.9434	1108.1099	1147.6851	1198.5644	1208.1357	1226.764	1255.8679	1303.1771	1327.9249	1342.2773	1399.1393	1402.8001	1438.6917	1473.0433	1486.0262	1490.6634	1497.5222	3025.5854	3047.6357	3064.564	3089.0807	3093.8837	3112.7258	3120.5691	3146.5081	3159.3591	3809.5666
CC1(O)CCC2OC12	C[C@@]1(O)CC[C@H]2O[C@@H]12	
InChI=1S/C6H10O2/c1-6(7)3-2-4-5(6)8-4/h4-5,7H,2-3H2,1H3	InChI=1S/C6H10O2/c1-6(7)3-2-4-5(6)8-4/h4-5,7H,2-3H2,1H3/t4-,5-,6-/m1/s1
