21
gdb 108083	2.52759	1.43321	1.19752	1.1376	82.47	-0.2287	0.0736	0.3023	1160.0751	0.1825	-387.040683	-387.03205	-387.031106	-387.073773	33.928	
C	 0.1796246617	 1.3837774833	 0.2515915903	-0.375628
C	-0.1300846979	-0.0498672915	-0.1998528804	-0.301518
C	 0.6314716211	-0.4691174877	-1.4248203023	 0.318871
C	 0.453396063	 0.0155968648	-2.866084478	-0.280483
C	 1.3403291165	-1.1876806296	-3.2882861076	-0.137277
C	 2.7373574523	-0.8409493214	-2.7033049944	-0.227761
C	 2.1015074657	-1.0024160186	-1.3254104396	-0.195808
C	 0.9801548807	-1.8537673714	-1.8768080221	 0.319098
O	 0.418825274	-3.0445386271	-1.4949283993	-0.457828
H	 1.2409374496	 1.4988938267	 0.4948895018	 0.115623
H	-0.0593644273	 2.1069660963	-0.5354003827	 0.116735
H	-0.4027567955	 1.6525912736	 1.1384322367	 0.108729
H	 0.0903598269	-0.7510856868	 0.6148491324	 0.100518
H	-1.2064116021	-0.1467590107	-0.3953348694	 0.099026
H	-0.5844809934	-0.1032133947	-3.192420248	 0.096976
H	 0.8129675351	 1.0144085768	-3.1414423151	 0.084427
H	 1.2384255208	-1.6415712235	-4.272098005	 0.067889
H	 3.4768136373	-1.6228036843	-2.9022700804	 0.090193
H	 3.1560762475	 0.1342483086	-2.9777956095	 0.087849
H	 2.5803647683	-1.069472834	-0.3560143809	 0.081347
H	 1.0901196858	-3.7343364488	-1.5489703363	 0.289025
76.5743	124.1971	203.3843	231.6358	274.8736	316.0564	348.859	392.633	432.4269	541.5255	578.6457	686.7562	696.2388	758.4938	780.7505	834.0157	899.4934	926.2005	944.2654	967.1329	982.3525	993.9661	998.9592	1038.1878	1067.9161	1090.4641	1113.6185	1125.2686	1168.4751	1191.7058	1209.8423	1230.7853	1254.1273	1275.6491	1293.0781	1317.4749	1339.822	1377.5663	1409.6365	1477.9745	1482.0502	1495.2461	1498.241	1507.5707	1520.101	3015.0732	3023.2239	3031.2488	3033.4243	3047.7909	3084.2876	3087.4331	3101.3845	3104.593	3134.2012	3189.1648	3782.3841
CCC12CC3CC1C23O	CC[C@@]12C[C@H]3C[C@@H]1[C@@]23O	
InChI=1S/C8H12O/c1-2-7-4-5-3-6(7)8(5,7)9/h5-6,9H,2-4H2,1H3	InChI=1S/C8H12O/c1-2-7-4-5-3-6(7)8(5,7)9/h5-6,9H,2-4H2,1H3/t5-,6+,7-,8-/m1/s1
