15
gdb 127709	3.08807	1.51317	1.04686	7.6055	71.7	-0.2401	-0.0713	0.1688	1092.9951	0.111796	-450.124426	-450.11613	-450.115186	-450.15774	29.643	
C	-0.122462198	 1.4589526399	-0.0329813965	-0.333357
N	-0.0268280463	 0.0088530408	 0.0607235905	-0.066086
N	 0.2393391487	-0.6170903605	-1.1435233099	-0.046896
N	 0.2977494467	-1.8647906714	-1.1792295363	-0.197595
C	-0.0265146346	-2.6363677957	 0.0078368378	 0.40782
O	-0.3565682813	-3.7843676994	-0.1249280012	-0.314024
N	 0.0965403196	-1.9930516214	 1.2338015754	-0.332728
C	 0.0564530409	-0.6994275871	 1.2290171119	 0.41893
C	 0.1255309888	 0.060685029	 2.5217087673	-0.489819
H	 0.723751602	 1.9505093279	 0.4558459331	 0.150218
H	-0.1155357621	 1.7056325191	-1.0943768272	 0.174643
H	-1.0532030548	 1.8129804556	 0.4173443171	 0.152792
H	 0.2246136356	-0.6605632725	 3.3319153943	 0.173493
H	 0.9778853541	 0.7477779689	 2.5358839705	 0.150451
H	-0.7805110893	 0.655230917	 2.679422033	 0.152158
64.341	121.5162	164.1819	199.9288	230.5611	315.4591	368.5338	451.21	520.5631	568.0351	570.7017	616.8668	708.1952	787.9438	829.164	876.9907	929.0052	1041.9855	1059.4491	1149.9402	1163.7911	1195.7396	1260.4335	1386.9448	1409.7911	1451.2904	1468.4667	1476.1721	1494.5787	1503.0093	1557.5125	1651.8514	1834.5916	3043.9271	3049.14	3103.7204	3116.2323	3163.4902	3167.5705
CN1N=NC(=O)N=C1C	Cn1nnc(=O)nc1C	
InChI=1S/C4H6N4O/c1-3-5-4(9)6-7-8(3)2/h1-2H3	InChI=1S/C4H6N4O/c1-3-5-4(9)6-7-8(3)2/h1-2H3
