19
gdb 31241	2.38854	1.31257	0.92267	2.5748	80.03	-0.1932	0.0216	0.2148	1316.7151	0.159721	-419.23875	-419.229389	-419.228445	-419.273878	33.345	
C	 0.2797509129	 1.6724251794	 0.1449843171	-0.363423
C	-0.1103226983	 0.205774099	-0.0968456404	-0.301696
C	 0.5650523347	-0.3890504999	-1.2913046235	 0.176831
C	 0.0309994795	-0.9751983153	-2.4010467757	 0.302091
N	-1.2437122356	-1.3250228288	-2.8049536783	-0.39273
C	-1.6399811513	-1.0141816929	-4.1795366291	-0.33346
O	 1.0557002955	-1.3567938113	-3.2232270344	-0.176026
C	 2.1800663607	-0.9758874902	-2.5540394166	 0.05154
N	 1.9581382174	-0.4169561422	-1.4169946619	-0.302452
H	 1.3640552764	 1.761483135	 0.2498790266	 0.141718
H	-0.0281609702	 2.3040612052	-0.694439046	 0.111082
H	-0.1896957318	 2.0583027979	 1.0552293084	 0.105961
H	 0.1372134819	-0.382302101	 0.7968063081	 0.116187
H	-1.1984529624	 0.1268618277	-0.2178813063	 0.08285
H	-1.9297154902	-1.030883916	-2.1237600978	 0.243895
H	-1.6339229262	 0.0628154532	-4.405470766	 0.115055
H	-0.958565952	-1.5138821117	-4.8706832445	 0.152189
H	-2.6453369743	-1.4056255939	-4.3507794457	 0.127632
H	 3.1195850933	-1.1681246444	-3.0464849042	 0.142757
47.1651	64.4643	155.6126	162.9739	177.4006	217.9361	290.0886	313.0693	416.0795	494.1561	603.992	632.003	677.3057	737.1452	758.1178	787.275	791.6868	950.2654	973.2	1016.774	1061.4322	1083.4227	1099.2847	1117.3613	1152.1975	1188.2593	1250.8798	1292.5693	1309.2727	1360.6485	1403.0094	1415.5694	1460.2017	1470.5716	1478.7885	1492.4322	1495.2343	1509.1515	1516.8525	1574.3959	1685.7242	2990.5162	3013.4717	3038.1163	3044.5666	3096.9654	3106.4567	3125.0197	3139.0369	3279.1653	3592.164
CCC1=C(NC)OC=N1	CCc1c(NC)ocn1	
InChI=1S/C6H10N2O/c1-3-5-6(7-2)9-4-8-5/h4,7H,3H2,1-2H3	InChI=1S/C6H10N2O/c1-3-5-6(7-2)9-4-8-5/h4,7H,3H2,1-2H3
