18
gdb 90758	2.64216	1.58984	1.25907	3.8512	72.19	-0.2374	0.02	0.2574	1038.1252	0.149502	-439.105317	-439.097488	-439.096544	-439.138049	29.915	
O	 0.4319788995	 1.1491289447	-0.4549327316	-0.418769
C	 0.1324225277	-0.1801770078	-0.1045746984	 0.087817
C	 0.2128490244	-0.4965526911	 1.4241861085	-0.216602
N	-1.2645456322	-0.5153938493	 1.4760218085	-0.088172
C	-1.4113359921	-0.3963939151	 0.0109723127	 0.013469
C	-2.4095321937	 0.7571284225	-0.2234326774	-0.251627
C	-3.0942593404	 0.9056740142	 1.1540974362	-0.32439
C	-2.0137125251	 0.4391216106	 2.1446394666	 0.367391
O	-1.8051554708	 0.8410005781	 3.2652195218	-0.360148
H	 1.3756942525	 1.2932251412	-0.3311185842	 0.291994
H	 0.6509099596	-0.8960010524	-0.7551634961	 0.074022
H	 0.662854184	-1.4623630206	 1.6721945798	 0.112741
H	 0.6499599067	 0.2890036664	 2.0477258825	 0.129025
H	-1.7337075223	-1.3343232428	-0.453545773	 0.081457
H	-1.8614014244	 1.667118852	-0.4771278087	 0.139156
H	-3.1098662823	 0.54459057	-1.0333474262	 0.104686
H	-3.4013541927	 1.9232808025	 1.3975623176	 0.131533
H	-3.9747961087	 0.2591618968	 1.2428276214	 0.126418
55.8209	143.8488	209.6113	255.1602	263.6587	400.1862	421.7447	525.3845	556.3849	622.8897	675.3765	721.7744	787.336	821.4948	837.0365	915.5853	966.885	1003.693	1015.9816	1031.4576	1055.3484	1105.8474	1129.9295	1169.1949	1194.2551	1207.2315	1221.6805	1267.0521	1290.9136	1292.177	1301.2586	1314.6553	1343.3396	1372.7547	1416.9131	1470.5541	1493.4116	1500.7564	1824.2105	3016.2171	3042.5789	3051.0019	3051.3242	3078.1698	3106.4874	3122.9137	3134.6699	3817.7389
OC1CN2C1CCC2=O	O[C@H]1CN2[C@H]1CCC2=O	
InChI=1S/C6H9NO2/c8-5-3-7-4(5)1-2-6(7)9/h4-5,8H,1-3H2	InChI=1S/C6H9NO2/c8-5-3-7-4(5)1-2-6(7)9/h4-5,8H,1-3H2/t4-,5-/m0/s1
