14
gdb 133181	2.44835	1.75962	1.03027	2.0383	69.32	-0.2436	-0.0595	0.184	1063.5979	0.100384	-477.950828	-477.943243	-477.942299	-477.983011	28.356	
C	 0.1227358336	 1.4835525512	 0.0534474723	-0.47735
C	 0.0000174844	-0.0090348048	 0.0236265745	 0.183031
C	-0.0798816539	-0.7149735129	-1.1182975007	 0.022499
O	-0.1918592196	-2.0609889181	-1.2143804283	-0.239136
N	-0.2326009925	-2.8297869144	-0.066506343	-0.133398
C	-0.1594286087	-2.1958764529	 1.04163838	 0.299557
F	-0.1995238174	-2.9566763885	 2.1248350552	-0.048367
C	-0.0363717852	-0.7501860568	 1.2743268238	 0.11891
N	 0.0320126215	-0.1896752361	 2.4261574245	-0.527906
H	 1.0363335899	 1.7798698062	 0.5787859912	 0.152048
H	 0.1374522586	 1.9057400204	-0.9542032059	 0.12061
H	-0.709319167	 1.9226987327	 0.6131543805	 0.15205
H	-0.0635811093	-0.2804594559	-2.1110642707	 0.147353
H	-0.0110800144	-0.89104818	 3.1670075065	 0.230098
94.9817	169.916	258.0095	273.8738	321.3292	331.6935	457.1577	462.3092	520.6368	540.1013	577.6901	682.1222	769.5805	861.3203	886.2461	919.9045	941.8307	982.0024	1060.4223	1067.1134	1160.1793	1237.071	1332.0456	1356.7357	1417.6066	1459.5053	1466.7973	1486.3219	1646.6681	1673.3157	1692.2936	3042.1475	3100.3176	3127.68	3212.483	3474.2116
CC1=CON=C(F)C1=N	CC1=C(C(=NO[CH]1)F)[NH]	
InChI=1S/C5H5FN2O/c1-3-2-9-8-5(6)4(3)7/h2,7H,1H3	InChI=1S/C5H5FN2O/c1-3-2-9-8-5(6)4(3)7/h2,7H,1H3
