17
gdb 80337	2.15395	1.5038	1.33122	3.8271	72.69	-0.2371	0.0118	0.2489	1062.3964	0.135407	-417.96378	-417.955105	-417.954161	-417.996857	32.564	
C	-0.0840754511	 1.5054982057	-0.1302654163	-0.423378
C	 0.0462273727	 0.0094635684	 0.0549768016	-0.073229
C	 1.3150374106	-0.7814716344	-0.1607783347	-0.099491
N	 2.4710641906	 0.0382552322	 0.2766862781	-0.321912
C	 1.990417681	-0.0587531193	 1.6953012822	-0.194854
C	 1.9362673116	 1.1945816213	 2.4504614223	 0.29021
N	 1.8714838033	 2.1664166891	 3.0731348766	-0.32958
C	 0.6788278049	-0.721599379	 1.2176553162	 0.331447
O	 0.0503240944	-1.6956941754	 1.9593072657	-0.451398
H	 0.8611761404	 2.0133396313	 0.0678410845	 0.155713
H	-0.3735892737	 1.7305710816	-1.1620013967	 0.11849
H	-0.8469916894	 1.9259059835	 0.5324306089	 0.121688
H	-0.8128250433	-0.5698284902	-0.2828927493	 0.098907
H	 1.4209954564	-1.5894884695	-0.8734859252	 0.110965
H	 3.347103129	-0.4625649625	 0.1714573543	 0.235626
H	 2.5564263674	-0.7936075119	 2.2772076941	 0.133894
H	-0.7448474649	-1.3202865309	 2.3544626576	 0.296901
107.5164	130.3066	175.0242	211.4767	254.127	290.357	331.8127	354.0783	433.4449	527.6219	554.3152	581.1693	655.4413	741.8084	769.1952	824.207	908.8299	937.327	975.1144	980.9679	1038.1679	1065.9	1068.4213	1123.5437	1135.8514	1175.6448	1223.0688	1241.9622	1313.2547	1339.2414	1357.2855	1375.9843	1416.5192	1480.0631	1496.2493	1507.3015	2352.7149	3041.5781	3060.1378	3100.1464	3119.8417	3141.6489	3198.2104	3530.6465	3789.2846
CC1C2NC(C#N)C12O	C[C@H]1[C@H]2N[C@@H](C#N)[C@@]12O	
InChI=1S/C6H8N2O/c1-3-5-6(3,9)4(2-7)8-5/h3-5,8-9H,1H3	InChI=1S/C6H8N2O/c1-3-5-6(3,9)4(2-7)8-5/h3-5,8-9H,1H3/t3-,4-,5+,6-/m0/s1
