14
gdb 9601	4.06456	1.24382	1.21807	2.9238	62.39	-0.2548	-0.0587	0.1962	1008.0689	0.1042	-419.680536	-419.672596	-419.671652	-419.713165	28.36	
O	 0.0789953707	 1.3920475425	 0.068524362	-0.461117
C	 0.0271470466	 0.0133772266	 0.0281719699	 0.347251
C	-0.5013186872	-0.7148059761	 1.2201338532	-0.351989
C	-1.3559155891	-0.6970929884	-0.0299100001	-0.187897
C	-2.5638258741	 0.1672401739	-0.0735354446	 0.17431
O	-3.5445744257	-0.0959882487	-0.7232710083	-0.2608
C	 1.0782518163	-0.6034393597	-0.8153116681	 0.107884
O	 1.8484196598	 0.0786613582	-1.4509169139	-0.279936
H	 0.7241414294	 1.6392852294	-0.6139825385	 0.303423
H	-0.05305149	-1.657777964	 1.5129780161	 0.140404
H	-0.8113126363	-0.0756231979	 2.040427556	 0.152453
H	-1.4326322146	-1.6063520215	-0.6167210272	 0.118413
H	-2.5011373308	 1.0853067668	 0.5465408434	 0.096223
H	 1.101755695	-1.711021591	-0.8424103698	 0.101377
72.8706	119.2494	193.8816	233.7369	290.1253	343.456	372.4231	424.7809	465.2902	546.0744	588.3993	779.3225	843.9652	860.5177	906.7661	1007.213	1027.6252	1040.4252	1066.7946	1079.6152	1169.4601	1191.2528	1307.6677	1348.1218	1384.5053	1433.6219	1451.5415	1487.6188	1794.3395	1817.551	2921.5	2940.3828	3134.8398	3175.4688	3227.553	3690.5054
OC1(CC1C=O)C=O	O[C@]1(C[C@H]1C=O)C=O	
InChI=1S/C5H6O3/c6-2-4-1-5(4,8)3-7/h2-4,8H,1H2	InChI=1S/C5H6O3/c6-2-4-1-5(4,8)3-7/h2-4,8H,1H2/t4-,5+/m0/s1
