18
gdb 89813	3.25033	1.35698	1.13095	2.6933	70.97	-0.2457	0.0643	0.31	1093.2352	0.148957	-439.042426	-439.034823	-439.033879	-439.07447	30.303	
O	-0.0199473878	 1.4169442019	-0.0200021017	-0.44187
C	 0.0067818027	 0.0068255914	-0.0940473421	 0.157301
C	 0.8084251219	-0.673019377	 1.0526912713	-0.365825
C	 0.0977399305	-1.9965388384	 1.3122938311	 0.509292
C	 0.7477937564	-3.3110676746	 1.2422035833	-0.261344
O	 0.3905181346	-2.727936995	 2.4999420588	-0.28421
C	-1.3297192883	-1.8033592331	 0.8880221487	-0.143913
N	-1.9008984086	-0.5211635265	 1.3733582272	-0.352908
C	-1.3794732012	-0.6239821907	-0.006885063	-0.080179
H	-0.5298225005	 1.6308843107	 0.7717117434	 0.28752
H	 0.453909613	-0.2296565801	-1.0654549603	 0.091425
H	 1.8665443214	-0.7935422971	 0.8134542661	 0.107473
H	 0.7352481071	-0.052594484	 1.9503931817	 0.127507
H	 0.1739766362	-4.1927752529	 0.9562228556	 0.110268
H	 1.8164171955	-3.3698268145	 1.0380715333	 0.114518
H	-1.9842488939	-2.6601619474	 0.7694800494	 0.093871
H	-2.9152664147	-0.5909888047	 1.3574317278	 0.238019
H	-2.0654449644	-0.5487544279	-0.8437739705	 0.093057
91.6096	158.4279	257.2921	302.0488	358.4017	413.5521	435.5625	457.0169	524.1875	588.3732	643.553	785.4903	817.4256	854.1268	872.5068	890.7763	913.4978	934.0286	949.7547	1008.0363	1023.7761	1072.5474	1098.0979	1117.7989	1126.8817	1152.0533	1163.4184	1182.1055	1246.3241	1255.0452	1272.4286	1328.2823	1334.3397	1345.0673	1394.2642	1441.0399	1452.71	1479.7417	1533.8541	3058.3306	3069.8653	3073.4243	3121.1423	3159.0145	3167.07	3177.3255	3506.7007	3776.3132
OC1CC2(CO2)C2NC12	O[C@H]1C[C@]2(CO2)[C@H]2N[C@@H]12	
InChI=1S/C6H9NO2/c8-3-1-6(2-9-6)5-4(3)7-5/h3-5,7-8H,1-2H2	InChI=1S/C6H9NO2/c8-3-1-6(2-9-6)5-4(3)7-5/h3-5,7-8H,1-2H2/t3-,4-,5-,6-/m0/s1
