25
gdb 101813	3.71429	0.59112	0.53322	0.0827	86.2	-0.2622	0.0729	0.3351	2124.6263	0.225969	-426.6306	-426.618711	-426.617767	-426.668346	42.787	
C	 0.0847165257	 1.5575764835	 0.1063211035	-0.402073
C	 0.0298251641	 0.0299910516	 0.0709160366	 0.138579
O	 0.6793368879	-0.5327240534	 1.2113277707	-0.427867
C	-1.4028606849	-0.4997296395	-0.082661771	-0.203236
C	-1.4689002315	-2.0263102188	-0.2000788083	-0.1863
C	-2.8904924731	-2.6122387635	-0.1813532859	 0.033495
C	-3.7443789565	-2.1627569152	-1.3745033187	-0.38996
C	-2.820983566	-4.1390203348	-0.1115989693	-0.078704
O	-4.1372812787	-4.6476588259	 0.0593553579	-0.425026
H	 1.1150718925	 1.8981303006	 0.2397913028	 0.122504
H	-0.3091896939	 1.9912721452	-0.8186266427	 0.115093
H	-0.5154254633	 1.9486910449	 0.9379117575	 0.104726
H	 0.6283559652	-0.3271759041	-0.777278915	 0.086404
H	 0.2144069364	-0.2151925965	 1.9939303936	 0.27431
H	-1.9916585866	-0.1685130636	 0.7871494798	 0.080482
H	-1.8595023865	-0.0236838181	-0.9585377505	 0.097863
H	-0.9616551402	-2.3364769499	-1.1254251493	 0.087443
H	-0.8859893511	-2.4525536459	 0.6244903821	 0.104888
H	-3.3878209038	-2.2817835713	 0.742120774	 0.076121
H	-4.713283475	-2.6664905761	-1.3574993887	 0.132445
H	-3.9206957357	-1.0833691619	-1.3649273256	 0.108137
H	-3.2488402549	-2.4124122192	-2.3214051855	 0.102918
H	-2.3631924587	-4.5281741188	-1.0369430428	 0.080296
H	-2.1721590755	-4.4393237633	 0.7266307789	 0.082116
H	-4.0949108258	-5.6074724358	 0.0309306856	 0.285346
45.0252	62.3943	101.1964	129.315	145.4047	235.6061	237.8244	243.0812	250.3881	260.6549	293.6929	318.1226	408.145	431.6555	453.0642	490.9713	547.0075	764.8918	839.5347	858.6037	921.6185	932.4815	937.5047	959.0976	1022.0168	1043.0081	1074.3723	1083.959	1100.051	1135.0249	1160.2381	1172.2433	1206.5981	1242.9931	1268.9462	1286.5334	1302.4536	1328.9038	1344.6508	1373.3336	1383.3045	1396.3441	1403.2283	1407.5058	1421.4709	1458.427	1476.3102	1491.227	1495.5569	1496.2545	1499.9146	1509.3892	1521.7934	2955.5207	2984.919	2989.338	3001.3723	3013.492	3021.646	3029.106	3031.4092	3051.6565	3072.0284	3092.8602	3098.1148	3117.7978	3128.6622	3791.8188	3835.8602
CC(O)CCC(C)CO	C[C@@H](O)CC[C@@H](C)CO	
InChI=1S/C7H16O2/c1-6(5-8)3-4-7(2)9/h6-9H,3-5H2,1-2H3	InChI=1S/C7H16O2/c1-6(5-8)3-4-7(2)9/h6-9H,3-5H2,1-2H3/t6-,7-/m1/s1
