12
gdb 46348	4.4404	0.74825	0.6753	4.8944	74.25	-0.2895	-0.0624	0.2271	1531.6335	0.077562	-435.488272	-435.480435	-435.479491	-435.521852	27.044	
O	-0.12136383	 0.0652667389	-0.2690052746	-0.293084
C	-0.0426351156	 1.2162837398	-0.0121253697	 0.469805
O	-1.0243295743	 2.0827571431	 0.3719310848	-0.222626
C	-0.094301164	 3.1998004237	 0.52026976	-0.083316
C	 1.072183455	 2.3088900568	 0.0216797457	-0.401564
C	 2.1995095467	 2.0860722732	 0.8877807536	 0.14896
C	 3.1365920819	 1.8955175656	 1.6256821685	 0.026937
C	 4.1972694235	 1.6874957808	 2.4595361107	 0.218511
N	 5.0994681605	 1.5163311959	 3.1707161089	-0.327099
H	-0.3717036355	 4.0291564021	-0.1309599256	 0.14617
H	-0.0277978431	 3.515684755	 1.561562974	 0.152297
H	 1.3983337349	 2.554194965	-0.9940262161	 0.165008
71.3445	78.7785	159.1899	192.1726	257.8358	386.6406	451.4954	502.9717	572.3435	576.8323	621.8153	737.3617	788.2592	893.4501	941.6841	973.1978	1059.7555	1102.4397	1158.0735	1169.9216	1200.8921	1329.2469	1351.2384	1514.346	1960.0696	2269.6727	2401.336	3072.1702	3091.0197	3160.3546
O=C1OCC1C#CC#N	O=C1OC[C@H]1C#CC#N	
InChI=1S/C6H3NO2/c7-3-1-2-5-4-9-6(5)8/h5H,4H2	InChI=1S/C6H3NO2/c7-3-1-2-5-4-9-6(5)8/h5H,4H2/t5-/m1/s1
