19
gdb 48940	3.65684	1.40839	1.2161	2.8907	79.82	-0.2422	-0.025	0.2172	1054.1939	0.160396	-385.862794	-385.855487	-385.854543	-385.894559	29.225	
O	-0.0524453382	-0.0286906261	-0.1557307739	-0.256733
C	 0.04204125	 1.1402801919	 0.1307960759	 0.05247
C	 1.2983563278	 1.9405907655	 0.0632157909	 0.267582
C	 1.4757068387	 3.1200062559	 1.0575050048	-0.294187
C	 2.0678611739	 4.0102293472	-0.0592131831	-0.029662
C	 3.526028895	 3.6384776959	-0.4354680453	-0.227682
C	 3.0206537195	 2.4014251505	-1.2237304729	-0.02924
C	 2.6142092326	 1.2220514251	-0.3089410065	-0.288633
C	 1.562028516	 2.9755450771	-1.12484798	-0.089128
H	-0.8560432776	 1.7230023649	 0.4479308938	 0.064009
H	 0.4961698675	 3.4964706416	 1.3742579643	 0.102375
H	 2.0840555429	 2.9331942484	 1.9484218515	 0.099989
H	 1.8034301272	 5.0677842543	-0.0513243161	 0.069614
H	 3.9505924709	 4.3847386979	-1.113432109	 0.102854
H	 4.2349364306	 3.4652818093	 0.3814434097	 0.092962
H	 3.5200506192	 2.162410573	-2.1626735309	 0.070992
H	 3.2901314729	 0.9581587761	 0.5106343531	 0.094096
H	 2.3834538405	 0.3207414522	-0.8823902055	 0.124629
H	 0.8785502806	 3.1657904593	-1.9491060309	 0.073691
83.1253	188.1394	224.3044	316.3023	330.513	407.9851	456.6687	609.1836	659.0378	741.9963	788.4873	827.3623	828.4354	852.6841	887.9472	933.3772	937.6108	942.5194	953.1023	1026.5466	1030.784	1056.9377	1069.7355	1109.6849	1133.4145	1158.2776	1170.3274	1187.1829	1226.5655	1234.3683	1242.8857	1260.0443	1289.4564	1305.4401	1314.5892	1345.0717	1424.9758	1475.8991	1477.9705	1493.5463	1809.5484	2842.5585	3030.2284	3038.7204	3048.8902	3083.732	3089.9231	3100.8509	3103.4991	3112.5536	3142.8019
O=CC12CC3CC(C1)C23	O=C[C@@]12C[C@H]3C[C@@H](C1)[C@@H]23	
InChI=1S/C8H10O/c9-4-8-2-5-1-6(3-8)7(5)8/h4-7H,1-3H2	InChI=1S/C8H10O/c9-4-8-2-5-1-6(3-8)7(5)8/h4-7H,1-3H2/t5-,6+,7+,8-
