16
gdb 5906	3.92104	1.274	1.22501	0.8032	68.8	-0.3298	0.0004	0.3302	1026.6438	0.129062	-342.824129	-342.815291	-342.814347	-342.857262	31.525	
C	 0.0329128014	 1.5641284847	-0.0021247644	-0.412585
C	 0.027482493	 0.0208054312	 0.0270097065	 0.061564
C	 0.8065518802	-0.5072237465	 1.2505024527	-0.412579
C	-1.4372245631	-0.52483509	 0.0293329608	-0.347405
C	-2.1892328515	-0.0944629911	 1.2051952917	 0.271189
N	-2.7709377071	 0.2537287716	 2.1409241201	-0.307838
C	 0.6614145879	-0.485453754	-1.201561536	 0.270812
N	 1.1549891275	-0.8848400121	-2.1671347111	-0.329574
H	 1.0578460048	 1.9411101696	-0.0317149847	 0.142831
H	-0.4972302032	 1.9452162638	-0.8790935599	 0.138424
H	-0.4549938872	 1.9507556662	 0.8966555536	 0.152038
H	 0.3312364109	-0.1541866668	 2.1696206743	 0.152035
H	 0.8269234154	-1.6002603397	 1.2650360635	 0.13842
H	 1.8374934102	-0.1463356678	 1.2305786678	 0.14283
H	-1.9606336941	-0.1836013441	-0.8696000797	 0.169913
H	-1.4244914252	-1.6190829451	-0.0014394654	 0.169925
81.9055	125.8821	188.5516	191.8193	237.1957	267.4263	341.244	346.766	369.1556	398.226	515.3933	576.2995	579.2124	732.6934	871.9878	897.8089	958.1686	964.3677	983.2207	1046.9134	1141.1557	1213.8534	1225.6615	1284.7815	1342.377	1403.6591	1426.2018	1462.5297	1482.8542	1487.2532	1500.8388	1509.7242	2356.3357	2362.8938	3048.166	3050.8949	3057.429	3099.3335	3126.8517	3128.5074	3131.1907	3134.9688
CC(C)(CC#N)C#N	CC(C)(CC#N)C#N	
InChI=1S/C6H8N2/c1-6(2,5-8)3-4-7/h3H2,1-2H3	InChI=1S/C6H8N2/c1-6(2,5-8)3-4-7/h3H2,1-2H3
