17
gdb 29866	3.1994	1.40948	0.98536	5.4131	84.67	-0.1823	-0.0001	0.1822	1169.0896	0.138768	-414.22729	-414.219033	-414.218089	-414.260005	31.514	
C	-0.0285579595	 1.4793007716	 0.0076936427	-0.342866
N	 0.0016398683	 0.0279805116	-0.0027929077	-0.051614
C	-0.0292264113	-0.6840212813	-1.1544721635	 0.083187
N	-0.0135711052	-1.9741572456	-1.2458055128	-0.362743
C	 0.040488654	-2.7379503563	-0.083553081	 0.31656
N	 0.0269454931	-4.0242474293	-0.055934585	-0.568344
C	 0.105700325	-2.0233036855	 1.2072185162	 0.245204
N	 0.2324815336	-2.8181785398	 2.3207771299	-0.584999
C	 0.070088343	-0.6684756115	 1.2044958898	-0.114125
H	 0.872617706	 1.8846403739	 0.4810533459	 0.144013
H	-0.0777122101	 1.8452528002	-1.0190321132	 0.145954
H	-0.9051616487	 1.8472854994	 0.5525329321	 0.142459
H	-0.0741899071	-0.0863960971	-2.0630162662	 0.116999
H	-0.0292395623	-4.3812091654	-1.0100709015	 0.211513
H	 0.0116025436	-3.7853990738	 2.1135654102	 0.270425
H	-0.1123059475	-2.4635216343	 3.1984412405	 0.241515
H	 0.102303735	-0.0615596769	 2.0999514335	 0.106862
86.7332	136.8132	174.4444	303.1152	319.9307	354.3885	396.525	419.2094	476.3127	518.6369	544.5018	574.059	618.9982	714.2608	790.0076	802.8201	826.3408	870.6719	940.3888	1029.0985	1053.1129	1114.3199	1141.6608	1152.8565	1218.8114	1308.3105	1340.896	1413.6755	1430.8218	1469.5237	1477.9716	1478.4086	1526.8878	1604.1427	1632.3326	1662.3126	1704.2191	3026.5246	3081.5659	3138.1584	3148.1379	3210.5637	3480.7046	3528.2555	3670.5295
CN1C=NC(=N)C(N)=C1	CN1CN=C([NH])C(=C1)N	
InChI=1S/C5H8N4/c1-9-2-4(6)5(7)8-3-9/h2-3,7H,6H2,1H3	InChI=1S/C5H9N4/c1-9-2-4(6)5(7)8-3-9/h2,7H,3,6H2,1H3
