20
gdb 15765	3.53751	1.08084	0.87101	0.1872	84.12	-0.2392	0.0619	0.3012	1381.2442	0.175225	-311.838715	-311.828991	-311.828047	-311.8746	34.22	
C	 0.1859434511	 1.3954965657	 0.0737396415	-0.4969
C	 0.0631650372	-0.0545246127	 0.0146661179	 0.044023
C	-0.0313039145	-1.2546162791	-0.0271405025	 0.098812
C	-0.1599555808	-2.7123595247	-0.1022678584	-0.180921
C	-1.6407143889	-3.1373296705	-0.1801094993	-0.384683
C	 0.6401511577	-3.2771433425	-1.2718217722	 0.058099
C	 2.1182988843	-3.5183037946	-1.1397668313	-0.26613
C	 1.1657242949	-4.6885996194	-1.2120942164	-0.27949
H	 0.9061799915	 1.7654261645	-0.6647077617	 0.145211
H	-0.7728485216	 1.8870618436	-0.1260365439	 0.144466
H	 0.526785475	 1.7273749211	 1.0609650706	 0.144783
H	 0.2634999366	-3.1397909741	 0.8188632385	 0.092322
H	-1.7204054834	-4.2284236003	-0.1987210861	 0.113794
H	-2.2019232485	-2.7581862505	 0.6780898376	 0.119156
H	-2.1059553098	-2.7422898159	-1.0884766055	 0.120847
H	 0.2938068534	-2.92979961	-2.2416942731	 0.085576
H	 2.7544234507	-3.3149748062	-1.9939402361	 0.110078
H	 2.580186346	-3.3000759828	-0.1823522654	 0.112762
H	 0.9939187047	-5.2561286729	-0.3025740387	 0.108586
H	 1.1474452744	-5.2877363988	-2.1158046655	 0.109607
24.2246	62.3822	97.4698	144.8039	210.7441	237.5144	279.3922	301.5087	350.2105	413.6985	480.6474	548.7533	723.1893	776.8106	822.2553	830.4755	934.7836	945.4482	982.8937	1039.4802	1052.5333	1053.8086	1058.6595	1077.3488	1092.8187	1138.7077	1166.6269	1196.2839	1213.5817	1226.0743	1296.7672	1328.6991	1400.2027	1412.4728	1415.3492	1470.5443	1479.4116	1479.8941	1491.7552	1498.6394	1506.9453	2368.763	2991.0176	3024.2617	3039.5426	3083.5224	3083.795	3113.0418	3118.8396	3126.9223	3133.0749	3142.2839	3205.1365	3220.9359
CC#CC(C)C1CC1	CC#C[C@@H](C)C1CC1	
InChI=1S/C8H12/c1-3-4-7(2)8-5-6-8/h7-8H,5-6H2,1-2H3	InChI=1S/C8H12/c1-3-4-7(2)8-5-6-8/h7-8H,5-6H2,1-2H3/t7-/m1/s1
