19
gdb 82492	2.66721	1.86646	1.47553	1.9751	74.08	-0.2386	0.0731	0.3117	957.2258	0.160347	-422.993022	-422.98573	-422.984785	-423.024254	30.343	
C	-0.0633563996	 1.446969215	 0.2081672622	-0.500718
C	-0.1100905815	-0.0398802954	 0.0056785701	 0.411131
C	 0.369778086	-0.7748259682	-1.269901702	-0.271798
C	-0.4229051668	-1.941386821	-0.6653230507	-0.076083
C	 0.0323551835	-2.0455833941	 0.8425418061	 0.014814
O	 0.6350699378	-0.7501584641	 1.0329405076	-0.322498
C	-1.4228981119	-1.7494750425	 1.279019993	 0.179734
O	-1.6306712211	-1.1582876681	 2.5260001915	-0.452337
C	-1.434633366	-0.9206131524	-0.0199214902	-0.16914
H	 0.9731361778	 1.7996596589	 0.2198640909	 0.13144
H	-0.5925586702	 1.959553049	-0.6000651247	 0.122973
H	-0.5328187368	 1.7269455822	 1.1562957842	 0.126971
H	-0.1144572764	-0.3971366354	-2.1745591627	 0.101377
H	 1.4499545553	-0.8639159695	-1.4135055307	 0.100278
H	-0.7113646389	-2.8459174108	-1.1955491184	 0.077826
H	 0.6560683858	-2.8346656283	 1.2593982753	 0.079849
H	-2.0759932846	-2.6222583955	 1.1916046195	 0.087616
H	-0.8620617452	-0.5888646491	 2.666786447	 0.285629
H	-2.3227166272	-0.5287366907	-0.5117896879	 0.072937
158.3282	200.3114	259.6774	291.0122	348.1668	464.3158	511.0929	520.5463	591.02	632.8363	701.8744	764.8142	791.9916	821.5495	835.9532	857.7002	888.3223	944.9024	956.2965	973.4899	1007.7642	1028.0198	1061.9116	1084.3984	1107.6044	1124.5606	1148.2298	1180.259	1187.6441	1197.7003	1222.7391	1257.6402	1276.1144	1303.6494	1327.8074	1339.5913	1417.8524	1440.2372	1483.0463	1484.1597	1488.7792	3038.7477	3055.018	3083.4678	3108.6542	3115.2146	3118.5583	3134.8937	3138.6402	3149.671	3757.47
CC12CC3C(O1)C(O)C23	C[C@@]12C[C@H]3[C@@H](O1)[C@@H](O)[C@@H]23	
InChI=1S/C7H10O2/c1-7-2-3-4(7)5(8)6(3)9-7/h3-6,8H,2H2,1H3	InChI=1S/C7H10O2/c1-7-2-3-4(7)5(8)6(3)9-7/h3-6,8H,2H2,1H3/t3-,4+,5+,6-,7+/m1/s1
