19
gdb 75467	2.58	1.6233	1.18229	2.5091	77.59	-0.2323	0.015	0.2473	1086.7799	0.158803	-423.012941	-423.004474	-423.00353	-423.046397	31.454	
C	-0.1729693641	 1.4744223242	-0.0599962962	-0.494659
C	-0.0490363429	-0.015170874	-0.0754068855	 0.272593
C	 0.0904813843	-0.8276817219	-1.120560041	-0.226557
C	 0.1766021371	-2.2529665558	-0.6648107587	-0.138902
O	 0.0727889376	-2.1865175415	 0.7580982011	-0.310135
C	-0.0676499996	-0.8468020499	 1.1821181907	 0.287608
C	 0.8540099992	-0.4044751166	 2.3527048664	-0.126616
O	-0.2779001842	 0.0767971474	 3.1037412005	-0.274436
C	-1.2015685387	-0.5744485533	 2.2095308055	-0.126615
H	 0.6315793345	 1.9376902273	 0.5228773368	 0.137955
H	-0.1367695252	 1.8833153411	-1.0725944124	 0.127325
H	-1.1141234871	 1.7937973842	 0.4024503969	 0.137966
H	 0.1382139727	-0.5329260723	-2.1617036387	 0.102991
H	-0.6344613891	-2.8798219738	-1.0662550542	 0.108995
H	 1.126222961	-2.7345379662	-0.9444986198	 0.109011
H	 1.342551083	-1.2628885821	 2.8317210517	 0.106774
H	 1.5917386741	 0.3827977017	 2.1608888032	 0.09997
H	-2.0245028076	 0.083788631	 1.9089649067	 0.099966
H	-1.604488975	-1.5065528395	 2.6264752868	 0.106766
76.9375	86.7908	143.856	226.6255	259.8791	273.1015	365.8579	415.1471	463.5849	575.0594	637.3107	777.9932	802.2359	810.8586	895.2811	942.5843	950.5883	984.8166	1022.4286	1025.2954	1029.8944	1052.7594	1072.0638	1078.8004	1143.3378	1144.7453	1173.8677	1194.0063	1196.8716	1250.6872	1287.6993	1351.9693	1365.2197	1380.2496	1419.7768	1476.0933	1484.6064	1501.4048	1521.9217	1527.2462	1728.6837	2980.9836	2998.6466	3008.1377	3020.0118	3031.9822	3068.6411	3069.3968	3081.266	3119.4773	3209.8067
CC1=CCOC11COC1	CC1=CCOC21COC2	
InChI=1S/C7H10O2/c1-6-2-3-9-7(6)4-8-5-7/h2H,3-5H2,1H3	InChI=1S/C7H10O2/c1-6-2-3-9-7(6)4-8-5-7/h2H,3-5H2,1H3
