23
gdb 111107	2.94116	1.19192	1.08997	0.9786	85.72	-0.2426	0.0929	0.3355	1270.3984	0.206897	-388.273748	-388.264924	-388.26398	-388.307016	34.469	
C	-0.3470596407	 1.3046002571	 0.0864002264	-0.242913
O	 0.3014838427	 0.0699534898	-0.1175001953	-0.260496
C	 0.8108711185	-0.4942752026	 1.0647521584	 0.180927
C	-0.2088899921	-1.2768625144	 1.9577742678	-0.061704
C	-0.1025660326	-2.4077162187	 0.8922873164	-0.237203
C	 1.3748791131	-1.9180957583	 0.8108045421	-0.057405
C	 1.9162042274	-2.3190204821	 2.2012369438	 0.045592
C	 3.2915800758	-1.7643911814	 2.5702839055	-0.41788
C	 0.7215899438	-1.784498486	 3.0748350496	-0.239761
H	 0.3255752165	 2.0426285477	 0.5515929872	 0.103101
H	-0.6525376072	 1.6766472852	-0.8946389962	 0.125481
H	-1.2399457958	 1.2072630534	 0.7214166014	 0.1067
H	 1.4536730424	 0.2363907042	 1.5790352421	 0.05055
H	-1.1656231067	-0.8460862817	 2.2561564841	 0.055796
H	-0.2798179435	-3.4366690549	 1.2198669944	 0.081079
H	-0.667505642	-2.1860345608	-0.0116796255	 0.111806
H	 2.0060894272	-2.1173170835	-0.0561141746	 0.059555
H	 1.9619465981	-3.4123022522	 2.2614903876	 0.068943
H	 3.3223044086	-0.6712215985	 2.5154573513	 0.115654
H	 3.5646824613	-2.0486407726	 3.5924144837	 0.112365
H	 4.0667655096	-2.1525787356	 1.9003478634	 0.112168
H	 1.0374148314	-0.9807167763	 3.7492240377	 0.092149
H	 0.2583954242	-2.5665662278	 3.6831052885	 0.095494
89.7733	159.2728	179.9241	195.4472	219.9061	260.02	343.3918	402.0865	436.4303	476.6867	537.3638	623.4359	795.3647	831.7305	842.0771	876.6168	908.8813	936.1054	953.4164	958.0934	995.4447	1017.31	1044.4425	1056.4078	1059.4986	1097.3568	1119.1224	1152.0663	1162.9796	1183.422	1195.0668	1219.111	1234.1945	1244.5035	1260.8169	1270.2668	1284.445	1316.0428	1325.021	1378.5005	1402.2635	1412.842	1479.868	1486.0635	1490.3138	1497.5831	1498.5504	1504.273	1511.0812	2973.015	2984.3973	3023.6496	3027.5155	3029.8483	3041.1114	3057.5105	3086.2757	3091.8468	3099.2293	3104.3695	3110.4168	3113.1575	3150.2208
COC1C2CC1C(C)C2	CO[C@H]1[C@H]2C[C@@H]1[C@@H](C)C2	
InChI=1S/C8H14O/c1-5-3-6-4-7(5)8(6)9-2/h5-8H,3-4H2,1-2H3	InChI=1S/C8H14O/c1-5-3-6-4-7(5)8(6)9-2/h5-8H,3-4H2,1-2H3/t5-,6+,7+,8-/m0/s1
