17
gdb 75175	3.25125	1.07188	0.8599	2.8375	73.77	-0.2593	0.0146	0.274	1320.3727	0.13621	-418.051429	-418.042689	-418.041745	-418.085927	30.928	
C	 0.1035254087	 1.3699393881	 0.2310394243	-0.472938
C	-0.0499229161	-0.0929059658	 0.0007566066	 0.404023
N	 0.187329238	-0.7254978938	-1.0745242498	-0.297182
C	-0.1418769245	-2.1310313632	-0.8172370766	-0.211341
C	-0.5068538262	-2.1844264672	 0.691857418	 0.085851
C	 0.524162338	-2.9511491672	 1.5356628283	-0.357055
C	 0.2241519874	-2.9332329764	 2.9653941296	 0.268687
N	-0.0237216181	-2.9279779833	 4.093591573	-0.299101
O	-0.5058590857	-0.7983258714	 1.082562694	-0.251631
H	 0.799869086	 1.5535179651	 1.0549631658	 0.150415
H	 0.4704388761	 1.8474256863	-0.6765689901	 0.155423
H	-0.8580845651	 1.8082828778	 0.5156730281	 0.151937
H	-0.9755716029	-2.443141372	-1.4552515452	 0.123979
H	 0.7106743261	-2.7752445928	-1.0620180877	 0.115899
H	-1.5072545717	-2.581679907	 0.8804130824	 0.113761
H	 0.5600749568	-3.9926141997	 1.1954151638	 0.157847
H	 1.5183621831	-2.5210313175	 1.3700720655	 0.161426
46.6289	84.3696	130.1357	151.2743	226.2591	301.2858	372.2513	392.7936	398.2511	538.3523	613.198	658.0423	769.3922	845.5769	895.5131	931.9493	952.0324	979.5275	1028.9955	1042.1037	1065.6867	1086.0987	1104.2179	1202.7564	1245.6935	1254.9799	1295.8399	1332.4581	1358.5422	1392.6706	1418.5873	1454.0029	1474.3162	1475.5402	1504.1134	1746.9709	2367.1183	3035.2332	3044.5592	3053.276	3064.6255	3079.4195	3094.5879	3111.2034	3169.0434
CC1=NCC(CC#N)O1	CC1=NC[C@@H](CC#N)O1	
InChI=1S/C6H8N2O/c1-5-8-4-6(9-5)2-3-7/h6H,2,4H2,1H3	InChI=1S/C6H8N2O/c1-5-8-4-6(9-5)2-3-7/h6H,2,4H2,1H3/t6-/m1/s1
