17
gdb 123797	5.48303	0.96403	0.85275	1.6335	74.82	-0.2048	0.0213	0.2261	1330.4087	0.138987	-414.19401	-414.18619	-414.185246	-414.227126	29.309	
C	-0.3731897545	 1.1132372601	-0.2406553831	-0.235981
C	 1.0607223942	 1.1080288754	 0.2280795137	-0.295555
C	 0.3222693349	-0.1901743747	 0.0497031204	 0.055633
N	-0.0414240234	-0.903043817	 1.236448319	-0.378564
C	-1.0801278556	-1.8040388727	 1.2090139814	 0.43638
N	-2.0045286659	-1.8359238949	 0.2552234946	-0.303223
N	-2.8124422887	-2.8460982912	 0.7000203142	-0.18657
C	-2.3402300957	-3.3537048369	 1.8485929957	 0.022517
N	-1.2397489513	-2.7241626872	 2.2116117584	-0.338421
H	-1.1307118954	 1.4284885166	 0.4661989814	 0.123441
H	-0.5831881267	 1.3540581957	-1.2762353675	 0.113936
H	 1.8448093816	 1.3478741403	-0.4809850279	 0.113606
H	 1.2551757483	 1.4298186886	 1.2451420948	 0.116812
H	 0.5844182647	-0.8012985889	-0.8138877782	 0.089837
H	 0.7198152999	-1.2114363288	 1.823615788	 0.246907
H	-3.6235302187	-3.1065543003	 0.1659604381	 0.277313
H	-2.8165229476	-4.1643251541	 2.379836607	 0.141932
66.6399	81.6125	129.9073	302.3345	348.2391	380.7889	462.7439	489.1134	555.1227	661.731	765.5642	777.5801	787.1341	847.3853	852.8639	853.6113	963.8698	993.7359	1003.5711	1036.5064	1061.4106	1076.9603	1094.7963	1127.8456	1184.589	1194.2744	1200.1208	1251.3097	1283.3115	1323.1263	1404.9983	1448.0373	1460.9034	1479.9247	1499.5352	1561.6878	1610.2297	3096.0709	3138.2411	3148.39	3222.1115	3240.7857	3255.453	3603.7791	3680.2651
C1CC1NC1=NNC=N1	C1CC1Nc1n[nH]cn1	
InChI=1S/C5H8N4/c1-2-4(1)8-5-6-3-7-9-5/h3-4H,1-2H2,(H2,6,7,8,9)	InChI=1S/C5H8N4/c1-2-4(1)8-5-6-3-7-9-5/h3-4H,1-2H2,(H2,6,7,8,9)
