21
gdb 40233	2.71587	1.57183	1.21236	1.767	81.84	-0.2552	0.0843	0.3395	1101.8641	0.18487	-387.080617	-387.072913	-387.071968	-387.112534	31.505	
C	 0.0395395193	 1.5164871725	-0.0316105603	-0.327039
C	 1.3198131806	 0.7190885564	-0.0478424221	-0.311076
C	-0.0163462082	 0.009411142	 0.0045990567	 0.382699
C	-0.4333180907	-0.6972277604	 1.284826392	-0.293026
C	-0.0133040284	-2.1730650289	 1.2449464255	-0.206446
C	-0.6941340306	-2.9386464122	 0.0948941529	-0.22414
C	-0.7619400465	-2.1457987341	-1.2003837695	 0.035269
O	-1.8007103829	-1.1562879325	-1.2812676544	-0.266575
C	-0.4414464113	-0.7073361709	-1.2383731843	-0.008955
H	-0.2194932473	 2.0505708753	 0.8766719965	 0.112584
H	-0.2616446053	 2.0205288069	-0.9441180748	 0.114455
H	 1.8877467787	 0.6841477993	-0.9722258607	 0.110318
H	 1.9323207738	 0.7089753719	 0.8475860759	 0.111633
H	 0.0191186328	-0.1944568344	 2.1464795611	 0.089358
H	-1.521117872	-0.6232136095	 1.4019036306	 0.111692
H	 1.0756577802	-2.2224878208	 1.1178718267	 0.098523
H	-0.2404707498	-2.662188088	 2.1980564682	 0.092964
H	-0.166752972	-3.8813744554	-0.0883552686	 0.097237
H	-1.721230338	-3.2058528971	 0.3724253192	 0.115268
H	-0.6452055338	-2.7208272149	-2.119753558	 0.087057
H	-0.0841927386	-0.2740571054	-2.1750255226	 0.078202
100.0027	202.7248	226.277	290.7654	346.6925	361.7602	436.6358	463.0409	517.9472	645.6996	722.3695	776.7755	783.0211	828.3047	859.5653	883.1292	913.4532	940.1515	946.8143	967.1302	991.7686	1003.5596	1048.0333	1058.1978	1079.9803	1083.1204	1115.352	1152.4662	1184.3304	1188.7931	1224.2474	1271.0759	1287.2461	1310.2277	1331.5438	1366.7701	1376.3463	1380.7748	1410.5374	1463.4778	1470.1882	1480.3063	1487.623	1497.0633	1508.2456	3024.4332	3030.199	3032.1143	3065.6889	3072.8073	3079.5768	3081.7199	3102.2456	3125.7483	3129.6561	3203.3032	3217.6701
C1CC11CCCC2OC12	C1CC21CCC[C@H]1O[C@@H]21	
InChI=1S/C8H12O/c1-2-6-7(9-6)8(3-1)4-5-8/h6-7H,1-5H2	InChI=1S/C8H12O/c1-2-6-7(9-6)8(3-1)4-5-8/h6-7H,1-5H2/t6-,7-/m1/s1
