19
gdb 102217	3.53218	0.6984	0.6199	3.3955	81.24	-0.2501	-0.0359	0.2142	1811.015	0.155955	-423.010683	-422.999915	-422.998971	-423.04851	36.507	
C	 0.1947262223	 1.5303253934	-0.0345620547	-0.498301
C	 0.1323936494	 0.0773019842	 0.0388388015	 0.111672
C	 0.0953940756	-1.1249816593	 0.1004069599	 0.022667
C	 0.0271885359	-2.5808972978	 0.1597207778	-0.380308
C	-1.4008333829	-3.1526320516	-0.0481178056	-0.105368
C	-1.3983900524	-4.6868815377	-0.1455404612	-0.071703
O	-2.6660139226	-5.2133772691	-0.4623912587	-0.429375
C	-2.3404439898	-2.6633835619	 1.0364353546	 0.162914
O	-3.1618253983	-3.3572094129	 1.592746373	-0.267837
H	 1.0262423439	 1.8597494767	-0.6671421401	 0.151718
H	-0.7265162845	 1.9472084623	-0.4559901496	 0.1506
H	 0.3361365482	 1.9738977977	 0.9570304153	 0.150854
H	 0.6787677633	-3.0115010942	-0.6110113753	 0.139586
H	 0.4238173494	-2.9367646	 1.1202882993	 0.13601
H	-1.7922150101	-2.7426083968	-0.9911135482	 0.124537
H	-0.7168054947	-4.996721858	-0.9453820061	 0.107397
H	-1.0058014763	-5.1039370843	 0.7968624327	 0.091746
H	-3.2392240335	-4.9676735833	 0.2759309612	 0.29489
H	-2.2338515128	-1.5920485573	 1.3052204343	 0.1083
28.0324	50.5721	72.2876	101.3079	149.372	212.2255	226.3195	245.9301	312.7209	339.7066	384.0734	410.0675	499.303	576.5274	652.1692	766.4346	825.5583	880.1021	920.0028	1044.8592	1051.9505	1053.7815	1085.549	1097.5297	1114.5186	1169.9552	1197.9261	1223.3663	1260.2547	1337.2758	1369.9001	1388.9641	1415.4219	1426.2184	1451.118	1477.3506	1478.134	1478.5544	1502.1895	1801.8289	2371.5276	2927.0916	2968.0256	3009.5586	3018.2236	3028.8251	3047.404	3065.5869	3090.1077	3090.6156	3760.1938
CC#CCC(CO)C=O	CC#CC[C@@H](CO)C=O	
InChI=1S/C7H10O2/c1-2-3-4-7(5-8)6-9/h5,7,9H,4,6H2,1H3	InChI=1S/C7H10O2/c1-2-3-4-7(5-8)6-9/h5,7,9H,4,6H2,1H3/t7-/m1/s1
