16
gdb 45113	2.89399	1.66169	1.14682	5.4573	71.95	-0.224	-0.027	0.197	1029.865	0.127454	-434.094545	-434.087042	-434.086098	-434.127033	29.053	
N	-0.0540450866	 1.2102425485	 0.680481865	-0.511818
C	-0.0122978944	 0.0654758391	 0.1225216309	 0.264768
N	-1.1539174467	-0.5431296719	-0.3404791284	-0.343304
C	-1.1945635529	-1.7511273958	-1.0900398058	 0.016082
C	-0.6117653474	-1.8553916306	-2.4921622838	-0.325322
C	 0.1023472788	-2.465800265	-1.2988906904	 0.008207
N	 1.2696725527	-1.8513941408	-0.7479434026	-0.342229
C	 1.3120256189	-0.6716116113	-0.066827933	 0.365461
O	 2.3477602992	-0.1947173839	 0.3557966609	-0.367525
H	 0.8983728849	 1.4564552762	 0.9556796007	 0.240182
H	-1.98115555	 0.0347062673	-0.3093101729	 0.25305
H	-2.0633357515	-2.3640607158	-0.8698019473	 0.114912
H	-1.0887587485	-2.5217203788	-3.2025242771	 0.122667
H	-0.1764017039	-0.954824727	-2.9105651872	 0.132241
H	 0.1054662751	-3.5467278572	-1.203990713	 0.116709
H	 2.1717274722	-2.2702123932	-0.9266965062	 0.255919
53.3181	99.4387	319.8279	357.3341	386.8195	437.6756	461.6984	522.016	543.6485	563.0543	613.6381	710.2275	738.3103	794.9127	826.7051	852.7467	904.6274	912.7642	1028.4097	1034.8592	1063.4445	1077.2249	1132.0643	1144.7228	1204.5104	1265.321	1316.5742	1400.4462	1424.9157	1445.7196	1460.2504	1477.7389	1505.3837	1719.295	1791.703	3135.0962	3146.1407	3159.0444	3233.7166	3475.7129	3598.5929	3605.9869
N=C1NC2CC2NC1=O	[NH][C]1N[C@H]2C[C@H]2NC1=O	
InChI=1S/C5H7N3O/c6-4-5(9)8-3-1-2(3)7-4/h2-3H,1H2,(H2,6,7)(H,8,9)	InChI=1S/C5H7N3O/c6-4-5(9)8-3-1-2(3)7-4/h2-3H,1H2,(H2,6,7)(H,8,9)/t2-,3+/m0/s1
