15
gdb 67190	3.09895	1.53285	1.48515	3.5897	64.88	-0.2213	0.0129	0.2342	922.6576	0.114604	-453.919797	-453.912896	-453.911952	-453.95082	27.794	
O	-0.1058579282	 1.4240114266	-0.0526777823	-0.457969
C	 0.0281377644	 0.0613119116	-0.0172633678	 0.372571
C	-1.0196417121	-1.0109283684	 0.0499040113	-0.097888
N	-0.4728552314	-1.6945929094	-1.1094846907	-0.295884
C	 0.7871810326	-0.8693067942	-1.019325175	-0.206528
C	 1.7744301702	-1.6803344011	-0.1724110312	 0.393533
O	 2.7422667524	-2.3113421692	-0.5355453443	-0.381544
N	 1.2425058653	-1.6499480622	 1.10687361	-0.311468
C	 0.0617235231	-0.8445416307	 1.1751819632	-0.119506
H	 0.650507494	 1.8232870855	 0.3929366102	 0.294889
H	-2.0824467995	-0.971529816	 0.2585048423	 0.111072
H	-0.319410847	-2.6964263245	-0.9900189008	 0.227203
H	 1.1645304059	-0.4986751905	-1.9698835712	 0.103267
H	 1.4696609699	-2.3748382956	 1.7695002564	 0.254643
H	-0.2555042697	-0.4767415518	 2.1429979398	 0.11361
140.9868	247.9976	315.3764	335.3611	359.1909	458.6915	466.0547	550.7165	586.9291	651.8168	720.6168	740.2857	811.1098	815.1527	876.2893	917.7162	935.7664	956.0975	1016.1288	1051.8438	1076.7267	1113.1403	1138.6937	1173.7457	1225.6609	1235.9112	1257.6575	1318.387	1333.3255	1365.2408	1386.8147	1499.0943	1823.3756	3145.995	3185.2335	3201.8829	3448.1312	3634.5388	3787.6149
OC12C3NC1C(=O)NC23	O[C@@]12[C@H]3N[C@@H]1C(=O)N[C@@H]23	
InChI=1S/C5H6N2O2/c8-4-3-5(9)1(6-3)2(5)7-4/h1-3,6,9H,(H,7,8)	InChI=1S/C5H6N2O2/c8-4-3-5(9)1(6-3)2(5)7-4/h1-3,6,9H,(H,7,8)/t1-,2+,3+,5+/m0/s1
