18
gdb 88313	3.49777	0.8637	0.84388	2.4773	75.95	-0.2792	-0.0268	0.2524	1439.3902	0.145926	-439.102685	-439.093392	-439.092448	-439.137719	33.257	
C	-0.3609518543	 1.489880533	 0.2635896411	-0.41845
C	-0.0211208928	 0.0182511467	 0.2301748962	 0.011173
C	 1.2681745196	-0.4797968968	-0.3409579505	-0.290471
C	 1.0407216131	-0.6091818332	 1.1494248984	-0.095152
C	 1.8214167448	 0.2125781202	 2.0948553397	 0.395293
N	 2.4916230904	 1.2382170161	 1.7826237379	-0.497567
O	 1.7362491838	-0.3291296857	 3.3837033446	-0.203949
C	 1.5809135327	 0.5092650148	 4.4461803474	 0.154375
O	 1.6364004175	 0.122111183	 5.5706174187	-0.251403
H	 0.5257673417	 2.0966166459	 0.4572095887	 0.151501
H	-0.7838061607	 1.7987284682	-0.6984889203	 0.12197
H	-1.1047742087	 1.7078166186	 1.0379141368	 0.114677
H	-0.8785991789	-0.6348277048	 0.0891274081	 0.097925
H	 1.2763817197	-1.3936216302	-0.9244442098	 0.11861
H	 2.0012175412	 0.2639973125	-0.6338675567	 0.144407
H	 0.7974934973	-1.587482236	 1.5453831388	 0.111667
H	 2.9873300036	 1.6526874129	 2.5696204775	 0.232944
H	 1.3750268299	 1.548475575	 4.1377016934	 0.102451
38.5792	90.3151	136.0231	183.3204	206.5773	236.0827	274.334	344.4442	391.3513	413.5518	543.9972	688.3002	704.406	768.3081	829.9328	859.2334	876.3993	911.6244	954.4771	1018.8201	1043.4916	1054.8016	1082.7028	1095.2214	1120.4694	1136.8467	1152.0394	1206.7821	1230.7299	1245.3648	1390.4267	1411.9152	1422.7538	1432.3867	1482.6617	1501.7861	1503.1186	1736.1677	1873.3406	2996.9576	3034.5418	3091.3083	3127.8633	3137.4949	3145.9434	3188.3578	3230.0946	3508.5455
CC1CC1C(=N)OC=O	C[C@H]1C[C@H]1[C]([NH])OC=O	
InChI=1S/C6H9NO2/c1-4-2-5(4)6(7)9-3-8/h3-5,7H,2H2,1H3	InChI=1S/C6H9NO2/c1-4-2-5(4)6(7)9-3-8/h3-5,7H,2H2,1H3/t4-,5+/m0/s1
