19
gdb 36094	3.4925	1.14924	1.03383	0.748	84.14	-0.2107	0.051	0.2616	1216.3887	0.158226	-348.646755	-348.638543	-348.637599	-348.67969	32.715	
C	-0.119021855	-1.1952104397	 0.2222528286	-0.459688
C	-0.0749471931	-0.0037435302	 0.0700785743	 0.31728
C	 0.0096705259	 1.44319315	-0.1227713623	-0.469156
C	 1.4274454766	 1.961925641	-0.0742662207	 0.378735
C	 2.1110857524	 2.4048744913	 1.187708276	-0.3458
C	 1.9185479064	 3.3926135389	 0.0606919239	-0.132033
C	 2.8773375032	 3.1811125419	-1.1443421443	-0.04963
C	 3.8483531305	 2.0459075585	-0.9682754438	-0.301277
C	 2.4055617351	 1.7414286079	-1.2683378448	-0.103313
H	-0.1658802907	-2.2467431979	 0.3606983989	 0.194126
H	-0.4463809909	 1.703972091	-1.0883570406	 0.12888
H	-0.5892587076	 1.9523311229	 0.6432019899	 0.127566
H	 1.4337386118	 2.5608526796	 2.0231859147	 0.110184
H	 3.0846321626	 2.0402069245	 1.4951760324	 0.113131
H	 1.3313164006	 4.2935313002	 0.1891672401	 0.087301
H	 2.9917581528	 3.9189309747	-1.9278979697	 0.088207
H	 4.5105059733	 1.8980109855	-1.8167640786	 0.111942
H	 4.3168785383	 1.8121559118	-0.0189075705	 0.113001
H	 2.1044373779	 1.2027284979	-2.1579408133	 0.090544
59.4836	99.3197	222.2604	279.6469	348.1124	373.0512	417.8859	441.5725	520.935	616.9625	635.189	676.8402	701.5052	758.703	804.4822	851.1177	883.8087	899.2392	923.0382	932.7698	957.9663	974.041	992.5398	1026.5025	1034.1385	1053.8676	1067.413	1096.3263	1102.7544	1164.6398	1180.7842	1246.5923	1262.2301	1303.5801	1326.5076	1335.0772	1398.7997	1460.9175	1482.9352	1518.3364	2236.7955	3005.1877	3042.6789	3122.117	3133.4253	3181.1456	3186.7572	3195.1557	3201.484	3209.4373	3507.1131
C#CCC12CC1C1CC21	C#CC[C@]12C[C@H]1[C@H]1C[C@@H]21	
InChI=1S/C9H10/c1-2-3-9-5-8(9)6-4-7(6)9/h1,6-8H,3-5H2	InChI=1S/C9H10/c1-2-3-9-5-8(9)6-4-7(6)9/h1,6-8H,3-5H2/t6-,7+,8-,9+/m0/s1
