21
gdb 120794	2.34845	0.91657	0.7126	4.0433	83.96	-0.2407	0.0302	0.2709	1632.9374	0.18155	-383.258395	-383.248342	-383.247397	-383.294622	35.845	
C	 0.3500189037	 1.5377900371	 0.2938139175	-0.383318
C	 0.1205634655	 0.0255048476	 0.3441244436	-0.165462
C	-1.2585346548	-0.3759747403	-0.1816288212	-0.135481
N	-1.4092273122	-1.8283320311	-0.1498410986	-0.066355
C	-2.0317557517	-2.441808839	 1.0159555776	-0.268964
C	-2.7150866362	-2.4510384617	-0.3093247091	 0.01715
C	-4.002952494	-1.6554789817	-0.5014902743	-0.373442
C	-4.1784466418	-1.1923804077	-1.879501468	 0.269612
N	-4.3072347087	-0.8314407117	-2.9695923221	-0.307672
H	 1.3423400434	 1.7989770375	 0.6728960607	 0.116896
H	 0.2753042171	 1.9170036141	-0.7312675762	 0.120644
H	-0.3883110273	 2.0755856457	 0.8992306799	 0.113434
H	 0.8815643337	-0.4969995006	-0.2456251346	 0.112524
H	 0.2270890817	-0.3350873822	 1.375101124	 0.097672
H	-2.0325708123	 0.1503324641	 0.4047636451	 0.076418
H	-1.3691367906	-0.051373412	-1.2232035887	 0.12362
H	-1.5592372532	-3.3392213046	 1.4062145584	 0.122721
H	-2.4483366364	-1.7814076412	 1.7781205986	 0.107157
H	-2.6895313629	-3.3610076204	-0.9061933253	 0.110917
H	-4.8571773873	-2.2911524006	-0.2402564031	 0.158287
H	-4.0427051556	-0.7898647514	 0.1656812959	 0.153645
41.819	71.7257	94.6774	139.0655	149.0883	232.1177	276.2247	314.4924	376.0534	390.3681	428.7608	475.7272	573.8565	759.0236	773.9872	818.2047	879.654	900.7417	916.7541	957.6407	966.3072	1037.4682	1054.5008	1081.3915	1119.3333	1127.9302	1144.7811	1150.2847	1198.1008	1238.7575	1276.9192	1311.1794	1325.2359	1332.0343	1343.0344	1404.2628	1414.6722	1416.6852	1460.903	1485.8702	1495.0248	1499.8754	1509.0726	1517.5155	2362.0681	2939.7712	3028.5819	3031.1629	3048.9532	3053.5341	3072.479	3078.0852	3094.7907	3099.2162	3107.1606	3122.6138	3171.658
CCCN1CC1CC#N	CCCN1C[C@H]1CC#N	
InChI=1S/C7H12N2/c1-2-5-9-6-7(9)3-4-8/h7H,2-3,5-6H2,1H3	InChI=1S/C7H12N2/c1-2-5-9-6-7(9)3-4-8/h7H,2-3,5-6H2,1H3/t7-,9?/m1/s1
