17
gdb 26850	3.00844	1.40331	0.96841	6.7688	79.61	-0.2229	-0.0489	0.174	1186.6146	0.136571	-418.089292	-418.080618	-418.079674	-418.123507	31.235	
C	 0.0553302239	 1.5290199942	-0.0369483034	-0.495464
C	-0.0305146691	 0.0308760401	-0.0156451561	 0.318116
C	-1.2113029137	-0.6723788884	 0.0142933094	 0.170651
C	-2.5615883818	-0.0072669735	 0.0289131418	-0.508962
C	-1.0728622978	-2.0879940475	 0.0308640754	-0.017082
N	 0.0396431455	-2.7724088314	 0.0207661739	-0.334463
C	 1.2400619505	-2.0876748732	-0.009155262	 0.432059
O	 2.3435335652	-2.5889589665	-0.0214952179	-0.38957
N	 1.1281447988	-0.6715197408	-0.0262940643	-0.39489
H	 1.091309063	 1.8753270778	-0.0636151554	 0.134398
H	-0.4648370362	 1.932766292	-0.911766627	 0.15796
H	-0.4270504963	 1.9555849199	 0.8486808158	 0.158032
H	-2.7295402413	 0.6149597113	-0.8584405394	 0.130708
H	-3.3545996442	-0.7595936037	 0.0529770448	 0.134711
H	-2.6986895418	 0.6388516094	 0.9044061869	 0.130694
H	-1.990863426	-2.6803312976	 0.0546827147	 0.111626
H	 2.0167606913	-0.1895043221	-0.0482060872	 0.261476
38.1346	98.4215	125.0455	191.6175	271.5068	290.0072	337.6862	447.6699	474.6804	557.8267	568.0469	606.5304	716.8325	760.6225	787.7407	810.9488	911.5597	995.612	1004.8595	1029.0296	1043.8354	1075.0417	1114.8115	1189.6163	1269.2154	1331.104	1412.5716	1422.9914	1425.465	1466.1166	1470.9339	1489.9014	1493.7019	1495.1855	1580.9795	1669.8524	1811.1358	3021.2245	3040.3061	3067.7206	3097.6755	3100.3283	3111.3561	3125.4864	3596.681
CC1=C(C)C=NC(=O)N1	Cc1c(C)cnc(=O)[nH]1	
InChI=1S/C6H8N2O/c1-4-3-7-6(9)8-5(4)2/h3H,1-2H3,(H,7,8,9)	InChI=1S/C6H8N2O/c1-4-3-7-6(9)8-5(4)2/h3H,1-2H3,(H,7,8,9)
