17
gdb 80357	3.5046	1.30956	1.14559	1.4383	73.79	-0.2436	0.0208	0.2644	1088.0647	0.133265	-421.738143	-421.72959	-421.728646	-421.770784	33.313	
C	-0.0923553887	 1.6145370352	 0.0835637135	-0.45958
C	 0.0648180452	 0.0981759144	 0.1182781263	 0.155475
O	 1.175845062	-0.395061826	-0.7279716022	-0.333249
C	 1.6668199145	-1.2066401911	 0.3527405158	 0.023165
C	 2.2001289213	-0.3061475299	 1.4042227771	 0.109949
O	 2.8187898288	 0.9019419195	 1.0951346366	-0.433146
C	 0.699983923	-0.5755296052	 1.3475819369	-0.21019
C	-1.1727263792	-0.5679747273	-0.2827982223	 0.352211
C	-2.2055805371	-1.0997050283	-0.5903113543	-0.442136
H	 0.808537801	 2.1042815447	 0.4525424672	 0.140949
H	-0.3051634193	 1.9428345679	-0.93797093	 0.134791
H	-0.9358874605	 1.906851122	 0.7156019286	 0.134193
H	 1.9490613769	-2.2281464556	 0.1253275556	 0.106659
H	 2.6745652937	-0.7996232304	 2.2486451304	 0.11522
H	 2.7397253375	 1.0013502895	 0.1364663561	 0.295874
H	 0.1404328422	-1.0114598903	 2.1639057762	 0.110051
H	-3.1137151412	-1.5731252091	-0.8722002215	 0.199765
124.7123	131.7129	205.8437	227.0359	246.394	295.0462	386.0409	446.8142	482.9639	527.6028	584.0976	631.661	638.0213	665.2097	686.2021	737.4134	816.367	839.9822	896.6177	939.7897	958.5719	1021.8869	1045.6063	1054.9779	1068.8842	1109.9036	1160.6646	1204.3359	1219.1465	1272.0421	1317.4205	1357.6205	1403.4435	1451.1953	1483.6746	1497.6648	2235.3179	3051.9777	3120.4395	3151.1878	3158.6908	3179.1016	3209.7446	3500.3066	3753.2047
CC1(OC2C(O)C12)C#C	C[C@]1(O[C@H]2[C@@H](O)[C@@H]12)C#C	
InChI=1S/C7H8O2/c1-3-7(2)4-5(8)6(4)9-7/h1,4-6,8H,2H3	InChI=1S/C7H8O2/c1-3-7(2)4-5(8)6(4)9-7/h1,4-6,8H,2H3/t4-,5+,6-,7+/m1/s1
