21
gdb 104434	3.05973	1.19629	1.05393	2.1277	80.39	-0.2358	0.0266	0.2623	1230.6127	0.183115	-424.240155	-424.231076	-424.230132	-424.273493	35.369	
O	-0.0657577448	 1.437088381	-0.1664350242	-0.436902
C	 0.0129813118	 0.0273518177	 0.0355922924	-0.131596
C	-1.4281582176	-0.5008609362	 0.0516041623	 0.358436
O	-2.0560504303	-0.091801747	-1.170838421	-0.484124
C	-1.4361726395	-2.0330887576	 0.0663366665	-0.230534
C	-2.8327352501	-2.5738803857	 0.3892073267	-0.216735
C	-3.2827722868	-2.1190466606	 1.7837439062	-0.245125
C	-2.9933010891	-0.6591417226	 2.0123790374	-0.070414
C	-2.1789455702	 0.0621380686	 1.2440234626	-0.081989
H	 0.8078292917	 1.7675557056	-0.3908355159	 0.294894
H	 0.5576793113	-0.4561320869	-0.7878839525	 0.092628
H	 0.5185248187	-0.2107143894	 0.9828703817	 0.092591
H	-1.8449900256	 0.8453799574	-1.269744886	 0.281527
H	-1.0977367135	-2.3867458102	-0.9126622291	 0.100086
H	-0.7171015525	-2.3891926084	 0.8161310623	 0.088316
H	-3.5329692034	-2.192694503	-0.3618333155	 0.121222
H	-2.8456788097	-3.6665371911	 0.3207492071	 0.085354
H	-4.3544244753	-2.3096183646	 1.921714555	 0.102176
H	-2.7790318671	-2.7159037363	 2.5603371704	 0.102956
H	-3.4887556064	-0.1858928046	 2.8580065294	 0.083485
H	-2.0207999616	 1.1180420538	 1.4457038843	 0.093748
93.9272	136.1936	192.3044	216.2644	261.2725	282.6755	336.8596	364.0844	424.4828	439.9907	468.6705	519.0019	587.6348	693.8167	751.6764	760.1601	861.4553	875.713	924.6651	935.7198	981.0347	1018.4949	1032.9696	1045.507	1077.1875	1098.3667	1125.9934	1130.4752	1191.8936	1201.5599	1243.8605	1258.7379	1275.8333	1305.9094	1349.7371	1374.6139	1377.0576	1404.863	1434.729	1442.1905	1470.1543	1478.2437	1496.4785	1503.2381	1721.0773	2985.6812	2987.7441	3020.9187	3030.4685	3035.827	3047.4452	3079.8958	3088.6581	3138.8335	3172.1966	3776.0668	3847.7854
OCC1(O)CCCC=C1	OC[C@@]1(O)CCCC=C1	
InChI=1S/C7H12O2/c8-6-7(9)4-2-1-3-5-7/h2,4,8-9H,1,3,5-6H2	InChI=1S/C7H12O2/c8-6-7(9)4-2-1-3-5-7/h2,4,8-9H,1,3,5-6H2/t7-/m0/s1
