13
gdb 47270	2.48915	1.84264	1.13174	5.0547	62.98	-0.2793	-0.1059	0.1734	996.0163	0.089778	-489.891265	-489.883875	-489.882931	-489.923759	26.899	
N	-0.0115079401	 1.0106698689	 0.832670634	-0.462883
C	 0.0363293545	-0.0386505775	 0.1380624107	 0.329252
O	 1.2013440623	-0.6976138972	-0.162173591	-0.230693
C	 1.0893789553	-1.6580352668	-1.1905916069	-0.025883
O	 0.1476808953	-2.6602624685	-0.8722603676	-0.230693
C	-1.1248792724	-2.2016233845	-0.6445012518	 0.329252
N	-2.1373536221	-2.949123347	-0.5999829305	-0.462883
C	-1.2458775589	-0.7095821143	-0.3469012437	 0.220491
O	-2.2826275756	-0.1164197211	-0.4479933141	-0.236962
H	 0.9287746335	 1.3071395446	 1.105254652	 0.242288
H	 0.8179998008	-1.1699210487	-2.1370317223	 0.131202
H	 2.0580145531	-2.147730648	-1.2744065462	 0.155222
H	-1.8779348758	-3.92089232	-0.7862478325	 0.242288
63.7782	107.6128	249.0365	337.8451	350.4973	359.0407	455.5472	515.9862	525.2476	581.488	669.1557	756.6309	838.3748	914.584	935.8866	965.6804	982.7469	1033.873	1126.1125	1131.4726	1186.916	1271.9558	1307.1649	1333.3147	1451.1774	1523.6931	1738.2036	1752.7898	1837.225	3013.4078	3158.3188	3466.3967	3466.8105
N=C1OCOC(=N)C1=O	[NH][C]1OCO[C]([NH])C1=O	
InChI=1S/C4H4N2O3/c5-3-2(7)4(6)9-1-8-3/h5-6H,1H2	InChI=1S/C4H4N2O3/c5-3-2(7)4(6)9-1-8-3/h5-6H,1H2
