20
gdb 83786	2.33079	1.78499	1.52288	0.9343	77.77	-0.2182	0.067	0.2852	995.7812	0.172856	-403.1043	-403.096462	-403.095518	-403.136379	31.084	
C	-0.1469848428	 1.5964290609	 0.0559863862	-0.43401
C	-0.0046127048	 0.0908765959	-0.0302649307	 0.002941
C	 0.6147226093	-0.6903066894	-1.1559674558	-0.067727
C	 1.358382731	-0.1093984966	-2.323302584	 0.052277
O	 1.4117953564	 1.3033192483	-2.5474075643	-0.25085
C	 2.6092690187	 0.6467299267	-2.1124681166	 0.029398
C	 3.0602524518	 0.9518886232	-0.6969785999	-0.261042
C	 2.53933203	-0.068165793	 0.3555597367	-0.150658
N	 1.2216482061	-0.6723763585	 0.1861535547	-0.116508
H	 0.5535758565	 2.1375039321	-0.5732251896	 0.152348
H	-1.156712987	 1.876408198	-0.2634480774	 0.121798
H	-0.0353546892	 1.9228435983	 1.096707207	 0.113952
H	-0.8489486144	-0.4155087926	 0.4410597416	 0.090725
H	 0.1563521228	-1.6464334762	-1.407168506	 0.082299
H	 1.2504163589	-0.6856148939	-3.2414831096	 0.091134
H	 3.3813305778	 0.597346114	-2.8788168473	 0.095315
H	 4.1542946637	 0.9456888263	-0.653457359	 0.104235
H	 2.747537385	 1.9690033384	-0.445610503	 0.12361
H	 3.2411808433	-0.9106020377	 0.3800681549	 0.110011
H	 2.5732540669	 0.3905496857	 1.349233282	 0.110754
111.174	158.102	203.7219	227.1379	309.6304	411.8263	433.7014	472.2015	521.8625	640.2945	692.5023	721.5054	769.23	773.8654	807.8065	873.5781	905.3124	945.8374	974.5686	1020.9362	1043.2487	1054.5411	1086.3601	1097.7865	1131.9665	1159.1235	1174.0806	1186.9175	1243.1616	1275.9937	1300.4289	1342.7523	1366.7001	1375.3598	1393.0518	1400.8965	1418.4333	1434.554	1461.9259	1478.8617	1487.0961	1499.8795	1514.4199	3025.2466	3034.8349	3052.5192	3069.6658	3076.7222	3087.2138	3095.2669	3097.9435	3114.2628	3125.2017	3193.6763
CC1C2C3OC3CCN12	C[C@H]1[C@H]2[C@H]3O[C@H]3CCN12	
InChI=1S/C7H11NO/c1-4-6-7-5(9-7)2-3-8(4)6/h4-7H,2-3H2,1H3	InChI=1S/C7H11NO/c1-4-6-7-5(9-7)2-3-8(4)6/h4-7H,2-3H2,1H3/t4-,5-,6-,7-,8?/m0/s1
