21
gdb 122751	7.45759	0.38523	0.37877	1.1991	86.72	-0.2427	0.0363	0.279	2848.7969	0.179216	-424.177276	-424.165667	-424.164723	-424.217127	38.417	
C	 0.0105237683	 1.3578205978	-0.2261329432	-0.228819
O	-0.0087984108	-0.0483163359	-0.2503911242	-0.23133
C	-1.2759905459	-0.5861500114	 0.052167531	-0.050256
C	-1.1840305421	-2.104887511	-0.0066235965	-0.186878
C	-2.530688926	-2.7776548488	 0.3216873325	-0.360389
C	-2.4742579744	-4.2334049127	 0.2658379637	 0.015832
C	-2.4079846266	-5.4337439697	 0.2058877435	 0.156821
C	-2.3253087854	-6.8874390763	 0.1586700838	-0.216283
O	-2.9121079361	-7.3640178362	-1.0478408182	-0.409764
H	 1.0267215198	 1.6763295893	-0.4711137113	 0.126959
H	-0.6846620925	 1.7903122052	-0.9637026104	 0.102664
H	-0.2563261012	 1.7546123972	 0.7667454971	 0.102046
H	-1.6037093815	-0.2583094318	 1.0553667365	 0.082033
H	-2.0318505301	-0.2181524201	-0.6649329761	 0.08343
H	-0.8539924931	-2.4071380899	-1.0054263459	 0.12111
H	-0.4185484261	-2.4451893536	 0.6980486194	 0.11726
H	-2.8657610171	-2.4632340998	 1.319619942	 0.12731
H	-3.2995570356	-2.4221203152	-0.3777495222	 0.132429
H	-1.267841674	-7.1906773936	 0.231906619	 0.114261
H	-2.8365907052	-7.307178006	 1.0407796994	 0.113444
H	-2.8329729044	-8.3234366575	-1.04386576	 0.28812
13.1026	48.0013	64.2909	94.989	120.2985	148.7121	170.9432	226.6042	234.7714	267.4439	341.6988	360.1245	417.0623	524.6066	562.5916	754.6255	776.2718	866.3441	978.189	1027.8555	1039.8995	1047.0945	1070.826	1114.8534	1154.2197	1167.0948	1180.6213	1223.1088	1225.2501	1246.9442	1257.2382	1281.8124	1299.8934	1309.8373	1372.3744	1428.5757	1460.0909	1472.3277	1482.0784	1485.3605	1497.364	1504.1268	1506.3607	1532.5152	2374.2449	2934.0471	2958.646	2959.2168	2966.8518	2976.2466	3008.1904	3008.9213	3036.4571	3055.3137	3101.2934	3112.6414	3816.4434	13.1087	48.0016	64.2913	94.9891	120.2985	148.7124	170.9434	226.6084	234.7715	267.4445	341.6994	360.1248	417.0627	524.6069	562.5919	754.6255	776.272	866.3442	978.1891	1027.8554	1039.8996	1047.0949	1070.826	1114.8537	1154.2198	1167.0949	1180.6213	1223.1088	1225.2502	1246.9441	1257.2381	1281.8125	1299.8936	1309.8374	1372.3745	1428.5757	1460.0907	1472.3281	1482.0784	1485.3605	1497.3641	1504.1268	1506.3608	1532.5153	2374.2451	2934.0471	2958.646	2959.2169	2966.8519	2976.2467	3008.1904	3008.9213	3036.4571	3055.3137	3101.2934	3112.6414	3816.4443
COCCCC#CCO	COCCCC#CCO	
InChI=1S/C7H12O2/c1-9-7-5-3-2-4-6-8/h8H,3,5-7H2,1H3	InChI=1S/C7H12O2/c1-9-7-5-3-2-4-6-8/h8H,3,5-7H2,1H3
