16
gdb 96630	3.24297	0.96411	0.74735	3.2653	73.41	-0.2479	-0.0566	0.1913	1470.4099	0.122359	-471.232235	-471.222468	-471.221524	-471.267687	33.694	
C	 0.0906905417	 1.3636207957	 0.0454478381	-0.343545
N	 0.0703263263	-0.0861930442	 0.045989288	-0.251786
C	-1.066148197	-0.6505290479	-0.0757636118	 0.221582
N	-2.3000264498	-0.0708193743	-0.239362935	-0.551849
C	-1.1597208591	-2.1578964719	-0.0805615764	 0.480103
O	-2.2158153336	-2.7428320926	-0.1001237963	-0.370529
O	 0.0542615062	-2.7531962489	-0.0560305352	-0.180987
C	 0.0934177876	-4.129110735	-0.0424663974	 0.118737
N	 1.2226614035	-4.6794562213	-0.0255524726	-0.413235
H	 1.1220813287	 1.7149504739	 0.1164803791	 0.134991
H	-0.3534740517	 1.7823680816	-0.8711326939	 0.121712
H	-0.4641221824	 1.7859167732	 0.8997991954	 0.112645
H	-2.4227170012	 0.8886468932	 0.0357063562	 0.262256
H	-3.0931241336	-0.6841306152	-0.1310516221	 0.273591
H	-0.8966462817	-4.5846343891	-0.0483433468	 0.144821
H	 1.1112196262	-5.6925501875	-0.0166407092	 0.241492
60.0031	93.6764	111.8734	133.6643	150.8367	218.0102	266.0989	340.3641	361.8131	397.9111	467.3325	521.0079	584.8527	596.8304	722.3119	812.5748	852.9409	908.5632	987.2255	1028.342	1069.6802	1096.4363	1107.7518	1203.0099	1225.1045	1261.7118	1370.8825	1393.0665	1431.0638	1489.6628	1503.7089	1610.617	1734.2508	1746.7862	1802.5618	2963.2518	3012.1507	3112.2822	3140.8511	3506.6679	3593.162	3718.3289
CN=C(N)C(=O)OC=N	CN=C(N)C(=O)O[CH][NH]	
InChI=1S/C4H7N3O2/c1-7-3(6)4(8)9-2-5/h2,5H,1H3,(H2,6,7)	InChI=1S/C4H7N3O2/c1-7-3(6)4(8)9-2-5/h2,5H,1H3,(H2,6,7)
