23
gdb 101895	5.74147	0.51972	0.49553	2.9138	84.29	-0.2563	-0.0272	0.2291	2238.6934	0.201489	-425.432746	-425.421183	-425.420239	-425.471276	39.419	
C	 0.0580076245	 1.5411818211	-0.1171524448	-0.391375
C	 0.065885404	 0.0140210508	 0.0038109409	-0.170775
C	 0.7196716957	-0.5194515707	 1.2915286039	 0.02065
C	-0.0265982818	-0.092787401	 2.5625800007	-0.390216
C	 0.834382226	-2.0419839758	 1.2155948531	-0.055013
O	 1.5596492581	-2.5147323248	 2.3367156876	-0.251939
C	 1.6856180056	-3.9097699878	 2.3802052637	-0.143687
C	 2.4701248519	-4.2785149976	 3.6275171558	 0.13888
O	 2.7357566277	-5.4084913143	 3.9394059572	-0.238034
H	 1.0738182854	 1.9473895745	-0.0548443065	 0.115534
H	-0.3657302374	 1.853028099	-1.0767051245	 0.114017
H	-0.5367702359	 2.010210566	 0.6720601647	 0.121206
H	-0.9650140595	-0.3618924651	-0.0571867503	 0.09467
H	 0.5943278911	-0.4065213462	-0.8617627751	 0.093037
H	 1.745527974	-0.1280474984	 1.3438849232	 0.081244
H	 0.429407244	-0.5480901946	 3.4445368605	 0.128566
H	-0.0109936397	 0.99225599	 2.6942376189	 0.114921
H	-1.0760200045	-0.4105631946	 2.522243854	 0.107418
H	-0.170132151	-2.5004704583	 1.1968066597	 0.086604
H	 1.3462738609	-2.3426475186	 0.2861638603	 0.087037
H	 0.7054844586	-4.4160609508	 2.4165086033	 0.120937
H	 2.2169437685	-4.3082976281	 1.4984759166	 0.120447
H	 2.7798434336	-3.3982546045	 4.2331102071	 0.09587
39.5969	56.4477	75.4374	84.2851	108.6888	138.5285	208.8055	224.5221	256.2256	279.4589	311.6164	411.2301	438.0013	497.0184	578.8047	740.9607	777.998	834.1801	923.5698	929.1443	979.9285	1008.6583	1021.5434	1052.3017	1074.8206	1114.3548	1166.0024	1168.2779	1182.5332	1194.131	1235.2179	1268.5486	1296.8938	1312.8312	1346.083	1380.2685	1381.4253	1399.8637	1407.8985	1415.4293	1434.8999	1479.6292	1485.8532	1494.0334	1500.3925	1506.7553	1511.9977	1522.075	1845.2958	2898.3475	2945.8555	2958.7436	2978.5281	2984.6253	3006.9425	3013.8637	3031.2065	3035.2344	3045.1657	3100.4993	3101.5906	3111.2304	3129.0319
CCC(C)COCC=O	CC[C@@H](C)COCC=O	
InChI=1S/C7H14O2/c1-3-7(2)6-9-5-4-8/h4,7H,3,5-6H2,1-2H3	InChI=1S/C7H14O2/c1-3-7(2)6-9-5-4-8/h4,7H,3,5-6H2,1-2H3/t7-/m1/s1
