17
gdb 53630	15.42482	0.39139	0.38442	4.1729	91.48	-0.257	-0.0601	0.1969	2691.2477	0.132121	-384.649171	-384.638203	-384.637259	-384.68923	35.047	
C	-0.0096079973	 1.4971058851	 0.006397554	-0.497167
C	 0.0105833505	 0.0419285011	 0.0491007079	 0.106849
C	 0.0426368143	-1.1610457351	 0.0873203985	 0.027348
C	 0.0401249391	-2.6176680261	 0.1255938394	-0.344911
C	-1.3737255207	-3.2046500927	-0.131356295	-0.351674
C	-1.4011905037	-4.6576681521	-0.0979851405	 0.070324
C	-1.4116071791	-5.8656673368	-0.0678467099	 0.059654
C	-1.3943115056	-7.3044245181	-0.02621091	 0.017465
O	-2.36317826	-8.0092858237	-0.1944400441	-0.228908
H	 0.6659685433	 1.8820319707	-0.7653078463	 0.150522
H	-1.0141474626	 1.8737239375	-0.2155070943	 0.150017
H	 0.3010601582	 1.9278042995	 0.9645665918	 0.150472
H	 0.7314905594	-3.0208168933	-0.6237363287	 0.140944
H	 0.3996119602	-2.9750155331	 1.0977472822	 0.140942
H	-2.0723945321	-2.8094461715	 0.6155826764	 0.155343
H	-1.7409673808	-2.8551839105	-1.1035953755	 0.155339
H	-0.3940936632	-7.7386047609	 0.1783861841	 0.097442
14.2958	24.6936	43.3416	51.4125	117.1885	177.5992	184.7633	224.6112	288.8794	381.8208	414.3029	451.5603	489.2397	599.9626	757.285	770.1363	847.3723	998.4473	1021.1715	1023.7693	1053.6913	1055.828	1157.9414	1170.559	1190.323	1282.6207	1303.0335	1366.8359	1415.348	1423.214	1459.0952	1477.904	1478.6473	1480.4856	1767.1039	2328.7512	2375.1145	2914.0097	3027.9862	3029.4833	3039.8097	3057.1442	3079.0971	3089.2177	3089.4718
CC#CCCC#CC=O	CC#CCCC#CC=O	
InChI=1S/C8H8O/c1-2-3-4-5-6-7-8-9/h8H,4-5H2,1H3	InChI=1S/C8H8O/c1-2-3-4-5-6-7-8-9/h8H,4-5H2,1H3
