17
gdb 133883	3.67118	2.14314	1.89501	1.248	73.6	-0.2233	0.072	0.2953	780.3553	0.140458	-380.753918	-380.748619	-380.747675	-380.783148	23.972	
C	-1.181901877	 1.4150478018	 0.8762715211	-0.271161
N	-0.6525720783	 0.2063189382	 1.6765498994	-0.182963
C	-0.8982145647	-0.6163668864	 0.3712696049	-0.001808
C	 0.2240882921	-1.5624298004	 0.015560722	-0.070088
C	 1.3967197529	-0.7640488836	 0.4458246531	-0.070086
C	 0.7094932878	 0.4782351417	 0.9611715059	-0.00181
C	-0.3025824197	 0.6936103979	-0.1814811405	 0.223718
C	 0.4022592512	 0.3595439736	-1.4825794837	-0.281394
N	 1.0870674939	-0.8982504423	-1.0150329647	-0.140053
H	-0.8374667962	 2.377277772	 1.2627140787	 0.107796
H	-2.2657871263	 1.4047922947	 0.7386219398	 0.107797
H	-1.9372167631	-0.8921966528	 0.1931662176	 0.074936
H	 0.1671574453	-2.6423463704	 0.0035462602	 0.100394
H	 2.3366679754	-1.1652468499	 0.7995791618	 0.100394
H	 1.2875166663	 1.3033443565	 1.3763959914	 0.074936
H	 1.1605985024	 1.0787727912	-1.8016472498	 0.114697
H	-0.2547087419	 0.1151792281	-2.3209413272	 0.114697
389.4091	420.3117	438.4436	497.8571	646.6138	724.0857	737.6512	761.0649	779.5447	808.0174	812.511	821.3393	893.9067	909.5319	919.176	956.9649	961.4565	989.7561	1020.7991	1031.816	1063.3026	1065.0075	1107.4636	1116.35	1133.5311	1180.4606	1189.7507	1207.2351	1228.69	1260.4275	1265.5584	1283.9167	1300.6522	1302.0044	1375.2702	1488.8157	1526.4891	3059.3907	3066.6964	3120.7674	3122.9775	3123.9608	3127.2215	3203.8681	3213.942
C1N2C3C4C5C2C13CN45	C1N2[C@@H]3[C@@H]4[C@@H]5[C@H]2[C@]13CN45	
InChI=1S/C7H8N2/c1-7-2-9-5(7)3-4(6(7)9)8(1)3/h3-6H,1-2H2	InChI=1S/C7H8N2/c1-7-2-9-5(7)3-4(6(7)9)8(1)3/h3-6H,1-2H2/t3-,4+,5+,6-,7+,8?
