25
gdb 102564	1.96382	1.1674	0.86395	1.4483	89.34	-0.2532	0.08	0.3332	1497.69	0.22711	-389.481155	-389.470079	-389.469135	-389.517585	40.891	
C	 0.3208895988	 2.0964033392	 0.2619198272	-0.390504
C	 0.2071738576	 0.5695565048	 0.3302790147	-0.170326
C	 0.5438769257	-0.1691699414	-0.982399633	 0.021212
C	 2.0183949972	 0.0334624326	-1.3884024062	-0.18187
C	 2.4296806875	-0.6413324146	-2.7012888683	-0.378057
C	 0.2035759288	-1.6472236148	-0.8531135052	-0.003416
C	-1.2416934324	-2.1098816528	-0.7938669304	-0.347079
C	-0.3843720911	-2.435917871	-1.9896087845	 0.08838
O	-0.6042124512	-1.7564704545	-3.1943581536	-0.4162
H	 1.3494526519	 2.4286463712	 0.0933708299	 0.118004
H	-0.295272009	 2.5016662156	-0.5490665309	 0.111258
H	-0.0198784662	 2.5537705444	 1.1964600738	 0.108065
H	 0.8553939568	 0.1889762859	 1.1323421258	 0.086682
H	-0.8161644685	 0.3045692366	 0.621287899	 0.091592
H	-0.0864785896	 0.2453891685	-1.7798002043	 0.078505
H	 2.2147581395	 1.1083812529	-1.4700448132	 0.092419
H	 2.6610197197	-0.3280284916	-0.5722380077	 0.083863
H	 3.4561260043	-0.3705238506	-2.9696289283	 0.099282
H	 2.3819310946	-1.7315839724	-2.6287589657	 0.114626
H	 1.7709354195	-0.3446067597	-3.5225399919	 0.126725
H	 0.8947311667	-2.2042285806	-0.2226556144	 0.080104
H	-1.5233764417	-2.9017272446	-0.1080275554	 0.106642
H	-2.0011190369	-1.3485462684	-0.9454641834	 0.111003
H	-0.0509976888	-3.4669068767	-2.1107282947	 0.081827
H	-1.4383543731	-2.066855168	-3.5611409494	 0.287264
63.0651	65.2482	101.0235	140.2051	193.5231	216.7264	228.0887	249.6228	281.1021	301.8977	391.7117	405.1706	444.2889	486.1443	581.9291	743.1326	769.5114	796.6672	844.5615	852.8896	893.505	929.3783	991.6149	1007.3482	1024.9882	1039.7632	1050.3171	1056.0888	1068.5591	1128.9281	1142.4383	1172.2548	1178.0696	1199.9535	1236.8084	1275.1087	1277.5752	1304.2565	1326.6635	1338.9973	1371.6665	1380.7309	1406.557	1411.1447	1416.7822	1427.2808	1483.6613	1485.9338	1491.8748	1496.7704	1500.7916	1505.9456	1509.9537	3001.598	3008.2653	3030.2349	3031.2626	3039.8498	3051.4228	3059.5148	3090.7147	3094.4154	3104.6976	3107.9157	3116.6133	3119.9774	3124.9003	3211.8713	3808.4941
CCC(CC)C1CC1O	CCC(CC)[C@H]1C[C@H]1O	
InChI=1S/C8H16O/c1-3-6(4-2)7-5-8(7)9/h6-9H,3-5H2,1-2H3	InChI=1S/C8H16O/c1-3-6(4-2)7-5-8(7)9/h6-9H,3-5H2,1-2H3/t7-,8-/m1/s1
