19
gdb 47047	3.35532	1.36897	1.07684	4.5001	75.09	-0.256	0.0189	0.2749	1129.4818	0.161622	-423.065755	-423.05819	-423.057246	-423.098113	29.587	
O	-0.0242850181	 0.0640051654	-0.6467666387	-0.324584
C	-0.0474305545	 1.1688009524	-0.1772470687	 0.404661
C	-1.3169129814	 1.994736205	-0.034075096	-0.335123
C	-1.2910104535	 2.9022965968	 1.200053748	-0.234815
C	-0.1023692631	 3.8494659152	 1.0659851493	-0.029248
C	 0.54919012	 4.3220598795	 2.3970873677	-0.249248
C	 1.590815988	 3.1732580209	 2.2674142509	-0.243033
C	 1.196239135	 3.0504572805	 0.7783174736	 0.147065
O	 1.1132293751	 1.7214686022	 0.26106415	-0.236092
H	-1.4231650017	 2.6036267945	-0.9420071022	 0.130523
H	-2.1485826376	 1.2878596496	-0.027147435	 0.134968
H	-2.228728858	 3.4581666092	 1.2977769133	 0.10829
H	-1.1937148393	 2.2878418117	 2.1035456461	 0.111042
H	-0.3328837372	 4.6299617884	 0.3348625061	 0.074794
H	 1.0047841088	 5.3109171161	 2.3072420841	 0.109164
H	-0.091097974	 4.3141586483	 3.2819807818	 0.107462
H	 2.6349260688	 3.3973657198	 2.4917557727	 0.109418
H	 1.2958786709	 2.278667359	 2.8209386226	 0.119732
H	 1.8845088417	 3.5957606055	 0.1260209745	 0.095022
85.5988	103.0002	216.9362	312.6312	366.3368	405.736	443.0888	516.0187	611.6612	648.1618	716.028	750.4267	792.1676	838.5267	879.7732	939.8754	954.5314	967.4392	982.8733	999.8806	1070.1326	1090.012	1117.5269	1140.7461	1180.445	1192.0286	1226.0554	1246.7351	1258.4847	1263.7791	1291.0813	1308.431	1338.516	1351.0837	1382.3321	1398.1289	1468.1063	1480.5013	1495.0706	1504.4005	1844.0825	3027.3541	3035.2772	3050.605	3061.8389	3068.4186	3075.3584	3082.5611	3113.4092	3117.2197	3133.5144	85.5982	102.9999	216.9365	312.6311	366.3366	405.7359	443.0887	516.0187	611.6612	648.1618	716.0279	750.4267	792.1677	838.5267	879.7732	939.8755	954.5313	967.4392	982.8732	999.8805	1070.1326	1090.0119	1117.5266	1140.7459	1180.4449	1192.0285	1226.0554	1246.7352	1258.4843	1263.7792	1291.0811	1308.431	1338.5158	1351.0833	1382.332	1398.1289	1468.1053	1480.5015	1495.0707	1504.4004	1844.0817	3027.3541	3035.2772	3050.605	3061.8388	3068.4186	3075.3584	3082.5611	3113.4092	3117.2198	3133.5144
O=C1CCC2CCC2O1	O=C1CC[C@H]2CC[C@H]2O1	
InChI=1S/C7H10O2/c8-7-4-2-5-1-3-6(5)9-7/h5-6H,1-4H2	InChI=1S/C7H10O2/c8-7-4-2-5-1-3-6(5)9-7/h5-6H,1-4H2/t5-,6-/m1/s1
