15
gdb 5626	3.29768	1.93662	1.22964	2.7542	63.73	-0.1852	0.0555	0.2407	938.0712	0.118765	-399.810616	-399.802493	-399.801549	-399.843085	29.408	
C	 0.0684534747	 1.3148891462	 0.014691101	-0.243766
O	 0.0091042975	-0.0954829926	-0.031879562	-0.283698
C	-1.2459963767	-0.6280662294	-0.0001383595	 0.229082
C	-2.488654839	-0.0346890854	 0.0700702764	-0.205855
N	-3.4130723912	-1.0544746067	 0.0702348808	-0.25798
C	-2.7829558232	-2.2784631029	 0.0039110782	-0.157419
C	-1.4313267528	-2.0379981691	-0.0417513942	 0.209164
O	-0.4354676477	-2.9665760701	-0.1149377438	-0.458109
H	 1.1236828662	 1.5918228728	-0.0178467146	 0.130919
H	-0.4524911496	 1.7621161331	-0.8433576067	 0.118732
H	-0.3811383071	 1.7002277988	 0.9404706176	 0.118694
H	-2.786328043	 0.9981292826	 0.1169728125	 0.117686
H	-4.4058627793	-0.9250018927	 0.1204583699	 0.260461
H	-3.3310411794	-3.2047260697	-0.0065744968	 0.121281
H	 0.3974011303	-2.481534025	-0.1265300787	 0.300807
73.116	179.0184	182.9382	212.5063	277.7967	312.3299	315.5807	397.3568	557.2488	593.8236	610.6114	610.8276	697.0616	721.4666	761.6535	902.8276	1057.9276	1074.8141	1149.3185	1182.6087	1187.4991	1213.0552	1247.1929	1301.3456	1369.5591	1465.7009	1471.0955	1481.2166	1485.46	1509.8748	1602.1013	1671.7965	2993.2567	3046.5695	3130.3167	3278.559	3281.8903	3713.7589	3810.6392
COC1=CNC=C1O	COc1c[nH]cc1O	
InChI=1S/C5H7NO2/c1-8-5-3-6-2-4(5)7/h2-3,6-7H,1H3	InChI=1S/C5H7NO2/c1-8-5-3-6-2-4(5)7/h2-3,6-7H,1H3
