20
gdb 86822	5.43707	0.74023	0.67727	5.0636	76.12	-0.2365	0.0177	0.2542	1655.2043	0.172001	-440.321808	-440.312688	-440.311744	-440.356431	32.983	
C	-0.2877166689	 1.6750044476	-0.2828319175	-0.310856
N	-0.0965776797	 0.29326558	 0.1398201008	-0.285181
H	-0.8567388613	-0.2752592454	-0.2211357752	 0.217274
C	 1.1734853701	-0.2754195056	-0.2941153954	-0.150202
C	 1.3339683396	-1.6984769118	 0.2296671488	-0.027641
C	 2.6822028995	-2.3625031455	-0.0677749557	-0.38553
C	 2.8934765023	-3.3065567395	 1.1131460543	 0.42845
O	 2.0505770315	-2.9527855404	 2.1210264396	-0.218379
O	 3.6584936645	-4.2211623863	 1.20683534	-0.336128
C	 1.2739980931	-1.7955361646	 1.7662313	-0.071053
H	 0.4535912582	 2.3130637325	 0.2111877582	 0.125564
H	-0.1884511323	 1.8323629354	-1.3716671143	 0.097046
H	-1.2795592427	 2.0188049436	 0.0238297212	 0.122463
H	 1.3046954783	-0.2649018091	-1.3931514087	 0.084783
H	 1.9783281119	 0.350291054	 0.1169152043	 0.104358
H	 0.5349083922	-2.3255133877	-0.1880022901	 0.085358
H	 2.7351203137	-2.9129677901	-1.0076947973	 0.139546
H	 3.5017012075	-1.6321758781	-0.0652592071	 0.135229
H	 1.7165048607	-0.9108444159	 2.2399872454	 0.115841
H	 0.2676591119	-1.9323352631	 2.1621865687	 0.129059
61.6506	98.643	115.4755	167.1484	182.6966	247.8374	318.923	339.439	444.2805	516.871	553.5095	651.8299	694.4826	784.7847	842.0215	869.8415	922.7775	940.7124	982.0878	1059.9864	1071.208	1084.0694	1108.1699	1143.8679	1151.9804	1174.4844	1183.687	1204.1425	1255.804	1273.1891	1289.9448	1336.105	1359.1501	1394.5163	1413.0043	1461.6189	1465.8517	1486.5566	1493.2771	1511.0412	1517.1341	1522.5662	1884.5788	2918.4847	2949.0253	3010.9203	3027.0579	3038.5406	3044.2428	3058.9382	3107.6373	3127.5241	3129.8716	3506.5529
C[NH+]1CC(CC([O-])=O)C1	CNC[C@H]1CC(=O)OC1	
InChI=1S/C6H11NO2/c1-7-3-5(4-7)2-6(8)9/h5H,2-4H2,1H3,(H,8,9)	InChI=1S/C6H11NO2/c1-7-3-5-2-6(8)9-4-5/h5,7H,2-4H2,1H3/t5-/m1/s1
