21
gdb 39373	2.1514	1.87395	1.25801	0.5326	90.99	-0.2122	-0.0105	0.2018	1085.1925	0.185849	-349.947067	-349.939333	-349.938389	-349.978843	31.754	
C	 0.0909603737	 1.2578237993	-0.3907284096	-0.293377
C	 1.4045090121	 0.6190840845	-0.0508047056	-0.006879
C	 2.3432148421	 1.1034855523	 1.0434762875	-0.224308
C	 1.8972460591	 0.921345345	 2.5113858525	-0.249649
C	 0.7038308939	 1.7228419033	 2.9385692744	-0.051757
C	-0.5606058599	 1.2785035301	 2.9255149172	-0.096781
C	-0.98385256	-0.0318966583	 2.4416885083	-0.109337
C	-0.6329079779	-0.6514027091	 1.3017263151	-0.062354
C	 0.0975842298	-0.1827543506	 0.0953748105	-0.050996
H	-0.2974087738	 1.9981278126	 0.2976598595	 0.125527
H	-0.156498463	 1.4395885516	-1.4315852184	 0.104981
H	 1.962145016	 0.2831110092	-0.9218843695	 0.085847
H	 3.2891726796	 0.5601754321	 0.9305018571	 0.096872
H	 2.5813729384	 2.1600954362	 0.8652746988	 0.099796
H	 1.696258574	-0.1421614175	 2.6767927192	 0.11459
H	 2.7503282284	 1.1928952529	 3.1446721086	 0.093124
H	 0.8979880448	 2.7243587138	 3.3183171506	 0.083695
H	-1.3378638097	 1.9065631145	 3.3595352541	 0.086639
H	-1.6785467579	-0.5654965731	 3.0899137183	 0.086459
H	-1.034071709	-1.6555680549	 1.1731987554	 0.084924
H	-0.0016904107	-0.9072664838	-0.707773824	 0.082985
122.9261	210.406	239.6626	270.6589	295.4889	353.8926	413.934	533.5661	592.4242	614.2163	696.4334	732.3021	750.1208	800.7859	827.2661	839.0377	864.0217	922.088	931.4285	960.1459	995.0393	1005.2093	1040.3698	1046.4282	1075.0499	1092.5303	1112.3766	1147.8744	1164.2574	1207.3844	1246.6184	1267.8843	1276.6072	1306.2112	1355.035	1379.1337	1406.1404	1416.7358	1426.0001	1460.6975	1483.1619	1490.6709	1495.8322	1683.9014	1699.0208	3014.9581	3027.3264	3049.4775	3079.931	3112.3695	3120.9418	3123.9572	3131.909	3136.3771	3148.318	3151.425	3230.4187
C1C2CCC=CC=CC12	C1[C@H]2CCC=CC=C[C@@H]12	
InChI=1S/C9H12/c1-2-4-6-9-7-8(9)5-3-1/h1-3,5,8-9H,4,6-7H2/b2-1-,5-3-	InChI=1S/C9H12/c1-2-4-6-9-7-8(9)5-3-1/h1-3,5,8-9H,4,6-7H2/b2-1-,5-3-/t8-,9+/m0/s1
