18
gdb 55290	2.48204	1.40642	1.14492	2.2575	67.84	-0.2404	0.0246	0.265	1119.6476	0.145862	-476.239796	-476.230328	-476.229384	-476.274088	35.031	
C	 0.596305933	 1.556320396	-0.2483372913	-0.464538
C	 0.1160772283	 0.1148489475	-0.1704142502	 0.330248
O	-1.0144067766	-0.1115012059	-0.9765043921	-0.465479
C	 1.1915164214	-0.9670097771	-0.4029924225	-0.097313
O	 1.1969777353	-1.3355665243	 0.9975349623	-0.306912
C	 0.0469712009	-0.5049459568	 1.2667161844	 0.000783
C	 0.1944343668	 0.4319744225	 2.4516498421	 0.352566
N	 1.380396096	 0.3292167533	 3.0989556642	-0.519705
O	-0.6979574926	 1.2108672738	 2.7383276121	-0.379975
H	 1.5227519085	 1.6950986059	 0.3165075545	 0.127678
H	 0.776857454	 1.830071685	-1.2920241233	 0.123212
H	-0.1513832685	 2.2333263366	 0.1774688428	 0.141094
H	-1.6585459985	 0.5809845013	-0.7908228152	 0.287402
H	 0.8342316295	-1.7849708573	-1.0376008339	 0.118361
H	 2.1756125631	-0.6276478864	-0.7425197013	 0.106821
H	-0.8669900901	-1.0959332041	 1.3976634747	 0.108683
H	 2.0513698888	-0.3558748962	 2.7919137457	 0.274332
H	 1.5536992007	 0.8961673862	 3.9118648169	 0.262739
67.2701	78.1409	156.9611	230.3052	266.4865	289.6315	311.6389	316.1666	361.8941	401.5613	445.2308	485.9602	544.3191	643.9847	671.6339	722.4544	839.6416	913.5637	930.8997	963.1667	987.5522	1012.3381	1047.2107	1093.8366	1121.0787	1156.512	1181.1427	1204.3054	1275.1182	1325.449	1331.1314	1379.0204	1398.6516	1412.4711	1489.8096	1496.0815	1513.9514	1593.4517	1792.363	3033.4605	3038.4734	3047.8323	3091.0767	3112.7779	3118.5899	3592.5176	3735.0295	3803.758
CC1(O)COC1C(N)=O	C[C@@]1(O)CO[C@H]1C(=O)N	
InChI=1S/C5H9NO3/c1-5(8)2-9-3(5)4(6)7/h3,8H,2H2,1H3,(H2,6,7)	InChI=1S/C5H9NO3/c1-5(8)2-9-3(5)4(6)7/h3,8H,2H2,1H3,(H2,6,7)/t3-,5+/m0/s1
