20
gdb 60808	2.81744	1.00261	0.93602	3.5102	77.52	-0.2424	-0.0302	0.2122	1366.1705	0.167087	-440.327037	-440.31613	-440.315186	-440.363865	37.412	
C	-0.4764726747	 1.232226456	-0.2172388026	-0.399497
C	-0.1389287904	-0.2580680793	-0.231091723	-0.07156
C	-1.3720418637	-1.1476555537	-0.3198406227	 0.149697
O	-2.5074088149	-0.7658600354	-0.2035546039	-0.243924
N	 0.8093211267	-0.6508354055	-1.275257345	-0.101789
C	 0.4448863366	-0.3835422148	-2.6604825703	-0.350227
C	 2.0622048543	-1.0818889766	-0.8909258187	 0.409033
C	 3.0569366059	-1.3836285892	-2.0006305055	-0.505284
O	 2.362358556	-1.2243387974	 0.2826122404	-0.368631
H	 0.4277894442	 1.8244519338	-0.0561366231	 0.125248
H	-0.9458317319	 1.5508405164	-1.1524119752	 0.122918
H	-1.1846554033	 1.4404481979	 0.5875340566	 0.142294
H	 0.3626975237	-0.5331735719	 0.7062304429	 0.153223
H	-1.1303535757	-2.219981123	-0.5027728232	 0.084631
H	 0.7542185728	 0.6152536061	-2.9958551335	 0.13316
H	 0.884391259	-1.1235158355	-3.3304162479	 0.140304
H	-0.6413174766	-0.4488155584	-2.7682133821	 0.146215
H	 3.2069036365	-0.5252155514	-2.6623635806	 0.138201
H	 4.002820828	-1.646798951	-1.5291788455	 0.152395
H	 2.7234436274	-2.223630427	-2.6188151371	 0.143593
51.9037	69.4018	101.5892	103.3289	152.8863	181.9947	206.0894	229.1282	262.2638	329.8152	377.3126	413.195	519.3571	586.4117	602.3987	644.5886	738.361	838.886	924.985	962.9479	1015.4517	1050.3315	1059.4775	1113.876	1137.7506	1145.4213	1174.3121	1260.3088	1326.1702	1345.2077	1384.1458	1399.243	1409.8214	1419.7705	1462.1915	1476.0958	1487.0921	1489.4708	1494.6675	1497.6012	1521.6064	1758.136	1831.3605	2874.2007	3015.3183	3037.3568	3045.3132	3052.9469	3090.2184	3107.8905	3123.1303	3136.6728	3138.1425	3165.0878
CC(C=O)N(C)C(C)=O	C[C@@H](C=O)N(C)C(=O)C	
InChI=1S/C6H11NO2/c1-5(4-8)7(3)6(2)9/h4-5H,1-3H3	InChI=1S/C6H11NO2/c1-5(4-8)7(3)6(2)9/h4-5H,1-3H3/t5-/m0/s1
