16
gdb 33863	4.07075	1.30829	1.16313	3.1115	72.28	-0.2748	0.0175	0.2923	1038.0421	0.126008	-400.741587	-400.734602	-400.733658	-400.772915	27.692	
N	-0.054217899	-1.1055047514	-0.2089216449	-0.346976
C	-0.0369846419	 0.0473059775	-0.1058321751	 0.210346
C	-0.0220216777	 1.4746512805	 0.0346442236	 0.168157
C	 0.457504894	 2.3043824898	-1.1453539698	-0.314105
C	 1.3097844748	 2.2454183557	 0.0876727296	-0.099325
C	 1.1176316971	 3.3505968253	 1.1003432819	 0.027567
O	 0.1168340806	 4.3126038438	 0.7403440612	-0.250688
C	-0.2400514169	 3.2784469406	 1.6663473794	 0.043515
C	-0.9896065404	 2.1028568833	 1.0563698248	-0.328263
H	 0.794695801	 1.7520173401	-2.0143276071	 0.137572
H	-0.0688578357	 3.2293863194	-1.3438654743	 0.150734
H	 2.2532584675	 1.714953664	 0.069464101	 0.116346
H	 1.9744704284	 3.7424168668	 1.6397592671	 0.109555
H	-0.4966541638	 3.6229841687	 2.6651023322	 0.108786
H	-1.935808049	 2.4100360029	 0.600644433	 0.134416
H	-1.2192032691	 1.3736556029	 1.8393523475	 0.132364
129.1571	158.9585	276.0292	301.0834	402.9695	460.3986	554.5768	583.953	599.0044	693.6969	719.0543	795.2957	826.6909	869.993	894.6224	924.0251	941.6837	976.1981	1005.2371	1050.0233	1060.8551	1095.5024	1099.7147	1111.1234	1195.1092	1241.4136	1243.3729	1272.5049	1318.8163	1334.5032	1380.5436	1421.5578	1470.215	1479.5346	2347.0959	3058.5237	3102.3682	3145.8925	3151.6057	3165.8726	3202.4217	3249.7032
N#CC12CC1C1OC1C2	N#C[C@]12C[C@H]1[C@H]1O[C@H]1C2	
InChI=1S/C7H7NO/c8-3-7-1-4(7)6-5(2-7)9-6/h4-6H,1-2H2	InChI=1S/C7H7NO/c8-3-7-1-4(7)6-5(2-7)9-6/h4-6H,1-2H2/t4-,5-,6+,7+/m0/s1
