19
gdb 104934	2.77602	0.86594	0.71666	1.4124	100.45	-0.2279	-0.01	0.2179	1613.7969	0.156693	-348.697811	-348.687928	-348.686983	-348.732825	36.643	
C	 0.1905405175	 1.4321555042	 0.3476657172	-0.378755
C	-0.1577486009	 0.0155880408	-0.1176198461	-0.251314
C	 0.6731429724	-0.4543543949	-1.3116607053	 0.111894
C	 2.0539201537	-1.0435015824	-1.0368497264	-0.285638
C	 0.9375065179	-1.9485590781	-1.4640110762	-0.302184
C	 0.5091022597	 0.3048588813	-2.5174139732	 0.421065
C	 0.3469905575	 0.9607362663	-3.5243202355	-0.284127
C	 0.1738557096	 1.6873111217	-4.6605587819	 0.297723
C	 0.0191213235	 2.333854666	-5.6694970697	-0.586657
H	 1.2395041438	 1.500262745	 0.6543228709	 0.116298
H	 0.029561477	 2.1579057913	-0.4549766269	 0.134541
H	-0.4303842102	 1.7256325109	 1.1993474418	 0.113323
H	-0.0033605087	-0.6952617629	 0.7030543991	 0.09549
H	-1.220268425	-0.0391185584	-0.3824599597	 0.109543
H	 2.8434348066	-0.8305656977	-1.7472654771	 0.129846
H	 2.3704135129	-1.0670568851	 0.0006083998	 0.120892
H	 0.4840740329	-2.5987012341	-0.7235928926	 0.120697
H	 0.9610674062	-2.3522043451	-2.4690405514	 0.130001
H	-0.1158966865	 2.9006142214	-6.5567175468	 0.18736
65.5297	88.1487	110.8184	198.9123	219.8228	246.8839	252.0054	318.6917	404.0168	487.6377	496.6021	531.9143	537.6867	570.5029	596.54	605.8064	775.4211	781.1754	835.5115	866.3419	936.534	944.1184	1013.5417	1056.481	1072.9784	1082.7558	1101.9359	1122.0211	1193.089	1265.6194	1289.6758	1358.2108	1375.9477	1411.574	1463.3438	1481.2226	1494.6413	1496.2823	1507.2339	2177.8075	2348.8777	3027.7575	3038.5849	3064.4516	3107.7036	3115.3616	3136.1912	3140.356	3222.6871	3237.0101	3506.1297
CCC1(CC1)C#CC#C	CCC1(CC1)C#CC#C	
InChI=1S/C9H10/c1-3-5-6-9(4-2)7-8-9/h1H,4,7-8H2,2H3	InChI=1S/C9H10/c1-3-5-6-9(4-2)7-8-9/h1H,4,7-8H2,2H3
