18
gdb 72422	2.72973	1.71934	1.40093	3.6423	71.1	-0.2306	0.0138	0.2444	978.8988	0.149996	-439.132553	-439.125173	-439.124228	-439.164026	29.591	
C	-0.1033185952	 1.457993556	 0.0140098296	-0.476699
C	 0.0562683658	-0.0414686604	 0.0092235353	 0.389048
C	 0.7860263998	-0.6829021684	-1.1878250941	-0.199371
N	 1.0562542878	-2.0599818254	-0.6979873083	-0.306206
C	 0.4205823987	-2.1273223509	 0.6442843879	-0.149567
C	 0.7523297852	-0.7400917544	 1.1959683721	-0.257642
C	-1.087465667	-1.9740618454	 0.4250066439	 0.434719
O	-1.9781170117	-2.771198675	 0.4790930093	-0.355702
O	-1.2644887672	-0.6708694056	 0.0313452652	-0.271515
H	 0.8781820589	 1.9406223433	 0.0400327301	 0.125961
H	-0.6314997098	 1.7969427405	-0.8819286264	 0.135242
H	-0.6735788767	 1.7803574066	 0.8892753149	 0.135397
H	 0.1478575303	-0.6603592779	-2.0768652498	 0.115833
H	 1.7216049215	-0.159526638	-1.4173474615	 0.108999
H	 0.6703336073	-2.763072601	-1.3181214248	 0.236839
H	 0.7100560777	-3.0140079526	 1.2035545848	 0.097512
H	 1.8251508687	-0.5450496608	 1.2484310336	 0.118299
H	 0.2710517361	-0.5165454906	 2.1503112882	 0.118851
150.793	198.0509	252.4978	281.0875	286.6413	429.1395	464.271	500.1702	581.0321	600.539	714.2117	752.9555	807.8689	829.7675	875.256	905.5913	920.5206	949.1843	966.2682	987.9482	1015.6084	1050.994	1093.8213	1124.6812	1179.2168	1191.8175	1233.7953	1267.3081	1274.0182	1284.9266	1300.9434	1372.0535	1417.2791	1421.278	1480.9886	1483.2465	1495.427	1509.4151	1885.5132	3028.8665	3045.5546	3076.9969	3078.9812	3118.2341	3122.9627	3139.3575	3151.9322	3541.4778
CC12CNC(C1)C(=O)O2	C[C@@]12CN[C@@H](C1)C(=O)O2	
InChI=1S/C6H9NO2/c1-6-2-4(7-3-6)5(8)9-6/h4,7H,2-3H2,1H3	InChI=1S/C6H9NO2/c1-6-2-4(7-3-6)5(8)9-6/h4,7H,2-3H2,1H3/t4-,6-/m0/s1
