22
gdb 76800	2.3064	1.47014	1.16067	2.3703	82.22	-0.2012	0.0666	0.2679	1189.8617	0.191946	-404.302941	-404.29314	-404.292195	-404.337017	36.936	
C	-0.1449138193	 1.5688077688	 0.0406004928	-0.411556
C	 0.137891508	 0.0682331332	-0.0417488319	-0.041286
N	 1.1888074616	-0.3922681203	-0.9816151753	-0.088051
C	 1.5832677844	 0.3703668825	-2.1413186903	-0.331022
C	 2.1404038452	-0.7591855045	 0.0952652618	-0.041287
C	 3.3842068309	 0.110609667	 0.2820664079	-0.411556
C	 0.9953974895	-0.5174782543	 1.0890131998	 0.42138
C	 1.0109779732	-0.2421642532	 2.5238948936	-0.267682
O	 0.5306119769	-1.4911549167	 2.0020598121	-0.273907
H	 0.7564504703	 2.146207437	 0.2689927024	 0.11701
H	-0.5596499416	 1.944139924	-0.9006552171	 0.120469
H	-0.8822346303	 1.7673440431	 0.8257003872	 0.119914
H	-0.8083188461	-0.4713730942	-0.1865499409	 0.083407
H	 1.9848563936	 1.3770740563	-1.9315915559	 0.09371
H	 2.3484366177	-0.1825274374	-2.6975521373	 0.120687
H	 0.7225244531	 0.4892500583	-2.8088212033	 0.120687
H	 2.4416884476	-1.8142446488	 0.0358184095	 0.083407
H	 3.1312213674	 1.1649763119	 0.4314663407	 0.11701
H	 3.9496414098	-0.229133747	 1.1563081108	 0.119914
H	 4.0486259474	 0.0400397832	-0.5853491063	 0.120469
H	 1.946270205	-0.2978463594	 3.0798579227	 0.114142
H	 0.2509613257	 0.4026385003	 2.963862137	 0.114142
72.0319	195.4919	198.5904	207.0719	211.1561	236.9702	240.9309	249.2552	280.2523	399.2555	429.18	491.5896	517.7718	553.0162	715.4539	777.4287	839.0903	879.8635	885.5218	953.1616	1004.1265	1054.1397	1063.8022	1091.7506	1096.4451	1126.3829	1132.1359	1148.8983	1162.1321	1180.5113	1221.0349	1247.7172	1299.891	1309.3198	1359.9227	1380.5196	1398.9141	1403.413	1443.5055	1456.3775	1487.5689	1488.4483	1489.2479	1499.828	1503.7742	1511.6034	1542.7304	2948.8186	2999.815	3003.9984	3032.4896	3034.44	3048.3855	3079.3194	3087.791	3100.7053	3101.1257	3105.9539	3111.1579	3163.226
CC1N(C)C(C)C11CO1	C[C@H]1N(C)[C@@H](C)[C@]21CO2	
InChI=1S/C7H13NO/c1-5-7(4-9-7)6(2)8(5)3/h5-6H,4H2,1-3H3	InChI=1S/C7H13NO/c1-5-7(4-9-7)6(2)8(5)3/h5-6H,4H2,1-3H3/t5-,6+,7-
