12
gdb 21333	5.93381	1.25748	1.12928	3.8542	59.34	-0.2806	-0.0302	0.2504	980.9715	0.084983	-377.524405	-377.517745	-377.5168	-377.556575	23.225	
N	-0.1514384015	-1.0990379245	-0.5600611692	-0.296754
C	-0.0839325113	 0.0041161511	-0.2247933697	 0.266685
C	 0.0046432319	 1.4094890403	 0.1845985034	-0.46478
C	 1.3985412425	 1.964381228	 0.0861142819	 0.150262
C	 2.1492516747	 2.5419924611	 1.0603978401	-0.00196
O	 3.3320591274	 2.936607372	 0.575351169	-0.157212
N	 3.3969535524	 2.6135940689	-0.7770349399	-0.119726
C	 2.2533939173	 2.0418590336	-1.0525090022	-0.027319
H	-0.6894192493	 1.9862290036	-0.4394159654	 0.172528
H	-0.361759014	 1.4948042302	 1.2127894557	 0.166663
H	 1.9774947246	 2.7350673092	 2.1083689305	 0.160989
H	 2.0674262253	 1.6907910166	-2.0580924443	 0.150625
33.0039	108.1094	284.6387	313.1379	378.2119	479.7005	613.0961	651.3036	743.9869	851.221	896.4272	908.3728	932.5022	935.2264	943.6332	1025.3806	1157.7615	1198.4567	1225.036	1283.7102	1343.4827	1401.994	1459.2303	1483.6182	1653.6101	2367.6443	3037.2574	3084.3933	3245.0623	3263.8403
N#CCC1=CON=C1	N#CCc1conc1	
InChI=1S/C5H4N2O/c6-2-1-5-3-7-8-4-5/h3-4H,1H2	InChI=1S/C5H4N2O/c6-2-1-5-3-7-8-4-5/h3-4H,1H2
