18
gdb 53686	5.36143	0.56488	0.54074	5.6901	78.08	-0.2497	0.0164	0.2661	2019.8151	0.146065	-439.087037	-439.076758	-439.075814	-439.125331	34.674	
C	 0.0240243395	 1.463932182	 0.0541421173	-0.498658
C	-0.0493742268	 0.0133561879	-0.0398898683	 0.134126
C	-0.1091542766	-1.1853605328	-0.1294748239	-0.002283
C	-0.1798983389	-2.6379413336	-0.2136455884	-0.295124
N	-1.3180095406	-3.1689149408	 0.5585053325	-0.317496
H	-1.2920495643	-2.7908300278	 1.4976491828	 0.240138
H	-2.787029669	-3.3827874042	-0.6763599139	 0.306671
C	-1.390894105	-4.628095961	 0.568131523	-0.304942
C	-2.2223030157	-5.1497774476	-0.6167887142	 0.421236
O	-2.9904061074	-4.2034566321	-1.1765694218	-0.361746
O	-2.2047819132	-6.2922350012	-0.9836231775	-0.32979
H	 0.1444285802	 1.9178776965	-0.9353728825	 0.155422
H	-0.8883012334	 1.8763523821	 0.4984213557	 0.153751
H	 0.8696781508	 1.7826170154	 0.6730081974	 0.151649
H	-0.3109474763	-2.9489775169	-1.2585516459	 0.149665
H	 0.7754723569	-3.0786861417	 0.1202186399	 0.126426
H	-0.4139770369	-5.1298817038	 0.5467753492	 0.129909
H	-1.9015501034	-4.9556634103	 1.4795452486	 0.141045
16.1864	38.3067	60.9098	103.4056	122.8997	212.7077	293.4665	310.7273	332.0197	380.8041	460.2317	549.4117	562.0856	665.0674	751.2484	800.1812	857.4682	876.1812	940.1551	1012.3425	1051.3805	1055.1147	1080.3355	1123.0047	1177.4623	1208.7424	1240.2651	1268.849	1349.3008	1377.4217	1414.8506	1419.7573	1465.8929	1475.7075	1476.8392	1478.1955	1500.4735	1880.5616	2378.7977	2954.062	3019.6842	3030.67	3033.1166	3085.8003	3092.9037	3093.7106	3483.3726	3553.2079
CC#CC[NH2+]CC([O-])=O	CC#CCNCC(=O)O	
InChI=1S/C6H9NO2/c1-2-3-4-7-5-6(8)9/h7H,4-5H2,1H3,(H,8,9)	InChI=1S/C6H9NO2/c1-2-3-4-7-5-6(8)9/h7H,4-5H2,1H3,(H,8,9)
