18
gdb 110742	2.61338	1.26234	1.0729	1.8684	74.11	-0.2452	0.0106	0.2558	1207.2316	0.146105	-439.051817	-439.042889	-439.041945	-439.085691	33.257	
C	 0.2031975626	 1.4397559022	 0.1623187725	-0.375064
C	-0.215419407	-0.008169267	-0.1165608591	-0.217026
C	 0.5583660239	-0.617093135	-1.268100167	-0.067057
C	 1.9063048725	-1.2652082892	-1.1511669536	-0.020717
O	 1.9863615628	-2.0037500147	 0.1028785943	-0.271499
C	 0.9726209739	-2.8631242172	-0.3204882304	 0.358588
N	 0.567725877	-3.9501539244	 0.1525080478	-0.559258
C	 0.6922022248	-2.0982150133	-1.5761426237	 0.238456
O	 0.2314365215	-2.6163282756	-2.756400828	-0.441978
H	 1.2635427442	 1.4973491559	 0.4292079422	 0.123129
H	 0.0452445128	 2.0769332999	-0.7148866952	 0.114759
H	-0.3747756913	 1.8626143761	 0.9892915973	 0.117079
H	-0.0660546022	-0.6149931819	 0.7815452448	 0.11999
H	-1.2856767696	-0.0508233989	-0.350443016	 0.109993
H	 0.472907698	-0.0755402078	-2.2115244245	 0.108934
H	 2.8395153033	-1.0001861304	-1.627995452	 0.126323
H	 1.0659377424	-4.1951423978	 1.0097905387	 0.234273
H	 0.5882619202	-3.5077611209	-2.852690918	 0.301076
64.4528	104.066	167.4404	204.6029	254.6721	278.3156	289.4753	346.2338	435.3107	492.2446	587.1385	657.7777	725.8476	746.2295	771.795	832.4146	867.4559	903.7528	923.276	936.5457	963.8499	997.1627	1015.6063	1069.2911	1105.5333	1131.4084	1184.59	1227.2057	1273.4373	1295.3622	1340.2843	1361.4496	1387.4048	1411.5597	1481.0706	1491.8728	1499.7773	1506.1518	1827.7479	3033.1519	3041.0064	3080.3771	3103.7482	3109.5381	3116.5197	3220.687	3480.3464	3787.313
CCC1C2OC(=N)C12O	CC[C@H]1[C@H]2O[C]([NH])[C@@]12O	
InChI=1S/C6H9NO2/c1-2-3-4-6(3,8)5(7)9-4/h3-4,7-8H,2H2,1H3	InChI=1S/C6H9NO2/c1-2-3-4-6(3,8)5(7)9-4/h3-4,7-8H,2H2,1H3/t3-,4+,6+/m0/s1
