16
gdb 54169	2.40272	1.45104	1.09409	7.2294	71.12	-0.2458	0.0052	0.251	1115.5278	0.124449	-434.095901	-434.086826	-434.085881	-434.129751	33.556	
N	 0.0301978908	 1.2717621731	 0.373399909	-0.541267
C	 0.1300453988	-0.0490382249	 0.0780730681	 0.396819
O	 1.1799943148	-0.6432113337	-0.0799989847	-0.366709
C	-1.209920113	-0.7583145224	-0.0361444334	 0.191003
N	-2.3773203893	 0.072831762	 0.1211302989	-0.597321
C	-1.2262544716	-1.8984055547	-1.0168455737	-0.306
C	-1.2573543317	-2.2222959498	 0.457543246	-0.20269
C	-0.1702236937	-2.8815001829	 1.1255884947	 0.320243
N	 0.6322974785	-3.4705298171	 1.7142189275	-0.343768
H	 0.8731772904	 1.8215122836	 0.3583271526	 0.264364
H	-0.8709572352	 1.7159514974	 0.300578075	 0.269006
H	-3.127453602	-0.1951064039	-0.5038066857	 0.244299
H	-2.7327068718	 0.0550329292	 1.0709063642	 0.248647
H	-2.1337860111	-2.0785029293	-1.5829997484	 0.1245
H	-0.2932654109	-2.0846215367	-1.5339779962	 0.170188
H	-2.228400253	-2.5005679899	 0.8563357561	 0.128686
60.3871	131.4052	150.4691	174.7105	266.5356	293.6222	363.2195	374.6876	414.5004	450.9536	524.3977	537.9502	587.8757	648.2063	696.8413	770.4358	794.2394	819.3771	884.6542	924.3962	970.7713	1068.8652	1099.6619	1102.2315	1134.1141	1203.4979	1267.6842	1287.1502	1388.8385	1399.7022	1465.0405	1584.8649	1653.0694	1795.9933	2357.1472	3141.8943	3155.9277	3247.3382	3517.4506	3586.6896	3603.2491	3726.8009
NC(=O)C1(N)CC1C#N	NC(=O)[C@@]1(N)C[C@H]1C#N	
InChI=1S/C5H7N3O/c6-2-3-1-5(3,8)4(7)9/h3H,1,8H2,(H2,7,9)	InChI=1S/C5H7N3O/c6-2-3-1-5(3,8)4(7)9/h3H,1,8H2,(H2,7,9)/t3-,5+/m0/s1
