18
gdb 40475	3.65837	1.39381	1.25004	2.9756	76.15	-0.2257	0.0717	0.2974	1045.4881	0.147603	-401.813191	-401.806019	-401.805075	-401.845098	28.599	
C	-0.0979748669	 1.3603151107	-0.1927757049	-0.236577
C	 1.2958038478	 0.8877372376	 0.026280887	-0.236578
N	 0.1693703836	-0.0376093814	 0.1437618994	-0.170828
C	-0.1850680352	-0.4805832473	 1.4433360155	 0.37241
C	-0.1687033159	 0.2171104936	 2.840742894	-0.340547
C	-0.696123736	-1.1976859544	 3.148190718	-0.096697
C	-1.4699090948	-1.3036752934	 1.7987765992	 0.038214
O	-0.8978671841	-2.5912286184	 1.4309635642	-0.325339
C	 0.197996522	-1.8684498745	 2.0612315753	 0.038192
H	-0.5314266269	 1.9988866005	 0.5739209681	 0.115892
H	-0.4713226823	 1.5324823441	-1.197864504	 0.122361
H	 1.9572719859	 0.7090750952	-0.8162107562	 0.122359
H	 1.7915610022	 1.2112324475	 0.9389885034	 0.115885
H	 0.8104032022	 0.4695159752	 3.2577361763	 0.100418
H	-0.8734249135	 1.0396044504	 2.9927579624	 0.100419
H	-0.9937294075	-1.6353316245	 4.0982538876	 0.090364
H	-2.5160800653	-1.1032597105	 1.568488145	 0.095025
H	 1.1707968647	-2.3518751003	 2.1485616696	 0.095029
64.8197	179.4651	200.1634	316.8873	369.6591	481.7264	542.1465	618.0468	736.4145	775.9868	810.8332	838.2951	854.2085	879.8669	881.2833	896.6865	923.9655	951.8318	996.3604	1020.6106	1035.5931	1065.01	1081.7151	1110.9439	1117.0879	1125.2204	1131.5713	1165.9955	1169.5353	1172.258	1181.3155	1209.2647	1248.3601	1256.5965	1318.4649	1393.9588	1488.3244	1513.5964	1515.0731	3048.3227	3102.2636	3106.6098	3107.6344	3121.428	3125.1439	3153.6982	3185.8369	3200.1506
C1CN1C12CC3C1OC23	C1CN1[C@@]12C[C@H]3[C@@H]1O[C@@H]23	
InChI=1S/C7H9NO/c1-2-8(1)7-3-4-5(7)9-6(4)7/h4-6H,1-3H2	InChI=1S/C7H9NO/c1-2-8(1)7-3-4-5(7)9-6(4)7/h4-6H,1-3H2/t4-,5-,6+,7-
