20
gdb 117253	2.85785	0.99815	0.86251	2.7166	76.54	-0.2337	0.0319	0.2655	1438.5212	0.170897	-440.303673	-440.293996	-440.293052	-440.340053	33.919	
C	-1.0626146357	 0.2246073963	-0.1930396099	-0.372051
C	 0.3765993011	 0.7381923453	-0.2729608334	-0.142487
N	 1.2040086199	-0.0452065842	-1.1728037836	-0.307348
C	 2.2465550199	-0.8023013105	-0.7551815249	 0.357782
O	 2.6200097186	-0.9229476967	 0.4001947879	-0.39357
C	 2.9665832222	-1.5410106265	-1.8799622595	 0.048299
C	 2.7644759052	-3.0732962899	-1.9092671474	-0.277127
C	 2.0993390979	-2.8165000065	-3.2763858812	-0.0676
O	 2.3507614478	-1.3918271812	-3.1830814562	-0.301445
H	-1.5480898491	 0.2448334107	-1.1749563356	 0.11285
H	-1.086897015	-0.8043173875	 0.1775221916	 0.12877
H	-1.6533906746	 0.848829783	 0.4848120152	 0.120001
H	 0.384579792	 1.7876002012	-0.5933390806	 0.107093
H	 0.8602522558	 0.6856079216	 0.7053140594	 0.147415
H	 1.0139457866	-0.064039334	-2.1646674311	 0.256685
H	 4.0110035741	-1.2096172201	-1.8860402005	 0.110657
H	 3.6847188307	-3.6564372467	-1.9409803801	 0.121532
H	 2.1171711991	-3.464143435	-1.1240595584	 0.129398
H	 2.6031262913	-3.2540093183	-4.1449292522	 0.112319
H	 1.0270605621	-3.0356840012	-3.3369509395	 0.108825
37.6042	61.7626	66.6157	103.7995	171.3428	233.9727	283.2314	322.4279	408.1308	471.8819	576.6978	634.3081	739.5892	772.6718	799.1866	825.6624	888.6927	906.6962	952.5054	979.5196	1023.2365	1044.6597	1089.4996	1096.8208	1134.9092	1166.7614	1178.4671	1210.1334	1247.9555	1253.3241	1267.404	1321.2828	1344.3015	1356.7651	1393.5108	1410.8939	1487.2482	1491.9794	1496.4735	1503.6329	1529.0861	1558.6152	1778.1167	3026.9501	3028.3261	3034.2546	3048.9821	3073.2044	3095.1177	3095.6318	3114.0946	3122.1358	3150.7154	3604.1124
CCNC(=O)C1CCO1	CCNC(=O)[C@H]1CCO1	
InChI=1S/C6H11NO2/c1-2-7-6(8)5-3-4-9-5/h5H,2-4H2,1H3,(H,7,8)	InChI=1S/C6H11NO2/c1-2-7-6(8)5-3-4-9-5/h5H,2-4H2,1H3,(H,7,8)/t5-/m1/s1
