18
gdb 26683	2.22245	1.60568	0.94788	1.6774	76.38	-0.1817	0.0437	0.2254	1224.1424	0.145837	-439.12354	-439.113537	-439.112592	-439.158079	35.914	
C	 0.0776240951	 1.5531328234	 0.0576183107	-0.508591
C	 0.0345536156	 0.0590416005	 0.0386266447	 0.197071
C	-0.0128840067	-0.7259648958	-1.0673558898	 0.153702
N	-0.0347634182	-0.4222192461	-2.4263751281	-0.5909
O	-0.0424638446	-2.0728262987	-0.6751483027	-0.225992
C	-0.0116990108	-2.0697062637	 0.6745634015	 0.326118
O	-0.0326512238	-3.2705417128	 1.2867852092	-0.433313
C	 0.03580064	-0.8172695909	 1.1941148808	 0.049706
C	 0.0796005002	-0.4333861627	 2.6394434565	-0.511748
H	 0.9802559128	 1.9234547974	 0.5585419059	 0.12218
H	 0.0660498515	 1.944636367	-0.9620216765	 0.138101
H	-0.7792156351	 1.9736713257	 0.5977840943	 0.122199
H	-0.8762494506	-0.7477068491	-2.8922275736	 0.240762
H	 0.7655136262	-0.7937215564	-2.9289769343	 0.240744
H	-0.0626866008	-3.9509818319	 0.6049393747	 0.303114
H	 0.9820659803	 0.1404989175	 2.8835830351	 0.12169
H	-0.7790894461	 0.1867819661	 2.9248763696	 0.121725
H	 0.0710877248	-1.3227180694	 3.2749993321	 0.133433
98.6713	126.4343	145.6816	184.9482	193.2293	222.5905	241.1853	267.7997	308.4905	308.8383	368.1916	534.3518	598.5971	622.1943	638.1727	686.0689	716.8449	773.3109	863.7851	961.0435	1054.7752	1056.8776	1075.4615	1102.9819	1145.6687	1210.6494	1230.5561	1320.232	1345.8769	1412.8594	1416.7164	1451.6614	1483.3523	1489.0046	1491.786	1502.9411	1650.0002	1705.4229	1739.8822	3017.881	3023.522	3060.8539	3068.5037	3113.8608	3125.632	3485.972	3547.6679	3824.0288
CC1=C(N)OC(O)=C1C	Cc1c(N)oc(O)c1C	
InChI=1S/C6H9NO2/c1-3-4(2)6(8)9-5(3)7/h8H,7H2,1-2H3	InChI=1S/C6H9NO2/c1-3-4(2)6(8)9-5(3)7/h8H,7H2,1-2H3
