17
gdb 97487	8.15619	0.432	0.4134	0.9026	103.29	-0.2315	-0.0084	0.2231	2587.0866	0.132845	-347.478084	-347.467664	-347.46672	-347.515569	35.913	
C	-0.0504993112	 1.5955168316	 0.058745661	-0.366651
C	-0.0025346773	 0.0558537892	 0.0117954808	-0.343641
C	 0.6713289046	-0.4578794078	-1.1715205435	 0.299447
C	 1.2347003709	-0.8679458319	-2.1618212934	-0.231029
C	 1.8675111312	-1.3272478569	-3.2747916427	-0.210173
C	 2.4306460739	-1.7332889754	-4.265078576	 0.308939
C	 3.1136063593	-2.2127448627	-5.4648640774	-0.527623
C	 3.1795018562	-3.6728914923	-5.5580546549	 0.31816
C	 3.2397192309	-4.868453759	-5.6453515555	-0.439534
H	 0.9587622699	 2.0151671352	 0.0591280638	 0.132593
H	-0.5825881681	 1.9936346916	-0.8090692602	 0.132597
H	-0.5652170647	 1.9295421651	 0.9642583806	 0.118349
H	 0.5033078545	-0.3239258893	 0.9091829297	 0.137038
H	-1.0238757068	-0.3452818174	 0.0489090816	 0.137051
H	 2.6089757458	-1.8146679989	-6.3568295641	 0.165975
H	 4.1325337156	-1.8009190159	-5.4951060982	 0.165994
H	 3.2899422755	-5.9267076152	-5.7168739617	 0.202508
18.2771	49.3461	88.8698	101.6826	201.8742	209.9889	273.0436	319.3172	325.2383	383.9948	410.4549	524.1593	557.4807	559.9656	625.6307	648.0668	664.2867	784.4803	882.2104	930.5723	948.9165	1014.2492	1080.6402	1101.3321	1228.1967	1267.4213	1282.7766	1331.7517	1358.7683	1408.8355	1448.3038	1470.1227	1494.4714	1505.0604	2248.2378	2280.0984	2389.0733	3002.0652	3017.5254	3025.9607	3045.6085	3047.1636	3121.7556	3128.3421	3506.5504
CCC#CC#CCC#C	CCC#CC#CCC#C	
InChI=1S/C9H8/c1-3-5-7-9-8-6-4-2/h1H,4-5H2,2H3	InChI=1S/C9H8/c1-3-5-7-9-8-6-4-2/h1H,4-5H2,2H3
