13
gdb 5051	3.56836	2.2609	1.51346	4.8766	69.58	-0.2497	-0.083	0.1667	793.442	0.097571	-361.498603	-361.49242	-361.491476	-361.528972	23.376	
O	 0.003588485	 0.2730144932	-0.945894669	-0.317634
C	-0.0219972793	 1.2414621933	-0.219298852	 0.335562
C	-1.3023052683	 1.8142684164	 0.2556384201	-0.163356
C	-1.6084043462	 3.1285785135	 0.1915504568	-0.056909
C	-0.7198010372	 4.2020378069	-0.16882494	-0.078675
C	 0.6375609665	 4.1726662878	-0.1721973465	-0.097067
C	 1.4446678785	 3.0517829753	 0.2530621497	 0.005339
N	 1.1547102503	 1.8005984807	 0.2839803611	-0.228348
H	-2.0638146678	 1.0895034892	 0.5284109823	 0.133868
H	-2.6350870174	 3.4194386667	 0.400264245	 0.114916
H	-1.1965876564	 5.1540619347	-0.3882657473	 0.116733
H	 1.1737493709	 5.0948819865	-0.3777329082	 0.11256
H	 2.4380199613	 3.3151835157	 0.6281063279	 0.12301
107.8476	255.9715	298.7862	381.103	454.1585	501.3946	608.4046	626.83	763.1318	765.7649	847.2548	869.6377	912.5832	940.5051	993.5676	1004.656	1024.6842	1027.5237	1186.2043	1229.0387	1256.7688	1413.7781	1434.381	1473.0079	1563.7203	1658.4636	1685.7927	1780.8577	3084.3099	3151.5616	3163.0365	3178.5888	3185.4506
O=C1C=CC=CC=N1	O=c1cccccn1	
InChI=1S/C6H5NO/c8-6-4-2-1-3-5-7-6/h1-5H	InChI=1S/C6H5NO/c8-6-4-2-1-3-5-7-6/h1-5H
