18
gdb 77136	2.64636	1.25638	0.94868	0.5868	74.04	-0.2534	-0.0302	0.2233	1255.3602	0.145162	-439.109324	-439.099821	-439.098877	-439.144667	33.676	
C	-0.5827499132	 0.9038972575	 0.9431378406	-0.409939
C	 0.1029743795	-0.3176157149	 0.347924176	-0.137975
C	 0.3348256113	-0.3640469498	-1.1918093194	 0.023662
O	 1.7762981795	-0.4658495909	-0.9720965206	-0.266445
C	 1.6186866593	-0.3707145266	 0.4006789182	 0.431893
N	 2.4679865313	-0.3261581794	 1.3187781785	-0.538394
C	-0.286038517	-1.5398700484	-1.9309424354	 0.351448
C	 0.5474834875	-2.7900388696	-2.0887457989	-0.48311
O	-1.4207876514	-1.4336775377	-2.3351046411	-0.299058
H	-0.1413307991	 1.829647799	 0.5620213763	 0.128773
H	-1.6493915731	 0.9036841372	 0.7010165593	 0.13602
H	-0.4741605845	 0.9009272836	 2.0310767198	 0.145715
H	-0.3490710983	-1.2379639979	 0.7306086043	 0.117223
H	 0.0826598358	 0.5658266877	-1.7083318093	 0.11915
H	 3.4217359544	-0.3698361133	 0.9561064593	 0.231976
H	 1.4546774693	-2.5645406207	-2.6589615631	 0.157506
H	 0.8845283631	-3.1554059071	-1.1122285904	 0.147683
H	-0.0384826843	-3.5577324687	-2.5944901441	 0.143873
36.6757	72.1087	141.1312	154.121	214.64	222.0735	242.9321	307.7601	410.121	470.118	534.4368	581.3151	651.5069	727.4785	794.8893	832.351	867.9823	898.9242	987.2044	1003.8076	1008.8635	1018.9211	1074.374	1111.4459	1129.3381	1198.002	1235.1124	1250.3012	1279.3737	1335.6558	1359.6125	1385.2298	1410.9934	1453.91	1467.6134	1494.6981	1494.7201	1811.22	1830.488	3041.9769	3043.4166	3064.4859	3084.6831	3102.3088	3117.6756	3123.3959	3158.8942	3480.3396
CC1C(OC1=N)C(C)=O	C[C@H]1[C@@H](O[C]1[NH])C(=O)C	
InChI=1S/C6H9NO2/c1-3-5(4(2)8)9-6(3)7/h3,5,7H,1-2H3	InChI=1S/C6H9NO2/c1-3-5(4(2)8)9-6(3)7/h3,5,7H,1-2H3/t3-,5+/m0/s1
