25
gdb 60391	3.59006	0.66166	0.607	1.7493	90.43	-0.2563	0.084	0.3403	1970.4816	0.226428	-389.488265	-389.477097	-389.476153	-389.525506	40.482	
C	 0.2046858171	 1.4884850415	-0.1711378708	-0.380568
C	 0.0371259946	-0.0044490256	 0.1474933644	 0.039735
C	 0.4955436577	-0.3015331196	 1.5818943202	-0.389473
C	-1.4065854754	-0.493769897	-0.0651454083	-0.155694
C	-1.9049150086	-0.4376153755	-1.5173261693	-0.241817
C	-3.2881751667	-1.0275080477	-1.6545669449	 0.068694
O	-4.3898465276	-0.2473834799	-1.1672790935	-0.266439
C	-4.3396787314	-0.5460903915	-2.5674544587	 0.075991
C	-4.2002840441	 0.6110376889	-3.5235893611	-0.419233
H	 1.2361492161	 1.8120709116	 0.0038541147	 0.10908
H	-0.0390380032	 1.7203174636	-1.212119086	 0.111679
H	-0.4465796492	 2.0973291693	 0.4676552633	 0.113686
H	 0.6860844994	-0.5712087723	-0.5369580777	 0.067197
H	-0.1245178877	 0.2358607458	 2.3094790146	 0.113193
H	 0.4244662243	-1.3701169533	 1.810905512	 0.108317
H	 1.5341084543	 0.0077763988	 1.7397491761	 0.10783
H	-1.4809658038	-1.5306390428	 0.2902718778	 0.087073
H	-2.0880957167	 0.0933397705	 0.564738396	 0.108899
H	-1.9055075875	 0.5942284269	-1.8773722105	 0.104778
H	-1.2199782714	-1.0037634923	-2.164446813	 0.095155
H	-3.3478725477	-2.0796726947	-1.3610066308	 0.081334
H	-5.0831610851	-1.2856715921	-2.8755427181	 0.0829
H	-3.453428497	 1.3322339904	-3.1870276249	 0.128628
H	-3.9172508586	 0.2511121868	-4.5189473414	 0.12026
H	-5.1565300618	 1.13633856	-3.6187642699	 0.128792
37.8062	62.6685	99.4371	120.2003	163.285	221.6915	227.1213	247.9946	255.0343	346.3168	387.2672	408.7124	437.8245	490.2946	543.0722	749.3145	786.5332	800.5342	854.9212	913.872	927.5708	952.079	962.456	976.6268	1001.0818	1048.3866	1063.6561	1088.6709	1147.8906	1152.2127	1179.4512	1190.3679	1195.2071	1240.5798	1279.8082	1307.6912	1321.5124	1348.9937	1371.3027	1386.6826	1400.5801	1404.761	1420.7377	1423.0796	1467.3565	1471.6035	1486.5271	1489.4561	1492.6578	1498.8243	1505.073	1510.9787	1514.0759	2989.6931	3008.5111	3015.0523	3023.5826	3029.1065	3038.0902	3050.1308	3059.6297	3076.6569	3088.1745	3093.7113	3096.2585	3097.5712	3098.8149	3106.5809	3136.9506
CC(C)CCC1OC1C	CC(C)CC[C@H]1O[C@H]1C	
InChI=1S/C8H16O/c1-6(2)4-5-8-7(3)9-8/h6-8H,4-5H2,1-3H3	InChI=1S/C8H16O/c1-6(2)4-5-8-7(3)9-8/h6-8H,4-5H2,1-3H3/t7-,8+/m0/s1
