22
gdb 22503	3.43165	0.6358	0.57935	1.5181	82.85	-0.2536	-0.0005	0.2531	1986.3645	0.191951	-441.447408	-441.436451	-441.435507	-441.484401	39.165	
C	-0.1197798431	 1.478192965	-0.1426256264	-0.382862
C	 0.0540036875	-0.0399908728	-0.0495329542	-0.161506
C	 0.7042127672	-0.4891146095	 1.263592609	-0.167572
C	 0.8591971493	-2.0189791259	 1.3575337134	-0.287949
C	 1.5294268978	-2.4658194695	 2.6282676863	 0.34125
C	 2.9921248786	-2.1302281276	 2.8768331859	-0.136137
O	 3.787417358	-3.2806845854	 3.089139442	-0.419514
N	 0.8088087907	-3.1268881436	 3.4515640994	-0.17401
O	 1.5352761249	-3.4642861677	 4.6232745716	-0.415232
H	 0.8452962342	 1.9925376073	-0.0744940509	 0.114828
H	-0.58532099	 1.7688233391	-1.08944788	 0.113988
H	-0.7523228116	 1.8544906175	 0.6688918769	 0.11598
H	-0.9230764664	-0.5296393663	-0.1533220026	 0.099396
H	 0.6614567401	-0.393805642	-0.893025655	 0.097136
H	 1.6849712337	-0.0050125972	 1.3641844019	 0.099932
H	 0.1017115465	-0.1407195522	 2.1121934567	 0.106055
H	-0.1240503168	-2.4949655758	 1.2951924901	 0.117475
H	 1.4525468477	-2.3744482477	 0.503684292	 0.112189
H	 3.4079720992	-1.6220648951	 2.0025249684	 0.109436
H	 3.0530574889	-1.4296169349	 3.7254405606	 0.110009
H	 3.3909400893	-3.7341106088	 3.8434733881	 0.296503
H	 0.8938685641	-3.9843282169	 5.1176103869	 0.310605
52.7082	67.7266	83.3138	127.7972	138.4464	239.3956	245.2567	268.0217	302.8972	343.2168	352.9314	418.1278	439.3018	514.5749	581.4495	707.8738	737.8987	798.293	836.3622	906.7519	923.371	941.2316	981.0061	1015.82	1060.9108	1079.0421	1114.4368	1124.2557	1207.5335	1239.8047	1272.0935	1277.3713	1311.2164	1332.601	1352.7151	1371.2784	1391.2573	1396.204	1412.3186	1459.8232	1473.9325	1485.1928	1492.3399	1497.8529	1499.9115	1511.4174	1725.0216	2974.1091	3011.8222	3014.007	3022.3412	3030.4749	3038.7238	3060.1672	3087.6442	3091.7418	3097.917	3103.1489	3781.1628	3831.3416
CCCCC(CO)=NO	CCCCC(=NO)CO	
InChI=1S/C6H13NO2/c1-2-3-4-6(5-8)7-9/h8-9H,2-5H2,1H3	InChI=1S/C6H13NO2/c1-2-3-4-6(5-8)7-9/h8-9H,2-5H2,1H3
