19
gdb 83698	2.74133	1.60373	1.19086	2.5332	76.9	-0.2421	0.015	0.2571	1079.0647	0.160405	-423.022551	-423.014534	-423.01359	-423.054977	31.177	
C	-0.2206069377	 1.5287290415	 0.0616613428	-0.490696
C	-0.1036795952	 0.0419679922	-0.0231787907	 0.293181
C	-0.1187014057	-0.7277349199	-1.1150235962	-0.197665
C	 0.0821233363	-2.1879847443	-0.8156004636	-0.1172
C	 1.549742268	-2.6781983235	-0.8788635135	-0.077379
O	 1.7046556866	-2.503955371	 0.5519459303	-0.307149
C	 0.2903668519	-2.2159598381	 0.7164032985	 0.078179
C	 0.0808286323	-0.7791585392	 1.2491195646	 0.03171
O	 1.169968264	-0.3497800167	 2.0452843652	-0.433754
H	 0.6286371071	 1.9385014764	 0.6192187149	 0.144375
H	-0.2566788197	 1.9963103948	-0.9256871715	 0.11877
H	-1.1237073035	 1.8204388818	 0.6137241982	 0.125991
H	-0.2291574467	-0.3565601845	-2.1295426098	 0.090381
H	-0.6619675939	-2.8537790831	-1.2575109323	 0.083294
H	 1.6737576009	-3.7310743107	-1.1600101374	 0.103545
H	 2.2516871338	-2.0593293759	-1.4479757112	 0.107194
H	-0.2042049577	-2.992715727	 1.3063137887	 0.07826
H	-0.8091574427	-0.712310519	 1.8895054447	 0.079538
H	 1.9467665621	-0.7803012835	 1.6577063584	 0.289426
101.8866	157.5164	182.3228	235.3507	283.4747	334.3882	401.2955	489.258	515.0439	584.9723	632.9561	716.1244	801.2323	835.7167	877.6012	884.7156	892.7342	952.883	985.0902	1006.7416	1042.0321	1062.6094	1071.6539	1083.13	1098.1437	1158.5499	1181.8299	1240.211	1254.3554	1266.208	1292.1623	1311.3221	1331.158	1352.4442	1362.99	1407.0719	1445.9059	1474.0619	1489.3428	1518.8714	1715.9313	3013.0755	3020.7056	3022.292	3066.8482	3074.585	3078.1642	3090.6912	3117.2897	3174.7815	3720.0224
CC1=CC2COC2C1O	CC1=C[C@H]2CO[C@H]2[C@H]1O	
InChI=1S/C7H10O2/c1-4-2-5-3-9-7(5)6(4)8/h2,5-8H,3H2,1H3	InChI=1S/C7H10O2/c1-4-2-5-3-9-7(5)6(4)8/h2,5-8H,3H2,1H3/t5-,6-,7+/m0/s1
