21
gdb 109975	2.22907	1.1725	0.86077	3.7187	84.86	-0.233	0.0255	0.2585	1407.8659	0.182052	-383.270219	-383.260426	-383.259481	-383.305216	35.549	
C	 0.0594845715	 1.5566287124	 0.1580548303	-0.393122
C	 0.0359992388	 0.0354188081	-0.022830837	-0.189624
C	-1.3618650468	-0.5642681524	-0.0419972853	 0.063362
C	-1.4754317893	-2.122706239	-0.0734409483	-0.18329
C	-2.6139140582	-1.9421132431	 0.9682736999	-0.181376
N	-2.1141090839	-0.5826507279	 1.235327671	-0.083908
C	-3.106222512	 0.4444785167	 1.4816993903	-0.33061
C	-1.7854217859	-2.7655860711	-1.334656593	 0.270236
N	-2.0376226713	-3.2670997479	-2.345755169	-0.330297
H	 1.0828699809	 1.938949924	 0.1011689441	 0.120192
H	-0.5276800485	 2.0602095455	-0.6177355658	 0.11816
H	-0.3464459245	 1.8460169433	 1.1319128881	 0.129338
H	 0.5276333779	-0.2320687386	-0.9675367126	 0.108505
H	 0.6067154304	-0.4421736569	 0.7823839112	 0.101571
H	-1.9564379444	-0.127171035	-0.8627634999	 0.075085
H	-0.5915600372	-2.5861410729	 0.3716043824	 0.127773
H	-3.6043559695	-1.9603856589	 0.4878613432	 0.106961
H	-2.6176950214	-2.6185181101	 1.8279912932	 0.117815
H	-3.6344276113	 0.224447606	 2.4154049519	 0.126523
H	-2.6235292478	 1.4190636625	 1.5929194099	 0.128056
H	-3.8574134675	 0.5209857453	 0.6733683754	 0.098651
66.207	87.0996	143.4854	161.5309	206.2635	233.3494	266.6001	301.5325	323.605	384.0361	464.9864	518.2571	575.3526	607.9055	746.2444	831.4541	864.7426	950.5549	983.3303	998.7938	1021.5451	1061.5388	1087.5959	1099.9299	1131.9708	1158.2824	1178.346	1205.2618	1228.1862	1229.1659	1284.3684	1296.5448	1315.3167	1356.8221	1362.4374	1404.1811	1413.1697	1453.5898	1475.4949	1487.357	1495.4779	1502.0595	1509.1563	1522.1297	2355.4026	2934.1985	2955.4762	2988.0422	3022.4551	3036.2966	3064.0212	3066.8278	3073.9332	3088.9881	3104.9468	3109.8153	3115.96
CCC1C(CN1C)C#N	CC[C@H]1[C@@H](CN1C)C#N	
InChI=1S/C7H12N2/c1-3-7-6(4-8)5-9(7)2/h6-7H,3,5H2,1-2H3	InChI=1S/C7H12N2/c1-3-7-6(4-8)5-9(7)2/h6-7H,3,5H2,1-2H3/t6-,7+/m1/s1
