21
gdb 62703	2.79215	1.70153	1.48603	1.5769	80.76	-0.2332	0.0883	0.3215	1004.6934	0.183283	-387.068438	-387.060426	-387.059481	-387.100326	32.491	
C	-0.2043680891	 1.5961427927	 0.058147855	-0.453528
C	 0.0080055572	 0.0854205162	-0.0025431033	 0.294585
C	-1.2756249174	-0.6497013303	 0.3997255584	-0.434678
C	 0.6033585572	-0.5496940921	-1.2751794934	-0.103372
C	 2.1199392112	-0.4264511417	-1.3398567862	-0.091545
C	 2.8405974584	 0.5895491969	-0.4681514821	-0.113681
O	 2.3340422857	 0.381196531	 0.8553495359	-0.266857
C	 1.2424657237	-0.5252597938	 0.7644813278	 0.056037
C	 1.5045943678	-1.4552833444	-0.444973507	-0.094597
H	 0.6983766096	 2.1583237178	-0.1829103737	 0.121826
H	-0.988484233	 1.8982895434	-0.6462218154	 0.106885
H	-0.5258493308	 1.9028643024	 1.0599874424	 0.113537
H	-2.0910804793	-0.4255901107	-0.2973638087	 0.110938
H	-1.132310013	-1.7349865797	 0.4066200767	 0.112896
H	-1.6008669057	-0.3429136905	 1.4002700521	 0.111599
H	 0.0382376421	-0.8099357488	-2.1648640148	 0.076807
H	 2.5853920865	-0.7417250543	-2.2668979557	 0.09075
H	 3.923515923	 0.4069072069	-0.4666482918	 0.101114
H	 2.6749078171	 1.628759469	-0.7791087121	 0.100435
H	 1.0568899037	-0.9414197442	 1.7551029862	 0.073098
H	 1.678106725	-2.5220266758	-0.4674630403	 0.087749
141.0553	193.9744	219.9297	235.2283	276.0413	328.2223	355.9862	469.6836	518.5177	599.6627	706.6132	755.0421	767.4203	798.0367	835.2828	869.3029	914.598	936.2297	951.314	953.8933	982.8521	1004.2787	1016.0908	1035.9902	1052.3007	1067.4317	1082.0297	1129.1418	1187.4345	1207.7546	1212.7725	1221.8554	1245.4208	1260.8066	1305.2357	1349.8149	1365.4444	1399.7099	1405.9625	1421.0047	1479.4646	1485.0659	1501.6203	1504.1215	1529.2622	3008.8614	3022.474	3030.9157	3038.1023	3083.5993	3089.7169	3099.0332	3113.3587	3138.6963	3156.7613	3181.6458	3209.6706
CC1(C)C2C3COC1C23	CC1(C)[C@H]2[C@H]3CO[C@@H]1[C@@H]23	
InChI=1S/C8H12O/c1-8(2)6-4-3-9-7(8)5(4)6/h4-7H,3H2,1-2H3	InChI=1S/C8H12O/c1-8(2)6-4-3-9-7(8)5(4)6/h4-7H,3H2,1-2H3/t4-,5+,6-,7+/m0/s1
