18
gdb 119759	4.80985	0.78399	0.70606	4.4089	75.53	-0.2348	-0.0114	0.2233	1586.7459	0.147606	-439.117314	-439.108503	-439.107559	-439.151591	31.867	
C	 0.0219507683	 1.6070380507	 0.09430614	-0.307333
N	-0.0168397173	 0.1503885383	 0.1134492214	-0.281706
H	 0.6480294569	-0.2175441046	-0.5597832168	 0.217564
H	 0.072756391	-2.5002310023	 1.4613934945	 0.164325
C	-1.3403437832	-0.3948722858	-0.1881075537	-0.259618
C	-1.3357220858	-1.8847091415	-0.0953994125	 0.214893
C	-0.9539224714	-2.6776414408	 1.1255778443	-0.461212
C	-1.1160303696	-4.1214318512	 0.6569123112	 0.435968
O	-0.9405370185	-5.1475245188	 1.2372503875	-0.316513
O	-1.5370633268	-4.0904495282	-0.6654508283	-0.202335
C	-1.6414808186	-2.7638204792	-1.0478949392	-0.034189
H	-1.963060594	-2.6180530295	-2.0690237118	 0.138173
H	 1.0461107804	 1.9478268173	 0.2700023648	 0.122583
H	-0.3352669484	 2.0588925927	-0.8485185666	 0.095904
H	-0.6033493826	 1.9988448667	 0.9046534069	 0.124683
H	-2.0363842131	 0.0226350427	 0.5544215573	 0.111338
H	-1.7269792621	-0.0885189077	-1.1783810095	 0.085489
H	-1.6010578952	-2.4975741887	 1.9921915504	 0.151987
71.4375	88.8093	107.5515	173.2732	241.1459	302.2112	323.8443	390.4571	464.4469	506.4351	570.24	648.2464	756.2901	796.383	824.1066	875.9725	910.1963	953.8615	978.471	994.8475	1072.6997	1128.8066	1135.7095	1145.8051	1164.3087	1183.787	1209.1299	1270.0641	1297.196	1357.6085	1387.4833	1438.923	1458.4484	1482.619	1490.881	1503.5077	1517.8815	1722.8068	1905.7247	2924.4631	2945.5363	3007.3091	3049.3769	3056.9645	3088.2081	3107.5701	3247.7585	3512.711
C[NH2+]CC1=CC(=O)O[CH-]1	CNCC1=COC(=O)C1	
InChI=1S/C6H8NO2/c1-7-3-5-2-6(8)9-4-5/h2,4,7H,3H2,1H3/q-1/p+1	InChI=1S/C6H9NO2/c1-7-3-5-2-6(8)9-4-5/h4,7H,2-3H2,1H3
