14
gdb 133080	4.04535	1.17677	0.91681	3.8442	67.31	-0.2519	-0.0352	0.2166	1180.0059	0.102716	-474.225747	-474.217914	-474.21697	-474.259629	27.27	
C	-0.0233349541	 1.4459579298	 0.0261277846	-0.314791
N	 0.0381441935	-0.0007226367	-0.0640634606	-0.346832
C	 0.6174183262	-0.6662800118	-1.076663844	 0.485705
N	 1.1781576994	 0.0474731707	-2.0739192517	-0.321244
C	 1.7236524797	-0.6962342365	-3.0261704256	 0.078937
N	 1.7639772402	-2.0301313757	-3.0804599247	-0.324337
C	 1.1745931691	-2.594832974	-2.0341966973	 0.350025
F	 1.1770911657	-3.9105944564	-2.0228592732	-0.048004
N	 0.5909130088	-2.0169967907	-1.0129227041	-0.384874
H	 0.9785877838	 1.8848461877	 0.0497737917	 0.14816
H	-0.5589404235	 1.8739015724	-0.8264852961	 0.148298
H	-0.5489037947	 1.7102006842	 0.9450933116	 0.131158
H	-0.3675286842	-0.5718857182	 0.6583997924	 0.265777
H	 2.1892388602	-0.1648146949	-3.8535503029	 0.132023
25.8022	105.1959	192.2237	205.9562	227.0697	402.7757	464.8104	491.9101	538.1797	586.5374	659.9633	766.5609	834.4469	846.93	984.6091	1001.2176	1026.3034	1109.5866	1160.7647	1194.3522	1264.4496	1328.331	1373.4209	1405.7628	1452.5074	1477.5695	1481.0742	1514.546	1582.7554	1621.1015	1646.06	3044.2231	3102.3116	3141.96	3163.7553	3661.8779
CNC1=NC=NC(F)=N1	CNc1ncnc(F)n1	
InChI=1S/C4H5FN4/c1-6-4-8-2-7-3(5)9-4/h2H,1H3,(H,6,7,8,9)	InChI=1S/C4H5FN4/c1-6-4-8-2-7-3(5)9-4/h2H,1H3,(H,6,7,8,9)
