20
gdb 66561	2.33741	2.18651	1.59262	1.8487	81.4	-0.2141	0.0861	0.3002	949.7593	0.171302	-365.937651	-365.929984	-365.929039	-365.969106	31.327	
C	 0.0062450345	 1.4700478985	 0.0431629695	-0.525313
C	-0.0452671669	-0.0249066959	-0.036453142	 0.304975
C	-0.0928389885	-0.9641583688	 1.1864352036	-0.142
C	 1.0178597271	-1.06367951	 0.1795889842	-0.091555
N	 0.2016005888	-2.0747210384	-0.6104367929	-0.214324
C	-0.8085248759	-2.1647865924	 0.5544630395	-0.012284
C	-1.9257075767	-1.6412063264	-0.3605805815	-0.292044
C	-0.748969884	-0.9373071823	-1.0705067076	 0.29723
C	-0.7613575304	-0.5519081961	-2.5232189703	-0.500232
H	 0.6643170454	 1.7964715201	 0.855706352	 0.122495
H	 0.3883917936	 1.9090663541	-0.8854812845	 0.122592
H	-0.9856232256	 1.898024617	 0.2317828293	 0.120015
H	-0.0836002696	-0.5993207296	 2.2058759312	 0.08419
H	 2.0982764233	-1.0307545056	 0.2513782833	 0.090169
H	-0.8800459131	-3.104242455	 1.1031531944	 0.073079
H	-2.3454402782	-2.4377499761	-0.9821413279	 0.10651
H	-2.7231537042	-1.0325253773	 0.0738684483	 0.093919
H	-1.4490646573	 0.2831635977	-2.7011732313	 0.116043
H	 0.2372781246	-0.2432198476	-2.8514189801	 0.121991
H	-1.0767308668	-1.3951840258	-3.1448189671	 0.124544
196.9803	197.8078	202.7844	230.3492	285.1262	338.5227	430.6096	552.9205	595.7845	614.6759	744.9168	776.3684	812.7927	816.45	854.0348	866.6183	890.563	912.3359	932.0817	942.9024	975.4027	1003.906	1011.6302	1056.8587	1069.0619	1107.7734	1133.565	1152.558	1191.2917	1202.9737	1207.4437	1240.8756	1268.297	1296.4697	1327.2487	1407.411	1411.187	1433.0106	1475.6335	1482.438	1485.8775	1492.0347	1500.2752	3020.0068	3027.1927	3053.4886	3078.7119	3091.1797	3092.2821	3106.9211	3108.931	3114.8771	3177.5673	3193.9486
CC12C3C1N1C3CC21C	C[C@]12[C@@H]3[C@H]1N1[C@@H]3C[C@@]21C	
InChI=1S/C8H11N/c1-7-3-4-5-6(9(4)7)8(5,7)2/h4-6H,3H2,1-2H3	InChI=1S/C8H11N/c1-7-3-4-5-6(9(4)7)8(5,7)2/h4-6H,3H2,1-2H3/t4-,5+,6-,7+,8+/m1/s1
