22
gdb 96253	2.47597	1.44973	1.02996	2.3011	82.86	-0.2504	0.0093	0.2597	1226.9711	0.196	-404.355152	-404.346399	-404.345454	-404.38823	34.054	
C	 0.1339355376	 1.6264726117	 0.0744474129	-0.404191
C	 0.0007980867	 0.0951885763	 0.0352228262	 0.025451
C	 0.5426988409	-0.4690810731	-1.3004978982	-0.192881
C	-0.1515979343	-1.7190735656	-1.8720751343	-0.199433
C	-0.2644353893	-2.9330929077	-0.9300735793	-0.156738
N	 1.0375290805	-3.2770188613	-0.362835147	-0.205323
C	 1.3552733269	-2.7028503284	 0.7119678624	 0.089327
O	 0.5352210721	-1.8866029756	 1.4508484004	-0.235255
C	 0.7099420822	-0.4775665096	 1.2735811577	-0.076811
H	 1.179497345	 1.9344152415	-0.0451842581	 0.118071
H	-0.4395692943	 2.0857875797	-0.735959647	 0.119624
H	-0.2301600567	 2.0417376095	 1.0202676756	 0.112954
H	-1.0645834929	-0.1568110127	 0.1242142054	 0.081995
H	 0.4620890013	 0.3132028998	-2.0644841039	 0.092625
H	 1.617450685	-0.6639520916	-1.1962583678	 0.103078
H	-1.1684880095	-1.4581926584	-2.1919399123	 0.09689
H	 0.3914259365	-2.0190783508	-2.7758566934	 0.105829
H	-1.0000555182	-2.7247865134	-0.1447688936	 0.108656
H	-0.6210245406	-3.7920241463	-1.5067373481	 0.099525
H	 2.335396208	-2.8748355222	 1.1640658936	 0.108161
H	 1.7835111224	-0.2363054445	 1.2332391005	 0.096621
H	 0.2994301407	-0.0227652473	 2.1801866684	 0.111826
92.7215	182.7249	194.025	226.7762	236.6817	300.8291	316.0942	350.1334	414.8066	480.3654	498.2824	605.4724	689.6372	776.7631	807.0126	871.4935	906.1656	920.4807	947.8384	966.7309	1003.3612	1018.3916	1048.041	1082.2075	1099.0761	1125.1152	1158.2334	1163.2681	1226.7074	1248.8485	1297.1944	1306.3832	1329.7624	1350.2449	1376.3243	1379.7828	1392.3829	1397.3746	1404.9898	1425.7999	1477.0745	1486.2247	1497.4715	1500.1632	1502.3807	1512.3553	1732.3882	2987.8551	3016.4427	3022.0589	3025.1563	3030.2286	3034.323	3056.2281	3067.6812	3080.674	3082.8663	3093.6928	3103.1368	3106.9105
CC1CCCN=COC1	C[C@H]1CCCN=COC1	
InChI=1S/C7H13NO/c1-7-3-2-4-8-6-9-5-7/h6-7H,2-5H2,1H3/b8-6-	InChI=1S/C7H13NO/c1-7-3-2-4-8-6-9-5-7/h6-7H,2-5H2,1H3/b8-6-/t7-/m0/s1
