19
gdb 72809	2.71482	1.50575	1.28987	1.9569	74.53	-0.2398	-0.0222	0.2176	1059.2594	0.159223	-423.049661	-423.041512	-423.040568	-423.082292	31.474	
C	-0.1020275453	 1.507981792	 0.0573771407	-0.457682
C	 0.0034400293	-0.0031572494	 0.0464626348	 0.425579
C	-1.3228844687	-0.7508536888	-0.17129267	-0.257398
C	-1.0871227153	-2.164975324	 0.3831789828	-0.333054
C	-0.0681191861	-1.9731108833	 1.5126860517	 0.404569
O	 0.0608066467	-2.6737558988	 2.4831762274	-0.319618
C	 0.7512890446	-0.7237011981	 1.2031073131	-0.223662
C	 1.8447016262	-0.9758820507	 0.1384022563	-0.0928
O	 1.0089256994	-0.4585257495	-0.9119062658	-0.326705
H	 0.8783083915	 1.9665134915	 0.2153796514	 0.123262
H	-0.4919637989	 1.8647979748	-0.9018096606	 0.129261
H	-0.7770025616	 1.847538235	 0.8498602619	 0.11908
H	-2.1176950893	-0.2482605022	 0.3923575644	 0.10563
H	-1.601747114	-0.7368478976	-1.2283614986	 0.116679
H	-1.9798003269	-2.6777876292	 0.7448956568	 0.127
H	-0.6225758532	-2.8055091074	-0.377076026	 0.14083
H	 1.0436372288	-0.1792725344	 2.1002137428	 0.096018
H	 2.7483167015	-0.3709058644	 0.2845797711	 0.109964
H	 2.1385053311	-2.0179549756	-0.0335432841	 0.113046
83.7294	146.1597	210.5005	224.1733	275.0294	342.3762	367.1074	455.0132	515.6335	562.2011	638.5932	678.0945	748.7021	801.7989	866.1588	882.4048	923.7343	958.3266	985.3434	996.9839	1012.1756	1035.9774	1105.9229	1112.4985	1160.6267	1174.6	1185.1012	1207.4709	1235.116	1269.339	1281.935	1296.4071	1347.4843	1359.1697	1410.1969	1451.7273	1476.6156	1483.7439	1490.4739	1526.9644	1843.9475	3014.6736	3033.6392	3041.043	3044.4	3060.2571	3098.8103	3106.3056	3113.4715	3123.4688	3125.4099
CC12CCC(=O)C1CO2	C[C@]12CCC(=O)[C@H]1CO2	
InChI=1S/C7H10O2/c1-7-3-2-6(8)5(7)4-9-7/h5H,2-4H2,1H3	InChI=1S/C7H10O2/c1-7-3-2-6(8)5(7)4-9-7/h5H,2-4H2,1H3/t5-,7+/m1/s1
