22
gdb 86323	2.0013	1.52114	1.04372	2.5929	83.07	-0.2173	-0.0112	0.2061	1258.5972	0.191557	-404.349048	-404.338699	-404.337754	-404.384967	37.3	
C	 0.5146315412	 1.8158757156	-0.2174523599	-0.408159
C	 0.2680041848	 0.3159983458	-0.3168524095	-0.003044
C	 1.4943753854	-0.5384487282	-0.7324871493	-0.176523
N	 1.7007619526	-0.9142580124	 0.6797155336	-0.073419
C	 2.1119278804	-2.2704638701	 0.9699419545	-0.329427
C	 0.3320804794	-0.4922949827	 1.0242160582	-0.067559
C	 0.1047808117	 0.269696081	 2.3251782358	 0.36787
C	 1.2639420611	 0.3957978157	 3.290118996	-0.480238
O	-0.9832654929	 0.7558563386	 2.542925031	-0.313003
H	 1.4397281293	 2.0328190813	 0.3273943081	 0.121309
H	 0.6068530777	 2.2537831631	-1.2169626659	 0.112964
H	-0.3099630176	 2.3156997533	 0.2985479	 0.139841
H	-0.6356545048	 0.1211329417	-0.8960002947	 0.085316
H	 1.2118032145	-1.3930018603	-1.3681538037	 0.084432
H	 2.3416109181	-0.0189338238	-1.1954923949	 0.099423
H	 3.1171558058	-2.4452937259	 0.5722273207	 0.12375
H	 2.1503677074	-2.4322176539	 2.0524039264	 0.119246
H	 1.4348177244	-3.0299854893	 0.5344229909	 0.093755
H	-0.3983208524	-1.3200048517	 1.0029434266	 0.081147
H	 1.5254247979	-0.5925281325	 3.6877889026	 0.137404
H	 2.1538619445	 0.7616740321	 2.7710827275	 0.149874
H	 0.9874504217	 1.0549387725	 4.1138915259	 0.13504
32.6271	90.244	124.7203	151.9766	179.1633	217.5667	252.6818	270.4637	323.9394	363.9917	379.2582	482.382	501.7729	593.0208	693.0728	767.2841	830.4516	891.3297	914.1144	964.6044	987.3301	1002.0572	1020.3905	1072.0606	1100.5413	1118.4028	1171.0816	1175.2861	1210.5326	1223.6377	1243.9036	1257.0089	1271.5558	1323.673	1353.1851	1373.6167	1376.5522	1409.9536	1451.441	1454.5275	1466.4441	1486.2146	1496.3813	1498.8534	1502.6925	1520.2174	1798.958	2926.2386	2947.6749	2971.6878	3033.6227	3038.4128	3047.0541	3056.6927	3088.0486	3097.6747	3105.2438	3106.4581	3116.7923	3157.0667
CC1CN(C)C1C(C)=O	C[C@H]1CN(C)[C@H]1C(=O)C	
InChI=1S/C7H13NO/c1-5-4-8(3)7(5)6(2)9/h5,7H,4H2,1-3H3	InChI=1S/C7H13NO/c1-5-4-8(3)7(5)6(2)9/h5,7H,4H2,1-3H3/t5-,7+/m0/s1
