19
gdb 64046	2.51706	1.6807	1.3757	1.8308	75.46	-0.2395	0.0024	0.2419	1020.0801	0.158667	-423.020698	-423.012341	-423.011397	-423.053008	33.072	
C	 0.0995619933	 1.5178785817	 0.0092409159	-0.444349
C	-0.0156990305	-0.0100866269	-0.02425441	 0.311139
O	-1.3846267176	-0.4124492683	 0.087176373	-0.469891
C	 0.620155562	-0.5749118035	-1.3189663583	-0.291446
C	 0.8468797238	-2.0624719638	-1.2858711906	-0.085461
C	 1.125138632	-2.7062076395	-0.1526282737	-0.031788
C	 1.1891545472	-1.9751799212	 1.1346899962	-0.012237
O	 2.0358518939	-0.7941513941	 1.1868179495	-0.270388
C	 0.6267046242	-0.6183629826	 1.2121768851	 0.067014
H	 1.1470676779	 1.8291079735	 0.0610190873	 0.135245
H	-0.3398239054	 1.9619832386	-0.8924075526	 0.105411
H	-0.4275218145	 1.9174021425	 0.8806818695	 0.122579
H	-1.8904841292	 0.0783254382	-0.5690484005	 0.277735
H	-0.0267552952	-0.3024615707	-2.161891477	 0.090547
H	 1.5777033125	-0.0677589002	-1.491353063	 0.127365
H	 0.8059951736	-2.6020633676	-2.2277165427	 0.093996
H	 1.2985551324	-3.7772885574	-0.1368164567	 0.090204
H	 1.2333310464	-2.5696392851	 2.044392578	 0.093577
H	 0.2125020431	-0.2655437338	 2.1571945607	 0.090748
111.1794	191.841	240.0747	251.7145	284.6443	300.0688	339.3688	402.3471	474.7794	496.4428	547.7882	590.0874	697.2934	716.0437	825.6128	847.2231	879.2741	916.9791	940.3783	974.8723	977.553	991.0478	1022.1619	1064.9992	1105.2155	1126.4577	1137.9108	1193.0532	1216.8052	1244.3831	1279.3986	1336.4293	1344.6032	1399.6145	1407.4427	1420.3691	1453.6284	1469.3783	1490.7841	1499.9516	1712.7072	3021.8426	3027.6597	3056.808	3095.5214	3106.0237	3119.1632	3137.7801	3162.5329	3188.5706	3808.7706
CC1(O)CC=CC2OC12	C[C@@]1(O)CC=C[C@H]2O[C@@H]12	
InChI=1S/C7H10O2/c1-7(8)4-2-3-5-6(7)9-5/h2-3,5-6,8H,4H2,1H3	InChI=1S/C7H10O2/c1-7(8)4-2-3-5-6(7)9-5/h2-3,5-6,8H,4H2,1H3/t5-,6-,7-/m1/s1
