17
gdb 33798	3.52998	1.39827	1.20344	4.0963	72.43	-0.2506	0.0131	0.2636	1032.3686	0.138873	-417.99168	-417.984474	-417.983529	-418.023204	28.341	
N	 0.1292934738	-1.1593809435	-0.0401918921	-0.334197
C	 0.0396714087	-0.0076449206	-0.0094372489	 0.218208
C	-0.0388319425	 1.4477957971	 0.0422074386	 0.152678
C	-0.9137863077	 2.1466412536	 1.1261096434	-0.252579
C	-1.1091484679	 3.2017915535	 0.0076224173	-0.020671
C	 0.0932726164	 4.1456241532	-0.006500928	-0.081006
O	 1.272966897	 3.4663102778	 0.4167234119	-0.258405
C	 1.3598877766	 2.1043553328	 0.0371403399	-0.116583
N	-0.9140464507	 2.0952964923	-0.9771500609	-0.32755
H	-1.8235547876	 1.5844444697	 1.3286357037	 0.135434
H	-0.4143095422	 2.4523716218	 2.0441299419	 0.128402
H	-2.0611571769	 3.7316132783	-0.0736081845	 0.087644
H	 0.2211515778	 4.5653736365	-1.0185605618	 0.096871
H	-0.0377581239	 4.9791419676	 0.6917605972	 0.119279
H	 2.0296201139	 1.624923526	 0.7578816343	 0.13131
H	 1.7970352059	 1.9897587634	-0.9685763774	 0.106754
H	-0.4162888806	 2.3661603305	-1.8259600045	 0.21441
146.5746	154.3891	213.6747	322.1412	395.3318	431.2558	457.1649	546.5781	556.1138	617.9848	647.1273	827.4817	870.4199	888.596	902.4108	932.5092	940.8937	1005.895	1030.1932	1050.7122	1091.1707	1119.9196	1141.3473	1175.3352	1209.9679	1234.2675	1252.4393	1258.9669	1310.8367	1320.0204	1369.6748	1379.4235	1412.0069	1479.6994	1498.5619	1505.1924	2357.2663	2965.6754	2974.0615	3069.4489	3080.1618	3085.2317	3107.9769	3177.61	3444.2924
N#CC12CC(COC1)N2	N#C[C@@]12C[C@@H](COC1)N2	
InChI=1S/C6H8N2O/c7-3-6-1-5(8-6)2-9-4-6/h5,8H,1-2,4H2	InChI=1S/C6H8N2O/c7-3-6-1-5(8-6)2-9-4-6/h5,8H,1-2,4H2/t5-,6-/m0/s1
