21
gdb 106429	2.55738	1.29897	1.03172	0.7014	89.69	-0.2501	0.046	0.2961	1256.5814	0.181822	-349.881253	-349.87232	-349.871376	-349.914847	34.832	
C	-0.035394773	 1.5238372527	 0.0654910538	-0.381068
C	 0.0614102685	-0.0016694164	-0.0490937813	-0.312707
C	 0.7569631317	-0.4643239144	-1.3044693543	 0.359563
C	 0.3198648366	-0.2585205932	-2.7903609945	-0.270816
C	 1.6297722302	-1.0890543253	-2.8596378686	-0.053094
C	 2.2116136138	-0.1378105774	-1.7791345031	-0.271537
C	 1.0426138579	-1.965407264	-1.701551342	-0.217873
C	 1.9199640471	-2.7682287499	-0.8754215937	 0.306347
C	 2.6269448631	-3.4504090267	-0.1801687109	-0.448789
H	 0.9582685971	 1.9836740813	 0.0691511895	 0.120194
H	-0.5965636558	 1.9507281483	-0.772395692	 0.117634
H	-0.5422552408	 1.8162804722	 0.9899337435	 0.113825
H	 0.6001536421	-0.407157882	 0.8168748576	 0.109583
H	-0.9446641615	-0.4406364041	-0.018501237	 0.097518
H	-0.6020792393	-0.7562712438	-3.1062522273	 0.087366
H	 0.3763744601	 0.7623478381	-3.1759024923	 0.091896
H	 2.1313279583	-1.4638212154	-3.7519637583	 0.077731
H	 2.3981613812	 0.8917641816	-2.0955229465	 0.088583
H	 3.0267372489	-0.5260876515	-1.1657686511	 0.108374
H	 0.1453348762	-2.5307313358	-1.9766196231	 0.087739
H	 3.2552756176	-4.0524150143	 0.4281694314	 0.18953
70.3061	111.7695	174.9849	194.2056	214.0401	320.682	354.7327	429.6314	506.3516	528.7403	600.1069	614.1852	631.8411	638.6892	755.555	789.0736	830.5888	873.2559	916.2917	933.0591	944.9326	985.6872	1017.9812	1034.1119	1054.7452	1068.8758	1097.8495	1117.1296	1137.3322	1161.2559	1185.6701	1217.9363	1223.0401	1232.771	1301.6824	1305.6827	1366.907	1381.0439	1411.6445	1481.0428	1496.9109	1499.5327	1506.7516	1538.2948	2226.5213	3016.936	3034.9693	3042.8062	3047.7521	3050.7788	3061.4994	3103.3372	3107.0368	3112.8982	3114.7655	3130.2947	3504.0242
CCC12CC(C1)C2C#C	CC[C@@]12C[C@@H](C1)[C@H]2C#C	
InChI=1S/C9H12/c1-3-8-7-5-9(8,4-2)6-7/h1,7-8H,4-6H2,2H3	InChI=1S/C9H12/c1-3-8-7-5-9(8,4-2)6-7/h1,7-8H,4-6H2,2H3/t7-,8-,9+/m1/s1
