21
gdb 41152	2.84663	1.81136	1.40063	1.4093	81.58	-0.2356	0.0883	0.324	993.1887	0.185984	-387.058143	-387.05124	-387.050295	-387.088906	29.802	
C	-0.0250811771	 1.567352391	-0.1052437541	-0.263717
C	 1.5355762494	 1.5692284699	 0.0265302448	-0.344338
C	 1.4044509224	 0.2246706076	 0.7678723331	 0.358112
C	 2.1529479807	-1.1241183461	 0.8424661597	-0.325461
C	 1.1972968384	-1.3882639686	 2.0560815503	 0.141525
C	 1.2366882508	 0.1389468884	 2.3094803701	-0.29733
O	-0.0982979444	-1.8227941505	 1.6397483228	-0.286806
C	-0.8875348866	-0.8132950815	 0.9909902215	-0.112093
C	 0.0214590563	 0.0284439262	 0.1009823822	 0.004563
H	-0.4985236936	 2.0802520553	 0.7373798282	 0.103558
H	-0.4597226352	 1.9435541756	-1.0337409351	 0.097909
H	 2.0184694928	 1.4608262717	-0.9497581373	 0.103875
H	 2.005088395	 2.3986447288	 0.561998296	 0.095386
H	 2.0721614314	-1.7947866385	-0.0171566684	 0.093345
H	 3.1948069441	-1.0486680855	 1.1705352052	 0.09166
H	 1.5164008219	-2.0820370677	 2.8357356158	 0.075358
H	 2.1569670657	 0.4268153729	 2.825535585	 0.096687
H	 0.3849417902	 0.6161920935	 2.7994267525	 0.097447
H	-1.662749085	-1.3522291047	 0.4392213272	 0.104145
H	-1.3925120551	-0.1864620081	 1.7402068019	 0.09088
H	 0.1649523177	-0.4624433497	-0.8688464615	 0.075295
185.4915	246.7987	325.1137	359.6361	415.9319	449.5449	479.9679	530.7405	569.8568	689.3857	774.7126	818.63	830.3797	858.5938	862.2775	910.7016	940.2381	951.1072	969.2819	970.9671	981.2984	1032.071	1057.312	1094.8017	1114.9768	1155.8129	1169.0003	1188.4237	1190.059	1197.744	1235.1013	1242.3208	1255.7152	1265.5136	1267.4904	1293.5998	1307.4546	1348.2415	1371.4787	1401.0581	1472.2158	1480.2865	1496.1584	1500.7228	1527.3419	2992.5701	3031.0995	3043.4721	3050.3256	3056.5265	3061.498	3082.736	3096.6036	3099.7139	3107.5009	3112.8252	3117.1581
C1CC23CC(C2)OCC13	C1C[C@@]23C[C@@H](C2)OC[C@@H]13	
InChI=1S/C8H12O/c1-2-8-3-7(4-8)9-5-6(1)8/h6-7H,1-5H2	InChI=1S/C8H12O/c1-2-8-3-7(4-8)9-5-6(1)8/h6-7H,1-5H2/t6-,7-,8+/m1/s1
