17
gdb 55979	3.282	0.9731	0.88748	2.794	71.36	-0.2479	-0.0305	0.2174	1364.1478	0.13315	-459.006197	-458.996916	-458.995971	-459.042363	32.118	
C	-0.1236125507	 1.487118654	-0.0251050464	-0.483176
C	 0.0949240578	-0.0021780932	 0.0418256048	 0.432767
O	 1.1494867029	-0.554868149	 0.2091114449	-0.339908
O	-1.0894921043	-0.6560936691	-0.1187298392	-0.247864
C	-1.0579536738	-2.0703180283	-0.1354485406	 0.031695
C	-2.1162673588	-2.8214754287	 0.7184485377	-0.269699
C	-2.392307202	-3.7814077221	-0.4792502316	-0.344396
C	-1.6686150521	-2.7577692042	-1.3754683991	 0.373131
O	-1.6889459602	-2.4944742789	-2.53972371	-0.284583
H	 0.8165470861	 2.0015241317	 0.1685946472	 0.151123
H	-0.4993664001	 1.7580523655	-1.0160791291	 0.160613
H	-0.8796333262	 1.7912335809	 0.703707119	 0.151194
H	-0.0382523393	-2.4208235131	 0.0513635976	 0.144216
H	-1.7570946858	-3.2684488236	 1.6453122224	 0.119385
H	-2.972977721	-2.1779045631	 0.9283529811	 0.128689
H	-1.8453857807	-4.7270997328	-0.416198763	 0.138882
H	-3.4308754117	-3.992142566	-0.7409579855	 0.137931
24.2637	66.0285	90.395	97.3513	178.2615	245.4191	340.3629	379.0691	465.3975	566.0024	603.2988	617.8464	689.2106	746.0435	787.2736	899.9454	915.1561	940.7047	1007.5166	1020.6543	1063.2872	1065.0398	1098.1888	1137.6369	1186.6591	1224.4193	1245.2622	1249.4045	1268.9101	1358.9578	1397.4655	1443.2715	1468.4308	1474.8866	1489.1494	1834.0162	1902.0525	3058.9588	3066.5086	3076.7877	3085.3694	3124.5765	3126.2171	3148.492	3172.1539
CC(=O)OC1CCC1=O	CC(=O)O[C@H]1CCC1=O	
InChI=1S/C6H8O3/c1-4(7)9-6-3-2-5(6)8/h6H,2-3H2,1H3	InChI=1S/C6H8O3/c1-4(7)9-6-3-2-5(6)8/h6H,2-3H2,1H3/t6-/m0/s1
