21
gdb 58553	2.16243	1.43075	1.38806	2.8282	79.14	-0.2022	0.0359	0.2381	1124.6474	0.181672	-420.410613	-420.400744	-420.3998	-420.444998	36.711	
C	 0.105976266	 1.4741459313	-0.1178902832	-0.333893
N	 0.0115367386	 0.0195078106	 0.008708531	-0.103655
C	 0.7548615021	-0.4216806155	 1.1874629055	-0.340851
C	-1.3419456346	-0.5119590381	-0.0640541608	 0.200326
C	-2.1705493531	 0.111547569	-1.1867247658	-0.464244
C	-1.4519689715	-2.0822335539	-0.0546760481	-0.218079
N	-2.2473588442	-1.9588759741	 1.1669346507	-0.317141
C	-2.1707303851	-0.5920426037	 1.2752443559	 0.375665
O	-2.5831057254	 0.191661087	 2.0904504797	-0.375644
H	 1.162893231	 1.7544501455	-0.0788831576	 0.116242
H	-0.2850761998	 1.8095745446	-1.0795403103	 0.121612
H	-0.4194141024	 2.017762321	 0.6850667446	 0.121787
H	 0.3548415399	-0.0116734689	 2.1303351263	 0.120737
H	 0.755423026	-1.5110202233	 1.2645330931	 0.118154
H	 1.7959024089	-0.0998231667	 1.0908942124	 0.11797
H	-1.6271825735	 0.0713345595	-2.1362931478	 0.125824
H	-3.1093246634	-0.4372847701	-1.301647874	 0.122535
H	-2.4260827655	 1.1507193326	-0.9683475747	 0.139852
H	-1.9937162361	-2.5038264769	-0.9074056469	 0.108626
H	-0.506601723	-2.6153676481	 0.0715362396	 0.115461
H	-2.7187303048	-2.6485489117	 1.7330086406	 0.248717
70.3659	102.5067	148.3741	223.782	228.7004	234.4381	276.451	321.3534	358.4445	375.3651	421.9532	437.8718	498.594	554.2634	667.2729	735.4484	765.1707	856.1776	886.5044	964.8648	998.8665	1013.7746	1065.9892	1113.3809	1124.8635	1148.0785	1159.4922	1176.872	1187.0026	1210.1928	1284.217	1294.6692	1320.5732	1384.2716	1408.5149	1442.3272	1476.1149	1483.34	1490.6058	1497.0944	1503.471	1509.4887	1522.9918	1542.2364	1876.7394	2966.0755	2972.4596	3040.761	3047.8096	3076.2697	3079.0155	3097.2195	3112.6832	3121.4903	3124.3439	3132.6073	3610.8408
CN(C)C1(C)CNC1=O	CN(C)[C@@]1(C)CNC1=O	
InChI=1S/C6H12N2O/c1-6(8(2)3)4-7-5(6)9/h4H2,1-3H3,(H,7,9)	InChI=1S/C6H12N2O/c1-6(8(2)3)4-7-5(6)9/h4H2,1-3H3,(H,7,9)/t6-/m0/s1
