13
gdb 131009	4.37497	1.05604	0.8507	4.3057	79.7	-0.2547	-0.0627	0.192	1249.4766	0.089186	-415.608259	-415.600741	-415.599797	-415.640551	27.638	
O	-0.0371940866	-0.040620411	 0.0006851533	-0.247323
C	 0.0164792681	 1.1525309838	 0.0099810801	 0.19288
N	 1.2029219643	 1.9080721577	 0.0017876262	-0.027969
C	 1.2678658625	 3.2835903337	 0.0124686143	 0.000764
C	 2.5887861322	 3.6135660104	-0.0008125492	-0.326216
C	 3.2763520714	 2.3563434152	-0.019859825	 0.239623
N	 2.4286895928	 1.3315169966	-0.0180275129	-0.28774
C	 4.6801409395	 2.1619982952	-0.0385971514	 0.265842
C	 5.8769293209	 2.0432536968	-0.0541698923	-0.403353
H	-0.8612950082	 1.8243364807	 0.026359751	 0.103086
H	 0.372868626	 3.8851743542	 0.0284372469	 0.156308
H	 3.0281651861	 4.5969940442	 0.0021246069	 0.132019
H	 6.931936851	 1.9212046525	-0.068047078	 0.20208
121.7353	128.5698	160.1156	249.5452	287.5992	465.6329	505.4023	541.2378	595.4499	617.1171	632.7893	668.8063	726.4924	783.0098	824.5354	870.0168	988.8227	1014.7573	1020.3151	1080.5741	1202.5297	1292.7849	1352.3491	1410.3887	1451.2896	1460.4112	1572.0583	1856.2116	2243.0209	2973.2996	3262.5231	3286.3085	3502.5965
O=CN1C=CC(=N1)C#C	O=Cn1ccc(n1)C#C	
InChI=1S/C6H4N2O/c1-2-6-3-4-8(5-9)7-6/h1,3-5H	InChI=1S/C6H4N2O/c1-2-6-3-4-8(5-9)7-6/h1,3-5H
