16
gdb 127874	2.53323	1.55268	0.97415	3.1333	79.71	-0.251	-0.0688	0.1822	1170.4971	0.122247	-434.000253	-433.991508	-433.990564	-434.035418	31.011	
C	 0.0911938299	 1.4223110517	 0.1545957219	-0.340961
N	-0.019540126	-0.0194765506	 0.1708032994	-0.289251
C	-1.1384557072	-0.6164587296	-0.0156114532	 0.171847
C	-2.4579861265	-0.04688002	-0.2672845228	 0.002526
N	-3.5295298872	-0.7347821829	-0.4429393784	-0.056814
O	-3.4441115668	-2.1026697976	-0.3934413083	-0.229048
N	-2.2453606979	-2.7731206942	-0.160889418	-0.14007
C	-1.1707460197	-2.0850228383	 0.0153371937	 0.356563
C	 0.0903847808	-2.8542934903	 0.2616028276	-0.458174
H	 0.8217374491	 1.707085154	-0.6118877186	 0.142555
H	-0.8324616263	 1.9860210229	-0.0278039151	 0.112489
H	 0.5074823241	 1.7506989454	 1.114385416	 0.142562
H	-2.6169915008	 1.0241577423	-0.3225534378	 0.141803
H	-0.116144293	-3.9248859993	 0.2512851738	 0.143286
H	 0.8344706035	-2.6065534782	-0.501264908	 0.150344
H	 0.524173544	-2.5632977152	 1.2229301077	 0.150343
14.581	79.6657	167.7815	200.2347	225.893	293.2339	329.231	456.0571	486.5477	510.1185	513.817	608.0682	725.678	758.3667	814.0164	880.28	903.8911	926.3765	1027.6076	1054.4789	1086.6247	1116.8074	1144.9964	1195.4831	1342.9034	1385.4916	1414.0383	1437.1919	1461.723	1464.203	1477.5237	1498.0888	1621.8172	1658.6202	1706.0563	3007.9756	3052.2275	3072.6233	3075.0028	3111.4461	3156.7745	3196.5156
CN=C1C=NON=C1C	CN=c1cnonc1C	
InChI=1S/C5H7N3O/c1-4-5(6-2)3-7-9-8-4/h3H,1-2H3	InChI=1S/C5H7N3O/c1-4-5(6-2)3-7-9-8-4/h3H,1-2H3
