18
gdb 110091	1.66215	1.60581	1.08122	2.8688	76.01	-0.2466	-0.0637	0.1829	1207.2513	0.144587	-439.06529	-439.055681	-439.054737	-439.100284	33.678	
C	-1.3000700313	-2.0352812497	 0.1750123417	-0.380672
C	-0.2565824323	-2.9222732477	-0.4978542035	-0.148336
N	 0.6308822281	-2.0939571773	-1.3307272679	-0.094715
C	 1.7283651295	-1.328890515	-0.7722892285	-0.114402
C	 2.1287073433	-1.369516158	 0.6700467688	 0.139599
O	 2.5734020033	-0.3909776681	 1.2211303896	-0.259434
C	 1.9708105705	-2.5203197676	-1.702865996	-0.11604
C	 2.6198509146	-3.772537244	-1.2103704311	 0.149048
O	 2.4274245193	-4.3086845813	-0.1436088038	-0.267029
H	-0.8379866934	-1.347934474	 0.8913880133	 0.12882
H	-1.8402952183	-1.4396376103	-0.5658844946	 0.131536
H	-2.0200082008	-2.6516183763	 0.7208933693	 0.123905
H	 0.2765252064	-3.5319874517	 0.2373577242	 0.13859
H	-0.7470369283	-3.6157568393	-1.18999418	 0.113792
H	 1.8724478245	-0.3428085011	-1.2100079844	 0.123212
H	 1.9963589992	-2.3294034788	 1.1984168022	 0.122224
H	 2.2460791742	-2.2727469094	-2.7271213188	 0.113579
H	 3.3241214216	-4.2149805303	-1.9484916104	 0.096321
64.9106	94.6882	126.3027	144.8731	205.5807	210.7444	268.5141	271.2515	342.6563	419.156	447.6261	531.1286	684.0966	785.0101	810.2584	821.8592	923.1166	937.9186	974.4756	1020.4193	1047.5402	1070.6062	1111.7698	1131.1861	1160.2997	1184.0121	1297.8306	1315.9927	1336.0591	1378.2751	1386.663	1414.3094	1431.9941	1442.1996	1490.458	1500.6123	1527.4851	1797.7883	1804.2916	2894.6155	2989.6351	3041.5122	3046.4389	3085.8202	3112.5552	3119.8738	3125.9272	3136.0901
CCN1C(C=O)C1C=O	CCN1[C@@H](C=O)[C@H]1C=O	
InChI=1S/C6H9NO2/c1-2-7-5(3-8)6(7)4-9/h3-6H,2H2,1H3	InChI=1S/C6H9NO2/c1-2-7-5(3-8)6(7)4-9/h3-6H,2H2,1H3/t5-,6+,7?
