16
gdb 125019	2.35693	1.85882	1.04646	3.3393	76.87	-0.2062	-0.0327	0.1735	1087.2012	0.126465	-434.125459	-434.117313	-434.116369	-434.15792	30.929	
C	 0.0534217755	 1.5452942181	 0.0160461096	-0.521886
C	 0.0132311649	 0.0408497561	 0.0040437563	 0.189153
C	-1.1782612997	-0.6449764343	 0.0355857383	 0.165474
N	-2.422700561	-0.0978580648	 0.1120812575	-0.577107
C	-1.1773684806	-2.1114215263	 0.0190586317	 0.405065
O	-2.2009977943	-2.7899914221	 0.0244164371	-0.419985
N	 0.0821468769	-2.660946276	-0.0121215075	-0.282214
N	 1.277634738	-2.0307133076	-0.0373618597	-0.239286
C	 1.2103974831	-0.7279754585	-0.0302832259	-0.041006
H	 1.0815018265	 1.9144077405	 0.041309095	 0.135427
H	-0.4259707828	 1.9724704164	-0.8749983091	 0.129745
H	-0.4705422399	 1.9516835539	 0.8900214704	 0.138042
H	-2.5728080776	 0.854499804	-0.1723891961	 0.258676
H	-3.1728711538	-0.7590825198	-0.0366252671	 0.274959
H	 0.130365647	-3.6705652374	-0.0278023169	 0.271522
H	 2.1709751679	-0.2217268522	-0.0505786736	 0.11342
116.1037	141.7956	205.7128	271.2424	285.9598	323.5651	356.4226	487.0026	523.8639	546.3548	559.6328	585.7506	615.6123	693.7727	730.9551	795.5613	871.9479	921.6648	955.5921	1017.1016	1056.2326	1142.7123	1202.4084	1283.1482	1325.2548	1380.9342	1404.0663	1420.3254	1450.227	1482.8988	1499.8927	1572.9879	1622.0206	1664.3153	1750.7149	3012.723	3060.8591	3117.5621	3175.746	3566.1316	3604.2563	3710.6704
CC1=C(N)C(=O)NN=C1	Cc1c(N)c(=O)[nH]nc1	
InChI=1S/C5H7N3O/c1-3-2-7-8-5(9)4(3)6/h2H,1H3,(H2,6,7)(H,8,9)	InChI=1S/C5H7N3O/c1-3-2-7-8-5(9)4(3)6/h2H,1H3,(H2,6,7)(H,8,9)
