21
gdb 122198	3.73393	0.79724	0.76457	3.1286	75.93	-0.2453	0.0702	0.3155	1597.4137	0.180462	-461.3316	-461.321598	-461.320653	-461.367467	35.827	
C	-0.0996834782	 1.4846672831	-0.0996268309	-0.387128
C	-0.0450225263	-0.0295471727	 0.0021159143	-0.029819
O	-1.3677956853	-0.5356445281	-0.0503121591	-0.268911
C	-1.450171561	-1.944401438	 0.0456245961	-0.123223
C	-2.9302122134	-2.2916633114	 0.0872828199	 0.345709
O	-3.5642575096	-1.6154386033	 1.1399509681	-0.478387
C	-3.6254047576	-2.2759867371	-1.3008761572	-0.122621
O	-3.5851980461	-3.7192624393	-1.3582782421	-0.276366
C	-3.2214246329	-3.8014523201	 0.0348654835	-0.120514
H	 0.9102213866	 1.9035666121	-0.0653388156	 0.120898
H	-0.5706918438	 1.7899982619	-1.0381278202	 0.13063
H	-0.6771580404	 1.906585915	 0.7280238	 0.126273
H	 0.5487215859	-0.4535198767	-0.823633401	 0.094541
H	 0.4388240516	-0.3413182271	 0.9422841433	 0.093053
H	-0.9602906446	-2.4327622035	-0.8108602172	 0.103334
H	-0.9611199917	-2.2965988458	 0.9690940901	 0.093991
H	-3.1714710647	-0.7329314968	 1.1639546342	 0.286239
H	-4.651640872	-1.8915642655	-1.2462066574	 0.101364
H	-3.0937487983	-1.8107869334	-2.1377575474	 0.102463
H	-2.3850805244	-4.4895461529	 0.2080298228	 0.099079
H	-4.0678373438	-4.0801996705	 0.6755164058	 0.109393
51.6613	73.0262	103.6034	122.4145	167.1888	249.7103	267.074	314.0749	355.4456	421.4127	442.3028	480.5545	510.2257	714.9993	820.7042	838.6005	896.1251	920.3528	952.0441	976.3899	1004.0526	1022.5941	1038.1382	1094.4509	1143.1723	1147.685	1158.3428	1165.2347	1175.0455	1196.8423	1259.6171	1293.1386	1297.968	1300.9484	1342.9363	1380.4999	1404.7089	1434.3519	1449.8719	1484.3142	1498.3438	1499.9886	1508.3255	1529.0923	1533.9819	2961.7319	2971.7648	2995.5542	3010.1431	3011.0018	3022.7502	3046.1276	3063.3335	3078.2615	3120.6572	3123.3018	3767.3829
CCOCC1(O)COC1	CCOCC1(O)COC1	
InChI=1S/C6H12O3/c1-2-8-3-6(7)4-9-5-6/h7H,2-5H2,1H3	InChI=1S/C6H12O3/c1-2-8-3-6(7)4-9-5-6/h7H,2-5H2,1H3
