22
gdb 113592	4.09844	0.91311	0.8361	2.5234	82.16	-0.2409	0.0724	0.3134	1449.9002	0.196079	-404.336658	-404.327657	-404.326713	-404.371239	34.281	
O	-0.0930209244	 1.2365999628	-0.9621768652	-0.422123
C	 0.0009354448	 0.2723834357	 0.0734336251	-0.064309
C	-1.3205004329	-0.4320413687	 0.2758986463	-0.113704
N	-1.7102960129	-1.3077662661	-0.8535991797	-0.388622
C	-1.4623110259	-1.8936913993	 0.4830083049	 0.352936
C	-0.2983356534	-2.8948428947	 0.5924183812	-0.267345
C	-0.8803832415	-4.1217034331	 1.3417325434	-0.207805
C	-2.4071708773	-3.9897387474	 1.1895856377	-0.204385
C	-2.628027205	-2.471984197	 1.2841419218	-0.281322
H	-0.4301904819	 0.7571590167	-1.7288188633	 0.288502
H	 0.7875908677	-0.465355642	-0.1412763404	 0.088144
H	 0.2904136287	 0.8162911846	 0.9791001126	 0.103739
H	-2.1027999917	 0.199405858	 0.6968333285	 0.081705
H	-2.7108633737	-1.2321419371	-1.0225284251	 0.224928
H	 0.0366650069	-3.1577403338	-0.4142870654	 0.116298
H	 0.563003775	-2.4753620012	 1.1202878952	 0.102923
H	-0.4927766929	-5.0694796646	 0.9593953948	 0.098939
H	-0.6155554192	-4.072666371	 2.4042871146	 0.099489
H	-2.7217451854	-4.3504489428	 0.2028284387	 0.10268
H	-2.9642699293	-4.5558354353	 1.9409706604	 0.095229
H	-2.5535877169	-2.1534916935	 2.3324713136	 0.104233
H	-3.6014854785	-2.1362298103	 0.9120724002	 0.089868
40.0512	73.4249	143.1205	175.4859	246.0254	315.8097	394.6705	423.6775	449.7135	478.9765	558.3665	621.9483	720.6557	796.9354	841.2816	863.0618	877.1166	908.4129	936.3454	962.4677	987.1547	990.4498	1032.3058	1035.8125	1063.4023	1077.2494	1092.7091	1171.6671	1185.1161	1189.2602	1237.2289	1252.0983	1264.5813	1283.7237	1297.2497	1321.7618	1336.8811	1342.4176	1362.8166	1377.5452	1425.5276	1473.9659	1483.5158	1485.8397	1491.6107	1499.2099	1510.4274	2999.529	3018.8655	3034.249	3039.768	3058.7922	3070.7201	3074.978	3088.3379	3095.5634	3107.6118	3110.2047	3486.4094	3784.503
OCC1NC11CCCC1	OC[C@H]1NC21CCCC2	
InChI=1S/C7H13NO/c9-5-6-7(8-6)3-1-2-4-7/h6,8-9H,1-5H2	InChI=1S/C7H13NO/c9-5-6-7(8-6)3-1-2-4-7/h6,8-9H,1-5H2/t6-/m1/s1
