16
gdb 11662	3.07287	1.9904	1.55008	2.6324	65.36	-0.2517	-0.0079	0.2438	874.3364	0.128962	-383.691256	-383.683653	-383.682708	-383.723341	28.051	
C	-0.0274326609	 1.5282707877	 0.0201139207	-0.389822
C	-0.0142398231	-0.0058227965	 0.034321162	-0.326419
C	-1.3856390084	-0.5868591663	-0.0999283624	 0.29274
C	-1.8958006555	-2.0505990673	-0.0028523157	-0.278117
C	-3.1609846905	-1.1650037689	 0.0312449939	-0.068966
O	-2.4315556356	-0.2245770867	 0.9203780302	-0.335155
C	-2.5432676323	-0.3175794713	-1.1104989144	 0.441903
O	-2.8142539641	 0.3011482782	-2.0866848787	-0.318522
H	 0.9858881659	 1.924332773	 0.1275430691	 0.115979
H	-0.4463586242	 1.9054800592	-0.9171715907	 0.142147
H	-0.6368467793	 1.9153777583	 0.8410032393	 0.140029
H	 0.59144076	-0.3927508971	-0.794643692	 0.118623
H	 0.4425770888	-0.3801177141	 0.9583765045	 0.117186
H	-1.739520001	-2.7207489692	-0.8525222984	 0.112876
H	-1.6761854229	-2.5133478135	 0.9609935816	 0.120208
H	-4.1862736068	-1.4134214655	 0.2941288511	 0.115309
76.6689	146.9832	187.1577	197.4345	273.7787	405.1151	459.6345	520.6639	648.8294	650.1163	772.7725	797.4203	813.4905	832.2759	903.7733	932.9227	974.7677	995.2551	1037.6604	1048.5993	1103.3034	1158.255	1186.9005	1204.125	1214.2821	1289.1475	1320.9987	1396.0054	1414.2986	1470.9766	1476.7466	1497.7301	1509.7096	1926.7794	3030.8103	3048.5423	3062.15	3066.0616	3121.9992	3126.6896	3145.5825	3161.5635
CCC12CC(O1)C2=O	CC[C@@]12C[C@@H](O1)C2=O	
InChI=1S/C6H8O2/c1-2-6-3-4(8-6)5(6)7/h4H,2-3H2,1H3	InChI=1S/C6H8O2/c1-2-6-3-4(8-6)5(6)7/h4H,2-3H2,1H3/t4-,6+/m1/s1
