19
gdb 27244	3.10707	1.50257	1.03966	1.5401	84.21	-0.1661	0.0502	0.2163	1154.1878	0.162282	-382.106828	-382.098549	-382.097605	-382.139664	31.717	
C	 0.0894106286	 1.5172141639	 0.0864171338	-0.501504
C	 0.0410627128	 0.0306725279	-0.0492426929	 0.137441
C	-0.0596926778	-0.7889407231	-1.1479111425	 0.222388
C	-0.2255229516	-0.7736102598	-2.6418552475	-0.359077
C	 0.1016992315	-2.257348645	-2.9896526416	-0.16039
N	-0.2495425731	-3.0317342957	-1.7714006763	-0.409313
C	-0.0707507016	-2.1339077664	-0.6998153159	 0.266747
C	 0.0291741582	-2.1433969374	 0.6665020627	-0.247323
N	 0.0906648123	-0.8037077039	 1.0479624723	-0.306512
H	 0.9652937606	 1.8527439536	 0.6562384686	 0.120719
H	 0.1440982179	 1.980067345	-0.9017922637	 0.132666
H	-0.7993589596	 1.9201835483	 0.5892157103	 0.126712
H	-1.2555337265	-0.5301397145	-2.9351701753	 0.108642
H	 0.4348078504	-0.0858003041	-3.1788693635	 0.102005
H	-0.4620564697	-2.6233131109	-3.8527006112	 0.099361
H	 1.1744805212	-2.3441933081	-3.2217086068	 0.090881
H	 0.2643697232	-3.9001050437	-1.6950591343	 0.224165
H	 0.0672136149	-2.9332618239	 1.3975525839	 0.104255
H	 0.2426168482	-0.4907767222	 1.9903377199	 0.248137
72.8556	153.8888	184.0533	241.3331	244.5606	289.6436	392.3761	504.1182	565.1043	583.3799	612.6204	637.9269	676.8569	704.6708	766.7681	824.6177	879.4569	939.051	971.2219	1033.05	1054.9884	1069.309	1080.8386	1098.9681	1172.5547	1192.5341	1229.402	1257.7953	1311.2853	1313.8165	1325.6386	1406.3174	1414.5982	1454.6557	1474.0401	1480.8771	1491.7431	1504.3522	1515.4116	1597.9501	1677.2568	2977.1792	3010.9662	3012.182	3054.7638	3070.0449	3078.4814	3118.084	3268.8602	3557.0702	3684.0133
CC1=C2CCNC2=CN1	Cc1c2CCNc2c[nH]1	
InChI=1S/C7H10N2/c1-5-6-2-3-8-7(6)4-9-5/h4,8-9H,2-3H2,1H3	InChI=1S/C7H10N2/c1-5-6-2-3-8-7(6)4-9-5/h4,8-9H,2-3H2,1H3
