17
gdb 44985	3.60822	1.18631	1.02744	2.2763	79.34	-0.245	-0.0239	0.2211	1164.7501	0.135082	-384.680557	-384.672536	-384.671592	-384.71313	31.383	
O	 0.0098703485	 0.0388169761	-0.2933498247	-0.298622
C	-0.0036094881	 1.1977474087	 0.0245917118	 0.379422
C	-1.265433379	 2.0519362205	 0.2332752239	-0.336202
C	-0.8037938972	 3.2830815658	 0.9806665097	-0.08021
C	-0.0590901798	 3.0698888324	 2.2660620729	-0.321862
C	 0.7364887167	 3.3124802334	 0.9917182373	 0.166572
C	 1.2395299684	 2.0631959371	 0.2798253017	-0.393522
C	 1.4591116126	 4.5387491164	 0.837559479	 0.17397
C	 2.0785730695	 5.560606991	 0.6961526038	-0.391706
H	-1.6668291695	 2.3102019248	-0.7550609821	 0.136546
H	-2.0322346269	 1.4651868856	 0.7481452225	 0.135476
H	-1.3398488045	 4.2146157076	 0.848629503	 0.107398
H	-0.0675209809	 3.8727299665	 2.9931999073	 0.132221
H	-0.02956164	 2.0722884436	 2.6969558115	 0.121916
H	 1.9897097985	 1.4964604105	 0.838323066	 0.137503
H	 1.6836724719	 2.3214458074	-0.6890365938	 0.142328
H	 2.6230378697	 6.4640766828	 0.5753413401	 0.188772
78.1305	138.02	157.57	294.1207	372.9315	430.9341	460.6411	482.2939	532.3711	552.2361	586.8021	622.8232	650.5308	696.2684	777.5704	809.3648	828.9372	894.9703	939.5728	954.5267	1031.6372	1059.7508	1071.5256	1089.7072	1143.111	1162.7958	1203.7759	1228.487	1262.564	1286.7972	1312.2716	1391.0494	1450.2598	1455.8569	1488.9567	1850.7039	2236.0348	3037.028	3046.7684	3088.5881	3097.9149	3122.2632	3190.3162	3223.0832	3502.4514
O=C1CC2CC2(C1)C#C	O=C1C[C@H]2C[C@]2(C1)C#C	
InChI=1S/C8H8O/c1-2-8-4-6(8)3-7(9)5-8/h1,6H,3-5H2	InChI=1S/C8H8O/c1-2-8-4-6(8)3-7(9)5-8/h1,6H,3-5H2/t6-,8-/m0/s1
