19
gdb 45523	2.94684	1.46834	1.12992	2.9105	81.13	-0.2254	-0.0161	0.2093	1107.0537	0.160962	-385.917653	-385.910096	-385.909152	-385.949856	30.028	
O	-0.1238882267	-0.0510467623	-0.2536364777	-0.292454
C	-0.104882248	 1.1284308503	-0.0635256198	 0.385295
C	-1.1860624266	 2.1969211537	 0.1834216622	-0.364675
C	-0.0617092459	 3.1254878982	 0.7382100783	-0.024593
C	 0.0159975333	 3.1721194429	 2.2670882133	-0.210567
C	 1.4462635726	 3.4442983009	 2.7597245964	-0.259397
C	 2.4263452475	 2.4672520605	 2.1554299414	-0.053128
C	 2.2200490683	 1.8663993769	 0.9830278693	-0.070703
C	 1.0245033678	 2.172351106	 0.1410857918	-0.149804
H	-1.6137325463	 2.5449358611	-0.7628552947	 0.128347
H	-2.0030523923	 1.9194185531	 0.854783741	 0.126355
H	-0.0493803985	 4.1339848208	 0.3190905215	 0.072223
H	-0.6824758065	 3.9190975329	 2.65990249	 0.09721
H	-0.300866992	 2.2017809949	 2.6714007566	 0.105178
H	 1.7437605007	 4.4762409044	 2.5200777215	 0.109631
H	 1.4809481504	 3.374889469	 3.8529740851	 0.104849
H	 3.3284469094	 2.2483659503	 2.7207790548	 0.090469
H	 2.9324959507	 1.1443594256	 0.5939620461	 0.098574
H	 1.3327827721	 2.5099899508	-0.8590469672	 0.10719
69.8395	154.5779	209.0779	332.6655	386.6332	416.8709	457.0888	486.2515	559.1078	696.3727	701.3053	717.0758	760.0758	789.3865	882.0025	913.7014	934.8622	980.2778	986.7318	998.705	1040.6521	1049.4766	1063.5008	1072.3566	1122.7391	1148.5062	1195.0284	1222.9114	1232.7921	1250.8097	1272.6582	1317.2575	1337.109	1359.3505	1389.4538	1410.5316	1442.1177	1478.6679	1490.7341	1710.7225	1891.3708	2997.97	3005.4256	3020.5796	3052.8747	3055.902	3063.8887	3085.6835	3111.1782	3152.9539	3176.1288
O=C1CC2CCC=CC12	O=C1C[C@H]2CCC=C[C@@H]12	
InChI=1S/C8H10O/c9-8-5-6-3-1-2-4-7(6)8/h2,4,6-7H,1,3,5H2	InChI=1S/C8H10O/c9-8-5-6-3-1-2-4-7(6)8/h2,4,6-7H,1,3,5H2/t6-,7-/m1/s1
