18
gdb 18034	3.93295	1.95672	1.40911	1.7981	73.82	-0.2336	0.0187	0.2524	894.7571	0.156395	-347.793032	-347.786371	-347.785427	-347.823628	26.519	
C	 0.0024948483	 1.4748944899	 0.118149188	-0.163588
O	 1.4414245903	 1.4425791374	-0.1131154002	-0.311064
C	 1.3531840509	 0.1013760914	-0.6776630955	 0.11079
C	 2.2318374166	-1.0160771677	-0.1403510309	-0.242282
C	 1.4874446114	-2.3258969042	-0.4911732688	-0.211227
C	 0.0840467312	-2.4381748239	 0.1579899012	-0.23052
C	-0.625654286	-1.1108465141	 0.3059372181	-0.206532
C	-0.0452978622	-0.0096501545	-0.1427242148	 0.24557
H	-0.2538034933	 1.8179472681	 1.1271751021	 0.115893
H	-0.5056542643	 2.1125498291	-0.6195339765	 0.103777
H	 1.4311241611	 0.1589181442	-1.7745998468	 0.075635
H	 3.2354803288	-1.0139430511	-0.5773877123	 0.097181
H	 2.3327245081	-0.9027092924	 0.9447818322	 0.105139
H	 1.385174778	-2.3793826432	-1.582631895	 0.1049
H	 2.0896290024	-3.1918390014	-0.1997920464	 0.100483
H	-0.5258065477	-3.1543001888	-0.4082324444	 0.107802
H	 0.1771609204	-2.8731553575	 1.1637929378	 0.110542
H	-1.554045534	-1.0876444212	 0.8717651122	 0.0875
144.5651	224.4073	265.4968	321.6622	379.4023	453.8066	514.6161	619.1609	754.082	796.8433	801.1218	862.5912	872.5887	924.7824	953.0719	969.9941	987.9267	1029.7677	1071.2596	1083.6669	1105.9071	1113.3195	1140.6927	1162.8413	1204.9123	1259.21	1282.2332	1306.6586	1324.627	1353.4004	1364.8319	1379.2902	1391.2902	1476.1643	1491.4541	1497.8165	1512.6024	1793.2922	2975.1736	2996.656	3003.3211	3021.824	3038.3038	3041.4641	3056.8609	3079.9222	3090.8196	3153.9457
C1OC2CCCC=C12	C1O[C@H]2CCC[CH][C]12	
InChI=1S/C7H10O/c1-2-4-7-6(3-1)5-8-7/h3,7H,1-2,4-5H2	InChI=1S/C7H10O/c1-2-4-7-6(3-1)5-8-7/h3,7H,1-2,4-5H2/t7-/m0/s1
