19
gdb 113323	2.55752	1.05918	0.85036	5.3219	77.71	-0.2534	0.0111	0.2645	1419.9531	0.157881	-419.193662	-419.183559	-419.182615	-419.229221	35.82	
C	 0.4448306476	 1.4145665775	 0.2201608274	-0.380448
C	-0.2990172279	 0.1362650635	-0.1898123202	-0.22923
C	 0.3740754016	-0.5342444796	-1.3629022233	 0.035602
O	 1.566515792	-1.2877528142	-1.1190550323	-0.27882
C	 0.4199051731	-1.9952033098	-1.6200506602	 0.220511
C	-0.164402706	-3.0520267753	-0.7017820464	-0.242965
N	 0.7215621909	-4.2117177019	-0.6933417722	-0.500128
C	 0.5397966371	-2.4097451983	-3.0126671832	 0.283411
N	 0.5930754925	-2.7087372029	-4.1275048379	-0.336607
H	 1.4725662771	 1.1855338394	 0.516906894	 0.137695
H	 0.4849499358	 2.1323217421	-0.6058280305	 0.124599
H	-0.0537655585	 1.9005920071	 1.0631812314	 0.121554
H	-0.3527188165	-0.5488805534	 0.6599518691	 0.111824
H	-1.3300221371	 0.3772265745	-0.4778148119	 0.114821
H	 0.4454061919	 0.0941170115	-2.2534095403	 0.111211
H	-0.3394912065	-2.5999086092	 0.2841831003	 0.100204
H	-1.1374972749	-3.3601294455	-1.1010595934	 0.126579
H	 1.5937623075	-3.9738928321	-0.2312333964	 0.242949
H	 0.3028762404	-4.9739360135	-0.1721409839	 0.23724
60.4844	82.0231	131.551	139.3687	169.5094	218.0985	238.5299	280.6926	328.3925	374.6112	433.6163	494.9734	585.3447	646.3367	683.7894	758.7331	828.2381	850.0859	916.4906	950.1901	963.8098	1033.6359	1061.1075	1081.1211	1128.4834	1159.1473	1191.4351	1240.8554	1292.4593	1316.3597	1342.9419	1351.7892	1410.6713	1427.8309	1468.9835	1474.8994	1492.7031	1498.8208	1507.6163	1657.793	2359.6649	3003.3	3037.8439	3040.8429	3067.0739	3086.3688	3098.36	3116.8595	3120.7405	3506.4014	3590.779
CCC1OC1(CN)C#N	CC[C@H]1O[C@]1(CN)C#N	
InChI=1S/C6H10N2O/c1-2-5-6(3-7,4-8)9-5/h5H,2-3,7H2,1H3	InChI=1S/C6H10N2O/c1-2-5-6(3-7,4-8)9-5/h5H,2-3,7H2,1H3/t5-,6-/m1/s1
