18
gdb 40997	3.88931	1.55984	1.48097	0.4801	75.89	-0.2194	0.0484	0.2678	944.3806	0.149349	-401.792493	-401.78601	-401.785065	-401.82294	27.461	
C	-0.014093075	 1.5609552415	 0.1078898677	-0.163764
O	 1.4473761951	 1.5231410989	-0.2034718558	-0.374167
C	 1.1626769668	 0.2128979891	-0.7579104626	 0.384147
C	-0.0866814692	 0.0005582631	-0.0182795486	-0.047327
N	-0.2058806966	-1.0213087821	-1.225326118	-0.191136
C	 0.4168418	 0.0709163379	-2.1113302081	-0.012611
C	 1.2658231797	-0.6302478889	-3.1606108137	-0.248587
C	 1.9273438894	-1.720479227	-2.2725388968	-0.236483
C	 1.3173053378	-1.3465122203	-0.9345581025	-0.066328
H	-0.1829139238	 1.9303168817	 1.1219548113	 0.123362
H	-0.5488515245	 2.175961399	-0.6191902208	 0.123841
H	-0.0817995319	-0.5161595303	 0.9406144119	 0.090311
H	-0.2813044939	 0.8391476191	-2.4420199961	 0.07668
H	 0.6494059042	-1.0574277889	-3.9564555546	 0.112222
H	 1.9880290245	 0.0505466873	-3.619946771	 0.110708
H	 1.6502942812	-2.7347723166	-2.5710662927	 0.117232
H	 3.0186327052	-1.661091019	-2.2466113702	 0.113591
H	 1.4884506411	-1.9680876344	-0.0558906393	 0.088309
205.0119	250.0119	285.6311	350.1934	464.2754	498.181	610.8139	638.6462	713.8899	760.0098	779.6994	825.2685	828.9929	858.7551	911.9027	934.3333	946.5087	976.8878	1006.3048	1025.5535	1036.7566	1053.4443	1077.6191	1102.5068	1128.1402	1132.8218	1138.9061	1234.2823	1243.1072	1256.703	1262.1802	1285.8312	1318.0551	1320.1739	1344.7644	1383.0609	1477.5854	1491.7944	1499.1781	3057.6351	3062.5843	3067.3199	3096.1838	3110.0874	3114.9402	3123.5257	3132.3159	3134.2695
C1OC23C1N1C2CCC31	C1O[C@@]23[C@@H]1N1[C@@H]2CC[C@@H]31	
InChI=1S/C7H9NO/c1-2-5-7-4(1)8(5)6(7)3-9-7/h4-6H,1-3H2	InChI=1S/C7H9NO/c1-2-5-7-4(1)8(5)6(7)3-9-7/h4-6H,1-3H2/t4-,5+,6-,7+/m1/s1
