16
gdb 110760	2.52578	1.44993	1.18768	3.6168	65.67	-0.2443	-0.0004	0.2439	1089.5194	0.122916	-474.990903	-474.982235	-474.981291	-475.024478	31.396	
C	 0.258382089	 0.939819508	 0.4538743475	-0.240176
O	-0.4133074916	 0.0438013566	-0.4189777579	-0.2298
C	 0.426270824	-0.545546995	-1.3432601159	 0.073588
C	 1.390855739	-1.6278907231	-0.988980294	-0.003693
O	 0.875026387	-2.3761983107	 0.1386270713	-0.260843
C	-0.230099279	-2.7827418265	-0.6032669653	 0.421735
O	-1.0527295598	-3.580982698	-0.3002445269	-0.325662
C	 0.1448083364	-1.9579671393	-1.828055065	 0.049596
N	-0.0375524004	-2.2520148752	-3.1967376185	-0.603958
H	 1.0239250417	 0.4184285918	 1.0424126596	 0.128901
H	 0.7317349726	 1.7632578738	-0.1001859593	 0.109575
H	-0.4980427181	 1.3502239987	 1.1251456665	 0.138262
H	 0.7668091146	 0.1029831289	-2.1551570286	 0.109977
H	 2.4470419821	-1.7068531356	-1.2036009963	 0.132394
H	 0.0371609229	-3.2473053156	-3.3780381931	 0.248692
H	-0.9476145804	-1.942569019	-3.5220449741	 0.251413
73.1255	117.4672	170.296	193.5475	253.9177	265.2852	302.3238	325.7292	450.4485	522.9389	651.6822	686.1124	737.1385	759.6022	794.3971	860.7343	911.7479	927.1735	996.1549	1017.3182	1044.0292	1061.6418	1159.6747	1179.5739	1202.95	1248.0445	1259.7877	1293.0221	1342.3644	1460.0075	1487.6594	1496.3944	1504.8181	1663.9781	1945.0043	2995.9489	3059.3086	3079.0804	3133.8341	3227.259	3507.3801	3585.1953
COC1C2OC(=O)C12N	CO[C@H]1[C@H]2OC(=O)[C@@]12N	
InChI=1S/C5H7NO3/c1-8-2-3-5(2,6)4(7)9-3/h2-3H,6H2,1H3	InChI=1S/C5H7NO3/c1-8-2-3-5(2,6)4(7)9-3/h2-3H,6H2,1H3/t2-,3+,5+/m0/s1
