18
gdb 39568	3.46727	1.53703	1.11855	2.2819	76.7	-0.2396	0.0139	0.2535	1057.2805	0.151299	-401.961967	-401.955117	-401.954173	-401.993137	27.646	
C	-0.0264677182	 1.5904308473	-0.000184834	-0.322113
C	 1.471593176	 1.867454224	-0.074034319	-0.061736
C	 2.1930615692	 0.8419561658	 0.3848008541	-0.121549
C	 1.2683991605	-0.2332351361	 0.9092045402	 0.050561
N	 1.6351253784	-1.6394660934	 0.8175140068	-0.296397
C	 0.6328626618	-2.4169767261	 0.8117889562	 0.133744
O	-0.6954637783	-2.131922811	 0.8620080116	-0.244332
C	-1.1307219462	-0.7496728391	 0.7486382654	-0.112845
C	-0.0179161335	 0.0580503306	 0.1213602838	 0.016695
H	-0.4695509294	 2.069569802	 0.8865341071	 0.107198
H	-0.5803102388	 1.9570755116	-0.8705245182	 0.106507
H	 1.8704339004	 2.8119028857	-0.4260943638	 0.096956
H	 3.2716501573	 0.7957923357	 0.4713854984	 0.104258
H	 1.0944122314	-0.015806606	 1.9795286317	 0.090555
H	 0.7623974142	-3.4965935082	 0.7661086789	 0.12308
H	-2.0442062648	-0.7808002006	 0.1476051439	 0.117671
H	-1.3877526347	-0.3906886281	 1.7525547408	 0.113275
H	 0.1550563847	-0.3417496242	-0.8868425239	 0.098472
131.4899	192.109	279.3672	362.1438	416.73	456.2452	487.9922	565.0859	604.4034	724.2819	773.3101	821.3032	870.3632	896.5465	930.1913	945.6955	964.0714	965.2227	1018.6674	1062.519	1103.3914	1111.8497	1128.4531	1133.2517	1180.2888	1189.2785	1224.4836	1286.4654	1291.7811	1329.3956	1341.02	1361.8799	1375.8864	1404.1624	1420.9904	1488.823	1516.3961	1657.9495	1698.714	2921.6966	2994.4309	3018.9213	3035.4395	3067.8824	3087.5481	3162.1922	3192.2848	3219.9
C1C=CC2N=COCC12	C1C=C[C@@H]2[N][CH]OC[C@@H]12	
InChI=1S/C7H9NO/c1-2-6-4-9-5-8-7(6)3-1/h1,3,5-7H,2,4H2	InChI=1S/C7H9NO/c1-2-6-4-9-5-8-7(6)3-1/h1,3,5-7H,2,4H2/t6-,7+/m1/s1
