21
gdb 102314	2.45244	0.93231	0.78491	1.0047	82.13	-0.2551	0.0414	0.2965	1560.1631	0.178252	-424.181338	-424.170189	-424.169245	-424.21793	39.854	
C	-0.0034198497	 1.411024183	 0.2436980238	-0.237099
O	-0.0094594103	 0.0561404711	-0.1537396944	-0.236033
C	-1.2838207486	-0.567317064	-0.0542479841	-0.085977
C	-1.1822473056	-1.9207814152	-0.7707280915	-0.190171
C	-0.9132563074	-1.7712890118	-2.2669860326	 0.119964
C	-0.7173667771	-3.1236787352	-2.9515596793	-0.406265
O	-2.0410046997	-1.0784281414	-2.8077779713	-0.438579
C	-1.7051423322	-0.7293832935	 1.3439866315	 0.340549
C	-2.04374025	-0.8692667418	 2.4891756532	-0.460667
H	 1.0131343397	 1.7823820665	 0.0938809715	 0.124594
H	-0.6973484538	 2.0128295755	-0.3632733697	 0.105314
H	-0.2757015374	 1.5261847249	 1.301635341	 0.119113
H	-2.0319654514	 0.0440856087	-0.5820166221	 0.112648
H	-0.3804214576	-2.5014246537	-0.3044593624	 0.112573
H	-2.1211785016	-2.4655903203	-0.6271067905	 0.114123
H	-0.0064091669	-1.1626549032	-2.3914322692	 0.08536
H	 0.1458322934	-3.6545037397	-2.5368354554	 0.117307
H	-1.6068217797	-3.7495999145	-2.8264799452	 0.122831
H	-0.5421790241	-2.9928642332	-4.0255498728	 0.103158
H	-1.8557004668	-0.8839023431	-3.7314338052	 0.28196
H	-2.3474415433	-0.9891267592	 3.4998030646	 0.195299
52.2142	89.5119	100.7251	124.1736	172.4186	221.2873	241.243	261.2543	272.275	300.4708	317.5495	409.8871	464.3977	494.2326	565.7955	586.4802	621.2965	670.7116	814.7683	857.9312	943.4644	948.4013	986.1684	1055.1204	1081.142	1124.4107	1133.3609	1148.4473	1184.8493	1191.6896	1244.1186	1278.5278	1314.1927	1353.143	1371.5626	1393.4745	1406.9117	1426.6868	1458.7187	1478.9162	1485.2795	1492.4978	1499.0038	1511.5692	2229.0658	2983.1453	2993.1462	3007.8454	3027.7734	3042.9689	3054.3139	3094.5326	3103.2774	3112.7956	3117.2016	3502.7105	3824.7142
COC(CC(C)O)C#C	CO[C@@H](C[C@@H](C)O)C#C	
InChI=1S/C7H12O2/c1-4-7(9-3)5-6(2)8/h1,6-8H,5H2,2-3H3	InChI=1S/C7H12O2/c1-4-7(9-3)5-6(2)8/h1,6-8H,5H2,2-3H3/t6-,7-/m1/s1
