14
gdb 125129	3.41456	1.14341	0.86852	1.9586	68.78	-0.2522	-0.0493	0.2029	1252.6625	0.09939	-469.978215	-469.96984	-469.968896	-470.012449	28.742	
C	 0.0228432349	 1.4999310695	-0.0435717804	-0.499081
C	-0.052565201	 0.0266830911	 0.1013991376	 0.30307
C	-1.090277514	-0.8481218635	 0.2289903933	 0.273391
O	-2.4052582217	-0.542807137	 0.2972506054	-0.220347
C	-3.3141626145	-1.478814143	-0.1245190341	 0.109691
N	-4.5355607694	-1.2100463294	-0.0094389851	-0.425267
N	-0.5757172943	-2.1092682756	 0.3365340126	-0.19443
N	 0.6873047767	-2.0645545832	 0.2761503703	-0.011468
O	 1.0670454951	-0.7066533439	 0.1347419133	-0.202146
H	 0.5583503192	 1.7767720723	-0.9570285365	 0.159322
H	-0.9872369402	 1.9116647131	-0.0865226444	 0.164527
H	 0.5498297516	 1.9518533369	 0.8029419324	 0.161236
H	-2.8461684373	-2.3815539203	-0.5232637371	 0.138454
H	-5.0974372953	-1.9804911469	-0.3659883675	 0.243048
52.7316	92.4382	113.4799	151.8944	239.7213	263.6866	373.044	472.0116	502.0882	665.1403	673.8955	722.4391	729.1891	824.2955	837.8474	992.9257	1028.6711	1040.6076	1047.7694	1066.7248	1194.1107	1257.3664	1284.2194	1396.5472	1410.6964	1429.2224	1445.6872	1476.0178	1484.1995	1676.6881	1756.6628	3044.7496	3103.9588	3109.4518	3142.732	3524.1362
CC1=C(OC=N)N=NO1	Cc1c(O[CH][NH])nno1	
InChI=1S/C4H5N3O2/c1-3-4(8-2-5)6-7-9-3/h2,5H,1H3	InChI=1S/C4H5N3O2/c1-3-4(8-2-5)6-7-9-3/h2,5H,1H3
