18
gdb 70396	2.39127	1.52649	1.33796	2.4124	75.8	-0.2687	0.0278	0.2966	1054.4665	0.145809	-401.938469	-401.929585	-401.928641	-401.971557	33.413	
C	-0.1479023483	 1.5317683967	 0.0995818707	-0.517295
C	 0.121121605	 0.0651775161	 0.0434433164	 0.397422
O	-0.7450746574	-0.8318318855	 0.7376870067	-0.289746
C	 0.6678825584	-0.9149336304	 0.9954231674	-0.02831
C	 1.2717687728	-1.7805790302	-0.1104722126	-0.300755
C	 0.6806913133	-0.7610273145	-1.1728282474	 0.087105
C	-0.3647417664	-1.3011456429	-2.1514780952	-0.458343
C	 1.7428297389	-0.0396405251	-1.8642975124	 0.24313
N	 2.5781685141	 0.5511045051	-2.4040870747	-0.349726
H	 0.7138350861	 2.0970208901	-0.2661146376	 0.152649
H	-1.0130731674	 1.7908384499	-0.5208102345	 0.137663
H	-0.3636158776	 1.8352213063	 1.12714654	 0.14034
H	 0.9896313229	-0.7969547895	 2.0234019541	 0.114127
H	 2.3625721714	-1.8000345726	-0.1115627315	 0.134551
H	 0.8783280188	-2.7972150949	-0.1780962171	 0.122328
H	-1.1689165082	-1.7735850974	-1.5839873333	 0.145741
H	-0.785601944	-0.4975538344	-2.7628380868	 0.134076
H	 0.0783601976	-2.0412096368	-2.8237699221	 0.135044
123.9497	133.0534	187.8269	206.4634	225.9332	242.0598	311.7141	347.6669	445.1074	481.9514	540.6559	556.4748	640.1832	663.4381	768.656	846.224	872.2912	916.8704	926.6166	970.8131	995.1568	1047.1346	1095.5929	1115.8465	1128.7488	1168.2266	1198.2111	1256.483	1266.8535	1272.4073	1402.9757	1406.8968	1457.5092	1474.3042	1482.7915	1492.1769	1495.7969	1499.5441	2346.5552	3040.2786	3047.3594	3075.5351	3107.1787	3117.073	3130.2517	3139.4817	3141.1415	3193.2648
CC12OC1CC2(C)C#N	C[C@]12O[C@H]1C[C@]2(C)C#N	
InChI=1S/C7H9NO/c1-6(4-8)3-5-7(6,2)9-5/h5H,3H2,1-2H3	InChI=1S/C7H9NO/c1-6(4-8)3-5-7(6,2)9-5/h5H,3H2,1-2H3/t5-,6+,7-/m0/s1
