18
gdb 30928	2.43007	1.31339	0.90539	2.5826	77.74	-0.189	0.0277	0.2167	1290.6624	0.148281	-435.292559	-435.283205	-435.282261	-435.326789	34.181	
C	 0.1561410327	 1.4951636782	-0.0083435407	-0.493719
C	-0.0575469056	 0.028753784	-0.0108472807	 0.255436
C	-1.1437898995	-0.7600162922	 0.0163130712	 0.192699
C	-2.6054384126	-0.4399670752	 0.0153770994	-0.282874
N	-3.3275674533	-0.7142096113	-1.2371666239	-0.48804
N	-0.6726001733	-2.0817026691	-0.0619041881	-0.388803
C	 0.7063099605	-2.0902505303	-0.0519099948	 0.451134
N	 1.4580441889	-3.110306321	-0.0349611058	-0.60669
O	 1.0885627544	-0.7638978057	-0.0668379849	-0.249578
H	 0.6781081998	 1.8242848206	-0.9146585359	 0.141169
H	-0.7999453171	 2.0205098776	 0.0452760756	 0.135312
H	 0.7661286439	 1.8047487063	 0.8482890779	 0.143125
H	-3.1091143642	-0.9987276243	 0.8149408113	 0.117798
H	-2.7320323071	 0.6191425815	 0.2585300212	 0.124874
H	-2.863967995	-0.226767024	-1.9996463167	 0.229536
H	-3.2553580462	-1.7020808877	-1.4649232366	 0.229271
H	-1.1951348328	-2.9093966763	 0.1662980294	 0.266663
H	 2.4359865867	-2.8337802409	-0.024596508	 0.222688
76.6039	115.5818	162.4026	183.689	209.6746	229.5188	278.8325	308.9105	387.598	432.8039	520.5823	606.8626	631.1433	689.4331	716.1305	753.9726	810.6054	879.7001	906.4074	940.9476	989.9957	1062.6197	1066.1891	1089.4314	1109.9459	1176.4655	1249.276	1271.5633	1349.8952	1371.4475	1390.8814	1420.3964	1430.8473	1467.2338	1476.2683	1494.7577	1669.1002	1751.0301	1794.6545	3026.2123	3027.9222	3075.2242	3087.5574	3128.6633	3484.4289	3541.5735	3559.8582	3683.0298
CC1=C(CN)NC(=N)O1	CC1=C(CN)N[C@@H]([NH])O1	
InChI=1S/C5H9N3O/c1-3-4(2-6)8-5(7)9-3/h2,6H2,1H3,(H2,7,8)	InChI=1S/C5H10N3O/c1-3-4(2-6)8-5(7)9-3/h5,7-8H,2,6H2,1H3/t5-/m1/s1
