13
gdb 15288	5.02426	1.1379	0.99769	4.3996	63.42	-0.2993	-0.007	0.2923	1092.3067	0.096056	-357.638969	-357.631406	-357.630461	-357.671708	26.275	
N	 0.0519506651	-1.0789191068	-0.5427630574	-0.294501
C	 0.0134218125	 0.0223826159	-0.1966348626	 0.26384
C	-0.0033497718	 1.4137309594	 0.2535638041	-0.349445
C	 1.3810347342	 2.0364376627	 0.1757727571	-0.005905
N	 1.7503340509	 2.6366617494	-1.0980224289	-0.296743
C	 1.5664267702	 3.518871528	 0.0705045006	-0.201303
C	 0.4382739197	 4.4192878292	 0.0334089787	 0.33004
N	-0.4703340818	 5.1338373966	 0.0386043953	-0.323794
H	-0.7000710529	 1.9871289083	-0.3651297779	 0.183477
H	-0.3733378207	 1.4483865259	 1.2845854383	 0.166356
H	 2.1479082028	 1.5112350391	 0.7409652341	 0.126113
H	 2.7394888053	 2.521857707	-1.3006319169	 0.258005
H	 2.4450183367	 3.9368025152	 0.5543148053	 0.14386
58.5739	94.3708	162.9098	227.0075	346.2399	380.8017	386.2866	524.9558	575.3141	617.5725	805.3027	840.1968	878.6276	931.1915	957.4224	1000.8592	1014.1203	1108.3171	1186.4482	1208.7926	1246.0726	1271.2839	1323.5419	1400.9077	1450.8083	1462.5574	2362.1837	2367.7342	3054.0057	3103.3551	3139.651	3153.9046	3522.5807
N#CCC1NC1C#N	N#CC[C@H]1N[C@H]1C#N	
InChI=1S/C5H5N3/c6-2-1-4-5(3-7)8-4/h4-5,8H,1H2	InChI=1S/C5H5N3/c6-2-1-4-5(3-7)8-4/h4-5,8H,1H2/t4-,5+/m1/s1
