19
gdb 42088	3.79119	1.23953	1.20202	2.3611	77.12	-0.2329	0.0115	0.2444	1107.2687	0.16059	-423.032328	-423.024505	-423.023561	-423.065709	29.735	
C	 0.2061476713	 1.3366346474	-0.4658291352	-0.08239
C	 1.4720825922	 1.870396985	 0.2024149641	-0.25237
C	 2.0967089034	 0.5762632798	 0.7741094381	 0.352749
C	 0.8351065988	-0.3032124066	 1.0241683468	-0.107957
O	-0.2818788507	 0.3566228551	 0.4434307692	-0.255419
O	 2.9266224531	-0.0496547187	-0.2221558837	-0.315722
C	 4.2646994134	-0.181804326	 0.246836242	-0.133816
C	 4.2354493894	 0.3264975176	 1.6601901519	-0.102814
C	 3.0131118816	 0.7539204911	 1.9513649207	-0.155312
H	-0.5798803536	 2.0833019696	-0.6059588536	 0.105305
H	 0.4450233749	 0.8873410253	-1.4424227604	 0.101006
H	 2.1651354205	 2.3738580547	-0.4736961962	 0.108791
H	 1.2049246748	 2.5519147952	 1.0169942871	 0.101429
H	 1.0087579438	-1.2830612232	 0.5609996635	 0.106469
H	 0.6281967952	-0.4472711573	 2.0903757729	 0.098398
H	 4.5789346384	-1.2345512942	 0.1800649563	 0.10889
H	 4.9510884085	 0.4000136854	-0.3894226995	 0.105441
H	 5.1025096016	 0.3355102332	 2.3081215552	 0.109448
H	 2.6749401635	 1.1835591467	 2.8858849207	 0.107874
35.7667	78.5544	200.9053	240.6178	367.3083	388.481	421.7624	505.9531	628.4669	729.7506	747.8793	786.2294	824.763	875.5433	889.8776	936.7018	953.311	958.3621	970.3651	1012.5708	1043.8594	1057.2304	1087.7339	1106.4258	1114.8206	1155.2958	1185.6475	1199.5417	1225.6651	1247.736	1258.1235	1312.6719	1350.1689	1367.9527	1381.1318	1395.7053	1465.6343	1502.3026	1520.1745	1522.121	1690.4324	2972.6463	2985.5661	2996.0854	3017.114	3052.9587	3065.8644	3093.3806	3126.3537	3206.4161	3231.147
C1CC2(CO1)OCC=C2	C1C[C@@]2(CO1)OCC=C2	
InChI=1S/C7H10O2/c1-2-7(9-4-1)3-5-8-6-7/h1-2H,3-6H2	InChI=1S/C7H10O2/c1-2-7(9-4-1)3-5-8-6-7/h1-2H,3-6H2/t7-/m0/s1
