18
gdb 47813	2.10819	1.96224	1.15901	4.4246	72.15	-0.2324	-0.0298	0.2026	1058.7623	0.149087	-439.062743	-439.054944	-439.054	-439.095437	29.86	
O	-0.0132599931	-0.0535926499	-0.3292802282	-0.28737
C	-0.0194411921	 1.1260732727	-0.0823698605	 0.374504
C	-1.322051692	 1.9249796177	 0.0745426558	-0.159987
O	-1.6068782509	 2.1914487356	 1.4368673321	-0.241194
C	-0.8567421617	 3.2170125099	 2.067971623	-0.069792
C	 0.5607562072	 2.7771997827	 2.4612571973	-0.223763
C	 1.5293770563	 2.7494971608	 1.2929419153	-0.025911
N	 2.252100633	 1.4867325328	 1.0420355965	-0.318376
C	 1.2512743058	 1.9392601965	 0.0780148963	-0.139414
H	-1.2618318078	 2.86294936	-0.5036225167	 0.091517
H	-2.1467824119	 1.3158798437	-0.3027598491	 0.128064
H	-0.8248590254	 4.11543463	 1.4292959534	 0.087114
H	-1.4264139171	 3.4668347073	 2.9683587214	 0.114318
H	 0.9426766014	 3.4465153714	 3.2412256015	 0.100612
H	 0.4971641204	 1.7751272017	 2.89757068	 0.134665
H	 2.0738485008	 3.6770578809	 1.1227903574	 0.087458
H	 3.190998235	 1.6614751793	 0.6940729682	 0.237346
H	 1.5895845521	 2.3517343669	-0.8742315937	 0.110208
54.4056	157.8624	206.8986	275.0936	329.2506	376.5398	396.6456	462.2066	545.696	572.9352	630.2855	770.6854	817.1897	872.8797	900.2327	925.8202	952.963	964.9058	987.0809	1040.6984	1052.5792	1119.8349	1143.5944	1166.4495	1168.7936	1201.3171	1252.4523	1259.6779	1286.2976	1320.962	1359.3928	1375.182	1399.4299	1409.7987	1460.09	1470.5916	1472.4875	1492.1103	1825.6253	2961.4255	2971.1853	3037.1425	3080.6678	3088.6087	3091.3267	3108.9055	3118.9141	3506.6644
O=C1COCCC2NC12	O=C1COCC[C@H]2N[C@@H]12	
InChI=1S/C6H9NO2/c8-5-3-9-2-1-4-6(5)7-4/h4,6-7H,1-3H2	InChI=1S/C6H9NO2/c8-5-3-9-2-1-4-6(5)7-4/h4,6-7H,1-3H2/t4-,6-/m1/s1
