18
gdb 46385	3.78568	0.96006	0.81466	2.513	74.78	-0.2433	0.0343	0.2776	1392.826	0.147529	-439.080913	-439.07224	-439.071296	-439.115803	30.756	
O	-0.1959934398	 0.0544794757	-0.4921103094	-0.372197
C	-0.1001180837	 1.2124893045	-0.1787211788	 0.40486
C	-1.0579249933	 2.3964794305	 0.0929455595	-0.373091
C	 0.2304052823	 3.226244811	 0.3619878959	-0.165885
N	 0.9947096098	 2.0048681775	 0.0795657527	-0.071834
C	 2.4087767591	 1.7297762609	 0.038698385	-0.204876
C	 3.0643114177	 1.8879231237	 1.3919017933	 0.0884
C	 4.4291140477	 2.4066956995	 1.5308520566	-0.176878
O	 3.3002072365	 3.2350876063	 1.8151843765	-0.234472
H	-1.6456028318	 2.7048879033	-0.7733232568	 0.133563
H	-1.7171160647	 2.2538964815	 0.9509167342	 0.133725
H	 0.4219003174	 4.0388402811	-0.3471852628	 0.112559
H	 0.3511333455	 3.6010001751	 1.3821828183	 0.126776
H	 2.5149289097	 0.6984543977	-0.3155349471	 0.14326
H	 2.9079295014	 2.393967637	-0.679803966	 0.111056
H	 2.6723709492	 1.2378072194	 2.1750717568	 0.105928
H	 5.0299865518	 2.1196627271	 2.3919644706	 0.121753
H	 4.9942753151	 2.6774456484	 0.6397478515	 0.117355
43.6564	65.7757	88.7784	186.7175	215.7753	262.6756	361.912	428.0789	530.9693	565.0381	738.6436	776.5481	800.1759	817.8019	864.231	936.3239	944.212	960.8041	1043.677	1045.0105	1093.1525	1104.3058	1156.4503	1157.1682	1160.2835	1180.88	1184.6687	1218.8832	1277.2296	1290.782	1323.6791	1360.361	1421.9737	1450.2751	1460.8119	1463.8745	1529.5361	1531.7983	1874.9128	3014.9429	3042.4083	3084.0792	3086.3418	3088.988	3092.1779	3110.9244	3146.4869	3173.6559
O=C1CCN1CC1CO1	O=C1CCN1C[C@H]1CO1	
InChI=1S/C6H9NO2/c8-6-1-2-7(6)3-5-4-9-5/h5H,1-4H2	InChI=1S/C6H9NO2/c8-6-1-2-7(6)3-5-4-9-5/h5H,1-4H2/t5-/m0/s1
