23
gdb 93103	2.2348	1.71562	1.1539	0.2003	90.06	-0.2349	0.0336	0.2685	1165.014	0.207354	-351.165316	-351.156757	-351.155813	-351.197909	34.822	
C	-0.1591127499	 1.5482206421	-0.0670330846	-0.425724
C	 0.0453280265	 0.0330547663	 0.017067284	-0.051519
C	 0.7896570988	-0.4947440094	-1.2263760981	-0.237014
C	 1.1306062956	-1.9578170564	-1.1227985374	-0.062942
C	 1.0907905871	-2.6368233987	 0.0221925066	-0.044772
C	 0.7335918635	-2.0019662651	 1.3415208096	-0.330049
C	 0.757972707	-0.4797973243	 1.2711698691	 0.38918
C	 2.0062711265	 0.2061251483	 1.7757155544	-0.299026
C	 0.7278584792	 0.2618836292	 2.5818215566	-0.338798
H	 0.7911614759	 2.0928126511	-0.0466058724	 0.115855
H	-0.6590151571	 1.8063937384	-1.006551661	 0.112349
H	-0.783468806	 1.923050525	 0.7488089542	 0.1154
H	-0.9518470539	-0.4325740047	 0.0146049212	 0.072691
H	 0.177964416	-0.3197746174	-2.1216439225	 0.095474
H	 1.7086037238	 0.0918479618	-1.3816844998	 0.103121
H	 1.4146552621	-2.4642897735	-2.0425574928	 0.080096
H	 1.3211711507	-3.699701526	 0.0328153425	 0.080306
H	-0.2636341132	-2.3470979931	 1.6588982252	 0.103435
H	 1.4225203744	-2.3512780235	 2.1216868028	 0.096134
H	 2.8187674484	-0.416253989	 2.1360466656	 0.106707
H	 2.3358939361	 1.1199989126	 1.2933109536	 0.107271
H	 0.2114020863	 1.2128471055	 2.6435241184	 0.107792
H	 0.670014932	-0.327920269	 3.4914832248	 0.104032
107.337	141.5483	220.9894	267.7883	291.7338	334.5499	358.384	397.2002	451.8001	496.6987	514.973	652.0462	680.494	762.316	785.875	857.8491	892.9354	894.1605	925.0719	939.5238	968.1913	986.9636	1000.9476	1011.5953	1023.367	1055.5726	1079.57	1086.1089	1108.213	1132.7658	1185.3688	1186.1275	1207.9681	1229.3311	1272.1768	1323.2736	1331.8341	1363.1176	1382.9313	1393.4237	1409.5761	1414.897	1463.1885	1473.1482	1477.6318	1498.6733	1503.8269	1511.1072	1727.1424	2978.2688	2982.4163	2993.585	3028.9706	3029.6507	3035.2479	3096.927	3107.1523	3128.2106	3131.9556	3138.4644	3162.7495	3204.4146	3218.4138
CC1CC=CCC11CC1	C[C@H]1CC=CCC21CC2	
InChI=1S/C9H14/c1-8-4-2-3-5-9(8)6-7-9/h2-3,8H,4-7H2,1H3	InChI=1S/C9H14/c1-8-4-2-3-5-9(8)6-7-9/h2-3,8H,4-7H2,1H3/t8-/m0/s1
