25
gdb 100933	2.42598	0.90395	0.70152	2.5511	85.18	-0.2477	0.0637	0.3115	1689.1068	0.227737	-426.623417	-426.612131	-426.611187	-426.660009	41.68	
C	-0.0865361892	 1.4882423499	 0.2265897548	-0.39183
C	 0.2274599283	-0.0092388154	 0.1429525846	-0.17001
C	 0.7144754667	-0.4904370378	-1.2432071114	 0.039682
C	 2.1452726926	 0.0102977814	-1.5046259375	-0.415412
C	 0.5536425662	-2.0335415058	-1.3683763668	-0.041118
C	-0.9257505574	-2.4016042572	-1.6149924602	-0.054507
O	-1.2159879971	-3.7710200475	-1.4273683804	-0.436425
C	 1.4346304287	-2.648651243	-2.4685056439	-0.099615
O	 1.2712770483	-4.0687177018	-2.5976522199	-0.423079
H	 0.7890011884	 2.1096007593	 0.0145649205	 0.117739
H	-0.8706913989	 1.7661464561	-0.486599919	 0.115812
H	-0.4399925414	 1.755835864	 1.2273081289	 0.114643
H	 0.9929741759	-0.2678332072	 0.8876069422	 0.092599
H	-0.669546225	-0.5661074889	 0.4331559563	 0.102563
H	 0.063047035	-0.0350469582	-2.005196369	 0.07002
H	 2.4719648244	-0.171635949	-2.5320669742	 0.117628
H	 2.2142778775	 1.0884285505	-1.3351975997	 0.115614
H	 2.8625958425	-0.4738123523	-0.8310306769	 0.112614
H	 0.8514039758	-2.4890804084	-0.410782433	 0.065597
H	-1.5742028107	-1.8558015814	-0.923112545	 0.102905
H	-1.1976921057	-2.0667910351	-2.6328639399	 0.077722
H	-0.5970303081	-4.2454113678	-1.9993684734	 0.281002
H	 1.1554698717	-2.2409422939	-3.4471365324	 0.115902
H	 2.4933108651	-2.4173146328	-2.3058904564	 0.1006
H	 1.6401916064	-4.4753738979	-1.8058565583	 0.289355
52.5944	74.3599	121.7736	135.2209	193.2982	232.8031	253.9425	290.0423	295.2232	308.1014	341.7826	364.2309	377.4056	425.6195	473.016	581.3465	659.1927	771.6298	837.5166	875.3986	894.4681	924.4036	982.2445	998.4639	1022.7726	1041.6162	1064.1352	1084.3747	1102.6824	1131.8001	1162.3457	1180.2949	1200.3457	1243.4738	1281.6304	1301.8226	1336.9204	1355.3248	1372.0772	1381.553	1388.2798	1406.6168	1409.9713	1418.9306	1423.0125	1470.0999	1486.896	1494.0665	1498.38	1503.9835	1507.0548	1510.7414	1519.6664	2936.4245	2980.4686	2990.9364	3018.4263	3028.1419	3032.736	3035.0285	3062.2291	3076.4872	3078.8781	3099.201	3099.4037	3105.5628	3112.9929	3735.495	3807.5939
CCC(C)C(CO)CO	CC[C@@H](C)C(CO)CO	
InChI=1S/C7H16O2/c1-3-6(2)7(4-8)5-9/h6-9H,3-5H2,1-2H3	InChI=1S/C7H16O2/c1-3-6(2)7(4-8)5-9/h6-9H,3-5H2,1-2H3/t6-/m1/s1
