20
gdb 127095	2.66504	1.44503	1.06493	2.9513	82.9	-0.2057	0.0326	0.2384	1190.6485	0.171782	-399.336542	-399.327225	-399.326281	-399.37065	33.976	
C	 0.6488734824	 0.2187831778	-1.0308421374	-0.336664
N	-0.0919436302	 0.0688606656	 0.2231675252	-0.165118
C	 0.0243144467	 1.2462801614	 1.0738736397	-0.32696
C	-1.4047360853	-0.4046696915	 0.0775641805	 0.40968
C	-2.6408060929	 0.2175197819	 0.1635302643	-0.320795
C	-3.570296869	-0.8176400954	-0.0510689819	 0.000016
N	-2.9774680079	-1.9889462111	-0.2586913809	-0.277987
N	-1.6538829378	-1.7252446647	-0.1630980263	-0.013241
C	-0.6931057207	-2.7975822817	-0.2833299592	-0.327406
H	 1.705121097	 0.3980477492	-0.8066792832	 0.121747
H	 0.5772619228	-0.6938434959	-1.6258747952	 0.129216
H	 0.275029253	 1.0572783554	-1.6421675531	 0.111138
H	-0.3851026345	 2.1589736625	 0.607630849	 0.106315
H	-0.5014858819	 1.0727418961	 2.0150465211	 0.135332
H	 1.0816804167	 1.4270937556	 1.2915528185	 0.121205
H	-2.8321551825	 1.2616584915	 0.3475224054	 0.097722
H	-4.6491411999	-0.7576807837	-0.0646367167	 0.105288
H	-0.4138747657	-2.9800113256	-1.3277308317	 0.131768
H	 0.2003591973	-2.5322869857	 0.2854048244	 0.146612
H	-1.1409517674	-3.7055454316	 0.1221409076	 0.152134
62.6605	147.6049	155.9105	181.0001	201.9252	232.0319	256.6284	315.47	377.5259	411.197	509.7017	608.8474	665.0109	720.9475	741.8763	780.9461	881.6216	934.9313	960.3828	1029.3583	1067.9901	1072.3968	1121.5463	1150.7562	1164.5409	1183.6947	1215.9366	1239.6432	1297.2367	1321.8714	1375.8417	1428.3842	1443.5891	1450.5675	1464.5569	1479.5274	1490.9806	1492.9132	1500.4217	1506.8994	1515.866	1526.201	1585.8494	2959.1201	2968.43	3031.4252	3069.2981	3073.7855	3110.1871	3126.206	3128.0518	3155.5336	3237.2977	3271.299
CN(C)C1=CC=NN1C	CN(C)c1ccnn1C	
InChI=1S/C6H11N3/c1-8(2)6-4-5-7-9(6)3/h4-5H,1-3H3	InChI=1S/C6H11N3/c1-8(2)6-4-5-7-9(6)3/h4-5H,1-3H3
