16
gdb 69074	2.56401	1.6651	1.24907	4.4652	74.89	-0.2504	-0.0111	0.2393	1011.3469	0.124726	-400.759429	-400.751699	-400.750755	-400.791368	30.247	
O	 0.0797782676	 1.3944619484	-0.1642051678	-0.448274
C	 0.0365586468	 0.021472457	-0.0273519729	 0.36352
C	-0.4214681869	-0.7582294082	-1.2134946541	-0.341749
C	-1.2905684289	-0.7960549521	 0.043579136	 0.08197
C	-1.0636745416	-1.9335044148	 1.0446664852	-0.341117
C	 0.374877387	-1.7501454423	 1.4791776426	-0.072002
C	 0.950664617	-0.6848613876	 0.9208912427	-0.163625
C	-2.5519034402	-0.1257901129	 0.0193154132	 0.211613
N	-3.573621992	 0.4189828194	 0.0282537804	-0.351141
H	-0.1016218397	 1.7966730857	 0.6935980414	 0.294796
H	-0.8262413292	-0.1779696516	-2.0351349027	 0.148442
H	 0.110618641	-1.6619977812	-1.491007066	 0.127423
H	-1.7568246355	-1.8625307456	 1.891068637	 0.134472
H	-1.2298208699	-2.9163155441	 0.5866494199	 0.12985
H	 0.8642402092	-2.4498764833	 2.1463670473	 0.111653
H	 1.9688254154	-0.3472916567	 1.0744203779	 0.114169
117.692	146.8644	248.0312	280.6316	349.4018	385.979	415.8937	488.0592	502.0544	573.092	607.4753	674.4318	718.4812	751.1976	777.8029	908.2027	926.6135	953.3943	960.0072	974.3422	989.6902	1074.3151	1090.4203	1140.7951	1178.4395	1221.4313	1262.7761	1279.5431	1344.4696	1383.385	1396.5247	1464.9852	1478.8008	1671.7908	2344.3587	3033.1167	3065.1719	3133.2855	3195.8846	3219.0909	3231.8727	3788.3731
OC12CC1(CC=C2)C#N	O[C@]12C[C@]1(CC=C2)C#N	
InChI=1S/C7H7NO/c8-5-6-2-1-3-7(6,9)4-6/h1,3,9H,2,4H2	InChI=1S/C7H7NO/c8-5-6-2-1-3-7(6,9)4-6/h1,3,9H,2,4H2/t6-,7-/m1/s1
