16
gdb 20943	7.42691	1.10252	0.97684	1.6398	67.55	-0.2058	0.0076	0.2134	1170.5281	0.132997	-376.103179	-376.095449	-376.094505	-376.135925	27.609	
C	 0.0118537581	 1.5304197854	-0.0174959918	-0.398102
C	-0.0997896886	 0.0128404368	-0.1153199176	-0.116639
N	 0.8358928633	-0.5053857131	-1.1046617422	-0.385729
C	 0.8716015157	-1.8645629268	-1.3452203777	 0.380659
N	 1.340484373	-2.3643758568	-2.4931155661	-0.315708
N	 1.2554576637	-3.684450993	-2.2992064239	-0.07551
N	 0.7688774634	-4.0849976721	-1.1419698434	-0.194435
C	 0.5092563742	-2.9415187084	-0.5034708211	-0.127123
H	 1.0309221683	 1.8287099431	 0.2448641572	 0.132609
H	-0.2480272469	 2.0064745038	-0.9699891081	 0.119032
H	-0.671738373	 1.9169730975	 0.7431508579	 0.123877
H	 0.1471346237	-0.4342447487	 0.8550888996	 0.115738
H	-1.1405529159	-0.2752762073	-0.3401517651	 0.097361
H	 0.8767004666	 0.0352133286	-1.9581834245	 0.239845
H	 1.5445590692	-4.3366894525	-3.008319287	 0.289259
H	 0.0922798753	-2.9420392065	 0.4895114236	 0.114866
64.8247	81.8961	144.0809	259.563	337.887	344.0136	435.6736	444.2873	588.0771	702.7986	739.4027	770.9621	817.2881	833.1831	934.2698	992.4807	1023.7687	1076.9963	1152.7046	1169.3827	1183.346	1206.1713	1266.273	1296.1782	1335.0282	1390.1123	1408.3072	1422.2093	1484.4302	1495.9691	1501.1521	1519.8395	1530.0572	1611.272	2960.2388	3035.58	3044.4559	3104.8963	3124.3206	3279.8909	3582.5618	3683.0645
CCNC1=NNN=C1	CCNc1n[nH]nc1	
InChI=1S/C4H8N4/c1-2-5-4-3-6-8-7-4/h3H,2H2,1H3,(H2,5,6,7,8)	InChI=1S/C4H8N4/c1-2-5-4-3-6-8-7-4/h3H,2H2,1H3,(H2,5,6,7,8)
