19
gdb 105316	2.35355	1.55717	1.16093	1.5883	81.02	-0.2413	0.028	0.2692	1135.6557	0.156899	-385.812548	-385.803648	-385.802704	-385.845806	34.345	
C	 0.1922861882	 1.4776658371	 0.2260770645	-0.386495
C	-0.1775772951	 0.0229825364	-0.0773934585	-0.235155
C	 0.6102624494	-0.5586793585	-1.2524555901	 0.182592
O	 2.0664508169	-0.5232215896	-1.0250293529	-0.323122
C	 2.1653996825	-1.9191233632	-1.3242032918	 0.115066
C	 1.4410728582	-2.7336570044	-0.3039357813	-0.320377
C	 0.673817574	-2.0894398939	-1.4424784837	-0.169396
C	 0.2872283823	 0.1163277106	-2.5082711252	 0.353971
C	-0.0078619383	 0.6544254008	-3.5418951035	-0.450993
H	 1.2581966346	 1.5602335162	 0.4553012732	 0.136624
H	-0.022032282	 2.1258343127	-0.6285189473	 0.128987
H	-0.3741426718	 1.8480393218	 1.0853588792	 0.110284
H	 0.0078731843	-0.6011337213	 0.8019493581	 0.100877
H	-1.2448720382	-0.0619526627	-0.3140267507	 0.107321
H	 2.9934305967	-2.2475420038	-1.9404367396	 0.10733
H	 1.5434181371	-3.8101742453	-0.404524272	 0.117262
H	 1.3617739306	-2.3741977866	 0.7171848598	 0.119185
H	 0.0780589393	-2.6422851396	-2.154555318	 0.108667
H	-0.2559765289	 1.1366753933	-4.4551314402	 0.19737
98.32	138.2234	163.2856	185.8476	206.7982	280.272	370.812	431.3148	487.7548	495.8745	547.7246	629.833	640.6339	658.55	762.5725	776.0572	813.0673	879.9305	902.733	956.8236	963.9351	984.5315	1024.9968	1038.5897	1048.9151	1068.6687	1084.1211	1121.6719	1138.6549	1206.5744	1218.3802	1274.0063	1307.7412	1349.283	1367.0563	1409.509	1468.3923	1480.1212	1497.0418	1510.9859	2232.0046	3040.6247	3045.7907	3084.4612	3116.0621	3121.8199	3125.2929	3187.4841	3208.2914	3218.6307	3500.6195
CCC1(OC2CC12)C#C	CC[C@]1(O[C@H]2C[C@@H]12)C#C	
InChI=1S/C8H10O/c1-3-8(4-2)6-5-7(6)9-8/h1,6-7H,4-5H2,2H3	InChI=1S/C8H10O/c1-3-8(4-2)6-5-7(6)9-8/h1,6-7H,4-5H2,2H3/t6-,7+,8-/m1/s1
