16
gdb 48543	2.97626	1.54066	1.5061	2.3648	69.1	-0.2279	-0.0421	0.1858	941.1006	0.124472	-437.809119	-437.802099	-437.801155	-437.840944	26.912	
O	-0.0043350828	-0.1010570987	-0.0004718941	-0.23597
C	 0.0224396998	 1.1026676982	 0.0102415056	 0.013435
C	 1.252965425	 1.9322883379	 0.0002886549	 0.248471
C	 1.6899534351	 3.0084890184	 1.0434325332	 0.037569
C	 2.9742189079	 2.1766556126	 1.2049002261	-0.187115
N	 2.6690525436	 1.3641340344	-0.0299613528	-0.185309
C	 2.9346094907	 2.2094887772	-1.2521194321	-0.187053
C	 1.6563493357	 3.0358095111	-1.0274197022	 0.037321
O	 1.8253264047	 4.0158099009	 0.0186660094	-0.296774
H	-0.9135554971	 1.7086356879	 0.0297711659	 0.081181
H	 1.1231333316	 3.3632890366	 1.9068497987	 0.096303
H	 3.921202065	 2.7222488222	 1.1866443511	 0.117235
H	 2.9374640932	 1.5225702283	 2.08198276	 0.123629
H	 3.8815902573	 2.7553436301	-1.2491221661	 0.117252
H	 2.8702027017	 1.5787003967	-2.1444965154	 0.123568
H	 1.0621334086	 3.4128898261	-1.8625091822	 0.096256
68.2659	160.4947	232.2656	353.209	366.9188	412.2161	481.8161	664.011	708.919	709.2413	838.9292	846.2088	850.8491	882.5259	962.7129	963.1757	986.9403	992.7394	1059.3161	1060.6503	1106.1273	1107.386	1160.7379	1184.1761	1193.038	1220.0108	1278.9293	1280.7859	1289.3312	1304.2273	1348.1005	1423.8786	1473.2469	1486.8159	1820.0314	2858.9058	3046.1964	3049.3106	3087.4934	3091.9586	3110.6883	3113.9963
O=CC12C3CN1CC2O3	O=C[C@@]12[C@H]3CN1C[C@@H]2O3	
InChI=1S/C6H7NO2/c8-3-6-4-1-7(6)2-5(6)9-4/h3-5H,1-2H2	InChI=1S/C6H7NO2/c8-3-6-4-1-7(6)2-5(6)9-4/h3-5H,1-2H2/t4-,5+,6+
