18
gdb 41008	3.10466	1.97807	1.48588	0.2425	75.46	-0.2343	0.0665	0.3009	903.5604	0.150374	-401.837219	-401.831016	-401.830072	-401.86742	26.759	
C	-0.0591582792	 1.4879529563	 0.2090567173	-0.275506
C	 1.4983062557	 1.5590265267	-0.0630268295	-0.367724
C	 1.285171141	 0.2666970307	-0.8716559163	 0.403858
C	 0.0664839059	-0.0494772314	-0.0562527936	 0.101617
O	-0.6964471908	-0.9086390031	-0.9157101747	-0.292917
C	 0.2281468674	-1.0641633753	-1.9834385882	 0.110034
C	 0.8026262452	 0.3061080716	-2.3721330626	-0.108641
N	 2.1276970018	-0.2638077371	-2.8055773349	-0.334625
C	 1.7891569151	-1.0235392998	-1.5550053681	-0.230052
H	-0.4173177978	 1.8002152784	 1.1915120135	 0.103389
H	-0.6250030338	 2.0022023513	-0.5704098282	 0.118085
H	 1.8883447585	 2.427238003	-0.5948811672	 0.119265
H	 2.0704500719	 1.4099789552	 0.8564900101	 0.114082
H	 0.2664891428	-0.5757902016	 0.8847191218	 0.082702
H	-0.1199635479	-1.7838262617	-2.725556647	 0.089459
H	 0.3123482713	 1.1252761246	-2.9005319902	 0.080262
H	 1.9844119201	-0.8624926322	-3.6260864494	 0.206565
H	 2.4214489127	-1.8173325855	-1.1548290428	 0.080147
210.101	285.7821	318.0468	426.9798	479.62	567.6163	641.1423	685.0345	698.6258	752.8267	776.6817	822.6221	869.9396	884.1416	905.1588	932.1351	946.0931	986.118	1021.4231	1055.6273	1077.1377	1082.011	1113.6354	1124.6277	1138.5804	1150.6973	1154.7873	1193.3858	1213.8788	1234.8201	1239.9536	1259.3409	1289.5304	1291.0253	1318.2776	1344.3349	1380.7603	1478.2992	1492.7884	3034.6429	3071.2886	3076.6507	3102.6924	3107.0607	3127.9206	3129.7759	3141.9791	3370.8969
C1CC23C1OC1C2NC31	C1C[C@@]23[C@@H]1O[C@H]1[C@@H]2N[C@@H]31	
InChI=1S/C7H9NO/c1-2-7-3(1)9-4-5(7)8-6(4)7/h3-6,8H,1-2H2	InChI=1S/C7H9NO/c1-2-7-3(1)9-4-5(7)8-6(4)7/h3-6,8H,1-2H2/t3-,4-,5-,6+,7+/m1/s1
