19
gdb 11585	5.56475	0.96058	0.87202	1.2273	73.78	-0.2569	0.0372	0.2941	1360.1515	0.164652	-365.062594	-365.053641	-365.052696	-365.097239	31.789	
C	 0.2663350464	 1.3687824592	-0.1934011972	-0.459395
C	 0.0788709171	-0.1031487995	 0.0775342664	 0.398805
N	-0.0060182475	-0.6985513374	 1.1972014256	-0.523241
O	 0.0057312264	-0.7807699999	-1.0843231303	-0.241599
C	-0.1898783732	-2.202545812	-0.9913107734	-0.065598
C	-0.2477824373	-2.7550580284	-2.3854537995	 0.006776
C	 1.0266904192	-3.0720601753	-3.1248047162	-0.249843
C	 0.1519756529	-4.1908531286	-2.6192863941	-0.271974
H	 0.3372397716	 1.9330380935	 0.7378136232	 0.124342
H	 1.1747036063	 1.5307254412	-0.7815910518	 0.145236
H	-0.5718966462	 1.7529496895	-0.782690529	 0.144729
H	 0.0707766284	-0.031218157	 1.9612379236	 0.216814
H	 0.6339838482	-2.6435599995	-0.4185733879	 0.111812
H	-1.1110069032	-2.3972268292	-0.4312426392	 0.117801
H	-1.0730314708	-2.3782271805	-2.9827368579	 0.088779
H	 1.0602629531	-2.884704151	-4.1920582001	 0.11261
H	 1.9649732558	-2.8894458748	-2.611564924	 0.114568
H	 0.5028999186	-4.7652250557	-1.7681463653	 0.115474
H	-0.418542436	-4.7688773746	-3.3372938329	 0.113903
52.8949	61.573	110.3831	135.1602	176.525	282.2692	318.6745	403.5461	482.1049	576.2104	607.918	774.9792	814.6216	837.0179	853.4912	897.987	933.2184	957.3272	987.0925	1039.6329	1058.3283	1067.8907	1070.0142	1080.9786	1116.4916	1137.7605	1196.3254	1200.1247	1227.1743	1274.7328	1346.7746	1384.383	1410.3939	1448.3566	1470.3954	1471.5746	1482.7608	1500.3255	1512.4887	1723.5669	3037.4013	3048.3971	3077.5001	3111.88	3132.5299	3137.1429	3142.8245	3151.5609	3210.8781	3225.8764	3514.2256
CC(=N)OCC1CC1	C[C]([NH])OCC1CC1	
InChI=1S/C6H11NO/c1-5(7)8-4-6-2-3-6/h6-7H,2-4H2,1H3	InChI=1S/C6H11NO/c1-5(7)8-4-6-2-3-6/h6-7H,2-4H2,1H3
