17
gdb 18962	6.39212	1.39227	1.3787	1.5229	67.97	-0.2235	0.062	0.2855	949.0938	0.141268	-363.735719	-363.72881	-363.727866	-363.766881	26.824	
C	 0.0527950451	 1.640879168	 0.0728609074	-0.378094
C	 0.0610286938	 0.1142243915	 0.0891295644	-0.121075
N	 0.6531978724	-0.4196026691	-1.1398188165	-0.125226
C	-0.2572093567	-0.4986565308	-2.3228538815	-0.070327
C	 0.504719691	-1.7315188218	-2.8863525518	 0.082627
O	-0.6882857247	-2.5331170546	-3.1081296197	-0.326203
C	-0.985522856	-1.8225555609	-1.8741705574	 0.074243
C	 0.4953177793	-1.8888263417	-1.3395171615	-0.067056
H	 1.0651488783	 2.0262262208	-0.0772021181	 0.128123
H	-0.5777128458	 2.0258223784	-0.7358176829	 0.115296
H	-0.3370813321	 2.0370048521	 1.0153612195	 0.113575
H	 0.674783212	-0.2421515742	 0.9256805158	 0.101784
H	-0.9630450307	-0.2631678803	 0.2644117931	 0.0791
H	-0.6535660959	 0.3660666708	-2.8554558676	 0.093662
H	 1.3296268935	-1.7851267051	-3.5940833273	 0.106302
H	-1.9485258066	-2.0084046678	-1.399826481	 0.101672
H	 0.9768341832	-2.6440730853	-0.7168928848	 0.091597
89.8503	173.865	200.1461	285.8248	393.461	531.1871	560.0722	740.6699	749.9603	765.8505	802.7086	808.0535	823.9299	882.5043	913.8451	923.2631	979.8039	985.7634	1051.7729	1094.2514	1102.3563	1130.8456	1152.1034	1158.6626	1167.8775	1171.968	1186.6348	1202.3901	1290.0063	1308.7875	1341.6682	1389.5826	1411.4263	1490.092	1491.8828	1511.0215	2936.6415	3037.4197	3042.8498	3104.2417	3110.2581	3116.264	3119.8416	3128.8074	3148.9209
CCN1C2C3OC2C13	CCN1[C@H]2[C@@H]3O[C@H]2[C@H]13	
InChI=1S/C6H9NO/c1-2-7-3-5-4(7)6(3)8-5/h3-6H,2H2,1H3	InChI=1S/C6H9NO/c1-2-7-3-5-4(7)6(3)8-5/h3-6H,2H2,1H3/t3-,4+,5-,6+
