15
gdb 98151	1.99377	1.22867	0.98684	2.3984	73.38	-0.2656	-0.044	0.2215	1253.3228	0.107684	-420.556849	-420.546912	-420.545968	-420.593121	34.828	
O	-0.4858565906	 1.4909284022	 0.4213269599	-0.419948
C	-1.1820800614	 0.3171662165	 0.7212369882	-0.136323
C	-1.057893028	-0.7006607074	-0.3963917988	 0.366111
O	-0.4202046586	-0.4547676327	-1.3901142887	-0.310932
C	-1.7737219825	-2.076554678	-0.2346103336	-0.413057
C	-1.224595151	-2.8041251631	 0.9116736505	 0.313985
C	-0.7426676889	-3.3876500166	 1.84379868	-0.434532
C	-3.2233110102	-1.8884351351	-0.1442472985	 0.31399
C	-4.4092295148	-1.7078585342	-0.0932437523	-0.434536
H	-0.0903913579	 1.3473796145	-0.4516622598	 0.29532
H	-0.8085925268	-0.1485499203	 1.646240578	 0.136366
H	-2.2532427656	 0.5133174928	 0.8829520488	 0.136366
H	-1.5361035162	-2.6212752326	-1.1567684853	 0.163011
H	-0.3258726776	-3.9109375122	 2.6691605413	 0.212089
H	-5.4599672099	-1.5588165137	-0.0431770896	 0.21209
19.9279	76.6061	117.4612	139.5604	149.4722	270.7959	331.8386	346.6414	362.8119	403.3073	463.9034	558.3691	571.376	644.4883	650.8204	657.7702	659.5677	695.5747	802.5096	947.7135	980.8153	1064.7978	1094.2058	1147.3545	1246.755	1248.81	1303.1477	1314.3569	1445.7948	1490.2301	1814.0158	2239.2915	2245.0037	2995.9971	3016.0851	3037.0832	3499.8689	3500.8291	3712.7687
OCC(=O)C(C#C)C#C	OCC(=O)C(C#C)C#C	
InChI=1S/C7H6O2/c1-3-6(4-2)7(9)5-8/h1-2,6,8H,5H2	InChI=1S/C7H6O2/c1-3-6(4-2)7(9)5-8/h1-2,6,8H,5H2
