21
gdb 76226	2.61703	1.50003	1.16246	1.9368	83.76	-0.2313	0.0092	0.2406	1160.5785	0.180964	-387.099732	-387.090483	-387.089539	-387.133049	35.532	
C	-0.0977149343	 1.5145766657	 0.0515084997	-0.400158
C	-0.0025812332	-0.0168838911	-0.0218272663	-0.147112
C	 0.7956128314	-0.5385184054	-1.2158608049	 0.313663
C	 0.4588633871	-0.1443609702	-2.6188133986	-0.490633
C	 1.7944365269	-1.3394652333	-0.8240767869	-0.200988
C	 1.8466247324	-1.427125037	 0.6611234094	-0.066293
O	 2.0791741684	-0.1466362684	 1.3099370872	-0.306947
C	 0.7307557687	-0.6230810235	 1.1863829538	 0.410826
C	-0.004077591	-0.8796460187	 2.473151622	-0.488901
H	 0.9026671868	 1.9456761536	 0.1429587904	 0.138106
H	-0.5792982534	 1.9297597655	-0.8387347665	 0.112001
H	-0.6863750611	 1.8266919085	 0.9203857205	 0.114499
H	-1.0232275346	-0.4271930628	-0.0640772722	 0.074839
H	 0.5961323537	 0.9323762004	-2.7775529784	 0.133847
H	 1.0862064375	-0.6718406616	-3.3422824123	 0.124875
H	-0.5915764647	-0.3620621865	-2.8515733048	 0.123111
H	 2.4982560651	-1.8358373332	-1.4820226819	 0.092472
H	 2.2693566522	-2.281951201	 1.1816734026	 0.088166
H	-0.3803119468	 0.0570552146	 2.9004307579	 0.125812
H	-0.8614994822	-1.5410057332	 2.308984794	 0.119711
H	 0.6604795911	-1.3412352323	 3.2076930651	 0.129104
107.4233	169.908	181.3611	214.2157	228.6633	244.5206	257.7062	304.2816	374.706	476.4733	509.6508	547.0916	599.6204	697.568	722.0272	793.4723	828.526	852.3665	876.0082	958.279	997.7264	1011.1611	1027.5836	1038.1311	1065.6921	1095.2641	1107.1217	1129.566	1189.4758	1224.641	1274.0366	1304.3697	1327.4789	1340.7737	1402.0709	1406.7342	1411.3467	1448.4343	1476.5582	1482.3551	1486.3447	1495.1056	1499.6927	1504.8059	1695.8545	2989.0663	3017.8118	3031.5878	3039.2096	3064.8851	3092.0993	3102.7991	3111.4101	3121.9114	3125.0808	3153.0905	3198.9094
CC1C(C)=CC2OC12C	C[C@H]1C(=C[C@H]2O[C@@]12C)C	
InChI=1S/C8H12O/c1-5-4-7-8(3,9-7)6(5)2/h4,6-7H,1-3H3	InChI=1S/C8H12O/c1-5-4-7-8(3,9-7)6(5)2/h4,6-7H,1-3H3/t6-,7+,8-/m0/s1
