21
gdb 97710	4.82768	0.69506	0.679	0.2689	95.72	-0.2389	0.0495	0.2884	1784.1256	0.183075	-349.888513	-349.879542	-349.878598	-349.923647	33.693	
C	-0.0351912414	 1.542197717	 0.0387504545	-0.363429
C	 0.0253169224	 0.0054872728	-0.0389902232	-0.336981
C	 0.7053171249	-0.4824590779	-1.2336722634	 0.426788
C	 1.2699908121	-0.8712757269	-2.2260894911	-0.462989
C	 1.9412417437	-1.3375370261	-3.4056549799	 0.291761
C	 3.4206176071	-1.0560287053	-3.8411789276	-0.243331
C	 2.8260250232	-1.9551640827	-4.960438478	-0.081297
C	 2.1968312285	-2.8237493358	-3.835891648	-0.243008
C	 1.5492971724	-1.0713771956	-4.8999897219	-0.243326
H	 0.9707851975	 1.9704771109	 0.0473389232	 0.127615
H	-0.5688761363	 1.9538429643	-0.8221886595	 0.127616
H	-0.5529147102	 1.8581810398	 0.9494301866	 0.112917
H	 0.5314764402	-0.3858279751	 0.8532500262	 0.12787
H	-0.9935931728	-0.4022918404	-0.0080686692	 0.127871
H	 3.6543994632	-0.0216873393	-4.1071440008	 0.092884
H	 4.1985881075	-1.4962671674	-3.2117742728	 0.093105
H	 3.335342373	-2.3103829291	-5.8554416977	 0.073535
H	 2.8844755154	-3.3945489752	-3.2062215559	 0.093205
H	 1.3100906987	-3.4073973326	-4.0970418301	 0.093207
H	 0.6146951555	-1.5256831602	-5.2395838015	 0.093105
H	 1.6440116153	-0.038168075	-5.2446027698	 0.092884
27.294	76.3478	97.8662	190.9379	221.4776	328.1009	395.3927	468.4321	497.2148	543.0745	557.4342	573.5914	787.6284	791.2248	793.0531	851.4763	895.414	942.3394	942.9374	961.3274	963.5757	992.1941	1051.6697	1089.4545	1097.2233	1097.4143	1105.2761	1129.0912	1129.1958	1161.4195	1161.857	1233.4599	1233.876	1245.9947	1286.182	1320.9633	1359.4121	1409.4038	1475.11	1494.8928	1496.5817	1498.1465	1505.6332	1551.7501	2356.5425	3016.3577	3042.852	3043.7226	3048.4406	3048.5064	3056.072	3113.9874	3116.7522	3119.7754	3120.2278	3121.9897	3123.2219
CCC#CC12CC(C1)C2	CCC#C[C@@]12C[C@@H](C1)C2	
InChI=1S/C9H12/c1-2-3-4-9-5-8(6-9)7-9/h8H,2,5-7H2,1H3	InChI=1S/C9H12/c1-2-3-4-9-5-8(6-9)7-9/h8H,2,5-7H2,1H3/t8-,9+
