19
gdb 109721	2.54853	0.95444	0.88471	3.0646	81.27	-0.24	0.0374	0.2774	1440.3458	0.157162	-422.979992	-422.96971	-422.968766	-423.01637	36.323	
C	 0.0984402052	 1.4676628496	 0.2258646674	-0.50194
C	 0.0468152298	 0.0170864085	 0.1045054789	 0.099363
C	 0.0075728652	-1.1809406198	-0.0410420872	 0.040356
C	-0.0239601837	-2.6115820165	-0.1250566675	-0.272285
C	-0.5891185186	-3.369829401	 1.0688121633	 0.097006
O	-1.1286443984	-2.6460046932	 2.1381845243	-0.428779
C	-1.3481299751	-3.3884703411	-0.2252584756	-0.082107
C	-2.6852269126	-2.6704191826	-0.2774759012	-0.091537
O	-3.6204959568	-3.2353037192	 0.6250869284	-0.426379
H	 0.844191642	 1.7838709548	 0.9635052942	 0.150806
H	 0.3599148367	 1.9323092999	-0.7311312783	 0.155294
H	-0.870190386	 1.8742298704	 0.5363459627	 0.153784
H	 0.8300737305	-3.0648007246	-0.619574264	 0.115167
H	-0.0641807333	-4.2651938406	 1.3908752975	 0.105723
H	-0.7828874116	-1.7435725777	 2.0906606913	 0.291555
H	-1.2887573652	-4.3107835711	-0.7953190085	 0.098265
H	-2.5403890953	-1.598471082	-0.0883935014	 0.094982
H	-3.1209140045	-2.7652912662	-1.2769764928	 0.107561
H	-3.2344635985	-3.1145707578	 1.5018764488	 0.293165
43.2115	66.3191	87.3363	106.8686	181.8115	237.0586	265.6127	291.424	338.668	383.5831	411.9997	538.7909	556.1841	601.2878	651.0306	744.5139	775.4758	834.83	924.7735	968.4482	1017.8305	1050.636	1053.5591	1062.5509	1071.5483	1118.8344	1129.6692	1179.3973	1231.0532	1242.2737	1339.9924	1360.8636	1370.8486	1405.0255	1413.3389	1423.7046	1440.6522	1476.5833	1478.7779	1504.8928	2352.2444	3015.8058	3028.3798	3078.5187	3089.0483	3091.6782	3139.0416	3146.2345	3160.2672	3727.0313	3776.7643
CC#CC1C(O)C1CO	CC#C[C@H]1[C@@H](O)[C@H]1CO	
InChI=1S/C7H10O2/c1-2-3-5-6(4-8)7(5)9/h5-9H,4H2,1H3	InChI=1S/C7H10O2/c1-2-3-5-6(4-8)7(5)9/h5-9H,4H2,1H3/t5-,6+,7-/m1/s1
