15
gdb 26038	3.20291	1.26554	0.99713	3.6031	70.75	-0.2586	-0.0164	0.2422	1159.4927	0.113491	-416.854615	-416.846556	-416.845612	-416.888401	28.673	
C	 0.2245974088	 1.6235475436	-0.1275474719	-0.383268
C	 0.01343032	 0.1153990655	 0.101844107	-0.254847
C	 0.3700065661	-0.6588591992	-1.0977280589	 0.2764
N	 0.6437140496	-1.2522641001	-2.0502246162	-0.315582
C	 0.7852468406	-0.3765279652	 1.2952309908	 0.421524
N	 1.614498695	 0.2805275403	 2.0382688962	-0.303876
C	 2.0218416822	-0.6395546576	 2.9984261605	-0.113839
C	 1.4011062302	-1.8187484167	 2.7693890709	-0.035342
O	 0.5972117398	-1.6637494382	 1.6744950912	-0.172293
H	 1.2783603049	 1.8387701034	-0.3101834969	 0.158229
H	-0.3629863384	 1.9550334511	-0.985845717	 0.136805
H	-0.0874157517	 2.1750387475	 0.7609261848	 0.143832
H	-1.0516943675	-0.0757118932	 0.2900867536	 0.152565
H	 2.7257743473	-0.3793579355	 3.772206148	 0.133646
H	 1.4027067531	-2.7903600558	 3.2317809479	 0.156046
31.4398	109.6244	186.6703	214.1562	228.401	305.5809	409.9437	480.7627	569.9412	629.4541	671.3095	770.2079	789.3881	861.5188	868.1618	932.0418	958.7138	1022.2479	1078.1614	1108.9178	1120.4875	1150.3625	1169.7064	1222.6879	1307.334	1326.4388	1390.1932	1415.8318	1487.5992	1493.0589	1553.2008	1617.9311	2362.8609	3025.8645	3067.3128	3149.0139	3155.1074	3269.9605	3305.3569
CC(C#N)C1=NC=CO1	C[C@@H](C#N)c1ncco1	
InChI=1S/C6H6N2O/c1-5(4-7)6-8-2-3-9-6/h2-3,5H,1H3	InChI=1S/C6H6N2O/c1-5(4-7)6-8-2-3-9-6/h2-3,5H,1H3/t5-/m0/s1
