18
gdb 64869	3.50922	0.91432	0.824	2.5893	77.89	-0.2626	-0.0405	0.2221	1395.7359	0.146242	-401.967017	-401.957903	-401.956959	-402.001431	33.095	
C	-0.2189072242	 1.6112099953	-0.0132946828	-0.446902
C	-0.032078276	 0.0883013332	 0.0013671512	 0.162897
C	 1.1512107392	-0.3973332235	-0.9027385978	-0.282565
C	 2.0685654224	-0.4703808509	 0.3559939555	-0.06887
C	 0.7833648852	-0.4218513342	 1.2375763948	-0.282563
C	 2.9156302245	-1.7075612462	 0.4874067574	 0.157862
O	 4.1010926297	-1.7167860875	 0.6910675198	-0.243959
C	-1.3058236893	-0.5865430173	-0.2252766402	 0.23674
N	-2.308264832	-1.1348161726	-0.4038397727	-0.33963
H	 0.739840124	 2.1097509532	 0.15719241	 0.129612
H	-0.6139206553	 1.9450717421	-0.9768364026	 0.141318
H	-0.91419065	 1.9250561248	 0.770282827	 0.141318
H	 0.9594447577	-1.3862667088	-1.3271304233	 0.130822
H	 1.457935	 0.280153714	-1.701422533	 0.127801
H	 2.7040707464	 0.4082375448	 0.4752809438	 0.101844
H	 0.8032819539	 0.2365191537	 2.1077004904	 0.127801
H	 0.4647059601	-1.4192409478	 1.5514908934	 0.130822
H	 2.3405188735	-2.6588752124	 0.377630759	 0.075652
59.024	72.9579	183.0368	187.6643	253.2187	273.0407	287.0699	361.77	365.8177	419.6827	569.2327	580.8332	603.325	751.053	833.6342	895.4847	908.0999	927.7017	928.1796	959.4684	1056.9551	1059.814	1086.1438	1170.8186	1179.2274	1196.5574	1247.0882	1266.9073	1271.8571	1295.9073	1330.9255	1415.5849	1429.6651	1469.1077	1487.5871	1492.8266	1498.6449	1834.6944	2350.009	2843.8351	3042.8961	3066.573	3070.5713	3104.5975	3118.9867	3121.8875	3129.6993	3133.1395
CC1(CC(C1)C=O)C#N	C[C@]1(C[C@@H](C1)C=O)C#N	
InChI=1S/C7H9NO/c1-7(5-8)2-6(3-7)4-9/h4,6H,2-3H2,1H3	InChI=1S/C7H9NO/c1-7(5-8)2-6(3-7)4-9/h4,6H,2-3H2,1H3/t6-,7+
