16
gdb 125308	3.17589	1.59253	1.07474	3.4796	77.8	-0.2242	-0.0192	0.205	1073.7205	0.125855	-400.758092	-400.75097	-400.750026	-400.789509	27.79	
C	-0.0224778235	 1.5351926319	 0.0117558128	-0.504926
C	-0.0080519031	 0.0396886137	 0.0087702543	 0.187707
C	-0.0262862214	-0.7815770481	-1.0634448581	-0.178418
C	-0.0028974718	-2.2593851274	-0.6949677636	-0.409362
C	 0.0329150171	-2.1668525742	 0.805042195	 0.36678
N	 0.0653577393	-3.0025853577	 1.8019256844	-0.241736
O	 0.0853131438	-2.1747305184	 2.9393565705	-0.180229
C	 0.0630381498	-0.8736937632	 2.559719381	-0.097742
C	 0.0293935436	-0.7994300751	 1.2066482211	 0.124252
H	 0.8668399503	 1.9370000889	 0.5118457641	 0.134232
H	-0.0520744786	 1.9343925926	-1.0050547916	 0.129935
H	-0.8929488078	 1.9199605525	 0.5564059611	 0.134205
H	-0.0548005158	-0.4458580403	-2.0932919149	 0.100319
H	-0.8863836491	-2.7961337688	-1.0613488714	 0.143272
H	 0.8718991805	-2.7789969209	-1.1043798373	 0.14327
H	 0.075804237	-0.1606882456	 3.3684939825	 0.148443
167.9702	181.7547	242.9946	248.0568	284.7299	504.6338	527.8131	578.4544	589.0239	658.0207	723.2793	761.3122	789.2785	808.9339	875.9961	941.0673	960.265	963.4938	1018.2317	1067.6586	1079.1213	1108.4624	1147.7105	1191.0735	1269.026	1280.5587	1337.2364	1400.8114	1415.9171	1450.7851	1478.7289	1489.5428	1571.9656	1654.9232	1672.7656	3026.2967	3037.9127	3067.2154	3075.9057	3118.998	3206.1905	3269.8649
CC1=CCC2=NOC=C12	CC1=CCc2nocc12	
InChI=1S/C7H7NO/c1-5-2-3-7-6(5)4-9-8-7/h2,4H,3H2,1H3	InChI=1S/C7H7NO/c1-5-2-3-7-6(5)4-9-8-7/h2,4H,3H2,1H3
