15
gdb 123952	3.578	1.67528	1.17773	2.015	66.87	-0.206	0.0267	0.2327	976.389	0.116339	-453.949986	-453.943304	-453.94236	-453.980976	26.256	
C	-0.0014993576	 1.4124882661	 0.0156367022	-0.107926
C	 1.4368461924	 1.9335524158	 0.0485140716	-0.101416
O	 2.1354348392	 1.4966593728	 1.2185521368	-0.262043
C	 1.8932176056	 0.1830461523	 1.4465886528	 0.342706
N	 2.6116733213	-0.5541796189	 2.2747066292	-0.326934
N	 2.0173039351	-1.7690278464	 2.2040196939	-0.19065
C	 0.9499742985	-1.8155301398	 1.358537477	-0.179246
C	 0.8422183572	-0.543299054	 0.8445183069	 0.208272
O	-0.0443117309	-0.0153085491	-0.0469293754	-0.283478
H	-0.5389547291	 1.7598382058	 0.9089786357	 0.118205
H	-0.5159429458	 1.7790117613	-0.8758675702	 0.121856
H	 1.9723255645	 1.5946102213	-0.8487505832	 0.119745
H	 1.4431036383	 3.0256938068	 0.0747307367	 0.124231
H	 2.3959603451	-2.5199925427	 2.7518292068	 0.277376
H	 0.3753902362	-2.7114515812	 1.1933483494	 0.139304
127.5186	241.8847	312.7427	351.5482	419.505	445.0597	476.4477	549.6414	638.843	704.7978	715.1983	732.1387	756.4298	888.2513	939.1752	942.8787	1060.3667	1074.5214	1091.8918	1120.8107	1189.9668	1229.1349	1272.8834	1294.3511	1330.1639	1389.5096	1401.5615	1442.5778	1479.6466	1489.6798	1494.6095	1573.7022	1657.1412	3011.7148	3023.9151	3109.5674	3110.9907	3274.1004	3701.8629
C1COC2=NNC=C2O1	C1COc2n[nH]cc2O1	
InChI=1S/C5H6N2O2/c1-2-9-5-4(8-1)3-6-7-5/h3H,1-2H2,(H,6,7)	InChI=1S/C5H6N2O2/c1-2-9-5-4(8-1)3-6-7-5/h3H,1-2H2,(H,6,7)
