21
gdb 41793	2.23449	1.9842	1.48454	1.167	81.95	-0.2321	0.0231	0.2552	1001.585	0.186471	-387.114858	-387.107368	-387.106424	-387.146871	30.23	
C	-0.0277402288	 1.5641253825	-0.2245866298	-0.231082
C	 1.4666429629	 1.96130559	-0.2377454642	-0.23108
C	 2.218411589	 0.6301503809	 0.0056439329	 0.102995
C	 2.749863667	 0.4717032155	 1.4354759378	-0.261159
C	 1.7486433101	 0.5816472263	 2.5596705558	-0.054419
C	 0.4584062201	 0.2387173327	 2.5710186303	-0.054419
C	-0.3744386276	-0.3586965592	 1.4629533235	-0.261158
C	-0.0153409037	 0.0364548978	 0.0252921384	 0.102997
O	 1.2932529223	-0.3996148699	-0.3347835602	-0.264217
H	-0.5880513761	 2.0919045211	 0.5508506842	 0.104034
H	-0.5004697725	 1.788090899	-1.1837463553	 0.101578
H	 1.7499650045	 2.3861966293	-1.2035701669	 0.101578
H	 1.7036743494	 2.7010187067	 0.5306576234	 0.104033
H	 3.0648388184	 0.5157253349	-0.6802153912	 0.073586
H	 3.2511098816	-0.5051904392	 1.5033659709	 0.116629
H	 3.5399627671	 1.2192740881	 1.5847964899	 0.097718
H	 2.165121914	 0.949990197	 3.4957644521	 0.082228
H	-0.0705468542	 0.3557763719	 3.5154277025	 0.082228
H	-0.3233614098	-1.4552398606	 1.5347976984	 0.116629
H	-1.4288564159	-0.1013757854	 1.6284965359	 0.097718
H	-0.7044181577	-0.4860772395	-0.6470676185	 0.073586
78.1895	124.6119	275.2235	313.3323	368.3255	376.3183	450.775	555.0253	689.8724	700.2065	737.1888	783.4284	804.3882	827.332	847.0787	880.1401	918.2871	923.3716	991.2876	993.7386	1015.2391	1027.9926	1052.8923	1084.4232	1091.4919	1111.2533	1166.8311	1229.8751	1237.0969	1251.8124	1264.0927	1278.6768	1316.0014	1333.3333	1346.7723	1358.3796	1376.8388	1383.2106	1412.5695	1436.2352	1461.8829	1463.7162	1485.1132	1506.2353	1725.9825	3001.0004	3001.4525	3038.422	3039.9746	3043.2528	3047.2969	3062.1257	3073.596	3098.168	3118.7228	3123.2313	3148.0683
C1CC2CC=CCC1O2	C1C[C@H]2CC=CC[C@@H]1O2	
InChI=1S/C8H12O/c1-2-4-8-6-5-7(3-1)9-8/h1-2,7-8H,3-6H2	InChI=1S/C8H12O/c1-2-4-8-6-5-7(3-1)9-8/h1-2,7-8H,3-6H2/t7-,8+
