19
gdb 41201	2.93631	1.70759	1.54134	0.7111	75.09	-0.2411	0.0482	0.2893	940.3621	0.161291	-422.905699	-422.898892	-422.897948	-422.936436	28.799	
C	 0.0620171611	 1.6135376974	-0.2430333765	-0.191645
O	 1.5059282475	 1.4329865196	 0.0263072706	-0.359514
C	 1.1204171586	 0.2748088754	 0.8633116635	 0.416811
C	 1.2732709389	-1.2754683337	 0.9382222446	-0.337763
C	-0.3504704527	-1.2068162717	 0.9782637825	 0.059022
O	-0.8333855818	-1.0201138379	 2.2711459352	-0.248189
C	-0.50540556	 0.2665993603	 2.7914909278	-0.063649
C	 0.8800643584	 0.7427471864	 2.3219913952	-0.283868
C	-0.1174789608	 0.0869866432	 0.0667030093	-0.064502
H	-0.3828764131	 2.3216687264	 0.4632342869	 0.108928
H	-0.1168523774	 1.9341512379	-1.2718677163	 0.11755
H	 1.6275261446	-1.7504223071	 0.0225333904	 0.115694
H	 1.7525107587	-1.7123589888	 1.8190924455	 0.101251
H	-0.8941840032	-2.0452264854	 0.5400707676	 0.096163
H	-1.2674044859	 0.98282258	 2.4522821757	 0.101751
H	-0.5752271805	 0.1911187064	 3.8797491191	 0.111845
H	 1.6725408022	 0.3407038881	 2.9622544926	 0.105418
H	 0.9325915147	 1.8323234183	 2.3814063352	 0.114496
H	 0.1921654307	-0.3735888547	-0.8768846191	 0.100201
192.4023	234.6314	296.5028	387.4193	416.5469	441.5796	505.6801	532.8534	648.0587	652.4734	727.3121	791.5656	833.6855	844.1585	886.6402	922.701	926.652	960.0573	995.5778	1007.9197	1053.3886	1064.2816	1096.4749	1122.122	1137.7005	1139.9997	1179.7089	1203.7431	1207.0025	1246.4039	1258.6113	1276.1767	1300.7121	1340.4275	1371.6219	1408.3172	1440.9581	1477.6648	1498.4808	1506.6158	1520.9632	2998.9143	3036.9745	3045.5	3046.5882	3059.1803	3090.3483	3102.5664	3106.1634	3116.0117	3140.5994
C1OC23CC(OCC2)C13	C1O[C@@]23C[C@@H](OCC2)[C@@H]13	
InChI=1S/C7H10O2/c1-2-8-6-3-7(1)5(6)4-9-7/h5-6H,1-4H2	InChI=1S/C7H10O2/c1-2-8-6-3-7(1)5(6)4-9-7/h5-6H,1-4H2/t5-,6-,7-/m1/s1
