19
gdb 61818	3.33707	0.93422	0.79856	3.2385	72.29	-0.2449	-0.0212	0.2237	1428.0636	0.156016	-460.150698	-460.140943	-460.139999	-460.186143	35.192	
C	 0.0649707131	 1.5607571153	-0.0740098066	-0.476086
C	 0.0025154862	 0.0514099599	-0.0816336821	 0.390952
C	 1.1404684887	-0.7256167952	-0.5906625469	-0.229446
O	 0.9026377517	-0.6124718989	 0.8262982781	-0.289888
C	-1.3828581071	-0.6098317731	-0.1018263516	 0.036758
O	-1.2580722776	-2.011600129	 0.051320237	-0.433965
C	-2.3224441296	-0.0318336335	 0.9802105665	-0.304944
C	-3.6779627085	-0.7088995652	 0.9773441557	 0.153348
O	-4.7257949677	-0.1141972989	 0.9460906747	-0.243088
H	 1.1008052501	 1.9002657187	-0.1443252414	 0.131863
H	-0.4919572614	 1.973153055	-0.9224626965	 0.130745
H	-0.363786917	 1.9724017639	 0.8437134426	 0.139092
H	 0.9747040163	-1.7159726631	-1.005066526	 0.132317
H	 2.0246624593	-0.2007156878	-0.9470182874	 0.119739
H	-1.8306737153	-0.444010492	-1.0899189361	 0.106432
H	-0.5866572615	-2.133656111	 0.7393571032	 0.291887
H	-1.8568594426	-0.2038506525	 1.9618863266	 0.124878
H	-2.4820226311	 1.0421031263	 0.857402113	 0.122009
H	-3.640881646	-1.8173886289	 1.004958237	 0.097396
49.9095	78.5999	88.8088	163.8844	198.7526	273.3739	286.0673	361.7296	366.946	430.7471	451.9925	529.3105	555.7015	578.059	731.9059	824.1618	839.0614	879.3418	929.4389	945.531	1014.0312	1045.4762	1078.4114	1099.288	1125.45	1137.0369	1177.7622	1205.5977	1250.4536	1272.3915	1312.7791	1356.8629	1388.0381	1415.8561	1422.1923	1432.7826	1459.7273	1484.8146	1500.0876	1519.0404	1827.8577	2926.4909	3012.3291	3037.3577	3043.5599	3101.8616	3108.8335	3113.0913	3128.7826	3198.6478	3722.9898
CC1(CO1)C(O)CC=O	C[C@]1(CO1)[C@@H](O)CC=O	
InChI=1S/C6H10O3/c1-6(4-9-6)5(8)2-3-7/h3,5,8H,2,4H2,1H3	InChI=1S/C6H10O3/c1-6(4-9-6)5(8)2-3-7/h3,5,8H,2,4H2,1H3/t5-,6-/m0/s1
