18
gdb 42416	2.91955	1.02674	0.82592	3.7414	77.57	-0.2872	-0.0857	0.2016	1383.5309	0.146987	-401.959195	-401.950139	-401.949194	-401.994707	32.022	
O	-0.5699364205	 0.2383922365	 1.326403257	-0.261089
C	-0.025786961	 1.0394699676	 0.6089351018	 0.301303
C	 1.3495298934	 1.6179254789	 0.8365040068	-0.334867
C	 2.4084697768	 0.9189075409	-0.0323813057	 0.042588
C	 2.4657347123	 1.1724482019	-1.5673530709	-0.223445
C	 4.0145397427	 1.1702443369	-1.462144186	-0.216677
C	 3.8730645605	 1.4299593067	 0.0621675635	-0.23512
C	-0.7096602164	 1.4976993692	-0.6254745791	 0.231103
N	-1.2421301811	 1.8685933296	-1.5828861409	-0.310716
H	 1.3392145436	 2.6902814156	 0.6075539001	 0.124983
H	 1.5843602561	 1.4811058095	 1.8964794385	 0.136254
H	 2.3767461936	-0.1573218805	 0.1694050198	 0.093932
H	 1.9912164609	 0.4404490073	-2.2239273716	 0.112379
H	 2.0814964479	 2.1646073292	-1.8234733077	 0.114134
H	 4.4338575153	 0.1814820262	-1.6670201462	 0.109786
H	 4.5617950249	 1.9086441378	-2.0512417203	 0.105393
H	 3.9046619484	 2.5001208771	 0.2915981203	 0.104493
H	 4.5471950125	 0.9070844698	 0.7444657906	 0.105566
26.9728	67.3051	114.1177	158.4386	174.8915	275.0857	330.778	370.7326	446.3808	587.5611	618.5748	696.6354	754.3523	775.637	810.5415	889.2981	913.7918	934.7328	964.7156	971.5347	1026.9478	1089.327	1100.3491	1164.1687	1202.9937	1229.7921	1258.6955	1263.1392	1270.2291	1275.6832	1298.1865	1318.3674	1368.0195	1467.2531	1478.032	1487.1398	1509.7718	1794.8224	2334.2148	3034.2971	3046.6965	3051.4633	3060.2618	3064.5583	3100.7782	3105.181	3111.6326	3125.857
O=C(CC1CCC1)C#N	O=C(CC1CCC1)C#N	
InChI=1S/C7H9NO/c8-5-7(9)4-6-2-1-3-6/h6H,1-4H2	InChI=1S/C7H9NO/c8-5-7(9)4-6-2-1-3-6/h6H,1-4H2
