18
gdb 104949	2.70087	0.85281	0.70357	4.1751	86.19	-0.2606	-0.0605	0.2001	1608.1819	0.14546	-401.901436	-401.891566	-401.890621	-401.937494	34.286	
C	-0.0849486942	 1.4079210262	 0.1753040063	-0.3831
C	 0.344555318	-0.0605176447	 0.0915950019	-0.260821
C	 0.7423403496	-0.4929697978	-1.3154741156	 0.070231
C	 0.4645246863	-1.9024096313	-1.7466966532	-0.267659
N	-0.3244377779	-0.8057545321	-2.30610743	-0.323746
C	 1.8951152993	 0.1684130253	-1.8672364317	 0.148557
C	 2.8868435749	 0.7256655189	-2.2774590904	 0.040441
C	 4.0485382556	 1.3757004403	-2.8208304756	 0.014119
O	 4.8524742534	 2.0054452531	-2.1704868682	-0.234335
H	 0.7284205921	 2.0702603178	-0.1347851792	 0.142514
H	-0.9456708586	 1.6094601936	-0.4708489835	 0.119884
H	-0.3635130851	 1.6707254118	 1.1996485233	 0.120924
H	 1.190007439	-0.2392418927	 0.7658610585	 0.121007
H	-0.4698555554	-0.7134847544	 0.42952747	 0.09611
H	 1.1350366401	-2.3883940359	-2.4482136796	 0.135086
H	 0.0180932316	-2.5588344559	-1.0038520189	 0.123075
H	-1.225722597	-0.7480062104	-1.835306629	 0.237846
H	 4.1596381981	 1.2553546482	-3.9178503852	 0.099866
46.9266	69.2119	96.416	127.4423	194.6796	220.3709	237.8115	280.7475	338.8741	430.6195	517.0768	544.1109	594.5472	704.9816	779.9203	837.823	850.1771	922.0733	974.1195	990.9479	1021.243	1033.3285	1092.5548	1102.3905	1124.6629	1148.668	1246.1262	1277.5133	1300.4816	1364.9809	1389.1816	1415.142	1421.7566	1477.0333	1497.9941	1504.1576	1506.3056	1762.9958	2319.2016	2917.6025	3026.2326	3041.0228	3067.6648	3110.8225	3111.3937	3120.0801	3205.0918	3484.9033
CCC1(CN1)C#CC=O	CC[C@]1(CN1)C#CC=O	
InChI=1S/C7H9NO/c1-2-7(6-8-7)4-3-5-9/h5,8H,2,6H2,1H3	InChI=1S/C7H9NO/c1-2-7(6-8-7)4-3-5-9/h5,8H,2,6H2,1H3/t7-/m1/s1
