19
gdb 52948	3.11507	0.95562	0.8542	1.1325	88.8	-0.2046	0.0475	0.252	1450.81	0.157092	-385.840366	-385.83058	-385.829636	-385.876471	35.178	
C	-0.0518183111	 1.4870181628	 0.0561838947	-0.507887
C	-0.0312291958	 0.0323316259	 0.0215971546	 0.229577
C	-0.0100371484	-1.1742974728	-0.0055825165	-0.208291
C	 0.0018732583	-2.5924682877	-0.0707262557	 0.153608
C	-0.3668011522	-3.4757308544	 1.1260751006	-0.400548
C	-1.1631160283	-3.6389503844	-0.1196215298	 0.369978
O	-2.5297719208	-3.5024122546	-0.2159881458	-0.450175
C	-0.413802353	-4.4558987808	-1.1601239351	-0.2677
C	 0.7825977867	-3.4529230068	-1.0789986705	-0.289421
H	 0.7809803866	 1.9064550358	-0.5198282097	 0.147464
H	-0.9791436895	 1.8888269078	-0.3686687837	 0.144672
H	 0.0348547606	 1.8668093828	 1.0807715713	 0.143828
H	 0.322406265	-4.2442690835	 1.4765241384	 0.106808
H	-0.8640912052	-2.9292215462	 1.9233861527	 0.113636
H	-2.8751626375	-3.1743858991	 0.6199217683	 0.28977
H	-0.2189648388	-5.5024120382	-0.9026797281	 0.097036
H	-0.9115923856	-4.4158348082	-2.1311251751	 0.116777
H	 0.9647165141	-2.9358973381	-2.0221743773	 0.114826
H	 1.728644935	-3.8605121003	-0.7078300934	 0.096041
20.2927	77.046	97.9794	150.5481	218.0438	222.5626	301.9164	359.4886	390.7449	416.2079	488.198	520.0975	599.0586	660.9717	715.832	788.9732	824.2817	912.9524	940.5759	962.0543	988.0967	1050.1646	1053.7243	1064.1447	1077.5336	1111.0284	1126.7168	1162.5545	1209.0674	1240.5834	1258.4941	1346.7908	1390.1152	1410.1902	1421.0533	1476.623	1478.3762	1480.0471	1483.233	1516.0631	2353.2515	3019.891	3043.0564	3050.9625	3076.6242	3078.3612	3080.8901	3107.4654	3125.2035	3178.2997	3828.935
CC#CC12CC1(O)CC2	CC#C[C@@]12C[C@]1(O)CC2	
InChI=1S/C8H10O/c1-2-3-7-4-5-8(7,9)6-7/h9H,4-6H2,1H3	InChI=1S/C8H10O/c1-2-3-7-4-5-8(7,9)6-7/h9H,4-6H2,1H3/t7-,8-/m1/s1
