19
gdb 84891	2.27647	1.80669	1.2988	1.8505	76.36	-0.2398	0.0097	0.2495	1040.9388	0.159772	-423.010829	-423.002729	-423.001785	-423.04319	32.088	
O	 0.0736414758	 1.4341924441	-0.0470013709	-0.432622
C	 0.0286228603	 0.0064564483	-0.0166506208	 0.027833
C	 0.7591762437	-0.5307816596	 1.1919630647	-0.100163
C	 0.1050462533	-1.0901718743	 2.2075169831	-0.065194
C	-1.392981835	-1.2127442236	 2.2144529359	-0.140383
O	-2.011328974	-0.3946888078	 1.2323032089	-0.298499
C	-1.3927826232	-0.5218705695	-0.0259513286	 0.410664
C	-2.283630416	-0.2942381495	-1.1977800045	-0.326746
C	-1.7851753071	-1.6947337715	-0.8910644526	-0.334174
H	-0.4050530859	 1.7334492075	 0.7351995495	 0.280466
H	 0.5379952314	-0.3073632979	-0.9345921911	 0.085305
H	 1.8379056112	-0.4076296834	 1.2133143585	 0.098021
H	 0.63124823	-1.4819172393	 3.0744996891	 0.097063
H	-1.687437246	-2.2687176447	 2.0789137981	 0.103272
H	-1.8021054971	-0.889547172	 3.1783722521	 0.117335
H	-3.3241362477	-0.0804466608	-0.9821387391	 0.122853
H	-1.8728832501	 0.2369380347	-2.0489633537	 0.123653
H	-1.0389924987	-2.1401362622	-1.5404583548	 0.114017
H	-2.502774115	-2.3939174784	-0.4764579739	 0.1173
90.5576	173.7236	219.6539	250.0245	297.8562	354.5916	390.1385	443.7566	507.2343	531.3118	582.8195	709.2114	752.1523	769.2835	848.2216	883.8295	912.9036	924.0397	970.1438	992.2941	1003.9605	1013.2588	1045.4624	1054.4961	1067.6867	1076.5611	1110.4332	1183.4091	1186.194	1256.0191	1267.1706	1282.936	1291.2664	1379.5483	1400.221	1405.8858	1432.4541	1455.0252	1483.1077	1499.5779	1718.2608	2948.9989	3052.8825	3059.0889	3132.9139	3141.2445	3154.7627	3180.5905	3217.5246	3233.6373	3793.4803
OC1C=CCOC11CC1	O[C@H]1C=CCOC21CC2	
InChI=1S/C7H10O2/c8-6-2-1-5-9-7(6)3-4-7/h1-2,6,8H,3-5H2	InChI=1S/C7H10O2/c8-6-2-1-5-9-7(6)3-4-7/h1-2,6,8H,3-5H2/t6-/m0/s1
