17
gdb 67152	2.5833	1.77501	1.63476	3.2109	73.77	-0.2318	-0.0091	0.2227	928.582	0.136738	-417.941476	-417.934228	-417.933284	-417.97288	28.671	
C	-0.0000673726	 1.6037725184	-0.0501344023	-0.526511
C	-0.0307508246	 0.1097307696	-0.0494813033	 0.34502
C	 0.551495567	-0.9166665453	-1.057238566	 0.038428
C	 1.4559345343	-1.4240091839	 0.0813022691	-0.201886
N	 0.6183842258	-0.6770217466	 1.1060490385	-0.233438
C	-0.6471976247	-1.3801197334	 1.300193422	 0.39746
N	-1.0737078414	-2.1223777067	 2.2195997769	-0.53887
C	-1.2507289597	-0.8544574605	 0.0106616967	-0.040999
O	-0.7029350396	-1.6333338199	-1.0941085143	-0.299452
H	 1.0305023358	 1.973225301	-0.0570195788	 0.133812
H	-0.5148839167	 2.0026895735	-0.9301137908	 0.133895
H	-0.4914842989	 1.9974755064	 0.8454845367	 0.139303
H	 0.9509567012	-0.7357241356	-2.0572266298	 0.088787
H	 1.5141123618	-2.5042424292	 0.2350204749	 0.127545
H	 2.4622627226	-0.9944881236	 0.0521782011	 0.117926
H	-0.3487290072	-2.2651700522	 2.9289348823	 0.225237
H	-2.314473303	-0.644935992	-0.1073441228	 0.093741
131.3743	211.4395	232.6353	273.0993	298.0506	407.6141	460.0842	590.0135	621.2191	678.556	765.8262	812.8088	832.2273	849.1634	858.3547	909.8891	932.2205	969.8238	983.1035	1009.2244	1022.9079	1081.0572	1131.2571	1155.6064	1165.4567	1185.1781	1215.9879	1251.2439	1282.7327	1299.9608	1313.8913	1361.8141	1418.5038	1482.9818	1483.8249	1486.0544	1801.2838	3034.9147	3049.4572	3092.6671	3105.7327	3108.7234	3112.2561	3117.2064	3433.7167
CC12C3CN1C(=N)C2O3	C[C@@]12[C@H]3CN1[C]([NH])[C@@H]2O3	
InChI=1S/C6H8N2O/c1-6-3-2-8(6)5(7)4(6)9-3/h3-4,7H,2H2,1H3	InChI=1S/C6H8N2O/c1-6-3-2-8(6)5(7)4(6)9-3/h3-4,7H,2H2,1H3/t3-,4+,6+/m1/s1
