17
gdb 51343	6.58114	0.90651	0.88998	1.6533	76.16	-0.244	0.0198	0.2638	1316.799	0.136312	-417.893207	-417.885683	-417.884739	-417.926595	28.02	
N	-0.0258326123	 1.3441944275	 0.0832521684	-0.440784
C	 0.0118533874	 0.0837716444	 0.0689853907	 0.12401
O	-1.1172330081	-0.6217524778	-0.1478795657	-0.208458
C	-1.0394131792	-2.0267970068	-0.0298690142	 0.160726
C	-1.7306112409	-2.6775226646	 1.1723041869	-0.059904
C	-3.1649414088	-2.4678952038	 0.5934274911	-0.056828
C	-3.4201589532	-3.961605309	 0.7536867441	-0.184816
N	-1.9459931443	-3.9772439027	 0.345964408	-0.172382
C	-2.2259487282	-2.7833839149	-0.6125883411	-0.063242
H	 0.9089294078	 1.71718023	 0.235154918	 0.230676
H	 0.9007564067	-0.5474453561	 0.2068691417	 0.088545
H	-0.0441745419	-2.4078219721	-0.2852292611	 0.099811
H	-1.4276656386	-2.7289955813	 2.2190597539	 0.08905
H	-3.8249400412	-1.6075429772	 0.7242911974	 0.088945
H	-3.5946884228	-4.3544906844	 1.7605079321	 0.106277
H	-4.0744427153	-4.4577180816	 0.0296370709	 0.106655
H	-2.5006123372	-2.9566442795	-1.6535436611	 0.091719
29.6454	106.0788	128.0342	282.9008	346.82	424.8158	481.3466	682.4899	709.0558	801.2064	820.8829	826.3259	845.8413	872.0789	916.4035	931.939	966.1686	1029.1021	1036.4567	1042.3627	1044.9581	1071.9853	1102.1197	1126.386	1161.9335	1164.8771	1168.9267	1202.6957	1233.4501	1257.9077	1273.266	1291.2093	1321.9241	1389.9089	1427.8292	1521.6791	1747.5953	3020.9521	3039.8211	3052.5006	3084.0911	3099.3529	3110.1485	3119.0087	3519.3609
N=COC1C2C3CN2C13	[NH][CH]O[C@H]1[C@H]2[C@@H]3CN2[C@H]13	
InChI=1S/C6H8N2O/c7-2-9-6-4-3-1-8(4)5(3)6/h2-7H,1H2	InChI=1S/C6H8N2O/c7-2-9-6-4-3-1-8(4)5(3)6/h2-7H,1H2/t3-,4+,5-,6-
