19
gdb 69581	3.5872	1.31657	1.18433	2.9846	82.07	-0.2282	0.0089	0.2371	1114.7706	0.160452	-382.025271	-382.017414	-382.01647	-382.057206	31.599	
C	-0.0645354641	 1.5393056706	 0.0372898187	-0.492038
C	 0.0913814974	 0.0420523096	-0.0030756076	 0.297
N	-0.7438008982	-0.8257272268	 0.8820303016	-0.370753
C	 0.732781371	-0.7760358869	 1.0612601457	-0.232612
C	 1.4654258309	-1.9089859102	 0.3853590105	 0.375806
C	 2.7540993329	-2.427818875	 0.9259724387	-0.29704
N	 1.55017888	-3.2675983891	 0.9549779724	-0.354485
C	 1.1571264261	-1.750554343	-1.0674275994	-0.139672
C	 0.4170442167	-0.6625181496	-1.2909297899	-0.125731
H	 0.8061351815	 2.0375054415	-0.4022760146	 0.129096
H	-0.9493502019	 1.8571914565	-0.5264812562	 0.127465
H	-0.1754745081	 1.8983878435	 1.0657772507	 0.113743
H	-1.1589937425	-0.2346910263	 1.6029830803	 0.220233
H	 1.1367380482	-0.3322132912	 1.9662642266	 0.083829
H	 3.5333094121	-2.7654236089	 0.2476335784	 0.117297
H	 3.1207662336	-1.9902576013	 1.8526625515	 0.107672
H	 1.1346767216	-3.2720324817	 1.8834811255	 0.235919
H	 1.4777794598	-2.4783456821	-1.8028310432	 0.106622
H	 0.051445723	-0.3254183094	-2.2538763396	 0.09765
113.4369	210.14	215.4824	246.5273	318.1814	356.3412	405.9127	458.318	526.9481	605.5281	632.2236	749.251	775.4286	829.6333	848.3191	871.5489	907.0512	918.0261	943.0747	951.1082	970.6562	982.6674	1024.6272	1053.6548	1065.6332	1100.9492	1122.0009	1138.652	1166.2461	1253.0203	1267.908	1290.564	1339.5816	1367.	1374.9029	1417.9759	1447.776	1484.8192	1500.2683	1508.2029	1662.9681	3025.842	3088.7816	3094.7709	3100.1926	3151.4455	3181.2381	3192.7043	3219.1423	3454.1139	3499.3391
CC12NC1C1(CN1)C=C2	C[C@]12N[C@H]1[C@]1(CN1)C=C2	
InChI=1S/C7H10N2/c1-6-2-3-7(4-8-7)5(6)9-6/h2-3,5,8-9H,4H2,1H3	InChI=1S/C7H10N2/c1-6-2-3-7(4-8-7)5(6)9-6/h2-3,5,8-9H,4H2,1H3/t5-,6-,7-/m1/s1
