17
gdb 54784	3.68957	1.37024	1.2219	3.2919	72.91	-0.2308	-0.0035	0.2273	1039.5742	0.137797	-417.990725	-417.983344	-417.9824	-418.022585	29.534	
N	-0.10956424	 1.3346586244	-0.2015820214	-0.551305
C	-0.0235772592	-0.0469085781	-0.087695577	 0.397777
O	 0.9306313087	-0.6857989087	-0.4915149341	-0.391494
N	-1.1141396063	-0.6202077642	 0.5590420467	-0.119561
C	-2.5562385115	-0.3630685845	 0.1275038324	-0.079708
C	-2.345318087	-1.4702937516	-0.9566481329	-0.210301
C	-1.48393029	-2.0480468338	 0.2183023921	-0.047833
C	-2.5704993376	-2.2865460076	 1.2759637855	-0.073422
C	-3.2859720968	-1.1606215142	 1.2174061284	-0.071116
H	 0.7792185523	 1.7638090145	-0.4123254511	 0.258549
H	-0.6459417548	 1.8179174513	 0.5032349699	 0.252767
H	-2.8531519278	 0.6583511203	-0.101573842	 0.081694
H	-3.2193657085	-2.0383570592	-1.2825348721	 0.09897
H	-1.7368649863	-1.1377386352	-1.8017605774	 0.124457
H	-0.6671104351	-2.7488551993	 0.0759086095	 0.105669
H	-2.6801717749	-3.1605030929	 1.9003517792	 0.113604
H	-4.1516526853	-0.8418079214	 1.7786402742	 0.111252
90.1586	145.9069	191.5949	375.5689	439.9741	473.1278	498.3112	551.1305	571.0636	644.6332	660.8854	749.3271	763.967	803.5946	837.2289	841.9662	896.9593	916.5449	928.3752	982.6935	995.7357	1031.1396	1076.7132	1087.63	1128.0255	1150.3277	1156.5237	1224.2366	1237.5414	1252.3237	1276.612	1319.4055	1391.3	1499.1267	1617.9942	1620.9649	1783.7315	3061.2063	3131.9368	3146.6646	3181.45	3233.2402	3259.5538	3572.2885	3687.0947
NC(=O)N1C2CC1C=C2	NC(=O)N1[C@H]2C[C@@H]1C=C2	
InChI=1S/C6H8N2O/c7-6(9)8-4-1-2-5(8)3-4/h1-2,4-5H,3H2,(H2,7,9)	InChI=1S/C6H8N2O/c7-6(9)8-4-1-2-5(8)3-4/h1-2,4-5H,3H2,(H2,7,9)/t4-,5+
