18
gdb 64960	3.10475	1.19483	1.00554	1.6159	73.94	-0.2562	-0.0379	0.2183	1222.5896	0.146293	-439.05632	-439.047351	-439.046407	-439.090545	32.602	
C	 0.6001582534	 1.4069247578	-0.9250258977	-0.463648
C	 0.0317024616	 0.2706571266	-0.1114171615	 0.309514
C	 0.845549558	-0.9315084032	 0.180944457	-0.222209
O	 0.6115125807	 0.0460540106	 1.1847228185	-0.257504
C	-1.4661303267	 0.0912885186	-0.1809800921	 0.326728
O	-2.0930786745	 0.5122194824	-1.1347570766	-0.348707
C	-2.1486151663	-0.6123129839	 0.9460974502	-0.110047
C	-3.3999173386	 0.04197112	 1.4549712152	-0.218341
N	-3.4798145725	-1.1772468595	 0.6657946685	-0.309254
H	 1.6896260032	 1.4196824499	-0.8499713076	 0.125535
H	 0.3061039517	 1.301190999	-1.9714986655	 0.148561
H	 0.2139375856	 2.365473532	-0.5660246892	 0.136749
H	 0.3677466682	-1.8971532903	 0.3400205536	 0.128507
H	 1.859094356	-0.9707748232	-0.2155108093	 0.129457
H	-1.5321870002	-1.1628735259	 1.6451450625	 0.114801
H	-3.6429805995	-0.0610178329	 2.5083511283	 0.129687
H	-3.6843235601	 0.9820948214	 0.990971147	 0.132764
H	-3.70944163	-0.9194937892	-0.2953570813	 0.247406
63.1608	73.5811	165.4012	177.0461	239.3397	292.8632	316.4376	333.2687	377.9418	470.7567	529.5367	751.3527	765.0618	813.6868	844.4308	856.1992	891.1777	935.7601	968.8367	1006.4083	1010.3788	1078.2538	1101.8179	1123.4064	1125.6652	1140.5933	1167.0836	1187.5248	1281.7791	1305.7312	1320.1414	1365.2372	1406.8617	1412.3899	1476.9891	1492.9188	1495.5385	1523.5998	1767.9102	3053.4253	3085.1081	3114.8098	3123.639	3143.1271	3174.7324	3196.1851	3210.8065	3457.4888
CC1(CO1)C(=O)C1CN1	C[C@]1(CO1)C(=O)[C@H]1CN1	
InChI=1S/C6H9NO2/c1-6(3-9-6)5(8)4-2-7-4/h4,7H,2-3H2,1H3	InChI=1S/C6H9NO2/c1-6(3-9-6)5(8)4-2-7-4/h4,7H,2-3H2,1H3/t4-,6+/m1/s1
