19
gdb 83160	2.77661	1.42298	1.20799	4.2758	75.	-0.2538	0.0149	0.2686	1100.8393	0.160501	-423.05926	-423.051163	-423.050219	-423.092072	31.101	
C	-0.4911299075	 1.398932503	 0.1619275108	-0.412079
C	-0.0760243104	-0.0455303278	-0.0030233611	-0.046379
C	 0.686967746	-0.5602330384	-1.2151912581	-0.078582
C	 1.257337148	 0.3551050234	-2.2878790828	-0.251264
C	 2.7789882754	 0.4535436377	-2.0886403589	-0.330504
C	 3.1375988048	 0.9472109666	-0.6978123416	 0.413539
O	 4.0456372112	 1.6913701633	-0.4545262675	-0.319995
O	 2.3346906706	 0.5316620196	 0.3261129019	-0.223172
C	 1.3615034886	-0.4742240884	 0.1281923929	 0.076312
H	 0.3160871098	 2.0915037041	-0.0852828635	 0.13514
H	-1.3539097245	 1.6369739505	-0.4692069425	 0.119955
H	-0.7725946606	 1.5939923864	 1.201532134	 0.127761
H	-0.7881296267	-0.7585523924	 0.4044155775	 0.092137
H	 0.4310600257	-1.5603820325	-1.550763242	 0.09468
H	 1.0324216082	-0.0359561508	-3.2838183016	 0.111984
H	 0.8146201953	 1.3549610878	-2.2416083344	 0.118966
H	 3.2292239617	-0.5381465802	-2.2235130071	 0.131686
H	 3.2610872768	 1.1296703791	-2.7968986101	 0.133429
H	 1.6106356878	-1.3721590709	 0.6846030443	 0.106387
79.101	136.3064	159.9501	220.1287	277.5408	404.4607	419.2809	476.0767	527.0482	583.5131	629.9299	721.0073	761.8874	769.9671	785.093	906.3957	929.3386	954.5517	982.8364	995.6402	1052.2316	1082.1029	1110.006	1123.9631	1147.1725	1166.7106	1180.4706	1214.9813	1251.2462	1266.528	1335.716	1352.3871	1372.7594	1380.4023	1419.1065	1436.2723	1470.3222	1489.5874	1497.8847	1508.3751	1854.7831	3038.2625	3040.2805	3054.4692	3092.1632	3099.4348	3121.0462	3123.5958	3140.0684	3148.1641	3161.3104
CC1C2CCC(=O)OC12	C[C@H]1[C@H]2CCC(=O)O[C@@H]12	
InChI=1S/C7H10O2/c1-4-5-2-3-6(8)9-7(4)5/h4-5,7H,2-3H2,1H3	InChI=1S/C7H10O2/c1-4-5-2-3-6(8)9-7(4)5/h4-5,7H,2-3H2,1H3/t4-,5+,7-/m0/s1
