14
gdb 27682	2.85711	1.36146	0.92787	4.9539	74.88	-0.2266	-0.0297	0.1969	1180.0104	0.101757	-432.930364	-432.92211	-432.921166	-432.963226	29.989	
C	-0.0080432085	 1.5254997923	 0.1215639611	-0.500132
C	 0.0267211744	 0.0414732055	 0.0281461066	 0.186178
C	 0.0081743835	-0.7432687986	-1.0895939586	 0.145735
O	 0.0568138131	-2.0736564659	-0.6707259115	-0.213502
C	 0.1004751232	-1.9804233155	 0.6691511916	 0.474259
N	 0.211033157	-3.1408367552	 1.3641248839	-0.591641
N	 0.0822815788	-0.7658858992	 1.1487960851	-0.372138
C	-0.0518165294	-0.4682181329	-2.4628238534	 0.21359
N	-0.1030396023	-0.2101008954	-3.5932145889	-0.351579
H	 0.8856982042	 1.89538614	 0.6344844763	 0.150771
H	-0.0602472265	 1.9815546868	-0.8691134123	 0.148091
H	-0.8744292416	 1.8500078229	 0.7069338839	 0.149416
H	-0.1028699088	-3.9800830298	 0.9034451212	 0.278268
H	 0.0013240529	-3.070830705	 2.3469438651	 0.282683
130.5549	137.8243	141.5334	210.4158	273.766	339.6878	364.8776	425.1323	474.62	523.9659	556.2373	595.6435	647.1565	684.8466	761.5986	815.9142	998.0065	1021.1243	1063.1526	1104.183	1124.9567	1271.6722	1333.9428	1414.8909	1453.6921	1473.4217	1481.2993	1592.1506	1639.4487	1683.2219	2327.1366	3043.8279	3101.5557	3137.6206	3600.1357	3716.7441
CC1=C(OC(N)=N1)C#N	Cc1c(oc(N)n1)C#N	
InChI=1S/C5H5N3O/c1-3-4(2-6)9-5(7)8-3/h1H3,(H2,7,8)	InChI=1S/C5H5N3O/c1-3-4(2-6)9-5(7)8-3/h1H3,(H2,7,8)
