21
gdb 104166	2.42154	1.3263	1.12204	1.659	74.5	-0.2524	0.0854	0.3378	1210.2539	0.181203	-461.375301	-461.365745	-461.3648	-461.40962	35.913	
C	 0.2598728458	 1.5251644399	 0.1015067081	-0.407408
C	 0.1806791843	 0.0185431977	 0.0058844272	 0.226279
O	 0.906407168	-0.447489585	-1.1076773543	-0.250607
C	 1.2107775158	-1.7979195035	-0.8009087337	-0.165747
C	 1.4897086881	-1.7748851967	 0.7151008616	 0.35111
C	 0.977250011	-2.9968848989	 1.4669792671	-0.43807
C	 2.9729659996	-1.4944752782	 1.0104580238	-0.082954
O	 3.1641608115	-1.1056193659	 2.3539043485	-0.425067
O	 0.7652399965	-0.5988276356	 1.1482446268	-0.329533
H	 1.3051720832	 1.8382651525	 0.1611012621	 0.129563
H	-0.2012370423	 1.9800318946	-0.7790184574	 0.130694
H	-0.2707425648	 1.869390231	 0.9927071375	 0.129744
H	-0.8701674174	-0.3183752215	-0.0707037495	 0.064927
H	 0.3631464914	-2.459584723	-1.0367096561	 0.094687
H	 2.0753234823	-2.1011037049	-1.3970915603	 0.119182
H	 1.4347453161	-3.9101688472	 1.0706939916	 0.115469
H	 1.2355366292	-2.9180229735	 2.5254311869	 0.140507
H	-0.108558299	-3.0824736711	 1.3712661197	 0.116665
H	 3.5700579011	-2.3991945472	 0.8498455876	 0.102574
H	 3.3279199308	-0.7214612115	 0.3106771432	 0.090218
H	 2.5206498686	-0.4020147821	 2.5082502198	 0.287768
54.2934	132.5241	163.0636	216.4315	224.3388	251.1957	271.272	333.4245	348.1685	425.9623	479.7688	491.1405	523.8994	657.3268	706.7886	796.3681	859.453	889.6072	906.3924	935.4688	962.7111	1006.9553	1070.014	1085.1441	1107.9903	1136.4322	1150.1959	1162.1986	1213.006	1230.9013	1259.9854	1286.5692	1350.7317	1377.2913	1391.7723	1396.7039	1408.1851	1435.3063	1439.6832	1481.3087	1484.6159	1486.4082	1498.7744	1503.1929	1512.898	2924.747	2980.0972	2987.6641	3038.8305	3052.7279	3066.8874	3096.6261	3109.1966	3132.8127	3133.0305	3136.9153	3773.6787
CC1OCC(C)(CO)O1	C[C@H]1OC[C@@](C)(CO)O1	
InChI=1S/C6H12O3/c1-5-8-4-6(2,3-7)9-5/h5,7H,3-4H2,1-2H3	InChI=1S/C6H12O3/c1-5-8-4-6(2,3-7)9-5/h5,7H,3-4H2,1-2H3/t5-,6+/m0/s1
