15
gdb 11934	3.2788	1.8279	1.48849	4.2714	67.68	-0.2448	0.0189	0.2637	871.2253	0.118902	-362.648614	-362.641226	-362.640282	-362.680096	27.805	
O	 0.0568164362	 1.4027419181	 0.120291148	-0.438042
C	 0.0053727589	 0.036039786	 0.0632320965	 0.384444
C	-0.2930544245	-0.769115151	-1.1486117431	-0.390529
C	-1.2042055694	-0.9731292467	 0.0626284173	 0.13612
C	-0.4721015233	-1.8245104751	 1.109468547	-0.284773
C	 0.698058538	-0.7885717104	 1.1390169384	-0.26768
C	-2.6024898253	-0.7375430593	-0.0058585119	 0.179526
N	-3.7406379563	-0.5225001824	-0.0493257528	-0.354929
H	-0.2049221118	 1.7766236147	-0.727386281	 0.298883
H	-0.7654035841	-0.2233493876	-1.961400308	 0.132074
H	 0.3521058494	-1.5836171464	-1.475327528	 0.123048
H	-1.0073234356	-1.8842481725	 2.0575034442	 0.13131
H	-0.2145115886	-2.8353790606	 0.7799134292	 0.111339
H	 1.7011725089	-1.1484152876	 0.8910104073	 0.109173
H	 0.7363772574	-0.2481529293	 2.0863940369	 0.130037
116.6058	155.9667	219.6438	241.4609	351.0448	403.282	426.1584	536.752	567.5448	620.8744	689.9975	729.8653	787.6331	818.9459	939.3412	945.9219	974.9229	1039.6312	1087.0045	1104.45	1131.272	1171.8066	1209.7348	1246.0339	1257.4699	1321.3845	1393.6321	1411.8598	1478.703	1484.8283	1515.8759	2333.5585	3056.7222	3063.7362	3091.4747	3119.6977	3136.7108	3186.6438	3823.7113
OC12CC1(CC2)C#N	O[C@]12C[C@]1(CC2)C#N	
InChI=1S/C6H7NO/c7-4-5-1-2-6(5,8)3-5/h8H,1-3H2	InChI=1S/C6H7NO/c7-4-5-1-2-6(5,8)3-5/h8H,1-3H2/t5-,6-/m1/s1
