17
gdb 72506	2.2834	1.9556	1.71337	2.3684	72.76	-0.228	-0.012	0.216	912.2431	0.13619	-421.841499	-421.833949	-421.833004	-421.873161	29.599	
C	 0.0367734389	 1.521976754	-0.0630075574	-0.490751
C	 0.0213318965	 0.022448162	 0.0509156582	 0.283156
O	 0.5773424433	-0.5776808744	-1.1625865884	-0.314337
C	 0.1749104365	-1.9562817684	-1.2029847444	-0.076919
C	-0.6991864961	-2.1431755587	 0.0670555961	-0.211293
C	 0.1918285123	-1.9290696249	 1.2669818344	-0.095104
C	 0.6350879096	-0.6581558642	 1.2502640975	-0.11437
C	-1.3376301145	-0.7229317376	 0.0729600059	 0.405981
O	-2.4676845593	-0.34400514	 0.0912294831	-0.324671
H	 1.0622248457	 1.89428684	-0.1393453419	 0.129452
H	-0.5148052628	 1.8390954876	-0.9510288525	 0.139146
H	-0.4350284264	 1.9698515652	 0.8160842622	 0.132184
H	-0.406179622	-2.1418988095	-2.1148600579	 0.112022
H	 1.0598919207	-2.6029615977	-1.2023583875	 0.104939
H	-1.3683174126	-2.9999240794	 0.0664145858	 0.093771
H	 0.4296402579	-2.6969427417	 1.9921501773	 0.114122
H	 1.3062576422	-0.1839777923	 1.9550897595	 0.112672
138.2366	170.016	220.2485	232.033	323.4626	379.8419	426.7555	534.2766	629.8034	651.9768	672.3119	732.6931	784.3864	817.5269	836.0113	870.3903	898.1393	949.3485	962.8366	974.6122	1038.1694	1065.532	1105.5621	1122.7786	1163.8789	1190.9367	1214.5287	1266.0182	1291.2607	1358.1526	1379.1865	1417.6164	1478.1328	1490.8183	1522.2928	1608.415	1899.4965	3016.5718	3050.2171	3059.479	3122.2275	3132.3454	3156.0916	3201.6748	3224.3326
CC12OCC(C=C1)C2=O	C[C@@]12OC[C@@H](C=C1)C2=O	
InChI=1S/C7H8O2/c1-7-3-2-5(4-9-7)6(7)8/h2-3,5H,4H2,1H3	InChI=1S/C7H8O2/c1-7-3-2-5(4-9-7)6(7)8/h2-3,5H,4H2,1H3/t5-,7-/m1/s1
