14
gdb 29100	3.0985	1.43311	0.98257	7.5568	69.82	-0.2011	-0.0327	0.1685	1107.3825	0.103076	-470.073452	-470.065648	-470.064704	-470.105712	29.647	
N	 0.1251759647	 1.4447064995	 0.1280375907	-0.588779
C	-0.0317622707	 0.0518784309	 0.0298782923	 0.34223
C	-1.1893753466	-0.6284007217	-0.0155179075	-0.116951
N	-1.1637246886	-2.0255870049	-0.0076713323	-0.360871
C	-0.0375607709	-2.8164024116	-0.0404791525	 0.321541
O	-0.0787498242	-4.0270206607	-0.0643644301	-0.348651
C	 1.2848801466	-2.0449118718	-0.0101128611	 0.321495
O	 2.3603131666	-2.5963531972	-0.0033333115	-0.339091
N	 1.159347858	-0.66622776	 0.0433748304	-0.389745
H	 0.5997388797	 1.843364233	-0.6771724862	 0.254091
H	-0.7619075572	 1.9156625938	 0.2503263696	 0.254793
H	-2.1567616896	-0.1539265647	-0.0702115778	 0.124716
H	-2.0344423362	-2.5373252621	-0.0110315201	 0.26256
H	 2.0241341984	-0.1591089827	 0.1789153761	 0.262663
99.8958	149.638	239.6625	312.694	336.9345	355.3801	406.3163	465.4776	514.6043	579.1398	617.849	628.8879	661.4207	680.5121	722.6255	791.9943	809.6272	828.4749	1023.7773	1108.6853	1169.1266	1216.6377	1275.7565	1339.3821	1394.8517	1451.1736	1495.4876	1643.4834	1742.9634	1799.0505	1816.425	3250.1847	3496.3465	3594.0322	3612.8528	3613.6092
NC1=CNC(=O)C(=O)N1	Nc1c[nH]c(=O)c(=O)[nH]1	
InChI=1S/C4H5N3O2/c5-2-1-6-3(8)4(9)7-2/h1H,(H,6,8)(H3,5,7,9)	InChI=1S/C4H5N3O2/c5-2-1-6-3(8)4(9)7-2/h1H,(H,6,8)(H3,5,7,9)
