20
gdb 57376	1.93903	1.73012	1.24153	2.6827	75.37	-0.2485	-0.0255	0.223	1107.6792	0.168011	-440.275353	-440.265432	-440.264488	-440.309309	37.434	
C	-0.1020521864	 1.4730604003	-0.1273221237	-0.434585
C	 0.0947821841	-0.0466345235	-0.0288587422	 0.248634
C	 0.9284355387	-0.4244304625	 1.2018359539	-0.425172
O	-1.1883238569	-0.689946029	 0.035329284	-0.477065
C	 0.7388708145	-0.5905427404	-1.3124519486	 0.230382
C	 0.481718842	-2.0126314435	-1.718276012	-0.274618
N	-0.1189950034	-0.9219097964	-2.4770221263	-0.364096
C	 2.0579832577	-0.0447714216	-1.7496956406	 0.130317
O	 2.7889818664	 0.662703765	-1.0992667194	-0.27834
H	 0.8581186447	 1.9869455457	-0.1993128524	 0.153028
H	-0.707171089	 1.7254025981	-1.0030307894	 0.122662
H	-0.6194588279	 1.8420126055	 0.7661225567	 0.101509
H	 0.4510662547	-0.0427232144	 2.1119201925	 0.100502
H	 1.0077359774	-1.5116336839	 1.2868700277	 0.118868
H	 1.9303714859	 0.0033488999	 1.1333010499	 0.153049
H	-1.6694845206	-0.3074767703	 0.7755912535	 0.283576
H	 1.2529709362	-2.5734545815	-2.2399351102	 0.120898
H	-0.1460180032	-2.5875889397	-1.0459866156	 0.142399
H	-1.0829177955	-0.8114475181	-2.1663873351	 0.253137
H	 2.3248621406	-0.3689793397	-2.7792075027	 0.094916
93.8415	141.0478	207.6605	213.0215	216.8579	254.8335	267.8474	313.5232	322.0195	355.6183	402.8345	410.5044	459.4866	527.459	583.228	678.2213	823.1784	854.4863	910.1699	931.7134	956.2272	981.4941	999.9968	1021.0968	1056.2329	1095.7659	1124.6896	1143.126	1207.7497	1213.7895	1268.2548	1308.4436	1356.5915	1385.3705	1397.8069	1415.339	1434.9585	1477.9471	1493.265	1495.3015	1499.5865	1518.4621	1812.6821	2902.5287	3031.199	3036.5145	3101.2869	3106.4465	3114.6005	3142.198	3146.1395	3212.8631	3495.5156	3827.3275
CC(C)(O)C1(CN1)C=O	CC(C)(O)[C@]1(CN1)C=O	
InChI=1S/C6H11NO2/c1-5(2,9)6(4-8)3-7-6/h4,7,9H,3H2,1-2H3	InChI=1S/C6H11NO2/c1-5(2,9)6(4-8)3-7-6/h4,7,9H,3H2,1-2H3/t6-/m0/s1
