12
gdb 45607	3.68508	1.28594	0.95329	8.2805	73.11	-0.2565	-0.1081	0.1484	1110.0254	0.078724	-431.711321	-431.703784	-431.702839	-431.743625	27.199	
N	-0.0714062797	 1.2948896511	 0.0117993781	-0.468429
C	 0.006586114	 0.0341278803	 0.0037034537	 0.32865
N	 1.128176407	-0.8080692229	-0.008221946	-0.353409
C	 0.7455770062	-2.1237205057	-0.0138436133	-0.07514
C	-0.6090240574	-2.2779197243	-0.0065484565	 0.022222
C	-1.3125148419	-3.5011401706	-0.0097181479	 0.215332
N	-1.8967043119	-4.5014990666	-0.0122521525	-0.337884
C	-1.207547791	-0.9232614776	 0.0053612335	 0.257815
O	-2.3607051563	-0.5861372565	 0.0143390451	-0.273099
H	 0.8456702847	 1.7480212756	 0.008936861	 0.231041
H	 2.0839327642	-0.494137761	-0.0120571295	 0.276692
H	 1.4954819321	-2.9030071517	-0.0231329956	 0.176208
92.4013	138.7911	192.3205	265.5147	320.973	389.029	441.9492	499.2346	522.6628	576.5261	623.1093	699.3179	784.9754	821.2533	905.9969	938.0698	945.5935	1032.9534	1149.7206	1202.6291	1302.4044	1344.7689	1440.0083	1634.726	1760.5269	1832.6316	2345.0636	3238.6334	3449.0794	3664.7777
N=C1NC=C(C#N)C1=O	[NH][C]1NC=C(C#N)C1=O	
InChI=1S/C5H3N3O/c6-1-3-2-8-5(7)4(3)9/h2H,(H2,7,8,9)	InChI=1S/C5H3N3O/c6-1-3-2-8-5(7)4(3)9/h2H,(H2,7,8,9)
