22
gdb 7816	2.95079	1.68811	1.15628	0.2749	85.24	-0.2256	0.033	0.2586	1120.5178	0.201406	-313.106019	-313.097542	-313.096597	-313.138461	32.956	
C	-0.08516041	 1.5593996636	-0.0036571897	-0.397242
C	-0.0024314329	 0.0250673672	-0.0134623892	-0.001315
C	 0.6855186678	-0.4970607249	-1.2846794669	-0.192972
C	 1.0114807557	-1.9884394472	-1.1662410697	-0.21771
C	 1.9683131608	-2.2446569939	 0.0052276394	-0.27521
C	 1.5819470038	-1.48501905	 1.2558432657	 0.302635
C	 2.265644677	-1.914855433	 2.5255617998	-0.473387
C	 0.6899597397	-0.4908804714	 1.2266169009	-0.130017
H	 0.9162010644	 2.0043831793	 0.0022095771	 0.114319
H	-0.6144439381	 1.9296723736	-0.8882735359	 0.10763
H	-0.6167011917	 1.9229625621	 0.8823062008	 0.108714
H	-1.0381318027	-0.3532880016	-0.0079034727	 0.075613
H	 0.0517438686	-0.3050297961	-2.1581927974	 0.086332
H	 1.6163718581	 0.0657101334	-1.4419012455	 0.090891
H	 0.0814404458	-2.5487658177	-1.0038814554	 0.096253
H	 1.4459221238	-2.3660648022	-2.0983407445	 0.088293
H	 2.0121470882	-3.3186855869	 0.2313580923	 0.095224
H	 2.9959214655	-1.9690372041	-0.2783765605	 0.102105
H	 3.3574908631	-1.843076427	 2.430091138	 0.118796
H	 1.9600329736	-1.3036230122	 3.3791135108	 0.116637
H	 2.0459856667	-2.9648036581	 2.7601422803	 0.118239
H	 0.4341583629	 0.0124692271	 2.1589022024	 0.066172
105.4754	152.7365	204.441	235.9808	267.1083	279.1135	372.1196	415.2981	435.7474	453.3015	545.0146	592.9855	771.1617	826.4552	851.621	889.1006	891.0473	954.7763	983.1732	993.2161	1010.8987	1051.0153	1068.2803	1088.0651	1123.8985	1155.2305	1177.2939	1198.9861	1236.8446	1283.3377	1317.8429	1335.0545	1355.1004	1373.7359	1384.1485	1394.7502	1409.8738	1413.1504	1474.1145	1479.4874	1486.7724	1492.5001	1495.5406	1498.2592	1499.9212	1737.6965	2959.6301	2988.707	3009.9452	3010.5286	3017.0787	3025.2658	3031.7346	3053.8014	3059.9789	3067.5167	3094.8406	3095.7558	3107.5442	3123.191
CC1CCCC(C)=C1	C[C@H]1CCCC(=C1)C	
InChI=1S/C8H14/c1-7-4-3-5-8(2)6-7/h6-7H,3-5H2,1-2H3	InChI=1S/C8H14/c1-7-4-3-5-8(2)6-7/h6-7H,3-5H2,1-2H3/t7-/m0/s1
