19
gdb 48037	8.34044	0.45482	0.44774	4.2055	88.9	-0.262	-0.0567	0.2054	2376.1996	0.157241	-385.858446	-385.848436	-385.847491	-385.895976	34.257	
O	-0.0739684182	-0.0666928113	-0.1739131544	-0.230913
C	 0.0112080548	 1.1142573006	 0.0767642855	 0.015933
C	 1.221669563	 1.8865400815	-0.012612388	 0.064407
C	 2.2236506303	 2.5592017631	-0.0784800543	 0.067009
C	 3.4217744472	 3.3796212097	-0.1554841682	-0.358741
C	 3.1911489826	 4.8551516569	 0.2396688557	-0.201801
C	 4.459482994	 5.6734946944	 0.1447073523	 0.033629
C	 4.8941820657	 6.2553463951	-1.1792022342	-0.257301
C	 4.3936619007	 7.1613910669	-0.0810982579	-0.282028
H	-0.8740371021	 1.6978247965	 0.4040147548	 0.095137
H	 4.19401613	 2.9398159163	 0.489948604	 0.142531
H	 3.8242880764	 3.3312451202	-1.1756297711	 0.147362
H	 2.4229869285	 5.2831658947	-0.4148446092	 0.108691
H	 2.7880564381	 4.8922048421	 1.2585595077	 0.113394
H	 5.261743624	 5.3297921093	 0.7940892846	 0.084852
H	 5.9514615779	 6.2692904492	-1.4189535874	 0.11536
H	 4.2479362744	 6.1001139283	-2.0376256776	 0.11257
H	 3.4137800177	 7.6111418809	-0.2040962106	 0.114306
H	 5.1090311751	 7.7932670356	 0.4331722882	 0.115604
20.2513	51.5122	63.8494	106.4194	163.4994	187.0099	214.7247	343.4389	393.4586	417.6365	494.7096	598.7279	752.8816	777.9727	817.7683	824.4933	849.8423	922.9865	952.9171	1021.2532	1022.7189	1038.9193	1060.0721	1082.376	1135.8068	1142.719	1159.4161	1198.7635	1228.1237	1237.0741	1281.2038	1314.5537	1364.7044	1418.5279	1423.5681	1458.1161	1469.7598	1491.0712	1507.9936	1766.7212	2328.4125	2911.462	3018.9457	3034.6466	3048.1505	3077.0131	3128.9081	3129.652	3135.0666	3207.8474	3222.9365
O=CC#CCCC1CC1	O=CC#CCCC1CC1	
InChI=1S/C8H10O/c9-7-3-1-2-4-8-5-6-8/h7-8H,2,4-6H2	InChI=1S/C8H10O/c9-7-3-1-2-4-8-5-6-8/h7-8H,2,4-6H2
