20
gdb 86994	5.55381	0.59695	0.58301	4.963	80.63	-0.2663	0.0381	0.3044	1874.1496	0.170569	-403.155558	-403.146037	-403.145093	-403.190883	34.61	
O	-0.15443559	 1.4706767312	-0.02654044	-0.429169
C	-0.0119166084	 0.0716946142	 0.0131610874	 0.147017
C	 0.3116608776	-0.6196998977	 1.3676958233	-0.295068
C	-0.7609224472	-1.6899507753	 1.0187749713	 0.033022
C	-1.6555641775	-2.2060866891	 2.1373600641	-0.206086
C	-2.7589815277	-3.1464258212	 1.6084473074	-0.340405
C	-3.6273712039	-3.6513142907	 2.6693025765	 0.257721
N	-4.3027324593	-4.0410516226	 3.5222729043	-0.305637
C	-1.3505315782	-0.6911570942	-0.0217085869	-0.251099
H	 0.7223232807	 1.8679009866	-0.0249343772	 0.283525
H	 0.6643122352	-0.2836967681	-0.7777864956	 0.068443
H	 1.3349793185	-0.9536932745	 1.5562606173	 0.095981
H	-0.0206838418	 0.0171461841	 2.1938826195	 0.108823
H	-0.2924842162	-2.5367811222	 0.5029204249	 0.073137
H	-1.055791936	-2.7413501581	 2.8825695783	 0.119855
H	-2.1236870432	-1.3625030924	 2.6574970577	 0.118693
H	-3.3791133569	-2.6236495739	 0.8711415162	 0.156636
H	-2.3106009776	-4.0027240802	 1.0906710185	 0.149665
H	-2.1320604193	-0.0693504899	 0.4274866459	 0.114267
H	-1.701876769	-1.071649986	-0.9832008531	 0.100679
49.7194	88.1654	89.2611	138.7021	219.7226	265.1768	327.6499	377.671	400.7302	419.1758	460.1894	532.4092	617.105	766.3096	800.2098	810.9455	911.1376	936.539	956.2529	964.1429	1010.1603	1025.7038	1069.9496	1082.3275	1119.6315	1151.0315	1185.5099	1220.6512	1240.9874	1249.3216	1269.1826	1275.8318	1293.6912	1320.2233	1332.0495	1364.7904	1394.3879	1432.2787	1468.0842	1470.9109	1491.7887	1503.3264	2361.8373	2992.9139	3029.3602	3033.9922	3043.7417	3050.0719	3056.0277	3067.9635	3089.6705	3110.8861	3115.8667	3815.6728
OC1CC(CCC#N)C1	O[C@H]1C[C@@H](CCC#N)C1	
InChI=1S/C7H11NO/c8-3-1-2-6-4-7(9)5-6/h6-7,9H,1-2,4-5H2	InChI=1S/C7H11NO/c8-3-1-2-6-4-7(9)5-6/h6-7,9H,1-2,4-5H2/t6-,7+
