18
gdb 125889	3.64873	1.19485	1.15059	0.6489	78.84	-0.2443	-0.0019	0.2424	1146.0812	0.149804	-398.122441	-398.114549	-398.113604	-398.155664	29.521	
C	-0.1378359098	 1.5193532646	-0.1013307033	-0.41826
C	-0.0060331378	 0.0185657328	 0.0215557417	-0.009977
C	 1.3223450568	-0.6662119793	-0.2068497234	-0.318507
C	 0.7366254031	-0.6314389988	 1.1730264272	 0.073103
N	 1.3648986072	 0.1527487753	 2.200666618	 0.134604
N	 2.3894763038	 0.9721862045	 1.9880881711	-0.22352
C	 2.62100462	 1.5064425932	 3.1906527074	-0.063844
C	 1.7052985259	 0.9680891607	 4.1006228545	-0.062886
N	 0.9125236874	 0.1125092048	 3.4502285697	-0.233052
H	 0.7623586544	 2.0268266429	 0.25323841	 0.143893
H	-0.2967407249	 1.8044831865	-1.1465958875	 0.120957
H	-0.9886953395	 1.8889653129	 0.480765743	 0.122807
H	-0.8852843411	-0.5393672127	-0.29072352	 0.094109
H	 1.3549067026	-1.6233184587	-0.7152187321	 0.119018
H	 2.180722048	-0.0266381409	-0.3747926742	 0.149086
H	 0.3217829755	-1.5333559571	 1.60339045	 0.122192
H	 3.4148546592	 2.2215777904	 3.3347714878	 0.125207
H	 1.5843211792	 1.1425989689	 5.1576529802	 0.12507
40.6226	117.843	190.2064	216.7257	262.2456	351.2149	451.9171	514.204	674.2374	678.9432	715.9501	778.4385	837.4219	842.8148	889.6638	890.2994	938.8975	979.6168	991.982	1048.2944	1080.6409	1087.5627	1102.4355	1118.8949	1144.9217	1193.1334	1199.1426	1222.6226	1279.9181	1298.7957	1383.518	1402.0931	1424.3954	1435.9891	1448.1925	1484.5407	1500.3059	1501.0313	1509.0316	3037.1455	3096.2833	3122.6002	3142.1591	3144.2635	3203.3842	3236.9968	3263.4199	3281.1887
CC1CC1N1N=CC=N1	C[C@H]1C[C@H]1n1nccn1	
InChI=1S/C6H9N3/c1-5-4-6(5)9-7-2-3-8-9/h2-3,5-6H,4H2,1H3	InChI=1S/C6H9N3/c1-5-4-6(5)9-7-2-3-8-9/h2-3,5-6H,4H2,1H3/t5-,6+/m0/s1
