21
gdb 71624	2.63129	1.64732	1.55705	1.2631	82.02	-0.2333	0.0935	0.3268	1009.2893	0.18491	-387.058746	-387.051223	-387.050279	-387.090249	30.912	
C	-0.0175271799	 1.485970384	 0.0043540494	-0.523247
C	 0.023920933	-0.0175158539	-0.0290433502	 0.305644
C	 0.6709909462	-0.9437558212	-1.0945065539	-0.279062
C	 0.060250939	-1.9208602555	-0.0590823914	-0.121547
C	 0.6209088722	-0.9778385458	 1.0599822377	-0.025862
C	-0.0859344259	-0.9941367064	 2.4137361744	-0.269052
C	-1.513612833	-1.5081482965	 2.2135020372	-0.065522
O	-2.0882076905	-0.9937672026	 1.0194380173	-0.28183
C	-1.1963821221	-0.9940598315	-0.0658302719	 0.130596
H	 0.9881471745	 1.9138066165	 0.0827318784	 0.115702
H	-0.4827395728	 1.8855187745	-0.9036406034	 0.119133
H	-0.6036785009	 1.8397118408	 0.8596495579	 0.124029
H	 0.2236860754	-0.9371826287	-2.0936165596	 0.086549
H	 1.7629690195	-0.9254090044	-1.146174047	 0.090458
H	 0.0912478314	-3.010757085	-0.0900887952	 0.069702
H	 1.7125303547	-0.949210211	 1.1447422327	 0.057264
H	 0.4374002727	-1.6418242985	 3.1263376319	 0.097714
H	-0.0885007806	 0.0159740073	 2.8428552435	 0.102295
H	-1.498711177	-2.6081432644	 2.1644419239	 0.092252
H	-2.1806456291	-1.2203065808	 3.0307457078	 0.10364
H	-1.8003340171	-0.9814126569	-0.9780551297	 0.071144
169.4259	187.5965	197.7374	257.0686	351.1893	427.2425	443.759	499.2255	564.6599	641.6848	702.9875	771.332	785.5926	835.0748	858.7695	903.0751	919.4966	954.4492	972.0943	1012.5306	1032.2995	1044.8966	1065.2688	1099.1669	1104.3665	1122.019	1151.4599	1157.5004	1203.8378	1216.1567	1223.0993	1237.4366	1257.6283	1279.1604	1325.8812	1349.4466	1364.7919	1406.6234	1416.2858	1424.1376	1482.669	1488.1551	1493.2861	1510.9184	1519.5746	2980.4924	3022.2388	3025.0554	3042.3026	3047.3927	3065.4613	3068.8051	3086.8416	3091.1075	3094.1588	3103.7934	3107.4295
CC12CC3C1CCOC23	C[C@@]12C[C@H]3[C@@H]1CCO[C@@H]23	
InChI=1S/C8H12O/c1-8-4-5-6(8)2-3-9-7(5)8/h5-7H,2-4H2,1H3	InChI=1S/C8H12O/c1-8-4-5-6(8)2-3-9-7(5)8/h5-7H,2-4H2,1H3/t5-,6-,7+,8+/m0/s1
