24
gdb 102690	2.80055	0.88452	0.76087	3.5873	86.69	-0.2515	0.0308	0.2824	1606.4764	0.216525	-405.587556	-405.576443	-405.575499	-405.624565	39.783	
C	-0.158446856	 1.5171592881	-0.1203171284	-0.393294
C	-0.2337436733	-0.0050231268	-0.2733063356	-0.168886
C	 0.7057154672	-0.5908530078	-1.3460101623	 0.020233
C	 2.2022655322	-0.3028366389	-1.0993245122	-0.179252
C	 2.7922110919	-0.8741083307	 0.1967638053	-0.397048
C	 0.402927807	-2.0947341448	-1.5061565122	-0.172446
N	 1.1282828022	-2.7389021794	-2.5909749916	-0.27302
C	 2.1003793941	-3.6681112697	-2.3992382405	 0.154781
O	 2.4907765383	-4.0706572854	-1.3220666048	-0.323407
H	 0.8199320112	 1.8446015013	 0.2436925667	 0.123673
H	-0.3424606717	 2.0212852016	-1.0760205235	 0.111942
H	-0.9089007342	 1.8736624314	 0.5920864235	 0.113334
H	-0.0294608807	-0.4815271946	 0.6936537964	 0.104442
H	-1.2644080902	-0.2838578471	-0.5292770023	 0.090098
H	 0.4446769813	-0.1063132247	-2.3006069561	 0.056717
H	 2.7708508772	-0.6963386837	-1.9499950108	 0.093173
H	 2.3518912481	 0.782723034	-1.1220162487	 0.093393
H	 3.8419511527	-0.5793166137	 0.2934093965	 0.110144
H	 2.2688625592	-0.5040320377	 1.0845111239	 0.109018
H	 2.7582664146	-1.9670472462	 0.2051195677	 0.154672
H	 0.6634527937	-2.6453884248	-0.5996063587	 0.149885
H	-0.6733784742	-2.2280957449	-1.6727014283	 0.102031
H	 0.9060448482	-2.4837425356	-3.5404029907	 0.244911
H	 2.5105877411	-4.0358653798	-3.3610170133	 0.074906
45.4877	63.827	88.5169	128.8544	161.3584	211.7071	235.8091	249.6678	288.631	305.7454	325.4669	398.6802	496.5231	527.0148	542.0361	741.7754	751.31	788.9981	820.7222	901.2112	953.0753	988.4054	1004.5352	1023.5745	1027.1045	1031.4458	1065.0837	1148.3746	1167.0483	1175.4925	1211.7798	1266.7812	1282.8805	1310.5685	1319.6079	1366.2236	1387.8205	1394.1476	1403.1863	1411.2597	1420.7562	1431.2396	1478.474	1487.3861	1494.3553	1501.0036	1505.0149	1513.0636	1518.9651	1536.7061	1799.1705	2933.2537	2970.9969	3016.8303	3027.168	3031.472	3036.8633	3038.0579	3051.8878	3062.8917	3097.3636	3099.814	3108.0986	3118.0563	3123.8953	3629.1192
CCC(CC)CNC=O	CCC(CC)CNC=O	
InChI=1S/C7H15NO/c1-3-7(4-2)5-8-6-9/h6-7H,3-5H2,1-2H3,(H,8,9)	InChI=1S/C7H15NO/c1-3-7(4-2)5-8-6-9/h6-7H,3-5H2,1-2H3,(H,8,9)
