23
gdb 59172	2.42377	1.3074	1.05425	1.6308	85.57	-0.246	0.0769	0.3228	1275.0014	0.205067	-388.261233	-388.251456	-388.250512	-388.295513	37.395	
C	-0.0464836426	 1.705130904	-0.3485363297	-0.391681
C	 0.0970533767	 0.1871273056	-0.2097454216	 0.108579
O	 0.8704893407	-0.1453525525	 0.9467024399	-0.427848
C	-1.2633764119	-0.4876449487	-0.2062131021	-0.019937
C	-1.940910221	-1.1089116182	-1.3965470365	-0.078608
C	-0.950939364	-1.9017589002	-2.2648453051	-0.268438
C	-0.6504346605	-2.840814004	-1.0432224415	 0.045272
C	 0.7776413618	-3.1425008006	-0.5998493136	-0.425617
C	-1.5729026942	-1.9666162891	-0.1768514338	-0.108798
H	 0.9372534109	 2.1816773596	-0.3437403107	 0.120116
H	-0.5598688151	 1.9655497952	-1.2802096121	 0.115894
H	-0.6289041852	 2.1169809473	 0.4846325546	 0.104028
H	 0.6944891811	-0.1811807732	-1.0483046693	 0.084106
H	 0.2819500012	-0.127565173	 1.7086200977	 0.276462
H	-1.9793867579	 0.0592317784	 0.4109878397	 0.075081
H	-2.9204939403	-0.7824371308	-1.7256457057	 0.081685
H	-1.4333683216	-2.4317622875	-3.0888790701	 0.099995
H	-0.1063623082	-1.338541394	-2.6746992596	 0.098343
H	-1.1646366692	-3.7904455796	-1.2272935206	 0.073791
H	 1.3114997726	-2.2487747971	-0.2714028523	 0.148627
H	 0.7727250359	-3.8411058302	 0.2450135911	 0.107889
H	 1.3435658435	-3.6152159445	-1.4109717348	 0.104615
H	-2.2335886627	-2.3589488369	 0.5891542062	 0.076443
75.2152	128.258	165.0123	190.3874	214.7407	231.1661	241.3151	307.5355	341.8277	426.9279	450.8431	504.4038	585.2579	695.1419	759.6013	788.0466	833.0566	864.3696	880.7843	928.7739	959.8662	972.0978	1000.7785	1017.2096	1043.0149	1074.7494	1094.0184	1101.2808	1108.8534	1130.1408	1139.676	1192.7332	1218.0835	1242.5354	1271.6189	1278.8288	1305.4071	1340.7326	1364.12	1379.1238	1400.5157	1415.1068	1423.4207	1455.655	1489.3006	1493.7985	1494.86	1498.9138	1506.1034	3026.351	3027.3935	3037.9892	3050.1544	3070.7802	3083.3856	3085.1102	3099.3763	3105.0913	3119.1612	3137.8775	3158.413	3176.8714	3810.699
CC(O)C1C2CC(C)C12	C[C@@H](O)[C@H]1[C@H]2C[C@@H](C)[C@@H]12	
InChI=1S/C8H14O/c1-4-3-6-7(4)8(6)5(2)9/h4-9H,3H2,1-2H3	InChI=1S/C8H14O/c1-4-3-6-7(4)8(6)5(2)9/h4-9H,3H2,1-2H3/t4-,5-,6+,7-,8+/m1/s1
