27
gdb 60448	3.78622	0.59104	0.57721	0.7613	94.28	-0.2494	0.0853	0.3347	2157.1436	0.248793	-390.705202	-390.693026	-390.692081	-390.743558	43.611	
C	-0.0169499602	 1.520014298	-0.0006559305	-0.392172
C	-0.0171232903	-0.0132350617	 0.0166371615	 0.020424
C	 0.7642042812	-0.5666851091	 1.2145968435	-0.378968
C	-1.4509467431	-0.5420606251	-0.0009088627	-0.036906
O	-1.4297455958	-1.9488859206	-0.1113315812	-0.25359
C	-2.7125546705	-2.5371129901	-0.0975521296	-0.036907
C	-2.578214203	-4.0503567871	-0.2644551987	 0.020424
C	-3.9477216769	-4.7240051648	-0.1168039791	-0.392173
C	-1.9132203805	-4.4047991758	-1.6001352424	-0.378967
H	 1.0056871214	 1.9094322276	-0.0188945427	 0.113845
H	-0.5413097685	 1.915043106	-0.8774070967	 0.110536
H	-0.5073323441	 1.9246622787	 0.8929231151	 0.112529
H	 0.4630318278	-0.3725625255	-0.9035557278	 0.08109
H	 0.3318343549	-0.2110232079	 2.1581924598	 0.105269
H	 0.7384681448	-1.6586596347	 1.2228177711	 0.128799
H	 1.8099587172	-0.2437135378	 1.1860601732	 0.105784
H	-1.9760206419	-0.2389066436	 0.9234867045	 0.077617
H	-2.0087766191	-0.1033716835	-0.8463767244	 0.078947
H	-3.2275922292	-2.3023044802	 0.8500973813	 0.078948
H	-3.3326519851	-2.1213832439	-0.9128803083	 0.077617
H	-1.9275629998	-4.400921026	 0.5480578695	 0.081089
H	-4.6396668323	-4.3864104017	-0.897790724	 0.112529
H	-3.8586913502	-5.8112751671	-0.2044593894	 0.113846
H	-4.4052417122	-4.5026924101	 0.8534482381	 0.110536
H	-2.5434391486	-4.0933886411	-2.4425480172	 0.105269
H	-0.9482012433	-3.9024606092	-1.6977725461	 0.1288
H	-1.7535021225	-5.4845093338	-1.6864096869	 0.105784
34.0382	50.3208	94.1198	128.9929	154.8338	217.9221	218.4127	224.8765	241.3014	253.0109	265.7498	355.244	365.3062	414.6753	418.2738	469.7448	536.3072	821.919	845.2275	919.4913	926.9345	930.4916	931.2552	962.0897	962.8605	975.3413	981.2499	1034.4076	1144.4327	1157.5595	1162.399	1188.6904	1196.8056	1199.843	1204.3066	1271.6136	1279.7158	1323.2564	1333.6233	1371.8557	1372.0475	1393.0372	1397.4054	1398.6683	1413.7352	1420.7005	1451.8951	1488.418	1489.7615	1489.8211	1490.0301	1503.7738	1503.8694	1505.8306	1512.5329	1512.7245	1529.062	2929.0984	2941.0672	2964.7594	2967.4115	3018.2604	3018.4527	3024.4765	3024.4905	3029.5015	3029.7949	3087.5789	3087.6644	3093.0974	3093.249	3102.2714	3102.4188	3125.9662	3126.1664
CC(C)COCC(C)C	CC(C)COCC(C)C	
InChI=1S/C8H18O/c1-7(2)5-9-6-8(3)4/h7-8H,5-6H2,1-4H3	InChI=1S/C8H18O/c1-7(2)5-9-6-8(3)4/h7-8H,5-6H2,1-4H3
