14
gdb 15475	2.85938	2.05894	1.45921	1.6546	63.54	-0.2436	-0.0367	0.207	861.2785	0.106092	-382.517429	-382.510062	-382.509118	-382.549428	26.848	
O	 0.0227609727	 0.0833877095	-0.4019518824	-0.283961
C	 0.0232096287	 1.237819625	-0.087936707	 0.365573
C	-1.1906482463	 2.1002696742	 0.2680115289	-0.175256
O	-0.6884819053	 3.3632198825	 0.6457833547	-0.242434
C	 0.5522635532	 3.5603840129	-0.0273917002	-0.096966
C	 1.2570756616	 2.1879936428	-0.001606904	-0.288452
C	 1.9853824782	 1.9369427175	 1.2314866553	 0.34106
C	 2.5665679145	 1.7269745296	 2.262249262	-0.466865
H	-1.846777396	 2.1575071911	-0.6168412668	 0.124998
H	-1.7635473047	 1.6677189424	 1.0930779256	 0.149089
H	 0.3868781895	 3.8743473208	-1.0702244736	 0.100629
H	 1.0983017385	 4.3421341877	 0.5009099839	 0.134129
H	 1.8975697922	 2.0185115917	-0.8721482474	 0.132537
H	 3.0892567432	 1.5402697023	 3.167667401	 0.205919
71.5996	131.9226	166.2871	259.0758	375.7619	434.0131	491.0747	569.5681	620.4878	628.6059	642.0034	717.1785	808.1441	846.1297	948.3533	965.3497	1035.5152	1069.3855	1093.74	1161.7921	1186.3192	1215.2092	1259.674	1312.3241	1324.2987	1384.9134	1473.5602	1510.1466	1874.9422	2235.836	2972.5277	2983.0465	3073.	3093.057	3130.7916	3503.5836
O=C1COCC1C#C	O=C1COC[C@H]1C#C	
InChI=1S/C6H6O2/c1-2-5-3-8-4-6(5)7/h1,5H,3-4H2	InChI=1S/C6H6O2/c1-2-5-3-8-4-6(5)7/h1,5H,3-4H2/t5-/m1/s1
