19
gdb 115019	2.41819	1.43923	1.03109	2.7165	77.16	-0.2412	0.0112	0.2523	1181.307	0.159098	-423.008806	-423.000242	-422.999298	-423.042444	32.376	
O	-0.1265144739	 1.4705546257	-0.0280870935	-0.418631
C	-0.0001948063	 0.0654255773	 0.1377299352	-0.091261
C	-1.3905276125	-0.5512686085	-0.0123268841	-0.077612
C	-1.9752124673	-0.283568485	-1.4285884175	-0.280735
C	-1.9705160391	-1.6386164794	-2.0919678813	-0.075435
C	-1.6297729553	-2.6176084996	-1.2545419234	-0.138753
C	-1.3602504465	-2.0851719511	 0.1060362064	 0.404626
C	-0.6540397796	-2.8364257521	 1.1562916582	-0.255029
O	-2.0728182484	-2.7043315815	 1.1992172184	-0.282667
H	 0.7512830416	 1.8599378558	 0.0198411966	 0.287573
H	 0.6755625528	-0.3671559453	-0.6186319276	 0.088551
H	 0.4138811676	-0.175816338	 1.1278698553	 0.08791
H	-2.0320464879	-0.1411176456	 0.7718984403	 0.099553
H	-2.9919752677	 0.1264941527	-1.3855669563	 0.114499
H	-1.3759197614	 0.4572391382	-1.9676914072	 0.12087
H	-2.2386934373	-1.7752728302	-3.1340699634	 0.098979
H	-1.5824259967	-3.6762314999	-1.4800680309	 0.099734
H	-0.2784668962	-3.8380188023	 0.9433833144	 0.107788
H	-0.1106830059	-2.3058964011	 1.9378500003	 0.11004
49.0598	117.9977	185.5552	241.1105	261.2375	298.2492	316.0082	406.9543	471.2293	534.7025	554.1715	743.2751	751.9579	828.7157	839.47	864.374	916.8936	945.1265	958.4519	976.1315	1007.13	1063.772	1072.537	1098.849	1119.9276	1128.2027	1164.7332	1190.7148	1222.1026	1240.1709	1264.2124	1273.8241	1326.5904	1338.7972	1354.36	1423.5405	1453.7518	1491.4206	1519.8766	1528.7135	1680.826	2965.432	3005.0286	3031.5152	3068.8513	3073.5502	3083.8092	3150.2723	3186.3359	3214.3507	3832.2022
OCC1CC=CC11CO1	OC[C@H]1CC=C[C@]21CO2	
InChI=1S/C7H10O2/c8-4-6-2-1-3-7(6)5-9-7/h1,3,6,8H,2,4-5H2	InChI=1S/C7H10O2/c8-4-6-2-1-3-7(6)5-9-7/h1,3,6,8H,2,4-5H2/t6-,7-/m1/s1
