19
gdb 78477	3.27662	1.4063	1.3814	0.3015	72.63	-0.2483	0.0695	0.3178	1015.4957	0.16211	-423.004319	-422.997313	-422.996368	-423.035329	29.366	
O	 0.0411004764	 1.495531202	 0.0126652197	-0.443967
C	 0.051251087	 0.0989036566	-0.0092631716	 0.135937
C	-0.3328478811	-0.6798180288	 1.2235760365	-0.116102
C	-1.2475419237	-0.6672131868	-0.002709179	-0.1161
C	-1.2875988468	-2.1657816096	-0.3698143773	 0.059819
C	 0.0392985388	-2.6460152228	-1.0033236381	-0.22768
C	 0.9735607365	-2.6588725388	 0.2491744248	-0.227683
C	-0.0071662741	-2.1834220184	 1.3467800047	 0.059819
O	-1.2357357576	-2.8026843147	 0.9208899408	-0.258237
H	-0.6918997669	 1.7913271683	 0.5625554621	 0.284297
H	 0.8769640527	-0.2294290588	-0.628540874	 0.107247
H	-0.5840586155	-0.1283840983	 2.1243956686	 0.084067
H	-2.1771146562	-0.1064273839	-0.0113405048	 0.084069
H	-2.1933126035	-2.4707613537	-0.8928958554	 0.07632
H	-0.0884990697	-3.6515435166	-1.4091943254	 0.105339
H	 0.3921353331	-1.998568773	-1.8093932622	 0.105598
H	 1.3162487751	-3.6708758084	 0.4740396028	 0.105339
H	 1.8530928958	-2.0186687431	 0.1492153938	 0.105598
H	 0.2329872797	-2.5041886813	 2.3598838041	 0.07632
212.0356	215.4122	257.9649	324.7238	361.9577	381.8932	499.8806	578.4896	637.3064	745.6818	769.5817	831.928	846.3456	863.5019	875.7624	906.2637	915.9376	947.7037	979.6762	982.6754	1011.0829	1025.4824	1038.7711	1089.8887	1097.9886	1104.5644	1146.3952	1164.7985	1224.8087	1231.366	1246.9054	1282.2314	1284.7236	1299.3143	1325.9968	1332.2728	1343.8344	1369.9428	1458.5512	1489.5	1510.072	3067.6459	3075.9513	3107.0063	3124.1287	3125.2861	3129.749	3151.4581	3161.5404	3186.1207	3815.7771
OC1C2C1C1CCC2O1	O[C@H]1[C@H]2[C@@H]1[C@H]1CC[C@@H]2O1	
InChI=1S/C7H10O2/c8-7-5-3-1-2-4(9-3)6(5)7/h3-8H,1-2H2	InChI=1S/C7H10O2/c8-7-5-3-1-2-4(9-3)6(5)7/h3-8H,1-2H2/t3-,4+,5+,6-,7-
