18
gdb 30847	2.29212	1.44257	0.91549	1.1989	78.16	-0.1835	0.0272	0.2107	1286.4591	0.148008	-435.297764	-435.288184	-435.28724	-435.332412	33.984	
C	 0.2931240523	 1.4483782841	-0.0509830237	-0.332351
N	-0.2733118812	 0.1486844511	 0.307583691	-0.393127
C	 0.4616440477	-0.6777162075	 1.1298597516	 0.378453
C	 0.7003636527	-2.0167490131	 1.1283577705	 0.076145
N	 0.2726258334	-2.923111325	 0.1316053085	-0.61191
N	 1.426555957	-2.338880672	 2.2787264406	-0.327136
C	 1.6020668669	-1.2179933471	 2.8930628312	 0.366719
C	 2.3349364206	-0.9367421832	 4.1533435443	-0.489203
O	 1.0269497009	-0.1450783423	 2.2503979071	-0.21463
H	 1.2398796957	 1.3773194582	-0.607960321	 0.113268
H	-0.4333248591	 1.9914395103	-0.6598215117	 0.126614
H	 0.4734457965	 2.0256989604	 0.8582230059	 0.147255
H	-0.5879498064	-0.3867914082	-0.4926659416	 0.250045
H	-0.4041975484	-3.5840479023	 0.5047583133	 0.240005
H	 1.0542263634	-3.4787029211	-0.2051005164	 0.239927
H	 3.1720781829	-0.2499123511	 3.9845703757	 0.137942
H	 1.6810869522	-0.4777137665	 4.9029809634	 0.139702
H	 2.7235272832	-1.8753705747	 4.5497230014	 0.152283
73.5802	118.6654	139.6057	170.2672	181.6361	200.64	265.0453	278.9105	323.7455	395.8659	543.1859	613.6201	641.7685	685.7349	721.4187	733.8995	841.4402	873.163	961.891	1032.2994	1051.5883	1063.1986	1122.1495	1149.067	1186.2073	1222.9546	1244.3499	1293.1742	1410.1066	1418.6801	1471.9129	1473.595	1474.3798	1486.7053	1494.4818	1518.4458	1635.9562	1658.385	1724.5553	2987.3047	3034.8426	3085.0008	3094.1993	3135.6294	3152.3507	3478.0664	3538.049	3566.4084
CNC1=C(N)N=C(C)O1	CNc1c(N)nc(C)o1	
InChI=1S/C5H9N3O/c1-3-8-4(6)5(7-2)9-3/h7H,6H2,1-2H3	InChI=1S/C5H9N3O/c1-3-8-4(6)5(7-2)9-3/h7H,6H2,1-2H3
