18
gdb 8098	2.7677	1.97641	1.46181	3.5303	73.15	-0.2354	-0.0053	0.2301	934.103	0.152734	-347.806692	-347.798697	-347.797752	-347.838669	30.477	
C	-0.00638794	 1.5824980761	 0.0360839093	-0.421416
C	 0.0821130201	 0.0712421345	 0.1132793937	-0.049884
C	 1.328361595	-0.7437271241	-0.2404184129	-0.241657
C	 2.5534150271	-0.1017878546	 0.3270711977	 0.427412
O	 3.6575182598	 0.0935805482	-0.0998868013	-0.324617
C	 1.9521634758	-0.0176031195	 1.753860488	-0.421232
C	 0.706234154	-0.7357176131	 1.200188281	 0.332534
C	 0.0149409007	-1.863450831	 1.9105232384	-0.49392
H	 0.892612184	 2.0768446967	 0.4108846246	 0.131385
H	-0.1477661858	 1.9026781999	-1.00124378	 0.127592
H	-0.8591546687	 1.9500123873	 0.6175634004	 0.120398
H	-0.8018375419	-0.4202345118	-0.292980511	 0.093504
H	 1.3045025237	-1.4954125741	-1.0211691051	 0.102274
H	 2.5395741356	-0.6456521962	 2.4315382319	 0.127214
H	 1.8206329537	 0.9668848308	 2.2109394635	 0.116181
H	-0.5405233021	-1.4960833197	 2.7817768949	 0.127329
H	-0.6998307903	-2.3682305379	 1.2526513999	 0.122473
H	 0.7331084891	-2.6097153114	 2.2678508369	 0.124432
103.6287	185.3662	201.7503	218.5133	274.7907	308.9062	399.8007	465.2788	485.1869	590.4331	606.6395	652.7116	715.6001	829.0145	889.3309	935.156	954.7053	956.8946	1024.6268	1039.1212	1065.6103	1106.8373	1121.132	1138.0915	1151.5261	1206.0253	1241.3013	1287.8334	1335.3032	1417.3619	1418.9892	1451.9865	1476.3674	1486.1714	1495.273	1499.5104	1506.4081	1875.1178	3023.6032	3038.1768	3054.7069	3083.1074	3097.0795	3099.6966	3104.977	3107.6427	3131.1647	3184.0796
CC1C2C(=O)CC12C	C[C@H]1[C@H]2C(=O)C[C@@]12C	
InChI=1S/C7H10O/c1-4-6-5(8)3-7(4,6)2/h4,6H,3H2,1-2H3	InChI=1S/C7H10O/c1-4-6-5(8)3-7(4,6)2/h4,6H,3H2,1-2H3/t4-,6-,7-/m0/s1
