21
gdb 6929	4.7481	0.93473	0.87519	1.9338	75.96	-0.2385	0.0771	0.3156	1391.1439	0.187016	-366.241601	-366.231783	-366.230839	-366.276288	35.527	
C	 0.0451228414	 1.5338352782	-0.1552885043	-0.437224
C	-0.0268397945	 0.0361068263	 0.066548193	 0.321851
C	-1.1880548925	-0.6364841813	-0.6412620776	-0.455767
N	 1.2759546846	-0.6612072165	 0.0710349245	-0.370475
C	 0.4793117965	-0.6009988818	 1.3168080127	-0.053224
C	 1.0853489013	 0.1263897845	 2.4944297419	-0.191849
C	 2.1324276394	-0.7248581886	 3.2048864269	-0.064478
O	 2.6234910088	 0.0193593003	 4.3102488287	-0.423147
H	 0.9461231626	 1.9623037372	 0.2853423479	 0.130499
H	 0.0631148366	 1.7559303322	-1.2284459362	 0.114313
H	-0.8286203762	 2.0362081481	 0.2749207872	 0.112669
H	-1.1109558104	-0.5033303134	-1.7270781119	 0.119048
H	-1.2162880588	-1.7109866655	-0.4319195396	 0.108981
H	-2.1462498769	-0.2084982827	-0.3254874899	 0.121891
H	 1.1869033306	-1.5774527712	-0.3621096378	 0.220669
H	-0.040599497	-1.5187244483	 1.5976628108	 0.071475
H	 1.5611110923	 1.0567635868	 2.1742084957	 0.111543
H	 0.2995755014	 0.3925465804	 3.2123483609	 0.102757
H	 1.6799848171	-1.6752100781	 3.5360137723	 0.075487
H	 2.9355798679	-0.9722928001	 2.4945426428	 0.100947
H	 3.3318713558	-0.4849679865	 4.720338332	 0.284035
63.938	92.3328	117.0767	181.4156	213.8657	248.3602	258.4542	289.0093	336.6095	372.5951	428.1972	492.2915	527.1597	700.3519	794.3002	830.1509	886.3767	956.5166	977.1546	990.88	1011.7535	1021.2072	1075.6069	1084.8741	1105.069	1136.4051	1158.8523	1210.4982	1236.2255	1260.6804	1310.203	1314.3925	1329.752	1359.1081	1411.8585	1423.048	1457.2099	1464.0725	1476.023	1482.0263	1492.2943	1500.0624	1515.6306	1528.5965	2954.7152	3003.369	3020.4249	3032.5649	3040.1103	3080.6252	3083.1639	3089.4931	3096.1057	3107.2829	3140.2777	3488.4788	3831.3723
CC1(C)NC1CCO	CC1(C)N[C@H]1CCO	
InChI=1S/C6H13NO/c1-6(2)5(7-6)3-4-8/h5,7-8H,3-4H2,1-2H3	InChI=1S/C6H13NO/c1-6(2)5(7-6)3-4-8/h5,7-8H,3-4H2,1-2H3/t5-/m0/s1
