19
gdb 68670	2.66529	1.84756	1.49171	1.5213	79.29	-0.2286	0.0052	0.2338	954.9232	0.161247	-385.902321	-385.895065	-385.894121	-385.933262	30.707	
O	-0.0658640184	 1.4110581538	-0.0179221218	-0.506926
C	 0.0168436399	-0.0001664338	 0.0069865063	 0.361402
C	-1.3856034872	-0.6297849741	 0.0746319702	-0.241599
C	-0.9986405657	-2.0690853405	 0.483714282	-0.076445
C	-0.3731783363	-2.7826761231	-0.7482276493	-0.255357
C	 0.5318266176	-1.8670549733	-1.5425251976	-0.047978
C	 0.7173067152	-0.587552849	-1.214654976	-0.123341
C	 0.0763668383	-1.78136913	 1.5249068086	-0.07031
C	 0.6580301363	-0.6125641595	 1.260226401	-0.132877
H	 0.8253470513	 1.7643137148	-0.1099063465	 0.272815
H	-1.9689585997	-0.1413970471	 0.8596004539	 0.103196
H	-1.9210710481	-0.5624027597	-0.8757834003	 0.096226
H	-1.8366675881	-2.6559932464	 0.8697290874	 0.065307
H	 0.1881975012	-3.6729410961	-0.4298990999	 0.103734
H	-1.1732294153	-3.1575900487	-1.402035296	 0.108213
H	 1.0418049112	-2.2974866755	-2.4009926917	 0.086652
H	 1.3735690818	 0.0613042909	-1.7903351666	 0.076678
H	 0.3645834011	-2.4850943826	 2.2978093189	 0.09204
H	 1.5106781346	-0.1703213099	 1.7637517772	 0.088571
207.8845	236.1798	283.9754	337.4199	361.978	395.3089	454.3969	493.3967	579.6387	606.1024	677.0113	687.5212	769.5626	791.4819	818.2985	880.4425	904.0029	920.9535	948.3263	972.7692	981.313	992.667	1029.7238	1057.1765	1094.1885	1104.9719	1165.2814	1173.6652	1199.3425	1203.5305	1264.2012	1303.3523	1314.3116	1335.0452	1370.4748	1377.683	1402.4455	1464.9316	1492.9452	1661.4039	1696.7058	3001.2459	3026.0556	3057.87	3069.2036	3115.8564	3140.1697	3164.6165	3179.6203	3206.3075	3806.471
OC12CC(CC=C1)C=C2	O[C@@]12C[C@@H](CC=C1)C=C2	
InChI=1S/C8H10O/c9-8-4-1-2-7(6-8)3-5-8/h1,3-5,7,9H,2,6H2	InChI=1S/C8H10O/c9-8-4-1-2-7(6-8)3-5-8/h1,3-5,7,9H,2,6H2/t7-,8-/m0/s1
