17
gdb 79728	2.49623	1.7951	1.45854	1.8814	70.96	-0.2288	-0.0311	0.1977	949.4976	0.135544	-421.776345	-421.768656	-421.767712	-421.808516	29.764	
O	 0.1693120395	 1.4259142973	 0.319695492	-0.424562
C	 0.0178555667	 0.0576751135	 0.0556874929	 0.016558
C	-1.4116858237	-0.5510583248	 0.0455820476	-0.075602
C	-2.589835981	 0.2228010767	-0.5867970209	-0.037821
C	-2.1965309863	 1.031755283	-1.7891976169	-0.294781
C	-2.3415587352	-0.4570508844	-1.9392637779	-0.049459
C	-1.1319956384	-1.2277622896	-1.3418412049	-0.169848
C	 0.2103751004	-0.4683361717	-1.3935757189	 0.344556
O	 1.0591668585	-0.2783150676	-2.2167061874	-0.307179
H	 1.0210075004	 1.6978121279	-0.0425683284	 0.296551
H	 0.6533856455	-0.5630715776	 0.7146343764	 0.094687
H	-1.6816907274	-1.1527488734	 0.9112027574	 0.079093
H	-3.5292591049	 0.3915321725	-0.0756192086	 0.092158
H	-3.0109497594	 1.6022363169	-2.2249488822	 0.114819
H	-1.2356768378	 1.5312515481	-1.8468232198	 0.130757
H	-3.0465906993	-0.899508044	-2.6314442687	 0.095082
H	-1.1278742578	-2.307248773	-1.4868613516	 0.094991
93.6733	152.9238	185.0685	250.6008	263.0592	377.7064	488.7695	553.8931	615.9862	668.4359	746.4154	759.695	762.4515	840.452	874.9177	885.6785	928.9378	964.88	1001.8176	1029.7231	1047.3322	1053.7898	1065.5205	1079.9301	1098.0438	1165.568	1174.1896	1190.0814	1206.7425	1222.3806	1285.1006	1310.649	1314.522	1359.2715	1395.3404	1502.7303	1881.8812	2930.6082	3123.2967	3130.5345	3132.4613	3183.1265	3192.157	3212.9358	3793.5056
OC1C2C3CC3C2C1=O	O[C@H]1[C@H]2[C@H]3C[C@H]3[C@H]2C1=O	
InChI=1S/C7H8O2/c8-6-4-2-1-3(2)5(4)7(6)9/h2-6,8H,1H2	InChI=1S/C7H8O2/c8-6-4-2-1-3(2)5(4)7(6)9/h2-6,8H,1H2/t2-,3+,4-,5+,6-/m0/s1
