19
gdb 53553	4.27874	0.76539	0.73727	1.9004	83.8	-0.2298	0.0518	0.2817	1609.5108	0.15747	-385.81959	-385.810144	-385.8092	-385.856235	33.502	
C	 0.0382211986	 1.4994842117	 0.1799254226	-0.495848
C	 0.0411541757	 0.0510042501	 0.0307066629	 0.061092
C	 0.0537537066	-1.1467729226	-0.0907030892	 0.074326
C	 0.0298592056	-2.6014200035	-0.2466723833	-0.477419
C	-1.3569954274	-3.1807469198	-0.106125677	 0.298638
C	-1.9849992055	-3.5973994808	 1.2089223529	-0.332488
C	-1.8627880712	-4.5913433609	 0.0928172368	 0.039208
O	-2.9289440515	-4.429705331	-0.8450800312	-0.287877
C	-2.4638927738	-3.0861365585	-1.1543842869	-0.121506
H	 0.7194323686	 1.8196609946	 0.9761278012	 0.147286
H	 0.3528163721	 1.9970307864	-0.7441943895	 0.146852
H	-0.9612011136	 1.8714744274	 0.4315786247	 0.147498
H	 0.442665787	-2.8711664468	-1.2288776504	 0.128055
H	 0.6921300004	-3.0657858215	 0.4958209505	 0.127019
H	-1.2770412776	-3.7185344757	 2.0239687347	 0.113123
H	-2.9691967878	-3.2405256584	 1.5009275131	 0.114385
H	-1.3733059861	-5.5573960263	 0.1482640441	 0.103972
H	-3.2425720644	-2.3283829682	-1.0112960247	 0.107932
H	-2.0852205057	-3.0400770563	-2.1826965615	 0.105753
17.5879	39.1434	71.9548	198.1391	214.81	280.0232	314.9409	362.4472	380.1554	433.9508	460.1093	701.2307	750.939	760.5027	867.406	895.7087	921.336	933.8305	986.2464	1000.3474	1022.6524	1052.82	1053.7263	1063.8743	1080.3701	1099.8026	1152.6572	1161.6975	1181.4707	1263.0255	1287.7744	1322.4754	1343.6482	1409.4643	1415.5819	1464.0766	1478.9878	1479.3529	1484.1516	1515.4434	2373.6441	3004.7804	3020.7235	3026.2772	3037.727	3072.3578	3086.5013	3086.5297	3110.8732	3175.1362	3202.9783
CC#CCC12CC1OC2	CC#CC[C@]12C[C@H]1OC2	
InChI=1S/C8H10O/c1-2-3-4-8-5-7(8)9-6-8/h7H,4-6H2,1H3	InChI=1S/C8H10O/c1-2-3-4-8-5-7(8)9-6-8/h7H,4-6H2,1H3/t7-,8-/m1/s1
