15
gdb 18542	3.94269	2.06791	1.63014	3.5219	65.52	-0.2447	0.0024	0.2471	791.1664	0.121378	-362.695397	-362.689105	-362.688161	-362.725858	24.52	
O	-0.0859878301	 0.0416631212	 0.1914848979	-0.357721
C	-0.0442440841	 1.2332136628	 0.0450971066	 0.414518
N	-1.0232015528	 2.18815606	-0.1358986158	-0.327402
C	-0.1033339187	 3.3421298096	-0.006018314	-0.016948
C	-0.0385650196	 3.9928015517	 1.3523086153	-0.085382
C	 0.9834609016	 3.5362928691	 2.0770671262	-0.050784
C	 1.8318536429	 2.5197079111	 1.3455465002	-0.277026
C	 1.0728424357	 2.3102998967	 0.0209604352	-0.182017
H	-2.0129091214	 2.1212331638	 0.0599930036	 0.244583
H	-0.1775765468	 4.0392517793	-0.8454529696	 0.087132
H	-0.7605955141	 4.7313833043	 1.6825682331	 0.098318
H	 1.2086690761	 3.8440667038	 3.0930415213	 0.102567
H	 2.8480038228	 2.8970156631	 1.1769417481	 0.11468
H	 1.9391787539	 1.5845140776	 1.9076799245	 0.133331
H	 1.7065964247	 2.263338516	-0.8643774426	 0.102151
101.5443	216.4013	288.9079	420.3728	477.9857	506.3118	647.637	696.4297	725.3051	786.761	807.8777	858.3503	883.5711	945.4727	961.7575	978.7182	1016.6449	1019.505	1054.5605	1130.7551	1148.6638	1175.4367	1193.3627	1262.1021	1275.445	1315.7831	1339.5857	1364.6369	1377.9693	1481.9689	1678.0786	1889.0181	3029.6192	3061.6033	3067.5737	3120.7244	3179.727	3205.2606	3587.4544
O=C1NC2C=CCC12	O=C1N[C@H]2C=CC[C@@H]12	
InChI=1S/C6H7NO/c8-6-4-2-1-3-5(4)7-6/h1,3-5H,2H2,(H,7,8)	InChI=1S/C6H7NO/c8-6-4-2-1-3-5(4)7-6/h1,3-5H,2H2,(H,7,8)/t4-,5+/m1/s1
