18
gdb 101426	2.69092	1.05232	0.94998	0.7806	68.72	-0.2455	-0.0305	0.215	1296.9718	0.146437	-476.199311	-476.19009	-476.189146	-476.233983	33.597	
O	-0.2571198378	 1.3517513213	 0.236875021	-0.42318
C	-0.7421220097	 0.0692678855	 0.6327499729	-0.111211
C	-1.4006753024	-0.6297586588	-0.5591321971	 0.118836
O	-0.5287551639	-0.5949662895	-1.6747417427	-0.451843
C	-1.7582465435	-2.0864170431	-0.2908314706	-0.111224
N	-0.7568452251	-2.9197407599	 0.4304231934	-0.319223
C	-1.7748829218	-3.4902892693	 1.35125135	-0.281464
C	-2.7536896305	-2.4240405749	 0.8343456197	 0.381559
O	-3.8137077188	-1.9966294488	 1.1803625474	-0.292466
H	-1.0157483191	 1.9338463877	 0.1188740714	 0.28967
H	 0.1309774788	-0.5050790236	 0.9486493212	 0.139088
H	-1.4389663398	 0.1426129294	 1.4789216241	 0.103025
H	-2.3492717241	-0.1105340407	-0.7941332283	 0.068316
H	-0.0606959908	 0.2487290133	-1.6056359337	 0.287734
H	-2.1023998665	-2.5241051944	-1.2406699347	 0.108279
H	-0.2841641459	-3.5986941794	-0.1528432658	 0.233453
H	-2.1200488295	-4.5069394775	 1.1147972582	 0.125603
H	-1.5148139597	-3.4457960672	 2.4143214835	 0.135049
61.7601	93.3109	105.954	158.8215	216.8329	310.8386	313.2361	356.547	420.9736	495.1033	544.4843	576.5675	607.2623	659.941	788.0601	809.7373	887.5561	934.1861	994.7092	1005.7209	1032.4394	1070.8715	1087.7028	1095.6122	1108.7313	1140.6756	1189.9509	1213.0902	1268.2472	1288.4439	1337.5165	1365.4214	1367.3303	1387.1292	1396.1922	1449.1539	1477.2432	1500.1819	1910.2719	2925.053	2991.5826	3009.0268	3017.8977	3070.6635	3123.3889	3561.4326	3745.9438	3805.8057
OCC(O)C1NCC1=O	OC[C@@H](O)[C@H]1NCC1=O	
InChI=1S/C5H9NO3/c7-2-4(9)5-3(8)1-6-5/h4-7,9H,1-2H2	InChI=1S/C5H9NO3/c7-2-4(9)5-3(8)1-6-5/h4-7,9H,1-2H2/t4-,5+/m1/s1
