18
gdb 40597	5.77784	1.0002	0.98731	2.2974	76.75	-0.2357	0.08	0.3157	1232.3197	0.148336	-401.814684	-401.80759	-401.806646	-401.846697	27.77	
C	 0.2158341034	 1.585907865	-0.0005223786	-0.184695
O	 1.2633531522	 0.6218270247	-0.1005085585	-0.236488
C	-0.0883586011	 0.1492837557	-0.0459561135	 0.059034
C	-0.472274772	-0.6169998856	 1.1829591137	-0.02286
C	-1.9025178036	-1.1684511255	 1.3100132315	-0.029416
C	-1.657463912	-2.3855744836	 0.3634458051	-0.075358
C	-2.1563196816	-3.3152454652	 1.4617935934	-0.187834
N	-1.4266399223	-2.2671637643	 2.2985488312	-0.164291
C	-0.3505142812	-2.1497440027	 1.1841795462	-0.017988
H	 0.1567492953	 2.114770365	 0.9501954985	 0.114864
H	 0.0576841068	 2.20201254	-0.884722588	 0.114985
H	-0.4481734424	-0.2583590301	-0.9923075852	 0.091624
H	-0.0878648178	-0.1393975315	 2.0899543698	 0.089274
H	-2.8416128165	-0.6396175102	 1.4856547749	 0.083964
H	-1.7798100648	-2.4394496966	-0.7232579595	 0.070402
H	-3.232998071	-3.3560752882	 1.6575388693	 0.101894
H	-1.7148112369	-4.3145461092	 1.5353097757	 0.103396
H	 0.5427941953	-2.7759592777	 1.2113526839	 0.089494
70.9247	151.2675	172.3174	331.8222	383.9576	473.8325	523.3829	713.952	793.2383	811.6631	846.4304	855.6878	859.0473	890.6303	908.8879	919.961	945.2514	993.0958	1027.5147	1031.7395	1065.2334	1098.2203	1106.3531	1127.4675	1148.6542	1161.2424	1164.7063	1168.3359	1188.7736	1191.2214	1220.938	1254.7521	1277.3478	1292.5959	1310.317	1325.3475	1466.1593	1519.5973	1530.288	3033.9458	3048.8905	3065.4627	3080.7459	3094.5967	3095.2804	3097.2348	3106.4124	3167.4624
C1OC1C1C2C3CN2C13	C1O[C@H]1[C@H]1[C@H]2[C@@H]3CN2[C@H]13	
InChI=1S/C7H9NO/c1-3-6-5(4-2-9-4)7(3)8(1)6/h3-7H,1-2H2	InChI=1S/C7H9NO/c1-3-6-5(4-2-9-4)7(3)8(1)6/h3-7H,1-2H2/t3-,4-,5-,6+,7-/m1/s1
