18
gdb 20723	3.24208	1.93154	1.2383	2.3369	75.18	-0.2193	0.0341	0.2534	997.879	0.153532	-344.030575	-344.021517	-344.020573	-344.06521	31.574	
C	 0.0220194796	 1.4768781282	-0.0690309771	-0.493393
C	 0.0285219179	-0.0152233996	 0.0343408246	 0.285722
N	 0.036793527	-0.7719613747	-1.058902901	-0.292869
N	 0.0400900548	-2.0373602586	-0.5897464496	-0.263202
C	 0.0321282323	-2.1136716699	 0.7682880468	 0.294785
C	 0.0427286643	-3.4218299383	 1.4896941995	-0.505994
C	 0.0249244974	-0.8047492486	 1.2182408137	 0.065942
C	 0.0176973198	-0.306350981	 2.6302804958	-0.514998
H	 0.9050380604	 1.9188260854	 0.4077070058	 0.122573
H	 0.0124626951	 1.7767929861	-1.1190232186	 0.1379
H	-0.856882912	 1.9114041469	 0.4219312525	 0.122412
H	 0.0408069793	-2.7996516126	-1.2455454196	 0.263132
H	 0.9992451958	-3.9461650874	 1.3757994759	 0.135946
H	-0.1225851646	-3.2696040395	 2.5583660688	 0.140306
H	-0.7449640463	-4.0917340596	 1.1261030457	 0.131585
H	 0.9320653403	 0.2491096845	 2.873079666	 0.126309
H	-0.8233581937	 0.3723407545	 2.816003109	 0.126045
H	-0.0622270472	-1.127021816	 3.3490686416	 0.117802
24.5412	89.8005	122.513	154.9611	239.8464	270.6381	278.9124	329.9049	460.7375	462.5459	574.0567	670.8583	696.4179	705.4578	764.6059	953.9903	987.8364	1011.2685	1049.014	1059.0888	1076.7255	1122.5423	1186.5836	1230.1617	1299.5797	1402.6162	1411.8762	1424.3777	1434.116	1474.7366	1479.1637	1482.2855	1483.6591	1487.3209	1503.0354	1512.6387	1522.7283	1636.2735	3020.2168	3025.6586	3026.4797	3065.119	3072.4336	3074.8152	3101.4469	3125.6141	3129.8508	3673.8048
CC1=NNC(C)=C1C	Cc1n[nH]c(C)c1C	
InChI=1S/C6H10N2/c1-4-5(2)7-8-6(4)3/h1-3H3,(H,7,8)	InChI=1S/C6H10N2/c1-4-5(2)7-8-6(4)3/h1-3H3,(H,7,8)
