19
gdb 120538	6.61306	0.64612	0.6195	3.1741	73.71	-0.2483	-0.0344	0.2139	1783.8862	0.156354	-460.134973	-460.125102	-460.124158	-460.171628	33.46	
C	 0.2022449813	 1.6181284866	-0.907501963	-0.226075
O	-0.1118247542	 0.2453389782	-0.9498467952	-0.236665
C	 0.8141167286	-0.5548423153	-0.2543014635	-0.071593
C	 0.3568764957	-1.9967898979	-0.3819493505	 0.123989
C	 0.591226149	-2.68885211	-1.7398157799	-0.308485
C	 1.5917481471	-3.5763086094	-0.9487043707	 0.057342
O	 1.2772882608	-2.8964603522	 0.2829512192	-0.310154
C	 1.2280408239	-5.0457375706	-0.8994081506	 0.135681
O	 1.7245657165	-5.8856191283	-1.6031318503	-0.239043
H	 0.2153121978	 2.000867118	 0.1248696127	 0.108915
H	 1.1831929655	 1.8257754827	-1.362887998	 0.107224
H	-0.5691332799	 2.1473319287	-1.4717509564	 0.130712
H	 1.830391142	-0.4450961709	-0.6704397821	 0.088324
H	 0.8647824324	-0.2801434981	 0.8128022942	 0.099066
H	-0.6597710427	-2.0946086883	 0.0163502247	 0.093862
H	-0.2711193173	-3.2157394577	-2.1510174991	 0.124739
H	 1.0360241999	-2.0654842723	-2.5155572024	 0.129335
H	 2.6442450661	-3.4711422419	-1.2342107253	 0.105611
H	 0.4283574674	-5.2797212315	-0.1592580638	 0.087216
37.5487	52.6672	84.3391	95.0482	154.4707	228.0975	255.9057	287.1617	364.6684	391.735	464.0686	535.0265	800.4407	836.585	893.7577	908.267	954.1985	988.2837	1024.349	1046.6391	1055.1801	1121.3147	1146.5834	1165.1648	1173.4865	1197.3335	1225.0409	1244.8771	1250.7915	1254.8599	1296.598	1317.8623	1372.9889	1400.7784	1427.2244	1480.7826	1485.6673	1489.8127	1503.5969	1525.7877	1834.0693	2875.6213	2953.5482	2975.5092	2987.3521	3020.0084	3042.7399	3052.4522	3087.6736	3117.9929	3145.547
COCC1CC(O1)C=O	COC[C@H]1C[C@@H](O1)C=O	
InChI=1S/C6H10O3/c1-8-4-6-2-5(3-7)9-6/h3,5-6H,2,4H2,1H3	InChI=1S/C6H10O3/c1-8-4-6-2-5(3-7)9-6/h3,5-6H,2,4H2,1H3/t5-,6-/m1/s1
