13
gdb 56954	3.97498	1.05308	0.91001	3.4056	63.63	-0.3215	-0.0307	0.2908	1194.3084	0.087811	-452.724609	-452.716152	-452.715208	-452.758387	29.544	
O	-0.2800299015	 1.3082773164	-0.0884072316	-0.388378
C	-0.0446409574	-0.070122032	-0.0876454516	-0.050028
C	 0.8272447285	-0.4874850487	-1.2132117499	 0.257918
N	 1.5160928543	-0.8141715765	-2.0807780132	-0.298523
C	 0.581319991	-0.5569544879	 1.2222652657	 0.036458
O	 1.416391125	 0.3921056315	 1.873634229	-0.22988
C	 0.2067500237	-0.0053255471	 2.5389620169	-0.102717
C	-0.8218159642	 0.9914020392	 2.7408899557	 0.311052
N	-1.6547278007	 1.7499719311	 2.9968516318	-0.311784
H	 0.5169602941	 1.7401230319	 0.2498086042	 0.309949
H	-1.0159218321	-0.5611903469	-0.2209045946	 0.164725
H	 0.9666218431	-1.5759081005	 1.2001635342	 0.142625
H	 0.3678747861	-0.6374345306	 3.4105904334	 0.158584
51.9147	108.7746	159.2595	202.4376	256.0904	262.3694	334.9908	438.5181	442.1982	559.8315	575.9838	600.503	710.1301	805.8473	854.1316	911.7284	983.4134	993.959	1084.4151	1131.274	1149.2368	1257.5054	1295.5365	1312.3363	1378.6884	1424.5734	1449.1085	2359.6149	2366.1805	3057.6222	3125.7366	3138.1792	3762.3838
OC(C#N)C1OC1C#N	O[C@@H](C#N)[C@H]1O[C@H]1C#N	
InChI=1S/C5H4N2O2/c6-1-3(8)5-4(2-7)9-5/h3-5,8H	InChI=1S/C5H4N2O2/c6-1-3(8)5-4(2-7)9-5/h3-5,8H/t3-,4-,5+/m0/s1
