17
gdb 55807	4.50303	0.92437	0.83837	4.8241	70.51	-0.2457	0.0502	0.2959	1355.2668	0.136308	-455.104782	-455.09652	-455.095576	-455.138859	31.153	
N	 0.0308137719	 1.4043532766	 0.0921379876	-0.571189
C	 0.1254176981	 0.0222798264	-0.0337933767	 0.455696
O	 1.1850074047	-0.5537645332	-0.1800102251	-0.380972
N	-1.0953026968	-0.6219131166	 0.05534766	-0.378986
C	-1.1752499338	-2.0513211774	 0.0743537966	 0.096159
C	-1.8813025428	-2.8498269018	 1.2179035846	 0.021144
C	-3.2667180122	-2.3826795858	 0.7049998756	-0.243358
C	-2.4026090176	-2.8141713896	-0.506931734	 0.014987
O	-1.9610404961	-3.9870162196	 0.2772360993	-0.296337
H	 0.8843077637	 1.8686220456	-0.1802709955	 0.262578
H	-0.803276881	 1.8510852166	-0.2594601741	 0.246552
H	-1.8790873175	-0.0901718953	 0.3974408747	 0.241036
H	-0.211906557	-2.4618702649	-0.2179477202	 0.136874
H	-1.5495841881	-3.0583110377	 2.2352807393	 0.100045
H	-4.0913571013	-3.0561526105	 0.9409902894	 0.116031
H	-3.5541850555	-1.3319116043	 0.8127398707	 0.082651
H	-2.6944494989	-2.9808462983	-1.5442689322	 0.09709
29.2112	82.7258	150.1683	288.7868	333.3237	377.1308	395.2234	448.7423	558.6436	564.7921	607.315	679.1369	738.1988	773.9793	818.8877	870.2532	889.6144	906.5026	948.3314	995.0139	1004.9135	1070.7516	1094.6355	1102.6448	1144.8115	1164.5696	1188.6876	1197.4065	1221.8516	1261.57	1282.2201	1296.0733	1381.964	1497.3575	1541.4119	1627.8669	1810.9544	3049.3653	3116.0105	3121.4985	3140.4219	3170.043	3570.6063	3634.4978	3684.1083
NC(=O)NC1C2CC1O2	NC(=O)N[C@H]1[C@H]2C[C@@H]1O2	
InChI=1S/C5H8N2O2/c6-5(8)7-4-2-1-3(4)9-2/h2-4H,1H2,(H3,6,7,8)	InChI=1S/C5H8N2O2/c6-5(8)7-4-2-1-3(4)9-2/h2-4H,1H2,(H3,6,7,8)/t2-,3+,4+
