17
gdb 12399	2.95187	2.13338	1.32032	3.6696	64.07	-0.2433	0.0061	0.2494	917.1771	0.144486	-401.037707	-401.030171	-401.029227	-401.069651	28.227	
N	-0.0818897855	 1.4972578043	 0.0479724017	-0.512523
C	-0.0560084427	 0.0449605425	-0.0581463121	-0.093149
C	-1.4594840557	-0.5565737849	 0.0261933663	-0.209733
C	-1.3681866527	-2.0692957565	-0.1666936821	-0.22931
C	-0.7477649598	-2.372125086	-1.5220655845	-0.059485
O	 0.5035792237	-1.6995240009	-1.757173831	-0.228538
C	 0.7488073194	-0.4576012857	-1.2757635774	 0.391254
O	 1.6466328485	 0.187354032	-1.7492672182	-0.328211
H	 0.8561147481	 1.8416108726	-0.1438910019	 0.244255
H	-0.6577288265	 1.8731328999	-0.7025103642	 0.224251
H	 0.5151904057	-0.3357129774	 0.8034717757	 0.117451
H	-1.9092296834	-0.2904434654	 0.9865207889	 0.119425
H	-2.0965041997	-0.1201594284	-0.7564699623	 0.09958
H	-0.7598567296	-2.5141626482	 0.6302309834	 0.114323
H	-2.3554784247	-2.5411132109	-0.1207097498	 0.11087
H	-0.5253599429	-3.4354651197	-1.6398498723	 0.124582
H	-1.435914232	-2.0815844673	-2.3271126502	 0.114959
78.2293	136.0104	251.729	292.4589	307.8143	365.3303	419.7091	452.2937	542.1392	602.3503	675.3509	782.1016	885.6681	906.4632	925.7467	938.196	985.1266	1057.7698	1077.3096	1105.3835	1163.5721	1174.6109	1193.8762	1238.0371	1281.4178	1301.8616	1348.2032	1362.3358	1383.3422	1406.9235	1427.3627	1483.2379	1497.0222	1515.5679	1672.3962	1830.1118	2985.6995	3013.921	3019.7672	3036.6264	3083.1378	3091.6523	3100.2292	3475.4758	3548.3022
NC1CCCOC1=O	N[C@H]1CCCOC1=O	
InChI=1S/C5H9NO2/c6-4-2-1-3-8-5(4)7/h4H,1-3,6H2	InChI=1S/C5H9NO2/c6-4-2-1-3-8-5(4)7/h4H,1-3,6H2/t4-/m0/s1
