18
gdb 18085	5.05807	1.16403	1.12055	1.762	68.52	-0.2362	0.0792	0.3154	1129.1979	0.153228	-384.873385	-384.865403	-384.864459	-384.906484	28.743	
C	-0.0277710372	 1.3392987216	-0.174847904	-0.223921
O	-0.0714865823	-0.0661117223	-0.1895577774	-0.233735
C	-1.3338077001	-0.5766996996	 0.1929061067	-0.08605
C	-1.2681139839	-2.0784126744	 0.1117860761	-0.043834
C	-2.4696264429	-3.0070769577	 0.1320514864	-0.166759
C	-3.5925831138	-2.4491932558	-0.7365308454	-0.092301
O	-2.6830695454	-2.2299645223	-1.847832775	-0.282448
C	-1.6235172688	-2.8557573951	-1.1168669745	 0.095768
H	 0.9772872294	 1.6394977522	-0.4816836705	 0.125128
H	-0.7582267612	 1.779627766	-0.8723569486	 0.104807
H	-0.2280434849	 1.7465306254	 0.8297982941	 0.099421
H	-1.5791235753	-0.2551124807	 1.2202155787	 0.081331
H	-2.1193245765	-0.1912153922	-0.4740004264	 0.102059
H	-0.4204965201	-2.5033893237	 0.6454192897	 0.099187
H	-2.5636423404	-3.82870617	 0.8291050221	 0.099274
H	-4.340175835	-3.2049110302	-1.0027477373	 0.111112
H	-4.0977534816	-1.5301717729	-0.4172776614	 0.105962
H	-0.9672335601	-3.5288119483	-1.6561594033	 0.104998
64.7949	85.1986	145.384	218.367	248.5836	300.0329	401.7131	461.206	613.3686	749.4158	790.1644	810.4821	905.7529	958.319	977.3117	987.7674	1003.6373	1031.0092	1055.0771	1062.375	1082.5916	1129.7013	1155.8604	1166.4425	1179.2923	1197.0963	1232.7764	1260.62	1278.5791	1311.7057	1349.1108	1405.846	1460.5294	1480.4609	1484.8664	1499.9403	1518.0242	1526.0562	2950.1966	2966.4834	3006.5939	3010.597	3025.4013	3071.5603	3111.253	3141.5784	3181.8652	3204.1867
COCC1C2COC12	COC[C@H]1[C@H]2CO[C@@H]12	
InChI=1S/C6H10O2/c1-7-2-4-5-3-8-6(4)5/h4-6H,2-3H2,1H3	InChI=1S/C6H10O2/c1-7-2-4-5-3-8-6(4)5/h4-6H,2-3H2,1H3/t4-,5+,6-/m0/s1
