16
gdb 15555	3.72598	1.80351	1.37846	1.2317	71.73	-0.2485	0.016	0.2645	901.1799	0.130052	-346.576939	-346.569377	-346.568433	-346.608582	29.064	
O	 0.0802672834	 1.4499136544	 0.2681035819	-0.435056
C	 0.0294867116	 0.0476456632	 0.1182446258	 0.120932
C	 0.6175091852	-0.5677152567	 1.405212926	-0.267071
C	-0.5995975183	-0.8731395153	 2.2429785642	-0.064636
C	-1.7243481825	-0.8221122639	 1.5359432001	-0.06365
C	-1.4482837973	-0.4930739273	 0.0767644094	-0.228053
C	-2.3753958439	 0.4446479007	-0.5434822618	 0.286443
C	-3.1050725869	 1.2455515422	-1.0674249055	-0.445393
H	-0.5659251201	 1.8355637055	-0.3370757097	 0.283909
H	 0.5731632099	-0.2664148836	-0.7838932661	 0.067153
H	 1.1887257054	-1.4805858021	 1.188601332	 0.105143
H	 1.30660843	 0.1418111122	 1.8735031761	 0.124674
H	-0.5375225227	-1.1286540455	 3.2948112028	 0.09798
H	-2.725716455	-1.0168949288	 1.8994334672	 0.104948
H	-1.4629209909	-1.4225704393	-0.5131255666	 0.111682
H	-3.7730372779	 1.9338185242	-1.5238338258	 0.200996
93.7789	147.9129	188.2186	354.2283	365.0911	373.1193	414.6582	520.3893	536.6735	619.9323	653.2387	707.0836	767.2308	817.3213	830.0334	885.5367	954.3766	969.2759	986.2417	1022.0132	1061.2882	1096.9389	1131.9868	1188.0957	1228.1508	1264.6129	1302.9937	1321.4844	1339.4579	1378.7578	1420.9421	1471.7052	1686.3351	2226.4258	2980.4305	2999.0757	3023.3748	3082.9582	3190.5383	3219.074	3501.3155	3763.7413
OC1CC=CC1C#C	O[C@H]1CC=C[C@H]1C#C	
InChI=1S/C7H8O/c1-2-6-4-3-5-7(6)8/h1,3-4,6-8H,5H2	InChI=1S/C7H8O/c1-2-6-4-3-5-7(6)8/h1,3-4,6-8H,5H2/t6-,7+/m1/s1
