17
gdb 71832	2.63398	2.03355	1.39767	1.2733	72.05	-0.2112	0.0112	0.2223	926.6289	0.136227	-421.784456	-421.777238	-421.776293	-421.815375	30.311	
O	 0.0614270072	 1.3725710991	 0.0444465282	-0.470764
C	 0.0159483953	 0.0009684798	-0.0321935186	 0.379451
C	 0.7534113752	-0.8039076624	-1.0732904732	-0.28712
C	-0.2235165124	-2.0094744333	-0.7366016142	-0.112089
C	 0.4056501488	-2.8340545136	 0.3690744557	-0.083179
C	 0.405286432	-2.1174662087	 1.4975569229	-0.17174
C	-0.3119226215	-0.8349244879	 1.2432454807	 0.30218
O	-0.8414442321	-0.0523587678	 2.2788133957	-0.494408
C	-1.1475878338	-0.9780736076	-0.0014549096	-0.207873
H	-0.3952941553	 1.6102937653	 0.8640749601	 0.281696
H	 0.5468869549	-0.4128490839	-2.0727509613	 0.113531
H	 1.8284332459	-0.9749269706	-0.952254409	 0.091378
H	-0.6188971562	-2.5507483566	-1.5937649384	 0.076853
H	 0.9040988022	-3.7812448931	 0.2056700741	 0.10013
H	 0.880868235	-2.367935088	 2.4382014902	 0.094544
H	-0.1094273589	 0.2190641266	 2.8448716477	 0.290731
H	-2.2251238563	-0.8688075674	-0.048025091	 0.09668
218.9779	242.4237	270.2252	353.7378	358.9641	417.7991	436.4324	514.888	561.425	630.6242	636.5022	677.9028	723.5712	774.186	824.0369	858.1767	865.6664	913.4872	923.4319	951.5965	965.5537	1042.3617	1060.5907	1089.7123	1117.3374	1131.1089	1169.309	1208.0199	1238.7556	1251.5942	1288.9603	1342.4396	1366.6241	1408.9234	1422.2409	1496.465	1642.3141	3041.6695	3105.4998	3129.9133	3178.8926	3195.6127	3221.8886	3737.9947	3789.0952
OC12CC3C=CC1(O)C23	O[C@@]12C[C@H]3C=C[C@]1(O)[C@@H]23	
InChI=1S/C7H8O2/c8-6-2-1-4-3-7(6,9)5(4)6/h1-2,4-5,8-9H,3H2	InChI=1S/C7H8O2/c8-6-2-1-4-3-7(6,9)5(4)6/h1-2,4-5,8-9H,3H2/t4-,5+,6+,7-/m1/s1
