19
gdb 57947	2.61348	1.16009	0.91545	2.0763	74.25	-0.245	0.0055	0.2505	1316.1695	0.158521	-456.411072	-456.400741	-456.399797	-456.447375	36.075	
C	-0.0352468822	 1.2152716717	 0.4964595489	-0.347167
N	-0.1680930153	-0.1771008086	 0.0944328749	-0.072521
C	 0.5784104494	-0.5833319538	-1.0889624593	-0.358193
C	-0.9728231553	-1.0020471717	 0.8215881238	 0.395637
O	-1.678940476	-0.6045395598	 1.742754717	-0.401891
C	-1.025001957	-2.4780760591	 0.4282729592	-0.410537
C	-2.1976939618	-2.7143234281	-0.5344675866	 0.386709
N	-3.4107242858	-2.4377280031	 0.0196751456	-0.501629
O	-2.0381976271	-3.112873098	-1.6721141991	-0.362106
H	-0.4147481608	 1.8828145354	-0.28671432	 0.126376
H	-0.6092098519	 1.3666934904	 1.4087027488	 0.170169
H	 1.0181054083	 1.4613112127	 0.6767877772	 0.124969
H	 1.6182241894	-0.8460282184	-0.8515609564	 0.126743
H	 0.0984353534	-1.4218818884	-1.5927576191	 0.175386
H	 0.5973706901	 0.2541571792	-1.7931630403	 0.133604
H	-0.120548568	-2.8564287561	-0.0423234843	 0.132316
H	-1.2013069674	-3.0232259549	 1.3580662752	 0.146475
H	-3.4414497299	-1.8975417131	 0.8730930348	 0.27643
H	-4.210532082	-2.4218856563	-0.5929775604	 0.25923
52.0032	62.1429	89.8471	126.4176	143.4294	186.6217	239.3601	314.2223	387.4347	435.2761	453.7564	481.5606	525.949	575.615	615.644	679.7634	705.7598	813.844	903.0932	962.4482	997.3562	1084.5372	1097.1906	1131.5926	1153.3632	1174.9509	1218.7293	1272.5746	1288.5622	1347.394	1427.3098	1437.1957	1477.5503	1482.9903	1496.9728	1506.8604	1515.3247	1539.9607	1624.3333	1730.9943	1801.4465	3011.0965	3021.1111	3069.0083	3083.9724	3090.9339	3148.5323	3167.8223	3173.2309	3557.2854	3698.1632
CN(C)C(=O)CC(N)=O	CN(C)C(=O)CC(=O)N	
InChI=1S/C5H10N2O2/c1-7(2)5(9)3-4(6)8/h3H2,1-2H3,(H2,6,8)	InChI=1S/C5H10N2O2/c1-7(2)5(9)3-4(6)8/h3H2,1-2H3,(H2,6,8)
