20
gdb 116019	2.35247	1.4843	1.11359	5.1277	82.63	-0.2153	-0.0267	0.1886	1171.3396	0.172697	-403.192291	-403.183508	-403.182564	-403.22576	33.293	
C	 0.0300806521	 1.6135629131	-0.0508889188	-0.383553
C	 0.0233770298	 0.087087168	 0.0676882073	-0.176711
C	-1.393702449	-0.5335682978	 0.0487228307	-0.09092
C	-1.3620029036	-2.0605695458	-0.0944094232	-0.209118
N	-0.8685212328	-2.6795928516	 1.1320261481	-0.275832
C	-1.3720018134	-2.226007341	 2.3132866391	 0.020156
C	-2.028511206	-1.0450028417	 2.4448293887	-0.218531
C	-2.1630237872	-0.1281156842	 1.321323725	 0.364674
O	-2.767447817	 0.9309179005	 1.3797766907	-0.369145
H	 1.0532982247	 1.9996856418	-0.0053397596	 0.104363
H	-0.4076193846	 1.9347018314	-1.0023764582	 0.112751
H	-0.5523103845	 2.0784601945	 0.7478040413	 0.146439
H	 0.5949937054	-0.3464433528	-0.7638220619	 0.08718
H	 0.5390495336	-0.2201252228	 0.9853758988	 0.109674
H	-1.9439209049	-0.1212405502	-0.8035115985	 0.092862
H	-2.3794164832	-2.4254129978	-0.3110149446	 0.108565
H	-0.713763668	-2.3574146422	-0.9249797323	 0.109881
H	-0.6191373064	-3.6539055863	 1.0835158106	 0.251166
H	-1.1978284331	-2.8738074059	 3.1680185901	 0.119453
H	-2.4127860518	-0.7348084792	 3.4078847869	 0.096645
77.9895	114.0241	172.3137	195.1603	248.8067	302.1898	364.5064	391.1673	441.9552	483.0677	535.3155	605.2776	719.1306	731.4414	801.3961	836.0534	843.1881	908.6488	934.3872	981.8018	1016.5499	1032.268	1064.4236	1075.7938	1135.2633	1138.1468	1221.137	1246.47	1269.2748	1287.3701	1295.0046	1347.9566	1362.2746	1390.5916	1419.0025	1426.6209	1486.1221	1490.1083	1495.9293	1507.5318	1529.9322	1661.3071	1747.9119	2970.7385	3014.1105	3037.7316	3051.4278	3066.36	3071.6476	3100.5563	3130.1073	3172.0102	3218.4346	3637.4204
CCC1CNC=CC1=O	CC[C@H]1CNC=CC1=O	
InChI=1S/C7H11NO/c1-2-6-5-8-4-3-7(6)9/h3-4,6,8H,2,5H2,1H3	InChI=1S/C7H11NO/c1-2-6-5-8-4-3-7(6)9/h3-4,6,8H,2,5H2,1H3/t6-/m0/s1
