18
gdb 97607	2.14672	0.80839	0.61146	2.0592	80.06	-0.2641	0.0105	0.2746	1792.8029	0.144625	-439.042588	-439.031842	-439.030898	-439.081333	36.042	
C	-0.1388594173	 1.9569569296	 0.1450805202	-0.391732
C	-0.1460488664	 0.4416116952	-0.0508080918	-0.066799
O	 0.4168033161	 0.1978921579	-1.3544918886	-0.179891
C	 0.2201112164	-1.032891768	-1.8709851921	 0.130805
N	 0.7383238589	-1.3387600424	-2.9797632505	-0.43845
C	 0.6007854505	-0.2589803888	 0.9945410446	 0.111079
C	 1.2156014776	-0.8273087114	 1.8610433386	 0.026861
C	 1.9731137114	-1.556052149	 2.8793206289	-0.199284
O	 1.6513526632	-2.9368305768	 2.9484691004	-0.398237
H	 0.8863630077	 2.3325909339	 0.1198536931	 0.144958
H	-0.7104755641	 2.4325036396	-0.6553493516	 0.134136
H	-0.5853831459	 2.2118261162	 1.1089281544	 0.132028
H	-1.1857466022	 0.0829787447	-0.04902317	 0.112574
H	-0.4125051241	-1.6774684122	-1.2457727958	 0.091151
H	 0.47519549	-2.2883997969	-3.2350935432	 0.228971
H	 3.0498120332	-1.3995951511	 2.708413973	 0.126453
H	 1.7489783205	-1.1473906918	 3.8708073536	 0.14596
H	 1.8001334944	-3.3131815986	 2.0746710771	 0.289416
12.0834	49.7792	82.6714	103.5924	138.4063	190.6901	213.3716	248.0284	290.6038	348.7462	410.3473	463.5383	547.8474	569.5033	643.4857	750.2786	820.565	907.0524	976.2416	996.4711	1041.1004	1049.8381	1078.828	1112.2517	1124.0773	1178.5819	1215.6423	1292.7277	1342.7977	1355.5467	1365.6278	1405.8057	1416.0136	1427.2989	1482.6062	1486.3188	1494.5617	1746.9466	2356.5971	2983.9459	2997.0704	3027.7286	3056.9108	3066.7195	3139.0911	3142.5612	3516.2366	3816.3178
CC(OC=N)C#CCO	C[C@@H](O[CH][NH])C#CCO	
InChI=1S/C6H9NO2/c1-6(9-5-7)3-2-4-8/h5-8H,4H2,1H3	InChI=1S/C6H9NO2/c1-6(9-5-7)3-2-4-8/h5-8H,4H2,1H3/t6-/m1/s1
