18
gdb 10916	3.07876	1.92954	1.4931	1.4779	67.28	-0.2445	0.0658	0.3102	898.8793	0.152496	-384.904852	-384.896526	-384.895582	-384.936962	31.803	
C	-0.1629851827	 1.5530682494	 0.061475843	-0.421527
C	 0.0360066386	 0.0437256817	 0.0298983191	-0.086756
C	 1.1395662291	-0.5647529842	-0.9276580952	 0.092521
O	 2.0241992962	 0.3335500193	-1.5678679812	-0.425298
C	 1.7709466345	-1.2805197101	 0.2579725186	-0.114793
C	 2.1850453002	-0.2671519246	 1.3049267632	-0.346515
C	 0.7413738383	-0.6626116307	 1.1965342034	 0.388962
O	 0.0676073199	-1.3114178315	 2.2188830292	-0.465874
H	 0.7840505382	 2.0830116603	 0.1928061915	 0.126718
H	-0.6161781315	 1.9122700734	-0.870203815	 0.10509
H	-0.8328225981	 1.8423618771	 0.8787789882	 0.112231
H	-0.9173135235	-0.4606810719	-0.1592436817	 0.075551
H	 0.7015001018	-1.2631371008	-1.6519330525	 0.068614
H	 1.5399021479	 0.7834290508	-2.2676293208	 0.282896
H	 2.1786466862	-2.2831974668	 0.2461394908	 0.090972
H	 2.6944295844	-0.7055852218	 2.1572683985	 0.110119
H	 2.5463697562	 0.7123173146	 1.0089157422	 0.121379
H	-0.0019704057	-0.7081422644	 2.9663169387	 0.28571
121.2672	183.5924	213.8804	227.411	261.1281	273.1062	298.1444	394.9903	462.4417	535.5991	567.1032	672.2342	684.0052	790.368	841.2385	907.3944	925.3065	960.3253	997.0544	1025.9427	1046.6066	1074.1904	1095.3213	1121.5891	1148.0558	1197.996	1215.657	1242.3194	1260.5199	1323.1349	1326.2439	1362.5124	1399.9808	1414.9535	1424.2512	1494.313	1495.9168	1503.6793	3012.8919	3027.7561	3055.0907	3084.3958	3115.6095	3126.8389	3194.6461	3214.274	3801.3362	3815.6016
CC1C(O)C2CC12O	C[C@H]1[C@@H](O)[C@H]2C[C@@]12O	
InChI=1S/C6H10O2/c1-3-5(7)4-2-6(3,4)8/h3-5,7-8H,2H2,1H3	InChI=1S/C6H10O2/c1-3-5(7)4-2-6(3,4)8/h3-5,7-8H,2H2,1H3/t3-,4+,5+,6+/m0/s1
