19
gdb 37905	3.03746	2.11288	1.96288	0.8848	83.66	-0.2072	-0.0222	0.1851	828.3288	0.162451	-348.659595	-348.653739	-348.652795	-348.689243	26.444	
C	 0.0049506586	 1.5756817208	 0.2623423394	-0.20667
C	 1.5198114929	 1.5735517702	-0.1147430087	-0.063889
C	 2.6047412178	 0.9043163336	 0.8680329757	-0.018965
C	 2.3561147398	 0.8084369488	 2.4002952451	-0.260312
C	 1.0197325485	 0.0582330298	 2.3951969555	-0.124633
C	 0.8459634848	-0.5164455545	 1.193992193	 0.094504
C	-0.0506487816	 0.0289078973	 0.0476036479	-0.11078
C	 1.279235251	 0.166136652	-0.7970003152	-0.03468
C	 2.1118969814	-0.4576751306	 0.3399809502	-0.070244
H	-0.3227181137	 1.9710996752	 1.227953811	 0.090732
H	-0.537466419	 2.0887406167	-0.5423341019	 0.092159
H	 1.8818701951	 2.4456550137	-0.6586545057	 0.068415
H	 3.6161511802	 1.220191825	 0.5871333627	 0.053354
H	 3.2009645475	 0.3118063839	 2.9004027172	 0.103366
H	 2.2270880614	 1.7791305074	 2.8954706261	 0.103082
H	 0.2160205493	 0.3439683823	 3.0672672017	 0.092251
H	-0.9679503068	-0.4477024187	-0.2989207553	 0.068845
H	 1.3694509412	-0.0405926201	-1.860983884	 0.061548
H	 2.7566426615	-1.3336555726	 0.2450561452	 0.061915
253.6738	337.7574	420.5678	458.8414	579.2282	631.8174	684.2191	708.8678	728.7655	795.3861	821.4134	840.5686	867.0976	887.0354	904.5003	910.0377	928.9871	959.057	970.6206	978.8691	1012.4881	1029.2716	1057.6845	1083.0378	1095.711	1143.1685	1146.8021	1174.6329	1181.3252	1194.3969	1216.419	1234.5922	1247.2904	1260.3528	1273.7991	1299.5503	1311.5397	1325.844	1470.711	1479.7689	1613.2351	2994.0532	3020.4213	3039.5907	3046.5156	3082.658	3088.0886	3101.1361	3108.1197	3139.2958	3168.8263
C1C2C3CC=C4C1C2C34	C1[C@H]2[C@H]3C[CH][C]4[C@@H]1[C@@H]2[C@@H]34	
InChI=1S/C9H10/c1-2-5-7-3-6-4(1)8(5)9(6)7/h1,5-9H,2-3H2	InChI=1S/C9H10/c1-2-5-7-3-6-4(1)8(5)9(6)7/h1,5-9H,2-3H2/t5-,6-,7+,8-,9+/m1/s1
