14
gdb 25525	3.73595	1.17708	0.89507	5.8363	69.89	-0.1905	-0.0199	0.1705	1197.2047	0.101882	-470.046504	-470.038638	-470.037694	-470.079489	29.044	
N	-0.0512048697	 1.3078785881	 0.0209568529	-0.602147
C	 0.0101674493	 0.0442817905	 0.0107544551	 0.481619
N	-1.0569468071	-0.8322039267	-0.006995394	-0.388716
C	-0.5834553587	-2.1334148689	-0.0138380203	 0.434575
N	-1.4367691603	-3.2313389082	-0.0317378529	-0.418187
C	-2.8054005391	-3.1857611049	-0.0443557771	 0.153528
O	-3.475349395	-2.1747296303	-0.0422252357	-0.318182
C	 0.7580995409	-2.077902781	-0.0004389846	-0.169719
O	 1.1469648043	-0.7442124396	 0.0149627963	-0.217249
H	 0.8806819505	 1.7130822428	 0.0334296795	 0.225424
H	-2.0327341235	-0.5840180175	-0.014753805	 0.301324
H	-1.0002262278	-4.1401910015	-0.0349762232	 0.271146
H	-3.2398120052	-4.2009521115	-0.0570864696	 0.10232
H	 1.5322695016	-2.8227182512	 0.0008690886	 0.144264
54.181	144.7079	173.7714	235.6934	331.0788	387.0723	472.7076	487.533	551.8425	586.8645	608.5161	642.8628	711.5283	746.1381	754.245	861.6124	909.7518	1011.1435	1027.03	1058.0711	1099.5976	1146.3681	1225.4853	1270.1486	1347.8568	1431.2062	1478.7684	1512.1805	1729.1905	1795.384	1798.1476	2982.5781	3306.5554	3544.7491	3634.905	3661.6128
N=C1NC(NC=O)=CO1	[NH][C@@H]1NC(=CO1)NC=O	
InChI=1S/C4H5N3O2/c5-4-7-3(1-9-4)6-2-8/h1-2H,(H2,5,7)(H,6,8)	InChI=1S/C4H6N3O2/c5-4-7-3(1-9-4)6-2-8/h1-2,4-5,7H,(H,6,8)/t4-/m1/s1
