21
gdb 118345	2.0223	1.10116	0.76119	2.7118	76.58	-0.2412	-0.0278	0.2134	1537.6029	0.177648	-461.362816	-461.351441	-461.350496	-461.400753	39.055	
C	-0.2673568287	 1.7116227266	-0.0366655862	-0.386497
C	-0.1311300612	 0.2192640506	 0.2062536041	-0.046159
O	-1.3648992641	-0.4014599969	-0.140497205	-0.259915
C	-1.3831296074	-1.8049877774	 0.0255341544	 0.015305
C	-1.4885332789	-2.1556744288	 1.5100220056	 0.153555
O	-0.7314075902	-2.882011739	 2.0974112428	-0.24796
C	-2.6136911814	-2.3432110806	-0.7272635369	 0.110046
C	-2.4794615812	-2.1796923019	-2.2373274009	-0.408222
O	-2.8752576362	-3.6853845775	-0.3389892197	-0.426341
H	 0.6678473947	 2.2220535556	 0.21128379	 0.12095
H	-0.5047739999	 1.910517013	-1.0855790881	 0.127914
H	-1.0661105379	 2.1307837916	 0.5815320359	 0.130104
H	 0.6806962057	-0.205619089	-0.4050053863	 0.096628
H	 0.1189524681	 0.0188952364	 1.2590368375	 0.105681
H	-0.4623902402	-2.2689338617	-0.3661979121	 0.071965
H	-2.3315234781	-1.6389161385	 2.023570369	 0.082551
H	-3.4818365147	-1.7736817767	-0.3754060922	 0.105118
H	-1.6360676492	-2.7701076708	-2.6167983557	 0.106392
H	-3.3896912784	-2.5212399653	-2.736972505	 0.12714
H	-2.3025999921	-1.1318574648	-2.4924520708	 0.136377
H	-2.1399066188	-4.234916365	-0.6336457303	 0.285367
39.1065	57.4963	74.9911	90.1827	138.2673	200.5407	236.8413	244.3598	282.4593	306.7872	341.4411	354.9464	406.0143	482.3143	500.4854	567.9322	819.6171	855.1092	903.5233	943.3236	971.0721	1043.769	1067.2469	1079.3789	1119.0341	1137.8074	1146.3641	1176.4305	1187.4826	1250.9419	1295.7965	1303.4556	1335.5205	1375.6614	1396.7202	1402.1808	1410.6736	1416.8714	1436.8897	1483.3475	1490.4112	1495.2203	1499.0494	1528.8675	1837.8466	2875.4027	2971.1047	2979.5263	3010.0532	3028.7446	3046.4829	3052.7833	3105.4027	3121.8689	3123.3953	3133.1899	3796.5587
CCOC(C=O)C(C)O	CCO[C@@H](C=O)[C@@H](C)O	
InChI=1S/C6H12O3/c1-3-9-6(4-7)5(2)8/h4-6,8H,3H2,1-2H3	InChI=1S/C6H12O3/c1-3-9-6(4-7)5(2)8/h4-6,8H,3H2,1-2H3/t5-,6+/m1/s1
