19
gdb 54381	3.78307	1.12766	1.01943	2.2566	77.3	-0.244	-0.0218	0.2222	1236.5408	0.155934	-422.989545	-422.980278	-422.979334	-423.024417	34.153	
C	-0.4099779279	 1.3899097319	-0.1778870151	-0.485599
C	 0.072403269	-0.0352071492	-0.0448619016	 0.245364
O	 0.4319396323	-0.5360579304	 0.9962549396	-0.306911
C	 0.0900379594	-0.8502548912	-1.3089123401	 0.33434
C	 1.3072618531	-1.4603952343	-2.0532846655	-0.282602
C	 0.0339048269	-1.6446827877	-2.9225250786	 0.3881
C	-0.1005697777	-2.0809294676	-4.3467354193	-0.509628
C	-0.7361744896	-2.116133734	-1.6593194721	-0.28258
O	-0.3516025669	-0.2399520553	-2.5839233487	-0.377062
H	 0.2109945826	 1.9255351751	-0.904144952	 0.152381
H	-1.4271075098	 1.4005330574	-0.5845983974	 0.152475
H	-0.3801268534	 1.8863670448	 0.7924512209	 0.137818
H	 2.0262094152	-0.7319037406	-2.4307089785	 0.107569
H	 1.7743578328	-2.3468389976	-1.619717369	 0.108614
H	 0.2161640338	-3.1230181391	-4.4538370033	 0.130034
H	-1.1404965939	-1.9982771104	-4.6765092852	 0.135716
H	 0.5217876625	-1.4600155315	-4.9980257044	 0.135778
H	-0.4428457401	-3.0583366425	-1.1922584844	 0.108624
H	-1.8160931482	-1.9649085876	-1.6899930253	 0.10757
24.6901	126.2441	136.962	153.5227	190.2616	296.4091	320.9114	342.6272	459.2073	533.3083	560.9945	610.2669	610.4497	634.9738	715.1341	781.0931	911.0629	934.0752	940.2275	964.5449	983.8634	1020.4106	1053.4853	1067.0441	1096.8017	1116.2541	1158.5876	1169.3333	1190.4961	1199.4132	1284.3883	1365.6808	1384.3032	1414.7691	1454.5861	1461.2181	1466.4622	1476.4868	1488.3272	1518.3687	1807.0399	3040.5408	3041.6832	3067.8327	3075.4638	3102.218	3115.7023	3116.8576	3149.452	3155.1427	3157.9883
CC(=O)C12CC(C)(C1)O2	CC(=O)[C@@]12C[C@@](C)(C1)O2	
InChI=1S/C7H10O2/c1-5(8)7-3-6(2,4-7)9-7/h3-4H2,1-2H3	InChI=1S/C7H10O2/c1-5(8)7-3-6(2,4-7)9-7/h3-4H2,1-2H3/t6-,7+
