20
gdb 73191	2.64441	1.35049	1.16163	4.3844	80.77	-0.2352	0.028	0.2632	1156.9587	0.17104	-403.15286	-403.144155	-403.143211	-403.186697	32.58	
C	-0.1820222608	 1.4785583144	-0.0347081873	-0.47874
C	 0.0164683987	-0.0202844217	 0.0127095268	 0.332812
C	-1.2249149207	-0.9429872102	 0.2069653317	-0.263008
C	-0.4606807885	-1.7397988148	 1.3088132376	-0.22374
C	 0.7704427877	-0.8074168034	 1.1515250934	-0.097491
C	 1.801157809	-1.2690980747	 0.0898074931	-0.182265
N	 1.0103204394	-0.5718499678	-0.9273637721	-0.06192
C	 1.0803112225	-0.6447883898	-2.2739886765	 0.117358
O	 1.9276954708	-1.261896609	-2.889410228	-0.335327
H	 0.777788676	 2.0037442386	-0.0183792866	 0.127033
H	-0.7173082777	 1.7773611325	-0.9432977796	 0.128216
H	-0.7757768671	 1.8120779148	 0.8223761076	 0.122613
H	-2.0955315082	-0.4035666232	 0.5897563239	 0.105773
H	-1.5264686951	-1.5022128751	-0.6812809635	 0.108993
H	-0.9312276907	-1.6830362472	 2.2925852213	 0.107957
H	-0.2674114677	-2.7923526595	 1.0859097486	 0.108965
H	 1.1611243549	-0.3197845243	 2.0434943447	 0.07872
H	 2.8082786363	-0.8531910876	 0.2044469299	 0.119495
H	 1.8847367794	-2.3494485223	-0.0695290307	 0.122122
H	 0.2736711318	-0.0617562597	-2.7655440342	 0.062433
47.3871	101.4007	171.7908	223.9835	237.6897	317.5666	322.6866	392.7065	402.1664	513.199	632.9073	700.5679	749.1065	826.1505	840.7639	864.0966	909.0219	927.7332	959.7194	1011.4224	1026.7376	1034.5311	1110.3307	1134.0816	1139.8151	1165.2072	1181.2049	1208.4418	1229.365	1240.9418	1279.8174	1298.1704	1318.9318	1324.6804	1396.1131	1408.8661	1441.6965	1471.5162	1487.3218	1489.8298	1491.8653	1519.1712	1784.7472	2914.0203	3030.3944	3033.7394	3059.2666	3065.9829	3078.0497	3096.3854	3104.8506	3111.3116	3120.6793	3127.6815
CC12CCC1CN2C=O	C[C@]12CC[C@H]1CN2C=O	
InChI=1S/C7H11NO/c1-7-3-2-6(7)4-8(7)5-9/h5-6H,2-4H2,1H3	InChI=1S/C7H11NO/c1-7-3-2-6(7)4-8(7)5-9/h5-6H,2-4H2,1H3/t6-,7-/m0/s1
