16
gdb 84328	3.1823	1.35966	0.97054	4.3456	75.47	-0.2405	-0.0608	0.1797	1156.3789	0.124533	-437.958318	-437.949941	-437.948997	-437.992607	29.971	
C	-0.0109820388	 1.4742907106	 0.012493084	-0.348477
N	 0.0681665977	 0.0147139795	 0.0009548037	-0.125838
C	 0.1934644839	-0.6582241489	-1.1987760685	 0.063822
C	 0.1415657891	-1.9965962479	-1.3551372807	-0.261648
C	-0.0696766654	-2.8702055803	-0.2089853335	 0.371047
O	-0.2612569974	-4.0677279337	-0.2850312287	-0.340098
C	 0.0099910168	-2.1715426773	 1.1514853658	-0.458436
C	-0.156940597	-0.6636780353	 1.2016368025	 0.414386
O	-0.427079063	-0.063172066	 2.2182759469	-0.352508
H	 0.6342974462	 1.8759222437	-0.7713555296	 0.13502
H	-1.0370472419	 1.8207647235	-0.1516465637	 0.145776
H	 0.3197164901	 1.8319516832	 0.986374863	 0.170903
H	 0.3224063653	-0.0020773208	-2.0532805071	 0.134277
H	 0.2167776156	-2.4365113848	-2.3408140405	 0.116271
H	-0.6855649057	-2.6282662253	 1.857901419	 0.165646
H	 1.0166230644	-2.3773957201	 1.5444449475	 0.169857
34.4203	72.2635	110.6134	217.7755	342.4997	358.8822	394.0551	427.7875	481.2495	546.8246	614.7324	641.6977	725.5117	779.9305	802.4772	891.2474	941.5645	988.3937	1020.299	1123.3207	1152.3845	1173.6388	1188.781	1221.4538	1280.374	1312.5271	1375.2552	1413.597	1435.1711	1462.9551	1485.3589	1517.0345	1674.1961	1768.2058	1797.4531	3024.1082	3043.6896	3116.0885	3124.5494	3169.1164	3186.9763	3225.2352
CN1C=CC(=O)CC1=O	CN1C=CC(=O)CC1=O	
InChI=1S/C6H7NO2/c1-7-3-2-5(8)4-6(7)9/h2-3H,4H2,1H3	InChI=1S/C6H7NO2/c1-7-3-2-5(8)4-6(7)9/h2-3H,4H2,1H3
