20
gdb 13069	4.12908	1.11442	0.9642	0.1348	84.39	-0.2362	0.056	0.2922	1289.3479	0.176064	-311.843722	-311.834393	-311.833449	-311.879183	33.125	
C	 0.3271139492	 1.5740806534	-0.4076972546	-0.498543
C	 0.1995946707	 0.1392587002	-0.1940139043	 0.075259
C	 0.1027693734	-1.0496429094	-0.018725581	 0.061722
C	-0.0312957142	-2.4744557077	 0.2059415117	-0.161091
C	-0.1423505403	-3.0116921494	 1.6690396753	-0.221103
C	-1.1875228823	-4.04520108	 1.1763203762	-0.227893
C	-1.3959133912	-3.1981726808	-0.1137681141	 0.015754
C	-2.6262891009	-2.2999584388	-0.080019167	-0.389438
H	 1.3785966376	 1.8762195393	-0.4719586593	 0.14556
H	-0.1612686181	 1.883940459	-1.3385643701	 0.145247
H	-0.1303530345	 2.1434913414	 0.4092725232	 0.144545
H	 0.7757084148	-3.0061985744	-0.310937474	 0.093449
H	 0.7765221965	-3.3881480568	 2.1236707516	 0.099398
H	-0.5784276568	-2.2624914828	 2.3334645285	 0.110139
H	-0.737823179	-5.0193951873	 0.9648984894	 0.098009
H	-2.0686532692	-4.2004453544	 1.8042771308	 0.095447
H	-1.3815040206	-3.7644455275	-1.049712476	 0.067901
H	-2.6844212242	-1.7293786889	 0.8531115848	 0.11665
H	-2.6124933295	-1.5794199337	-0.9034027768	 0.121013
H	-3.5390319713	-2.9000341013	-0.1632412943	 0.107975
18.407	81.7915	93.866	159.1743	237.6621	245.5086	303.631	349.7891	371.572	473.8767	515.9239	644.2162	734.9811	788.8099	879.394	887.04	917.5537	955.1509	970.6645	1017.9918	1052.6111	1053.8521	1077.1527	1116.858	1162.2784	1193.6791	1218.8254	1243.7468	1258.1368	1275.616	1281.1061	1347.2977	1369.0766	1413.6835	1415.3331	1479.0723	1479.689	1481.8799	1492.7786	1496.0128	1500.5693	2362.0783	3023.6211	3030.7615	3032.4106	3050.4846	3059.7618	3069.9449	3082.7416	3082.9657	3097.3671	3101.7806	3106.9623	3126.026
CC#CC1CCC1C	CC#C[C@H]1CC[C@H]1C	
InChI=1S/C8H12/c1-3-4-8-6-5-7(8)2/h7-8H,5-6H2,1-2H3	InChI=1S/C8H12/c1-3-4-8-6-5-7(8)2/h7-8H,5-6H2,1-2H3/t7-,8+/m1/s1
