15
gdb 14909	4.54293	1.55721	1.26776	4.9495	67.21	-0.2725	-0.0067	0.2658	937.089	0.120258	-362.673539	-362.66657	-362.665625	-362.704947	25.933	
N	 0.0051987927	-1.1442226315	-0.0403339088	-0.313823
C	-0.0172521535	 0.0095404731	-0.0034960419	 0.270411
C	-0.0161953292	 1.484083174	-0.0102876578	-0.037219
O	-0.7416942948	 1.9096391827	 1.1254651992	-0.260323
C	-0.5612817401	 3.2945994062	 1.4032333832	-0.077445
C	 0.8884366676	 3.5945192822	 1.782378803	-0.258139
C	 1.8158760545	 2.9606660426	 0.7811655001	-0.069121
C	 1.4055709017	 2.010481879	-0.0526645578	-0.069798
H	-0.5415756936	 1.7951620049	-0.9332763042	 0.124532
H	-0.853202492	 3.8960575337	 0.5278002352	 0.100209
H	-1.2520654981	 3.5217728167	 2.2182739418	 0.120927
H	 1.045659409	 4.6795496476	 1.8159482701	 0.113646
H	 1.1048429932	 3.2185167796	 2.7910135364	 0.12982
H	 2.8442804739	 3.3085752532	 0.7419688768	 0.106637
H	 2.0581583285	 1.569349886	-0.7987533453	 0.119685
79.6213	161.9888	244.6988	293.3521	391.0816	447.0793	481.1721	557.0925	617.084	670.4363	781.3732	869.8825	900.2129	917.337	984.3379	1000.1839	1035.7592	1065.3669	1093.5693	1114.4027	1212.3928	1235.5871	1287.4622	1301.3647	1349.4829	1366.7768	1388.3518	1422.3639	1468.3718	1498.7367	1726.2661	2368.4335	2924.489	2984.4858	3023.7943	3059.6617	3105.2103	3164.5846	3193.1929
N#CC1OCCC=C1	N#C[C@H]1OCCC=C1	
InChI=1S/C6H7NO/c7-5-6-3-1-2-4-8-6/h1,3,6H,2,4H2	InChI=1S/C6H7NO/c7-5-6-3-1-2-4-8-6/h1,3,6H,2,4H2/t6-/m0/s1
