15
gdb 66609	4.40532	1.66873	1.54435	2.026	66.21	-0.2331	-0.0082	0.2249	846.8682	0.114834	-416.724396	-416.718394	-416.71745	-416.754362	25.294	
O	-0.1233445025	 1.408447648	 0.0221352921	-0.454173
C	 0.0095172662	 0.050970154	 0.0165411038	 0.384504
C	-1.0369359155	-1.0215354008	 0.1246828897	-0.147109
C	-0.0149701968	-0.9988168622	-1.0421976681	-0.136502
N	 1.22201881	-1.7062369411	-0.5235085657	-0.163964
C	 0.8325335041	-3.0542466296	-0.1693559095	 0.031605
N	 0.0358467226	-3.1825004369	 0.8178029128	-0.197488
C	-0.2449433874	-1.7971424495	 1.2176222393	 0.002301
C	 0.9694528462	-0.9447234096	 0.7649023672	-0.126605
H	 0.6247469079	 1.7935951308	-0.4498817504	 0.297084
H	-2.1038951656	-0.9731038848	-0.0409568465	 0.105911
H	-0.2890038553	-0.9814280624	-2.0878760175	 0.108557
H	 1.172022233	-3.8834611279	-0.7838913551	 0.122143
H	-0.611025133	-1.6905679045	 2.2362259671	 0.087978
H	 1.8334828562	-0.7389509735	 1.3951928907	 0.085759
241.5101	280.5027	343.9015	431.9428	459.1761	578.5325	608.743	721.144	743.5666	787.3032	831.9958	847.3479	862.2038	899.0891	910.7877	942.1591	966.2702	986.7054	1000.8689	1017.9329	1040.9079	1062.5449	1103.8188	1154.3917	1181.1885	1191.4642	1230.2509	1240.1727	1272.4061	1314.6107	1321.348	1507.8884	1645.9253	3127.2839	3148.3315	3179.5838	3215.0812	3225.999	3781.4362
OC12C3C1N1C=NC3C21	O[C@@]12[C@H]3[C@@H]1N1[CH][N][C@H]3[C@H]21	
InChI=1S/C6H6N2O/c9-6-2-3-5(6)8(1-7-3)4(2)6/h1-5,9H	InChI=1S/C6H6N2O/c9-6-2-3-5(6)8(1-7-3)4(2)6/h1-5,9H/t2-,3-,4+,5-,6+/m1/s1
