16
gdb 31884	3.8734	1.02061	0.84646	2.2132	84.37	-0.2283	-0.0335	0.1947	1351.4775	0.123669	-400.757648	-400.749151	-400.748206	-400.791361	30.933	
C	 0.3176072799	 1.5468209973	-0.0618245885	-0.375455
C	-0.0239799291	 0.0539289804	 0.0885288202	-0.309261
C	 0.5558702992	-0.565532271	 1.3096895675	 0.338179
C	 0.0477686058	-1.1425828811	 2.4317975334	-0.205608
N	 1.0757542847	-1.5475246622	 3.2606828569	-0.307441
C	 2.1583042404	-1.2063049749	 2.6231598475	 0.21184
O	 1.917924102	-0.6005708296	 1.4223061956	-0.202602
C	 3.5014733204	-1.384015113	 3.0130403459	 0.26148
C	 4.6485094905	-1.5347447173	 3.3423815172	-0.369766
H	 1.3999549492	 1.6947722348	-0.1043866361	 0.137289
H	-0.1188218239	 1.9479585956	-0.9808854288	 0.119655
H	-0.0698679749	 2.1236808214	 0.7830033942	 0.12696
H	-1.1090604584	-0.0846556392	 0.1299048598	 0.122202
H	 0.3287292126	-0.490855952	-0.7965980276	 0.126237
H	-0.9869296975	-1.2945409927	 2.6963363753	 0.123793
H	 5.6594585792	-1.6707678266	 3.6384663577	 0.202499
58.4427	114.8454	140.4949	188.6527	215.422	322.8169	387.6536	464.9049	539.7285	580.6042	593.8641	665.6296	692.4966	713.6216	748.4144	788.7607	858.4787	960.7778	981.0193	1013.7865	1074.8883	1092.416	1147.3965	1225.3597	1251.8693	1273.4616	1354.375	1369.8782	1409.7152	1473.9728	1496.6093	1505.8815	1549.9121	1622.4663	2242.6938	3028.279	3045.3567	3081.3567	3118.582	3125.7554	3261.3259	3502.296
CCC1=CN=C(O1)C#C	CCc1cnc(o1)C#C	
InChI=1S/C7H7NO/c1-3-6-5-8-7(4-2)9-6/h2,5H,3H2,1H3	InChI=1S/C7H7NO/c1-3-6-5-8-7(4-2)9-6/h2,5H,3H2,1H3
