23
gdb 117169	3.31541	0.83057	0.72429	3.5416	85.21	-0.224	0.0705	0.2945	1692.3244	0.204184	-421.650182	-421.638546	-421.637602	-421.688783	39.988	
C	 0.0163928236	 1.5136757937	 0.2206307646	-0.388148
C	-0.0250707869	 0.0584179666	-0.2378495485	-0.112226
N	-1.3651071183	-0.4964306222	-0.104025752	-0.384609
C	-1.5279476219	-1.8633429206	 0.0419307061	 0.509416
O	-0.581463916	-2.620929219	 0.2102629249	-0.436545
N	-2.8339675958	-2.3076647218	 0.0152128813	-0.122111
C	-3.9738253167	-1.4112672975	 0.0254699165	-0.35556
C	-3.0654811339	-3.7458735347	 0.119502423	-0.149134
C	-3.2561220415	-4.2299094037	 1.5596323775	-0.374199
H	 1.0289542568	 1.9159101065	 0.1205467227	 0.120356
H	-0.6483311188	 2.144555604	-0.3815822574	 0.107825
H	-0.2908354191	 1.6024495247	 1.2668404985	 0.124996
H	 0.3369904206	-0.0205462881	-1.274157048	 0.098384
H	 0.6322379081	-0.5667293126	 0.3686016381	 0.14487
H	-2.0986153565	 0.0156908481	-0.5676345706	 0.234015
H	-4.2101354392	-1.0061198249	-0.9710900973	 0.116832
H	-4.8554231924	-1.9546355943	 0.3727954439	 0.135243
H	-3.8140072128	-0.5721291691	 0.7107934199	 0.136126
H	-3.9437253752	-3.992575696	-0.4889620794	 0.092398
H	-2.2007823666	-4.2435351654	-0.3218446859	 0.14021
H	-3.4486181699	-5.3077539805	 1.5788922935	 0.112197
H	-2.3526161126	-4.0293906622	 2.1409915949	 0.142495
H	-4.100777565	-3.7295550111	 2.0458080938	 0.107168
28.0306	55.4993	62.801	96.8432	128.4036	145.037	185.0279	239.6138	276.2161	314.8542	341.4921	395.2892	409.629	487.2063	545.4018	622.1503	762.2463	788.1592	797.687	842.5766	912.7209	960.7185	1038.0738	1087.0885	1105.1019	1107.89	1141.0786	1145.8819	1166.3649	1223.5921	1268.4872	1289.6377	1329.9768	1379.4443	1392.8429	1407.4088	1410.9837	1415.4401	1463.2479	1479.9562	1489.9119	1493.0713	1496.6363	1498.4321	1504.2257	1519.3243	1525.9098	1539.6387	1753.2727	2977.9872	2990.0798	3030.576	3033.2115	3034.6468	3062.541	3091.4647	3095.6368	3117.1497	3117.4523	3121.1636	3126.3569	3132.4573	3625.0089
CCNC(=O)N(C)CC	CCNC(=O)N(C)CC	
InChI=1S/C6H14N2O/c1-4-7-6(9)8(3)5-2/h4-5H2,1-3H3,(H,7,9)	InChI=1S/C6H14N2O/c1-4-7-6(9)8(3)5-2/h4-5H2,1-3H3,(H,7,9)
