21
gdb 101798	3.159	0.77775	0.64574	3.9281	77.37	-0.2389	0.0639	0.3028	1746.3183	0.181047	-457.5805	-457.569529	-457.568584	-457.617782	38.756	
C	 0.0614205693	 1.4706307664	 0.1459280763	-0.237006
O	 0.1745150964	 0.0766682621	-0.0268163633	-0.256742
C	 0.6837118538	-0.6329020887	 1.1028384653	 0.123354
C	-0.359349527	-0.784097589	 2.2100207848	-0.404745
C	 1.1392267355	-1.9875275852	 0.5676840661	-0.144352
N	 2.1180854205	-1.8158708108	-0.4855631964	-0.345388
C	 3.099375925	-2.7518437522	-0.7019517717	 0.453356
N	 3.8309105092	-2.541623381	-1.8691364237	-0.565603
O	 3.309768599	-3.6946565038	 0.0401150189	-0.397887
H	 1.0195940766	 1.9214620236	 0.4483711472	 0.105644
H	-0.2370444748	 1.8912620908	-0.817865697	 0.126912
H	-0.6979476032	 1.7446033233	 0.8919041532	 0.111163
H	 1.5645391683	-0.0949633093	 1.4905199093	 0.070573
H	-1.2429382366	-1.3084614797	 1.8331914302	 0.126897
H	 0.0543723446	-1.3563074385	 3.0463266691	 0.124263
H	-0.67700817	 0.1867805143	 2.5992410957	 0.118291
H	 1.6051108865	-2.5804149349	 1.3566933959	 0.141047
H	 0.2575046205	-2.5419213812	 0.2124077452	 0.105382
H	 1.8360237839	-1.2082705271	-1.238313477	 0.243805
H	 3.9503716239	-1.5875772661	-2.1763575758	 0.243544
H	 4.6836393486	-3.080730443	-1.8820580222	 0.257492
32.7756	71.0757	80.1917	108.1091	196.1127	218.0214	226.609	254.6307	300.0519	333.3922	385.6589	447.2255	493.2782	516.0796	550.909	578.9966	666.8582	778.4221	811.5695	898.7499	934.1087	972.7331	1084.448	1099.1848	1118.853	1129.5665	1169.4695	1177.3964	1184.2344	1215.5956	1266.6727	1313.9709	1340.247	1382.5461	1405.2736	1415.558	1477.5566	1483.019	1491.3574	1498.8697	1504.1328	1513.0018	1535.9551	1627.6495	1799.2488	2968.7496	2980.4946	2997.3804	3031.8262	3043.6873	3109.3995	3113.4724	3119.6357	3126.1215	3570.3011	3635.6384	3684.3276
COC(C)CNC(N)=O	CO[C@@H](C)CNC(=O)N	
InChI=1S/C5H12N2O2/c1-4(9-2)3-7-5(6)8/h4H,3H2,1-2H3,(H3,6,7,8)	InChI=1S/C5H12N2O2/c1-4(9-2)3-7-5(6)8/h4H,3H2,1-2H3,(H3,6,7,8)/t4-/m0/s1
