21
gdb 32624	2.85972	1.25329	0.9517	1.4155	87.38	-0.1751	0.0498	0.2249	1304.1202	0.182736	-383.309001	-383.298945	-383.298	-383.344185	36.726	
C	-0.1117306666	 1.5754863739	-0.0417975347	-0.371726
C	 0.038913061	 0.050855815	-0.0098343349	-0.157684
N	 0.7300907076	-0.4868653261	-1.1681384022	-0.036512
C	 0.1190354143	-0.8225229418	-2.3506669507	-0.106575
C	 1.0856776084	-1.2135201641	-3.2466415253	-0.247486
C	 2.341212845	-1.0966287325	-2.583892455	 0.135809
N	 3.6378041699	-1.3691667684	-3.105463474	-0.611088
C	 2.1004490959	-0.6315059219	-1.3044465204	 0.27112
C	 3.0809940619	-0.333101641	-0.2209889458	-0.519059
H	 0.8649260742	 2.0671752565	-0.065153106	 0.131934
H	-0.6681806638	 1.8886306015	-0.9299089409	 0.128585
H	-0.6511261651	 1.9237404676	 0.845060212	 0.115279
H	 0.5810429736	-0.2572272264	 0.8893054787	 0.118774
H	-0.9478299906	-0.4214752934	 0.03862897	 0.115328
H	-0.9538814072	-0.7622631264	-2.4476489672	 0.105839
H	 0.9182983355	-1.5605451241	-4.2557224132	 0.0802
H	 3.6078493352	-1.4308121946	-4.1165643888	 0.231331
H	 4.0017839004	-2.2546533729	-2.7674178678	 0.234174
H	 2.9434639542	 0.6643319903	 0.2142935402	 0.119617
H	 3.0468488643	-1.0540882851	 0.607661674	 0.117373
H	 4.0853513221	-0.3704906262	-0.651133888	 0.144768
71.2379	79.1882	89.8945	177.7415	203.0346	216.7113	267.4199	287.0096	308.6119	392.4233	489.9259	576.7838	627.754	663.5883	697.0451	710.3345	732.5821	774.108	795.14	843.213	938.0236	965.7712	1057.7597	1064.4804	1095.2344	1100.8441	1118.8242	1168.7941	1228.1376	1259.5823	1299.7425	1376.4645	1388.4334	1404.5347	1411.796	1428.7977	1480.0552	1483.0948	1485.8664	1490.0783	1493.6626	1505.798	1532.92	1621.8181	1660.5684	3003.3324	3040.3111	3047.2154	3049.2552	3086.8437	3113.8104	3114.7484	3124.3399	3232.7728	3257.0118	3496.1598	3581.4118
CCN1C=CC(N)=C1C	CCn1ccc(N)c1C	
InChI=1S/C7H12N2/c1-3-9-5-4-7(8)6(9)2/h4-5H,3,8H2,1-2H3	InChI=1S/C7H12N2/c1-3-9-5-4-7(8)6(9)2/h4-5H,3,8H2,1-2H3
