23
gdb 59180	2.50935	1.33065	1.04098	1.229	86.5	-0.2577	0.0762	0.334	1269.1219	0.205015	-388.247272	-388.237785	-388.236841	-388.28128	36.938	
C	 0.0931602898	 1.5072158527	 0.0704080513	-0.398469
C	 0.0976532466	-0.0226626142	 0.0965294554	 0.071303
O	 0.7573737908	-0.5177190921	 1.2666637658	-0.428957
C	-1.3106883646	-0.5981648666	 0.0028970265	 0.020385
C	-2.1010520288	-0.697277805	-1.3400707209	-0.071001
C	-1.1959952445	-1.897081637	-1.7387770429	-0.266815
C	-1.5539665032	-2.1304536267	-0.2345244782	 0.334214
C	-1.1138138954	-3.2641829697	 0.6530865628	-0.515329
C	-3.0134550965	-1.734178226	-0.6265945062	-0.261271
H	 1.1099514099	 1.8918289843	 0.1881319081	 0.121343
H	-0.3167822605	 1.8846996037	-0.8722360794	 0.117668
H	-0.5217978166	 1.9091606533	 0.8855169222	 0.103626
H	 0.7215036406	-0.3827055042	-0.7266920833	 0.086725
H	 0.237753101	-0.2417780298	 2.0302773819	 0.273968
H	-1.9106003704	-0.1888349326	 0.8308657593	 0.04161
H	-2.4220849666	 0.1277685006	-1.9776028962	 0.066971
H	-1.6297576044	-2.6095922522	-2.4468045423	 0.085705
H	-0.1536028076	-1.6960764917	-1.9910129266	 0.093029
H	-0.0315356117	-3.2365974623	 0.8090966044	 0.136088
H	-1.5927251477	-3.1984441113	 1.6368503048	 0.110219
H	-1.3795085816	-4.2337738957	 0.2172450858	 0.111498
H	-3.6527164436	-1.3589356264	 0.1787113634	 0.082415
H	-3.5515276849	-2.434603701	-1.2719858859	 0.085074
57.8695	132.4944	193.5576	229.046	253.7809	257.2276	274.3958	305.2778	345.556	453.109	482.74	549.2724	578.3174	641.0635	766.6824	810.5327	857.3632	891.8017	906.193	909.2927	951.6216	1001.6297	1009.052	1016.782	1027.7552	1072.6717	1074.6474	1096.4607	1119.6859	1145.0966	1171.8593	1186.6436	1198.7756	1220.2762	1227.7279	1247.5902	1268.5844	1325.7274	1337.7626	1400.4849	1409.0548	1417.2705	1432.2047	1485.9679	1490.7233	1493.3772	1495.3133	1503.8216	1546.6656	2979.0709	3024.2097	3026.9241	3039.3039	3054.0579	3067.1449	3087.9738	3094.827	3099.8129	3104.4093	3111.3723	3116.5377	3121.3097	3793.2614
CC(O)C1C2CC1(C)C2	C[C@@H](O)[C@H]1[C@H]2C[C@]1(C)C2	
InChI=1S/C8H14O/c1-5(9)7-6-3-8(7,2)4-6/h5-7,9H,3-4H2,1-2H3	InChI=1S/C8H14O/c1-5(9)7-6-3-8(7,2)4-6/h5-7,9H,3-4H2,1-2H3/t5-,6-,7+,8+/m1/s1
