20
gdb 79897	3.8904	1.401	1.2055	0.6156	79.3	-0.211	0.0859	0.297	1084.8973	0.17298	-403.074205	-403.066801	-403.065857	-403.105696	30.062	
C	 0.0001538912	 1.5312082136	-0.245147272	-0.331938
N	 0.021054145	 0.0898665305	 0.0055131337	-0.10448
C	-1.017039317	-0.5214683784	 0.9192275708	-0.068915
C	-0.0602596847	-1.7406434837	 1.040261812	 0.014019
C	-0.2270225621	-2.6307089389	 2.2673912221	-0.267571
C	 0.0688554752	-1.8102024778	 3.5237633153	-0.06757
O	-0.4732352107	-0.4989878742	 3.4308915194	-0.280657
C	-0.2950632658	 0.0818484281	 2.1664999488	 0.140176
C	 0.8067049575	-0.44549449	 1.1787982452	-0.100534
H	 0.9476947145	 1.8084047534	-0.7190499936	 0.122139
H	-0.799500933	 1.739742086	-0.9635582687	 0.122598
H	-0.1464783923	 2.1922206694	 0.6211932587	 0.103348
H	-2.0810987575	-0.5246800537	 0.6724635275	 0.073365
H	 0.0892222804	-2.2725061064	 0.0988062891	 0.077163
H	-1.2468076896	-3.0340925922	 2.2925184221	 0.106862
H	 0.4546650475	-3.4874027384	 2.2241150811	 0.103184
H	-0.353770531	-2.2599425003	 4.4260935519	 0.107004
H	 1.1594638781	-1.7403269384	 3.6613551249	 0.093899
H	-0.3722827633	 1.1582791306	 2.3067470106	 0.082032
H	 1.8936946576	-0.3506238091	 1.227863541	 0.075876
149.7534	190.0548	236.5328	257.296	319.3625	428.1575	469.191	495.7223	569.9732	669.5982	752.8772	765.8609	815.3477	847.0885	884.1541	899.3909	924.6095	975.6067	1019.0145	1045.0195	1067.4916	1087.458	1104.3279	1126.1704	1133.7065	1145.6038	1167.2342	1183.5678	1196.2105	1213.2241	1254.5294	1264.1559	1270.0797	1281.2027	1346.2627	1363.1254	1409.7069	1421.3422	1450.2592	1486.2243	1495.9506	1501.7377	1511.4688	2978.8309	2989.6507	3029.5038	3064.0878	3070.4957	3086.7009	3088.9369	3090.9519	3097.3069	3102.1807	3135.154
CN1C2C3CCOC2C13	CN1[C@H]2[C@@H]3CCO[C@H]2[C@H]13	
InChI=1S/C7H11NO/c1-8-5-4-2-3-9-7(5)6(4)8/h4-7H,2-3H2,1H3	InChI=1S/C7H11NO/c1-8-5-4-2-3-9-7(5)6(4)8/h4-7H,2-3H2,1H3/t4-,5-,6+,7+
