18
gdb 39713	3.34337	1.74994	1.55212	1.4145	79.96	-0.2252	0.002	0.2271	918.0981	0.149361	-364.745298	-364.73868	-364.737736	-364.775866	28.127	
C	-0.1022330264	 1.4939698676	 0.0097615769	-0.332551
C	 1.231608243	 0.7596542149	-0.0086210027	-0.341513
C	-0.0544456028	 0.0056572853	 0.0631374584	 0.445627
C	-0.4854499409	-1.0105277472	 1.1563963485	-0.220318
C	-1.9405988532	-0.7130040794	 1.4382696623	-0.088383
C	-2.6538845748	-0.971486412	 0.3346674098	-0.080866
C	-1.7684758573	-1.5698782082	-0.6961354093	-0.064632
C	-0.5134919966	-2.0008091139	-0.048754198	-0.042968
N	-0.4208397237	-0.8874998561	-1.0461524849	-0.207205
H	-0.3765998625	 2.0409635775	 0.9057614567	 0.110521
H	-0.438833348	 1.9467636882	-0.9168103692	 0.120421
H	 1.7794786256	 0.7233163655	-0.9439257349	 0.124615
H	 1.8515326386	 0.806421442	 0.8811663953	 0.110722
H	 0.1811393802	-1.1724076321	 2.0017904255	 0.074029
H	-2.2856938315	-0.1922108295	 2.3228446195	 0.101592
H	-3.698027305	-0.7422364248	 0.1658362644	 0.099498
H	-2.1594164006	-2.085296758	-1.5644650768	 0.097038
H	 0.001010806	-2.9491963196	-0.1649044515	 0.094371
159.1455	234.6783	267.7831	416.6164	441.5695	529.5339	615.6	655.6843	739.7749	754.6413	770.8989	801.5888	815.5855	852.4015	880.5897	896.6764	920.0219	923.8685	969.1591	981.2531	987.744	1006.7432	1047.8665	1050.5384	1073.712	1076.1947	1123.1349	1165.4672	1169.3018	1184.9472	1244.7494	1254.7558	1267.3123	1354.7119	1359.0721	1376.9098	1454.4502	1498.9133	1636.1841	3126.6533	3127.3387	3130.7754	3159.7634	3195.2825	3202.389	3209.3392	3222.7874	3227.695
C1CC11C2C=CC3C2N13	C1CC21[C@H]1C=C[C@@H]3[C@H]1N23	
InChI=1S/C8H9N/c1-2-6-7-5(1)8(3-4-8)9(6)7/h1-2,5-7H,3-4H2	InChI=1S/C8H9N/c1-2-6-7-5(1)8(3-4-8)9(6)7/h1-2,5-7H,3-4H2/t5-,6+,7-,9?/m0/s1
