15
gdb 61200	3.87335	0.86673	0.80509	2.5714	66.3	-0.3164	-0.0037	0.3127	1372.8721	0.110959	-453.960205	-453.950755	-453.949811	-453.995046	33.041	
O	 0.3356817289	 1.4363691164	 0.0048200279	-0.439397
C	 0.0897300682	 0.047698668	 0.0417314002	 0.104092
C	 0.6492136308	-0.6663418222	-1.2123091622	-0.360861
C	 0.1214380597	-0.0488376533	-2.4238682888	 0.241218
N	-0.3209539449	 0.4959980249	-3.3423409876	-0.295996
C	 0.8324827029	-0.4496844896	 1.2996169293	-0.031437
O	 2.1883560039	-0.0747365858	 1.2654412957	-0.41018
C	 0.1533954161	 0.0438284226	 2.5179616563	 0.281441
N	-0.3750272395	 0.4195132998	 3.4735885688	-0.308608
H	-0.1031963734	 1.8213637432	-0.7625921305	 0.314692
H	-0.9823439868	-0.1704293591	 0.1404439549	 0.116628
H	 1.7408505907	-0.5886420729	-1.205980937	 0.176921
H	 0.3838739588	-1.7289884118	-1.197481269	 0.159555
H	 0.8094610314	-1.5444931895	 1.3254824091	 0.14221
H	 2.2033390233	 0.8785974693	 1.100871193	 0.309722
63.6338	88.1481	102.9537	176.2455	223.0912	265.8471	313.7449	320.8303	387.7799	397.3109	467.9042	478.9023	555.6515	610.3032	740.991	861.5866	875.2412	948.8961	984.8558	1047.38	1084.2529	1120.4462	1198.683	1229.7802	1278.0377	1317.7747	1325.7337	1380.6135	1419.2304	1435.8521	1463.7327	2359.7393	2362.5665	3020.3884	3054.6317	3068.2239	3106.4051	3763.4669	3804.7244
OC(CC#N)C(O)C#N	O[C@@H](CC#N)[C@@H](O)C#N	
InChI=1S/C5H6N2O2/c6-2-1-4(8)5(9)3-7/h4-5,8-9H,1H2	InChI=1S/C5H6N2O2/c6-2-1-4(8)5(9)3-7/h4-5,8-9H,1H2/t4-,5-/m0/s1
