18
gdb 47041	3.61021	1.30928	1.03831	2.0861	71.18	-0.2424	0.0282	0.2706	1123.6649	0.150619	-439.109362	-439.101805	-439.100861	-439.14188	29.011	
O	-0.0489566067	-0.0944142986	-0.5934487368	-0.369304
C	-0.0174256304	 1.060655371	-0.2178449765	 0.392299
C	-1.2262304536	 1.8203009926	 0.3269704001	-0.348828
C	-1.3149526816	 3.2287992727	-0.2754529622	-0.058176
C	-1.7932187765	 4.3886440431	 0.6278610053	-0.094183
O	-0.4786776209	 4.9920850861	 0.6285653839	-0.291809
C	 0.0315805804	 3.988654611	-0.2712525775	 0.140305
C	 1.1856024534	 3.1643503658	 0.3140406509	-0.205067
N	 1.1218234636	 1.8232523548	-0.2458929293	-0.299666
H	-2.1162316386	 1.2213571666	 0.1298651116	 0.130895
H	-1.1120043229	 1.8899069729	 1.4172048834	 0.123721
H	-1.7985391379	 3.1924281018	-1.2529711024	 0.093035
H	-2.543416928	 5.0534091079	 0.1835165428	 0.107227
H	-2.1169561563	 4.1082722336	 1.6379170384	 0.10485
H	 0.3188124521	 4.4218703971	-1.2369701386	 0.084594
H	 2.1578840663	 3.6010533593	 0.0746863133	 0.119979
H	 1.0884507421	 3.1623045041	 1.4087557493	 0.1188
H	 1.9632984355	 1.3492963381	-0.5354316555	 0.251327
67.7812	108.8437	215.0424	322.0138	370.1472	415.1856	444.103	487.2818	534.2409	626.9403	706.6433	787.6015	806.8953	846.5878	892.0936	940.2489	982.6578	1013.0788	1043.5768	1062.6708	1091.0959	1109.1346	1140.8057	1158.7351	1187.1025	1246.0046	1264.3067	1275.3713	1297.0428	1320.8184	1351.1798	1366.842	1377.6666	1387.0991	1455.8357	1475.8425	1515.9587	1524.8415	1805.2814	3006.6217	3014.8358	3025.9726	3030.0127	3059.2141	3094.4508	3100.7266	3127.0242	3630.5041
O=C1CC2COC2CN1	O=C1C[C@H]2CO[C@H]2CN1	
InChI=1S/C6H9NO2/c8-6-1-4-3-9-5(4)2-7-6/h4-5H,1-3H2,(H,7,8)	InChI=1S/C6H9NO2/c8-6-1-4-3-9-5(4)2-7-6/h4-5H,1-3H2,(H,7,8)/t4-,5-/m0/s1
