13
gdb 21064	5.81337	1.63751	1.28831	4.1472	66.23	-0.2333	-0.0549	0.1784	883.3039	0.096606	-394.775415	-394.768511	-394.767567	-394.807406	24.361	
C	 0.0339653265	 1.472894221	 0.0097350166	-0.30445
N	-0.0185812784	 0.0155183288	 0.0022670529	 0.134528
N	-0.003761283	-0.5817247706	-1.1879658309	-0.188138
C	 0.0209417904	-1.8844620086	-1.2098025362	-0.063997
C	 0.0431397758	-2.7225917262	-0.0129619618	 0.285588
O	 0.0647561261	-3.9458546515	-0.0197485268	-0.375214
C	 0.0353611234	-1.8975099745	 1.1930749372	-0.064017
N	 0.0104871869	-0.5946043798	 1.1856772924	-0.188033
H	 1.0721165342	 1.8205091687	 0.0023145194	 0.152454
H	-0.4763572832	 1.838680648	-0.88027218	 0.162877
H	-0.4603051122	 1.8286006576	 0.9127556138	 0.162943
H	 0.0237646374	-2.3501146392	-2.1907531227	 0.142733
H	 0.0499171861	-2.3737686835	 2.1688140961	 0.142725
41.5829	105.8145	235.0544	345.6382	451.0041	456.5886	478.1623	501.74	650.8906	756.7038	790.1263	825.5184	932.7489	955.572	1004.053	1042.0385	1147.2676	1245.6024	1276.0675	1322.6574	1361.1798	1395.3936	1444.5294	1483.857	1502.5264	1556.1036	1598.9637	1752.4007	3052.9202	3138.9346	3183.0708	3184.6276	3186.0089
CN1N=CC(=O)C=N1	Cn1ncc(=O)cn1	
InChI=1S/C4H5N3O/c1-7-5-2-4(8)3-6-7/h2-3H,1H3	InChI=1S/C4H5N3O/c1-7-5-2-4(8)3-6-7/h2-3H,1H3
