15
gdb 53636	4.45251	0.63326	0.55826	3.4121	79.02	-0.2651	-0.0549	0.2103	1894.8589	0.110276	-416.7891	-416.779191	-416.778247	-416.826273	32.719	
C	-0.1349951918	 1.4300733998	 0.0118336867	-0.499437
C	-0.0758513422	-0.0234031947	 0.0029773823	 0.149895
C	-0.0289682725	-1.2253694126	-0.0043081406	 0.017661
C	 0.0657262298	-2.6712572891	-0.0134136354	-0.245892
O	-1.2764926736	-3.2238661535	-0.0031293957	-0.226221
C	-1.3436951841	-4.5568569399	-0.0092645894	 0.339861
N	-0.3312354249	-5.3210711062	-0.0233646744	-0.517508
C	-2.725162379	-5.0095757941	 0.0019563576	 0.258952
N	-3.7975440981	-5.4400337251	 0.0101811544	-0.31471
H	 0.8720338915	 1.8609453645	 0.0063557202	 0.156273
H	-0.6653438864	 1.8108450348	-0.8673670436	 0.156605
H	-0.6512979089	 1.8005816224	 0.903689019	 0.156623
H	 0.5876890049	-3.0443568314	-0.9015213152	 0.156778
H	 0.6053022623	-3.0543295779	 0.8597886179	 0.1568
H	-0.6004702671	-6.301917777	-0.0258472838	 0.254319
27.3723	46.6751	67.5134	125.207	166.1858	210.0213	265.7882	317.7654	343.4704	378.0954	459.9062	532.8125	617.3485	733.2062	774.1313	850.1015	930.7869	965.5987	1010.6585	1051.8449	1053.7022	1109.936	1185.224	1246.7815	1347.3219	1413.6992	1416.9882	1473.9808	1477.7157	1485.3348	1700.8003	2357.5098	2383.1098	3032.378	3042.118	3076.7177	3095.9948	3096.8936	3534.6843
CC#CCOC(=N)C#N	CC#CCO[C]([NH])C#N	
InChI=1S/C6H6N2O/c1-2-3-4-9-6(8)5-7/h8H,4H2,1H3	InChI=1S/C6H6N2O/c1-2-3-4-9-6(8)5-7/h8H,4H2,1H3
