12
gdb 11153	5.91358	1.3676	1.11837	2.1411	63.86	-0.2466	-0.0616	0.185	960.1125	0.084672	-377.580878	-377.574071	-377.573127	-377.612074	24.759	
O	 0.0332685916	-0.0050542419	 0.0030756965	-0.351979
C	-0.0261027666	 1.1981945522	 0.0101518436	 0.411196
C	-1.2714663114	 2.1047569777	 0.0322300644	-0.380502
C	-0.7089660362	 3.4964425081	 0.0316848149	-0.216177
C	 0.6325948598	 3.4082775964	 0.0126114602	 0.283481
N	 1.0562638334	 2.0683923013	-0.0002644398	-0.395112
C	 1.5828296127	 4.4642051111	 0.0049617074	 0.226847
N	 2.3716508171	 5.311231375	-0.0015457288	-0.322321
H	-1.9009438874	 1.8884531629	-0.8387211692	 0.163556
H	-1.8764941332	 1.8792652042	 0.918053289	 0.163562
H	-1.2752054869	 4.4140191623	 0.0443524241	 0.1392
H	 2.0151811971	 1.7614143608	-0.0151877322	 0.278248
110.8491	155.8358	177.13	391.5208	437.1291	448.6278	528.5845	560.8031	586.0267	669.6021	678.0916	765.6857	859.4769	947.5371	974.0314	998.7425	1143.9183	1185.9785	1193.6681	1276.0602	1311.8958	1414.2028	1426.977	1660.1392	1853.4805	2350.9715	3048.9303	3081.045	3266.9376	3662.9767
O=C1CC=C(N1)C#N	O=C1CC=C(N1)C#N	
InChI=1S/C5H4N2O/c6-3-4-1-2-5(8)7-4/h1H,2H2,(H,7,8)	InChI=1S/C5H4N2O/c6-3-4-1-2-5(8)7-4/h1H,2H2,(H,7,8)
