12
gdb 132078	2.47466	1.86805	1.06449	1.6852	62.87	-0.2242	-0.0529	0.1712	992.1157	0.077407	-513.932131	-513.924998	-513.924054	-513.96383	26.761	
O	-0.0469763792	 1.386221085	 0.0109852529	-0.410244
C	 0.0043681771	 0.0377591388	 0.0035193679	 0.159343
C	 1.1434776396	-0.6916554815	-0.0071199714	 0.195538
F	 2.3183232	-0.0560573124	-0.0107341979	-0.075137
N	 1.2091160382	-2.0519590631	-0.0147310608	-0.306329
C	 0.0847638542	-2.6568184998	-0.0112575054	 0.119661
O	-1.1266255525	-2.0730506279	-0.0009568109	-0.220681
C	-1.2657495713	-0.6715138448	 0.0072981423	 0.35514
N	-2.4015381252	-0.1217975685	 0.016951965	-0.518096
H	 0.8599181828	 1.7184715408	 0.0072864816	 0.309876
H	 0.0107866235	-3.7381704807	-0.0165549858	 0.157423
H	-3.1488515672	-0.8154268161	 0.0177084325	 0.233505
114.3643	180.7284	285.357	298.0612	346.3764	423.6225	502.9853	518.1846	529.0067	563.9246	652.696	705.9439	738.4267	839.5755	876.8783	916.3834	938.0186	1069.4104	1152.8074	1225.947	1283.0679	1339.0412	1419.2971	1442.4575	1645.6616	1694.5366	1764.4803	3214.9242	3504.2777	3791.117
OC1=C(F)N=COC1=N	OC1=C(OC=N[C@H]1F)[NH]	
InChI=1S/C4H3FN2O2/c5-3-2(8)4(6)9-1-7-3/h1,6,8H	InChI=1S/C4H4FN2O2/c5-3-2(8)4(6)9-1-7-3/h1,3,6,8H/t3-/m1/s1
