16
gdb 45194	3.55609	1.60814	1.35959	3.124	70.27	-0.2636	0.0003	0.2639	941.9471	0.125855	-437.800906	-437.794402	-437.793457	-437.831615	26.746	
N	 0.0165792632	 1.2425530121	 0.2902768426	-0.552943
C	 0.0039475201	 0.0218889372	 0.029622591	 0.316369
O	 1.0521857563	-0.8680204766	-0.3105168863	-0.295307
C	 0.0500073392	-1.7986732747	-0.9024217838	 0.118564
C	-0.3414942657	-3.2737920807	-0.6579440074	-0.31301
C	-1.671501295	-2.9224369016	 0.1228433986	 0.050732
C	-1.0980902409	-2.0301765598	 1.2235321568	-0.24647
C	-0.9749087429	-1.1324236453	-0.0263822401	 0.344491
O	-2.2358194055	-1.6826854172	-0.50286184	-0.368621
H	 0.9601565741	 1.629785724	 0.2376844935	 0.240112
H	-0.0388355825	-1.5322185079	-1.9561739762	 0.11168
H	-0.4966975174	-3.7969979965	-1.6027493212	 0.12116
H	 0.3257130656	-3.8667432427	-0.0296042544	 0.130559
H	-2.424620792	-3.6937402545	 0.2735168113	 0.098499
H	-1.8619252352	-1.6354083189	 1.8928153772	 0.129648
H	-0.1943471614	-2.3338497871	 1.7545012483	 0.114538
149.9512	243.8507	268.734	410.9549	448.3347	559.8304	591.1471	646.7331	671.4317	686.1976	772.3807	783.1822	820.2813	868.8901	890.8616	902.163	956.0957	995.2214	999.6679	1037.3153	1055.5599	1076.8322	1125.9623	1138.1744	1192.8165	1207.9088	1218.9133	1260.4012	1266.9751	1291.8306	1302.7142	1403.9107	1473.2024	1494.8214	1832.925	3081.7919	3086.1111	3099.99	3139.1089	3146.52	3161.7762	3482.3057
N=C1OC2CC3CC12O3	[NH][C]1O[C@H]2C[C@H]3C[C@@]12O3	
InChI=1S/C6H7NO2/c7-5-6-2-3(9-6)1-4(6)8-5/h3-4,7H,1-2H2	InChI=1S/C6H7NO2/c7-5-6-2-3(9-6)1-4(6)8-5/h3-4,7H,1-2H2/t3-,4-,6-/m0/s1
