21
gdb 87950	2.96921	1.13832	0.95365	1.7118	87.36	-0.209	0.027	0.2359	1324.1783	0.182096	-387.094621	-387.085487	-387.084543	-387.128396	35.055	
C	-0.0607373287	 1.4724385949	 0.1143358949	-0.487555
C	-0.0531369862	-0.0221491133	 0.0636165093	 0.314218
C	-1.0431702528	-0.8522084132	 0.4071776792	-0.251825
C	-0.684658314	-2.2777282179	 0.1948695078	 0.306136
C	-1.3364695943	-3.4081299267	 0.971710734	-0.360996
C	-1.6639128814	-3.2261762605	-0.4766162694	 0.055502
O	-2.9621110913	-2.7948821352	-0.7658376197	-0.418364
C	 0.8127474577	-2.274734956	-0.144201691	-0.309184
C	 1.1479680285	-0.7910256178	-0.4536356622	-0.304833
H	 0.739038099	 1.8527371463	 0.7632782643	 0.123553
H	 0.1181742617	 1.9048012168	-0.879222457	 0.121361
H	-1.0127149935	 1.8608868868	 0.4865433274	 0.122212
H	-2.0150747214	-0.546424365	 0.777595359	 0.093824
H	-0.7218036064	-4.2542222871	 1.2630139505	 0.107897
H	-2.1167803345	-3.1441352262	 1.6779320934	 0.120082
H	-1.2478719906	-3.9454123396	-1.1849901879	 0.079283
H	-2.9065212395	-2.1567674982	-1.4855103179	 0.286033
H	 1.389203617	-2.61647725	 0.7222751495	 0.105622
H	 1.0569322469	-2.9449306188	-0.9742488172	 0.09618
H	 1.2814478614	-0.6118405226	-1.5303246053	 0.100445
H	 2.0828640925	-0.4687521468	 0.0210573182	 0.100407
72.0025	121.1354	183.0897	190.6242	227.9108	273.6975	327.4267	378.4255	424.6311	451.3683	500.6451	567.5323	602.7192	763.3626	823.8015	845.4686	873.2214	886.5579	892.0771	925.7236	981.6354	1002.0789	1018.0383	1025.3044	1043.8726	1083.5737	1099.5304	1154.63	1183.7682	1187.7515	1226.209	1258.0842	1281.4796	1300.6595	1306.951	1338.0401	1378.7771	1411.6136	1421.9868	1477.9208	1478.8736	1483.552	1489.5127	1502.2425	1714.4061	3001.5764	3011.8611	3034.7006	3046.7198	3054.4908	3076.6231	3081.6719	3107.6173	3124.0109	3196.7376	3215.0106	3797.9353
CC1=CC2(CC2O)CC1	CC1=C[C@]2(C[C@H]2O)CC1	
InChI=1S/C8H12O/c1-6-2-3-8(4-6)5-7(8)9/h4,7,9H,2-3,5H2,1H3	InChI=1S/C8H12O/c1-6-2-3-8(4-6)5-7(8)9/h4,7,9H,2-3,5H2,1H3/t7-,8+/m1/s1
