20
gdb 56580	2.87587	0.93606	0.92296	5.5153	79.48	-0.2797	0.0403	0.3199	1399.3627	0.169496	-403.149053	-403.138943	-403.137999	-403.18457	36.389	
C	-0.1560498479	 1.533968734	-0.1379550852	-0.413102
C	 0.0589133995	 0.0186724795	 0.034432921	-0.140488
C	 0.7012288553	-0.5397290464	-1.1597216252	 0.27132
N	 1.1972849952	-0.9851061788	-2.103761016	-0.325749
C	 0.8910289664	-0.3496077792	 1.3026692825	 0.117079
O	 2.1581837517	 0.2888080169	 1.2781239003	-0.430869
C	 0.1274539099	-0.0823846182	 2.5798404379	-0.027748
C	-0.7902103226	-1.137668617	 3.1493331597	-0.268866
C	 0.5127120622	-0.8205405373	 3.8360707948	-0.275853
H	 0.8057562872	 2.0477698786	-0.2067704754	 0.140578
H	-0.7170183197	 1.7420533227	-1.0515844364	 0.14215
H	-0.720336844	 1.9417757321	 0.7047743027	 0.124762
H	-0.9161621906	-0.474639389	 0.1334164796	 0.126999
H	 1.1067955868	-1.4232753956	 1.2482037955	 0.101315
H	 2.0749295521	 1.1461066147	 1.7072056195	 0.2859
H	-0.1935949494	 0.9489287927	 2.7106662436	 0.085715
H	-1.7148490218	-0.8153945077	 3.6143512599	 0.11875
H	-0.8661556216	-2.081971351	 2.6198486014	 0.121195
H	 1.3164699619	-1.5451357348	 3.7628271913	 0.128738
H	 0.4827046595	-0.2824907362	 4.7766715184	 0.118175
57.6539	71.2007	129.6359	167.7851	185.0018	224.7674	255.4384	260.0096	309.7792	353.8152	444.5532	492.619	574.2047	676.3883	772.9124	804.0785	841.2437	858.9938	913.7687	946.9507	974.5025	998.9949	1059.7512	1074.4041	1085.3689	1101.8445	1126.6527	1137.1169	1157.0643	1198.1959	1228.4264	1281.0569	1293.7928	1313.834	1359.2343	1405.0639	1410.2804	1441.7475	1472.5826	1497.5039	1506.7967	1507.7096	2357.9173	3037.6839	3043.5903	3054.7944	3124.8531	3133.0367	3133.9594	3135.8985	3140.0539	3213.326	3228.2467	3823.9649
CC(C#N)C(O)C1CC1	C[C@@H](C#N)[C@@H](O)C1CC1	
InChI=1S/C7H11NO/c1-5(4-8)7(9)6-2-3-6/h5-7,9H,2-3H2,1H3	InChI=1S/C7H11NO/c1-5(4-8)7(9)6-2-3-6/h5-7,9H,2-3H2,1H3/t5-,7+/m0/s1
