14
gdb 80209	2.26611	1.62402	1.19463	4.2637	70.56	-0.2561	-0.0153	0.2408	1034.9926	0.101426	-432.836948	-432.829127	-432.828183	-432.869313	29.348	
N	 0.0924538897	 1.4254773383	 0.0942236903	-0.511938
C	-0.0384147459	 0.0217430652	 0.064830001	-0.029566
C	-0.543889191	-0.7494476409	 1.2106554687	 0.028558
O	-1.577534615	-0.0022963328	 1.8900578445	-0.28031
C	-2.4295671386	-0.1274500753	 0.7815255419	 0.394309
N	-3.6204908313	 0.2106327219	 0.6277592849	-0.535543
C	-1.4048826913	-0.8133925976	-0.0588190996	 0.024385
C	-1.5859068247	-1.8235788155	-1.0358477076	 0.200668
N	-1.7002068239	-2.6411568204	-1.8476737153	-0.345942
H	-0.0642227717	 1.8517230547	-0.8114020523	 0.256146
H	-0.5247872335	 1.8469639787	 0.7787252763	 0.258894
H	 0.7264403575	-0.4919227273	-0.5130458001	 0.145391
H	-0.0580244902	-1.5394324983	 1.7683107475	 0.151219
H	-4.0068819498	 0.6508926693	 1.4634327397	 0.243728
126.7973	135.5325	156.6873	252.9976	324.0544	371.4526	394.9965	513.5917	525.6082	595.8785	614.3887	691.0794	741.9276	789.5101	823.3885	861.119	888.6001	929.2241	947.7326	1018.94	1048.1387	1107.5935	1177.6049	1220.229	1278.5354	1304.0957	1359.6544	1476.7696	1652.2153	1841.589	2347.7923	3154.5291	3212.3058	3495.5563	3526.4456	3614.2471
NC1C2OC(=N)C12C#N	N[C@H]1[C@H]2O[C]([NH])[C@@]12C#N	
InChI=1S/C5H5N3O/c6-1-5-2(7)3(5)9-4(5)8/h2-3,8H,7H2	InChI=1S/C5H5N3O/c6-1-5-2(7)3(5)9-4(5)8/h2-3,8H,7H2/t2-,3+,5-/m0/s1
