17
gdb 66895	2.34702	1.95109	1.47779	3.5304	76.79	-0.2162	-0.0116	0.2046	952.9607	0.136518	-384.688696	-384.68144	-384.680496	-384.72012	29.075	
C	-0.0733058079	 1.528091743	-0.0068503878	-0.514146
C	 0.0674869613	 0.0379482088	-0.0215182793	 0.33003
C	 0.0759282649	-0.9012288512	-1.1821335152	-0.129477
C	 1.2759006157	-1.7915698584	-1.072376337	-0.091628
C	 1.7555651289	-1.7297637032	 0.1725509316	-0.094509
C	 0.850734946	-0.8541352349	 1.0083736384	-0.267267
C	-0.5197679866	-1.5944573597	 1.1577217372	 0.442075
O	-1.0322681277	-2.1522176115	 2.0886105688	-0.338426
C	-1.0440951659	-1.0529682495	-0.1223155651	-0.246414
H	 0.8893211107	 2.0141373227	-0.2011100272	 0.134373
H	-0.7792955256	 1.8604187273	-0.7743713952	 0.128542
H	-0.4388864706	 1.8829634667	 0.9626697663	 0.134552
H	-0.2892445097	-0.5594092831	-2.1452700124	 0.094489
H	 1.6472663688	-2.3989543767	-1.8870527716	 0.106914
H	 2.5725640033	-2.3061043468	 0.5860714384	 0.112799
H	 1.2522285533	-0.4153762517	 1.9205640241	 0.088136
H	-2.086680449	-0.9591046717	-0.398384674	 0.109957
119.1132	198.53	226.3245	275.9414	373.0122	450.9247	494.1167	573.3435	607.2531	694.9326	710.3847	742.2775	802.8938	816.5987	842.3148	882.1854	926.5014	951.0514	963.4645	982.3472	1008.8889	1034.4241	1085.1612	1107.8787	1122.9551	1127.0306	1171.284	1211.7788	1257.3235	1306.6953	1348.8377	1408.9764	1437.9635	1482.2439	1494.6014	1646.8113	1863.9932	3028.9017	3092.3579	3104.019	3133.6534	3166.1565	3201.9531	3211.3761	3235.5888
CC12C3C=CC1C(=O)C23	C[C@@]12[C@H]3C=C[C@@H]1C(=O)[C@@H]23	
InChI=1S/C8H8O/c1-8-4-2-3-5(8)7(9)6(4)8/h2-6H,1H3	InChI=1S/C8H8O/c1-8-4-2-3-5(8)7(9)6(4)8/h2-6H,1H3/t4-,5+,6-,8+/m0/s1
