16
gdb 127314	5.53168	0.96038	0.82255	3.5376	76.31	-0.218	0.0051	0.2231	1342.4542	0.125944	-434.117146	-434.108748	-434.107804	-434.151284	29.683	
C	-0.0684168568	 1.4131060343	 0.1646585051	-0.315494
N	 0.0148098021	-0.0177703372	-0.0186494217	 0.05873
C	 0.2394817945	-0.7058240159	-1.16235297	-0.011329
C	 0.2328952529	-2.0498915883	-0.8493546013	-0.327146
C	-0.0097486634	-2.0605096948	 0.5402464943	 0.461692
N	-0.1233085495	-3.1443785933	 1.4115557808	-0.386768
C	-0.0181787211	-4.4648445246	 1.0812207249	 0.146732
O	 0.191609471	-4.9031583522	-0.0284682801	-0.31101
N	-0.1420483708	-0.8353065014	 1.0457692994	-0.371615
H	 0.0824882461	 1.9005349732	-0.799827616	 0.139738
H	-1.0501199985	 1.6904120476	 0.5590187911	 0.148713
H	 0.7001561319	 1.7531241985	 0.8645541396	 0.148702
H	 0.3856287504	-0.1967557091	-2.1022290692	 0.13245
H	 0.3759184811	-2.8970814661	-1.4937206598	 0.14387
H	-0.300494773	-2.9043701228	 2.3757845414	 0.261627
H	-0.1508932369	-5.1086670678	 1.9720999814	 0.081109
44.0747	67.8368	168.4311	172.7041	232.7009	282.7754	399.8051	437.2657	591.8675	598.3162	621.5023	721.1271	722.6047	779.3846	845.1365	871.0317	1012.9197	1018.3572	1018.8954	1059.4577	1092.6776	1152.4909	1159.4093	1255.2969	1332.5228	1380.598	1430.7121	1454.7892	1463.2007	1472.2668	1496.1582	1522.4472	1540.1866	1610.6315	1804.6693	2946.8217	3046.5115	3110.3214	3145.98	3258.3323	3319.8861	3621.1195
CN1C=CC(NC=O)=N1	Cn1ccc(NC=O)n1	
InChI=1S/C5H7N3O/c1-8-3-2-5(7-8)6-4-9/h2-4H,1H3,(H,6,7,9)	InChI=1S/C5H7N3O/c1-8-3-2-5(7-8)6-4-9/h2-4H,1H3,(H,6,7,9)
