19
gdb 45319	2.60634	1.6374	1.28334	2.8303	79.34	-0.2324	-0.0178	0.2146	1041.8336	0.160695	-385.915585	-385.907884	-385.906939	-385.948262	30.112	
O	 0.2207181816	 0.113823616	-0.7330652249	-0.303314
C	 0.0699688095	 1.1836693205	-0.2168925433	 0.419197
C	-1.0867382309	 1.8595161611	 0.5265955157	-0.363543
C	-0.1491346223	 3.0817496717	 0.7994719844	-0.013944
C	 0.1650242723	 3.3563191995	 2.2776335234	-0.271545
C	 1.0907848525	 2.3291160798	 2.8823234639	-0.058585
C	 2.0673509084	 1.7507780789	 2.1831264446	-0.054595
C	 2.3105413017	 2.0644630069	 0.7283961317	-0.273781
C	 1.0056445627	 2.3905064983	-0.013763081	-0.140278
H	-1.9604821614	 2.06313634	-0.0998233196	 0.126846
H	-1.4179170006	 1.3074972617	 1.4124487008	 0.130349
H	-0.5123708307	 3.9944061352	 0.3226884238	 0.073704
H	 0.6267867939	 4.3506805167	 2.3686679839	 0.112065
H	-0.7703200885	 3.4138319383	 2.8465205867	 0.105115
H	 0.9625429805	 2.0922036534	 3.9350285901	 0.088066
H	 2.7360456479	 1.0412355555	 2.6625128839	 0.090899
H	 3.0069453078	 2.9109074296	 0.6434681338	 0.112479
H	 2.7953799847	 1.2204664029	 0.2252617284	 0.125493
H	 1.2228302307	 2.882702024	-0.9679048963	 0.095371
51.4891	110.4715	194.2078	303.522	392.2686	425.6961	487.6901	506.6821	541.7423	666.1008	695.9566	724.2208	776.2675	780.1529	874.3136	911.739	930.153	958.069	996.5047	1010.1636	1024.666	1066.3134	1068.0998	1104.9425	1118.4573	1159.7438	1193.3953	1209.3599	1229.2338	1257.8658	1274.9818	1294.6134	1330.978	1350.823	1379.5463	1415.657	1429.1589	1476.0841	1481.8038	1716.3746	1888.0163	2996.0411	3003.1411	3049.6676	3050.3613	3052.4429	3063.0276	3080.5795	3105.394	3152.8009	3175.8477
O=C1CC2CC=CCC12	O=C1C[C@H]2CC=CC[C@@H]12	
InChI=1S/C8H10O/c9-8-5-6-3-1-2-4-7(6)8/h1-2,6-7H,3-5H2	InChI=1S/C8H10O/c9-8-5-6-3-1-2-4-7(6)8/h1-2,6-7H,3-5H2/t6-,7-/m1/s1
