17
gdb 41188	3.10991	1.77459	1.57433	0.8138	73.67	-0.241	-0.0152	0.2258	902.1446	0.136547	-421.683741	-421.677117	-421.676173	-421.714305	27.773	
C	-0.020549565	 1.5686673804	 0.1322049904	-0.198159
O	 1.456608183	 1.5406486353	-0.0645002972	-0.32301
C	 1.1785136092	 0.3550969038	-0.9248350581	 0.119326
C	 1.2219041703	-1.1995028778	-1.2118400301	-0.012977
C	 1.7710474934	-2.1183718177	-0.1321195454	-0.258958
C	 1.1999224586	-1.7010232641	 1.1969986116	-0.072986
C	 0.3700696817	-0.6623094306	 1.2183983196	-0.055216
C	 0.0302891708	 0.0193333161	-0.0873221834	 0.293382
O	-0.2690811353	-1.0869245923	-1.0796200822	-0.361751
H	-0.2796990292	 1.9363780675	 1.1291073187	 0.119267
H	-0.5106493068	 2.147456309	-0.6570407901	 0.120229
H	 0.8656177371	 0.7775697304	-1.8861409714	 0.099389
H	 1.4967024345	-1.4963449843	-2.226569766	 0.09406
H	 1.5026342768	-3.1579821178	-0.3621969403	 0.123797
H	 2.8683510299	-2.0760091064	-0.1292578442	 0.121029
H	 1.4717258022	-2.2532899245	 2.0910437411	 0.100186
H	-0.0706013411	-0.2803214672	 2.1338040768	 0.092392
188.9211	230.1082	334.7619	396.6043	419.8892	479.5583	532.0701	574.6067	624.7588	719.8543	754.8707	764.9183	805.374	854.4054	862.226	919.7926	933.5767	953.5762	971.1301	993.2382	1030.052	1060.8585	1117.0637	1127.4474	1153.0115	1173.4076	1224.5945	1250.5983	1263.2514	1300.2381	1329.1373	1362.6583	1405.206	1458.3586	1465.3901	1496.9083	1705.0962	3017.9534	3028.6584	3042.0152	3047.009	3091.5508	3115.4492	3166.7839	3190.3174
C1OC2C3CC=CC12O3	C1O[C@H]2[C@H]3CC=C[C@@]12O3	
InChI=1S/C7H8O2/c1-2-5-6-7(3-1,9-5)4-8-6/h1,3,5-6H,2,4H2	InChI=1S/C7H8O2/c1-2-5-6-7(3-1,9-5)4-8-6/h1,3,5-6H,2,4H2/t5-,6+,7-/m1/s1
