15
gdb 127743	3.36279	1.49803	1.04308	2.2379	74.83	-0.2297	-0.0641	0.1656	1085.269	0.113849	-446.305892	-446.297389	-446.296445	-446.340391	30.263	
C	-0.0343098939	 1.4202347001	-0.0122601126	-0.305342
N	-0.0081257493	-0.0350823018	 0.0343227329	-0.01251
N	-0.0424603983	-0.6571844068	-1.1307350032	-0.052508
N	-0.0230219652	-1.9305957227	-1.1828152483	-0.276697
C	 0.0355005408	-2.6103016532	 0.042033725	 0.476789
N	 0.0518483952	-3.9479144099	-0.1106490592	-0.54344
N	 0.0722814545	-2.0750512759	 1.2282270779	-0.382857
C	 0.0516978725	-0.7011178972	 1.2893005596	 0.431123
N	 0.0798169984	 0.0345074539	 2.3312553764	-0.575822
H	 0.8620432378	 1.8195226763	 0.4670285144	 0.158786
H	-0.0813802383	 1.710784105	-1.0611380382	 0.146702
H	-0.9019956824	 1.789845552	 0.5382163207	 0.158899
H	 0.0236759877	-4.3367599563	-1.0360197114	 0.279062
H	 0.0938113688	-4.5411667842	 0.6986416652	 0.275871
H	 0.1216527516	-0.5693055891	 3.1514175309	 0.221943
18.6758	99.3976	161.2217	188.013	257.9154	331.1152	357.8608	469.4253	510.017	545.2595	568.9292	602.8173	731.2394	750.7496	800.3867	824.1968	850.6819	935.6447	1038.8247	1070.8288	1154.7287	1198.8943	1241.4258	1282.9551	1365.0114	1424.5247	1437.7422	1466.4493	1506.3724	1509.6561	1595.0625	1680.2718	1723.9236	3064.224	3133.988	3173.1644	3501.9681	3630.5047	3769.6663
CN1N=NC(N)=NC1=N	Cn1nnc(N)nc1[NH]	
InChI=1S/C3H6N6/c1-9-3(5)6-2(4)7-8-9/h1H3,(H3,4,5,6)	InChI=1S/C3H11N6/c1-9-3(5)6-2(4)7-8-9/h2-3,5-8H,4H2,1H3
