18
gdb 98769	3.99717	1.05015	1.04538	0.8582	72.61	-0.2388	-0.0035	0.2353	1233.41	0.147607	-439.063799	-439.055213	-439.054268	-439.097973	31.013	
C	-0.4762867358	 1.3957221743	 0.4603147033	-0.24224
O	-0.3196159202	-0.0298441394	 0.4607495409	-0.230675
C	 0.944360321	-0.4727968328	 0.5757977828	 0.457134
O	 1.9066083252	 0.2555946155	 0.6475718589	-0.365082
C	 0.9868463835	-1.9834897482	 0.6384707175	-0.068102
C	 2.3092029596	-2.6927499415	 0.258067604	-0.271149
C	 2.3344363504	-3.2247564665	 1.6897300777	-0.013112
C	 2.2934242418	-2.1251146846	 2.667631968	-0.246637
N	 1.0142471147	-2.5548159085	 2.0525514082	-0.152633
H	 0.0762632146	 1.8427738136	-0.369819641	 0.142078
H	-1.5454457374	 1.5762601395	 0.351273241	 0.136431
H	-0.1088872299	 1.8223705295	 1.3969663598	 0.142804
H	 0.1093595593	-2.391214028	 0.1365824138	 0.10531
H	 2.1624925939	-3.4627615183	-0.5005763072	 0.113682
H	 3.1429547228	-2.0488831827	-0.0300916	 0.125767
H	 2.5324854278	-4.2531994019	 1.9725868331	 0.097135
H	 2.3346226645	-2.3909868155	 3.7192365865	 0.122466
H	 2.7099883942	-1.1540758244	 2.4179673228	 0.146822
37.8772	115.5805	139.7735	155.508	230.9584	290.9856	342.8695	393.1329	457.831	652.7018	733.5052	754.0512	765.5352	801.5813	850.3845	935.2919	956.7635	969.9725	1002.2705	1054.7529	1068.5601	1097.1753	1122.5192	1146.9354	1165.6455	1178.068	1202.636	1222.8215	1238.0876	1270.0332	1276.447	1367.401	1392.0757	1473.7191	1481.7116	1482.0539	1495.533	1500.5068	1800.8427	3053.1985	3075.4814	3107.0574	3124.1793	3128.2802	3133.3623	3162.3039	3168.7055	3215.1034
COC(=O)C1CC2CN12	COC(=O)[C@H]1C[C@H]2CN12	
InChI=1S/C6H9NO2/c1-9-6(8)5-2-4-3-7(4)5/h4-5H,2-3H2,1H3	InChI=1S/C6H9NO2/c1-9-6(8)5-2-4-3-7(4)5/h4-5H,2-3H2,1H3/t4-,5+,7?/m0/s1
