20
gdb 82094	2.60983	1.55336	1.2702	1.1954	77.61	-0.2304	0.0785	0.3089	1077.2603	0.171346	-403.074333	-403.066033	-403.065089	-403.107179	31.949	
C	 0.1235485189	 1.6670052832	-0.1541811938	-0.417636
C	 0.1027782721	 0.1476446424	-0.0272426335	-0.02009
C	 1.1073299822	-0.680968254	-0.8322539035	-0.03843
C	 2.4933257261	-0.4672089624	-0.3859870529	-0.250117
N	 1.6452412875	-1.3989063902	 0.3992735476	-0.161826
C	 0.7012791121	-0.5697104813	 1.2329064196	-0.010161
C	 1.2499654733	 0.2081590145	 2.4008851233	 0.074462
C	 2.5367476126	-0.1153212811	 3.0301228101	-0.182908
O	 2.388034722	 1.0593035681	 2.2240740472	-0.233406
H	 1.1115008629	 2.0830554025	 0.0556391542	 0.139563
H	-0.1676959841	 1.9702761241	-1.1658879125	 0.115255
H	-0.584456243	 2.1265983655	 0.5441536862	 0.11355
H	-0.9145013939	-0.2150473834	-0.2005506475	 0.079961
H	 0.8692706365	-1.2320960955	-1.7366355706	 0.091746
H	 3.2681271035	-1.0004633051	-0.9288537107	 0.116519
H	 2.8049888464	 0.4704258734	 0.0569500925	 0.146815
H	-0.0365651801	-1.2615097926	 1.6545916269	 0.089149
H	 0.4763436011	 0.6495941286	 3.0331874934	 0.093745
H	 2.6828314437	 0.0679797354	 4.0931506118	 0.116794
H	 3.1491973604	-0.9012656421	 2.5940166621	 0.137016
85.3312	154.9149	172.6382	210.3947	232.2354	297.479	351.0556	448.0546	535.2884	621.5779	717.4124	743.9312	762.9869	783.2057	850.0141	898.9726	911.3008	940.7533	983.9296	991.8248	1055.5915	1081.3664	1081.9813	1104.156	1117.4075	1119.5001	1146.4381	1159.8058	1171.389	1177.4549	1220.2027	1254.2895	1285.6011	1300.2139	1368.4196	1374.2473	1377.1723	1417.8972	1430.5126	1493.1678	1499.3989	1511.2197	1525.8592	3034.131	3037.1991	3062.9698	3084.765	3093.3339	3095.9008	3126.8969	3132.4181	3159.6592	3188.7104	3229.7694
CC1C2CN2C1C1CO1	C[C@H]1[C@H]2CN2[C@H]1[C@H]1CO1	
InChI=1S/C7H11NO/c1-4-5-2-8(5)7(4)6-3-9-6/h4-7H,2-3H2,1H3	InChI=1S/C7H11NO/c1-4-5-2-8(5)7(4)6-3-9-6/h4-7H,2-3H2,1H3/t4-,5+,6+,7+,8?/m0/s1
