17
gdb 27195	3.33588	1.54548	1.07014	0.7601	83.93	-0.1966	-0.0022	0.1944	1099.1067	0.137697	-384.7348	-384.727416	-384.726472	-384.766578	28.791	
C	 0.1027942173	 1.5016136136	 0.0241724268	-0.490916
C	-0.0652830835	 0.0258239542	 0.0430966858	 0.193801
C	-1.1283122718	-0.8216225801	-0.0191558051	 0.187042
C	-2.5785623506	-0.9011992763	-0.1271204675	-0.218776
C	-2.9490895215	-2.1958278061	-0.1274282755	-0.080612
C	-1.7560951737	-3.1392294274	-0.0170223545	-0.420518
C	-0.6123404655	-2.1639810038	 0.0485920977	 0.222706
C	 0.7296923861	-2.0513397224	 0.1476707305	-0.182076
O	 1.0809822541	-0.7242652217	 0.1458339864	-0.196759
H	 0.7190853068	 1.8279432758	-0.8218829886	 0.137291
H	-0.8734117744	 1.9846779026	-0.0598720808	 0.131303
H	 0.5861978803	 1.8656735298	 0.9384472285	 0.137291
H	-3.2503852139	-0.0549522568	-0.1960369266	 0.097557
H	-3.9676495924	-2.5576162187	-0.1967062238	 0.097338
H	-1.8293818369	-3.780202368	 0.8715582787	 0.126778
H	-1.6970507633	-3.8176592586	-0.878439425	 0.126778
H	 1.552292133	-2.7428637161	 0.224682563	 0.131771
111.5742	168.1949	223.4365	246.9636	318.891	443.4868	502.7548	590.9339	603.6397	659.0082	688.9916	734.2153	760.3386	779.6196	856.4173	928.527	947.05	953.0746	957.914	1035.7365	1059.143	1121.9001	1142.1808	1149.1305	1152.3023	1240.1566	1263.3896	1288.9927	1371.4653	1381.7524	1418.55	1456.425	1471.211	1490.4392	1608.1644	1634.5068	1701.8096	3019.4333	3024.8275	3042.5167	3072.9166	3124.6552	3200.2077	3223.0476	3272.1332
CC1=C2C=CCC2=CO1	Cc1c2C=CCc2co1	
InChI=1S/C8H8O/c1-6-8-4-2-3-7(8)5-9-6/h2,4-5H,3H2,1H3	InChI=1S/C8H8O/c1-6-8-4-2-3-7(8)5-9-6/h2,4-5H,3H2,1H3
