21
gdb 53947	2.23047	1.37745	1.16283	2.5207	78.33	-0.2394	-0.0123	0.227	1191.5741	0.178872	-424.228379	-424.218028	-424.217083	-424.263774	37.812	
C	 0.3184588707	 0.7292672072	-0.9608441048	-0.491898
C	-0.2599670629	 0.3000087139	 0.3749733739	 0.366328
O	 0.2504936389	 0.6342441523	 1.4194696446	-0.307745
C	-1.5152542001	-0.6112584933	 0.3579749324	 0.121193
C	-2.1069293425	-0.6936402785	 1.773671673	-0.411824
C	-2.5582557138	-0.0791417636	-0.6417910655	-0.455583
C	-1.0130758858	-2.0084287626	-0.0244996876	 0.078674
C	-1.7915982299	-2.9908568891	-0.7910194948	-0.192755
O	-0.7054645872	-2.2798457414	-1.393675726	-0.239757
H	 1.3008543573	 1.1745541776	-0.7988384618	 0.137456
H	 0.3833845541	-0.1154126381	-1.6520935259	 0.165928
H	-0.3352935752	 1.4746137845	-1.427661535	 0.1411
H	-2.4553898572	 0.28931478	 2.1020693935	 0.123115
H	-2.9547340164	-1.3855567391	 1.7906310234	 0.106438
H	-1.3603536016	-1.0297545812	 2.4959451068	 0.133422
H	-2.2299517772	-0.2092033703	-1.6754690945	 0.138874
H	-3.5106216382	-0.6026208611	-0.5159312078	 0.119921
H	-2.750046757	 0.9842887203	-0.4687402237	 0.122249
H	-0.2710714139	-2.4029617759	 0.6726284176	 0.104513
H	-1.6183431005	-4.053683227	-0.6299825155	 0.120976
H	-2.7787868016	-2.7339752646	-1.1673060424	 0.119375
42.8563	89.6239	151.9955	172.558	207.1678	241.749	260.8269	276.4386	302.5841	356.024	373.0905	413.9613	504.8697	585.3504	613.4685	672.9056	793.6494	861.3426	897.0277	942.4917	956.0927	963.6968	1007.801	1043.4436	1058.5749	1103.3663	1147.6839	1158.6057	1181.7323	1194.9698	1231.6654	1265.1771	1307.7166	1385.8016	1396.2828	1405.238	1431.5475	1466.0175	1475.1331	1484.4523	1488.3308	1504.0366	1513.9621	1527.1533	1802.5237	3041.1366	3044.4989	3046.6698	3089.8978	3096.9323	3104.6349	3112.282	3115.6415	3129.9491	3133.017	3155.4716	3184.5067
CC(=O)C(C)(C)C1CO1	CC(=O)C(C)(C)[C@H]1CO1	
InChI=1S/C7H12O2/c1-5(8)7(2,3)6-4-9-6/h6H,4H2,1-3H3	InChI=1S/C7H12O2/c1-5(8)7(2,3)6-4-9-6/h6H,4H2,1-3H3/t6-/m1/s1
