12
gdb 21836	7.93159	1.20478	1.07432	1.2253	57.79	-0.2526	-0.0236	0.229	1002.7769	0.085072	-414.689341	-414.682662	-414.681718	-414.72097	23.416	
O	 0.325079505	-0.0867970366	-0.1360539796	-0.241945
C	 0.5346689668	 1.0578015856	-0.3710501954	 0.160543
O	 0.3846125616	 2.027262987	 0.590616679	-0.218105
C	 0.7460473814	 3.3000733914	 0.2641571102	 0.445396
C	 1.8751527622	 3.8435508895	-0.3079095823	-0.332282
C	 1.6017543707	 5.2312218308	-0.3185589706	 0.011082
N	 0.4162234617	 5.5202203643	 0.2057939057	-0.216501
N	-0.096529886	 4.3188926252	 0.5490848045	-0.252631
H	 0.8572293302	 1.4833469246	-1.3361184189	 0.112474
H	 2.7604860393	 3.324960543	-0.6350697923	 0.121924
H	 2.2322640121	 6.028522486	-0.6835033563	 0.123298
H	-0.9987705549	 4.2565366193	 0.991061926	 0.286746
64.3315	137.3093	165.1457	363.9455	427.7053	493.3958	511.8746	680.0507	696.0498	789.0567	827.6354	895.2955	929.2809	1040.8324	1048.0747	1061.8334	1100.253	1123.7008	1254.0876	1303.1509	1373.6018	1402.3671	1442.7698	1512.8566	1605.936	1887.1189	3008.1761	3248.7747	3278.0551	3669.7513
O=COC1=CC=NN1	O=COc1ccn[nH]1	
InChI=1S/C4H4N2O2/c7-3-8-4-1-2-5-6-4/h1-3H,(H,5,6)	InChI=1S/C4H4N2O2/c7-3-8-4-1-2-5-6-4/h1-3H,(H,5,6)
