16
gdb 128672	4.86805	1.07409	0.88483	2.788	78.37	-0.1999	-0.048	0.1519	1264.658	0.125945	-434.074565	-434.06655	-434.065606	-434.107233	30.049	
C	-0.0096517131	 1.4051282365	 0.0077628898	-0.231359
O	-0.0286616228	-0.0199872163	 0.0034501264	-0.26216
C	-1.2424077789	-0.6060227624	 0.0110717458	 0.446217
N	-2.3206158046	 0.1050346327	 0.0218024492	-0.304328
N	-3.495017458	-0.5859442107	 0.0287443663	-0.330631
C	-3.6789415946	-1.965960394	 0.0257950623	 0.389815
N	-4.8083762693	-2.5821099754	 0.0326953549	-0.566721
C	-2.4180317921	-2.6972026075	 0.0135602222	-0.076192
C	-1.2392712389	-2.0486708236	 0.0064043787	-0.180483
H	 1.0438049415	 1.6865860648	 0.0002682465	 0.132175
H	-0.5180300993	 1.8056713528	-0.8750114385	 0.135196
H	-0.5038951644	 1.8001118138	 0.9010096621	 0.135191
H	-4.3069845748	 0.0112656846	 0.0370821159	 0.259779
H	-5.5938594219	-1.9285709681	 0.0409589712	 0.194285
H	-2.4943194761	-3.7773677545	 0.0106913527	 0.133591
H	-0.2863813529	-2.5643130929	-0.0027212056	 0.125624
81.864	138.3108	196.8891	220.9126	336.5541	357.6823	392.3533	457.4741	499.3286	559.8324	591.7584	634.2344	748.9079	792.1362	797.37	826.4135	869.3225	994.6484	1021.2316	1054.3418	1095.9975	1162.3366	1179.8515	1198.3037	1248.4057	1310.244	1356.7598	1444.0509	1454.8686	1477.3905	1496.8972	1503.419	1608.7922	1660.7072	1714.8356	3036.0084	3103.1117	3150.1604	3203.9875	3225.9453	3450.5487	3629.377
COC1=NNC(=N)C=C1	COC1=NNC(=CC1)[NH]	
InChI=1S/C5H7N3O/c1-9-5-3-2-4(6)7-8-5/h2-3H,1H3,(H2,6,7)	InChI=1S/C5H8N3O/c1-9-5-3-2-4(6)7-8-5/h2,6-7H,3H2,1H3
