21
gdb 96457	2.15058	1.90413	1.3036	0.3501	77.82	-0.2314	0.0829	0.3144	1059.974	0.184175	-424.202216	-424.194191	-424.193246	-424.234251	32.583	
C	-0.4598422775	 1.5281778842	-0.0064739512	-0.431735
C	-0.0343960673	 0.0572481166	-0.0030743007	 0.121125
O	 0.5557257836	-0.3640703483	-1.2424664032	-0.267353
C	 1.617324429	 0.4162518473	-1.757560979	-0.074668
C	 2.9099170057	 0.3731138451	-0.9442099075	-0.08208
O	 2.7652058485	 0.9587885515	 0.3465041113	-0.251888
C	 2.2666571529	 0.0516005716	 1.2845857703	 0.118064
C	 1.2836712746	 0.5665806803	 2.2836920622	-0.332768
C	 0.8259534002	-0.3808365045	 1.1854676523	-0.069318
H	 0.3880224533	 2.2144386224	 0.0468890723	 0.136966
H	-1.0288209396	 1.7435946318	-0.9158716567	 0.119872
H	-1.1065947047	 1.72314317	 0.8536744902	 0.119209
H	-0.9520088001	-0.5399690684	 0.0345586236	 0.085246
H	 1.8220012053	 0.0090918875	-2.755432294	 0.102816
H	 1.3162505521	 1.4652390771	-1.8878323061	 0.096411
H	 3.2676394503	-0.6625428253	-0.8554450623	 0.096782
H	 3.6756293408	 0.9566891117	-1.4695210914	 0.102155
H	 2.9981593832	-0.6909894014	 1.6061531721	 0.083941
H	 1.3319810956	 0.1961159001	 3.30161498	 0.112524
H	 1.0110704264	 1.6114086521	 2.1969791162	 0.125887
H	 0.6380939275	-1.4048070314	 1.4953642718	 0.088812
112.3305	209.5278	272.6733	285.5534	300.8665	335.1885	374.8367	429.4667	461.7757	497.4536	565.9164	702.6249	747.4653	781.8944	811.1071	849.6124	885.8435	928.7446	970.9887	994.1281	1038.1092	1059.6589	1068.3891	1092.2211	1107.6847	1130.22	1136.5115	1145.6565	1176.7001	1194.035	1254.1397	1299.9148	1323.976	1359.7892	1368.2322	1381.9028	1399.5154	1408.6052	1414.8225	1419.2493	1476.3084	1486.3238	1488.1625	1496.0573	1521.5549	3003.0881	3008.095	3041.1564	3046.5942	3059.5063	3067.03	3087.8899	3115.4328	3130.8249	3140.6718	3146.38	3230.9646
CC1OCCOC2CC12	C[C@H]1OCCO[C@H]2C[C@@H]12	
InChI=1S/C7H12O2/c1-5-6-4-7(6)9-3-2-8-5/h5-7H,2-4H2,1H3	InChI=1S/C7H12O2/c1-5-6-4-7(6)9-3-2-8-5/h5-7H,2-4H2,1H3/t5-,6+,7+/m1/s1
