13
gdb 11098	7.10365	1.14256	1.08406	4.0529	59.6	-0.2695	-0.05	0.2196	1031.199	0.094274	-398.587729	-398.580211	-398.579267	-398.620918	25.402	
O	-0.3720027532	 0.2003793913	-0.046329575	-0.222555
C	 0.0354513146	 1.2970718099	-0.3151247906	 0.140508
C	 1.3728997471	 1.8512795167	 0.1335816412	 0.048939
C	 1.2955535617	 2.7053978857	 1.4309670307	-0.323172
C	 2.1370348751	 1.5512742923	 2.0387823376	 0.014072
O	 2.2170421215	 0.8789873032	 0.768436917	-0.263038
C	 3.4499304552	 1.9220462097	 2.5708734107	 0.277149
N	 4.4761046599	 2.2337010304	 3.0005859461	-0.307479
H	-0.5668025869	 2.0261619944	-0.9067474981	 0.082918
H	 1.8693814315	 2.3403322938	-0.7148383096	 0.116532
H	 1.8073717102	 3.6647923418	 1.3804706654	 0.150542
H	 0.3046910333	 2.8311328377	 1.8674965657	 0.141433
H	 1.60913848	 0.9420849032	 2.7810573889	 0.14415
31.9172	95.5745	145.7203	210.7386	280.3801	326.2642	528.8824	548.4824	724.3918	730.5038	779.0905	898.344	910.4319	965.3955	997.6382	1054.3726	1078.9447	1109.1488	1154.4313	1241.5855	1254.8042	1280.9671	1343.394	1375.0956	1413.453	1488.7225	1845.2133	2360.0676	2860.8615	3028.7357	3050.9559	3100.6697	3166.4825
O=CC1CC(O1)C#N	O=C[C@H]1C[C@@H](O1)C#N	
InChI=1S/C5H5NO2/c6-2-4-1-5(3-7)8-4/h3-5H,1H2	InChI=1S/C5H5NO2/c6-2-4-1-5(3-7)8-4/h3-5H,1H2/t4-,5-/m1/s1
