18
gdb 14418	2.98961	2.23829	1.70729	1.9687	71.23	-0.2384	0.0755	0.314	840.8031	0.154337	-347.753533	-347.746324	-347.745379	-347.78445	28.696	
C	-0.02228605	 1.574360725	-0.0402553864	-0.528744
C	 0.032695228	 0.0843180804	 0.0449145191	 0.332736
C	 0.0063832638	-0.9902573416	-1.0155179952	-0.11532
C	 1.2780650989	-1.6484968087	-0.4805140415	-0.238693
C	 0.9432463758	-0.9456058264	 0.8591729828	-0.147074
C	-0.3663344266	-1.6405795753	 1.3316086836	 0.166153
O	-0.8675795338	-1.1899550341	 2.5722231705	-0.449355
C	-1.0321668043	-0.9988875368	 0.1181014575	-0.161254
H	 0.9283825572	 1.993827016	-0.3902947416	 0.124133
H	-0.8013786122	 1.8910086464	-0.7427125223	 0.12495
H	-0.2462856801	 2.0360973531	 0.9291602044	 0.114232
H	-0.3114749951	-0.8843855856	-2.0461618533	 0.083561
H	 1.3471927073	-2.7429486877	-0.4682665347	 0.08926
H	 2.171859178	-1.2337115001	-0.9553502519	 0.098328
H	 1.7110738561	-0.6988522652	 1.5907324815	 0.070833
H	-0.3421111164	-2.733447176	 1.4051881399	 0.07645
H	-1.0288792023	-0.2425394614	 2.4933762	 0.276322
H	-2.0926887445	-0.9143429819	-0.0893717924	 0.083483
152.4627	209.8961	249.9635	291.0249	307.0349	371.0067	439.4173	519.154	600.4207	720.9043	789.6973	830.4237	849.7758	869.5267	916.9024	937.2436	965.7349	1001.1022	1014.8018	1020.1503	1059.341	1079.5075	1109.2325	1138.6437	1160.494	1165.9221	1203.8159	1226.4108	1246.9872	1282.6074	1293.6002	1309.3949	1411.0266	1435.5951	1453.2274	1482.5823	1497.9333	1503.2329	3015.395	3026.653	3051.2547	3070.7783	3087.3323	3088.6744	3132.309	3177.7026	3187.968	3791.6394
CC12C3CC1C(O)C23	C[C@@]12[C@H]3C[C@@H]1[C@@H](O)[C@@H]23	
InChI=1S/C7H10O/c1-7-3-2-4(7)6(8)5(3)7/h3-6,8H,2H2,1H3	InChI=1S/C7H10O/c1-7-3-2-4(7)6(8)5(3)7/h3-6,8H,2H2,1H3/t3-,4+,5-,6+,7+/m0/s1
