17
gdb 96208	2.76831	1.37685	0.96746	2.9042	77.18	-0.2549	-0.0469	0.208	1175.3398	0.13793	-418.020055	-418.011804	-418.010859	-418.052947	30.96	
N	-0.0498033302	 1.4713774011	 0.0866124487	-0.510453
C	 0.0100519371	 0.0167881917	-0.0181323426	-0.100391
C	-1.4188828392	-0.5398899295	-0.0053102155	-0.080489
O	-1.4409293624	-1.9311592867	-0.2609209055	-0.243303
C	-1.0192514282	-2.2534472473	-1.5665488411	-0.122348
C	 0.2234671946	-1.528574308	-1.9871056063	-0.159389
C	 0.7231363738	-0.5153663764	-1.266350559	 0.151407
C	 1.9283212336	 0.1473329558	-1.6519660959	 0.216655
N	 2.9016439016	 0.7168053218	-1.9189044455	-0.33919
H	 0.8811875312	 1.8595459536	 0.2042337485	 0.249743
H	-0.4210459801	 1.871980232	-0.7710667369	 0.232239
H	 0.5385596874	-0.351701941	 0.8693676094	 0.114747
H	-1.8722757209	-0.3877082769	 0.9756969084	 0.129486
H	-2.0255999518	 0.0044058615	-0.7493323135	 0.089114
H	-0.8441699793	-3.3358837374	-1.5817216691	 0.134969
H	-1.8210126587	-2.0536024915	-2.302760849	 0.113247
H	 0.7057018715	-1.8548654629	-2.9039755953	 0.123954
83.3246	144.9965	179.9232	272.9069	299.1598	308.2752	348.1382	411.2837	464.6389	496.8567	574.785	634.7601	711.5275	757.3741	857.7351	879.8255	917.668	990.2744	1013.1983	1026.2607	1070.9786	1122.2411	1168.7352	1184.2726	1211.1755	1250.1061	1300.8352	1319.8214	1348.6085	1376.1622	1395.9878	1422.2512	1475.8612	1494.5326	1662.8471	1692.1289	2331.1267	2931.0396	2963.3833	3039.7164	3053.6383	3117.5355	3178.4254	3489.3603	3570.7945
NC1COCC=C1C#N	N[C@H]1COCC=C1C#N	
InChI=1S/C6H8N2O/c7-3-5-1-2-9-4-6(5)8/h1,6H,2,4,8H2	InChI=1S/C6H8N2O/c7-3-5-1-2-9-4-6(5)8/h1,6H,2,4,8H2/t6-/m0/s1
