16
gdb 131508	3.68308	1.34726	1.15104	2.5968	69.89	-0.2575	-0.0176	0.2399	1049.8417	0.126401	-437.882195	-437.875175	-437.874231	-437.913724	27.661	
O	 0.0566251983	 1.4205451564	 0.0152752237	-0.429006
C	 0.0277736552	 0.0039720659	-0.0130820613	 0.125194
C	-1.4431149308	-0.5346525506	-0.0668300902	-0.379822
C	-1.6635231634	-0.6769119515	-1.5435575979	 0.153833
C	-2.5725987268	-0.8050515611	-2.5380475215	-0.094927
O	-1.9382325243	-0.8848154226	-3.7291656066	-0.173142
N	-0.5502819107	-0.8073839646	-3.5307128692	-0.248098
C	-0.4221056731	-0.6888697358	-2.2381221308	 0.360324
C	 0.7343001208	-0.5547362804	-1.29112913	-0.361179
H	-0.3796527494	 1.745117856	-0.7815020334	 0.285799
H	 0.5385418912	-0.3068098715	 0.9009612723	 0.094147
H	-1.520879329	-1.5029342623	 0.4430905063	 0.121316
H	-2.1135989438	 0.1615338639	 0.4428130556	 0.12634
H	-3.6494009453	-0.8499319758	-2.5887559969	 0.15263
H	 1.5267523801	 0.1183315925	-1.624493457	 0.137268
H	 1.185113481	-1.5348844486	-1.095177443	 0.129323
89.8483	214.3535	277.7832	342.5485	374.4195	395.4458	486.4763	597.6975	648.5409	659.3239	712.0115	789.0869	832.2824	856.3544	873.1789	889.0925	929.7657	961.4382	1020.5136	1064.8637	1113.5002	1121.5737	1163.289	1182.5245	1228.4619	1266.3947	1294.4158	1320.7274	1324.395	1411.9033	1434.6778	1464.1195	1481.2021	1551.9289	1668.4688	3032.4812	3043.841	3094.8597	3101.4767	3116.3455	3264.6879	3787.1675
OC1CC2=CON=C2C1	O[C@H]1Cc2conc2C1	
InChI=1S/C6H7NO2/c8-5-1-4-3-9-7-6(4)2-5/h3,5,8H,1-2H2	InChI=1S/C6H7NO2/c8-5-1-4-3-9-7-6(4)2-5/h3,5,8H,1-2H2/t5-/m0/s1
