17
gdb 82597	2.3305	2.14771	1.69071	2.8367	65.65	-0.2424	0.0482	0.2907	868.8036	0.137852	-458.904985	-458.898209	-458.897265	-458.935843	27.982	
O	 0.1391089568	 1.3944240323	-0.2630219726	-0.446031
C	-0.0128260356	 0.0372715767	 0.0205985279	 0.164096
C	 0.1958259176	-0.5358928288	 1.4533018774	 0.043819
O	-0.5829115364	 0.1543004957	 2.4728584985	-0.319359
C	-1.7622708036	-0.6113059853	 2.1320370778	 0.046556
C	-2.427843246	 0.077080916	 0.9203169864	 0.144676
O	-2.4426972796	 1.4902172404	 0.9809015388	-0.45278
C	-1.4084879034	-0.6289536471	-0.0325970264	-0.180269
C	-0.9666736002	-1.5394377621	 1.18188894	-0.100271
H	-0.7007357483	 1.8203183989	-0.0480208791	 0.292306
H	 0.6691279981	-0.5246918976	-0.6326916774	 0.089714
H	 1.2025560588	-0.7604735186	 1.8078860785	 0.087065
H	-2.348027642	-0.8880439739	 3.0103871664	 0.08483
H	-3.4462838366	-0.2811410912	 0.7399434147	 0.092989
H	-1.8066375037	 1.7110227192	 1.6807835014	 0.294161
H	-1.7782623979	-0.9860330794	-0.9927928555	 0.0739
H	-0.9178158579	-2.6227236653	 1.2077222931	 0.084597
166.0755	204.5877	286.4797	347.8454	371.6517	541.2758	549.6749	611.8842	657.3239	711.2644	746.2911	771.3699	813.241	849.1114	861.9588	882.5037	940.7806	988.366	1015.7103	1040.3673	1062.2854	1091.7602	1109.5191	1124.7317	1157.2998	1175.2997	1180.4537	1209.0426	1246.4565	1272.9815	1282.3551	1309.7386	1320.859	1351.1085	1364.048	1428.6874	1451.7481	3016.1946	3062.081	3095.956	3105.5289	3118.9617	3175.3572	3682.0604	3757.7868
OC1C2OC3C(O)C1C23	O[C@H]1[C@H]2O[C@H]3[C@@H](O)[C@@H]1[C@@H]23	
InChI=1S/C6H8O3/c7-3-1-2-5(3)9-6(2)4(1)8/h1-8H	InChI=1S/C6H8O3/c7-3-1-2-5(3)9-6(2)4(1)8/h1-8H/t1-,2+,3-,4+,5+,6-
