20
gdb 81625	3.06042	1.02641	0.88064	2.1395	81.61	-0.212	-0.0245	0.1875	1361.2344	0.169322	-403.063029	-403.054071	-403.053127	-403.098045	32.903	
C	-0.0948612253	 1.5156669078	 0.0282960166	-0.332098
N	-0.0176915739	 0.0575154484	-0.033422652	-0.094363
C	-1.1702805033	-0.7972075634	 0.4468275838	-0.063615
C	-0.1611376228	-1.9770230912	 0.3845348122	-0.205352
C	 0.5362696977	-0.787245819	 1.1008479459	-0.042583
C	-0.7639133477	-0.634945676	 1.9571795349	 0.040267
C	-1.0430481532	 0.5831269033	 2.8457035803	-0.341733
C	-0.8241878325	 0.2444194224	 4.3083955967	 0.156091
O	-0.1661164975	 0.8971153439	 5.0749520842	-0.235075
H	-0.8431590074	 1.9396997165	 0.7083532116	 0.105754
H	 0.8854840542	 1.9204314279	 0.3025611357	 0.122746
H	-0.3271940263	 1.8836108552	-0.9776531118	 0.120532
H	-2.1650084236	-0.73329821	 0.0000324775	 0.079294
H	-0.3813671155	-2.8632217212	 0.9810468177	 0.094894
H	 0.218223925	-2.2002512348	-0.6108998978	 0.109043
H	 1.576742194	-0.7058777975	 1.4220013006	 0.085011
H	-1.0051847158	-1.5372396729	 2.5359707745	 0.071231
H	-0.4326157922	 1.4554391269	 2.6200760678	 0.133133
H	-2.1005475832	 0.8733381657	 2.7486646536	 0.124442
H	-1.3368862908	-0.6892424119	 4.6438302579	 0.072381
35.931	62.9056	110.63	186.0949	230.7729	311.8738	329.5694	357.2671	473.148	560.993	666.9321	738.4029	744.0234	758.402	796.4597	876.5261	882.0527	892.9826	1010.651	1022.7351	1046.1371	1057.9381	1082.1205	1096.0757	1133.1301	1135.676	1145.297	1181.8147	1191.852	1201.6608	1218.6694	1236.7372	1253.277	1281.9275	1288.8906	1425.0748	1438.1178	1448.8906	1455.5184	1483.0312	1497.9054	1524.1875	1837.7848	2843.5247	2999.4021	3004.266	3013.8231	3063.9895	3082.3467	3090.1411	3091.7294	3101.257	3151.0846	3171.9774
CN1C2CC1C2CC=O	CN1[C@H]2C[C@@H]1[C@H]2CC=O	
InChI=1S/C7H11NO/c1-8-6-4-7(8)5(6)2-3-9/h3,5-7H,2,4H2,1H3	InChI=1S/C7H11NO/c1-8-6-4-7(8)5(6)2-3-9/h3,5-7H,2,4H2,1H3/t5-,6-,7+
