19
gdb 68278	2.32015	1.51143	1.42525	2.8893	75.94	-0.241	-0.0211	0.2199	1047.7608	0.157291	-422.981521	-422.972613	-422.971669	-423.014926	33.769	
C	-0.1142544882	 1.6455511383	 0.2887424469	-0.49743
C	-0.031285638	 0.1215030694	 0.1484470375	 0.235333
C	-1.4587985271	-0.377237433	 0.0479475703	 0.087432
O	-1.9297152373	-0.9813497635	-0.8832784098	-0.257613
C	 1.0368008734	-0.5641633611	-0.7684030999	-0.083171
C	 2.1340750736	-0.1485377049	 0.2560103064	-0.31099
C	 0.9300971649	-0.6898627745	 1.0927601151	 0.35143
O	 0.7631327385	-0.7109351348	 2.4636918948	-0.473774
C	 0.8594395797	-1.8677701802	 0.0710222106	-0.301492
H	 0.8510835541	 2.1133569707	 0.4827545375	 0.130914
H	-0.5291164139	 2.0927522419	-0.6210688254	 0.131064
H	-0.7767541759	 1.9127127461	 1.1193759224	 0.132038
H	-2.0935984877	-0.0936503274	 0.9202718552	 0.079948
H	 1.0946059139	-0.4983036393	-1.8511615649	 0.092141
H	 3.0305489401	-0.7746317632	 0.2610149423	 0.090703
H	 2.3955228172	 0.9050275895	 0.340471278	 0.098773
H	 1.4397113862	-1.2781951681	 2.8495549008	 0.287012
H	-0.0801172993	-2.4073277718	-0.0306624669	 0.122195
H	 1.7168868757	-2.545610514	 0.0702544893	 0.085487
84.6753	130.5424	146.5117	203.4767	221.2965	286.3073	348.4857	384.4421	413.6723	496.0641	567.5753	616.9646	661.6915	703.3756	793.289	819.0389	905.5282	926.1045	943.3654	950.5664	989.4841	1010.5995	1052.227	1060.3503	1111.8439	1124.44	1130.519	1174.8353	1197.8108	1201.5677	1217.2688	1270.0466	1293.0576	1360.4225	1407.1513	1427.6576	1487.572	1495.1656	1515.632	1551.2998	1819.3096	2855.3506	3038.7944	3064.4742	3072.4305	3094.9756	3134.4819	3151.5849	3159.7152	3162.9544	3806.9635
CC1(C=O)C2CC1(O)C2	C[C@@]1(C=O)[C@H]2C[C@]1(O)C2	
InChI=1S/C7H10O2/c1-6(4-8)5-2-7(6,9)3-5/h4-5,9H,2-3H2,1H3	InChI=1S/C7H10O2/c1-6(4-8)5-2-7(6,9)3-5/h4-5,9H,2-3H2,1H3/t5-,6-,7-/m1/s1
