17
gdb 42698	4.18414	1.6255	1.49894	3.232	74.9	-0.2315	-0.0036	0.2279	896.3556	0.13911	-384.659096	-384.653229	-384.652284	-384.689166	25.18	
O	-0.0717936276	-0.0126798891	-0.1195076393	-0.330907
C	-0.0176996658	 1.1730425664	 0.031165979	 0.439553
C	-1.0467890993	 2.3141410096	 0.064832878	-0.171542
C	-0.7888704046	 3.0352711264	 1.4008395175	-0.046875
C	-0.9568419766	 4.5458709531	 1.0966445399	-0.242885
C	 0.3028502273	 4.3555330867	 0.2398541705	-0.050174
C	 0.7832641829	 3.199851161	 1.1740521652	-0.041816
C	 1.0776666994	 2.2323074962	-0.0071913076	-0.189071
C	 0.028983563	 3.1698695028	-0.7381954667	-0.049117
H	-2.0741132485	 2.1758150921	-0.2656327533	 0.084724
H	-1.2020271788	 2.5800833518	 2.3003571417	 0.078623
H	-1.8841182662	 4.880465601	 0.6201890709	 0.095847
H	-0.7524063537	 5.1585975358	 1.9804890563	 0.10334
H	 0.9364363061	 5.1717741058	-0.1037670956	 0.072207
H	 1.4357982678	 3.3244393812	 2.0353343654	 0.077996
H	 2.098867691	 2.0489204753	-0.3313546051	 0.085187
H	-0.0587885663	 3.2468038038	-1.8186549669	 0.084911
142.0897	317.8903	401.8096	520.2884	560.5936	656.9481	709.4203	765.3826	781.5363	802.7104	824.3514	844.5281	870.987	895.4258	918.034	945.2817	952.9916	979.8409	1002.0262	1010.325	1051.81	1076.3977	1092.3643	1110.1985	1137.2911	1157.5205	1179.1013	1201.1769	1209.0136	1224.472	1231.7797	1258.2881	1275.16	1287.8402	1307.0367	1489.2769	1889.7937	3041.4827	3097.2804	3119.2032	3125.9437	3140.7179	3143.314	3152.3162	3160.8811
O=C1C2C3CC4C3C1C24	O=C1[C@H]2[C@@H]3C[C@H]4[C@@H]3[C@@H]1[C@@H]24	
InChI=1S/C8H8O/c9-8-6-3-1-2-4(3)7(8)5(2)6/h2-7H,1H2	InChI=1S/C8H8O/c9-8-6-3-1-2-4(3)7(8)5(2)6/h2-7H,1H2/t2-,3+,4-,5+,6-,7+/m0/s1
