16
gdb 34513	5.09015	1.20775	1.09944	1.6771	84.92	-0.2168	-0.0397	0.1772	1096.5281	0.125114	-363.498435	-363.491618	-363.490674	-363.529487	27.893	
C	 0.0837067552	-1.175158397	-0.0076440703	-0.399146
C	-0.0110420363	 0.0268206163	-0.0060527034	 0.175061
C	-0.0674350539	 1.4311383862	-0.0107561065	 0.236319
C	-1.1061972809	 2.2856101005	 0.0015111401	-0.225234
C	-0.4401596192	 3.6364673167	 0.015514554	-0.027146
C	 0.8079570941	 3.5940796472	-0.92510844	-0.061256
C	 1.5216967569	 4.4621962428	 0.115357614	-0.187881
N	 0.7531331441	 3.4927282137	 1.0189615646	-0.14287
C	 1.1278293004	 2.3790517093	-0.0042460903	-0.114461
H	 0.1517469251	-2.2346809751	-0.003385836	 0.191034
H	-2.164988792	 2.0754796577	 0.0273843546	 0.122187
H	-1.0343759752	 4.544196976	 0.1215129124	 0.078137
H	 0.8296775626	 3.6400405613	-2.0210606467	 0.06961
H	 2.6077320212	 4.3730585543	 0.2054915023	 0.102736
H	 1.2044047966	 5.5030566315	 0.2246996198	 0.101892
H	 2.135686781	 1.9732090385	 0.0804050215	 0.081019
128.9716	145.1758	375.6789	416.8387	447.1287	492.0117	569.8054	579.5391	604.4844	635.4337	713.0245	740.0843	779.5049	843.4696	860.3581	873.3462	911.2498	932.4634	982.8267	991.6976	1047.0304	1100.7417	1105.2996	1127.6799	1171.2392	1183.5624	1207.7874	1239.4003	1247.009	1258.3656	1301.7015	1319.4383	1527.8304	1642.624	2221.8369	3027.0581	3052.8428	3111.5237	3122.404	3128.6443	3249.1268	3502.5779
C#CC1=CC2C3CN2C13	C#CC1=C[C@@H]2[C@H]3CN2[C@@H]13	
InChI=1S/C8H7N/c1-2-5-3-7-6-4-9(7)8(5)6/h1,3,6-8H,4H2	InChI=1S/C8H7N/c1-2-5-3-7-6-4-9(7)8(5)6/h1,3,6-8H,4H2/t6-,7-,8+/m1/s1
