16
gdb 5527	3.25822	1.81233	1.25307	1.8383	67.69	-0.1965	0.0125	0.2089	970.5498	0.131599	-379.959584	-379.951609	-379.950665	-379.992449	28.693	
C	-0.3226565667	 1.5913554749	-0.0911392508	-0.368774
C	 0.0419075107	 0.0997199323	 0.0184755616	-0.30407
C	 0.834679813	-0.4176959208	-1.127047284	 0.292108
C	 2.1014006707	-0.8906543733	-1.2983068369	 0.165801
N	 3.1192547836	-1.1028674554	-0.3680055962	-0.599007
N	 2.2909349536	-1.249283867	-2.6268393987	-0.302187
C	 1.1573425128	-0.9807560418	-3.1905457763	 0.067592
O	 0.2236097348	-0.4736047224	-2.3712784386	-0.185055
H	 0.5763908286	 2.2135970568	-0.1390384908	 0.116044
H	-0.9077749295	 1.7796703164	-0.9957745553	 0.13111
H	-0.9164585019	 1.9112463636	 0.7706963439	 0.113146
H	 0.6209421871	-0.0797547582	 0.9315469375	 0.110383
H	-0.8791467143	-0.4888441322	 0.1257388594	 0.119422
H	 3.1835398295	-0.3836746292	 0.3393877843	 0.24545
H	 4.010046389	-1.2190110273	-0.8331643346	 0.253477
H	 0.8833905389	-1.1147450464	-4.2253503545	 0.144561
48.3561	131.911	189.615	193.8679	277.4798	296.3508	382.183	467.7694	621.2161	657.2412	693.2136	726.9417	780.1258	780.5562	826.2088	955.6846	968.3166	1014.2156	1060.1349	1084.1951	1158.8652	1199.938	1260.6629	1291.3792	1329.5559	1358.8483	1403.8827	1422.562	1474.2623	1495.5364	1506.7275	1556.1537	1639.3724	1699.829	3016.8086	3038.7594	3064.7104	3109.6863	3118.2027	3272.0135	3548.6248	3643.3771
CCC1=C(N)N=CO1	CCc1c(N)nco1	
InChI=1S/C5H8N2O/c1-2-4-5(6)7-3-8-4/h3H,2,6H2,1H3	InChI=1S/C5H8N2O/c1-2-4-5(6)7-3-8-4/h3H,2,6H2,1H3
