16
gdb 35291	4.20522	0.82486	0.73847	2.262	70.32	-0.2798	-0.007	0.2728	1476.5852	0.122956	-437.844922	-437.83636	-437.835416	-437.879531	30.136	
N	-0.3358182846	-0.9865523136	 0.6703299109	-0.326137
C	-0.1461559882	 0.1021108915	 0.3314749234	 0.30419
C	 0.0743459252	 1.4605317903	-0.1183370338	-0.106228
O	 0.7207823477	 2.3427817433	 0.7997832246	-0.232931
C	 1.4392506983	 1.9686716981	-0.3786413142	 0.081464
C	 2.6837189937	 1.1349114151	-0.1901531162	-0.285945
C	 3.8394578645	 1.9909152933	 0.2781110277	 0.098334
C	 5.2107445233	 1.7681174974	-0.1908274375	-0.176699
O	 4.4252399171	 2.8428057196	-0.7114386795	-0.237714
H	-0.7644579612	 1.8903095488	-0.6626327323	 0.142973
H	 1.5206083689	 2.7677094294	-1.1159213502	 0.127924
H	 2.4888406706	 0.3388266275	 0.5359455961	 0.136034
H	 2.9452174554	 0.6664133019	-1.1457064127	 0.121987
H	 3.6976376421	 2.4692163739	 1.2477604934	 0.112522
H	 6.0516930346	 2.0630868829	 0.4343978746	 0.122359
H	 5.4128105927	 0.9560749008	-0.8883656544	 0.117865
52.5566	67.9206	106.9162	159.1399	233.8552	319.3873	354.4203	433.3587	498.5487	581.5629	611.5759	785.7097	809.9989	822.0878	866.9247	943.1623	957.4832	968.9805	1031.9637	1089.5951	1102.8733	1140.654	1155.3863	1161.2366	1174.2929	1257.2119	1277.8551	1292.915	1315.9962	1378.3192	1444.4368	1452.4259	1460.1584	1531.7341	2360.4819	3045.7906	3085.9602	3092.9764	3114.1474	3120.73	3136.8548	3173.8609
N#CC1OC1CC1CO1	N#C[C@H]1O[C@H]1C[C@H]1CO1	
InChI=1S/C6H7NO2/c7-2-6-5(9-6)1-4-3-8-4/h4-6H,1,3H2	InChI=1S/C6H7NO2/c7-2-6-5(9-6)1-4-3-8-4/h4-6H,1,3H2/t4-,5-,6+/m0/s1
