15
gdb 57832	3.16486	1.07864	0.87907	2.2399	70.28	-0.2689	-0.1154	0.1535	1286.075	0.108033	-457.745579	-457.735788	-457.734844	-457.781052	34.134	
C	 0.1193230028	 1.4110566845	-0.244070346	-0.41353
C	 0.197032867	-0.111087784	-0.0158458031	 0.066189
O	 0.8452473906	-0.4053187416	 1.1947390029	-0.440939
C	-1.1933658382	-0.7261778205	-0.010934602	 0.26305
O	-1.6691458096	-1.2065135569	 0.9922233614	-0.304095
C	-1.9835399315	-0.744405037	-1.3352724395	 0.128174
O	-1.4658340692	-0.3880957484	-2.3715458141	-0.270522
C	-3.3396719047	-1.2289488436	-1.2459791844	 0.306879
C	-4.4760805119	-1.6208173899	-1.1869208747	-0.376626
H	 1.1296974435	 1.8191374125	-0.1680744937	 0.140803
H	-0.2855028831	 1.6444906932	-1.2309801569	 0.141559
H	-0.4977275559	 1.882658066	 0.5269198651	 0.124959
H	 0.7539246634	-0.5577750936	-0.8520588061	 0.114531
H	 0.1740344037	-0.7878841433	 1.7792209875	 0.293081
H	-5.4798989869	-1.9683489176	-1.1342971562	 0.226488
37.0868	72.4808	121.8107	188.0823	216.0841	233.6391	260.6572	346.848	361.9179	370.7482	435.1686	500.8802	531.4146	656.5254	670.5821	725.6024	761.6625	814.4272	908.8999	948.2474	1042.3315	1085.1363	1164.2676	1221.5275	1292.3078	1336.3455	1392.1354	1428.6076	1494.9075	1495.9446	1755.1088	1793.9817	2215.6058	3011.6537	3048.7787	3126.3098	3144.4511	3491.1465	3717.4751
CC(O)C(=O)C(=O)C#C	C[C@@H](O)C(=O)C(=O)C#C	
InChI=1S/C6H6O3/c1-3-5(8)6(9)4(2)7/h1,4,7H,2H3	InChI=1S/C6H6O3/c1-3-5(8)6(9)4(2)7/h1,4,7H,2H3/t4-/m1/s1
