17
gdb 51068	3.75576	1.08156	1.03763	2.8076	72.41	-0.2393	-0.027	0.2123	1188.9547	0.134996	-421.761416	-421.753669	-421.752725	-421.794853	28.824	
O	-0.2175608365	-0.0489950011	 0.1172522348	-0.235953
C	-0.0126303691	 1.1352163711	 0.0709925443	 0.166371
C	 1.3497879585	 1.763924868	-0.1725618868	-0.436672
C	 1.3107667527	 2.7954159652	-1.2566095386	 0.289038
C	 2.2392295541	 3.9440138423	-1.6603143371	-0.180853
C	 2.3005222258	 3.4551331609	-3.1066189473	-0.229323
C	 0.9383428319	 2.7845611896	-2.7996310434	 0.019342
O	 0.0336106101	 3.909201102	-2.6097530843	-0.290189
C	 0.7377439587	 4.1677292551	-1.3987010243	 0.041788
H	-0.8363348008	 1.8724208398	 0.2073711857	 0.085184
H	 1.6579638065	 2.2511664462	 0.7645539206	 0.128275
H	 2.0688095335	 0.9648070088	-0.3814758433	 0.127065
H	 3.0102123232	 4.4149723901	-1.0632788499	 0.094495
H	 2.3054332858	 4.1882923402	-3.9186768929	 0.105933
H	 3.0942841749	 2.7170461138	-3.2461998688	 0.10775
H	 0.5129759998	 1.9797768983	-3.3954568404	 0.096809
H	 0.3277239509	 4.8719096896	-0.6863894983	 0.110941
52.1694	67.6348	138.0464	255.723	325.3603	437.5592	473.5559	552.9424	627.721	748.8387	770.7995	808.1769	824.6491	878.7875	911.0603	930.4975	940.6584	970.7467	996.3628	1027.8641	1038.0909	1066.9565	1090.3883	1122.6615	1132.9452	1163.5074	1218.8804	1222.1948	1240.3675	1275.703	1299.6243	1317.5731	1422.1345	1445.5228	1448.6769	1487.3332	1837.3919	2877.7831	3008.6397	3053.7837	3079.472	3116.209	3147.6925	3195.2552	3208.3558
O=CCC12C3CC1OC23	O=CC[C@@]12[C@H]3C[C@@H]1O[C@@H]23	
InChI=1S/C7H8O2/c8-2-1-7-4-3-5(7)9-6(4)7/h2,4-6H,1,3H2	InChI=1S/C7H8O2/c8-2-1-7-4-3-5(7)9-6(4)7/h2,4-6H,1,3H2/t4-,5-,6+,7+/m0/s1
