15
gdb 125413	3.23339	1.16882	0.86433	2.0331	71.04	-0.2613	-0.0204	0.2408	1270.454	0.112028	-453.937402	-453.928922	-453.927978	-453.971883	29.332	
C	 0.0007674636	 1.5012409125	 0.1148106996	-0.505093
C	-0.0369577216	 0.0104372785	 0.0338826823	 0.012865
C	-0.0553887492	-0.8211719975	-1.0381010156	 0.021114
O	-0.0866717551	-2.1112937705	-0.6616254593	-0.179768
N	-0.0961920869	-2.1737120059	 0.7293724581	-0.244857
C	-0.0604221724	-0.9218507355	 1.1147230875	 0.455416
O	-0.0594262061	-0.5280827674	 2.4076212876	-0.222977
C	 0.1206800999	-1.4734861725	 3.3863539297	 0.110224
N	 0.0079252054	-1.10540102	 4.5823903905	-0.423552
H	 0.8834747842	 1.8460446303	 0.662982871	 0.146683
H	 0.0244749975	 1.9463076394	-0.8827511316	 0.131365
H	-0.8758628687	 1.8920792601	 0.6414230733	 0.148652
H	-0.0486197242	-0.6451571663	-2.1030273367	 0.156702
H	 0.3585737774	-2.4622504898	 2.9912356555	 0.15157
H	 0.1848431761	-1.8918701554	 5.2047856183	 0.241656
47.2238	84.6455	102.6408	150.506	246.4403	267.4953	361.9607	471.9914	513.2809	595.1087	659.951	731.4726	824.0114	840.3233	845.3113	928.611	981.421	1019.4982	1033.2851	1055.4692	1070.5018	1154.9426	1235.9734	1266.8419	1307.1533	1403.9091	1424.7145	1440.1282	1480.053	1500.1724	1535.0159	1674.2564	1750.305	3041.7846	3096.9199	3124.1301	3127.1528	3262.5133	3517.6038
CC1=CON=C1OC=N	Cc1conc1O[CH][NH]	
InChI=1S/C5H6N2O2/c1-4-2-9-7-5(4)8-3-6/h2-3,6H,1H3	InChI=1S/C5H6N2O2/c1-4-2-9-7-5(4)8-3-6/h2-3,6H,1H3
