21
gdb 39072	2.22939	2.06492	1.47276	0.1668	87.18	-0.2315	0.0256	0.2571	997.851	0.186733	-349.978863	-349.9717	-349.970756	-350.01001	30.1	
C	 0.059962578	 1.4772730238	 0.2330742151	-0.23609
C	 1.5374213597	 1.8368013358	-0.048475519	-0.041748
C	 2.4270142184	 1.7244819365	 1.2051414905	-0.260825
C	 2.3570514384	 0.4557676504	 2.0200522022	-0.040013
C	 1.5071685317	-0.5753578599	 2.0234520483	-0.040025
C	 0.2725314974	-0.8894927496	 1.2137440758	-0.260811
C	-0.0115982498	-0.0427379923	-0.0423430965	-0.041755
C	 1.0677001816	-0.2195314947	-1.0931487884	-0.06722
C	 1.9136185292	 0.8072502884	-1.0967098578	-0.067259
H	-0.2600401364	 1.7443176097	 1.2449107582	 0.092383
H	-0.586060547	 2.0073672012	-0.473931305	 0.0947
H	 1.6354766852	 2.8605699977	-0.4285131411	 0.064174
H	 3.4753502797	 1.8807559902	 0.9126794994	 0.099809
H	 2.1956822663	 2.5668750288	 1.8760556184	 0.104975
H	 3.1509815324	 0.406483626	 2.7656919476	 0.078692
H	 1.7095615823	-1.3423522894	 2.7714443065	 0.078692
H	 0.3183772907	-1.9495328101	 0.9253464777	 0.099802
H	-0.5963933596	-0.8205758789	 1.8871531307	 0.104966
H	-0.9989774467	-0.3360674694	-0.4181096289	 0.064183
H	 1.1516743345	-1.1150460969	-1.6997396374	 0.086689
H	 2.8066364242	 0.8936633627	-1.7066292561	 0.086684
132.9257	214.844	294.2978	336.3739	348.2867	409.7308	512.2044	540.2795	666.5466	715.5171	757.4553	773.0041	811.7181	838.0733	851.5816	870.0019	907.891	910.1056	962.0925	977.9801	989.1415	1020.2326	1039.7187	1047.418	1086.19	1093.2123	1136.1133	1191.3925	1204.7665	1221.5087	1249.5644	1268.0283	1312.2417	1334.2687	1335.2611	1348.4665	1361.3836	1395.3284	1402.0441	1437.3648	1465.9738	1470.0509	1493.2331	1684.8662	1733.7444	2984.1899	2984.2121	3014.8355	3016.379	3027.9918	3030.365	3051.6802	3091.8825	3105.0468	3131.2095	3174.7689	3201.1912
C1C2CC=CCC1C=C2	C1[C@H]2CC=CC[C@@H]1C=C2	
InChI=1S/C9H12/c1-2-4-9-6-5-8(3-1)7-9/h1-2,5-6,8-9H,3-4,7H2	InChI=1S/C9H12/c1-2-4-9-6-5-8(3-1)7-9/h1-2,5-6,8-9H,3-4,7H2/t8-,9+
