18
gdb 56048	4.14305	0.91668	0.86667	1.9171	76.07	-0.2348	-0.0039	0.2308	1408.3667	0.145577	-439.097966	-439.088594	-439.087649	-439.133461	32.616	
C	-0.0055699041	 1.3809269616	-0.0862349483	-0.473853
C	-0.068096341	-0.1132741365	 0.1773128396	 0.390995
O	 0.8945303713	-0.7527008723	 0.5218864529	-0.284237
C	-1.4518457296	-0.7530103429	-0.0138331278	-0.292763
N	-1.3978499165	-2.1932258452	-0.1278687559	-0.31837
C	-1.2812148674	-2.858840409	 0.9255429345	 0.49007
C	-1.139081827	-4.3267823106	 1.2599162215	-0.376502
C	-1.1241291368	-3.8177296164	 2.7162767337	-0.076592
O	-1.2697390542	-2.4431337569	 2.2446513178	-0.26179
H	 0.9338132811	 1.7857334466	 0.2919727589	 0.143327
H	-0.0648795959	 1.5627713545	-1.1659548254	 0.145468
H	-0.8529374534	 1.9011306834	 0.3727487705	 0.133991
H	-2.0619152789	-0.4083149148	 0.8380192649	 0.130125
H	-1.9101304319	-0.3321324555	-0.9162701119	 0.115886
H	-1.9888823378	-4.9491547818	 0.975195727	 0.137439
H	-0.2145130174	-4.7835628488	 0.9041673409	 0.145955
H	-1.9713565759	-4.108009433	 3.3422543941	 0.121864
H	-0.1864709543	-3.9422202523	 3.2622952429	 0.128987
52.1721	61.4375	105.3921	115.3612	156.3721	212.0207	301.0055	351.524	466.9401	514.4498	551.5813	651.9675	733.847	791.1021	806.8721	872.3222	908.2417	961.3661	964.0979	1006.3678	1057.8144	1076.5874	1110.4645	1142.7514	1158.7654	1181.4456	1200.3	1238.062	1267.1386	1347.8361	1352.9292	1381.3312	1461.8466	1465.8101	1467.7305	1477.2832	1520.2532	1823.4002	1841.4338	2974.4968	3035.9908	3056.2247	3066.6194	3090.717	3097.8471	3121.5813	3147.6193	3152.266
CC(=O)CN=C1CCO1	CC(=O)CN=C1CCO1	
InChI=1S/C6H9NO2/c1-5(8)4-7-6-2-3-9-6/h2-4H2,1H3	InChI=1S/C6H9NO2/c1-5(8)4-7-6-2-3-9-6/h2-4H2,1H3
