15
gdb 30553	3.38607	1.0806	0.82584	4.6826	75.32	-0.1962	-0.0056	0.1905	1309.7686	0.113348	-453.966627	-453.958398	-453.957454	-453.999701	30.854	
N	-0.1113849389	 1.4285703252	 0.1483082466	-0.497621
C	-0.0236433751	 0.0878182931	-0.0888593401	 0.097093
N	 0.9962642423	-0.6028744273	 0.2521488482	-0.36722
H	 3.2704932744	-1.1923144334	 0.0047794256	 0.295728
C	 0.9761763388	-1.987289191	 0.1167931757	 0.153929
C	-0.0090169498	-2.9352224275	 0.1594840312	-0.0793
O	 0.5210396208	-4.1743304822	 0.0015965961	-0.154822
C	 1.8783176536	-4.0327911239	-0.1408963934	-0.106142
C	 2.2038034793	-2.7169422468	-0.0668215032	 0.214643
O	 3.4231467792	-2.1353632706	-0.151596815	-0.447122
H	 0.7360995595	 1.8882923504	 0.4467864608	 0.262117
H	-0.7351685455	 1.9753536957	-0.421610059	 0.262798
H	-0.916882979	-0.3425534836	-0.5571992412	 0.10782
H	-1.0705741932	-2.8937017734	 0.3375980228	 0.124839
H	 2.4444277936	-4.9365603547	-0.2780600051	 0.133261
84.4842	116.3919	161.9115	283.6808	293.3987	387.647	418.9761	439.9107	464.8678	553.8401	583.5303	597.7016	657.5998	677.1491	727.6412	742.997	796.0367	901.3384	1002.3427	1059.3605	1081.9069	1172.3014	1222.1983	1246.3619	1274.1278	1312.0576	1331.3497	1406.3538	1456.7449	1583.6647	1629.2149	1693.2255	1740.8158	3053.9323	3272.1553	3295.7193	3582.0718	3708.4746	3740.5768
NC=[NH+]C1=COC=C1[O-]	NC=Nc1cocc1O	
InChI=1S/C5H6N2O2/c6-3-7-4-1-9-2-5(4)8/h1-3,8H,(H2,6,7)	InChI=1S/C5H6N2O2/c6-3-7-4-1-9-2-5(4)8/h1-3,8H,(H2,6,7)
