17
gdb 19929	3.7825	2.29398	1.87579	1.3654	65.9	-0.2301	0.0609	0.291	757.0972	0.145142	-363.816218	-363.81009	-363.809146	-363.846525	24.448	
C	-0.0040356632	 1.4889971297	 0.216542733	-0.241687
C	 1.2534274518	 0.7218605872	 0.0348697407	-0.041355
C	 1.9959351439	 0.3344710972	 1.3018977869	 0.106994
O	 1.9272304808	 1.2893909763	 2.3933646746	-0.290081
C	 1.1365775108	 0.3875961098	 3.1959469524	-0.087695
C	 1.0754216999	-0.6570584822	 2.0625401969	-0.077174
C	-0.2055678028	-0.7821863218	 1.2101110403	-0.187626
N	-0.0652015304	 0.0441589628	-0.0108702164	-0.095399
H	-0.1978837678	 1.8840838651	 1.2102319603	 0.12503
H	-0.3934172039	 2.0938754367	-0.5976291078	 0.115031
H	 1.8066050127	 0.768427927	-0.8984037365	 0.08941
H	 3.0311754373	 0.039186585	 1.1047289941	 0.077777
H	 1.6822620227	 0.0652044044	 4.0911754071	 0.103446
H	 0.1797832804	 0.8302760495	 3.5023076323	 0.099351
H	 1.4983500815	-1.6298351048	 2.3157885873	 0.085075
H	-0.345567529	-1.8179907669	 0.8859321566	 0.111296
H	-1.1058055649	-0.4890026148	 1.7619863381	 0.107606
93.6708	225.8275	341.7459	386.4346	509.9905	658.8943	667.0574	739.6936	783.501	832.3774	860.6302	895.4592	917.0223	943.0462	960.1934	1004.4862	1021.6062	1053.5768	1076.3778	1100.4028	1115.3931	1119.9016	1163.0928	1169.5273	1207.0241	1238.1502	1256.4538	1279.1221	1323.5882	1335.2408	1338.8386	1364.8317	1387.9175	1497.8077	1517.067	1526.6069	3008.5511	3039.3744	3051.801	3057.7072	3077.1097	3105.5747	3109.5829	3152.2969	3195.2273
C1C2C3OCC3CN12	C1[C@H]2[C@H]3OC[C@H]3CN12	
InChI=1S/C6H9NO/c1-4-3-8-6(4)5-2-7(1)5/h4-6H,1-3H2	InChI=1S/C6H9NO/c1-4-3-8-6(4)5-2-7(1)5/h4-6H,1-3H2/t4-,5+,6+,7?/m1/s1
