13
gdb 48016	4.14582	0.73039	0.66158	3.0535	71.27	-0.2784	-0.0764	0.202	1587.2701	0.087621	-456.555497	-456.547036	-456.546092	-456.590705	28.112	
O	-0.3744149773	 0.28126469	-0.5878854781	-0.222042
C	-0.0027199309	 1.0771146818	 0.2426112332	 0.023961
C	 1.2129967791	 1.8470897887	 0.1384727688	 0.021462
C	 2.2254115143	 2.5025074975	 0.0769628419	 0.139778
C	 3.4256516808	 3.2923296024	-0.0256013592	-0.382253
C	 4.1106421894	 3.4637987557	-1.4036755156	-0.08339
O	 3.9370217889	 4.9133991818	-1.3195485985	-0.2257
C	 3.2645474202	 4.8395054637	-0.1339423262	 0.465002
O	 2.7818383538	 5.7108543662	 0.5039786821	-0.29889
H	-0.5856586348	 1.2740169102	 1.1641566507	 0.110117
H	 4.1288905066	 3.0429939979	 0.7756403007	 0.159361
H	 5.1678733402	 3.2007293779	-1.4516615421	 0.141101
H	 3.5590329397	 3.0541360261	-2.2500342679	 0.151493
34.5683	71.934	91.0608	157.2862	198.6421	266.7604	409.6247	435.5499	498.5019	594.8055	705.7498	739.3332	816.3942	901.8739	951.571	972.5604	1019.9815	1062.9227	1103.9145	1156.5788	1168.6692	1186.5924	1323.309	1351.8013	1420.4491	1514.4747	1768.9429	1955.6036	2330.3607	2932.3285	3069.1914	3090.1007	3159.5245
O=CC#CC1COC1=O	O=CC#C[C@H]1COC1=O	
InChI=1S/C6H4O3/c7-3-1-2-5-4-9-6(5)8/h3,5H,4H2	InChI=1S/C6H4O3/c7-3-1-2-5-4-9-6(5)8/h3,5H,4H2/t5-/m0/s1
