21
gdb 63238	2.19697	1.64458	1.24438	2.5486	84.16	-0.2342	-0.0113	0.2229	1126.0458	0.182184	-387.13479	-387.12564	-387.124695	-387.168441	35.137	
C	-0.1041120997	 1.5142937833	 0.0776738915	-0.413789
C	 0.0012236198	-0.0315924601	-0.0015837633	 0.11642
C	-1.416944316	-0.6330130068	-0.0370650105	-0.411798
C	 0.7614359954	-0.4329977886	-1.2488388669	-0.055678
C	 1.9311533954	-1.0686131163	-1.2707494803	-0.089196
C	 2.6953080691	-1.4384349061	-0.0282039352	-0.265444
C	 2.2475253063	-0.5885520596	 1.174928335	-0.31097
C	 0.732840206	-0.5075976596	 1.2670626615	 0.377272
O	 0.1353714175	-0.7766305773	 2.2838907938	-0.3263
H	 0.8813933643	 1.9853902516	 0.137872127	 0.118052
H	-0.6030404465	 1.900281649	-0.8175010007	 0.118666
H	-0.6886522541	 1.8137976886	 0.9528158351	 0.131205
H	-1.9729171699	-0.243446252	-0.8960621983	 0.105175
H	-1.3799408337	-1.7229078966	-0.121020712	 0.11874
H	-1.9574670322	-0.3832863823	 0.8780796741	 0.135741
H	 0.2638089436	-0.1895970003	-2.1865324463	 0.086404
H	 2.372033288	-1.346145922	-2.2250432979	 0.091101
H	 2.5564400955	-2.5062514189	 0.1937245896	 0.123304
H	 3.7715614073	-1.3100783772	-0.1916043072	 0.111062
H	 2.6326380844	-0.9717545581	 2.1222561568	 0.117673
H	 2.6291705594	 0.4320343492	 1.0390380543	 0.12236
55.2061	137.7461	201.6787	230.649	249.466	264.2608	310.1215	330.0915	424.5444	458.8194	508.7488	524.9455	634.278	666.158	730.7453	784.5686	836.878	885.1521	925.1365	944.7231	970.321	1000.4126	1008.1263	1029.6427	1046.665	1115.9684	1154.7321	1169.6127	1187.96	1228.153	1258.6287	1304.1855	1322.0111	1368.9877	1389.4542	1399.997	1426.471	1463.4454	1480.887	1484.2056	1485.9914	1498.6201	1508.7975	1724.6461	1808.3729	3008.6523	3027.254	3032.4839	3041.2221	3053.9505	3103.1862	3109.1607	3111.6801	3114.0502	3130.731	3134.6592	3162.3064
CC1(C)C=CCCC1=O	CC1(C)C=CCCC1=O	
InChI=1S/C8H12O/c1-8(2)6-4-3-5-7(8)9/h4,6H,3,5H2,1-2H3	InChI=1S/C8H12O/c1-8(2)6-4-3-5-7(8)9/h4,6H,3,5H2,1-2H3
