20
gdb 122710	8.29565	0.42909	0.42489	4.358	82.93	-0.2404	-0.02	0.2203	2563.7213	0.167025	-440.290576	-440.279635	-440.278691	-440.329281	36.261	
C	-0.0343990591	 1.548600438	-0.0285620602	-0.386619
C	 0.065747837	 0.0212580109	-0.0115686531	-0.183997
C	 0.7069088719	-0.5235748367	-1.2777068973	-0.058598
O	 0.7626454714	-1.9512869824	-1.1682669885	-0.202844
C	 1.2589078231	-2.6070102278	-2.2271176957	 0.135484
N	 1.3749815665	-3.8621211114	-2.2107736656	-0.227332
C	 1.9207560736	-4.4944440708	-3.3890545542	-0.237125
C	 3.1164445942	-5.3669633756	-3.0254100827	 0.156439
O	 3.994395056	-5.6563384597	-3.7948638204	-0.238358
H	 0.9537282586	 2.013993308	-0.1127732039	 0.120695
H	-0.6410027262	 1.9013731039	-0.8698333182	 0.120038
H	-0.4968821744	 1.9175070195	 0.8907711267	 0.125582
H	 0.6553202434	-0.3136579505	 0.8489065577	 0.118376
H	-0.9283444315	-0.4264428034	 0.0962475724	 0.117263
H	 0.1198468174	-0.2421075133	-2.1631000973	 0.108441
H	 1.7222674544	-0.1223673321	-1.4028539547	 0.110026
H	 1.5369988918	-1.9655278756	-3.0783154042	 0.081011
H	 1.1672029488	-5.1780270543	-3.8119927364	 0.136356
H	 2.2214632618	-3.8064266151	-4.1951669678	 0.11059
H	 3.1014131913	-5.7319918917	-1.9752549265	 0.094575
27.6493	35.6392	63.8106	104.4511	113.2419	153.2275	205.6899	235.0508	286.8103	312.1804	374.5234	470.5854	492.7504	657.2293	744.2945	764.5166	898.9286	914.7002	991.9066	1027.2068	1040.9399	1059.1754	1084.3983	1116.2692	1153.1008	1187.8908	1228.7177	1262.0913	1270.7277	1322.7301	1325.344	1337.2136	1398.6265	1408.7562	1417.0074	1440.6866	1459.3311	1491.9375	1501.8406	1506.0664	1521.4996	1772.0844	1838.3588	2902.5444	2971.7804	2988.2743	3003.0962	3012.5894	3034.6897	3037.3527	3046.2214	3079.9967	3105.1292	3114.7928
CCCOC=NCC=O	CCCOC=NCC=O	
InChI=1S/C6H11NO2/c1-2-5-9-6-7-3-4-8/h4,6H,2-3,5H2,1H3	InChI=1S/C6H11NO2/c1-2-5-9-6-7-3-4-8/h4,6H,2-3,5H2,1H3
