15
gdb 29544	3.34691	1.76151	1.16246	4.6969	72.3	-0.2167	0.0089	0.2255	994.6697	0.1152	-416.851277	-416.844383	-416.843438	-416.882478	26.692	
C	-0.0196683622	 1.5257139676	 0.0459975231	-0.494126
C	-0.0100334466	 0.0408455345	-0.0098774198	 0.259539
C	-0.031917988	-0.8148464585	-1.055948128	-0.142195
O	-0.0105179381	-2.1348575793	-0.6424909296	-0.218779
C	 0.0258406783	-2.0831705953	 0.7062821023	 0.490996
N	 0.0585730334	-2.9693633208	 1.6589609306	-0.39565
C	 0.0835236796	-2.1745135249	 2.7959260206	-0.084784
C	 0.0652356031	-0.8288345872	 2.5073141847	-0.172494
N	 0.0271376402	-0.7818574863	 1.1210305975	-0.081101
H	 0.8765968822	 1.9115160281	 0.5452197262	 0.146103
H	-0.0530353631	 1.941777276	-0.9631640142	 0.144771
H	-0.8903411553	 1.8979177782	 0.5980128185	 0.146065
H	-0.0622452909	-0.6508700357	-2.1185860136	 0.156979
H	 0.1137399483	-2.6258050631	 3.7761239062	 0.113425
H	 0.075297189	 0.0523675469	 3.1239218054	 0.131251
161.8763	178.7387	239.8945	242.4388	378.941	544.8529	588.0634	613.0652	616.178	673.8527	717.4379	723.3019	755.7578	791.2812	845.9137	951.059	1012.3115	1059.7215	1068.4891	1118.0507	1127.6644	1177.1384	1223.2951	1269.5857	1320.4348	1420.7433	1423.5082	1450.9343	1474.29	1494.6769	1506.3443	1624.4179	1679.529	3030.9074	3082.1975	3130.7917	3251.7367	3294.8891	3302.7003
CC1=COC2=NC=CN12	Cc1coc2nccn12	
InChI=1S/C6H6N2O/c1-5-4-9-6-7-2-3-8(5)6/h2-4H,1H3	InChI=1S/C6H6N2O/c1-5-4-9-6-7-2-3-8(5)6/h2-4H,1H3
