18
gdb 15946	3.53042	1.82043	1.48891	2.4422	67.01	-0.2439	0.0605	0.3045	899.8791	0.154274	-384.902202	-384.894619	-384.893675	-384.934355	28.613	
O	 0.0463199508	 1.4087709318	-0.0732646108	-0.420137
C	 0.0808136989	 0.0102054824	 0.1517119574	-0.148103
C	-1.3124280089	-0.5630216282	 0.0661169307	 0.445249
C	-2.3462621709	-0.3529247636	 1.1962603224	-0.26537
C	-2.7944389834	-1.8417977072	 1.0401934848	-0.226609
C	-1.7230484593	-2.0617227525	-0.0643345219	-0.150758
C	-2.1762637649	-1.669689043	-1.4773226264	-0.08062
O	-1.8894765769	-0.2687387354	-1.2395761883	-0.343974
H	-0.434035993	 1.5283075561	-0.9021273543	 0.295177
H	 0.7324208051	-0.5003448099	-0.5764768193	 0.083826
H	 0.5053610334	-0.1447758758	 1.1494076731	 0.104414
H	-1.8927216136	-0.1329676144	 2.1663939569	 0.104704
H	-3.0949250821	 0.409130505	 0.9735865977	 0.112663
H	-2.6239820141	-2.4438483582	 1.9351552989	 0.105934
H	-3.8264170968	-1.9992079173	 0.7150371962	 0.103
H	-1.0372568896	-2.902052162	 0.040017331	 0.076716
H	-1.5533503975	-2.0710793255	-2.2869776475	 0.102101
H	-3.2322615971	-1.8388031522	-1.7226979507	 0.101786
75.6806	105.3928	171.8164	294.6648	342.7848	392.5344	423.8608	463.7612	665.7575	690.136	740.1063	828.7644	882.7238	907.3661	915.9841	944.5157	986.2435	998.2178	1036.2979	1056.8388	1092.8163	1123.6275	1137.3014	1150.8174	1186.367	1220.1307	1229.8761	1247.1993	1273.5814	1306.3663	1327.8162	1350.3619	1376.9531	1435.9027	1463.6745	1487.065	1499.0022	1523.0063	2969.2871	3008.0387	3051.9803	3060.1744	3066.0308	3072.5768	3105.1349	3116.512	3131.1318	3782.2075
OCC12CCC1CO2	OC[C@]12CC[C@H]1CO2	
InChI=1S/C6H10O2/c7-4-6-2-1-5(6)3-8-6/h5,7H,1-4H2	InChI=1S/C6H10O2/c7-4-6-2-1-5(6)3-8-6/h5,7H,1-4H2/t5-,6+/m0/s1
