21
gdb 103308	2.45403	1.42065	1.37639	1.6927	78.57	-0.2491	0.0828	0.3319	1106.2653	0.180792	-424.167306	-424.157891	-424.156946	-424.201466	35.849	
C	-0.3085415161	 1.0443408228	 0.2425055011	-0.250506
O	-0.3497800014	-0.263702442	-0.2858824899	-0.306511
C	 0.6029473468	-0.5532554162	-1.2991581559	 0.391344
C	 0.1316869834	 0.0588574967	-2.6133019582	-0.476914
C	 2.1174909192	-0.5484500138	-0.8847820313	-0.129067
C	 1.7987718644	-1.7142941926	 0.0992925076	-0.29938
C	 1.058374267	-2.0511618939	-1.2404191753	 0.362066
O	 0.308181287	-3.1650089995	-1.5588916165	-0.475402
C	 2.3581256199	-1.6463921061	-1.9687382998	-0.28262
H	 0.6684278543	 1.2734470034	 0.6921793907	 0.108578
H	-0.5313521875	 1.8130478292	-0.5107241382	 0.108369
H	-1.0728768041	 1.096356206	 1.0222377079	 0.124996
H	 0.0481176934	 1.1469113193	-2.5304793895	 0.116673
H	 0.7928078302	-0.1510692232	-3.4538767066	 0.124071
H	-0.8612241731	-0.3330759649	-2.8542586146	 0.127382
H	 2.7494552205	 0.3157251139	-0.6927386965	 0.077038
H	 2.6398598108	-2.3651290499	 0.3476036516	 0.089762
H	 1.1814036088	-1.4852290132	 0.9651489234	 0.105111
H	-0.470266303	-3.1660717512	-0.9900017181	 0.289158
H	 2.2984548686	-1.3649599809	-3.0190332329	 0.096634
H	 3.2174339008	-2.2943412437	-1.7848516891	 0.099219
49.719	128.7909	149.616	174.236	214.0337	303.7132	322.2995	356.7473	386.3223	432.5329	519.5816	566.3655	578.1249	679.0948	685.8406	771.0375	818.057	909.2912	926.5082	948.7022	960.3964	999.2691	1036.7524	1057.3691	1098.5237	1112.0602	1126.7498	1147.9255	1168.726	1178.2539	1185.5527	1199.7382	1210.9382	1235.0735	1258.477	1317.9376	1380.999	1411.3204	1475.769	1482.1416	1484.7809	1496.911	1504.2322	1510.9428	1547.6983	2988.68	3037.5688	3050.1075	3076.3016	3082.4294	3105.647	3109.2336	3138.1115	3141.4976	3155.4113	3164.4869	3800.0641
COC1(C)C2CC1(O)C2	CO[C@@]1(C)[C@H]2C[C@]1(O)C2	
InChI=1S/C7H12O2/c1-6(9-2)5-3-7(6,8)4-5/h5,8H,3-4H2,1-2H3	InChI=1S/C7H12O2/c1-6(9-2)5-3-7(6,8)4-5/h5,8H,3-4H2,1-2H3/t5-,6-,7-/m0/s1
