16
gdb 68502	2.84528	1.36595	1.14038	3.326	71.91	-0.2513	-0.0166	0.2347	1089.7604	0.122325	-437.850485	-437.842165	-437.841221	-437.883569	30.413	
C	 0.0049415121	 1.5067681294	 0.0946954567	-0.524085
C	-0.0749666715	 0.0134594344	 0.0712537677	 0.157445
C	 0.6769727807	-1.0377718572	-0.8249201686	-0.267983
C	-0.1096664149	-1.9067293433	 0.2126974676	-0.15639
N	 0.2456368451	-0.8887941483	 1.2639296014	-0.108197
C	 1.4191685318	-0.9038711579	 1.9817458098	 0.130698
O	 2.0211712751	-1.9025594947	 2.3049429529	-0.30877
C	-1.2930263414	-0.9481446837	-0.0890996726	 0.461832
O	-2.4463520262	-0.9391945373	-0.360273996	-0.303185
H	 1.0332220544	 1.8573104165	 0.2250161791	 0.13813
H	-0.373100779	 1.908061569	-0.8503950851	 0.148604
H	-0.608057293	 1.9112652389	 0.9051817257	 0.150944
H	 0.3926564962	-1.1086291676	-1.8782652366	 0.124667
H	 1.7576208841	-1.0557979388	-0.6769593814	 0.138205
H	-0.0606426118	-2.973833015	 0.4007117915	 0.134543
H	 1.7043743282	 0.1128686357	 2.317125858	 0.083541
91.6437	148.2155	163.9808	192.5027	207.2156	270.2455	332.0644	458.615	528.4256	622.8083	650.1146	696.4422	745.5914	801.9481	818.3045	869.1067	894.6558	995.7507	1013.0945	1017.8708	1032.1613	1094.7658	1143.3246	1181.2502	1191.3326	1199.8403	1325.1182	1354.4031	1413.6422	1420.8477	1480.3443	1488.7958	1492.3172	1785.3543	1947.0594	2938.518	3043.6538	3063.5069	3114.3037	3121.1169	3149.598	3194.7658
CC12CC(N1C=O)C2=O	C[C@@]12C[C@@H](N1C=O)C2=O	
InChI=1S/C6H7NO2/c1-6-2-4(5(6)9)7(6)3-8/h3-4H,2H2,1H3	InChI=1S/C6H7NO2/c1-6-2-4(5(6)9)7(6)3-8/h3-4H,2H2,1H3/t4-,6+/m1/s1
