21
gdb 54184	2.46441	1.43563	1.28307	2.6124	81.8	-0.2316	-0.0076	0.2241	1129.3725	0.180761	-387.0843	-387.074977	-387.074033	-387.118388	35.318	
C	 0.3522142039	 1.4091479624	 0.0838509053	-0.482261
C	-0.165198723	-0.0213970694	 0.0536755084	 0.335345
O	-0.6773629196	-0.5280360498	 1.0258589018	-0.310504
C	-0.0278235078	-0.7918748047	-1.2581885949	 0.227276
C	-1.1829781908	-0.3863133936	-2.1846297765	-0.4581
C	 1.3629586528	-0.7645395814	-2.0015183606	-0.305826
C	 1.4183680401	-2.2923177106	-1.8949547606	-0.036793
C	 1.374550219	-2.7081368263	-0.4519743852	-0.288478
C	 0.0938545008	-2.3179617498	-1.1274980485	-0.057532
H	 1.4390339354	 1.3941485003	 0.228890581	 0.145342
H	 0.1639774056	 1.9381688982	-0.8548576358	 0.129794
H	-0.1002648967	 1.945520259	 0.9192478032	 0.141364
H	-1.1498566768	 0.6787997619	-2.4367901669	 0.117095
H	-1.1289011512	-0.9558464904	-3.1180239216	 0.123508
H	-2.1486256052	-0.5970606832	-1.7131409659	 0.132164
H	 1.2707765158	-0.3904726354	-3.0240265203	 0.102591
H	 2.1815343769	-0.229186721	-1.5087597332	 0.093792
H	 1.7653270884	-2.9575735173	-2.6757491588	 0.086151
H	 1.4892598805	-3.7717134975	-0.2693521804	 0.112508
H	 1.8084053281	-2.0793940691	 0.3219414652	 0.107774
H	-0.7388767263	-3.0046560624	-1.2186858757	 0.084789
56.8083	113.2198	138.9906	191.7268	242.4328	255.9048	289.7638	361.4375	414.6402	437.9227	514.2157	609.5618	619.9188	744.1695	786.4527	819.393	891.6133	904.3278	929.0545	948.8711	982.2253	992.7393	998.5134	1019.622	1034.582	1062.0287	1083.5182	1127.1132	1141.9797	1165.2356	1198.7289	1203.8825	1254.17	1287.3095	1306.799	1359.1012	1380.3972	1407.3102	1463.5654	1474.432	1484.8399	1490.4585	1500.4088	1502.4382	1801.8349	3029.6199	3037.7238	3043.4637	3097.9732	3100.7831	3104.3319	3105.7335	3111.6376	3149.2092	3179.8986	3187.4678	3203.5408
CC(=O)C1(C)CC2CC12	CC(=O)[C@@]1(C)C[C@H]2C[C@@H]12	
InChI=1S/C8H12O/c1-5(9)8(2)4-6-3-7(6)8/h6-7H,3-4H2,1-2H3	InChI=1S/C8H12O/c1-5(9)8(2)4-6-3-7(6)8/h6-7H,3-4H2,1-2H3/t6-,7-,8-/m1/s1
