23
gdb 75020	3.05331	1.12331	0.85705	0.7174	100.47	-0.1962	-0.0127	0.1835	1436.0281	0.206582	-351.189123	-351.179678	-351.178734	-351.223839	36.148	
C	-0.1233729059	 1.5631809357	 0.0583749949	-0.466487
C	 0.0249636529	 0.0652643006	-0.019128883	 0.261907
C	 0.0710133616	-0.5484685692	-1.2152048039	-0.131279
C	 0.1451624692	-1.9583896357	-1.5847129399	-0.131289
C	 0.190240081	-3.0798894958	-0.8433714499	 0.261921
C	 0.1917046329	-4.4305396655	-1.512334985	-0.466496
C	 0.2286570706	-3.1320925972	 0.6651205358	-0.284321
C	 0.8766139038	-1.9416405646	 1.3802466287	-0.212799
C	 0.0970228868	-0.6235661602	 1.3225342636	-0.284315
H	 0.7418124481	 2.024158374	 0.5541602626	 0.119806
H	-0.2308183545	 2.0160505152	-0.9304950402	 0.117668
H	-1.0016818182	 1.8419789419	 0.6568539751	 0.119596
H	 0.0103308876	 0.1088271245	-2.0815161286	 0.068068
H	 0.127152604	-2.1101994519	-2.6630639652	 0.068068
H	 0.1039242297	-4.3498432249	-2.5987416325	 0.117668
H	 1.1103497528	-4.9877087003	-1.283232392	 0.119808
H	-0.6394039243	-5.0510468778	-1.149608005	 0.119598
H	-0.793869847	-3.2805016947	 1.0458081599	 0.106968
H	 0.7700009856	-4.0417855182	 0.9580427629	 0.096413
H	 1.0063583207	-2.2112544081	 2.435057088	 0.091429
H	 1.882741064	-1.7825562687	 0.9746856201	 0.104686
H	 0.554137347	 0.0746139114	 2.0366726403	 0.096416
H	-0.9249455984	-0.7813006306	 1.7009525832	 0.106967
26.3696	111.317	196.237	211.7943	253.136	291.4942	314.4427	361.7368	371.6468	404.4479	436.3547	527.4296	552.2973	705.3734	732.1401	838.5235	850.0782	871.0007	876.5994	943.0651	952.3234	1000.0898	1022.6077	1038.2947	1052.7418	1092.0341	1097.4763	1145.847	1179.54	1182.0071	1182.6079	1276.6458	1290.9037	1369.4283	1378.8426	1381.4559	1409.6393	1412.3085	1418.3313	1426.1488	1464.0552	1472.9211	1478.5685	1480.653	1487.5541	1492.6214	1493.1598	1696.8211	1716.4063	2985.8756	2991.9329	3004.8006	3005.8248	3018.0234	3025.9033	3039.3397	3046.2891	3046.5929	3068.2856	3109.3575	3110.7116	3119.4643	3138.9231
CC1=CC=C(C)CCC1	CC1=CC=C(C)CCC1	
InChI=1S/C9H14/c1-8-4-3-5-9(2)7-6-8/h6-7H,3-5H2,1-2H3	InChI=1S/C9H14/c1-8-4-3-5-9(2)7-6-8/h6-7H,3-5H2,1-2H3
