18
gdb 14893	3.0152	1.82709	1.62795	0.5947	77.53	-0.2382	0.0288	0.267	900.7371	0.154902	-310.654717	-310.647198	-310.646254	-310.686262	29.399	
C	-0.0896683623	-1.2436501921	-0.2077956407	-0.501839
C	-0.0460266444	-0.0463533728	-0.1036946578	 0.357839
C	-0.0010507529	 1.4094934963	 0.0247426527	-0.169439
C	-0.7221650783	 1.8842013209	 1.3090117936	-0.211352
C	-0.0194214049	 1.3683896312	 2.570871273	-0.242978
C	 1.4740970452	 1.5461737774	 2.4942799015	-0.03724
C	 2.1253818121	 1.8076885504	 1.3618382413	-0.04227
C	 1.4549614212	 1.9401228496	 0.0189590468	-0.255101
H	-0.1270444507	-2.3001360353	-0.3064158631	 0.193903
H	-0.5225480442	 1.8349727472	-0.8419484223	 0.100387
H	-0.7162109645	 2.9808279317	 1.308720181	 0.099021
H	-1.7679587899	 1.5636682202	 1.2918753327	 0.102913
H	-0.4133999994	 1.8882274479	 3.4529426146	 0.099761
H	-0.2542236708	 0.3052875863	 2.7215488867	 0.121355
H	 2.0307570138	 1.4429404076	 3.4227641501	 0.082188
H	 3.2050669589	 1.9365441034	 1.3774437595	 0.082893
H	 2.0351711844	 1.4103217368	-0.7448344565	 0.114219
H	 1.4460281467	 2.9955184032	-0.2895009032	 0.10574
101.0263	140.9325	209.453	285.6941	388.2387	395.9284	461.451	577.4815	600.8668	623.1823	629.3941	663.547	760.5277	797.4191	864.5651	898.9358	920.1739	976.8487	995.309	1005.3908	1048.5409	1080.662	1091.8167	1151.5483	1200.2471	1224.0957	1257.9745	1300.4571	1339.1201	1353.5187	1380.646	1385.7388	1419.4043	1469.4567	1474.0421	1488.6493	1727.0629	2231.1518	3002.573	3012.2222	3021.1318	3033.8329	3048.8821	3058.1002	3086.8498	3141.2163	3164.883	3504.1088
C#CC1CCC=CC1	C#C[C@H]1CCC=CC1	
InChI=1S/C8H10/c1-2-8-6-4-3-5-7-8/h1,3-4,8H,5-7H2	InChI=1S/C8H10/c1-2-8-6-4-3-5-7-8/h1,3-4,8H,5-7H2/t8-/m1/s1
