14
gdb 29349	2.02495	1.90689	0.98412	5.1974	72.38	-0.196	0.0041	0.2001	1103.8809	0.102336	-432.916208	-432.907704	-432.90676	-432.949114	31.389	
N	 0.0724498069	 1.3746420334	 0.1925875708	-0.609287
C	 0.0145103291	-0.0053593093	 0.0481862228	 0.267786
C	-1.0865883506	-0.8594767711	-0.0091129434	 0.004568
C	-2.4408893629	-0.4865779291	-0.0531943849	 0.150312
N	-3.5681358155	-0.2071350044	-0.09207702	-0.382808
C	-0.5693393043	-2.2053856257	-0.0532459632	 0.249404
O	-1.3000712258	-3.3432558481	-0.1252307114	-0.439405
C	 0.7924169871	-2.1326615138	-0.033403228	-0.18418
N	 1.1279810228	-0.7740697208	 0.0243202954	-0.297185
H	 0.6702617985	 1.8362967493	-0.4829112528	 0.256636
H	-0.8486268427	 1.7937879031	 0.1776165418	 0.271563
H	-2.2358010311	-3.1123457934	-0.1276261985	 0.310135
H	 1.5443550896	-2.8999173585	-0.0748203749	 0.133579
H	 2.0564034088	-0.4218744815	 0.1800109863	 0.268882
111.1448	136.7045	193.2328	226.3714	272.6214	290.7791	325.7866	427.3455	459.1043	538.0323	544.1934	596.0724	608.6093	662.0936	686.5272	715.2172	756.0566	787.8583	1036.3106	1083.5871	1150.4863	1194.8375	1257.014	1332.2311	1357.8534	1442.8199	1541.6455	1602.2011	1653.7547	1674.5856	2315.0457	3295.621	3528.1505	3623.1946	3682.903	3810.213
NC1=C(C#N)C(O)=CN1	Nc1c(C#N)c(O)c[nH]1	
InChI=1S/C5H5N3O/c6-1-3-4(9)2-8-5(3)7/h2,8-9H,7H2	InChI=1S/C5H5N3O/c6-1-3-4(9)2-8-5(3)7/h2,8-9H,7H2
