20
gdb 113593	4.32128	0.90697	0.83581	1.0233	74.98	-0.2453	0.0658	0.3111	1404.7153	0.172167	-440.253223	-440.244433	-440.243489	-440.287757	32.612	
O	-0.0440043357	 1.3315686801	-0.7468906029	-0.420079
C	 0.0139608215	 0.2574838367	 0.1756784545	-0.064155
C	-1.3197270789	-0.4460379587	 0.2705995477	-0.105844
N	-1.676161043	-1.229961861	-0.9347722972	-0.379907
C	-1.479457917	-1.9167338521	 0.3532089089	 0.309339
C	-0.357403814	-2.95865162	 0.4487681281	-0.306836
C	-1.0322876725	-4.1205594952	 1.2102039338	-0.08315
O	-2.4338314413	-3.9417749642	 1.0364719493	-0.241197
C	-2.6560368127	-2.5456424991	 1.0989026478	-0.152664
H	-0.343740737	 0.945549614	-1.5787385957	 0.289946
H	 0.7946538427	-0.4653321517	-0.1025988584	 0.090133
H	 0.2887654196	 0.6933267676	 1.142256348	 0.107098
H	-2.1111710042	 0.1579490483	 0.7151768649	 0.086612
H	-2.6683639248	-1.1363532379	-1.1396833615	 0.229461
H	-0.0550128459	-3.2544860241	-0.5580692624	 0.126473
H	 0.5270853544	-2.5902281728	 0.9744686635	 0.109576
H	-0.77168659	-5.1093472611	 0.8265275676	 0.114716
H	-0.7745930264	-4.0851432001	 2.2811848662	 0.090964
H	-2.6752361427	-2.1995368279	 2.1473995721	 0.092941
H	-3.6282641921	-2.3270818409	 0.6461771357	 0.106573
39.0741	72.7483	142.0764	181.6428	252.419	309.5123	394.3375	418.731	440.8831	476.2554	603.3882	682.1472	761.9361	812.1546	866.7411	888.4581	950.087	970.1855	979.5102	990.7472	1016.0197	1058.1517	1077.2288	1081.8387	1107.7536	1135.1745	1185.541	1218.4166	1227.6597	1262.244	1267.4751	1290.6587	1292.982	1327.0628	1352.4917	1376.5066	1405.3113	1425.1454	1481.2829	1488.0342	1497.9483	1501.1206	1520.1953	2948.242	2972.8949	2999.0935	3069.3586	3072.3245	3075.253	3100.7109	3107.3818	3119.7296	3489.4573	3789.0229
OCC1NC11CCOC1	OC[C@H]1N[C@]21CCOC2	
InChI=1S/C6H11NO2/c8-3-5-6(7-5)1-2-9-4-6/h5,7-8H,1-4H2	InChI=1S/C6H11NO2/c8-3-5-6(7-5)1-2-9-4-6/h5,7-8H,1-4H2/t5-,6-/m1/s1
