14
gdb 127320	3.37828	1.72732	1.15123	5.325	71.44	-0.2311	-0.0393	0.1918	982.689	0.102287	-432.849379	-432.842126	-432.841182	-432.882422	26.453	
C	-0.0079079823	 1.4644439874	 0.0300691874	-0.344641
N	-0.0067264466	 0.0155758426	 0.0147599126	-0.123773
C	-0.1054458998	-0.8048003571	-1.0895754449	-0.05181
C	-0.0694030582	-2.1489517351	-0.7414153094	-0.360391
C	 0.0596998396	-2.1404960616	 0.6660943427	 0.385351
C	 0.0947595402	-0.8275313378	 1.0910368111	 0.306391
N	 0.2185123934	-0.7949005943	 2.4364957107	-0.229683
N	 0.2632256326	-1.9745226854	 2.8837606215	-0.046707
O	 0.1602315735	-2.9229549984	 1.7332521586	-0.25661
H	 0.9256580573	 1.8492982563	 0.4514262204	 0.155454
H	-0.1087587234	 1.8265280422	-0.9941152658	 0.146384
H	-0.8439465022	 1.8454352387	 0.6241835311	 0.155641
H	-0.1968757938	-0.3623988597	-2.0702457578	 0.137234
H	-0.1294625102	-2.9831151678	-1.4197144083	 0.127162
19.9204	151.3394	236.8642	253.7898	362.4208	462.658	564.7651	584.2182	625.3412	641.7924	702.8517	723.1562	770.1989	815.3478	821.3787	989.9048	1034.598	1103.3428	1153.4085	1154.0196	1272.0042	1281.8491	1372.6414	1401.0462	1453.7461	1477.1287	1479.1711	1501.2796	1522.5751	1545.9968	1596.232	3043.7197	3105.296	3145.2063	3250.3832	3279.2991
CN1C=CC2=C1N=NO2	Cn1ccc2c1nno2	
InChI=1S/C5H5N3O/c1-8-3-2-4-5(8)6-7-9-4/h2-3H,1H3	InChI=1S/C5H5N3O/c1-8-3-2-4-5(8)6-7-9-4/h2-3H,1H3
