21
gdb 107398	2.47757	1.39497	1.1011	1.6704	78.17	-0.2389	0.0749	0.3137	1202.3553	0.182419	-424.219993	-424.211041	-424.210097	-424.253741	34.464	
C	-0.0290940465	 1.3955739693	 0.1123751358	-0.403638
C	 0.0202676429	-0.1057167291	-0.105201215	 0.145767
C	 0.9053728645	-0.5851999243	-1.2776443706	-0.261191
C	 1.4649757581	-1.9116459043	-0.7725386608	-0.106973
C	 2.6047869794	-1.8442876455	 0.2318279586	-0.350901
C	 1.18134367	-1.950397315	 0.7019148784	 0.423188
C	 0.6394686035	-3.1229472018	 1.4755420761	-0.147528
O	-0.7739080153	-3.1837214682	 1.402422691	-0.421081
O	 0.5695346885	-0.7298269136	 1.0740754885	-0.32711
H	 0.9787519691	 1.7934517462	 0.2664842105	 0.121152
H	-0.4703514465	 1.8910360239	-0.758299318	 0.117263
H	-0.6339205723	 1.6422586463	 0.9895354103	 0.124391
H	-0.9998677805	-0.4938424619	-0.2522553488	 0.071731
H	 0.3182656008	-0.7101909541	-2.1913438737	 0.107691
H	 1.6989672987	 0.140443145	-1.4911877608	 0.101458
H	 1.3639370873	-2.8001600117	-1.3847542108	 0.095258
H	 3.2430546742	-2.7177033158	 0.3259496479	 0.110341
H	 3.1059884163	-0.8928539276	 0.3772903502	 0.113304
H	 1.0264475509	-4.0578419439	 1.057470581	 0.106333
H	 0.979158411	-3.0619908051	 2.5223080366	 0.092556
H	-1.0824489842	-2.3190715187	 1.6980602336	 0.287988
64.3079	107.079	153.614	233.002	240.1335	300.9155	355.9067	411.8658	422.9317	475.0532	531.9046	590.0035	623.2511	776.0808	827.4112	833.5302	871.4876	901.5032	933.8743	941.7782	976.4357	1031.829	1048.3214	1053.4064	1066.9292	1082.9667	1111.3094	1141.9271	1159.0779	1182.6378	1230.1705	1254.5355	1283.5022	1303.881	1367.4737	1373.3686	1387.1109	1389.8644	1411.3717	1437.1722	1477.9697	1483.8105	1494.3537	1497.7445	1499.8456	2973.0398	2974.1461	3036.0752	3040.2462	3076.7687	3094.8642	3113.1906	3117.1012	3120.8518	3176.3234	3211.9262	3795.4948
CC1CC2CC2(CO)O1	C[C@H]1C[C@H]2C[C@@]2(CO)O1	
InChI=1S/C7H12O2/c1-5-2-6-3-7(6,4-8)9-5/h5-6,8H,2-4H2,1H3	InChI=1S/C7H12O2/c1-5-2-6-3-7(6,4-8)9-5/h5-6,8H,2-4H2,1H3/t5-,6-,7-/m0/s1
