19
gdb 121675	2.84154	0.79468	0.65343	1.3797	78.22	-0.2647	0.0134	0.2781	1721.2951	0.158154	-419.264751	-419.254368	-419.253424	-419.302581	35.553	
C	 0.0679116151	 1.3199103213	-0.1786837086	-0.378771
C	 0.3968191195	-0.1544468865	 0.0678093336	-0.170884
C	 0.916487203	-0.39935701	 1.4890962469	-0.154993
N	 1.2571853854	-1.7931445646	 1.7383579542	-0.329676
C	 0.4890206645	-2.6047305437	 2.5009221652	 0.433215
O	-0.5259771828	-2.2692314646	 3.0783142381	-0.371201
C	 0.972774625	-4.069966031	 2.6416351909	-0.457234
C	 2.1820136934	-4.4153045959	 1.9073973473	 0.26578
N	 3.1440123213	-4.6303789963	 1.3027415607	-0.313411
H	 0.9519147675	 1.9531984416	-0.0445461922	 0.117663
H	-0.3012902559	 1.4762770408	-1.1961365697	 0.120665
H	-0.7025403439	 1.6746635936	 0.5142609474	 0.124594
H	-0.4939144531	-0.7730817684	-0.0909847012	 0.114553
H	 1.1475141944	-0.4952399672	-0.6569341045	 0.098362
H	 1.8023600644	 0.2191525087	 1.6787955071	 0.111086
H	 0.1561292217	-0.1300039196	 2.2258663562	 0.149914
H	 2.0667700881	-2.181872457	 1.2788380979	 0.269285
H	 1.1193866812	-4.257624245	 3.7098050698	 0.18575
H	 0.1464180212	-4.7118443161	 2.3215674009	 0.185304
20.9155	47.108	81.1262	84.4892	137.8711	234.499	270.8799	301.6501	338.4737	375.7811	464.2472	502.3268	513.5537	632.2639	676.0894	748.8285	845.1233	896.0302	932.451	947.3293	977.1216	1037.3877	1089.8146	1126.291	1184.6794	1214.7066	1251.3262	1283.0017	1297.9853	1334.7844	1340.1229	1406.804	1415.6569	1439.9733	1480.3826	1491.9595	1500.1068	1509.5809	1563.3174	1793.31	2354.5476	3023.7667	3031.0365	3034.6115	3064.6566	3068.0537	3099.3822	3108.146	3110.7041	3118.8959	3618.3004
CCCNC(=O)CC#N	CCCNC(=O)CC#N	
InChI=1S/C6H10N2O/c1-2-5-8-6(9)3-4-7/h2-3,5H2,1H3,(H,8,9)	InChI=1S/C6H10N2O/c1-2-5-8-6(9)3-4-7/h2-3,5H2,1H3,(H,8,9)
