25
gdb 120741	2.34023	0.96683	0.79131	0.9539	90.61	-0.2341	0.0791	0.3132	1620.8036	0.226348	-389.479664	-389.468563	-389.467619	-389.516476	40.581	
C	 0.4122703203	 1.5648263233	 0.0928103281	-0.385537
C	 0.0263426689	 0.1189970511	 0.3535240063	-0.043246
O	 1.1566270085	-0.5544281064	 0.8857744811	-0.246559
C	 0.9447617658	-1.9116803133	 1.1234803359	 0.120217
C	 2.0024152509	-2.6109690061	 1.9145694185	-0.346021
C	 0.6236872223	-2.4139152983	 2.5188073465	-0.020077
C	 0.4319831248	-1.4700927913	 3.6951370903	 0.021503
C	-1.0577803107	-1.1768586466	 3.930617608	-0.396395
C	 1.0764463819	-2.0325947494	 4.9714021534	-0.378936
H	 1.2516582389	 1.6168956191	-0.6063544735	 0.127238
H	-0.4323051792	 2.113483779	-0.3347109248	 0.114023
H	 0.7107931095	 2.0574042916	 1.0226960959	 0.126232
H	-0.8216424559	 0.0624989175	 1.0521017307	 0.096948
H	-0.2918283798	-0.3704525604	-0.5818389705	 0.088
H	 0.4964484398	-2.440085299	 0.2803790264	 0.07853
H	 2.3229536338	-3.6016241932	 1.6119468551	 0.108189
H	 2.7957851615	-1.9762742302	 2.2968777802	 0.120887
H	-0.0033755552	-3.3036645777	 2.5565162312	 0.073638
H	 0.9335978087	-0.5276916967	 3.4428425919	 0.08259
H	-1.5961113836	-2.0936531013	 4.200405485	 0.109074
H	-1.1948247485	-0.4615281599	 4.748362107	 0.10828
H	-1.5361767329	-0.7637898753	 3.0375361865	 0.11574
H	 2.1468399442	-2.2116150039	 4.8324026939	 0.112367
H	 0.9545567821	-1.3409098685	 5.8120574209	 0.105847
H	 0.6140896038	-2.9854408843	 5.256188246	 0.107466
50.6215	54.417	102.4323	152.7381	176.5124	214.1969	236.4804	240.5103	251.7667	340.3465	359.5386	409.1818	436.5966	486.8299	614.5218	755.9789	796.7873	818.1644	832.9144	894.4183	918.4155	931.2472	960.3374	992.3096	1023.7031	1038.6405	1070.9943	1096.2208	1128.3836	1138.4662	1148.2194	1182.3502	1186.7815	1194.8738	1213.516	1244.7701	1293.8752	1307.5022	1350.6474	1374.099	1398.3234	1402.8672	1411.4154	1423.3182	1439.115	1482.9859	1484.9597	1487.4475	1490.2411	1498.8621	1502.864	1509.5794	1528.0529	2968.5111	3008.1932	3022.8291	3026.5805	3034.1617	3044.3573	3081.2384	3085.5515	3093.137	3103.2221	3105.3791	3114.6178	3118.4934	3121.4167	3130.2965	3216.8407
CCOC1CC1C(C)C	CCO[C@H]1C[C@H]1C(C)C	
InChI=1S/C8H16O/c1-4-9-8-5-7(8)6(2)3/h6-8H,4-5H2,1-3H3	InChI=1S/C8H16O/c1-4-9-8-5-7(8)6(2)3/h6-8H,4-5H2,1-3H3/t7-,8-/m0/s1
