23
gdb 39644	4.26982	0.96569	0.9289	0.0916	90.75	-0.2778	0.0928	0.3707	1390.1461	0.208393	-351.091421	-351.083522	-351.082577	-351.124379	31.816	
C	-0.2178226118	 1.4355561828	-0.1455113339	-0.208654
C	 1.3335947653	 1.4531938648	-0.1071163316	-0.227099
C	 1.2978225151	 0.0736732036	 0.6181608304	-0.004424
C	-0.166662663	-0.094277106	 0.1107460255	-0.227142
C	 2.3161076906	-0.9701012853	 0.215896061	 0.060421
C	 3.7757417107	-0.9871447665	 0.7857237758	-0.058261
C	 3.2066610315	-1.5633782724	 2.116110993	-0.224096
C	 2.473604374	-2.3311319305	 0.9763774472	-0.058296
C	 3.8624735524	-2.4583776475	 0.2859597123	-0.216963
H	-0.6500716516	 1.9740683077	 0.7029616735	 0.099563
H	-0.7076116354	 1.7818321406	-1.0587202898	 0.093717
H	 1.7622856242	 1.35929171	-1.1107621176	 0.095204
H	 1.8270702325	 2.2848553998	 0.4023179416	 0.092746
H	 1.2878268503	 0.2356098378	 1.6998914266	 0.064876
H	-0.8984396874	-0.5264031032	 0.7981123085	 0.092747
H	-0.1960918524	-0.6607072102	-0.8263713776	 0.095205
H	 2.2848544726	-1.0946154749	-0.8753798283	 0.050398
H	 4.5345865214	-0.2102803423	 0.6749436274	 0.065134
H	 3.9026421356	-2.1519302436	 2.7207419241	 0.086052
H	 2.6147341567	-0.9002047523	 2.7483216538	 0.092434
H	 1.721117091	-3.1141951051	 1.0868828164	 0.065134
H	 3.8624449883	-2.6119797797	-0.797008351	 0.085344
H	 4.5961230193	-3.0986300075	 0.7832888128	 0.085959
63.6269	114.5779	136.2631	250.2342	335.7166	410.3586	495.3029	568.7221	670.1587	766.5008	785.5513	804.4205	807.4896	876.839	893.2003	896.7228	903.48	917.4521	935.2259	951.5205	990.4804	1009.2983	1022.0709	1029.1951	1033.1778	1088.2319	1096.1897	1112.9819	1138.2351	1144.4456	1189.9474	1192.7679	1203.5024	1215.5426	1232.3206	1248.6251	1253.3376	1256.892	1259.6327	1267.0154	1279.5321	1286.8903	1339.39	1437.483	1478.7186	1486.3371	1502.3056	1510.9514	1540.2058	3002.8052	3042.4487	3045.7071	3046.004	3055.8306	3056.5678	3064.2045	3089.9619	3093.9396	3097.0431	3097.6034	3111.4734	3114.9328	3126.5784
C1CC(C1)C1C2CC1C2	C1CC(C1)[C@H]1[C@H]2C[C@@H]1C2	
InChI=1S/C9H14/c1-2-6(3-1)9-7-4-8(9)5-7/h6-9H,1-5H2	InChI=1S/C9H14/c1-2-6(3-1)9-7-4-8(9)5-7/h6-9H,1-5H2/t7-,8+,9-
