22
gdb 103959	2.51066	1.34587	1.07659	1.6202	81.6	-0.2225	0.0635	0.286	1224.6609	0.193489	-404.294599	-404.285064	-404.28412	-404.328534	36.651	
C	 1.3067692665	 2.0758999742	 0.6346643524	-0.432261
C	 1.1185872025	 0.5816920556	 0.4944103361	 0.022646
C	 0.9712845887	-0.2510666673	-0.7223236445	-0.11304
N	 2.1880050039	-0.393401727	 0.2004047546	-0.154195
C	 3.0305963012	 0.1727559967	-0.9190647764	-0.222682
C	 1.8499937565	 0.1149698231	-1.9282628996	 0.313456
C	 1.9885582604	-1.0929372857	-2.86304761	-0.460877
C	 1.4833782417	 1.3681948205	-2.7282598279	-0.13822
O	 2.4997721028	 1.75778444	-3.642823497	-0.42294
H	 1.9647731912	 2.5164756625	-0.1137835126	 0.13023
H	 0.3383177343	 2.5831007296	 0.5674886414	 0.124152
H	 1.7305124623	 2.3003135055	 1.6197639774	 0.125413
H	 0.5158194816	 0.1845459547	 1.3120654057	 0.095279
H	 0.2158443823	-1.033135496	-0.7672937818	 0.083779
H	 3.462215861	 1.1563654055	-0.7154215997	 0.106758
H	 3.8437445178	-0.5182506172	-1.1498699043	 0.106851
H	 2.2073750979	-2.0022158939	-2.2958504925	 0.134714
H	 1.0647329115	-1.2638575258	-3.4293172009	 0.110789
H	 2.8080040518	-0.9479048515	-3.5760311463	 0.110157
H	 0.5222141983	 1.2001931104	-3.242391762	 0.084037
H	 1.3437308515	 2.2276836136	-2.0705907884	 0.110215
H	 2.5309384143	 1.1074008825	-4.3503664638	 0.285739
75.5648	126.4634	156.2696	235.5977	254.6319	272.1522	283.546	325.9998	357.4927	388.3011	444.7204	480.5161	591.3529	669.0453	692.9571	774.2066	845.427	887.4222	920.3395	945.794	950.3208	975.5828	991.5849	1030.7951	1067.9838	1075.1653	1109.6481	1122.5945	1142.6431	1177.0988	1193.8164	1262.8001	1265.8329	1280.5261	1292.7914	1374.3038	1378.3207	1405.9077	1413.4109	1422.6431	1443.721	1489.3765	1493.1482	1497.8978	1505.9923	1512.7231	1519.9923	2966.8763	3021.8597	3039.4785	3061.563	3085.9345	3093.752	3097.5832	3106.6448	3112.037	3113.2937	3125.7328	3150.4728	3832.2158
CC1C2N1CC2(C)CO	C[C@H]1[C@@H]2N1C[C@]2(C)CO	
InChI=1S/C7H13NO/c1-5-6-7(2,4-9)3-8(5)6/h5-6,9H,3-4H2,1-2H3	InChI=1S/C7H13NO/c1-5-6-7(2,4-9)3-8(5)6/h5-6,9H,3-4H2,1-2H3/t5-,6-,7+,8?/m0/s1
