19
gdb 80973	2.83837	1.42649	1.1701	2.0009	76.76	-0.2201	0.0148	0.2349	1114.9129	0.158275	-422.996053	-422.98745	-422.986506	-423.028598	33.955	
C	-0.0190300524	 1.4494863946	 0.0622583545	-0.516337
C	-0.0232932762	-0.0393377789	 0.0208230595	 0.357495
C	-0.0083004586	-0.900312562	-1.0063009513	-0.307222
C	 0.0237290523	-2.265355528	-0.3136313602	 0.327488
O	 0.0364392226	-3.4619914267	-1.0309107478	-0.492681
C	-1.0350896891	-2.0675699006	 0.8090099185	-0.251008
C	-0.0094685712	-0.9672932795	 1.245141453	-0.162597
C	 1.1140209509	-1.9701938182	 0.7853408518	 0.12542
O	 1.3645824094	-3.0364243227	 1.6639159604	-0.458645
H	 0.8569476485	 1.8307092899	 0.6024661116	 0.130336
H	-0.0100637939	 1.8775285464	-0.9442423098	 0.124781
H	-0.9004798582	 1.8365398254	 0.5892723611	 0.129699
H	 0.0087597941	-0.7156245592	-2.0725243616	 0.095573
H	 0.6551464731	-3.3735001561	-1.7643868137	 0.283226
H	-2.0294332418	-1.7392499015	 0.5007930613	 0.092119
H	-1.0796676911	-2.9043973437	 1.507551284	 0.107958
H	-0.0116505651	-0.5305940528	 2.2421079066	 0.06981
H	 2.0473651033	-1.5079420539	 0.4356000853	 0.056753
H	 1.2993714633	-3.8473530627	 1.1443086267	 0.287831
154.2819	172.1544	176.0419	239.1506	260.6744	299.1505	351.4967	396.5968	445.1283	499.7497	522.4461	569.6056	631.0528	669.0319	762.814	788.7891	878.6235	887.8169	944.9781	966.1273	996.3499	1014.796	1057.2583	1072.979	1101.335	1117.5683	1127.4284	1142.3808	1201.4936	1218.4876	1229.9172	1286.5945	1316.496	1343.2016	1359.5454	1374.5411	1413.3784	1477.0551	1485.5298	1490.976	1685.8437	3011.0383	3015.8485	3061.4072	3075.9797	3106.9014	3137.9231	3147.5158	3213.3608	3774.4429	3801.4227
CC1=CC2(O)CC1C2O	CC1=C[C@]2(O)C[C@H]1[C@H]2O	
InChI=1S/C7H10O2/c1-4-2-7(9)3-5(4)6(7)8/h2,5-6,8-9H,3H2,1H3	InChI=1S/C7H10O2/c1-4-2-7(9)3-5(4)6(7)8/h2,5-6,8-9H,3H2,1H3/t5-,6-,7+/m1/s1
