19
gdb 111793	2.59893	1.44923	1.18664	1.6146	71.24	-0.2233	0.063	0.2863	1112.8018	0.159332	-460.115593	-460.107232	-460.106288	-460.148653	31.789	
C	-0.2609889114	 1.3148183257	-0.0045794352	-0.243471
O	 0.2570646047	 0.0112237433	 0.1492503726	-0.251912
C	 0.7547491581	-0.5313781735	-1.0332243987	 0.172892
C	 1.1761697616	-2.025129745	-0.957811731	-0.155634
C	-0.1384636835	-2.651536539	-0.4824223269	-0.082917
O	-1.0826694603	-1.9728354739	-1.3566063405	-0.278925
C	-0.2255682169	-1.1085357006	-2.1033416335	-0.00651
C	 0.9434675798	-2.0653392086	-2.4980866534	 0.109979
O	 2.0258109105	-1.5139961099	-3.2097465725	-0.437291
H	 0.4994619565	 2.0091169793	-0.3945908248	 0.104213
H	-1.128069711	 1.3331495214	-0.6802698232	 0.113432
H	-0.5774725872	 1.6563869801	 0.9835457209	 0.128389
H	 1.5302648145	 0.095722855	-1.4843974255	 0.088272
H	 2.1071317086	-2.3531704029	-0.499158329	 0.0824
H	-0.1904306149	-3.7329146601	-0.6491322318	 0.099191
H	-0.3700827374	-2.4239490554	 0.561523284	 0.119656
H	-0.8044948274	-0.5187043204	-2.8135630008	 0.072716
H	 0.6163275479	-3.0284607751	-2.9095076546	 0.077544
H	 1.7431804078	-1.3744852804	-4.119230596	 0.287977
67.4818	165.9518	178.3408	264.3241	272.4476	298.442	325.409	360.357	446.8781	515.7671	612.1277	724.1522	816.9917	874.4144	885.9468	908.5018	943.0208	965.6554	1001.7974	1031.5535	1040.3767	1079.7518	1104.4447	1136.5351	1163.4986	1174.4853	1182.1366	1203.1051	1208.1987	1248.9499	1260.4133	1265.2714	1274.9598	1318.4278	1363.2745	1393.4181	1424.6124	1483.7442	1488.7618	1506.2007	1517.6597	2979.8508	3025.811	3032.2752	3040.9412	3064.1958	3095.1861	3118.4366	3126.9646	3141.9752	3815.0358
COC1C2COC1C2O	CO[C@H]1[C@H]2CO[C@@H]1[C@H]2O	
InChI=1S/C6H10O3/c1-8-5-3-2-9-6(5)4(3)7/h3-7H,2H2,1H3	InChI=1S/C6H10O3/c1-8-5-3-2-9-6(5)4(3)7/h3-7H,2H2,1H3/t3-,4-,5-,6+/m0/s1
