20
gdb 14238	3.62446	1.56952	1.49176	1.2909	74.32	-0.2479	0.0742	0.3221	965.6701	0.177566	-348.978207	-348.970318	-348.969374	-349.010176	30.919	
C	 0.1639910524	 1.5930247743	-0.0788872961	-0.411346
C	 0.1104561073	 0.0758613832	 0.0224529711	 0.053278
C	 1.0219892553	-0.7948893131	-0.8971014857	-0.258828
C	 1.3316982563	-1.7384596284	 0.3021525577	-0.033582
C	 2.6966991864	-1.5097317725	 0.9686426254	 0.138859
O	 3.7691699424	-1.3515976672	 0.0662973471	-0.430693
C	 2.1281602997	-0.2538532216	 1.6998991447	-0.291127
C	 0.6901667531	-0.6640530497	 1.2570641765	-0.033456
H	 1.1852191716	 1.9743046841	 0.0261651151	 0.114306
H	-0.2096681289	 1.9299011977	-1.0525153608	 0.113528
H	-0.4510653465	 2.0674912996	 0.6944596065	 0.110061
H	-0.9291254051	-0.2505025766	-0.1020033109	 0.068047
H	 0.5258846087	-1.2613402319	-1.7508432	 0.094238
H	 1.9140671056	-0.2783970581	-1.2599280686	 0.114228
H	 0.9709807482	-2.763792228	 0.2134146835	 0.058533
H	 2.9079836244	-2.3124470021	 1.6906888706	 0.062144
H	 4.5644990602	-1.1588401266	 0.5726323233	 0.281784
H	 2.3003511413	-0.2165592841	 2.7782168525	 0.093923
H	 2.4805575537	 0.6829063871	 1.2601970994	 0.100149
H	 0.005853984	-0.9166699461	 2.0683832888	 0.055952
77.179	193.6796	234.169	253.1363	259.884	335.4801	391.3648	482.4473	524.7606	572.1686	714.9686	752.3914	780.6721	842.8638	887.9065	898.6813	931.7939	957.4844	985.8825	1032.4362	1059.5981	1092.2477	1108.4425	1121.9538	1136.2787	1168.4224	1190.8837	1209.496	1235.3365	1243.8518	1258.5189	1290.5335	1311.5226	1320.8913	1341.8933	1373.3449	1408.3487	1421.0407	1474.4409	1490.6159	1497.5022	1500.4108	2982.1714	3023.4034	3026.5475	3058.6752	3066.3087	3086.7918	3087.7645	3095.5867	3098.6912	3113.458	3120.4448	3817.582
CC1CC2C(O)CC12	C[C@H]1C[C@H]2[C@@H](O)C[C@@H]12	
InChI=1S/C7H12O/c1-4-2-6-5(4)3-7(6)8/h4-8H,2-3H2,1H3	InChI=1S/C7H12O/c1-4-2-6-5(4)3-7(6)8/h4-8H,2-3H2,1H3/t4-,5-,6+,7-/m0/s1
