12
gdb 42972	3.36256	1.41614	1.07164	5.4159	67.07	-0.2749	-0.1086	0.1663	1030.2239	0.07778	-435.490676	-435.483685	-435.482741	-435.522415	25.656	
O	-0.0202946098	 0.0030350717	-0.1089996423	-0.279932
C	-0.0269858281	 1.1996821399	-0.0323783972	 0.354388
C	-1.2415839614	 2.1214527552	 0.009390078	-0.083204
O	-1.2637027011	 2.9341305203	 1.1922620274	-0.232627
C	-0.7240636282	 3.4933960206	-0.0206766159	-0.001501
C	 0.7718057775	 3.4070203067	-0.0592897584	-0.162811
C	 1.1744490328	 2.1231940594	-0.0130421117	 0.061017
C	 2.5082007053	 1.6435475305	 0.049045467	 0.240737
N	 3.5904701861	 1.2358232383	 0.0940159508	-0.319502
H	-2.1967544177	 1.7973231658	-0.3892479277	 0.1364
H	-1.2623885748	 4.3349797518	-0.441435414	 0.130608
H	 1.4234550395	 4.2711968699	-0.0774614359	 0.156427
113.6939	144.2052	191.7926	319.8883	388.5485	423.4538	526.4331	550.4433	606.7711	684.6961	746.9103	813.4189	827.5014	865.3783	920.8297	964.9105	990.9822	1076.224	1102.1201	1209.3947	1231.2234	1287.9677	1312.4077	1391.6626	1647.9577	1851.7774	2348.5783	3183.2207	3193.3685	3225.7238
O=C1C2OC2C=C1C#N	O=C1[C@H]2O[C@H]2C=C1C#N	
InChI=1S/C6H3NO2/c7-2-3-1-4-6(9-4)5(3)8/h1,4,6H	InChI=1S/C6H3NO2/c7-2-3-1-4-6(9-4)5(3)8/h1,4,6H/t4-,6-/m0/s1
