21
gdb 69722	3.5055	1.58212	1.38782	0.214	85.6	-0.2417	0.1022	0.3438	1020.7006	0.184946	-349.900892	-349.893859	-349.892915	-349.931756	30.179	
C	-0.0111290409	 1.5093204096	 0.0428296731	-0.483923
C	-0.000497388	 0.0012097573	 0.0116210381	 0.344166
C	-0.6300994379	-0.815668184	 1.1185848319	-0.347935
C	 0.8676832815	-0.8664457794	 0.8970404469	-0.106938
C	 1.3982236891	-1.8788104549	-0.1097357661	-0.01069
C	 0.258151406	-2.2599893914	-1.1109445294	-0.066761
C	 1.2980548256	-2.374047086	-2.2483883417	-0.258171
C	 1.7104677158	-1.1182593751	-1.4540173126	-0.051462
C	 0.1922080177	-0.7133654696	-1.3274925429	-0.065132
H	 0.8422125381	 1.9250921492	-0.5061926539	 0.113986
H	-0.9237343569	 1.914641128	-0.4111130531	 0.114467
H	 0.0395787155	 1.8856955699	 1.0696996487	 0.112838
H	-0.9707085461	-0.2638386858	 1.9900848551	 0.10149
H	-1.2402441399	-1.6819915969	 0.8869544804	 0.106612
H	 1.5334355538	-0.4432318958	 1.6415460222	 0.078878
H	 2.0811852587	-2.6608309301	 0.2284950874	 0.058827
H	-0.5820709809	-2.9301953275	-0.9214463416	 0.066805
H	 1.9773750281	-3.230531591	-2.205966823	 0.087393
H	 0.930146184	-2.2175353396	-3.2666210299	 0.086998
H	 2.5523441215	-0.4484440608	-1.6435156984	 0.06354
H	-0.3283299347	-0.3261234761	-2.2067452013	 0.055012
195.0725	204.9989	251.0661	332.1339	398.9695	443.6126	506.9651	566.9284	668.8579	755.7175	799.7698	811.7073	833.6317	878.6684	884.4619	899.8574	917.353	946.8697	951.629	972.5958	999.5371	1010.3076	1043.4454	1046.3874	1067.0566	1079.1239	1102.1056	1107.0426	1125.7867	1131.2972	1167.7915	1188.6807	1222.4776	1233.4742	1239.8115	1264.6104	1283.1722	1316.0172	1330.1058	1397.9536	1419.6087	1487.903	1495.0539	1501.9033	1518.1973	3017.8291	3043.6226	3073.7849	3080.6873	3085.2121	3089.1582	3093.4006	3100.5319	3102.3917	3124.0073	3166.6371	3205.0597
CC12CC1C1C3CC1C23	C[C@]12C[C@H]1[C@H]1[C@@H]3C[C@H]1[C@H]23	
InChI=1S/C9H12/c1-9-3-6(9)7-4-2-5(7)8(4)9/h4-8H,2-3H2,1H3	InChI=1S/C9H12/c1-9-3-6(9)7-4-2-5(7)8(4)9/h4-8H,2-3H2,1H3/t4-,5+,6-,7-,8+,9-/m0/s1
