21
gdb 52493	6.02344	0.47313	0.4512	0.2252	108.28	-0.2251	0.0011	0.2262	2494.6694	0.179416	-349.930576	-349.919238	-349.918294	-349.969281	39.243	
C	 0.031683608	 1.5264227727	 0.0184776155	-0.51801
C	 0.0315820133	 0.0744163707	 0.0128893478	 0.247327
C	 0.0322234012	-1.1360644535	 0.0084271742	-0.213761
C	 0.0329261697	-2.4964586081	 0.0038491302	-0.110959
C	 0.0361963476	-3.7079605311	-0.0000838734	 0.206322
C	 0.0239030408	-5.1629147956	 0.0064021353	-0.382479
C	-1.3958370691	-5.7838971743	-0.0552304185	 0.048001
C	-2.1178303432	-5.404967423	-1.3526543956	-0.381681
C	-1.3085290459	-7.3049222491	 0.1144270349	-0.389969
H	 1.0439211189	 1.9237585368	-0.118739609	 0.154402
H	-0.5939577413	 1.9271897775	-0.7872870926	 0.15404
H	-0.3538988593	 1.9206018096	 0.9657166862	 0.154049
H	 0.6136409302	-5.5382096591	-0.8427023448	 0.127366
H	 0.5338070131	-5.5222271328	 0.9105241406	 0.127717
H	-1.964802205	-5.3726620393	 0.7883718693	 0.087172
H	-1.5895628319	-5.8088399229	-2.2249962634	 0.109934
H	-3.1356004761	-5.807802904	-1.3650032098	 0.111071
H	-2.1789002167	-4.319460895	-1.4698521004	 0.131318
H	-0.8248163341	-7.5784465715	 1.0582179525	 0.111505
H	-2.3052434731	-7.7570372776	 0.1049846278	 0.113191
H	-0.7318621072	-7.7582976901	-0.7009581167	 0.113443
15.2183	51.9016	55.0723	116.2735	146.1314	227.47	251.1352	263.4534	290.7034	312.9931	363.4094	385.0484	414.3856	459.1902	552.3249	555.1823	643.1	814.3039	877.0981	928.5674	938.3226	967.4257	984.7676	1048.5367	1048.817	1124.7802	1138.1441	1190.4361	1253.6954	1277.4566	1316.4858	1365.2894	1368.0965	1401.3863	1413.4126	1421.5901	1463.3723	1472.9221	1473.2217	1488.2785	1493.6616	1503.9073	1510.3653	2276.2715	2385.2123	2999.9366	3020.9269	3022.2339	3024.4251	3030.3873	3038.5807	3083.3361	3083.4467	3089.4695	3095.9327	3102.3295	3114.8752
CC#CC#CCC(C)C	CC#CC#CCC(C)C	
InChI=1S/C9H12/c1-4-5-6-7-8-9(2)3/h9H,8H2,1-3H3	InChI=1S/C9H12/c1-4-5-6-7-8-9(2)3/h9H,8H2,1-3H3
