15
gdb 43030	2.90236	1.65125	1.21366	3.5198	77.7	-0.2396	-0.0015	0.2381	1004.0759	0.111926	-383.425269	-383.417965	-383.417021	-383.456915	28.724	
O	-0.092849946	 0.0510301049	 0.0140667926	-0.323207
C	-0.0756613068	 1.2445426276	 0.0792648006	 0.375237
C	-1.1391097894	 2.3455168139	-0.0825206043	-0.200395
C	-0.9789899949	 3.1910465762	 1.2143699575	-0.244964
C	 0.4047326336	 3.5601964228	 0.6727314033	-0.109194
C	 0.0265305901	 3.2035067368	-0.7206583982	-0.114376
C	 1.0254822815	 2.2792038375	 0.0524278199	 0.098133
C	 2.4195074506	 2.1169933583	-0.1409817926	 0.129674
C	 3.6017637868	 1.9580389748	-0.2981632325	-0.376677
H	-2.1059158641	 2.1212866019	-0.5224986907	 0.102895
H	-1.6402196129	 4.061419297	 1.2143312463	 0.117583
H	-1.0506914845	 2.6629913786	 2.1706190663	 0.114027
H	 1.0818350622	 4.3353952499	 1.0076709807	 0.11403
H	 0.1861149595	 3.6385957398	-1.6946864768	 0.128935
H	 4.6434344143	 1.8099623399	-0.4409619219	 0.1883
128.5732	144.6812	174.1026	367.1264	385.5506	470.0579	505.0369	585.9893	598.8825	629.2054	652.4286	694.9352	783.6508	796.935	831.6863	858.9303	907.6713	932.3412	957.1374	987.0133	1003.1147	1065.8328	1097.7942	1133.9107	1170.3182	1194.8376	1219.1946	1269.9705	1288.8239	1383.8046	1496.9083	1885.9555	2236.9506	3048.9249	3109.4842	3174.7637	3203.8569	3251.4786	3502.1467
O=C1C2CC3C2C13C#C	O=C1[C@H]2C[C@@H]3[C@H]2[C@]13C#C	
InChI=1S/C8H6O/c1-2-8-5-3-4(6(5)8)7(8)9/h1,4-6H,3H2	InChI=1S/C8H6O/c1-2-8-5-3-4(6(5)8)7(8)9/h1,4-6H,3H2/t4-,5+,6-,8+/m0/s1
