16
gdb 39206	3.02042	1.9416	1.37969	1.1214	67.83	-0.2417	0.0111	0.2527	906.4354	0.126677	-437.874214	-437.867692	-437.866748	-437.905109	26.003	
C	-0.1133183604	 1.4148343896	-0.1538281983	-0.385695
C	 1.3156292744	 0.9422818961	 0.110678272	 0.013751
O	 1.747123626	 0.9131622377	 1.4443037416	-0.264894
C	 1.4010955777	-0.3621862575	 2.0085936426	-0.076356
C	 0.1214318121	-0.8245088732	 1.2691728263	-0.099025
N	 0.1334413079	-2.2243634133	 0.813929021	-0.26747
C	 0.0986289643	-2.1786426995	-0.4539473431	 0.093834
O	 0.0589804961	-0.9746858219	-1.0923788282	-0.248479
C	 0.2008781471	-0.0350707523	-0.041123364	 0.398549
H	-0.6696509929	 1.8917100338	 0.6473261697	 0.127323
H	-0.3011505206	 1.8056080281	-1.1492083114	 0.130162
H	 2.0833106462	 1.1089154775	-0.6380982409	 0.112194
H	 2.2039530885	-1.0927366812	 1.8397816501	 0.108419
H	 1.2657313193	-0.2213980773	 3.0830445438	 0.117218
H	-0.7771033229	-0.6404371146	 1.8682391934	 0.095518
H	 0.0877542871	-3.0346378121	-1.1187395546	 0.14495
125.5626	201.7837	285.3979	385.2818	417.6226	537.0714	575.8782	611.1551	634.0752	817.7572	840.4305	861.9313	897.4849	939.3187	957.1403	981.4046	997.0948	1001.1929	1041.2993	1058.1153	1078.6529	1100.6745	1121.4853	1135.716	1210.5452	1231.8546	1261.5475	1295.8849	1325.7559	1335.9484	1377.8757	1395.0326	1473.6316	1512.5958	1682.1728	3015.6819	3043.7138	3111.3623	3122.806	3165.2088	3217.0082	3222.4765
C1C2OCC3N=COC123	C1[C@H]2OC[C@@H]3N=CO[C@]123	
InChI=1S/C6H7NO2/c1-5-6(1)4(2-8-5)7-3-9-6/h3-5H,1-2H2	InChI=1S/C6H7NO2/c1-5-6(1)4(2-8-5)7-3-9-6/h3-5H,1-2H2/t4-,5+,6-/m0/s1
