23
gdb 101734	4.40415	0.71924	0.64903	2.0882	82.54	-0.2456	0.0742	0.3198	1758.4504	0.204569	-425.406259	-425.395849	-425.394904	-425.442755	37.389	
C	-0.0207959047	 1.5789991328	-0.1033247525	-0.410378
C	-0.0009907733	 0.0450658426	-0.0356848774	 0.014724
C	 0.689717999	-0.5585709391	-1.2695558898	-0.069661
O	 0.0692908681	-0.2162089873	-2.4980463663	-0.425219
C	 0.6749209576	-0.4827334384	 1.2427692708	-0.211599
C	-0.1042500207	-0.255957689	 2.5281185359	 0.160597
C	 0.5530038079	-0.6852156282	 3.8600350632	-0.297392
C	 0.3050965831	 0.7735194633	 4.2887071286	-0.060655
O	-0.1426229199	 1.1291891667	 2.9650335236	-0.287153
H	 0.9999993704	 1.9789949065	-0.1583152332	 0.104992
H	-0.5715744026	 1.9243177151	-0.9849326372	 0.100468
H	-0.4924136903	 2.0112321106	 0.7804751617	 0.151973
H	-1.0398600375	-0.3145445937	-0.047528315	 0.078476
H	 1.7558697366	-0.2735741123	-1.2692832263	 0.08087
H	 0.6492140789	-1.6523478371	-1.2162285516	 0.102878
H	 0.2185482839	 0.7208968172	-2.6539408767	 0.284119
H	 0.8208484638	-1.5692788635	 1.1507644115	 0.09402
H	 1.6739421826	-0.0397629015	 1.3542503357	 0.094548
H	-1.128857619	-0.6410946829	 2.4123114436	 0.070767
H	 0.0398164795	-1.4600395692	 4.4312587544	 0.109413
H	 1.608242872	-0.949568699	 3.7597444549	 0.109202
H	-0.4882549794	 0.9050237	 5.0362649825	 0.100109
H	 1.1805113241	 1.3565859067	 4.5964962295	 0.104901
41.4398	69.8243	94.8326	118.1479	158.2149	229.8737	257.0138	292.9353	316.5128	326.508	419.7147	463.1988	532.9709	730.0012	814.455	832.5499	862.5307	886.6183	916.0702	947.3084	961.9654	987.3679	1025.7001	1052.8269	1074.8826	1109.1726	1122.1776	1135.3283	1159.0858	1173.1372	1210.7885	1232.241	1252.7786	1260.3841	1275.6607	1306.7223	1352.2135	1371.7013	1376.0188	1393.0836	1405.9485	1413.0593	1428.2337	1465.2651	1488.5913	1496.9029	1500.3956	1512.6483	1532.2925	2958.5659	2982.811	2999.8031	3006.8723	3012.1049	3022.4006	3045.8487	3056.8856	3063.8625	3073.9883	3084.5367	3131.1604	3139.5725	3829.7432
CC(CO)CC1CCO1	C[C@@H](CO)C[C@H]1CCO1	
InChI=1S/C7H14O2/c1-6(5-8)4-7-2-3-9-7/h6-8H,2-5H2,1H3	InChI=1S/C7H14O2/c1-6(5-8)4-7-2-3-9-7/h6-8H,2-5H2,1H3/t6-,7-/m1/s1
