14
gdb 15206	2.59679	1.99629	1.53441	2.8107	68.57	-0.2525	-0.0052	0.2472	870.693	0.105401	-341.525871	-341.517786	-341.516842	-341.558265	28.975	
C	-0.1807713797	 1.4938925745	 0.16348123	-0.32596
N	 0.0371253762	 0.0585414797	-0.0060933794	-0.098534
C	 0.5389171518	-0.4389360935	-1.2896885778	-0.208244
C	 0.8422503057	 0.4354311127	-2.387058566	 0.362485
C	 1.0623845345	 1.1526400705	-3.326179942	-0.444039
C	 1.40746425	-0.4490465332	-0.045118607	-0.173697
C	 2.5407260125	 0.4395506718	 0.0383026529	 0.309708
N	 3.4531676753	 1.1416620518	 0.1478719433	-0.33445
H	 0.545167499	 2.1252274357	-0.3626382901	 0.14399
H	-1.1828898945	 1.7283275246	-0.2042865812	 0.138443
H	-0.1397771337	 1.7200194554	 1.2320074086	 0.140312
H	 0.1115024884	-1.3975534012	-1.5765278236	 0.133221
H	 1.2741473247	 1.787341575	-4.1514716224	 0.213078
H	 1.5576656597	-1.3957090739	 0.4678547147	 0.14369
96.9623	135.8857	166.4819	179.6773	249.6045	334.8448	363.3128	447.8296	575.3382	622.7373	634.9177	645.6105	679.6107	709.0186	843.767	855.1103	1005.6485	1037.316	1103.7887	1125.7503	1172.5448	1175.495	1318.5177	1353.0988	1366.7649	1455.7816	1490.209	1496.3428	2239.0849	2352.8562	3027.9533	3104.2475	3127.275	3128.7475	3142.9856	3500.4799
CN1C(C#C)C1C#N	CN1[C@@H](C#C)[C@H]1C#N	
InChI=1S/C6H6N2/c1-3-5-6(4-7)8(5)2/h1,5-6H,2H3	InChI=1S/C6H6N2/c1-3-5-6(4-7)8(5)2/h1,5-6H,2H3/t5-,6+,8?/m0/s1
