16
gdb 28373	3.18091	1.4336	0.99508	4.1825	81.92	-0.1986	-0.0428	0.1558	1147.501	0.124638	-434.102561	-434.094242	-434.093298	-434.135274	31.595	
C	-0.0092062068	 1.5135633783	 0.0123106136	-0.457333
C	-0.0113913364	 0.0155529457	-0.0356153386	 0.264272
N	-0.0411194353	-0.6086528962	-1.1688501789	-0.283046
C	-0.043101207	-1.9829324527	-1.1926496497	-0.173806
C	-0.0264565592	-2.7076743258	-0.046207246	 0.403476
N	-0.1075664696	-4.0729775155	 0.0872356261	-0.565506
O	 0.0151142342	-2.0928135106	 1.1566060934	-0.248477
C	 0.025317093	-0.6990286753	 1.2454851559	 0.322787
N	 0.0671818246	-0.1288541002	 2.378225674	-0.523651
H	 0.878693162	 1.8855439505	 0.5347184195	 0.139162
H	-0.0329885563	 1.907872887	-1.0044719765	 0.129552
H	-0.8716777818	 1.8865879445	 0.5750881203	 0.139532
H	-0.0682258455	-2.4681239988	-2.1601847263	 0.099756
H	 0.1336373766	-4.6006607503	-0.7377325485	 0.267812
H	 0.300779435	-4.438390322	 0.9357491202	 0.26478
H	 0.0850032023	-0.8125432985	 3.1354485816	 0.220689
94.5364	150.7879	165.3839	287.6069	296.8878	335.7269	351.2385	438.0236	492.1057	518.0835	551.3835	558.8471	685.5078	719.6827	758.1071	771.6997	796.841	851.4057	969.2558	987.1501	1048.0325	1054.872	1114.9253	1196.9491	1230.5989	1294.2623	1355.9639	1406.2085	1442.8274	1468.3202	1470.9918	1589.722	1632.5679	1672.9591	1729.2355	3039.6298	3091.4562	3147.5343	3200.9149	3486.748	3571.6555	3682.9744
CC1=NC=C(N)OC1=N	CC1=C(OC(=C[N]1)N)[NH]	
InChI=1S/C5H7N3O/c1-3-5(7)9-4(6)2-8-3/h2,7H,6H2,1H3	InChI=1S/C5H7N3O/c1-3-5(7)9-4(6)2-8-3/h2,7H,6H2,1H3
