20
gdb 114975	2.77612	1.21787	1.01837	5.2806	82.9	-0.2121	-0.0243	0.1878	1250.2866	0.172387	-403.194376	-403.1856	-403.184656	-403.22792	33.482	
C	 0.0714144507	 1.6107407662	 0.1045587581	-0.396471
C	 0.0768736354	 0.080923333	 0.0506981023	-0.164658
C	 0.6700417492	-0.4965997051	-1.2513414493	-0.006234
C	 0.7483567862	-2.0301347038	-1.226160639	-0.326407
C	-0.6108088062	-2.7240116815	-1.4105941567	 0.366458
O	-0.8362770336	-3.8075878245	-0.8994457409	-0.360926
C	-1.5271822471	-2.0250940307	-2.2961858478	-0.222554
C	-1.2181424297	-0.7929403558	-2.775772887	 0.021738
N	-0.0982273169	-0.0963480257	-2.4360839916	-0.278317
H	 1.0817377892	 2.0187230212	-0.016969636	 0.115425
H	-0.5624457689	 2.0436883989	-0.6770986062	 0.107261
H	-0.3154743837	 1.9668309875	 1.0636278246	 0.125331
H	 0.669573059	-0.3115683444	 0.8857125827	 0.10643
H	-0.9407190857	-0.3038842574	 0.1841224443	 0.119751
H	 1.6821975009	-0.091722688	-1.3741251748	 0.085998
H	 1.3872803455	-2.3729557262	-2.0508113146	 0.123027
H	 1.200367024	-2.3809174011	-0.2958462584	 0.120652
H	-2.4385742604	-2.5221240385	-2.6015256399	 0.095198
H	-1.865281807	-0.2919334774	-3.4908785314	 0.119073
H	-0.0705035212	 0.8774950032	-2.6887098786	 0.249225
87.3108	97.8206	136.4844	238.0084	248.4495	332.7265	358.9748	434.7904	460.7256	481.2017	543.4642	581.9627	641.0088	748.7748	776.4622	798.9879	824.9505	898.8151	940.1547	977.5154	994.5749	1023.5113	1053.4817	1078.3484	1100.8079	1146.4799	1211.4897	1238.6321	1248.1883	1291.7401	1297.7993	1340.5717	1374.7345	1390.3741	1412.6597	1426.2326	1457.3957	1480.3646	1500.2126	1508.0184	1526.2472	1659.1324	1759.9517	3020.0461	3028.4854	3034.0072	3035.2148	3070.4857	3096.7024	3107.2763	3112.339	3168.1404	3220.6483	3646.095
CCC1CC(=O)C=CN1	CC[C@H]1CC(=O)C=CN1	
InChI=1S/C7H11NO/c1-2-6-5-7(9)3-4-8-6/h3-4,6,8H,2,5H2,1H3	InChI=1S/C7H11NO/c1-2-6-5-7(9)3-4-8-6/h3-4,6,8H,2,5H2,1H3/t6-/m0/s1
