18
gdb 18672	2.9733	2.22181	1.48112	3.3508	71.45	-0.2309	-0.0054	0.2254	879.3462	0.156283	-347.831365	-347.824452	-347.823508	-347.862408	27.331	
O	 0.0287591154	-0.0198308326	-0.2814352491	-0.335901
C	 0.0096690107	 1.1755099187	-0.078879363	 0.403405
C	-1.2913889284	 1.9511089763	 0.0887976084	-0.311437
C	-1.2843324125	 3.1872365716	-0.8298437209	-0.201945
C	-0.168203617	 4.1714201303	-0.4469331425	-0.222178
C	 1.188862565	 3.4993043031	-0.2191214445	-0.027965
C	 1.5252732352	 2.9253156894	 1.1195041976	-0.289231
C	 1.2621693159	 1.9821950419	-0.0495212437	-0.112295
H	-2.1145891104	 1.2703685963	-0.1393683856	 0.120493
H	-1.4037307894	 2.2682469215	 1.1346022497	 0.112899
H	-1.1407934142	 2.8540155723	-1.8653003815	 0.110711
H	-2.25663376	 3.6900559385	-0.7951942588	 0.101718
H	-0.0668827048	 4.9255942744	-1.233812426	 0.105545
H	-0.4613884981	 4.7154309089	 0.4597343004	 0.104026
H	 2.0186814219	 3.929615255	-0.7704505232	 0.096208
H	 2.5469663924	 2.9765633081	 1.4781844205	 0.12327
H	 0.7755994597	 2.9837093257	 1.9020739641	 0.119862
H	 2.1217031286	 1.4552397705	-0.4479436319	 0.102815
97.9742	194.3109	237.4112	368.1829	408.4011	453.035	476.1784	562.2937	705.3924	728.9158	758.862	830.1534	862.414	877.4444	900.6414	953.207	964.9719	1017.1412	1048.2752	1058.8085	1099.259	1112.3412	1130.9628	1184.908	1198.5852	1218.8468	1257.7117	1283.5204	1338.5946	1363.553	1368.5145	1374.4867	1395.7585	1469.7297	1483.7523	1496.3575	1501.7807	1796.0121	3021.5352	3025.2756	3030.8758	3070.0648	3078.6016	3108.7008	3132.2092	3155.7323	3179.3177	3219.2015
O=C1CCCC2CC12	O=C1CCC[C@H]2C[C@@H]12	
InChI=1S/C7H10O/c8-7-3-1-2-5-4-6(5)7/h5-6H,1-4H2	InChI=1S/C7H10O/c8-7-3-1-2-5-4-6(5)7/h5-6H,1-4H2/t5-,6+/m0/s1
