18
gdb 32532	2.51101	1.33002	0.88221	1.6315	75.79	-0.1863	0.0399	0.2262	1310.3923	0.147554	-439.083802	-439.074704	-439.07376	-439.117882	33.127	
C	 0.041328649	 1.3431959414	-0.1152302384	-0.325013
N	-0.1813647689	-0.0729984696	 0.1047007657	-0.395522
C	 0.5635474568	-0.6943496371	 1.0986094634	 0.165218
C	 1.2474921859	-0.1679264555	 2.1551805399	-0.087394
O	 1.7911759327	-1.163696523	 2.9221771278	-0.164494
C	 1.462927777	-2.3496393093	 2.3375810831	-0.142624
C	 0.7145912789	-2.120568537	 1.2227389529	 0.23347
O	 0.1725147199	-2.9671552919	 0.3131983486	-0.271537
C	 0.4277001089	-4.3396332092	 0.5486587564	-0.251127
H	 1.0974100247	 1.5981473634	-0.3035962761	 0.109195
H	-0.5583117691	 1.676316215	-0.9654125583	 0.123075
H	-0.286470041	 1.9089130237	 0.7645871371	 0.130724
H	-0.2170364711	-0.6230317445	-0.7418457173	 0.241327
H	 1.4230278239	 0.8375309372	 2.4946871334	 0.124142
H	 1.8260748903	-3.2390327925	 2.8210488257	 0.129412
H	 1.5064239108	-4.5471267628	 0.5394607206	 0.122352
H	 0.0136984707	-4.6562305049	 1.5154388211	 0.124414
H	-0.0580205794	-4.8955004437	-0.2546676358	 0.134381
75.9064	111.8862	147.8201	190.4541	220.5181	242.0533	293.2943	339.344	412.9557	545.3474	577.8251	587.5646	634.5286	663.4869	699.5444	722.2068	764.9078	893.7856	1054.5303	1064.4327	1091.3884	1147.2157	1164.0327	1182.4961	1200.4166	1225.3013	1242.0395	1265.4142	1342.9829	1403.7076	1461.0285	1477.1255	1481.8411	1484.8581	1508.5341	1510.0662	1527.2712	1621.1517	1685.0831	2967.5762	2999.519	3055.5307	3055.7744	3118.4056	3136.9503	3287.8683	3293.2372	3589.3601
CNC1=COC=C1OC	CNc1cocc1OC	
InChI=1S/C6H9NO2/c1-7-5-3-9-4-6(5)8-2/h3-4,7H,1-2H3	InChI=1S/C6H9NO2/c1-7-5-3-9-4-6(5)8-2/h3-4,7H,1-2H3
