13
gdb 25416	5.27254	1.04916	0.87504	4.7605	73.91	-0.254	-0.0782	0.1759	1202.0622	0.090733	-452.809208	-452.802094	-452.80115	-452.841156	26.164	
O	-0.1183393931	-0.0239896957	-0.0005743714	-0.259
C	-0.0224426016	 1.1772070458	 0.0084058653	 0.104067
C	 1.2420708595	 1.9365271963	 0.0006729597	 0.181354
C	 1.204551503	 3.3037563832	 0.0127639703	-0.01777
N	 2.3587123367	 4.0090116029	 0.0058255001	-0.342362
C	 3.632442339	 3.4090114261	-0.0136536101	 0.40059
O	 4.6462945178	 4.0740924442	-0.018971066	-0.361164
C	 3.5415477339	 1.9394536088	-0.0250341762	-0.101083
N	 2.4432173653	 1.2596768596	-0.0185524028	-0.248809
H	-0.925032353	 1.8328895468	 0.0240958693	 0.062858
H	 0.2780352412	 3.8674588211	 0.0279094666	 0.156299
H	 2.3554593165	 5.0210728876	 0.0145298033	 0.278073
H	 4.4916352749	 1.4095876831	-0.040154238	 0.146947
85.4728	170.637	197.3547	319.9254	407.0648	419.5559	440.089	502.7585	614.6053	654.0009	741.0232	785.7391	808.6001	836.2063	906.5434	955.2802	984.0579	1028.4558	1175.7232	1236.7078	1261.2509	1319.5995	1396.313	1448.9528	1478.7131	1584.7248	1649.0877	1799.4142	1819.1666	2850.7633	3162.4839	3196.215	3590.6024
O=CC1=CNC(=O)C=N1	O=Cc1c[nH]c(=O)cn1	
InChI=1S/C5H4N2O2/c8-3-4-1-7-5(9)2-6-4/h1-3H,(H,7,9)	InChI=1S/C5H4N2O2/c8-3-4-1-7-5(9)2-6-4/h1-3H,(H,7,9)
