18
gdb 58166	2.21803	1.2928	0.9143	2.3306	74.28	-0.2869	-0.1017	0.1852	1287.3188	0.144353	-439.106391	-439.096171	-439.095227	-439.142194	36.116	
C	-0.0151467834	 1.5756091637	-0.003093484	-0.395922
C	 0.0489287787	 0.0427343746	 0.0186821898	 0.017274
C	 0.8874216782	-0.4520990611	 1.2047968843	-0.412559
C	-1.4084018771	-0.5172315076	-0.0027448638	 0.017362
O	-2.133172325	-0.005041227	-1.0913224893	-0.42371
C	-1.4335072158	-2.0383288142	-0.0871945847	 0.280159
O	-1.651438251	-2.6123238401	-1.1291975599	-0.292389
C	-1.2159739145	-2.8054166313	 1.1471900173	 0.255182
N	-1.0857948676	-3.4026077321	 2.1289307534	-0.301055
H	 0.9910978886	 1.9933894281	-0.1049659965	 0.116661
H	-0.6280511352	 1.9310884841	-0.8325868324	 0.142217
H	-0.4433229638	 1.9598651763	 0.9303706256	 0.116239
H	 0.5149695225	-0.2983839781	-0.9158632598	 0.088003
H	 1.0906292433	-1.5253263626	 1.1704026385	 0.130911
H	 1.8535577116	 0.0613269335	 1.2109538248	 0.125168
H	 0.3950535486	-0.2349212636	 2.1594897689	 0.127595
H	-1.9102565381	-0.2139609061	 0.9279502676	 0.110191
H	-2.1210056099	-0.6869164765	-1.7787144898	 0.298675
38.5919	64.4746	137.047	174.0007	226.3107	234.7766	278.5251	310.372	334.1477	362.4906	381.3238	389.4064	433.6914	540.3588	613.2395	706.0829	851.499	867.6849	923.3722	936.5244	973.9525	1075.7999	1114.2105	1119.4522	1156.3092	1188.4656	1277.826	1287.9827	1345.6617	1359.354	1397.9037	1425.1887	1435.7411	1485.3086	1490.0038	1506.3487	1513.8214	1772.7593	2338.1896	3004.7521	3021.1425	3033.9053	3039.5171	3098.1746	3105.0457	3118.2186	3142.3189	3732.3811
CC(C)C(O)C(=O)C#N	CC(C)[C@@H](O)C(=O)C#N	
InChI=1S/C6H9NO2/c1-4(2)6(9)5(8)3-7/h4,6,9H,1-2H3	InChI=1S/C6H9NO2/c1-4(2)6(9)5(8)3-7/h4,6,9H,1-2H3/t6-/m1/s1
