14
gdb 9819	2.95629	1.88051	1.45799	1.8604	58.59	-0.2539	-0.1049	0.149	878.8815	0.103562	-419.665059	-419.656738	-419.655794	-419.698699	28.479	
C	-0.3296894699	 1.4645093149	 0.0492439413	-0.495061
C	-0.0468437673	-0.0148539597	-0.0501333091	 0.322695
C	 0.9483815765	-0.5602912996	-0.979366701	-0.213603
O	 1.2350573146	-0.4648023911	 0.424598049	-0.265023
C	-1.1210302201	-0.9911757932	 0.3995512946	 0.233019
O	-1.5193337184	-1.9114919119	-0.2744966854	-0.269811
C	-1.6898876787	-0.863397112	 1.8224002955	 0.093684
O	-1.4161926397	 0.0145415413	 2.5955782164	-0.211888
H	 0.5402172858	 2.0276150394	-0.2980726008	 0.135536
H	-1.1884272456	 1.734735477	-0.5752472617	 0.129841
H	-0.5462522204	 1.746523355	 1.0807639994	 0.165506
H	 0.8258564499	-1.5686578076	-1.3659150045	 0.137523
H	 1.5081384057	 0.1282800093	-1.6094249001	 0.122574
H	-2.3955647725	-1.6885539619	 2.0555444863	 0.115008
34.1527	106.6926	172.9937	177.6058	222.1837	314.6759	330.2793	374.1775	496.5235	600.3833	625.4169	669.2332	806.9957	880.8824	929.6239	1002.0336	1038.0612	1103.6223	1132.6219	1141.034	1167.8526	1288.9232	1370.033	1393.6365	1414.2803	1478.5024	1503.5259	1523.1164	1800.8627	1827.0155	2925.0249	3044.6302	3100.7075	3115.9168	3148.5528	3196.4833
CC1(CO1)C(=O)C=O	C[C@]1(CO1)C(=O)C=O	
InChI=1S/C5H6O3/c1-5(3-8-5)4(7)2-6/h2H,3H2,1H3	InChI=1S/C5H6O3/c1-5(3-8-5)4(7)2-6/h2H,3H2,1H3/t5-/m0/s1
