18
gdb 63602	4.45301	0.66367	0.6397	4.5584	88.71	-0.258	-0.0604	0.1976	1769.5146	0.144766	-401.908807	-401.898812	-401.897868	-401.944646	35.028	
C	-0.087275613	 1.5335990907	-0.0888843713	-0.436847
C	-0.0244383931	 0.024477953	 0.0033852644	 0.328317
C	-1.2302333628	-0.7072907739	-0.5508193869	-0.45653
N	 1.3045316986	-0.5503680099	-0.2066679549	-0.342096
C	 0.703846244	-0.6306582613	 1.1543964173	-0.329902
C	 1.3279164006	 0.1149542326	 2.2029312471	 0.17833
C	 1.8202008133	 0.7301235796	 3.1208269082	 0.058739
C	 2.4371147042	 1.4860239491	 4.1761023128	 0.016397
O	 2.2818149991	 1.2736691174	 5.3579993531	-0.234194
H	 0.8233863273	 1.9859312512	 0.3062022413	 0.139905
H	-0.1974282049	 1.8404848818	-1.1345742511	 0.122631
H	-0.9443054981	 1.9218613236	 0.4710207247	 0.123165
H	-1.336574901	-0.5045521417	-1.6226827378	 0.130341
H	-1.1416322836	-1.7902005084	-0.4169050621	 0.117571
H	-2.151700219	-0.3791348347	-0.0590025412	 0.134394
H	 1.2344941737	-1.4668827067	-0.6450261304	 0.235331
H	 0.3070389671	-1.5947858093	 1.4651933477	 0.11612
H	 3.0900675377	 2.3082230469	 3.8178480294	 0.098327
47.1694	77.8091	91.8836	176.9038	188.4476	209.3719	249.7555	293.7019	355.8363	396.047	413.7066	491.5574	569.1226	632.2722	706.611	799.9645	851.4981	905.0057	960.81	971.4614	1012.2432	1020.423	1060.5585	1084.2866	1149.7695	1160.6103	1232.753	1300.258	1349.8135	1413.7112	1421.5609	1424.5798	1432.3141	1476.4009	1486.8978	1496.7209	1508.0424	1761.8328	2317.7827	2915.077	3028.8738	3040.114	3095.0546	3102.0867	3105.8297	3129.3707	3143.1967	3486.0137
CC1(C)NC1C#CC=O	CC1(C)N[C@H]1C#CC=O	
InChI=1S/C7H9NO/c1-7(2)6(8-7)4-3-5-9/h5-6,8H,1-2H3	InChI=1S/C7H9NO/c1-7(2)6(8-7)4-3-5-9/h5-6,8H,1-2H3/t6-/m0/s1
