19
gdb 114398	3.36803	1.07726	1.04441	4.1376	74.97	-0.2704	0.0091	0.2795	1249.4359	0.15958	-423.044473	-423.036148	-423.035204	-423.077892	31.205	
C	 0.2259696089	 1.2929891874	 0.3439968694	-0.384185
C	 0.0791663056	-0.19668934	 0.018088139	-0.193567
C	 0.6798483028	-0.5689635438	-1.3321810805	 0.018674
C	 2.233358419	-0.507947247	-1.5241515638	-0.266426
C	 2.2234889442	-1.9841828146	-2.045331998	-0.230208
C	 0.7077039711	-2.0602208654	-1.7408939185	 0.082174
O	 0.9827087887	-2.961849277	-0.6183861513	-0.25616
C	 2.3347225358	-2.9823038415	-0.9001717204	 0.455874
O	 3.1781546767	-3.603554177	-0.3396538641	-0.324711
H	 1.2785923354	 1.5955304293	 0.3694026251	 0.119946
H	-0.2790226439	 1.9162067025	-0.4025630157	 0.113889
H	-0.2076742222	 1.5260548589	 1.3209169687	 0.119489
H	 0.5526402131	-0.8005879506	 0.7997095554	 0.117112
H	-0.9833877202	-0.4724552203	 0.022197576	 0.101348
H	 0.187681341	 0.0020698522	-2.1283371106	 0.080869
H	 2.5641017111	 0.2120550918	-2.2737634729	 0.117826
H	 2.82082794	-0.3554687144	-0.6156388519	 0.123633
H	 2.7060295433	-2.2222166344	-2.9900895981	 0.108593
H	-0.0592938406	-2.479015106	-2.3909140076	 0.09583
71.2216	101.0229	167.5457	200.3456	235.5537	295.9816	396.3446	438.1339	532.8539	641.5048	730.7883	770.2184	790.8552	815.2736	851.4208	892.1766	905.0487	952.1465	970.117	993.4355	1001.6876	1061.6565	1082.369	1113.0727	1131.2266	1161.0625	1198.0199	1220.7284	1243.5757	1269.3976	1287.539	1290.9965	1321.7877	1345.9979	1388.2022	1412.794	1483.7306	1491.6886	1499.5575	1507.3012	1934.9882	3026.4573	3030.736	3036.2833	3071.2869	3072.3728	3098.4517	3106.8785	3126.0068	3127.6373	3152.0832
CCC1CC2C1OC2=O	CC[C@H]1C[C@@H]2[C@H]1OC2=O	
InChI=1S/C7H10O2/c1-2-4-3-5-6(4)9-7(5)8/h4-6H,2-3H2,1H3	InChI=1S/C7H10O2/c1-2-4-3-5-6(4)9-7(5)8/h4-6H,2-3H2,1H3/t4-,5+,6-/m0/s1
