14
gdb 128628	3.0534	1.41645	0.97351	3.3361	67.9	-0.2564	-0.0677	0.1887	1128.4725	0.102578	-470.042564	-470.034961	-470.034017	-470.075048	27.506	
C	 0.0211217089	 1.3925607047	 0.0074030547	-0.241764
O	-0.0317353225	-0.04277735	 0.0034981155	-0.248111
C	-1.2389208702	-0.6006332931	 0.0107080446	 0.439639
N	-2.3171891372	 0.1193509274	 0.0208851478	-0.427037
C	-3.5418456123	-0.5309326627	 0.02800672	 0.453174
O	-4.6226108509	 0.0092753365	 0.0376482701	-0.371735
N	-3.4649598627	-1.9426144535	 0.0232027041	-0.263249
N	-2.3641644121	-2.6881286868	 0.0128037149	-0.135937
C	-1.2392461269	-2.0432870689	 0.0064080174	-0.078158
H	 1.0820051481	 1.6407914932	 0.0001062237	 0.139638
H	-0.4795705512	 1.7961327561	-0.8755252136	 0.153198
H	-0.4660879833	 1.7907982175	 0.9002448032	 0.153186
H	-4.3404799295	-2.4472979699	 0.0281702942	 0.283095
H	-0.3198083083	-2.6135107405	-0.0020922066	 0.144061
108.5778	147.2287	168.7799	215.7656	239.521	435.0438	448.3239	503.8721	568.1203	627.7804	685.4755	742.2064	758.353	793.7078	880.7079	972.3124	1022.8857	1039.8756	1159.8885	1177.7324	1188.577	1251.0244	1313.4529	1423.1598	1425.9668	1479.122	1489.3985	1499.7883	1586.9998	1650.2297	1827.2627	3057.8977	3136.8445	3167.1194	3224.2594	3609.1299
COC1=NC(=O)NN=C1	COc1nc(=O)[nH]nc1	
InChI=1S/C4H5N3O2/c1-9-3-2-5-7-4(8)6-3/h2H,1H3,(H,6,7,8)	InChI=1S/C4H5N3O2/c1-9-3-2-5-7-4(8)6-3/h2H,1H3,(H,6,7,8)
