17
gdb 99557	2.32475	1.21105	0.94751	3.2354	75.3	-0.265	0.0161	0.2812	1273.2618	0.133549	-417.958971	-417.94877	-417.947826	-417.994329	35.811	
C	 0.0210649955	 1.3507111654	-0.2464685181	-0.241389
O	-0.0038453757	-0.0162661145	 0.1220755112	-0.238446
C	-1.2817102721	-0.6168340517	 0.0530213161	-0.080436
C	-1.7903177244	-0.7276387082	-1.318493709	 0.355746
C	-2.2266954083	-0.781470685	-2.436371044	-0.441504
C	-1.1291133626	-2.0068215018	 0.7170637574	-0.143575
N	-0.1157773796	-2.7802515982	 0.0135378052	-0.49312
C	-0.8537441491	-1.8306429421	 2.1625339869	 0.265674
N	-0.625062212	-1.7458892653	 3.2925256079	-0.324879
H	 1.0519307305	 1.688543829	-0.1260647565	 0.137861
H	-0.2898019494	 1.4920548176	-1.2892670346	 0.127541
H	-0.6318931133	 1.949470546	 0.4050162848	 0.11615
H	-2.0021021421	-0.0335132792	 0.649646569	 0.112518
H	-2.6056505657	-0.844129855	-3.426949677	 0.20534
H	-2.0918862834	-2.5214323996	 0.6262075741	 0.141091
H	 0.7604169354	-2.2675629486	 0.0331839807	 0.255448
H	 0.0347412563	-3.6699470788	 0.4770335758	 0.24598
67.417	90.9488	124.6178	159.3397	184.8431	199.9917	241.6857	283.0974	312.7802	343.1913	398.9395	483.3509	574.9043	585.8102	633.5968	687.6149	713.6549	841.4562	892.1281	958.1264	993.4463	1015.8316	1119.8802	1159.1664	1181.1035	1185.5991	1239.4102	1303.9826	1351.3332	1362.9774	1392.6208	1479.0801	1485.1397	1508.7694	1651.0356	2236.5293	2347.8665	2973.4499	2996.8346	3060.6597	3060.989	3133.0449	3500.1975	3510.555	3594.4473
COC(C#C)C(N)C#N	CO[C@@H](C#C)[C@@H](N)C#N	
InChI=1S/C6H8N2O/c1-3-6(9-2)5(8)4-7/h1,5-6H,8H2,2H3	InChI=1S/C6H8N2O/c1-3-6(9-2)5(8)4-7/h1,5-6H,8H2,2H3/t5-,6-/m0/s1
