17
gdb 12839	2.91878	2.58342	1.84595	1.8146	67.1	-0.241	0.0228	0.2638	785.2546	0.143513	-363.876322	-363.869404	-363.86846	-363.907358	26.77	
C	-0.1292409599	 1.5399468855	 0.1539786867	-0.466607
C	 0.0602162771	 0.0469251234	 0.0283037994	 0.408015
C	-1.1743614821	-0.8802601123	 0.1909973416	-0.277307
C	-0.467277155	-1.6187750705	 1.3713856422	-0.218699
C	 0.8136502951	-0.7762594403	 1.1256648884	-0.049127
N	 1.8799136368	-1.4849672137	 0.4058946918	-0.268202
C	 1.7756973477	-1.1224780317	-0.8059984752	 0.102654
O	 0.8156904302	-0.2425383781	-1.1835461075	-0.260481
H	 0.8371319185	 2.0531218966	 0.1635905918	 0.128402
H	-0.7197590633	 1.9310875436	-0.6809579493	 0.130072
H	-0.6559110839	 1.7773538067	 1.0835872259	 0.121213
H	-2.1007763083	-0.3620780835	 0.4506353168	 0.104397
H	-1.3563102157	-1.4946550963	-0.6929689469	 0.113455
H	-0.9300088598	-1.4378407918	 2.3446041914	 0.103707
H	-0.3215092126	-2.692866828	 1.2446394289	 0.11386
H	 1.2226617609	-0.2483682335	 1.991637561	 0.077847
H	 2.4156695542	-1.4569711161	-1.6157129569	 0.136801
81.1781	217.5682	249.5188	313.6115	326.957	422.3097	568.7419	617.843	657.6296	735.0449	832.5889	839.4141	868.8248	918.9785	930.0559	947.4145	967.8241	983.0155	1035.3616	1110.8192	1129.4841	1180.3984	1193.5421	1203.0015	1220.7666	1247.5674	1277.3841	1307.0837	1326.5483	1339.1151	1411.3681	1469.5801	1483.1276	1486.125	1490.7913	1685.6544	3035.5745	3062.8604	3066.0247	3074.4087	3107.3074	3112.5407	3116.4006	3134.0545	3209.7247
CC12CCC1N=CO2	C[C@]12CC[C@H]1N=CO2	
InChI=1S/C6H9NO/c1-6-3-2-5(6)7-4-8-6/h4-5H,2-3H2,1H3	InChI=1S/C6H9NO/c1-6-3-2-5(6)7-4-8-6/h4-5H,2-3H2,1H3/t5-,6+/m1/s1
