19
gdb 118812	2.26993	1.03124	0.80494	0.974	78.68	-0.2426	0.0425	0.2851	1448.1788	0.155897	-422.968657	-422.958489	-422.957545	-423.003906	37.485	
O	 0.1288532085	 1.3906644699	 0.1850028797	-0.417607
C	 0.0338452214	-0.0206658172	 0.2663431401	-0.063676
C	-1.3236508376	-0.5503028098	-0.205902958	-0.266981
C	-1.4400462548	-2.0561703273	-0.0999110831	 0.393964
O	-0.5810082534	-2.7749201234	-0.9501473118	-0.470663
C	-1.80816683	-2.7115516752	 1.2026967535	-0.349661
C	-2.7987513428	-2.719280752	 0.0354366155	-0.257082
C	-4.0117287689	-1.9607429882	 0.0979798378	 0.333394
C	-5.034659402	-1.3291381974	 0.1487425772	-0.453912
H	 0.0229731211	 1.6395704472	-0.7389378533	 0.28263
H	 0.8449707378	-0.5050358287	-0.3020624291	 0.078151
H	 0.185508585	-0.2672717451	 1.3231495851	 0.113251
H	-2.1165018599	-0.0718789901	 0.3759510046	 0.121983
H	-1.4779602119	-0.2674590864	-1.2561315939	 0.100265
H	 0.295068004	-2.7885623353	-0.5498060493	 0.286425
H	-1.3385285141	-3.6589092598	 1.4418534291	 0.119471
H	-2.0505116101	-2.0815588456	 2.0510105864	 0.128781
H	-2.8641006636	-3.6625971586	-0.4979880359	 0.125853
H	-5.9379104086	-0.772855087	 0.1904925054	 0.195416
81.7745	88.9551	104.3397	149.7297	196.5463	257.0844	299.3484	325.293	342.4182	375.9081	434.0528	454.478	524.3528	584.6693	606.8152	653.3754	745.3511	788.9789	817.1698	897.2781	934.3551	954.9018	1017.9006	1033.6719	1061.6992	1082.0384	1095.4239	1118.514	1160.7559	1247.1697	1273.6476	1317.2325	1326.8023	1346.1584	1395.3295	1406.3037	1423.1949	1473.8292	1478.998	1515.2548	2235.8371	2965.353	3022.0332	3065.5221	3100.7604	3137.5897	3158.9323	3233.3078	3504.734	3801.3446	3814.3079
OCCC1(O)CC1C#C	OCC[C@@]1(O)C[C@H]1C#C	
InChI=1S/C7H10O2/c1-2-6-5-7(6,9)3-4-8/h1,6,8-9H,3-5H2	InChI=1S/C7H10O2/c1-2-6-5-7(6,9)3-4-8/h1,6,8-9H,3-5H2/t6-,7-/m1/s1
