16
gdb 22518	2.46392	1.23986	1.05256	2.5522	70.06	-0.2479	-0.0462	0.2017	1182.964	0.12031	-474.962639	-474.953281	-474.952337	-474.997263	32.964	
C	-0.108786049	 1.6529560971	 0.1321068055	-0.433997
C	 0.0623429249	 0.1493746947	 0.0300681298	 0.22842
O	 1.1720915771	-0.2646975939	-0.821808198	-0.328983
C	 1.8479906649	-0.9647468197	 0.252818393	-0.167719
C	 0.7365812348	-0.5711298087	 1.1878685417	 0.29819
N	 0.4021017046	-0.7141353013	 2.3963250306	-0.212941
O	 1.3576392871	-1.4568815524	 3.0999764245	-0.381965
C	-1.2164826671	-0.5622290428	-0.4205708557	 0.13968
O	-2.3247078186	-0.1281855477	-0.2607497478	-0.236421
H	 0.7900710714	 2.1183359608	 0.5415241482	 0.124082
H	-0.3061486058	 2.0704596466	-0.8593693867	 0.137428
H	-0.9622433987	 1.8766338621	 0.7761243211	 0.154468
H	 1.9488234814	-2.0402469885	 0.0616584566	 0.135261
H	 2.8360866946	-0.5445719316	 0.4767053461	 0.136201
H	 0.9847531031	-1.4865141489	 3.988339637	 0.316019
H	-1.0184925348	-1.5372724658	-0.916853226	 0.092278
60.9816	97.9001	139.8286	162.1585	199.6688	256.6169	294.9935	314.8119	371.4963	442.5728	488.3015	521.1318	557.5979	722.826	786.4725	870.6517	950.7469	981.1908	989.774	1007.3277	1016.1467	1109.3457	1130.838	1138.2184	1201.8663	1247.9094	1313.8367	1390.069	1406.1859	1413.3603	1475.9168	1484.6792	1499.2386	1801.3092	1835.8833	2901.0438	3021.9687	3053.8168	3064.0482	3130.6982	3144.9364	3811.4837
CC1(OCC1=NO)C=O	C[C@]1(OCC1=NO)C=O	
InChI=1S/C5H7NO3/c1-5(3-7)4(6-8)2-9-5/h3,8H,2H2,1H3	InChI=1S/C5H7NO3/c1-5(3-7)4(6-8)2-9-5/h3,8H,2H2,1H3/t5-/m0/s1
