15
gdb 9304	4.17724	1.04862	0.87066	4.9368	67.19	-0.2605	-0.0488	0.2117	1256.4675	0.11815	-395.985185	-395.976389	-395.975445	-396.019193	30.873	
N	-0.1852408179	 1.2673972738	-0.2586968555	-0.554412
C	 0.0512987279	 0.0457988642	 0.3302401806	 0.283119
N	 1.1704617924	-0.4632252543	 0.6656093148	-0.289899
C	 2.3875672861	 0.2806262085	 0.3766736528	-0.178919
C	 3.5708680633	-0.5001984697	 0.9507394048	-0.056736
O	 3.6070917541	-1.8130866069	 0.4387639763	-0.418486
C	-1.1559918187	-0.7043485657	 0.6301539638	 0.272034
N	-2.1335157881	-1.2808735082	 0.8475030674	-0.313532
H	 0.5851805118	 1.7214593507	-0.7221747058	 0.274046
H	-1.0951320436	 1.4369955151	-0.6559555582	 0.278417
H	 2.5225543237	 0.3832257721	-0.7129285591	 0.108945
H	 2.3543145459	 1.2952413279	 0.8061409412	 0.103855
H	 4.5128540538	-0.0162363392	 0.6729411155	 0.104502
H	 3.4986711345	-0.4944005409	 2.0500953084	 0.093979
H	 2.7238657448	-2.1736808574	 0.5920734331	 0.293088
52.8303	88.2259	134.4788	197.817	244.6503	289.6708	371.0165	394.5051	456.8711	470.7247	499.7684	509.3801	611.1244	722.6774	831.779	890.2452	911.6646	1031.1022	1084.0531	1103.367	1142.8463	1224.9257	1259.7094	1345.0151	1380.6818	1391.2334	1436.1389	1462.5596	1505.095	1636.6283	1722.9714	2361.7095	2958.9139	2976.8989	3004.2391	3078.5406	3597.2015	3713.5417	3766.9895
NC(=NCCO)C#N	NC(=NCCO)C#N	
InChI=1S/C4H7N3O/c5-3-4(6)7-1-2-8/h8H,1-2H2,(H2,6,7)	InChI=1S/C4H7N3O/c5-3-4(6)7-1-2-8/h8H,1-2H2,(H2,6,7)
