22
gdb 107876	2.31989	1.67479	1.17923	1.5277	86.86	-0.2225	0.0897	0.3122	1156.0373	0.193805	-367.125674	-367.116876	-367.115932	-367.159082	34.214	
C	 0.1460411356	 1.2445614576	 0.3092500746	-0.377085
C	 0.2723353977	-0.2806989374	 0.2041222965	-0.330579
C	 0.8942344682	-0.7173434039	-1.0985539551	 0.387443
C	 2.3034628978	-0.3344676114	-1.5857426569	-0.301033
C	 1.6598357723	-1.0885965502	-2.7392201514	 0.004092
C	 0.9179310519	-2.1082936612	-1.8272812909	-0.150096
C	-0.3650566381	-1.7761737672	-2.5926518213	 0.077852
C	-1.7674237326	-1.9499650479	-2.0416459899	-0.437064
N	 0.2908078734	-0.3915682434	-2.5175285266	-0.211804
H	 1.1261351363	 1.7293474233	 0.2612836763	 0.118476
H	-0.459542654	 1.636957119	-0.5125184196	 0.138064
H	-0.323485047	 1.5322883789	 1.25446512	 0.109535
H	 0.9053288209	-0.6615573198	 1.0172491386	 0.101686
H	-0.7091643011	-0.7419493413	 0.3433468994	 0.106473
H	 2.4884410485	 0.7308214895	-1.7488982295	 0.104685
H	 3.1440868478	-0.8198494422	-1.0819578512	 0.092812
H	 2.0154081591	-1.261210171	-3.7566763177	 0.077793
H	 1.2952083751	-3.0628482533	-1.4405362175	 0.056571
H	-0.350171064	-2.1248185771	-3.6348469858	 0.066666
H	-2.4688252104	-1.326186744	-2.6063746286	 0.12721
H	-2.085775701	-2.9925833189	-2.1528510815	 0.116775
H	-1.8573096263	-1.687085108	-0.9868140519	 0.121529
60.8066	142.1644	178.8184	207.5653	247.2827	258.4796	329.8643	398.9929	450.645	529.2956	624.348	698.6017	728.7863	773.1166	832.6353	851.1541	853.6284	880.804	925.7263	964.3195	987.3517	1018.8114	1040.8137	1051.4734	1055.6249	1092.3813	1121.1635	1128.1738	1147.54	1162.0863	1170.6581	1219.9891	1243.2032	1266.8211	1276.1685	1296.693	1322.3036	1371.3999	1404.3471	1410.1952	1428.8084	1474.1032	1492.3212	1494.1414	1497.0602	1498.4244	1509.5019	3003.7163	3022.6249	3026.9721	3039.0967	3041.6206	3050.4239	3084.9206	3095.7445	3098.8657	3110.578	3115.0793	3120.5863	3141.5861
CCC12CC3C1C(C)N23	CC[C@@]12C[C@H]3[C@@H]1[C@@H](C)N23	
InChI=1S/C8H13N/c1-3-8-4-6-7(8)5(2)9(6)8/h5-7H,3-4H2,1-2H3	InChI=1S/C8H13N/c1-3-8-4-6-7(8)5(2)9(6)8/h5-7H,3-4H2,1-2H3/t5-,6+,7+,8-/m1/s1
