17
gdb 124862	3.62797	1.30995	1.04811	1.0135	73.61	-0.2619	-0.0245	0.2374	1135.4182	0.136586	-418.002625	-417.994722	-417.993777	-418.036416	29.478	
C	-0.0255929947	 1.4971083991	-0.1062698261	-0.462509
C	 0.0153592389	-0.0163641171	-0.030375349	 0.2219
C	 1.3597491252	-0.7202951068	-0.1459562576	-0.288009
C	 0.6638170226	-0.6726459263	 1.1799910019	-0.288021
C	-1.1530710347	-0.7083010908	-0.6187855204	 0.348331
N	-1.2861245829	-2.0130704024	-0.6414253307	-0.204647
O	-2.51684389	-2.2124467126	-1.2804267152	-0.149624
C	-2.9813409937	-0.9991695189	-1.5682149792	 0.09788
N	-2.2111541136	-0.0278053456	-1.1989395386	-0.319202
H	 0.8745778725	 1.9179668078	 0.3508631386	 0.110033
H	-0.0780500428	 1.8427430676	-1.142813359	 0.130562
H	-0.8972089913	 1.8988956506	 0.4186130433	 0.130544
H	 1.3778861443	-1.6653249747	-0.6757443287	 0.137411
H	 2.2281778034	-0.0886365251	-0.2993872887	 0.11634
H	 1.0500555535	-0.0080597205	 1.945394736	 0.11634
H	 0.2105872035	-1.5854199082	 1.5481181374	 0.137423
H	-3.9356370403	-0.9429685362	-2.071368614	 0.165249
16.2545	178.6703	191.6792	221.491	307.1992	324.8518	441.826	444.313	544.3848	627.8505	778.3251	792.2557	841.9868	846.6694	900.4062	922.7287	961.765	962.5712	987.4418	997.9267	1050.8981	1077.378	1087.8898	1123.218	1154.8642	1200.8929	1219.5087	1303.5361	1316.7818	1384.3955	1421.3758	1462.6924	1485.9533	1489.7983	1498.389	1524.8888	1593.374	3041.2004	3111.1959	3114.4177	3135.8277	3138.7962	3223.6208	3237.4284	3265.2564
CC1(CC1)C1=NOC=N1	CC1(CC1)c1nocn1	
InChI=1S/C6H8N2O/c1-6(2-3-6)5-7-4-9-8-5/h4H,2-3H2,1H3	InChI=1S/C6H8N2O/c1-6(2-3-6)5-7-4-9-8-5/h4H,2-3H2,1H3
