18
gdb 127082	2.65191	1.32451	1.06436	3.7143	75.67	-0.2076	0.0134	0.221	1187.5017	0.147445	-435.243202	-435.234096	-435.233152	-435.277414	33.415	
C	 0.0053539048	 1.4978791332	 0.0583676834	-0.326853
N	-0.0447465895	 0.0391600003	 0.0440533121	-0.181147
C	 0.7890634622	-0.5550189701	 1.0880385042	-0.329011
C	-1.3533342649	-0.4962975452	-0.0248504421	 0.048619
C	-1.7887192314	-1.3801285866	-0.9819373276	 0.435835
N	-1.1114190927	-1.9905908609	-2.0036152629	-0.591632
O	-3.0679317828	-1.6984370841	-0.7897603674	-0.218216
N	-3.5500323225	-0.9953975859	 0.3511843008	-0.171703
C	-2.517049835	-0.3127243087	 0.7759563833	-0.009953
H	 1.0414145127	 1.8286540251	-0.0719167891	 0.117803
H	-0.5918195523	 1.8940196161	-0.7665672711	 0.125237
H	-0.370440897	 1.9390341039	 0.9988618305	 0.100234
H	 0.4676501549	-0.2790207547	 2.10795353	 0.10063
H	 0.7597351655	-1.6439271894	 1.0045870437	 0.130161
H	 1.8256547978	-0.2244913813	 0.9602879736	 0.115554
H	-0.2555111351	-1.5043767721	-2.2358089758	 0.263799
H	-1.6729523034	-2.234735745	-2.8068614775	 0.265613
H	-2.6416125813	 0.3120544754	 1.650505602	 0.125031
38.4254	149.0982	149.4892	234.1812	235.4861	270.495	285.3961	344.0439	377.413	474.4503	502.515	596.1043	618.3287	657.2689	742.499	766.9947	865.8718	918.9587	928.6752	965.2523	1057.8255	1073.2812	1119.6697	1173.3387	1184.3209	1211.1451	1234.4949	1285.8995	1374.5268	1435.7715	1440.6215	1470.447	1480.6366	1495.901	1498.6857	1517.6159	1537.7772	1618.4198	1686.5471	2946.7106	2953.1962	3059.1448	3061.3622	3116.1263	3119.3566	3230.6304	3553.2666	3663.1106
CN(C)C1=C(N)ON=C1	CN(C)c1c(N)onc1	
InChI=1S/C5H9N3O/c1-8(2)4-3-7-9-5(4)6/h3H,6H2,1-2H3	InChI=1S/C5H9N3O/c1-8(2)4-3-7-9-5(4)6/h3H,6H2,1-2H3
