17
gdb 14520	3.85281	1.77256	1.49529	2.1467	64.02	-0.2352	0.0519	0.287	872.9147	0.143119	-400.910957	-400.90375	-400.902805	-400.942142	28.561	
O	 0.7543313808	-0.2796493237	 1.3083453599	-0.417815
C	 0.1197557319	 0.0423174529	 0.0862244032	-0.132029
C	-1.2667144859	-0.5900461537	 0.0130949428	 0.39903
O	-1.9887742527	-0.1604423075	 1.1687856029	-0.488842
C	-2.089576635	-0.7133377973	-1.3134498099	-0.111319
C	-1.1346125678	-1.8476933466	-1.7616392978	-0.213907
C	-1.4927060142	-2.1033937702	-0.2774529678	-0.063249
N	-2.9346111148	-1.8096532953	-0.67927381	-0.335247
H	 0.0697752967	-0.1983748087	 1.9843437485	 0.285896
H	 0.0081707523	 1.1370346268	-0.0336250824	 0.071435
H	 0.778618533	-0.298061512	-0.7143510254	 0.114609
H	-2.1538603389	 0.7859018874	 1.0837712714	 0.287412
H	-2.5321977637	 0.0817642053	-1.9177049615	 0.076702
H	-1.5906797003	-2.5570790605	-2.4507161164	 0.117256
H	-0.1064526495	-1.605620447	-2.0239379511	 0.100883
H	-1.2275131492	-2.9530990101	 0.3520519265	 0.089543
H	-3.4100828827	-1.4142275596	 0.1355687271	 0.219642
107.8677	175.1489	292.8899	332.9919	357.6951	420.7873	452.3915	506.557	546.4462	639.898	702.9252	788.5632	815.6968	874.9118	903.3898	912.7366	987.1772	1026.73	1046.1211	1066.3696	1077.9277	1086.1442	1148.6607	1167.124	1187.6463	1197.3844	1205.2422	1223.7096	1257.9204	1315.2265	1317.0579	1341.6983	1376.8291	1445.5909	1493.789	1515.6333	2920.5572	3086.9535	3099.2642	3112.4251	3120.3273	3176.3027	3422.787	3777.0064	3791.5227
OCC1(O)C2CC1N2	OC[C@@]1(O)[C@H]2C[C@@H]1N2	
InChI=1S/C5H9NO2/c7-2-5(8)3-1-4(5)6-3/h3-4,6-8H,1-2H2	InChI=1S/C5H9NO2/c7-2-5(8)3-1-4(5)6-3/h3-4,6-8H,1-2H2/t3-,4+,5-
