14
gdb 28980	3.11709	1.54745	1.03484	3.9224	82.02	-0.2247	-0.0565	0.1682	1068.7272	0.102347	-395.749868	-395.742269	-395.741325	-395.781735	29.226	
N	-0.0044904714	 1.3875632759	 0.1320571791	-0.608931
C	 0.0067951701	 0.0143039384	 0.0392704085	 0.23848
C	-1.1703445021	-0.7483987479	 0.0217552632	-0.035566
N	-1.1748929981	-2.0744503033	-0.0110389495	-0.242594
C	 0.0216031238	-2.6730458564	-0.0283091638	 0.036267
N	 1.204360297	-2.0717595265	-0.0255446744	-0.303469
C	 1.207412104	-0.7308522354	 0.0050286704	 0.126497
C	 2.458929625	-0.0443595676	-0.0035673614	 0.209334
C	 3.4791503126	 0.5964654824	-0.017149065	-0.362648
H	 0.8520606472	 1.8541004936	-0.1281990582	 0.260779
H	-0.8412749911	 1.8563856831	-0.1785841409	 0.256628
H	-2.1384545789	-0.2485103226	 0.0362624287	 0.106897
H	 0.0250480677	-3.7588596335	-0.0507224672	 0.11566
H	 4.3994352243	 1.1273412598	-0.0215350996	 0.202666
117.7273	145.5882	229.605	352.1856	374.4675	386.3385	467.9188	484.5488	523.8036	555.9738	604.5062	627.3482	635.2679	669.4782	746.3833	813.5478	883.619	924.5744	973.0551	1081.6719	1160.9622	1220.2073	1251.226	1299.6179	1362.3421	1457.1248	1478.608	1569.1058	1605.6495	1649.2327	2219.262	3130.9155	3177.8599	3497.5006	3569.1031	3679.0304
NC1=CN=CN=C1C#C	Nc1cncnc1C#C	
InChI=1S/C6H5N3/c1-2-6-5(7)3-8-4-9-6/h1,3-4H,7H2	InChI=1S/C6H5N3/c1-2-6-5(7)3-8-4-9-6/h1,3-4H,7H2
