23
gdb 120379	3.25122	0.90262	0.77426	1.3933	87.7	-0.2442	0.0188	0.263	1575.5237	0.20575	-388.30708	-388.297371	-388.296427	-388.342007	36.651	
C	-0.1435201511	 1.6169244859	 0.0276487515	-0.379657
C	-0.0167174475	 0.0910768141	 0.0117707619	-0.174356
C	 0.758563677	-0.4547143324	 1.2170265042	-0.164982
C	 0.8898026874	-1.9840949618	 1.2255512856	-0.056337
C	 1.8119315571	-2.5868058889	 0.1815572887	-0.070527
C	 2.4859465152	-3.6346000162	 0.6580483276	-0.090498
C	 2.1267909255	-3.9115381935	 2.100680947	-0.28105
C	 1.4703572444	-2.5810147339	 2.5445856054	 0.100546
O	 2.4217291161	-1.7196371784	 3.1564122397	-0.429083
H	 0.8418301196	 2.0959067516	 0.0114015139	 0.113568
H	-0.7052405535	 1.9815061776	-0.8381686753	 0.109538
H	-0.6608225558	 1.9612955502	 0.9301331981	 0.114814
H	-1.0179529373	-0.3599636248	-0.0083194406	 0.093455
H	 0.4726150661	-0.2216452528	-0.9196949256	 0.094678
H	 1.7546237606	 0.0026506086	 1.2505023713	 0.086271
H	 0.2571189914	-0.1389249351	 2.1407983144	 0.098456
H	-0.1190344101	-2.4057661667	 1.0834420551	 0.077703
H	 1.8752657972	-2.2148236265	-0.8352343512	 0.092679
H	 3.1783684272	-4.2475201055	 0.0914669106	 0.091741
H	 1.4215801294	-4.751741841	 2.1735936936	 0.107007
H	 2.980216484	-4.1559587906	 2.7421086643	 0.106833
H	 0.6951693649	-2.7234947893	 3.3020345523	 0.079997
H	 3.147003632	-1.6060579005	 2.5309823377	 0.279203
74.7195	84.0052	107.0137	138.7999	245.3658	270.2424	295.3431	313.396	377.6105	415.6045	457.8774	559.7527	715.4496	735.0626	773.4799	796.0664	833.2611	857.5847	886.8514	910.4021	952.8823	971.4303	973.7977	1004.3049	1044.1801	1076.3202	1089.4755	1117.0003	1133.0049	1155.2302	1176.6159	1234.6766	1242.26	1255.4491	1302.3138	1305.2618	1319.1907	1336.3509	1352.1047	1387.0317	1392.9227	1413.9584	1433.6017	1475.4483	1478.143	1492.2467	1499.7526	1510.1058	1670.4537	2964.3381	3009.2005	3013.2861	3025.1439	3029.9867	3038.7541	3066.7432	3069.2575	3082.3516	3096.067	3100.7508	3179.7848	3204.9882	3789.6833
CCCC1C=CCC1O	CCC[C@H]1C=CC[C@H]1O	
InChI=1S/C8H14O/c1-2-4-7-5-3-6-8(7)9/h3,5,7-9H,2,4,6H2,1H3	InChI=1S/C8H14O/c1-2-4-7-5-3-6-8(7)9/h3,5,7-9H,2,4,6H2,1H3/t7-,8+/m0/s1
