18
gdb 18587	4.25635	1.74983	1.3879	1.6209	74.54	-0.2253	0.011	0.2364	928.1737	0.154632	-347.778434	-347.77125	-347.770306	-347.809671	27.814	
C	-0.000628742	 1.5395345197	 0.1783208252	-0.404143
C	 0.0089229058	 0.0297838842	 0.0019625388	-0.055691
C	 1.1274455388	-0.6523475454	-0.8858989457	-0.275715
C	 1.1777608036	-1.8220782475	 0.1637010053	 0.100441
O	 2.3674142299	-2.2824283299	 0.7726646246	-0.281411
C	 2.3280487611	-1.8796343106	 2.1565646195	-0.105813
C	 1.2557809616	-0.8013201548	 2.2389273928	-0.242329
C	 0.5580430606	-0.8480095649	 1.1103444671	 0.217003
H	 0.9773635652	 1.8975168109	 0.5154526882	 0.118984
H	-0.2416957688	 2.0417444293	-0.7645328353	 0.118491
H	-0.7466397231	 1.8465712548	 0.919154318	 0.120549
H	-0.9736189963	-0.3199575501	-0.3367202543	 0.086643
H	 0.8618899009	-0.9059883427	-1.9151835031	 0.098996
H	 2.0530775199	-0.0727196527	-0.8610764497	 0.114218
H	 0.55523383	-2.668596062	-0.1591940716	 0.076618
H	 2.1277982143	-2.755733151	 2.7945924166	 0.102255
H	 3.3146577892	-1.4883911341	 2.4386039194	 0.109771
H	 1.2208069793	-0.0653383531	 3.0321725343	 0.101133
133.5481	147.3509	223.6654	254.9525	340.0626	396.9374	472.1765	623.4664	667.7999	732.037	789.8686	809.6087	866.1821	915.2984	917.6643	929.4081	973.832	1014.2794	1036.8647	1058.548	1088.6006	1125.6229	1136.8276	1155.399	1193.0012	1207.9043	1240.354	1255.7701	1291.9832	1343.6078	1359.9531	1391.6809	1409.8625	1470.6047	1493.1355	1497.8933	1517.7138	1723.9919	2969.6253	2998.649	3026.7328	3030.9649	3033.3044	3060.5845	3098.2328	3106.0497	3131.3515	3212.4968
CC1CC2OCC=C12	C[C@H]1C[C@H]2OC[CH][C]12	
InChI=1S/C7H10O/c1-5-4-7-6(5)2-3-8-7/h2,5,7H,3-4H2,1H3	InChI=1S/C7H10O/c1-5-4-7-6(5)2-3-8-7/h2,5,7H,3-4H2,1H3/t5-,7+/m0/s1
