18
gdb 9238	5.73256	0.78473	0.71255	1.3188	90.98	-0.2389	-0.0075	0.2315	1584.2353	0.150973	-310.627293	-310.61765	-310.616706	-310.661816	34.571	
C	-0.1020296886	 1.544653153	 0.0586433226	-0.3941
C	 0.0146184354	 0.0190946276	 0.0042114019	-0.16028
C	 0.7708379886	-0.5093567031	-1.2425277103	-0.195914
C	 2.2517126312	-0.0746729314	-1.2774644886	-0.38525
C	 0.6627071224	-1.9624825389	-1.3226032799	 0.42488
C	 0.5743673063	-3.1690751219	-1.3763050815	-0.267228
C	 0.4785837824	-4.525359225	-1.4349907437	 0.295283
C	 0.3925766059	-5.7289339325	-1.4881435441	-0.569153
H	 0.8733998721	 2.0307874868	 0.1533345561	 0.122056
H	-0.5858068507	 1.9377875082	-0.8427037361	 0.116788
H	-0.7051799186	 1.8516616233	 0.9183287145	 0.118173
H	 0.5198553896	-0.3545935569	 0.9028747281	 0.108634
H	-0.9871832225	-0.4232948215	 0.0080665872	 0.111739
H	 0.27521308	-0.0902432935	-2.1311795767	 0.10945
H	 2.7525039294	-0.4779977467	-2.1610632121	 0.12936
H	 2.3348061619	 1.0147909167	-1.3058900698	 0.12025
H	 2.7802792813	-0.44027236	-0.3917074908	 0.127497
H	 0.3187371738	-6.7868327142	-1.5336166969	 0.187814
70.0642	74.9931	119.4212	212.0294	216.2721	229.33	274.9103	318.4663	366.0772	471.1267	488.6693	527.8449	541.2568	590.81	599.5624	709.9971	781.6855	837.6707	959.0026	978.3002	1028.5283	1075.3304	1127.5616	1155.3796	1206.2506	1282.0632	1314.7736	1339.3408	1375.5882	1405.6466	1414.1611	1484.1367	1491.8676	1497.9048	1505.2007	1509.2135	2179.6825	2359.7577	2992.8401	3033.8096	3037.7604	3045.7961	3073.3322	3102.4019	3110.5652	3120.0339	3126.4371	3506.5931
CCC(C)C#CC#C	CC[C@@H](C)C#CC#C	
InChI=1S/C8H10/c1-4-6-7-8(3)5-2/h1,8H,5H2,2-3H3	InChI=1S/C8H10/c1-4-6-7-8(3)5-2/h1,8H,5H2,2-3H3/t8-/m1/s1
