18
gdb 37841	3.08555	2.29288	1.69351	1.8816	81.43	-0.205	-0.0387	0.1663	836.1845	0.150273	-364.651251	-364.645335	-364.644391	-364.680936	26.394	
C	-0.0539482315	 1.5327491884	 0.1509240067	-0.261148
N	 1.4710924151	 1.3090307239	 0.0931210148	-0.168023
C	 1.250594239	-0.0251209583	 0.799438337	-0.003683
C	 2.3943970978	-0.9814704398	 0.2951589827	-0.276617
C	 1.7578227436	-0.9941286627	-1.0803360336	 0.035406
C	 0.729571812	-1.8666499085	-1.2751966708	-0.109127
C	-0.618986854	-1.1706678829	-0.9932994545	-0.374403
C	 0.0257585321	 0.0466501781	-0.254219724	 0.26229
C	 1.1870165078	 0.4191959398	-1.1542109841	-0.011087
H	-0.4082591274	 1.803526399	 1.1503669087	 0.101325
H	-0.4160801129	 2.2400376146	-0.6003573347	 0.105756
H	 1.0670533278	 0.0387851812	 1.8750785855	 0.078021
H	 3.3648417823	-0.4863998231	 0.3996374656	 0.117655
H	 2.4014448942	-1.9512911481	 0.795648563	 0.106138
H	 0.8321048372	-2.9242857	-1.0520901486	 0.095409
H	-1.2155666971	-0.8094121847	-1.8415201562	 0.114747
H	-1.2576860554	-1.8446585979	-0.4115964917	 0.108314
H	 1.0471728894	 0.9360022007	-2.1027105357	 0.079028
298.995	375.3825	389.1644	425.7987	463.1567	570.9791	631.7038	684.7963	723.5985	790.658	809.1273	825.7036	863.4597	882.9058	899.1993	907.271	918.6478	951.8962	987.0093	1006.424	1036.8769	1069.8541	1085.5495	1107.6217	1119.2702	1147.5671	1177.3963	1185.2567	1196.2003	1223.0178	1243.537	1259.0669	1261.6317	1307.6148	1321.5786	1475.1671	1486.4364	1519.9167	1539.6817	3015.0919	3044.8163	3052.7767	3063.9368	3086.8672	3110.2349	3125.4524	3126.1751	3167.8008
C1N2C3CC4=CCC13C24	C1N2[C@@H]3C[C]4[CH]C[C@@]13[C@@H]24	
InChI=1S/C8H9N/c1-2-8-4-9-6(8)3-5(1)7(8)9/h1,6-7H,2-4H2	InChI=1S/C8H9N/c1-2-8-4-9-6(8)3-5(1)7(8)9/h1,6-7H,2-4H2/t6-,7+,8-/m1/s1
