20
gdb 91583	2.5278	1.18897	1.02576	2.721	79.09	-0.2347	-0.0239	0.2108	1262.3813	0.169494	-403.115602	-403.106443	-403.105499	-403.150319	33.632	
C	-0.5001802477	 1.0857211695	-0.2017092154	-0.416843
C	 0.1416757171	-0.1972069123	 0.3114455204	-0.041713
C	 1.2373004605	-0.9248576027	-0.5176086406	-0.177734
N	 2.1967359051	-0.9514792605	 0.6456430246	-0.164817
C	 2.4518870502	 0.4669297192	 0.9578321707	-0.294616
C	 1.1858166786	-0.1258997247	 1.4372333262	 0.31672
C	 0.8932588547	-0.3903265394	 2.8934328053	-0.382142
C	 0.2007520778	-1.7241835743	 3.1021745735	 0.154757
O	-0.8306869723	-1.8757400021	 3.7048821494	-0.24309
H	 0.2492384629	 1.8306180982	-0.4872793723	 0.116033
H	-1.1199446206	 0.8842147624	-1.0820508517	 0.121238
H	-1.1455244646	 1.5347705204	 0.5610193165	 0.123898
H	-0.6451496185	-0.907918774	 0.5849403093	 0.09261
H	 0.976301382	-1.940898082	-0.8189867991	 0.113533
H	 1.6300237773	-0.3851144486	-1.3866382013	 0.104105
H	 3.2424593574	 0.6075076642	 1.6891224001	 0.11954
H	 2.4571664938	 1.1911124264	 0.1460454047	 0.113054
H	 1.8411127371	-0.4233989522	 3.4475219263	 0.126498
H	 0.2725068315	 0.4016194299	 3.3259698121	 0.124368
H	 0.7343994279	-2.5842304775	 2.6397379112	 0.094599
53.5183	59.9307	155.9216	185.4886	200.937	235.488	329.0854	387.7118	439.004	488.9806	547.218	640.2858	694.7076	742.4551	825.9018	850.4496	879.5879	906.6655	946.6148	994.901	1025.6229	1063.9107	1084.8081	1098.2472	1115.5989	1135.2007	1162.3705	1190.9712	1208.2784	1247.4291	1274.044	1288.6776	1322.3077	1368.6919	1401.2818	1415.5983	1420.3163	1444.4349	1491.0599	1495.8633	1498.4214	1514.4232	1832.0228	2890.4077	3023.705	3031.3741	3041.5191	3049.6605	3086.9526	3097.4071	3101.5784	3105.8096	3113.9548	3192.5521
CC1CN2CC12CC=O	C[C@H]1CN2C[C@@]12CC=O	
InChI=1S/C7H11NO/c1-6-4-8-5-7(6,8)2-3-9/h3,6H,2,4-5H2,1H3	InChI=1S/C7H11NO/c1-6-4-8-5-7(6,8)2-3-9/h3,6H,2,4-5H2,1H3/t6-,7-,8?/m0/s1
