15
gdb 69216	2.7128	1.73619	1.22629	2.9051	67.28	-0.2849	-0.0267	0.2583	994.7422	0.112857	-453.977714	-453.970113	-453.969169	-454.009791	28.608	
C	-0.0326824539	 1.5395067065	 0.0171169657	-0.471973
C	 0.004348418	 0.0353877741	 0.0000804314	 0.231005
C	 0.6587225695	-0.7425171419	-1.0871429112	-0.288015
N	 1.2759420901	-0.6794398962	 0.2651225152	-0.204163
C	 0.9291058295	-1.8341167395	 1.0242700923	 0.449384
O	 1.6567969863	-2.684241209	 1.4169275094	-0.31368
O	-0.4392552658	-1.8487315413	 1.2855284215	-0.227233
C	-1.0388068296	-0.7173408078	 0.7595417574	 0.380121
N	-2.2324447022	-0.3725636848	 0.9411181507	-0.531608
H	 0.8184505997	 1.9502571099	-0.5302968282	 0.134505
H	-0.9591745648	 1.8877029661	-0.4464861931	 0.154866
H	-0.0053604206	 1.9154159355	 1.0433011743	 0.142579
H	 0.2268979657	-1.687149059	-1.4044281191	 0.152117
H	 1.2165635212	-0.2062612472	-1.8473735124	 0.148524
H	-2.7313557133	-1.0410669853	 1.529344186	 0.243572
138.3273	139.9085	171.6676	254.5738	302.6334	347.4884	411.0094	552.6686	598.0529	645.5819	701.0592	749.853	786.518	825.3852	835.3198	901.9343	932.5125	961.1292	984.6833	1032.7779	1092.5553	1105.1007	1134.8589	1153.2431	1262.8496	1353.6263	1371.7258	1419.4826	1480.3747	1492.594	1507.852	1797.2212	1934.2466	3054.7398	3124.9648	3128.4727	3138.9316	3221.4231	3490.9631
CC12CN1C(=O)OC2=N	C[C@@]12CN1C(=O)O[C]2[NH]	
InChI=1S/C5H6N2O2/c1-5-2-7(5)4(8)9-3(5)6/h6H,2H2,1H3	InChI=1S/C5H6N2O2/c1-5-2-7(5)4(8)9-3(5)6/h6H,2H2,1H3/t5-,7?/m0/s1
