16
gdb 51038	2.50695	1.26743	0.99357	4.4325	70.42	-0.291	-0.0162	0.2749	1201.0247	0.122865	-437.903573	-437.894827	-437.893883	-437.937828	30.816	
O	-0.3151083975	 0.0174963387	-0.307333985	-0.256892
C	-0.1962083561	 1.1921276914	-0.1491430411	 0.162551
O	 1.0161398372	 1.8018929863	-0.2149256672	-0.23316
C	 1.0873995409	 3.1966942944	 0.0811455453	 0.259044
C	 0.9616698985	 3.6271467365	 1.5779748708	-0.270404
C	 2.2145106867	 4.5226187473	 1.3855082181	-0.219677
C	 2.5488265685	 3.7232845006	 0.0972100174	-0.266324
C	 0.2168440197	 3.9742295972	-0.8088322392	 0.249683
N	-0.4666879744	 4.6033707245	-1.4966703577	-0.325423
H	-1.0281368599	 1.8893106477	 0.0550642885	 0.105647
H	 0.0258337609	 4.0942137098	 1.8868120692	 0.130373
H	 1.1675985915	 2.7604453878	 2.2105342592	 0.134498
H	 1.9489894261	 5.559496056	 1.1699160284	 0.132611
H	 2.9581249945	 4.5072515604	 2.1822247172	 0.122917
H	 3.2144188609	 2.8799692594	 0.2917955714	 0.139865
H	 2.8895424124	 4.2642626018	-0.7855099053	 0.134691
63.3782	110.5902	116.0855	152.7144	188.4752	238.7951	382.1349	398.5401	477.2048	543.842	576.5653	693.9407	764.1912	794.2398	869.954	926.4459	936.47	975.4123	1038.4296	1056.5576	1063.119	1113.2508	1150.8593	1191.6383	1214.5098	1255.109	1279.4016	1287.3265	1290.3432	1432.1198	1468.2326	1484.762	1503.7403	1873.855	2351.3813	2986.0346	3076.7932	3085.0155	3087.2631	3133.4833	3144.8155	3154.2737
O=COC1(CCC1)C#N	O=COC1(CCC1)C#N	
InChI=1S/C6H7NO2/c7-4-6(9-5-8)2-1-3-6/h5H,1-3H2	InChI=1S/C6H7NO2/c7-4-6(9-5-8)2-1-3-6/h5H,1-3H2
