21
gdb 108418	2.7299	1.51136	1.20461	1.4495	82.72	-0.2395	0.0208	0.2603	1125.9152	0.183409	-387.093891	-387.08558	-387.084635	-387.126574	32.584	
C	 0.3418913276	 1.5493090374	 0.0881400126	-0.38639
C	 0.1470742202	 0.0323669092	-0.0083497377	-0.247515
C	 0.5329704502	-0.5284131914	-1.3692951489	 0.451482
C	-0.3395503562	-0.0694519382	-2.5583961528	-0.311007
C	-0.4941860855	-1.3226448751	-3.3868363986	-0.065239
C	 0.0595671585	-2.3954915511	-2.8197271941	-0.084739
C	 0.7239975736	-2.0697654556	-1.5133832359	-0.17309
C	 2.2304653672	-1.7289689342	-1.5944699732	-0.083023
O	 1.9504902193	-0.3165805218	-1.6450032987	-0.327884
H	 1.3774090986	 1.811572836	-0.1458021986	 0.137269
H	-0.30821531	 2.0844776376	-0.6118692631	 0.115561
H	 0.1149086051	 1.9109311592	 1.0953062674	 0.109373
H	 0.7546800785	-0.463684207	 0.7585487256	 0.094653
H	-0.8978155937	-0.2352920191	 0.1968027094	 0.094422
H	-1.3121361348	 0.3289722081	-2.238751804	 0.09991
H	 0.1707007804	 0.7343541341	-3.1019903926	 0.121772
H	-1.0132577896	-1.3247429901	-4.3396057517	 0.093662
H	 0.0622811649	-3.3937618491	-3.2443457407	 0.093314
H	 0.4242255227	-2.7105483056	-0.679591369	 0.07515
H	 2.8101047179	-1.9994108277	-0.7013332549	 0.092955
H	 2.7619260352	-2.0766212555	-2.4877427004	 0.099364
108.3996	127.4133	184.9998	228.9164	250.2494	339.1226	364.3325	410.3308	480.6924	620.3384	670.0693	741.7336	773.5167	789.4299	849.5404	880.1791	903.7136	957.2761	971.9221	972.5371	989.8052	1012.7966	1024.5732	1054.7696	1081.8921	1101.2754	1117.4741	1149.534	1166.9215	1202.0754	1209.1917	1240.4527	1295.4967	1308.8805	1336.7319	1346.4835	1370.8195	1383.61	1408.2984	1463.7344	1480.3199	1498.9129	1510.909	1524.4094	1679.2523	3003.0044	3012.4397	3020.1012	3040.169	3054.5009	3057.3383	3060.299	3071.147	3105.6432	3120.8627	3176.7377	3201.6625
CCC12CC=CC1CO2	CC[C@]12CC=C[C@H]1CO2	
InChI=1S/C8H12O/c1-2-8-5-3-4-7(8)6-9-8/h3-4,7H,2,5-6H2,1H3	InChI=1S/C8H12O/c1-2-8-5-3-4-7(8)6-9-8/h3-4,7H,2,5-6H2,1H3/t7-,8-/m0/s1
