21
gdb 106142	2.39002	1.5203	1.20367	0.9015	82.58	-0.2299	0.0804	0.3103	1149.2392	0.182445	-387.043605	-387.034937	-387.033993	-387.076757	33.96	
C	 0.1559083765	 1.4326470903	 0.3163726385	-0.375311
C	-0.0169329771	-0.0246412661	-0.1338823211	-0.33152
C	-1.4349630195	-0.496093998	-0.1187995536	 0.331323
C	-2.4094915735	-0.8173054214	 1.009313632	-0.189638
C	-3.4894372112	 0.0845333521	 0.4226141689	-0.231248
C	-2.7465115882	-0.0956788712	-0.9304961785	-0.116369
C	-2.9398393065	-1.6008287491	-1.2818731331	-0.295227
C	-2.0518966364	-1.8643730351	-0.0709735365	 0.331405
O	-1.3754981125	-3.0263877585	 0.2464894866	-0.470677
H	 1.2084234264	 1.7315097366	 0.2867235337	 0.109846
H	-0.4034960256	 2.1156223961	-0.3317606263	 0.11518
H	-0.2074294979	 1.5720679261	 1.3396767992	 0.117112
H	 0.3995249612	-0.1466933758	-1.1431802045	 0.100114
H	 0.5701933357	-0.6864518601	 0.5151698437	 0.111566
H	-2.1646144391	-1.01253759	 2.0469279338	 0.078836
H	-4.5361156661	-0.2411497385	 0.4657263016	 0.082379
H	-3.4107677958	 1.1084384692	 0.7998411353	 0.097909
H	-2.8057501877	 0.6601265152	-1.7110606939	 0.069883
H	-3.9660469347	-1.9889709707	-1.2987188706	 0.079624
H	-2.4246804287	-1.8711295834	-2.2081779332	 0.100804
H	-1.9600017491	-3.5868129378	 0.7688478779	 0.28401
78.5371	116.6027	185.3836	240.7495	286.6844	294.991	360.2291	382.338	424.5796	562.7286	593.9933	639.0675	696.1565	761.1196	788.8691	846.6449	904.5278	919.0351	933.6723	944.9974	980.0993	989.7479	993.8378	1058.8333	1090.4976	1099.8389	1123.3878	1143.3785	1156.7469	1184.91	1210.8705	1227.709	1253.7879	1280.5282	1291.7621	1313.9854	1343.3236	1371.2583	1408.0145	1475.8825	1478.2941	1495.3906	1497.9389	1508.061	1516.3705	3011.3159	3018.3783	3025.6618	3032.9514	3049.1995	3085.2916	3093.2678	3101.8802	3105.4628	3133.4586	3182.3093	3789.7756
CCC12C3CC1CC23O	CC[C@@]12[C@H]3C[C@@H]1C[C@@]23O	
InChI=1S/C8H12O/c1-2-7-5-3-6(7)8(7,9)4-5/h5-6,9H,2-4H2,1H3	InChI=1S/C8H12O/c1-2-7-5-3-6(7)8(7,9)4-5/h5-6,9H,2-4H2,1H3/t5-,6-,7+,8+/m1/s1
