21
gdb 88575	3.35355	1.01557	0.96982	1.6043	86.03	-0.2249	0.0159	0.2408	1348.409	0.182709	-387.090968	-387.082018	-387.081073	-387.12532	33.408	
C	-0.110647876	 1.5376681627	-0.1897468254	-0.429301
C	-0.0760223343	 0.0535289632	 0.0648519876	 0.091105
O	 1.1675851241	-0.6346539027	-0.0662600973	-0.257545
C	 0.5655666349	-0.5868884995	 1.2368269486	-0.083431
C	 1.3017638031	 0.136346663	 2.3018195803	 0.332344
C	 0.9647222054	 0.1638096182	 3.5947049463	-0.175877
C	 1.9667475971	 0.9108956793	 4.4399589998	-0.243869
C	 2.8479922405	 1.6246740518	 3.3827209275	-0.211822
C	 2.6253441288	 0.8416030654	 2.066287586	-0.294323
H	 0.6821070888	 2.0654313282	 0.3418019832	 0.132133
H	-0.0054412931	 1.7426873033	-1.2604354816	 0.129073
H	-1.0734257625	 1.9468759325	 0.1352223663	 0.123058
H	-0.9149095472	-0.4939437576	-0.372433729	 0.087003
H	 0.1288809661	-1.5367529781	 1.5517885322	 0.092347
H	 0.0976488855	-0.3333532381	 4.0181855881	 0.082575
H	 1.5007504849	 1.6122539719	 5.1415987941	 0.100908
H	 2.5501927417	 0.2092544852	 5.0542888707	 0.105146
H	 2.4964030031	 2.653814093	 3.2557511873	 0.102611
H	 3.9006762971	 1.6770526686	 3.67141837	 0.097117
H	 3.4105592915	 0.092636245	 1.8929461601	 0.112118
H	 2.6316726205	 1.4830471247	 1.1810184051	 0.10863
45.314	103.3681	142.4521	174.6853	194.5046	246.6469	366.9436	419.0878	439.2174	552.9603	613.5971	692.2404	782.2439	814.9994	828.2	863.1474	886.3702	903.1327	921.5756	960.3249	978.7328	1013.0934	1038.4683	1065.7388	1087.2528	1139.0541	1151.4554	1168.1578	1187.3899	1227.0038	1245.6861	1274.8463	1300.3423	1322.3894	1331.3921	1363.7907	1388.5962	1417.0416	1454.3432	1481.7963	1485.103	1488.9731	1501.0216	1506.853	1705.3834	2999.3203	3015.9188	3040.9394	3042.7895	3056.5317	3070.7872	3083.4776	3086.8887	3099.1113	3101.6311	3147.2458	3180.4058
CC1OC1C1=CCCC1	C[C@H]1O[C@H]1C1=CCCC1	
InChI=1S/C8H12O/c1-6-8(9-6)7-4-2-3-5-7/h4,6,8H,2-3,5H2,1H3	InChI=1S/C8H12O/c1-6-8(9-6)7-4-2-3-5-7/h4,6,8H,2-3,5H2,1H3/t6-,8-/m1/s1
