16
gdb 34115	3.654	1.47053	1.39221	1.6362	75.47	-0.2322	0.0165	0.2487	959.509	0.125387	-400.655073	-400.648371	-400.647427	-400.68596	27.788	
C	-0.0123088818	-1.1622998459	 0.1034901096	-0.307129
C	-0.0245446641	 0.0398072652	 0.0669526243	 0.030107
C	-0.001458786	 1.4685681272	-0.0078590662	 0.338145
C	-0.8622204199	 2.2427534702	-1.0316342197	-0.261297
C	-0.0929451812	 3.5632416596	-0.8150454342	-0.079078
N	 1.2967007696	 3.2626527511	-1.2617099427	-0.304705
C	 1.360047429	 2.363568008	-0.1201359064	-0.107048
C	 0.4144384195	 3.2634991776	 0.6787805708	 0.109598
O	-0.3419738404	 2.1890267124	 1.2248448514	-0.32372
H	-0.0092175211	-2.2236208132	 0.1429983693	 0.185652
H	-0.7847981481	 1.8800244756	-2.0599850453	 0.103977
H	-1.9058563224	 2.2536188532	-0.7123802114	 0.121055
H	-0.5359053841	 4.5049956179	-1.1339320845	 0.081499
H	 1.3641298868	 2.8252869245	-2.1803667649	 0.216276
H	 2.300058128	 1.9263957942	 0.2107800464	 0.096789
H	 0.6750439761	 4.0679268524	 1.3609888434	 0.099878
143.2924	153.5699	378.3231	455.1419	474.9493	537.8441	549.0454	573.8632	609.5942	686.4987	701.1023	725.295	784.353	839.3106	847.5913	876.9574	932.8926	960.0955	969.9149	1013.2314	1026.6547	1048.97	1071.4497	1094.6415	1145.7898	1169.9259	1200.3678	1213.6745	1267.2579	1279.1788	1307.9828	1334.8345	1348.2182	1472.9649	2236.8525	3068.9104	3131.5593	3137.3331	3143.0937	3168.2867	3456.3155	3501.2472
C#CC12CC3NC1C3O2	C#C[C@]12C[C@@H]3N[C@H]1[C@@H]3O2	
InChI=1S/C7H7NO/c1-2-7-3-4-5(9-7)6(7)8-4/h1,4-6,8H,3H2	InChI=1S/C7H7NO/c1-2-7-3-4-5(9-7)6(7)8-4/h1,4-6,8H,3H2/t4-,5+,6-,7-/m0/s1
