16
gdb 24233	3.97844	1.56624	1.22304	1.8452	74.35	-0.207	0.02	0.2271	982.8222	0.128038	-400.746577	-400.740305	-400.739361	-400.777095	25.821	
C	-0.0663619944	 1.4963077033	 0.0016557662	-0.361369
C	 1.4235685044	 1.8936682627	-0.0261746797	-0.021777
N	 2.1987471212	 1.4690639527	 1.1565753249	-0.327013
C	 2.2888462807	 0.6695262171	-0.098239793	-0.231546
C	 1.3412527936	-0.4734369872	-0.0983438186	 0.3108
C	 0.0742310757	 0.0066127086	-0.0278329185	 0.312906
O	-0.8344024149	-0.9855394117	 0.0772242309	-0.197604
C	-0.10702384	-2.1499693411	 0.0514864296	-0.012643
C	 1.2297651723	-1.8993158012	-0.048223052	-0.370513
H	-0.5620692935	 1.8659923802	 0.9060005711	 0.13158
H	-0.6054602612	 1.9003570571	-0.8644147646	 0.114096
H	 1.7049107422	 2.8133989666	-0.5273832029	 0.090725
H	 3.0216997337	 2.0656491177	 1.2298642765	 0.226985
H	 3.2236654806	 0.6568215366	-0.6477145524	 0.090829
H	-0.6875889771	-3.0559885498	 0.1033896988	 0.132284
H	 2.0109558765	-2.6427351213	-0.0801410463	 0.112259
156.7195	221.6545	353.7449	419.9212	462.2656	596.559	617.0082	689.4278	712.3528	727.2791	783.907	812.1871	820.6343	844.7415	884.8444	921.5138	935.4316	994.1982	1039.3089	1063.2663	1091.8716	1132.9097	1156.2258	1174.5056	1177.9637	1221.1908	1246.5828	1296.698	1316.7919	1364.3117	1411.7087	1474.8819	1483.2	1516.4111	1630.8792	3027.1029	3070.2456	3165.5854	3174.9777	3252.2919	3284.9511	3473.7607
C1C2NC2C2=C1OC=C2	C1[C@H]2N[C@H]2c2c1occ2	
InChI=1S/C7H7NO/c1-2-9-6-3-5-7(8-5)4(1)6/h1-2,5,7-8H,3H2	InChI=1S/C7H7NO/c1-2-9-6-3-5-7(8-5)4(1)6/h1-2,5,7-8H,3H2/t5-,7+/m1/s1
