22
gdb 104215	2.58362	1.25601	1.19245	1.9237	81.75	-0.2415	0.0677	0.3092	1213.847	0.192814	-404.311024	-404.301349	-404.300405	-404.345351	36.501	
C	 0.0989588769	 1.5049786278	-0.1572097142	-0.393798
C	-0.0357513092	 0.0573392771	 0.3281304787	-0.207643
C	-1.428743941	-0.5410551329	 0.1103172901	 0.350071
C	-2.5305730001	 0.1626496012	 0.8939435807	-0.446653
O	-1.7529626761	-0.5710223896	-1.3150519409	-0.335707
C	-1.8193281119	-2.0140482468	-1.3473979511	-0.131045
C	-1.4898755111	-2.081873315	 0.1349369215	 0.235105
C	-0.7005055008	-3.0470505416	 0.9224090933	-0.308282
N	-2.1686663378	-2.949134334	 1.0851848518	-0.36232
H	 1.1388717021	 1.8383800871	-0.09203661	 0.111136
H	-0.2205482105	 1.5838963917	-1.2000669329	 0.139285
H	-0.5056833383	 2.1959491991	 0.4378353712	 0.114944
H	 0.6858456078	-0.571751916	-0.2050039694	 0.098808
H	 0.2166983106	-0.0113003142	 1.3947551122	 0.088445
H	-2.627160085	 1.201704435	 0.5683059912	 0.132865
H	-3.492180209	-0.3320561836	 0.7337727243	 0.127171
H	-2.312528359	 0.1654383351	 1.968365614	 0.108293
H	-2.8180184831	-2.3811610942	-1.6128750697	 0.110121
H	-1.0786931574	-2.4458244505	-2.032255837	 0.102099
H	-0.3532730101	-3.9713974223	 0.4676850207	 0.120593
H	-0.0590464197	-2.6645931812	 1.7128501954	 0.11433
H	-2.3956392474	-2.4387560122	 1.9361510603	 0.232183
71.1793	97.5991	159.7143	198.7575	212.1198	260.9276	275.6187	308.5349	353.1419	382.8807	469.5331	507.4912	580.5651	674.5403	785.4309	832.1543	875.9449	891.0725	903.038	937.3045	973.7862	997.2083	1013.7801	1020.9837	1048.7477	1058.4174	1088.6809	1125.0753	1149.4953	1164.4689	1203.2708	1225.7125	1263.7793	1288.8012	1309.8293	1330.3906	1370.197	1404.2365	1406.7879	1436.3206	1473.024	1487.7343	1492.0758	1504.7889	1509.9002	1519.3908	1521.1292	3013.1607	3020.1543	3034.6189	3043.1038	3058.9395	3063.5052	3102.1097	3104.686	3109.0081	3121.4638	3124.9098	3185.2349	3489.2917
CCC1(C)OCC11CN1	CC[C@@]1(C)OC[C@]21CN2	
InChI=1S/C7H13NO/c1-3-6(2)7(4-8-7)5-9-6/h8H,3-5H2,1-2H3	InChI=1S/C7H13NO/c1-3-6(2)7(4-8-7)5-9-6/h8H,3-5H2,1-2H3/t6-,7+/m1/s1
