21
gdb 13811	2.89305	1.45215	1.30294	1.5182	75.55	-0.2189	0.0687	0.2876	1087.5176	0.18713	-366.22978	-366.22031	-366.219366	-366.263703	34.931	
C	 2.0013563707	 0.8433539518	-0.5122856492	-0.38068
C	 1.5391729548	-0.5989212471	-0.7313115028	 0.066961
C	 2.597617577	-1.4114294429	-1.482146961	-0.384839
N	 1.3209232236	-1.2210020236	 0.583961361	-0.082384
C	 0.0940153792	-0.9087182864	 1.3047169492	-0.262822
C	 0.3229670074	-2.2753795926	 0.7515619307	-0.010245
C	-0.5429063654	-2.8419456074	-0.3680520162	-0.117037
O	-1.3630894286	-1.9080186434	-1.052844496	-0.397499
H	 2.9193869617	 0.8636713918	 0.0840802835	 0.118875
H	 2.1978641458	 1.3344720783	-1.4704281666	 0.108833
H	 1.2410805033	 1.4269878958	 0.0162739561	 0.108689
H	 0.6130154971	-0.586187386	-1.3241142984	 0.09136
H	 3.5339104213	-1.4323447745	-0.9152172465	 0.119308
H	 2.2755501943	-2.4458585694	-1.6354274104	 0.109515
H	 2.7948643021	-0.9721032044	-2.4651056807	 0.109318
H	 0.1917628838	-0.7122895977	 2.3698646734	 0.109961
H	-0.643144648	-0.288813092	 0.7955377339	 0.100218
H	 0.6463240217	-3.0560425015	 1.4413755766	 0.088571
H	 0.0884415009	-3.2952254534	-1.1401468433	 0.123265
H	-1.1480292236	-3.6556387671	 0.0616327822	 0.096554
H	-2.018091959	-1.5808899785	-0.4279272158	 0.28408
66.4733	114.5541	154.241	202.3122	221.367	241.552	275.4773	334.0019	345.0984	374.8606	470.2218	493.4228	639.251	711.7446	772.3563	877.93	929.8598	931.505	956.7758	960.4876	997.7346	1042.1393	1071.8584	1106.6057	1121.041	1145.8001	1169.832	1187.3886	1194.9094	1232.6863	1332.9565	1373.3984	1375.0867	1386.9632	1397.7362	1402.4602	1415.6115	1422.5556	1481.3992	1485.0798	1492.3847	1498.1877	1504.3666	1510.2344	2981.9072	3004.4733	3031.989	3037.1063	3067.2698	3086.2863	3095.0723	3104.2341	3105.2604	3107.3607	3113.0465	3167.9996	3816.7051
CC(C)N1CC1CO	CC(C)N1C[C@H]1CO	
InChI=1S/C6H13NO/c1-5(2)7-3-6(7)4-8/h5-6,8H,3-4H2,1-2H3	InChI=1S/C6H13NO/c1-5(2)7-3-6(7)4-8/h5-6,8H,3-4H2,1-2H3/t6-,7?/m0/s1
