17
gdb 84529	2.22598	1.81884	1.46024	1.7974	78.11	-0.2335	-0.0003	0.2332	973.7689	0.136076	-384.645299	-384.637487	-384.636542	-384.677247	31.205	
O	 0.1742618294	 1.3765765761	-0.2460857959	-0.436553
C	 0.0491282795	-0.0207746207	-0.0557822499	 0.07703
C	 0.6881937309	-0.5411775018	 1.2247503371	-0.112382
C	-0.1455021923	-1.29946818	 1.935812191	-0.080845
C	-1.4893875833	-1.3876556956	 1.2863471756	-0.102325
C	-2.2731059398	-0.0693593647	 1.1877567586	-0.221263
C	-1.9668415883	 1.0848852053	 1.9834079985	 0.329733
C	-1.7428122483	 2.065113416	 2.646577083	-0.456663
C	-1.3921421111	-0.5507085076	 0.0391248441	-0.101098
H	-0.2585537928	 1.8042327597	 0.5045272311	 0.28857
H	 0.537714741	-0.4619914577	-0.9341337672	 0.094187
H	 1.697645249	-0.2613172147	 1.5019308607	 0.104203
H	 0.073006912	-1.7665487754	 2.8889565467	 0.10242
H	-2.0687488729	-2.3025648018	 1.3344898826	 0.097769
H	-3.3360672334	-0.1991762373	 1.0008641585	 0.119805
H	-1.5497663943	 2.9210225716	 3.2448326248	 0.200943
H	-1.9038814552	-0.8249317414	-0.8750083994	 0.09647
126.6643	131.0708	211.5105	264.6481	357.3547	410.401	468.8535	503.4668	580.971	599.8009	621.8357	654.4564	733.9224	737.2542	762.8873	792.3419	831.7865	897.1955	939.9934	966.6363	982.0016	1011.9113	1037.3339	1061.7062	1085.8331	1106.1711	1140.8063	1188.0357	1277.4164	1293.7701	1302.4314	1350.035	1369.1722	1395.9056	1442.772	1672.8253	2224.1052	3023.7142	3138.1131	3174.449	3189.1532	3193.3374	3217.8798	3501.2118	3757.2589
OC1C=CC2C(C#C)C12	O[C@H]1C=C[C@H]2[C@@H](C#C)[C@@H]12	
InChI=1S/C8H8O/c1-2-5-6-3-4-7(9)8(5)6/h1,3-9H	InChI=1S/C8H8O/c1-2-5-6-3-4-7(9)8(5)6/h1,3-9H/t5-,6+,7+,8-/m1/s1
