15
gdb 84205	3.53912	1.14091	0.89338	0.8348	72.74	-0.2337	-0.0788	0.1549	1223.8755	0.112483	-453.967433	-453.959235	-453.958291	-454.000506	30.273	
O	 0.1380187373	 1.4477056245	-0.0295916085	-0.431639
C	 0.076803351	 0.047805452	 0.0865522252	 0.068802
C	 0.6550795123	-0.5028435401	 1.3666966168	-0.232018
C	-0.2461721859	-1.3412170151	 1.9077792111	 0.275103
N	-1.4262756451	-1.3994232482	 1.1485205887	-0.402377
C	-1.3731659179	-0.4671544819	 0.1275717293	 0.354767
N	-2.2578942677	-0.0045502596	-0.6567391184	-0.559295
C	-0.1388070594	-2.1304720203	 3.1353004221	 0.086314
O	-1.0445328097	-2.8185063203	 3.5537175028	-0.282756
H	-0.6376605451	 1.6923514168	-0.5557318091	 0.298475
H	 0.5849415397	-0.4361064377	-0.769087154	 0.109398
H	 1.6486285028	-0.3026491287	 1.7384309181	 0.132291
H	-2.2694065064	-1.796811782	 1.5332854673	 0.266895
H	-3.1847859665	-0.3974776626	-0.4934523691	 0.219333
H	 0.8304784906	-2.0393439668	 3.6644067979	 0.096707
85.7476	113.7706	169.5363	231.2523	257.0096	380.5847	416.7251	435.4039	482.5002	528.199	609.4003	639.0031	695.4906	756.8573	782.0259	849.436	883.6912	979.4202	1020.1821	1023.1468	1087.6447	1113.4857	1188.7952	1236.8655	1282.1668	1307.9221	1357.8748	1401.4167	1418.7107	1456.8378	1673.7604	1762.5928	1778.5306	2923.0717	2940.3692	3256.0545	3480.5854	3636.9989	3731.3476
OC1C=C(NC1=N)C=O	O[C@H]1C=C(N[C]1[NH])C=O	
InChI=1S/C5H6N2O2/c6-5-4(9)1-3(2-8)7-5/h1-2,4,9H,(H2,6,7)	InChI=1S/C5H6N2O2/c6-5-4(9)1-3(2-8)7-5/h1-2,4,9H,(H2,6,7)/t4-/m0/s1
