22
gdb 105484	1.92084	1.48966	1.20408	3.3242	81.61	-0.2384	0.0323	0.2707	1205.3657	0.193524	-404.381678	-404.371535	-404.37059	-404.41706	37.581	
C	-0.1254389889	 1.6586340323	-0.446721742	-0.391226
C	-0.0505651689	 0.183229862	-0.0425031387	-0.233101
C	-1.4213098385	-0.4962578768	 0.1369762637	 0.249973
C	-2.1635823882	-0.7760879585	-1.2016454887	-0.261654
C	-1.7178212034	-2.2609913654	-1.1272940798	-0.21144
C	-1.2971601779	-2.0453753382	 0.3513984831	-0.282416
C	-2.2622050996	 0.2379011856	 1.1791468273	 0.331479
N	-1.7760241069	 0.1700159288	 2.4588920129	-0.522116
O	-3.2726660049	 0.8584717405	 0.90842355	-0.367863
H	 0.8775720323	 2.0686557603	-0.5991571145	 0.109875
H	-0.6854719329	 1.7900632706	-1.3777097936	 0.126052
H	-0.6210052491	 2.258761388	 0.3222898359	 0.134602
H	 0.5093881648	-0.3796329824	-0.8004579285	 0.097194
H	 0.522266315	 0.0886413683	 0.889283708	 0.087041
H	-3.2395248828	-0.6348188906	-1.0911257155	 0.124732
H	-1.8281742407	-0.2037047906	-2.0698348907	 0.095191
H	-2.4879145924	-3.0138948014	-1.3080070292	 0.101268
H	-0.8668855562	-2.4838542422	-1.7758884975	 0.102247
H	-0.3090329801	-2.4126073961	 0.6463933521	 0.091607
H	-2.0360218846	-2.4309320768	 1.0596604916	 0.103465
H	-1.0515704975	-0.4798561246	 2.7112041504	 0.257442
H	-2.3521813387	 0.544993237	 3.1952628536	 0.257648
41.3658	95.2281	111.2665	182.9556	204.5072	211.5307	268.3135	286.7687	333.8305	386.4357	466.1371	506.9678	560.3755	649.0797	709.2734	760.3288	784.682	804.2182	850.0006	869.7194	950.0899	952.166	990.9017	1019.486	1031.8373	1052.4283	1092.4182	1129.5682	1186.2124	1194.7902	1216.6885	1248.7112	1267.4132	1277.0563	1280.4534	1304.6013	1352.6356	1379.1873	1415.235	1476.5075	1485.0422	1485.9974	1497.5145	1501.518	1508.4907	1615.1633	1786.9158	3014.39	3041.2128	3042.6815	3046.8352	3063.2283	3071.7903	3091.3207	3108.808	3112.6894	3113.8295	3135.1323	3594.9249	3728.2694
CCC1(CCC1)C(N)=O	CCC1(CCC1)C(=O)N	
InChI=1S/C7H13NO/c1-2-7(6(8)9)4-3-5-7/h2-5H2,1H3,(H2,8,9)	InChI=1S/C7H13NO/c1-2-7(6(8)9)4-3-5-7/h2-5H2,1H3,(H2,8,9)
