18
gdb 24360	3.55408	1.54946	1.10895	1.4784	88.2	-0.1756	-0.0015	0.1741	1074.6474	0.151813	-364.872807	-364.865784	-364.864839	-364.903927	28.839	
C	-0.0321207475	 1.478485655	 0.0840284137	-0.259933
C	 1.3668733447	 2.128945595	-0.0172104252	-0.33309
C	 2.196592076	 1.4344170801	-1.0615522274	 0.249957
C	 1.9738441366	 0.092043227	-1.3192029863	 0.275928
N	 2.9178487756	-0.3233773922	-2.2276241082	-0.348711
C	 3.7299356912	 0.7325800195	-2.5583509037	-0.084029
C	 3.3098333923	 1.8357880042	-1.8411240249	-0.290587
C	 0.9370771833	-0.6841093149	-0.679940251	-0.161595
C	-0.0023423186	-0.0352958759	 0.0270654739	-0.08565
H	-0.5332588137	 1.8165883996	 0.9970147564	 0.097377
H	-0.6538882885	 1.8374621347	-0.7525492905	 0.1097
H	 1.2612181731	 3.1982170892	-0.2282263538	 0.100327
H	 1.8714209281	 2.0578049018	 0.9590768204	 0.104021
H	 2.9748555115	-1.2443616521	-2.6262083495	 0.256789
H	 4.5260203854	 0.6171337744	-3.2760950693	 0.11599
H	 3.7581708241	 2.8175023884	-1.8803190858	 0.090047
H	 0.9327673422	-1.7668796	-0.7704371493	 0.077201
H	-0.8006450659	-0.5836934537	 0.5167289105	 0.086258
141.9273	192.7627	270.8769	375.7128	420.2498	463.8743	497.9373	576.9214	629.0097	663.6783	682.5614	694.4135	743.0714	789.3041	823.193	872.1511	909.1334	922.3971	962.6254	1016.7246	1040.0441	1083.6235	1109.2107	1168.2219	1175.932	1200.2572	1232.4687	1266.5292	1302.8184	1350.9825	1360.4842	1419.3345	1439.6288	1468.6091	1484.2058	1486.4564	1515.2364	1604.2206	1671.6775	2970.5701	2984.2666	3064.4387	3064.8672	3157.8304	3184.1728	3238.316	3268.121	3677.1389
C1CC2=C(NC=C2)C=C1	C1Cc2c([nH]cc2)C=C1	
InChI=1S/C8H9N/c1-2-4-8-7(3-1)5-6-9-8/h2,4-6,9H,1,3H2	InChI=1S/C8H9N/c1-2-4-8-7(3-1)5-6-9-8/h2,4-6,9H,1,3H2
