18
gdb 74316	3.14427	1.21088	0.9755	4.0001	79.51	-0.2308	-0.0214	0.2093	1226.122	0.147603	-401.942263	-401.933953	-401.933009	-401.975546	31.135	
C	-0.0368229512	 1.5117311935	 0.0605681185	-0.501559
C	-0.0184395329	 0.0180078071	 0.0070783003	 0.367075
C	 0.0116252598	-0.764602537	-1.0783850723	-0.20869
C	 0.0087177312	-2.2500415323	-0.7472006174	-0.111676
C	 1.2162465383	-2.9598864788	-1.3476175658	 0.149687
O	 1.1604811448	-3.7071469796	-2.2909454614	-0.258674
C	 0.0333542524	-2.2443362223	 0.7847730829	-0.077203
N	 1.2505192594	-1.6284146595	 1.3595704018	-0.330049
C	-0.0026462673	-0.8294673022	 1.2405781878	-0.149708
H	 0.8535796319	 1.896762665	 0.5730827593	 0.137901
H	-0.0720666353	 1.950049712	-0.9399553254	 0.129342
H	-0.9053834818	 1.877178192	 0.6227724917	 0.127271
H	 0.0648606379	-0.4121173447	-2.1024961677	 0.105428
H	-0.8849305497	-2.7489434746	-1.1396582323	 0.096384
H	 2.1735217376	-2.7170689229	-0.8426050965	 0.101977
H	-0.4535478672	-3.0445224751	 1.3305237551	 0.098836
H	 1.3447787814	-1.9542795027	 2.320479825	 0.232205
H	-0.5042355792	-0.5122978181	 2.1492012762	 0.091452
63.2841	127.7846	188.8561	192.9584	237.9918	328.1738	390.5625	436.9032	475.8243	588.5386	609.565	770.1118	814.5616	841.5145	857.6007	869.2122	915.5258	945.5385	956.8409	1023.805	1054.299	1065.2919	1081.5132	1088.1096	1136.1839	1164.2602	1194.0479	1239.5842	1252.4443	1281.8039	1307.8956	1379.958	1401.0448	1414.5513	1415.2675	1479.8559	1488.4317	1695.4503	1821.3686	2930.7522	3020.4835	3045.777	3068.0292	3116.2234	3163.4407	3177.4636	3196.0818	3475.3115
CC1=CC(C=O)C2NC12	CC1=C[C@@H](C=O)[C@H]2N[C@@H]12	
InChI=1S/C7H9NO/c1-4-2-5(3-9)7-6(4)8-7/h2-3,5-8H,1H3	InChI=1S/C7H9NO/c1-4-2-5(3-9)7-6(4)8-7/h2-3,5-8H,1H3/t5-,6-,7+/m0/s1
