23
gdb 41947	2.17797	1.86665	1.53126	1.3062	83.29	-0.2348	0.0726	0.3074	1034.3947	0.21131	-388.32351	-388.316128	-388.315184	-388.354837	31.345	
C	-0.0331349017	 1.5320515819	-0.1406917	-0.210465
C	 1.3913896545	 2.1051390484	-0.0408141391	-0.203313
C	 2.2357326416	 1.4427807455	 1.0638595143	 0.10743
C	 1.8622992364	 1.7923785452	 2.5165447155	-0.203324
C	 0.5404453168	 1.151007914	 2.9737794304	-0.210465
C	 0.4549256066	-0.3161491181	 2.5179231042	-0.203312
C	 0.9200392339	-0.5281474972	 1.0651127487	 0.107429
C	-0.0161932615	-0.003255336	-0.0393856309	-0.203323
O	 2.2283642732	 0.0229833772	 0.8915473542	-0.27298
H	-0.6701676998	 1.9578813282	 0.6393823604	 0.102839
H	-0.4858154918	 1.8336000951	-1.0921039609	 0.090828
H	 1.9123351685	 1.9254337907	-0.9891489314	 0.10045
H	 1.3655785026	 3.1911572518	 0.1064638821	 0.08889
H	 3.2803372304	 1.7342312945	 0.907169931	 0.07381
H	 2.6748958098	 1.4191913325	 3.1517076946	 0.100452
H	 1.8329326839	 2.8806685943	 2.645236258	 0.088893
H	 0.4641618539	 1.2026596698	 4.0658185412	 0.090828
H	-0.3111294123	 1.7191407337	 2.5894569177	 0.102839
H	 1.1117678267	-0.9228549822	 3.1531273514	 0.10045
H	-0.5612682923	-0.706410495	 2.6476873967	 0.08889
H	 1.0513533385	-1.6047780248	 0.9091739369	 0.073811
H	-1.0290142117	-0.3956548748	 0.1089931184	 0.088892
H	 0.3487921738	-0.4163626745	-0.9876159836	 0.100452
131.8102	240.2083	288.5	328.7628	385.2132	405.3304	409.0824	483.0514	545.9243	681.4024	701.3042	760.9253	783.5179	837.0516	845.4496	865.4553	902.5901	910.0595	937.5204	966.4224	980.0404	1050.0752	1073.4656	1076.777	1081.0813	1103.6679	1144.8866	1149.8491	1222.9096	1227.8877	1240.3794	1288.7265	1295.8523	1337.3344	1339.2284	1355.5914	1362.9763	1379.2821	1388.6152	1390.7294	1395.0023	1404.4056	1414.3372	1467.3605	1476.1084	1478.6823	1489.2025	1497.5068	1527.4645	3021.1469	3021.6726	3023.3607	3024.5749	3040.734	3040.9054	3044.7387	3051.3088	3056.1236	3063.6415	3063.84	3069.2326	3082.4313	3101.6702
C1CC2CCCC(C1)O2	C1C[C@H]2CCC[C@@H](C1)O2	
InChI=1S/C8H14O/c1-3-7-5-2-6-8(4-1)9-7/h7-8H,1-6H2	InChI=1S/C8H14O/c1-3-7-5-2-6-8(4-1)9-7/h7-8H,1-6H2/t7-,8+
