16
gdb 46598	2.91122	1.77622	1.37283	4.1068	68.33	-0.2445	0.0088	0.2532	943.9681	0.12591	-437.870557	-437.863508	-437.862563	-437.901843	27.822	
O	-0.0895962029	-0.0799988618	 0.0210206382	-0.372522
C	-0.0564165265	 1.128101935	 0.0101760152	 0.375511
N	-1.1422992562	 1.970507376	-0.1628199775	-0.330509
C	-0.9054643391	 3.4088198141	-0.0144543184	-0.249099
C	 0.5952279681	 3.4413002413	 0.1774111257	 0.291255
C	 1.5851181059	 3.8756279329	 1.2774111927	-0.295458
C	 2.1480741743	 2.4022596864	 1.2861148115	-0.304773
C	 1.1134759196	 2.06432774	 0.201574587	 0.173222
O	 1.3304016155	 2.9280182239	-0.9238233151	-0.285141
H	-2.0131080816	 1.5932152238	-0.5025720528	 0.255329
H	-1.2354342702	 3.966482024	-0.8982209932	 0.128948
H	-1.4240008984	 3.8148458672	 0.8633826071	 0.119999
H	 2.2724273872	 4.6751815272	 0.9951134723	 0.12115
H	 1.0891935545	 4.13339611	 2.2155687938	 0.118151
H	 3.1891780334	 2.2614122381	 0.9919587949	 0.125269
H	 1.9608048665	 1.887385602	 2.2297538286	 0.128667
132.3501	202.2666	237.6536	298.9289	368.0083	465.9331	496.5917	573.1082	609.4854	666.3937	741.1647	754.9907	767.1023	790.285	879.8513	929.4007	945.2666	975.2811	1030.1838	1071.205	1114.8668	1126.6721	1199.0078	1217.9229	1225.7464	1244.4378	1259.2459	1310.6085	1342.4359	1401.2116	1441.7413	1465.5757	1484.6617	1512.5797	1829.768	3021.2975	3061.7054	3074.1979	3084.9515	3128.7502	3146.9931	3638.3115
O=C1NCC23CCC12O3	O=C1NC[C@@]23CC[C@@]12O3	
InChI=1S/C6H7NO2/c8-4-6-2-1-5(6,9-6)3-7-4/h1-3H2,(H,7,8)	InChI=1S/C6H7NO2/c8-4-6-2-1-5(6,9-6)3-7-4/h1-3H2,(H,7,8)/t5-,6+/m0/s1
