16
gdb 67116	2.71219	2.08795	1.78253	2.332	67.69	-0.2348	0.0636	0.2984	828.7314	0.125804	-437.756282	-437.749866	-437.748922	-437.786638	26.815	
O	 0.2056201954	 1.3616729265	-0.0758737578	-0.473242
C	 0.1861369731	-0.0059182264	-0.067994333	 0.446274
C	 0.4020050976	-0.9894256123	 1.1137833723	-0.171214
N	-1.0649054729	-0.8362923124	 1.5441694841	-0.435557
C	-1.0857879426	-0.9279826815	 0.0487982908	 0.200254
C	-1.816269989	-0.8177737535	-1.2702266914	-0.185852
O	-0.6443452372	-0.8808580767	-2.126884812	-0.294221
C	 0.4993575512	-0.939095623	-1.2289385109	 0.00592
C	 0.1097688934	-1.913640036	-0.1038175085	-0.095226
H	-0.2972212441	 1.6613236339	 0.6936278698	 0.296459
H	 1.2027722578	-1.046076751	 1.8505327691	 0.089454
H	-1.4057655214	-1.7068693351	 1.9616639045	 0.214422
H	-2.4910377205	-1.646216567	-1.5081877551	 0.108988
H	-2.3342749692	 0.1379814164	-1.4107132047	 0.115463
H	 1.4084387208	-0.9587760227	-1.8261429622	 0.08976
H	 0.0326407074	-2.9980228492	-0.1188011949	 0.088316
215.5393	250.8419	324.3478	368.7964	412.0387	482.5012	557.4598	668.3475	701.5412	740.7792	779.3042	824.1418	842.227	881.913	889.6002	929.8904	948.2049	954.2078	1018.432	1043.3	1057.433	1083.8962	1099.5782	1140.6691	1170.4733	1183.1284	1223.4571	1235.7115	1262.0417	1272.6332	1295.9991	1339.4747	1361.5521	1441.4569	1518.5539	3031.2816	3079.0275	3119.791	3146.1048	3158.7467	3403.2588	3763.9863
OC12C3NC11COC2C31	O[C@@]12[C@H]3N[C@]41CO[C@@H]2[C@@H]34	
InChI=1S/C6H7NO2/c8-6-3-2-4(6)9-1-5(2,6)7-3/h2-4,7-8H,1H2	InChI=1S/C6H7NO2/c8-6-3-2-4(6)9-1-5(2,6)7-3/h2-4,7-8H,1H2/t2-,3+,4-,5-,6-/m1/s1
