23
gdb 114249	4.69811	0.81724	0.80439	1.5883	86.44	-0.2358	0.0784	0.3142	1565.3514	0.205537	-388.273478	-388.264143	-388.263199	-388.30823	35.204	
C	-0.0595866806	 1.4693997425	 0.1812055787	-0.378436
C	-0.0902070996	-0.0535943853	 0.0179823757	-0.193438
C	 0.6650603833	-0.5416708366	-1.2116080141	 0.062251
C	 2.2190026149	-0.4283387016	-1.2355366183	-0.308834
C	 2.2664077218	-1.8112658024	-1.9197060434	 0.467637
C	 2.6262671215	-1.936088195	-3.417570826	-0.344238
C	 3.7159181692	-2.9075778048	-2.9269085323	-0.076252
O	 3.3072901075	-2.7354292736	-1.5546720482	-0.31594
C	 0.8261866201	-2.0734088353	-1.4313172229	-0.325211
H	 0.9680872887	 1.8378692952	 0.2707846976	 0.118983
H	-0.5153425823	 1.9688350976	-0.6811955174	 0.111997
H	-0.6052927891	 1.7860098272	 1.075496364	 0.111446
H	 0.3380836716	-0.5290097954	 0.9108112647	 0.092351
H	-1.1321637775	-0.3961661072	-0.039550962	 0.093739
H	 0.242863485	-0.0754903076	-2.1101233247	 0.065717
H	 2.6829176932	 0.4150424039	-1.7543167225	 0.091939
H	 2.6363775527	-0.499808015	-0.2251953964	 0.107754
H	 1.8508704613	-2.3797887488	-4.0454733527	 0.108562
H	 2.9892917469	-1.0195363065	-3.8868887109	 0.108464
H	 3.6138642043	-3.9483951057	-3.2570232406	 0.101142
H	 4.7515883694	-2.5852445548	-3.0890143141	 0.100993
H	 0.8494212558	-2.6105253479	-0.4771764414	 0.108057
H	 0.138672312	-2.5840374829	-2.1115968028	 0.091317
62.0966	68.4883	101.8723	174.4419	238.9854	281.0385	313.7696	350.6249	421.8409	453.3588	510.7155	694.1129	782.1343	784.2617	824.4121	847.8698	866.4984	908.012	939.8593	954.6228	968.1752	981.5219	1012.1476	1029.5298	1031.9795	1074.3187	1122.761	1159.8941	1180.3036	1189.1091	1201.7034	1218.1878	1226.1214	1242.0856	1262.0148	1272.0719	1304.0664	1313.3357	1345.7691	1359.2495	1394.6508	1411.7867	1465.0652	1482.6877	1487.0537	1494.9978	1500.1435	1507.2835	1532.3335	3010.0691	3016.6853	3025.2332	3030.3386	3041.4681	3045.73	3048.3442	3055.3274	3071.0915	3096.351	3099.4375	3102.2216	3103.3918	3125.3834
CCC1CC2(CCO2)C1	CC[C@H]1C[C@]2(CCO2)C1	
InChI=1S/C8H14O/c1-2-7-5-8(6-7)3-4-9-8/h7H,2-6H2,1H3	InChI=1S/C8H14O/c1-2-7-5-8(6-7)3-4-9-8/h7H,2-6H2,1H3/t7-,8+
