21
gdb 89001	3.7909	0.82301	0.80295	3.1648	78.83	-0.2394	0.0827	0.3221	1528.3523	0.181535	-424.184841	-424.175346	-424.174402	-424.221012	33.754	
C	 0.3637145115	 1.4864537243	-0.2241793913	-0.419895
C	 0.121671262	 0.0303750184	 0.0800920582	 0.07471
O	 1.2683596298	-0.8037393994	 0.2907679887	-0.260279
C	 0.3548284844	-0.6175273001	 1.3826483581	 0.066416
C	 0.8840425568	 0.0679118911	 2.6208493367	-0.260365
C	 1.8518848127	-0.820732382	 3.3997039864	-0.012732
C	 3.2674582505	-1.017005655	 2.8059604836	-0.074001
O	 3.8861323578	-0.423372698	 3.9687670496	-0.273415
C	 2.6077092574	-0.1720658908	 4.5813652664	-0.091695
H	 1.1264221915	 1.9196903888	 0.4252753604	 0.130321
H	 0.6993467971	 1.6013196037	-1.2601033667	 0.132166
H	-0.5631250745	 2.0589238564	-0.1084452052	 0.123066
H	-0.633728595	-0.4356179489	-0.5570978608	 0.08769
H	-0.2425196812	-1.5084941056	 1.5953596121	 0.086362
H	 1.3871524562	 1.0031073687	 2.3558898747	 0.106432
H	 0.0321301069	 0.3319402419	 3.262672582	 0.102559
H	 1.365568578	-1.7632243544	 3.6678553242	 0.078152
H	 3.587976525	-2.0547060502	 2.6561424825	 0.10073
H	 3.4676444218	-0.4485617725	 1.8908399627	 0.11314
H	 2.4202274186	 0.9024425041	 4.718837207	 0.093017
H	 2.5090435929	-0.6726275207	 5.5529611806	 0.09762
33.9768	50.2496	85.129	123.6562	172.7277	256.8772	292.2113	370.1475	397.344	486.0298	522.3373	761.0819	766.9368	823.0881	872.6607	894.0863	896.3677	934.1077	978.2064	999.487	1038.279	1046.8909	1050.6273	1099.6189	1118.2236	1147.4131	1160.107	1163.1289	1176.7756	1194.2077	1248.4416	1270.4817	1304.0841	1310.553	1324.3173	1369.2953	1395.0808	1406.3601	1420.1557	1468.1906	1473.2149	1492.1333	1511.7788	1515.3821	1540.1166	2994.658	3019.2258	3026.0799	3037.0611	3040.3058	3059.6883	3062.8248	3073.2249	3081.0606	3090.5444	3100.3836	3138.1335
CC1OC1CC1COC1	C[C@H]1O[C@H]1CC1COC1	
InChI=1S/C7H12O2/c1-5-7(9-5)2-6-3-8-4-6/h5-7H,2-4H2,1H3	InChI=1S/C7H12O2/c1-5-7(9-5)2-6-3-8-4-6/h5-7H,2-4H2,1H3/t5-,7+/m1/s1
