19
gdb 121505	3.56412	0.59286	0.5294	3.0478	81.82	-0.2678	-0.003	0.2647	2080.3086	0.156985	-419.211134	-419.20073	-419.199785	-419.248733	35.216	
C	-0.1211877425	 1.2310235402	-0.3425444961	-0.381663
C	-0.1098449267	-0.2157767129	 0.1557680515	-0.154147
C	 1.0336053658	-0.4882546487	 1.1396674471	-0.141774
N	 0.959691957	-1.8442246683	 1.6554354634	-0.19872
C	 1.9298029782	-2.6067781072	 1.4454150678	 0.12551
O	 1.9009402446	-3.8873484058	 1.9158082415	-0.192769
C	 3.0238570969	-4.6864852918	 1.5992436116	-0.211833
C	 3.043692343	-5.1148476726	 0.1903997691	 0.259913
N	 3.0662722461	-5.4416804441	-0.9170760887	-0.287175
H	 0.8114836112	 1.4843708319	-0.8589837225	 0.114523
H	-0.943823521	 1.3993107697	-1.043646041	 0.118035
H	-0.2419883771	 1.936522819	 0.487112848	 0.115948
H	-1.0571363967	-0.4572850702	 0.6502129859	 0.113932
H	-0.0182300789	-0.906240345	-0.6912958085	 0.102553
H	 2.0025300852	-0.2750025495	 0.65411741	 0.082063
H	 0.9432262027	 0.1994661217	 1.9906861102	 0.109815
H	 2.8514662252	-2.3431357559	 0.9050861711	 0.091062
H	 3.966750471	-4.1707277698	 1.8247321379	 0.157761
H	 2.9614038559	-5.5687349807	 2.2407792818	 0.176965
35.1469	40.52	83.103	93.0401	177.4604	230.4449	231.8271	259.3813	317.9001	367.9317	374.391	446.0556	549.0119	663.2235	758.1766	893.6655	894.9578	911.7653	973.7379	1006.6506	1026.5832	1057.0347	1087.6458	1130.1631	1175.1218	1193.9878	1267.9801	1304.6189	1318.727	1330.0329	1385.9843	1396.8227	1412.4878	1422.0182	1475.1126	1487.3132	1497.5822	1499.6701	1513.2901	1783.8739	2363.9002	2945.4265	3004.6658	3028.9628	3029.6662	3030.4063	3040.1503	3072.642	3099.3929	3107.1604	3111.6568
CCCN=COCC#N	CCCN=COCC#N	
InChI=1S/C6H10N2O/c1-2-4-8-6-9-5-3-7/h6H,2,4-5H2,1H3	InChI=1S/C6H10N2O/c1-2-4-8-6-9-5-3-7/h6H,2,4-5H2,1H3
