18
gdb 53207	3.04155	1.05218	0.86827	1.922	80.72	-0.2486	0.0189	0.2675	1375.8364	0.146851	-401.941955	-401.932478	-401.931534	-401.978869	32.825	
C	 0.1295225077	 1.4662478695	 0.1687100919	-0.497878
C	 0.0387953473	 0.0177914551	 0.055079903	 0.021309
C	-0.0256665347	-1.1810507178	-0.0354560208	 0.156765
C	-0.0936088902	-2.6351411382	-0.1539969307	-0.210458
N	 0.8327276704	-3.2931523647	 0.807930161	-0.256772
C	 0.0964202844	-3.9939997453	 1.564009708	 0.12134
O	-1.2377579362	-4.0489540752	 1.3693374869	-0.228845
C	-1.4979438012	-3.2720875464	 0.165526349	 0.105266
C	-2.6586585987	-2.3299923014	 0.4140613663	-0.402022
H	 0.7418944018	 1.7557497288	 1.0296713881	 0.15357
H	 0.5827780659	 1.9087607729	-0.7250640387	 0.149796
H	-0.8597588279	 1.9187496478	 0.2985575447	 0.14762
H	 0.2126399618	-2.9160194213	-1.1679769318	 0.113382
H	 0.4512003175	-4.5853753624	 2.4015859475	 0.141198
H	-1.7550747061	-3.9948595653	-0.6164001881	 0.095958
H	-2.4143946797	-1.6140888885	 1.2020170046	 0.137535
H	-2.8891461454	-1.7696511701	-0.4964166483	 0.127485
H	-3.5465463667	-2.8964049976	 0.7079446673	 0.124754
15.0876	32.7214	93.0426	135.0352	230.8244	264.702	295.4947	349.9882	407.6119	451.7033	490.5076	585.734	701.206	798.9592	841.4575	857.6229	937.0397	957.2692	974.9801	1051.4115	1053.1147	1057.0441	1086.2876	1142.7968	1154.552	1196.43	1260.4903	1317.0589	1326.857	1364.5501	1385.5286	1413.9925	1416.8602	1477.2207	1478.2444	1482.3575	1491.4822	1704.7705	2370.8195	3028.2598	3029.7759	3048.6096	3051.7919	3089.0703	3090.7821	3123.0808	3136.4354	3209.4601
CC#CC1N=COC1C	CC#C[C@H]1N=CO[C@H]1C	
InChI=1S/C7H9NO/c1-3-4-7-6(2)9-5-8-7/h5-7H,1-2H3	InChI=1S/C7H9NO/c1-3-4-7-6(2)9-5-8-7/h5-7H,1-2H3/t6-,7+/m0/s1
