19
gdb 9747	3.50559	1.62259	1.51428	1.9542	70.76	-0.2442	0.0283	0.2725	950.7639	0.165588	-365.092129	-365.083856	-365.082911	-365.124933	30.745	
C	 0.0852949233	 1.5994693897	-0.0760519068	-0.395486
C	 0.0296250361	 0.0693800827	-0.0702309234	-0.209745
C	-1.3756014449	-0.5384715936	 0.0302644235	 0.371448
C	-2.3132567475	-0.1163292734	-1.0965004693	-0.43696
C	-1.3297440721	-2.0848256417	 0.2338266361	-0.229149
N	-1.8763483482	-2.3316334369	 1.5772118876	-0.266274
C	-2.1793904856	-1.1894526776	 2.0343740281	 0.112148
O	-1.9722929177	-0.0792790433	 1.2939025483	-0.254122
H	 1.1235009608	 1.9435711403	-0.0502268677	 0.114777
H	-0.377431478	 2.023976181	-0.9719532242	 0.1177
H	-0.4290641643	 2.0081039957	 0.7980511004	 0.134406
H	 0.5018936601	-0.3304187403	-0.9770143688	 0.100568
H	 0.6144282371	-0.3129635939	 0.7751013746	 0.106915
H	-1.9058613586	-0.4282147208	-2.0640376764	 0.11991
H	-3.2921487032	-0.587576083	-0.9700071872	 0.126504
H	-2.4564235217	 0.9665650796	-1.1149921718	 0.129955
H	-1.9283285266	-2.6173583767	-0.5138341273	 0.110856
H	-0.3080961339	-2.4762723832	 0.1705679139	 0.111429
H	-2.6133934651	-1.0020737945	 3.0110789805	 0.135119
58.4612	110.629	206.3887	229.1613	264.1829	325.5881	346.6936	415.5538	447.136	538.4073	635.2404	773.6826	783.4578	853.6202	894.4484	943.147	957.0775	977.1717	989.1993	1009.0486	1037.8335	1074.3378	1129.4486	1178.5547	1197.8985	1213.8463	1274.0166	1318.0275	1327.2728	1344.0561	1376.924	1409.5853	1413.9177	1475.3525	1487.8316	1493.5051	1501.1419	1506.6164	1513.4469	1707.5509	3022.1417	3032.1216	3042.0631	3045.4928	3059.7322	3064.9441	3109.5118	3111.4548	3122.2472	3128.3108	3207.4246
CCC1(C)CN=CO1	CC[C@@]1(C)CN=CO1	
InChI=1S/C6H11NO/c1-3-6(2)4-7-5-8-6/h5H,3-4H2,1-2H3	InChI=1S/C6H11NO/c1-3-6(2)4-7-5-8-6/h5H,3-4H2,1-2H3/t6-/m0/s1
