15
gdb 64690	5.04256	0.8722	0.82483	3.2718	70.96	-0.3138	-0.0216	0.2922	1337.144	0.110589	-416.813972	-416.804954	-416.804009	-416.848273	31.648	
C	-0.1378982795	 1.6637466996	 0.1827651694	-0.472557
C	-0.1132629567	 0.156267267	 0.1213728107	 0.380917
C	-1.3501523458	-0.525231309	-0.467186214	-0.401305
C	-1.6492747664	-0.0618880869	-1.8220419243	 0.276239
N	-1.8829188435	 0.3174095816	-2.8876287705	-0.296791
O	 1.123045779	-0.4418518112	-0.2667490193	-0.24957
C	 0.6854687575	-0.6483606694	 1.0786939152	-0.168741
C	 1.4614487159	-0.022487972	 2.1273383707	 0.311526
N	 2.0638457021	 0.4628066623	 2.9858106444	-0.319046
H	 0.7758161276	 2.0474926127	 0.6387227213	 0.161191
H	-0.2267531828	 2.0744835062	-0.8269947419	 0.164841
H	-0.9951399768	 2.0103486358	 0.7685312754	 0.138541
H	-1.1982849644	-1.6085103111	-0.4907973818	 0.166689
H	-2.2186271095	-0.3251031084	 0.1710019546	 0.167256
H	 0.3710790835	-1.6647614571	 1.3114685101	 0.140809
51.7547	99.4547	144.5732	180.0379	188.9494	308.0854	346.4957	382.5187	393.4954	395.019	474.2479	579.3553	648.8949	739.6424	830.2399	907.595	920.2497	942.4233	993.8706	1048.4189	1091.8133	1112.5988	1212.3515	1256.0097	1316.789	1357.6517	1423.3862	1439.0198	1448.769	1484.3054	1498.6063	2363.4079	2367.9261	3048.7379	3051.9588	3099.386	3119.207	3126.1348	3149.4879
CC1(CC#N)OC1C#N	C[C@@]1(CC#N)O[C@H]1C#N	
InChI=1S/C6H6N2O/c1-6(2-3-7)5(4-8)9-6/h5H,2H2,1H3	InChI=1S/C6H6N2O/c1-6(2-3-7)5(4-8)9-6/h5H,2H2,1H3/t5-,6-/m0/s1
