17
gdb 19399	3.07667	2.16196	1.60526	1.5821	67.95	-0.2345	0.0698	0.3043	848.7743	0.142004	-363.78978	-363.782561	-363.781617	-363.820943	28.014	
C	-0.0665447678	 1.5931800457	-0.1088939038	-0.413885
C	 0.0471637715	 0.0824514354	 0.0263313855	-0.071809
C	 1.048700616	-0.6710719731	-0.876289472	-0.056903
N	 2.4018615407	-0.2041547201	-0.4935133844	-0.33786
C	 1.7353208211	-1.2760911363	 0.2993685048	-0.174796
C	 0.8027468243	-0.5345580688	 1.2363206365	 0.484725
C	 1.0018994468	-0.0741848428	 2.6063946881	-0.262227
O	 0.1170582496	-1.1695149525	 2.297305177	-0.2867
H	 0.9249637926	 2.0526121014	-0.0950606198	 0.138091
H	-0.5601457165	 1.8668058736	-1.0478107571	 0.112452
H	-0.6579332613	 2.01740077	 0.7096009322	 0.115477
H	-0.9348874434	-0.400265966	-0.0254720578	 0.091786
H	 0.859997702	-1.0925080583	-1.8557640145	 0.095326
H	 3.0671318025	-0.66646658	-1.1132204082	 0.231373
H	 2.1832580473	-2.2522013651	 0.4360620521	 0.103619
H	 1.9098261899	-0.3440209632	 3.1437469335	 0.115592
H	 0.5087344347	 0.83311014	 2.9519901479	 0.115741
128.4805	204.2236	220.2271	241.6701	310.4329	388.2295	488.938	567.3	603.9522	728.5068	815.2525	834.8926	846.3014	873.5463	894.9418	921.4671	960.4015	1006.5845	1055.7152	1077.1818	1108.7596	1111.5057	1117.9056	1138.9708	1160.0335	1172.3858	1212.2378	1291.079	1311.8882	1354.3881	1367.1859	1404.2968	1451.425	1493.2012	1502.7585	1540.0408	3033.7847	3057.205	3084.3004	3094.0081	3124.5026	3171.1242	3188.6062	3202.732	3470.1541
CC1C2NC2C11CO1	C[C@H]1[C@H]2N[C@H]2[C@]21CO2	
InChI=1S/C6H9NO/c1-3-4-5(7-4)6(3)2-8-6/h3-5,7H,2H2,1H3	InChI=1S/C6H9NO/c1-3-4-5(7-4)6(3)2-8-6/h3-5,7H,2H2,1H3/t3-,4+,5+,6+/m0/s1
