14
gdb 25011	5.17235	1.3146	1.05516	0.8239	69.24	-0.2122	-0.0124	0.1998	1037.676	0.104715	-432.934913	-432.92829	-432.927346	-432.966066	25.474	
O	-0.0252963914	-0.0099916217	 0.0040245153	-0.349107
C	-0.0313081081	 1.1936171923	 0.0105302059	 0.407852
C	-1.2781046649	 2.1184768666	 0.0324213357	-0.324251
N	-0.6790093171	 3.4368859072	 0.0313092788	-0.041562
C	-1.0106369649	 4.7682428129	 0.042754451	-0.003324
N	 0.0633844945	 5.5186588613	 0.0320339774	-0.265206
C	 1.1540972765	 4.662165475	 0.0126597659	-0.198013
C	 0.6922728993	 3.3765041232	 0.0122559034	 0.379305
N	 1.0670101215	 2.034461014	-0.0000202513	-0.457962
H	-1.8968733354	 1.9278961782	-0.8493289463	 0.162748
H	-1.8726466983	 1.9183800051	 0.9286172059	 0.162743
H	-2.0324079557	 5.1142025333	 0.0585144836	 0.136471
H	 2.1673478442	 5.0283256381	 0.0007575939	 0.112492
H	 2.0121255697	 1.6901015947	-0.0146440694	 0.277813
102.3441	187.3673	295.9795	348.951	435.9795	541.519	559.3435	578.9256	659.3867	687.7899	755.5336	781.8876	792.0259	838.9888	860.469	959.0111	1004.3174	1110.419	1153.6948	1193.6357	1239.5277	1245.9197	1279.8865	1290.1406	1340.3653	1395.9067	1440.4992	1480.2152	1527.2574	1647.4493	1859.1743	3060.9829	3104.7621	3260.5423	3268.4246	3676.1644
O=C1CN2C=NC=C2N1	O=C1Cn2cncc2N1	
InChI=1S/C5H5N3O/c9-5-2-8-3-6-1-4(8)7-5/h1,3H,2H2,(H,7,9)	InChI=1S/C5H5N3O/c9-5-2-8-3-6-1-4(8)7-5/h1,3H,2H2,(H,7,9)
