14
gdb 131151	3.83821	1.28589	1.0627	2.3252	63.5	-0.2731	-0.0754	0.1978	1077.0265	0.099702	-469.927896	-469.920335	-469.91939	-469.960611	27.952	
O	 0.0383437607	 1.3582874257	-0.0361264846	-0.450801
C	-0.0039574073	-0.0338078492	-0.0044842198	 0.309363
C	-0.4855640116	-0.7248135518	 1.2650136336	-0.311287
C	-1.3733363593	-0.6408398933	 0.0494847038	-0.298651
C	 1.0599529673	-0.686645473	-0.7944835537	 0.383605
N	 1.0397819436	-1.8831880081	-1.30887479	-0.170358
O	 2.2591707577	-2.0234979125	-1.8901313416	-0.136796
N	 2.9852264275	-0.8595237411	-1.7007834195	 0.048543
N	 2.2717378495	-0.0596229865	-1.0434925779	-0.229894
H	 0.9090329055	 1.6425118357	 0.267383575	 0.300255
H	-0.0497421966	-1.6830216405	 1.5239550628	 0.133938
H	-0.7045233883	-0.0649643425	 2.0964662227	 0.133464
H	-2.1883164922	 0.0727552059	 0.0695407282	 0.140569
H	-1.5504597765	-1.5399368889	-0.5283677591	 0.148049
47.3035	159.7426	175.4261	294.2718	344.735	347.6583	451.8538	508.6184	550.624	671.383	723.8885	769.467	785.0271	868.393	909.6947	940.1035	954.9405	1002.6093	1057.6153	1062.7568	1075.7963	1091.9308	1196.153	1200.4991	1271.8445	1310.5964	1400.6875	1449.0155	1479.2796	1501.5154	1595.8305	3141.0636	3150.4673	3233.902	3248.7992	3790.6495
OC1(CC1)C1=NON=N1	OC1(CC1)c1nonn1	
InChI=1S/C4H5N3O2/c8-4(1-2-4)3-5-7-9-6-3/h8H,1-2H2	InChI=1S/C4H5N3O2/c8-4(1-2-4)3-5-7-9-6-3/h8H,1-2H2
