19
gdb 88504	2.26798	1.45989	1.16121	1.9286	81.99	-0.2255	0.0374	0.2629	1148.9092	0.157134	-385.819558	-385.810447	-385.809503	-385.853168	35.39	
O	 0.2801993865	 1.3081492106	-0.2029215269	-0.429738
C	 0.0504388917	-0.0545993838	-0.0249653303	 0.13593
C	-0.3962350682	-0.6504164598	 1.2842663848	-0.361693
C	-1.3325086598	-0.6571208771	 0.0835479445	-0.124345
C	-2.5860529583	 0.1847708707	 0.0525430372	 0.196249
C	-3.4029280196	 0.1781221079	-1.2355912722	-0.28931
C	-3.9259342284	-0.5432438757	-0.0300996202	-0.297044
C	-2.5747442975	 1.4110857626	 0.8083022998	 0.201336
C	-2.5588532073	 2.4324619461	 1.4480220191	-0.443273
H	-0.3857066479	 1.8038925084	 0.2897174672	 0.288694
H	 0.7779119789	-0.6162663725	-0.6027965187	 0.102509
H	 0.0332575799	-1.5870905069	 1.6239179068	 0.110047
H	-0.6396326221	 0.0464170494	 2.0803480931	 0.124218
H	-1.472567651	-1.6128526813	-0.4152023065	 0.080795
H	-3.8822813074	 1.1037604836	-1.5304797006	 0.129569
H	-3.0004405623	-0.4056900429	-2.0560521726	 0.124377
H	-3.8892334342	-1.6269540124	-0.0146374139	 0.122511
H	-4.7627784349	-0.1105537149	 0.5050395592	 0.128692
H	-2.5618451482	 3.3307870779	 2.0147326701	 0.200476
59.672	144.399	169.4969	218.5392	239.6632	286.3541	343.3399	369.5406	448.0304	510.1474	558.2781	572.7505	598.9297	658.2055	687.1919	772.5707	783.7809	811.0087	870.4625	887.16	946.2337	964.7553	995.7906	1034.4079	1053.6151	1067.2815	1077.8904	1085.355	1128.3934	1143.0238	1193.4138	1233.7075	1248.7909	1323.3196	1351.1621	1391.9677	1447.2995	1464.	1488.3479	1492.285	2218.8552	3125.3096	3131.461	3138.0796	3142.351	3159.8515	3213.6212	3222.9858	3237.6476	3498.1477	3764.8052
OC1CC1C1(CC1)C#C	O[C@H]1C[C@H]1C1(CC1)C#C	
InChI=1S/C8H10O/c1-2-8(3-4-8)6-5-7(6)9/h1,6-7,9H,3-5H2	InChI=1S/C8H10O/c1-2-8(3-4-8)6-5-7(6)9/h1,6-7,9H,3-5H2/t6-,7+/m1/s1
