18
gdb 55947	4.02832	0.96199	0.92746	5.5161	72.36	-0.2417	0.0208	0.2625	1299.3281	0.148165	-439.070926	-439.062905	-439.061961	-439.104395	30.256	
O	-0.3076129863	 0.0900402818	-0.7943527537	-0.362259
C	-0.0728178617	 1.3287573436	-0.3348452385	 0.417739
O	 0.8474195972	 2.0063070792	-0.7010696637	-0.332761
C	-1.0825835398	 1.7785990567	 0.7334244398	-0.315114
N	-2.27351124	 0.9385534313	 0.7172067823	-0.117713
H	-1.1218224059	-0.1989551774	-0.3276672378	 0.299327
C	-3.1365887011	 0.8127148243	 1.9351231644	-0.182685
C	-4.3628616017	 1.1923164085	 1.1024731713	-0.069841
C	-4.1422570674	 2.5494778897	 0.4846837229	-0.284933
C	-3.4331673244	 1.3523387603	-0.0869303096	-0.011058
H	-0.5845627442	 1.6687993534	 1.7035984744	 0.14194
H	-1.2801502254	 2.8485925587	 0.5880865692	 0.130249
H	-3.1382085798	-0.212215623	 2.3168473939	 0.120069
H	-2.8827374085	 1.5011324674	 2.7505728619	 0.108853
H	-5.329456414	 0.7111498205	 1.1519037689	 0.105073
H	-4.9629578647	 2.9234076769	-0.1188251924	 0.125481
H	-3.5953033361	 3.3180746039	 1.0248654421	 0.116528
H	-3.5335226362	 1.0314109443	-1.1173407554	 0.111106
54.0751	92.2353	140.3902	223.6453	331.9607	378.08	430.7511	521.1862	568.6228	623.2557	741.3824	787.4626	796.7778	832.6557	868.2866	882.2956	937.8058	946.926	967.9671	996.4495	1046.597	1068.3447	1075.9944	1098.62	1111.3314	1150.9687	1183.5932	1207.016	1244.1121	1266.7533	1276.163	1308.2242	1341.3233	1366.9964	1416.8653	1461.885	1481.9857	1511.2191	1879.7487	3022.467	3027.5926	3076.4868	3085.4115	3116.3003	3177.488	3205.8728	3217.6894	3487.8162
[O-]C(=O)C[NH+]1CC2CC12	OC(=O)CN1C[C@H]2C[C@@H]12	
InChI=1S/C6H9NO2/c8-6(9)3-7-2-4-1-5(4)7/h4-5H,1-3H2,(H,8,9)	InChI=1S/C6H9NO2/c8-6(9)3-7-2-4-1-5(4)7/h4-5H,1-3H2,(H,8,9)/t4-,5-/m1/s1
