15
gdb 132150	3.22569	1.32457	0.9444	1.4029	72.34	-0.2263	-0.0226	0.2037	1154.4478	0.112791	-461.945168	-461.937509	-461.936565	-461.977371	29.016	
C	 0.1222123465	 1.4685518824	 0.0339473049	-0.471083
C	-0.0065321222	-0.0251642307	 0.021714471	 0.194734
C	-0.1359027298	-0.7080781348	-1.1232796073	-0.030348
O	-0.2581810216	-2.0760375671	-1.2022908481	-0.211209
C	-0.2440610683	-2.743545406	-0.0476273627	 0.395117
F	-0.3684905198	-4.0322522719	-0.2712136456	-0.040169
C	-0.1219860997	-2.1972755792	 1.1680783887	-0.429047
C	 0.0106695199	-0.7502763871	 1.3058317711	 0.251474
N	 0.1353643948	-0.0856744324	 2.4008643048	-0.53814
H	 1.0556519787	 1.7634206829	 0.5228207076	 0.149279
H	 0.0980971979	 1.8840798496	-0.9767890921	 0.111365
H	-0.6841536335	 1.9127247402	 0.6254148209	 0.149136
H	-0.1595453806	-0.2719089179	-2.1122727011	 0.140646
H	-0.1235741119	-2.8423489418	 2.0373181026	 0.120568
H	 0.1309684096	-0.7167488162	 3.2046778154	 0.207678
114.2949	171.6017	185.9147	291.2479	334.7278	362.5353	414.4067	440.737	521.9828	579.4978	663.3175	737.1525	741.0555	771.0224	820.6108	871.4941	897.6819	950.654	1026.7699	1067.3589	1107.9096	1166.0746	1229.111	1257.6292	1314.3305	1409.8189	1418.5379	1445.2979	1463.4219	1484.085	1654.8161	1678.3499	1740.5378	3044.0133	3106.0251	3124.7486	3215.9612	3237.3256	3447.3091
CC1=COC(F)=CC1=N	CC1=CO[C@@H](F)C=C1[NH]	
InChI=1S/C6H6FNO/c1-4-3-9-6(7)2-5(4)8/h2-3,8H,1H3	InChI=1S/C6H7FNO/c1-4-3-9-6(7)2-5(4)8/h2-3,6,8H,1H3/t6-/m1/s1
