17
gdb 89655	3.04869	1.30223	1.06999	1.7789	76.41	-0.2443	0.0142	0.2585	1145.4835	0.132936	-421.761023	-421.752135	-421.751191	-421.794261	33.827	
C	-0.0807974704	 1.5125089834	 0.043464892	-0.510406
C	 0.2062054985	 0.0519029793	-0.0481879788	 0.282846
O	-0.638291062	-0.8605751031	 0.6724774222	-0.32947
C	 0.7930297969	-0.9222466768	 0.9121287745	 0.212258
C	 1.3686950416	-1.78693949	-0.2167772446	-0.354255
C	 0.7216442134	-0.7818600419	-1.2440087115	 0.09738
O	-0.258579399	-1.2609656749	-2.1193592319	-0.435546
C	 1.2728075117	-0.749720539	 2.2393915653	 0.185298
C	 1.7173581758	-0.6202805886	 3.3494529654	-0.375496
H	 0.7698139203	 2.0953078417	-0.3232609066	 0.130787
H	-0.9538313165	 1.7683418498	-0.566746062	 0.140923
H	-0.2847114958	 1.7966411641	 1.0789178	 0.144153
H	 2.4601167112	-1.7897060092	-0.2503413405	 0.119882
H	 0.990767275	-2.8112573363	-0.2499506633	 0.112598
H	 1.4703809697	-0.2622618553	-1.8467869307	 0.097371
H	-0.9648473017	-1.6104143218	-1.560011325	 0.289011
H	 2.0999955811	-0.5046189114	 4.3334168456	 0.192666
102.1873	121.8817	175.5488	186.775	246.2181	287.9928	362.4964	444.3242	471.962	505.0238	536.6115	564.6051	611.0956	648.5184	673.1473	711.4928	730.667	809.2641	861.5953	920.6456	976.7632	1050.7673	1090.5714	1110.6223	1130.5384	1193.4967	1202.6557	1211.8226	1291.9636	1312.8199	1399.2501	1427.8881	1453.6106	1476.2394	1484.8638	1494.204	2240.0316	3038.4792	3070.5783	3090.0088	3103.9513	3126.6204	3133.7903	3501.3518	3767.1692
CC12OC1(CC2O)C#C	C[C@]12O[C@]1(C[C@H]2O)C#C	
InChI=1S/C7H8O2/c1-3-7-4-5(8)6(7,2)9-7/h1,5,8H,4H2,2H3	InChI=1S/C7H8O2/c1-3-7-4-5(8)6(7,2)9-7/h1,5,8H,4H2,2H3/t5-,6-,7+/m1/s1
