17
gdb 80269	2.66026	1.58514	1.42244	4.5855	75.25	-0.2299	-0.0439	0.186	982.0634	0.136955	-421.843416	-421.835756	-421.834811	-421.875487	29.933	
O	 0.1737573714	 1.2367284487	 0.2448377249	-0.397495
C	 0.0544257848	-0.1298661728	 0.0375080622	 0.090125
C	-1.332277135	-0.6725566632	 0.0241891997	-0.098169
C	-2.5090948942	 0.2797822136	 0.1176438104	-0.329507
C	-2.5168683014	 1.451200595	-0.8703073379	 0.384703
O	-3.1655611239	 2.4519205562	-0.6399687354	-0.345291
C	-1.7981948309	 1.2620667568	-2.1447841184	-0.175742
C	-0.9340800845	 0.2532904857	-2.3387669912	-0.041928
C	-0.5335586926	-0.6811324518	-1.2786858134	-0.150563
H	 0.8570565886	 1.5881844633	-0.3363497656	 0.295531
H	 0.8425229936	-0.7372131695	 0.481458481	 0.098186
H	-1.4802068011	-1.6363045093	 0.5014115919	 0.098551
H	-3.4342855622	-0.2781636931	-0.0785261275	 0.129253
H	-2.6056523758	 0.6971060614	 1.1237573518	 0.138951
H	-2.0272906224	 1.9789253744	-2.9265128377	 0.105047
H	-0.4616080667	 0.1260535161	-3.3103366558	 0.104653
H	-0.1100487878	-1.6241478414	-1.6074711989	 0.093694
83.617	176.3705	204.2872	287.1219	326.3611	431.48	450.2882	470.5192	545.5843	595.7506	653.8417	728.9524	751.552	784.5287	822.8531	886.0617	913.3386	964.4063	986.2321	1004.7378	1031.3988	1075.99	1118.2044	1125.5719	1169.4036	1213.8317	1241.5442	1244.2869	1282.5474	1326.5492	1369.2695	1378.754	1425.3484	1439.9723	1465.8267	1671.5315	1773.8544	3030.4326	3095.5292	3105.2357	3146.7306	3152.844	3168.0984	3191.8396	3803.6892
OC1C2CC(=O)C=CC12	O[C@H]1[C@H]2CC(=O)C=C[C@@H]12	
InChI=1S/C7H8O2/c8-4-1-2-5-6(3-4)7(5)9/h1-2,5-7,9H,3H2	InChI=1S/C7H8O2/c8-4-1-2-5-6(3-4)7(5)9/h1-2,5-7,9H,3H2/t5-,6+,7-/m1/s1
