19
gdb 114679	3.28793	1.43979	1.36981	0.7931	75.21	-0.2407	0.0103	0.251	1034.9972	0.160985	-423.017417	-423.009921	-423.008977	-423.049355	29.723	
C	-0.0336735233	 1.374301903	-0.0936642612	-0.242558
O	-0.0095762777	-0.0308753152	 0.0731889495	-0.244266
C	-1.269177236	-0.6208127117	 0.0110865624	 0.256436
O	-1.8789998888	-0.4830283331	-1.272935287	-0.305544
C	-2.083731664	-1.8471832138	-1.7694972107	 0.062754
C	-2.4947350973	-2.5665662355	-0.4745813445	-0.221661
C	-1.1643539838	-2.1612612824	 0.2128260133	-0.145996
C	-0.1604662174	-2.6375084428	-0.8259901728	-0.05512
C	-0.7172550046	-2.4584497138	-2.0281624823	-0.079063
H	 0.9922998977	 1.728393643	 0.0287714327	 0.1232
H	-0.4002440198	 1.6521189556	-1.0885973628	 0.128363
H	-0.6703761002	 1.8572223127	 0.66400492	 0.101909
H	-1.9363893871	-0.1489300302	 0.7521039546	 0.063435
H	-2.7896074359	-1.7939545773	-2.5961762373	 0.074893
H	-3.3893341331	-2.1337681474	-0.0173178724	 0.100932
H	-2.6014099408	-3.647062724	-0.5801547362	 0.105198
H	-0.9992504285	-2.4617320174	 1.2460564158	 0.073088
H	 0.8512196883	-2.9475264354	-0.6023159617	 0.104791
H	-0.2620364674	-2.5872591044	-3.0010855295	 0.099208
101.792	152.325	190.3013	255.84	366.0969	471.0476	483.0595	511.0764	556.7234	689.8441	755.1265	799.9244	845.4379	861.4977	879.2723	919.8169	940.6696	942.4037	963.4685	980.5296	1000.5536	1029.3136	1049.208	1127.7773	1140.6078	1153.2083	1180.0947	1193.9671	1227.4467	1274.2403	1275.3625	1287.5926	1296.2996	1344.9692	1364.4825	1397.6229	1479.2427	1484.2439	1492.5943	1512.8825	1638.8515	2956.1457	2986.4877	3064.1706	3064.4941	3122.8731	3132.3112	3134.1845	3140.8046	3210.408	3235.4828
COC1OC2CC1C=C2	CO[C@H]1O[C@@H]2C[C@H]1C=C2	
InChI=1S/C7H10O2/c1-8-7-5-2-3-6(4-5)9-7/h2-3,5-7H,4H2,1H3	InChI=1S/C7H10O2/c1-8-7-5-2-3-6(4-5)9-7/h2-3,5-7H,4H2,1H3/t5-,6+,7+/m1/s1
