20
gdb 115824	3.28874	1.17847	1.09212	1.7311	75.3	-0.2456	0.0811	0.3266	1210.0618	0.171397	-440.257334	-440.248553	-440.247608	-440.291458	32.536	
C	 0.2955281607	 0.6690359336	 0.8162502605	-0.24182
O	-0.2099690667	-0.5513603481	 0.3071449539	-0.24755
C	-1.4401479569	-0.416704433	-0.3554488547	 0.225824
C	-1.8726989262	-1.807551802	-0.8156430551	-0.332835
C	-2.5490575267	-2.3364421499	 0.4408428165	 0.313956
C	-3.1384556729	-3.6882731317	 0.5465019716	-0.311925
N	-1.9154064394	-3.3450757196	 1.2984392777	-0.340635
C	-3.1022443511	-1.0932289468	 1.1319605738	-0.123413
O	-2.4763131563	 0.0309550439	 0.4958860788	-0.272524
H	 1.2484960634	 0.4438026858	 1.299588935	 0.125155
H	 0.4675491093	 1.3975988547	 0.0086948333	 0.102587
H	-0.3893346885	 1.1138151281	 1.5470871806	 0.127034
H	-1.3573468331	 0.3335505689	-1.1549720957	 0.067926
H	-2.590085889	-1.711577135	-1.6373273851	 0.112404
H	-1.0292404335	-2.4152385189	-1.1492441621	 0.112962
H	-4.0194072488	-3.8569421008	 1.1613200053	 0.117971
H	-3.0622378433	-4.3471676188	-0.3158028758	 0.110608
H	-1.0952708667	-3.7341748054	 0.8397513738	 0.231231
H	-4.1856566848	-0.9852066009	 1.0027756871	 0.102663
H	-2.8706314196	-1.1173361042	 2.2017733307	 0.12038
49.2661	90.7559	132.1602	194.7319	253.0743	285.2645	380.5367	384.1437	405.9076	513.686	567.6184	775.6615	787.029	832.0134	864.5214	920.3618	934.6743	949.5616	956.5331	995.0108	1020.8294	1060.3747	1073.6072	1103.4171	1133.8307	1143.0614	1179.8176	1184.9767	1218.5198	1232.2304	1256.7342	1296.6357	1307.7791	1337.0136	1371.5633	1394.2975	1426.2719	1473.9443	1476.2342	1484.1352	1513.5436	1516.3661	1517.7769	2986.7283	3006.4542	3028.7841	3055.5536	3065.6159	3077.2448	3096.7954	3118.7482	3125.7979	3178.6329	3498.9103
COC1CC2(CN2)CO1	CO[C@H]1C[C@]2(CN2)CO1	
InChI=1S/C6H11NO2/c1-8-5-2-6(3-7-6)4-9-5/h5,7H,2-4H2,1H3	InChI=1S/C6H11NO2/c1-8-5-2-6(3-7-6)4-9-5/h5,7H,2-4H2,1H3/t5-,6+/m1/s1
