20
gdb 86621	2.63015	1.33801	1.21873	1.4532	74.39	-0.2521	0.0687	0.3207	1138.771	0.171222	-440.238584	-440.229678	-440.228734	-440.272302	33.562	
C	 0.4239647849	 1.4107174322	-0.3339332597	-0.4038
C	 0.0927909826	-0.0212036083	 0.0220668453	 0.114869
O	 0.81768678	-1.0012502822	-0.7796021806	-0.321029
C	 1.2777745896	-1.7103100268	 0.3913925986	 0.057579
C	 2.7781842995	-1.8527278836	 0.4286073765	-0.022857
C	 3.5599983065	-2.0902875489	-0.8021910762	-0.247072
N	 3.6089616836	-0.768038926	-0.137747632	-0.346047
C	 0.6701020368	-0.6305121297	 1.3333489952	 0.062389
O	 1.5634277416	 0.1408056875	 2.0902434747	-0.432418
H	 1.4742608342	 1.6462461667	-0.1412196697	 0.1157
H	 0.2135223502	 1.5918474749	-1.3923335147	 0.128728
H	-0.1867798386	 2.0965621251	 0.2615167116	 0.129338
H	-0.9866912536	-0.1975853687	-0.0770138979	 0.079765
H	 0.7970800058	-2.6943153269	 0.4790582688	 0.081842
H	 3.1559857508	-2.2521156325	 1.3676207066	 0.107445
H	 4.4793967442	-2.6658814469	-0.7559240498	 0.122634
H	 3.0156043147	-2.1539171779	-1.739644485	 0.132035
H	 2.9837323495	-0.1667081427	-0.6750402179	 0.240595
H	-0.0894993547	-0.9930409275	 2.0290338485	 0.093577
H	 2.4037748023	 0.2096289521	 1.6201336977	 0.306728
74.4966	105.2909	157.8955	199.4858	237.4	252.302	334.9838	391.6326	421.954	501.36	552.7559	613.1899	759.3816	795.9937	840.9017	872.935	876.4681	891.1669	964.4162	987.3162	1016.1865	1020.8677	1066.2485	1097.8952	1130.1693	1147.8261	1149.1493	1176.0085	1191.3343	1233.2697	1261.1669	1291.8808	1299.4108	1312.9888	1338.3849	1349.9915	1392.2725	1412.0025	1420.9296	1446.2181	1486.5315	1488.2434	1503.8622	3008.6571	3013.9005	3042.7385	3091.4902	3115.5167	3118.6095	3119.1861	3134.5684	3209.5799	3463.724	3775.6625
CC1OC(C2CN2)C1O	C[C@H]1O[C@@H]([C@H]2CN2)[C@H]1O	
InChI=1S/C6H11NO2/c1-3-5(8)6(9-3)4-2-7-4/h3-8H,2H2,1H3	InChI=1S/C6H11NO2/c1-3-5(8)6(9-3)4-2-7-4/h3-8H,2H2,1H3/t3-,4-,5+,6+/m1/s1
