18
gdb 64105	3.4138	1.25155	1.1317	4.3182	68.04	-0.2581	0.048	0.3061	1121.5024	0.148211	-476.274133	-476.265466	-476.264522	-476.307292	32.842	
C	-0.0268117879	 1.5730209669	 0.0071042644	-0.420101
C	-0.004851734	 0.0487655127	 0.0027332883	 0.323163
O	-1.3583570043	-0.385394628	 0.0639021632	-0.471547
C	 0.6818583668	-0.494467538	-1.2616982067	-0.168444
N	 1.072809999	-1.8856348813	-1.0698354458	-0.370421
C	 0.9914436075	-2.6316230393	 0.0726460545	 0.441295
O	 1.1787175827	-3.820216661	 0.1190533437	-0.386103
O	 0.6491915843	-1.9456757803	 1.2088061273	-0.256876
C	 0.7642288917	-0.5165547557	 1.1960983363	-0.110984
H	 0.985065558	 1.988279681	 0.0080305154	 0.118351
H	-0.5537320305	 1.9437398184	-0.876912889	 0.134055
H	-0.5593069664	 1.9328085349	 0.8910893541	 0.133054
H	-1.3656151233	-1.2848602806	 0.4129325936	 0.296578
H	-0.0212913645	-0.4152081341	-2.0974359424	 0.125895
H	 1.5638265377	 0.1152558452	-1.4992983438	 0.106459
H	 1.3010056755	-2.4393621464	-1.8799961819	 0.2615
H	 1.8213026946	-0.2245031777	 1.1626607118	 0.115514
H	 0.3299356031	-0.1801913166	 2.1400274671	 0.12861
87.7902	110.607	204.9442	226.3345	263.4776	325.3882	383.4014	397.9441	411.0699	494.2974	520.9366	545.7954	595.5191	716.048	765.8407	815.4399	867.3443	899.3412	942.2896	976.03	1031.259	1071.6141	1106.9309	1113.7831	1198.2285	1228.1603	1264.9123	1294.8837	1314.2703	1349.2584	1404.2123	1417.3953	1428.3688	1473.5083	1485.428	1497.6309	1501.4702	1521.1181	1854.1251	3008.8845	3032.0423	3047.0073	3069.0479	3112.9591	3119.7547	3127.7736	3642.7527	3790.3756
CC1(O)CNC(=O)OC1	C[C@@]1(O)CNC(=O)OC1	
InChI=1S/C5H9NO3/c1-5(8)2-6-4(7)9-3-5/h8H,2-3H2,1H3,(H,6,7)	InChI=1S/C5H9NO3/c1-5(8)2-6-4(7)9-3-5/h8H,2-3H2,1H3,(H,6,7)/t5-/m1/s1
