19
gdb 123864	3.35003	1.50514	1.08433	1.9234	80.86	-0.2262	0.0261	0.2523	1107.9972	0.16444	-382.120484	-382.113353	-382.112408	-382.151901	28.914	
C	-0.0191698133	 1.5475145227	-0.0487240805	-0.193324
C	 1.4111261084	 2.1086447891	 0.0315163746	-0.197952
C	 2.0835529133	 1.764863586	 1.3745851184	-0.306958
C	 1.8631284921	 0.3173587807	 1.700570229	 0.297798
N	 2.5523363394	-0.3557421488	 2.6192309359	-0.316708
N	 2.0117156505	-1.5909197497	 2.5924394234	-0.187318
C	 1.0070229082	-1.7186225198	 1.6894885098	-0.165388
C	 0.8759619075	-0.4876705936	 1.0796350541	 0.192653
C	-0.0308427111	 0.0062061586	-0.0109008318	-0.330798
H	-0.6038405713	 1.935976002	 0.7956401059	 0.098627
H	-0.5134319189	 1.8976871619	-0.9612615268	 0.090831
H	 2.0062514912	 1.6919227936	-0.7919513326	 0.098322
H	 1.399430957	 3.1946913689	-0.1088615092	 0.09235
H	 3.1538950742	 1.9940448399	 1.3488434445	 0.112753
H	 1.6541655202	 2.3917576707	 2.1682090923	 0.110664
H	 2.3751155091	-2.2945212886	 3.2116163543	 0.270133
H	 0.482059424	-2.6518194216	 1.5554516763	 0.127296
H	-1.0546407906	-0.3620267813	 0.1233593879	 0.100821
H	 0.3041386899	-0.3776038907	-0.9851206754	 0.106198
107.3607	211.6601	307.7463	312.2113	377.7058	440.6764	483.5595	495.5971	652.2554	662.1795	687.1693	715.4058	774.7404	833.6345	855.782	922.7672	942.2151	962.0574	967.4536	1068.1169	1074.5786	1100.9564	1154.2023	1160.258	1169.4202	1217.9959	1264.562	1271.356	1307.1226	1350.6075	1360.1935	1368.3179	1377.888	1416.1969	1474.5956	1478.2871	1483.714	1491.2174	1501.298	1515.3962	1606.4727	3001.4745	3011.9795	3018.4417	3024.083	3050.7356	3069.476	3070.6632	3075.1567	3253.1874	3680.6077
C1CCC2=NNC=C2C1	C1CCc2n[nH]cc2C1	
InChI=1S/C7H10N2/c1-2-4-7-6(3-1)5-8-9-7/h5H,1-4H2,(H,8,9)	InChI=1S/C7H10N2/c1-2-4-7-6(3-1)5-8-9-7/h5H,1-4H2,(H,8,9)
