15
gdb 78830	3.09365	1.50162	1.22524	3.8433	68.29	-0.2584	0.0007	0.2591	996.28	0.113372	-416.735884	-416.728679	-416.727735	-416.76754	27.753	
O	 0.0650548515	 1.2861761623	 0.1328370115	-0.43832
C	 0.0325596125	-0.1119867316	-0.0348641317	 0.107229
C	-1.422045569	-0.5385878347	-0.2047390107	-0.040043
C	-1.34436555	-0.4071625523	-1.6762003575	-0.044491
C	 0.2156588457	-0.5593776069	-1.5179446268	-0.135919
C	-0.0726419303	-2.0717205302	-1.4560272227	-0.11097
C	 0.6985798893	-2.9169938686	-0.5446489379	 0.296405
N	 1.3240205242	-3.5723653898	 0.1734260715	-0.329322
N	-1.5006472523	-1.7651946851	-1.0728627839	-0.152228
H	 0.9861242958	 1.5576759751	 0.1989725819	 0.291415
H	 0.6447417937	-0.6258958817	 0.717255857	 0.097564
H	-2.2531943064	-0.3717965885	 0.4662739184	 0.116824
H	-2.0009228292	-2.4735*^-6	-2.4314773678	 0.115695
H	 1.0085087919	-0.1400063265	-2.1336558586	 0.091146
H	-0.0944632273	-2.5389394679	-2.4441067529	 0.135016
122.2604	152.9387	245.5952	285.4019	329.9616	388.8738	477.507	541.4354	606.7967	747.5733	780.8368	808.5793	837.1099	887.9407	929.3293	942.8404	967.06	997.6039	999.4811	1038.3635	1057.5225	1113.9525	1147.1208	1165.9565	1190.7065	1205.6759	1223.8626	1248.9625	1316.3694	1338.3795	1360.4653	1438.1504	2351.842	3027.4422	3080.821	3144.2354	3216.4767	3230.2251	3818.9345
OC1C2C3C1C(C#N)N23	O[C@H]1[C@H]2[C@H]3[C@@H]1[C@@H](C#N)N23	
InChI=1S/C6H6N2O/c7-1-2-3-4-5(6(3)9)8(2)4/h2-6,9H	InChI=1S/C6H6N2O/c7-1-2-3-4-5(6(3)9)8(2)4/h2-6,9H/t2-,3+,4-,5-,6-,8?/m1/s1
