21
gdb 92219	2.93468	1.70075	1.56025	1.3151	80.59	-0.2545	0.0758	0.3302	966.3491	0.186974	-387.089046	-387.082181	-387.081237	-387.119836	29.617	
O	 0.0600119005	 1.4374911436	-0.1621988967	-0.433337
C	 0.0581507594	 0.0198954733	-0.0145200426	 0.087353
C	 0.6862594216	-0.4908177375	 1.3197178481	-0.249367
C	-0.5469414907	-0.8450534949	 2.1670830785	-0.014136
C	-1.4077327426	 0.447737964	 2.3374253321	-0.215094
C	-2.3336360325	 0.2443668866	 1.1218999512	-0.016022
C	-2.9080805138	-1.1678981857	 1.4314620508	-0.241064
C	-1.4544300353	-1.6086329509	 1.1526522996	-0.033144
C	-1.3869839953	-0.4720053557	 0.0881750825	 0.005287
H	 0.974483652	 1.7256604098	-0.2426103794	 0.280335
H	 0.5585834361	-0.4398741837	-0.879278829	 0.059381
H	 1.2997875487	-1.3805098492	 1.1333622379	 0.088926
H	 1.3272398959	 0.2670973099	 1.7825976547	 0.086252
H	-0.3209748972	-1.3715929787	 3.0962279434	 0.053364
H	-1.9737781508	 0.4617616326	 3.2738538417	 0.084888
H	-0.8100990894	 1.358716782	 2.2770104089	 0.102151
H	-2.9718345239	 1.0760597129	 0.8255965361	 0.061289
H	-3.3325910076	-1.3401628828	 2.4255870762	 0.083656
H	-3.5999958567	-1.527110832	 0.6650178913	 0.091925
H	-1.1828016387	-2.6408379843	 0.9246367894	 0.054191
H	-1.8808877598	-0.6803830894	-0.8616814947	 0.063166
158.8046	243.5203	294.2506	378.6941	422.2271	463.428	475.3111	581.1928	667.8109	780.201	796.0119	827.9981	837.4105	849.9219	871.5662	895.062	940.8975	953.732	964.8573	984.686	1003.3066	1020.4128	1040.9134	1072.8834	1085.6093	1096.6186	1108.8948	1158.5369	1168.6764	1190.2761	1210.379	1234.1128	1241.6198	1251.7558	1269.7657	1289.2158	1305.4968	1323.701	1334.0821	1351.2413	1365.9159	1424.6999	1480.4078	1497.8485	1516.5199	2982.2333	3030.6537	3044.7533	3053.5726	3077.6351	3087.3901	3097.391	3102.2231	3107.5943	3116.1026	3123.4037	3818.7077
OC1CC2CC3CC2C13	O[C@H]1C[C@H]2C[C@@H]3C[C@H]2[C@H]13	
InChI=1S/C8H12O/c9-7-3-4-1-5-2-6(4)8(5)7/h4-9H,1-3H2	InChI=1S/C8H12O/c9-7-3-4-1-5-2-6(4)8(5)7/h4-9H,1-3H2/t4-,5-,6-,7+,8-/m1/s1
