25
gdb 110202	2.02093	1.47966	1.02378	0.1083	94.13	-0.2763	0.0863	0.3626	1332.0493	0.228085	-352.327825	-352.317848	-352.316903	-352.362076	38.841	
C	-0.0049840198	 1.6135082378	 0.0991682046	-0.37807
C	 0.0304525191	 0.0807940171	 0.1677775462	-0.236637
C	-1.3528329321	-0.5473919929	 0.0322673975	-0.000205
C	-2.0390125475	-0.8092042625	-1.3575262493	 0.329124
C	-2.4396747945	 0.1997599821	-2.4025429421	-0.512902
C	-1.0810459435	-2.026648814	-1.5400545705	-0.305776
C	-1.5525759116	-2.0995954963	-0.0545890016	 0.317836
C	-1.170238411	-3.1265427984	 0.9785993671	-0.514408
C	-2.9808304262	-1.7898924262	-0.5954947982	-0.293657
H	 0.9928316232	 2.0402451313	 0.242260668	 0.108996
H	-0.3807789542	 1.9631767094	-0.867974184	 0.118757
H	-0.6583321885	 2.0287448701	 0.8746870958	 0.112862
H	 0.7206301719	-0.298546575	-0.5931229928	 0.094999
H	 0.4552312245	-0.2211594683	 1.135164091	 0.094673
H	-2.031009559	-0.0739716698	 0.7568144561	 0.046826
H	-1.568510094	 0.7336330856	-2.7980602095	 0.117345
H	-2.9396724444	-0.288290416	-3.246949972	 0.114484
H	-3.1302800474	 0.9439451663	-1.990170814	 0.115293
H	-1.4410513746	-2.8251835947	-2.1972021603	 0.079933
H	-0.0256046177	-1.8224890392	-1.731308408	 0.085287
H	-0.0918433291	-3.1126416721	 1.1732215949	 0.116401
H	-1.6837336772	-2.9407253304	 1.9288097285	 0.114974
H	-1.435094634	-4.1369393345	 0.6475189631	 0.116144
H	-3.6888255924	-1.3438720757	 0.1109508214	 0.078887
H	-3.4548420501	-2.5731450138	-1.1958043619	 0.078836
79.1021	135.3286	200.2856	209.612	214.9285	219.7246	224.8649	280.9695	350.1938	366.8397	457.1502	544.8222	576.4878	582.8718	654.9237	734.0222	764.0621	811.2337	859.1399	911.3309	916.7641	968.4066	1003.2284	1011.6701	1017.9594	1046.8201	1050.6591	1099.7921	1114.6459	1131.6869	1149.6932	1158.3861	1175.4444	1199.3884	1210.0715	1226.4671	1286.8284	1306.8196	1342.4297	1352.496	1407.6859	1410.6068	1412.4924	1434.6567	1483.6872	1488.9777	1490.3541	1491.1416	1492.5356	1500.1439	1501.6297	1508.8823	1550.4703	2995.2313	3013.3827	3022.3705	3022.9757	3030.9204	3032.3063	3047.9759	3063.5229	3087.6916	3089.1903	3089.9157	3090.3711	3095.2342	3098.7188	3103.0957	3114.0721
CCC1C2(C)CC1(C)C2	CC[C@H]1[C@@]2(C)C[C@]1(C)C2	
InChI=1S/C9H16/c1-4-7-8(2)5-9(7,3)6-8/h7H,4-6H2,1-3H3	InChI=1S/C9H16/c1-4-7-8(2)5-9(7,3)6-8/h7H,4-6H2,1-3H3/t7-,8-,9+
