20
gdb 29569	2.77146	1.34038	0.96229	1.6216	86.02	-0.1956	0.0538	0.2494	1256.5677	0.172147	-366.041776	-366.032957	-366.032013	-366.075794	33.454	
C	-0.6165149799	 1.3322869643	 0.2127669679	-0.505514
C	-0.1186373504	-0.0723596704	 0.0561487356	 0.186096
C	-0.1532699651	-0.8340048294	-1.088504643	-0.164907
N	 0.3988801779	-2.0594985057	-0.8068438735	-0.247917
C	 0.7916080518	-2.0940517492	 0.5062809035	-0.179034
C	 0.483672495	-0.8795835413	 1.079563209	 0.196658
C	 0.7333086741	-0.4590454774	 2.4794353246	-0.119683
C	-0.352361266	-0.5679586154	 3.5345016318	-0.249368
C	 0.8555523276	-1.4673091082	 3.5944180178	-0.26957
H	 0.1897259028	 2.0251126834	 0.4846026998	 0.119209
H	-1.0639443928	 1.6988735749	-0.7159321235	 0.113361
H	-1.3748106708	 1.4083301564	 1.0010395595	 0.125028
H	-0.5280704679	-0.6037763006	-2.0736620077	 0.111056
H	 0.4995580494	-2.8141282293	-1.4613413099	 0.25749
H	 1.2645932482	-2.9680348851	 0.9245078933	 0.113757
H	 1.3674295251	 0.419460222	 2.5829876335	 0.083871
H	-0.44129878	 0.2281815334	 4.2657751387	 0.104639
H	-1.294376316	-1.0127969353	 3.2336140248	 0.1115
H	 0.7115711962	-2.5138884563	 3.35031263	 0.107877
H	 1.594870011	-1.2896357608	 4.3674947277	 0.10545
43.551	116.255	150.8927	161.1295	252.1956	285.7185	382.1076	440.5442	474.1031	575.5463	637.9297	670.0752	690.0452	723.2423	762.	797.4036	827.3901	899.2016	918.2179	926.1575	1001.9542	1055.2736	1062.4165	1073.2523	1080.5502	1088.3051	1120.2116	1133.2466	1187.9981	1199.3667	1224.3809	1258.3767	1323.8598	1373.0826	1413.4847	1421.3237	1465.5627	1473.2929	1481.4899	1497.9204	1500.1818	1566.8793	1623.6115	3018.1529	3063.8547	3100.3381	3112.9738	3130.4441	3136.9736	3210.6369	3225.6581	3252.2296	3260.1259	3692.6686
CC1=CNC=C1C1CC1	Cc1c[nH]cc1C1CC1	
InChI=1S/C8H11N/c1-6-4-9-5-8(6)7-2-3-7/h4-5,7,9H,2-3H2,1H3	InChI=1S/C8H11N/c1-6-4-9-5-8(6)7-2-3-7/h4-5,7,9H,2-3H2,1H3
