17
gdb 13509	3.27135	1.69014	1.39234	3.0497	64.76	-0.2319	-0.0117	0.2203	943.3952	0.140854	-400.985589	-400.977092	-400.976148	-401.019408	30.353	
C	 0.2363411936	 1.5889941731	-0.2626167276	-0.486438
C	-0.005655062	 0.1345742539	 0.0931965894	 0.374332
O	-0.0805468428	-0.2579138203	 1.2330466602	-0.293751
C	-0.1940058411	-0.8005473503	-1.0933302231	-0.120927
N	-0.645552831	-2.1671958485	-0.7967406761	-0.305301
C	-1.5331839922	-2.1680982471	-1.9792716584	-0.198783
C	-1.4987587473	-0.6184740074	-1.9485987174	 0.134816
O	-2.5633612579	-0.0010264175	-1.2686075028	-0.42977
H	 1.0081323081	 1.6935536115	-1.0324067822	 0.127486
H	-0.6934624551	 2.0011017415	-0.672205671	 0.161062
H	 0.5182224509	 2.1488358502	 0.6299580844	 0.141365
H	 0.6956777418	-0.7315101135	-1.7426912648	 0.075142
H	 0.0643759737	-2.8872644722	-0.741096053	 0.224948
H	-1.0861925896	-2.5694400275	-2.9008209746	 0.093294
H	-2.5119586349	-2.6349741187	-1.822735116	 0.106916
H	-1.3965651968	-0.0994869807	-2.9017297139	 0.095451
H	-2.6824831875	-0.4656840464	-0.4303957631	 0.300158
36.0656	111.098	123.1228	150.0167	230.95	357.8397	399.858	446.0579	457.4461	540.3074	618.857	677.1353	768.3298	853.0728	908.0059	944.7366	963.2914	996.715	1026.5676	1041.9719	1081.2402	1128.071	1147.4246	1186.2944	1197.5486	1233.753	1285.8888	1323.3059	1365.3758	1375.3336	1390.3709	1441.3496	1467.6962	1475.8183	1516.3637	1818.0988	2952.8664	2991.6354	3036.4795	3061.27	3101.0923	3116.8739	3151.218	3550.8092	3780.1397
CC(=O)C1NCC1O	CC(=O)[C@H]1NC[C@H]1O	
InChI=1S/C5H9NO2/c1-3(7)5-4(8)2-6-5/h4-6,8H,2H2,1H3	InChI=1S/C5H9NO2/c1-3(7)5-4(8)2-6-5/h4-6,8H,2H2,1H3/t4-,5-/m1/s1
