17
gdb 69943	3.99356	1.38885	1.21559	1.8111	73.95	-0.2338	-0.0047	0.2291	1024.9915	0.136446	-421.763973	-421.756659	-421.755715	-421.795384	29.306	
O	 0.0133370442	 1.4135423735	 0.0721522503	-0.467703
C	 0.0397780146	 0.022453533	 0.0676755713	 0.382097
C	-0.3823656014	-0.7450139694	-1.1669817733	-0.339121
C	-1.2751171093	-0.7780864458	 0.0544025327	-0.129218
C	-1.0963350889	-1.8607620208	 1.0867356394	 0.102357
O	-0.841779503	-3.2801793213	 0.7518850534	-0.306812
C	 0.3800403649	-3.2864698902	 1.5529066321	-0.142365
C	 0.3501032443	-1.7786338045	 1.4851353471	 0.149379
C	 1.0021369773	-0.7650384512	 0.9176570678	-0.274394
H	 0.6362834571	 1.7306867901	-0.5901598938	 0.285403
H	-0.7629195604	-0.1527789663	-1.993377977	 0.114786
H	 0.1576815754	-1.6430654699	-1.4462273818	 0.125485
H	-2.210370173	-0.2356546909	-0.0010281659	 0.096223
H	-1.8537882667	-1.8146037674	 1.8787485021	 0.08066
H	 0.2037440614	-3.730592458	 2.5415941661	 0.106745
H	 1.2057649681	-3.8034744668	 1.0542205476	 0.117703
H	 2.0765137955	-0.6334683041	 0.8495265718	 0.098774
149.1939	197.4831	216.6519	300.8001	333.525	405.3703	466.4557	509.8384	581.8837	671.8217	734.3483	779.1723	836.9629	850.4356	885.6604	899.0038	917.1526	929.7311	972.1665	997.8239	1011.1031	1062.2691	1076.7367	1092.2027	1113.4088	1141.0041	1208.6946	1228.728	1262.0123	1294.2089	1320.8856	1335.6783	1363.8192	1393.9538	1467.9314	1514.5875	1714.1923	3011.1566	3027.1879	3080.4799	3126.4595	3190.877	3195.9091	3220.7678	3803.2618
OC12CC1C1OCC1=C2	O[C@]12C[C@H]1[C@H]1OC[C]1[CH]2	
InChI=1S/C7H8O2/c8-7-1-4-3-9-6(4)5(7)2-7/h1,5-6,8H,2-3H2	InChI=1S/C7H8O2/c8-7-1-4-3-9-6(4)5(7)2-7/h1,5-6,8H,2-3H2/t5-,6-,7+/m0/s1
