17
gdb 72067	2.56618	1.6658	1.30674	2.3335	74.28	-0.2386	-0.0298	0.2088	1010.6158	0.134633	-421.773592	-421.765616	-421.764671	-421.806116	29.978	
C	-0.3680887065	 1.3641144963	 0.0819636743	-0.505407
C	-0.0230401341	-0.0907340921	 0.0120227071	 0.231975
C	 0.9629944847	-0.8165044114	-0.9163585473	-0.279596
C	 0.2575388216	-2.1173122097	-0.4673130991	-0.013456
O	 0.5972306916	-2.2042163594	 0.9502426522	-0.286296
C	-0.230735655	-1.0661026454	 1.1447467698	 0.020011
C	-1.0282998862	-1.2807034102	-0.1344516733	 0.192379
C	-2.4621389483	-1.2788880612	-0.380091684	-0.004771
O	-3.2241260923	-0.4655159938	 0.1015011965	-0.287201
H	 0.4425109725	 1.9356156504	 0.5479309971	 0.128175
H	-0.5445487134	 1.7775769239	-0.9161447479	 0.128471
H	-1.2808427194	 1.5118168933	 0.6660173483	 0.152853
H	 0.7649042668	-0.5788262344	-1.9644320766	 0.111316
H	 2.0330398394	-0.746751699	-0.6959152165	 0.107937
H	 0.3387912406	-3.0660877564	-0.9923225304	 0.097962
H	-0.5829507444	-0.8191586425	 2.1376563773	 0.129756
H	-2.8309926376	-2.0841631984	-1.0529931774	 0.075892
115.4537	130.3115	177.0502	189.3857	275.9521	306.6219	401.3881	502.0101	558.0971	616.1938	699.2077	730.8781	788.4344	831.7569	876.728	919.8676	950.1896	984.7492	999.1633	1030.1117	1045.4556	1079.8863	1087.2621	1142.9759	1175.6759	1199.8019	1236.0052	1242.8415	1292.1386	1334.7039	1407.5982	1422.4632	1444.3593	1481.242	1489.587	1499.0238	1767.1348	2881.7006	3032.8768	3049.8464	3095.7267	3116.5653	3117.4366	3154.7239	3216.3169
CC12CC3OC1C23C=O	C[C@@]12C[C@H]3O[C@@H]1[C@@]23C=O	
InChI=1S/C7H8O2/c1-6-2-4-7(6,3-8)5(6)9-4/h3-5H,2H2,1H3	InChI=1S/C7H8O2/c1-6-2-4-7(6,3-8)5(6)9-4/h3-5H,2H2,1H3/t4-,5+,6-,7+/m1/s1
