20
gdb 12877	2.62033	2.13448	1.73147	1.2431	74.2	-0.2405	0.0712	0.3117	894.1393	0.178157	-349.008232	-349.000254	-348.99931	-349.039887	31.214	
C	 0.1291912016	 1.5525986904	-0.0902143594	-0.478649
C	-0.0383882645	 0.0568549718	 0.0492934887	 0.308764
C	-1.4533711844	-0.5091597897	-0.0661926179	-0.252322
C	-1.4536304368	-1.8726412748	 0.6632983745	-0.208793
C	-0.2688418108	-1.815455568	 1.6595170716	-0.220802
C	 0.6907200558	-0.7709680369	 1.1069269468	-0.133472
C	 1.0910937767	-0.8492199895	-0.3509891754	 0.050559
O	 0.8321514945	-1.9710366059	-1.1510814279	-0.420302
H	 1.1710203148	 1.8565907807	 0.0531692498	 0.110644
H	-0.1805909284	 1.895625854	-1.0847850228	 0.118047
H	-0.4784914622	 2.0890038483	 0.6483562237	 0.112468
H	-2.138589871	 0.1938388225	 0.423954814	 0.090655
H	-1.7820664641	-0.6025290583	-1.1066311162	 0.102269
H	-2.4035342388	-2.0667419651	 1.1697870804	 0.08676
H	-1.2932472849	-2.6742885184	-0.0578287402	 0.113754
H	-0.6065064541	-1.4897080368	 2.6504769575	 0.097841
H	 0.1970849112	-2.7985804702	 1.7962479199	 0.086895
H	 1.394610032	-0.3075540782	 1.7924899868	 0.072425
H	 2.0219601049	-0.3393489016	-0.6056243253	 0.076533
H	 1.4297647184	-2.6748477641	-0.8774345187	 0.286725
169.4393	184.8038	199.1105	237.1845	248.327	299.1302	319.2089	488.3548	520.8616	562.7116	674.0753	711.5293	779.4013	847.5606	852.5806	891.7538	913.2431	955.6953	1005.1284	1020.2295	1049.1791	1071.472	1091.7596	1121.9201	1137.5264	1196.9462	1208.2047	1251.4722	1260.2428	1278.5978	1304.9558	1327.6203	1340.1719	1351.8572	1375.7236	1418.0455	1464.5678	1483.5348	1488.8009	1492.8326	1500.8946	1515.2288	3018.2937	3025.279	3027.0435	3056.6006	3065.9588	3069.8746	3077.4591	3077.9786	3095.2218	3127.1502	3145.6998	3803.2615
CC12CCCC1C2O	C[C@]12CCC[C@H]1[C@H]2O	
InChI=1S/C7H12O/c1-7-4-2-3-5(7)6(7)8/h5-6,8H,2-4H2,1H3	InChI=1S/C7H12O/c1-7-4-2-3-5(7)6(7)8/h5-6,8H,2-4H2,1H3/t5-,6+,7-/m0/s1
