19
gdb 106425	2.94682	1.33018	1.16637	2.2034	76.13	-0.2396	0.0693	0.309	1129.5365	0.158267	-422.929302	-422.921001	-422.920057	-422.962104	32.397	
O	-0.0228781254	 1.4174869399	-0.1546975825	-0.414631
C	 0.0333022575	 0.016734107	 0.0354658454	-0.186604
C	-1.3451671825	-0.5578672063	 0.1717740661	 0.280997
C	-2.5019462642	-0.1651867322	 1.1317356017	-0.25281
C	-3.0700542364	-1.0552311839	 0.0019377491	-0.047912
O	-2.2681596617	-0.2747265698	-0.9762272839	-0.360037
C	-1.8758591571	-2.0022842773	 0.170081659	 0.409778
C	-1.4557853814	-3.2346359353	-0.5392642763	-0.359244
C	-1.6101321161	-3.2217058805	 0.982030872	-0.360518
H	-0.6924891608	 1.571132794	-0.8324696558	 0.29625
H	 0.5503128751	-0.4880390028	-0.7966547443	 0.09965
H	 0.6092701669	-0.1650400305	 0.9493601142	 0.115957
H	-2.480966397	-0.571875356	 2.1452974558	 0.099364
H	-2.7981421751	 0.8829087912	 1.0878955	 0.108422
H	-4.1044191858	-1.2757258748	-0.2614577427	 0.097127
H	-2.1961088161	-3.7756196899	-1.1196708782	 0.120091
H	-0.450414102	-3.2864686171	-0.9446570618	 0.118826
H	-0.7073718716	-3.2638291563	 1.583377101	 0.117486
H	-2.4529079661	-3.7547747395	 1.4108759712	 0.117809
90.4785	129.0399	203.2586	229.1709	243.5436	327.2767	404.5953	449.6073	486.861	598.4209	650.9522	692.7125	733.6163	771.701	808.4652	866.2931	915.811	921.8628	956.8237	976.8503	998.5635	1047.0342	1058.0336	1061.9568	1080.096	1085.8741	1100.1961	1160.3836	1178.4567	1200.5413	1204.6316	1217.5731	1242.4385	1323.5815	1367.1386	1420.1803	1444.5837	1462.5446	1484.3544	1493.3418	1527.9185	2977.3896	3069.9392	3071.9961	3122.6291	3123.5434	3128.7204	3155.4934	3201.0594	3215.3955	3788.2354
OCC12CC(O1)C21CC1	OC[C@@]12C[C@@H](O1)C12CC1	
InChI=1S/C7H10O2/c8-4-7-3-5(9-7)6(7)1-2-6/h5,8H,1-4H2	InChI=1S/C7H10O2/c8-4-7-3-5(9-7)6(7)1-2-6/h5,8H,1-4H2/t5-,7-/m1/s1
