21
gdb 10210	3.04873	1.12529	0.90122	3.8531	76.93	-0.2371	0.0337	0.2707	1359.5363	0.187589	-366.298999	-366.289053	-366.288109	-366.33475	34.644	
C	-0.084742954	 1.5539719193	-0.0284008721	-0.379324
C	-0.0768291913	 0.0233123152	-0.0466784691	-0.168179
C	 0.7930720819	-0.5388455443	-1.1800583643	-0.17123
N	 0.8089205747	-1.9917569619	-1.2515207534	-0.024842
C	-0.3146451908	-2.7004310908	-1.8621013742	-0.159844
C	-0.1585197804	-2.8739618032	-3.3755884877	-0.376979
C	 1.870735814	-2.7109966582	-0.794885279	 0.146834
O	 1.9648104891	-3.9216743467	-0.8267120214	-0.350993
H	 0.9252064056	 1.9559050362	 0.1095458927	 0.118838
H	-0.4769704398	 1.9614066822	-0.9668917239	 0.118015
H	-0.7078014473	 1.9360056858	 0.7851625892	 0.121087
H	 0.297368477	-0.3661351487	 0.9075157346	 0.107794
H	-1.1024307684	-0.3503922784	-0.1511789224	 0.106034
H	 0.4538445274	-0.137059424	-2.1439455422	 0.109457
H	 1.8259517842	-0.1956238241	-1.0495596499	 0.115705
H	-0.37327538	-3.6796389483	-1.3816735756	 0.141816
H	-1.2343953662	-2.1538405336	-1.6298670087	 0.103107
H	-1.0300348274	-3.3909329414	-3.7896261801	 0.117793
H	-0.0662698718	-1.9094628727	-3.8856217445	 0.11414
H	 0.7311181324	-3.4691661999	-3.5969766849	 0.144132
H	 2.6635826309	-2.0575695625	-0.3776369032	 0.066642
48.0702	67.0269	86.4693	117.9783	231.6952	238.4054	253.2394	294.3545	320.4502	345.4694	408.1759	504.2177	695.886	746.7579	789.1154	822.7777	882.4384	900.984	994.403	1030.2481	1040.9602	1098.2338	1114.4371	1122.8643	1137.124	1249.6123	1256.9106	1322.0501	1332.6347	1338.8339	1391.0159	1407.8249	1410.0783	1416.9609	1432.2294	1456.4019	1473.1416	1489.4515	1492.1133	1495.7848	1501.4347	1502.8833	1510.9396	1788.3736	2924.1652	3015.4983	3031.0493	3034.6392	3039.2093	3052.8791	3054.5089	3074.8454	3099.5823	3099.9905	3109.9721	3115.5075	3129.8815
CCCN(CC)C=O	CCCN(CC)C=O	
InChI=1S/C6H13NO/c1-3-5-7(4-2)6-8/h6H,3-5H2,1-2H3	InChI=1S/C6H13NO/c1-3-5-7(4-2)6-8/h6H,3-5H2,1-2H3
