16
gdb 51206	3.95915	1.1135	1.01061	1.8852	69.3	-0.2478	-0.0338	0.214	1161.1532	0.122634	-437.76938	-437.761767	-437.760823	-437.802559	28.286	
O	-0.6629474033	 0.7030445825	 0.6739053952	-0.229091
C	 0.0935900013	 0.9588587853	-0.2247539619	 0.154582
C	 1.2621017157	 1.9201135803	-0.127336366	-0.419103
C	 1.2388203048	 2.9677874495	-1.2067451288	 0.289454
N	 0.2478246387	 4.0920334558	-1.2949270323	-0.372104
C	 1.1294132394	 4.3235151482	-2.4845224947	-0.076862
C	 2.3998789863	 3.890185398	-1.7011882444	 0.05917
O	 2.8720082488	 2.9607755516	-2.7160135946	-0.325047
C	 1.42421349	 2.8143053405	-2.7655706361	 0.032924
H	-0.0199297131	 0.4807540216	-1.2260967845	 0.076327
H	 1.2694701225	 2.3772885348	 0.8658973181	 0.138392
H	 2.1858378856	 1.3378909412	-0.2604018874	 0.142268
H	-0.6686086807	 3.7453439381	-1.5900913089	 0.216463
H	 1.0025083155	 5.1478247135	-3.1851508865	 0.100385
H	 3.1204510971	 4.4778863122	-1.1349581999	 0.110771
H	 0.9882342115	 2.117364177	-3.4832569472	 0.101471
56.272	72.3084	169.2759	225.1426	348.8759	453.0865	493.1093	570.3808	672.8062	742.6132	771.3939	801.423	826.9191	846.0239	878.5246	894.9317	938.6234	957.3703	1014.3906	1065.1325	1091.4609	1101.346	1105.243	1162.9481	1166.0757	1181.7216	1222.0808	1252.2434	1275.3647	1294.8542	1318.8255	1378.6125	1428.4304	1440.9993	1839.6914	2857.0165	3016.9476	3105.165	3107.408	3130.9365	3146.0536	3407.9382
O=CCC12NC3C1OC23	O=CC[C@@]12N[C@H]3[C@@H]1O[C@@H]23	
InChI=1S/C6H7NO2/c8-2-1-6-4-3(7-6)5(6)9-4/h2-5,7H,1H2	InChI=1S/C6H7NO2/c8-2-1-6-4-3(7-6)5(6)9-4/h2-5,7H,1H2/t3-,4-,5+,6+
