19
gdb 65382	3.48234	0.89303	0.89189	2.9179	78.45	-0.251	-0.0329	0.218	1408.8088	0.15636	-423.007399	-422.997926	-422.996981	-423.042552	34.096	
C	-0.0105473084	 1.6305626097	-0.144438326	-0.470434
C	-0.0406925388	 0.1377003131	 0.0536717419	 0.254361
O	 1.1909791021	-0.6011256933	-0.0933564464	-0.289108
C	 0.5980980001	-0.5667903934	 1.1994502912	 0.021467
C	 1.3204206005	 0.1249197457	 2.3030797967	-0.019069
C	 0.7664335171	 0.0335109225	 3.7065606363	-0.267924
C	 2.0244092584	-0.7090129839	 3.350418347	-0.265902
C	-1.20098818	-0.588683881	-0.5606112367	 0.127347
O	-2.1953582597	-0.0532064946	-0.9788911757	-0.254593
H	 0.854539749	 2.0844011603	 0.3392519504	 0.127542
H	 0.0260647688	 1.8654164117	-1.2121808826	 0.139878
H	-0.9240784343	 2.0760394622	 0.2581705253	 0.143977
H	 0.1516150113	-1.5198473121	 1.4997286973	 0.088515
H	 1.8035271874	 1.0541080735	 2.0255011107	 0.096538
H	 0.8390556433	 0.9129796333	 4.3357191179	 0.122239
H	-0.1399313967	-0.5440191674	 3.8566266427	 0.119343
H	 1.9690351561	-1.7884348401	 3.256131472	 0.12065
H	 2.9704868253	-0.3435474418	 3.7326133072	 0.121861
H	-1.0560945015	-1.6918626042	-0.5998589894	 0.083312
54.964	81.1595	89.1805	155.4185	192.2697	260.5953	301.6283	355.8483	377.5793	433.2823	502.4514	589.7659	751.393	765.6549	819.4685	833.4816	886.3642	893.927	924.8712	971.754	1009.2979	1045.4477	1065.1089	1082.4598	1104.7542	1122.9309	1133.7387	1194.2383	1198.2293	1225.0643	1273.7003	1333.5617	1345.5642	1405.362	1423.7144	1467.3481	1471.9046	1482.5155	1497.279	1511.219	1825.8269	2886.3787	3056.9813	3058.7349	3121.0878	3135.1593	3139.0865	3150.8005	3181.6338	3214.4954	3229.5906
CC1(OC1C1CC1)C=O	C[C@]1(O[C@H]1C1CC1)C=O	
InChI=1S/C7H10O2/c1-7(4-8)6(9-7)5-2-3-5/h4-6H,2-3H2,1H3	InChI=1S/C7H10O2/c1-7(4-8)6(9-7)5-2-3-5/h4-6H,2-3H2,1H3/t6-,7-/m0/s1
