19
gdb 90331	2.65739	1.80569	1.78316	1.2685	80.73	-0.2176	0.0032	0.2208	908.424	0.161851	-385.848889	-385.841966	-385.841022	-385.879736	29.229	
O	-0.1520064031	 1.4757400613	 0.4018566284	-0.419618
C	-0.0126827941	 0.0817820002	 0.1837711099	 0.10107
C	 0.6761971091	-0.6526405621	 1.4142307883	-0.292424
C	-0.6085551561	-0.8966075106	 2.1581737471	 0.108476
C	-1.2162971375	 0.0834211616	 2.8458249878	-0.09801
C	-2.6128387342	 0.3471653256	 2.3167161999	-0.258694
C	-2.6073392183	-0.4882730108	 1.0355138383	-0.042801
C	-1.400572447	-0.5800784802	 0.0471922762	-0.039551
C	-1.5690467918	-1.5511650217	 1.1824277165	-0.125365
H	 0.7280330427	 1.8667108787	 0.4073316424	 0.280017
H	 0.5611485323	-0.1000964624	-0.7379958074	 0.062027
H	 1.1918551967	-1.5581591537	 1.0761389544	 0.094102
H	 1.3900212386	 0.0000986908	 1.9240382808	 0.090181
H	-0.6873243417	 0.8198781748	 3.4414170507	 0.087255
H	-3.4400618079	 0.0399299671	 2.9735557791	 0.098993
H	-2.7305953264	 1.4224040693	 2.1374906766	 0.118695
H	-3.5601873247	-0.7144701782	 0.564095792	 0.07661
H	-1.7048531589	-0.8460640148	-0.9605905059	 0.080185
H	-1.7012746077	-2.6233916249	 1.090814235	 0.078851
139.2378	234.607	325.2938	346.1162	382.2947	439.0159	522.724	632.9683	641.8474	699.5617	761.8078	780.9871	818.1971	824.5878	845.8175	867.2548	924.8927	944.3089	980.6893	986.5216	1014.2256	1021.1127	1056.4125	1068.3937	1095.2245	1121.7496	1142.8988	1164.3246	1201.4834	1214.4225	1245.5695	1261.0414	1303.2546	1318.013	1328.4644	1345.9527	1393.9468	1416.7213	1471.5965	1483.1763	1650.6764	2976.1402	2996.5834	3041.2029	3055.0364	3102.5117	3141.718	3152.2953	3169.7911	3185.1938	3806.4351
OC1CC2=CCC3C1C23	O[C@H]1C[C]2[CH]C[C@H]3[C@@H]1[C@@H]23	
InChI=1S/C8H10O/c9-6-3-4-1-2-5-7(4)8(5)6/h1,5-9H,2-3H2	InChI=1S/C8H10O/c9-6-3-4-1-2-5-7(4)8(5)6/h1,5-9H,2-3H2/t5-,6+,7+,8+/m1/s1
