23
gdb 96480	2.26628	1.51075	1.00227	1.0039	88.28	-0.2266	0.0179	0.2445	1277.3785	0.206317	-388.302179	-388.292956	-388.292012	-388.335734	36.123	
C	 0.0823859028	 1.5762682045	-0.1362864065	-0.4115
C	 0.0728289532	 0.0566982157	 0.006558454	 0.034184
O	 0.7004206728	-0.4553868132	-1.1718345266	-0.251918
C	 0.2170620517	-1.7063225848	-1.6190165577	-0.065221
C	 0.6302280694	-2.901831107	-0.7576694251	-0.18715
C	 0.0795868925	-2.8603704414	 0.6796922199	-0.261562
C	 0.6974085834	-1.7907776889	 1.5510363223	-0.144891
C	 0.7288070698	-0.4815896041	 1.2831462043	 0.329939
C	 1.4174190409	 0.4790340941	 2.218943355	-0.486068
H	 1.1053850069	 1.9558639084	-0.2072972679	 0.126424
H	-0.4450422812	 1.8550034261	-1.0516499382	 0.118628
H	-0.4113436383	 2.061232892	 0.710369099	 0.112718
H	-0.9791117394	-0.2776833518	 0.0061170228	 0.070325
H	-0.8844963514	-1.6756932156	-1.6957536716	 0.079245
H	 0.6109750039	-1.8285185639	-2.6338831637	 0.100408
H	 0.2679505238	-3.8092215471	-1.2586640554	 0.089048
H	 1.7239600758	-2.9626636646	-0.7289071516	 0.104712
H	-1.0128344721	-2.729123619	 0.6344783886	 0.10369
H	 0.2407046272	-3.8361429057	 1.1487872789	 0.097177
H	 1.1788883026	-2.137924353	 2.4632689083	 0.077094
H	 1.8491791091	-0.0528713097	 3.070805069	 0.115489
H	 2.2272432765	 1.0219989753	 1.7168421333	 0.128198
H	 0.7311119802	 1.2387011337	 2.6120056287	 0.121032
65.2419	166.0725	199.3655	262.5213	267.2339	287.9662	305.463	335.5694	368.6683	394.5979	455.9572	539.4333	577.0256	617.1794	744.0868	811.7212	828.1757	854.5141	900.7855	953.3107	970.3233	1003.8858	1039.8386	1069.7308	1074.8692	1101.8234	1115.0864	1130.3303	1154.9224	1208.9689	1225.0812	1270.1673	1309.0272	1335.5519	1361.4916	1372.4427	1375.3911	1389.2165	1405.8506	1416.5232	1421.1926	1472.1077	1474.3532	1480.3171	1482.5559	1493.6566	1498.7839	1505.3501	1723.7023	2941.9266	2949.7082	2987.6167	3020.688	3021.6751	3049.3118	3063.4807	3067.4719	3069.1922	3074.9722	3109.6172	3123.9792	3126.2243	3139.4461
CC1OCCCC=C1C	C[C@H]1OCCCC=C1C	
InChI=1S/C8H14O/c1-7-5-3-4-6-9-8(7)2/h5,8H,3-4,6H2,1-2H3	InChI=1S/C8H14O/c1-7-5-3-4-6-9-8(7)2/h5,8H,3-4,6H2,1-2H3/t8-/m1/s1
