15
gdb 74825	3.60416	1.31485	1.09132	1.2014	74.16	-0.2249	0.0223	0.2472	1090.0413	0.112546	-416.776672	-416.768917	-416.767973	-416.808582	30.599	
N	 0.0857719913	 1.2972667677	-0.1582084611	-0.57915
C	-0.0477869319	-0.0559494169	-0.0335815154	 0.450317
N	-1.1378187687	-0.7278012185	-0.0106252834	-0.338221
C	-0.7481855173	-2.1082345321	-0.0188134923	-0.061996
C	 0.0523915417	-2.6009467271	-1.1992920058	-0.339386
C	 0.7910736885	-2.1143756246	 0.0296417399	 0.205697
O	 1.1400204252	-0.7292782531	 0.0132423528	-0.269556
C	 1.6361658456	-2.9397691695	 0.8238107293	 0.230604
C	 2.3340148778	-3.6603244584	 1.4874584749	-0.404184
H	 0.9251222417	 1.6860353303	 0.2445380076	 0.267109
H	-0.7590631489	 1.8100799178	 0.0421078089	 0.27177
H	-1.3546825907	-2.8010641103	 0.5518105478	 0.112575
H	 0.0862750108	-3.6716098977	-1.3653636922	 0.131146
H	 0.095109033	-1.9826505635	-2.0901442336	 0.128734
H	 2.9512569419	-4.2923059041	 2.0766461525	 0.194543
122.2937	149.4177	217.4135	347.6566	357.5739	418.7112	456.3028	480.5984	529.2284	558.3014	559.4735	603.1714	691.9906	704.0292	739.6245	767.9897	844.8208	880.0635	932.242	981.6621	1022.7564	1049.9037	1070.3833	1092.2284	1186.7877	1214.9501	1277.0169	1346.7014	1423.2777	1455.8794	1614.4212	1733.6277	2238.0958	3131.1204	3186.6882	3230.6146	3502.554	3584.1495	3698.1975
NC1=NC2CC2(O1)C#C	NC1=N[C@H]2C[C@]2(O1)C#C	
InChI=1S/C6H6N2O/c1-2-6-3-4(6)8-5(7)9-6/h1,4H,3H2,(H2,7,8)	InChI=1S/C6H6N2O/c1-2-6-3-4(6)8-5(7)9-6/h1,4H,3H2,(H2,7,8)/t4-,6+/m0/s1
