15
gdb 48657	2.45776	1.42549	1.11855	4.6029	72.83	-0.2697	-0.0584	0.2113	1093.3403	0.112359	-416.788401	-416.780417	-416.779472	-416.821273	29.206	
O	-0.5526051871	 0.7046841899	 0.6379628031	-0.250574
C	 0.2279647352	 0.9228457089	-0.2548593608	 0.100266
C	 1.37895756	 1.8437309782	-0.1070748949	 0.164944
C	 1.7367192073	 2.6701133496	 1.1312598383	-0.300713
C	 2.1231496939	 3.870354987	 0.2097332621	-0.287477
C	 1.7658982138	 3.0218073417	-1.0275485123	 0.1304
N	 2.4715202103	 1.7581442616	-1.064337283	-0.366217
C	 1.13859391	 3.5084555723	-2.2188650367	 0.257173
N	 0.6263954645	 3.9437843458	-3.1601364646	-0.33475
H	 0.1414360548	 0.4600359452	-1.2591457381	 0.105032
H	 0.8637817692	 2.8744014655	 1.7514373114	 0.149033
H	 2.5273936652	 2.2452195938	 1.7552311865	 0.118285
H	 1.4595941667	 4.7266184994	 0.3352048765	 0.14336
H	 3.1605747869	 4.2153073162	 0.2338275085	 0.121993
H	 3.3896738493	 1.8055375749	-0.625133466	 0.249245
82.7571	144.4045	158.4458	217.2793	235.2049	347.6892	442.2653	494.659	520.1354	572.4413	615.1372	732.6867	771.1173	789.3406	801.1166	947.6611	987.5505	1043.1527	1069.2043	1082.3951	1091.6619	1118.7962	1199.198	1212.2194	1242.7746	1258.432	1344.5522	1387.9936	1446.2917	1477.6099	1496.9685	1810.7068	2354.3584	2932.8418	3066.4675	3074.4567	3131.8511	3147.3502	3470.768
O=CC12CCC1(N2)C#N	O=C[C@]12CC[C@]1(N2)C#N	
InChI=1S/C6H6N2O/c7-3-5-1-2-6(5,4-9)8-5/h4,8H,1-2H2	InChI=1S/C6H6N2O/c7-3-5-1-2-6(5,4-9)8-5/h4,8H,1-2H2/t5-,6+/m0/s1
