17
gdb 79269	2.64272	1.65969	1.32724	4.0632	72.36	-0.2431	-0.0379	0.2052	1002.8069	0.134247	-421.762983	-421.755157	-421.754213	-421.795422	29.849	
C	 0.0561329502	 1.5542584687	 0.0992588739	-0.420128
C	 0.0866951293	 0.038619018	 0.0001568019	-0.026007
C	 0.7806768498	-0.6564945773	-1.1717088923	-0.133768
C	 2.2514228512	-0.7909550932	-0.7298585254	 0.097451
O	 2.4014486976	-0.1551069591	 0.539792887	-0.303552
C	 1.1299582032	-0.7442009356	 0.8902122049	 0.321273
C	 0.8824129115	-1.0059306044	 2.3351687623	 0.041664
O	 1.6193726984	-0.6925936289	 3.2324822281	-0.237256
C	 1.2547796201	-1.801342093	-0.2852598377	-0.208148
H	 1.0698084196	 1.9583935017	 0.0547907872	 0.142115
H	-0.5255805537	 1.9814831391	-0.7246289752	 0.116663
H	-0.4050529972	 1.8820169609	 1.0372020949	 0.120319
H	-0.9035953011	-0.4046528096	 0.1493714532	 0.084159
H	 0.4757361209	-0.6958510235	-2.2099213446	 0.096483
H	 3.1049975872	-0.8523021217	-1.3908773272	 0.118292
H	-0.0864012553	-1.5257066764	 2.5204181601	 0.077887
H	 1.1833207183	-2.8781509958	-0.3412426414	 0.112552
78.2345	174.3079	195.5083	219.0269	249.4569	312.0884	437.817	564.1635	594.5527	707.0144	727.7106	775.3702	777.8681	809.6674	834.3507	909.4684	925.1924	973.0036	1003.5447	1019.771	1027.7381	1047.1137	1068.4725	1087.0168	1120.0024	1128.9719	1172.5525	1205.7727	1261.6868	1320.2758	1354.9987	1374.3245	1406.2972	1425.265	1488.1918	1500.744	1830.037	2862.8706	3035.8612	3057.0842	3096.946	3132.728	3196.6711	3211.5859	3226.2114
CC1C2C3OC1(C=O)C23	C[C@H]1[C@H]2[C@H]3O[C@]1(C=O)[C@@H]23	
InChI=1S/C7H8O2/c1-3-4-5-6(4)9-7(3,5)2-8/h2-6H,1H3	InChI=1S/C7H8O2/c1-3-4-5-6(4)9-7(3,5)2-8/h2-6H,1H3/t3-,4+,5-,6+,7-/m0/s1
