17
gdb 79310	3.87897	1.25958	1.15835	4.8234	79.15	-0.2334	0.0126	0.2459	1093.5025	0.137078	-380.814599	-380.807076	-380.806132	-380.846521	29.2	
C	-0.0545574858	 1.5282701406	 0.0002827688	-0.335419
N	 0.1008347954	 0.0791815161	 0.0013307204	-0.074141
C	 0.791331477	-0.5601829787	-1.1088312204	-0.075055
C	 2.3067511311	-0.6022865324	-0.8217435415	-0.137692
C	 2.4990785763	 0.0417454605	 0.5502935249	-0.252386
C	 1.1015652182	-0.5535422679	 0.9053520137	-0.081976
C	 1.3504867463	-1.6400700444	-0.2218820192	 0.273868
C	 1.2991182289	-3.0495548008	-0.265731906	 0.118985
N	 1.2684914686	-4.2073139039	-0.2906308053	-0.364692
H	 0.8627638075	 2.0930031909	-0.224968847	 0.106828
H	-0.8081150616	 1.797993681	-0.746489192	 0.130242
H	-0.4269925939	 1.8456525489	 0.9794242445	 0.128364
H	 0.3712443886	-0.6547860842	-2.1023065465	 0.12105
H	 3.0386083189	-0.7814943735	-1.5984191603	 0.113592
H	 3.2846733582	-0.4671214157	 1.1129331615	 0.122254
H	 2.6351005189	 1.1245069047	 0.6209080288	 0.104816
H	 0.7941682274	-0.7376875812	 1.9325357957	 0.101362
115.9127	149.5551	189.2246	259.4763	317.9478	437.6588	483.0095	530.8516	574.7577	618.5702	669.5107	749.2775	792.7782	869.5762	899.2695	924.0934	959.7415	976.8916	993.9608	1009.3851	1065.7845	1098.7102	1122.0221	1129.1249	1154.7521	1171.7469	1213.2779	1239.5293	1246.0904	1264.288	1329.6084	1419.4405	1447.0826	1481.8591	1495.9186	1515.9614	2343.7867	2987.311	3061.6031	3072.1284	3107.0605	3120.6397	3146.1705	3201.4905	3213.6129
CN1C2C3CC1C23C#N	CN1[C@H]2[C@H]3C[C@@H]1[C@@]23C#N	
InChI=1S/C7H8N2/c1-9-5-2-4-6(9)7(4,5)3-8/h4-6H,2H2,1H3	InChI=1S/C7H8N2/c1-9-5-2-4-6(9)7(4,5)3-8/h4-6H,2H2,1H3/t4-,5-,6+,7+/m1/s1
