14
gdb 56115	4.28173	0.90084	0.88163	2.9824	66.34	-0.2595	-0.0426	0.2169	1318.2083	0.098283	-473.838963	-473.829638	-473.828694	-473.874421	32.448	
N	-0.148721226	 1.0713720846	 0.2654768896	-0.525271
C	-0.1588089773	-0.2508588324	-0.0785039603	 0.402855
O	 0.8026937399	-0.9790515135	 0.0103505759	-0.337038
C	-1.4976646631	-0.7181943496	-0.6742327936	-0.186014
O	-1.5325960504	-2.1331010045	-0.798973931	-0.212761
C	-1.6813266092	-2.7978752883	 0.3666351595	 0.316062
O	-1.8535383396	-2.2697236876	 1.4359745757	-0.359659
C	-1.6369882276	-4.2251089092	 0.1530844904	 0.231361
C	-1.6104602256	-5.420014089	 0.0347580041	-0.358057
H	 0.6713864147	 1.4096581064	 0.7444332446	 0.268298
H	-1.0071655194	 1.5757500432	 0.4124621485	 0.26177
H	-2.3349761196	-0.3664458873	-0.0636879621	 0.136331
H	-1.5997399585	-0.3322280318	-1.6913649503	 0.148113
H	-1.5823222082	-6.4772410011	-0.0709437712	 0.214011
32.9862	64.4774	85.0121	163.5398	240.8713	313.9334	322.7724	337.7239	403.3899	475.0786	551.2037	594.0934	629.8293	661.5397	684.032	704.5091	773.3803	828.8781	866.2846	1030.2499	1083.1811	1102.7051	1237.8695	1294.7658	1318.5662	1411.0641	1460.9614	1623.8185	1793.9273	1828.3498	2241.19	3058.304	3119.3028	3498.0123	3589.0024	3716.3138
NC(=O)COC(=O)C#C	NC(=O)COC(=O)C#C	
InChI=1S/C5H5NO3/c1-2-5(8)9-3-4(6)7/h1H,3H2,(H2,6,7)	InChI=1S/C5H5NO3/c1-2-5(8)9-3-4(6)7/h1H,3H2,(H2,6,7)
