21
gdb 59352	2.97335	1.12554	1.00471	2.8161	81.39	-0.2026	0.0331	0.2357	1309.8734	0.181669	-420.411378	-420.40123	-420.400285	-420.446683	35.974	
C	-0.0142659336	 1.5081810286	-0.116229779	-0.327643
N	 0.0727961066	 0.0595599735	 0.0384254961	-0.055767
C	 0.9156264127	-0.3076916915	 1.1706430805	-0.335997
C	-1.2228383083	-0.5729337442	 0.0364259736	-0.095013
C	-1.3054325854	-2.1319605932	-0.06353604	-0.218132
N	-2.0940694103	-2.111405209	 1.1678200463	-0.061008
C	-2.7417942308	-3.1550547242	 1.9160775378	-0.34428
C	-2.0318213319	-0.7537317256	 1.3686717191	 0.371954
O	-2.4493586745	-0.0496628297	 2.2541099497	-0.38394
H	 0.9939303611	 1.9197697329	-0.22930148	 0.115888
H	-0.5813585141	 1.7493163451	-1.0209143606	 0.117212
H	-0.496808415	 2.0113603664	 0.7383685932	 0.122766
H	 0.524052822	 0.0513651699	 2.137589973	 0.121523
H	 1.0239962095	-1.3944378994	 1.2290019529	 0.116985
H	 1.9141120871	 0.115788689	 1.0261253899	 0.119131
H	-1.8416864979	-0.0920734323	-0.7264065284	 0.101001
H	-1.8430077838	-2.517784695	-0.9374244174	 0.107603
H	-0.3448692456	-2.650151394	 0.02608977	 0.112723
H	-2.0219997149	-3.8990806629	 2.279425116	 0.127133
H	-3.2310879977	-2.6901507745	 2.7757122628	 0.160659
H	-3.4991773452	-3.6730388499	 1.3143716544	 0.1272
71.5167	86.0175	123.3804	150.5448	170.8685	239.9723	241.7318	248.4313	306.8135	356.8451	390.0982	469.7669	529.2516	620.2681	767.633	811.7992	820.7397	941.4626	984.5781	1027.6679	1065.0861	1069.0333	1116.9051	1120.6873	1128.9352	1169.3314	1186.8478	1194.0159	1227.1138	1248.7724	1298.9347	1323.1414	1399.5501	1413.6676	1443.2946	1447.7278	1476.992	1481.5648	1482.462	1496.9079	1503.8044	1512.5616	1519.9196	1537.5928	1860.28	2965.59	2971.209	3011.4728	3030.7348	3061.3835	3061.5933	3067.5528	3072.1751	3080.6151	3101.5288	3109.3148	3125.6319
CN(C)C1CN(C)C1=O	CN(C)[C@H]1CN(C)C1=O	
InChI=1S/C6H12N2O/c1-7(2)5-4-8(3)6(5)9/h5H,4H2,1-3H3	InChI=1S/C6H12N2O/c1-7(2)5-4-8(3)6(5)9/h5H,4H2,1-3H3/t5-/m0/s1
