21
gdb 59217	2.38296	1.43603	1.00465	3.0893	82.9	-0.2349	-0.0094	0.2255	1244.6921	0.181522	-387.09052	-387.081358	-387.080414	-387.124434	34.82	
C	 0.0030746715	 1.6381689186	 0.1690925465	-0.390337
C	 0.0515507484	 0.1133874413	 0.0054159168	 0.010565
C	 0.8146057928	-0.5558559175	 1.1582348274	-0.393959
C	-1.3602992358	-0.4719237487	-0.1018377255	-0.10275
C	-2.2960563236	-0.1026505733	-1.2727868918	-0.07661
C	-1.7628814268	-0.62543724	-2.5591516938	-0.284106
C	-2.4936056315	-1.5961988549	-1.6363931919	-0.172251
C	-1.5860850276	-1.9609197424	-0.4998273892	 0.399377
O	-1.2700225474	-2.9990296677	 0.0126114019	-0.326533
H	 1.0128006947	 2.0585124291	 0.2222625346	 0.113213
H	-0.5158091753	 2.1166851791	-0.6680143242	 0.114528
H	-0.5211122673	 1.9153050315	 1.091667217	 0.111604
H	 0.5885894364	-0.1083056448	-0.9267087025	 0.072034
H	 0.8155835883	-1.6439215769	 1.0533278306	 0.143296
H	 1.8516847004	-0.2070315104	 1.1949722241	 0.106893
H	 0.3489985887	-0.3158196534	 2.1218235856	 0.110167
H	-1.8829184659	-0.3291910571	 0.8549371446	 0.097639
H	-3.0749004556	 0.6470345313	-1.2287817626	 0.103169
H	-2.32434339	-0.3704745965	-3.4522468596	 0.126514
H	-0.6954211482	-0.7284572719	-2.7271717427	 0.126987
H	-3.3727763862	-2.1338340657	-1.9681619952	 0.11056
66.5476	120.8427	155.4721	211.913	229.344	254.4964	295.9634	335.649	407.1734	500.9653	513.5909	607.8995	681.7252	758.8569	833.254	840.044	886.3539	911.9854	934.139	947.2558	955.4863	975.2917	1005.582	1037.034	1072.1216	1084.5417	1113.631	1127.2756	1164.2021	1172.7558	1202.1242	1213.5388	1285.4856	1295.4439	1334.6562	1346.8741	1387.3164	1400.5519	1422.2503	1489.3707	1490.9944	1496.5457	1503.9397	1511.9334	1872.0617	3006.056	3019.8838	3024.0231	3030.452	3089.0978	3094.9697	3099.9915	3121.6192	3127.1414	3196.3518	3201.8396	3212.9409
CC(C)C1C2CC2C1=O	CC(C)[C@H]1[C@H]2C[C@H]2C1=O	
InChI=1S/C8H12O/c1-4(2)7-5-3-6(5)8(7)9/h4-7H,3H2,1-2H3	InChI=1S/C8H12O/c1-4(2)7-5-3-6(5)8(7)9/h4-7H,3H2,1-2H3/t5-,6+,7-/m0/s1
