16
gdb 42867	3.00218	1.43848	1.41497	3.0113	70.2	-0.2469	-0.0404	0.2065	982.9149	0.125642	-437.896109	-437.888928	-437.887984	-437.928123	27.837	
N	-0.0331629075	 1.1495005944	 0.5473984248	-0.518241
C	-0.0037936348	-0.0036650741	 0.0347752394	 0.394205
C	-1.2895277376	-0.7902238261	-0.2050909454	-0.292658
C	-1.0226542319	-2.1476065663	-0.8813921315	-0.162159
C	 0.01189456	-1.918713813	-2.0313847069	-0.26675
C	 1.1114540288	-1.8956145128	-0.9387916446	-0.00193
O	 1.1815291457	-0.6012430602	-0.3206390406	-0.260008
C	 0.1462337607	-2.8039398511	-0.1266929117	 0.418194
O	 0.2752306599	-3.7182752158	 0.6289625813	-0.300396
H	 0.9128050622	 1.5245643689	 0.6397902845	 0.22604
H	-1.7902585606	-0.9243776405	 0.7584303494	 0.153433
H	-1.9533990199	-0.1781560742	-0.8233555899	 0.145899
H	-1.9336382564	-2.7200192455	-1.0581021609	 0.099927
H	 0.1123386787	-2.7851567093	-2.6884470939	 0.127469
H	-0.0941024106	-1.0045976307	-2.6191860869	 0.125787
H	 2.1346397833	-2.2016627037	-1.1497774571	 0.111187
61.8266	146.2303	244.3719	382.3288	417.9438	448.0691	482.9559	521.5597	541.7419	675.0477	765.4025	779.9141	842.8901	872.5611	901.5212	914.3271	959.687	987.6209	1033.4264	1059.9369	1071.4943	1082.9114	1126.2667	1153.9532	1190.4918	1235.7093	1255.5907	1266.3651	1298.571	1351.2477	1370.265	1468.9423	1481.6925	1758.3337	1905.2535	3058.8846	3073.3095	3099.0627	3115.4024	3136.4181	3140.1916	3470.7393
N=C1CC2CC(O1)C2=O	[NH][C]1C[C@H]2C[C@@H](O1)C2=O	
InChI=1S/C6H7NO2/c7-5-2-3-1-4(9-5)6(3)8/h3-4,7H,1-2H2	InChI=1S/C6H7NO2/c7-5-2-3-1-4(9-5)6(3)8/h3-4,7H,1-2H2/t3-,4-/m1/s1
