21
gdb 39392	2.3877	2.09226	1.43219	1.064	82.23	-0.2384	0.084	0.3223	983.0276	0.185652	-387.043866	-387.036759	-387.035815	-387.074755	30.493	
C	-0.0020436181	 1.5427098157	-0.0455238915	-0.446414
C	 1.2823845436	 0.7299380512	-0.0576155977	 0.011487
C	 2.2305704755	 0.4500691514	 1.0868835262	-0.282756
C	 2.4672876625	-1.1038395367	 1.2168682636	-0.064449
O	 1.747321893	-1.9257700399	 0.3031227731	-0.271741
C	 0.3190690576	-1.9595588214	 0.334052536	 0.141916
C	-0.3030277798	-0.8555369655	 1.2222271561	-0.307588
C	-0.0558251149	 0.0490606619	 0.0103506509	 0.356007
C	-0.2406443968	-1.1721495636	-0.8992806973	-0.301698
H	-0.2851765936	 2.0707934034	 0.8612061556	 0.109109
H	-0.2644479516	 2.0670017834	-0.9592979967	 0.113489
H	 1.7491285049	 0.6694492714	-1.0378584294	 0.086886
H	 3.191310187	 0.9546695608	 0.9403194581	 0.098488
H	 1.8211588897	 0.8382822416	 2.0251912935	 0.101227
H	 3.5127851373	-1.3375751085	 0.9985084491	 0.109858
H	 2.2791645302	-1.4219310327	 2.2522057805	 0.093221
H	 0.0008025302	-2.9973230092	 0.4772663517	 0.06645
H	-1.3703694289	-1.0466664217	 1.3731085828	 0.097268
H	 0.1516120131	-0.627373937	 2.1866131233	 0.098271
H	 0.3477435776	-1.2233281142	-1.8178389508	 0.100895
H	-1.2861334485	-1.4328869402	-1.098630377	 0.090074
195.4581	237.6781	316.6907	362.9338	369.9661	386.156	446.4859	509.6505	570.3745	662.4586	772.9849	809.5732	813.2225	829.0139	859.8531	864.1028	915.2042	925.1195	943.1809	973.3354	1001.7022	1040.4826	1063.2751	1068.093	1074.1217	1127.0708	1137.1697	1166.7005	1176.6714	1190.5453	1217.0489	1252.3684	1258.8196	1279.8246	1296.1734	1317.3528	1352.5317	1358.7465	1401.1976	1434.8664	1472.7322	1491.1375	1495.7495	1498.3916	1522.1679	2996.4215	3037.4013	3042.1851	3047.988	3062.3251	3070.1665	3091.8629	3113.4634	3115.5015	3125.0716	3131.9223	3199.0907
C1C2CCOC3CC12C3	C1[C@H]2CCO[C@H]3C[C@@]12C3	
InChI=1S/C8H12O/c1-2-9-7-4-8(5-7)3-6(1)8/h6-7H,1-5H2	InChI=1S/C8H12O/c1-2-9-7-4-8(5-7)3-6(1)8/h6-7H,1-5H2/t6-,7-,8+/m1/s1
