15
gdb 125050	3.131	1.33781	0.94357	4.3063	71.21	-0.2247	-0.06	0.1646	1165.1141	0.111824	-453.957564	-453.948849	-453.947905	-453.991307	30.963	
C	-0.45938094	 1.3763840076	 0.2596588183	-0.536237
C	-0.1296946417	-0.07499196	 0.0938665342	-0.031897
C	-0.0496398276	-0.8009107048	-1.06593982	 0.427995
N	-0.2834283669	-0.4825766019	-2.3790167949	-0.594645
O	 0.2665905228	-2.0839909072	-0.811134993	-0.20922
N	 0.4082185471	-2.254264505	 0.5624607283	-0.207744
C	 0.1711846598	-1.0609144135	 1.0761221468	 0.251427
C	 0.259646081	-0.9404443493	 2.5442947732	 0.097039
O	 0.0837028889	 0.0868037568	 3.1577947153	-0.268179
H	-0.3419716216	 1.6670739919	 1.3035418583	 0.172933
H	 0.1973995517	 2.0135123784	-0.3461701244	 0.118228
H	-1.4917456278	 1.5954327953	-0.0383633095	 0.133567
H	-0.1654885806	 0.4942112389	-2.603875169	 0.269692
H	 0.1559426224	-1.0985407794	-3.0483758692	 0.271234
H	 0.5088774325	-1.8938948781	 3.0516922856	 0.105808
64.0637	106.9861	190.6938	200.0464	235.3586	247.6899	307.5876	377.831	417.4905	502.0476	569.7159	660.4668	674.3085	701.3564	737.1079	830.433	964.4929	972.4465	1039.6267	1055.3882	1070.8397	1163.7779	1270.9986	1371.6837	1396.867	1418.6248	1466.1968	1499.0411	1503.9275	1536.3126	1629.7969	1681.4647	1800.8019	2938.4984	3019.3417	3064.6495	3153.2241	3569.4002	3674.3583
CC1=C(N)ON=C1C=O	Cc1c(N)onc1C=O	
InChI=1S/C5H6N2O2/c1-3-4(2-8)7-9-5(3)6/h2H,6H2,1H3	InChI=1S/C5H6N2O2/c1-3-4(2-8)7-9-5(3)6/h2H,6H2,1H3
