19
gdb 10772	2.45181	2.16413	1.27941	3.6756	73.33	-0.2367	0.0403	0.277	1002.7795	0.164423	-365.09838	-365.089244	-365.0883	-365.132025	32.41	
C	-0.0674391772	 1.650380993	 0.1348228898	-0.403216
C	 0.0318785602	 0.1344134964	 0.0332037427	 0.038224
C	 0.7359495888	-0.5079046302	-1.2171433993	-0.164373
C	 1.3048330518	 0.3774269624	-2.3178928187	-0.406061
C	 1.7450011873	-1.0827273874	-0.1955791381	 0.410884
O	 2.7273513235	-1.7803344406	-0.2368024092	-0.386591
N	 1.0865457726	-0.4849792161	 0.849378939	-0.075907
C	 1.2848372368	-0.5774208443	 2.2720653326	-0.349123
H	 0.9010446471	 2.1297360078	-0.0321898172	 0.124439
H	-0.7780201985	 2.0381501497	-0.6021514663	 0.124483
H	-0.4254415933	 1.9494958181	 1.1257033651	 0.120359
H	-0.953110055	-0.3116248433	 0.2297542128	 0.076032
H	 0.1267326845	-1.3063768885	-1.6524392389	 0.098368
H	 1.9408944675	 1.1720786284	-1.9178082946	 0.12352
H	 1.9195093972	-0.2259674229	-2.99230526	 0.138458
H	 0.5097409461	 0.8416065878	-2.9103495263	 0.117084
H	 2.1812898526	-1.1790916053	 2.4411763023	 0.161627
H	 1.4328680371	 0.4089183524	 2.7274770173	 0.127411
H	 0.434950381	-1.0638048672	 2.7684648572	 0.124385
84.2829	112.9737	154.5661	195.8212	202.5089	217.2753	249.2522	272.7568	366.1622	469.0569	546.8657	638.7806	738.7357	752.4661	770.5717	890.8809	991.2987	1009.3215	1048.2309	1068.2798	1089.248	1143.0315	1156.3266	1169.9313	1206.9888	1262.1206	1292.0953	1354.2629	1383.1282	1407.6827	1410.6353	1421.1615	1448.1816	1482.819	1485.5305	1492.145	1500.1369	1508.2005	1519.5572	1870.2793	3000.9292	3011.0995	3036.5684	3041.3409	3062.5749	3063.7223	3101.3091	3107.7358	3115.1122	3122.1252	3127.1388
CC1C(C)C(=O)N1C	C[C@H]1[C@@H](C)C(=O)N1C	
InChI=1S/C6H11NO/c1-4-5(2)7(3)6(4)8/h4-5H,1-3H3	InChI=1S/C6H11NO/c1-4-5(2)7(3)6(4)8/h4-5H,1-3H3/t4-,5+/m1/s1
