19
gdb 24159	4.93057	0.94041	0.839	1.2822	82.75	-0.1674	0.0578	0.2252	1387.5872	0.160935	-382.075542	-382.067043	-382.066098	-382.109259	32.713	
C	-0.402964356	 0.9935229983	-0.2511008021	-0.260667
C	 1.0197379376	 1.1238012927	 0.2449074437	-0.297667
C	 0.4397296166	-0.2393942344	 0.0182086274	 0.061822
N	 0.1942862295	-1.0931379084	 1.1377114663	-0.402714
C	-0.9685461131	-1.8716557471	 1.1629489119	 0.316704
C	-1.84748554	-2.0980687138	 0.122050788	-0.169848
N	-2.8097156865	-2.9792566301	 0.5795132824	-0.245128
C	-2.5635608964	-3.3018290391	 1.8825438006	-0.06232
C	-1.4257365732	-2.6363950018	 2.2785215564	-0.262915
H	-1.2007038707	 1.2066769555	 0.45121646	 0.117617
H	-0.6179440096	 1.2648720244	-1.2793168683	 0.106651
H	 1.7833174577	 1.4791742827	-0.4379331991	 0.114676
H	 1.1654933865	 1.4448365117	 1.2719831649	 0.109227
H	 0.7910906926	-0.775895346	-0.8617205786	 0.091651
H	 0.4357104887	-0.6899252339	 2.0300490332	 0.226986
H	-1.8667157905	-1.7171417478	-0.8840866062	 0.106699
H	-3.5773353664	-3.3230796039	 0.0323103533	 0.256246
H	-3.2089190461	-3.97485655	 2.4238313832	 0.112246
H	-0.9612126407	-2.690461329	 3.2516153428	 0.080732
57.1118	71.5649	126.0281	276.35	337.3285	360.0795	382.0149	446.2032	478.0521	616.8524	627.3349	678.1514	732.9035	742.215	765.6693	795.2707	821.9188	850.0815	899.9638	955.7218	984.6154	1011.2611	1046.1479	1076.1455	1082.1083	1093.0493	1130.6673	1169.0776	1191.0276	1193.9859	1250.9632	1285.1293	1317.78	1371.3349	1412.786	1462.5139	1476.5326	1489.745	1502.8835	1541.7719	1630.965	3110.8222	3127.1367	3134.6003	3207.6386	3226.6638	3239.6067	3266.7862	3282.8376	3604.1702	3700.7085
C1CC1NC1=CNC=C1	C1CC1Nc1c[nH]cc1	
InChI=1S/C7H10N2/c1-2-6(1)9-7-3-4-8-5-7/h3-6,8-9H,1-2H2	InChI=1S/C7H10N2/c1-2-6(1)9-7-3-4-8-5-7/h3-6,8-9H,1-2H2
