19
gdb 52995	3.22114	0.93657	0.82787	1.7189	87.14	-0.2204	0.0401	0.2606	1478.2204	0.157003	-385.83222	-385.822666	-385.821722	-385.86852	34.425	
C	 0.009427798	 1.4874720299	-0.0248991611	-0.509122
C	-0.0052623018	 0.032363873	-0.0241269854	 0.247089
C	-0.0228874218	-1.1738004253	-0.0257186401	-0.196521
C	-0.0116146179	-2.5937702367	-0.0053357525	 0.095401
C	-0.4224917322	-3.4723016998	-1.1871317755	-0.346994
C	-1.1251218673	-3.635634364	 0.1147588567	 0.057338
O	-0.3735682088	-4.4547630324	 1.0020134713	-0.304547
C	 0.6999246325	-3.4662993057	 1.0478070916	 0.104946
C	 2.0755927179	-4.037409697	 0.7842226038	-0.412161
H	 0.8500655751	 1.8728442064	 0.5630691099	 0.149207
H	 0.1084073437	 1.8865800135	-1.0406868847	 0.147834
H	-0.9099898683	 1.8999231563	 0.4061893981	 0.147541
H	-0.9657902708	-2.9287708932	-1.9528675708	 0.126518
H	 0.2294383114	-4.2622590531	-1.5482423299	 0.116341
H	-2.1897563124	-3.5298072804	 0.2874133678	 0.113107
H	 0.669412917	-2.9623345491	 2.0214285083	 0.086341
H	 2.1387323046	-4.5002929749	-0.2039155548	 0.121755
H	 2.8259989279	-3.2424514188	 0.8474378367	 0.126231
H	 2.3183475534	-4.796570609	 1.5345326605	 0.129694
11.3365	82.8532	102.1247	204.5936	211.183	242.1941	294.5453	333.0969	425.1071	466.9155	481.7587	524.9153	583.2891	705.1823	825.8251	844.6852	865.3663	902.0149	985.9739	995.1172	1043.3303	1046.7527	1053.5835	1054.3276	1083.2719	1088.6916	1123.605	1146.0026	1214.368	1269.2277	1303.4794	1382.4597	1397.6387	1411.1962	1422.419	1476.1153	1477.054	1479.1841	1483.7796	1493.9328	2360.8105	3022.8956	3031.4973	3040.2909	3081.4395	3084.504	3108.9815	3120.2462	3124.2043	3184.5083	3218.4795
CC#CC12CC1OC2C	CC#C[C@]12C[C@H]1O[C@H]2C	
InChI=1S/C8H10O/c1-3-4-8-5-7(8)9-6(8)2/h6-7H,5H2,1-2H3	InChI=1S/C8H10O/c1-3-4-8-5-7(8)9-6(8)2/h6-7H,5H2,1-2H3/t6-,7+,8+/m0/s1
