15
gdb 75415	2.42224	1.7463	1.02752	6.1775	70.78	-0.2563	-0.0863	0.17	1097.6592	0.111833	-457.818642	-457.8104	-457.809456	-457.852172	29.393	
C	 0.0461626659	 1.4994503006	-0.2480218002	-0.477612
C	-0.0184285952	 0.0097659896	-0.077853548	 0.207136
C	-1.1453830241	-0.7136555939	-0.104866984	-0.169073
C	-1.2089445426	-2.1881873668	 0.063639956	-0.11542
O	 0.0252736774	-2.8657537144	 0.2673097345	-0.23909
C	 1.2256558653	-2.2354298996	 0.3128411762	 0.352409
O	 2.2229377337	-2.8694000231	 0.4877790524	-0.287117
C	 1.2561130445	-0.6989605915	 0.1338856276	 0.169057
O	 2.3249133058	-0.134516297	 0.1741587021	-0.279562
H	 0.6796581393	 1.7606120973	-1.1015470062	 0.152191
H	-0.9478870773	 1.9265767625	-0.3981260366	 0.122116
H	 0.5065430965	 1.9658233936	 0.6286651534	 0.152199
H	-2.1095077994	-0.2326066386	-0.2584021869	 0.120577
H	-1.8562798652	-2.4366241377	 0.9169521574	 0.146096
H	-1.6826848943	-2.642277191	-0.8185518378	 0.146093
53.4203	104.1694	144.0163	237.5327	282.1627	323.2107	354.469	442.9147	487.8001	536.0789	579.4866	670.3455	789.9547	794.9286	870.125	920.374	993.5477	1024.9411	1055.9434	1071.1507	1119.8477	1220.3825	1256.7123	1260.9994	1385.5554	1412.7433	1423.2953	1469.5971	1484.5779	1488.3034	1725.0147	1784.5147	1855.5327	3005.4221	3026.0216	3045.1328	3104.0596	3131.0339	3153.7816
CC1=CCOC(=O)C1=O	CC1=CCOC(=O)C1=O	
InChI=1S/C6H6O3/c1-4-2-3-9-6(8)5(4)7/h2H,3H2,1H3	InChI=1S/C6H6O3/c1-4-2-3-9-6(8)5(4)7/h2H,3H2,1H3
