21
gdb 92718	1.87032	1.69009	0.99606	2.7032	85.19	-0.2316	-0.0253	0.2062	1253.4746	0.181214	-387.124322	-387.114698	-387.113754	-387.159267	35.3	
C	-0.1298114155	 1.5556215979	-0.0311732225	-0.418279
C	 0.098080866	 0.0432361411	-0.0050662477	 0.015116
C	 0.9121665411	-0.5265580405	-1.1973856807	-0.266624
C	 1.5642056998	-1.749912285	-0.6041833941	-0.164803
C	 1.491698301	-1.7839665955	 0.7292915077	 0.302503
C	 2.0315301234	-2.8275711582	 1.6556831927	-0.494907
C	 0.8097279694	-0.5261520823	 1.262426521	-0.178802
C	 1.8896116957	 0.3857337078	 1.8209025692	 0.162537
O	 2.0041913713	 0.689499254	 2.9809599676	-0.257924
H	 0.8124024412	 2.1137269602	-0.0467167644	 0.119485
H	-0.694031663	 1.8436610978	-0.9242079651	 0.117427
H	-0.6993459771	 1.8881051034	 0.8428400944	 0.124201
H	-0.8817194245	-0.4483722478	-0.0270750949	 0.088614
H	 0.2737918574	-0.753673623	-2.0593409933	 0.103999
H	 1.6628294482	 0.1924887516	-1.5573902915	 0.105189
H	 2.0451680863	-2.5123658248	-1.2087758996	 0.091085
H	 2.5427960377	-3.6238126654	 1.1081071196	 0.124748
H	 2.7378328762	-2.3967402179	 2.3760310334	 0.138347
H	 1.2272037784	-3.2817057957	 2.2481348118	 0.130509
H	 0.1112126577	-0.7290411294	 2.081210514	 0.082992
H	 2.6282465591	 0.7351542819	 1.0623867826	 0.074588
44.3991	73.8512	165.9317	197.9959	223.1483	244.455	264.5011	279.3206	370.203	437.1812	463.1273	537.5866	590.013	655.8577	820.7306	830.4359	877.5006	928.7575	943.3842	974.3092	994.8518	1033.719	1039.6118	1064.6861	1095.1398	1117.6964	1146.9407	1178.9288	1202.2439	1263.057	1276.9956	1303.1283	1313.4369	1354.1055	1368.1435	1415.2256	1417.4891	1425.3896	1476.7061	1488.1625	1493.9445	1498.1035	1502.9651	1716.2594	1822.9312	2858.0568	2998.985	3020.636	3026.7266	3033.2154	3050.0597	3058.2329	3068.0058	3099.8231	3102.1797	3112.9882	3182.1925
CC1CC=C(C)C1C=O	C[C@H]1CC=C(C)[C@H]1C=O	
InChI=1S/C8H12O/c1-6-3-4-7(2)8(6)5-9/h3,5,7-8H,4H2,1-2H3	InChI=1S/C8H12O/c1-6-3-4-7(2)8(6)5-9/h3,5,7-8H,4H2,1-2H3/t7-,8+/m0/s1
