18
gdb 71501	2.97555	1.61758	1.42768	3.0075	77.5	-0.2511	0.0218	0.2729	985.0726	0.149334	-401.928367	-401.921209	-401.920265	-401.959679	28.994	
C	 0.0078059465	 1.5113830285	-0.0284100471	-0.522548
C	 0.0179665739	 0.0084242848	-0.0349737541	 0.312115
C	 0.5817548279	-0.9617757827	-1.104047379	-0.305358
C	 0.0119832478	-1.8970141896	-0.0153642166	-0.079794
C	 0.5712482832	-0.9440180385	 1.0694207104	 0.078768
O	-0.3095549492	-0.9243925334	 2.2028082922	-0.266335
C	-1.5533955447	-0.9288359867	 1.6026349306	 0.421258
N	-2.672271516	-0.9111875811	 2.1822440413	-0.563518
C	-1.2327429728	-0.9505438959	 0.1404007404	-0.163016
H	 1.0255680147	 1.9089016241	-0.1061842248	 0.124004
H	-0.5722966363	 1.9058594485	-0.8690958475	 0.12782
H	-0.435794659	 1.893381107	 0.8969528965	 0.137305
H	 0.0658563669	-0.9710242048	-2.067066515	 0.104671
H	 1.6675740204	-0.9648230005	-1.2425786003	 0.095765
H	-0.0015045066	-2.9863119359	 0.0089681207	 0.088608
H	 1.6120906687	-0.9451081551	 1.3880204133	 0.09423
H	-2.5507223615	-0.8948315116	 3.1967874347	 0.223131
H	-2.0478107638	-0.9562230371	-0.5788157656	 0.092895
137.1748	194.6177	231.1941	303.2223	347.156	455.6078	482.211	603.471	619.7465	711.0444	730.0046	803.7246	815.6777	888.1116	897.3454	913.0892	916.0739	928.5541	989.2722	998.3266	1012.0299	1059.55	1072.679	1077.7913	1129.4227	1143.8044	1180.9615	1209.1736	1213.7318	1230.7602	1241.9042	1294.7158	1330.3671	1380.2586	1413.0977	1488.1078	1488.8369	1523.4834	1801.1521	3031.2133	3048.5	3098.8636	3104.2642	3112.1456	3121.5299	3146.6735	3162.2037	3467.1801
CC12CC3C1OC(=N)C23	C[C@@]12C[C@H]3[C@@H]1O[C]([NH])[C@@H]23	
InChI=1S/C7H9NO/c1-7-2-3-4(7)6(8)9-5(3)7/h3-5,8H,2H2,1H3	InChI=1S/C7H9NO/c1-7-2-3-4(7)6(8)9-5(3)7/h3-5,8H,2H2,1H3/t3-,4+,5+,7+/m1/s1
