13
gdb 29253	3.31436	1.47563	1.02262	3.4978	65.53	-0.2264	-0.056	0.1704	1062.2409	0.089678	-489.926125	-489.918445	-489.917501	-489.958728	28.371	
N	 0.0038520047	 1.4411444764	 0.037370778	-0.586939
C	-0.0452704813	 0.0520246589	-0.0425723294	 0.063946
C	-1.147560366	-0.7132087856	-0.0780964159	-0.001427
O	-1.1224680372	-2.0706457357	-0.2209088608	-0.195796
C	 0.0466086469	-2.7341826958	-0.3809158404	 0.478
N	 0.0288597491	-3.9742893591	-0.5664178749	-0.53434
O	 1.2005402488	-1.9918830539	-0.3166426327	-0.246942
C	 1.2505286041	-0.6230262677	-0.1423415242	 0.434726
O	 2.3192019073	-0.0830103274	-0.0748425643	-0.330325
H	 0.9232711764	 1.7614652082	 0.3136838142	 0.270642
H	-0.7306203751	 1.8701484222	 0.5814484514	 0.255584
H	-2.1632476022	-0.3500408253	 0.0029982057	 0.146796
H	 0.9756891846	-4.3332020751	-0.6604968768	 0.246074
59.3024	136.3981	233.3026	299.6002	334.6313	379.5831	385.4302	469.6153	538.8432	616.299	664.916	700.8639	724.6569	779.6838	818.4678	823.56	866.3457	938.4453	1060.6037	1073.6978	1147.3556	1254.8804	1270.1829	1377.696	1443.0413	1631.7004	1724.6891	1776.6623	1852.654	3230.1972	3547.0284	3549.5871	3654.1886
NC1=COC(=N)OC1=O	NC1=CO[C]([NH])OC1=O	
InChI=1S/C4H4N2O3/c5-2-1-8-4(6)9-3(2)7/h1,6H,5H2	InChI=1S/C4H4N2O3/c5-2-1-8-4(6)9-3(2)7/h1,6H,5H2
