19
gdb 68038	2.1034	1.70874	1.40458	1.1796	71.22	-0.2465	0.0599	0.3064	1032.7886	0.15662	-460.110762	-460.101431	-460.100487	-460.143821	36.453	
C	-0.1403899511	 1.5416885643	-0.0540131865	-0.4853
C	 0.0403853398	 0.0306195174	-0.0283006915	 0.332003
O	-1.2212530199	-0.5885906843	-0.226890038	-0.495517
C	 1.2706823839	-0.6375019694	-0.7184118422	 0.344192
O	 1.500541316	-0.5363791621	-2.0763549072	-0.482555
C	 2.1578885114	-0.1260888888	 0.4688810458	-0.357465
C	 0.8597629807	-0.6832637271	 1.0965886277	 0.382849
O	 0.6022732255	-0.6797538762	 2.4505855631	-0.47702
C	 1.0007523425	-1.916774987	 0.1347095964	-0.377366
H	-0.5397665717	 1.8493222164	-1.0282768626	 0.114163
H	-0.8641086522	 1.8365211052	 0.7115595219	 0.127352
H	 0.7806286105	 2.1015982261	 0.107729376	 0.126398
H	-1.576633291	-0.2768776031	-1.0657009844	 0.282185
H	 2.2628025513	-1.0796924204	-2.3028791041	 0.286303
H	 3.0566247927	-0.7137137309	 0.6701469621	 0.093796
H	 2.3555460807	 0.9416569873	 0.5521050851	 0.099077
H	-0.2825404001	-1.039931709	 2.5805919577	 0.291491
H	 0.0980122298	-2.4786296993	-0.0917678559	 0.112302
H	 1.866611651	-2.556207059	 0.3236227666	 0.083113
149.5914	167.68	200.0742	220.6453	233.303	269.7582	279.3325	331.1254	366.5902	450.0381	454.5798	554.3169	564.4708	586.4055	614.9171	705.2281	722.5437	728.6703	805.3721	960.7684	989.2191	998.0867	1019.8819	1074.0192	1079.5155	1107.8466	1122.9152	1133.3828	1149.8783	1185.5306	1201.885	1268.4276	1307.9663	1348.9232	1375.3849	1409.3776	1420.4801	1479.705	1491.4755	1504.1995	1554.7332	3032.706	3068.7651	3077.3767	3096.7482	3136.2116	3154.2337	3172.0904	3801.0929	3809.7032	3811.1396
CC1(O)C2(O)CC1(O)C2	C[C@@]1(O)[C@@]2(O)C[C@]1(O)C2	
InChI=1S/C6H10O3/c1-4(7)5(8)2-6(4,9)3-5/h7-9H,2-3H2,1H3	InChI=1S/C6H10O3/c1-4(7)5(8)2-6(4,9)3-5/h7-9H,2-3H2,1H3/t4-,5-,6+
