24
gdb 103852	2.85294	0.9834	0.904	1.0502	91.55	-0.2305	0.0907	0.3212	1475.7958	0.216031	-368.375	-368.364867	-368.363923	-368.410092	38.304	
C	 0.2306623675	 1.4450877935	 0.3037120121	-0.37949
C	-0.2238900588	 0.0685245983	-0.1972830128	-0.243038
C	 0.6003468963	-0.4694997762	-1.3586650961	 0.33859
C	 0.460882283	 0.2887454536	-2.6665187502	-0.460339
C	 1.9561477282	-1.0745069133	-1.045882106	-0.351051
C	 0.8142832253	-1.9652745401	-1.4674781627	-0.00362
N	 0.2490464575	-2.8386064721	-0.4759164158	-0.057823
C	-0.8043754438	-3.7436727523	-0.9244223864	-0.224006
C	 0.5565667471	-4.2593761876	-0.6068104706	-0.220881
H	 1.2779067408	 1.4207682848	 0.6237478795	 0.114398
H	 0.1386082039	 2.2149953228	-0.4692215363	 0.11195
H	-0.3730112364	 1.7659931125	 1.1586572536	 0.108
H	-0.1848151457	-0.6546486387	 0.6218197	 0.115243
H	-1.2770776159	 0.1243241441	-0.5061749187	 0.085389
H	 0.8176850687	 1.3203672962	-2.5739454515	 0.118
H	 1.0398476941	-0.1845718962	-3.4660916411	 0.108283
H	-0.5864985157	 0.3266994465	-2.9897857043	 0.111448
H	 2.776637644	-0.9172258292	-1.7383525486	 0.102501
H	 2.2479224393	-1.134499811	-0.0026063204	 0.114133
H	 0.8550623886	-2.3698902191	-2.4844328685	 0.06248
H	-1.6286184565	-3.8929085046	-0.2326841504	 0.115714
H	-1.0909341424	-3.7093412718	-1.9743607786	 0.109452
H	 1.1796057667	-4.5692895025	-1.4441389272	 0.109543
H	 0.7442214842	-4.7911487175	 0.3218022409	 0.115123
65.9497	89.5468	131.776	154.9526	218.3754	227.9026	260.4289	318.3331	349.6003	369.1846	382.9483	478.5309	582.2689	686.7674	739.2743	788.7264	825.3676	868.528	895.1075	908.0774	929.4543	959.2683	1020.1358	1020.4514	1036.2934	1054.0981	1064.7111	1084.5721	1111.2517	1118.4344	1120.3112	1127.4443	1147.6737	1175.2144	1205.4343	1254.4575	1308.5271	1326.6695	1333.8739	1374.1823	1408.2717	1414.3435	1421.9963	1481.5544	1487.6619	1492.1289	1495.9776	1500.9562	1507.9403	1510.6322	1520.3456	3012.1953	3021.8681	3031.0558	3033.4844	3082.0627	3085.5212	3094.1524	3095.1731	3098.4141	3100.5183	3107.2103	3127.7346	3175.7678	3190.3962	3215.131
CCC1(C)CC1N1CC1	CC[C@@]1(C)C[C@H]1N1CC1	
InChI=1S/C8H15N/c1-3-8(2)6-7(8)9-4-5-9/h7H,3-6H2,1-2H3	InChI=1S/C8H15N/c1-3-8(2)6-7(8)9-4-5-9/h7H,3-6H2,1-2H3/t7-,8+/m1/s1
