16
gdb 9624	4.85633	1.26168	1.15756	2.662	62.65	-0.263	-0.0463	0.2167	1035.4983	0.127436	-420.859301	-420.850653	-420.849709	-420.892606	30.577	
C	-0.1136212621	 1.6314898209	 0.0533897931	-0.472205
C	-0.1602102435	 0.1241222142	 0.1148353856	 0.3499
C	-1.398623594	-0.5345300227	-0.4728818719	-0.110839
O	-1.5090299423	-0.2632928091	-1.8578201915	-0.411079
O	 1.0480470565	-0.5566728558	-0.2419137598	-0.26935
C	 0.6256119282	-0.6590911623	 1.1140439679	-0.102702
C	 1.4571274524	 0.0089023721	 2.1646740624	 0.14248
O	 2.2973272651	 0.8463451055	 1.9588138754	-0.245104
H	 0.8604790563	 2.0030776268	 0.3702412766	 0.162115
H	-0.3079219836	 1.9492272042	-0.9745605359	 0.143183
H	-0.8921120027	 2.0645042262	 0.6903616043	 0.121985
H	-1.3678944773	-1.6156715814	-0.274412364	 0.094768
H	-2.3016292492	-0.1272500074	-0.0062101051	 0.117283
H	-0.7230364494	-0.6301373814	-2.2791230379	 0.296152
H	 0.2386923132	-1.6366531166	 1.4091769741	 0.100632
H	 1.2190547123	-0.3362455931	 3.1964043267	 0.082781
68.3323	122.232	145.4431	203.3404	245.8064	271.7402	309.2282	346.1864	416.8677	434.5301	566.5516	724.2405	762.1752	822.8579	902.2022	927.3985	953.3015	979.7007	1059.4854	1085.7151	1116.936	1117.8211	1200.9372	1268.7289	1317.5029	1387.1215	1409.4139	1419.0969	1426.0281	1440.5394	1485.3978	1495.1321	1502.5723	1827.2877	2876.9825	2999.7391	3048.4692	3081.051	3092.9275	3115.1123	3162.9714	3798.9429
CC1(CO)OC1C=O	C[C@@]1(CO)O[C@H]1C=O	
InChI=1S/C5H8O3/c1-5(3-7)4(2-6)8-5/h2,4,7H,3H2,1H3	InChI=1S/C5H8O3/c1-5(3-7)4(2-6)8-5/h2,4,7H,3H2,1H3/t4-,5-/m0/s1
