15
gdb 42595	3.28098	2.021	1.81227	3.9909	66.2	-0.2325	-0.0243	0.2082	789.1113	0.11639	-416.761881	-416.756298	-416.755354	-416.791681	23.74	
O	 0.0405983526	 0.0214877425	-0.0940461507	-0.322617
C	-0.0050398701	 1.2102075356	 0.0115264381	 0.514289
C	-1.1725181556	 2.1962686132	 0.0528366121	-0.125257
C	-0.6188474885	 3.3627154635	 0.9453702074	-0.05609
N	 0.7025143174	 2.8641567336	 1.3606729666	-0.292839
C	 1.1052221305	 2.286864253	 0.0540494168	-0.183105
C	 0.5713752001	 3.2595166586	-1.025869396	-0.057367
C	-0.4251542843	 4.1431351763	-0.3808481602	-0.049179
N	-0.9270795815	 3.0092638087	-1.2096392132	-0.156438
H	-2.1858377342	 1.8242416396	 0.1606521696	 0.102436
H	-1.2265512453	 3.7709547161	 1.749135539	 0.090845
H	 1.3108130388	 3.6367513844	 1.6258818941	 0.224439
H	 2.1357075728	 1.9517190897	-0.0099357848	 0.094866
H	 1.1081136638	 3.5199168541	-1.9276643648	 0.113038
H	-0.6201250767	 5.1810254612	-0.6254774941	 0.10298
157.9236	383.5725	478.3832	557.9725	560.3304	660.4258	706.6133	761.2579	783.668	801.1502	839.5383	852.1007	874.2137	879.7413	904.3233	938.0475	950.3205	982.7913	1023.338	1044.484	1056.7484	1124.3971	1147.5441	1168.1056	1188.6741	1205.7624	1224.0202	1237.2518	1278.0862	1301.0179	1346.3891	1385.3553	1898.6354	3151.3192	3177.7778	3178.7531	3183.1225	3217.3824	3478.7852
O=C1C2C3NC1C1C3N21	O=C1[C@H]2[C@H]3N[C@@H]1[C@@H]1[C@H]3N21	
InChI=1S/C6H6N2O/c9-6-2-4-3-1(7-2)5(6)8(3)4/h1-5,7H	InChI=1S/C6H6N2O/c9-6-2-4-3-1(7-2)5(6)8(3)4/h1-5,7H/t1-,2+,3-,4+,5+,8?/m0/s1
