19
gdb 64000	3.1238	1.12929	1.01599	2.7937	78.64	-0.2314	-0.0666	0.1648	1250.9726	0.158555	-419.241745	-419.232702	-419.231758	-419.275344	33.9	
C	 0.3524265777	 1.413065927	 0.0294925218	-0.423512
C	-0.0129292447	-0.0793920294	 0.0102035688	 0.278495
C	-1.51954551	-0.2802400783	 0.1773081631	-0.427852
C	 0.5619392094	-0.7890062818	-1.2626680129	-0.201861
N	 1.8300779002	-1.4198004153	-0.8635795502	-0.287086
C	 1.8386016276	-1.3708558319	 0.4205615782	 0.266795
N	 0.7474179044	-0.8145837744	 1.0465509065	-0.358635
C	 2.9785821768	-1.8935253252	 1.2155762876	 0.109977
O	 3.0468547197	-1.7786799947	 2.4161980549	-0.265839
H	 1.4282274571	 1.5530844845	-0.1148741152	 0.127425
H	-0.1709808665	 1.9477727164	-0.7700259101	 0.121825
H	 0.0693564236	 1.875188153	 0.9818196938	 0.114701
H	-2.0625894435	 0.1733355378	-0.6585663177	 0.119496
H	-1.7644168464	-1.3448759461	 0.2146535455	 0.124313
H	-1.8815532387	 0.185774913	 1.1001590022	 0.115099
H	-0.121269912	-1.5716181348	-1.6201505714	 0.115148
H	 0.7209541908	-0.094875687	-2.0940653218	 0.113649
H	 0.8878452961	-0.4114215078	 1.9627053639	 0.248821
H	 3.7649660383	-2.3764620751	 0.6050652529	 0.10904
85.9809	117.24	168.2105	220.6524	268.0322	276.9987	320.3991	331.8151	393.58	439.707	493.9141	566.6242	611.9737	644.8298	742.7039	826.0018	918.6805	924.6455	951.9867	968.4175	1002.2421	1020.5777	1029.4421	1040.6486	1163.1984	1213.4487	1221.1725	1260.694	1286.3164	1346.0114	1385.6425	1398.331	1417.878	1468.9232	1479.6724	1482.4532	1488.4642	1501.7714	1505.6546	1672.5435	1802.8814	2964.7374	3014.6949	3027.6343	3034.9781	3071.0552	3095.5377	3101.4054	3108.755	3119.4621	3599.1754
CC1(C)CN=C(N1)C=O	CC1(C)C[N][C](N1)C=O	
InChI=1S/C6H10N2O/c1-6(2)4-7-5(3-9)8-6/h3H,4H2,1-2H3,(H,7,8)	InChI=1S/C6H10N2O/c1-6(2)4-7-5(3-9)8-6/h3H,4H2,1-2H3,(H,7,8)
