12
gdb 133383	3.10569	1.42531	0.97812	6.0394	61.72	-0.2472	-0.0786	0.1686	1073.863	0.076789	-513.907807	-513.900472	-513.899527	-513.939706	27.488	
N	 0.0760298955	 1.4281667357	 0.1224856851	-0.557332
C	 0.019320689	 0.0539318675	-0.0334813318	 0.411592
N	-1.1588057041	-0.483009908	-0.1316625394	-0.168535
O	-1.2063390354	-1.8555853953	-0.409071845	-0.258287
C	-0.1157492918	-2.6753068446	-0.5169969061	 0.376749
O	-0.25946638	-3.8477389339	-0.7317256275	-0.328246
C	 1.178432864	-1.9959789309	-0.3574749223	 0.170842
F	 2.2401547578	-2.7658077323	-0.4631998912	-0.029289
C	 1.2597120497	-0.6787160946	-0.1345830312	-0.2899
H	 0.8040399071	 1.7648644977	 0.7360395392	 0.262072
H	-0.8254401542	 1.8430194037	 0.3186261961	 0.270203
H	 2.2149427924	-0.174286485	-0.0455575559	 0.140131
103.9819	191.9098	293.177	313.8594	347.767	372.0224	412.1893	470.8557	501.6676	602.7995	617.8097	690.7239	708.6734	774.6203	824.4088	904.3756	951.7711	1038.4668	1110.3499	1176.2462	1224.3424	1380.1758	1460.8199	1604.2536	1645.1228	1725.5354	1838.1483	3201.3697	3556.4171	3662.6032
NC1=NOC(=O)C(F)=C1	Nc1noc(=O)c(F)c1	
InChI=1S/C4H3FN2O2/c5-2-1-3(6)7-9-4(2)8/h1H,(H2,6,7)	InChI=1S/C4H3FN2O2/c5-2-1-3(6)7-9-4(2)8/h1H,(H2,6,7)
