18
gdb 62098	3.61382	0.69841	0.62723	3.6642	70.44	-0.2493	-0.022	0.2272	1716.5443	0.144937	-476.26639	-476.256132	-476.255187	-476.303124	35.628	
N	 0.1311574547	 1.2471135375	-0.1503772399	-0.517898
C	 0.084970473	-0.0982851431	-0.0044957966	 0.385182
O	 1.0762239156	-0.7914896064	 0.156886706	-0.373907
C	-1.3073897753	-0.7523584233	-0.0185022466	 0.030209
O	-1.1378830595	-2.1399833433	-0.1178992376	-0.431665
C	-2.0968484066	-0.3816494589	 1.2546340398	-0.210193
C	-3.4606463782	-1.0886293272	 1.2967093265	-0.270254
C	-4.1477702574	-0.8999791752	 2.6273559441	 0.154235
O	-5.2401371716	-0.4174684309	 2.7818066873	-0.239141
H	 1.0298489043	 1.7014667508	-0.1680860901	 0.271837
H	-0.6870251532	 1.7875594434	-0.3707066259	 0.269163
H	-1.8629227713	-0.3919793486	-0.8989541318	 0.086501
H	-0.185922634	-2.2803897034	 0.0316236913	 0.295553
H	-1.4966485313	-0.6761904315	 2.1248056818	 0.115918
H	-2.2328698819	 0.7051933232	 1.3095468536	 0.099664
H	-4.1250257857	-0.7333308465	 0.5031602328	 0.115642
H	-3.2837859032	-2.1620607712	 1.1498347294	 0.147567
H	-3.5480288085	-1.2478586054	 3.5022054463	 0.071588
47.3553	55.9684	87.8841	104.9928	146.1662	237.9276	249.5523	317.1355	331.3316	413.894	495.2602	508.9569	524.8407	566.523	655.1923	725.4458	769.5961	847.3137	871.3338	973.0793	1008.3904	1075.6309	1096.7231	1112.7458	1148.9004	1203.7083	1237.8914	1271.1727	1312.6973	1352.8487	1362.8259	1384.1284	1430.8325	1462.8839	1466.5756	1485.493	1622.1918	1787.0507	1835.3374	2848.6686	2980.0495	3024.5656	3036.2085	3068.4486	3102.3705	3602.2051	3634.5121	3735.3215
NC(=O)C(O)CCC=O	NC(=O)[C@@H](O)CCC=O	
InChI=1S/C5H9NO3/c6-5(9)4(8)2-1-3-7/h3-4,8H,1-2H2,(H2,6,9)	InChI=1S/C5H9NO3/c6-5(9)4(8)2-1-3-7/h3-4,8H,1-2H2,(H2,6,9)/t4-/m0/s1
