16
gdb 20045	5.57034	1.40071	1.22805	1.828	66.5	-0.2394	0.0166	0.256	993.5492	0.132696	-379.905593	-379.898331	-379.897387	-379.938333	25.73	
C	-0.3347117543	 1.2033652827	-0.3921577715	-0.22399
N	 0.8453195609	 1.3847141748	 0.4613336676	-0.302965
C	 0.3457590641	 0.0161201877	 0.1777399122	-0.134447
C	-0.2350095901	-0.7104431774	 1.3299589481	 0.463936
N	-1.2843826663	-0.3988921788	 1.9718686634	-0.315679
C	-1.4201889241	-1.3844371355	 3.0533549423	-0.184902
C	-0.2481210384	-2.3769007615	 2.829939052	-0.112383
O	 0.4693356009	-1.8149303334	 1.7083077591	-0.263691
H	-1.2684760414	 1.5201421149	 0.0598074227	 0.148754
H	-0.2468696283	 1.3698648846	-1.4624245767	 0.113323
H	 1.6674987115	 1.5563127202	-0.1130267595	 0.235828
H	 0.9402209386	-0.6100167235	-0.480526159	 0.104085
H	-1.362163357	-0.8807683794	 4.0245437092	 0.119087
H	-2.3993384052	-1.8712624369	 2.9988222998	 0.115636
H	 0.4397029797	-2.4450083265	 3.6768087215	 0.120694
H	-0.5754181207	-3.384882872	 2.5577958588	 0.116713
40.2889	93.5498	154.8508	193.7403	354.3866	416.8347	637.8586	727.6304	757.8255	830.6114	857.3169	884.821	905.9266	927.5879	969.8736	980.4191	1011.4186	1022.8177	1116.6634	1122.9562	1131.2865	1191.0154	1209.0962	1216.4343	1246.9003	1256.8339	1289.6569	1330.9904	1372.3067	1463.1171	1502.6143	1506.9828	1527.1909	1743.327	3039.2566	3053.0841	3068.5438	3102.8299	3117.7761	3160.072	3216.5285	3493.7688
C1NC1C1=NCCO1	C1N[C@H]1C1=NCCO1	
InChI=1S/C5H8N2O/c1-2-8-5(6-1)4-3-7-4/h4,7H,1-3H2	InChI=1S/C5H8N2O/c1-2-8-5(6-1)4-3-7-4/h4,7H,1-3H2/t4-/m1/s1
