18
gdb 99065	3.76067	0.79241	0.7277	4.3126	75.3	-0.2592	0.026	0.2852	1585.6101	0.146436	-435.319748	-435.309184	-435.308239	-435.356683	36.04	
C	 0.0326537078	 1.4414888286	 0.1096535101	-0.325547
N	-0.0420395646	 0.0031878326	-0.0802421066	-0.368314
C	-1.2489943683	-0.6450095997	 0.0168507773	 0.522634
O	-2.3221045528	-0.0737404067	 0.1140881991	-0.408791
N	-1.1459873644	-2.0308779838	-0.0102738065	-0.377466
C	-2.3682344675	-2.8137026241	-0.1051844294	-0.095803
C	-2.8335797518	-3.0665743945	-1.5505207423	-0.393811
C	-2.1919797135	-4.0820912868	 0.6213232369	 0.270279
N	-2.0497256266	-5.0927273593	 1.1627327183	-0.319669
H	 0.8346556559	 1.8568872649	-0.5067156535	 0.125015
H	-0.9202467645	 1.8697719466	-0.2009840648	 0.16968
H	 0.2095014464	 1.719697717	 1.1565308664	 0.127047
H	 0.7888012932	-0.5289534002	 0.1249799372	 0.242317
H	-0.3176455778	-2.4425722169	-0.4133930879	 0.244749
H	-3.1318670609	-2.2224690286	 0.4093705618	 0.170902
H	-3.0148022047	-2.1034534422	-2.0325906208	 0.149084
H	-2.0748832743	-3.616167968	-2.1154415182	 0.126343
H	-3.7588600016	-3.6488595888	-1.562210047	 0.14135
32.0659	66.9089	86.5403	133.5217	151.9094	183.4694	239.1804	273.4984	331.6539	351.2177	416.1179	436.6341	483.5638	564.1766	596.12	735.515	763.3552	842.3866	931.2386	982.8877	1075.4493	1093.5095	1128.0481	1151.6247	1174.2654	1197.004	1238.5998	1324.5137	1347.6083	1406.0714	1443.6603	1482.4999	1492.6396	1492.9292	1499.0694	1514.6501	1563.9081	1781.2614	2361.588	3021.7678	3047.3587	3083.2135	3091.8849	3124.619	3140.2415	3159.8149	3611.6367	3626.3728
CNC(=O)NC(C)C#N	CNC(=O)N[C@@H](C)C#N	
InChI=1S/C5H9N3O/c1-4(3-6)8-5(9)7-2/h4H,1-2H3,(H2,7,8,9)	InChI=1S/C5H9N3O/c1-4(3-6)8-5(9)7-2/h4H,1-2H3,(H2,7,8,9)/t4-/m0/s1
