21
gdb 105410	2.15305	1.2863	0.96273	4.2026	79.29	-0.2681	0.0086	0.2767	1311.987	0.180925	-424.247428	-424.237813	-424.236868	-424.28204	35.342	
C	-0.4335234369	 1.7114918749	 0.5509593498	-0.391581
C	-0.1137340374	 0.2705007884	 0.1427637197	-0.223612
C	 0.8345670539	-0.4568884404	 1.0992611164	 0.411639
C	 0.221959641	-0.8185176253	 2.4735294785	-0.265307
C	-0.016237836	-2.2626139041	 1.9535261221	-0.222967
C	 0.9902849593	-1.9786689368	 0.8057683709	-0.277055
O	 2.0541228179	 0.3027820964	 1.2591676747	-0.238112
C	 2.9689620295	 0.2479547446	 0.2778889864	 0.152927
O	 3.9865436387	 0.8769233008	 0.3065843679	-0.283349
H	 0.4748111415	 2.316835025	 0.603994534	 0.141179
H	-1.1103256869	 2.1738781024	-0.1731137925	 0.116895
H	-0.9177627593	 1.7527799234	 1.5316461082	 0.121801
H	-1.038324916	-0.3156503007	 0.0729474635	 0.105795
H	 0.3279692502	 0.2578639136	-0.8625710814	 0.100498
H	 0.9904777389	-0.7818236247	 3.2483814178	 0.122922
H	-0.6437586173	-0.240315659	 2.8027714562	 0.105375
H	 0.2318179386	-3.0789853364	 2.6333445041	 0.110701
H	-1.0346474054	-2.4151073797	 1.5883592401	 0.110839
H	 0.7349064826	-2.3215886544	-0.2001238518	 0.103879
H	 1.9952318849	-2.327509057	 1.05692524	 0.117026
H	 2.6927722082	-0.4387715009	-0.5439037446	 0.080506
79.427	116.4276	145.688	163.3138	178.1989	217.2782	234.6247	329.426	362.4658	414.3196	491.0686	532.2549	695.3864	752.8605	793.4521	802.4729	860.9185	913.0044	937.4682	965.1878	994.5008	1018.4503	1036.8459	1048.747	1060.1477	1139.324	1178.9358	1186.4904	1198.1601	1218.6431	1254.6091	1273.1998	1282.8336	1293.0621	1327.4483	1370.286	1416.0524	1433.846	1468.1997	1479.6835	1484.512	1499.0418	1506.0186	1507.7058	1854.8308	2962.1137	3019.8363	3046.6003	3057.9236	3059.1581	3070.8219	3075.6439	3110.2027	3111.6599	3122.9468	3126.625	3136.5291
CCC1(CCC1)OC=O	CCC1(CCC1)OC=O	
InChI=1S/C7H12O2/c1-2-7(9-6-8)4-3-5-7/h6H,2-5H2,1H3	InChI=1S/C7H12O2/c1-2-7(9-6-8)4-3-5-7/h6H,2-5H2,1H3
