18
gdb 61935	3.86498	0.70999	0.62975	4.5285	73.2	-0.2771	0.0359	0.313	1703.8859	0.145888	-439.07203	-439.062371	-439.061427	-439.107763	33.871	
O	 0.1643912807	 1.6055267252	-0.1286863334	-0.426788
C	 0.1042170467	 0.1913901243	 0.0249127352	 0.087356
C	 0.6538582801	-0.5465623877	-1.2011734402	-0.208364
C	-0.105354561	-0.1538923346	-2.4826453604	-0.343462
C	 0.4711423359	-0.7505662689	-3.6839968393	 0.255161
N	 0.9424377621	-1.227306275	-4.6253194488	-0.304902
C	 0.8114542695	-0.2488453257	 1.2913670736	 0.057437
C	 0.0972113749	-0.4134766099	 2.5598467655	-0.176949
O	 0.4777751695	-1.5486340185	 1.7739108844	-0.232614
H	 1.0918053238	 1.8634389744	-0.1876616325	 0.285345
H	-0.9623002311	-0.0384939401	 0.1347521652	 0.100072
H	 1.7197785778	-0.3129801063	-1.3214418796	 0.110682
H	 0.5824250006	-1.6252111749	-1.030830356	 0.143872
H	-1.1553110384	-0.4606326473	-2.4089069629	 0.153395
H	-0.103317637	 0.9358749157	-2.5866012148	 0.163175
H	 1.8801123067	-0.016851956	 1.3251523714	 0.090312
H	 0.6316598921	-0.2991931288	 3.5011285721	 0.123308
H	-0.9717246228	-0.2106446357	 2.6008810403	 0.122964
48.5515	84.0513	96.267	114.4879	205.4919	234.0476	302.4223	312.5616	390.9987	403.998	468.5401	513.2101	583.4677	771.3152	845.2414	877.0261	916.3245	950.3341	965.4782	1027.6979	1066.718	1077.6871	1115.5861	1130.3339	1157.6921	1166.9337	1180.7836	1260.1462	1265.5972	1291.6961	1319.3425	1347.9473	1388.6926	1407.5287	1455.2002	1470.2848	1489.0223	1528.844	2362.8852	3027.3582	3045.6978	3050.7727	3070.1973	3084.5123	3090.2706	3102.9803	3179.3087	3792.032
OC(CCC#N)C1CO1	O[C@@H](CCC#N)[C@H]1CO1	
InChI=1S/C6H9NO2/c7-3-1-2-5(8)6-4-9-6/h5-6,8H,1-2,4H2	InChI=1S/C6H9NO2/c7-3-1-2-5(8)6-4-9-6/h5-6,8H,1-2,4H2/t5-,6+/m0/s1
