14
gdb 11717	6.32476	1.36842	1.25756	1.6968	65.07	-0.2502	0.0115	0.2617	937.7642	0.105386	-382.460625	-382.453386	-382.452442	-382.491939	27.687	
O	-0.0312497847	 1.4474520448	-0.0804105409	-0.431435
C	 0.0352277827	 0.0526063724	-0.0362288997	 0.138002
C	 0.4076586585	-0.6441016754	 1.3311916339	-0.352789
C	-0.9659559936	-1.3307581545	 1.2976262846	 0.280822
O	-1.9424649257	-0.2630660344	 1.2167482531	-0.292346
C	-1.312351486	-0.6908519054	 0.0045805563	-0.09045
C	-1.3515298237	-2.5788170561	 1.8587645847	 0.181642
C	-1.6303481221	-3.6399640088	 2.3505227342	-0.375637
H	-0.7063008226	 1.7060617	 0.5604333349	 0.290772
H	 0.6846617306	-0.2700914249	-0.8528674519	 0.102191
H	 1.2438388736	-1.3398479649	 1.2385355872	 0.122904
H	 0.5665427941	 0.0231491958	 2.180942599	 0.115498
H	-1.9584090767	-1.0273193032	-0.7985668877	 0.115986
H	-1.8890829343	-4.5755226653	 2.7816024725	 0.19484
102.0423	144.1138	215.4269	337.3209	423.8204	462.4011	488.9998	521.2535	569.8874	616.5577	662.2617	675.1968	714.9406	809.6874	871.3649	928.3818	954.8157	981.5797	1027.7095	1108.5761	1129.597	1161.8545	1194.5806	1255.437	1261.0624	1313.8974	1402.8806	1438.5782	1472.2661	2243.7136	3074.2802	3096.5414	3138.2584	3187.2189	3501.7186	3771.0787
OC1CC2(OC12)C#C	O[C@H]1C[C@]2(O[C@@H]12)C#C	
InChI=1S/C6H6O2/c1-2-6-3-4(7)5(6)8-6/h1,4-5,7H,3H2	InChI=1S/C6H6O2/c1-2-6-3-4(7)5(6)8-6/h1,4-5,7H,3H2/t4-,5-,6+/m0/s1
