19
gdb 63900	2.42549	1.65722	1.35248	2.9026	74.81	-0.2432	-0.0229	0.2203	1033.0535	0.159239	-423.049825	-423.041497	-423.040553	-423.082286	32.924	
C	-0.4156728669	 1.5644580147	 0.1081138304	-0.43931
C	-0.0417647397	 0.0827165812	-0.0375450445	 0.299204
O	-1.2203425413	-0.7064469873	 0.0425197853	-0.475182
C	 0.7304806227	-0.2691256353	-1.3297673893	-0.274099
C	 2.1850262204	-0.5261577066	-0.9261335457	-0.043169
C	 2.9022313198	 0.5549050396	-0.1952897436	-0.291763
C	 2.2771164339	-0.5908697778	 0.5987909131	-0.149348
C	 0.9005525038	-0.3880355662	 1.1063440966	 0.378921
O	 0.4732691638	-0.6667247554	 2.2036773574	-0.363218
H	 0.4382631485	 2.2357277707	-0.0235404251	 0.114492
H	-1.1696588464	 1.8140865251	-0.644042292	 0.129934
H	-0.8426673193	 1.7439932093	 1.0996588977	 0.127799
H	-1.3758261777	-0.8427593409	 0.9890405025	 0.285287
H	 0.2898596745	-1.182855534	-1.7359248276	 0.127063
H	 0.649799977	 0.5106524596	-2.0936931689	 0.104069
H	 2.7672752617	-1.2175888633	-1.5240276323	 0.100813
H	 3.9863039813	 0.5487802155	-0.2175138894	 0.128853
H	 2.4692871904	 1.5458527192	-0.1260705093	 0.128583
H	 2.9286783635	-1.2657079778	 1.1388818246	 0.111073
90.154	189.6418	216.8416	241.1141	314.6589	340.9105	352.017	400.556	454.7644	504.2337	586.7991	612.4989	687.587	774.7206	796.7244	835.3953	871.5778	905.3648	949.0618	954.5767	978.2253	984.2956	1057.1177	1067.9926	1105.626	1134.814	1141.5169	1160.0308	1204.5259	1220.1638	1256.2292	1323.5396	1332.4029	1371.9531	1395.998	1402.934	1477.4472	1489.1399	1491.6626	1502.4732	1816.0405	3038.4188	3054.3624	3106.8988	3113.8068	3117.5994	3143.6524	3178.3402	3200.9375	3227.607	3723.0967
CC1(O)CC2CC2C1=O	C[C@@]1(O)C[C@H]2C[C@H]2C1=O	
InChI=1S/C7H10O2/c1-7(9)3-4-2-5(4)6(7)8/h4-5,9H,2-3H2,1H3	InChI=1S/C7H10O2/c1-7(9)3-4-2-5(4)6(7)8/h4-5,9H,2-3H2,1H3/t4-,5-,7-/m1/s1
