17
gdb 66201	2.35388	1.53669	1.40835	4.3915	72.2	-0.2644	0.0076	0.272	1023.024	0.137151	-418.035191	-418.026918	-418.025974	-418.067917	30.708	
C	-0.026395172	 1.5311226075	 0.0052885123	-0.427359
C	-0.0238231821	-0.0087967577	-0.0005380102	 0.003056
C	 0.7111420282	-0.5397988437	-1.2465934468	-0.079866
O	 0.8297783065	-1.9602214829	-1.2335483264	-0.219539
C	 1.098015249	-2.5168867567	-0.0248267814	 0.135896
N	 1.1014308671	-1.9778930217	 1.1171630634	-0.261853
C	 0.72560347	-0.5791923241	 1.2339732587	-0.168279
C	-1.4111638438	-0.4957184937	-0.0108780618	 0.290398
N	-2.5093797593	-0.855611485	-0.0190017604	-0.337089
H	 1.0014690108	 1.9052232448	-0.0251703588	 0.128974
H	-0.5684517488	 1.9301542911	-0.8565363817	 0.140861
H	-0.5043996251	 1.9109495695	 0.9119053067	 0.146411
H	 0.1840112233	-0.2855811238	-2.1681194492	 0.138702
H	 1.7137170165	-0.0940814939	-1.2762497427	 0.119543
H	 1.3220377257	-3.5739867976	-0.1470968846	 0.136692
H	 1.6285595448	 0.0229163529	 1.3990835644	 0.118893
H	 0.1064222892	-0.4631125251	 2.1292574685	 0.134558
107.729	136.5402	197.9689	221.3531	227.6778	292.4992	369.1639	433.3462	472.4108	502.7069	605.6821	618.2491	703.2822	835.8714	906.7183	926.2946	955.3983	973.0653	973.4943	1015.7665	1057.7038	1131.367	1173.044	1198.6083	1210.2005	1268.2244	1331.2009	1354.045	1395.8891	1409.4594	1424.2704	1478.1241	1490.5131	1496.4579	1505.8859	1741.801	2354.6977	3022.5324	3030.0114	3043.9611	3073.703	3115.6465	3119.7671	3125.6184	3174.2641
CC1(COC=NC1)C#N	C[C@]1(COC=NC1)C#N	
InChI=1S/C6H8N2O/c1-6(2-7)3-8-5-9-4-6/h5H,3-4H2,1H3	InChI=1S/C6H8N2O/c1-6(2-7)3-8-5-9-4-6/h5H,3-4H2,1H3/t6-/m0/s1
