20
gdb 97172	2.41817	1.47966	1.0273	2.3849	84.41	-0.2387	0.0147	0.2533	1225.213	0.170622	-403.164353	-403.154962	-403.154017	-403.19937	33.875	
C	 0.1762900543	 1.4196251646	 0.1663711183	-0.324616
N	 0.2230248195	-0.0294238639	 0.0780672253	-0.285812
C	 0.5128571863	-0.5887508598	-1.0172165125	 0.371378
O	 0.8682806719	 0.1322274621	-2.1260950111	-0.26651
C	 0.5898352239	-0.3499811893	-3.4411790597	-0.117075
C	 0.426176885	-1.8306508577	-3.5474056914	-0.088355
C	 0.4306037629	-2.6245224855	-2.4838960652	-0.066976
C	 0.6098632498	-2.1021289248	-1.0869258759	-0.108143
C	 1.9494027654	-2.5779183116	-0.4775882227	-0.387866
H	 1.1218928951	 1.7973310059	 0.5764042215	 0.122652
H	 0.0048337845	 1.9194126945	-0.793836513	 0.113871
H	-0.6131611228	 1.7052963246	 0.8686009029	 0.116795
H	-0.3126552143	 0.1615651529	-3.811007912	 0.119814
H	 1.4216698947	-0.0074765811	-4.0699853366	 0.124719
H	 0.2972997149	-2.2214871398	-4.5528875817	 0.098786
H	 0.3214143835	-3.7003186087	-2.5948112283	 0.096422
H	-0.1934175299	-2.4871512561	-0.4492715246	 0.110125
H	 2.7957857326	-2.1722861965	-1.0404171033	 0.121169
H	 2.0260716525	-2.2468163895	 0.5604471089	 0.137939
H	 2.0161849601	-3.6704045504	-0.505903599	 0.111684
45.1602	69.7815	111.7402	167.5499	232.6346	246.83	270.6897	324.2801	423.9297	485.9392	528.8315	576.2671	709.623	727.8654	745.3624	850.3811	921.9213	932.8186	1000.1345	1006.606	1028.2078	1042.1396	1077.9727	1088.2347	1124.5172	1130.6787	1155.114	1197.0935	1245.8632	1256.363	1313.9452	1349.5868	1390.1906	1417.4512	1421.5568	1437.1256	1490.6137	1491.8182	1495.6328	1501.318	1503.2851	1744.9682	1763.7155	2983.4814	3012.8494	3035.6979	3037.0627	3048.7499	3068.4926	3091.8838	3107.4071	3131.1706	3154.0661	3177.8117
CN=C1OCC=CC1C	CN=C1OCC=C[C@H]1C	
InChI=1S/C7H11NO/c1-6-4-3-5-9-7(6)8-2/h3-4,6H,5H2,1-2H3	InChI=1S/C7H11NO/c1-6-4-3-5-9-7(6)8-2/h3-4,6H,5H2,1-2H3/t6-/m1/s1
