20
gdb 101082	2.15064	1.21828	1.05043	2.3719	75.32	-0.2509	-0.0297	0.2212	1263.0132	0.168882	-440.262884	-440.252829	-440.251885	-440.297813	36.469	
C	-0.173426696	 1.6534634119	 0.3434090467	-0.426435
C	-0.119985449	 0.1433440409	 0.0645926807	-0.075571
C	 0.7552999133	-0.6028599024	 1.0916564231	-0.093278
O	 2.1158160986	-0.2004809779	 1.0288178058	-0.421684
C	-1.5071499209	-0.4787680225	-0.0327180178	 0.219397
C	-2.2250919326	-0.4449295224	-1.35055857	-0.276718
N	-1.712636769	-1.7106123623	-0.8442751041	-0.353185
C	-2.3948961051	-0.4948770181	 1.1715365707	 0.144194
O	-2.1757255069	 0.0743588884	 2.2127074206	-0.270005
H	 0.8358294083	 2.0762783596	 0.3269532961	 0.109678
H	-0.7576832865	 2.1754504445	-0.4208436476	 0.114498
H	-0.6270895158	 1.8550793228	 1.3164989933	 0.148685
H	 0.361714729	-0.0033981518	-0.9128895756	 0.074246
H	 0.3413394969	-0.4736972232	 2.099110552	 0.120723
H	 0.7480566816	-1.6754926408	 0.8667289359	 0.105849
H	 2.2044253509	 0.6245940891	 1.5138766399	 0.287958
H	-3.3086744398	-0.3666268677	-1.3851475352	 0.128755
H	-1.7062773403	 0.0583637854	-2.1625185236	 0.127703
H	-0.8366739004	-1.9486149727	-1.3042121482	 0.243723
H	-3.313174476	-1.104089671	 1.0211376275	 0.091469
82.2821	103.9835	128.321	164.1004	204.0534	233.2211	266.4231	285.2131	297.9678	351.3178	426.0941	451.4491	484.865	558.2441	792.8269	801.97	872.1549	892.5277	911.0539	966.805	976.8186	1040.0239	1050.16	1061.7128	1093.7459	1108.2127	1134.6853	1141.3685	1224.0281	1256.0563	1286.1918	1336.8635	1359.7901	1373.5716	1391.2584	1403.9729	1420.1501	1435.8762	1499.8796	1506.1531	1508.9633	1514.2915	1816.1033	2898.0876	3001.0805	3029.207	3041.8328	3076.9061	3102.7324	3104.9494	3133.8442	3190.8813	3498.2011	3838.1173
CC(CO)C1(CN1)C=O	C[C@@H](CO)[C@]1(CN1)C=O	
InChI=1S/C6H11NO2/c1-5(2-8)6(4-9)3-7-6/h4-5,7-8H,2-3H2,1H3	InChI=1S/C6H11NO2/c1-5(2-8)6(4-9)3-7-6/h4-5,7-8H,2-3H2,1H3/t5-,6-/m0/s1
