21
gdb 64296	2.27751	1.4932	1.13371	0.6582	93.35	-0.2238	-0.0143	0.2094	1187.9224	0.181081	-349.952766	-349.94328	-349.942336	-349.986418	36.773	
C	 0.3137850267	 1.4506062514	-0.1675320444	-0.421527
C	-0.0526942432	-0.0362275949	 0.0149578353	 0.180864
C	-1.5697438473	-0.177176839	 0.2002882072	-0.435514
C	 0.4770585215	-0.905533334	-1.1638752346	-0.246771
C	 1.8353751747	-1.487393323	-0.7049035729	-0.25908
C	 1.7565470328	-1.3863487077	 0.7942478868	-0.192196
C	 0.7386631322	-0.6131633133	 1.1999342068	 0.171937
C	 0.4233977823	-0.2791799324	 2.5394677468	 0.247222
C	 0.1143552967	 0.0340290281	 3.6622472783	-0.434435
H	 1.3837793164	 1.5746297697	-0.3633992794	 0.11217
H	-0.2395810536	 1.8835994372	-1.0082125956	 0.1093
H	 0.0692464881	 2.0255686994	 0.731316813	 0.123193
H	-2.1005084761	 0.1842521473	-0.6874712513	 0.108989
H	-1.852134515	-1.2223678993	 0.3623734631	 0.112258
H	-1.9171641722	 0.4023165637	 1.0612483279	 0.122978
H	-0.2230597385	-1.7273094533	-1.3460955335	 0.100487
H	 0.5516187772	-0.3327090958	-2.0925391174	 0.094981
H	 1.9925323031	-2.5144221784	-1.05368052	 0.107004
H	 2.6879890019	-0.9061637858	-1.085056111	 0.111663
H	 2.4707800935	-1.8557975177	 1.4610508134	 0.097538
H	-0.1437708814	 0.2987396176	 4.6574308312	 0.188941
81.246	139.5255	153.5402	232.2131	248.0772	266.9177	323.7063	344.1284	356.5962	413.3995	512.9391	550.2022	579.7541	632.0718	639.8757	663.4673	710.6336	802.8508	860.7113	900.3503	931.6881	943.5553	967.0527	995.2807	1026.0064	1042.236	1112.72	1127.1172	1217.1813	1229.085	1235.9635	1255.2752	1303.4731	1322.4299	1348.4116	1396.2055	1418.59	1477.7924	1483.239	1489.2527	1498.3861	1500.3998	1509.3055	1671.5685	2215.3057	3002.8916	3025.3385	3029.5481	3042.9733	3055.992	3092.1032	3094.6299	3098.7027	3103.731	3107.2418	3198.8906	3503.4332
CC1(C)CCC=C1C#C	CC1(C)CCC=C1C#C	
InChI=1S/C9H12/c1-4-8-6-5-7-9(8,2)3/h1,6H,5,7H2,2-3H3	InChI=1S/C9H12/c1-4-8-6-5-7-9(8,2)3/h1,6H,5,7H2,2-3H3
