20
gdb 119803	5.29485	0.77906	0.7318	2.7409	81.61	-0.2245	0.0175	0.242	1562.9508	0.171863	-403.124428	-403.115672	-403.114728	-403.15858	32.886	
O	-0.2031948904	 1.4769902391	-0.0967135477	-0.41797
C	-0.0217818305	 0.0712464321	-0.1668830994	-0.067429
C	-1.3563082789	-0.5818009415	 0.2008455308	-0.291291
C	-1.3224506886	-2.0796815648	 0.1606374815	 0.3127
C	-1.5582290306	-2.9108359483	 1.1831270923	-0.169529
C	-1.550335796	-4.3336073949	 0.7414352968	-0.073872
N	-2.6224855955	-4.6228833414	-0.2591557149	-0.33501
C	-1.2512322804	-4.3098081656	-0.7157755505	-0.042551
C	-1.0557660623	-2.8554165258	-1.1265075135	-0.304653
H	 0.6317049717	 1.8995776595	-0.317654046	 0.285503
H	 0.2850260081	-0.2390146684	-1.1781814564	 0.086826
H	 0.7582472164	-0.2701325211	 0.532041079	 0.089007
H	-1.6446982906	-0.2375022449	 1.1993293021	 0.110553
H	-2.1143186668	-0.2004623307	-0.496829167	 0.115157
H	-1.7861445994	-2.6011721253	 2.1966926495	 0.090259
H	-1.2265176935	-5.1325982035	 1.3999616311	 0.084762
H	-2.7464130597	-5.6332905303	-0.3129398631	 0.223815
H	-0.6729025413	-5.0901497156	-1.1985439615	 0.084195
H	-1.7474198379	-2.5593758993	-1.9249491698	 0.118064
H	-0.0394633538	-2.6828617792	-1.5048205934	 0.101464
57.2783	86.7622	111.3434	214.333	258.0778	330.6501	340.2814	368.5629	481.7348	518.7209	678.0639	714.8121	787.0445	807.6755	839.48	852.6901	873.5396	917.3434	953.3088	963.8583	992.3204	1020.4578	1056.0508	1076.7103	1092.459	1128.6871	1161.8423	1178.8005	1197.3925	1222.37	1236.7938	1261.1286	1283.6812	1310.3211	1338.4277	1341.3543	1376.9384	1411.4527	1455.861	1464.4153	1482.4662	1528.2011	1697.7301	2967.7064	2994.6148	3017.8631	3022.696	3055.247	3081.1859	3160.9622	3170.6129	3197.0872	3468.653	3831.2751
OCCC1=CC2NC2C1	OCCC1=C[C@H]2N[C@H]2C1	
InChI=1S/C7H11NO/c9-2-1-5-3-6-7(4-5)8-6/h3,6-9H,1-2,4H2	InChI=1S/C7H11NO/c9-2-1-5-3-6-7(4-5)8-6/h3,6-9H,1-2,4H2/t6-,7+/m1/s1
