15
gdb 127550	3.29238	1.46996	1.02274	2.4057	74.14	-0.2425	-0.0577	0.1848	1098.4686	0.114634	-450.170538	-450.162543	-450.161598	-450.203829	28.937	
C	-0.008316169	 1.4397309495	-0.0391796298	-0.313747
N	 0.0097326008	-0.017976642	-0.0069962888	-0.095393
N	-0.0554914017	-0.6611599017	-1.1919378624	-0.160726
C	-0.0412250184	-1.9484714582	-1.2032072517	-0.061912
C	 0.042103804	-2.7877508621	-0.0064771717	 0.350189
N	 0.0624026124	-4.0621486923	 0.073489758	-0.52893
N	 0.1039528295	-2.0264654547	 1.1572930755	-0.417965
C	 0.0934511569	-0.6502305733	 1.2337940468	 0.526704
O	 0.1506468724	-0.0307344701	 2.2735694073	-0.390062
H	 0.9052400547	 1.8440866506	 0.4038674087	 0.152128
H	-0.082645274	 1.7333515355	-1.0846931065	 0.151307
H	-0.8620738765	 1.8239865779	 0.5243516497	 0.152496
H	-0.0952667902	-2.4264532356	-2.1753276263	 0.134263
H	 0.0106191315	-4.4786983352	-0.8546131197	 0.224895
H	 0.1642081377	-2.5186207883	 2.038400521	 0.276754
50.9756	103.2851	157.75	208.553	320.6328	369.2703	428.9311	483.1856	537.1695	619.4092	660.9552	731.861	732.3442	761.5657	803.1941	818.3477	892.7973	987.8493	1018.7913	1138.9626	1155.6669	1226.3181	1271.2155	1325.4697	1381.7095	1405.1876	1443.6316	1462.5765	1475.9307	1511.9435	1636.0147	1716.1024	1814.9455	3058.2984	3121.7914	3177.4433	3193.6626	3502.9388	3611.9343
CN1N=CC(=N)NC1=O	Cn1ncc([NH])[nH]c1=O	
InChI=1S/C4H6N4O/c1-8-4(9)7-3(5)2-6-8/h2H,1H3,(H2,5,7,9)	InChI=1S/C4H9N4O/c1-8-4(9)7-3(5)2-6-8/h3,5-6H,2H2,1H3,(H,7,9)
