19
gdb 105351	2.23579	1.57297	1.22563	1.8592	74.82	-0.2398	-0.0298	0.21	1108.1449	0.156721	-422.992595	-422.983548	-422.982604	-423.027053	33.242	
C	 0.717853651	-0.4698540559	 1.5222675523	-0.390095
C	 0.1868968713	-0.2218793653	 0.1057721316	-0.254499
C	-1.2444126301	-0.716225643	-0.0877291477	 0.320125
O	-1.6823752395	-0.6805068284	-1.4875016652	-0.342579
C	-2.1119865275	-2.0462757767	-1.3890949566	 0.098785
C	-0.954876624	-2.9581216781	-1.1418439459	-0.319954
C	-1.5810386829	-2.2048880083	 0.0146766339	-0.155458
C	-2.2194714329	 0.1586678137	 0.6859665879	 0.127462
O	-2.7491459075	-0.1492607992	 1.721762141	-0.256422
H	 1.7354187243	-0.0829418833	 1.6240719601	 0.11997
H	 0.0956860002	 0.0152429943	 2.2804545354	 0.13554
H	 0.7408543418	-1.5402889244	 1.749281307	 0.129218
H	 0.2224038735	 0.8482844615	-0.1370521524	 0.109316
H	 0.8196457796	-0.7216502182	-0.6346981968	 0.113223
H	-3.0531641586	-2.3130427481	-1.8539100509	 0.110547
H	-1.1871449674	-4.0187268104	-1.1542110784	 0.121152
H	 0.0279169203	-2.7012948139	-1.5248486778	 0.119516
H	-2.0160419777	-2.674359857	 0.8847170382	 0.120882
H	-2.407344114	 1.1379607207	 0.1910486546	 0.093271
40.136	82.7614	179.526	186.7255	200.9147	234.949	309.5982	386.8542	451.6694	480.517	578.5634	664.6073	767.1706	790.5003	801.6402	896.99	916.7649	947.6259	966.0252	986.1355	999.6144	1027.9002	1034.8038	1051.9329	1072.6312	1084.4296	1106.6053	1170.8623	1208.1118	1229.9232	1266.784	1335.6158	1342.3536	1351.0304	1404.8002	1417.7999	1474.0847	1491.847	1499.4367	1509.3307	1827.8743	2887.1238	3029.1121	3043.1899	3075.2421	3112.7403	3117.0807	3123.09	3190.091	3210.403	3227.061
CCC1(OC2CC12)C=O	CC[C@]1(O[C@H]2C[C@@H]12)C=O	
InChI=1S/C7H10O2/c1-2-7(4-8)5-3-6(5)9-7/h4-6H,2-3H2,1H3	InChI=1S/C7H10O2/c1-2-7(4-8)5-3-6(5)9-7/h4-6H,2-3H2,1H3/t5-,6+,7+/m1/s1
