21
gdb 91186	3.79875	1.2138	1.01321	0.1819	90.34	-0.2245	0.0238	0.2483	1241.0548	0.184614	-349.9804	-349.972546	-349.971602	-350.012513	31.77	
C	-0.1354294925	 1.5707503581	 0.0594609059	-0.397345
C	 0.0249868142	 0.0483532493	 0.0236181758	 0.00458
C	 0.7928811874	-0.4754501332	-1.2279190735	-0.245184
C	 1.4433498832	-1.7873013056	-0.7371158869	-0.089561
C	 2.8386734009	-2.2203340645	-1.1307867763	-0.095774
C	 3.5832338728	-2.4936416679	-0.0547309363	-0.064184
C	 2.8355603125	-2.2615096263	 1.2536791737	-0.379977
C	 1.6278919937	-1.5189253437	 0.7479761061	 0.340814
C	 0.8615870727	-0.5164142429	 1.1657974316	-0.237113
H	 0.841746311	 2.0666715998	 0.0664727775	 0.11378
H	-0.6881018169	 1.9287673296	-0.8159529707	 0.110875
H	-0.682078011	 1.8939478093	 0.9520576603	 0.110024
H	-0.9826903991	-0.3975381417	 0.0414594268	 0.073841
H	 0.1471216087	-0.6011607287	-2.1024507754	 0.086873
H	 1.575399677	 0.2482854784	-1.4874320753	 0.096728
H	 0.7413812791	-2.6215050761	-0.9114709054	 0.07924
H	 3.1606793131	-2.3485074202	-2.1585726482	 0.090775
H	 4.6002106837	-2.8703040779	-0.0767643088	 0.091307
H	 2.5841736904	-3.2217887873	 1.7304083652	 0.113621
H	 3.4125920069	-1.692085148	 1.9912885332	 0.113744
H	 0.8417137021	-0.0953163306	 2.1658752406	 0.082937
97.8857	175.678	229.7602	258.8362	293.5641	386.3492	446.7822	456.3201	552.9833	610.7904	678.4625	732.5789	785.1938	827.7404	832.9784	862.3707	924.7464	936.2272	941.2927	963.0966	973.2569	984.4992	1047.55	1074.7536	1093.4127	1123.3871	1140.2147	1148.7908	1172.6053	1199.5699	1248.3772	1256.26	1283.34	1307.4923	1313.0256	1335.7739	1362.6087	1372.9906	1408.0312	1471.3758	1487.8074	1496.8115	1498.6268	1658.8155	1738.8093	2942.5144	2966.604	2986.5083	3024.3809	3031.9923	3054.3088	3085.4954	3094.0597	3095.2059	3178.8575	3180.6974	3203.8076
CC1CC2C=CCC2=C1	C[C@H]1C[C@H]2C=CCC2=C1	
InChI=1S/C9H12/c1-7-5-8-3-2-4-9(8)6-7/h2-3,6-8H,4-5H2,1H3	InChI=1S/C9H12/c1-7-5-8-3-2-4-9(8)6-7/h2-3,6-8H,4-5H2,1H3/t7-,8+/m0/s1
