20
gdb 94012	4.03184	1.0006	0.85266	3.8943	85.84	-0.2153	-0.0026	0.2127	1377.9426	0.172747	-403.200147	-403.191635	-403.190691	-403.233316	32.524	
C	-0.0976214328	 1.5717570121	 0.0028197295	-0.398925
C	-0.014652449	 0.0385032403	 0.0017411382	-0.023302
C	 0.6750805852	-0.4901888586	-1.2692214467	-0.214731
C	 1.0047688715	-1.9785279256	-1.1395524917	-0.185522
N	 1.8648535008	-2.2080454042	 0.0185929299	-0.070033
C	 2.8586051405	-3.1544986972	 0.0000548988	 0.146538
O	 3.5780403161	-3.4316562029	 0.934238249	-0.328382
C	 1.5922167748	-1.4814495561	 1.1844607225	 0.015885
C	 0.7126662528	-0.4770373405	 1.2209379161	-0.135169
H	 0.9032315701	 2.0167202038	-0.0062888218	 0.121227
H	-0.6413568111	 1.9369936617	-0.8747089505	 0.112303
H	-0.6171370341	 1.9353798645	 0.8951925992	 0.116355
H	-1.0472017708	-0.3446214125	 0.0166141131	 0.084063
H	 0.0401674234	-0.3327931903	-2.147165322	 0.102652
H	 1.604866475	 0.0675098633	-1.4349167182	 0.111483
H	 0.0752661771	-2.5541626329	-1.0265490681	 0.116757
H	 1.5183288858	-2.3503114894	-2.0308290888	 0.117045
H	 2.9316337539	-3.646918546	-0.9888522165	 0.075494
H	 2.1581584277	-1.8229332358	 2.041359183	 0.143197
H	 0.5349114231	 0.0177506861	 2.170409135	 0.093067
67.002	156.679	222.9267	240.8314	273.7695	291.7531	333.3716	360.6504	404.2501	520.3755	578.4957	629.0994	749.375	763.7735	809.6861	855.5009	924.6832	969.0843	980.6218	983.5782	1019.0493	1021.7048	1077.1188	1119.8224	1143.1782	1172.5961	1234.3753	1246.6796	1311.9782	1331.1059	1338.3642	1364.8879	1374.6331	1389.3507	1411.4763	1438.1503	1449.2026	1485.2008	1497.0136	1500.2199	1502.7417	1715.7919	1795.2034	2944.908	2972.4703	3005.5952	3029.772	3035.9784	3083.3975	3087.1972	3101.7707	3102.6879	3177.839	3230.3336
CC1CCN(C=O)C=C1	C[C@H]1CCN(C=O)C=C1	
InChI=1S/C7H11NO/c1-7-2-4-8(6-9)5-3-7/h2,4,6-7H,3,5H2,1H3	InChI=1S/C7H11NO/c1-7-2-4-8(6-9)5-3-7/h2,4,6-7H,3,5H2,1H3/t7-/m1/s1
