17
gdb 8861	3.64723	1.43775	1.12988	3.2969	73.09	-0.237	-0.039	0.1981	1066.9967	0.141739	-360.0575	-360.04834	-360.047396	-360.091647	31.759	
C	-0.0391819051	 1.598489128	-0.0521341489	-0.382421
C	 0.0419410405	 0.0688564359	-0.0269714946	-0.150805
N	 0.6914880711	-0.4987196119	-1.2078064086	-0.079015
C	 2.1381617166	-0.6078308973	-1.1912203616	-0.359054
C	-0.0691406423	-0.7110000383	-2.3199968795	 0.313472
N	-1.3258259743	-0.4408997828	-2.3622864023	-0.54155
C	 0.6145237257	-1.2890785146	-3.4695351393	 0.224288
N	 1.079684834	-1.7437990036	-4.4261935398	-0.340852
H	 0.9539309327	 2.0529616069	-0.1265677807	 0.116315
H	-0.6423979572	 1.9302575037	-0.9001288399	 0.149144
H	-0.5072648501	 1.9630312387	 0.8674171019	 0.121658
H	 0.6078682214	-0.2726778401	 0.8464612423	 0.10377
H	-0.9635227247	-0.3537090613	 0.029707288	 0.147181
H	 2.4963271656	-1.0782744608	-2.1072600247	 0.169574
H	 2.6160305836	 0.3766620204	-1.1031732137	 0.133868
H	 2.4588385598	-1.2203996311	-0.3409099749	 0.135576
H	-1.7279619474	-0.7178989217	-3.2533517435	 0.238851
71.7727	90.1093	101.8379	175.5274	183.3746	234.325	314.1472	347.2251	409.6956	428.3731	526.0433	599.3776	718.6902	730.7518	787.017	795.4372	900.463	1006.7093	1087.6537	1105.715	1126.8566	1158.8074	1238.4396	1268.6897	1362.9411	1394.6118	1411.1128	1450.2117	1470.6683	1481.3917	1484.3828	1497.2595	1506.3347	1526.3725	1664.2918	2342.0815	3014.759	3043.8877	3047.6532	3067.1617	3103.1134	3118.4963	3136.776	3147.0878	3538.481
CCN(C)C(=N)C#N	CCN(C)C(=N)C#N	
InChI=1S/C5H9N3/c1-3-8(2)5(7)4-6/h7H,3H2,1-2H3	InChI=1S/C5H9N3/c1-3-8(2)5(7)4-6/h7H,3H2,1-2H3
