20
gdb 78850	3.17332	1.65313	1.40666	1.3799	81.22	-0.2182	0.0804	0.2986	1014.329	0.17166	-365.968968	-365.961334	-365.960389	-366.000526	31.172	
C	 0.0397012781	 1.5374595238	 0.0344624447	-0.392448
C	 0.0074912713	 0.0149111327	-0.0327781363	 0.038163
C	 0.7964957189	-0.5928453096	-1.1821233359	-0.081687
C	 2.2285259648	-0.7903366616	-0.7329470761	-0.089125
C	 1.2718328065	-1.9649404097	-0.7762961291	-0.154927
C	 1.1816399912	-1.9317052658	 0.7850497934	 0.34417
C	 0.9615317579	-3.1013667707	 1.689683164	-0.515776
C	 2.1192048469	-0.7722611911	 0.8152324834	-0.132752
N	 0.684443093	-0.5893157865	 1.1299167744	-0.161725
H	 1.0720337949	 1.9017382348	 0.0474552866	 0.118244
H	-0.4645617922	 1.9756924443	-0.8328057564	 0.109258
H	-0.4599992395	 1.8938835307	 0.939387449	 0.123007
H	-1.0307229873	-0.3391783639	-0.0386731791	 0.076255
H	 0.5788133714	-0.3767273681	-2.2214362824	 0.086163
H	 3.1060781766	-0.5912288061	-1.3304948881	 0.087698
H	 1.2796836998	-2.8412059434	-1.4092363939	 0.087284
H	 1.7008141917	-3.888002326	 1.5035594961	 0.118878
H	 1.0394057414	-2.792550914	 2.7354604826	 0.132264
H	-0.0343346488	-3.5350339665	 1.5373118018	 0.120018
H	 2.8708613831	-0.4621449532	 1.5304246812	 0.08704
159.6617	198.5043	219.5841	236.1045	253.8677	336.3502	514.6682	586.3245	614.4496	716.382	730.2917	747.9459	775.1907	818.6289	829.2564	868.5914	897.0109	910.4248	935.9298	962.9856	984.3769	1005.1649	1022.6982	1032.2247	1064.5914	1086.1143	1109.429	1132.7373	1140.6866	1169.6775	1217.1087	1249.5506	1257.7553	1295.5098	1341.8579	1371.7763	1403.1476	1405.3223	1448.7994	1484.3336	1490.3721	1492.6061	1496.6965	3025.6461	3034.6793	3037.7274	3084.9797	3106.7671	3116.8012	3117.3639	3187.4121	3188.3012	3210.5797	3225.1586
CC1C2C3C2C2(C)C3N12	C[C@H]1[C@H]2[C@@H]3[C@H]2[C@@]2(C)[C@@H]3N12	
InChI=1S/C8H11N/c1-3-4-5-6(4)8(2)7(5)9(3)8/h3-7H,1-2H3	InChI=1S/C8H11N/c1-3-4-5-6(4)8(2)7(5)9(3)8/h3-7H,1-2H3/t3-,4-,5+,6-,7+,8-,9?/m0/s1
