17
gdb 84739	2.36112	1.82475	1.0424	3.569	78.98	-0.2088	-0.0636	0.1452	1109.6059	0.136918	-418.045781	-418.037366	-418.036422	-418.079475	30.822	
C	-0.35455765	 1.4130515913	 0.0132938983	-0.33041
N	-0.0182765742	-0.0038093753	-0.0234908382	-0.1191
C	 0.0071674591	-0.6993983187	-1.2302513955	 0.028232
C	 0.3035733416	-1.9946612022	-1.3562100696	-0.158628
C	 0.6464947583	-2.8439683355	-0.1731903131	-0.38146
C	 0.6247727211	-2.1039666568	 1.1527686487	 0.328599
O	 0.8800526288	-2.654187916	 2.198134652	-0.308626
C	 0.2702384907	-0.6154327672	 1.1805414103	 0.275182
N	 0.2397971925	 0.0455578897	 2.2741853079	-0.519363
H	 0.4691464581	 1.9906023218	 0.443202286	 0.149884
H	-0.5560845086	 1.757935228	-1.0015774304	 0.124515
H	-1.2338307525	 1.5813833729	 0.6421623728	 0.149833
H	-0.2405009005	-0.0885803775	-2.0899463054	 0.116612
H	 0.2962193998	-2.4450650766	-2.3405808086	 0.100211
H	-0.0360336048	-3.7001551349	-0.0709817107	 0.152101
H	 1.6439790997	-3.2970307018	-0.2684980942	 0.152094
H	 0.4833844308	-0.5977290213	 3.0305875096	 0.240322
59.1379	85.0707	119.0547	190.4403	336.5704	378.4347	408.2923	464.0337	487.8624	499.0236	561.91	661.4561	667.1897	727.186	844.441	882.9037	946.6692	956.6841	964.8753	986.166	1091.2606	1153.7649	1155.4959	1188.8085	1198.7279	1231.4137	1327.0275	1359.8518	1426.7441	1428.6039	1435.1889	1466.8224	1479.9124	1515.7069	1674.007	1731.9676	1805.1886	3006.6994	3026.282	3044.1693	3102.1645	3145.0318	3197.7046	3216.9032	3463.3363
CN1C=CCC(=O)C1=N	CN1C=CCC(=O)[C]1[NH]	
InChI=1S/C6H8N2O/c1-8-4-2-3-5(9)6(8)7/h2,4,7H,3H2,1H3	InChI=1S/C6H8N2O/c1-8-4-2-3-5(9)6(8)7/h2,4,7H,3H2,1H3
