17
gdb 79505	2.32653	1.80704	1.23484	2.33	73.22	-0.2456	-0.0343	0.2114	1020.3192	0.135247	-421.751654	-421.743894	-421.74295	-421.784171	29.561	
O	 0.352258008	 1.4231547394	-0.1479899064	-0.442301
C	 0.111085373	 0.0457572602	-0.066652761	 0.090349
C	 0.0524721401	-0.6637129558	 1.2982621129	-0.102827
C	-1.4435341087	-0.237033841	 1.5613713379	-0.103868
C	-1.8782085554	-1.6887232938	 1.8427139558	-0.267365
C	-0.836620865	-1.8134062382	 0.7154412531	-0.079673
C	-1.3450946961	-0.4818569977	 0.0114534009	 0.217003
C	-2.451834178	-0.4133456072	-0.9766306136	 0.020066
O	-3.6101575833	-0.2263005128	-0.6883648225	-0.25297
H	-0.1639488747	 1.8677152016	 0.5336645638	 0.286469
H	 0.7488099907	-0.4221022129	-0.8232440305	 0.091125
H	 0.8293303951	-0.7782738356	 2.0553582097	 0.080694
H	-1.794353046	 0.6773668733	 2.0411059591	 0.08133
H	-1.5897654181	-2.1066314678	 2.8119567178	 0.098845
H	-2.9109410131	-1.9453132547	 1.5963327399	 0.120743
H	-0.4757188358	-2.6963205358	 0.1864741366	 0.085672
H	-2.140370313	-0.562094971	-2.0361914536	 0.076708
68.8599	167.4275	202.5485	215.7003	290.4103	330.0336	443.9291	537.9732	545.7085	685.1408	731.588	779.1107	845.3356	865.7317	889.9896	917.5789	945.2183	976.9404	1012.3419	1041.7513	1059.6397	1088.6661	1104.5608	1120.0177	1152.255	1162.06	1168.002	1216.4295	1237.2497	1262.4065	1273.8436	1284.7731	1326.8297	1422.6332	1445.5326	1509.5907	1802.1816	2866.9778	3052.2047	3070.033	3102.7957	3106.9638	3115.843	3119.2416	3802.5771
OC1C2C3CC2C13C=O	O[C@H]1[C@H]2[C@@H]3C[C@H]2[C@]13C=O	
InChI=1S/C7H8O2/c8-2-7-3-1-4(7)5(3)6(7)9/h2-6,9H,1H2	InChI=1S/C7H8O2/c8-2-7-3-1-4(7)5(3)6(7)9/h2-6,9H,1H2/t3-,4+,5-,6-,7+/m0/s1
