21
gdb 95382	2.68	1.57418	1.25965	3.0221	76.83	-0.2363	0.0617	0.298	1072.5068	0.185829	-424.241495	-424.233561	-424.232617	-424.274146	31.367	
O	-0.3591180333	 1.4995907982	 0.8225788222	-0.43288
C	-0.0551445485	 0.2478430217	 0.2087806287	 0.100028
C	 0.7528955719	-0.6491149556	 1.1589533885	-0.228548
C	-0.2860006082	-1.0995653408	 2.2078255404	-0.230649
C	-1.6088165846	-1.2301892931	 1.4158347538	 0.007079
C	-2.8293984789	-0.4628030511	 1.9514295313	-0.096552
O	-3.5884297902	-0.1206977725	 0.8041738142	-0.252764
C	-2.6641905801	 0.271446863	-0.2112858156	-0.104201
C	-1.3709088005	-0.5370243021	 0.0362737127	-0.033411
H	 0.472406314	 1.9303963138	 1.0434951876	 0.283024
H	 0.4568689552	 0.4117227507	-0.7504425435	 0.058355
H	 1.1356033378	-1.5124266051	 0.6005286977	 0.098646
H	 1.619471169	-0.1331970884	 1.5889496602	 0.083398
H	 0.0036000253	-2.0284563575	 2.705414394	 0.095513
H	-0.3850065837	-0.3334507857	 2.9834376373	 0.104049
H	-1.8812126496	-2.2786540594	 1.2693486435	 0.071935
H	-3.4738460729	-1.0499066576	 2.6120808556	 0.099585
H	-2.4997023654	 0.4399557911	 2.4910665109	 0.092955
H	-3.1301062277	 0.0502916847	-1.1755945957	 0.095838
H	-2.4617936484	 1.3472526962	-0.153669652	 0.113949
H	-1.2174555912	-1.2811793203	-0.749571412	 0.074651
56.0056	165.6662	215.2246	274.6599	292.3614	362.1633	390.1424	466.8595	583.4475	599.8421	670.2232	740.5168	798.8738	850.5386	881.9339	912.9441	946.6344	954.7548	987.5962	1009.3678	1033.8667	1042.4233	1058.4469	1081.7145	1115.6186	1124.2166	1194.0558	1198.7948	1205.502	1240.1898	1259.6183	1291.2819	1302.9891	1307.9664	1329.1818	1331.7983	1342.0291	1363.3095	1382.8752	1399.5158	1420.764	1480.5938	1496.5541	1507.2933	1523.0648	2972.5813	2992.48	3028.2916	3036.9443	3051.3787	3056.0997	3068.7749	3069.6202	3084.9933	3091.4101	3102.9079	3820.6705
OC1CCC2COCC12	O[C@H]1CC[C@H]2COC[C@@H]12	
InChI=1S/C7H12O2/c8-7-2-1-5-3-9-4-6(5)7/h5-8H,1-4H2	InChI=1S/C7H12O2/c8-7-2-1-5-3-9-4-6(5)7/h5-8H,1-4H2/t5-,6+,7-/m0/s1
