22
gdb 6056	2.83479	1.5375	1.31594	1.5739	74.18	-0.2497	0.0693	0.319	1078.58	0.196326	-387.337166	-387.326579	-387.325635	-387.371861	38.854	
C	 0.1319055093	 1.3565268851	 0.0033112418	-0.242577
O	-0.0584460675	-0.0365936588	 0.0940949263	-0.281106
C	-1.4029699329	-0.5328598439	 0.0472137849	 0.364876
C	-2.2120363244	-0.0727089654	 1.2694563533	-0.44144
C	-2.1092076894	-0.1269121886	-1.2538855073	-0.435504
C	-1.2009258294	-2.0781159324	 0.041029204	 0.122139
C	-0.3888687043	-2.6089281774	 1.2196696594	-0.426441
O	-2.4490737142	-2.756631964	-0.0794445386	-0.436639
H	 1.2095877489	 1.5263385116	 0.0755611033	 0.125165
H	-0.2184820624	 1.7705961591	-0.9521149241	 0.10791
H	-0.3572637001	 1.9071154965	 0.8194103548	 0.10393
H	-2.4423886115	 0.9949754717	 1.2179129964	 0.116868
H	-3.168233184	-0.6032395667	 1.3078471076	 0.112468
H	-1.6672074069	-0.2576589961	 2.1991217609	 0.120084
H	-1.4618994941	-0.3292998956	-2.1131990981	 0.116161
H	-3.0238694871	-0.7122706268	-1.3674944856	 0.137344
H	-2.3769958711	 0.9335765685	-1.2639528937	 0.105521
H	-0.6603620863	-2.3062947793	-0.8850154568	 0.089507
H	-0.9229691973	-2.4688925059	 2.1676771257	 0.102485
H	-0.2080689441	-3.6797852017	 1.0908811799	 0.118063
H	 0.5676854438	-2.0893851903	 1.2925472897	 0.14115
H	-2.812360575	-2.8637423495	 0.8053956962	 0.280032
76.3429	82.9604	172.0405	200.3182	232.6631	244.4383	255.4399	275.9427	290.0458	330.8524	344.6742	379.074	411.7448	459.0322	498.5135	577.7406	718.0859	827.2495	910.1296	915.3227	958.0394	993.6999	1045.6358	1084.2428	1097.5941	1128.0889	1180.1392	1192.3572	1199.9394	1222.7712	1285.3904	1299.1957	1368.176	1389.3939	1394.4994	1408.5132	1413.3355	1475.219	1479.7541	1483.5977	1494.7792	1498.02	1502.4257	1506.4598	1513.2132	1517.4651	2992.0928	3030.5705	3037.5095	3043.0369	3046.55	3047.3851	3101.2958	3104.667	3107.9978	3112.0421	3122.6788	3136.3196	3146.0627	3814.2941
COC(C)(C)C(C)O	COC(C)(C)[C@@H](C)O	
InChI=1S/C6H14O2/c1-5(7)6(2,3)8-4/h5,7H,1-4H3	InChI=1S/C6H14O2/c1-5(7)6(2,3)8-4/h5,7H,1-4H3/t5-/m1/s1
