18
gdb 23350	5.10491	0.81499	0.7846	2.1284	76.52	-0.2412	0.0093	0.2504	1458.5151	0.146254	-439.005718	-438.997034	-438.996089	-439.03977	32.134	
O	-0.1461217874	 1.1673733998	 0.4010942838	-0.396105
N	-0.0060953222	-0.1956711364	 0.0701058878	-0.234591
C	-1.1370031554	-0.7332848235	-0.1118770169	 0.419882
C	-2.5748599808	-0.2610228459	-0.1472600173	-0.333256
C	-2.9175984525	-1.6030021567	-0.8838408216	-0.022565
C	-1.4866338053	-2.1397701426	-0.5440864031	-0.337504
C	-4.1046466506	-2.3716061241	-0.3711764814	 0.07144
C	-4.1199737329	-3.8333621857	-0.2414964804	-0.183172
O	-3.9704736192	-2.9961465952	 0.9090233907	-0.230732
H	 0.7708412495	 1.4463394583	 0.494595665	 0.305718
H	-3.0213104733	-0.2016032671	 0.8511496577	 0.136922
H	-2.7643372149	 0.6761295423	-0.6751109567	 0.126593
H	-3.0378801015	-1.4351708468	-1.958469581	 0.087194
H	-0.8990657571	-2.5732578183	-1.3560475898	 0.118614
H	-1.5120572079	-2.8349910482	 0.3013925425	 0.139666
H	-5.0654994754	-1.871910691	-0.5128065695	 0.095066
H	-5.0627596594	-4.3742516515	-0.305875308	 0.119115
H	-3.2359155237	-4.4071095672	-0.5161257819	 0.117716
50.9768	91.273	150.3175	202.641	246.391	290.8378	359.2726	436.5626	458.7786	521.6481	572.5888	660.5394	755.914	789.8708	834.3863	893.4196	930.9185	934.935	970.435	1002.6846	1044.6028	1055.3137	1098.671	1113.4266	1163.3336	1171.3469	1183.7679	1191.3779	1218.0533	1252.7932	1258.4747	1293.8141	1364.7493	1404.1666	1430.2567	1446.4191	1466.729	1529.2825	1789.4942	3052.4298	3056.1915	3062.4524	3084.5181	3089.3613	3114.5164	3116.1639	3172.5895	3819.444
ON=C1CC(C1)C1CO1	ON=C1C[C@@H](C1)[C@H]1CO1	
InChI=1S/C6H9NO2/c8-7-5-1-4(2-5)6-3-9-6/h4,6,8H,1-3H2	InChI=1S/C6H9NO2/c8-7-5-1-4(2-5)6-3-9-6/h4,6,8H,1-3H2/t4-,6-/m1/s1
