15
gdb 42277	3.34311	1.20521	1.07196	4.5654	70.48	-0.2391	-0.082	0.1571	1122.3578	0.112217	-416.765686	-416.757675	-416.756731	-416.799429	29.02	
O	 0.2640508032	-0.0797394131	 0.2711113958	-0.260932
C	 0.021996884	 1.0744355954	 0.0388416911	 0.317223
C	 1.1174083905	 2.0257658181	-0.2840384885	 0.215175
N	 1.9532233818	 2.7790084282	-0.5513185571	-0.300001
C	-1.3372397325	 1.7386024606	 0.0826367251	-0.115859
N	-2.4841533202	 0.8582676307	 0.4280004019	-0.318869
C	-2.8500905785	 1.785637318	 1.524260152	 0.000928
C	-1.7690653618	 1.7448003785	 2.5510658525	-0.267479
C	-1.592084914	 2.6207093073	 1.3275448256	-0.105491
H	-1.4799575658	 2.3180118341	-0.8373680665	 0.112979
H	-3.1705348865	 0.8549802245	-0.3179081277	 0.232961
H	-3.8739748933	 2.0840932568	 1.7102927193	 0.108259
H	-1.9571030394	 2.3040974972	 3.4615674779	 0.124816
H	-1.1923412586	 0.8328310676	 2.675016168	 0.140322
H	-1.4163763089	 3.6861341261	 1.3781610507	 0.115966
32.7388	111.4031	124.9368	231.9122	277.7221	363.464	443.0504	479.7601	569.3502	666.0287	732.2865	756.0499	789.3611	812.0505	898.8745	933.7094	967.0507	991.6498	1003.1778	1043.9966	1045.4369	1091.1268	1094.1234	1116.9015	1172.3555	1212.1365	1268.6623	1295.3504	1384.8408	1400.163	1476.9539	1807.2856	2334.1402	3038.3292	3123.8607	3194.0104	3208.4634	3220.3185	3544.3265
O=C(C#N)C1NC2CC12	O=C(C#N)[C@H]1N[C@H]2C[C@@H]12	
InChI=1S/C6H6N2O/c7-2-5(9)6-3-1-4(3)8-6/h3-4,6,8H,1H2	InChI=1S/C6H6N2O/c7-2-5(9)6-3-1-4(3)8-6/h3-4,6,8H,1H2/t3-,4+,6+/m1/s1
