16
gdb 34642	3.20127	1.36598	1.02311	3.5387	77.25	-0.2589	-0.0478	0.2111	1118.9326	0.125754	-400.749931	-400.742465	-400.741521	-400.782037	28.469	
N	 0.0350805391	-1.1622895921	-0.0950536347	-0.333429
C	-0.0135605259	-0.0069083822	-0.0290359036	 0.214327
C	-0.0354116688	 1.4200565216	 0.0429881374	 0.169678
C	-1.1856513819	 2.1075519573	 0.0127366369	-0.154781
C	-1.1767922026	 3.6078931174	 0.1195626806	-0.125515
O	-0.0681125328	 4.1082266011	 0.8497540721	-0.254183
C	 1.1787525799	 3.6052232341	 0.4606031714	 0.090992
C	 1.8394602085	 2.6507542587	 1.4161426261	-0.300161
C	 1.2642818038	 2.1483550703	 0.1008411623	-0.160843
H	-2.1410196656	 1.6028857935	-0.0828733391	 0.125722
H	-1.220115359	 4.0500414516	-0.8913679311	 0.118819
H	-2.0652484496	 3.9541208637	 0.656535484	 0.132496
H	 1.7895287308	 4.3192683365	-0.0877503754	 0.09996
H	 2.9183736575	 2.6720485726	 1.5196456848	 0.124081
H	 1.2864474852	 2.4270631402	 2.3209000193	 0.134384
H	 1.9817414614	 1.8581979856	-0.6602554311	 0.118455
104.0611	147.8069	196.4253	234.5596	379.6111	406.9185	453.8952	534.1511	580.5327	638.546	682.5524	770.977	812.2423	829.1407	860.5257	952.2276	983.3888	1008.9546	1045.2389	1057.635	1076.0849	1099.8021	1124.261	1166.5734	1186.3578	1232.5336	1266.3173	1308.5451	1363.9963	1398.7949	1417.6078	1473.2855	1485.2921	1687.2764	2337.7236	2955.6454	3079.53	3124.3303	3142.7843	3160.2423	3194.8447	3238.5229
N#CC1=CCOC2CC12	N#CC1=CCO[C@H]2C[C@@H]12	
InChI=1S/C7H7NO/c8-4-5-1-2-9-7-3-6(5)7/h1,6-7H,2-3H2	InChI=1S/C7H7NO/c8-4-5-1-2-9-7-3-6(5)7/h1,6-7H,2-3H2/t6-,7-/m0/s1
