18
gdb 115251	3.41197	0.99103	0.80076	4.8048	80.76	-0.2453	-0.0474	0.1979	1418.5836	0.148882	-398.158385	-398.149552	-398.148608	-398.192387	32.061	
C	 0.0270550517	 1.5857710192	-0.0936426302	-0.384296
C	 0.0321152895	 0.0560634372	-0.0696921546	-0.180948
C	-1.3602816664	-0.5473374893	 0.1216076362	 0.046841
C	-1.3982349397	-2.1026289945	 0.0644833617	-0.211057
N	-2.3922547394	-2.4085807984	 1.1040826433	-0.354943
C	-2.4610928689	-1.2668701952	 1.8909652936	 0.281285
N	-1.944568457	-0.190491223	 1.4339369637	-0.299809
C	-3.1453459307	-1.3352610998	 3.1553484191	 0.260562
N	-3.687701886	-1.4333476483	 4.1709393247	-0.316653
H	 1.0413172075	 1.9795394248	-0.2071609027	 0.112406
H	-0.573792619	 1.9653506383	-0.9275425511	 0.113602
H	-0.3966785898	 1.9832031227	 0.8319199982	 0.146498
H	 0.4501775552	-0.3354021495	-1.0064374796	 0.097555
H	 0.6800385253	-0.3065690504	 0.7381285342	 0.101821
H	-2.0318646234	-0.1339958535	-0.6451571573	 0.097401
H	-1.7121188677	-2.4867866579	-0.9085275612	 0.123664
H	-0.4169797644	-2.5333853039	 0.3108322717	 0.109323
H	-2.3594641967	-3.3049689185	 1.5686021404	 0.256747
81.0302	102.2565	141.4639	161.9738	211.2506	244.6686	369.9243	393.1313	488.3293	524.5257	561.0858	589.7626	687.7448	724.9767	795.5553	861.42	955.2003	963.6313	983.3354	1019.146	1049.4536	1091.0922	1126.4989	1157.7305	1212.2057	1249.7001	1283.9883	1289.9039	1338.5282	1345.0561	1388.6199	1410.4412	1457.5719	1482.21	1496.0744	1508.717	1521.298	1672.3658	2365.6673	2994.4366	3002.0307	3020.7809	3038.4945	3057.9392	3096.9503	3103.5725	3127.7649	3602.0499
CCC1CNC(=N1)C#N	CC[C@H]1CN[C]([N]1)C#N	
InChI=1S/C6H9N3/c1-2-5-4-8-6(3-7)9-5/h5H,2,4H2,1H3,(H,8,9)	InChI=1S/C6H9N3/c1-2-5-4-8-6(3-7)9-5/h5H,2,4H2,1H3,(H,8,9)/t5-/m0/s1
