16
gdb 73940	3.13839	1.30574	0.93278	2.7269	86.32	-0.2381	-0.0533	0.1848	1200.9449	0.123443	-400.755872	-400.747241	-400.746297	-400.789207	31.735	
C	 0.0652901366	 1.537909382	 0.0260941807	-0.505824
C	 0.000374443	 0.0514914687	 0.019965171	 0.114815
C	-1.0712779114	-0.7642868252	-0.0317071067	 0.063702
C	-0.5931807426	-2.1986249377	-0.0124657471	-0.192772
O	 0.8288933813	-2.1092120873	 0.0540015296	-0.249406
C	 1.2072322163	-0.7894511861	 0.07444362	 0.375659
N	 2.4009139123	-0.36982167	 0.1309945694	-0.551718
C	-2.4373039764	-0.4243820115	-0.0946494247	 0.200195
C	-3.6143937187	-0.1705688017	-0.1489790837	-0.387566
H	 0.6574101577	 1.8956887739	-0.8227858575	 0.151716
H	-0.9324677258	 1.9787886735	-0.0189801273	 0.13282
H	 0.5767524769	 1.8919841487	 0.9273371835	 0.15173
H	-0.9652014763	-2.7522979842	 0.8584551064	 0.135729
H	-0.8824748853	-2.7485366146	-0.9165466773	 0.135729
H	 3.059340247	-1.1493527941	 0.1600352744	 0.224854
H	-4.6492860246	 0.0636477855	-0.1967242004	 0.200338
105.0597	114.2365	132.6812	194.8794	245.4435	264.8933	368.3224	430.1967	501.304	576.5233	586.2981	610.6974	641.2283	654.464	727.4382	758.5267	868.6581	902.4582	1006.5042	1026.2861	1061.955	1078.5886	1102.3211	1170.8932	1197.5984	1228.2813	1362.3334	1391.8035	1417.4613	1471.7037	1476.7167	1504.9943	1689.2513	1750.5228	2221.9911	3023.9247	3041.8157	3058.7247	3096.1669	3135.8678	3485.9279	3500.3809
CC1=C(COC1=N)C#C	CC1=C(OC[C]1C#C)[NH]	
InChI=1S/C7H7NO/c1-3-6-4-9-7(8)5(6)2/h1,8H,4H2,2H3	InChI=1S/C7H7NO/c1-3-6-4-9-7(8)5(6)2/h1,8H,4H2,2H3
