13
gdb 35984	9.44461	0.45643	0.43655	0.8819	111.97	-0.2374	-0.0521	0.1853	2322.8724	0.085744	-345.043354	-345.033981	-345.033037	-345.078232	33.135	
C	-0.126139293	-1.2296427158	-0.0034064077	-0.431753
C	-0.0572386454	-0.0316395017	 0.0023777093	 0.31446
C	 0.0152512947	 1.4305755469	 0.0096171102	-0.532421
C	 1.3823059642	 1.9440072666	-0.0006891348	 0.238622
C	 2.5131063955	 2.3787191923	-0.00915847	-0.394604
C	 3.7745719908	 2.8641436282	-0.0185937967	 0.577528
C	 4.9107695378	 3.3033761556	-0.0270809304	 0.001655
C	 6.1729492357	 3.7906173565	-0.0365147171	 0.176665
C	 7.3012365338	 4.2266026202	-0.0449438512	-0.696975
H	-0.1825810144	-2.2901524229	-0.0085142174	 0.207148
H	-0.5282890787	 1.8296520832	-0.8586908362	 0.172636
H	-0.5115208043	 1.820153692	 0.8924520072	 0.172638
H	 8.2919613833	 4.6086116088	-0.0523523652	 0.194402
48.0524	74.7966	116.2088	195.945	229.5928	315.0975	339.189	343.8206	437.2185	481.7397	484.4885	556.3673	556.3964	626.2067	631.388	648.1262	655.5491	662.899	911.4276	928.2955	986.4735	1226.6869	1294.9111	1348.3956	1444.797	2156.1769	2250.0845	2299.5253	2347.0225	3003.9455	3028.9022	3502.687	3504.9358
C#CCC#CC#CC#C	C#CCC#CC#CC#C	
InChI=1S/C9H4/c1-3-5-7-9-8-6-4-2/h1-2H,5H2	InChI=1S/C9H4/c1-3-5-7-9-8-6-4-2/h1-2H,5H2
