22
gdb 112924	3.54057	1.01064	0.82924	2.1581	84.36	-0.2441	0.0267	0.2708	1459.1892	0.19478	-404.381537	-404.372207	-404.371263	-404.415669	35.121	
C	-0.0407745097	 1.584300258	-0.0174949363	-0.38338
C	-0.0181154965	 0.0551465891	 0.0126713621	-0.171048
C	 0.7614004069	-0.5169254114	 1.2056100536	 0.049308
C	 0.6391880571	-2.043270203	 1.3021135381	-0.236782
C	 1.6141987311	-2.5775297704	 2.3467435527	 0.135355
C	 1.6758634126	-4.0930728663	 2.4312135074	-0.4029
O	 2.9538215085	-2.1218756989	 2.0498847203	-0.241864
C	 3.0635699142	-0.8904454086	 1.4979337532	 0.126644
N	 2.1614084752	-0.0917073884	 1.1176700908	-0.276195
H	 0.977783977	 1.9794720663	-0.0275968054	 0.140549
H	-0.5666618383	 1.9534837596	-0.9033598761	 0.104971
H	-0.5497954205	 1.9893015391	 0.8647693686	 0.105564
H	-1.0429383014	-0.3369036866	 0.0467950504	 0.085637
H	 0.4354487819	-0.3289857108	-0.9099200958	 0.096573
H	 0.3422048962	-0.0710269752	 2.121162084	 0.07948
H	-0.3816195214	-2.3418314168	 1.5638891508	 0.101381
H	 0.8732798613	-2.4943421185	 0.3290996601	 0.10509
H	 1.3499785703	-2.1639407889	 3.3306065676	 0.087178
H	 1.9367669716	-4.5221628757	 1.4590191586	 0.12635
H	 2.4286674007	-4.4067762194	 3.1594461614	 0.12849
H	 0.705605932	-4.4939745595	 2.7397565036	 0.119092
H	 4.1161520112	-0.6275653135	 1.4002714204	 0.120507
87.5421	101.0576	135.934	195.4295	234.1028	249.8954	292.1634	368.8097	375.8467	448.7697	491.1703	535.6884	588.675	765.9835	789.087	828.9082	879.4208	917.4658	930.4214	967.7492	972.4816	1012.5992	1038.1443	1075.0447	1121.0143	1131.8291	1165.6619	1171.7252	1185.9565	1240.5876	1278.7327	1292.3965	1343.8403	1360.5049	1378.5148	1384.1056	1395.7475	1407.2501	1410.5143	1417.0282	1474.0337	1482.2783	1486.4098	1495.5568	1498.5266	1511.2078	1730.4219	2977.5384	3002.1309	3017.3045	3028.6532	3034.2178	3043.093	3055.5319	3079.3884	3097.5142	3118.2341	3121.9475	3128.4709	3148.4684
CCC1CC(C)OC=N1	CC[C@H]1C[C@@H](C)OC=N1	
InChI=1S/C7H13NO/c1-3-7-4-6(2)9-5-8-7/h5-7H,3-4H2,1-2H3	InChI=1S/C7H13NO/c1-3-7-4-6(2)9-5-8-7/h5-7H,3-4H2,1-2H3/t6-,7+/m1/s1
