13
gdb 43596	3.41098	1.39227	1.12331	4.1956	63.96	-0.2724	-0.022	0.2504	1028.5873	0.088139	-456.531897	-456.524597	-456.523653	-456.563982	27.174	
O	-0.0114902718	 0.0331782554	 0.2604549931	-0.327797
C	 0.0156249556	 1.1986025519	 0.0040593635	 0.468406
O	-1.1091190488	 1.9230613884	-0.2767802396	-0.235644
C	-0.7942342329	 3.2431224264	-0.7869075023	-0.088059
C	-1.6090531275	 4.2558008156	-0.134666095	 0.32733
C	-2.2694692683	 5.1167553948	 0.3777354686	-0.420576
C	 0.7076188474	 3.407987099	-0.5606492196	 0.013616
O	 1.0636187191	 3.239503332	 0.8006209142	-0.225006
C	 1.2089069848	 2.1167868247	-0.0895798837	-0.130142
H	-1.0003039965	 3.2316699293	-1.8650000935	 0.133218
H	-2.8552565018	 5.8723743804	 0.8413497946	 0.213542
H	 1.2797132837	 4.1205841696	-1.1453599002	 0.132544
H	 2.2060736471	 1.7189705924	-0.2342212702	 0.138569
93.6996	127.1318	200.8941	277.037	358.3932	434.9745	508.6704	546.0741	636.0995	644.2036	690.6787	749.607	809.7764	833.2237	881.7525	896.8242	922.3479	1000.3222	1045.5716	1061.6963	1092.1493	1184.3156	1241.0163	1302.6401	1322.5367	1351.6192	1417.5221	1894.4987	2251.1552	3029.7268	3178.4386	3203.4586	3500.3201
O=C1OC(C#C)C2OC12	O=C1O[C@@H](C#C)[C@H]2O[C@@H]12	
InChI=1S/C6H4O3/c1-2-3-4-5(9-4)6(7)8-3/h1,3-5H	InChI=1S/C6H4O3/c1-2-3-4-5(9-4)6(7)8-3/h1,3-5H/t3-,4+,5+/m0/s1
