22
gdb 97434	4.1329	0.64431	0.63893	1.678	84.23	-0.2481	0.0251	0.2731	1886.8935	0.18949	-441.485619	-441.474069	-441.473125	-441.52342	40.574	
C	 0.0093699555	 1.4297145599	 0.0429200865	-0.3152
N	 0.0151096916	-0.0148299268	-0.0493118166	-0.208899
C	 0.531277511	-0.6523105728	 0.903416638	 0.14147
O	 0.5722114507	-1.9995749607	 0.886885714	-0.212401
C	 1.1804890766	-2.6240567682	 2.0157681537	-0.078221
C	 1.131942718	-4.143512941	 1.8162823672	 0.318672
C	-0.3178121496	-4.6358568618	 1.7391224715	-0.415348
C	 1.9301357184	-4.5546020406	 0.5736937426	-0.415426
O	 1.7651844835	-4.6301828195	 3.0039250133	-0.471623
H	 0.5403819315	 1.8556488208	-0.816166947	 0.127534
H	-1.0217972721	 1.7978559069	-0.0080291677	 0.127536
H	 0.4710715616	 1.8234679284	 0.9635996759	 0.09541
H	 0.9780378958	-0.1938645344	 1.8000911643	 0.074915
H	 2.2254361192	-2.3051735578	 2.1171122562	 0.112157
H	 0.6451140764	-2.3623374516	 2.9370461169	 0.112159
H	-0.8424858437	-4.1780974223	 0.8969179647	 0.142349
H	-0.3454133267	-5.7236715798	 1.6088445623	 0.103017
H	-0.8506541326	-4.3880263347	 2.661911283	 0.118634
H	 2.9757261249	-4.2502322187	 0.6784778627	 0.118644
H	 1.9010562688	-5.6423853193	 0.443463026	 0.103028
H	 1.51835748	-4.0922104347	-0.326731551	 0.14238
H	 1.7760111312	-5.5915801313	 2.9567095136	 0.279212
23.1613	62.5	107.4461	128.0203	206.8763	215.2804	227.9611	228.4721	253.3931	305.9506	321.3161	337.3779	376.6541	430.3028	457.2361	508.1281	637.9926	768.741	908.0305	936.8811	957.9304	982.2629	998.4349	1036.0227	1039.698	1086.9912	1141.5439	1142.9545	1160.9711	1199.6052	1216.1244	1260.7601	1297.3606	1365.1449	1392.8332	1398.9866	1406.7993	1429.1272	1450.3386	1478.5469	1481.1464	1485.4472	1493.2589	1505.0619	1510.6757	1518.8285	1780.8712	2965.1753	2989.1357	3016.1545	3031.0073	3037.082	3057.01	3063.922	3076.1501	3100.2088	3104.5892	3127.0441	3131.3629	3818.2506
CN=COCC(C)(C)O	CN=COCC(C)(C)O	
InChI=1S/C6H13NO2/c1-6(2,8)4-9-5-7-3/h5,8H,4H2,1-3H3	InChI=1S/C6H13NO2/c1-6(2,8)4-9-5-7-3/h5,8H,4H2,1-3H3
