17
gdb 63247	2.31931	1.78509	1.31408	3.7447	69.43	-0.2624	-0.0088	0.2536	1008.7911	0.135095	-459.003269	-458.994858	-458.993914	-459.036139	31.921	
C	 0.2060786863	 1.5096325444	-0.0010659147	-0.415696
C	-0.0205255578	-0.0213702495	-0.0174294055	 0.193537
O	-1.4038564666	-0.2996092755	 0.0020124682	-0.473119
C	 0.5998465875	-0.6466954399	-1.2391189485	-0.07568
C	 1.8652316424	-1.0444581259	-1.217885242	-0.108685
C	 2.6849031368	-0.9293205624	 0.0305822059	-0.117145
O	 1.91135791	-0.9285289407	 1.2460045407	-0.231901
C	 0.6081107865	-0.6169336232	 1.2512216798	 0.400355
O	-0.0522093415	-0.7822823082	 2.2468159814	-0.357452
H	 1.2689666786	 1.7696935094	-0.016140208	 0.117525
H	-0.2734819106	 1.9462578904	-0.8809444315	 0.132761
H	-0.2515910387	 1.9377362753	 0.8954353965	 0.134386
H	-1.6212801622	-0.4499609918	 0.9346955532	 0.294282
H	-0.0328634492	-0.7270623278	-2.1166789536	 0.118757
H	 2.3591736245	-1.4598616931	-2.0903874871	 0.112853
H	 3.3678278067	-1.7781781575	 0.1339667049	 0.140594
H	 3.3010749174	-0.0191726941	 0.0241768904	 0.134627
74.1767	141.2538	219.955	236.8591	260.1735	345.7944	363.112	434.9082	471.357	498.5615	518.2249	575.7464	678.2011	713.732	752.0379	843.8431	923.8854	944.4653	970.0025	993.6689	1028.7473	1060.3021	1095.3145	1152.1389	1181.3104	1189.6143	1249.0577	1254.5874	1383.5558	1399.075	1419.6221	1433.6662	1486.9959	1487.2923	1502.9246	1731.0883	1819.583	3010.3619	3038.9382	3078.387	3117.1182	3126.6341	3177.7887	3200.1571	3715.7053
CC1(O)C=CCOC1=O	C[C@@]1(O)C=CCOC1=O	
InChI=1S/C6H8O3/c1-6(8)3-2-4-9-5(6)7/h2-3,8H,4H2,1H3	InChI=1S/C6H8O3/c1-6(8)3-2-4-9-5(6)7/h2-3,8H,4H2,1H3/t6-/m1/s1
