15
gdb 29009	2.58041	1.60687	0.99635	2.4462	75.64	-0.2621	-0.0842	0.1779	1115.0254	0.113487	-416.876753	-416.868866	-416.867921	-416.909666	28.104	
C	-0.0309353125	 1.5151588995	-0.0514191541	-0.496597
C	-0.0086916254	 0.0100876726	 0.0130231856	 0.274609
N	-0.0269380934	-0.6342626686	-1.161302087	-0.298412
C	-0.0077444739	-1.9662833919	-1.1266193472	 0.08325
N	 0.0280088016	-2.7527405842	-0.0469862388	-0.257575
C	 0.0460101222	-2.1081602022	 1.1169869218	-0.010502
C	 0.0291512711	-0.7140139351	 1.2180217696	 0.069195
C	 0.0515096938	-0.0838428353	 2.5587604817	 0.086108
O	 0.0838325352	-0.7095319497	 3.5935027895	-0.259906
H	 0.8563058262	 1.9505141687	 0.4200308713	 0.146766
H	-0.0601717012	 1.8213394822	-1.0972738352	 0.153846
H	-0.9061153772	 1.9263728677	 0.462321482	 0.146738
H	-0.0230680659	-2.4705337602	-2.0902580177	 0.129938
H	 0.0752020349	-2.7039174309	 2.0253895929	 0.150016
H	 0.0368975746	 1.0251984474	 2.5693282353	 0.082526
97.088	110.6124	143.5094	214.0971	260.3526	339.5883	412.2912	482.5774	525.1048	564.3475	666.0121	769.1502	809.6492	880.9691	967.5176	991.93	1028.1952	1043.9926	1068.3129	1152.8769	1188.9913	1243.9815	1270.1811	1322.9069	1402.6908	1423.0133	1435.7529	1466.1904	1486.1912	1488.3609	1588.0356	1613.1792	1792.8783	2922.0221	3043.4152	3099.8921	3153.3387	3165.7205	3179.964
CC1=NC=NC=C1C=O	Cc1ncncc1C=O	
InChI=1S/C6H6N2O/c1-5-6(3-9)2-7-4-8-5/h2-4H,1H3	InChI=1S/C6H6N2O/c1-5-6(3-9)2-7-4-8-5/h2-4H,1H3
