27
gdb 115336	2.96561	1.00789	0.86173	0.123	95.29	-0.2879	0.0745	0.3625	1526.7447	0.25277	-353.58706	-353.576526	-353.575582	-353.622241	40.288	
C	 0.4850055222	 1.7181749789	-0.0439761846	-0.385418
C	 0.1884120543	 0.2154123365	-0.1066586572	-0.204227
C	 0.588501363	-0.5385723724	 1.1651494279	 0.06628
C	-0.2299875065	-0.166241677	 2.4304227278	-0.219653
C	-0.1859261618	-1.4192612826	 3.3468042885	-0.219558
C	 0.6853091024	-2.4584177069	 2.5990104865	 0.054714
C	 0.4050400994	-3.9086793763	 2.9895941361	-0.421016
C	 0.5094622243	-2.0863475005	 1.1045770974	-0.018048
C	-0.7901757022	-2.6181918822	 0.4832814099	-0.398312
H	 1.5513230164	 1.9033573027	 0.1291524221	 0.111184
H	 0.2088286365	 2.2162287758	-0.9787753053	 0.108535
H	-0.0694639816	 2.2039671666	 0.7656616089	 0.117604
H	-0.8811005675	 0.0679358294	-0.3023710025	 0.094165
H	 0.7194057732	-0.2190805294	-0.9643379055	 0.088631
H	 1.6416828099	-0.2956909949	 1.3698960433	 0.061483
H	 0.1731699361	 0.722041576	 2.9243973464	 0.094845
H	-1.2628718697	 0.0763918256	 2.1549443488	 0.092949
H	 0.2162086614	-1.2002453132	 4.3404938136	 0.091528
H	-1.1942310378	-1.8186555189	 3.5044578239	 0.093484
H	 1.7355552397	-2.2458321092	 2.8431627112	 0.065254
H	-0.6426963771	-4.1788093204	 2.8212647175	 0.114102
H	 1.0277483564	-4.6076389421	 2.4199038202	 0.10778
H	 0.6160904813	-4.0710431799	 4.0523059355	 0.109446
H	 1.3476664402	-2.4812675184	 0.5162914021	 0.056498
H	-1.6802570249	-2.2684815124	 1.018066904	 0.112284
H	-0.8866453881	-2.2990303515	-0.5584499941	 0.113443
H	-0.8106447592	-3.7119207832	 0.4910681875	 0.112022
87.4534	88.8266	117.4676	172.8653	216.7347	229.5187	242.5397	293.153	304.0541	317.4235	380.0038	453.9266	512.0942	591.9842	630.2967	770.6318	780.6948	805.4286	832.3758	885.1648	933.9536	947.5369	965.1383	996.1397	1021.0796	1034.9804	1051.2085	1053.7446	1068.779	1108.4536	1133.6811	1179.7278	1190.3938	1218.6092	1244.5739	1275.8778	1288.8784	1302.4122	1312.1483	1318.8534	1339.9286	1360.9994	1378.8579	1384.8724	1395.2125	1409.8642	1412.917	1417.5109	1485.4931	1488.2878	1496.3476	1497.1551	1499.1257	1504.4034	1507.5566	1511.7037	1517.2159	2984.2409	2995.9521	3013.2856	3022.393	3027.2146	3029.0121	3030.4111	3034.5736	3044.6031	3050.9627	3069.8112	3089.3579	3090.593	3095.6756	3098.8272	3100.5918	3101.3082	3107.9479
CCC1CCC(C)C1C	CC[C@H]1CC[C@@H](C)[C@H]1C	
InChI=1S/C9H18/c1-4-9-6-5-7(2)8(9)3/h7-9H,4-6H2,1-3H3	InChI=1S/C9H18/c1-4-9-6-5-7(2)8(9)3/h7-9H,4-6H2,1-3H3/t7-,8-,9+/m1/s1
