12
gdb 130536	4.15548	1.67069	1.19161	2.1326	72.13	-0.2298	-0.1259	0.1038	914.875	0.078219	-431.617399	-431.61119	-431.610246	-431.6479	24.101	
O	-0.0934116982	 1.3056439469	 0.0097407576	-0.261818
N	 1.1412673195	 2.1115915763	 0.0023714778	 0.037754
N	 2.2287161117	 1.5310734587	-0.0109881108	-0.104156
C	 2.4153415697	 0.1488258847	-0.0200690947	-0.107351
C	 1.3473146377	-0.6665080583	-0.0143605944	 0.207541
C	 1.0437843622	-2.0665946065	-0.0192479536	-0.138361
N	-0.2581152321	-2.2494186022	-0.0073855292	-0.204942
C	-0.9121181181	-1.0152140403	 0.0053064981	-0.179063
C	 0.0125616891	-0.0174609851	 0.0017008245	 0.331993
H	 3.453932728	-0.1567535871	-0.031666343	 0.161813
H	 1.7450993475	-2.8891559827	-0.0304598195	 0.127358
H	-1.9880799271	-0.9552532543	 0.0159568373	 0.129233
164.5869	227.0137	344.3556	345.4675	508.6651	539.4761	585.51	601.5736	653.9298	728.3566	770.4016	806.4033	829.8544	862.2357	914.4807	951.2717	1053.2446	1084.85	1157.7506	1254.7637	1279.8623	1318.282	1350.8763	1444.0506	1547.2874	1588.7074	1702.2692	3219.2686	3231.1132	3268.104
O1N=NC=C2C=NC=C12	o1nncc2cncc12	
InChI=1S/C5H3N3O/c1-4-2-7-8-9-5(4)3-6-1/h1-3H	InChI=1S/C5H3N3O/c1-4-2-7-8-9-5(4)3-6-1/h1-3H
