19
gdb 68050	2.12586	1.87685	1.30869	2.4522	76.29	-0.2455	0.0682	0.3137	1037.0067	0.157811	-422.954568	-422.945981	-422.945037	-422.987064	34.025	
O	-0.0907048764	 1.3183675542	 0.0095436535	-0.475823
C	 0.026306998	-0.0547219116	-0.0013835755	 0.32617
C	 0.6657332372	-0.9743002211	-1.0959239863	-0.361702
C	 0.0363265336	-1.9188872275	-0.0169421351	 0.326174
O	-0.0659223773	-3.2931459312	-0.029013777	-0.475824
C	 0.654462735	-0.9926050079	 1.0841563892	-0.361714
C	-1.1837446702	-0.993283161	-0.0154716744	 0.387733
C	-2.4592401483	-1.0065120161	 0.7436416063	-0.381442
C	-2.4513127352	-0.9936495248	-0.7878722367	-0.381436
H	 0.791162474	 1.7040971875	 0.0168053852	 0.286113
H	 0.1885816271	-0.9686700993	-2.0778704096	 0.101934
H	 1.7594118649	-0.9678836088	-1.159397771	 0.074978
H	 0.8200320478	-3.6694557453	-0.0266036897	 0.286113
H	 1.7474257824	-0.9873621284	 1.1590364558	 0.074977
H	 0.1671840901	-1.0033741922	 2.0610760646	 0.101934
H	-2.7622497955	-1.9253291462	 1.2361441673	 0.117953
H	-2.7721103145	-0.0994013342	 1.2514393886	 0.117955
H	-2.7589746249	-0.078093933	-1.2835522316	 0.117953
H	-2.7491415677	-1.9040261831	-1.2988593834	 0.117955
156.6809	190.2464	206.6178	211.4189	221.5975	252.6503	324.0767	454.2604	478.7467	502.4999	616.0275	619.697	668.2852	678.1291	750.8386	764.731	788.0462	914.9107	958.1809	960.3715	989.7609	1042.9253	1048.6382	1053.9161	1081.6966	1087.532	1121.2435	1123.2878	1123.5355	1128.7803	1160.6467	1183.8758	1269.9089	1309.552	1355.5277	1364.8894	1455.8168	1456.9197	1481.9291	1512.4136	1570.5524	3036.8922	3043.9765	3120.7107	3123.8267	3125.0169	3127.1754	3199.4212	3213.136	3819.4013	3820.0622
OC12CC(O)(C1)C21CC1	O[C@@]12C[C@@](O)(C1)C12CC1	
InChI=1S/C7H10O2/c8-6-3-7(9,4-6)5(6)1-2-5/h8-9H,1-4H2	InChI=1S/C7H10O2/c8-6-3-7(9,4-6)5(6)1-2-5/h8-9H,1-4H2/t6-,7+
