14
gdb 99464	2.40508	1.25245	0.92367	4.0555	69.75	-0.2877	-0.0932	0.1946	1238.3868	0.096602	-436.640288	-436.630583	-436.629639	-436.675796	32.722	
C	 0.1456176646	 1.3932156703	 0.1356574182	-0.243589
O	-0.1671193333	 0.0286603926	-0.0934910135	-0.212815
C	 0.5204262928	-0.5337466057	-1.1687274545	-0.126141
C	 1.9663573542	-0.6786914934	-0.9557861067	 0.314769
C	 3.1443161545	-0.8150838687	-0.7630600971	-0.458685
C	-0.0863857266	-1.9265047257	-1.4300606073	 0.291068
O	-0.9432881263	-2.4325512231	-0.765587342	-0.236725
C	 0.4709265396	-2.6062717952	-2.617693446	 0.230394
N	 0.8721362723	-3.1324626082	-3.5656475413	-0.296579
H	 1.2039659724	 1.5276013066	 0.392145441	 0.129598
H	-0.0890304893	 2.0095215302	-0.7446813685	 0.115223
H	-0.4745647774	 1.7142410596	 0.9738110505	 0.145302
H	 0.3612415257	 0.0502485411	-2.0963636152	 0.128008
H	 4.1880448069	-0.9340697604	-0.6006577975	 0.220172
42.7456	93.4209	109.0104	141.0229	180.7395	227.5921	244.2789	280.7379	362.3768	424.2622	442.9313	571.3038	612.517	650.1938	695.0548	703.4625	883.1566	939.3485	1023.4445	1094.1416	1160.627	1182.484	1221.9352	1284.6043	1347.0659	1479.0024	1486.4588	1507.4222	1828.9419	2231.001	2340.8677	2919.1898	2995.0418	3060.2929	3139.4664	3497.0359
COC(C#C)C(=O)C#N	CO[C@@H](C#C)C(=O)C#N	
InChI=1S/C6H5NO2/c1-3-6(9-2)5(8)4-7/h1,6H,2H3	InChI=1S/C6H5NO2/c1-3-6(9-2)5(8)4-7/h1,6H,2H3/t6-/m0/s1
