17
gdb 97353	3.39312	0.78219	0.64069	2.3235	88.36	-0.2426	-0.0601	0.1826	1714.6943	0.134244	-414.202621	-414.192432	-414.191488	-414.238468	34.63	
C	 0.3727270926	 1.8030868689	 0.9255561155	-0.312883
N	 0.3278595801	 0.3893671306	 1.2358936772	-0.237565
C	 0.0972873451	-0.4108581542	 0.2833112749	 0.119778
N	 0.0424884421	-1.7763369687	 0.5216653079	-0.371447
C	-0.2011472135	-2.736253305	-0.4427502349	 0.339404
N	-0.4026968705	-2.4508817635	-1.6643219122	-0.283894
C	-0.6545811128	-3.4829949347	-2.6444556211	-0.34357
C	-0.1989546493	-4.0897093541	 0.1013952552	 0.220788
N	-0.201361227	-5.1702322038	 0.5127174457	-0.323372
H	 1.3499151979	 2.2096270904	 1.2107379914	 0.131542
H	 0.1962307476	 2.0324452821	-0.1369119568	 0.104049
H	-0.3769030094	 2.3332882621	 1.5242651388	 0.131545
H	-0.0738163932	-0.1444128396	-0.7627325133	 0.135041
H	 0.1947939669	-2.069038386	 1.4754471219	 0.276505
H	-1.6241659747	-3.2948487909	-3.1194059324	 0.140142
H	 0.1020021681	-3.4168074706	-3.434539133	 0.140132
H	-0.6536191599	-4.505367413	-2.2432853849	 0.133805
65.014	102.3583	105.3172	135.8745	159.0383	202.5956	223.6309	286.4067	288.3251	368.9631	376.2198	451.9888	563.066	569.5697	669.5922	718.3167	837.1438	1004.0068	1030.5051	1107.5901	1131.5234	1140.6793	1141.9475	1164.9079	1229.6301	1274.89	1360.7889	1444.4494	1449.3808	1478.7306	1481.7409	1494.8359	1502.2221	1526.3309	1720.2416	1756.8314	2345.8027	2979.9504	3005.0316	3062.3274	3077.0148	3077.1101	3080.5638	3105.3109	3628.6358
CN=CNC(=NC)C#N	CN=CNC(=NC)C#N	
InChI=1S/C5H8N4/c1-7-4-9-5(3-6)8-2/h4H,1-2H3,(H,7,8,9)	InChI=1S/C5H8N4/c1-7-4-9-5(3-6)8-2/h4H,1-2H3,(H,7,8,9)
