17
gdb 51075	2.98214	1.17355	1.02381	3.4733	73.43	-0.2488	-0.0281	0.2207	1190.972	0.134745	-421.802907	-421.794662	-421.793717	-421.836861	30.071	
O	-0.5792805911	 0.7189615721	 0.7463305601	-0.237298
C	 0.1293891824	 0.9517178102	-0.1977750127	 0.150149
C	 1.3512670392	 1.8532717585	-0.1488023232	-0.413358
C	 1.3110877785	 2.9097763327	-1.225246953	 0.176674
C	 0.2821015818	 4.0865044478	-1.4155091374	-0.263574
C	 1.2645595723	 4.2778152227	-2.620415804	-0.170145
C	 2.410125387	 3.9701276927	-1.5965358691	-0.278403
C	 1.1717858961	 2.7527690718	-2.7539948338	 0.436535
O	 1.0541677502	 1.8943369201	-3.5734498524	-0.333516
H	-0.0689355946	 0.5054689938	-1.197187663	 0.105202
H	 1.4298779576	 2.2879302989	 0.8522222895	 0.127725
H	 2.2326800523	 1.2169742728	-0.3154224393	 0.13379
H	-0.7540758239	 3.8264875994	-1.6396440397	 0.120914
H	 0.3508988587	 4.8652591105	-0.6520246705	 0.113836
H	 1.2414552479	 5.049957794	-3.3844606936	 0.102111
H	 2.5555707428	 4.7447844347	-0.8396988831	 0.112769
H	 3.3589983627	 3.5992489174	-1.9890766548	 0.116588
53.8888	63.5763	149.8324	191.7776	236.5322	354.4706	430.282	512.8066	522.3008	659.0924	715.5816	769.6133	784.1231	813.1657	836.1675	910.3728	930.6259	981.6559	1010.283	1034.0259	1046.5922	1054.4718	1084.5795	1135.2821	1146.3414	1183.7416	1197.2244	1221.9235	1251.6355	1294.4186	1348.2168	1427.872	1453.3173	1495.2021	1532.8396	1836.1435	1909.4675	2897.518	3014.8132	3062.5657	3064.3148	3092.5252	3134.9141	3137.0396	3163.0631
O=CCC12CC(C1)C2=O	O=CC[C@@]12C[C@@H](C1)C2=O	
InChI=1S/C7H8O2/c8-2-1-7-3-5(4-7)6(7)9/h2,5H,1,3-4H2	InChI=1S/C7H8O2/c8-2-1-7-3-5(4-7)6(7)9/h2,5H,1,3-4H2/t5-,7+
