20
gdb 55638	2.87978	1.01445	0.90101	3.2742	81.4	-0.2492	0.024	0.2732	1369.849	0.167034	-403.159051	-403.147952	-403.147008	-403.196964	40.008	
C	 0.1170112393	 1.5892080481	-0.0161592935	-0.415102
C	 0.0633525254	 0.0439835072	 0.0410420005	 0.058522
C	 0.8918236117	-0.4776114661	 1.239141775	-0.415103
C	-1.4039942318	-0.4599192245	 0.1170819263	-0.333955
C	-2.2194228909	-0.0240757494	 1.3381800986	 0.408117
N	-3.4969442646	-0.5056624292	 1.334456655	-0.52335
O	-1.8066717559	 0.679732064	 2.2418669315	-0.352251
C	 0.6316508651	-0.4974145498	-1.2011310804	 0.33334
C	 1.0898118895	-0.9441471417	-2.2194613251	-0.483942
H	 1.151946785	 1.9249243732	-0.1245872141	 0.117572
H	-0.4486395987	 1.9654627506	-0.8742845198	 0.110303
H	-0.3027985301	 2.0080662291	 0.8991437848	 0.150667
H	 0.4821236356	-0.0856572167	 2.1707973389	 0.150662
H	 0.8772684859	-1.5714518359	 1.2739080524	 0.110306
H	 1.9335148405	-0.1599219072	 1.1416440222	 0.117575
H	-1.940103961	-0.1318077379	-0.7818672764	 0.127621
H	-1.4061019348	-1.5562858157	 0.083147099	 0.127617
H	-3.8557856059	-1.087252173	 0.5981602569	 0.259868
H	-4.0997530465	-0.2643195339	 2.1036053145	 0.261371
H	 1.5050127621	-1.3330272412	-3.1160222965	 0.190161
6.5846	89.7641	109.8228	126.5967	191.6226	225.1151	249.1681	266.9917	310.788	336.2646	366.4155	405.8109	500.6976	555.7767	561.2589	611.3614	621.8825	634.1816	645.6864	751.9384	837.0918	911.461	916.448	955.864	999.0632	1045.4671	1086.1012	1131.9194	1208.0064	1232.2442	1288.0055	1296.2214	1389.7198	1391.679	1414.0261	1456.495	1482.4255	1498.9673	1505.2205	1514.9877	1616.1482	1785.8445	2228.8888	3029.7512	3042.8667	3046.5921	3067.0021	3109.6035	3112.7484	3149.9167	3152.6118	3502.3671	3604.1984	3741.7689
CC(C)(CC(N)=O)C#C	CC(C)(CC(=O)N)C#C	
InChI=1S/C7H11NO/c1-4-7(2,3)5-6(8)9/h1H,5H2,2-3H3,(H2,8,9)	InChI=1S/C7H11NO/c1-4-7(2,3)5-6(8)9/h1H,5H2,2-3H3,(H2,8,9)
