12
gdb 132686	3.20018	1.43326	0.98991	3.4263	61.51	-0.2316	-0.0469	0.1847	1052.999	0.078148	-513.972027	-513.965138	-513.964193	-514.003376	26.499	
O	 0.110437923	 1.3098322025	-0.0208677566	-0.414367
C	 0.0804011216	-0.0364874849	-0.0315961912	 0.400873
C	-0.0342630574	-0.7209142432	-1.2396691587	-0.110267
N	-0.0640588666	-2.0575431565	-1.2497584412	-0.272373
C	 0.0164396298	-2.6857062037	-0.1109010023	 0.250504
F	-0.0121185626	-4.0139604196	-0.1084663779	-0.056494
C	 0.1322453511	-2.0009143447	 1.1109473313	 0.283483
O	 0.2122371137	-2.6900513421	 2.2594289354	-0.398795
N	 0.1629215094	-0.6787700484	 1.1354609777	-0.424785
H	 0.1926344978	 1.584460999	 0.9018857045	 0.303753
H	-0.1008330812	-0.1933638997	-2.1834506299	 0.132545
H	 0.2852030314	-2.0399191489	 2.9720017889	 0.305923
130.6172	247.0935	299.0404	352.6855	401.4554	462.7959	478.9569	502.1491	541.7618	549.193	616.0788	695.9832	738.5551	789.0777	813.0855	888.329	1029.6781	1167.7574	1195.2007	1264.2129	1307.0052	1347.9079	1406.9446	1500.2446	1531.7656	1617.3834	1665.6117	3205.0004	3771.5072	3785.921
OC1=CN=C(F)C(O)=N1	Oc1cnc(F)c(O)n1	
InChI=1S/C4H3FN2O2/c5-3-4(9)7-2(8)1-6-3/h1H,(H2,7,8,9)	InChI=1S/C4H3FN2O2/c5-3-4(9)7-2(8)1-6-3/h1H,(H2,7,8,9)
