15
gdb 46972	2.9227	1.81071	1.27022	4.7099	64.84	-0.2403	0.0045	0.2448	942.5223	0.116189	-453.999125	-453.992298	-453.991354	-454.030939	25.721	
O	-0.0214144125	-0.0572098207	-0.3058977138	-0.364526
C	-0.012257385	 1.1269737186	-0.0728538221	 0.415021
N	-1.10981896	 1.9292150266	 0.0972439407	-0.314996
C	-0.8647518954	 3.353811142	 0.2045842131	-0.193552
C	 0.6668638571	 3.4512121872	 0.3603051479	 0.077568
O	 1.04303617	 3.7286661393	 1.7301184264	-0.227746
C	 1.7603728549	 2.6495214525	 2.1377236009	 0.11409
N	 1.9496445839	 1.6771993338	 1.3487522112	-0.246071
C	 1.2285741702	 2.0278505901	 0.1132115178	-0.137192
H	-2.0317979234	 1.5419233505	-0.028138366	 0.257089
H	-1.1983556999	 3.8931428658	-0.6914816744	 0.115658
H	-1.3616168829	 3.7967934125	 1.0736399537	 0.132394
H	 1.0914461354	 4.2403970499	-0.2617830013	 0.106414
H	 2.1326557038	 2.7188385019	 3.1533745921	 0.150385
H	 1.8856449639	 1.9269900899	-0.7531175262	 0.115464
74.9754	123.0374	227.4577	359.0077	457.6126	495.7542	568.7856	570.6171	695.8995	729.6477	793.0906	853.6442	886.8937	901.6158	949.3905	973.7807	1000.7153	1026.1302	1084.1827	1086.8313	1118.3881	1226.986	1240.4226	1265.1306	1272.2567	1291.797	1323.0798	1360.6678	1375.8947	1450.8984	1526.8065	1699.0418	1843.9768	3016.3889	3072.4222	3089.8247	3103.2407	3223.9423	3640.9392
O=C1NCC2OC=NC12	O=C1NC[C@H]2OC=N[C@@H]12	
InChI=1S/C5H6N2O2/c8-5-4-3(1-6-5)9-2-7-4/h2-4H,1H2,(H,6,8)	InChI=1S/C5H6N2O2/c8-5-4-3(1-6-5)9-2-7-4/h2-4H,1H2,(H,6,8)/t3-,4-/m1/s1
