14
gdb 129430	2.89706	1.51684	0.99662	1.8242	66.97	-0.2229	-0.0044	0.2185	1088.4446	0.101883	-470.046356	-470.03827	-470.037326	-470.07893	30.21	
N	 0.0313116391	 1.3319268007	-0.0794930621	-0.54529
C	 0.0221773229	-0.0370927608	-0.0421643206	 0.325749
O	 1.0697145802	-0.6837842619	-0.0848340787	-0.410212
C	-1.2753435991	-0.6987575911	 0.0107623897	-0.018347
C	-1.4080017173	-2.0803956848	 0.0586465657	 0.48091
N	-0.4619005641	-3.0275253981	 0.1292832567	-0.589015
O	-2.691602231	-2.4292976691	 0.0641157717	-0.227475
N	-3.4928050129	-1.2442427213	 0.0141026786	-0.160811
C	-2.628628823	-0.2663562392	-0.0151873227	-0.070417
H	 0.9318055933	 1.7713672771	 0.0269910793	 0.262376
H	-0.7750112998	 1.8612127078	 0.2054803388	 0.258535
H	 0.4782178712	-2.6794914061	-0.0237703359	 0.294765
H	-0.6994604526	-3.9845114374	-0.0680445254	 0.272928
H	-3.0153675469	 0.7434559342	-0.0650937252	 0.126303
90.2336	170.5845	196.5266	278.1171	306.5598	320.3945	337.9792	437.2103	505.1303	521.8084	607.4554	627.522	677.0019	720.2173	747.0273	800.7314	854.7792	909.1528	942.1125	1061.6586	1084.9044	1173.6422	1219.7259	1337.6731	1398.5528	1467.1905	1525.6668	1600.7881	1623.195	1670.8418	1735.4712	3223.1637	3519.9935	3596.7327	3706.3564	3725.3117
NC(=O)C1=C(N)ON=C1	NC(=O)c1c(N)onc1	
InChI=1S/C4H5N3O2/c5-3(8)2-1-7-9-4(2)6/h1H,6H2,(H2,5,8)	InChI=1S/C4H5N3O2/c5-3(8)2-1-7-9-4(2)6/h1H,6H2,(H2,5,8)
