17
gdb 79650	2.70523	1.51226	1.19767	4.4556	77.84	-0.2303	0.0099	0.2403	1064.7858	0.135988	-380.794169	-380.786043	-380.785099	-380.827357	30.662	
C	-0.0934270202	 1.6102746867	-0.0357565769	-0.39291
C	 0.1428329198	 0.1048756133	 0.0407166379	-0.070883
C	 1.3891229436	-0.6968361615	-0.1999313065	-0.123477
C	 2.6823120336	-0.1611294165	 0.4668536106	-0.05235
N	 2.3808978038	 1.1179439884	 1.1598114536	-0.336608
C	 2.0508562765	-0.1736470422	 1.7969962764	-0.120464
C	 0.7122528378	-0.7120935473	 1.1998107814	 0.173984
C	-0.0024276585	-1.7783998408	 1.810028333	 0.197827
N	-0.5737447611	-2.6463876939	 2.3233771177	-0.354333
H	 0.679099293	 2.1099237074	-0.6206072363	 0.134675
H	-1.062773311	 1.7967653317	-0.5090103256	 0.106999
H	-0.099842945	 2.0711816463	 0.9520651322	 0.137481
H	-0.6974435727	-0.4595299492	-0.3615428581	 0.118349
H	 1.4100330911	-1.5294949942	-0.891379061	 0.117624
H	 3.6872365878	-0.4251998349	 0.1686067479	 0.110023
H	 3.2507591872	 1.4440968622	 1.5808045122	 0.238949
H	 2.4386325043	-0.4640566256	 2.7636059316	 0.115112
46.2427	132.0854	159.7775	213.7051	265.543	409.1802	437.1533	486.5993	541.4389	575.0369	674.8068	726.1509	741.3439	814.4052	827.921	874.6551	910.3514	916.5439	957.7133	995.7322	1034.7508	1062.6811	1081.3478	1107.2041	1115.1026	1123.228	1212.5531	1230.844	1272.0211	1302.5761	1340.9306	1368.2887	1420.7586	1451.7698	1486.1278	1488.4802	2333.9165	3049.7786	3116.0462	3132.4931	3151.4402	3198.9512	3209.4395	3221.1606	3473.6099
CC1C2C3NC3C12C#N	C[C@H]1[C@H]2[C@H]3N[C@H]3[C@@]12C#N	
InChI=1S/C7H8N2/c1-3-4-5-6(9-5)7(3,4)2-8/h3-6,9H,1H3	InChI=1S/C7H8N2/c1-3-4-5-6(9-5)7(3,4)2-8/h3-6,9H,1H3/t3-,4-,5+,6+,7-/m0/s1
