16
gdb 35918	2.80046	1.56567	1.24018	5.8569	68.31	-0.2791	0.0262	0.3053	1012.6384	0.125875	-437.874512	-437.8671	-437.866156	-437.906735	27.875	
N	-0.1402256297	-1.1467033746	-0.3271907492	-0.318355
C	-0.0578350196	-0.0080131681	-0.151508643	 0.292447
C	 0.0091625569	 1.4411482924	 0.0537583409	-0.200334
C	-0.7084992344	 1.8778945802	 1.3570374773	-0.092518
O	 0.0853603049	 1.6587224244	 2.4964893246	-0.227828
C	 1.2038525057	 2.5209828409	 2.5499975907	-0.11706
C	 2.0421953748	 2.4694899433	 1.2922544438	 0.040987
O	 2.3865694583	 1.1694482212	 0.821969858	-0.223043
C	 1.4631838853	 1.9295331352	 0.051060052	 0.030769
H	-0.5118373214	 1.9124568981	-0.7887967274	 0.129509
H	-0.9658871165	 2.9453382471	 1.2607437527	 0.097841
H	-1.630250695	 1.3094203697	 1.4964163608	 0.13756
H	 0.8860698503	 3.5650452476	 2.7167711049	 0.098152
H	 1.7962591094	 2.2029830928	 3.4130510584	 0.134333
H	 2.837797222	 3.2126434315	 1.2283048704	 0.104706
H	 1.8453854989	 2.2593445081	-0.9135138149	 0.112833
74.3759	139.7585	218.4238	296.5865	367.347	370.4069	441.0888	460.3578	596.5995	677.3317	770.9021	777.6477	826.9957	870.7984	923.7204	960.188	966.9349	1034.6467	1059.1295	1089.2539	1108.885	1161.7105	1171.1187	1260.0599	1274.7089	1289.5122	1316.6895	1348.7555	1362.0986	1390.7103	1423.4687	1469.0629	1481.3876	1494.0784	2363.5814	2962.6975	2974.8533	3041.8976	3088.4065	3108.2495	3112.0514	3126.2629
N#CC1COCC2OC12	N#C[C@H]1COC[C@H]2O[C@@H]12	
InChI=1S/C6H7NO2/c7-1-4-2-8-3-5-6(4)9-5/h4-6H,2-3H2	InChI=1S/C6H7NO2/c7-1-4-2-8-3-5-6(4)9-5/h4-6H,2-3H2/t4-,5+,6-/m0/s1
