18
gdb 108397	2.53057	1.31936	1.08365	1.2958	78.42	-0.2347	0.0251	0.2598	1172.9635	0.146412	-401.859571	-401.850707	-401.849763	-401.893235	33.406	
O	 0.1868466459	 1.3423189637	-0.1126555059	-0.409931
C	 0.0230548716	-0.0443064993	 0.1446486536	-0.168744
C	-1.4206022359	-0.4592533826	 0.0877536078	 0.309066
C	-2.4837000892	-0.1224864721	 1.1336445992	-0.311228
C	-2.9565464239	-1.5897814857	 0.9756483815	-0.153712
N	-1.8574967533	-1.9038324312	-0.0127645424	-0.193926
C	-2.0460300633	-0.9732201513	-1.1688828072	-0.271467
C	-3.3333028518	-0.5609896011	-1.6487895671	 0.360311
C	-4.4065666543	-0.2161853537	-2.069741719	-0.451899
H	-0.1707443347	 1.5213625978	-0.988951617	 0.286175
H	 0.6112474872	-0.669915285	-0.5446356298	 0.098838
H	 0.4194463522	-0.2075312555	 1.1527268801	 0.115622
H	-2.0532214539	 0.0899355729	 2.11389637	 0.114887
H	-3.1885136643	 0.6692756809	 0.8718026588	 0.118001
H	-2.8138752384	-2.2025563395	 1.8669299888	 0.115087
H	-3.9610031742	-1.7517985491	 0.5780900176	 0.1226
H	-1.3388520721	-1.2239517014	-1.9569947928	 0.117617
H	-5.3521399676	 0.0880529222	-2.4456855062	 0.202703
70.7816	107.8194	148.9588	194.3517	283.8747	296.5563	359.9899	373.8368	424.668	528.6764	564.8183	602.0224	668.2649	693.3774	765.3812	783.1551	824.2049	880.5396	933.0069	968.324	970.2282	1026.3386	1060.4775	1081.1007	1106.5738	1169.2727	1185.9646	1219.2411	1239.5819	1282.1872	1304.3236	1326.0778	1365.9798	1412.2767	1428.9226	1480.2688	1499.5783	1505.7725	2230.4438	2987.0046	3069.7756	3071.45	3076.6002	3119.8279	3129.1351	3136.7547	3501.5933	3808.2752
OCC12CCN1C2C#C	OC[C@]12CCN1[C@H]2C#C	
InChI=1S/C7H9NO/c1-2-6-7(5-9)3-4-8(6)7/h1,6,9H,3-5H2	InChI=1S/C7H9NO/c1-2-6-7(5-9)3-4-8(6)7/h1,6,9H,3-5H2/t6-,7-,8?/m0/s1
