15
gdb 48982	3.49398	1.50428	1.36298	1.3673	64.81	-0.2581	-0.0447	0.2135	942.4948	0.112555	-457.751062	-457.744077	-457.743132	-457.782681	26.932	
O	-0.8528785797	 1.1013689452	-0.2146659981	-0.252097
C	 0.3028026425	 0.8147029871	-0.0369610091	 0.057149
C	 1.4118405503	 1.8244513347	-0.058545739	 0.225416
C	 1.7482850695	 2.4974665062	 1.3335886466	-0.108469
O	 3.1010668633	 2.8985842861	 1.1336069845	-0.26611
C	 3.410085766	 2.4394216085	-0.2069774181	 0.11421
O	 2.6968569635	 1.2262129429	-0.3029262262	-0.259393
C	 2.6542106153	 3.3558142067	-1.1658530232	-0.082041
C	 1.3815294793	 2.9747246766	-1.0527527858	-0.135104
H	 0.6362986136	-0.2215067076	 0.1852047528	 0.104935
H	 1.1016511195	 3.3524855763	 1.5481995093	 0.123132
H	 1.6950100208	 1.7671336588	 2.1481055171	 0.116682
H	 4.4840846524	 2.3017721117	-0.3049243249	 0.103133
H	 3.0727166902	 4.2033552876	-1.6893420537	 0.123567
H	 0.4763600237	 3.4116169894	-1.4475961922	 0.134989
81.6299	182.7053	231.9448	298.6379	412.7651	435.7521	527.8346	633.4835	706.7306	721.8293	742.2518	801.9533	854.4193	861.0332	878.4035	923.0497	942.514	970.2256	997.4755	1038.6216	1075.7329	1109.3892	1133.8397	1199.6675	1260.7973	1280.044	1324.4586	1328.5483	1355.4085	1407.7	1509.4047	1633.2491	1831.2954	2911.9186	3040.7935	3101.3142	3165.5153	3233.9416	3259.7524
O=CC12COC(O1)C=C2	O=C[C@@]12CO[C@@H](O1)C=C2	
InChI=1S/C6H6O3/c7-3-6-2-1-5(9-6)8-4-6/h1-3,5H,4H2	InChI=1S/C6H6O3/c7-3-6-2-1-5(9-6)8-4-6/h1-3,5H,4H2/t5-,6-/m0/s1
