21
gdb 39814	2.83774	1.49165	1.48331	1.6139	81.13	-0.2353	0.0798	0.315	1040.2793	0.185002	-387.066843	-387.059296	-387.058352	-387.098535	30.955	
C	-0.0704287494	 1.534062664	 0.0112599411	-0.34893
C	 1.2531034607	 0.787176905	-0.005925517	-0.360421
C	-0.0397875633	 0.0426633836	 0.0025145214	 0.435053
C	-0.5055994196	-0.9967767749	 1.01652109	 0.000506
C	-2.0029929822	-0.832271193	 1.31226844	-0.221496
C	-2.8059701748	-1.1482340731	 0.022807095	-0.181788
C	-2.0283365377	-0.8175492134	-1.2784420197	-0.221496
C	-0.5254621593	-0.9852391841	-1.0139319041	 0.000514
O	-0.3381276518	-2.0283956802	-0.0063350845	-0.302767
H	-0.3573632662	 2.0416734859	 0.9274338511	 0.113219
H	-0.375199134	 2.051973353	-0.8933164576	 0.113219
H	 1.8340277712	 0.8009694028	-0.9230346144	 0.113866
H	 1.8518618366	 0.7906572124	 0.8997394806	 0.113866
H	 0.10981905	-1.1866754409	 1.90104368	 0.074198
H	-2.3179345895	-1.5070799864	 2.1150594538	 0.097669
H	-2.1848406795	 0.189805215	 1.6655653078	 0.097653
H	-3.0114191318	-2.2210022795	 0.0187213322	 0.116652
H	-3.7758952198	-0.6427265761	 0.0351677104	 0.090966
H	-2.3589978707	-1.4832252113	-2.0825358907	 0.097669
H	-2.2169463453	 0.2084565672	-1.6164743445	 0.097653
H	 0.0725146664	-1.165005656	-1.912424821	 0.074197
122.558	201.0445	205.0603	239.8275	353.2848	411.6553	443.4014	571.579	583.0383	669.3708	768.9335	776.4995	833.2008	855.2097	863.5963	886.2672	920.9337	930.1418	942.7918	976.635	977.198	1010.9412	1049.1263	1064.0031	1068.9814	1077.4966	1115.0378	1126.5268	1182.2932	1200.8198	1225.7468	1239.0732	1275.9877	1299.964	1313.2512	1316.5085	1343.7597	1369.1589	1375.4159	1429.8705	1463.3081	1479.2105	1487.78	1500.0341	1514.0737	3032.2517	3032.4915	3059.8131	3062.0321	3063.2574	3074.0904	3074.4453	3106.5592	3117.1692	3121.4581	3193.5324	3208.6669
C1CC11C2CCCC1O2	C1CC21[C@H]1CCC[C@@H]2O1	
InChI=1S/C8H12O/c1-2-6-8(4-5-8)7(3-1)9-6/h6-7H,1-5H2	InChI=1S/C8H12O/c1-2-6-8(4-5-8)7(3-1)9-6/h6-7H,1-5H2/t6-,7+
