14
gdb 129238	3.06513	1.28644	1.03191	1.4576	70.11	-0.2221	-0.0213	0.2008	1126.2466	0.100584	-428.974015	-428.965665	-428.964721	-429.008117	29.838	
N	-0.026026742	 1.3443728515	 0.1352187763	-0.600059
C	 0.0527211499	 0.0772279998	 0.0160092448	 0.494799
N	 1.0859954719	-0.8443104163	-0.0526594304	-0.319287
N	 0.6277871076	-2.1264680859	-0.1791559483	-0.071214
N	-0.6362627154	-2.0839420671	-0.1926350378	-0.099172
N	-1.0307688283	-0.7878253375	-0.0699771499	-0.032327
C	-2.4271752756	-0.3949848667	-0.0944842268	-0.306411
C	-3.0036912447	-0.3658679818	-1.4365723835	 0.322616
C	-3.4921995803	-0.3453617412	-2.5327227445	-0.444928
H	 0.8874757585	 1.7831911799	 0.1987942873	 0.217
H	 2.075133808	-0.6701588221	-0.0361649499	 0.284833
H	-2.9863592805	-1.0829742254	 0.5473524781	 0.160519
H	-2.4586211767	 0.6019805669	 0.3570869701	 0.185273
H	-3.9199138924	-0.3254223241	-3.5047148857	 0.208358
31.8297	75.3733	187.0066	229.8468	258.2188	315.5925	364.513	432.1404	527.6188	623.5213	671.1599	677.178	695.5405	716.9544	735.7777	801.651	925.1726	955.4736	1006.5033	1033.0498	1075.3696	1173.9849	1236.8045	1339.3405	1369.7767	1392.4618	1423.1944	1455.9578	1509.8794	1761.8291	2248.4152	3053.8572	3100.5806	3504.6754	3541.6406	3699.4057
N=C1NN=NN1CC#C	[NH][C@H]1NN=NN1CC#C	
InChI=1S/C4H5N5/c1-2-3-9-4(5)6-7-8-9/h1H,3H2,(H2,5,6,8)	InChI=1S/C4H6N5/c1-2-3-9-4(5)6-7-8-9/h1,4-5H,3H2,(H,6,8)/t4-/m0/s1
