13
gdb 24738	3.7576	1.22711	0.92503	0.2949	76.19	-0.2511	-0.0763	0.1748	1155.4814	0.090334	-415.629182	-415.621652	-415.620708	-415.6617	27.366	
O	-0.0814801343	-0.0314700871	 0.0032459636	-0.344941
C	-0.0418851662	 1.1913140463	 0.0063051854	 0.167036
C	 1.2116929082	 1.9230553274	-0.0002355787	 0.272547
C	 2.2577382591	 2.5176506779	-0.0057304965	-0.438507
C	-1.2516673926	 1.9955543393	 0.0168255626	 0.245859
C	-1.5285324382	 3.3516176727	 0.0224823011	-0.171883
N	-2.8739173525	 3.5697100716	 0.0322701586	-0.256695
C	-3.4197384424	 2.3628363859	 0.0326744237	 0.040406
N	-2.4889982105	 1.384803071	 0.0236642346	-0.302211
H	 3.1880212933	 3.0321592887	-0.010598225	 0.21711
H	-0.8183805975	 4.1644483277	 0.0198594455	 0.135484
H	-4.4797369625	 2.1564343108	 0.0393530176	 0.148383
H	-2.6128684339	 0.3839252478	 0.0217849874	 0.287414
90.5268	114.1709	168.4747	232.076	287.5704	450.3481	497.4157	605.4969	645.8229	661.8153	674.6251	690.5879	693.4962	783.9485	855.1694	894.2273	928.0889	982.7916	1071.3704	1115.6442	1169.1909	1266.1488	1317.1723	1380.4129	1436.6165	1479.892	1582.6498	1703.2584	2219.322	3255.1163	3258.4909	3493.5167	3646.7661
O=C(C#C)C1=CN=CN1	O=C(C#C)c1cnc[nH]1	
InChI=1S/C6H4N2O/c1-2-6(9)5-3-7-4-8-5/h1,3-4H,(H,7,8)	InChI=1S/C6H4N2O/c1-2-6(9)5-3-7-4-8-5/h1,3-4H,(H,7,8)
