21
gdb 87675	3.13324	1.11063	0.98647	1.3158	79.54	-0.243	0.072	0.315	1281.6775	0.180092	-424.198406	-424.188857	-424.187913	-424.232327	37.183	
C	-0.3432039486	 1.47578853	-0.0787932762	-0.449519
C	-0.0678976934	-0.0202872071	 0.0159095551	 0.426861
O	-1.2645001891	-0.7722770323	-0.0670281931	-0.480361
C	 1.1154672811	-0.4934168828	-0.897166024	-0.354401
C	 1.9952910858	-0.5151759995	 0.3551318677	 0.36399
C	 3.3071078353	-1.2226083652	 0.5670698644	-0.407309
C	 3.2462469366	 0.2877968319	 0.5090887125	 0.044708
O	 3.7015508043	 0.9603342297	-0.6296578916	-0.421699
C	 0.7644406425	-0.4332373611	 1.2617880149	-0.346538
H	 0.5801534604	 2.0542174947	 0.0219142004	 0.132269
H	-0.7824934436	 1.7269590411	-1.0528815595	 0.103262
H	-1.0413102743	 1.7863157391	 0.7050871136	 0.119185
H	-1.7499659525	-0.475488301	-0.8446290685	 0.271702
H	 0.9184244342	-1.4937826578	-1.293182173	 0.097937
H	 1.4314946926	 0.1723646446	-1.7037288998	 0.108258
H	 3.5009137353	-1.6980038044	 1.5240259029	 0.109165
H	 3.7373678793	-1.7289900231	-0.2918696707	 0.111399
H	 3.3810142394	 0.8319425413	 1.4458206486	 0.080616
H	 4.6622709049	 0.8996755965	-0.6490080136	 0.287844
H	 0.7917652457	 0.2701996768	 2.0995204693	 0.092858
H	 0.4406665643	-1.4137832613	 1.6219439606	 0.109772
57.3253	151.9341	187.9625	258.1822	274.9167	278.6306	303.2742	324.498	343.4584	418.8402	440.4261	464.1777	500.5529	539.9517	704.1593	806.1809	827.3975	852.1693	896.4726	906.3889	924.0377	946.9043	975.0622	1013.7734	1030.1022	1078.6123	1088.914	1120.4689	1148.74	1168.3595	1185.6178	1213.2726	1232.0724	1256.2701	1290.2852	1301.1862	1349.256	1375.0938	1407.2952	1425.4099	1466.5901	1484.0954	1491.3292	1493.5189	1498.1195	3019.6495	3046.5385	3055.5926	3079.3786	3087.3499	3104.3984	3112.9242	3116.7269	3117.4007	3205.6978	3798.5675	3805.5235
CC1(O)CC2(CC2O)C1	C[C@@]1(O)C[C@]2(C[C@H]2O)C1	
InChI=1S/C7H12O2/c1-6(9)3-7(4-6)2-5(7)8/h5,8-9H,2-4H2,1H3	InChI=1S/C7H12O2/c1-6(9)3-7(4-6)2-5(7)8/h5,8-9H,2-4H2,1H3/t5-,6-,7-/m1/s1
