17
gdb 17292	3.126	2.47899	1.8878	3.069	67.13	-0.2286	0.0635	0.2921	774.7343	0.142823	-363.780866	-363.774173	-363.773229	-363.811251	26.831	
C	-0.0316189657	 1.5486268487	-0.0280372044	-0.498527
C	 0.0178866445	 0.03974575	 0.003157373	 0.295066
C	-1.2983064759	-0.7793612225	 0.0609307715	-0.121967
O	-0.8601811078	-1.4848743085	 1.2520431183	-0.289967
C	 0.3907975344	-0.7838413341	 1.2604335497	 0.080911
C	 1.5686252685	-1.4258930208	 0.4807493571	-0.071541
N	 0.9980893564	-2.0921046169	-0.713508004	-0.325275
C	 1.2097901658	-0.6322079602	-0.7351930776	-0.122357
H	 0.9556855995	 1.9808416428	 0.1711820765	 0.118372
H	-0.3584593861	 1.9127662408	-1.0096203049	 0.121248
H	-0.7267900811	 1.9380265944	 0.7226741346	 0.124359
H	-2.1907757629	-0.1755037604	 0.26889236	 0.089459
H	-1.4837346375	-1.4620802259	-0.7721844015	 0.116343
H	 0.6455529128	-0.3394958835	 2.2271953652	 0.072422
H	 2.5352399574	-1.726063479	 0.8675632304	 0.090515
H	 1.7777078938	-2.5205134905	-1.2113699868	 0.231994
H	 1.8447374338	-0.1678483345	-1.4811219071	 0.088946
205.0264	217.8805	246.9016	287.8836	339.0724	463.2019	540.9242	663.275	700.4089	799.272	819.8425	830.7473	882.7058	906.4115	916.7898	948.0917	977.4744	989.987	998.936	1033.6861	1088.8364	1108.523	1151.3426	1166.3836	1184.8693	1202.1521	1247.5021	1274.3091	1310.4576	1331.4027	1349.5706	1389.7499	1412.911	1491.0631	1493.7467	1500.4741	3016.6571	3022.4913	3067.1262	3082.8063	3096.4691	3099.0675	3172.5476	3186.4151	3476.6744
CC12COC1C1NC21	C[C@]12CO[C@H]1[C@H]1N[C@@H]21	
InChI=1S/C6H9NO/c1-6-2-8-5(6)3-4(6)7-3/h3-5,7H,2H2,1H3	InChI=1S/C6H9NO/c1-6-2-8-5(6)3-4(6)7-3/h3-5,7H,2H2,1H3/t3-,4+,5-,6+/m0/s1
