23
gdb 109538	1.96208	1.28476	1.10805	2.0496	82.73	-0.2231	0.0624	0.2854	1310.2726	0.201597	-425.419697	-425.408432	-425.407488	-425.455292	42.001	
C	-0.0975763626	 1.5166496115	-0.2691166992	-0.374414
C	-0.024437652	 0.0545137488	 0.1883679747	-0.203613
C	-1.3761475712	-0.6286480294	 0.1358542453	-0.085412
C	-1.9020619361	-1.2889628296	-1.12251796	 0.308615
C	-3.3369391187	-1.0950176891	-1.5529938874	-0.460483
O	-0.9758627791	-1.2985388098	-2.1848763325	-0.457409
C	-1.5646715467	-2.1282209518	 0.1093244311	 0.290895
C	-0.397473454	-3.0880051564	 0.0938967711	-0.459363
O	-2.6396441232	-2.5525486879	 0.9190165023	-0.461308
H	 0.8805154434	 2.0027240103	-0.1959636347	 0.106091
H	-0.4294771578	 1.5796020653	-1.3100916856	 0.127902
H	-0.8019849009	 2.0906582968	 0.34337814	 0.109136
H	 0.6891094478	-0.4808751383	-0.4430327581	 0.110385
H	 0.3617503372	 0.0072802954	 1.2147700487	 0.09341
H	-2.1485753592	-0.1272903802	 0.7159159835	 0.090723
H	-3.4589824746	-0.1356459974	-2.0658981614	 0.123507
H	-3.6467332782	-1.8864448573	-2.249515579	 0.095364
H	-4.007689478	-1.1270824227	-0.6925104061	 0.134711
H	-1.1790178624	-2.0526452766	-2.7494558842	 0.278942
H	 0.3858640667	-2.7571597531	-0.5889612904	 0.135041
H	 0.0268287985	-3.1972045146	 1.09697858	 0.125584
H	-0.727080907	-4.0826115807	-0.2360426413	 0.096285
H	-2.9644745521	-3.388471443	 0.5646848631	 0.275413
58.87	131.1471	180.098	183.8759	190.704	216.3785	231.1239	265.8765	282.4715	305.4099	317.9521	333.0648	390.2121	441.2697	479.256	505.1528	599.5879	687.9594	713.261	778.6092	853.0396	948.8259	960.1134	991.1118	1000.3221	1053.4479	1072.3557	1101.3803	1114.7352	1150.9022	1157.3158	1210.2667	1260.9192	1280.356	1294.0573	1324.1154	1349.9481	1375.5367	1402.6982	1407.8079	1411.0741	1461.383	1481.8198	1491.6182	1494.1597	1496.2831	1498.4963	1507.5872	1513.3588	3013.0444	3017.0447	3024.375	3031.2715	3081.7818	3083.0431	3084.7118	3102.3379	3110.4191	3130.0171	3137.9462	3143.5491	3782.3074	3791.6609
CCC1C(C)(O)C1(C)O	CC[C@H]1[C@@](C)(O)[C@]1(C)O	
InChI=1S/C7H14O2/c1-4-5-6(2,8)7(5,3)9/h5,8-9H,4H2,1-3H3	InChI=1S/C7H14O2/c1-4-5-6(2,8)7(5,3)9/h5,8-9H,4H2,1-3H3/t6-,7-/m1/s1
