16
gdb 44224	4.18889	1.27121	1.19082	3.0803	71.01	-0.2489	0.004	0.2529	1060.2805	0.124231	-437.831952	-437.824712	-437.823768	-437.863803	28.213	
N	 0.1893845742	 0.9445623001	-0.6040748245	-0.541857
C	 0.0413676504	-0.1901150009	-0.0998548213	 0.434479
O	 0.9716317239	-1.0862093083	 0.4178849704	-0.266885
C	-0.07603625	-2.0312304712	 0.7971944847	-0.063939
C	-1.1443149061	-1.0962674666	 0.1941614991	-0.014186
O	-1.4086803504	-2.0333121081	-0.8742059308	-0.316313
C	-0.4636797879	-2.9695973174	-0.3239824338	 0.451492
C	 0.3667102592	-3.8718841598	-1.1649667133	-0.326228
C	-0.7400079413	-4.4365387071	-0.2842650178	-0.340824
H	 1.1741664663	 1.2132965414	-0.6489169356	 0.233538
H	 0.0262340763	-2.3713805611	 1.8250987077	 0.110988
H	-2.0426733425	-0.6944261121	 0.6596375789	 0.115743
H	 0.1829927457	-3.8409542546	-2.2332168469	 0.137288
H	 1.4014700395	-4.0334957204	-0.8832843087	 0.130451
H	-0.4676903167	-4.9900932255	 0.6085674469	 0.121993
H	-1.6463417207	-4.7742018885	-0.774526755	 0.134262
80.5811	179.4274	210.588	285.4611	371.2139	415.6273	478.0977	593.1663	684.9928	739.8419	761.2559	813.4873	865.4855	875.9435	884.6134	918.6419	948.2156	965.235	990.2495	999.6484	1008.0762	1039.4889	1053.8814	1070.1592	1161.9524	1184.9108	1205.4385	1227.4562	1249.6209	1297.7523	1316.2772	1397.9137	1449.0689	1498.9487	1829.368	3131.9011	3134.5852	3138.3446	3149.2614	3218.3728	3232.3203	3474.3278
N=C1OC2C1OC21CC1	[NH][C]1O[C@H]2[C@@H]1OC12CC1	
InChI=1S/C6H7NO2/c7-5-3-4(8-5)6(9-3)1-2-6/h3-4,7H,1-2H2	InChI=1S/C6H7NO2/c7-5-3-4(8-5)6(9-3)1-2-6/h3-4,7H,1-2H2/t3-,4-/m0/s1
