20
gdb 98852	2.85475	1.18255	0.89382	1.8514	77.04	-0.2181	0.0119	0.2301	1343.1562	0.169532	-440.290911	-440.281069	-440.280125	-440.326682	34.402	
C	-0.5686700333	 1.2783888536	-0.7234349823	-0.240252
O	-0.6982555197	-0.1491310424	-0.6901830815	-0.233972
C	-0.8931591543	-0.6846193281	 0.532319885	 0.45713
O	-0.9229305337	-0.041253465	 1.5501582047	-0.363897
C	-1.0858816552	-2.1846530158	 0.423866554	-0.070681
C	-1.5173466503	-2.9512284795	 1.690189474	-0.256193
C	-2.5617892719	-3.6411650312	 0.7793262137	-0.162327
N	-2.3617782567	-2.5710709827	-0.2194943477	-0.068488
C	-2.3574713481	-2.9092279365	-1.6248772192	-0.326896
H	-0.4137775797	 1.5390118066	-1.7704370149	 0.13223
H	-1.4741051854	 1.755740215	-0.3401449988	 0.142659
H	 0.281758834	 1.6017407212	-0.1180223051	 0.140973
H	-0.2042080368	-2.6266972761	-0.0701455416	 0.077914
H	-0.7677108743	-3.5867371296	 2.1603077951	 0.107619
H	-1.9537807294	-2.2826359917	 2.4322189162	 0.133728
H	-2.2159939802	-4.6263727332	 0.4255604161	 0.084836
H	-3.5885816151	-3.7388931441	 1.146422948	 0.105511
H	-3.3613015975	-3.2206783668	-1.9326778178	 0.120048
H	-2.0780392735	-2.0287900749	-2.2103812439	 0.132383
H	-1.6533551291	-3.7274614589	-1.8710396841	 0.087673
36.6858	101.4017	107.6516	113.9421	187.831	225.1965	251.1875	286.1606	335.4753	363.8644	427.3884	600.9375	674.4089	780.8219	805.8669	849.4358	939.6352	956.0422	984.1841	998.3214	1052.8141	1095.8571	1143.5162	1164.3716	1177.9556	1197.0937	1206.2955	1219.1296	1224.1841	1235.7822	1257.198	1289.5035	1332.6892	1387.9706	1446.6386	1472.8348	1481.0261	1488.2172	1491.2908	1496.9373	1498.5806	1523.0586	1824.751	2920.6946	2957.5721	2969.338	3051.938	3062.418	3063.8981	3099.4466	3112.7255	3127.0135	3157.9742	3158.7066
COC(=O)C1CCN1C	COC(=O)[C@H]1CCN1C	
InChI=1S/C6H11NO2/c1-7-4-3-5(7)6(8)9-2/h5H,3-4H2,1-2H3	InChI=1S/C6H11NO2/c1-7-4-3-5(7)6(8)9-2/h5H,3-4H2,1-2H3/t5-/m1/s1
