19
gdb 59380	4.34364	0.88978	0.84662	1.2779	78.24	-0.2596	0.0176	0.2773	1414.6481	0.157097	-422.974569	-422.965105	-422.964161	-423.009265	35.136	
C	 0.269663257	 1.5225141487	 0.1464299053	-0.407146
C	 0.1305666565	-0.0010759043	 0.1829938488	 0.110167
O	 0.4208255426	-0.5205815289	 1.4734336953	-0.436618
C	-1.2621748153	-0.4504452584	-0.2532303335	 0.14269
C	-1.5913284639	-1.9523512525	-0.1522945561	-0.316227
C	-2.6694657537	-1.5144845609	 0.8740148265	-0.046834
O	-2.2388363863	-0.1267096993	 0.7787437182	-0.31991
C	-4.0585466362	-1.7083776372	 0.4928209648	 0.336959
C	-5.2045108299	-1.8816656386	 0.1741645612	-0.451613
H	 1.2480900203	 1.8181874522	 0.532866273	 0.12479
H	 0.1658879786	 1.9054504216	-0.8743199105	 0.113006
H	-0.5049148835	 1.9896528475	 0.764162048	 0.130124
H	 0.8647387262	-0.4574074507	-0.4935190778	 0.089214
H	-0.3023739253	-0.2181643073	 2.0384328239	 0.286632
H	-1.5370991298	 0.0136933858	-1.2088185195	 0.081348
H	-1.9745413148	-2.4231816976	-1.056379787	 0.119888
H	-0.7914506495	-2.5492451881	 0.2852687692	 0.130307
H	-2.5069731153	-1.8948124927	 1.8894931067	 0.109545
H	-6.2190685975	-2.0315242691	-0.1022372167	 0.203681
44.7624	98.7289	121.6263	194.093	230.5332	257.431	283.054	357.3009	436.0378	483.7227	516.3208	531.7061	624.1982	666.4799	675.5278	732.6758	785.3436	877.2114	920.5166	940.7084	983.7263	1009.3634	1014.0191	1046.1114	1081.9611	1100.6723	1142.4361	1175.7094	1251.7136	1261.2338	1281.6091	1310.2722	1337.4061	1362.4757	1391.9601	1404.1433	1425.6316	1479.1482	1493.4844	1499.0948	2235.3195	3024.7328	3032.0046	3035.6186	3037.2351	3098.3922	3105.9014	3124.5946	3163.206	3502.1596	3768.313
CC(O)C1CC(O1)C#C	C[C@@H](O)[C@H]1C[C@@H](O1)C#C	
InChI=1S/C7H10O2/c1-3-6-4-7(9-6)5(2)8/h1,5-8H,4H2,2H3	InChI=1S/C7H10O2/c1-3-6-4-7(9-6)5(2)8/h1,5-8H,4H2,2H3/t5-,6+,7-/m1/s1
