15
gdb 18783	3.84875	2.35001	1.91759	2.682	63.92	-0.2461	-0.0311	0.2149	723.8719	0.120862	-362.620283	-362.614441	-362.613497	-362.650112	23.278	
O	 0.0292274943	 0.0084987739	-0.0617556719	-0.305646
C	-0.002187146	 1.2014255905	 0.0242597538	 0.423424
C	-1.1145275738	 2.2512037865	 0.0431094959	-0.123424
C	-1.3076642159	 2.8892881528	 1.4405493009	-0.253172
C	-0.0341380017	 3.712389201	 1.1635177614	 0.020791
C	 1.3012369995	 2.9647034019	 1.3475038282	-0.253171
C	 1.0462556142	 2.3136628834	-0.0339522958	-0.123424
N	-0.0760022963	 3.3255753434	-0.3238620725	-0.158269
H	-1.9846312263	 2.0900401781	-0.5955650758	 0.102157
H	-2.1956145049	 3.5254831662	 1.4525059704	 0.12494
H	-1.3324902944	 2.2302542317	 2.3120608734	 0.117446
H	-0.0554447298	 4.7716363349	 1.4246346054	 0.083804
H	 2.1495990409	 3.6510908694	 1.2975329778	 0.12494
H	 1.4260147301	 2.3099961402	 2.2136811091	 0.117446
H	 1.8765362202	 2.2016478461	-0.7332706304	 0.102157
144.7388	241.8485	352.3059	442.8482	541.7794	626.3301	703.9944	732.2045	821.0078	871.944	880.5551	890.3807	923.5514	946.0934	971.961	985.8652	1001.0246	1069.01	1112.9619	1113.2119	1136.8453	1154.312	1193.5838	1232.8035	1239.3957	1261.8404	1282.5723	1311.7524	1347.1923	1477.6353	1491.3837	1890.6073	3062.6117	3062.8619	3092.5975	3100.8177	3102.8335	3116.6998	3120.3856
O=C1C2CC3CC1N23	O=C1[C@H]2C[C@H]3C[C@@H]1N23	
InChI=1S/C6H7NO/c8-6-4-1-3-2-5(6)7(3)4/h3-5H,1-2H2	InChI=1S/C6H7NO/c8-6-4-1-3-2-5(6)7(3)4/h3-5H,1-2H2/t3-,4+,5-
