23
gdb 93683	3.12009	1.12357	1.02923	1.225	88.22	-0.2439	0.0141	0.258	1314.6768	0.20531	-388.318839	-388.309219	-388.308274	-388.352568	37.776	
C	-0.0559888837	 1.5725419522	 0.0092859664	-0.401137
C	 0.0154550766	 0.0380564491	 0.0032528462	-0.009852
C	 0.682690452	-0.5002002954	-1.2717633487	-0.213863
C	 0.9853326808	-1.9959629076	-1.1552546664	-0.225384
C	 1.9743898601	-2.2763534836	-0.014714835	 0.350919
C	 2.0495187048	-3.7755600632	 0.3018507683	-0.425969
O	 3.2587370959	-1.8367837926	-0.5046738452	-0.469783
C	 1.5930571468	-1.4916174161	 1.2231642638	-0.122219
C	 0.7243994921	-0.4815706743	 1.2305718676	-0.054463
H	 0.9483155606	 2.0096591195	-0.0090704469	 0.119373
H	-0.5990157737	 1.9397878044	-0.8677313186	 0.112253
H	-0.5683995536	 1.9456227659	 0.9025806786	 0.108919
H	-1.0211952723	-0.3368579999	 0.0367673973	 0.079939
H	 0.0448716743	-0.3012961308	-2.1400358968	 0.084056
H	 1.6273625181	 0.0317748938	-1.4340983557	 0.111611
H	 0.0598403127	-2.5549642344	-0.9699856526	 0.089575
H	 1.4184195979	-2.3799154584	-2.0847020666	 0.100725
H	 2.344124129	-4.3337216103	-0.591821352	 0.119328
H	 2.7954003632	-3.9663440939	 1.0821710563	 0.100251
H	 1.0865602188	-4.1580266737	 0.6559249791	 0.114112
H	 3.8412697979	-1.7262654897	 0.2540967761	 0.272548
H	 2.0708346786	-1.8019472189	 2.1524262012	 0.076071
H	 0.495816983	 0.0195827077	 2.1703565636	 0.08299
70.3503	190.0025	210.1994	214.5153	246.1451	248.9496	306.7942	320.4295	334.8515	395.0196	440.9816	471.5559	534.1603	586.5196	682.697	735.974	757.3056	812.5504	899.4729	911.6083	945.8678	960.2795	973.2041	1005.9637	1036.4503	1037.6342	1082.5559	1113.7208	1138.9651	1148.8674	1187.4221	1211.0222	1250.8619	1267.4394	1321.7476	1338.2093	1359.8707	1375.4241	1394.787	1398.2605	1405.8413	1428.6486	1476.3121	1486.7393	1490.0169	1491.0372	1497.3436	1501.267	1715.1051	2961.4958	3025.11	3027.2882	3031.5996	3035.0067	3075.3231	3082.6658	3094.2478	3096.7832	3100.92	3112.1226	3115.6143	3142.0147	3809.7243
CC1CCC(C)(O)C=C1	C[C@H]1CC[C@@](C)(O)C=C1	
InChI=1S/C8H14O/c1-7-3-5-8(2,9)6-4-7/h3,5,7,9H,4,6H2,1-2H3	InChI=1S/C8H14O/c1-7-3-5-8(2,9)6-4-7/h3,5,7,9H,4,6H2,1-2H3/t7-,8+/m1/s1
