24
gdb 120728	2.80767	0.91491	0.77196	3.0346	87.07	-0.2344	0.0772	0.3116	1586.3354	0.215998	-405.518946	-405.508355	-405.507411	-405.554808	39.292	
C	 0.3432983897	 1.3061814963	 0.4401325505	-0.386167
C	 0.0993955436	-0.1737497257	 0.7779268323	 0.007202
C	 0.1904666453	-0.4124402919	 2.2921914895	-0.399248
C	-1.2526616626	-0.5983574611	 0.2271400963	 0.033438
C	-1.413002304	-0.9919090334	-1.2016360711	-0.265184
N	-1.6207801627	-1.9718753825	-0.143996616	-0.115958
C	-0.6960322771	-3.0992856903	-0.0232238913	-0.157027
C	-1.1660096048	-3.9848803274	 1.1331634	-0.050283
O	-2.5143984559	-4.362424192	 0.9611802644	-0.422477
H	 1.312058472	 1.6396316367	 0.8256527278	 0.113299
H	 0.3290986001	 1.4768852383	-0.6405719876	 0.116404
H	-0.4285714974	 1.9421701062	 0.8891698887	 0.116243
H	 0.8835741666	-0.7599000647	 0.2832280687	 0.075901
H	 1.1607847279	-0.0879639148	 2.6818668159	 0.113037
H	-0.5856397305	 0.1529638572	 2.8211217827	 0.116627
H	 0.0614491888	-1.4685715958	 2.5451534947	 0.126197
H	-2.0828001471	-0.0645542893	 0.69265537	 0.087992
H	-2.2922948052	-0.707647106	-1.7747960972	 0.113968
H	-0.4985245104	-1.0731835167	-1.7895643624	 0.106692
H	-0.7642551426	-3.6746859014	-0.9535794995	 0.111174
H	 0.3563966374	-2.8096293593	 0.1123418736	 0.088921
H	-0.5648964351	-4.9002857567	 1.1709491394	 0.100525
H	-1.0184810885	-3.4543986628	 2.0895873497	 0.085065
H	-2.9520883875	-3.5569936129	 0.6501657311	 0.283657
61.6463	70.9951	119.0342	168.4462	190.7309	217.9344	236.1402	288.3325	326.1408	336.867	387.8008	468.9962	513.2149	532.5537	551.5031	723.9854	781.0388	887.8065	894.9466	907.5513	930.9058	964.1667	974.6633	985.8754	1042.9803	1089.3043	1095.3012	1119.2514	1134.1697	1146.3248	1166.7224	1185.9912	1212.2168	1237.6306	1269.9253	1311.0103	1332.4777	1343.0315	1377.4695	1381.4923	1400.5167	1418.0415	1434.1347	1447.265	1481.6033	1487.3071	1490.5283	1502.8066	1507.6282	1511.0174	1514.4689	2957.6439	2994.01	3027.7872	3028.768	3033.4483	3059.336	3068.3363	3081.8929	3089.0855	3092.6025	3100.5335	3107.2383	3113.6429	3167.2223	3728.8913
CC(C)C1CN1CCO	CC(C)[C@H]1CN1CCO	
InChI=1S/C7H15NO/c1-6(2)7-5-8(7)3-4-9/h6-7,9H,3-5H2,1-2H3	InChI=1S/C7H15NO/c1-6(2)7-5-8(7)3-4-9/h6-7,9H,3-5H2,1-2H3/t7-,8?/m1/s1
