22
gdb 116476	3.07559	1.11527	0.86921	2.1287	84.85	-0.2388	0.0179	0.2567	1393.5705	0.195316	-404.364742	-404.355557	-404.354613	-404.399256	34.425	
C	 0.1961739836	 1.5196933704	 0.1327274708	-0.384059
C	 0.0556120569	-0.0030824368	 0.1230836577	-0.170308
C	-1.3916787147	-0.4840404229	-0.0894464686	 0.063354
C	-1.4415865872	-2.0070885809	-0.2847306065	-0.20546
C	-2.8121489595	-2.52842803	-0.7156184062	-0.221944
C	-3.8599665393	-2.4465896235	 0.3838154164	-0.059207
O	-4.2878560151	-1.1292810737	 0.7447191578	-0.22973
C	-3.4099854357	-0.2194574981	 1.2527629422	 0.112762
N	-2.213124409	 0.0613389153	 0.9844336183	-0.246935
H	 1.2312471785	 1.8192863071	 0.324297125	 0.103864
H	-0.1017450001	 1.949498215	-0.830947966	 0.104032
H	-0.4413918366	 1.9554133018	 0.905505657	 0.136112
H	 0.6861122833	-0.4301235826	-0.6667009925	 0.084163
H	 0.4178691904	-0.4153034042	 1.0736532987	 0.095832
H	-1.7601804113	-0.0262335205	-1.0234768565	 0.083766
H	-0.6977707828	-2.2749975344	-1.0439429353	 0.097135
H	-1.1315442292	-2.5024143782	 0.6457767891	 0.096627
H	-3.1676221549	-1.984812726	-1.6003744485	 0.105893
H	-2.7328322364	-3.5841984838	-1.0040153179	 0.100809
H	-4.7807523123	-2.9487557214	 0.075645206	 0.115189
H	-3.4862743874	-2.9489254887	 1.2876717232	 0.104631
H	-3.9307670912	 0.3780080659	 2.0039544757	 0.113475
41.8794	98.4235	156.4223	191.3911	219.1459	304.8995	317.0162	364.2711	401.3522	437.3149	513.7733	556.0195	743.756	773.6976	791.339	852.1109	893.4584	914.3975	947.4337	967.0867	989.8288	1028.9107	1038.5061	1086.7836	1110.0023	1140.0151	1151.8447	1161.7612	1216.913	1262.5806	1287.9656	1304.4306	1322.1124	1369.6313	1376.3209	1380.5875	1390.2278	1404.4178	1421.1374	1437.1438	1472.8137	1475.5037	1485.1616	1493.9089	1498.5036	1511.0999	1757.1786	2957.642	3005.5572	3013.9281	3022.3756	3022.5301	3031.906	3055.2743	3064.0435	3068.6047	3094.87	3095.3673	3113.6265	3127.6372
CCC1CCCOC=N1	CC[C@H]1CCCOC=N1	
InChI=1S/C7H13NO/c1-2-7-4-3-5-9-6-8-7/h6-7H,2-5H2,1H3	InChI=1S/C7H13NO/c1-2-7-4-3-5-9-6-8-7/h6-7H,2-5H2,1H3/t7-/m0/s1
