18
gdb 50218	4.05472	1.31689	1.22314	2.4777	75.77	-0.2457	-0.0257	0.22	1050.0549	0.148973	-401.896797	-401.889748	-401.888804	-401.928755	27.749	
O	-0.6495661739	 0.8245295993	-0.618041135	-0.240159
C	 0.1481809987	 1.0147472559	 0.2642583146	 0.146936
C	 1.3602075002	 1.9219738237	 0.1613143283	-0.056015
C	 1.4007504274	 2.854785699	-1.0718181143	-0.284931
C	 1.4409047782	 4.1780765712	-0.3187630262	-0.004941
C	 2.3295984972	 3.9787605787	 0.9517714131	-0.021042
C	 1.4400940555	 4.947646087	 1.7495455187	-0.232677
C	 0.5041715594	 4.0501406714	 0.9224225254	-0.028509
N	 1.3711503199	 2.8480115895	 1.3292077397	-0.149524
H	 0.0424707519	 0.5263688139	 1.2575390334	 0.092093
H	 2.2448768304	 1.2747314971	 0.2407801166	 0.098261
H	 2.283121546	 2.6962832558	-1.6981097396	 0.102196
H	 0.5104434821	 2.7353936973	-1.6946672387	 0.128526
H	 1.4824173896	 5.1117389712	-0.8838317804	 0.071254
H	 3.4112896935	 3.8348056335	 1.0030662529	 0.079755
H	 1.4174409268	 4.7999956478	 2.8298569543	 0.110183
H	 1.4851796191	 6.0009282074	 1.4685554814	 0.099553
H	-0.585850412	 3.9914325804	 0.9408452258	 0.089038
58.9548	151.5822	216.6272	341.4769	389.9399	447.0288	621.1408	700.1577	720.2893	750.8796	801.1904	828.4093	841.6554	879.8556	922.5169	937.782	961.9807	990.4155	1024.2544	1031.452	1049.7811	1059.2705	1094.4374	1114.6048	1122.685	1140.9942	1177.0884	1203.9101	1231.0977	1235.8818	1254.8128	1275.3046	1295.9307	1331.5456	1346.7711	1410.936	1497.7832	1500.6205	1828.9015	2899.8619	3016.3687	3062.0098	3076.458	3087.9127	3092.9196	3104.7848	3110.3737	3150.8815
O=CC1CC2C3CC2N13	O=C[C@H]1C[C@@H]2[C@H]3C[C@@H]2N13	
InChI=1S/C7H9NO/c9-3-4-1-5-6-2-7(5)8(4)6/h3-7H,1-2H2	InChI=1S/C7H9NO/c9-3-4-1-5-6-2-7(5)8(4)6/h3-7H,1-2H2/t4-,5-,6-,7+/m1/s1
