26
gdb 58242	2.55283	1.05783	0.84369	1.2002	92.9	-0.2195	0.0825	0.302	1516.5697	0.238717	-369.588915	-369.577855	-369.576911	-369.624726	41.624	
C	-1.1108287374	 0.4408326497	 3.6100875857	-0.401862
C	-0.8874652408	-0.8609209356	 2.8235033327	 0.048888
C	-1.0042293732	-2.0603122374	 3.7771692406	-0.393426
C	-1.8346093251	-0.9757849138	 1.5972684761	 0.012218
C	-1.6994157461	 0.235282108	 0.654885935	-0.410095
C	-1.5596600927	-2.2520739445	 0.8113779521	 0.024096
C	-2.2436328123	-3.5472484984	 1.0935161761	-0.262037
N	-2.4903264718	-2.8451894074	-0.1583639231	-0.097125
C	-3.8208030501	-2.2899866943	-0.356105532	-0.313874
H	-0.4597575509	 0.4713308854	 4.4898177175	 0.109656
H	-0.8993012139	 1.3331282439	 3.016272466	 0.115416
H	-2.1463740713	 0.5110546497	 3.9654632772	 0.109783
H	 0.141712782	-0.842932215	 2.4335143309	 0.069904
H	-2.0252451676	-2.1535676929	 4.1671647065	 0.107009
H	-0.7453208435	-3.0032533638	 3.2913350959	 0.122258
H	-0.3365064357	-1.932040927	 4.6355139479	 0.106761
H	-2.8629495054	-1.0064302282	 1.9816240951	 0.066667
H	-2.3060323287	 0.1040300248	-0.2445736649	 0.119524
H	-2.0159085204	 1.1654681576	 1.1325979842	 0.115254
H	-0.6585285181	 0.3601887814	 0.3328515151	 0.113622
H	-0.5277110376	-2.3065223474	 0.4581659153	 0.083253
H	-1.7136915057	-4.4945650078	 1.0222812886	 0.109015
H	-3.0324728	-3.5299551286	 1.8460613861	 0.101337
H	-4.2951089522	-1.8832404056	 0.5509250213	 0.100071
H	-3.7823894792	-1.4965821991	-1.1092658919	 0.122683
H	-4.4693520825	-3.0836434537	-0.7417251938	 0.121005
59.5005	79.059	152.277	201.2578	204.3134	215.9699	228.9727	255.3268	297.5902	342.2883	355.5807	377.2264	398.1663	451.446	496.935	544.813	742.5974	808.8383	827.0682	912.212	929.6941	932.5014	965.2955	966.343	997.4844	1035.392	1047.411	1105.9785	1125.2402	1133.3123	1142.1492	1164.9676	1182.8335	1193.2383	1205.085	1211.4227	1280.4549	1319.453	1338.6863	1352.2735	1373.1271	1399.9547	1408.3609	1422.9863	1426.6945	1450.3636	1486.5468	1490.2414	1490.8245	1499.028	1500.7066	1503.9409	1507.6817	1514.574	1520.2751	2975.4909	2987.7954	3018.7503	3026.1115	3032.0332	3036.7676	3064.2545	3078.0619	3078.4576	3086.408	3093.7266	3097.0369	3105.9282	3115.9946	3124.357	3126.906	3160.7017
CC(C)C(C)C1CN1C	CC(C)[C@@H](C)[C@H]1CN1C	
InChI=1S/C8H17N/c1-6(2)7(3)8-5-9(8)4/h6-8H,5H2,1-4H3	InChI=1S/C8H17N/c1-6(2)7(3)8-5-9(8)4/h6-8H,5H2,1-4H3/t7-,8-,9?/m1/s1
