19
gdb 82362	2.14197	1.80768	1.36947	3.2678	74.25	-0.2338	-0.0273	0.2065	1029.94	0.15882	-423.018163	-423.009905	-423.00896	-423.05099	31.629	
C	-0.696965217	 1.3480008309	-0.0013592622	-0.41342
C	-0.0526148859	-0.0386848145	-0.0952240183	-0.031323
C	 1.0386565702	-0.1810725986	-1.1475502138	-0.075632
C	 2.4057444282	 0.4329461587	-0.8761441606	-0.334682
C	 2.1242857112	-1.0009150299	-0.5261712756	 0.108408
O	 1.7958713823	-1.3015216568	 0.8105483818	-0.246148
C	 0.6644362561	-0.5521012194	 1.2074498117	-0.009808
C	 1.0243755405	 0.5651222514	 2.183321274	 0.148689
O	 2.1234419631	 1.0227580327	 2.3517785539	-0.240437
H	 0.046873411	 2.123726404	 0.2053115192	 0.134988
H	-1.181774045	 1.6001439261	-0.9492071936	 0.12257
H	-1.4627033459	 1.3904508769	 0.780372002	 0.117634
H	-0.8358379486	-0.7652713898	-0.3407979278	 0.089508
H	 0.7271455497	-0.3320494635	-2.174847253	 0.091788
H	 3.0302516701	 0.6202369155	-1.743404933	 0.113199
H	 2.5392785607	 1.1319795272	-0.0592619203	 0.146234
H	 2.633219091	-1.824870722	-1.0113983787	 0.102201
H	-0.0057266445	-1.2213143656	 1.7674428304	 0.098615
H	 0.1505867028	 0.9304920767	 2.7724649538	 0.077615
90.7445	111.2354	192.2112	263.576	270.1675	278.6218	354.9308	435.0318	483.3834	626.8007	681.2755	734.5729	757.8671	788.6809	820.4297	887.3239	916.8799	971.421	981.0347	1003.3214	1020.2842	1047.5076	1076.4265	1090.6161	1107.3953	1134.0927	1152.7578	1172.8031	1209.6389	1256.2577	1313.8083	1332.4456	1350.7269	1381.7506	1389.3643	1412.6982	1424.7119	1481.3554	1497.5233	1506.0759	1838.0384	2853.9129	2996.7143	3034.477	3036.6115	3102.3861	3113.5398	3138.0068	3171.0448	3189.1153	3232.2827
CC1C2CC2OC1C=O	C[C@H]1[C@H]2C[C@H]2O[C@H]1C=O	
InChI=1S/C7H10O2/c1-4-5-2-6(5)9-7(4)3-8/h3-7H,2H2,1H3	InChI=1S/C7H10O2/c1-4-5-2-6(5)9-7(4)3-8/h3-7H,2H2,1H3/t4-,5+,6+,7-/m0/s1
