16
gdb 20581	3.28213	1.99025	1.25831	2.2731	67.56	-0.2099	0.0342	0.2441	942.4689	0.130601	-379.959632	-379.951121	-379.950177	-379.992905	30.162	
C	-0.1079771752	 1.5002211359	 0.1376575743	-0.502563
C	-0.0105608662	 0.0218060986	-0.0506884404	 0.303442
C	 0.0367329313	-0.754610521	-1.1980499653	 0.038704
C	-0.0149898323	-0.3327850236	-2.6323202494	-0.510915
C	 0.1523137274	-2.0741157754	-0.6976727701	 0.362624
O	 0.2271829369	-3.1817305979	-1.4697634709	-0.43077
N	 0.1753223395	-2.1382593688	 0.622846593	-0.342557
N	 0.0766029393	-0.835348806	 0.9983564477	-0.273938
H	 0.879205853	 1.970068842	 0.2239268793	 0.140552
H	-0.6172924151	 1.9635206832	-0.7111416271	 0.142801
H	-0.6740402152	 1.7503413399	 1.0411483807	 0.127593
H	 0.9700252045	-0.3777724946	-3.1129391547	 0.129263
H	-0.6799616557	-0.9830785955	-3.209828292	 0.135247
H	-0.3802673691	 0.6936657031	-2.7342801655	 0.114968
H	 0.2777149398	-3.9382417455	-0.872346177	 0.300207
H	 0.0573681271	-0.6115686644	 1.9775188074	 0.265341
62.1182	79.3554	164.4757	237.8808	265.4402	283.7457	320.2329	395.7872	434.5433	511.5091	580.3513	656.2131	708.2166	732.6261	791.5942	955.9527	996.9544	1054.2564	1067.5093	1119.0202	1166.2179	1226.3738	1272.2971	1317.1123	1415.0755	1424.5116	1457.2133	1480.3564	1483.8857	1490.085	1501.4869	1540.0407	1565.9943	1650.3291	3024.8796	3028.582	3077.003	3083.5061	3104.3406	3117.9478	3686.556	3795.8248
CC1=C(C)C(O)=NN1	Cc1c(C)c(O)n[nH]1	
InChI=1S/C5H8N2O/c1-3-4(2)6-7-5(3)8/h1-2H3,(H2,6,7,8)	InChI=1S/C5H8N2O/c1-3-4(2)6-7-5(3)8/h1-2H3,(H2,6,7,8)
