22
gdb 113760	2.7304	0.96878	0.82103	2.8039	83.98	-0.2376	-0.022	0.2156	1492.1521	0.191177	-404.329414	-404.318869	-404.317925	-404.365871	37.661	
C	 0.3617619724	 1.3966512456	-0.8084173475	-0.389971
C	 0.4289991336	 0.1035620223	 0.012792223	-0.204007
C	-0.9293688769	-0.5181073536	 0.2840238117	 0.029065
C	-1.084839767	-1.6222909019	 1.2713406169	-0.272624
N	-1.7257634175	-0.3285277519	 1.5069186941	-0.098393
C	-1.2403050202	 0.4652051481	 2.6292063686	-0.037333
C	-1.713023998	 1.9214393972	 2.5013734016	-0.414195
C	-1.8539094868	-0.1184259984	 3.8977507327	 0.171686
O	-1.2995054232	-0.1596691612	 4.9644958311	-0.252349
H	 1.3653812705	 1.7732084283	-1.0275378306	 0.117777
H	-0.1457788222	 1.2262610146	-1.764061317	 0.120656
H	-0.1832620569	 2.1869843445	-0.2839248664	 0.128957
H	 1.0225589044	-0.6359423673	-0.5403279736	 0.108668
H	 0.9683719933	 0.275153094	 0.9501218854	 0.10582
H	-1.563460276	-0.5587540962	-0.6022243631	 0.090302
H	-1.7496799522	-2.4607883243	 1.081118669	 0.115956
H	-0.2071812075	-1.8673000948	 1.8700291718	 0.114272
H	-0.1486110503	 0.4395763464	 2.7651301851	 0.082486
H	-1.3716636601	 2.5091938155	 3.3578410104	 0.132814
H	-1.3172222275	 2.3742707842	 1.5891960849	 0.133234
H	-2.8052512767	 1.9650186911	 2.4514512399	 0.13106
H	-2.8947093652	-0.4883115421	 3.757036472	 0.086119
42.3628	57.5782	111.9889	149.7706	170.3683	209.2363	228.0158	278.6248	287.2853	353.0542	412.2251	477.6353	492.1668	542.0002	746.2999	769.337	823.9411	883.3867	908.4375	942.5101	962.1615	1013.4739	1046.9793	1054.2525	1089.9087	1109.68	1118.8853	1143.091	1159.4818	1187.6605	1197.1603	1288.3003	1303.598	1324.5143	1333.7106	1350.7188	1391.8823	1407.3124	1416.6406	1428.4421	1482.7218	1486.1097	1494.3164	1501.2718	1506.4532	1511.0691	1838.3049	2883.576	2988.6174	3027.1249	3038.3573	3046.8888	3069.2681	3084.6869	3097.6005	3107.9625	3112.8626	3122.2351	3130.3511	3173.2049
CCC1CN1C(C)C=O	CC[C@H]1CN1[C@@H](C)C=O	
InChI=1S/C7H13NO/c1-3-7-4-8(7)6(2)5-9/h5-7H,3-4H2,1-2H3	InChI=1S/C7H13NO/c1-3-7-4-8(7)6(2)5-9/h5-7H,3-4H2,1-2H3/t6-,7-,8?/m0/s1
