16
gdb 35360	3.0511	1.43878	1.22955	3.0157	73.9	-0.2495	-0.004	0.2455	1032.0609	0.127119	-396.91737	-396.910109	-396.909165	-396.949297	27.829	
N	-0.440629818	-1.0518489884	-0.0228724661	-0.319495
C	-0.276560453	 0.092639995	-0.0217039005	 0.308035
C	-0.0637014994	 1.5364890477	-0.0096272204	-0.178694
N	-0.0244010857	 2.1454992334	 1.3677301955	-0.363517
C	 1.3750000197	 2.153815702	 1.3036179863	 0.388994
N	 2.3788257343	 1.9182283331	 2.0339322706	-0.295322
C	 3.4571367664	 1.6137348491	 1.0440672077	-0.160949
C	 2.7247604234	 1.1467354591	-0.2714426612	-0.270008
C	 1.4484422901	 1.9925404444	-0.184960763	-0.09839
H	-0.7819107808	 2.0244289394	-0.6718618312	 0.135759
H	-0.4999102018	 1.6975371124	 2.1440189878	 0.259013
H	 4.0841221943	 2.4972139498	 0.8662793313	 0.111252
H	 4.1021484285	 0.8317460793	 1.4520671058	 0.121074
H	 3.3097054284	 1.3149229503	-1.1782912888	 0.110544
H	 2.496806762	 0.0785564026	-0.2002453359	 0.13679
H	 1.4876462216	 2.9195702308	-0.7600533479	 0.114913
89.5059	140.2984	225.5164	298.6527	342.2948	424.8873	526.45	576.1807	617.7321	651.3765	731.7585	769.222	819.3024	847.504	903.7245	926.4392	950.9429	983.4452	1004.5176	1060.8489	1088.7323	1145.2481	1166.8203	1194.1748	1233.6761	1286.8881	1296.3188	1303.7984	1326.5786	1336.3046	1365.6571	1484.919	1503.3196	1779.5233	2352.6973	3025.696	3061.5918	3088.9793	3097.0122	3099.7196	3121.7289	3548.8543
N#CC1NC2=NCCC12	N#C[C@H]1N[C]2[N]CC[C@@H]12	
InChI=1S/C6H7N3/c7-3-5-4-1-2-8-6(4)9-5/h4-5H,1-2H2,(H,8,9)	InChI=1S/C6H7N3/c7-3-5-4-1-2-8-6(4)9-5/h4-5H,1-2H2,(H,8,9)/t4-,5+/m0/s1
