18
gdb 88933	2.9264	0.98635	0.90727	2.2123	74.55	-0.2491	-0.0763	0.1728	1358.6213	0.145964	-439.109417	-439.099892	-439.098948	-439.145272	33.616	
C	 0.1049723582	 1.5082886577	 0.3966011226	-0.408116
C	 0.1888130882	 0.0231327151	 0.1331265504	 0.022012
C	 1.4934598903	-0.6195293433	-0.2763736078	-0.337222
C	 0.9117308482	-0.910416883	 1.0803592735	 0.044573
N	 1.5858114498	-0.3960146808	 2.2338356679	-0.313526
C	 0.9554641972	-0.1511798192	 3.405156464	 0.30062
O	-0.2379334668	-0.2533025484	 3.6248342477	-0.359411
C	 1.9113211036	 0.293003744	 4.5163211	 0.102079
O	 3.1041491369	 0.3849624621	 4.3756995193	-0.249299
H	 1.0261127333	 1.8847398387	 0.8506382006	 0.11359
H	-0.0572352765	 2.0598357192	-0.535285617	 0.118848
H	-0.7208541527	 1.7376438311	 1.0772868173	 0.137003
H	-0.7059420113	-0.4077113944	-0.3072772424	 0.095094
H	 1.4962768536	-1.413682713	-1.0141339639	 0.121971
H	 2.3682536691	 0.0235499575	-0.3100835302	 0.116616
H	 0.4573666627	-1.8844841346	 1.2400039495	 0.112159
H	 2.593708727	-0.3244847627	 2.2503721115	 0.265999
H	 1.3868914392	 0.5161210342	 5.466507047	 0.117012
24.5732	68.5589	124.1941	173.5089	178.7816	228.955	268.0629	315.6821	414.8805	498.0409	549.559	563.1492	638.0092	700.2463	786.9206	822.934	843.2176	912.8436	970.935	1018.5672	1026.4029	1062.4486	1088.267	1105.4976	1144.8599	1185.6478	1194.5824	1245.9015	1273.2507	1362.8707	1383.2281	1411.3274	1421.3316	1486.6863	1493.1486	1502.465	1536.9641	1786.6159	1820.869	2954.2184	3037.2666	3101.7644	3110.1805	3128.336	3137.6691	3152.6845	3216.1896	3598.5137
CC1CC1NC(=O)C=O	C[C@H]1C[C@H]1NC(=O)C=O	
InChI=1S/C6H9NO2/c1-4-2-5(4)7-6(9)3-8/h3-5H,2H2,1H3,(H,7,9)	InChI=1S/C6H9NO2/c1-4-2-5(4)7-6(9)3-8/h3-5H,2H2,1H3,(H,7,9)/t4-,5+/m0/s1
