18
gdb 39427	2.47137	1.96581	1.3134	2.2251	71.27	-0.2461	0.0631	0.3092	978.8292	0.150189	-439.025147	-439.018018	-439.017074	-439.056515	28.5	
C	 0.0255159674	 1.4412254187	 0.0972734504	-0.10997
O	 1.3148969908	 1.9441786879	-0.2472823623	-0.253369
C	 2.2318586622	 2.0796788968	 0.8134014022	-0.109851
C	 2.4410353939	 0.9205531859	 1.7760292134	 0.034603
O	 1.3480515904	 0.5678628729	 2.6289801459	-0.237311
C	 1.8338680137	-0.4270245633	 1.7314924418	 0.044735
C	 0.913638981	-0.9280694389	 0.6554899173	-0.046044
N	-0.5346716796	-0.9193416001	 0.9412155602	-0.327909
C	 0.0035570942	-0.0578476019	-0.1242951611	-0.036289
H	-0.2391457797	 1.6704243362	 1.1332358993	 0.133006
H	-0.6872130245	 1.9393703698	-0.5686181703	 0.100623
H	 3.1944792949	 2.3018549316	 0.3387988475	 0.113124
H	 1.9704618017	 2.9502804435	 1.4405738085	 0.10423
H	 3.3918333601	 1.0137535811	 2.3092453355	 0.091999
H	 2.3859440713	-1.2263174342	 2.2322217882	 0.0918
H	 1.3176438785	-1.7958013607	 0.1366479939	 0.085763
H	-0.9762932823	-1.7435076187	 0.5420213393	 0.233961
H	-0.1688793439	-0.3631302765	-1.1548772197	 0.086898
133.4541	212.5092	254.6654	319.3029	344.0431	372.1957	451.9938	516.1221	669.7593	721.3488	757.9577	790.2582	832.4403	861.5274	911.0799	943.1237	960.0987	982.3084	1003.1717	1015.1232	1068.7646	1110.3472	1127.6319	1154.5587	1181.2326	1192.588	1240.4542	1262.4231	1287.296	1309.0662	1330.9625	1371.4373	1400.3236	1414.7212	1425.5848	1478.891	1482.4988	1485.3412	1501.0913	2954.8244	3042.51	3056.2585	3067.6757	3077.8299	3099.8346	3117.5587	3127.9776	3503.3534
C1OCC2OC2C2NC12	C1OC[C@H]2O[C@H]2[C@H]2N[C@@H]12	
InChI=1S/C6H9NO2/c1-3-5(7-3)6-4(9-6)2-8-1/h3-7H,1-2H2	InChI=1S/C6H9NO2/c1-3-5(7-3)6-4(9-6)2-8-1/h3-7H,1-2H2/t3-,4+,5-,6+/m0/s1
