18
gdb 91847	3.52782	1.18566	1.1021	5.2546	76.55	-0.2743	0.0345	0.3088	1139.5208	0.149401	-401.967839	-401.959898	-401.958954	-402.000056	31.145	
O	-0.695794532	 1.1335739169	 0.9360145553	-0.423705
C	-0.0155490181	 0.166861446	 0.1365266346	 0.07984
C	 0.8952471846	-0.7648664495	 0.9739148061	-0.247042
C	 0.0190800595	-1.9308886303	 1.4022292852	-0.07249
C	-1.3424956069	-1.6375797147	 1.9616701732	-0.322046
C	-1.2008351643	-1.9478065994	 0.4778040701	 0.199396
C	-1.085180001	-0.75750552	-0.4773297767	-0.272312
C	-1.7371104939	-3.1770361965	-0.029217256	 0.191221
N	-2.1709089599	-4.1641656237	-0.4503821354	-0.351782
H	-0.0330688643	 1.6880531395	 1.3605300096	 0.284999
H	 0.5572748022	 0.6773712361	-0.648693627	 0.078859
H	 1.7198348943	-1.1350640668	 0.3539228232	 0.112457
H	 1.3404663297	-0.2274532364	 1.8193186579	 0.100521
H	 0.493610401	-2.8652823231	 1.6781184711	 0.109338
H	-1.800444643	-2.4088202717	 2.5700133003	 0.132255
H	-1.5971107863	-0.6179763636	 2.2229992545	 0.148281
H	-2.0253639733	-0.2164446292	-0.6092445256	 0.131353
H	-0.7582791283	-1.1137718536	-1.4587130306	 0.120857
122.4612	149.3394	191.2511	285.0104	317.7025	385.4939	396.7914	417.7915	511.5083	564.6681	579.806	672.7656	758.2806	816.1299	831.5527	887.0507	916.2774	942.8294	964.9784	986.377	1030.545	1068.6401	1085.3038	1097.6693	1114.6753	1188.1456	1203.5527	1250.0826	1251.686	1272.8591	1313.2749	1334.7793	1359.2884	1404.7326	1422.602	1475.1905	1477.672	1493.3992	2347.1887	3009.5531	3035.8729	3063.9863	3074.5623	3113.4589	3147.7079	3183.7976	3244.9366	3816.1568
OC1CC2CC2(C1)C#N	O[C@H]1C[C@H]2C[C@]2(C1)C#N	
InChI=1S/C7H9NO/c8-4-7-2-5(7)1-6(9)3-7/h5-6,9H,1-3H2	InChI=1S/C7H9NO/c8-4-7-2-5(7)1-6(9)3-7/h5-6,9H,1-3H2/t5-,6-,7-/m0/s1
