17
gdb 50215	4.24552	1.31048	1.17383	2.6964	72.75	-0.2435	0.027	0.2705	1044.6424	0.138606	-417.984011	-417.977111	-417.976167	-418.015835	26.963	
O	-0.0382019237	-0.024014848	 0.0423148674	-0.339295
C	 0.0233473117	 1.1874938724	 0.0738759496	 0.138399
N	 1.1770216563	 1.90093776	 0.1131951873	-0.018491
C	 2.5034964939	 1.2927987735	-0.0307097447	-0.202213
C	 3.3298600084	 2.4250672564	-0.6335739581	-0.037102
C	 2.4623471275	 3.5476453024	-1.0313377115	-0.050679
C	 1.3150943746	 3.3409253119	-0.005683664	-0.062036
C	 2.3320563829	 3.8549297807	 1.0465770582	-0.1631
N	 3.4709523448	 3.7382976709	 0.0721983934	-0.154093
H	-0.8690884228	 1.84531856	 0.0813374842	 0.071676
H	 2.8957908278	 0.9437305563	 0.931550375	 0.128648
H	 2.4459399193	 0.4286270079	-0.6989732178	 0.143347
H	 4.2145589437	 2.1730462913	-1.205658088	 0.113063
H	 2.4678393626	 4.1003516877	-1.9625163205	 0.104396
H	 0.3550529159	 3.8429845894	-0.1145365796	 0.09442
H	 2.2001094677	 4.9118420037	 1.2887767906	 0.121158
H	 2.4329892394	 3.2744521534	 1.9693370285	 0.111903
51.0144	219.1314	249.1268	342.9611	395.7333	431.3249	505.6278	688.7317	713.0413	752.1496	778.3052	844.2939	856.8779	900.9655	923.4691	959.2433	983.0437	1009.138	1028.2911	1041.8929	1072.8515	1096.7722	1159.6605	1187.209	1200.868	1215.6881	1231.9793	1268.0289	1279.3834	1306.3079	1339.6989	1385.5876	1420.1388	1451.5109	1497.0531	1518.1158	1790.6323	2929.087	3038.3058	3051.2836	3091.2627	3113.8658	3134.551	3187.8866	3198.7278
O=CN1CC2C3C1CN23	O=CN1C[C@H]2[C@H]3[C@@H]1CN23	
InChI=1S/C6H8N2O/c9-3-7-1-5-6-4(7)2-8(5)6/h3-6H,1-2H2	InChI=1S/C6H8N2O/c9-3-7-1-5-6-4(7)2-8(5)6/h3-6H,1-2H2/t4-,5-,6+,8?/m0/s1
