20
gdb 101411	2.97808	1.0231	0.8121	3.731	76.85	-0.2398	-0.0251	0.2147	1439.1453	0.168783	-440.274737	-440.264757	-440.263813	-440.310339	35.87	
C	-0.1117995623	 1.5573124509	 0.0070649981	-0.383634
C	-0.0398915757	 0.0302979854	-0.0635808362	-0.194569
C	 0.8044076062	-0.4732577411	-1.2395701422	 0.149883
O	 2.1436196413	-0.0056475684	-1.1935753436	-0.419648
C	 0.7743694198	-2.0053410808	-1.3382898918	-0.1398
N	-0.5625632018	-2.5848342285	-1.6534278204	-0.323363
C	-0.0478908695	-3.3675880012	-2.8100807687	-0.284728
C	 1.3045625883	-2.6548512916	-2.6340444701	 0.383985
O	 2.327974504	-2.6241756921	-3.2447582629	-0.274332
H	 0.8912753602	 1.9895709923	 0.0542844555	 0.127877
H	-0.6081687229	 1.9671129352	-0.8792215286	 0.118668
H	-0.6724885499	 1.8868273463	 0.8867736189	 0.109713
H	 0.3875550106	-0.3695924597	 0.868935288	 0.077297
H	-1.0447858715	-0.3975947072	-0.1555993249	 0.112925
H	 0.3941685806	-0.0652115846	-2.1711808176	 0.093199
H	 2.5495175586	-0.3361808681	-0.3839486128	 0.278672
H	 1.2639815171	-2.4361788931	-0.4486632045	 0.079869
H	-0.946090837	-3.1586607485	-0.9126383568	 0.226895
H	 0.0329383971	-4.4523754534	-2.6573894233	 0.124856
H	-0.5758171132	-3.1861741218	-3.752701606	 0.136233
50.9919	83.5591	110.9695	125.6097	207.1213	239.4875	253.5459	272.3564	360.8526	397.6531	467.2639	517.2794	557.7892	665.4342	763.0826	779.1248	839.2114	895.1418	980.3346	987.3667	992.1648	1013.973	1049.5967	1078.0687	1088.7429	1099.3372	1133.6562	1150.2435	1217.861	1226.3948	1264.6963	1302.6287	1329.6858	1362.0081	1371.9289	1387.5434	1402.9533	1413.6153	1474.5597	1484.0708	1495.3854	1508.3836	1916.8637	2964.8876	2992.6383	3016.5225	3038.8314	3046.2883	3066.3369	3070.4758	3104.3626	3121.0539	3554.6106	3792.449
CCC(O)C1NCC1=O	CC[C@@H](O)[C@H]1NCC1=O	
InChI=1S/C6H11NO2/c1-2-4(8)6-5(9)3-7-6/h4,6-8H,2-3H2,1H3	InChI=1S/C6H11NO2/c1-2-4(8)6-5(9)3-7-6/h4,6-8H,2-3H2,1H3/t4-,6-/m1/s1
