17
gdb 26031	3.21089	1.27336	0.95964	2.8877	79.73	-0.2181	0.0328	0.2509	1207.0275	0.136508	-380.881726	-380.873168	-380.872224	-380.915673	31.892	
C	-0.233166222	 1.5082867615	 0.0510087994	-0.38216
C	 0.0819759299	-0.0047724819	-0.0145130656	-0.299996
C	 0.8561275422	-0.3449169204	-1.208718105	 0.320275
C	 1.5092737786	-0.6135861188	-2.1822717109	-0.456886
C	 0.7760330221	-0.4678158303	 1.2452538163	 0.391429
N	 0.2998803111	-0.326986383	 2.4636925643	-0.317166
C	 1.2454983185	-0.8830797851	 3.2942259421	-0.091831
C	 2.3020043885	-1.3646382565	 2.5676656134	-0.117508
N	 1.9868191321	-1.0906690444	 1.2553362773	-0.283205
H	 0.6911175347	 2.0915540078	 0.0669483028	 0.127162
H	-0.8235279083	 1.8125389375	-0.8169642056	 0.121404
H	-0.7936205329	 1.7149252547	 0.964504803	 0.149793
H	-0.8768831156	-0.5383260886	-0.0696505347	 0.135723
H	 2.062037477	-0.8479893411	-3.0585136249	 0.202267
H	 1.1100122494	-0.9053979775	 4.3648827344	 0.106078
H	 3.2181036535	-1.8585028195	 2.844738657	 0.126484
H	 2.5300482313	-1.3043019645	 0.4344263269	 0.268139
30.163	131.8854	158.7552	205.3047	236.8224	324.4207	379.7716	482.3245	532.9974	585.6941	624.8179	653.8698	654.1239	684.5937	723.6751	756.1882	856.0333	870.3514	930.6434	984.6949	1023.3158	1077.2848	1098.1405	1117.9789	1140.4752	1183.066	1273.7023	1297.8688	1315.7684	1392.4896	1401.9777	1470.0264	1489.5521	1492.4521	1505.4459	1579.2079	2232.4402	3013.0307	3051.7987	3128.4127	3146.1001	3248.3398	3281.7797	3500.9042	3651.5941
CC(C#C)C1=NC=CN1	C[C@@H](C#C)c1ncc[nH]1	
InChI=1S/C7H8N2/c1-3-6(2)7-8-4-5-9-7/h1,4-6H,2H3,(H,8,9)	InChI=1S/C7H8N2/c1-3-6(2)7-8-4-5-9-7/h1,4-6H,2H3,(H,8,9)/t6-/m0/s1
