18
gdb 41444	2.78294	2.21793	1.69474	0.5173	75.25	-0.2099	0.0753	0.2852	857.6001	0.149766	-401.815722	-401.809376	-401.808432	-401.84593	27.314	
C	-0.0091035127	 1.4967987169	-0.2079186144	-0.332757
C	 1.5418839217	 1.5200869582	 0.1296189511	-0.323273
C	 1.3484678902	 0.1670453759	 0.8796682852	 0.369214
O	 1.0940693498	 0.3244978681	 2.2605608944	-0.30725
C	 0.0540962495	-0.6492164206	 2.4986453371	-0.11019
C	-0.1701570307	-1.2029058564	 1.1030483718	-0.124389
C	 1.2769856297	-1.3295547853	 0.4408224094	-0.123795
N	 0.6716558731	-0.9671798031	-0.8849262357	-0.359645
C	 0.0350005936	-0.0168300164	 0.1040328279	 0.243312
H	-0.5869542476	 2.0638178435	 0.5246818099	 0.127611
H	-0.3219355455	 1.7858838649	-1.2142761774	 0.113423
H	 2.1813490942	 1.4739918816	-0.7530044515	 0.117177
H	 1.8904420192	 2.3282969532	 0.7728482841	 0.126629
H	 0.4023355927	-1.4118380959	 3.205919662	 0.108446
H	-0.8257935506	-0.1518566455	 2.9231857478	 0.109458
H	-0.9116020684	-1.9847237918	 0.9380844701	 0.087783
H	 1.9677962737	-2.171658361	 0.5577324385	 0.073718
H	 1.3712333878	-0.4709312663	-1.4445968404	 0.204529
217.8292	262.9604	345.4048	388.5426	466.3437	511.3854	599.9279	666.425	669.4148	717.4211	803.2522	807.9466	842.6508	849.4745	916.2809	929.2933	944.5791	958.5304	996.6424	1006.2134	1041.4131	1089.8963	1098.8994	1123.5232	1141.167	1180.7879	1201.9171	1204.7655	1227.4727	1234.4128	1246.5946	1261.4222	1274.0812	1295.5536	1311.9708	1371.6814	1457.5147	1471.3278	1517.2865	3024.7319	3048.4106	3063.8645	3067.3223	3088.4549	3125.9686	3126.9426	3148.3814	3393.274
C1CC23OCC4C2NC134	C1C[C@]23OC[C@@H]4[C@H]2N[C@]134	
InChI=1S/C7H9NO/c1-2-7-5-4(3-9-7)6(1,7)8-5/h4-5,8H,1-3H2	InChI=1S/C7H9NO/c1-2-7-5-4(3-9-7)6(1,7)8-5/h4-5,8H,1-3H2/t4-,5-,6+,7+/m1/s1
