18
gdb 102904	2.11723	0.9156	0.66814	4.9962	78.76	-0.2792	0.0299	0.3091	1617.5496	0.145271	-401.927274	-401.916982	-401.916038	-401.963354	36.065	
O	 0.0288013237	 1.5579225092	-0.1340235234	-0.41794
C	 0.0343117868	 0.1493570297	 0.0167442765	-0.094912
C	-1.433160845	-0.3079699255	 0.0922992664	-0.162262
C	-2.1873710121	 0.0330013244	-1.211394604	-0.182367
C	-3.6942227604	-0.2654557912	-1.1085185172	-0.349797
C	-4.4075958825	 0.0445451508	-2.3448575559	 0.257785
N	-4.9576636762	 0.2929707652	-3.3303358524	-0.306936
C	-1.5035128644	-1.7324276939	 0.4079578635	 0.313422
C	-1.5522738771	-2.910275405	 0.6444324056	-0.463425
H	 0.9338968172	 1.8554563059	-0.2622057739	 0.295331
H	 0.526460023	-0.351714441	-0.8305660104	 0.102603
H	 0.5527454916	-0.1583374345	 0.9358310588	 0.105398
H	-1.8934405118	 0.2592540813	 0.9139711304	 0.118592
H	-2.0286620679	 1.0910924237	-1.4297578765	 0.143177
H	-1.7588945377	-0.5433986212	-2.0379651715	 0.12357
H	-3.8523778495	-1.3222795688	-0.8666024298	 0.163632
H	-4.1423235307	 0.3166298063	-0.2943084058	 0.150715
H	-1.5979157871	-3.9482785953	 0.8653130796	 0.203415
60.2245	94.0158	103.2617	133.5514	143.5214	213.7294	226.3645	276.9023	315.4852	400.8568	454.0796	505.4224	533.0205	574.4902	639.0041	658.5262	770.1687	855.7547	941.3474	945.7234	1021.1385	1053.2609	1071.9265	1090.4361	1125.0083	1192.788	1226.6224	1256.0042	1294.6073	1305.519	1335.2723	1359.4345	1380.6076	1450.8815	1470.6068	1497.0789	1521.8943	2234.821	2362.6922	2985.7407	3007.9242	3028.323	3040.2898	3061.1322	3081.273	3124.5027	3501.7297	3839.563
OCC(CCC#N)C#C	OC[C@@H](CCC#N)C#C	
InChI=1S/C7H9NO/c1-2-7(6-9)4-3-5-8/h1,7,9H,3-4,6H2	InChI=1S/C7H9NO/c1-2-7(6-9)4-3-5-8/h1,7,9H,3-4,6H2/t7-/m1/s1
