14
gdb 49893	3.18721	1.26638	0.94512	2.0471	63.75	-0.2696	-0.0474	0.2222	1144.5471	0.100397	-473.872444	-473.864757	-473.863813	-473.90556	27.407	
O	-0.8179754144	 0.9897885926	 0.6335150718	-0.233528
C	 0.1295761441	 0.9014500656	-0.0994391839	 0.156664
C	 1.365302685	 1.795549121	-0.0066050184	-0.079715
C	 1.4045556771	 2.6002960831	 1.296416057	-0.360328
C	 2.751449732	 3.2491910073	 1.4942538897	 0.423418
O	 2.9696425118	 4.3107315201	 1.9890547409	-0.287891
O	 3.8302928765	 2.4727825951	 1.0852458097	-0.212001
C	 3.6089332954	 1.3332273897	 0.3518208799	 0.142031
N	 2.5411175922	 0.9576917131	-0.2006865218	-0.260099
H	 0.1896514004	 0.1519121681	-0.9158558763	 0.109818
H	 1.2975478692	 2.4751730029	-0.8739441631	 0.130141
H	 0.6330919191	 3.3683303806	 1.3421091032	 0.159192
H	 1.2323643246	 1.9194654366	 2.1396300305	 0.1599
H	 4.530635927	 0.764821374	 0.2647051809	 0.152398
64.7297	110.7386	147.9208	190.6211	345.4248	407.0961	448.9377	536.4435	552.5853	633.3975	640.1119	764.6518	841.7377	873.2304	913.2196	961.5148	1038.2235	1063.161	1093.1976	1128.0392	1155.6165	1224.5481	1268.4125	1304.2294	1347.8219	1400.9794	1406.2069	1454.5504	1739.8755	1840.9368	1894.868	2926.5186	2966.9621	3049.3494	3145.2302	3188.0798
O=CC1CC(=O)OC=N1	O=C[C@H]1CC(=O)OC=N1	
InChI=1S/C5H5NO3/c7-2-4-1-5(8)9-3-6-4/h2-4H,1H2	InChI=1S/C5H5NO3/c7-2-4-1-5(8)9-3-6-4/h2-4H,1H2/t4-/m1/s1
