19
gdb 30748	2.96639	1.26601	0.94781	1.1312	80.17	-0.1685	0.0584	0.2269	1271.297	0.158692	-419.226546	-419.216451	-419.215507	-419.261676	36.107	
C	-0.6183015434	 0.8832115166	 0.0254584688	-0.250361
O	 0.676273192	 0.2845013425	-0.0892814395	-0.278184
C	 1.0319221402	-0.4921283311	 0.9694713731	 0.285824
C	 0.8228521561	-1.8321121668	 1.1945839391	 0.070476
N	 0.0710076753	-2.7096324676	 0.3806166267	-0.621216
C	 1.4310266601	-2.1498659165	 2.4515041194	 0.233923
C	 1.440408219	-3.4966482957	 3.1058290977	-0.513487
C	 1.9858968016	-0.9854112095	 2.9359021831	-0.183705
N	 1.7236232176	 0.027488394	 2.0469817589	-0.315111
H	-0.6643526607	 1.565727851	 0.883344987	 0.113776
H	-0.7867242118	 1.4468741959	-0.8951885582	 0.125256
H	-1.3962787222	 0.1193751509	 0.1388864647	 0.13122
H	 0.0168714743	-2.3558346675	-0.5683904741	 0.239081
H	 0.4893200706	-3.6326442502	 0.3446785343	 0.237237
H	 1.9600425967	-4.2500946295	 2.4981041293	 0.112306
H	 1.9482094155	-3.4583967078	 4.0740163923	 0.118462
H	 0.4247845462	-3.8742387904	 3.2773893557	 0.126925
H	 2.5450200963	-0.8056543793	 3.8401646074	 0.109862
H	 2.1040072166	 0.9565334911	 2.0754790742	 0.257716
51.3295	117.3895	134.4189	154.2281	202.361	219.2441	236.5755	276.767	287.9639	370.5342	436.7828	515.0172	562.7408	638.7876	680.5718	705.7703	738.2564	750.2805	846.0562	967.2749	997.3181	1043.7074	1063.7165	1103.091	1174.3244	1206.5812	1218.8457	1228.5452	1268.802	1347.6313	1417.811	1431.8213	1458.0069	1481.7052	1485.4894	1493.9365	1503.6201	1519.1402	1575.2361	1645.0755	1679.4935	3007.6387	3010.9728	3052.6577	3077.6743	3101.4804	3123.9682	3258.8462	3505.3531	3591.5813	3691.4072
COC1=C(N)C(C)=CN1	COc1c(N)c(C)c[nH]1	
InChI=1S/C6H10N2O/c1-4-3-8-6(9-2)5(4)7/h3,8H,7H2,1-2H3	InChI=1S/C6H10N2O/c1-4-3-8-6(9-2)5(4)7/h3,8H,7H2,1-2H3
