16
gdb 131536	3.91425	1.39911	1.16995	4.3986	69.68	-0.2497	0.0185	0.2682	1030.5655	0.128157	-434.09572	-434.088704	-434.08776	-434.127512	26.733	
O	-0.0454506614	 1.3891817054	-0.0403616979	-0.423817
C	-0.0139231603	-0.0240224335	 0.0502768225	 0.103118
C	 0.5727376695	-0.49988398	 1.4196939854	-0.192341
N	-0.6333184324	-0.7116484185	 2.1881691799	 0.063058
N	-0.862846687	-0.9569939027	 3.494987599	-0.279907
C	-2.1855466724	-1.1029388597	 3.4927299973	 0.018204
N	-2.8016853555	-0.9748150064	 2.2786698542	-0.370637
C	-1.7765983306	-0.727746016	 1.4842202804	 0.401548
C	-1.4973815615	-0.4969814916	 0.0346917198	-0.357344
H	 0.8597563523	 1.7165603499	-0.0560115527	 0.288831
H	 0.5564008898	-0.4567579997	-0.780878783	 0.082932
H	 1.1485014362	-1.4281217861	 1.3295946361	 0.127401
H	 1.2078143013	 0.2674132762	 1.8707873291	 0.12989
H	-2.7278202425	-1.3067827651	 4.4042961414	 0.123299
H	-2.1239167615	 0.2753228105	-0.4152491113	 0.153894
H	-1.6215986941	-1.4168038226	-0.5463035702	 0.13187
70.7056	186.5845	234.3496	310.653	380.5407	395.4216	492.9243	662.0897	671.1916	695.3257	742.9353	810.9979	870.599	900.12	902.8968	955.9037	992.6322	1019.7636	1100.6995	1124.6793	1184.8291	1193.0764	1219.1144	1232.6341	1285.2413	1288.9595	1300.0733	1330.5356	1371.2803	1419.5406	1430.2768	1471.013	1489.0941	1526.4077	1574.3425	3022.2352	3042.4202	3059.8646	3096.6431	3121.643	3257.3238	3816.8806
OC1CN2N=CN=C2C1	O[C@H]1Cn2ncnc2C1	
InChI=1S/C5H7N3O/c9-4-1-5-6-3-7-8(5)2-4/h3-4,9H,1-2H2	InChI=1S/C5H7N3O/c9-4-1-5-6-3-7-8(5)2-4/h3-4,9H,1-2H2/t4-/m1/s1
