12
gdb 69035	2.83575	1.42023	1.18317	5.0397	61.5	-0.2877	-0.0436	0.2441	1008.5237	0.075857	-472.611631	-472.603908	-472.602963	-472.644046	28.013	
O	-0.1615923304	 1.4613289809	-0.0086227936	-0.423259
C	-0.0457622451	 0.1082256577	 0.0062531828	 0.142063
C	-0.2517690269	-0.7947489575	-1.2108752706	-0.3886
C	-1.1232222712	-0.9770489146	-0.004169139	 0.292146
O	-0.3922728197	-1.7548334976	 0.9773278887	-0.28379
C	 0.5593902264	-0.7374415813	 1.1201686596	 0.420827
O	 1.4492123305	-0.6823956864	 1.8948291763	-0.300125
C	-2.5395987556	-0.9030004167	 0.0719955087	 0.23977
N	-3.6932154052	-0.8323754668	 0.111383965	-0.331742
H	 0.447000318	 1.8314323148	-0.658303426	 0.31405
H	-0.7148462432	-0.2776494721	-2.0465739254	 0.161496
H	 0.4524151925	-1.5812303503	-1.4620362365	 0.157163
109.9418	125.1097	191.1344	243.0259	290.5567	357.212	426.3732	483.7254	531.9969	570.336	668.1925	673.1764	746.8671	774.188	848.3859	914.4623	971.7555	1000.2338	1080.0075	1110.0054	1155.957	1274.1421	1352.8291	1424.8611	1492.4049	1968.785	2359.4181	3125.8604	3226.3661	3799.852
OC12CC1(OC2=O)C#N	O[C@]12C[C@]1(OC2=O)C#N	
InChI=1S/C5H3NO3/c6-2-4-1-5(4,8)3(7)9-4/h8H,1H2	InChI=1S/C5H3NO3/c6-2-4-1-5(4,8)3(7)9-4/h8H,1H2/t4-,5-/m0/s1
