20
gdb 95409	3.03917	1.21302	0.92922	1.9427	77.19	-0.2405	0.0158	0.2562	1280.9976	0.171004	-440.296647	-440.287533	-440.286589	-440.330441	34.227	
C	-0.229018373	 1.5014193951	 0.0286648751	-0.445295
C	 0.0188116029	 0.0216855391	-0.0384762516	 0.3691
N	-0.0181308967	-0.6094632478	-1.1314630301	-0.266753
C	 0.0641441748	-2.0629070413	-1.2008391028	-0.168055
C	 1.315268173	-2.7249153495	-0.6088916795	-0.199998
C	 1.3506363716	-2.6939500594	 0.9116468482	 0.098834
O	 2.5241371661	-3.3860819178	 1.3216855268	-0.427777
C	 1.394631919	-1.2655945322	 1.4607027958	-0.099635
O	 0.2136711149	-0.4990483605	 1.2255469106	-0.26646
H	 0.6511505323	 2.0198205593	 0.4249582346	 0.130396
H	-0.4718991025	 1.8885413286	-0.960148596	 0.140666
H	-1.0540933877	 1.7052550133	 0.7195475822	 0.138598
H	-0.8273470834	-2.4924295308	-0.718629559	 0.106777
H	 0.0022868624	-2.3319602473	-2.2594979894	 0.106139
H	 1.3492952101	-3.7710120388	-0.9319100211	 0.107304
H	 2.2171693682	-2.2386411219	-1.0002060361	 0.109756
H	 0.4450729787	-3.1875600672	 1.3010277493	 0.072099
H	 2.50184955	-3.4805749858	 2.2795806088	 0.284686
H	 1.5009771551	-1.2936991682	 2.5507628536	 0.09892
H	 2.2718474744	-0.7503608167	 1.0471706707	 0.110696
60.979	155.7469	187.9006	212.6514	254.4386	286.3312	292.106	316.6256	362.4272	432.7467	450.3746	573.7155	608.0933	685.03	772.9484	856.0024	871.6126	938.6227	970.4053	1014.8278	1056.9455	1083.775	1093.1171	1095.9672	1121.8153	1128.9929	1203.1996	1213.9006	1261.6484	1297.4662	1308.7407	1347.8308	1354.351	1382.5259	1403.3788	1411.333	1448.5083	1471.7331	1478.0364	1482.0879	1495.64	1499.535	1763.3607	2969.6767	2994.2696	3016.3345	3036.2615	3040.6364	3069.7194	3072.8619	3083.2985	3095.5304	3162.7653	3813.148
CC1=NCCC(O)CO1	CC1=NCC[C@@H](O)CO1	
InChI=1S/C6H11NO2/c1-5-7-3-2-6(8)4-9-5/h6,8H,2-4H2,1H3	InChI=1S/C6H11NO2/c1-5-7-3-2-6(8)4-9-5/h6,8H,2-4H2,1H3/t6-/m1/s1
