19
gdb 40080	3.30072	1.36796	1.30074	1.626	73.57	-0.2472	0.0689	0.3161	1047.6729	0.160733	-423.00027	-422.992887	-422.991943	-423.032323	29.19	
C	-0.381136097	 1.4487157479	 0.1936023116	-0.246816
O	 0.9658587971	 0.9970702604	-0.0017248558	-0.292967
C	-0.0677334419	 0.0223872221	 0.0418313831	 0.475214
C	-0.0902186595	-0.9683163353	 1.2050333785	-0.320209
C	-1.155104511	-1.9995726313	 0.8082638342	-0.075122
C	-2.6224831849	-1.5348285726	 0.9019641178	-0.078241
O	-2.7007642549	-1.3123989552	-0.5217107184	-0.296334
C	-1.3675306701	-1.8368460323	-0.7298400194	 0.126775
C	-0.3919092163	-0.7724994079	-1.2190023873	-0.318918
H	-0.5951630623	 1.8567407738	 1.1809351051	 0.110531
H	-0.8145906236	 1.9992655579	-0.6401646107	 0.116752
H	 0.8939634218	-1.4472754353	 1.2742746783	 0.113763
H	-0.2889002144	-0.4883117579	 2.1675910906	 0.106458
H	-0.9552949652	-3.0002465559	 1.191042783	 0.07983
H	-3.3320029243	-2.304194155	 1.2324006097	 0.099838
H	-2.8042336898	-0.6155912503	 1.4736094272	 0.099291
H	-1.3873286132	-2.739976057	-1.3485797413	 0.073917
H	-0.8125996952	-0.1643362103	-2.0233815693	 0.117517
H	 0.5242914947	-1.2481180858	-1.592166867	 0.108723
88.3476	108.2715	293.6021	339.2902	358.1185	381.85	391.0412	535.0448	624.7297	765.4239	798.4868	844.7521	859.4672	873.8485	893.9824	913.3521	926.4238	940.2704	1007.8979	1023.5706	1034.7678	1079.3301	1110.4504	1130.1231	1148.1295	1153.5109	1165.6568	1179.0646	1233.8287	1244.6557	1273.138	1294.289	1302.0251	1344.795	1354.1957	1370.5108	1431.6307	1463.4388	1484.1763	1524.686	1533.4343	3006.5517	3031.0279	3037.7544	3047.826	3052.988	3079.3359	3090.1892	3106.7792	3110.6008	3166.7696
C1OC11CC2COC2C1	C1O[C@]21C[C@H]1CO[C@H]1C2	
InChI=1S/C7H10O2/c1-5-3-8-6(5)2-7(1)4-9-7/h5-6H,1-4H2	InChI=1S/C7H10O2/c1-5-3-8-6(5)2-7(1)4-9-7/h5-6H,1-4H2/t5-,6-,7+/m0/s1
