16
gdb 7101	2.72815	1.48628	1.14695	1.7165	66.7	-0.2397	-0.031	0.2087	1075.4054	0.126658	-383.702881	-383.69358	-383.692636	-383.738272	31.761	
C	 0.9717567558	 0.7155325731	 0.6131532924	-0.241782
O	 0.7873861135	-0.2708382693	 1.6096879321	-0.224467
C	-0.3508743147	-1.0717087817	 1.3915285386	-0.164776
C	-0.1477635935	-2.1443708498	 0.3138506799	 0.350789
O	-1.0201285991	-2.43828944	-0.463019959	-0.282083
C	 1.2230984161	-2.8485015861	 0.2973952636	-0.412641
C	 1.4753865949	-3.5678679958	 1.538546429	 0.30033
C	 1.6486436176	-4.164482328	 2.5671556953	-0.4573
H	 0.1092019158	 1.3958466996	 0.5577360409	 0.117553
H	 1.8608914157	 1.28677738	 0.8884639553	 0.136646
H	 1.1267106547	 0.278462609	-0.3855240318	 0.11037
H	-0.5553968346	-1.588871492	 2.3362567768	 0.144322
H	-1.2346514145	-0.4793929685	 1.1174469779	 0.115065
H	 1.2279961072	-3.5267728473	-0.5606142316	 0.150824
H	 2.0027980329	-2.0919971204	 0.148255271	 0.153812
H	 1.818231042	-4.6919586127	 3.4730087395	 0.203336
26.6471	66.1481	107.0156	138.6969	178.2552	254.6047	329.629	385.9375	403.483	470.4079	527.1235	599.5624	622.4275	645.0868	745.9827	923.2918	963.3692	969.097	1029.4318	1124.252	1161.015	1182.7293	1219.269	1245.3541	1285.8831	1308.4496	1366.2256	1443.8095	1460.1172	1483.9442	1488.1932	1507.5662	1827.6241	2238.5883	2977.2538	3015.2014	3028.8908	3040.7625	3077.546	3097.6974	3123.9725	3505.9341
COCC(=O)CC#C	COCC(=O)CC#C	
InChI=1S/C6H8O2/c1-3-4-6(7)5-8-2/h1H,4-5H2,2H3	InChI=1S/C6H8O2/c1-3-4-6(7)5-8-2/h1H,4-5H2,2H3
