20
gdb 64173	2.18144	1.49382	1.38778	4.4411	79.	-0.2384	0.025	0.2635	1088.8537	0.170716	-399.323299	-399.31363	-399.312686	-399.356787	37.369	
C	-0.1042700875	 1.50544219	 0.0272496151	-0.438245
C	-0.0124577296	-0.0180706997	-0.046972979	 0.2999
N	-1.3461191572	-0.5489799567	-0.2179915433	-0.560302
C	 1.1756039254	-0.4908442181	-0.9563814062	-0.272984
C	 2.0757925656	-0.6000644519	 0.2959450968	-0.272444
C	 0.7846248201	-0.6090839243	 1.1973344355	 0.127487
N	 0.703561392	 0.1247610135	 2.4474623333	-0.567543
C	 0.3757608359	-1.9949921417	 1.4444652386	 0.288878
N	 0.0801258545	-3.1010898476	 1.6060209818	-0.352876
H	 0.8770540703	 1.9741424167	 0.1482359852	 0.109277
H	-0.5296477039	 1.8905079692	-0.9063720896	 0.116313
H	-0.7505418674	 1.8081012544	 0.8539201717	 0.148854
H	-1.8026164226	-0.1276766721	-1.0206939637	 0.224419
H	-1.3313172264	-1.5533507573	-0.3643971968	 0.240466
H	 0.9711086628	-1.4707494053	-1.3962010839	 0.111311
H	 1.4953067111	 0.1915915654	-1.747343008	 0.098738
H	 2.7408341145	-1.4607787512	 0.3781046681	 0.118734
H	 2.6510730711	 0.3109807227	 0.482694577	 0.103693
H	 1.1572103879	-0.3859696319	 3.198157489	 0.242011
H	 1.1791319635	 1.0162930159	 2.3583232083	 0.234312
109.5501	144.5023	210.8457	219.2439	248.5571	268.0718	273.4036	298.5507	356.4184	385.6016	425.8505	456.2786	538.1654	584.8415	643.1412	679.1063	746.0076	796.782	835.3783	883.5111	900.1129	931.7061	954.2581	991.534	1007.285	1064.0165	1103.9878	1145.2026	1194.7978	1207.3089	1240.2921	1267.6818	1291.9066	1313.1531	1367.2908	1407.5602	1477.2053	1492.9345	1496.1312	1499.067	1656.9552	1659.1206	2350.2695	3036.2528	3060.9491	3065.2671	3097.3064	3112.8021	3130.7517	3134.2714	3498.5424	3505.7587	3580.952	3589.1298
CC1(N)CCC1(N)C#N	C[C@@]1(N)CC[C@]1(N)C#N	
InChI=1S/C6H11N3/c1-5(8)2-3-6(5,9)4-7/h2-3,8-9H2,1H3	InChI=1S/C6H11N3/c1-5(8)2-3-6(5,9)4-7/h2-3,8-9H2,1H3/t5-,6+/m1/s1
