21
gdb 41882	2.86306	1.49111	1.0756	1.9245	82.81	-0.2346	0.0209	0.2555	1152.8641	0.185556	-387.085533	-387.077759	-387.076815	-387.117936	30.898	
C	-0.018843704	 1.4490426076	-0.3229737859	-0.098784
O	 1.2526401411	 1.7202884291	 0.3012141771	-0.296979
C	 1.3859555367	 0.3474952813	 0.7410854357	 0.148443
C	 1.4515085369	 0.2219700139	 2.2603935851	-0.27915
C	 1.3803013777	-1.2168294126	 2.725167976	-0.076454
C	 0.4832908992	-2.1415903582	 2.3742037217	-0.024739
C	-0.7124951429	-2.0298705443	 1.4610250203	-0.248707
C	-1.05041447	-0.6314399856	 0.9229872913	-0.232915
C	 0.052983486	-0.04732028	 0.0517235663	-0.030881
H	-0.8364582504	 2.0112077999	 0.149399493	 0.094234
H	-0.0066345827	 1.6805394318	-1.3949740766	 0.098528
H	 2.274278763	-0.1200816402	 0.2969831145	 0.074081
H	 2.3865178021	 0.677019599	 2.6035348111	 0.104791
H	 0.6489070339	 0.8239268118	 2.7029160189	 0.112695
H	 2.1615330887	-1.5258801302	 3.4159279156	 0.086274
H	 0.6076051179	-3.1353389517	 2.8036520637	 0.083927
H	-0.5676484491	-2.7175533735	 0.612848808	 0.106591
H	-1.5862258653	-2.4293410604	 1.9950601289	 0.105327
H	-1.9750516232	-0.6938286592	 0.335513845	 0.094813
H	-1.2697108045	 0.0427187201	 1.7590220325	 0.104488
H	 0.214050529	-0.6922936286	-0.8173299824	 0.074418
68.5572	166.6577	219.5759	286.7196	322.6629	378.8069	414.9505	431.7568	565.1671	668.1708	713.1242	746.7382	820.7252	839.1192	884.1083	933.3794	939.571	976.3954	986.238	1014.418	1015.8343	1030.7831	1061.9155	1077.255	1110.3271	1154.1752	1161.0982	1185.6862	1228.1939	1241.9172	1258.8737	1280.1149	1298.0446	1329.3627	1337.4202	1373.9145	1385.2625	1394.4726	1403.7803	1426.6077	1471.7489	1483.8967	1508.1592	1526.1555	1725.6062	2986.6522	2999.5901	3012.335	3015.363	3029.9509	3036.2175	3041.7878	3056.241	3069.9638	3077.6619	3122.772	3153.6439
C1OC2CC=CCCC12	C1O[C@H]2CC=CCC[C@@H]12	
InChI=1S/C8H12O/c1-2-4-7-6-9-8(7)5-3-1/h1,3,7-8H,2,4-6H2	InChI=1S/C8H12O/c1-2-4-7-6-9-8(7)5-3-1/h1,3,7-8H,2,4-6H2/t7-,8-/m0/s1
