12
gdb 129318	3.24892	1.3057	0.93139	0.6731	69.37	-0.2793	-0.1312	0.1481	1130.3337	0.075761	-468.763768	-468.756234	-468.75529	-468.796321	26.821	
N	-0.289554621	 1.2844212043	-0.1309366465	-0.508195
C	-0.1072193662	 0.031774743	-0.2247559623	 0.442209
O	 1.1390815703	-0.5448611255	-0.1421724179	-0.293876
N	 1.3336007425	-2.0011376751	-0.2532610202	 0.052711
N	 0.3526134204	-2.7097688188	-0.4237727617	-0.145471
C	-0.9596267517	-2.2082475049	-0.5203583534	 0.2354
C	-2.0137325842	-3.2379589346	-0.7279366143	 0.117968
O	-3.1839444203	-2.9681861238	-0.8302126609	-0.241708
C	-1.2070592955	-0.8913545201	-0.427661005	-0.191748
H	 0.5952408628	 1.7758597947	 0.0094390207	 0.241117
H	-1.6272301734	-4.2750498087	-0.7802643192	 0.112721
H	-2.2125652737	-0.4955478504	-0.5006398891	 0.178872
92.4677	141.9835	184.6993	184.8475	329.107	369.7085	445.3302	510.7244	593.8314	620.4058	686.69	727.5151	794.5986	881.7077	915.1048	968.5136	974.7027	1051.9942	1094.9506	1167.156	1274.2776	1338.6597	1421.3563	1631.1881	1663.1033	1714.5099	1815.6896	2949.7556	3230.9429	3479.7046
N=C1ON=NC(C=O)=C1	[NH]C1=CC(=N[N]O1)C=O	
InChI=1S/C4H3N3O2/c5-4-1-3(2-8)6-7-9-4/h1-2,5H	InChI=1S/C4H3N3O2/c5-4-1-3(2-8)6-7-9-4/h1-2,5H
