18
gdb 16612	3.01387	2.11447	1.38297	1.9419	74.03	-0.2242	0.0145	0.2387	932.7744	0.153162	-347.807459	-347.799617	-347.798673	-347.839296	29.657	
C	 0.0721210227	 1.507260145	 0.1326076513	-0.492051
C	-0.0037811625	 0.0184773404	 0.0043554603	 0.206254
C	-0.0533526992	-0.7216887609	-1.1166898127	 0.228944
C	-0.0912691979	-0.276978943	-2.5453190995	-0.509668
C	-0.0159563554	-2.1769562924	-0.7602702733	-0.048187
O	 1.2008057553	-2.5745784417	-0.0798196976	-0.261582
C	 0.0449900281	-2.271122245	 0.704417297	 0.039242
C	 0.0157703862	-0.8531143287	 1.2531551539	-0.328556
H	 1.0161651033	 1.8134562817	 0.6018252385	 0.130292
H	 0.0009294147	 2.0147975691	-0.8322307365	 0.124153
H	-0.7316690909	 1.8886384411	 0.7756918287	 0.123512
H	-0.1722729655	 0.808080927	-2.6428506875	 0.123879
H	 0.8111954931	-0.5964389203	-3.0820069118	 0.134922
H	-0.9431129498	-0.7234424861	-3.0740185096	 0.124288
H	-0.4470104313	-2.9383517452	-1.4052299198	 0.088538
H	-0.3664649482	-3.1015726344	 1.2719462629	 0.09186
H	 0.8866161149	-0.6443259453	 1.8874503097	 0.119029
H	-0.8750694675	-0.6864388114	 1.8745006258	 0.105132
142.1587	160.4967	167.3567	205.0421	284.6078	345.2791	377.5016	431.7885	573.2764	596.4723	662.2482	768.8759	834.8674	859.1811	880.8073	919.8653	978.5451	986.6018	1010.0257	1051.6601	1072.3739	1108.0076	1138.9912	1184.4887	1195.5051	1240.5059	1261.1732	1313.3587	1354.4478	1407.2299	1417.881	1422.5613	1461.3541	1478.5147	1481.386	1486.6804	1492.918	1722.4869	3013.3014	3017.2778	3019.0953	3051.9346	3059.1744	3061.9299	3113.9243	3120.292	3142.3257	3154.4386
CC1=C(C)C2OC2C1	CC1=C(C)[C@H]2O[C@H]2C1	
InChI=1S/C7H10O/c1-4-3-6-7(8-6)5(4)2/h6-7H,3H2,1-2H3	InChI=1S/C7H10O/c1-4-3-6-7(8-6)5(4)2/h6-7H,3H2,1-2H3/t6-,7+/m0/s1
