15
gdb 117037	4.76786	0.71968	0.63012	3.4653	63.16	-0.2469	-0.1286	0.1183	1650.9561	0.107808	-494.907546	-494.897408	-494.896464	-494.94524	32.968	
O	-0.1292991183	 1.4623844436	 0.0115180888	-0.41975
C	 0.0385855556	 0.0553572244	 0.0020356224	-0.080488
C	-1.3553905525	-0.5543236023	 0.0121402871	-0.285108
C	-1.3430095144	-2.0589927318	 0.0036855164	 0.267265
O	-0.3389544671	-2.7384559093	-0.0097530101	-0.283489
C	-2.7155565996	-2.7608186661	 0.0130067214	 0.214989
O	-3.7462500513	-2.1389946393	 0.0261404571	-0.2388
C	-2.7070319852	-4.3111181425	 0.0046066355	 0.087543
O	-3.7398810943	-4.9236176355	 0.0114632085	-0.205736
H	 0.7418643448	 1.8694606571	 0.0052564121	 0.29149
H	 0.585053076	-0.2865661099	-0.8890659289	 0.104428
H	 0.6021788498	-0.2964350886	 0.8785089006	 0.104429
H	-1.9233815947	-0.2125273459	 0.8868835949	 0.155273
H	-1.9401822866	-0.2029183647	-0.8475930051	 0.155278
H	-1.7149977124	-4.7942495692	-0.0076988208	 0.132677
22.5658	47.5665	75.5096	94.6603	111.1267	238.7512	271.9774	281.9398	342.2478	349.2789	395.2351	526.7739	599.3948	752.6776	787.2663	839.9369	912.1991	978.1737	1037.4512	1072.2377	1085.0126	1187.2315	1201.3093	1261.1148	1294.7308	1360.4694	1393.2856	1434.6996	1470.3612	1523.4962	1786.0627	1806.3697	1830.3468	2990.8249	2994.4387	3018.9786	3042.585	3071.6171	3832.5334
OCCC(=O)C(=O)C=O	OCCC(=O)C(=O)C=O	
InChI=1S/C5H6O4/c6-2-1-4(8)5(9)3-7/h3,6H,1-2H2	InChI=1S/C5H6O4/c6-2-1-4(8)5(9)3-7/h3,6H,1-2H2
