15
gdb 27118	3.34459	1.18184	0.91379	1.6756	70.65	-0.1948	0.0108	0.2056	1217.8996	0.114001	-450.146798	-450.138338	-450.137394	-450.180791	30.329	
N	-0.4803467402	 1.2186353159	 0.4096876848	-0.606384
C	-0.2108171775	-0.1228334986	 0.118156313	 0.205607
C	-1.0743263472	-1.0928441084	-0.3245412951	 0.271979
N	-0.3324482539	-2.2605276508	-0.3986023568	-0.300519
C	 0.9249747493	-1.9448684003	 0.0031969634	 0.010264
N	 1.030617425	-0.6719193341	 0.3250107777	-0.30485
O	-2.3813537659	-1.063171894	-0.7185149082	-0.221166
C	-3.3134142388	-0.9089365548	 0.2735578878	 0.107469
N	-4.5275850406	-0.8246242122	-0.0393579878	-0.428577
H	 0.3870149564	 1.7294140348	 0.5194718461	 0.252478
H	-1.0555738651	 1.6659132327	-0.2938539677	 0.250186
H	-0.6725463774	-3.1462860119	-0.7338859935	 0.275111
H	 1.7220009964	-2.671406502	 0.0396756435	 0.134847
H	-2.8587643546	-0.8709912414	 1.2698121355	 0.115387
H	-5.0965238759	-0.7141442848	 0.7974653071	 0.238166
42.7698	109.1099	124.9443	208.1323	269.7719	289.0689	417.9342	431.2719	466.1647	516.0724	654.3681	703.1923	708.8204	780.2611	809.1441	825.6686	832.0091	952.2821	1021.9649	1048.9964	1068.7515	1118.209	1214.9759	1259.6208	1288.5768	1341.0797	1396.074	1400.5771	1488.0472	1518.7371	1637.0821	1679.4583	1750.0654	3065.9172	3257.7118	3522.7227	3529.6446	3624.5668	3666.6994
NC1=C(NC=N1)OC=N	Nc1c([nH]cn1)O[CH][NH]	
InChI=1S/C4H6N4O/c5-1-9-4-3(6)7-2-8-4/h1-2,5H,6H2,(H,7,8)	InChI=1S/C4H6N4O/c5-1-9-4-3(6)7-2-8-4/h1-2,5H,6H2,(H,7,8)
