21
gdb 63778	3.30658	1.19003	1.11151	3.0158	82.59	-0.236	-0.0167	0.2193	1200.2435	0.181225	-387.093093	-387.084242	-387.083298	-387.126719	34.59	
C	 0.28612922	 1.4698771728	-0.0940778231	-0.451376
C	 0.0490763187	-0.0352099703	-0.0111720913	 0.344869
C	-1.4351247568	-0.3527036746	-0.216906153	-0.437412
C	 0.9508473676	-0.9304585332	-0.9257976661	-0.291614
C	 1.3389534955	-1.8183525923	 0.3019688407	-0.146622
C	 0.5891063323	-0.7981865397	 1.2430046237	-0.059423
C	 1.9517184794	-0.3487442432	 1.8459339176	-0.385271
C	 2.6578610107	-1.37657395	 0.9372370032	 0.410685
O	 3.7964250458	-1.7250749762	 0.8133071152	-0.302322
H	 1.3459869692	 1.7291890814	-0.0150826789	 0.114271
H	-0.0715826406	 1.8610955806	-1.0535701468	 0.115948
H	-0.251079957	 2.0010020049	 0.7003436219	 0.114336
H	-1.7748071992	-0.012267728	-1.2016107268	 0.113032
H	-1.6270020732	-1.4291382461	-0.1499998742	 0.113755
H	-2.0505233255	 0.1433622295	 0.5425153178	 0.113179
H	 0.4103069056	-1.4676715988	-1.7084647015	 0.108888
H	 1.7970257737	-0.4168844186	-1.3906357539	 0.109422
H	 1.1352363205	-2.8869891546	 0.2313649002	 0.087947
H	-0.157833296	-1.1136758434	 1.9722659	 0.068094
H	 2.2569796682	 0.6947467076	 1.733372865	 0.126328
H	 2.0651528611	-0.618209168	 2.9016054804	 0.133288
37.5108	148.7129	203.9302	254.5334	276.3074	330.9199	341.06	361.9206	432.3488	444.9953	507.6303	577.0068	684.247	739.1552	797.508	836.4478	862.5108	897.9407	936.9987	945.0905	969.8062	971.8469	1008.4706	1027.2913	1053.3431	1090.1941	1105.4865	1141.3587	1191.471	1216.7549	1224.3067	1228.8294	1246.7516	1267.9811	1291.2567	1326.252	1400.464	1419.6633	1437.2266	1482.7937	1483.8822	1490.4796	1502.1406	1510.373	1885.4407	3019.7464	3026.0598	3053.7616	3057.2308	3085.0555	3090.648	3092.4034	3097.5112	3101.5275	3106.3972	3109.7908	3117.6888
CC1(C)CC2C1CC2=O	CC1(C)C[C@@H]2[C@H]1CC2=O	
InChI=1S/C8H12O/c1-8(2)4-5-6(8)3-7(5)9/h5-6H,3-4H2,1-2H3	InChI=1S/C8H12O/c1-8(2)4-5-6(8)3-7(5)9/h5-6H,3-4H2,1-2H3/t5-,6-/m1/s1
