15
gdb 26721	3.33272	1.21827	0.89768	4.1092	71.97	-0.2071	-0.0437	0.1633	1212.9045	0.113211	-453.974823	-453.966352	-453.965408	-454.007766	31.231	
N	-0.058415442	 1.4015389225	 0.0024129939	-0.601382
C	-0.0948883388	 0.0117041405	-0.0019145061	 0.238342
C	-1.158122186	-0.8405141328	 0.007282372	 0.083044
N	-2.505800727	-0.4819427509	-0.0376373717	-0.61462
C	-0.6113184763	-2.1790887857	-0.0213849668	 0.127307
C	-1.3169333044	-3.4547246646	-0.0478755857	 0.063949
O	-0.7795341746	-4.5425611885	-0.0492874244	-0.285023
C	 0.7512135724	-2.0194441723	-0.0441379749	-0.075633
O	 1.0894425091	-0.727326315	-0.0457346298	-0.163065
H	 0.4872697601	 1.7856926064	 0.7669819077	 0.248931
H	 0.2807122879	 1.8027809276	-0.8666778752	 0.250064
H	-2.6243724292	 0.5094102366	 0.1357647814	 0.252548
H	-3.0925007094	-1.0182844423	 0.5881380776	 0.248502
H	-2.4266744094	-3.3722193992	-0.0753103288	 0.061374
H	 1.5519211876	-2.7407326423	-0.0610553291	 0.165661
109.1261	161.9346	181.2651	236.5962	260.4087	302.9109	310.6462	340.1777	393.6198	514.9429	615.7991	656.7785	681.605	756.2134	772.3862	775.3954	813.873	831.0369	957.291	1040.1697	1106.5211	1196.3076	1211.2864	1215.6705	1299.4596	1326.9391	1432.9873	1480.3379	1564.6077	1641.0149	1655.4624	1718.2008	1784.0905	2874.1124	3277.4333	3490.3635	3528.5177	3556.3475	3621.9014
NC1=C(N)C(C=O)=CO1	Nc1c(N)c(C=O)co1	
InChI=1S/C5H6N2O2/c6-4-3(1-8)2-9-5(4)7/h1-2H,6-7H2	InChI=1S/C5H6N2O2/c6-4-3(1-8)2-9-5(4)7/h1-2H,6-7H2
