27
gdb 110054	2.06343	1.29243	1.0489	0.1231	94.66	-0.2863	0.0722	0.3585	1375.7905	0.253221	-353.583046	-353.57273	-353.571786	-353.617653	40.096	
C	 0.4209483513	 1.4811370156	-0.3102124764	-0.388388
C	 0.0540837397	-0.0059325452	-0.2317139251	-0.205489
C	 0.5369438688	-0.6898645153	 1.0533243699	 0.05006
C	-0.1954289596	-0.312224503	 2.3894158965	 0.032378
C	-1.65624561	 0.1412452325	 2.259575945	-0.408845
C	-0.0705268717	-1.5867033084	 3.2804862289	-0.215725
C	 0.8235117479	-2.5759970494	 2.5048860924	-0.216697
C	 0.5736207479	-2.2407665104	 1.0219716356	-0.001225
C	-0.6906991072	-2.9180962816	 0.4727672021	-0.396638
H	 1.5072512888	 1.6184618901	-0.2637635215	 0.111635
H	 0.0692326932	 1.9285631471	-1.2453495922	 0.10903
H	-0.0154673752	 2.0533775267	 0.5148064356	 0.11795
H	-1.0293718499	-0.1240565811	-0.3452738174	 0.098258
H	 0.5031678033	-0.5224390226	-1.0904043767	 0.089138
H	 1.5848943669	-0.3856814026	 1.1905996668	 0.062314
H	 0.3532125226	 0.5123470857	 2.8577942021	 0.066246
H	-2.2825318043	-0.6222059662	 1.7861469635	 0.116919
H	-2.0761391045	 0.3349618013	 3.2529321942	 0.108989
H	-1.758646559	 1.0620254745	 1.6773870642	 0.11333
H	 0.3272108679	-1.3617024877	 4.2743541188	 0.09086
H	-1.0637092301	-2.0220615661	 3.4385866014	 0.094123
H	 1.8786207869	-2.3981747668	 2.7447664708	 0.08969
H	 0.6103046285	-3.621245237	 2.7510187174	 0.085891
H	 1.4182350726	-2.5696874486	 0.4038705319	 0.058572
H	-1.5794396777	-2.6899019242	 1.0695306131	 0.116456
H	-0.8975787533	-2.6134193858	-0.5576486375	 0.112653
H	-0.5681369538	-4.0066308315	 0.4757841268	 0.108516
82.267	135.8112	161.6847	182.7576	204.0205	225.8917	255.3657	294.0722	305.7266	367.0634	379.8712	436.7166	494.1499	607.9833	693.0343	710.6298	801.9513	809.1883	847.1162	870.6074	931.9548	949.2732	954.8912	988.6034	1025.5797	1040.3135	1052.4995	1057.3442	1071.7613	1095.2751	1123.0286	1174.5341	1191.0291	1214.9203	1231.6372	1272.2481	1290.1044	1313.8479	1320.1649	1329.3036	1345.4252	1360.5286	1376.9565	1385.1149	1398.4596	1409.0374	1414.9696	1416.7711	1486.0449	1489.9602	1492.1767	1499.7799	1500.634	1505.3257	1508.9484	1510.2808	1511.4612	2982.9144	3017.3075	3019.678	3029.5699	3030.4146	3031.9173	3032.9002	3035.9595	3040.8473	3062.0065	3073.7354	3086.694	3091.8553	3095.7474	3098.3572	3101.149	3104.9452	3109.0693
CCC1C(C)CCC1C	CC[C@H]1[C@@H](C)CC[C@H]1C	
InChI=1S/C9H18/c1-4-9-7(2)5-6-8(9)3/h7-9H,4-6H2,1-3H3	InChI=1S/C9H18/c1-4-9-7(2)5-6-8(9)3/h7-9H,4-6H2,1-3H3/t7-,8+,9-
