19
gdb 84421	2.26305	1.45974	1.16959	3.7482	77.31	-0.2377	-0.0303	0.2073	1131.5457	0.158154	-423.042087	-423.032938	-423.031994	-423.076107	33.782	
C	-0.9238213037	 1.051510447	-0.0663809487	-0.414719
C	-0.0344385606	-0.1910610935	-0.0691219976	-0.010297
C	 1.0817730493	-0.2112003841	-1.1397056401	 0.069081
O	 1.615671521	 1.1124380474	-1.2760860106	-0.429585
C	 2.0912059222	-1.1652736028	-0.5378855202	-0.100587
C	 1.8876954977	-1.3312641565	 0.7695711283	-0.085805
C	 0.704231184	-0.5265885276	 1.2652696513	-0.138951
C	 1.2161861504	 0.7122956006	 1.9969198978	 0.154671
O	 1.0082723716	 0.948681088	 3.1589731793	-0.255752
H	-0.3431418127	 1.9662744613	 0.0680502461	 0.141399
H	-1.4622560993	 1.1407998943	-1.0151912035	 0.116114
H	-1.6660656384	 0.9917832929	 0.7359354942	 0.119604
H	-0.658689966	-1.0680938366	-0.2766844756	 0.090157
H	 0.6966798536	-0.5472359628	-2.1133149102	 0.067758
H	 2.4299570382	 1.0564414201	-1.7863209762	 0.282673
H	 2.8983826361	-1.6091238697	-1.1115473214	 0.098238
H	 2.5038890073	-1.9229826321	 1.4374995814	 0.112672
H	 0.0693392145	-1.0739908315	 1.968450345	 0.087839
H	 1.8268214145	 1.3864082656	 1.3592028407	 0.095492
67.4891	94.9892	183.3139	217.0547	222.3722	248.2689	255.0041	365.3835	383.2303	452.9646	532.383	551.9487	691.8517	762.837	793.1839	834.8668	922.7731	952.7462	970.1935	981.7497	985.2429	1008.96	1068.9816	1088.1702	1129.3763	1143.434	1163.0187	1205.309	1262.1369	1273.4519	1318.7104	1340.78	1361.6457	1367.8357	1400.5606	1413.4801	1420.5214	1492.4912	1503.4201	1668.9632	1824.5292	2912.8724	2993.1666	3036.6297	3043.6005	3070.9685	3104.4782	3132.0758	3178.4259	3205.1204	3818.6177
CC1C(O)C=CC1C=O	C[C@H]1[C@@H](O)C=C[C@H]1C=O	
InChI=1S/C7H10O2/c1-5-6(4-8)2-3-7(5)9/h2-7,9H,1H3	InChI=1S/C7H10O2/c1-5-6(4-8)2-3-7(5)9/h2-7,9H,1H3/t5-,6+,7+/m1/s1
