20
gdb 87641	2.72327	1.20621	1.05136	3.7201	80.7	-0.2357	0.0368	0.2725	1247.6806	0.169269	-403.163743	-403.154148	-403.153204	-403.198203	35.441	
C	-0.0244619121	 1.5608746205	 0.0317007318	-0.406248
C	 0.0164680782	 0.0489447446	 0.0322592825	-0.058559
C	 1.3315583365	-0.6868522291	-0.2122555447	-0.366575
C	 0.6843389332	-0.709494124	 1.1368400451	 0.416621
N	 1.2296454311	-0.1454711535	 2.3597823472	-0.399642
C	 0.7930273972	-1.1628640486	 3.1767166809	 0.4495
O	 0.8814956457	-1.3574050403	 4.3596228013	-0.371887
C	 0.1596960366	-1.9036931697	 1.9650648276	-0.267755
C	-1.3416019426	-2.142125282	 2.035669851	-0.404431
H	 0.8908631685	 1.9855530042	 0.4580282696	 0.106243
H	-0.1235963451	 1.9530899715	-0.9858902454	 0.124644
H	-0.8674570227	 1.9371920649	 0.6210939748	 0.125353
H	-0.8684270917	-0.4259960849	-0.3859969631	 0.091136
H	 1.3251892478	-1.5927825991	-0.8101337624	 0.117305
H	 2.2231258125	-0.0784204855	-0.3354879622	 0.112149
H	 1.7804109224	 0.6783556317	 2.5497651441	 0.248779
H	 0.6991534192	-2.830911847	 1.747813752	 0.103555
H	-1.8813366094	-1.2116561862	 2.2367906717	 0.124568
H	-1.7236509996	-2.562236343	 1.0994182448	 0.117178
H	-1.5716628657	-2.8464828645	 2.8404122133	 0.138066
57.6987	130.6451	169.8806	172.631	186.5617	209.1544	259.6202	315.6255	383.1864	444.1262	511.6842	535.7902	557.3728	697.612	762.1261	798.8882	829.8291	879.4683	887.946	932.1975	990.2809	1040.1832	1066.0902	1081.0851	1099.497	1123.4205	1137.698	1149.534	1181.8282	1206.5553	1240.8282	1304.9959	1344.1173	1359.9069	1408.3561	1415.3917	1441.8429	1489.5109	1490.853	1495.3902	1496.5611	1514.2418	1892.8653	3029.3759	3036.4786	3065.7756	3092.4924	3095.7917	3104.4248	3115.7893	3118.4417	3131.7126	3204.1285	3612.985
CC1CC11NC(=O)C1C	C[C@H]1C[C@]21NC(=O)[C@H]2C	
InChI=1S/C7H11NO/c1-4-3-7(4)5(2)6(9)8-7/h4-5H,3H2,1-2H3,(H,8,9)	InChI=1S/C7H11NO/c1-4-3-7(4)5(2)6(9)8-7/h4-5H,3H2,1-2H3,(H,8,9)/t4-,5+,7+/m0/s1
