13
gdb 16721	6.22992	1.42704	1.26953	3.9018	65.67	-0.269	-0.0609	0.2081	903.0867	0.096755	-361.465433	-361.459151	-361.458207	-361.495936	23.705	
N	 0.0517474004	-1.1276275748	 0.113826114	-0.329046
C	-0.0101124505	 0.0283927998	 0.0671571535	 0.214683
C	-0.0438052414	 1.4463107811	-0.0069242909	 0.18668
C	-1.1539145641	 2.2034519485	-0.0368002584	-0.171399
C	-0.7883663456	 3.6474615647	-0.0159948901	 0.008016
O	-0.0602824636	 4.0182129013	 1.1764539815	-0.245108
C	 0.6868054502	 3.7098328764	 0.002611417	 0.032953
C	 1.2283198961	 2.2875052387	-0.0335929074	-0.338491
H	-2.1684102001	 1.8277383331	-0.0418247602	 0.133107
H	-1.4333990866	 4.4162747909	-0.427427747	 0.112825
H	 1.2527934973	 4.5311310399	-0.4270600952	 0.111161
H	 1.8767392151	 2.0726284224	 0.8222148565	 0.149466
H	 1.8101087228	 2.0981431781	-0.9427756731	 0.13515
127.1691	166.9973	319.2971	369.829	475.1889	549.5718	565.1683	592.017	720.0934	828.4645	848.6592	863.6089	898.1361	931.4259	966.0248	1016.3889	1030.4997	1106.8086	1169.2336	1189.0145	1248.7786	1278.0565	1307.6518	1340.5422	1402.3562	1459.2453	1653.9695	2336.991	3048.4058	3090.245	3159.6183	3180.6777	3230.2514
N#CC1=CC2OC2C1	N#CC1=C[C@H]2O[C@H]2C1	
InChI=1S/C6H5NO/c7-3-4-1-5-6(2-4)8-5/h1,5-6H,2H2	InChI=1S/C6H5NO/c7-3-4-1-5-6(2-4)8-5/h1,5-6H,2H2/t5-,6+/m1/s1
