16
gdb 30149	3.91314	1.18808	1.02559	2.5207	71.38	-0.2253	-0.0068	0.2185	1142.7347	0.125885	-437.89726	-437.889941	-437.888997	-437.929418	28.261	
O	-0.4182104396	 0.3479157838	 1.9944998394	-0.429132
C	-0.0292663746	-0.0172038719	 0.7158827321	 0.147805
C	-0.5438670283	-1.2484653732	 0.0356423985	-0.340393
C	-0.956195566	 0.1309905443	-0.4891397473	-0.204247
C	-2.3327445266	 0.5998114241	-0.2916258877	 0.324341
C	-3.1571408199	 1.2887827342	-1.1205558984	-0.141386
O	-4.3450817573	 1.5059566939	-0.4678167711	-0.136059
C	-4.1765865873	 0.9357089214	 0.73598871	 0.075475
N	-3.0207320649	 0.3819200183	 0.9095918798	-0.346211
H	-1.3845077658	 0.2664643598	 2.0460428635	 0.298758
H	 1.0100402581	 0.24898843	 0.5491117955	 0.106115
H	 0.1246684715	-1.8445158098	-0.5764760088	 0.114065
H	-1.3138110425	-1.8095639515	 0.5548131972	 0.128982
H	-0.5051090791	 0.4566626177	-1.4206747711	 0.089112
H	-3.0809194892	 1.6764172443	-2.1208541768	 0.151751
H	-5.0020266385	 0.9906286844	 1.4280326253	 0.161026
76.3748	152.2654	186.668	310.2209	374.7502	456.8227	527.0471	535.9911	639.0845	683.5838	721.4256	767.66	772.3779	821.9908	844.5669	924.841	941.1209	987.6862	1022.7601	1043.8694	1057.9446	1091.8594	1119.9984	1142.7964	1150.2591	1230.9208	1238.9087	1292.4581	1328.2973	1370.111	1384.1347	1461.7894	1492.935	1559.7577	1636.2059	3129.3206	3155.6285	3164.2111	3222.9346	3276.2413	3300.9571	3658.3108
OC1CC1C1=COC=N1	O[C@H]1C[C@H]1c1cocn1	
InChI=1S/C6H7NO2/c8-6-1-4(6)5-2-9-3-7-5/h2-4,6,8H,1H2	InChI=1S/C6H7NO2/c8-6-1-4(6)5-2-9-3-7-5/h2-4,6,8H,1H2/t4-,6-/m0/s1
