25
gdb 58751	2.35581	1.32186	1.13175	0.2354	92.88	-0.2754	0.0819	0.3573	1282.1095	0.228703	-352.32111	-352.311392	-352.310448	-352.355293	38.065	
C	 0.6345062782	 1.8559137788	-0.4419958858	-0.391001
C	 0.4741276679	 0.3367747354	-0.2831406719	-0.10789
C	-0.9803864271	-0.0356951406	 0.0400872748	-0.392213
C	 0.9753630696	-0.405035823	-1.5065430269	 0.383863
C	 0.4142344661	-0.3446086648	-2.9670504284	-0.263582
C	 1.6105099576	-1.3347556284	-3.0221022252	-0.064866
C	 2.3952132497	-0.3116834792	-2.1563799182	-0.286546
C	 1.0489834984	-1.9641775863	-1.7093792915	 0.014936
C	 1.8961274369	-2.8532449489	-0.8102021651	-0.44616
H	 1.6759581774	 2.1319166567	-0.634238114	 0.114229
H	 0.0300291961	 2.2284368775	-1.2769927228	 0.114313
H	 0.3094011841	 2.3799084967	 0.462835331	 0.107624
H	 1.1001886132	 0.0199891636	 0.56454241	 0.071014
H	-1.6508898514	 0.2623608214	-0.7739702462	 0.115004
H	-1.0960064366	-1.1137751649	 0.1892584706	 0.113551
H	-1.3196341164	 0.467765945	 0.951209304	 0.108142
H	-0.5810115674	-0.7684197958	-3.1314985741	 0.084495
H	 0.5407274667	 0.6007794966	-3.5019733617	 0.084692
H	 1.9761277342	-1.8678987621	-3.90143091	 0.063474
H	 2.6426400911	 0.6371351149	-2.6411316633	 0.085963
H	 3.2437783796	-0.676233316	-1.5748090938	 0.087071
H	 0.0616468352	-2.4222919607	-1.8474305344	 0.057027
H	 2.9021583593	-2.4643898383	-0.6332799509	 0.116187
H	 1.4162955198	-2.9813096537	 0.1669494979	 0.115377
H	 2.0024088177	-3.8509744638	-1.2509329241	 0.115298
57.6697	138.379	177.5141	198.3889	229.1405	242.2162	277.1255	323.0182	346.2105	431.5961	460.5679	548.4528	577.0209	621.5622	769.7325	795.4021	816.4255	869.2114	907.5113	927.4774	938.7623	952.4315	970.4676	999.8492	1008.8595	1049.2711	1050.2726	1106.7002	1119.4524	1122.0957	1140.4075	1152.6685	1160.8402	1185.9633	1188.2807	1220.3465	1241.3621	1249.9127	1304.9814	1345.7805	1365.1762	1396.1441	1404.936	1417.0001	1424.1456	1488.0263	1490.8275	1491.8698	1496.8659	1503.8758	1511.2023	1511.8265	1546.9527	2989.9583	3020.3553	3026.98	3030.739	3031.2426	3043.6975	3057.1112	3084.7709	3092.1901	3095.435	3098.3696	3102.0464	3104.1051	3106.4633	3110.2223	3123.015
CC(C)C12CC(C1)C2C	CC(C)[C@@]12C[C@@H](C1)[C@H]2C	
InChI=1S/C9H16/c1-6(2)9-4-8(5-9)7(9)3/h6-8H,4-5H2,1-3H3	InChI=1S/C9H16/c1-6(2)9-4-8(5-9)7(9)3/h6-8H,4-5H2,1-3H3/t7-,8-,9+/m1/s1
