20
gdb 19156	3.08687	1.71364	1.35467	1.0842	75.37	-0.225	0.0852	0.3102	1009.1957	0.175928	-348.959617	-348.951081	-348.950137	-348.992788	32.255	
C	 0.0292595838	 1.3233784251	 0.202252453	-0.249234
O	-0.1400080567	-0.0236198235	-0.1656960077	-0.290556
C	 0.6156649564	-0.5320039143	-1.2365538974	 0.43753
C	 0.5318847225	 0.0900899993	-2.6072836772	-0.32263
C	 1.8171014974	 0.1859083497	-1.7991029416	-0.336822
C	 0.6698797252	-2.0297324488	-1.1441560339	-0.025033
C	 0.8090130329	-2.7225052257	 0.1872664817	-0.271572
C	-0.4864887236	-2.8172497616	-0.5831585873	-0.270764
H	 1.0391450082	 1.5262796057	 0.5842266028	 0.113005
H	-0.1807817201	 2.0199367741	-0.6227396255	 0.108696
H	-0.6910191002	 1.5156982372	 1.0013201027	 0.128395
H	 0.495205314	-0.5692449401	-3.4678303004	 0.11341
H	-0.0448721447	 1.0015867924	-2.7222083615	 0.11314
H	 2.0836506409	 1.163009243	-1.4145103386	 0.112975
H	 2.6702474639	-0.4161120157	-2.0936955301	 0.113951
H	 1.1973844405	-2.4809275898	-1.9794844381	 0.076703
H	 1.4463696159	-3.5980112153	 0.24577162	 0.102566
H	 0.8095120967	-2.0965752782	 1.0714507345	 0.118144
H	-1.3293898823	-2.254186746	-0.2017460197	 0.125432
H	-0.7415108006	-3.7581672874	-1.0583048555	 0.102666
62.3312	85.4824	190.9506	221.038	236.9062	307.7716	361.173	378.9393	502.8085	544.5275	657.0027	757.5606	786.6932	814.2311	839.1922	878.6557	922.8159	943.6692	969.4946	981.6303	1041.4353	1063.0052	1067.5303	1078.8105	1081.7072	1133.7299	1146.4794	1179.4206	1185.851	1201.5224	1214.3201	1225.2985	1275.6614	1315.508	1430.2134	1456.3859	1457.2227	1482.1352	1490.2902	1498.4955	1508.0684	1512.4935	2987.304	3040.0954	3111.9967	3131.0632	3137.5506	3138.1672	3140.3295	3149.7079	3211.4506	3223.3466	3226.9697	3237.2171
COC1(CC1)C1CC1	COC1(CC1)C1CC1	
InChI=1S/C7H12O/c1-8-7(4-5-7)6-2-3-6/h6H,2-5H2,1H3	InChI=1S/C7H12O/c1-8-7(4-5-7)6-2-3-6/h6H,2-5H2,1H3
