18
gdb 80939	2.53812	1.34181	1.2271	2.0961	78.92	-0.2517	0.0344	0.2861	1116.0059	0.146581	-401.850534	-401.842024	-401.84108	-401.883261	33.329	
C	 0.04668894	 1.4385081749	-0.0132811325	-0.521721
C	 0.0245144211	-0.057935797	 0.0583605935	 0.275488
N	 0.6801017218	-0.948879632	-0.9963604127	-0.397847
C	 0.0728364441	-1.9099013655	 0.0090311191	-0.090834
C	 0.7173389622	-1.0044335939	 1.0985272618	 0.166294
O	 2.0986457591	-0.9608255554	 1.2070291671	-0.452181
C	-1.2133050815	-1.0262740231	 0.0817757529	-0.217725
C	-2.1050340838	-1.0698179801	 1.2225183159	 0.289285
C	-2.8537462224	-1.0938713913	 2.1640582355	-0.43164
H	 1.0773670527	 1.8019105044	 0.0465650236	 0.137682
H	-0.3957129152	 1.8042632613	-0.9460479644	 0.121433
H	-0.5181462466	 1.8634340744	 0.8223161291	 0.138012
H	 0.12848806	-0.9405373028	-1.8594981396	 0.208954
H	 0.1327704142	-2.9912271385	-0.117781021	 0.090416
H	 0.2818648971	-1.0427987974	 2.0958152508	 0.102094
H	 2.4205847169	-0.9421404928	 0.2928114176	 0.289235
H	-1.7701762447	-1.0182757618	-0.8613811479	 0.095883
H	-3.5128145548	-1.1202286334	 2.9964379913	 0.197173
120.7038	136.235	185.1339	208.1324	285.878	321.6911	390.6333	423.021	515.1691	540.5235	596.5518	627.5961	644.4044	651.6307	680.2223	777.4461	812.984	874.654	879.9888	917.5871	953.9444	1029.5947	1063.2129	1095.8941	1114.8979	1126.2263	1180.094	1183.978	1206.2367	1244.8971	1269.1927	1319.2933	1335.7749	1379.3104	1409.6888	1467.6856	1483.6167	1485.23	2227.5352	3034.4216	3050.9079	3103.7608	3113.7288	3115.5641	3142.76	3393.6101	3501.8393	3718.7218
CC12NC(C1O)C2C#C	C[C@@]12N[C@@H]([C@H]1O)[C@H]2C#C	
InChI=1S/C7H9NO/c1-3-4-5-6(9)7(4,2)8-5/h1,4-6,8-9H,2H3	InChI=1S/C7H9NO/c1-3-4-5-6(9)7(4,2)8-5/h1,4-6,8-9H,2H3/t4-,5-,6-,7+/m1/s1
