19
gdb 124990	2.97011	1.00554	0.80056	2.4125	78.19	-0.2247	0.0265	0.2513	1428.6537	0.159967	-419.230566	-419.221	-419.220056	-419.266223	33.725	
C	-0.1093380207	 1.5722720017	 0.1807909402	-0.514476
C	-0.0298508879	 0.0808187897	 0.0584009875	 0.121878
C	 0.0330234753	-0.678120203	-1.1011182501	 0.269381
C	 0.0649187149	-0.2951536445	-2.545407003	-0.306738
C	 1.4849998713	-0.0680853834	-3.0748746024	-0.06143
O	 1.375512649	 0.2720128706	-4.4463207253	-0.417018
N	 0.1045892652	-1.9744595568	-0.6903487022	-0.250406
N	 0.0814504777	-2.1221131206	 0.6467605366	-0.233098
C	 0.0038227567	-0.875120843	 1.1008017515	-0.07311
H	 0.8773105746	 2.0320938461	 0.316995801	 0.127584
H	-0.5564298051	 2.0265312579	-0.70934052	 0.123635
H	-0.7205964476	 1.864642054	 1.0403332328	 0.129102
H	-0.4124121796	-1.0673066556	-3.1604708414	 0.112968
H	-0.5095047744	 0.6239818182	-2.6993195079	 0.126275
H	 1.9682280271	 0.7321872597	-2.4938068099	 0.097323
H	 2.082201466	-0.9824254602	-2.9301579622	 0.088722
H	 2.2580718708	 0.4425654008	-4.7877877476	 0.289013
H	 0.1306712292	-2.795835668	-1.2712470583	 0.266802
H	-0.0342500224	-0.6954416336	 2.1663082106	 0.103595
44.36	71.187	91.8425	117.2097	244.4898	254.6521	257.8436	340.7601	359.9783	412.835	509.9337	652.6798	691.5086	696.6075	783.7224	793.8482	882.6303	954.4281	1000.9014	1003.8134	1040.9692	1064.3093	1080.5988	1143.6711	1185.6187	1212.5553	1240.419	1244.3241	1291.7113	1324.7208	1341.5309	1377.5577	1421.0285	1445.5465	1454.3945	1483.4005	1489.4693	1499.0927	1520.7488	1527.0044	1626.6731	2972.2563	3003.8417	3023.7689	3039.6921	3076.5763	3087.9554	3102.0382	3233.8433	3664.9129	3831.9812
CC1=C(CCO)NN=C1	Cc1c(CCO)[nH]nc1	
InChI=1S/C6H10N2O/c1-5-4-7-8-6(5)2-3-9/h4,9H,2-3H2,1H3,(H,7,8)	InChI=1S/C6H10N2O/c1-5-4-7-8-6(5)2-3-9/h4,9H,2-3H2,1H3,(H,7,8)
