16
gdb 54236	2.35854	1.54064	1.28192	0.9659	65.74	-0.2351	0.0061	0.2412	1031.2382	0.125028	-471.249634	-471.240592	-471.239648	-471.283773	32.869	
N	 0.1771456912	 0.8946238823	 0.8133739905	-0.530016
C	 0.0050103755	 0.0351739972	-0.2230749906	 0.330836
O	 0.7366359349	-0.0307401324	-1.1942366418	-0.380469
C	-1.2731581594	-0.8095494951	-0.1295997161	 0.063031
N	-2.3587220849	-0.2507870838	-0.9285246248	-0.562377
C	-1.0716078794	-2.3417001452	-0.3322026406	-0.177381
N	-1.557163741	-2.5094981744	 1.048637305	-0.331221
C	-1.7240296281	-1.1851114543	 1.3060865374	 0.431428
O	-2.0471817255	-0.5458285458	 2.2803339191	-0.395055
H	 0.9636833734	 1.5235183278	 0.79715171	 0.261519
H	-0.4420251387	 0.8762525893	 1.6114375147	 0.281675
H	-2.7035001417	 0.5953023718	-0.4819560266	 0.243705
H	-1.9897615082	 0.0252663123	-1.8360875602	 0.246693
H	-1.7300614353	-2.7705679843	-1.0902506608	 0.125408
H	-0.0368054158	-2.6546034357	-0.4870722456	 0.134123
H	-1.6517860469	-3.3208556498	 1.6414436102	 0.2581
39.9886	120.7358	166.9622	212.0194	231.3448	256.9862	343.6112	378.2202	391.3998	425.4119	522.6575	626.5995	637.8938	672.8335	738.689	786.1872	801.9115	904.9159	927.965	947.1401	986.472	1124.2553	1136.2644	1171.4348	1194.5878	1239.5142	1270.3351	1327.1857	1358.3069	1397.6175	1516.35	1624.2641	1645.7888	1789.6084	1869.2431	3069.5645	3130.759	3474.5257	3551.6826	3556.3943	3611.9726	3701.3733
NC(=O)C1(N)CNC1=O	NC(=O)[C@@]1(N)CNC1=O	
InChI=1S/C4H7N3O2/c5-2(8)4(6)1-7-3(4)9/h1,6H2,(H2,5,8)(H,7,9)	InChI=1S/C4H7N3O2/c5-2(8)4(6)1-7-3(4)9/h1,6H2,(H2,5,8)(H,7,9)/t4-/m0/s1
