13
gdb 21798	6.22111	1.20559	1.12009	1.6374	59.96	-0.2581	-0.0406	0.2175	1010.808	0.096943	-394.81383	-394.806792	-394.805848	-394.847105	23.922	
O	-0.4049774366	 0.8466199124	 0.9568383783	-0.224081
C	 0.1085027837	 1.0574354247	-0.1079784019	 0.157175
C	 1.4528094113	 1.7674235108	-0.2775012169	-0.388054
C	 1.3768317685	 2.8395724504	-1.313475283	 0.351218
N	 1.3586217155	 2.6619577952	-2.6243227735	-0.306395
C	 1.2238859533	 3.9296356885	-3.1043850417	 0.02832
N	 1.1572226955	 4.8773235882	-2.1849820773	-0.206093
N	 1.2500276261	 4.15745183	-1.041210729	-0.2339
H	-0.3595456346	 0.7445751997	-1.0652471995	 0.110396
H	 1.7715432839	 2.1488141635	 0.6954895218	 0.1316
H	 2.1771914848	 1.0163146358	-0.615158542	 0.163394
H	 1.1784624699	 4.1592042964	-4.1582844529	 0.131782
H	 1.2303709988	 4.6274952344	-0.1504663724	 0.284638
22.7853	65.8731	156.4268	319.8104	369.023	454.1043	567.9046	679.2887	698.9726	758.7095	829.8489	913.4358	981.6807	1012.6041	1039.7271	1054.0656	1131.8909	1174.1024	1212.6244	1273.4936	1304.2113	1323.9239	1411.0786	1421.0831	1450.4816	1498.9301	1582.1142	1839.881	2918.0963	3046.1538	3118.1675	3264.1523	3658.2186
O=CCC1=NC=NN1	O=CCc1ncn[nH]1	
InChI=1S/C4H5N3O/c8-2-1-4-5-3-6-7-4/h2-3H,1H2,(H,5,6,7)	InChI=1S/C4H5N3O/c8-2-1-4-5-3-6-7-4/h2-3H,1H2,(H,5,6,7)
