14
gdb 74566	2.64693	1.70092	1.35706	3.1311	66.23	-0.2392	0.0192	0.2584	946.6941	0.102765	-432.882259	-432.874937	-432.873993	-432.914122	27.875	
N	 0.042432429	 1.3015209873	-0.0450850351	-0.580162
C	-0.0641482764	-0.0526331513	-0.0446760005	 0.476128
N	-1.1377628185	-0.7552656489	-0.0661741134	-0.329756
C	-0.7017288585	-2.1186436672	-0.0553795855	-0.03617
C	 0.8020303201	-2.083004071	-0.054308669	 0.044672
O	 1.1376996871	-0.7146477947	-0.0666665769	-0.23007
C	 0.0830594708	-2.6001943163	 1.1878499676	-0.26402
C	 0.0834947824	-1.8464273904	 2.4043958835	 0.322605
N	 0.0924861158	-1.2232460471	 3.3792919725	-0.348972
H	 0.9075464469	 1.6744924426	 0.3126008988	 0.276456
H	-0.7901265917	 1.7876661359	 0.2485514688	 0.281136
H	-1.3081274782	-2.8498526728	-0.5753456858	 0.118582
H	 1.5010873299	-2.7039043529	-0.5982398187	 0.130859
H	 0.1323190012	-3.6771917532	 1.3122408637	 0.138712
94.3072	144.0317	216.858	346.4836	372.3064	408.8212	424.2535	531.4924	643.326	648.3937	692.0153	728.9979	775.7075	787.4833	799.0459	918.9035	944.6635	984.0124	1015.4673	1058.9016	1085.033	1108.0424	1169.4083	1198.2262	1282.2949	1339.3547	1381.3413	1427.1779	1617.0173	1735.236	2351.9293	3167.6452	3190.2849	3209.0858	3599.4902	3711.6219
NC1=NC2C(O1)C2C#N	NC1=N[C@H]2[C@@H](O1)[C@H]2C#N	
InChI=1S/C5H5N3O/c6-1-2-3-4(2)9-5(7)8-3/h2-4H,(H2,7,8)	InChI=1S/C5H5N3O/c6-1-2-3-4(2)9-5(7)8-3/h2-4H,(H2,7,8)/t2-,3+,4-/m0/s1
