17
gdb 127579	2.32911	1.70016	0.99493	1.7657	79.88	-0.2506	-0.059	0.1915	1158.7841	0.135958	-418.051288	-418.042274	-418.04133	-418.085816	31.316	
C	-0.0293760979	 1.4589585185	-0.0091142489	-0.312805
N	-0.0178499327	 0.0060072865	 0.0459426982	-0.033361
N	-0.0652717622	-0.6963688039	-1.0836734936	-0.247951
C	-0.0422686212	-1.9819501183	-0.7087245335	-0.070021
C	 0.0218909477	-2.1226244	 0.6832103727	 0.120108
C	 0.0698284694	-3.3946203514	 1.4740906902	-0.513425
C	 0.0357839802	-0.8033703199	 1.1519867858	 0.210676
C	 0.0931494554	-0.3124150252	 2.5167155595	 0.073943
O	 0.1038557952	 0.856778948	 2.849711276	-0.303079
H	 0.8730304701	 1.866523221	 0.4502405181	 0.155664
H	-0.0782971909	 1.7301206407	-1.0630089949	 0.151969
H	-0.8921462045	 1.8556120437	 0.5292427761	 0.155579
H	-0.0732337604	-2.758330041	-1.4593348698	 0.118626
H	 1.0175819991	-3.5078050099	 2.011943458	 0.139345
H	-0.7336069941	-3.4485694113	 2.2160854498	 0.138127
H	-0.0357846122	-4.2572822276	 0.8111256763	 0.134427
H	 0.128166519	-1.1226345297	 3.2753439899	 0.08218
51.8554	91.6684	119.9274	177.7016	193.9597	262.5026	271.6518	327.9101	397.9006	528.6354	606.2275	673.4279	681.0698	752.2298	816.7977	871.7397	1004.149	1025.8343	1038.9648	1063.9147	1096.585	1152.3558	1211.551	1252.532	1352.2811	1367.0505	1396.6847	1421.9147	1433.4795	1465.8475	1477.2079	1480.7059	1487.6079	1497.972	1512.9373	1577.1123	1769.1083	2906.8579	3035.1659	3067.1791	3088.1263	3115.596	3137.3886	3173.3088	3244.0974
CN1N=CC(C)=C1C=O	Cn1ncc(C)c1C=O	
InChI=1S/C6H8N2O/c1-5-3-7-8(2)6(5)4-9/h3-4H,1-2H3	InChI=1S/C6H8N2O/c1-5-3-7-8(2)6(5)4-9/h3-4H,1-2H3
