15
gdb 125942	4.48925	1.30506	1.06107	5.4614	67.04	-0.2611	-0.0394	0.2216	1082.8817	0.113544	-453.9028	-453.895729	-453.894784	-453.934791	26.89	
C	 0.2268053109	 1.5021133319	 0.0924444409	-0.400218
C	 0.0349524743	 0.0046913322	-0.0267380185	 0.115038
C	 0.7168383878	-0.6523565097	-1.2836328135	-0.390018
C	 1.4073004765	-1.8122154229	-0.6458121895	 0.286138
N	 2.0977947979	-2.8683555357	-0.9325449406	-0.190573
O	 2.4162731212	-3.4167533065	 0.2988634811	-0.169379
N	 1.9001031957	-2.6666205386	 1.3654287947	-0.23253
C	 1.2934360492	-1.6959443346	 0.7574513052	 0.426755
O	 0.6059049777	-0.6329068014	 1.1803124563	-0.268175
H	 1.2911844191	 1.755339782	 0.1018856057	 0.136833
H	-0.2441161197	 2.0066491126	-0.7570742414	 0.131598
H	-0.2288251599	 1.8770448313	 1.0121657104	 0.144386
H	-1.0300317719	-0.2491438154	-0.0127418483	 0.114348
H	-0.0214353668	-0.9331849159	-2.0378047863	 0.149785
H	 1.4290757281	 0.0369293308	-1.7495251062	 0.146012
51.5067	231.6306	248.2763	303.9947	338.3695	434.0407	497.4657	587.8415	606.0675	716.6217	740.4242	774.9376	831.655	841.0333	872.028	904.7208	926.7055	1048.1402	1061.334	1099.2686	1132.7384	1204.1635	1235.0633	1274.0965	1351.9439	1377.3587	1413.6922	1462.9317	1482.7396	1484.2289	1497.5015	1604.2614	1688.038	3044.8485	3052.9118	3056.245	3111.022	3119.4366	3130.7392
CC1CC2=NON=C2O1	C[C@H]1Cc2nonc2O1	
InChI=1S/C5H6N2O2/c1-3-2-4-5(8-3)7-9-6-4/h3H,2H2,1H3	InChI=1S/C5H6N2O2/c1-3-2-4-5(8-3)7-9-6-4/h3H,2H2,1H3/t3-/m0/s1
