19
gdb 77033	1.95177	1.27103	0.88747	3.5141	82.62	-0.2434	-0.0183	0.2251	1352.2342	0.156408	-385.853219	-385.84337	-385.842425	-385.888581	35.674	
C	 0.0594099218	 1.6146713584	 0.2005094626	-0.413864
C	 0.0865625421	 0.1078731951	 0.0401927596	-0.052266
C	 0.3682176022	-0.5974242882	-1.2489452931	-0.026289
C	 0.6604968619	 0.1341528014	-2.5556441549	-0.392247
C	 1.5169729283	-0.6370686309	-3.4510162357	 0.306491
C	 2.2241015387	-1.2891379282	-4.1710775176	-0.435738
C	 1.3868992704	-0.6958450098	-0.1116128291	-0.120216
C	 2.7080192705	-0.0327320288	-0.1846697507	 0.167677
O	 3.7047492759	-0.4742206625	 0.3355639991	-0.272333
H	 0.7772752592	 2.1320191084	-0.4391155174	 0.123484
H	-0.9360834011	 2.0031882514	-0.0399493248	 0.126327
H	 0.2840350057	 1.8949260602	 1.2345827598	 0.1322
H	-0.6372521829	-0.3934441155	 0.6778557842	 0.103464
H	-0.1766562765	-1.5228560347	-1.4113272014	 0.11029
H	-0.2946715826	 0.344146137	-3.0548385319	 0.137425
H	 1.1178198715	 1.1115383415	-2.3721282699	 0.133579
H	 2.853651237	-1.8579155615	-4.8095731574	 0.200804
H	 1.4357078129	-1.6427615627	 0.4156106725	 0.106408
H	 2.7476039248	 0.9219927395	-0.7529480742	 0.064805
41.222	95.6465	113.1093	180.4169	202.5313	229.916	249.1784	339.1915	373.9621	416.5131	483.5963	505.4707	563.4905	627.6021	645.6286	722.4118	830.0409	904.7002	921.9051	938.7296	976.1963	1000.1181	1034.1319	1058.4402	1104.2441	1146.6271	1155.2137	1186.4784	1240.0164	1260.9729	1320.4523	1343.9467	1389.4025	1422.3159	1432.4314	1457.3196	1473.8106	1496.5648	1509.0412	1808.8562	2241.444	2885.2906	3024.5822	3040.8722	3072.2067	3098.1193	3121.7038	3139.1199	3150.8101	3172.3832	3506.7224
CC1C(CC#C)C1C=O	C[C@H]1[C@@H](CC#C)[C@H]1C=O	
InChI=1S/C8H10O/c1-3-4-7-6(2)8(7)5-9/h1,5-8H,4H2,2H3	InChI=1S/C8H10O/c1-3-4-7-6(2)8(7)5-9/h1,5-8H,4H2,2H3/t6-,7+,8-/m0/s1
