23
gdb 101172	2.28505	1.17695	0.93761	1.2357	82.53	-0.2403	0.0702	0.3105	1384.382	0.202739	-425.400266	-425.389134	-425.38819	-425.437151	39.854	
C	 0.2701705243	 1.3579640014	 0.4236013723	-0.233503
O	 0.0301239581	 0.0037788287	 0.1259196796	-0.253176
C	 0.5455850768	-0.4291957605	-1.1331145477	 0.136925
C	 2.0721867607	-0.5600743972	-1.1237322539	-0.410675
C	-0.1100430145	-1.7607979232	-1.4240660209	-0.050537
C	-1.5487861497	-1.8622338113	-1.899805081	-0.066923
C	-2.4139600039	-0.6373647177	-2.1085752055	-0.418282
C	-0.4033580961	-2.1893160306	-2.8357445952	 0.056647
O	-0.0471484795	-1.2862968409	-3.8473147461	-0.416088
H	 1.3332859897	 1.5760314545	 0.6035643624	 0.103902
H	-0.082180882	 2.0215907009	-0.3827002509	 0.098797
H	-0.286001437	 1.5907148048	 1.3357984788	 0.122048
H	 0.2637049934	 0.2993064837	-1.9054630661	 0.076645
H	 2.3901512882	-1.2774428361	-0.3599546735	 0.115454
H	 2.4177831676	-0.9102116527	-2.1006969361	 0.131191
H	 2.5603758606	 0.3971493602	-0.9193531302	 0.109743
H	 0.2210124537	-2.5476533957	-0.7507755226	 0.084504
H	-2.0891843212	-2.7251113263	-1.5184684	 0.080997
H	-1.9023109868	 0.119366343	-2.7081229285	 0.122035
H	-3.3398472492	-0.9022066814	-2.6313063376	 0.105864
H	-2.684179648	-0.1826892	-1.1511120425	 0.132168
H	-0.2317407146	-3.2345811729	-3.0932252684	 0.082463
H	-0.7051936106	-1.3482548707	-4.5476862163	 0.289803
33.3251	73.1509	105.825	148.4423	171.736	202.4667	227.4205	255.3839	275.5559	299.5406	301.1897	412.4585	460.4299	512.3039	574.4609	620.448	779.6991	794.0229	846.9865	886.4976	961.2005	991.5802	1022.6231	1053.9417	1082.127	1109.7285	1120.2037	1141.4333	1153.3615	1179.1708	1179.8722	1198.7804	1230.3664	1253.7473	1293.8752	1319.3266	1371.4414	1383.2744	1398.9233	1409.3913	1419.2638	1462.8204	1477.2176	1483.1267	1493.0466	1499.2883	1504.1927	1506.3973	1513.4433	2970.5298	3014.7511	3019.4051	3036.7029	3038.9515	3091.6817	3097.4935	3103.3823	3110.4132	3117.9134	3118.8128	3131.2303	3143.3212	3803.2533
COC(C)C1C(C)C1O	CO[C@@H](C)[C@H]1[C@@H](C)[C@H]1O	
InChI=1S/C7H14O2/c1-4-6(7(4)8)5(2)9-3/h4-8H,1-3H3	InChI=1S/C7H14O2/c1-4-6(7(4)8)5(2)9-3/h4-8H,1-3H3/t4-,5+,6-,7-/m1/s1
