19
gdb 89135	2.20192	1.65808	1.16882	3.4779	80.53	-0.2483	0.0107	0.259	1123.8671	0.158678	-382.048614	-382.039676	-382.038731	-382.081781	33.687	
C	-0.5087745445	 1.438258974	 0.058442511	-0.427463
C	 0.0295913676	 0.021643522	-0.0154649047	 0.088473
C	 1.0886662626	-0.4206222782	-1.0646052269	-0.353198
C	 1.8730056944	-1.0036388131	 0.1163390857	 0.343432
C	 2.482016821	-2.3730342406	 0.1676055341	-0.493716
C	 2.250229902	 0.07826508	 1.0648756711	-0.199202
C	 2.6031127416	 1.4083858534	 0.6374597441	 0.307361
N	 2.9406141264	 2.463516418	 0.3019953996	-0.354744
N	 0.8736483646	-0.4925876949	 1.1371284249	-0.198857
H	 0.2758998889	 2.1952018927	 0.0413484098	 0.156911
H	-1.1730593067	 1.6213523962	-0.7931990188	 0.120866
H	-1.0946005645	 1.5670147569	 0.974458055	 0.129933
H	-0.8155051029	-0.6723013104	-0.0489685247	 0.097467
H	 0.7256625107	-1.1726736663	-1.7670747861	 0.113593
H	 1.5988549322	 0.3691080083	-1.6223486836	 0.129728
H	 3.3766204745	-2.4216398881	-0.4633057749	 0.134683
H	 2.7674726059	-2.6367551082	 1.189757729	 0.134943
H	 1.7735156967	-3.1257174335	-0.1935458664	 0.131042
H	 2.8230806097	-0.2369404681	 1.9330810919	 0.138749
134.3867	150.2309	169.9349	193.6781	205.6553	229.8853	320.3663	375.8224	404.2437	454.0352	552.5568	582.5982	634.9582	709.2733	758.529	836.1536	865.2856	897.5907	944.3329	969.1223	1033.247	1043.4455	1053.8971	1117.4284	1129.7727	1146.4071	1199.9715	1239.8836	1282.3277	1307.8618	1314.6921	1385.1329	1408.7688	1413.8731	1434.9556	1481.239	1491.8822	1492.4314	1497.0356	1500.5656	2342.6506	3033.6611	3041.4836	3057.4993	3068.2538	3098.4616	3102.359	3116.7276	3125.3025	3149.5626	3152.1468
CC1CC2(C)C(C#N)N12	C[C@H]1C[C@@]2(C)[C@@H](C#N)N12	
InChI=1S/C7H10N2/c1-5-3-7(2)6(4-8)9(5)7/h5-6H,3H2,1-2H3	InChI=1S/C7H10N2/c1-5-3-7(2)6(4-8)9(5)7/h5-6H,3H2,1-2H3/t5-,6+,7-,9?/m0/s1
