13
gdb 25465	2.86558	1.69109	1.06348	0.9584	68.54	-0.2606	-0.0961	0.1645	1019.4776	0.091624	-448.97909	-448.971955	-448.971011	-449.011451	25.62	
N	-0.0696213084	 1.3294698718	 0.0110666286	-0.547701
C	 0.0316814063	 0.0639802972	 0.0032510233	 0.446229
N	 1.2228181039	-0.6576722777	-0.0073229461	-0.290171
C	 1.1645227188	-1.9457906002	-0.0146871704	 0.077842
N	 0.0327327697	-2.7478537068	-0.0134678565	-0.301401
C	-1.0772844638	-2.0914822107	-0.0034350868	 0.150027
N	-1.1656701923	-0.7247828547	 0.0052851736	-0.177062
C	-2.4510355428	-0.1104982719	 0.0162427935	 0.188449
O	-3.46739999	-0.7488082638	 0.0180331866	-0.28049
H	 0.8654117943	 1.7329822175	 0.008384395	 0.241312
H	 2.1060011766	-2.4911507145	-0.0230000759	 0.140223
H	-2.0366202002	-2.5998154169	-0.001228	 0.179645
H	-2.3689985923	 0.9821946807	 0.022499935	 0.173097
53.9883	143.6758	238.7691	257.0114	358.5872	397.7826	526.3875	537.5953	600.9475	666.6064	784.1221	848.3873	869.4703	913.4727	992.1567	1001.7331	1046.0383	1058.8354	1120.1265	1177.6596	1285.5214	1303.8779	1392.5693	1418.5941	1428.2147	1581.3736	1674.3023	1731.6442	1827.2681	3096.9137	3163.8682	3201.4964	3519.4893
N=C1N=CN=CN1C=O	[NH]C1=NC=NCN1C=O	
InChI=1S/C4H4N4O/c5-4-7-1-6-2-8(4)3-9/h1-3,5H	InChI=1S/C4H5N4O/c5-4-7-1-6-2-8(4)3-9/h1,3,5H,2H2
