22
gdb 117369	5.31217	0.66372	0.61531	1.3105	84.54	-0.2551	0.0389	0.294	1886.789	0.193287	-404.351713	-404.341538	-404.340593	-404.388101	36.614	
C	-0.0327731142	 1.4090398927	-0.1192154667	-0.389136
C	 0.0237134788	-0.0523731703	 0.2856144766	-0.02688
O	-1.2414048992	-0.6419216887	-0.0489209817	-0.248633
C	-1.3923386398	-1.9534658268	 0.2261217845	 0.39991
N	-0.4538434967	-2.6363112815	 0.7402657674	-0.532658
C	-2.7908437435	-2.398350104	-0.1625012925	-0.309904
C	-2.990995363	-3.8955101239	-0.1672954187	 0.016341
C	-3.3303017823	-4.6309247642	 1.1098988217	-0.254028
C	-4.3685853522	-4.474273167	 0.0281759351	-0.285857
H	 0.9164875896	 1.8986491115	 0.118144174	 0.118485
H	-0.2134147466	 1.5098759182	-1.1933509201	 0.124999
H	-0.8326951494	 1.9320121527	 0.4130065675	 0.124633
H	 0.8199746777	-0.5931353262	-0.2366122556	 0.117798
H	 0.2045615459	-0.1754979848	 1.3588077023	 0.115847
H	-0.7598432536	-3.5967340674	 0.8813041315	 0.226251
H	-3.4982204995	-1.9247780169	 0.5311564715	 0.120739
H	-3.0161704799	-1.9714984949	-1.1470151217	 0.124487
H	-2.3502433861	-4.4286157286	-0.8647876372	 0.094694
H	-2.9004910616	-5.6129833004	 1.2733019366	 0.115578
H	-3.44776286	-4.0429495156	 2.0143242756	 0.118074
H	-5.1868184707	-3.7842864762	 0.2067680451	 0.11415
H	-4.6448830537	-5.3481249979	-0.5508631853	 0.115111
36.6999	78.0243	85.6444	119.518	146.0096	219.7432	255.7883	306.2312	359.8549	379.6185	441.0705	569.1887	679.3867	777.9884	805.9547	811.1897	838.6567	869.6612	881.391	912.3316	927.5752	970.786	1013.6894	1051.0596	1059.5129	1081.5967	1121.4702	1136.6858	1143.1622	1154.6913	1184.0967	1200.1022	1228.3619	1259.4977	1288.2038	1290.865	1370.0302	1404.8593	1417.3852	1440.6052	1461.8842	1472.6474	1485.4867	1496.7666	1508.0869	1521.7364	1722.3453	3025.9942	3043.9189	3045.5795	3062.4074	3080.6608	3118.1976	3121.6795	3130.8968	3135.3807	3142.8225	3209.1636	3224.2316	3515.2827
CCOC(=N)CC1CC1	CCO[C]([NH])CC1CC1	
InChI=1S/C7H13NO/c1-2-9-7(8)5-6-3-4-6/h6,8H,2-5H2,1H3	InChI=1S/C7H13NO/c1-2-9-7(8)5-6-3-4-6/h6,8H,2-5H2,1H3
