17
gdb 96718	2.42522	1.11929	0.8085	2.6704	78.62	-0.2358	-0.0405	0.1953	1395.8978	0.135521	-451.358972	-451.349026	-451.348081	-451.39446	34.906	
C	-0.1712509142	 1.8059522322	 0.7097361408	-0.322721
N	-0.0143630913	 0.3888815285	 0.4523377462	-0.289464
C	-0.9752163166	-0.364974536	 0.1151209078	 0.306358
N	-0.7749585126	-1.7371809565	-0.0559728772	-0.328606
C	 0.4244566912	-2.3943971265	 0.1459190701	 0.098188
N	 0.5370115719	-3.6220206588	-0.1697363349	-0.469315
C	-2.4238945116	 0.0633330432	-0.1227888992	 0.318264
N	-3.358381278	-0.8420976197	 0.3077842832	-0.527492
O	-2.7133186376	 1.1070213318	-0.6685042403	-0.34048
H	 0.2950675238	 2.3677584044	-0.1085656235	 0.135334
H	-1.2039638981	 2.1527975162	 0.8058510235	 0.132207
H	 0.3855100648	 2.0539202953	 1.6202001548	 0.118868
H	-1.4874235548	-2.2721597525	-0.5313946666	 0.261893
H	 1.1834477157	-1.7471476411	 0.5876250444	 0.137206
H	 1.4708590941	-3.9578992255	 0.0573367081	 0.229998
H	-3.1109881034	-1.5584065989	 0.9711248279	 0.27057
H	-4.3222239131	-0.545336916	 0.275277195	 0.269194
57.1774	93.8255	115.4011	138.9814	161.3507	237.7676	254.0551	325.9893	372.4219	411.0911	442.3933	460.9239	553.8291	606.8543	660.7662	710.8428	804.822	824.3871	831.5795	1054.597	1084.8142	1088.0134	1103.5216	1131.208	1155.8693	1231.0977	1295.9465	1348.8148	1391.8571	1446.1134	1482.1229	1490.3724	1498.8328	1610.2029	1719.6402	1746.7448	1799.7726	3022.2373	3074.9447	3104.6308	3131.3818	3508.5217	3577.3206	3614.4739	3709.1518
CN=C(NC=N)C(N)=O	CN=C(NC=N)C(=O)N	
InChI=1S/C4H8N4O/c1-7-4(3(6)9)8-2-5/h2H,1H3,(H2,6,9)(H2,5,7,8)	InChI=1S/C4H8N4O/c1-7-4(3(6)9)8-2-5/h2H,1H3,(H2,6,9)(H2,5,7,8)
