19
gdb 58169	2.93944	1.04564	0.92206	5.3369	79.14	-0.2654	-0.0464	0.219	1341.5718	0.157257	-419.247758	-419.237296	-419.236352	-419.284026	36.448	
C	-0.0607558196	 1.5944858097	-0.0456939607	-0.401875
C	-0.0063104406	 0.0635515902	-0.0471039681	 0.029118
C	-1.3946342265	-0.5724706478	 0.1024390641	-0.392336
N	 0.6896158395	-0.4523035843	-1.2450822424	-0.11065
C	 0.2646887907	 0.0016236187	-2.5609647112	-0.364644
C	 1.671565371	-1.3724043658	-1.0532675279	 0.372079
O	 2.0400907214	-1.8114677011	 0.0204343097	-0.36431
C	 2.3376548937	-1.8597767686	-2.2811388001	 0.20432
N	 2.9107621441	-2.2942275196	-3.1861535986	-0.332852
H	 0.9361217642	 2.0263611839	-0.1734763372	 0.129963
H	-0.7132597058	 1.987023384	-0.8320693377	 0.121156
H	-0.4588931838	 1.9400905943	 0.9124064479	 0.130507
H	 0.6118796908	-0.2659429277	 0.7894844632	 0.137004
H	-2.0661950094	-0.2898622188	-0.7151935124	 0.118621
H	-1.3209609459	-1.6628037385	 0.1309724743	 0.136412
H	-1.8555061703	-0.2379856103	 1.0366270227	 0.127819
H	 0.4872296169	 1.0636189466	-2.7047840374	 0.142756
H	 0.7807263244	-0.5645710566	-3.3358661865	 0.176698
H	-0.8119914549	-0.1484288784	-2.6895327817	 0.140216
33.9176	71.5721	101.9431	162.4643	189.0375	228.9429	252.0101	266.5096	314.8962	317.1503	390.0231	457.4706	479.3589	516.7551	612.2549	728.3457	754.4511	839.3783	933.1216	951.2604	955.9567	1086.6668	1130.6808	1139.67	1156.8824	1201.9034	1251.3737	1359.6043	1371.2306	1400.4726	1420.4854	1446.4251	1469.956	1479.9514	1485.989	1494.1048	1503.0478	1511.3887	1526.9642	1750.0856	2343.8258	3037.1986	3038.8555	3044.8804	3095.3871	3096.0605	3106.9534	3118.988	3122.5036	3124.8237	3154.7798
CC(C)N(C)C(=O)C#N	CC(C)N(C)C(=O)C#N	
InChI=1S/C6H10N2O/c1-5(2)8(3)6(9)4-7/h5H,1-3H3	InChI=1S/C6H10N2O/c1-5(2)8(3)6(9)4-7/h5H,1-3H3
