21
gdb 53385	2.99526	0.92113	0.83848	1.8497	87.92	-0.2413	0.0456	0.2869	1510.8023	0.179323	-387.062934	-387.052272	-387.051328	-387.100628	37.663	
C	 0.1721978166	 1.4705835795	-0.3245064888	-0.498061
C	 0.1135679439	 0.0292886847	-0.127037082	 0.050886
C	 0.0689192453	-1.1641819485	 0.0346681652	 0.104809
C	 0.013413972	-2.5952763656	 0.2401383141	-0.298928
C	-0.1105015249	-3.1415122143	 1.6856031522	-0.081401
O	-1.2179335416	-3.9817787324	 1.3277980894	-0.321838
C	-1.3321262819	-3.3781423679	 0.0052578344	 0.434529
C	-2.5841844213	-2.5176025734	-0.0833457009	-0.428559
C	-1.2805749703	-4.4418994711	-1.0793644834	-0.432794
H	 1.0584253935	 1.7589741199	-0.9006335716	 0.14825
H	-0.7076756155	 1.8335209209	-0.8673990438	 0.148624
H	 0.2116769681	 2.002649535	 0.6325215584	 0.148599
H	 0.830989487	-3.0855221215	-0.2975240538	 0.099191
H	 0.743875738	-3.7156857694	 2.0606698946	 0.103968
H	-0.3861110293	-2.3785034971	 2.4241191325	 0.102437
H	-2.5967625612	-1.7592334166	 0.703006339	 0.123781
H	-2.6391545319	-2.0059502134	-1.0493353182	 0.117733
H	-3.4713110436	-3.1489182212	 0.0282994473	 0.118797
H	-2.1643994016	-5.0857639748	-1.0232789563	 0.123948
H	-1.2556840534	-3.9799433812	-2.072231643	 0.118678
H	-0.3934138681	-5.0705955217	-0.9627836454	 0.117351
11.074	57.2952	87.878	140.0295	192.0285	228.788	251.0007	275.4191	319.7559	347.8513	388.0814	426.4443	477.7016	529.4746	637.0227	718.2159	857.2922	877.8919	929.6922	947.8102	991.3058	994.8555	1025.7214	1050.4115	1052.6805	1062.8183	1162.7498	1176.1512	1181.7795	1199.0163	1257.2973	1272.8431	1336.0957	1369.5111	1400.9985	1413.1645	1415.0491	1471.7975	1477.8263	1478.2069	1478.6574	1491.9165	1501.3418	1526.2214	2365.5371	3016.7149	3025.4954	3031.9811	3040.9044	3048.5381	3069.4323	3085.8448	3086.2125	3103.0252	3112.5592	3113.614	3124.5969
CC#CC1COC1(C)C	CC#C[C@H]1COC1(C)C	
InChI=1S/C8H12O/c1-4-5-7-6-9-8(7,2)3/h7H,6H2,1-3H3	InChI=1S/C8H12O/c1-4-5-7-6-9-8(7,2)3/h7H,6H2,1-3H3/t7-/m0/s1
