19
gdb 15338	3.73089	1.01052	0.8581	1.2041	82.09	-0.2315	0.0454	0.2769	1406.8791	0.164015	-327.883175	-327.873585	-327.872641	-327.919292	33.196	
C	 0.376633499	 1.5569636075	 0.1180226285	-0.376978
C	-0.2299357825	 0.1827529347	-0.1851583676	-0.186577
C	 0.4535697643	-0.4965148374	-1.3478861604	 0.016214
N	 1.7411605506	-1.1424154035	-1.0688384702	-0.324267
C	 0.5807470122	-1.985426255	-1.4618404244	-0.26899
C	 0.047391735	-2.8963296401	-0.4860357145	 0.138515
C	-0.4219011312	-3.6754004514	 0.3041050301	 0.083532
C	-0.9758008206	-4.6152293978	 1.2675735286	-0.499784
H	 1.4404060307	 1.4609084582	 0.3561360717	 0.130003
H	 0.2834243297	 2.2338889431	-0.7390531655	 0.107176
H	-0.1214942354	 2.029914707	 0.9697448273	 0.11108
H	-0.1511811861	-0.4657342537	 0.6924931748	 0.116374
H	-1.2991554639	 0.2823647415	-0.4122289325	 0.095184
H	 0.3612428665	 0.0283242992	-2.2997211576	 0.080619
H	 2.3705905383	-1.0508586601	-1.862151497	 0.231462
H	 0.5878216397	-2.3755373901	-2.4783340493	 0.101307
H	-0.9998903327	-5.6326744108	 0.8615959248	 0.147656
H	-0.376763096	-4.639745994	 2.1846669905	 0.150871
H	-2.0003632777	-4.3460566071	 1.5479587926	 0.146602
19.6531	69.8927	83.0961	133.5921	199.8015	226.2877	272.9603	324.3664	387.8703	438.9396	525.6102	590.7476	724.7687	766.726	821.4331	884.4893	902.5596	949.5915	1026.7054	1031.3169	1052.3497	1053.3111	1092.1649	1129.6742	1155.3616	1208.374	1239.4215	1265.6383	1303.7604	1343.3702	1406.0109	1413.7282	1414.3034	1462.5265	1477.1638	1478.2859	1478.9079	1498.9021	1508.8053	2369.9345	3025.0208	3029.8239	3030.902	3079.4209	3084.4554	3086.8998	3092.9557	3104.4262	3112.1603	3114.9033	3500.7617
CCC1NC1C#CC	CC[C@H]1N[C@H]1C#CC	
InChI=1S/C7H11N/c1-3-5-7-6(4-2)8-7/h6-8H,4H2,1-2H3	InChI=1S/C7H11N/c1-3-5-7-6(4-2)8-7/h6-8H,4H2,1-2H3/t6-,7+/m1/s1
