17
gdb 29579	2.94592	1.31122	0.96438	2.3202	76.09	-0.182	0.0441	0.2262	1196.0576	0.137248	-418.007975	-417.999517	-417.998572	-418.041451	31.612	
N	-0.1176396248	 1.4808089008	-0.0652316099	-0.611214
C	-0.0482754638	 0.0709402898	-0.0410297261	 0.119472
C	-1.1011778664	-0.8178988071	-0.0623764075	-0.146545
N	-0.5782299525	-2.0877811561	 0.0807601388	-0.250392
C	 0.7799137714	-2.0227203337	 0.1783243523	-0.167154
C	 1.1510438989	-0.6948576787	 0.1159035588	 0.239206
C	 2.5309483309	-0.1785888811	 0.2055435572	-0.049791
C	 3.3930436281	-0.3921931631	 1.384250745	-0.168642
O	 3.5826053849	-1.1512348109	 0.1894372059	-0.237555
H	 0.6072921408	 1.8898504796	-0.6436884737	 0.238354
H	-1.0126825336	 1.807631223	-0.4083729166	 0.236698
H	-2.162331533	-0.6529462171	-0.1544439456	 0.106823
H	-1.1167652686	-2.9346486263	 0.0717151595	 0.260302
H	 1.3925962957	-2.9045404074	 0.2626044429	 0.131502
H	 2.7498112114	 0.7071313309	-0.3957066092	 0.078259
H	 4.187415076	 0.3165505589	 1.618153371	 0.108982
H	 2.9891803446	-0.9458321217	 2.2301381473	 0.111695
57.6548	134.6086	157.4152	177.1556	284.2232	299.7311	389.6141	454.7931	506.0888	606.7003	623.9168	631.7612	702.1738	736.5657	768.9469	806.0884	854.3434	893.911	918.9765	1006.8574	1077.2477	1085.1153	1094.4076	1137.329	1151.9795	1168.7881	1207.3802	1271.7584	1286.3527	1349.1351	1410.8425	1454.1663	1483.5268	1517.9216	1570.1058	1629.4017	1660.4671	3069.9163	3078.0388	3170.9083	3262.2858	3278.2712	3515.8856	3603.7139	3698.532
NC1=CNC=C1C1CO1	Nc1c[nH]cc1[C@H]1CO1	
InChI=1S/C6H8N2O/c7-5-2-8-1-4(5)6-3-9-6/h1-2,6,8H,3,7H2	InChI=1S/C6H8N2O/c7-5-2-8-1-4(5)6-3-9-6/h1-2,6,8H,3,7H2/t6-/m1/s1
