18
gdb 84136	2.12984	1.37796	0.97445	5.0507	78.65	-0.262	-0.0034	0.2586	1247.5014	0.14756	-401.981435	-401.972456	-401.971512	-402.015742	33.036	
C	-0.237025233	 1.365976076	 0.0968723412	-0.491634
C	-0.0233504199	-0.1105991601	-0.0061665402	 0.33451
C	-0.2874363252	-0.8971193484	-1.0529848717	-0.217664
C	 0.1248269331	-2.3287041294	-0.8452489546	 0.086558
O	 1.2344633803	-2.7022129253	-1.6509236529	-0.42468
C	 0.4532874027	-2.379155515	 0.6966574513	-0.181797
C	 0.5602998858	-0.8923185379	 1.1513011224	-0.325788
C	-0.5829030177	-3.0896279937	 1.4391920213	 0.267312
N	-1.4151200728	-3.6474625606	 2.0165751267	-0.329488
H	 0.7032040596	 1.8845297899	 0.3230021652	 0.131549
H	-0.6439639702	 1.7816829569	-0.8279993179	 0.132642
H	-0.9279865709	 1.6048660905	 0.9146245324	 0.139238
H	-0.6954410394	-0.5605986648	-1.999700813	 0.102119
H	-0.6570102088	-3.0512843678	-1.0941676647	 0.114053
H	 1.8339821839	-1.9481426833	-1.6856001975	 0.277734
H	 1.3935656582	-2.9213972711	 0.8266246952	 0.132716
H	 1.6005158346	-0.6010385229	 1.344363707	 0.117623
H	 0.0146910198	-0.7149424931	 2.08361223	 0.134997
37.6368	128.5942	158.5008	186.1412	230.5518	299.7762	338.2116	390.4454	401.7815	460.8352	512.4951	575.5613	638.7273	729.2203	837.6684	858.0185	882.2171	917.8768	976.2758	1015.5568	1034.3176	1035.7402	1069.6502	1081.5141	1158.7403	1196.1436	1216.1731	1269.2414	1283.3456	1306.0139	1347.9757	1352.4292	1415.1384	1431.2774	1478.9857	1484.2512	1487.4049	1717.7173	2353.3874	3022.6915	3030.357	3071.2122	3075.5006	3079.2142	3084.0559	3120.6826	3196.4461	3795.7287
CC1=CC(O)C(C1)C#N	CC1=C[C@@H](O)[C@@H](C1)C#N	
InChI=1S/C7H9NO/c1-5-2-6(4-8)7(9)3-5/h3,6-7,9H,2H2,1H3	InChI=1S/C7H9NO/c1-5-2-6(4-8)7(9)3-5/h3,6-7,9H,2H2,1H3/t6-,7+/m0/s1
