15
gdb 5073	3.34843	1.97466	1.25648	2.6253	64.37	-0.1821	0.0462	0.2283	920.9493	0.118155	-399.82668	-399.818274	-399.81733	-399.859099	30.604	
C	-0.0566734004	 1.5233771447	 0.082089847	-0.510687
C	 0.0059676838	 0.0363315859	 0.0037725907	 0.243018
C	 0.0134458266	-0.797729109	-1.0955239129	 0.064927
O	-0.090818791	-0.4574832763	-2.4322512702	-0.460188
C	 0.0660092353	-2.1448983943	-0.6418009809	 0.263442
O	 0.0781598539	-3.2439042007	-1.4462835148	-0.456534
C	 0.1010246531	-2.116590518	 0.7302307351	-0.1886
N	 0.0708463546	-0.7830948056	 1.1027704917	-0.312332
H	 0.8644384781	 1.9669602441	 0.4821675057	 0.124212
H	-0.2137032033	 1.9284490451	-0.9208238749	 0.138968
H	-0.8861671173	 1.8693149256	 0.7110199768	 0.127687
H	 0.7696652995	-0.1621788917	-2.7484494235	 0.297593
H	-0.0529308521	-2.9182729206	-2.3453647484	 0.294
H	 0.1433398169	-2.9107158425	 1.4552021468	 0.11786
H	 0.0754941924	-0.4597795067	 2.0530634719	 0.256633
102.636	165.4232	183.0913	239.0971	259.5662	269.2075	291.8503	405.7245	417.4508	537.914	571.6778	622.2495	646.1607	705.7029	743.325	766.225	970.1474	1059.277	1062.1795	1108.7946	1178.6364	1215.9635	1268.46	1314.6807	1364.7937	1413.4414	1464.0301	1484.2132	1493.6482	1516.9634	1604.1924	1675.6366	3012.584	3057.6959	3117.8332	3282.128	3694.3708	3786.7391	3790.3161
CC1=C(O)C(O)=CN1	Cc1c(O)c(O)c[nH]1	
InChI=1S/C5H7NO2/c1-3-5(8)4(7)2-6-3/h2,6-8H,1H3	InChI=1S/C5H7NO2/c1-3-5(8)4(7)2-6-3/h2,6-8H,1H3
