21
gdb 108555	3.22823	1.42729	1.25116	1.4234	81.49	-0.2215	0.094	0.3155	1108.3385	0.183901	-387.069145	-387.061248	-387.060304	-387.101379	31.669	
C	 0.2491964212	 1.4863681671	 0.1159864926	-0.376118
C	-0.0793699506	 0.0133232262	-0.1563940884	-0.273389
C	 0.6739162569	-0.5459849457	-1.33382023	 0.492572
O	 0.3789086323	 0.1218901792	-2.5542646275	-0.317391
C	 0.5028616042	-0.8403808575	-3.6073359795	-0.085336
C	 1.4020479261	-1.9241326892	-3.0194586915	-0.076796
C	 2.7396672324	-1.2853805424	-2.5190096742	-0.238229
C	 2.0870022831	-1.0819684075	-1.1526020919	-0.127435
C	 0.9175412416	-2.0002860795	-1.5434143371	-0.177157
H	 1.309017654	 1.6160892863	 0.3586558632	 0.114125
H	 0.0306779393	 2.0959612413	-0.7647825935	 0.136569
H	-0.3396884193	 1.8702471887	 0.9544856837	 0.106187
H	 0.1510414424	-0.5952583199	 0.7261720239	 0.096996
H	-1.1542145324	-0.0967577191	-0.3457032352	 0.102355
H	-0.4867874554	-1.2380417759	-3.8827902068	 0.08745
H	 0.9371227409	-0.3408600408	-4.4802095693	 0.103432
H	 1.4716640331	-2.8389624976	-3.6064270837	 0.073399
H	 3.5442057239	-2.0237086696	-2.4741692345	 0.100465
H	 3.092723761	-0.3960255146	-3.0526807275	 0.096671
H	 2.60068131	-1.0135280182	-0.1994095338	 0.078022
H	 0.4401430354	-2.8230212414	-1.0267027889	 0.083609
95.7038	151.7525	200.1978	243.4733	330.7323	359.0931	381.7785	500.8858	604.9148	649.5818	714.9907	778.8674	809.6016	838.861	847.1948	867.5191	894.3259	940.5608	960.1237	985.3117	1002.3135	1006.0397	1034.0254	1053.1829	1077.5024	1096.8208	1116.4593	1123.8719	1173.5545	1188.4912	1216.5446	1234.3715	1266.9595	1273.6461	1294.6719	1317.1299	1362.1323	1379.3816	1408.4617	1435.1598	1474.7399	1491.0635	1496.0564	1510.0623	1515.7047	2978.2707	3027.1952	3038.3709	3039.7743	3064.2581	3066.7339	3098.2216	3106.1421	3122.8742	3124.3468	3161.87	3191.3157
CCC12OCC3CC1C23	CC[C@@]12OC[C@H]3C[C@@H]1[C@@H]23	
InChI=1S/C8H12O/c1-2-8-6-3-5(4-9-8)7(6)8/h5-7H,2-4H2,1H3	InChI=1S/C8H12O/c1-2-8-6-3-5(4-9-8)7(6)8/h5-7H,2-4H2,1H3/t5-,6-,7+,8-/m1/s1
