12
gdb 21609	4.00006	2.0575	1.35916	3.8341	61.84	-0.2451	-0.052	0.1932	822.9959	0.085252	-410.832644	-410.825953	-410.825009	-410.863524	24.841	
N	 0.0041140485	 1.3407398438	 0.1144676049	-0.552072
C	-0.0616697168	-0.008320962	 0.0412036383	 0.524048
N	-1.1849442741	-0.6399337405	 0.0243141322	-0.403402
C	-1.1190176295	-2.026417774	-0.0018319148	 0.316483
N	-2.116070788	-2.8272224539	-0.0148938341	-0.529454
C	 0.2317686497	-2.605130018	-0.0210750854	 0.049192
N	 1.3276782494	-1.9491807792	-0.0144383124	-0.07859
O	 1.1865036738	-0.5393616051	 0.0198570542	-0.269418
H	 0.8771222238	 1.7959213584	-0.0908749089	 0.279413
H	-0.8538135555	 1.843421698	-0.0378596246	 0.281734
H	-2.9814086777	-2.2814292635	 0.0001027765	 0.221325
H	 0.3408296564	-3.6850235739	-0.0463449159	 0.160741
104.6721	188.9915	303.6585	344.7159	382.979	466.2776	493.2465	536.957	590.9549	715.4429	747.3609	760.7248	879.0906	922.0099	960.449	967.5132	988.0066	1088.4571	1210.8728	1271.1962	1387.7235	1424.3564	1598.6606	1656.6532	1702.8413	1718.8642	3196.1214	3452.516	3614.8511	3744.9285
NC1=NC(=N)C=NO1	N[C]1N=C([NH])C=NO1	
InChI=1S/C3H4N4O/c4-2-1-6-8-3(5)7-2/h1H,(H3,4,5,7)	InChI=1S/C3H4N4O/c4-2-1-6-8-3(5)7-2/h1H,(H3,4,5,7)
