16
gdb 47854	2.62101	1.64946	1.12599	3.4602	66.64	-0.2465	-0.0345	0.212	1043.6037	0.124703	-475.01839	-475.010555	-475.009611	-475.051323	28.763	
O	-0.0000829677	-0.0304390678	 0.4118680409	-0.27176
C	-0.0047621848	 1.1236195577	 0.057969018	 0.363388
C	-1.3690909662	 1.8297326004	-0.0929329208	-0.173489
O	-1.5607105095	 2.6153766706	-1.2600053694	-0.209788
C	-1.2757515619	 3.967900884	-1.1412341355	-0.012155
O	 0.0944527136	 4.2035381762	-0.8291827342	-0.228198
C	 0.966234299	 3.5620421569	-1.6772984388	 0.103734
N	 1.5735889641	 2.4993203723	-1.3901629303	-0.202127
C	 1.3187113934	 1.8948976324	-0.0832913375	-0.255923
H	-2.1169332056	 1.0345764249	-0.1137892897	 0.141841
H	-1.529541154	 2.4350451247	 0.8139462087	 0.119344
H	-1.5424170665	 4.4148028738	-2.1062934497	 0.121243
H	-1.8294394964	 4.4471710271	-0.3237764865	 0.117311
H	 1.1173840587	 4.0512971186	-2.6410896744	 0.125738
H	 1.3180888528	 2.6569054324	 0.709568559	 0.128944
H	 2.1072611411	 1.1710057357	 0.1249028502	 0.131898
58.5284	119.9208	185.6514	265.542	301.5392	357.2977	404.4468	486.7886	509.2076	594.4649	624.1202	706.7342	842.8475	863.8548	935.8281	970.4005	988.6153	1002.8457	1048.0297	1073.4366	1159.6738	1171.6032	1199.281	1268.0341	1288.8055	1324.9057	1333.4896	1374.4267	1383.0664	1435.7912	1463.7651	1475.7043	1510.7749	1749.9621	1806.5791	2984.4528	3007.8105	3018.4222	3076.1048	3117.099	3122.6419	3125.738
O=C1COCOC=NC1	O=C1COCOC=NC1	
InChI=1S/C5H7NO3/c7-5-1-6-3-9-4-8-2-5/h3H,1-2,4H2/b6-3-	InChI=1S/C5H7NO3/c7-5-1-6-3-9-4-8-2-5/h3H,1-2,4H2/b6-3-
