17
gdb 27920	2.4339	1.3279	0.86614	5.4453	81.7	-0.1969	-0.0199	0.177	1290.7876	0.136302	-418.06497	-418.055846	-418.054901	-418.099037	32.984	
C	 0.0182054688	 1.4897252333	 0.0745142495	-0.50897
C	-0.0098022757	 0.0020305432	-0.0480750505	 0.233007
C	-0.0778620062	-0.842435749	-1.1508983195	 0.124897
C	-0.1369957193	-0.4423092736	-2.544232966	 0.068261
O	-0.1967947414	-1.20856419	-3.4858746404	-0.302954
C	-0.0589619599	-2.1960288388	-0.669453877	-0.323586
C	 0.0101834617	-2.1399853475	 0.6938291016	 0.308121
N	-0.0172112086	-3.116076587	 1.705319546	-0.608761
N	 0.0379994554	-0.8029634142	 1.0578695919	-0.325397
H	 0.9534118703	 1.8424130225	 0.5269786305	 0.135316
H	-0.0720430312	 1.9601502384	-0.9054662495	 0.150611
H	-0.8059700454	 1.8606570288	 0.6963869698	 0.133858
H	-0.1236743368	 0.6578716505	-2.7190899403	 0.044557
H	-0.0802269039	-3.0794129631	-1.2870636242	 0.112418
H	-0.264121871	-4.0192561446	 1.3201688795	 0.253782
H	 0.8767642909	-3.2138579839	 2.1785656294	 0.246084
H	 0.0046284121	-0.4851043049	 2.0127260791	 0.258755
74.2019	135.5096	162.3718	175.1988	202.5363	216.3452	269.0747	372.0834	409.2136	515.4676	535.4615	619.5523	654.3537	659.7561	668.1445	798.8819	832.856	850.3371	993.7008	1025.7219	1032.1314	1057.3611	1130.8193	1146.2652	1190.4528	1257.7816	1361.4474	1414.209	1415.7025	1463.6048	1468.6557	1478.7281	1496.4171	1574.5721	1634.0949	1664.2533	1771.6076	2859.7734	3020.0728	3064.4404	3139.3953	3266.6693	3492.2211	3601.535	3656.6295
CC1=C(C=O)C=C(N)N1	Cc1c(C=O)cc(N)[nH]1	
InChI=1S/C6H8N2O/c1-4-5(3-9)2-6(7)8-4/h2-3,8H,7H2,1H3	InChI=1S/C6H8N2O/c1-4-5(3-9)2-6(7)8-4/h2-3,8H,7H2,1H3
