21
gdb 105525	2.0836	1.52631	1.09448	1.871	74.12	-0.2503	0.0609	0.3112	1200.1005	0.179799	-461.322694	-461.312477	-461.311533	-461.358204	36.973	
C	-0.0819278077	 1.3121653482	 0.2426498099	-0.254792
O	 0.0252443024	-0.0770280578	 0.0064826343	-0.302072
C	 0.6749618041	-0.514579208	-1.1658542104	 0.356509
C	 0.2882364008	 0.1439341366	-2.5195326767	-0.138615
O	 1.6204092638	 0.6460377789	-2.7062045197	-0.270564
C	 2.0858780364	 0.0511178096	-1.4749494234	-0.138748
C	 0.5875467993	-2.0521683224	-1.1103341669	 0.072012
C	-0.8537307183	-2.5562430926	-1.1225905288	-0.417347
O	 1.368659394	-2.6522487394	-2.1347283806	-0.428695
H	 0.8952201609	 1.8098636828	 0.2837146227	 0.11867
H	-0.6993244827	 1.8201815727	-0.5096353918	 0.115013
H	-0.5664456235	 1.4188342722	 1.2159634919	 0.132407
H	-0.0070819513	-0.552918428	-3.3164821388	 0.079319
H	-0.4614768373	 0.9421669212	-2.4723144353	 0.104026
H	 2.465212354	 0.799778758	-0.7705155456	 0.098281
H	 2.8493097383	-0.7119648719	-1.6512960228	 0.121658
H	 1.0671381893	-2.3541024698	-0.171739272	 0.099459
H	-1.358916435	-2.274684978	-2.0557712907	 0.105532
H	-0.8696486405	-3.6465729791	-1.0451507787	 0.123515
H	-1.4183314544	-2.1280571686	-0.2924676242	 0.140483
H	 0.8725794477	-2.6081232045	-2.9590782423	 0.283949
63.3067	69.029	89.4928	188.3592	206.8279	230.66	269.7567	297.0222	346.4227	349.8627	395.4697	448.836	493.7731	551.4357	630.5699	823.5779	861.2537	914.1991	929.64	983.8977	1001.1299	1042.2514	1064.1619	1076.623	1099.7185	1152.8967	1156.4316	1158.6518	1177.2075	1184.6995	1235.5741	1275.2272	1296.8949	1305.4612	1358.5075	1384.5542	1395.8702	1411.7712	1478.4444	1481.9388	1492.4472	1496.5077	1506.0652	1512.7412	1531.8367	2999.2091	3007.549	3025.9057	3036.8404	3046.945	3051.4148	3064.8612	3093.8586	3102.8708	3118.5655	3142.5583	3810.9887
COC1(COC1)C(C)O	COC1(COC1)[C@@H](C)O	
InChI=1S/C6H12O3/c1-5(7)6(8-2)3-9-4-6/h5,7H,3-4H2,1-2H3	InChI=1S/C6H12O3/c1-5(7)6(8-2)3-9-4-6/h5,7H,3-4H2,1-2H3/t5-/m1/s1
