18
gdb 63228	2.3941	1.58125	1.251	2.6604	72.54	-0.2522	-0.0347	0.2175	1066.9091	0.145858	-439.110317	-439.101404	-439.10046	-439.144661	32.584	
C	 0.1422136172	 1.494028349	-0.1332385977	-0.4233
C	 0.0163681331	-0.0306097541	-0.0127923246	 0.237921
C	-1.457206841	-0.4492228384	 0.0497861328	-0.410576
N	 0.6508044445	-0.6543532536	-1.1936209805	-0.275996
C	 1.5430310072	-1.4413972822	-0.7670353544	 0.114519
O	 1.7511861872	-1.5715749411	 0.5656912202	-0.205981
C	 0.8404725904	-0.6592857904	 1.1932237732	-0.036397
C	 1.6015870564	 0.3438835128	 2.0378822997	 0.142991
O	 2.7865510742	 0.5315309615	 1.9828564555	-0.238141
H	 1.1895798298	 1.8042333009	-0.1732042635	 0.140334
H	-0.341393224	 1.8203179852	-1.0573145649	 0.134258
H	-0.34317996	 2.0044561546	 0.7052326104	 0.113295
H	-1.9819242379	-0.1083129537	-0.8466946348	 0.133761
H	-1.5511065374	-1.5377450732	 0.1052720272	 0.12356
H	-1.9484851977	-0.0127330015	 0.9263457943	 0.113392
H	 2.1897231191	-2.0593467771	-1.3795026363	 0.148122
H	 0.1785941209	-1.229110505	 1.8572265012	 0.106249
H	 0.9469306482	 0.9171848264	 2.7337822522	 0.08199
27.9017	93.6846	230.8946	235.3777	266.9683	270.3317	288.8507	333.5284	364.1075	428.4816	589.8805	598.3382	740.7311	750.989	806.7197	894.4593	939.1673	943.1244	966.3978	983.3005	998.6105	1033.5283	1080.5337	1121.8055	1188.4085	1197.9691	1242.3637	1286.3308	1329.8456	1365.9736	1397.662	1417.0695	1421.8089	1477.0288	1486.4884	1494.9729	1507.9704	1711.1252	1841.892	2868.0561	3031.9439	3035.3377	3041.8254	3106.2138	3114.0425	3122.1413	3128.4506	3221.448
CC1(C)N=COC1C=O	CC1(C)N=CO[C@H]1C=O	
InChI=1S/C6H9NO2/c1-6(2)5(3-8)9-4-7-6/h3-5H,1-2H3	InChI=1S/C6H9NO2/c1-6(2)5(3-8)9-4-7-6/h3-5H,1-2H3/t5-/m0/s1
