17
gdb 30021	3.2516	1.58578	1.08986	4.9997	74.96	-0.1852	0.0275	0.2127	1079.9968	0.138794	-418.030084	-418.022338	-418.021394	-418.062709	28.367	
C	 0.1224926034	 1.4694315689	-0.0065034462	-0.344609
N	 0.0176639342	 0.0275837116	 0.0382697978	-0.109503
C	-0.00469282	-0.8214947465	-1.0385151677	-0.025413
N	-0.0848589475	-2.1038692577	-0.7021536457	-0.369156
C	-0.1048039799	-2.0512744475	 0.6487067325	 0.384511
C	-0.0304426526	-0.790579692	 1.1497258811	 0.175417
C	-0.2016810125	-0.7986023565	 2.6315500272	-0.375286
C	-0.0788563672	-2.3559035023	 2.8491611204	-0.080464
O	-0.2471682107	-3.0367053811	 1.575433714	-0.278657
H	 1.0422182289	 1.8126452264	 0.4784891999	 0.142669
H	 0.1368337063	 1.791260842	-1.0496696728	 0.146305
H	-0.7317410204	 1.940106884	 0.4907542392	 0.142799
H	 0.0595226486	-0.4438005456	-2.0483261596	 0.125582
H	 0.5670103057	-0.272338374	 3.2079341088	 0.113638
H	-1.1768964823	-0.414250206	 2.9619872313	 0.114198
H	 0.918289343	-2.6023025386	 3.2303413331	 0.117319
H	-0.829339507	-2.7498464552	 3.5369648567	 0.12065
99.5855	116.6838	170.1352	180.1129	249.6288	331.291	520.	596.0609	622.2114	644.5183	727.7451	759.2764	771.9085	797.7556	851.6768	920.2135	996.6957	1067.4705	1074.5135	1099.1531	1151.8495	1194.3364	1217.4632	1242.4613	1249.4545	1299.3074	1351.1987	1361.9636	1428.1877	1449.7777	1473.1766	1480.7159	1496.9056	1517.7119	1520.5308	1541.3054	1638.3969	2997.3889	3034.6851	3036.8604	3054.2791	3092.7695	3114.8747	3134.1247	3247.0616
CN1C=NC2=C1CCO2	Cn1cnc2c1CCO2	
InChI=1S/C6H8N2O/c1-8-4-7-6-5(8)2-3-9-6/h4H,2-3H2,1H3	InChI=1S/C6H8N2O/c1-8-4-7-6-5(8)2-3-9-6/h4H,2-3H2,1H3
