19
gdb 80461	2.292	1.57525	1.35874	2.0172	75.75	-0.2424	-0.0225	0.2198	1067.4689	0.15824	-423.038146	-423.02943	-423.028486	-423.07149	32.719	
C	 0.159937736	 1.6636470682	-0.1007369876	-0.42455
C	 0.0964072382	 0.1588004097	 0.0173869147	-0.03699
C	 1.2839254064	-0.7347363992	-0.1524072671	 0.064095
O	 2.5443172582	-0.1027859447	-0.1237806551	-0.27432
C	 2.9681940286	 0.0911597943	 1.2283949096	 0.031924
C	 3.7392708754	 1.3870452446	 1.4043923455	-0.408459
C	 1.699269624	-0.0334724749	 2.0877027712	 0.370912
O	 1.6283896566	 0.22251163	 3.263390704	-0.32666
C	 0.6451684479	-0.640214765	 1.2136625749	-0.217139
H	 1.1742615138	 2.0351570987	 0.0542364646	 0.139079
H	-0.1519612454	 1.9733376312	-1.1036813953	 0.124698
H	-0.502628827	 2.1484075614	 0.6226480149	 0.129255
H	-0.8345248065	-0.2768000903	-0.3393580168	 0.099973
H	 1.2510214209	-1.626954212	-0.7700273467	 0.103829
H	 3.612747297	-0.7554945179	 1.5234373139	 0.10758
H	 3.1379707759	 2.2528228279	 1.1144769794	 0.12989
H	 4.0105259467	 1.4938032546	 2.4582188552	 0.141964
H	 4.650575772	 1.3800937381	 0.8014738271	 0.128519
H	 0.0109702413	-1.3979663447	 1.6567194335	 0.1164
90.8618	119.91	151.5502	195.7644	229.4791	245.579	353.3244	410.6408	486.8398	551.6291	578.8617	624.9091	715.2974	750.2928	818.2723	830.4827	891.9366	907.2398	982.3769	996.9323	1041.6707	1067.3356	1083.1334	1115.2206	1119.4693	1135.4862	1145.1942	1199.6135	1215.8042	1304.3576	1318.7001	1346.4123	1363.5061	1402.4277	1412.0575	1423.069	1484.1722	1487.5771	1495.8831	1502.1696	1835.9219	2951.6121	3044.0339	3051.3004	3102.305	3126.7787	3127.9656	3131.8778	3144.1662	3155.8429	3191.9068
CC1C2OC(C)C(=O)C12	C[C@H]1[C@H]2O[C@@H](C)C(=O)[C@@H]12	
InChI=1S/C7H10O2/c1-3-5-6(8)4(2)9-7(3)5/h3-5,7H,1-2H3	InChI=1S/C7H10O2/c1-3-5-6(8)4(2)9-7(3)5/h3-5,7H,1-2H3/t3-,4+,5-,7-/m1/s1
