16
gdb 14904	4.56884	1.53944	1.25551	1.5488	72.6	-0.251	0.0123	0.2633	965.5758	0.130542	-346.567192	-346.559874	-346.55893	-346.598749	27.971	
C	 0.0021544312	-1.202125999	 0.0054645905	-0.44164
C	-0.0164197265	-0.0019313028	 0.0380991671	 0.307224
C	-0.0115698364	 1.4619650826	 0.0299165594	-0.069381
O	-0.7279320123	 1.9147622241	 1.1713736091	-0.264419
C	-0.5630456297	 3.3061863475	 1.4005768969	-0.068697
C	 0.8846373523	 3.6373498665	 1.7660247303	-0.255364
C	 1.8156713034	 2.9767739713	 0.7848844414	-0.072759
C	 1.4064158142	 2.0017542333	-0.0206423989	-0.065787
H	 0.0119799812	-2.2639414734	-0.0114675499	 0.198161
H	-0.5419492671	 1.7945576665	-0.8839740333	 0.103268
H	-0.8612179062	 3.8776791304	 0.5061015362	 0.09197
H	-1.2535136684	 3.5593929117	 2.2092961629	 0.109688
H	 1.0300734917	 4.7250248775	 1.7603664688	 0.105285
H	 1.1058934888	 3.3007840862	 2.7878101169	 0.121052
H	 2.8440014909	 3.3253694626	 0.7392813438	 0.09538
H	 2.0640464531	 1.5420838251	-0.7513412311	 0.106019
82.2764	152.8295	231.9109	294.6868	375.0452	441.833	473.4605	532.1467	608.3133	621.3177	669.1268	672.7197	779.0878	870.1995	902.2294	917.7067	986.3454	999.2634	1044.8395	1064.2087	1094.9503	1106.5749	1207.6536	1234.5073	1285.5422	1303.0379	1347.9695	1365.9009	1387.7042	1422.0498	1469.4802	1497.3848	1725.203	2244.5156	2904.4608	2971.821	3017.8606	3052.1201	3093.0688	3157.1637	3188.5034	3504.4008
C#CC1OCCC=C1	C#C[C@H]1OCCC=C1	
InChI=1S/C7H8O/c1-2-7-5-3-4-6-8-7/h1,3,5,7H,4,6H2	InChI=1S/C7H8O/c1-2-7-5-3-4-6-8-7/h1,3,5,7H,4,6H2/t7-/m1/s1
