19
gdb 83800	2.55453	1.77691	1.48054	3.0867	73.34	-0.2317	0.0725	0.3042	967.7549	0.162043	-423.004454	-422.997312	-422.996368	-423.035648	29.705	
O	 0.1802036972	 1.3789244399	-0.0698462292	-0.427635
C	 0.0362552319	-0.000216531	-0.0091788681	 0.113121
C	-0.4187474284	-0.70249723	 1.2534795198	-0.103966
C	-0.8445461251	 0.136849753	 2.4518370543	-0.243376
C	-2.3699192523	 0.1965256853	 2.6620137316	-0.240315
C	-3.124023465	 0.528593415	 1.394691724	 0.061976
O	-2.5219214946	 1.4840135084	 0.4990552973	-0.281908
C	-2.5956828255	 0.0947161082	 0.0912387299	 0.030829
C	-1.3161535552	-0.679966877	 0.0145583516	-0.121112
H	-0.6755017293	 1.771770669	 0.1563348284	 0.306035
H	 0.8128605981	-0.4881679693	-0.5905804916	 0.101367
H	 0.0547434127	-1.6517836814	 1.4829836227	 0.083613
H	-0.3786083826	-0.2608196322	 3.3573496871	 0.102981
H	-0.4615055024	 1.1559339372	 2.3311476301	 0.119025
H	-2.7489762381	-0.7700821793	 3.0212918623	 0.107344
H	-2.6097704075	 0.9331763506	 3.4376042526	 0.108971
H	-4.2005403794	 0.6616853499	 1.4973416833	 0.094941
H	-3.2957383505	-0.0680652657	-0.7264734558	 0.101592
H	-1.4106068839	-1.5982757107	-0.5572490703	 0.086519
137.3647	214.6891	286.0399	337.3136	357.6158	476.4326	493.8011	548.3279	603.585	655.459	701.7065	747.011	759.595	794.2516	802.5337	888.3235	916.3224	940.9341	966.207	1029.0757	1034.942	1063.3001	1084.9412	1092.7401	1125.2551	1135.9351	1156.8606	1223.1661	1232.232	1254.0324	1285.2333	1337.4639	1353.533	1367.8726	1386.3533	1392.287	1397.8675	1460.5332	1479.8854	1483.0823	1500.3624	3019.7069	3046.0226	3064.0002	3090.9829	3113.5617	3125.7112	3146.6769	3146.9516	3161.7757	3708.9872
OC1C2CCC3OC3C12	O[C@H]1[C@H]2CC[C@H]3O[C@H]3[C@@H]12	
InChI=1S/C7H10O2/c8-6-3-1-2-4-7(9-4)5(3)6/h3-8H,1-2H2	InChI=1S/C7H10O2/c8-6-3-1-2-4-7(9-4)5(3)6/h3-8H,1-2H2/t3-,4+,5+,6-,7+/m0/s1
