25
gdb 96348	2.01943	1.64264	1.17941	1.1653	88.18	-0.2392	0.0785	0.3176	1216.2864	0.229046	-389.517427	-389.507689	-389.506745	-389.550898	38.855	
C	-0.0231335769	 1.5839035128	-0.11035338	-0.417276
C	 0.0638343798	 0.0553730951	-0.0139863793	 0.027694
C	 0.6658580168	-0.5382121985	-1.3010535886	-0.213065
C	 0.7511916301	-2.0649367669	-1.2204990757	-0.210783
C	 1.4788199542	-2.468395147	 0.060000194	-0.071758
O	 0.8690324535	-1.9031007944	 1.2065369425	-0.29032
C	 0.8046545346	-0.4647820503	 1.2536073063	 0.361228
C	 2.2168610829	 0.1261231715	 1.4190687044	-0.430888
C	-0.0137534694	-0.1948988139	 2.5198341914	-0.416555
H	 0.9643801984	 2.0371971629	-0.2463539707	 0.116108
H	-0.6339035812	 1.8714613246	-0.972834326	 0.111646
H	-0.4790823593	 2.0312848819	 0.7773875029	 0.114072
H	-0.9597558349	-0.3364640652	 0.0703248033	 0.071438
H	 0.0573867689	-0.2292332259	-2.1591670287	 0.090699
H	 1.6672600341	-0.1199768494	-1.4725613512	 0.093032
H	-0.2590559899	-2.4924562911	-1.2048221229	 0.09946
H	 1.2688687074	-2.479856923	-2.0932258092	 0.088479
H	 1.4441815376	-3.5516942134	 0.2136916589	 0.100546
H	 2.5412306916	-2.1826186663	-0.0061663948	 0.082481
H	 2.8310739717	 0.0232424931	 0.5208066167	 0.113
H	 2.166701898	 1.1906960425	 1.6629211028	 0.116131
H	 2.7273545619	-0.3878212873	 2.238618473	 0.120338
H	 0.4867798456	-0.6406259896	 3.3841850843	 0.11767
H	-0.1306024549	 0.8757796958	 2.7054626268	 0.110475
H	-1.0053061807	-0.6481704381	 2.4329185098	 0.116148
108.755	176.3762	205.6615	225.6032	245.2236	275.2824	289.2895	332.5914	349.3195	372.1367	445.3715	450.4097	471.1763	521.3744	583.5693	687.8796	824.2472	845.1567	878.7519	914.5379	926.1935	937.6764	948.5454	991.116	1009.2388	1042.8782	1071.7783	1102.0166	1119.4521	1154.9406	1187.0122	1213.6082	1237.77	1241.98	1272.2983	1311.1253	1332.1644	1367.8757	1376.0904	1383.9395	1395.4636	1406.7033	1408.6042	1420.0724	1474.0115	1478.3001	1483.1739	1490.9216	1495.3205	1501.3927	1506.6197	1509.2236	1514.8013	2974.6143	3000.5453	3014.8483	3024.9745	3034.8473	3042.8111	3048.6522	3054.8725	3069.551	3075.0241	3096.1929	3108.9437	3115.4544	3117.524	3119.2681	3126.3807
CC1CCCOC1(C)C	C[C@H]1CCCOC1(C)C	
InChI=1S/C8H16O/c1-7-5-4-6-9-8(7,2)3/h7H,4-6H2,1-3H3	InChI=1S/C8H16O/c1-7-5-4-6-9-8(7,2)3/h7H,4-6H2,1-3H3/t7-/m0/s1
