15
gdb 60878	2.38782	1.39519	1.05742	2.7668	66.62	-0.2784	-0.0629	0.2156	1118.9973	0.111384	-453.929642	-453.921035	-453.920091	-453.963444	30.914	
O	-1.0303247052	 0.0926352448	-0.0732154492	-0.429547
C	 0.2473830507	-0.4574935773	-0.1822041321	-0.049019
C	 1.124948006	 0.435016275	-1.0489237249	 0.139381
O	 0.6850258397	 1.4594307673	-1.5115133905	-0.257164
C	 0.8896310079	-0.6135948583	 1.2170015324	 0.139463
C	 0.7197768355	 0.4933189822	 2.2064955538	-0.261258
N	-0.000081674	-0.7698263779	 2.3748030348	-0.337041
C	 2.0911563926	-1.4178181271	 1.2177031176	 0.268
N	 3.0624028236	-2.0414201354	 1.1497143713	-0.330119
H	-1.0008955386	 0.9226366298	-0.5806106065	 0.306037
H	 0.2024562148	-1.4561456365	-0.6455575409	 0.126037
H	 2.1675728382	 0.1081644163	-1.2153677543	 0.138574
H	 1.5022751424	 0.6833809115	 2.9334006428	 0.147258
H	 0.1674640852	 1.3622587814	 1.8602424595	 0.135025
H	-0.9555045786	-0.6540203858	 2.0376542463	 0.264375
57.1078	111.1547	142.3861	223.5316	263.2925	275.0843	333.5168	389.9855	458.8746	534.2794	553.3818	594.9313	684.9143	778.8495	855.0138	876.1637	912.732	968.5884	994.0428	1031.7517	1093.8245	1133.733	1166.2078	1240.2208	1279.4727	1311.1238	1329.0609	1368.0574	1397.1729	1433.8882	1492.2239	1810.3703	2356.0139	2977.2137	2990.6104	3122.2307	3219.0997	3484.9544	3646.7931
OC(C=O)C1(CN1)C#N	O[C@@H](C=O)[C@]1(CN1)C#N	
InChI=1S/C5H6N2O2/c6-2-5(3-7-5)4(9)1-8/h1,4,7,9H,3H2	InChI=1S/C5H6N2O2/c6-2-5(3-7-5)4(9)1-8/h1,4,7,9H,3H2/t4-,5+/m0/s1
