15
gdb 32516	2.58806	1.34544	0.89027	4.2616	70.35	-0.2303	-0.0471	0.1832	1231.3202	0.112114	-457.784891	-457.77669	-457.775746	-457.818135	29.23	
C	 0.0405081461	 1.3344071032	 0.0066202018	-0.256135
O	 0.0079350915	-0.0847041438	 0.0029315982	-0.255481
C	-1.2215018832	-0.6331600327	 0.010473562	 0.233714
C	-2.4532030115	-0.0492796516	 0.021336891	-0.155905
O	-3.4186175734	-1.0308881498	 0.0256808679	-0.138626
C	-2.7952821472	-2.2158986766	 0.0175874624	-0.038515
C	-1.4351816718	-2.0608256115	 0.0078800029	 0.02155
C	-0.431354361	-3.1241252949	-0.0027167795	 0.067597
O	-0.6926571075	-4.3081298041	-0.0042503752	-0.282211
H	 1.0918536541	 1.6233367173	-0.0004762966	 0.144528
H	-0.45887022	 1.739598998	-0.8829464956	 0.1291
H	-0.4454252727	 1.7346476036	 0.9058237416	 0.1291
H	-2.8117200429	 0.9635820786	 0.0269487615	 0.144668
H	-3.4167141338	-3.0959722445	 0.019660865	 0.172454
H	 0.6188540033	-2.7659911214	-0.0094239071	 0.084162
92.5314	140.6048	152.5282	203.1814	243.1102	248.2897	363.9263	385.1219	568.9188	614.4942	650.3558	679.227	716.1733	796.1576	830.2459	904.3894	1044.156	1060.0137	1073.6724	1181.5969	1185.6858	1206.1851	1234.5791	1255.3174	1339.4218	1391.9575	1455.0147	1475.1193	1487.1553	1505.8833	1567.6261	1644.2747	1785.7493	2918.3512	3007.1088	3067.3604	3146.6876	3285.5491	3304.6317
COC1=COC=C1C=O	COc1cocc1C=O	
InChI=1S/C6H6O3/c1-8-6-4-9-3-5(6)2-7/h2-4H,1H3	InChI=1S/C6H6O3/c1-8-6-4-9-3-5(6)2-7/h2-4H,1H3
