20
gdb 100421	2.66555	0.98953	0.8218	1.9518	79.22	-0.2296	-0.014	0.2155	1468.1598	0.167313	-440.310888	-440.300031	-440.299087	-440.348007	37.281	
C	 0.428960583	 1.6757546883	-0.2472217941	-0.22635
O	-0.0292885166	 0.3247759782	-0.2911721425	-0.235735
C	 0.4636283692	-0.4506801109	-1.2776240081	 0.414637
C	-0.0870842645	-1.8531573126	-1.1841624731	-0.500681
N	 1.290302691	 0.0299073935	-2.1176264403	-0.31834
C	 1.7948253248	-0.8369045497	-3.1765388838	-0.251545
C	 0.8711707943	-0.7000073948	-4.3965896082	 0.389322
C	 0.9790468705	 0.5964025985	-5.1699003078	-0.469455
O	 0.0818320433	-1.5719590404	-4.6819262135	-0.300276
H	 1.5155497126	 1.7149433865	-0.1309520141	 0.133692
H	 0.16230727	 2.2078463145	-1.1646667701	 0.131125
H	-0.0666982712	 2.1260680088	 0.6139065457	 0.126181
H	-0.9230780804	-1.8783824601	-0.4852405101	 0.141645
H	-0.4117085533	-2.2060837882	-2.1650526086	 0.172672
H	 0.6869466122	-2.5387245486	-0.8214403634	 0.145263
H	 2.8051308996	-0.4996754024	-3.4367052845	 0.106787
H	 1.841985604	-1.8987252502	-2.9092629322	 0.110394
H	 1.9396702486	 0.6272163237	-5.6983905427	 0.139493
H	 0.1661696263	 0.6780288825	-5.892318207	 0.137592
H	 0.9683071666	 1.4424050134	-4.4759695617	 0.153578
42.4024	64.0666	87.8412	119.2415	150.1593	175.1102	195.6902	227.7974	289.7694	340.5047	402.7841	470.2293	516.4523	576.2896	586.5985	656.5577	792.5791	803.5248	900.0346	972.5767	1036.5212	1061.5859	1076.5673	1081.5928	1098.9378	1180.0681	1201.9483	1218.027	1255.4594	1319.8038	1335.8919	1377.8321	1404.7583	1463.4231	1470.8635	1474.7575	1476.2348	1485.5897	1489.2262	1498.7946	1507.7498	1721.6851	1809.3404	3021.2423	3037.3114	3044.2827	3048.9614	3070.088	3103.9024	3115.4753	3120.5758	3148.0601	3154.9135	3160.3386
COC(C)=NCC(C)=O	COC(=NCC(=O)C)C	
InChI=1S/C6H11NO2/c1-5(8)4-7-6(2)9-3/h4H2,1-3H3	InChI=1S/C6H11NO2/c1-5(8)4-7-6(2)9-3/h4H2,1-3H3
