21
gdb 92640	3.09099	1.31533	1.00508	1.2507	85.89	-0.2254	0.0253	0.2507	1223.946	0.184595	-387.092285	-387.084137	-387.083192	-387.124707	32.597	
O	-0.1276590947	 1.4470164413	-0.0767509735	-0.429589
C	 0.0211448875	 0.0509663061	-0.0008519244	 0.04538
C	 0.2707592782	-0.639173076	 1.3915650107	-0.300535
C	-0.7713208242	-1.7300275617	 0.9849446929	-0.039723
C	-1.9119442207	-2.1930671079	 1.8876081284	-0.224373
C	-3.0991384798	-2.587054033	 0.9840159137	-0.202607
C	-3.6197094728	-1.4086531394	 0.1301222148	-0.230881
C	-2.5204579091	-0.5096332874	-0.3861027325	-0.216143
C	-1.2580415064	-0.7430388569	-0.056967772	 0.303975
H	 0.7460811321	 1.8415455248	-0.1574660376	 0.283203
H	 0.7586522614	-0.3103481367	-0.7353331721	 0.070765
H	 1.2889152439	-0.9603619426	 1.6266902704	 0.088752
H	-0.1131802626	 0.0024062098	 2.1892217013	 0.109659
H	-0.2628206787	-2.5948203883	 0.5391600274	 0.071374
H	-1.6199115989	-3.0345296349	 2.5256903309	 0.088475
H	-2.2099080522	-1.3708586724	 2.5508843344	 0.094235
H	-2.7734493263	-3.3979618648	 0.3197805802	 0.098051
H	-3.9207253979	-2.9913834287	 1.5848130363	 0.090804
H	-4.2254959341	-1.7950872763	-0.7004888524	 0.102217
H	-4.3110864309	-0.7950119115	 0.7270581543	 0.105764
H	-2.8007825742	 0.3711788365	-0.9580771513	 0.091197
107.6483	154.1526	239.1436	253.9167	273.4298	324.5256	418.2218	433.5586	482.4072	545.0133	615.0233	669.218	776.335	808.5676	816.9979	864.9497	900.2337	924.2841	939.8336	973.4349	1003.7205	1042.4221	1072.4775	1076.8778	1107.9545	1124.9638	1141.432	1176.734	1202.4614	1212.4977	1233.4039	1262.6993	1275.7115	1289.4681	1313.7778	1354.1109	1364.4373	1371.6662	1376.3104	1436.8056	1475.6549	1478.2925	1490.8618	1496.873	1777.4073	2967.5998	2996.3516	3012.1824	3017.6228	3023.4233	3033.3061	3054.7193	3067.9597	3072.5833	3119.2204	3160.8547	3822.1748
OC1CC2CCCC=C12	O[C@H]1C[C@H]2CCC[CH][C]12	
InChI=1S/C8H12O/c9-8-5-6-3-1-2-4-7(6)8/h4,6,8-9H,1-3,5H2	InChI=1S/C8H12O/c9-8-5-6-3-1-2-4-7(6)8/h4,6,8-9H,1-3,5H2/t6-,8+/m1/s1
