13
gdb 42163	3.99036	1.01298	0.85895	3.125	66.77	-0.282	-0.1391	0.1429	1262.8912	0.088051	-452.73578	-452.727298	-452.726354	-452.770168	28.813	
O	 0.1564127016	-0.0282076111	-0.4298134976	-0.24255
C	 0.0696862782	 1.1366993934	-0.1409212194	 0.2041
C	 1.2326246332	 2.0390478307	-0.1858189808	 0.273248
N	 2.1763561171	 2.7049745111	-0.2316700698	-0.288571
C	-1.2426587223	 1.8076958085	 0.301144079	 0.297391
O	-1.2458780093	 2.9976247843	 0.5295066182	-0.296862
C	-2.4264209678	 0.9284726521	 0.4132681733	-0.119437
C	-3.2175912772	 1.0576068179	 1.6909774187	-0.213162
N	-3.7455674554	 1.5793911376	 0.4461497308	-0.295571
H	-2.3695548061	-0.0336351254	-0.0804519788	 0.136456
H	-3.702589546	 0.1648258978	 2.0735424707	 0.145029
H	-2.8416517764	 1.7524683967	 2.4367697042	 0.143395
H	-3.5942744595	 2.5882687864	 0.4151166616	 0.256533
42.7459	76.717	124.9287	216.3325	237.7271	273.7495	295.8344	393.171	487.2975	516.4837	669.1655	774.0771	816.1817	845.3162	865.0018	933.9944	996.198	1013.6992	1121.2993	1129.5985	1176.0721	1216.118	1287.4861	1312.7612	1408.6095	1501.3295	1779.6786	1792.5999	2343.4814	3118.1918	3199.2885	3215.421	3469.4114
O=C(C#N)C(=O)C1CN1	O=C(C#N)C(=O)[C@H]1CN1	
InChI=1S/C5H4N2O2/c6-1-4(8)5(9)3-2-7-3/h3,7H,2H2	InChI=1S/C5H4N2O2/c6-1-4(8)5(9)3-2-7-3/h3,7H,2H2/t3-/m1/s1
