20
gdb 77750	1.97398	1.61923	1.38568	3.9033	80.4	-0.2278	0.0199	0.2477	1106.7136	0.169314	-403.154245	-403.144683	-403.143739	-403.188137	35.209	
C	 0.1593730241	 1.617359614	 0.2077438906	-0.426071
C	 0.0997029555	 0.1057834697	 0.1762025231	-0.051607
C	 1.2801772413	-0.7901048307	-0.2254849813	-0.31166
C	 2.5435553827	-0.228017719	 0.42010347	 0.41075
O	 3.6104617075	 0.1850926303	 0.0500952997	-0.374539
N	 1.9860438858	-0.322984453	 1.6929022607	-0.125955
C	 2.2540246782	 0.5060018339	 2.8470505817	-0.354427
C	 0.7033797901	-0.8365284807	 1.1855922894	 0.341026
C	-0.0096655805	-1.9408271346	 1.9056066533	-0.486444
H	 1.1233813713	 1.9827319065	 0.5692613456	 0.139331
H	 0.0129733285	 2.0247950317	-0.7979277327	 0.128188
H	-0.6264820985	 2.0270602006	 0.8519136925	 0.117841
H	-0.8363061465	-0.2815294241	-0.2281716792	 0.092878
H	 1.2233131733	-1.5261696496	-1.0153664969	 0.110186
H	 3.2614317732	 0.9143194281	 2.7314959866	 0.157186
H	 1.5443762915	 1.3390457156	 2.9406925913	 0.119603
H	 2.2218026859	-0.0818431061	 3.7704216454	 0.127306
H	-0.443915008	-1.5868663849	 2.8480085635	 0.126348
H	-0.8277647968	-2.3328660018	 1.2945531613	 0.1278
H	 0.6771165314	-2.7612806659	 2.1370279753	 0.132258
129.9058	133.8515	145.2934	197.0474	204.6009	213.4109	217.8073	276.2991	301.3915	419.8544	503.2807	554.8879	644.6385	701.948	724.1813	764.9343	837.3952	900.7596	925.4432	936.2865	994.1497	1030.3485	1073.3753	1118.1583	1127.2373	1131.0964	1150.9758	1182.9587	1228.8917	1265.9074	1322.1276	1360.946	1414.0496	1415.0297	1442.4475	1461.8424	1480.6525	1484.3174	1490.6654	1498.3966	1503.1806	1516.929	1876.2655	3008.098	3029.7016	3036.1206	3071.4041	3090.4301	3095.731	3102.9684	3114.5604	3123.8498	3127.6168	3216.4743
CC1C2C(=O)N(C)C12C	C[C@H]1[C@H]2C(=O)N(C)[C@@]12C	
InChI=1S/C7H11NO/c1-4-5-6(9)8(3)7(4,5)2/h4-5H,1-3H3	InChI=1S/C7H11NO/c1-4-5-6(9)8(3)7(4,5)2/h4-5H,1-3H3/t4-,5-,7-/m0/s1
