16
gdb 34420	2.70978	1.58893	1.31056	3.6562	68.53	-0.275	0.0081	0.2831	995.3129	0.125465	-437.880428	-437.87301	-437.872066	-437.912497	27.994	
N	 0.0906328698	-1.2014763896	-0.3630461405	-0.331383
C	 0.0603773575	-0.070393172	-0.130646005	 0.254883
C	 0.0468248837	 1.3652572753	 0.1175801887	 0.214901
C	-0.3777039933	 2.2873286356	-1.0578857277	-0.121529
O	 0.822183571	 3.0743071276	-0.9237960404	-0.288872
C	 1.3808194972	 2.1792221316	 0.0599996821	 0.0633
C	 1.4968489159	 2.7957062608	 1.4447235913	-0.247184
C	 0.0358695995	 2.8148392138	 1.9145638079	-0.09976
O	-0.5601128489	 1.6319946355	 1.3600570569	-0.29801
H	-0.4385817077	 1.7875709431	-2.0307436643	 0.12591
H	-1.2897853162	 2.8628203227	-0.8691272033	 0.125187
H	 2.2785175773	 1.6729532348	-0.3031979317	 0.103341
H	 2.1058318472	 2.148420313	 2.0837360597	 0.124645
H	 1.9494606071	 3.7891249147	 1.4094229704	 0.129493
H	-0.0880287985	 2.7599086154	 2.9974910119	 0.127751
H	-0.4809397015	 3.7093072376	 1.5436149041	 0.117328
102.7124	156.2309	186.2297	216.7071	360.8202	389.0013	516.4072	538.1563	569.477	643.6333	666.8649	839.2953	888.7409	890.6612	909.6349	967.3722	1002.3758	1021.3811	1034.9112	1055.476	1099.5556	1138.7455	1147.8909	1174.9216	1218.957	1260.5432	1277.5152	1315.3455	1336.9385	1355.1327	1387.4347	1466.1537	1506.7156	1519.4461	2365.3744	3025.6821	3034.5944	3061.1864	3088.1724	3093.294	3116.9875	3126.2933
N#CC12COC1CCO2	N#C[C@]12CO[C@H]1CCO2	
InChI=1S/C6H7NO2/c7-3-6-4-8-5(6)1-2-9-6/h5H,1-2,4H2	InChI=1S/C6H7NO2/c7-3-6-4-8-5(6)1-2-9-6/h5H,1-2,4H2/t5-,6-/m0/s1
