18
gdb 15060	2.91709	1.47417	1.04372	1.5497	73.73	-0.2566	0.0457	0.3023	1131.1715	0.152295	-347.750846	-347.742051	-347.741106	-347.784343	32.464	
O	 0.0229874897	 1.3755217108	 0.081798138	-0.422002
C	-0.0617893129	-0.0310592733	 0.1282147148	-0.057566
C	-1.5081422275	-0.5500023753	-0.06274239	-0.207305
C	-2.0354703912	-0.0556399502	-1.33579048	 0.310897
C	-2.4087513422	 0.3754230369	-2.3955369449	-0.462291
C	-1.5708398688	-2.0676888439	 0.0306859479	 0.033495
C	-1.6388500327	-2.7328065491	 1.382951724	-0.278443
C	-2.836575036	-2.7562758147	 0.4653955965	-0.267302
H	-0.3504536023	 1.6526482091	-0.7638366483	 0.285041
H	 0.5873785319	-0.5058484576	-0.6247701183	 0.090271
H	 0.2943358329	-0.334784684	 1.1168643798	 0.113377
H	-2.1129225244	-0.1222472673	 0.7487810344	 0.107425
H	-2.7706979187	 0.7401706577	-3.3250917084	 0.199327
H	-0.9857723586	-2.5765838976	-0.7303350483	 0.092492
H	-1.0819944357	-3.6506822332	 1.5338987399	 0.114966
H	-1.687497793	-2.0951078061	 2.2599399564	 0.115229
H	-3.6865001984	-2.1340873398	 0.7256549826	 0.117062
H	-3.1027733223	-3.6909687824	-0.0149221762	 0.115326
74.9506	111.8587	140.5585	165.5253	210.5139	321.1162	370.5468	407.2373	439.7514	504.1338	574.1759	629.7866	651.9185	770.1936	824.0978	832.9957	884.5319	931.9894	964.277	1056.1485	1059.5315	1068.2211	1083.3487	1086.8971	1138.0821	1170.7028	1198.0054	1208.0739	1224.5907	1271.2587	1329.1744	1385.4197	1411.4733	1427.5005	1471.4341	1504.8217	1507.0787	2225.2505	2977.3683	3016.8756	3089.0933	3130.8884	3135.9413	3146.5006	3209.5591	3224.6537	3502.1709	3779.3763
OCC(C#C)C1CC1	OC[C@@H](C#C)C1CC1	
InChI=1S/C7H10O/c1-2-6(5-8)7-3-4-7/h1,6-8H,3-5H2	InChI=1S/C7H10O/c1-2-6(5-8)7-3-4-7/h1,6-8H,3-5H2/t6-/m1/s1
