16
gdb 24452	3.50476	1.67001	1.17306	4.4494	70.57	-0.183	0.0353	0.2182	995.1882	0.129171	-434.091369	-434.084644	-434.083699	-434.122353	26.897	
C	-0.0296392951	 1.4099257704	 0.0992080523	-0.192706
C	 1.4178511731	 1.9411513155	 0.0292686202	-0.083282
O	 2.2325385112	 1.4454197049	 1.09195266	-0.265321
C	 2.0041930359	 0.1209205574	 1.2947421574	 0.334563
C	 0.9632509826	-0.5819350013	 0.7479170664	 0.20822
N	 1.088506895	-1.8548008812	 1.2753525657	-0.336319
C	 2.1961938884	-1.8392800767	 2.0755708817	-0.008878
N	 2.7682308698	-0.6519746917	 2.1142197497	-0.329697
N	-0.1049650311	-0.0585223264	-0.0033360097	-0.404937
H	-0.4721228968	 1.7091931239	 1.0557036852	 0.131276
H	-0.6225725568	 1.8570568904	-0.7032792413	 0.110068
H	 1.8636805677	 1.655677894	-0.9355866938	 0.098287
H	 1.4363343874	 3.0308555945	 0.112997991	 0.116834
H	 0.4704606304	-2.6306118568	 1.1085285348	 0.264454
H	 2.5493641163	-2.7226371461	 2.5845602417	 0.128605
H	-0.0673828982	-0.3457711605	-0.9781513411	 0.228832
128.1793	231.5466	342.7839	358.5524	416.6585	456.9209	477.5148	537.157	646.6653	705.9169	718.4653	730.3168	763.579	823.2177	873.4946	943.9749	954.2378	1038.6811	1077.2379	1111.7937	1124.1815	1181.6221	1265.8717	1272.4531	1287.8629	1334.8818	1369.4616	1389.917	1398.3445	1451.3217	1470.4118	1484.4253	1496.7467	1530.8915	1663.0108	2993.5653	3048.8519	3098.9996	3105.2989	3259.0754	3466.2435	3669.1021
C1COC2=C(NC=N2)N1	C1COc2c([nH]cn2)N1	
InChI=1S/C5H7N3O/c1-2-9-5-4(6-1)7-3-8-5/h3,6H,1-2H2,(H,7,8)	InChI=1S/C5H7N3O/c1-2-9-5-4(6-1)7-3-8-5/h3,6H,1-2H2,(H,7,8)
