15
gdb 97517	5.1501	0.58896	0.53197	3.8749	80.3	-0.2603	-0.0544	0.2059	1960.7328	0.107876	-420.561675	-420.551355	-420.550411	-420.599011	34.53	
O	-0.1151611089	 1.5215419181	 0.0116780412	-0.405971
C	-0.0267965295	 0.1059876312	 0.0028457044	-0.222385
C	-1.3626342954	-0.4711901057	 0.0128332869	 0.190736
C	-2.4534161461	-0.9871186861	 0.020618029	-0.027778
C	-3.7724555736	-1.5852444238	 0.029670943	 0.219069
O	-3.9429148638	-2.7809910227	 0.0246480455	-0.26514
C	-4.9158025258	-0.5582678921	 0.0459547541	-0.460495
C	-6.2444695846	-1.1435384414	 0.0556389028	 0.316923
C	-7.3473749073	-1.6173147705	 0.0637544297	-0.437502
H	 0.7831355972	 1.8678397051	 0.0058999657	 0.296602
H	 0.5044771532	-0.2652398993	-0.888894916	 0.134042
H	 0.5219711697	-0.2751746792	 0.8796616891	 0.13404
H	-4.7618836838	 0.0900070055	 0.9194737181	 0.163938
H	-4.7785565683	 0.0989471894	-0.8236658188	 0.163956
H	-8.320175013	-2.0427680284	 0.0708764153	 0.199966
35.4847	46.3998	56.2075	137.6625	141.0296	211.4857	230.2946	320.7932	336.779	370.8603	412.2237	566.0015	571.4264	591.8167	626.5749	650.778	799.6004	917.4426	940.7588	1003.4449	1012.472	1069.3577	1161.2476	1210.4688	1244.7435	1256.1115	1332.8803	1433.6362	1455.6445	1490.4631	1781.0761	2250.7002	2334.952	2967.741	2987.9809	3019.8961	3047.2731	3507.1721	3821.2823
OCC#CC(=O)CC#C	OCC#CC(=O)CC#C	
InChI=1S/C7H6O2/c1-2-4-7(9)5-3-6-8/h1,8H,4,6H2	InChI=1S/C7H6O2/c1-2-4-7(9)5-3-6-8/h1,8H,4,6H2
