20
gdb 88854	3.74094	1.1002	0.92944	2.1882	82.37	-0.2202	0.0129	0.2331	1300.4893	0.170885	-403.111556	-403.102879	-403.101935	-403.145584	32.267	
C	 2.9934581925	-0.6407371692	 0.3541506405	-0.312774
N	 1.6024589887	-1.0719719443	 0.3759943867	-0.081394
C	 1.2188772704	-2.1201186576	 1.3085513868	-0.261455
C	 0.7435884531	-0.7169602902	 1.5019206117	 0.010364
C	 1.2254756818	 0.0974381337	 2.6875115279	 0.067603
O	 1.272875757	 1.4878757839	 2.3378266249	-0.281076
C	 0.4679512594	 2.2568444431	 3.2278020607	-0.11628
C	-0.1477361826	 1.2551777286	 4.1634788237	-0.098556
C	 0.2887617627	 0.0373514885	 3.8670490611	-0.095566
H	 3.5371301103	-0.7942045457	 1.2993859762	 0.098782
H	 3.5181848804	-1.2022500193	-0.4253969729	 0.118583
H	 3.0347351458	 0.4232847415	 0.1050149877	 0.138103
H	 0.5493897252	-2.8884776515	 0.9304037704	 0.113754
H	 1.9770989904	-2.4833888613	 2.0040563895	 0.100756
H	-0.2730427061	-0.4626602156	 1.2041095777	 0.08885
H	 2.236851447	-0.2314586653	 2.9729762128	 0.079735
H	 1.0917522326	 2.9939620796	 3.7589262824	 0.104817
H	-0.28430404	 2.8234341037	 2.6574933269	 0.108351
H	-0.8320950047	 1.5275429657	 4.9569429181	 0.108118
H	 0.0335821961	-0.8898274281	 4.3634416672	 0.109287
57.4651	80.0866	130.7389	203.1442	243.8604	280.7343	361.887	413.4486	466.5798	533.2718	710.0416	753.5206	768.0638	815.8862	874.4028	900.8313	938.3116	950.2911	959.3954	1016.8774	1036.1835	1046.6238	1083.8755	1101.801	1115.0401	1126.4167	1128.6824	1160.2011	1180.0545	1197.7534	1205.5571	1287.2279	1314.2485	1336.8272	1352.5456	1381.7395	1425.899	1449.4838	1486.458	1504.8487	1514.1445	1521.5475	1690.6387	2969.2806	2973.208	2988.3284	2992.5491	3069.1955	3076.9168	3110.9755	3113.5732	3167.4307	3208.3722	3233.4921
CN1CC1C1OCC=C1	CN1C[C@H]1[C@H]1OCC=C1	
InChI=1S/C7H11NO/c1-8-5-6(8)7-3-2-4-9-7/h2-3,6-7H,4-5H2,1H3	InChI=1S/C7H11NO/c1-8-5-6(8)7-3-2-4-9-7/h2-3,6-7H,4-5H2,1H3/t6-,7-,8?/m0/s1
