20
gdb 91549	2.86067	1.40644	1.1351	0.4888	79.86	-0.2133	0.0775	0.2907	1142.0451	0.170813	-403.076265	-403.067748	-403.066804	-403.109923	32.959	
O	 0.201833119	 1.3720653132	-0.067711674	-0.437257
C	 0.0993193875	-0.0305355184	 0.0658971359	 0.058578
C	 0.2237866664	-0.6773555325	 1.4910956445	-0.270267
C	-1.1962568598	-1.2213289821	 1.3204656688	-0.119027
C	-2.1467225529	-0.0609409033	 1.1212224533	-0.337186
C	-1.3277008718	-0.5511443221	-0.0472562869	 0.393842
N	-1.7907841997	-1.0562419925	-1.3025772507	-0.167061
C	-3.2163922779	-1.0359257971	-1.6172590841	-0.235085
C	-2.2969412295	-0.0572921996	-2.2531263925	-0.225687
H	 1.1325362072	 1.6129650463	-0.023688517	 0.282986
H	 0.7428664416	-0.5485879971	-0.6563131665	 0.077898
H	 1.0018750305	-1.4425233796	 1.5419290484	 0.099164
H	 0.3592167391	 0.0338668731	 2.3126828188	 0.093559
H	-1.5475393646	-2.1973190162	 1.6314804863	 0.089654
H	-3.1953875761	-0.3374079381	 1.1030744558	 0.109044
H	-1.9454392157	 0.903370612	 1.5811779959	 0.114631
H	-3.575359261	-1.8977385202	-2.1724451246	 0.116308
H	-3.912223346	-0.6501330932	-0.8770022575	 0.1141
H	-2.3539974915	 0.9736343073	-1.9128903204	 0.128161
H	-1.9735797647	-0.1881205398	-3.2815735434	 0.113646
34.6812	122.259	190.3583	239.0535	271.4339	324.5846	355.8374	428.7432	479.3385	531.0959	642.9977	678.2483	800.6628	826.1274	842.1185	875.8895	885.3619	927.3342	951.732	970.8046	1018.7727	1031.8471	1043.1343	1071.2113	1083.2421	1107.3767	1120.0398	1124.9975	1156.6229	1172.3542	1188.0255	1196.0822	1227.288	1246.3301	1248.587	1310.6252	1325.7773	1393.1455	1436.4498	1474.9391	1490.2764	1504.3911	1515.4858	3023.4572	3043.8967	3106.0828	3108.3252	3111.3169	3115.1899	3187.4718	3188.7697	3202.4225	3208.1168	3817.6344
OC1CC2CC12N1CC1	O[C@H]1C[C@H]2C[C@@]12N1CC1	
InChI=1S/C7H11NO/c9-6-3-5-4-7(5,6)8-1-2-8/h5-6,9H,1-4H2	InChI=1S/C7H11NO/c9-6-3-5-4-7(5,6)8-1-2-8/h5-6,9H,1-4H2/t5-,6-,7-/m0/s1
