19
gdb 84867	2.41873	1.52393	1.1279	2.8139	78.36	-0.2488	0.0053	0.2541	1128.3567	0.160401	-423.024055	-423.015612	-423.014668	-423.057242	32.878	
O	-0.209228091	 1.57515121	 0.1862596335	-0.437586
C	-0.0337117012	 0.1848172433	-0.0476631445	 0.056949
C	 0.9462077691	-0.3861745947	 0.9558306388	-0.096314
C	 1.2384188823	-1.6601051196	 1.2133412146	-0.066988
C	 0.7063780218	-2.9125286914	 0.5757769567	-0.311488
C	-0.6077545799	-2.9139281197	-0.1507308037	-0.038824
C	-1.4858070581	-1.9378879729	-0.3860780193	-0.103858
C	-1.42045053	-0.4812270197	-0.012715292	 0.049091
O	-2.0250211505	-0.2155738293	 1.2648186663	-0.445632
H	-0.8397853675	 1.6277287631	 0.91823939	 0.282121
H	 0.3761217596	 0.0982920561	-1.0619749448	 0.099378
H	 1.4820364372	 0.3868362167	 1.5015882845	 0.098013
H	 2.0102122193	-1.8498936033	 1.9575325816	 0.093146
H	 1.4785869503	-3.3043551132	-0.108684292	 0.132376
H	 0.6437284816	-3.6921776722	 1.3506803037	 0.123585
H	-0.8778542955	-3.9056279421	-0.5128143898	 0.09456
H	-2.3999951662	-2.2178253395	-0.9046434103	 0.093715
H	-2.0424458405	 0.0832076254	-0.7151842344	 0.097662
H	-1.5605123707	-0.767921147	 1.9056312612	 0.280093
57.052	107.5924	229.7662	264.5654	340.5359	357.3834	396.1103	406.7403	439.7445	495.642	531.1304	610.2783	678.9427	738.5172	814.5158	824.7052	840.1049	869.2177	947.6941	964.9339	1011.3162	1025.1847	1032.7236	1070.6922	1087.842	1109.7107	1213.388	1233.6204	1258.2308	1271.5034	1279.148	1338.6904	1357.4376	1401.7933	1416.8139	1425.0399	1433.3563	1448.8668	1449.9719	1729.7707	1738.7306	2968.0783	2997.3146	3029.7783	3059.6491	3123.3713	3132.7116	3154.4781	3162.8277	3745.4511	3785.0519
OC1C=CCC=CC1O	O[C@H]1C=CCC=C[C@H]1O	
InChI=1S/C7H10O2/c8-6-4-2-1-3-5-7(6)9/h2-9H,1H2	InChI=1S/C7H10O2/c8-6-4-2-1-3-5-7(6)9/h2-9H,1H2/t6-,7+
