17
gdb 55235	2.91523	1.22384	1.06687	4.1185	67.93	-0.2346	-0.021	0.2136	1154.8568	0.136505	-455.196675	-455.18795	-455.187006	-455.230949	31.95	
N	 0.2253290866	 0.9614732094	-0.5555370836	-0.516447
C	-0.0146415113	-0.2779608966	-0.0441054261	 0.385584
O	 0.8758159469	-1.0575592324	 0.2396796533	-0.362433
C	-1.5040109476	-0.6279723436	 0.1761264317	-0.113635
C	-2.3156068568	-0.6737679394	-1.1316117016	-0.33814
C	-2.2785672447	-2.1532875635	-1.5353454186	 0.415941
O	-2.6447646055	-2.6084011959	-2.5852116192	-0.305517
C	-1.6832274069	-2.9275401248	-0.3640088494	-0.27429
N	-1.6728466819	-1.9679355802	 0.7437005123	-0.299491
H	 1.1810055291	 1.2671347645	-0.6436334012	 0.266589
H	-0.5075372294	 1.6358375124	-0.6914811477	 0.26328
H	-1.9100425121	 0.121480412	 0.8680467284	 0.098111
H	-3.3611979019	-0.3985862447	-0.9564503591	 0.143197
H	-1.9324997727	-0.0441444516	-1.9368823029	 0.13288
H	-2.2851343101	-3.8135557373	-0.1390160431	 0.13057
H	-0.6798896618	-3.2655695203	-0.6691049861	 0.138037
H	-0.8943652599	-2.1592251279	 1.3658889429	 0.235764
49.9858	63.6202	137.4273	215.698	243.1089	307.3406	409.0026	455.3003	471.7676	530.6516	574.2913	611.4544	671.7844	724.3124	737.2029	817.7229	850.4819	889.6527	977.4252	1012.5013	1062.8882	1084.0054	1134.995	1160.3378	1185.2703	1214.6798	1229.5605	1286.2212	1297.4678	1348.8948	1378.1147	1447.8949	1469.2127	1477.8007	1618.0594	1788.9423	1860.1195	2985.5585	3016.5618	3059.8119	3074.2204	3121.4298	3535.0226	3598.682	3732.1021
NC(=O)C1CC(=O)CN1	NC(=O)[C@H]1CC(=O)CN1	
InChI=1S/C5H8N2O2/c6-5(9)4-1-3(8)2-7-4/h4,7H,1-2H2,(H2,6,9)	InChI=1S/C5H8N2O2/c6-5(9)4-1-3(8)2-7-4/h4,7H,1-2H2,(H2,6,9)/t4-/m1/s1
