19
gdb 93513	2.93518	1.30234	1.06411	4.2958	71.56	-0.2563	0.0147	0.271	1169.9072	0.159385	-460.209073	-460.200191	-460.199247	-460.242653	33.21	
C	-0.144606611	 1.5258834983	 0.0045822644	-0.412614
C	 0.0536891383	 0.0075907511	 0.02723731	-0.011463
C	 0.8270090872	-0.4551154257	-1.2053992527	-0.058821
O	 1.1225643544	-1.8638592956	-1.2337541244	-0.233698
C	 1.3763240393	-2.5739620546	-0.1123077636	 0.418811
O	 1.8763468594	-3.6622957239	-0.2022288515	-0.326627
C	 0.9083196235	-2.0005546167	 1.2209031103	-0.375801
C	 0.8038704067	-0.4771675268	 1.2718056775	 0.102053
O	 2.0896626508	 0.1350170133	 1.247837399	-0.435141
H	 0.817299169	 2.0415477784	 0.0599331038	 0.142819
H	-0.6580330218	 1.8442541128	-0.9082366054	 0.116636
H	-0.7495371548	 1.8481721687	 0.8577994358	 0.117919
H	-0.9276089424	-0.484162831	 0.0291142519	 0.083306
H	 0.2571375604	-0.2664328908	-2.1186005135	 0.117935
H	 1.7760806185	 0.086528361	-1.2707845825	 0.132477
H	-0.0783712341	-2.4409545697	 1.4150653541	 0.137711
H	 1.5751467747	-2.3916365885	 1.9950916811	 0.124373
H	 0.2562324099	-0.1750359925	 2.1779705965	 0.069682
H	 2.602828272	-0.2016123077	 1.9887243093	 0.290444
73.6026	117.1911	193.0053	208.0049	256.5829	278.7724	302.1398	367.4132	405.6537	461.443	554.3869	581.5045	615.3035	734.5085	763.3463	876.5026	891.7695	934.0035	969.0307	1015.3128	1033.6846	1074.1787	1110.4774	1132.2695	1151.9303	1204.7211	1217.3606	1246.5508	1295.4409	1312.155	1341.84	1371.3611	1398.1	1408.4648	1413.6612	1445.7641	1458.4314	1495.0179	1504.0919	1508.8913	1841.7736	2976.5174	3026.3861	3039.4939	3041.3926	3055.6881	3091.6825	3104.3652	3106.669	3127.7364	3826.141
CC1COC(=O)CC1O	C[C@H]1COC(=O)C[C@H]1O	
InChI=1S/C6H10O3/c1-4-3-9-6(8)2-5(4)7/h4-5,7H,2-3H2,1H3	InChI=1S/C6H10O3/c1-4-3-9-6(8)2-5(4)7/h4-5,7H,2-3H2,1H3/t4-,5+/m0/s1
