15
gdb 49537	3.83161	1.16903	1.01574	3.6198	71.43	-0.2667	-0.053	0.2136	1131.5538	0.112675	-416.732091	-416.724571	-416.723627	-416.76448	27.791	
O	-0.2391964643	-0.0312618391	 0.1900928748	-0.23141
C	-0.0874737568	 1.123707251	-0.1153998544	 0.125896
C	 1.1949150265	 1.9062553409	-0.0143290363	-0.057654
C	 1.5920268781	 2.6347167827	 1.3096956437	-0.087975
C	 1.9288426724	 1.2241557961	 1.833725941	-0.185402
N	 2.491500622	 1.1733686684	 0.3898574229	-0.140327
C	 3.0293392562	 2.5904761971	 0.7314481569	-0.105803
C	 3.4056916213	 3.4424096507	-0.3876117405	 0.289718
N	 3.7151556474	 4.1420003637	-1.2542121238	-0.322443
H	-0.929448299	 1.7277403129	-0.5244457278	 0.092765
H	 1.3083921319	 2.5017284313	-0.9272225409	 0.123212
H	 1.0932911598	 3.4730696236	 1.8041646311	 0.098635
H	 2.7043741738	 1.1432372512	 2.5984848522	 0.116642
H	 1.1220089978	 0.5155489336	 1.9966297836	 0.15329
H	 3.8439802429	 2.5519269957	 1.4583990774	 0.130856
91.0269	140.1564	180.9807	214.4922	289.5591	396.1435	512.655	531.7283	556.7918	693.728	759.9204	792.7941	844.0186	857.7727	912.187	929.0986	1010.1517	1027.5512	1063.2265	1069.389	1127.539	1140.6018	1144.5175	1163.8794	1219.9416	1228.867	1254.6712	1379.824	1405.5515	1425.211	1543.0399	1826.558	2355.4656	2874.9264	3056.5352	3068.8998	3084.5001	3092.5362	3192.3241
O=CC1C2CN1C2C#N	O=C[C@H]1[C@H]2CN1[C@H]2C#N	
InChI=1S/C6H6N2O/c7-1-5-4-2-8(5)6(4)3-9/h3-6H,2H2	InChI=1S/C6H6N2O/c7-1-5-4-2-8(5)6(4)3-9/h3-6H,2H2/t4-,5-,6-/m0/s1
