17
gdb 107395	3.22974	1.27619	1.028	3.0629	69.23	-0.225	0.0454	0.2704	1155.6964	0.136978	-455.1439	-455.135732	-455.134788	-455.176691	31.549	
N	 0.0166534686	 1.2958609713	-0.1502735485	-0.580455
C	-0.0682337319	-0.0600800983	-0.0096861238	 0.457461
N	-1.1305816717	-0.7597824714	 0.1390863864	-0.408126
C	-0.7009986293	-2.1439574926	 0.1108213578	 0.311595
C	-1.4984924036	-3.0589993793	 1.002599169	-0.138474
O	-2.8585678608	-3.0949107355	 0.6105794873	-0.417767
C	-0.0617590849	-2.6053899658	-1.1855277252	-0.354308
C	 0.8014538633	-2.0927793706	-0.0638522254	 0.002142
O	 1.1296621	-0.7079465651	-0.1012706145	-0.24761
H	 0.8924648972	 1.705797935	 0.136582908	 0.26608
H	-0.8059467993	 1.7929265086	 0.153937696	 0.270518
H	-1.1201801933	-4.0847553601	 0.9397586373	 0.099132
H	-1.3951151651	-2.7241068393	 2.0475874391	 0.085667
H	-3.1252104475	-2.1733539114	 0.5051511429	 0.295168
H	-0.0217120799	-3.6759992339	-1.3586546368	 0.121153
H	-0.1831965908	-1.9943417386	-2.0738763382	 0.124725
H	 1.5549266689	-2.687136563	 0.4367361986	 0.113098
70.6081	153.9333	180.5159	278.5491	345.0174	381.8663	413.9812	430.6681	448.7324	482.9536	553.6703	659.1349	739.6911	741.9888	783.4372	872.8339	876.0968	943.3731	959.9083	980.6717	997.5511	1046.3298	1069.8255	1090.0307	1128.0369	1148.246	1187.611	1267.6525	1296.0396	1370.3317	1379.5593	1424.1337	1443.8219	1468.4333	1503.1705	1614.9407	1733.6758	2971.4118	3070.4849	3127.1322	3195.3399	3220.8339	3586.8344	3701.0432	3786.2797
NC1=NC2(CO)CC2O1	NC1=N[C@@]2(CO)C[C@H]2O1	
InChI=1S/C5H8N2O2/c6-4-7-5(2-8)1-3(5)9-4/h3,8H,1-2H2,(H2,6,7)	InChI=1S/C5H8N2O2/c6-4-7-5(2-8)1-3(5)9-4/h3,8H,1-2H2,(H2,6,7)/t3-,5-/m1/s1
