18
gdb 26576	2.27442	1.8097	1.0205	3.8103	83.39	-0.2051	-0.0301	0.175	1147.4458	0.148297	-402.03796	-402.029143	-402.028199	-402.072586	32.34	
C	 0.0250394744	 1.5227515846	-0.0282042874	-0.491888
C	 0.0134870156	 0.0136455442	-0.0158003022	 0.236816
C	-1.1747510546	-0.6767879574	 0.0062391101	 0.05924
C	-2.5175787081	 0.0022781429	 0.0192091943	-0.500493
C	-1.1903895847	-2.1355905664	 0.0184921253	 0.382831
O	-2.18198717	-2.8537378552	 0.0379047618	-0.405827
N	 0.0852227919	-2.7223654301	 0.0059284028	-0.368238
C	 1.2625103588	-2.0429017456	-0.0157917891	 0.028122
C	 1.260260484	-0.685648458	-0.027037388	-0.235343
H	 1.0444006053	 1.9148999962	-0.0503426185	 0.12259
H	-0.5095512595	 1.9165960296	-0.8999939553	 0.139209
H	-0.4764921439	 1.9305524865	 0.8568054092	 0.139295
H	-2.6614339077	 0.6338659351	-0.8658790358	 0.122702
H	-3.3037416099	-0.7531656464	 0.0385476734	 0.157667
H	-2.6351845433	 0.652089481	 0.8948928203	 0.122582
H	 0.0717886331	-3.7325875353	 0.014437462	 0.259215
H	 2.1646788593	-2.6422652391	-0.0231822656	 0.13242
H	 2.1958375292	-0.1423164067	-0.0443866774	 0.099098
21.7887	106.8539	128.1699	195.3448	265.7703	298.2113	340.7806	486.8816	489.7082	523.8973	542.5677	590.3302	681.3135	708.9916	771.5203	786.5422	831.6282	916.3409	925.2108	1006.8707	1031.4587	1068.1666	1101.8974	1123.3395	1173.7637	1215.6015	1236.3944	1315.855	1396.4323	1411.9419	1434.7752	1479.5121	1481.1286	1489.5739	1500.7075	1501.9711	1582.7338	1668.3183	1754.7855	3022.0036	3032.0923	3066.4914	3084.4246	3120.7209	3146.4551	3202.8116	3222.0895	3610.5026
CC1=C(C)C(=O)NC=C1	Cc1c(C)c(=O)[nH]cc1	
InChI=1S/C7H9NO/c1-5-3-4-8-7(9)6(5)2/h3-4H,1-2H3,(H,8,9)	InChI=1S/C7H9NO/c1-5-3-4-8-7(9)6(5)2/h3-4H,1-2H3,(H,8,9)
