17
gdb 46932	2.94353	1.8627	1.43241	3.1073	73.09	-0.242	0.0127	0.2548	925.5029	0.139337	-417.977998	-417.971314	-417.97037	-418.00904	26.935	
N	-0.0780495616	 1.2703452468	 0.1894332534	-0.527552
C	 0.0132686049	 0.0229680913	-0.0100575444	 0.394054
O	 1.2145158689	-0.5874841593	-0.2217459805	-0.256032
C	 1.2137740601	-1.9015145142	-0.7985309065	-0.093154
C	 0.1041357083	-2.7609007824	-0.2454087639	 0.007303
C	-0.1402520421	-2.7003710824	 1.288088651	-0.277984
C	-1.428634907	-1.9662364726	 0.9448157934	-0.030371
C	-1.2158737491	-0.8202827978	 0.0199378925	-0.084382
N	-1.2691757912	-2.1899458728	-0.5432943917	-0.168324
H	 0.8477190773	 1.7012090785	 0.1413938882	 0.220315
H	 1.118340911	-1.8188350063	-1.8896836544	 0.122997
H	 2.1959287033	-2.3229230179	-0.5665885229	 0.123852
H	 0.1741945209	-3.7718362784	-0.6513320993	 0.096328
H	-0.3238975936	-3.6884789457	 1.7126371221	 0.119171
H	 0.5908116237	-2.1728440521	 1.9058900729	 0.122207
H	-2.3860032228	-2.1009370877	 1.43769148	 0.105747
H	-2.104457841	-0.243334977	-0.2086674599	 0.125825
105.8658	208.6687	323.3435	333.8739	412.0659	488.127	545.3462	669.2078	702.1814	761.5867	800.1034	807.9257	824.4991	854.7699	904.0031	910.6206	988.5427	1001.2921	1010.3267	1068.2972	1083.1385	1099.4342	1116.7247	1135.5916	1170.4624	1208.2517	1242.0728	1269.683	1295.1016	1318.0347	1338.7337	1370.7144	1400.8873	1435.3196	1492.6956	1498.6299	1744.0722	3020.5643	3068.0531	3090.017	3095.7533	3126.7338	3165.6536	3190.1883	3464.6592
N=C1OCC2CC3C1N23	[NH][C]1OC[C@H]2C[C@H]3[C@@H]1N23	
InChI=1S/C6H8N2O/c7-6-5-4-1-3(2-9-6)8(4)5/h3-5,7H,1-2H2	InChI=1S/C6H8N2O/c7-6-5-4-1-3(2-9-6)8(4)5/h3-5,7H,1-2H2/t3-,4+,5+,8?/m1/s1
