22
gdb 113431	3.44448	0.9113	0.83081	2.5191	82.78	-0.2411	0.0755	0.3166	1480.8594	0.194034	-404.311825	-404.302322	-404.301377	-404.34669	35.952	
C	-0.6724345833	 1.1990585962	-0.0863811014	-0.391746
C	-0.0432968484	-0.1842024091	 0.0372587539	 0.036042
C	 1.2040711476	-0.4127905983	-0.8766005145	-0.308248
C	 2.0891090353	-0.2811925407	 0.3688932083	 0.372574
C	 0.8690412364	-0.369797453	 1.2934301301	-0.329227
N	 3.3848150544	-0.9335942103	 0.5513253378	-0.402491
C	 3.2981082758	 0.547400348	 0.5875559561	-0.119918
C	 4.0599976831	 1.221312994	-0.5284407244	-0.058489
O	 5.4581001414	 1.0464575231	-0.3706579343	-0.422775
H	 0.0835868452	 1.9867277415	 0.012536491	 0.11559
H	-1.1585908298	 1.3264884573	-1.0597227693	 0.115861
H	-1.4271663218	 1.3627237793	 0.6906103447	 0.114165
H	-0.814097368	-0.9524702479	-0.0647129338	 0.0711
H	 1.2508330169	-1.4170201736	-1.3067308775	 0.107203
H	 1.3545037071	 0.3174549203	-1.6767143249	 0.101539
H	 0.7832285009	 0.389777629	 2.0766815452	 0.10005
H	 0.7630491848	-1.3589039555	 1.7513963351	 0.100968
H	 3.4567452227	-1.3077837219	 1.4948638103	 0.22925
H	 3.3972390066	 1.0221431739	 1.5631262229	 0.086595
H	 3.7167687591	 0.827571002	-1.496922505	 0.088946
H	 3.8783482713	 2.3015403674	-0.5226156071	 0.103937
H	 5.5900313626	 0.0937639782	-0.2911611332	 0.289073
44.6886	77.9191	144.911	178.6312	246.046	286.9359	317.9928	352.9469	400.9236	436.7256	456.917	505.5272	593.8067	781.5011	823.7652	828.8155	837.6337	892.0038	903.0425	935.7902	967.6251	1005.2832	1019.3324	1026.7488	1061.5213	1079.2024	1097.9892	1138.8344	1148.9538	1179.1174	1213.8555	1225.3443	1253.0076	1261.1629	1275.5603	1298.1814	1341.8373	1361.6278	1379.8184	1410.7084	1427.7138	1468.7419	1476.9023	1493.1436	1497.3356	1498.0295	1500.0758	2992.8291	3023.6695	3038.3998	3052.9626	3063.5608	3070.3106	3088.7586	3093.7842	3095.7004	3106.4421	3116.4575	3489.514	3784.6191
CC1CC2(C1)NC2CO	C[C@H]1C[C@@]2(C1)N[C@H]2CO	
InChI=1S/C7H13NO/c1-5-2-7(3-5)6(4-9)8-7/h5-6,8-9H,2-4H2,1H3	InChI=1S/C7H13NO/c1-5-2-7(3-5)6(4-9)8-7/h5-6,8-9H,2-4H2,1H3/t5-,6-,7-/m0/s1
