20
gdb 64005	2.7524	1.52571	1.27864	3.7649	78.4	-0.246	0.0194	0.2654	1074.4336	0.171446	-403.131691	-403.123465	-403.122521	-403.163865	32.627	
C	-0.072654558	 1.5510399647	-0.0989270937	-0.431672
C	-0.0714594093	 0.0188710135	-0.0050374932	 0.255221
C	-1.4860152477	-0.5321822232	-0.191139399	-0.448666
C	 0.9534210349	-0.5764400095	-1.0689908334	-0.187672
N	 2.3123786329	-0.5279141125	-0.4492072503	-0.313914
C	 2.0344971041	-0.5308914957	 0.7806239362	 0.435457
O	 2.6650396134	-0.1400732768	 1.930235786	-0.277341
C	 1.3326039905	 0.24400245	 2.4671951058	-0.133359
C	 0.6364380591	-0.4937488587	 1.280615146	-0.180637
H	 0.9391587776	 1.961113177	-0.0237689126	 0.132657
H	-0.4875310676	 1.8711933269	-1.0603688887	 0.118492
H	-0.6850434722	 1.9971747255	 0.6920934687	 0.111197
H	-1.8752475291	-0.27867372	-1.1835316919	 0.118081
H	-1.505432522	-1.6230888677	-0.0950912466	 0.113765
H	-2.177496881	-0.1153709065	 0.5492464541	 0.115581
H	 0.6850381568	-1.6060371543	-1.3418321115	 0.101267
H	 0.9609965041	 0.0153769085	-1.9895159159	 0.109785
H	 1.1807629275	-0.1805974309	 3.4604646441	 0.127261
H	 1.2469155826	 1.3322479687	 2.4838427533	 0.132482
H	 0.2441823233	-1.4621704291	 1.6026578327	 0.102014
127.7125	214.5891	232.1709	258.9542	284.3915	296.4925	338.8829	372.7946	452.4153	500.9442	581.6932	666.7945	716.7279	765.5968	822.4132	900.5525	913.2376	943.5649	955.8044	973.1312	990.5434	1018.7092	1047.4846	1060.5151	1137.1601	1148.6741	1190.5879	1194.2824	1213.7046	1225.4467	1276.6088	1300.2606	1347.631	1365.6247	1402.7659	1422.8821	1484.0913	1485.9736	1496.9139	1500.6067	1504.5849	1511.1302	1774.1037	3014.6817	3024.8241	3031.59	3072.3277	3076.3194	3079.4092	3091.5809	3095.8307	3098.3009	3106.7668	3145.4078
CC1(C)CN=C2OCC12	CC1(C)C[N][C]2OC[C@@H]12	
InChI=1S/C7H11NO/c1-7(2)4-8-6-5(7)3-9-6/h5H,3-4H2,1-2H3	InChI=1S/C7H11NO/c1-7(2)4-8-6-5(7)3-9-6/h5H,3-4H2,1-2H3/t5-/m1/s1
