20
gdb 69464	4.21988	0.86707	0.81233	2.2863	80.46	-0.2514	-0.0246	0.2268	1459.0502	0.169567	-403.121574	-403.112394	-403.11145	-403.156501	33.66	
C	 0.0546946363	 1.5817163811	 0.0510847351	-0.484232
C	-0.0334323863	 0.085941196	 0.070499113	 0.353145
C	-1.331209012	-0.7447547314	 0.0268797041	-0.319559
C	-0.6610659128	-1.788906645	 0.9875084163	-0.004112
C	-0.5804436837	-3.2609106373	 0.5574609475	-0.29546
C	-1.9524344323	-3.8945749046	 0.5292355746	 0.163923
O	-2.5074047934	-4.2949602716	-0.4615157918	-0.238293
C	 0.627977616	-0.9490827438	 0.9444102209	-0.112059
N	 1.0886980452	-0.7068691585	-0.4193841048	-0.354019
H	 1.0791592194	 1.9053105504	 0.2518457605	 0.133581
H	-0.2366704067	 1.9771878545	-0.9293607114	 0.123257
H	-0.6087821886	 2.0263360176	 0.8005638894	 0.116007
H	-2.1922756057	-0.2498085476	 0.4826066409	 0.108907
H	-1.6228142027	-1.1059343096	-0.9654986422	 0.108304
H	-1.1183154364	-1.7253547758	 1.9808246694	 0.083852
H	-0.1331492777	-3.3689053195	-0.4353685978	 0.113404
H	 0.0386239957	-3.8094022103	 1.2812706474	 0.11756
H	-2.4521586267	-3.9499185874	 1.5256590533	 0.071585
H	 1.3477122874	-0.8436659403	 1.7497316861	 0.090228
H	 0.8174911348	-1.4362393569	-1.0765017306	 0.223982
40.4033	69.673	131.9696	173.9152	202.2808	284.0458	324.4523	379.5864	415.9383	480.6382	551.1749	638.1813	722.7727	791.4039	813.4195	877.1582	901.9565	935.6264	938.1174	982.9346	1022.2064	1034.7687	1062.52	1090.5575	1104.8567	1135.5478	1154.0812	1190.9505	1216.4729	1221.9586	1243.1128	1265.1441	1285.7192	1312.2493	1371.1744	1403.5772	1427.9685	1451.8458	1462.6911	1484.589	1488.5052	1496.1683	1833.1174	2849.4037	3016.6395	3028.7768	3043.8471	3046.834	3087.9174	3090.5983	3105.4765	3121.2724	3164.6146	3460.5724
CC12CC(CC=O)C1N2	C[C@]12C[C@@H](CC=O)[C@H]1N2	
InChI=1S/C7H11NO/c1-7-4-5(2-3-9)6(7)8-7/h3,5-6,8H,2,4H2,1H3	InChI=1S/C7H11NO/c1-7-4-5(2-3-9)6(7)8-7/h3,5-6,8H,2,4H2,1H3/t5-,6-,7+/m1/s1
