22
gdb 8203	2.59475	2.26476	1.55861	0.1388	81.66	-0.2464	0.0848	0.3312	947.1678	0.201268	-313.089395	-313.081193	-313.080249	-313.121054	32.866	
C	-0.0340574908	 1.5178501469	-0.043425617	-0.481485
C	-0.0082904003	 0.0093313338	 0.0280632212	 0.328013
C	 1.2823360218	-0.7374933694	-0.239303196	-0.382685
C	 0.6647977243	-0.7810673661	 1.1433371727	 0.32801
C	 1.3866642872	-0.1505098741	 2.3106877101	-0.481485
C	-0.2086434697	-1.998179668	 1.4378169944	-0.255767
C	-1.1244457451	-2.1593866166	 0.205525465	-0.232947
C	-1.2890851353	-0.7294249479	-0.3524392217	-0.255768
H	 0.905340874	 1.960947638	 0.3002319326	 0.112005
H	-0.1955616703	 1.857982218	-1.0735537199	 0.114629
H	-0.84385983	 1.9329068827	 0.569032915	 0.110308
H	 1.2803896517	-1.6242202002	-0.8665514207	 0.100659
H	 2.1771037212	-0.131956058	-0.3501738765	 0.098923
H	 1.94049458	 0.7454698248	 2.0150570855	 0.112005
H	 0.6870308374	 0.1353721649	 3.1056353753	 0.11031
H	 2.1100463898	-0.8498221634	 2.7472864446	 0.114629
H	 0.3754637661	-2.9024865486	 1.6461462333	 0.090541
H	-0.8067756028	-1.7926327373	 2.3357095395	 0.091379
H	-0.6486727209	-2.8050317572	-0.5391792639	 0.102905
H	-2.082074365	-2.6247731652	 0.4536454484	 0.093903
H	-2.1402246803	-0.2267720081	 0.1262289743	 0.091378
H	-1.482120903	-0.721143189	-1.4318014561	 0.090541
183.0301	199.5316	205.0512	224.2814	249.7769	329.9435	331.6932	434.8084	453.8891	513.4972	598.3049	681.0942	684.5119	802.5529	886.2962	892.7539	908.6376	936.5055	947.4471	956.2172	1000.8664	1026.8533	1046.764	1054.5124	1085.9908	1121.0803	1142.1749	1194.2129	1243.4247	1247.8764	1265.0459	1274.4472	1320.3789	1339.4355	1363.6977	1401.6755	1413.5395	1424.7855	1482.8158	1489.6983	1489.8287	1491.8743	1496.4149	1496.4163	1510.1071	1522.8962	3012.7443	3014.4403	3018.0481	3022.0986	3043.8064	3054.1802	3062.409	3072.7414	3074.088	3095.0308	3096.5374	3103.0822	3116.1691	3194.4009
CC12CC1(C)CCC2	C[C@@]12C[C@]1(C)CCC2	
InChI=1S/C8H14/c1-7-4-3-5-8(7,2)6-7/h3-6H2,1-2H3	InChI=1S/C8H14/c1-7-4-3-5-8(7,2)6-7/h3-6H2,1-2H3/t7-,8+
