18
gdb 72359	2.39246	2.01995	1.48936	1.9191	75.3	-0.2448	0.0103	0.2551	947.7022	0.149572	-401.985779	-401.978457	-401.977513	-402.01744	29.119	
C	-0.111981693	 1.4946273599	 0.1120875789	-0.45014
C	 0.0098967167	-0.0173895543	 0.0183269272	 0.375598
C	-1.3411716472	-0.7674108494	-0.070201496	-0.313969
C	-1.2217153693	-1.864544223	 0.958454221	-0.071795
C	-0.0748447445	-1.8247424344	 1.6333865194	-0.067278
C	 0.8191931458	-0.6996057049	 1.173879559	-0.081653
N	 2.0721537883	-1.1787184055	 0.5514848066	-0.275195
C	 1.9396059241	-0.9415377581	-0.6864926604	 0.10375
O	 0.826785147	-0.3315135598	-1.1547053448	-0.255521
H	 0.8766107599	 1.9574728149	 0.1870178121	 0.127766
H	-0.6185992415	 1.9020098594	-0.7681329953	 0.12754
H	-0.6896665808	 1.7703504253	 1.0002283171	 0.123266
H	-2.1831349985	-0.0968853559	 0.1439907415	 0.107736
H	-1.4991033244	-1.1519424723	-1.0838965132	 0.124107
H	-2.0108022924	-2.5918562264	 1.1161112943	 0.099159
H	 0.2296847225	-2.513254334	 2.4123665294	 0.106122
H	 1.0709280936	-0.0109576682	 1.989358284	 0.084679
H	 2.6658871837	-1.1906834032	-1.4532322108	 0.135828
80.0823	224.1487	257.647	287.8745	333.4819	408.5586	447.7935	565.0648	605.717	621.1412	720.7191	776.223	838.4903	869.8759	917.2507	930.2515	952.1793	959.7381	973.4945	982.0005	1004.3718	1045.2102	1097.8766	1122.7934	1136.9399	1185.6382	1215.0513	1225.9392	1282.6099	1291.0361	1334.9502	1350.7662	1366.4913	1408.8132	1474.8608	1487.7496	1492.9992	1681.0319	1702.4739	3026.0391	3030.5234	3037.3557	3066.7898	3111.0672	3113.9362	3186.6646	3206.7341	3215.9299
CC12CC=CC1N=CO2	C[C@]12CC=C[C@H]1N=CO2	
InChI=1S/C7H9NO/c1-7-4-2-3-6(7)8-5-9-7/h2-3,5-6H,4H2,1H3	InChI=1S/C7H9NO/c1-7-4-2-3-6(7)8-5-9-7/h2-3,5-6H,4H2,1H3/t6-,7+/m1/s1
