16
gdb 45824	2.54373	1.8803	1.20526	2.353	70.44	-0.229	-0.0239	0.2052	991.6256	0.126982	-437.909131	-437.901881	-437.900937	-437.941843	27.367	
O	-0.0136105451	-0.0544712923	-0.0607875527	-0.364121
C	-0.0230654147	 1.158608149	-0.0201071563	 0.41655
N	-1.201584001	 1.8723027616	 0.0212653841	-0.349399
C	-1.2998099766	 3.2653488271	 0.0402538634	 0.02651
C	-0.2431366079	 4.0804722843	 0.0391250621	-0.134741
C	 1.1452681385	 3.5341218133	 0.042877394	 0.068404
O	 1.7908716307	 3.5828849424	 1.3498624256	-0.288901
C	 1.892572815	 2.1484685669	 1.4134068966	-0.071941
C	 1.2462524011	 1.9862534383	 0.0134979874	-0.217635
H	-2.0402947937	 1.3120179903	-0.0006087945	 0.257891
H	-2.3193683168	 3.6337738643	 0.0456991794	 0.124951
H	-0.3909687439	 5.1531336276	 0.0521515596	 0.104777
H	 1.7751743141	 4.04428217	-0.6965021806	 0.084487
H	 2.9310164359	 1.8067423856	 1.4881102791	 0.112529
H	 1.3177662711	 1.7258381605	 2.2464680496	 0.113858
H	 1.9234920834	 1.578895341	-0.7370800468	 0.116781
36.5244	109.3338	232.9556	298.6201	432.3638	502.0658	508.5046	557.4489	592.7938	709.7862	748.5514	760.9144	810.3615	869.9882	944.4939	953.7877	967.4181	1009.8216	1014.027	1046.0827	1070.3869	1123.1357	1154.1544	1190.8519	1232.6375	1282.6797	1302.0379	1320.4857	1354.5613	1392.0497	1429.7347	1471.234	1528.2673	1723.7529	1799.5835	3017.2851	3023.5453	3064.5527	3116.5993	3192.9798	3214.9584	3627.1286
O=C1NC=CC2OCC12	O=C1NC=C[C@H]2OC[C@@H]12	
InChI=1S/C6H7NO2/c8-6-4-3-9-5(4)1-2-7-6/h1-2,4-5H,3H2,(H,7,8)	InChI=1S/C6H7NO2/c8-6-4-3-9-5(4)1-2-7-6/h1-2,4-5H,3H2,(H,7,8)/t4-,5-/m1/s1
