23
gdb 100940	2.46111	0.88039	0.75898	2.2993	78.17	-0.2545	0.0638	0.3183	1597.9289	0.203513	-462.549714	-462.538382	-462.537438	-462.58648	40.854	
C	-0.2333204849	 1.4148627332	-0.2904021471	-0.390987
C	-0.2993304032	-0.0722113967	 0.0784317188	-0.19697
C	 0.7095254862	-0.4990193779	 1.1739573003	 0.021556
C	 0.1315449794	-0.3402512673	 2.5836451307	-0.091843
O	-0.3010565975	 0.9993045874	 2.7737386354	-0.421489
C	 1.2023865995	-1.9500243711	 1.0063144443	 0.07041
O	 0.1246106388	-2.8896786125	 0.8790081705	-0.448616
C	 2.1880431433	-2.1572406516	-0.1486082165	-0.077109
O	 2.5549965541	-3.5168191726	-0.2491267446	-0.425577
H	 0.7565610807	 1.6749185724	-0.6817013158	 0.110526
H	-0.9696402359	 1.6582622308	-1.0632117755	 0.105368
H	-0.4266096214	 2.0366390937	 0.5848567938	 0.147684
H	-1.3155447822	-0.3168394415	 0.4124279121	 0.102378
H	-0.1265474319	-0.6575584749	-0.8345310922	 0.085891
H	 1.5937669485	 0.149638598	 1.1024040293	 0.083378
H	-0.7016474537	-1.0494441084	 2.7037209045	 0.09985
H	 0.9029139386	-0.6099169586	 3.3226888743	 0.08684
H	-0.7455950235	 1.0537172627	 3.6244127137	 0.288213
H	 1.7149214063	-2.2646604656	 1.9236649207	 0.092212
H	-0.4289970957	-2.6000189439	 0.1442184838	 0.286754
H	 1.749772801	-1.7925742466	-1.0941916787	 0.08071
H	 3.1010806257	-1.578397124	 0.0311690101	 0.106645
H	 1.7425091377	-4.0106919153	-0.0757132618	 0.284177
57.4728	86.9423	101.6895	116.5285	181.8837	213.2158	244.9823	260.1922	276.1249	317.2889	329.7924	351.1924	362.1091	482.9147	510.7326	530.4744	692.6403	782.1966	818.2826	866.7746	967.3563	980.1193	997.	1042.8794	1063.0097	1086.5292	1095.7727	1108.2801	1124.1861	1178.8179	1202.4011	1239.7479	1262.2836	1279.061	1302.0465	1315.3452	1321.549	1352.8034	1388.4667	1394.6251	1406.5928	1429.1478	1445.6891	1459.4297	1491.2898	1497.5112	1508.554	1514.7868	1525.5478	2950.2852	2968.4904	3001.1134	3009.4416	3020.5658	3035.8497	3039.9945	3047.9579	3064.7061	3096.5515	3146.1275	3760.1066	3793.7749	3832.5475
CCC(CO)C(O)CO	CC[C@@H](CO)[C@@H](O)CO	
InChI=1S/C6H14O3/c1-2-5(3-7)6(9)4-8/h5-9H,2-4H2,1H3	InChI=1S/C6H14O3/c1-2-5(3-7)6(9)4-8/h5-9H,2-4H2,1H3/t5-,6-/m0/s1
