20
gdb 89359	2.46305	1.55828	1.3369	3.337	78.57	-0.2359	-0.0083	0.2277	1081.8215	0.171161	-403.148614	-403.140022	-403.139078	-403.181404	33.269	
C	-0.0979380944	 1.5412462272	 0.0527057503	-0.414512
C	 0.0583984572	 0.0214934806	 0.0305938501	 0.012639
C	 1.0200949286	-0.5351072603	-1.0829708603	-0.285926
C	 2.0287159918	-1.3193813144	-0.198611422	 0.201048
C	 3.1356433814	-2.1103417384	-0.8390894995	-0.495656
N	 1.1582343778	-1.9752198119	 0.8497838821	-0.357313
C	 0.7816801442	-0.5835929994	 1.2670966111	-0.135375
C	 2.250153551	-0.2698235543	 0.9181946476	 0.458352
O	 3.1488412607	 0.3909677275	 1.3362783841	-0.326606
H	 0.8729944709	 2.0397925751	 0.1464997105	 0.133273
H	-0.5714741284	 1.9010195543	-0.8663490144	 0.119508
H	-0.7195073537	 1.8624667889	 0.8953334896	 0.119189
H	-0.9314383373	-0.441227446	-0.0548290668	 0.074228
H	 0.51610084	-1.2008499393	-1.7910179248	 0.100387
H	 1.4994102528	 0.2640882893	-1.6581831782	 0.110816
H	 3.790907124	-1.4475790457	-1.4133567264	 0.131286
H	 3.7371291477	-2.6168054613	-0.0799791856	 0.137829
H	 2.7386195434	-2.865790064	-1.5263878262	 0.117553
H	 0.3687397268	-2.4727678565	 0.4341753041	 0.212658
H	 0.3486006455	-0.4384851313	 2.2557350747	 0.086623
122.8456	152.0116	170.5239	214.3047	232.2971	277.2799	346.2178	408.2796	468.7309	502.2955	580.3059	660.9026	725.3453	778.2846	802.6034	825.4168	871.8878	895.0007	917.0435	934.7108	1011.5673	1041.4226	1055.004	1075.4949	1109.883	1124.2819	1142.9382	1170.9047	1206.8785	1253.8795	1265.2329	1292.7716	1328.3056	1353.7152	1368.6688	1414.9279	1416.7546	1482.5838	1492.1334	1495.2457	1497.5635	1500.9982	1925.3294	3029.5863	3030.6799	3035.2217	3043.3592	3086.0365	3099.4298	3100.0542	3102.6228	3122.3819	3134.6575	3434.0265
CC1CC2(C)NC1C2=O	C[C@H]1C[C@]2(C)N[C@H]1C2=O	
InChI=1S/C7H11NO/c1-4-3-7(2)6(9)5(4)8-7/h4-5,8H,3H2,1-2H3	InChI=1S/C7H11NO/c1-4-3-7(2)6(9)5(4)8-7/h4-5,8H,3H2,1-2H3/t4-,5+,7-/m0/s1
