17
gdb 26252	3.65046	1.06092	0.98654	0.9843	72.01	-0.2182	0.0247	0.2429	1255.2713	0.135796	-455.166397	-455.157616	-455.156672	-455.200339	31.827	
C	-1.0051179556	 0.8786136381	 0.1507391561	-0.334779
N	 0.252414059	 0.1808849858	-0.1163358325	-0.179619
C	 0.813367337	-0.4809968109	 1.0612844396	-0.334779
C	 0.2949287926	-0.5452998935	-1.2855941177	 0.351804
C	 0.964215205	-0.4312847584	-2.452512173	-0.160685
N	 0.6251873905	-1.4681417955	-3.3225953824	-0.388192
C	-0.2314137431	-2.1538956607	-2.6358288748	 0.480939
O	-0.8736961013	-3.2612447517	-3.0060090379	-0.400886
O	-0.5135961701	-1.7115052787	-1.4120677375	-0.21371
H	-0.8445488283	 1.6196528934	 0.9407404611	 0.120432
H	-1.3278918448	 1.399680818	-0.7533514399	 0.13152
H	-1.8126728976	 0.2019309703	 0.4729521831	 0.115439
H	 0.1608659253	-1.2736156373	 1.4611114727	 0.115442
H	 1.7781558801	-0.9225560769	 0.8018959068	 0.131522
H	 0.9716047729	 0.2617608616	 1.8501422807	 0.120435
H	 1.6732326044	 0.3332200839	-2.7273399943	 0.125355
H	-0.574868286	-3.4623060173	-3.9026240801	 0.319762
51.2787	127.9681	134.3042	212.9671	230.1361	283.8411	348.0796	384.4603	447.9133	472.3614	524.3872	603.1345	693.2958	745.4635	761.4336	875.006	901.6947	938.4414	1023.7725	1061.8615	1118.2267	1119.6705	1149.3334	1180.5798	1229.654	1230.2533	1255.7586	1349.838	1439.3486	1465.6146	1479.5551	1493.973	1501.0036	1501.2227	1517.7001	1641.5164	1701.6426	2977.7924	2982.4811	3068.3671	3068.7637	3122.6717	3124.9614	3266.7484	3798.99
CN(C)C1=CN=C(O)O1	CN(C)c1cnc(O)o1	
InChI=1S/C5H8N2O2/c1-7(2)4-3-6-5(8)9-4/h3H,1-2H3,(H,6,8)	InChI=1S/C5H8N2O2/c1-7(2)4-3-6-5(8)9-4/h3H,1-2H3,(H,6,8)
