17
gdb 68153	2.60773	1.76755	1.26434	4.6835	72.89	-0.2254	-0.0717	0.1537	1007.3954	0.135962	-421.847279	-421.839446	-421.838502	-421.879466	30.092	
C	-0.0188734922	 1.547912569	 0.0260448477	-0.495785
C	 0.0253358913	 0.0426283431	 0.0308080337	 0.195622
C	 0.9490219256	-0.8110411481	-0.9127770976	-0.282759
C	 0.6979362771	-1.9531092131	 0.1255039093	-0.142533
C	 0.6456450537	-0.8132817375	 1.1948246825	-0.282758
C	-0.7853653711	-2.1934368431	-0.0882557651	 0.349054
O	-1.4201075821	-3.2049535473	-0.18068671	-0.303458
C	-1.2858888761	-0.707216863	-0.1587427419	 0.304152
O	-2.3985728612	-0.2906197836	-0.318409944	-0.310972
H	 0.9781195286	 1.9755019736	 0.1699896317	 0.116355
H	-0.4204267325	 1.9199663877	-0.9217613258	 0.136674
H	-0.6715250617	 1.9181136807	 0.8229155173	 0.136674
H	 0.6377965036	-0.9674809521	-1.9492494325	 0.120515
H	 1.9817317437	-0.4550100358	-0.8773077976	 0.12092
H	 1.3402900113	-2.8251372791	 0.2170408364	 0.096862
H	 1.6463267058	-0.457491193	 1.4528074853	 0.120921
H	 0.0547709962	-0.9717866785	 2.1011103107	 0.120516
104.5485	156.7829	224.6373	232.7357	294.4369	302.6044	460.6484	512.5773	536.2124	553.686	663.1145	703.6788	767.3206	841.2439	863.3718	875.4698	933.2351	957.8181	965.8076	1006.369	1029.059	1045.6882	1088.4053	1134.9784	1187.3148	1226.7667	1230.4143	1240.9952	1278.4532	1349.9886	1418.2195	1486.1422	1487.6944	1488.5173	1520.7895	1864.7531	1887.1202	3038.2273	3055.6354	3055.7184	3109.2889	3109.9788	3117.6687	3117.8174	3154.6222
CC12CC(C1)C(=O)C2=O	C[C@@]12C[C@@H](C1)C(=O)C2=O	
InChI=1S/C7H8O2/c1-7-2-4(3-7)5(8)6(7)9/h4H,2-3H2,1H3	InChI=1S/C7H8O2/c1-7-2-4(3-7)5(8)6(7)9/h4H,2-3H2,1H3/t4-,7+
