15
gdb 20938	7.50616	1.09331	0.96887	4.5497	64.28	-0.2192	-0.0303	0.1889	1162.166	0.118937	-395.951483	-395.943893	-395.942949	-395.984033	27.039	
C	-0.0620920809	 1.5441754298	 0.0005361514	-0.400112
C	-0.0387337663	 0.0235879565	 0.1037540256	-0.121055
N	-1.3581012096	-0.5319519394	-0.1643118681	-0.387985
C	-1.5259059341	-1.895394116	-0.0809497942	 0.329794
C	-0.6464060695	-2.9367251481	-0.1169602127	-0.060814
O	-1.3588895412	-4.0790630404	-0.0552158455	-0.158864
N	-2.7043198057	-3.7169217108	 0.0336498616	-0.001687
N	-2.7832604216	-2.4539785065	 0.0167414328	-0.207577
H	 0.9353037193	 1.9543744738	 0.1786566187	 0.128225
H	-0.3975404918	 1.8613947427	-0.9908017711	 0.136425
H	-0.7379342289	 1.9785010437	 0.7458710951	 0.12311
H	 0.6567099449	-0.3858523109	-0.6400406517	 0.116132
H	 0.3388459341	-0.2855714992	 1.0932616837	 0.100515
H	-2.125218163	-0.0234446157	 0.2542657974	 0.248174
H	 0.4227342042	-3.0258735594	-0.183224993	 0.155716
72.2568	94.5792	135.6862	252.1788	342.2122	347.8193	433.4624	547.4742	638.1034	713.4972	749.1902	766.7901	777.2742	823.285	930.7524	995.5802	1050.9462	1087.2698	1120.359	1156.2609	1172.2805	1274.431	1296.6443	1321.7604	1393.1468	1416.109	1429.1827	1489.857	1499.6966	1518.3125	1528.1906	1670.2082	2959.6799	3033.6117	3040.6558	3107.7943	3127.104	3307.406	3586.266
CCNC1=CON=N1	CCNc1conn1	
InChI=1S/C4H7N3O/c1-2-5-4-3-8-7-6-4/h3,5H,2H2,1H3	InChI=1S/C4H7N3O/c1-2-5-4-3-8-7-6-4/h3,5H,2H2,1H3
