18
gdb 111400	2.20555	1.561	1.1054	3.311	71.54	-0.2438	-0.033	0.2108	1120.9501	0.146763	-439.031542	-439.022848	-439.021903	-439.065654	31.739	
O	 0.9103165606	-1.6580754566	 0.1072452429	-0.421674
C	 0.1771189365	-0.6726752227	 0.8184608243	-0.084844
C	-1.2884866277	-0.7468445967	 0.4214198337	 0.017395
C	-2.3890028243	 0.2346919019	 0.9240379352	-0.148491
C	-2.0835389253	 1.4269451725	 1.7893524855	 0.145599
O	-1.0279071764	 1.6548137502	 2.3256555144	-0.247632
C	-2.6357707711	 0.564729673	-0.5595692259	-0.049201
C	-1.3947284133	 1.048996285	-1.1923603961	-0.250387
N	-1.5777475612	-0.4085176332	-1.0308277482	-0.148087
H	 0.7133192834	-1.5376405231	-0.8287541778	 0.293407
H	 0.2866025576	-0.8990967477	 1.8827912284	 0.122382
H	 0.5930001475	 0.3307184239	 0.6638772442	 0.102498
H	-1.6143881816	-1.7801163574	 0.5657176632	 0.102668
H	-3.2391384203	-0.2956082853	 1.3662720268	 0.10884
H	-2.9388110969	 2.1362921991	 1.8871065309	 0.084224
H	-3.6097693026	 0.6253957436	-1.0327773775	 0.107253
H	-1.4514078273	 1.357857875	-2.2310269109	 0.130672
H	-0.6512370477	 1.5774413886	-0.6017465529	 0.135378
47.3555	99.9087	147.6612	173.4553	225.0843	287.5494	360.9591	403.7315	442.9128	538.4984	661.2112	717.882	741.7998	777.1157	868.8164	878.7414	946.2055	978.8475	1015.2942	1043.1998	1063.2094	1068.8405	1095.1876	1115.7927	1125.6365	1173.3469	1190.7718	1215.0655	1237.4553	1280.4396	1322.4603	1341.4687	1360.2548	1391.9642	1422.5114	1429.4926	1490.0486	1504.6415	1821.2048	2858.9267	3029.178	3056.3008	3077.0196	3096.7808	3119.0796	3170.3133	3208.9631	3799.132
OCC1C(C=O)C2CN12	OC[C@H]1[C@@H](C=O)[C@H]2CN12	
InChI=1S/C6H9NO2/c8-2-4-5-1-7(5)6(4)3-9/h2,4-6,9H,1,3H2	InChI=1S/C6H9NO2/c8-2-4-5-1-7(5)6(4)3-9/h2,4-6,9H,1,3H2/t4-,5+,6-,7?/m0/s1
