14
gdb 48529	2.88932	1.50306	1.2825	3.9971	67.45	-0.267	-0.0554	0.2115	984.4244	0.100522	-436.647728	-436.64061	-436.639666	-436.679802	26.444	
O	-0.233298203	 0.0964524628	-0.3489051683	-0.250577
C	-0.0310107139	 1.2475210382	-0.0536871829	 0.024039
C	 1.3091031249	 1.8373492681	 0.0714901549	 0.2742
C	 1.9114246011	 2.8627710373	 0.9627579959	-0.081883
C	 3.2398218188	 2.0935599516	 1.0208502843	-0.246734
C	 2.7762327577	 1.4154209107	-0.3044893453	-0.258539
C	 2.6938128957	 2.6252198104	-1.2234620602	 0.447004
O	 3.1442411367	 2.9707886173	-2.2646583283	-0.298005
N	 1.6123738905	 3.2612039876	-0.4405273042	-0.22873
H	-0.851176191	 1.9650904207	 0.1597199334	 0.100421
H	 1.4380721685	 3.4615097506	 1.7305312738	 0.130848
H	 4.1738930218	 2.6623034499	 0.9946458651	 0.127553
H	 3.2443867712	 1.3927220886	 1.8576860752	 0.1339
H	 3.138843671	 0.4474171962	-0.6327011834	 0.126502
75.4242	150.6535	175.4771	269.4749	405.3953	472.6046	505.3079	613.2108	648.6511	712.6779	740.4769	805.5863	852.5817	897.4567	940.9074	960.0418	988.8202	1031.6376	1071.8732	1079.0204	1121.2576	1139.7124	1156.5626	1207.6882	1265.3238	1286.0553	1376.3453	1429.6153	1497.7625	1806.7611	1937.508	2914.3794	3062.3433	3129.3719	3191.42	3204.6807
O=CC12C3CC1C(=O)N23	O=C[C@@]12[C@H]3C[C@@H]1C(=O)N23	
InChI=1S/C6H5NO2/c8-2-6-3-1-4(6)7(6)5(3)9/h2-4H,1H2	InChI=1S/C6H5NO2/c8-2-6-3-1-4(6)7(6)5(3)9/h2-4H,1H2/t3-,4-,6+,7?/m1/s1
