17
gdb 83171	3.12866	1.39506	1.21348	5.3861	68.03	-0.2712	0.0366	0.3078	1061.2956	0.136956	-458.99016	-458.982391	-458.981447	-459.022746	29.233	
C	-0.62069713	 1.3534281381	 0.087153887	-0.416373
C	-0.108930723	-0.0665941034	-0.0001779834	-0.047999
C	 0.7105160708	-0.5959807074	-1.1723631101	-0.111655
C	 1.291330556	 0.3356147713	-2.2070167196	-0.105966
O	 2.701862666	 0.5649281135	-1.9820613835	-0.243664
C	 3.1189201899	 0.9128723186	-0.7515841693	 0.464945
O	 4.1747602009	 1.4329836508	-0.5600389703	-0.354597
O	 2.2587685555	 0.6633833748	 0.2777975202	-0.249122
C	 1.3409723604	-0.4051569723	 0.1769260589	 0.08162
H	 0.1508382529	 2.0856574808	-0.1595080129	 0.137369
H	-1.4732384453	 1.5093529683	-0.5819427078	 0.123852
H	-0.9518349275	 1.5692400707	 1.1076391471	 0.132627
H	-0.7816714217	-0.8092733244	 0.4201915772	 0.100752
H	 0.5224345543	-1.6121188279	-1.4992293055	 0.107038
H	 1.2433354115	-0.0950834886	-3.2076761376	 0.135023
H	 0.787154365	 1.3065063608	-2.2324183583	 0.128878
H	 1.6437895844	-1.2529588437	 0.7826238878	 0.117273
81.7171	142.9253	166.5589	212.7324	284.5605	423.3686	441.731	520.6752	560.6912	597.2997	747.9189	779.9294	786.3232	809.3504	852.2314	915.1138	965.1938	992.5193	1017.6571	1056.3357	1084.2081	1108.2082	1142.1256	1162.3047	1176.0877	1188.3702	1252.2915	1282.5137	1366.2882	1370.7901	1419.9682	1421.8857	1440.3887	1493.4091	1500.0118	1516.5549	1890.1297	3043.0591	3062.5109	3103.2215	3124.2684	3128.1123	3147.2741	3160.7756	3177.0066
CC1C2COC(=O)OC12	C[C@H]1[C@H]2COC(=O)O[C@@H]12	
InChI=1S/C6H8O3/c1-3-4-2-8-6(7)9-5(3)4/h3-5H,2H2,1H3	InChI=1S/C6H8O3/c1-3-4-2-8-6(7)9-5(3)4/h3-5H,2H2,1H3/t3-,4+,5-/m0/s1
