21
gdb 120966	3.47083	0.98038	0.97198	2.4792	78.86	-0.2418	0.086	0.3277	1362.3067	0.182306	-424.215412	-424.206577	-424.205632	-424.249582	33.123	
C	-0.6150427393	 1.4737425116	 0.2991769927	-0.382634
C	-0.2252497023	 0.0058757101	 0.2394346157	-0.038851
O	-1.3759866845	-0.7448111538	-0.0887639008	-0.247391
C	-1.1487365924	-2.1314636747	-0.2585756846	 0.129215
C	-1.0412334208	-2.9023215908	 1.0912529546	-0.267235
C	-2.4243695123	-3.4728035985	 1.3286563483	 0.05707
O	-3.4714627698	-2.5030545043	 1.2083947361	-0.250005
C	-3.2157773696	-3.3694601546	 0.0966858804	 0.050049
C	-2.3765054683	-2.7297030706	-0.9893880835	-0.263642
H	 0.2537210101	 2.0900639158	 0.5494748231	 0.111262
H	-1.0116406902	 1.8040921863	-0.6650227151	 0.124722
H	-1.3861583566	 1.6329775024	 1.0579773645	 0.131471
H	 0.560871644	-0.1572236754	-0.518614074	 0.080993
H	 0.1948277887	-0.3138104102	 1.2071290811	 0.084638
H	-0.2332338844	-2.2691754976	-0.8533602389	 0.062623
H	-0.315600718	-3.7216885319	 1.0190585231	 0.09866
H	-0.7153587634	-2.2437887884	 1.9013047517	 0.116503
H	-2.5866066642	-4.2471379581	 2.0752141442	 0.089184
H	-4.0171887217	-4.0609552658	-0.1528951862	 0.089192
H	-2.9048987703	-1.942159245	-1.5323971767	 0.124924
H	-2.0686031946	-3.4952580364	-1.7110725958	 0.099253
62.7314	80.5587	122.2701	199.8566	251.6189	297.7966	338.9689	395.789	431.6193	475.0466	676.45	762.1764	805.984	821.6029	827.0387	863.939	892.3733	906.8426	946.4359	962.9965	998.1282	1033.2425	1053.3176	1087.9803	1106.7307	1140.5648	1158.2373	1188.1212	1192.1811	1241.129	1244.1029	1272.3122	1296.7207	1320.0457	1328.1314	1364.5105	1375.7603	1403.0927	1434.9912	1448.8028	1461.5783	1472.5458	1483.0853	1500.215	1529.0671	2948.5653	2977.8113	2982.1683	3039.5397	3045.0504	3047.3009	3095.1177	3107.8981	3119.1363	3123.3176	3133.4517	3146.9448
CCOC1CC2OC2C1	CCO[C@H]1C[C@H]2O[C@H]2C1	
InChI=1S/C7H12O2/c1-2-8-5-3-6-7(4-5)9-6/h5-7H,2-4H2,1H3	InChI=1S/C7H12O2/c1-2-8-5-3-6-7(4-5)9-6/h5-7H,2-4H2,1H3/t5-,6+,7-
