23
gdb 118549	1.81225	1.00234	0.68047	4.0029	84.	-0.274	0.0118	0.2858	1727.4843	0.202841	-425.467599	-425.45633	-425.455386	-425.505445	39.062	
C	 0.0131045772	 1.4640815783	 0.1140313995	-0.381335
C	 0.045764604	-0.0647990742	 0.037895424	-0.185811
C	 0.7199188232	-0.578771063	-1.2383806303	-0.169843
C	 0.7517345991	-2.1021861813	-1.3638607821	 0.100532
C	 1.3643105371	-2.582725787	-2.680671819	-0.176459
C	 1.3503721084	-4.1031413474	-2.8541942426	-0.401689
O	 1.5399218741	-2.6326979115	-0.2734198966	-0.191512
C	 0.967607765	-3.4795761153	 0.5984468961	 0.172431
O	 1.5581774076	-3.9610523341	 1.519135528	-0.28264
H	 1.0256244799	 1.8818052258	 0.093402905	 0.11912
H	-0.5389174689	 1.8936662772	-0.7294238635	 0.113476
H	-0.4681992263	 1.8050219324	 1.035513421	 0.116727
H	 0.5748115314	-0.462955683	 0.9107650385	 0.119554
H	-0.9793954069	-0.4561468876	 0.0907367689	 0.091919
H	 0.196799632	-0.180838838	-2.1173952213	 0.098775
H	 1.7501639078	-0.2043133076	-1.2915625233	 0.110791
H	-0.2710717725	-2.4990515196	-1.2714291669	 0.081358
H	 0.8088613899	-2.1081950594	-3.4985027299	 0.102384
H	 2.3926785208	-2.206875194	-2.7397825577	 0.114179
H	 0.3294101993	-4.5000689392	-2.8169863231	 0.113005
H	 1.7799276538	-4.3874655737	-3.8190108131	 0.120754
H	 1.9338422368	-4.5969797906	-2.072181338	 0.139289
H	-0.0984529429	-3.6766981471	 0.3702126262	 0.074994
42.55	65.996	76.4595	111.3655	128.7831	158.4717	232.5388	246.7618	268.3484	284.236	318.8959	361.9026	480.3132	552.5682	607.5544	745.1864	790.7829	871.3677	897.5946	917.153	976.3797	1017.3024	1035.5764	1046.9848	1057.4379	1081.1959	1133.7675	1145.9117	1166.2811	1217.5035	1261.575	1284.5571	1303.7451	1333.7438	1342.8438	1383.5796	1391.6479	1402.0913	1413.492	1415.7884	1442.1533	1468.6575	1480.6639	1493.0041	1500.3907	1500.6388	1509.6064	1509.65	1859.1952	2941.3587	2990.492	3015.4864	3023.0062	3031.0334	3034.5085	3036.486	3055.1504	3069.4889	3076.2754	3099.4641	3104.2445	3106.1223	3119.4976
CCCC(CC)OC=O	CCC[C@@H](CC)OC=O	
InChI=1S/C7H14O2/c1-3-5-7(4-2)9-6-8/h6-7H,3-5H2,1-2H3	InChI=1S/C7H14O2/c1-3-5-7(4-2)9-6-8/h6-7H,3-5H2,1-2H3/t7-/m1/s1
