14
gdb 131358	4.00871	1.05787	0.83699	4.8242	67.77	-0.217	-0.0102	0.2068	1262.2615	0.102068	-470.045191	-470.036961	-470.036017	-470.078589	29.57	
O	 0.0794657692	 1.3842739409	-0.1313616058	-0.42787
C	 0.0651079266	 0.0418184038	-0.0197613594	 0.451167
N	 0.0699405691	-0.7417146986	-1.0859162651	-0.337133
N	 0.0517409537	-2.0010531564	-0.5545296791	-0.308402
C	 0.0363156052	-1.9869719616	 0.8019371912	 0.532214
N	 0.0164091799	-3.1776180235	 1.5236683423	-0.424242
C	 0.0017161336	-3.279665117	 2.8943258003	 0.150658
O	 0.0023988313	-2.3507459892	 3.6649835343	-0.287894
C	 0.0441340758	-0.6660758145	 1.2037651488	-0.410542
H	 0.0924630925	 1.5896303257	-1.0747847412	 0.302856
H	 0.0513958635	-2.7898160552	-1.1762399517	 0.268013
H	 0.0154471173	-4.0418947055	 1.003693808	 0.254703
H	-0.0114933884	-4.3400374404	 3.210050346	 0.089722
H	 0.0364751307	-0.2914117385	 2.2093951315	 0.146751
54.5473	155.6045	165.0894	180.8856	296.2318	315.3437	413.3827	445.8913	460.7106	490.0866	573.3955	678.4263	722.2869	755.3604	795.8344	863.9682	1001.2324	1009.1876	1038.279	1119.1884	1160.1474	1202.5634	1227.8843	1304.2229	1429.2066	1455.7374	1494.5371	1566.2859	1597.51	1628.6452	1817.0839	2956.011	3324.6932	3622.3611	3688.2306	3792.8116
OC1=NNC(NC=O)=C1	Oc1n[nH]c(NC=O)c1	
InChI=1S/C4H5N3O2/c8-2-5-3-1-4(9)7-6-3/h1-2H,(H3,5,6,7,8,9)	InChI=1S/C4H5N3O2/c8-2-5-3-1-4(9)7-6-3/h1-2H,(H3,5,6,7,8,9)
