23
gdb 92649	2.39956	1.58946	1.33855	1.2556	84.76	-0.2349	0.0777	0.3126	1108.6431	0.208361	-388.293342	-388.285114	-388.28417	-388.325688	33.347	
C	-0.4239488197	 1.4620295472	-0.2200712165	-0.40286
C	-0.075832095	-0.0181844526	-0.0824036168	 0.003523
C	 1.1822105637	-0.4630808394	-0.893866319	-0.248819
C	 2.0053540568	-0.4666284497	 0.4105295284	 0.109366
O	 2.6977757775	 0.7661961779	 0.5268437811	-0.261512
C	 2.9233378301	 1.1383866403	 1.8783466944	-0.066167
C	 1.6056590622	 1.4818682216	 2.573046943	-0.201006
C	 0.6527917613	 0.2728039709	 2.5478341301	-0.239731
C	 0.6755612667	-0.4854858097	 1.2159049524	 0.003878
H	 0.4665201184	 2.0897425308	-0.1393336275	 0.132159
H	-0.8774585104	 1.6527247359	-1.1994641041	 0.10898
H	-1.1439853607	 1.7817171579	 0.5420390595	 0.106574
H	-0.9732607796	-0.6116141294	-0.2842103066	 0.062056
H	 1.0809539647	-1.4638831401	-1.321538172	 0.094809
H	 1.5460527586	 0.2222535364	-1.6631554033	 0.104872
H	 2.7037108283	-1.3000807195	 0.5809065985	 0.052762
H	 3.4444982555	 0.3276470171	 2.4172571669	 0.080529
H	 3.5940974636	 2.0022140334	 1.8484471602	 0.102425
H	 1.7984096921	 1.7883000377	 3.6077913068	 0.090018
H	 1.1603961295	 2.3415547228	 2.0620397831	 0.107766
H	 0.9638080382	-0.4232900871	 3.3381369372	 0.094518
H	-0.3696017856	 0.5787180335	 2.799901803	 0.097126
H	 0.3945458939	-1.528662836	 1.3965253412	 0.068734
104.25	166.3419	219.7494	268.3036	300.9355	352.7978	372.9273	406.4693	455.5343	497.8614	630.7923	723.9674	764.0348	808.5526	853.2817	859.5809	873.3543	907.0796	933.2245	960.4441	984.1694	1017.992	1060.4239	1075.3485	1089.8498	1116.5307	1123.4832	1160.8999	1183.3664	1221.1746	1227.2353	1257.0514	1268.0708	1279.4616	1301.2041	1320.9699	1341.7681	1359.0793	1368.7499	1383.0832	1389.3768	1407.746	1411.64	1472.1258	1474.6813	1485.6576	1496.6668	1502.2971	1511.0307	2953.9297	2978.6397	3011.4317	3027.9403	3036.3317	3038.277	3049.8593	3053.0603	3065.0238	3078.3524	3084.4696	3087.7983	3118.1934	3125.8691
CC1CC2OCCCC12	C[C@H]1C[C@H]2OCCC[C@@H]12	
InChI=1S/C8H14O/c1-6-5-8-7(6)3-2-4-9-8/h6-8H,2-5H2,1H3	InChI=1S/C8H14O/c1-6-5-8-7(6)3-2-4-9-8/h6-8H,2-5H2,1H3/t6-,7-,8+/m0/s1
