20
gdb 38445	3.56303	1.32286	1.2433	2.0844	77.74	-0.2364	0.0797	0.3162	1086.0473	0.172822	-403.10367	-403.095997	-403.095053	-403.136632	30.106	
C	-0.161327694	 1.2630392295	 0.0085876473	-0.244259
C	 1.126248918	 0.5757425929	-0.1870167859	-0.009666
C	 1.7771151727	 0.2471127386	 1.1521593916	-0.344146
C	 0.4744494669	-0.5245809672	 1.4993296044	 0.325212
C	 0.6031638623	-2.0443709651	 1.6477237207	-0.273822
C	-0.7126577346	-2.3983303903	 2.3359863739	-0.081118
O	-0.9080141046	-1.3493127711	 3.2792493047	-0.260267
C	-0.3894132237	-0.1456979189	 2.7202167598	-0.117656
N	-0.1331125243	-0.2073115944	 0.1390028323	-0.163623
H	-0.3188767763	 1.8830816109	 0.8887024326	 0.113366
H	-0.703636524	 1.5915368596	-0.8726356858	 0.122741
H	 1.6067037474	 0.4987802445	-1.1567857908	 0.095242
H	 2.6417890821	-0.4157436277	 1.0756676403	 0.112125
H	 2.0469009629	 1.1037992815	 1.7783267878	 0.102569
H	 0.7475074988	-2.5322157626	 0.6814734616	 0.111365
H	 1.4473881416	-2.2857007969	 2.3033972006	 0.101395
H	-1.5353541772	-2.4302763118	 1.6049517043	 0.103101
H	-0.6936127552	-3.3439412894	 2.8841966177	 0.105474
H	 0.1971361464	 0.3645937353	 3.4936652556	 0.102433
H	-1.2114380651	 0.5193861326	 2.4207503073	 0.099534
28.5904	185.4986	192.904	239.4942	366.2083	403.312	445.994	504.0807	627.644	745.9385	756.6586	771.556	835.7893	850.4362	887.558	916.4658	938.9856	961.5503	985.49	1005.2855	1030.7196	1059.0677	1085.8431	1105.4071	1121.1708	1135.4821	1161.1294	1168.4073	1204.4133	1229.488	1239.6194	1258.5356	1274.2337	1281.5793	1321.1244	1362.3102	1367.1482	1403.515	1468.5148	1486.9268	1504.7291	1505.6466	1521.4575	2987.4359	3002.382	3044.2872	3044.8368	3049.935	3092.66	3105.1009	3108.2195	3117.9098	3164.6639	3196.564
C1C2CC3(CCOC3)N12	C1[C@H]2C[C@]3(CCOC3)N12	
InChI=1S/C7H11NO/c1-2-9-5-7(1)3-6-4-8(6)7/h6H,1-5H2	InChI=1S/C7H11NO/c1-2-9-5-7(1)3-6-4-8(6)7/h6H,1-5H2/t6-,7+,8?/m1/s1
