18
gdb 56437	2.27763	1.48136	0.95156	2.7342	79.13	-0.243	0.0028	0.2458	1235.6625	0.144983	-401.912032	-401.902373	-401.901429	-401.947665	34.615	
C	-0.0746500877	 1.791807804	 1.3020953459	-0.379195
C	-0.3167418293	 0.879525049	 0.0823656177	-0.30917
C	 0.3847484263	-0.3939549335	 0.2054005403	 0.359228
C	 1.0019021689	-1.4178437814	 0.3309048334	-0.47672
C	-1.8328168158	 0.7553126993	-0.1989321942	 0.413418
O	-2.5925847389	 1.6689563989	 0.0313909421	-0.343689
N	-2.2589126294	-0.4672297066	-0.6865227413	-0.074873
C	-1.8784817932	-1.0819718677	-1.9412221305	-0.225861
C	-3.2852735852	-0.6169357411	-1.6877524649	-0.226886
H	 0.9903443256	 2.0124035951	 1.4017136175	 0.121932
H	-0.6343866685	 2.7195444668	 1.177811325	 0.143947
H	-0.4135850485	 1.3009203116	 2.2178627643	 0.133673
H	 0.0790248332	 1.3991668653	-0.8047146741	 0.132218
H	 1.5345135921	-2.3295721569	 0.4429963901	 0.196518
H	-1.2730343663	-0.4990480997	-2.6310635103	 0.131258
H	-1.631075372	-2.1382219311	-1.8957249179	 0.135038
H	-4.0593731234	-1.3463959276	-1.468633602	 0.131119
H	-3.6263509481	 0.2889670554	-2.1818790711	 0.138046
19.8156	100.4006	132.8675	184.4896	204.0355	212.188	249.8215	298.585	389.3926	476.2599	520.1231	589.001	627.8541	642.2589	669.2911	779.025	810.3393	864.1301	929.1338	984.4828	1029.1733	1045.1912	1080.6859	1124.3134	1130.743	1133.6408	1156.7081	1172.5399	1185.5169	1282.9327	1309.0286	1398.9879	1409.5191	1489.4454	1496.2061	1498.7666	1524.4613	1784.5306	2235.4866	2986.3387	3058.5609	3111.2489	3116.6798	3132.6786	3154.0891	3195.8947	3209.5887	3503.8495
CC(C#C)C(=O)N1CC1	C[C@@H](C#C)C(=O)N1CC1	
InChI=1S/C7H9NO/c1-3-6(2)7(9)8-4-5-8/h1,6H,4-5H2,2H3	InChI=1S/C7H9NO/c1-3-6(2)7(9)8-4-5-8/h1,6H,4-5H2,2H3/t6-/m0/s1
