21
gdb 126578	5.20608	0.65506	0.63412	2.8157	85.62	-0.2298	0.0272	0.2571	1840.1721	0.184192	-383.305763	-383.296353	-383.295409	-383.341814	33.868	
C	-0.1745973763	 1.5667477164	 0.0113436131	-0.382735
C	-0.0232212455	 0.0433140531	 0.0002358434	-0.162791
C	 0.7265820127	-0.4931496703	 1.2233810649	-0.150238
C	 0.8779715678	-2.0276533056	 1.2132077207	-0.331858
C	 1.621812889	-2.5654207951	 2.3953276231	 0.377577
C	 2.9406603277	-2.944477469	 2.5668936283	-0.30083
C	 3.0411586555	-3.3235327918	 3.9223362906	-0.002784
N	 1.8820017996	-3.1975985225	 4.5608678532	-0.231531
N	 1.0409198309	-2.7344290655	 3.6134333398	-0.24465
H	 0.8028135068	 2.0612270856	 0.0303553053	 0.117002
H	-0.7099445275	 1.9210754742	-0.8749119469	 0.113848
H	-0.7309751767	 1.9031794119	 0.8932343749	 0.115101
H	-1.0156519563	-0.4244256509	-0.0514790813	 0.094377
H	 0.5044407893	-0.2671048835	-0.9114374041	 0.097448
H	 1.723714584	-0.0387954301	 1.2779863107	 0.106182
H	 0.2046194038	-0.1856793354	 2.139343722	 0.093353
H	-0.1175853777	-2.4885110471	 1.1576428816	 0.104375
H	 1.4058415109	-2.3333090573	 0.3034843009	 0.117654
H	 3.7123736129	-2.9474875574	 1.8137191897	 0.096801
H	 3.9072638185	-3.6870116062	 4.4561365078	 0.10692
H	 0.0797841606	-2.5663607434	 3.8593904223	 0.266779
25.2153	70.5881	86.8205	115.5377	234.4626	241.0492	315.8864	328.3716	420.7315	523.0536	672.7883	692.2054	732.6971	745.6261	787.6875	803.0496	892.6479	908.5184	926.0825	938.7349	1004.6684	1038.6287	1061.2064	1063.3527	1085.7549	1121.7135	1139.2323	1230.9058	1239.4624	1278.2055	1293.4153	1318.9899	1328.5929	1357.3504	1376.8125	1392.5209	1413.1811	1441.542	1480.7864	1485.5225	1495.5506	1498.9465	1499.3074	1511.5516	1605.671	3010.4526	3014.5998	3022.0106	3030.8745	3036.7961	3057.769	3079.5488	3097.6391	3103.4216	3241.0283	3264.776	3667.3224
CCCCC1=CC=NN1	CCCCc1ccn[nH]1	
InChI=1S/C7H12N2/c1-2-3-4-7-5-6-8-9-7/h5-6H,2-4H2,1H3,(H,8,9)	InChI=1S/C7H12N2/c1-2-3-4-7-5-6-8-9-7/h5-6H,2-4H2,1H3,(H,8,9)
