15
gdb 24271	4.04207	1.6306	1.2691	0.7078	70.75	-0.194	0.0162	0.2102	944.8476	0.115121	-420.615451	-420.609269	-420.608325	-420.645877	25.423	
C	-0.0206907496	 1.4664606074	 0.1137875984	-0.318103
C	 1.2831754289	 0.7295559321	 0.0227166833	 0.087818
O	 2.0271554766	 0.4384098218	 1.2070131329	-0.271632
C	 1.2183315142	-0.3988302738	 1.9254542372	 0.300517
C	 0.0819639379	-0.7481829397	 1.2803116152	 0.255411
O	-0.6731118863	-1.5726600437	 2.0484050253	-0.193235
C	 0.0403746037	-1.7412804974	 3.2053576983	-0.005685
C	 1.212321893	-1.0324191245	 3.1995828767	-0.352981
C	-0.0432952226	-0.0571517884	-0.0096284193	-0.231464
H	-0.3206424106	 1.9015644984	 1.0601435783	 0.130086
H	-0.2928973687	 2.0403737527	-0.7659631076	 0.120432
H	 1.930015214	 0.8552510122	-0.835884981	 0.112477
H	-0.4045681137	-2.4053530528	 3.9273349511	 0.13589
H	 1.9452462338	-0.9991992491	 3.9888597763	 0.122537
H	-0.4260055907	-0.5367453254	-0.9032321552	 0.107932
140.5408	272.4225	373.4672	436.6261	460.1299	605.5847	615.6611	695.3534	701.6708	724.7785	760.2425	777.5964	806.8727	815.6789	916.3922	937.2363	959.3209	1028.3425	1041.6692	1058.8147	1077.6362	1124.3714	1139.9661	1164.387	1185.6148	1244.4638	1300.5086	1358.2001	1405.3931	1460.4291	1499.2212	1503.3843	1653.6985	3133.156	3172.089	3199.6692	3227.4	3265.446	3288.9343
C1C2OC3=C(OC=C3)C12	C1[C@H]2Oc3c(occ3)[C@@H]12	
InChI=1S/C7H6O2/c1-2-8-7-4-3-6(4)9-5(1)7/h1-2,4,6H,3H2	InChI=1S/C7H6O2/c1-2-8-7-4-3-6(4)9-5(1)7/h1-2,4,6H,3H2/t4-,6+/m0/s1
