15
gdb 30577	6.87153	0.64479	0.6145	1.3715	86.08	-0.2132	-0.0223	0.1909	1758.1931	0.112354	-420.616942	-420.608438	-420.607494	-420.651666	29.88	
O	 0.251386972	 0.9168460544	 0.929935113	-0.407695
C	-0.0556540483	 0.1009954232	-0.1948267878	-0.233434
C	-1.4244391892	-0.3815751012	-0.1024587553	 0.277532
C	-2.5562512694	-0.7986571253	-0.0525285621	-0.09905
C	-3.8776061205	-1.2671913953	 0.0019294954	 0.210935
C	-5.0706273013	-0.724241307	-0.3976783536	-0.296344
C	-6.0817339491	-1.6761897065	-0.0774694462	-0.158088
C	-5.4355885074	-2.7300084751	 0.4927990493	-0.027187
O	-4.1034107374	-2.5062069653	 0.5517760517	-0.168663
H	 1.1641274581	 1.2075570267	 0.8317259286	 0.289758
H	 0.0608580906	 0.6608164797	-1.1374791218	 0.120149
H	 0.6202958966	-0.7676539515	-0.2557485222	 0.122421
H	-5.195787105	 0.2410195786	-0.8613802081	 0.117512
H	-7.1431012936	-1.5886871671	-0.2475120062	 0.11654
H	-5.7678262363	-3.6743663882	 0.8921242854	 0.135614
34.6559	79.5092	94.6889	193.7065	224.1498	314.035	390.2916	469.8844	527.4175	602.681	608.472	690.79	760.8986	818.3918	862.7365	899.1524	907.1958	985.0454	1021.1139	1040.3265	1062.1603	1116.1104	1193.7385	1229.4542	1247.1283	1249.1523	1289.3371	1413.9803	1453.262	1495.8804	1515.802	1613.848	2346.4802	2962.3915	2982.083	3255.0428	3269.2148	3283.995	3813.6257
OCC#CC1=CC=CO1	OCC#Cc1ccco1	
InChI=1S/C7H6O2/c8-5-1-3-7-4-2-6-9-7/h2,4,6,8H,5H2	InChI=1S/C7H6O2/c8-5-1-3-7-4-2-6-9-7/h2,4,6,8H,5H2
