16
gdb 43749	4.44324	0.94786	0.87984	2.7003	74.07	-0.2553	-0.0234	0.2319	1284.1812	0.123895	-400.755045	-400.746968	-400.746024	-400.788433	29.904	
O	 0.2135293755	 0.006226913	-0.0962451614	-0.307919
C	 0.1004114111	 1.1903547564	 0.0329290882	 0.4338
C	-1.1326177041	 2.1346192201	 0.0909878396	-0.416873
C	-0.1441526263	 3.3090103678	-0.0397629516	 0.36003
C	-0.3472809973	 4.500389805	-0.9448816838	-0.454299
C	-1.3691987864	 5.417046533	-0.4303534613	 0.267358
N	-2.1794338641	 6.1262927169	-0.0120908167	-0.299531
C	 0.7755561756	 3.2970327408	 1.1263100288	-0.314712
C	 1.0668327955	 2.3374879145	-0.02778218	-0.241344
H	-1.7593746975	 1.9788527952	-0.7926650249	 0.137407
H	-1.7615798026	 2.1136866322	 0.9847912843	 0.134754
H	 0.5904764505	 5.055823822	-1.0597857971	 0.157664
H	-0.6489127709	 4.1750404489	-1.9477788485	 0.159758
H	 1.4844904269	 4.1165733673	 1.1948203996	 0.133012
H	 0.4452999166	 2.9145069629	 2.0876031414	 0.134468
H	 2.0095538975	 2.3732620639	-0.5604597968	 0.11643
54.7637	88.3934	142.4095	287.5912	338.3373	389.6677	393.1542	456.0879	463.6821	553.5864	634.2884	725.3262	783.5121	844.3825	900.2542	918.196	936.9192	961.654	991.9532	996.27	1052.5024	1089.8245	1105.7477	1117.9294	1187.6085	1209.0592	1232.5526	1312.707	1332.5959	1395.0652	1455.4371	1459.3262	1504.3288	1890.4722	2364.8147	3037.5595	3060.0123	3077.8127	3114.7858	3121.4855	3193.9829	3207.5462
O=C1CC2(CC#N)CC12	O=C1C[C@@]2(CC#N)C[C@@H]12	
InChI=1S/C7H7NO/c8-2-1-7-3-5(7)6(9)4-7/h5H,1,3-4H2	InChI=1S/C7H7NO/c8-2-1-7-3-5(7)6(9)4-7/h5H,1,3-4H2/t5-,7+/m0/s1
