17
gdb 72567	2.3834	2.0213	1.5112	2.8046	67.39	-0.2343	-0.0215	0.2128	928.4883	0.136211	-458.994553	-458.987031	-458.986087	-459.02635	29.296	
C	-0.067463497	 1.4899902474	-0.0558147061	-0.49098
C	-0.0167970243	-0.0048825438	 0.0244415582	 0.354655
O	 0.6492349551	-0.586706463	-1.1162856446	-0.304793
C	 0.0934306822	-1.902902134	-1.2548437447	-0.085218
C	-0.7930768702	-1.9977787763	-0.0025387797	 0.026123
C	 0.1008244506	-2.0824376652	 1.2470280365	-0.352197
C	 0.6925198996	-0.6597099304	 1.2332725152	 0.423359
O	 1.5120778779	-0.1775639827	 1.9644626847	-0.323536
O	-1.2789472344	-0.6388156605	 0.0600253164	-0.27648
H	 0.9469935882	 1.8880319531	 0.0155423708	 0.151517
H	-0.5162387422	 1.8012141375	-1.0011481996	 0.136142
H	-0.6544347496	 1.8866731524	 0.7755614305	 0.139031
H	-0.4919512511	-1.9642044687	-2.1787072317	 0.114643
H	 0.8931831082	-2.6502931074	-1.2789886827	 0.11207
H	-1.6297696309	-2.6915531443	-0.0549802351	 0.099682
H	-0.4965966114	-2.2264298813	 2.1517501136	 0.141885
H	 0.8807556393	-2.8468148528	 1.2175710683	 0.134098
121.7512	157.0788	215.8147	270.634	315.6948	369.5282	463.2635	559.718	573.501	626.2452	652.0037	750.9882	800.4203	859.9654	860.6039	874.2076	917.4182	968.4278	980.1536	1035.5139	1054.8708	1077.7077	1120.3389	1144.8218	1193.4961	1198.4957	1250.8264	1310.888	1319.4022	1342.5386	1365.8984	1422.377	1449.2351	1478.0377	1480.1918	1523.6033	1870.8206	3037.2533	3062.7726	3069.8047	3084.6532	3122.6617	3143.2349	3144.7639	3147.8762
CC12OCC(CC1=O)O2	C[C@@]12OC[C@@H](CC1=O)O2	
InChI=1S/C6H8O3/c1-6-5(7)2-4(9-6)3-8-6/h4H,2-3H2,1H3	InChI=1S/C6H8O3/c1-6-5(7)2-4(9-6)3-8-6/h4H,2-3H2,1H3/t4-,6+/m1/s1
