21
gdb 39689	3.8933	0.99959	0.87897	1.6303	77.44	-0.2444	0.0697	0.314	1353.4175	0.184303	-424.203734	-424.195118	-424.194174	-424.238918	31.044	
C	-0.0529390502	 1.3307715063	-0.3374200875	-0.094051
O	 1.3290461372	 1.5181727847	 0.0279716311	-0.272236
C	 1.4622359773	 0.139028546	 0.425604458	-0.094039
C	-0.0156035558	-0.1584197141	 0.0787575383	-0.019175
C	-0.9273791234	-0.5863302434	 1.2254800027	-0.008788
C	-2.4264476649	-0.6011454327	 0.8104861889	-0.26163
C	-2.7614579033	-2.1090808104	 0.6777369336	-0.068682
O	-1.5207519168	-2.8020346842	 0.726709468	-0.242872
C	-0.6949267722	-2.0605582773	 1.6088855633	-0.103026
H	-0.7242096171	 1.967520525	 0.2548302683	 0.096397
H	-0.2251989378	 1.5309439533	-1.4024023275	 0.099138
H	 2.2144566839	-0.3893217314	-0.1732414524	 0.100887
H	 1.7253110422	 0.0415245662	 1.4881471205	 0.094877
H	-0.1371503714	-0.8519629404	-0.7575254333	 0.088957
H	-0.7588707732	 0.0748067383	 2.0824457168	 0.074747
H	-3.0596940901	-0.120584613	 1.5599746989	 0.105422
H	-2.5801260652	-0.0690762068	-0.1326211969	 0.109601
H	-3.4111986295	-2.4345913999	 1.505254861	 0.091165
H	-3.2520418395	-2.3707339494	-0.263197506	 0.109688
H	 0.3358302929	-2.3995970639	 1.4700736377	 0.109007
H	-0.9809783432	-2.2414000629	 2.6587664962	 0.084615
37.8889	52.4873	79.4225	156.963	217.9533	318.7885	338.6536	437.4006	674.3944	719.7681	773.2528	837.0146	850.7261	887.4871	918.0621	938.8044	949.8162	974.6924	984.7979	1023.7736	1025.9998	1046.358	1089.8531	1105.2104	1125.2563	1156.0007	1165.519	1180.5977	1236.1795	1239.6652	1254.9618	1274.1963	1284.8317	1305.0395	1310.2606	1312.2689	1355.737	1377.4095	1401.7512	1408.1345	1496.4644	1506.3092	1511.0224	1524.9142	1537.0304	2961.3834	2979.582	2994.8936	3005.8591	3041.4891	3043.2264	3045.7254	3061.0869	3080.1928	3085.6994	3089.6581	3107.6301
C1OCC1C1CCOC1	C1OCC1[C@H]1CCOC1	
InChI=1S/C7H12O2/c1-2-8-3-6(1)7-4-9-5-7/h6-7H,1-5H2	InChI=1S/C7H12O2/c1-2-8-3-6(1)7-4-9-5-7/h6-7H,1-5H2/t6-/m0/s1
