12
gdb 132941	3.23867	1.42423	0.98922	2.5308	60.96	-0.261	-0.0509	0.2102	1051.6805	0.0785	-513.961887	-513.954899	-513.953955	-513.993652	26.075	
F	 0.0631011728	 0.0349616475	 0.2235498432	-0.062744
C	 0.0093828641	 1.3549615143	 0.0577432486	 0.123493
C	-1.149769204	 2.0061583186	-0.0419542592	-0.031957
O	-1.2248236608	 3.3554484061	-0.2117560773	-0.219614
C	-0.0817346929	 4.1281889027	-0.2902760151	 0.4987
O	-0.1720257583	 5.3109501408	-0.4393898394	-0.355327
N	 1.0993357734	 3.4349360236	-0.1849243	-0.423053
C	 1.2827331116	 2.0606317692	-0.0102943575	 0.313727
N	 2.4591974146	 1.5835219208	 0.0679475277	-0.534555
H	-2.1219052983	 1.5338270656	 0.0017083794	 0.165172
H	 1.9391398251	 3.9953487494	-0.2416344115	 0.287124
H	 2.4187043427	 0.5730955113	 0.1935720111	 0.239035
110.2627	140.3581	302.2381	355.51	377.0394	394.1159	446.5415	550.7355	625.2443	657.239	742.1328	742.8868	756.1587	803.9652	861.842	891.469	900.5346	1118.4442	1193.8991	1254.3803	1295.6574	1343.5402	1417.9217	1473.547	1709.4566	1747.8395	1888.9196	3234.6556	3509.5405	3611.55
FC1=COC(=O)NC1=N	FC1=C(NC(=O)O[CH]1)[NH]	
InChI=1S/C4H3FN2O2/c5-2-1-9-4(8)7-3(2)6/h1H,(H2,6,7,8)	InChI=1S/C4H3FN2O2/c5-2-1-9-4(8)7-3(2)6/h1H,(H2,6,7,8)
