15
gdb 45764	3.02557	1.24331	0.97048	3.3115	72.66	-0.2443	-0.0217	0.2226	1174.8061	0.114278	-413.017734	-413.009702	-413.008758	-413.051833	28.525	
N	-0.0451994397	 1.3068607883	-0.2026490206	-0.549364
C	 0.0507189416	 0.0487285508	-0.0665434661	 0.355964
C	 1.2143087764	-0.9419758071	-0.0208651485	-0.271712
N	 0.6232699212	-2.2766482069	 0.1491923903	-0.251932
C	-0.6374312118	-2.0915918195	 0.1978522858	 0.074235
N	-1.0700552668	-0.7735020057	 0.0790129976	-0.080381
C	-2.4254950002	-0.2729495411	 0.0928202328	-0.300447
C	-3.1182669921	-0.5298089341	 1.3628395638	 0.263433
N	-3.6687598529	-0.7554475731	 2.352687381	-0.294851
H	 0.8687647845	 1.7437079146	-0.2986016061	 0.231543
H	 1.806395297	-0.9008170596	-0.9419666796	 0.14844
H	 1.8933206529	-0.7180279707	 0.8096270468	 0.151464
H	-1.3707412836	-2.8808929044	 0.3271553643	 0.152885
H	-2.3524652887	 0.8071581732	-0.0752159058	 0.204882
H	-3.0180549378	-0.7026524348	-0.7238063357	 0.165841
27.2224	80.5381	159.1643	232.6647	275.8831	369.1965	424.9308	458.4073	532.9164	588.8646	684.7003	754.6833	819.9209	886.6495	921.9404	929.9779	971.3699	978.6564	1004.2571	1014.9022	1169.7962	1195.744	1246.3624	1286.9432	1311.625	1344.9009	1386.3502	1421.1589	1452.1809	1467.8311	1684.9014	1745.054	2366.2376	3035.8901	3045.9371	3079.4333	3088.2921	3200.9377	3515.9324
N=C1CN=CN1CC#N	[NH][C]1CN=CN1CC#N	
InChI=1S/C5H6N4/c6-1-2-9-4-8-3-5(9)7/h4,7H,2-3H2	InChI=1S/C5H6N4/c6-1-2-9-4-8-3-5(9)7/h4,7H,2-3H2
