14
gdb 56080	6.91511	0.54075	0.50466	3.6699	78.27	-0.2894	-0.0588	0.2306	2013.0106	0.098431	-436.703846	-436.694272	-436.693328	-436.740737	31.406	
C	-0.1594655135	 1.4525833989	 0.0112901249	-0.478589
C	 0.0449918706	-0.0396672687	 0.0010763164	 0.443101
O	 1.098798691	-0.6195743119	-0.0122492263	-0.334503
O	-1.151304552	-0.6857296918	 0.0090982519	-0.235915
C	-1.0451067634	-2.1176496142	 0.0002357684	-0.244871
C	-2.384065761	-2.6788454474	 0.0101803242	 0.033061
C	-3.481810313	-3.1797041814	 0.0181098359	 0.121987
C	-4.7263396714	-3.7418572162	 0.0271341465	 0.211446
N	-5.784203508	-4.2210515576	 0.0346747052	-0.328327
H	 0.8096723149	 1.9492295333	 0.0045469013	 0.156507
H	-0.7432382248	 1.7560024389	-0.8621530436	 0.159423
H	-0.7259901627	 1.7462978665	 0.8992893849	 0.159428
H	-0.4926507917	-2.4466285199	-0.8874141707	 0.168625
H	-0.475533585	-2.4562652084	 0.8733268709	 0.168627
22.2728	57.9137	64.1692	138.1691	177.8105	190.9282	259.2232	356.9492	368.864	502.3762	577.9929	589.1867	605.9476	624.1862	747.7759	935.7285	986.0544	1002.5085	1056.0326	1066.7056	1180.313	1242.651	1250.0177	1384.089	1405.2207	1468.2039	1474.3825	1478.1869	1832.2742	2273.5334	2409.1128	3041.6596	3060.2648	3076.0994	3125.9462	3173.5261
CC(=O)OCC#CC#N	CC(=O)OCC#CC#N	
InChI=1S/C6H5NO2/c1-6(8)9-5-3-2-4-7/h5H2,1H3	InChI=1S/C6H5NO2/c1-6(8)9-5-3-2-4-7/h5H2,1H3
