19
gdb 36162	3.56434	1.21879	1.11375	0.5798	85.2	-0.2573	0.0559	0.3132	1156.7016	0.158789	-348.646583	-348.638718	-348.637774	-348.679183	31.292	
C	-0.043433323	-1.2057646932	 0.0720207118	-0.458119
C	-0.0164167442	-0.0054428268	 0.0144365335	 0.309767
C	 0.052570319	 1.4507372337	-0.057559599	-0.494255
C	 1.4779017195	 1.9697023372	-0.0795768328	 0.377221
C	 2.586164653	 1.6918562263	-1.1148264616	-0.304893
C	 3.2416028651	 2.6385172339	-0.0918768174	-0.045085
C	 1.926196933	 3.4668657834	 0.1099108039	-0.09021
C	 1.9925816329	 3.3334923706	 1.6442651045	-0.27009
C	 2.498664553	 1.9758806375	 1.1184153885	-0.064336
H	-0.0811200383	-2.2655047616	 0.1230229493	 0.194661
H	-0.4736892654	 1.7981640452	-0.9570172915	 0.131086
H	-0.4825983302	 1.8876277729	 0.7962961606	 0.13149
H	 2.9679085961	 0.6671734642	-1.1584608068	 0.099322
H	 2.4265827412	 2.0878779386	-2.1238698983	 0.087463
H	 4.2548301778	 3.0416465726	-0.0730889309	 0.070798
H	 1.6011264343	 4.312094859	-0.5003105059	 0.067064
H	 2.7253747497	 3.9634077624	 2.1586793836	 0.09211
H	 1.0428160126	 3.3369919951	 2.189296133	 0.090818
H	 2.8313658237	 1.0965350793	 1.6718632057	 0.075189
59.6	109.543	244.9661	287.58	346.059	396.6996	418.6225	480.5895	617.71	632.0865	673.0358	729.1585	769.9637	839.9639	863.556	874.1375	900.6499	915.5042	933.4569	960.6238	998.6029	1004.7938	1025.2412	1050.5463	1096.5415	1103.0238	1121.3126	1155.965	1159.3585	1186.1226	1211.553	1223.838	1237.7435	1268.2818	1299.425	1317.461	1346.8267	1460.9096	1509.2613	1512.7128	2237.9521	3010.5351	3034.596	3036.4984	3041.9695	3090.2984	3090.6926	3094.9884	3100.9087	3112.2965	3506.4233
C#CCC12CC3C1CC23	C#CC[C@@]12C[C@H]3[C@@H]1C[C@@H]23	
InChI=1S/C9H10/c1-2-3-9-5-6-7(9)4-8(6)9/h1,6-8H,3-5H2	InChI=1S/C9H10/c1-2-3-9-5-6-7(9)4-8(6)9/h1,6-8H,3-5H2/t6-,7-,8+,9+
