19
gdb 84402	3.01648	1.42754	1.13561	2.2887	76.4	-0.2529	0.0108	0.2637	1117.9002	0.159953	-423.021209	-423.013009	-423.012065	-423.053883	32.017	
C	 0.5521391682	 1.5143918229	-0.0055033119	-0.393101
C	-0.0280482596	 0.0871474063	 0.0091566768	-0.080113
C	 0.2580415024	-0.6369150959	-1.2811786256	-0.048406
C	 0.7084774196	-1.885606969	-1.3747275537	-0.106235
C	 1.0174566402	-2.7820118375	-0.2056698593	 0.060195
O	 2.2955779247	-3.3988529002	-0.3557508383	-0.436488
C	 0.9430133963	-2.0637024759	 1.1253332235	-0.001212
O	 1.8719216687	-0.9761119072	 1.2579646285	-0.270049
C	 0.4710102366	-0.6755750415	 1.2195205308	 0.055443
H	 1.6432776926	 1.4771340574	-0.0668538862	 0.137281
H	 0.1764801772	 2.0794571104	-0.8639739521	 0.115379
H	 0.2782730431	 2.0590561354	 0.9037010904	 0.115341
H	-1.1207055726	 0.1722249998	 0.1200537578	 0.090647
H	 0.0744223438	-0.0665002588	-2.1897501091	 0.090858
H	 0.8985568677	-2.3314674942	-2.3476142205	 0.098636
H	 0.3063486561	-3.6189741389	-0.1876247845	 0.0946
H	 2.9424377683	-2.6873684128	-0.2690734839	 0.289653
H	 0.8906609756	-2.7082243001	 2.0022886567	 0.097829
H	 0.0758285313	-0.3323547703	 2.1768480103	 0.089741
68.1136	176.98	229.5219	248.0997	266.8932	347.2364	390.9073	426.9233	457.9752	546.7384	618.3078	657.2892	738.3053	754.8846	819.641	875.7872	899.4613	916.6513	965.1239	1003.5367	1016.7702	1038.9619	1061.6826	1096.1645	1119.2183	1151.2692	1156.9792	1199.9551	1263.7654	1282.1398	1308.4634	1349.7036	1364.396	1368.7729	1400.8036	1415.5582	1436.3322	1468.5702	1495.3782	1504.0171	1727.5355	2981.7905	3021.0067	3038.0854	3096.1318	3106.8021	3119.0737	3121.4582	3139.6067	3169.8557	3782.5767
CC1C=CC(O)C2OC12	C[C@H]1C=C[C@@H](O)[C@H]2O[C@@H]12	
InChI=1S/C7H10O2/c1-4-2-3-5(8)7-6(4)9-7/h2-8H,1H3	InChI=1S/C7H10O2/c1-4-2-3-5(8)7-6(4)9-7/h2-8H,1H3/t4-,5+,6-,7+/m0/s1
