21
gdb 64044	2.44097	1.6659	1.35071	1.4474	82.62	-0.2292	0.0143	0.2435	1060.6628	0.183258	-387.099135	-387.090724	-387.089779	-387.131319	34.383	
C	 0.0702682048	 1.5753219744	-0.0221880469	-0.402582
C	 0.0289773294	 0.0485331023	-0.0335180231	 0.333586
O	-1.3608339445	-0.297053793	 0.0462813902	-0.470607
C	 0.613079152	-0.5097898911	-1.3532842647	-0.296722
C	 0.7786285781	-2.0088012203	-1.32089304	-0.108172
C	 1.0303775432	-2.6703656308	-0.1874831331	-0.05219
C	 1.1757067909	-1.9845875505	 1.1196909468	-0.087355
C	 2.1875959208	-0.8525455494	 1.2497444552	-0.30805
C	 0.7219068757	-0.5367278806	 1.1906812024	-0.033009
H	 1.1027177534	 1.9355599941	-0.0372600648	 0.111771
H	-0.4566533381	 1.9775510267	-0.8926243875	 0.117364
H	-0.4196795311	 1.9584777567	 0.8775387426	 0.118908
H	-1.4075458042	-1.2600211164	 0.0192356415	 0.278035
H	-0.0645405185	-0.2145410107	-2.1611506377	 0.110087
H	 1.5744831774	-0.0247021985	-1.5709146675	 0.107339
H	 0.700653422	-2.5483859427	-2.2604223848	 0.088323
H	 1.1461733136	-3.7508170216	-0.1990529203	 0.088052
H	 1.0296153277	-2.6007116932	 2.0006903337	 0.085102
H	 2.6943698457	-0.7333816167	 2.2012986691	 0.112259
H	 2.8084330123	-0.648414628	 0.3843712144	 0.118285
H	 0.2547041292	-0.2253419507	 2.1203880042	 0.089577
127.3693	192.789	216.5364	271.6921	303.3549	337.7763	366.6434	412.9272	456.4221	479.7518	544.922	563.3006	687.1771	731.0394	786.1057	828.5363	853.5092	877.3588	913.0594	951.2848	962.2203	982.4387	996.4874	1029.7739	1048.0369	1062.1444	1088.701	1108.065	1129.8088	1138.9936	1192.8319	1207.7265	1244.2804	1271.3855	1319.8971	1351.013	1381.4363	1408.8792	1415.4133	1428.1521	1464.7231	1482.3019	1488.1693	1497.3921	1703.2646	3011.2644	3041.3112	3069.3437	3114.2414	3120.4243	3132.2244	3147.1086	3151.8198	3161.7871	3177.2929	3218.9615	3790.207
CC1(O)CC=CC2CC12	C[C@@]1(O)CC=C[C@H]2C[C@@H]12	
InChI=1S/C8H12O/c1-8(9)4-2-3-6-5-7(6)8/h2-3,6-7,9H,4-5H2,1H3	InChI=1S/C8H12O/c1-8(9)4-2-3-6-5-7(6)8/h2-3,6-7,9H,4-5H2,1H3/t6-,7+,8+/m0/s1
