19
gdb 103578	3.30072	1.06289	1.02302	3.7937	78.28	-0.2352	-0.042	0.1932	1243.7823	0.158258	-423.061016	-423.051908	-423.050964	-423.095127	34.086	
C	-0.0547949997	 1.5672740904	 0.0240318764	-0.433691
C	-0.0179932339	 0.0272566399	-0.0116700193	 0.241968
C	-1.4527858996	-0.5289792342	 0.0009224698	-0.108975
O	-2.0866228478	-0.1070807894	 1.1984875162	-0.42483
C	 0.773778354	-0.5243734825	-1.221111176	-0.408755
C	 1.9469453343	-1.3299114105	-0.6351249622	 0.380683
O	 2.7930929629	-1.912682634	-1.2719400126	-0.330307
C	 1.8256461039	-1.2467100755	 0.838175378	-0.205448
C	 0.7588518605	-0.5151547163	 1.1759122262	-0.052895
H	 0.9584057837	 1.9801391159	 0.0364517293	 0.11807
H	-0.5705944591	 1.9570138663	-0.8604106757	 0.115152
H	-0.5876169473	 1.9212220936	 0.9096616127	 0.136807
H	-1.9883126738	-0.1577390126	-0.8877538609	 0.091751
H	-1.4157813257	-1.6275710058	-0.0636514338	 0.091916
H	-2.9835681425	-0.4526070374	 1.2077702192	 0.292821
H	 0.1749816134	-1.1806852385	-1.8619296647	 0.125031
H	 1.1645942424	 0.269966082	-1.8635818106	 0.129703
H	 2.526902688	-1.7294773416	 1.5071226498	 0.114309
H	 0.4308264062	-0.3002610495	 2.1866729283	 0.126692
40.9704	126.0096	189.2974	235.6076	248.6474	250.8809	330.3348	340.1215	373.8795	421.7696	509.4238	598.6879	635.3539	690.7162	807.6935	831.7895	834.09	896.8311	932.2645	958.8311	991.8712	1014.519	1076.6347	1090.516	1107.3522	1161.0719	1182.1021	1205.0045	1242.1816	1264.7589	1288.7346	1301.1065	1363.0482	1399.9376	1446.3713	1455.2795	1490.8717	1502.489	1518.0563	1648.9102	1815.2738	2964.3548	3001.3022	3035.388	3053.7329	3097.2519	3103.2156	3128.5277	3199.6847	3225.9506	3838.474
CC1(CO)CC(=O)C=C1	C[C@@]1(CO)CC(=O)C=C1	
InChI=1S/C7H10O2/c1-7(5-8)3-2-6(9)4-7/h2-3,8H,4-5H2,1H3	InChI=1S/C7H10O2/c1-7(5-8)3-2-6(9)4-7/h2-3,8H,4-5H2,1H3/t7-/m0/s1
