19
gdb 119233	1.88662	1.40398	0.95904	2.3169	74.32	-0.2443	-0.0262	0.2181	1295.1318	0.155702	-460.145376	-460.135499	-460.134554	-460.180508	35.658	
C	 0.2391248257	 1.5363227477	 0.2513804625	-0.390336
C	 0.3158539936	 0.0363463908	 0.0380706558	-0.060138
O	 0.4862583609	-0.5816604503	 1.3213037395	-0.3078
C	 0.6131743955	-1.9609556035	 1.3142656183	 0.26101
C	 1.9853353302	-2.5540808161	 0.9465880566	-0.386249
C	 1.5949386109	-2.4482911748	 2.3850881033	 0.106344
O	 2.1428663937	-1.4858298583	 3.2135416405	-0.422933
C	-0.6006558155	-2.7645184203	 1.0458568584	 0.119276
O	-1.6807880013	-2.310171809	 0.75876168	-0.275737
H	 1.1554855363	 1.9134284761	 0.7154468986	 0.121646
H	 0.1044601533	 2.0443637853	-0.7079978666	 0.123085
H	-0.6055257251	 1.7883310031	 0.8981708707	 0.137746
H	-0.6018884789	-0.3445622295	-0.4211094595	 0.132102
H	 1.1639903586	-0.2281571898	-0.6099574753	 0.092679
H	 2.0128009607	-3.5302714888	 0.473897474	 0.127033
H	 2.7084120091	-1.8357982811	 0.5768171696	 0.135896
H	 1.3462208518	-3.362021691	 2.9174705147	 0.114691
H	 1.8162561125	-0.632358878	 2.8918415271	 0.298556
H	-0.4326822619	-3.8637027724	 1.1338906419	 0.073131
56.8183	110.5723	118.697	147.9132	206.9075	248.3194	261.4455	315.0277	340.7302	403.0222	425.1638	454.1229	551.9955	621.511	767.0548	821.6572	831.945	846.7106	919.747	944.0153	1013.1407	1044.6039	1050.0632	1091.2966	1102.3617	1141.9584	1150.0077	1185.9386	1239.3559	1298.5846	1320.525	1360.5213	1401.3527	1420.3758	1432.4321	1441.7282	1465.0239	1484.5945	1500.9173	1524.4553	1813.0218	2856.6554	3001.9238	3045.4227	3078.6405	3119.4431	3126.4996	3133.2434	3153.5758	3230.2557	3723.966
CCOC1(CC1O)C=O	CCO[C@]1(C[C@H]1O)C=O	
InChI=1S/C6H10O3/c1-2-9-6(4-7)3-5(6)8/h4-5,8H,2-3H2,1H3	InChI=1S/C6H10O3/c1-2-9-6(4-7)3-5(6)8/h4-5,8H,2-3H2,1H3/t5-,6-/m1/s1
