17
gdb 15695	3.45304	1.74979	1.23504	2.169	64.53	-0.215	-0.0274	0.1875	975.9051	0.142404	-400.997031	-400.989026	-400.988082	-401.029837	28.848	
C	 0.0628996854	 1.4484776705	 0.0234485971	-0.247077
O	-0.1478839097	 0.0476194148	 0.1087942519	-0.24062
C	 0.6251263379	-0.6004558646	 1.0821938935	 0.026506
C	 0.1115323144	-2.0223148839	 1.3603281357	-0.21926
N	 1.2741608775	-2.8030611862	 1.8194145003	-0.295777
C	 2.4199262751	-2.3055443356	 1.0469310451	-0.28111
C	 2.0889733464	-0.8612715498	 0.6515646378	 0.371973
O	 2.8113878615	-0.0851073921	 0.0809268656	-0.308402
H	 1.0886543907	 1.6867848696	-0.2734201382	 0.144441
H	-0.6339598111	 1.8238287971	-0.729478383	 0.126587
H	-0.1551437858	 1.9387154671	 0.9854605082	 0.100716
H	 0.6505487146	-0.018314695	 2.022388005	 0.08057
H	-0.6927166087	-2.0585628711	 2.0966537476	 0.114337
H	-0.2701791825	-2.4423584392	 0.4216157516	 0.126976
H	 1.4298553688	-2.6133193518	 2.8039578727	 0.224949
H	 3.3603746087	-2.3699244351	 1.5998439329	 0.133787
H	 2.5477364967	-2.8912733648	 0.1251143761	 0.141406
61.1579	120.6918	185.8051	194.4413	253.7717	308.2303	404.0322	453.2179	562.9056	593.1858	661.3513	722.8644	806.644	910.2158	964.2751	985.1581	1019.9112	1066.1192	1102.675	1118.4339	1164.6385	1182.4901	1192.5667	1235.3699	1268.5195	1285.1695	1305.5937	1333.146	1379.1124	1458.3454	1464.0203	1477.3412	1483.2331	1498.9174	1518.0285	1846.1744	2929.8735	2983.4367	3011.1937	3041.3555	3081.9967	3102.7248	3121.3742	3127.9488	3520.5618
COC1CNCC1=O	CO[C@H]1CNCC1=O	
InChI=1S/C5H9NO2/c1-8-5-3-6-2-4(5)7/h5-6H,2-3H2,1H3	InChI=1S/C5H9NO2/c1-8-5-3-6-2-4(5)7/h5-6H,2-3H2,1H3/t5-/m0/s1
