21
gdb 82740	2.23183	2.10535	1.53282	1.2028	81.6	-0.2552	0.0767	0.3319	976.3599	0.184274	-387.061637	-387.053945	-387.053001	-387.093053	32.1	
C	-0.0552138746	 1.49579199	 0.1045327266	-0.507543
C	 0.0280472783	-0.0104255726	 0.0628546273	 0.316067
C	 0.8703231827	-0.7793750147	-0.9959551269	-0.284204
C	 0.8083456269	-1.9204241383	 0.0290085335	-0.028474
C	-0.6952627043	-2.1405979224	 0.5000408145	-0.102861
C	-0.2577186165	-1.7456656112	 1.9355424223	-0.236558
C	 0.7647509982	-0.8774739395	 1.1885502876	-0.063165
C	-1.2916785175	-0.8124026966	-0.0211658423	 0.126443
O	-2.2977561614	-0.2282687275	 0.7881632962	-0.449719
H	 0.936893536	 1.9441633802	 0.2226531233	 0.106672
H	-0.4918499635	 1.8906061999	-0.8206340278	 0.111915
H	-0.68577756	 1.8271454333	 0.9346034049	 0.133117
H	 0.4480657589	-0.9073077239	-1.9988897783	 0.084565
H	 1.8889594481	-0.3869644315	-1.0764842983	 0.093513
H	 1.4674636241	-2.7881252464	 0.0248126291	 0.06386
H	-1.240257803	-3.0629732813	 0.2916240136	 0.051203
H	-0.9995131953	-1.2779041224	 2.5852825981	 0.100874
H	 0.2384333183	-2.5718697509	 2.4536829241	 0.089117
H	 1.6569644866	-0.444889722	 1.6417120636	 0.059348
H	-1.6458205376	-0.8893228001	-1.0592523308	 0.055474
H	-3.0533237045	-0.8243636319	 0.8047831896	 0.280356
194.5216	211.5487	237.8354	249.0703	306.6663	364.8589	432.1664	467.0342	518.3695	619.7127	690.3458	717.9859	803.0957	828.139	841.8414	855.615	873.8141	937.8031	962.0653	972.7053	1004.405	1005.9893	1018.9236	1050.5796	1068.4501	1089.7818	1128.4802	1145.2514	1184.5372	1194.8122	1202.0276	1213.4906	1244.5418	1256.0349	1264.2307	1279.3185	1295.6435	1309.1983	1367.7713	1411.0617	1430.0557	1489.6302	1491.749	1493.9107	1505.2241	2990.9621	3026.8612	3033.8011	3057.1161	3086.8556	3089.5226	3094.4427	3109.3896	3111.1774	3120.2807	3121.3921	3814.9933
CC12CC3C(CC13)C2O	C[C@@]12C[C@@H]3[C@@H](C[C@H]13)[C@H]2O	
InChI=1S/C8H12O/c1-8-3-5-4(7(8)9)2-6(5)8/h4-7,9H,2-3H2,1H3	InChI=1S/C8H12O/c1-8-3-5-4(7(8)9)2-6(5)8/h4-7,9H,2-3H2,1H3/t4-,5-,6+,7-,8-/m1/s1
