14
gdb 24102	7.50241	0.75594	0.69135	3.5485	68.61	-0.2235	-0.0044	0.2191	1488.8052	0.102453	-432.893168	-432.88532	-432.884376	-432.926695	27.731	
N	 0.0540258501	-1.1614378251	 0.0250139164	-0.285939
C	 0.0672829485	-0.0088342488	-0.0394351556	 0.256941
C	 0.0819985399	 1.4505906652	-0.1483598723	-0.273902
N	 1.39340673	 1.984696681	 0.1673865265	-0.396373
C	 1.5502213936	 3.3567241371	 0.0675231033	 0.319956
C	 0.6313747576	 4.3621113313	 0.0487707225	-0.121836
O	 1.3319560594	 5.549609716	-0.0032557138	-0.141171
C	 2.6203121865	 5.1782310067	-0.0261608644	 0.085097
N	 2.8248851694	 3.9005901737	 0.0116829162	-0.320249
H	-0.2725557708	 1.7300447246	-1.1556882272	 0.149524
H	-0.6484690532	 1.8546705082	 0.5647177236	 0.166437
H	 2.1687401544	 1.4757395862	-0.2348729927	 0.26304
H	-0.4399944266	 4.4349754373	 0.0743295556	 0.141357
H	 3.3573059412	 5.9643895967	-0.0752528479	 0.157119
50.2269	98.8287	109.233	221.2451	331.5122	390.9348	424.8448	502.4645	597.9016	632.9428	648.8578	733.2467	775.5918	852.1147	937.2242	957.6265	1006.5104	1025.7406	1082.1816	1133.5296	1165.4932	1234.9806	1259.6691	1287.932	1347.992	1393.9073	1491.9696	1497.1252	1566.8208	1659.9067	2374.669	2959.0676	3038.1704	3277.3677	3310.1895	3593.6576
N#CCNC1=COC=N1	N#CCNc1cocn1	
InChI=1S/C5H5N3O/c6-1-2-7-5-3-9-4-8-5/h3-4,7H,2H2	InChI=1S/C5H5N3O/c6-1-2-7-5-3-9-4-8-5/h3-4,7H,2H2
