16
gdb 51152	3.10673	1.17082	0.94793	3.8221	70.41	-0.2451	-0.0318	0.2133	1211.4999	0.122294	-437.860749	-437.852264	-437.85132	-437.89532	30.258	
O	 0.4017218601	-0.2408834546	-0.2346314569	-0.23225
C	 0.1493434797	 0.9347550369	-0.2227601064	 0.160891
C	 1.1707978186	 2.0201191958	 0.0926763522	-0.419139
C	 1.225877072	 3.0542089327	-0.9943038317	 0.201993
N	 1.8182246887	 2.7697280091	-2.3511499593	-0.355234
C	 2.3317006786	 3.9036199065	-1.5738182043	-0.122199
C	 1.3839360294	 5.070841001	-1.8842126817	-0.342955
C	 0.2696634129	 4.2074744867	-1.2242435776	 0.405868
O	-0.8381384072	 4.4343123574	-0.8332688816	-0.308078
H	-0.869421466	 1.318337265	-0.4466905078	 0.108033
H	 0.8603759871	 2.5064500153	 1.028080301	 0.141359
H	 2.1446223191	 1.5472467924	 0.254409873	 0.125136
H	 2.4475405962	 1.9768651557	-2.2118097744	 0.243185
H	 3.3596807764	 3.9567615461	-1.2402548259	 0.118504
H	 1.5604197845	 5.9773530453	-1.2988796503	 0.134741
H	 1.2665525698	 5.3160639687	-2.9413071783	 0.140145
38.3292	62.5066	118.8057	179.1046	230.0086	349.8925	429.0002	459.9945	507.0983	556.4968	651.4415	698.6571	761.6793	830.4296	851.1841	906.0035	936.4732	989.857	1017.9751	1037.1731	1050.9047	1083.9184	1101.605	1165.6424	1180.1515	1217.7706	1273.5651	1312.9273	1344.5151	1408.3902	1419.9212	1445.4515	1449.9784	1837.2044	1887.6278	2908.0277	3019.7046	3073.0555	3091.492	3136.0396	3209.5738	3451.2163
O=CCC12NC1CC2=O	O=CC[C@]12N[C@H]1CC2=O	
InChI=1S/C6H7NO2/c8-2-1-6-4(7-6)3-5(6)9/h2,4,7H,1,3H2	InChI=1S/C6H7NO2/c8-2-1-6-4(7-6)3-5(6)9/h2,4,7H,1,3H2/t4-,6-/m0/s1
