18
gdb 113682	2.66769	0.99149	0.89053	2.3526	69.62	-0.2522	0.0138	0.266	1380.4207	0.146186	-476.223893	-476.213998	-476.213054	-476.259715	34.37	
C	 0.414099261	 1.37384752	-1.2991733671	-0.335612
N	 0.4882484548	-0.0338831798	-0.9636592083	-0.302816
C	 0.0239528368	-0.5331088743	 0.210474303	 0.355563
O	-0.4665419511	 0.1240395876	 1.1112407928	-0.377231
C	 0.1355231825	-2.0377923463	 0.3355093659	-0.046177
O	 0.752561552	-2.7684158875	-0.7307526721	-0.275846
C	 1.4085192118	-2.7480373734	 0.5532451771	 0.049544
C	 2.7614762387	-2.0853234205	 0.604863792	-0.098136
O	 3.7620583061	-2.9276118607	 0.0572981825	-0.415453
H	 0.0299764597	 1.8984187869	-0.4233011487	 0.17145
H	 1.4016669454	 1.772763467	-1.5535066503	 0.129003
H	-0.2621140894	 1.5484100236	-2.1435544757	 0.130738
H	 0.8089301972	-0.7062250698	-1.6432357768	 0.258113
H	-0.7667662125	-2.4857946261	 0.7485936076	 0.125341
H	 1.3592732311	-3.7058521549	 1.0722876055	 0.11252
H	 2.7252228633	-1.1100703338	 0.1020362093	 0.100391
H	 3.0417803666	-1.9148797627	 1.6496636365	 0.127581
H	 3.516606686	-3.1065514951	-0.8570812433	 0.291028
61.7702	87.9015	92.0178	104.4939	160.4955	197.0557	253.4397	322.9464	369.2321	432.8488	483.7151	521.4804	597.2611	633.6348	761.4515	820.9865	844.8891	921.8499	953.4745	1045.0348	1071.6396	1086.7661	1133.8706	1145.0616	1154.8444	1176.5695	1227.7303	1258.5955	1285.1293	1349.6769	1377.944	1418.7838	1441.4896	1472.5479	1494.6144	1495.5758	1499.7385	1566.6651	1786.079	3023.2102	3030.6991	3083.0569	3084.5272	3114.6406	3135.8162	3151.7516	3628.6236	3806.8011
CNC(=O)C1OC1CO	CNC(=O)[C@H]1O[C@H]1CO	
InChI=1S/C5H9NO3/c1-6-5(8)4-3(2-7)9-4/h3-4,7H,2H2,1H3,(H,6,8)	InChI=1S/C5H9NO3/c1-6-5(8)4-3(2-7)9-4/h3-4,7H,2H2,1H3,(H,6,8)/t3-,4-/m0/s1
