13
gdb 5042	3.71909	2.25838	1.53667	2.6138	69.81	-0.2495	-0.0888	0.1607	784.0967	0.098058	-357.652066	-357.645825	-357.644881	-357.682524	23.412	
N	-0.0964922709	 1.1632754463	-0.5810378509	-0.496339
C	-0.0293690711	 0.0216706387	-0.0186120069	 0.296328
C	-1.2844540859	-0.6734464606	 0.3339425103	-0.068631
C	-1.4859331961	-1.9938789391	 0.1651300727	-0.089792
C	-0.5064869943	-2.9168283901	-0.3792405761	 0.023847
N	 0.7803390752	-2.8446799317	-0.3638446652	-0.229619
C	 1.4516871252	-1.807764629	 0.2693299473	 0.072393
N	 1.1690561471	-0.5680181928	 0.4122753456	-0.251469
H	 0.8492997506	 1.5246891875	-0.7310460413	 0.225261
H	-2.0972437562	-0.0368048512	 0.6715968088	 0.140491
H	-2.4747985445	-2.4052726029	 0.3496755694	 0.118342
H	-0.9195847934	-3.8118861088	-0.8517736706	 0.127752
H	 2.4171270442	-2.1310591463	 0.6622053268	 0.131435
95.9984	258.6593	305.504	356.9537	440.5697	461.1041	615.0735	621.1265	770.124	787.3813	846.1368	908.1038	922.8592	946.2039	998.8953	1016.7289	1028.0935	1035.1368	1118.2962	1215.1812	1339.3565	1413.5892	1436.4756	1445.1825	1590.0729	1669.8317	1675.7612	1712.4844	3094.8762	3121.5369	3162.9466	3185.3867	3446.8523
N=C1C=CC=NC=N1	[NH][C]1C=CC=NC=N1	
InChI=1S/C5H5N3/c6-5-2-1-3-7-4-8-5/h1-4,6H	InChI=1S/C5H5N3/c6-5-2-1-3-7-4-8-5/h1-4,6H
