16
gdb 72983	2.72535	1.54708	1.2146	6.3684	70.08	-0.2417	0.0187	0.2605	1029.8383	0.124579	-434.01145	-434.003172	-434.002228	-434.043825	32.012	
N	-0.0677796107	 1.5199007568	 0.031321651	-0.588794
C	-0.0492245027	 0.1103623215	-0.0256354375	 0.220794
C	 0.6491736217	-0.8225439399	-1.0362136677	-0.240968
N	-0.4364045711	-1.851173192	-0.8553636163	-0.366343
C	-1.1981945015	-0.8999072651	-0.0266203526	-0.134099
C	-0.3528666567	-0.7323754505	 1.2224548964	 0.269358
O	 0.4820165345	-1.7614979928	 1.6388501014	-0.472119
C	-0.9675453798	-0.0213909099	 2.3195312794	 0.276275
N	-1.4502659931	 0.5323787684	 3.2118948118	-0.345569
H	 0.7501710205	 1.9025042146	 0.4930174938	 0.247192
H	-0.1611445241	 1.9464966464	-0.8834829294	 0.235817
H	 0.6474953972	-0.3874171751	-2.0405643933	 0.111415
H	 1.6514391018	-1.1848244384	-0.7892278182	 0.123118
H	-0.9102129477	-2.0685306394	-1.7242395967	 0.239007
H	-2.2771004635	-0.8093077736	-0.0473864607	 0.123002
H	 0.3381731352	-2.4734395212	 0.9913037786	 0.301914
127.0408	150.8535	214.9058	250.8468	293.4269	328.5012	345.4222	444.95	493.0605	516.677	554.9291	578.1019	681.9777	695.4548	739.0495	780.6906	797.4939	938.8893	967.4601	991.1671	1006.0056	1007.4707	1052.5108	1135.2192	1177.1505	1217.3386	1237.756	1279.9056	1304.933	1349.9781	1422.9617	1447.5993	1496.13	1656.8098	2360.4586	3044.5727	3101.0554	3198.5912	3507.9317	3548.2813	3591.4194	3649.0898
NC12CNC1C2(O)C#N	N[C@]12CN[C@H]1[C@]2(O)C#N	
InChI=1S/C5H7N3O/c6-1-5(9)3-4(5,7)2-8-3/h3,8-9H,2,7H2	InChI=1S/C5H7N3O/c6-1-5(9)3-4(5,7)2-8-3/h3,8-9H,2,7H2/t3-,4-,5-/m1/s1
