15
gdb 57243	2.05781	1.44448	1.22343	2.8735	74.3	-0.2584	-0.0706	0.1879	1106.3615	0.106819	-420.560938	-420.550859	-420.549915	-420.59601	36.145	
C	-0.532927854	 1.7045406991	-0.0690390586	-0.407299
C	 0.0505270234	 0.2939906711	-0.0024946789	 0.074238
O	 0.9092478963	 0.2473849086	 1.1315581938	-0.437371
C	-0.9961627262	-0.7330832299	 0.0714331243	 0.32664
C	-1.823838698	-1.6039343298	 0.1192196757	-0.487303
C	 0.8885635906	-0.0024874121	-1.2843788991	 0.225023
O	 0.7850020252	 0.6322365222	-2.3050454531	-0.284404
C	 1.8250703062	-1.1072328005	-1.1468625448	 0.250255
C	 2.5899716534	-2.0301476892	-1.0330406367	-0.395462
H	 0.283740958	 2.429936309	-0.0810136289	 0.135787
H	-1.1271819154	 1.8260095683	-0.9747168827	 0.146726
H	-1.1571338348	 1.8792159086	 0.8089241554	 0.132798
H	 1.2130933502	-0.6620639518	 1.2399933625	 0.290503
H	-2.5648458226	-2.3639380661	 0.1665726375	 0.209548
H	 3.2722180775	-2.8419725775	-0.9531630563	 0.220321
39.0726	112.7045	144.6879	172.5796	206.4198	233.9343	274.139	316.5942	325.5786	385.0589	443.8917	450.223	576.7773	619.4773	642.862	660.5797	671.6905	681.6649	702.2471	766.0377	859.8218	951.6369	1046.7479	1128.0723	1170.887	1184.8729	1375.4341	1406.6613	1476.8169	1486.6371	1784.4974	2207.4193	2225.9165	3065.696	3145.5573	3163.3249	3490.6383	3498.6538	3792.5089
CC(O)(C#C)C(=O)C#C	C[C@@](O)(C#C)C(=O)C#C	
InChI=1S/C7H6O2/c1-4-6(8)7(3,9)5-2/h1-2,9H,3H3	InChI=1S/C7H6O2/c1-4-6(8)7(3,9)5-2/h1-2,9H,3H3/t7-/m1/s1
