15
gdb 22440	2.7323	1.14107	0.80903	3.4558	75.48	-0.2472	-0.0623	0.1849	1352.3859	0.109734	-453.896115	-453.886216	-453.885272	-453.931728	34.227	
C	-0.0405758006	 1.4143803044	 0.083340006	-0.335299
N	 0.0723628425	-0.0246836914	-0.0264169867	-0.324161
C	 0.5779084632	-0.6336144983	-1.1273838185	 0.382867
O	 0.9830642347	-0.0588919145	-2.1208924508	-0.374857
C	 0.6125191945	-2.1502716807	-1.0484679519	 0.03169
N	 0.1685497347	-2.6935044857	 0.0314647859	-0.179318
O	 0.2347931039	-4.0679329704	 0.0226304237	-0.366641
C	 1.1288036118	-2.8613701022	-2.163797917	 0.389852
C	 1.5634268529	-3.4773132241	-3.1009206269	-0.430515
H	 0.5475659829	 1.7966718453	 0.9252591069	 0.127468
H	 0.3412736248	 1.8465797579	-0.8422325171	 0.171244
H	-1.0835798058	 1.7225212005	 0.2176854645	 0.127468
H	-0.22830017	-0.6205040325	 0.7287882814	 0.255904
H	-0.1280335537	-4.3078337644	 0.8838672107	 0.31538
H	 1.9498879143	-4.0082099937	-3.93594721	 0.208917
48.9679	80.0151	109.858	128.9658	178.3605	237.6392	277.8492	305.809	394.1459	420.493	458.8563	486.7136	550.1866	624.6486	655.1786	658.1199	761.9461	793.7271	830.5883	1006.6065	1072.3081	1153.8042	1178.8696	1196.2785	1286.0087	1399.0955	1441.7691	1495.6968	1499.4271	1570.5741	1666.0004	1782.2389	2231.0419	3026.4559	3077.3711	3153.05	3500.572	3632.1262	3796.2528
CNC(=O)C(=NO)C#C	CNC(=O)C(=NO)C#C	
InChI=1S/C5H6N2O2/c1-3-4(7-9)5(8)6-2/h1,9H,2H3,(H,6,8)	InChI=1S/C5H6N2O2/c1-3-4(7-9)5(8)6-2/h1,9H,2H3,(H,6,8)
