16
gdb 36568	2.70893	0.8646	0.68459	3.4824	81.33	-0.2722	0.0057	0.2779	1572.8999	0.121133	-363.553897	-363.544089	-363.543145	-363.589294	34.796	
C	 0.0023761196	-1.2399105649	 0.046126546	-0.416172
C	-0.0250766876	-0.0393534275	 0.0067429242	 0.27968
C	-0.0221663322	 1.4167075713	-0.0389599451	-0.374971
C	 1.4072926149	 1.9900047061	-0.0196319381	-0.183228
C	 1.429677199	 3.5444520664	-0.0122604201	-0.32973
C	 2.7934384149	 4.0608950744	 0.1054147944	 0.304938
C	 3.9213771965	 4.4549008906	 0.2166009635	-0.3993
C	 0.7638685104	 4.0893070096	-1.2085461956	 0.299809
N	 0.2194637173	 4.4921193763	-2.1442775814	-0.325206
H	 0.0113220418	-2.301267885	 0.0778288086	 0.200024
H	-0.5452966242	 1.7602613899	-0.9398150372	 0.161501
H	-0.5887438512	 1.8118110844	 0.8151371631	 0.134198
H	 1.9349460734	 1.6503084538	 0.8751634303	 0.135662
H	 1.9688877667	 1.6294383592	-0.8850724695	 0.143547
H	 0.8478979093	 3.8888769864	 0.854873284	 0.158233
H	 4.9169850314	 4.8137036992	 0.3101872028	 0.211014
61.7293	91.4032	97.4416	129.8639	189.3283	217.8717	315.4185	346.615	362.5201	443.0323	505.7573	577.6386	600.623	624.543	649.6758	650.2967	669.2275	764.9141	846.7645	953.672	1006.9644	1035.7209	1045.433	1080.1258	1180.8756	1262.39	1301.156	1324.2931	1337.3301	1382.0946	1475.0732	1492.6384	2243.1389	2250.1217	2363.0197	3011.2041	3017.6876	3057.1793	3073.6543	3124.2715	3502.4644	3506.1246
C#CCCC(C#C)C#N	C#CCC[C@@H](C#C)C#N	
InChI=1S/C8H7N/c1-3-5-6-8(4-2)7-9/h1-2,8H,5-6H2	InChI=1S/C8H7N/c1-3-5-6-8(4-2)7-9/h1-2,8H,5-6H2/t8-/m1/s1
