17
gdb 33663	3.12275	1.45601	1.37	1.4864	79.83	-0.2335	0.037	0.2705	1007.1743	0.136954	-384.629875	-384.622692	-384.621748	-384.661279	29.05	
C	-0.0349994356	-1.1911852572	 0.0548492818	-0.371071
C	-0.0281130051	 0.0125670038	 0.0186351954	 0.034099
C	 0.0071287719	 1.4269168107	-0.012068671	 0.294792
C	-0.7300648289	 2.5026673715	 0.8055933488	-0.135729
C	 0.5788483039	 3.2478306383	 1.0674972736	-0.253664
C	 1.2359369431	 2.3914898888	-0.0627025158	 0.014238
O	 1.199278127	 3.042466366	-1.3165171352	-0.260231
C	-0.1814772483	 3.2712360542	-1.6260730513	-0.103695
C	-0.967051329	 2.3666579441	-0.6837925614	-0.135587
H	-0.0440633683	-2.252206672	 0.0834847811	 0.178136
H	-1.5326488327	 2.3409808413	 1.5151018303	 0.101819
H	 0.6037977706	 4.3327323076	 0.9242868231	 0.101977
H	 0.9894283346	 3.0004478029	 2.0499874442	 0.110381
H	 2.2353092816	 1.9938198075	 0.1019766547	 0.098451
H	-0.4308192535	 4.3322833373	-1.489021275	 0.103243
H	-0.3505138111	 3.0113828328	-2.6767355189	 0.113875
H	-1.9262337604	 1.9730399823	-0.9965139744	 0.108965
128.8547	152.8897	234.7227	384.17	400.5336	484.941	519.681	544.4505	569.2922	645.7948	672.6381	729.75	749.2064	828.4182	871.0646	892.9004	932.7719	935.4145	975.522	1008.9705	1028.7562	1067.1323	1082.1824	1110.9275	1142.9911	1159.6032	1180.3818	1221.7138	1229.4075	1275.1905	1302.7629	1337.4977	1376.062	1430.6523	1490.8801	1524.1136	2231.5427	3009.0281	3048.0072	3062.808	3104.5768	3144.9592	3187.0563	3201.8286	3503.7496
C#CC12C3CC1OCC23	C#C[C@@]12[C@H]3C[C@@H]1OC[C@@H]23	
InChI=1S/C8H8O/c1-2-8-5-3-7(8)9-4-6(5)8/h1,5-7H,3-4H2	InChI=1S/C8H8O/c1-2-8-5-3-7(8)9-4-6(5)8/h1,5-7H,3-4H2/t5-,6+,7-,8-/m0/s1
