17
gdb 125415	3.20299	1.40547	0.98875	4.3479	81.25	-0.2214	-0.0305	0.1909	1181.8839	0.13685	-414.220516	-414.21182	-414.210876	-414.254213	31.828	
C	-0.018910246	 1.4817515578	 0.0509020261	-0.486464
C	 0.0022259145	-0.0179158258	-0.0534532447	 0.411987
N	 0.0036298236	-0.6064311634	-1.2041071072	-0.371569
C	 0.0232892131	-2.0082715107	-1.2216803348	 0.26643
N	 0.0272761235	-2.7066229033	-2.296219955	-0.528085
C	 0.0408640403	-2.7035629939	 0.0855839325	 0.335668
C	 0.0619941815	-4.1978584446	 0.1184609131	-0.454905
N	 0.0386339856	-2.0655380504	 1.209308257	-0.25741
N	 0.0191728969	-0.7046148101	 1.1214887057	-0.280177
H	 0.8618452204	 1.8501241157	 0.5881243351	 0.143774
H	-0.0271601792	 1.902854094	-0.9534024802	 0.165353
H	-0.9077294582	 1.8246743403	 0.5917173705	 0.144015
H	 0.0137399476	-2.0713575641	-3.0979084408	 0.214298
H	 0.9367416234	-4.5715711879	-0.4227184071	 0.149517
H	 0.0747167574	-4.5555504845	 1.1491452493	 0.125598
H	-0.8102186533	-4.5959827575	-0.4093061072	 0.149416
H	 0.0176029189	-0.2328712317	 2.0106973677	 0.272554
70.4094	75.9026	167.8891	190.4088	290.0339	319.9757	333.5337	413.7719	493.5206	510.4933	516.9192	566.5737	631.617	728.5616	765.2968	792.157	916.383	943.7605	1020.2095	1042.5348	1058.2972	1060.1935	1114.3277	1166.4	1240.5537	1316.0989	1394.3871	1404.9492	1415.9695	1462.5339	1463.3226	1467.8749	1482.8674	1516.535	1653.8906	1663.4722	1690.669	3040.8021	3048.2501	3098.1996	3105.6237	3148.1276	3167.6536	3449.2804	3650.0506
CC1=NC(=N)C(C)=NN1	C[C@@H]1N=C([NH])C(=NN1)C	
InChI=1S/C5H8N4/c1-3-5(6)7-4(2)9-8-3/h1-2H3,(H2,6,7,9)	InChI=1S/C5H9N4/c1-3-5(6)7-4(2)9-8-3/h4,6,9H,1-2H3/t4-/m1/s1
