23
gdb 108859	2.64616	1.09952	0.86597	1.3522	88.91	-0.2354	0.0219	0.2574	1452.7656	0.205293	-388.315684	-388.305614	-388.30467	-388.351147	37.669	
C	 0.1671563956	 1.5931112064	-0.1528899301	-0.377093
C	-0.0815978598	 0.0873406073	 0.0461228101	-0.280987
C	 0.6226643495	-0.4758198485	 1.2450101557	 0.275325
C	 0.0811983323	-0.9891599084	 2.3516052791	-0.189108
C	 1.1043196244	-1.4285210874	 3.3765431871	-0.009686
C	 0.8020964857	-2.7786900113	 4.0362204431	-0.394242
C	 2.418377182	-1.3989317327	 2.5558858719	-0.253223
C	 2.1417627797	-0.4816854755	 1.3420846681	 0.054086
O	 2.8025990956	-0.8733212443	 0.1431279177	-0.434525
H	 1.2308793374	 1.7979405452	-0.3053529402	 0.131732
H	-0.3723846208	 1.9611385164	-1.030878861	 0.111665
H	-0.1686611976	 2.166160308	 0.7173199347	 0.115309
H	-1.1570695178	-0.10411811	 0.1311970263	 0.096799
H	 0.265668723	-0.438468745	-0.852660613	 0.102765
H	-0.9867450818	-1.0650383196	 2.5384250558	 0.082926
H	 1.157451293	-0.6720478467	 4.1747554776	 0.079135
H	 0.7250548573	-3.5719264539	 3.2841796921	 0.111215
H	 1.5913414531	-3.0587331083	 4.7420894084	 0.113345
H	-0.1432487621	-2.7479379292	 4.5887455557	 0.111776
H	 3.2901419047	-1.0890372775	 3.1377891932	 0.099099
H	 2.6276838467	-2.407077166	 2.1742541105	 0.08856
H	 2.5166418659	 0.5344399982	 1.5224625485	 0.092221
H	 2.5042688039	-1.764965207	-0.0698314514	 0.272905
39.4897	78.0127	124.5	196.6865	219.856	238.553	274.3234	295.9013	352.5037	401.6256	445.1902	486.3594	561.7418	594.7027	645.5597	789.7786	804.6091	858.1621	881.0457	925.9328	943.9358	945.6981	1004.6383	1045.7471	1059.4368	1083.745	1095.6247	1106.8996	1132.5661	1186.7371	1219.3634	1258.0076	1265.2227	1291.3523	1313.1033	1319.8708	1344.967	1353.6886	1372.9541	1403.6079	1408.1309	1426.2898	1475.21	1484.5219	1497.5021	1498.0321	1499.2093	1507.951	1715.2	2978.0667	3017.9549	3021.8444	3024.5241	3027.4458	3037.9594	3063.7848	3093.9234	3096.4914	3098.4221	3107.099	3115.4298	3164.6864	3791.7594
CCC1=CC(C)CC1O	CCC1=C[C@@H](C)C[C@H]1O	
InChI=1S/C8H14O/c1-3-7-4-6(2)5-8(7)9/h4,6,8-9H,3,5H2,1-2H3	InChI=1S/C8H14O/c1-3-7-4-6(2)5-8(7)9/h4,6,8-9H,3,5H2,1-2H3/t6-,8-/m1/s1
