17
gdb 75592	2.44255	1.68696	1.08153	2.6295	72.46	-0.2346	-0.0361	0.1985	1096.84	0.137972	-455.182342	-455.174286	-455.173342	-455.215083	30.71	
N	 0.1436617019	 0.9289330284	 1.0121409055	-0.515773
C	 0.0284032063	-0.2032656592	 0.2352683113	 0.22132
N	-1.1091981187	-0.7583981616	 0.1036462687	-0.307416
C	-1.4478916182	-1.9719773676	-0.5908997198	-0.14738
C	-0.3621485537	-2.7331061893	-1.356930612	-0.236554
C	 0.9040207428	-2.9014709968	-0.5310859656	-0.074744
O	 1.7832751393	-1.774242164	-0.6700778781	-0.220635
C	 1.421441556	-0.5275842881	-0.351796126	 0.376096
O	 2.2130672029	 0.3686209398	-0.5116812288	-0.333417
H	 0.9221699797	 1.5282974376	 0.7838264699	 0.271926
H	-0.7323647411	 1.374846254	 1.2365574411	 0.252865
H	-1.8828892148	-2.6508213458	 0.1586247286	 0.112617
H	-2.277219648	-1.7404522871	-1.2729360571	 0.115408
H	-0.755472212	-3.7182745537	-1.6330357448	 0.109458
H	-0.0949665779	-2.2257216963	-2.2912601555	 0.121379
H	 0.6765382544	-3.0650986128	 0.5291651071	 0.125299
H	 1.5089934812	-3.7386154474	-0.8838682645	 0.129549
72.6899	124.47	223.1206	275.6931	340.863	371.7979	398.0851	432.8365	507.0701	560.6153	567.9092	593.9496	661.304	701.3414	810.5241	835.8592	891.0931	928.6055	995.6625	1056.379	1094.7124	1118.691	1208.5889	1224.4529	1242.0153	1288.3813	1312.9837	1340.8218	1383.5501	1399.4975	1425.5684	1473.177	1483.8285	1509.9397	1593.5411	1747.594	1800.512	2989.7248	3022.4451	3038.0928	3041.042	3080.7127	3116.7416	3575.2773	3700.8151
NC1=NCCCOC1=O	NC1=NCCCOC1=O	
InChI=1S/C5H8N2O2/c6-4-5(8)9-3-1-2-7-4/h1-3H2,(H2,6,7)	InChI=1S/C5H8N2O2/c6-4-5(8)9-3-1-2-7-4/h1-3H2,(H2,6,7)
