21
gdb 115021	2.06464	1.4534	0.96533	0.6336	89.11	-0.2444	0.0172	0.2617	1295.0777	0.181939	-349.937369	-349.928015	-349.92707	-349.971621	35.499	
C	-0.0153217253	 1.6461886442	-0.0371686406	-0.388526
C	-0.0271469147	 0.1142512275	-0.0057801077	-0.194503
C	 0.7424533133	-0.5191495053	-1.1656358383	 0.030035
C	 2.2627172452	-0.2150031814	-1.2066396931	-0.260196
C	 2.843440091	-1.4356968201	-1.8760627047	-0.062933
C	 1.9785031982	-2.4449136844	-1.9232832411	-0.068823
C	 0.6503435418	-2.0858953853	-1.2694911493	-0.242097
C	 0.4924682227	-2.785805069	 0.006383345	 0.361463
C	 0.3737990805	-3.3793404536	 1.0459953129	-0.505799
H	 1.0014920155	 2.0440276396	 0.0465723136	 0.117559
H	-0.4437145957	 2.028583192	-0.9708816183	 0.111443
H	-0.5999802575	 2.0603610687	 0.7900297152	 0.112141
H	 0.3912902351	-0.2432193947	 0.9420697742	 0.109265
H	-1.0650554225	-0.2410483127	-0.0290077199	 0.096401
H	 0.3175030847	-0.1449808267	-2.1058281422	 0.078114
H	 2.4838405604	 0.7135210273	-1.7440028825	 0.104395
H	 2.678663173	-0.0944167371	-0.1951519709	 0.11005
H	 3.8640257556	-1.4750780252	-2.24118804	 0.094769
H	 2.1722110378	-3.4379831332	-2.3109501736	 0.101272
H	-0.200157722	-2.3628510877	-1.9060862676	 0.102292
H	 0.267679733	-3.9019658829	 1.964115519	 0.193678
69.8135	102.2426	128.6319	176.5127	208.4779	249.6102	364.188	374.7794	403.122	477.1652	558.7202	611.6458	632.875	679.5782	732.3547	779.1521	784.3036	809.645	909.0689	948.8781	960.351	973.094	979.2169	1003.0449	1043.6902	1077.6861	1129.094	1135.8524	1152.9907	1188.7091	1246.735	1279.1991	1302.4046	1312.4649	1334.2206	1351.3922	1376.6716	1389.4426	1412.1586	1481.9676	1488.6049	1500.3026	1506.8659	1689.1166	2225.5854	2999.165	3009.198	3024.4174	3027.5973	3029.8504	3060.3955	3067.3733	3097.3311	3103.0894	3184.5705	3213.2737	3504.0848
CCC1CC=CC1C#C	CC[C@H]1CC=C[C@H]1C#C	
InChI=1S/C9H12/c1-3-8-6-5-7-9(8)4-2/h1,5-6,8-9H,4,7H2,2H3	InChI=1S/C9H12/c1-3-8-6-5-7-9(8)4-2/h1,5-6,8-9H,4,7H2,2H3/t8-,9+/m1/s1
