15
gdb 98392	3.16438	1.04657	0.79364	3.6222	64.83	-0.2597	-0.052	0.2077	1347.7816	0.110352	-491.127127	-491.117344	-491.1164	-491.164826	32.309	
N	 0.1630614492	 1.4724877221	-0.0420945409	-0.483365
C	 0.0582054826	 0.0308407757	 0.036676926	-0.29305
C	-1.3891328172	-0.4943367002	-0.037081219	 0.41937
O	-2.3165429798	 0.2725890342	-0.1314781446	-0.32098
N	-1.6162207245	-1.9030312037	 0.0016700502	-0.225274
C	-2.9806311707	-2.3404178236	-0.1106550659	 0.1694
O	-3.3359364722	-3.4798408005	-0.0664255175	-0.245455
C	-0.5485751028	-2.8259730346	 0.141028932	 0.171563
O	-0.6584319026	-4.0166395755	 0.1406656471	-0.243524
H	-0.2645324742	 1.7953704642	-0.9053715614	 0.242583
H	-0.3926661881	 1.8918370096	 0.6979450912	 0.243126
H	 0.644843456	-0.4189212266	-0.7731690231	 0.148714
H	 0.515452971	-0.3118318467	 0.9727943525	 0.14947
H	-3.6423986505	-1.474724112	-0.2397315602	 0.150891
H	 0.4218747536	-2.3195005824	 0.2549404335	 0.116533
7.6539	46.1563	100.6386	139.6945	202.8197	240.2543	251.4351	273.543	338.2406	381.1778	483.7193	526.8586	564.4497	751.1034	889.5087	917.0144	932.0948	945.6503	1019.7005	1049.0112	1156.1891	1182.193	1210.2779	1253.6593	1362.2815	1402.1841	1425.7443	1454.5347	1485.5993	1678.6963	1793.0528	1816.7187	1886.4509	3016.7744	3037.6589	3070.4396	3074.3973	3501.3268	3570.1354
NCC(=O)N(C=O)C=O	NCC(=O)N(C=O)C=O	
InChI=1S/C4H6N2O3/c5-1-4(9)6(2-7)3-8/h2-3H,1,5H2	InChI=1S/C4H6N2O3/c5-1-4(9)6(2-7)3-8/h2-3H,1,5H2
