14
gdb 131662	3.04705	1.25267	0.89266	6.9674	67.79	-0.2648	-0.0791	0.1858	1201.8265	0.100098	-473.819299	-473.811335	-473.810391	-473.852362	28.632	
O	 0.0266702236	 1.428219421	 0.0065977652	-0.406463
C	 0.0146163999	 0.0214719253	 0.0024593929	-0.164137
C	-1.4062028133	-0.4681086268	 0.0121948026	 0.267245
C	-2.4797661014	 0.3456289046	 0.0227584402	-0.334701
C	-3.8233311878	-0.2088102895	 0.0317303303	 0.459798
O	-4.8559063539	 0.4027177567	 0.0413647338	-0.327294
O	-3.9063070475	-1.6087009096	 0.0285434709	-0.260596
N	-2.8105306515	-2.444806649	 0.0177433887	-0.055129
C	-1.6484432684	-1.8891070695	 0.0102263376	-0.014846
H	 0.9395362595	 1.7290980546	-0.0008174644	 0.302471
H	 0.5198659881	-0.3940188728	-0.8866242818	 0.120498
H	 0.5338078726	-0.3993189088	 0.8809647145	 0.120486
H	-2.3910020077	 1.423421039	 0.0249878033	 0.15775
H	-0.8232162822	-2.5963657953	 0.001889506	 0.134919
79.4729	145.5675	167.8094	188.8155	226.465	385.4898	387.632	485.585	552.7681	575.8753	613.2115	720.6143	741.9815	872.7451	899.1502	934.6348	941.0691	1026.9727	1040.7659	1101.8482	1158.8859	1195.6613	1225.5645	1255.1255	1331.5001	1376.068	1464.5638	1502.6738	1610.7793	1696.1089	1847.3821	2953.4506	2972.8664	3172.0726	3240.8293	3845.9118
OCC1=CC(=O)ON=C1	OCc1cc(=O)onc1	
InChI=1S/C5H5NO3/c7-3-4-1-5(8)9-6-2-4/h1-2,7H,3H2	InChI=1S/C5H5NO3/c7-3-4-1-5(8)9-6-2-4/h1-2,7H,3H2
