18
gdb 60505	3.08784	1.13853	0.98082	2.0896	80.66	-0.2239	-0.0639	0.16	1251.9259	0.144675	-401.887935	-401.878341	-401.877397	-401.922917	34.661	
C	 0.7986868616	 1.5386274614	 0.4662822773	-0.392151
C	-0.0945606951	 0.359640279	 0.0387550091	-0.056421
N	 0.0238750306	 0.1630440891	-1.3959080394	-0.079565
C	 1.1501494698	-0.5258624217	-2.01931276	-0.223583
C	-0.2222167323	-1.1149773705	-2.0470145194	-0.22992
C	 0.1914823538	-0.8300652759	 0.9690627703	 0.201841
O	 0.8930088222	-1.776960165	 0.6805249015	-0.303829
C	-0.4467016613	-0.7383300341	 2.27595319	 0.274193
C	-0.9862983862	-0.6382810871	 3.3478609199	-0.395902
H	 1.8539382307	 1.2889857636	 0.3199450512	 0.13232
H	 0.5587046323	 2.4076642479	-0.1504665297	 0.136846
H	 0.6433809776	 1.7929213091	 1.5178524302	 0.129634
H	-1.139170287	 0.6423847397	 0.228517229	 0.102769
H	 1.5517109145	-0.0342605996	-2.9021509205	 0.108152
H	 1.8747619505	-1.0257470632	-1.3869163336	 0.139225
H	-0.3790527703	-1.9991083689	-1.4364626043	 0.12783
H	-0.8275511796	-1.0617138862	-2.9485084424	 0.111123
H	-1.4545736717	-0.5679420877	 4.2998717109	 0.217438
34.9826	106.1321	130.9626	193.8103	223.2898	234.4477	265.9794	289.291	326.6067	456.5309	499.051	607.9038	648.7195	705.241	737.0482	746.8161	783.1366	832.0133	906.9943	962.3469	1030.9797	1043.8386	1048.9161	1099.5641	1116.7623	1134.515	1162.5861	1180.4609	1185.9925	1299.8189	1348.283	1374.2682	1398.2483	1480.4536	1488.1538	1498.0176	1510.0042	1760.3859	2204.8416	3015.286	3047.3648	3107.9191	3112.4859	3123.3251	3134.3529	3196.5469	3217.9837	3492.4814
CC(N1CC1)C(=O)C#C	C[C@@H](N1CC1)C(=O)C#C	
InChI=1S/C7H9NO/c1-3-7(9)6(2)8-4-5-8/h1,6H,4-5H2,2H3	InChI=1S/C7H9NO/c1-3-7(9)6(2)8-4-5-8/h1,6H,4-5H2,2H3/t6-/m1/s1
