20
gdb 91412	2.68092	1.71088	1.26489	3.6982	79.57	-0.2334	0.0344	0.2678	1052.7919	0.173841	-403.184659	-403.17677	-403.175825	-403.216937	30.721	
C	-0.0533654811	 1.4225088949	-0.0292151003	-0.342351
N	 0.012410045	-0.0240177593	 0.0041003007	-0.080327
C	-1.2464766457	-0.7596659723	 0.0499199958	-0.156507
C	-0.9974942019	-2.2665319343	 0.0834523214	-0.033405
C	 0.0931960885	-2.5850186941	 1.1418807678	-0.229943
C	 1.1151285193	-2.1828262296	 0.0387325539	-0.114124
C	 0.0501121266	-2.6398717724	-1.0002911516	-0.230023
C	 1.229999217	-0.6648704035	-0.0018190715	 0.404589
O	 2.2967013014	-0.0784054904	-0.036219506	-0.397872
H	 0.9664430831	 1.8048680425	-0.0653556053	 0.166806
H	-0.6052751577	 1.7701399648	-0.9122340612	 0.116922
H	-0.5581297826	 1.8141310428	 0.8636776266	 0.11695
H	-1.8180857789	-0.4507118718	 0.9385949547	 0.103774
H	-1.8556243315	-0.4960573896	-0.8283140405	 0.103815
H	-1.9453860717	-2.8078958257	 0.1164240878	 0.070109
H	 0.0922564862	-2.0165732676	 2.0758629021	 0.103421
H	 0.1444403101	-3.654117137	 1.3622609764	 0.104167
H	 2.1131422793	-2.617231196	 0.0298391336	 0.086392
H	 0.0935394805	-3.7189246439	-1.1674229691	 0.104159
H	 0.011021954	-2.1200109973	-1.9613520753	 0.103446
121.7442	134.2108	158.9059	261.1719	332.8141	378.3207	380.2199	438.59	507.2477	605.3592	720.8579	750.326	835.3428	854.0503	874.8512	885.9206	944.001	954.626	986.5284	1043.5887	1060.526	1066.9423	1106.961	1115.3006	1142.7321	1164.6255	1190.359	1232.1302	1251.3451	1256.6194	1278.8283	1299.1882	1316.1658	1340.3975	1364.2878	1428.638	1452.976	1480.8695	1496.5309	1503.3659	1514.5628	1541.2274	1777.1267	2978.088	3002.5442	3007.9165	3052.0262	3054.3947	3057.7484	3086.9231	3112.2276	3113.7111	3133.5749	3157.9374
CN1CC2CC(C2)C1=O	CN1C[C@@H]2C[C@@H](C2)C1=O	
InChI=1S/C7H11NO/c1-8-4-5-2-6(3-5)7(8)9/h5-6H,2-4H2,1H3	InChI=1S/C7H11NO/c1-8-4-5-2-6(3-5)7(8)9/h5-6H,2-4H2,1H3/t5-,6+
