20
gdb 110671	3.01471	1.50651	1.3389	1.6197	77.42	-0.2349	0.0732	0.3081	1050.8955	0.173082	-403.109673	-403.101889	-403.100945	-403.142076	30.195	
C	-0.1044586188	 1.4093673956	-0.0591355125	-0.242992
O	 0.1988372297	 0.0454269499	 0.1444640432	-0.24722
C	 0.6864340732	-0.5998464808	-1.0057717996	 0.154449
C	 1.2436459512	-1.9887696015	-0.8049431358	-0.103512
C	 0.1837005098	-3.0259483596	-0.730784094	-0.012571
C	-1.2372376445	-2.6535751666	-0.3296892318	-0.241466
C	-1.6377639577	-1.6153934221	-1.4083386334	-0.205808
C	-0.301148988	-1.2321834049	-2.0353632076	-0.056211
N	 0.5508189555	-2.5015026127	-2.0651313799	-0.153308
H	 0.7782763179	 1.9720474177	-0.4003920214	 0.107857
H	-0.9080504763	 1.5518602451	-0.7968956571	 0.108165
H	-0.4333583713	 1.8163906056	 0.8999063878	 0.129101
H	 1.420003923	 0.0393020364	-1.5175222961	 0.075098
H	 2.2847646989	-2.216395508	-0.5970022061	 0.088923
H	 0.5338260404	-4.0379422327	-0.5504621299	 0.090968
H	-1.887725382	-3.5324388439	-0.3463235392	 0.100977
H	-1.2697718714	-2.227469697	 0.6755154002	 0.122139
H	-2.2862953601	-2.0662254315	-2.165982622	 0.104977
H	-2.1588193662	-0.7517477782	-0.9875176902	 0.107471
H	-0.3653315034	-0.751805031	-3.0115688547	 0.072964
94.9844	132.6212	167.9668	228.1776	263.3933	370.723	491.4865	522.3487	647.2963	706.9874	771.549	774.1477	799.2232	822.2121	853.9724	918.2639	962.284	977.5723	1006.7693	1037.462	1054.3228	1065.6331	1082.443	1092.4736	1154.2151	1163.4266	1182.2272	1186.856	1223.3425	1228.9446	1251.0689	1270.2404	1299.8073	1320.006	1336.5738	1367.5307	1396.488	1417.3556	1473.4673	1481.7411	1488.8233	1499.8842	1508.6376	2976.5925	3002.1401	3024.9334	3052.5811	3064.287	3098.5171	3112.9241	3115.6733	3116.7902	3151.1624	3163.8759
COC1C2C3CCC1N23	CO[C@H]1[C@H]2[C@H]3CC[C@@H]1N23	
InChI=1S/C7H11NO/c1-9-7-5-3-2-4-6(7)8(4)5/h4-7H,2-3H2,1H3	InChI=1S/C7H11NO/c1-9-7-5-3-2-4-6(7)8(4)5/h4-7H,2-3H2,1H3/t4-,5+,6-,7-,8?/m1/s1
