21
gdb 96389	1.97655	1.67654	1.19233	1.3382	83.35	-0.2512	0.0382	0.2894	1155.6247	0.182859	-387.070556	-387.061635	-387.060691	-387.103638	34.904	
C	-0.0647424395	 1.5529512802	-0.0209916806	-0.415685
C	 0.0423454497	 0.0272970218	-0.0206613897	 0.022046
C	 0.6716028889	-0.528901472	-1.3065296744	-0.204866
C	 0.7694882255	-2.0593960658	-1.2398806246	-0.212114
C	 1.4753355332	-2.4885362433	 0.0467638455	-0.072147
O	 0.8465975898	-1.9390129481	 1.2013285813	-0.252748
C	 0.8135088006	-0.5140214761	 1.209780491	-0.061173
C	 2.1625265061	 0.0603276041	 1.3372025527	 0.35384
C	 3.2670427802	 0.523803518	 1.445838329	-0.49851
H	 0.9222196578	 2.0180636794	-0.1040822379	 0.129577
H	-0.6727541936	 1.8935831247	-0.8652981997	 0.113073
H	-0.5328126157	 1.9228828355	 0.897916835	 0.112177
H	-0.9658585143	-0.3978055764	 0.0742493796	 0.080015
H	 0.0815851498	-0.2159113672	-2.1752808297	 0.092476
H	 1.6733525153	-0.0969300819	-1.4314650329	 0.106129
H	-0.2373447267	-2.494881167	-1.2564300047	 0.101013
H	 1.3107885987	-2.457468855	-2.1058800902	 0.093525
H	 1.4356590327	-3.5726938176	 0.1838304238	 0.105381
H	 2.5339234478	-2.1883338072	 0.0180193361	 0.099445
H	 0.2506635689	-0.2584332942	 2.1154192681	 0.109216
H	 4.2416408647	 0.9321194378	 1.5542420122	 0.199329
105.8977	145.9399	180.8521	223.7786	261.2105	292.2414	339.6475	375.723	429.5117	435.4847	555.5027	600.903	626.4653	638.9368	669.2442	782.8529	864.1927	878.7702	889.7942	935.969	962.8242	987.6594	1008.8333	1047.2717	1100.6345	1109.1449	1147.1844	1177.9187	1211.567	1248.7531	1301.7476	1316.598	1327.4609	1346.9384	1374.5947	1379.0471	1394.0515	1410.6305	1414.3603	1478.611	1488.5626	1495.5383	1501.4022	1505.3209	2224.1244	2995.4162	3014.3864	3024.8923	3026.7299	3032.202	3039.9709	3064.5745	3074.9709	3089.9843	3096.8466	3111.2866	3500.67
CC1CCCOC1C#C	C[C@H]1CCCO[C@H]1C#C	
InChI=1S/C8H12O/c1-3-8-7(2)5-4-6-9-8/h1,7-8H,4-6H2,2H3	InChI=1S/C8H12O/c1-3-8-7(2)5-4-6-9-8/h1,7-8H,4-6H2,2H3/t7-,8-/m0/s1
