16
gdb 11782	4.34114	1.75249	1.56772	2.6241	64.37	-0.2563	-0.0382	0.218	840.8916	0.130998	-383.726978	-383.72018	-383.719236	-383.758299	25.831	
O	-0.0877509581	 0.0061203972	 0.1152510756	-0.250989
C	 0.0346275967	 1.1689472334	-0.1766998493	 0.053579
C	 1.3268239001	 1.9183037782	-0.0675835573	 0.332221
C	 1.6470089788	 2.7945693319	 1.1804250463	-0.261965
C	 2.4603470882	 3.5016044409	 0.0757100031	 0.075055
C	 3.5751355516	 2.4917386782	-0.2697533601	-0.22072
C	 2.672070732	 1.2205789949	-0.3683092358	-0.255295
O	 1.4070367122	 3.1338278179	-0.8749909266	-0.332701
H	-0.8210241014	 1.7872596767	-0.5267895137	 0.093043
H	 0.7853109474	 3.3826701435	 1.4973368664	 0.117936
H	 2.1605710433	 2.3323687114	 2.026397997	 0.108673
H	 2.6900586506	 4.5665662766	 0.0921559702	 0.085912
H	 4.0542478125	 2.7405628317	-1.2184358153	 0.114471
H	 4.3436800646	 2.4253733366	 0.5046351132	 0.104486
H	 2.9102372791	 0.4435130866	 0.3598058807	 0.119254
H	 2.6688377824	 0.7762220745	-1.3649201343	 0.117042
62.7384	185.1618	223.4803	316.7252	421.524	464.0912	552.7262	665.2243	735.0599	824.8585	829.3408	844.7882	871.4921	905.8749	950.6377	972.1574	997.2421	1013.2309	1035.6829	1101.2759	1135.6347	1159.169	1203.2465	1224.5277	1230.7259	1279.3655	1289.9072	1310.7902	1329.6822	1406.7642	1480.0058	1482.2076	1507.0056	1824.0848	2897.6003	3069.8534	3074.2757	3086.1366	3118.4587	3129.1486	3138.7296	3150.6436
O=CC12CC(CC1)O2	O=C[C@@]12C[C@@H](CC1)O2	
InChI=1S/C6H8O2/c7-4-6-2-1-5(3-6)8-6/h4-5H,1-3H2	InChI=1S/C6H8O2/c7-4-6-2-1-5(3-6)8-6/h4-5H,1-3H2/t5-,6+/m1/s1
