23
gdb 68683	2.53427	1.72249	1.44228	0.1962	88.92	-0.2313	0.0224	0.2538	1053.9531	0.209239	-351.187569	-351.179828	-351.178884	-351.218908	33.06	
C	 0.0199659686	 1.5424476345	 0.0286079774	-0.465961
C	-0.0230491692	 0.0166654779	-0.0007299338	 0.27955
C	 0.6705821931	-0.6165140541	-1.2315511892	-0.227043
C	 0.0742349665	-2.0388007003	-1.2068027696	-0.056721
C	 0.7628101272	-2.8232863313	-0.0587837036	-0.198798
C	 0.5418156503	-2.1372274962	 1.3082233711	-0.198959
C	 0.653384503	-0.5959618528	 1.2602439188	-0.218024
C	-1.3712181424	-1.7200833654	-0.8432868532	-0.087161
C	-1.4228395314	-0.576133477	-0.1599224649	-0.093522
H	 1.0519432021	 1.9067990873	 0.0883520777	 0.10913
H	-0.4343069022	 1.9668338526	-0.8732929611	 0.110843
H	-0.5204814079	 1.9400947513	 0.8955264704	 0.107893
H	 0.3745836489	-0.0885573199	-2.1444397611	 0.085622
H	 1.7638209769	-0.6030447115	-1.1602984541	 0.079767
H	 0.1844743078	-2.5762203169	-2.1535749986	 0.056675
H	 0.3911668124	-3.8534883145	-0.0126798365	 0.088828
H	 1.8348671576	-2.8879820283	-0.2848862241	 0.0915
H	-0.4574902571	-2.3998373002	 1.6687764679	 0.102227
H	 1.2468457775	-2.5373860869	 2.045085871	 0.086899
H	 1.7084573927	-0.2910338375	 1.2558793733	 0.089928
H	 0.2138975683	-0.1731610273	 2.172220294	 0.086226
H	-2.2037242409	-2.386481186	-1.0402940282	 0.087025
H	-2.3046716519	-0.1394553775	 0.2973026964	 0.084076
215.9041	224.0074	246.4134	284.5398	336.9101	359.4516	395.7519	441.6931	546.5781	578.4647	613.2885	728.3816	762.6133	786.3087	817.1855	861.5008	883.6464	888.1302	908.1141	928.1872	958.8421	976.493	1000.6742	1011.3949	1060.7486	1071.591	1096.5777	1106.4342	1145.8933	1180.462	1210.6299	1234.7589	1244.2492	1282.182	1295.7899	1310.0638	1332.3765	1338.0406	1370.7274	1382.6852	1389.8564	1410.7592	1478.222	1485.6564	1491.3403	1494.5073	1496.9606	1505.562	1661.4257	3010.832	3019.3199	3020.6467	3033.8361	3041.6594	3050.6142	3056.9998	3060.5041	3080.125	3084.5072	3086.1217	3093.1116	3174.0109	3201.2313
CC12CC(CCC1)C=C2	C[C@@]12C[C@@H](CCC1)C=C2	
InChI=1S/C9H14/c1-9-5-2-3-8(7-9)4-6-9/h4,6,8H,2-3,5,7H2,1H3	InChI=1S/C9H14/c1-9-5-2-3-8(7-9)4-6-9/h4,6,8H,2-3,5,7H2,1H3/t8-,9+/m0/s1
