18
gdb 75641	2.08763	1.82284	1.18876	3.4343	73.59	-0.2275	0.0118	0.2393	1087.8364	0.145357	-439.077158	-439.067738	-439.066794	-439.110914	34.413	
C	 0.2943421582	 1.3476073774	 0.043825711	-0.354381
N	-0.2657252363	 0.0115343168	 0.0239608965	-0.130409
C	-0.1407849591	-0.9071049215	-1.0251520502	 0.35054
O	-0.1050817249	-0.7574142413	-2.2158871241	-0.369043
C	-0.0101794579	-2.0652100334	-0.0289961968	 0.187137
O	-0.615872772	-3.2966424023	-0.0707437345	-0.45158
C	 1.1883893744	-1.7437316151	 0.8800375936	-0.396313
C	-0.1286949378	-1.0271050985	 1.0630480301	 0.299033
C	-0.9757110719	-1.0173198925	 2.2967729749	-0.483923
H	 1.3304000754	 1.3601931261	 0.411680666	 0.11764
H	 0.2815615606	 1.7287775128	-0.9801762094	 0.15733
H	-0.3055396052	 2.0132843638	 0.6717638769	 0.12999
H	-0.0718455413	-3.8881235733	-0.6026483305	 0.299835
H	 1.4035859899	-2.5323324818	 1.5969160112	 0.123882
H	 2.061041341	-1.2227437934	 0.4965832199	 0.120742
H	-0.6385789229	-0.2574289754	 3.0103294441	 0.126318
H	-2.0194921946	-0.8104259452	 2.0422605446	 0.136672
H	-0.9268405257	-1.9895849132	 2.7951272867	 0.136531
118.5103	154.2975	162.554	175.73	197.2328	226.8797	235.9277	279.2897	368.0387	393.7199	480.5969	566.7573	633.5342	671.874	707.2033	804.0727	815.849	901.8371	951.4915	964.3913	989.3045	1056.7697	1092.7944	1102.9277	1151.3105	1160.0006	1246.5298	1275.2725	1340.733	1346.1505	1416.1259	1433.6521	1442.0237	1478.9944	1485.0312	1497.1067	1512.0311	1514.5957	1882.8287	3000.9703	3035.6955	3077.8157	3099.4828	3109.5461	3120.0734	3128.0955	3200.2402	3798.4308
CN1C(=O)C2(O)CC12C	CN1C(=O)[C@@]2(O)C[C@@]12C	
InChI=1S/C6H9NO2/c1-5-3-6(5,9)4(8)7(5)2/h9H,3H2,1-2H3	InChI=1S/C6H9NO2/c1-5-3-6(5,9)4(8)7(5)2/h9H,3H2,1-2H3/t5-,6+/m1/s1
