14
gdb 56459	2.01024	1.36504	1.0239	3.4245	67.27	-0.2845	-0.0645	0.22	1176.8776	0.097321	-436.666838	-436.657472	-436.656528	-436.702195	32.674	
O	-0.309100053	 0.4818245458	-0.7928697936	-0.405864
C	 0.4728234562	-0.3689601396	-0.0170200867	-0.078441
C	 1.9191497145	-0.1753511855	-0.2589305407	 0.25954
N	 3.0517531213	-0.0178126825	-0.4244941497	-0.313952
C	 0.1928857198	-0.1363639577	 1.4917093781	 0.383083
O	-0.5706690961	 0.7430736954	 1.797881098	-0.297791
C	 0.9153101864	-0.9984632903	 2.5234367245	-0.452924
C	 1.0363699107	-2.4002965647	 2.1488498637	 0.288422
C	 1.1227586975	-3.5551806977	 1.8307592939	-0.42512
H	-0.7050939743	 1.1133415739	-0.168474729	 0.305222
H	 0.2386315794	-1.4192294817	-0.2398779729	 0.16031
H	 1.9151089016	-0.5590288707	 2.6527779903	 0.189227
H	 0.3868748101	-0.8755629946	 3.4736835879	 0.17158
H	 1.210484106	-4.57797905	 1.5565735762	 0.216709
29.679	76.2095	121.5113	139.1111	247.0367	286.9313	326.3971	365.2222	412.8342	430.2009	512.8324	542.2832	590.4215	640.9854	659.2417	680.1625	808.2999	924.8121	967.5166	987.9444	1106.0662	1159.616	1194.9288	1262.6692	1308.6165	1340.4307	1427.6739	1439.2474	1824.8414	2245.1505	2354.118	3020.2245	3026.4998	3089.4954	3501.6534	3667.986
OC(C#N)C(=O)CC#C	O[C@@H](C#N)C(=O)CC#C	
InChI=1S/C6H5NO2/c1-2-3-5(8)6(9)4-7/h1,6,9H,3H2	InChI=1S/C6H5NO2/c1-2-3-5(8)6(9)4-7/h1,6,9H,3H2/t6-/m0/s1
