23
gdb 63141	2.23018	1.92008	1.52334	1.5512	83.38	-0.2352	0.0749	0.31	1027.2692	0.208123	-388.309561	-388.301334	-388.30039	-388.341498	33.976	
C	-0.0873687458	 1.5357721919	 0.0003945825	-0.464239
C	 0.0151218777	 0.0044111626	 0.0012425334	 0.319326
C	-1.4039733823	-0.5743573799	-0.1065480445	-0.460162
C	 1.03634145	-0.5853948644	-1.0255045977	-0.062674
C	 2.3867281758	 0.0060324271	-0.5523711352	-0.228672
C	 2.238579931	-0.0225174838	 1.0048087055	-0.224438
C	 0.823790386	-0.6052695513	 1.1760587394	 0.089318
O	 0.8872808854	-2.0020369232	 0.839724658	-0.283972
C	 1.0413278364	-2.0607126062	-0.5927781677	-0.088456
H	 0.8767240017	 2.0450483983	 0.0387383326	 0.11667
H	-0.6052319405	 1.8789513973	-0.9022606161	 0.114415
H	-0.6757467575	 1.8776333526	 0.8593118425	 0.114198
H	-1.827357753	-0.3887966303	-1.1002419367	 0.107595
H	-1.429797392	-1.6472970611	 0.0871482725	 0.135871
H	-2.0656898613	-0.0931231098	 0.6220569371	 0.109296
H	 0.8066779068	-0.4304592038	-2.0817119554	 0.059066
H	 3.2286965553	-0.5982069278	-0.9017670081	 0.096485
H	 2.5427809529	 1.0189288676	-0.9308093786	 0.09708
H	 2.9693638392	-0.6754518953	 1.4867732104	 0.105936
H	 2.3339211697	 0.971047658	 1.4520253146	 0.095861
H	 0.3915859864	-0.520929736	 2.1750653314	 0.065418
H	 0.2175974386	-2.6407944872	-1.0263761207	 0.093483
H	 1.9822252295	-2.5661382655	-0.8442529692	 0.092599
161.106	198.8582	208.3508	254.459	284.6021	345.1902	389.4419	417.3867	432.2519	515.1069	609.7445	633.5205	734.3893	801.0053	848.1932	877.589	890.3149	906.1486	952.3644	957.8115	962.2735	970.5583	980.8178	1017.5743	1033.8121	1046.7786	1088.681	1130.3704	1173.6165	1192.1597	1213.4255	1227.177	1236.7999	1262.5876	1269.4417	1299.131	1314.3901	1333.0411	1345.9768	1383.8127	1402.8189	1424.1752	1477.8296	1486.0248	1494.0344	1506.6769	1512.7835	1515.9211	1541.5097	3013.4411	3030.3724	3035.9032	3045.3735	3056.1901	3063.3366	3084.545	3089.2439	3091.7277	3096.3083	3102.7149	3113.7669	3131.073	3139.5517
CC1(C)C2CCC1OC2	CC1(C)[C@H]2CC[C@@H]1OC2	
InChI=1S/C8H14O/c1-8(2)6-3-4-7(8)9-5-6/h6-7H,3-5H2,1-2H3	InChI=1S/C8H14O/c1-8(2)6-3-4-7(8)9-5-6/h6-7H,3-5H2,1-2H3/t6-,7-/m0/s1
