19
gdb 111841	2.66641	1.4578	1.27603	2.9123	76.29	-0.2353	0.005	0.2403	1072.7996	0.160877	-423.002879	-422.994885	-422.993941	-423.035555	31.066	
O	 0.1232006066	 1.0996971272	-0.6659058955	-0.427845
C	-0.0028193727	 0.0492954893	 0.2790302286	-0.083672
C	-1.3868988565	-0.571527309	 0.2558116654	-0.077284
C	-1.8516944251	-1.2522713722	-1.0063576444	 0.064369
O	-0.9065124585	-1.3232233468	-2.0457880949	-0.2699
C	-0.3900068286	-2.626016814	-2.3117466667	-0.120612
C	 0.0528450872	-3.3500698002	-1.0659684174	-0.076274
C	-0.4921296121	-3.0685095262	 0.1168592832	-0.076953
C	-1.6030522995	-2.0893538086	 0.2159230712	-0.128174
H	-0.0137662402	 0.6849763467	-1.5265484441	 0.290943
H	 0.7591914947	-0.7244225989	 0.1183477707	 0.091611
H	 0.1877768452	 0.4943375923	 1.260989591	 0.103871
H	-2.1520934053	-0.01095153	 0.785113257	 0.092985
H	-2.8685732762	-1.0944356628	-1.3594473989	 0.092549
H	-1.1368709005	-3.2262261023	-2.858423587	 0.109562
H	 0.4544987333	-2.4709803474	-2.9906292336	 0.120728
H	 0.8287515809	-4.1018758353	-1.1745583599	 0.099118
H	-0.1628358813	-3.5707343952	 1.0221628445	 0.096792
H	-2.4777726416	-2.4443245864	 0.7545353308	 0.098185
81.4356	136.479	151.592	241.2526	315.2136	368.8612	495.7977	508.1042	541.6198	557.1937	621.3276	728.9657	779.2338	798.7224	839.3181	897.8262	920.7648	951.5491	980.7167	998.5544	1039.3627	1054.0896	1071.2944	1075.2539	1102.4831	1129.3048	1150.1056	1192.1009	1231.0352	1247.9201	1269.8586	1339.0599	1350.7095	1385.7842	1408.5033	1414.165	1427.6974	1440.8004	1491.5985	1504.7375	1709.1363	2965.1387	3017.2012	3073.3389	3074.3087	3119.8897	3136.5305	3153.9691	3159.7765	3183.5513	3783.399
OCC1C2OCC=CC12	OC[C@H]1[C@H]2OCC=C[C@@H]12	
InChI=1S/C7H10O2/c8-4-6-5-2-1-3-9-7(5)6/h1-2,5-8H,3-4H2	InChI=1S/C7H10O2/c8-4-6-5-2-1-3-9-7(5)6/h1-2,5-8H,3-4H2/t5-,6+,7-/m0/s1
