17
gdb 17575	3.41278	2.3965	1.92592	1.5959	66.81	-0.2268	0.0769	0.3036	752.0708	0.144602	-363.804608	-363.798468	-363.797524	-363.8343	26.296	
O	-0.1194680163	 1.3839857458	 0.0653288248	-0.490858
C	 0.0349756068	 0.0018209601	 0.0713186548	 0.414557
C	 0.9221315329	-0.7992774758	-0.960652191	-0.280591
C	 0.7176733576	-1.9262929717	 0.1077196965	-0.0524
C	 0.7887451757	-0.7943004178	 1.1737749788	-0.290002
C	-0.8006904788	-2.1612413041	-0.0492350782	-0.029173
N	-1.6351954232	-1.6485059096	 1.0659335516	-0.341143
C	-1.2904353506	-0.7681383224	-0.0762890067	-0.068436
H	 0.7491369946	 1.7865200475	 0.1644277532	 0.279005
H	 0.518007599	-0.9628355151	-1.9641635969	 0.089019
H	 1.9528859164	-0.4358468864	-1.014188251	 0.085569
H	 1.3726509425	-2.794101315	 0.1574221978	 0.066906
H	 1.8133654659	-0.433521	 1.2957847796	 0.079648
H	 0.3000168922	-0.945804574	 2.1333550103	 0.128183
H	-1.1795475708	-2.9449741395	-0.695049405	 0.089118
H	-2.5871184952	-1.9845462651	 0.9300454627	 0.22796
H	-2.0588861487	-0.3913933069	-0.7407857212	 0.092638
259.6979	305.0346	345.2926	411.472	438.4424	532.9706	592.6426	605.7224	663.1059	783.4196	810.3749	854.1504	875.6607	904.1631	919.9771	931.2354	936.2582	979.1149	1004.0276	1031.7167	1077.6809	1088.0893	1118.7676	1131.6015	1145.8676	1167.4985	1216.1783	1227.0534	1237.8978	1280.0351	1291.4288	1331.2373	1388.9261	1408.4596	1471.9564	1514.6317	3045.4814	3073.395	3108.4082	3130.9177	3165.6051	3175.7459	3188.643	3485.1578	3817.9199
OC12CC(C1)C1NC21	O[C@@]12C[C@@H](C1)[C@H]1N[C@@H]21	
InChI=1S/C6H9NO/c8-6-1-3(2-6)4-5(6)7-4/h3-5,7-8H,1-2H2	InChI=1S/C6H9NO/c8-6-1-3(2-6)4-5(6)7-4/h3-5,7-8H,1-2H2/t3-,4-,5-,6-/m1/s1
