22
gdb 100431	3.17843	0.80862	0.68081	0.7403	86.62	-0.2396	0.0338	0.2734	1713.1321	0.19238	-404.340391	-404.329853	-404.328908	-404.37776	37.212	
C	-0.2001822362	 1.4611555617	-0.0246876574	-0.224624
O	-0.0733432399	 0.0458459985	 0.0945325529	-0.242584
C	-1.2296990356	-0.655807548	 0.1670613669	 0.404696
C	-0.9303392178	-2.1350052485	 0.2791445414	-0.488911
N	-2.3460225938	-0.0591589506	 0.1311127943	-0.292379
C	-3.5881472475	-0.8055183436	 0.2210424343	-0.188671
C	-4.3639812133	-0.430849195	 1.4686646734	 0.048227
C	-5.2101383847	 0.8126890993	 1.490341181	-0.245271
C	-5.8671783765	-0.5466627142	 1.4822835611	-0.273661
H	 0.8201596801	 1.84662269	-0.0592816778	 0.119928
H	-0.7432737538	 1.7296142904	-0.9354804086	 0.129821
H	-0.7413384668	 1.8784915446	 0.8291503945	 0.13205
H	 0.1459157759	-2.2886998252	 0.3560960362	 0.141312
H	-1.4142543517	-2.5673124472	 1.1590316442	 0.142861
H	-1.2996358663	-2.67367773	-0.598646466	 0.144828
H	-4.1996876757	-0.5493017536	-0.6553242028	 0.09507
H	-3.4491774099	-1.8974517368	 0.195597316	 0.083749
H	-3.8532016074	-0.6778704947	 2.3959840979	 0.076981
H	-5.2475357147	 1.3978025298	 2.4025064357	 0.107506
H	-5.2546422489	 1.4049053735	 0.582284022	 0.113705
H	-6.3592113488	-0.8669377832	 0.5691854808	 0.107482
H	-6.3508321169	-0.893875527	 2.3886279201	 0.107886
24.2493	65.2874	78.5256	102.8226	173.1801	195.2709	228.9066	262.1672	311.7363	381.1519	462.1322	476.907	582.7891	634.2399	771.5448	805.0384	809.0252	849.7113	916.0549	945.7711	978.5141	1025.1317	1055.781	1058.9214	1076.3155	1079.2313	1109.7537	1135.4854	1177.7823	1181.0209	1196.6961	1219.9512	1228.9532	1279.9415	1298.7382	1360.7414	1398.9836	1414.0346	1467.8563	1470.2734	1474.0667	1482.7072	1487.3832	1499.9059	1501.9614	1511.7583	1747.9336	2980.2491	3020.7487	3041.8563	3054.8311	3111.9424	3115.4905	3128.1654	3132.7661	3138.0827	3143.2261	3154.6012	3205.6959	3221.2341
COC(C)=NCC1CC1	COC(=NCC1CC1)C	
InChI=1S/C7H13NO/c1-6(9-2)8-5-7-3-4-7/h7H,3-5H2,1-2H3	InChI=1S/C7H13NO/c1-6(9-2)8-5-7-3-4-7/h7H,3-5H2,1-2H3
