21
gdb 95162	2.74534	1.41037	1.06894	2.4451	78.64	-0.252	0.0853	0.3373	1201.4412	0.182133	-424.228486	-424.219741	-424.218797	-424.261438	34.069	
C	 0.0437103489	 1.5485478711	 0.089904386	-0.403509
C	-0.0044000113	 0.0290937096	 0.0387849696	 0.137283
C	 0.5992753701	-0.5438946685	-1.2527553484	-0.27575
C	 0.845594237	-2.0468116458	-1.1628489113	 0.390467
C	 0.5619602753	-2.8618495654	-2.4025052792	-0.471796
O	 2.0624830771	-2.4033020825	-0.4778782497	-0.286623
C	 0.8215543499	-2.6704130041	 0.1723364691	-0.014928
C	 0.5124856984	-1.8335251239	 1.3937664644	-0.118892
O	 0.697490046	-0.4526698244	 1.1783038795	-0.25087
H	 1.0819455116	 1.8934026804	 0.0642122493	 0.128803
H	-0.4875265556	 1.9809332569	-0.7635638256	 0.112949
H	-0.4168935565	 1.9153779528	 1.0108538899	 0.122342
H	-1.0560399136	-0.3045210927	 0.107171872	 0.058623
H	-0.0722400434	-0.3249369568	-2.0905858328	 0.096029
H	 1.5555413857	-0.0511271246	-1.4637929296	 0.116618
H	 1.1421291685	-2.4815625722	-3.2509540325	 0.126947
H	 0.8322238444	-3.9091837246	-2.2457004268	 0.126796
H	-0.4983544356	-2.8083697185	-2.6724237737	 0.11868
H	 0.5635234248	-3.7279487903	 0.2619844432	 0.0825
H	-0.525728548	-2.0485025815	 1.7061729906	 0.086018
H	 1.1761512162	-2.109097405	 2.2203789359	 0.118312
96.6721	177.3143	213.8395	227.3248	246.4133	295.7526	348.5894	370.512	410.1683	442.2402	487.989	534.9781	685.3251	742.8522	822.3854	831.0358	902.3625	906.4899	918.8394	972.1484	992.5181	1034.411	1067.6373	1087.7117	1133.1873	1141.8251	1164.5644	1174.0938	1223.8844	1264.4905	1293.3019	1319.0649	1337.0713	1382.6294	1390.4694	1407.4242	1412.0475	1416.856	1461.9746	1472.1024	1483.3264	1484.3509	1488.5073	1500.1802	1503.8963	2932.3203	2946.5745	3029.8895	3035.0513	3042.8489	3069.877	3078.7956	3087.2155	3094.0182	3115.8897	3121.1988	3122.4895
CC1CC2(C)OC2CO1	C[C@H]1C[C@@]2(C)O[C@H]2CO1	
InChI=1S/C7H12O2/c1-5-3-7(2)6(9-7)4-8-5/h5-6H,3-4H2,1-2H3	InChI=1S/C7H12O2/c1-5-3-7(2)6(9-7)4-8-5/h5-6H,3-4H2,1-2H3/t5-,6-,7+/m0/s1
