21
gdb 89124	4.83846	0.53309	0.51734	3.3824	81.04	-0.2454	-0.0169	0.2285	2107.6948	0.179986	-424.217515	-424.207196	-424.206252	-424.254592	36.382	
O	-0.0909145923	 1.4880894558	 0.2164030184	-0.416994
C	-0.0052130993	 0.0990400955	 0.0721742385	 0.088986
C	-0.6002092661	-0.7976095345	 1.1297287308	-0.326069
C	-1.283701093	-0.6328900715	-0.2172860072	-0.018041
C	-2.5987428186	 0.1101480528	-0.3224879849	-0.200552
C	-3.8058221952	-0.7627172001	 0.0445072256	-0.186925
C	-5.1408153083	-0.0054645801	-0.0697865727	-0.272172
C	-6.323269824	-0.9080100143	 0.1905134056	 0.159684
O	-7.1640009454	-0.7279411892	 1.0334547744	-0.238836
H	 0.5107861081	 1.750500378	 0.9204810215	 0.289016
H	 0.894851509	-0.2475891855	-0.4358809515	 0.085875
H	-0.1077410782	-1.7340393523	 1.3684439483	 0.110798
H	-1.0652672297	-0.2996215705	 1.9751411784	 0.11343
H	-1.1881230805	-1.475536896	-0.8982906603	 0.084934
H	-2.5656275666	 0.9942980948	 0.3218318839	 0.113955
H	-2.7230948419	 0.4868121102	-1.3468547823	 0.09818
H	-3.8320848555	-1.6467246744	-0.6073173238	 0.098099
H	-3.6867687047	-1.1399551186	 1.0675157423	 0.112807
H	-5.1855106873	 0.8400165253	 0.6231596074	 0.120819
H	-5.2421045104	 0.3870141973	-1.092614715	 0.116411
H	-6.3664799702	-1.8035119126	-0.4754275473	 0.066596
40.2922	54.3267	86.6512	108.0931	122.6661	206.4431	263.3987	300.3763	351.4144	372.2439	464.1054	523.5688	580.4754	743.6815	764.8527	801.5137	840.1249	879.7583	905.4012	975.0737	977.5139	1011.6726	1043.9182	1045.8071	1084.6297	1105.6723	1136.7884	1165.9776	1177.9671	1214.1386	1238.9532	1250.3826	1286.2734	1302.7668	1318.7547	1335.296	1380.5037	1406.4523	1426.8259	1430.9714	1463.8717	1482.8631	1491.7184	1504.2714	1836.2434	2841.6805	3008.1462	3014.2469	3020.0214	3055.6126	3083.4857	3094.7974	3097.7347	3126.0556	3133.2479	3214.9195	3810.0269
OC1CC1CCCC=O	O[C@H]1C[C@H]1CCCC=O	
InChI=1S/C7H12O2/c8-4-2-1-3-6-5-7(6)9/h4,6-7,9H,1-3,5H2	InChI=1S/C7H12O2/c8-4-2-1-3-6-5-7(6)9/h4,6-7,9H,1-3,5H2/t6-,7+/m1/s1
