20
gdb 89898	4.65368	0.99951	0.96691	2.2775	78.72	-0.2278	0.0712	0.299	1273.7422	0.171399	-403.082373	-403.074279	-403.073335	-403.115022	32.075	
O	-0.0390963693	 1.463591143	 0.002294562	-0.431531
C	 0.0400684401	 0.0583674901	 0.0269603809	 0.147224
C	 0.3283310902	-0.6604544973	 1.3749590745	-0.342629
C	-0.8017961255	-1.6651011823	 1.0227690428	 0.368135
C	-1.3321534362	-0.6416904223	-0.0136726215	-0.314151
C	-0.5037716295	-3.1052863988	 0.5223520159	-0.239082
N	-1.5134578664	-3.7118538537	 1.4617243136	-0.125487
C	-1.0410334073	-3.3635655557	 2.8126761031	-0.242631
C	-1.7319346677	-2.3174331668	 2.0324496226	-0.109989
H	 0.8546582335	 1.8192672764	 0.0364119829	 0.281826
H	 0.7011451634	-0.3175421031	-0.7673939696	 0.067666
H	 1.3321046669	-1.0575932804	 1.5502240903	 0.090515
H	 0.0402339285	-0.0160865895	 2.2116850979	 0.10668
H	-2.0872693797	 0.0159305125	 0.4290638714	 0.112982
H	-1.6992426373	-1.0163389301	-0.972401607	 0.102623
H	-0.8029981271	-3.2813944715	-0.5139466605	 0.110952
H	 0.5135649938	-3.4859233806	 0.6724135414	 0.097481
H	-1.6039036292	-3.8588055438	 3.5981993649	 0.120208
H	 0.0292697511	-3.2893560023	 2.9979478878	 0.107944
H	-2.7233720022	-1.9552510538	 2.2906697367	 0.091265
77.6103	122.7974	236.6076	270.1976	328.8704	337.2802	395.4647	452.2904	478.6659	521.2775	694.8501	745.8473	781.5681	824.4782	850.2106	872.2256	901.5936	944.2246	968.7004	981.4008	1006.2071	1048.447	1059.8911	1078.0071	1106.8271	1111.5644	1158.946	1162.5312	1193.5367	1205.7795	1220.8337	1237.7483	1241.4887	1268.4931	1288.9681	1291.6461	1328.2616	1377.1603	1429.2141	1464.2261	1485.6252	1495.4714	1505.3668	2990.9481	3029.3322	3045.5148	3053.1643	3096.2278	3096.923	3105.2585	3110.0955	3147.0822	3192.6171	3815.6965
OC1CC2(C1)CN1CC21	O[C@H]1C[C@@]2(C1)CN1C[C@@H]21	
InChI=1S/C7H11NO/c9-5-1-7(2-5)4-8-3-6(7)8/h5-6,9H,1-4H2	InChI=1S/C7H11NO/c9-5-1-7(2-5)4-8-3-6(7)8/h5-6,9H,1-4H2/t5-,6-,7+,8?/m0/s1
