23
gdb 96498	2.2074	1.48388	1.07564	2.7254	85.12	-0.2334	-0.0108	0.2226	1241.3994	0.207497	-388.333319	-388.324085	-388.32314	-388.367271	35.293	
C	-0.0660355029	 1.6423356307	 0.0386430884	-0.403278
C	-0.0405463086	 0.1106200404	 0.0418635841	-0.064797
C	 0.5194680444	-0.4356516059	-1.2985130459	-0.185252
C	 1.0084492128	-1.8980608681	-1.3040193734	-0.208884
C	 0.1762482409	-2.9054194853	-0.4848935625	-0.190433
C	 0.5790618434	-2.9728554835	 0.9982156849	-0.1945
C	 0.2697586853	-1.7201548949	 1.8491051314	-0.289662
C	 0.7763072437	-0.4277634882	 1.220663231	 0.388883
O	 1.7758201235	 0.1301074698	 1.615715459	-0.324257
H	 0.9553134344	 2.0308752429	 0.0568822283	 0.139524
H	-0.5711683412	 2.0193432382	-0.8562506563	 0.107442
H	-0.5892816651	 2.0361994261	 0.9154408183	 0.112748
H	-1.0631263421	-0.2682523015	 0.1521044451	 0.07435
H	-0.2659861355	-0.3077933696	-2.0529330308	 0.099599
H	 1.3515688706	 0.2066066901	-1.6093774385	 0.110011
H	 1.0559834728	-2.228996263	-2.3472955623	 0.094933
H	 2.041619826	-1.93338136	-0.9350184806	 0.108539
H	-0.8965201445	-2.6907356176	-0.5828891384	 0.093318
H	 0.3214445092	-3.9049700181	-0.9100056478	 0.09832
H	 0.0840739912	-3.8278925831	 1.4720095267	 0.100722
H	 1.6569133313	-3.1710745445	 1.0523099561	 0.112133
H	-0.8157439867	-1.6399174965	 1.9868663157	 0.105099
H	 0.7348578672	-1.8239046884	 2.8330351475	 0.115441
80.2909	91.7557	151.7373	217.0243	262.7841	274.0293	288.9682	323.1132	395.7278	466.429	492.4377	583.3338	685.489	759.1936	783.7545	799.7122	846.1961	871.7781	941.2983	950.4403	971.1162	1015.5064	1044.932	1062.6044	1066.3871	1106.828	1135.2736	1168.5867	1188.9687	1216.5668	1251.0754	1277.4539	1288.9406	1331.5332	1348.059	1352.7476	1372.5913	1383.9276	1391.7516	1394.1444	1406.8314	1477.5869	1481.7738	1488.681	1493.5639	1494.3212	1500.9393	1502.4827	1805.1541	3016.3982	3022.0041	3025.2476	3025.7813	3027.2148	3037.0057	3040.4966	3056.9167	3064.7936	3069.6525	3076.1534	3101.536	3104.9078	3126.5836
CC1CCCCCC1=O	C[C@H]1CCCCCC1=O	
InChI=1S/C8H14O/c1-7-5-3-2-4-6-8(7)9/h7H,2-6H2,1H3	InChI=1S/C8H14O/c1-7-5-3-2-4-6-8(7)9/h7H,2-6H2,1H3/t7-/m0/s1
