20
gdb 87006	6.07311	0.61412	0.59814	2.2613	78.	-0.2212	-0.0303	0.1909	1865.5665	0.167948	-440.249736	-440.239847	-440.238902	-440.286127	34.265	
C	 0.1675271656	 1.4962549575	 0.2527880377	-0.316505
N	 0.0316806909	 0.0582844929	 0.2020583146	-0.068926
C	-1.2905556779	-0.5380285258	 0.4752562828	-0.204415
C	-0.5745334191	-1.7001842772	 1.1848053151	 0.134897
C	 0.6526449682	-0.7499155714	 1.2684633294	-0.198993
O	-1.1912433899	-2.1094917901	 2.3753253159	-0.252967
C	-0.5030399621	-3.1321599991	 3.0518044375	-0.155845
C	-1.3288459166	-3.5377154039	 4.2606813422	 0.139578
O	-0.9693133371	-4.3490887185	 5.0708950836	-0.236743
H	 1.2172777409	 1.7747717525	 0.1117543055	 0.122055
H	-0.4117229745	 1.9520001898	-0.5573431736	 0.122489
H	-0.1781567407	 1.932384652	 1.2095999506	 0.091466
H	-1.8916951113	 0.0308817723	 1.2034286499	 0.095974
H	-1.8985711142	-0.7550607856	-0.4085358125	 0.105247
H	-0.3912853108	-2.5604395918	 0.526846699	 0.081769
H	 1.649431071	-1.1384321407	 1.0350795174	 0.102477
H	 0.6742446991	-0.2453743004	 2.249635081	 0.088205
H	-0.3559422619	-4.0200458815	 2.4129232595	 0.124224
H	 0.4944196266	-2.8124897044	 3.3937147008	 0.127845
H	-2.3078789362	-3.0138480866	 4.3254262236	 0.098169
42.1709	62.3875	88.2577	94.8958	161.8483	224.4823	297.4553	315.0982	334.8153	387.487	474.0965	565.0124	639.7279	742.6824	801.0096	891.7143	969.8058	989.7478	1018.0705	1046.7347	1073.2359	1108.5725	1115.3413	1125.2022	1160.6665	1178.1392	1218.6219	1219.031	1237.5484	1245.1553	1277.1675	1300.1136	1331.4557	1348.2134	1395.7087	1420.8601	1450.578	1483.0337	1485.5571	1497.1152	1499.46	1527.3486	1846.1126	2900.5529	2924.567	2959.0418	2964.3073	2976.9774	3000.2708	3013.6313	3056.2768	3063.5457	3071.369	3098.5178
CN1CC(C1)OCC=O	CN1CC(C1)OCC=O	
InChI=1S/C6H11NO2/c1-7-4-6(5-7)9-3-2-8/h2,6H,3-5H2,1H3	InChI=1S/C6H11NO2/c1-7-4-6(5-7)9-3-2-8/h2,6H,3-5H2,1H3
