18
gdb 37743	3.29345	1.97517	1.49226	1.7224	73.8	-0.2158	0.0666	0.2824	893.8716	0.149791	-401.832152	-401.825861	-401.824917	-401.86241	26.954	
C	 0.026071885	 1.4854795268	 0.0932991415	-0.210454
C	 1.4417760382	 2.1290526179	-0.0096707376	-0.15862
N	 2.360544807	 1.536472506	-1.0247832791	-0.150886
C	 1.5804699972	 0.7666514606	-2.0628421686	-0.106996
C	 2.562440283	-0.4273666919	-2.1080812842	 0.026025
O	 1.5226193844	-1.4439236261	-1.8284065436	-0.388702
C	 1.1379081571	-0.3045240878	-1.0118156409	 0.500917
C	 0.0058799596	-0.067854056	-0.0735579991	-0.357141
C	 2.5958101314	 0.0991838296	-0.6568839038	-0.085427
H	-0.4396617076	 1.7789694471	 1.0388308692	 0.10363
H	-0.596797472	 1.9075413531	-0.7026157327	 0.11279
H	 1.3220541264	 3.1936389245	-0.23663084	 0.106845
H	 1.9615155498	 2.0719163483	 0.9547767838	 0.104851
H	 1.0145885126	 1.2267277628	-2.873375346	 0.087003
H	 3.3558706945	-0.6865332722	-2.8062786839	 0.102529
H	 0.1650487459	-0.5897810392	 0.8761956807	 0.112083
H	-0.9576334296	-0.3941796992	-0.4780832761	 0.117172
H	 3.2122216672	-0.2158091845	 0.1865036904	 0.08438
199.9192	251.4221	360.3371	394.887	475.3271	538.573	586.8699	690.3305	764.5329	777.4002	784.2521	819.5925	828.8169	855.5999	896.2492	907.865	925.9081	930.3092	994.3001	1022.0247	1039.4912	1080.8097	1089.3254	1122.6263	1151.0994	1159.9806	1175.1975	1212.8075	1224.7407	1245.1001	1272.4742	1288.2709	1337.4985	1358.6195	1371.3322	1410.1802	1482.6489	1492.5847	1504.0019	3029.461	3040.0817	3043.5159	3070.2639	3080.5535	3095.8266	3107.6397	3114.69	3145.4434
C1CN2C3C4OC3(C1)C24	C1CN2[C@H]3[C@@H]4O[C@@]3(C1)[C@H]24	
InChI=1S/C7H9NO/c1-2-7-5-4(9-7)6(7)8(5)3-1/h4-6H,1-3H2	InChI=1S/C7H9NO/c1-2-7-5-4(9-7)6(7)8(5)3-1/h4-6H,1-3H2/t4-,5-,6+,7+
