21
gdb 92444	2.50151	1.56173	1.38663	2.1159	76.9	-0.24	0.0762	0.3162	1060.1963	0.184501	-424.238408	-424.230256	-424.229311	-424.270625	32.584	
C	-0.1168833407	 1.5107386217	 0.036043903	-0.437342
C	 0.0502473883	-0.0049750734	 0.003417482	 0.030306
C	 1.0455488719	-0.5950589537	-1.0322539954	-0.054278
C	 2.3779468359	-0.0942674718	-0.4558277325	-0.077707
O	 2.1822122684	-0.1670626047	 0.9695844473	-0.287001
C	 0.834862022	-0.6225272436	 1.171751135	 0.095571
C	 0.8087992638	-2.1264696222	 0.8442689947	 0.115285
O	-0.428864499	-2.6627454772	 1.2889298891	-0.441674
C	 0.9582844939	-2.1068938112	-0.7151953589	-0.265112
H	 0.8227848551	 2.0196197122	 0.2661177494	 0.132034
H	-0.4837362635	 1.8879154572	-0.924616851	 0.11064
H	-0.8434129879	 1.8003423347	 0.8023078036	 0.117808
H	-0.9259468088	-0.4907628284	-0.0869158425	 0.085938
H	 0.881772808	-0.3322465916	-2.0786361926	 0.063583
H	 3.2270223617	-0.7261742298	-0.7447253673	 0.094412
H	 2.6073357822	 0.9395440887	-0.7433562158	 0.095011
H	 0.5290928524	-0.3747024217	 2.188376652	 0.076781
H	 1.65338428	-2.627454977	 1.3339160253	 0.071404
H	-0.4666069591	-3.5875752837	 1.0262306437	 0.283136
H	 0.0670063343	-2.5534631157	-1.1668846224	 0.095408
H	 1.8345271409	-2.6596870488	-1.0670450065	 0.095798
133.3146	181.6328	234.1445	246.9332	255.1826	306.2155	337.3808	424.8999	487.8122	536.4783	646.2299	743.9176	758.2609	843.1201	854.9591	900.8267	918.8068	944.2665	959.9587	974.6544	998.2318	1026.0769	1050.7536	1077.0517	1094.1277	1105.4392	1122.9196	1171.8678	1188.3019	1197.3041	1244.382	1252.3181	1261.965	1304.8285	1311.9376	1326.123	1346.9803	1379.255	1401.4788	1411.1115	1417.2291	1482.2794	1496.0736	1503.8168	1536.4054	3013.2872	3021.0292	3036.624	3045.6712	3048.0168	3067.6575	3095.3179	3096.0348	3103.284	3120.1307	3122.9582	3819.4264
CC1C2COC1C(O)C2	C[C@H]1[C@H]2CO[C@@H]1[C@@H](O)C2	
InChI=1S/C7H12O2/c1-4-5-2-6(8)7(4)9-3-5/h4-8H,2-3H2,1H3	InChI=1S/C7H12O2/c1-4-5-2-6(8)7(4)9-3-5/h4-8H,2-3H2,1H3/t4-,5+,6-,7-/m0/s1
