21
gdb 82836	2.65815	1.58013	1.52104	1.8242	81.69	-0.2331	0.0807	0.3138	1036.7126	0.182981	-387.054382	-387.046289	-387.045345	-387.086428	32.4	
C	-0.18896793	 1.5537816053	 0.1003065896	-0.420774
C	 0.0737576757	 0.0605611857	-0.0069749948	 0.027133
C	 0.7674948798	-0.5500315103	-1.2630857251	-0.132736
C	 2.0967961596	 0.153718498	-1.6471167659	-0.246029
C	 2.7786452167	-0.5051189249	-0.4295598064	 0.058975
O	 2.4166688557	 0.1486932135	 0.8081856652	-0.307238
C	 1.1699078463	-0.5807791638	 0.8798350717	 0.034809
C	 1.5882542137	-1.5077442298	-0.3013465442	 0.337824
C	 1.6378913653	-3.0062437256	-0.3260709953	-0.541579
H	 0.7489597221	 2.1146131539	 0.0765655649	 0.131016
H	-0.8241248903	 1.9066044385	-0.719747129	 0.110167
H	-0.6948427095	 1.7958623402	 1.0417349657	 0.112245
H	-0.8523427831	-0.5052516291	 0.1613045601	 0.068945
H	 0.1244502645	-0.8974737825	-2.0730159272	 0.061627
H	 2.4952825015	-0.2646468243	-2.5780213914	 0.0983
H	 2.1239507108	 1.2449799794	-1.7070434375	 0.101548
H	 3.8426847128	-0.7525891248	-0.4643443546	 0.07127
H	 0.9343575258	-0.883150737	 1.9039342311	 0.066845
H	 0.6426690764	-3.4400540256	-0.1743993249	 0.121202
H	 2.0142247646	-3.3765561836	-1.2867668516	 0.120657
H	 2.2942751117	-3.3940622334	 0.4614182295	 0.125792
149.4547	200.9077	217.2205	219.5435	239.1555	267.3325	409.4925	445.6379	516.8721	611.9391	640.7034	705.6249	778.6199	834.3559	851.244	876.8064	886.8928	936.6531	946.586	963.8431	998.7849	1026.2542	1071.2516	1103.7618	1116.0965	1129.1613	1154.5158	1163.5277	1168.958	1184.1231	1189.3829	1242.7655	1280.0921	1289.2259	1325.2572	1342.5522	1359.9098	1373.5068	1405.9696	1413.9613	1472.5352	1489.0239	1489.9903	1490.0597	1508.6354	3017.3239	3019.6714	3031.7694	3042.2756	3068.162	3076.0842	3083.5657	3086.3189	3090.7121	3094.2422	3101.5557	3119.5521
CC1C2CC3OC1C23C	C[C@H]1[C@H]2C[C@H]3O[C@@H]1[C@@]23C	
InChI=1S/C8H12O/c1-4-5-3-6-8(5,2)7(4)9-6/h4-7H,3H2,1-2H3	InChI=1S/C8H12O/c1-4-5-3-6-8(5,2)7(4)9-6/h4-7H,3H2,1-2H3/t4-,5+,6+,7-,8-/m0/s1
