15
gdb 128755	7.02614	0.75357	0.68711	3.5117	75.31	-0.2284	-0.0233	0.2051	1563.6873	0.113741	-450.12137	-450.112904	-450.11196	-450.156238	28.618	
C	 0.005582549	 1.3761032874	 0.0467589841	-0.252345
O	-0.1686336944	-0.0338484594	-0.0744608115	-0.186277
C	 0.5367163052	-0.6266262096	-1.0441506611	 0.131824
N	 0.4875889684	-1.8866106166	-1.1741430159	-0.335163
C	 1.1802440464	-2.476374885	-2.2199532543	 0.367856
N	 1.626625913	-1.8483460184	-3.3196068088	-0.292277
N	 2.2034850568	-2.8260485764	-4.0077383892	-0.071923
N	 2.1695814916	-4.0380938875	-3.4716568024	-0.195181
C	 1.5176699376	-3.8412064915	-2.3272543389	-0.120777
H	 1.0262222263	 1.6237051323	 0.3599359292	 0.134841
H	-0.2217434227	 1.8879925463	-0.8952480505	 0.135163
H	-0.695954061	 1.7052100575	 0.813505548	 0.151161
H	 1.122974822	 0.0454332443	-1.6822898344	 0.112949
H	 2.6120985781	-2.6623631856	-4.9133133457	 0.291424
H	 1.3216740136	-4.6468409778	-1.6392328487	 0.128725
33.6	66.7312	115.0313	158.5607	180.9567	324.7172	401.9458	414.8313	489.5786	538.6455	717.3419	749.5589	816.9487	885.7655	987.7477	1006.5897	1029.3573	1067.4077	1150.3412	1171.805	1176.8407	1211.6014	1247.0587	1289.6456	1357.1962	1380.0344	1406.5171	1477.174	1494.2993	1499.1257	1512.0536	1559.1467	1739.1104	3021.2985	3056.8747	3089.7337	3151.3284	3281.0216	3668.8931
COC=NC1=NNN=C1	COC=Nc1n[nH]nc1	
InChI=1S/C4H6N4O/c1-9-3-5-4-2-6-8-7-4/h2-3H,1H3,(H,6,7,8)	InChI=1S/C4H6N4O/c1-9-3-5-4-2-6-8-7-4/h2-3H,1H3,(H,6,7,8)
