20
gdb 70444	2.94963	1.21862	1.01411	3.172	79.35	-0.225	0.0731	0.2981	1236.952	0.170799	-403.082658	-403.0741	-403.073156	-403.116082	32.646	
C	 0.1005038962	 1.4250561625	-0.3759856207	-0.510368
C	 0.1507105945	-0.0329673701	-0.0399153679	 0.330319
N	-0.8859681829	-0.6803503853	 0.807268182	-0.371796
C	 0.5470946726	-0.7618527208	 1.1978879823	-0.102495
C	 1.1299399733	-1.9272031972	 0.3970873743	-0.243891
C	 0.7265559777	-1.1654450787	-0.9212547155	-0.057325
C	-0.2139321505	-1.8399183991	-1.8781954023	 0.08198
C	-0.1958234474	-1.559103982	-3.3206312735	-0.18785
O	 0.3751411408	-2.7614664153	-2.807070615	-0.241597
H	 1.0619085185	 1.7726560143	-0.769624327	 0.125334
H	-0.6645980427	 1.6338322316	-1.1331983569	 0.129599
H	-0.1350325439	 2.0246622396	 0.5104753813	 0.118033
H	-1.3064760833	 0.0598285352	 1.3697948519	 0.222053
H	 0.8753381298	-0.376050933	 2.1559016687	 0.090623
H	 2.2115767026	-2.0358650285	 0.4958618877	 0.105026
H	 0.6469950924	-2.8930883363	 0.5643242267	 0.112078
H	 1.6191807304	-0.8319327472	-1.458645563	 0.07455
H	-1.1466960087	-2.1865925397	-1.4362747165	 0.108697
H	-1.1041089889	-1.6839505946	-3.9092313288	 0.112012
H	 0.5163898295	-0.8371248753	-3.7205691478	 0.10502
68.8976	129.1112	150.2767	212.266	275.0856	280.8736	342.6564	433.1295	450.5219	523.3884	646.8276	699.2633	804.6126	849.6917	857.1612	903.1513	918.079	925.8248	941.8124	978.0771	1018.6841	1032.1887	1073.9984	1098.4157	1101.985	1113.1847	1151.5427	1158.1944	1182.6225	1199.963	1216.9052	1239.7384	1285.0075	1292.0045	1307.8191	1348.4906	1407.7504	1435.0263	1457.4739	1480.4052	1483.5864	1498.8087	1528.8177	3021.2743	3064.1336	3069.4642	3074.7606	3083.4906	3093.0113	3126.2971	3132.2552	3160.1284	3182.7222	3461.3013
CC12NC1CC2C1CO1	C[C@]12N[C@H]1C[C@H]2[C@H]1CO1	
InChI=1S/C7H11NO/c1-7-4(5-3-9-5)2-6(7)8-7/h4-6,8H,2-3H2,1H3	InChI=1S/C7H11NO/c1-7-4(5-3-9-5)2-6(7)8-7/h4-6,8H,2-3H2,1H3/t4-,5+,6-,7+/m0/s1
