16
gdb 127331	4.3001	1.12009	0.89515	3.7079	74.92	-0.2258	-0.0129	0.2129	1260.5244	0.126626	-430.281844	-430.273444	-430.2725	-430.315362	30.487	
C	-0.0466890891	 1.3722387771	 0.0497604351	-0.319995
N	-0.0541105444	-0.0751251846	 0.0006407441	 0.062109
C	-0.1325286575	-0.8962741679	-1.0667753211	-0.001161
N	-0.1101606708	-2.154015786	-0.6746056389	-0.338382
C	-0.0131744946	-2.0477971119	 0.6855284196	 0.380732
N	 0.0227627457	-0.80007219	 1.1355987623	-0.296301
C	 0.0537056289	-3.2483969059	 1.5553860583	 0.246955
N	-0.180198418	-4.4127020046	 0.8532881493	-0.550521
N	 0.2749209321	-3.1150268848	 2.8078796546	-0.50681
H	 0.8772327854	 1.7249041626	 0.5136350973	 0.162646
H	-0.1147526356	 1.7586721529	-0.9685532402	 0.143824
H	-0.8974243185	 1.7301439971	 0.6340629424	 0.162495
H	-0.2020725571	-0.5372837841	-2.0827125976	 0.146561
H	-0.1074440053	-4.3518215589	-0.1514759394	 0.266242
H	 0.1214600365	-5.2759899707	 1.2745142551	 0.244285
H	 0.2866254323	-4.0266930905	 3.2704475892	 0.197321
66.4139	93.8392	152.4278	187.9116	271.434	347.3785	398.8785	415.1249	496.4539	539.8307	630.4252	640.381	656.9264	738.6639	814.2274	847.4078	865.1234	1013.7473	1047.1178	1076.0995	1114.9998	1135.5198	1154.0268	1223.9875	1312.7672	1337.7518	1371.9451	1447.6654	1457.2897	1472.9364	1504.5339	1527.7372	1557.0025	1626.0149	1721.8509	3058.1745	3132.136	3150.3668	3254.8354	3446.3096	3574.3284	3700.3228
CN1C=NC(=N1)C(N)=N	Cn1cnc(n1)C(=N)N	
InChI=1S/C4H7N5/c1-9-2-7-4(8-9)3(5)6/h2H,1H3,(H3,5,6)	InChI=1S/C4H7N5/c1-9-2-7-4(8-9)3(5)6/h2H,1H3,(H3,5,6)
