19
gdb 10823	4.42808	1.47768	1.1787	3.2934	73.22	-0.2532	0.023	0.2762	1042.3081	0.167251	-365.092711	-365.084902	-365.083958	-365.124786	29.722	
C	-0.1260663914	 1.5462995015	 0.0316816527	-0.408313
C	 0.005016922	 0.0221061099	-0.0179816226	 0.014661
C	 0.7280837939	-0.474514733	-1.2747241067	-0.213078
C	 0.8371718786	-2.0033890456	-1.2417705572	-0.274674
C	 1.3825495816	-2.5360350144	 0.0629548971	 0.379523
N	 2.1032649143	-3.5763465708	 0.1014889621	-0.500924
O	 0.968982397	-1.913480247	 1.2096700094	-0.257411
C	 0.7632210345	-0.4932536838	 1.2033287665	-0.069443
H	 0.8581965441	 2.0285837238	 0.0198298601	 0.119395
H	-0.6867279184	 1.9161026683	-0.8322984021	 0.120812
H	-0.6491543816	 1.8757872987	 0.9356445063	 0.117343
H	-1.0006425523	-0.4212438393	-0.0010097355	 0.08222
H	 0.2010629669	-0.1539941944	-2.1796959667	 0.100015
H	 1.7299442356	-0.0252278838	-1.3165805737	 0.102552
H	-0.166481555	-2.4326522945	-1.3673861704	 0.124363
H	 1.4556356283	-2.3967206371	-2.0499132771	 0.130203
H	 2.3357512011	-3.7973547933	 1.0727612264	 0.21569
H	 1.7436752042	 0.0034138643	 1.2652192042	 0.101871
H	 0.2222061765	-0.2803860595	 2.129427057	 0.115194
81.3494	168.1819	214.5802	223.8845	284.603	398.0105	413.8758	431.9364	495.5094	559.9263	697.3496	774.1802	811.0815	888.7544	915.692	929.0263	964.5927	978.4078	1012.132	1044.1215	1106.6298	1126.7349	1134.8809	1171.9258	1216.0735	1243.2646	1298.7449	1310.4283	1328.3011	1349.3056	1375.5835	1391.4351	1412.2497	1433.2798	1472.5631	1492.6649	1496.9972	1502.0597	1511.4466	1747.4408	2989.6606	3007.6025	3016.9	3024.6484	3030.4543	3070.3304	3088.3578	3097.0622	3104.5777	3121.4894	3454.2587
CC1CCC(=N)OC1	C[C@H]1CC[C]([NH])OC1	
InChI=1S/C6H11NO/c1-5-2-3-6(7)8-4-5/h5,7H,2-4H2,1H3	InChI=1S/C6H11NO/c1-5-2-3-6(7)8-4-5/h5,7H,2-4H2,1H3/t5-/m0/s1
