17
gdb 126219	1.86232	1.72289	1.00147	2.7212	70.97	-0.2623	-0.0409	0.2215	1187.4124	0.134955	-455.125177	-455.116166	-455.115222	-455.160017	31.831	
C	-0.1412460827	 1.5750301688	-0.0016758805	-0.383699
C	 0.1024397835	 0.0552628225	 0.0306652784	-0.298212
C	 0.6875165015	-0.4618996162	-1.2434320304	 0.183738
C	 0.1004283047	-0.7707825452	-2.4365567831	 0.290005
C	-1.3120188985	-0.7025610582	-2.9276399408	-0.179367
O	-1.7598060038	 0.6323871657	-3.1263713602	-0.398266
O	 1.0566391486	-1.147374347	-3.2932972486	-0.210328
N	 2.2914962505	-1.0707307294	-2.585864385	-0.020121
N	 2.039146001	-0.6718173906	-1.4185093418	-0.169963
H	 0.7976029314	 2.1155373032	-0.1553699987	 0.128805
H	-0.8220160926	 1.830647223	-0.8185315847	 0.13802
H	-0.5812521733	 1.9157639195	 0.9401311956	 0.116936
H	 0.7821387557	-0.2030360802	 0.8481512617	 0.129483
H	-0.8445460577	-0.4603430912	 0.2287555774	 0.112576
H	-1.4047515364	-1.3075911429	-3.8387405074	 0.127112
H	-1.9814863601	-1.1262015158	-2.1734215078	 0.138362
H	-1.2134062021	 1.030212564	-3.8129961339	 0.29492
46.1989	61.3467	154.8742	159.8947	204.2033	272.6245	336.336	359.8302	400.4963	479.9348	632.6119	667.7992	691.8361	731.7843	789.9362	800.8433	953.4742	972.4989	1013.6985	1050.3671	1062.4293	1088.1459	1174.0737	1202.2472	1257.9287	1300.0885	1346.4633	1370.0795	1406.5427	1410.508	1423.9506	1445.9197	1479.2048	1493.227	1499.7095	1513.21	1640.4932	3027.6561	3038.9822	3041.842	3088.5335	3094.1902	3115.5445	3126.0824	3810.6705
CCC1=C(CO)ON=N1	CCc1c(CO)onn1	
InChI=1S/C5H8N2O2/c1-2-4-5(3-8)9-7-6-4/h8H,2-3H2,1H3	InChI=1S/C5H8N2O2/c1-2-4-5(3-8)9-7-6-4/h8H,2-3H2,1H3
