14
gdb 48097	3.66745	1.03824	0.89007	2.8038	63.96	-0.2583	-0.1126	0.1457	1235.6177	0.098765	-473.85351	-473.844958	-473.844014	-473.888107	29.484	
O	-1.0013962771	 1.5234459498	-0.0409435404	-0.213258
C	 0.0940034706	 1.0736388394	-0.2521560022	 0.086421
C	 1.3611959484	 1.9375751683	-0.277706435	 0.277074
O	 2.4216970958	 1.418146492	-0.5321924066	-0.271169
C	 1.1818279798	 3.4100373991	 0.0172105386	-0.067035
C	 1.072070752	 3.7741690934	 1.5384538354	-0.393163
C	 2.42680729	 4.4977057606	 1.3243997794	 0.431855
O	 3.209499734	 5.0794953112	 2.0188880683	-0.336348
N	 2.4056340907	 4.2007708237	-0.0244828516	-0.31518
H	 0.293868013	 0.0000881719	-0.4504685626	 0.119047
H	 0.3576999207	 3.8046811961	-0.5861560124	 0.123885
H	 0.2292823422	 4.4128193492	 1.8022111077	 0.151316
H	 1.1300610209	 2.9319855964	 2.2303153383	 0.143632
H	 3.160138139	 4.1763221088	-0.695339907	 0.262922
41.9618	70.4316	125.5017	151.7411	232.5742	297.6811	373.1703	472.8852	512.9242	556.0921	562.7704	627.2409	749.6884	771.835	916.3971	965.3593	986.4113	1030.2006	1046.1333	1102.7353	1164.5335	1184.6694	1192.7921	1256.8436	1358.5151	1362.5497	1386.7235	1457.9053	1806.8158	1820.3816	1910.273	2932.9662	3059.5218	3094.3366	3157.9892	3612.4312
O=CC(=O)C1CC(=O)N1	O=CC(=O)[C@H]1CC(=O)N1	
InChI=1S/C5H5NO3/c7-2-4(8)3-1-5(9)6-3/h2-3H,1H2,(H,6,9)	InChI=1S/C5H5NO3/c7-2-4(8)3-1-5(9)6-3/h2-3H,1H2,(H,6,9)/t3-/m1/s1
