21
gdb 92598	2.16186	1.67751	1.4969	1.2767	77.13	-0.248	0.0763	0.3243	1053.7062	0.182535	-424.228651	-424.219997	-424.219053	-424.261599	33.477	
C	-0.6357202556	 1.3515101633	 0.07272829	-0.40425
C	 0.0542100683	 0.0034068343	-0.0729333758	-0.017126
C	 1.4071530938	-0.0619012411	-0.8477160619	-0.289741
C	 2.0509110356	-0.8319599925	 0.3415018347	 0.056782
O	 3.0923182374	-0.1840574309	 1.0451433787	-0.253328
C	 2.465276815	 0.8275831332	 1.7982277543	 0.004549
O	 1.1800007334	 0.3625147712	 2.1549290987	-0.295251
C	 0.7626847707	-0.6043390192	 1.1885181664	 0.378242
C	 0.0854774753	-1.7508334356	 1.908803388	-0.460197
H	 0.0339715316	 2.096912435	 0.5112727053	 0.121623
H	-0.9682282363	 1.7237849021	-0.9022666167	 0.112037
H	-1.5145888266	 1.2802986298	 0.7222196321	 0.118204
H	-0.6538385426	-0.728816992	-0.475585556	 0.068016
H	 1.3912370516	-0.5981898161	-1.7989778083	 0.101435
H	 1.8726145777	 0.9142352662	-1.0114788429	 0.105939
H	 2.3620422319	-1.8583385219	 0.1413000321	 0.085733
H	 3.0499092715	 1.0091393133	 2.7055092334	 0.11828
H	 2.3884579479	 1.7606537779	 1.2124812652	 0.083404
H	-0.8116382065	-1.4006543098	 2.4301317218	 0.127065
H	-0.2140519026	-2.5314187699	 1.2027845297	 0.112785
H	 0.7607203986	-2.1880432071	 2.6503836212	 0.1258
84.2922	193.4295	201.2634	216.0276	222.971	253.9737	312.9514	386.3713	438.6784	507.9122	611.8788	619.1747	734.8606	770.6371	823.6303	883.487	891.6247	912.5658	927.0216	992.0245	1017.4191	1022.4745	1080.0752	1116.6423	1124.6364	1168.7302	1174.5543	1183.4887	1186.6506	1208.6954	1232.7811	1234.9848	1268.4193	1324.7914	1343.252	1369.4033	1407.5	1412.793	1432.0227	1478.6813	1483.746	1490.6754	1492.1322	1495.99	1549.2386	2942.5924	3033.4231	3034.9574	3044.9026	3060.7919	3075.9989	3096.8086	3099.3325	3106.1635	3110.6405	3114.0806	3119.2192
CC1CC2OCOC12C	C[C@H]1C[C@H]2OCO[C@@]12C	
InChI=1S/C7H12O2/c1-5-3-6-7(5,2)9-4-8-6/h5-6H,3-4H2,1-2H3	InChI=1S/C7H12O2/c1-5-3-6-7(5,2)9-4-8-6/h5-6H,3-4H2,1-2H3/t5-,6+,7-/m0/s1
