13
gdb 11373	6.22945	1.30595	1.09428	2.5935	55.61	-0.2707	-0.0208	0.2499	999.88	0.094968	-435.775561	-435.768227	-435.767283	-435.807689	25.613	
O	 0.0453014117	 1.3896317746	 0.0084882817	-0.39165
C	-0.0439613868	-0.0101372324	 0.002340782	-0.17311
C	-1.4832783924	-0.4176976196	 0.0133140012	 0.416847
N	-2.5180587244	 0.3115151982	 0.0234627042	-0.274088
C	-3.6459268213	-0.6133439632	 0.0307531945	-0.314418
C	-3.0312910833	-2.0084337856	 0.0224482376	 0.405802
O	-3.5109254393	-3.0964566371	 0.0238803023	-0.307096
O	-1.6535364239	-1.7925728012	 0.0116121402	-0.2375
H	 0.9770318876	 1.6266035402	-0.0067288932	 0.299316
H	 0.4205660823	-0.4680508127	-0.8870488082	 0.125829
H	 0.4365337105	-0.4767803797	 0.8786574314	 0.125791
H	-4.2740302201	-0.47501179	 0.9173448919	 0.162151
H	-4.2886884806	-0.4710123514	-0.8446272457	 0.162126
68.5741	154.5294	193.0471	213.7169	244.5623	382.3136	524.048	524.0735	625.9871	688.6413	710.866	861.0627	919.5234	987.902	1036.5102	1040.3809	1117.2625	1131.6445	1186.0545	1213.5965	1250.2768	1258.1151	1306.2726	1444.0764	1482.6657	1500.7885	1754.0026	1923.4878	2967.1678	2987.5789	3056.0266	3090.4821	3840.7564
OCC1=NCC(=O)O1	OCC1=NCC(=O)O1	
InChI=1S/C4H5NO3/c6-2-3-5-1-4(7)8-3/h6H,1-2H2	InChI=1S/C4H5NO3/c6-2-3-5-1-4(7)8-3/h6H,1-2H2
