18
gdb 95397	2.32796	1.78846	1.05448	2.0191	75.96	-0.2258	-0.025	0.2008	1123.7208	0.14988	-435.320547	-435.311919	-435.310975	-435.353635	32.355	
C	-0.010809075	 1.4394151961	 0.0247417873	-0.349465
N	 0.0188669706	-0.0066260819	-0.1032250146	-0.113878
C	-1.2415977245	-0.7438647379	-0.039951301	-0.176955
C	-1.1140244493	-2.0723618189	-0.7789240292	-0.160063
N	 0.0467334092	-2.8531707393	-0.3841315865	-0.312778
C	 1.0767741582	-2.1927738875	-0.0102190599	 0.269813
N	 2.2268382571	-2.793086573	 0.4106970401	-0.53974
C	 1.1957816983	-0.6723213093	 0.0172382691	 0.395003
O	 2.2922446942	-0.1363767977	 0.1148794966	-0.409435
H	 1.013168165	 1.8080924539	-0.01738741	 0.170248
H	-0.5966877032	 1.8795426616	-0.7892628005	 0.127793
H	-0.4626895062	 1.7414762835	 0.9787986311	 0.127395
H	-1.5271089201	-0.9152848752	 1.0094397312	 0.113427
H	-2.0233992453	-0.1266517308	-0.494712389	 0.112914
H	-2.0166721249	-2.6659847975	-0.5970934272	 0.110463
H	-1.07857878	-1.8878526499	-1.8638418713	 0.10776
H	 2.3389434688	-3.7690099474	 0.1896156661	 0.256289
H	 3.0431726372	-2.2002295388	 0.4072033277	 0.271209
105.315	134.4833	138.8298	222.1155	294.4243	312.9525	371.3388	401.5129	458.0751	487.906	520.3519	535.2124	587.8412	661.3622	716.3486	817.8985	905.0102	924.8225	987.1757	1049.7531	1094.2369	1119.6045	1155.2291	1200.5647	1233.4949	1274.1158	1291.0362	1360.0004	1380.174	1392.5665	1434.8854	1466.3312	1491.046	1497.7491	1499.9007	1536.493	1591.2793	1725.0136	1760.8801	2982.2769	2993.0862	3016.7765	3058.7938	3068.9369	3074.7246	3166.3405	3580.0356	3711.4378
CN1CCN=C(N)C1=O	CN1CCN=C(N)C1=O	
InChI=1S/C5H9N3O/c1-8-3-2-7-4(6)5(8)9/h2-3H2,1H3,(H2,6,7)	InChI=1S/C5H9N3O/c1-8-3-2-7-4(6)5(8)9/h2-3H2,1H3,(H2,6,7)
