16
gdb 104975	1.92511	1.84242	1.0897	1.5207	66.01	-0.2565	-0.1108	0.1457	1093.1419	0.122614	-474.998362	-474.989427	-474.988483	-475.032941	31.762	
O	 0.122606792	 1.2219565228	 0.5567335748	-0.413342
C	-0.1500063716	 0.1662164685	-0.3379843492	-0.182168
C	-1.4826517271	-0.5323272258	-0.0636443414	 0.185235
C	-1.4835687209	-1.9405147986	 0.4182197841	-0.266766
N	-1.7948913769	-0.8580906551	 1.3528020182	-0.330599
C	-2.7213216959	-0.0585060124	-0.7776024064	 0.260673
O	-3.6082098363	-0.7855798119	-1.1603276784	-0.271843
C	-2.9497768198	 1.4487697722	-0.9892043295	 0.093244
O	-2.2367474173	 2.330235709	-0.5796495201	-0.23616
H	-0.551741696	 1.896517109	 0.3935723403	 0.302758
H	-0.1130326706	 0.4969877915	-1.3876107698	 0.097351
H	 0.6586795051	-0.5589128806	-0.2035001218	 0.116303
H	-2.3235178334	-2.5802012875	 0.1689042387	 0.143611
H	-0.5193277583	-2.4368731417	 0.4855220161	 0.122029
H	-0.9821073092	-0.5881609021	 1.9059844249	 0.250795
H	-3.8842106839	 1.6479105026	-1.5506807705	 0.128879
31.8292	112.8607	134.5448	210.9345	219.4681	248.389	313.2523	339.3578	440.0189	539.2417	585.5437	599.8987	658.8172	687.5927	825.128	890.1109	924.0102	968.9811	1005.5198	1029.0973	1076.107	1088.3495	1149.0027	1166.6056	1215.8704	1270.3531	1302.868	1366.9745	1389.7565	1399.8537	1451.9903	1493.7803	1508.6396	1793.3661	1812.8529	2953.7249	2984.7637	3077.8838	3119.5957	3214.458	3478.9556	3741.0754
OCC1(CN1)C(=O)C=O	OC[C@]1(CN1)C(=O)C=O	
InChI=1S/C5H7NO3/c7-1-4(9)5(3-8)2-6-5/h1,6,8H,2-3H2	InChI=1S/C5H7NO3/c7-1-4(9)5(3-8)2-6-5/h1,6,8H,2-3H2/t5-/m1/s1
