21
gdb 59632	3.36659	1.05365	0.84621	1.4718	80.62	-0.2195	0.0589	0.2784	1404.7335	0.183191	-420.443649	-420.434085	-420.433141	-420.478175	35.831	
C	 0.4233718087	-0.6172726469	 1.3374918175	-0.3967
C	 0.0167190794	 0.0103754674	-0.0032454584	 0.033259
C	 0.0191088465	 1.5407511425	 0.0852070073	-0.386522
C	 0.9325258314	-0.4763582518	-1.1410968208	 0.032707
C	 0.8649956545	-2.01279396	-1.3894211205	-0.128748
O	 0.6451190922	-2.1389071749	-2.8095648086	-0.255816
C	 0.4470955366	-0.8671952198	-3.2525968032	 0.466186
N	 0.075890483	-0.7973666121	-4.5682480481	-0.57608
N	 0.577942726	 0.1069084093	-2.4421058721	-0.360986
H	 0.3831625024	-1.7117703387	 1.3164016967	 0.109199
H	 1.4456123627	-0.3267200329	 1.6089404134	 0.11226
H	-0.2389465545	-0.280828238	 2.1414269308	 0.114005
H	-1.0030775852	-0.3187926305	-0.2506032228	 0.069163
H	 1.0177976907	 1.9133841652	 0.3447513268	 0.10484
H	-0.2657542895	 1.9836545316	-0.8709661959	 0.137227
H	-0.6747900711	 1.8880309963	 0.8579957887	 0.100869
H	 1.96142108	-0.1764613425	-0.8884471185	 0.069978
H	 1.7826075688	-2.5488799898	-1.136363274	 0.115486
H	 0.0226937572	-2.487337341	-0.8730655812	 0.110615
H	 0.370742998	-1.5738677125	-5.1394171451	 0.261992
H	 0.2075208523	 0.1108663191	-4.9846807718	 0.267064
56.8075	88.2743	169.1744	217.0012	221.7266	245.9206	316.3846	343.136	381.4631	400.026	452.404	485.9319	542.9614	707.744	723.6478	746.0218	831.4772	898.3571	931.2613	940.5664	962.4057	985.0162	1020.1957	1034.3754	1050.5317	1140.7277	1175.6619	1182.312	1198.6432	1238.8879	1298.5965	1308.737	1346.9831	1355.1763	1392.9281	1396.6515	1419.427	1432.067	1488.4253	1489.3505	1504.0723	1513.3101	1523.4107	1619.854	1758.767	2972.2389	3002.6506	3023.3395	3029.0136	3039.4239	3085.9694	3090.2221	3098.6684	3100.5485	3133.5813	3592.7628	3706.2613
CC(C)C1COC(N)=N1	CC(C)[C@H]1COC(=N1)N	
InChI=1S/C6H12N2O/c1-4(2)5-3-9-6(7)8-5/h4-5H,3H2,1-2H3,(H2,7,8)	InChI=1S/C6H12N2O/c1-4(2)5-3-9-6(7)8-5/h4-5H,3H2,1-2H3,(H2,7,8)/t5-/m1/s1
