17
gdb 113348	2.57534	1.05615	0.84648	0.5186	71.73	-0.2634	0.0159	0.2793	1363.2124	0.132443	-458.887007	-458.877091	-458.876146	-458.922469	35.452	
O	-0.0643366154	 1.2965635127	-0.6004973075	-0.413217
C	 0.0478328437	 0.1097112851	 0.1662684331	-0.097175
C	-1.2911614383	-0.5827779642	 0.2648521462	 0.000427
O	-1.7073610823	-1.3484945776	-0.8722609326	-0.296875
C	-1.5182971716	-2.0438813454	 0.387597172	 0.096577
C	-0.3985666976	-3.0736178232	 0.3535843158	-0.131685
O	-0.7657397725	-4.1943363574	-0.4225767485	-0.406911
C	-2.7365802899	-2.4903496734	 1.0243099173	 0.320066
C	-3.7301528582	-2.8653797282	 1.5861623162	-0.416892
H	-0.354370886	 1.040835488	-1.4832887963	 0.29467
H	 0.8098871101	-0.5636327648	-0.2458563803	 0.09975
H	 0.3733879533	 0.4209874869	 1.1647102305	 0.123655
H	-2.0785845579	 0.0566297892	 0.6664044936	 0.109683
H	 0.5218341802	-2.6079941632	-0.0202750714	 0.094665
H	-0.2087607845	-3.4436170412	 1.3656188798	 0.124986
H	-0.9975386792	-3.867736211	-1.2996442312	 0.295321
H	-4.6131776438	-3.2014120124	 2.0716471733	 0.202955
55.1012	72.7803	127.6876	145.1526	170.1449	227.1583	313.9898	361.2213	389.9725	403.6114	418.9242	494.8672	559.2143	625.8276	663.6992	670.1137	703.4196	810.8407	899.2375	957.6227	994.3493	1064.4478	1077.4251	1089.7777	1117.0528	1193.008	1230.8601	1264.2072	1316.7064	1364.4775	1381.7723	1415.6809	1426.3117	1469.4022	1483.8135	1495.9941	2240.8991	3014.7562	3033.3942	3079.5201	3093.0889	3112.025	3501.2408	3799.9312	3805.1855
OCC1OC1(CO)C#C	OC[C@H]1O[C@]1(CO)C#C	
InChI=1S/C6H8O3/c1-2-6(4-8)5(3-7)9-6/h1,5,7-8H,3-4H2	InChI=1S/C6H8O3/c1-2-6(4-8)5(3-7)9-6/h1,5,7-8H,3-4H2/t5-,6+/m1/s1
