12
gdb 131904	4.53057	1.16192	0.92555	5.8548	65.53	-0.2382	-0.0966	0.1416	1143.7018	0.077706	-505.873724	-505.866348	-505.865403	-505.906156	26.645	
N	 0.0091305137	 1.3644797461	 0.1490933944	-0.598209
C	-0.0172592162	-0.0102721434	 0.0464231749	 0.294635
C	-1.0720444511	-0.8867612273	 0.010866967	-0.101916
O	-0.5553861645	-2.1562436789	-0.0215299349	-0.13453
C	 0.761260545	-1.9631908095	-0.0024367876	 0.52116
N	 1.1589455885	-0.7327945703	 0.0357945336	-0.327463
N	 1.6012337014	-3.1440320732	-0.0319406218	 0.342185
O	 1.0272673553	-4.2242383263	-0.0708229792	-0.349226
O	 2.8065811661	-2.9539699627	-0.0160777488	-0.337222
H	 0.8916440619	 1.762608861	-0.1390936673	 0.270238
H	-0.7814438663	 1.8466596316	-0.2515806041	 0.260317
H	-2.1437905436	-0.8010804872	 0.0070055936	 0.160031
62.2278	168.0721	199.4665	264.8759	348.2116	383.8814	435.3448	558.3628	598.3489	640.3311	674.293	717.3266	743.337	779.9526	844.8389	994.4511	1029.5839	1096.8622	1129.5812	1242.2747	1349.5954	1379.1195	1404.6352	1568.3501	1628.6865	1648.7969	1665.6913	3305.0971	3572.3683	3675.0359
NC1=COC(=N1)N(=O)=O	Nc1coc(n1)N(=O)=O	
InChI=1S/C3H3N3O3/c4-2-1-9-3(5-2)6(7)8/h1H,4H2	InChI=1S/C3H3N3O3/c4-2-1-9-3(5-2)6(7)8/h1H,4H2
