21
gdb 53094	2.59686	0.93534	0.84738	1.3641	89.61	-0.2173	0.0562	0.2734	1512.9537	0.178611	-387.063151	-387.051986	-387.051042	-387.100686	39.675	
C	 0.1087636196	 1.5210993499	-0.0762860035	-0.499534
C	 0.0509492249	 0.0668553144	-0.0279526032	 0.067053
C	 0.0107237044	-1.1385040791	 0.0063769486	 0.097392
C	-0.0337921466	-2.5696931865	 0.0318353801	-0.322994
C	-0.5294719705	-3.3409290068	 1.2694885232	-0.046656
C	-0.9199221343	-2.6339093292	 2.5458316389	-0.419634
C	-1.3623531359	-3.3409783187	 0.0286331267	 0.386628
C	-2.6797675073	-2.6114563841	-0.0765098744	-0.454686
O	-1.3381386156	-4.5768031611	-0.639166991	-0.460685
H	 1.0146428331	 1.8627914344	-0.5897633523	 0.147547
H	-0.7503747514	 1.9421324122	-0.6112276027	 0.143612
H	 0.1179810134	 1.9570832355	 0.9291855752	 0.145204
H	 0.7577316655	-3.0707983446	-0.5185943978	 0.104722
H	-0.0014321068	-4.2791890958	 1.4143987895	 0.100085
H	-1.3428603516	-1.6452233023	 2.3534737835	 0.127831
H	-1.6551277027	-3.2184039489	 3.1095380469	 0.118286
H	-0.0431556169	-2.492280469	 3.1863913005	 0.121745
H	-2.6518713388	-1.6444789476	 0.4280617189	 0.133324
H	-2.9239211263	-2.4212408248	-1.1291295171	 0.108817
H	-3.4845545989	-3.2162824703	 0.3532706387	 0.123897
H	-1.4940444774	-4.4084396275	-1.5757554487	 0.278043
14.7414	81.6132	92.3443	164.8506	183.0741	205.6924	221.378	257.7679	271.3625	330.6917	386.1773	395.8359	418.1164	458.8171	517.1572	580.2359	698.0573	756.4875	810.7376	907.3016	939.2229	978.973	1023.8103	1051.6529	1053.9227	1064.3732	1081.093	1133.6058	1146.3097	1196.3802	1228.9642	1278.6173	1337.2669	1361.7951	1413.0357	1415.3208	1421.3123	1449.2066	1477.7315	1480.2776	1481.966	1488.1064	1499.8127	1515.0121	2358.0084	3022.1102	3027.9256	3036.3672	3079.3348	3082.9987	3090.0768	3095.0026	3117.5974	3139.269	3140.6954	3155.7458	3785.8245
CC#CC1C(C)C1(C)O	CC#C[C@H]1[C@@H](C)[C@]1(C)O	
InChI=1S/C8H12O/c1-4-5-7-6(2)8(7,3)9/h6-7,9H,1-3H3	InChI=1S/C8H12O/c1-4-5-7-6(2)8(7,3)9/h6-7,9H,1-3H3/t6-,7+,8+/m1/s1
