18
gdb 49515	3.94196	1.3088	1.26803	2.5279	75.07	-0.236	-0.0272	0.2088	1039.4464	0.148978	-401.877434	-401.870374	-401.86943	-401.909208	28.257	
O	-0.8747015363	 0.9695355811	 0.1883385252	-0.24701
C	 0.2712455104	 0.6799132064	-0.0436592863	 0.11612
C	 1.4247373161	 1.6562828734	-0.0274170706	-0.038088
C	 1.3976075555	 2.7994897749	 1.0031505754	-0.056394
C	 1.8534069785	 1.6553910594	 1.9704335072	-0.180062
N	 2.6098560379	 1.1122275322	 0.7494065313	-0.162361
C	 3.6030311086	 2.2232220583	 0.6237573038	 0.006731
C	 3.5354063067	 3.2409011844	-0.4814275319	-0.316272
C	 2.7655202863	 3.4842295995	 0.7966976369	-0.055529
H	 0.5693151841	-0.3521760225	-0.3356439593	 0.092247
H	 1.6337589362	 1.8744696202	-1.0802569426	 0.093326
H	 0.5162373433	 3.4189649822	 1.1660759113	 0.08512
H	 2.4936538094	 1.9168025624	 2.8156868826	 0.104495
H	 1.0640068528	 0.9670389125	 2.2812384864	 0.121795
H	 4.5376504776	 2.0353899998	 1.1372779104	 0.100829
H	 4.4401013141	 3.8327734159	-0.5872880693	 0.116817
H	 3.0478420112	 3.0574800117	-1.4315729071	 0.122128
H	 3.0397564174	 4.3020015082	 1.4524869966	 0.096109
64.8911	174.0102	239.2449	340.7321	376.2586	487.9816	569.5174	667.4652	674.1433	776.3812	780.6076	792.3163	828.5029	853.1168	892.6196	910.9821	931.2793	987.1079	996.83	1018.5365	1042.8576	1068.0419	1086.4923	1097.0285	1101.1943	1115.0736	1157.3087	1178.9959	1200.6593	1217.5824	1249.0736	1260.1318	1310.5245	1353.0535	1363.2517	1409.3711	1500.1069	1519.5661	1826.5737	2885.9117	3054.1418	3067.2999	3125.067	3131.7819	3133.8484	3179.2873	3189.772	3207.2812
O=CC1C2CN1C1CC21	O=C[C@H]1[C@H]2CN1[C@H]1C[C@@H]21	
InChI=1S/C7H9NO/c9-3-7-5-2-8(7)6-1-4(5)6/h3-7H,1-2H2	InChI=1S/C7H9NO/c9-3-7-5-2-8(7)6-1-4(5)6/h3-7H,1-2H2/t4-,5-,6-,7-/m0/s1
