17
gdb 69337	3.23767	1.27148	1.09683	4.4797	73.29	-0.267	0.0235	0.2905	1137.6565	0.134886	-417.980655	-417.971914	-417.97097	-418.01374	32.91	
C	 0.0788528497	 1.5483444343	-0.0262300412	-0.504648
C	-0.0820932906	 0.0728026123	 0.1210876923	 0.42949
C	-1.3709664216	-0.7626535681	 0.0398732694	-0.327368
C	-0.7070281637	-1.8046868384	 1.0190253791	 0.130517
N	-1.3396693707	-1.7677506611	 2.331458042	-0.555107
C	-0.5282398431	-3.1621282653	 0.4839025504	 0.235453
N	-0.4105000051	-4.252391665	 0.1162434274	-0.341611
C	 0.5640606643	-0.9171697865	 0.9960194045	-0.057733
O	 0.9700667924	-0.7874844122	-0.3600489308	-0.274254
H	 1.1001063867	 1.8465996561	 0.2240871767	 0.140814
H	-0.124772389	 1.8590784058	-1.056955329	 0.137652
H	-0.6158608393	 2.0798748842	 0.6313588062	 0.133852
H	-2.2332516231	-0.2961638653	 0.5196623993	 0.124558
H	-1.6284188114	-1.1246317679	-0.9567059746	 0.127382
H	-2.2766751984	-2.1580337176	 2.2757505682	 0.245557
H	-0.8230823316	-2.3536112396	 2.9826855182	 0.244361
H	 1.3109390444	-0.8329536156	 1.7776653519	 0.111085
94.8298	139.5901	193.9962	200.2417	256.5862	316.6532	334.7597	352.2087	428.7512	463.4716	522.1033	592.4644	643.233	683.9139	777.4284	867.178	876.5097	893.5655	933.7516	956.5543	1012.5025	1019.299	1054.6494	1136.5549	1152.9057	1197.6374	1225.5161	1254.5523	1282.0838	1305.9823	1405.6701	1449.2586	1473.2392	1485.5166	1498.432	1658.5171	2342.6366	3038.4054	3079.6639	3102.6521	3126.1479	3146.4593	3184.3712	3484.9289	3562.6418
CC12CC(N)(C#N)C1O2	C[C@]12C[C@@](N)(C#N)[C@H]1O2	
InChI=1S/C6H8N2O/c1-5-2-6(8,3-7)4(5)9-5/h4H,2,8H2,1H3	InChI=1S/C6H8N2O/c1-5-2-6(8,3-7)4(5)9-5/h4H,2,8H2,1H3/t4-,5-,6+/m0/s1
