22
gdb 121864	3.55756	0.64516	0.56771	25.2022	104.14	-0.1198	-0.0716	0.0483	1940.075	0.192808	-441.411297	-441.400245	-441.399301	-441.449424	38.36	
C	-0.259832905	 1.6418329451	-0.1419078823	-0.37848
C	-0.0224334751	 0.1419932598	 0.0205676859	-0.108851
C	 0.7356135054	-0.244161316	 1.2894649174	-0.158946
C	 2.25484958	-0.0122909523	 1.2251671022	-0.213544
C	 2.9053770525	-0.5804806753	 2.4675233723	-0.204355
N	 4.4393394787	-0.432467337	 2.3914986108	-0.419277
H	 4.6851016361	 0.5556264443	 2.2881322819	 0.334857
H	 4.9235148075	-0.8055288015	 3.2135373425	 0.329945
H	 4.7872986777	-0.919333488	 1.5611480381	 0.337833
C	-1.3811019642	-0.7120660566	-0.042263369	 0.33817
O	-2.2988868103	-0.1773813678	-0.682154908	-0.468548
O	-1.3171117338	-1.8201465622	 0.5346417633	-0.492386
H	 0.6641269524	 2.2160718929	-0.3122989396	 0.041278
H	-0.9384616328	 1.7937610563	-0.9827268016	 0.142701
H	-0.7522949028	 2.0567887334	 0.7467234773	 0.092968
H	 0.5631348242	-0.2175951056	-0.8419830352	 0.045139
H	 0.3300536889	 0.3030590261	 2.1526910316	 0.078955
H	 0.5089905575	-1.3085880453	 1.4390859602	 0.128773
H	 2.6579277756	-0.5180893412	 0.3360481779	 0.110002
H	 2.4930513255	 1.0575942771	 1.1335446429	 0.105713
H	 2.6063414529	-0.0637619242	 3.38202966	 0.173787
H	 2.7184848991	-1.6503528918	 2.5807826114	 0.184266
31.315	52.5158	65.0237	105.5634	140.4804	185.4666	213.3218	243.7417	270.287	317.6514	388.9766	434.3584	513.3084	602.7798	754.3903	762.9637	795.5808	808.2018	813.4603	894.1627	915.2367	928.7297	1004.6577	1006.2517	1034.6707	1117.4869	1147.2986	1175.6101	1222.8491	1243.103	1277.0097	1290.5838	1319.5502	1322.6426	1338.9729	1366.486	1376.2937	1392.5291	1458.2091	1475.0182	1481.227	1486.8555	1496.5283	1504.9355	1641.525	1657.8156	1762.1468	2960.2307	2979.3956	2987.1897	3000.7695	3028.3115	3051.7656	3056.8984	3088.7441	3135.3348	3152.1419	3378.2698	3480.5639	3495.6914
CC(CCC[NH3+])C([O-])=O	C[C@@H](CCC[NH3])C(=O)[O]	
InChI=1S/C6H13NO2/c1-5(6(8)9)3-2-4-7/h5H,2-4,7H2,1H3,(H,8,9)	InChI=1S/C6H13NO2/c1-5(6(8)9)3-2-4-7/h5H,2-4H2,1,7H3/t5-/m0/s1
