15
gdb 33695	4.03726	1.46516	1.35772	4.0277	73.09	-0.2482	0.0097	0.2579	941.7075	0.115257	-379.629271	-379.623023	-379.622078	-379.659886	25.282	
N	-0.0571329473	-1.1442258157	-0.0720233547	-0.354472
C	-0.0273394648	 0.0123312267	-0.0178540024	 0.146081
C	 0.0205804696	 1.4273030796	 0.0478938097	 0.235253
C	-1.0584821355	 2.3291585929	 0.6734117684	-0.129671
C	-0.4021294456	 3.4274175225	 1.4824238012	-0.248736
C	 0.8274086832	 3.6213444479	 0.6241021245	-0.048078
C	 1.2573052954	 2.3471031592	 0.0002599688	-0.115543
N	 0.5375239643	 3.366889678	-0.8270513028	-0.151699
C	-0.6924959291	 2.4958271233	-0.7676855875	-0.066966
H	-2.0040822543	 1.875420767	 0.9393356706	 0.123411
H	-1.0241403358	 4.3270368217	 1.5278070814	 0.124946
H	-0.1499778232	 3.1180743504	 2.50117699	 0.125807
H	 1.5381988385	 4.4187699725	 0.8055637314	 0.112895
H	 2.2698128405	 2.0328396066	-0.2185480991	 0.119221
H	-1.3456246558	 2.4037873276	-1.6239132794	 0.127551
142.5648	162.418	386.0143	479.6063	505.6127	535.137	594.0323	700.6008	729.4375	759.3042	803.4478	818.6317	872.7753	900.8272	935.0292	958.138	975.412	1001.3273	1014.2594	1040.6485	1050.4777	1067.8995	1149.6138	1167.2086	1187.9082	1210.8859	1251.3709	1280.6068	1305.7054	1368.9405	1414.7765	1484.9738	2344.3461	3056.241	3103.1505	3191.3668	3202.5794	3214.5296	3224.0506
N#CC12C3CC4C1N4C23	N#C[C@@]12[C@H]3C[C@H]4[C@@H]1N4[C@@H]23	
InChI=1S/C7H6N2/c8-2-7-3-1-4-6(7)9(4)5(3)7/h3-6H,1H2	InChI=1S/C7H6N2/c8-2-7-3-1-4-6(7)9(4)5(3)7/h3-6H,1H2/t3-,4-,5+,6-,7-,9?/m0/s1
