21
gdb 83734	2.55389	1.52117	1.30336	1.849	81.66	-0.2505	0.0731	0.3236	1095.6015	0.183399	-387.072109	-387.063705	-387.062761	-387.105273	32.678	
C	 0.0473193126	 1.6756934225	-0.1226967094	-0.418858
C	 0.0765899728	 0.1684709547	 0.0195698451	-0.006931
C	 1.2636363658	-0.7212556154	-0.2551705361	-0.06704
C	 2.6703968708	-0.1228744481	-0.2944717936	-0.226877
C	 2.8960031567	 0.5731325194	 1.07143924	-0.326
C	 1.7717371833	 0.0782100893	 1.9902994587	 0.485214
C	 1.9966412857	-0.2836027678	 3.3960863481	-0.255958
O	 1.3626860066	 0.9510859157	 3.0542380959	-0.288405
C	 0.7211456208	-0.6002277645	 1.157789999	-0.154132
H	 0.9944840572	 2.1523656555	 0.133445129	 0.123815
H	-0.1925619914	 1.955567103	-1.1547244257	 0.113366
H	-0.720311368	 2.10867114	 0.52699088	 0.127246
H	-0.8623928014	-0.2881752182	-0.2877541196	 0.084842
H	 1.0939718434	-1.6213162655	-0.8366657511	 0.080509
H	 3.3922438734	-0.9348305149	-0.429853287	 0.103712
H	 2.8127618593	 0.5658706033	-1.1342754373	 0.102666
H	 3.8825650388	 0.3474971666	 1.485729143	 0.103714
H	 2.8346628421	 1.6620910163	 0.9946479579	 0.124396
H	 1.3559922468	-1.0217111596	 3.8795887955	 0.108104
H	 2.9966547707	-0.1953950275	 3.8216528012	 0.106201
H	 0.1482072139	-1.3942997648	 1.6239054065	 0.080414
62.8273	118.7623	158.7184	214.4154	303.0397	337.1898	367.4748	452.471	495.1739	578.9491	678.2625	735.2024	756.9563	801.0295	817.1287	852.1373	900.9946	933.5337	947.9934	974.2089	983.9798	1023.1209	1055.8182	1071.2795	1098.2394	1126.5581	1130.6742	1138.9908	1162.2153	1190.479	1228.5014	1234.8685	1262.8313	1287.8609	1315.4398	1334.6709	1365.1378	1415.8519	1427.9277	1446.5288	1482.8455	1492.1665	1503.1179	1508.1827	1531.4564	3037.2973	3040.5063	3059.6841	3066.6563	3070.3824	3092.2351	3098.0796	3115.8203	3141.6593	3149.9707	3156.7193	3168.6171
CC1C2CCC3(CO3)C12	C[C@H]1[C@H]2CC[C@]3(CO3)[C@@H]12	
InChI=1S/C8H12O/c1-5-6-2-3-8(4-9-8)7(5)6/h5-7H,2-4H2,1H3	InChI=1S/C8H12O/c1-5-6-2-3-8(4-9-8)7(5)6/h5-7H,2-4H2,1H3/t5-,6+,7-,8-/m0/s1
