23
gdb 103434	2.22903	1.51165	1.31059	1.115	85.32	-0.2379	0.0838	0.3217	1156.1114	0.204184	-388.257676	-388.247973	-388.247029	-388.29141	37.477	
C	 0.0374435776	 1.3336504729	 0.2310514396	-0.248939
O	 0.0771637886	-0.0674330041	 0.058973541	-0.286137
C	 0.6501543219	-0.5555256906	-1.143895866	 0.405966
C	 2.0070770602	 0.0713053125	-1.4555553322	-0.467225
C	 0.7117798564	-2.0829803358	-1.1291485922	-0.08052
C	-0.6599316884	-2.6790986732	-1.0147930213	-0.296867
C	-0.2073626248	-2.1563246453	-2.3496800553	-0.051731
C	-0.3123620193	-0.6265172137	-2.4135878505	-0.046134
C	-1.7009612524	 0.0011494254	-2.3616357579	-0.413386
H	 1.0336986717	 1.7628769156	 0.4062674757	 0.107327
H	-0.4164869857	 1.8524369325	-0.624083235	 0.106173
H	-0.5779363067	 1.5220206088	 1.1149121304	 0.123576
H	 2.6776925041	-0.0233307804	-0.5943822295	 0.120116
H	 2.4679221184	-0.443819192	-2.3030271116	 0.121442
H	 1.9245614927	 1.1309484726	-1.7162861826	 0.114633
H	 1.6101285216	-2.6494494746	-0.9122218017	 0.077324
H	-0.6797819984	-3.7609671403	-0.9283536086	 0.106455
H	-1.4258544727	-2.1724271728	-0.4376844151	 0.120482
H	-0.1178419042	-2.8051680615	-3.2128984373	 0.078942
H	 0.2267018836	-0.2456729631	-3.2873965638	 0.062507
H	-2.2133708716	-0.2260885702	-1.4234425192	 0.125563
H	-1.656256615	 1.0908222651	-2.4612086955	 0.109394
H	-2.3187186274	-0.3777903479	-3.1836550215	 0.11104
119.6661	132.1579	160.7238	202.2693	229.158	259.697	271.7902	274.6219	322.7469	383.268	457.3861	513.0517	571.7347	618.4922	710.9075	789.651	810.5637	883.3673	913.8555	929.777	957.8001	991.8408	1009.7701	1019.5819	1064.7462	1082.5802	1097.634	1101.0316	1117.7428	1166.1621	1173.1348	1180.4488	1188.0055	1228.657	1237.145	1257.2211	1320.9902	1363.0152	1376.9211	1398.9025	1409.5801	1475.3853	1485.3234	1486.2635	1491.0999	1495.2993	1499.2789	1505.1171	1514.1599	2995.2768	3031.2729	3032.5127	3046.0411	3047.3803	3090.2261	3101.8675	3106.3419	3112.8526	3118.0843	3130.755	3169.9852	3181.0495	3212.8708
COC1(C)C2CC2C1C	CO[C@@]1(C)[C@H]2C[C@H]2[C@H]1C	
InChI=1S/C8H14O/c1-5-6-4-7(6)8(5,2)9-3/h5-7H,4H2,1-3H3	InChI=1S/C8H14O/c1-5-6-4-7(6)8(5,2)9-3/h5-7H,4H2,1-3H3/t5-,6+,7+,8-/m1/s1
