16
gdb 125154	3.0922	1.32357	0.99893	2.9147	73.95	-0.2473	-0.0413	0.2061	1166.3718	0.124294	-434.025313	-434.017121	-434.016177	-434.059037	29.298	
C	-0.3285762316	 1.5104342925	 0.2087315205	-0.498319
C	-0.037029665	 0.0613621335	 0.0143890739	 0.14162
C	 0.2101975092	-0.6740158907	-1.1110573849	 0.370563
O	 0.4132828645	-1.9458214382	-0.7523641081	-0.245476
N	 0.2844550179	-1.9890457966	 0.6833512319	-0.018534
N	 0.0312854968	-0.8247356185	 1.0701583175	-0.155552
C	 0.2724434913	-0.3300999478	-2.5353565908	-0.11406
C	 1.2381282181	-1.0322428013	-3.4338781952	-0.232378
N	-0.1971232811	-1.291537714	-3.554666654	-0.312199
H	 0.4856338488	 2.0129679754	 0.7412950209	 0.148718
H	-0.4648087094	 2.0142504997	-0.7510853971	 0.13489
H	-1.2401851433	 1.6474032016	 0.7978973576	 0.151727
H	 0.0162964231	 0.702570663	-2.7504340466	 0.107515
H	 1.679646319	-0.4827515781	-4.260088143	 0.131752
H	 1.8729911657	-1.7903167679	-2.9852190628	 0.138152
H	-0.424944154	-2.1730892628	-3.0994190998	 0.251583
59.4627	76.4981	162.5698	169.1002	268.2609	279.65	423.5263	466.8956	603.0755	635.0003	689.4589	735.3587	748.8466	822.2705	884.6468	969.1677	981.4405	1007.6142	1020.2523	1067.9712	1107.6376	1133.9471	1166.5532	1173.5013	1248.6086	1267.8584	1303.7159	1380.9479	1411.3907	1432.3661	1474.1014	1476.7784	1493.4872	1505.1734	1650.3204	3043.3118	3101.5422	3117.6813	3126.5571	3160.0945	3210.3803	3501.8089
CC1=C(ON=N1)C1CN1	Cc1c(onn1)[C@H]1CN1	
InChI=1S/C5H7N3O/c1-3-5(4-2-6-4)9-8-7-3/h4,6H,2H2,1H3	InChI=1S/C5H7N3O/c1-3-5(4-2-6-4)9-8-7-3/h4,6H,2H2,1H3/t4-/m1/s1
