16
gdb 61725	4.06941	0.65552	0.59744	3.1675	90.05	-0.2484	-0.0265	0.2219	1798.1709	0.121559	-400.721399	-400.711432	-400.710488	-400.757771	34.818	
C	 0.0426224543	 1.7378196596	 0.0752609993	-0.382986
C	 0.0617261667	 0.1989148567	-0.0073736017	-0.163059
N	 0.695879694	-0.2734144304	-1.2399862888	-0.273769
C	-0.0327155646	-0.6526078751	-2.3237529317	 0.161622
O	-1.242630586	-0.6074173815	-2.3948557442	-0.322825
C	 0.7146756656	-0.3988540726	 1.1538129385	 0.421423
C	 1.2722308272	-0.8722831153	 2.117935055	-0.277468
C	 1.8984624885	-1.4054313036	 3.2020087462	 0.293021
C	 2.4548125087	-1.8791114453	 4.1631518762	-0.551208
H	 1.0602127752	 2.1379522276	 0.0869873978	 0.124043
H	-0.489183346	 2.1378999851	-0.7913478027	 0.14138
H	-0.4670265225	 2.062619806	 0.9861584861	 0.135094
H	-0.9736954143	-0.1561516374	-0.0679611494	 0.1573
H	 1.6991322477	-0.3670845095	-1.2597987804	 0.256272
H	 0.612071916	-1.0099373575	-3.1499403619	 0.085292
H	 2.9427334097	-2.2954055268	 5.0093755015	 0.195868
21.4491	76.3511	100.4814	189.9705	197.3028	234.4629	247.3921	289.0477	391.6688	471.1391	493.9755	522.6336	543.0197	561.2389	597.3153	610.4942	666.3277	823.6947	890.4437	1020.0649	1033.1025	1081.7004	1106.0654	1192.1228	1200.8128	1331.465	1349.9559	1401.1939	1424.2731	1486.1416	1489.5217	1515.6435	1799.1016	2182.9439	2363.7197	2947.6405	3046.9355	3054.5791	3127.1277	3134.9422	3504.1397	3636.7913
CC(NC=O)C#CC#C	C[C@@H](NC=O)C#CC#C	
InChI=1S/C7H7NO/c1-3-4-5-7(2)8-6-9/h1,6-7H,2H3,(H,8,9)	InChI=1S/C7H7NO/c1-3-4-5-7(2)8-6-9/h1,6-7H,2H3,(H,8,9)/t7-/m1/s1
