17
gdb 15783	5.8893	1.04738	0.98253	4.7882	68.92	-0.2882	0.0294	0.3176	1183.8963	0.141552	-363.860748	-363.852287	-363.851343	-363.894112	30.622	
O	-0.4707360684	 1.2880997897	 0.0819169567	-0.4153
C	-0.105834513	-0.0774455565	 0.0421532116	 0.102522
C	 0.7456782341	-0.3999629611	-1.2097931861	-0.373337
C	 0.089905683	-0.0264117702	-2.4601824647	 0.268996
N	-0.4272475123	 0.2617567243	-3.4521963646	-0.302223
C	 0.6112194814	-0.545829254	 1.3001255999	 0.009476
C	 1.5792795376	 0.3516736309	 2.0341731369	-0.278059
C	 0.2383980317	 0.0194362475	 2.6417296429	-0.272935
H	 0.3272807649	 1.8239897371	 0.0141302195	 0.287568
H	-1.057481289	-0.6145853722	-0.0441262855	 0.115027
H	 1.7083472638	 0.1222856419	-1.1397933469	 0.146079
H	 0.9733646992	-1.4715023174	-1.2366501455	 0.153553
H	 0.8690968888	-1.6017344261	 1.27695286	 0.088577
H	 2.4724114806	-0.0959789544	 2.4548566262	 0.119065
H	 1.7242925031	 1.3682396388	 1.6821506946	 0.101452
H	-0.5036817504	 0.8093066726	 2.6477947398	 0.133205
H	 0.2044277749	-0.651126861	 3.4925674152	 0.116334
63.4653	86.5967	132.0662	235.2076	262.0725	309.7708	357.4157	398.8496	418.6515	545.8626	600.8596	781.2594	801.8397	831.9517	866.7706	906.6873	969.5902	999.6631	1031.6812	1048.9329	1061.5816	1089.0081	1138.2377	1155.2265	1187.8354	1198.6225	1230.5193	1288.9644	1324.1212	1359.5418	1400.0105	1424.2316	1460.94	1463.7255	1505.6054	2365.6739	3033.5778	3050.7454	3080.9196	3130.8069	3138.4586	3144.6837	3211.2933	3235.2626	3805.3406
OC(CC#N)C1CC1	O[C@@H](CC#N)C1CC1	
InChI=1S/C6H9NO/c7-4-3-6(8)5-1-2-5/h5-6,8H,1-3H2	InChI=1S/C6H9NO/c7-4-3-6(8)5-1-2-5/h5-6,8H,1-3H2/t6-/m0/s1
