23
gdb 98682	3.16267	0.90586	0.86175	2.5103	88.29	-0.2381	-0.0081	0.2301	1528.7377	0.20301	-388.319029	-388.308372	-388.307428	-388.354822	39.244	
C	 0.1213643493	 1.5008084849	-0.0984917655	-0.377958
C	-0.0832297473	-0.0106160777	-0.1375248825	-0.284291
C	-1.518622486	-0.4429886498	 0.1385945592	 0.38473
O	-2.3876840495	 0.3675580541	 0.3968989075	-0.335447
C	-1.7744930553	-1.9095249002	 0.0692523321	-0.154759
C	-2.9888015838	-2.4856955845	 0.7804480358	-0.322918
C	-2.9736213402	-2.4883444179	-0.7130131029	 0.343208
C	-3.9088126071	-1.5608270239	-1.4640702197	-0.466077
C	-2.7103472459	-3.8076505346	-1.4162151079	-0.444111
H	 1.1679509237	 1.75561802	-0.2880488589	 0.106625
H	-0.4979018914	 1.9980997135	-0.8494973628	 0.129102
H	-0.1646962718	 1.9066557362	 0.875031992	 0.131618
H	 0.2116217232	-0.4307027955	-1.1095437004	 0.120141
H	 0.5615642423	-0.5173587976	 0.5948071018	 0.121206
H	-0.8798928134	-2.5239177732	 0.0396394305	 0.078996
H	-2.856977298	-3.4215918586	 1.3132521209	 0.109377
H	-3.6141723615	-1.750514934	 1.2758705516	 0.133793
H	-4.0388374375	-0.6117832272	-0.9433830747	 0.15604
H	-3.5301992276	-1.3526180244	-2.4717255804	 0.108687
H	-4.890832932	-2.035405702	-1.5738529244	 0.112188
H	-3.6488386239	-4.3530210973	-1.5706198501	 0.120061
H	-2.2558545159	-3.647832047	-2.4006650099	 0.117371
H	-2.0421402404	-4.4512132433	-0.8357419213	 0.112418
51.5457	78.8803	130.8354	169.6946	196.064	212.792	251.2453	263.6405	317.7611	345.8382	371.6642	411.8006	427.8555	570.2499	653.5886	682.6359	777.2473	822.876	838.2675	926.478	930.041	970.0336	977.7571	1004.4679	1033.6392	1062.5514	1075.8534	1090.4314	1104.4566	1124.3734	1145.1419	1151.274	1275.0508	1289.2333	1333.8999	1361.0483	1410.16	1413.1317	1417.1085	1426.9203	1452.7438	1476.6809	1485.6155	1490.4657	1491.4407	1497.7711	1510.9325	1511.2302	1776.6841	3012.7225	3022.5284	3028.9761	3038.8853	3050.6103	3080.4408	3085.2715	3100.8324	3120.8477	3127.0885	3129.2044	3147.7515	3152.5768	3222.3121
CCC(=O)C1CC1(C)C	CCC(=O)[C@H]1CC1(C)C	
InChI=1S/C8H14O/c1-4-7(9)6-5-8(6,2)3/h6H,4-5H2,1-3H3	InChI=1S/C8H14O/c1-4-7(9)6-5-8(6,2)3/h6H,4-5H2,1-3H3/t6-/m1/s1
