22
gdb 64772	2.61338	1.19733	1.05752	4.0304	84.93	-0.3105	0.0321	0.3426	1260.3149	0.195305	-367.255612	-367.246307	-367.245363	-367.289729	35.282	
C	-0.3495751628	 1.7060869459	 0.1749387194	-0.45366
C	 0.09742605	 0.2483465442	 0.0342589515	 0.285471
C	-1.1521620887	-0.6722484	-0.0993659347	-0.367497
C	-1.950061262	-0.4040648965	-1.2941507315	 0.271711
N	-2.5679475891	-0.1816827019	-2.2456158456	-0.323424
C	 1.074118912	 0.0258531678	-1.143159327	-0.232168
C	 1.8176546207	-1.2902397046	-0.8258176521	-0.214989
C	 1.7569921189	-1.447614885	 0.7226176801	-0.214172
C	 0.9398188485	-0.2390622862	 1.2371122416	-0.235401
H	 0.5188988379	 2.3647654516	 0.2739935718	 0.115975
H	-0.9247574693	 2.0349004263	-0.6964158929	 0.139074
H	-0.9785167822	 1.8465616006	 1.0615932586	 0.11236
H	-0.857359238	-1.7269000931	-0.1201583096	 0.148086
H	-1.7951504385	-0.5447262881	 0.779324843	 0.145991
H	 0.5696922114	 0.0129834838	-2.1136202213	 0.118623
H	 1.7815013383	 0.8628576329	-1.1631096899	 0.097984
H	 1.3315351545	-2.1382395174	-1.3180410856	 0.105171
H	 2.8446169033	-1.2690663976	-1.1989457065	 0.103679
H	 1.2764733711	-2.39179908	 0.9970433574	 0.101339
H	 2.7525120375	-1.4713772324	 1.1732344529	 0.103901
H	 1.6132864534	 0.5726452304	 1.5343460191	 0.099314
H	 0.3275061731	-0.4770490308	 2.1134703511	 0.092631
70.5261	100.2397	146.8086	176.8159	231.0511	279.7194	324.3404	376.7987	387.0852	399.1765	522.1811	585.7429	649.5933	733.7692	801.9833	816.8304	887.5024	891.4269	905.3521	929.6819	957.5092	962.6103	1001.0187	1047.9247	1065.0693	1078.4602	1134.9005	1174.8762	1210.26	1230.4734	1261.9278	1266.8488	1290.6863	1312.8601	1330.2423	1337.2927	1343.9826	1369.8323	1415.3138	1461.7392	1485.6353	1493.0513	1496.6597	1501.8443	1503.2434	1524.0784	2356.3538	3027.7178	3034.4288	3039.6872	3043.879	3047.9143	3060.1417	3072.9816	3082.3335	3084.886	3093.5701	3094.8052	3106.2493	3108.9615
CC1(CC#N)CCCC1	CC1(CC#N)CCCC1	
InChI=1S/C8H13N/c1-8(6-7-9)4-2-3-5-8/h2-6H2,1H3	InChI=1S/C8H13N/c1-8(6-7-9)4-2-3-5-8/h2-6H2,1H3
