19
gdb 97636	2.95131	0.68416	0.579	3.232	83.02	-0.2419	-0.0251	0.2168	1924.3736	0.155689	-423.005582	-422.994551	-422.993607	-423.044824	37.049	
C	-0.1118968454	 1.5638621927	 0.0588229052	-0.365047
C	 0.1521090079	 0.0492037435	-0.0247510132	-0.316526
C	 0.802739959	-0.4848326321	 1.1673488835	 0.097642
C	 1.3285560355	-0.8930729724	 2.1723334154	 0.021378
C	 2.0111020087	-1.4202672102	 3.3476358369	-0.275463
C	 1.9359431581	-2.9675612632	 3.3899165917	-0.070612
O	 2.688671814	-3.5107325547	 4.4534409017	-0.405862
C	 3.4811862406	-0.9867100926	 3.321491464	 0.188425
O	 4.0058358254	-0.3248171403	 4.1735921469	-0.244062
H	 0.8235317921	 2.1148129055	 0.1871581758	 0.13215
H	-0.5976483661	 1.9155537882	-0.856016318	 0.11739
H	-0.7607823123	 1.7988871743	 0.9066585566	 0.130429
H	-0.7947093361	-0.48127191	-0.188358133	 0.132399
H	 0.7733235169	-0.1682065388	-0.9029550331	 0.13294
H	 1.575996929	-1.009967636	 4.2681867894	 0.110939
H	 0.8799765747	-3.2702193235	 3.4199523887	 0.109804
H	 2.3684216185	-3.3749693803	 2.470790152	 0.126982
H	 2.3190083732	-3.1931738762	 5.2839992005	 0.291137
H	 4.0324735962	-1.3399231441	 2.4218215991	 0.085956
8.6639	53.9654	83.4076	87.9221	136.5245	162.1099	219.2349	254.2644	307.2479	323.7642	383.5524	455.7838	477.5307	515.7558	533.1209	774.133	784.2929	867.5874	956.4663	986.5813	1042.3654	1070.8563	1079.9639	1103.9667	1106.7801	1168.6667	1181.3826	1274.8378	1285.5097	1316.9673	1349.569	1378.9943	1402.3887	1409.6995	1420.9961	1473.4841	1494.9483	1505.0488	1505.5957	1843.237	2357.9776	2888.3098	3009.9304	3021.9647	3028.8706	3046.4059	3049.5173	3088.9611	3120.5525	3126.3522	3813.5909
CCC#CC(CO)C=O	CCC#C[C@@H](CO)C=O	
InChI=1S/C7H10O2/c1-2-3-4-7(5-8)6-9/h5,7,9H,2,6H2,1H3	InChI=1S/C7H10O2/c1-2-3-4-7(5-8)6-9/h5,7,9H,2,6H2,1H3/t7-/m1/s1
