20
gdb 62619	2.27503	1.84024	1.5885	2.512	77.37	-0.2326	0.0575	0.2901	981.9054	0.169965	-403.084129	-403.075716	-403.074772	-403.116205	33.951	
C	 0.0446308727	 1.5688291902	-0.0667119375	-0.470586
C	 0.061855419	 0.0420486421	 0.0058455875	 0.256916
C	-1.3503798311	-0.4982115227	 0.2572678129	-0.468694
C	 0.7678185811	-0.7530369307	-1.0995577983	-0.06404
C	 1.2734901428	-1.7848317099	-0.1715264353	-0.154898
N	 2.2468971476	-0.8593065774	-0.8134593492	-0.161416
C	 2.4518510502	-0.160569236	 0.5012423946	-0.196635
C	 1.0890886035	-0.6671455064	 0.9627459689	 0.334729
O	 0.8558738722	-0.7952951788	 2.3153339602	-0.475762
H	 0.9994381234	 1.9827454784	-0.3964508958	 0.125936
H	-0.7201429425	 1.9107050615	-0.7730386622	 0.114503
H	-0.1946325046	 2.0020723347	 0.9114322944	 0.119177
H	-2.0299305009	-0.2195244666	-0.554751333	 0.122893
H	-1.3615910418	-1.5907990106	 0.335502954	 0.118568
H	-1.7703767406	-0.078568313	 1.180644283	 0.111925
H	 0.4782252751	-0.8518861954	-2.1386981941	 0.091676
H	 1.3414303271	-2.8643033031	-0.2067134105	 0.097136
H	 3.2735242988	-0.6570944359	 1.0232962025	 0.114037
H	 2.6381460096	 0.916973821	 0.4571321651	 0.097844
H	-0.0671645417	-1.0362381215	 2.453497713	 0.286692
166.114	172.221	235.0895	251.3868	291.5986	317.1482	340.8562	367.5065	433.4104	497.2756	551.9637	628.267	655.729	757.7746	778.1413	807.9105	852.9137	889.9316	947.5889	955.7373	963.7762	985.7076	1000.5427	1015.6124	1050.4091	1095.8975	1139.4878	1151.3136	1184.9792	1191.1816	1216.8139	1269.226	1286.7367	1300.424	1347.5287	1387.3055	1403.2791	1418.1689	1484.747	1487.5482	1504.8037	1509.0725	1528.5276	3015.949	3031.553	3051.2299	3079.2623	3088.7744	3098.0302	3109.3123	3127.5336	3185.1042	3203.0135	3794.471
CC1(C)C2C3N2CC13O	CC1(C)[C@@H]2[C@H]3N2C[C@@]13O	
InChI=1S/C7H11NO/c1-6(2)4-5-7(6,9)3-8(4)5/h4-5,9H,3H2,1-2H3	InChI=1S/C7H11NO/c1-6(2)4-5-7(6,9)3-8(4)5/h4-5,9H,3H2,1-2H3/t4-,5+,7-,8?/m0/s1
