24
gdb 100876	2.25241	1.01098	0.74035	3.9963	90.22	-0.3088	0.0381	0.3469	1624.5372	0.215614	-368.447037	-368.435671	-368.434727	-368.484192	40.674	
C	 0.0152867054	 1.6279014181	 0.0961224923	-0.396617
C	-0.005459411	 0.0987399089	-0.0132662287	-0.183649
C	 0.7021128484	-0.4596558711	-1.2640025266	 0.03107
C	 2.1757563572	-0.030144156	-1.3215288138	-0.416443
C	 0.5817397512	-2.0150923438	-1.3328985152	-0.131903
C	-0.8691414762	-2.5578373821	-1.3363725724	-0.192789
C	-0.9555953372	-4.0846932499	-1.412658193	-0.399634
C	 1.2869428689	-2.5202712859	-2.5184935344	 0.28619
N	 1.8210115931	-2.9154409234	-3.4650206508	-0.348027
H	 1.0252509033	 2.0200068853	 0.2423443188	 0.124109
H	-0.3973479026	 2.0942384839	-0.8056296595	 0.118088
H	-0.5904607588	 1.9582915962	 0.9454115292	 0.116342
H	 0.4564783709	-0.3393016142	 0.8830026869	 0.095153
H	-1.0505601334	-0.2254626431	-0.0088472457	 0.103392
H	 0.1920990842	-0.0592842354	-2.1515413964	 0.087633
H	 2.6785517231	-0.444626798	-2.1987069087	 0.145695
H	 2.2674623783	 1.0571355927	-1.3712330665	 0.121793
H	 2.7165681476	-0.3709712874	-0.4300482341	 0.113283
H	 1.1007238333	-2.4315897549	-0.4570689026	 0.117519
H	-1.3632813561	-2.2169204227	-0.4231562796	 0.11169
H	-1.4098157645	-2.1080318497	-2.1776214435	 0.113481
H	-0.5032543643	-4.4668976506	-2.3320149153	 0.147505
H	-0.440933835	-4.5526834283	-0.5660995201	 0.117587
H	-1.999353906	-4.4110044389	-1.3882446103	 0.118532
40.3074	71.239	89.7094	148.0833	174.4637	192.1579	210.2345	242.8515	280.1459	292.651	335.4015	376.787	430.3369	445.1753	553.7765	594.4062	764.5982	779.618	842.8142	853.7834	941.4598	950.304	977.947	997.8778	1041.0671	1042.8691	1079.2349	1119.8314	1144.4794	1174.074	1180.3846	1255.6158	1280.4542	1302.2625	1338.1136	1352.4299	1362.8109	1367.479	1386.4695	1412.1975	1417.471	1419.502	1482.9587	1488.1578	1495.9948	1499.718	1500.3544	1506.9805	1508.3428	1516.3488	2348.6606	3000.547	3008.9406	3019.5368	3035.2849	3037.0731	3037.3658	3042.3985	3073.4716	3093.1405	3101.1449	3106.5337	3107.9481	3117.4211	3122.913	3129.6022
CCC(C)C(CC)C#N	CC[C@@H](C)[C@@H](CC)C#N	
InChI=1S/C8H15N/c1-4-7(3)8(5-2)6-9/h7-8H,4-5H2,1-3H3	InChI=1S/C8H15N/c1-4-7(3)8(5-2)6-9/h7-8H,4-5H2,1-3H3/t7-,8+/m1/s1
