12
gdb 6059	5.58832	0.83726	0.82792	15.0512	77.7	-0.207	-0.0825	0.1245	1340.2604	0.081224	-414.632712	-414.623253	-414.622309	-414.668877	30.434	
N	-0.0031595014	 1.3028730413	-0.2804495342	-0.512427
C	-0.012665787	-0.0109698323	 0.0029083152	 0.252407
N	 1.1516413328	-0.6235062642	 0.2781292566	-0.512427
H	 1.1427267857	-1.6065549282	 0.4900729924	 0.306933
H	 2.033414261	-0.1393647831	 0.2815316672	 0.281436
C	-1.1938125916	-0.7165994928	 0.0112246413	 0.156461
C	-2.2458382588	-1.3452370711	 0.0179666463	-0.034282
C	-3.5452326323	-2.1225294473	 0.0233776708	 0.299885
O	-3.8009121929	-2.5982482046	-1.0853764256	-0.413059
O	-4.0822124956	-2.1217354092	 1.1331391646	-0.413298
H	 0.8409882408	 1.8497646257	-0.2963157225	 0.281436
H	-0.8751247606	 1.759483646	-0.486770492	 0.306933
35.9909	44.2122	69.6336	122.5494	155.4886	236.6635	276.5444	319.5925	410.6466	515.2781	573.0875	575.1076	601.5068	704.782	738.2816	775.1946	947.7906	1051.3775	1099.3656	1303.6834	1521.7996	1536.2449	1650.9741	1670.1912	1779.8535	2230.4877	3608.8853	3616.3899	3740.34	3741.142
NC(=[NH2+])C#CC([O-])=O	[NH2]=C(N)C#CC(=O)[O]	
InChI=1S/C4H4N2O2/c5-3(6)1-2-4(7)8/h(H3,5,6)(H,7,8)	InChI=1S/C4H4N2O2/c5-3(6)1-2-4(7)8/h5-6H2
