20
gdb 103212	3.45182	1.31475	1.1365	1.9453	78.97	-0.2302	0.0671	0.2973	1133.8475	0.170683	-403.040926	-403.032623	-403.031679	-403.073521	32.593	
C	-0.1405919409	 1.6183741706	 0.0332827629	-0.475224
C	-0.0693798431	 0.0963208918	 0.0250732735	 0.299605
C	-1.4297414172	-0.5348268031	-0.2791176113	-0.138337
O	-1.9262623363	-0.1526262357	-1.5596894776	-0.422828
C	 1.148909761	-0.5571170457	-0.6688903924	-0.05323
C	 2.1382842689	-0.2377090935	 0.493280473	-0.077842
C	 2.5270904431	-1.7090416918	 0.5425659855	-0.191084
N	 1.0437284379	-1.8307117596	 0.2178652022	-0.16971
C	 0.7596268956	-0.5980071854	 1.1266885958	-0.060268
H	 0.8420354966	 2.0819349852	 0.1569102233	 0.110914
H	-0.5775589483	 1.9730036247	-0.9041031225	 0.135363
H	-0.7830640096	 1.9692067346	 0.8492085782	 0.115549
H	-1.3673136134	-1.6246828266	-0.1834787993	 0.117388
H	-2.1703174725	-0.1729308082	 0.4437806748	 0.101744
H	-1.4163846059	-0.6298265082	-2.2214823615	 0.284689
H	 1.390441556	-0.6487975452	-1.7316242494	 0.073206
H	 2.7421838845	 0.6618542025	 0.6450751481	 0.070404
H	 3.1789988522	-2.0996716951	-0.2461311318	 0.100249
H	 2.797358406	-2.1415698907	 1.5117224512	 0.101222
H	 0.5338520554	-0.7408369907	 2.1865029471	 0.078189
88.3563	181.1008	210.7623	235.676	269.2006	287.5673	345.231	390.1298	489.2901	540.9995	662.7724	739.8691	800.772	842.6347	846.1519	872.0997	891.3543	926.5565	949.0431	958.9567	1024.3036	1029.4915	1051.0141	1076.336	1103.6249	1107.068	1134.9326	1157.9753	1169.4898	1183.6592	1193.2775	1220.2736	1250.2731	1285.1758	1290.0248	1350.6739	1392.923	1406.3655	1417.5111	1487.0297	1504.0298	1506.5186	1522.8058	3029.5965	3033.2699	3035.7384	3055.9137	3073.3195	3076.6216	3086.4274	3092.1585	3099.8271	3121.711	3823.1934
CC1(CO)C2C3CN2C13	C[C@@]1(CO)[C@H]2[C@@H]3CN2[C@H]13	
InChI=1S/C7H11NO/c1-7(3-9)5-4-2-8(5)6(4)7/h4-6,9H,2-3H2,1H3	InChI=1S/C7H11NO/c1-7(3-9)5-4-2-8(5)6(4)7/h4-6,9H,2-3H2,1H3/t4-,5+,6-,7+
