19
gdb 95893	3.04599	1.12665	0.86458	3.7459	81.42	-0.2495	-0.057	0.1925	1335.4631	0.159161	-423.051411	-423.04274	-423.041796	-423.084887	32.222	
C	-0.0588347746	 1.5530416666	-0.0046236125	-0.404965
C	 0.0178215399	 0.0193840475	 0.0011718873	-0.044296
C	 0.7335365086	-0.5208104877	-1.2474676194	-0.089371
O	 0.981012418	-1.909170401	-1.1463360944	-0.247304
C	 1.9048748524	-2.2247249337	-0.1223909518	-0.167521
C	 1.5962824674	-1.516472983	 1.1730491361	 0.16297
C	 2.2911013686	-1.9548171632	 2.3915916797	 0.097836
O	 3.1116473745	-2.8452556884	 2.4246003428	-0.277516
C	 0.7156408497	-0.5077598387	 1.2233588488	-0.124622
H	 0.9418826592	 1.9980888655	 0.0039387429	 0.125192
H	-0.5813646981	 1.9132649736	-0.8964934375	 0.123689
H	-0.5987652205	 1.9236024911	 0.8722834487	 0.122311
H	-1.0096897311	-0.3748023789	 0.0030443609	 0.105225
H	 0.1191815694	-0.379350265	-2.1411883027	 0.11164
H	 1.6773329939	 0.0324324928	-1.3935322394	 0.089499
H	 1.8612214727	-3.3078366497	 0.023824541	 0.137103
H	 2.9362676297	-1.9891739284	-0.4365286652	 0.112034
H	 2.0052708364	-1.3959039203	 3.3116373079	 0.068998
H	 0.499710414	-0.0321609589	 2.1801626269	 0.0991
94.5368	109.6216	180.4333	209.1591	242.1373	290.5274	321.112	399.0793	430.5866	464.1075	543.6658	556.4319	711.2706	852.3893	876.2576	882.1371	949.5838	967.8806	986.4692	1021.519	1047.5297	1074.6799	1117.8642	1143.9812	1171.4122	1216.027	1243.2606	1303.3132	1309.8738	1334.9796	1354.1474	1392.507	1409.9084	1420.0497	1429.7142	1482.0483	1494.9505	1498.9712	1501.508	1704.3534	1785.1277	2872.1941	2958.6363	2964.1679	2994.8604	3033.5218	3086.5183	3088.6269	3104.3919	3106.5622	3128.9701
CC1COCC(C=O)=C1	C[C@H]1COCC(=C1)C=O	
InChI=1S/C7H10O2/c1-6-2-7(3-8)5-9-4-6/h2-3,6H,4-5H2,1H3	InChI=1S/C7H10O2/c1-6-2-7(3-8)5-9-4-6/h2-3,6H,4-5H2,1H3/t6-/m1/s1
