19
gdb 33105	6.39746	0.75037	0.67907	1.301	80.51	-0.1801	0.0591	0.2392	1651.7483	0.159545	-419.223387	-419.213664	-419.21272	-419.259173	34.521	
C	 0.629944829	 1.4566240734	-0.0245822564	-0.21944
O	 0.7424128379	 0.0567514573	-0.0063687949	-0.229486
C	-0.0112014101	-0.565904027	-1.0259624713	-0.169722
C	 0.1695942908	-2.0485815512	-0.9450356946	 0.259298
C	 0.9793493893	-2.7179242141	-0.0615065614	-0.169171
N	 0.8661537499	-4.0653622467	-0.3276268987	-0.273876
C	-0.000384529	-4.2648513195	-1.3715294188	 0.299111
N	-0.3022923516	-5.5840036402	-1.7751725012	-0.608578
C	-0.4492856182	-3.0288898485	-1.7817772039	-0.331785
H	 0.9900528749	 1.8855845934	-0.9740198626	 0.100582
H	-0.411071683	 1.7871729468	 0.1238907825	 0.100928
H	 1.2424733077	 1.8466503204	 0.7922970092	 0.123097
H	-1.0791944569	-0.2983423291	-0.9245479157	 0.089013
H	 0.3063826765	-0.1846317963	-2.0142810523	 0.088294
H	 1.6179758696	-2.3437904995	 0.7194700238	 0.125019
H	 1.262616528	-4.8116198774	 0.2163875144	 0.25555
H	-1.1778467811	-5.6059279018	-2.2836599641	 0.244813
H	 0.4122927217	-5.9719369775	-2.3853774014	 0.241564
H	-1.1286140952	-2.8465049027	-2.6016633925	 0.07479
28.1398	73.3055	118.0085	129.6977	197.6392	229.1281	304.7742	325.7842	349.5416	443.294	482.8991	631.8779	652.1437	678.7527	714.546	768.6334	773.4337	832.6947	982.2427	1002.1497	1008.4042	1049.4	1119.4539	1150.3639	1161.7489	1185.0313	1188.9558	1226.2621	1251.5733	1273.0234	1312.8381	1398.6744	1444.982	1472.9468	1484.0567	1485.6621	1503.1305	1527.5919	1560.5786	1633.3252	1657.7929	2924.1657	2935.841	2963.5925	3003.7224	3109.1762	3233.4108	3288.6921	3484.5425	3591.8086	3682.5709
COCC1=CNC(N)=C1	COCc1c[nH]c(N)c1	
InChI=1S/C6H10N2O/c1-9-4-5-2-6(7)8-3-5/h2-3,8H,4,7H2,1H3	InChI=1S/C6H10N2O/c1-9-4-5-2-6(7)8-3-5/h2-3,8H,4,7H2,1H3
