18
gdb 102903	3.3254	0.74029	0.63121	2.7718	78.6	-0.2714	0.0184	0.2898	1710.1144	0.145346	-401.927187	-401.916937	-401.915992	-401.963301	35.968	
O	 0.1252235027	 1.4264666362	 0.0088227944	-0.414831
C	 0.0662817383	 0.0211284602	-0.0243415732	-0.075262
C	-1.3859440333	-0.519829394	-0.0187100266	-0.157677
C	-1.4268816889	-2.056838107	-0.1277865067	-0.196225
C	-2.8574444989	-2.6251126176	-0.2106600199	-0.371447
C	-2.8676247529	-4.0753187727	-0.3515394967	 0.286628
C	-2.8456769838	-5.2711541459	-0.4674383523	-0.421609
C	-2.0636965751	-0.0405650871	 1.1899211336	 0.267338
N	-2.5549534252	 0.3570889273	 2.1585488304	-0.332654
H	-0.1953486671	 1.7231423332	 0.8683456756	 0.299832
H	 0.5410102546	-0.2880402154	-0.9603932124	 0.124215
H	 0.6247089523	-0.4386973166	 0.8045729306	 0.109368
H	-1.9031586842	-0.0754264939	-0.8785390499	 0.135817
H	-0.8692117054	-2.3484596429	-1.0236260997	 0.123956
H	-0.9099079091	-2.5007936175	 0.7290165072	 0.131236
H	-3.4184705689	-2.3370766571	 0.6871036182	 0.156932
H	-3.3839002205	-2.1696918399	-1.0598094903	 0.134955
H	-2.8424211746	-6.3282557192	-0.5677396822	 0.199427
58.5188	81.7107	92.2725	111.6753	172.5149	203.1816	251.0502	333.217	349.7433	373.029	405.228	499.9667	566.9481	624.2816	634.7179	648.9708	757.7229	811.5927	948.7446	950.955	1013.7125	1067.1465	1078.9873	1082.2907	1099.9585	1184.086	1213.7925	1262.9162	1311.3786	1320.8892	1368.2078	1379.8547	1396.169	1422.1309	1474.427	1491.2653	1504.4815	2242.2951	2348.4558	2997.4544	3020.9992	3039.3251	3052.0802	3055.9555	3089.0181	3100.833	3506.3312	3799.0769
OCC(CCC#C)C#N	OC[C@@H](CCC#C)C#N	
InChI=1S/C7H9NO/c1-2-3-4-7(5-8)6-9/h1,7,9H,3-4,6H2	InChI=1S/C7H9NO/c1-2-3-4-7(5-8)6-9/h1,7,9H,3-4,6H2/t7-/m0/s1
