19
gdb 84667	2.37184	1.72569	1.43946	1.3205	82.57	-0.2288	0.0014	0.2302	1009.2351	0.161414	-385.873603	-385.865818	-385.864874	-385.905399	31.459	
O	-0.062278224	 1.5297390129	 0.1155490007	-0.421106
C	 0.0189986644	 0.0904966248	 0.0085269106	 0.022915
C	 0.886187339	-0.5309822414	 1.0811253709	-0.144683
C	 0.5881620007	-0.7035553392	 2.3756929176	-0.022105
C	-0.6381669881	-0.3468184244	 3.1094500847	-0.075442
C	-1.3929199119	 0.9437177068	 2.9058647992	-0.300612
C	-2.0333451006	-0.3342496986	 2.4274712017	-0.075391
C	-2.2148638236	-0.6571241795	 1.0005324315	-0.020727
C	-1.380666794	-0.4733218845	-0.0293100756	-0.092171
H	 0.8383598314	 1.8502595344	 0.2452810912	 0.273559
H	 0.4853303283	-0.147727693	-0.9581210116	 0.069341
H	 1.8582317125	-0.8833359333	 0.7435893943	 0.086081
H	 1.3407023542	-1.1978774735	 2.9877521516	 0.088304
H	-0.6592700569	-0.732166795	 4.1236792907	 0.087029
H	-1.815784149	 1.4120152047	 3.7879953578	 0.108124
H	-1.023873876	 1.6134096573	 2.1391125723	 0.153386
H	-2.8255297321	-0.7189610923	 3.0614992483	 0.087273
H	-3.1750256317	-1.1164341251	 0.7725428795	 0.087181
H	-1.7293532725	-0.7732234412	-1.0133752755	 0.089046
130.0121	180.7844	229.8718	293.4878	307.7291	347.5696	374.2942	519.1852	593.0544	602.2172	688.7758	711.3804	753.3638	760.764	793.7955	814.7221	886.9552	907.221	924.2943	968.5827	994.3575	1001.7591	1034.0558	1040.6763	1104.9933	1108.4655	1138.0528	1156.7048	1221.9671	1256.2891	1274.2562	1289.9744	1366.0517	1389.7241	1415.5749	1430.0743	1444.1315	1452.2754	1482.147	1704.7075	1713.5631	2987.972	3126.6461	3131.4238	3134.0155	3149.5975	3156.2268	3162.6448	3169.4505	3241.3815	3785.3221
OC1C=CC2CC2C=C1	O[C@H]1C=C[C@H]2C[C@H]2C=C1	
InChI=1S/C8H10O/c9-8-3-1-6-5-7(6)2-4-8/h1-4,6-9H,5H2	InChI=1S/C8H10O/c9-8-3-1-6-5-7(6)2-4-8/h1-4,6-9H,5H2/t6-,7+,8-
