18
gdb 109520	1.9324	1.39443	1.09837	3.9579	82.66	-0.2619	0.0112	0.2731	1217.9269	0.145909	-364.787332	-364.777802	-364.776858	-364.82195	34.672	
C	-0.0187872253	 1.4791500165	 0.3281254089	-0.383642
C	-0.0308141576	 0.0554772696	-0.2395550253	-0.209067
C	-1.3869652628	-0.6043072814	-0.1186735748	-0.02392
C	-1.5494935012	-2.1105840034	-0.1248877986	-0.243651
C	-0.4200548121	-2.9863462137	-0.2167232561	 0.350196
C	 0.5179745806	-3.7326544359	-0.306872118	-0.447649
C	-1.8197131395	-1.3036656244	 1.1601821859	-0.200998
C	-0.9224683264	-1.4031893556	 2.2752934322	 0.307843
N	-0.2112091119	-1.4683911955	 3.1854749467	-0.343515
H	 0.9642059543	 1.9399515047	 0.1958720595	 0.121488
H	-0.7562119934	 2.1153997077	-0.1736470557	 0.113099
H	-0.2464623614	 1.4777826937	 1.3984609389	 0.135704
H	 0.2494709834	 0.0709767703	-1.299875701	 0.108879
H	 0.7214290765	-0.5564602442	 0.26697639	 0.133884
H	-2.1953351007	-0.0671581706	-0.6085009634	 0.10669
H	-2.4530428246	-2.4881907409	-0.5949536447	 0.129373
H	 1.3485417154	-4.3911926377	-0.373057855	 0.206539
H	-2.8623889733	-1.2175267792	 1.4468383005	 0.138747
74.121	93.6235	109.5964	148.2024	224.3399	239.6813	259.6244	354.1393	395.7578	449.2241	592.2909	611.5055	630.7556	655.2482	668.0523	745.5414	785.6097	802.3685	828.348	950.6238	984.7961	990.7373	1049.1141	1090.4398	1108.512	1141.7506	1171.8082	1238.2199	1290.5976	1337.2733	1363.0427	1384.5335	1414.2774	1427.456	1485.3106	1500.4685	1506.7449	2242.3733	2353.8369	3035.8149	3038.0722	3084.6924	3107.5898	3116.1645	3140.284	3149.5197	3170.9305	3503.4852
CCC1C(C#C)C1C#N	CC[C@H]1[C@@H](C#C)[C@H]1C#N	
InChI=1S/C8H9N/c1-3-6-7(4-2)8(6)5-9/h1,6-8H,4H2,2H3	InChI=1S/C8H9N/c1-3-6-7(4-2)8(6)5-9/h1,6-8H,4H2,2H3/t6-,7+,8-/m1/s1
