21
gdb 80548	2.76282	1.36078	1.21907	2.59	77.71	-0.2355	0.0635	0.299	1135.4629	0.184126	-424.211446	-424.203226	-424.202282	-424.243482	33.708	
C	-0.1255828995	 1.5001020158	 0.0364921393	-0.416804
C	 0.0892827986	-0.0118678224	 0.0809340586	 0.03402
C	 1.0076285507	-0.5884246417	-1.0657422534	-0.249056
C	 2.0421516375	-1.3420751988	-0.2139374312	-0.116044
C	 1.1204964046	-2.0375212153	 0.8514167808	 0.183281
O	 1.7159727659	-2.9099179317	 1.7671838742	-0.465855
C	 0.87617379	-0.5501730675	 1.2944372535	-0.090044
C	 2.3486363972	-0.2765111045	 0.8821761936	 0.12813
O	 3.2554096927	-0.6768271349	 1.9062455933	-0.455837
H	 0.8188255365	 2.0517834358	 0.0888412966	 0.115139
H	-0.6251314325	 1.792811721	-0.8936606972	 0.114368
H	-0.7524672291	 1.8344577505	 0.8701624657	 0.115467
H	-0.8926823436	-0.4971495354	 0.0507177725	 0.076379
H	 0.4662484372	-1.249617374	-1.7478094249	 0.102432
H	 1.4599022239	 0.210327222	-1.6633006541	 0.095524
H	 2.838946206	-1.8858306668	-0.725626526	 0.055693
H	 0.2458016972	-2.5591720493	 0.4488020057	 0.071727
H	 2.4514966977	-2.4242624444	 2.1666113782	 0.28132
H	 0.5159232494	-0.3027880132	 2.2938730011	 0.0661
H	 2.604377731	 0.7334547877	 0.5372685948	 0.064993
H	 4.1345675886	-0.7342025227	 1.5169148288	 0.289067
171.729	212.1737	236.2396	277.8439	296.3276	317.9443	361.8092	394.9447	443.9168	459.4044	579.8835	616.9738	627.844	802.7375	835.1071	877.9343	905.8113	911.0409	936.1344	953.4651	965.5234	1030.7406	1036.1338	1046.928	1064.7111	1119.0281	1124.2291	1152.6111	1192.3227	1201.8656	1209.2542	1226.9554	1248.6029	1276.6996	1293.099	1316.5849	1328.2661	1346.8541	1384.0846	1413.6903	1430.0588	1485.4311	1497.865	1499.144	1502.5725	3014.6825	3029.0203	3034.4052	3044.107	3054.0514	3090.8611	3093.7698	3097.0636	3101.0393	3112.7983	3729.9216	3807.552
CC1CC2C(O)C1C2O	C[C@H]1C[C@@H]2[C@@H](O)[C@H]1[C@H]2O	
InChI=1S/C7H12O2/c1-3-2-4-6(8)5(3)7(4)9/h3-9H,2H2,1H3	InChI=1S/C7H12O2/c1-3-2-4-6(8)5(3)7(4)9/h3-9H,2H2,1H3/t3-,4-,5+,6-,7+/m0/s1
