22
gdb 63908	2.92787	1.38261	1.2523	1.1437	87.64	-0.2146	0.0163	0.2308	1139.4491	0.194937	-367.198799	-367.190197	-367.189253	-367.2313	34.656	
C	-0.1048993593	 1.5651868198	 0.0185348636	-0.424142
C	-0.0296834511	 0.0289384714	 0.0122637798	 0.225261
C	-1.4579995029	-0.5578383165	 0.0506676325	-0.404438
C	 0.7100688091	-0.4233960238	-1.2655769332	-0.179998
N	 1.0222806484	-1.8653256722	-1.2869995101	-0.105292
C	 2.4373299963	-2.2206742979	-1.154695413	-0.248273
C	 1.4952878019	-2.4304617809	-0.0179368005	-0.049593
C	 1.4854280917	-1.567891306	 1.1887941164	-0.095344
C	 0.7579762927	-0.4521584217	 1.2174818037	-0.077075
H	 0.8937814529	 2.0138272648	 0.0446815248	 0.114083
H	-0.6193663304	 1.9358899636	-0.8749358598	 0.112501
H	-0.6572655735	 1.9237211989	 0.8940495056	 0.111497
H	-2.0600536637	-0.1606427667	-0.774612446	 0.108662
H	-1.4359168478	-1.6469393097	-0.0372190553	 0.130688
H	-1.9614656988	-0.3020983858	 0.9889521458	 0.107764
H	 0.0940779389	-0.2055567905	-2.1469888758	 0.097266
H	 1.6256352874	 0.1776202276	-1.3574235287	 0.087533
H	 2.7735295044	-3.0645017292	-1.752249464	 0.110803
H	 3.1546302107	-1.4066934414	-1.0639984569	 0.108576
H	 1.1518474454	-3.4513688456	 0.1557155388	 0.095725
H	 2.0335589502	-1.9103828301	 2.0629269096	 0.090481
H	 0.7043668674	 0.1505265119	 2.1215127025	 0.083316
109.3566	168.368	232.9423	258.3052	286.4365	306.3751	356.5909	370.1843	441.5411	491.1832	504.5531	573.757	688.0748	746.4195	765.9875	812.4301	873.6149	911.8059	926.3794	944.921	953.0794	990.8862	1004.8206	1036.6094	1050.7139	1071.7843	1104.24	1114.238	1150.184	1185.2868	1201.4616	1213.7996	1271.7683	1295.116	1312.0338	1355.5619	1393.5631	1397.6764	1415.1992	1431.0875	1483.359	1485.5041	1494.7509	1501.3715	1507.8935	1515.8036	1706.6191	2994.9783	3023.9738	3029.5466	3039.2162	3086.5511	3089.9067	3091.3427	3095.7772	3097.5335	3120.731	3141.3063	3165.6253	3177.3977
CC1(C)CN2CC2C=C1	CC1(C)CN2C[C@H]2C=C1	
InChI=1S/C8H13N/c1-8(2)4-3-7-5-9(7)6-8/h3-4,7H,5-6H2,1-2H3	InChI=1S/C8H13N/c1-8(2)4-3-7-5-9(7)6-8/h3-4,7H,5-6H2,1-2H3/t7-,9?/m1/s1
