16
gdb 75223	3.94677	1.15321	1.02994	4.5648	75.87	-0.2594	-0.0169	0.2425	1171.9707	0.12387	-400.755866	-400.74789	-400.746946	-400.788301	30.006	
C	 0.0228502788	 1.510019808	 0.073154587	-0.502422
C	-0.0064105082	 0.0177292872	-0.0133895872	 0.338871
C	 0.0347136794	-0.7552742921	-1.1047888888	-0.182804
C	-0.040277843	-2.2346523139	-0.7968520244	-0.341469
C	-0.0613612537	-2.2579913251	 0.7315664925	 0.288362
O	 1.102498034	-1.705880667	 1.3518284601	-0.27624
C	-0.0523140766	-0.8528775636	 1.206018772	-0.130001
C	-0.7086273579	-3.3357961988	 1.4371356527	 0.225877
N	-1.2398376681	-4.2124747169	 1.9715297079	-0.33555
H	 0.9029517178	 1.8582700663	 0.6271357736	 0.141743
H	 0.0417316242	 1.9653278732	-0.9200694142	 0.133141
H	-0.8566062868	 1.8932661703	 0.6052357203	 0.13473
H	 0.1402678842	-0.387525812	-2.1193966936	 0.10824
H	-0.9458334884	-2.6991106418	-1.2049389538	 0.136367
H	 0.8155454048	-2.796091879	-1.1884520387	 0.142026
H	-0.5081858404	-0.5370811546	 2.1399680947	 0.11913
112.5062	149.6758	174.3523	223.0316	296.5964	332.2999	380.7744	473.5169	559.8142	566.5163	607.9	630.8394	753.4805	814.1225	863.0507	905.2297	934.9122	957.5785	993.6375	1030.4872	1059.0879	1072.8894	1168.7605	1190.6808	1199.0783	1258.1388	1311.2051	1339.2208	1404.4909	1417.0827	1462.6563	1478.8449	1488.6019	1705.6798	2359.36	3024.146	3040.1542	3073.097	3077.0149	3119.1594	3165.5698	3197.5457
CC1=CCC2(OC12)C#N	CC1=CC[C@]2(O[C@@H]12)C#N	
InChI=1S/C7H7NO/c1-5-2-3-7(4-8)6(5)9-7/h2,6H,3H2,1H3	InChI=1S/C7H7NO/c1-5-2-3-7(4-8)6(5)9-7/h2,6H,3H2,1H3/t6-,7-/m0/s1
