16
gdb 34766	2.14301	1.83837	1.2209	4.4004	77.84	-0.2556	0.025	0.2806	1031.2252	0.124269	-363.560508	-363.552537	-363.551593	-363.593058	30.363	
C	-0.1955876776	-1.1929443239	 0.0945852037	-0.424082
C	-0.0797142666	 0.0035988342	 0.0684687007	 0.314612
C	 0.0336690072	 1.4345088228	 0.0536971751	-0.199976
C	 0.4855437529	 2.249088909	 1.2475865543	-0.069294
C	 1.5548306582	 1.4846313689	 2.0359960487	-0.263424
C	 2.4795329804	 1.530607859	 0.7618709882	-0.154161
C	 3.0822560929	 0.3036096946	 0.2536802717	 0.285691
N	 3.6001165166	-0.6526644328	-0.1382317384	-0.334568
C	 1.3379064847	 2.205727862	-0.0168247814	-0.086175
H	-0.2701394488	-2.2523434576	 0.0991899422	 0.205155
H	-0.7462600383	 1.9353220626	-0.5156539197	 0.123351
H	-0.1211668016	 3.0581840197	 1.6336391132	 0.104747
H	 1.9841073388	 2.0453095948	 2.8665973364	 0.120485
H	 1.2646577421	 0.4886025913	 2.3749833866	 0.136874
H	 3.2849090257	 2.2514452754	 0.926551194	 0.132644
H	 1.4905334633	 2.95777498	-0.7809073153	 0.108122
94.2232	123.8532	163.3889	214.8141	321.3499	356.8162	507.4956	510.369	555.6411	607.5006	612.9561	667.6852	726.4763	768.2351	795.4428	819.6954	920.7406	961.6881	978.7414	1001.9273	1017.4128	1062.2132	1077.5211	1088.069	1149.0134	1173.6447	1219.7111	1258.2931	1291.5366	1333.7803	1342.6904	1417.3101	1485.3958	2238.4492	2355.3674	3075.2041	3084.2014	3136.3783	3143.2546	3186.8885	3199.5516	3502.8147
C#CC1C2CC(C#N)C12	C#C[C@H]1[C@H]2C[C@@H](C#N)[C@@H]12	
InChI=1S/C8H7N/c1-2-6-7-3-5(4-9)8(6)7/h1,5-8H,3H2	InChI=1S/C8H7N/c1-2-6-7-3-5(4-9)8(6)7/h1,5-8H,3H2/t5-,6-,7+,8-/m0/s1
