16
gdb 53880	2.64008	1.06128	0.9006	3.0828	69.4	-0.248	-0.0756	0.1724	1310.9016	0.123538	-471.210346	-471.200976	-471.200032	-471.246072	32.819	
N	-1.0453144067	 0.0545144487	 1.0885878059	-0.544594
C	-0.5114005111	-0.1834391672	-0.1559617847	 0.250957
N	-0.07784231	 0.7523074472	-0.9070719793	-0.483223
C	-0.3547728941	-1.6514571048	-0.5651495263	 0.333758
O	 0.1483359502	-1.9321912529	-1.6266028991	-0.286271
C	-0.7785974617	-2.7732480241	 0.3929596322	-0.208114
O	-2.0864901171	-2.5826227743	 0.9293487824	-0.193633
C	-3.1310272021	-3.0130599816	 0.1732512554	 0.130816
N	-4.2999492482	-2.6863345559	 0.5020318689	-0.431214
H	-1.2184298177	 1.0315604702	 1.2773759533	 0.26049
H	-1.7533385826	-0.5826974471	 1.4235653979	 0.280656
H	 0.3473253915	 0.333771874	-1.7363796029	 0.236262
H	-0.6980652356	-3.7238950858	-0.1437178478	 0.143087
H	-0.0992717706	-2.7882143646	 1.2509182054	 0.157042
H	-2.8239253022	-3.6428627962	-0.6713411745	 0.112031
H	-4.9778599622	-3.1058814656	-0.1305470067	 0.241949
44.1168	55.4213	83.5254	111.483	231.3436	287.3703	347.8894	383.8747	422.0065	490.9234	528.3102	576.5189	627.5433	663.1232	710.9738	761.2101	826.5258	892.7499	956.6343	1013.3183	1041.5894	1111.2673	1135.5492	1151.6285	1193.9167	1240.9216	1318.1524	1368.1992	1411.4586	1430.5857	1477.0592	1624.8959	1711.592	1752.011	1809.635	3042.9759	3051.9472	3109.9641	3471.5469	3525.9552	3558.5781	3672.8285
NC(=N)C(=O)COC=N	NC(=N)C(=O)CO[CH][NH]	
InChI=1S/C4H7N3O2/c5-2-9-1-3(8)4(6)7/h2,5H,1H2,(H3,6,7)	InChI=1S/C4H7N3O2/c5-2-9-1-3(8)4(6)7/h2,5H,1H2,(H3,6,7)
