19
gdb 39893	2.70806	1.80081	1.61089	1.9822	78.23	-0.2397	0.0189	0.2586	937.0855	0.161872	-385.874302	-385.867432	-385.866488	-385.905138	28.827	
C	 0.0183221975	 1.4767001465	 0.0100689928	-0.301289
O	 1.1834343405	 0.6274816924	-0.0062142164	-0.30902
C	-0.0888855761	 0.0215209316	 0.0029838929	 0.545125
C	-0.5525035475	-0.8956109153	 1.1389152652	-0.159575
C	-2.0802357832	-0.9524528711	 0.8002426236	-0.209016
C	-2.0957365847	-0.9436827412	-0.7655227618	-0.209014
C	-0.5750051607	-0.882919402	-1.1337166805	-0.159581
C	 0.035998804	-2.1999381351	-0.6796284026	-0.075057
C	 0.0492685112	-2.2073979179	 0.6581408079	-0.075056
H	-0.1366426844	 2.0333011402	 0.9340897223	 0.112337
H	-0.154829497	 2.0435969039	-0.9044143741	 0.112338
H	-0.3126841651	-0.5840593127	 2.1552987147	 0.068173
H	-2.553639791	-1.8409272233	 1.2228132294	 0.102549
H	-2.5947441941	-0.0751464821	 1.2033115442	 0.097876
H	-2.5775394001	-1.8274046679	-1.1885643641	 0.102549
H	-2.6179955717	-0.0619552614	-1.1484782952	 0.097876
H	-0.3553258842	-0.5600163534	-2.1511095608	 0.068173
H	 0.3162764213	-3.0061643727	-1.346022096	 0.095307
H	 0.3426170951	-3.0209755887	 1.3098114384	 0.095306
164.9617	226.6987	292.0181	333.7307	348.8194	486.4461	526.809	594.7366	705.209	735.9928	777.1986	804.8782	862.4954	867.6581	874.1829	909.1394	923.5502	944.6597	956.3697	969.9666	971.0009	1021.7527	1056.2854	1113.5392	1118.5856	1131.2718	1158.5469	1178.6261	1192.1063	1203.521	1232.4544	1264.1782	1284.1485	1297.9465	1321.6718	1355.6375	1447.8103	1486.2914	1503.6256	1544.1062	1640.2598	3052.0685	3063.7455	3075.1552	3099.2672	3116.5754	3118.6031	3121.2859	3159.3437	3196.8392	3221.7747
C1OC11C2CCC1C=C2	C1O[C@]21[C@H]1CC[C@@H]2C=C1	
InChI=1S/C8H10O/c1-2-7-4-3-6(1)8(7)5-9-8/h1-2,6-7H,3-5H2	InChI=1S/C8H10O/c1-2-7-4-3-6(1)8(7)5-9-8/h1-2,6-7H,3-5H2/t6-,7+,8-
