15
gdb 127178	4.33763	1.09909	0.8818	6.0474	70.47	-0.2299	-0.0152	0.2148	1224.4372	0.114029	-450.144358	-450.13631	-450.135365	-450.177798	28.644	
C	 0.0323464254	 1.4621762667	 0.0019414214	-0.358661
N	-0.0020055936	 0.0082618821	-0.0059456208	-0.187437
C	-0.0462801966	-0.6823258898	 1.1916970929	 0.148018
O	-0.0591896333	-0.1449373654	 2.2765295568	-0.336401
C	 0.011539533	-0.6500671946	-1.2312099356	 0.439607
C	 0.0564453613	-0.1036488272	-2.4970306547	-0.192617
N	 0.0486086127	-1.1980832306	-3.3031337451	-0.157113
N	 0.0026281553	-2.3348855872	-2.6037689615	-0.098532
N	-0.0201194004	-2.0090620353	-1.3409172755	-0.274568
H	 0.9452518251	 1.831011071	-0.4792881744	 0.131358
H	-0.8367535079	 1.8731432762	-0.5241142265	 0.131373
H	 0.0138157673	 1.7812504428	 1.0429803403	 0.177498
H	-0.0682271134	-1.7701723813	 1.0391987334	 0.136171
H	 0.09116977	 0.9029245866	-2.8722411211	 0.152459
H	 0.0721944551	-1.239154864	-4.3094507596	 0.288846
44.5342	128.9205	177.1036	188.4365	298.8721	321.8667	378.5384	461.9205	479.6431	561.304	683.4959	717.8921	758.2426	813.0298	964.3122	992.8081	1045.2523	1051.4729	1073.7369	1142.0157	1159.8871	1184.0292	1282.1932	1292.9808	1354.4065	1395.9293	1432.5951	1436.1186	1497.7381	1508.0707	1515.1382	1623.7332	1793.9915	3025.5626	3054.6188	3080.3879	3168.4649	3302.6793	3661.0474
CN(C=O)C1=CNN=N1	CN(C=O)c1c[nH]nn1	
InChI=1S/C4H6N4O/c1-8(3-9)4-2-5-7-6-4/h2-3H,1H3,(H,5,6,7)	InChI=1S/C4H6N4O/c1-8(3-9)4-2-5-7-6-4/h2-3H,1H3,(H,5,6,7)
