20
gdb 32203	2.6327	1.41441	0.99271	1.6043	90.63	-0.1968	0.0105	0.2073	1236.8734	0.173258	-366.089015	-366.080404	-366.07946	-366.121934	33.806	
C	 0.0767551723	 1.5524076028	-0.0100641838	-0.370727
C	 0.0044220323	 0.013882672	 0.04426949	-0.315168
C	-1.4081006908	-0.5266358379	 0.0225830997	 0.272627
C	-2.0512261856	-0.8744272428	 1.2106159316	-0.181339
C	-3.351519077	-1.3712988293	 1.2318661274	-0.134137
C	-4.0311392548	-1.5295797048	 0.027629992	-0.109088
C	-3.4154188821	-1.1882525387	-1.1699935179	-0.169316
C	-2.1080902867	-0.6857422635	-1.1919098687	 0.222172
N	-1.487080812	-0.4153929552	-2.4190818731	-0.593889
H	 1.1153303311	 1.8987594689	-0.0100871229	 0.113348
H	-0.4101099453	 1.9538114543	-0.9059395762	 0.109088
H	-0.4304525941	 1.9926266063	 0.8538089362	 0.124791
H	 0.5780484683	-0.4105661214	-0.7892477192	 0.107361
H	 0.5014079058	-0.3280340256	 0.9584267619	 0.104095
H	-1.5074917524	-0.7555285276	 2.1442381449	 0.081376
H	-3.8221030908	-1.6356061193	 2.1721874849	 0.085428
H	-5.0450407112	-1.9164402509	 0.016125303	 0.089121
H	-3.9477483118	-1.3123998133	-2.1093912406	 0.075051
H	-2.13278674	-0.3054172355	-3.1879026937	 0.242066
H	-0.8155704551	 0.3372412816	-2.4053938858	 0.24714
99.6595	125.4993	204.8146	223.2289	283.2054	335.1734	342.7547	423.4794	477.6446	524.5041	567.1907	595.5945	636.4242	736.1651	764.3193	771.3008	793.7838	853.5076	867.6504	924.9748	951.5161	968.9614	1049.1025	1058.4383	1076.7438	1098.1555	1170.0913	1182.871	1214.1475	1269.4017	1308.0706	1336.326	1356.258	1358.0118	1410.1364	1485.896	1490.8525	1497.3208	1509.717	1532.556	1623.109	1642.9292	1662.8044	3026.6996	3031.2054	3065.3234	3097.3201	3109.801	3153.6986	3157.4583	3178.3457	3196.978	3567.0535	3663.2038
CCC1=CC=CC=C1N	CCc1ccccc1N	
InChI=1S/C8H11N/c1-2-7-5-3-4-6-8(7)9/h3-6H,2,9H2,1H3	InChI=1S/C8H11N/c1-2-7-5-3-4-6-8(7)9/h3-6H,2,9H2,1H3
