16
gdb 83073	2.68129	1.54967	1.28646	2.3891	69.55	-0.2485	-0.0317	0.2168	1015.099	0.123746	-437.893695	-437.885727	-437.884783	-437.926306	29.307	
C	-0.0434042918	 1.6239993698	 0.207698463	-0.42009
C	 0.0142925874	 0.120178448	 0.3200465446	-0.088703
C	 1.1547950841	-0.7136784846	-0.1360750474	 0.021485
O	 2.4167702057	-0.0833887994	-0.2696369281	-0.203417
C	 2.7550610496	 0.3397491648	 0.9786697849	 0.081117
N	 1.9784548627	 0.0732995655	 1.9500653139	-0.30326
C	 0.8487523482	-0.6154116309	 1.3813950347	 0.191264
C	 0.2248697382	-1.7069162918	 2.1636081114	 0.083812
O	-0.6972321695	-2.3779535855	 1.7632555164	-0.275981
H	 0.9114194098	 2.0972893305	 0.4451026053	 0.136304
H	-0.3177133248	 1.9148389686	-0.8113125994	 0.131741
H	-0.7950064812	 2.0282560571	 0.8917159781	 0.134404
H	-0.9313719033	-0.4000301802	 0.1858985804	 0.129966
H	 1.0484461291	-1.6056585499	-0.7403043286	 0.133969
H	 3.6936425917	 0.8767757464	 1.0361158091	 0.153048
H	 0.6857080242	-1.8664395083	 3.1608242318	 0.094343
113.0242	135.1315	195.946	201.2715	228.6442	243.4569	424.253	516.99	554.1903	658.1322	672.5074	718.6719	747.3976	881.2378	895.1624	945.0172	967.1586	988.9736	1007.7638	1061.7946	1094.1789	1118.7746	1127.9475	1142.8652	1237.4964	1256.4588	1313.4016	1357.1621	1411.4519	1419.4599	1435.3185	1489.7586	1499.0406	1661.6218	1805.9065	2919.6007	3046.9103	3110.1741	3127.736	3151.6919	3200.3697	3234.3224
CC1C2OC=NC12C=O	C[C@H]1[C@H]2OC=N[C@@]12C=O	
InChI=1S/C6H7NO2/c1-4-5-6(4,2-8)7-3-9-5/h2-5H,1H3	InChI=1S/C6H7NO2/c1-4-5-6(4,2-8)7-3-9-5/h2-5H,1H3/t4-,5+,6-/m0/s1
