18
gdb 105358	2.83569	1.3925	1.16958	2.8507	71.59	-0.2475	-0.0401	0.2074	1091.9925	0.146915	-439.036315	-439.027905	-439.026961	-439.069361	31.762	
O	 0.1644784688	 1.4090704973	-0.1058103843	-0.424216
C	 0.1719095986	 0.013505829	 0.1093588766	-0.13555
C	-1.2433752944	-0.563079676	 0.0315700574	 0.210551
C	-2.0340736482	-0.4316310905	-1.3139154715	-0.307467
C	-2.142004123	-1.9528488859	-1.2905781641	-0.010723
C	-0.8159784828	-2.5844582494	-1.2228849463	-0.240281
N	-1.3950771223	-2.0723014	 0.0359906252	-0.18229
C	-2.1034250641	-0.0350675585	 1.1629263099	 0.145117
O	-1.8852461051	 0.9846055904	 1.7744013361	-0.27642
H	-0.3563477727	 1.7809543794	 0.6192291077	 0.298044
H	 0.8065719538	-0.4188864661	-0.6687556469	 0.106478
H	 0.6146977901	-0.2566181519	 1.0806790876	 0.104407
H	-2.9915527759	 0.0836351427	-1.209811303	 0.121819
H	-1.4853762109	 0.0177933713	-2.1448360768	 0.130625
H	-3.0490696404	-2.5183546263	-1.4746955046	 0.103543
H	-0.7741286791	-3.669010193	-1.2317988797	 0.130948
H	 0.0455177777	-2.0982018999	-1.6712364151	 0.122512
H	-2.9897592602	-0.6645748125	 1.3907038322	 0.102902
87.7431	123.6186	184.455	199.6285	256.1491	313.6036	380.184	416.7388	469.3335	502.5091	588.3755	729.343	753.5598	792.1899	839.8319	891.8665	927.892	954.9797	972.134	1002.7022	1046.0686	1061.3313	1091.5026	1110.3606	1127.5527	1136.8731	1146.8425	1217.6552	1249.8243	1262.689	1311.8201	1365.7717	1376.8403	1414.2911	1451.8198	1486.987	1496.2699	1512.4458	1807.6239	2914.8597	2988.8309	3067.6208	3083.9393	3117.9141	3122.7296	3171.6975	3208.4949	3750.7597
OCC1(CC2CN12)C=O	OC[C@]1(C[C@H]2CN12)C=O	
InChI=1S/C6H9NO2/c8-3-6(4-9)1-5-2-7(5)6/h3,5,9H,1-2,4H2	InChI=1S/C6H9NO2/c8-3-6(4-9)1-5-2-7(5)6/h3,5,9H,1-2,4H2/t5-,6-,7?/m0/s1
