16
gdb 129585	3.74382	1.30659	1.05442	6.6868	70.03	-0.2655	0.0006	0.2661	1106.9668	0.126314	-430.214562	-430.206719	-430.205775	-430.247657	29.257	
N	-0.110959484	 0.8822925244	 0.0139124779	-0.603147
H	-0.5485470095	 0.0222676978	-0.293418256	 0.243887
H	 0.886275403	 0.7197753531	 0.0823795901	 0.243883
H	-0.9553062963	 3.1141811052	-0.9019793598	 0.287778
C	-0.6674233962	 1.3525677426	 1.2656613468	 0.181612
C	-1.3127135841	 0.3898627339	 2.2486599437	-0.284166
C	-0.0007979402	 1.0277491292	 2.5921746205	-0.284167
C	-1.285182658	 2.6888310405	 1.1437446564	 0.461914
N	-1.8802125745	 3.4102734575	 2.0747563871	-0.311976
N	-2.277493501	 4.5585835081	 1.4609927704	-0.107752
N	-1.9504932335	 4.5597217332	 0.2124821058	-0.097544
N	-1.3225729536	 3.3847207382	-0.0033966354	-0.269978
H	-2.1995274678	 0.7390825634	 2.7639065859	 0.153256
H	-1.3167272029	-0.6577318465	 1.9663918977	 0.116578
H	 0.8952910157	 0.4178306168	 2.5456554191	 0.116585
H	 0.0044628329	 1.8107709625	 3.3409931499	 0.153239
37.5687	171.1423	181.2933	197.5771	327.875	339.9239	464.7056	469.894	558.0308	650.4858	747.212	773.9495	781.1532	795.2826	877.1332	899.4429	954.2513	1001.4894	1020.719	1046.2658	1066.9583	1074.3119	1091.7424	1104.1647	1199.8627	1218.599	1253.9762	1278.8807	1306.3593	1383.7036	1442.1604	1455.7572	1488.0635	1583.8601	1657.5446	3135.6088	3138.6237	3228.0161	3241.1148	3529.0216	3607.995	3663.6239
[NH3+]C1(CC1)C1=N[N-]N=N1	NC1(CC1)c1nnn[nH]1	
InChI=1S/C4H6N5/c5-4(1-2-4)3-6-8-9-7-3/h1-2,5H2/q-1/p+1	InChI=1S/C4H7N5/c5-4(1-2-4)3-6-8-9-7-3/h1-2,5H2,(H,6,7,8,9)
