18
gdb 14394	4.05734	1.85238	1.57641	1.2739	70.71	-0.2061	0.0718	0.2779	863.1466	0.152711	-347.715781	-347.70824	-347.707296	-347.747237	30.119	
C	-0.217022351	 1.6278057503	-0.0321852145	-0.493148
C	 0.0596657666	 0.1266497266	 0.0166640409	 0.383584
O	-1.0755198269	-0.6257630316	-0.3836885691	-0.462388
C	 1.3198871289	-0.6446437081	-0.347546462	-0.133697
C	 2.6817496152	-0.132712007	 0.1888681915	-0.060931
C	 2.6341053354	 1.1475456664	 0.9726067937	-0.312515
C	 2.1200809771	-0.1239125061	 1.6042334944	-0.069668
C	 0.7657911065	-0.6686501428	 1.0780433602	-0.091628
H	 0.3455798029	 2.1342581565	-0.8225393185	 0.123131
H	-1.2838437915	 1.7614195172	-0.2316447769	 0.119138
H	-0.0036673469	 2.1236051317	 0.9169581851	 0.138071
H	-1.1815789521	-0.5026334591	-1.3337233409	 0.279327
H	 1.2510342544	-1.4360338581	-1.0840352388	 0.08461
H	 3.6170014223	-0.5554821158	-0.156349988	 0.087928
H	 3.6043522138	 1.4434893922	 1.363889212	 0.109827
H	 2.0132732791	 1.9894370171	 0.704279508	 0.11239
H	 2.5728906196	-0.5215453238	 2.5035892452	 0.090016
H	 0.2439506566	-1.4821950356	 1.5656355177	 0.095953
73.6047	196.1097	275.2927	288.894	355.2439	364.6895	442.541	471.9697	586.3214	675.9598	691.6803	722.0123	771.5839	837.1196	881.3988	882.2917	935.0581	967.0056	977.5997	1002.0438	1011.6232	1026.9865	1057.6168	1073.1639	1082.1453	1097.8162	1141.9676	1193.9529	1234.2002	1264.9187	1273.8407	1307.1823	1348.6869	1401.4901	1425.9525	1489.335	1497.8545	1515.3552	3041.2052	3110.2641	3123.3089	3134.4823	3175.6266	3184.837	3188.8285	3198.8355	3241.375	3791.3085
CC1(O)C2C3CC3C12	C[C@@]1(O)[C@H]2[C@H]3C[C@H]3[C@@H]12	
InChI=1S/C7H10O/c1-7(8)5-3-2-4(3)6(5)7/h3-6,8H,2H2,1H3	InChI=1S/C7H10O/c1-7(8)5-3-2-4(3)6(5)7/h3-6,8H,2H2,1H3/t3-,4+,5-,6+,7+
