20
gdb 56577	2.11039	1.37188	0.88205	3.1766	78.64	-0.2728	0.0305	0.3033	1323.7909	0.169174	-403.147461	-403.137524	-403.13658	-403.182726	35.757	
C	 0.0268560277	 1.5470785026	 0.2042554755	-0.405061
C	-0.0569836462	 0.0162768859	 0.0362900368	-0.146194
C	 0.3671241628	-0.635047949	 1.2828318744	 0.282518
N	 0.694930334	-1.1301128675	 2.2747175853	-0.335733
C	-1.4632814833	-0.4916970604	-0.3898725885	-0.003557
C	-1.9356560977	 0.1440418889	-1.7048270854	-0.421921
C	-1.4664857184	-2.0029658954	-0.52625292	 0.088978
C	-1.9250796886	-2.8970984909	 0.5415967161	-0.172774
O	-2.7516120002	-2.6188827389	-0.5940497036	-0.246032
H	 1.0166332334	 1.8398710268	 0.5623479242	 0.14054
H	-0.1528972711	 2.0468528319	-0.7494022632	 0.132669
H	-0.714335431	 1.8984526164	 0.9279583023	 0.138298
H	 0.6613196003	-0.2862983544	-0.7384065146	 0.125345
H	-2.1736188919	-0.2304904765	 0.4041448316	 0.095441
H	-1.2119011845	-0.0265622106	-2.5108615367	 0.116629
H	-2.8845490572	-0.3088492035	-2.0033298077	 0.146698
H	-2.0911124408	 1.221341907	-1.6105480371	 0.123166
H	-0.7483230806	-2.3989022758	-1.2494685875	 0.092152
H	-1.5370911355	-3.9121234967	 0.6014952852	 0.122886
H	-2.2651419713	-2.4730508999	 1.4843236029	 0.12595
51.2961	83.1051	133.1138	200.3019	207.7668	223.542	230.982	302.4589	313.0617	378.4338	437.4401	474.3564	561.46	591.4651	803.9902	815.6748	873.9044	901.0559	951.404	967.6656	988.525	1051.3879	1076.2039	1107.5051	1125.0829	1155.4128	1159.4903	1170.8716	1198.9214	1261.6468	1294.9178	1322.4494	1330.7268	1356.4773	1405.9998	1416.5448	1448.5012	1493.9859	1494.703	1499.8895	1512.7236	1530.7607	2353.6752	3016.6585	3033.9301	3040.9117	3053.5645	3074.4953	3095.0009	3108.1478	3126.2666	3127.0864	3140.6879	3183.3331
CC(C#N)C(C)C1CO1	C[C@@H](C#N)[C@@H](C)[C@H]1CO1	
InChI=1S/C7H11NO/c1-5(3-8)6(2)7-4-9-7/h5-7H,4H2,1-2H3	InChI=1S/C7H11NO/c1-5(3-8)6(2)7-4-9-7/h5-7H,4H2,1-2H3/t5-,6+,7+/m0/s1
