14
gdb 42801	3.34408	1.3031	1.16329	2.7892	79.05	-0.2351	-0.0449	0.1902	1054.8688	0.10087	-399.487375	-399.480162	-399.479218	-399.519097	28.092	
O	 0.0740813192	 0.0397778694	-0.2379574373	-0.285061
C	 0.023549016	 1.2076114676	-0.0859834335	 0.459155
C	-1.0551237339	 2.3737997512	 0.0922263208	-0.172846
N	-0.034029422	 2.9145288873	 1.0403128906	-0.285561
C	 0.9884924362	 2.4649805778	 0.0565163714	-0.241061
C	 0.5846646568	 3.1416712914	-1.2594023836	 0.218607
C	-0.7734300895	 3.0747957138	-1.2183295848	-0.200635
C	 1.4602286437	 3.5652709725	-2.2724398894	 0.144354
C	 2.2493544268	 3.930430636	-3.1077070877	-0.380753
H	-2.0735270802	 2.2241556175	 0.4412089063	 0.099587
H	-0.0780556169	 3.9359721009	 1.0866344709	 0.217117
H	 2.0339665761	 2.4230758701	 0.3502878263	 0.102034
H	-1.4827813885	 3.3197948644	-1.9952062947	 0.12874
H	 2.9333261161	 4.2482607902	-3.8552881152	 0.196322
99.2159	160.2533	202.7847	353.7562	440.6302	507.2251	520.7808	557.09	577.2533	592.4548	648.2471	655.7454	768.5161	808.9344	835.6311	854.4094	897.8921	951.2207	974.8331	1036.4869	1056.6799	1081.8564	1167.0068	1178.5928	1233.6945	1263.6228	1281.8233	1313.8922	1588.8501	1948.1914	2220.7229	3162.9247	3167.3183	3245.8498	3421.0583	3501.1564
O=C1C2NC1C(=C2)C#C	O=C1[C@H]2N[C@@H]1C(=C2)C#C	
InChI=1S/C7H5NO/c1-2-4-3-5-7(9)6(4)8-5/h1,3,5-6,8H	InChI=1S/C7H5NO/c1-2-4-3-5-7(9)6(4)8-5/h1,3,5-6,8H/t5-,6+/m0/s1
