21
gdb 96522	2.49462	1.52172	1.05996	3.7078	79.77	-0.2247	0.0608	0.2855	1187.2151	0.185491	-420.45301	-420.444011	-420.443067	-420.486859	33.676	
C	-0.0613361607	 1.446164074	-0.1769677158	-0.334313
N	 0.0122057684	 0.0037776506	-0.0107468927	-0.108645
C	-1.2795289975	-0.6298289872	 0.2737884421	-0.150953
C	-1.2389468638	-1.9589339348	 1.0334640404	-0.20627
C	-0.7909563655	-3.1538417883	 0.1804986262	-0.182363
C	 0.4086995139	-2.7749451868	-0.6960647549	-0.170843
N	 1.3592149277	-1.9392969903	 0.0293712132	-0.343154
C	 1.2757961038	-0.5542568303	 0.0687716616	 0.434031
O	 2.2884938549	 0.1245263408	 0.1618386653	-0.422295
H	 0.9239139114	 1.8188638771	-0.4488961399	 0.164519
H	-0.784555275	 1.697999017	-0.9627360295	 0.111095
H	-0.3810484472	 1.9423222482	 0.7503785975	 0.114164
H	-1.8426022512	 0.0874309174	 0.8851006868	 0.107075
H	-1.8554800044	-0.7485227198	-0.6582935694	 0.099919
H	-0.5773551874	-1.8502948857	 1.8981558925	 0.123018
H	-2.2432766318	-2.1456174151	 1.4284298088	 0.100571
H	-0.5313527466	-3.9901843724	 0.8387170285	 0.101982
H	-1.6105344589	-3.4960500641	-0.4630042921	 0.095596
H	 0.9351010009	-3.6702636701	-1.037933989	 0.108649
H	 0.0604340075	-2.2522269512	-1.5971854932	 0.112722
H	 2.3282478714	-2.2138669789	-0.0104627263	 0.245495
71.5732	107.6616	131.3449	203.571	267.4829	276.0517	330.5608	355.4463	400.8202	515.4502	535.2224	582.6496	654.6172	706.8981	773.2336	819.4947	851.1697	916.1532	944.5608	1010.6894	1053.7186	1062.0459	1118.3508	1147.817	1160.6568	1191.5906	1214.5478	1262.1103	1292.4657	1297.5734	1308.2101	1349.7033	1383.5005	1388.3695	1413.5257	1431.0899	1443.2092	1467.9351	1478.266	1492.1854	1492.6735	1500.9905	1512.0009	1547.67	1760.9285	2969.6656	3001.2799	3009.8687	3020.2813	3031.2922	3048.8715	3052.3306	3069.0979	3089.0113	3095.5452	3173.9871	3633.9496
CN1CCCCNC1=O	CN1CCCCNC1=O	
InChI=1S/C6H12N2O/c1-8-5-3-2-4-7-6(8)9/h2-5H2,1H3,(H,7,9)	InChI=1S/C6H12N2O/c1-8-5-3-2-4-7-6(8)9/h2-5H2,1H3,(H,7,9)
