14
gdb 25065	3.81963	1.03728	0.85869	4.8384	68.83	-0.2197	0.0136	0.2333	1269.4122	0.100424	-436.704022	-436.695949	-436.695005	-436.737413	29.625	
O	-0.1182712633	 0.0233619968	-0.2708021274	-0.39639
C	-0.0737537258	 1.2073145864	-0.0882577013	 0.489099
N	-1.043955522	 2.171568957	-0.2654218819	-0.419682
C	-0.5331185396	 3.4372273679	 0.0307148196	 0.314923
C	-1.3582598561	 4.6840862063	-0.0549439248	-0.464011
C	-2.0837306629	 4.8011570642	-1.3194642577	 0.286789
C	-2.6935748498	 4.8587911159	-2.3527333736	-0.435064
C	 0.7311208556	 3.236414616	 0.4231597831	-0.124136
O	 1.0379196876	 1.8930160065	 0.3735813954	-0.208781
H	-1.919983223	 1.9794328976	-0.7204115565	 0.280593
H	-2.0813274839	 4.711905431	 0.7730668038	 0.156029
H	-0.6984828154	 5.5472127505	 0.0866196262	 0.156548
H	-3.2243834601	 4.9292879021	-3.2702148016	 0.209843
H	 1.5034569587	 3.9036989717	 0.7629845067	 0.154241
51.536	91.1648	181.6167	275.9057	311.4834	339.067	435.4113	460.0559	525.217	605.7113	640.55	664.868	696.8163	724.8604	767.8656	777.7069	913.4616	939.1193	956.6964	1013.5395	1096.3894	1180.9366	1214.1202	1240.6331	1321.0666	1355.9407	1429.1254	1458.1325	1711.4824	1902.4944	2243.0687	3005.1354	3068.3968	3296.0853	3502.973	3682.2991
O=C1NC(CC#C)=CO1	O=c1[nH]c(CC#C)co1	
InChI=1S/C6H5NO2/c1-2-3-5-4-9-6(8)7-5/h1,4H,3H2,(H,7,8)	InChI=1S/C6H5NO2/c1-2-3-5-4-9-6(8)7-5/h1,4H,3H2,(H,7,8)
