23
gdb 118541	1.89946	0.84144	0.61637	2.7685	83.53	-0.249	-0.0207	0.2283	1822.4029	0.202276	-425.435098	-425.423496	-425.422551	-425.474187	39.724	
C	 0.0616706894	 1.3714040088	 0.3343238758	-0.393444
C	 0.0697804161	-0.1292011107	 0.0268944866	-0.181588
C	 0.6566092515	-0.5062551814	-1.3500453844	 0.007862
C	 2.1734852978	-0.255302812	-1.4137181982	-0.179909
C	 2.7719376728	-0.2849305579	-2.8162843805	-0.082641
O	 4.1461168067	 0.0511869875	-2.6972897331	-0.418902
C	 0.3099360901	-1.9744892121	-1.6890075045	-0.285306
C	-1.1676117591	-2.1811776985	-1.9292501456	 0.161588
O	-1.8567529292	-3.0039375921	-1.3835698618	-0.242941
H	 1.0704845484	 1.7927466275	 0.3756098654	 0.123913
H	-0.4999154338	 1.9271251773	-0.4250874641	 0.114758
H	-0.4111964582	 1.5643172181	 1.3020607668	 0.118165
H	 0.6274646417	-0.6660241496	 0.8062581422	 0.101649
H	-0.9593106998	-0.5044473683	 0.0878797313	 0.108399
H	 0.1738055002	 0.1339960685	-2.1056193486	 0.070949
H	 2.4044465207	 0.7281537187	-0.9919669674	 0.111497
H	 2.6985441377	-0.9899490634	-0.7901606752	 0.106273
H	 2.6521283057	-1.2790613812	-3.2744057517	 0.085307
H	 2.2393687994	 0.4355838517	-3.4597717708	 0.084941
H	 4.5459175366	 0.0005029971	-3.5703200454	 0.286529
H	 0.8180102398	-2.2717943781	-2.6169446827	 0.115273
H	 0.6378288297	-2.6541610596	-0.8957335464	 0.120018
H	-1.6019993641	-1.4885640305	-2.6907205378	 0.067611
27.1389	52.9958	68.2854	88.051	97.1597	169.8458	202.7576	239.2902	265.3798	265.972	328.0587	415.9411	431.7429	507.0029	529.2212	748.9925	778.6274	804.0197	884.2176	943.9463	987.6758	999.6423	1024.9854	1039.0054	1053.0963	1072.7073	1130.839	1150.5113	1160.8015	1210.689	1240.6874	1245.2069	1284.4086	1296.1421	1321.503	1335.5695	1352.6844	1384.3898	1393.3201	1416.0322	1430.5712	1461.4191	1463.3189	1484.5327	1491.726	1501.6294	1508.4604	1526.473	1834.655	2837.5697	2957.2422	2978.0008	2988.2839	3017.4546	3020.4851	3034.3702	3036.5213	3051.7722	3084.5728	3089.7061	3100.803	3109.8826	3830.739
CCC(CCO)CC=O	CC[C@@H](CCO)CC=O	
InChI=1S/C7H14O2/c1-2-7(3-5-8)4-6-9/h5,7,9H,2-4,6H2,1H3	InChI=1S/C7H14O2/c1-2-7(3-5-8)4-6-9/h5,7,9H,2-4,6H2,1H3/t7-/m1/s1
