18
gdb 22721	4.35085	0.9115	0.82504	1.9887	77.57	-0.2456	0.0011	0.2468	1414.1398	0.145324	-439.0065	-438.997511	-438.996567	-439.040497	33.422	
C	 0.0514642125	 1.4820693251	-0.2995910759	-0.381593
C	 0.0224041353	 0.0007384929	 0.1037950714	-0.30061
C	-1.371593581	-0.5184948291	 0.2642447085	 0.434937
C	-2.4013951857	-0.1960867733	 1.3830894273	-0.392954
C	-2.9428950875	-1.6091907963	 1.1496613798	 0.461028
N	-3.7605544518	-2.3918332747	 1.7146652471	-0.261458
O	-4.4341173667	-1.7475610636	 2.7658517039	-0.387211
C	-1.9612911772	-1.8662513565	 0.0511437047	-0.171966
O	-2.1448123391	-0.79606057	-0.90664804	-0.283065
H	 1.0808053024	 1.830429257	-0.4222771884	 0.117994
H	-0.4763546707	 1.634893454	-1.2453831143	 0.137177
H	-0.4267862156	 2.1102230209	 0.4590343393	 0.122392
H	 0.5301539857	-0.6044584402	-0.6550841253	 0.115383
H	 0.5640794662	-0.1425144199	 1.0467679507	 0.107919
H	-1.971802522	-0.0876977691	 2.3836587927	 0.129336
H	-3.0764081196	 0.6369539754	 1.1768629258	 0.131357
H	-5.006207984	-2.4472442713	 3.0994942481	 0.308767
H	-1.539959491	-2.7962157013	-0.3088771055	 0.112566
69.5577	88.4265	151.9308	212.9432	227.6377	305.2064	351.442	377.0204	415.0758	463.7255	506.9193	611.3937	649.9836	709.8078	770.2491	804.3813	869.4493	941.578	952.3753	983.3766	990.7306	1007.0758	1059.5865	1086.2855	1126.4876	1148.7952	1198.7992	1228.9657	1235.9902	1313.7572	1344.7272	1407.8783	1411.3291	1436.3201	1463.8625	1473.426	1498.9856	1509.3759	1794.6317	3033.328	3040.6987	3064.4325	3075.0001	3110.9111	3120.0213	3123.6793	3207.1843	3815.309
CCC12CC(=NO)C1O2	CC[C@]12CC(=NO)[C@H]1O2	
InChI=1S/C6H9NO2/c1-2-6-3-4(7-8)5(6)9-6/h5,8H,2-3H2,1H3	InChI=1S/C6H9NO2/c1-2-6-3-4(7-8)5(6)9-6/h5,8H,2-3H2,1H3/t5-,6+/m1/s1
