17
gdb 51929	3.75518	0.62839	0.56498	4.5318	80.88	-0.2545	0.0023	0.2568	1914.9854	0.134107	-421.801062	-421.791523	-421.790579	-421.838501	32.392	
O	 0.4692607661	 0.7514495448	-1.4333038754	-0.270807
C	 0.5599477519	 1.7853966792	-0.8439468577	 0.182984
O	 0.9431478391	 1.8549738865	 0.4458754615	-0.166035
C	 1.0516767208	 3.1793288975	 1.0125220007	-0.252843
C	 2.3096641085	 3.8331851929	 0.6931534403	 0.093398
C	 3.3551673922	 4.3681733332	 0.4193839723	 0.069123
C	 4.6002805971	 5.0004299721	 0.1047508654	-0.157752
C	 5.0100357163	 5.1956517937	-1.3486696954	-0.249673
C	 4.6153708029	 6.384892184	-0.5294194023	-0.251402
H	 0.3320907836	 2.777011734	-1.2817659745	 0.0788
H	 0.2001504419	 3.7894170019	 0.6831486337	 0.139293
H	 0.9485433594	 3.0278743307	 2.0902195972	 0.156939
H	 5.408706404	 4.7895348925	 0.7983731282	 0.11742
H	 6.0575961312	 5.0501122666	-1.5856593189	 0.125781
H	 4.3198414284	 4.8433755992	-2.1055246628	 0.131443
H	 3.6550851154	 6.8458448004	-0.7265303688	 0.128732
H	 5.3880508711	 7.0682333608	-0.1963391536	 0.124599
19.2539	31.0649	91.4706	122.6677	148.2655	225.0201	290.0303	343.2999	432.2182	503.8788	545.9685	668.5358	717.5381	796.3483	823.9892	893.0044	903.6106	983.138	1016.8213	1043.422	1063.6967	1066.867	1083.6911	1117.6166	1149.0275	1186.3837	1201.3105	1233.4908	1296.6088	1386.0769	1395.1446	1431.9036	1467.918	1482.193	1497.8967	1869.9795	2357.0449	2946.9684	3022.4578	3094.3276	3144.2798	3147.1537	3151.7215	3229.0349	3244.0394
O=COCC#CC1CC1	O=COCC#CC1CC1	
InChI=1S/C7H8O2/c8-6-9-5-1-2-7-3-4-7/h6-7H,3-5H2	InChI=1S/C7H8O2/c8-6-9-5-1-2-7-3-4-7/h6-7H,3-5H2
