16
gdb 45267	3.1139	1.76547	1.40345	3.9793	66.87	-0.2477	-0.0021	0.2456	918.0574	0.126652	-437.884762	-437.878138	-437.877194	-437.915885	26.189	
O	-0.1422084859	 0.0895615431	 0.256914958	-0.314053
C	-0.0215236879	 1.2404815722	-0.005796525	 0.445671
O	-0.9892092266	 2.0991393304	-0.4780262761	-0.262743
C	-0.019728969	 3.2008465483	-0.6266810231	 0.112747
C	-0.2486832164	 4.3980243675	 0.2937435136	-0.271971
C	 0.5788711209	 4.1049567554	 1.5420400446	-0.008774
C	 0.2760177414	 2.8869126943	 2.3256524072	-0.256329
N	 1.3938556577	 2.8721194803	 1.3577980204	-0.10668
C	 1.0707717499	 2.32275621	 0.0290764479	-0.18798
H	 0.0752529414	 3.4489184454	-1.6843707879	 0.107729
H	 0.1167318441	 5.3063726174	-0.1948817776	 0.12064
H	-1.3128847866	 4.541384577	 0.5025464097	 0.136306
H	 1.0878520516	 4.9380959818	 2.0183616146	 0.100973
H	 0.5940803667	 2.8120056614	 3.3611304508	 0.127594
H	-0.6372005203	 2.3439232655	 2.0974358377	 0.14193
H	 1.9853742589	 2.1051698199	-0.5230224649	 0.114941
109.815	171.7155	281.7054	361.1487	422.6481	499.2234	632.5552	688.1761	700.6837	763.1	781.3094	828.8605	846.9504	869.3168	915.3155	966.3971	979.5529	1013.9475	1063.9676	1069.1765	1103.2248	1120.637	1130.6333	1170.8085	1192.5011	1216.1851	1263.2649	1277.307	1293.3179	1329.099	1354.0757	1396.4287	1473.573	1516.1061	1940.5187	3059.0826	3100.9901	3108.2473	3115.3469	3117.4664	3148.6434	3200.8791
O=C1OC2CC3CN3C12	O=C1O[C@H]2C[C@H]3CN3[C@@H]12	
InChI=1S/C6H7NO2/c8-6-5-4(9-6)1-3-2-7(3)5/h3-5H,1-2H2	InChI=1S/C6H7NO2/c8-6-5-4(9-6)1-3-2-7(3)5/h3-5H,1-2H2/t3-,4-,5+,7?/m0/s1
