16
gdb 22247	2.21094	1.59435	0.93161	4.8695	75.01	-0.1969	-0.0515	0.1454	1191.6699	0.121493	-471.207413	-471.198145	-471.197201	-471.241499	33.89	
C	 0.0722006692	 1.2846850462	 0.3228695647	-0.461426
C	 0.0045248452	-0.2237512065	 0.1941949644	 0.365779
O	-0.2067322419	-0.9088300959	 1.200823712	-0.393026
C	 0.1945239424	-0.813451736	-1.1302276344	 0.098099
N	 0.4173465264	 0.0752641142	-2.1342940892	-0.07865
O	 0.5933232797	-0.3318931532	-3.3110303533	-0.399466
C	 0.1420325993	-2.2487262003	-1.3197100909	 0.410813
N	-0.0836263058	-3.0479622945	-0.2763785313	-0.550276
N	 0.3224647656	-2.7346535176	-2.5444668226	-0.54024
H	 0.294474333	-3.7236378642	-2.7307063805	 0.255032
H	 0.4863176869	-1.99947549	-3.2560482714	 0.307034
H	 1.0410591598	 1.6609869411	-0.0147846088	 0.149295
H	-0.6796125466	 1.7635126572	-0.3093673299	 0.149335
H	-0.0913093304	 1.5447883453	 1.3694131303	 0.125716
H	-0.2063520204	-2.5669299823	 0.6210449705	 0.305831
H	-0.1229356326	-4.0483937835	-0.3773466798	 0.256149
79.4979	101.405	120.0654	217.3127	259.4574	320.9664	340.9382	352.287	404.009	416.9144	462.2182	492.5968	524.3907	604.2103	658.6246	774.9104	784.1741	784.9523	884.1111	953.1797	1046.0723	1078.0878	1115.561	1132.407	1296.1547	1346.4226	1367.8807	1396.7374	1452.2168	1467.9094	1468.1274	1522.4734	1633.3606	1660.1949	1707.3466	3059.4539	3124.1036	3127.6964	3156.6403	3307.273	3657.6823	3669.2921
CC(=O)C(=N[O-])C(N)=[NH2+]	CC(=O)C(=N[O])C(=[NH2])N	
InChI=1S/C4H7N3O2/c1-2(8)3(7-9)4(5)6/h9H,1H3,(H3,5,6)	InChI=1S/C4H7N3O2/c1-2(8)3(7-9)4(5)6/h5-6H2,1H3
