25
gdb 57488	2.76821	1.09724	0.98209	1.4507	87.8	-0.256	0.0689	0.3249	1375.3461	0.228839	-389.515805	-389.505562	-389.504617	-389.550992	39.46	
C	-0.1361503257	 1.498628469	-0.0525148866	-0.398346
C	 0.0163766703	-0.0196698009	 0.0771055969	 0.311206
C	 0.6607840145	-0.373881702	 1.4268842665	-0.426243
O	-1.3313293616	-0.5183202313	 0.0575607321	-0.467134
C	 0.7737407409	-0.5882512067	-1.1475241635	 0.065541
C	 2.2282750392	-0.0770439464	-1.3644070871	-0.229941
C	 3.0192598772	-1.263804247	-1.9856619934	-0.203961
C	 1.9610661921	-2.3375370887	-2.3074019788	-0.201437
C	 0.89558428	-2.125651978	-1.2226910803	-0.25101
H	 0.8361384048	 1.9980316421	-0.0282286589	 0.112927
H	-0.6343738935	 1.7502606035	-0.993382867	 0.117052
H	-0.7469412648	 1.8848592318	 0.7683249325	 0.11672
H	 0.0520720812	 0.038448072	 2.236401639	 0.121337
H	 0.7202677527	-1.4575144483	 1.5737097023	 0.105147
H	 1.672812573	 0.0303501259	 1.5229290879	 0.115713
H	-1.2939124504	-1.4700857258	 0.1972306005	 0.274944
H	 0.1753400775	-0.2820839482	-2.0152683203	 0.073979
H	 2.2367829474	 0.8008815608	-2.0160405526	 0.100394
H	 2.6863866179	 0.2353065634	-0.4214416416	 0.097307
H	 3.5975127528	-0.9683147764	-2.8653652301	 0.095019
H	 3.7354961356	-1.6589836009	-1.2571586391	 0.097461
H	 1.5200163706	-2.1528230551	-3.2946101637	 0.097666
H	 2.3714304539	-3.3514574704	-2.3205623859	 0.090535
H	 1.2574772073	-2.5386241968	-0.2720042591	 0.09397
H	-0.0545648929	-2.6157224855	-1.4571593195	 0.091156
42.1355	77.7002	191.9042	203.8674	220.8305	238.6123	290.6551	307.6482	327.4504	356.6876	412.2205	460.106	517.6456	557.1699	606.6679	753.2153	798.9327	849.5756	875.6291	904.9287	923.2331	936.6162	948.5477	968.7908	996.609	1006.1844	1024.6079	1051.1495	1089.5327	1101.8242	1179.6963	1191.639	1205.9673	1237.1982	1260.461	1275.4206	1301.2929	1318.3616	1329.089	1344.7144	1348.7344	1357.1701	1387.7226	1405.782	1416.5486	1477.9813	1484.6983	1490.5632	1493.5674	1496.168	1500.3423	1507.7801	1519.896	3013.4504	3025.4533	3032.3591	3036.9967	3041.6322	3044.1213	3059.5784	3079.5779	3080.8193	3088.5219	3102.4202	3104.1844	3114.0265	3117.0188	3123.729	3813.2885
CC(C)(O)C1CCCC1	CC(C)(O)C1CCCC1	
InChI=1S/C8H16O/c1-8(2,9)7-5-3-4-6-7/h7,9H,3-6H2,1-2H3	InChI=1S/C8H16O/c1-8(2,9)7-5-3-4-6-7/h7,9H,3-6H2,1-2H3
