16
gdb 53201	3.16556	1.02297	0.835	3.063	79.56	-0.2204	-0.0051	0.2154	1383.7135	0.123587	-400.765771	-400.756758	-400.755814	-400.801227	31.687	
C	-0.0013112714	 1.5301749964	-0.057045532	-0.497432
C	 0.0321395612	 0.0761548924	-0.0012146177	 0.040754
C	 0.052809562	-1.1264316375	 0.0357445682	 0.115242
C	 0.0769104344	-2.580715116	 0.0971410388	-0.333709
C	 0.5782775311	-3.1661875094	 1.4051891156	-0.139669
C	-0.3477818086	-3.9989786286	 1.8836061285	-0.022138
N	-1.4670385773	-4.0635681371	 1.0402050111	-0.3228
C	-1.3430580675	-3.2184752413	-0.0462367872	 0.41303
O	-2.1588154682	-3.0423401389	-0.9150103548	-0.357689
H	 0.7713558627	 1.9214856181	-0.7280100265	 0.14774
H	-0.9699981727	 1.8877521978	-0.4230203224	 0.153473
H	 0.1631349553	 1.9714203456	 0.932219673	 0.146576
H	 0.6649020678	-2.970962103	-0.7479648124	 0.141516
H	 1.5283805994	-2.9267451511	 1.8550361304	 0.117632
H	-0.3311170246	-4.5955035908	 2.7845983894	 0.133314
H	-2.3090628636	-4.5844018766	 1.2205429581	 0.26416
27.3545	66.2864	85.1527	155.3736	254.467	275.2249	392.1768	408.7236	446.1921	513.2838	520.2091	650.9144	681.163	712.0227	802.9016	853.1355	895.9285	911.1422	1006.9805	1051.7779	1054.4575	1076.8173	1127.	1179.9645	1191.8376	1204.9238	1285.7611	1371.2004	1409.1953	1415.284	1478.0338	1478.4526	1673.1907	1849.024	2376.7109	2991.549	3027.4506	3087.8742	3089.622	3236.5216	3269.2054	3664.1166
CC#CC1C=CNC1=O	CC#C[C@H]1C=CNC1=O	
InChI=1S/C7H7NO/c1-2-3-6-4-5-8-7(6)9/h4-6H,1H3,(H,8,9)	InChI=1S/C7H7NO/c1-2-3-6-4-5-8-7(6)9/h4-6H,1H3,(H,8,9)/t6-/m0/s1
