15
gdb 34694	4.06313	1.54811	1.41644	4.7928	70.69	-0.2489	0.0269	0.2758	907.0829	0.114997	-379.618989	-379.612807	-379.611863	-379.64959	25.074	
N	 0.059735406	-1.1540654713	 0.0484566291	-0.325004
C	 0.0390114897	 0.0006506764	 0.0267532194	 0.29894
C	-0.0218646631	 1.4649007688	 0.0143672984	-0.138483
C	-0.5932359957	 2.059004608	 1.2984878227	-0.080981
C	 0.5409729634	 2.2691656975	 2.2708747387	-0.082394
C	-0.0064446847	 3.4379533777	 1.4720135002	-0.112928
C	 1.264996338	 3.401384552	 0.5766852754	-0.067671
C	 1.8015892353	 2.2561958932	 1.3620158247	-0.058741
N	 1.3281220618	 2.055302544	-0.0203850665	-0.110455
H	-0.5758606211	 1.7889255271	-0.8728890232	 0.132696
H	-1.5903997759	 1.8278683202	 1.6493386556	 0.115989
H	 0.4963571033	 2.0654711895	 3.3300497942	 0.106418
H	-0.5551287071	 4.3101131693	 1.7951127595	 0.105236
H	 1.7446323288	 4.2311716904	 0.0749893207	 0.107373
H	 2.8075544212	 1.9632507371	 1.6294794209	 0.110006
124.1512	163.9585	377.4008	490.8472	510.4139	600.5833	715.4322	738.698	778.0884	792.7332	805.4615	818.2934	873.1232	897.4011	920.046	956.6806	958.4603	980.2947	1010.4137	1018.5511	1031.9809	1041.2587	1066.6533	1088.6599	1201.225	1207.365	1241.1363	1254.8697	1262.2847	1301.1511	1341.2178	1385.1554	2365.2607	3066.3724	3200.9755	3210.7675	3214.7872	3226.6561	3238.8997
N#CC1C2C3C2C2C3N12	N#C[C@H]1[C@H]2[C@@H]3[C@H]2[C@H]2[C@@H]3N12	
InChI=1S/C7H6N2/c8-1-2-3-4-5(3)7-6(4)9(2)7/h2-7H	InChI=1S/C7H6N2/c8-1-2-3-4-5(3)7-6(4)9(2)7/h2-7H/t2-,3-,4+,5-,6+,7-,9?/m0/s1
