12
gdb 131039	2.79649	1.41149	0.93803	2.841	66.02	-0.2931	-0.1122	0.1809	1115.9479	0.076967	-468.810814	-468.803306	-468.802362	-468.843556	25.662	
O	-0.0382736125	-0.0492617161	-0.0018481313	-0.219512
C	-0.038002671	 1.1420070696	 0.0076810363	 0.192127
N	 1.1437955044	 1.9327141828	 0.0008523847	-0.120012
N	 2.3732019034	 1.3482286672	-0.0170936982	-0.079978
N	 3.2577761709	 2.2924507793	-0.0195889329	-0.157452
C	 2.6320171235	 3.5053304742	-0.0031854426	-0.105974
C	 1.2728310376	 3.3096772105	 0.0103125133	 0.249371
C	 0.1928833691	 4.3061538361	 0.0299623526	 0.087067
O	 0.4152764327	 5.492955695	 0.036811328	-0.238425
H	-0.942358479	 1.7709485128	 0.0224447211	 0.124716
H	 3.1757281224	 4.4355173878	-0.001917047	 0.173003
H	-0.8452593116	 3.9171320009	 0.0379657061	 0.09507
100.4594	137.0211	175.2172	175.459	252.8295	279.9378	428.3527	556.2221	656.1501	705.1946	757.554	830.3446	902.7404	981.3957	1017.4794	1019.7966	1077.1573	1124.9185	1233.1071	1287.02	1352.7149	1381.2242	1425.3956	1482.7758	1568.0366	1791.4478	1860.963	2919.7172	3015.425	3288.519
O=CN1N=NC=C1C=O	O=Cn1nncc1C=O	
InChI=1S/C4H3N3O2/c8-2-4-1-5-6-7(4)3-9/h1-3H	InChI=1S/C4H3N3O2/c8-2-4-1-5-6-7(4)3-9/h1-3H
