18
gdb 41045	3.21022	2.12127	1.90202	1.723	77.04	-0.201	0.0579	0.2589	818.3539	0.149946	-364.673393	-364.667371	-364.666427	-364.703203	26.545	
C	-0.0380351192	 1.5522828636	-0.2081711858	-0.332559
C	 1.5089626241	 1.5431729186	 0.1016341606	-0.320652
C	 1.3259194278	 0.1123630973	 0.6461657859	 0.312426
C	 0.7373509062	-0.2640098943	 2.0251544551	-0.299607
C	-0.3103955544	-1.0088529195	 1.155754221	-0.144226
C	 0.5568534783	-1.9545054628	 0.2628977367	-0.034743
C	 0.5511374554	-1.0809593498	-0.9284281193	-0.116574
N	 1.7908869509	-1.1378382499	-0.0618609013	-0.196999
C	-0.0616529683	 0.0167375093	-0.0193878684	 0.211825
H	-0.6180151324	 2.0753637171	 0.5569375399	 0.116187
H	-0.3509131607	 1.9284866544	-1.1851234951	 0.110423
H	 2.1200332828	 1.5546270824	-0.8044522282	 0.121259
H	 1.8892948094	 2.3019065502	 0.7897323277	 0.105748
H	 1.3507811636	-0.8413381671	 2.7220633079	 0.10484
H	 0.3141863563	 0.6065968801	 2.53444777	 0.104781
H	-1.2668296582	-1.3862438749	 1.5194004789	 0.069715
H	 0.6731927942	-3.0271079095	 0.3347097599	 0.099165
H	 0.5436950042	-1.3077984254	-1.9881652754	 0.088991
229.116	294.816	380.2368	456.192	548.2702	583.5918	659.355	732.3776	747.9816	757.4762	798.5187	824.6785	844.2578	846.7828	881.4952	898.9942	919.2351	954.2828	967.3139	984.7957	1011.9527	1045.6335	1097.7789	1125.05	1134.9545	1163.2321	1175.0752	1202.6063	1211.9672	1224.7139	1249.2534	1255.7242	1266.3281	1283.5827	1295.5084	1320.1756	1465.2564	1474.2882	1486.5308	3054.5024	3059.5418	3063.8988	3105.5844	3106.8261	3112.8639	3123.7414	3178.7357	3213.8178
C1CC23CC4C5C(N25)C134	C1C[C@]23C[C@@H]4[C@H]5[C@H](N25)[C@]134	
InChI=1S/C8H9N/c1-2-8-4-3-7(1,8)9-5(4)6(8)9/h4-6H,1-3H2	InChI=1S/C8H9N/c1-2-8-4-3-7(1,8)9-5(4)6(8)9/h4-6H,1-3H2/t4-,5+,6+,7-,8-,9?/m1/s1
