19
gdb 93046	2.53362	1.84478	1.25094	2.725	76.23	-0.2276	0.0294	0.257	1034.2092	0.162022	-419.200382	-419.192683	-419.191739	-419.232511	29.993	
C	 0.0108944649	 1.5583754396	-0.0593324623	-0.410077
C	 0.0346964106	 0.0411679779	 0.0171560075	 0.136695
O	 0.6151607387	-0.4285337282	-1.2175962794	-0.236642
C	 1.165068187	-1.6613454767	-1.2290814213	 0.13562
N	 1.4645165081	-2.4314904229	-0.2703863449	-0.270824
C	 1.2917414229	-1.9567169278	 1.0847463028	-0.000364
C	 2.6185307852	-1.4257023402	 1.7004211122	-0.164243
N	 2.1759164795	-0.043357597	 1.3962889227	-0.313268
C	 0.7769392395	-0.4968081176	 1.2309803144	-0.028795
H	 1.0341106237	 1.9429425841	-0.0482578806	 0.141519
H	-0.4801030896	 1.8884267907	-0.9782603137	 0.128202
H	-0.5345673224	 1.9726792541	 0.7946661394	 0.112589
H	-0.9906826528	-0.3559896917	 0.0530260316	 0.084276
H	 1.3554632252	-1.9673652809	-2.2568852002	 0.120349
H	 0.7758135846	-2.7195243348	 1.6708737919	 0.082626
H	 2.6989554975	-1.6531787553	 2.7720735202	 0.089335
H	 3.536255306	-1.7341486197	 1.1917792508	 0.112914
H	 2.3297032192	 0.6361874184	 2.1319538334	 0.218083
H	 0.1453984323	-0.3573901221	 2.1209313256	 0.062004
111.9617	134.0871	226.2506	239.5534	298.9869	366.8107	439.0045	503.3848	552.0667	647.7913	688.0262	765.5986	828.3878	854.3762	863.0629	947.5717	966.7862	970.0303	998.5201	1012.1053	1045.2316	1070.7846	1103.9996	1134.4152	1152.012	1178.1537	1200.4671	1214.1775	1251.3384	1311.3792	1347.2495	1356.7898	1365.7385	1386.7933	1393.5365	1403.1147	1420.576	1484.105	1502.2119	1513.6264	1726.4938	2982.7606	3001.6097	3006.3801	3044.3851	3082.1211	3087.3355	3118.0336	3131.791	3150.1723	3538.2428
CC1OC=NC2CNC12	C[C@H]1OC=N[C@H]2CN[C@@H]12	
InChI=1S/C6H10N2O/c1-4-6-5(2-7-6)8-3-9-4/h3-7H,2H2,1H3	InChI=1S/C6H10N2O/c1-4-6-5(2-7-6)8-3-9-4/h3-7H,2H2,1H3/t4-,5+,6+/m1/s1
