20
gdb 102964	2.34783	0.94062	0.73028	3.1489	77.41	-0.2484	-0.0382	0.2102	1577.7426	0.168973	-440.327189	-440.316734	-440.31579	-440.364519	35.937	
C	 0.2628661528	 1.3302075137	 0.4089756743	-0.396648
C	-0.2114423489	-0.0408315421	-0.0852064159	-0.192288
C	 0.5625158398	-0.5961405767	-1.3071746553	-0.084828
C	 0.309336001	-2.1006030013	-1.4994403511	-0.17705
N	 1.0815265003	-2.6848156356	-2.5788795962	-0.277831
C	 2.1488938689	-3.4958310305	-2.3645475988	 0.151136
O	 2.5607796137	-3.8438201891	-1.2762520944	-0.330668
C	 0.2288408917	 0.1898124406	-2.558817905	 0.160807
O	-0.1387190965	-0.2986447049	-3.6018785786	-0.261772
H	 1.3266602291	 1.3072678057	 0.6681963542	 0.126022
H	 0.1192997266	 2.1167869981	-0.3379609581	 0.123406
H	-0.2914781369	 1.6276873904	 1.303984312	 0.125339
H	-0.1038876083	-0.7685744982	 0.7272944357	 0.119184
H	-1.2830473369	-0.0062929774	-0.3197971483	 0.110279
H	 1.6372318733	-0.4408474921	-1.1228118197	 0.114431
H	 0.5894770182	-2.6358051233	-0.5899739029	 0.145349
H	-0.7579049776	-2.2686202512	-1.6841979863	 0.116587
H	 0.842894293	-2.4051482336	-3.5172248155	 0.262243
H	 2.6134504561	-3.8203879391	-3.316721254	 0.074628
H	 0.3352028406	 1.2927652765	-2.4707430761	 0.091673
27.4804	56.6071	85.596	108.4078	169.0107	214.2928	239.6732	274.3363	292.3466	342.9083	394.4652	457.8189	621.2226	633.1908	755.3788	776.9504	834.0254	926.3496	947.28	969.1105	1015.9392	1035.1107	1043.9465	1095.9837	1137.9178	1160.8895	1215.2511	1254.2546	1269.2793	1303.6388	1356.3727	1385.4838	1390.4148	1416.4369	1428.7884	1436.0041	1471.7256	1490.8754	1503.2555	1508.4079	1526.1273	1800.1752	1808.5374	2899.2992	2938.0337	2997.1387	3026.1893	3039.4212	3044.2463	3062.6762	3108.015	3110.9618	3123.172	3640.0134
CCC(CNC=O)C=O	CC[C@@H](CNC=O)C=O	
InChI=1S/C6H11NO2/c1-2-6(4-8)3-7-5-9/h4-6H,2-3H2,1H3,(H,7,9)	InChI=1S/C6H11NO2/c1-2-6(4-8)3-7-5-9/h4-6H,2-3H2,1H3,(H,7,9)/t6-/m0/s1
