16
gdb 126339	2.2107	1.63223	1.00652	2.5039	72.31	-0.2704	-0.0712	0.1991	1148.5805	0.123999	-437.896394	-437.8881	-437.887156	-437.929732	29.734	
C	 0.3263138043	 1.7358402742	-0.1350540733	-0.378597
C	 0.1255875876	 0.2118445828	-0.0855382816	-0.30099
C	 0.7157031256	-0.5025352562	-1.2643659864	 0.058008
C	 0.0845443522	-1.0660364952	-2.3265114494	 0.003123
O	 0.9707070321	-1.6083055632	-3.1890799827	-0.157848
N	 2.2380444893	-1.4157999526	-2.7060809457	-0.174459
C	 2.0929753509	-0.7610724008	-1.5700562733	 0.237444
C	 3.3096309667	-0.4271318179	-0.8074290428	 0.090778
O	 3.3036211416	 0.183118159	 0.2365887802	-0.266749
H	 1.3904999558	 1.9816835312	-0.1184358667	 0.145359
H	-0.1168510114	 2.1633122883	-1.0397936132	 0.115513
H	-0.1444791093	 2.2083982731	 0.7320071294	 0.118606
H	 0.5814983474	-0.1760915422	 0.8306194093	 0.132286
H	-0.9439980179	-0.0194720477	-0.0343139906	 0.10467
H	-0.9537360992	-1.1658636031	-2.602706925	 0.160103
H	 4.2460218342	-0.7905033097	-1.2749352983	 0.112753
87.1998	117.5994	159.4215	178.7877	239.1224	282.7123	346.503	408.857	491.0284	628.7055	659.7567	724.4854	759.5882	802.5967	846.2567	937.1853	971.8497	991.0417	1039.5428	1076.9111	1094.9079	1129.514	1217.7265	1269.0462	1314.9066	1360.0025	1395.3015	1406.6442	1455.7824	1477.9797	1483.7589	1497.8666	1511.0147	1632.638	1797.6971	2945.3218	3043.5113	3044.29	3085.5002	3113.8158	3135.3263	3267.4828
CCC1=CON=C1C=O	CCc1conc1C=O	
InChI=1S/C6H7NO2/c1-2-5-4-9-7-6(5)3-8/h3-4H,2H2,1H3	InChI=1S/C6H7NO2/c1-2-5-4-9-7-6(5)3-8/h3-4H,2H2,1H3
