20
gdb 19308	6.29562	0.89507	0.889	0.9062	76.21	-0.2417	0.0937	0.3354	1384.1161	0.176404	-348.963534	-348.955046	-348.954102	-348.997548	31.231	
C	-0.1399188524	 1.4328041516	 0.1445825336	-0.071339
O	 0.0385130572	 0.0483547788	 0.4072035138	-0.250513
C	-1.1533906605	-0.6688139346	 0.3903346068	 0.155255
C	-1.6956293763	-1.1712403642	-0.9253423247	-0.288262
C	-1.0512225978	-2.1222808923	 0.0659362839	-0.287679
C	 1.1874783606	 2.1276471495	 0.264090992	 0.013382
C	 2.1391268551	 2.1385897708	-0.9033598939	-0.247071
C	 1.4276935388	 3.4054594448	-0.5000319354	-0.273019
H	-0.558630303	 1.5792753694	-0.8645945685	 0.082924
H	-0.8643599217	 1.857630147	 0.859867215	 0.085223
H	-1.8754859364	-0.3579205269	 1.1477376507	 0.079212
H	-2.7697118416	-1.2121203423	-1.0701770401	 0.110265
H	-1.1236020775	-0.9299982533	-1.8144072875	 0.116835
H	-0.0612394059	-2.4909135065	-0.1768637381	 0.125178
H	-1.6781973912	-2.8207002275	 0.6085097806	 0.112171
H	 1.6337330222	 2.0591800172	 1.2518387176	 0.089362
H	 3.2008714828	 2.0551167932	-0.7009416327	 0.112612
H	 1.8208661661	 1.645446288	-1.8158454876	 0.112155
H	 0.6343457349	 3.7698391887	-1.1447300126	 0.11071
H	 1.9987667368	 4.1903253783	-0.0170849028	 0.112598
53.1247	60.7829	122.007	152.3063	269.1358	324.0711	378.1916	470.8691	476.3326	756.4355	774.9543	811.4577	818.5207	823.4105	853.7874	919.6555	943.0711	975.3312	986.7635	1039.5306	1047.4817	1058.9226	1071.0809	1076.7015	1095.3981	1127.7966	1135.336	1193.6	1196.2448	1198.7581	1206.8329	1227.782	1242.7302	1280.3794	1361.537	1397.5586	1449.3595	1452.9256	1470.2917	1498.5252	1505.1589	1519.7416	2956.9238	2988.4994	3081.2072	3131.2914	3133.5787	3136.2643	3141.3219	3153.1899	3209.4135	3218.3463	3224.6473	3233.7662
C(OC1CC1)C1CC1	C(OC1CC1)C1CC1	
InChI=1S/C7H12O/c1-2-6(1)5-8-7-3-4-7/h6-7H,1-5H2	InChI=1S/C7H12O/c1-2-6(1)5-8-7-3-4-7/h6-7H,1-5H2
