15
gdb 79380	2.48815	1.87082	1.2266	3.595	70.67	-0.2469	-0.0169	0.2299	985.3421	0.111422	-416.688513	-416.681137	-416.680193	-416.72028	28.277	
C	 0.05588357	 1.4707642034	-0.3872513836	-0.345119
N	 0.042457131	 0.0342245691	-0.1155606635	-0.104002
C	-1.0414588515	-0.4609484757	 0.7677739205	-0.121542
C	-0.1552881321	-1.6352813895	 1.2727298484	 0.062166
O	-0.4009008755	-1.3972825134	 2.6872954111	-0.33625
C	-0.3385395679	-0.0568728209	 2.1403986802	 0.407657
C	-0.5131526438	 1.0663702699	 3.0181943979	 0.163946
N	-0.6485399832	 1.9978793128	 3.6906765329	-0.35053
C	 0.7950217347	-0.4191592156	 1.079616455	-0.121544
H	 1.0210948602	 1.7407869252	-0.8257074151	 0.133055
H	-0.7217998669	 1.7011497686	-1.121363594	 0.133055
H	-0.109330866	 2.0984675197	 0.502518086	 0.125871
H	-2.102849344	-0.4388884448	 0.5211861079	 0.11435
H	-0.0701147702	-2.6546268035	 0.9077374764	 0.124535
H	 1.8762621951	-0.3483496453	 1.1968609499	 0.114351
128.7637	162.6239	211.439	245.883	302.2118	449.1335	498.2783	542.802	551.2583	611.9306	745.0717	771.052	813.0373	828.7128	835.1601	913.7753	925.4188	1003.1345	1054.2969	1092.7968	1115.5557	1132.0291	1147.5811	1149.4739	1176.3196	1209.5036	1263.9424	1282.1068	1336.5303	1453.2349	1494.2551	1496.6155	2346.4673	2987.1537	3079.632	3113.8689	3129.4477	3131.335	3176.7881
CN1C2C3OC2(C#N)C13	CN1[C@H]2[C@@H]3O[C@@]2(C#N)[C@H]13	
InChI=1S/C6H6N2O/c1-8-4-3-5(8)6(4,2-7)9-3/h3-5H,1H3	InChI=1S/C6H6N2O/c1-8-4-3-5(8)6(4,2-7)9-3/h3-5H,1H3/t3-,4-,5+,6+
