21
gdb 70676	2.43769	1.68103	1.25691	1.0788	83.56	-0.2335	0.0204	0.2539	1091.663	0.183409	-387.079919	-387.071661	-387.070717	-387.112152	33.176	
C	 0.0844713627	 1.5444781238	 0.1422524903	-0.466863
C	 0.034427732	 0.0344205895	 0.0405791063	 0.327727
C	-0.8837726646	-0.7388385997	 0.9733616298	-0.382425
C	 0.6024980398	-0.7832047813	 1.1713532977	 0.081555
O	 1.2435546959	-1.9831523949	 0.86135416	-0.242234
C	 2.5712754617	-1.7908235387	 0.4002085901	-0.129383
C	 2.7093057029	-1.1420946834	-0.9528334358	-0.034339
C	 1.7493339003	-0.6158242719	-1.7136556587	-0.072793
C	 0.2782552592	-0.5379654391	-1.3551343417	-0.325597
H	 1.0270874845	 1.9308169718	-0.2627409534	 0.119855
H	-0.7367584045	 2.0082307004	-0.4172600505	 0.114315
H	 0.0055968744	 1.8790823691	 1.181768051	 0.11108
H	-1.4785366135	-0.1916150422	 1.6973282915	 0.107916
H	-1.3508581361	-1.6397822234	 0.5908686182	 0.119372
H	 1.0309394181	-0.2568809011	 2.027397444	 0.074975
H	 3.1524347273	-1.215177756	 1.1440404763	 0.096154
H	 3.0211001988	-2.7915308464	 0.3687634749	 0.116029
H	 3.7345090841	-1.1327121481	-1.3220133965	 0.08515
H	 2.0357886902	-0.2159092922	-2.6837169385	 0.085267
H	-0.162602939	-1.5379749737	-1.4259451684	 0.119361
H	-0.2479212443	 0.0777086276	-2.0934661567	 0.094877
134.3144	154.2083	223.0938	265.6671	318.8771	332.8793	382.9148	392.4845	436.7679	465.5258	588.1051	659.8081	755.4668	798.4892	825.7598	850.1651	883.057	912.8863	948.9708	962.4464	998.7841	1004.1313	1025.6113	1045.7873	1082.1993	1108.4354	1119.6323	1124.4072	1174.2415	1212.6462	1244.7155	1292.4809	1297.3905	1330.31	1354.9104	1393.4975	1411.8319	1416.1032	1426.9427	1472.975	1480.2256	1490.5983	1493.8046	1504.5697	1729.4445	2938.095	3019.7417	3035.2767	3038.6533	3068.5504	3071.2575	3080.5616	3096.3573	3126.1554	3130.7172	3154.9248	3219.4234
CC12CC1OCC=CC2	C[C@]12C[C@H]1OCC=CC2	
InChI=1S/C8H12O/c1-8-4-2-3-5-9-7(8)6-8/h2-3,7H,4-6H2,1H3	InChI=1S/C8H12O/c1-8-4-2-3-5-9-7(8)6-8/h2-3,7H,4-6H2,1H3/t7-,8+/m1/s1
