17
gdb 65314	3.07587	1.16384	1.07242	2.1905	71.07	-0.25	-0.0412	0.2088	1165.0248	0.133778	-458.927552	-458.91896	-458.918016	-458.961138	31.557	
O	-0.0523743966	 1.3729065761	-0.0163143824	-0.470077
C	-0.0028891742	-0.0113011084	-0.0253460976	 0.305839
C	-0.4849048372	-0.7638710673	 1.2130664396	-0.419683
C	-1.3257536404	-0.756046958	-0.0131981548	 0.201569
C	-2.6729799531	-0.0857803887	-0.2486878338	-0.12237
O	-3.0882988437	-1.1854995543	-1.0927061565	-0.272156
C	-1.8487904924	-1.8926059635	-0.8905851221	-0.143014
C	 1.1357800515	-0.5664809839	-0.7802665161	 0.096278
O	 1.9252141737	 0.1522911153	-1.3533938592	-0.289506
H	 0.6981280998	 1.6508407794	-0.5662097407	 0.29958
H	 0.0320714156	-1.678618261	 1.4896488171	 0.126873
H	-0.7828340018	-0.1309603854	 2.0427205926	 0.144319
H	-3.3145758306	 0.020726498	 0.6350325437	 0.108658
H	-2.6307630314	 0.8660823074	-0.7893168196	 0.124973
H	-1.3201633036	-2.0746293397	-1.8347223601	 0.108971
H	-1.9980575063	-2.8489205747	-0.3711101958	 0.106542
H	 1.2304460108	-1.6709729312	-0.7916032244	 0.093204
73.7609	108.9962	145.2283	193.696	268.815	297.9109	386.4079	401.5797	420.401	482.7856	535.5076	637.9409	820.9231	843.5765	879.0446	881.3213	913.3128	977.7891	994.7253	1029.0454	1032.971	1058.382	1091.7779	1125.6632	1149.4893	1160.4925	1203.4511	1303.7991	1310.9926	1349.1309	1375.0041	1396.5296	1445.7912	1499.1294	1508.9793	1533.4414	1786.0958	2932.3446	3001.4904	3020.4588	3045.9124	3072.1312	3119.6736	3215.2672	3690.4012
OC1(CC11COC1)C=O	O[C@]1(CC21COC2)C=O	
InChI=1S/C6H8O3/c7-2-6(8)1-5(6)3-9-4-5/h2,8H,1,3-4H2	InChI=1S/C6H8O3/c7-2-6(8)1-5(6)3-9-4-5/h2,8H,1,3-4H2/t6-/m1/s1
