18
gdb 88584	3.63463	1.16973	1.00196	2.6825	74.58	-0.2359	0.0144	0.2503	1210.0656	0.148972	-439.090042	-439.081992	-439.081048	-439.123431	30.071	
O	 0.1452586122	 1.3639333146	 0.0178249167	-0.423954
C	 0.023313212	-0.0086030567	 0.0352762931	 0.149652
C	-0.4649865083	-0.7571073778	 1.2295878944	-0.326118
C	-1.3590925176	-0.6851111419	-0.0142078461	-0.208413
C	-2.5301186118	 0.1923015932	 0.0120558796	 0.483753
N	-2.5726926699	 1.3643963879	 0.5254261578	-0.372087
C	-3.9216011515	 1.8922687846	 0.2870427474	-0.18849
C	-4.6429460137	 0.7597522211	-0.489513959	-0.115801
O	-3.6449705004	-0.282579325	-0.5964347378	-0.256717
H	-0.7089952455	 1.7355070037	 0.3180839533	 0.299174
H	 0.7883863153	-0.478402938	-0.5755296362	 0.110176
H	-0.0356146151	-1.7241265896	 1.468265463	 0.118655
H	-0.7935220665	-0.1688115296	 2.0793517277	 0.135034
H	-1.4815128633	-1.5809793322	-0.6096084318	 0.107482
H	-4.4125758831	 2.1236438859	 1.2383554086	 0.118513
H	-3.8685851511	 2.823434019	-0.2866174491	 0.121385
H	-5.5080215512	 0.3486803639	 0.037291932	 0.12358
H	-4.9456510107	 1.0459755267	-1.5002658538	 0.124177
59.9817	94.5647	143.7259	192.892	301.5665	348.9519	451.5543	511.3435	596.1933	684.9496	750.4223	755.7955	771.4764	821.5705	835.6494	906.2489	935.3246	983.6474	995.6954	1011.1782	1034.5957	1059.5537	1110.8498	1117.2013	1124.9956	1153.372	1208.9721	1216.4683	1236.4646	1246.2992	1325.986	1367.1912	1380.0964	1444.4434	1463.7198	1505.9014	1511.0329	1528.4986	1700.536	3040.036	3060.3078	3068.3021	3108.7115	3133.0321	3158.8594	3193.4379	3230.1902	3509.3511
OC1CC1C1=NCCO1	O[C@H]1C[C@H]1C1=NCCO1	
InChI=1S/C6H9NO2/c8-5-3-4(5)6-7-1-2-9-6/h4-5,8H,1-3H2	InChI=1S/C6H9NO2/c8-5-3-4(5)6-7-1-2-9-6/h4-5,8H,1-3H2/t4-,5+/m1/s1
