20
gdb 100736	2.40913	1.1867	0.92785	4.9471	72.04	-0.247	0.016	0.263	1322.2288	0.169758	-477.450762	-477.440613	-477.439669	-477.48622	36.507	
C	-0.0794980583	 1.4889261348	 0.2714150792	-0.330364
N	 0.0430464187	 0.0437794405	 0.0862576827	-0.308733
H	 0.5063531346	-0.3841233741	 0.8831398671	 0.245149
H	-1.3224030084	-0.9391273961	-0.2446395933	 0.312688
C	 0.737688652	-0.3966233584	-1.140827635	 0.020258
C	 2.2152180941	 0.0095941686	-1.2207793195	-0.405676
C	 0.5779261902	-1.9198691343	-1.2549200808	-0.008106
O	 1.2318702105	-2.4911249062	-0.1199276286	-0.448111
C	-0.8763753614	-2.4460820801	-1.294382038	 0.378377
O	-1.1214919132	-3.502287146	-1.824677956	-0.351101
O	-1.7950605372	-1.7167496576	-0.6675242605	-0.373484
H	 0.8822039419	 2.0153315963	 0.3426828434	 0.119399
H	-0.6393077363	 1.9141043096	-0.5676834584	 0.135779
H	-0.6448178095	 1.6851457321	 1.1862603517	 0.134558
H	 0.1950411224	 0.0507810189	-1.9839786542	 0.098253
H	 2.6492439387	-0.3185686237	-2.1704865172	 0.125155
H	 2.3356610067	 1.0943049087	-1.1609175677	 0.119087
H	 2.7840256149	-0.4551653831	-0.4111775488	 0.138942
H	 1.0490829773	-2.2606063094	-2.1859196485	 0.095237
H	 1.0851144122	-3.4432556503	-0.1530333076	 0.302692
47.017	88.6441	139.395	194.1089	204.2593	222.875	260.3499	283.9241	335.6634	359.7246	372.5768	394.9414	485.2084	649.3914	702.8282	777.7582	783.9795	874.2644	900.9831	958.9741	983.732	1038.3821	1070.0199	1080.422	1106.6009	1162.0755	1169.4063	1188.3321	1267.1008	1301.3698	1316.8385	1360.5227	1365.0183	1404.66	1420.6491	1455.9866	1475.4366	1488.2511	1499.0404	1504.6025	1519.1419	1538.7657	1841.5721	3004.1644	3022.8535	3031.0386	3045.8165	3051.3611	3080.4762	3114.0145	3116.8042	3130.4441	3516.5369	3806.6437
C[NH2+]C(C)C(O)C([O-])=O	CN[C@@H](C)[C@@H](O)C(=O)O	
InChI=1S/C5H11NO3/c1-3(6-2)4(7)5(8)9/h3-4,6-7H,1-2H3,(H,8,9)	InChI=1S/C5H11NO3/c1-3(6-2)4(7)5(8)9/h3-4,6-7H,1-2H3,(H,8,9)/t3-,4+/m0/s1
