21
gdb 59476	2.86085	1.08338	0.96524	2.4794	78.99	-0.2554	0.0748	0.3302	1333.2234	0.180935	-424.187541	-424.177875	-424.17693	-424.222398	35.872	
C	 0.1133375936	 1.3393229187	-0.4799501462	-0.401378
C	 0.0785036381	-0.0974347926	 0.0432257319	 0.118774
O	 0.7951278261	-0.2147316616	 1.2760985286	-0.438902
C	-1.340670069	-0.6128886532	 0.1862568455	-0.027275
C	-2.0288457303	-1.343086008	-0.9440432366	-0.31279
C	-1.6269635259	-2.0919805464	 0.3006115736	-0.055028
C	-0.5194224254	-3.1012344392	 0.2575965567	 0.062739
C	-0.5756071	-4.2719442147	-0.6295801877	-0.179643
O	 0.2753514845	-3.1636007673	-0.9307794977	-0.228486
H	 1.1457942322	 1.6906060054	-0.556584725	 0.122202
H	-0.3574419533	 1.410787048	-1.4655086471	 0.119464
H	-0.4276966545	 2.0129413094	 0.1972231193	 0.100059
H	 0.6247263289	-0.746155767	-0.647322981	 0.117098
H	 0.3494405651	 0.3416670747	 1.9246236734	 0.271298
H	-1.9782981795	 0.0337413463	 0.788942859	 0.070292
H	-3.0808427516	-1.1541291483	-1.1256890359	 0.10744
H	-1.438854592	-1.5414725263	-1.8326178253	 0.131792
H	-2.4215939072	-2.3676826674	 0.9900389236	 0.087796
H	 0.066727678	-3.1847283012	 1.1727945882	 0.106474
H	-0.0608680247	-5.1910070625	-0.353801946	 0.114505
H	-1.4305171331	-4.3932138669	-1.2931600814	 0.11357
62.481	82.1125	114.3758	188.9075	236.3638	246.782	278.3263	290.5466	352.8125	419.8162	482.7026	545.3867	632.3345	738.8073	783.9044	847.7247	853.7435	899.3127	910.5587	967.0022	989.5141	996.5476	1061.2354	1071.2032	1084.7266	1096.6546	1105.721	1126.9083	1138.2835	1160.2606	1169.0496	1190.2782	1223.7892	1281.7235	1297.1866	1335.9262	1388.0607	1400.4482	1420.8991	1429.7745	1440.7239	1488.5444	1490.887	1494.6841	1523.0333	3022.1	3077.0369	3084.5607	3094.8527	3108.2534	3112.854	3119.6939	3132.6346	3137.2549	3173.6945	3223.156	3795.0596
CC(O)C1CC1C1CO1	C[C@@H](O)[C@H]1C[C@H]1[C@H]1CO1	
InChI=1S/C7H12O2/c1-4(8)5-2-6(5)7-3-9-7/h4-8H,2-3H2,1H3	InChI=1S/C7H12O2/c1-4(8)5-2-6(5)7-3-9-7/h4-8H,2-3H2,1H3/t4-,5-,6-,7-/m1/s1
