21
gdb 118738	2.95985	0.94122	0.83648	4.2524	79.2	-0.2688	0.0156	0.2845	1482.2201	0.180706	-424.274696	-424.264938	-424.263994	-424.309709	36.006	
C	-0.03154752	 1.627597378	-0.0853944705	-0.383542
C	-0.0458423802	 0.0985070284	-0.0067644776	-0.177857
C	 0.920610411	-0.4415751245	 1.0550966577	-0.22021
C	 0.8505897315	-1.9494700577	 1.2772479958	 0.412868
C	 1.1717326995	-2.7951000721	 0.0568593644	-0.442475
C	 1.4665212207	-2.4437437898	 2.608018146	-0.478474
C	 0.0205453505	-2.7544460613	 2.9862456782	 0.44367
O	-0.5700099145	-3.2035472988	 3.9159647388	-0.321872
O	-0.4979951779	-2.3178840722	 1.7984376045	-0.275435
H	 0.9658244318	 2.0048140508	-0.3383184588	 0.113565
H	-0.7273274137	 1.990764046	-0.8476448018	 0.116836
H	-0.3217189316	 2.0760937086	 0.8710724824	 0.11917
H	-1.0568143971	-0.2529676527	 0.2285291082	 0.122747
H	 0.2081185795	-0.3161748664	-0.9892840186	 0.099261
H	 1.9550745362	-0.1822311682	 0.7916846555	 0.101719
H	 0.7112898946	 0.0520210779	 2.0126478743	 0.102409
H	 2.183194303	-2.5759618477	-0.3007277001	 0.124937
H	 1.1143407356	-3.8595690119	 0.3005098949	 0.127432
H	 0.4697553712	-2.5971891605	-0.7567118251	 0.139313
H	 2.110045872	-3.3229430671	 2.5431159659	 0.13791
H	 1.9425019281	-1.6850555288	 3.2319119759	 0.138029
62.8632	85.4	116.4671	170.2268	220.6285	250.4045	313.9918	328.8796	340.0229	381.3009	470.5129	527.8728	546.6296	667.5202	747.0114	815.0441	838.6023	877.0321	887.1808	930.9736	960.7342	980.7075	1031.3845	1052.2044	1088.1774	1094.5341	1120.2528	1192.2851	1228.0718	1241.7327	1266.9755	1302.3071	1330.5106	1348.4781	1401.8257	1411.2891	1416.5006	1456.1747	1471.3403	1488.3873	1493.5084	1496.8937	1500.7571	1510.2464	1933.7007	3014.8648	3029.7158	3034.2659	3044.3273	3050.6724	3073.6351	3085.1605	3100.0005	3105.9162	3115.0293	3127.2646	3142.1488
CCCC1(C)CC(=O)O1	CCC[C@@]1(C)CC(=O)O1	
InChI=1S/C7H12O2/c1-3-4-7(2)5-6(8)9-7/h3-5H2,1-2H3	InChI=1S/C7H12O2/c1-3-4-7(2)5-6(8)9-7/h3-5H2,1-2H3/t7-/m0/s1
