19
gdb 115467	4.9907	0.83257	0.75767	3.2045	82.35	-0.2468	-0.065	0.1818	1515.3943	0.157999	-423.049046	-423.039846	-423.038902	-423.08383	32.768	
C	 0.0228576543	 1.5050271277	-0.1633185355	-0.381001
C	-0.0084027195	-0.0206955843	-0.0502804317	-0.179512
C	-1.4289805666	-0.5615423356	 0.1711537577	 0.106655
O	-2.2842476416	-0.1885856518	-0.9146964664	-0.285179
C	-2.9045049013	-1.3364340538	-1.493691109	-0.16331
C	-2.3428491224	-2.5064091865	-0.7289722854	 0.207458
C	-2.6784698686	-3.9032809248	-1.0051158101	 0.074389
O	-3.4421815494	-4.2515626515	-1.8786666386	-0.264644
C	-1.5167693731	-2.0590017087	 0.2214486096	-0.210671
H	 1.0392141731	 1.8636392184	-0.3501034898	 0.113099
H	-0.6175952765	 1.8393678679	-0.9831938961	 0.140344
H	-0.3355761008	 1.9769949713	 0.7583204634	 0.113895
H	 0.3965716296	-0.4779464457	-0.9607554024	 0.103472
H	 0.6215332874	-0.353825784	 0.7846560948	 0.094593
H	-1.8244567962	-0.1208556096	 1.1042032642	 0.089503
H	-3.9976467641	-1.2702895901	-1.3967597349	 0.120941
H	-2.6761054378	-1.3911928877	-2.5665339848	 0.123331
H	-2.1753993219	-4.644376474	-0.3458279185	 0.07375
H	-0.9703394045	-2.6650898272	 0.9347406935	 0.122887
50.497	99.4314	112.9358	156.8086	200.3597	227.5882	281.4068	359.9089	406.2959	480.2573	537.403	709.9362	731.3781	799.3753	844.3311	892.0881	912.7224	938.272	998.7865	1016.549	1039.8523	1057.8391	1075.3846	1116.6496	1138.6753	1191.8589	1218.6373	1283.7968	1288.1257	1321.9863	1361.015	1381.103	1389.5942	1408.0398	1419.4046	1476.0234	1495.9294	1509.2925	1520.309	1691.5825	1782.9944	2889.058	2937.4598	3002.6932	3024.4769	3030.0478	3038.0614	3066.4415	3104.7749	3127.4946	3208.4309
CCC1OCC(C=O)=C1	CC[C@H]1OCC(=C1)C=O	
InChI=1S/C7H10O2/c1-2-7-3-6(4-8)5-9-7/h3-4,7H,2,5H2,1H3	InChI=1S/C7H10O2/c1-2-7-3-6(4-8)5-9-7/h3-4,7H,2,5H2,1H3/t7-/m1/s1
