15
gdb 35679	3.76604	1.02175	0.94092	1.8691	69.5	-0.302	-0.0021	0.2999	1218.5979	0.113908	-416.833092	-416.824907	-416.823963	-416.867444	28.665	
N	-0.432757653	-0.894598654	-0.7581251521	-0.309289
C	-0.2356694298	 0.1791162383	-0.379216996	 0.267608
C	 0.012992969	 1.528535695	 0.1101461024	-0.184569
C	-0.5054350929	 1.7666458566	 1.5609869195	-0.083502
O	 0.4997878801	 2.5292567675	 2.2351768068	-0.242218
C	 1.4737402837	 2.9718776634	 1.3097969393	-0.041663
C	 1.513726381	 1.888278283	 0.220034915	-0.243846
C	 1.1199795834	 4.2967445897	 0.749099146	 0.273909
N	 0.8281073751	 5.3206921682	 0.3004017342	-0.313912
H	-0.4746808122	 2.2337340734	-0.5702086365	 0.155132
H	-1.4533684792	 2.3134248296	 1.5536348304	 0.136599
H	-0.6401855148	 0.8288558088	 2.106469894	 0.142304
H	 2.4237699172	 3.0662234888	 1.8430487058	 0.146496
H	 2.0877921532	 1.0358458469	 0.58950438	 0.14599
H	 1.9410365293	 2.2268671047	-0.7240515288	 0.15096
26.9338	80.2388	150.1079	201.2527	233.6526	302.0691	452.0619	523.4653	537.6949	566.0294	616.2838	755.3897	830.5625	862.3313	935.3765	942.7162	987.8131	1037.6454	1062.5745	1090.6986	1113.1491	1187.9324	1240.2686	1262.045	1297.6499	1318.0427	1348.2692	1367.4104	1397.4199	1484.8823	1525.3894	2355.1461	2363.4346	3052.5535	3065.1624	3081.1876	3090.3021	3105.1807	3149.6339
N#CC1COC(C1)C#N	N#C[C@H]1CO[C@@H](C1)C#N	
InChI=1S/C6H6N2O/c7-2-5-1-6(3-8)9-4-5/h5-6H,1,4H2	InChI=1S/C6H6N2O/c7-2-5-1-6(3-8)9-4-5/h5-6H,1,4H2/t5-,6-/m0/s1
