20
gdb 101110	3.54674	1.03066	0.93265	0.9192	74.74	-0.2328	0.0492	0.2819	1301.4858	0.171438	-440.190885	-440.182212	-440.181268	-440.224668	33.179	
O	 0.0924000013	 1.4258336208	-0.0961581457	-0.423566
C	 0.1074800067	 0.022849456	 0.0433578792	-0.063279
C	-1.3180928989	-0.5374281072	 0.0589041182	-0.075324
O	-2.0283550015	-0.0411911363	-1.0843303606	-0.44025
C	-1.3754209082	-2.045003578	 0.129471208	 0.31687
C	-0.8186427898	-3.0105154163	 1.2045525957	-0.218459
N	-1.4700529023	-3.9883455833	 0.2094887548	-0.142021
C	-2.6192707992	-2.9626051318	 0.1717385066	-0.208889
C	-0.8270429866	-3.1030749324	-0.8701635262	-0.223926
H	-0.6028458926	 1.6090275033	-0.7420478461	 0.285491
H	 0.6749986196	-0.4585711691	-0.7745473533	 0.074188
H	 0.6222227771	-0.2128830447	 0.9812980915	 0.111023
H	-1.8489788585	-0.109759481	 0.9181305027	 0.098746
H	-1.7023493556	-0.5165255741	-1.8581863775	 0.284182
H	 0.2652884029	-3.1302625104	 1.2848692233	 0.105311
H	-1.2936829859	-3.0098824868	 2.1894666094	 0.105811
H	-3.2298808507	-2.9586692859	 1.0787806396	 0.104006
H	-3.2388784603	-3.0327396148	-0.7257696131	 0.10454
H	-1.31118292	-3.1972850252	-1.8472769693	 0.099314
H	 0.2558964224	-3.2317792627	-0.9500429671	 0.106234
57.2356	111.7092	130.8226	210.847	293.7321	331.6704	347.5812	420.1369	503.1402	521.1109	590.7324	594.5712	726.1726	795.1952	803.9703	863.4363	912.1157	935.8348	976.1039	983.5059	998.7272	1024.9864	1060.6947	1073.9695	1102.7278	1136.7109	1165.0503	1167.4881	1170.0562	1198.6811	1202.9	1204.801	1266.0004	1292.9713	1302.6618	1339.7585	1384.0731	1422.5868	1444.1122	1506.305	1511.1051	1511.6099	1565.0623	2933.9699	3041.273	3045.1958	3048.5956	3057.33	3068.829	3108.9231	3117.0676	3122.125	3761.1879	3785.2571
OCC(O)C12CN(C1)C2	OC[C@@H](O)[C@@]12CN(C1)C2	
InChI=1S/C6H11NO2/c8-1-5(9)6-2-7(3-6)4-6/h5,8-9H,1-4H2	InChI=1S/C6H11NO2/c8-1-5(9)6-2-7(3-6)4-6/h5,8-9H,1-4H2/t5-/m1/s1
