23
gdb 112510	3.32427	0.92543	0.82209	0.8406	92.33	-0.2521	0.0511	0.3033	1509.9838	0.20405	-351.122827	-351.112592	-351.111647	-351.157914	38.626	
C	-0.1504805355	 1.5884514408	 0.1147795073	-0.380953
C	 0.0575306095	 0.0798816389	-0.0612844814	-0.202839
C	 0.7161934743	-0.5673666311	 1.1507889334	 0.051381
C	-0.0674451595	-0.6450115124	 2.4890385023	-0.24712
C	 0.5895589999	-2.0357438129	 2.7513824438	-0.177871
C	-0.1973490582	-3.0794619833	 3.3737952788	 0.325129
C	-0.8640271912	-3.9445810522	 3.8791856584	-0.462685
C	 0.9235306776	-2.1187431059	 1.2134365814	-0.033762
C	-0.0496457108	-2.9626424985	 0.3971467908	-0.395839
H	 0.8031362827	 2.1036879942	 0.2758136082	 0.112887
H	-0.6234300599	 2.0305534813	-0.7675313964	 0.111637
H	-0.7908459223	 1.8025876467	 0.9772754839	 0.119312
H	-0.9090348452	-0.3993874115	-0.2580810119	 0.095844
H	 0.6757464132	-0.1014483693	-0.9507450833	 0.094039
H	 1.6825280284	-0.079130315	 1.3304496892	 0.067105
H	 0.1022898906	 0.130261806	 3.2392326828	 0.101781
H	-1.1442042491	-0.7448418297	 2.3252978827	 0.108402
H	 1.520492892	-1.8988208509	 3.3122871938	 0.099699
H	-1.448970653	-4.7064292799	 4.3313929126	 0.190445
H	 1.9460539944	-2.448217584	 1.0054379558	 0.068693
H	-1.0931324732	-2.6928265391	 0.5869217794	 0.120394
H	 0.1389656913	-2.848190982	-0.6751829906	 0.111303
H	 0.0602073939	-4.02137724	 0.650212499	 0.123017
63.1859	91.5127	132.0502	172.8122	209.158	234.575	249.7819	284.8895	341.4656	392.3768	445.3251	513.5269	561.9252	611.9436	624.975	651.9563	747.9689	789.4532	798.8737	910.1767	921.7568	946.1516	964.9345	1012.1434	1030.4223	1054.6984	1059.0244	1116.2898	1146.2214	1153.8967	1180.189	1232.5335	1242.605	1275.1356	1280.7188	1293.9607	1334.2859	1348.9443	1369.2806	1399.2616	1410.7963	1415.8528	1483.1349	1489.6199	1495.0441	1498.7344	1500.5867	1508.1345	2228.2763	3016.0071	3016.9046	3030.3074	3037.0592	3039.5193	3053.738	3056.6911	3060.753	3097.401	3102.9067	3104.9876	3109.1721	3116.7007	3505.0252
CCC1CC(C#C)C1C	CC[C@H]1C[C@@H](C#C)[C@H]1C	
InChI=1S/C9H14/c1-4-8-6-9(5-2)7(8)3/h1,7-9H,5-6H2,2-3H3	InChI=1S/C9H14/c1-4-8-6-9(5-2)7(8)3/h1,7-9H,5-6H2,2-3H3/t7-,8-,9+/m1/s1
