20
gdb 41229	3.22649	1.8448	1.71648	1.6629	80.51	-0.2256	0.0863	0.3119	897.0684	0.175641	-365.967214	-365.961094	-365.960149	-365.99714	27.496	
C	-0.0221040123	 1.5028012539	-0.2794327101	-0.296582
C	 1.5064211863	 1.4999568524	 0.1253442673	-0.336708
C	 1.1935168574	 0.2635165149	 1.0104341499	 0.292182
C	 1.6651523413	-1.1744703194	 1.2615785919	-0.341823
C	 0.2419523993	-1.6929395123	 1.6320091054	-0.031285
C	-0.4724499884	-0.5908194765	 2.3333890062	-0.032634
C	 0.4826323594	 0.5911854372	 2.3503062832	-0.264739
N	-0.8419226591	-0.899310221	 0.9309618137	-0.167211
C	-0.0019803329	-0.0091745048	 0.1050177631	 0.100267
H	-0.6266691909	 2.1347083535	 0.371712844	 0.116216
H	-0.2632235747	 1.735718397	-1.3181709064	 0.100419
H	 2.1419744452	 1.2612252887	-0.7315120407	 0.108106
H	 1.9018543129	 2.3884165326	 0.6223209559	 0.101219
H	 2.0772372269	-1.6598047303	 0.3724336167	 0.101255
H	 2.357756215	-1.3150615556	 2.0980226082	 0.097209
H	 0.0414897375	-2.743472308	 1.7997596814	 0.090989
H	-1.2319729142	-0.7508220131	 3.0890327896	 0.087353
H	 1.1773284615	 0.5573493106	 3.1966893246	 0.097995
H	-0.0262208119	 1.5571988879	 2.3662628922	 0.100028
H	 0.2902047719	-0.5733379876	-0.7875508963	 0.077747
282.389	291.0298	367.8894	446.3136	485.1303	555.1068	650.269	667.7296	721.1198	775.4662	795.5075	809.0548	837.6021	859.8053	888.6553	903.4387	929.7005	954.7294	964.6237	982.6012	1028.3881	1059.4988	1080.0785	1087.2191	1110.3411	1120.4625	1150.5454	1172.387	1201.3155	1210.4488	1219.1508	1236.5702	1244.3202	1259.9742	1280.2248	1289.9157	1318.7495	1359.4122	1393.9799	1476.1864	1490.1454	1494.5881	1514.7255	3040.8892	3047.2697	3052.7919	3063.3412	3080.7257	3098.8582	3107.8038	3114.2463	3140.8772	3184.7896	3199.1867
C1CC23CC4C(C2)N4C13	C1C[C@@]23C[C@H]4[C@@H](C2)N4[C@@H]13	
InChI=1S/C8H11N/c1-2-8-3-5-6(4-8)9(5)7(1)8/h5-7H,1-4H2	InChI=1S/C8H11N/c1-2-8-3-5-6(4-8)9(5)7(1)8/h5-7H,1-4H2/t5-,6+,7-,8+,9?/m0/s1
