17
gdb 99016	3.25351	0.8245	0.77374	3.0271	66.96	-0.2803	-0.0633	0.2171	1496.1718	0.13203	-496.123358	-496.11331	-496.112366	-496.160446	34.495	
O	-0.5726757235	 1.5308326573	 0.0075220063	-0.415754
C	-0.6168917807	 0.2411796223	 0.5335389587	-0.134584
C	-1.1710008768	-0.7578867358	-0.4608944934	 0.35324
O	-1.4864513421	-0.4087714206	-1.5766211211	-0.312116
C	-1.363589774	-2.1933885648	 0.0245539785	-0.393166
C	-2.8103056388	-2.3402434914	 0.4925057978	 0.353169
O	-3.1664319152	-1.9970291219	 1.5977746036	-0.312115
C	-3.8097637088	-2.8848032983	-0.5067879307	-0.134529
O	-5.1072325621	-2.8868086258	 0.001558594	-0.415735
H	-0.8921196639	 1.4529737784	-0.9045924061	 0.297075
H	 0.38558008	-0.1087526056	 0.8367775242	 0.120685
H	-1.2445932353	 0.187076534	 1.4394347686	 0.142808
H	-1.1544489724	-2.8693619084	-0.8077794711	 0.145202
H	-0.7051021839	-2.4089139626	 0.8692074263	 0.145262
H	-3.7268672559	-2.2738804238	-1.4219351249	 0.14273
H	-3.4820044286	-3.9009116179	-0.7886572611	 0.120731
H	-5.0336083279	-2.5543466852	 0.9093657904	 0.297097
21.8098	43.9617	88.3394	136.1406	175.6245	235.3342	280.5038	356.1763	365.4677	378.9796	425.7901	487.8328	506.8691	643.0429	674.6781	812.3885	825.0195	939.014	979.208	1028.6378	1051.4334	1116.3113	1139.393	1164.2091	1228.6076	1246.8583	1252.7529	1276.0671	1310.0499	1321.8189	1443.872	1445.0393	1466.1962	1486.404	1488.1497	1782.7949	1810.1497	2962.7234	2962.8879	2986.0964	2986.2837	3070.9238	3137.581	3706.4583	3706.6983
OCC(=O)CC(=O)CO	OCC(=O)CC(=O)CO	
InChI=1S/C5H8O4/c6-2-4(8)1-5(9)3-7/h6-7H,1-3H2	InChI=1S/C5H8O4/c6-2-4(8)1-5(9)3-7/h6-7H,1-3H2
