12
gdb 23957	2.0164	1.92423	0.98462	3.4804	78.14	-0.2436	-0.0551	0.1885	1086.0024	0.078992	-394.550915	-394.543503	-394.542559	-394.583058	27.248	
C	 0.0920525031	-1.1988602359	-0.0052103974	-0.386397
C	 0.0509122836	 0.0033016038	 0.0025614763	 0.245528
C	-0.0132363097	 1.4142191808	 0.0110515347	 0.081931
C	-1.162469762	 2.198483519	 0.0311670722	 0.146981
N	-0.7090477413	 3.5027862702	 0.0319930257	-0.311442
C	 0.6475604653	 3.4543576865	 0.012981161	 0.014852
N	 1.1008901521	 2.2220618202	 0.0000111772	-0.30524
C	-2.5297621813	 1.8629167196	 0.0482454992	 0.211319
N	-3.6593432895	 1.6034921426	 0.0624627008	-0.343613
H	 0.1285412382	-2.2603199703	-0.0126737226	 0.201329
H	-1.291685266	 4.3247041838	 0.0445273777	 0.28997
H	 1.2545091675	 4.3473711496	 0.0094446454	 0.154781
105.1486	156.8644	184.3592	203.5516	443.2059	469.4722	521.7486	525.6821	554.5226	606.7316	637.3576	663.0642	670.0977	678.1568	771.1781	846.9452	955.9419	1097.7851	1143.285	1258.8923	1287.5215	1375.6275	1449.6069	1502.6041	1567.1357	2242.3361	2339.0671	3258.7943	3501.7157	3655.0832
C#CC1=C(NC=N1)C#N	C#Cc1c([nH]cn1)C#N	
InChI=1S/C6H3N3/c1-2-5-6(3-7)9-4-8-5/h1,4H,(H,8,9)	InChI=1S/C6H3N3/c1-2-5-6(3-7)9-4-8-5/h1,4H,(H,8,9)
