20
gdb 41779	2.8792	1.55207	1.12546	2.1387	80.4	-0.2311	0.0319	0.263	1107.9624	0.174061	-403.146209	-403.138593	-403.137649	-403.178349	30.098	
C	 0.1519088985	 1.6574730612	 0.301538309	-0.24679
C	 1.5567926644	 1.4657759384	-0.3302821004	-0.220673
C	 1.0684144122	 0.1028852218	-0.9047843848	 0.060075
N	 2.0658410946	-0.9183130493	-1.0222734301	-0.270211
C	 2.2239874788	-1.9806958601	-0.3655698277	 0.118846
O	 1.5362766175	-2.6008206332	 0.6283201494	-0.224317
C	 0.2241388495	-2.1897357116	 1.0261594131	-0.066507
C	 0.1027156819	-0.7095372693	 1.3692776207	-0.229965
C	-0.1166462737	 0.1374947607	 0.1217343023	-0.027419
H	 0.1165250763	 2.0414645114	 1.3243480608	 0.096812
H	-0.5051099056	 2.2709531067	-0.3202313466	 0.101607
H	 1.9102728311	 2.2119659409	-1.0446262347	 0.101051
H	 2.3310948406	 1.3117063745	 0.4256433849	 0.106884
H	 0.6659774504	 0.2742501395	-1.9102326024	 0.08678
H	 3.1017592646	-2.5950973344	-0.5719949404	 0.116083
H	-0.4892618739	-2.455919254	 0.2329113994	 0.106176
H	 0.0079069331	-2.816446494	 1.8952344822	 0.114984
H	-0.7431947401	-0.5763210072	 2.0553569701	 0.102837
H	 1.0005415875	-0.3992839542	 1.9182012424	 0.110533
H	-1.0891140978	-0.1230447777	-0.3105834974	 0.063213
104.4373	123.5008	238.7868	291.9642	327.5454	350.4164	425.6729	536.5517	591.2513	632.9234	742.7223	756.7224	823.8639	850.9578	887.7835	939.0852	953.6321	965.4546	975.8228	1007.0728	1009.189	1073.0601	1086.9993	1113.9751	1166.761	1173.8695	1207.6294	1229.2201	1245.4809	1259.885	1270.3021	1287.9837	1309.1962	1344.4448	1369.5624	1398.91	1417.165	1447.3529	1475.3765	1483.8559	1498.8573	1501.4243	1771.2218	3006.3651	3023.0563	3025.7471	3037.0591	3058.5593	3067.9992	3069.8351	3093.0672	3103.9152	3125.0236	3125.5936
C1CC2N=COCCC12	C1C[C@H]2N=COCC[C@@H]12	
InChI=1S/C7H11NO/c1-2-7-6(1)3-4-9-5-8-7/h5-7H,1-4H2	InChI=1S/C7H11NO/c1-2-7-6(1)3-4-9-5-8-7/h5-7H,1-4H2/t6-,7-/m1/s1
