19
gdb 89759	2.45045	1.56115	1.14837	0.8765	75.63	-0.2575	0.0614	0.3189	1109.411	0.15812	-422.974542	-422.966085	-422.965141	-423.007566	32.889	
O	 0.507594488	 0.8251778795	-0.7019006222	-0.433004
C	 0.097240174	-0.2708410397	 0.0744043714	 0.067198
C	 0.0256422005	-0.1093105057	 1.6298452011	-0.380718
C	-1.3585768453	-0.7669074343	 1.5891061391	 0.403462
C	-1.9382931182	-1.7793544225	 2.471737564	-0.270434
O	-2.4398001949	-0.4318049127	 2.4423585764	-0.273922
C	-1.3969768246	-0.6537025942	 0.0815316561	 0.237906
C	-2.4705839882	 0.0645728339	-0.691823527	-0.319016
C	-2.2125849861	-1.4029820319	-0.9251430045	-0.342962
H	-0.0611917751	 1.5708529164	-0.4796189921	 0.279942
H	 0.7426998544	-1.1009682285	-0.2258820779	 0.095492
H	 0.8034823797	-0.5953634178	 2.2224363963	 0.111629
H	-0.0391740246	 0.9443128235	 1.9201667354	 0.11165
H	-2.6104118267	-2.5351380334	 2.0669658352	 0.114034
H	-1.4193939841	-2.0627915674	 3.3869812131	 0.115368
H	-3.3625206578	 0.3501991634	-0.1450522928	 0.131087
H	-2.1523963724	 0.7609953809	-1.4612804294	 0.116446
H	-1.7262642878	-1.6942424237	-1.8508242175	 0.120705
H	-2.9460324607	-2.1149939858	-0.5592053846	 0.115136
62.8068	183.5481	196.7112	213.9952	259.5232	337.4204	341.0925	422.518	491.8304	515.1184	564.0099	623.4354	763.1064	798.6659	834.0695	866.9161	883.5433	913.109	938.7361	975.1161	996.6506	1035.2834	1052.5187	1079.7273	1110.3333	1118.5678	1128.5893	1145.8452	1168.7907	1195.7597	1197.8518	1252.3114	1254.3795	1311.5735	1366.7688	1429.3006	1445.6119	1455.5101	1474.6664	1496.5566	1538.5489	3055.5105	3073.569	3077.8486	3117.9581	3121.8511	3128.7574	3164.1393	3203.3318	3223.2388	3799.8645
OC1CC2(CO2)C11CC1	O[C@H]1C[C@]2(CO2)C21CC2	
InChI=1S/C7H10O2/c8-5-3-7(4-9-7)6(5)1-2-6/h5,8H,1-4H2	InChI=1S/C7H10O2/c8-5-3-7(4-9-7)6(5)1-2-6/h5,8H,1-4H2/t5-,7-/m0/s1
