25
gdb 112558	2.58048	1.06616	0.91203	1.25	89.	-0.2494	0.0707	0.3202	1455.4477	0.226809	-389.495923	-389.485132	-389.484188	-389.53112	41.155	
C	 0.0269053205	 1.5614539189	-0.150646892	-0.380863
C	 0.0459567703	 0.0405277949	 0.0383394161	-0.19787
C	-1.3509080526	-0.5706087883	 0.0360220644	 0.056465
C	-2.1685504937	-0.5716265735	-1.2865092974	-0.304571
C	-2.6957906856	-1.9905988616	-0.9217914786	 0.420403
C	-4.0803771557	-1.9790227902	-0.280092387	-0.44762
O	-2.625651844	-2.9751195573	-1.9387173971	-0.476149
C	-1.5354458294	-2.1257949305	 0.1155182081	-0.063108
C	-0.3545552994	-2.9696358422	-0.357675635	-0.394828
H	 1.0397997202	 1.9762070133	-0.1475371177	 0.109717
H	-0.4420970222	 1.8374069879	-1.1014059777	 0.117933
H	-0.5371094017	 2.0535216446	 0.6498780074	 0.111037
H	 0.6520287047	-0.4156964744	-0.7534875114	 0.095147
H	 0.5473073584	-0.2023567352	 0.9848795336	 0.092417
H	-1.9380796879	-0.0964978389	 0.8319451723	 0.063024
H	-2.9067610526	 0.2209229612	-1.4406973047	 0.084707
H	-1.5156665203	-0.6268032506	-2.1630286627	 0.098607
H	-4.8478900618	-1.7044291117	-1.0155764701	 0.101003
H	-4.3227000951	-2.9700576114	 0.1165723323	 0.121212
H	-4.1382023722	-1.2549346804	 0.5386511859	 0.118285
H	-3.3637802537	-2.8346643945	-2.5412040728	 0.272087
H	-1.8633393667	-2.4888285784	 1.0959687713	 0.057658
H	-0.0014118193	-2.6670562875	-1.3469360712	 0.120058
H	 0.4828349375	-2.8909562971	 0.3433531651	 0.104502
H	-0.6431521679	-4.021823167	-0.4279335312	 0.120746
72.4146	100.0224	157.8492	212.8948	233.6263	238.6707	242.4765	265.9161	274.9923	332.4677	338.9205	384.8447	439.5895	489.7449	518.2707	634.5044	736.8498	780.9843	798.0026	887.6014	894.4336	930.6269	948.5887	972.2816	999.9817	1025.2775	1035.8587	1057.5576	1113.3034	1126.7273	1141.4703	1190.4569	1193.9439	1219.607	1261.2943	1275.7943	1282.8415	1299.653	1341.4745	1352.4672	1383.1184	1397.5362	1407.8788	1409.9498	1414.1067	1479.1609	1485.0351	1491.3365	1493.8276	1496.9206	1499.1777	1500.1673	1507.7748	3016.1559	3017.8186	3019.0192	3029.0249	3036.7371	3041.7438	3045.94	3055.5227	3085.5868	3095.8441	3099.7196	3101.2609	3108.7426	3110.4072	3119.7822	3803.9043
CCC1CC(C)(O)C1C	CC[C@H]1C[C@@](C)(O)[C@H]1C	
InChI=1S/C8H16O/c1-4-7-5-8(3,9)6(7)2/h6-7,9H,4-5H2,1-3H3	InChI=1S/C8H16O/c1-4-7-5-8(3,9)6(7)2/h6-7,9H,4-5H2,1-3H3/t6-,7-,8+/m0/s1
