19
gdb 77762	2.74615	1.51389	1.13572	3.0114	81.13	-0.2383	0.0144	0.2527	1124.832	0.158583	-385.840266	-385.832147	-385.831203	-385.872601	32.01	
C	-0.131504668	 1.5530157455	-0.0085908172	-0.445871
C	 0.0339357516	 0.0430850912	 0.0217867073	 0.045152
C	 1.2735855342	-0.6359450555	-0.6760304965	-0.27759
C	 2.0712116736	-0.1170748021	 0.5398805669	 0.450257
O	 3.1076994729	 0.4043357705	 0.8081751715	-0.330998
C	 0.7907996286	-0.6507378276	 1.2178345089	-0.277592
C	 0.9867292394	-1.8453397217	 0.2499236252	 0.447066
C	 0.1610186503	-3.0666449855	 0.0298940592	-0.366245
C	 1.6398740174	-3.1704129182	 0.4060602224	-0.37014
H	 0.8005978929	 2.0736943109	 0.2330664214	 0.137442
H	-0.4552552633	 1.8866467159	-1.0002349877	 0.121986
H	-0.8916671411	 1.8732747279	 0.7118740063	 0.121986
H	-0.8950545738	-0.4801555128	-0.2191191515	 0.084147
H	 1.5321938763	-0.6442839499	-1.7331464026	 0.089375
H	 0.5118331787	-0.6755478959	 2.2695017804	 0.089375
H	-0.5710904947	-3.344798781	 0.7813048311	 0.119338
H	-0.1210472171	-3.3310134728	-0.9842648552	 0.119338
H	 2.3329828307	-3.5030570941	-0.3600894021	 0.121487
H	 1.8829196512	-3.5168795047	 1.405522942	 0.121487
123.7694	174.5861	205.4436	210.5893	233.5285	348.9309	391.2476	470.4759	506.2298	578.9866	697.2561	736.1926	757.0635	780.7976	782.2979	826.1116	919.4292	948.0629	956.915	1002.9576	1017.649	1050.234	1056.0429	1058.4999	1083.0767	1101.7049	1113.0211	1119.3668	1169.8536	1173.8523	1180.8647	1221.6598	1247.4422	1377.6057	1410.7902	1422.5427	1462.9476	1494.1013	1499.4288	1515.2863	1915.0755	3032.8926	3076.4939	3097.38	3109.1657	3123.8515	3127.3349	3139.9859	3143.7944	3201.6641	3215.4188
CC1C2C(=O)C1C21CC1	C[C@H]1[C@H]2C(=O)[C@@H]1C12CC1	
InChI=1S/C8H10O/c1-4-5-7(9)6(4)8(5)2-3-8/h4-6H,2-3H2,1H3	InChI=1S/C8H10O/c1-4-5-7(9)6(4)8(5)2-3-8/h4-6H,2-3H2,1H3/t4-,5-,6+
