21
gdb 79348	2.70967	1.72174	1.55644	1.4605	80.11	-0.2177	0.0807	0.2984	986.2785	0.186057	-387.098129	-387.090825	-387.089881	-387.129557	30.149	
C	-0.1414001658	 1.5131337151	-0.0195164581	-0.415261
C	 0.0517286536	-0.0064116472	-0.0293999597	 0.035543
C	 0.9418819686	-0.4791730174	-1.1734154636	-0.100229
C	 2.3654188784	-0.6363237647	-0.6175284919	-0.099711
C	 2.311677903	-0.2750699529	 0.8589900329	-0.225902
C	 0.8289856393	-0.5561853181	 1.195306565	-0.078549
C	 0.6324688477	-2.0740153025	 1.2483327761	-0.065313
O	 1.0531810619	-2.7074458976	 0.0381976922	-0.279777
C	 1.5358127002	-1.844414246	-0.9585963674	 0.119454
H	 0.8153082349	 2.0425352408	 0.0325782688	 0.118188
H	-0.6510929069	 1.8461741559	-0.929950951	 0.113455
H	-0.7488368877	 1.8270965891	 0.8363430961	 0.109577
H	-0.9370038587	-0.4817032656	-0.078789819	 0.070178
H	 0.7555608355	-0.1210244982	-2.1808031515	 0.07499
H	 3.2430614347	-0.3963712069	-1.2075636995	 0.077381
H	 2.9887053189	-0.8791625294	 1.4736223376	 0.098794
H	 2.5725129686	 0.7766185552	 1.0166951428	 0.098153
H	 0.5050559247	-0.1127375247	 2.1411576626	 0.066056
H	 1.2095633052	-2.5064818399	 2.0778067776	 0.092661
H	-0.4264402397	-2.3187637342	 1.4143575934	 0.092233
H	 1.8096028835	-2.4279397507	-1.8304515132	 0.098079
114.9692	211.381	229.4942	281.1399	384.4084	391.4788	527.5125	555.9612	645.5199	692.9291	750.7525	767.0951	803.3515	843.4244	879.7298	906.7877	909.1864	974.7822	1005.1898	1011.9535	1029.0062	1034.0229	1057.708	1090.981	1095.582	1112.3019	1134.5346	1140.717	1173.6506	1207.2523	1221.1359	1270.2265	1287.9875	1306.6852	1323.2935	1339.9623	1354.7631	1381.1684	1407.3943	1412.2681	1439.4112	1494.0714	1496.9742	1508.7187	1524.6006	2989.9199	3011.944	3022.1278	3029.6504	3037.8684	3071.1366	3075.9259	3095.0383	3104.0899	3155.4968	3165.3981	3179.3714
CC1C2C3CC1COC23	C[C@H]1[C@H]2[C@H]3C[C@@H]1CO[C@@H]23	
InChI=1S/C8H12O/c1-4-5-2-6-7(4)8(6)9-3-5/h4-8H,2-3H2,1H3	InChI=1S/C8H12O/c1-4-5-2-6-7(4)8(6)9-3-5/h4-8H,2-3H2,1H3/t4-,5-,6-,7+,8-/m1/s1
