19
gdb 110517	2.67658	1.60884	1.28234	2.2039	75.	-0.2273	0.0776	0.3049	1059.6558	0.157578	-422.951836	-422.943422	-422.942478	-422.984863	32.027	
C	 0.0229912668	 1.2980702756	 0.218290566	-0.241973
O	 0.0037860114	-0.0626484051	-0.1515440578	-0.249001
C	-1.2528265006	-0.6641019831	-0.0717390054	 0.164558
C	-1.35515813	-2.0740943726	-0.6114552561	-0.196064
C	-1.0332578059	-2.9744409315	 0.5888063984	 0.105764
O	-0.6629371643	-2.1448896592	 1.6852655104	-0.31566
C	-1.7597160378	-1.2688925719	 1.2919154437	 0.358766
C	-2.3525746805	-0.4831786957	 2.4196277898	-0.519916
C	-2.4088007194	-2.4296482389	 0.4419241685	-0.205815
H	 1.026818899	 1.6761814181	 0.0106339657	 0.12886
H	-0.7047062498	 1.8870782463	-0.3626335237	 0.101366
H	-0.1905419363	 1.4442272114	 1.2867089649	 0.109855
H	-2.0356572529	-0.0185252883	-0.5008546113	 0.062274
H	-1.2947414265	-2.4069695558	-1.638993499	 0.09383
H	-0.628276492	-3.9746785479	 0.5178853178	 0.110089
H	-1.5792723777	 0.1219506695	 2.9039885391	 0.138703
H	-3.1393391876	 0.1845909019	 2.0552373758	 0.121285
H	-2.7810623079	-1.1497575314	 3.1738420148	 0.13255
H	-3.399485478	-2.8540845315	 0.3673427185	 0.100531
73.4316	149.3803	171.5511	205.0504	247.4898	306.7399	308.9425	398.909	552.3699	598.464	683.315	761.611	777.6549	802.3838	816.9651	833.7539	889.5319	933.0774	985.6135	1003.6127	1018.2697	1028.3355	1041.1226	1084.5305	1121.8181	1133.2151	1162.5628	1177.8061	1179.7754	1214.6798	1234.0467	1298.4642	1341.5234	1365.6662	1395.8659	1416.0491	1477.077	1481.1482	1486.2799	1496.541	1508.6247	2973.2908	2984.1022	3028.5386	3038.1592	3109.5081	3113.6075	3115.1834	3206.9329	3209.9594	3226.2823
COC1C2C3OC1(C)C23	CO[C@H]1[C@H]2[C@H]3O[C@]1(C)[C@@H]23	
InChI=1S/C7H10O2/c1-7-4-3(5(4)9-7)6(7)8-2/h3-6H,1-2H3	InChI=1S/C7H10O2/c1-7-4-3(5(4)9-7)6(7)8-2/h3-6H,1-2H3/t3-,4+,5-,6+,7-/m1/s1
