15
gdb 13956	5.18832	1.34254	1.24373	4.86	65.12	-0.2688	0.0253	0.2941	975.4175	0.118684	-362.639246	-362.632019	-362.631075	-362.671217	26.548	
N	-0.0615997351	-1.1081073132	-0.4542818595	-0.300668
C	-0.0603627617	 0.0256779222	-0.2338357287	 0.264953
C	-0.0487109997	 1.4602097294	 0.0654179299	-0.452312
C	 1.3469428049	 2.0085493868	 0.1951342537	 0.431617
C	 2.4154573039	 1.6902885213	 1.2555635574	-0.288998
C	 2.9834742076	 3.139007719	 1.0409530696	-0.235462
C	 1.8830617139	 3.3661698386	-0.0043861	-0.049203
O	 2.0411515483	 2.348954006	-1.0070191506	-0.277083
H	-0.5732399806	 1.9960876958	-0.7322482223	 0.166874
H	-0.6052716232	 1.6220516428	 0.9960512571	 0.158104
H	 2.003540284	 1.5469865436	 2.2572696607	 0.11246
H	 3.0716287759	 0.8546608442	 1.0057733423	 0.127472
H	 2.8757100853	 3.7680322441	 1.9273033351	 0.111838
H	 4.0022467271	 3.2166396939	 0.6561161235	 0.121812
H	 1.3979290493	 4.2859995454	-0.3113619181	 0.108595
61.7644	111.6851	232.0367	301.2129	371.1857	386.4201	454.8509	501.6823	716.8306	733.7822	773.7681	867.9871	906.6485	916.5919	935.1792	954.1714	958.0559	1024.8356	1061.7079	1139.2035	1173.2752	1212.1464	1220.1368	1244.7069	1258.2233	1299.8652	1325.2882	1443.7943	1449.8692	1465.0685	1492.3679	2366.717	3044.4246	3071.0361	3077.7374	3092.9787	3124.6648	3139.7982	3184.3554
N#CCC12CCC1O2	N#CC[C@]12CC[C@H]1O2	
InChI=1S/C6H7NO/c7-4-3-6-2-1-5(6)8-6/h5H,1-3H2	InChI=1S/C6H7NO/c7-4-3-6-2-1-5(6)8-6/h5H,1-3H2/t5-,6-/m1/s1
