18
gdb 8284	6.97328	0.95237	0.94055	3.9851	71.63	-0.2229	0.0271	0.25	1267.4133	0.154005	-381.11884	-381.11048	-381.109536	-381.152402	29.887	
C	-0.131171363	 1.5240434014	-0.0867043554	-0.315838
N	-0.0501220589	 0.093137693	 0.0929127088	-0.059096
C	-1.2200214318	-0.622019783	 0.6316949282	-0.189022
C	-0.2409849021	-1.5607060952	 1.3832285317	 0.043556
C	 0.8083784118	-0.4402051784	 1.1647835206	-0.189036
N	-0.5571562366	-1.967726762	 2.7252776131	-0.286069
C	-0.5506684089	-3.26614095	 3.1413342531	 0.153004
O	-0.2835039062	-4.2242125832	 2.4495306367	-0.317231
H	 0.8384652629	 1.9132113667	-0.4146518213	 0.12405
H	-0.8667182595	 1.7603697014	-0.8627951841	 0.124052
H	-0.422084899	 2.0626356531	 0.8365180209	 0.085143
H	-1.8133452357	-0.015970022	 1.3410821638	 0.072528
H	-1.8941871651	-1.0556553469	-0.113869145	 0.11288
H	-0.0123665134	-2.4646652042	 0.8215558267	 0.137478
H	 1.8220359384	-0.7225408391	 0.8628086407	 0.112877
H	 0.8696947834	 0.2245398541	 2.0462143971	 0.072523
H	-0.7978433396	-1.2582160473	 3.4001957236	 0.244108
H	-0.8243900867	-3.3505728983	 4.2119760709	 0.074093
41.2308	90.195	190.0836	207.7903	235.603	316.4371	344.9561	403.7223	446.4596	545.4177	599.3316	758.1511	831.0753	891.6088	983.093	988.0292	1013.3088	1037.6542	1073.7179	1111.549	1122.8074	1157.0946	1194.6501	1223.4409	1224.6328	1255.9033	1274.2821	1300.3366	1333.0287	1371.6699	1433.8683	1453.1562	1487.6352	1498.4916	1500.8146	1529.0702	1537.1566	1809.6919	2915.2223	2929.641	2935.0871	2942.5072	3057.2546	3065.6336	3066.8087	3100.264	3147.2483	3623.4261
CN1CC(C1)NC=O	CN1CC(C1)NC=O	
InChI=1S/C5H10N2O/c1-7-2-5(3-7)6-4-8/h4-5H,2-3H2,1H3,(H,6,8)	InChI=1S/C5H10N2O/c1-7-2-5(3-7)6-4-8/h4-5H,2-3H2,1H3,(H,6,8)
