14
gdb 132966	3.26298	1.37381	0.9726	4.6923	68.31	-0.2319	-0.0658	0.166	1102.3346	0.101088	-478.022436	-478.014847	-478.013903	-478.054892	27.804	
C	-0.0318961967	 1.4567460368	-0.0019359299	-0.331484
N	-0.0451108676	-0.0030780221	 0.0073004003	-0.11697
C	-1.1938706177	-0.7032369932	-0.1473208197	-0.072693
C	-1.1505704769	-2.0623759478	-0.1308733009	 0.162259
F	-2.2596823687	-2.7926402184	-0.279757402	-0.0719
C	 0.1042814193	-2.6844445778	 0.0486989155	-0.056313
N	 1.2207279587	-2.0275807193	 0.1991447882	-0.323759
C	 1.2203169468	-0.6429672066	 0.1884093582	 0.453498
O	 2.2076309337	 0.049591319	 0.3205066791	-0.391287
H	 0.6173845846	 1.8144027573	-0.8040779631	 0.165494
H	-1.0484095114	 1.8251676292	-0.1466528819	 0.129085
H	 0.3736662173	 1.8277223915	 0.9418965687	 0.16547
H	-2.1152969633	-0.149101401	-0.2798976021	 0.151056
H	 0.1485538321	-3.7738899975	 0.0632638597	 0.137544
87.4233	127.2445	195.5043	306.7742	349.0229	369.1684	416.1384	486.7613	514.7423	531.0749	628.8088	694.077	803.2594	833.2309	916.7433	987.7396	990.4164	1060.8049	1086.7103	1153.301	1161.2516	1304.1501	1307.7301	1430.353	1451.3077	1463.625	1470.0163	1512.9147	1555.8869	1704.8502	1789.8868	3058.766	3130.6557	3130.9138	3152.8602	3208.4661
CN1C=C(F)C=NC1=O	Cn1cc(F)cnc1=O	
InChI=1S/C5H5FN2O/c1-8-3-4(6)2-7-5(8)9/h2-3H,1H3	InChI=1S/C5H5FN2O/c1-8-3-4(6)2-7-5(8)9/h2-3H,1H3
