16
gdb 19730	4.05683	2.5679	2.27135	1.5913	67.01	-0.2325	0.0079	0.2405	672.5847	0.134178	-346.579663	-346.574497	-346.573553	-346.608517	22.636	
C	 0.0134789792	 1.5891585152	 0.03978844	-0.208038
C	 1.5351767259	 1.7661972572	 0.0047713557	 0.055288
O	 1.9153581041	 0.9800038639	 1.1767199925	-0.298167
C	 1.5571065033	-0.1443546316	 0.3500720013	 0.098264
C	 2.0623699998	 0.5745123484	-0.9188594981	-0.072201
C	 1.1983601717	 0.0781562745	-2.0368374384	-0.099272
C	 0.0350186981	-0.328002214	-1.5093011633	-0.086463
C	 0.0331726121	 0.0127589494	-0.0351834596	-0.103943
H	-0.3731965842	 1.9614097037	 0.9907924953	 0.109997
H	-0.5309838972	 2.0432157056	-0.7902557585	 0.098149
H	 1.9681869308	 2.7649225705	-0.0244796483	 0.08152
H	 1.9181056029	-1.1134204194	 0.6965666685	 0.082372
H	 3.1420273223	 0.6067432073	-1.05472479	 0.0775
H	 1.4798436268	 0.065623854	-3.0821317822	 0.098782
H	-0.8229665741	-0.7134286754	-2.0472003936	 0.098105
H	-0.6976557815	-0.4944989792	 0.5921791288	 0.068107
346.32	380.8604	506.039	532.7751	618.0613	718.0802	742.9064	781.8626	804.264	835.6691	862.9514	890.6606	920.2432	946.0697	953.1901	958.8299	965.2402	1002.2321	1023.4977	1047.5155	1083.2548	1128.0576	1146.9225	1171.2198	1205.8631	1238.8274	1259.6815	1278.2542	1290.9388	1308.6086	1335.3714	1368.5855	1472.283	1635.8624	3073.4934	3115.2756	3127.753	3130.6916	3133.6027	3140.6646	3194.3822	3220.4846
C1C2OC3C2C=CC13	C1[C@H]2O[C@@H]3[C@H]2C=C[C@H]13	
InChI=1S/C7H8O/c1-2-5-6-3-4(1)7(5)8-6/h1-2,4-7H,3H2	InChI=1S/C7H8O/c1-2-5-6-3-4(1)7(5)8-6/h1-2,4-7H,3H2/t4-,5+,6-,7+/m1/s1
