17
gdb 28035	3.96618	0.96895	0.84547	3.2495	81.05	-0.2165	0.0212	0.2377	1375.3707	0.135694	-380.87333	-380.86446	-380.863515	-380.908051	31.988	
C	 0.0450800798	 1.4983780626	-0.0005856511	-0.484917
C	 0.0092967053	 0.0046774017	-0.0061971943	 0.280465
C	 0.1600250825	-0.8513756978	-1.0670696563	-0.204003
N	 0.0455401296	-2.1260808545	-0.5471686171	 0.028698
C	 0.1168524267	-3.3803634464	-1.2808286308	-0.329268
C	 1.4163857357	-3.6201168638	-1.9049810321	 0.32011
C	 2.476039	-3.8193371229	-2.4330568225	-0.442617
C	-0.1652221692	-1.9780554698	 0.7924208619	 0.00015
N	-0.1953635472	-0.7178507358	 1.1529337499	-0.322183
H	 0.8419653081	 1.8698390791	 0.6526449102	 0.133283
H	 0.2161261184	 1.8924826343	-1.0060840544	 0.115151
H	-0.8967219373	 1.9134234278	 0.374318714	 0.132243
H	 0.3454946888	-0.6856969653	-2.115581575	 0.129288
H	-0.113973516	-4.1846712655	-0.5743953959	 0.153988
H	-0.6685737228	-3.4004420302	-2.0468512162	 0.154068
H	 3.4175754336	-3.9953051329	-2.8923282212	 0.210215
H	-0.290733206	-2.8317000605	 1.4434435509	 0.125328
32.22	80.8418	107.803	200.9704	257.3977	298.7979	326.4371	391.4642	457.2935	620.5322	631.8475	661.6982	677.4262	683.5731	724.0656	777.9744	816.4555	955.2535	973.7815	979.5251	1016.642	1057.8893	1064.6549	1181.6779	1220.4562	1260.0906	1308.7798	1372.9396	1395.6635	1419.7246	1430.0874	1471.5966	1475.9634	1489.6056	1536.3713	1603.6438	2246.3831	3027.8292	3034.2366	3076.1167	3088.8822	3115.2847	3238.3784	3270.5844	3503.9486
CC1=CN(CC#C)C=N1	Cc1cn(CC#C)cn1	
InChI=1S/C7H8N2/c1-3-4-9-5-7(2)8-6-9/h1,5-6H,4H2,2H3	InChI=1S/C7H8N2/c1-3-4-9-5-7(2)8-6-9/h1,5-6H,4H2,2H3
