17
gdb 66883	2.64137	1.95985	1.39885	3.141	76.59	-0.2158	-0.0099	0.2059	949.9323	0.136449	-384.688574	-384.681236	-384.680292	-384.720114	29.091	
C	 0.0041146013	 1.5374265641	 0.0343344596	-0.502239
C	 0.0173642856	 0.0386433959	 0.0053032561	 0.193632
C	-0.9122685428	-0.8299983815	 0.8842499729	-0.129324
C	-1.4930320516	-2.0819684212	 0.2961201232	-0.094824
C	-0.514394566	-2.8113532025	-0.2443672453	-0.092153
C	 0.7893821231	-2.0501139727	-0.1342793737	-0.216674
C	 0.5633810296	-1.0185472461	 1.0162006988	-0.116085
C	 0.678058502	-0.7860997691	-1.0482705301	 0.380587
O	 1.2066149801	-0.4888233752	-2.0849609218	-0.335785
H	 0.9522116788	 1.9398455922	-0.3360780708	 0.139211
H	-0.7950152066	 1.9331512521	-0.6014453922	 0.136672
H	-0.1608819048	 1.9145798756	 1.0486494861	 0.120475
H	-1.4533034664	-0.2583630362	 1.6313752209	 0.094604
H	-2.5513782948	-2.3067811096	 0.2987500209	 0.106906
H	-0.619014134	-3.7309988502	-0.8046311011	 0.113366
H	 1.7214198599	-2.607032354	-0.2080075622	 0.090393
H	 1.1889913566	-0.8371742415	 1.8804200488	 0.111239
130.599	157.3407	224.556	235.9022	378.669	433.8531	469.6857	622.5731	643.5999	696.5462	730.2128	778.3564	800.8138	821.8003	856.1817	872.4383	883.4387	932.7915	954.066	977.1644	989.6446	1026.867	1065.0272	1096.3125	1121.6291	1130.8034	1200.5346	1253.2751	1260.3106	1298.1666	1348.5073	1405.43	1420.7692	1480.6245	1495.6126	1648.5865	1855.3748	3033.1565	3097.9013	3106.678	3141.248	3166.2103	3203.1603	3211.7399	3236.1224
CC12C3C=CC(C13)C2=O	C[C@]12[C@H]3C=C[C@H]([C@@H]13)C2=O	
InChI=1S/C8H8O/c1-8-5-3-2-4(6(5)8)7(8)9/h2-6H,1H3	InChI=1S/C8H8O/c1-8-5-3-2-4(6(5)8)7(8)9/h2-6H,1H3/t4-,5+,6-,8+/m1/s1
