17
gdb 79331	2.97629	1.85908	1.6559	1.5113	70.27	-0.2259	0.0046	0.2305	872.9491	0.138847	-421.821128	-421.814676	-421.813732	-421.851523	27.466	
O	 0.0398448922	 1.4090467419	 0.0566109239	-0.449346
C	 0.022946295	-0.0067274376	 0.0522223858	 0.152262
C	-1.3856518619	-0.5456673688	-0.139933409	-0.160448
C	-1.5025871594	-0.7205402616	-1.6237821117	 0.078279
O	-0.2892917855	-0.3846936374	-2.2361540172	-0.268588
C	 0.7188855844	-0.6031121407	-1.2002070829	-0.040348
C	 0.9122265118	-2.0841886432	-1.0407948068	-0.096397
C	-0.2169795529	-2.7585703956	-0.7995436631	-0.050125
C	-1.4609426433	-1.9654754567	-0.7233337709	-0.136292
H	-0.3159195371	 1.691927998	-0.7945670397	 0.287546
H	 0.5090043257	-0.329072909	 0.9749939493	 0.096841
H	-2.1846137914	-0.1809219775	 0.4917172992	 0.101106
H	-2.3654139877	-0.4956477468	-2.236465373	 0.109967
H	 1.6103543975	-0.0500544482	-1.4924899829	 0.086698
H	 1.884094654	-2.5455580252	-1.1643810651	 0.097564
H	-0.2617710667	-3.8395803811	-0.7207212045	 0.100676
H	-2.3995602148	-2.4860034403	-0.5745227315	 0.090605
175.0781	310.8467	350.2751	388.4272	402.6987	489.6241	584.9322	621.526	707.4597	734.5376	771.058	777.5046	805.4952	829.5366	906.8531	927.9411	949.1485	951.6688	979.3827	999.1348	1032.7829	1050.3069	1072.7265	1086.5753	1104.5287	1132.4671	1153.2762	1232.5359	1256.7538	1269.0925	1305.5218	1322.3843	1351.3573	1388.6762	1409.5491	1428.3537	1675.605	3103.0966	3132.3358	3174.6948	3186.4252	3201.7383	3209.7476	3213.206	3789.959
OC1C2C3OC1C=CC23	O[C@H]1[C@H]2[C@H]3O[C@@H]1C=C[C@@H]23	
InChI=1S/C7H8O2/c8-6-4-2-1-3-5(6)7(3)9-4/h1-8H	InChI=1S/C7H8O2/c8-6-4-2-1-3-5(6)7(3)9-4/h1-8H/t3-,4+,5-,6+,7-/m0/s1
