18
gdb 81139	2.47125	1.64193	1.2193	3.0478	76.05	-0.2584	0.0187	0.2771	1053.8291	0.148951	-401.943009	-401.935172	-401.934228	-401.975184	30.478	
C	-0.1794728277	 1.5428033598	-0.0014889657	-0.442402
C	 0.0081274954	 0.0341707005	-0.0117411948	-0.002982
C	 1.1651554376	-0.5958854902	-0.8381570804	 0.07684
C	 2.1342012159	-0.2386167824	 0.3121299621	-0.28213
C	 0.8634790148	-0.6130371482	 1.1530599267	 0.159467
C	 0.7295181816	-2.1013163092	 0.7628774361	-0.119889
O	 0.9543552081	-2.0057661776	-0.6586089169	-0.275864
C	 0.6949185082	-0.2498020817	 2.5372992846	 0.16273
N	 0.5494363231	 0.0574716852	 3.6429010683	-0.344705
H	 0.7546543617	 2.0975637871	 0.1146731372	 0.126936
H	-0.6433984272	 1.8672461219	-0.9385820307	 0.128954
H	-0.8429438852	 1.8386626898	 0.8173615088	 0.142458
H	-0.9525328589	-0.4642601365	-0.173038106	 0.092035
H	 1.3532992142	-0.3773010112	-1.8873263931	 0.092975
H	 3.0154904881	-0.8705928138	 0.4335382592	 0.119608
H	 2.3969534309	 0.8144828988	 0.3819873494	 0.126054
H	 1.4881771512	-2.7368088141	 1.2314996023	 0.119666
H	-0.2657648819	-2.5073471881	 0.9708362429	 0.120249
122.4954	152.3669	180.9096	272.3674	292.0811	355.4476	481.3607	485.0224	531.9027	542.5193	577.2663	662.4873	794.9454	831.4708	885.2105	914.935	944.1894	961.8364	1007.3776	1031.536	1048.8891	1085.9734	1103.9053	1135.1437	1158.9881	1188.9731	1205.5303	1233.8155	1243.248	1246.7281	1290.5404	1363.0105	1385.9595	1419.4938	1486.929	1495.1829	1507.7361	1529.115	2351.3086	3038.2233	3042.3796	3064.8119	3085.3549	3094.2496	3104.4665	3121.9347	3149.6554	3172.772
CC1C2CC1(CO2)C#N	C[C@H]1[C@H]2C[C@@]1(CO2)C#N	
InChI=1S/C7H9NO/c1-5-6-2-7(5,3-8)4-9-6/h5-6H,2,4H2,1H3	InChI=1S/C7H9NO/c1-5-6-2-7(5,3-8)4-9-6/h5-6H,2,4H2,1H3/t5-,6+,7-/m0/s1
