21
gdb 90029	2.79788	1.34184	1.09006	1.3947	78.84	-0.2349	0.0659	0.3007	1199.3456	0.181611	-424.207642	-424.198558	-424.197614	-424.241531	34.807	
C	 0.6724131144	 1.4674602785	-0.0046377826	-0.397121
C	-0.0439173562	 0.1358476177	-0.1208462987	 0.144091
C	 0.384509615	-0.7924510852	-1.2789685629	-0.363733
C	 0.9361463052	-1.6966215611	-0.1591404122	 0.43856
C	 0.6213611018	-3.2090275055	-0.1293223058	-0.306099
C	 2.0526604175	-3.4656150785	-0.6800252472	-0.271766
C	 2.4352614684	-2.0501665674	-0.162267005	 0.077727
O	 3.2475680494	-1.2004597666	-0.936193295	-0.433392
O	 0.4322752517	-0.8266943985	 0.8596471718	-0.335417
H	 1.7503782527	 1.3287604008	-0.1323994839	 0.131526
H	 0.3144047358	 2.1637641859	-0.7714809101	 0.110384
H	 0.4911122494	 1.916050611	 0.9772722155	 0.120615
H	-1.1285984296	 0.2699851261	-0.0225310709	 0.071113
H	-0.4366313072	-1.229698114	-1.8502595141	 0.10095
H	 1.1347446458	-0.3828965989	-1.9559145455	 0.127194
H	 0.5067692528	-3.5577784895	 0.9007873431	 0.113842
H	-0.2288273344	-3.555381381	-0.7206739306	 0.100446
H	 2.6077321271	-4.3211434986	-0.2906102668	 0.096259
H	 2.0708853177	-3.488664691	-1.77290142	 0.110142
H	 2.7805751854	-2.1014697808	 0.8803158795	 0.077755
H	 4.1696840674	-1.4237763635	-0.7786790286	 0.286924
50.601	113.1521	206.1093	229.7013	244.2901	257.8922	306.2874	372.2758	387.2988	467.7802	525.1197	547.0501	680.9146	791.1151	796.6701	864.9055	873.2848	909.3623	915.0862	929.5656	958.4181	969.2727	1064.2369	1090.3794	1101.0149	1106.2532	1152.9034	1159.8911	1187.0144	1200.9316	1215.3796	1242.3465	1247.9277	1259.2189	1281.4084	1321.8974	1329.0674	1384.5378	1408.5559	1429.2764	1476.8737	1484.7321	1489.153	1496.6989	1499.8358	3004.3862	3018.8841	3031.1497	3062.4999	3067.4448	3078.5927	3102.1496	3113.7277	3116.0425	3128.1621	3141.9366	3827.5584
CC1CC2(CCC2O)O1	C[C@H]1C[C@]2(CC[C@H]2O)O1	
InChI=1S/C7H12O2/c1-5-4-7(9-5)3-2-6(7)8/h5-6,8H,2-4H2,1H3	InChI=1S/C7H12O2/c1-5-4-7(9-5)3-2-6(7)8/h5-6,8H,2-4H2,1H3/t5-,6+,7-/m0/s1
