15
gdb 65852	2.69578	1.3	1.17775	4.7261	65.41	-0.2849	-0.0116	0.2733	1081.259	0.113464	-453.990893	-453.982729	-453.981785	-454.023928	29.959	
N	 0.0516525224	 1.5255616706	-0.1359998969	-0.532835
C	-0.0366361573	 0.0744640545	 0.0157915084	 0.079142
C	 0.5113183613	-0.3634308577	 1.4045347223	-0.094974
O	-0.2507856306	-1.502291815	 1.7988853171	-0.211155
C	-1.4379284537	-1.5601045688	 1.1262090362	 0.446113
O	-2.2629806432	-2.3912788757	 1.3471946965	-0.317952
C	-1.4916923233	-0.416904964	 0.1164336311	-0.393978
C	 0.6774275517	-0.6488537546	-1.0604344384	 0.25052
N	 1.2525480837	-1.161354681	-1.9227734935	-0.327779
H	 1.026269403	 1.8157602189	-0.1683604179	 0.249429
H	-0.3535015947	 1.8053532413	-1.0254110159	 0.252617
H	 1.5650097563	-0.6457472727	 1.3870235622	 0.144445
H	 0.3554467644	 0.4582113025	 2.1115459071	 0.135699
H	-2.1072533219	 0.3893556489	 0.5286811242	 0.15997
H	-1.9320982681	-0.7522172272	-0.8221157326	 0.160739
69.6366	140.0814	192.4953	211.6822	245.9718	345.1666	391.5905	455.9066	491.4935	563.1385	603.7448	629.6678	701.0485	760.299	846.0986	903.2775	905.494	951.3501	1040.2192	1082.2233	1109.6869	1150.3653	1187.9833	1210.8925	1271.3607	1285.7642	1328.2093	1393.7783	1456.3626	1518.5419	1667.2543	1902.0993	2344.3116	3054.2049	3069.641	3129.5192	3147.17	3485.6097	3561.6581
NC1(COC(=O)C1)C#N	N[C@]1(COC(=O)C1)C#N	
InChI=1S/C5H6N2O2/c6-2-5(7)1-4(8)9-3-5/h1,3,7H2	InChI=1S/C5H6N2O2/c6-2-5(7)1-4(8)9-3-5/h1,3,7H2/t5-/m0/s1
