18
gdb 27269	3.10865	1.49033	1.03351	0.7142	78.92	-0.1749	0.0576	0.2325	1131.125	0.150411	-401.991756	-401.983858	-401.982914	-402.023841	30.902	
O	 0.1292637533	 1.3439567408	 0.2090937631	-0.434238
C	 0.0904662522	 0.000468543	-0.00951077	 0.221483
C	 0.0648715232	-0.7900285778	-1.1286329766	 0.131356
C	 0.030843511	-0.7079999448	-2.6285572462	-0.370951
C	 0.4077786715	-2.1683788194	-3.0316890641	-0.189056
C	-0.0208663967	-3.0863643104	-1.8466460165	-0.347034
C	 0.0397188645	-2.144034738	-0.6768432775	 0.287743
C	 0.0528551178	-2.1511663488	 0.6903909921	-0.274987
N	 0.0807146498	-0.8171633331	 1.0892362191	-0.294443
H	 0.1383826081	 1.7835811449	-0.6459559661	 0.305975
H	-0.9694838786	-0.4488009925	-3.0042743307	 0.100127
H	 0.7267982397	 0.0183670061	-3.0647117081	 0.091518
H	-0.0400301322	-2.4693890908	-3.982953929	 0.090305
H	 1.4948183934	-2.2291285237	-3.149491257	 0.104633
H	-1.0405439924	-3.4655452101	-2.0002567316	 0.103096
H	 0.6291532821	-3.9624171054	-1.7544176459	 0.101362
H	 0.0470480399	-2.9416073131	 1.4223048353	 0.112847
H	 0.1437777034	-0.481176387	 2.0344227897	 0.260263
143.5684	176.864	196.3846	251.3582	271.5391	307.3101	432.6056	520.6886	567.8117	596.3874	630.4391	644.4553	675.413	714.0561	791.0403	850.988	894.1455	905.4071	992.8269	1039.3726	1063.2426	1066.7045	1146.5693	1149.3687	1201.5946	1206.7236	1232.6219	1273.4846	1317.598	1318.6441	1338.1491	1353.0764	1411.9249	1485.3856	1491.7238	1507.1924	1538.3954	1595.5049	1667.785	2995.5957	3008.5911	3036.523	3050.3533	3067.1926	3096.0765	3266.3023	3682.142	3851.7267
OC1=C2CCCC2=CN1	Oc1c2CCCc2c[nH]1	
InChI=1S/C7H9NO/c9-7-6-3-1-2-5(6)4-8-7/h4,8-9H,1-3H2	InChI=1S/C7H9NO/c9-7-6-3-1-2-5(6)4-8-7/h4,8-9H,1-3H2
