18
gdb 69673	3.24731	1.29113	1.18514	4.4746	80.28	-0.2285	0.0225	0.251	1110.6325	0.147589	-364.755843	-364.747876	-364.746932	-364.788091	31.306	
C	 0.0583602074	 1.5716134936	 0.0281904762	-0.491329
C	 0.0126640613	 0.0720710489	 0.0510339102	 0.349213
C	-0.8767569904	-0.7362243341	 0.952618065	-0.374433
C	 0.6179936479	-0.9157531521	 1.0426097294	-0.105037
C	 1.2549144503	-1.7073873025	-0.1273585352	-0.082153
C	 0.3164143812	-2.2310825689	-1.1987241183	-0.169739
C	-0.9484656729	-2.907612212	-1.0561090729	 0.287467
N	-1.9399804701	-3.5025536313	-1.005235738	-0.356173
C	 0.6345769768	-0.7482152849	-1.1217179147	-0.143035
H	 1.0488259948	 1.9397132259	-0.2645758412	 0.118555
H	-0.6709929887	 1.9807656366	-0.6819079559	 0.126366
H	-0.1728470521	 1.9829884252	 1.015604956	 0.122927
H	-1.2829310188	-0.1578382594	 1.7784932815	 0.114977
H	-1.5473299685	-1.5094763523	 0.604361068	 0.157801
H	 1.1705752075	-0.7068540377	 1.9495930911	 0.095904
H	 2.2724160792	-2.0756511977	-0.0917615134	 0.105226
H	 0.8880272057	-2.6908867748	-2.0038279646	 0.140966
H	 1.0983654793	-0.2633827625	-1.9723058131	 0.102497
96.5133	167.7557	212.3628	250.7364	281.1852	367.7687	383.4222	451.3873	581.8629	617.7783	640.9338	702.5228	737.6453	776.3116	835.9724	891.327	910.6514	932.7482	952.0756	960.6536	987.0048	1008.0736	1042.6428	1068.3639	1085.3165	1102.8193	1125.6763	1191.5847	1221.7148	1258.4207	1294.0585	1321.6317	1387.5531	1414.4744	1431.0843	1483.7062	1499.0035	1506.9609	2343.6898	3018.7054	3074.3756	3101.5778	3124.0971	3135.2748	3180.8303	3189.7695	3198.6245	3235.6288
CC12CC1C1C(C#N)C21	C[C@]12C[C@H]1[C@H]1[C@@H](C#N)[C@@H]21	
InChI=1S/C8H9N/c1-8-2-5(8)6-4(3-9)7(6)8/h4-7H,2H2,1H3	InChI=1S/C8H9N/c1-8-2-5(8)6-4(3-9)7(6)8/h4-7H,2H2,1H3/t4-,5+,6-,7-,8+/m1/s1
