14
gdb 13737	3.23041	1.62769	1.34742	3.5258	64.72	-0.2517	-0.0334	0.2183	944.185	0.10324	-382.49314	-382.484774	-382.48383	-382.52658	29.278	
C	 0.0623733953	 1.5272822085	-0.5782961041	-0.492555
C	-0.0012703999	 0.2416576164	 0.2222796023	 0.36968
O	 0.9309892413	-0.2016191658	 0.8448008209	-0.285834
C	-1.3443718735	-0.4557193296	 0.2023777501	-0.038321
O	-1.3991519934	-1.7846975022	 0.6877137249	-0.212514
C	-2.0444339749	-0.7891139297	 1.4789704868	-0.161557
C	-1.5016076831	-0.4837834373	 2.7732022822	 0.362461
C	-1.1116457506	-0.220210765	 3.8783816817	-0.418845
H	 1.0278031128	 2.0093555453	-0.4235913192	 0.150668
H	-0.0740522076	 1.3146966668	-1.645287902	 0.145673
H	-0.7458175045	 2.2063628997	-0.2826298358	 0.143014
H	-1.9778793932	-0.2501818665	-0.6622609258	 0.105253
H	-3.1334071462	-0.8229595901	 1.4342627525	 0.124301
H	-0.7423414225	 0.0057458395	 4.8484548154	 0.208575
49.294	106.7314	128.2901	184.2248	253.8103	258.568	375.4532	490.4773	539.1593	613.9254	631.2659	647.1488	674.6671	765.7495	856.0371	898.7541	955.0167	989.5357	1048.2504	1086.9126	1124.2803	1186.5738	1270.392	1375.4042	1383.6476	1425.985	1462.8303	1473.5887	1826.1558	2245.0737	3032.9711	3091.7553	3096.0975	3109.3137	3157.4805	3502.3662
CC(=O)C1OC1C#C	CC(=O)[C@H]1O[C@H]1C#C	
InChI=1S/C6H6O2/c1-3-5-6(8-5)4(2)7/h1,5-6H,2H3	InChI=1S/C6H6O2/c1-3-5-6(8-5)4(2)7/h1,5-6H,2H3/t5-,6+/m0/s1
