15
gdb 20359	5.96918	1.37871	1.2012	3.3238	66.15	-0.2497	-0.0085	0.2412	977.5886	0.120417	-362.640928	-362.63427	-362.633326	-362.672722	24.71	
C	 0.1749894132	 1.5877361536	 0.0681613724	-0.268722
C	 1.2983072328	 0.6211413187	-0.1959691014	-0.250837
C	-0.1070962096	 0.1052953291	 0.0486188454	-0.133462
C	-0.4380224826	-0.6278878765	 1.2900304016	 0.150359
C	-0.9556835705	-0.1718373578	 2.4630155397	-0.01027
O	-1.1090486152	-1.1709420164	 3.3453459646	-0.165383
N	-0.6908859756	-2.3591806205	 2.754770891	-0.131198
C	-0.2996862053	-2.0258167708	 1.5516107562	-0.045488
H	 0.1661603233	 2.0964831963	 1.0255249297	 0.115792
H	-0.1999323968	 2.18525207	-0.7547432876	 0.118561
H	 1.6967248477	 0.5506332572	-1.2017673535	 0.117511
H	 2.0282336973	 0.4700418615	 0.5912297946	 0.121825
H	-0.6190243868	-0.2626061163	-0.8367926114	 0.100557
H	-1.2584725379	 0.8058930291	 2.8037098274	 0.149596
H	 0.077048386	-2.7945694673	 0.8907703014	 0.131159
39.1847	157.7659	184.6863	381.257	438.4556	596.9014	627.4465	683.5408	792.6502	826.8123	846.6744	899.5667	904.677	913.1545	928.4889	940.6327	1014.13	1061.9295	1086.2967	1104.6346	1130.8409	1152.1104	1184.7797	1198.8505	1225.8517	1286.7629	1339.7452	1420.7223	1468.4024	1484.1152	1507.2781	1655.082	3135.3792	3137.9336	3143.4743	3218.4524	3233.1463	3238.2696	3266.9071
C1CC1C1=CON=C1	C1CC1c1conc1	
InChI=1S/C6H7NO/c1-2-5(1)6-3-7-8-4-6/h3-5H,1-2H2	InChI=1S/C6H7NO/c1-2-5(1)6-3-7-8-4-6/h3-5H,1-2H2
