18
gdb 75060	2.30294	1.84392	1.12063	4.1612	79.49	-0.2298	-0.0221	0.2076	1090.5645	0.147442	-401.958921	-401.950566	-401.949622	-401.99191	31.726	
C	 0.022459167	 1.5102261589	 0.0214916793	-0.512548
C	 0.0050441766	 0.013720118	 0.0022099969	 0.249783
C	-0.0601021306	-0.7703727444	-1.0826958354	-0.195687
C	-0.0533152973	-2.2413029567	-0.7624454985	-0.389335
C	 0.0417101324	-2.2621765083	 0.7692164003	 0.364157
O	 0.1172529036	-3.2319806737	 1.4760854893	-0.308159
C	 0.0575737213	-0.8192638192	 1.2367738453	 0.143664
C	 0.7520707886	-0.4488661293	 2.5062853374	-0.276465
N	-0.7062985316	-0.5214361527	 2.477739949	-0.338893
H	 0.9478005056	 1.8962507265	 0.4663529893	 0.134396
H	-0.0576645197	 1.914357101	-0.9907330121	 0.135055
H	-0.8082975601	 1.9221891073	 0.6085497788	 0.127504
H	-0.1070520805	-0.3949704774	-2.0990764642	 0.097589
H	-0.9566896364	-2.7694434664	-1.0941803995	 0.139914
H	 0.7948987341	-2.7853005291	-1.1969717239	 0.137802
H	 1.2306510916	-1.2477584172	 3.0659268816	 0.141657
H	 1.2379436812	 0.5220048461	 2.5588113955	 0.11535
H	-1.0978604459	 0.4161229069	 2.404113681	 0.234215
62.5557	154.3106	237.4364	241.635	249.509	261.7116	294.2342	490.7549	530.4862	545.4232	627.8016	633.3486	687.0707	801.5013	810.9282	832.2106	937.521	958.9061	968.2436	990.0432	1024.1764	1040.6544	1068.6769	1089.3793	1130.3656	1149.755	1177.0922	1263.829	1282.4696	1289.0963	1345.5978	1396.2203	1417.9267	1444.3362	1479.1153	1488.4145	1495.3231	1699.1341	1854.383	3020.2892	3027.9989	3055.9845	3066.8329	3107.7344	3116.1192	3190.4848	3201.131	3481.4519
CC1=CCC(=O)C11CN1	CC1=CCC(=O)[C@]21CN2	
InChI=1S/C7H9NO/c1-5-2-3-6(9)7(5)4-8-7/h2,8H,3-4H2,1H3	InChI=1S/C7H9NO/c1-5-2-3-6(9)7(5)4-8-7/h2,8H,3-4H2,1H3/t7-/m1/s1
