15
gdb 130029	3.29151	1.3317	1.04293	3.5798	72.06	-0.2234	0.0153	0.2387	1110.1855	0.114067	-412.975464	-412.967293	-412.966349	-413.008624	30.095	
N	 0.180035174	 1.2929605603	-0.3129392929	-0.605309
C	 0.0280628928	-0.0623362586	-0.114138743	 0.422202
N	-1.1126118595	-0.7055168157	 0.0716000808	-0.339109
C	-0.6946602084	-1.983971367	 0.2978325222	 0.034309
N	 0.6066806451	-2.1816129759	 0.2577871236	-0.262765
N	 1.0738571184	-0.9169461755	-0.0065080486	-0.014817
C	 2.4991526951	-0.6511099542	-0.0714450443	-0.289396
C	 2.9093061266	-0.0209271858	-1.3261284627	 0.29194
C	 3.2311151823	 0.5297143538	-2.3446086804	-0.44173
H	 0.9048357722	 1.5435250123	-0.9740569201	 0.262438
H	-0.7037328388	 1.7356342723	-0.5236025029	 0.267894
H	-1.3804741898	-2.7955009878	 0.4921353959	 0.12303
H	 2.7984445353	-0.0161158547	 0.7727895257	 0.159369
H	 2.9889723291	-1.6197946175	 0.0546387849	 0.177347
H	 3.5330867055	 0.9890513341	-3.2539913182	 0.214596
55.6317	101.7825	208.1138	260.8924	305.5374	323.2771	347.6751	452.7019	474.4138	634.1535	647.6444	679.4376	682.5533	736.3436	765.7306	794.3132	905.6134	952.962	960.7982	986.4503	1090.1932	1148.5699	1227.3148	1274.5518	1312.7474	1323.5302	1366.6442	1450.4218	1470.3882	1566.0299	1587.057	1657.6692	2239.5138	3025.0804	3107.5953	3255.2506	3500.3615	3540.9895	3649.6989
NC1=NC=NN1CC#C	Nc1ncnn1CC#C	
InChI=1S/C5H6N4/c1-2-3-9-5(6)7-4-8-9/h1,4H,3H2,(H2,6,7,8)	InChI=1S/C5H6N4/c1-2-3-9-5(6)7-4-8-9/h1,4H,3H2,(H2,6,7,8)
