16
gdb 125966	3.80807	1.22061	1.05815	5.1278	73.29	-0.2331	-0.0224	0.2107	1132.2512	0.123754	-434.017847	-434.009902	-434.008957	-434.050951	29.204	
C	-0.1886696329	 1.1134690817	-1.1800757652	-0.413115
C	 0.1263902016	-0.2950971987	-0.7425378297	 0.006033
C	 1.0743302942	-1.1472347775	-1.5213332789	-0.250199
N	 1.4499631575	-0.647972382	-0.2032341498	-0.16397
C	 2.4602495885	 0.2631509223	-0.0340247526	 0.458312
C	 2.6092491804	 1.3135374363	 0.8390807008	-0.215561
N	 3.8634841203	 1.8134850335	 0.6367442114	-0.096946
N	 4.484176699	 1.1860172233	-0.2515853298	-0.030199
O	 3.5769406152	 0.1316894311	-0.7388515717	-0.22702
H	 0.6342012524	 1.55385926	-1.7495831811	 0.139705
H	-1.0808040582	 1.1095497225	-1.8140831177	 0.135667
H	-0.3907179046	 1.7612546259	-0.3210153689	 0.135998
H	-0.6761906377	-0.802055097	-0.2111352853	 0.112135
H	 0.9313988647	-2.2218091825	-1.5811692549	 0.135173
H	 1.5629979585	-0.6969060532	-2.3813992091	 0.143005
H	 1.9329527511	 1.7126842344	 1.5735373624	 0.130982
54.4731	117.7505	165.496	219.9458	284.4025	369.8621	420.4564	492.1527	556.1911	604.7708	681.1363	745.951	775.1532	809.9013	881.9012	908.3792	975.2029	997.2728	1043.9519	1057.3472	1131.0195	1136.7326	1140.5608	1161.8762	1195.2907	1239.8119	1353.4995	1378.9621	1404.1998	1425.9522	1466.9324	1484.4933	1494.4059	1512.9265	1607.0145	3041.591	3107.5294	3115.7687	3117.4939	3139.1584	3206.83	3297.8178
CC1CN1C1=CN=NO1	C[C@H]1CN1c1cnno1	
InChI=1S/C5H7N3O/c1-4-3-8(4)5-2-6-7-9-5/h2,4H,3H2,1H3	InChI=1S/C5H7N3O/c1-4-3-8(4)5-2-6-7-9-5/h2,4H,3H2,1H3/t4-,8?/m0/s1
