17
gdb 61751	3.23275	0.8548	0.75703	1.7061	70.52	-0.256	-0.1058	0.1502	1472.7634	0.131212	-458.990243	-458.980047	-458.979102	-459.027238	34.008	
C	 0.0222946829	 1.4060592398	-0.4122820839	-0.413775
C	-0.1288580048	-0.0421694886	 0.1096899706	-0.110284
C	 0.6363242496	-0.2664442997	 1.4258766501	-0.278533
C	 2.1305389201	-0.2781072463	 1.1952393819	 0.153986
O	 2.9176560462	 0.4705169452	 1.7128546566	-0.235113
C	-1.6005984098	-0.3700704256	 0.2750989495	 0.285401
O	-2.1662236112	-0.5079530064	 1.3345158694	-0.277232
C	-2.4360983028	-0.5608607851	-1.0030142406	 0.098145
O	-1.9724076973	-0.5679604623	-2.1124481933	-0.219607
H	 1.0812683157	 1.6519112557	-0.5292474416	 0.145193
H	-0.465977905	 1.5293962599	-1.3808209624	 0.146827
H	-0.4092302443	 2.1197522747	 0.2966934633	 0.136019
H	 0.2536631973	-0.7138223037	-0.6710538368	 0.115656
H	 0.390012521	 0.5013613733	 2.1631038017	 0.133811
H	 0.3523611456	-1.2399331905	 1.8467282574	 0.129767
H	 2.4734200303	-1.0605017508	 0.4761653728	 0.073951
H	-3.5124277334	-0.7242686497	-0.7851128048	 0.115786
45.4691	49.7234	62.6861	123.1709	155.0842	209.3253	225.3153	236.2063	324.967	379.7208	487.7708	516.9213	593.1341	648.8439	762.953	807.99	921.0469	949.078	986.4496	1016.1881	1096.1906	1107.5933	1126.1837	1170.9757	1238.1141	1282.2272	1311.9904	1363.8064	1378.9286	1409.6338	1430.2868	1460.7209	1496.5356	1505.2564	1801.697	1822.8781	1836.9267	2845.867	2928.6153	3025.3163	3035.3364	3046.9923	3114.2963	3117.045	3140.008
CC(CC=O)C(=O)C=O	C[C@@H](CC=O)C(=O)C=O	
InChI=1S/C6H8O3/c1-5(2-3-7)6(9)4-8/h3-5H,2H2,1H3	InChI=1S/C6H8O3/c1-5(2-3-7)6(9)4-8/h3-5H,2H2,1H3/t5-/m0/s1
