17
gdb 75891	2.45315	1.57401	1.21463	2.632	63.54	-0.2722	-0.0024	0.2698	1045.9779	0.134644	-496.14134	-496.132585	-496.131641	-496.17433	33.09	
C	 0.2298702416	 1.5442698568	-0.0072921999	-0.444379
C	-0.0295540324	 0.0381491501	-0.0459745265	 0.318743
O	-1.4015507646	-0.2517009831	-0.2408923424	-0.475861
C	 0.7402908957	-0.6637745035	-1.1861901118	-0.1148
O	 2.0530091728	-0.9626083903	-0.6606368478	-0.217212
C	 2.0225182558	-0.9268171634	 0.6875859603	 0.414712
O	 2.9896677443	-1.0290038069	 1.3897113045	-0.35797
C	 0.5956197956	-0.6889400888	 1.1629651035	-0.048057
O	 0.5582784381	-0.0037018449	 2.3830137813	-0.440475
H	 1.3015883039	 1.7658981998	 0.0125817738	 0.135493
H	-0.2086756673	 2.014119148	-0.8915769255	 0.126377
H	-0.2090527567	 1.9824054407	 0.892956359	 0.136962
H	-1.9061947055	 0.2413279293	 0.4150931976	 0.289591
H	 0.2353193659	-1.5938225868	-1.4640788098	 0.134171
H	 0.8729447093	-0.0406095122	-2.0717568363	 0.132124
H	 0.0955042719	-1.6698907405	 1.2387244652	 0.110362
H	 1.4242502417	-0.1403526844	 2.7945038448	 0.300219
91.4504	178.2114	227.9735	244.3802	255.7301	286.9986	326.0755	350.183	383.9093	413.8591	514.6003	554.1226	579.4653	653.5382	716.0255	803.9799	907.8679	943.0633	964.5243	987.9644	1047.5997	1107.6687	1137.678	1165.8039	1200.9053	1209.9171	1228.2545	1295.2042	1347.0905	1378.2988	1394.6264	1414.8518	1423.757	1489.267	1493.1804	1517.5481	1874.1852	2963.87	3044.0495	3064.7717	3116.0662	3128.4349	3131.4352	3732.0983	3811.299
CC1(O)COC(=O)C1O	C[C@@]1(O)COC(=O)[C@H]1O	
InChI=1S/C5H8O4/c1-5(8)2-9-4(7)3(5)6/h3,6,8H,2H2,1H3	InChI=1S/C5H8O4/c1-5(8)2-9-4(7)3(5)6/h3,6,8H,2H2,1H3/t3-,5-/m1/s1
