16
gdb 5629	3.23236	1.79168	1.16364	1.1702	67.49	-0.176	0.061	0.237	985.5229	0.13153	-379.938743	-379.930341	-379.929397	-379.972246	30.449	
N	 0.0744061377	 1.422172256	 0.1507211212	-0.609848
C	 0.0336235431	 0.0133341565	 0.0285826906	 0.130901
C	-1.0755034783	-0.8036927622	-0.0022786265	-0.157151
N	-0.6275878782	-2.1084948389	-0.0325049851	-0.252107
C	 0.7395149506	-2.1301375219	-0.0341494784	-0.155776
C	 1.1874047733	-0.8294106589	 0.008777458	 0.241814
C	 2.6103832139	-0.3758493107	 0.057029248	-0.199632
O	 3.4567624976	-1.5164797058	 0.0179387184	-0.419838
H	 0.693701951	 1.8428304936	-0.5340972155	 0.235613
H	-0.8430465857	 1.834650694	 0.0307807302	 0.233872
H	-2.1274530924	-0.5679438092	 0.0034462946	 0.101765
H	-1.2182517136	-2.9192350039	-0.0550272363	 0.256465
H	 1.2964366294	-3.050977401	-0.0591804924	 0.128203
H	 2.8292772097	 0.298451354	-0.7920417986	 0.07857
H	 2.7831467835	 0.2173098984	 0.9714217189	 0.10077
H	 4.3644345584	-1.2142327502	 0.1086504629	 0.286378
27.0758	169.6323	184.7203	214.7512	245.3012	293.9269	313.0025	392.244	515.5866	618.739	621.7922	626.3494	686.1112	758.0524	759.6725	824.2175	912.1064	1049.9269	1059.016	1079.3848	1098.0099	1146.255	1205.1272	1227.3276	1242.3122	1283.4525	1351.4484	1430.1958	1472.2429	1479.7385	1519.6735	1573.318	1634.6774	1662.1757	2918.0059	2955.0566	3259.5238	3285.8087	3503.755	3594.3626	3700.9926	3839.9388
NC1=CNC=C1CO	Nc1c[nH]cc1CO	
InChI=1S/C5H8N2O/c6-5-2-7-1-4(5)3-8/h1-2,7-8H,3,6H2	InChI=1S/C5H8N2O/c6-5-2-7-1-4(5)3-8/h1-2,7-8H,3,6H2
