20
gdb 41691	3.01288	1.8256	1.5163	0.1172	77.12	-0.208	0.0736	0.2816	944.2293	0.174462	-403.095521	-403.088823	-403.087879	-403.126266	28.539	
C	-0.030738644	 1.4883054965	 0.2704429651	-0.249371
C	 1.4932636213	 1.5622223103	-0.0456943395	-0.248791
C	 1.4700549554	 0.0915623162	-0.5371185753	-0.008733
C	-0.0259903571	-0.0316494233	-0.0626390108	 0.123965
O	-0.9495117403	-0.4906887216	-1.0467820754	-0.283889
C	-0.3835384153	-0.6538172569	-2.3375831059	 0.115055
C	 0.9516059414	-1.4307344517	-2.2743692371	-0.192393
N	 1.6498278189	-0.1163996631	-1.9805281441	-0.127243
C	 0.5082261523	 0.5438570996	-2.7252457245	-0.210562
H	-0.3184030074	 1.7357300502	 1.2948837038	 0.099281
H	-0.663972317	 2.0624000272	-0.4098358115	 0.108955
H	 1.7969347932	 2.2894744321	-0.802239354	 0.10894
H	 2.1223926239	 1.7096583059	 0.8346718487	 0.105116
H	 2.1666274992	-0.5794949248	-0.0257761771	 0.07544
H	-0.1669403568	-0.6586946735	 0.8228969546	 0.077186
H	-1.193853487	-0.98768699	-2.9897588051	 0.076036
H	 1.0573524783	-2.1991391745	-1.5037518205	 0.106273
H	 1.2761877366	-1.8222532373	-3.2426434495	 0.106167
H	 0.7469709524	 0.5715009506	-3.7923249676	 0.108998
H	 0.2186680018	 1.542451988	-2.3954285343	 0.109571
138.1821	241.7505	331.6705	408.2234	441.2017	466.6839	484.8704	616.6471	705.5411	735.1998	779.8541	820.464	850.1122	871.9211	896.3098	923.3318	937.1068	948.8462	957.0387	996.2541	1012.7291	1060.3764	1076.5841	1097.9035	1129.8818	1152.0725	1180.1058	1210.6466	1227.2082	1237.1219	1252.6594	1261.1153	1264.822	1283.8473	1287.3332	1300.9293	1350.2297	1356.7265	1391.3851	1475.7501	1483.675	1494.5052	1521.444	3045.8782	3049.4487	3058.2306	3061.7169	3065.1496	3072.9668	3086.0852	3109.9439	3112.6033	3125.3696	3132.3658
C1CC2C1OC1CN2C1	C1C[C@H]2[C@@H]1O[C@@H]1CN2C1	
InChI=1S/C7H11NO/c1-2-7-6(1)8-3-5(4-8)9-7/h5-7H,1-4H2	InChI=1S/C7H11NO/c1-2-7-6(1)8-3-5(4-8)9-7/h5-7H,1-4H2/t6-,7+/m0/s1
