25
gdb 86207	2.35957	1.28562	0.99106	0.2125	94.82	-0.2358	0.0298	0.2656	1359.3747	0.229702	-352.387996	-352.378289	-352.377344	-352.421832	38.291	
C	-0.1045383444	 1.5757704783	 0.0219259087	-0.400912
C	-0.0122200093	 0.0421581888	 0.009834661	-0.023598
C	 0.6431858515	-0.4808514691	-1.2782362876	-0.195527
C	 0.9986564178	-1.9724019326	-1.1779290138	 0.015159
C	 1.4374554857	-2.5500348651	-2.5274636469	-0.416622
C	 2.0227551522	-2.2132143858	-0.039417808	-0.01821
C	 3.4841547884	-1.8818856108	-0.40691777	-0.391604
C	 1.6133812826	-1.4590047347	 1.2034927442	-0.083957
C	 0.7169851193	-0.473627612	 1.2267689714	-0.041714
H	 0.8937465394	 2.0269223596	-0.0000717887	 0.115411
H	-0.6600525665	 1.9423576878	-0.8478270358	 0.109463
H	-0.6139489817	 1.9361955626	 0.9220646734	 0.109377
H	-1.0439000893	-0.3444375999	 0.0478684324	 0.078105
H	-0.0256924944	-0.3095074699	-2.1305099131	 0.084763
H	 1.5530401614	 0.1010499587	-1.4805736354	 0.092566
H	 0.0820963414	-2.5002091372	-0.8769179276	 0.070317
H	 2.2904775235	-2.0050215537	-2.9452274311	 0.115603
H	 1.7259981886	-3.603422013	-2.4383146898	 0.107571
H	 0.6217026795	-2.4889508978	-3.2556778046	 0.1083
H	 1.9977517274	-3.286846919	 0.2001744734	 0.070567
H	 3.5896234183	-0.8429396814	-0.7354816005	 0.116971
H	 4.1340967908	-2.0144038347	 0.4643409938	 0.110438
H	 3.8596965192	-2.5329998346	-1.2015382525	 0.112749
H	 2.108944121	-1.7528441389	 2.1274329454	 0.078669
H	 0.4774201876	 0.0096016844	 2.1728574717	 0.076116
79.2218	157.3262	210.1123	229.6252	243.0963	258.8754	269.3964	298.9001	352.7047	388.1936	445.5822	457.1307	546.3358	578.3645	697.5472	762.9783	775.703	835.2942	878.783	928.2973	949.4094	965.1651	1001.1198	1008.4608	1021.4947	1033.749	1059.6996	1104.3783	1117.5139	1128.7582	1149.3521	1193.6549	1212.2083	1256.1498	1297.7821	1320.3722	1334.001	1342.4139	1362.2418	1371.5588	1393.4008	1398.6894	1404.4483	1410.83	1427.5721	1484.4411	1494.0583	1494.9875	1498.1761	1500.1777	1503.5922	1511.4469	1720.8866	2963.3042	2981.3002	2997.8063	3012.7654	3025.9041	3027.5819	3034.8904	3052.42	3092.2629	3095.3802	3096.8738	3097.4125	3101.041	3110.0209	3124.0751	3148.737
CC1CC(C)C(C)C=C1	C[C@H]1C[C@@H](C)[C@@H](C)C=C1	
InChI=1S/C9H16/c1-7-4-5-8(2)9(3)6-7/h4-5,7-9H,6H2,1-3H3	InChI=1S/C9H16/c1-7-4-5-8(2)9(3)6-7/h4-5,7-9H,6H2,1-3H3/t7-,8+,9-/m1/s1
